/*--------------------------------*- C++ -*----------------------------------*\
| =========                 |                                                 |
| \\      /  F ield         | OpenFOAM: The Open Source CFD Toolbox           |
|  \\    /   O peration     | Version:  v1806                                 |
|   \\  /    A nd           | Web:      www.OpenFOAM.com                      |
|    \\/     M anipulation  |                                                 |
\*---------------------------------------------------------------------------*/
FoamFile
{
    version     2.0;
    format      ascii;
    class       volScalarField;
    location    "9";
    object      p;
}
// * * * * * * * * * * * * * * * * * * * * * * * * * * * * * * * * * * * * * //

dimensions      [0 2 -2 0 0 0 0];


internalField   nonuniform List<scalar> 
2400
(
0.0617734
0.0613072
0.0607229
0.0602681
0.0596188
0.0585053
0.0568123
0.0549618
0.0532038
0.0498381
0.0481075
0.0423243
0.0406709
0.0340311
0.0305023
0.0245157
0.0181913
0.0136801
0.00566808
0.000470167
0.185076
0.18412
0.182733
0.181152
0.179137
0.176156
0.170713
0.165855
0.159702
0.15105
0.144168
0.129452
0.121906
0.104288
0.0916706
0.0742745
0.055691
0.0404409
0.0182959
0.00135485
0.308668
0.307691
0.305588
0.303111
0.299365
0.294637
0.285788
0.278149
0.267777
0.254569
0.241859
0.220214
0.204407
0.177818
0.153845
0.125655
0.0943553
0.066935
0.0314968
0.00161955
0.432707
0.43234
0.429936
0.42661
0.420757
0.414632
0.402429
0.392958
0.377903
0.36145
0.342322
0.315124
0.290368
0.255053
0.219705
0.179405
0.135484
0.0937462
0.0446074
0.000705222
0.557301
0.55861
0.556059
0.552067
0.543625
0.536701
0.521404
0.511006
0.49101
0.472568
0.446288
0.415558
0.381054
0.338109
0.291109
0.237716
0.180508
0.122087
0.0578257
-0.00191165
0.682402
0.686897
0.683957
0.679682
0.668403
0.661515
0.643654
0.632891
0.608239
0.58848
0.554702
0.52203
0.477044
0.42821
0.369544
0.302457
0.231696
0.154234
0.0731105
-0.00513676
0.807992
0.817195
0.813389
0.809395
0.795644
0.789374
0.770059
0.758969
0.730897
0.709806
0.668906
0.634537
0.578442
0.525387
0.45391
0.375238
0.289749
0.19239
0.0930039
-0.00660571
0.934314
0.949006
0.944296
0.940861
0.92569
0.92009
0.901001
0.889517
0.860034
0.837351
0.790861
0.753683
0.686734
0.629067
0.543524
0.455347
0.353466
0.237081
0.118261
-0.00508045
1.0619
1.08144
1.07657
1.07327
1.05821
1.05332
1.03596
1.02488
0.995408
0.97208
0.921487
0.881898
0.804727
0.741946
0.640147
0.542824
0.421697
0.286907
0.14704
-0.00210267
1.19167
1.21344
1.20926
1.20575
1.1918
1.18871
1.1733
1.16495
1.13514
1.11432
1.06003
1.02181
0.934571
0.869778
0.748953
0.642451
0.49642
0.341616
0.176829
-0.00118836
1.32273
1.34349
1.33997
1.33719
1.32448
1.32516
1.31033
1.308
1.27633
1.26332
1.20409
1.17433
1.07623
1.01653
0.873599
0.762375
0.582537
0.405102
0.206333
-0.00672903
1.45327
1.46952
1.46592
1.46584
1.45536
1.46115
1.44629
1.45126
1.41838
1.41645
1.353
1.33695
1.228
1.18102
1.01388
0.907206
0.683074
0.486842
0.234739
-0.0224199
1.58313
1.59053
1.58658
1.59074
1.58592
1.59607
1.58431
1.59413
1.56537
1.57142
1.51041
1.50386
1.39041
1.35604
1.16796
1.07553
0.798604
0.598825
0.262077
-0.0474992
1.71419
1.70646
1.70441
1.71326
1.71945
1.73108
1.73081
1.73947
1.72643
1.73009
1.68753
1.67591
1.57395
1.53888
1.34147
1.26071
0.930799
0.743181
0.289472
-0.0738999
1.84835
1.81717
1.8273
1.8387
1.86065
1.86984
1.8871
1.89442
1.90578
1.90298
1.89266
1.8656
1.79612
1.73938
1.55963
1.46328
1.09632
0.914254
0.325289
-0.0817583
1.98037
1.92836
1.95768
1.96655
2.01268
2.01094
2.06066
2.05691
2.10862
2.09444
2.12884
2.09013
2.06725
1.98457
1.8496
1.69897
1.32979
1.10867
0.382942
-0.0507687
2.10099
2.04381
2.0845
2.09542
2.15647
2.15658
2.23312
2.22925
2.32597
2.30362
2.40747
2.34521
2.41584
2.29008
2.23885
2.0194
1.69569
1.33808
0.478343
-0.0120929
2.20638
2.16217
2.19939
2.22191
2.28589
2.30524
2.38972
2.41006
2.52533
2.53016
2.67625
2.63488
2.80355
2.66
2.79754
2.45807
2.3235
1.70835
0.798875
-0.0935902
2.29948
2.27544
2.30539
2.34008
2.40257
2.44714
2.53079
2.58823
2.70372
2.76505
2.91551
2.95388
3.14551
3.09357
3.32689
3.03853
3.2173
2.37139
1.77385
-0.220632
2.38674
2.37394
2.40291
2.44428
2.50924
2.57187
2.66063
2.74772
2.86865
2.98058
3.13419
3.26064
3.44506
3.55489
3.76502
3.74713
3.96419
3.40497
3.36076
0.541764
-0.0104971
-0.0200208
-0.0303609
-0.0384984
-0.0536109
-0.0719409
-0.0610711
-0.0616001
-0.0761338
-0.065714
-0.0307971
-0.0569899
-0.0951147
-0.124
-0.160881
-0.206406
-0.19215
-0.207069
-0.233846
-0.200148
-0.0518088
-0.0984263
-0.16467
-0.212341
-0.266363
-0.343888
-0.333623
-0.365628
-0.405994
-0.343555
-0.0755042
-0.144283
-0.241602
-0.307741
-0.370559
-0.480246
-0.483786
-0.539697
-0.591446
-0.494794
-0.102436
-0.198051
-0.333965
-0.418929
-0.479911
-0.619676
-0.647571
-0.738357
-0.800779
-0.663396
-0.133062
-0.258151
-0.441893
-0.552807
-0.605519
-0.769903
-0.827985
-0.960939
-1.0381
-0.853789
-0.165307
-0.321822
-0.553182
-0.700138
-0.7477
-0.930919
-1.03204
-1.21556
-1.314
-1.08214
-0.197588
-0.38815
-0.650939
-0.844952
-0.900831
-1.09688
-1.25814
-1.50767
-1.64475
-1.36918
-0.230724
-0.457584
-0.730385
-0.978404
-1.06242
-1.26389
-1.50115
-1.85217
-2.05436
-1.74378
-0.270112
-0.534835
-0.807321
-1.09331
-1.2219
-1.42942
-1.76614
-2.26512
-2.58372
-2.23177
-0.323535
-0.632808
-0.903201
-1.19024
-1.35531
-1.57632
-2.07873
-2.8099
-3.32192
-2.94748
-0.402856
-0.769152
-1.03749
-1.27915
-1.44813
-1.69443
-2.44775
-3.56863
-4.39943
-3.95145
-0.52665
-0.96089
-1.21558
-1.36352
-1.48456
-1.78404
-2.8869
-4.53701
-5.79895
-5.22397
-0.720187
-1.2287
-1.43811
-1.42889
-1.42017
-1.76089
-3.31951
-5.54598
-7.25368
-6.41964
-1.01862
-1.60002
-1.71556
-1.46044
-1.23902
-1.54179
-3.58293
-6.24849
-8.19427
-7.25043
-1.49176
-2.13961
-2.08306
-1.46148
-0.960906
-1.16587
-3.63405
-6.59493
-8.59938
-7.54164
-2.30175
-3.01962
-2.59545
-1.66026
-1.02501
-0.894376
-3.56229
-6.3919
-8.30534
-7.37526
-3.60003
-4.20692
-3.32804
-1.51764
-1.33889
-0.933223
-3.37065
-5.99835
-7.52411
-6.67678
-5.30193
-5.65431
-3.95455
-2.19307
-1.84894
-1.25253
-3.09359
-5.42913
-6.6901
-5.97801
-6.44075
-5.38601
-4.16386
-1.63194
-1.99377
-1.33151
-2.86861
-5.06148
-6.15129
-5.34048
-0.0471459
-0.02429
-0.00252485
-0.00801339
-0.0288685
-0.0439679
-0.0333011
-3.19153e-05
0.0288382
0.0672473
0.11428
0.143269
0.146609
0.13782
0.123261
0.10538
0.0878464
0.0697187
0.0561692
0.0264158
-0.143982
-0.0765132
-0.0267535
-0.0282207
-0.0815673
-0.123275
-0.101993
-0.0225572
0.0830813
0.205005
0.311825
0.373645
0.385327
0.367767
0.330185
0.28052
0.229434
0.177128
0.133828
0.0586663
-0.243938
-0.128794
-0.0396369
-0.0419965
-0.139984
-0.218461
-0.182645
-0.0400882
0.140007
0.318499
0.47907
0.57261
0.595455
0.568434
0.509709
0.433216
0.353211
0.270397
0.19538
0.0811741
-0.34716
-0.178232
-0.0509763
-0.0538829
-0.202852
-0.326079
-0.275926
-0.07176
0.182366
0.436046
0.636
0.744182
0.763254
0.724191
0.648599
0.551414
0.448773
0.342991
0.241763
0.0983495
-0.458511
-0.227325
-0.056231
-0.0551973
-0.272954
-0.457139
-0.397071
-0.117478
0.22624
0.539176
0.763761
0.885485
0.907487
0.864253
0.773657
0.655642
0.530642
0.401364
0.27471
0.108879
-0.577998
-0.269793
-0.0487625
-0.0345444
-0.351736
-0.620628
-0.548319
-0.177896
0.257332
0.633515
0.892869
1.01379
1.02615
0.965125
0.860939
0.731458
0.593253
0.447555
0.300516
0.116622
-0.713012
-0.302459
-0.0269532
0.0226238
-0.436563
-0.830743
-0.760523
-0.277065
0.274447
0.722702
0.990332
1.11391
1.12432
1.06277
0.946236
0.798887
0.643887
0.481805
0.317967
0.121069
-0.864251
-0.31529
0.0255973
0.130786
-0.534828
-1.12036
-1.04908
-0.405286
0.27854
0.79629
1.09318
1.2087
1.20599
1.1242
0.998624
0.846182
0.68264
0.509225
0.331316
0.123875
-1.04456
-0.302669
0.117823
0.278565
-0.668474
-1.50951
-1.4405
-0.591084
0.260824
0.865945
1.17668
1.28312
1.27483
1.19137
1.05236
0.886381
0.711424
0.528192
0.339842
0.125084
-1.2657
-0.269705
0.259482
0.404058
-0.853083
-1.99523
-1.91887
-0.817237
0.223963
0.917362
1.24684
1.34802
1.32476
1.22469
1.08199
0.913444
0.733261
0.54285
0.345808
0.125444
-1.55645
-0.23278
0.454063
0.512076
-1.07554
-2.50975
-2.42352
-1.06189
0.174161
0.959046
1.30043
1.39599
1.3698
1.26583
1.11105
0.934174
0.747818
0.552137
0.34908
0.125073
-1.94637
-0.200649
0.704202
0.656278
-1.2796
-2.99341
-2.87728
-1.28661
0.121044
0.993787
1.35574
1.45068
1.40214
1.28287
1.125
0.946819
0.757995
0.558544
0.350801
0.124322
-2.44258
-0.174023
0.973001
0.845613
-1.43149
-3.38347
-3.23314
-1.45345
0.0939007
1.03165
1.39189
1.47069
1.42289
1.29888
1.13592
0.954491
0.763503
0.5618
0.351077
0.123283
-2.95897
-0.149596
1.24133
1.05952
-1.51148
-3.63205
-3.44145
-1.52831
0.103981
1.0693
1.4262
1.49711
1.43496
1.30411
1.13931
0.957833
0.766337
0.563258
0.3505
0.122121
-3.37212
-0.119134
1.43802
1.20444
-1.53035
-3.70781
-3.46752
-1.49298
0.156232
1.11474
1.45755
1.51663
1.44606
1.30654
1.13934
0.957768
0.766465
0.563014
0.349227
0.120891
-3.57988
-0.169748
1.45691
1.23451
-1.49804
-3.60536
-3.30512
-1.3433
0.25718
1.16611
1.48202
1.52456
1.43991
1.30038
1.13493
0.955446
0.765154
0.561821
0.347585
0.119666
-3.53607
-0.283768
1.28856
1.1296
-1.43825
-3.34613
-2.97422
-1.09188
0.391308
1.21703
1.50073
1.52859
1.43903
1.29446
1.12969
0.951822
0.762689
0.559893
0.345717
0.118476
-3.24443
-0.463031
0.926328
0.875394
-1.39049
-2.95864
-2.53571
-0.78583
0.538435
1.26753
1.51568
1.5266
1.42813
1.28519
1.12271
0.947269
0.75965
0.55762
0.343797
0.11736
-2.74105
-0.696697
0.461081
0.474679
-1.38513
-2.52357
-2.01905
-0.469066
0.68711
1.31652
1.52683
1.52249
1.4197
1.2765
1.11592
0.942586
0.756406
0.555223
0.341934
0.116341
-2.22356
-0.942748
-0.0736879
-0.0534395
-1.45411
-2.13455
-1.498
-0.160966
0.830478
1.36314
1.53577
1.51695
1.41005
1.26772
1.10929
0.938041
0.753251
0.552907
0.340225
0.115437
-1.74241
-1.17886
-0.611355
-0.626664
-1.59309
-1.86123
-1.11451
0.08853
0.949642
1.40116
1.54112
1.51116
1.40215
1.26079
1.1041
0.934431
0.750704
0.551031
0.338885
0.114743
-1.84432
-1.42244
-1.15052
-1.19762
-1.77409
-1.67548
-0.818014
0.286286
1.04445
1.42969
1.54322
1.50525
1.39549
1.25531
1.1001
0.931652
0.748725
0.549569
0.33785
0.114213
-1.71584
-1.70682
-1.75642
-1.82616
-2.00954
-1.54581
-0.570314
0.453586
1.12482
1.45087
1.54185
1.49866
1.38938
1.2507
1.09685
0.929396
0.747097
0.548353
0.336989
0.113774
-1.67329
-2.00553
-2.43097
-2.49761
-2.28786
-1.46511
-0.370361
0.591578
1.18695
1.46335
1.53651
1.49118
1.38381
1.24698
1.09437
0.927704
0.745859
0.547409
0.336314
0.113424
-1.6363
-2.35177
-3.16979
-3.20998
-2.58691
-1.42066
-0.214364
0.700953
1.23185
1.467
1.52696
1.48269
1.37879
1.24418
1.0927
0.926591
0.745026
0.54675
0.33583
0.113165
-1.60415
-2.74045
-3.94847
-3.91739
-2.86434
-1.39833
-0.100198
0.781776
1.26083
1.46204
1.51313
1.47312
1.37429
1.24226
1.09179
0.926039
0.744595
0.546377
0.335538
0.112995
-1.55139
-3.13378
-4.74246
-4.56994
-3.08978
-1.39151
-0.0277911
0.831862
1.27356
1.44932
1.49551
1.46251
1.37028
1.24117
1.09159
0.926003
0.744543
0.54628
0.335434
0.112912
-1.51706
-3.57237
-5.51442
-5.20559
-3.28152
-1.40141
0.00475961
0.848166
1.26829
1.42957
1.47499
1.45107
1.36666
1.24075
1.09197
0.92641
0.744829
0.546439
0.335507
0.112913
-1.40322
-4.01495
-6.29074
-5.84585
-3.47885
-1.42805
0.00424845
0.832295
1.2432
1.40172
1.45174
1.43872
1.3631
1.24073
1.09275
0.927149
0.74539
0.546823
0.335745
0.112995
-1.18931
-4.44804
-7.12067
-6.47972
-3.68597
-1.46989
-0.0213028
0.789425
1.19904
1.3644
1.4246
1.42452
1.35868
1.24055
1.09366
0.928074
0.746155
0.547398
0.336132
0.113158
-0.908826
-4.95803
-7.98617
-7.14712
-3.93471
-1.53256
-0.074315
0.713318
1.12427
1.30518
1.38481
1.40338
1.35052
1.23883
1.09419
0.929091
0.747192
0.548275
0.336758
0.113452
-0.317182
-5.33913
-8.66828
-7.67765
-4.13589
-1.60148
-0.153892
0.608449
1.01716
1.2154
1.31941
1.36523
1.33404
1.23347
1.09328
0.929862
0.748408
0.549488
0.337728
0.113939
0.819126
-5.54357
-9.18866
-7.83141
-4.1834
-1.63095
-0.228484
0.513221
0.919381
1.13113
1.25075
1.31441
1.30233
1.21827
1.08811
0.928964
0.749166
0.550691
0.338858
0.11456
1.54589
-5.8638
-9.32932
-7.59643
-4.06497
-1.61586
-0.288796
0.429307
0.83721
1.05963
1.19136
1.26766
1.27108
1.20022
1.07993
0.9264
0.749191
0.551695
0.340063
0.115309
1.51794
-5.82282
-8.95993
-7.00266
-3.77332
-1.54608
-0.324337
0.358844
0.764144
1.00031
1.14519
1.22566
1.23398
1.17621
1.06828
0.921917
0.74838
0.55243
0.341305
0.116188
1.0442
-5.17631
-8.22821
-6.15364
-3.34952
-1.41698
-0.323493
0.315846
0.706174
0.943687
1.09609
1.189
1.20803
1.15733
1.05732
0.916391
0.746418
0.552504
0.342414
0.117165
0.333394
-4.44729
-7.18404
-5.17178
-2.87917
-1.26787
-0.303597
0.295539
0.671838
0.906499
1.05687
1.14525
1.16763
1.13301
1.04509
0.911158
0.744535
0.552439
0.343516
0.118277
-0.196592
-3.66371
-5.76863
-4.18612
-2.40401
-1.10935
-0.281664
0.270931
0.637459
0.86884
1.01356
1.10226
1.13946
1.11459
1.03187
0.902389
0.73977
0.550776
0.344103
0.119416
-0.408484
-2.80695
-4.38368
-3.31584
-1.98002
-0.942178
-0.238209
0.258438
0.60425
0.830094
0.972815
1.0586
1.09297
1.0779
1.01096
0.891165
0.734121
0.548403
0.344383
0.120627
-0.428874
-2.09142
-3.25061
-2.59337
-1.62105
-0.800725
-0.202559
0.246177
0.575881
0.795431
0.93116
1.01316
1.05889
1.05707
0.991546
0.875569
0.723306
0.542797
0.34339
0.121686
-0.40698
-1.5583
-2.41123
-2.02931
-1.31794
-0.669063
-0.165088
0.232863
0.538295
0.7515
0.890534
0.970477
1.00946
1.00543
0.955803
0.85272
0.710017
0.535647
0.341589
0.122678
-0.388349
-1.17127
-1.79626
-1.58583
-1.06571
-0.553017
-0.129467
0.220859
0.505261
0.710463
0.838949
0.917706
0.963372
0.975181
0.927381
0.825895
0.689055
0.522744
0.337156
0.123106
-0.36523
-0.881759
-1.34027
-1.233
-0.853572
-0.453538
-0.100849
0.205357
0.460839
0.657474
0.793383
0.870048
0.90875
0.909585
0.870728
0.785627
0.662748
0.507144
0.331182
0.123131
-0.331446
-0.660867
-1.00036
-0.954657
-0.676985
-0.364939
-0.0753359
0.187858
0.421372
0.604647
0.727354
0.803469
0.84487
0.860303
0.827646
0.743069
0.627148
0.482282
0.320179
0.121629
-0.286684
-0.491317
-0.735296
-0.726094
-0.528054
-0.289606
-0.0545592
0.168552
0.369707
0.540757
0.667155
0.73827
0.771719
0.775833
0.746409
0.678467
0.57978
0.452108
0.306354
0.119051
-0.234552
-0.358018
-0.533321
-0.539873
-0.40049
-0.222373
-0.0392159
0.144669
0.320556
0.47083
0.582628
0.65142
0.686638
0.697172
0.673863
0.611719
0.522045
0.40883
0.283165
0.112818
-0.178696
-0.249618
-0.366981
-0.384004
-0.291777
-0.16405
-0.0253112
0.118271
0.259901
0.393662
0.496276
0.554457
0.579494
0.58347
0.563123
0.51375
0.443333
0.353054
0.253791
0.104434
-0.123639
-0.162394
-0.238293
-0.253273
-0.196203
-0.112923
-0.016971
0.0896095
0.196938
0.297735
0.382813
0.433656
0.456914
0.460194
0.444373
0.406947
0.353386
0.282149
0.208665
0.0877414
-0.0697105
-0.0864912
-0.126175
-0.140022
-0.110851
-0.0642236
-0.00893839
0.0547083
0.135588
0.199666
0.255192
0.284752
0.296269
0.29832
0.288721
0.264406
0.230593
0.186488
0.146011
0.0655399
-0.0215794
-0.024068
-0.0327235
-0.0416067
-0.0342487
-0.02038
-0.00213678
0.0189485
0.0395827
0.0716024
0.0986589
0.111825
0.113979
0.112457
0.108248
0.100041
0.0899905
0.0760107
0.0645395
0.031328
-3.8769
-2.22281
-4.2063
-4.66855
-3.84708
-2.73442
-1.74943
-0.989293
-0.86763
-1.49104
-2.40885
-2.39952
-4.74479
-5.12015
-4.6621
-3.12882
-1.71745
-0.825956
-0.742059
-1.36464
-1.55496
-2.6229
-4.88195
-4.79072
-4.64153
-2.59159
-1.67574
-0.673863
-0.58987
-1.14688
-0.965775
-2.16234
-3.67526
-4.15989
-4.02485
-2.82447
-1.58592
-0.192338
-0.536149
-1.41273
-0.585619
-1.57256
-2.81405
-3.23476
-3.25087
-1.92555
-1.39783
-0.520657
-0.785622
-1.33452
-0.353673
-1.15742
-2.11244
-2.4808
-2.50957
-1.75925
-1.47847
-0.517397
-0.709634
-0.839385
-0.212542
-0.844509
-1.5939
-1.89208
-1.9953
-1.45723
-1.21601
-0.592154
-0.67802
-0.847072
-0.115446
-0.620696
-1.20473
-1.47503
-1.57769
-1.2223
-1.06683
-0.645007
-0.639768
-0.772031
-0.0503271
-0.465169
-0.915813
-1.16211
-1.24841
-1.06291
-0.908622
-0.654009
-0.554331
-0.703424
-0.00817836
-0.355965
-0.701665
-0.924032
-0.999004
-0.921022
-0.76792
-0.627297
-0.462987
-0.61688
0.0205394
-0.275677
-0.539896
-0.739886
-0.801627
-0.783093
-0.642873
-0.581041
-0.394016
-0.537982
0.0402198
-0.212229
-0.417938
-0.589535
-0.640388
-0.655174
-0.538181
-0.519018
-0.348478
-0.467502
0.0511913
-0.161536
-0.322957
-0.464972
-0.510666
-0.540299
-0.451181
-0.447978
-0.314358
-0.401279
0.054211
-0.119952
-0.249035
-0.362593
-0.405418
-0.438407
-0.376153
-0.375505
-0.281409
-0.338071
0.0515521
-0.0864196
-0.190748
-0.278542
-0.317836
-0.349154
-0.30847
-0.305423
-0.245076
-0.27853
0.0454476
-0.0603378
-0.143717
-0.208918
-0.242994
-0.270467
-0.245111
-0.240534
-0.203836
-0.222083
0.0370213
-0.0406047
-0.103914
-0.150509
-0.178552
-0.20052
-0.185076
-0.180571
-0.158986
-0.168197
0.0272904
-0.0255623
-0.0699327
-0.100806
-0.121462
-0.137594
-0.129022
-0.12506
-0.112203
-0.116678
0.0166397
-0.0141502
-0.0397656
-0.0569685
-0.0703936
-0.0802773
-0.0753718
-0.072685
-0.0655843
-0.0669707
0.00537406
-0.00458656
-0.0130301
-0.0185704
-0.0232034
-0.0266469
-0.0249031
-0.0236007
-0.0208513
-0.0214793
2.48086
2.47606
2.50169
2.54799
2.61278
2.6869
2.77568
2.87645
2.99694
3.12871
3.28207
3.43758
3.62068
3.77366
3.97766
4.02648
4.23182
3.81375
3.73438
1.43046
2.40525
2.38277
2.41233
2.45119
2.51537
2.56834
2.65316
2.72174
2.83824
2.91576
3.06617
3.12702
3.31428
3.30489
3.5207
3.32029
3.44789
2.8107
2.30638
0.904187
2.31223
2.27095
2.30837
2.33529
2.40016
2.42689
2.51103
2.54313
2.65598
2.68102
2.81762
2.81289
2.95635
2.87648
2.96316
2.74565
2.59256
2.1429
1.44905
0.832467
2.19941
2.15442
2.1859
2.20687
2.2608
2.27774
2.34009
2.36094
2.4345
2.4501
2.51928
2.51638
2.54524
2.49962
2.42563
2.28241
1.99752
1.77216
1.11573
0.713173
2.06621
2.04061
2.05193
2.07219
2.10012
2.12541
2.15268
2.18001
2.20594
2.22685
2.2386
2.24141
2.20292
2.17853
2.02962
1.97056
1.65678
1.51166
0.95759
0.558559
1.92397
1.92603
1.9259
1.93939
1.95015
1.97367
1.98155
2.00713
2.00312
2.02838
1.99924
2.0167
1.93467
1.9338
1.76352
1.71554
1.4276
1.25843
0.820158
0.434597
1.78371
1.80614
1.80209
1.80959
1.80646
1.82712
1.82171
1.84515
1.82501
1.84726
1.80063
1.81245
1.72129
1.70415
1.54773
1.46664
1.22513
1.02582
0.695278
0.364522
1.64483
1.67926
1.67339
1.67624
1.66471
1.68019
1.66836
1.68445
1.65813
1.66778
1.61894
1.61141
1.52739
1.48173
1.35008
1.2386
1.046
0.846577
0.593913
0.329466
1.50688
1.54522
1.53906
1.53837
1.52288
1.53124
1.5171
1.52328
1.49629
1.49075
1.44543
1.41776
1.34522
1.27949
1.1693
1.04999
0.893329
0.720233
0.517243
0.303339
1.37062
1.40495
1.40067
1.39697
1.3811
1.38124
1.36731
1.36333
1.33868
1.32026
1.27968
1.2392
1.17559
1.1033
1.00827
0.898709
0.766754
0.621223
0.454369
0.277414
1.23654
1.261
1.25971
1.25426
1.24024
1.23298
1.21969
1.20793
1.18577
1.15995
1.12273
1.07756
1.02009
0.950922
0.867225
0.771692
0.659508
0.536404
0.398582
0.251205
1.10429
1.11724
1.11745
1.1121
1.10061
1.08904
1.0753
1.05925
1.03818
1.01027
0.975355
0.931382
0.878827
0.816511
0.743275
0.660369
0.565667
0.461312
0.347807
0.225825
0.972616
0.97674
0.975965
0.971475
0.962146
0.949632
0.935231
0.917597
0.897086
0.870185
0.837768
0.79758
0.750517
0.695452
0.63236
0.560918
0.481561
0.39392
0.300843
0.200778
0.840545
0.839921
0.837467
0.833366
0.825525
0.813949
0.799932
0.782448
0.763021
0.738307
0.709174
0.673685
0.63254
0.584788
0.531189
0.470653
0.404846
0.332313
0.256414
0.175025
0.708307
0.705946
0.702551
0.69852
0.691694
0.681638
0.669005
0.65298
0.635346
0.613369
0.587962
0.557557
0.522564
0.482183
0.437559
0.387421
0.333737
0.274849
0.213642
0.148353
0.576792
0.574243
0.570791
0.566908
0.560966
0.552565
0.541807
0.528067
0.51288
0.494084
0.472699
0.447615
0.418878
0.385968
0.349856
0.309635
0.266985
0.220414
0.172249
0.121133
0.446635
0.444435
0.441477
0.438103
0.433089
0.426431
0.4177
0.406765
0.394545
0.379311
0.362322
0.342612
0.320241
0.294763
0.266888
0.236124
0.203661
0.168462
0.132108
0.0938186
0.317859
0.316197
0.314026
0.311441
0.307562
0.302694
0.296178
0.288319
0.279382
0.268117
0.255796
0.241556
0.225573
0.207455
0.187618
0.165942
0.143112
0.118498
0.0931823
0.0666239
0.19025
0.189147
0.187892
0.186257
0.183788
0.18082
0.176683
0.172054
0.166542
0.159596
0.152177
0.143444
0.133898
0.123001
0.111126
0.0982904
0.0846561
0.0701754
0.0552332
0.0396163
0.0633614
0.0629274
0.062543
0.0619919
0.0611096
0.0601328
0.0586682
0.0571916
0.0552766
0.0529252
0.050459
0.047449
0.0443225
0.0406351
0.0366979
0.032403
0.0278832
0.0230876
0.0181302
0.0129056
2.457
2.44841
2.48024
2.52426
2.59426
2.66578
2.76602
2.86779
3.00597
3.14181
3.3212
3.49024
3.71051
3.90181
4.15069
4.3248
4.57684
4.54801
4.93464
3.0754
2.50097
2.50724
2.53805
2.58685
2.65561
2.73842
2.84181
2.9611
3.10566
3.26706
3.45984
3.667
3.91468
4.16643
4.47115
4.74916
5.08041
5.3023
5.45014
5.44567
2.53922
2.55269
2.58424
2.636
2.70583
2.79561
2.90361
3.03477
3.1869
3.36751
3.57247
3.81235
4.07957
4.38639
4.7199
5.08502
5.47364
5.84236
6.25168
6.13335
2.57397
2.58444
2.61838
2.67082
2.74493
2.83649
2.95173
3.08667
3.25019
3.43778
3.66021
3.91303
4.20642
4.53722
4.90781
5.31662
5.74141
6.18101
6.50354
6.81682
2.58981
2.60642
2.64097
2.69504
2.76909
2.86387
2.98044
3.12068
3.28709
3.48252
3.71075
3.9746
4.27908
4.62445
5.0151
5.44324
5.90892
6.36129
6.78305
6.97184
2.59999
2.61583
2.6503
2.70462
2.77901
2.87454
2.99171
3.13292
3.29999
3.49678
3.72602
3.99192
4.2978
4.64584
5.03823
5.46939
5.93499
6.38599
6.80065
7.01306
2.60048
2.61318
2.64708
2.70018
2.77471
2.86873
2.98544
3.12343
3.2887
3.48044
3.70598
3.96449
4.26266
4.59994
4.97724
5.39415
5.82926
6.27949
6.62532
6.92944
2.58246
2.60049
2.63242
2.68499
2.75585
2.84912
2.95998
3.09543
3.25121
3.43793
3.64898
3.89725
4.17327
4.49054
4.83747
5.21571
5.62045
6.00956
6.42935
6.38465
2.56584
2.57281
2.60331
2.65368
2.72497
2.81247
2.91998
3.04458
3.19447
3.3642
3.56512
3.7851
4.04308
4.31381
4.63083
4.93903
5.28408
5.5502
5.73348
5.78882
2.53512
2.53367
2.56311
2.61122
2.68161
2.76244
2.86386
2.97695
3.11657
3.26893
3.45137
3.64375
3.8678
4.09377
4.34807
4.57581
4.83623
4.91834
5.28522
3.8215
)
;

boundaryField
{
    inlet
    {
        type            zeroGradient;
    }
    outlet
    {
        type            fixedValue;
        value           uniform 0;
    }
    upAndBottom
    {
        type            empty;
    }
    obstacle
    {
        type            zeroGradient;
    }
}


// ************************************************************************* //
