/*--------------------------------*- C++ -*----------------------------------*\
| =========                 |                                                 |
| \\      /  F ield         | OpenFOAM: The Open Source CFD Toolbox           |
|  \\    /   O peration     | Version:  v1806                                 |
|   \\  /    A nd           | Web:      www.OpenFOAM.com                      |
|    \\/     M anipulation  |                                                 |
\*---------------------------------------------------------------------------*/
FoamFile
{
    version     2.0;
    format      ascii;
    class       volVectorField;
    location    "9";
    object      U;
}
// * * * * * * * * * * * * * * * * * * * * * * * * * * * * * * * * * * * * * //

dimensions      [0 1 -1 0 0 0 0];


internalField   nonuniform List<vector> 
4400
(
(2.57939 2.66735 0)
(2.69607 1.98824 0)
(2.83363 1.30759 0)
(2.96684 1.03197 0)
(3.08377 0.786155 0)
(3.14265 0.644209 0)
(3.16266 0.565771 0)
(3.16879 0.513282 0)
(3.16816 0.472262 0)
(3.1628 0.437306 0)
(3.15318 0.407015 0)
(3.14084 0.381145 0)
(3.12666 0.358806 0)
(3.11175 0.340239 0)
(3.09619 0.324482 0)
(3.08044 0.311727 0)
(3.06468 0.301746 0)
(3.04827 0.293866 0)
(3.03218 0.288317 0)
(3.01344 0.28431 0)
(3.46155 0.378461 0)
(3.19512 0.375023 0)
(3.01227 0.455585 0)
(2.99854 0.516526 0)
(3.0141 0.579877 0)
(3.05364 0.589147 0)
(3.09216 0.560811 0)
(3.11654 0.515527 0)
(3.1273 0.471002 0)
(3.12896 0.432371 0)
(3.1256 0.400094 0)
(3.11878 0.37312 0)
(3.10948 0.351131 0)
(3.09803 0.33266 0)
(3.08523 0.317479 0)
(3.07164 0.30495 0)
(3.0573 0.294733 0)
(3.04294 0.286908 0)
(3.02815 0.281195 0)
(3.01127 0.277261 0)
(2.07651 1.37462 0)
(2.41874 1.37726 0)
(2.62116 1.12752 0)
(2.78309 0.946594 0)
(2.92956 0.745073 0)
(3.02369 0.602534 0)
(3.07156 0.51593 0)
(3.09255 0.466281 0)
(3.10246 0.432893 0)
(3.10638 0.405173 0)
(3.10529 0.38073 0)
(3.1003 0.359639 0)
(3.09264 0.340746 0)
(3.0831 0.324147 0)
(3.07232 0.309896 0)
(3.06075 0.298163 0)
(3.04896 0.288908 0)
(3.03646 0.281442 0)
(3.02377 0.275894 0)
(3.00953 0.272874 0)
(3.33562 0.169443 0)
(3.17381 0.122183 0)
(2.95037 0.172386 0)
(2.93342 0.283 0)
(2.9469 0.382681 0)
(2.9829 0.445959 0)
(3.0221 0.465769 0)
(3.053 0.450908 0)
(3.07209 0.422343 0)
(3.08152 0.392928 0)
(3.08453 0.366831 0)
(3.08308 0.344505 0)
(3.07805 0.325743 0)
(3.07099 0.310077 0)
(3.06265 0.297111 0)
(3.05338 0.286668 0)
(3.04277 0.277967 0)
(3.03165 0.271526 0)
(3.02074 0.267173 0)
(3.00834 0.264581 0)
(2.2024 0.78388 0)
(2.359 0.883909 0)
(2.57434 0.867594 0)
(2.73221 0.78347 0)
(2.86425 0.648268 0)
(2.95441 0.533079 0)
(3.00813 0.453091 0)
(3.03765 0.406525 0)
(3.05405 0.379442 0)
(3.06316 0.358946 0)
(3.06718 0.340161 0)
(3.06712 0.32283 0)
(3.06436 0.307319 0)
(3.05929 0.293778 0)
(3.0527 0.282145 0)
(3.0447 0.271964 0)
(3.0362 0.263775 0)
(3.02736 0.257638 0)
(3.01791 0.253302 0)
(3.00703 0.250606 0)
(3.30629 0.062988 0)
(3.18758 0.0200264 0)
(2.98539 0.0368599 0)
(2.94118 0.138264 0)
(2.93647 0.234697 0)
(2.95687 0.313866 0)
(2.98633 0.360504 0)
(3.01329 0.372852 0)
(3.03291 0.363255 0)
(3.04547 0.344949 0)
(3.05178 0.326276 0)
(3.05362 0.309565 0)
(3.05214 0.294942 0)
(3.0487 0.282348 0)
(3.04343 0.271509 0)
(3.03717 0.262561 0)
(3.03018 0.255438 0)
(3.02252 0.249666 0)
(3.01461 0.245499 0)
(3.0058 0.242581 0)
(2.3683 0.497188 0)
(2.4283 0.597082 0)
(2.60142 0.648072 0)
(2.73826 0.619871 0)
(2.84916 0.538729 0)
(2.92631 0.453829 0)
(2.97569 0.385111 0)
(3.00509 0.341701 0)
(3.02291 0.318933 0)
(3.03351 0.30579 0)
(3.03959 0.294281 0)
(3.04217 0.282954 0)
(3.04224 0.272425 0)
(3.03999 0.262641 0)
(3.03627 0.254002 0)
(3.03129 0.246703 0)
(3.0253 0.240713 0)
(3.01884 0.236314 0)
(3.01176 0.233239 0)
(3.00422 0.231813 0)
(3.28713 0.00879112 0)
(3.21011 -0.024403 0)
(3.03883 -0.0247581 0)
(2.97472 0.0524017 0)
(2.95321 0.135177 0)
(2.95629 0.211744 0)
(2.97262 0.268048 0)
(2.99222 0.29615 0)
(3.00978 0.300208 0)
(3.02284 0.29111 0)
(3.03042 0.278468 0)
(3.03378 0.266385 0)
(3.03407 0.255188 0)
(3.03251 0.245331 0)
(3.02952 0.236602 0)
(3.02563 0.229185 0)
(3.02127 0.223162 0)
(3.01621 0.218562 0)
(3.01084 0.215173 0)
(3.00445 0.213449 0)
(2.50344 0.342352 0)
(2.51826 0.425709 0)
(2.65547 0.489068 0)
(2.76722 0.487853 0)
(2.85748 0.438806 0)
(2.92262 0.376258 0)
(2.96458 0.320518 0)
(2.98948 0.282836 0)
(3.00437 0.263896 0)
(3.0137 0.254939 0)
(3.02006 0.247945 0)
(3.02375 0.240199 0)
(3.02506 0.232602 0)
(3.02446 0.225259 0)
(3.02261 0.218862 0)
(3.01983 0.213335 0)
(3.01617 0.208731 0)
(3.01193 0.204776 0)
(3.00734 0.202028 0)
(3.00263 0.20003 0)
(3.27126 -0.0181878 0)
(3.22442 -0.0457751 0)
(3.08035 -0.0545014 0)
(3.00983 -0.000507746 0)
(2.97759 0.0686151 0)
(2.96733 0.136589 0)
(2.973 0.19096 0)
(2.98589 0.224062 0)
(2.99917 0.235583 0)
(3.00954 0.233885 0)
(3.01594 0.227335 0)
(3.01921 0.220365 0)
(3.02048 0.21369 0)
(3.02032 0.207966 0)
(3.01905 0.202726 0)
(3.01678 0.19802 0)
(3.01378 0.193933 0)
(3.01033 0.190752 0)
(3.00658 0.188612 0)
(3.00245 0.187403 0)
(2.6076 0.249029 0)
(2.60147 0.316389 0)
(2.71299 0.376213 0)
(2.80368 0.385207 0)
(2.87631 0.352549 0)
(2.92949 0.306053 0)
(2.96294 0.262802 0)
(2.98244 0.231076 0)
(2.99449 0.214176 0)
(3.00307 0.207041 0)
(3.00942 0.202984 0)
(3.01351 0.198574 0)
(3.01535 0.193781 0)
(3.01549 0.188499 0)
(3.01432 0.183477 0)
(3.01245 0.179094 0)
(3.01014 0.175557 0)
(3.00758 0.173113 0)
(3.00471 0.171279 0)
(3.00166 0.170635 0)
(3.25571 -0.0321016 0)
(3.2307 -0.0570221 0)
(3.10917 -0.0708153 0)
(3.03904 -0.0334098 0)
(3.00109 0.0225771 0)
(2.98349 0.0797517 0)
(2.98154 0.127987 0)
(2.98768 0.162124 0)
(2.9959 0.179096 0)
(3.00287 0.183467 0)
(3.0073 0.181239 0)
(3.00953 0.177014 0)
(3.01054 0.172351 0)
(3.01068 0.168199 0)
(3.01044 0.164502 0)
(3.00963 0.161254 0)
(3.00828 0.158457 0)
(3.00632 0.156098 0)
(3.00414 0.154547 0)
(3.00163 0.153701 0)
(2.68669 0.187125 0)
(2.67163 0.241682 0)
(2.7648 0.293888 0)
(2.83947 0.305301 0)
(2.89696 0.281731 0)
(2.93888 0.245435 0)
(2.96603 0.210093 0)
(2.98273 0.181367 0)
(2.99289 0.164457 0)
(2.99931 0.157064 0)
(3.0036 0.154244 0)
(3.00672 0.152308 0)
(3.00852 0.150197 0)
(3.00922 0.147679 0)
(3.00871 0.144952 0)
(3.00749 0.142183 0)
(3.006 0.139734 0)
(3.00452 0.137755 0)
(3.00288 0.136323 0)
(3.00104 0.135308 0)
(3.23995 -0.0401502 0)
(3.23029 -0.0645635 0)
(3.12674 -0.0809881 0)
(3.06011 -0.0556163 0)
(3.0209 -0.0115215 0)
(2.99915 0.0359107 0)
(2.9908 0.0781467 0)
(2.9907 0.110515 0)
(2.99464 0.128838 0)
(2.99919 0.135741 0)
(3.00267 0.13633 0)
(3.00441 0.134258 0)
(3.00514 0.131385 0)
(3.00519 0.128268 0)
(3.00503 0.125405 0)
(3.0047 0.12316 0)
(3.00406 0.121546 0)
(3.00304 0.120413 0)
(3.00181 0.119699 0)
(3.00059 0.119574 0)
(2.74563 0.14219 0)
(2.72761 0.186949 0)
(2.80761 0.230275 0)
(2.86999 0.240726 0)
(2.91607 0.221729 0)
(2.9498 0.191048 0)
(2.97216 0.160157 0)
(2.986 0.134921 0)
(2.99359 0.120142 0)
(2.9978 0.114025 0)
(3.00037 0.111672 0)
(3.00235 0.110167 0)
(3.00364 0.108651 0)
(3.00436 0.1072 0)
(3.00455 0.105634 0)
(3.00428 0.10386 0)
(3.00371 0.10195 0)
(3.00296 0.100279 0)
(3.00211 0.0990073 0)
(3.00086 0.0982022 0)
(3.22186 -0.0455496 0)
(3.22256 -0.0707513 0)
(3.13481 -0.0889263 0)
(3.07356 -0.0734833 0)
(3.0349 -0.0384989 0)
(3.01069 0.00135539 0)
(2.99833 0.0382599 0)
(2.9944 0.0667536 0)
(2.99533 0.0834604 0)
(2.99769 0.0904825 0)
(2.99984 0.0924134 0)
(3.00112 0.0921178 0)
(3.00185 0.0910929 0)
(3.002 0.0895206 0)
(3.00174 0.0880553 0)
(3.00131 0.086705 0)
(3.00088 0.0857878 0)
(3.00049 0.0849234 0)
(3.0001 0.0844136 0)
(2.99998 0.0838294 0)
(2.78928 0.108071 0)
(2.77251 0.144128 0)
(2.84267 0.178777 0)
(2.89399 0.187249 0)
(2.93085 0.169864 0)
(2.95796 0.142843 0)
(2.97516 0.115726 0)
(2.98526 0.0938882 0)
(2.99158 0.0803132 0)
(2.99626 0.0741007 0)
(2.99928 0.0714685 0)
(3.00079 0.0704624 0)
(3.00137 0.0696466 0)
(3.00172 0.0692272 0)
(3.00204 0.068678 0)
(3.00215 0.0683333 0)
(3.00196 0.0678993 0)
(3.00157 0.0677551 0)
(3.00094 0.0675032 0)
(3.00018 0.0676905 0)
(3.20853 -0.0513794 0)
(3.21578 -0.0771793 0)
(3.13853 -0.0955493 0)
(3.07868 -0.0869404 0)
(3.03847 -0.0600308 0)
(3.01284 -0.0279631 0)
(2.99977 0.00252308 0)
(2.99544 0.0262147 0)
(2.99574 0.0407165 0)
(2.99733 0.0471495 0)
(2.99884 0.0493948 0)
(2.99997 0.0495534 0)
(3.00069 0.0490721 0)
(3.00093 0.0480232 0)
(3.00078 0.0469673 0)
(3.00056 0.0459194 0)
(3.00046 0.0450701 0)
(3.00027 0.0443366 0)
(3.00024 0.043881 0)
(3.00025 0.0439984 0)
(2.82694 0.0784248 0)
(2.81045 0.110706 0)
(2.86908 0.140715 0)
(2.91044 0.145839 0)
(2.93996 0.126151 0)
(2.96169 0.098973 0)
(2.97561 0.0726438 0)
(2.98484 0.051627 0)
(2.99182 0.0379476 0)
(2.99677 0.0317472 0)
(2.99921 0.0298341 0)
(2.99969 0.0295687 0)
(2.99953 0.0293625 0)
(2.99948 0.0291988 0)
(2.99981 0.028979 0)
(3.00014 0.0288064 0)
(3.0002 0.0285846 0)
(3.00022 0.0283148 0)
(3.00033 0.0282915 0)
(3.00015 0.0278442 0)
(3.17488 -0.0565392 0)
(3.18546 -0.0786227 0)
(3.1241 -0.0971215 0)
(3.07743 -0.0966306 0)
(3.04507 -0.0786765 0)
(3.02418 -0.0557811 0)
(3.01247 -0.0329689 0)
(3.00628 -0.0137943 0)
(3.00275 -0.000573832 0)
(3.00081 0.00618405 0)
(3.0001 0.0087698 0)
(3.00021 0.0095405 0)
(3.00045 0.00983459 0)
(3.00058 0.00996351 0)
(3.00046 0.00996679 0)
(3.00025 0.00981431 0)
(3.00014 0.00962036 0)
(3.00013 0.00952508 0)
(2.99993 0.0093059 0)
(2.99992 0.00927016 0)
(1.12414 -2.01957 0)
(1.2043 -1.78339 0)
(0.933284 -1.45633 0)
(0.934177 -1.20709 0)
(0.806149 -0.950769 0)
(0.771282 -0.727875 0)
(0.71702 -0.513697 0)
(0.685253 -0.313142 0)
(0.662413 -0.120054 0)
(0.64994 0.067606 0)
(0.647151 0.253336 0)
(0.653702 0.44176 0)
(0.673574 0.631254 0)
(0.692104 0.839713 0)
(0.753526 1.03218 0)
(0.761254 1.29209 0)
(0.90598 1.47471 0)
(0.866838 1.827 0)
(1.151 1.98059 0)
(1.03283 2.43037 0)
(2.22151 -0.635544 0)
(1.89961 -0.576304 0)
(1.72104 -0.541786 0)
(1.55013 -0.459936 0)
(1.4444 -0.387115 0)
(1.35655 -0.296674 0)
(1.29671 -0.20331 0)
(1.25462 -0.103693 0)
(1.22857 -6.47197e-05 0)
(1.21698 0.106589 0)
(1.21867 0.214684 0)
(1.23345 0.322484 0)
(1.26151 0.42928 0)
(1.30576 0.531593 0)
(1.36162 0.633123 0)
(1.44709 0.726911 0)
(1.53897 0.810069 0)
(1.68183 0.912336 0)
(1.85177 0.917565 0)
(2.02397 1.11195 0)
(1.94581 -0.824629 0)
(1.93544 -0.744345 0)
(1.90276 -0.649917 0)
(1.88125 -0.55665 0)
(1.85283 -0.455376 0)
(1.83169 -0.355487 0)
(1.81342 -0.253866 0)
(1.80051 -0.152568 0)
(1.79309 -0.0514444 0)
(1.79146 0.0493593 0)
(1.79583 0.149876 0)
(1.80627 0.250219 0)
(1.82279 0.350266 0)
(1.8448 0.450431 0)
(1.8737 0.550436 0)
(1.90603 0.647836 0)
(1.94519 0.752525 0)
(1.99198 0.834722 0)
(2.02437 0.954484 0)
(2.11022 1.002 0)
(2.5979 -0.177085 0)
(2.47228 -0.164952 0)
(2.37214 -0.149013 0)
(2.28786 -0.125891 0)
(2.22206 -0.0997364 0)
(2.16958 -0.0687623 0)
(2.12977 -0.0347971 0)
(2.10084 0.001825 0)
(2.08172 0.0402273 0)
(2.07168 0.0796165 0)
(2.07024 0.119155 0)
(2.07724 0.157968 0)
(2.09284 0.195254 0)
(2.11759 0.230082 0)
(2.15191 0.261617 0)
(2.19795 0.289966 0)
(2.25639 0.311009 0)
(2.32984 0.332175 0)
(2.42707 0.336002 0)
(2.54587 0.366959 0)
(2.31445 -0.421225 0)
(2.32772 -0.377175 0)
(2.33252 -0.329522 0)
(2.33405 -0.279776 0)
(2.33274 -0.227805 0)
(2.33091 -0.174867 0)
(2.32911 -0.121002 0)
(2.32809 -0.0666209 0)
(2.32825 -0.011868 0)
(2.32987 0.0431538 0)
(2.33312 0.098381 0)
(2.33806 0.153782 0)
(2.34468 0.209324 0)
(2.35289 0.264995 0)
(2.36269 0.320783 0)
(2.37364 0.376148 0)
(2.38583 0.432328 0)
(2.39982 0.485378 0)
(2.41023 0.544575 0)
(2.44427 0.585089 0)
(2.80287 -0.0277309 0)
(2.73058 -0.0232769 0)
(2.66943 -0.0173123 0)
(2.61831 -0.00959044 0)
(2.57675 -0.000457891 0)
(2.54349 0.010155 0)
(2.51772 0.0219192 0)
(2.49865 0.0345974 0)
(2.4857 0.0478748 0)
(2.47846 0.0614106 0)
(2.47671 0.0748475 0)
(2.48039 0.0878227 0)
(2.48967 0.0999796 0)
(2.50493 0.110961 0)
(2.52678 0.120422 0)
(2.55632 0.128177 0)
(2.59492 0.13353 0)
(2.64494 0.137361 0)
(2.71165 0.137519 0)
(2.79884 0.13979 0)
(2.52716 -0.251302 0)
(2.54859 -0.22355 0)
(2.56368 -0.194007 0)
(2.57448 -0.163116 0)
(2.5822 -0.131144 0)
(2.58794 -0.098419 0)
(2.59235 -0.0650991 0)
(2.59594 -0.0313336 0)
(2.59902 0.00279157 0)
(2.60184 0.037214 0)
(2.60453 0.0718826 0)
(2.60714 0.106765 0)
(2.60971 0.141828 0)
(2.61218 0.177026 0)
(2.61451 0.212294 0)
(2.61656 0.247483 0)
(2.61821 0.282596 0)
(2.61924 0.31709 0)
(2.61874 0.351787 0)
(2.61789 0.381603 0)
(2.92325 0.0245622 0)
(2.87437 0.0255238 0)
(2.83208 0.0268319 0)
(2.79644 0.0286081 0)
(2.7671 0.0308483 0)
(2.74349 0.0335394 0)
(2.72505 0.0365963 0)
(2.7113 0.0399189 0)
(2.70185 0.0433829 0)
(2.69641 0.0468493 0)
(2.69485 0.0501714 0)
(2.69715 0.0531991 0)
(2.70345 0.0557841 0)
(2.71406 0.0577834 0)
(2.72949 0.0590633 0)
(2.75059 0.0595138 0)
(2.77859 0.0589861 0)
(2.81551 0.057558 0)
(2.86478 0.0550759 0)
(2.93264 0.0514946 0)
(2.66286 -0.168416 0)
(2.68556 -0.149221 0)
(2.7033 -0.128909 0)
(2.71709 -0.107703 0)
(2.72782 -0.0857858 0)
(2.73622 -0.0633133 0)
(2.74283 -0.0403992 0)
(2.74804 -0.0171339 0)
(2.75212 0.00642036 0)
(2.75525 0.0302097 0)
(2.75755 0.0541838 0)
(2.75909 0.0783024 0)
(2.75985 0.102521 0)
(2.75982 0.126783 0)
(2.75892 0.151017 0)
(2.757 0.175123 0)
(2.75382 0.198991 0)
(2.74891 0.22242 0)
(2.74081 0.245274 0)
(2.7234 0.266683 0)
(2.99777 0.0417958 0)
(2.96159 0.0409721 0)
(2.92982 0.0400791 0)
(2.90279 0.0392197 0)
(2.88038 0.0384362 0)
(2.86225 0.0377379 0)
(2.84802 0.0371061 0)
(2.83734 0.0365065 0)
(2.82993 0.0358919 0)
(2.82556 0.0352086 0)
(2.82414 0.0343996 0)
(2.82564 0.0334058 0)
(2.83018 0.0321702 0)
(2.83801 0.0306398 0)
(2.84956 0.0287679 0)
(2.86552 0.0265118 0)
(2.88696 0.0238226 0)
(2.91561 0.0207138 0)
(2.95443 0.0173142 0)
(3.00894 0.0130329 0)
(2.75488 -0.122063 0)
(2.77652 -0.108026 0)
(2.79428 -0.0931986 0)
(2.80863 -0.0777185 0)
(2.82015 -0.0617066 0)
(2.82934 -0.0452651 0)
(2.83662 -0.0284772 0)
(2.84229 -0.0114117 0)
(2.8466 0.00587723 0)
(2.8497 0.0233399 0)
(2.85168 0.0409284 0)
(2.85259 0.0585988 0)
(2.85244 0.0763028 0)
(2.85118 0.0939845 0)
(2.84869 0.111578 0)
(2.84481 0.129002 0)
(2.83917 0.146153 0)
(2.83098 0.162868 0)
(2.81806 0.179043 0)
(2.79397 0.194563 0)
(3.04469 0.0460144 0)
(3.01644 0.0442176 0)
(2.99137 0.0422111 0)
(2.96985 0.0400808 0)
(2.9519 0.0378764 0)
(2.9373 0.0356221 0)
(2.92579 0.0333246 0)
(2.9171 0.0309795 0)
(2.911 0.0285748 0)
(2.90732 0.0260944 0)
(2.90596 0.0235213 0)
(2.90692 0.020837 0)
(2.91029 0.0180251 0)
(2.91626 0.0150726 0)
(2.92521 0.0119704 0)
(2.93775 0.00870555 0)
(2.95482 0.00524339 0)
(2.97799 0.00155562 0)
(3.00986 -0.00204408 0)
(3.05446 -0.00625673 0)
(2.81941 -0.093094 0)
(2.83931 -0.0824912 0)
(2.85618 -0.0712867 0)
(2.87017 -0.0595746 0)
(2.8816 -0.047442 0)
(2.89083 -0.0349652 0)
(2.89817 -0.0222097 0)
(2.90386 -0.00923213 0)
(2.90812 0.0039186 0)
(2.91106 0.0171973 0)
(2.91278 0.0305602 0)
(2.91331 0.0439647 0)
(2.91265 0.0573652 0)
(2.91073 0.0707111 0)
(2.90742 0.0839433 0)
(2.90247 0.0969895 0)
(2.89541 0.109766 0)
(2.88521 0.122188 0)
(2.86955 0.1341 0)
(2.84359 0.145607 0)
(3.07373 0.0454106 0)
(3.05097 0.043031 0)
(3.03059 0.0404063 0)
(3.01297 0.037607 0)
(2.99819 0.0346808 0)
(2.98612 0.0316574 0)
(2.97655 0.0285544 0)
(2.96928 0.025381 0)
(2.96412 0.0221416 0)
(2.96093 0.0188377 0)
(2.95964 0.0154704 0)
(2.96022 0.0120401 0)
(2.96277 0.0085486 0)
(2.96745 0.00499904 0)
(2.97459 0.00139491 0)
(2.98474 -0.00226536 0)
(2.99877 -0.00598617 0)
(3.0181 -0.00971395 0)
(3.04489 -0.0132856 0)
(3.08173 -0.0174994 0)
(2.8651 -0.0730938 0)
(2.88318 -0.0649942 0)
(2.89887 -0.0564167 0)
(2.91214 -0.0474301 0)
(2.92315 -0.038101 0)
(2.93211 -0.0284906 0)
(2.93925 -0.0186529 0)
(2.94478 -0.00863645 0)
(2.94886 0.00151523 0)
(2.95162 0.0117614 0)
(2.95311 0.0220627 0)
(2.95337 0.0323795 0)
(2.95239 0.0426708 0)
(2.95008 0.052892 0)
(2.94627 0.0629936 0)
(2.94065 0.0729186 0)
(2.93266 0.0825962 0)
(2.92118 0.0919222 0)
(2.90422 0.100789 0)
(2.87856 0.109522 0)
(3.08927 0.0432542 0)
(3.07058 0.0404746 0)
(3.05373 0.0374557 0)
(3.03908 0.0342551 0)
(3.02671 0.0309162 0)
(3.01656 0.0274695 0)
(3.00848 0.023937 0)
(3.0023 0.0203341 0)
(2.99787 0.016673 0)
(2.99507 0.0129638 0)
(2.99383 0.0092157 0)
(2.99415 0.0054381 0)
(2.9961 0.00164104 0)
(2.99983 -0.00216505 0)
(3.00563 -0.00597223 0)
(3.01402 -0.00978004 0)
(3.0258 -0.0135822 0)
(3.0422 -0.0172957 0)
(3.06488 -0.0207834 0)
(3.09544 -0.024833 0)
(2.8958 -0.0584872 0)
(2.91217 -0.0523175 0)
(2.92666 -0.0457554 0)
(2.93912 -0.0388534 0)
(2.94958 -0.0316649 0)
(2.95816 -0.0242398 0)
(2.96504 -0.0166238 0)
(2.97038 -0.00885809 0)
(2.9743 -0.000980521 0)
(2.97691 0.0069735 0)
(2.97827 0.0149697 0)
(2.97841 0.022974 0)
(2.97729 0.0309513 0)
(2.97481 0.0388637 0)
(2.97076 0.0466702 0)
(2.96479 0.0543265 0)
(2.95627 0.0617775 0)
(2.94414 0.0689248 0)
(2.92685 0.0756752 0)
(2.90252 0.0824021 0)
(3.09728 0.040633 0)
(3.08178 0.0375042 0)
(3.06774 0.0341532 0)
(3.05548 0.0306273 0)
(3.04509 0.0269645 0)
(3.03653 0.0231948 0)
(3.02969 0.0193418 0)
(3.02445 0.0154245 0)
(3.02069 0.0114596 0)
(3.01831 0.00746262 0)
(3.01726 0.00344819 0)
(3.01753 -0.000568484 0)
(3.01919 -0.00457214 0)
(3.0224 -0.00854869 0)
(3.02743 -0.0124865 0)
(3.03475 -0.0163767 0)
(3.04507 -0.0201954 0)
(3.05941 -0.023853 0)
(3.079 -0.0272714 0)
(3.10479 -0.0312498 0)
(2.92083 -0.0474878 0)
(2.93575 -0.0429141 0)
(2.94917 -0.0380202 0)
(2.96087 -0.0328486 0)
(2.97078 -0.0274439 0)
(2.97898 -0.0218494 0)
(2.98557 -0.0161049 0)
(2.99067 -0.0102475 0)
(2.99441 -0.00431105 0)
(2.99687 0.001673 0)
(2.9981 0.00767385 0)
(2.99813 0.0136614 0)
(2.9969 0.0196059 0)
(2.9943 0.0254768 0)
(2.99011 0.0312455 0)
(2.98393 0.036887 0)
(2.97515 0.0423586 0)
(2.96287 0.0475305 0)
(2.94595 0.0522356 0)
(2.92344 0.0570319 0)
(3.08851 0.0372186 0)
(3.07541 0.0338889 0)
(3.06348 0.0303503 0)
(3.05298 0.0266392 0)
(3.04401 0.022787 0)
(3.03657 0.0188204 0)
(3.03058 0.0147616 0)
(3.02593 0.0106297 0)
(3.02255 0.0064415 0)
(3.02035 0.0022123 0)
(3.01929 -0.00204508 0)
(3.01937 -0.00631845 0)
(3.02065 -0.0105966 0)
(3.02327 -0.0148714 0)
(3.0275 -0.0191385 0)
(3.03374 -0.0234026 0)
(3.0426 -0.0276747 0)
(3.05488 -0.0319213 0)
(3.07135 -0.0360383 0)
(3.09234 -0.0402685 0)
(2.79871 -0.940845 0)
(2.78752 -0.990433 0)
(2.76327 -1.03603 0)
(2.71912 -1.07984 0)
(2.6498 -1.11897 0)
(2.55882 -1.15609 0)
(2.46041 -1.19678 0)
(2.37695 -1.24947 0)
(2.3325 -1.32414 0)
(2.34269 -1.43057 0)
(2.40678 -1.57386 0)
(2.50681 -1.74802 0)
(2.6137 -1.93636 0)
(2.69531 -2.11676 0)
(2.72262 -2.27053 0)
(2.67409 -2.38974 0)
(2.53723 -2.47742 0)
(2.30933 -2.53429 0)
(1.99693 -2.52591 0)
(1.60516 -2.36401 0)
(2.92302 -0.513155 0)
(2.92699 -0.506122 0)
(2.95261 -0.500257 0)
(2.99471 -0.494281 0)
(3.04529 -0.486781 0)
(3.0889 -0.473663 0)
(3.1088 -0.451978 0)
(3.09229 -0.420337 0)
(3.03503 -0.379968 0)
(2.94358 -0.335443 0)
(2.83641 -0.294229 0)
(2.74303 -0.264943 0)
(2.69882 -0.255119 0)
(2.73051 -0.270077 0)
(2.83122 -0.315852 0)
(2.95485 -0.384398 0)
(3.02952 -0.4663 0)
(2.99365 -0.548923 0)
(2.82635 -0.608526 0)
(2.54662 -0.646262 0)
(2.64651 -0.853236 0)
(2.59933 -0.872384 0)
(2.54738 -0.892696 0)
(2.49481 -0.91414 0)
(2.45131 -0.939726 0)
(2.42469 -0.971566 0)
(2.41817 -1.01054 0)
(2.42814 -1.05538 0)
(2.44499 -1.10223 0)
(2.45581 -1.14481 0)
(2.44799 -1.1751 0)
(2.41231 -1.18597 0)
(2.34469 -1.17646 0)
(2.24926 -1.14866 0)
(2.13868 -1.1119 0)
(2.03521 -1.07193 0)
(1.96117 -1.03199 0)
(1.92731 -0.991161 0)
(1.92628 -0.946426 0)
(1.93951 -0.890732 0)
(2.90909 -0.265047 0)
(2.93436 -0.253248 0)
(2.96295 -0.237914 0)
(2.98519 -0.219637 0)
(2.99158 -0.198198 0)
(2.97557 -0.174113 0)
(2.93575 -0.14916 0)
(2.87731 -0.126037 0)
(2.81229 -0.107767 0)
(2.75841 -0.0970662 0)
(2.73547 -0.0965625 0)
(2.75965 -0.106202 0)
(2.83294 -0.124621 0)
(2.93733 -0.146976 0)
(3.03862 -0.167996 0)
(3.09889 -0.184134 0)
(3.09347 -0.193165 0)
(3.01959 -0.195256 0)
(2.89412 -0.192124 0)
(2.74434 -0.18621 0)
(2.61304 -0.671948 0)
(2.57918 -0.67924 0)
(2.55116 -0.688899 0)
(2.53142 -0.699874 0)
(2.52132 -0.71248 0)
(2.51855 -0.725414 0)
(2.51796 -0.736456 0)
(2.51272 -0.742461 0)
(2.4962 -0.74033 0)
(2.4636 -0.728371 0)
(2.41324 -0.70733 0)
(2.34772 -0.679637 0)
(2.27492 -0.6487 0)
(2.20791 -0.618317 0)
(2.16172 -0.59085 0)
(2.14721 -0.566632 0)
(2.16474 -0.544192 0)
(2.20387 -0.520715 0)
(2.24938 -0.493346 0)
(2.28842 -0.460183 0)
(2.94807 -0.124594 0)
(2.96593 -0.112195 0)
(2.97862 -0.0981329 0)
(2.98151 -0.0832118 0)
(2.97186 -0.0683288 0)
(2.95013 -0.0547061 0)
(2.92022 -0.0436518 0)
(2.88932 -0.0363883 0)
(2.86704 -0.0335433 0)
(2.86321 -0.0346442 0)
(2.88482 -0.038096 0)
(2.93204 -0.0425081 0)
(2.99625 -0.0465087 0)
(3.06144 -0.048767 0)
(3.10918 -0.048551 0)
(3.12493 -0.0460476 0)
(3.103 -0.0421693 0)
(3.04764 -0.0380586 0)
(2.97031 -0.0344242 0)
(2.88488 -0.0312194 0)
(2.65417 -0.512964 0)
(2.63614 -0.514914 0)
(2.6227 -0.517259 0)
(2.61445 -0.519225 0)
(2.60973 -0.519991 0)
(2.60531 -0.518236 0)
(2.59724 -0.512807 0)
(2.5818 -0.502927 0)
(2.55632 -0.488478 0)
(2.51997 -0.470134 0)
(2.47448 -0.449182 0)
(2.42479 -0.427185 0)
(2.3788 -0.405766 0)
(2.34579 -0.386106 0)
(2.33336 -0.368529 0)
(2.34417 -0.352406 0)
(2.37451 -0.336423 0)
(2.41603 -0.319112 0)
(2.45935 -0.299371 0)
(2.49747 -0.276722 0)
(2.9862 -0.0475364 0)
(2.9971 -0.037909 0)
(3.0026 -0.0283706 0)
(3.00121 -0.0192365 0)
(2.99306 -0.0112652 0)
(2.98023 -0.00510799 0)
(2.9666 -0.00112973 0)
(2.95739 0.00110744 0)
(2.95789 0.00200242 0)
(2.97194 0.00192806 0)
(3.00037 0.00169539 0)
(3.03991 0.00197483 0)
(3.08325 0.00328804 0)
(3.1208 0.00586625 0)
(3.14334 0.00949318 0)
(3.14483 0.0135703 0)
(3.12406 0.0173965 0)
(3.08459 0.020411 0)
(3.0332 0.022426 0)
(2.97739 0.0236656 0)
(2.71632 -0.391155 0)
(2.70564 -0.389806 0)
(2.69794 -0.38772 0)
(2.69262 -0.384596 0)
(2.68793 -0.379929 0)
(2.68152 -0.373259 0)
(2.67094 -0.364289 0)
(2.65417 -0.353054 0)
(2.6303 -0.33981 0)
(2.59989 -0.325072 0)
(2.56547 -0.30964 0)
(2.53146 -0.294335 0)
(2.50355 -0.279829 0)
(2.48735 -0.266461 0)
(2.48656 -0.254113 0)
(2.50158 -0.242255 0)
(2.52931 -0.230142 0)
(2.56433 -0.217047 0)
(2.60087 -0.202473 0)
(2.63448 -0.186238 0)
(3.01859 -0.00497516 0)
(3.02628 0.00134571 0)
(3.02991 0.007265 0)
(3.02945 0.0124652 0)
(3.02587 0.0166943 0)
(3.02116 0.0198627 0)
(3.01814 0.0220195 0)
(3.01988 0.0233583 0)
(3.02898 0.0241706 0)
(3.04661 0.0248129 0)
(3.07191 0.0256683 0)
(3.10164 0.0270523 0)
(3.13072 0.0291298 0)
(3.15336 0.031839 0)
(3.16456 0.0348793 0)
(3.16143 0.0378107 0)
(3.14387 0.0402036 0)
(3.11444 0.0417688 0)
(3.07735 0.0424419 0)
(3.03719 0.0423679 0)
(2.77629 -0.299354 0)
(2.76862 -0.296475 0)
(2.76313 -0.292884 0)
(2.75866 -0.288398 0)
(2.75377 -0.282805 0)
(2.74682 -0.275953 0)
(2.73624 -0.267791 0)
(2.72097 -0.258418 0)
(2.70084 -0.24808 0)
(2.67684 -0.237155 0)
(2.65131 -0.226091 0)
(2.62766 -0.215307 0)
(2.60983 -0.205092 0)
(2.60131 -0.195521 0)
(2.60414 -0.186428 0)
(2.6182 -0.17746 0)
(2.64133 -0.16818 0)
(2.66997 -0.158189 0)
(2.70031 -0.147219 0)
(2.72924 -0.135166 0)
(3.04408 0.0193651 0)
(3.05053 0.0234516 0)
(3.05421 0.0271191 0)
(3.05561 0.0302714 0)
(3.05575 0.0327803 0)
(3.05616 0.034638 0)
(3.0587 0.0359276 0)
(3.06517 0.0368001 0)
(3.07675 0.0374574 0)
(3.09356 0.0381234 0)
(3.11437 0.0390039 0)
(3.13657 0.0402377 0)
(3.15666 0.0418487 0)
(3.17098 0.0437208 0)
(3.17656 0.0456181 0)
(3.17187 0.0472496 0)
(3.15714 0.0483522 0)
(3.13418 0.0487597 0)
(3.10581 0.0484386 0)
(3.0751 0.0474737 0)
(2.82712 -0.230213 0)
(2.82093 -0.227203 0)
(2.81637 -0.223649 0)
(2.81224 -0.219462 0)
(2.80738 -0.214511 0)
(2.8006 -0.208744 0)
(2.79088 -0.202184 0)
(2.77766 -0.194938 0)
(2.76107 -0.187193 0)
(2.74216 -0.179196 0)
(2.72283 -0.171209 0)
(2.70568 -0.163455 0)
(2.69347 -0.15606 0)
(2.68854 -0.149018 0)
(2.69216 -0.142192 0)
(2.7042 -0.135346 0)
(2.72314 -0.128207 0)
(2.74658 -0.120532 0)
(2.77186 -0.112154 0)
(2.79666 -0.103004 0)
(3.0626 0.0348125 0)
(3.06854 0.0374353 0)
(3.07267 0.0397884 0)
(3.07555 0.0417376 0)
(3.07807 0.043212 0)
(3.08134 0.0442447 0)
(3.08658 0.0449186 0)
(3.0948 0.0453482 0)
(3.1065 0.0456705 0)
(3.12136 0.0460247 0)
(3.1382 0.0465238 0)
(3.15499 0.0472249 0)
(3.16927 0.0481057 0)
(3.1786 0.0490592 0)
(3.18113 0.049914 0)
(3.176 0.0504756 0)
(3.16349 0.0505747 0)
(3.14496 0.0501065 0)
(3.12241 0.0490486 0)
(3.09802 0.0474517 0)
(2.86747 -0.176085 0)
(2.86217 -0.173626 0)
(2.85805 -0.170769 0)
(2.85412 -0.167438 0)
(2.84944 -0.163564 0)
(2.84313 -0.159138 0)
(2.83449 -0.154199 0)
(2.82322 -0.148839 0)
(2.80956 -0.143194 0)
(2.79444 -0.137424 0)
(2.77938 -0.131689 0)
(2.76636 -0.126113 0)
(2.75739 -0.120752 0)
(2.75417 -0.115578 0)
(2.75758 -0.110486 0)
(2.76756 -0.105312 0)
(2.78307 -0.0998776 0)
(2.80241 -0.0940206 0)
(2.82364 -0.0876295 0)
(2.84498 -0.0806528 0)
(3.07334 0.0465087 0)
(3.07897 0.0479884 0)
(3.08345 0.0493551 0)
(3.08727 0.050407 0)
(3.09115 0.0510892 0)
(3.0959 0.0514479 0)
(3.10231 0.0515578 0)
(3.11092 0.0515053 0)
(3.12186 0.0513841 0)
(3.13468 0.0512818 0)
(3.14831 0.0512609 0)
(3.16121 0.0513411 0)
(3.17159 0.0514879 0)
(3.17776 0.0516138 0)
(3.17852 0.0515944 0)
(3.17338 0.0512955 0)
(3.16263 0.0506029 0)
(3.14733 0.0494463 0)
(3.12894 0.0478093 0)
(3.1091 0.0457241 0)
(2.89719 -0.132704 0)
(2.89251 -0.13102 0)
(2.88864 -0.129068 0)
(2.88486 -0.126731 0)
(2.88043 -0.123987 0)
(2.87467 -0.120849 0)
(2.86707 -0.11736 0)
(2.85747 -0.113589 0)
(2.84612 -0.109633 0)
(2.83378 -0.105601 0)
(2.82168 -0.101592 0)
(2.81133 -0.0976799 0)
(2.80428 -0.0938877 0)
(2.80181 -0.0901856 0)
(2.80463 -0.0864926 0)
(2.81275 -0.0826935 0)
(2.82546 -0.0786622 0)
(2.84153 -0.074286 0)
(2.85952 -0.0694848 0)
(2.87799 -0.0642189 0)
(3.07779 0.05649 0)
(3.08334 0.0570896 0)
(3.08816 0.0576318 0)
(3.09267 0.0579219 0)
(3.09741 0.0579218 0)
(3.10297 0.0576715 0)
(3.10986 0.0572307 0)
(3.11835 0.0566653 0)
(3.12837 0.0560414 0)
(3.13944 0.0554158 0)
(3.15063 0.0548236 0)
(3.16074 0.0542676 0)
(3.16845 0.0537132 0)
(3.17257 0.0530914 0)
(3.17229 0.0523108 0)
(3.16735 0.0512762 0)
(3.15805 0.0499076 0)
(3.14522 0.0481557 0)
(3.13001 0.0460081 0)
(3.11365 0.0434858 0)
(2.91873 -0.0981027 0)
(2.91485 -0.0969929 0)
(2.91149 -0.0958371 0)
(2.90817 -0.0944009 0)
(2.90432 -0.0926417 0)
(2.89941 -0.0905904 0)
(2.89306 -0.0882897 0)
(2.88513 -0.0857938 0)
(2.87585 -0.0831706 0)
(2.86583 -0.0804936 0)
(2.85605 -0.0778283 0)
(2.84771 -0.0752179 0)
(2.84202 -0.0726719 0)
(2.84002 -0.0701629 0)
(2.84231 -0.0676291 0)
(2.84899 -0.0649862 0)
(2.85958 -0.0621428 0)
(2.87318 -0.0590166 0)
(2.88867 -0.0555479 0)
(2.90489 -0.0517058 0)
(3.07347 0.0628399 0)
(3.07824 0.0629089 0)
(3.08259 0.0628709 0)
(3.08687 0.062549 0)
(3.09149 0.0619833 0)
(3.09689 0.061225 0)
(3.10338 0.0603158 0)
(3.11107 0.0593001 0)
(3.11977 0.0582237 0)
(3.12901 0.0571241 0)
(3.13801 0.0560224 0)
(3.14581 0.0549165 0)
(3.15141 0.0537785 0)
(3.15395 0.0525578 0)
(3.1529 0.0511895 0)
(3.14811 0.0496061 0)
(3.13989 0.0477504 0)
(3.1289 0.0455856 0)
(3.11604 0.0430989 0)
(3.10229 0.0403008 0)
(0.8935 -0.639215 0)
(0.805567 -0.287196 0)
(0.622638 -0.105157 0)
(0.475294 0.0589272 0)
(0.351927 0.169277 0)
(0.251561 0.248649 0)
(0.172465 0.299355 0)
(0.112266 0.326746 0)
(0.0679144 0.33638 0)
(0.0360513 0.332655 0)
(0.0128775 0.318622 0)
(-0.00526863 0.296763 0)
(-0.0217755 0.2688 0)
(-0.039813 0.2358 0)
(-0.0618613 0.198435 0)
(-0.0880028 0.157276 0)
(-0.113195 0.113269 0)
(-0.125924 0.0686295 0)
(-0.111081 0.0284424 0)
(-0.0550596 0.00517084 0)
(2.01802 -0.25875 0)
(1.59914 -0.144332 0)
(1.23316 -0.0641252 0)
(0.916676 0.00515608 0)
(0.643398 0.0603179 0)
(0.413607 0.0997125 0)
(0.22651 0.124366 0)
(0.0794384 0.135158 0)
(-0.0327942 0.133933 0)
(-0.117157 0.124537 0)
(-0.181014 0.11083 0)
(-0.230387 0.094585 0)
(-0.268816 0.0770535 0)
(-0.297503 0.0592775 0)
(-0.315897 0.0422579 0)
(-0.321905 0.0270817 0)
(-0.311454 0.0148013 0)
(-0.277714 0.00606384 0)
(-0.210321 0.00100359 0)
(-0.0941139 -0.000302177 0)
(1.94093 -0.3725 0)
(1.65152 -0.321251 0)
(1.3482 -0.253687 0)
(1.05107 -0.192197 0)
(0.773108 -0.137226 0)
(0.523343 -0.0899091 0)
(0.308983 -0.0511922 0)
(0.134643 -0.0214324 0)
(0.00149668 -7.86381e-05 0)
(-0.0935064 0.013066 0)
(-0.15691 0.0187943 0)
(-0.197243 0.0192392 0)
(-0.222704 0.0167013 0)
(-0.239053 0.0129754 0)
(-0.248772 0.00921874 0)
(-0.251218 0.00601253 0)
(-0.24295 0.00352988 0)
(-0.217613 0.00172935 0)
(-0.165513 0.000543351 0)
(-0.0735342 5.10568e-05 0)
(2.5687 -0.283739 0)
(2.20092 -0.229655 0)
(1.8358 -0.185855 0)
(1.48354 -0.143353 0)
(1.15338 -0.104104 0)
(0.851664 -0.0689798 0)
(0.582239 -0.0383049 0)
(0.347605 -0.0126978 0)
(0.149609 0.00704509 0)
(-0.0106356 0.0202856 0)
(-0.133611 0.027229 0)
(-0.222006 0.0288849 0)
(-0.280675 0.0264119 0)
(-0.31544 0.0213897 0)
(-0.331491 0.0153727 0)
(-0.331664 0.009551 0)
(-0.314973 0.00469264 0)
(-0.275794 0.00126591 0)
(-0.204082 -0.000430138 0)
(-0.0870631 -0.000409008 0)
(2.47477 -0.411685 0)
(2.16286 -0.363218 0)
(1.82995 -0.309369 0)
(1.49033 -0.257194 0)
(1.16229 -0.209076 0)
(0.859294 -0.166451 0)
(0.589386 -0.12977 0)
(0.35611 -0.098739 0)
(0.160247 -0.072784 0)
(0.00132825 -0.0514172 0)
(-0.12189 -0.0344901 0)
(-0.211585 -0.0217663 0)
(-0.27125 -0.0128659 0)
(-0.30557 -0.00728953 0)
(-0.319335 -0.00429176 0)
(-0.31581 -0.00298817 0)
(-0.295103 -0.00250847 0)
(-0.253265 -0.00211295 0)
(-0.182797 -0.00134561 0)
(-0.0750671 -0.000416016 0)
(3.00742 -0.374616 0)
(2.67986 -0.324954 0)
(2.32497 -0.280339 0)
(1.95301 -0.233723 0)
(1.58245 -0.188524 0)
(1.22988 -0.147002 0)
(0.907861 -0.110582 0)
(0.623811 -0.0798007 0)
(0.380595 -0.0544614 0)
(0.178021 -0.0339678 0)
(0.014351 -0.0177375 0)
(-0.112975 -0.00571317 0)
(-0.207018 0.00218934 0)
(-0.271134 0.00649838 0)
(-0.308603 0.00780829 0)
(-0.321575 0.00693742 0)
(-0.309748 0.00484689 0)
(-0.269532 0.00251398 0)
(-0.194644 0.000747192 0)
(-0.0788622 4.55588e-05 0)
(2.93634 -0.481985 0)
(2.65303 -0.434766 0)
(2.337 -0.382914 0)
(1.98839 -0.328374 0)
(1.62841 -0.274647 0)
(1.27626 -0.224222 0)
(0.948139 -0.179063 0)
(0.655345 -0.140259 0)
(0.403753 -0.108055 0)
(0.194586 -0.0821126 0)
(0.0260158 -0.0618086 0)
(-0.105176 -0.0460989 0)