/*--------------------------------*- C++ -*----------------------------------*\
| =========                 |                                                 |
| \\      /  F ield         | OpenFOAM: The Open Source CFD Toolbox           |
|  \\    /   O peration     | Version:  v1806                                 |
|   \\  /    A nd           | Web:      www.OpenFOAM.com                      |
|    \\/     M anipulation  |                                                 |
\*---------------------------------------------------------------------------*/
FoamFile
{
    version     2.0;
    format      ascii;
    class       surfaceScalarField;
    location    "320";
    object      phi;
}
// * * * * * * * * * * * * * * * * * * * * * * * * * * * * * * * * * * * * * //

dimensions      [0 3 -1 0 0 0 0];
oriented        oriented;


internalField   nonuniform List<scalar> 
15538
(
-1.88596e-07
-0.0735603
0.0613861
0.0291183
-0.0169439
1.34451e-07
-0.073594
0.0613841
0.0291248
-0.0169152
-1.34524e-07
-0.0735978
0.0613849
0.0291275
-0.0169143
1.88579e-07
-0.073594
0.0613841
0.0291248
-0.0169152
-0.0735603
0.0613861
0.0291183
-0.0169439
-1.35537e-07
-0.0583958
-0.0497091
0.0345446
8.22046e-08
-0.058453
-0.049711
0.0345697
-8.22489e-08
-0.058462
-0.049712
0.0345765
1.35504e-07
-0.058453
-0.049711
0.0345697
-0.0583958
-0.0497091
0.0345446
8.1189e-07
-0.0399599
-0.0407462
0.0223096
4.25318e-08
-0.0399815
-0.0407626
0.0222919
-4.25844e-08
-0.0399851
-0.0407638
0.022287
-8.11922e-07
-0.0399815
-0.0407626
0.0222919
-0.0399599
-0.0407462
0.0223096
-8.55301e-07
0.047285
-0.00169725
-0.0450464
-0.000540495
-1.62818e-08
0.0472486
-0.00169286
-0.0450249
-0.000531612
1.62079e-08
0.0472449
-0.0016925
-0.0450224
-0.00053009
8.55271e-07
0.0472486
-0.00169286
-0.0450249
-0.000531611
0.047285
-0.00169725
-0.0450464
-0.000540495
-7.23008e-07
-0.0051909
0.0295746
0.022902
8.42545e-09
-0.00518766
0.0295478
0.0228876
-8.55317e-09
-0.00518764
0.0295452
0.0228874
7.22961e-07
-0.00518766
0.0295478
0.0228876
-0.0051909
0.0295746
0.022902
-7.58396e-07
-0.0408717
0.0335103
0.0021713
1.4432e-08
-0.0408468
0.0334837
0.00217467
-1.45098e-08
-0.0408442
0.0334815
0.00217506
7.58357e-07
-0.0408468
0.0334837
0.00217467
-0.0408717
0.0335103
0.0021713
-6.01306e-07
0.00392767
-0.046496
-1.40248e-08
0.00393224
-0.0464725
1.39525e-08
0.00393326
-0.04647
6.01283e-07
0.00393224
-0.0464725
0.00392767
-0.046496
-4.8974e-07
-0.00151636
0.00396865
0.0467859
-0.0492377
-4.00301e-08
-0.00152564
0.00397213
0.0467807
-0.0492276
4.0107e-08
-0.00152707
0.00397354
0.046779
-0.0492255
4.8976e-07
-0.00152564
0.00397213
0.0467807
-0.0492276
-0.00151636
0.00396865
0.0467859
-0.0492377
-6.26688e-07
0.00132884
-0.0478909
-4.13312e-08
0.00132106
-0.0478722
4.14093e-08
0.0013203
-0.0478698
6.26691e-07
0.00132106
-0.0478722
0.00132884
-0.0478909
1.06197e-07
-0.000511389
0.0404351
-0.0435277
0.00360389
3.05903e-07
-0.000470848
0.0404562
-0.0435881
0.00360251
-3.05711e-07
-0.000461507
0.0404608
-0.0435969
0.00359826
-1.06099e-07
-0.000470848
0.0404562
-0.0435881
0.00360251
-0.000511389
0.0404351
-0.0435277
0.00360389
-3.85717e-07
0.0383801
-0.047601
0.00870987
1.33755e-07
0.0384086
-0.0476273
0.00874733
-1.33189e-07
0.0384144
-0.0476295
0.00875391
3.85842e-07
0.0384086
-0.0476273
0.00874733
0.0383801
-0.047601
0.00870987
9.59376e-07
0.0134444
0.0404069
-0.0154722
1.29255e-07
0.0134762
0.0404123
-0.015479
-1.27609e-07
0.0134768
0.0404162
-0.0154783
-9.59605e-07
0.0134762
0.0404123
-0.015479
0.0134444
0.0404069
-0.0154722
1.59797e-06
0.0469213
0.00695648
1.8172e-07
0.0469134
0.00702039
-1.81299e-07
0.0469161
0.00702185
-1.59798e-06
0.0469134
0.00702039
0.0469213
0.00695648
-2.23861e-08
-0.00330136
0.000603104
0.00269827
-6.05214e-08
-0.00328108
0.000598709
0.00268241
6.05327e-08
-0.00327825
0.000598254
0.00267988
2.23895e-08
-0.00328108
0.000598709
0.00268241
-0.00330136
0.000603104
0.00269827
1.89982e-08
-0.00181268
-0.0014887
-3.19696e-08
-0.00181057
-0.00147046
3.19731e-08
-0.0018093
-0.00146901
-1.89956e-08
-0.00181057
-0.00147046
-0.00181268
-0.0014887
-2.52067e-08
-0.00230216
0.00082234
-0.000332836
-3.2705e-08
-0.00229934
0.000820389
-0.00033161
3.27119e-08
-0.00229788
0.000819739
-0.000331223
2.52096e-08
-0.00229934
0.000820389
-0.00033161
-0.00230216
0.00082234
-0.000332836
-6.12522e-08
-0.00196942
0.00105559
-0.00285118
0.00376507
-2.51115e-09
-0.00197481
0.00105185
-0.00284636
0.00376926
2.50648e-09
-0.00197514
0.00105095
-0.00284528
0.00376947
6.12482e-08
-0.00197481
0.00105185
-0.00284636
0.00376926
-0.00196942
0.00105559
-0.00285118
0.00376507
-1.01354e-07
0.00223534
-0.00363358
-0.000571081
4.35254e-09
0.00223332
-0.00362488
-0.000583354
-4.34981e-09
0.00223226
-0.00362334
-0.000584053
1.01355e-07
0.00223332
-0.00362488
-0.000583354
0.00223534
-0.00363358
-0.000571081
-4.89039e-08
0.00300822
0.000282761
-4.1857e-09
0.00300614
0.000278987
4.18485e-09
0.00300481
0.000278391
4.89042e-08
0.00300614
0.000278987
0.00300822
0.000282761
-2.01808e-06
-0.0209448
-0.0184328
0.0219779
0.0174017
3.67943e-07
-0.0209032
-0.0183204
0.0220154
0.0172058
-3.67913e-07
-0.020903
-0.0183126
0.0220201
0.0171962
2.01806e-06
-0.0209032
-0.0183204
0.0220154
0.0172058
-0.0209448
-0.0184328
0.0219779
0.0174017
-1.46215e-06
-0.0166814
-0.0254865
0.0212245
2.16136e-07
-0.0166381
-0.0254456
0.0211788
-2.16173e-07
-0.016637
-0.0254445
0.0211789
1.46214e-06
-0.0166381
-0.0254456
0.0211788
-0.0166814
-0.0254865
0.0212245
-7.20473e-07
0.0171242
-0.0174251
-0.0163798
7.09172e-08
0.0171088
-0.0173925
-0.0163552
-7.09593e-08
0.0171076
-0.0173907
-0.0163538
7.20456e-07
0.0171088
-0.0173925
-0.0163552
0.0171242
-0.0174251
-0.0163798
-1.1927e-06
-0.0239645
0.0226571
1.46662e-07
-0.0238913
0.0226784
-1.4669e-07
-0.023886
0.0226813
1.19268e-06
-0.0238913
0.0226784
-0.0239645
0.0226571
-6.92061e-08
0.00172671
-0.00169678
-0.00324738
0.00321752
-4.54201e-09
0.001722
-0.00170087
-0.00324207
0.00322088
4.54105e-09
0.00172068
-0.00170092
-0.00324058
0.00322081
6.92064e-08
0.001722
-0.00170087
-0.00324207
0.00322088
0.00172671
-0.00169678
-0.00324738
0.00321752
-8.47747e-08
-0.00230464
0.00352703
0.000504416
-6.80025e-09
-0.00230296
0.00352563
0.000499244
6.79854e-09
-0.00230159
0.00352397
0.0004983
8.47761e-08
-0.00230296
0.00352563
0.000499244
-0.00230464
0.00352703
0.000504416
-8.66307e-08
-0.00353238
-0.00046896
1.94409e-09
-0.00352249
-0.000481424
-1.94295e-09
-0.00352064
-0.000481875
8.6631e-08
-0.00352249
-0.000481424
-0.00353238
-0.00046896
1.13185e-06
0.0351292
0.00881462
-0.0421843
-0.00176062
5.58913e-08
0.0350954
0.00878686
-0.0421688
-0.00171231
-5.589e-08
0.0350894
0.00878735
-0.0421651
-0.00171162
-1.13185e-06
0.0350954
0.00878686
-0.0421688
-0.00171231
0.0351292
0.00881462
-0.0421843
-0.00176062
5.55169e-07
-0.0289384
0.0475923
0.0164747
2.30564e-08
-0.0289552
0.0475765
0.0164746
-2.30399e-08
-0.0289537
0.0475739
0.0164692
-5.55165e-07
-0.0289552
0.0475765
0.0164746
-0.0289384
0.0475923
0.0164747
9.11113e-07
-0.0535966
0.0334719
4.30148e-08
-0.0536295
0.033462
-4.30162e-08
-0.053631
0.0334648
-9.11113e-07
-0.0536295
0.033462
-0.0535966
0.0334719
3.57122e-07
0.0121122
0.0254366
-0.0354797
-0.00206949
-1.81613e-08
0.0120748
0.025406
-0.0354531
-0.00202738
1.8111e-08
0.0120715
0.0254014
-0.0354488
-0.00202409
-3.57148e-07
0.0120748
0.025406
-0.0354531
-0.00202738
0.0121122
0.0254366
-0.0354797
-0.00206949
1.645e-07
0.0211297
-0.0471758
0.0381582
-4.54138e-09
0.0211428
-0.0472019
0.0381341
4.47461e-09
0.0211437
-0.0472037
0.0381314
-1.64524e-07
0.0211428
-0.0472019
0.0381341
0.0211297
-0.0471758
0.0381582
-2.64576e-07
0.0479219
-0.00135541
-2.22014e-08
0.0478709
-0.0013224
2.21531e-08
0.0478633
-0.00131822
2.64552e-07
0.0478709
-0.0013224
0.0479219
-0.00135541
-6.05646e-07
-0.0394634
0.0548347
0.0107687
-0.0261394
-1.05303e-08
-0.0394642
0.0548201
0.0107452
-0.0261018
1.04854e-08
-0.0394634
0.0548198
0.0107421
-0.0260986
6.05642e-07
-0.0394642
0.0548201
0.0107452
-0.0261018
-0.0394634
0.0548347
0.0107687
-0.0261394
-3.64336e-07
-0.0580677
0.00346768
0.015137
-2.72819e-08
-0.0580692
0.00345652
0.0151482
2.73299e-08
-0.0580677
0.00345468
0.0151496
3.64335e-07
-0.0580692
0.00345652
0.0151482
-0.0580677
0.00346768
0.015137
-4.04409e-07
-0.00108697
-0.0530117
-3.99539e-08
-0.00107897
-0.0530185
4.0156e-08
-0.00107711
-0.0530171
4.04378e-07
-0.00107897
-0.0530185
-0.00108697
-0.0530117
-5.8771e-08
0.00435608
-0.00233919
-0.0051968
0.00317997
-3.90893e-09
0.00435337
-0.00233957
-0.0051955
0.00318164
3.90447e-09
0.00435233
-0.0023397
-0.00519464
0.003182
5.87673e-08
0.00435337
-0.00233957
-0.0051955
0.00318164
0.00435608
-0.00233919
-0.0051968
0.00317997
-7.25022e-08
0.0041484
-0.00290521
0.00311295
-4.05747e-09
0.00414263
-0.00290543
0.00311611
4.04656e-09
0.00414118
-0.00290546
0.0031166
7.25014e-08
0.00414263
-0.00290543
0.00311611
0.0041484
-0.00290521
0.00311295
-5.91168e-08
-0.00330924
0.0053496
-0.00573297
0.00369268
-6.9215e-09
-0.00330816
0.00534598
-0.00573153
0.00369366
6.98468e-09
-0.00330811
0.00534474
-0.00573054
0.0036939
5.90985e-08
-0.00330816
0.00534598
-0.00573153
0.00369366
-0.00330924
0.0053496
-0.00573297
0.00369268
-7.68116e-08
-0.00386992
0.00565729
-0.00509654
-6.2991e-09
-0.00386957
0.00565589
-0.00509456
6.31214e-09
-0.00386927
0.00565477
-0.00509363
7.68179e-08
-0.00386957
0.00565589
-0.00509456
-0.00386992
0.00565729
-0.00509654
-5.35778e-08
-0.00368499
0.00187639
0.00181784
-9.18418e-06
-3.77518e-09
-0.0036801
0.00187477
0.00181419
-8.90237e-06
3.77836e-09
-0.0036789
0.00187438
0.00181335
-8.83022e-06
5.35782e-08
-0.0036801
0.00187477
0.00181419
-8.90229e-06
-0.00368499
0.00187639
0.00181784
-9.18404e-06
-7.96786e-08
-0.00459201
-0.000237339
0.00114444
-2.49897e-09
-0.00458899
-0.000235418
0.00114423
2.50172e-09
-0.00458796
-0.000235168
0.00114421
7.96805e-08
-0.00458899
-0.000235418
0.00114423
-0.00459201
-0.000237339
0.00114444
-8.59498e-08
-0.00233601
0.00285093
-1.65624e-09
-0.00233662
0.00285427
1.65201e-09
-0.0023368
0.00285464
8.59493e-08
-0.00233662
0.00285427
-0.00233601
0.00285093
-1.67678e-07
-0.00228553
0.00182606
4.64305e-09
-0.00228048
0.00181846
-4.64258e-09
-0.00227954
0.00181713
1.67678e-07
-0.00228048
0.00181846
-0.00228553
0.00182606
-4.2651e-08
-0.000186237
-0.00568792
0.00128218
-3.35611e-09
-0.00018607
-0.00568526
0.0012823
3.35449e-09
-0.000186021
-0.00568432
0.00128238
4.26507e-08
-0.00018607
-0.00568526
0.0012823
-0.000186237
-0.00568792
0.00128218
-1.24808e-07
-0.00167602
0.00199495
0.00149904
3.24982e-09
-0.001672
0.00199403
0.00149204
-3.2444e-09
-0.00167125
0.00199371
0.00149089
1.24812e-07
-0.001672
0.00199403
0.00149204
-0.00167602
0.00199495
0.00149904
-1.05026e-07
-0.00408472
0.00239962
2.34931e-10
-0.0040808
0.00239979
-2.32274e-10
-0.00407973
0.00239965
1.05029e-07
-0.0040808
0.00239979
-0.00408472
0.00239962
-7.30454e-08
-0.00623662
0.00191463
-3.43479e-09
-0.00623047
0.00191418
3.43603e-09
-0.00622907
0.00191417
7.30499e-08
-0.00623047
0.00191418
-0.00623662
0.00191463
-8.88213e-08
-0.00294284
-0.00347993
-2.07422e-09
-0.0029391
-0.00347753
2.07789e-09
-0.00293826
-0.00347683
8.88201e-08
-0.0029391
-0.00347753
-0.00294284
-0.00347993
-2.70853e-08
-0.00134152
-0.00547121
-5.01909e-09
-0.00134155
-0.00546714
5.01759e-09
-0.00134143
-0.00546612
2.70847e-08
-0.00134155
-0.00546714
-0.00134152
-0.00547121
-4.02728e-08
0.00125082
-0.00607223
-4.25129e-09
0.00124901
-0.00606812
4.24779e-09
0.00124884
-0.00606712
4.0274e-08
0.00124901
-0.00606812
0.00125082
-0.00607223
-6.23506e-08
0.00134101
-0.00577804
-4.55726e-09
0.00134028
-0.00577659
4.55656e-09
0.00134033
-0.00577581
6.23507e-08
0.00134028
-0.00577659
0.00134101
-0.00577804
-9.07156e-08
-0.00387464
0.0023373
-2.57063e-09
-0.00386929
0.00234073
2.57447e-09
-0.0038679
0.00234097
9.07183e-08
-0.00386929
0.00234073
-0.00387464
0.0023373
-6.96324e-08
0.00510309
0.00228291
-0.00604493
-3.64917e-09
0.00509915
0.00228324
-0.00604218
3.6503e-09
0.00509811
0.00228344
-0.00604123
6.96348e-08
0.00509915
0.00228324
-0.00604218
0.00510309
0.00228291
-0.00604493
-9.32907e-08
0.00404618
-1.72522e-09
0.00404179
1.7299e-09
0.00404078
9.32934e-08
0.00404179
0.00404618
-1.11899e-07
9.41322e-10
-9.42664e-10
1.11904e-07
-7.28328e-08
-0.00442986
0.00295493
-4.3473e-09
-0.00442739
0.00295782
4.35078e-09
-0.00442631
0.00295806
7.28357e-08
-0.00442739
0.00295782
-0.00442986
0.00295493
-7.13988e-08
0.00314213
-5.70874e-09
0.00314262
5.69194e-09
0.00314262
7.14126e-08
0.00314262
0.00314213
-5.42452e-08
-0.00591837
0.00300454
-4.43851e-09
-0.00591719
0.00300488
4.43638e-09
-0.00591639
0.00300519
5.42487e-08
-0.00591719
0.00300488
-0.00591837
0.00300454
-5.01146e-08
-0.00220497
0.00291005
-0.00662341
-4.68093e-09
-0.00220521
0.00291027
-0.0066223
4.67862e-09
-0.00220542
0.00291056
-0.00662154
5.0112e-08
-0.00220521
0.00291027
-0.0066223
-0.00220497
0.00291005
-0.00662341
-6.49015e-08
-0.00129735
-0.00695248
-4.83578e-09
-0.00129737
-0.00695007
4.83178e-09
-0.0012975
-0.00694916
6.49045e-08
-0.00129737
-0.00695007
-0.00129735
-0.00695248
-5.19781e-08
-3.02527e-05
-0.00704509
-4.90448e-09
-3.1018e-05
-0.00704299
4.90351e-09
-3.11858e-05
-0.00704214
5.19737e-08
-3.1018e-05
-0.00704299
-3.02526e-05
-0.00704509
-6.46684e-08
0.000957374
-0.00705979
-5.30037e-09
0.000957533
-0.00705673
5.28956e-09
0.000957486
-0.0070558
6.46617e-08
0.000957533
-0.00705673
0.000957374
-0.00705979
-6.7287e-08
0.00220537
-0.00671914
-5.27278e-09
0.00220741
-0.00671708
5.27321e-09
0.00220757
-0.00671621
6.72804e-08
0.00220741
-0.00671708
0.00220537
-0.00671914
-6.13634e-08
0.00353263
-0.00642373
-5.81836e-09
0.00353336
-0.00642057
5.8173e-09
0.0035336
-0.00641966
6.13693e-08
0.00353336
-0.00642057
0.00353263
-0.00642373
-9.52453e-08
-0.00418619
0.0032762
-4.45271e-09
-0.00418084
0.00327942
4.45165e-09
-0.00417938
0.00327976
9.52433e-08
-0.00418084
0.00327942
-0.00418619
0.0032762
-9.44023e-08
-0.00463549
0.00340432
-4.9473e-09
-0.00462984
0.00340673
4.9474e-09
-0.00462838
0.00340705
9.43924e-08
-0.00462984
0.00340673
-0.00463549
0.00340432
-8.81372e-08
0.00385632
-6.29432e-09
0.00385868
6.21895e-09
0.00385896
8.81644e-08
0.00385868
0.00385632
-5.85695e-08
-0.00622181
0.00402152
-7.64691e-09
-0.00622073
0.00402251
7.62774e-09
-0.00621984
0.00402288
5.8599e-08
-0.00622072
0.00402251
-0.00622181
0.00402152
-7.91782e-08
-0.00444243
0.00385489
0.00370057
-3.97331e-09
-0.00443814
0.00385053
0.00370363
3.90586e-09
-0.00443716
0.00384956
0.00370419
7.91769e-08
-0.00443814
0.00385053
0.00370363
-0.00444243
0.00385489
0.00370057
-7.3158e-08
-0.00504364
0.00378126
-4.62983e-09
-0.00504025
0.00378369
4.6103e-09
-0.00503934
0.00378417
7.31461e-08
-0.00504025
0.00378369
-0.00504364
0.00378126
-5.95445e-08
-0.0056174
0.00357836
-4.97035e-09
-0.00561529
0.00357986
4.96452e-09
-0.00561446
0.0035803
5.95418e-08
-0.00561529
0.00357986
-0.0056174
0.00357836
-5.04944e-08
-0.00624792
0.00354061
-5.16237e-09
-0.00624651
0.00354145
5.16103e-09
-0.00624574
0.00354183
5.04921e-08
-0.00624651
0.00354145
-0.00624792
0.00354061
-4.35019e-08
-0.00277573
0.00355047
-0.0070226
-5.57481e-09
-0.00277576
0.00355096
-0.00702175
5.54835e-09
-0.002776
0.0035513
-0.00702106
4.34962e-08
-0.00277576
0.00355096
-0.00702175
-0.00277573
0.00355047
-0.0070226
-4.44515e-08
-0.00182286
-0.00757624
-5.17672e-09
-0.00182296
-0.00757514
5.18357e-09
-0.00182315
-0.0075744
4.44389e-08
-0.00182296
-0.00757514
-0.00182286
-0.00757624
-4.95392e-08
-0.00101785
-0.00775744
-5.34633e-09
-0.00101787
-0.0077552
5.3375e-09
-0.00101796
-0.00775436
4.95364e-08
-0.00101787
-0.0077552
-0.00101785
-0.00775744
-4.45994e-08
-0.000124928
-0.00793796
-5.56823e-09
-0.000125194
-0.00793571
5.55742e-09
-0.00012522
-0.00793488
4.45929e-08
-0.000125194
-0.00793571
-0.000124928
-0.00793796
-4.78006e-08
0.000798338
-0.00798301
-5.77675e-09
0.000798756
-0.00798072
5.72953e-09
0.000798798
-0.00797983
4.78071e-08
0.000798756
-0.00798072
0.000798338
-0.00798301
-4.54081e-08
0.00197384
-0.0078946
-5.20542e-09
0.00197378
-0.00789214
5.19269e-09
0.00197384
-0.00789127
4.53952e-08
0.00197378
-0.00789214
0.00197384
-0.0078946
-5.2505e-08
0.00298596
-0.00743581
-5.19281e-09
0.00298654
-0.00743337
5.20521e-09
0.00298669
-0.00743252
5.25039e-08
0.00298654
-0.00743337
0.00298596
-0.00743581
-4.65804e-08
0.00382557
-0.00706136
-6.13365e-09
0.00382602
-0.00706024
6.19276e-09
0.00382628
-0.00705944
4.65717e-08
0.00382602
-0.00706024
0.00382557
-0.00706136
-8.29174e-08
0.00385472
-3.22372e-09
0.00385837
3.19671e-09
0.00385891
8.29136e-08
0.00385837
0.00385472
-4.05417e-08
0.00573886
-0.00625875
0.0043455
-7.07998e-09
0.0057382
-0.00625825
0.00434604
5.98645e-09
0.00573739
-0.00625752
0.00434639
4.02711e-08
0.0057382
-0.00625825
0.00434604
0.00573886
-0.00625875
0.0043455
-4.74165e-08
0.00549573
0.0042647
-7.33671e-09
0.00549458
0.00426609
8.31488e-09
0.00549374
0.00426652
4.76898e-08
0.00549458
0.00426609
0.00549573
0.0042647
-5.3423e-08
0.00490895
0.00427951
-9.18694e-09
0.00490687
0.00428132
7.79981e-09
0.00490593
0.00428169
5.30653e-08
0.00490687
0.00428132
0.00490895
0.00427951
-5.19576e-08
0.00483909
0.00392624
-7.71645e-09
0.00483756
0.00392796
9.12642e-09
0.00483662
0.00392826
5.23143e-08
0.00483756
0.00392796
0.00483909
0.00392624
-4.81579e-08
0.00415438
0.00408908
-8.35343e-09
0.00415256
0.00409168
7.8961e-09
0.00415167
0.00409199
4.80674e-08
0.00415256
0.00409168
0.00415438
0.00408908
-4.15414e-08
0.00316151
0.0042691
-8.80906e-09
0.00316069
0.00427126
8.80574e-09
0.00316
0.00427141
4.15335e-08
0.00316069
0.00427126
0.00316151
0.0042691
-3.83116e-08
-0.00364734
0.00312264
0.00437945
-7.07091e-09
-0.00364528
0.00312175
0.00438187
6.92751e-09
-0.00364471
0.00312135
0.00438227
3.82919e-08
-0.00364529
0.00312175
0.00438187
-0.00364734
0.00312264
0.00437945
-4.39278e-08
-0.00431081
0.00436408
-6.3829e-09
-0.00430885
0.00436716
7.1671e-09
-0.0043082
0.00436767
4.41563e-08
-0.00430885
0.00436716
-0.00431081
0.00436409
-5.02712e-08
-0.00471681
0.00418731
-6.32262e-09
-0.004715
0.0041898
6.25526e-09
-0.00471431
0.00419027
5.02799e-08
-0.004715
0.0041898
-0.00471681
0.00418731
-4.79672e-08
-0.00519985
0.00406145
-5.5821e-09
-0.00519857
0.0040634
5.57768e-09
-0.00519789
0.00406386
4.79597e-08
-0.00519857
0.0040634
-0.00519985
0.00406145
-3.69415e-08
-0.00568587
0.00402666
-5.61013e-09
-0.00568509
0.00402793
5.62105e-09
-0.00568443
0.00402836
3.6932e-08
-0.00568509
0.00402793
-0.00568587
0.00402666
-3.72707e-08
-0.00621792
0.00408256
-5.6755e-09
-0.00621731
0.00408315
5.32977e-09
-0.00621668
0.00408354
3.71613e-08
-0.00621731
0.00408315
-0.00621792
0.00408256
-3.04732e-08
-0.00319872
0.00397542
-0.0069946
-5.32361e-09
-0.00319899
0.00397579
-0.00699414
5.22555e-09
-0.00319929
0.00397614
-0.00699354
3.04515e-08
-0.00319899
0.00397579
-0.00699414
-0.00319872
0.00397542
-0.0069946
-3.45172e-08
-0.00241282
-0.00780847
-5.03528e-09
-0.00241302
-0.00780775
5.80365e-09
-0.00241327
-0.00780709
3.47331e-08
-0.00241302
-0.00780775
-0.00241282
-0.00780847
-3.81868e-08
-0.00156543
-0.00842358
-5.69899e-09
-0.00156573
-0.00842246
5.33096e-09
-0.00156593
-0.00842175
3.8094e-08
-0.00156573
-0.00842246
-0.00156543
-0.00842358
-4.3059e-08
-0.000788399
-0.00853443
-5.69336e-09
-0.000788566
-0.00853241
5.64893e-09
-0.000788671
-0.00853163
4.30564e-08
-0.000788566
-0.00853241
-0.000788399
-0.00853443
-4.12383e-08
1.41052e-05
-0.00874042
-5.94756e-09
1.39987e-05
-0.00873831
5.8519e-09
1.39521e-05
-0.00873752
4.12062e-08
1.39986e-05
-0.00873831
1.41051e-05
-0.00874042
-4.08113e-08
0.000923354
-0.00889222
-5.82343e-09
0.000923336
-0.0088901
6.23623e-09
0.000923362
-0.00888925
4.09321e-08
0.000923337
-0.0088901
0.000923354
-0.00889222
-4.2811e-08
0.00165853
-0.00862973
-5.55558e-09
0.00165838
-0.00862723
5.48209e-09
0.00165849
-0.00862641
4.28127e-08
0.00165838
-0.00862723
0.00165853
-0.00862973
-4.41679e-08
0.00251217
-0.0082894
-5.06232e-09
0.00251263
-0.00828766
5.04467e-09
0.00251283
-0.00828687
4.41637e-08
0.00251263
-0.00828766
0.00251217
-0.0082894
-3.952e-08
0.003307
-0.00785615
-5.52628e-09
0.00330745
-0.0078551
5.50459e-09
0.00330775
-0.00785436
3.95289e-08
0.00330745
-0.0078551
0.003307
-0.00785615
-3.03869e-08
0.00239325
0.00449449
-1.33081e-08
0.00239488
0.00449612
1.32955e-08
0.00239469
0.0044961
3.03852e-08
0.00239488
0.00449612
0.00239325
0.00449449
-3.35487e-08
-0.0071228
0.00417108
-5.06345e-09
-0.00712244
0.00417161
5.99816e-09
-0.00712175
0.00417197
3.37993e-08
-0.00712244
0.00417161
-0.0071228
0.00417108
-4.23237e-07
0.000828536
0.00891153
-0.0271648
3.4483e-08
0.000822028
0.00891453
-0.0271295
-3.45323e-08
0.000821375
0.00891531
-0.0271273
4.23214e-07
0.000822028
0.00891453
-0.0271295
0.000828536
0.00891153
-0.0271648
-5.48126e-07
0.0109541
-0.0265048
3.40505e-08
0.0109399
-0.0264737
-3.41036e-08
0.0109384
-0.0264707
5.48097e-07
0.0109399
-0.0264737
0.0109541
-0.0265048
-1.02068e-06
-0.027885
0.0128331
5.38951e-08
-0.0278522
0.0128743
-5.39592e-08
-0.0278499
0.0128793
1.02065e-06
-0.0278522
0.0128743
-0.027885
0.0128331
-9.41746e-07
-0.0256526
0.0111212
1.0117e-07
-0.0256122
0.0111055
-1.01237e-07
-0.0256097
0.0111038
9.41717e-07
-0.0256122
0.0111055
-0.0256526
0.0111212
-7.82591e-07
0.00172186
0.00613655
5.02053e-08
0.00172335
0.00614739
-5.02707e-08
0.00172303
0.00614892
7.82556e-07
0.00172335
0.00614739
0.00172186
0.00613655
-5.46012e-07
0.00479221
2.39741e-08
0.00479692
-2.40473e-08
0.00479755
5.45966e-07
0.00479692
0.00479221
-3.89965e-07
-0.00202375
-0.0203484
1.99373e-08
-0.00200869
-0.0203243
-1.99853e-08
-0.00200717
-0.0203226
3.89935e-07
-0.00200869
-0.0203243
-0.00202375
-0.0203484
-4.49087e-07
-0.0235698
-0.00633847
1.5836e-08
-0.0235562
-0.00630511
-1.58945e-08
-0.023555
-0.00630196
4.49059e-07
-0.0235562
-0.00630511
-0.0235698
-0.00633847
-4.68582e-07
-0.0210158
1.58586e-08
-0.0209934
-1.59398e-08
-0.0209902
4.68536e-07
-0.0209934
-0.0210158
-1.70292e-06
-0.0274423
0.020843
0.0177222
1.45385e-07
-0.0273865
0.0207449
0.0177452
-1.45426e-07
-0.0273814
0.0207384
0.017747
1.7029e-06
-0.0273865
0.0207449
0.0177452
-0.0274423
0.020843
0.0177222
-1.04684e-06
-0.0352214
0.0139167
5.33619e-08
-0.0351812
0.0139409
-5.33868e-08
-0.0351772
0.0139448
1.04682e-06
-0.0351812
0.0139409
-0.0352214
0.0139167
-9.21023e-07
-0.0414946
0.00844538
1.0417e-08
-0.0414612
0.00845379
-1.04127e-08
-0.0414576
0.00845555
9.21003e-07
-0.0414612
0.00845379
-0.0414946
0.00844538
-2.51831e-06
0.0156841
0.0263859
4.95108e-07
0.015794
0.0261267
-4.95173e-07
0.0158037
0.0261147
2.51828e-06
0.015794
0.0261267
0.0156841
0.0263859
-4.58695e-07
0.0311002
-0.0352584
0.0169918
5.69937e-08
0.0311026
-0.0352615
0.0170327
-5.70251e-08
0.0311028
-0.0352622
0.0170388
4.58674e-07
0.0311026
-0.0352615
0.0170327
0.0311002
-0.0352584
0.0169918
-3.90064e-07
0.0301815
0.0235761
1.65292e-07
0.0301643
0.0236162
-1.65246e-07
0.0301642
0.0236203
3.90089e-07
0.0301643
0.0236162
0.0301815
0.0235761
6.38479e-07
0.00863111
3.31463e-07
0.00859196
-3.31343e-07
0.008588
-6.38459e-07
0.00859196
0.00863111
-2.70277e-07
-0.00212912
-0.0394675
1.62853e-08
-0.0021109
-0.039456
-1.63627e-08
-0.00210864
-0.0394554
2.70244e-07
-0.0021109
-0.039456
-0.00212912
-0.0394675
-2.07404e-07
0.0420244
0.0106814
-9.47784e-10
0.0420276
0.0106814
8.8253e-10
0.0420275
0.0106837
2.07374e-07
0.0420276
0.0106814
0.0420244
0.0106814
-6.30854e-07
0.0401544
0.0188624
2.78862e-08
0.0401603
0.0188993
-2.78906e-08
0.0401603
0.018906
6.30853e-07
0.0401603
0.0188993
0.0401544
0.0188624
-6.30882e-07
0.0161302
9.55297e-08
0.0161484
-9.53368e-08
0.0161513
6.30957e-07
0.0161484
0.0161302
-6.96756e-07
-0.0497138
1.41114e-08
-0.0497048
-1.41802e-08
-0.0497035
6.96719e-07
-0.0497048
-0.0497138
-7.92907e-07
-1.60375e-08
1.60092e-08
7.92868e-07
-7.17842e-07
0.00759828
-0.0451645
-1.55432e-08
0.00760902
-0.0451387
1.55925e-08
0.00761141
-0.0451358
7.17835e-07
0.00760902
-0.0451387
0.00759828
-0.0451645
-1.95209e-08
0.00186153
0.00451752
-1.78087e-08
0.00186343
0.00451813
1.78052e-08
0.00186306
0.00451771
1.95217e-08
0.00186343
0.00451813
0.00186153
0.00451752
-6.70139e-07
-0.0366488
0.0386021
0.0157697
9.55363e-08
-0.0366458
0.0385854
0.0158049
-9.55576e-08
-0.0366449
0.0385829
0.0158092
6.70127e-07
-0.0366458
0.0385854
0.0158049
-0.0366488
0.0386021
0.0157697
-3.82015e-07
-0.0381931
0.0154613
5.00285e-08
-0.0381834
0.0154782
-5.0014e-08
-0.0381815
0.0154816
3.82009e-07
-0.0381834
0.0154782
-0.0381931
0.0154613
-6.35352e-07
-0.0416984
0.0119514
1.89198e-08
-0.0416909
0.0119605
-1.88786e-08
-0.0416892
0.0119633
6.3537e-07
-0.0416909
0.0119605
-0.0416984
0.0119514
-5.15013e-07
-0.0457307
0.0116311
-8.82089e-09
-0.0457176
0.0116353
8.85906e-09
-0.0457153
0.0116374
5.15057e-07
-0.0457176
0.0116353
-0.0457307
0.0116311
-2.18845e-07
0.0379857
0.0163007
1.55243e-07
0.0380287
0.0163503
-1.55295e-07
0.0380319
0.016355
2.18813e-07
0.0380287
0.0163503
0.0379857
0.0163007
-8.97914e-10
0.00428727
0.0011142
-2.1869e-08
0.00428201
0.00111903
2.18684e-08
0.00428035
0.0011191
8.92206e-10
0.00428201
0.00111903
0.00428727
0.0011142
-6.77209e-07
0.00281499
-0.0479815
-3.61635e-08
0.00281345
-0.0479656
3.61486e-08
0.00281363
-0.0479634
6.77221e-07
0.00281345
-0.0479656
0.00281499
-0.0479815
-6.93807e-07
0.00662867
-0.0489775
-3.72707e-08
0.00663332
-0.0489593
3.73998e-08
0.00663471
-0.048957
6.93804e-07
0.00663332
-0.0489593
0.00662867
-0.0489775
-6.46604e-07
0.00993085
-0.0490323
-3.57867e-08
0.0099407
-0.0490256
3.57672e-08
0.00994308
-0.0490237
6.46625e-07
0.0099407
-0.0490256
0.00993085
-0.0490323
-7.69366e-09
0.00445821
0.000930352
-3.14352e-08
0.00445178
0.000937309
3.14306e-08
0.00444969
0.000937277
7.69452e-09
0.00445178
0.000937309
0.00445821
0.000930352
-4.28868e-08
-0.00359978
0.0037133
0.00438102
-1.66905e-08
-0.00359946
0.00371368
0.00438187
1.66823e-08
-0.00359913
0.0037134
0.0043818
4.28805e-08
-0.00359946
0.00371368
0.00438187
-0.00359978
0.0037133
0.00438102
-4.54833e-08
-0.00383152
0.00461124
-1.01963e-08
-0.00383098
0.00461335
1.0177e-08
-0.0038305
0.00461361
4.54698e-08
-0.00383098
0.00461335
-0.00383152
0.00461124
-4.12104e-08
-0.00397823
0.00451084
-9.05563e-09
-0.00397702
0.00451317
8.97356e-09
-0.00397643
0.00451358
4.12165e-08
-0.00397702
0.00451317
-0.00397823
0.00451084
-3.75055e-08
-0.00425942
0.00446854
-7.83562e-09
-0.00425824
0.00447099
7.67205e-09
-0.00425762
0.00447145
3.7395e-08
-0.00425824
0.00447099
-0.00425942
0.00446854
-4.02669e-08
-0.00458591
0.00438798
-6.56256e-09
-0.0045851
0.00439022
6.53991e-09
-0.00458448
0.0043907
4.02545e-08
-0.0045851
0.00439022
-0.00458591
0.00438798
-3.6925e-08
-0.00494149
0.00438229
-5.96667e-09
-0.00494072
0.00438352
5.981e-09
-0.00494009
0.00438397
3.69221e-08
-0.00494072
0.00438352
-0.00494149
0.00438229
-3.15172e-08
-0.00524419
0.00438529
-5.47475e-09
-0.00524366
0.00438607
5.50325e-09
-0.00524308
0.00438651
3.15144e-08
-0.00524366
0.00438607
-0.00524419
0.00438529
-2.48246e-08
-0.00554932
0.00428057
-5.30122e-09
-0.00554889
0.004281
5.30261e-09
-0.00554835
0.00428141
2.48135e-08
-0.00554889
0.004281
-0.00554932
0.00428057
-1.819e-08
-0.00342582
0.00404156
-0.00616504
-7.06935e-09
-0.00342609
0.00404196
-0.00616477
7.0657e-09
-0.00342642
0.00404234
-0.00616429
1.81885e-08
-0.00342609
0.00404196
-0.00616477
-0.00342582
0.00404156
-0.00616504
-2.25567e-08
-0.00272321
-0.00769718
-5.06122e-09
-0.00272347
-0.00769678
5.05644e-09
-0.00272374
-0.00769623
2.25435e-08
-0.00272347
-0.00769678
-0.00272321
-0.00769718
-2.66396e-08
-0.00192744
-0.00860422
-5.10072e-09
-0.00192767
-0.00860357
5.01302e-09
-0.00192789
-0.00860296
2.66284e-08
-0.00192767
-0.00860357
-0.00192744
-0.00860422
-2.99549e-08
-0.00126522
-0.00908577
-5.25415e-09
-0.00126555
-0.00908461
5.06476e-09
-0.00126571
-0.00908394
2.99129e-08
-0.00126555
-0.00908461
-0.00126522
-0.00908577
-3.40232e-08
-0.00051647
-0.00928315
-5.02883e-09
-0.000516766
-0.00928122
5.84643e-09
-0.000516865
-0.00928048
3.42518e-08
-0.000516766
-0.00928122
-0.00051647
-0.00928315
-3.29773e-08
0.00014486
-0.00940172
-5.69024e-09
0.00014464
-0.00939974
5.21872e-09
0.000144591
-0.00939898
3.28497e-08
0.00014464
-0.00939974
0.00014486
-0.00940172
-3.23198e-08
0.000730996
-0.00947832
-5.57005e-09
0.000730859
-0.00947634
5.43318e-09
0.00073089
-0.00947556
3.22834e-08
0.000730859
-0.00947634
0.000730996
-0.00947832
-3.69657e-08
0.00138024
-0.00927894
-5.27654e-09
0.00138028
-0.00927668
5.55489e-09
0.00138038
-0.00927591
3.70483e-08
0.00138028
-0.00927668
0.00138024
-0.00927894
-3.60675e-08
0.00214145
-0.00905058
-5.10879e-09
0.0021416
-0.00904902
5.29652e-09
0.00214178
-0.00904828
3.61027e-08
0.0021416
-0.00904902
0.00214145
-0.00905058
-3.33642e-08
0.00294395
-0.00865861
-5.3929e-09
0.00294416
-0.00865768
4.77666e-09
0.0029444
-0.00865699
3.31859e-08
0.00294416
-0.00865768
0.00294395
-0.00865861
-2.76723e-08
0.00364135
-0.00782016
-4.87843e-09
0.0036415
-0.0078198
4.85242e-09
0.00364181
-0.00781917
2.76675e-08
0.0036415
-0.0078198
0.00364135
-0.00782016
-2.53553e-08
0.00565232
0.00456523
-0.00657617
-4.815e-09
0.00565197
0.00456546
-0.00657595
4.8049e-09
0.00565135
0.00456583
-0.00657537
2.53447e-08
0.00565197
0.00456546
-0.00657595
0.00565232
0.00456523
-0.00657617
-2.63877e-08
0.005205
0.00461843
-5.21501e-09
0.00520468
0.00461887
5.11719e-09
0.00520403
0.00461928
2.63854e-08
0.00520468
0.00461887
0.005205
0.00461843
-3.38265e-08
0.00498662
0.0045639
-6.12259e-09
0.00498632
0.00456437
6.2413e-09
0.0049856
0.00456481
3.38171e-08
0.00498632
0.00456437
0.00498662
0.0045639
-3.33756e-08
0.00509161
0.00415974
-7.97175e-09
0.00509083
0.00416156
7.93547e-09
0.00509002
0.00416208
3.34043e-08
0.00509083
0.00416156
0.00509161
0.00415974
-4.69745e-08
0.00466227
0.0047089
-9.68592e-09
0.00466112
0.00471099
9.74866e-09
0.00466019
0.0047115
4.69531e-08
0.00466112
0.00471099
0.00466227
0.0047089
-6.12673e-08
0.00437885
0.00420971
-9.67103e-09
0.00437734
0.00421169
9.58233e-09
0.00437637
0.00421206
6.12793e-08
0.00437734
0.00421169
0.00437885
0.00420971
-5.3622e-08
0.00407131
0.00439668
-1.06925e-08
0.00407016
0.00439881
1.06588e-08
0.00406925
0.00439909
5.35982e-08
0.00407016
0.00439881
0.00407131
0.00439668
-7.25216e-08
0.00368794
0.00465255
-1.23202e-08
0.00368691
0.00465445