/*--------------------------------*- C++ -*----------------------------------*\
| =========                 |                                                 |
| \\      /  F ield         | OpenFOAM: The Open Source CFD Toolbox           |
|  \\    /   O peration     | Version:  v1806                                 |
|   \\  /    A nd           | Web:      www.OpenFOAM.com                      |
|    \\/     M anipulation  |                                                 |
\*---------------------------------------------------------------------------*/
FoamFile
{
    version     2.0;
    format      ascii;
    class       volVectorField;
    location    "210";
    object      U;
}
// * * * * * * * * * * * * * * * * * * * * * * * * * * * * * * * * * * * * * //

dimensions      [0 1 -1 0 0 0 0];


internalField   nonuniform List<vector> 
4400
(
(0.219387 0.243631 0)
(0.282621 0.191645 0)
(0.303448 0.151119 0)
(0.312692 0.119035 0)
(0.318541 0.0957353 0)
(0.3217 0.0798821 0)
(0.3226 0.068919 0)
(0.322134 0.060973 0)
(0.320983 0.0550082 0)
(0.319502 0.0504063 0)
(0.317856 0.0467696 0)
(0.316122 0.0438388 0)
(0.314343 0.0414443 0)
(0.312547 0.0394736 0)
(0.310748 0.0378506 0)
(0.308954 0.0365232 0)
(0.30717 0.035456 0)
(0.3054 0.0346268 0)
(0.303682 0.0340072 0)
(0.302237 0.0335164 0)
(0.241259 0.137181 0)
(0.272831 0.105725 0)
(0.291794 0.0905229 0)
(0.305463 0.0819789 0)
(0.312747 0.0746876 0)
(0.315988 0.0678954 0)
(0.317291 0.0618107 0)
(0.317564 0.0565654 0)
(0.317182 0.0521302 0)
(0.316357 0.0484015 0)
(0.31524 0.045265 0)
(0.313935 0.0426217 0)
(0.312512 0.0403941 0)
(0.311018 0.038523 0)
(0.309482 0.0369627 0)
(0.307922 0.0356783 0)
(0.30635 0.0346439 0)
(0.304776 0.0338415 0)
(0.303238 0.0332428 0)
(0.301937 0.0327878 0)
(0.22184 0.100582 0)
(0.255123 0.102962 0)
(0.278774 0.0985123 0)
(0.293412 0.0890055 0)
(0.302403 0.0782965 0)
(0.307997 0.0690154 0)
(0.311251 0.061612 0)
(0.312869 0.0557398 0)
(0.313408 0.0510228 0)
(0.313259 0.0471847 0)
(0.312667 0.0440274 0)
(0.311788 0.0414082 0)
(0.310718 0.0392249 0)
(0.309524 0.0374042 0)
(0.308248 0.0358934 0)
(0.306919 0.0346544 0)
(0.305556 0.0336602 0)
(0.304176 0.0328923 0)
(0.302816 0.0323248 0)
(0.301656 0.0319044 0)
(0.241543 0.0690338 0)
(0.263732 0.0720704 0)
(0.27918 0.0698061 0)
(0.290696 0.0662717 0)
(0.298794 0.0625317 0)
(0.304087 0.0586392 0)
(0.307385 0.0547259 0)
(0.309313 0.0509947 0)
(0.31028 0.0475864 0)
(0.310564 0.0445587 0)
(0.310365 0.0419132 0)
(0.309828 0.0396256 0)
(0.309058 0.0376635 0)
(0.308127 0.0359954 0)
(0.307087 0.0345936 0)
(0.305972 0.0334351 0)
(0.304807 0.032502 0)
(0.303611 0.0317812 0)
(0.302423 0.0312508 0)
(0.301402 0.0308685 0)
(0.245409 0.0520506 0)
(0.261091 0.0602053 0)
(0.275252 0.0633201 0)
(0.286353 0.0626112 0)
(0.294393 0.0595852 0)
(0.300002 0.0556905 0)
(0.303774 0.051796 0)
(0.306165 0.0482281 0)
(0.307537 0.0450584 0)
(0.308177 0.0422782 0)
(0.308295 0.0398577 0)
(0.308044 0.0377625 0)
(0.307531 0.0359602 0)
(0.306833 0.0344225 0)
(0.306006 0.0331261 0)
(0.305088 0.0320522 0)
(0.304107 0.0311865 0)
(0.303086 0.0305184 0)
(0.30206 0.0300299 0)
(0.301173 0.0296859 0)
(0.257424 0.039643 0)
(0.268701 0.0464735 0)
(0.278612 0.0495437 0)
(0.286804 0.050138 0)
(0.293272 0.0493736 0)
(0.298109 0.0478204 0)
(0.301554 0.045818 0)
(0.303892 0.0436183 0)
(0.305371 0.0414015 0)
(0.306193 0.0392825 0)
(0.306519 0.0373255 0)
(0.306479 0.0355611 0)
(0.30617 0.0339994 0)
(0.305667 0.0326404 0)
(0.305024 0.0314786 0)
(0.30428 0.0305075 0)
(0.303466 0.0297204 0)
(0.302605 0.029112 0)
(0.301731 0.0286687 0)
(0.300969 0.0283635 0)
(0.263721 0.0311938 0)
(0.271415 0.0381961 0)
(0.27926 0.0424363 0)
(0.28628 0.0443085 0)
(0.292039 0.0444375 0)
(0.296491 0.0434605 0)
(0.299777 0.0419008 0)
(0.302092 0.0401034 0)
(0.303627 0.0382621 0)
(0.304555 0.0364804 0)
(0.305016 0.0348137 0)
(0.305127 0.0332917 0)
(0.304976 0.0319287 0)
(0.30463 0.0307304 0)
(0.304143 0.0296976 0)
(0.303552 0.0288289 0)
(0.302886 0.0281222 0)
(0.30217 0.0275753 0)
(0.301436 0.0271784 0)
(0.300791 0.026911 0)
(0.271252 0.0251148 0)
(0.276907 0.030887 0)
(0.282634 0.0347167 0)
(0.287862 0.0368145 0)
(0.292343 0.0376436 0)
(0.295984 0.0375893 0)
(0.2988 0.0369377 0)
(0.300874 0.0359125 0)
(0.302321 0.034686 0)
(0.303255 0.0333818 0)
(0.30378 0.0320842 0)
(0.303987 0.0308481 0)
(0.303949 0.0297079 0)
(0.303727 0.028684 0)
(0.303367 0.0277883 0)
(0.302906 0.027027 0)
(0.302371 0.0264036 0)
(0.301784 0.0259198 0)
(0.301175 0.0255697 0)
(0.300636 0.0253385 0)
(0.276399 0.0203768 0)
(0.280375 0.0256106 0)
(0.284705 0.0293919 0)
(0.288893 0.0317703 0)
(0.292611 0.0329804 0)
(0.295711 0.0333053 0)
(0.298167 0.0330164 0)
(0.300022 0.0323378 0)
(0.301353 0.0314358 0)
(0.302247 0.0304265 0)
(0.302786 0.0293885 0)
(0.303044 0.0283751 0)
(0.303083 0.0274222 0)
(0.302953 0.0265535 0)
(0.302695 0.0257845 0)
(0.302342 0.0251253 0)
(0.301918 0.0245824 0)
(0.301445 0.0241599 0)
(0.300948 0.023855 0)
(0.300504 0.0236577 0)
(0.281403 0.0168595 0)
(0.28433 0.0212017 0)
(0.287528 0.0245204 0)
(0.290656 0.0267888 0)
(0.293502 0.0281558 0)
(0.295952 0.028807 0)
(0.297956 0.0289161 0)
(0.29952 0.028636 0)
(0.30068 0.028096 0)
(0.301489 0.0273996 0)
(0.302004 0.026626 0)
(0.302279 0.0258332 0)
(0.302364 0.0250628 0)
(0.3023 0.0243442 0)
(0.302122 0.0236975 0)
(0.301857 0.0231367 0)
(0.301527 0.0226714 0)
(0.301152 0.022308 0)
(0.300752 0.0220464 0)
(0.300393 0.0218803 0)
(0.285206 0.0139043 0)
(0.287307 0.0176969 0)
(0.289679 0.020698 0)
(0.292082 0.0228725 0)
(0.294329 0.0242945 0)
(0.2963 0.0250849 0)
(0.297942 0.0253795 0)
(0.299247 0.0253082 0)
(0.300234 0.0249832 0)
(0.300939 0.0244953 0)
(0.301404 0.0239149 0)
(0.301671 0.0232955 0)
(0.301778 0.0226769 0)
(0.301758 0.0220882 0)
(0.301639 0.0215507 0)
(0.301445 0.0210797 0)
(0.301193 0.0206861 0)
(0.300901 0.0203776 0)
(0.300586 0.020156 0)
(0.3003 0.020018 0)
(0.288634 0.011595 0)
(0.290159 0.0147493 0)
(0.291891 0.0173332 0)
(0.293661 0.0192898 0)
(0.295339 0.0206571 0)
(0.296842 0.0215132 0)
(0.298121 0.0219495 0)
(0.29916 0.0220579 0)
(0.299965 0.0219237 0)
(0.300554 0.0216215 0)
(0.300955 0.0212131 0)
(0.301197 0.0207481 0)
(0.301308 0.0202652 0)
(0.301315 0.0197935 0)
(0.30124 0.0193551 0)
(0.301101 0.018966 0)
(0.300913 0.0186382 0)
(0.30069 0.0183802 0)
(0.300447 0.0181952 0)
(0.300224 0.0180824 0)
(0.291353 0.00956871 0)
(0.292438 0.012258 0)
(0.293688 0.0144988 0)
(0.294991 0.0162474 0)
(0.296249 0.0175207 0)
(0.297392 0.0183678 0)
(0.298378 0.0188547 0)
(0.299189 0.019053 0)
(0.299825 0.019032 0)
(0.300299 0.0188534 0)
(0.300629 0.0185699 0)
(0.300835 0.0182246 0)
(0.300939 0.0178518 0)
(0.30096 0.0174787 0)
(0.300914 0.0171258 0)
(0.300817 0.016809 0)
(0.30068 0.01654 0)
(0.300515 0.0163273 0)
(0.300332 0.0161752 0)
(0.300162 0.0160843 0)
(0.293699 0.00789316 0)
(0.294455 0.0101029 0)
(0.295333 0.0119844 0)
(0.296253 0.0134906 0)
(0.297149 0.0146253 0)
(0.297973 0.0154194 0)
(0.298695 0.0159175 0)
(0.299297 0.016171 0)
(0.299777 0.0162318 0)
(0.30014 0.0161489 0)
(0.300398 0.0159655 0)
(0.300564 0.0157186 0)
(0.300653 0.0154385 0)
(0.300678 0.0151497 0)
(0.300652 0.0148712 0)
(0.300587 0.0146179 0)
(0.30049 0.014401 0)
(0.300372 0.0142288 0)
(0.300239 0.0141059 0)
(0.300113 0.0140339 0)
(0.295566 0.00637651 0)
(0.296076 0.00819644 0)
(0.296672 0.00976041 0)
(0.297304 0.0110334 0)
(0.297926 0.0120147 0)
(0.298504 0.0127233 0)
(0.299013 0.0131903 0)
(0.299442 0.0134538 0)
(0.299788 0.0135541 0)
(0.300052 0.0135297 0)
(0.300241 0.0134157 0)
(0.300366 0.0132425 0)
(0.300436 0.0130356 0)
(0.300459 0.012816 0)
(0.300446 0.0126003 0)
(0.300403 0.0124017 0)
(0.300338 0.0122303 0)
(0.300257 0.0120936 0)
(0.300164 0.0119963 0)
(0.300076 0.0119405 0)
(0.297101 0.00505114 0)
(0.297425 0.0064862 0)
(0.297805 0.00773659 0)
(0.29821 0.00876975 0)
(0.29861 0.00958131 0)
(0.298985 0.0101825 0)
(0.299318 0.0105942 0)
(0.299601 0.0108435 0)
(0.299831 0.0109596 0)
(0.300009 0.0109719 0)
(0.300138 0.0109077 0)
(0.300225 0.0107911 0)
(0.300274 0.010643 0)
(0.300293 0.0104807 0)
(0.300287 0.0103182 0)
(0.300261 0.0101667 0)
(0.300219 0.010035 0)
(0.300166 0.00992952 0)
(0.300106 0.00985459 0)
(0.300047 0.00981263 0)
(0.298273 0.00381474 0)
(0.298462 0.00491204 0)
(0.298684 0.00587281 0)
(0.298922 0.0066736 0)
(0.299158 0.00731039 0)
(0.299381 0.00778991 0)
(0.29958 0.00812624 0)
(0.299749 0.00833831 0)
(0.299888 0.00844739 0)
(0.299995 0.00847504 0)
(0.300074 0.00844168 0)
(0.300127 0.00836571 0)
(0.300158 0.00826314 0)
(0.30017 0.00814744 0)
(0.300167 0.00802967 0)
(0.300153 0.0079187 0)
(0.300129 0.00782152 0)
(0.300098 0.00774341 0)
(0.300062 0.0076881 0)
(0.300027 0.00765784 0)
(0.299146 0.00267684 0)
(0.299237 0.00344369 0)
(0.299346 0.00412078 0)
(0.299462 0.00468944 0)
(0.299578 0.00514592 0)
(0.299688 0.00549398 0)
(0.299787 0.00574244 0)
(0.299871 0.00590363 0)
(0.29994 0.0059917 0)
(0.299994 0.00602128 0)
(0.300034 0.00600647 0)
(0.300061 0.00596016 0)
(0.300077 0.00589369 0)
(0.300084 0.00581672 0)
(0.300083 0.00573719 0)
(0.300076 0.00566157 0)
(0.300064 0.00559496 0)
(0.300048 0.00554125 0)
(0.300031 0.00550333 0)
(0.300013 0.00548306 0)
(0.299707 0.00158169 0)
(0.299737 0.00204064 0)
(0.299774 0.0024452 0)
(0.299814 0.0027858 0)
(0.299854 0.00306058 0)
(0.299892 0.00327149 0)
(0.299926 0.00342346 0)
(0.299955 0.0035235 0)
(0.299979 0.00357982 0)
(0.299998 0.00360098 0)
(0.300011 0.00359526 0)
(0.300021 0.00357032 0)
(0.300026 0.0035329 0)
(0.300029 0.00348881 0)
(0.300028 0.00344281 0)
(0.300026 0.00339881 0)
(0.300022 0.00335989 0)
(0.300017 0.00332845 0)
(0.30001 0.00330631 0)
(0.300004 0.0032947 0)
(0.299986 0.000531793 0)
(0.299987 0.000678312 0)
(0.299989 0.000811507 0)
(0.299991 0.00092451 0)
(0.299993 0.00101602 0)
(0.299995 0.00108654 0)
(0.299996 0.0011376 0)
(0.299998 0.00117146 0)
(0.299999 0.00119079 0)
(0.3 0.00119839 0)
(0.300001 0.00119699 0)
(0.300001 0.00118911 0)
(0.300001 0.00117702 0)
(0.300001 0.00116263 0)
(0.300001 0.00114755 0)
(0.300001 0.00113308 0)
(0.300001 0.00112026 0)
(0.300001 0.0011099 0)
(0.300001 0.0011026 0)
(0.3 0.00109882 0)
(0.100719 -0.168691 0)
(0.080079 -0.143668 0)
(0.0675653 -0.120425 0)
(0.0587662 -0.0996583 0)
(0.0521447 -0.08079 0)
(0.047059 -0.0633418 0)
(0.0431859 -0.046989 0)
(0.0403377 -0.0314645 0)
(0.0383967 -0.0165291 0)
(0.0372902 -0.00196377 0)
(0.0369787 0.0124373 0)
(0.0374521 0.0268736 0)
(0.0387294 0.0415461 0)
(0.0408626 0.0566641 0)
(0.0439474 0.0724526 0)
(0.0481477 0.0891602 0)
(0.0537571 0.107097 0)
(0.0613645 0.126744 0)
(0.072344 0.148682 0)
(0.0905105 0.171952 0)
(0.174895 -0.103189 0)
(0.160564 -0.0939003 0)
(0.148068 -0.083229 0)
(0.137579 -0.0718212 0)
(0.128983 -0.0599435 0)
(0.122101 -0.047733 0)
(0.11676 -0.0352862 0)
(0.112809 -0.0226741 0)
(0.110137 -0.00994645 0)
(0.108665 0.00286171 0)
(0.108347 0.0157239 0)
(0.109173 0.0286178 0)
(0.111165 0.0415212 0)
(0.114383 0.0544082 0)
(0.118932 0.067242 0)
(0.124972 0.0799627 0)
(0.132742 0.092488 0)
(0.142603 0.1048 0)
(0.155124 0.11697 0)
(0.171202 0.127662 0)
(0.191877 -0.0661204 0)
(0.186674 -0.0606413 0)
(0.181986 -0.0542559 0)
(0.177817 -0.04712 0)
(0.174185 -0.0393874 0)
(0.171117 -0.0311879 0)
(0.168642 -0.0226292 0)
(0.166782 -0.0138013 0)
(0.165557 -0.00478109 0)
(0.164979 0.00436479 0)
(0.165059 0.0135758 0)
(0.165805 0.0227947 0)
(0.167221 0.0319638 0)
(0.16931 0.0410223 0)
(0.172075 0.0499013 0)
(0.175515 0.0585182 0)
(0.17963 0.0667761 0)
(0.184433 0.0745765 0)
(0.189981 0.0817889 0)
(0.196445 0.0879209 0)
(0.219968 -0.040396 0)
(0.216181 -0.0362652 0)
(0.212657 -0.0318012 0)
(0.209474 -0.0270343 0)
(0.206687 -0.0219976 0)
(0.204335 -0.0167266 0)
(0.202444 -0.0112587 0)
(0.201034 -0.00563289 0)
(0.200116 0.000110444 0)
(0.199699 0.00593013 0)
(0.19979 0.0117843 0)
(0.200391 0.0176306 0)
(0.201506 0.023426 0)
(0.203136 0.029127 0)
(0.205281 0.034689 0)
(0.207941 0.0400658 0)
(0.211114 0.0452131 0)
(0.214801 0.0500987 0)
(0.219011 0.0546843 0)
(0.223766 0.0587591 0)
(0.233059 -0.0287052 0)
(0.231193 -0.0256307 0)
(0.229503 -0.0223245 0)
(0.228004 -0.0188052 0)
(0.22671 -0.0150957 0)
(0.225637 -0.0112222 0)
(0.224797 -0.00721263 0)
(0.224201 -0.00309597 0)
(0.223859 0.00109824 0)
(0.223776 0.00534001 0)
(0.223959 0.00959912 0)
(0.224408 0.0138451 0)
(0.225122 0.018047 0)
(0.226098 0.0221738 0)
(0.227329 0.0261937 0)
(0.228805 0.0300741 0)
(0.230515 0.0337824 0)
(0.232445 0.0372877 0)
(0.234587 0.0405573 0)
(0.236931 0.043526 0)
(0.248455 -0.0196494 0)
(0.247121 -0.0172029 0)
(0.245898 -0.01465 0)
(0.244805 -0.012 0)
(0.243856 -0.00926321 0)
(0.243065 -0.00645119 0)
(0.242444 -0.00357658 0)
(0.242002 -0.000652968 0)
(0.241746 0.00230522 0)
(0.241681 0.00528291 0)
(0.241809 0.00826454 0)
(0.242132 0.0112343 0)
(0.242649 0.0141763 0)
(0.243358 0.0170747 0)
(0.244253 0.019914 0)
(0.24533 0.0226792 0)
(0.246579 0.0253566 0)
(0.247992 0.0279365 0)
(0.249558 0.0304097 0)
(0.251268 0.0327291 0)
(0.257493 -0.0146647 0)
(0.256721 -0.012759 0)
(0.256033 -0.0107783 0)
(0.255435 -0.00872875 0)
(0.254931 -0.00661794 0)
(0.254525 -0.00445424 0)
(0.254222 -0.00224691 0)
(0.254026 -5.84636e-06 0)
(0.253937 0.0022585 0)
(0.253959 0.0045353 0)
(0.254091 0.00681347 0)
(0.254334 0.00908176 0)
(0.254688 0.0113289 0)
(0.255149 0.0135437 0)
(0.255716 0.015715 0)
(0.256384 0.0178322 0)
(0.257151 0.0198848 0)
(0.25801 0.0218636 0)
(0.258958 0.0237605 0)
(0.259992 0.025562 0)
(0.266773 -0.0108593 0)
(0.266224 -0.00930656 0)
(0.265732 -0.00771365 0)
(0.2653 -0.00608476 0)
(0.264935 -0.00442446 0)
(0.264639 -0.00273764 0)
(0.264417 -0.00102948 0)
(0.264271 0.00069457 0)
(0.264204 0.00242886 0)
(0.264216 0.00416758 0)
(0.264308 0.00590479 0)
(0.264482 0.00763453 0)
(0.264736 0.00935085 0)
(0.265069 0.0110479 0)
(0.265478 0.01272 0)
(0.265962 0.0143615 0)
(0.266518 0.0159673 0)
(0.26714 0.0175339 0)
(0.267827 0.0190576 0)
(0.268572 0.0205222 0)
(0.273007 -0.00841351 0)
(0.272657 -0.0071657 0)
(0.272349 -0.00588932 0)
(0.272086 -0.00458727 0)
(0.271869 -0.00326277 0)
(0.2717 -0.00191932 0)
(0.271579 -0.000560666 0)
(0.271509 0.000809235 0)
(0.27149 0.00218626 0)
(0.271522 0.00356617 0)
(0.271605 0.00494462 0)
(0.27174 0.00631727 0)
(0.271925 0.00767976 0)
(0.272161 0.00902778 0)
(0.272445 0.0103571 0)
(0.272778 0.0116637 0)
(0.273157 0.0129436 0)
(0.273581 0.0141934 0)
(0.274048 0.0154105 0)
(0.274558 0.0165896 0)
(0.278967 -0.00654623 0)
(0.278718 -0.00551368 0)
(0.278499 -0.00446385 0)
(0.278311 -0.00339882 0)
(0.278155 -0.0023208 0)
(0.278033 -0.00123209 0)
(0.277946 -0.000135081 0)
(0.277895 0.000967762 0)
(0.277881 0.00207392 0)
(0.277903 0.00318082 0)
(0.277962 0.00428588 0)
(0.278059 0.00538651 0)
(0.278192 0.00648014 0)
(0.278362 0.00756422 0)
(0.278567 0.00863626 0)
(0.278807 0.00969379 0)
(0.27908 0.0107345 0)
(0.279385 0.0117568 0)
(0.279722 0.012759 0)
(0.280087 0.013734 0)
(0.283323 -0.0052033 0)
(0.283155 -0.00435809 0)
(0.28301 -0.0035005 0)
(0.282888 -0.00263199 0)
(0.282789 -0.00175414 0)
(0.282714 -0.000868615 0)
(0.282663 2.28359e-05 0)
(0.282638 0.000918409 0)
(0.282637 0.00181624 0)
(0.282662 0.00271445 0)
(0.282712 0.0036111 0)
(0.282787 0.00450427 0)
(0.282888 0.00539205 0)
(0.283013 0.00627254 0)
(0.283162 0.00714389 0)
(0.283335 0.00800425 0)
(0.283532 0.0088519 0)
(0.283751 0.00968534 0)
(0.283993 0.0105034 0)
(0.284256 0.0113035 0)
(0.287298 -0.00415461 0)
(0.28718 -0.00345185 0)
(0.287078 -0.0027409 0)
(0.286992 -0.00202286 0)
(0.286922 -0.00129887 0)
(0.286869 -0.000570102 0)
(0.286833 0.000162227 0)
(0.286815 0.000896888 0)
(0.286815 0.00163263 0)
(0.286832 0.00236818 0)
(0.286868 0.00310227 0)
(0.286921 0.00383363 0)
(0.286993 0.00456099 0)
(0.287081 0.0052831 0)
(0.287188 0.00599873 0)
(0.287311 0.00670664 0)
(0.28745 0.00740567 0)
(0.287606 0.00809496 0)
(0.287777 0.00877374 0)
(0.287963 0.00943859 0)
(0.290341 -0.00333655 0)
(0.290261 -0.00275973 0)
(0.290192 -0.00217699 0)
(0.290135 -0.00158911 0)
(0.29009 -0.000996938 0)
(0.290056 -0.000401337 0)
(0.290035 0.000196798 0)
(0.290026 0.000796552 0)
(0.290029 0.00139699 0)
(0.290045 0.00199718 0)
(0.290073 0.00259615 0)
(0.290114 0.00319296 0)
(0.290167 0.00378667 0)
(0.290232 0.00437632 0)
(0.290309 0.00496101 0)
(0.290399 0.0055398 0)
(0.290499 0.00611183 0)
(0.290611 0.00667635 0)
(0.290735 0.0072328 0)
(0.290869 0.00777975 0)
(0.293011 -0.00267202 0)
(0.292957 -0.00219762 0)
(0.29291 -0.00171909 0)
(0.292871 -0.00123703 0)
(0.29284 -0.00075206 0)
(0.292817 -0.000264813 0)
(0.292802 0.000224062 0)
(0.292796 0.000713905 0)
(0.292798 0.00120405 0)
(0.292809 0.00169382 0)
(0.292828 0.00218255 0)
(0.292856 0.00266957 0)
(0.292892 0.0031542 0)
(0.292936 0.00363577 0)
(0.292989 0.00411364 0)
(0.29305 0.00458714 0)
(0.293118 0.00505565 0)
(0.293195 0.00551869 0)
(0.293278 0.00597589 0)
(0.29337 0.00642549 0)
(0.295077 -0.0021192 0)
(0.295042 -0.00173738 0)
(0.295012 -0.00135255 0)
(0.294987 -0.000965176 0)
(0.294967 -0.0005757 0)
(0.294953 -0.000184596 0)
(0.294945 0.000207656 0)
(0.294942 0.000600566 0)
(0.294945 0.00099364 0)
(0.294953 0.00138638 0)
(0.294967 0.00177828 0)
(0.294987 0.00216884 0)
(0.295012 0.00255757 0)
(0.295043 0.00294396 0)
(0.295079 0.00332754 0)
(0.295121 0.0037078 0)
(0.295168 0.00408427 0)
(0.29522 0.00445659 0)
(0.295278 0.00482449 0)
(0.29534 0.0051871 0)
(0.296803 -0.00164705 0)
(0.296781 -0.00134523 0)
(0.296762 -0.0010413 0)
(0.296746 -0.000735575 0)
(0.296734 -0.000428399 0)
(0.296725 -0.000120116 0)
(0.296719 0.000188925 0)
(0.296717 0.000498369 0)
(0.296719 0.000807858 0)
(0.296724 0.00111703 0)
(0.296733 0.00142554 0)
(0.296745 0.001733 0)
(0.29676 0.00203908 0)
(0.296779 0.0023434 0)
(0.296802 0.00264563 0)
(0.296827 0.00294539 0)
(0.296856 0.00324235 0)
(0.296888 0.00353627 0)
(0.296924 0.003827 0)
(0.296962 0.00411354 0)
(0.298091 -0.0012308 0)
(0.298078 -0.00100335 0)
(0.298068 -0.000774417 0)
(0.298059 -0.000544231 0)
(0.298052 -0.000313033 0)
(0.298047 -8.10675e-05 0)
(0.298045 0.000151415 0)
(0.298044 0.000384163 0)
(0.298045 0.000616922 0)
(0.298049 0.000849435 0)
(0.298054 0.00108145 0)
(0.298061 0.0013127 0)
(0.298071 0.00154294 0)
(0.298082 0.00177191 0)
(0.298095 0.00199936 0)
(0.298111 0.00222504 0)
(0.298128 0.00244869 0)
(0.298147 0.00267015 0)
(0.298168 0.00288934 0)
(0.29819 0.00310564 0)
(0.299064 -0.000854728 0)
(0.299058 -0.000695222 0)
(0.299052 -0.000534739 0)
(0.299048 -0.000373437 0)
(0.299045 -0.00021148 0)
(0.299042 -4.90319e-05 0)
(0.299041 0.000113739 0)
(0.299041 0.000276664 0)
(0.299041 0.000439572 0)
(0.299042 0.000602293 0)
(0.299045 0.000764655 0)
(0.299048 0.000926488 0)
(0.299053 0.00108762 0)
(0.299058 0.00124788 0)
(0.299064 0.00140711 0)
(0.299071 0.00156512 0)
(0.299079 0.00172174 0)
(0.299088 0.00187688 0)
(0.299097 0.00203049 0)
(0.299108 0.00218196 0)
(0.299688 -0.000503536 0)
(0.299686 -0.000409373 0)
(0.299684 -0.000314653 0)
(0.299682 -0.00021947 0)
(0.299681 -0.000123915 0)
(0.299681 -2.80858e-05 0)
(0.29968 6.79219e-05 0)
(0.29968 0.000164009 0)
(0.29968 0.000260078 0)
(0.299681 0.000356029 0)
(0.299681 0.000451761 0)
(0.299682 0.000547177 0)
(0.299684 0.000642177 0)
(0.299685 0.000736665 0)
(0.299687 0.000830542 0)
(0.299689 0.000923708 0)
(0.299691 0.00101606 0)
(0.299694 0.00110753 0)
(0.299696 0.00119817 0)
(0.299699 0.00128781 0)
(0.299991 -0.00016711 0)
(0.299991 -0.000135638 0)
(0.299991 -0.000103979 0)
(0.299991 -7.21618e-05 0)
(0.299991 -4.02156e-05 0)
(0.299991 -8.16957e-06 0)
(0.299991 2.39466e-05 0)
(0.299991 5.61035e-05 0)
(0.29999 8.8272e-05 0)
(0.29999 0.000120424 0)
(0.29999 0.00015253 0)
(0.29999 0.000184566 0)
(0.29999 0.000216505 0)
(0.29999 0.000248325 0)
(0.29999 0.000280004 0)
(0.29999 0.000311519 0)
(0.299989 0.000342856 0)
(0.299989 0.000374078 0)
(0.299989 0.000405302 0)
(0.299988 0.000436016 0)
(0.294138 -0.0993135 0)
(0.292967 -0.103143 0)
(0.291967 -0.107477 0)
(0.291227 -0.112454 0)
(0.290835 -0.118155 0)
(0.290847 -0.124623 0)
(0.291257 -0.131869 0)
(0.291965 -0.139854 0)
(0.292753 -0.148481 0)
(0.293266 -0.157578 0)
(0.293013 -0.1669 0)
(0.291387 -0.176127 0)
(0.287691 -0.184878 0)
(0.281184 -0.192717 0)
(0.271123 -0.199156 0)
(0.256796 -0.203683 0)
(0.237551 -0.205892 0)
(0.21281 -0.205604 0)
(0.18205 -0.202192 0)
(0.144762 -0.192171 0)
(0.286959 -0.0728349 0)
(0.284621 -0.0736538 0)
(0.281887 -0.0745347 0)
(0.278773 -0.0754442 0)
(0.275301 -0.0764469 0)
(0.271516 -0.0776243 0)
(0.267491 -0.0790638 0)
(0.26332 -0.080857 0)
(0.259116 -0.0830896 0)
(0.254985 -0.0858271 0)
(0.251002 -0.0890977 0)
(0.247175 -0.0928743 0)
(0.243412 -0.097058 0)
(0.239497 -0.101464 0)
(0.23509 -0.105814 0)
(0.229752 -0.109738 0)
(0.222994 -0.112772 0)
(0.214334 -0.114339 0)
(0.20335 -0.113686 0)
(0.189913 -0.110028 0)
(0.282908 -0.0774733 0)
(0.281524 -0.0786901 0)
(0.279969 -0.0798431 0)
(0.278202 -0.0809315 0)
(0.276166 -0.081915 0)
(0.273792 -0.0827544 0)
(0.271009 -0.0834177 0)
(0.26775 -0.0838801 0)
(0.26396 -0.0841263 0)
(0.259604 -0.0841526 0)
(0.254676 -0.0839659 0)
(0.249206 -0.0835812 0)
(0.243255 -0.0830142 0)
(0.236921 -0.0822718 0)
(0.23032 -0.0813398 0)
(0.223584 -0.0801718 0)
(0.216835 -0.0786777 0)
(0.210184 -0.0767143 0)
(0.203729 -0.0740886 0)
(0.197582 -0.0705996 0)
(0.276352 -0.0576118 0)
(0.274294 -0.0580066 0)
(0.27218 -0.0584296 0)
(0.270017 -0.0588519 0)
(0.267818 -0.0592689 0)
(0.265591 -0.059669 0)
(0.263342 -0.0600308 0)
(0.261071 -0.0603255 0)
(0.258767 -0.0605169 0)
(0.256411 -0.0605631 0)
(0.253973 -0.0604178 0)
(0.251418 -0.0600332 0)
(0.248705 -0.059363 0)
(0.245796 -0.0583653 0)
(0.242662 -0.0570054 0)
(0.239288 -0.055257 0)
(0.235681 -0.0531028 0)
(0.231873 -0.0505344 0)
(0.227923 -0.0475521 0)
(0.223919 -0.0441663 0)
(0.278347 -0.0530104 0)
(0.276861 -0.0528497 0)
(0.275242 -0.0526031 0)
(0.27349 -0.0522734 0)
(0.271602 -0.0518557 0)
(0.269578 -0.0513463 0)
(0.267421 -0.0507434 0)
(0.265136 -0.0500457 0)
(0.262736 -0.0492516 0)
(0.260237 -0.0483586 0)
(0.257659 -0.0473623 0)
(0.255027 -0.0462553 0)
(0.252366 -0.0450267 0)
(0.249705 -0.0436621 0)
(0.247069 -0.0421434 0)
(0.244485 -0.0404504 0)
(0.241975 -0.0385615 0)
(0.23956 -0.0364565 0)
(0.237258 -0.0341183 0)
(0.235085 -0.0315358 0)
(0.277801 -0.0425293 0)
(0.27649 -0.0422985 0)
(0.275164 -0.0420216 0)
(0.273823 -0.0416894 0)
(0.272466 -0.0412928 0)
(0.271094 -0.0408223 0)
(0.269703 -0.0402676 0)
(0.268293 -0.0396186 0)
(0.26686 -0.0388653 0)
(0.265402 -0.0379981 0)
(0.263917 -0.0370087 0)
(0.262404 -0.03589 0)
(0.260862 -0.0346364 0)
(0.259294 -0.0332442 0)
(0.257707 -0.0317113 0)
(0.256109 -0.0300377 0)
(0.254511 -0.0282245 0)
(0.252929 -0.0262746 0)
(0.251379 -0.0241919 0)
(0.249881 -0.0219814 0)
(0.280418 -0.0365426 0)
(0.279371 -0.0360565 0)
(0.278282 -0.0355164 0)
(0.277153 -0.0349227 0)
(0.275987 -0.034274 0)
(0.274789 -0.0335687 0)
(0.273562 -0.0328054 0)
(0.272313 -0.0319824 0)
(0.271049 -0.0310976 0)
(0.269776 -0.0301487 0)
(0.268503 -0.029133 0)
(0.267238 -0.0280474 0)
(0.265989 -0.0268886 0)
(0.264763 -0.0256533 0)
(0.26357 -0.0243382 0)
(0.262417 -0.0229404 0)
(0.261311 -0.0214576 0)
(0.260259 -0.0198884 0)
(0.259268 -0.0182324 0)
(0.258344 -0.0164904 0)
(0.282372 -0.0303969 0)
(0.281569 -0.0299287 0)
(0.28076 -0.0294167 0)
(0.279945 -0.0288611 0)
(0.279126 -0.0282585 0)
(0.278303 -0.0276057 0)
(0.277477 -0.0268999 0)
(0.276649 -0.0261388 0)
(0.27582 -0.0253202 0)
(0.274991 -0.0244425 0)
(0.274166 -0.0235044 0)
(0.273344 -0.022505 0)
(0.27253 -0.0214441 0)
(0.271727 -0.0203218 0)
(0.270938 -0.0191388 0)
(0.270167 -0.0178962 0)
(0.26942 -0.0165956 0)
(0.268702 -0.015239 0)
(0.268017 -0.0138288 0)
(0.267372 -0.0123679 0)
(0.284952 -0.0256767 0)
(0.284309 -0.0251612 0)
(0.283657 -0.0246113 0)
(0.282997 -0.0240274 0)
(0.28233 -0.0234087 0)
(0.281659 -0.0227546 0)
(0.280986 -0.0220644 0)
(0.280314 -0.0213375 0)
(0.279645 -0.0205735 0)
(0.278983 -0.0197718 0)
(0.278331 -0.0189318 0)
(0.277691 -0.0180531 0)
(0.277067 -0.0171353 0)
(0.276462 -0.0161784 0)
(0.27588 -0.0151822 0)
(0.275322 -0.014147 0)
(0.274792 -0.0130732 0)
(0.274293 -0.0119617 0)
(0.273828 -0.0108135 0)
(0.273398 -0.00963019 0)
(0.287326 -0.0216341 0)
(0.286852 -0.0211585 0)
(0.286376 -0.0206536 0)
(0.285901 -0.0201211 0)
(0.285426 -0.01956 0)
(0.284953 -0.0189693 0)
(0.284483 -0.0183485 0)
(0.284017 -0.0176971 0)
(0.283556 -0.0170148 0)
(0.283101 -0.0163015 0)
(0.282654 -0.0155573 0)
(0.282215 -0.0147823 0)
(0.281788 -0.0139769 0)
(0.281372 -0.0131418 0)
(0.280971 -0.0122777 0)
(0.280586 -0.0113854 0)
(0.280218 -0.0104662 0)
(0.279871 -0.00952112 0)
(0.279545 -0.00855172 0)
(0.279243 -0.00755953 0)
(0.289607 -0.0181981 0)
(0.289237 -0.0177478 0)
(0.288866 -0.0172757 0)
(0.288495 -0.0167827 0)
(0.288125 -0.0162684 0)
(0.287757 -0.0157326 0)
(0.287392 -0.0151751 0)
(0.287031 -0.0145959 0)
(0.286676 -0.0139952 0)
(0.286328 -0.0133729 0)
(0.285988 -0.0127292 0)
(0.285658 -0.0120642 0)
(0.285338 -0.0113784 0)
(0.285031 -0.010672 0)
(0.284737 -0.00994544 0)
(0.284457 -0.00919936 0)
(0.284194 -0.00843441 0)
(0.283948 -0.00765137 0)
(0.28372 -0.00685113 0)
(0.283511 -0.00603473 0)
(0.291708 -0.0153229 0)
(0.29144 -0.0149214 0)
(0.291174 -0.0145016 0)
(0.29091 -0.0140651 0)
(0.290647 -0.0136115 0)
(0.290388 -0.0131407 0)
(0.290132 -0.0126525 0)
(0.289879 -0.0121471 0)
(0.289632 -0.0116245 0)
(0.289389 -0.011085 0)
(0.289153 -0.0105287 0)
(0.288924 -0.00995606 0)
(0.288702 -0.00936741 0)
(0.288489 -0.00876325 0)
(0.288284 -0.00814412 0)
(0.28809 -0.00751065 0)
(0.287907 -0.00686353 0)
(0.287735 -0.0062035 0)
(0.287576 -0.00553141 0)
(0.28743 -0.00484813 0)
(0.293556 -0.0127764 0)
(0.293356 -0.0124201 0)
(0.293157 -0.0120503 0)
(0.292959 -0.0116677 0)
(0.292764 -0.0112722 0)
(0.292571 -0.0108638 0)
(0.292381 -0.0104426 0)
(0.292194 -0.0100086 0)
(0.292011 -0.00956214 0)
(0.291833 -0.00910329 0)
(0.29166 -0.0086323 0)
(0.291493 -0.00814947 0)
(0.291332 -0.00765508 0)
(0.291179 -0.00714951 0)
(0.291032 -0.00663314 0)
(0.290894 -0.00610643 0)
(0.290764 -0.00556986 0)
(0.290644 -0.00502398 0)
(0.290533 -0.00446937 0)
(0.290432 -0.00390667 0)
(0.295198 -0.0105927 0)
(0.29506 -0.0102866 0)
(0.294923 -0.0099694 0)
(0.294788 -0.00964222 0)
(0.294654 -0.00930493 0)
(0.294522 -0.00895748 0)
(0.294392 -0.00859997 0)
(0.294265 -0.00823254 0)
(0.294141 -0.00785534 0)
(0.294021 -0.00746859 0)
(0.293904 -0.0070725 0)
(0.293791 -0.00666734 0)
(0.293682 -0.0062534 0)
(0.293578 -0.00583101 0)
(0.293479 -0.00540053 0)
(0.293386 -0.00496236 0)
(0.293298 -0.00451692 0)
(0.293216 -0.00406467 0)
(0.293141 -0.00360609 0)
(0.293072 -0.00314169 0)
(0.296575 -0.00860585 0)
(0.296478 -0.00834824 0)
(0.296383 -0.00808244 0)
(0.296289 -0.00780909 0)
(0.296196 -0.00752813 0)
(0.296104 -0.00723955 0)
(0.296015 -0.00694347 0)
(0.295927 -0.00664001 0)
(0.295842 -0.00632933 0)
(0.295759 -0.00601159 0)
(0.295679 -0.00568698 0)
(0.295601 -0.0053557 0)
(0.295527 -0.00501799 0)
(0.295457 -0.0046741 0)
(0.29539 -0.0043243 0)
(0.295327 -0.00396887 0)
(0.295268 -0.00360815 0)
(0.295213 -0.00324245 0)
(0.295163 -0.00287214 0)
(0.295118 -0.00249759 0)
(0.297732 -0.00683486 0)
(0.297672 -0.00662591 0)
(0.297612 -0.00641049 0)
(0.297553 -0.00618936 0)
(0.297496 -0.00596247 0)
(0.297439 -0.00572978 0)
(0.297383 -0.0054914 0)
(0.297329 -0.00524744 0)
(0.297276 -0.00499803 0)
(0.297225 -0.00474331 0)
(0.297175 -0.00448344 0)
(0.297127 -0.00421859 0)
(0.297082 -0.00394896 0)
(0.297038 -0.00367473 0)
(0.296996 -0.00339615 0)
(0.296957 -0.00311342 0)
(0.296921 -0.00282682 0)
(0.296887 -0.0025366 0)
(0.296856 -0.00224304 0)
(0.296828 -0.00194642 0)
(0.298638 -0.00517898 0)
(0.298602 -0.00501754 0)
(0.298567 -0.00485148 0)
(0.298532 -0.00468134 0)
(0.298498 -0.00450704 0)
(0.298464 -0.00432859 0)
(0.298431 -0.00414606 0)
(0.298399 -0.00395955 0)
(0.298368 -0.00376916 0)
(0.298337 -0.00357499 0)
(0.298308 -0.00337717 0)
(0.29828 -0.00317581 0)
(0.298253 -0.00297106 0)
(0.298227 -0.00276307 0)
(0.298203 -0.00255199 0)
(0.29818 -0.002338 0)
(0.298159 -0.00212126 0)
(0.29814 -0.00190197 0)
(0.298122 -0.00168033 0)
(0.298105 -0.00145653 0)
(0.299323 -0.00363934 0)
(0.299306 -0.00352484 0)
(0.299289 -0.00340699 0)
(0.299273 -0.00328634 0)
(0.299256 -0.00316284 0)
(0.299241 -0.00303648 0)
(0.299225 -0.00290733 0)
(0.29921 -0.00277544 0)
(0.299195 -0.00264091 0)
(0.299181 -0.0025038 0)
(0.299167 -0.00236421 0)
(0.299154 -0.00222221 0)
(0.299141 -0.00207792 0)
(0.299129 -0.00193143 0)
(0.299117 -0.00178285 0)
(0.299106 -0.00163232 0)
(0.299096 -0.00147994 0)
(0.299087 -0.00132585 0)
(0.299078 -0.00117019 0)
(0.299071 -0.0010131 0)
(0.299772 -0.00215409 0)
(0.299766 -0.00208568 0)
(0.299761 -0.00201547 0)
(0.299756 -0.00194367 0)
(0.299751 -0.00187022 0)
(0.299746 -0.0017951 0)
(0.299741 -0.00171837 0)
(0.299736 -0.00164007 0)
(0.299731 -0.00156023 0)
(0.299726 -0.00147892 0)
(0.299722 -0.00139617 0)
(0.299717 -0.00131204 0)
(0.299713 -0.00122659 0)
(0.299709 -0.00113988 0)
(0.299705 -0.00105198 0)
(0.299702 -0.000962946 0)
(0.299698 -0.000872861 0)
(0.299695 -0.000781797 0)
(0.299692 -0.000689833 0)
(0.29969 -0.000597051 0)
(0.299991 -0.000722365 0)
(0.299991 -0.000698954 0)
(0.299992 -0.000674774 0)
(0.299992 -0.000650273 0)
(0.299992 -0.000625352 0)
(0.299992 -0.000599946 0)
(0.299992 -0.000574053 0)
(0.299992 -0.00054768 0)
(0.299992 -0.000520835 0)
(0.299992 -0.000493526 0)
(0.299992 -0.000465764 0)
(0.299992 -0.000437562 0)
(0.299992 -0.000408936 0)
(0.299992 -0.000379905 0)
(0.299992 -0.000350486 0)
(0.299991 -0.000320702 0)
(0.299991 -0.000290573 0)
(0.299991 -0.000260125 0)
(0.299991 -0.00022938 0)
(0.299991 -0.000198367 0)
(0.0670306 -0.0774571 0)
(0.0495967 -0.062428 0)
(0.0377781 -0.0493511 0)
(0.0292283 -0.0388933 0)
(0.0227576 -0.0304055 0)
(0.0177124 -0.0234305 0)
(0.0136997 -0.0177162 0)
(0.0104659 -0.0130765 0)
(0.00783781 -0.00935224 0)
(0.0056924 -0.00640835 0)
(0.0039395 -0.00413019 0)
(0.00251198 -0.002419 0)
(0.00135996 -0.001188 0)
(0.000447541 -0.00035936 0)
(-0.000248833 0.000138543 0)
(-0.000740763 0.000374712 0)
(-0.00102706 0.000415884 0)
(-0.00109312 0.000322256 0)
(-0.000910831 0.000165508 0)
(-0.000429735 4.11573e-05 0)
(0.107038 -0.061969 0)
(0.0908814 -0.0557866 0)
(0.0771096 -0.0490343 0)
(0.0652922 -0.0425784 0)
(0.0550844 -0.036533 0)