/*--------------------------------*- C++ -*----------------------------------*\
| =========                 |                                                 |
| \\      /  F ield         | OpenFOAM: The Open Source CFD Toolbox           |
|  \\    /   O peration     | Version:  v1806                                 |
|   \\  /    A nd           | Web:      www.OpenFOAM.com                      |
|    \\/     M anipulation  |                                                 |
\*---------------------------------------------------------------------------*/
FoamFile
{
    version     2.0;
    format      ascii;
    class       volVectorField;
    location    "450";
    object      U;
}
// * * * * * * * * * * * * * * * * * * * * * * * * * * * * * * * * * * * * * //

dimensions      [0 1 -1 0 0 0 0];


internalField   nonuniform List<vector> 
4400
(
(0.255656 0.263967 0)
(0.298404 0.179071 0)
(0.312048 0.13084 0)
(0.319501 0.100719 0)
(0.323502 0.0815742 0)
(0.325038 0.0693817 0)
(0.325106 0.0609076 0)
(0.324346 0.0543789 0)
(0.323092 0.0490844 0)
(0.321531 0.0447091 0)
(0.319775 0.0410594 0)
(0.317898 0.0379973 0)
(0.315946 0.0354232 0)
(0.313954 0.033265 0)
(0.311943 0.0314691 0)
(0.309927 0.029995 0)
(0.307916 0.0288128 0)
(0.305922 0.0279017 0)
(0.303999 0.0272267 0)
(0.302419 0.0267086 0)
(0.262035 0.136062 0)
(0.28378 0.0973335 0)
(0.298018 0.0878001 0)
(0.309197 0.0813183 0)
(0.315092 0.0734553 0)
(0.31787 0.0656028 0)
(0.319108 0.0586584 0)
(0.319386 0.052784 0)
(0.318982 0.047863 0)
(0.3181 0.0437362 0)
(0.316894 0.0402635 0)
(0.315471 0.0373326 0)
(0.313904 0.0348581 0)
(0.312245 0.0327767 0)
(0.310529 0.031041 0)
(0.308779 0.029615 0)
(0.30701 0.0284718 0)
(0.30524 0.0275926 0)
(0.303521 0.0269445 0)
(0.302098 0.0264603 0)
(0.23341 0.105051 0)
(0.265173 0.102195 0)
(0.286379 0.0929677 0)
(0.299091 0.0811796 0)
(0.306681 0.0705847 0)
(0.311202 0.0622014 0)
(0.31373 0.0556693 0)
(0.31493 0.0503925 0)
(0.315234 0.0459829 0)
(0.314925 0.0422377 0)
(0.314197 0.0390408 0)
(0.313179 0.0363115 0)
(0.311964 0.0339877 0)
(0.310615 0.0320214 0)
(0.309176 0.0303747 0)
(0.307678 0.0290184 0)
(0.306142 0.02793 0)
(0.304589 0.0270937 0)
(0.30307 0.0264805 0)
(0.301801 0.0260332 0)
(0.250635 0.0704991 0)
(0.270918 0.0701778 0)
(0.284376 0.0672701 0)
(0.29449 0.0640241 0)
(0.301756 0.0601895 0)
(0.306536 0.0558651 0)
(0.309491 0.0514669 0)
(0.311173 0.0473335 0)
(0.31195 0.0436119 0)
(0.312076 0.0403294 0)
(0.311737 0.0374645 0)
(0.311065 0.0349819 0)
(0.310159 0.0328452 0)
(0.309088 0.0310227 0)
(0.307903 0.0294876 0)
(0.306639 0.0282181 0)
(0.305323 0.0271975 0)
(0.303976 0.0264133 0)
(0.302648 0.0258408 0)
(0.30153 0.0254326 0)
(0.250742 0.0536691 0)
(0.266761 0.0600815 0)
(0.280477 0.061395 0)
(0.290725 0.0592224 0)
(0.297893 0.0554719 0)
(0.302785 0.0514073 0)
(0.306017 0.047564 0)
(0.308028 0.0440687 0)
(0.309137 0.0409204 0)
(0.309584 0.0381011 0)
(0.309546 0.0355953 0)
(0.309156 0.0333881 0)
(0.308511 0.0314636 0)
(0.307683 0.0298055 0)
(0.306725 0.0283986 0)
(0.305675 0.0272291 0)
(0.304561 0.0262861 0)
(0.303408 0.025561 0)
(0.302259 0.0250338 0)
(0.301285 0.0246658 0)
(0.262176 0.0407257 0)
(0.273179 0.0461111 0)
(0.282426 0.0482289 0)
(0.289966 0.0483158 0)
(0.295912 0.04718 0)
(0.300348 0.0452687 0)
(0.303477 0.0429254 0)
(0.305555 0.0404277 0)
(0.30682 0.0379633 0)
(0.307465 0.0356381 0)
(0.307641 0.033504 0)
(0.307468 0.0315833 0)
(0.307035 0.0298822 0)
(0.306413 0.0283995 0)
(0.305653 0.0271306 0)
(0.304793 0.0260693 0)
(0.303863 0.0252105 0)
(0.302887 0.0245491 0)
(0.301906 0.0240699 0)
(0.301067 0.0237423 0)
(0.266993 0.032063 0)
(0.274846 0.0381408 0)
(0.282603 0.0414617 0)
(0.289313 0.0425065 0)
(0.294646 0.0420174 0)
(0.298674 0.0406505 0)
(0.301601 0.0388601 0)
(0.303631 0.0369101 0)
(0.304946 0.0349436 0)
(0.305698 0.0330421 0)
(0.306016 0.0312556 0)
(0.306001 0.0296147 0)
(0.305736 0.0281376 0)
(0.305283 0.0268335 0)
(0.304691 0.0257066 0)
(0.303998 0.0247576 0)
(0.303231 0.0239861 0)
(0.302415 0.023391 0)
(0.301588 0.0229611 0)
(0.300874 0.0226728 0)
(0.274058 0.0258103 0)
(0.279703 0.0308078 0)
(0.28522 0.0339631 0)
(0.290167 0.0355319 0)
(0.294368 0.0359394 0)
(0.297753 0.0355302 0)
(0.300338 0.0345738 0)
(0.30221 0.0332895 0)
(0.303481 0.0318445 0)
(0.304263 0.0303556 0)
(0.304658 0.0288997 0)
(0.304751 0.027526 0)
(0.30461 0.0262652 0)
(0.304292 0.0251361 0)
(0.30384 0.02415 0)
(0.30329 0.0233131 0)
(0.302667 0.0226295 0)
(0.301995 0.0221009 0)
(0.301306 0.0217201 0)
(0.300707 0.0214696 0)
(0.278484 0.0209117 0)
(0.282538 0.0255695 0)
(0.286842 0.0287788 0)
(0.2909 0.0306254 0)
(0.294417 0.0313818 0)
(0.297289 0.0313475 0)
(0.299527 0.0307841 0)
(0.301191 0.0298924 0)
(0.302362 0.0288167 0)
(0.30312 0.0276584 0)
(0.303545 0.0264882 0)
(0.303702 0.0253561 0)
(0.303649 0.0242965 0)
(0.303436 0.0233334 0)
(0.303099 0.0224826 0)
(0.302669 0.0217547 0)
(0.302171 0.0211568 0)
(0.301624 0.0206933 0)
(0.301059 0.0203602 0)
(0.300563 0.0201453 0)
(0.28312 0.0173019 0)
(0.286073 0.0211606 0)
(0.289204 0.0240188 0)
(0.292211 0.025875 0)
(0.294914 0.0268838 0)
(0.297214 0.0272258 0)
(0.299072 0.0270687 0)
(0.300499 0.0265609 0)
(0.301534 0.0258267 0)
(0.302231 0.0249649 0)
(0.302648 0.0240495 0)
(0.302836 0.0231344 0)
(0.302843 0.0222583 0)
(0.302707 0.0214487 0)
(0.302461 0.0207248 0)
(0.302131 0.0201001 0)
(0.301739 0.0195839 0)
(0.301302 0.0191826 0)
(0.300845 0.018895 0)
(0.300441 0.0187128 0)
(0.286505 0.0142445 0)
(0.288649 0.017652 0)
(0.291012 0.020268 0)
(0.293356 0.022076 0)
(0.295504 0.0231666 0)
(0.297355 0.0236703 0)
(0.298874 0.0237234 0)
(0.300061 0.0234503 0)
(0.300943 0.0229553 0)
(0.301555 0.0223221 0)
(0.301939 0.0216161 0)
(0.302133 0.0208873 0)
(0.302175 0.0201733 0)
(0.302094 0.0195022 0)
(0.301919 0.0188946 0)
(0.301671 0.0183654 0)
(0.301368 0.0179256 0)
(0.301025 0.0175826 0)
(0.300663 0.0173374 0)
(0.300338 0.017185 0)
(0.289659 0.0118745 0)
(0.291206 0.0147056 0)
(0.292917 0.0169713 0)
(0.294634 0.0186274 0)
(0.29624 0.0197201 0)
(0.297661 0.0203309 0)
(0.298856 0.0205509 0)
(0.299811 0.0204707 0)
(0.300536 0.0201733 0)
(0.301053 0.0197303 0)
(0.301388 0.0192006 0)
(0.301571 0.0186313 0)
(0.301629 0.0180587 0)
(0.301587 0.0175105 0)
(0.301465 0.0170075 0)
(0.301283 0.0165654 0)
(0.301053 0.0161956 0)
(0.30079 0.0159063 0)
(0.300508 0.0157 0)
(0.300254 0.0155743 0)
(0.292111 0.00978362 0)
(0.29322 0.0122098 0)
(0.294467 0.0141862 0)
(0.295743 0.015679 0)
(0.296953 0.0167138 0)
(0.298035 0.0173455 0)
(0.298954 0.0176424 0)
(0.299699 0.0176754 0)
(0.300273 0.0175114 0)
(0.30069 0.0172092 0)
(0.300969 0.0168188 0)
(0.301129 0.0163809 0)
(0.30119 0.0159285 0)
(0.301172 0.0154871 0)
(0.301091 0.0150768 0)
(0.300959 0.0147127 0)
(0.30079 0.0144062 0)
(0.300593 0.0141657 0)
(0.30038 0.0139946 0)
(0.300185 0.0138925 0)
(0.294261 0.00806588 0)
(0.295031 0.0100579 0)
(0.295902 0.0117219 0)
(0.2968 0.0130178 0)
(0.297662 0.0139551 0)
(0.298445 0.0145682 0)
(0.299122 0.0149035 0)
(0.299678 0.0150124 0)
(0.300114 0.0149462 0)
(0.300436 0.0147525 0)
(0.300655 0.0144731 0)
(0.300786 0.0141433 0)
(0.300843 0.013792 0)
(0.300839 0.0134425 0)
(0.300786 0.0131132 0)
(0.300694 0.0128183 0)
(0.300573 0.0125685 0)
(0.30043 0.0123718 0)
(0.300275 0.0122323 0)
(0.30013 0.0121507 0)
(0.295954 0.00650741 0)
(0.296476 0.00815239 0)
(0.297072 0.00953995 0)
(0.297692 0.0106405 0)
(0.298292 0.0114582 0)
(0.298842 0.0120157 0)
(0.299319 0.012346 0)
(0.299716 0.012488 0)
(0.300029 0.0124811 0)
(0.300264 0.012363 0)
(0.300426 0.0121675 0)
(0.300526 0.0119237 0)
(0.300572 0.0116561 0)
(0.300575 0.0113848 0)
(0.300542 0.0111256 0)
(0.30048 0.0108914 0)
(0.300398 0.010692 0)
(0.300299 0.0105344 0)
(0.30019 0.0104229 0)
(0.300087 0.0103592 0)
(0.297359 0.00515203 0)
(0.297689 0.00644823 0)
(0.298068 0.00755907 0)
(0.298463 0.00845565 0)
(0.29885 0.00913712 0)
(0.299207 0.00961722 0)
(0.29952 0.00991842 0)
(0.299783 0.0100682 0)
(0.299992 0.0100961 0)
(0.300151 0.0100307 0)
(0.300262 0.00989858 0)
(0.300332 0.00972322 0)
(0.300366 0.0095246 0)
(0.30037 0.00931931 0)
(0.300351 0.00912083 0)
(0.300312 0.00893991 0)
(0.300259 0.00878495 0)
(0.300195 0.00866217 0)
(0.300123 0.0085756 0)
(0.300055 0.00852725 0)
(0.298424 0.00388723 0)
(0.298618 0.00487985 0)
(0.29884 0.00573491 0)
(0.299073 0.00643171 0)
(0.299302 0.00696896 0)
(0.299514 0.00735542 0)
(0.299701 0.00760645 0)
(0.299858 0.00774159 0)
(0.299984 0.00778217 0)
(0.30008 0.00774941 0)
(0.300148 0.00766321 0)
(0.300191 0.00754137 0)
(0.300213 0.00739934 0)
(0.300217 0.00725003 0)
(0.300206 0.00710407 0)
(0.300184 0.00697004 0)
(0.300152 0.00685468 0)
(0.300115 0.00676303 0)
(0.300072 0.00669864 0)
(0.300031 0.0066635 0)
(0.299222 0.00272693 0)
(0.299315 0.00342014 0)
(0.299423 0.00402308 0)
(0.299537 0.00451879 0)
(0.29965 0.0049053 0)
(0.299754 0.0051877 0)
(0.299847 0.0053757 0)
(0.299925 0.00548209 0)
(0.299989 0.00552113 0)
(0.300037 0.00550733 0)
(0.300071 0.00545449 0)
(0.300093 0.00537514 0)
(0.300105 0.00528025 0)
(0.300107 0.00517908 0)
(0.300102 0.00507928 0)
(0.300091 0.00498707 0)
(0.300076 0.00490739 0)
(0.300057 0.00484395 0)
(0.300036 0.00479953 0)
(0.300015 0.00477584 0)
(0.299733 0.00161036 0)
(0.299763 0.00202578 0)
(0.2998 0.00238643 0)
(0.29984 0.00268372 0)
(0.299878 0.00291685 0)
(0.299915 0.00308861 0)
(0.299947 0.00320446 0)
(0.299974 0.00327174 0)
(0.299996 0.00329873 0)
(0.300012 0.00329391 0)
(0.300024 0.00326541 0)
(0.300032 0.00322066 0)
(0.300036 0.00316619 0)
(0.300037 0.00310757 0)
(0.300035 0.00304939 0)
(0.300031 0.00299541 0)
(0.300026 0.00294863 0)
(0.30002 0.00291134 0)
(0.300012 0.00288529 0)
(0.300005 0.00287167 0)
(0.299988 0.000540936 0)
(0.299989 0.000673346 0)
(0.29999 0.000792038 0)
(0.299992 0.000890696 0)
(0.299994 0.000968405 0)
(0.299996 0.00102593 0)
(0.299997 0.00106499 0)
(0.299999 0.00108794 0)
(0.3 0.00109749 0)
(0.300001 0.00109641 0)
(0.300001 0.0010874 0)
(0.300002 0.0010729 0)
(0.300002 0.0010551 0)
(0.300002 0.00103586 0)
(0.300002 0.00101671 0)
(0.300002 0.000998911 0)
(0.300001 0.000983468 0)
(0.300001 0.000971151 0)
(0.300001 0.000962556 0)
(0.3 0.000958106 0)
(0.101567 -0.162372 0)
(0.0807378 -0.137201 0)
(0.0681424 -0.113835 0)
(0.0593607 -0.0929401 0)
(0.0528215 -0.0739104 0)
(0.047862 -0.0562592 0)
(0.0441494 -0.0396574 0)
(0.0414926 -0.0238333 0)
(0.0397748 -0.00854154 0)
(0.0389261 0.00644361 0)
(0.0389118 0.0213365 0)
(0.0397275 0.0363476 0)
(0.0413991 0.0516902 0)
(0.0439862 0.0675892 0)
(0.0475923 0.0842884 0)
(0.0523891 0.102058 0)
(0.0586812 0.121232 0)
(0.0670892 0.142337 0)
(0.0791352 0.166059 0)
(0.0994364 0.191236 0)
(0.175118 -0.0958828 0)
(0.16112 -0.0864989 0)
(0.148913 -0.0757055 0)
(0.138687 -0.0641597 0)
(0.130345 -0.052134 0)
(0.123726 -0.0397677 0)
(0.118665 -0.0271591 0)
(0.115023 -0.0143803 0)
(0.112692 -0.00148214 0)
(0.111602 0.0114983 0)
(0.111716 0.0245319 0)
(0.113034 0.0375924 0)
(0.115589 0.0506525 0)
(0.119458 0.0636798 0)
(0.124763 0.0766286 0)
(0.131692 0.0894256 0)
(0.140518 0.101971 0)
(0.15165 0.114267 0)
(0.165724 0.126522 0)
(0.183744 0.137135 0)
(0.193058 -0.0597001 0)
(0.188012 -0.054124 0)
(0.183512 -0.0476471 0)
(0.179559 -0.0404217 0)
(0.176165 -0.0325999 0)
(0.173356 -0.0243109 0)
(0.171157 -0.0156628 0)
(0.16959 -0.00674665 0)
(0.168674 0.00235957 0)
(0.168422 0.0115873 0)
(0.168845 0.0208739 0)
(0.169949 0.0301593 0)
(0.171739 0.0393823 0)
(0.174217 0.0484776 0)
(0.177383 0.0573704 0)
(0.181237 0.0659699 0)
(0.18578 0.0741691 0)
(0.191037 0.0818608 0)
(0.197108 0.0889018 0)
(0.20429 0.0947216 0)
(0.221356 -0.0352709 0)
(0.217773 -0.0310986 0)
(0.214458 -0.0265983 0)
(0.211488 -0.0218025 0)
(0.208921 -0.016746 0)
(0.206799 -0.0114659 0)
(0.205151 -0.00600079 0)
(0.203996 -0.000391202 0)
(0.203349 0.00532114 0)
(0.20322 0.0110935 0)
(0.203616 0.0168823 0)
(0.204543 0.0226432 0)
(0.206003 0.0283315 0)
(0.208 0.0339015 0)
(0.210534 0.0393065 0)
(0.213604 0.0444982 0)
(0.217209 0.0494308 0)
(0.221345 0.0540731 0)
(0.226019 0.0583854 0)
(0.231248 0.062108 0)
(0.23464 -0.0242431 0)
(0.232905 -0.0211617 0)
(0.231355 -0.0178552 0)
(0.230005 -0.0143421 0)
(0.228868 -0.0106456 0)
(0.227958 -0.00679255 0)
(0.227286 -0.0028114 0)
(0.226864 0.00126802 0)
(0.226699 0.00541507 0)
(0.226798 0.00959859 0)
(0.227163 0.013787 0)
(0.227795 0.0179482 0)
(0.228692 0.0220498 0)
(0.229848 0.0260586 0)
(0.231256 0.0299407 0)
(0.232906 0.0336614 0)
(0.234784 0.0371855 0)
(0.236879 0.0404797 0)
(0.239183 0.0435093 0)
(0.241693 0.0462054 0)
(0.249962 -0.0160872 0)
(0.248757 -0.01366 0)
(0.247666 -0.0111319 0)
(0.246707 -0.00851282 0)
(0.245896 -0.00581387 0)
(0.245247 -0.00304713 0)
(0.244772 -0.00022576 0)
(0.244478 0.00263617 0)
(0.244373 0.00552378 0)
(0.244462 0.00842161 0)
(0.244748 0.0113138 0)
(0.245231 0.0141842 0)
(0.245909 0.0170168 0)
(0.246779 0.0197958 0)
(0.247836 0.0225056 0)
(0.249073 0.0251312 0)
(0.250479 0.0276592 0)
(0.252044 0.0300811 0)
(0.253755 0.0323879 0)
(0.2556 0.034526 0)
(0.258907 -0.0115995 0)
(0.25822 -0.00972177 0)
(0.25762 -0.007774 0)
(0.257112 -0.00576269 0)
(0.2567 -0.00369549 0)
(0.256388 -0.00158107 0)
(0.25618 0.000571053 0)
(0.256078 0.00275067 0)
(0.256084 0.00494702 0)
(0.2562 0.00714895 0)
(0.256426 0.00934501 0)
(0.256761 0.0115236 0)
(0.257204 0.0136732 0)
(0.257753 0.0157822 0)
(0.258404 0.0178394 0)
(0.259154 0.0198336 0)
(0.259997 0.0217545 0)
(0.26093 0.0235927 0)
(0.261948 0.02534 0)
(0.263049 0.026984 0)
(0.268023 -0.00837047 0)
(0.267551 -0.00685324 0)
(0.267135 -0.0052995 0)
(0.266782 -0.00371365 0)
(0.266496 -0.00210045 0)
(0.26628 -0.000464958 0)
(0.266137 0.00118753 0)
(0.266071 0.00285146 0)
(0.266083 0.00452111 0)
(0.266175 0.00619061 0)
(0.266347 0.00785403 0)
(0.266599 0.00950545 0)
(0.266929 0.011139 0)
(0.267337 0.0127489 0)
(0.267819 0.0143296 0)
(0.268373 0.0158756 0)
(0.268994 0.0173822 0)
(0.269679 0.0188461 0)
(0.270423 0.020264 0)
(0.271221 0.0216179 0)
(0.274088 -0.0062836 0)
(0.27379 -0.00507093 0)
(0.273534 -0.00383286 0)
(0.273324 -0.00257238 0)
(0.27316 -0.00129277 0)
(0.273043 2.39078e-06 0)
(0.272976 0.00130928 0)
(0.272958 0.00262388 0)
(0.272991 0.00394201 0)
(0.273074 0.00525937 0)
(0.273207 0.0065716 0)
(0.27339 0.00787431 0)
(0.273623 0.00916314 0)
(0.273904 0.0104338 0)
(0.274233 0.0116822 0)
(0.274607 0.0129041 0)
(0.275026 0.0140959 0)
(0.275488 0.0152543 0)
(0.275992 0.0163767 0)
(0.276535 0.0174585 0)
(0.279879 -0.00479092 0)
(0.279674 -0.00379323 0)
(0.279498 -0.00278052 0)
(0.279354 -0.00175493 0)
(0.279242 -0.000718709 0)
(0.279164 0.000325822 0)
(0.279121 0.00137625 0)
(0.279113 0.00243011 0)
(0.27914 0.00348487 0)
(0.279204 0.00453801 0)
(0.279305 0.00558696 0)
(0.279441 0.00662919 0)
(0.279613 0.00766218 0)
(0.27982 0.00868346 0)
(0.280061 0.00969062 0)
(0.280335 0.0106813 0)
(0.28064 0.0116533 0)
(0.280975 0.0126051 0)
(0.281339 0.0135352 0)
(0.281729 0.0144361 0)
(0.284069 -0.00371074 0)
(0.283932 -0.0028975 0)
(0.283817 -0.00207378 0)
(0.283725 -0.00124108 0)
(0.283656 -0.000401 0)
(0.28361 0.000444786 0)
(0.283589 0.00129453 0)
(0.283593 0.00214641 0)
(0.283621 0.00299859 0)
(0.283674 0.00384918 0)
(0.283751 0.00469628 0)
(0.283853 0.00553799 0)
(0.283979 0.00637244 0)
(0.284128 0.00719777 0)
(0.284301 0.00801219 0)
(0.284497 0.00881394 0)
(0.284716 0.00960134 0)
(0.284955 0.010373 0)
(0.285216 0.0111279 0)
(0.285498 0.0118635 0)
(0.287898 -0.00291845 0)
(0.287805 -0.00224482 0)
(0.287727 -0.00156439 0)
(0.287664 -0.000878274 0)
(0.287618 -0.000187604 0)
(0.287589 0.000506441 0)
(0.287576 0.00120266 0)
(0.287581 0.00189983 0)
(0.287603 0.00259672 0)
(0.287643 0.00329209 0)
(0.287699 0.00398469 0)
(0.287774 0.00467327 0)
(0.287865 0.00535663 0)
(0.287973 0.00603355 0)
(0.288097 0.00670283 0)
(0.288238 0.00736331 0)
(0.288394 0.00801386 0)
(0.288564 0.00865372 0)
(0.28875 0.00928217 0)
(0.288949 0.00989558 0)
(0.290805 -0.0022992 0)
(0.290741 -0.00174803 0)
(0.290689 -0.00119208 0)
(0.290648 -0.000632158 0)
(0.290619 -6.90996e-05 0)
(0.290602 0.000496235 0)
(0.290596 0.00106296 0)
(0.290603 0.00163017 0)
(0.290621 0.00219695 0)
(0.290652 0.00276237 0)
(0.290694 0.00332551 0)
(0.290749 0.00388543 0)
(0.290816 0.00444123 0)
(0.290894 0.004992 0)
(0.290984 0.00553685 0)
(0.291085 0.00607491 0)
(0.291197 0.00660535 0)
(0.29132 0.00712748 0)
(0.291453 0.00764081 0)
(0.291597 0.00814393 0)
(0.293359 -0.00182216 0)
(0.293318 -0.00136995 0)
(0.293283 -0.000914464 0)
(0.293256 -0.000456297 0)
(0.293238 3.93605e-06 0)
(0.293227 0.000465606 0)
(0.293224 0.000928073 0)
(0.293229 0.00139069 0)
(0.293242 0.00185281 0)
(0.293264 0.00231377 0)
(0.293294 0.00277293 0)
(0.293332 0.00322962 0)
(0.293378 0.00368321 0)
(0.293432 0.00413306 0)
(0.293494 0.00457853 0)
(0.293563 0.00501899 0)
(0.29364 0.00545386 0)
(0.293724 0.0058827 0)
(0.293814 0.00630516 0)
(0.293912 0.00671941 0)
(0.295324 -0.00142655 0)
(0.295297 -0.00106339 0)
(0.295275 -0.000697925 0)
(0.295258 -0.000330589 0)
(0.295246 3.8161e-05 0)
(0.29524 0.000407863 0)
(0.295239 0.000778046 0)
(0.295243 0.00114823 0)
(0.295253 0.00151793 0)
(0.295269 0.00188667 0)
(0.29529 0.00225396 0)
(0.295316 0.00261931 0)
(0.295348 0.00298225 0)
(0.295385 0.0033423 0)
(0.295428 0.003699 0)
(0.295475 0.00405189 0)
(0.295528 0.00440051 0)
(0.295585 0.00474452 0)
(0.295647 0.0050837 0)
(0.295714 0.00541717 0)
(0.296968 -0.00110169 0)
(0.296951 -0.000815051 0)
(0.296938 -0.000526795 0)
(0.296927 -0.000237251 0)
(0.29692 5.32494e-05 0)
(0.296917 0.000344367 0)
(0.296916 0.00063576 0)
(0.296919 0.000927082 0)
(0.296926 0.00121799 0)
(0.296935 0.00150812 0)
(0.296949 0.00179714 0)
(0.296965 0.0020847 0)
(0.296985 0.00237045 0)
(0.297008 0.00265405 0)
(0.297034 0.00293517 0)
(0.297063 0.00321346 0)
(0.297096 0.0034886 0)
(0.297131 0.00376038 0)
(0.29717 0.00402865 0)
(0.297211 0.00429238 0)
(0.298189 -0.000816832 0)
(0.29818 -0.000601127 0)
(0.298172 -0.000384318 0)
(0.298166 -0.000166637 0)
(0.298162 5.16807e-05 0)
(0.29816 0.000270394 0)
(0.29816 0.000489261 0)
(0.298162 0.000708035 0)
(0.298166 0.000926469 0)
(0.298172 0.00114432 0)
(0.29818 0.00136133 0)
(0.29819 0.00157726 0)
(0.298202 0.00179187 0)
(0.298216 0.00200491 0)
(0.298231 0.00221615 0)
(0.298249 0.00242534 0)
(0.298268 0.00263224 0)
(0.298289 0.00283672 0)
(0.298311 0.00303869 0)
(0.298336 0.00323753 0)
(0.299113 -0.000565664 0)
(0.299109 -0.000414495 0)
(0.299105 -0.000262604 0)
(0.299102 -0.000110146 0)
(0.2991 4.27176e-05 0)
(0.299099 0.000195827 0)
(0.2991 0.000349018 0)
(0.2991 0.000502127 0)
(0.299102 0.000654989 0)
(0.299105 0.000807439 0)
(0.299109 0.00095931 0)
(0.299113 0.00111044 0)
(0.299119 0.00126066 0)
(0.299125 0.00140982 0)
(0.299133 0.00155775 0)
(0.299141 0.00170429 0)
(0.299149 0.00184927 0)
(0.299159 0.0019926 0)
(0.29917 0.00213426 0)
(0.299181 0.00227358 0)
(0.299703 -0.00033191 0)
(0.299702 -0.000242739 0)
(0.299701 -0.000153164 0)
(0.2997 -6.32755e-05 0)
(0.299699 2.6835e-05 0)
(0.299699 0.000117074 0)
(0.299699 0.000207347 0)
(0.299699 0.000297559 0)
(0.2997 0.000387615 0)
(0.299701 0.000477419 0)
(0.299702 0.000566876 0)
(0.299703 0.000655891 0)
(0.299705 0.00074437 0)
(0.299707 0.000832221 0)
(0.299709 0.000919352 0)
(0.299711 0.00100567 0)
(0.299714 0.00109107 0)
(0.299717 0.0011755 0)
(0.29972 0.00125901 0)
(0.299722 0.0013414 0)
(0.299992 -0.000110328 0)
(0.299992 -8.0516e-05 0)
(0.299992 -5.05661e-05 0)
(0.299992 -2.05084e-05 0)
(0.299992 9.63013e-06 0)
(0.299992 3.98208e-05 0)
(0.299992 7.00347e-05 0)
(0.299992 0.000100243 0)
(0.299991 0.000130418 0)
(0.299991 0.000160531 0)
(0.299991 0.000190556 0)
(0.299991 0.000220467 0)
(0.299991 0.000250239 0)
(0.299991 0.000279851 0)
(0.299991 0.000309281 0)
(0.299991 0.000338508 0)
(0.299991 0.000367518 0)
(0.29999 0.000396371 0)
(0.29999 0.000425175 0)
(0.29999 0.000453424 0)
(0.292769 -0.09446 0)
(0.291539 -0.0981241 0)
(0.290441 -0.102266 0)
(0.289565 -0.107022 0)
(0.289001 -0.112475 0)
(0.288814 -0.118674 0)
(0.289015 -0.125639 0)
(0.28953 -0.133346 0)
(0.290171 -0.141713 0)
(0.290613 -0.150587 0)
(0.290394 -0.15974 0)
(0.28892 -0.168865 0)
(0.285498 -0.177589 0)
(0.279373 -0.185476 0)
(0.269774 -0.19203 0)
(0.255949 -0.19672 0)
(0.237205 -0.199113 0)
(0.212919 -0.198992 0)
(0.182526 -0.195707 0)
(0.14549 -0.185782 0)
(0.285905 -0.0688535 0)
(0.283624 -0.0696294 0)
(0.28096 -0.0704589 0)
(0.277919 -0.0713039 0)
(0.274514 -0.0722221 0)
(0.27078 -0.0732883 0)
(0.266777 -0.0745844 0)
(0.262591 -0.0761984 0)
(0.258326 -0.0782153 0)
(0.254091 -0.0807037 0)
(0.24997 -0.0836987 0)
(0.245991 -0.0871839 0)
(0.24209 -0.0910735 0)
(0.238084 -0.095197 0)
(0.233663 -0.0992894 0)
(0.228407 -0.10299 0)
(0.221835 -0.105843 0)
(0.213455 -0.107271 0)
(0.202819 -0.106519 0)
(0.189765 -0.102791 0)
(0.282026 -0.0729352 0)
(0.280639 -0.0740774 0)
(0.279097 -0.0751596 0)
(0.277362 -0.0761823 0)
(0.27538 -0.0771066 0)
(0.273088 -0.077893 0)
(0.270415 -0.0785079 0)
(0.267292 -0.0789235 0)
(0.263661 -0.0791205 0)
(0.25948 -0.07909 0)
(0.254734 -0.0788342 0)
(0.24944 -0.0783633 0)
(0.243653 -0.0776907 0)
(0.237459 -0.0768232 0)
(0.230974 -0.0757497 0)
(0.224328 -0.0744293 0)
(0.217653 -0.0727795 0)
(0.211069 -0.0706649 0)
(0.20469 -0.0678998 0)
(0.198639 -0.0642873 0)
(0.276033 -0.0537653 0)
(0.274008 -0.0540867 0)
(0.27192 -0.0544308 0)
(0.269778 -0.0547695 0)
(0.267593 -0.0550992 0)
(0.265375 -0.0554098 0)
(0.263135 -0.0556822 0)
(0.260872 -0.0558897 0)
(0.258584 -0.0559985 0)
(0.256253 -0.0559685 0)
(0.253857 -0.0557547 0)
(0.251364 -0.0553097 0)
(0.248736 -0.0545865 0)
(0.245936 -0.053542 0)
(0.242936 -0.0521392 0)
(0.239718 -0.0503498 0)
(0.236285 -0.0481545 0)
(0.232663 -0.0455434 0)
(0.228908 -0.0425168 0)
(0.225104 -0.0390857 0)
(0.278157 -0.0493197 0)
(0.276721 -0.0491281 0)
(0.275161 -0.0488501 0)
(0.273477 -0.0484887 0)
(0.271665 -0.0480381 0)
(0.269724 -0.0474939 0)
(0.267654 -0.0468534 0)
(0.265462 -0.0461148 0)
(0.263156 -0.0452763 0)
(0.260751 -0.0443356 0)
(0.258266 -0.0432886 0)
(0.255725 -0.042129 0)
(0.253154 -0.0408473 0)
(0.25058 -0.0394304 0)
(0.248032 -0.0378622 0)
(0.245537 -0.0361236 0)
(0.243119 -0.0341945 0)
(0.240801 -0.0320555 0)
(0.238603 -0.0296901 0)
(0.236544 -0.0270872 0)
(0.277813 -0.0392153 0)
(0.276534 -0.0389502 0)
(0.27524 -0.0386397 0)
(0.273933 -0.0382751 0)
(0.272612 -0.0378479 0)
(0.271279 -0.0373489 0)
(0.269931 -0.0367684 0)
(0.268569 -0.0360966 0)
(0.267191 -0.0353236 0)
(0.265794 -0.03444 0)
(0.264378 -0.0334373 0)
(0.26294 -0.0323082 0)
(0.261482 -0.0310468 0)
(0.260006 -0.0296493 0)
(0.258518 -0.0281134 0)
(0.257024 -0.0264388 0)
(0.255536 -0.024627 0)
(0.254068 -0.0226809 0)
(0.252638 -0.020605 0)
(0.251262 -0.0184048 0)
(0.280555 -0.033572 0)
(0.279553 -0.0330708 0)
(0.278512 -0.0325153 0)
(0.277434 -0.0319064 0)
(0.276322 -0.0312426 0)
(0.275179 -0.0305224 0)
(0.27401 -0.0297442 0)
(0.272821 -0.0289067 0)
(0.271617 -0.0280081 0)
(0.270406 -0.0270463 0)
(0.269196 -0.026019 0)
(0.267994 -0.0249236 0)
(0.26681 -0.0237573 0)
(0.265651 -0.0225172 0)
(0.264526 -0.0212004 0)
(0.263443 -0.0198043 0)
(0.262409 -0.0183271 0)
(0.261432 -0.0167676 0)
(0.260518 -0.0151255 0)
(0.259675 -0.013402 0)
(0.28255 -0.0277346 0)
(0.281778 -0.0272567 0)
(0.281002 -0.0267366 0)
(0.280221 -0.0261742 0)
(0.279438 -0.0255665 0)
(0.278654 -0.0249103 0)
(0.277869 -0.0242029 0)
(0.277085 -0.0234422 0)
(0.276303 -0.0226261 0)
(0.275525 -0.0217528 0)
(0.274752 -0.0208212 0)
(0.273986 -0.0198304 0)
(0.273231 -0.0187802 0)
(0.272489 -0.0176709 0)
(0.271763 -0.0165031 0)
(0.271059 -0.0152781 0)
(0.27038 -0.0139976 0)
(0.269732 -0.0126638 0)
(0.269119 -0.0112793 0)
(0.268548 -0.00984708 0)
(0.285182 -0.0233346 0)
(0.284572 -0.0228161 0)
(0.283954 -0.0222638 0)
(0.283329 -0.0216784 0)
(0.282698 -0.0210591 0)
(0.282065 -0.0204053 0)
(0.28143 -0.0197166 0)
(0.280797 -0.0189924 0)
(0.280169 -0.0182325 0)
(0.279549 -0.0174363 0)
(0.278939 -0.0166036 0)
(0.278342 -0.015734 0)
(0.277762 -0.0148273 0)
(0.277202 -0.0138837 0)
(0.276666 -0.0129031 0)
(0.276155 -0.0118859 0)
(0.275673 -0.0108328 0)
(0.275223 -0.00974456 0)
(0.274807 -0.00862252 0)
(0.274428 -0.00746823 0)
(0.287544 -0.0195662 0)
(0.287093 -0.0190923 0)
(0.286642 -0.0185903 0)
(0.286193 -0.0180619 0)
(0.285746 -0.0175061 0)
(0.285301 -0.0169221 0)
(0.284861 -0.0163092 0)
(0.284426 -0.0156672 0)
(0.283997 -0.0149958 0)
(0.283576 -0.0142949 0)
(0.283164 -0.0135646 0)
(0.282761 -0.0128052 0)
(0.282371 -0.0120171 0)
(0.281994 -0.0112009 0)
(0.281632 -0.0103575 0)
(0.281287 -0.00948779 0)
(0.28096 -0.00859294 0)
(0.280654 -0.00767428 0)
(0.280371 -0.00673328 0)
(0.280112 -0.00577157 0)
(0.289823 -0.0164001 0)
(0.289474 -0.0159538 0)
(0.289125 -0.0154864 0)
(0.288777 -0.0149991 0)
(0.28843 -0.0144913 0)
(0.288086 -0.013963 0)
(0.287746 -0.0134141 0)
(0.287411 -0.0128447 0)
(0.287081 -0.0122549 0)
(0.286759 -0.0116448 0)
(0.286446 -0.0110146 0)
(0.286143 -0.0103646 0)
(0.285851 -0.00969518 0)
(0.285572 -0.00900668 0)
(0.285306 -0.00829966 0)
(0.285056 -0.00757473 0)
(0.284821 -0.00683263 0)
(0.284605 -0.00607417 0)
(0.284406 -0.00530031 0)
(0.284228 -0.00451211 0)
(0.291891 -0.0137642 0)
(0.29164 -0.0133687 0)
(0.29139 -0.0129559 0)
(0.291143 -0.0125272 0)
(0.290898 -0.0120825 0)
(0.290657 -0.0116215 0)
(0.29042 -0.0111441 0)
(0.290187 -0.0106505 0)
(0.289959 -0.0101408 0)
(0.289737 -0.00961517 0)
(0.289522 -0.009074 0)
(0.289314 -0.00851759 0)
(0.289115 -0.00794636 0)
(0.288924 -0.00736083 0)
(0.288742 -0.00676157 0)
(0.288571 -0.00614921 0)
(0.288411 -0.00552449 0)
(0.288264 -0.00488817 0)
(0.288128 -0.00424111 0)
(0.288006 -0.00358422 0)
(0.293715 -0.0114448 0)
(0.293528 -0.0110949 0)
(0.293342 -0.0107322 0)
(0.293158 -0.0103575 0)
(0.292976 -0.00997065 0)
(0.292797 -0.00957164 0)
(0.292621 -0.0091606 0)
(0.292449 -0.00873771 0)
(0.292281 -0.00830314 0)
(0.292119 -0.00785712 0)
(0.291961 -0.00739992 0)
(0.29181 -0.00693183 0)
(0.291665 -0.00645319 0)
(0.291527 -0.00596438 0)
(0.291397 -0.00546583 0)
(0.291275 -0.004958 0)
(0.291162 -0.0044414 0)
(0.291058 -0.00391661 0)
(0.290963 -0.0033842 0)
(0.290879 -0.00284484 0)
(0.295321 -0.00946877 0)
(0.295192 -0.00916944 0)
(0.295065 -0.0088597 0)
(0.294939 -0.00854061 0)
(0.294815 -0.00821208 0)
(0.294694 -0.00787407 0)
(0.294574 -0.00752669 0)
(0.294458 -0.00717011 0)
(0.294345 -0.0068045 0)
(0.294236 -0.00643008 0)
(0.29413 -0.00604709 0)
(0.294029 -0.0056558 0)
(0.293932 -0.00525653 0)
(0.29384 -0.0048496 0)
(0.293753 -0.00443541 0)
(0.293672 -0.00401435 0)
(0.293597 -0.00358685 0)
(0.293527 -0.00315337 0)
(0.293465 -0.00271442 0)
(0.293409 -0.0022705 0)
(0.296668 -0.00767765 0)
(0.296578 -0.00742626 0)
(0.29649 -0.0071672 0)
(0.296403 -0.0069011 0)
(0.296317 -0.00662791 0)
(0.296233 -0.00634765 0)
(0.29615 -0.00606044 0)
(0.29607 -0.00576643 0)
(0.295992 -0.00546579 0)
(0.295917 -0.0051587 0)
(0.295845 -0.00484536 0)
(0.295775 -0.00452599 0)
(0.295709 -0.00420082 0)
(0.295647 -0.00387013 0)
(0.295588 -0.00353418 0)
(0.295533 -0.00319329 0)
(0.295482 -0.00284777 0)
(0.295436 -0.00249797 0)
(0.295394 -0.00214424 0)
(0.295357 -0.00178697 0)
(0.297795 -0.00609013 0)
(0.297739 -0.00588677 0)
(0.297684 -0.00567737 0)
(0.29763 -0.00546269 0)
(0.297577 -0.00524265 0)
(0.297525 -0.00501727 0)
(0.297474 -0.00478664 0)
(0.297425 -0.00455089 0)
(0.297377 -0.00431015 0)
(0.297331 -0.00406458 0)
(0.297286 -0.00381434 0)
(0.297244 -0.00355961 0)
(0.297203 -0.00330058 0)
(0.297165 -0.00303746 0)
(0.297129 -0.00277048 0)
(0.297095 -0.00249987 0)
(0.297064 -0.00222588 0)
(0.297036 -0.00194879 0)
(0.29701 -0.00166887 0)
(0.296987 -0.0013864 0)
(0.298678 -0.004609 0)
(0.298644 -0.00445206 0)
(0.298612 -0.00429084 0)
(0.298579 -0.00412583 0)
(0.298548 -0.00395699 0)
(0.298517 -0.00378432 0)
(0.298487 -0.00360791 0)
(0.298458 -0.00342787 0)
(0.298429 -0.00324429 0)
(0.298402 -0.0030573 0)
(0.298376 -0.00286701 0)
(0.29835 -0.00267356 0)
(0.298327 -0.00247709 0)
(0.298304 -0.00227775 0)
(0.298283 -0.00207571 0)
(0.298263 -0.00187113 0)
(0.298245 -0.0016642 0)
(0.298228 -0.0014551 0)
(0.298214 -0.00124403 0)
(0.2982 -0.00103121 0)
(0.299343 -0.00323703 0)
(0.299327 -0.00312588 0)
(0.299311 -0.00301163 0)
(0.299296 -0.0028948 0)
(0.299282 -0.00277535 0)
(0.299267 -0.00265327 0)
(0.299253 -0.00252863 0)
(0.299239 -0.0024015 0)
(0.299226 -0.00227197 0)
(0.299213 -0.00214011 0)
(0.299201 -0.00200601 0)
(0.299189 -0.00186977 0)
(0.299178 -0.00173148 0)
(0.299167 -0.00159125 0)
(0.299157 -0.0014492 0)
(0.299148 -0.00130544 0)
(0.299139 -0.0011601 0)
(0.299132 -0.00101332 0)
(0.299125 -0.000865224 0)
(0.299118 -0.000715957 0)
(0.299778 -0.00191461 0)
(0.299774 -0.00184823 0)
(0.299769 -0.00178019 0)
(0.299764 -0.00171069 0)
(0.29976 -0.00163967 0)
(0.299755 -0.00156712 0)
(0.29975 -0.0014931 0)
(0.299746 -0.00141765 0)
(0.299741 -0.00134081 0)
(0.299737 -0.00126263 0)
(0.299733 -0.00118318 0)
(0.299729 -0.00110249 0)
(0.299725 -0.00102063 0)
(0.299722 -0.000937672 0)
(0.299718 -0.000853669 0)
(0.299715 -0.000768695 0)
(0.299712 -0.000682823 0)
(0.29971 -0.000596129 0)
(0.299707 -0.000508691 0)
(0.299705 -0.00042059 0)
(0.299991 -0.000642618 0)
(0.299992 -0.000619912 0)
(0.299992 -0.000596496 0)
(0.299992 -0.000572793 0)
(0.299992 -0.00054871 0)
(0.299992 -0.000524187 0)
(0.299992 -0.000499221 0)
(0.299992 -0.000473821 0)
(0.299992 -0.000447996 0)
(0.299992 -0.000421753 0)
(0.299992 -0.000395106 0)
(0.299992 -0.000368067 0)
(0.299992 -0.000340654 0)
(0.299992 -0.000312885 0)
(0.299992 -0.000284778 0)
(0.299992 -0.000256355 0)
(0.299992 -0.000227639 0)
(0.299992 -0.000198652 0)
(0.299992 -0.00016942 0)
(0.299992 -0.000139971 0)
(0.0753747 -0.0857556 0)
(0.0550398 -0.0693644 0)
(0.041674 -0.0550676 0)
(0.0321941 -0.0436626 0)
(0.0251047 -0.0343913 0)
(0.0196133 -0.0267429 0)
(0.0152587 -0.0204464 0)
(0.0117508 -0.0153037 0)
(0.00889582 -0.0111459 0)
(0.00655848 -0.00782984 0)
(0.00464084 -0.00523448 0)
(0.00307064 -0.00325576 0)
(0.00179448 -0.00180228 0)
(0.00077408 -0.000792095 0)
(-1.56779e-05 -0.000149779 0)
(-0.000587201 0.00019625 0)
(-0.000939519 0.000316709 0)
(-0.00105678 0.000278026 0)
(-0.000907816 0.000154042 0)
(-0.00043816 4.07412e-05 0)
(0.11509 -0.0668973 0)
(0.0979992 -0.0605868 0)
(0.0834131 -0.0534632 0)
(0.0708815 -0.0466157 0)
(0.0600414 -0.040169 0)