x,y,z,p
0,0,0,2.1884e-05
0,0.1,0,4.44851e-05
0,0.2,0,6.70862e-05
0,0.3,0,9.40587e-05
0,0.4,0,0.000125403
0,0.5,0,0.000156747
0,0.6,0,0.000187817
0,0.7,0,0.000218887
0,0.8,0,0.00024977
0,0.9,0,0.000280467
0,1,0,0.000311163
0,1.1,0,0.000341382
0,1.2,0,0.000371599
0,1.3,0,0.000401517
0,1.4,0,0.000431135
0,1.5,0,0.000460753
0,1.6,0,0.000489655
0,1.7,0,0.000518558
0,1.8,0,0.000547047
0,1.9,0,0.000575124
0,2,0,0.000603201
0,2.1,0,0.000630345
0,2.2,0,0.000657489
0,2.3,0,0.000684114
0,2.4,0,0.000710221
0,2.5,0,0.000736329
0,2.6,0,0.0007613
0,2.7,0,0.000786272
0,2.8,0,0.000810628
0,2.9,0,0.00083437
0,3,0,0.000858111
0,3.1,0,0.000880533
0,3.2,0,0.000902954
0,3.3,0,0.000924674
0,3.4,0,0.000945692
0,3.5,0,0.00096671
0,3.6,0,0.000986246
0,3.7,0,0.00100578
0,3.8,0,0.00102454
0,3.9,0,0.00104252
0,4,0,0.0010605
0,4.1,0,0.00107686
0,4.2,0,0.00109322
0,4.3,0,0.00110873
0,4.4,0,0.00112341
0,4.5,0,0.00113809
0,4.6,0,0.00115103
0,4.7,0,0.00116397
0,4.8,0,0.00117503
0,4.9,0,0.00118419
0,5,0,0.00119336
0,5.1,0,0.00120828
0,5.2,0,0.00121742
0,5.3,0,0.0012258
0,5.4,0,0.00123345
0,5.5,0,0.00124032
0,5.6,0,0.00124644
0,5.7,0,0.00125179
0,5.8,0,0.00125637
0,5.9,0,0.00126018
0,6,0,0.00126321
0,6.1,0,0.00126547
0,6.2,0,0.00126696
0,6.3,0,0.00126767
0,6.4,0,0.0012676
0,6.5,0,0.00126676
0,6.6,0,0.00126513
0,6.7,0,0.00126274
0,6.8,0,0.00125956
0,6.9,0,0.00125561
0,7,0,0.00124794
0,7.1,0,0.00124277
0,7.2,0,0.0012376
0,7.3,0,0.00123196
0,7.4,0,0.00122364
0,7.5,0,0.00121533
0,7.6,0,0.00120638
0,7.7,0,0.00119598
0,7.8,0,0.00118557
0,7.9,0,0.00117425
0,8,0,0.0011618
0,8.1,0,0.00114936
0,8.2,0,0.00113572
0,8.3,0,0.0011213
0,8.4,0,0.00110687
0,8.5,0,0.001091
0,8.6,0,0.00107466
0,8.7,0,0.00105832
0,8.8,0,0.00104033
0,8.9,0,0.00102216
0,9,0,0.0010039
0,9.1,0,0.000983975
0,9.2,0,0.000964053
0,9.3,0,0.000943802
0,9.4,0,0.000922232
0,9.5,0,0.000900662
0,9.6,0,0.000878552
0,9.7,0,0.000855439
0,9.8,0,0.000832325
0,9.9,0,0.000808496
0,10,0,0.000783951
0,10.1,0,0.000759407
0,10.2,0,0.00073401
0,10.3,0,0.000708155
0,10.4,0,0.0006823
0,10.5,0,0.000655499
0,10.6,0,0.000628461
0,10.7,0,0.000601423
0,10.8,0,0.000573388
0,10.9,0,0.0005453
0,11,0,0.000517121
0,11.1,0,0.000488122
0,11.2,0,0.000459123
0,11.3,0,0.000429932
0,11.4,0,0.000400165
0,11.5,0,0.000370397
0,11.6,0,0.000340385
0,11.7,0,0.000310004
0,11.8,0,0.000279622
0,11.9,0,0.000248982
0,12,0,0.00021813
0,12.1,0,0.000187277
0,12.2,0,0.000156179
0,12.3,0,0.000124976
0,12.4,0,9.37724e-05
0,12.5,0,6.99122e-05
0,12.6,0,4.73478e-05
0,12.7,0,2.47834e-05
0.1,0,0,1.93094e-05
0.1,0.1,0,4.18818e-05
0.1,0.2,0,6.44829e-05
0.1,0.3,0,9.40905e-05
0.1,0.4,0,0.000125434
0.1,0.5,0,0.000157212
0.1,0.6,0,0.000187865
0.1,0.7,0,0.000218936
0.1,0.8,0,0.000249832
0.1,0.9,0,0.000280528
0.1,1,0,0.000312015
0.1,1.1,0,0.000341461
0.1,1.2,0,0.000371679
0.1,1.3,0,0.000401614
0.1,1.4,0,0.000431232
0.1,1.5,0,0.000461985
0.1,1.6,0,0.000489769
0.1,1.7,0,0.000518671
0.1,1.8,0,0.000547177
0.1,1.9,0,0.000575254
0.1,2,0,0.000604795
0.1,2.1,0,0.00063049
0.1,2.2,0,0.000657634
0.1,2.3,0,0.000684274
0.1,2.4,0,0.000710381
0.1,2.5,0,0.000738257
0.1,2.6,0,0.000761474
0.1,2.7,0,0.000786446
0.1,2.8,0,0.000810816
0.1,2.9,0,0.000834557
0.1,3,0,0.000860342
0.1,3.1,0,0.000880733
0.1,3.2,0,0.000903155
0.1,3.3,0,0.000924886
0.1,3.4,0,0.000945904
0.1,3.5,0,0.000969205
0.1,3.6,0,0.000986469
0.1,3.7,0,0.001006
0.1,3.8,0,0.00102477
0.1,3.9,0,0.00104275
0.1,4,0,0.00106322
0.1,4.1,0,0.0010771
0.1,4.2,0,0.00109346
0.1,4.3,0,0.00110898
0.1,4.4,0,0.00112366
0.1,4.5,0,0.00114098
0.1,4.6,0,0.00115129
0.1,4.7,0,0.00116423
0.1,4.8,0,0.00117588
0.1,4.9,0,0.00118505
0.1,5,0,0.00119636
0.1,5.1,0,0.00121132
0.1,5.2,0,0.00122047
0.1,5.3,0,0.00122887
0.1,5.4,0,0.00123653
0.1,5.5,0,0.00124342
0.1,5.6,0,0.00124955
0.1,5.7,0,0.00125491
0.1,5.8,0,0.0012595
0.1,5.9,0,0.00126332
0.1,6,0,0.00126636
0.1,6.1,0,0.00126862
0.1,6.2,0,0.00127011
0.1,6.3,0,0.00127083
0.1,6.4,0,0.00127075
0.1,6.5,0,0.00126991
0.1,6.6,0,0.00126829
0.1,6.7,0,0.00126589
0.1,6.8,0,0.00126271
0.1,6.9,0,0.00125876
0.1,7,0,0.00125107
0.1,7.1,0,0.00124347
0.1,7.2,0,0.0012383
0.1,7.3,0,0.00123383
0.1,7.4,0,0.001224
0.1,7.5,0,0.00121568
0.1,7.6,0,0.00120702
0.1,7.7,0,0.00119632
0.1,7.8,0,0.00118592
0.1,7.9,0,0.00117459
0.1,8,0,0.00116214
0.1,8.1,0,0.0011497
0.1,8.2,0,0.00113605
0.1,8.3,0,0.00112162
0.1,8.4,0,0.00110783
0.1,8.5,0,0.00109132
0.1,8.6,0,0.00107498
0.1,8.7,0,0.00106032
0.1,8.8,0,0.00104063
0.1,8.9,0,0.00102246
0.1,9,0,0.00100613
0.1,9.1,0,0.000984259
0.1,9.2,0,0.000964338
0.1,9.3,0,0.000944947
0.1,9.4,0,0.0009225
0.1,9.5,0,0.00090093
0.1,9.6,0,0.000878802
0.1,9.7,0,0.000855688
0.1,9.8,0,0.000832574
0.1,9.9,0,0.000808726
0.1,10,0,0.000784181
0.1,10.1,0,0.000759637
0.1,10.2,0,0.00073422
0.1,10.3,0,0.000708365
0.1,10.4,0,0.000683137
0.1,10.5,0,0.000655687
0.1,10.6,0,0.000628648
0.1,10.7,0,0.000602787
0.1,10.8,0,0.000573552
0.1,10.9,0,0.000545464
0.1,11,0,0.000518124
0.1,11.1,0,0.000488263
0.1,11.2,0,0.000459264
0.1,11.3,0,0.000430314
0.1,11.4,0,0.000400281
0.1,11.5,0,0.000370514
0.1,11.6,0,0.000340474
0.1,11.7,0,0.000310093
0.1,11.8,0,0.000279712
0.1,11.9,0,0.000249051
0.1,12,0,0.000218198
0.1,12.1,0,0.000187393
0.1,12.2,0,0.000156228
0.1,12.3,0,0.000125025
0.1,12.4,0,9.39577e-05
0.1,12.5,0,6.69666e-05
0.1,12.6,0,4.44022e-05
0.1,12.7,0,2.18677e-05
0.2,0,0,1.67348e-05
0.2,0.1,0,3.92785e-05
0.2,0.2,0,6.27418e-05
0.2,0.3,0,9.4194e-05
0.2,0.4,0,0.000125466
0.2,0.5,0,0.000157678
0.2,0.6,0,0.000187914
0.2,0.7,0,0.000219166
0.2,0.8,0,0.000250071
0.2,0.9,0,0.000280589
0.2,1,0,0.000312866
0.2,1.1,0,0.000341541
0.2,1.2,0,0.000372048
0.2,1.3,0,0.000401996
0.2,1.4,0,0.000431329
0.2,1.5,0,0.000463218
0.2,1.6,0,0.000489882
0.2,1.7,0,0.000519175
0.2,1.8,0,0.000547692
0.2,1.9,0,0.000575383
0.2,2,0,0.000606388
0.2,2.1,0,0.000630635
0.2,2.2,0,0.000658265
0.2,2.3,0,0.000684915
0.2,2.4,0,0.000710541
0.2,2.5,0,0.000740185
0.2,2.6,0,0.000761648
0.2,2.7,0,0.000787193
0.2,2.8,0,0.000811572
0.2,2.9,0,0.000834745
0.2,3,0,0.000862572
0.2,3.1,0,0.000880934
0.2,3.2,0,0.000904005
0.2,3.3,0,0.000925745
0.2,3.4,0,0.000946117
0.2,3.5,0,0.0009717
0.2,3.6,0,0.000986692
0.2,3.7,0,0.00100694
0.2,3.8,0,0.00102572
0.2,3.9,0,0.00104299
0.2,4,0,0.00106594
0.2,4.1,0,0.00107734
0.2,4.2,0,0.00109447
0.2,4.3,0,0.00111
0.2,4.4,0,0.00112391
0.2,4.5,0,0.00114387
0.2,4.6,0,0.00115154
0.2,4.7,0,0.0011653
0.2,4.8,0,0.00117737
0.2,4.9,0,0.0011859
0.2,5,0,0.00119936
0.2,5.1,0,0.00121435
0.2,5.2,0,0.00122353
0.2,5.3,0,0.00123194
0.2,5.4,0,0.00123961
0.2,5.5,0,0.00124652
0.2,5.6,0,0.00125266
0.2,5.7,0,0.00125803
0.2,5.8,0,0.00126263
0.2,5.9,0,0.00126646
0.2,6,0,0.0012695
0.2,6.1,0,0.00127177
0.2,6.2,0,0.00127327
0.2,6.3,0,0.00127399
0.2,6.4,0,0.00127391
0.2,6.5,0,0.00127307
0.2,6.6,0,0.00127145
0.2,6.7,0,0.00126904
0.2,6.8,0,0.00126586
0.2,6.9,0,0.00126191
0.2,7,0,0.0012542
0.2,7.1,0,0.00124417
0.2,7.2,0,0.001239
0.2,7.3,0,0.00123694
0.2,7.4,0,0.00122435
0.2,7.5,0,0.00121603
0.2,7.6,0,0.00121008
0.2,7.7,0,0.00119667
0.2,7.8,0,0.00118722
0.2,7.9,0,0.00117667
0.2,8,0,0.00116248
0.2,8.1,0,0.00115211
0.2,8.2,0,0.00113692
0.2,8.3,0,0.00112195
0.2,8.4,0,0.00111065
0.2,8.5,0,0.00109163
0.2,8.6,0,0.00107529
0.2,8.7,0,0.00106302
0.2,8.8,0,0.00104093
0.2,8.9,0,0.00102276
0.2,9,0,0.00100871
0.2,9.1,0,0.000984544
0.2,9.2,0,0.000964623
0.2,9.3,0,0.000947387
0.2,9.4,0,0.000922768
0.2,9.5,0,0.000901322
0.2,9.6,0,0.000881001
0.2,9.7,0,0.000855938
0.2,9.8,0,0.000833778
0.2,9.9,0,0.00080992
0.2,10,0,0.000784411
0.2,10.1,0,0.00076151
0.2,10.2,0,0.000734536
0.2,10.3,0,0.000708574
0.2,10.4,0,0.000684901
0.2,10.5,0,0.000655874
0.2,10.6,0,0.000628836
0.2,10.7,0,0.000604357
0.2,10.8,0,0.000573717
0.2,10.9,0,0.000545629
0.2,11,0,0.000519492
0.2,11.1,0,0.000488404
0.2,11.2,0,0.000459405
0.2,11.3,0,0.000431474
0.2,11.4,0,0.000400397
0.2,11.5,0,0.000370805
0.2,11.6,0,0.000341254
0.2,11.7,0,0.000310182
0.2,11.8,0,0.00028022
0.2,11.9,0,0.000249356
0.2,12,0,0.000218267
0.2,12.1,0,0.000187904
0.2,12.2,0,0.000156277
0.2,12.3,0,0.000125074
0.2,12.4,0,9.42532e-05
0.2,12.5,0,6.40209e-05
0.2,12.6,0,4.14566e-05
0.2,12.7,0,1.8952e-05
0.3,0,0,1.41602e-05
0.3,0.1,0,3.66752e-05
0.3,0.2,0,6.30124e-05
0.3,0.3,0,9.44646e-05
0.3,0.4,0,0.000125498
0.3,0.5,0,0.000158144
0.3,0.6,0,0.000187963
0.3,0.7,0,0.000219822
0.3,0.8,0,0.000250727
0.3,0.9,0,0.000280651
0.3,1,0,0.000313718
0.3,1.1,0,0.00034162
0.3,1.2,0,0.000373092
0.3,1.3,0,0.00040304
0.3,1.4,0,0.000431426
0.3,1.5,0,0.00046445
0.3,1.6,0,0.000489996
0.3,1.7,0,0.000520591
0.3,1.8,0,0.000549108
0.3,1.9,0,0.000575512
0.3,2,0,0.000607982
0.3,2.1,0,0.00063078
0.3,2.2,0,0.000660029
0.3,2.3,0,0.00068668
0.3,2.4,0,0.000710701
0.3,2.5,0,0.000742114
0.3,2.6,0,0.000761822
0.3,2.7,0,0.000789277
0.3,2.8,0,0.000813656
0.3,2.9,0,0.000834933
0.3,3,0,0.000864803
0.3,3.1,0,0.000881134
0.3,3.2,0,0.000906373
0.3,3.3,0,0.000928113
0.3,3.4,0,0.000946329
0.3,3.5,0,0.000974196
0.3,3.6,0,0.000986916
0.3,3.7,0,0.00100956
0.3,3.8,0,0.00102833
0.3,3.9,0,0.00104322
0.3,4,0,0.00106865
0.3,4.1,0,0.00107759
0.3,4.2,0,0.00109728
0.3,4.3,0,0.00111282
0.3,4.4,0,0.00112416
0.3,4.5,0,0.00114676
0.3,4.6,0,0.0011518
0.3,4.7,0,0.00116826
0.3,4.8,0,0.00118033
0.3,4.9,0,0.00118675
0.3,5,0,0.00120236
0.3,5.1,0,0.00121739
0.3,5.2,0,0.00122658
0.3,5.3,0,0.00123501
0.3,5.4,0,0.0012427
0.3,5.5,0,0.00124961
0.3,5.6,0,0.00125577
0.3,5.7,0,0.00126115
0.3,5.8,0,0.00126576
0.3,5.9,0,0.0012696
0.3,6,0,0.00127265
0.3,6.1,0,0.00127493
0.3,6.2,0,0.00127642
0.3,6.3,0,0.00127714
0.3,6.4,0,0.00127707
0.3,6.5,0,0.00127623
0.3,6.6,0,0.0012746
0.3,6.7,0,0.0012722
0.3,6.8,0,0.00126901
0.3,6.9,0,0.00126505
0.3,7,0,0.00125733
0.3,7.1,0,0.00124491
0.3,7.2,0,0.00124082
0.3,7.3,0,0.00124005
0.3,7.4,0,0.0012247
0.3,7.5,0,0.00121886
0.3,7.6,0,0.00121314
0.3,7.7,0,0.00119702
0.3,7.8,0,0.00119022
0.3,7.9,0,0.00117967
0.3,8,0,0.00116282
0.3,8.1,0,0.00115503
0.3,8.2,0,0.00113984
0.3,8.3,0,0.00112228
0.3,8.4,0,0.00111347
0.3,8.5,0,0.00109386
0.3,8.6,0,0.00107561
0.3,8.7,0,0.00106573
0.3,8.8,0,0.001042
0.3,8.9,0,0.00102344
0.3,9,0,0.00101129
0.3,9.1,0,0.000984829
0.3,9.2,0,0.000966231
0.3,9.3,0,0.000949827
0.3,9.4,0,0.000923036
0.3,9.5,0,0.00090361
0.3,9.6,0,0.000883289
0.3,9.7,0,0.000856187
0.3,9.8,0,0.000835902
0.3,9.9,0,0.000812044
0.3,10,0,0.000784642
0.3,10.1,0,0.00076346
0.3,10.2,0,0.000736485
0.3,10.3,0,0.000708783
0.3,10.4,0,0.000686666
0.3,10.5,0,0.00065703
0.3,10.6,0,0.000629023
0.3,10.7,0,0.000605928
0.3,10.8,0,0.000574115
0.3,10.9,0,0.000546174
0.3,11,0,0.000520861
0.3,11.1,0,0.000488545
0.3,11.2,0,0.000460324
0.3,11.3,0,0.000432634
0.3,11.4,0,0.000400514
0.3,11.5,0,0.00037175
0.3,11.6,0,0.0003422
0.3,11.7,0,0.000310272
0.3,11.8,0,0.000280946
0.3,11.9,0,0.000250082
0.3,12,0,0.000218336
0.3,12.1,0,0.000188416
0.3,12.2,0,0.000156748
0.3,12.3,0,0.000125123
0.3,12.4,0,9.45488e-05
0.3,12.5,0,6.25822e-05
0.3,12.6,0,3.85115e-05
0.3,12.7,0,1.60363e-05
0.4,0,0,1.15856e-05
0.4,0.1,0,3.40892e-05
0.4,0.2,0,6.3283e-05
0.4,0.3,0,9.47353e-05
0.4,0.4,0,0.00012579
0.4,0.5,0,0.00015861
0.4,0.6,0,0.000188262
0.4,0.7,0,0.000220478
0.4,0.8,0,0.000251382
0.4,0.9,0,0.000281186
0.4,1,0,0.000314569
0.4,1.1,0,0.000342163
0.4,1.2,0,0.000374137
0.4,1.3,0,0.000404084
0.4,1.4,0,0.000432204
0.4,1.5,0,0.000465683
0.4,1.6,0,0.00049078
0.4,1.7,0,0.000522007
0.4,1.8,0,0.000550524
0.4,1.9,0,0.00057652
0.4,2,0,0.000609575
0.4,2.1,0,0.000631794
0.4,2.2,0,0.000661794
0.4,2.3,0,0.000688445
0.4,2.4,0,0.000711922
0.4,2.5,0,0.000744042
0.4,2.6,0,0.000763049
0.4,2.7,0,0.000791361
0.4,2.8,0,0.00081574
0.4,2.9,0,0.000836346
0.4,3,0,0.000867034
0.4,3.1,0,0.000882553
0.4,3.2,0,0.000908742
0.4,3.3,0,0.000930482
0.4,3.4,0,0.000947911
0.4,3.5,0,0.000976691
0.4,3.6,0,0.000988502
0.4,3.7,0,0.00101217
0.4,3.8,0,0.00103095
0.4,3.9,0,0.00104495
0.4,4,0,0.00107137
0.4,4.1,0,0.00107931
0.4,4.2,0,0.0011001
0.4,4.3,0,0.00111563
0.4,4.4,0,0.001126
0.4,4.5,0,0.00114966
0.4,4.6,0,0.00115364
0.4,4.7,0,0.00117122
0.4,4.8,0,0.00118329
0.4,4.9,0,0.0011889
0.4,5,0,0.00120536
0.4,5.1,0,0.00122042
0.4,5.2,0,0.00122963
0.4,5.3,0,0.00123808
0.4,5.4,0,0.00124578
0.4,5.5,0,0.00125271
0.4,5.6,0,0.00125888
0.4,5.7,0,0.00126427
0.4,5.8,0,0.00126889
0.4,5.9,0,0.00127273
0.4,6,0,0.00127579
0.4,6.1,0,0.00127808
0.4,6.2,0,0.00127958
0.4,6.3,0,0.0012803
0.4,6.4,0,0.00128023
0.4,6.5,0,0.00127939
0.4,6.6,0,0.00127776
0.4,6.7,0,0.00127535
0.4,6.8,0,0.00127216
0.4,6.9,0,0.0012682
0.4,7,0,0.00126046
0.4,7.1,0,0.00124805
0.4,7.2,0,0.00124393
0.4,7.3,0,0.00124316
0.4,7.4,0,0.00122663
0.4,7.5,0,0.00122192
0.4,7.6,0,0.0012162
0.4,7.7,0,0.0011977
0.4,7.8,0,0.00119322
0.4,7.9,0,0.00118267
0.4,8,0,0.00116315
0.4,8.1,0,0.00115795
0.4,8.2,0,0.00114276
0.4,8.3,0,0.00112328
0.4,8.4,0,0.00111629
0.4,8.5,0,0.00109668
0.4,8.6,0,0.00107764
0.4,8.7,0,0.00106844
0.4,8.8,0,0.0010447
0.4,8.9,0,0.00102602
0.4,9,0,0.00101387
0.4,9.1,0,0.000987107
0.4,9.2,0,0.000968671
0.4,9.3,0,0.000952267
0.4,9.4,0,0.000924219
0.4,9.5,0,0.000905899
0.4,9.6,0,0.000885577
0.4,9.7,0,0.000856437
0.4,9.8,0,0.000838026
0.4,9.9,0,0.000814168
0.4,10,0,0.000784872
0.4,10.1,0,0.000765409
0.4,10.2,0,0.000738434
0.4,10.3,0,0.000709647
0.4,10.4,0,0.00068843
0.4,10.5,0,0.000658794
0.4,10.6,0,0.000630412
0.4,10.7,0,0.000607498
0.4,10.8,0,0.000575686
0.4,10.9,0,0.000547542
0.4,11,0,0.000522229
0.4,11.1,0,0.000489569
0.4,11.2,0,0.000461484
0.4,11.3,0,0.000433794
0.4,11.4,0,0.000400914
0.4,11.5,0,0.000372696
0.4,11.6,0,0.000343146
0.4,11.7,0,0.000310361
0.4,11.8,0,0.000281672
0.4,11.9,0,0.000250808
0.4,12,0,0.000218459
0.4,12.1,0,0.000188927
0.4,12.2,0,0.00015726
0.4,12.3,0,0.000125312
0.4,12.4,0,9.48443e-05
0.4,12.5,0,6.28777e-05
0.4,12.6,0,3.55958e-05
0.4,12.7,0,1.31206e-05
0.5,0,0,9.01105e-06
0.5,0.1,0,3.15146e-05
0.5,0.2,0,6.35537e-05
0.5,0.3,0,9.50059e-05
0.5,0.4,0,0.000126256
0.5,0.5,0,0.000159075
0.5,0.6,0,0.000188727
0.5,0.7,0,0.000221133
0.5,0.8,0,0.000252038
0.5,0.9,0,0.000282037
0.5,1,0,0.00031542
0.5,1.1,0,0.000343014
0.5,1.2,0,0.000375181
0.5,1.3,0,0.000405128
0.5,1.4,0,0.000433437
0.5,1.5,0,0.000466915
0.5,1.6,0,0.000492013
0.5,1.7,0,0.000523423
0.5,1.8,0,0.00055194
0.5,1.9,0,0.000578114
0.5,2,0,0.000611169
0.5,2.1,0,0.000633388
0.5,2.2,0,0.000663559
0.5,2.3,0,0.000690209
0.5,2.4,0,0.00071385
0.5,2.5,0,0.00074597
0.5,2.6,0,0.000764977
0.5,2.7,0,0.000793445
0.5,2.8,0,0.000817824
0.5,2.9,0,0.000838577
0.5,3,0,0.000869265
0.5,3.1,0,0.000884783
0.5,3.2,0,0.00091111
0.5,3.3,0,0.00093285
0.5,3.4,0,0.000950407
0.5,3.5,0,0.000979187
0.5,3.6,0,0.000990998
0.5,3.7,0,0.00101478
0.5,3.8,0,0.00103356
0.5,3.9,0,0.00104766
0.5,4,0,0.00107409
0.5,4.1,0,0.00108203
0.5,4.2,0,0.00110291
0.5,4.3,0,0.00111844
0.5,4.4,0,0.00112889
0.5,4.5,0,0.00115255
0.5,4.6,0,0.00115653
0.5,4.7,0,0.00117418
0.5,4.8,0,0.00118625
0.5,4.9,0,0.0011919
0.5,5,0,0.00120836
0.5,5.1,0,0.00122346
0.5,5.2,0,0.00123268
0.5,5.3,0,0.00124115
0.5,5.4,0,0.00124887
0.5,5.5,0,0.00125581
0.5,5.6,0,0.00126198
0.5,5.7,0,0.00126739
0.5,5.8,0,0.00127202
0.5,5.9,0,0.00127587
0.5,6,0,0.00127894
0.5,6.1,0,0.00128123
0.5,6.2,0,0.00128273
0.5,6.3,0,0.00128346
0.5,6.4,0,0.00128339
0.5,6.5,0,0.00128255
0.5,6.6,0,0.00128092
0.5,6.7,0,0.00127851
0.5,6.8,0,0.00127531
0.5,6.9,0,0.00127134
0.5,7,0,0.00126359
0.5,7.1,0,0.00125118
0.5,7.2,0,0.00124704
0.5,7.3,0,0.00124627
0.5,7.4,0,0.00122974
0.5,7.5,0,0.00122498
0.5,7.6,0,0.00121927
0.5,7.7,0,0.00120176
0.5,7.8,0,0.00119621
0.5,7.9,0,0.00118567
0.5,8,0,0.00116742
0.5,8.1,0,0.00116086
0.5,8.2,0,0.00114567
0.5,8.3,0,0.00112669
0.5,8.4,0,0.0011191
0.5,8.5,0,0.0010995
0.5,8.6,0,0.00108035
0.5,8.7,0,0.00107114
0.5,8.8,0,0.00104741
0.5,8.9,0,0.0010286
0.5,9,0,0.00101645
0.5,9.1,0,0.000989686
0.5,9.2,0,0.000971111
0.5,9.3,0,0.000954708
0.5,9.4,0,0.000926819
0.5,9.5,0,0.000908187
0.5,9.6,0,0.000887865
0.5,9.7,0,0.000859658
0.5,9.8,0,0.00084015
0.5,9.9,0,0.000816292
0.5,10,0,0.000787772
0.5,10.1,0,0.000767358
0.5,10.2,0,0.000740383
0.5,10.3,0,0.000711549
0.5,10.4,0,0.000690194
0.5,10.5,0,0.000660558
0.5,10.6,0,0.000631982
0.5,10.7,0,0.000609069
0.5,10.8,0,0.000577256
0.5,10.9,0,0.000548911
0.5,11,0,0.000523598
0.5,11.1,0,0.000490938
0.5,11.2,0,0.000462644
0.5,11.3,0,0.000434954
0.5,11.4,0,0.000402263
0.5,11.5,0,0.000373642
0.5,11.6,0,0.000344092
0.5,11.7,0,0.000311587
0.5,11.8,0,0.000282399
0.5,11.9,0,0.000251534
0.5,12,0,0.000219218
0.5,12.1,0,0.000189439
0.5,12.2,0,0.000157771
0.5,12.3,0,0.000125608
0.5,12.4,0,9.51399e-05
0.5,12.5,0,6.31733e-05
0.5,12.6,0,3.26801e-05
0.5,12.7,0,1.02049e-05
0.6,0,0,6.43646e-06
0.6,0.1,0,3.15265e-05
0.6,0.2,0,6.38243e-05
0.6,0.3,0,9.52766e-05
0.6,0.4,0,0.000126937
0.6,0.5,0,0.000159541
0.6,0.6,0,0.000189739
0.6,0.7,0,0.000221789
0.6,0.8,0,0.000252694
0.6,0.9,0,0.000283424
0.6,1,0,0.000316272
0.6,1.1,0,0.000344734
0.6,1.2,0,0.000376225
0.6,1.3,0,0.000406173
0.6,1.4,0,0.000435522
0.6,1.5,0,0.000468148
0.6,1.6,0,0.000494418
0.6,1.7,0,0.000524839
0.6,1.8,0,0.000553356
0.6,1.9,0,0.000580865
0.6,2,0,0.000612763
0.6,2.1,0,0.000636439
0.6,2.2,0,0.000665323
0.6,2.3,0,0.000691974
0.6,2.4,0,0.000717223
0.6,2.5,0,0.000747899
0.6,2.6,0,0.000768625
0.6,2.7,0,0.000795529
0.6,2.8,0,0.000819908
0.6,2.9,0,0.000842514
0.6,3,0,0.000871495
0.6,3.1,0,0.000888965
0.6,3.2,0,0.000913478
0.6,3.3,0,0.000935218
0.6,3.4,0,0.000954842
0.6,3.5,0,0.000981682
0.6,3.6,0,0.000995643
0.6,3.7,0,0.00101739
0.6,3.8,0,0.00103617
0.6,3.9,0,0.00105252
0.6,4,0,0.00107681
0.6,4.1,0,0.00108706
0.6,4.2,0,0.00110572
0.6,4.3,0,0.00112125
0.6,4.4,0,0.00113409
0.6,4.5,0,0.00115544
0.6,4.6,0,0.00116186
0.6,4.7,0,0.00117714
0.6,4.8,0,0.00118921
0.6,4.9,0,0.00119679
0.6,5,0,0.00121136
0.6,5.1,0,0.00122649
0.6,5.2,0,0.00123574
0.6,5.3,0,0.00124422
0.6,5.4,0,0.00125195
0.6,5.5,0,0.00125891
0.6,5.6,0,0.00126509
0.6,5.7,0,0.00127051
0.6,5.8,0,0.00127515
0.6,5.9,0,0.00127901
0.6,6,0,0.00128209
0.6,6.1,0,0.00128438
0.6,6.2,0,0.00128589
0.6,6.3,0,0.00128662
0.6,6.4,0,0.00128655
0.6,6.5,0,0.00128571
0.6,6.6,0,0.00128408
0.6,6.7,0,0.00128166
0.6,6.8,0,0.00127846
0.6,6.9,0,0.00127449
0.6,7,0,0.00126672
0.6,7.1,0,0.00125547
0.6,7.2,0,0.00125023
0.6,7.3,0,0.00124938
0.6,7.4,0,0.00123537
0.6,7.5,0,0.00122805
0.6,7.6,0,0.00122233
0.6,7.7,0,0.00120747
0.6,7.8,0,0.00119921
0.6,7.9,0,0.00118867
0.6,8,0,0.00117299
0.6,8.1,0,0.00116378
0.6,8.2,0,0.00114859
0.6,8.3,0,0.0011321
0.6,8.4,0,0.00112192
0.6,8.5,0,0.00110232
0.6,8.6,0,0.00108501
0.6,8.7,0,0.00107385
0.6,8.8,0,0.00105053
0.6,8.9,0,0.00103198
0.6,9,0,0.00101903
0.6,9.1,0,0.000993628
0.6,9.2,0,0.000973552
0.6,9.3,0,0.000957148
0.6,9.4,0,0.000931279
0.6,9.5,0,0.000910475
0.6,9.6,0,0.000890153
0.6,9.7,0,0.00086382
0.6,9.8,0,0.000842274
0.6,9.9,0,0.000818416
0.6,10,0,0.000791615
0.6,10.1,0,0.000769307
0.6,10.2,0,0.000742332
0.6,10.3,0,0.000715053
0.6,10.4,0,0.000691959
0.6,10.5,0,0.000662323
0.6,10.6,0,0.000634548
0.6,10.7,0,0.000610639
0.6,10.8,0,0.000579228
0.6,10.9,0,0.000550538
0.6,11,0,0.000524966
0.6,11.1,0,0.000493102
0.6,11.2,0,0.000463805
0.6,11.3,0,0.000436115
0.6,11.4,0,0.000404253
0.6,11.5,0,0.000374588
0.6,11.6,0,0.000345037
0.6,11.7,0,0.000313169
0.6,11.8,0,0.000283125
0.6,11.9,0,0.000252261
0.6,12,0,0.000220387
0.6,12.1,0,0.00018995
0.6,12.2,0,0.000158283
0.6,12.3,0,0.000126334
0.6,12.4,0,9.54354e-05
0.6,12.5,0,6.34699e-05
0.6,12.6,0,3.13281e-05
0.6,12.7,0,7.28924e-06
0.7,0,0,3.86188e-06
0.7,0.1,0,3.18258e-05
0.7,0.2,0,6.41007e-05
0.7,0.3,0,9.5634e-05
0.7,0.4,0,0.000127641
0.7,0.5,0,0.000160007
0.7,0.6,0,0.000190812
0.7,0.7,0,0.000222528
0.7,0.8,0,0.000253507
0.7,0.9,0,0.000284869
0.7,1,0,0.000317123
0.7,1.1,0,0.00034655
0.7,1.2,0,0.000377424
0.7,1.3,0,0.000407444
0.7,1.4,0,0.000437702
0.7,1.5,0,0.00046938
0.7,1.6,0,0.000496952
0.7,1.7,0,0.000526478
0.7,1.8,0,0.000555064
0.7,1.9,0,0.000583745
0.7,2,0,0.000614356
0.7,2.1,0,0.000639652
0.7,2.2,0,0.000667378
0.7,2.3,0,0.000694092
0.7,2.4,0,0.000720756
0.7,2.5,0,0.000749827
0.7,2.6,0,0.000772463
0.7,2.7,0,0.000797963
0.7,2.8,0,0.000822401
0.7,2.9,0,0.000846641
0.7,3,0,0.000873726
0.7,3.1,0,0.000893363
0.7,3.2,0,0.000916252
0.7,3.3,0,0.000938042
0.7,3.4,0,0.000959493
0.7,3.5,0,0.000984177
0.7,3.6,0,0.00100053
0.7,3.7,0,0.00102046
0.7,3.8,0,0.00103928
0.7,3.9,0,0.00105762
0.7,4,0,0.00107952
0.7,4.1,0,0.00109235
0.7,4.2,0,0.00110902
0.7,4.3,0,0.00112459
0.7,4.4,0,0.00113954
0.7,4.5,0,0.00115834
0.7,4.6,0,0.00116746
0.7,4.7,0,0.00118063
0.7,4.8,0,0.0011926
0.7,4.9,0,0.0012019
0.7,5,0,0.00121436
0.7,5.1,0,0.00122953
0.7,5.2,0,0.00123879
0.7,5.3,0,0.00124729
0.7,5.4,0,0.00125503
0.7,5.5,0,0.001262
0.7,5.6,0,0.00126821
0.7,5.7,0,0.00127363
0.7,5.8,0,0.00127828
0.7,5.9,0,0.00128215
0.7,6,0,0.00128523
0.7,6.1,0,0.00128753
0.7,6.2,0,0.00128905
0.7,6.3,0,0.00128978
0.7,6.4,0,0.00128971
0.7,6.5,0,0.00128887
0.7,6.6,0,0.00128723
0.7,6.7,0,0.00128482
0.7,6.8,0,0.00128161
0.7,6.9,0,0.00127763
0.7,7,0,0.00126986
0.7,7.1,0,0.00126101
0.7,7.2,0,0.00125577
0.7,7.3,0,0.00125249
0.7,7.4,0,0.00124118
0.7,7.5,0,0.00123273
0.7,7.6,0,0.00122539
0.7,7.7,0,0.00121319
0.7,7.8,0,0.00120259
0.7,7.9,0,0.00119166
0.7,8,0,0.00117857
0.7,8.1,0,0.0011667
0.7,8.2,0,0.00115223
0.7,8.3,0,0.00113751
0.7,8.4,0,0.00112474
0.7,8.5,0,0.0011069
0.7,8.6,0,0.00109022
0.7,8.7,0,0.00107656
0.7,8.8,0,0.00105552
0.7,8.9,0,0.00103697
0.7,9,0,0.00102161
0.7,9.1,0,0.000998363
0.7,9.2,0,0.000978025
0.7,9.3,0,0.000959588
0.7,9.4,0,0.000935739
0.7,9.5,0,0.000913715
0.7,9.6,0,0.000892441
0.7,9.7,0,0.000867983
0.7,9.8,0,0.000844398
0.7,9.9,0,0.00082054
0.7,10,0,0.000795458
0.7,10.1,0,0.000771256
0.7,10.2,0,0.000744963
0.7,10.3,0,0.000718557
0.7,10.4,0,0.000693723
0.7,10.5,0,0.000665312
0.7,10.6,0,0.000637696
0.7,10.7,0,0.000612209
0.7,10.8,0,0.000582002
0.7,10.9,0,0.000553313
0.7,11,0,0.000526335
0.7,11.1,0,0.00049549
0.7,11.2,0,0.000465869
0.7,11.3,0,0.000437275
0.7,11.4,0,0.000406242
0.7,11.5,0,0.000375836
0.7,11.6,0,0.000345983
0.7,11.7,0,0.000314752
0.7,11.8,0,0.000283851
0.7,11.9,0,0.000253049
0.7,12,0,0.000221556
0.7,12.1,0,0.000190462
0.7,12.2,0,0.000158939
0.7,12.3,0,0.000127092
0.7,12.4,0,9.5731e-05
0.7,12.5,0,6.37954e-05
0.7,12.6,0,3.16536e-05
0.7,12.7,0,4.37354e-06
0.8,0,0,1.28729e-06
0.8,0.1,0,3.21252e-05
0.8,0.2,0,6.44e-05
0.8,0.3,0,9.63385e-05
0.8,0.4,0,0.000128346
0.8,0.5,0,0.000160473
0.8,0.6,0,0.000191885
0.8,0.7,0,0.000223601
0.8,0.8,0,0.000254953
0.8,0.9,0,0.000286315
0.8,1,0,0.000317974
0.8,1.1,0,0.000348366
0.8,1.2,0,0.00037924
0.8,1.3,0,0.000409624
0.8,1.4,0,0.000439881
0.8,1.5,0,0.000470613
0.8,1.6,0,0.000499487
0.8,1.7,0,0.000529013
0.8,1.8,0,0.000557944
0.8,1.9,0,0.000586625
0.8,2,0,0.00061595
0.8,2.1,0,0.000642865
0.8,2.2,0,0.000670591
0.8,2.3,0,0.000697626
0.8,2.4,0,0.000724289
0.8,2.5,0,0.000751755
0.8,2.6,0,0.000776301
0.8,2.7,0,0.000801801
0.8,2.8,0,0.000826528
0.8,2.9,0,0.000850768
0.8,3,0,0.000875957
0.8,3.1,0,0.000897761
0.8,3.2,0,0.00092065
0.8,3.3,0,0.000942693
0.8,3.4,0,0.000964144
0.8,3.5,0,0.000986673
0.8,3.6,0,0.00100541
0.8,3.7,0,0.00102534
0.8,3.8,0,0.00104437
0.8,3.9,0,0.00106271
0.8,4,0,0.00108224
0.8,4.1,0,0.00109763
0.8,4.2,0,0.00111431
0.8,4.3,0,0.00113004
0.8,4.4,0,0.001145
0.8,4.5,0,0.00116123
0.8,4.6,0,0.00117305
0.8,4.7,0,0.00118623
0.8,4.8,0,0.00119771
0.8,4.9,0,0.00120701
0.8,5,0,0.00121736
0.8,5.1,0,0.00123256
0.8,5.2,0,0.00124184
0.8,5.3,0,0.00125036
0.8,5.4,0,0.00125812
0.8,5.5,0,0.0012651
0.8,5.6,0,0.00127131
0.8,5.7,0,0.00127675
0.8,5.8,0,0.00128141
0.8,5.9,0,0.00128529
0.8,6,0,0.00128838
0.8,6.1,0,0.00129068
0.8,6.2,0,0.0012922
0.8,6.3,0,0.00129293
0.8,6.4,0,0.00129287
0.8,6.5,0,0.00129203
0.8,6.6,0,0.00129039
0.8,6.7,0,0.00128797
0.8,6.8,0,0.00128476
0.8,6.9,0,0.00128078
0.8,7,0,0.00127299
0.8,7.1,0,0.00126655
0.8,7.2,0,0.00126131
0.8,7.3,0,0.0012556
0.8,7.4,0,0.001247
0.8,7.5,0,0.00123855
0.8,7.6,0,0.0012295
0.8,7.7,0,0.0012189
0.8,7.8,0,0.0012083
0.8,7.9,0,0.00119683
0.8,8,0,0.00118415
0.8,8.1,0,0.00117146
0.8,8.2,0,0.00115763
0.8,8.3,0,0.00114292
0.8,8.4,0,0.0011282
0.8,8.5,0,0.00111211
0.8,8.6,0,0.00109543
0.8,8.7,0,0.00107926
0.8,8.8,0,0.00106051
0.8,8.9,0,0.00104195
0.8,9,0,0.00102419
0.8,9.1,0,0.0010031
0.8,9.2,0,0.000982761
0.8,9.3,0,0.000962223
0.8,9.4,0,0.0009402
0.8,9.5,0,0.000918176
0.8,9.6,0,0.000895748
0.8,9.7,0,0.000872145
0.8,9.8,0,0.000848542
0.8,9.9,0,0.000824368
0.8,10,0,0.000799302
0.8,10.1,0,0.000774235
0.8,10.2,0,0.000748468
0.8,10.3,0,0.000722061
0.8,10.4,0,0.000695655
0.8,10.5,0,0.000668459
0.8,10.6,0,0.000640843
0.8,10.7,0,0.00061378
0.8,10.8,0,0.000584777
0.8,10.9,0,0.000556087
0.8,11,0,0.000527703
0.8,11.1,0,0.000497877
0.8,11.2,0,0.000468257
0.8,11.3,0,0.000438639
0.8,11.4,0,0.000408232
0.8,11.5,0,0.000377825
0.8,11.6,0,0.00034737
0.8,11.7,0,0.000316334
0.8,11.8,0,0.000285298
0.8,11.9,0,0.000254218
0.8,12,0,0.000222725
0.8,12.1,0,0.000191233
0.8,12.2,0,0.000159697
0.8,12.3,0,0.00012785
0.8,12.4,0,9.60265e-05
0.8,12.5,0,6.41208e-05
0.8,12.6,0,3.1979e-05
0.8,12.7,0,1.45785e-06
0.9,0,0,0
0.9,0.1,0,3.246e-05
0.9,0.2,0,6.47348e-05
0.9,0.3,0,9.70863e-05
0.9,0.4,0,0.000129094
0.9,0.5,0,0.00016133
0.9,0.6,0,0.000193
0.9,0.7,0,0.000224716
0.9,0.8,0,0.00025646
0.9,0.9,0,0.000287822
0.9,1,0,0.000319627
0.9,1.1,0,0.000350264
0.9,1.2,0,0.000381138
0.9,1.3,0,0.000411903
0.9,1.4,0,0.00044216
0.9,1.5,0,0.000473033
0.9,1.6,0,0.000502138
0.9,1.7,0,0.000531664
0.9,1.8,0,0.000560957
0.9,1.9,0,0.000589638
0.9,2,0,0.000619098
0.9,2.1,0,0.000646227
0.9,2.2,0,0.000673953
0.9,2.3,0,0.000701322
0.9,2.4,0,0.000727986
0.9,2.5,0,0.000755578
0.9,2.6,0,0.000780317
0.9,2.7,0,0.000805818
0.9,2.8,0,0.000830847
0.9,2.9,0,0.000855087
0.9,3,0,0.000880392
0.9,3.1,0,0.000902365
0.9,3.2,0,0.000925254
0.9,3.3,0,0.000947562
0.9,3.4,0,0.000969013
0.9,3.5,0,0.000991648
0.9,3.6,0,0.00101052
0.9,3.7,0,0.00103046
0.9,3.8,0,0.00104971
0.9,3.9,0,0.00106805
0.9,4,0,0.00108768
0.9,4.1,0,0.00110317
0.9,4.2,0,0.00111985
0.9,4.3,0,0.00113575
0.9,4.4,0,0.00115071
0.9,4.5,0,0.00116704
0.9,4.6,0,0.00117891
0.9,4.7,0,0.00119209
0.9,4.8,0,0.00120369
0.9,4.9,0,0.00121299
0.9,5,0,0.00122343
0.9,5.1,0,0.0012387
0.9,5.2,0,0.00124801
0.9,5.3,0,0.00125657
0.9,5.4,0,0.00126436
0.9,5.5,0,0.00127138
0.9,5.6,0,0.00127762
0.9,5.7,0,0.00128309
0.9,5.8,0,0.00128776
0.9,5.9,0,0.00129166
0.9,6,0,0.00129476
0.9,6.1,0,0.00129708
0.9,6.2,0,0.00129861
0.9,6.3,0,0.00129934
0.9,6.4,0,0.00129928
0.9,6.5,0,0.00129843
0.9,6.6,0,0.00129679
0.9,6.7,0,0.00129436
0.9,6.8,0,0.00129114
0.9,6.9,0,0.00128713
0.9,7,0,0.00127931
0.9,7.1,0,0.0012728
0.9,7.2,0,0.00126757
0.9,7.3,0,0.00126179
0.9,7.4,0,0.00125318
0.9,7.5,0,0.00124473
0.9,7.6,0,0.00123557
0.9,7.7,0,0.00122497
0.9,7.8,0,0.00121437
0.9,7.9,0,0.00120276
0.9,8,0,0.00119007
0.9,8.1,0,0.00117738
0.9,8.2,0,0.00116338
0.9,8.3,0,0.00114866
0.9,8.4,0,0.00113394
0.9,8.5,0,0.00111764
0.9,8.6,0,0.00110097
0.9,8.7,0,0.00108474
0.9,8.8,0,0.0010658
0.9,8.9,0,0.00104725
0.9,9,0,0.00102931
0.9,9.1,0,0.00100813
0.9,9.2,0,0.000987787
0.9,9.3,0,0.000966958
0.9,9.4,0,0.000944934
0.9,9.5,0,0.00092291
0.9,9.6,0,0.000900166
0.9,9.7,0,0.000876563
0.9,9.8,0,0.00085296
0.9,9.9,0,0.000828446
0.9,10,0,0.00080338
0.9,10.1,0,0.000778314
0.9,10.2,0,0.000752186
0.9,10.3,0,0.00072578
0.9,10.4,0,0.000699373
0.9,10.5,0,0.000671798
0.9,10.6,0,0.000644182
0.9,10.7,0,0.00061696
0.9,10.8,0,0.000587719
0.9,10.9,0,0.00055903
0.9,11,0,0.000530305
0.9,11.1,0,0.000500409
0.9,11.2,0,0.000470788
0.9,11.3,0,0.000440748
0.9,11.4,0,0.000410341
0.9,11.5,0,0.000379934
0.9,11.6,0,0.000349044
0.9,11.7,0,0.000318008
0.9,11.8,0,0.000286972
0.9,11.9,0,0.000255449
0.9,12,0,0.000223956
0.9,12.1,0,0.000192463
0.9,12.2,0,0.000160512
0.9,12.3,0,0.000128665
0.9,12.4,0,9.68101e-05
0.9,12.5,0,6.44879e-05
0.9,12.6,0,3.23461e-05
0.9,12.7,0,0
1,0,0,0
1,0.1,0,3.28302e-05
1,0.2,0,6.5105e-05
1,0.3,0,9.78773e-05
1,0.4,0,0.000129885
1,0.5,0,0.00016258
1,0.6,0,0.000194158
1,0.7,0,0.000225874
1,0.8,0,0.000258029
1,0.9,0,0.000289391
1,1,0,0.000322081
1,1.1,0,0.000352244
1,1.2,0,0.000383118
1,1.3,0,0.000414281
1,1.4,0,0.000444538
1,1.5,0,0.000476643
1,1.6,0,0.000504905
1,1.7,0,0.000534431
1,1.8,0,0.000564102
1,1.9,0,0.000592783
1,2,0,0.000623801
1,2.1,0,0.000649737
1,2.2,0,0.000677463
1,2.3,0,0.000705183
1,2.4,0,0.000731847
1,2.5,0,0.000761296
1,2.6,0,0.000784512
1,2.7,0,0.000810013
1,2.8,0,0.000835358
1,2.9,0,0.000859599
1,3,0,0.000887031
1,3.1,0,0.000907174
1,3.2,0,0.000930063
1,3.3,0,0.000952648
1,3.4,0,0.000974099
1,3.5,0,0.000999103
1,3.6,0,0.00101587
1,3.7,0,0.0010358
1,3.8,0,0.00105528
1,3.9,0,0.00107362
1,4,0,0.00109583
1,4.1,0,0.00110895
1,4.2,0,0.00112563
1,4.3,0,0.00114172
1,4.4,0,0.00115667
1,4.5,0,0.00117576
1,4.6,0,0.00118504
1,4.7,0,0.00119821
1,4.8,0,0.00121055
1,4.9,0,0.00121985
1,5,0,0.00123255
1,5.1,0,0.00124793
1,5.2,0,0.00125731
1,5.3,0,0.00126592
1,5.4,0,0.00127377
1,5.5,0,0.00128084
1,5.6,0,0.00128713
1,5.7,0,0.00129263
1,5.8,0,0.00129734
1,5.9,0,0.00130126
1,6,0,0.00130439
1,6.1,0,0.00130672
1,6.2,0,0.00130826
1,6.3,0,0.001309
1,6.4,0,0.00130894
1,6.5,0,0.00130808
1,6.6,0,0.00130643
1,6.7,0,0.00130398
1,6.8,0,0.00130074
1,6.9,0,0.0012967
1,7,0,0.00128883
1,7.1,0,0.00127978
1,7.2,0,0.00127454
1,7.3,0,0.0012712
1,7.4,0,0.00125972
1,7.5,0,0.00125127
1,7.6,0,0.0012437
1,7.7,0,0.0012314
1,7.8,0,0.0012208
1,7.9,0,0.00120946
1,8,0,0.00119634
1,8.1,0,0.00118441
1,8.2,0,0.00116946
1,8.3,0,0.00115474
1,8.4,0,0.00114181
1,8.5,0,0.0011235
1,8.6,0,0.00110682
1,8.7,0,0.00109285
1,8.8,0,0.0010714
1,8.9,0,0.00105285
1,9,0,0.00103703
1,9.1,0,0.00101344
1,9.2,0,0.000993105
1,9.3,0,0.000974031
1,9.4,0,0.000949943
1,9.5,0,0.000927919
1,9.6,0,0.000905823
1,9.7,0,0.000881236
1,9.8,0,0.000857648
1,9.9,0,0.000832777
1,10,0,0.000807694
1,10.1,0,0.000783306
1,10.2,0,0.000756118
1,10.3,0,0.000729712
1,10.4,0,0.000704489
1,10.5,0,0.000675329
1,10.6,0,0.000647712
1,10.7,0,0.000621614
1,10.8,0,0.00059083
1,10.9,0,0.00056214
1,11,0,0.000534348
1,11.1,0,0.000503085
1,11.2,0,0.000473464
1,11.3,0,0.000443867
1,11.4,0,0.00041257
1,11.5,0,0.000382163
1,11.6,0,0.000351114
1,11.7,0,0.000319773
1,11.8,0,0.000288788
1,11.9,0,0.000256741
1,12,0,0.000225249
1,12.1,0,0.000193823
1,12.2,0,0.000161385
1,12.3,0,0.000129537
1,12.4,0,9.75456e-05
1,12.5,0,6.48964e-05
1,12.6,0,3.27546e-05
1,12.7,0,0
1.1,0,0,0
1.1,0.1,0,3.32004e-05
1.1,0.2,0,6.57041e-05
1.1,0.3,0,9.85605e-05
1.1,0.4,0,0.000130676
1.1,0.5,0,0.000163829
1.1,0.6,0,0.000195316
1.1,0.7,0,0.000227589
1.1,0.8,0,0.000259827
1.1,0.9,0,0.00029096
1.1,1,0,0.000324536
1.1,1.1,0,0.000354224
1.1,1.2,0,0.000385945
1.1,1.3,0,0.000417187
1.1,1.4,0,0.000446917