/*--------------------------------*- C++ -*----------------------------------*\
| =========                 |                                                 |
| \\      /  F ield         | OpenFOAM: The Open Source CFD Toolbox           |
|  \\    /   O peration     | Version:  v1806                                 |
|   \\  /    A nd           | Web:      www.OpenFOAM.com                      |
|    \\/     M anipulation  |                                                 |
\*---------------------------------------------------------------------------*/
FoamFile
{
    version     2.0;
    format      ascii;
    class       volVectorField;
    location    "14";
    object      U;
}
// * * * * * * * * * * * * * * * * * * * * * * * * * * * * * * * * * * * * * //

dimensions      [0 1 -1 0 0 0 0];


internalField   nonuniform List<vector> 
5208
(
(1.69726 0.537881 -0.0136078)
(1.69739 0.537815 1.9132e-07)
(1.69739 0.537815 -1.91424e-07)
(1.69726 0.537881 0.0136078)
(1.9572 0.6011 -0.0128338)
(1.95733 0.601054 3.08188e-07)
(1.95733 0.601054 -3.08344e-07)
(1.9572 0.6011 0.0128338)
(-0.342703 -0.262634 0.00514665)
(-0.342629 -0.262542 -3.26174e-07)
(-0.342629 -0.262542 3.26011e-07)
(-0.342703 -0.262634 -0.00514665)
(-0.343531 -0.28409 0.00491913)
(-0.343456 -0.284036 -2.49096e-07)
(-0.343456 -0.284036 2.48811e-07)
(-0.343531 -0.28409 -0.00491913)
(-0.433739 -0.207944 0.00521678)
(-0.433667 -0.207906 -2.72314e-07)
(-0.433667 -0.207906 2.72707e-07)
(-0.433739 -0.207944 -0.00521678)
(-0.384961 -0.345136 0.00564952)
(-0.38487 -0.345066 -3.68705e-07)
(-0.38487 -0.345066 3.69236e-07)
(-0.384961 -0.345136 -0.00564952)
(2.17724 0.615469 -0.0106965)
(2.17725 0.61544 -7.7257e-08)
(2.17725 0.61544 7.66793e-08)
(2.17724 0.615469 0.0106965)
(2.10073 0.509062 -0.011456)
(2.10065 0.509104 -1.98058e-07)
(2.10065 0.509104 1.97509e-07)
(2.10073 0.509062 0.011456)
(2.02842 0.6125 -0.0120976)
(2.02844 0.612482 7.04966e-08)
(2.02844 0.612482 -7.09439e-08)
(2.02842 0.6125 0.0120976)
(0.223959 -0.185871 0.0042458)
(0.224486 -0.185888 -1.02744e-07)
(0.224486 -0.185888 1.05773e-07)
(0.223959 -0.185871 -0.00424581)
(0.416502 0.335376 0.00447602)
(0.416413 0.335303 -3.00875e-07)
(0.416413 0.335303 3.01179e-07)
(0.416502 0.335376 -0.00447602)
(0.0190968 0.211126 0.005171)
(0.0192675 0.211651 -1.09792e-07)
(0.0192675 0.211651 1.10783e-07)
(0.0190968 0.211126 -0.005171)
(-0.748241 -0.0644037 0.00555764)
(-0.747986 -0.0644023 -2.33111e-07)
(-0.747987 -0.0644022 2.33368e-07)
(-0.748241 -0.0644037 -0.00555764)
(-0.114521 -0.5311 0.00542241)
(-0.11462 -0.530833 -3.43839e-07)
(-0.11462 -0.530833 3.44212e-07)
(-0.114521 -0.531101 -0.00542241)
(2.75216 -1.73174 0.00254067)
(2.75209 -1.73178 8.73095e-07)
(2.75209 -1.73178 -8.73784e-07)
(2.75216 -1.73174 -0.00254067)
(2.77658 -1.36584 0.00201483)
(2.7766 -1.36614 4.97839e-07)
(2.7766 -1.36614 -4.99393e-07)
(2.77658 -1.36584 -0.00201483)
(3.47251 -1.11742 0.00341067)
(3.47292 -1.11748 8.01508e-07)
(3.47292 -1.11748 -8.02242e-07)
(3.47251 -1.11742 -0.00341067)
(2.38818 0.283618 -0.00925346)
(2.38812 0.283564 -4.00495e-07)
(2.38812 0.283564 4.00865e-07)
(2.38818 0.283618 0.00925346)
(2.42298 0.390559 -0.00900782)
(2.42296 0.390604 -1.96176e-07)
(2.42296 0.390604 1.96277e-07)
(2.42298 0.390559 0.00900782)
(1.25325 -2.1688 -0.0076868)
(1.25378 -2.1689 -3.55875e-07)
(1.25378 -2.1689 3.55603e-07)
(1.25325 -2.1688 0.00768681)
(2.7717 -0.801674 -0.00863201)
(2.77141 -0.801698 8.21329e-07)
(2.77141 -0.801698 -8.22294e-07)
(2.7717 -0.801675 0.00863201)
(2.50447 2.07536 0.000415444)
(2.50437 2.07539 -8.77097e-07)
(2.50437 2.07539 8.77507e-07)
(2.50447 2.07536 -0.000415445)
(2.4779 1.85955 -0.000794813)
(2.47792 1.85967 3.25823e-08)
(2.47792 1.85967 -3.20872e-08)
(2.4779 1.85955 0.000794812)
(-0.525003 -0.221222 0.00547851)
(-0.524906 -0.221193 -2.59829e-07)
(-0.524906 -0.221193 2.60732e-07)
(-0.525003 -0.221222 -0.00547852)
(-0.564475 -0.285798 0.00609423)
(-0.564328 -0.285757 -3.94832e-07)
(-0.564328 -0.285757 3.97002e-07)
(-0.564475 -0.285798 -0.00609423)
(-0.482548 -0.123944 0.00490304)
(-0.482466 -0.123913 -2.16804e-07)
(-0.482466 -0.123913 2.17753e-07)
(-0.482548 -0.123944 -0.00490304)
(-0.433009 -0.0858674 0.00441457)
(-0.432964 -0.0858322 -1.15537e-07)
(-0.432964 -0.0858323 1.16976e-07)
(-0.433009 -0.0858674 -0.00441457)
(-0.502514 -0.0368143 0.00446215)
(-0.502472 -0.0368403 -7.9251e-08)
(-0.502472 -0.0368403 8.04719e-08)
(-0.502514 -0.0368143 -0.00446215)
(-0.540163 -0.0874751 0.00502573)
(-0.540085 -0.0874661 -1.91456e-07)
(-0.540085 -0.0874661 1.92955e-07)
(-0.540163 -0.0874751 -0.00502573)
(-0.611531 -0.159178 0.00574406)
(-0.611455 -0.159203 -2.15223e-07)
(-0.611455 -0.159203 2.15581e-07)
(-0.611531 -0.159178 -0.00574406)
(-0.652198 -0.267705 0.00659601)
(-0.652089 -0.267709 -3.43232e-07)
(-0.652089 -0.267709 3.44636e-07)
(-0.652198 -0.267705 -0.00659601)
(-0.383927 -0.168667 0.00476516)
(-0.383868 -0.168614 -2.43606e-07)
(-0.383868 -0.168614 2.44573e-07)
(-0.383927 -0.168667 -0.00476517)
(-0.412995 -0.122141 0.00436558)
(-0.412951 -0.122127 -1.23906e-07)
(-0.412951 -0.122127 1.25077e-07)
(-0.412996 -0.122141 -0.00436558)
(2.47729 0.363837 -0.00843759)
(2.47722 0.363853 -4.48692e-07)
(2.47722 0.363853 4.49016e-07)
(2.47729 0.363837 0.00843759)
(2.48871 0.277256 -0.0082152)
(2.48868 0.277254 -2.99894e-07)
(2.48868 0.277254 3.00242e-07)
(2.48871 0.277256 0.0082152)
(2.55039 0.316173 -0.0078338)
(2.55035 0.31623 -2.75736e-07)
(2.55035 0.31623 2.76034e-07)
(2.55039 0.316173 0.0078338)
(2.57473 0.261025 -0.00765236)
(2.57467 0.261074 -3.72791e-07)
(2.57467 0.261074 3.73157e-07)
(2.57473 0.261025 0.00765236)
(2.43676 0.261172 -0.00899645)
(2.43672 0.261168 -2.35638e-07)
(2.43672 0.261168 2.35797e-07)
(2.43676 0.261172 0.00899645)
(2.52987 0.165612 -0.00803858)
(2.5298 0.165682 -3.60116e-07)
(2.5298 0.165682 3.60289e-07)
(2.52987 0.165612 0.00803858)
(2.60777 0.177706 -0.0073474)
(2.60771 0.177639 -2.86142e-07)
(2.60771 0.177639 2.86405e-07)
(2.60777 0.177706 0.0073474)
(2.6038 0.234488 -0.00705807)
(2.60378 0.234443 -2.81137e-07)
(2.60378 0.234443 2.81453e-07)
(2.6038 0.234488 0.00705807)
(2.58595 0.295361 -0.0072466)
(2.58592 0.295379 -2.12615e-07)
(2.58592 0.295379 2.12977e-07)
(2.58595 0.295361 0.0072466)
(2.66404 0.124838 -0.00666266)
(2.66404 0.12495 5.2876e-08)
(2.66404 0.12495 -5.25555e-08)
(2.66404 0.124838 0.00666266)
(2.69217 0.203378 -0.00640449)
(2.69217 0.203389 -1.11841e-07)
(2.69217 0.203389 1.12195e-07)
(2.69217 0.203378 0.00640449)
(2.30657 0.388618 -0.0100176)
(2.3066 0.388549 -2.08209e-08)
(2.3066 0.388549 2.0834e-08)
(2.30657 0.388618 0.0100176)
(2.21791 0.40698 -0.0106729)
(2.21794 0.406968 1.44414e-07)
(2.21794 0.406968 -1.44925e-07)
(2.21791 0.40698 0.0106729)
(2.15582 0.388912 -0.0114475)
(2.15579 0.388856 -1.29733e-07)
(2.15579 0.388856 1.29262e-07)
(2.15582 0.388912 0.0114475)
(2.28022 0.239684 -0.0104613)
(2.28015 0.239699 -2.86616e-07)
(2.28015 0.239699 2.86353e-07)
(2.28022 0.239684 0.0104613)
(2.38863 0.230205 -0.00952042)
(2.38864 0.230127 9.65102e-08)
(2.38864 0.230127 -9.67292e-08)
(2.38863 0.230205 0.00952042)
(2.48288 0.105246 -0.00872495)
(2.48273 0.105235 -6.89432e-07)
(2.48273 0.105235 6.89378e-07)
(2.48288 0.105246 0.00872495)
(2.57228 0.126479 -0.00770067)
(2.57227 0.126449 3.17143e-09)
(2.57227 0.126449 -3.04103e-09)
(2.57228 0.126479 0.00770067)
(2.65496 0.0592457 -0.00697975)
(2.65487 0.0592854 -3.85204e-07)
(2.65487 0.0592855 3.85437e-07)
(2.65496 0.0592457 0.00697975)
(2.30215 0.467632 -0.00977247)
(2.30219 0.46762 6.52351e-08)
(2.30219 0.46762 -6.55472e-08)
(2.30215 0.467632 0.00977247)
(2.27098 0.526034 -0.010249)
(2.27102 0.525983 6.40935e-08)
(2.27102 0.525983 -6.49369e-08)
(2.27098 0.526034 0.0102491)
(2.08522 0.347242 -0.0122456)
(2.08538 0.347107 3.21062e-07)
(2.08538 0.347107 -3.2154e-07)
(2.08522 0.347242 0.0122456)
(1.99074 0.49796 -0.0126432)
(1.99075 0.498099 1.53329e-07)
(1.99075 0.498099 -1.53645e-07)
(1.99074 0.49796 0.0126432)
(-0.688986 -0.393192 0.00761624)
(-0.688857 -0.393191 -4.43357e-07)
(-0.688857 -0.393191 4.42426e-07)
(-0.688986 -0.393192 -0.00761624)
(-0.566524 -0.439153 0.0068078)
(-0.566376 -0.439135 -4.7078e-07)
(-0.566376 -0.439135 4.70344e-07)
(-0.566524 -0.439153 -0.0068078)
(-0.407218 -0.395514 0.00612742)
(-0.407109 -0.395458 -4.16961e-07)
(-0.407109 -0.395458 4.18654e-07)
(-0.407218 -0.395514 -0.00612742)
(-0.360698 -0.431493 0.00569717)
(-0.360613 -0.431454 -3.67424e-07)
(-0.360613 -0.431454 3.67571e-07)
(-0.360699 -0.431493 -0.00569717)
(-0.543815 0.042997 0.00445123)
(-0.543779 0.042987 -5.05794e-08)
(-0.543779 0.042987 5.0376e-08)
(-0.543815 0.042997 -0.00445123)
(-0.619448 -0.00894694 0.005082)
(-0.619364 -0.00896591 -1.45376e-07)
(-0.619364 -0.00896591 1.45185e-07)
(-0.619448 -0.00894692 -0.005082)
(-0.706675 -0.0783595 0.00592178)
(-0.706591 -0.078378 -1.7669e-07)
(-0.706591 -0.078378 1.77615e-07)
(-0.706675 -0.0783595 -0.00592178)
(-0.8022 -0.166157 0.00700097)
(-0.802087 -0.166192 -2.97126e-07)
(-0.802087 -0.166192 2.96999e-07)
(-0.8022 -0.166157 -0.00700097)
(-0.844969 -0.295086 0.00840949)
(-0.844862 -0.295174 -3.91021e-07)
(-0.844862 -0.295174 3.91487e-07)
(-0.844969 -0.295086 -0.00840949)
(-0.291168 -0.0612196 0.00386018)
(-0.291169 -0.0611734 -1.59413e-07)
(-0.291169 -0.0611734 1.59279e-07)
(-0.291168 -0.0612196 -0.00386018)
(-0.358252 -0.0382543 0.00388437)
(-0.358209 -0.0382308 -9.48956e-08)
(-0.358209 -0.0382308 9.62155e-08)
(-0.358252 -0.0382543 -0.00388437)
(-0.416767 0.0257513 0.00387416)
(-0.416732 0.0257747 -1.1025e-07)
(-0.416732 0.0257747 1.11786e-07)
(-0.416767 0.0257513 -0.00387416)
(-0.463053 0.0712791 0.00387987)
(-0.46299 0.0712722 -9.74638e-08)
(-0.46299 0.0712722 9.72382e-08)
(-0.463053 0.0712791 -0.00387987)
(-0.385457 -0.151195 0.00460525)
(-0.38541 -0.151132 -2.24195e-07)
(-0.38541 -0.151132 2.24202e-07)
(-0.385457 -0.151195 -0.00460525)
(-0.33215 -0.16349 0.00429055)
(-0.33212 -0.163413 -1.52826e-07)
(-0.33212 -0.163413 1.52804e-07)
(-0.33215 -0.16349 -0.00429055)
(2.47121 0.391847 -0.00833781)
(2.47115 0.391903 -4.91222e-07)
(2.47115 0.391903 4.91391e-07)
(2.47121 0.391847 0.00833781)
(2.51884 0.393488 -0.00757694)
(2.51876 0.39349 -4.16059e-07)
(2.51876 0.39349 4.16282e-07)
(2.51884 0.393488 0.00757694)
(-0.277761 -0.0265886 0.00384333)
(-0.277722 -0.0265379 -1.00532e-07)
(-0.277722 -0.0265379 9.95792e-08)
(-0.277761 -0.0265886 -0.00384333)
(2.65399 0.271779 -0.0066417)
(2.65399 0.271757 -1.01735e-07)
(2.65399 0.271757 1.0218e-07)
(2.65399 0.271779 0.0066417)
(2.70895 0.24453 -0.00604757)
(2.70895 0.244521 2.20992e-09)
(2.70895 0.244521 -1.76409e-09)
(2.70895 0.24453 0.00604757)
(2.57774 0.418321 -0.00693708)
(2.5777 0.41824 -2.96243e-07)
(2.5777 0.41824 2.96635e-07)
(2.57774 0.418321 0.00693708)
(2.72011 0.0834824 -0.00621408)
(2.72014 0.0834913 1.93931e-07)
(2.72014 0.0834913 -1.93693e-07)
(2.72011 0.0834824 0.00621408)
(2.73122 0.131809 -0.00605627)
(2.73127 0.131708 1.36016e-07)
(2.73127 0.131708 -1.35769e-07)
(2.73122 0.131809 0.00605627)
(2.73084 0.187971 -0.005801)
(2.73085 0.187915 -7.72364e-08)
(2.73085 0.187915 7.75412e-08)
(2.73084 0.187971 0.005801)
(2.76096 0.202475 -0.00541278)
(2.761 0.202428 6.99218e-08)
(2.761 0.202428 -6.96115e-08)
(2.76096 0.202475 0.00541278)
(2.42771 0.494638 -0.00833314)
(2.42768 0.494609 -2.56787e-07)
(2.42768 0.494609 2.56694e-07)
(2.42771 0.494638 0.00833314)
(2.18767 0.222142 -0.011241)
(2.18761 0.222326 -2.02351e-07)
(2.18761 0.222326 2.01807e-07)
(2.18767 0.222142 0.011241)
(2.35066 0.0688605 -0.0100687)
(2.35071 0.0686864 -1.40966e-07)
(2.35071 0.0686864 1.40482e-07)
(2.35066 0.0688605 0.0100687)
(2.43741 0.0999466 -0.00897974)
(2.43736 0.100076 -1.63284e-07)
(2.43736 0.100076 1.62904e-07)
(2.43741 0.0999466 0.00897974)
(2.56114 -0.00577963 -0.00798766)
(2.56118 -0.00587215 -7.35028e-08)
(2.56118 -0.00587214 7.33913e-08)
(2.56114 -0.00577962 0.00798766)
(2.62845 0.0556161 -0.0071053)
(2.62848 0.0557281 2.00283e-07)
(2.62848 0.0557281 -2.00251e-07)
(2.62845 0.0556161 0.0071053)
(2.40109 0.522787 -0.0087971)
(2.40105 0.522776 -3.814e-07)
(2.40105 0.522776 3.80906e-07)
(2.40109 0.522787 0.0087971)
(2.26999 0.597953 -0.00953671)
(2.27002 0.597871 -1.1755e-07)
(2.27002 0.597871 1.16683e-07)
(2.26999 0.597953 0.00953671)
(2.25523 0.691242 -0.00995228)
(2.25529 0.691213 9.06513e-08)
(2.25529 0.691213 -9.14011e-08)
(2.25523 0.691242 0.00995228)
(2.16544 0.730255 -0.0102641)
(2.16552 0.730171 6.45029e-08)
(2.16552 0.730171 -6.48618e-08)
(2.16544 0.730255 0.0102641)
(2.13376 0.758895 -0.0107236)
(2.13377 0.758941 7.24171e-08)
(2.13377 0.758941 -7.2317e-08)
(2.13376 0.758895 0.0107236)
(1.9795 0.706097 -0.0119464)
(1.97947 0.706062 -1.45208e-09)
(1.97947 0.706062 1.28216e-09)
(1.9795 0.706097 0.0119464)
(1.78243 0.334938 -0.0140596)
(1.78232 0.334936 -3.33508e-07)
(1.78232 0.334936 3.33251e-07)
(1.78243 0.334938 0.0140596)
(1.94762 0.772744 -0.0124837)
(1.94759 0.772845 -1.42046e-07)
(1.94759 0.772845 1.42304e-07)
(1.94762 0.772745 0.0124837)
(2.0263 0.904463 -0.0109822)
(2.02637 0.90425 2.50895e-08)
(2.02637 0.90425 -2.4571e-08)
(2.0263 0.904463 0.0109822)
(2.06705 0.897405 -0.0112135)
(2.06704 0.897443 8.58279e-08)
(2.06704 0.897443 -8.50975e-08)
(2.06705 0.897405 0.0112135)
(2.71096 -0.0255079 -0.0063529)
(2.71102 -0.0255628 5.90782e-08)
(2.71102 -0.0255628 -5.8996e-08)
(2.71096 -0.0255079 0.0063529)
(1.73628 0.702586 -0.0131305)
(1.73619 0.702596 -3.70435e-07)
(1.73619 0.702596 3.70847e-07)
(1.73628 0.702586 0.0131305)
(1.8884 0.633264 -0.014498)
(1.8884 0.633283 2.36935e-07)
(1.8884 0.633283 -2.36986e-07)
(1.8884 0.633264 0.014498)
(1.83386 0.954538 -0.013889)
(1.83377 0.95451 -1.11169e-07)
(1.83377 0.95451 1.11615e-07)
(1.83386 0.954538 0.013889)
(-0.249013 -0.419265 0.00536293)
(-0.248963 -0.419194 -3.2275e-07)
(-0.248963 -0.419194 3.21982e-07)
(-0.249013 -0.419265 -0.00536293)
(-0.244304 -0.233313 0.00495809)
(-0.244257 -0.233207 -3.12142e-07)
(-0.244257 -0.233207 3.1118e-07)
(-0.244304 -0.233313 -0.00495809)
(2.40097 0.633427 -0.00839344)
(2.40094 0.633336 -2.65391e-07)
(2.40094 0.633336 2.64807e-07)
(2.40097 0.633427 0.00839344)
(2.33832 0.666987 -0.00886621)
(2.33835 0.666864 -5.51731e-08)
(2.33835 0.666864 5.43908e-08)
(2.33832 0.666987 0.00886622)
(2.27388 0.773991 -0.00915227)
(2.2739 0.773931 -7.93115e-08)
(2.2739 0.773931 7.89174e-08)
(2.27388 0.773991 0.00915227)
(2.24613 0.797108 -0.00944416)
(2.24614 0.797031 -1.90051e-07)
(2.24614 0.797031 1.90349e-07)
(2.24613 0.797108 0.00944416)
(2.16316 0.920954 -0.00980081)
(2.16316 0.920889 -3.28146e-07)
(2.16316 0.920889 3.29003e-07)
(2.16316 0.920954 0.00980081)
(2.08389 0.907802 -0.0101307)
(2.08384 0.907782 -2.99585e-07)
(2.08384 0.907782 3.00651e-07)
(2.08389 0.907802 0.0101307)
(2.08726 1.13016 -0.010481)
(2.0872 1.13006 -3.68455e-07)
(2.0872 1.13006 3.69252e-07)
(2.08726 1.13016 0.010481)
(2.50777 0.499003 -0.00766254)
(2.50768 0.498932 -5.32053e-07)
(2.50768 0.498932 5.32054e-07)
(2.50777 0.499003 0.00766254)
(2.48129 0.539635 -0.00771086)
(2.4812 0.539548 -5.46543e-07)
(2.4812 0.539548 5.46268e-07)
(2.48129 0.539635 0.00771086)
(1.94291 0.144846 -0.0133051)
(1.94299 0.144683 4.51662e-08)
(1.94299 0.144683 -4.57612e-08)
(1.94291 0.144846 0.0133051)
(2.03973 0.00134987 -0.0124926)
(2.03952 0.00123703 -5.83558e-07)
(2.03952 0.00123704 5.82892e-07)
(2.03973 0.00134987 0.0124926)
(2.27687 0.0175919 -0.0105121)
(2.27693 0.0175269 1.81669e-08)
(2.27693 0.0175269 -1.88517e-08)
(2.27687 0.0175919 0.0105121)
(2.3913 -0.0775986 -0.00954163)
(2.39113 -0.0776146 -5.67303e-07)
(2.39113 -0.0776146 5.66731e-07)
(2.3913 -0.0775986 0.00954163)
(2.53081 -0.0120649 -0.00805912)
(2.53086 -0.0120452 5.43533e-08)
(2.53086 -0.0120452 -5.46705e-08)
(2.53081 -0.0120649 0.00805912)
(2.6359 -0.0840209 -0.00724535)
(2.63578 -0.0839637 -3.43111e-07)
(2.63578 -0.0839637 3.4296e-07)
(2.6359 -0.0840209 0.00724535)
(-0.732385 -0.402786 0.0100458)
(-0.732297 -0.402926 -4.68202e-07)
(-0.732297 -0.402926 4.6803e-07)
(-0.732386 -0.402786 -0.0100458)
(-0.621096 -0.542929 0.00872685)
(-0.620963 -0.542947 -6.32745e-07)
(-0.620963 -0.542947 6.31249e-07)
(-0.621096 -0.542929 -0.00872685)
(-0.514074 -0.550351 0.0074929)
(-0.51391 -0.550303 -6.25427e-07)
(-0.51391 -0.550303 6.26124e-07)
(-0.514074 -0.550351 -0.0074929)
(-0.398698 -0.528061 0.00661648)
(-0.398593 -0.527952 -6.01708e-07)
(-0.398593 -0.527952 6.02817e-07)
(-0.398698 -0.528061 -0.00661648)
(-0.295891 -0.461679 0.00603684)
(-0.295786 -0.461543 -4.78189e-07)
(-0.295786 -0.461543 4.77812e-07)
(-0.295891 -0.461679 -0.00603684)
(-0.298098 -0.448048 0.0056141)
(-0.298039 -0.447883 -4.67823e-07)
(-0.298039 -0.447883 4.67049e-07)
(-0.298098 -0.448048 -0.0056141)
(-0.515857 0.148873 0.00385021)
(-0.5158 0.148845 -9.90156e-08)
(-0.5158 0.148845 9.80738e-08)
(-0.515857 0.148873 -0.00385021)
(-0.591772 0.114228 0.00439229)
(-0.591723 0.114182 -7.63554e-08)
(-0.591723 0.114182 7.46339e-08)
(-0.591772 0.114228 -0.00439229)
(-0.672382 0.0810778 0.0050597)
(-0.67231 0.0810447 -1.14757e-07)
(-0.67231 0.0810447 1.12731e-07)
(-0.672382 0.0810779 -0.00505969)
(-0.782229 0.0371597 0.00599166)
(-0.782152 0.0371049 -1.25239e-07)
(-0.782152 0.0371049 1.26939e-07)
(-0.782229 0.0371598 -0.00599167)
(-0.886343 -0.0256872 0.00726854)
(-0.886241 -0.0257503 -1.68356e-07)
(-0.886241 -0.0257503 1.69611e-07)
(-0.886343 -0.0256871 -0.00726854)
(-0.935371 -0.0966986 0.00902318)
(-0.935303 -0.0968253 -1.60745e-07)
(-0.935303 -0.0968253 1.60324e-07)
(-0.935371 -0.0966985 -0.00902318)
(-0.740339 -0.154761 0.0111781)
(-0.740335 -0.154963 -1.84336e-07)
(-0.740335 -0.154963 1.84078e-07)
(-0.740339 -0.154761 -0.0111781)
(-0.399642 -0.0454638 0.0037852)
(-0.399624 -0.0453559 -6.99332e-08)
(-0.399624 -0.0453559 6.73681e-08)
(-0.399642 -0.0454638 -0.0037852)
(-0.333732 -0.0614218 0.00365289)
(-0.3337 -0.0614192 -5.46978e-09)
(-0.3337 -0.0614192 4.22561e-09)
(-0.333732 -0.0614218 -0.00365289)
(-0.388195 0.0262568 0.00356585)
(-0.388173 0.026287 -1.19885e-08)
(-0.388173 0.026287 1.33091e-08)
(-0.388195 0.0262568 -0.00356585)
(-0.36782 0.0509403 0.00354893)
(-0.367787 0.0508895 1.17302e-08)
(-0.367787 0.0508895 -1.04252e-08)
(-0.36782 0.0509403 -0.00354893)
(-0.44051 0.127391 0.0034723)
(-0.440527 0.127367 3.75549e-08)
(-0.440527 0.127367 -3.76021e-08)
(-0.44051 0.127391 -0.0034723)
(-0.457041 0.187069 0.00343351)
(-0.457013 0.187023 -2.74897e-09)
(-0.457013 0.187023 1.83455e-09)
(-0.457041 0.187069 -0.00343351)
(-0.253762 -0.167383 0.00452013)
(-0.253726 -0.16732 -2.43204e-07)
(-0.253726 -0.16732 2.42385e-07)
(-0.253762 -0.167383 -0.00452013)
(-0.285203 -0.223536 0.0042665)
(-0.28515 -0.223533 -1.71741e-07)
(-0.28515 -0.223533 1.70495e-07)
(-0.285203 -0.223536 -0.0042665)
(-0.171533 0.0999586 0.00387603)
(-0.17159 0.100021 -1.6431e-07)
(-0.17159 0.100021 1.62327e-07)
(-0.171533 0.0999587 -0.00387603)
(-0.360482 -0.0967099 0.0038689)
(-0.360456 -0.0967486 -1.62921e-07)
(-0.360456 -0.0967486 1.59695e-07)
(-0.360482 -0.0967099 -0.0038689)
(1.86089 0.469277 -0.0153779)
(1.86079 0.469316 -6.47393e-08)
(1.86079 0.469316 6.46232e-08)
(1.86089 0.469277 0.0153779)
(2.64281 0.402437 -0.00637762)
(2.64277 0.402373 -2.55071e-07)
(2.64277 0.402373 2.55583e-07)
(2.64281 0.402437 0.00637762)
(2.58505 0.457327 -0.00697073)
(2.58498 0.457249 -3.95957e-07)
(2.58498 0.457249 3.96205e-07)
(2.58505 0.457327 0.00697073)
(2.69537 0.315637 -0.00579961)
(2.69536 0.315594 -1.07157e-07)
(2.69536 0.315594 1.07611e-07)
(2.69537 0.315637 0.00579961)
(2.77315 0.0354496 -0.0056625)
(2.77312 0.0354735 -9.32409e-08)
(2.77312 0.0354735 9.34215e-08)
(2.77315 0.0354496 0.0056625)
(2.77421 0.0905386 -0.00549003)
(2.77423 0.0906772 1.60072e-07)
(2.77423 0.0906772 -1.59909e-07)
(2.77421 0.0905386 0.00549003)
(2.74507 0.308407 -0.00526209)
(2.74507 0.308353 -2.01395e-08)
(2.74507 0.308353 2.03591e-08)
(2.74507 0.308407 0.00526209)
(2.79422 0.142732 -0.00524651)
(2.79427 0.142755 1.67164e-07)
(2.79427 0.142755 -1.66978e-07)
(2.79422 0.142732 0.00524651)
(2.80292 0.220001 -0.00490122)
(2.80292 0.219971 -2.76176e-08)
(2.80292 0.219971 2.78195e-08)
(2.80292 0.220001 0.00490122)
(2.76128 0.0352556 -0.00569554)
(2.76129 0.0353185 1.00085e-07)
(2.76129 0.0353185 -1.00074e-07)
(2.76128 0.0352556 0.00569554)
(1.90871 0.0430827 -0.0144026)
(1.90863 0.0430949 -4.01701e-09)
(1.90863 0.0430949 3.47143e-09)
(1.90871 0.0430827 0.0144026)
(1.49724 0.491012 -0.0158071)
(1.49721 0.491072 1.68927e-07)
(1.49721 0.491072 -1.68998e-07)
(1.49724 0.491012 0.0158071)
(1.50628 0.735 -0.0150876)
(1.50631 0.734903 -2.81207e-07)
(1.50631 0.734903 2.81514e-07)
(1.50628 0.735 0.0150876)
(0.910753 0.664918 -0.0159539)
(0.910775 0.664988 3.91292e-07)
(0.910775 0.664988 -3.91306e-07)
(0.910753 0.664918 0.0159539)
(0.95964 0.907648 -0.0149566)
(0.959655 0.907462 -3.78599e-07)
(0.959655 0.907462 3.78804e-07)
(0.95964 0.907648 0.0149566)
(-0.0168497 0.00114684 0.00339397)
(-0.0169436 0.00127948 -1.51115e-07)
(-0.0169435 0.00127953 1.46918e-07)
(-0.0168496 0.00114691 -0.00339396)
(-0.231374 -0.0371871 0.00323299)
(-0.231388 -0.0371692 3.84416e-08)
(-0.231388 -0.0371692 -4.28178e-08)
(-0.231374 -0.0371871 -0.00323299)
(-0.258318 -0.0653929 0.00302492)
(-0.258388 -0.0653401 -4.70955e-08)
(-0.258388 -0.0653401 4.62284e-08)
(-0.258318 -0.0653929 -0.00302492)
(-0.235378 -0.0106677 0.00297565)
(-0.2354 -0.0106534 6.12405e-08)
(-0.2354 -0.0106534 -5.92825e-08)
(-0.235378 -0.0106678 -0.00297565)
(-0.325601 0.0897131 0.00287329)
(-0.325632 0.0897718 -3.3458e-08)
(-0.325632 0.0897718 3.50474e-08)
(-0.325601 0.0897131 -0.00287329)
(-0.298132 0.160211 0.0029419)
(-0.298096 0.160222 -5.52719e-09)
(-0.298096 0.160222 4.77501e-09)
(-0.298132 0.160211 -0.0029419)
(-0.384585 0.212135 0.00299158)
(-0.384515 0.212122 -2.47049e-07)
(-0.384515 0.212122 2.45555e-07)
(-0.384585 0.212135 -0.00299157)
(-0.455834 0.28831 0.00320696)
(-0.455829 0.28833 1.11063e-08)
(-0.455829 0.28833 -1.2511e-08)
(-0.455834 0.28831 -0.00320695)
(-0.501829 0.253893 0.0034166)
(-0.501841 0.253865 1.23736e-08)
(-0.501841 0.253865 -1.37081e-08)
(-0.501828 0.253893 -0.0034166)
(-0.546647 0.210776 0.00374924)
(-0.546617 0.210742 -2.35555e-08)
(-0.546617 0.210742 2.26674e-08)
(-0.546647 0.210776 -0.00374924)
(-0.61298 0.203295 0.00420631)
(-0.612961 0.203261 -4.96768e-09)
(-0.612961 0.203261 4.06051e-09)
(-0.61298 0.203296 -0.00420631)
(-0.702245 0.194741 0.00485299)
(-0.70221 0.194681 2.26203e-08)
(-0.70221 0.194681 -2.80729e-08)
(-0.702245 0.194741 -0.00485298)
(-0.81981 0.190711 0.00580213)
(-0.819782 0.190643 5.94053e-08)
(-0.819782 0.190643 -6.05959e-08)
(-0.81981 0.190711 -0.00580213)
(-0.943171 0.179218 0.00718612)
(-0.943153 0.179135 1.23588e-07)
(-0.943153 0.179135 -1.22888e-07)
(-0.943171 0.179218 -0.00718612)
(-0.966507 0.178475 0.00917312)
(-0.966547 0.178329 2.02626e-07)
(-0.966548 0.178329 -2.0378e-07)
(-0.966507 0.178475 -0.00917312)
(-0.689676 0.216872 0.0116886)
(-0.689797 0.21666 3.20798e-07)
(-0.689797 0.21666 -3.22359e-07)
(-0.689676 0.216872 -0.0116885)
(0.000449356 0.318669 0.0138645)
(0.000294432 0.318389 5.15314e-07)
(0.000294126 0.318388 -5.15178e-07)
(0.000449232 0.318669 -0.0138645)
(-0.160328 -0.10022 0.0130129)
(-0.160394 -0.100498 5.69623e-08)
(-0.160394 -0.100498 -5.55995e-08)
(-0.160328 -0.10022 -0.013013)
(-0.304689 -0.42744 0.0115467)
(-0.304666 -0.427643 -4.95432e-07)
(-0.304667 -0.427643 4.95464e-07)
(-0.304689 -0.42744 -0.0115467)
(-0.327333 -0.611908 0.00973505)
(-0.327211 -0.611967 -8.02628e-07)
(-0.327211 -0.611967 8.03754e-07)
(-0.327334 -0.611908 -0.00973505)
(-0.331661 -0.656042 0.0081346)
(-0.331486 -0.656005 -7.94431e-07)
(-0.331486 -0.656005 7.95384e-07)
(-0.331661 -0.656042 -0.0081346)
(-0.251628 -0.609339 0.00697616)
(-0.251472 -0.609236 -7.30019e-07)
(-0.251472 -0.609236 7.29787e-07)
(-0.251628 -0.609339 -0.00697616)
(-0.213084 -0.543041 0.00626611)
(-0.21296 -0.542923 -5.63351e-07)
(-0.21296 -0.542923 5.62086e-07)
(-0.213084 -0.543041 -0.00626611)
(-0.124435 -0.496779 0.00578784)
(-0.124327 -0.496707 -4.3756e-07)
(-0.124327 -0.496707 4.36878e-07)
(-0.124435 -0.496779 -0.00578784)
(-0.167538 -0.464044 0.005553)
(-0.16743 -0.463958 -4.37545e-07)
(-0.16743 -0.463958 4.38231e-07)
(-0.167538 -0.464044 -0.005553)
(-0.0716042 -0.444787 0.00536869)
(-0.0715749 -0.444804 -4.46371e-07)
(-0.0715749 -0.444804 4.49272e-07)
(-0.0716042 -0.444787 -0.0053687)
(2.6885 -0.0114049 -0.00631499)
(2.68853 -0.0114319 6.43192e-08)
(2.68853 -0.0114319 -6.44489e-08)
(2.6885 -0.0114049 0.00631499)
(0.99495 0.0884048 -0.0170295)
(0.994964 0.0883669 -1.63535e-07)
(0.994964 0.0883669 1.63224e-07)
(0.99495 0.0884048 0.0170295)
(1.94445 0.0692638 -0.0123913)
(1.94454 0.0693567 4.66836e-07)
(1.94454 0.0693566 -4.67895e-07)
(1.94445 0.0692638 0.0123913)
(2.44378 -0.288102 -0.01068)
(2.44376 -0.288146 1.41967e-07)
(2.44376 -0.288146 -1.42798e-07)
(2.44378 -0.288102 0.01068)
(2.26104 0.00520845 -0.00921419)
(2.26104 0.00521458 2.31666e-07)
(2.26104 0.00521457 -2.32437e-07)
(2.26104 0.00520844 0.00921419)
(2.70653 -0.259622 -0.00803625)
(2.70652 -0.259607 1.12301e-07)
(2.70652 -0.259607 -1.12746e-07)
(2.70653 -0.259622 0.00803625)
(2.54876 0.552879 -0.00703901)
(2.54869 0.552817 -4.58969e-07)
(2.54869 0.552817 4.58888e-07)
(2.54876 0.552879 0.00703901)
(2.52874 0.567123 -0.00729532)
(2.52865 0.567116 -4.1432e-07)
(2.52865 0.567116 4.13903e-07)
(2.52874 0.567123 0.00729532)
(2.44399 0.657545 -0.0078281)
(2.44392 0.657534 -3.89472e-07)
(2.44392 0.657534 3.88709e-07)
(2.44399 0.657545 0.0078281)
(2.38064 0.728421 -0.00826764)
(2.38066 0.728328 -2.11489e-08)
(2.38066 0.728328 2.05201e-08)
(2.38064 0.728421 0.00826764)
(2.33229 0.826134 -0.00855994)
(2.33233 0.826024 -1.58772e-08)
(2.33233 0.826024 1.58906e-08)
(2.33229 0.826134 0.00855994)
(2.26846 0.891124 -0.0086443)
(2.26845 0.891044 -1.39237e-07)
(2.26845 0.891044 1.40069e-07)
(2.26846 0.891124 0.0086443)
(2.26877 0.974235 -0.00900048)
(2.26878 0.974211 -4.6891e-08)
(2.26878 0.974211 4.80685e-08)
(2.26877 0.974235 0.00900047)
(2.11934 1.08467 -0.00897624)
(2.11947 1.08455 1.7688e-07)
(2.11947 1.08455 -1.76061e-07)
(2.11934 1.08467 0.00897624)
(2.16585 1.07498 -0.00930572)
(2.16587 1.07503 1.33464e-07)
(2.16587 1.07503 -1.3339e-07)
(2.16585 1.07498 0.00930572)
(2.46777 -0.00393165 -0.00701718)
(2.46773 -0.00396028 1.44507e-09)
(2.46773 -0.00396028 -1.73621e-09)
(2.46777 -0.00393164 0.00701719)
(-0.18873 -0.375627 0.00546109)
(-0.188684 -0.375423 -4.85984e-07)
(-0.188684 -0.375423 4.86323e-07)
(-0.18873 -0.375627 -0.00546109)
(-0.169948 -0.408798 0.00529409)
(-0.169926 -0.408719 -3.17871e-07)
(-0.169926 -0.408719 3.18439e-07)
(-0.169948 -0.408798 -0.00529409)
(-0.109566 -0.284943 0.00494116)
(-0.109491 -0.284845 -3.43235e-07)
(-0.109491 -0.284845 3.43498e-07)
(-0.109566 -0.284943 -0.00494116)
(2.18322 1.31813 -0.00838838)
(2.1832 1.31813 -1.18125e-08)
(2.1832 1.31813 1.06972e-08)
(2.18322 1.31813 0.00838839)
(1.7732 0.844757 -0.01199)
(1.77329 0.84474 -1.24025e-08)
(1.77329 0.84474 1.30579e-08)
(1.7732 0.844757 0.01199)
(1.87012 1.0175 -0.0126151)
(1.8701 1.01751 5.90872e-08)
(1.8701 1.01751 -5.87225e-08)
(1.87012 1.0175 0.0126151)
(-0.335271 -0.195779 0.00461065)
(-0.335323 -0.195656 -2.12227e-07)
(-0.335323 -0.195656 2.11268e-07)
(-0.335271 -0.195779 -0.00461064)
(-0.0800042 -0.311037 0.0043027)
(-0.0800067 -0.310913 -1.87218e-07)
(-0.0800067 -0.310913 1.85348e-07)
(-0.0800042 -0.311037 -0.0043027)
(-0.182684 0.0678969 0.00379668)
(-0.182636 0.0679151 -1.10443e-07)
(-0.182636 0.0679151 1.08168e-07)
(-0.182684 0.067897 -0.00379668)
(-0.447857 -0.175509 0.00418239)
(-0.447838 -0.175264 -2.04625e-07)
(-0.447838 -0.175264 2.01689e-07)
(-0.447856 -0.175509 -0.00418239)
(-0.570804 0.0807534 0.00325182)
(-0.570618 0.0808417 3.78118e-09)
(-0.570618 0.0808417 -7.82563e-09)
(-0.570804 0.0807533 -0.00325182)
(1.90913 0.992577 -0.0110179)
(1.90902 0.992624 -3.03863e-07)
(1.90902 0.992624 3.04121e-07)
(1.90913 0.992577 0.0110179)
(-0.180474 0.51605 0.00402842)
(-0.180366 0.516106 -5.50687e-08)
(-0.180366 0.516106 5.4699e-08)
(-0.180474 0.51605 -0.00402842)
(-0.418461 0.133796 0.00412197)
(-0.418292 0.133838 -4.46758e-07)
(-0.418292 0.133838 4.44733e-07)
(-0.418461 0.133796 -0.00412197)
(-0.00636321 -0.0997058 0.00387434)
(-0.00635509 -0.0996432 -9.30467e-08)
(-0.00635508 -0.0996432 9.17372e-08)
(-0.00636317 -0.0997059 -0.00387434)
(-0.138316 -0.100946 0.00424218)
(-0.138326 -0.100834 -2.50584e-07)
(-0.138326 -0.100834 2.49387e-07)
(-0.138316 -0.100947 -0.00424218)
(-0.32653 -0.204989 0.00463078)
(-0.326497 -0.204911 -2.34151e-07)
(-0.326497 -0.204911 2.3407e-07)
(-0.32653 -0.204989 -0.00463078)
(-0.250509 -0.348437 0.00517782)
(-0.250329 -0.348268 -4.27997e-07)
(-0.250329 -0.348268 4.30267e-07)
(-0.250509 -0.348438 -0.00517782)
(-0.203367 -0.395289 0.00515204)
(-0.203358 -0.395143 -3.21811e-07)
(-0.203358 -0.395143 3.24928e-07)
(-0.203367 -0.395289 -0.00515204)
(0.591749 0.410027 -0.0173856)
(0.59178 0.409973 -4.06142e-07)
(0.59178 0.409973 4.05658e-07)
(0.591749 0.410027 0.0173856)
(1.95294 1.11342 -0.0100237)
(1.95301 1.11326 -2.9306e-07)
(1.95301 1.11326 2.92338e-07)
(1.95294 1.11342 0.0100237)
(2.05097 1.20602 -0.00890784)
(2.05087 1.20615 -2.60138e-07)
(2.05087 1.20615 2.58573e-07)
(2.05097 1.20602 0.00890785)
(2.86242 -0.202276 -0.00621559)
(2.86239 -0.202222 -3.0128e-08)
(2.86239 -0.202222 2.98512e-08)
(2.86242 -0.202276 0.00621559)
(-0.324331 -0.381574 0.00520098)
(-0.324312 -0.381211 -3.5391e-07)
(-0.324313 -0.381212 3.55302e-07)
(-0.324331 -0.381574 -0.00520098)
(-0.110313 -0.416425 0.00549512)
(-0.110224 -0.416208 -4.58305e-07)
(-0.110224 -0.416208 4.58728e-07)
(-0.110313 -0.416425 -0.00549512)
(-0.145893 -0.503549 0.00571727)
(-0.145864 -0.503349 -5.61926e-07)
(-0.145864 -0.503349 5.62121e-07)
(-0.145893 -0.503549 -0.00571727)
(-0.0820393 -0.601056 0.00628274)
(-0.0819511 -0.600886 -6.87168e-07)
(-0.0819512 -0.600886 6.86513e-07)
(-0.0820393 -0.601056 -0.00628274)
(-0.0192191 -0.64718 0.00706079)
(-0.0191076 -0.647058 -9.08656e-07)
(-0.0191078 -0.647058 9.07659e-07)
(-0.0192192 -0.64718 -0.00706078)
(0.0664921 -0.652477 0.00835844)
(0.0666137 -0.652465 -9.80754e-07)