/*--------------------------------*- C++ -*----------------------------------*\
| =========                 |                                                 |
| \\      /  F ield         | OpenFOAM: The Open Source CFD Toolbox           |
|  \\    /   O peration     | Version:  v1806                                 |
|   \\  /    A nd           | Web:      www.OpenFOAM.com                      |
|    \\/     M anipulation  |                                                 |
\*---------------------------------------------------------------------------*/
FoamFile
{
    version     2.0;
    format      ascii;
    class       volScalarField;
    location    "390";
    object      p;
}
// * * * * * * * * * * * * * * * * * * * * * * * * * * * * * * * * * * * * * //

dimensions      [0 2 -2 0 0 0 0];


internalField   nonuniform List<scalar> 
2400
(
3.43838e-05
3.56701e-05
3.72398e-05
4.05672e-05
4.4157e-05
5.01258e-05
5.57627e-05
6.48356e-05
7.25659e-05
8.51585e-05
9.43292e-05
0.0001098
0.000117855
0.000132488
0.00013296
0.000136704
0.000118026
9.36098e-05
4.48953e-05
-1.8285e-05
0.000102978
0.000106799
0.000111296
0.00012124
0.000131632
0.000149494
0.000165806
0.000193054
0.000215366
0.00025335
0.000279703
0.000326713
0.000349636
0.000394912
0.000395505
0.000409307
0.000353511
0.000284006
0.000138617
-4.77597e-05
0.000171183
0.000177387
0.00018485
0.000201225
0.000218434
0.000247881
0.000274926
0.000319939
0.000357
0.000419931
0.000463867
0.000542255
0.00058081
0.000657652
0.000659361
0.000686383
0.000593567
0.000483558
0.000238492
-7.12734e-05
0.000238726
0.000247136
0.00025768
0.000280299
0.000304447
0.000345151
0.000383135
0.000445497
0.000497684
0.000585207
0.000647402
0.000757393
0.000812683
0.000923085
0.000927081
0.000972701
0.00084199
0.000698841
0.000347135
-8.8964e-05
0.000305349
0.000315746
0.000329511
0.000358144
0.000389362
0.00044092
0.000490066
0.000569283
0.000637015
0.000748751
0.000830011
0.000972019
0.00104546
0.00119219
0.00120014
0.00127175
0.00110205
0.000936784
0.000467411
-9.70216e-05
0.0003708
0.000382909
0.000400062
0.000434419
0.000472861
0.00053476
0.000595338
0.000690768
0.000774578
0.000909991
0.0010114
0.00118578
0.0012794
0.00146555
0.00148021
0.00158674
0.00137758
0.00120515
0.00060284
-8.89711e-05
0.00043483
0.000448328
0.000469063
0.000508789
0.000554637
0.000626252
0.000698596
0.000809428
0.000910005
0.00106832
0.00119133
0.00139816
0.00151484
0.00174346
0.00176921
0.00192047
0.00167299
0.0015123
0.000757464
-5.55214e-05
0.000497191
0.00051172
0.000536246
0.000580934
0.000634391
0.000714986
0.000799492
0.00092473
0.00104292
0.00122307
0.00136953
0.00160847
0.00175206
0.00202568
0.00206908
0.00227502
0.00199339
0.00186686
0.000936077
1.67351e-05
0.000557641
0.000572817
0.000601354
0.000650541
0.000711821
0.000800558
0.000897674
0.00103612
0.00117294
0.00137347
0.00154569
0.00181575
0.00199124
0.00231145
0.00238175
0.00265155
0.0023448
0.00227724
0.00114503
0.000146435
0.000615941
0.000631373
0.00066413
0.000717313
0.000786627
0.000882576
0.000992779
0.00114304
0.00129962
0.0015187
0.00171938
0.00201879
0.00223235
0.0025994
0.00270904
0.00305009
0.00273426
0.00275116
0.00139361
0.000357993
0.00067186
0.000687163
0.000724324
0.000780971
0.0008585
0.000960665
0.00108443
0.00124494
0.0014225
0.00165788
0.00189008
0.00221622
0.00247519
0.00288757
0.00305252
0.00346934
0.00316986
0.00329495
0.00169615
0.000681752
0.000725169
0.00073999
0.000781689
0.000841257
0.000927126
0.00103448
0.00117221
0.00134128
0.00154104
0.0017901
0.00205715
0.00240647
0.00271929
0.0031735
0.00341347
0.00390641
0.00366043
0.00391236
0.00207484
0.00115453
0.000775642
0.00078968
0.00083598
0.000897939
0.000992176
0.00110371
0.00125569
0.00143157
0.00165461
0.00191449
0.0022197
0.0025879
0.00296386
0.00345441
0.00379297
0.00435698
0.00421518
0.00460255
0.00256181
0.00181992
0.00082306
0.000836091
0.000886953
0.000950813
0.00105331
0.00116809
0.00133438
0.00151539
0.00176247
0.0020302
0.00237657
0.00275878
0.00320752
0.00372738
0.00419203
0.00481658
0.00484452
0.00535727
0.00319921
0.00271896
0.000867202
0.000879103
0.000934369
0.000999702
0.00111016
0.00122741
0.00140773
0.00159239
0.00186371
0.00213646
0.0025263
0.00291717
0.00344788
0.00398906
0.0046107
0.00528276
0.00556397
0.00616151
0.00404073
0.00386521
0.00090785
0.000918617
0.000977999
0.00104445
0.00116239
0.00128149
0.00147518
0.00166231
0.00195726
0.00223273
0.00266674
0.00306133
0.00368145
0.00423378
0.005046
0.00575435
0.00639945
0.00700929
0.00516412
0.00522929
0.000944792
0.000954555
0.00101763
0.00108494
0.00120966
0.00133022
0.00153615
0.00172495
0.00204197
0.0023186
0.00279528
0.00318999
0.00390213
0.00445607
0.00548906
0.00621887
0.0073776
0.00793222
0.00670778
0.00667062
0.000977812
0.000986888
0.00105302
0.00112107
0.00125162
0.00137353
0.00159004
0.00178028
0.00211663
0.00239392
0.00290906
0.00330239
0.00410186
0.00465238
0.00591846
0.00665264
0.0084896
0.00900607
0.0089241
0.00764251
0.00100663
0.00101565
0.00108396
0.00115282
0.00128792
0.00141149
0.00163624
0.00182843
0.00218003
0.00245891
0.00300512
0.0033986
0.00427181
0.00482075
0.0063008
0.00704162
0.00966748
0.0101957
0.012542
0.00688091
0.00103109
0.00104067
0.00111061
0.00117976
0.00131881
0.00144346
0.00167517
0.0018685
0.0022326
0.00251226
0.00308344
0.00347661
0.00440929
0.00495668
0.00661748
0.00736564
0.0107623
0.0113934
0.0184422
0.00445158
-6.67963e-05
-8.13555e-05
-9.32027e-05
-0.000103303
-0.000113132
-0.000122984
-0.00013263
-0.00014184
-0.00015041
-0.000158158
-0.00017463
-0.000207361
-0.000238652
-0.000269087
-0.000299134
-0.000328756
-0.000357683
-0.000385694
-0.000412684
-0.000438656
-0.000284471
-0.00034136
-0.000396219
-0.000449382
-0.00050152
-0.000552646
-0.000602423
-0.000650526
-0.000696712
-0.000740824
-0.000397171
-0.000479918
-0.000559606
-0.000636555
-0.000711883
-0.000785698
-0.000857514
-0.000926834
-0.000993292
-0.00105667
-0.000510636
-0.000622129
-0.000729761
-0.000833576
-0.000934989
-0.00103418
-0.00113053
-0.00122334
-0.00131212
-0.00139656
-0.000625062
-0.000770416
-0.000910777
-0.00104561
-0.0011768
-0.00130476
-0.00142872
-0.0015478
-0.00166133
-0.00176894
-0.000741602
-0.000928667
-0.00110829
-0.00127935
-0.00144493
-0.00160594
-0.00176147
-0.00191031
-0.00205162
-0.00218493
-0.000862603
-0.00110326
-0.00133101
-0.00154479
-0.00175037
-0.00194973
-0.00214166
-0.00232448
-0.00249709
-0.002659
-0.000992738
-0.00130463
-0.00159232
-0.00185656
-0.00210873
-0.00235275
-0.00258685
-0.00280854
-0.00301641
-0.00320999
-0.00114086
-0.00154932
-0.00191225
-0.00223592
-0.00254219
-0.0028382
-0.0031211
-0.00338709
-0.00363436
-0.00386257
-0.00132324
-0.00186333
-0.0023205
-0.00271352
-0.00308211
-0.00343837
-0.00377744
-0.0040934
-0.00438398
-0.00464922
-0.00156823
-0.00228696
-0.00286079
-0.00333336
-0.00377292
-0.00419837
-0.0046013
-0.00497262
-0.00530952
-0.00561282
-0.00192133
-0.00287974
-0.00359579
-0.00415799
-0.00467729
-0.00518113
-0.00565522
-0.00608596
-0.00647015
-0.00680997
-0.00245322
-0.00372744
-0.00461471
-0.00527745
-0.00588601
-0.00647734
-0.00702825
-0.0075193
-0.00794739
-0.00831691
-0.00328329
-0.00496357
-0.00605228
-0.00682623
-0.0075341
-0.00822165
-0.0088522
-0.00939866
-0.00985899
-0.0102409
-0.00462877
-0.00682344
-0.00813767
-0.00901939
-0.00982384
-0.0106058
-0.0113078
-0.0118909
-0.0123545
-0.0127114
-0.00684521
-0.00972066
-0.0113041
-0.0122711
-0.0131331
-0.0139657
-0.0146864
-0.0152425
-0.0156347
-0.0158849
-0.0102767
-0.0139686
-0.0158677
-0.0169297
-0.0178233
-0.0186328
-0.0192637
-0.0196732
-0.019873
-0.0198994
-0.0154239
-0.0192348
-0.020848
-0.0218398
-0.0227262
-0.0234104
-0.0237933
-0.0239008
-0.0237958
-0.0235346
-0.0278182
-0.0292436
-0.0279698
-0.0275638
-0.0277603
-0.0279174
-0.027876
-0.0276871
-0.0274343
-0.0270687
-0.000178641
-0.000208354
-0.000221779
-0.000219157
-0.000205451
-0.000185525
-0.000162696
-0.000139174
-0.000116334
-9.54108e-05
-7.69351e-05
-6.10065e-05
-4.75097e-05
-3.63798e-05
-2.7204e-05
-1.98681e-05
-1.37963e-05
-8.99524e-06
-4.76251e-06
-1.3204e-06
-0.000523318
-0.000616511
-0.000656687
-0.000649813
-0.000610243
-0.000552005
-0.000484826
-0.000415306
-0.000348055
-0.000286134
-0.000231084
-0.000183549
-0.000143241
-0.000109916
-8.24638e-05
-6.04305e-05
-4.22879e-05
-2.78568e-05
-1.53149e-05
-5.09772e-06
-0.000880948
-0.0010367
-0.0011023
-0.00108886
-0.00102103
-0.000922312
-0.000809034
-0.000692286
-0.000579689
-0.000476257
-0.000384402
-0.000305209
-0.000238162
-0.000182762
-0.0001372
-0.000100625
-7.06006e-05
-4.66951e-05
-2.60003e-05
-8.9114e-06
-0.0012584
-0.00147851
-0.00156725
-0.00154308
-0.00144265
-0.00129959
-0.00113705
-0.000970677
-0.000811102
-0.000665096
-0.000535872
-0.000424796
-0.000331012
-0.000253691
-0.000190243
-0.000139412
-9.77776e-05
-6.47103e-05
-3.6077e-05
-1.24214e-05
-0.00166453
-0.00194976
-0.00205727
-0.00201617
-0.00187724
-0.00168483
-0.00146902
-0.00125011
-0.00104161
-0.00085185
-0.000684655
-0.000541488
-0.000421027
-0.000322024
-0.000241012
-0.000176314
-0.000123444
-8.16357e-05
-4.54223e-05
-1.57293e-05
-0.00210918
-0.00245924
-0.00257879
-0.00251231
-0.00232721
-0.00207909
-0.0018051
-0.00153013
-0.00127046
-0.00103562
-0.000829825
-0.0006544
-0.000507411
-0.000387069
-0.000288941
-0.000210875
-0.000147263
-9.7246e-05
-5.3941e-05
-1.88344e-05
-0.00260445
-0.00301716
-0.00313897
-0.00303604
-0.00279505
-0.00248332
-0.00214523
-0.00181014
-0.00149668
-0.00121531
-0.000970298
-0.000762512
-0.00058926
-0.000448047
-0.000333383
-0.000242573
-0.00016884
-0.000111257
-6.1463e-05
-2.16736e-05
-0.00316547
-0.00363533
-0.00374556
-0.00359198
-0.00328307
-0.00289817
-0.00248905
-0.00208924
-0.00171909
-0.00138966
-0.00110485
-0.0008647
-0.000665594
-0.000504121
-0.000373662
-0.000270855
-0.000187764
-0.000123359
-6.78011e-05
-2.41929e-05
-0.00381108
-0.00432727
-0.00440688
-0.0041848
-0.0037933
-0.0033239
-0.00283572
-0.00236602
-0.00193625
-0.00155724
-0.00123213
-0.000959752
-0.000735381
-0.000554423
-0.00040909
-0.000295159
-0.000203629
-0.000133224
-7.27753e-05
-2.63427e-05
-0.00456485
-0.00510836
-0.0051318
-0.00481917
-0.0043274
-0.00376033
-0.00318407
-0.0026389
-0.00214644
-0.00171639
-0.00135064
-0.00104636
-0.000797528
-0.000598046
-0.000438963
-0.000314908
-0.000216036
-0.000140503
-7.6217e-05
-2.80441e-05
-0.00545623
-0.00599584
-0.00592977
-0.00549963
-0.00488649
-0.00420669
-0.00353281
-0.00290587
-0.00234761
-0.00186522
-0.00145873
-0.00112309
-0.000850873
-0.000634048
-0.000462569
-0.000329517
-0.0002246
-0.000144808
-7.79767e-05
-2.91365e-05
-0.00652202
-0.00700895
-0.00681083
-0.00623042
-0.00547093
-0.00466114
-0.00387877
-0.00316431
-0.0025373
-0.00200152
-0.00155449
-0.00118841
-0.000894179
-0.000661455
-0.000479192
-0.000338401
-0.000228964
-0.000145712
-7.7941e-05
-2.93108e-05
-0.00780856
-0.00816934
-0.00778594
-0.00701488
-0.00607967
-0.00512071
-0.00421839
-0.00341064
-0.00271235
-0.00212266
-0.00163579
-0.00124063
-0.00092617
-0.000679316
-0.000488157
-0.000341026
-0.000228827
-0.000142775
-7.60561e-05
-2.80431e-05
-0.00937512
-0.00950151
-0.00886675
-0.00785381
-0.00670844
-0.00558024
-0.00454572
-0.00363969
-0.00286861
-0.00222545
-0.00170028
-0.00127809
-0.00094568
-0.000686844
-0.000488942
-0.000337011
-0.000224
-0.000135616
-7.23626e-05
-2.45776e-05
-0.0112943
-0.0110256
-0.0100597
-0.00874063
-0.00734693
-0.00602592
-0.00485099
-0.00384423
-0.00300086
-0.00230644
-0.00174579
-0.00129957
-0.00095206
-0.000683753
-0.000481424
-0.000326326
-0.00021452
-0.000124052
-6.70361e-05
-1.80071e-05
-0.0136231
-0.0127367
-0.011351
-0.00964625
-0.00796756
-0.0064374
-0.00511975
-0.00401477
-0.00310351
-0.00236285
-0.00177135
-0.00130513
-0.000945838
-0.00067076
-0.000466256
-0.000309551
-0.000200792
-0.00010828
-6.04134e-05
-7.46465e-06
-0.0163537
-0.0145572
-0.0126541
-0.010502
-0.00851688
-0.00678381
-0.00533451
-0.00414208
-0.0031729
-0.00239428
-0.00177831
-0.00129702
-0.000929464
-0.000650116
-0.000445231
-0.0002881
-0.000183713
-8.9017e-05
-5.29256e-05
7.5827e-06
-0.0193412
-0.0163184
-0.0138666
-0.0111716
-0.00894383
-0.00703771
-0.00548337
-0.00422247
-0.00321
-0.00240433
-0.00177156
-0.00128035
-0.000907609
-0.000625763
-0.000421368
-0.000264273
-0.000164651
-6.75968e-05
-4.48978e-05
2.69978e-05
-0.0216416
-0.0174444
-0.0147206
-0.0116026
-0.00923111
-0.00719021
-0.0055674
-0.00426116
-0.00322247
-0.00240117
-0.001759
-0.00126232
-0.000886488
-0.00060282
-0.000398559
-0.000241046
-0.000145325
-4.59511e-05
-3.65049e-05
4.98636e-05
-0.0235727
-0.0182599
-0.0152447
-0.011808
-0.00939075
-0.00725555
-0.00560361
-0.00427142
-0.00322121
-0.00239334
-0.00174763
-0.00124872
-0.000870965
-0.000585047
-0.000379943
-0.000220248
-0.000127586
-2.46577e-05
-2.90115e-05
7.68874e-05
-0.0238203
-0.0180614
-0.0153314
-0.011806
-0.00942861
-0.00724739
-0.00560205
-0.00426057
-0.00321151
-0.00238427
-0.00173986
-0.00124134
-0.000863181
-0.000574911
-0.00036936
-0.00020523
-0.000116944
-5.76792e-06
-2.78125e-05
0.00010584
-0.0233392
-0.0180499
-0.0153665
-0.0118114
-0.00944382
-0.0072454
-0.00560132
-0.00425609
-0.00320789
-0.00238146
-0.00173798
-0.00123983
-0.000861228
-0.000571565
-0.000365056
-0.00019869
-0.00011131
2.42456e-06
-2.55215e-05
0.000117144
-0.0230218
-0.0180465
-0.0153877
-0.0118192
-0.00945341
-0.00724521
-0.00560017
-0.00425283
-0.00320561
-0.00238044
-0.0017381
-0.00124046
-0.000861272
-0.000570153
-0.000362166
-0.000193719
-0.000106066
8.64949e-06
-2.18574e-05
0.000123729
-0.0228246
-0.0180388
-0.0153924
-0.0118221
-0.00945807
-0.0072438
-0.00559782
-0.00424967
-0.00320384
-0.00238042
-0.00173948
-0.00124251
-0.000862729
-0.000570047
-0.000360373
-0.000189667
-0.000101416
1.40699e-05
-1.8082e-05
0.000128034
-0.0227436
-0.0180301
-0.0153931
-0.0118233
-0.00945932
-0.00724141
-0.00559475
-0.00424677
-0.00320268
-0.00238141
-0.00174207
-0.00124588
-0.000865487
-0.000571164
-0.000359643
-0.000186541
-9.74553e-05
1.86919e-05
-1.4451e-05
0.00013043
-0.0227936
-0.0180351
-0.0153961
-0.0118237
-0.00945803
-0.0072388
-0.00559149
-0.00424454
-0.00320243
-0.00238358
-0.00174593
-0.00125056
-0.000869512
-0.000573511
-0.00035999
-0.00018447
-9.4246e-05
2.22806e-05
-1.09651e-05
0.000130743
-0.0229662
-0.0180486
-0.0153974
-0.0118245
-0.00945402
-0.00723597
-0.00558815
-0.00424313
-0.0032032
-0.00238695
-0.00175101
-0.00125648
-0.00087472
-0.000577035
-0.000361402
-0.00018351
-9.18728e-05
2.47272e-05
-7.7228e-06
0.000128945
-0.0232334
-0.0180479
-0.0153885
-0.0118202
-0.00944579
-0.00723209
-0.00558437
-0.0042424
-0.00320489
-0.00239143
-0.00175719
-0.00126348
-0.000880975
-0.000581615
-0.00036385
-0.000183634
-9.04402e-05
2.60669e-05
-4.90803e-06
0.000125196
-0.0236218
-0.018027
-0.0153546
-0.0118086
-0.00943194
-0.0072274
-0.0055801
-0.00424258
-0.0032077
-0.00239715
-0.00176455
-0.00127156
-0.000888277
-0.00058727
-0.000367358
-0.000184975
-8.99872e-05
2.60596e-05
-2.41379e-06
0.000119189
-0.0244018
-0.0179912
-0.0153153
-0.01181
-0.00941608
-0.0072281
-0.00557807
-0.00424616
-0.00321343
-0.00240548
-0.00177418
-0.00128159
-0.000897304
-0.00059473
-0.000372261
-0.000188531
-9.03695e-05
2.29917e-05
8.85569e-07
0.000107877
-0.0220915
-0.0183949
-0.0153055
-0.0118841
-0.00938439
-0.00724752
-0.00558294
-0.00426441
-0.00323508
-0.00243153
-0.00180205
-0.00130919
-0.000922075
-0.000616237
-0.000386876
-0.000202616
-9.35359e-05
7.54628e-06
9.49416e-06
6.92472e-05
-0.0199406
-0.0165608
-0.0140778
-0.0113627
-0.00906749
-0.0071043
-0.00551809
-0.00425259
-0.00325155
-0.00246407
-0.00184209
-0.00135108
-0.000962445
-0.000652547
-0.000417759
-0.000229515
-0.000112398
-1.46684e-05
3.98368e-06
3.93864e-05
-0.0159062
-0.0144544
-0.0127017
-0.0105928
-0.00858719
-0.00683985
-0.00538623
-0.00420396
-0.00325218
-0.00249172
-0.00188338
-0.00139764
-0.00101012
-0.000698814
-0.000460293
-0.000270166
-0.000144887
-4.88222e-05
-1.26095e-05
1.35923e-05
-0.0123245
-0.012028
-0.0109282
-0.00943272
-0.00789351
-0.00644035
-0.00516546
-0.00409505
-0.00321303
-0.00249459
-0.0019105
-0.00143747
-0.0010562
-0.000747882
-0.000508042
-0.000318218
-0.00018503
-8.82949e-05
-3.49443e-05
-6.53096e-06
-0.00970073
-0.00997827
-0.00938265
-0.00834984
-0.00715664
-0.0059663
-0.00487457
-0.00392816
-0.00312806
-0.00246191
-0.00191098
-0.00145855
-0.00108961
-0.00078926
-0.000551571
-0.000363954
-0.00022502
-0.00012543
-5.79707e-05
-2.03686e-05
-0.00765336
-0.00824625
-0.00800842
-0.00730661
-0.00639863
-0.00544433
-0.00453589
-0.00371607
-0.0030018
-0.00239394
-0.00188251
-0.00145652
-0.00110475
-0.00081642
-0.000584379
-0.000400753
-0.000259036
-0.000156022
-7.81361e-05
-2.89885e-05
-0.00611331
-0.00682537
-0.00682064
-0.00636879
-0.00569227
-0.00493478
-0.00418011
-0.00347562
-0.0028448
-0.00229661
-0.00182764
-0.00143179
-0.00110073
-0.000827266
-0.000603817
-0.00042577
-0.000284182
-0.000178532
-9.37244e-05
-3.40292e-05
-0.00493542
-0.00566271
-0.00580251
-0.0055338
-0.00503697
-0.00443802
-0.0038146
-0.00321521
-0.00266452
-0.00217557
-0.00175017
-0.00138645
-0.00107851
-0.000821983
-0.000609566
-0.000438626
-0.000299714
-0.000193011
-0.000104395
-3.68687e-05
-0.00402142
-0.00470911
-0.00492897
-0.00479048
-0.00443197
-0.00396195
-0.00345095
-0.00294437
-0.00246816
-0.00203625
-0.00165415
-0.00132335
-0.00104004
-0.000801925
-0.000602452
-0.000440114
-0.000306022
-0.000200258
-0.000110467
-3.82867e-05
-0.00330144
-0.00392314
-0.00417836
-0.00412908
-0.00387624
-0.00351064
-0.0030946
-0.00266951
-0.00226031
-0.00188268
-0.00154302
-0.00124525
-0.000987449
-0.00076881
-0.000583772
-0.000431465
-0.000303991
-0.000201196
-0.000112468
-3.8607e-05
-0.00272364
-0.00326977
-0.0035313
-0.00354014
-0.00336691
-0.00308501
-0.0027485
-0.00239427
-0.00204572
-0.00171848
-0.00141976
-0.00115469
-0.000922792
-0.000724383
-0.000554923
-0.000413944
-0.000294615
-0.000196659
-0.000110942
-3.79501e-05
-0.00225056
-0.00272055
-0.00297049
-0.00301438
-0.0028999
-0.00268458
-0.00241432
-0.00212149
-0.00182725
-0.0015464
-0.00128693
-0.0010539
-0.00084797
-0.000670284
-0.000517268
-0.000388741
-0.000278867
-0.000187389
-0.0001064
-3.63864e-05
-0.00185515
-0.00225274
-0.00248064
-0.00254287
-0.00247066
-0.00230793
-0.00209271
-0.00185296
-0.00160732
-0.00136934
-0.00114673
-0.000944807
-0.000764686
-0.000608022
-0.000472097
-0.000356956
-0.000257661
-0.000174058
-9.92984e-05
-3.39928e-05
-0.00151776
-0.00184833
-0.00204855
-0.00211731
-0.00207458
-0.00195308
-0.00178358
-0.00158972
-0.0013875
-0.00118888
-0.00100096
-0.000829116
-0.000674472
-0.000538968
-0.000420608
-0.000319607
-0.000231842
-0.000157277
-9.00436e-05
-3.08613e-05
-0.00122394
-0.00149308
-0.00166291
-0.00173006
-0.00170703
-0.00161769
-0.00148626
-0.00133217
-0.00116885
-0.00100646
-0.000851338
-0.000708351
-0.000578714
-0.000464385
-0.000363913
-0.000277635
-0.000202186
-0.000137612
-7.90002e-05
-2.7093e-05
-0.000962864
-0.00117568
-0.00131409
-0.00137416
-0.00136353
-0.00129922
-0.00119965
-0.00108029
-0.00095202
-0.000823135
-0.000698915
-0.000583568
-0.000478608
-0.000385401
-0.000303023
-0.00023191
-0.000169406
-0.000115591
-6.6501e-05
-2.27958e-05
-0.000726202
-0.000887003
-0.000993868
-0.00104326
-0.00103971
-0.000994936
-0.000922372
-0.000833702
-0.000737295
-0.000639591
-0.000544749
-0.000456218
-0.000375234
-0.000302984
-0.000238844
-0.00018323
-0.000134156
-9.16994e-05
-5.28477e-05
-1.8089e-05
-0.000507518
-0.000619673
-0.000695322
-0.000731734
-0.00073148
-0.000702173
-0.000652891
-0.000591773
-0.000524723
-0.000456318
-0.00038954
-0.000326928
-0.000269454
-0.00021802
-0.000172195
-0.000132313
-9.70167e-05
-6.63661e-05
-3.8284e-05
-1.30801e-05
-0.000300668
-0.000367188
-0.000412381
-0.000434615
-0.000435207
-0.000418516
-0.000389811
-0.000353898
-0.000314282
-0.00027371
-0.000233955
-0.000196549
-0.000162135
-0.000131329
-0.00010381
-7.98036e-05
-5.85109e-05
-3.99788e-05
-2.29965e-05
-7.78358e-06
-0.000102352
-0.000123561
-0.000138784
-0.000146234
-0.000146332
-0.000140616
-0.000130866
-0.000118715
-0.000105333
-9.166e-05
-7.82715e-05
-6.56941e-05
-5.40984e-05
-4.37586e-05
-3.45345e-05
-2.64913e-05
-1.93579e-05
-1.3144e-05
-7.43836e-06
-2.32583e-06
-0.0261103
-0.0269909
-0.024564
-0.0231155
-0.0227951
-0.022895
-0.0230731
-0.0232763
-0.0235154
-0.023702
-0.00734474
-0.0106637
-0.0124603
-0.0137687
-0.0150733
-0.0163287
-0.0173994
-0.0182405
-0.0188638
-0.0193085
-0.00604858
-0.00896703
-0.0105467
-0.0114423
-0.0122221
-0.0130045
-0.0137213
-0.0143173
-0.0147835
-0.0151351
-0.00331074
-0.00519734
-0.00634915
-0.00713367
-0.00786873
-0.00861581
-0.00932649
-0.00996012
-0.0105079
-0.0109755
-0.00200622
-0.00337759
-0.00435694
-0.00508878
-0.00575572
-0.00640652
-0.00701993
-0.00757339
-0.00806075
-0.00848471
-0.00143693
-0.00239142
-0.00313608
-0.00372506
-0.0042626
-0.00478374
-0.00527977
-0.00573768
-0.00615306
-0.00652711
-0.00113575
-0.00178895
-0.00234322
-0.00281319
-0.00325013
-0.00367342
-0.00407888
-0.00445887
-0.00480981
-0.00513137
-0.000965007
-0.00142049
-0.00183569
-0.00220895
-0.00256142
-0.00290222
-0.00322956
-0.0035394
-0.00382941
-0.00409896
-0.000855277
-0.001184
-0.00149769
-0.00179123
-0.00207227
-0.00234462
-0.00260735
-0.00285828
-0.00309584
-0.00331931
-0.000769017
-0.00101616
-0.00125676
-0.00148711
-0.0017102
-0.00192751
-0.00213825
-0.00234099
-0.0025346
-0.0027184
-0.000689644
-0.000882347
-0.0010701
-0.00125146
-0.00142857
-0.0016021
-0.00177125
-0.00193492
-0.00209226
-0.0022427
-0.000611598
-0.000765348
-0.000913946
-0.00105759
-0.00119859
-0.00133745
-0.00147341
-0.00160554
-0.00173318
-0.00185589
-0.000533956
-0.000657648
-0.000776192
-0.000890561
-0.00100312
-0.00111437
-0.00122363
-0.00133016
-0.00143342
-0.00153309
-0.000457355
-0.000556603
-0.000651194
-0.000742275
-0.000832016
-0.000920885
-0.00100834
-0.00109378
-0.00117681
-0.00125718
-0.000382549
-0.000461263
-0.000536065
-0.000608006
-0.000678913
-0.000749197
-0.000818441
-0.000886179
-0.000952114
-0.00101607
-0.000309813
-0.00037085
-0.000428788
-0.000484484
-0.000539382
-0.000593818
-0.000647482
-0.000700025
-0.000751227
-0.00080096
-0.000238962
-0.000284424
-0.000327643
-0.000369192
-0.000410108
-0.000450652
-0.000490618
-0.000529768
-0.000567951
-0.000605084
-0.000169754
-0.000201047
-0.000231054
-0.000260034
-0.000288554
-0.000316757
-0.000344519
-0.000371696
-0.000398181
-0.000423908
-0.000103169
-0.000120967
-0.00013795
-0.000154486
-0.000170891
-0.000187206
-0.000203335
-0.000219193
-0.000234752
-0.000250016
-4.06705e-05
-4.88051e-05
-5.52728e-05
-6.05849e-05
-6.5704e-05
-7.08942e-05
-7.60409e-05
-8.09993e-05
-8.56619e-05
-8.99548e-05
0.0010913
0.00110151
0.00117011
0.00124602
0.00138372
0.00151757
0.00174524
0.00195219
0.00230702
0.00260642
0.00315754
0.00358045
0.00447073
0.00506129
0.00663801
0.00744384
0.0106033
0.0112059
0.0165289
0.00149371
0.00108827
0.00109749
0.00116522
0.00124105
0.00137648
0.00150892
0.00173081
0.00193556
0.00227784
0.00257346
0.00309495
0.0035111
0.00432362
0.00490803
0.00622675
0.00703008
0.00908977
0.00980502
0.0105716
0.00969734
0.00107672
0.00108755
0.00115202
0.00122841
0.00135799
0.00149098
0.00170138
0.00190698
0.00222656
0.00252395
0.00299737
0.00341711
0.0041181
0.00470513
0.00572443
0.00650943
0.00771412
0.00836207
0.00771029
0.00733509
0.00105753
0.00107063
0.00113099
0.00120732
0.0013297
0.00146274
0.00165948
0.00186477
0.00215822
0.00245496
0.00287552
0.00329295
0.00387754
0.00445269
0.0051985
0.00591786
0.00651225
0.0071087
0.00556385
0.00512588
0.00103107
0.00104668
0.0011025
0.00117799
0.00129236
0.00142434
0.0016064
0.00180916
0.00207547
0.00236702
0.00273569
0.00314028
0.00362079
0.00415705
0.00469036
0.00531594
0.00551778
0.00597309
0.00415189
0.00343816
0.000997798
0.00101575
0.00106687
0.00114072
0.00124666
0.00137614
0.00154333
0.00174084
0.00198077
0.00226178
0.00258289
0.00296405
0.0033559
0.00383952
0.0042098
0.00472712
0.00468647
0.00494523
0.00318318
0.00215553
0.000958142
0.000977919
0.00102446
0.00109579
0.00119332
0.00131861
0.00147141
0.00166075
0.00187603
0.00214157
0.00242019
0.00277075
0.00308881
0.00351104
0.00376028
0.00416093
0.00398137
0.00404178
0.00247993
0.00125412
0.000912499
0.00093341
0.000975639
0.00104362
0.00113296
0.00125241
0.00139154
0.0015701
0.00176274
0.00200889
0.00225038
0.00256527
0.00282336
0.00317973
0.00334209
0.00362799
0.00338087
0.0032742
0.00195371
0.000678981
0.000861255
0.000882538
0.000920772
0.000984661
0.00106613
0.00117829
0.00130453
0.0014702
0.0016422
0.00186619
0.00207549
0.00235204
0.00256192
0.00285273
0.00295452
0.00313712
0.00286815
0.0026397
0.00154819
0.000331243
0.000804782
0.000825714
0.000860257
0.000919451
0.000993387
0.00109707
0.00121113
0.00136238
0.00151552
0.00171577
0.0018971
0.00213491
0.00230612
0.00253565
0.0025961
0.00269284
0.00242806
0.00212479
0.00122678
0.000129956
0.000743459
0.000763411
0.000794515
0.000848556
0.00091523
0.00100957
0.00111202
0.00124793
0.00138367
0.00155969
0.00171646
0.00191701
0.00205694
0.00223228
0.00226478
0.00229564
0.00204762
0.00171084
0.000968602
1.82693e-05
0.000677674
0.000696148
0.000723987
0.000772559
0.000832169
0.000916611
0.00100787
0.00112803
0.00124749
0.00139969
0.00153458
0.00170068
0.00181489
0.00194461
0.00195821
0.00194295
0.00171658
0.00137841
0.00076109
-4.18493e-05
0.000607832
0.000624464
0.000649137
0.000692048
0.000744709
0.000818961
0.00089929
0.00100371
0.00110774
0.00123717
0.00135221
0.00148746
0.00158011
0.00167313
0.00167396
0.00163005
0.00142695
0.00110937
0.000594759
-7.2749e-05
0.000534353
0.000548907
0.000570447
0.000607599
0.00065336
0.000717336
0.000786891
0.000875896
0.000965097
0.00107316
0.00116995
0.00127821
0.00135248
0.0014172
0.00140963
0.00135117
0.00117212
0.000888186
0.00046117
-8.5849e-05
0.00045768
0.000470022
0.00048841
0.000519779
0.000558635
0.000612394
0.00067125
0.000745322
0.000820146
0.000908412
0.000988198
0.0010732
0.00113164
0.00117532
0.00116281
0.00110037
0.000946229
0.000702666
0.00035324
-8.72246e-05
0.000378269
0.000388346
0.000403533
0.000429136
0.000461053
0.000504733
0.000552919
0.00061261
0.000673398
0.000743376
0.00080719
0.000872243
0.000916978
0.000945518
0.000930967
0.000872081
0.000743871
0.000543643
0.000265062
-8.05222e-05
0.000296594
0.000304402
0.000316326
0.000336203
0.000361131
0.000394906
0.000432425
0.000478269
0.00052529
0.000578311
0.000627011
0.000674852
0.000707663
0.000725577
0.000711455
0.000661273
0.000560051
0.00040417
0.000191617
-6.82577e-05
0.00021314
0.000218705
0.000227304
0.000241502
0.000259391
0.000283431
0.000310283
0.000342737
0.000376207
0.000413345
0.000447629
0.000480356
0.000502689
0.000513259
0.000501568
0.000463481
0.00039019
0.000278805
0.000128809
-5.24179e-05
0.000128401
0.00013175
0.000136976
0.000145526
0.000156342
0.000170774
0.000186965
0.000206366
0.000226456
0.000248487
0.000268896
0.000287984
0.000300936
0.000306387
0.000298643
0.000274794
0.000230185
0.000163129
7.36575e-05
-3.4151e-05
4.28961e-05
4.40216e-05
4.58195e-05
4.86945e-05
5.23712e-05
5.72105e-05
6.26902e-05
6.91768e-05
7.59498e-05
8.3279e-05
9.01158e-05
9.63944e-05
0.000100655
0.000102294
9.95413e-05
9.12929e-05
7.60778e-05
5.33926e-05
2.36421e-05
-1.28138e-05
0.00104554
0.00105447
0.00112728
0.00119385
0.00133832
0.00145927
0.00170013
0.00188674
0.00226676
0.00253398
0.0031346
0.0035045
0.00449738
0.00500286
0.00680835
0.00750275
0.0113916
0.0122301
0.0232185
0.0178518
0.001053
0.00106202
0.00113551
0.00120173
0.00134779
0.00146833
0.00171186
0.00189751
0.00228223
0.00254731
0.00315692
0.00352217
0.00453508
0.00503111
0.0068916
0.00757669
0.0116781
0.0127029
0.0248432
0.0240497
0.00105973
0.00106906
0.00114267
0.0012092
0.00135587
0.00147701
0.00172154
0.00190797
0.00229443
0.00256043
0.00317363
0.0035397
0.00456204
0.00505855
0.00695061
0.00764288
0.0118887
0.0131022
0.0259069
0.0283871
0.00106582
0.00107534
0.00114905
0.00121593
0.00136302
0.00148474
0.00172992
0.00191712
0.00230468
0.00257161
0.00318697
0.00355406
0.00458217
0.00507981
0.00699184
0.00769105
0.0120322
0.0133836
0.0266139
0.0311783
0.00107126
0.00108087
0.00115468
0.00122185
0.00136929
0.00149144
0.00173708
0.00192486
0.00231307
0.0025807
0.00319712
0.00356496
0.0045958
0.00509425
0.00701567
0.00771878
0.012107
0.0135304
0.0269801
0.0326041
0.00107605
0.00108566
0.00115953
0.00122702
0.00137461
0.00149717
0.00174294
0.00193128
0.0023195
0.00258784
0.00320389
0.00357264
0.00460252
0.00510225
0.00702134
0.00772603
0.0121103
0.0135342
0.0270075
0.03274
0.00108017
0.0010897
0.00116359
0.00123141
0.001379
0.00150192
0.00174751
0.00193637
0.00232396
0.00259302
0.00320726
0.00357714
0.00460221
0.00510388
0.00700884
0.00771283
0.012042
0.0133942
0.026695
0.0315891
0.00108365
0.00109296
0.0011669
0.001235
0.0013825
0.00150563
0.00175086
0.00194002
0.00232655
0.00259606
0.00320746
0.00357816
0.00459531
0.00509868
0.00697914
0.00767914
0.011905
0.0131159
0.0260457
0.0290891
0.0010865
0.00109546
0.00116948
0.0012378
0.00138516
0.00150833
0.00175304
0.00194229
0.00232732
0.00259701
0.00320452
0.0035756
0.00458305
0.00508646
0.00693225
0.0076276
0.0117008
0.0127113
0.0250645
0.0250951
0.0010886
0.00109748
0.00117102
0.00124031
0.00138654
0.00151085
0.00175325
0.00194452
0.00232507
0.00259809
0.00319589
0.00357262
0.00455811
0.00507458
0.00685927
0.00757107
0.011414
0.0122269
0.0235206
0.0192241
)
;

boundaryField
{
    inlet
    {
        type            zeroGradient;
    }
    outlet
    {
        type            fixedValue;
        value           uniform 0;
    }
    upAndBottom
    {
        type            empty;
    }
    obstacle
    {
        type            zeroGradient;
    }
}


// ************************************************************************* //
