/*--------------------------------*- C++ -*----------------------------------*\
| =========                 |                                                 |
| \\      /  F ield         | OpenFOAM: The Open Source CFD Toolbox           |
|  \\    /   O peration     | Version:  v1806                                 |
|   \\  /    A nd           | Web:      www.OpenFOAM.com                      |
|    \\/     M anipulation  |                                                 |
\*---------------------------------------------------------------------------*/
FoamFile
{
    version     2.0;
    format      ascii;
    class       volVectorField;
    location    "13";
    object      U;
}
// * * * * * * * * * * * * * * * * * * * * * * * * * * * * * * * * * * * * * //

dimensions      [0 1 -1 0 0 0 0];


internalField   nonuniform List<vector> 
4400
(
(2.84469 2.00815 0)
(2.67013 1.44346 0)
(2.62102 1.05015 0)
(2.5886 0.982335 0)
(2.59883 0.774625 0)
(2.64322 0.670678 0)
(2.69864 0.589256 0)
(2.75227 0.525196 0)
(2.79863 0.476857 0)
(2.83641 0.441763 0)
(2.8669 0.413764 0)
(2.89165 0.391658 0)
(2.91164 0.375234 0)
(2.92715 0.36364 0)
(2.93924 0.356205 0)
(2.94812 0.352681 0)
(2.95509 0.351278 0)
(2.96118 0.352816 0)
(2.96499 0.353443 0)
(2.97401 0.359305 0)
(2.99409 -0.109536 0)
(2.38926 -0.0517927 0)
(2.63742 -0.0689007 0)
(2.83043 0.0138452 0)
(2.87601 0.0563691 0)
(2.90055 0.122243 0)
(2.90728 0.16207 0)
(2.90809 0.202109 0)
(2.90977 0.230857 0)
(2.91384 0.254119 0)
(2.91932 0.273022 0)
(2.92508 0.288969 0)
(2.93084 0.300684 0)
(2.93673 0.310996 0)
(2.94375 0.318047 0)
(2.9507 0.32542 0)
(2.95893 0.3292 0)
(2.96677 0.334857 0)
(2.97384 0.336184 0)
(2.9859 0.342649 0)
(2.23472 0.479578 0)
(2.61265 0.481939 0)
(2.71241 0.575437 0)
(2.71277 0.553985 0)
(2.71661 0.52358 0)
(2.72329 0.492777 0)
(2.74036 0.464611 0)
(2.76333 0.439403 0)
(2.79007 0.413874 0)
(2.81639 0.391509 0)
(2.84175 0.370611 0)
(2.86489 0.351714 0)
(2.88646 0.33513 0)
(2.90684 0.321347 0)
(2.92607 0.310115 0)
(2.94321 0.300778 0)
(2.95866 0.293799 0)
(2.97172 0.289034 0)
(2.98388 0.285662 0)
(2.99983 0.286329 0)
(3.14273 -0.0648821 0)
(2.7015 -0.0322291 0)
(2.71748 -0.0818929 0)
(2.81122 -0.0535636 0)
(2.8527 -0.0452743 0)
(2.88041 -0.00860261 0)
(2.89398 0.0149115 0)
(2.90168 0.0475276 0)
(2.90688 0.0732109 0)
(2.9127 0.0986013 0)
(2.91922 0.120851 0)
(2.9261 0.140399 0)
(2.93375 0.157861 0)
(2.94172 0.171783 0)
(2.94931 0.183712 0)
(2.957 0.191714 0)
(2.96377 0.198875 0)
(2.97255 0.20051 0)
(2.98266 0.205425 0)
(2.99654 0.201255 0)
(2.40189 0.215289 0)
(2.66051 0.22898 0)
(2.76279 0.309283 0)
(2.7804 0.3177 0)
(2.78791 0.334625 0)
(2.79444 0.32714 0)
(2.80228 0.321956 0)
(2.81539 0.309101 0)
(2.83017 0.296898 0)
(2.84664 0.284049 0)
(2.86147 0.270681 0)
(2.87628 0.256891 0)
(2.89044 0.244092 0)
(2.90395 0.231215 0)
(2.91603 0.219938 0)
(2.92756 0.208401 0)
(2.93883 0.199389 0)
(2.95219 0.19056 0)
(2.96443 0.184945 0)
(2.97711 0.175945 0)
(3.19258 -0.0567709 0)
(2.90556 -0.0427826 0)
(2.83889 -0.0715896 0)
(2.87112 -0.0573895 0)
(2.89897 -0.0639202 0)
(2.91274 -0.0426125 0)
(2.9195 -0.027069 0)
(2.92153 -0.0045173 0)
(2.92406 0.0161763 0)
(2.92612 0.0376206 0)
(2.92916 0.058316 0)
(2.93369 0.0786343 0)
(2.93911 0.0978777 0)
(2.94449 0.116808 0)
(2.94921 0.133194 0)
(2.95472 0.149944 0)
(2.96141 0.163873 0)
(2.96818 0.178026 0)
(2.97349 0.187031 0)
(2.9786 0.197897 0)
(2.52974 0.13822 0)
(2.71359 0.152011 0)
(2.81877 0.203104 0)
(2.84356 0.215753 0)
(2.84996 0.239382 0)
(2.85441 0.245823 0)
(2.86143 0.249066 0)
(2.87109 0.249379 0)
(2.8821 0.247179 0)
(2.89252 0.24465 0)
(2.90501 0.241116 0)
(2.91753 0.237934 0)
(2.92976 0.234049 0)
(2.94007 0.230118 0)
(2.95059 0.226126 0)
(2.96119 0.223585 0)
(2.97205 0.220547 0)
(2.98106 0.220493 0)
(2.9903 0.218301 0)
(2.99765 0.223032 0)
(3.2222 -0.0492957 0)
(3.02297 -0.0410336 0)
(2.93065 -0.0607028 0)
(2.93145 -0.0518428 0)
(2.95164 -0.0598039 0)
(2.967 -0.0509785 0)
(2.97211 -0.0431817 0)
(2.97309 -0.0293778 0)
(2.97141 -0.0169291 0)
(2.97331 -0.00270879 0)
(2.97615 0.0108538 0)
(2.97927 0.0240036 0)
(2.98084 0.0358934 0)
(2.98315 0.046909 0)
(2.98729 0.0575257 0)
(2.99201 0.0665931 0)
(2.99736 0.0752076 0)
(3.00252 0.0813195 0)
(3.00845 0.0870158 0)
(3.01264 0.0907307 0)
(2.62831 0.0861977 0)
(2.76124 0.0923106 0)
(2.86074 0.12575 0)
(2.89362 0.132032 0)
(2.89685 0.149094 0)
(2.89605 0.151764 0)
(2.8985 0.155122 0)
(2.90371 0.150475 0)
(2.91136 0.146381 0)
(2.91964 0.139174 0)
(2.92724 0.131893 0)
(2.93395 0.122527 0)
(2.94064 0.113569 0)
(2.94877 0.103872 0)
(2.95681 0.0948279 0)
(2.96492 0.084617 0)
(2.97256 0.0759547 0)
(2.98021 0.0649934 0)
(2.98792 0.0586133 0)
(2.99758 0.0464164 0)
(3.20722 -0.0468147 0)
(3.07329 -0.0449719 0)
(2.97799 -0.0629367 0)
(2.95502 -0.0607245 0)
(2.96481 -0.0690008 0)
(2.9779 -0.0651552 0)
(2.98518 -0.0635398 0)
(2.98403 -0.0545119 0)
(2.98075 -0.0462727 0)
(2.97762 -0.0355324 0)
(2.97662 -0.0248357 0)
(2.97591 -0.0138449 0)
(2.97671 -0.00312549 0)
(2.9774 0.00733211 0)
(2.97834 0.0169654 0)
(2.97958 0.0258797 0)
(2.98049 0.0339067 0)
(2.98236 0.039961 0)
(2.98364 0.0452282 0)
(2.98614 0.0461462 0)
(2.69103 0.0732398 0)
(2.7799 0.0831914 0)
(2.87319 0.109988 0)
(2.91706 0.121707 0)
(2.92756 0.137829 0)
(2.92608 0.145616 0)
(2.92301 0.153429 0)
(2.92602 0.156508 0)
(2.93331 0.158214 0)
(2.94213 0.159044 0)
(2.94818 0.158101 0)
(2.95317 0.15689 0)
(2.95791 0.154874 0)
(2.96324 0.153296 0)
(2.96896 0.151379 0)
(2.97425 0.150406 0)
(2.97833 0.148287 0)
(2.9817 0.148463 0)
(2.98321 0.146742 0)
(2.98619 0.149977 0)
(3.21198 -0.0349623 0)
(3.12652 -0.0337977 0)
(3.03727 -0.0440037 0)
(2.99734 -0.0445909 0)
(2.99387 -0.0492754 0)
(3.00427 -0.0476536 0)
(3.01555 -0.0465576 0)
(3.01997 -0.0409185 0)
(3.01841 -0.0336942 0)
(3.01283 -0.0264237 0)
(3.00783 -0.0182748 0)
(3.00594 -0.00949175 0)
(3.00614 -0.000276899 0)
(3.00729 0.0087711 0)
(3.00787 0.0172791 0)
(3.00712 0.0248657 0)
(3.00682 0.0318586 0)
(3.00663 0.0391026 0)
(3.00858 0.0444569 0)
(3.00936 0.0529907 0)
(2.74774 0.0469591 0)
(2.80718 0.0510818 0)
(2.89027 0.0647937 0)
(2.93946 0.0718246 0)
(2.95624 0.0817944 0)
(2.95644 0.0855226 0)
(2.95124 0.0886054 0)
(2.94959 0.087788 0)
(2.95239 0.0851898 0)
(2.95826 0.0812834 0)
(2.96556 0.0771462 0)
(2.97179 0.0719854 0)
(2.97663 0.0664695 0)
(2.97999 0.0601144 0)
(2.98228 0.0536065 0)
(2.98554 0.0468856 0)
(2.99022 0.0411608 0)
(2.99559 0.0346418 0)
(3.00186 0.0307955 0)
(3.00654 0.0243261 0)
(3.18785 -0.0363306 0)
(3.13128 -0.0380161 0)
(3.05446 -0.0468398 0)
(3.01177 -0.0513029 0)
(2.99937 -0.0588691 0)
(3.0015 -0.0613912 0)
(3.01024 -0.0631374 0)
(3.01766 -0.0614005 0)
(3.01897 -0.0587603 0)
(3.01523 -0.0552221 0)
(3.00971 -0.0517692 0)
(3.00547 -0.0477451 0)
(3.00296 -0.0433015 0)
(3.00089 -0.0389749 0)
(2.99982 -0.0344804 0)
(2.99913 -0.0306622 0)
(2.99797 -0.0272959 0)
(2.99747 -0.0255053 0)
(2.99702 -0.0238535 0)
(2.9974 -0.0262948 0)
(2.78092 0.043967 0)
(2.82185 0.0495299 0)
(2.89167 0.0618434 0)
(2.9376 0.0712727 0)
(2.95834 0.0824873 0)
(2.96575 0.0892493 0)
(2.96559 0.0946931 0)
(2.96098 0.0970118 0)
(2.95681 0.0974242 0)
(2.95708 0.0969213 0)
(2.96208 0.0961002 0)
(2.96889 0.0953961 0)
(2.97392 0.0935308 0)
(2.97726 0.0915662 0)
(2.97894 0.088913 0)
(2.98007 0.0867788 0)
(2.98191 0.0848596 0)
(2.98439 0.0839514 0)
(2.98617 0.0830229 0)
(2.9889 0.0835479 0)
(3.17746 -0.022772 0)
(3.14298 -0.0221322 0)
(3.08243 -0.0274548 0)
(3.04086 -0.0308037 0)
(3.02173 -0.0351124 0)
(3.01543 -0.0359803 0)
(3.01614 -0.0359168 0)
(3.02062 -0.0337485 0)
(3.02557 -0.0299226 0)
(3.02821 -0.0248438 0)
(3.02693 -0.0191427 0)
(3.02217 -0.0141652 0)
(3.01689 -0.0092456 0)
(3.01273 -0.00446665 0)
(3.01052 0.000316709 0)
(3.01069 0.00538697 0)
(3.01095 0.0098033 0)
(3.0102 0.0142238 0)
(3.0087 0.0171548 0)
(3.00606 0.0209609 0)
(2.82337 0.0274076 0)
(2.8464 0.0292099 0)
(2.89991 0.0365909 0)
(2.94492 0.0429851 0)
(2.97122 0.0496648 0)
(2.98499 0.053373 0)
(2.98971 0.0558933 0)
(2.98748 0.0560104 0)
(2.98257 0.0544584 0)
(2.97867 0.0515427 0)
(2.9774 0.0478525 0)
(2.97866 0.0440751 0)
(2.98133 0.0406739 0)
(2.9839 0.0370987 0)
(2.9866 0.0338782 0)
(2.98819 0.0304041 0)
(2.98949 0.0273088 0)
(2.99143 0.0245852 0)
(2.99411 0.022695 0)
(2.99684 0.021683 0)
(3.15131 -0.0204457 0)
(3.13571 -0.0215664 0)
(3.09339 -0.0266808 0)
(3.05243 -0.0316819 0)
(3.02702 -0.0364825 0)
(3.01434 -0.0391517 0)
(3.00838 -0.0420367 0)
(3.00755 -0.0437191 0)
(3.01124 -0.0439063 0)
(3.01632 -0.0423682 0)
(3.01896 -0.0400802 0)
(3.01824 -0.0374651 0)
(3.01498 -0.0352461 0)
(3.01157 -0.0329268 0)
(3.00924 -0.0305318 0)
(3.00866 -0.0281866 0)
(3.00925 -0.0257402 0)
(3.00956 -0.0245275 0)
(3.00893 -0.0234106 0)
(3.0073 -0.0253474 0)
(2.85337 0.0215003 0)
(2.86433 0.0240512 0)
(2.90249 0.0294903 0)
(2.94595 0.0358292 0)
(2.97721 0.0428886 0)
(2.9919 0.0475183 0)
(2.99552 0.0517716 0)
(2.99521 0.0550999 0)
(2.99304 0.0571099 0)
(2.98869 0.0569118 0)
(2.98362 0.0550241 0)
(2.97978 0.05218 0)
(2.97869 0.049357 0)
(2.98038 0.0469762 0)
(2.98331 0.0447115 0)
(2.98553 0.0426052 0)
(2.98588 0.0400289 0)
(2.98544 0.0379475 0)
(2.98456 0.035878 0)
(2.98601 0.0353967 0)
(3.12907 -0.0148758 0)
(3.12404 -0.0148292 0)
(3.09669 -0.0162648 0)
(3.06131 -0.0192526 0)
(3.03216 -0.0235564 0)
(3.01494 -0.0269477 0)
(3.00804 -0.0298385 0)
(3.00528 -0.0317596 0)
(3.00347 -0.0329379 0)
(3.00299 -0.0328774 0)
(3.00447 -0.0316428 0)
(3.00713 -0.0295367 0)
(3.00951 -0.0270756 0)
(3.01031 -0.0247552 0)
(3.00936 -0.0226756 0)
(3.00772 -0.0208219 0)
(3.00692 -0.0189268 0)
(3.00691 -0.016965 0)
(3.00795 -0.0153458 0)
(3.0082 -0.0134722 0)
(2.08445 -0.77878 0)
(2.12238 -0.664012 0)
(2.08994 -0.535241 0)
(2.08055 -0.410351 0)
(2.07093 -0.285673 0)
(2.06518 -0.162063 0)
(2.0631 -0.0390123 0)
(2.06469 0.0839092 0)
(2.06998 0.207153 0)
(2.07903 0.331183 0)
(2.09193 0.456453 0)
(2.1087 0.583567 0)
(2.13003 0.712617 0)
(2.15426 0.845379 0)
(2.18689 0.979261 0)
(2.21558 1.12162 0)
(2.26708 1.25903 0)
(2.29048 1.4163 0)
(2.37579 1.54866 0)
(2.37104 1.71961 0)
(2.22505 -0.0532319 0)
(2.18832 -0.043679 0)
(2.14822 -0.0361765 0)
(2.10978 -0.0271346 0)
(2.07906 -0.0174798 0)
(2.05805 -0.00735301 0)
(2.04755 0.00308427 0)
(2.04787 0.0136767 0)
(2.0592 0.0242636 0)
(2.08179 0.0346442 0)
(2.11604 0.044623 0)
(2.16253 0.0539883 0)
(2.22195 0.0625431 0)
(2.29521 0.069967 0)
(2.38262 0.0761312 0)
(2.48514 0.0804443 0)
(2.59916 0.0833968 0)
(2.72375 0.0823595 0)
(2.83964 0.0743572 0)
(2.93638 0.0905716 0)
(2.55737 0.0152298 0)
(2.54908 0.0340769 0)
(2.55012 0.0543631 0)
(2.55624 0.0756681 0)
(2.56439 0.0978743 0)
(2.57277 0.120785 0)
(2.58042 0.144192 0)
(2.58682 0.167896 0)
(2.59164 0.191711 0)
(2.59466 0.215454 0)
(2.59559 0.238934 0)
(2.59409 0.261949 0)
(2.5897 0.284277 0)
(2.58175 0.305683 0)
(2.5694 0.325881 0)
(2.55149 0.344617 0)
(2.52706 0.361441 0)
(2.49483 0.376158 0)
(2.45637 0.390176 0)
(2.41366 0.39435 0)
(2.68796 -0.0527036 0)
(2.69006 -0.0508225 0)
(2.68639 -0.0491889 0)
(2.68048 -0.0478176 0)
(2.67515 -0.0467083 0)
(2.67232 -0.0458352 0)
(2.67315 -0.0451688 0)
(2.67827 -0.0446878 0)
(2.68799 -0.0443799 0)
(2.70251 -0.0442398 0)
(2.72195 -0.0442653 0)
(2.74641 -0.044455 0)
(2.77594 -0.0448035 0)
(2.81048 -0.0452983 0)
(2.84973 -0.0459119 0)
(2.89298 -0.0466077 0)
(2.93882 -0.0473053 0)
(2.98493 -0.0478087 0)
(3.02772 -0.0476715 0)
(3.06312 -0.0463087 0)
(2.74074 0.054324 0)
(2.73035 0.0616707 0)
(2.72535 0.0692014 0)
(2.72434 0.0769447 0)
(2.72575 0.084878 0)
(2.72821 0.0929483 0)
(2.73062 0.101091 0)
(2.73219 0.10924 0)
(2.73236 0.117334 0)
(2.73067 0.125313 0)
(2.7268 0.133123 0)
(2.72042 0.140708 0)
(2.7112 0.148011 0)
(2.69884 0.154976 0)
(2.68305 0.161543 0)
(2.66364 0.167657 0)
(2.64064 0.173288 0)
(2.61437 0.178404 0)
(2.58519 0.182792 0)
(2.55216 0.186469 0)
(2.84875 -0.0570663 0)
(2.85438 -0.0565395 0)
(2.85654 -0.0560348 0)
(2.85666 -0.0555989 0)
(2.85615 -0.0552549 0)
(2.85625 -0.0550072 0)
(2.8579 -0.0548489 0)
(2.86178 -0.0547673 0)
(2.86835 -0.0547479 0)
(2.87789 -0.0547763 0)
(2.8906 -0.0548378 0)
(2.90658 -0.0549173 0)
(2.92584 -0.0549975 0)
(2.94828 -0.0550571 0)
(2.97363 -0.0550712 0)
(3.0014 -0.0550138 0)
(3.0308 -0.0548467 0)
(3.06073 -0.0544725 0)
(3.08989 -0.0537669 0)
(3.11684 -0.0531947 0)
(2.82595 0.0479068 0)
(2.81664 0.052186 0)
(2.81065 0.0565005 0)
(2.80734 0.0608749 0)
(2.8059 0.065313 0)
(2.80545 0.0698021 0)
(2.80521 0.0743187 0)
(2.80451 0.078834 0)
(2.8028 0.083317 0)
(2.79964 0.0877371 0)
(2.79469 0.0920643 0)
(2.78767 0.0962699 0)
(2.77834 0.100326 0)
(2.76654 0.104204 0)
(2.75215 0.107881 0)
(2.73516 0.11134 0)
(2.71564 0.114572 0)
(2.69369 0.117547 0)
(2.66926 0.120183 0)
(2.64171 0.122805 0)
(2.94195 -0.0541802 0)
(2.94778 -0.0539204 0)
(2.95134 -0.0536397 0)
(2.95337 -0.0533658 0)
(2.95466 -0.0531171 0)
(2.956 -0.0529029 0)
(2.95806 -0.0527242 0)
(2.96139 -0.0525765 0)
(2.96643 -0.0524516 0)
(2.97349 -0.052339 0)
(2.98278 -0.0522266 0)
(2.99444 -0.0521013 0)
(3.00851 -0.0519483 0)
(3.02495 -0.0517515 0)
(3.04361 -0.0514953 0)
(3.06422 -0.0511663 0)
(3.08636 -0.0507451 0)
(3.10946 -0.0501739 0)
(3.13278 -0.049397 0)
(3.15533 -0.04874 0)
(2.8759 0.0450651 0)
(2.86805 0.0471654 0)
(2.86243 0.0492667 0)
(2.85867 0.0513832 0)
(2.85626 0.0535206 0)
(2.85462 0.0556758 0)
(2.85321 0.0578393 0)
(2.85151 0.0599971 0)
(2.84907 0.0621326 0)
(2.84553 0.0642276 0)
(2.84057 0.066264 0)
(2.83396 0.0682235 0)
(2.82551 0.0700885 0)
(2.81508 0.0718425 0)
(2.8026 0.0734708 0)
(2.78804 0.0749636 0)
(2.77143 0.0763129 0)
(2.75284 0.0774897 0)
(2.73235 0.0784513 0)
(2.71007 0.0794474 0)
(2.97984 -0.0452597 0)
(2.98525 -0.0454273 0)
(2.98903 -0.0455684 0)
(2.99164 -0.0456995 0)
(2.99358 -0.0458329 0)
(2.99538 -0.0459758 0)
(2.99753 -0.0461306 0)
(3.00047 -0.0462959 0)
(3.00456 -0.0464667 0)
(3.01008 -0.0466362 0)
(3.01725 -0.0467958 0)
(3.02621 -0.0469359 0)
(3.03704 -0.0470462 0)
(3.04974 -0.047116 0)
(3.06424 -0.0471353 0)
(3.08039 -0.0470961 0)
(3.09789 -0.0469833 0)
(3.11633 -0.0467547 0)
(3.13509 -0.0463785 0)
(3.15329 -0.0460855 0)
(2.89729 0.0351217 0)
(2.89074 0.0370658 0)
(2.88578 0.0389989 0)
(2.88217 0.0409315 0)
(2.87955 0.0428693 0)
(2.87753 0.0448126 0)
(2.87569 0.0467573 0)
(2.87364 0.0486956 0)
(2.87103 0.0506173 0)
(2.86755 0.0525101 0)
(2.86294 0.0543611 0)
(2.85699 0.0561573 0)
(2.84953 0.0578857 0)
(2.84043 0.0595343 0)
(2.82962 0.0610931 0)
(2.81708 0.0625548 0)
(2.80285 0.0639118 0)
(2.78709 0.0651418 0)
(2.7701 0.0662264 0)
(2.75231 0.0673557 0)
(3.02344 -0.0408131 0)
(3.0282 -0.0407 0)
(3.03177 -0.0405593 0)
(3.03445 -0.0404026 0)
(3.03658 -0.040239 0)
(3.03852 -0.0400743 0)
(3.04063 -0.0399113 0)
(3.04323 -0.0397496 0)
(3.04662 -0.0395861 0)
(3.05103 -0.0394159 0)
(3.05667 -0.0392324 0)
(3.06368 -0.0390283 0)
(3.07215 -0.0387953 0)
(3.08214 -0.0385249 0)
(3.09363 -0.038209 0)
(3.10651 -0.0378408 0)
(3.1206 -0.0374075 0)
(3.13557 -0.0368764 0)
(3.15093 -0.036224 0)
(3.16601 -0.0356278 0)
(2.9196 0.0340589 0)
(2.91423 0.0348725 0)
(2.91003 0.0356714 0)
(2.90681 0.0364627 0)
(2.90431 0.0372507 0)
(2.90225 0.0380366 0)
(2.90032 0.0388186 0)
(2.89823 0.0395923 0)
(2.8957 0.0403513 0)
(2.89247 0.0410875 0)
(2.88835 0.0417919 0)
(2.88312 0.0424551 0)
(2.87666 0.0430671 0)
(2.86883 0.0436185 0)
(2.85958 0.0441004 0)
(2.8489 0.0445056 0)
(2.83685 0.0448254 0)
(2.82365 0.0450396 0)
(2.80961 0.045134 0)
(2.79525 0.0452497 0)
(3.03547 -0.0315701 0)
(3.03955 -0.031975 0)
(3.04274 -0.032354 0)
(3.04524 -0.032715 0)
(3.04729 -0.0330645 0)
(3.04916 -0.0334067 0)
(3.05109 -0.0337436 0)
(3.05335 -0.0340752 0)
(3.05615 -0.0343994 0)
(3.0597 -0.0347125 0)
(3.06417 -0.0350095 0)
(3.0697 -0.0352842 0)
(3.07637 -0.0355297 0)
(3.08426 -0.0357383 0)
(3.09335 -0.0359024 0)
(3.10358 -0.0360145 0)
(3.1148 -0.0360623 0)
(3.12673 -0.0360185 0)
(3.139 -0.035866 0)
(3.15104 -0.0357453 0)
(2.91884 0.0263149 0)
(2.91452 0.0273474 0)
(2.91108 0.0283621 0)
(2.90836 0.029365 0)
(2.90618 0.03036 0)
(2.90432 0.031349 0)
(2.90255 0.0323314 0)
(2.90064 0.0333045 0)
(2.89838 0.0342639 0)
(2.89558 0.0352035 0)
(2.89205 0.0361162 0)
(2.88763 0.0369938 0)
(2.88222 0.0378275 0)
(2.8757 0.0386083 0)
(2.86804 0.0393271 0)
(2.85924 0.0399761 0)
(2.84942 0.0405456 0)
(2.83878 0.041017 0)
(2.82765 0.0413793 0)
(2.81653 0.0417479 0)
(3.05948 -0.0283954 0)
(3.06281 -0.0283666 0)
(3.06548 -0.0283122 0)
(3.06764 -0.0282384 0)
(3.06945 -0.0281505 0)
(3.0711 -0.0280519 0)
(3.07278 -0.0279446 0)
(3.07466 -0.0278284 0)
(3.07692 -0.0277016 0)
(3.07971 -0.0275612 0)
(3.08316 -0.0274024 0)
(3.08738 -0.0272195 0)
(3.09246 -0.0270056 0)
(3.09845 -0.0267529 0)
(3.10534 -0.0264533 0)
(3.11309 -0.026099 0)
(3.12157 -0.0256792 0)
(3.13058 -0.0251716 0)
(3.13984 -0.0245605 0)
(3.14899 -0.0239586 0)
(2.92902 0.0235557 0)
(2.92571 0.0239876 0)
(2.92304 0.0243995 0)
(2.9209 0.0247962 0)
(2.91914 0.025181 0)
(2.9176 0.0255555 0)
(2.91612 0.0259198 0)
(2.91453 0.0262721 0)
(2.91267 0.0266091 0)
(2.91038 0.0269261 0)
(2.90754 0.0272172 0)
(2.90403 0.0274756 0)
(2.89975 0.0276935 0)
(2.89464 0.0278628 0)
(2.88868 0.0279754 0)
(2.88189 0.0280236 0)
(2.87437 0.0279988 0)
(2.86629 0.0278863 0)
(2.85792 0.0276782 0)
(2.84962 0.0274621 0)
(3.06635 -0.0202015 0)
(3.06889 -0.0204326 0)
(3.07096 -0.0206408 0)
(3.07266 -0.020831 0)
(3.0741 -0.0210069 0)
(3.07541 -0.0211711 0)
(3.07671 -0.0213247 0)
(3.07814 -0.0214673 0)
(3.07982 -0.0215974 0)
(3.08185 -0.0217118 0)
(3.08433 -0.0218064 0)
(3.08734 -0.0218756 0)
(3.09095 -0.0219131 0)
(3.09518 -0.0219117 0)
(3.10004 -0.021864 0)
(3.10549 -0.021763 0)
(3.11145 -0.0215993 0)
(3.11778 -0.0213535 0)
(3.12431 -0.0210127 0)
(3.13079 -0.020685 0)
(2.92838 0.0173211 0)
(2.92596 0.0177269 0)
(2.92401 0.0181141 0)
(2.92243 0.0184867 0)
(2.92113 0.0188478 0)
(2.91999 0.0191988 0)
(2.91888 0.0195401 0)
(2.9177 0.0198707 0)
(2.91632 0.0201882 0)
(2.91465 0.0204892 0)
(2.91258 0.0207692 0)
(2.91004 0.0210228 0)
(2.90696 0.0212438 0)
(2.90331 0.0214256 0)
(2.89907 0.0215616 0)
(2.89427 0.0216462 0)
(2.88898 0.0216729 0)
(2.88332 0.0216274 0)
(2.87747 0.0214976 0)
(2.87169 0.0213611 0)
(3.07378 -0.0153221 0)
(3.07558 -0.0154611 0)
(3.07705 -0.0155845 0)
(3.07827 -0.0156964 0)
(3.0793 -0.0157999 0)
(3.08024 -0.0158974 0)
(3.08116 -0.0159902 0)
(3.08214 -0.0160783 0)
(3.08327 -0.0161608 0)
(3.08462 -0.016236 0)
(3.08624 -0.016301 0)
(3.0882 -0.016352 0)
(3.09053 -0.0163847 0)
(3.09326 -0.0163939 0)
(3.09638 -0.0163743 0)
(3.09988 -0.0163207 0)
(3.10369 -0.0162279 0)
(3.10774 -0.0160888 0)
(3.11189 -0.015897 0)
(3.11601 -0.0156702 0)
(2.39764 -0.633711 0)
(2.39164 -0.641518 0)
(2.38554 -0.651484 0)
(2.38405 -0.663214 0)
(2.38726 -0.677251 0)
(2.3961 -0.693754 0)
(2.41097 -0.712967 0)
(2.43189 -0.735017 0)
(2.45837 -0.759946 0)
(2.48927 -0.787651 0)
(2.52278 -0.817808 0)
(2.55642 -0.849774 0)
(2.58699 -0.882535 0)
(2.61064 -0.914775 0)
(2.62263 -0.944983 0)
(2.61699 -0.971324 0)
(2.58592 -0.990712 0)
(2.51977 -0.996169 0)
(2.40937 -0.972356 0)
(2.25429 -0.899578 0)
(2.55631 -0.170212 0)
(2.54138 -0.163822 0)
(2.52083 -0.156852 0)
(2.49483 -0.149436 0)
(2.46329 -0.141579 0)
(2.42604 -0.133369 0)
(2.38323 -0.124931 0)
(2.33545 -0.116433 0)
(2.28385 -0.108069 0)
(2.23029 -0.100055 0)
(2.17742 -0.0926152 0)
(2.12867 -0.0859669 0)
(2.08814 -0.0803028 0)
(2.06028 -0.0757632 0)
(2.04931 -0.0723991 0)
(2.05818 -0.0701242 0)
(2.0871 -0.0686304 0)
(2.13156 -0.0672693 0)
(2.18074 -0.0649211 0)
(2.21803 -0.0604537 0)
(2.61077 -0.231982 0)
(2.61879 -0.226407 0)
(2.63103 -0.220815 0)
(2.64657 -0.215021 0)
(2.66493 -0.208939 0)
(2.68553 -0.202444 0)
(2.70758 -0.195373 0)
(2.72999 -0.187539 0)
(2.75144 -0.178735 0)
(2.77042 -0.168752 0)
(2.78524 -0.1574 0)
(2.79417 -0.144532 0)
(2.79554 -0.130081 0)
(2.78788 -0.114088 0)
(2.7702 -0.0967313 0)
(2.74229 -0.078332 0)
(2.70528 -0.0593271 0)
(2.66221 -0.0402005 0)
(2.61848 -0.0213708 0)
(2.58129 -0.00299721 0)
(2.68622 -0.0889258 0)
(2.66995 -0.0856543 0)
(2.6502 -0.0822265 0)
(2.62784 -0.078897 0)
(2.60366 -0.0756876 0)
(2.57857 -0.0726343 0)
(2.55364 -0.0697948 0)
(2.5302 -0.0672278 0)
(2.50975 -0.0649838 0)
(2.4939 -0.063101 0)
(2.48427 -0.061599 0)
(2.48224 -0.0604742 0)
(2.48879 -0.0596941 0)
(2.50422 -0.0591923 0)
(2.52794 -0.0588652 0)
(2.55821 -0.0585712 0)
(2.59218 -0.0581393 0)
(2.626 -0.0573971 0)
(2.6554 -0.0562193 0)
(2.67668 -0.0545996 0)
(2.77979 -0.0831567 0)
(2.79149 -0.0785194 0)
(2.80563 -0.0738986 0)
(2.82158 -0.0690457 0)
(2.83863 -0.0639114 0)
(2.85601 -0.0584575 0)
(2.87289 -0.0526366 0)
(2.88836 -0.0464066 0)
(2.90142 -0.0397405 0)
(2.91108 -0.0326321 0)
(2.91639 -0.0251017 0)
(2.9165 -0.0172001 0)
(2.91082 -0.00900891 0)
(2.89907 -0.000638001 0)
(2.88147 0.00778179 0)
(2.85886 0.0161167 0)
(2.83278 0.0242518 0)
(2.80543 0.0321128 0)
(2.77942 0.0396896 0)
(2.75727 0.047049 0)
(2.78585 -0.0674346 0)
(2.77154 -0.0657944 0)
(2.75596 -0.0640515 0)
(2.73965 -0.0624281 0)
(2.72334 -0.0609619 0)
(2.70785 -0.0596717 0)
(2.69409 -0.0585835 0)
(2.68299 -0.0577206 0)
(2.67547 -0.057097 0)
(2.67236 -0.0567157 0)
(2.6743 -0.0565659 0)
(2.68163 -0.0566221 0)
(2.69432 -0.0568423 0)
(2.71185 -0.0571686 0)
(2.73321 -0.0575295 0)
(2.75692 -0.057847 0)
(2.78114 -0.0580467 0)
(2.80392 -0.0580721 0)
(2.82348 -0.0578989 0)
(2.83858 -0.0575448 0)
(2.88451 -0.0413756 0)
(2.89649 -0.037894 0)
(2.90932 -0.0344724 0)
(2.92258 -0.0308925 0)
(2.93572 -0.0271205 0)
(2.94813 -0.0231473 0)
(2.95915 -0.0189599 0)
(2.96812 -0.0145511 0)
(2.97438 -0.00992628 0)
(2.97735 -0.00510484 0)
(2.97655 -0.000120176 0)
(2.97167 0.00498084 0)
(2.96263 0.0101407 0)
(2.94964 0.015296 0)
(2.93325 0.0203836 0)
(2.91433 0.0253492 0)
(2.89408 0.0301555 0)
(2.87386 0.034789 0)
(2.85506 0.0392637 0)
(2.83884 0.0436182 0)
(2.86129 -0.0566655 0)
(2.84884 -0.0557691 0)
(2.83646 -0.0547954 0)
(2.82454 -0.0539344 0)
(2.81359 -0.0532174 0)
(2.80417 -0.0526487 0)
(2.79689 -0.0522397 0)
(2.79231 -0.0519982 0)
(2.79092 -0.0519233 0)
(2.79308 -0.052005 0)
(2.79896 -0.0522237 0)
(2.80849 -0.0525507 0)
(2.82135 -0.0529491 0)
(2.83694 -0.0533753 0)
(2.8544 -0.0537833 0)
(2.87269 -0.0541291 0)
(2.8907 -0.0543765 0)
(2.90734 -0.0545024 0)
(2.92175 -0.0545013 0)
(2.93335 -0.0543852 0)
(2.95128 -0.00143193 0)
(2.96208 0.000259825 0)
(2.97271 0.0019487 0)
(2.98283 0.00380205 0)
(2.99205 0.00578614 0)
(2.99995 0.0079063 0)
(3.00609 0.0101668 0)
(3.01006 0.0125629 0)
(3.01149 0.0150815 0)
(3.01009 0.0177015 0)
(3.00572 0.0203947 0)
(2.99833 0.0231275 0)
(2.98812 0.0258635 0)
(2.97542 0.0285664 0)
(2.9608 0.0312038 0)
(2.94497 0.033751 0)
(2.92877 0.0361941 0)
(2.91307 0.0385317 0)
(2.89864 0.0407746 0)
(2.88613 0.0429437 0)
(2.88918 -0.0387106 0)
(2.8792 -0.0384603 0)
(2.8699 -0.0381644 0)
(2.86161 -0.037989 0)
(2.85469 -0.0379418 0)
(2.84951 -0.0380171 0)
(2.84643 -0.0382158 0)
(2.84575 -0.0385365 0)
(2.8477 -0.0389712 0)
(2.85239 -0.0395058 0)
(2.85977 -0.0401203 0)
(2.86964 -0.0407898 0)
(2.88163 -0.0414861 0)
(2.8952 -0.0421792 0)
(2.90971 -0.0428404 0)
(2.92444 -0.0434443 0)
(2.93865 -0.0439725 0)
(2.9517 -0.0444147 0)
(2.96309 -0.0447701 0)
(2.9725 -0.0450469 0)
(2.98672 -0.00914185 0)
(2.99526 -0.00732671 0)
(3.00312 -0.00552963 0)
(3.01001 -0.00360178 0)
(3.01564 -0.00155739 0)
(3.01975 0.000590278 0)
(3.02207 0.00283714 0)
(3.02238 0.00517488 0)
(3.02052 0.00758866 0)
(3.0164 0.0100586 0)
(3.01002 0.012561 0)
(3.00153 0.0150703 0)
(2.99116 0.0175604 0)
(2.97928 0.0200075 0)
(2.96637 0.0223917 0)
(2.95298 0.0246996 0)
(2.93969 0.0269247 0)
(2.92706 0.0290687 0)
(2.91557 0.0311398 0)
(2.90558 0.0331519 0)
(2.92831 -0.0388159 0)
(2.92095 -0.0384779 0)
(2.91458 -0.0381266 0)
(2.90943 -0.0378877 0)
(2.90576 -0.0377627 0)
(2.90378 -0.0377405 0)
(2.90368 -0.0378158 0)
(2.90558 -0.0379816 0)
(2.90953 -0.0382264 0)
(2.91549 -0.0385342 0)
(2.92332 -0.038886 0)
(2.93277 -0.0392605 0)
(2.94351 -0.0396353 0)
(2.95511 -0.0399885 0)
(2.9671 -0.0403006 0)
(2.97898 -0.0405558 0)
(2.99029 -0.0407436 0)
(3.00062 -0.0408593 0)
(3.00969 -0.0409043 0)
(3.01731 -0.0408854 0)
(3.01839 0.0130811 0)
(3.02421 0.0138162 0)
(3.02908 0.0145447 0)
(3.03281 0.0153975 0)
(3.03521 0.0163545 0)
(3.03614 0.0173954 0)
(3.03547 0.0185114 0)
(3.03311 0.0196918 0)
(3.02903 0.0209215 0)
(3.02327 0.0221832 0)
(3.01593 0.023458 0)
(3.00719 0.0247268 0)
(2.99732 0.0259717 0)
(2.98663 0.0271771 0)
(2.97549 0.0283309 0)
(2.96431 0.0294254 0)
(2.95347 0.0304579 0)
(2.94333 0.0314302 0)
(2.93419 0.0323482 0)
(2.92625 0.033221 0)
(2.93623 -0.0191481 0)
(2.93179 -0.0194244 0)
(2.92837 -0.0196998 0)
(2.92615 -0.0200923 0)
(2.92527 -0.0205874 0)
(2.92586 -0.0211672 0)
(2.92798 -0.0218226 0)
(2.93164 -0.0225438 0)
(2.93682 -0.0233176 0)
(2.94339 -0.024129 0)
(2.95121 -0.0249613 0)
(2.96003 -0.0257976 0)
(2.96958 -0.0266212 0)
(2.97953 -0.0274167 0)
(2.98954 -0.0281715 0)
(2.99929 -0.0288758 0)
(3.00845 -0.0295238 0)
(3.0168 -0.0301138 0)
(3.02413 -0.0306476 0)
(3.03036 -0.0311306 0)
(3.0243 0.000252387 0)
(3.02709 0.0012672 0)
(3.02892 0.00238805 0)
(3.02967 0.00360926 0)
(3.02924 0.00491099 0)
(3.02757 0.00627807 0)
(3.0246 0.00769925 0)
(3.02036 0.00916206 0)
(3.01487 0.0106519 0)
(3.00823 0.012153 0)
(3.00057 0.0136496 0)
(2.99208 0.0151267 0)
(2.98298 0.0165711 0)
(2.97354 0.0179717 0)
(2.96402 0.0193208 0)
(2.95472 0.020614 0)
(2.94588 0.0218505 0)
(2.93773 0.0230327 0)
(2.93045 0.0241659 0)
(2.92414 0.0252572 0)
(2.96056 -0.0232131 0)
(2.95901 -0.0232959 0)
(2.95836 -0.0233864 0)
(2.95873 -0.0235684 0)
(2.96016 -0.0238277 0)
(2.96271 -0.0241454 0)
(2.96637 -0.0245103 0)
(2.9711 -0.0249118 0)
(2.97683 -0.0253376 0)
(2.98343 -0.0257741 0)
(2.99075 -0.0262077 0)
(2.99861 -0.0266251 0)
(3.00678 -0.0270142 0)
(3.01504 -0.0273646 0)
(3.02317 -0.027668 0)
(3.03094 -0.0279192 0)
(3.03817 -0.0281155 0)
(3.04471 -0.0282573 0)
(3.05047 -0.0283476 0)
(3.05539 -0.0283915 0)
(3.03276 0.00851763 0)
(3.03295 0.00920372 0)
(3.0323 0.00989987 0)
(3.03077 0.0106832 0)
(3.02831 0.0115266 0)
(3.02491 0.0124093 0)
(3.02059 0.0133198 0)
(3.0154 0.0142466 0)
(3.0094 0.0151771 0)
(3.0027 0.0160985 0)
(2.99543 0.0169989 0)
(2.98776 0.0178675 0)
(2.97986 0.0186957 0)
(2.97193 0.0194765 0)
(2.96415 0.0202057 0)
(2.95671 0.0208816 0)
(2.94976 0.021505 0)
(2.94345 0.0220788 0)
(2.93787 0.0226078 0)
(2.93306 0.0230979 0)
(2.97467 -0.00905969 0)
(2.97545 -0.00961421 0)
(2.97691 -0.0101626 0)
(2.97908 -0.0107831 0)
(2.982 -0.0114492 0)
(2.98564 -0.012142 0)
(2.98999 -0.0128521 0)
(2.99498 -0.0135705 0)
(3.00054 -0.0142872 0)
(3.00657 -0.014992 0)
(3.01293 -0.0156754 0)
(3.0195 -0.0163284 0)
(3.02612 -0.0169438 0)
(3.03266 -0.0175155 0)
(3.03896 -0.0180396 0)
(3.04489 -0.018514 0)
(3.05036 -0.0189388 0)
(3.05527 -0.0193159 0)
(3.05958 -0.0196487 0)
(3.06327 -0.0199421 0)
(3.02266 0.00229168 0)
(3.02105 0.00311461 0)
(3.01882 0.00394664 0)
(3.01595 0.00483591 0)
(3.01244 0.00575575 0)
(3.0083 0.00668854 0)
(3.00357 0.00762479 0)
(2.99831 0.00855538 0)
(2.99258 0.00947058 0)
(2.98648 0.0103611 0)
(2.98014 0.0112188 0)
(2.97366 0.0120367 0)
(2.96718 0.0128095 0)
(2.96082 0.0135339 0)
(2.95473 0.0142081 0)
(2.949 0.0148326 0)
(2.94374 0.0154092 0)
(2.93902 0.0159414 0)
(2.93488 0.0164339 0)
(2.93134 0.016892 0)
(2.99499 -0.00593697 0)
(2.99731 -0.00656055 0)
(3.00006 -0.00718801 0)
(3.00323 -0.00783527 0)
(3.00682 -0.00848953 0)
(3.0108 -0.00914137 0)
(3.01514 -0.00978429 0)
(3.01978 -0.0104117 0)
(3.02465 -0.0110169 0)
(3.0297 -0.0115937 0)
(3.03482 -0.0121366 0)
(3.03994 -0.012641 0)
(3.04496 -0.0131036 0)
(3.04981 -0.0135222 0)
(3.0544 -0.0138963 0)
(3.05866 -0.0142264 0)
(3.06254 -0.0145146 0)
(3.066 -0.0147639 0)
(3.06902 -0.0149784 0)
(3.07161 -0.0151628 0)
(0.623798 -1.57679 0)
(0.749005 -1.04372 0)
(0.443202 -0.825864 0)
(0.400011 -0.521344 0)
(0.291432 -0.33886 0)
(0.216408 -0.179462 0)
(0.153148 -0.0651647 0)
(0.101447 0.0166846 0)
(0.0596496 0.0705112 0)
(0.0269545 0.103044 0)
(0.00252069 0.118546 0)
(-0.0146209 0.120931 0)
(-0.0255455 0.113614 0)
(-0.0315015 0.0996526 0)
(-0.0336875 0.0818142 0)
(-0.0331094 0.0622721 0)
(-0.0304208 0.0427291 0)
(-0.0257523 0.0246259 0)
(-0.0186175 0.00962841 0)
(-0.00792373 0.0015769 0)
(1.74284 -1.25739 0)
(1.45461 -0.952162 0)
(1.19661 -0.822619 0)
(0.962856 -0.625287 0)
(0.764794 -0.469251 0)
(0.591392 -0.32883 0)
(0.440909 -0.213186 0)
(0.313253 -0.121158 0)
(0.206829 -0.0510508 0)
(0.120487 -0.000455335 0)
(0.0525454 0.0334338 0)
(0.00102473 0.0535326 0)
(-0.036194 0.0626524 0)
(-0.0612874 0.0632648 0)
(-0.0762934 0.0574374 0)
(-0.0828153 0.0471167 0)
(-0.0817262 0.0341913 0)
(-0.0728237 0.0205404 0)
(-0.0545603 0.0083285 0)
(-0.0238985 0.00144395 0)
(2.12445 -1.12521 0)
(1.87107 -1.00779 0)
(1.65467 -0.852287 0)
(1.41626 -0.716121 0)
(1.18425 -0.574384 0)
(0.961206 -0.447821 0)
(0.754592 -0.334977 0)
(0.568791 -0.239312 0)
(0.407021 -0.161223 0)
(0.270455 -0.100064 0)
(0.158579 -0.054278 0)
(0.0697259 -0.0218252 0)
(0.00157476 -0.000553579 0)
(-0.0483162 0.0116888 0)
(-0.082196 0.01691 0)
(-0.101777 0.0169322 0)
(-0.107873 0.0135245 0)
(-0.100086 0.00839631 0)
(-0.0765363 0.00328147 0)
(-0.0337326 0.000477081 0)
(2.37779 -1.01347 0)
(2.21237 -0.921065 0)
(2.00704 -0.851493 0)
(1.78483 -0.744775 0)
(1.54729 -0.638168 0)
(1.30237 -0.525742 0)
(1.06038 -0.418722 0)
(0.83088 -0.321067 0)
(0.622061 -0.236584 0)
(0.439509 -0.166908 0)
(0.285821 -0.112052 0)
(0.160971 -0.0708104 0)
(0.0631337 -0.0412958 0)
(-0.010376 -0.0214081 0)
(-0.0622688 -0.0090663 0)
(-0.094709 -0.00232277 0)
(-0.108909 0.000558614 0)
(-0.104864 0.00107054 0)
(-0.0812691 0.000500295 0)
(-0.0356145 5.12038e-05 0)
(2.52517 -0.988495 0)
(2.38404 -0.941013 0)
(2.25355 -0.866393 0)
(2.07105 -0.788259 0)
(1.86046 -0.694184 0)
(1.62295 -0.594899 0)
(1.3699 -0.492272 0)
(1.11375 -0.392821 0)
(0.867383 -0.30142 0)
(0.641896 -0.221951 0)
(0.445028 -0.156448 0)
(0.280559 -0.105158 0)
(0.148827 -0.0669368 0)
(0.0478987 -0.0398457 0)
(-0.0251407 -0.0217171 0)
(-0.073102 -0.010432 0)
(-0.0979667 -0.00407053 0)
(-0.100521 -0.00103321 0)
(-0.0802786 -6.89309e-06 0)
(-0.0356431 7.71215e-05 0)
(2.60566 -0.912466 0)
(2.5401 -0.878386 0)
(2.42983 -0.847622 0)
(2.29445 -0.792319 0)
(2.11914 -0.725645 0)
(1.90805 -0.643816 0)
(1.66582 -0.552996 0)
(1.4031 -0.457469 0)