/*--------------------------------*- C++ -*----------------------------------*\
| =========                 |                                                 |
| \\      /  F ield         | OpenFOAM: The Open Source CFD Toolbox           |
|  \\    /   O peration     | Version:  v1806                                 |
|   \\  /    A nd           | Web:      www.OpenFOAM.com                      |
|    \\/     M anipulation  |                                                 |
\*---------------------------------------------------------------------------*/
FoamFile
{
    version     2.0;
    format      ascii;
    class       volVectorField;
    location    "500";
    object      U;
}
// * * * * * * * * * * * * * * * * * * * * * * * * * * * * * * * * * * * * * //

dimensions      [0 1 -1 0 0 0 0];


internalField   nonuniform List<vector> 
2400
(
(0.299999 -0.00131425 0)
(0.299991 -0.00399936 0)
(0.299968 -0.00667072 0)
(0.299931 -0.00947291 0)
(0.299874 -0.0122864 0)
(0.299799 -0.0153084 0)
(0.299704 -0.0183474 0)
(0.299586 -0.0216583 0)
(0.299455 -0.0249663 0)
(0.299297 -0.0285714 0)
(0.299147 -0.0321225 0)
(0.298977 -0.0359156 0)
(0.298848 -0.0395665 0)
(0.29873 -0.0432784 0)
(0.2987 -0.0467141 0)
(0.298744 -0.0498927 0)
(0.298929 -0.0526001 0)
(0.299269 -0.0546795 0)
(0.299788 -0.0560407 0)
(0.300507 -0.0565204 0)
(0.299998 -0.0013091 0)
(0.299976 -0.00398778 0)
(0.299928 -0.00664517 0)
(0.299858 -0.0094414 0)
(0.299757 -0.0122354 0)
(0.299635 -0.0152545 0)
(0.299485 -0.0182671 0)
(0.299311 -0.0215833 0)
(0.299125 -0.0248589 0)
(0.298919 -0.0284854 0)
(0.298734 -0.0320037 0)
(0.298544 -0.0358441 0)
(0.298437 -0.0394778 0)
(0.298363 -0.0432688 0)
(0.298456 -0.0467306 0)
(0.298661 -0.0500181 0)
(0.299101 -0.05282 0)
(0.299754 -0.0550261 0)
(0.300653 -0.0565298 0)
(0.301797 -0.0571313 0)
(0.299997 -0.001299 0)
(0.299961 -0.00396476 0)
(0.299882 -0.00659783 0)
(0.299772 -0.00938511 0)
(0.299615 -0.0121486 0)
(0.29943 -0.0151675 0)
(0.299206 -0.0181416 0)
(0.298958 -0.0214756 0)
(0.298696 -0.0247047 0)
(0.298418 -0.0283813 0)
(0.298181 -0.0318515 0)
(0.297949 -0.0357894 0)
(0.297855 -0.0393928 0)
(0.297814 -0.0433351 0)
(0.298036 -0.0468205 0)
(0.298402 -0.0502927 0)
(0.299129 -0.0532043 0)
(0.300121 -0.0555802 0)
(0.301453 -0.0572462 0)
(0.30309 -0.0579561 0)
(0.299995 -0.001284 0)
(0.299946 -0.00393004 0)
(0.299835 -0.00652846 0)
(0.299683 -0.00930327 0)
(0.299465 -0.0120254 0)
(0.299213 -0.0150464 0)
(0.298908 -0.017969 0)
(0.298578 -0.0213335 0)
(0.298227 -0.0244995 0)
(0.297867 -0.0282565 0)
(0.297562 -0.0316563 0)
(0.297273 -0.0357496 0)
(0.297177 -0.0392943 0)
(0.297144 -0.0434776 0)
(0.297492 -0.04696 0)
(0.297992 -0.050723 0)
(0.299017 -0.0537402 0)
(0.300336 -0.0563622 0)
(0.30213 -0.0582181 0)
(0.304288 -0.0590472 0)
(0.299994 -0.00126432 0)
(0.299931 -0.00388335 0)
(0.299788 -0.0064369 0)
(0.299592 -0.00919424 0)
(0.299312 -0.0118636 0)
(0.29899 -0.0148867 0)
(0.298599 -0.017744 0)
(0.29818 -0.0211493 0)
(0.297732 -0.0242331 0)
(0.297278 -0.0281012 0)
(0.296891 -0.0314011 0)
(0.296527 -0.0357156 0)
(0.296412 -0.0391561 0)
(0.29636 -0.0436952 0)
(0.296823 -0.0471156 0)
(0.297417 -0.0513236 0)
(0.298759 -0.0544035 0)
(0.300375 -0.0574019 0)
(0.302675 -0.059462 0)
(0.305379 -0.060439 0)
(0.299994 -0.00124015 0)
(0.299915 -0.00382406 0)
(0.299741 -0.0063231 0)
(0.299498 -0.00905644 0)
(0.299156 -0.0116625 0)
(0.29876 -0.0146853 0)
(0.298278 -0.017464 0)
(0.297765 -0.0209178 0)
(0.297209 -0.0238995 0)
(0.296651 -0.0279081 0)
(0.296163 -0.0310735 0)
(0.295706 -0.0356815 0)
(0.295549 -0.0389544 0)
(0.295443 -0.0439917 0)
(0.296008 -0.0472488 0)
(0.296646 -0.0521201 0)
(0.298331 -0.0551529 0)
(0.300193 -0.0587447 0)
(0.303077 -0.0609763 0)
(0.306342 -0.0621659 0)
(0.299994 -0.00121167 0)
(0.299898 -0.00375143 0)
(0.299693 -0.0061871 0)
(0.299402 -0.00888821 0)
(0.298996 -0.0114216 0)
(0.298521 -0.0144387 0)
(0.297946 -0.0171275 0)
(0.297329 -0.0206326 0)
(0.296656 -0.0234942 0)
(0.29598 -0.0276681 0)
(0.295372 -0.0306622 0)
(0.294798 -0.0356378 0)
(0.294569 -0.0386649 0)
(0.294374 -0.0443676 0)
(0.29502 -0.0473138 0)
(0.29564 -0.0531437 0)
(0.297703 -0.0559262 0)
(0.299729 -0.0604622 0)
(0.303324 -0.0627365 0)
(0.30714 -0.0642898 0)
(0.299995 -0.00117908 0)
(0.29988 -0.00366462 0)
(0.299646 -0.00602903 0)
(0.299301 -0.00868758 0)
(0.298833 -0.0111407 0)
(0.298272 -0.0141427 0)
(0.297602 -0.0167331 0)
(0.296868 -0.0202857 0)
(0.296071 -0.0230135 0)
(0.295257 -0.0273674 0)
(0.29451 -0.0301579 0)
(0.293792 -0.0355673 0)
(0.293457 -0.0382653 0)
(0.293132 -0.0448145 0)
(0.293826 -0.0472624 0)
(0.294356 -0.0544246 0)
(0.296834 -0.0566434 0)
(0.298912 -0.0626561 0)
(0.303404 -0.0646838 0)
(0.30771 -0.0669254 0)
(0.299998 -0.00114254 0)
(0.29986 -0.00356281 0)
(0.299601 -0.00584906 0)
(0.299194 -0.00845248 0)
(0.29867 -0.0108199 0)
(0.298008 -0.0137924 0)
(0.29725 -0.0162805 0)
(0.296379 -0.0198667 0)
(0.295457 -0.0224552 0)
(0.294476 -0.0269874 0)
(0.293574 -0.0295545 0)
(0.292676 -0.0354432 0)
(0.292195 -0.037739 0)
(0.291696 -0.0453098 0)
(0.29239 -0.0470513 0)
(0.292754 -0.0559821 0)
(0.295676 -0.0572143 0)
(0.297653 -0.0654479 0)
(0.303299 -0.066722 0)
(0.30796 -0.070264 0)
(0.300003 -0.00110213 0)
(0.299837 -0.0034453 0)
(0.299559 -0.00564728 0)
(0.299079 -0.00818091 0)
(0.298509 -0.0104591 0)
(0.297729 -0.0133827 0)
(0.296894 -0.0157693 0)
(0.295855 -0.0193638 0)
(0.29482 -0.0218189 0)
(0.293627 -0.0265042 0)
(0.292568 -0.0288506 0)
(0.291437 -0.035226 0)
(0.290771 -0.0370791 0)
(0.290051 -0.0458104 0)
(0.290666 -0.0466494 0)
(0.290803 -0.057814 0)
(0.294169 -0.0575487 0)
(0.29585 -0.0689577 0)
(0.302991 -0.0687276 0)
(0.307757 -0.0745818 0)
(0.30001 -0.00105778 0)
(0.299809 -0.00331169 0)
(0.299521 -0.00542359 0)
(0.298956 -0.00787137 0)
(0.298353 -0.0100581 0)
(0.29743 -0.012909 0)
(0.296541 -0.0151992 0)
(0.295289 -0.0187648 0)
(0.294172 -0.0211051 0)
(0.292695 -0.0258895 0)
(0.291508 -0.0280492 0)
(0.29005 -0.0348615 0)
(0.289189 -0.036292 0)
(0.288174 -0.0462433 0)
(0.288606 -0.0460494 0)
(0.288491 -0.0598879 0)
(0.292211 -0.0575665 0)
(0.293401 -0.0732917 0)
(0.302477 -0.070561 0)
(0.306886 -0.0802155 0)
(0.30002 -0.00100926 0)
(0.299777 -0.00316202 0)
(0.299488 -0.00517753 0)
(0.298823 -0.00752323 0)
(0.298206 -0.00961592 0)
(0.297109 -0.012368 0)
(0.2962 -0.0145689 0)
(0.294676 -0.0180592 0)
(0.293533 -0.0203133 0)
(0.291664 -0.0251136 0)
(0.290425 -0.0271561 0)
(0.288477 -0.0342802 0)
(0.287481 -0.0353981 0)
(0.28601 -0.0464915 0)
(0.286176 -0.0452819 0)
(0.285822 -0.0621188 0)
(0.289622 -0.0572152 0)
(0.290299 -0.0785643 0)
(0.301735 -0.0720556 0)
(0.304952 -0.0875016 0)
(0.300032 -0.000956171 0)
(0.299741 -0.0029968 0)
(0.299461 -0.00490828 0)
(0.298681 -0.00713701 0)
(0.29807 -0.0091306 0)
(0.296769 -0.0117593 0)
(0.295877 -0.0138746 0)
(0.294013 -0.0172412 0)
(0.29292 -0.0194388 0)
(0.290516 -0.0241531 0)
(0.289367 -0.0261733 0)
(0.286661 -0.0334062 0)
(0.285728 -0.0344287 0)
(0.283439 -0.0463795 0)
(0.283423 -0.044432 0)
(0.282724 -0.0643086 0)
(0.286144 -0.0565253 0)
(0.286762 -0.0849236 0)
(0.300504 -0.0729666 0)
(0.301399 -0.0967713 0)
(0.300045 -0.000898098 0)
(0.299703 -0.00281691 0)
(0.299437 -0.00461484 0)
(0.298536 -0.00671432 0)
(0.297943 -0.00859943 0)
(0.296415 -0.0110848 0)
(0.295574 -0.0131095 0)
(0.293309 -0.0163118 0)
(0.292345 -0.0184687 0)
(0.289253 -0.0229992 0)
(0.288373 -0.0250868 0)
(0.284558 -0.0321834 0)
(0.284048 -0.0334047 0)
(0.280271 -0.0456884 0)
(0.280554 -0.0436402 0)
(0.278862 -0.0660436 0)
(0.281646 -0.055726 0)
(0.283128 -0.0924214 0)
(0.297844 -0.072925 0)
(0.296089 -0.108729 0)
(0.300058 -0.000834788 0)
(0.299667 -0.00262336 0)
(0.299413 -0.00429653 0)
(0.298393 -0.00625726 0)
(0.297819 -0.00801985 0)
(0.296063 -0.0103486 0)
(0.29528 -0.0122656 0)
(0.292591 -0.0152781 0)
(0.291794 -0.0173818 0)
(0.287911 -0.0216621 0)
(0.287446 -0.0238533 0)
(0.282179 -0.0306068 0)
(0.282533 -0.0322854 0)
(0.276345 -0.0442632 0)
(0.277909 -0.0430402 0)
(0.273538 -0.0666476 0)
(0.276572 -0.0553703 0)
(0.279074 -0.100524 0)
(0.29206 -0.0716974 0)
(0.290771 -0.125212 0)
(0.300067 -0.000766344 0)
(0.299635 -0.00241688 0)
(0.299385 -0.0039535 0)
(0.298262 -0.00576773 0)
(0.297691 -0.00739087 0)
(0.295733 -0.00955466 0)
(0.29498 -0.0113368 0)
(0.291901 -0.014149 0)
(0.291234 -0.016156 0)
(0.286575 -0.0201635 0)
(0.286521 -0.022407 0)
(0.279659 -0.0287244 0)
(0.281122 -0.0309238 0)
(0.271721 -0.0421317 0)
(0.275713 -0.0425516 0)
(0.266042 -0.0655147 0)
(0.272096 -0.0562294 0)
(0.272418 -0.107522 0)
(0.282264 -0.0701367 0)
(0.289463 -0.149553 0)
(0.300072 -0.00069331 0)
(0.299613 -0.00219781 0)
(0.29935 -0.00358717 0)
(0.298152 -0.00524678 0)
(0.297551 -0.0067143 0)
(0.295445 -0.00870494 0)
(0.294657 -0.0103229 0)
(0.291287 -0.0129291 0)
(0.290621 -0.0147798 0)
(0.285358 -0.0185191 0)
(0.285482 -0.0206922 0)
(0.277257 -0.0265964 0)
(0.279541 -0.0291137 0)
(0.266861 -0.0394819 0)
(0.273624 -0.0416649 0)
(0.25649 -0.0627145 0)
(0.269051 -0.0586159 0)
(0.259465 -0.110698 0)
(0.271259 -0.0714046 0)
(0.293506 -0.184042 0)
(0.300071 -0.000616609 0)
(0.2996 -0.00196606 0)
(0.299306 -0.0032002 0)
(0.298067 -0.00469464 0)
(0.297397 -0.00599499 0)
(0.295211 -0.00779913 0)
(0.294304 -0.00923124 0)
(0.290784 -0.011616 0)
(0.289929 -0.0132607 0)
(0.284358 -0.0167242 0)
(0.284233 -0.0186978 0)
(0.275252 -0.0242326 0)
(0.277445 -0.0267243 0)
(0.262558 -0.0364662 0)
(0.2706 -0.0396833 0)
(0.24644 -0.0589301 0)
(0.266022 -0.0610066 0)
(0.238663 -0.108675 0)
(0.264717 -0.0810527 0)
(0.29318 -0.223671 0)
(0.300065 -0.0005374 0)
(0.299597 -0.00172154 0)
(0.299256 -0.00279612 0)
(0.298007 -0.00411152 0)
(0.297236 -0.00523997 0)
(0.295035 -0.00683625 0)
(0.293933 -0.00807461 0)
(0.290401 -0.0102037 0)
(0.289179 -0.011622 0)
(0.283606 -0.014757 0)
(0.282786 -0.0164645 0)
(0.273783 -0.0215733 0)
(0.274707 -0.0237906 0)
(0.259435 -0.0329959 0)
(0.265671 -0.0362914 0)
(0.238423 -0.0546056 0)
(0.259014 -0.0604386 0)
(0.21448 -0.103137 0)
(0.260617 -0.101129 0)
(0.26804 -0.25511 0)
(0.300057 -0.000456606 0)
(0.2996 -0.0014653 0)
(0.299204 -0.00237811 0)
(0.297968 -0.00349979 0)
(0.297078 -0.00445564 0)
(0.294907 -0.00581946 0)
(0.293571 -0.00686523 0)
(0.29012 -0.00869351 0)
(0.288431 -0.00988848 0)
(0.283064 -0.0126069 0)
(0.28128 -0.0140479 0)
(0.27277 -0.0185547 0)
(0.271607 -0.0204511 0)
(0.257452 -0.0288115 0)
(0.259046 -0.0317582 0)
(0.233676 -0.04911 0)
(0.245053 -0.055612 0)
(0.195865 -0.0957455 0)
(0.239167 -0.119705 0)
(0.196949 -0.25639 0)
(0.301448 -0.0560749 0)
(0.30262 -0.0545096 0)
(0.303906 -0.0519427 0)
(0.305211 -0.0486028 0)
(0.306471 -0.0447543 0)
(0.307649 -0.0405982 0)
(0.308728 -0.0362834 0)
(0.309695 -0.0319254 0)
(0.310547 -0.0276112 0)
(0.31129 -0.0234023 0)
(0.303187 -0.0568056 0)
(0.304798 -0.0553158 0)
(0.306428 -0.0527661 0)
(0.30794 -0.0494037 0)
(0.30928 -0.0455059 0)
(0.310444 -0.041281 0)
(0.311438 -0.0368881 0)
(0.312268 -0.0324515 0)
(0.31295 -0.0280625 0)
(0.313506 -0.0237861 0)
(0.305008 -0.0577284 0)
(0.307163 -0.0562539 0)
(0.309245 -0.0536399 0)
(0.311067 -0.0501827 0)
(0.312587 -0.0461808 0)
(0.31383 -0.0418481 0)
(0.314822 -0.0373532 0)
(0.315587 -0.0328264 0)
(0.316159 -0.0283607 0)
(0.316573 -0.0240179 0)
(0.306773 -0.0589286 0)
(0.309531 -0.0574254 0)
(0.312106 -0.0546799 0)
(0.314262 -0.0510666 0)
(0.315983 -0.0469068 0)
(0.317328 -0.0424199 0)
(0.318344 -0.0377864 0)
(0.319074 -0.033143 0)
(0.31957 -0.0285815 0)
(0.319881 -0.0241603 0)
(0.308479 -0.0604556 0)
(0.311912 -0.0588687 0)
(0.315013 -0.0559195 0)
(0.317507 -0.0520887 0)
(0.319428 -0.0477158 0)
(0.320872 -0.0430282 0)
(0.321907 -0.0382221 0)
(0.322601 -0.0334386 0)
(0.323025 -0.0287653 0)
(0.323243 -0.0242549 0)
(0.310133 -0.0623499 0)
(0.314339 -0.0605993 0)
(0.317995 -0.0573643 0)
(0.320825 -0.0532488 0)
(0.322938 -0.0486013 0)
(0.324469 -0.0436636 0)
(0.325508 -0.0386525 0)
(0.326154 -0.0337083 0)
(0.326499 -0.0289097 0)
(0.326617 -0.0243015 0)
(0.311747 -0.0646616 0)
(0.316853 -0.0626312 0)
(0.321085 -0.0590216 0)
(0.32424 -0.0545472 0)
(0.326536 -0.0495556 0)
(0.32814 -0.0443169 0)
(0.329167 -0.0390699 0)
(0.329751 -0.0339452 0)
(0.330001 -0.029008 0)
(0.33 -0.0242929 0)
(0.313355 -0.0674486 0)
(0.319501 -0.0649748 0)
(0.324312 -0.060902 0)
(0.327787 -0.0559845 0)
(0.330265 -0.0505717 0)
(0.33193 -0.0449806 0)
(0.332926 -0.039468 0)
(0.33342 -0.0341407 0)
(0.333531 -0.0290478 0)
(0.333352 -0.024212 0)
(0.315019 -0.0707667 0)
(0.32233 -0.0676382 0)
(0.327711 -0.063021 0)
(0.331532 -0.0575635 0)
(0.334207 -0.051645 0)
(0.335916 -0.0456476 0)
(0.336827 -0.0398335 0)
(0.337145 -0.0342702 0)
(0.336995 -0.0289936 0)
(0.33649 -0.0240127 0)
(0.31683 -0.0746515 0)
(0.325389 -0.070649 0)
(0.331366 -0.0654145 0)
(0.335619 -0.0592946 0)
(0.338503 -0.0527702 0)
(0.34016 -0.0462952 0)
(0.340811 -0.0401192 0)
(0.340711 -0.0342595 0)
(0.34001 -0.0287524 0)
(0.338868 -0.0235883 0)
(0.318898 -0.0790893 0)
(0.328794 -0.0741122 0)
(0.335514 -0.0681672 0)
(0.340307 -0.0611916 0)
(0.34325 -0.0539091 0)
(0.344508 -0.0468301 0)
(0.344423 -0.040179 0)
(0.343358 -0.0339246 0)
(0.341544 -0.0281244 0)
(0.339231 -0.0227357 0)
(0.32144 -0.0840488 0)
(0.332898 -0.0782905 0)
(0.340616 -0.0713971 0)
(0.345769 -0.0631982 0)
(0.3481 -0.0548807 0)
(0.348044 -0.0469684 0)
(0.346229 -0.0396664 0)
(0.343239 -0.0329009 0)
(0.339456 -0.026766 0)
(0.335259 -0.021146 0)
(0.325165 -0.0897663 0)
(0.33844 -0.0835829 0)
(0.347001 -0.0750428 0)
(0.351333 -0.0649562 0)
(0.351331 -0.0551415 0)
(0.348221 -0.0460768 0)
(0.343108 -0.0379538 0)
(0.336928 -0.0306345 0)
(0.330224 -0.0242282 0)
(0.323508 -0.0184736 0)
(0.331813 -0.0969357 0)
(0.345995 -0.0902055 0)
(0.353501 -0.0783606 0)
(0.353958 -0.0654127 0)
(0.348618 -0.053567 0)
(0.340063 -0.0431291 0)
(0.329929 -0.0342173 0)
(0.319521 -0.0265372 0)
(0.309391 -0.0201419 0)
(0.3001 -0.014523 0)
(0.343581 -0.106247 0)
(0.353539 -0.0973722 0)
(0.355134 -0.0792977 0)
(0.346672 -0.0626287 0)
(0.332473 -0.0485726 0)
(0.316493 -0.037019 0)
(0.300577 -0.0278239 0)
(0.286119 -0.0203715 0)
(0.273291 -0.0145582 0)
(0.262525 -0.00952387 0)
(0.359377 -0.117143 0)
(0.352691 -0.10204 0)
(0.341614 -0.0743718 0)
(0.318817 -0.0543158 0)
(0.294038 -0.0388499 0)
(0.271097 -0.0273376 0)
(0.251171 -0.0190135 0)
(0.23505 -0.0127797 0)
(0.221988 -0.00831522 0)
(0.212053 -0.00433901 0)
(0.369368 -0.125123 0)
(0.327576 -0.0985129 0)
(0.299559 -0.0601291 0)
(0.260415 -0.039442 0)
(0.228801 -0.0247532 0)
(0.203827 -0.0154844 0)
(0.184932 -0.00963177 0)
(0.171421 -0.00562832 0)
(0.161481 -0.00304081 0)
(0.154715 -0.00023471 0)
(0.353814 -0.118156 0)
(0.260165 -0.0796204 0)
(0.220768 -0.0357293 0)
(0.172205 -0.0203984 0)
(0.145183 -0.00996776 0)
(0.12631 -0.00529098 0)
(0.114163 -0.00272479 0)
(0.106617 -0.00104621 0)
(0.101704 -4.78126e-05 0)
(0.098775 0.00204232 0)
(0.289259 -0.080361 0)
(0.143148 -0.0426776 0)
(0.116155 -0.00664512 0)
(0.0764934 -0.00442827 0)
(0.0661381 -0.000625079 0)
(0.0576062 -0.000289392 0)
(0.0535516 0.000168505 0)
(0.0516189 0.000485962 0)
(0.0508833 0.00072011 0)
(0.0505905 0.00262773 0)
(0.15369 -0.0498006 0)
(0.00573453 -0.012016 0)
(0.0240121 0.00369586 0)
(0.00830233 0.000263466 0)
(0.0118815 0.000855729 0)
(0.0106077 0.00033292 0)
(0.0111493 0.000319856 0)
(0.0117679 0.000288151 0)
(0.0127262 0.000338799 0)
(0.0132719 0.00120173 0)
(0.311978 -0.0190251 0)
(0.312594 -0.0145658 0)
(0.313102 -0.0103393 0)
(0.31352 -0.00637584 0)
(0.313857 -0.00264568 0)
(0.314121 0.000796965 0)
(0.314324 0.00401881 0)
(0.314484 0.00693487 0)
(0.314614 0.00969422 0)
(0.314702 0.0121401 0)
(0.314785 0.0145119 0)
(0.314817 0.016549 0)
(0.314869 0.018595 0)
(0.314844 0.0202522 0)
(0.31487 0.0219694 0)
(0.314775 0.0232116 0)
(0.314777 0.0245101 0)
(0.314603 0.0252591 0)
(0.314591 0.0259872 0)
(0.314342 0.0261915 0)
(0.313986 -0.0193429 0)
(0.31438 -0.0148217 0)
(0.314672 -0.0105444 0)
(0.314884 -0.00654024 0)
(0.315026 -0.00277996 0)
(0.315115 0.000682621 0)
(0.315163 0.00393863 0)
(0.315175 0.00688144 0)
(0.315175 0.00965943 0)
(0.31515 0.0121166 0)
(0.315136 0.0144986 0)
(0.315082 0.0165423 0)
(0.315061 0.0185969 0)
(0.314965 0.0202604 0)
(0.314932 0.0219872 0)
(0.314771 0.0232369 0)
(0.314726 0.0245454 0)
(0.314486 0.0253021 0)
(0.314446 0.0260384 0)
(0.314126 0.0262494 0)
(0.316878 -0.0195157 0)
(0.317067 -0.0149435 0)
(0.317143 -0.0106241 0)
(0.317135 -0.00658393 0)
(0.317055 -0.00279261 0)
(0.316924 0.00069927 0)
(0.316757 0.00396495 0)
(0.316565 0.00691203 0)
(0.316373 0.00969386 0)
(0.31617 0.0121518 0)
(0.315995 0.0145368 0)
(0.315791 0.0165816 0)
(0.315637 0.0186426 0)
(0.315404 0.0203108 0)
(0.315258 0.0220482 0)
(0.314962 0.0233056 0)
(0.314823 0.0246258 0)
(0.314438 0.0253889 0)
(0.314339 0.0261336 0)
(0.313857 0.0263433 0)
(0.320055 -0.0195903 0)
(0.320086 -0.0149612 0)
(0.31999 -0.010597 0)
(0.3198 -0.00651975 0)
(0.319529 -0.00269874 0)
(0.319198 0.000813984 0)
(0.318826 0.00409024 0)
(0.318431 0.00703937 0)
(0.318043 0.00982018 0)
(0.317649 0.0122727 0)
(0.317298 0.0146546 0)
(0.316918 0.0166949 0)
(0.316607 0.0187583 0)
(0.316202 0.020428 0)
(0.315913 0.0221745 0)
(0.31543 0.0234372 0)
(0.315166 0.0247677 0)
(0.314569 0.0255326 0)
(0.314388 0.0262824 0)
(0.313658 0.026483 0)
(0.323301 -0.0196085 0)
(0.323193 -0.0149159 0)
(0.322949 -0.0105014 0)
(0.322601 -0.00638221 0)
(0.322161 -0.00252776 0)
(0.32165 0.00100758 0)
(0.321094 0.00429738 0)
(0.320511 0.00724974 0)
(0.319943 0.0100285 0)
(0.319369 0.012473 0)
(0.318853 0.0148496 0)
(0.3183 0.0168824 0)
(0.317839 0.0189482 0)
(0.317254 0.020618 0)
(0.316823 0.0223764 0)
(0.316131 0.0236431 0)
(0.315735 0.0249874 0)
(0.314884 0.0257498 0)
(0.314612 0.0265059 0)
(0.313571 0.0266891 0)
(0.326554 -0.0195724 0)
(0.326301 -0.0148117 0)
(0.325902 -0.0103432 0)
(0.325388 -0.00617712 0)
(0.324772 -0.00228485 0)
(0.324076 0.00127727 0)
(0.323332 0.00458189 0)
(0.322561 0.00753661 0)
(0.321817 0.0103112 0)
(0.321072 0.0127441 0)
(0.320406 0.0151136 0)
(0.319694 0.0171362 0)
(0.319104 0.0192064 0)
(0.318352 0.0208759 0)
(0.317798 0.0226529 0)
(0.316901 0.0239242 0)
(0.316391 0.0252907 0)
(0.315272 0.0260481 0)
(0.314917 0.0268167 0)
(0.313538 0.0269739 0)
(0.329786 -0.0194734 0)
(0.329349 -0.0146394 0)
(0.328751 -0.0101116 0)
(0.328024 -0.00589287 0)
(0.327187 -0.00195832 0)
(0.32626 0.00163305 0)
(0.325292 0.00495075 0)
(0.324305 0.00790373 0)
(0.323371 0.0106685 0)
(0.322446 0.0130831 0)
(0.321638 0.0154408 0)
(0.320779 0.0174479 0)
(0.320085 0.0195236 0)
(0.319189 0.0211911 0)
(0.318549 0.0229949 0)
(0.317471 0.0242713 0)
(0.316878 0.0256723 0)
(0.315512 0.0264234 0)
(0.315095 0.027214 0)
(0.31339 0.0273388 0)
(0.332907 -0.0192892 0)
(0.332189 -0.0143733 0)
(0.331291 -0.00977864 0)
(0.330252 -0.00549996 0)
(0.329098 -0.00151934 0)
(0.327855 0.0020998 0)
(0.326594 0.00542386 0)
(0.325336 0.00836566 0)
(0.324179 0.011109 0)
(0.323056 0.0134927 0)
(0.322107 0.0158282 0)
(0.321115 0.0178095 0)
(0.320347 0.0198878 0)
(0.319344 0.0215483 0)
(0.318665 0.0233862 0)
(0.317458 0.0246671 0)
(0.31683 0.0261165 0)
(0.315271 0.0268612 0)
(0.314823 0.0276857 0)
(0.31285 0.0277748 0)
(0.335636 -0.0189657 0)
(0.334439 -0.0139565 0)
(0.333054 -0.00928682 0)
(0.331533 -0.00494364 0)
(0.329916 -0.000916881 0)
(0.328235 0.00271923 0)
(0.32659 0.00603331 0)
(0.324996 0.00894525 0)
(0.32358 0.011646 0)
(0.322246 0.0139774 0)
(0.321169 0.0162716 0)
(0.320075 0.0182096 0)
(0.319283 0.0202816 0)
(0.318238 0.0219253 0)
(0.317588 0.0238017 0)
(0.316337 0.0250844 0)
(0.315743 0.0265968 0)
(0.314089 0.0273356 0)
(0.313654 0.028208 0)
(0.311522 0.0282622 0)
(0.337268 -0.0183917 0)
(0.33526 -0.0132835 0)
(0.333107 -0.00853961 0)
(0.330874 -0.00414052 0)
(0.328612 -8.24829e-05 0)
(0.326361 0.00354348 0)
(0.324248 0.00681549 0)
(0.322276 0.00966432 0)
(0.320597 0.0122871 0)
(0.319075 0.0145334 0)
(0.317925 0.016756 0)
(0.316801 0.0186251 0)
(0.316078 0.0206734 0)
(0.315102 0.0222855 0)
(0.314592 0.0242009 0)
(0.313432 0.0254805 0)
(0.312976 0.027071 0)
(0.311377 0.0278056 0)
(0.311022 0.0287429 0)
(0.308903 0.0287675 0)
(0.33637 -0.0173795 0)
(0.333106 -0.0121949 0)
(0.329851 -0.00740719 0)
(0.326673 -0.00298881 0)
(0.323619 0.00104577 0)
(0.320721 0.00461089 0)
(0.318129 0.00778923 0)
(0.315813 0.0105239 0)
(0.313945 0.0130176 0)
(0.312337 0.0151334 0)
(0.311239 0.0172422 0)
(0.310232 0.0190089 0)
(0.309736 0.0210076 0)
(0.309006 0.0225693 0)
(0.308806 0.0245198 0)
(0.307936 0.0257911 0)
(0.307768 0.027476 0)
(0.306441 0.0282105 0)
(0.306261 0.0292338 0)
(0.304394 0.0292414 0)
(0.330544 -0.0156799 0)
(0.325596 -0.0105089 0)
(0.320999 -0.00576522 0)
(0.316775 -0.00140714 0)
(0.312931 0.00250192 0)
(0.309474 0.00592063 0)
(0.306543 0.00892877 0)
(0.30406 0.0114796 0)
(0.302202 0.0137789 0)
(0.300725 0.0157093 0)
(0.299906 0.0176531 0)
(0.299251 0.0192793 0)
(0.299218 0.0211958 0)
(0.298983 0.0226877 0)
(0.299324 0.0246655 0)
(0.299007 0.0259258 0)
(0.299327 0.0277231 0)
(0.29855 0.0284665 0)
(0.298668 0.0296034 0)
(0.297364 0.0296161 0)
(0.316549 -0.0130689 0)
(0.309784 -0.00811081 0)
(0.30394 -0.00357248 0)
(0.298891 0.000561287 0)
(0.294554 0.00421929 0)
(0.290888 0.00738381 0)
(0.287976 0.010129 0)
(0.285688 0.0124175 0)
(0.284185 0.0144532 0)
(0.283173 0.0161421 0)
(0.28295 0.0178682 0)
(0.282959 0.0193177 0)
(0.283686 0.0211169 0)
(0.284245 0.0225237 0)
(0.2854 0.024519 0)
(0.285938 0.0257721 0)
(0.286975 0.027702 0)
(0.287064 0.0284708 0)
(0.287625 0.0297566 0)
(0.287236 0.0298084 0)
(0.291147 -0.00951946 0)
(0.283081 -0.00509059 0)
(0.276658 -0.000986516 0)
(0.271479 0.00271692 0)
(0.267323 0.00598685 0)
(0.264073 0.00879235 0)
(0.261737 0.0111908 0)
(0.260145 0.013151 0)
(0.259433 0.0148673 0)
(0.259287 0.0162712 0)
(0.26001 0.017737 0)
(0.261012 0.0189829 0)
(0.262795 0.0206336 0)
(0.264442 0.021949 0)
(0.266676 0.0239511 0)
(0.268354 0.0252104 0)
(0.270332 0.0272939 0)
(0.271589 0.0281135 0)
(0.272736 0.0295921 0)
(0.273607 0.0297279 0)
(0.25281 -0.00540071 0)
(0.244786 -0.00186565 0)
(0.239067 0.00156693 0)
(0.234846 0.00468865 0)
(0.231777 0.00746687 0)
(0.229687 0.00984776 0)
(0.228525 0.0118559 0)
(0.228122 0.0134578 0)
(0.228597 0.0148305 0)
(0.229659 0.0159305 0)
(0.231603 0.0171134 0)
(0.233854 0.0181445 0)
(0.236907 0.0196245 0)
(0.239853 0.0208526 0)
(0.243352 0.0228502 0)
(0.246371 0.0241397 0)
(0.249457 0.0263947 0)
(0.252103 0.0272988 0)
(0.253949 0.0290203 0)
(0.256351 0.0292912 0)
(0.203556 -0.00156266 0)
(0.197416 0.000823692 0)
(0.193905 0.00347984 0)
(0.191709 0.0059808 0)
(0.190493 0.00827509 0)
(0.190104 0.0102537 0)
(0.190497 0.0118955 0)
(0.191564 0.0131593 0)
(0.193422 0.0142016 0)
(0.195848 0.0150058 0)
(0.199114 0.0159045 0)
(0.202708 0.0167234 0)
(0.207085 0.0180207 0)
(0.211395 0.0191731 0)
(0.216209 0.0211532 0)
(0.220631 0.0225039 0)
(0.224891 0.02494 0)
(0.229013 0.0259673 0)
(0.231618 0.0279845 0)
(0.235685 0.0284384 0)
(0.149193 0.00103798 0)
(0.146499 0.0022527 0)
(0.146199 0.0042371 0)
(0.146501 0.00624503 0)
(0.147357 0.00819466 0)
(0.148731 0.00987765 0)
(0.150658 0.0112303 0)
(0.153138 0.0122101 0)
(0.156292 0.0129569 0)
(0.159994 0.0134867 0)
(0.164466 0.0141107 0)
(0.169302 0.0147239 0)
(0.174876 0.0158321 0)
(0.180445 0.0169197 0)
(0.18647 0.018866 0)
(0.192197 0.0203084 0)
(0.197578 0.0229218 0)
(0.203107 0.0241116 0)
(0.206459 0.0264739 0)
(0.212159 0.0271464 0)
(0.0970834 0.00183226 0)
(0.0984345 0.00205174 0)
(0.101312 0.00369304 0)
(0.103699 0.00549559 0)
(0.106174 0.00731223 0)
(0.108864 0.00882726 0)
(0.11193 0.00997068 0)
(0.115468 0.0107156 0)
(0.119601 0.0111966 0)
(0.124285 0.0114687 0)
(0.129678 0.0118253 0)
(0.135492 0.0122345 0)
(0.141993 0.0131467 0)
(0.148578 0.0141709 0)
(0.155576 0.0160633 0)
(0.162382 0.0176193 0)
(0.168719 0.0203914 0)
(0.175448 0.0217786 0)
(0.179467 0.0245264 0)
(0.186615 0.0254331 0)
(0.0534268 0.000797774 0)
(0.0581663 0.000352069 0)
(0.0630447 0.00217403 0)
(0.0663787 0.00409954 0)
(0.0695905 0.00595068 0)
(0.0728803 0.00737098 0)
(0.0765154 0.00834202 0)
(0.080625 0.00886957 0)
(0.0853154 0.00909311 0)
(0.0905909 0.00911042 0)
(0.096542 0.00919849 0)
(0.102985 0.00939731 0)
(0.110068 0.0101032 0)
(0.117346 0.0110533 0)
(0.124999 0.0128699 0)
(0.132577 0.014546 0)
(0.13963 0.0174472 0)
(0.147264 0.0190586 0)
(0.15181 0.0222184 0)
(0.160126 0.0233511 0)
(0.0223651 -0.00220432 0)
(0.0279446 -0.00219354 0)
(0.0329219 0.000347316 0)
(0.035863 0.0025835 0)
(0.0389048 0.00449713 0)
(0.0421147 0.00580534 0)
(0.04579 0.00658448 0)
(0.0500179 0.00687675 0)
(0.0548691 0.00683058 0)
(0.0603558 0.00658262 0)
(0.0665117 0.00639394 0)
(0.0732253 0.00636973 0)
(0.0805473 0.00685736 0)
(0.0881735 0.00771274 0)
(0.0961462 0.00943329 0)
(0.104168 0.0112178 0)
(0.111653 0.0142128 0)
(0.119872 0.0160709 0)
(0.124762 0.0196385 0)
(0.133953 0.0209775 0)
(0.00808232 -0.00611477 0)
(0.00975496 -0.00397791 0)
(0.0129582 -0.000858651 0)
(0.0146203 0.00154625 0)
(0.0169429 0.00338391 0)
(0.0196749 0.00450839 0)
(0.0230653 0.00506025 0)
(0.0271111 0.00510581 0)
(0.0318418 0.00479658 0)
(0.0372511 0.00429504 0)
(0.0433347 0.0038495 0)
(0.0500163 0.00361049 0)
(0.0572864 0.0038935 0)
(0.0649399 0.00463941 0)
(0.0729201 0.0062589 0)
(0.0810639 0.00811628 0)
(0.0886775 0.0111552 0)
(0.0971593 0.0132674 0)
(0.102185 0.0171264 0)
(0.111951 0.0186766 0)
(0.00109594 -0.0078848 0)
(-0.000967543 -0.00438004 0)
(-0.000321011 -0.00132362 0)
(-5.56987e-05 0.00102495 0)
(0.00145817 0.00262905 0)
(0.00364591 0.00351368 0)
(0.00667526 0.00381409 0)
(0.0104502 0.00361199 0)
(0.0149627 0.00305469 0)
(0.0201802 0.0023185 0)
(0.0260718 0.00164204 0)
(0.0325764 0.00120516 0)
(0.03965 0.00130407 0)
(0.0471528 0.00193826 0)
(0.0549663 0.00345937 0)
(0.0630359 0.00535827 0)
(0.0705892 0.00840707 0)
(0.0791329 0.0107572 0)
(0.0841718 0.0147919 0)
(0.0943223 0.0165649 0)
(-0.00263923 -0.00666743 0)
(-0.00790334 -0.00360664 0)
(-0.00973556 -0.00109646 0)
(-0.0107551 0.000897474 0)
(-0.0100299 0.00211771 0)
(-0.00836724 0.00268496 0)
(-0.00570963 0.0026894 0)
(-0.00223456 0.00221573 0)
(0.00201455 0.00140308 0)
(0.00697504 0.000427082 0)
(0.0125964 -0.000478237 0)
(0.0188214 -0.00111166 0)
(0.0255872 -0.00119504 0)
(0.0328003 -0.000681593 0)
(0.0403058 0.000731944 0)
(0.0481471 0.00264918 0)
(0.0554887 0.00568769 0)
(0.0639518 0.00825964 0)
(0.068925 0.0123997 0)
(0.0793537 0.0143969 0)
(-0.00455179 -0.00407497 0)
(-0.0120278 -0.00199713 0)
(-0.0156953 -0.000256827 0)
(-0.0176697 0.00108603 0)
(-0.0175404 0.00181533 0)
(-0.0162827 0.00199922 0)
(-0.0139274 0.00167666 0)
(-0.0107144 0.000918194 0)
(-0.00671848 -0.000153778 0)
(-0.0020297 -0.00136593 0)
(0.00328898 -0.00248987 0)
(0.00917539 -0.00331183 0)
(0.0155592 -0.00356902 0)
(0.0223802 -0.0031784 0)
(0.0294703 -0.00187452 0)
(0.0369618 3.38966e-05 0)
(0.0439665 0.00304274 0)
(0.0522409 0.00580404 0)
(0.0570904 0.00997919 0)
(0.0677035 0.0121892 0)
(-0.0053434 -0.000821793 0)
(-0.0138796 0.000151982 0)
(-0.0184527 0.000947388 0)
(-0.0209052 0.0014818 0)
(-0.0210757 0.00164815 0)
(-0.0200318 0.00141204 0)
(-0.017853 0.000749105 0)
(-0.0148186 -0.000298239 0)
(-0.0110237 -0.00162488 0)
(-0.00658008 -0.0030593 0)
(-0.00156086 -0.00438472 0)
(0.00396443 -0.00538045 0)
(0.00992611 -0.00579572 0)
(0.0162898 -0.00552242 0)
(0.0228861 -0.00432453 0)
(0.0299372 -0.00244557 0)
(0.036508 0.000503918 0)
(0.044516 0.0034155 0)
(0.0491924 0.00755005 0)
(0.0599013 0.00996339 0)
(-0.00529245 0.00262191 0)
(-0.0137004 0.00245842 0)
(-0.0181262 0.00225126 0)
(-0.0205065 0.00193548 0)
(-0.0206302 0.00152207 0)
(-0.0195721 0.000862308 0)
(-0.0174154 -0.000138893 0)
(-0.0144493 -0.00146443 0)
(-0.010777 -0.00302715 0)
(-0.00652795 -0.00466262 0)
(-0.00178006 -0.0061651 0)
(0.00338928 -0.00731045 0)
(0.00891535 -0.00786124 0)
(0.0147869 -0.0076946 0)
(0.0208395 -0.00659858 0)
(0.027387 -0.00476075 0)
(0.0334491 -0.00189519 0)
(0.0411351 0.0011099 0)
(0.045588 0.00513438 0)
(0.0563024 0.0077372 0)
(-0.00438019 0.00579818 0)
(-0.0114794 0.00450544 0)
(-0.0147107 0.00337986 0)
(-0.0164714 0.00228864 0)
(-0.0162031 0.00133578 0)
(-0.0149027 0.000281896 0)
(-0.0126099 -0.00103687 0)
(-0.00959624 -0.00261389 0)
(-0.00596227 -0.00438552 0)
(-0.0018484 -0.00619318 0)
(0.00266817 -0.00783852 0)
(0.0075026 -0.0091038 0)
(0.012597 -0.00976131 0)
(0.0179655 -0.0096841 0)
(0.0234448 -0.00868123 0)
(0.0294531 -0.00689569 0)
(0.0349455 -0.00413318 0)
(0.0422622 -0.0010875 0)
(0.0464374 0.00275896 0)
(0.0570603 0.00552484 0)
(-0.00227238 0.00823329 0)
(-0.00694566 0.0059241 0)
(-0.0080785 0.00406871 0)
(-0.0087522 0.00239407 0)
(-0.00780073 0.000993474 0)
(-0.00606541 -0.000398586 0)
(-0.00350307 -0.00198823 0)
(-0.000344308 -0.00378048 0)
(0.00332261 -0.00572416 0)
(0.00735352 -0.00766737 0)
(0.0116757 -0.00941695 0)
(0.0161993 -0.010767 0)
(0.0208735 -0.0114975 0)
(0.0257433 -0.0114863 0)
(0.0306331 -0.0105642 0)
(0.036086 -0.00883609 0)
(0.0409629 -0.00620102 0)
(0.0478636 -0.00315699 0)
(0.0516942 0.000452379 0)
(0.0621209 0.00334172 0)
(0.00184228 0.00918908 0)
(0.000491168 0.00642346 0)
(0.00203848 0.00409659 0)
(0.0027592 0.00214302 0)
(0.00456951 0.000426226 0)
(0.00686128 -0.00122595 0)
(0.00977451 -0.00302658 0)
(0.013133 -0.00498817 0)
(0.0168719 -0.00706079 0)
(0.0208466 -0.00909752 0)
(0.0249936 -0.0109111 0)
(0.0292222 -0.0123061 0)
(0.0334834 -0.0130738 0)
(0.0378651 -0.0131007 0)
(0.0421554 -0.0122443 0)
(0.0470502 -0.0105718 0)
(0.0512745 -0.00808288 0)
(0.0577138 -0.00508561 0)
(0.061128 -0.00175099 0)
(0.0712375 0.00120918 0)
(0.0096007 0.0068483 0)
(0.0119071 0.00569868 0)
(0.0160784 0.00339763 0)
(0.0182513 0.00147368 0)
(0.0209146 -0.000402883 0)
(0.0237717 -0.00221922 0)
(0.0270352 -0.00416801 0)
(0.0305842 -0.00624838 0)
(0.0343832 -0.0084042 0)
(0.0382881 -0.0104906 0)
(0.0422474 -0.0123253 0)
(0.0461762 -0.0137247 0)
(0.050017 -0.0144931 0)
(0.0539189 -0.0145288 0)
(0.0575995 -0.0137194 0)
(0.0619415 -0.0120993 0)
(0.065485 -0.00976214 0)
(0.0714209 -0.00685586 0)
(0.0743491 -0.00381313 0)
(0.0840001 -0.000853606 0)
(0.0268254 0.00201804 0)
(0.0328005 0.00336489 0)
(0.0386373 0.00178254 0)
(0.0421488 0.000148494 0)
(0.0455792 -0.00172054 0)
(0.0489514 -0.00362551 0)
(0.0525066 -0.00567437 0)
(0.0561742 -0.0078354 0)