/*--------------------------------*- C++ -*----------------------------------*\
| =========                 |                                                 |
| \\      /  F ield         | OpenFOAM: The Open Source CFD Toolbox           |
|  \\    /   O peration     | Version:  v1806                                 |
|   \\  /    A nd           | Web:      www.OpenFOAM.com                      |
|    \\/     M anipulation  |                                                 |
\*---------------------------------------------------------------------------*/
FoamFile
{
    version     2.0;
    format      ascii;
    class       volVectorField;
    location    "2";
    object      U;
}
// * * * * * * * * * * * * * * * * * * * * * * * * * * * * * * * * * * * * * //

dimensions      [0 1 -1 0 0 0 0];


internalField   nonuniform List<vector> 
5228
(
(0.134028 0.0100241 -0.00111561)
(0.134017 0.0100193 8.40633e-09)
(0.134017 0.0100193 -8.38302e-09)
(0.134028 0.0100242 0.00111561)
(0.125771 0.0193472 -0.00121774)
(0.125768 0.0193332 2.35792e-08)
(0.125768 0.0193333 -2.35099e-08)
(0.125771 0.0193475 0.00121774)
(0.126877 0.0175587 -0.00123816)
(0.126878 0.0175479 4.27477e-10)
(0.126878 0.0175479 -3.78396e-10)
(0.126878 0.0175587 0.00123816)
(0.134426 0.0349323 -0.00135513)
(0.134421 0.0349137 1.96945e-08)
(0.134421 0.0349137 -1.95191e-08)
(0.134426 0.0349322 0.00135513)
(0.220822 0.00472722 -0.00196048)
(0.220796 0.00471955 3.81379e-08)
(0.220796 0.00471959 -3.8116e-08)
(0.220822 0.00472722 0.00196048)
(0.22604 -0.0329357 -0.00185604)
(0.226019 -0.0329281 5.52394e-08)
(0.226019 -0.0329282 -5.53037e-08)
(0.22604 -0.0329359 0.00185604)
(0.198195 0.0171407 -0.00166285)
(0.198171 0.017128 4.65246e-08)
(0.198171 0.017128 -4.6458e-08)
(0.198194 0.0171406 0.00166285)
(0.216169 0.00307502 -0.00168316)
(0.216154 0.00306727 5.90428e-08)
(0.216155 0.00306728 -5.89025e-08)
(0.216169 0.00307491 0.00168316)
(0.292618 0.0305831 -0.00212163)
(0.292621 0.0305798 -3.52111e-08)
(0.292621 0.0305797 3.52045e-08)
(0.292618 0.0305827 0.00212163)
(0.354453 0.029861 -0.00239326)
(0.354473 0.0298374 1.73624e-08)
(0.354473 0.0298373 -1.75438e-08)
(0.354453 0.0298604 0.00239326)
(0.245874 -0.00885269 -0.00202042)
(0.245902 -0.00885945 -7.88418e-09)
(0.245902 -0.0088595 7.8635e-09)
(0.245874 -0.00885285 0.00202042)
(0.439888 0.012218 -0.00313238)
(0.439823 0.0122645 1.7635e-07)
(0.439823 0.0122645 -1.7644e-07)
(0.439888 0.0122181 0.00313238)
(0.495459 0.0768779 -0.00344748)
(0.495364 0.0769329 1.89846e-07)
(0.495364 0.0769329 -1.90116e-07)
(0.495459 0.0768779 0.00344748)
(0.396961 0.0725854 -0.00321865)
(0.396888 0.0725725 1.02684e-07)
(0.396888 0.0725725 -1.02784e-07)
(0.396961 0.0725854 0.00321865)
(0.359269 0.0536482 -0.0029479)
(0.359225 0.0536544 1.23833e-07)
(0.359225 0.0536544 -1.23941e-07)
(0.359268 0.0536481 0.0029479)
(0.366613 -0.00227366 -0.00289465)
(0.366543 -0.00224875 1.1721e-07)
(0.366544 -0.00224877 -1.17314e-07)
(0.366613 -0.00227364 0.00289465)
(0.190357 0.0013306 -0.00175549)
(0.190378 0.00133127 4.04255e-09)
(0.190378 0.00133128 -3.70304e-09)
(0.190357 0.00133061 0.00175549)
(0.171678 -0.0406242 -0.00176506)
(0.171698 -0.0406257 -1.36231e-08)
(0.171698 -0.0406257 1.38401e-08)
(0.171678 -0.0406241 0.00176506)
(0.226313 -0.0330246 -0.00188383)
(0.226316 -0.0330399 -8.675e-09)
(0.226316 -0.0330399 8.93899e-09)
(0.226313 -0.0330246 0.00188383)
(0.442037 0.00222213 -0.00275394)
(0.442046 0.00221552 -4.66831e-08)
(0.442046 0.0022157 4.70679e-08)
(0.442037 0.0022229 0.00275394)
(0.330832 -0.0574091 -0.00238432)
(0.330848 -0.0574127 2.29638e-08)
(0.330848 -0.0574127 -2.30564e-08)
(0.330831 -0.057409 0.00238432)
(0.449906 0.0348738 -0.00278413)
(0.449941 0.0348947 -4.39576e-08)
(0.449941 0.0348948 4.37591e-08)
(0.449906 0.034874 0.00278413)
(0.559195 0.132664 -0.00308044)
(0.559168 0.132645 -5.27302e-08)
(0.559168 0.132645 5.2831e-08)
(0.559194 0.132665 0.00308044)
(1.08491 -0.00261826 -0.00955015)
(1.08466 -0.00262905 -4.94622e-07)
(1.08466 -0.00262905 4.94311e-07)
(1.08491 -0.00261817 0.00955015)
(0.949698 -0.00990092 -0.00947533)
(0.949588 -0.00988871 -9.44223e-07)
(0.949588 -0.0098887 9.44141e-07)
(0.949697 -0.00990092 0.00947533)
(0.062784 -0.0189159 -0.00157222)
(0.0628079 -0.0189386 1.99438e-08)
(0.0628078 -0.0189385 -1.97459e-08)
(0.0627839 -0.0189156 0.00157221)
(0.125734 -0.0346746 -0.00159456)
(0.125743 -0.0346878 1.76072e-08)
(0.125744 -0.0346878 -1.71147e-08)
(0.125734 -0.0346744 0.00159456)
(0.109712 0.0202384 -0.00150567)
(0.109715 0.020224 -2.18008e-09)
(0.109715 0.0202239 2.40408e-09)
(0.109713 0.0202381 0.00150567)
(1.9681 0.0764181 -0.0100439)
(1.96811 0.0764235 -6.02679e-08)
(1.9681 0.0764232 6.0196e-08)
(1.9681 0.0764178 0.0100439)
(2.08237 0.0933542 -0.00994265)
(2.0824 0.0933482 -1.5423e-07)
(2.0824 0.093348 1.53082e-07)
(2.08237 0.093354 0.00994266)
(1.2854 -0.00295957 -0.00973123)
(1.2854 -0.00294534 -3.43028e-07)
(1.2854 -0.00294532 3.42853e-07)
(1.2854 -0.00295949 0.00973123)
(1.43356 -0.00440721 -0.00989342)
(1.43348 -0.0043871 -2.98262e-07)
(1.43348 -0.0043869 2.98355e-07)
(1.43356 -0.00440674 0.00989342)
(1.61193 0.000177166 -0.0100196)
(1.61183 0.000196261 -3.48229e-07)
(1.61183 0.000196511 3.48345e-07)
(1.61193 0.000177631 0.0100196)
(1.75871 -0.014819 -0.0101154)
(1.75868 -0.0148255 -1.64267e-07)
(1.75868 -0.0148255 1.65358e-07)
(1.75871 -0.0148194 0.0101154)
(1.91861 -0.0802642 -0.0101019)
(1.91861 -0.0802792 -6.259e-08)
(1.91861 -0.0802794 6.23225e-08)
(1.91861 -0.0802645 0.0101019)
(2.09439 -0.0575277 -0.00995304)
(2.09436 -0.0575314 -1.01436e-07)
(2.09436 -0.0575314 1.001e-07)
(2.09439 -0.0575276 0.00995304)
(2.24174 -0.0785793 -0.00970894)
(2.2417 -0.0786171 -2.04929e-07)
(2.2417 -0.0786169 2.05216e-07)
(2.24174 -0.078579 0.00970894)
(2.2803 0.0676948 -0.0096843)
(2.28024 0.0677277 -2.99629e-07)
(2.28024 0.0677281 3.01109e-07)
(2.2803 0.0676956 0.00968429)
(0.568239 -0.0523384 -0.00939774)
(0.56752 -0.0524647 -7.48157e-07)
(0.56752 -0.0524648 7.48215e-07)
(0.568239 -0.0523384 0.00939774)
(0.80513 -0.315776 -0.00848519)
(0.804971 -0.31616 -4.78813e-08)
(0.804971 -0.31616 4.75587e-08)
(0.80513 -0.315776 0.00848519)
(1.01873 -0.238551 -0.00886804)
(1.01875 -0.238739 -1.86521e-07)
(1.01875 -0.23874 1.85984e-07)
(1.01873 -0.238551 0.00886804)
(1.12322 -0.182421 -0.00917972)
(1.12314 -0.182452 -1.62043e-07)
(1.12314 -0.182452 1.61404e-07)
(1.12322 -0.182421 0.00917972)
(1.29295 -0.177213 -0.0094844)
(1.29295 -0.177271 -1.57032e-07)
(1.29295 -0.177271 1.56262e-07)
(1.29295 -0.177212 0.0094844)
(1.42555 -0.163607 -0.00972529)
(1.42551 -0.163609 -1.59267e-07)
(1.42552 -0.163609 1.58806e-07)
(1.42555 -0.163606 0.00972529)
(1.59473 -0.158002 -0.00989326)
(1.59466 -0.158007 -3.14813e-07)
(1.59466 -0.158007 3.14784e-07)
(1.59473 -0.158002 0.00989326)
(1.74612 -0.176785 -0.00998345)
(1.74605 -0.176751 -1.68533e-07)
(1.74605 -0.17675 1.6893e-07)
(1.74612 -0.176785 0.00998345)
(1.89591 -0.203261 -0.0100196)
(1.89591 -0.203273 -8.19177e-08)
(1.89591 -0.203273 8.21017e-08)
(1.89591 -0.203261 0.0100196)
(2.05906 -0.214894 -0.00988528)
(2.05902 -0.214859 -4.2105e-08)
(2.05902 -0.214859 4.08987e-08)
(2.05906 -0.214894 0.00988528)
(2.22662 -0.225399 -0.00964467)
(2.22657 -0.225365 -1.7044e-07)
(2.22657 -0.225365 1.7034e-07)
(2.22662 -0.225399 0.00964467)
(2.39098 -0.208865 -0.0092465)
(2.39089 -0.208834 -2.25091e-07)
(2.39089 -0.208835 2.26648e-07)
(2.39098 -0.208865 0.0092465)
(2.41404 -0.0878134 -0.00933745)
(2.41397 -0.0878131 -2.72689e-07)
(2.41397 -0.0878131 2.73104e-07)
(2.41404 -0.0878131 0.00933745)
(2.40018 0.0703523 -0.00931766)
(2.40016 0.0703607 -2.6645e-07)
(2.40016 0.0703606 2.67847e-07)
(2.40018 0.070352 0.00931766)
(2.43419 0.202494 -0.00914347)
(2.43412 0.202402 -2.79717e-07)
(2.43412 0.202402 2.80227e-07)
(2.43418 0.202493 0.00914347)
(2.24858 0.217662 -0.0095467)
(2.24855 0.217657 -9.65141e-08)
(2.24855 0.217657 9.76883e-08)
(2.24858 0.217662 0.0095467)
(2.10902 0.229379 -0.0098359)
(2.109 0.229301 -1.26386e-07)
(2.109 0.229301 1.24714e-07)
(2.10902 0.229379 0.0098359)
(1.92291 0.23717 -0.00998962)
(1.92295 0.237199 6.69186e-08)
(1.92295 0.237199 -6.74794e-08)
(1.92291 0.237169 0.00998962)
(1.75504 0.175612 -0.0100404)
(1.75503 0.175595 -1.20077e-07)
(1.75503 0.175595 1.20985e-07)
(1.75504 0.175611 0.0100404)
(1.62676 0.173203 -0.00991629)
(1.62674 0.173213 -1.56398e-07)
(1.62674 0.173213 1.56687e-07)
(1.62676 0.173203 0.00991629)
(1.4544 0.162646 -0.0097605)
(1.45437 0.162665 -1.20225e-07)
(1.45437 0.162666 1.20035e-07)
(1.4544 0.162646 0.0097605)
(1.31714 0.167959 -0.00955161)
(1.31718 0.168025 -1.29431e-07)
(1.31718 0.168026 1.29369e-07)
(1.31714 0.16796 0.00955161)
(1.13996 0.162626 -0.00925957)
(1.13989 0.162642 -1.18514e-07)
(1.13989 0.162642 1.1839e-07)
(1.13996 0.162627 0.00925957)
(1.04447 0.205059 -0.00898038)
(1.04452 0.205223 -1.54165e-07)
(1.04452 0.205223 1.53864e-07)
(1.04447 0.205059 0.00898038)
(0.818031 0.235394 -0.00872053)
(0.817898 0.235696 -1.40286e-07)
(0.817898 0.235696 1.4028e-07)
(0.818031 0.235394 0.00872053)
(0.75866 -0.517485 -0.00785454)
(0.758855 -0.517525 2.49911e-07)
(0.758855 -0.517525 -2.50453e-07)
(0.758659 -0.517485 0.00785454)
(0.852167 -0.452169 -0.00718416)
(0.852334 -0.452283 3.65677e-07)
(0.852334 -0.452283 -3.65875e-07)
(0.852167 -0.452169 0.00718416)
(0.944019 -0.366268 -0.00793091)
(0.944063 -0.366385 -1.57049e-07)
(0.944063 -0.366385 1.56818e-07)
(0.944019 -0.366268 0.00793091)
(1.00702 -0.340554 -0.0084131)
(1.00696 -0.340653 -1.60433e-07)
(1.00696 -0.340653 1.601e-07)
(1.00702 -0.340554 0.0084131)
(1.14107 -0.310881 -0.00882821)
(1.14108 -0.310896 -1.63727e-07)
(1.14108 -0.310896 1.63209e-07)
(1.14107 -0.310882 0.00882821)
(1.27524 -0.316565 -0.00918407)
(1.27522 -0.316602 -1.33591e-07)
(1.27522 -0.316602 1.32955e-07)
(1.27524 -0.316565 0.00918407)
(1.41609 -0.316898 -0.00948335)
(1.41609 -0.316897 -1.64691e-07)
(1.41609 -0.316897 1.6424e-07)
(1.41609 -0.316898 0.00948335)
(1.57574 -0.325015 -0.00968805)
(1.57569 -0.325041 -2.67182e-07)
(1.57569 -0.32504 2.66881e-07)
(1.57574 -0.325014 0.00968805)
(1.7331 -0.336637 -0.00981146)
(1.73306 -0.336614 -2.33862e-07)
(1.73306 -0.336614 2.34147e-07)
(1.7331 -0.336636 0.00981146)
(1.89592 -0.367464 -0.00984608)
(1.89596 -0.367449 -1.13192e-07)
(1.89596 -0.367449 1.13558e-07)
(1.89592 -0.367464 0.00984608)
(2.05134 -0.382631 -0.00976774)
(2.0514 -0.382634 -1.68569e-07)
(2.0514 -0.382635 1.68211e-07)
(2.05134 -0.382631 0.00976774)
(2.22431 -0.386239 -0.00954431)
(2.22432 -0.386274 -4.44614e-07)
(2.22432 -0.386274 4.44083e-07)
(2.22431 -0.386239 0.00954431)
(2.39424 -0.385042 -0.00918109)
(2.39423 -0.385102 -3.85997e-07)
(2.39424 -0.385102 3.85402e-07)
(2.39424 -0.385043 0.00918109)
(2.5527 -0.374574 -0.0087207)
(2.55271 -0.374621 -3.25522e-07)
(2.55271 -0.374621 3.2444e-07)
(2.5527 -0.374575 0.0087207)
(2.54595 -0.195709 -0.00872767)
(2.54593 -0.195666 -1.05965e-07)
(2.54593 -0.195666 1.04375e-07)
(2.54595 -0.195709 0.00872767)
(2.55352 -0.0812531 -0.0088533)
(2.55351 -0.0813133 -1.90484e-07)
(2.55351 -0.0813134 1.87064e-07)
(2.55352 -0.0812534 0.0088533)
(2.5842 0.0638606 -0.00882686)
(2.58418 0.0639142 -1.82396e-07)
(2.58418 0.0639142 1.79655e-07)
(2.5842 0.0638609 0.00882687)
(2.56449 0.170837 -0.00865071)
(2.56445 0.170823 -2.04524e-07)
(2.56445 0.170823 1.98838e-07)
(2.56448 0.170837 0.00865071)
(2.56579 0.362429 -0.00862657)
(2.56575 0.362457 -3.60704e-07)
(2.56575 0.362457 3.58711e-07)
(2.56579 0.36243 0.00862658)
(2.4374 0.381227 -0.00910739)
(2.4374 0.381289 -3.83867e-07)
(2.4374 0.381289 3.83337e-07)
(2.4374 0.381227 0.00910739)
(2.26923 0.396114 -0.00949686)
(2.26924 0.396114 -3.74171e-07)
(2.26924 0.396113 3.74368e-07)
(2.26923 0.396114 0.00949685)
(2.10056 0.388137 -0.00975273)
(2.10062 0.388133 -1.36805e-07)
(2.10062 0.388133 1.34602e-07)
(2.10056 0.388137 0.00975273)
(1.92281 0.375423 -0.00987956)
(1.92292 0.37544 3.08564e-08)
(1.92292 0.37544 -3.12698e-08)
(1.92281 0.375423 0.00987956)
(1.76884 0.346589 -0.00983204)
(1.76883 0.346573 -1.20538e-07)
(1.76883 0.346573 1.20911e-07)
(1.76884 0.346589 0.00983204)
(1.61567 0.348293 -0.00976161)
(1.61565 0.348281 -2.45677e-07)
(1.61565 0.348281 2.44581e-07)
(1.61567 0.348293 0.00976161)
(1.4582 0.330258 -0.00960043)
(1.4582 0.330254 -1.31719e-07)
(1.4582 0.330254 1.31361e-07)
(1.4582 0.330258 0.00960043)
(1.31196 0.327307 -0.00933843)
(1.31194 0.327345 -1.56179e-07)
(1.31194 0.327346 1.56889e-07)
(1.31196 0.327308 0.00933843)
(1.17307 0.30215 -0.00903223)
(1.17305 0.302133 -2.45016e-07)
(1.17305 0.302133 2.45339e-07)
(1.17307 0.302151 0.00903223)
(1.03322 0.330634 -0.00869283)
(1.03314 0.330696 -2.21013e-07)
(1.03314 0.330696 2.2126e-07)
(1.03322 0.330634 0.00869283)
(0.940708 0.338013 -0.00833261)
(0.940796 0.338053 -1.48628e-07)
(0.940796 0.338053 1.48873e-07)
(0.940708 0.338013 0.00833261)
(0.70055 0.42999 -0.00847034)
(0.70068 0.430001 -1.52105e-07)
(0.70068 0.430001 1.52125e-07)
(0.70055 0.42999 0.00847034)
(0.826132 0.419003 -0.0077946)
(0.826266 0.419115 3.06258e-07)
(0.826266 0.419115 -3.06255e-07)
(0.826132 0.419002 0.0077946)
(0.950195 0.424641 -0.00674473)
(0.950419 0.424684 2.22337e-07)
(0.950419 0.424684 -2.22313e-07)
(0.950195 0.424641 0.00674473)
(1.01473 -0.405854 -0.00611162)
(1.0149 -0.405899 2.25964e-07)
(1.0149 -0.405899 -2.25929e-07)
(1.01473 -0.405854 0.00611162)
(0.106905 -0.00181249 -0.00102866)
(0.106907 -0.00181402 1.41894e-08)
(0.106907 -0.00181404 -1.41436e-08)
(0.106905 -0.0018125 0.00102866)
(0.11844 0.0182232 -0.00100459)
(0.118437 0.0182134 7.39775e-09)
(0.118437 0.0182134 -7.38954e-09)
(0.11844 0.0182232 0.00100459)
(0.146699 0.0402334 -0.00154758)
(0.146695 0.0402028 1.40197e-08)
(0.146695 0.0402027 -1.40166e-08)
(0.146699 0.0402329 0.00154758)
(0.17426 0.0584581 -0.00162187)
(0.17424 0.0584309 3.98652e-08)
(0.17424 0.058431 -3.99608e-08)
(0.17426 0.058458 0.00162187)
(0.150654 0.0189679 -0.00136589)
(0.150646 0.0189713 1.40292e-08)
(0.150646 0.0189713 -1.39231e-08)
(0.150654 0.0189681 0.00136589)
(0.163461 0.0209945 -0.0015122)
(0.163437 0.0209765 2.66685e-08)
(0.163437 0.0209764 -2.65443e-08)
(0.163461 0.0209941 0.0015122)
(0.175794 -0.00232889 -0.00150599)
(0.175769 -0.00233905 2.70962e-08)
(0.175769 -0.00233907 -2.70681e-08)
(0.175794 -0.00232899 0.00150599)
(0.157418 -0.00486564 -0.00134173)
(0.157412 -0.0048754 2.3374e-08)
(0.157412 -0.00487541 -2.33318e-08)
(0.157418 -0.00486562 0.00134173)
(0.133327 -0.00700407 -0.00119139)
(0.133318 -0.00700326 2.30356e-08)
(0.133318 -0.00700329 -2.30345e-08)
(0.133327 -0.00700414 0.00119139)
(0.123011 -0.00143122 -0.00106101)
(0.123005 -0.00143466 7.8926e-09)
(0.123005 -0.00143466 -7.88821e-09)
(0.123011 -0.0014312 0.00106101)
(0.107131 0.00337326 -0.000898956)
(0.107132 0.00336951 6.78624e-09)
(0.107132 0.00336951 -6.78853e-09)
(0.107131 0.00337328 0.000898956)
(0.10743 -0.000216553 -0.000894184)
(0.107426 -0.000222975 1.5218e-08)
(0.107426 -0.000222982 -1.52273e-08)
(0.10743 -0.000216565 0.000894184)
(0.111766 -0.0100624 -0.000907826)
(0.111766 -0.010061 1.63173e-08)
(0.111766 -0.010061 -1.63226e-08)
(0.111766 -0.0100624 0.000907826)
(0.121249 0.0196545 -0.00110823)
(0.12125 0.0196498 1.76162e-08)
(0.12125 0.0196498 -1.76196e-08)
(0.121249 0.0196546 0.00110823)
(0.11277 0.0195837 -0.000995773)
(0.112769 0.0195811 9.35857e-11)
(0.112769 0.0195812 -8.02024e-11)
(0.11277 0.0195837 0.000995773)
(0.105901 0.0196317 -0.00087572)
(0.105903 0.0196269 1.3711e-08)
(0.105903 0.0196269 -1.37318e-08)
(0.105901 0.0196317 0.00087572)
(0.23451 -0.01017 -0.00215895)
(0.23448 -0.0101581 8.94062e-08)
(0.23448 -0.010158 -8.94624e-08)
(0.23451 -0.0101698 0.00215895)
(0.286973 0.011913 -0.00243869)
(0.286947 0.0118987 7.90168e-08)
(0.286947 0.0118987 -7.90746e-08)
(0.286973 0.011913 0.00243869)
(0.315563 0.0269127 -0.00269178)
(0.315514 0.0269177 1.019e-07)
(0.315514 0.0269177 -1.01978e-07)
(0.315563 0.0269127 0.00269178)
(0.320821 -0.00950972 -0.00263025)
(0.320784 -0.00948599 1.24301e-07)
(0.320785 -0.009486 -1.2438e-07)
(0.320821 -0.00950972 0.00263025)
(0.282199 -0.0239595 -0.00237005)
(0.282162 -0.0239485 1.08204e-07)
(0.282162 -0.0239485 -1.08271e-07)
(0.282199 -0.0239595 0.00237005)
(0.255084 -0.0210919 -0.00212499)
(0.255054 -0.0210764 7.70373e-08)
(0.255054 -0.0210763 -7.7089e-08)
(0.255083 -0.0210918 0.00212499)
(0.227712 -0.0425479 -0.00187331)
(0.227693 -0.0425449 7.87844e-08)
(0.227693 -0.0425449 -7.8796e-08)
(0.227712 -0.042548 0.00187331)
(0.198231 -0.0256601 -0.0016645)
(0.198205 -0.0256574 5.30637e-08)
(0.198205 -0.0256574 -5.30653e-08)
(0.198231 -0.0256601 0.0016645)
(0.173144 -0.0247861 -0.00148219)
(0.173124 -0.0247893 3.70062e-08)
(0.173124 -0.0247893 -3.6999e-08)
(0.173145 -0.0247862 0.00148219)
(0.154242 -0.0236172 -0.00131672)
(0.154228 -0.0236207 2.81949e-08)
(0.154228 -0.0236207 -2.81785e-08)
(0.154242 -0.0236172 0.00131672)
(0.13887 -0.0208379 -0.00116757)
(0.138863 -0.0208365 1.78778e-08)
(0.138863 -0.0208365 -1.78801e-08)
(0.13887 -0.0208379 0.00116757)
(0.122778 -0.0234824 -0.0010229)
(0.122774 -0.0234854 2.11328e-08)
(0.122774 -0.0234854 -2.11165e-08)
(0.122778 -0.0234824 0.0010229)
(0.107831 -0.0193468 -0.000895192)
(0.107827 -0.0193454 1.13202e-08)
(0.107827 -0.0193454 -1.13259e-08)
(0.107831 -0.0193468 0.000895192)
(0.0945773 0.0158197 -0.000772304)
(0.0945736 0.0158158 3.93164e-10)
(0.0945736 0.0158158 -3.98622e-10)
(0.0945773 0.0158197 0.000772304)
(0.0973473 0.00559673 -0.000787608)
(0.0973475 0.00559344 7.87032e-09)
(0.0973475 0.00559344 -7.87508e-09)
(0.0973473 0.00559675 0.000787608)
(0.0955155 -0.00170641 -0.000786421)
(0.0955133 -0.00170769 4.80696e-09)
(0.0955133 -0.00170769 -4.80841e-09)
(0.0955155 -0.0017064 0.000786421)
(0.0990235 -0.0109384 -0.000787534)
(0.0990196 -0.010943 7.61129e-09)
(0.0990196 -0.010943 -7.61701e-09)
(0.0990235 -0.0109384 0.000787534)
(0.097004 -0.0201072 -0.000774791)
(0.0970024 -0.0201084 1.23498e-08)
(0.0970025 -0.0201084 -1.23552e-08)
(0.097004 -0.0201072 0.000774791)
(0.156866 0.000227651 -0.00160075)
(0.156867 0.000221473 1.08729e-08)
(0.156867 0.000221463 -1.07232e-08)
(0.156866 0.00022755 0.00160075)
(0.135692 0.0201475 -0.00148313)
(0.135693 0.0201441 -1.62525e-09)
(0.135693 0.020144 1.72412e-09)
(0.135692 0.0201472 0.00148313)
(0.13714 0.0249569 -0.00134328)
(0.137148 0.0249464 1.06604e-08)
(0.137148 0.0249465 -1.06366e-08)
(0.13714 0.024957 0.00134328)
(0.12984 0.0297799 -0.00120672)
(0.12984 0.0297746 9.46058e-09)
(0.12984 0.0297747 -9.41212e-09)
(0.12984 0.0297799 0.00120672)
(0.118337 0.0274581 -0.00108528)
(0.118336 0.0274486 5.09097e-09)
(0.118336 0.0274486 -5.05037e-09)
(0.118337 0.0274582 0.00108528)
(0.110061 0.0294167 -0.000971038)
(0.110059 0.0294157 5.7848e-09)
(0.110059 0.0294157 -5.76751e-09)
(0.110061 0.0294168 0.000971038)
(0.101712 0.0257457 -0.000859893)
(0.101712 0.0257379 2.53172e-10)
(0.101712 0.0257379 -2.44336e-10)
(0.101712 0.0257457 0.000859893)
(0.0929113 0.0233396 -0.000753592)
(0.0929137 0.0233384 3.02117e-09)
(0.0929137 0.0233384 -3.01852e-09)
(0.0929113 0.0233396 0.000753592)
(0.585361 0.0973523 -0.00333807)
(0.585408 0.0973362 2.71317e-08)
(0.585408 0.0973361 -2.7342e-08)
(0.585361 0.097352 0.00333807)
(0.741753 0.152031 -0.00384462)
(0.741784 0.152034 -4.02379e-08)
(0.741784 0.152034 4.03406e-08)
(0.741753 0.15203 0.00384462)
(0.779003 0.244136 -0.00431896)
(0.779012 0.244141 -2.57357e-08)
(0.779012 0.244141 2.57589e-08)
(0.779003 0.244136 0.00431896)
(0.861075 0.303978 -0.00494749)
(0.861148 0.30401 2.65668e-08)
(0.861148 0.304011 -2.65133e-08)
(0.861075 0.303978 0.00494749)
(0.845239 0.362861 -0.00580148)
(0.845257 0.36285 -1.40134e-07)
(0.845257 0.36285 1.40044e-07)
(0.845238 0.362861 0.00580148)
(0.902173 0.525603 -0.00627379)
(0.902199 0.525533 -7.82539e-08)
(0.902199 0.525533 7.84244e-08)
(0.902173 0.525603 0.00627379)
(0.880669 0.48531 -0.00707044)
(0.880708 0.485353 6.99303e-08)
(0.880708 0.485353 -6.97725e-08)
(0.880669 0.48531 0.00707044)
(0.98533 0.457466 -0.0076934)
(0.98539 0.457569 8.57525e-08)
(0.98539 0.457569 -8.55208e-08)
(0.98533 0.457466 0.0076934)
(1.06001 0.452648 -0.00817174)
(1.06001 0.452714 -3.68639e-08)
(1.06001 0.452714 3.70121e-08)
(1.06001 0.452648 0.00817174)
(1.18635 0.445767 -0.00859723)
(1.18635 0.445807 -6.73607e-08)
(1.18635 0.445807 6.77781e-08)
(1.18635 0.445768 0.00859723)
(1.30886 0.463936 -0.00896273)
(1.30886 0.463972 -5.91533e-08)
(1.30886 0.463973 6.06809e-08)
(1.30886 0.463937 0.00896273)
(1.44702 0.474534 -0.00926553)
(1.44703 0.47457 -2.91756e-08)
(1.44703 0.47457 3.06533e-08)
(1.44702 0.474535 0.00926553)
(1.58798 0.487134 -0.00947448)
(1.58795 0.487157 -1.47902e-07)
(1.58795 0.487157 1.46113e-07)
(1.58798 0.487134 0.00947448)
(1.74336 0.50192 -0.00957555)
(1.74332 0.501901 -7.31241e-08)
(1.74332 0.5019 7.23236e-08)
(1.74336 0.50192 0.00957555)
(1.90077 0.531124 -0.00959802)
(1.90079 0.531109 7.79148e-08)
(1.90079 0.531109 -7.66563e-08)
(1.90077 0.531124 0.00959802)
(2.05467 0.525934 -0.00946616)
(2.05466 0.525925 8.44953e-08)
(2.05466 0.525925 -8.59845e-08)
(2.05467 0.525933 0.00946616)
(2.21712 0.513964 -0.0091484)
(2.21701 0.513892 -2.36832e-07)
(2.21702 0.513892 2.36563e-07)
(2.21712 0.513963 0.00914841)
(2.38749 0.456365 -0.00868123)
(2.3874 0.456331 -2.90258e-07)
(2.3874 0.456331 2.91234e-07)
(2.38749 0.456365 0.00868123)
(2.53996 0.39528 -0.00816091)
(2.53989 0.395223 -2.76253e-07)
(2.53989 0.395223 2.73434e-07)
(2.53996 0.39528 0.00816091)
(0.210643 0.0120791 -0.00181197)
(0.210664 0.012082 -7.9268e-09)
(0.210665 0.012082 7.89601e-09)
(0.210643 0.0120789 0.00181197)
(0.183516 0.021904 -0.00160988)
(0.183526 0.021892 8.72573e-09)
(0.183526 0.0218921 -8.6954e-09)
(0.183516 0.021904 0.00160988)
(0.15766 0.0346915 -0.00145615)
(0.157661 0.0346871 -7.44302e-09)
(0.157661 0.0346871 7.49841e-09)
(0.15766 0.0346914 0.00145615)
(0.142907 0.0393823 -0.00130642)
(0.142908 0.0393742 5.38965e-09)
(0.142908 0.0393741 -5.38769e-09)
(0.142907 0.0393823 0.00130642)
(0.129156 0.0412273 -0.00117)
(0.129157 0.0412188 -4.86676e-09)
(0.129157 0.0412187 4.88538e-09)
(0.129156 0.0412273 0.00117)
(0.117885 0.0407717 -0.00104495)
(0.11789 0.0407701 2.6094e-09)
(0.11789 0.04077 -2.6182e-09)
(0.117885 0.0407717 0.00104495)
(0.108007 0.0374677 -0.000931309)
(0.108008 0.0374648 6.18579e-11)
(0.108008 0.0374648 -6.46309e-11)
(0.108007 0.0374677 0.000931309)
(0.0986254 0.0341836 -0.000825256)
(0.0986268 0.0341812 1.81391e-09)
(0.0986268 0.0341812 -1.82443e-09)
(0.0986254 0.0341836 0.000825256)
(0.0890499 0.0312559 -0.000720705)
(0.0890511 0.0312538 2.15759e-10)
(0.0890511 0.0312538 -2.23103e-10)
(0.0890499 0.0312559 0.000720705)
(0.0815347 0.027856 -0.000625731)
(0.0815369 0.0278538 1.50599e-09)
(0.0815369 0.0278538 -1.51983e-09)
(0.0815347 0.027856 0.000625731)
(0.0847985 0.020416 -0.00065551)
(0.0848001 0.0204131 2.88069e-09)
(0.0848001 0.0204131 -2.88554e-09)
(0.0847985 0.0204161 0.00065551)
(0.0867414 0.0135306 -0.000673648)
(0.0867444 0.0135282 6.09155e-09)
(0.0867444 0.0135282 -6.10707e-09)
(0.0867414 0.0135306 0.000673648)
(0.0889862 0.00525986 -0.000687896)
(0.0889855 0.00525614 5.74468e-09)
(0.0889855 0.00525614 -5.75026e-09)
(0.0889862 0.00525987 0.000687896)
(0.0883025 -0.00195253 -0.000686009)
(0.088304 -0.00195477 1.11964e-08)
(0.088304 -0.00195476 -1.1206e-08)
(0.0883025 -0.00195252 0.000686009)
(0.0896017 -0.0101292 -0.000681636)
(0.0896008 -0.0101288 9.11995e-09)
(0.0896008 -0.0101288 -9.12554e-09)
(0.0896017 -0.0101292 0.000681636)
(0.0879924 -0.018752 -0.000667813)
(0.0879897 -0.0187518 9.37962e-09)
(0.0879897 -0.0187518 -9.38812e-09)
(0.0879924 -0.018752 0.000667813)
(0.0857762 -0.0260696 -0.000648131)
(0.0857748 -0.0260694 8.15357e-09)
(0.0857748 -0.0260694 -8.16012e-09)
(0.0857762 -0.0260696 0.000648131)
(0.0951895 -0.0282469 -0.000752917)
(0.095187 -0.0282462 9.54426e-09)
(0.095187 -0.0282462 -9.5497e-09)
(0.0951895 -0.0282469 0.000752917)
(0.107466 -0.0309646 -0.000867869)
(0.107464 -0.0309653 1.34083e-08)
(0.107464 -0.0309653 -1.34126e-08)
(0.107466 -0.0309646 0.000867869)
(0.120842 -0.0340921 -0.000997276)
(0.120838 -0.0340913 1.17093e-08)
(0.120838 -0.0340913 -1.17079e-08)
(0.120842 -0.0340921 0.000997276)
(0.136176 -0.0381687 -0.00113482)
(0.136166 -0.038169 1.8993e-08)
(0.136166 -0.038169 -1.89872e-08)
(0.136176 -0.0381687 0.00113482)
(0.154919 -0.0397115 -0.00128759)
(0.154908 -0.0397119 2.55792e-08)
(0.154908 -0.0397119 -2.55524e-08)
(0.154919 -0.0397115 0.00128759)
(0.17515 -0.0437862 -0.00145602)
(0.17513 -0.0437858 3.15843e-08)
(0.17513 -0.0437858 -3.15896e-08)
(0.17515 -0.0437862 0.00145602)
(0.201992 -0.0470788 -0.00164311)
(0.201985 -0.0470769 5.61457e-08)
(0.201985 -0.0470768 -5.61215e-08)
(0.201992 -0.0470788 0.0016431)
(0.226131 -0.0512384 -0.00186881)
(0.226114 -0.0512276 3.45203e-08)
(0.226114 -0.0512276 -3.45533e-08)
(0.226131 -0.0512384 0.00186881)
(0.256412 -0.0551054 -0.0020934)
(0.256388 -0.0550954 7.2201e-08)
(0.256388 -0.0550954 -7.22443e-08)
(0.256412 -0.0551053 0.0020934)
(0.300106 -0.0537334 -0.00235733)
(0.300086 -0.0537161 5.33973e-08)
(0.300086 -0.0537161 -5.3472e-08)
(0.300106 -0.0537334 0.00235733)
(0.351971 -0.0513103 -0.00264634)
(0.351927 -0.0512923 7.0412e-08)
(0.351927 -0.0512923 -7.04921e-08)
(0.351971 -0.0513103 0.00264634)
(0.422441 -0.0454599 -0.00296922)
(0.422421 -0.0454413 1.02172e-07)
(0.422421 -0.0454413 -1.02273e-07)
(0.422441 -0.0454599 0.00296922)
(0.50358 -0.0357446 -0.00334107)
(0.503569 -0.0356948 8.47936e-08)
(0.503569 -0.0356948 -8.48827e-08)
(0.50358 -0.0357446 0.00334108)
(0.629383 -0.0469918 -0.0037098)
(0.629322 -0.0468466 5.44723e-08)
(0.629322 -0.0468467 -5.45715e-08)
(0.629383 -0.0469918 0.0037098)
(0.728133 -0.0319177 -0.00402476)
(0.728127 -0.0316929 2.60633e-07)
(0.728127 -0.0316929 -2.60756e-07)
(0.728133 -0.0319176 0.00402476)
(0.878197 -0.111544 -0.0045685)
(0.878345 -0.111319 3.29144e-07)
(0.878345 -0.111319 -3.29355e-07)
(0.878197 -0.111544 0.0045685)
(0.878955 -0.260553 -0.0053148)
(0.879071 -0.260365 1.79328e-07)
(0.879071 -0.260365 -1.79327e-07)
(0.878955 -0.260553 0.0053148)
(0.948832 -0.503779 -0.00570906)
(0.948897 -0.503949 2.95911e-07)
(0.948897 -0.503949 -2.9622e-07)
(0.948832 -0.503779 0.00570906)
(0.876755 -0.470778 -0.00660355)
(0.876899 -0.470786 2.64166e-07)
(0.876899 -0.470786 -2.64356e-07)
(0.876755 -0.470778 0.00660355)
(0.979005 -0.470647 -0.00730252)
(0.97906 -0.470792 1.33121e-07)
(0.97906 -0.470792 -1.33446e-07)
(0.979005 -0.470647 0.00730252)
(1.03108 -0.463142 -0.00783593)
(1.0311 -0.463194 1.67298e-09)
(1.0311 -0.463194 -2.04884e-09)
(1.03108 -0.463143 0.00783593)
(1.15571 -0.451848 -0.00835306)
(1.15573 -0.4519 -3.522e-08)
(1.15573 -0.4519 3.45341e-08)
(1.15571 -0.451848 0.00835306)
(1.27295 -0.454762 -0.00878299)
(1.27297 -0.454801 -5.84366e-08)
(1.27297 -0.454801 5.75127e-08)
(1.27295 -0.454763 0.008783)
(1.4116 -0.461025 -0.0091321)
(1.4116 -0.461035 -1.55448e-07)
(1.41161 -0.461035 1.54675e-07)
(1.4116 -0.461024 0.00913211)
(1.55843 -0.471874 -0.00938255)
(1.55841 -0.471889 -1.73767e-07)
(1.55841 -0.471889 1.73194e-07)
(1.55843 -0.471873 0.00938255)
(1.71155 -0.498385 -0.00953993)
(1.71156 -0.498381 -7.79595e-08)
(1.71156 -0.498381 7.77405e-08)
(1.71155 -0.498385 0.00953993)
(1.8657 -0.523234 -0.00957063)
(1.86571 -0.523185 -1.01087e-07)
(1.86571 -0.523184 1.01267e-07)
(1.8657 -0.523234 0.00957063)
(2.01961 -0.518785 -0.00946025)
(2.01957 -0.518767 -1.53799e-07)
(2.01957 -0.518767 1.5359e-07)
(2.01961 -0.518785 0.00946025)
(2.17929 -0.512031 -0.00920797)
(2.17921 -0.512016 -1.65136e-07)
(2.17921 -0.512017 1.64823e-07)
(2.17929 -0.512032 0.00920797)
(2.34843 -0.488243 -0.00879267)
(2.34835 -0.488187 -1.64904e-07)
(2.34835 -0.488187 1.64707e-07)
(2.34843 -0.488245 0.00879267)
(2.51315 -0.409294 -0.00828064)
(2.51309 -0.409249 -1.92901e-07)
(2.51309 -0.409249 1.93395e-07)
(2.51315 -0.409294 0.00828064)
(2.67385 -0.302681 -0.00765557)
(2.6738 -0.302649 -3.02705e-07)
(2.6738 -0.302648 3.05908e-07)
(2.67385 -0.302679 0.00765557)
(2.67724 -0.284347 -0.00812688)
(2.67718 -0.28443 -4.21209e-07)
(2.67718 -0.284429 4.21035e-07)
(2.67724 -0.284347 0.00812688)
(2.6893 -0.145009 -0.0081384)
(2.68926 -0.145005 -2.87373e-07)
(2.68926 -0.145004 2.88152e-07)
(2.6893 -0.145009 0.0081384)
(2.69119 -0.0596426 -0.00827832)
(2.69115 -0.0596409 -4.08511e-07)
(2.69115 -0.0596411 4.08076e-07)
(2.69119 -0.0596431 0.00827832)
(2.66592 0.0455314 -0.00826852)
(2.66587 0.0455853 -3.1414e-07)
(2.66587 0.0455851 3.1336e-07)
(2.66592 0.0455313 0.00826852)
(2.69033 0.145054 -0.00812127)
(2.69029 0.145015 -3.2553e-07)
(2.69029 0.145015 3.23685e-07)
(2.69033 0.145055 0.00812128)
(2.68359 0.270249 -0.00809264)
(2.68352 0.270304 -4.25642e-07)
(2.68352 0.270303 4.26253e-07)
(2.68359 0.270249 0.00809264)
(2.70943 0.289213 -0.00759596)
(2.70938 0.289197 -3.18164e-07)
(2.70938 0.289197 3.18107e-07)
(2.70943 0.289213 0.00759596)
(0.0741032 0.0247619 -0.000540657)
(0.0741051 0.0247602 1.80128e-09)
(0.0741051 0.0247602 -1.81446e-09)
(0.0741032 0.0247619 0.000540657)
(0.0776168 0.0179728 -0.000566699)
(0.0776183 0.0179707 2.92703e-09)
(0.0776183 0.0179707 -2.93315e-09)
(0.0776168 0.0179728 0.000566699)
(0.0793811 0.0117522 -0.000583631)
(0.0793821 0.0117506 4.60894e-09)
(0.0793821 0.0117506 -4.62047e-09)
(0.0793811 0.0117522 0.000583631)
(0.0814269 0.00454816 -0.00059589)
(0.0814269 0.0045466 4.88016e-09)
(0.0814269 0.0045466 -4.88573e-09)
(0.0814269 0.00454816 0.00059589)
(0.081153 -0.0020185 -0.000595102)
(0.0811507 -0.00201965 6.28498e-09)
(0.0811507 -0.00201965 -6.29341e-09)
(0.081153 -0.00201849 0.000595102)
(0.0811376 -0.00918177 -0.000587286)
(0.0811361 -0.00918214 6.09621e-09)
(0.0811361 -0.00918214 -6.10285e-09)
(0.0811376 -0.00918177 0.000587286)
(0.0792082 -0.0162478 -0.000573585)
(0.0792073 -0.0162485 6.71098e-09)
(0.0792073 -0.0162485 -6.72098e-09)
(0.0792082 -0.0162478 0.000573585)
(0.0770648 -0.0231959 -0.000555267)
(0.0770644 -0.0231965 6.8998e-09)
(0.0770644 -0.0231965 -6.90827e-09)
(0.0770648 -0.0231959 0.000555267)
(0.0735364 -0.0304853 -0.000528847)
(0.0735356 -0.0304853 7.40667e-09)
(0.0735356 -0.0304853 -7.41648e-09)
(0.0735365 -0.0304853 0.000528847)