/*--------------------------------*- C++ -*----------------------------------*\
| =========                 |                                                 |
| \\      /  F ield         | OpenFOAM: The Open Source CFD Toolbox           |
|  \\    /   O peration     | Version:  v1806                                 |
|   \\  /    A nd           | Web:      www.OpenFOAM.com                      |
|    \\/     M anipulation  |                                                 |
\*---------------------------------------------------------------------------*/
FoamFile
{
    version     2.0;
    format      ascii;
    class       volVectorField;
    location    "490";
    object      U;
}
// * * * * * * * * * * * * * * * * * * * * * * * * * * * * * * * * * * * * * //

dimensions      [0 1 -1 0 0 0 0];


internalField   nonuniform List<vector> 
2400
(
(0.3 -0.000534962 0)
(0.300001 -0.00160424 0)
(0.300003 -0.00267164 0)
(0.300007 -0.00373554 0)
(0.300012 -0.00479367 0)
(0.300021 -0.00584297 0)
(0.300033 -0.00687935 0)
(0.30005 -0.00789772 0)
(0.300073 -0.00889176 0)
(0.300104 -0.00985401 0)
(0.300144 -0.0107755 0)
(0.300194 -0.0116463 0)
(0.300256 -0.0124547 0)
(0.300333 -0.0131889 0)
(0.300424 -0.0138357 0)
(0.300531 -0.014383 0)
(0.300654 -0.0148184 0)
(0.300793 -0.0151321 0)
(0.300946 -0.0153145 0)
(0.301122 -0.0153612 0)
(0.3 -0.000535699 0)
(0.300003 -0.00160657 0)
(0.300008 -0.00267597 0)
(0.300016 -0.00374254 0)
(0.300028 -0.0048043 0)
(0.300046 -0.00585844 0)
(0.300072 -0.00690114 0)
(0.300107 -0.00792757 0)
(0.300154 -0.00893162 0)
(0.300215 -0.009906 0)
(0.300293 -0.0108419 0)
(0.30039 -0.0117291 0)
(0.300509 -0.0125561 0)
(0.300651 -0.0133104 0)
(0.300817 -0.0139786 0)
(0.301008 -0.0145475 0)
(0.301223 -0.0150043 0)
(0.301461 -0.0153368 0)
(0.301717 -0.0155362 0)
(0.301987 -0.0155941 0)
(0.3 -0.00053706 0)
(0.300004 -0.00161087 0)
(0.300011 -0.00268389 0)
(0.300024 -0.00375526 0)
(0.300042 -0.00482346 0)
(0.30007 -0.00588613 0)
(0.300109 -0.00693985 0)
(0.300162 -0.00798017 0)
(0.300234 -0.00900122 0)
(0.300329 -0.00999588 0)
(0.300449 -0.0109552 0)
(0.3006 -0.011869 0)
(0.300783 -0.0127249 0)
(0.301003 -0.01351 0)
(0.30126 -0.0142095 0)
(0.301555 -0.0148093 0)
(0.301885 -0.0152939 0)
(0.302247 -0.0156516 0)
(0.302635 -0.0158691 0)
(0.303039 -0.0159429 0)
(0.3 -0.000538792 0)
(0.300004 -0.00161639 0)
(0.300013 -0.00269421 0)
(0.300028 -0.00377208 0)
(0.300051 -0.00484918 0)
(0.300085 -0.00592381 0)
(0.300134 -0.00699314 0)
(0.300203 -0.00805323 0)
(0.300297 -0.00909859 0)
(0.300421 -0.0101223 0)
(0.300582 -0.0111154 0)
(0.300784 -0.0120672 0)
(0.301032 -0.0129647 0)
(0.301331 -0.0137938 0)
(0.301682 -0.0145379 0)
(0.302085 -0.015181 0)
(0.302538 -0.015705 0)
(0.303036 -0.016096 0)
(0.303568 -0.0163376 0)
(0.304126 -0.0164229 0)
(0.3 -0.000540521 0)
(0.300004 -0.00162201 0)
(0.300013 -0.00270505 0)
(0.300027 -0.00379046 0)
(0.300051 -0.0048783 0)
(0.300087 -0.0059678 0)
(0.300142 -0.00705692 0)
(0.300221 -0.00814249 0)
(0.300332 -0.00921954 0)
(0.30048 -0.0102816 0)
(0.300676 -0.0113195 0)
(0.300925 -0.0123223 0)
(0.301234 -0.0132759 0)
(0.30161 -0.0141648 0)
(0.302055 -0.0149699 0)
(0.302571 -0.0156726 0)
(0.303154 -0.016251 0)
(0.303798 -0.0166876 0)
(0.304488 -0.0169616 0)
(0.305214 -0.0170631 0)
(0.3 -0.000541765 0)
(0.300003 -0.00162629 0)
(0.300009 -0.00271403 0)
(0.30002 -0.00380705 0)
(0.30004 -0.00490655 0)
(0.300073 -0.00601301 0)
(0.300128 -0.00712539 0)
(0.30021 -0.00824162 0)
(0.300329 -0.00935744 0)
(0.300495 -0.0104671 0)
(0.300717 -0.0115614 0)
(0.301006 -0.0126293 0)
(0.301371 -0.0136552 0)
(0.301821 -0.0146222 0)
(0.30236 -0.0155076 0)
(0.302992 -0.0162897 0)
(0.303712 -0.016941 0)
(0.304514 -0.0174396 0)
(0.30538 -0.017758 0)
(0.306295 -0.0178833 0)
(0.3 -0.000541915 0)
(0.3 -0.00162741 0)
(0.300001 -0.00271811 0)
(0.300004 -0.00381763 0)
(0.300015 -0.0049285 0)
(0.300039 -0.00605286 0)
(0.300085 -0.00719091 0)
(0.300162 -0.00834218 0)
(0.30028 -0.0095033 0)
(0.300452 -0.0106697 0)
(0.300691 -0.0118325 0)
(0.30101 -0.0129807 0)
(0.301423 -0.0140972 0)
(0.301941 -0.0151633 0)
(0.302573 -0.0161523 0)
(0.303324 -0.0170385 0)
(0.30419 -0.0177866 0)
(0.305166 -0.0183692 0)
(0.306229 -0.0187484 0)
(0.307359 -0.0189074 0)
(0.3 -0.000540234 0)
(0.299995 -0.0016232 0)
(0.299988 -0.00271361 0)
(0.299979 -0.00381702 0)
(0.299974 -0.00493744 0)
(0.299981 -0.00607919 0)
(0.300009 -0.00724385 0)
(0.300068 -0.00843336 0)
(0.300173 -0.00964533 0)
(0.300338 -0.0108775 0)
(0.300579 -0.0121208 0)
(0.300915 -0.0133658 0)
(0.301364 -0.0145933 0)
(0.301942 -0.0157838 0)
(0.302662 -0.0169047 0)
(0.303535 -0.0179261 0)
(0.304558 -0.0188021 0)
(0.305727 -0.0194981 0)
(0.307015 -0.0199614 0)
(0.308397 -0.0201688 0)
(0.3 -0.000535864 0)
(0.299989 -0.0016111 0)
(0.299969 -0.0026962 0)
(0.299943 -0.00379915 0)
(0.299915 -0.00492536 0)
(0.299895 -0.00608218 0)
(0.299892 -0.00727238 0)
(0.299921 -0.0085017 0)
(0.299996 -0.00976842 0)
(0.300136 -0.0110745 0)
(0.300362 -0.0124102 0)
(0.300697 -0.0137699 0)
(0.301165 -0.0151311 0)
(0.301789 -0.0164756 0)
(0.30259 -0.017763 0)
(0.303584 -0.0189594 0)
(0.304775 -0.0200045 0)
(0.30616 -0.0208545 0)
(0.307709 -0.0214347 0)
(0.309392 -0.0217134 0)
(0.299999 -0.000527836 0)
(0.299981 -0.00158825 0)
(0.299945 -0.00266096 0)
(0.299894 -0.0037571 0)
(0.299835 -0.00488298 0)
(0.299776 -0.00605035 0)
(0.29973 -0.00726232 0)
(0.299711 -0.00853088 0)
(0.299738 -0.00985348 0)
(0.299832 -0.0112405 0)
(0.300019 -0.0126788 0)
(0.300328 -0.0141724 0)
(0.300791 -0.0156914 0)
(0.30144 -0.0172256 0)
(0.302307 -0.0187207 0)
(0.303419 -0.0201442 0)
(0.304786 -0.0214126 0)
(0.306414 -0.0224732 0)
(0.30827 -0.0232181 0)
(0.310319 -0.0236032 0)
(0.299999 -0.0005151 0)
(0.29997 -0.00155159 0)
(0.299914 -0.00260251 0)
(0.299832 -0.00368325 0)
(0.299732 -0.00479983 0)
(0.299623 -0.00597069 0)
(0.299517 -0.00719701 0)
(0.299432 -0.00850157 0)
(0.299387 -0.00987684 0)
(0.299408 -0.0113498 0)
(0.299525 -0.012897 0)
(0.299776 -0.0145452 0)
(0.300201 -0.0162451 0)
(0.300844 -0.0180127 0)
(0.301753 -0.0197631 0)
(0.302968 -0.021483 0)
(0.304518 -0.0230458 0)
(0.306418 -0.0243981 0)
(0.308638 -0.0253771 0)
(0.311141 -0.0259226 0)
(0.299998 -0.000496573 0)
(0.299957 -0.00149791 0)
(0.299876 -0.00251519 0)
(0.299757 -0.00356955 0)
(0.299606 -0.00466459 0)
(0.299433 -0.00582896 0)
(0.299251 -0.00705752 0)
(0.299078 -0.0083916 0)
(0.298933 -0.0098098 0)
(0.298849 -0.0113716 0)
(0.298859 -0.0130258 0)
(0.299007 -0.0148513 0)
(0.299349 -0.0167485 0)
(0.299939 -0.0188055 0)
(0.300851 -0.0208591 0)
(0.302139 -0.0229731 0)
(0.303871 -0.0249189 0)
(0.306069 -0.0266853 0)
(0.308728 -0.0279998 0)
(0.311802 -0.028791 0)
(0.299998 -0.000471207 0)
(0.299942 -0.00142408 0)
(0.299831 -0.00239339 0)
(0.299668 -0.00340786 0)
(0.299456 -0.00446555 0)
(0.299207 -0.00561014 0)
(0.29893 -0.00682319 0)
(0.298646 -0.00817631 0)
(0.298372 -0.0096186 0)
(0.298145 -0.0112688 0)
(0.298 -0.0130142 0)
(0.297991 -0.0150426 0)
(0.298188 -0.0171359 0)
(0.298656 -0.0195592 0)
(0.299511 -0.0219483 0)
(0.300812 -0.0246047 0)
(0.302711 -0.0270254 0)
(0.305217 -0.0294092 0)
(0.308413 -0.0312035 0)
(0.312216 -0.0323881 0)
(0.299997 -0.000438099 0)
(0.299925 -0.00132712 0)
(0.299781 -0.00223197 0)
(0.299568 -0.00319035 0)
(0.299286 -0.00419152 0)
(0.298947 -0.00529911 0)
(0.298559 -0.00647286 0)
(0.298139 -0.00782912 0)
(0.297704 -0.00926562 0)
(0.297291 -0.0109986 0)
(0.296937 -0.0127994 0)
(0.296702 -0.0150584 0)
(0.29667 -0.0173119 0)
(0.296919 -0.0202109 0)
(0.297624 -0.0229186 0)
(0.29883 -0.0263628 0)
(0.300855 -0.0293001 0)
(0.30363 -0.0326747 0)
(0.307504 -0.0351123 0)
(0.312245 -0.0369891 0)
(0.299997 -0.000396603 0)
(0.299906 -0.00120451 0)
(0.299728 -0.00202689 0)
(0.299457 -0.00291008 0)
(0.299101 -0.00383305 0)
(0.29866 -0.00488134 0)
(0.298146 -0.00598709 0)
(0.297565 -0.00732215 0)
(0.296941 -0.00871271 0)
(0.296294 -0.0105113 0)
(0.295672 -0.0123099 0)
(0.295125 -0.014821 0)
(0.294761 -0.0171513 0)
(0.294656 -0.0206674 0)
(0.295065 -0.0235818 0)
(0.296008 -0.0282269 0)
(0.298061 -0.0315558 0)
(0.300958 -0.0366707 0)
(0.305717 -0.0397515 0)
(0.311596 -0.0429759 0)
(0.299997 -0.000346433 0)
(0.299886 -0.00105436 0)
(0.299673 -0.00177578 0)
(0.29934 -0.00256163 0)
(0.298908 -0.00338388 0)
(0.298352 -0.00434409 0)
(0.297708 -0.00535124 0)
(0.296939 -0.00662725 0)
(0.296109 -0.00792711 0)
(0.29517 -0.00974868 0)
(0.294237 -0.0114757 0)
(0.293265 -0.0142231 0)
(0.292461 -0.0165132 0)
(0.291809 -0.0207741 0)
(0.291707 -0.0236728 0)
(0.292137 -0.0301115 0)
(0.293968 -0.033404 0)
(0.296768 -0.0417885 0)
(0.302639 -0.0449512 0)
(0.309634 -0.0511443 0)
(0.299998 -0.000287712 0)
(0.299864 -0.000875824 0)
(0.299621 -0.00147844 0)
(0.29922 -0.00214206 0)
(0.29872 -0.0028422 0)
(0.298034 -0.00367825 0)
(0.297273 -0.00455837 0)
(0.296279 -0.00571905 0)
(0.29526 -0.00688838 0)
(0.293944 -0.00864603 0)
(0.292711 -0.0102439 0)
(0.29113 -0.0131151 0)
(0.289857 -0.0152758 0)
(0.288313 -0.0202426 0)
(0.287526 -0.0229272 0)
(0.286946 -0.0316583 0)
(0.288051 -0.0342622 0)
(0.290473 -0.0483342 0)
(0.297347 -0.0500947 0)
(0.305591 -0.0644394 0)
(0.3 -0.000220958 0)
(0.299842 -0.00066955 0)
(0.299576 -0.00113703 0)
(0.299103 -0.00165226 0)
(0.298549 -0.00221107 0)
(0.297721 -0.00288148 0)
(0.296871 -0.00361035 0)
(0.295615 -0.00458216 0)
(0.29446 -0.00559148 0)
(0.292659 -0.00714637 0)
(0.291227 -0.00858806 0)
(0.28875 -0.0113205 0)
(0.287189 -0.0133613 0)
(0.284057 -0.0186005 0)
(0.28284 -0.0211963 0)
(0.279905 -0.0319006 0)
(0.280221 -0.033822 0)
(0.280785 -0.055366 0)
(0.286815 -0.0531399 0)
(0.298994 -0.0863182 0)
(0.300003 -0.000147041 0)
(0.299822 -0.000437724 0)
(0.299539 -0.000756245 0)
(0.298997 -0.00109766 0)
(0.298405 -0.00149897 0)
(0.297436 -0.00196102 0)
(0.29653 -0.00251838 0)
(0.294995 -0.00322057 0)
(0.293773 -0.00404541 0)
(0.291409 -0.00522961 0)
(0.289929 -0.0064975 0)
(0.286261 -0.00871653 0)
(0.284776 -0.0106987 0)
(0.279049 -0.0153512 0)
(0.278366 -0.0183398 0)
(0.270032 -0.0292501 0)
(0.272171 -0.0324043 0)
(0.264685 -0.0600904 0)
(0.27045 -0.0537628 0)
(0.283938 -0.113682 0)
(0.300006 -6.87715e-05 0)
(0.299804 -0.000183812 0)
(0.299512 -0.000345032 0)
(0.298911 -0.000487564 0)
(0.298296 -0.000723733 0)
(0.297209 -0.000932242 0)
(0.296265 -0.00131188 0)
(0.294496 -0.00165642 0)
(0.293226 -0.002292 0)
(0.290376 -0.00292308 0)
(0.288861 -0.00400568 0)
(0.284091 -0.00531512 0)
(0.282686 -0.0071842 0)
(0.274148 -0.0103545 0)
(0.274223 -0.0136239 0)
(0.257892 -0.0228063 0)
(0.264798 -0.0283698 0)
(0.235929 -0.0614082 0)
(0.271683 -0.0658543 0)
(0.268865 -0.212032 0)
(0.301255 -0.0152967 0)
(0.301312 -0.0152561 0)
(0.301364 -0.0152046 0)
(0.301414 -0.0151429 0)
(0.301465 -0.0150708 0)
(0.301518 -0.0149885 0)
(0.30157 -0.014896 0)
(0.301623 -0.0147937 0)
(0.301676 -0.0146811 0)
(0.301727 -0.0145617 0)
(0.302161 -0.0155469 0)
(0.302239 -0.0155153 0)
(0.302317 -0.0154721 0)
(0.302397 -0.0154169 0)
(0.302476 -0.01535 0)
(0.302555 -0.0152717 0)
(0.302633 -0.0151821 0)
(0.302711 -0.0150817 0)
(0.302789 -0.0149699 0)
(0.302866 -0.0148511 0)
(0.303305 -0.0158897 0)
(0.303424 -0.0158531 0)
(0.303542 -0.0158041 0)
(0.303658 -0.0157432 0)
(0.303774 -0.0156704 0)
(0.303888 -0.0155861 0)
(0.304001 -0.0154903 0)
(0.304112 -0.0153835 0)
(0.304222 -0.015265 0)
(0.304329 -0.0151394 0)
(0.304494 -0.0163692 0)
(0.304656 -0.0163317 0)
(0.304816 -0.016281 0)
(0.304974 -0.0162175 0)
(0.30513 -0.0161412 0)
(0.305285 -0.0160522 0)
(0.305437 -0.0159507 0)
(0.305587 -0.0158372 0)
(0.305735 -0.0157108 0)
(0.305879 -0.015577 0)
(0.305694 -0.0170084 0)
(0.305905 -0.0169689 0)
(0.306112 -0.0169145 0)
(0.306317 -0.0168455 0)
(0.30652 -0.0167621 0)
(0.30672 -0.0166644 0)
(0.306918 -0.0165527 0)
(0.307111 -0.0164276 0)
(0.307301 -0.0162881 0)
(0.307486 -0.0161406 0)
(0.3069 -0.0178262 0)
(0.307166 -0.0177834 0)
(0.307428 -0.0177234 0)
(0.307686 -0.0176467 0)
(0.307942 -0.0175535 0)
(0.308194 -0.017444 0)
(0.308442 -0.0173185 0)
(0.308685 -0.0171777 0)
(0.308923 -0.0170204 0)
(0.309154 -0.0168544 0)
(0.308111 -0.0188476 0)
(0.308442 -0.0188005 0)
(0.308767 -0.0187332 0)
(0.309087 -0.0186463 0)
(0.309403 -0.01854 0)
(0.309715 -0.0184147 0)
(0.310022 -0.0182705 0)
(0.310322 -0.0181085 0)
(0.310615 -0.0179272 0)
(0.310898 -0.0177363 0)
(0.309323 -0.0201072 0)
(0.309731 -0.0200549 0)
(0.310131 -0.0199785 0)
(0.310524 -0.0198783 0)
(0.310913 -0.0197549 0)
(0.311296 -0.0196086 0)
(0.311672 -0.0194397 0)
(0.312039 -0.0192495 0)
(0.312396 -0.0190363 0)
(0.312741 -0.0188123 0)
(0.310531 -0.0216521 0)
(0.311032 -0.0215941 0)
(0.311522 -0.0215062 0)
(0.312005 -0.0213891 0)
(0.312482 -0.0212434 0)
(0.312951 -0.0210695 0)
(0.313411 -0.0208679 0)
(0.313859 -0.0206404 0)
(0.314293 -0.0203844 0)
(0.314712 -0.0201169 0)
(0.311722 -0.0235469 0)
(0.31234 -0.0234829 0)
(0.312944 -0.023381 0)
(0.313538 -0.0232422 0)
(0.314124 -0.0230673 0)
(0.3147 -0.0228569 0)
(0.315263 -0.0226118 0)
(0.31581 -0.0223344 0)
(0.31634 -0.0220212 0)
(0.316847 -0.021696 0)
(0.312882 -0.0258806 0)
(0.31365 -0.0258111 0)
(0.314399 -0.0256921 0)
(0.315135 -0.0255253 0)
(0.315859 -0.0253115 0)
(0.316571 -0.0250521 0)
(0.317265 -0.0247481 0)
(0.317937 -0.0244032 0)
(0.318586 -0.0240121 0)
(0.319202 -0.0236104 0)
(0.313985 -0.0287796 0)
(0.31495 -0.0287067 0)
(0.315892 -0.028567 0)
(0.316814 -0.0283627 0)
(0.31772 -0.0280955 0)
(0.318608 -0.0277678 0)
(0.319471 -0.0273815 0)
(0.320302 -0.0269428 0)
(0.321101 -0.0264432 0)
(0.321852 -0.0259374 0)
(0.314995 -0.0324335 0)
(0.316229 -0.0323592 0)
(0.317433 -0.0321917 0)
(0.31861 -0.0319346 0)
(0.319762 -0.0315916 0)
(0.320885 -0.0311667 0)
(0.32197 -0.0306633 0)
(0.323007 -0.0300913 0)
(0.323997 -0.0294375 0)
(0.324917 -0.0287871 0)
(0.315864 -0.0371407 0)
(0.31748 -0.037063 0)
(0.319055 -0.0368437 0)
(0.320586 -0.0364948 0)
(0.322075 -0.0360269 0)
(0.323516 -0.0354493 0)
(0.324899 -0.0347682 0)
(0.326209 -0.0339999 0)
(0.327448 -0.0331236 0)
(0.328577 -0.0322703 0)
(0.316532 -0.0433739 0)
(0.318763 -0.0433073 0)
(0.320913 -0.043005 0)
(0.322956 -0.0424973 0)
(0.324906 -0.04181 0)
(0.326766 -0.040963 0)
(0.328529 -0.0399711 0)
(0.330178 -0.0388642 0)
(0.331716 -0.037618 0)
(0.333098 -0.0364219 0)
(0.316802 -0.051884 0)
(0.3201 -0.0517821 0)
(0.323224 -0.0513381 0)
(0.326099 -0.0506281 0)
(0.328766 -0.0496823 0)
(0.331245 -0.0485147 0)
(0.333524 -0.0471399 0)
(0.335579 -0.0456037 0)
(0.337415 -0.0438705 0)
(0.338962 -0.0422306 0)
(0.317173 -0.0645467 0)
(0.322111 -0.063544 0)
(0.32634 -0.0619655 0)
(0.330016 -0.0601057 0)
(0.333364 -0.0580315 0)
(0.336423 -0.0557451 0)
(0.339132 -0.0532625 0)
(0.34144 -0.050642 0)
(0.343328 -0.047869 0)
(0.344845 -0.0452177 0)
(0.322039 -0.0876272 0)
(0.330148 -0.0863739 0)
(0.335048 -0.0841081 0)
(0.3381 -0.0811268 0)
(0.340389 -0.0775016 0)
(0.342151 -0.0733346 0)
(0.343295 -0.0687786 0)
(0.343761 -0.063993 0)
(0.343612 -0.0590847 0)
(0.342873 -0.0542559 0)
(0.314757 -0.0936602 0)
(0.322275 -0.0843065 0)
(0.324268 -0.0770664 0)
(0.323995 -0.0708741 0)
(0.322719 -0.0648481 0)
(0.320401 -0.0588067 0)
(0.316951 -0.0527954 0)
(0.312492 -0.046828 0)
(0.307382 -0.0409446 0)
(0.301415 -0.034864 0)
(0.290501 -0.158493 0)
(0.2628 -0.134602 0)
(0.227446 -0.113675 0)
(0.200766 -0.0949846 0)
(0.180647 -0.0778769 0)
(0.163532 -0.062357 0)
(0.148597 -0.0485413 0)
(0.136043 -0.0364193 0)
(0.12562 -0.0259421 0)
(0.116682 -0.0174385 0)
(0.301983 -0.0138744 0)
(0.302436 -0.0121329 0)
(0.302904 -0.00994437 0)
(0.303211 -0.00768721 0)
(0.303505 -0.00564524 0)
(0.303742 -0.0035608 0)
(0.303793 -0.00196469 0)
(0.303939 -0.000572965 0)
(0.303722 0.000250776 0)
(0.303697 0.000212686 0)
(0.303658 0.000254631 0)
(0.303712 -0.000323957 0)
(0.304107 -0.000100508 0)
(0.304172 0.000389541 0)
(0.304477 0.000759895 0)
(0.304476 0.00193007 0)
(0.304093 0.00141702 0)
(0.304093 0.00145786 0)
(0.303402 0.000109959 0)
(0.303791 -0.00149962 0)
(0.303238 -0.0141355 0)
(0.303757 -0.0123473 0)
(0.30419 -0.0101081 0)
(0.304371 -0.0078118 0)
(0.304532 -0.00575435 0)
(0.304621 -0.00361521 0)
(0.304503 -0.00199033 0)
(0.304479 -0.000541584 0)
(0.304047 0.000324188 0)
(0.303899 0.00023769 0)
(0.303799 0.000244046 0)
(0.303882 -0.00045646 0)
(0.304424 -0.000258483 0)
(0.304523 0.000281327 0)
(0.304856 0.000680517 0)
(0.304765 0.00202607 0)
(0.304214 0.00152797 0)
(0.30418 0.00163879 0)
(0.30328 0.000216597 0)
(0.303882 -0.00160785 0)
(0.30484 -0.0143975 0)
(0.305515 -0.0125432 0)
(0.305987 -0.010215 0)
(0.306078 -0.00786754 0)
(0.306136 -0.00578431 0)
(0.306084 -0.00358017 0)
(0.305771 -0.00191708 0)
(0.305535 -0.000395473 0)
(0.304775 0.000477802 0)
(0.304428 0.000313731 0)
(0.304208 0.000247499 0)
(0.304323 -0.00060133 0)
(0.305079 -0.000380233 0)
(0.305195 0.00020339 0)
(0.305603 0.000649225 0)
(0.305366 0.00220099 0)
(0.304529 0.0016806 0)
(0.304406 0.00184396 0)
(0.30314 0.000273853 0)
(0.304074 -0.00178568 0)
(0.306564 -0.0147729 0)
(0.307431 -0.012784 0)
(0.30797 -0.0103098 0)
(0.30799 -0.0078906 0)
(0.307983 -0.00576982 0)
(0.307828 -0.00348024 0)
(0.307339 -0.00175866 0)
(0.306903 -0.000134499 0)
(0.305767 0.000743078 0)
(0.305187 0.000463899 0)
(0.304814 0.000268906 0)
(0.304965 -0.000806298 0)
(0.306009 -0.000579708 0)
(0.306153 8.95636e-05 0)
(0.306687 0.000630652 0)
(0.306265 0.00246762 0)
(0.305056 0.00191361 0)
(0.304806 0.00215405 0)
(0.303025 0.000371577 0)
(0.304348 -0.0020403 0)
(0.308363 -0.0152497 0)
(0.309437 -0.0130691 0)
(0.310037 -0.0103983 0)
(0.309976 -0.00789634 0)
(0.309924 -0.00573257 0)
(0.309698 -0.00333299 0)
(0.309053 -0.00152648 0)
(0.308425 0.000245273 0)
(0.306875 0.00112947 0)
(0.306035 0.000696076 0)
(0.305488 0.00030972 0)
(0.305701 -0.00109082 0)
(0.30713 -0.000840925 0)
(0.307321 -6.00638e-05 0)
(0.308045 0.000624371 0)
(0.30741 0.00285688 0)
(0.305759 0.00225994 0)
(0.305345 0.00261186 0)
(0.302894 0.000506079 0)
(0.304668 -0.00239535 0)
(0.310247 -0.0158435 0)
(0.311537 -0.0133978 0)
(0.312171 -0.010474 0)
(0.311998 -0.007886 0)
(0.311909 -0.00567997 0)
(0.311638 -0.00314534 0)
(0.310852 -0.00122107 0)
(0.310025 0.000753539 0)
(0.308005 0.00164966 0)
(0.306864 0.00102274 0)
(0.306116 0.000363092 0)
(0.306435 -0.00147965 0)
(0.308363 -0.00119432 0)
(0.308641 -0.000269243 0)
(0.309628 0.000627395 0)
(0.308749 0.00338713 0)
(0.306579 0.00273829 0)
(0.305958 0.00325296 0)
(0.302669 0.0006958 0)
(0.304969 -0.00286338 0)
(0.312239 -0.0165631 0)
(0.313754 -0.0137608 0)
(0.314372 -0.0105218 0)
(0.31404 -0.00785671 0)
(0.313922 -0.00561874 0)
(0.313635 -0.00292369 0)
(0.312726 -0.000840083 0)
(0.311673 0.00140652 0)
(0.309113 0.00232527 0)
(0.307599 0.00146311 0)
(0.306609 0.000422625 0)
(0.307089 -0.00200929 0)
(0.30966 -0.00167331 0)
(0.310084 -0.000564053 0)
(0.311414 0.000636861 0)
(0.310241 0.00407654 0)
(0.307468 0.00337415 0)
(0.306578 0.00412579 0)
(0.302255 0.000957185 0)
(0.305173 -0.00346202 0)
(0.314371 -0.01742 0)
(0.316114 -0.0141444 0)
(0.316642 -0.010521 0)
(0.316089 -0.00780478 0)
(0.315949 -0.00555876 0)
(0.315696 -0.00267882 0)
(0.314691 -0.000379076 0)
(0.313365 0.00222892 0)
(0.310176 0.00318784 0)
(0.308178 0.00204681 0)
(0.306891 0.000480866 0)
(0.307602 -0.002723 0)
(0.310988 -0.00231961 0)
(0.311645 -0.000979246 0)
(0.313406 0.000654662 0)
(0.311863 0.00495107 0)
(0.308385 0.00420299 0)
(0.307138 0.00528993 0)
(0.301565 0.00130554 0)
(0.305188 -0.00421113 0)
(0.316685 -0.018426 0)
(0.31865 -0.0145291 0)
(0.31898 -0.010442 0)
(0.318122 -0.0077254 0)
(0.317971 -0.00551512 0)
(0.317829 -0.0024273 0)
(0.316775 0.000177286 0)
(0.315107 0.00325318 0)
(0.311179 0.00428059 0)
(0.308539 0.00281537 0)
(0.306886 0.000528822 0)
(0.307908 -0.00367234 0)
(0.312309 -0.00318829 0)
(0.313331 -0.00155852 0)
(0.31561 0.000689817 0)
(0.313596 0.00604423 0)
(0.309288 0.00527244 0)
(0.307563 0.00681324 0)
(0.300529 0.00176205 0)
(0.304897 -0.00512435 0)
(0.319239 -0.0195917 0)
(0.3214 -0.0148884 0)
(0.321382 -0.0102435 0)
(0.320104 -0.00761156 0)
(0.319959 -0.00551071 0)
(0.320053 -0.00219552 0)
(0.319013 0.000838855 0)
(0.316904 0.00451942 0)
(0.312103 0.00566214 0)
(0.308605 0.0038237 0)
(0.30651 0.000556574 0)
(0.307913 -0.00491507 0)
(0.313548 -0.00434915 0)
(0.315119 -0.00235588 0)
(0.317988 0.000759082 0)
(0.315396 0.00739697 0)
(0.310095 0.00664459 0)
(0.307754 0.00876479 0)
(0.299104 0.00235381 0)
(0.304122 -0.00619654 0)
(0.32211 -0.0209254 0)
(0.324404 -0.015186 0)
(0.323835 -0.00986841 0)
(0.321987 -0.00745418 0)
(0.321868 -0.00557969 0)
(0.322384 -0.00202412 0)
(0.321444 0.00161431 0)
(0.31876 0.00608171 0)
(0.312904 0.00741118 0)
(0.308272 0.00513942 0)
(0.305661 0.000556964 0)
(0.307458 -0.0065053 0)
(0.314519 -0.00588446 0)
(0.316872 -0.00343402 0)
(0.320378 0.000884703 0)
(0.317134 0.00905534 0)
(0.310636 0.00839263 0)
(0.30757 0.0111992 0)
(0.297253 0.00312698 0)
(0.302565 -0.00738131 0)
(0.325407 -0.022428 0)
(0.327703 -0.0153707 0)
(0.326322 -0.00923923 0)
(0.323692 -0.00724124 0)
(0.323621 -0.00577275 0)
(0.32481 -0.0019689 0)
(0.324064 0.00252711 0)
(0.320628 0.00801422 0)
(0.313466 0.0096302 0)
(0.307395 0.00683957 0)
(0.304195 0.000540644 0)
(0.306226 -0.008469 0)
(0.314783 -0.00787793 0)
(0.318156 -0.00486088 0)
(0.322331 0.00108418 0)
(0.318496 0.0110586 0)
(0.310584 0.0105854 0)
(0.306806 0.0141339 0)
(0.29489 0.00416741 0)
(0.29975 -0.00856189 0)
(0.329284 -0.0240972 0)
(0.331329 -0.0153688 0)
(0.328802 -0.00824643 0)
(0.325087 -0.00695159 0)
(0.32504 -0.00615359 0)
(0.32717 -0.00210224 0)
(0.326704 0.00360799 0)
(0.322302 0.0104162 0)
(0.313509 0.0124436 0)
(0.305739 0.00900799 0)
(0.301829 0.000565141 0)
(0.303559 -0.0107442 0)
(0.313394 -0.0103764 0)
(0.317954 -0.00671071 0)
(0.3229 0.00132109 0)
(0.318822 0.013399 0)
(0.309387 0.0132496 0)
(0.305158 0.0175292 0)
(0.291745 0.00562826 0)
(0.294995 -0.00952887 0)
(0.333963 -0.0258944 0)
(0.335268 -0.0150412 0)
(0.331141 -0.00669742 0)
(0.325839 -0.00652272 0)
(0.325594 -0.00674929 0)
(0.328806 -0.00249285 0)
(0.328679 0.00488909 0)
(0.323153 0.0134002 0)
(0.312429 0.015969 0)
(0.302872 0.0117257 0)
(0.297924 0.000817904 0)
(0.298194 -0.0130753 0)
(0.30862 -0.0133149 0)
(0.314368 -0.00904732 0)
(0.320458 0.00146327 0)
(0.316975 0.0159502 0)
(0.306251 0.0163012 0)
(0.302177 0.0212916 0)
(0.287222 0.00774961 0)
(0.287513 -0.00999865 0)
(0.33968 -0.0277328 0)
(0.33923 -0.0142239 0)
(0.332796 -0.00429984 0)
(0.324935 -0.00574167 0)
(0.323707 -0.00746094 0)
(0.327728 -0.00311539 0)
(0.328101 0.00637719 0)
(0.321655 0.0170253 0)
(0.309051 0.020256 0)
(0.297932 0.0150797 0)
(0.291115 0.00169511 0)
(0.288072 -0.0149217 0)
(0.29794 -0.0164691 0)
(0.304737 -0.0119547 0)
(0.312839 0.00121012 0)
(0.311406 0.0183882 0)
(0.300253 0.0194752 0)
(0.297213 0.0253082 0)
(0.280377 0.0108203 0)
(0.276716 -0.00970636 0)
(0.346073 -0.0299938 0)
(0.341726 -0.0129128 0)
(0.331874 -0.00102093 0)
(0.319458 -0.00436804 0)
(0.315409 -0.00804823 0)
(0.319343 -0.0040307 0)
(0.320904 0.0078678 0)
(0.314827 0.0210505 0)
(0.301375 0.0251277 0)
(0.289239 0.0192008 0)
(0.279015 0.00385967 0)
(0.270703 -0.0155601 0)
(0.278884 -0.0195008 0)
(0.286692 -0.0156053 0)
(0.29821 9.89232e-06 0)
(0.300695 0.0201363 0)
(0.290645 0.0223101 0)
(0.28943 0.0294903 0)
(0.270233 0.0150676 0)
(0.262664 -0.00854565 0)
(0.350322 -0.0288199 0)
(0.33759 -0.00832997 0)
(0.322854 0.0051673 0)
(0.302539 -0.000733944 0)
(0.292927 -0.00730542 0)
(0.295874 -0.00498961 0)
(0.300805 0.00892405 0)
(0.298347 0.0247907 0)
(0.286619 0.0301033 0)
(0.274076 0.0243238 0)
(0.25872 0.00808796 0)
(0.244699 -0.0145167 0)
(0.251032 -0.0222471 0)
(0.260218 -0.0202779 0)
(0.276576 -0.00290902 0)
(0.284512 0.020473 0)
(0.277238 0.0242958 0)
(0.278025 0.0337799 0)
(0.256444 0.0204405 0)
(0.246467 -0.00669109 0)
(0.337275 -0.0293642 0)
(0.311336 -0.00361452 0)
(0.292273 0.0132505 0)
(0.261366 0.00517044 0)
(0.246 -0.00529779 0)
(0.249708 -0.00678199 0)
(0.262548 0.00792613 0)
(0.268684 0.026669 0)
(0.262048 0.0342816 0)
(0.249435 0.03055 0)
(0.228983 0.0145019 0)
(0.212333 -0.0121545 0)
(0.218137 -0.0250879 0)
(0.229162 -0.0263198 0)
(0.250613 -0.00807148 0)
(0.264161 0.0189098 0)
(0.260514 0.025179 0)
(0.262664 0.0381274 0)
(0.239991 0.0263931 0)
(0.230314 -0.0046354 0)
(0.277892 -0.0128424 0)
(0.240241 0.00921479 0)
(0.223754 0.0264181 0)
(0.186198 0.0154398 0)
(0.17407 -0.00207028 0)
(0.184692 -0.0109901 0)
(0.209816 0.00285508 0)
(0.22739 0.0250373 0)
(0.227083 0.0370159 0)
(0.21491 0.0373574 0)
(0.193763 0.0216166 0)
(0.180936 -0.0100997 0)
(0.187726 -0.0287667 0)
(0.200075 -0.033807 0)
(0.224451 -0.0152448 0)
(0.241821 0.0155924 0)
(0.241437 0.0251144 0)
(0.244012 0.0423194 0)
(0.223313 0.0319341 0)
(0.216965 -0.00298757 0)
(0.110862 0.00556401 0)
(0.108198 0.0154846 0)
(0.117931 0.0352118 0)
(0.0942449 0.0212492 0)
(0.100135 -0.00482876 0)
(0.12013 -0.0212407 0)
(0.155016 -0.00753359 0)
(0.180825 0.0201978 0)
(0.185336 0.0387733 0)
(0.176362 0.043567 0)
(0.162909 0.0266885 0)
(0.159931 -0.00983609 0)
(0.167696 -0.0330597 0)
(0.179119 -0.0417468 0)
(0.201727 -0.0232462 0)
(0.219727 0.0114345 0)
(0.22163 0.0244709 0)
(0.22421 0.0459865 0)
(0.209675 0.0359447 0)
(0.208894 -0.00222097 0)
(0.0506826 -0.00424993 0)
(0.0458248 0.0109378 0)
(0.0673242 0.0347298 0)
(0.0554674 0.02084 0)
(0.0713499 -0.00937362 0)
(0.0919977 -0.0288991 0)
(0.126371 -0.0156192 0)
(0.153604 0.0159282 0)
(0.161065 0.0386692 0)
(0.156987 0.0453146 0)
(0.152534 0.0273514 0)
(0.157087 -0.0108718 0)
(0.164677 -0.0351827 0)
(0.173495 -0.0455847 0)
(0.191174 -0.0278355 0)
(0.207385 0.00884893 0)
(0.210386 0.0237312 0)
(0.21322 0.047127 0)
(0.204729 0.0368594 0)
(0.207982 -0.00246793 0)
(0.0295611 -0.00915119 0)
(0.0225399 0.00973253 0)
(0.0480916 0.0340178 0)
(0.0419097 0.0201805 0)
(0.0620785 -0.0115573 0)
(0.0824048 -0.0320603 0)
(0.115273 -0.0190907 0)
(0.142349 0.0139404 0)
(0.151008 0.0383826 0)
(0.14939 0.0456305 0)
(0.149313 0.0271328 0)
(0.157221 -0.0116338 0)
(0.164699 -0.0360775 0)
(0.172216 -0.0470135 0)
(0.187239 -0.0296532 0)
(0.202305 0.00776864 0)
(0.20571 0.0233759 0)
(0.208663 0.0474005 0)
(0.203072 0.0370062 0)
(0.208119 -0.00270144 0)
(0.0141208 -0.0110304 0)
(0.00391418 0.00864598 0)
(0.0327189 0.0327683 0)
(0.0324643 0.018995 0)
(0.0565228 -0.0139155 0)
(0.0758747 -0.0350368 0)
(0.106064 -0.0224089 0)
(0.132205 0.0119058 0)
(0.141941 0.0378668 0)
(0.143031 0.0455046 0)
(0.147563 0.0264435 0)
(0.158713 -0.0125997 0)
(0.166021 -0.036891 0)
(0.172119 -0.0481902 0)
(0.184107 -0.0312373 0)
(0.197705 0.0067495 0)
(0.201434 0.0229939 0)
(0.204511 0.0474685 0)
(0.201985 0.0368828 0)
(0.208787 -0.00304036 0)
(0.00395667 -0.0111024 0)
(-0.00988382 0.00753827 0)
(0.0216772 0.0309811 0)
(0.0273745 0.017266 0)
(0.0547413 -0.0164088 0)
(0.0725215 -0.0377715 0)
(0.0990009 -0.0254791 0)
(0.123446 0.00988581 0)
(0.134125 0.0371346 0)
(0.138108 0.0449514 0)
(0.147318 0.0253146 0)
(0.161481 -0.013726 0)
(0.16855 -0.0376095 0)
(0.173156 -0.0491019 0)
(0.181822 -0.0325538 0)
(0.193663 0.00580598 0)
(0.197641 0.0225885 0)
(0.200845 0.0473493 0)
(0.201488 0.0364861 0)
(0.209967 -0.00347431 0)
(-0.00138773 -0.0101472 0)
(-0.0187218 0.00646705 0)
(0.0152745 0.0286856 0)
(0.0267004 0.0150347 0)
(0.0566729 -0.0189626 0)
(0.0723968 -0.0401682 0)
(0.0943219 -0.0281981 0)
(0.11634 0.00793369 0)
(0.127808 0.0361874 0)
(0.134786 0.0439654 0)
(0.148563 0.023763 0)
(0.165416 -0.0149967 0)
(0.172172 -0.0382272 0)
(0.175267 -0.0497286 0)
(0.180427 -0.0335714 0)
(0.190252 0.00495984 0)
(0.194412 0.0221641 0)
(0.197738 0.0470398 0)
(0.201589 0.0358179 0)
(0.211637 -0.00399858 0)
(-0.00223682 -0.00866728 0)
(-0.0225031 0.00543177 0)
(0.0136584 0.0259313 0)
(0.0303404 0.0123659 0)
(0.0621488 -0.0215066 0)
(0.07547 -0.0421546 0)
(0.0922186 -0.0304811 0)
(0.111133 0.00609766 0)
(0.123209 0.0350292 0)
(0.133186 0.042551 0)
(0.151243 0.0218175 0)
(0.170389 -0.0163906 0)
(0.176759 -0.0387404 0)
(0.178375 -0.0500614 0)
(0.179949 -0.0342683 0)
(0.187545 0.00422945 0)
(0.191824 0.0217249 0)
(0.195262 0.0465368 0)
(0.202289 0.034885 0)
(0.213767 -0.00460722 0)
(0.00128759 -0.00717679 0)
(-0.0211481 0.0044248 0)
(0.0168333 0.0227753 0)
(0.0380591 0.00933776 0)
(0.0709021 -0.0239814 0)
(0.0816139 -0.0436866 0)
(0.092814 -0.0322641 0)
(0.108041 0.00442379 0)
(0.120515 0.0336734 0)
(0.133384 0.0407314 0)
(0.155269 0.0195232 0)
(0.176256 -0.0178803 0)
(0.182175 -0.0391484 0)
(0.18239 -0.0501025 0)
(0.180401 -0.0346326 0)
(0.185605 0.00362875 0)
(0.189948 0.0212752 0)
(0.193477 0.045844 0)
(0.203581 0.0336998 0)
(0.216324 -0.00529193 0)
(0.009261 -0.00623162 0)
(-0.0145852 0.00344937 0)
(0.0246731 0.0192939 0)
(0.0495218 0.00604561 0)
(0.0825804 -0.0263375 0)
(0.090601 -0.0447434 0)
(0.0961419 -0.033505 0)
(0.107228 0.00295345 0)
(0.119867 0.0321423 0)
(0.135405 0.0385483 0)
(0.160528 0.0169373 0)
(0.182873 -0.0194351 0)
(0.188273 -0.0394532 0)
(0.187203 -0.0498639 0)
(0.181778 -0.0346609 0)
(0.184485 0.00316647 0)
(0.188843 0.0208192 0)
(0.192437 0.0449709 0)
(0.205455 0.0322801 0)
(0.219271 -0.00604254 0)
(0.0218749 -0.00649177 0)
(-0.00272386 0.0025006 0)
(0.0369608 0.0156041 0)
(0.064324 0.00260034 0)
(0.0967616 -0.0285268 0)
(0.102109 -0.0453233 0)
(0.102133 -0.0341815 0)
(0.108795 0.00172164 0)
(0.121354 0.030467 0)
(0.139229 0.0360583 0)
(0.166895 0.0141265 0)
(0.190095 -0.0210222 0)
(0.194908 -0.0396578 0)
(0.192697 -0.0493622 0)
(0.184054 -0.0343576 0)
(0.184226 0.0028479 0)
(0.188561 0.0203612 0)
(0.192185 0.0439318 0)
(0.207891 0.030649 0)
(0.222573 -0.00684741 0)
(0.0392918 -0.00872587 0)
(0.0145623 0.00152067 0)
(0.053417 0.0118117 0)
(0.0820192 -0.000905779 0)
(0.112974 -0.0304779 0)
(0.115736 -0.0454359 0)
(0.110608 -0.0342778 0)
(0.112764 0.000761115 0)
(0.125007 0.028683 0)
(0.144799 0.0333143 0)
(0.174236 0.0111617 0)
(0.197784 -0.0226072 0)
(0.201937 -0.0397649 0)
(0.198745 -0.0486057 0)
(0.187182 -0.0337343 0)
(0.184848 0.00268979 0)
(0.189135 0.0199057 0)
(0.192753 0.0427411 0)
(0.210872 0.0288346 0)
(0.226191 -0.00769523 0)
(0.0762977 -0.0145688 0)
(0.0528328 -0.000857755 0)
(0.0874135 0.00538397 0)
(0.115724 -0.00682796 0)
(0.142704 -0.0332139 0)
(0.14134 -0.0448856 0)
(0.128496 -0.0334706 0)
(0.123323 -0.000344722 0)
(0.134701 0.0255695 0)
(0.156905 0.0283313 0)
(0.187944 0.00604132 0)