x,y,z,U_0,U_1,U_2
0,0,0,0.300007,-0.000693775,2.48558e-14
0,0.1,0,0.300006,-0.000551742,1.97672e-14
0,0.2,0,0.300004,-0.000409709,1.46786e-14
0,0.3,0,0.300003,-0.000267677,9.59003e-15
0,0.4,0,0.300001,-0.000125644,4.50144e-15
0,0.5,0,0.3,-7.05868e-20,3.24462e-30
0,0.6,0,0.3,-8.47042e-20,3.89355e-30
0,0.7,0,0.3,-9.88215e-20,4.54247e-30
0,0.8,0,0.3,-1.12939e-19,5.1914e-30
0,0.9,0,0.3,-1.27056e-19,5.84032e-30
0,1,0,0.3,-1.38423e-19,1.03938e-29
0,1.1,0,0.3,-1.52265e-19,1.14332e-29
0,1.2,0,0.3,-1.66108e-19,1.24725e-29
0,1.3,0,0.3,-1.7995e-19,1.35119e-29
0,1.4,0,0.3,-1.93792e-19,1.45513e-29
0,1.5,0,0.3,-2.02108e-19,2.24537e-29
0,1.6,0,0.3,-2.15582e-19,2.39507e-29
0,1.7,0,0.3,-2.29056e-19,2.54476e-29
0,1.8,0,0.3,-2.4253e-19,2.69445e-29
0,1.9,0,0.3,-2.56004e-19,2.84414e-29
0,2,0,0.3,-2.58767e-19,4.03555e-29
0,2.1,0,0.3,-2.71705e-19,4.23733e-29
0,2.2,0,0.3,-2.84644e-19,4.4391e-29
0,2.3,0,0.3,-2.97582e-19,4.64088e-29
0,2.4,0,0.3,-3.1052e-19,4.84266e-29
0,2.5,0,0.3,-3.06053e-19,6.02078e-29
0,2.6,0,0.3,-3.18295e-19,6.26161e-29
0,2.7,0,0.3,-3.30537e-19,6.50244e-29
0,2.8,0,0.3,-3.42779e-19,6.74327e-29
0,2.9,0,0.3,-3.55021e-19,6.9841e-29
0,3,0,0.3,-3.41665e-19,8.39654e-29
0,3.1,0,0.3,-3.53054e-19,8.67643e-29
0,3.2,0,0.3,-3.64442e-19,8.95631e-29
0,3.3,0,0.3,-3.75831e-19,9.2362e-29
0,3.4,0,0.3,-3.8722e-19,9.51608e-29
0,3.5,0,0.3,-3.62669e-19,1.11628e-28
0,3.6,0,0.3,-3.73031e-19,1.14818e-28
0,3.7,0,0.3,-3.83393e-19,1.18007e-28
0,3.8,0,0.3,-3.93755e-19,1.21197e-28
0,3.9,0,0.3,-4.04117e-19,1.24386e-28
0,4,0,0.3,-3.65954e-19,1.43197e-28
0,4.1,0,0.3,-3.75103e-19,1.46777e-28
0,4.2,0,0.3,-3.84251e-19,1.50357e-28
0,4.3,0,0.3,-3.934e-19,1.53937e-28
0,4.4,0,0.3,-3.40617e-19,1.71836e-28
0,4.5,0,0.3,-3.48358e-19,1.75742e-28
0,4.6,0,0.3,-3.561e-19,1.79647e-28
0,4.7,0,0.3,-3.63841e-19,1.83552e-28
0,4.8,0,0.3,-3.71582e-19,1.87458e-28
0,4.9,0,0.3,-3.00576e-19,2.04121e-28
0,5,0,0.3,-3.0671e-19,2.08286e-28
0,5.1,0,0.3,-3.12844e-19,2.12452e-28
0,5.2,0,0.3,-3.18978e-19,2.16618e-28
0,5.3,0,0.3,-3.25112e-19,2.20784e-28
0,5.4,0,0.3,-2.34101e-19,2.35494e-28
0,5.5,0,0.3,-2.38436e-19,2.39855e-28
0,5.6,0,0.3,-2.42772e-19,2.44216e-28
0,5.7,0,0.3,-2.47107e-19,2.48577e-28
0,5.8,0,0.3,-2.51442e-19,2.52938e-28
0,5.9,0,0.3,-1.39843e-19,2.64979e-28
0,6,0,0.3,-1.42213e-19,2.69471e-28
0,6.1,0,0.3,-1.44583e-19,2.73962e-28
0,6.2,0,0.3,-1.46953e-19,2.78453e-28
0,6.3,0,0.3,-1.49324e-19,2.82944e-28
0,6.4,0,0.3,-1.6202e-20,2.87019e-28
0,6.5,0,0.3,-1.64551e-20,2.91503e-28
0,6.6,0,0.3,-1.67083e-20,2.95988e-28
0,6.7,0,0.3,-1.69614e-20,3.00473e-28
0,6.8,0,0.3,-1.72146e-20,3.04957e-28
0,6.9,0,0.3,1.38422e-19,2.95968e-28
0,7,0,0.3,1.40428e-19,3.00258e-28
0,7.1,0,0.3,1.42434e-19,3.04547e-28
0,7.2,0,0.3,1.4444e-19,3.08837e-28
0,7.3,0,0.3,1.46446e-19,3.13126e-28
0,7.4,0,0.3,3.20145e-19,2.98631e-28
0,7.5,0,0.3,3.24472e-19,3.02666e-28
0,7.6,0,0.3,3.28798e-19,3.06702e-28
0,7.7,0,0.3,3.33124e-19,3.10737e-28
0,7.8,0,0.3,3.37451e-19,3.14773e-28
0,7.9,0,0.3,5.2397e-19,2.82814e-28
0,8,0,0.3,5.30603e-19,2.86394e-28
0,8.1,0,0.3,5.37236e-19,2.89974e-28
0,8.2,0,0.3,5.43868e-19,2.93554e-28
0,8.3,0,0.3,5.50501e-19,2.97134e-28
0,8.4,0,0.3,7.46186e-19,2.51506e-28
0,8.5,0,0.3,7.55069e-19,2.545e-28
0,8.6,0,0.3,7.63952e-19,2.57494e-28
0,8.7,0,0.3,7.72835e-19,2.60488e-28
0,8.8,0,0.3,9.68432e-19,2.17659e-28
0,8.9,0,0.3,9.79437e-19,2.20133e-28
0,9,0,0.3,9.90442e-19,2.22606e-28
0,9.1,0,0.3,1.00145e-18,2.25079e-28
0,9.2,0,0.3,1.01245e-18,2.27553e-28
0,9.3,0,0.3,1.20371e-18,1.816e-28
0,9.4,0,0.3,1.21666e-18,1.83552e-28
0,9.5,0,0.3,1.2296e-18,1.85505e-28
0,9.6,0,0.3,1.24254e-18,1.87458e-28
0,9.7,0,0.3,1.25549e-18,1.8941e-28
0,9.8,0,0.3,1.43714e-18,1.40333e-28
0,9.9,0,0.3,1.45181e-18,1.41765e-28
0,10,0,0.3,1.46647e-18,1.43197e-28
0,10.1,0,0.3,1.48114e-18,1.44629e-28
0,10.2,0,0.3,1.4958e-18,1.46061e-28
0,10.3,0,0.3,1.66097e-18,1.0056e-28
0,10.4,0,0.3,1.67709e-18,1.01537e-28
0,10.5,0,0.3,1.69322e-18,1.02513e-28
0,10.6,0,0.3,1.70934e-18,1.03489e-28
0,10.7,0,0.3,1.72547e-18,1.04465e-28
0,10.8,0,0.3,1.86985e-18,7.7324e-29
0,10.9,0,0.3,1.88717e-18,7.80399e-29
0,11,0,0.3,1.90448e-18,7.87559e-29
0,11.1,0,0.3,1.92179e-18,7.94718e-29
0,11.2,0,0.3,1.93911e-18,8.01878e-29
0,11.3,0,0.3,2.06549e-18,5.88117e-29
0,11.4,0,0.3,2.08377e-18,5.93321e-29
0,11.5,0,0.3,2.10205e-18,5.98526e-29
0,11.6,0,0.3,2.12033e-18,6.0373e-29
0,11.7,0,0.3,2.13861e-18,6.08935e-29
0,11.8,0,0.3,2.15689e-18,6.1414e-29
0,11.9,0,0.3,2.17517e-18,6.19344e-29
0,12,0,0.3,2.19344e-18,6.24549e-29
0,12.1,0,0.3,2.21172e-18,6.29753e-29
0,12.2,0,0.3,2.23e-18,6.34958e-29
0,12.3,0,0.299997,0.000164458,4.50144e-15
0,12.4,0,0.299994,0.000350368,9.59003e-15
0,12.5,0,0.299991,0.000536277,1.46786e-14
0,12.6,0,0.299987,0.000722187,1.97672e-14
0,12.7,0,0.299984,0.000908096,2.48558e-14
0.1,0,0,0.300008,-0.00110931,2.98846e-14
0.1,0.1,0,0.300009,-0.001106,3.23605e-14
0.1,0.2,0,0.300008,-0.00096397,2.72719e-14
0.1,0.3,0,0.300006,-0.000821937,2.21833e-14
0.1,0.4,0,0.300005,-0.000679904,1.70947e-14
0.1,0.5,0,0.300003,-0.00055143,1.38432e-14
0.1,0.6,0,0.300003,-0.000542229,2.49243e-14
0.1,0.7,0,0.300003,-0.000542229,2.49243e-14
0.1,0.8,0,0.300003,-0.000542229,2.49243e-14
0.1,0.9,0,0.300003,-0.000542229,2.49243e-14
0.1,1,0,0.300002,-0.000539849,2.8302e-14
0.1,1.1,0,0.299998,-0.000531664,3.99211e-14
0.1,1.2,0,0.299998,-0.000531664,3.99211e-14
0.1,1.3,0,0.299998,-0.000531664,3.99211e-14
0.1,1.4,0,0.299998,-0.000531664,3.99211e-14
0.1,1.5,0,0.299996,-0.000526712,4.60717e-14
0.1,1.6,0,0.299993,-0.000517514,5.74945e-14
0.1,1.7,0,0.299993,-0.000517514,5.74945e-14
0.1,1.8,0,0.299993,-0.000517514,5.74945e-14
0.1,1.9,0,0.299993,-0.000517514,5.74945e-14
0.1,2,0,0.299991,-0.000507796,6.69459e-14
0.1,2.1,0,0.299989,-0.000496945,7.75e-14
0.1,2.2,0,0.299989,-0.000496945,7.75e-14
0.1,2.3,0,0.299989,-0.000496945,7.75e-14
0.1,2.4,0,0.299989,-0.000496945,7.75e-14
0.1,2.5,0,0.299987,-0.000481152,8.63583e-14
0.1,2.6,0,0.299986,-0.000470203,9.25e-14
0.1,2.7,0,0.299986,-0.000470203,9.25e-14
0.1,2.8,0,0.299986,-0.000470203,9.25e-14
0.1,2.9,0,0.299986,-0.000470203,9.25e-14
0.1,3,0,0.299983,-0.000446978,1.0313e-13
0.1,3.1,0,0.299982,-0.00043743,1.075e-13
0.1,3.2,0,0.299982,-0.00043743,1.075e-13
0.1,3.3,0,0.299982,-0.00043743,1.075e-13
0.1,3.4,0,0.299982,-0.00043743,1.075e-13
0.1,3.5,0,0.29998,-0.000404822,1.19902e-13
0.1,3.6,0,0.299979,-0.000397989,1.225e-13
0.1,3.7,0,0.299979,-0.000397989,1.225e-13
0.1,3.8,0,0.299979,-0.000397989,1.225e-13
0.1,3.9,0,0.299979,-0.000397989,1.225e-13
0.1,4,0,0.299976,-0.000353963,1.36673e-13
0.1,4.1,0,0.299976,-0.000351395,1.375e-13
0.1,4.2,0,0.299976,-0.000351395,1.375e-13
0.1,4.3,0,0.299976,-0.000351395,1.375e-13
0.1,4.4,0,0.299976,-0.000349266,1.37992e-13
0.1,4.5,0,0.299972,-0.000297333,1.5e-13
0.1,4.6,0,0.299972,-0.000297333,1.5e-13
0.1,4.7,0,0.299972,-0.000297333,1.5e-13
0.1,4.8,0,0.299972,-0.000297333,1.5e-13
0.1,4.9,0,0.299972,-0.000287612,1.51575e-13
0.1,5,0,0.299967,-0.000235606,1.6e-13
0.1,5.1,0,0.299967,-0.000235606,1.6e-13
0.1,5.2,0,0.299967,-0.000235606,1.6e-13
0.1,5.3,0,0.299967,-0.000235606,1.6e-13
0.1,5.4,0,0.299966,-0.000216564,1.62067e-13
0.1,5.5,0,0.299961,-0.000166509,1.675e-13
0.1,5.6,0,0.299961,-0.000166509,1.675e-13
0.1,5.7,0,0.299961,-0.000166509,1.675e-13
0.1,5.8,0,0.299961,-0.000166509,1.675e-13
0.1,5.9,0,0.299959,-0.000136796,1.69469e-13
0.1,6,0,0.299956,-9.10368e-05,1.725e-13
0.1,6.1,0,0.299956,-9.10368e-05,1.725e-13
0.1,6.2,0,0.299956,-9.10368e-05,1.725e-13
0.1,6.3,0,0.299956,-9.10368e-05,1.725e-13
0.1,6.4,0,0.299955,-4.94197e-05,1.72372e-13
0.1,6.5,0,0.299954,-9.72338e-06,1.7225e-13
0.1,6.6,0,0.299954,-9.72338e-06,1.7225e-13
0.1,6.7,0,0.299954,-9.72338e-06,1.7225e-13
0.1,6.8,0,0.299954,-9.72338e-06,1.7225e-13
0.1,6.9,0,0.299954,4.49384e-05,1.67526e-13
0.1,7,0,0.299954,7.70522e-05,1.6475e-13
0.1,7.1,0,0.299954,7.70522e-05,1.6475e-13
0.1,7.2,0,0.299954,7.70522e-05,1.6475e-13
0.1,7.3,0,0.299954,7.70522e-05,1.6475e-13
0.1,7.4,0,0.299954,0.000143713,1.57457e-13
0.1,7.5,0,0.299954,0.000166167,1.55e-13
0.1,7.6,0,0.299954,0.000166167,1.55e-13
0.1,7.7,0,0.299954,0.000166167,1.55e-13
0.1,7.8,0,0.299954,0.000166167,1.55e-13
0.1,7.9,0,0.299954,0.00024289,1.39843e-13
0.1,8,0,0.299954,0.000254747,1.375e-13
0.1,8.1,0,0.299954,0.000254747,1.375e-13
0.1,8.2,0,0.299954,0.000254747,1.375e-13
0.1,8.3,0,0.299954,0.000254747,1.375e-13
0.1,8.4,0,0.299955,0.000339829,1.15354e-13
0.1,8.5,0,0.299955,0.00034119,1.15e-13
0.1,8.6,0,0.299955,0.00034119,1.15e-13
0.1,8.7,0,0.299955,0.00034119,1.15e-13
0.1,8.8,0,0.299955,0.000347607,1.13425e-13
0.1,8.9,0,0.299958,0.000422684,9.5e-14
0.1,9,0,0.299958,0.000422684,9.5e-14
0.1,9.1,0,0.299958,0.000422684,9.5e-14
0.1,9.2,0,0.299958,0.000422684,9.5e-14
0.1,9.3,0,0.299959,0.000437338,9.1063e-14
0.1,9.4,0,0.299962,0.000497129,7.5e-14
0.1,9.5,0,0.299962,0.000497129,7.5e-14
0.1,9.6,0,0.299962,0.000497129,7.5e-14
0.1,9.7,0,0.299962,0.000497129,7.5e-14
0.1,9.8,0,0.299964,0.000517955,6.87008e-14
0.1,9.9,0,0.299967,0.000563253,5.5e-14
0.1,10,0,0.299967,0.000563253,5.5e-14
0.1,10.1,0,0.299967,0.000563253,5.5e-14
0.1,10.2,0,0.299967,0.000563253,5.5e-14
0.1,10.3,0,0.29997,0.000587557,4.74208e-14
0.1,10.4,0,0.299973,0.000619374,3.74989e-14
0.1,10.5,0,0.299973,0.000619374,3.74989e-14
0.1,10.6,0,0.299973,0.000619374,3.74989e-14
0.1,10.7,0,0.299973,0.000619374,3.74989e-14
0.1,10.8,0,0.299977,0.000644514,3.19872e-14
0.1,10.9,0,0.29998,0.000664986,2.74992e-14
0.1,11,0,0.29998,0.000664986,2.74992e-14
0.1,11.1,0,0.29998,0.000664986,2.74992e-14
0.1,11.2,0,0.29998,0.000664986,2.74992e-14
0.1,11.3,0,0.299984,0.0006898,2.24734e-14
0.1,11.4,0,0.299986,0.00070206,1.99901e-14
0.1,11.5,0,0.299986,0.00070206,1.99901e-14
0.1,11.6,0,0.299986,0.00070206,1.99901e-14
0.1,11.7,0,0.299986,0.00070206,1.99901e-14
0.1,11.8,0,0.299986,0.00070206,1.99901e-14
0.1,11.9,0,0.299986,0.00070206,1.99901e-14
0.1,12,0,0.299986,0.00070206,1.99901e-14
0.1,12.1,0,0.299986,0.00070206,1.99901e-14
0.1,12.2,0,0.299992,0.000726589,1.34361e-14
0.1,12.3,0,0.29999,0.000893404,1.69848e-14
0.1,12.4,0,0.299987,0.00107931,2.20734e-14
0.1,12.5,0,0.299983,0.00126522,2.7162e-14
0.1,12.6,0,0.29998,0.00145113,3.22506e-14
0.1,12.7,0,0.299983,0.00146532,2.98846e-14
0.2,0,0,0.300008,-0.00152484,3.49135e-14
0.2,0.1,0,0.300009,-0.00152256,3.74451e-14
0.2,0.2,0,0.300011,-0.00151823,3.98652e-14
0.2,0.3,0,0.300009,-0.0013762,3.47766e-14
0.2,0.4,0,0.300008,-0.00123416,2.9688e-14
0.2,0.5,0,0.300006,-0.00110408,2.62181e-14
0.2,0.6,0,0.300006,-0.00109351,3.89425e-14
0.2,0.7,0,0.300006,-0.00108446,4.98486e-14
0.2,0.8,0,0.300006,-0.00108446,4.98486e-14
0.2,0.9,0,0.300006,-0.00108446,4.98486e-14
0.2,1,0,0.300005,-0.00108222,5.30316e-14
0.2,1.1,0,0.3,-0.00107131,6.85121e-14
0.2,1.2,0,0.299996,-0.00106333,7.98423e-14
0.2,1.3,0,0.299996,-0.00106333,7.98423e-14
0.2,1.4,0,0.299996,-0.00106333,7.98423e-14
0.2,1.5,0,0.299994,-0.00105847,8.58749e-14
0.2,1.6,0,0.299989,-0.00104389,1.03984e-13
0.2,1.7,0,0.299985,-0.00103503,1.14989e-13
0.2,1.8,0,0.299985,-0.00103503,1.14989e-13
0.2,1.9,0,0.299985,-0.00103503,1.14989e-13
0.2,2,0,0.299984,-0.00102531,1.2444e-13
0.2,2.1,0,0.29998,-0.00100425,1.44919e-13
0.2,2.2,0,0.299978,-0.000993889,1.55e-13
0.2,2.3,0,0.299978,-0.000993889,1.55e-13
0.2,2.4,0,0.299978,-0.000993889,1.55e-13
0.2,2.5,0,0.299976,-0.000978097,1.63858e-13
0.2,2.6,0,0.299973,-0.000950724,1.79213e-13
0.2,2.7,0,0.299972,-0.000940406,1.85e-13
0.2,2.8,0,0.299972,-0.000940406,1.85e-13
0.2,2.9,0,0.299972,-0.000940406,1.85e-13
0.2,3,0,0.299969,-0.000917181,1.9563e-13
0.2,3.1,0,0.299966,-0.000883633,2.10984e-13
0.2,3.2,0,0.299965,-0.000874859,2.15e-13
0.2,3.3,0,0.299965,-0.000874859,2.15e-13
0.2,3.4,0,0.299965,-0.000874859,2.15e-13
0.2,3.5,0,0.299962,-0.000842251,2.27402e-13
0.2,3.6,0,0.299959,-0.000801879,2.42756e-13
0.2,3.7,0,0.299958,-0.000795979,2.45e-13
0.2,3.8,0,0.299958,-0.000795979,2.45e-13
0.2,3.9,0,0.299958,-0.000795979,2.45e-13
0.2,4,0,0.299955,-0.000751952,2.59173e-13
0.2,4.1,0,0.299952,-0.000704257,2.74528e-13
0.2,4.2,0,0.299952,-0.00070279,2.75e-13
0.2,4.3,0,0.299952,-0.00070279,2.75e-13
0.2,4.4,0,0.299952,-0.000700661,2.75492e-13
0.2,4.5,0,0.299948,-0.000645322,2.88287e-13
0.2,4.6,0,0.299945,-0.000594665,3e-13
0.2,4.7,0,0.299945,-0.000594665,3e-13
0.2,4.8,0,0.299945,-0.000594665,3e-13
0.2,4.9,0,0.299944,-0.000584945,3.01575e-13
0.2,5,0,0.299939,-0.00052176,3.11811e-13
0.2,5.1,0,0.299935,-0.000471213,3.2e-13
0.2,5.2,0,0.299935,-0.000471213,3.2e-13
0.2,5.3,0,0.299935,-0.000471213,3.2e-13
0.2,5.4,0,0.299933,-0.00045217,3.22067e-13
0.2,5.5,0,0.299927,-0.000381441,3.29744e-13
0.2,5.6,0,0.299923,-0.000333019,3.35e-13
0.2,5.7,0,0.299923,-0.000333019,3.35e-13
0.2,5.8,0,0.299923,-0.000333019,3.35e-13
0.2,5.9,0,0.299921,-0.000303305,3.36969e-13
0.2,6,0,0.299915,-0.00022605,3.42087e-13
0.2,6.1,0,0.299912,-0.000182074,3.45e-13
0.2,6.2,0,0.299912,-0.000182074,3.45e-13
0.2,6.3,0,0.299912,-0.000182074,3.45e-13
0.2,6.4,0,0.299911,-0.000140456,3.44872e-13
0.2,6.5,0,0.299908,-5.72223e-05,3.44616e-13
0.2,6.6,0,0.299907,-1.94468e-05,3.445e-13
0.2,6.7,0,0.299907,-1.94468e-05,3.445e-13
0.2,6.8,0,0.299907,-1.94468e-05,3.445e-13
0.2,6.9,0,0.299907,3.5215e-05,3.39776e-13
0.2,7,0,0.299907,0.00012404,3.32098e-13
0.2,7.1,0,0.299907,0.000154104,3.295e-13
0.2,7.2,0,0.299907,0.000154104,3.295e-13
0.2,7.3,0,0.299907,0.000154104,3.295e-13
0.2,7.4,0,0.299907,0.000220765,3.22207e-13
0.2,7.5,0,0.299907,0.000311985,3.12226e-13
0.2,7.6,0,0.299907,0.000332334,3.1e-13
0.2,7.7,0,0.299907,0.000332334,3.1e-13
0.2,7.8,0,0.299907,0.000332334,3.1e-13
0.2,7.9,0,0.299908,0.000409057,2.94843e-13
0.2,8,0,0.299908,0.000499729,2.76929e-13
0.2,8.1,0,0.299908,0.000509494,2.75e-13
0.2,8.2,0,0.299908,0.000509494,2.75e-13
0.2,8.3,0,0.299908,0.000509494,2.75e-13
0.2,8.4,0,0.299909,0.000594576,2.52854e-13
0.2,8.5,0,0.29991,0.000682381,2.3e-13
0.2,8.6,0,0.29991,0.000682381,2.3e-13
0.2,8.7,0,0.29991,0.000682381,2.3e-13
0.2,8.8,0,0.299911,0.000688798,2.28425e-13
0.2,8.9,0,0.299913,0.000772216,2.07953e-13
0.2,9,0,0.299916,0.000845368,1.9e-13
0.2,9.1,0,0.299916,0.000845368,1.9e-13
0.2,9.2,0,0.299916,0.000845368,1.9e-13
0.2,9.3,0,0.299917,0.000860022,1.86063e-13
0.2,9.4,0,0.299921,0.000936226,1.65591e-13
0.2,9.5,0,0.299924,0.000994258,1.5e-13
0.2,9.6,0,0.299924,0.000994258,1.5e-13
0.2,9.7,0,0.299924,0.000994258,1.5e-13
0.2,9.8,0,0.299926,0.00101508,1.43701e-13
0.2,9.9,0,0.299931,0.00108277,1.23228e-13
0.2,10,0,0.299935,0.00112651,1.1e-13
0.2,10.1,0,0.299935,0.00112651,1.1e-13
0.2,10.2,0,0.299935,0.00112651,1.1e-13
0.2,10.3,0,0.299937,0.00115081,1.02421e-13
0.2,10.4,0,0.299943,0.00120826,8.45062e-14
0.2,10.5,0,0.299946,0.00123875,7.49977e-14
0.2,10.6,0,0.299946,0.00123875,7.49977e-14
0.2,10.7,0,0.299946,0.00123875,7.49977e-14
0.2,10.8,0,0.29995,0.00126389,6.94861e-14
0.2,10.9,0,0.299956,0.00131058,5.92502e-14
0.2,11,0,0.299959,0.00132997,5.49983e-14
0.2,11.1,0,0.299959,0.00132997,5.49983e-14
0.2,11.2,0,0.299959,0.00132997,5.49983e-14
0.2,11.3,0,0.299963,0.00135479,4.99725e-14
0.2,11.4,0,0.29997,0.00139274,4.22861e-14
0.2,11.5,0,0.299972,0.00140412,3.99801e-14
0.2,11.6,0,0.299972,0.00140412,3.99801e-14
0.2,11.7,0,0.299972,0.00140412,3.99801e-14
0.2,11.8,0,0.299972,0.00140412,3.99801e-14
0.2,11.9,0,0.299972,0.00140412,3.99801e-14
0.2,12,0,0.299972,0.00140412,3.99801e-14
0.2,12.1,0,0.299978,0.00142799,3.36017e-14
0.2,12.2,0,0.299985,0.00145646,2.59943e-14
0.2,12.3,0,0.299983,0.00162235,2.94683e-14
0.2,12.4,0,0.299979,0.00180826,3.45568e-14
0.2,12.5,0,0.299976,0.00199417,3.96454e-14
0.2,12.6,0,0.299979,0.00201297,3.74796e-14
0.2,12.7,0,0.299982,0.00202254,3.49135e-14
0.3,0,0,0.300008,-0.00194038,3.99423e-14
0.3,0.1,0,0.30001,-0.00193809,4.24739e-14
0.3,0.2,0,0.300011,-0.00193581,4.50055e-14
0.3,0.3,0,0.300013,-0.00193046,4.73699e-14
0.3,0.4,0,0.300011,-0.00178843,4.22813e-14
0.3,0.5,0,0.30001,-0.00165673,3.85931e-14
0.3,0.6,0,0.300009,-0.00164616,5.13175e-14
0.3,0.7,0,0.300009,-0.0016356,6.40419e-14
0.3,0.8,0,0.300009,-0.00162669,7.4773e-14
0.3,0.9,0,0.300009,-0.00162669,7.4773e-14
0.3,1,0,0.300008,-0.00162458,7.77613e-14
0.3,1.1,0,0.300003,-0.00161368,9.32417e-14
0.3,1.2,0,0.299998,-0.00160277,1.08722e-13
0.3,1.3,0,0.299994,-0.00159499,1.19763e-13
0.3,1.4,0,0.299994,-0.00159499,1.19763e-13
0.3,1.5,0,0.299992,-0.00159023,1.25678e-13
0.3,1.6,0,0.299987,-0.00157565,1.43787e-13
0.3,1.7,0,0.299981,-0.00156107,1.61897e-13
0.3,1.8,0,0.299978,-0.00155254,1.72484e-13
0.3,1.9,0,0.299978,-0.00155254,1.72484e-13
0.3,2,0,0.299976,-0.00154282,1.81935e-13
0.3,2.1,0,0.299972,-0.00152177,2.02413e-13
0.3,2.2,0,0.299969,-0.00150071,2.22891e-13
0.3,2.3,0,0.299967,-0.00149083,2.325e-13
0.3,2.4,0,0.299967,-0.00149083,2.325e-13
0.3,2.5,0,0.299965,-0.00147504,2.41358e-13
0.3,2.6,0,0.299962,-0.00144767,2.56713e-13
0.3,2.7,0,0.299959,-0.00142029,2.72067e-13
0.3,2.8,0,0.299957,-0.00141061,2.775e-13
0.3,2.9,0,0.299957,-0.00141061,2.775e-13
0.3,3,0,0.299955,-0.00138738,2.8813e-13
0.3,3.1,0,0.299951,-0.00135384,3.03484e-13
0.3,3.2,0,0.299948,-0.00132029,3.18839e-13
0.3,3.3,0,0.299947,-0.00131229,3.225e-13
0.3,3.4,0,0.299947,-0.00131229,3.225e-13
0.3,3.5,0,0.299944,-0.00127968,3.34902e-13
0.3,3.6,0,0.299941,-0.00123931,3.50256e-13
0.3,3.7,0,0.299938,-0.00119894,3.6561e-13
0.3,3.8,0,0.299937,-0.00119397,3.675e-13
0.3,3.9,0,0.299937,-0.00119397,3.675e-13
0.3,4,0,0.299934,-0.00114994,3.81673e-13
0.3,4.1,0,0.299931,-0.00110225,3.97028e-13
0.3,4.2,0,0.299928,-0.00105455,4.12382e-13
0.3,4.3,0,0.299928,-0.00105418,4.125e-13
0.3,4.4,0,0.299928,-0.00105206,4.12992e-13
0.3,4.5,0,0.299924,-0.000996717,4.25787e-13
0.3,4.6,0,0.29992,-0.000941378,4.38583e-13
0.3,4.7,0,0.299917,-0.000891998,4.5e-13
0.3,4.8,0,0.299917,-0.000891998,4.5e-13
0.3,4.9,0,0.299916,-0.000882278,4.51575e-13
0.3,5,0,0.299911,-0.000819093,4.61811e-13
0.3,5.1,0,0.299906,-0.000755908,4.72047e-13
0.3,5.2,0,0.299902,-0.000706819,4.8e-13
0.3,5.3,0,0.299902,-0.000706819,4.8e-13
0.3,5.4,0,0.299901,-0.000687776,4.82067e-13
0.3,5.5,0,0.299894,-0.000617047,4.89744e-13
0.3,5.6,0,0.299888,-0.000546318,4.97421e-13
0.3,5.7,0,0.299884,-0.000499528,5.025e-13
0.3,5.8,0,0.299884,-0.000499528,5.025e-13
0.3,5.9,0,0.299882,-0.000469815,5.04469e-13
0.3,6,0,0.299876,-0.000392559,5.09587e-13
0.3,6.1,0,0.299871,-0.000315304,5.14705e-13
0.3,6.2,0,0.299868,-0.00027311,5.175e-13
0.3,6.3,0,0.299868,-0.00027311,5.175e-13
0.3,6.4,0,0.299867,-0.000231493,5.17372e-13
0.3,6.5,0,0.299864,-0.000148259,5.17116e-13
0.3,6.6,0,0.299862,-6.50249e-05,5.1686e-13
0.3,6.7,0,0.299861,-2.91701e-05,5.1675e-13
0.3,6.8,0,0.299861,-2.91701e-05,5.1675e-13
0.3,6.9,0,0.299861,2.54916e-05,5.12026e-13
0.3,7,0,0.299861,0.000114317,5.04348e-13
0.3,7.1,0,0.299861,0.000203142,4.96671e-13
0.3,7.2,0,0.299861,0.000231157,4.9425e-13
0.3,7.3,0,0.299861,0.000231157,4.9425e-13
0.3,7.4,0,0.299861,0.000297817,4.86957e-13
0.3,7.5,0,0.299861,0.000389037,4.76976e-13
0.3,7.6,0,0.299861,0.000480257,4.66996e-13
0.3,7.7,0,0.299861,0.000498501,4.65e-13
0.3,7.8,0,0.299861,0.000498501,4.65e-13
0.3,7.9,0,0.299861,0.000575224,4.49843e-13
0.3,8,0,0.299862,0.000665896,4.31929e-13
0.3,8.1,0,0.299862,0.000756568,4.14016e-13
0.3,8.2,0,0.299862,0.000764241,4.125e-13
0.3,8.3,0,0.299862,0.000764241,4.125e-13
0.3,8.4,0,0.299863,0.000849323,3.90354e-13
0.3,8.5,0,0.299864,0.000937808,3.67323e-13
0.3,8.6,0,0.299866,0.00102357,3.45e-13
0.3,8.7,0,0.299866,0.00102357,3.45e-13
0.3,8.8,0,0.299866,0.00102999,3.43425e-13
0.3,8.9,0,0.299869,0.00111341,3.22953e-13
0.3,9,0,0.299871,0.00119682,3.0248e-13
0.3,9.1,0,0.299874,0.00126805,2.85e-13
0.3,9.2,0,0.299874,0.00126805,2.85e-13
0.3,9.3,0,0.299875,0.00128271,2.81063e-13
0.3,9.4,0,0.299879,0.00135891,2.60591e-13
0.3,9.5,0,0.299883,0.00143511,2.40118e-13
0.3,9.6,0,0.299887,0.00149139,2.25e-13
0.3,9.7,0,0.299887,0.00149139,2.25e-13
0.3,9.8,0,0.299888,0.00151221,2.18701e-13
0.3,9.9,0,0.299894,0.0015799,1.98228e-13
0.3,10,0,0.299899,0.00164759,1.77756e-13
0.3,10.1,0,0.299902,0.00168976,1.65e-13
0.3,10.2,0,0.299902,0.00168976,1.65e-13
0.3,10.3,0,0.299905,0.00171406,1.57421e-13
0.3,10.4,0,0.299911,0.00177151,1.39506e-13
0.3,10.5,0,0.299917,0.00182896,1.21592e-13
0.3,10.6,0,0.29992,0.00185812,1.12497e-13
0.3,10.7,0,0.29992,0.00185812,1.12497e-13
0.3,10.8,0,0.299923,0.00188326,1.06985e-13
0.3,10.9,0,0.29993,0.00192995,9.6749e-14
0.3,11,0,0.299936,0.00197664,8.65131e-14
0.3,11.1,0,0.299939,0.00199496,8.24975e-14
0.3,11.2,0,0.299939,0.00199496,8.24975e-14
0.3,11.3,0,0.299943,0.00201977,7.74717e-14
0.3,11.4,0,0.29995,0.00205772,6.97852e-14
0.3,11.5,0,0.299956,0.00209567,6.20988e-14
0.3,11.6,0,0.299958,0.00210618,5.99702e-14
0.3,11.7,0,0.299958,0.00210618,5.99702e-14
0.3,11.8,0,0.299958,0.00210618,5.99702e-14
0.3,11.9,0,0.299958,0.00210618,5.99702e-14
0.3,12,0,0.299964,0.0021294,5.37673e-14
0.3,12.1,0,0.29997,0.00215787,4.616e-14
0.3,12.2,0,0.299977,0.00218634,3.85526e-14
0.3,12.3,0,0.299975,0.00235129,4.19517e-14
0.3,12.4,0,0.299972,0.0025372,4.70402e-14
0.3,12.5,0,0.299975,0.00256061,4.50746e-14
0.3,12.6,0,0.299978,0.00257019,4.25084e-14
0.3,12.7,0,0.299982,0.00257977,3.99423e-14
0.4,0,0,0.300008,-0.00235591,4.49712e-14
0.4,0.1,0,0.30001,-0.00235363,4.75028e-14
0.4,0.2,0,0.300011,-0.00235134,5.00344e-14
0.4,0.3,0,0.300013,-0.00234906,5.2566e-14
0.4,0.4,0,0.300014,-0.00234269,5.48746e-14
0.4,0.5,0,0.300013,-0.00220938,5.09681e-14
0.4,0.6,0,0.300013,-0.00219881,6.36925e-14
0.4,0.7,0,0.300012,-0.00218825,7.64169e-14
0.4,0.8,0,0.300012,-0.00217768,8.91413e-14
0.4,0.9,0,0.300012,-0.00216892,9.96973e-14
0.4,1,0,0.300011,-0.00216695,1.02491e-13
0.4,1.1,0,0.300006,-0.00215604,1.17971e-13
0.4,1.2,0,0.300001,-0.00214514,1.33452e-13
0.4,1.3,0,0.299996,-0.00213423,1.48932e-13
0.4,1.4,0,0.299992,-0.00212666,1.59685e-13
0.4,1.5,0,0.29999,-0.00212199,1.65481e-13
0.4,1.6,0,0.299985,-0.00210741,1.8359e-13
0.4,1.7,0,0.299979,-0.00209283,2.017e-13
0.4,1.8,0,0.299974,-0.00207824,2.19809e-13
0.4,1.9,0,0.29997,-0.00207006,2.29978e-13
0.4,2,0,0.299969,-0.00206034,2.3943e-13
0.4,2.1,0,0.299965,-0.00203928,2.59908e-13
0.4,2.2,0,0.299961,-0.00201823,2.80386e-13
0.4,2.3,0,0.299958,-0.00199717,3.00864e-13
0.4,2.4,0,0.299956,-0.00198778,3.1e-13
0.4,2.5,0,0.299954,-0.00197199,3.18858e-13
0.4,2.6,0,0.299951,-0.00194461,3.34213e-13
0.4,2.7,0,0.299948,-0.00191724,3.49567e-13
0.4,2.8,0,0.299944,-0.00188987,3.64921e-13
0.4,2.9,0,0.299943,-0.00188081,3.7e-13
0.4,3,0,0.299941,-0.00185759,3.8063e-13
0.4,3.1,0,0.299937,-0.00182404,3.95984e-13
0.4,3.2,0,0.299934,-0.00179049,4.11339e-13
0.4,3.3,0,0.29993,-0.00175694,4.26693e-13
0.4,3.4,0,0.299929,-0.00174972,4.3e-13
0.4,3.5,0,0.299927,-0.00171711,4.42402e-13
0.4,3.6,0,0.299923,-0.00167674,4.57756e-13
0.4,3.7,0,0.29992,-0.00163637,4.7311e-13
0.4,3.8,0,0.299917,-0.00159599,4.88465e-13
0.4,3.9,0,0.299916,-0.00159196,4.9e-13
0.4,4,0,0.299914,-0.00154793,5.04173e-13
0.4,4.1,0,0.29991,-0.00150024,5.19528e-13
0.4,4.2,0,0.299907,-0.00145254,5.34882e-13
0.4,4.3,0,0.299904,-0.00140558,5.5e-13
0.4,4.4,0,0.299904,-0.00140345,5.50492e-13
0.4,4.5,0,0.2999,-0.00134811,5.63287e-13
0.4,4.6,0,0.299896,-0.00129277,5.76083e-13
0.4,4.7,0,0.299893,-0.00123743,5.88878e-13
0.4,4.8,0,0.299889,-0.00118933,6e-13
0.4,4.9,0,0.299889,-0.00117961,6.01575e-13
0.4,5,0,0.299884,-0.00111643,6.11811e-13
0.4,5.1,0,0.299878,-0.00105324,6.22047e-13
0.4,5.2,0,0.299873,-0.000990057,6.32283e-13
0.4,5.3,0,0.29987,-0.000942425,6.4e-13
0.4,5.4,0,0.299868,-0.000923383,6.42067e-13
0.4,5.5,0,0.299862,-0.000852654,6.49744e-13
0.4,5.6,0,0.299856,-0.000781925,6.57421e-13
0.4,5.7,0,0.299849,-0.000711196,6.65098e-13
0.4,5.8,0,0.299845,-0.000666038,6.7e-13
0.4,5.9,0,0.299843,-0.000636324,6.71969e-13
0.4,6,0,0.299838,-0.000559069,6.77087e-13
0.4,6.1,0,0.299832,-0.000481813,6.82205e-13
0.4,6.2,0,0.299827,-0.000404558,6.87323e-13
0.4,6.3,0,0.299824,-0.000364147,6.9e-13
0.4,6.4,0,0.299822,-0.00032253,6.89872e-13
0.4,6.5,0,0.29982,-0.000239296,6.89616e-13
0.4,6.6,0,0.299818,-0.000156062,6.8936e-13
0.4,6.7,0,0.299816,-7.28275e-05,6.89104e-13
0.4,6.8,0,0.299815,-3.88935e-05,6.89e-13
0.4,6.9,0,0.299815,1.57682e-05,6.84276e-13
0.4,7,0,0.299814,0.000104594,6.76598e-13
0.4,7.1,0,0.299814,0.000193419,6.68921e-13
0.4,7.2,0,0.299814,0.000282244,6.61244e-13
0.4,7.3,0,0.299814,0.000308209,6.59e-13
0.4,7.4,0,0.299814,0.000374869,6.51707e-13
0.4,7.5,0,0.299814,0.000466089,6.41726e-13
0.4,7.6,0,0.299814,0.000557309,6.31746e-13
0.4,7.7,0,0.299814,0.000648529,6.21766e-13
0.4,7.8,0,0.299814,0.000664668,6.2e-13
0.4,7.9,0,0.299815,0.000741391,6.04843e-13
0.4,8,0,0.299815,0.000832063,5.86929e-13
0.4,8.1,0,0.299816,0.000922735,5.69016e-13
0.4,8.2,0,0.299816,0.00101341,5.51102e-13
0.4,8.3,0,0.299816,0.00101899,5.5e-13
0.4,8.4,0,0.299817,0.00110407,5.27854e-13
0.4,8.5,0,0.299818,0.00119256,5.04823e-13
0.4,8.6,0,0.29982,0.00128104,4.81791e-13
0.4,8.7,0,0.299821,0.00136476,4.6e-13
0.4,8.8,0,0.299821,0.00137118,4.58425e-13
0.4,8.9,0,0.299824,0.0014546,4.37953e-13
0.4,9,0,0.299827,0.00153802,4.1748e-13
0.4,9.1,0,0.299829,0.00162143,3.97008e-13
0.4,9.2,0,0.299832,0.00169074,3.8e-13
0.4,9.3,0,0.299832,0.00170539,3.76063e-13
0.4,9.4,0,0.299837,0.00178159,3.55591e-13
0.4,9.5,0,0.299841,0.0018578,3.35118e-13
0.4,9.6,0,0.299846,0.001934,3.14646e-13
0.4,9.7,0,0.299849,0.00198852,3e-13
0.4,9.8,0,0.299851,0.00200934,2.93701e-13
0.4,9.9,0,0.299856,0.00207703,2.73228e-13
0.4,10,0,0.299861,0.00214471,2.52756e-13
0.4,10.1,0,0.299866,0.0022124,2.32283e-13
0.4,10.2,0,0.29987,0.00225301,2.2e-13
0.4,10.3,0,0.299872,0.00227732,2.12421e-13
0.4,10.4,0,0.299878,0.00233476,1.94506e-13
0.4,10.5,0,0.299884,0.00239221,1.76592e-13
0.4,10.6,0,0.29989,0.00244966,1.58677e-13
0.4,10.7,0,0.299893,0.0024775,1.49995e-13
0.4,10.8,0,0.299896,0.00250264,1.44484e-13
0.4,10.9,0,0.299903,0.00254933,1.34248e-13
0.4,11,0,0.299909,0.00259602,1.24012e-13
0.4,11.1,0,0.299916,0.00264271,1.13776e-13
0.4,11.2,0,0.299918,0.00265994,1.09997e-13
0.4,11.3,0,0.299923,0.00268476,1.04971e-13
0.4,11.4,0,0.299929,0.00272271,9.72844e-14
0.4,11.5,0,0.299936,0.00276066,8.95979e-14
0.4,11.6,0,0.299943,0.00279861,8.19114e-14
0.4,11.7,0,0.299944,0.00280824,7.99603e-14
0.4,11.8,0,0.299944,0.00280824,7.99603e-14
0.4,11.9,0,0.29995,0.0028308,7.39329e-14
0.4,12,0,0.299956,0.00285927,6.63256e-14
0.4,12.1,0,0.299963,0.00288774,5.87182e-14
0.4,12.2,0,0.29997,0.00291621,5.11109e-14
0.4,12.3,0,0.299968,0.00308024,5.44351e-14
0.4,12.4,0,0.299971,0.00310826,5.26695e-14
0.4,12.5,0,0.299974,0.00311784,5.01034e-14
0.4,12.6,0,0.299977,0.00312741,4.75373e-14
0.4,12.7,0,0.299981,0.00313699,4.49712e-14
0.5,0,0,0.300009,-0.00277144,5e-14
0.5,0.1,0,0.30001,-0.00276965,5.25473e-14
0.5,0.2,0,0.300012,-0.00276785,5.50947e-14
0.5,0.3,0,0.300013,-0.00276605,5.7642e-14
0.5,0.4,0,0.300015,-0.00276425,6.01894e-14
0.5,0.5,0,0.300016,-0.00276194,6.33851e-14
0.5,0.6,0,0.300016,-0.00275141,7.60925e-14
0.5,0.7,0,0.300016,-0.00274088,8.87998e-14
0.5,0.8,0,0.300015,-0.00273033,1.01516e-13
0.5,0.9,0,0.300015,-0.00271976,1.14241e-13
0.5,1,0,0.300014,-0.00270931,1.27221e-13
0.5,1.1,0,0.300009,-0.00269841,1.42701e-13
0.5,1.2,0,0.300004,-0.0026875,1.58181e-13
0.5,1.3,0,0.299999,-0.0026766,1.73662e-13
0.5,1.4,0,0.299994,-0.00266569,1.89142e-13
0.5,1.5,0,0.299989,-0.00265375,2.05284e-13
0.5,1.6,0,0.299983,-0.00263917,2.23394e-13
0.5,1.7,0,0.299977,-0.00262459,2.41503e-13
0.5,1.8,0,0.299972,-0.00261,2.59612e-13
0.5,1.9,0,0.299966,-0.00259542,2.77721e-13
0.5,2,0,0.299961,-0.00257785,2.96924e-13
0.5,2.1,0,0.299958,-0.0025568,3.17402e-13
0.5,2.2,0,0.299954,-0.00253574,3.3788e-13
0.5,2.3,0,0.29995,-0.00251469,3.58358e-13
0.5,2.4,0,0.299947,-0.00249363,3.78836e-13
0.5,2.5,0,0.299943,-0.00246893,3.96358e-13
0.5,2.6,0,0.29994,-0.00244156,4.11713e-13
0.5,2.7,0,0.299937,-0.00241418,4.27067e-13
0.5,2.8,0,0.299933,-0.00238681,4.42421e-13
0.5,2.9,0,0.29993,-0.00235944,4.57776e-13
0.5,3,0,0.299927,-0.00232779,4.7313e-13
0.5,3.1,0,0.299923,-0.00229424,4.88484e-13
0.5,3.2,0,0.299919,-0.00226069,5.03839e-13
0.5,3.3,0,0.299916,-0.00222715,5.19193e-13
0.5,3.4,0,0.299912,-0.0021936,5.34547e-13
0.5,3.5,0,0.299909,-0.00215454,5.49902e-13
0.5,3.6,0,0.299906,-0.00211417,5.65256e-13
0.5,3.7,0,0.299902,-0.0020738,5.8061e-13
0.5,3.8,0,0.299899,-0.00203342,5.95965e-13
0.5,3.9,0,0.299896,-0.00199305,6.11319e-13
0.5,4,0,0.299893,-0.00194592,6.26673e-13
0.5,4.1,0,0.299889,-0.00189823,6.42028e-13
0.5,4.2,0,0.299886,-0.00185053,6.57382e-13
0.5,4.3,0,0.299883,-0.00180283,6.72736e-13
0.5,4.4,0,0.29988,-0.00175485,6.87992e-13
0.5,4.5,0,0.299876,-0.00169951,7.00787e-13
0.5,4.6,0,0.299873,-0.00164417,7.13583e-13
0.5,4.7,0,0.299869,-0.00158883,7.26378e-13
0.5,4.8,0,0.299865,-0.00153349,7.39173e-13
0.5,4.9,0,0.299861,-0.00147694,7.51575e-13
0.5,5,0,0.299856,-0.00141376,7.61811e-13
0.5,5.1,0,0.299851,-0.00135057,7.72047e-13
0.5,5.2,0,0.299846,-0.00128739,7.82283e-13
0.5,5.3,0,0.299841,-0.0012242,7.9252e-13
0.5,5.4,0,0.299835,-0.00115899,8.02067e-13
0.5,5.5,0,0.299829,-0.00108826,8.09744e-13
0.5,5.6,0,0.299823,-0.00101753,8.17421e-13
0.5,5.7,0,0.299817,-0.000946802,8.25098e-13
0.5,5.8,0,0.299811,-0.000876073,8.32776e-13
0.5,5.9,0,0.299805,-0.000802834,8.39469e-13
0.5,6,0,0.299799,-0.000725578,8.44587e-13
0.5,6.1,0,0.299793,-0.000648323,8.49705e-13
0.5,6.2,0,0.299788,-0.000571067,8.54823e-13
0.5,6.3,0,0.299782,-0.000493812,8.59941e-13
0.5,6.4,0,0.299778,-0.000413567,8.62372e-13
0.5,6.5,0,0.299776,-0.000330333,8.62116e-13
0.5,6.6,0,0.299774,-0.000247098,8.6186e-13
0.5,6.7,0,0.299771,-0.000163864,8.61604e-13
0.5,6.8,0,0.299769,-8.06301e-05,8.61348e-13
0.5,6.9,0,0.299768,6.04486e-06,8.56526e-13
0.5,7,0,0.299768,9.48702e-05,8.48848e-13
0.5,7.1,0,0.299768,0.000183696,8.41171e-13
0.5,7.2,0,0.299768,0.000272521,8.33494e-13
0.5,7.3,0,0.299768,0.000361346,8.25817e-13
0.5,7.4,0,0.299768,0.000451922,8.16457e-13
0.5,7.5,0,0.299768,0.000543141,8.06476e-13
0.5,7.6,0,0.299768,0.000634361,7.96496e-13
0.5,7.7,0,0.299768,0.000725581,7.86516e-13
0.5,7.8,0,0.299768,0.000816801,7.76535e-13
0.5,7.9,0,0.299768,0.000907558,7.59843e-13
0.5,8,0,0.299769,0.00099823,7.41929e-13
0.5,8.1,0,0.299769,0.0010889,7.24016e-13
0.5,8.2,0,0.29977,0.00117957,7.06102e-13
0.5,8.3,0,0.29977,0.00127025,6.88189e-13
0.5,8.4,0,0.299771,0.00135882,6.65354e-13
0.5,8.5,0,0.299772,0.0014473,6.42323e-13
0.5,8.6,0,0.299774,0.00153579,6.19291e-13
0.5,8.7,0,0.299775,0.00162427,5.9626e-13
0.5,8.8,0,0.299776,0.00171237,5.73425e-13
0.5,8.9,0,0.299779,0.00179579,5.52953e-13