x,y,z,p
0,0,0,0.000120905
0,0.1,0,0.000260021
0,0.2,0,0.000399137
0,0.3,0,0.000562121
0,0.4,0,0.000748972
0,0.5,0,0.000935823
0,0.6,0,0.00112144
0,0.7,0,0.00130705
0,0.8,0,0.00149174
0,0.9,0,0.0016755
0,1,0,0.00185927
0,1.1,0,0.00204057
0,1.2,0,0.00222186
0,1.3,0,0.00240163
0,1.4,0,0.00257985
0,1.5,0,0.00275807
0,1.6,0,0.00293259
0,1.7,0,0.00310711
0,1.8,0,0.00327945
0,1.9,0,0.00344963
0,2,0,0.0036198
0,2.1,0,0.00378498
0,2.2,0,0.00395015
0,2.3,0,0.0041125
0,2.4,0,0.00427201
0,2.5,0,0.00443152
0,2.6,0,0.00458469
0,2.7,0,0.00473786
0,2.8,0,0.00488752
0,2.9,0,0.00503367
0,3,0,0.00517981
0,3.1,0,0.00531825
0,3.2,0,0.00545668
0,3.3,0,0.00559091
0,3.4,0,0.00572095
0,3.5,0,0.00585099
0,3.6,0,0.00597197
0,3.7,0,0.00609294
0,3.8,0,0.00620907
0,3.9,0,0.00632034
0,4,0,0.00643162
0,4.1,0,0.00653259
0,4.2,0,0.00663357
0,4.3,0,0.00672911
0,4.4,0,0.00681923
0,4.5,0,0.00690935
0,4.6,0,0.00698812
0,4.7,0,0.00706689
0,4.8,0,0.00713833
0,4.9,0,0.00720245
0,5,0,0.00726657
0,5.1,0,0.00732634
0,5.2,0,0.00738611
0,5.3,0,0.00743232
0,5.4,0,0.00747852
0,5.5,0,0.00751467
0,5.6,0,0.00755082
0,5.7,0,0.00757681
0,5.8,0,0.00760279
0,5.9,0,0.00761855
0,6,0,0.00763431
0,6.1,0,0.0076398
0,6.2,0,0.0076453
0,6.3,0,0.00764057
0,6.4,0,0.00763585
0,6.5,0,0.00762096
0,6.6,0,0.00760608
0,6.7,0,0.00758113
0,6.8,0,0.00755618
0,6.9,0,0.00751731
0,7,0,0.00747843
0,7.1,0,0.00743466
0,7.2,0,0.00739089
0,7.3,0,0.00734471
0,7.4,0,0.00728483
0,7.5,0,0.00722495
0,7.6,0,0.00716124
0,7.7,0,0.00708859
0,7.8,0,0.00701593
0,7.9,0,0.00693782
0,8,0,0.00685305
0,8.1,0,0.00676828
0,8.2,0,0.00667669
0,8.3,0,0.00658054
0,8.4,0,0.0064844
0,8.5,0,0.00638032
0,8.6,0,0.0062736
0,8.7,0,0.00616687
0,8.8,0,0.00605137
0,8.9,0,0.0059349
0,9,0,0.00581798
0,9.1,0,0.0056926
0,9.2,0,0.00556722
0,9.3,0,0.00544023
0,9.4,0,0.0053068
0,9.5,0,0.00517336
0,9.6,0,0.0050374
0,9.7,0,0.00489673
0,9.8,0,0.00475606
0,9.9,0,0.00461218
0,10,0,0.00446509
0,10.1,0,0.00431799
0,10.2,0,0.00416721
0,10.3,0,0.00401445
0,10.4,0,0.0038617
0,10.5,0,0.003705
0,10.6,0,0.00354731
0,10.7,0,0.00338963
0,10.8,0,0.00322793
0,10.9,0,0.00306602
0,11,0,0.00290376
0,11.1,0,0.00273829
0,11.2,0,0.00257283
0,11.3,0,0.00240663
0,11.4,0,0.00223825
0,11.5,0,0.00206986
0,11.6,0,0.00190055
0,11.7,0,0.00172985
0,11.8,0,0.00155916
0,11.9,0,0.00138751
0,12,0,0.00121509
0,12.1,0,0.00104268
0,12.2,0,0.000869455
0,12.3,0,0.000695892
0,12.4,0,0.000522328
0,12.5,0,0.000386296
0,12.6,0,0.000256887
0,12.7,0,0.000127479
0.1,0,0,9.40372e-05
0.1,0.1,0,0.000233245
0.1,0.2,0,0.000375094
0.1,0.3,0,0.000562407
0.1,0.4,0,0.000749229
0.1,0.5,0,0.000936911
0.1,0.6,0,0.00112187
0.1,0.7,0,0.0013076
0.1,0.8,0,0.00149244
0.1,0.9,0,0.0016761
0.1,1,0,0.0018614
0.1,1.1,0,0.00204133
0.1,1.2,0,0.00222282
0.1,1.3,0,0.00240274
0.1,1.4,0,0.00258079
0.1,1.5,0,0.00276122
0.1,1.6,0,0.0029337
0.1,1.7,0,0.00310848
0.1,1.8,0,0.00328098
0.1,1.9,0,0.00345092
0.1,2,0,0.00362394
0.1,2.1,0,0.00378646
0.1,2.2,0,0.00395195
0.1,2.3,0,0.00411446
0.1,2.4,0,0.00427367
0.1,2.5,0,0.0044366
0.1,2.6,0,0.00458655
0.1,2.7,0,0.00474009
0.1,2.8,0,0.00488992
0.1,2.9,0,0.00503572
0.1,3,0,0.00518581
0.1,3.1,0,0.00532048
0.1,3.2,0,0.00545934
0.1,3.3,0,0.00559374
0.1,3.4,0,0.00572338
0.1,3.5,0,0.00585787
0.1,3.6,0,0.00597457
0.1,3.7,0,0.00609602
0.1,3.8,0,0.0062123
0.1,3.9,0,0.00632312
0.1,4,0,0.00643939
0.1,4.1,0,0.00653554
0.1,4.2,0,0.00663704
0.1,4.3,0,0.00673271
0.1,4.4,0,0.00682232
0.1,4.5,0,0.00691796
0.1,4.6,0,0.00699134
0.1,4.7,0,0.00707068
0.1,4.8,0,0.00714366
0.1,4.9,0,0.00720737
0.1,5,0,0.00727585
0.1,5.1,0,0.00733014
0.1,5.2,0,0.00739562
0.1,5.3,0,0.00743454
0.1,5.4,0,0.00748821
0.1,5.5,0,0.00751692
0.1,5.6,0,0.00756064
0.1,5.7,0,0.00757908
0.1,5.8,0,0.00761269
0.1,5.9,0,0.00762083
0.1,6,0,0.00764423
0.1,6.1,0,0.00764208
0.1,6.2,0,0.0076552
0.1,6.3,0,0.00764284
0.1,6.4,0,0.00764567
0.1,6.5,0,0.00762321
0.1,6.6,0,0.00761577
0.1,6.7,0,0.00758335
0.1,6.8,0,0.00756571
0.1,6.9,0,0.00752128
0.1,7,0,0.00748772
0.1,7.1,0,0.00744072
0.1,7.2,0,0.00739695
0.1,7.3,0,0.00735254
0.1,7.4,0,0.00728898
0.1,7.5,0,0.0072291
0.1,7.6,0,0.00716762
0.1,7.7,0,0.00709254
0.1,7.8,0,0.00702042
0.1,7.9,0,0.00694281
0.1,8,0,0.00685678
0.1,8.1,0,0.00677344
0.1,8.2,0,0.00668039
0.1,8.3,0,0.00658402
0.1,8.4,0,0.00649009
0.1,8.5,0,0.00638354
0.1,8.6,0,0.00627682
0.1,8.7,0,0.00617297
0.1,8.8,0,0.00605433
0.1,8.9,0,0.00593785
0.1,9,0,0.00582386
0.1,9.1,0,0.00569528
0.1,9.2,0,0.00556991
0.1,9.3,0,0.00544487
0.1,9.4,0,0.00530922
0.1,9.5,0,0.00517578
0.1,9.6,0,0.0050409
0.1,9.7,0,0.00489889
0.1,9.8,0,0.00475875
0.1,9.9,0,0.00461467
0.1,10,0,0.004467
0.1,10.1,0,0.00432091
0.1,10.2,0,0.00416889
0.1,10.3,0,0.00401613
0.1,10.4,0,0.00386473
0.1,10.5,0,0.00370644
0.1,10.6,0,0.00354876
0.1,10.7,0,0.00339265
0.1,10.8,0,0.00322916
0.1,10.9,0,0.00306725
0.1,11,0,0.00290617
0.1,11.1,0,0.00273932
0.1,11.2,0,0.00257385
0.1,11.3,0,0.00240829
0.1,11.4,0,0.00223907
0.1,11.5,0,0.00207074
0.1,11.6,0,0.00190159
0.1,11.7,0,0.00173049
0.1,11.8,0,0.00155999
0.1,11.9,0,0.00138808
0.1,12,0,0.00121555
0.1,12.1,0,0.00104334
0.1,12.2,0,0.000869725
0.1,12.3,0,0.000696162
0.1,12.4,0,0.000522723
0.1,12.5,0,0.000358061
0.1,12.6,0,0.000228653
0.1,12.7,0,9.915e-05
0.2,0,0,6.71694e-05
0.2,0.1,0,0.000206451
0.2,0.2,0,0.000375647
0.2,0.3,0,0.00056296
0.2,0.4,0,0.000749652
0.2,0.5,0,0.000937998
0.2,0.6,0,0.00112243
0.2,0.7,0,0.00130921
0.2,0.8,0,0.00149405
0.2,0.9,0,0.00167701
0.2,1,0,0.00186353
0.2,1.1,0,0.00204238
0.2,1.2,0,0.00222547
0.2,1.3,0,0.00240538
0.2,1.4,0,0.00258217
0.2,1.5,0,0.00276437
0.2,1.6,0,0.00293523
0.2,1.7,0,0.00311213
0.2,1.8,0,0.00328464
0.2,1.9,0,0.00345279
0.2,2,0,0.00362808
0.2,2.1,0,0.00378847
0.2,2.2,0,0.00395656
0.2,2.3,0,0.00411908
0.2,2.4,0,0.00427603
0.2,2.5,0,0.00444169
0.2,2.6,0,0.00458905
0.2,2.7,0,0.00474563
0.2,2.8,0,0.00489546
0.2,2.9,0,0.00503855
0.2,3,0,0.0051918
0.2,3.1,0,0.00532347
0.2,3.2,0,0.00546578
0.2,3.3,0,0.00560018
0.2,3.4,0,0.00572669
0.2,3.5,0,0.00586476
0.2,3.6,0,0.00597804
0.2,3.7,0,0.00610335
0.2,3.8,0,0.00621963
0.2,3.9,0,0.0063269
0.2,4,0,0.00644716
0.2,4.1,0,0.00653945
0.2,4.2,0,0.00664524
0.2,4.3,0,0.00674092
0.2,4.4,0,0.00682651
0.2,4.5,0,0.00692658
0.2,4.6,0,0.00699563
0.2,4.7,0,0.00707968
0.2,4.8,0,0.00715266
0.2,4.9,0,0.00721317
0.2,5,0,0.00728513
0.2,5.1,0,0.00733395
0.2,5.2,0,0.00740514
0.2,5.3,0,0.00743676
0.2,5.4,0,0.0074979
0.2,5.5,0,0.00751917
0.2,5.6,0,0.00757045
0.2,5.7,0,0.00758134
0.2,5.8,0,0.00762258
0.2,5.9,0,0.00762311
0.2,6,0,0.00765415
0.2,6.1,0,0.00764436
0.2,6.2,0,0.00766509
0.2,6.3,0,0.0076451
0.2,6.4,0,0.00765549
0.2,6.5,0,0.00762546
0.2,6.6,0,0.00762546
0.2,6.7,0,0.00758557
0.2,6.8,0,0.00757523
0.2,6.9,0,0.00752525
0.2,7,0,0.00749701
0.2,7.1,0,0.00744814
0.2,7.2,0,0.00740493
0.2,7.3,0,0.00736153
0.2,7.4,0,0.00729401
0.2,7.5,0,0.00723719
0.2,7.6,0,0.00717617
0.2,7.7,0,0.00709648
0.2,7.8,0,0.00702851
0.2,7.9,0,0.0069509
0.2,8,0,0.0068605
0.2,8.1,0,0.00678105
0.2,8.2,0,0.006688
0.2,8.3,0,0.0065876
0.2,8.4,0,0.00649721
0.2,8.5,0,0.00638995
0.2,8.6,0,0.00628094
0.2,8.7,0,0.00617961
0.2,8.8,0,0.00605941
0.2,8.9,0,0.00594241
0.2,9,0,0.00583001
0.2,9.1,0,0.00569915
0.2,9.2,0,0.00557479
0.2,9.3,0,0.00545054
0.2,9.4,0,0.00531198
0.2,9.5,0,0.00518088
0.2,9.6,0,0.00504608
0.2,9.7,0,0.00490105
0.2,9.8,0,0.00476342
0.2,9.9,0,0.00461935
0.2,10,0,0.00446891
0.2,10.1,0,0.00432508
0.2,10.2,0,0.00417299
0.2,10.3,0,0.00401801
0.2,10.4,0,0.00386839
0.2,10.5,0,0.00370952
0.2,10.6,0,0.00355079
0.2,10.7,0,0.00339582
0.2,10.8,0,0.00323136
0.2,10.9,0,0.00306932
0.2,11,0,0.00290884
0.2,11.1,0,0.00274077
0.2,11.2,0,0.00257583
0.2,11.3,0,0.00241049
0.2,11.4,0,0.00223994
0.2,11.5,0,0.00207247
0.2,11.6,0,0.00190333
0.2,11.7,0,0.00173113
0.2,11.8,0,0.00156128
0.2,11.9,0,0.00138937
0.2,12,0,0.001216
0.2,12.1,0,0.0010442
0.2,12.2,0,0.000870524
0.2,12.3,0,0.000696462
0.2,12.4,0,0.000523157
0.2,12.5,0,0.000348688
0.2,12.6,0,0.000200378
0.2,12.7,0,7.08214e-05
0.3,0,0,4.03016e-05
0.3,0.1,0,0.000187782
0.3,0.2,0,0.0003762
0.3,0.3,0,0.000563513
0.3,0.4,0,0.000750828
0.3,0.5,0,0.000939086
0.3,0.6,0,0.00112387
0.3,0.7,0,0.00131082
0.3,0.8,0,0.00149566
0.3,0.9,0,0.00167944
0.3,1,0,0.00186566
0.3,1.1,0,0.00204507
0.3,1.2,0,0.00222811
0.3,1.3,0,0.00240803
0.3,1.4,0,0.00258584
0.3,1.5,0,0.00276753
0.3,1.6,0,0.00293914
0.3,1.7,0,0.00311578
0.3,1.8,0,0.00328829
0.3,1.9,0,0.00345764
0.3,2,0,0.00363222
0.3,2.1,0,0.00379355
0.3,2.2,0,0.00396118
0.3,2.3,0,0.00412369
0.3,2.4,0,0.004282
0.3,2.5,0,0.00444677
0.3,2.6,0,0.00459524
0.3,2.7,0,0.00475117
0.3,2.8,0,0.004901
0.3,2.9,0,0.00504559
0.3,3,0,0.00519779
0.3,3.1,0,0.00533073
0.3,3.2,0,0.00547221
0.3,3.3,0,0.00560662
0.3,3.4,0,0.00573478
0.3,3.5,0,0.00587164
0.3,3.6,0,0.00598634
0.3,3.7,0,0.00611068
0.3,3.8,0,0.00622696
0.3,3.9,0,0.00633604
0.3,4,0,0.00645493
0.3,4.1,0,0.00654879
0.3,4.2,0,0.00665344
0.3,4.3,0,0.00674912
0.3,4.4,0,0.00683666
0.3,4.5,0,0.00693519
0.3,4.6,0,0.00700598
0.3,4.7,0,0.00708867
0.3,4.8,0,0.00716165
0.3,4.9,0,0.00722367
0.3,5,0,0.00729441
0.3,5.1,0,0.00734614
0.3,5.2,0,0.00741465
0.3,5.3,0,0.00745005
0.3,5.4,0,0.00750759
0.3,5.5,0,0.00753267
0.3,5.6,0,0.00758027
0.3,5.7,0,0.00759499
0.3,5.8,0,0.00763248
0.3,5.9,0,0.00763683
0.3,6,0,0.00766407
0.3,6.1,0,0.00765809
0.3,6.2,0,0.00767499
0.3,6.3,0,0.00765876
0.3,6.4,0,0.00766531
0.3,6.5,0,0.00763897
0.3,6.6,0,0.00763515
0.3,6.7,0,0.00759888
0.3,6.8,0,0.00758475
0.3,6.9,0,0.00753737
0.3,7,0,0.00750631
0.3,7.1,0,0.00745766
0.3,7.2,0,0.00741391
0.3,7.3,0,0.00737051
0.3,7.4,0,0.00730438
0.3,7.5,0,0.00724574
0.3,7.6,0,0.00718472
0.3,7.7,0,0.00710708
0.3,7.8,0,0.0070366
0.3,7.9,0,0.00695899
0.3,8,0,0.00687039
0.3,8.1,0,0.00678866
0.3,8.2,0,0.0066956
0.3,8.3,0,0.00659668
0.3,8.4,0,0.00650433
0.3,8.5,0,0.00639707
0.3,8.6,0,0.0062885
0.3,8.7,0,0.00618625
0.3,8.8,0,0.00606605
0.3,8.9,0,0.00594856
0.3,9,0,0.00583617
0.3,9.1,0,0.00570578
0.3,9.2,0,0.00558045
0.3,9.3,0,0.00545621
0.3,9.4,0,0.00531873
0.3,9.5,0,0.00518605
0.3,9.6,0,0.00505125
0.3,9.7,0,0.00490741
0.3,9.8,0,0.00476809
0.3,9.9,0,0.00462402
0.3,10,0,0.00447452
0.3,10.1,0,0.00432924
0.3,10.2,0,0.00417715
0.3,10.3,0,0.00402266
0.3,10.4,0,0.00387205
0.3,10.5,0,0.00371318
0.3,10.6,0,0.0035543
0.3,10.7,0,0.00339898
0.3,10.8,0,0.00323452
0.3,10.9,0,0.00307199
0.3,11,0,0.00291151
0.3,11.1,0,0.00274372
0.3,11.2,0,0.00257803
0.3,11.3,0,0.00241268
0.3,11.4,0,0.00224256
0.3,11.5,0,0.00207421
0.3,11.6,0,0.00190507
0.3,11.7,0,0.0017331
0.3,11.8,0,0.00156257
0.3,11.9,0,0.00139066
0.3,12,0,0.00121731
0.3,12.1,0,0.00104507
0.3,12.2,0,0.000871385
0.3,12.3,0,0.000697083
0.3,12.4,0,0.000523591
0.3,12.5,0,0.000349122
0.3,12.6,0,0.000174313
0.3,12.7,0,4.24928e-05
0.4,0,0,1.34339e-05
0.4,0.1,0,0.000188243
0.4,0.2,0,0.000376716
0.4,0.3,0,0.000564398
0.4,0.4,0,0.000752212
0.4,0.5,0,0.000940173
0.4,0.6,0,0.00112614
0.4,0.7,0,0.0013127
0.4,0.8,0,0.00149789
0.4,0.9,0,0.00168258
0.4,1,0,0.00186779
0.4,1.1,0,0.00204907
0.4,1.2,0,0.0022313
0.4,1.3,0,0.00241156
0.4,1.4,0,0.00259069
0.4,1.5,0,0.00277068
0.4,1.6,0,0.00294483
0.4,1.7,0,0.00312025
0.4,1.8,0,0.00329308
0.4,1.9,0,0.00346413
0.4,2,0,0.00363636
0.4,2.1,0,0.00380083
0.4,2.2,0,0.00396687
0.4,2.3,0,0.00412968
0.4,2.4,0,0.00429003
0.4,2.5,0,0.00445186
0.4,2.6,0,0.00460401
0.4,2.7,0,0.004758
0.4,2.8,0,0.00490812
0.4,2.9,0,0.00505508
0.4,3,0,0.00520378
0.4,3.1,0,0.00534092
0.4,3.2,0,0.00548015
0.4,3.3,0,0.00561484
0.4,3.4,0,0.00574568
0.4,3.5,0,0.00587853
0.4,3.6,0,0.00599794
0.4,3.7,0,0.00611972
0.4,3.8,0,0.00623629
0.4,3.9,0,0.00634836
0.4,4,0,0.0064627
0.4,4.1,0,0.00656182
0.4,4.2,0,0.00666358
0.4,4.3,0,0.00675953
0.4,4.4,0,0.00685039
0.4,4.5,0,0.00694381
0.4,4.6,0,0.00702037
0.4,4.7,0,0.00709982
0.4,4.8,0,0.00717238
0.4,4.9,0,0.00723702
0.4,5,0,0.00730369
0.4,5.1,0,0.00736113
0.4,5.2,0,0.00742416
0.4,5.3,0,0.00746703
0.4,5.4,0,0.00751728
0.4,5.5,0,0.00754993
0.4,5.6,0,0.00759009
0.4,5.7,0,0.00761244
0.4,5.8,0,0.00764237
0.4,5.9,0,0.00765437
0.4,6,0,0.00767399
0.4,6.1,0,0.00767563
0.4,6.2,0,0.00768489
0.4,6.3,0,0.00767621
0.4,6.4,0,0.00767513
0.4,6.5,0,0.00765623
0.4,6.6,0,0.00764485
0.4,6.7,0,0.00761587
0.4,6.8,0,0.00759428
0.4,6.9,0,0.00755222
0.4,7,0,0.0075156
0.4,7.1,0,0.00746988
0.4,7.2,0,0.00742562
0.4,7.3,0,0.00737949
0.4,7.4,0,0.00731777
0.4,7.5,0,0.00725722
0.4,7.6,0,0.00719327
0.4,7.7,0,0.00711978
0.4,7.8,0,0.00704639
0.4,7.9,0,0.0069679
0.4,8,0,0.00688237
0.4,8.1,0,0.00679684
0.4,8.2,0,0.00670484
0.4,8.3,0,0.00660793
0.4,8.4,0,0.00651146
0.4,8.5,0,0.00640653
0.4,8.6,0,0.00629904
0.4,8.7,0,0.00619289
0.4,8.8,0,0.00607564
0.4,8.9,0,0.0059584
0.4,9,0,0.00584232
0.4,9.1,0,0.00571492
0.4,9.2,0,0.00558877
0.4,9.3,0,0.00546187
0.4,9.4,0,0.00532715
0.4,9.5,0,0.00519294
0.4,9.6,0,0.00505655
0.4,9.7,0,0.0049151
0.4,9.8,0,0.00477364
0.4,9.9,0,0.00462934
0.4,10,0,0.00448145
0.4,10.1,0,0.00433355
0.4,10.2,0,0.00418236
0.4,10.3,0,0.00402881
0.4,10.4,0,0.00387571
0.4,10.5,0,0.00371815
0.4,10.6,0,0.00355968
0.4,10.7,0,0.00340214
0.4,10.8,0,0.00323912
0.4,10.9,0,0.00307644
0.4,11,0,0.00291418
0.4,11.1,0,0.00274757
0.4,11.2,0,0.00258135
0.4,11.3,0,0.00241488
0.4,11.4,0,0.00224567
0.4,11.5,0,0.00207656
0.4,11.6,0,0.00190689
0.4,11.7,0,0.00173549
0.4,11.8,0,0.00156409
0.4,11.9,0,0.00139211
0.4,12,0,0.00121901
0.4,12.1,0,0.00104593
0.4,12.2,0,0.000872345
0.4,12.3,0,0.000698108
0.4,12.4,0,0.000524026
0.4,12.5,0,0.000349477
0.4,12.6,0,0.000174653
0.4,12.7,0,1.41643e-05
0.5,0,0,0
0.5,0.1,0,0.000188807
0.5,0.2,0,0.00037728
0.5,0.3,0,0.000566046
0.5,0.4,0,0.000753859
0.5,0.5,0,0.000942277
0.5,0.6,0,0.00112884
0.5,0.7,0,0.0013154
0.5,0.8,0,0.00150163
0.5,0.9,0,0.00168633
0.5,1,0,0.00187195
0.5,1.1,0,0.00205385
0.5,1.2,0,0.00223608
0.5,1.3,0,0.00241736
0.5,1.4,0,0.00259649
0.5,1.5,0,0.00277693
0.5,1.6,0,0.00295164
0.5,1.7,0,0.00312705
0.5,1.8,0,0.00330087
0.5,1.9,0,0.00347193
0.5,2,0,0.00364474
0.5,2.1,0,0.00380959
0.5,2.2,0,0.00397563
0.5,2.3,0,0.00413939
0.5,2.4,0,0.00429974
0.5,2.5,0,0.00446239
0.5,2.6,0,0.00461464
0.5,2.7,0,0.00476864
0.5,2.8,0,0.00491966
0.5,2.9,0,0.00506661
0.5,3,0,0.00521647
0.5,3.1,0,0.00535335
0.5,3.2,0,0.00549258
0.5,3.3,0,0.00562816
0.5,3.4,0,0.005759
0.5,3.5,0,0.00589333
0.5,3.6,0,0.00601216
0.5,3.7,0,0.00613393
0.5,3.8,0,0.00625139
0.5,3.9,0,0.00636346
0.5,4,0,0.00647951
0.5,4.1,0,0.0065778
0.5,4.2,0,0.00667956
0.5,4.3,0,0.00677636
0.5,4.4,0,0.00686722
0.5,4.5,0,0.00696241
0.5,4.6,0,0.007038
0.5,4.7,0,0.00711745
0.5,4.8,0,0.00719072
0.5,4.9,0,0.00725536
0.5,5,0,0.00732368
0.5,5.1,0,0.00737996
0.5,5.2,0,0.00744462
0.5,5.3,0,0.00748625
0.5,5.4,0,0.00753809
0.5,5.5,0,0.00756946
0.5,5.6,0,0.00761115
0.5,5.7,0,0.00763218
0.5,5.8,0,0.00766359
0.5,5.9,0,0.00767421
0.5,6,0,0.00769525
0.5,6.1,0,0.00769547
0.5,6.2,0,0.0077061
0.5,6.3,0,0.00769595
0.5,6.4,0,0.00769618
0.5,6.5,0,0.00767577
0.5,6.6,0,0.00766565
0.5,6.7,0,0.0076351
0.5,6.8,0,0.00761473
0.5,6.9,0,0.00757107
0.5,7,0,0.00753556
0.5,7.1,0,0.00748824
0.5,7.2,0,0.00744398
0.5,7.3,0,0.00739794
0.5,7.4,0,0.00733533
0.5,7.5,0,0.00727478
0.5,7.6,0,0.00721002
0.5,7.7,0,0.00713643
0.5,7.8,0,0.00706304
0.5,7.9,0,0.0069836
0.5,8,0,0.00689807
0.5,8.1,0,0.00681255
0.5,8.2,0,0.00671958
0.5,8.3,0,0.00662267
0.5,8.4,0,0.00652629
0.5,8.5,0,0.0064203
0.5,8.6,0,0.00631281
0.5,8.7,0,0.00620685
0.5,8.8,0,0.00608843
0.5,8.9,0,0.00597119
0.5,9,0,0.00585504
0.5,9.1,0,0.00572674
0.5,9.2,0,0.00560059
0.5,9.3,0,0.00547304
0.5,9.4,0,0.00533799
0.5,9.5,0,0.00520378
0.5,9.6,0,0.0050664
0.5,9.7,0,0.00492494
0.5,9.8,0,0.00478348
0.5,9.9,0,0.00463818
0.5,10,0,0.00449028
0.5,10.1,0,0.00434239
0.5,10.2,0,0.00419019
0.5,10.3,0,0.00403664
0.5,10.4,0,0.00388333
0.5,10.5,0,0.00372497
0.5,10.6,0,0.0035665
0.5,10.7,0,0.00340847
0.5,10.8,0,0.00324495
0.5,10.9,0,0.00308227
0.5,11,0,0.00291931
0.5,11.1,0,0.00275243
0.5,11.2,0,0.00258621
0.5,11.3,0,0.00241888
0.5,11.4,0,0.00224959
0.5,11.5,0,0.00208048
0.5,11.6,0,0.00190991
0.5,11.7,0,0.00173851
0.5,11.8,0,0.00156712
0.5,11.9,0,0.00139426
0.5,12,0,0.00122115
0.5,12.1,0,0.00104805
0.5,12.2,0,0.000873641
0.5,12.3,0,0.000699403
0.5,12.4,0,0.000525086
0.5,12.5,0,0.000349918
0.5,12.6,0,0.000175095
0.5,12.7,0,0
0.6,0,0,0
0.6,0.1,0,0.000189474
0.6,0.2,0,0.000378497
0.6,0.3,0,0.00056776
0.6,0.4,0,0.00075577
0.6,0.5,0,0.000945397
0.6,0.6,0,0.00113198
0.6,0.7,0,0.00131945
0.6,0.8,0,0.00150616
0.6,0.9,0,0.00169067
0.6,1,0,0.00187814
0.6,1.1,0,0.0020594
0.6,1.2,0,0.00224295
0.6,1.3,0,0.00242471
0.6,1.4,0,0.00260324
0.6,1.5,0,0.00278628
0.6,1.6,0,0.00295957
0.6,1.7,0,0.00313681
0.6,1.8,0,0.0033111
0.6,1.9,0,0.00348103
0.6,2,0,0.00365735
0.6,2.1,0,0.00381984
0.6,2.2,0,0.0039883
0.6,2.3,0,0.00415251
0.6,2.4,0,0.00431112
0.6,2.5,0,0.00447837
0.6,2.6,0,0.00462713
0.6,2.7,0,0.00478424
0.6,2.8,0,0.0049357
0.6,2.9,0,0.0050802
0.6,3,0,0.00523585
0.6,3.1,0,0.00536802
0.6,3.2,0,0.00551109
0.6,3.3,0,0.0056471
0.6,3.4,0,0.00577475
0.6,3.5,0,0.00591605
0.6,3.6,0,0.00602898
0.6,3.7,0,0.00615526
0.6,3.8,0,0.00627314
0.6,3.9,0,0.00638134
0.6,4,0,0.00650536
0.6,4.1,0,0.00659673
0.6,4.2,0,0.0067035
0.6,4.3,0,0.0068007
0.6,4.4,0,0.00688716
0.6,4.5,0,0.006991
0.6,4.6,0,0.00705887
0.6,4.7,0,0.00714365
0.6,4.8,0,0.00721791
0.6,4.9,0,0.00727869
0.6,5,0,0.00735439
0.6,5.1,0,0.00740263
0.6,5.2,0,0.00747604
0.6,5.3,0,0.00750771
0.6,5.4,0,0.00757002
0.6,5.5,0,0.00759127
0.6,5.6,0,0.00764345
0.6,5.7,0,0.00765421
0.6,5.8,0,0.00769611
0.6,5.9,0,0.00769636
0.6,6,0,0.00772785
0.6,6.1,0,0.00771763
0.6,6.2,0,0.00773861
0.6,6.3,0,0.00771799
0.6,6.4,0,0.00772846
0.6,6.5,0,0.00769758
0.6,6.6,0,0.00769755
0.6,6.7,0,0.00765658
0.6,6.8,0,0.00764611
0.6,6.9,0,0.00759395
0.6,7,0,0.0075662
0.6,7.1,0,0.00751276
0.6,7.2,0,0.0074693
0.6,7.3,0,0.0074275
0.6,7.4,0,0.00735706
0.6,7.5,0,0.00729906
0.6,7.6,0,0.00723821
0.6,7.7,0,0.00715704
0.6,7.8,0,0.00708748
0.6,7.9,0,0.00700875
0.6,8,0,0.00691751
0.6,8.1,0,0.00683683
0.6,8.2,0,0.00674155
0.6,8.3,0,0.00664088
0.6,8.4,0,0.00654956
0.6,8.5,0,0.00643926
0.6,8.6,0,0.00632979
0.6,8.7,0,0.00622831
0.6,8.8,0,0.00610463
0.6,8.9,0,0.00598694
0.6,9,0,0.00587467
0.6,9.1,0,0.00574125
0.6,9.2,0,0.00561588
0.6,9.3,0,0.00549084
0.6,9.4,0,0.00535126
0.6,9.5,0,0.00521833
0.6,9.6,0,0.00508217
0.6,9.7,0,0.00493695
0.6,9.8,0,0.00479706
0.6,9.9,0,0.00465139
0.6,10,0,0.00450104
0.6,10.1,0,0.00435481
0.6,10.2,0,0.00420112
0.6,10.3,0,0.00404614
0.6,10.4,0,0.00389421
0.6,10.5,0,0.00373385
0.6,10.6,0,0.00357476
0.6,10.7,0,0.00341778
0.6,10.8,0,0.003252
0.6,10.9,0,0.00308938
0.6,11,0,0.00292714
0.6,11.1,0,0.0027583
0.6,11.2,0,0.00259226
0.6,11.3,0,0.00242529
0.6,11.4,0,0.00225434
0.6,11.5,0,0.0020854
0.6,11.6,0,0.00191479
0.6,11.7,0,0.00174217
0.6,11.8,0,0.00157086
0.6,11.9,0,0.00139759
0.6,12,0,0.00122375
0.6,12.1,0,0.00105056
0.6,12.2,0,0.000875578
0.6,12.3,0,0.000700969
0.6,12.4,0,0.000526351
0.6,12.5,0,0.000350574
0.6,12.6,0,0.000175637
0.6,12.7,0,0
0.7,0,0,0
0.7,0.1,0,0.000189674
0.7,0.2,0,0.00038008
0.7,0.3,0,0.000569343
0.7,0.4,0,0.000758528
0.7,0.5,0,0.000948517
0.7,0.6,0,0.0011351
0.7,0.7,0,0.0013241
0.7,0.8,0,0.00151081
0.7,0.9,0,0.00169631
0.7,1,0,0.00188434
0.7,1.1,0,0.0020654
0.7,1.2,0,0.00225071
0.7,1.3,0,0.00243247
0.7,1.4,0,0.0026118
0.7,1.5,0,0.00279563
0.7,1.6,0,0.00296849
0.7,1.7,0,0.00314778
0.7,1.8,0,0.00332206
0.7,1.9,0,0.00349259
0.7,2,0,0.00366997
0.7,2.1,0,0.00383175
0.7,2.2,0,0.00400259
0.7,2.3,0,0.0041668
0.7,2.4,0,0.00432572
0.7,2.5,0,0.00449435
0.7,2.6,0,0.00464207
0.7,2.7,0,0.00480192
0.7,2.8,0,0.00495338
0.7,2.9,0,0.00509784
0.7,3,0,0.00525524
0.7,3.1,0,0.00538599
0.7,3.2,0,0.00553216
0.7,3.3,0,0.00566817
0.7,3.4,0,0.00579538
0.7,3.5,0,0.00593878
0.7,3.6,0,0.00604993
0.7,3.7,0,0.00617958
0.7,3.8,0,0.00629746
0.7,3.9,0,0.0064048
0.7,4,0,0.00653121
0.7,4.1,0,0.00662051
0.7,4.2,0,0.00673078
0.7,4.3,0,0.00682799
0.7,4.4,0,0.00691315
0.7,4.5,0,0.00701959
0.7,4.6,0,0.00708514
0.7,4.7,0,0.0071734
0.7,4.8,0,0.00724766
0.7,4.9,0,0.00730719
0.7,5,0,0.0073851
0.7,5.1,0,0.0074295
0.7,5.2,0,0.00750745
0.7,5.3,0,0.00753428
0.7,5.4,0,0.00760195
0.7,5.5,0,0.00761823
0.7,5.6,0,0.00767576
0.7,5.7,0,0.00768143
0.7,5.8,0,0.00772864
0.7,5.9,0,0.00772371
0.7,6,0,0.00776045
0.7,6.1,0,0.00774498
0.7,6.2,0,0.00777113
0.7,6.3,0,0.0077452
0.7,6.4,0,0.00776075
0.7,6.5,0,0.00772453
0.7,6.6,0,0.00772945
0.7,6.7,0,0.00768313
0.7,6.8,0,0.00767749
0.7,6.9,0,0.00762089
0.7,7,0,0.00759683
0.7,7.1,0,0.00754291
0.7,7.2,0,0.00749885
0.7,7.3,0,0.00745705
0.7,7.4,0,0.00738414
0.7,7.5,0,0.00732725
0.7,7.6,0,0.00726641
0.7,7.7,0,0.00718137
0.7,7.8,0,0.00711415
0.7,7.9,0,0.00703542
0.7,8,0,0.00694008
0.7,8.1,0,0.00686184
0.7,8.2,0,0.00676657
0.7,8.3,0,0.00666175
0.7,8.4,0,0.00657283
0.7,8.5,0,0.00646253
0.7,8.6,0,0.00635019
0.7,8.7,0,0.00624977
0.7,8.8,0,0.00612609
0.7,8.9,0,0.00600657
0.7,9,0,0.0058943
0.7,9.1,0,0.00576007
0.7,9.2,0,0.00563368
0.7,9.3,0,0.00550863
0.7,9.4,0,0.00536727
0.7,9.5,0,0.00523432
0.7,9.6,0,0.00509816
0.7,9.7,0,0.00495072
0.7,9.8,0,0.00481128
0.7,9.9,0,0.00466561
0.7,10,0,0.00451289
0.7,10.1,0,0.00436733
0.7,10.2,0,0.00421363
0.7,10.3,0,0.00405647
0.7,10.4,0,0.00390509
0.7,10.5,0,0.00374473
0.7,10.6,0,0.00358391
0.7,10.7,0,0.0034271
0.7,10.8,0,0.00326131
0.7,10.9,0,0.00309721
0.7,11,0,0.00293497
0.7,11.1,0,0.00276567
0.7,11.2,0,0.00259867
0.7,11.3,0,0.00243171
0.7,11.4,0,0.00225996
0.7,11.5,0,0.00209046
0.7,11.6,0,0.00191985
0.7,11.7,0,0.00174625
0.7,11.8,0,0.00157462
0.7,11.9,0,0.00140136
0.7,12,0,0.00122637
0.7,12.1,0,0.00105307
0.7,12.2,0,0.000878085
0.7,12.3,0,0.000702328
0.7,12.4,0,0.000527617
0.7,12.5,0,0.000351839
0.7,12.6,0,0.000175679
0.7,12.7,0,0
0.8,0,0,0
0.8,0.1,0,0.000190407
0.8,0.2,0,0.000381663
0.8,0.3,0,0.000570927
0.8,0.4,0,0.000761386
0.8,0.5,0,0.000951638
0.8,0.6,0,0.00113944
0.8,0.7,0,0.00132875
0.8,0.8,0,0.00151546
0.8,0.9,0,0.00170275
0.8,1,0,0.00189053
0.8,1.1,0,0.00207336
0.8,1.2,0,0.00225847
0.8,1.3,0,0.00244023
0.8,1.4,0,0.00262197
0.8,1.5,0,0.00280498
0.8,1.6,0,0.00298027
0.8,1.7,0,0.00315874
0.8,1.8,0,0.00333303
0.8,1.9,0,0.0035067
0.8,2,0,0.00368258
0.8,2.1,0,0.00384759
0.8,2.2,0,0.00401687
0.8,2.3,0,0.00418109
0.8,2.4,0,0.00434402
0.8,2.5,0,0.00451033
0.8,2.6,0,0.0046622
0.8,2.7,0,0.0048196
0.8,2.8,0,0.00497106
0.8,2.9,0,0.0051205
0.8,3,0,0.00527462
0.8,3.1,0,0.00541049
0.8,3.2,0,0.00555323
0.8,3.3,0,0.00568924
0.8,3.4,0,0.00582236
0.8,3.5,0,0.0059615
0.8,3.6,0,0.00607866
0.8,3.7,0,0.0062039
0.8,3.8,0,0.00632178
0.8,3.9,0,0.00643581
0.8,4,0,0.00655706
0.8,4.1,0,0.00665304
0.8,4.2,0,0.00675806
0.8,4.3,0,0.00685527
0.8,4.4,0,0.00694762
0.8,4.5,0,0.00704818
0.8,4.6,0,0.00712084
0.8,4.7,0,0.00720316
0.8,4.8,0,0.00727742
0.8,4.9,0,0.00734304
0.8,5,0,0.00741581
0.8,5.1,0,0.00746895
0.8,5.2,0,0.00753886
0.8,5.3,0,0.00757616
0.8,5.4,0,0.00763388
0.8,5.5,0,0.00766066
0.8,5.6,0,0.00770806
0.8,5.7,0,0.00772423
0.8,5.8,0,0.00776116
0.8,5.9,0,0.00776669
0.8,6,0,0.00779305
0.8,6.1,0,0.00778794
0.8,6.2,0,0.00780365
0.8,6.3,0,0.00778797
0.8,6.4,0,0.00779303
0.8,6.5,0,0.00776691
0.8,6.6,0,0.00776136
0.8,6.7,0,0.00772494
0.8,6.8,0,0.00770887
0.8,6.9,0,0.00766003
0.8,7,0,0.00762747
0.8,7.1,0,0.00757646
0.8,7.2,0,0.00753049
0.8,7.3,0,0.0074866
0.8,7.4,0,0.00741897
0.8,7.5,0,0.00735627
0.8,7.6,0,0.0072946
0.8,7.7,0,0.00721562
0.8,7.8,0,0.00714082
0.8,7.9,0,0.00706209
0.8,8,0,0.00697233
0.8,8.1,0,0.00688686
0.8,8.2,0,0.00679158
0.8,8.3,0,0.00669165
0.8,8.4,0,0.00659609
0.8,8.5,0,0.00648663
0.8,8.6,0,0.00637628
0.8,8.7,0,0.00627123
0.8,8.8,0,0.00614919
0.8,8.9,0,0.00602905
0.8,9,0,0.00591393
0.8,9.1,0,0.00578186
0.8,9.2,0,0.00565282
0.8,9.3,0,0.00552643
0.8,9.4,0,0.00538749
0.8,9.5,0,0.00525042
0.8,9.6,0,0.00511414
0.8,9.7,0,0.00496891
0.8,9.8,0,0.0048255
0.8,9.9,0,0.00467983
0.8,10,0,0.00452888
0.8,10.1,0,0.00437984
0.8,10.2,0,0.00422618
0.8,10.3,0,0.00407004
0.8,10.4,0,0.00391597
0.8,10.5,0,0.00375588
0.8,10.6,0,0.00359495
0.8,10.7,0,0.00343642
0.8,10.8,0,0.00327102
0.8,10.9,0,0.00310599
0.8,11,0,0.0029428
0.8,11.1,0,0.00277389
0.8,11.2,0,0.00260544
0.8,11.3,0,0.00243812
0.8,11.4,0,0.00226668
0.8,11.5,0,0.00209553
0.8,11.6,0,0.00192491
0.8,11.7,0,0.00175142
0.8,11.8,0,0.00157839
0.8,11.9,0,0.00140512
0.8,12,0,0.00123005
0.8,12.1,0,0.00105557
0.8,12.2,0,0.00088056
0.8,12.3,0,0.000704362
0.8,12.4,0,0.000528882
0.8,12.5,0,0.000352919
0.8,12.6,0,0.000176098
0.8,12.7,0,0
0.9,0,0,0
0.9,0.1,0,0.000191323
0.9,0.2,0,0.000382647
0.9,0.3,0,0.000573598
0.9,0.4,0,0.000764178
0.9,0.5,0,0.000954758
0.9,0.6,0,0.00114407
0.9,0.7,0,0.00133338
0.9,0.8,0,0.00152177
0.9,0.9,0,0.00170925
0.9,1,0,0.00189672
0.9,1.1,0,0.00208177
0.9,1.2,0,0.00226681
0.9,1.3,0,0.00245033
0.9,1.4,0,0.00263233
0.9,1.5,0,0.00281433
0.9,1.6,0,0.00299266
0.9,1.7,0,0.00317099
0.9,1.8,0,0.00334716
0.9,1.9,0,0.00352118
0.9,2,0,0.0036952
0.9,2.1,0,0.00386424
0.9,2.2,0,0.00403329
0.9,2.3,0,0.00419951
0.9,2.4,0,0.00436291
0.9,2.5,0,0.0045263
0.9,2.6,0,0.00468337
0.9,2.7,0,0.00484042
0.9,2.8,0,0.00499396
0.9,2.9,0,0.00514398
0.9,3,0,0.005294
0.9,3.1,0,0.00543627
0.9,3.2,0,0.00557855
0.9,3.3,0,0.00571659
0.9,3.4,0,0.00585041
0.9,3.5,0,0.00598422
0.9,3.6,0,0.00610888
0.9,3.7,0,0.00623354
0.9,3.8,0,0.00635328
0.9,3.9,0,0.0064681
0.9,4,0,0.00658292
0.9,4.1,0,0.00668724
0.9,4.2,0,0.00679157
0.9,4.3,0,0.00689034
0.9,4.4,0,0.00698355
0.9,4.5,0,0.00707677
0.9,4.6,0,0.00715832
0.9,4.7,0,0.00723986
0.9,4.8,0,0.00731381
0.9,4.9,0,0.00738017
0.9,5,0,0.00744652
0.9,5.1,0,0.0075084
0.9,5.2,0,0.00757028
0.9,5.3,0,0.00761804
0.9,5.4,0,0.00766581
0.9,5.5,0,0.00770309
0.9,5.6,0,0.00774036
0.9,5.7,0,0.00776702
0.9,5.8,0,0.00779369
0.9,5.9,0,0.00780966
0.9,6,0,0.00782564
0.9,6.1,0,0.0078309
0.9,6.2,0,0.00783616
0.9,6.3,0,0.00783074
0.9,6.4,0,0.00782531
0.9,6.5,0,0.00780929
0.9,6.6,0,0.00779327
0.9,6.7,0,0.00776676
0.9,6.8,0,0.00774025
0.9,6.9,0,0.00769917
0.9,7,0,0.0076581
0.9,7.1,0,0.00761213
0.9,7.2,0,0.00756616
0.9,7.3,0,0.00751769
0.9,7.4,0,0.00745499
0.9,7.5,0,0.00739229
0.9,7.6,0,0.00732566
0.9,7.7,0,0.00724987
0.9,7.8,0,0.00717408
0.9,7.9,0,0.00709273
0.9,8,0,0.00700459
0.9,8.1,0,0.00691645
0.9,8.2,0,0.00682139
0.9,8.3,0,0.00672172
0.9,8.4,0,0.00662205
0.9,8.5,0,0.00651437
0.9,8.6,0,0.00640403
0.9,8.7,0,0.00629369
0.9,8.8,0,0.00617453
0.9,8.9,0,0.00605439
0.9,9,0,0.00593381
0.9,9.1,0,0.00580477
0.9,9.2,0,0.00567573
0.9,9.3,0,0.00554508
0.9,9.4,0,0.00540801
0.9,9.5,0,0.00527093
0.9,9.6,0,0.00513135
0.9,9.7,0,0.00498711
0.9,9.8,0,0.00484286
0.9,9.9,0,0.00469545
0.9,10,0,0.00454486
0.9,10.1,0,0.00439427
0.9,10.2,0,0.00424008
0.9,10.3,0,0.00408394
0.9,10.4,0,0.0039278
0.9,10.5,0,0.00376782
0.9,10.6,0,0.00360688
0.9,10.7,0,0.00344594
0.9,10.8,0,0.00328111
0.9,10.9,0,0.00311608
0.9,11,0,0.00295071
0.9,11.1,0,0.00278226
0.9,11.2,0,0.00261381
0.9,11.3,0,0.00244466
0.9,11.4,0,0.00227341
0.9,11.5,0,0.00210217
0.9,11.6,0,0.00193004
0.9,11.7,0,0.0017566
0.9,11.8,0,0.00158315
0.9,11.9,0,0.0014088
0.9,12,0,0.00123372
0.9,12.1,0,0.00105863
0.9,12.2,0,0.000882767
0.9,12.3,0,0.000706568
0.9,12.4,0,0.00053037
0.9,12.5,0,0.000353642
0.9,12.6,0,0.000176821
0.9,12.7,0,0
1,0,0,0
1,0.1,0,0.000192517
1,0.2,0,0.000383986
1,0.3,0,0.000576872
1,0.4,0,0.00076752
1,0.5,0,0.000960012
1,0.6,0,0.00114956
1,0.7,0,0.00133911
1,0.8,0,0.00152947
1,0.9,0,0.00171693
1,1,0,0.0019072
1,1.1,0,0.00209169
1,1.2,0,0.00227705
1,1.3,0,0.00246265
1,1.4,0,0.00264456
1,1.5,0,0.00283021
1,1.6,0,0.00300726
1,1.7,0,0.003186
1,1.8,0,0.00336438
1,1.9,0,0.00353824
1,2,0,0.00371672
1,2.1,0,0.00388384
1,2.2,0,0.00405337
1,2.3,0,0.00422194
1,2.4,0,0.00438512
1,2.5,0,0.00455369
1,2.6,0,0.00470825
1,2.7,0,0.00486586
1,2.8,0,0.00502183
1,2.9,0,0.00517157
1,3,0,0.00532737
1,3.1,0,0.00546656
1,3.2,0,0.00560944
1,3.3,0,0.00574987
1,3.4,0,0.00588335
1,3.5,0,0.00602349
1,3.6,0,0.00614438
1,3.7,0,0.0062697
1,3.8,0,0.00639163
1,3.9,0,0.00650604
1,4,0,0.00662772
1,4.1,0,0.00672745
1,4.2,0,0.00683249
1,4.3,0,0.00693312
1,4.4,0,0.00702583
1,4.5,0,0.00712643
1,4.6,0,0.00720242
1,4.7,0,0.00728473
1,4.8,0,0.00736163
1,4.9,0,0.00742755
1,5,0,0.00749989
1,5.1,0,0.00755576
1,5.2,0,0.00762486
1,5.3,0,0.00766456
1,5.4,0,0.0077213
1,5.5,0,0.00775021
1,5.6,0,0.00779651
1,5.7,0,0.00781456
1,5.8,0,0.00785023
1,5.9,0,0.0078574
1,6,0,0.00788231
1,6.1,0,0.00787863
1,6.2,0,0.00789268
1,6.3,0,0.00787824
1,6.4,0,0.00788142
1,6.5,0,0.00785636
1,6.6,0,0.0078487
1,6.7,0,0.00781319
1,6.8,0,0.00779477
1,6.9,0,0.00774663
1,7,0,0.00771135
1,7.1,0,0.00766047
1,7.2,0,0.0076145
1,7.3,0,0.00756743
1,7.4,0,0.00749953
1,7.5,0,0.00743683
1,7.6,0,0.00737149
1,7.7,0,0.00729219
1,7.8,0,0.00721692
1,7.9,0,0.00713442
1,8,0,0.00704441
1,8.1,0,0.00695756
1,8.2,0,0.00685882
1,8.3,0,0.00675882
1,8.4,0,0.00666103
1,8.5,0,0.0065486
1,8.6,0,0.00643826
1,8.7,0,0.00633023
1,8.8,0,0.00620579
1,8.9,0,0.00608566
1,9,0,0.0059671
1,9.1,0,0.00583304
1,9.2,0,0.005704
1,9.3,0,0.00557392
1,9.4,0,0.00543333
1,9.5,0,0.00529626
1,9.6,0,0.00515596
1,9.7,0,0.00500957
1,9.8,0,0.00486569
1,9.9,0,0.00471612
1,10,0,0.0045646
1,10.1,0,0.00441466
1,10.2,0,0.00425724
1,10.3,0,0.0041011
1,10.4,0,0.00394577
1,10.5,0,0.00378256
1,10.6,0,0.00362162
1,10.7,0,0.00346153
1,10.8,0,0.00329358
1,10.9,0,0.00312855
1,11,0,0.00296339
1,11.1,0,0.00279259
1,11.2,0,0.00262414
1,11.3,0,0.00245443
1,11.4,0,0.00228172
1,11.5,0,0.00211048
1,11.6,0,0.00193719
1,11.7,0,0.00176298
1,11.8,0,0.0015895
1,11.9,0,0.00141357
1,12,0,0.00123826
1,12.1,0,0.00106297
1,12.2,0,0.000885514
1,12.3,0,0.000709315
1,12.4,0,0.00053262
1,12.5,0,0.000354613
1,12.6,0,0.000177792
1,12.7,0,0
1.1,0,0,0
1.1,0.1,0,0.000193471
1.1,0.2,0,0.000386645
1.1,0.3,0,0.00057953
1.1,0.4,0,0.000771244
1.1,0.5,0,0.000965265
1.1,0.6,0,0.00115501
1.1,0.7,0,0.00134696
1.1,0.8,0,0.00153732
1.1,0.9,0,0.00172517
1.1,1,0,0.00191767
1.1,1.1,0,0.00210172
1.1,1.2,0,0.0022902
1.1,1.3,0,0.0024758
1.1,1.4,0,0.00265751
1.1,1.5,0,0.00284608
1.1,1.6,0,0.00302212
1.1,1.7,0,0.00320467
1.1,1.8,0,0.00338305
1.1,1.9,0,0.00355619
1.1,2,0,0.00373824
1.1,2.1,0,0.00390382
1.1,2.2,0,0.0040778
1.1,2.3,0,0.00424637
1.1,2.4,0,0.00440836
1.1,2.5,0,0.00458108
1.1,2.6,0,0.00473363
1.1,2.7,0,0.00489623
1.1,2.8,0,0.0050522
1.1,2.9,0,0.00520031
1.1,3,0,0.00536074
1.1,3.1,0,0.00549746
1.1,3.2,0,0.00564578
1.1,3.3,0,0.00578621
1.1,3.4,0,0.00591755
1.1,3.5,0,0.00606275
1.1,3.6,0,0.00618064
1.1,3.7,0,0.0063118
1.1,3.8,0,0.00643374
1.1,3.9,0,0.00654535
1.1,4,0,0.00667253
1.1,4.1,0,0.00676858
1.1,4.2,0,0.00687983
1.1,4.3,0,0.00698046
1.1,4.4,0,0.00706958
1.1,4.5,0,0.00717608
1.1,4.6,0,0.00724764
1.1,4.7,0,0.00733643
1.1,4.8,0,0.00741333
1.1,4.9,0,0.00747613