x,y,z,U_0,U_1,U_2
0,0,0,0.3,-0.000675119,0
0,0.1,0,0.3,-0.000405071,0
0,0.2,0,0.3,-0.000135024,0
0,0.3,0,0.3,0,0
0,0.4,0,0.3,0,0
0,0.5,0,0.3,-3.10635e-19,0
0,0.6,0,0.3,0,0
0,0.7,0,0.3,0,0
0,0.8,0,0.3,0,0
0,0.9,0,0.3,0,0
0,1,0,0.3,0,0
0,1.1,0,0.3,0,0
0,1.2,0,0.3,0,0
0,1.3,0,0.3,0,0
0,1.4,0,0.3,0,0
0,1.5,0,0.3,0,0
0,1.6,0,0.3,0,0
0,1.7,0,0.3,0,0
0,1.8,0,0.3,0,0
0,1.9,0,0.3,0,0
0,2,0,0.3,0,0
0,2.1,0,0.3,0,0
0,2.2,0,0.3,0,0
0,2.3,0,0.3,0,0
0,2.4,0,0.3,0,0
0,2.5,0,0.3,0,0
0,2.6,0,0.3,0,0
0,2.7,0,0.3,0,0
0,2.8,0,0.3,0,0
0,2.9,0,0.3,0,0
0,3,0,0.3,0,0
0,3.1,0,0.3,0,0
0,3.2,0,0.3,0,0
0,3.3,0,0.3,0,0
0,3.4,0,0.3,0,0
0,3.5,0,0.3,0,0
0,3.6,0,0.3,0,0
0,3.7,0,0.3,0,0
0,3.8,0,0.3,0,0
0,3.9,0,0.3,0,0
0,4,0,0.3,0,0
0,4.1,0,0.3,0,0
0,4.2,0,0.3,0,0
0,4.3,0,0.3,0,0
0,4.4,0,0.3,0,0
0,4.5,0,0.3,0,0
0,4.6,0,0.3,0,0
0,4.7,0,0.3,0,0
0,4.8,0,0.3,0,0
0,4.9,0,0.3,0,0
0,5,0,0.3,-1.03149e-19,0
0,5.1,0,0.3,0,0
0,5.2,0,0.3,0,0
0,5.3,0,0.3,0,0
0,5.4,0,0.3,-6.90452e-20,0
0,5.5,0,0.3,0,0
0,5.6,0,0.3,0,0
0,5.7,0,0.3,0,0
0,5.8,0,0.3,-3.49333e-20,0
0,5.9,0,0.3,0,0
0,6,0,0.3,0,0
0,6.1,0,0.3,0,0
0,6.2,0,0.3,-4.934e-22,0
0,6.3,0,0.3,0,0
0,6.4,0,0.3,1.66288e-20,0
0,6.5,0,0.3,0,0
0,6.6,0,0.3,0,0
0,6.7,0,0.3,0,0
0,6.8,0,0.3,0,0
0,6.9,0,0.3,0,0
0,7,0,0.3,0,0
0,7.1,0,0.3,0,0
0,7.2,0,0.3,0,0
0,7.3,0,0.3,0,0
0,7.4,0,0.3,0,0
0,7.5,0,0.3,0,0
0,7.6,0,0.3,0,0
0,7.7,0,0.3,0,0
0,7.8,0,0.3,0,0
0,7.9,0,0.3,0,0
0,8,0,0.3,0,0
0,8.1,0,0.3,0,0
0,8.2,0,0.3,0,0
0,8.3,0,0.3,0,0
0,8.4,0,0.3,0,0
0,8.5,0,0.3,0,0
0,8.6,0,0.3,0,0
0,8.7,0,0.3,0,0
0,8.8,0,0.3,0,0
0,8.9,0,0.3,0,0
0,9,0,0.3,0,0
0,9.1,0,0.3,0,0
0,9.2,0,0.3,0,0
0,9.3,0,0.3,0,0
0,9.4,0,0.3,0,0
0,9.5,0,0.3,0,0
0,9.6,0,0.3,0,0
0,9.7,0,0.3,0,0
0,9.8,0,0.3,0,0
0,9.9,0,0.3,0,0
0,10,0,0.3,0,0
0,10.1,0,0.3,0,0
0,10.2,0,0.3,0,0
0,10.3,0,0.3,0,0
0,10.4,0,0.3,0,0
0,10.5,0,0.3,0,0
0,10.6,0,0.3,0,0
0,10.7,0,0.3,0,0
0,10.8,0,0.3,0,0
0,10.9,0,0.3,0,0
0,11,0,0.3,0,0
0,11.1,0,0.3,0,0
0,11.2,0,0.3,0,0
0,11.3,0,0.3,0,0
0,11.4,0,0.3,0,0
0,11.5,0,0.3,0,0
0,11.6,0,0.3,0,0
0,11.7,0,0.3,0,0
0,11.8,0,0.3,0,0
0,11.9,0,0.3,0,0
0,12,0,0.3,0,0
0,12.1,0,0.3,0,0
0,12.2,0,0.3,0,0
0,12.3,0,0.3,0,0
0,12.4,0,0.3,0,0
0,12.5,0,0.3,0.00018888,0
0,12.6,0,0.3,0.000411092,0
0,12.7,0,0.3,0.000633303,0
0.1,0,0,0.299999,-0.00115089,0
0.1,0.1,0,0.3,-0.000874307,0
0.1,0.2,0,0.3,-0.000619814,0
0.1,0.3,0,0.299999,-0.000617642,0
0.1,0.4,0,0.299999,-0.000616849,0
0.1,0.5,0,0.299996,-0.000621766,0
0.1,0.6,0,0.299999,-0.000612098,0
0.1,0.7,0,0.299998,-0.000612564,0
0.1,0.8,0,0.299998,-0.000606224,0
0.1,0.9,0,0.299998,-0.000605053,0
0.1,1,0,0.299992,-0.00060975,0
0.1,1.1,0,0.299998,-0.000595809,0
0.1,1.2,0,0.299997,-0.0005963,0
0.1,1.3,0,0.299997,-0.000586076,0
0.1,1.4,0,0.299998,-0.000584449,0
0.1,1.5,0,0.299988,-0.000589608,0
0.1,1.6,0,0.299998,-0.000571058,0
0.1,1.7,0,0.299997,-0.000571588,0
0.1,1.8,0,0.299997,-0.000557776,0
0.1,1.9,0,0.299998,-0.000555711,0
0.1,2,0,0.299984,-0.000560922,0
0.1,2.1,0,0.3,-0.000538471,0
0.1,2.2,0,0.299998,-0.000538946,0
0.1,2.3,0,0.3,-0.000521754,0
0.1,2.4,0,0.300002,-0.000519369,0
0.1,2.5,0,0.29998,-0.000523208,0
0.1,2.6,0,0.300005,-0.00049836,0
0.1,2.7,0,0.300002,-0.00049861,0
0.1,2.8,0,0.300006,-0.000477898,0
0.1,2.9,0,0.300009,-0.000475347,0
0.1,3,0,0.299975,-0.000476188,0
0.1,3.1,0,0.300014,-0.000450164,0
0.1,3.2,0,0.30001,-0.000450071,0
0.1,3.3,0,0.300014,-0.000425322,0
0.1,3.4,0,0.300019,-0.000422666,0
0.1,3.5,0,0.299969,-0.000420056,0
0.1,3.6,0,0.300024,-0.00039277,0
0.1,3.7,0,0.300018,-0.000392369,0
0.1,3.8,0,0.300021,-0.000363377,0
0.1,3.9,0,0.300027,-0.000360556,0
0.1,4,0,0.299964,-0.000355443,0
0.1,4.1,0,0.300028,-0.000326278,0
0.1,4.2,0,0.300021,-0.000325671,0
0.1,4.3,0,0.300021,-0.000293317,0
0.1,4.4,0,0.300028,-0.000290329,0
0.1,4.5,0,0.299961,-0.000283169,0
0.1,4.6,0,0.300025,-0.000253191,0
0.1,4.7,0,0.300018,-0.000252323,0
0.1,4.8,0,0.300015,-0.000218172,0
0.1,4.9,0,0.300021,-0.000215245,0
0.1,5,0,0.29996,-0.000206464,0
0.1,5.1,0,0.300018,-0.00018017,0
0.1,5.2,0,0.29996,-0.000171683,0
0.1,5.3,0,0.300015,-0.000148253,0
0.1,5.4,0,0.29996,-0.000138201,0
0.1,5.5,0,0.300013,-0.000116129,0
0.1,5.6,0,0.29996,-0.000104227,0
0.1,5.7,0,0.300011,-8.39271e-05,0
0.1,5.8,0,0.299959,-6.99224e-05,0
0.1,5.9,0,0.30001,-5.16516e-05,0
0.1,6,0,0.299959,-3.54503e-05,0
0.1,6.1,0,0.300011,-1.932e-05,0
0.1,6.2,0,0.299959,-9.87589e-07,0
0.1,6.3,0,0.300012,1.30277e-05,0
0.1,6.4,0,0.299959,3.32841e-05,0
0.1,6.5,0,0.300013,4.53658e-05,0
0.1,6.6,0,0.29996,6.72061e-05,0
0.1,6.7,0,0.300016,7.77058e-05,0
0.1,6.8,0,0.29996,0.000100628,0
0.1,6.9,0,0.300019,0.000109863,0
0.1,7,0,0.29996,0.000136656,0
0.1,7.1,0,0.300022,0.000147657,0
0.1,7.2,0,0.300022,0.000147657,0
0.1,7.3,0,0.299976,0.000181548,0
0.1,7.4,0,0.300025,0.000190496,0
0.1,7.5,0,0.300025,0.000190496,0
0.1,7.6,0,0.299992,0.000227065,0
0.1,7.7,0,0.300027,0.000232189,0
0.1,7.8,0,0.300018,0.000236377,0
0.1,7.9,0,0.300008,0.000269743,0
0.1,8,0,0.300026,0.000272076,0
0.1,8.1,0,0.300004,0.000283548,0
0.1,8.2,0,0.300019,0.00030921,0
0.1,8.3,0,0.300022,0.000309543,0
0.1,8.4,0,0.29999,0.00032791,0
0.1,8.5,0,0.300017,0.000344252,0
0.1,8.6,0,0.300017,0.000344252,0
0.1,8.7,0,0.299979,0.000369213,0
0.1,8.8,0,0.300012,0.000376148,0
0.1,8.9,0,0.300012,0.000376148,0
0.1,9,0,0.299977,0.000405128,0
0.1,9.1,0,0.300007,0.00040538,0
0.1,9.2,0,0.300007,0.00040538,0
0.1,9.3,0,0.299985,0.00043305,0
0.1,9.4,0,0.300003,0.000432166,0
0.1,9.5,0,0.300003,0.000432166,0
0.1,9.6,0,0.299991,0.000457689,0
0.1,9.7,0,0.3,0.000456676,0
0.1,9.8,0,0.299997,0.000461926,0
0.1,9.9,0,0.299995,0.000479544,0
0.1,10,0,0.299999,0.000478991,0
0.1,10.1,0,0.299992,0.000489102,0
0.1,10.2,0,0.299998,0.000499098,0
0.1,10.3,0,0.299998,0.000499098,0
0.1,10.4,0,0.29999,0.000512721,0
0.1,10.5,0,0.299998,0.00051696,0
0.1,10.6,0,0.299998,0.00051696,0
0.1,10.7,0,0.299989,0.000532664,0
0.1,10.8,0,0.299998,0.000532524,0
0.1,10.9,0,0.299998,0.000532524,0
0.1,11,0,0.299991,0.000546585,0
0.1,11.1,0,0.299998,0.000545773,0
0.1,11.2,0,0.299998,0.000545773,0
0.1,11.3,0,0.299994,0.000557079,0
0.1,11.4,0,0.299999,0.000556716,0
0.1,11.5,0,0.299998,0.000557197,0
0.1,11.6,0,0.299997,0.000565568,0
0.1,11.7,0,0.299999,0.0005654,0
0.1,11.8,0,0.299998,0.000567438,0
0.1,11.9,0,0.299999,0.00057195,0
0.1,12,0,0.299999,0.000571876,0
0.1,12.1,0,0.299998,0.000574637,0
0.1,12.2,0,0.3,0.00057616,0
0.1,12.3,0,0.3,0.00057616,0
0.1,12.4,0,0.299999,0.000579036,0
0.1,12.5,0,0.3,0.000626448,0
0.1,12.6,0,0.3,0.00084866,0
0.1,12.7,0,0.299999,0.00107344,0
0.2,0,0,0.299998,-0.00162666,0
0.2,0.1,0,0.3,-0.00134485,0
0.2,0.2,0,0.299998,-0.0012446,0
0.2,0.3,0,0.299997,-0.00124243,0
0.2,0.4,0,0.299998,-0.00123468,0
0.2,0.5,0,0.299992,-0.00124353,0
0.2,0.6,0,0.299997,-0.00122613,0
0.2,0.7,0,0.299992,-0.00122932,0
0.2,0.8,0,0.299992,-0.00122298,0
0.2,0.9,0,0.299995,-0.00121105,0
0.2,1,0,0.299984,-0.0012195,0
0.2,1.1,0,0.299994,-0.00119441,0
0.2,1.2,0,0.299987,-0.00119702,0
0.2,1.3,0,0.299987,-0.00118679,0
0.2,1.4,0,0.299994,-0.00116993,0
0.2,1.5,0,0.299976,-0.00117922,0
0.2,1.6,0,0.299994,-0.00114583,0
0.2,1.7,0,0.299983,-0.00114795,0
0.2,1.8,0,0.299983,-0.00113414,0
0.2,1.9,0,0.299994,-0.00111246,0
0.2,2,0,0.299968,-0.00112184,0
0.2,2.1,0,0.299996,-0.00108143,0
0.2,2.2,0,0.29998,-0.00108216,0
0.2,2.3,0,0.299982,-0.00106497,0
0.2,2.4,0,0.299999,-0.00103951,0
0.2,2.5,0,0.299959,-0.00104642,0
0.2,2.6,0,0.300005,-0.00100169,0
0.2,2.7,0,0.299979,-0.000999472,0
0.2,2.8,0,0.299983,-0.00097876,0
0.2,2.9,0,0.300011,-0.000950862,0
0.2,3,0,0.299949,-0.000952377,0
0.2,3.1,0,0.30002,-0.000905534,0
0.2,3.2,0,0.299982,-0.0008993,0
0.2,3.3,0,0.299986,-0.000874551,0
0.2,3.4,0,0.300028,-0.00084481,0
0.2,3.5,0,0.299938,-0.000840112,0
0.2,3.6,0,0.300036,-0.000790998,0
0.2,3.7,0,0.299985,-0.00078113,0
0.2,3.8,0,0.299987,-0.000752138,0
0.2,3.9,0,0.300041,-0.00072009,0
0.2,4,0,0.299929,-0.000710886,0
0.2,4.1,0,0.300043,-0.000658389,0
0.2,4.2,0,0.299984,-0.000645877,0
0.2,4.3,0,0.299984,-0.000613523,0
0.2,4.4,0,0.300042,-0.000579226,0
0.2,4.5,0,0.299923,-0.000566338,0
0.2,4.6,0,0.300037,-0.000512377,0
0.2,4.7,0,0.299979,-0.000496836,0
0.2,4.8,0,0.299976,-0.000462685,0
0.2,4.9,0,0.30003,-0.000428734,0
0.2,5,0,0.29992,-0.000412928,0
0.2,5.1,0,0.300036,-0.00036034,0
0.2,5.2,0,0.29992,-0.000343367,0
0.2,5.3,0,0.30003,-0.000296506,0
0.2,5.4,0,0.299919,-0.000276402,0
0.2,5.5,0,0.300026,-0.000232258,0
0.2,5.6,0,0.299919,-0.000208455,0
0.2,5.7,0,0.300022,-0.000167854,0
0.2,5.8,0,0.299919,-0.000139845,0
0.2,5.9,0,0.30002,-0.000103303,0
0.2,6,0,0.299919,-7.09005e-05,0
0.2,6.1,0,0.300021,-3.86399e-05,0
0.2,6.2,0,0.299919,-1.97518e-06,0
0.2,6.3,0,0.300023,2.60554e-05,0
0.2,6.4,0,0.299919,6.65683e-05,0
0.2,6.5,0,0.300027,9.07316e-05,0
0.2,6.6,0,0.299919,0.000134412,0
0.2,6.7,0,0.300032,0.000155412,0
0.2,6.8,0,0.299919,0.000201255,0
0.2,6.9,0,0.300037,0.000219725,0
0.2,7,0,0.29992,0.000273311,0
0.2,7.1,0,0.300018,0.000290682,0
0.2,7.2,0,0.300003,0.000315784,0
0.2,7.3,0,0.299936,0.000360318,0
0.2,7.4,0,0.300039,0.000378833,0
0.2,7.5,0,0.299994,0.000409586,0
0.2,7.6,0,0.299954,0.000449519,0
0.2,7.7,0,0.300053,0.000464378,0
0.2,7.8,0,0.299982,0.000500393,0
0.2,7.9,0,0.299971,0.000533759,0
0.2,8,0,0.300052,0.000544153,0
0.2,8.1,0,0.29997,0.000586762,0
0.2,8.2,0,0.299985,0.000612424,0
0.2,8.3,0,0.300043,0.000619885,0
0.2,8.4,0,0.299958,0.000667798,0
0.2,8.5,0,0.299995,0.000684945,0
0.2,8.6,0,0.300023,0.000696305,0
0.2,8.7,0,0.29995,0.000743106,0
0.2,8.8,0,0.300001,0.00075099,0
0.2,8.9,0,0.300005,0.000766775,0
0.2,9,0,0.299951,0.000810235,0
0.2,9.1,0,0.300003,0.000810666,0
0.2,9.2,0,0.299992,0.000831449,0
0.2,9.3,0,0.299962,0.000866507,0
0.2,9.4,0,0.300003,0.000864468,0
0.2,9.5,0,0.299983,0.000890401,0
0.2,9.6,0,0.299971,0.000916629,0
0.2,9.7,0,0.300001,0.000913351,0
0.2,9.8,0,0.299978,0.000943541,0
0.2,9.9,0,0.299977,0.000961159,0
0.2,10,0,0.299997,0.000957982,0
0.2,10.1,0,0.299976,0.000990694,0
0.2,10.2,0,0.299982,0.00100062,0
0.2,10.3,0,0.299994,0.00100029,0
0.2,10.4,0,0.299976,0.00103173,0
0.2,10.5,0,0.299987,0.00103543,0
0.2,10.6,0,0.299992,0.00103975,0
0.2,10.7,0,0.299977,0.00106668,0
0.2,10.8,0,0.299991,0.00106579,0
0.2,10.9,0,0.299991,0.00107328,0
0.2,11,0,0.299981,0.00109332,0
0.2,11.1,0,0.299994,0.0010918,0
0.2,11.2,0,0.299991,0.00110096,0
0.2,11.3,0,0.299986,0.0011144,0
0.2,11.4,0,0.299997,0.00111345,0
0.2,11.5,0,0.299992,0.00112305,0
0.2,11.6,0,0.29999,0.00113142,0
0.2,11.7,0,0.299997,0.0011308,0
0.2,11.8,0,0.299993,0.00113988,0
0.2,11.9,0,0.299994,0.00114439,0
0.2,12,0,0.299998,0.00114375,0
0.2,12.1,0,0.299995,0.00115176,0
0.2,12.2,0,0.299997,0.00115318,0
0.2,12.3,0,0.299999,0.00115301,0
0.2,12.4,0,0.299997,0.00115897,0
0.2,12.5,0,0.299999,0.00115767,0
0.2,12.6,0,0.3,0.00128731,0
0.2,12.7,0,0.299998,0.00151357,0
0.3,0,0,0.299997,-0.00210243,0
0.3,0.1,0,0.299998,-0.00186728,0
0.3,0.2,0,0.299996,-0.00186938,0
0.3,0.3,0,0.299995,-0.00186721,0
0.3,0.4,0,0.299993,-0.00185883,0
0.3,0.5,0,0.299988,-0.0018653,0
0.3,0.6,0,0.299991,-0.00184929,0
0.3,0.7,0,0.299986,-0.00184608,0
0.3,0.8,0,0.299986,-0.00183974,0
0.3,0.9,0,0.299986,-0.00182431,0
0.3,1,0,0.299976,-0.00182925,0
0.3,1.1,0,0.299984,-0.00180563,0
0.3,1.2,0,0.299977,-0.00179773,0
0.3,1.3,0,0.299977,-0.00178751,0
0.3,1.4,0,0.299979,-0.00176442,0
0.3,1.5,0,0.299964,-0.00176882,0
0.3,1.6,0,0.299978,-0.00173703,0
0.3,1.7,0,0.299969,-0.00172432,0
0.3,1.8,0,0.299969,-0.00171051,0
0.3,1.9,0,0.299974,-0.00167958,0
0.3,2,0,0.299952,-0.00168277,0
0.3,2.1,0,0.299975,-0.00164378,0
0.3,2.2,0,0.299962,-0.00162538,0
0.3,2.3,0,0.299964,-0.00160819,0
0.3,2.4,0,0.299973,-0.00156987,0
0.3,2.5,0,0.299939,-0.00156962,0
0.3,2.6,0,0.299976,-0.00152565,0
0.3,2.7,0,0.299957,-0.00150033,0
0.3,2.8,0,0.29996,-0.00147962,0
0.3,2.9,0,0.299976,-0.0014347,0
0.3,3,0,0.299924,-0.00142856,0
0.3,3.1,0,0.299982,-0.00138144,0
0.3,3.2,0,0.299953,-0.00134853,0
0.3,3.3,0,0.299958,-0.00132378,0
0.3,3.4,0,0.299983,-0.00127283,0
0.3,3.5,0,0.299908,-0.00126017,0
0.3,3.6,0,0.299988,-0.00120985,0
0.3,3.7,0,0.299951,-0.00116989,0
0.3,3.8,0,0.299954,-0.0011409,0
0.3,3.9,0,0.299987,-0.00108399,0
0.3,4,0,0.299893,-0.00106633,0
0.3,4.1,0,0.299988,-0.00101201,0
0.3,4.2,0,0.299947,-0.000966083,0
0.3,4.3,0,0.299947,-0.000933729,0
0.3,4.4,0,0.299984,-0.000871358,0
0.3,4.5,0,0.299884,-0.000849506,0
0.3,4.6,0,0.299979,-0.000792942,0
0.3,4.7,0,0.29994,-0.000741349,0
0.3,4.8,0,0.299936,-0.000707198,0
0.3,4.9,0,0.299972,-0.000643979,0
0.3,5,0,0.29988,-0.000619392,0
0.3,5.1,0,0.299967,-0.000553866,0
0.3,5.2,0,0.299879,-0.00051505,0
0.3,5.3,0,0.299962,-0.000454793,0
0.3,5.4,0,0.299879,-0.000414603,0
0.3,5.5,0,0.299959,-0.000356014,0
0.3,5.6,0,0.299879,-0.000312682,0
0.3,5.7,0,0.299956,-0.000256503,0
0.3,5.8,0,0.299878,-0.000209767,0
0.3,5.9,0,0.299955,-0.000156507,0
0.3,6,0,0.299878,-0.000106351,0
0.3,6.1,0,0.299955,-5.63083e-05,0
0.3,6.2,0,0.299878,-2.96277e-06,0
0.3,6.3,0,0.299957,4.37639e-05,0
0.3,6.4,0,0.299878,9.98524e-05,0
0.3,6.5,0,0.299959,0.000143416,0
0.3,6.6,0,0.299879,0.000201618,0
0.3,6.7,0,0.299964,0.000242434,0
0.3,6.8,0,0.299879,0.000301883,0
0.3,6.9,0,0.299968,0.000342756,0
0.3,7,0,0.29988,0.000409967,0
0.3,7.1,0,0.299973,0.000429794,0
0.3,7.2,0,0.299964,0.000494554,0
0.3,7.3,0,0.299897,0.000539088,0
0.3,7.4,0,0.299979,0.000567695,0
0.3,7.5,0,0.299955,0.00063204,0
0.3,7.6,0,0.299916,0.000671973,0
0.3,7.7,0,0.299984,0.000704933,0
0.3,7.8,0,0.299945,0.000764409,0
0.3,7.9,0,0.299935,0.000797775,0
0.3,8,0,0.299986,0.000835085,0
0.3,8.1,0,0.299935,0.000889976,0
0.3,8.2,0,0.299951,0.000915638,0
0.3,8.3,0,0.299985,0.000956775,0
0.3,8.4,0,0.299927,0.00100769,0
0.3,8.5,0,0.299963,0.00102483,0
0.3,8.6,0,0.299983,0.00106916,0
0.3,8.7,0,0.299922,0.001117,0
0.3,8.8,0,0.299972,0.00112488,0
0.3,8.9,0,0.29998,0.00117188,0
0.3,9,0,0.299926,0.00121534,0
0.3,9.1,0,0.299973,0.00122021,0
0.3,9.2,0,0.299969,0.00126491,0
0.3,9.3,0,0.29994,0.00129997,0
0.3,9.4,0,0.299971,0.00130849,0
0.3,9.5,0,0.299963,0.00134934,0
0.3,9.6,0,0.29995,0.00137557,0
0.3,9.7,0,0.299972,0.00138774,0
0.3,9.8,0,0.29996,0.00142516,0
0.3,9.9,0,0.299959,0.00144277,0
0.3,10,0,0.299973,0.00145826,0
0.3,10.1,0,0.29996,0.00149229,0
0.3,10.2,0,0.299966,0.00150222,0
0.3,10.3,0,0.299975,0.00152029,0
0.3,10.4,0,0.299962,0.00155074,0
0.3,10.5,0,0.299973,0.00155444,0
0.3,10.6,0,0.299978,0.00157409,0
0.3,10.7,0,0.299965,0.00160069,0
0.3,10.8,0,0.299979,0.0015998,0
0.3,10.9,0,0.299981,0.00162002,0
0.3,11,0,0.299971,0.00164006,0
0.3,11.1,0,0.299983,0.00164127,0
0.3,11.2,0,0.299983,0.00165828,0
0.3,11.3,0,0.299978,0.00167171,0
0.3,11.4,0,0.299986,0.00167509,0
0.3,11.5,0,0.299985,0.00168891,0
0.3,11.6,0,0.299984,0.00169728,0
0.3,11.7,0,0.299989,0.00170156,0
0.3,11.8,0,0.299988,0.00171232,0
0.3,11.9,0,0.299989,0.00171683,0
0.3,12,0,0.299993,0.00172091,0
0.3,12.1,0,0.299991,0.00172888,0
0.3,12.2,0,0.299993,0.0017303,0
0.3,12.3,0,0.299996,0.00173325,0
0.3,12.4,0,0.299995,0.00173889,0
0.3,12.5,0,0.299997,0.0017376,0
0.3,12.6,0,0.299999,0.00173868,0
0.3,12.7,0,0.299997,0.0019537,0
0.4,0,0,0.299996,-0.0025782,0
0.4,0.1,0,0.299995,-0.0024986,0
0.4,0.2,0,0.299993,-0.00249678,0
0.4,0.3,0,0.299991,-0.00249396,0
0.4,0.4,0,0.299988,-0.00248853,0
0.4,0.5,0,0.299984,-0.00248706,0
0.4,0.6,0,0.299983,-0.00247572,0
0.4,0.7,0,0.299979,-0.00246671,0
0.4,0.8,0,0.299977,-0.00245838,0
0.4,0.9,0,0.299974,-0.00244576,0
0.4,1,0,0.299968,-0.002439,0
0.4,1.1,0,0.299969,-0.00242029,0
0.4,1.2,0,0.299965,-0.00240402,0
0.4,1.3,0,0.299963,-0.00239029,0
0.4,1.4,0,0.29996,-0.00237029,0
0.4,1.5,0,0.299952,-0.00235843,0
0.4,1.6,0,0.299955,-0.00233194,0
0.4,1.7,0,0.299951,-0.0023081,0
0.4,1.8,0,0.29995,-0.00228895,0
0.4,1.9,0,0.299946,-0.00226116,0
0.4,2,0,0.299936,-0.00224369,0
0.4,2.1,0,0.299941,-0.00220945,0
0.4,2.2,0,0.299937,-0.00217758,0
0.4,2.3,0,0.299937,-0.00215295,0
0.4,2.4,0,0.299933,-0.00211693,0
0.4,2.5,0,0.299919,-0.00209283,0
0.4,2.6,0,0.299928,-0.00205136,0
0.4,2.7,0,0.299924,-0.00201114,0
0.4,2.8,0,0.299924,-0.00198082,0
0.4,2.9,0,0.299919,-0.00193641,0
0.4,3,0,0.299899,-0.00190475,0
0.4,3.1,0,0.299915,-0.00185669,0
0.4,3.2,0,0.29991,-0.00180817,0
0.4,3.3,0,0.29991,-0.00177196,0
0.4,3.4,0,0.299905,-0.00171945,0
0.4,3.5,0,0.299877,-0.00168022,0
0.4,3.6,0,0.299901,-0.0016259,0
0.4,3.7,0,0.299896,-0.00156957,0
0.4,3.8,0,0.299896,-0.00152761,0
0.4,3.9,0,0.299892,-0.00146764,0
0.4,4,0,0.299858,-0.00142177,0
0.4,4.1,0,0.299887,-0.00136138,0
0.4,4.2,0,0.299884,-0.00129796,0
0.4,4.3,0,0.299883,-0.00125107,0
0.4,4.4,0,0.29988,-0.0011844,0
0.4,4.5,0,0.299846,-0.00113268,0
0.4,4.6,0,0.299876,-0.00106743,0
0.4,4.7,0,0.299875,-0.000997853,0
0.4,4.8,0,0.299873,-0.000948198,0
0.4,4.9,0,0.299872,-0.00087971,0
0.4,5,0,0.29984,-0.000825856,0
0.4,5.1,0,0.299869,-0.000751843,0
0.4,5.2,0,0.299839,-0.000686734,0
0.4,5.3,0,0.299867,-0.000616424,0
0.4,5.4,0,0.299839,-0.000552804,0
0.4,5.5,0,0.299865,-0.000482314,0
0.4,5.6,0,0.299838,-0.000416909,0
0.4,5.7,0,0.299864,-0.000346726,0
0.4,5.8,0,0.299838,-0.00027969,0
0.4,5.9,0,0.299863,-0.000210228,0
0.4,6,0,0.299838,-0.000141801,0
0.4,6.1,0,0.299864,-7.34262e-05,0
0.4,6.2,0,0.299838,-3.95036e-06,0
0.4,6.3,0,0.299864,6.30328e-05,0
0.4,6.4,0,0.299838,0.000133137,0
0.4,6.5,0,0.299865,0.000198541,0
0.4,6.6,0,0.299838,0.000268824,0
0.4,6.7,0,0.299867,0.000332562,0
0.4,6.8,0,0.299839,0.000402511,0
0.4,6.9,0,0.299869,0.000470177,0
0.4,7,0,0.29984,0.000546622,0
0.4,7.1,0,0.299871,0.000597563,0
0.4,7.2,0,0.299872,0.00066406,0
0.4,7.3,0,0.299858,0.000717859,0
0.4,7.4,0,0.299876,0.000778423,0
0.4,7.5,0,0.299878,0.000847397,0
0.4,7.6,0,0.299878,0.000894427,0
0.4,7.7,0,0.299882,0.000959214,0
0.4,7.8,0,0.299885,0.00102484,0
0.4,7.9,0,0.299886,0.00106835,0
0.4,8,0,0.299889,0.00113024,0
0.4,8.1,0,0.299893,0.00119213,0
0.4,8.2,0,0.299893,0.00123243,0
0.4,8.3,0,0.299897,0.00129033,0
0.4,8.4,0,0.299895,0.00134757,0
0.4,8.5,0,0.299901,0.001385,0
0.4,8.6,0,0.299905,0.00143869,0
0.4,8.7,0,0.299893,0.00149089,0
0.4,8.8,0,0.299909,0.00152545,0
0.4,8.9,0,0.299913,0.00157473,0
0.4,9,0,0.2999,0.00162045,0
0.4,9.1,0,0.299917,0.00165339,0
0.4,9.2,0,0.299921,0.00169816,0
0.4,9.3,0,0.299917,0.00173342,0
0.4,9.4,0,0.299925,0.00176873,0
0.4,9.5,0,0.299929,0.00180896,0
0.4,9.6,0,0.299929,0.00183582,0
0.4,9.7,0,0.299933,0.00187162,0
0.4,9.8,0,0.299936,0.00190743,0
0.4,9.9,0,0.299937,0.00193093,0
0.4,10,0,0.29994,0.00196247,0
0.4,10.1,0,0.299943,0.00199402,0
0.4,10.2,0,0.299944,0.00201429,0
0.4,10.3,0,0.299947,0.00204179,0
0.4,10.4,0,0.299948,0.00206975,0
0.4,10.5,0,0.299952,0.00208646,0
0.4,10.6,0,0.299955,0.00211015,0
0.4,10.7,0,0.299953,0.0021347,0
0.4,10.8,0,0.299959,0.00214803,0
0.4,10.9,0,0.299962,0.00216812,0
0.4,11,0,0.299961,0.0021868,0
0.4,11.1,0,0.299966,0.00219955,0
0.4,11.2,0,0.299969,0.00221626,0
0.4,11.3,0,0.29997,0.00222903,0
0.4,11.4,0,0.299973,0.00224155,0
0.4,11.5,0,0.299976,0.00225503,0
0.4,11.6,0,0.299977,0.00226406,0
0.4,11.7,0,0.299979,0.00227446,0
0.4,11.8,0,0.299982,0.00228485,0
0.4,11.9,0,0.299983,0.0022912,0
0.4,12,0,0.299985,0.00229859,0
0.4,12.1,0,0.299988,0.002306,0
0.4,12.2,0,0.299989,0.0023097,0
0.4,12.3,0,0.299992,0.00231414,0
0.4,12.4,0,0.299994,0.00231882,0
0.4,12.5,0,0.299995,0.00231969,0
0.4,12.6,0,0.299996,0.00232118,0
0.4,12.7,0,0.299996,0.00239384,0
0.5,0,0,0.299993,-0.00313173,0
0.5,0.1,0,0.299993,-0.00313093,0
0.5,0.2,0,0.299991,-0.0031291,0
0.5,0.3,0,0.299986,-0.00312465,0
0.5,0.4,0,0.299983,-0.00311922,0
0.5,0.5,0,0.299976,-0.00311125,0
0.5,0.6,0,0.299974,-0.00310315,0
0.5,0.7,0,0.29997,-0.00309413,0
0.5,0.8,0,0.299965,-0.00308084,0
0.5,0.9,0,0.299962,-0.00306822,0
0.5,1,0,0.299953,-0.00305065,0
0.5,1.1,0,0.299953,-0.00303597,0
0.5,1.2,0,0.299949,-0.0030197,0
0.5,1.3,0,0.299944,-0.00299721,0
0.5,1.4,0,0.29994,-0.00297722,0
0.5,1.5,0,0.29993,-0.0029493,0
0.5,1.6,0,0.299931,-0.00292794,0
0.5,1.7,0,0.299928,-0.0029041,0
0.5,1.8,0,0.299922,-0.00287165,0
0.5,1.9,0,0.299918,-0.00284385,0
0.5,2,0,0.299906,-0.00280528,0
0.5,2.1,0,0.299908,-0.00277626,0
0.5,2.2,0,0.299904,-0.0027444,0
0.5,2.3,0,0.299897,-0.00270117,0
0.5,2.4,0,0.299893,-0.00266515,0
0.5,2.5,0,0.299881,-0.0026164,0
0.5,2.6,0,0.299881,-0.00257824,0
0.5,2.7,0,0.299876,-0.00253802,0
0.5,2.8,0,0.299867,-0.00248368,0
0.5,2.9,0,0.299862,-0.00243927,0
0.5,3,0,0.299853,-0.00238138,0
0.5,3.1,0,0.299848,-0.00233307,0
0.5,3.2,0,0.299843,-0.00228455,0
0.5,3.3,0,0.299832,-0.00221967,0
0.5,3.4,0,0.299827,-0.00216716,0
0.5,3.5,0,0.299824,-0.00210094,0
0.5,3.6,0,0.299813,-0.00204298,0
0.5,3.7,0,0.299808,-0.00198665,0
0.5,3.8,0,0.2998,-0.00191225,0
0.5,3.9,0,0.299796,-0.00185228,0
0.5,4,0,0.299798,-0.00177784,0
0.5,4.1,0,0.299786,-0.00171169,0
0.5,4.2,0,0.299783,-0.00164826,0
0.5,4.3,0,0.299779,-0.00156499,0
0.5,4.4,0,0.299777,-0.00149832,0
0.5,4.5,0,0.29978,-0.00141625,0
0.5,4.6,0,0.299773,-0.00134268,0
0.5,4.7,0,0.299772,-0.0012731,0
0.5,4.8,0,0.299772,-0.00118257,0
0.5,4.9,0,0.299771,-0.00111408,0
0.5,5,0,0.299769,-0.00103256,0
0.5,5.1,0,0.299771,-0.000948238,0
0.5,5.2,0,0.299766,-0.000858564,0
0.5,5.3,0,0.299771,-0.00077834,0
0.5,5.4,0,0.299764,-0.000691077,0
0.5,5.5,0,0.299772,-0.00060882,0
0.5,5.6,0,0.299763,-0.000521172,0
0.5,5.7,0,0.299772,-0.000437073,0
0.5,5.8,0,0.299762,-0.000349644,0
0.5,5.9,0,0.299772,-0.000263992,0
0.5,6,0,0.299762,-0.000177294,0
0.5,6.1,0,0.299772,-9.04918e-05,0
0.5,6.2,0,0.299762,-4.9848e-06,0
0.5,6.3,0,0.299771,8.24403e-05,0
0.5,6.4,0,0.299763,0.000166399,0
0.5,6.5,0,0.299771,0.000253876,0
0.5,6.6,0,0.299764,0.000336081,0
0.5,6.7,0,0.29977,0.000422979,0
0.5,6.8,0,0.299766,0.000503306,0
0.5,6.9,0,0.29977,0.000594702,0
0.5,7,0,0.299769,0.000683579,0
0.5,7.1,0,0.29977,0.000762781,0
0.5,7.2,0,0.299771,0.000829278,0
0.5,7.3,0,0.299773,0.000912432,0
0.5,7.4,0,0.299773,0.000990132,0
0.5,7.5,0,0.299775,0.00105911,0
0.5,7.6,0,0.299778,0.00114814,0
0.5,7.7,0,0.29978,0.00121463,0
0.5,7.8,0,0.299783,0.00128026,0
0.5,7.9,0,0.299789,0.00136472,0
0.5,8,0,0.299793,0.00142662,0
0.5,8.1,0,0.299796,0.00148851,0
0.5,8.2,0,0.299805,0.00156729,0
0.5,8.3,0,0.299809,0.00162519,0
0.5,8.4,0,0.299815,0.00168357,0
0.5,8.5,0,0.299823,0.0017559,0
0.5,8.6,0,0.299828,0.00180959,0
0.5,8.7,0,0.299835,0.001864,0
0.5,8.8,0,0.299843,0.00192972,0
0.5,8.9,0,0.299847,0.00197901,0
0.5,9,0,0.299852,0.00203031,0
0.5,9.1,0,0.299862,0.00208802,0
0.5,9.2,0,0.299866,0.00213278,0
0.5,9.3,0,0.299872,0.00218472,0
0.5,9.4,0,0.299879,0.00223039,0
0.5,9.5,0,0.299883,0.00227062,0
0.5,9.6,0,0.29989,0.00232108,0
0.5,9.7,0,0.299894,0.00235688,0
0.5,9.8,0,0.299897,0.00239269,0
0.5,9.9,0,0.299904,0.00243646,0
0.5,10,0,0.299907,0.00246801,0
0.5,10.1,0,0.299911,0.00249955,0
0.5,10.2,0,0.299917,0.00253703,0
0.5,10.3,0,0.29992,0.00256454,0
0.5,10.4,0,0.299921,0.00259149,0
0.5,10.5,0,0.299928,0.00262369,0
0.5,10.6,0,0.299931,0.00264738,0
0.5,10.7,0,0.29993,0.00267034,0
0.5,10.8,0,0.299939,0.00269735,0
0.5,10.9,0,0.299942,0.00271745,0
0.5,11,0,0.299943,0.00273861,0
0.5,11.1,0,0.29995,0.00275888,0
0.5,11.2,0,0.299953,0.00277558,0
0.5,11.3,0,0.299956,0.00279473,0
0.5,11.4,0,0.29996,0.002809,0
0.5,11.5,0,0.299962,0.00282248,0
0.5,11.6,0,0.299966,0.00283791,0
0.5,11.7,0,0.299969,0.00284831,0
0.5,11.8,0,0.299971,0.00285871,0
0.5,11.9,0,0.299976,0.00286983,0
0.5,12,0,0.299978,0.00287723,0
0.5,12.1,0,0.299981,0.00288467,0
0.5,12.2,0,0.299985,0.00289152,0
0.5,12.3,0,0.299987,0.00289596,0
0.5,12.4,0,0.29999,0.00290085,0
0.5,12.5,0,0.299993,0.00290313,0
0.5,12.6,0,0.299994,0.00290461,0
0.5,12.7,0,0.299995,0.00290667,0
0.6,0,0,0.299989,-0.00376302,0
0.6,0.1,0,0.299991,-0.00376427,0
0.6,0.2,0,0.299987,-0.00376048,0
0.6,0.3,0,0.29998,-0.00375536,0
0.6,0.4,0,0.299977,-0.0037509,0
0.6,0.5,0,0.299965,-0.00373785,0
0.6,0.6,0,0.299965,-0.00373157,0
0.6,0.7,0,0.299957,-0.00371817,0
0.6,0.8,0,0.29995,-0.00370289,0
0.6,0.9,0,0.299949,-0.00369168,0
0.6,1,0,0.299931,-0.0036642,0
0.6,1.1,0,0.299938,-0.00365267,0
0.6,1.2,0,0.299927,-0.00362872,0
0.6,1.3,0,0.29992,-0.00360274,0
0.6,1.4,0,0.299921,-0.0035852,0
0.6,1.5,0,0.299897,-0.00354143,0
0.6,1.6,0,0.299908,-0.00352502,0
0.6,1.7,0,0.299895,-0.00348989,0
0.6,1.8,0,0.299887,-0.00345212,0
0.6,1.9,0,0.29989,-0.00342766,0
0.6,2,0,0.299862,-0.00336754,0
0.6,2.1,0,0.299874,-0.00334422,0
0.6,2.2,0,0.299861,-0.00329807,0
0.6,2.3,0,0.299851,-0.00324742,0
0.6,2.4,0,0.299853,-0.00321453,0
0.6,2.5,0,0.299826,-0.00314033,0
0.6,2.6,0,0.299833,-0.00310629,0
0.6,2.7,0,0.299821,-0.00305019,0
0.6,2.8,0,0.299808,-0.00298624,0
0.6,2.9,0,0.299805,-0.00294329,0
0.6,3,0,0.299788,-0.00285845,0
0.6,3.1,0,0.299781,-0.00281058,0
0.6,3.2,0,0.299774,-0.00274576,0
0.6,3.3,0,0.299759,-0.00266939,0
0.6,3.4,0,0.299749,-0.00261595,0
0.6,3.5,0,0.29975,-0.0025223,0
0.6,3.6,0,0.299725,-0.0024611,0
0.6,3.7,0,0.299726,-0.00238797,0
0.6,3.8,0,0.299714,-0.00230057,0
0.6,3.9,0,0.2997,-0.00223789,0
0.6,4,0,0.299715,-0.00213454,0
0.6,4.1,0,0.299685,-0.00206293,0
0.6,4.2,0,0.299689,-0.0019815,0
0.6,4.3,0,0.299685,-0.00188364,0
0.6,4.4,0,0.299673,-0.0018131,0
0.6,4.5,0,0.299686,-0.00170022,0
0.6,4.6,0,0.29967,-0.00161867,0
0.6,4.7,0,0.299671,-0.00153059,0
0.6,4.8,0,0.299673,-0.00142287,0
0.6,4.9,0,0.29967,-0.0013471,0
0.6,5,0,0.299666,-0.00123951,0
0.6,5.1,0,0.299673,-0.00114305,0
0.6,5.2,0,0.29966,-0.00103054,0
0.6,5.3,0,0.299676,-0.00094054,0
0.6,5.4,0,0.299656,-0.000829422,0
0.6,5.5,0,0.299678,-0.000735532,0
0.6,5.6,0,0.299652,-0.000625471,0
0.6,5.7,0,0.29968,-0.000527544,0
0.6,5.8,0,0.29965,-0.000419631,0
0.6,5.9,0,0.299681,-0.000317799,0
0.6,6,0,0.29965,-0.00021283,0
0.6,6.1,0,0.299681,-0.000107505,0
0.6,6.2,0,0.29965,-6.0661e-06,0
0.6,6.3,0,0.299679,0.000101986,0
0.6,6.4,0,0.299652,0.000199638,0
0.6,6.5,0,0.299677,0.000309423,0
0.6,6.6,0,0.299656,0.000403389,0
0.6,6.7,0,0.299674,0.000513686,0
0.6,6.8,0,0.29966,0.00060427,0
0.6,6.9,0,0.29967,0.000716331,0
0.6,7,0,0.299666,0.000820836,0
0.6,7.1,0,0.299668,0.000925448,0
0.6,7.2,0,0.29967,0.000994608,0
0.6,7.3,0,0.299675,0.00109197,0
0.6,7.4,0,0.299669,0.00120282,0
0.6,7.5,0,0.299676,0.00127598,0
0.6,7.6,0,0.299686,0.00137142,0
0.6,7.7,0,0.299678,0.0014712,0
0.6,7.8,0,0.299691,0.00154211,0
0.6,7.9,0,0.2997,0.00163654,0
0.6,8,0,0.299696,0.00172422,0
0.6,8.1,0,0.299713,0.00179178,0
0.6,8.2,0,0.29972,0.00188574,0
0.6,8.3,0,0.299721,0.00196135,0
0.6,8.4,0,0.299738,0.0020242,0
0.6,8.5,0,0.299746,0.00211818,0
0.6,8.6,0,0.299751,0.00218186,0
0.6,8.7,0,0.299763,0.00223836,0
0.6,8.8,0,0.299777,0.00233294,0
0.6,8.9,0,0.299782,0.0023847,0
0.6,9,0,0.299786,0.00243565,0
0.6,9.1,0,0.299806,0.00252408,0
0.6,9.2,0,0.299809,0.00256827,0
0.6,9.3,0,0.299811,0.00261836,0
0.6,9.4,0,0.299833,0.00269347,0
0.6,9.5,0,0.299832,0.00273192,0
0.6,9.6,0,0.299835,0.00278183,0
0.6,9.7,0,0.299855,0.00284352,0
0.6,9.8,0,0.299851,0.00287633,0
0.6,9.9,0,0.299859,0.00292596,0
0.6,10,0,0.299875,0.00297486,0
0.6,10.1,0,0.299867,0.00300274,0
0.6,10.2,0,0.299881,0.00305108,0
0.6,10.3,0,0.299892,0.00308852,0
0.6,10.4,0,0.299883,0.00311255,0
0.6,10.5,0,0.299901,0.00315799,0
0.6,10.6,0,0.299908,0.00318578,0
0.6,10.7,0,0.299898,0.00320703,0
0.6,10.8,0,0.299919,0.00324778,0
0.6,10.9,0,0.299922,0.00326784,0
0.6,11,0,0.299915,0.00328857,0
0.6,11.1,0,0.299933,0.00331925,0
0.6,11.2,0,0.299934,0.00333614,0
0.6,11.3,0,0.299933,0.0033557,0
0.6,11.4,0,0.299946,0.00337745,0
0.6,11.5,0,0.299947,0.00339169,0
0.6,11.6,0,0.299949,0.00340839,0
0.6,11.7,0,0.299959,0.00342312,0
0.6,11.8,0,0.299959,0.00343496,0
0.6,11.9,0,0.299964,0.00344755,0
0.6,12,0,0.299971,0.0034568,0
0.6,12.1,0,0.299972,0.00346617,0
0.6,12.2,0,0.299979,0.00347378,0
0.6,12.3,0,0.299983,0.00347871,0
0.6,12.4,0,0.299985,0.00348534,0
0.6,12.5,0,0.299991,0.00348752,0
0.6,12.6,0,0.299993,0.00348898,0
0.6,12.7,0,0.299992,0.00349221,0
0.7,0,0,0.299985,-0.00439432,0
0.7,0.1,0,0.299988,-0.00439618,0
0.7,0.2,0,0.29998,-0.00439055,0
0.7,0.3,0,0.299974,-0.00438543,0
0.7,0.4,0,0.299968,-0.00437903,0
0.7,0.5,0,0.299954,-0.00436446,0
0.7,0.6,0,0.299955,-0.00435872,0
0.7,0.7,0,0.299941,-0.00433928,0
0.7,0.8,0,0.299934,-0.00432399,0
0.7,0.9,0,0.29993,-0.0043082,0
0.7,1,0,0.299909,-0.00427775,0
0.7,1.1,0,0.299917,-0.00426716,0
0.7,1.2,0,0.299899,-0.00423262,0
0.7,1.3,0,0.299892,-0.00420664,0
0.7,1.4,0,0.299892,-0.00418208,0
0.7,1.5,0,0.299864,-0.00413357,0
0.7,1.6,0,0.299877,-0.00411864,0
0.7,1.7,0,0.299856,-0.00406814,0
0.7,1.8,0,0.299849,-0.00403038,0
0.7,1.9,0,0.299851,-0.00399638,0
0.7,2,0,0.299817,-0.0039298,0
0.7,2.1,0,0.299833,-0.00390819,0
0.7,2.2,0,0.299811,-0.00384223,0
0.7,2.3,0,0.299801,-0.00379157,0
0.7,2.4,0,0.299802,-0.0037461,0
0.7,2.5,0,0.29977,-0.00366427,0
0.7,2.6,0,0.29978,-0.00363146,0
0.7,2.7,0,0.29976,-0.00355177,0
0.7,2.8,0,0.299747,-0.00348783,0
0.7,2.9,0,0.299743,-0.00342845,0
0.7,3,0,0.299723,-0.00333552,0
0.7,3.1,0,0.299715,-0.00328778,0
0.7,3.2,0,0.299704,-0.0031961,0
0.7,3.3,0,0.299689,-0.00311974,0
0.7,3.4,0,0.299674,-0.00304554,0
0.7,3.5,0,0.299675,-0.00294367,0
0.7,3.6,0,0.299647,-0.00288149,0
0.7,3.7,0,0.299647,-0.0027781,0
0.7,3.8,0,0.299635,-0.0026907,0
0.7,3.9,0,0.299613,-0.00260327,0
0.7,4,0,0.299631,-0.00249124,0
0.7,4.1,0,0.299596,-0.00241799,0
0.7,4.2,0,0.299601,-0.00230274,0
0.7,4.3,0,0.299596,-0.00220488,0
0.7,4.4,0,0.299577,-0.00210631,0
0.7,4.5,0,0.299592,-0.00198419,0
0.7,4.6,0,0.299573,-0.00190025,0
0.7,4.7,0,0.299573,-0.00177574,0
0.7,4.8,0,0.299574,-0.00166802,0
0.7,4.9,0,0.299568,-0.00156186,0
0.7,5,0,0.299563,-0.00144645,0
0.7,5.1,0,0.299571,-0.00133519,0
0.7,5.2,0,0.299554,-0.00120252,0
0.7,5.3,0,0.299574,-0.00109922,0
0.7,5.4,0,0.299547,-0.000967767,0
0.7,5.5,0,0.299577,-0.00085955,0
0.7,5.6,0,0.299542,-0.00072977,0
0.7,5.7,0,0.299578,-0.000616351,0
0.7,5.8,0,0.299538,-0.000489618,0
0.7,5.9,0,0.299579,-0.000371083,0
0.7,6,0,0.299537,-0.000248365,0
0.7,6.1,0,0.299579,-0.000125166,0
0.7,6.2,0,0.299539,-7.1474e-06,0
0.7,6.3,0,0.299577,0.000119799,0
0.7,6.4,0,0.299542,0.000232878,0
0.7,6.5,0,0.299575,0.000362333,0
0.7,6.6,0,0.299547,0.000470696,0
0.7,6.7,0,0.299572,0.000601107,0
0.7,6.8,0,0.299554,0.000705233,0
0.7,6.9,0,0.299569,0.000836701,0
0.7,7,0,0.299564,0.000958093,0
0.7,7.1,0,0.299566,0.00106471,0
0.7,7.2,0,0.299572,0.00117414,0
0.7,7.3,0,0.299577,0.0012715,0
0.7,7.4,0,0.29957,0.00139283,0
0.7,7.5,0,0.299583,0.00149927,0
0.7,7.6,0,0.299593,0.00159471,0
0.7,7.7,0,0.299581,0.00171331,0
0.7,7.8,0,0.299604,0.00180704,0
0.7,7.9,0,0.299613,0.00190147,0
0.7,8,0,0.299605,0.00201683,0
0.7,8.1,0,0.299631,0.0020959,0
0.7,8.2,0,0.299639,0.00218987,0
0.7,8.3,0,0.299639,0.00229987,0