x,y,z,U_0,U_1,U_2
0,0,0,0.3,-0.0008964,0
0,0.1,0,0.3,-0.00053784,0
0,0.2,0,0.3,-0.00017928,0
0,0.3,0,0.3,0,0
0,0.4,0,0.3,0,0
0,0.5,0,0.3,0,0
0,0.6,0,0.3,0,0
0,0.7,0,0.3,0,0
0,0.8,0,0.3,0,0
0,0.9,0,0.3,0,0
0,1,0,0.3,0,0
0,1.1,0,0.3,0,0
0,1.2,0,0.3,0,0
0,1.3,0,0.3,0,0
0,1.4,0,0.3,0,0
0,1.5,0,0.3,0,0
0,1.6,0,0.3,0,0
0,1.7,0,0.3,0,0
0,1.8,0,0.3,0,0
0,1.9,0,0.3,0,0
0,2,0,0.3,0,0
0,2.1,0,0.3,0,0
0,2.2,0,0.3,0,0
0,2.3,0,0.3,0,0
0,2.4,0,0.3,0,0
0,2.5,0,0.3,0,0
0,2.6,0,0.3,0,0
0,2.7,0,0.3,0,0
0,2.8,0,0.3,0,0
0,2.9,0,0.3,0,0
0,3,0,0.3,0,0
0,3.1,0,0.3,0,0
0,3.2,0,0.3,0,0
0,3.3,0,0.3,0,0
0,3.4,0,0.3,0,0
0,3.5,0,0.3,0,0
0,3.6,0,0.3,0,0
0,3.7,0,0.3,0,0
0,3.8,0,0.3,0,0
0,3.9,0,0.3,0,0
0,4,0,0.3,0,0
0,4.1,0,0.3,0,0
0,4.2,0,0.3,0,0
0,4.3,0,0.3,0,0
0,4.4,0,0.3,0,0
0,4.5,0,0.3,0,0
0,4.6,0,0.3,0,0
0,4.7,0,0.3,0,0
0,4.8,0,0.3,0,0
0,4.9,0,0.3,0,0
0,5,0,0.3,0,0
0,5.1,0,0.3,0,0
0,5.2,0,0.3,0,0
0,5.3,0,0.3,0,0
0,5.4,0,0.3,0,0
0,5.5,0,0.3,0,0
0,5.6,0,0.3,0,0
0,5.7,0,0.3,0,0
0,5.8,0,0.3,0,0
0,5.9,0,0.3,0,0
0,6,0,0.3,0,0
0,6.1,0,0.3,0,0
0,6.2,0,0.3,0,0
0,6.3,0,0.3,0,0
0,6.4,0,0.3,0,0
0,6.5,0,0.3,0,0
0,6.6,0,0.3,0,0
0,6.7,0,0.3,0,0
0,6.8,0,0.3,0,0
0,6.9,0,0.3,0,0
0,7,0,0.3,0,0
0,7.1,0,0.3,0,0
0,7.2,0,0.3,0,0
0,7.3,0,0.3,0,0
0,7.4,0,0.3,0,0
0,7.5,0,0.3,0,0
0,7.6,0,0.3,0,0
0,7.7,0,0.3,0,0
0,7.8,0,0.3,0,0
0,7.9,0,0.3,0,0
0,8,0,0.3,0,0
0,8.1,0,0.3,0,0
0,8.2,0,0.3,0,0
0,8.3,0,0.3,0,0
0,8.4,0,0.3,0,0
0,8.5,0,0.3,0,0
0,8.6,0,0.3,0,0
0,8.7,0,0.3,0,0
0,8.8,0,0.3,0,0
0,8.9,0,0.3,0,0
0,9,0,0.3,0,0
0,9.1,0,0.3,0,0
0,9.2,0,0.3,0,0
0,9.3,0,0.3,0,0
0,9.4,0,0.3,0,0
0,9.5,0,0.3,0,0
0,9.6,0,0.3,0,0
0,9.7,0,0.3,0,0
0,9.8,0,0.3,0,0
0,9.9,0,0.3,0,0
0,10,0,0.3,0,0
0,10.1,0,0.3,0,0
0,10.2,0,0.3,0,0
0,10.3,0,0.3,0,0
0,10.4,0,0.3,0,0
0,10.5,0,0.3,0,0
0,10.6,0,0.3,0,0
0,10.7,0,0.3,0,0
0,10.8,0,0.3,0,0
0,10.9,0,0.3,0,0
0,11,0,0.3,0,0
0,11.1,0,0.3,0,0
0,11.2,0,0.3,0,0
0,11.3,0,0.3,0,0
0,11.4,0,0.3,0,0
0,11.5,0,0.3,0,0
0,11.6,0,0.3,0,0
0,11.7,0,0.3,0,0
0,11.8,0,0.3,0,0
0,11.9,0,0.3,0,0
0,12,0,0.3,0,0
0,12.1,0,0.3,0,0
0,12.2,0,0.3,0,0
0,12.3,0,0.3,0,0
0,12.4,0,0.3,0,0
0,12.5,0,0.3,0.000261435,0
0,12.6,0,0.3,0.000569006,0
0,12.7,0,0.3,0.000876577,0
0.1,0,0,0.3,-0.00198201,0
0.1,0.1,0,0.3,-0.00161352,0
0.1,0.2,0,0.3,-0.00143892,0
0.1,0.3,0,0.3,-0.00143839,0
0.1,0.4,0,0.3,-0.00143317,0
0.1,0.5,0,0.299999,-0.00144188,0
0.1,0.6,0,0.3,-0.00143098,0
0.1,0.7,0,0.299999,-0.00143498,0
0.1,0.8,0,0.299999,-0.00143329,0
0.1,0.9,0,0.3,-0.00142762,0
0.1,1,0,0.299997,-0.00143476,0
0.1,1.1,0,0.299999,-0.00142291,0
0.1,1.2,0,0.299998,-0.00142599,0
0.1,1.3,0,0.299998,-0.00142287,0
0.1,1.4,0,0.299999,-0.00141667,0
0.1,1.5,0,0.299996,-0.00142167,0
0.1,1.6,0,0.299999,-0.00140857,0
0.1,1.7,0,0.299997,-0.00141038,0
0.1,1.8,0,0.299997,-0.00140521,0
0.1,1.9,0,0.299999,-0.00139822,0
0.1,2,0,0.299993,-0.0014002,0
0.1,2.1,0,0.299998,-0.00138514,0
0.1,2.2,0,0.299995,-0.00138516,0
0.1,2.3,0,0.299995,-0.00137695,0
0.1,2.4,0,0.299998,-0.00136873,0
0.1,2.5,0,0.299989,-0.00136644,0
0.1,2.6,0,0.299998,-0.00134826,0
0.1,2.7,0,0.299992,-0.00134575,0
0.1,2.8,0,0.299992,-0.00133306,0
0.1,2.9,0,0.299998,-0.00132289,0
0.1,3,0,0.299983,-0.00131468,0
0.1,3.1,0,0.299997,-0.00129169,0
0.1,3.2,0,0.299988,-0.00128572,0
0.1,3.3,0,0.299988,-0.00126667,0
0.1,3.4,0,0.299996,-0.00125359,0
0.1,3.5,0,0.299975,-0.00123737,0
0.1,3.6,0,0.299995,-0.00120748,0
0.1,3.7,0,0.299983,-0.00119693,0
0.1,3.8,0,0.299982,-0.00116929,0
0.1,3.9,0,0.299994,-0.0011522,0
0.1,4,0,0.299965,-0.00112563,0
0.1,4.1,0,0.299993,-0.00108662,0
0.1,4.2,0,0.299976,-0.0010703,0
0.1,4.3,0,0.299975,-0.00103186,0
0.1,4.4,0,0.299991,-0.00100975,0
0.1,4.5,0,0.299952,-0.000970535,0
0.1,4.6,0,0.29999,-0.000921352,0
0.1,4.7,0,0.299968,-0.000898437,0
0.1,4.8,0,0.299967,-0.000849897,0
0.1,4.9,0,0.29999,-0.000824272,0
0.1,5,0,0.299941,-0.00079114,0
0.1,5.1,0,0.299938,-0.000722423,0
0.1,5.2,0,0.299936,-0.000673512,0
0.1,5.3,0,0.299934,-0.000622811,0
0.1,5.4,0,0.299932,-0.000570315,0
0.1,5.5,0,0.299929,-0.000516105,0
0.1,5.6,0,0.299928,-0.000460273,0
0.1,5.7,0,0.299926,-0.00040294,0
0.1,5.8,0,0.299924,-0.000344239,0
0.1,5.9,0,0.299923,-0.000284321,0
0.1,6,0,0.299922,-0.000223352,0
0.1,6.1,0,0.299921,-0.000161511,0
0.1,6.2,0,0.29992,-9.89878e-05,0
0.1,6.3,0,0.299919,-3.59814e-05,0
0.1,6.4,0,0.299919,2.73042e-05,0
0.1,6.5,0,0.299919,9.06612e-05,0
0.1,6.6,0,0.299919,0.000153883,0
0.1,6.7,0,0.29992,0.000216769,0
0.1,6.8,0,0.29992,0.000279122,0
0.1,6.9,0,0.299921,0.000340828,0
0.1,7,0,0.299921,0.000435499,0
0.1,7.1,0,0.299978,0.00048141,0
0.1,7.2,0,0.29997,0.00050747,0
0.1,7.3,0,0.299933,0.000574991,0
0.1,7.4,0,0.299986,0.000640833,0
0.1,7.5,0,0.299965,0.00066994,0
0.1,7.6,0,0.299946,0.000734075,0
0.1,7.7,0,0.299988,0.000783991,0
0.1,7.8,0,0.299963,0.00081944,0
0.1,7.9,0,0.299959,0.00087557,0
0.1,8,0,0.29999,0.000910968,0
0.1,8.1,0,0.299963,0.000950138,0
0.1,8.2,0,0.299971,0.000997055,0
0.1,8.3,0,0.299991,0.00102022,0
0.1,8.4,0,0.299964,0.00106083,0
0.1,8.5,0,0.29998,0.00109825,0
0.1,8.6,0,0.299992,0.00111331,0
0.1,8.7,0,0.299967,0.00115192,0
0.1,8.8,0,0.299988,0.00118002,0
0.1,8.9,0,0.299991,0.0011926,0
0.1,9,0,0.299973,0.00122417,0
0.1,9.1,0,0.299993,0.00124407,0
0.1,9.2,0,0.29999,0.00125489,0
0.1,9.3,0,0.299982,0.00127887,0
0.1,9.4,0,0.299997,0.0012918,0
0.1,9.5,0,0.299991,0.00130246,0
0.1,9.6,0,0.299988,0.00131959,0
0.1,9.7,0,0.299998,0.00132633,0
0.1,9.8,0,0.299992,0.00133775,0
0.1,9.9,0,0.299993,0.00134877,0
0.1,10,0,0.299998,0.00135146,0
0.1,10.1,0,0.299994,0.00136313,0
0.1,10.2,0,0.299996,0.00136876,0
0.1,10.3,0,0.299999,0.00136911,0
0.1,10.4,0,0.299995,0.0013808,0
0.1,10.5,0,0.299998,0.00138166,0
0.1,10.6,0,0.299999,0.00138194,0
0.1,10.7,0,0.299997,0.00139269,0
0.1,10.8,0,0.299999,0.00138929,0
0.1,10.9,0,0.3,0.00139081,0
0.1,11,0,0.299998,0.00139889,0
0.1,11.1,0,0.3,0.00139317,0
0.1,11.2,0,0.3,0.00139641,0
0.1,11.3,0,0.299999,0.00140136,0
0.1,11.4,0,0.3,0.00139528,0
0.1,11.5,0,0.3,0.00139986,0
0.1,11.6,0,0.3,0.00140191,0
0.1,11.7,0,0.3,0.0013963,0
0.1,11.8,0,0.3,0.00140203,0
0.1,11.9,0,0.3,0.00140134,0
0.1,12,0,0.3,0.00139658,0
0.1,12.1,0,0.3,0.00140354,0
0.1,12.2,0,0.3,0.00140019,0
0.1,12.3,0,0.3,0.00139653,0
0.1,12.4,0,0.3,0.00140478,0
0.1,12.5,0,0.3,0.00139887,0
0.1,12.6,0,0.3,0.00161598,0
0.1,12.7,0,0.3,0.00193195,0
0.2,0,0,0.299999,-0.00306762,0
0.2,0.1,0,0.299999,-0.00288309,0
0.2,0.2,0,0.299999,-0.00288252,0
0.2,0.3,0,0.299999,-0.00288199,0
0.2,0.4,0,0.299999,-0.00288027,0
0.2,0.5,0,0.299998,-0.00288376,0
0.2,0.6,0,0.299998,-0.00287686,0
0.2,0.7,0,0.299997,-0.00287394,0
0.2,0.8,0,0.299997,-0.00287226,0
0.2,0.9,0,0.299997,-0.00286805,0
0.2,1,0,0.299995,-0.00286951,0
0.2,1.1,0,0.299995,-0.00286075,0
0.2,1.2,0,0.299995,-0.00285507,0
0.2,1.3,0,0.299995,-0.00285195,0
0.2,1.4,0,0.299994,-0.00284454,0
0.2,1.5,0,0.299991,-0.00284333,0
0.2,1.6,0,0.299993,-0.00283204,0
0.2,1.7,0,0.299991,-0.00282256,0
0.2,1.8,0,0.299991,-0.00281739,0
0.2,1.9,0,0.29999,-0.00280541,0
0.2,2,0,0.299986,-0.0028004,0
0.2,2.1,0,0.299988,-0.00278536,0
0.2,2.2,0,0.299986,-0.00277033,0
0.2,2.3,0,0.299986,-0.00276212,0
0.2,2.4,0,0.299984,-0.00274339,0
0.2,2.5,0,0.299978,-0.00273288,0
0.2,2.6,0,0.299981,-0.00271219,0
0.2,2.7,0,0.299979,-0.00268898,0
0.2,2.8,0,0.299979,-0.0026763,0
0.2,2.9,0,0.299975,-0.00264774,0
0.2,3,0,0.299967,-0.00262935,0
0.2,3.1,0,0.299972,-0.00260039,0
0.2,3.2,0,0.299968,-0.00256547,0
0.2,3.3,0,0.299967,-0.00254642,0
0.2,3.4,0,0.299963,-0.00250404,0
0.2,3.5,0,0.299951,-0.00247474,0
0.2,3.6,0,0.299958,-0.0024343,0
0.2,3.7,0,0.299953,-0.00238332,0
0.2,3.8,0,0.299952,-0.00235568,0
0.2,3.9,0,0.299947,-0.00229492,0
0.2,4,0,0.299929,-0.00225125,0
0.2,4.1,0,0.29994,-0.00219592,0
0.2,4.2,0,0.299934,-0.00212427,0
0.2,4.3,0,0.299933,-0.00208583,0
0.2,4.4,0,0.299927,-0.0020024,0
0.2,4.5,0,0.299904,-0.00194107,0
0.2,4.6,0,0.29992,-0.00186897,0
0.2,4.7,0,0.299913,-0.00177396,0
0.2,4.8,0,0.299913,-0.00172542,0
0.2,4.9,0,0.299908,-0.00164104,0
0.2,5,0,0.299882,-0.00158228,0
0.2,5.1,0,0.299876,-0.00144485,0
0.2,5.2,0,0.299872,-0.00134702,0
0.2,5.3,0,0.299868,-0.00124562,0
0.2,5.4,0,0.299863,-0.00114063,0
0.2,5.5,0,0.299859,-0.00103221,0
0.2,5.6,0,0.299855,-0.000920547,0
0.2,5.7,0,0.299852,-0.00080588,0
0.2,5.8,0,0.299849,-0.000688479,0
0.2,5.9,0,0.299845,-0.000568643,0
0.2,6,0,0.299843,-0.000446705,0
0.2,6.1,0,0.299841,-0.000323022,0
0.2,6.2,0,0.29984,-0.000197976,0
0.2,6.3,0,0.299839,-7.19628e-05,0
0.2,6.4,0,0.299838,5.46083e-05,0
0.2,6.5,0,0.299838,0.000181322,0
0.2,6.6,0,0.299838,0.000307766,0
0.2,6.7,0,0.299839,0.000433538,0
0.2,6.8,0,0.29984,0.000558245,0
0.2,6.9,0,0.299841,0.000681656,0
0.2,7,0,0.299843,0.000870999,0
0.2,7.1,0,0.299876,0.00094602,0
0.2,7.2,0,0.299879,0.00105963,0
0.2,7.3,0,0.299857,0.00114001,0
0.2,7.4,0,0.299884,0.00124488,0
0.2,7.5,0,0.299889,0.00137754,0
0.2,7.6,0,0.299878,0.00145032,0
0.2,7.7,0,0.299896,0.00155361,0
0.2,7.8,0,0.299902,0.00167192,0
0.2,7.9,0,0.299899,0.00172806,0
0.2,8,0,0.299911,0.00182594,0
0.2,8.1,0,0.299911,0.00192145,0
0.2,8.2,0,0.299918,0.00196973,0
0.2,8.3,0,0.299925,0.00205827,0
0.2,8.4,0,0.299921,0.00213307,0
0.2,8.5,0,0.299933,0.00217744,0
0.2,8.6,0,0.29994,0.00225072,0
0.2,8.7,0,0.299932,0.00230771,0
0.2,8.8,0,0.299946,0.00234642,0
0.2,8.9,0,0.299953,0.00240553,0
0.2,9,0,0.299945,0.00244734,0
0.2,9.1,0,0.299958,0.00247998,0
0.2,9.2,0,0.299964,0.00252642,0
0.2,9.3,0,0.29996,0.00255498,0
0.2,9.4,0,0.299969,0.00258245,0
0.2,9.5,0,0.299974,0.00261796,0
0.2,9.6,0,0.299972,0.00263619,0
0.2,9.7,0,0.299978,0.00265864,0
0.2,9.8,0,0.299981,0.00268442,0
0.2,9.9,0,0.299981,0.00269544,0
0.2,10,0,0.299985,0.00271338,0
0.2,10.1,0,0.299986,0.00273143,0
0.2,10.2,0,0.299988,0.00273806,0
0.2,10.3,0,0.29999,0.00275121,0
0.2,10.4,0,0.29999,0.0027641,0
0.2,10.5,0,0.299992,0.00276743,0
0.2,10.6,0,0.299994,0.00277615,0
0.2,10.7,0,0.299994,0.00278592,0
0.2,10.8,0,0.299996,0.00278617,0
0.2,10.9,0,0.299997,0.00279164,0
0.2,11,0,0.299996,0.00279834,0
0.2,11.1,0,0.299998,0.00279734,0
0.2,11.2,0,0.299998,0.00280051,0
0.2,11.3,0,0.299998,0.00280443,0
0.2,11.4,0,0.299999,0.00280337,0
0.2,11.5,0,0.299999,0.00280502,0
0.2,11.6,0,0.299999,0.00280687,0
0.2,11.7,0,0.3,0.00280617,0
0.2,11.8,0,0.3,0.0028078,0
0.2,11.9,0,0.3,0.00280711,0
0.2,12,0,0.3,0.00280716,0
0.2,12.1,0,0.3,0.00280956,0
0.2,12.2,0,0.3,0.0028073,0
0.2,12.3,0,0.3,0.00280731,0
0.2,12.4,0,0.3,0.00281081,0
0.2,12.5,0,0.3,0.00280725,0
0.2,12.6,0,0.3,0.00280723,0
0.2,12.7,0,0.3,0.00298733,0
0.3,0,0,0.299999,-0.00434302,0
0.3,0.1,0,0.299999,-0.0043372,0
0.3,0.2,0,0.299998,-0.00433663,0
0.3,0.3,0,0.299998,-0.00433488,0
0.3,0.4,0,0.299997,-0.00433316,0
0.3,0.5,0,0.299995,-0.00433601,0
0.3,0.6,0,0.299995,-0.00432734,0
0.3,0.7,0,0.299995,-0.00432442,0
0.3,0.8,0,0.299993,-0.00431905,0
0.3,0.9,0,0.299993,-0.00431483,0
0.3,1,0,0.29999,-0.00431436,0
0.3,1.1,0,0.29999,-0.00430245,0
0.3,1.2,0,0.299989,-0.00429677,0
0.3,1.3,0,0.299988,-0.00428696,0
0.3,1.4,0,0.299987,-0.00427955,0
0.3,1.5,0,0.299983,-0.00427476,0
0.3,1.6,0,0.299984,-0.00425846,0
0.3,1.7,0,0.299983,-0.00424898,0
0.3,1.8,0,0.29998,-0.00423293,0
0.3,1.9,0,0.299978,-0.00422094,0
0.3,2,0,0.299973,-0.00421002,0
0.3,2.1,0,0.299974,-0.00418725,0
0.3,2.2,0,0.299972,-0.00417222,0
0.3,2.3,0,0.299969,-0.00414703,0
0.3,2.4,0,0.299966,-0.0041283,0
0.3,2.5,0,0.299958,-0.00410845,0
0.3,2.6,0,0.299959,-0.00407605,0
0.3,2.7,0,0.299957,-0.00405285,0
0.3,2.8,0,0.299951,-0.00401424,0
0.3,2.9,0,0.299948,-0.00398568,0
0.3,3,0,0.299936,-0.00395298,0
0.3,3.1,0,0.299938,-0.00390658,0
0.3,3.2,0,0.299934,-0.00387165,0
0.3,3.3,0,0.299927,-0.00381396,0
0.3,3.4,0,0.299922,-0.00377158,0
0.3,3.5,0,0.299904,-0.00372097,0
0.3,3.6,0,0.299909,-0.00365517,0
0.3,3.7,0,0.299904,-0.00360419,0
0.3,3.8,0,0.299894,-0.00352066,0
0.3,3.9,0,0.299888,-0.0034599,0
0.3,4,0,0.299863,-0.00338562,0
0.3,4.1,0,0.299871,-0.00329461,0
0.3,4.2,0,0.299865,-0.00322296,0
0.3,4.3,0,0.299853,-0.00310664,0
0.3,4.4,0,0.299846,-0.00302321,0
0.3,4.5,0,0.299814,-0.00291993,0
0.3,4.6,0,0.299827,-0.0027992,0
0.3,4.7,0,0.29982,-0.00270418,0
0.3,4.8,0,0.299808,-0.00255166,0
0.3,4.9,0,0.299803,-0.00246728,0
0.3,5,0,0.299769,-0.00238015,0
0.3,5.1,0,0.299756,-0.00217366,0
0.3,5.2,0,0.299748,-0.00202683,0
0.3,5.3,0,0.299739,-0.00187449,0
0.3,5.4,0,0.29973,-0.00171668,0
0.3,5.5,0,0.299722,-0.00155365,0
0.3,5.6,0,0.299714,-0.00138571,0
0.3,5.7,0,0.299707,-0.00121321,0
0.3,5.8,0,0.299701,-0.00103656,0
0.3,5.9,0,0.299695,-0.000856229,0
0.3,6,0,0.29969,-0.000672711,0
0.3,6.1,0,0.299686,-0.000486553,0
0.3,6.2,0,0.299683,-0.000298332,0
0.3,6.3,0,0.299681,-0.000108653,0
0.3,6.4,0,0.29968,8.18624e-05,0
0.3,6.5,0,0.29968,0.00027258,0
0.3,6.6,0,0.299681,0.000462867,0
0.3,6.7,0,0.299683,0.0006521,0
0.3,6.8,0,0.299685,0.000839662,0
0.3,6.9,0,0.299688,0.00102513,0
0.3,7,0,0.299694,0.00130986,0
0.3,7.1,0,0.299734,0.00143042,0
0.3,7.2,0,0.299737,0.00154403,0
0.3,7.3,0,0.299719,0.00173041,0
0.3,7.4,0,0.299752,0.00189187,0
0.3,7.5,0,0.299758,0.00202453,0
0.3,7.6,0,0.299755,0.00221041,0
0.3,7.7,0,0.299779,0.00234679,0
0.3,7.8,0,0.299785,0.00246747,0
0.3,7.9,0,0.299794,0.00263699,0
0.3,8,0,0.299808,0.00274774,0
0.3,8.1,0,0.29981,0.00286067,0
0.3,8.2,0,0.299831,0.00300199,0
0.3,8.3,0,0.299839,0.00309052,0
0.3,8.4,0,0.299837,0.00319301,0
0.3,8.5,0,0.299861,0.00330216,0
0.3,8.6,0,0.299868,0.00337544,0
0.3,8.7,0,0.299865,0.00346589,0
0.3,8.8,0,0.299889,0.0035466,0
0.3,8.9,0,0.299896,0.00360571,0
0.3,9,0,0.299893,0.00368246,0
0.3,9.1,0,0.299914,0.00374014,0
0.3,9.2,0,0.29992,0.00378659,0
0.3,9.3,0,0.299922,0.00384797,0
0.3,9.4,0,0.299935,0.00388908,0
0.3,9.5,0,0.29994,0.00392459,0
0.3,9.6,0,0.299945,0.00397179,0
0.3,9.7,0,0.299953,0.00400028,0
0.3,9.8,0,0.299956,0.00402782,0
0.3,9.9,0,0.299963,0.00406131,0
0.3,10,0,0.299967,0.00408063,0
0.3,10.1,0,0.299969,0.00410267,0
0.3,10.2,0,0.299976,0.00412343,0
0.3,10.3,0,0.299978,0.00413658,0
0.3,10.4,0,0.299979,0.00415414,0
0.3,10.5,0,0.299984,0.00416514,0
0.3,10.6,0,0.299986,0.00417386,0
0.3,10.7,0,0.299987,0.00418805,0
0.3,10.8,0,0.299991,0.00419191,0
0.3,10.9,0,0.299992,0.00419737,0
0.3,11,0,0.299993,0.0042075,0
0.3,11.1,0,0.299995,0.00420798,0
0.3,11.2,0,0.299996,0.00421115,0
0.3,11.3,0,0.299997,0.00421736,0
0.3,11.4,0,0.299998,0.00421678,0
0.3,11.5,0,0.299998,0.00421843,0
0.3,11.6,0,0.299999,0.00422159,0
0.3,11.7,0,0.299999,0.00422098,0
0.3,11.8,0,0.299999,0.00422275,0
0.3,11.9,0,0.3,0.00422251,0
0.3,12,0,0.3,0.00422256,0
0.3,12.1,0,0.3,0.00422513,0
0.3,12.2,0,0.3,0.00422288,0
0.3,12.3,0,0.3,0.00422289,0
0.3,12.4,0,0.3,0.00422658,0
0.3,12.5,0,0.3,0.00422284,0
0.3,12.6,0,0.3,0.00422282,0
0.3,12.7,0,0.3,0.00422784,0
0.4,0,0,0.299998,-0.0058082,0
0.4,0.1,0,0.299998,-0.00579712,0
0.4,0.2,0,0.299996,-0.00580115,0
0.4,0.3,0,0.299996,-0.00579941,0
0.4,0.4,0,0.299994,-0.00579121,0
0.4,0.5,0,0.299992,-0.00579862,0
0.4,0.6,0,0.299992,-0.00578419,0
0.4,0.7,0,0.299989,-0.00578388,0
0.4,0.8,0,0.299988,-0.0057785,0
0.4,0.9,0,0.299987,-0.00576605,0
0.4,1,0,0.299983,-0.00576932,0
0.4,1.1,0,0.299984,-0.00575117,0
0.4,1.2,0,0.29998,-0.00574572,0
0.4,1.3,0,0.299978,-0.0057359,0
0.4,1.4,0,0.299977,-0.00571812,0
0.4,1.5,0,0.299971,-0.00571595,0
0.4,1.6,0,0.299973,-0.00569283,0
0.4,1.7,0,0.299967,-0.00568034,0
0.4,1.8,0,0.299964,-0.00566429,0
0.4,1.9,0,0.299963,-0.00563892,0
0.4,2,0,0.299953,-0.00562906,0
0.4,2.1,0,0.299957,-0.00559856,0
0.4,2.2,0,0.299948,-0.00557592,0
0.4,2.3,0,0.299944,-0.00555073,0
0.4,2.4,0,0.299943,-0.00551412,0
0.4,2.5,0,0.299927,-0.00549316,0
0.4,2.6,0,0.299933,-0.00545156,0
0.4,2.7,0,0.299919,-0.00541415,0
0.4,2.8,0,0.299914,-0.00537554,0
0.4,2.9,0,0.299912,-0.0053224,0
0.4,3,0,0.29989,-0.00528556,0
0.4,3.1,0,0.299898,-0.00522768,0
0.4,3.2,0,0.299878,-0.0051692,0
0.4,3.3,0,0.29987,-0.00511151,0
0.4,3.4,0,0.299868,-0.0050349,0
0.4,3.5,0,0.299836,-0.00497606,0
0.4,3.6,0,0.29985,-0.00489545,0
0.4,3.7,0,0.299822,-0.0048082,0
0.4,3.8,0,0.299812,-0.00472467,0
0.4,3.9,0,0.299811,-0.00461653,0
0.4,4,0,0.299767,-0.00452872,0
0.4,4.1,0,0.299788,-0.00441837,0
0.4,4.2,0,0.299751,-0.00429413,0
0.4,4.3,0,0.299739,-0.00417781,0
0.4,4.4,0,0.29974,-0.00403023,0
0.4,4.5,0,0.299682,-0.00390711,0
0.4,4.6,0,0.299714,-0.00376066,0
0.4,4.7,0,0.29967,-0.00359494,0
0.4,4.8,0,0.299657,-0.00344242,0
0.4,4.9,0,0.299667,-0.00327462,0
0.4,5,0,0.299603,-0.00318475,0
0.4,5.1,0,0.299579,-0.00290887,0
0.4,5.2,0,0.299563,-0.00271294,0
0.4,5.3,0,0.299548,-0.00250942,0
0.4,5.4,0,0.299532,-0.00229846,0
0.4,5.5,0,0.299518,-0.00208044,0
0.4,5.6,0,0.299504,-0.00185576,0
0.4,5.7,0,0.299492,-0.00162493,0
0.4,5.8,0,0.29948,-0.00138849,0
0.4,5.9,0,0.29947,-0.00114708,0
0.4,6,0,0.299462,-0.000901371,0
0.4,6.1,0,0.299455,-0.000652103,0
0.4,6.2,0,0.29945,-0.000400057,0
0.4,6.3,0,0.299446,-0.000146052,0
0.4,6.4,0,0.299445,0.000109066,0
0.4,6.5,0,0.299445,0.000364435,0
0.4,6.6,0,0.299447,0.000619185,0
0.4,6.7,0,0.299451,0.000872454,0
0.4,6.8,0,0.299456,0.00112337,0
0.4,6.9,0,0.299462,0.00137125,0
0.4,7,0,0.299474,0.0017521,0
0.4,7.1,0,0.299543,0.00187789,0
0.4,7.2,0,0.299545,0.00209013,0
0.4,7.3,0,0.299511,0.0023058,0
0.4,7.4,0,0.299582,0.0025077,0
0.4,7.5,0,0.299576,0.00274616,0
0.4,7.6,0,0.299567,0.0029408,0
0.4,7.7,0,0.299629,0.00313223,0
0.4,7.8,0,0.299619,0.00333634,0
0.4,7.9,0,0.299628,0.00350585,0
0.4,8,0,0.29968,0.00368026,0
0.4,8.1,0,0.299668,0.00384981,0
0.4,8.2,0,0.299691,0.00399249,0
0.4,8.3,0,0.299734,0.00414674,0
0.4,8.4,0,0.299719,0.00428391,0
0.4,8.5,0,0.29975,0.00439973,0
0.4,8.6,0,0.299784,0.0045309,0
0.4,8.7,0,0.299768,0.00464069,0
0.4,8.8,0,0.299804,0.00473097,0
0.4,8.9,0,0.299826,0.0048365,0
0.4,9,0,0.299817,0.00492471,0
0.4,9.1,0,0.299851,0.00499278,0
0.4,9.2,0,0.299864,0.005076,0
0.4,9.3,0,0.299863,0.00514306,0
0.4,9.4,0,0.29989,0.00519492,0
0.4,9.5,0,0.299896,0.00525839,0
0.4,9.6,0,0.299901,0.00530721,0
0.4,9.7,0,0.299921,0.00534667,0
0.4,9.8,0,0.299924,0.00539316,0
0.4,9.9,0,0.299931,0.00542665,0
0.4,10,0,0.299945,0.0054556,0
0.4,10.1,0,0.299947,0.00548954,0
0.4,10.2,0,0.299954,0.0055104,0
0.4,10.3,0,0.299964,0.00553085,0
0.4,10.4,0,0.299964,0.005556,0
0.4,10.5,0,0.299971,0.0055666,0
0.4,10.6,0,0.299977,0.00558068,0
0.4,10.7,0,0.299977,0.00559991,0
0.4,10.8,0,0.299983,0.00560225,0
0.4,10.9,0,0.299987,0.00561243,0
0.4,11,0,0.299987,0.00562572,0
0.4,11.1,0,0.29999,0.00562317,0
0.4,11.2,0,0.299993,0.00563154,0
0.4,11.3,0,0.299993,0.00563937,0
0.4,11.4,0,0.299996,0.00563504,0
0.4,11.5,0,0.299997,0.00564226,0
0.4,11.6,0,0.299997,0.00564568,0
0.4,11.7,0,0.299999,0.00564086,0
0.4,11.8,0,0.299999,0.00564785,0
0.4,11.9,0,0.299999,0.00564762,0
0.4,12,0,0.3,0.00564306,0
0.4,12.1,0,0.3,0.00565065,0
0.4,12.2,0,0.3,0.00564727,0
0.4,12.3,0,0.3,0.00564352,0
0.4,12.4,0,0.3,0.00565221,0
0.4,12.5,0,0.3,0.00564601,0
0.4,12.6,0,0.3,0.00564467,0
0.4,12.7,0,0.3,0.00565349,0
0.5,0,0,0.299996,-0.00727338,0
0.5,0.1,0,0.299995,-0.00727215,0
0.5,0.2,0,0.299994,-0.00727093,0
0.5,0.3,0,0.299993,-0.0072685,0
0.5,0.4,0,0.299991,-0.00726487,0
0.5,0.5,0,0.299988,-0.00726124,0
0.5,0.6,0,0.299986,-0.00725516,0
0.5,0.7,0,0.299984,-0.00724909,0
0.5,0.8,0,0.299981,-0.0072417,0
0.5,0.9,0,0.299978,-0.00723298,0
0.5,1,0,0.299976,-0.00722427,0
0.5,1.1,0,0.299973,-0.00721259,0
0.5,1.2,0,0.29997,-0.0072009,0
0.5,1.3,0,0.299966,-0.00718747,0
0.5,1.4,0,0.299962,-0.00717231,0
0.5,1.5,0,0.299959,-0.00715715,0
0.5,1.6,0,0.299954,-0.00713784,0
0.5,1.7,0,0.29995,-0.00711853,0
0.5,1.8,0,0.299945,-0.00709672,0
0.5,1.9,0,0.299939,-0.00707241,0
0.5,2,0,0.299934,-0.0070481,0
0.5,2.1,0,0.299927,-0.00701773,0
0.5,2.2,0,0.299921,-0.00698736,0
0.5,2.3,0,0.299913,-0.00695332,0
0.5,2.4,0,0.299905,-0.00691559,0
0.5,2.5,0,0.299897,-0.00687787,0
0.5,2.6,0,0.299887,-0.00683126,0
0.5,2.7,0,0.299878,-0.00678464,0
0.5,2.8,0,0.299867,-0.0067327,0
0.5,2.9,0,0.299855,-0.00667542,0
0.5,3,0,0.299843,-0.00661814,0
0.5,3.1,0,0.29983,-0.00654819,0
0.5,3.2,0,0.299816,-0.00647823,0
0.5,3.3,0,0.299801,-0.00640083,0
0.5,3.4,0,0.299785,-0.00631599,0
0.5,3.5,0,0.299768,-0.00623115,0
0.5,3.6,0,0.29975,-0.00612909,0
0.5,3.7,0,0.299732,-0.00602703,0
0.5,3.8,0,0.299712,-0.00591516,0
0.5,3.9,0,0.299691,-0.00579349,0
0.5,4,0,0.29967,-0.00567183,0
0.5,4.1,0,0.299647,-0.00552824,0
0.5,4.2,0,0.299624,-0.00538464,0
0.5,4.3,0,0.2996,-0.00522914,0
0.5,4.4,0,0.299575,-0.00506171,0
0.5,4.5,0,0.29955,-0.00489429,0
0.5,4.6,0,0.299525,-0.00470285,0
0.5,4.7,0,0.2995,-0.00451142,0
0.5,4.8,0,0.299477,-0.00433043,0
0.5,4.9,0,0.299457,-0.00415989,0
0.5,5,0,0.299437,-0.00398935,0
0.5,5.1,0,0.299402,-0.00364409,0
0.5,5.2,0,0.299379,-0.00339905,0
0.5,5.3,0,0.299357,-0.00314435,0
0.5,5.4,0,0.299334,-0.00288025,0
0.5,5.5,0,0.299314,-0.00260723,0
0.5,5.6,0,0.299294,-0.00232582,0
0.5,5.7,0,0.299276,-0.00203665,0
0.5,5.8,0,0.29926,-0.00174042,0
0.5,5.9,0,0.299246,-0.00143793,0
0.5,6,0,0.299234,-0.00113003,0
0.5,6.1,0,0.299224,-0.000817654,0
0.5,6.2,0,0.299217,-0.000501782,0
0.5,6.3,0,0.299212,-0.000183451,0
0.5,6.4,0,0.29921,0.000136271,0
0.5,6.5,0,0.29921,0.00045629,0
0.5,6.6,0,0.299213,0.000775503,0
0.5,6.7,0,0.299218,0.00109281,0
0.5,6.8,0,0.299226,0.00140709,0
0.5,6.9,0,0.299235,0.00171737,0
0.5,7,0,0.299254,0.00219433,0
0.5,7.1,0,0.299268,0.00242475,0
0.5,7.2,0,0.299281,0.00265516,0
0.5,7.3,0,0.299297,0.00289131,0
0.5,7.4,0,0.299319,0.00315993,0
0.5,7.5,0,0.299342,0.00342856,0
0.5,7.6,0,0.299366,0.00368889,0
0.5,7.7,0,0.299393,0.00392986,0
0.5,7.8,0,0.29942,0.00417084,0
0.5,7.9,0,0.299447,0.00439776,0
0.5,8,0,0.299475,0.00460749,0
0.5,8.1,0,0.299503,0.00481723,0
0.5,8.2,0,0.299532,0.0050078,0
0.5,8.3,0,0.29956,0.0051856,0
0.5,8.4,0,0.299588,0.00536339,0
0.5,8.5,0,0.299615,0.00551801,0
0.5,8.6,0,0.299641,0.0056649,0
0.5,8.7,0,0.299668,0.00581179,0
0.5,8.8,0,0.299692,0.00593293,0
0.5,8.9,0,0.299716,0.0060512,0
0.5,9,0,0.29974,0.0061682,0
0.5,9.1,0,0.299761,0.006261,0
0.5,9.2,0,0.299782,0.0063538,0
0.5,9.3,0,0.299802,0.00644221,0
0.5,9.4,0,0.29982,0.00651309,0
0.5,9.5,0,0.299837,0.00658397,0
0.5,9.6,0,0.299854,0.00664847,0
0.5,9.7,0,0.299869,0.00670109,0
0.5,9.8,0,0.299883,0.00675371,0
0.5,9.9,0,0.299896,0.00679895,0
0.5,10,0,0.299908,0.00683682,0
0.5,10.1,0,0.299919,0.00687468,0
0.5,10.2,0,0.299929,0.00690503,0
0.5,10.3,0,0.299938,0.00693132,0
0.5,10.4,0,0.299947,0.00695761,0
0.5,10.5,0,0.299954,0.00697687,0
0.5,10.6,0,0.299961,0.00699436,0
0.5,10.7,0,0.299967,0.00701186,0
0.5,10.8,0,0.299972,0.00702322,0
0.5,10.9,0,0.299977,0.00703426,0
0.5,11,0,0.299981,0.00704484,0
0.5,11.1,0,0.299984,0.00705134,0
0.5,11.2,0,0.299987,0.00705783,0
0.5,11.3,0,0.29999,0.00706357,0
0.5,11.4,0,0.299992,0.00706705,0
0.5,11.5,0,0.299994,0.00707052,0
0.5,11.6,0,0.299996,0.00707325,0
0.5,11.7,0,0.299997,0.00707485,0
0.5,11.8,0,0.299998,0.00707646,0
0.5,11.9,0,0.299999,0.00707751,0
0.5,12,0,0.299999,0.00707809,0
0.5,12.1,0,0.3,0.00707867,0
0.5,12.2,0,0.3,0.00707892,0
0.5,12.3,0,0.3,0.00707903,0
0.5,12.4,0,0.3,0.00707914,0
0.5,12.5,0,0.3,0.00707915,0
0.5,12.6,0,0.3,0.00707915,0
0.5,12.7,0,0.3,0.00707914,0
0.6,0,0,0.299994,-0.00876176,0
0.6,0.1,0,0.299995,-0.00874963,0
0.6,0.2,0,0.299993,-0.00875348,0
0.6,0.3,0,0.29999,-0.00875034,0
0.6,0.4,0,0.299987,-0.0087409,0
0.6,0.5,0,0.299982,-0.00874676,0
0.6,0.6,0,0.29998,-0.00872865,0
0.6,0.7,0,0.299976,-0.00872693,0
0.6,0.8,0,0.299972,-0.00871764,0
0.6,0.9,0,0.29997,-0.00870269,0
0.6,1,0,0.299963,-0.00870179,0
0.6,1.1,0,0.299962,-0.00867718,0
0.6,1.2,0,0.299956,-0.00866888,0
0.6,1.3,0,0.299951,-0.00865214,0
0.6,1.4,0,0.299949,-0.00863027,0
0.6,1.5,0,0.299938,-0.00862068,0
0.6,1.6,0,0.299936,-0.00858737,0
0.6,1.7,0,0.299927,-0.00857014,0
0.6,1.8,0,0.29992,-0.00854305,0
0.6,1.9,0,0.299916,-0.00851138,0
0.6,2,0,0.2999,-0.00848957,0
0.6,2.1,0,0.299899,-0.00844356,0
0.6,2.2,0,0.299886,-0.00841346,0
0.6,2.3,0,0.299875,-0.00837126,0
0.6,2.4,0,0.29987,-0.00832513,0
0.6,2.5,0,0.299846,-0.00828563,0
0.6,2.6,0,0.299843,-0.00822067,0
0.6,2.7,0,0.299824,-0.00817181,0
0.6,2.8,0,0.299808,-0.00810748,0
0.6,2.9,0,0.299801,-0.00804006,0
0.6,3,0,0.299766,-0.00797508,0
0.6,3.1,0,0.299763,-0.00788243,0
0.6,3.2,0,0.299735,-0.00780675,0
0.6,3.3,0,0.299713,-0.00771079,0
0.6,3.4,0,0.299703,-0.00761311,0
0.6,3.5,0,0.299654,-0.00751249,0
0.6,3.6,0,0.299652,-0.00738114,0
0.6,3.7,0,0.299614,-0.00726869,0
0.6,3.8,0,0.299584,-0.00712967,0
0.6,3.9,0,0.299573,-0.00699125,0
0.6,4,0,0.299507,-0.0068431,0
0.6,4.1,0,0.299508,-0.00666116,0
0.6,4.2,0,0.299458,-0.00650112,0
0.6,4.3,0,0.299422,-0.00630719,0
0.6,4.4,0,0.299412,-0.00611779,0
0.6,4.5,0,0.299328,-0.00591073,0
0.6,4.6,0,0.299337,-0.00566847,0
0.6,4.7,0,0.299278,-0.00545433,0
0.6,4.8,0,0.299239,-0.00520056,0
0.6,4.9,0,0.299236,-0.00497994,0
0.6,5,0,0.299155,-0.00482286,0
0.6,5.1,0,0.2991,-0.00440663,0
0.6,5.2,0,0.299065,-0.00411112,0
0.6,5.3,0,0.29903,-0.00380383,0
0.6,5.4,0,0.298996,-0.00348507,0
0.6,5.5,0,0.298964,-0.00315541,0
0.6,5.6,0,0.298935,-0.00281548,0
0.6,5.7,0,0.298907,-0.00246603,0
0.6,5.8,0,0.298883,-0.00210793,0
0.6,5.9,0,0.298861,-0.00174212,0
0.6,6,0,0.298843,-0.00136966,0
0.6,6.1,0,0.298828,-0.000991666,0
0.6,6.2,0,0.298817,-0.000609352,0
0.6,6.3,0,0.298809,-0.000223983,0
0.6,6.4,0,0.298806,0.000163131,0
0.6,6.5,0,0.298807,0.00055065,0
0.6,6.6,0,0.298811,0.000937216,0
0.6,6.7,0,0.29882,0.00132148,0
0.6,6.8,0,0.298832,0.00170208,0
0.6,6.9,0,0.298848,0.00207781,0
0.6,7,0,0.298878,0.00265505,0
0.6,7.1,0,0.298961,0.00287255,0
0.6,7.2,0,0.29897,0.00313982,0
0.6,7.3,0,0.298955,0.00350017,0
0.6,7.4,0,0.299051,0.00384054,0
0.6,7.5,0,0.299054,0.00413866,0
0.6,7.6,0,0.299068,0.00446571,0
0.6,7.7,0,0.299154,0.00476215,0
0.6,7.8,0,0.299159,0.00503745,0
0.6,7.9,0,0.299196,0.0053221,0
0.6,8,0,0.299269,0.00557131,0
0.6,8.1,0,0.299275,0.00581791,0
0.6,8.2,0,0.299327,0.00605709,0
0.6,8.3,0,0.299386,0.00626069,0
0.6,8.4,0,0.299393,0.00647577,0
0.6,8.5,0,0.299453,0.00666974,0
0.6,8.6,0,0.299498,0.00683303,0
0.6,8.7,0,0.299507,0.00701457,0
0.6,8.8,0,0.299568,0.00716598,0
0.6,8.9,0,0.2996,0.00729679,0
0.6,9,0,0.299613,0.00744181,0
0.6,9.1,0,0.29967,0.00755655,0
0.6,9.2,0,0.299691,0.00765917,0
0.6,9.3,0,0.299709,0.00776905,0
0.6,9.4,0,0.299754,0.00785415,0
0.6,9.5,0,0.299768,0.00793424,0
0.6,9.6,0,0.299788,0.00801423,0
0.6,9.7,0,0.29982,0.00807425,0
0.6,9.8,0,0.299832,0.00813679,0
0.6,9.9,0,0.299851,0.0081921,0
0.6,10,0,0.299873,0.00823294,0
0.6,10.1,0,0.299883,0.0082811,0
0.6,10.2,0,0.2999,0.00831656,0
0.6,10.3,0,0.299915,0.00834328,0
0.6,10.4,0,0.299922,0.00838017,0
0.6,10.5,0,0.299936,0.00839999,0
0.6,10.6,0,0.299945,0.00841768,0
0.6,10.7,0,0.299951,0.0084453,0
0.6,10.8,0,0.299962,0.008453,0
0.6,10.9,0,0.299967,0.00846546,0
0.6,11,0,0.299972,0.00848391,0
0.6,11.1,0,0.299979,0.00848431,0
0.6,11.2,0,0.299982,0.0084941,0
0.6,11.3,0,0.299986,0.0085048,0
0.6,11.4,0,0.29999,0.00850175,0
0.6,11.5,0,0.299992,0.00851004,0
0.6,11.6,0,0.299994,0.00851486,0
0.6,11.7,0,0.299996,0.00851041,0
0.6,11.8,0,0.299997,0.00851819,0
0.6,11.9,0,0.299998,0.00851847,0
0.6,12,0,0.299999,0.0085139,0
0.6,12.1,0,0.299999,0.00852207,0
0.6,12.2,0,0.3,0.0085187,0
0.6,12.3,0,0.3,0.00851483,0
0.6,12.4,0,0.3,0.00852399,0
0.6,12.5,0,0.3,0.00851753,0
0.6,12.6,0,0.3,0.00851614,0
0.6,12.7,0,0.3,0.00852538,0
0.7,0,0,0.299992,-0.0102502,0
0.7,0.1,0,0.299992,-0.0102431,0
0.7,0.2,0,0.299989,-0.0102411,0
0.7,0.3,0,0.299986,-0.010238,0
0.7,0.4,0,0.299981,-0.0102322,0
0.7,0.5,0,0.299976,-0.0102323,0
0.7,0.6,0,0.299972,-0.0102185,0
0.7,0.7,0,0.299967,-0.0102091,0
0.7,0.8,0,0.299963,-0.0101998,0
0.7,0.9,0,0.299957,-0.0101865,0
0.7,1,0,0.299951,-0.0101793,0
0.7,1.1,0,0.299946,-0.0101581,0
0.7,1.2,0,0.299939,-0.0101403,0
0.7,1.3,0,0.299934,-0.0101235,0
0.7,1.4,0,0.299926,-0.0101005,0
0.7,1.5,0,0.299917,-0.0100842,0
0.7,1.6,0,0.299911,-0.010053,0
0.7,1.7,0,0.2999,-0.0100238,0
0.7,1.8,0,0.299893,-0.00999674,0
0.7,1.9,0,0.299881,-0.00996021,0
0.7,2,0,0.299867,-0.00993104,0
0.7,2.1,0,0.299859,-0.0098853,0
0.7,2.2,0,0.299844,-0.00983982,0
0.7,2.3,0,0.299833,-0.00979763,0
0.7,2.4,0,0.299815,-0.00974131,0
0.7,2.5,0,0.299794,-0.0096934,0
0.7,2.6,0,0.299782,-0.00962618,0
0.7,2.7,0,0.299761,-0.00955672,0
0.7,2.8,0,0.299745,-0.00949239,0
0.7,2.9,0,0.299719,-0.00940714,0
0.7,3,0,0.299688,-0.00933202,0
0.7,3.1,0,0.299672,-0.00923364,0
0.7,3.2,0,0.299641,-0.00912955,0
0.7,3.3,0,0.299618,-0.00903359,0
0.7,3.4,0,0.299582,-0.00890728,0
0.7,3.5,0,0.29954,-0.00879382,0
0.7,3.6,0,0.299518,-0.00865208,0
0.7,3.7,0,0.299477,-0.00849995,0
0.7,3.8,0,0.299447,-0.00836094,0
0.7,3.9,0,0.299401,-0.00817927,0
0.7,4,0,0.299344,-0.00801437,0
0.7,4.1,0,0.299319,-0.00781598,0
0.7,4.2,0,0.299267,-0.00760114,0
0.7,4.3,0,0.299231,-0.00740722,0
0.7,4.4,0,0.299175,-0.00715621,0
0.7,4.5,0,0.299106,-0.00692718,0
0.7,4.6,0,0.299081,-0.00666221,0
0.7,4.7,0,0.299023,-0.00637454,0
0.7,4.8,0,0.298984,-0.00612078,0
0.7,4.9,0,0.298938,-0.00586353,0
0.7,5,0,0.298874,-0.00565636,0
0.7,5.1,0,0.298799,-0.00516917,0
0.7,5.2,0,0.29875,-0.00482319,0
0.7,5.3,0,0.298703,-0.00446331,0
0.7,5.4,0,0.298658,-0.00408989,0
0.7,5.5,0,0.298615,-0.00370359,0
0.7,5.6,0,0.298575,-0.00330514,0
0.7,5.7,0,0.298538,-0.00289542,0
0.7,5.8,0,0.298505,-0.00247544,0
0.7,5.9,0,0.298476,-0.00204632,0
0.7,6,0,0.298451,-0.00160928,0
0.7,6.1,0,0.298431,-0.00116568,0
0.7,6.2,0,0.298417,-0.000716922,0
0.7,6.3,0,0.298407,-0.000264514,0
0.7,6.4,0,0.298402,0.000189992,0
0.7,6.5,0,0.298403,0.000645009,0
0.7,6.6,0,0.29841,0.00109893,0
0.7,6.7,0,0.298421,0.00155016,0
0.7,6.8,0,0.298438,0.00199707,0
0.7,6.9,0,0.29846,0.00243824,0
0.7,7,0,0.298503,0.00311576,0
0.7,7.1,0,0.298564,0.0033906,0
0.7,7.2,0,0.298598,0.00374143,0
0.7,7.3,0,0.298602,0.00409816,0
0.7,7.4,0,0.298673,0.00447813,0
0.7,7.5,0,0.298726,0.00488625,0
0.7,7.6,0,0.298749,0.00522273,0
0.7,7.7,0,0.29882,0.00557219,0
0.7,7.8,0,0.298879,0.00593604,0
0.7,7.9,0,0.298915,0.00622069,0
0.7,8,0,0.298982,0.00653148,0
0.7,8.1,0,0.299035,0.00683853,0
0.7,8.2,0,0.299086,0.00707896,0
0.7,8.3,0,0.299149,0.00734643,0
0.7,8.4,0,0.299193,0.00759861,0
0.7,8.5,0,0.299249,0.00779882,0
0.7,8.6,0,0.299309,0.00801887,0
0.7,8.7,0,0.299344,0.00822082,0
0.7,8.8,0,0.299401,0.00838158,0
0.7,8.9,0,0.299455,0.00855799,0
0.7,9,0,0.299484,0.00871433,0
0.7,9.1,0,0.299536,0.00884013,0
0.7,9.2,0,0.299583,0.00897793,0
0.7,9.3,0,0.29961,0.00909286,0
0.7,9.4,0,0.299652,0.00919071,0
0.7,9.5,0,0.299691,0.00929552,0
0.7,9.6,0,0.299714,0.00937672,0
0.7,9.7,0,0.299747,0.00945079,0
0.7,9.8,0,0.299778,0.00952761,0
0.7,9.9,0,0.299797,0.00958292,0
0.7,10,0,0.299823,0.00963755,0
0.7,10.1,0,0.299845,0.00969207,0