x,y,z,U_0,U_1,U_2
0,0,0,0.300042,-0.00141723,0
0,0.1,0,0.300025,-0.000850337,0
0,0.2,0,0.300008,-0.000283446,0
0,0.3,0,0.3,0,0
0,0.4,0,0.3,0,0
0,0.5,0,0.3,0,0
0,0.6,0,0.3,0,0
0,0.7,0,0.3,0,0
0,0.8,0,0.3,0,0
0,0.9,0,0.3,0,0
0,1,0,0.3,0,0
0,1.1,0,0.3,0,0
0,1.2,0,0.3,0,0
0,1.3,0,0.3,0,0
0,1.4,0,0.3,0,0
0,1.5,0,0.3,0,0
0,1.6,0,0.3,0,0
0,1.7,0,0.3,0,0
0,1.8,0,0.3,0,0
0,1.9,0,0.3,0,0
0,2,0,0.3,0,0
0,2.1,0,0.3,0,0
0,2.2,0,0.3,0,0
0,2.3,0,0.3,0,0
0,2.4,0,0.3,0,0
0,2.5,0,0.3,0,0
0,2.6,0,0.3,0,0
0,2.7,0,0.3,0,0
0,2.8,0,0.3,0,0
0,2.9,0,0.3,0,0
0,3,0,0.3,0,0
0,3.1,0,0.3,0,0
0,3.2,0,0.3,0,0
0,3.3,0,0.3,0,0
0,3.4,0,0.3,0,0
0,3.5,0,0.3,0,0
0,3.6,0,0.3,0,0
0,3.7,0,0.3,0,0
0,3.8,0,0.3,0,0
0,3.9,0,0.3,0,0
0,4,0,0.3,0,0
0,4.1,0,0.3,0,0
0,4.2,0,0.3,0,0
0,4.3,0,0.3,0,0
0,4.4,0,0.3,0,0
0,4.5,0,0.3,0,0
0,4.6,0,0.3,0,0
0,4.7,0,0.3,0,0
0,4.8,0,0.3,0,0
0,4.9,0,0.3,0,0
0,5,0,0.3,0,0
0,5.1,0,0.3,0,0
0,5.2,0,0.3,0,0
0,5.3,0,0.3,0,0
0,5.4,0,0.3,0,0
0,5.5,0,0.3,0,0
0,5.6,0,0.3,0,0
0,5.7,0,0.3,0,0
0,5.8,0,0.3,0,0
0,5.9,0,0.3,0,0
0,6,0,0.3,0,0
0,6.1,0,0.3,0,0
0,6.2,0,0.3,0,0
0,6.3,0,0.3,0,0
0,6.4,0,0.3,0,0
0,6.5,0,0.3,0,0
0,6.6,0,0.3,0,0
0,6.7,0,0.3,0,0
0,6.8,0,0.3,0,0
0,6.9,0,0.3,0,0
0,7,0,0.3,0,0
0,7.1,0,0.3,0,0
0,7.2,0,0.3,0,0
0,7.3,0,0.3,0,0
0,7.4,0,0.3,0,0
0,7.5,0,0.3,0,0
0,7.6,0,0.3,0,0
0,7.7,0,0.3,0,0
0,7.8,0,0.3,0,0
0,7.9,0,0.3,0,0
0,8,0,0.3,0,0
0,8.1,0,0.3,0,0
0,8.2,0,0.3,0,0
0,8.3,0,0.3,0,0
0,8.4,0,0.3,0,0
0,8.5,0,0.3,0,0
0,8.6,0,0.3,0,0
0,8.7,0,0.3,0,0
0,8.8,0,0.3,0,0
0,8.9,0,0.3,0,0
0,9,0,0.3,0,0
0,9.1,0,0.3,0,0
0,9.2,0,0.3,0,0
0,9.3,0,0.3,0,0
0,9.4,0,0.3,0,0
0,9.5,0,0.3,0,0
0,9.6,0,0.3,0,0
0,9.7,0,0.3,0,0
0,9.8,0,0.3,0,0
0,9.9,0,0.3,0,0
0,10,0,0.3,0,0
0,10.1,0,0.3,0,0
0,10.2,0,0.3,0,0
0,10.3,0,0.3,0,0
0,10.4,0,0.3,0,0
0,10.5,0,0.3,0,0
0,10.6,0,0.3,0,0
0,10.7,0,0.3,0,0
0,10.8,0,0.3,0,0
0,10.9,0,0.3,0,0
0,11,0,0.3,0,0
0,11.1,0,0.3,0,0
0,11.2,0,0.3,0,0
0,11.3,0,0.3,0,0
0,11.4,0,0.3,0,0
0,11.5,0,0.3,0,0
0,11.6,0,0.3,0,0
0,11.7,0,0.3,0,0
0,11.8,0,0.3,0,0
0,11.9,0,0.3,0,0
0,12,0,0.3,0,0
0,12.1,0,0.3,0,0
0,12.2,0,0.3,0,0
0,12.3,0,0.3,0,0
0,12.4,0,0.3,0,0
0,12.5,0,0.300012,0.000424327,0
0,12.6,0,0.300027,0.000923536,0
0,12.7,0,0.300041,0.00142274,0
0.1,0,0,0.3,-0.00208647,0
0.1,0.1,0,0.300047,-0.00157294,0
0.1,0.2,0,0.30003,-0.00100605,0
0.1,0.3,0,0.300029,-0.000909114,0
0.1,0.4,0,0.300029,-0.000909114,0
0.1,0.5,0,0.299959,-0.000866062,0
0.1,0.6,0,0.300028,-0.000876498,0
0.1,0.7,0,0.300028,-0.000876498,0
0.1,0.8,0,0.300026,-0.000845237,0
0.1,0.9,0,0.300026,-0.000845237,0
0.1,1,0,0.299956,-0.000831505,0
0.1,1.1,0,0.300025,-0.000812966,0
0.1,1.2,0,0.300025,-0.000812966,0
0.1,1.3,0,0.300024,-0.000780055,0
0.1,1.4,0,0.300024,-0.000780055,0
0.1,1.5,0,0.299955,-0.000785147,0
0.1,1.6,0,0.300024,-0.000746683,0
0.1,1.7,0,0.300024,-0.000746683,0
0.1,1.8,0,0.300024,-0.000712625,0
0.1,1.9,0,0.300024,-0.000712625,0
0.1,2,0,0.299953,-0.000728761,0
0.1,2.1,0,0.300024,-0.000677769,0
0.1,2.2,0,0.300024,-0.000677769,0
0.1,2.3,0,0.300024,-0.000642095,0
0.1,2.4,0,0.300024,-0.000642095,0
0.1,2.5,0,0.299951,-0.000663574,0
0.1,2.6,0,0.300023,-0.000605603,0
0.1,2.7,0,0.300023,-0.000605603,0
0.1,2.8,0,0.300023,-0.000568317,0
0.1,2.9,0,0.300023,-0.000568317,0
0.1,3,0,0.299949,-0.000590975,0
0.1,3.1,0,0.300023,-0.00053028,0
0.1,3.2,0,0.300023,-0.00053028,0
0.1,3.3,0,0.300023,-0.000491548,0
0.1,3.4,0,0.300023,-0.000491548,0
0.1,3.5,0,0.299948,-0.000512275,0
0.1,3.6,0,0.300023,-0.000452175,0
0.1,3.7,0,0.300023,-0.000452175,0
0.1,3.8,0,0.300023,-0.000412228,0
0.1,3.9,0,0.300023,-0.000412228,0
0.1,4,0,0.299946,-0.000428676,0
0.1,4.1,0,0.300023,-0.000371782,0
0.1,4.2,0,0.300023,-0.000371782,0
0.1,4.3,0,0.300022,-0.000330908,0
0.1,4.4,0,0.300022,-0.000330908,0
0.1,4.5,0,0.299945,-0.000341272,0
0.1,4.6,0,0.300022,-0.000289692,0
0.1,4.7,0,0.300022,-0.000289692,0
0.1,4.8,0,0.300022,-0.000248238,0
0.1,4.9,0,0.300022,-0.000248238,0
0.1,5,0,0.299944,-0.000253247,0
0.1,5.1,0,0.300022,-0.000210728,0
0.1,5.2,0,0.299944,-0.000214291,0
0.1,5.3,0,0.300022,-0.000177157,0
0.1,5.4,0,0.299944,-0.000177243,0
0.1,5.5,0,0.300022,-0.000143481,0
0.1,5.6,0,0.299944,-0.000139986,0
0.1,5.7,0,0.300022,-0.000109742,0
0.1,5.8,0,0.299944,-0.00010257,0
0.1,5.9,0,0.300022,-7.59492e-05,0
0.1,6,0,0.299944,-6.50365e-05,0
0.1,6.1,0,0.300022,-4.21148e-05,0
0.1,6.2,0,0.299944,-2.74291e-05,0
0.1,6.3,0,0.300022,-8.25037e-06,0
0.1,6.4,0,0.299944,1.02094e-05,0
0.1,6.5,0,0.300022,2.56375e-05,0
0.1,6.6,0,0.299944,4.78439e-05,0
0.1,6.7,0,0.300022,5.95468e-05,0
0.1,6.8,0,0.299944,8.54303e-05,0
0.1,6.9,0,0.300021,9.34354e-05,0
0.1,7,0,0.299944,0.000126682,0
0.1,7.1,0,0.300021,0.000134322,0
0.1,7.2,0,0.300021,0.000134322,0
0.1,7.3,0,0.29997,0.000178057,0
0.1,7.4,0,0.300021,0.000182325,0
0.1,7.5,0,0.300021,0.000182325,0
0.1,7.6,0,0.299996,0.000229613,0
0.1,7.7,0,0.300021,0.000230212,0
0.1,7.8,0,0.300021,0.000230212,0
0.1,7.9,0,0.30002,0.000277791,0
0.1,8,0,0.30002,0.000277791,0
0.1,8.1,0,0.300014,0.000282496,0
0.1,8.2,0,0.30002,0.000324932,0
0.1,8.3,0,0.30002,0.000324932,0
0.1,8.4,0,0.299988,0.000349337,0
0.1,8.5,0,0.30002,0.000371526,0
0.1,8.6,0,0.30002,0.000371526,0
0.1,8.7,0,0.299963,0.000417381,0
0.1,8.8,0,0.300021,0.000417477,0
0.1,8.9,0,0.300021,0.000417477,0
0.1,9,0,0.299956,0.000477042,0
0.1,9.1,0,0.300021,0.000462698,0
0.1,9.2,0,0.300021,0.000462698,0
0.1,9.3,0,0.299981,0.00051706,0
0.1,9.4,0,0.300021,0.00050712,0
0.1,9.5,0,0.300021,0.00050712,0
0.1,9.6,0,0.300006,0.00055462,0
0.1,9.7,0,0.300021,0.000550671,0
0.1,9.8,0,0.300021,0.000550671,0
0.1,9.9,0,0.300021,0.000593286,0
0.1,10,0,0.300021,0.000593286,0
0.1,10.1,0,0.300007,0.000605552,0
0.1,10.2,0,0.300022,0.000634905,0
0.1,10.3,0,0.300022,0.000634905,0
0.1,10.4,0,0.299984,0.000666282,0
0.1,10.5,0,0.300022,0.000675517,0
0.1,10.6,0,0.300022,0.000675517,0
0.1,10.7,0,0.299961,0.00072248,0
0.1,10.8,0,0.300022,0.00071512,0
0.1,10.9,0,0.300022,0.00071512,0
0.1,11,0,0.29997,0.000759801,0
0.1,11.1,0,0.300022,0.000753732,0
0.1,11.2,0,0.300022,0.000753732,0
0.1,11.3,0,0.299994,0.000791621,0
0.1,11.4,0,0.300023,0.000791692,0
0.1,11.5,0,0.300023,0.000791692,0
0.1,11.6,0,0.300018,0.00082815,0
0.1,11.7,0,0.300024,0.000829102,0
0.1,11.8,0,0.300024,0.000829102,0
0.1,11.9,0,0.300026,0.000865243,0
0.1,12,0,0.300026,0.000865243,0
0.1,12.1,0,0.300005,0.000863707,0
0.1,12.2,0,0.300028,0.000902655,0
0.1,12.3,0,0.300028,0.000902655,0
0.1,12.4,0,0.299985,0.000885945,0
0.1,12.5,0,0.300033,0.00114534,0
0.1,12.6,0,0.300048,0.00164454,0
0.1,12.7,0,0.3,0.00208966,0
0.2,0,0,0.299958,-0.00275571,0
0.2,0.1,0,0.300068,-0.00229554,0
0.2,0.2,0,0.30001,-0.00183894,0
0.2,0.3,0,0.300011,-0.00179796,0
0.2,0.4,0,0.300057,-0.00181823,0
0.2,0.5,0,0.299919,-0.00173212,0
0.2,0.6,0,0.300055,-0.001753,0
0.2,0.7,0,0.300006,-0.00173476,0
0.2,0.8,0,0.300004,-0.00169412,0
0.2,0.9,0,0.300052,-0.00169047,0
0.2,1,0,0.299913,-0.00166301,0
0.2,1.1,0,0.30005,-0.00162593,0
0.2,1.2,0,0.300001,-0.00162358,0
0.2,1.3,0,0.300001,-0.0015808,0
0.2,1.4,0,0.300049,-0.00156011,0
0.2,1.5,0,0.29991,-0.00157029,0
0.2,1.6,0,0.300048,-0.00149337,0
0.2,1.7,0,0.299999,-0.00150139,0
0.2,1.8,0,0.299999,-0.00145712,0
0.2,1.9,0,0.300048,-0.00142525,0
0.2,2,0,0.299907,-0.00145752,0
0.2,2.1,0,0.300047,-0.00135554,0
0.2,2.2,0,0.299997,-0.00136912,0
0.2,2.3,0,0.299997,-0.00132275,0
0.2,2.4,0,0.300047,-0.00128419,0
0.2,2.5,0,0.299902,-0.00132715,0
0.2,2.6,0,0.300047,-0.00121121,0
0.2,2.7,0,0.299996,-0.00122697,0
0.2,2.8,0,0.299996,-0.00117849,0
0.2,2.9,0,0.300047,-0.00113663,0
0.2,3,0,0.299899,-0.00118195,0
0.2,3.1,0,0.300046,-0.00106056,0
0.2,3.2,0,0.299994,-0.00107598,0
0.2,3.3,0,0.299994,-0.00102563,0
0.2,3.4,0,0.300046,-0.000983095,0
0.2,3.5,0,0.299895,-0.00102455,0
0.2,3.6,0,0.300046,-0.000904351,0
0.2,3.7,0,0.299992,-0.00091754,0
0.2,3.8,0,0.299992,-0.000865608,0
0.2,3.9,0,0.300046,-0.000824455,0
0.2,4,0,0.299892,-0.000857352,0
0.2,4.1,0,0.300046,-0.000743563,0
0.2,4.2,0,0.299991,-0.000753085,0
0.2,4.3,0,0.299991,-0.000699949,0
0.2,4.4,0,0.300045,-0.000661815,0
0.2,4.5,0,0.29989,-0.000682545,0
0.2,4.6,0,0.300045,-0.000579384,0
0.2,4.7,0,0.29999,-0.000584123,0
0.2,4.8,0,0.29999,-0.000530232,0
0.2,4.9,0,0.300045,-0.000496475,0
0.2,5,0,0.299889,-0.000506494,0
0.2,5.1,0,0.300045,-0.000421455,0
0.2,5.2,0,0.299888,-0.000428581,0
0.2,5.3,0,0.300045,-0.000354313,0
0.2,5.4,0,0.299888,-0.000354486,0
0.2,5.5,0,0.300045,-0.000286962,0
0.2,5.6,0,0.299888,-0.000279973,0
0.2,5.7,0,0.300044,-0.000219484,0
0.2,5.8,0,0.299887,-0.000205141,0
0.2,5.9,0,0.300044,-0.000151898,0
0.2,6,0,0.299887,-0.000130073,0
0.2,6.1,0,0.300044,-8.42295e-05,0
0.2,6.2,0,0.299887,-5.48581e-05,0
0.2,6.3,0,0.300044,-1.65007e-05,0
0.2,6.4,0,0.299887,2.04188e-05,0
0.2,6.5,0,0.300044,5.1275e-05,0
0.2,6.6,0,0.299887,9.56878e-05,0
0.2,6.7,0,0.300043,0.000119094,0
0.2,6.8,0,0.299887,0.000170861,0
0.2,6.9,0,0.300042,0.000186871,0
0.2,7,0,0.299887,0.000253363,0
0.2,7.1,0,0.300042,0.000268644,0
0.2,7.2,0,0.300037,0.000271194,0
0.2,7.3,0,0.299914,0.000353896,0
0.2,7.4,0,0.300041,0.000364649,0
0.2,7.5,0,0.30001,0.000383207,0
0.2,7.6,0,0.299941,0.00045793,0
0.2,7.7,0,0.300041,0.000460424,0
0.2,7.8,0,0.299985,0.000497716,0
0.2,7.9,0,0.299967,0.000557955,0
0.2,8,0,0.300041,0.000555583,0
0.2,8.1,0,0.299959,0.000613914,0
0.2,8.2,0,0.299993,0.000653961,0
0.2,8.3,0,0.300041,0.000649865,0
0.2,8.4,0,0.299934,0.000731049,0
0.2,8.5,0,0.300019,0.000746001,0
0.2,8.6,0,0.300041,0.000743052,0
0.2,8.7,0,0.29991,0.000848309,0
0.2,8.8,0,0.300041,0.000834954,0
0.2,8.9,0,0.300041,0.000834954,0
0.2,9,0,0.299903,0.000955931,0
0.2,9.1,0,0.300041,0.000925397,0
0.2,9.2,0,0.300029,0.000936397,0
0.2,9.3,0,0.299929,0.00104246,0
0.2,9.4,0,0.300042,0.00101424,0
0.2,9.5,0,0.300005,0.00104691,0
0.2,9.6,0,0.299955,0.00112487,0
0.2,9.7,0,0.300042,0.00110134,0
0.2,9.8,0,0.299981,0.00115511,0
0.2,9.9,0,0.299981,0.00120371,0
0.2,10,0,0.300042,0.00118657,0
0.2,10.1,0,0.299958,0.00125963,0
0.2,10.2,0,0.300007,0.00127973,0
0.2,10.3,0,0.300043,0.00126981,0
0.2,10.4,0,0.299936,0.00135888,0
0.2,10.5,0,0.300031,0.00135403,0
0.2,10.6,0,0.300044,0.00135103,0
0.2,10.7,0,0.299915,0.001451,0
0.2,10.8,0,0.300044,0.00143024,0
0.2,10.9,0,0.300044,0.00143024,0
0.2,11,0,0.299924,0.00152139,0
0.2,11.1,0,0.300045,0.00150746,0
0.2,11.2,0,0.300025,0.00151841,0
0.2,11.3,0,0.299949,0.00158315,0
0.2,11.4,0,0.300046,0.00158338,0
0.2,11.5,0,0.300003,0.00160016,0
0.2,11.6,0,0.299974,0.0016464,0
0.2,11.7,0,0.300048,0.0016582,0
0.2,11.8,0,0.299982,0.00167021,0
0.2,11.9,0,0.3,0.00171273,0
0.2,12,0,0.300052,0.00173049,0
0.2,12.1,0,0.299963,0.00172409,0
0.2,12.2,0,0.300028,0.00178825,0
0.2,12.3,0,0.300057,0.00180531,0
0.2,12.4,0,0.299947,0.0017632,0
0.2,12.5,0,0.300051,0.00187594,0
0.2,12.6,0,0.300069,0.00236555,0
0.2,12.7,0,0.299958,0.00275658,0
0.3,0,0,0.299915,-0.00342495,0
0.3,0.1,0,0.300064,-0.0029968,0
0.3,0.2,0,0.299973,-0.0027191,0
0.3,0.3,0,0.299973,-0.00267812,0
0.3,0.4,0,0.300058,-0.00271012,0
0.3,0.5,0,0.299878,-0.00259818,0
0.3,0.6,0,0.300056,-0.00262532,0
0.3,0.7,0,0.299963,-0.00258521,0
0.3,0.8,0,0.299961,-0.00254457,0
0.3,0.9,0,0.300051,-0.00253022,0
0.3,1,0,0.299869,-0.00249452,0
0.3,1.1,0,0.300047,-0.00244631,0
0.3,1.2,0,0.299957,-0.00243319,0
0.3,1.3,0,0.299957,-0.00239041,0
0.3,1.4,0,0.300045,-0.0023422,0
0.3,1.5,0,0.299865,-0.00235544,0
0.3,1.6,0,0.300044,-0.00225543,0
0.3,1.7,0,0.299954,-0.00225954,0
0.3,1.8,0,0.299954,-0.00221526,0
0.3,1.9,0,0.300044,-0.00214433,0
0.3,2,0,0.29986,-0.00218628,0
0.3,2.1,0,0.300043,-0.0020537,0
0.3,2.2,0,0.29995,-0.0020663,0
0.3,2.3,0,0.29995,-0.00201993,0
0.3,2.4,0,0.300042,-0.00193488,0
0.3,2.5,0,0.299854,-0.00199072,0
0.3,2.6,0,0.300041,-0.00184,0
0.3,2.7,0,0.299946,-0.00185508,0
0.3,2.8,0,0.299946,-0.00180661,0
0.3,2.9,0,0.300041,-0.00171401,0
0.3,3,0,0.299848,-0.00177293,0
0.3,3.1,0,0.30004,-0.00161512,0
0.3,3.2,0,0.299942,-0.00162829,0
0.3,3.3,0,0.299942,-0.00157794,0
0.3,3.4,0,0.300039,-0.00148293,0
0.3,3.5,0,0.299843,-0.00153682,0
0.3,3.6,0,0.300038,-0.00138057,0
0.3,3.7,0,0.299939,-0.00138856,0
0.3,3.8,0,0.299939,-0.00133663,0
0.3,3.9,0,0.300038,-0.00124326,0
0.3,4,0,0.299838,-0.00128603,0
0.3,4.1,0,0.300038,-0.0011381,0
0.3,4.2,0,0.299937,-0.00113847,0
0.3,4.3,0,0.299937,-0.00108533,0
0.3,4.4,0,0.300036,-0.000996869,0
0.3,4.5,0,0.299835,-0.00102382,0
0.3,4.6,0,0.300036,-0.000889708,0
0.3,4.7,0,0.299935,-0.000880585,0
0.3,4.8,0,0.299935,-0.000826694,0
0.3,4.9,0,0.300036,-0.000746716,0
0.3,5,0,0.299833,-0.00075974,0
0.3,5.1,0,0.300067,-0.000632183,0
0.3,5.2,0,0.299832,-0.000642872,0
0.3,5.3,0,0.300067,-0.00053147,0
0.3,5.4,0,0.299832,-0.00053173,0
0.3,5.5,0,0.300067,-0.000430444,0
0.3,5.6,0,0.299831,-0.000419959,0
0.3,5.7,0,0.300066,-0.000329226,0
0.3,5.8,0,0.299831,-0.000307711,0
0.3,5.9,0,0.300066,-0.000227848,0
0.3,6,0,0.299831,-0.000195109,0
0.3,6.1,0,0.300066,-0.000126344,0
0.3,6.2,0,0.299831,-8.22872e-05,0
0.3,6.3,0,0.300066,-2.47511e-05,0
0.3,6.4,0,0.299831,3.06282e-05,0
0.3,6.5,0,0.300066,7.69125e-05,0
0.3,6.6,0,0.299831,0.000143532,0
0.3,6.7,0,0.300065,0.00017864,0
0.3,6.8,0,0.299831,0.000256291,0
0.3,6.9,0,0.300064,0.000280306,0
0.3,7,0,0.299831,0.000380045,0
0.3,7.1,0,0.300007,0.000397471,0
0.3,7.2,0,0.299981,0.000447032,0
0.3,7.3,0,0.299858,0.000529735,0
0.3,7.4,0,0.300033,0.000544527,0
0.3,7.5,0,0.299954,0.000611524,0
0.3,7.6,0,0.299885,0.000686247,0
0.3,7.7,0,0.300059,0.000690569,0
0.3,7.8,0,0.299929,0.000777944,0
0.3,7.9,0,0.299911,0.000838183,0
0.3,8,0,0.300061,0.000833374,0
0.3,8.1,0,0.299904,0.000945333,0
0.3,8.2,0,0.299938,0.00098538,0
0.3,8.3,0,0.30005,0.000983264,0
0.3,8.4,0,0.29988,0.00111276,0
0.3,8.5,0,0.299965,0.00112771,0
0.3,8.6,0,0.300025,0.00114376,0
0.3,8.7,0,0.299856,0.00127924,0
0.3,8.8,0,0.299992,0.00126517,0
0.3,8.9,0,0.300001,0.00130361,0
0.3,9,0,0.29985,0.00143482,0
0.3,9.1,0,0.300017,0.00139789,0
0.3,9.2,0,0.299977,0.00146179,0
0.3,9.3,0,0.299877,0.00156785,0
0.3,9.4,0,0.300044,0.00152617,0
0.3,9.5,0,0.299954,0.00161716,0
0.3,9.6,0,0.299904,0.00169511,0
0.3,9.7,0,0.300063,0.00165201,0
0.3,9.8,0,0.299931,0.00176833,0
0.3,9.9,0,0.299931,0.00181692,0
0.3,10,0,0.300064,0.00177986,0
0.3,10.1,0,0.299909,0.00191372,0
0.3,10.2,0,0.299958,0.00193382,0
0.3,10.3,0,0.300046,0.0019199,0
0.3,10.4,0,0.299889,0.00205148,0
0.3,10.5,0,0.299984,0.00204663,0
0.3,10.6,0,0.300024,0.00205863,0
0.3,10.7,0,0.299868,0.00217953,0
0.3,10.8,0,0.300009,0.00215653,0
0.3,10.9,0,0.300002,0.00218939,0
0.3,11,0,0.299879,0.00228299,0
0.3,11.1,0,0.300034,0.00226506,0
0.3,11.2,0,0.299981,0.00230993,0
0.3,11.3,0,0.299904,0.00237468,0
0.3,11.4,0,0.300058,0.00237505,0
0.3,11.5,0,0.299959,0.00241841,0
0.3,11.6,0,0.29993,0.00246465,0
0.3,11.7,0,0.300072,0.0024873,0
0.3,11.8,0,0.299939,0.00251165,0
0.3,11.9,0,0.299957,0.00255417,0
0.3,12,0,0.300076,0.00259556,0
0.3,12.1,0,0.299922,0.00258447,0
0.3,12.2,0,0.299987,0.00264863,0
0.3,12.3,0,0.30006,0.00269839,0
0.3,12.4,0,0.29991,0.00264046,0
0.3,12.5,0,0.300013,0.00275319,0
0.3,12.6,0,0.300045,0.00304765,0
0.3,12.7,0,0.299916,0.00342349,0
0.4,0,0,0.299873,-0.00409419,0
0.4,0.1,0,0.300016,-0.00368179,0
0.4,0.2,0,0.299935,-0.00359925,0
0.4,0.3,0,0.299936,-0.00355827,0
0.4,0.4,0,0.300011,-0.00357329,0
0.4,0.5,0,0.299838,-0.00346425,0
0.4,0.6,0,0.300008,-0.00348878,0
0.4,0.7,0,0.299921,-0.00343566,0
0.4,0.8,0,0.299919,-0.00339502,0
0.4,0.9,0,0.3,-0.00336224,0
0.4,1,0,0.299826,-0.00332602,0
0.4,1.1,0,0.299997,-0.00327748,0
0.4,1.2,0,0.299913,-0.00324281,0
0.4,1.3,0,0.299912,-0.00320002,0
0.4,1.4,0,0.299994,-0.00313031,0
0.4,1.5,0,0.299821,-0.00314059,0
0.4,1.6,0,0.299993,-0.00304173,0
0.4,1.7,0,0.299908,-0.00301769,0
0.4,1.8,0,0.299908,-0.00297341,0
0.4,1.9,0,0.29999,-0.00287764,0
0.4,2,0,0.299813,-0.00291504,0
0.4,2.1,0,0.299989,-0.00278441,0
0.4,2.2,0,0.299902,-0.00276348,0
0.4,2.3,0,0.299902,-0.00271711,0
0.4,2.4,0,0.299986,-0.00260396,0
0.4,2.5,0,0.299805,-0.0026543,0
0.4,2.6,0,0.299985,-0.00250582,0
0.4,2.7,0,0.299896,-0.0024832,0
0.4,2.8,0,0.299896,-0.00243473,0
0.4,2.9,0,0.299982,-0.00231097,0
0.4,3,0,0.299797,-0.0023639,0
0.4,3.1,0,0.299982,-0.0022083,0
0.4,3.2,0,0.299891,-0.0021806,0
0.4,3.3,0,0.299891,-0.00213025,0
0.4,3.4,0,0.299979,-0.00200128,0
0.4,3.5,0,0.29979,-0.0020491,0
0.4,3.6,0,0.299978,-0.00189472,0
0.4,3.7,0,0.299886,-0.00185957,0
0.4,3.8,0,0.299886,-0.00180764,0
0.4,3.9,0,0.299976,-0.00167782,0
0.4,4,0,0.299785,-0.0017147,0
0.4,4.1,0,0.299976,-0.00156814,0
0.4,4.2,0,0.299883,-0.00152385,0
0.4,4.3,0,0.299882,-0.00147072,0
0.4,4.4,0,0.299974,-0.00134359,0
0.4,4.5,0,0.29978,-0.00136509,0
0.4,4.6,0,0.299974,-0.00123166,0
0.4,4.7,0,0.29988,-0.00117705,0
0.4,4.8,0,0.29988,-0.00112316,0
0.4,4.9,0,0.299973,-0.00100479,0
0.4,5,0,0.299777,-0.00101299,0
0.4,5.1,0,0.299972,-0.000877472,0
0.4,5.2,0,0.299776,-0.000857162,0
0.4,5.3,0,0.299972,-0.000736542,0
0.4,5.4,0,0.299776,-0.000708973,0
0.4,5.5,0,0.299972,-0.000596625,0
0.4,5.6,0,0.299775,-0.000559945,0
0.4,5.7,0,0.299971,-0.000456272,0
0.4,5.8,0,0.299775,-0.000410281,0
0.4,5.9,0,0.299971,-0.000315578,0
0.4,6,0,0.299774,-0.000260146,0
0.4,6.1,0,0.299971,-0.000174636,0
0.4,6.2,0,0.299774,-0.000109716,0
0.4,6.3,0,0.29997,-3.35407e-05,0
0.4,6.4,0,0.299774,4.08376e-05,0
0.4,6.5,0,0.29997,0.000107634,0
0.4,6.6,0,0.299774,0.000191376,0
0.4,6.7,0,0.299969,0.000248823,0
0.4,6.8,0,0.299774,0.000341721,0
0.4,6.9,0,0.299969,0.000392672,0
0.4,7,0,0.299775,0.000506727,0
0.4,7.1,0,0.299951,0.000524152,0
0.4,7.2,0,0.299925,0.000622871,0
0.4,7.3,0,0.299802,0.000705573,0
0.4,7.4,0,0.299967,0.000726014,0
0.4,7.5,0,0.299899,0.000839841,0
0.4,7.6,0,0.299829,0.000914564,0
0.4,7.7,0,0.299968,0.000942139,0
0.4,7.8,0,0.299874,0.00105817,0
0.4,7.9,0,0.299856,0.00111841,0
0.4,8,0,0.299968,0.00115613,0
0.4,8.1,0,0.299849,0.00127675,0
0.4,8.2,0,0.299883,0.0013168,0
0.4,8.3,0,0.299969,0.00136725,0
0.4,8.4,0,0.299825,0.00149447,0
0.4,8.5,0,0.29991,0.00150942,0
0.4,8.6,0,0.29997,0.00157478,0
0.4,8.7,0,0.299803,0.00171017,0
0.4,8.8,0,0.299938,0.0016961,0
0.4,8.9,0,0.299948,0.0017825,0
0.4,9,0,0.299797,0.00191371,0
0.4,9.1,0,0.299965,0.00187678,0
0.4,9.2,0,0.299925,0.00198719,0
0.4,9.3,0,0.299826,0.00209325,0
0.4,9.4,0,0.299975,0.00206652,0
0.4,9.5,0,0.299903,0.0021874,0
0.4,9.6,0,0.299854,0.00226536,0
0.4,9.7,0,0.299976,0.00225692,0
0.4,9.8,0,0.299881,0.00238155,0
0.4,9.9,0,0.299881,0.00243014,0
0.4,10,0,0.299979,0.00244068,0
0.4,10.1,0,0.299861,0.0025678,0
0.4,10.2,0,0.299909,0.0025879,0
0.4,10.3,0,0.299982,0.00261704,0
0.4,10.4,0,0.299841,0.00274408,0
0.4,10.5,0,0.299936,0.00273923,0
0.4,10.6,0,0.299978,0.00278716,0
0.4,10.7,0,0.299822,0.00290805,0
0.4,10.8,0,0.299963,0.00288505,0
0.4,10.9,0,0.299957,0.00295098,0
0.4,11,0,0.299833,0.00304458,0
0.4,11.1,0,0.299988,0.00302698,0
0.4,11.2,0,0.299936,0.00310146,0
0.4,11.3,0,0.29986,0.0031662,0
0.4,11.4,0,0.29999,0.0031759,0
0.4,11.5,0,0.299915,0.00323666,0
0.4,11.6,0,0.299886,0.0032829,0
0.4,11.7,0,0.299994,0.0033162,0
0.4,11.8,0,0.299895,0.00335308,0
0.4,11.9,0,0.299913,0.0033956,0
0.4,12,0,0.300002,0.00344487,0
0.4,12.1,0,0.29988,0.00344485,0
0.4,12.2,0,0.299946,0.00350901,0
0.4,12.3,0,0.300014,0.00357045,0
0.4,12.4,0,0.299872,0.00351771,0
0.4,12.5,0,0.299975,0.00363045,0
0.4,12.6,0,0.300003,0.00371457,0
0.4,12.7,0,0.299874,0.00409041,0
0.5,0,0,0.299831,-0.00476343,0
0.5,0.1,0,0.299915,-0.00450859,0
0.5,0.2,0,0.299898,-0.00447941,0
0.5,0.3,0,0.299898,-0.00443843,0
0.5,0.4,0,0.299904,-0.00441039,0
0.5,0.5,0,0.299797,-0.00433031,0
0.5,0.6,0,0.299897,-0.00432879,0
0.5,0.7,0,0.299878,-0.0042861,0
0.5,0.8,0,0.299876,-0.00424546,0
0.5,0.9,0,0.299888,-0.00419896,0
0.5,1,0,0.299782,-0.00415753,0
0.5,1.1,0,0.299884,-0.00410563,0
0.5,1.2,0,0.299869,-0.00405242,0
0.5,1.3,0,0.299868,-0.00400963,0
0.5,1.4,0,0.29988,-0.00394501,0
0.5,1.5,0,0.299776,-0.00392574,0
0.5,1.6,0,0.299878,-0.00383834,0
0.5,1.7,0,0.299862,-0.00377584,0
0.5,1.8,0,0.299862,-0.00373156,0
0.5,1.9,0,0.299874,-0.00365193,0
0.5,2,0,0.299767,-0.0036438,0
0.5,2.1,0,0.299871,-0.00353258,0
0.5,2.2,0,0.299854,-0.00346066,0
0.5,2.3,0,0.299854,-0.00341428,0
0.5,2.4,0,0.299866,-0.00332262,0
0.5,2.5,0,0.299756,-0.00331787,0
0.5,2.6,0,0.299863,-0.00319191,0
0.5,2.7,0,0.299846,-0.00311132,0
0.5,2.8,0,0.299846,-0.00306285,0
0.5,2.9,0,0.299859,-0.00296174,0
0.5,3,0,0.299746,-0.00295487,0
0.5,3.1,0,0.299856,-0.0028213,0
0.5,3.2,0,0.299839,-0.00273291,0
0.5,3.3,0,0.299839,-0.00268256,0
0.5,3.4,0,0.299852,-0.00257432,0
0.5,3.5,0,0.299738,-0.00256137,0
0.5,3.6,0,0.29985,-0.00242584,0
0.5,3.7,0,0.299833,-0.00233059,0
0.5,3.8,0,0.299833,-0.00227866,0
0.5,3.9,0,0.299846,-0.00216528,0
0.5,4,0,0.299731,-0.00214338,0
0.5,4.1,0,0.299845,-0.00201042,0
0.5,4.2,0,0.299828,-0.00190924,0
0.5,4.3,0,0.299828,-0.0018561,0
0.5,4.4,0,0.299842,-0.00173934,0
0.5,4.5,0,0.299725,-0.00170636,0
0.5,4.6,0,0.299841,-0.0015797,0
0.5,4.7,0,0.299824,-0.00147351,0
0.5,4.8,0,0.299824,-0.00141962,0
0.5,4.9,0,0.299839,-0.00130626,0
0.5,5,0,0.299722,-0.00126623,0
0.5,5.1,0,0.299838,-0.00113428,0
0.5,5.2,0,0.299721,-0.00107145,0
0.5,5.3,0,0.299838,-0.000950919,0
0.5,5.4,0,0.29972,-0.000886216,0
0.5,5.5,0,0.299837,-0.000770374,0
0.5,5.6,0,0.299719,-0.000699932,0
0.5,5.7,0,0.299836,-0.000589087,0
0.5,5.8,0,0.299718,-0.000512852,0
0.5,5.9,0,0.299836,-0.000407236,0
0.5,6,0,0.299718,-0.000325182,0
0.5,6.1,0,0.299836,-0.000224987,0
0.5,6.2,0,0.299718,-0.000137145,0
0.5,6.3,0,0.299835,-4.251e-05,0
0.5,6.4,0,0.299718,5.1047e-05,0
0.5,6.5,0,0.299835,0.00014005,0
0.5,6.6,0,0.299718,0.000239219,0
0.5,6.7,0,0.299835,0.00032255,0
0.5,6.8,0,0.299718,0.000427151,0
0.5,6.9,0,0.299835,0.000511349,0
0.5,7,0,0.299718,0.000633408,0
0.5,7.1,0,0.299834,0.000683246,0
0.5,7.2,0,0.299835,0.000795358,0
0.5,7.3,0,0.299745,0.000881412,0
0.5,7.4,0,0.299835,0.000947845,0
0.5,7.5,0,0.299835,0.00106753,0
0.5,7.6,0,0.299773,0.00114288,0
0.5,7.7,0,0.299836,0.00122047,0
0.5,7.8,0,0.299818,0.0013384,0
0.5,7.9,0,0.2998,0.00139864,0
0.5,8,0,0.299837,0.00148999,0
0.5,8.1,0,0.299794,0.00160817,0
0.5,8.2,0,0.299828,0.00164822,0
0.5,8.3,0,0.29984,0.00175545,0
0.5,8.4,0,0.299771,0.00187618,0
0.5,8.5,0,0.299841,0.00190364,0
0.5,8.6,0,0.299842,0.00201589,0
0.5,8.7,0,0.299749,0.00214109,0
0.5,8.8,0,0.299844,0.00216097,0
0.5,8.9,0,0.299846,0.00227035,0
0.5,9,0,0.299745,0.0023926,0
0.5,9.1,0,0.299847,0.00241177,0
0.5,9.2,0,0.299849,0.00251784,0
0.5,9.3,0,0.299774,0.00261865,0
0.5,9.4,0,0.299851,0.00265504,0
0.5,9.5,0,0.299852,0.00275765,0
0.5,9.6,0,0.299803,0.00283561,0
0.5,9.7,0,0.299855,0.00288972,0
0.5,9.8,0,0.299831,0.00299476,0
0.5,9.9,0,0.299832,0.00304336,0
0.5,10,0,0.299859,0.00311469,0
0.5,10.1,0,0.299812,0.00322188,0
0.5,10.2,0,0.29986,0.00324198,0
0.5,10.3,0,0.299864,0.00332881,0
0.5,10.4,0,0.299793,0.00343668,0
0.5,10.5,0,0.299866,0.00344903,0
0.5,10.6,0,0.299869,0.00353097,0
0.5,10.7,0,0.299775,0.00363658,0
0.5,10.8,0,0.299871,0.00364456,0
0.5,10.9,0,0.299873,0.00371998,0
0.5,11,0,0.299788,0.00380617,0
0.5,11.1,0,0.299875,0.00382637,0
0.5,11.2,0,0.299877,0.00389464,0
0.5,11.3,0,0.299815,0.00395773,0
0.5,11.4,0,0.299878,0.00399398,0
0.5,11.5,0,0.299871,0.00405491,0
0.5,11.6,0,0.299842,0.00410115,0
0.5,11.7,0,0.299883,0.00414678,0
0.5,11.8,0,0.299852,0.00419452,0
0.5,11.9,0,0.29987,0.00423704,0
0.5,12,0,0.299891,0.00428144,0
0.5,12.1,0,0.299839,0.00430523,0
0.5,12.2,0,0.299898,0.00436694,0
0.5,12.3,0,0.299906,0.00440543,0
0.5,12.4,0,0.299834,0.00439497,0
0.5,12.5,0,0.29991,0.00448398,0
0.5,12.6,0,0.299915,0.00450347,0
0.5,12.7,0,0.299832,0.00475732,0
0.6,0,0,0.299788,-0.00543267,0
0.6,0.1,0,0.299813,-0.00533538,0
0.6,0.2,0,0.299809,-0.00531688,0
0.6,0.3,0,0.299806,-0.00528415,0
0.6,0.4,0,0.299797,-0.0052475,0
0.6,0.5,0,0.299756,-0.00519637,0
0.6,0.6,0,0.299786,-0.0051688,0
0.6,0.7,0,0.299781,-0.0051282,0
0.6,0.8,0,0.299778,-0.00508493,0
0.6,0.9,0,0.299775,-0.00503568,0
0.6,1,0,0.299739,-0.00498903,0
0.6,1.1,0,0.299772,-0.00493378,0
0.6,1.2,0,0.29977,-0.00487686,0
0.6,1.3,0,0.299769,-0.00482332,0
0.6,1.4,0,0.299767,-0.00475971,0
0.6,1.5,0,0.299731,-0.00471088,0
0.6,1.6,0,0.299764,-0.00463495,0
0.6,1.7,0,0.299761,-0.00456476,0
0.6,1.8,0,0.29976,-0.00450262,0
0.6,1.9,0,0.299757,-0.00442621,0
0.6,2,0,0.29972,-0.00437256,0
0.6,2.1,0,0.299753,-0.00428075,0
0.6,2.2,0,0.29975,-0.00419863,0
0.6,2.3,0,0.299748,-0.00412865,0
0.6,2.4,0,0.299746,-0.00404127,0
0.6,2.5,0,0.299707,-0.00398145,0
0.6,2.6,0,0.299741,-0.003878,0
0.6,2.7,0,0.299739,-0.00378581,0
0.6,2.8,0,0.299737,-0.00370909,0
0.6,2.9,0,0.299735,-0.00361252,0
0.6,3,0,0.299696,-0.00354585,0
0.6,3.1,0,0.299731,-0.0034343,0
0.6,3.2,0,0.299728,-0.00333377,0
0.6,3.3,0,0.299727,-0.00325145,0
0.6,3.4,0,0.299725,-0.00314736,0
0.6,3.5,0,0.299685,-0.00307365,0
0.6,3.6,0,0.299721,-0.00295696,0
0.6,3.7,0,0.299719,-0.00284969,0
0.6,3.8,0,0.299718,-0.00276284,0
0.6,3.9,0,0.299717,-0.00265275,0
0.6,4,0,0.299677,-0.00257205,0
0.6,4.1,0,0.299714,-0.00245269,0
0.6,4.2,0,0.299712,-0.00234014,0
0.6,4.3,0,0.299711,-0.00224978,0
0.6,4.4,0,0.29971,-0.00213509,0
0.6,4.5,0,0.29967,-0.00204763,0
0.6,4.6,0,0.299708,-0.00192774,0
0.6,4.7,0,0.299707,-0.00181124,0
0.6,4.8,0,0.299707,-0.00172009,0
0.6,4.9,0,0.299706,-0.00160773,0
0.6,5,0,0.299666,-0.00151948,0
0.6,5.1,0,0.299704,-0.00139109,0
0.6,5.2,0,0.299665,-0.00128574,0
0.6,5.3,0,0.299703,-0.0011653,0
0.6,5.4,0,0.299664,-0.00106346,0
0.6,5.5,0,0.299702,-0.000944122,0
0.6,5.6,0,0.299663,-0.000839918,0
0.6,5.7,0,0.299701,-0.000721902,0
0.6,5.8,0,0.299662,-0.000615422,0
0.6,5.9,0,0.299701,-0.000498893,0
0.6,6,0,0.299662,-0.000390219,0
0.6,6.1,0,0.299701,-0.000275338,0
0.6,6.2,0,0.299661,-0.000164574,0
0.6,6.3,0,0.299701,-5.14792e-05,0
0.6,6.4,0,0.299661,6.12564e-05,0
0.6,6.5,0,0.299701,0.000172465,0
0.6,6.6,0,0.299662,0.000287063,0
0.6,6.7,0,0.299701,0.000396277,0
0.6,6.8,0,0.299662,0.000512582,0
0.6,6.9,0,0.299701,0.000630025,0
0.6,7,0,0.299662,0.00076009,0
0.6,7.1,0,0.299701,0.000851444,0
0.6,7.2,0,0.299701,0.000963556,0
0.6,7.3,0,0.299689,0.00105725,0
0.6,7.4,0,0.299702,0.00116968,0
0.6,7.5,0,0.299703,0.00128936,0
0.6,7.6,0,0.299703,0.00138041,0
0.6,7.7,0,0.299704,0.0014988,0
0.6,7.8,0,0.299705,0.0016172,0
0.6,7.9,0,0.299705,0.00170709,0
0.6,8,0,0.299707,0.00182384,0
0.6,8.1,0,0.299708,0.00194059,0
0.6,8.2,0,0.299709,0.00202895,0
0.6,8.3,0,0.29971,0.00214365,0
0.6,8.4,0,0.299711,0.00225835,0
0.6,8.5,0,0.299712,0.00234475,0
0.6,8.6,0,0.299714,0.002457,0
0.6,8.7,0,0.299695,0.00257202,0
0.6,8.8,0,0.299717,0.00265331,0
0.6,8.9,0,0.299719,0.00276269,0
0.6,9,0,0.299692,0.00287148,0
0.6,9.1,0,0.299722,0.00295336,0
0.6,9.2,0,0.299724,0.00305943,0
0.6,9.3,0,0.299722,0.00314405,0
0.6,9.4,0,0.299727,0.00324357,0
0.6,9.5,0,0.299729,0.00334585,0
0.6,9.6,0,0.29973,0.00342451,0
0.6,9.7,0,0.299733,0.00352251,0
0.6,9.8,0,0.299735,0.00362052,0
0.6,9.9,0,0.299737,0.00369551,0
0.6,10,0,0.299739,0.00378871,0
0.6,10.1,0,0.299742,0.00388191,0
0.6,10.2,0,0.299743,0.00395275,0
0.6,10.3,0,0.299746,0.00404059,0
0.6,10.4,0,0.299746,0.00412927,0
0.6,10.5,0,0.29975,0.00419464,0
0.6,10.6,0,0.299753,0.00427657,0
0.6,10.7,0,0.299729,0.0043651,0
0.6,10.8,0,0.299757,0.00441956,0
0.6,10.9,0,0.299759,0.00449498,0
0.6,11,0,0.299742,0.00456777,0
0.6,11.1,0,0.299762,0.00462576,0
0.6,11.2,0,0.299764,0.00469403,0
0.6,11.3,0,0.299765,0.00475112,0
0.6,11.4,0,0.299767,0.00481207,0
0.6,11.5,0,0.299768,0.00487301,0
0.6,11.6,0,0.29977,0.00492448,0
0.6,11.7,0,0.299771,0.00497736,0
0.6,11.8,0,0.299773,0.00503024,0
0.6,11.9,0,0.299776,0.00507481,0
0.6,12,0,0.29978,0.00511801,0
0.6,12.1,0,0.299785,0.00516122,0
0.6,12.2,0,0.29979,0.00520192,0
0.6,12.3,0,0.299799,0.00524041,0
0.6,12.4,0,0.299796,0.00527222,0
0.6,12.5,0,0.299809,0.00530714,0
0.6,12.6,0,0.299814,0.00532663,0
0.6,12.7,0,0.29979,0.00542424,0
0.7,0,0,0.29976,-0.00597737,0
0.7,0.1,0,0.299714,-0.00616929,0
0.7,0.2,0,0.299709,-0.00615079,0
0.7,0.3,0,0.299699,-0.00612111,0
0.7,0.4,0,0.299691,-0.00608446,0
0.7,0.5,0,0.299718,-0.00586362,0
0.7,0.6,0,0.299674,-0.00601047,0
0.7,0.7,0,0.299669,-0.00596987,0
0.7,0.8,0,0.299665,-0.00592331,0
0.7,0.9,0,0.299663,-0.00587406,0
0.7,1,0,0.299685,-0.00565656,0
0.7,1.1,0,0.299659,-0.00576322,0
0.7,1.2,0,0.299657,-0.00570629,0
0.7,1.3,0,0.299656,-0.00563931,0
0.7,1.4,0,0.299654,-0.0055757,0
0.7,1.5,0,0.299663,-0.0053604,0
0.7,1.6,0,0.299649,-0.00543281,0
0.7,1.7,0,0.299647,-0.00536261,0
0.7,1.8,0,0.299644,-0.00527804,0
0.7,1.9,0,0.299641,-0.00520164,0
0.7,2,0,0.29964,-0.00498872,0
0.7,2.1,0,0.299635,-0.00502997,0
0.7,2.2,0,0.299632,-0.00494786,0
0.7,2.3,0,0.299628,-0.00484827,0
0.7,2.4,0,0.299626,-0.0047609,0
0.7,2.5,0,0.299617,-0.00455178,0
0.7,2.6,0,0.299619,-0.00456497,0
0.7,2.7,0,0.299617,-0.00447278,0
0.7,2.8,0,0.299613,-0.00436067,0
0.7,2.9,0,0.299611,-0.0042641,0
0.7,3,0,0.299596,-0.00406022,0
0.7,3.1,0,0.299605,-0.00404803,0
0.7,3.2,0,0.299603,-0.0039475,0
0.7,3.3,0,0.2996,-0.00382513,0
0.7,3.4,0,0.299598,-0.00372104,0
0.7,3.5,0,0.299579,-0.00352387,0
0.7,3.6,0,0.299593,-0.00348865,0
0.7,3.7,0,0.299591,-0.00338138,0
0.7,3.8,0,0.299588,-0.00325081,0
0.7,3.9,0,0.299587,-0.00314072,0
0.7,4,0,0.299565,-0.00295161,0
0.7,4.1,0,0.299583,-0.00289541,0
0.7,4.2,0,0.299581,-0.00278286,0
0.7,4.3,0,0.299579,-0.0026459,0
0.7,4.4,0,0.299578,-0.00253121,0
0.7,4.5,0,0.299554,-0.00235141,0
0.7,4.6,0,0.299575,-0.00227611,0
0.7,4.7,0,0.299574,-0.0021596,0
0.7,4.8,0,0.299573,-0.00201964,0
0.7,4.9,0,0.299572,-0.00190728,0
0.7,5,0,0.299547,-0.00174566,0
0.7,5.1,0,0.29957,-0.00164587,0
0.7,5.2,0,0.299544,-0.00147734,0
0.7,5.3,0,0.299569,-0.00137979,0
0.7,5.4,0,0.299543,-0.00122206,0
0.7,5.5,0,0.299568,-0.00111796,0
0.7,5.6,0,0.299541,-0.00096525,0
0.7,5.7,0,0.299567,-0.000854786,0
0.7,5.8,0,0.29954,-0.000707256,0
0.7,5.9,0,0.299566,-0.000590599,0
0.7,6,0,0.299539,-0.000448393,0
0.7,6.1,0,0.299566,-0.000325714,0
0.7,6.2,0,0.299539,-0.000188992,0
0.7,6.3,0,0.299566,-6.04542e-05,0
0.7,6.4,0,0.299539,7.06269e-05,0
0.7,6.5,0,0.299566,0.000204891,0
0.7,6.6,0,0.299539,0.000330195,0
0.7,6.7,0,0.299566,0.000470043,0
0.7,6.8,0,0.29954,0.000589396,0
0.7,6.9,0,0.299567,0.000744998,0
0.7,7,0,0.29954,0.000873856,0
0.7,7.1,0,0.299567,0.00101607,0
0.7,7.2,0,0.299568,0.00112818,0
0.7,7.3,0,0.29956,0.00125902,0
0.7,7.4,0,0.299569,0.00139176,0
0.7,7.5,0,0.29957,0.00151144,0
0.7,7.6,0,0.299571,0.00165906,0
0.7,7.7,0,0.299572,0.00177745,0
0.7,7.8,0,0.299573,0.00189585,0
0.7,7.9,0,0.299575,0.00204135,0
0.7,8,0,0.299576,0.0021581,0
0.7,8.1,0,0.299577,0.00227485,0
0.7,8.2,0,0.299579,0.00241764,0
0.7,8.3,0,0.29958,0.00253234,0