/*--------------------------------*- C++ -*----------------------------------*\
| =========                 |                                                 |
| \\      /  F ield         | OpenFOAM: The Open Source CFD Toolbox           |
|  \\    /   O peration     | Version:  v1806                                 |
|   \\  /    A nd           | Web:      www.OpenFOAM.com                      |
|    \\/     M anipulation  |                                                 |
\*---------------------------------------------------------------------------*/
FoamFile
{
    version     2.0;
    format      ascii;
    class       volScalarField;
    location    "260";
    object      p;
}
// * * * * * * * * * * * * * * * * * * * * * * * * * * * * * * * * * * * * * //

dimensions      [0 2 -2 0 0 0 0];


internalField   nonuniform List<scalar> 
2400
(
0.000799073
0.000796503
0.000790954
0.000782288
0.000770331
0.00075482
0.000735417
0.000711751
0.000683459
0.000650215
0.000611762
0.000567953
0.000518773
0.000464385
0.000405139
0.000341604
0.00027455
0.000204993
0.00013407
6.26429e-05
0.00240021
0.00239304
0.00237753
0.00235316
0.0023194
0.00227548
0.00222043
0.00215317
0.00207265
0.00197789
0.00186815
0.00174293
0.00160217
0.00144624
0.00127611
0.00109333
0.000900054
0.000698957
0.000493096
0.000285883
0.00400967
0.00399834
0.0039738
0.00393508
0.0038812
0.00381085
0.00372232
0.00361376
0.00348324
0.00332903
0.00314964
0.00294407
0.00271193
0.00245365
0.00217058
0.00186513
0.00154075
0.00120195
0.000854094
0.000503311
0.00563239
0.00561739
0.00558484
0.00553332
0.00546134
0.00536694
0.00524759
0.00510049
0.0049227
0.00471148
0.00446441
0.00417971
0.00385643
0.00349477
0.00309631
0.00266417
0.00220314
0.00171959
0.00122137
0.000717357
0.0072726
0.00725455
0.00721529
0.00715298
0.00706555
0.00695025
0.00680358
0.00662161
0.00640014
0.00613519
0.00582304
0.00546082
0.00504661
0.00458012
0.0040628
0.00349836
0.00289282
0.00225461
0.00159436
0.000924394
0.0089338
0.00891347
0.00886918
0.00879861
0.00869906
0.00856685
0.00839729
0.00818512
0.00792458
0.00761011
0.00723625
0.00679863
0.00629383
0.00572066
0.00507998
0.00437584
0.00361543
0.00280938
0.00197166
0.00111884
0.0106186
0.0105969
0.0105496
0.010474
0.0103664
0.0102222
0.0100353
0.00979881
0.00950507
0.0091466
0.00871553
0.00820559
0.00761099
0.00692923
0.00615975
0.00530671
0.00437814
0.00338711
0.00235166
0.00129367
0.0123284
0.0123066
0.0122587
0.0121817
0.0120711
0.011921
0.0117236
0.0114703
0.0111509
0.0107556
0.0102735
0.00969575
0.00901304
0.00822116
0.00731663
0.00630366
0.00519018
0.00399215
0.00273244
0.00143971
0.0140632
0.0140427
0.0139973
0.0139235
0.0138158
0.0136671
0.0134677
0.0132067
0.0128713
0.0124488
0.0119239
0.0112851
0.0105175
0.00961501
0.00856859
0.00738305
0.00606377
0.00463075
0.00311201
0.00154494
0.0158216
0.0158039
0.0157644
0.0156991
0.0156016
0.015463
0.0152718
0.0150147
0.0146755
0.014238
0.0136819
0.0129918
0.012145
0.0111335
0.00993813
0.00856623
0.007015
0.00531217
0.00348863
0.00159375
0.0176002
0.0175871
0.0175574
0.0175067
0.0174276
0.0173097
0.017139
0.0168998
0.0165721
0.0161357
0.0155639
0.0148365
0.0139203
0.0128047
0.0114539
0.00988161
0.00806508
0.00604995
0.00386044
0.00156588
0.0193933
0.0193869
0.0193715
0.0193424
0.0192912
0.0192057
0.0190703
0.0188658
0.0185687
0.0181535
0.0175872
0.0168419
0.0158723
0.0146629
0.0131536
0.011368
0.00924327
0.00686447
0.00422236
0.00143328
0.0211929
0.0211955
0.0211992
0.0211993
0.0211866
0.0211472
0.0210638
0.0209138
0.0206707
0.0203021
0.0197691
0.0190322
0.0180351
0.016749
0.0150868
0.0130785
0.0105946
0.0077909
0.00456286
0.00115432
0.0229886
0.0230024
0.0230304
0.0230679
0.0231051
0.0231266
0.023114
0.0230415
0.0228801
0.0225891
0.0221257
0.0214324
0.0204466
0.0191101
0.0173178
0.0150815
0.0121928
0.00889516
0.00487415
0.00067785
0.0247668
0.0247943
0.0248519
0.024935
0.0250339
0.0251322
0.0252109
0.0252413
0.0251933
0.0250176
0.0246688
0.0240664
0.0231472
0.0217998
0.0199257
0.0174567
0.01415
0.0102762
0.00518988
-1.05249e-05
0.0265114
0.026555
0.0266471
0.0267841
0.0269563
0.0271473
0.0273381
0.0274989
0.0275987
0.0275823
0.027402
0.0269539
0.0261755
0.0248815
0.0230042
0.0202998
0.0166119
0.0120102
0.00563202
-0.000831418
0.0282036
0.0282653
0.0283965
0.0285948
0.028851
0.0291496
0.0294725
0.0297909
0.0300741
0.0302651
0.0303139
0.030102
0.0295601
0.0284315
0.0266657
0.0237598
0.0197552
0.0141061
0.00636734
-0.00186233
0.0298222
0.0299036
0.0300775
0.030343
0.0306921
0.031111
0.0315835
0.0320842
0.0325838
0.03303
0.0333707
0.0334894
0.0333014
0.0325178
0.031047
0.0281178
0.0238766
0.0167106
0.00733219
-0.00484682
0.0313442
0.0314464
0.0316651
0.0320017
0.0324497
0.032998
0.0336331
0.0343349
0.0350782
0.0358198
0.0365096
0.0370495
0.0373426
0.03713
0.0362427
0.0338198
0.029729
0.0208019
0.00844305
-0.013874
0.0327454
0.0328687
0.0331331
0.0335421
0.0340914
0.0347731
0.0355776
0.0364912
0.0374951
0.0385578
0.0396383
0.0406641
0.0415455
0.0420979
0.0421194
0.0409765
0.0382285
0.0301151
0.0155142
-0.0271787
-4.06241e-06
-6.18874e-05
-0.000115291
-0.000165705
-0.000213541
-0.000258507
-0.000300563
-0.000339704
-0.000377377
-0.000412743
0.00010227
-5.69774e-05
-0.000211104
-0.000358568
-0.000498366
-0.000629936
-0.000752709
-0.000866416
-0.000970642
-0.00106465
0.000190332
-8.2235e-05
-0.00034568
-0.000597752
-0.000836547
-0.00106125
-0.00127054
-0.00146514
-0.00164429
-0.00181156
0.000266489
-0.00012623
-0.000505444
-0.00086798
-0.001211
-0.0015334
-0.00183306
-0.00211161
-0.00236701
-0.0026052
0.000324036
-0.000198986
-0.000703521
-0.00118501
-0.00163936
-0.00206514
-0.00245926
-0.00282449
-0.00315757
-0.00346828
0.000353344
-0.000313417
-0.000955394
-0.00156609
-0.00213986
-0.0026748
-0.00316698
-0.00362056
-0.00403151
-0.00441357
0.000342408
-0.000485556
-0.00128039
-0.00203291
-0.00273541
-0.00338548
-0.0039785
-0.00452054
-0.00500738
-0.00545715
0.00027544
-0.000736557
-0.00170402
-0.00261391
-0.00345571
-0.00422654
-0.00492155
-0.00554969
-0.00610725
-0.00661783
0.000131193
-0.00109508
-0.00226081
-0.00334707
-0.00433963
-0.00523539
-0.00603051
-0.00673847
-0.00735702
-0.00791712
-0.000119059
-0.00160076
-0.00299881
-0.0042845
-0.00543886
-0.00645997
-0.00734791
-0.00812287
-0.00878595
-0.0093776
-0.000513884
-0.0023091
-0.00398657
-0.00549941
-0.00682384
-0.00796296
-0.00892703
-0.00974509
-0.0104255
-0.0110189
-0.00110639
-0.00329979
-0.00532302
-0.00709528
-0.00859121
-0.0098281
-0.0108367
-0.0116561
-0.0123093
-0.0128533
-0.0019778
-0.00469534
-0.00715218
-0.00921393
-0.0108684
-0.012164
-0.0131645
-0.0139179
-0.0144726
-0.014884
-0.00327162
-0.00670772
-0.00969295
-0.0120458
-0.0138118
-0.0150966
-0.0160041
-0.0165906
-0.016941
-0.0171017
-0.00526712
-0.00974008
-0.0133169
-0.0158736
-0.0176179
-0.0187496
-0.0194137
-0.019683
-0.0196845
-0.019456
-0.00851735
-0.0145244
-0.018663
-0.0211472
-0.0225367
-0.0231924
-0.0233265
-0.0230455
-0.0225117
-0.0217681
-0.0139165
-0.0219219
-0.0263205
-0.0281973
-0.0286272
-0.0282252
-0.0273484
-0.0261956
-0.0249451
-0.0236415
-0.0225102
-0.0319454
-0.0357639
-0.0362135
-0.0349317
-0.0328472
-0.030593
-0.0284779
-0.026571
-0.02484
-0.0370595
-0.0429278
-0.0444124
-0.0416959
-0.0383966
-0.0354232
-0.0326972
-0.0301331
-0.0277863
-0.025705
-0.0804357
-0.0552212
-0.0551917
-0.0483162
-0.0426772
-0.0376976
-0.0337781
-0.0307353
-0.0282923
-0.0263316
-0.000478829
-0.000574419
-0.000651968
-0.00073336
-0.000807755
-0.000875635
-0.000860337
-0.000792919
-0.000642711
-0.000403648
-0.000116643
0.000212834
0.000495747
0.000737798
0.000768449
0.000808752
0.000664666
0.000404193
0.000252061
-0.000125366
-0.00132682
-0.00163274
-0.00187076
-0.00211901
-0.00234293
-0.00251512
-0.00255627
-0.00238041
-0.00193822
-0.00122369
-0.000365699
0.000620469
0.00143427
0.00219973
0.00231632
0.00246902
0.00202581
0.00131946
0.000875591
-0.000352026
-0.00223943
-0.00275755
-0.00316571
-0.00359039
-0.00397821
-0.00427545
-0.00433491
-0.00402028
-0.00326607
-0.00206346
-0.000626721
0.00100864
0.00236895
0.0036515
0.00386136
0.00414578
0.00337595
0.00226311
0.00143606
-0.000690784
-0.00320905
-0.00394729
-0.00453618
-0.00515164
-0.00572097
-0.00614883
-0.0062218
-0.00574728
-0.00464977
-0.00293182
-0.000895445
0.00138678
0.00330333
0.00508987
0.00540072
0.00583727
0.00471079
0.00324974
0.00195073
-0.00114243
-0.00424785
-0.00520669
-0.0059836
-0.0068059
-0.00757558
-0.00814744
-0.00823843
-0.0075847
-0.00610821
-0.00383943
-0.0011723
0.00175772
0.00424331
0.00651378
0.00693393
0.00753746
0.00602143
0.00429733
0.00242684
-0.00169117
-0.00536478
-0.00654011
-0.00751107
-0.00855858
-0.00955087
-0.0102891
-0.010405
-0.00955316
-0.00765891
-0.00479813
-0.00146198
0.00211952
0.00519007
0.00791247
0.0084489
0.00922559
0.00728782
0.00540687
0.00286561
-0.00229921
-0.00656926
-0.00795138
-0.00912073
-0.0104129
-0.0116521
-0.0125839
-0.0127361
-0.01167
-0.00931824
-0.00582136
-0.00177511
0.00246255
0.00613145
0.00925968
0.00991514
0.0108639
0.00847529
0.00655325
0.00325553
-0.00291127
-0.00787009
-0.00944235
-0.0108114
-0.0123656
-0.0138752
-0.0150308
-0.0152347
-0.0139451
-0.0110998
-0.00692431
-0.00212966
0.00276658
0.00703858
0.0105125
0.0112795
0.0123948
0.00953194
0.00768637
0.00356815
-0.00347022
-0.00927461
-0.0110109
-0.0125743
-0.0144001
-0.0161986
-0.0176103
-0.0178861
-0.0163744
-0.0130105
-0.00812293
-0.00255148
0.00299922
0.00786367
0.0116103
0.0124646
0.013739
0.0103898
0.00873568
0.00376384
-0.00392877
-0.0107864
-0.0126468
-0.0143849
-0.0164752
-0.0185685
-0.0202658
-0.0206424
-0.0189309
-0.0150448
-0.00943157
-0.00307366
0.00311484
0.00853969
0.012476
0.0133726
0.0147979
0.0109783
0.00961268
0.00380175
-0.00424723
-0.0123997
-0.0143231
-0.0161917
-0.018512
-0.020886
-0.0228931
-0.0234122
-0.0215549
-0.0171786
-0.0108584
-0.00373387
0.00305589
0.00898407
0.0130712
0.0138982
0.0154604
0.01123
0.0102201
0.0036452
-0.00438251
-0.0140884
-0.0159853
-0.017905
-0.0203885
-0.0230082
-0.0253414
-0.0260605
-0.0241496
-0.0193625
-0.0123995
-0.00456823
0.00275931
0.0091042
0.0132168
0.013942
0.0156139
0.0110812
0.0104474
0.00327753
-0.00428346
-0.0157922
-0.0175407
-0.0193985
-0.0219563
-0.0247726
-0.0274407
-0.0284305
-0.026591
-0.0215222
-0.0140341
-0.00560191
0.00216893
0.00882058
0.0128994
0.0134307
0.0151591
0.0104805
0.0101941
0.00269511
-0.00390324
-0.0174088
-0.0188675
-0.0205458
-0.0231016
-0.0260636
-0.0290558
-0.0303842
-0.0287506
-0.0235659
-0.0157216
-0.00683956
0.00125052
0.00807793
0.0120761
0.0123442
0.0140319
0.00941085
0.0094003
0.0019065
-0.00322603
-0.0187999
-0.019859
-0.0212947
-0.0238087
-0.0268714
-0.0301528
-0.0318412
-0.0305229
-0.0253994
-0.0174027
-0.00826044
1.03337e-06
0.00685345
0.0107327
0.010705
0.0122316
0.00790531
0.00807913
0.000946276
-0.00229016
-0.0198085
-0.0204915
-0.0216857
-0.0241501
-0.0272644
-0.0307653
-0.0327887
-0.0318436
-0.0269395
-0.0190034
-0.00981338
-0.0015482
0.00515751
0.00888012
0.00858202
0.00981932
0.00605538
0.00632651
-0.000102398
-0.00118751
-0.0203543
-0.0208527
-0.0218602
-0.0242606
-0.0273592
-0.0309738
-0.0332508
-0.0326857
-0.0281203
-0.0204416
-0.0114216
-0.0033327
0.00303433
0.00655109
0.00607622
0.00694458
0.00400355
0.00431313
-0.00112978
-3.46917e-05
-0.0205857
-0.0211154
-0.0219378
-0.0242394
-0.027244
-0.0308515
-0.0332725
-0.0330463
-0.0288934
-0.0216355
-0.0129962
-0.00527031
0.000556549
0.00379794
0.00329619
0.0038212
0.0019085
0.0022495
-0.00204784
0.00106458
-0.0207827
-0.0213162
-0.0219649
-0.02413
-0.0269669
-0.0304527
-0.0328994
-0.0329375
-0.02923
-0.0225156
-0.0144527
-0.00727875
-0.00218866
0.00067385
0.000360655
0.000656333
-9.71008e-05
0.000328821
-0.00276198
0.00201883
-0.0209442
-0.0214113
-0.0219445
-0.0239423
-0.026552
-0.0298175
-0.0321758
-0.0323867
-0.0291244
-0.0230385
-0.0157267
-0.00928461
-0.00510568
-0.00271755
-0.00267103
-0.00240637
-0.00193971
-0.00131078
-0.00322756
0.00272656
-0.0206818
-0.0213005
-0.0218602
-0.0236521
-0.0259653
-0.0288975
-0.0310425
-0.0313411
-0.0285434
-0.0232069
-0.0168902
-0.0114252
-0.00839184
-0.00663544
-0.00604687
-0.00558755
-0.00378222
-0.00272561
-0.00348476
0.00321392
-0.0205773
-0.0211558
-0.021696
-0.0232385
-0.0251914
-0.0276656
-0.0294616
-0.02971
-0.0273723
-0.0228966
-0.0178395
-0.0136328
-0.0119305
-0.0109864
-0.00969294
-0.0087926
-0.00558873
-0.00376965
-0.0035423
0.00338926
-0.0204437
-0.0209898
-0.0214781
-0.0227557
-0.0243147
-0.0262703
-0.0276393
-0.0277386
-0.0257956
-0.0221756
-0.0184913
-0.0156968
-0.015273
-0.0152445
-0.0130824
-0.0116783
-0.00725403
-0.00442943
-0.00349727
0.00328337
-0.0203174
-0.0208298
-0.0212369
-0.0222332
-0.0233735
-0.0247728
-0.0256687
-0.0255543
-0.0239551
-0.0211593
-0.0188982
-0.0176288
-0.0183427
-0.0192198
-0.0161712
-0.0141808
-0.00877475
-0.00486212
-0.00344831
0.00298507
-0.0202231
-0.020703
-0.0209999
-0.0216996
-0.0224039
-0.0232296
-0.0236353
-0.0232727
-0.021984
-0.0199642
-0.0191254
-0.0194438
-0.0211415
-0.0227948
-0.0188782
-0.0162164
-0.0100971
-0.00519254
-0.00343415
0.00257202
-0.0201764
-0.0206295
-0.0207895
-0.0211786
-0.0214367
-0.0216908
-0.0216177
-0.0209956
-0.0200019
-0.0187094
-0.0192189
-0.0211374
-0.0236903
-0.0258723
-0.0211786
-0.0177386
-0.011171
-0.00548772
-0.00345539
0.00210652
-0.0201889
-0.020624
-0.020621
-0.0206869
-0.020496
-0.0201991
-0.0196807
-0.0188126
-0.0181111
-0.0175011
-0.0192056
-0.0226714
-0.0259291
-0.0284463
-0.023067
-0.0187622
-0.0119765
-0.00576545
-0.00349637
0.00163383
-0.0202732
-0.020694
-0.0205001
-0.0202331
-0.0196003
-0.0187863
-0.0178751
-0.0167968
-0.0163899
-0.0164185
-0.019122
-0.0239599
-0.0277598
-0.0304015
-0.0245121
-0.0193372
-0.0125078
-0.00601944
-0.00353936
0.00118667
-0.0204309
-0.0208348
-0.0204239
-0.019819
-0.0187617
-0.0174599
-0.0162365
-0.0150039
-0.0148886
-0.0155038
-0.0189707
-0.0249353
-0.029082
-0.0316542
-0.025455
-0.0195178
-0.0127686
-0.00622877
-0.00357006
0.000790765
-0.0205902
-0.0210371
-0.0203822
-0.0194399
-0.0179856
-0.016265
-0.0147869
-0.0134666
-0.0136335
-0.0147642
-0.0187924
-0.0255542
-0.0298373
-0.0321743
-0.0258498
-0.0193547
-0.0127775
-0.00636804
-0.00358395
0.000464986
-0.0210647
-0.0212915
-0.0203413
-0.0191192
-0.017348
-0.0153091
-0.01367
-0.0123334
-0.0127439
-0.0142482
-0.0186056
-0.0258068
-0.0300022
-0.0320099
-0.0257111
-0.0189399
-0.0125857
-0.00641844
-0.00357857
0.000237401
-0.0210618
-0.0213579
-0.0202733
-0.0188388
-0.0168248
-0.0145473
-0.0128107
-0.0114978
-0.0121172
-0.0138821
-0.0184258
-0.0258419
-0.0298365
-0.0314637
-0.0252759
-0.0184118
-0.0122967
-0.00641521
-0.0035494
6.83619e-05
-0.0209543
-0.0212562
-0.0201503
-0.0185351
-0.0163308
-0.0138723
-0.0120691
-0.0108211
-0.0116352
-0.013591
-0.0182215
-0.0256976
-0.0293853
-0.0305541
-0.024552
-0.0177443
-0.0119061
-0.00636162
-0.00349691
-7.01106e-05
-0.0207471
-0.0209783
-0.0199219
-0.0181884
-0.0158549
-0.0132741
-0.0114486
-0.0102892
-0.0112843
-0.0133681
-0.0179817
-0.0253726
-0.028673
-0.0293213
-0.0235686
-0.0169614
-0.0114331
-0.00625663
-0.00342272
-0.000180871
-0.020246
-0.020475
-0.0195319
-0.0177643
-0.01538
-0.0127455
-0.0109457
-0.00989256
-0.0110468
-0.0132062
-0.0176971
-0.0248607
-0.0277156
-0.0278089
-0.0223609
-0.0160862
-0.0108953
-0.00610111
-0.00332902
-0.000266936
-0.0192804
-0.0196716
-0.0189223
-0.0172119
-0.0148862
-0.0122796
-0.0105486
-0.00961668
-0.0108982
-0.0130919
-0.0173549
-0.0241491
-0.0265202
-0.0260654
-0.0209708
-0.0151409
-0.0103092
-0.00589746
-0.00321727
-0.000331562
-0.0179011
-0.0185368
-0.0180459
-0.0164917
-0.014322
-0.0118329
-0.0102307
-0.00943406
-0.0108003
-0.0129962
-0.0169313
-0.0232126
-0.0250876
-0.0241436
-0.019445
-0.0141449
-0.00968841
-0.00564934
-0.00308822
-0.000377905
-0.0162689
-0.0171111
-0.0168975
-0.0155771
-0.013652
-0.0113652
-0.00994473
-0.00929717
-0.0106973
-0.0128643
-0.0163885
-0.022023
-0.0234198
-0.0220993
-0.0178328
-0.0131149
-0.00904375
-0.00536118
-0.002942
-0.000408834
-0.014528
-0.0154973
-0.0155207
-0.0144712
-0.0128463
-0.0108266
-0.0096273
-0.00913797
-0.0105175
-0.0126228
-0.0156751
-0.0205615
-0.0215343
-0.0199893
-0.0161817
-0.0120646
-0.00838244
-0.00503772
-0.00277838
-0.000426763
-0.0127864
-0.0138063
-0.0139979
-0.0132072
-0.011899
-0.0101784
-0.00921437
-0.0088808
-0.0101869
-0.0121888
-0.0147498
-0.0188347
-0.0194737
-0.0178693
-0.0145333
-0.011004
-0.00770848
-0.00468364
-0.00259707
-0.000433512
-0.0111152
-0.012124
-0.0124146
-0.0118407
-0.0108264
-0.00940779
-0.00866536
-0.00846825
-0.00965909
-0.0115094
-0.0135994
-0.0168924
-0.0173044
-0.0157892
-0.0129201
-0.00994039
-0.00702322
-0.00430335
-0.00239814
-0.000430228
-0.00954954
-0.0105035
-0.0108372
-0.0104297
-0.00966327
-0.00852301
-0.00797096
-0.00788077
-0.00892663
-0.0105807
-0.0122477
-0.0148208
-0.0151045
-0.0137862
-0.0113631
-0.008878
-0.00632633
-0.00390091
-0.0021824
-0.000417508
-0.00809899
-0.00896978
-0.00930777
-0.00902128
-0.00845033
-0.00755058
-0.00714645
-0.0071282
-0.00801511
-0.00944142
-0.010754
-0.0127173
-0.0129459
-0.0118815
-0.00987125
-0.00781908
-0.00561682
-0.00347995
-0.00195162
-0.000395721
-0.00675943
-0.00752991
-0.00784738
-0.00764688
-0.00722402
-0.00652433
-0.00622735
-0.00624952
-0.00697834
-0.00816221
-0.0091898
-0.0106651
-0.010881
-0.0100807
-0.0084434
-0.0067641
-0.00489356
-0.00304338
-0.00170792
-0.000365238
-0.0055215
-0.00618125
-0.00646309
-0.0063236
-0.00601148
-0.00547553
-0.0052538
-0.00529241
-0.00587403
-0.00681747
-0.00761998
-0.0087189
-0.00893764
-0.0083768
-0.00707051
-0.00571192
-0.00415476
-0.00259276
-0.00145249
-0.000326119
-0.00437453
-0.00491687
-0.00515402
-0.00505824
-0.00483004
-0.00442822
-0.00426043
-0.00430019
-0.00475169
-0.0054695
-0.0060918
-0.00690347
-0.00712062
-0.00675417
-0.00573931
-0.0046606
-0.00339819
-0.00212772
-0.00118515
-0.000277347
-0.00330764
-0.00372846
-0.00391549
-0.00385139
-0.00368903
-0.00339864
-0.00327267
-0.00330536
-0.0036487
-0.00416105
-0.00463139
-0.00521966
-0.00541721
-0.00519265
-0.00443615
-0.00360987
-0.0026256
-0.00164786
-0.000907029
-0.000217159
-0.00231094
-0.00260804
-0.0027416
-0.00270086
-0.00259275
-0.00239721
-0.00230829
-0.00232809
-0.0025853
-0.00291441
-0.00324635
-0.00365052
-0.00380486
-0.00367397
-0.00315104
-0.00256416
-0.001851
-0.00115922
-0.000626749
-0.000146979
-0.00137077
-0.00154781
-0.00162758
-0.00160522
-0.00154462
-0.00143262
-0.00138049
-0.0013906
-0.00152875
-0.00172925
-0.00192748
-0.00216677
-0.00225822
-0.00218806
-0.00188074
-0.00153163
-0.00109963
-0.00067966
-0.000362653
-7.76384e-05
-0.000495094
-0.000547694
-0.000571836
-0.000561158
-0.000540814
-0.000502766
-0.000486391
-0.000498339
-0.000631943
-0.000589481
-0.000644446
-0.000722747
-0.000748544
-0.000727486
-0.000624446
-0.000511338
-0.000372185
-0.000224009
-0.000121466
-2.44766e-05
-0.0803573
-0.0549532
-0.0542621
-0.0466323
-0.0410285
-0.0364009
-0.0328379
-0.0300323
-0.027752
-0.0258555
-0.039806
-0.0439586
-0.0442393
-0.04108
-0.0378022
-0.034814
-0.0320395
-0.0295245
-0.0273115
-0.0254143
-0.0246461
-0.0337141
-0.0367739
-0.0364978
-0.0347099
-0.0324442
-0.0302388
-0.0282237
-0.0264197
-0.0248028
-0.0155128
-0.0237658
-0.0278734
-0.0293182
-0.0293783
-0.0287107
-0.0276516
-0.0263918
-0.0250917
-0.0238248
-0.00971936
-0.0161305
-0.0202561
-0.0225484
-0.0237301
-0.0241975
-0.0241567
-0.0237224
-0.0230751
-0.0222709
-0.00620225
-0.0110414
-0.0147347
-0.0172474
-0.0188946
-0.019912
-0.0204586
-0.0206049
-0.0204982
-0.0201551
-0.00403941
-0.00776221
-0.0109019
-0.0132859
-0.0150195
-0.0162419
-0.0170746
-0.0175641
-0.0178186
-0.0178471
-0.00262643
-0.00556462
-0.00817446
-0.0103014
-0.0119606
-0.0132229
-0.0141729
-0.0148474
-0.0153185
-0.0156069
-0.0016589
-0.00402618
-0.00618468
-0.00803217
-0.00955274
-0.0107748
-0.011748
-0.0125037
-0.0130857
-0.0135263
-0.000984173
-0.0029195
-0.00471081
-0.00629639
-0.00765417
-0.00879095
-0.00973063
-0.0104984
-0.0111183
-0.0116248
-0.000517037
-0.00211299
-0.00360532
-0.00495616
-0.00614577
-0.00717205
-0.00804386
-0.00877865
-0.00938997
-0.00990455
-0.0002028
-0.00152256
-0.002766
-0.00390839
-0.00493432
-0.00583872
-0.00662345
-0.00729833
-0.0078727
-0.00836187
-2.1875e-06
-0.00109041
-0.0021216
-0.00307861
-0.00395008
-0.0047303
-0.00541873
-0.00601911
-0.00653969
-0.00698552
0.00011428
-0.00077524
-0.00162178
-0.00241302
-0.00314079
-0.00379963
-0.00438861
-0.00490759
-0.00536439
-0.00575742
0.000168835
-0.000546841
-0.00123007
-0.00187187
-0.00246647
-0.00300903
-0.0034989
-0.003934
-0.00432141
-0.00465647
0.000178332
-0.000382591
-0.00091919
-0.00142497
-0.00189591
-0.00232805
-0.00272105
-0.00307232
-0.00338769
-0.00366199
0.0001558
-0.000265094
-0.000668196
-0.00104891
-0.00140453
-0.00173204
-0.00203134
-0.00230014
-0.00254291
-0.00275518
0.000111783
-0.000180256
-0.000460229
-0.000724933
-0.000972569
-0.0012011
-0.00141048
-0.00159907
-0.00176991
-0.00192097
5.41981e-05
-0.000116463
-0.000280281
-0.000435173
-0.000580195
-0.00071417
-0.000837143
-0.000947952
-0.00104765
-0.00113357
-2.32957e-05
-8.53069e-05
-0.000142101
-0.000195128
-0.000244787
-0.000290632
-0.000332654
-0.00037101
-0.000407131
-0.000441992
0.0324377
0.0325627
0.0328313
0.0332468
0.033805
0.0344976
0.0353152
0.036244
0.0372649
0.0383467
0.0394483
0.0404976
0.0414055
0.0419905
0.0420527
0.0409835
0.038334
0.0305259
0.0163884
-0.0258491
0.0310739
0.0311792
0.0314053
0.0317535
0.0322173
0.0327856
0.0334452
0.0341761
0.0349534
0.0357347
0.0364702
0.0370639
0.037419
0.0372845
0.0364847
0.0341823
0.0302101
0.0212903
0.00867159
-0.0153749
0.0295998
0.0296858
0.02987
0.0301518
0.0305231
0.0309702
0.0314772
0.032019
0.0325669
0.0330692
0.0334738
0.0336664
0.0335599
0.032868
0.0314902
0.0286258
0.0244149
0.0169711
0.00726641
-0.00601113
0.0280354
0.0281029
0.028247
0.0284654
0.0287491
0.0290824
0.0294476
0.0298161
0.0301573
0.0304146
0.0305373
0.030406
0.0299497
0.0288992
0.0272059
0.0242932
0.0202583
0.0143286
0.00626577
-0.00231067
0.0263998
0.0264501
0.026557
0.026717
0.0269204
0.0271506
0.0273886
0.0276048
0.0277678
0.0278213
0.0277172
0.0273458
0.0266454
0.0254066
0.0235743
0.0208304
0.0170687
0.0122593
0.00551347
-0.00117495
0.0247108
0.0247457
0.0248192
0.024927
0.0250592
0.025199
0.0253273
0.0254147
0.0254307
0.0253232
0.0250467
0.0245115
0.0236561
0.022344
0.0204861
0.0179681
0.0145517
0.0105167
0.00505256
-0.000410375
0.0229845
0.023006
0.0230504
0.0231131
0.0231841
0.0232475
0.0232844
0.0232675
0.0231675
0.0229396
0.0225403
0.0219029
0.0209642
0.019648
0.0178464
0.0155574
0.0125359
0.00908625
0.00473136
0.000255846
0.021235
0.021245
0.021265
0.02129
0.0213104
0.0213115
0.0212753
0.0211776
0.0209906
0.0206781
0.020199
0.0195067
0.0185404
0.0172625
0.0155721
0.0135054
0.0108839
0.00792666
0.00442802
0.000760329
0.019474
0.0194749
0.0194749
0.0194695
0.0194497
0.0194022
0.0193103
0.0191532
0.0189056
0.0185386
0.0180156
0.0173041
0.0163516
0.0151398
0.0135911
0.011741
0.00948731
0.00695966
0.00410144
0.00108616
0.0177114
0.017705
0.0176897
0.017661
0.0176107
0.0175272
0.0173956
0.0171982
0.0169128
0.0165164
0.0159781
0.0152747
0.0143649
0.0132382
0.0118429
0.010203
0.00827139
0.00611874
0.00375261
0.00126612
0.0159546
0.015943
0.0159165
0.015871
0.0157992
0.0156913
0.0155342
0.0153129
0.0150089
0.0146036
0.0140725
0.0133978
0.0125499
0.0115207
0.0102799
0.00884111
0.00718886
0.00536309
0.00339221
0.00133721
0.0142093
0.0141941
0.0141602
0.0141038
0.0140187
0.0138965
0.0137261
0.0134952
0.0131883
0.0127909
0.0122839
0.0116536
0.0108797
0.00995565
0.00886535
0.00761646
0.00620903
0.00466882
0.00302654
0.00132729
0.0124791
0.012462
0.0124241
0.0123621
0.0122707
0.012143
0.0119698
0.011741
0.0114443
0.011068
0.0105979
0.0100235
0.00933125
0.00851619
0.00757067
0.00649993
0.0053102
0.00402064
0.00265799
0.00125697
0.0107662
0.0107486
0.0107096
0.0106465
0.010555
0.0104293
0.0102621
0.0100453
0.00976907
0.00942442
0.00900092
0.00849063
0.00788487
0.00718011
0.00637349
0.00546944
0.00447591
0.00340825
0.00228804
0.00114215
0.00907131
0.00905427
0.00901683
0.00895654
0.00887002
0.00875274
0.00859886
0.00840192
0.00815459
0.00784985
0.00748025
0.00703999
0.00652363
0.00592903
0.00525579
0.00450804
0.00369351
0.00282465
0.00191838
0.000995249
0.00739384
0.00737841
0.0073446
0.00729041
0.00721324
0.00710959
0.006975
0.0068045
0.00659266
0.00633425
0.00602408
0.00565806
0.00523292
0.00474759
0.00420285
0.00360249
0.00295324
0.00226503
0.0015508
0.000825958
0.00573222
0.00571921
0.00569078
0.0056454
0.00558114
0.00549542
0.00538497
0.00524614
0.00507506
0.004868
0.00462146
0.00433275
0.00399999
0.00362283
0.0032025
0.00274226
0.00224753
0.00172592
0.00118696
0.000641868
0.004084
0.00407406
0.00405242
0.004018
0.0039695
0.00390515
0.0038227
0.00371968
0.0035935
0.0034417
0.00326209
0.00305301
0.00281349
0.00254359
0.00224451
0.00191881
0.00157045
0.00120482
0.000828464
0.000449121
0.00244604
0.00243971
0.00242594
0.00240414
0.00237357
0.00233319
0.00228168
0.0022176
0.00213946
0.00204589
0.00193569
0.00180801
0.00166244
0.00149919
0.00131914
0.00112399
0.000916212
0.000699052
0.000476267
0.000252163
0.000814565
0.000812291
0.000807348
0.000799572
0.000788712
0.000774405
0.00075619
0.000733566
0.000706022
0.000673084
0.000634346
0.000589528
0.000538508
0.000481385
0.000418495
0.000350463
0.000278175
0.000202861
0.00012593
4.86394e-05
0.0341264
0.0342727
0.0345864
0.0350733
0.0357319
0.0365581
0.0375477
0.038694
0.0399874
0.0414102
0.042936
0.0445208
0.0461007
0.0475712
0.0487859
0.0494967
0.0494098
0.047659
0.0446725
0.0162267
0.0353856
0.0355547
0.0359172
0.0364815
0.0372489
0.0382195
0.0393946
0.0407756
0.0423627
0.044152
0.046134
0.0482891
0.0505836
0.0529588
0.0553177
0.0575018
0.0592082
0.060145
0.0588721
0.0577798
0.0363598
0.0365475
0.0369504
0.0375787
0.0384363
0.0395267
0.0408563
0.0424329
0.044265
0.0463594
0.0487191
0.0513404
0.0542075
0.0572839
0.0604998
0.0637306
0.0667734
0.0692568
0.0706252
0.0710548
0.0370177
0.0372187
0.0376504
0.0383245
0.0392466
0.040423
0.0418632
0.04358
0.0455872
0.0478985
0.0505248
0.0534708
0.056729
0.0602698
0.0640261
0.0678718
0.0715838
0.0748254
0.0769762
0.0789647
0.037337
0.037545
0.0379918
0.0386899
0.039646
0.0408673
0.0423656
0.0441555
0.046254
0.0486779
0.0514414
0.0545527
0.0580068
0.0617749
0.0657881
0.0699139
0.0739233
0.077466
0.080003
0.0820275
0.0373059
0.037514
0.0379612
0.0386597
0.0396163
0.0408383
0.0423372
0.0441278
0.0462269
0.0486512
0.0514149
0.0545259
0.057979
0.0617455
0.0657561
0.0698782
0.0738825
0.0774181
0.0799469
0.0819677
0.0369245
0.0371259
0.0375584
0.0382338
0.0391575
0.0403357
0.041778
0.0434968
0.0455059
0.0478186
0.0504455
0.0533908
0.0566466
0.0601826
0.0639315
0.067767
0.0714677
0.0746969
0.0768394
0.0788086
0.0362038
0.0363921
0.0367964
0.0374267
0.038287
0.0393806
0.0407137
0.0422939
0.0441293
0.0462263
0.0485876
0.0512087
0.054073
0.057143
0.0603477
0.0635613
0.0665765
0.0690299
0.0703527
0.0707807
0.0351656
0.0353355
0.0357
0.0362671
0.0370383
0.0380134
0.0391935
0.0405798
0.042172
0.0439658
0.0459511
0.0481077
0.0504007
0.0527708
0.0551196
0.0572896
0.0589821
0.059911
0.0586635
0.0575254
0.033841
0.0339884
0.0343044
0.034795
0.0354585
0.0362906
0.0372867
0.0384402
0.0397408
0.0411705
0.0427024
0.0442918
0.0458742
0.0473438
0.0485532
0.0492481
0.0491305
0.0473122
0.0442071
0.0159625
)
;

boundaryField
{
    inlet
    {
        type            zeroGradient;
    }
    outlet
    {
        type            fixedValue;
        value           uniform 0;
    }
    upAndBottom
    {
        type            empty;
    }
    obstacle
    {
        type            zeroGradient;
    }
}


// ************************************************************************* //
