x,y,z,p
0,0,0,0.000308913
0,0.1,0,0.000495827
0,0.2,0,0.000682742
0,0.3,0,0.000869657
0,0.4,0,0.00105657
0,0.5,0,0.00125017
0,0.6,0,0.00149501
0,0.7,0,0.00173986
0,0.8,0,0.0019847
0,0.9,0,0.00222955
0,1,0,0.00247223
0,1.1,0,0.0027077
0,1.2,0,0.00294318
0,1.3,0,0.00317866
0,1.4,0,0.00341413
0,1.5,0,0.00364581
0,1.6,0,0.0038703
0,1.7,0,0.00409479
0,1.8,0,0.00431928
0,1.9,0,0.00454377
0,2,0,0.00476246
0,2.1,0,0.00497436
0,2.2,0,0.00518627
0,2.3,0,0.00539818
0,2.4,0,0.00561008
0,2.5,0,0.00581292
0,2.6,0,0.0060091
0,2.7,0,0.00620529
0,2.8,0,0.00640147
0,2.9,0,0.00659765
0,3,0,0.0067803
0,3.1,0,0.00695693
0,3.2,0,0.00713355
0,3.3,0,0.00731018
0,3.4,0,0.00748681
0,3.5,0,0.00764542
0,3.6,0,0.00779973
0,3.7,0,0.00795405
0,3.8,0,0.00810837
0,3.9,0,0.00826269
0,4,0,0.00839427
0,4.1,0,0.00852395
0,4.2,0,0.00865363
0,4.3,0,0.00878331
0,4.4,0,0.00891198
0,4.5,0,0.00901507
0,4.6,0,0.00911816
0,4.7,0,0.00922125
0,4.8,0,0.00932434
0,4.9,0,0.00942309
0,5,0,0.00949798
0,5.1,0,0.00957287
0,5.2,0,0.00964776
0,5.3,0,0.00972264
0,5.4,0,0.0097896
0,5.5,0,0.00983504
0,5.6,0,0.00988048
0,5.7,0,0.00992592
0,5.8,0,0.00997136
0,5.9,0,0.0100052
0,6,0,0.0100204
0,6.1,0,0.0100356
0,6.2,0,0.0100508
0,6.3,0,0.010066
0,6.4,0,0.010066
0,6.5,0,0.0100507
0,6.6,0,0.0100354
0,6.7,0,0.0100201
0,6.8,0,0.0100048
0,6.9,0,0.00997094
0,7,0,0.0099254
0,7.1,0,0.00987986
0,7.2,0,0.00983433
0,7.3,0,0.00978879
0,7.4,0,0.00972173
0,7.5,0,0.00964675
0,7.6,0,0.00957177
0,7.7,0,0.00949678
0,7.8,0,0.0094218
0,7.9,0,0.00932297
0,8,0,0.0092198
0,8.1,0,0.00911663
0,8.2,0,0.00901346
0,8.3,0,0.00891029
0,8.4,0,0.00878157
0,8.5,0,0.00865182
0,8.6,0,0.00852208
0,8.7,0,0.00839233
0,8.8,0,0.0082607
0,8.9,0,0.00810638
0,9,0,0.00795207
0,9.1,0,0.00779776
0,9.2,0,0.00764344
0,9.3,0,0.00748486
0,9.4,0,0.00730835
0,9.5,0,0.00713184
0,9.6,0,0.00695533
0,9.7,0,0.00677882
0,9.8,0,0.00659633
0,9.9,0,0.00640039
0,10,0,0.00620444
0,10.1,0,0.0060085
0,10.2,0,0.00581255
0,10.3,0,0.0056097
0,10.4,0,0.00539741
0,10.5,0,0.00518513
0,10.6,0,0.00497284
0,10.7,0,0.00476056
0,10.8,0,0.00454125
0,10.9,0,0.00431591
0,11,0,0.00409058
0,11.1,0,0.00386524
0,11.2,0,0.00363991
0,11.3,0,0.00340788
0,11.4,0,0.0031723
0,11.5,0,0.00293672
0,11.6,0,0.00270114
0,11.7,0,0.00246557
0,11.8,0,0.00222328
0,11.9,0,0.00197898
0,12,0,0.00173468
0,12.1,0,0.00149039
0,12.2,0,0.00124609
0,12.3,0,0.00105306
0,12.4,0,0.000866722
0,12.5,0,0.000680382
0,12.6,0,0.000494042
0,12.7,0,0.000307703
0.1,0,0,0.00024713
0.1,0.1,0,0.000434086
0.1,0.2,0,0.000621001
0.1,0.3,0,0.000807916
0.1,0.4,0,0.00100023
0.1,0.5,0,0.00124928
0.1,0.6,0,0.00149598
0.1,0.7,0,0.00174082
0.1,0.8,0,0.00198566
0.1,0.9,0,0.00223035
0.1,1,0,0.00247308
0.1,1.1,0,0.00271059
0.1,1.2,0,0.00294607
0.1,1.3,0,0.00318154
0.1,1.4,0,0.00341708
0.1,1.5,0,0.00364967
0.1,1.6,0,0.00387551
0.1,1.7,0,0.0041
0.1,1.8,0,0.00432449
0.1,1.9,0,0.00454935
0.1,2,0,0.00476877
0.1,2.1,0,0.00498099
0.1,2.2,0,0.0051929
0.1,2.3,0,0.00540481
0.1,2.4,0,0.00561735
0.1,2.5,0,0.00582134
0.1,2.6,0,0.006018
0.1,2.7,0,0.00621418
0.1,2.8,0,0.00641036
0.1,2.9,0,0.00660681
0.1,3,0,0.00679034
0.1,3.1,0,0.00696728
0.1,3.2,0,0.0071439
0.1,3.3,0,0.00732053
0.1,3.4,0,0.00749726
0.1,3.5,0,0.00765679
0.1,3.6,0,0.0078113
0.1,3.7,0,0.00796561
0.1,3.8,0,0.00811993
0.1,3.9,0,0.00827421
0.1,4,0,0.0084068
0.1,4.1,0,0.00853655
0.1,4.2,0,0.00866623
0.1,4.3,0,0.00879591
0.1,4.4,0,0.00892449
0.1,4.5,0,0.00902852
0.1,4.6,0,0.00913161
0.1,4.7,0,0.0092347
0.1,4.8,0,0.00933777
0.1,4.9,0,0.00943654
0.1,5,0,0.00951213
0.1,5.1,0,0.00958702
0.1,5.2,0,0.00966191
0.1,5.3,0,0.00973674
0.1,5.4,0,0.00980374
0.1,5.5,0,0.0098497
0.1,5.6,0,0.00989514
0.1,5.7,0,0.00994058
0.1,5.8,0,0.00998588
0.1,5.9,0,0.0100197
0.1,6,0,0.0100353
0.1,6.1,0,0.0100505
0.1,6.2,0,0.0100657
0.1,6.3,0,0.0100807
0.1,6.4,0,0.0100806
0.1,6.5,0,0.0100656
0.1,6.6,0,0.0100503
0.1,6.7,0,0.0100351
0.1,6.8,0,0.0100193
0.1,6.9,0,0.00998544
0.1,7,0,0.00994008
0.1,7.1,0,0.00989454
0.1,7.2,0,0.009849
0.1,7.3,0,0.00980285
0.1,7.4,0,0.00973579
0.1,7.5,0,0.00966089
0.1,7.6,0,0.00958591
0.1,7.7,0,0.00951092
0.1,7.8,0,0.00943517
0.1,7.9,0,0.0093364
0.1,8,0,0.00923326
0.1,8.1,0,0.00913009
0.1,8.2,0,0.00902692
0.1,8.3,0,0.00892274
0.1,8.4,0,0.00879415
0.1,8.5,0,0.00866441
0.1,8.6,0,0.00853467
0.1,8.7,0,0.00840486
0.1,8.8,0,0.00827215
0.1,8.9,0,0.00811791
0.1,9,0,0.0079636
0.1,9.1,0,0.00780929
0.1,9.2,0,0.00765477
0.1,9.3,0,0.0074952
0.1,9.4,0,0.00731865
0.1,9.5,0,0.00714214
0.1,9.6,0,0.00696563
0.1,9.7,0,0.00678877
0.1,9.8,0,0.00660535
0.1,9.9,0,0.00640924
0.1,10,0,0.00621329
0.1,10.1,0,0.00601735
0.1,10.2,0,0.00582095
0.1,10.3,0,0.00561725
0.1,10.4,0,0.00540471
0.1,10.5,0,0.00519243
0.1,10.6,0,0.00498014
0.1,10.7,0,0.00476727
0.1,10.8,0,0.00454714
0.1,10.9,0,0.00432158
0.1,11,0,0.00409624
0.1,11.1,0,0.00387091
0.1,11.2,0,0.00364477
0.1,11.3,0,0.0034124
0.1,11.4,0,0.00317687
0.1,11.5,0,0.0029413
0.1,11.6,0,0.00270572
0.1,11.7,0,0.00246854
0.1,11.8,0,0.00222755
0.1,11.9,0,0.00198374
0.1,12,0,0.00173945
0.1,12.1,0,0.00149515
0.1,12.2,0,0.0012485
0.1,12.3,0,0.000999122
0.1,12.4,0,0.000806564
0.1,12.5,0,0.000620225
0.1,12.6,0,0.000433885
0.1,12.7,0,0.000246162
0.2,0,0,0.000185348
0.2,0.1,0,0.000372305
0.2,0.2,0,0.00055926
0.2,0.3,0,0.000749768
0.2,0.4,0,0.000999063
0.2,0.5,0,0.00124815
0.2,0.6,0,0.00149511
0.2,0.7,0,0.00174178
0.2,0.8,0,0.0019865
0.2,0.9,0,0.0022305
0.2,1,0,0.00247331
0.2,1.1,0,0.00271149
0.2,1.2,0,0.00294895
0.2,1.3,0,0.00318448
0.2,1.4,0,0.00342014
0.2,1.5,0,0.00365279
0.2,1.6,0,0.00387941
0.2,1.7,0,0.00410521
0.2,1.8,0,0.00433004
0.2,1.9,0,0.00455537
0.2,2,0,0.00477479
0.2,2.1,0,0.00498732
0.2,2.2,0,0.00519953
0.2,2.3,0,0.00541205
0.2,2.4,0,0.0056251
0.2,2.5,0,0.0058291
0.2,2.6,0,0.00602645
0.2,2.7,0,0.00622307
0.2,2.8,0,0.00641951
0.2,2.9,0,0.00661609
0.2,3,0,0.00679961
0.2,3.1,0,0.00697734
0.2,3.2,0,0.00715425
0.2,3.3,0,0.00733098
0.2,3.4,0,0.00750774
0.2,3.5,0,0.00766727
0.2,3.6,0,0.00782269
0.2,3.7,0,0.00797717
0.2,3.8,0,0.00813145
0.2,3.9,0,0.00828573
0.2,4,0,0.00841832
0.2,4.1,0,0.00854911
0.2,4.2,0,0.00867883
0.2,4.3,0,0.00880839
0.2,4.4,0,0.00893698
0.2,4.5,0,0.00904106
0.2,4.6,0,0.00914506
0.2,4.7,0,0.00924814
0.2,4.8,0,0.00935109
0.2,4.9,0,0.00944986
0.2,5,0,0.0095256
0.2,5.1,0,0.00960117
0.2,5.2,0,0.00967601
0.2,5.3,0,0.00975067
0.2,5.4,0,0.00981767
0.2,5.5,0,0.00986385
0.2,5.6,0,0.0099098
0.2,5.7,0,0.0099551
0.2,5.8,0,0.0100002
0.2,5.9,0,0.010034
0.2,6,0,0.0100498
0.2,6.1,0,0.0100654
0.2,6.2,0,0.0100803
0.2,6.3,0,0.010095
0.2,6.4,0,0.010095
0.2,6.5,0,0.0100803
0.2,6.6,0,0.0100653
0.2,6.7,0,0.0100496
0.2,6.8,0,0.0100335
0.2,6.9,0,0.00999964
0.2,7,0,0.00995459
0.2,7.1,0,0.00990921
0.2,7.2,0,0.00986308
0.2,7.3,0,0.00981668
0.2,7.4,0,0.00974962
0.2,7.5,0,0.00967496
0.2,7.6,0,0.00960005
0.2,7.7,0,0.00952432
0.2,7.8,0,0.00944839
0.2,7.9,0,0.00934962
0.2,8,0,0.0092467
0.2,8.1,0,0.00914355
0.2,8.2,0,0.00903939
0.2,8.3,0,0.00893514
0.2,8.4,0,0.00880656
0.2,8.5,0,0.008677
0.2,8.6,0,0.00854722
0.2,8.7,0,0.00841631
0.2,8.8,0,0.00828361
0.2,8.9,0,0.00812937
0.2,9,0,0.00797513
0.2,9.1,0,0.00782064
0.2,9.2,0,0.00766511
0.2,9.3,0,0.00750554
0.2,9.4,0,0.00732899
0.2,9.5,0,0.00715244
0.2,9.6,0,0.00697561
0.2,9.7,0,0.00679788
0.2,9.8,0,0.00661446
0.2,9.9,0,0.00641825
0.2,10,0,0.00622214
0.2,10.1,0,0.00602577
0.2,10.2,0,0.00582869
0.2,10.3,0,0.00562499
0.2,10.4,0,0.00541225
0.2,10.5,0,0.00519972
0.2,10.6,0,0.00498688
0.2,10.7,0,0.00477345
0.2,10.8,0,0.00455333
0.2,10.9,0,0.00432746
0.2,11,0,0.0041019
0.2,11.1,0,0.0038758
0.2,11.2,0,0.0036492
0.2,11.3,0,0.00341683
0.2,11.4,0,0.0031814
0.2,11.5,0,0.00294587
0.2,11.6,0,0.00270874
0.2,11.7,0,0.00247102
0.2,11.8,0,0.00223003
0.2,11.9,0,0.00198806
0.2,12,0,0.00174421
0.2,12.1,0,0.00149763
0.2,12.2,0,0.0012506
0.2,12.3,0,0.00100124
0.2,12.4,0,0.000751531
0.2,12.5,0,0.000560068
0.2,12.6,0,0.000372379
0.2,12.7,0,0.000184622
0.3,0,0,0.000123565
0.3,0.1,0,0.000310522
0.3,0.2,0,0.00049962
0.3,0.3,0,0.000748605
0.3,0.4,0,0.0009979
0.3,0.5,0,0.00124701
0.3,0.6,0,0.00149397
0.3,0.7,0,0.00174083
0.3,0.8,0,0.00198665
0.3,0.9,0,0.00223066
0.3,1,0,0.00247354
0.3,1.1,0,0.00271171
0.3,1.2,0,0.00294994
0.3,1.3,0,0.00318755
0.3,1.4,0,0.00342321
0.3,1.5,0,0.00365592
0.3,1.6,0,0.00388253
0.3,1.7,0,0.00410947
0.3,1.8,0,0.00433607
0.3,1.9,0,0.0045614
0.3,2,0,0.00478082
0.3,2.1,0,0.00499335
0.3,2.2,0,0.00520645
0.3,2.3,0,0.0054198
0.3,2.4,0,0.00563285
0.3,2.5,0,0.00583685
0.3,2.6,0,0.0060342
0.3,2.7,0,0.0062318
0.3,2.8,0,0.00642879
0.3,2.9,0,0.00662536
0.3,3,0,0.00680889
0.3,3.1,0,0.00698661
0.3,3.2,0,0.00716444
0.3,3.3,0,0.00734146
0.3,3.4,0,0.00751822
0.3,3.5,0,0.00767775
0.3,3.6,0,0.00783317
0.3,3.7,0,0.00798856
0.3,3.8,0,0.00814297
0.3,3.9,0,0.00829725
0.3,4,0,0.00842984
0.3,4.1,0,0.00856063
0.3,4.2,0,0.0086913
0.3,4.3,0,0.00882087
0.3,4.4,0,0.00894946
0.3,4.5,0,0.00905354
0.3,4.6,0,0.00915761
0.3,4.7,0,0.00926146
0.3,4.8,0,0.00936442
0.3,4.9,0,0.00946318
0.3,5,0,0.00953892
0.3,5.1,0,0.00961462
0.3,5.2,0,0.00968994
0.3,5.3,0,0.00976461
0.3,5.4,0,0.0098316
0.3,5.5,0,0.00987778
0.3,5.6,0,0.00992384
0.3,5.7,0,0.00996938
0.3,5.8,0,0.0100144
0.3,5.9,0,0.0100482
0.3,6,0,0.0100641
0.3,6.1,0,0.0100797
0.3,6.2,0,0.0100947
0.3,6.3,0,0.0101094
0.3,6.4,0,0.0101094
0.3,6.5,0,0.0100946
0.3,6.6,0,0.0100795
0.3,6.7,0,0.0100637
0.3,6.8,0,0.0100477
0.3,6.9,0,0.0100138
0.3,7,0,0.00996878
0.3,7.1,0,0.00992316
0.3,7.2,0,0.00987691
0.3,7.3,0,0.00983051
0.3,7.4,0,0.00976345
0.3,7.5,0,0.00968879
0.3,7.6,0,0.0096134
0.3,7.7,0,0.00953754
0.3,7.8,0,0.00946162
0.3,7.9,0,0.00936285
0.3,8,0,0.00925992
0.3,8.1,0,0.00915603
0.3,8.2,0,0.0090518
0.3,8.3,0,0.00894755
0.3,8.4,0,0.00881896
0.3,8.5,0,0.0086894
0.3,8.6,0,0.00855867
0.3,8.7,0,0.00842776
0.3,8.8,0,0.00829506
0.3,8.9,0,0.00814082
0.3,9,0,0.00798644
0.3,9.1,0,0.00783098
0.3,9.2,0,0.00767546
0.3,9.3,0,0.00751589
0.3,9.4,0,0.00733933
0.3,9.5,0,0.00716248
0.3,9.6,0,0.00698471
0.3,9.7,0,0.00680698
0.3,9.8,0,0.00662357
0.3,9.9,0,0.00642736
0.3,10,0,0.00623075
0.3,10.1,0,0.00603351
0.3,10.2,0,0.00583644
0.3,10.3,0,0.00563273
0.3,10.4,0,0.00541999
0.3,10.5,0,0.00520672
0.3,10.6,0,0.00499306
0.3,10.7,0,0.00477964
0.3,10.8,0,0.00455951
0.3,10.9,0,0.00433364
0.3,11,0,0.00410703
0.3,11.1,0,0.00388022
0.3,11.2,0,0.00365363
0.3,11.3,0,0.00342125
0.3,11.4,0,0.00318583
0.3,11.5,0,0.0029489
0.3,11.6,0,0.00271122
0.3,11.7,0,0.00247349
0.3,11.8,0,0.0022325
0.3,11.9,0,0.00199054
0.3,12,0,0.00174635
0.3,12.1,0,0.00149973
0.3,12.2,0,0.00125271
0.3,12.3,0,0.00100335
0.3,12.4,0,0.000753648
0.3,12.5,0,0.000502275
0.3,12.6,0,0.000310838
0.3,12.7,0,0.000123081
0.4,0,0,6.17825e-05
0.4,0.1,0,0.00024981
0.4,0.2,0,0.000498781
0.4,0.3,0,0.000747752
0.4,0.4,0,0.000996737
0.4,0.5,0,0.00124588
0.4,0.6,0,0.00149276
0.4,0.7,0,0.00173889
0.4,0.8,0,0.00198503
0.4,0.9,0,0.00223081
0.4,1,0,0.00247377
0.4,1.1,0,0.00271198
0.4,1.2,0,0.00295035
0.4,1.3,0,0.00318872
0.4,1.4,0,0.00342627
0.4,1.5,0,0.00365904
0.4,1.6,0,0.00388595
0.4,1.7,0,0.00411342
0.4,1.8,0,0.00434089
0.4,1.9,0,0.00456743
0.4,2,0,0.00478685
0.4,2.1,0,0.00499993
0.4,2.2,0,0.0052136
0.4,2.3,0,0.00542727
0.4,2.4,0,0.0056406
0.4,2.5,0,0.0058446
0.4,2.6,0,0.00604219
0.4,2.7,0,0.00623993
0.4,2.8,0,0.00643768
0.4,2.9,0,0.00663464
0.4,3,0,0.00681817
0.4,3.1,0,0.00699599
0.4,3.2,0,0.00717384
0.4,3.3,0,0.0073517
0.4,3.4,0,0.0075287
0.4,3.5,0,0.00768823
0.4,3.6,0,0.00784362
0.4,3.7,0,0.007999
0.4,3.8,0,0.00815438
0.4,3.9,0,0.00830877
0.4,4,0,0.00844136
0.4,4.1,0,0.00857204
0.4,4.2,0,0.0087027
0.4,4.3,0,0.00883335
0.4,4.4,0,0.00896194
0.4,4.5,0,0.00906601
0.4,4.6,0,0.00916996
0.4,4.7,0,0.00927392
0.4,4.8,0,0.00937774
0.4,4.9,0,0.00947651
0.4,5,0,0.0095522
0.4,5.1,0,0.00962772
0.4,5.2,0,0.00970323
0.4,5.3,0,0.00977854
0.4,5.4,0,0.00984553
0.4,5.5,0,0.0098916
0.4,5.6,0,0.00993739
0.4,5.7,0,0.00998319
0.4,5.8,0,0.0100287
0.4,5.9,0,0.0100625
0.4,6,0,0.0100781
0.4,6.1,0,0.0100934
0.4,6.2,0,0.0101087
0.4,6.3,0,0.0101237
0.4,6.4,0,0.0101237
0.4,6.5,0,0.0101086
0.4,6.6,0,0.0100932
0.4,6.7,0,0.0100777
0.4,6.8,0,0.0100619
0.4,6.9,0,0.010028
0.4,7,0,0.00998243
0.4,7.1,0,0.00993651
0.4,7.2,0,0.0098906
0.4,7.3,0,0.00984433
0.4,7.4,0,0.00977728
0.4,7.5,0,0.00970191
0.4,7.6,0,0.00962631
0.4,7.7,0,0.00955071
0.4,7.8,0,0.00947485
0.4,7.9,0,0.00937607
0.4,8,0,0.00927221
0.4,8.1,0,0.0091682
0.4,8.2,0,0.00906419
0.4,8.3,0,0.00895995
0.4,8.4,0,0.00883137
0.4,8.5,0,0.00870067
0.4,8.6,0,0.00856995
0.4,8.7,0,0.00843921
0.4,8.8,0,0.00830651
0.4,8.9,0,0.00815215
0.4,9,0,0.00799671
0.4,9.1,0,0.00784126
0.4,9.2,0,0.0076858
0.4,9.3,0,0.00752623
0.4,9.4,0,0.00734941
0.4,9.5,0,0.00717163
0.4,9.6,0,0.00699385
0.4,9.7,0,0.00681609
0.4,9.8,0,0.00663267
0.4,9.9,0,0.00643609
0.4,10,0,0.00623875
0.4,10.1,0,0.00604142
0.4,10.2,0,0.00584418
0.4,10.3,0,0.00564048
0.4,10.4,0,0.00542723
0.4,10.5,0,0.00521335
0.4,10.6,0,0.00499947
0.4,10.7,0,0.00478582
0.4,10.8,0,0.0045657
0.4,10.9,0,0.00433912
0.4,11,0,0.00411198
0.4,11.1,0,0.00388485
0.4,11.2,0,0.00365805
0.4,11.3,0,0.00342568
0.4,11.4,0,0.0031888
0.4,11.5,0,0.00295123
0.4,11.6,0,0.00271365
0.4,11.7,0,0.00247597
0.4,11.8,0,0.00223498
0.4,11.9,0,0.00199085
0.4,12,0,0.00174615
0.4,12.1,0,0.00150144
0.4,12.2,0,0.00125481
0.4,12.3,0,0.00100547
0.4,12.4,0,0.00075415
0.4,12.5,0,0.000502644
0.4,12.6,0,0.000251138
0.4,12.7,0,6.15406e-05
0.5,0,0,0
0.5,0.1,0,0.000248983
0.5,0.2,0,0.000497966
0.5,0.3,0,0.000746949
0.5,0.4,0,0.000995932
0.5,0.5,0,0.00124481
0.5,0.6,0,0.0014909
0.5,0.7,0,0.00173698
0.5,0.8,0,0.00198309
0.5,0.9,0,0.00222923
0.5,1,0,0.00247403
0.5,1.1,0,0.0027124
0.5,1.2,0,0.00295077
0.5,1.3,0,0.00318914
0.5,1.4,0,0.00342751
0.5,1.5,0,0.00366242
0.5,1.6,0,0.00388989
0.5,1.7,0,0.00411736
0.5,1.8,0,0.00434483
0.5,1.9,0,0.0045723
0.5,2,0,0.00479341
0.5,2.1,0,0.00500708
0.5,2.2,0,0.00522075
0.5,2.3,0,0.00543442
0.5,2.4,0,0.0056481
0.5,2.5,0,0.00585258
0.5,2.6,0,0.00605032
0.5,2.7,0,0.00624807
0.5,2.8,0,0.00644581
0.5,2.9,0,0.00664356
0.5,3,0,0.00682753
0.5,3.1,0,0.00700539
0.5,3.2,0,0.00718325
0.5,3.3,0,0.00736111
0.5,3.4,0,0.00753897
0.5,3.5,0,0.00769867
0.5,3.6,0,0.00785405
0.5,3.7,0,0.00800944
0.5,3.8,0,0.00816482
0.5,3.9,0,0.0083202
0.5,4,0,0.00845277
0.5,4.1,0,0.00858344
0.5,4.2,0,0.00871411
0.5,4.3,0,0.00884477
0.5,4.4,0,0.00897441
0.5,4.5,0,0.00907836
0.5,4.6,0,0.00918231
0.5,4.7,0,0.00928626
0.5,4.8,0,0.00939022
0.5,4.9,0,0.00948979
0.5,5,0,0.00956531
0.5,5.1,0,0.00964082
0.5,5.2,0,0.00971633
0.5,5.3,0,0.00979185
0.5,5.4,0,0.00985936
0.5,5.5,0,0.00990515
0.5,5.6,0,0.00995095
0.5,5.7,0,0.00999674
0.5,5.8,0,0.0100425
0.5,5.9,0,0.0100766
0.5,6,0,0.0100919
0.5,6.1,0,0.0101072
0.5,6.2,0,0.0101225
0.5,6.3,0,0.0101378
0.5,6.4,0,0.0101377
0.5,6.5,0,0.0101222
0.5,6.6,0,0.0101068
0.5,6.7,0,0.0100913
0.5,6.8,0,0.0100759
0.5,6.9,0,0.0100417
0.5,7,0,0.00999578
0.5,7.1,0,0.00994987
0.5,7.2,0,0.00990395
0.5,7.3,0,0.00985803
0.5,7.4,0,0.00979042
0.5,7.5,0,0.00971482
0.5,7.6,0,0.00963922
0.5,7.7,0,0.00956362
0.5,7.8,0,0.00948802
0.5,7.9,0,0.00938838
0.5,8,0,0.00928438
0.5,8.1,0,0.00918037
0.5,8.2,0,0.00907636
0.5,8.3,0,0.00897235
0.5,8.4,0,0.00884265
0.5,8.5,0,0.00871193
0.5,8.6,0,0.00858121
0.5,8.7,0,0.00845049
0.5,8.8,0,0.00831787
0.5,8.9,0,0.00816242
0.5,9,0,0.00800697
0.5,9.1,0,0.00785153
0.5,9.2,0,0.00769608
0.5,9.3,0,0.00753634
0.5,9.4,0,0.00735856
0.5,9.5,0,0.00718078
0.5,9.6,0,0.007003
0.5,9.7,0,0.00682523
0.5,9.8,0,0.00664143
0.5,9.9,0,0.00644409
0.5,10,0,0.00624675
0.5,10.1,0,0.00604941
0.5,10.2,0,0.00585208
0.5,10.3,0,0.00564774
0.5,10.4,0,0.00543386
0.5,10.5,0,0.00521998
0.5,10.6,0,0.0050061
0.5,10.7,0,0.00479222
0.5,10.8,0,0.0045712
0.5,10.9,0,0.00434406
0.5,11,0,0.00411693
0.5,11.1,0,0.0038898
0.5,11.2,0,0.00366266
0.5,11.3,0,0.0034287
0.5,11.4,0,0.00319113
0.5,11.5,0,0.00295356
0.5,11.6,0,0.00271598
0.5,11.7,0,0.00247841
0.5,11.8,0,0.00223536
0.5,11.9,0,0.00199067
0.5,12,0,0.00174598
0.5,12.1,0,0.00150129
0.5,12.2,0,0.0012566
0.5,12.3,0,0.00100603
0.5,12.4,0,0.000754524
0.5,12.5,0,0.000503016
0.5,12.6,0,0.000251508
0.5,12.7,0,0
0.6,0,0,0
0.6,0.1,0,0.000251402
0.6,0.2,0,0.000500385
0.6,0.3,0,0.000749368
0.6,0.4,0,0.000998416
0.6,0.5,0,0.00124857
0.6,0.6,0,0.00149643
0.6,0.7,0,0.00174251
0.6,0.8,0,0.0019886
0.6,0.9,0,0.00223479
0.6,1,0,0.00248106
0.6,1.1,0,0.00272241
0.6,1.2,0,0.00296079
0.6,1.3,0,0.00319917
0.6,1.4,0,0.00343834
0.6,1.5,0,0.0036761
0.6,1.6,0,0.00390479
0.6,1.7,0,0.00413229
0.6,1.8,0,0.00435978
0.6,1.9,0,0.00458862
0.6,2,0,0.00481229
0.6,2.1,0,0.0050267
0.6,2.2,0,0.00524037
0.6,2.3,0,0.00545405
0.6,2.4,0,0.00567032
0.6,2.5,0,0.00587808
0.6,2.6,0,0.0060767
0.6,2.7,0,0.00627445
0.6,2.8,0,0.00647219
0.6,2.9,0,0.00667124
0.6,3,0,0.00685729
0.6,3.1,0,0.00703576
0.6,3.2,0,0.00721362
0.6,3.3,0,0.00739147
0.6,3.4,0,0.00757077
0.6,3.5,0,0.00773211
0.6,3.6,0,0.00788776
0.6,3.7,0,0.00804314
0.6,3.8,0,0.00819852
0.6,3.9,0,0.00835566
0.6,4,0,0.0084894
0.6,4.1,0,0.00862013
0.6,4.2,0,0.0087508
0.6,4.3,0,0.00888149
0.6,4.4,0,0.00901303
0.6,4.5,0,0.00911783
0.6,4.6,0,0.00922178
0.6,4.7,0,0.00932573
0.6,4.8,0,0.00942989
0.6,4.9,0,0.00953094
0.6,5,0,0.009607
0.6,5.1,0,0.00968251
0.6,5.2,0,0.00975803
0.6,5.3,0,0.00983384
0.6,5.4,0,0.00990232
0.6,5.5,0,0.00994828
0.6,5.6,0,0.00999408
0.6,5.7,0,0.0100399
0.6,5.8,0,0.010086
0.6,5.9,0,0.0101205
0.6,6,0,0.0101357
0.6,6.1,0,0.010151
0.6,6.2,0,0.0101663
0.6,6.3,0,0.0101819
0.6,6.4,0,0.0101817
0.6,6.5,0,0.010166
0.6,6.6,0,0.0101505
0.6,6.7,0,0.0101351
0.6,6.8,0,0.0101198
0.6,6.9,0,0.010085
0.6,7,0,0.0100387
0.6,7.1,0,0.00999278
0.6,7.2,0,0.00994686
0.6,7.3,0,0.00990089
0.6,7.4,0,0.00983225
0.6,7.5,0,0.00975631
0.6,7.6,0,0.00968071
0.6,7.7,0,0.00960511
0.6,7.8,0,0.00952909
0.6,7.9,0,0.0094279
0.6,8,0,0.00932366
0.6,8.1,0,0.00921965
0.6,8.2,0,0.00911565
0.6,8.3,0,0.00901089
0.6,8.4,0,0.00887927
0.6,8.5,0,0.00874852
0.6,8.6,0,0.0086178
0.6,8.7,0,0.00848702
0.6,8.8,0,0.00835323
0.6,8.9,0,0.00819598
0.6,9,0,0.00804054
0.6,9.1,0,0.00788509
0.6,9.2,0,0.00772938
0.6,9.3,0,0.00756793
0.6,9.4,0,0.00738842
0.6,9.5,0,0.00721064
0.6,9.6,0,0.00703287
0.6,9.7,0,0.00685455
0.6,9.8,0,0.00666879
0.6,9.9,0,0.00647001
0.6,10,0,0.00627267
0.6,10.1,0,0.00607533
0.6,10.2,0,0.00587704
0.6,10.3,0,0.00567041
0.6,10.4,0,0.00545534
0.6,10.5,0,0.00524146
0.6,10.6,0,0.00502758
0.6,10.7,0,0.00481235
0.6,10.8,0,0.00458849
0.6,10.9,0,0.00436004
0.6,11,0,0.00413291
0.6,11.1,0,0.00390578
0.6,11.2,0,0.0036767
0.6,11.3,0,0.00343968
0.6,11.4,0,0.00320119
0.6,11.5,0,0.00296362
0.6,11.6,0,0.00272605
0.6,11.7,0,0.0024862
0.6,11.8,0,0.00224037
0.6,11.9,0,0.00199517
0.6,12,0,0.00175048
0.6,12.1,0,0.00150579
0.6,12.2,0,0.00125785
0.6,12.3,0,0.00100702
0.6,12.4,0,0.000755548
0.6,12.5,0,0.00050404
0.6,12.6,0,0.000252532
0.6,12.7,0,0
0.7,0,0,0
0.7,0.1,0,0.00025142
0.7,0.2,0,0.000502805
0.7,0.3,0,0.000751825
0.7,0.4,0,0.00100209
0.7,0.5,0,0.00125226
0.7,0.6,0,0.00150024
0.7,0.7,0,0.00174805
0.7,0.8,0,0.00199421
0.7,0.9,0,0.00224121
0.7,1,0,0.00248756
0.7,1.1,0,0.00272967
0.7,1.2,0,0.00297095
0.7,1.3,0,0.00320996
0.7,1.4,0,0.00345144
0.7,1.5,0,0.00368929
0.7,1.6,0,0.00391864
0.7,1.7,0,0.00414727
0.7,1.8,0,0.00437594
0.7,1.9,0,0.0046067
0.7,2,0,0.0048305
0.7,2.1,0,0.00504562
0.7,2.2,0,0.00526
0.7,2.3,0,0.00547613
0.7,2.4,0,0.00569457
0.7,2.5,0,0.00590233
0.7,2.6,0,0.00610226
0.7,2.7,0,0.00630083
0.7,2.8,0,0.00649983
0.7,2.9,0,0.00669952
0.7,3,0,0.00688558
0.7,3.1,0,0.00706557
0.7,3.2,0,0.00724398
0.7,3.3,0,0.00742324
0.7,3.4,0,0.00760294
0.7,3.5,0,0.00776427
0.7,3.6,0,0.00792123
0.7,3.7,0,0.00807684
0.7,3.8,0,0.00823394
0.7,3.9,0,0.00839127
0.7,4,0,0.00852501
0.7,4.1,0,0.00865678
0.7,4.2,0,0.00878749
0.7,4.3,0,0.00892007
0.7,4.4,0,0.00905161
0.7,4.5,0,0.00915647
0.7,4.6,0,0.00926125
0.7,4.7,0,0.00936537
0.7,4.8,0,0.00947095
0.7,4.9,0,0.009572
0.7,5,0,0.00964817
0.7,5.1,0,0.00972421
0.7,5.2,0,0.0098
0.7,5.3,0,0.00987673
0.7,5.4,0,0.0099452
0.7,5.5,0,0.00999125
0.7,5.6,0,0.0100372
0.7,5.7,0,0.0100833
0.7,5.8,0,0.01013
0.7,5.9,0,0.0101645
0.7,6,0,0.0101796
0.7,6.1,0,0.0101948
0.7,6.2,0,0.0102104
0.7,6.3,0,0.0102263
0.7,6.4,0,0.0102261
0.7,6.5,0,0.01021
0.7,6.6,0,0.0101942
0.7,6.7,0,0.010179
0.7,6.8,0,0.0101638
0.7,6.9,0,0.010129
0.7,7,0,0.010082
0.7,7.1,0,0.0100357
0.7,7.2,0,0.00998972
0.7,7.3,0,0.00994372
0.7,7.4,0,0.00987508
0.7,7.5,0,0.00979811
0.7,7.6,0,0.00972221
0.7,7.7,0,0.00964619
0.7,7.8,0,0.00957007
0.7,7.9,0,0.00946888
0.7,8,0,0.00936314
0.7,8.1,0,0.00925894
0.7,8.2,0,0.0091542
0.7,8.3,0,0.00904939
0.7,8.4,0,0.00891778
0.7,8.5,0,0.00878511
0.7,8.6,0,0.00865436
0.7,8.7,0,0.00852254
0.7,8.8,0,0.00838875
0.7,8.9,0,0.0082313
0.7,9,0,0.0080741
0.7,9.1,0,0.00791842
0.7,9.2,0,0.00776139
0.7,9.3,0,0.00759994
0.7,9.4,0,0.00741996
0.7,9.5,0,0.0072405
0.7,9.6,0,0.00706224
0.7,9.7,0,0.00688258
0.7,9.8,0,0.00669682
0.7,9.9,0,0.00649732
0.7,10,0,0.00629859
0.7,10.1,0,0.00610035
0.7,10.2,0,0.00590063
0.7,10.3,0,0.005694
0.7,10.4,0,0.00547797
0.7,10.5,0,0.00526294
0.7,10.6,0,0.00504777
0.7,10.7,0,0.00483128
0.7,10.8,0,0.00460742
0.7,10.9,0,0.00437726
0.7,11,0,0.00414889
0.7,11.1,0,0.00391988
0.7,11.2,0,0.00368968
0.7,11.3,0,0.00345259
0.7,11.4,0,0.00321206
0.7,11.5,0,0.00297369
0.7,11.6,0,0.00273391
0.7,11.7,0,0.0024933
0.7,11.8,0,0.00224739
0.7,11.9,0,0.00200007
0.7,12,0,0.00175498
0.7,12.1,0,0.0015071
0.7,12.2,0,0.00125861
0.7,12.3,0,0.00100773
0.7,12.4,0,0.000756553
0.7,12.5,0,0.000505065
0.7,12.6,0,0.000252558
0.7,12.7,0,0
0.8,0,0,0
0.8,0.1,0,0.00025142
0.8,0.2,0,0.000502859
0.8,0.3,0,0.000755502
0.8,0.4,0,0.00100577
0.8,0.5,0,0.00125595
0.8,0.6,0,0.00150393
0.8,0.7,0,0.00175195
0.8,0.8,0,0.00200063
0.8,0.9,0,0.00224763
0.8,1,0,0.00249407
0.8,1.1,0,0.00273618
0.8,1.2,0,0.00297877
0.8,1.3,0,0.00322306
0.8,1.4,0,0.00346453
0.8,1.5,0,0.00370248
0.8,1.6,0,0.00393183
0.8,1.7,0,0.00416218
0.8,1.8,0,0.00439402
0.8,1.9,0,0.00462478
0.8,2,0,0.00484871
0.8,2.1,0,0.00506383
0.8,2.2,0,0.00528123
0.8,2.3,0,0.00550037
0.8,2.4,0,0.00571881
0.8,2.5,0,0.00592657
0.8,2.6,0,0.0061265
0.8,2.7,0,0.00632765
0.8,2.8,0,0.00652811
0.8,2.9,0,0.00672781
0.8,3,0,0.00691386
0.8,3.1,0,0.00709385
0.8,3.2,0,0.0072752
0.8,3.3,0,0.0074554
0.8,3.4,0,0.0076351
0.8,3.5,0,0.00779643
0.8,3.6,0,0.00795339
0.8,3.7,0,0.00811202
0.8,3.8,0,0.00826955
0.8,3.9,0,0.00842688
0.8,4,0,0.00856062
0.8,4.1,0,0.00869239
0.8,4.2,0,0.00882604
0.8,4.3,0,0.00895866
0.8,4.4,0,0.00909019
0.8,4.5,0,0.00919505
0.8,4.6,0,0.00930004
0.8,4.7,0,0.00940642
0.8,4.8,0,0.009512
0.8,4.9,0,0.00961305
0.8,5,0,0.00968922
0.8,5.1,0,0.00976564
0.8,5.2,0,0.00984288
0.8,5.3,0,0.00991962
0.8,5.4,0,0.00998809
0.8,5.5,0,0.0100341
0.8,5.6,0,0.0100805
0.8,5.7,0,0.0101273
0.8,5.8,0,0.010174
0.8,5.9,0,0.0102086
0.8,6,0,0.0102236
0.8,6.1,0,0.010239
0.8,6.2,0,0.0102548
0.8,6.3,0,0.0102706
0.8,6.4,0,0.0102705
0.8,6.5,0,0.0102544
0.8,6.6,0,0.0102384
0.8,6.7,0,0.0102229
0.8,6.8,0,0.0102078
0.8,6.9,0,0.010173
0.8,7,0,0.010126
0.8,7.1,0,0.0100789
0.8,7.2,0,0.0100325
0.8,7.3,0,0.00998654
0.8,7.4,0,0.00991791
0.8,7.5,0,0.00984094
0.8,7.6,0,0.00976357
0.8,7.7,0,0.00968717
0.8,7.8,0,0.00961105
0.8,7.9,0,0.00950987
0.8,8,0,0.00940412
0.8,8.1,0,0.00929766
0.8,8.2,0,0.00919271
0.8,8.3,0,0.0090879
0.8,8.4,0,0.00895629
0.8,8.5,0,0.00882359
0.8,8.6,0,0.00868988
0.8,8.7,0,0.00855806
0.8,8.8,0,0.00842427
0.8,8.9,0,0.00826682
0.8,9,0,0.00810917
0.8,9.1,0,0.00795043
0.8,9.2,0,0.0077934
0.8,9.3,0,0.00763196
0.8,9.4,0,0.00745197
0.8,9.5,0,0.00727154
0.8,9.6,0,0.00709026
0.8,9.7,0,0.00691061
0.8,9.8,0,0.00672485
0.8,9.9,0,0.00652535
0.8,10,0,0.00632501
0.8,10.1,0,0.00612394
0.8,10.2,0,0.00592421
0.8,10.3,0,0.00571759
0.8,10.4,0,0.00550155
0.8,10.5,0,0.00528429
0.8,10.6,0,0.0050667
0.8,10.7,0,0.0048502
0.8,10.8,0,0.00462635
0.8,10.9,0,0.00439619
0.8,11,0,0.0041642
0.8,11.1,0,0.00393286
0.8,11.2,0,0.00370266
0.8,11.3,0,0.00346549
0.8,11.4,0,0.00322497
0.8,11.5,0,0.00298229
0.8,11.6,0,0.002741
0.8,11.7,0,0.00250039
0.8,11.8,0,0.00225441
0.8,11.9,0,0.0020071
0.8,12,0,0.00175666
0.8,12.1,0,0.00150786
0.8,12.2,0,0.00125936
0.8,12.3,0,0.00100844
0.8,12.4,0,0.000757265
0.8,12.5,0,0.000505106
0.8,12.6,0,0.000252558
0.8,12.7,0,0
0.9,0,0,0
0.9,0.1,0,0.000251429
0.9,0.2,0,0.000504126
0.9,0.3,0,0.000756822
0.9,0.4,0,0.00100945
0.9,0.5,0,0.00125964
0.9,0.6,0,0.00150765
0.9,0.7,0,0.00175652
0.9,0.8,0,0.00200538
0.9,0.9,0,0.00225405
0.9,1,0,0.00250058
0.9,1.1,0,0.002743
0.9,1.2,0,0.00298825
0.9,1.3,0,0.0032335
0.9,1.4,0,0.00347763
0.9,1.5,0,0.00371567
0.9,1.6,0,0.00394587
0.9,1.7,0,0.00417848
0.9,1.8,0,0.0044111
0.9,1.9,0,0.00464287
0.9,2,0,0.00486692
0.9,2.1,0,0.00508404
0.9,2.2,0,0.00530399
0.9,2.3,0,0.00552394
0.9,2.4,0,0.00574305
0.9,2.5,0,0.00595081
0.9,2.6,0,0.00615191
0.9,2.7,0,0.00635379
0.9,2.8,0,0.00655567
0.9,2.9,0,0.00675609
0.9,3,0,0.00694214
0.9,3.1,0,0.00712345
0.9,3.2,0,0.00730528
0.9,3.3,0,0.0074871
0.9,3.4,0,0.00766726
0.9,3.5,0,0.00782859
0.9,3.6,0,0.00798717
0.9,3.7,0,0.00814609
0.9,3.8,0,0.008305
0.9,3.9,0,0.00846249
0.9,4,0,0.00859623
0.9,4.1,0,0.00872984
0.9,4.2,0,0.00886355
0.9,4.3,0,0.00899724
0.9,4.4,0,0.00912877
0.9,4.5,0,0.00923373
0.9,4.6,0,0.00934021
0.9,4.7,0,0.00944669
0.9,4.8,0,0.00955305
0.9,4.9,0,0.0096541
0.9,5,0,0.00973049
0.9,5.1,0,0.00980788
0.9,5.2,0,0.00988528
0.9,5.3,0,0.00996251
0.9,5.4,0,0.010031
0.9,5.5,0,0.0100773
0.9,5.6,0,0.0101242
0.9,5.7,0,0.0101712
0.9,5.8,0,0.010218
0.9,5.9,0,0.0102526
0.9,6,0,0.0102679
0.9,6.1,0,0.0102836
0.9,6.2,0,0.0102993
0.9,6.3,0,0.010315
0.9,6.4,0,0.0103149
0.9,6.5,0,0.0102989
0.9,6.6,0,0.0102831
0.9,6.7,0,0.0102672
0.9,6.8,0,0.0102517
0.9,6.9,0,0.010217
0.9,7,0,0.0101699
0.9,7.1,0,0.0101228
0.9,7.2,0,0.0100757
0.9,7.3,0,0.0100294
0.9,7.4,0,0.00996074
0.9,7.5,0,0.00988338
0.9,7.6,0,0.00980589
0.9,7.7,0,0.0097284
0.9,7.8,0,0.00965204
0.9,7.9,0,0.00955085
0.9,8,0,0.00944441
0.9,8.1,0,0.00933786
0.9,8.2,0,0.00923132
0.9,8.3,0,0.0091264
0.9,8.4,0,0.00899479
0.9,8.5,0,0.00886103
0.9,8.6,0,0.00872725
0.9,8.7,0,0.00859358
0.9,8.8,0,0.00845979
0.9,8.9,0,0.00830218
0.9,9,0,0.00814314
0.9,9.1,0,0.00798411
0.9,9.2,0,0.00782541
0.9,9.3,0,0.00766397
0.9,9.4,0,0.00748358
0.9,9.5,0,0.00730173
0.9,9.6,0,0.00711987
0.9,9.7,0,0.00693864
0.9,9.8,0,0.00675288
0.9,9.9,0,0.00655259
0.9,10,0,0.0063507
0.9,10.1,0,0.00614882
0.9,10.2,0,0.0059478
0.9,10.3,0,0.00574117
0.9,10.4,0,0.00552397
0.9,10.5,0,0.00530532
0.9,10.6,0,0.00508667
0.9,10.7,0,0.00486913
0.9,10.8,0,0.00464527
0.9,10.9,0,0.00441337
0.9,11,0,0.00418011
0.9,11.1,0,0.00394686
0.9,11.2,0,0.00371564
0.9,11.3,0,0.0034784
0.9,11.4,0,0.00323578
0.9,11.5,0,0.0029922
0.9,11.6,0,0.00274862
0.9,11.7,0,0.00250748
0.9,11.8,0,0.00226144
0.9,11.9,0,0.0020111
0.9,12,0,0.00175995
0.9,12.1,0,0.0015088
0.9,12.2,0,0.00126012
0.9,12.3,0,0.00100915
0.9,12.4,0,0.000757014
0.9,12.5,0,0.000504783
0.9,12.6,0,0.000252553
0.9,12.7,0,0
1,0,0,0
1,0.1,0,0.000252696
1,0.2,0,0.000505393
1,0.3,0,0.000758089
1,0.4,0,0.00101079
1,0.5,0,0.00126335
1,0.6,0,0.00151222
1,0.7,0,0.00176108
1,0.8,0,0.00200995
1,0.9,0,0.00225881
1,1,0,0.00250723
1,1.1,0,0.00275248
1,1.2,0,0.00299773
1,1.3,0,0.00324298
1,1.4,0,0.00348822
1,1.5,0,0.00372955
1,1.6,0,0.00396217
1,1.7,0,0.00419478
1,1.8,0,0.0044274
1,1.9,0,0.00466001
1,2,0,0.00488684
1,2.1,0,0.00510679
1,2.2,0,0.00532674
1,2.3,0,0.0055467
1,2.4,0,0.00576665
1,2.5,0,0.00597618
1,2.6,0,0.00617806
1,2.7,0,0.00637994
1,2.8,0,0.00658182
1,2.9,0,0.0067837
1,3,0,0.0069717
1,3.1,0,0.00715353
1,3.2,0,0.00733535
1,3.3,0,0.00751718
1,3.4,0,0.00769901
1,3.5,0,0.00786233
1,3.6,0,0.00802124
1,3.7,0,0.00818015
1,3.8,0,0.00833907
1,3.9,0,0.00849798
1,4,0,0.00863363
1,4.1,0,0.00876734
1,4.2,0,0.00890105
1,4.3,0,0.00903476
1,4.4,0,0.00916742
1,4.5,0,0.0092739
1,4.6,0,0.00938038
1,4.7,0,0.00948686
1,4.8,0,0.00959333
1,4.9,0,0.00969534
1,5,0,0.00977273
1,5.1,0,0.00985013
1,5.2,0,0.00992752
1,5.3,0,0.0100049
1,5.4,0,0.0100741
1,5.5,0,0.0101211
1,5.6,0,0.010168
1,5.7,0,0.0102149
1,5.8,0,0.0102619
1,5.9,0,0.0102968
1,6,0,0.0103125
1,6.1,0,0.0103282
1,6.2,0,0.0103438
1,6.3,0,0.0103595
1,6.4,0,0.0103594
1,6.5,0,0.0103436
1,6.6,0,0.0103277
1,6.7,0,0.0103119
1,6.8,0,0.010296
1,6.9,0,0.0102609
1,7,0,0.0102138
1,7.1,0,0.0101667
1,7.2,0,0.0101196
1,7.3,0,0.0100725
1,7.4,0,0.0100032
1,7.5,0,0.0099257
1,7.6,0,0.00984821
1,7.7,0,0.00977072
1,7.8,0,0.00969323
1,7.9,0,0.00959115
1,8,0,0.00948461
1,8.1,0,0.00937806
1,8.2,0,0.00927152
1,8.3,0,0.00916497
1,8.4,0,0.00903224
1,8.5,0,0.00889846
1,8.6,0,0.00876468
1,8.7,0,0.00863091
1,8.8,0,0.00849518
1,8.9,0,0.00833615
1,9,0,0.00817712
1,9.1,0,0.00801808
1,9.2,0,0.00785905
1,9.3,0,0.00769562
1,9.4,0,0.00751376
1,9.5,0,0.00733191
1,9.6,0,0.00715005
1,9.7,0,0.00696819
1,9.8,0,0.00678017
1,9.9,0,0.00657829
1,10,0,0.0063764
1,10.1,0,0.00617452
1,10.2,0,0.00597263
1,10.3,0,0.00576365
1,10.4,0,0.005545
1,10.5,0,0.00532635
1,10.6,0,0.0051077
1,10.7,0,0.00488905
1,10.8,0,0.00466253
1,10.9,0,0.00442928
1,11,0,0.00419602
1,11.1,0,0.00396276
1,11.2,0,0.00372951
1,11.3,0,0.00348927
1,11.4,0,0.00324568
1,11.5,0,0.0030021
1,11.6,0,0.00275852
1,11.7,0,0.00251494
1,11.8,0,0.00226554
1,11.9,0,0.00201439
1,12,0,0.00176324
1,12.1,0,0.00151209
1,12.2,0,0.00126095
1,12.3,0,0.00100892
1,12.4,0,0.000756691
1,12.5,0,0.000504461
1,12.6,0,0.00025223
1,12.7,0,0
1.1,0,0,0
1.1,0.1,0,0.000256147
1.1,0.2,0,0.00050884
1.1,0.3,0,0.000761532
1.1,0.4,0,0.00101427
1.1,0.5,0,0.00127074
1.1,0.6,0,0.00152421
1.1,0.7,0,0.00177304
1.1,0.8,0,0.00202187
1.1,0.9,0,0.00227079
1.1,1,0,0.00252325
1.1,1.1,0,0.00277142
1.1,1.2,0,0.00301661
1.1,1.3,0,0.00326179
1.1,1.4,0,0.00350762
1.1,1.5,0,0.0037534
1.1,1.6,0,0.00398794
1.1,1.7,0,0.00422054
1.1,1.8,0,0.00445314
1.1,1.9,0,0.00468775
1.1,2,0,0.00492093
1.1,2.1,0,0.00514335
1.1,2.2,0,0.00536352
1.1,2.3,0,0.00558369
1.1,2.4,0,0.00580597
1.1,2.5,0,0.00601927
1.1,2.6,0,0.00622252
1.1,2.7,0,0.0064244
1.1,2.8,0,0.00662628
1.1,2.9,0,0.00683029
1.1,3,0,0.00702204
1.1,3.1,0,0.007205
1.1,3.2,0,0.00738683
1.1,3.3,0,0.00756866
1.1,3.4,0,0.00775286
1.1,3.5,0,0.00791968
1.1,3.6,0,0.0080792
1.1,3.7,0,0.00823811
1.1,3.8,0,0.00839703
1.1,3.9,0,0.00855841
1.1,4,0,0.00869678
1.1,4.1,0,0.00883063
1.1,4.2,0,0.00896434
1.1,4.3,0,0.00909809
1.1,4.4,0,0.00923347
1.1,4.5,0,0.00934183
1.1,4.6,0,0.00944831
1.1,4.7,0,0.00955479
1.1,4.8,0,0.00966159
1.1,4.9,0,0.00976584
1.1,5,0,0.00984431
1.1,5.1,0,0.00992171
1.1,5.2,0,0.0099991
1.1,5.3,0,0.010077
1.1,5.4,0,0.0101478
1.1,5.5,0,0.0101952
1.1,5.6,0,0.0102421
1.1,5.7,0,0.0102891
1.1,5.8,0,0.0103365
1.1,5.9,0,0.0103723
1.1,6,0,0.010388
1.1,6.1,0,0.0104037
1.1,6.2,0,0.0104193