x,y,z,U_0,U_1,U_2
0,0,0,0.3,-0.000197435,0
0,0.1,0,0.3,-0.000118461,0
0,0.2,0,0.3,-3.9487e-05,0
0,0.3,0,0.3,0,0
0,0.4,0,0.3,0,0
0,0.5,0,0.3,-9.57531e-20,0
0,0.6,0,0.3,0,0
0,0.7,0,0.3,0,0
0,0.8,0,0.3,0,0
0,0.9,0,0.3,0,0
0,1,0,0.3,0,0
0,1.1,0,0.3,0,0
0,1.2,0,0.3,0,0
0,1.3,0,0.3,0,0
0,1.4,0,0.3,0,0
0,1.5,0,0.3,0,0
0,1.6,0,0.3,0,0
0,1.7,0,0.3,0,0
0,1.8,0,0.3,0,0
0,1.9,0,0.3,0,0
0,2,0,0.3,0,0
0,2.1,0,0.3,0,0
0,2.2,0,0.3,0,0
0,2.3,0,0.3,0,0
0,2.4,0,0.3,0,0
0,2.5,0,0.3,0,0
0,2.6,0,0.3,0,0
0,2.7,0,0.3,0,0
0,2.8,0,0.3,0,0
0,2.9,0,0.3,0,0
0,3,0,0.3,-7.04962e-20,0
0,3.1,0,0.3,0,0
0,3.2,0,0.3,0,0
0,3.3,0,0.3,0,0
0,3.4,0,0.3,0,0
0,3.5,0,0.3,0,0
0,3.6,0,0.3,0,0
0,3.7,0,0.3,0,0
0,3.8,0,0.3,0,0
0,3.9,0,0.3,0,0
0,4,0,0.3,-5.00883e-20,0
0,4.1,0,0.3,0,0
0,4.2,0,0.3,0,0
0,4.3,0,0.3,0,0
0,4.4,0,0.3,0,0
0,4.5,0,0.3,0,0
0,4.6,0,0.3,0,0
0,4.7,0,0.3,0,0
0,4.8,0,0.3,0,0
0,4.9,0,0.3,0,0
0,5,0,0.3,0,0
0,5.1,0,0.3,0,0
0,5.2,0,0.3,0,0
0,5.3,0,0.3,0,0
0,5.4,0,0.3,0,0
0,5.5,0,0.3,0,0
0,5.6,0,0.3,0,0
0,5.7,0,0.3,0,0
0,5.8,0,0.3,0,0
0,5.9,0,0.3,0,0
0,6,0,0.3,0,0
0,6.1,0,0.3,0,0
0,6.2,0,0.3,0,0
0,6.3,0,0.3,0,0
0,6.4,0,0.3,0,0
0,6.5,0,0.3,0,0
0,6.6,0,0.3,0,0
0,6.7,0,0.3,0,0
0,6.8,0,0.3,0,0
0,6.9,0,0.3,0,0
0,7,0,0.3,0,0
0,7.1,0,0.3,0,0
0,7.2,0,0.3,0,0
0,7.3,0,0.3,0,0
0,7.4,0,0.3,0,0
0,7.5,0,0.3,0,0
0,7.6,0,0.3,0,0
0,7.7,0,0.3,0,0
0,7.8,0,0.3,0,0
0,7.9,0,0.3,0,0
0,8,0,0.3,0,0
0,8.1,0,0.3,0,0
0,8.2,0,0.3,0,0
0,8.3,0,0.3,0,0
0,8.4,0,0.3,0,0
0,8.5,0,0.3,0,0
0,8.6,0,0.3,0,0
0,8.7,0,0.3,0,0
0,8.8,0,0.3,0,0
0,8.9,0,0.3,0,0
0,9,0,0.3,0,0
0,9.1,0,0.3,0,0
0,9.2,0,0.3,0,0
0,9.3,0,0.3,0,0
0,9.4,0,0.3,0,0
0,9.5,0,0.3,0,0
0,9.6,0,0.3,0,0
0,9.7,0,0.3,0,0
0,9.8,0,0.3,0,0
0,9.9,0,0.3,0,0
0,10,0,0.3,0,0
0,10.1,0,0.3,0,0
0,10.2,0,0.3,0,0
0,10.3,0,0.3,0,0
0,10.4,0,0.3,0,0
0,10.5,0,0.3,0,0
0,10.6,0,0.3,0,0
0,10.7,0,0.3,0,0
0,10.8,0,0.3,0,0
0,10.9,0,0.3,0,0
0,11,0,0.3,0,0
0,11.1,0,0.3,0,0
0,11.2,0,0.3,0,0
0,11.3,0,0.3,0,0
0,11.4,0,0.3,0,0
0,11.5,0,0.3,0,0
0,11.6,0,0.3,0,0
0,11.7,0,0.3,0,0
0,11.8,0,0.3,0,0
0,11.9,0,0.3,0,0
0,12,0,0.3,0,0
0,12.1,0,0.3,0,0
0,12.2,0,0.3,0,0
0,12.3,0,0.3,0,0
0,12.4,0,0.3,1.9227e-05,0
0,12.5,0,0.3,7.41615e-05,0
0,12.6,0,0.3,0.000129096,0
0,12.7,0,0.3,0.00018403,0
0.1,0,0,0.299999,-0.000319553,0
0.1,0.1,0,0.299999,-0.000233849,0
0.1,0.2,0,0.3,-0.000154875,0
0.1,0.3,0,0.299999,-0.000150327,0
0.1,0.4,0,0.299999,-0.000150327,0
0.1,0.5,0,0.299998,-0.000156812,0
0.1,0.6,0,0.299999,-0.000148484,0
0.1,0.7,0,0.299999,-0.000148484,0
0.1,0.8,0,0.299998,-0.000145773,0
0.1,0.9,0,0.299998,-0.000145773,0
0.1,1,0,0.299997,-0.000153249,0
0.1,1.1,0,0.299997,-0.000142257,0
0.1,1.2,0,0.299997,-0.000142257,0
0.1,1.3,0,0.299997,-0.000138017,0
0.1,1.4,0,0.299997,-0.000138017,0
0.1,1.5,0,0.299995,-0.000147361,0
0.1,1.6,0,0.299996,-0.000133158,0
0.1,1.7,0,0.299996,-0.000133158,0
0.1,1.8,0,0.299996,-0.00012781,0
0.1,1.9,0,0.299996,-0.00012781,0
0.1,2,0,0.299994,-0.00013914,0
0.1,2.1,0,0.299995,-0.000122132,0
0.1,2.2,0,0.299995,-0.000122132,0
0.1,2.3,0,0.299995,-0.000116307,0
0.1,2.4,0,0.299995,-0.000116307,0
0.1,2.5,0,0.299994,-0.000128533,0
0.1,2.6,0,0.299995,-0.000110527,0
0.1,2.7,0,0.299995,-0.000110527,0
0.1,2.8,0,0.299996,-0.000104967,0
0.1,2.9,0,0.299996,-0.000104967,0
0.1,3,0,0.299993,-0.00011545,0
0.1,3.1,0,0.299998,-9.97418e-05,0
0.1,3.2,0,0.299998,-9.97418e-05,0
0.1,3.3,0,0.300002,-9.4864e-05,0
0.1,3.4,0,0.300002,-9.4864e-05,0
0.1,3.5,0,0.299992,-9.98594e-05,0
0.1,3.6,0,0.300008,-9.0204e-05,0
0.1,3.7,0,0.300008,-9.0204e-05,0
0.1,3.8,0,0.300017,-8.54833e-05,0
0.1,3.9,0,0.300017,-8.54833e-05,0
0.1,4,0,0.29999,-8.20283e-05,0
0.1,4.1,0,0.300028,-8.02993e-05,0
0.1,4.2,0,0.300028,-8.02993e-05,0
0.1,4.3,0,0.300041,-7.42145e-05,0
0.1,4.4,0,0.300041,-7.42145e-05,0
0.1,4.5,0,0.299986,-6.25218e-05,0
0.1,4.6,0,0.300053,-6.70287e-05,0
0.1,4.7,0,0.300053,-6.70287e-05,0
0.1,4.8,0,0.300065,-5.85327e-05,0
0.1,4.9,0,0.300065,-5.85327e-05,0
0.1,5,0,0.299983,-4.39231e-05,0
0.1,5.1,0,0.299982,-3.88951e-05,0
0.1,5.2,0,0.299982,-3.53461e-05,0
0.1,5.3,0,0.299981,-3.18083e-05,0
0.1,5.4,0,0.299981,-2.82561e-05,0
0.1,5.5,0,0.299981,-2.4696e-05,0
0.1,5.6,0,0.299981,-2.11341e-05,0
0.1,5.7,0,0.299982,-1.75776e-05,0
0.1,5.8,0,0.299982,-1.40369e-05,0
0.1,5.9,0,0.299982,-1.0481e-05,0
0.1,6,0,0.299983,-4.58814e-06,0
0.1,6.1,0,0.300061,1.648e-05,0
0.1,6.2,0,0.300061,1.648e-05,0
0.1,6.3,0,0.300029,1.24611e-05,0
0.1,6.4,0,0.300046,2.43175e-05,0
0.1,6.5,0,0.300046,2.43175e-05,0
0.1,6.6,0,0.300046,2.43175e-05,0
0.1,6.7,0,0.300008,2.63848e-05,0
0.1,6.8,0,0.30003,3.15814e-05,0
0.1,6.9,0,0.30003,3.15814e-05,0
0.1,7,0,0.299993,3.46063e-05,0
0.1,7.1,0,0.300016,3.80993e-05,0
0.1,7.2,0,0.300016,3.80993e-05,0
0.1,7.3,0,0.300007,4.13683e-05,0
0.1,7.4,0,0.300006,4.5023e-05,0
0.1,7.5,0,0.300007,4.49836e-05,0
0.1,7.6,0,0.300007,4.49836e-05,0
0.1,7.7,0,0.299995,5.67388e-05,0
0.1,7.8,0,0.300001,5.28545e-05,0
0.1,7.9,0,0.300001,5.28545e-05,0
0.1,8,0,0.299993,6.74185e-05,0
0.1,8.1,0,0.299998,6.17895e-05,0
0.1,8.2,0,0.299998,6.17895e-05,0
0.1,8.3,0,0.299997,6.65893e-05,0
0.1,8.4,0,0.299997,7.23204e-05,0
0.1,8.5,0,0.299997,7.14775e-05,0
0.1,8.6,0,0.299997,7.14775e-05,0
0.1,8.7,0,0.299994,8.66315e-05,0
0.1,8.8,0,0.299997,8.14273e-05,0
0.1,8.9,0,0.299997,8.14273e-05,0
0.1,9,0,0.299994,9.34488e-05,0
0.1,9.1,0,0.299997,9.11524e-05,0
0.1,9.2,0,0.299997,9.11524e-05,0
0.1,9.3,0,0.299997,9.35999e-05,0
0.1,9.4,0,0.299997,0.000101083,0
0.1,9.5,0,0.299998,0.000100268,0
0.1,9.6,0,0.299998,0.000100268,0
0.1,9.7,0,0.299995,0.000110787,0
0.1,9.8,0,0.299999,0.000108518,0
0.1,9.9,0,0.299999,0.000108518,0
0.1,10,0,0.299996,0.000114566,0
0.1,10.1,0,0.299999,0.000115767,0
0.1,10.2,0,0.299999,0.000115767,0
0.1,10.3,0,0.299999,0.00011645,0
0.1,10.4,0,0.299998,0.000122188,0
0.1,10.5,0,0.299999,0.000121969,0
0.1,10.6,0,0.299999,0.000121969,0
0.1,10.7,0,0.299997,0.000127341,0
0.1,10.8,0,0.299999,0.00012714,0
0.1,10.9,0,0.299999,0.00012714,0
0.1,11,0,0.299998,0.00012956,0
0.1,11.1,0,0.3,0.000131327,0
0.1,11.2,0,0.3,0.000131327,0
0.1,11.3,0,0.3,0.000131373,0
0.1,11.4,0,0.299999,0.000134526,0
0.1,11.5,0,0.3,0.000134591,0
0.1,11.6,0,0.3,0.000134591,0
0.1,11.7,0,0.299998,0.000136868,0
0.1,11.8,0,0.3,0.000136989,0
0.1,11.9,0,0.3,0.000136989,0
0.1,12,0,0.299999,0.000137812,0
0.1,12.1,0,0.3,0.000138561,0
0.1,12.2,0,0.3,0.000138561,0
0.1,12.3,0,0.3,0.000138561,0
0.1,12.4,0,0.3,0.000139478,0
0.1,12.5,0,0.3,0.00018004,0
0.1,12.6,0,0.3,0.000234974,0
0.1,12.7,0,0.3,0.000290589,0
0.2,0,0,0.299999,-0.000441672,0
0.2,0.1,0,0.299999,-0.000349237,0
0.2,0.2,0,0.299999,-0.000308355,0
0.2,0.3,0,0.299998,-0.000307301,0
0.2,0.4,0,0.299999,-0.000300653,0
0.2,0.5,0,0.299997,-0.000313625,0
0.2,0.6,0,0.299997,-0.000296969,0
0.2,0.7,0,0.299996,-0.000303123,0
0.2,0.8,0,0.299996,-0.00030014,0
0.2,0.9,0,0.299996,-0.000291545,0
0.2,1,0,0.299994,-0.000306497,0
0.2,1.1,0,0.299995,-0.000284513,0
0.2,1.2,0,0.299994,-0.000292018,0
0.2,1.3,0,0.299993,-0.000287355,0
0.2,1.4,0,0.299994,-0.000276035,0
0.2,1.5,0,0.299991,-0.000294722,0
0.2,1.6,0,0.299993,-0.000266316,0
0.2,1.7,0,0.299991,-0.000275664,0
0.2,1.8,0,0.299991,-0.000269781,0
0.2,1.9,0,0.299991,-0.00025562,0
0.2,2,0,0.299989,-0.00027828,0
0.2,2.1,0,0.299991,-0.000244263,0
0.2,2.2,0,0.299989,-0.000255071,0
0.2,2.3,0,0.299989,-0.000248663,0
0.2,2.4,0,0.29999,-0.000232613,0
0.2,2.5,0,0.299987,-0.000257067,0
0.2,2.6,0,0.29999,-0.000221054,0
0.2,2.7,0,0.299988,-0.000231656,0
0.2,2.8,0,0.29999,-0.000225539,0
0.2,2.9,0,0.299992,-0.000209933,0
0.2,3,0,0.299986,-0.000230899,0
0.2,3.1,0,0.299996,-0.000199484,0
0.2,3.2,0,0.299991,-0.000206881,0
0.2,3.3,0,0.299996,-0.000201515,0
0.2,3.4,0,0.300004,-0.000189728,0
0.2,3.5,0,0.299984,-0.000199719,0
0.2,3.6,0,0.300017,-0.000180408,0
0.2,3.7,0,0.300001,-0.000181296,0
0.2,3.8,0,0.300011,-0.000176103,0
0.2,3.9,0,0.300035,-0.000170967,0
0.2,4,0,0.29998,-0.000164057,0
0.2,4.1,0,0.300057,-0.000160599,0
0.2,4.2,0,0.300021,-0.000153537,0
0.2,4.3,0,0.300035,-0.000146843,0
0.2,4.4,0,0.300082,-0.000148429,0
0.2,4.5,0,0.299973,-0.000125044,0
0.2,4.6,0,0.300107,-0.000134057,0
0.2,4.7,0,0.300045,-0.000120848,0
0.2,4.8,0,0.300058,-0.000111503,0
0.2,4.9,0,0.30013,-0.000117065,0
0.2,5,0,0.299966,-8.78461e-05,0
0.2,5.1,0,0.299964,-7.77903e-05,0
0.2,5.2,0,0.299964,-7.06922e-05,0
0.2,5.3,0,0.299963,-6.36165e-05,0
0.2,5.4,0,0.299963,-5.65122e-05,0
0.2,5.5,0,0.299962,-4.93921e-05,0
0.2,5.6,0,0.299963,-4.22682e-05,0
0.2,5.7,0,0.299963,-3.51551e-05,0
0.2,5.8,0,0.299964,-2.80738e-05,0
0.2,5.9,0,0.299965,-2.09621e-05,0
0.2,6,0,0.299967,-9.17628e-06,0
0.2,6.1,0,0.300095,2.54132e-05,0
0.2,6.2,0,0.300123,3.296e-05,0
0.2,6.3,0,0.300014,1.94931e-05,0
0.2,6.4,0,0.300035,3.25105e-05,0
0.2,6.5,0,0.300092,4.86351e-05,0
0.2,6.6,0,0.300042,4.61028e-05,0
0.2,6.7,0,0.299996,4.77258e-05,0
0.2,6.8,0,0.30006,6.31628e-05,0
0.2,6.9,0,0.300048,6.40727e-05,0
0.2,7,0,0.299982,6.94831e-05,0
0.2,7.1,0,0.30002,7.47797e-05,0
0.2,7.2,0,0.300032,7.61985e-05,0
0.2,7.3,0,0.299998,8.89903e-05,0
0.2,7.4,0,0.299997,9.2645e-05,0
0.2,7.5,0,0.300013,8.99673e-05,0
0.2,7.6,0,0.300001,0.000101082,0
0.2,7.7,0,0.299987,0.000116182,0
0.2,7.8,0,0.300002,0.000105709,0
0.2,7.9,0,0.3,0.00010909,0
0.2,8,0,0.299985,0.000137698,0
0.2,8.1,0,0.299993,0.000128014,0
0.2,8.2,0,0.299996,0.000123579,0
0.2,8.3,0,0.299988,0.000146755,0
0.2,8.4,0,0.299989,0.000152486,0
0.2,8.5,0,0.299995,0.000142955,0
0.2,8.6,0,0.299991,0.000155106,0
0.2,8.7,0,0.299986,0.000175807,0
0.2,8.8,0,0.299994,0.000163086,0
0.2,8.9,0,0.299994,0.00016464,0
0.2,9,0,0.299986,0.000190825,0
0.2,9.1,0,0.299992,0.000186067,0
0.2,9.2,0,0.299995,0.000182305,0
0.2,9.3,0,0.29999,0.000198418,0
0.2,9.4,0,0.29999,0.0002059,0
0.2,9.5,0,0.299996,0.000200535,0
0.2,9.6,0,0.299993,0.000207342,0
0.2,9.7,0,0.299989,0.000222316,0
0.2,9.8,0,0.299997,0.000217373,0
0.2,9.9,0,0.299997,0.000217304,0
0.2,10,0,0.299991,0.000232089,0
0.2,10.1,0,0.299995,0.00023274,0
0.2,10.2,0,0.299998,0.000231534,0
0.2,10.3,0,0.299994,0.000239257,0
0.2,10.4,0,0.299993,0.000244995,0
0.2,10.5,0,0.299998,0.000243939,0
0.2,10.6,0,0.299996,0.000246766,0
0.2,10.7,0,0.299993,0.000254722,0
0.2,10.8,0,0.299998,0.000254327,0
0.2,10.9,0,0.299999,0.00025428,0
0.2,11,0,0.299995,0.000260805,0
0.2,11.1,0,0.299997,0.000262591,0
0.2,11.2,0,0.299999,0.000262655,0
0.2,11.3,0,0.299997,0.000265776,0
0.2,11.4,0,0.299996,0.000268929,0
0.2,11.5,0,0.299999,0.000269183,0
0.2,11.6,0,0.299999,0.00027018,0
0.2,11.7,0,0.299996,0.000273725,0
0.2,11.8,0,0.299999,0.000273942,0
0.2,11.9,0,0.299999,0.000273978,0
0.2,12,0,0.299998,0.000276423,0
0.2,12.1,0,0.299999,0.000277164,0
0.2,12.2,0,0.3,0.000277122,0
0.2,12.3,0,0.299999,0.000278153,0
0.2,12.4,0,0.299999,0.000279143,0
0.2,12.5,0,0.3,0.000285918,0
0.2,12.6,0,0.3,0.000341097,0
0.2,12.7,0,0.299999,0.000397149,0
0.3,0,0,0.299998,-0.000563791,0
0.3,0.1,0,0.299999,-0.000470009,0
0.3,0.2,0,0.299998,-0.000466068,0
0.3,0.3,0,0.299997,-0.000465014,0
0.3,0.4,0,0.299997,-0.000456168,0
0.3,0.5,0,0.299995,-0.000470437,0
0.3,0.6,0,0.299995,-0.000452115,0
0.3,0.7,0,0.299994,-0.000458446,0
0.3,0.8,0,0.299993,-0.000455463,0
0.3,0.9,0,0.299993,-0.000443299,0
0.3,1,0,0.29999,-0.000459746,0
0.3,1.1,0,0.299992,-0.000435564,0
0.3,1.2,0,0.29999,-0.000442613,0
0.3,1.3,0,0.299989,-0.00043795,0
0.3,1.4,0,0.29999,-0.000421527,0
0.3,1.5,0,0.299986,-0.000442083,0
0.3,1.6,0,0.299988,-0.000410837,0
0.3,1.7,0,0.299986,-0.000419208,0
0.3,1.8,0,0.299985,-0.000413325,0
0.3,1.9,0,0.299986,-0.000392494,0
0.3,2,0,0.299983,-0.00041742,0
0.3,2.1,0,0.299985,-0.000380002,0
0.3,2.2,0,0.299983,-0.000389211,0
0.3,2.3,0,0.299983,-0.000382804,0
0.3,2.4,0,0.299984,-0.000358701,0
0.3,2.5,0,0.299981,-0.0003856,0
0.3,2.6,0,0.299984,-0.000345986,0
0.3,2.7,0,0.299982,-0.000353962,0
0.3,2.8,0,0.299983,-0.000347846,0
0.3,2.9,0,0.299986,-0.000323286,0
0.3,3,0,0.299979,-0.000346349,0
0.3,3.1,0,0.299991,-0.000311792,0
0.3,3.2,0,0.299984,-0.000314842,0
0.3,3.3,0,0.299989,-0.000309476,0
0.3,3.4,0,0.299999,-0.000288588,0
0.3,3.5,0,0.299977,-0.000299578,0
0.3,3.6,0,0.300012,-0.000278336,0
0.3,3.7,0,0.299993,-0.000272487,0
0.3,3.8,0,0.300003,-0.000267294,0
0.3,3.9,0,0.30003,-0.000253686,0
0.3,4,0,0.29997,-0.000246085,0
0.3,4.1,0,0.300054,-0.000242281,0
0.3,4.2,0,0.300009,-0.000225989,0
0.3,4.3,0,0.300023,-0.000219296,0
0.3,4.4,0,0.30008,-0.000213289,0
0.3,4.5,0,0.299959,-0.000187565,0
0.3,4.6,0,0.300107,-0.000197481,0
0.3,4.7,0,0.300029,-0.0001732,0
0.3,4.8,0,0.300042,-0.000163855,0
0.3,4.9,0,0.30013,-0.00016391,0
0.3,5,0,0.299949,-0.000131769,0
0.3,5.1,0,0.299947,-0.000116685,0
0.3,5.2,0,0.299945,-0.000106038,0
0.3,5.3,0,0.299944,-9.54248e-05,0
0.3,5.4,0,0.299944,-8.47683e-05,0
0.3,5.5,0,0.299944,-7.40881e-05,0
0.3,5.6,0,0.299944,-6.34023e-05,0
0.3,5.7,0,0.299945,-5.27327e-05,0
0.3,5.8,0,0.299945,-4.21106e-05,0
0.3,5.9,0,0.299947,-3.14431e-05,0
0.3,6,0,0.29995,-1.37644e-05,0
0.3,6.1,0,0.300078,2.08251e-05,0
0.3,6.2,0,0.300125,4.20367e-05,0
0.3,6.3,0,0.299999,2.65252e-05,0
0.3,6.4,0,0.30002,3.95426e-05,0
0.3,6.5,0,0.300108,6.72998e-05,0
0.3,6.6,0,0.30003,6.74438e-05,0
0.3,6.7,0,0.299983,6.90668e-05,0
0.3,6.8,0,0.300053,8.58794e-05,0
0.3,6.9,0,0.300038,9.89495e-05,0
0.3,7,0,0.299971,0.00010436,0
0.3,7.1,0,0.30001,0.000109657,0
0.3,7.2,0,0.30003,0.000120978,0
0.3,7.3,0,0.299988,0.000136612,0
0.3,7.4,0,0.299987,0.000140267,0
0.3,7.5,0,0.300012,0.00013777,0
0.3,7.6,0,0.299993,0.000160525,0
0.3,7.7,0,0.299978,0.000175625,0
0.3,7.8,0,0.299994,0.000164808,0
0.3,7.9,0,0.299992,0.000179369,0
0.3,8,0,0.299976,0.000207977,0
0.3,8.1,0,0.299985,0.000198293,0
0.3,8.2,0,0.299991,0.000196751,0
0.3,8.3,0,0.29998,0.000226921,0
0.3,8.4,0,0.299981,0.000232652,0
0.3,8.5,0,0.29999,0.00021918,0
0.3,8.6,0,0.299984,0.000244282,0
0.3,8.7,0,0.299978,0.000264983,0
0.3,8.8,0,0.299986,0.000252262,0
0.3,8.9,0,0.299986,0.000262017,0
0.3,9,0,0.299979,0.000288202,0
0.3,9.1,0,0.299985,0.000283444,0
0.3,9.2,0,0.29999,0.0002808,0
0.3,9.3,0,0.299983,0.000303235,0
0.3,9.4,0,0.299983,0.000310718,0
0.3,9.5,0,0.299991,0.000303248,0
0.3,9.6,0,0.299987,0.000318871,0
0.3,9.7,0,0.299983,0.000333844,0
0.3,9.8,0,0.29999,0.000328901,0
0.3,9.9,0,0.299992,0.000334828,0
0.3,10,0,0.299985,0.000349613,0
0.3,10.1,0,0.29999,0.000350263,0
0.3,10.2,0,0.299995,0.000350584,0
0.3,10.3,0,0.299989,0.000362064,0
0.3,10.4,0,0.299989,0.000367802,0
0.3,10.5,0,0.299995,0.000366427,0
0.3,10.6,0,0.299992,0.000374146,0
0.3,10.7,0,0.299989,0.000382102,0
0.3,10.8,0,0.299994,0.000381707,0
0.3,10.9,0,0.299995,0.00038531,0
0.3,11,0,0.299991,0.00039205,0
0.3,11.1,0,0.299994,0.000393836,0
0.3,11.2,0,0.299998,0.000395119,0
0.3,11.3,0,0.299995,0.000400178,0
0.3,11.4,0,0.299994,0.000403332,0
0.3,11.5,0,0.299997,0.000403641,0
0.3,11.6,0,0.299997,0.000407037,0
0.3,11.7,0,0.299994,0.000410582,0
0.3,11.8,0,0.299997,0.000410799,0
0.3,11.9,0,0.299998,0.000412371,0
0.3,12,0,0.299997,0.000415033,0
0.3,12.1,0,0.299998,0.000415775,0
0.3,12.2,0,0.3,0.000416015,0
0.3,12.3,0,0.299999,0.000417818,0
0.3,12.4,0,0.299998,0.000418809,0
0.3,12.5,0,0.3,0.000418272,0
0.3,12.6,0,0.3,0.000447656,0
0.3,12.7,0,0.299999,0.000503708,0
0.4,0,0,0.299998,-0.000685909,0
0.4,0.1,0,0.299998,-0.000621755,0
0.4,0.2,0,0.299997,-0.000623781,0
0.4,0.3,0,0.299997,-0.000622726,0
0.4,0.4,0,0.299995,-0.000618151,0
0.4,0.5,0,0.299993,-0.000627249,0
0.4,0.6,0,0.299993,-0.000613714,0
0.4,0.7,0,0.299991,-0.000613768,0
0.4,0.8,0,0.299991,-0.000610786,0
0.4,0.9,0,0.29999,-0.000603233,0
0.4,1,0,0.299987,-0.000612995,0
0.4,1.1,0,0.299988,-0.000594649,0
0.4,1.2,0,0.299986,-0.000593208,0
0.4,1.3,0,0.299985,-0.000588545,0
0.4,1.4,0,0.299985,-0.000577693,0
0.4,1.5,0,0.299982,-0.000589444,0
0.4,1.6,0,0.299983,-0.000565468,0
0.4,1.7,0,0.299981,-0.000562752,0
0.4,1.8,0,0.29998,-0.000556869,0
0.4,1.9,0,0.29998,-0.000542648,0
0.4,2,0,0.299977,-0.00055656,0
0.4,2.1,0,0.299978,-0.000527548,0
0.4,2.2,0,0.299977,-0.000523351,0
0.4,2.3,0,0.299977,-0.000516944,0
0.4,2.4,0,0.299977,-0.000499718,0
0.4,2.5,0,0.299974,-0.000514133,0
0.4,2.6,0,0.299976,-0.000482765,0
0.4,2.7,0,0.299975,-0.000476269,0
0.4,2.8,0,0.299976,-0.000470153,0
0.4,2.9,0,0.299977,-0.000450874,0
0.4,3,0,0.299973,-0.000461799,0
0.4,3.1,0,0.29998,-0.000432995,0
0.4,3.2,0,0.299977,-0.000422803,0
0.4,3.3,0,0.299981,-0.000417437,0
0.4,3.4,0,0.299984,-0.000397615,0
0.4,3.5,0,0.299969,-0.000399437,0
0.4,3.6,0,0.299992,-0.000378886,0
0.4,3.7,0,0.299984,-0.000363677,0
0.4,3.8,0,0.299994,-0.000358484,0
0.4,3.9,0,0.300002,-0.000339709,0
0.4,4,0,0.29996,-0.000328113,0
0.4,4.1,0,0.300016,-0.000318817,0
0.4,4.2,0,0.299997,-0.000298442,0
0.4,4.3,0,0.300011,-0.000291749,0
0.4,4.4,0,0.300029,-0.000274578,0
0.4,4.5,0,0.299946,-0.000250087,0
0.4,4.6,0,0.300045,-0.000249729,0
0.4,4.7,0,0.300014,-0.000225552,0
0.4,4.8,0,0.300027,-0.000216207,0
0.4,4.9,0,0.300056,-0.000203507,0
0.4,5,0,0.299932,-0.000175692,0
0.4,5.1,0,0.299929,-0.000155581,0
0.4,5.2,0,0.299927,-0.000141384,0
0.4,5.3,0,0.299926,-0.000127233,0
0.4,5.4,0,0.299925,-0.000113024,0
0.4,5.5,0,0.299925,-9.87842e-05,0
0.4,5.6,0,0.299925,-8.45364e-05,0
0.4,5.7,0,0.299926,-7.03103e-05,0
0.4,5.8,0,0.299927,-5.61475e-05,0
0.4,5.9,0,0.299929,-4.19241e-05,0
0.4,6,0,0.299933,-1.83526e-05,0
0.4,6.1,0,0.300051,1.48973e-05,0
0.4,6.2,0,0.300054,3.39752e-05,0
0.4,6.3,0,0.299985,3.35572e-05,0
0.4,6.4,0,0.300005,4.65746e-05,0
0.4,6.5,0,0.300035,7.13553e-05,0
0.4,6.6,0,0.300017,8.87848e-05,0
0.4,6.7,0,0.299971,9.04078e-05,0
0.4,6.8,0,0.300015,0.000109311,0
0.4,6.9,0,0.300018,0.000131534,0
0.4,7,0,0.299961,0.000139237,0
0.4,7.1,0,0.299997,0.000145102,0
0.4,7.2,0,0.299999,0.000166027,0
0.4,7.3,0,0.299979,0.000184234,0
0.4,7.4,0,0.299978,0.000187889,0
0.4,7.5,0,0.299987,0.000199851,0
0.4,7.6,0,0.299984,0.000219968,0
0.4,7.7,0,0.299969,0.000235068,0
0.4,7.8,0,0.29998,0.000233874,0
0.4,7.9,0,0.299981,0.000251664,0
0.4,8,0,0.299968,0.000278256,0
0.4,8.1,0,0.299976,0.000268572,0
0.4,8.2,0,0.299977,0.000284393,0
0.4,8.3,0,0.299972,0.000307087,0
0.4,8.4,0,0.299973,0.000312818,0
0.4,8.5,0,0.299976,0.000317044,0
0.4,8.6,0,0.299976,0.000333457,0
0.4,8.7,0,0.299971,0.000354159,0
0.4,8.8,0,0.299976,0.000348936,0
0.4,8.9,0,0.299977,0.0003624,0
0.4,9,0,0.299972,0.000385579,0
0.4,9.1,0,0.299977,0.00038082,0
0.4,9.2,0,0.299979,0.000391609,0
0.4,9.3,0,0.299976,0.000408053,0
0.4,9.4,0,0.299977,0.000415536,0
0.4,9.5,0,0.29998,0.000418906,0
0.4,9.6,0,0.299981,0.000430399,0
0.4,9.7,0,0.299977,0.000445373,0
0.4,9.8,0,0.299983,0.000443924,0
0.4,9.9,0,0.299984,0.000453766,0
0.4,10,0,0.29998,0.000467136,0
0.4,10.1,0,0.299984,0.000467786,0
0.4,10.2,0,0.299986,0.000475148,0
0.4,10.3,0,0.299985,0.000484871,0
0.4,10.4,0,0.299984,0.000490609,0
0.4,10.5,0,0.299987,0.000493999,0
0.4,10.6,0,0.299988,0.000501527,0
0.4,10.7,0,0.299985,0.000509483,0
0.4,10.8,0,0.299989,0.000510344,0
0.4,10.9,0,0.299991,0.000516688,0
0.4,11,0,0.299988,0.000523294,0
0.4,11.1,0,0.299991,0.000525081,0
0.4,11.2,0,0.299992,0.000529439,0
0.4,11.3,0,0.299992,0.000534581,0
0.4,11.4,0,0.299991,0.000537734,0
0.4,11.5,0,0.299994,0.000539853,0
0.4,11.6,0,0.299995,0.000543883,0
0.4,11.7,0,0.299992,0.000547439,0
0.4,11.8,0,0.299995,0.000548019,0
0.4,11.9,0,0.299996,0.000550898,0
0.4,12,0,0.299995,0.000553644,0
0.4,12.1,0,0.299996,0.000554385,0
0.4,12.2,0,0.299998,0.00055573,0
0.4,12.3,0,0.299998,0.000557484,0
0.4,12.4,0,0.299998,0.000558475,0
0.4,12.5,0,0.299999,0.000558425,0
0.4,12.6,0,0.299999,0.000559006,0
0.4,12.7,0,0.299999,0.000610267,0
0.5,0,0,0.299997,-0.000808028,0
0.5,0.1,0,0.299997,-0.000786199,0
0.5,0.2,0,0.299996,-0.000785532,0
0.5,0.3,0,0.299995,-0.000784331,0
0.5,0.4,0,0.299993,-0.000782349,0
0.5,0.5,0,0.299992,-0.000784061,0
0.5,0.6,0,0.29999,-0.000777365,0
0.5,0.7,0,0.299989,-0.000774088,0
0.5,0.8,0,0.299988,-0.000770594,0
0.5,0.9,0,0.299986,-0.000766031,0
0.5,1,0,0.299984,-0.000766243,0
0.5,1.1,0,0.299983,-0.000756236,0
0.5,1.2,0,0.299981,-0.000750399,0
0.5,1.3,0,0.29998,-0.000744747,0
0.5,1.4,0,0.299979,-0.000737631,0
0.5,1.5,0,0.299977,-0.000736805,0
0.5,1.6,0,0.299977,-0.000723215,0
0.5,1.7,0,0.299975,-0.000714818,0
0.5,1.8,0,0.299974,-0.000707211,0
0.5,1.9,0,0.299973,-0.000697522,0
0.5,2,0,0.299972,-0.0006957,0
0.5,2.1,0,0.299971,-0.000678696,0
0.5,2.2,0,0.29997,-0.000667697,0
0.5,2.3,0,0.29997,-0.00065842,0
0.5,2.4,0,0.299969,-0.000646085,0
0.5,2.5,0,0.299968,-0.000642666,0
0.5,2.6,0,0.299968,-0.000623078,0
0.5,2.7,0,0.299968,-0.000609379,0
0.5,2.8,0,0.299968,-0.000598749,0
0.5,2.9,0,0.299968,-0.000583664,0
0.5,3,0,0.299966,-0.000577248,0
0.5,3.1,0,0.299968,-0.000556663,0
0.5,3.2,0,0.299967,-0.000540188,0
0.5,3.3,0,0.299968,-0.000528395,0
0.5,3.4,0,0.299967,-0.000510572,0
0.5,3.5,0,0.299961,-0.000499297,0
0.5,3.6,0,0.299967,-0.000479732,0
0.5,3.7,0,0.299965,-0.000460661,0
0.5,3.8,0,0.299969,-0.000447602,0
0.5,3.9,0,0.299966,-0.000427445,0
0.5,4,0,0.29995,-0.000410141,0
0.5,4.1,0,0.299966,-0.000392998,0
0.5,4.2,0,0.299963,-0.000371932,0
0.5,4.3,0,0.299967,-0.000357186,0
0.5,4.4,0,0.299963,-0.000335338,0
0.5,4.5,0,0.299932,-0.000312609,0
0.5,4.6,0,0.299962,-0.000297574,0
0.5,4.7,0,0.299958,-0.0002752,0
0.5,4.8,0,0.299962,-0.000259793,0
0.5,4.9,0,0.299959,-0.000241249,0
0.5,5,0,0.299915,-0.000219615,0
0.5,5.1,0,0.299911,-0.000194476,0
0.5,5.2,0,0.299909,-0.00017673,0
0.5,5.3,0,0.299907,-0.000159041,0
0.5,5.4,0,0.299907,-0.00014128,0
0.5,5.5,0,0.299906,-0.00012348,0
0.5,5.6,0,0.299906,-0.000105671,0
0.5,5.7,0,0.299907,-8.78879e-05,0
0.5,5.8,0,0.299909,-7.01844e-05,0
0.5,5.9,0,0.299912,-5.24051e-05,0
0.5,6,0,0.299916,-2.29407e-05,0
0.5,6.1,0,0.299958,8.61186e-07,0
0.5,6.2,0,0.299961,1.99391e-05,0
0.5,6.3,0,0.299964,3.9017e-05,0
0.5,6.4,0,0.299958,5.19185e-05,0
0.5,6.5,0,0.299961,7.54108e-05,0
0.5,6.6,0,0.299965,9.89032e-05,0
0.5,6.7,0,0.299959,0.000111749,0
0.5,6.8,0,0.299962,0.000133947,0
0.5,6.9,0,0.299965,0.00015617,0
0.5,7,0,0.29995,0.000174114,0
0.5,7.1,0,0.299961,0.000189501,0
0.5,7.2,0,0.299963,0.000210426,0
0.5,7.3,0,0.299965,0.000231351,0
0.5,7.4,0,0.299961,0.000242525,0
0.5,7.5,0,0.299962,0.000261933,0
0.5,7.6,0,0.299964,0.00028134,0
0.5,7.7,0,0.299961,0.000294511,0
0.5,7.8,0,0.299962,0.000310741,0
0.5,7.9,0,0.299962,0.000328532,0
0.5,8,0,0.29996,0.000348535,0
0.5,8.1,0,0.299962,0.000356817,0
0.5,8.2,0,0.299962,0.000373049,0
0.5,8.3,0,0.299963,0.000389281,0
0.5,8.4,0,0.299962,0.000400117,0
0.5,8.5,0,0.299963,0.000414909,0
0.5,8.6,0,0.299963,0.000429701,0
0.5,8.7,0,0.299963,0.000443334,0
0.5,8.8,0,0.299964,0.000454061,0
0.5,8.9,0,0.299965,0.000467525,0
0.5,9,0,0.299964,0.000482955,0
0.5,9.1,0,0.299966,0.000490435,0
0.5,9.2,0,0.299967,0.000502652,0
0.5,9.3,0,0.299968,0.000514868,0
0.5,9.4,0,0.299969,0.000523967,0
0.5,9.5,0,0.29997,0.000534985,0
0.5,9.6,0,0.299971,0.000546002,0
0.5,9.7,0,0.299971,0.000556901,0
0.5,9.8,0,0.299973,0.000564458,0
0.5,9.9,0,0.299974,0.0005743,0
0.5,10,0,0.299974,0.000584659,0
0.5,10.1,0,0.299976,0.000591036,0
0.5,10.2,0,0.299977,0.000599711,0
0.5,10.3,0,0.299978,0.000608386,0
0.5,10.4,0,0.299979,0.000614709,0
0.5,10.5,0,0.29998,0.000622217,0
0.5,10.6,0,0.299981,0.000629726,0
0.5,10.7,0,0.299981,0.000636863,0
0.5,10.8,0,0.299983,0.000641829,0
0.5,10.9,0,0.299984,0.000648173,0
0.5,11,0,0.299985,0.000654539,0
0.5,11.1,0,0.299986,0.000658575,0
0.5,11.2,0,0.299987,0.000663759,0
0.5,11.3,0,0.299988,0.000668943,0
0.5,11.4,0,0.299989,0.000672492,0
0.5,11.5,0,0.29999,0.000676522,0
0.5,11.6,0,0.299991,0.000680551,0
0.5,11.7,0,0.299991,0.000684296,0
0.5,11.8,0,0.299992,0.000686498,0
0.5,11.9,0,0.299993,0.000689376,0
0.5,12,0,0.299994,0.000692254,0
0.5,12.1,0,0.299995,0.000693713,0
0.5,12.2,0,0.299996,0.000695445,0
0.5,12.3,0,0.299997,0.000697178,0
0.5,12.4,0,0.299997,0.000698191,0
0.5,12.5,0,0.299998,0.000698771,0
0.5,12.6,0,0.299998,0.000699352,0
0.5,12.7,0,0.299998,0.000716826,0
0.6,0,0,0.299996,-0.000949159,0
0.6,0.1,0,0.299996,-0.000950945,0
0.6,0.2,0,0.299995,-0.000950279,0
0.6,0.3,0,0.299993,-0.000948824,0
0.6,0.4,0,0.299992,-0.000946843,0
0.6,0.5,0,0.299989,-0.000941741,0
0.6,0.6,0,0.299988,-0.00094131,0
0.6,0.7,0,0.299986,-0.000938033,0
0.6,0.8,0,0.299984,-0.000933682,0
0.6,0.9,0,0.299982,-0.000929119,0
0.6,1,0,0.299978,-0.000919944,0
0.6,1.1,0,0.299978,-0.000918114,0
0.6,1.2,0,0.299977,-0.000912276,0
0.6,1.3,0,0.299975,-0.000904976,0
0.6,1.4,0,0.299973,-0.000897861,0
0.6,1.5,0,0.299968,-0.000883987,0
0.6,1.6,0,0.29997,-0.000881254,0
0.6,1.7,0,0.299969,-0.000872857,0
0.6,1.8,0,0.299968,-0.000862381,0
0.6,1.9,0,0.299967,-0.000852692,0
0.6,2,0,0.29996,-0.000833895,0
0.6,2.1,0,0.299964,-0.000830145,0
0.6,2.2,0,0.299963,-0.000819145,0
0.6,2.3,0,0.299962,-0.000805094,0
0.6,2.4,0,0.299962,-0.000792759,0
0.6,2.5,0,0.299954,-0.000769559,0
0.6,2.6,0,0.29996,-0.000763704,0
0.6,2.7,0,0.29996,-0.000750005,0
0.6,2.8,0,0.299959,-0.000731857,0
0.6,2.9,0,0.299958,-0.000716771,0
0.6,3,0,0.29995,-0.000690763,0
0.6,3.1,0,0.299955,-0.000680646,0
0.6,3.2,0,0.299955,-0.000664171,0
0.6,3.3,0,0.299951,-0.00064165,0
0.6,3.4,0,0.29995,-0.000623827,0
0.6,3.5,0,0.299944,-0.000597661,0
0.6,3.6,0,0.299943,-0.000580847,0
0.6,3.7,0,0.299941,-0.000561775,0
0.6,3.8,0,0.299933,-0.000535563,0
0.6,3.9,0,0.29993,-0.000515406,0
0.6,4,0,0.299932,-0.000491857,0
0.6,4.1,0,0.299916,-0.000467368,0
0.6,4.2,0,0.299913,-0.000446302,0
0.6,4.3,0,0.299901,-0.000418113,0
0.6,4.4,0,0.299897,-0.000396265,0
0.6,4.5,0,0.299914,-0.000376401,0
0.6,4.6,0,0.29988,-0.000345491,0
0.6,4.7,0,0.299876,-0.000323117,0
0.6,4.8,0,0.299864,-0.000295722,0
0.6,4.9,0,0.299861,-0.000277178,0
0.6,5,0,0.299897,-0.000265802,0
0.6,5.1,0,0.299893,-0.000235213,0
0.6,5.2,0,0.29989,-0.000213402,0
0.6,5.3,0,0.299889,-0.000191623,0
0.6,5.4,0,0.299888,-0.000169761,0
0.6,5.5,0,0.299888,-0.000147852,0
0.6,5.6,0,0.299888,-0.00012593,0
0.6,5.7,0,0.299889,-0.000104037,0
0.6,5.8,0,0.299891,-8.22235e-05,0
0.6,5.9,0,0.299893,-6.03325e-05,0
0.6,6,0,0.299898,-2.45304e-05,0
0.6,6.1,0,0.299864,-1.62773e-05,0
0.6,6.2,0,0.299867,2.80061e-06,0
0.6,6.3,0,0.29987,2.18785e-05,0
0.6,6.4,0,0.299885,5.63876e-05,0
0.6,6.5,0,0.299889,7.988e-05,0
0.6,6.6,0,0.299892,0.000103372,0
0.6,6.7,0,0.299907,0.000136697,0
0.6,6.8,0,0.299909,0.000158943,0
0.6,6.9,0,0.299912,0.000181166,0
0.6,7,0,0.299926,0.00020667,0
0.6,7.1,0,0.299926,0.000234332,0
0.6,7.2,0,0.299928,0.000255257,0
0.6,7.3,0,0.29993,0.000276182,0
0.6,7.4,0,0.299937,0.000305099,0
0.6,7.5,0,0.299938,0.000324507,0
0.6,7.6,0,0.299939,0.000343915,0
0.6,7.7,0,0.299943,0.000368285,0
0.6,7.8,0,0.299944,0.000388101,0
0.6,7.9,0,0.299944,0.000405892,0
0.6,8,0,0.299942,0.000419746,0
0.6,8.1,0,0.299947,0.00044593,0
0.6,8.2,0,0.299947,0.000462162,0
0.6,8.3,0,0.299948,0.000478394,0
0.6,8.4,0,0.299949,0.0004984,0
0.6,8.5,0,0.29995,0.000513192,0
0.6,8.6,0,0.29995,0.000527984,0
0.6,8.7,0,0.299949,0.000542815,0
0.6,8.8,0,0.299952,0.000559576,0
0.6,8.9,0,0.299952,0.00057304,0
0.6,9,0,0.299951,0.000583984,0
0.6,9.1,0,0.299954,0.000601847,0
0.6,9.2,0,0.299955,0.000614064,0
0.6,9.3,0,0.299956,0.000626281,0
0.6,9.4,0,0.299958,0.000640406,0
0.6,9.5,0,0.299959,0.000651424,0
0.6,9.6,0,0.29996,0.000662441,0
0.6,9.7,0,0.29996,0.000673132,0
0.6,9.8,0,0.299963,0.000685348,0
0.6,9.9,0,0.299964,0.00069519,0
0.6,10,0,0.299964,0.000704556,0
0.6,10.1,0,0.299967,0.000715954,0
0.6,10.2,0,0.299968,0.000724629,0
0.6,10.3,0,0.299969,0.000733304,0
0.6,10.4,0,0.299971,0.000743282,0
0.6,10.5,0,0.299972,0.000750791,0
0.6,10.6,0,0.299973,0.000758299,0
0.6,10.7,0,0.299974,0.000766239,0
0.6,10.8,0,0.299976,0.000773668,0
0.6,10.9,0,0.299978,0.000780012,0
0.6,11,0,0.299979,0.000786425,0
0.6,11.1,0,0.299981,0.000793247,0
0.6,11.2,0,0.299982,0.000798432,0
0.6,11.3,0,0.299983,0.000803616,0
0.6,11.4,0,0.299985,0.000809511,0
0.6,11.5,0,0.299986,0.000813541,0
0.6,11.6,0,0.299987,0.00081757,0
0.6,11.7,0,0.299987,0.000822219,0
0.6,11.8,0,0.299989,0.000825327,0
0.6,11.9,0,0.29999,0.000828206,0
0.6,12,0,0.299991,0.000831093,0
0.6,12.1,0,0.299993,0.000833776,0
0.6,12.2,0,0.299994,0.000835508,0
0.6,12.3,0,0.299995,0.000837241,0
0.6,12.4,0,0.299996,0.000838891,0
0.6,12.5,0,0.299997,0.000839471,0
0.6,12.6,0,0.299997,0.000840052,0
0.6,12.7,0,0.299997,0.000841023,0
0.7,0,0,0.299995,-0.0011093,0
0.7,0.1,0,0.299996,-0.00111599,0
0.7,0.2,0,0.299994,-0.0011132,0
0.7,0.3,0,0.299991,-0.00111159,0
0.7,0.4,0,0.29999,-0.00111163,0
0.7,0.5,0,0.299984,-0.00110029,0
0.7,0.6,0,0.299985,-0.00110555,0
0.7,0.7,0,0.299982,-0.00109925,0
0.7,0.8,0,0.299979,-0.00109439,0
0.7,0.9,0,0.299978,-0.0010925,0
0.7,1,0,0.29997,-0.0010741,0
0.7,1.1,0,0.299973,-0.00108028,0
0.7,1.2,0,0.29997,-0.00106994,0
0.7,1.3,0,0.299967,-0.00106166,0
0.7,1.4,0,0.299968,-0.00105838,0
0.7,1.5,0,0.299956,-0.00103099,0
0.7,1.6,0,0.299964,-0.00103959,0
0.7,1.7,0,0.299959,-0.00102483,0
0.7,1.8,0,0.299958,-0.00101263,0
0.7,1.9,0,0.29996,-0.00100816,0
0.7,2,0,0.299944,-0.000971145,0
0.7,2.1,0,0.299957,-0.000981894,0
0.7,2.2,0,0.299952,-0.000962795,0
0.7,2.3,0,0.29995,-0.000945883,0
0.7,2.4,0,0.299954,-0.00093974,0
0.7,2.5,0,0.299934,-0.000894812,0
0.7,2.6,0,0.299952,-0.000904642,0
0.7,2.7,0,0.299946,-0.000882002,0
0.7,2.8,0,0.299944,-0.000859346,0
0.7,2.9,0,0.299949,-0.000850197,0
0.7,3,0,0.299926,-0.000802344,0
0.7,3.1,0,0.299943,-0.000804942,0
0.7,3.2,0,0.299937,-0.000780478,0
0.7,3.3,0,0.299931,-0.000751512,0
0.7,3.4,0,0.299933,-0.000737381,0
0.7,3.5,0,0.299918,-0.00069453,0
0.7,3.6,0,0.299918,-0.000682229,0
0.7,3.7,0,0.299916,-0.000658299,0
0.7,3.8,0,0.299901,-0.000624168,0
0.7,3.9,0,0.299894,-0.000603591,0
0.7,4,0,0.299906,-0.00057326,0
0.7,4.1,0,0.299866,-0.000541926,0
0.7,4.2,0,0.299873,-0.000520374,0
0.7,4.3,0,0.299851,-0.000484106,0
0.7,4.4,0,0.299831,-0.000457359,0
0.7,4.5,0,0.299892,-0.000441464,0
0.7,4.6,0,0.299797,-0.00039348,0
0.7,4.7,0,0.299818,-0.000374511,0
0.7,4.8,0,0.299796,-0.000338792,0
0.7,4.9,0,0.299762,-0.000311294,0
0.7,5,0,0.299877,-0.000314251,0
0.7,5.1,0,0.299874,-0.000277792,0
0.7,5.2,0,0.299872,-0.000251399,0
0.7,5.3,0,0.29987,-0.000224977,0
0.7,5.4,0,0.29987,-0.000198466,0
0.7,5.5,0,0.299869,-0.0001719,0
0.7,5.6,0,0.299869,-0.000145316,0
0.7,5.7,0,0.29987,-0.000118757,0
0.7,5.8,0,0.299872,-9.22649e-05,0
0.7,5.9,0,0.299874,-6.57061e-05,0
0.7,6,0,0.299878,-2.31216e-05,0
0.7,6.1,0,0.29977,-3.65182e-05,0
0.7,6.2,0,0.299773,-1.74403e-05,0
0.7,6.3,0,0.299843,3.09351e-05,0
0.7,6.4,0,0.299834,6.40996e-05,0
0.7,6.5,0,0.299816,8.47627e-05,0
0.7,6.6,0,0.299837,0.000114346,0
0.7,6.7,0,0.299882,0.000158946,0
0.7,6.8,0,0.299857,0.000184299,0
0.7,6.9,0,0.29986,0.000206522,0
0.7,7,0,0.2999,0.000239875,0