x,y,z,U_0,U_1,U_2
0,0,0,0.299914,-0.00248377,2.98269e-13
0,0.1,0,0.299932,-0.00197528,2.37206e-13
0,0.2,0,0.29995,-0.0014668,1.76143e-13
0,0.3,0,0.299967,-0.000958306,1.1508e-13
0,0.4,0,0.299985,-0.000449817,5.40173e-14
0,0.5,0,0.3,-1.91213e-19,2.53597e-29
0,0.6,0,0.3,-2.29455e-19,3.04317e-29
0,0.7,0,0.3,-2.67698e-19,3.55036e-29
0,0.8,0,0.3,-3.0594e-19,4.05756e-29
0,0.9,0,0.3,-3.44183e-19,4.56475e-29
0,1,0,0.3,-3.82425e-19,5.07195e-29
0,1.1,0,0.3,-4.20668e-19,5.57914e-29
0,1.2,0,0.3,-4.5891e-19,6.08634e-29
0,1.3,0,0.3,-4.97153e-19,6.59353e-29
0,1.4,0,0.3,-5.35395e-19,7.10073e-29
0,1.5,0,0.3,-5.61278e-19,7.71391e-30
0,1.6,0,0.3,-5.98696e-19,8.22817e-30
0,1.7,0,0.3,-6.36115e-19,8.74243e-30
0,1.8,0,0.3,-6.73534e-19,9.25669e-30
0,1.9,0,0.3,-7.10952e-19,9.77095e-30
0,2,0,0.3,-7.16236e-19,-8.63685e-29
0,2.1,0,0.3,-7.52047e-19,-9.0687e-29
0,2.2,0,0.3,-7.87859e-19,-9.50054e-29
0,2.3,0,0.3,-8.23671e-19,-9.93238e-29
0,2.4,0,0.3,-8.59483e-19,-1.03642e-28
0,2.5,0,0.3,-8.3136e-19,-5.4499e-29
0,2.6,0,0.3,-8.64614e-19,-5.6679e-29
0,2.7,0,0.3,-8.97869e-19,-5.88589e-29
0,2.8,0,0.3,-9.31123e-19,-6.10389e-29
0,2.9,0,0.3,-9.64377e-19,-6.32189e-29
0,3,0,0.3,-9.06383e-19,9.70589e-29
0,3.1,0,0.3,-9.36596e-19,1.00294e-28
0,3.2,0,0.3,-9.66808e-19,1.0353e-28
0,3.3,0,0.3,-9.97021e-19,1.06765e-28
0,3.4,0,0.3,-1.02723e-18,1.1e-28
0,3.5,0,0.3,-9.3662e-19,9.24097e-29
0,3.6,0,0.3,-9.63381e-19,9.50499e-29
0,3.7,0,0.3,-9.90141e-19,9.76902e-29
0,3.8,0,0.3,-1.0169e-18,1.0033e-28
0,3.9,0,0.3,-1.04366e-18,1.02971e-28
0,4,0,0.3,-9.17405e-19,-1.37398e-28
0,4.1,0,0.3,-9.4034e-19,-1.40833e-28
0,4.2,0,0.3,-9.63275e-19,-1.44268e-28
0,4.3,0,0.3,-9.86211e-19,-1.47703e-28
0,4.4,0,0.3,-8.27616e-19,-4.38609e-28
0,4.5,0,0.3,-8.46425e-19,-4.48577e-28
0,4.6,0,0.3,-8.65235e-19,-4.58545e-28
0,4.7,0,0.3,-8.84044e-19,-4.68514e-28
0,4.8,0,0.3,-9.02854e-19,-4.78482e-28
0,4.9,0,0.3,-7.07057e-19,-6.05005e-28
0,5,0,0.3,-7.21486e-19,-6.17352e-28
0,5.1,0,0.3,-7.35916e-19,-6.29699e-28
0,5.2,0,0.3,-7.50346e-19,-6.42046e-28
0,5.3,0,0.3,-7.64775e-19,-6.54393e-28
0,5.4,0,0.3,-5.32436e-19,-4.69094e-28
0,5.5,0,0.3,-5.42296e-19,-4.77781e-28
0,5.6,0,0.3,-5.52156e-19,-4.86468e-28
0,5.7,0,0.3,-5.62016e-19,-4.95155e-28
0,5.8,0,0.3,-5.71875e-19,-5.03842e-28
0,5.9,0,0.3,-3.03623e-19,-1.51118e-28
0,6,0,0.3,-3.08769e-19,-1.5368e-28
0,6.1,0,0.3,-3.13915e-19,-1.56241e-28
0,6.2,0,0.3,-3.19061e-19,-1.58802e-28
0,6.3,0,0.3,-3.24207e-19,-1.61364e-28
0,6.4,0,0.3,-2.28652e-20,1.21538e-28
0,6.5,0,0.3,-2.32224e-20,1.23437e-28
0,6.6,0,0.3,-2.35797e-20,1.25336e-28
0,6.7,0,0.3,-2.3937e-20,1.27235e-28
0,6.8,0,0.3,-2.42943e-20,1.29134e-28
0,6.9,0,0.3,3.06284e-19,1.36893e-28
0,7,0,0.3,3.10723e-19,1.38877e-28
0,7.1,0,0.3,3.15162e-19,1.40861e-28
0,7.2,0,0.3,3.19601e-19,1.42845e-28
0,7.3,0,0.3,3.2404e-19,1.44829e-28
0,7.4,0,0.3,6.8125e-19,-1.9987e-28
0,7.5,0,0.3,6.90456e-19,-2.02571e-28
0,7.6,0,0.3,6.99663e-19,-2.05272e-28
0,7.7,0,0.3,7.08869e-19,-2.07973e-28
0,7.8,0,0.3,7.18075e-19,-2.10674e-28
0,7.9,0,0.3,1.09611e-18,-7.08365e-28
0,8,0,0.3,1.10998e-18,-7.17332e-28
0,8.1,0,0.3,1.12386e-18,-7.26299e-28
0,8.2,0,0.3,1.13773e-18,-7.35265e-28
0,8.3,0,0.3,1.15161e-18,-7.44232e-28
0,8.4,0,0.3,1.54279e-18,-1.39585e-27
0,8.5,0,0.3,1.56115e-18,-1.41246e-27
0,8.6,0,0.3,1.57952e-18,-1.42908e-27
0,8.7,0,0.3,1.59789e-18,-1.4457e-27
0,8.8,0,0.3,1.9909e-18,-2.11838e-27
0,8.9,0,0.3,2.01353e-18,-2.14246e-27
0,9,0,0.3,2.03615e-18,-2.16653e-27
0,9.1,0,0.3,2.05878e-18,-2.1906e-27
0,9.2,0,0.3,2.0814e-18,-2.21467e-27
0,9.3,0,0.3,2.47417e-18,-2.6683e-27
0,9.4,0,0.3,2.50078e-18,-2.69699e-27
0,9.5,0,0.3,2.52738e-18,-2.72568e-27
0,9.6,0,0.3,2.55399e-18,-2.75437e-27
0,9.7,0,0.3,2.58059e-18,-2.78306e-27
0,9.8,0,0.3,2.95945e-18,-2.88262e-27
0,9.9,0,0.3,2.98965e-18,-2.91203e-27
0,10,0,0.3,3.01985e-18,-2.94145e-27
0,10.1,0,0.3,3.05005e-18,-2.97086e-27
0,10.2,0,0.3,3.08025e-18,-3.00028e-27
0,10.3,0,0.3,3.43329e-18,-2.60725e-27
0,10.4,0,0.3,3.46663e-18,-2.63256e-27
0,10.5,0,0.3,3.49996e-18,-2.65788e-27
0,10.6,0,0.3,3.53329e-18,-2.68319e-27
0,10.7,0,0.3,3.56662e-18,-2.7085e-27
0,10.8,0,0.3,3.88622e-18,-2.28878e-27
0,10.9,0,0.3,3.9222e-18,-2.30997e-27
0,11,0,0.3,3.95818e-18,-2.33116e-27
0,11.1,0,0.3,3.99417e-18,-2.35235e-27
0,11.2,0,0.3,4.03015e-18,-2.37355e-27
0,11.3,0,0.3,4.25714e-18,-2.01559e-27
0,11.4,0,0.3,4.29481e-18,-2.03343e-27
0,11.5,0,0.3,4.33249e-18,-2.05127e-27
0,11.6,0,0.3,4.37016e-18,-2.06911e-27
0,11.7,0,0.3,4.40783e-18,-2.08694e-27
0,11.8,0,0.3,4.54676e-18,-1.46216e-27
0,11.9,0,0.3,4.58529e-18,-1.47455e-27
0,12,0,0.3,4.62383e-18,-1.48694e-27
0,12.1,0,0.3,4.66236e-18,-1.49934e-27
0,12.2,0,0.3,4.70089e-18,-1.51173e-27
0,12.3,0,0.299984,0.000459132,-2.70086e-14
0,12.4,0,0.299966,0.00097815,-5.75402e-14
0,12.5,0,0.299948,0.00149717,-8.80717e-14
0,12.6,0,0.29993,0.00201619,-1.18603e-13
0,12.7,0,0.299912,0.00253521,-1.49135e-13
0.1,0,0,0.299912,-0.00342549,3.23616e-13
0.1,0.1,0,0.2999,-0.00343974,3.98237e-13
0.1,0.2,0,0.299918,-0.00293125,3.37174e-13
0.1,0.3,0,0.299935,-0.00242276,2.76111e-13
0.1,0.4,0,0.299953,-0.00191427,2.15048e-13
0.1,0.5,0,0.299966,-0.0014636,1.64727e-13
0.1,0.6,0,0.299951,-0.00146884,1.94807e-13
0.1,0.7,0,0.299951,-0.00146884,1.94807e-13
0.1,0.8,0,0.299951,-0.00146884,1.94807e-13
0.1,0.9,0,0.299951,-0.00146884,1.94807e-13
0.1,1,0,0.299951,-0.00146884,1.94807e-13
0.1,1.1,0,0.299951,-0.00146884,1.94807e-13
0.1,1.2,0,0.299951,-0.00146884,1.94807e-13
0.1,1.3,0,0.299951,-0.00146884,1.94807e-13
0.1,1.4,0,0.299948,-0.00145826,1.36279e-13
0.1,1.5,0,0.299944,-0.0014372,1.97521e-14
0.1,1.6,0,0.299944,-0.0014372,1.97521e-14
0.1,1.7,0,0.299944,-0.0014372,1.97521e-14
0.1,1.8,0,0.299944,-0.0014372,1.97521e-14
0.1,1.9,0,0.299941,-0.00140918,-6.45049e-14
0.1,2,0,0.299938,-0.00137548,-1.65865e-13
0.1,2.1,0,0.299938,-0.00137548,-1.65865e-13
0.1,2.2,0,0.299938,-0.00137548,-1.65865e-13
0.1,2.3,0,0.299938,-0.00137548,-1.65865e-13
0.1,2.4,0,0.299932,-0.00131922,-1.18822e-13
0.1,2.5,0,0.299927,-0.00127726,-8.37294e-14
0.1,2.6,0,0.299927,-0.00127726,-8.37294e-14
0.1,2.7,0,0.299927,-0.00127726,-8.37294e-14
0.1,2.8,0,0.299927,-0.00127726,-8.37294e-14
0.1,2.9,0,0.29992,-0.00119664,5.9807e-14
0.1,3,0,0.299917,-0.00116043,1.24263e-13
0.1,3.1,0,0.299917,-0.00116043,1.24263e-13
0.1,3.2,0,0.299917,-0.00116043,1.24263e-13
0.1,3.3,0,0.299917,-0.00116043,1.24263e-13
0.1,3.4,0,0.299913,-0.00105347,1.05828e-13
0.1,3.5,0,0.299912,-0.00102784,1.01409e-13
0.1,3.6,0,0.299912,-0.00102784,1.01409e-13
0.1,3.7,0,0.299912,-0.00102784,1.01409e-13
0.1,3.8,0,0.299912,-0.00102784,1.01409e-13
0.1,3.9,0,0.299906,-0.000892204,-1.13991e-13
0.1,4,0,0.299906,-0.000880907,-1.31932e-13
0.1,4.1,0,0.299906,-0.000880907,-1.31932e-13
0.1,4.2,0,0.299906,-0.000880907,-1.31932e-13
0.1,4.3,0,0.299905,-0.00087609,-1.3956e-13
0.1,4.4,0,0.299901,-0.000722446,-3.82872e-13
0.1,4.5,0,0.299901,-0.000722446,-3.82872e-13
0.1,4.6,0,0.299901,-0.000722446,-3.82872e-13
0.1,4.7,0,0.299901,-0.000722446,-3.82872e-13
0.1,4.8,0,0.2999,-0.000697755,-3.96282e-13
0.1,4.9,0,0.299896,-0.000554226,-4.74233e-13
0.1,5,0,0.299896,-0.000554226,-4.74233e-13
0.1,5.1,0,0.299896,-0.000554226,-4.74233e-13
0.1,5.2,0,0.299896,-0.000554226,-4.74233e-13
0.1,5.3,0,0.299896,-0.000508034,-4.37236e-13
0.1,5.4,0,0.299893,-0.000378706,-3.33653e-13
0.1,5.5,0,0.299893,-0.000378706,-3.33653e-13
0.1,5.6,0,0.299893,-0.000378706,-3.33653e-13
0.1,5.7,0,0.299893,-0.000378706,-3.33653e-13
0.1,5.8,0,0.299892,-0.000309981,-2.44344e-13
0.1,5.9,0,0.299891,-0.000197657,-9.83771e-14
0.1,6,0,0.299891,-0.000197657,-9.83771e-14
0.1,6.1,0,0.299891,-0.000197657,-9.83771e-14
0.1,6.2,0,0.299891,-0.000197657,-9.83771e-14
0.1,6.3,0,0.299891,-0.000106418,-1.33979e-14
0.1,6.4,0,0.29989,-1.37222e-05,7.29394e-14
0.1,6.5,0,0.29989,-1.37222e-05,7.29394e-14
0.1,6.6,0,0.29989,-1.37222e-05,7.29394e-14
0.1,6.7,0,0.29989,-1.37222e-05,7.29394e-14
0.1,6.8,0,0.299891,9.91109e-05,7.49373e-14
0.1,6.9,0,0.299891,0.000170492,7.62012e-14
0.1,7,0,0.299891,0.000170492,7.62012e-14
0.1,7.1,0,0.299891,0.000170492,7.62012e-14
0.1,7.2,0,0.299891,0.000170492,7.62012e-14
0.1,7.3,0,0.299892,0.000303976,-5.49789e-14
0.1,7.4,0,0.299893,0.000353593,-1.0374e-13
0.1,7.5,0,0.299893,0.000353593,-1.0374e-13
0.1,7.6,0,0.299893,0.000353593,-1.0374e-13
0.1,7.7,0,0.299893,0.000353593,-1.0374e-13
0.1,7.8,0,0.299895,0.000505219,-3.07233e-13
0.1,7.9,0,0.299895,0.000532911,-3.44397e-13
0.1,8,0,0.299895,0.000532911,-3.44397e-13
0.1,8.1,0,0.299895,0.000532911,-3.44397e-13
0.1,8.2,0,0.299895,0.000532911,-3.44397e-13
0.1,8.3,0,0.299899,0.00069891,-6.27133e-13
0.1,8.4,0,0.299899,0.000705434,-6.38245e-13
0.1,8.5,0,0.299899,0.000705434,-6.38245e-13
0.1,8.6,0,0.299899,0.000705434,-6.38245e-13
0.1,8.7,0,0.299899,0.000716683,-6.57945e-13
0.1,8.8,0,0.299904,0.000868954,-9.24594e-13
0.1,8.9,0,0.299904,0.000868954,-9.24594e-13
0.1,9,0,0.299904,0.000868954,-9.24594e-13
0.1,9.1,0,0.299904,0.000868954,-9.24594e-13
0.1,9.2,0,0.299905,0.000897314,-9.57505e-13
0.1,9.3,0,0.29991,0.00102182,-1.102e-12
0.1,9.4,0,0.29991,0.00102182,-1.102e-12
0.1,9.5,0,0.29991,0.00102182,-1.102e-12
0.1,9.6,0,0.29991,0.00102182,-1.102e-12
0.1,9.7,0,0.299912,0.00106357,-1.11039e-12
0.1,9.8,0,0.299916,0.00115988,-1.12977e-12
0.1,9.9,0,0.299916,0.00115988,-1.12977e-12
0.1,10,0,0.299916,0.00115988,-1.12977e-12
0.1,10.1,0,0.299916,0.00115988,-1.12977e-12
0.1,10.2,0,0.29992,0.00121037,-1.06372e-12
0.1,10.3,0,0.299926,0.00128027,-9.72243e-13
0.1,10.4,0,0.299926,0.00128027,-9.72243e-13
0.1,10.5,0,0.299926,0.00128027,-9.72243e-13
0.1,10.6,0,0.299926,0.00128027,-9.72243e-13
0.1,10.7,0,0.299931,0.00133487,-8.87361e-13
0.1,10.8,0,0.299936,0.00138208,-8.13971e-13
0.1,10.9,0,0.299936,0.00138208,-8.13971e-13
0.1,11,0,0.299936,0.00138208,-8.13971e-13
0.1,11.1,0,0.299936,0.00138208,-8.13971e-13
0.1,11.2,0,0.29994,0.00142448,-7.29804e-13
0.1,11.3,0,0.299941,0.001447,-6.851e-13
0.1,11.4,0,0.299941,0.001447,-6.851e-13
0.1,11.5,0,0.299941,0.001447,-6.851e-13
0.1,11.6,0,0.299941,0.001447,-6.851e-13
0.1,11.7,0,0.299947,0.00147236,-5.24158e-13
0.1,11.8,0,0.299949,0.00147996,-4.7593e-13
0.1,11.9,0,0.299949,0.00147996,-4.7593e-13
0.1,12,0,0.299949,0.00147996,-4.7593e-13
0.1,12.1,0,0.299949,0.00147996,-4.7593e-13
0.1,12.2,0,0.299968,0.0014771,-2.53494e-13
0.1,12.3,0,0.299954,0.00193726,-2.51681e-13
0.1,12.4,0,0.299936,0.00245627,-2.82212e-13
0.1,12.5,0,0.299918,0.00297529,-3.12744e-13
0.1,12.6,0,0.2999,0.00349431,-3.43275e-13
0.1,12.7,0,0.299914,0.00349204,-2.19308e-13
0.2,0,0,0.29991,-0.0043672,3.48962e-13
0.2,0.1,0,0.299898,-0.00438982,4.25755e-13
0.2,0.2,0,0.299886,-0.0043957,4.98204e-13
0.2,0.3,0,0.299904,-0.00388721,4.37141e-13
0.2,0.4,0,0.299921,-0.00337872,3.76078e-13
0.2,0.5,0,0.299935,-0.0029265,3.25469e-13
0.2,0.6,0,0.299917,-0.00293252,3.60002e-13
0.2,0.7,0,0.299901,-0.00293769,3.89613e-13
0.2,0.8,0,0.299901,-0.00293769,3.89613e-13
0.2,0.9,0,0.299901,-0.00293769,3.89613e-13
0.2,1,0,0.299901,-0.00293769,3.89613e-13
0.2,1.1,0,0.299901,-0.00293769,3.89613e-13
0.2,1.2,0,0.299901,-0.00293769,3.89613e-13
0.2,1.3,0,0.299899,-0.00292764,3.3402e-13
0.2,1.4,0,0.299892,-0.00289554,1.56463e-13
0.2,1.5,0,0.299887,-0.00287439,3.95041e-14
0.2,1.6,0,0.299887,-0.00287439,3.95041e-14
0.2,1.7,0,0.299887,-0.00287439,3.95041e-14
0.2,1.8,0,0.299885,-0.00284719,-4.23243e-14
0.2,1.9,0,0.29988,-0.00278474,-2.30143e-13
0.2,2,0,0.299877,-0.00275096,-3.3173e-13
0.2,2.1,0,0.299877,-0.00275096,-3.3173e-13
0.2,2.2,0,0.299877,-0.00275096,-3.3173e-13
0.2,2.3,0,0.299871,-0.0026957,-2.85515e-13
0.2,2.4,0,0.299859,-0.00259647,-2.0254e-13
0.2,2.5,0,0.299854,-0.00255451,-1.67459e-13
0.2,2.6,0,0.299854,-0.00255451,-1.67459e-13
0.2,2.7,0,0.299854,-0.00255451,-1.67459e-13
0.2,2.8,0,0.299847,-0.00247488,-2.56827e-14
0.2,2.9,0,0.299837,-0.002357,1.8419e-13
0.2,3,0,0.299834,-0.00232086,2.48527e-13
0.2,3.1,0,0.299834,-0.00232086,2.48527e-13
0.2,3.2,0,0.299834,-0.00232086,2.48527e-13
0.2,3.3,0,0.29983,-0.00221501,2.30283e-13
0.2,3.4,0,0.299824,-0.00208122,2.07222e-13
0.2,3.5,0,0.299823,-0.00205568,2.02819e-13
0.2,3.6,0,0.299823,-0.00205568,2.02819e-13
0.2,3.7,0,0.299823,-0.00205568,2.02819e-13
0.2,3.8,0,0.299818,-0.00192127,-1.06326e-14
0.2,3.9,0,0.299812,-0.001773,-2.46095e-13
0.2,4,0,0.299811,-0.00176181,-2.63863e-13
0.2,4.1,0,0.299811,-0.00176181,-2.63863e-13
0.2,4.2,0,0.299811,-0.00175833,-2.6938e-13
0.2,4.3,0,0.299806,-0.00159842,-5.22621e-13
0.2,4.4,0,0.299801,-0.00144489,-7.65744e-13
0.2,4.5,0,0.299801,-0.00144489,-7.65744e-13
0.2,4.6,0,0.299801,-0.00144489,-7.65744e-13
0.2,4.7,0,0.299801,-0.00142163,-7.78378e-13
0.2,4.8,0,0.299796,-0.00125185,-8.70585e-13
0.2,4.9,0,0.299793,-0.00110845,-9.48466e-13
0.2,5,0,0.299793,-0.00110845,-9.48466e-13
0.2,5.1,0,0.299793,-0.00110845,-9.48466e-13
0.2,5.2,0,0.299792,-0.00106377,-9.12675e-13
0.2,5.3,0,0.299789,-0.000886603,-7.7078e-13
0.2,5.4,0,0.299786,-0.000757413,-6.67306e-13
0.2,5.5,0,0.299786,-0.000757413,-6.67306e-13
0.2,5.6,0,0.299786,-0.000757413,-6.67306e-13
0.2,5.7,0,0.299786,-0.000690256,-5.80035e-13
0.2,5.8,0,0.299784,-0.000507493,-3.42534e-13
0.2,5.9,0,0.299782,-0.000395313,-1.96754e-13
0.2,6,0,0.299782,-0.000395313,-1.96754e-13
0.2,6.1,0,0.299782,-0.000395313,-1.96754e-13
0.2,6.2,0,0.299782,-0.000305684,-1.13273e-13
0.2,6.3,0,0.299781,-0.00011999,5.96817e-14
0.2,6.4,0,0.299781,-2.74444e-05,1.45879e-13
0.2,6.5,0,0.299781,-2.74444e-05,1.45879e-13
0.2,6.6,0,0.299781,-2.74444e-05,1.45879e-13
0.2,6.7,0,0.299781,8.37623e-05,1.47848e-13
0.2,6.8,0,0.299782,0.000269759,1.51141e-13
0.2,6.9,0,0.299782,0.000340985,1.52402e-13
0.2,7,0,0.299782,0.000340985,1.52402e-13
0.2,7.1,0,0.299782,0.000340985,1.52402e-13
0.2,7.2,0,0.299783,0.000472839,2.28241e-14
0.2,7.3,0,0.299785,0.000657731,-1.58878e-13
0.2,7.4,0,0.299785,0.000707187,-2.07479e-13
0.2,7.5,0,0.299785,0.000707187,-2.07479e-13
0.2,7.6,0,0.299785,0.000707187,-2.07479e-13
0.2,7.7,0,0.299788,0.000857207,-4.08818e-13
0.2,7.8,0,0.29979,0.0010383,-6.51856e-13
0.2,7.9,0,0.299791,0.00106582,-6.88794e-13
0.2,8,0,0.299791,0.00106582,-6.88794e-13
0.2,8.1,0,0.299791,0.00106582,-6.88794e-13
0.2,8.2,0,0.299794,0.00123027,-9.68897e-13
0.2,8.3,0,0.299798,0.00140452,-1.26568e-12
0.2,8.4,0,0.299798,0.00141087,-1.27649e-12
0.2,8.5,0,0.299798,0.00141087,-1.27649e-12
0.2,8.6,0,0.299798,0.00142066,-1.29364e-12
0.2,8.7,0,0.299803,0.00158583,-1.58288e-12
0.2,8.8,0,0.299808,0.00173791,-1.84919e-12
0.2,8.9,0,0.299808,0.00173791,-1.84919e-12
0.2,9,0,0.299808,0.00173791,-1.84919e-12
0.2,9.1,0,0.299809,0.00176493,-1.88055e-12
0.2,9.2,0,0.299815,0.00191935,-2.05975e-12
0.2,9.3,0,0.29982,0.00204365,-2.20399e-12
0.2,9.4,0,0.29982,0.00204365,-2.20399e-12
0.2,9.5,0,0.29982,0.00204365,-2.20399e-12
0.2,9.6,0,0.299822,0.00208422,-2.21215e-12
0.2,9.7,0,0.299828,0.0022237,-2.24021e-12
0.2,9.8,0,0.299832,0.00231977,-2.25954e-12
0.2,9.9,0,0.299832,0.00231977,-2.25954e-12
0.2,10,0,0.299832,0.00231977,-2.25954e-12
0.2,10.1,0,0.299836,0.00236926,-2.19478e-12
0.2,10.2,0,0.299846,0.00249091,-2.0356e-12
0.2,10.3,0,0.299851,0.00256055,-1.94449e-12
0.2,10.4,0,0.299851,0.00256055,-1.94449e-12
0.2,10.5,0,0.299851,0.00256055,-1.94449e-12
0.2,10.6,0,0.299857,0.00261432,-1.86089e-12
0.2,10.7,0,0.299868,0.00271725,-1.70086e-12
0.2,10.8,0,0.299873,0.00276416,-1.62794e-12
0.2,10.9,0,0.299873,0.00276416,-1.62794e-12
0.2,11,0,0.299873,0.00276416,-1.62794e-12
0.2,11.1,0,0.299876,0.00280597,-1.54493e-12
0.2,11.2,0,0.299881,0.00287171,-1.41444e-12
0.2,11.3,0,0.299883,0.002894,-1.3702e-12
0.2,11.4,0,0.299883,0.002894,-1.3702e-12
0.2,11.5,0,0.299883,0.002894,-1.3702e-12
0.2,11.6,0,0.299889,0.00291897,-1.21174e-12
0.2,11.7,0,0.299897,0.00295244,-9.99289e-13
0.2,11.8,0,0.299898,0.00295992,-9.51859e-13
0.2,11.9,0,0.299898,0.00295992,-9.51859e-13
0.2,12,0,0.299898,0.00295992,-9.51859e-13
0.2,12.1,0,0.299916,0.00295712,-7.33857e-13
0.2,12.2,0,0.299938,0.00295383,-4.77397e-13
0.2,12.3,0,0.299924,0.00341538,-4.76352e-13
0.2,12.4,0,0.299906,0.0039344,-5.06884e-13
0.2,12.5,0,0.299888,0.00445342,-5.37415e-13
0.2,12.6,0,0.299901,0.00446318,-4.17015e-13
0.2,12.7,0,0.299916,0.00444888,-2.89481e-13
0.3,0,0,0.299908,-0.00530892,3.74308e-13
0.3,0.1,0,0.299896,-0.00533154,4.51102e-13
0.3,0.2,0,0.299883,-0.00535416,5.27895e-13
0.3,0.3,0,0.299872,-0.00535167,5.98171e-13
0.3,0.4,0,0.29989,-0.00484318,5.37108e-13
0.3,0.5,0,0.299903,-0.00438941,4.86212e-13
0.3,0.6,0,0.299885,-0.00439543,5.20745e-13
0.3,0.7,0,0.299867,-0.00440145,5.55278e-13
0.3,0.8,0,0.299852,-0.00440653,5.8442e-13
0.3,0.9,0,0.299852,-0.00440653,5.8442e-13
0.3,1,0,0.299852,-0.00440653,5.8442e-13
0.3,1.1,0,0.299852,-0.00440653,5.8442e-13
0.3,1.2,0,0.29985,-0.00439701,5.31761e-13
0.3,1.3,0,0.299843,-0.00436491,3.54204e-13
0.3,1.4,0,0.299836,-0.00433281,1.76647e-13
0.3,1.5,0,0.299831,-0.00431159,5.92562e-14
0.3,1.6,0,0.299831,-0.00431159,5.92562e-14
0.3,1.7,0,0.299829,-0.00428519,-2.01436e-14
0.3,1.8,0,0.299824,-0.00422274,-2.07962e-13
0.3,1.9,0,0.299818,-0.0041603,-3.95781e-13
0.3,2,0,0.299815,-0.00412645,-4.97595e-13
0.3,2.1,0,0.299815,-0.00412645,-4.97595e-13
0.3,2.2,0,0.299809,-0.00407217,-4.52208e-13
0.3,2.3,0,0.299798,-0.00397294,-3.69232e-13
0.3,2.4,0,0.299786,-0.00387371,-2.86257e-13
0.3,2.5,0,0.299781,-0.00383177,-2.51188e-13
0.3,2.6,0,0.299781,-0.00383177,-2.51188e-13
0.3,2.7,0,0.299774,-0.00375313,-1.11172e-13
0.3,2.8,0,0.299764,-0.00363524,9.87006e-14
0.3,2.9,0,0.299755,-0.00351736,3.08574e-13
0.3,3,0,0.299752,-0.0034813,3.7279e-13
0.3,3.1,0,0.299752,-0.0034813,3.7279e-13
0.3,3.2,0,0.299747,-0.00337655,3.54737e-13
0.3,3.3,0,0.299741,-0.00324276,3.31676e-13
0.3,3.4,0,0.299736,-0.00310896,3.08615e-13
0.3,3.5,0,0.299735,-0.00308351,3.04228e-13
0.3,3.6,0,0.299735,-0.00308351,3.04228e-13
0.3,3.7,0,0.299729,-0.00295033,9.27262e-14
0.3,3.8,0,0.299723,-0.00280207,-1.42736e-13
0.3,3.9,0,0.299717,-0.0026538,-3.78199e-13
0.3,4,0,0.299717,-0.00264272,-3.95795e-13
0.3,4.1,0,0.299717,-0.00264057,-3.992e-13
0.3,4.2,0,0.299712,-0.00248066,-6.52441e-13
0.3,4.3,0,0.299707,-0.00232074,-9.05681e-13
0.3,4.4,0,0.299702,-0.00216734,-1.14862e-12
0.3,4.5,0,0.299702,-0.00216734,-1.14862e-12
0.3,4.6,0,0.299702,-0.0021455,-1.16047e-12
0.3,4.7,0,0.299697,-0.00197573,-1.25268e-12
0.3,4.8,0,0.299693,-0.00180595,-1.34489e-12
0.3,4.9,0,0.299689,-0.00166268,-1.4227e-12
0.3,5,0,0.299689,-0.00166268,-1.4227e-12
0.3,5.1,0,0.299688,-0.0016195,-1.38811e-12
0.3,5.2,0,0.299685,-0.00144234,-1.24622e-12
0.3,5.3,0,0.299682,-0.00126517,-1.10432e-12
0.3,5.4,0,0.29968,-0.00113612,-1.00096e-12
0.3,5.5,0,0.29968,-0.00113612,-1.00096e-12
0.3,5.6,0,0.299679,-0.00107053,-9.15726e-13
0.3,5.7,0,0.299677,-0.000887768,-6.78225e-13
0.3,5.8,0,0.299675,-0.000705005,-4.40723e-13
0.3,5.9,0,0.299674,-0.00059297,-2.95131e-13
0.3,6,0,0.299674,-0.00059297,-2.95131e-13
0.3,6.1,0,0.299673,-0.000504949,-2.13149e-13
0.3,6.2,0,0.299672,-0.000319255,-4.01938e-14
0.3,6.3,0,0.299672,-0.000133562,1.32761e-13
0.3,6.4,0,0.299671,-4.11666e-05,2.18818e-13
0.3,6.5,0,0.299671,-4.11666e-05,2.18818e-13
0.3,6.6,0,0.299672,6.84137e-05,2.20759e-13
0.3,6.7,0,0.299672,0.00025441,2.24052e-13
0.3,6.8,0,0.299673,0.000440407,2.27345e-13
0.3,6.9,0,0.299673,0.000511477,2.28604e-13
0.3,7,0,0.299673,0.000511477,2.28604e-13
0.3,7.1,0,0.299674,0.000641701,1.00627e-13
0.3,7.2,0,0.299676,0.000826594,-8.10745e-14
0.3,7.3,0,0.299678,0.00101149,-2.62776e-13
0.3,7.4,0,0.299678,0.00106078,-3.11219e-13
0.3,7.5,0,0.299678,0.00106078,-3.11219e-13
0.3,7.6,0,0.29968,0.0012092,-5.10403e-13
0.3,7.7,0,0.299683,0.00139029,-7.53441e-13
0.3,7.8,0,0.299686,0.00157138,-9.9648e-13
0.3,7.9,0,0.299686,0.00159873,-1.03319e-12
0.3,8,0,0.299686,0.00159873,-1.03319e-12
0.3,8.1,0,0.29969,0.00176164,-1.31066e-12
0.3,8.2,0,0.299693,0.00193589,-1.60745e-12
0.3,8.3,0,0.299697,0.00211013,-1.90423e-12
0.3,8.4,0,0.299697,0.0021163,-1.91474e-12
0.3,8.5,0,0.299698,0.00212464,-1.92934e-12
0.3,8.6,0,0.299702,0.00228981,-2.21857e-12
0.3,8.7,0,0.299707,0.00245498,-2.50781e-12
0.3,8.8,0,0.299711,0.00260686,-2.77378e-12
0.3,8.9,0,0.299711,0.00260686,-2.77378e-12
0.3,9,0,0.299712,0.00263255,-2.80359e-12
0.3,9.1,0,0.299719,0.00278697,-2.98279e-12
0.3,9.2,0,0.299725,0.00294139,-3.162e-12
0.3,9.3,0,0.29973,0.00306547,-3.30599e-12
0.3,9.4,0,0.29973,0.00306547,-3.30599e-12
0.3,9.5,0,0.299732,0.00310488,-3.31392e-12
0.3,9.6,0,0.299738,0.00324435,-3.34197e-12
0.3,9.7,0,0.299744,0.00338382,-3.37003e-12
0.3,9.8,0,0.299749,0.00347965,-3.38931e-12
0.3,9.9,0,0.299749,0.00347965,-3.38931e-12
0.3,10,0,0.299752,0.00352816,-3.32584e-12
0.3,10.1,0,0.299762,0.00364981,-3.16666e-12
0.3,10.2,0,0.299772,0.00377146,-3.00748e-12
0.3,10.3,0,0.299777,0.00384082,-2.91673e-12
0.3,10.4,0,0.299777,0.00384082,-2.91673e-12
0.3,10.5,0,0.299783,0.00389376,-2.83442e-12
0.3,10.6,0,0.299793,0.0039967,-2.67439e-12
0.3,10.7,0,0.299804,0.00409963,-2.51437e-12
0.3,10.8,0,0.299809,0.00414623,-2.44191e-12
0.3,10.9,0,0.299809,0.00414623,-2.44191e-12
0.3,11,0,0.299812,0.00418747,-2.36006e-12
0.3,11.1,0,0.299817,0.00425321,-2.22956e-12
0.3,11.2,0,0.299822,0.00431895,-2.09907e-12
0.3,11.3,0,0.299824,0.004341,-2.0553e-12
0.3,11.4,0,0.299824,0.004341,-2.0553e-12
0.3,11.5,0,0.29983,0.00436558,-1.89932e-12
0.3,11.6,0,0.299838,0.00439905,-1.68687e-12
0.3,11.7,0,0.299846,0.00443253,-1.47442e-12
0.3,11.8,0,0.299847,0.00443987,-1.42779e-12
0.3,11.9,0,0.299847,0.00443987,-1.42779e-12
0.3,12,0,0.299865,0.00443713,-1.21422e-12
0.3,12.1,0,0.299887,0.00443384,-9.5776e-13
0.3,12.2,0,0.299908,0.00443055,-7.01299e-13
0.3,12.3,0,0.299894,0.0048935,-7.01024e-13
0.3,12.4,0,0.299876,0.00541252,-7.31556e-13
0.3,12.5,0,0.299889,0.00543433,-6.14723e-13
0.3,12.6,0,0.299904,0.00542002,-4.87188e-13
0.3,12.7,0,0.299918,0.00540572,-3.59654e-13
0.4,0,0,0.299906,-0.00625063,3.99654e-13
0.4,0.1,0,0.299893,-0.00627325,4.76448e-13
0.4,0.2,0,0.299881,-0.00629587,5.53241e-13
0.4,0.3,0,0.299869,-0.00631849,6.30035e-13
0.4,0.4,0,0.299858,-0.00630763,6.98138e-13
0.4,0.5,0,0.299872,-0.00585231,6.46954e-13
0.4,0.6,0,0.299854,-0.00585833,6.81487e-13
0.4,0.7,0,0.299836,-0.00586435,7.1602e-13
0.4,0.8,0,0.299818,-0.00587037,7.50553e-13
0.4,0.9,0,0.299803,-0.00587537,7.79227e-13
0.4,1,0,0.299803,-0.00587537,7.79227e-13
0.4,1.1,0,0.299801,-0.00586638,7.29502e-13
0.4,1.2,0,0.299794,-0.00583428,5.51945e-13
0.4,1.3,0,0.299787,-0.00580218,3.74388e-13
0.4,1.4,0,0.29978,-0.00577008,1.9683e-13
0.4,1.5,0,0.299775,-0.00574878,7.90082e-14
0.4,1.6,0,0.299773,-0.00572319,2.03698e-15
0.4,1.7,0,0.299767,-0.00566075,-1.85782e-13
0.4,1.8,0,0.299762,-0.0055983,-3.736e-13
0.4,1.9,0,0.299757,-0.00553586,-5.61419e-13
0.4,2,0,0.299754,-0.00550193,-6.6346e-13
0.4,2.1,0,0.299748,-0.00544864,-6.189e-13
0.4,2.2,0,0.299736,-0.00534941,-5.35925e-13
0.4,2.3,0,0.299725,-0.00525018,-4.52949e-13
0.4,2.4,0,0.299713,-0.00515095,-3.69974e-13
0.4,2.5,0,0.299708,-0.00510903,-3.34918e-13
0.4,2.6,0,0.299701,-0.00503137,-1.96662e-13
0.4,2.7,0,0.299692,-0.00491349,1.32109e-14
0.4,2.8,0,0.299682,-0.00479561,2.23084e-13
0.4,2.9,0,0.299672,-0.00467773,4.32957e-13
0.4,3,0,0.299669,-0.00464173,4.97054e-13
0.4,3.1,0,0.299664,-0.00453809,4.79191e-13
0.4,3.2,0,0.299659,-0.0044043,4.5613e-13
0.4,3.3,0,0.299653,-0.0042705,4.33069e-13
0.4,3.4,0,0.299647,-0.00413671,4.10008e-13
0.4,3.5,0,0.299646,-0.00411135,4.05638e-13
0.4,3.6,0,0.299641,-0.0039794,1.96085e-13
0.4,3.7,0,0.299635,-0.00383113,-3.93777e-14
0.4,3.8,0,0.299629,-0.00368287,-2.7484e-13
0.4,3.9,0,0.299623,-0.0035346,-5.10303e-13
0.4,4,0,0.299622,-0.00352281,-5.2902e-13
0.4,4.1,0,0.299617,-0.0033629,-7.82261e-13
0.4,4.2,0,0.299612,-0.00320298,-1.0355e-12
0.4,4.3,0,0.299607,-0.00304307,-1.28874e-12
0.4,4.4,0,0.299603,-0.00288978,-1.53149e-12
0.4,4.5,0,0.299602,-0.00286938,-1.54257e-12
0.4,4.6,0,0.299598,-0.0026996,-1.63478e-12
0.4,4.7,0,0.299594,-0.00252982,-1.72698e-12
0.4,4.8,0,0.299589,-0.00236005,-1.81919e-12
0.4,4.9,0,0.299586,-0.00221691,-1.89693e-12
0.4,5,0,0.299585,-0.00217523,-1.86355e-12
0.4,5.1,0,0.299582,-0.00199807,-1.72166e-12
0.4,5.2,0,0.299578,-0.0018209,-1.57976e-12
0.4,5.3,0,0.299575,-0.00164374,-1.43787e-12
0.4,5.4,0,0.299573,-0.00151483,-1.33461e-12
0.4,5.5,0,0.299572,-0.0014508,-1.25142e-12
0.4,5.6,0,0.29957,-0.00126804,-1.01392e-12
0.4,5.7,0,0.299568,-0.00108528,-7.76414e-13
0.4,5.8,0,0.299566,-0.000902518,-5.38912e-13
0.4,5.9,0,0.299565,-0.000790626,-3.93508e-13
0.4,6,0,0.299564,-0.000704214,-3.13024e-13
0.4,6.1,0,0.299564,-0.000518521,-1.40069e-13
0.4,6.2,0,0.299563,-0.000332827,3.28859e-14
0.4,6.3,0,0.299562,-0.000147133,2.05841e-13
0.4,6.4,0,0.299562,-5.48888e-05,2.91758e-13
0.4,6.5,0,0.299562,5.30651e-05,2.93669e-13
0.4,6.6,0,0.299563,0.000239062,2.96962e-13
0.4,6.7,0,0.299563,0.000425058,3.00256e-13
0.4,6.8,0,0.299564,0.000611055,3.03549e-13
0.4,6.9,0,0.299564,0.000681969,3.04805e-13
0.4,7,0,0.299565,0.000810563,1.7843e-13
0.4,7.1,0,0.299567,0.000995456,-3.27151e-15
0.4,7.2,0,0.299569,0.00118035,-1.84973e-13
0.4,7.3,0,0.29957,0.00136524,-3.66675e-13
0.4,7.4,0,0.299571,0.00141437,-4.14959e-13
0.4,7.5,0,0.299573,0.00156118,-6.11988e-13
0.4,7.6,0,0.299576,0.00174227,-8.55026e-13
0.4,7.7,0,0.299578,0.00192337,-1.09806e-12
0.4,7.8,0,0.299581,0.00210446,-1.3411e-12
0.4,7.9,0,0.299581,0.00213164,-1.37759e-12
0.4,8,0,0.299585,0.002293,-1.65242e-12
0.4,8.1,0,0.299589,0.00246725,-1.94921e-12
0.4,8.2,0,0.299593,0.0026415,-2.24599e-12
0.4,8.3,0,0.299596,0.00281574,-2.54278e-12
0.4,8.4,0,0.299597,0.00282862,-2.56503e-12
0.4,8.5,0,0.299601,0.00299379,-2.85427e-12
0.4,8.6,0,0.299606,0.00315895,-3.1435e-12
0.4,8.7,0,0.299611,0.00332412,-3.43274e-12
0.4,8.8,0,0.299615,0.00347582,-3.69838e-12
0.4,8.9,0,0.299616,0.00350017,-3.72663e-12
0.4,9,0,0.299622,0.00365459,-3.90584e-12
0.4,9.1,0,0.299629,0.00380901,-4.08504e-12
0.4,9.2,0,0.299635,0.00396343,-4.26424e-12
0.4,9.3,0,0.29964,0.0040873,-4.40798e-12
0.4,9.4,0,0.299642,0.00412553,-4.41568e-12
0.4,9.5,0,0.299648,0.004265,-4.44373e-12
0.4,9.6,0,0.299654,0.00440448,-4.47179e-12
0.4,9.7,0,0.29966,0.00454395,-4.49985e-12
0.4,9.8,0,0.299665,0.00463954,-4.51908e-12
0.4,9.9,0,0.299668,0.00468706,-4.4569e-12
0.4,10,0,0.299678,0.00480871,-4.29772e-12
0.4,10.1,0,0.299688,0.00493036,-4.13854e-12
0.4,10.2,0,0.299697,0.00505201,-3.97936e-12
0.4,10.3,0,0.299703,0.00512109,-3.88897e-12
0.4,10.4,0,0.299708,0.00517321,-3.80795e-12
0.4,10.5,0,0.299719,0.00527614,-3.64792e-12
0.4,10.6,0,0.29973,0.00537907,-3.4879e-12
0.4,10.7,0,0.299741,0.00548201,-3.32787e-12
0.4,10.8,0,0.299745,0.00552831,-3.25588e-12
0.4,10.9,0,0.299749,0.00556896,-3.17519e-12
0.4,11,0,0.299754,0.0056347,-3.04469e-12
0.4,11.1,0,0.299759,0.00570044,-2.9142e-12
0.4,11.2,0,0.299764,0.00576618,-2.7837e-12
0.4,11.3,0,0.299765,0.005788,-2.7404e-12
0.4,11.4,0,0.299771,0.00581219,-2.5869e-12
0.4,11.5,0,0.299779,0.00584566,-2.37445e-12
0.4,11.6,0,0.299787,0.00587914,-2.162e-12
0.4,11.7,0,0.299795,0.00591261,-1.94955e-12
0.4,11.8,0,0.299797,0.00591983,-1.90372e-12
0.4,11.9,0,0.299814,0.00591715,-1.69458e-12
0.4,12,0,0.299835,0.00591386,-1.43812e-12
0.4,12.1,0,0.299857,0.00591057,-1.18166e-12
0.4,12.2,0,0.299878,0.00590728,-9.25202e-13
0.4,12.3,0,0.299864,0.00637163,-9.25696e-13
0.4,12.4,0,0.299876,0.00640547,-8.1243e-13
0.4,12.5,0,0.299891,0.00639116,-6.84896e-13
0.4,12.6,0,0.299906,0.00637686,-5.57361e-13
0.4,12.7,0,0.29992,0.00636256,-4.29827e-13
0.5,0,0,0.299903,-0.00719235,4.25e-13
0.5,0.1,0,0.299891,-0.00721763,5.0163e-13
0.5,0.2,0,0.299879,-0.00724291,5.7826e-13
0.5,0.3,0,0.299867,-0.00726819,6.5489e-13
0.5,0.4,0,0.299855,-0.00729347,7.3152e-13
0.5,0.5,0,0.299841,-0.00731571,8.04331e-13
0.5,0.6,0,0.299823,-0.00732181,8.38283e-13
0.5,0.7,0,0.299805,-0.00732792,8.72234e-13
0.5,0.8,0,0.299787,-0.00733403,9.06186e-13
0.5,0.9,0,0.299769,-0.00734013,9.40138e-13
0.5,1,0,0.299754,-0.00733776,9.26861e-13
0.5,1.1,0,0.299747,-0.00730588,7.49261e-13
0.5,1.2,0,0.29974,-0.007274,5.71661e-13
0.5,1.3,0,0.299734,-0.00724213,3.94061e-13
0.5,1.4,0,0.299727,-0.00721025,2.16461e-13
0.5,1.5,0,0.299714,-0.00715676,4.37528e-14
0.5,1.6,0,0.299708,-0.0070942,-1.43527e-13
0.5,1.7,0,0.299703,-0.00703163,-3.30808e-13
0.5,1.8,0,0.299698,-0.00696906,-5.18088e-13
0.5,1.9,0,0.299692,-0.00690649,-7.05368e-13
0.5,2,0,0.299684,-0.00682724,-7.69554e-13
0.5,2.1,0,0.299672,-0.00672801,-6.86526e-13
0.5,2.2,0,0.299661,-0.00662879,-6.03498e-13
0.5,2.3,0,0.299649,-0.00652957,-5.2047e-13
0.5,2.4,0,0.299638,-0.00643034,-4.37441e-13
0.5,2.5,0,0.299624,-0.00631226,-3.02573e-13
0.5,2.6,0,0.299614,-0.00619437,-9.26084e-14
0.5,2.7,0,0.299604,-0.00607648,1.17356e-13
0.5,2.8,0,0.299595,-0.00595859,3.2732e-13
0.5,2.9,0,0.299585,-0.00584069,5.37285e-13
0.5,3,0,0.299576,-0.00570373,5.80057e-13
0.5,3.1,0,0.29957,-0.00556993,5.57037e-13
0.5,3.2,0,0.299564,-0.00543613,5.34016e-13
0.5,3.3,0,0.299559,-0.00530232,5.10996e-13
0.5,3.4,0,0.299553,-0.00516852,4.87976e-13
0.5,3.5,0,0.299545,-0.00501359,3.06477e-13
0.5,3.6,0,0.299539,-0.00486532,7.10052e-14
0.5,3.7,0,0.299533,-0.00471705,-1.64467e-13
0.5,3.8,0,0.299527,-0.00456878,-3.99939e-13
0.5,3.9,0,0.299521,-0.0044205,-6.35411e-13
0.5,4,0,0.299515,-0.00425164,-8.83983e-13
0.5,4.1,0,0.29951,-0.00409172,-1.13726e-12
0.5,4.2,0,0.299505,-0.0039318,-1.39054e-12
0.5,4.3,0,0.2995,-0.00377187,-1.64382e-12
0.5,4.4,0,0.299494,-0.00360111,-1.90858e-12
0.5,4.5,0,0.29949,-0.00343132,-2.00081e-12
0.5,4.6,0,0.299485,-0.00326153,-2.09304e-12
0.5,4.7,0,0.299481,-0.00309174,-2.18527e-12
0.5,4.8,0,0.299477,-0.00292195,-2.2775e-12
0.5,4.9,0,0.299472,-0.00274017,-2.35747e-12
0.5,5,0,0.299468,-0.00256299,-2.21555e-12
0.5,5.1,0,0.299465,-0.00238582,-2.07362e-12
0.5,5.2,0,0.299462,-0.00220864,-1.9317e-12
0.5,5.3,0,0.299459,-0.00203147,-1.78978e-12
0.5,5.4,0,0.299455,-0.00184159,-1.63943e-12
0.5,5.5,0,0.299453,-0.00165881,-1.40185e-12
0.5,5.6,0,0.299451,-0.00147603,-1.16427e-12
0.5,5.7,0,0.299449,-0.00129325,-9.26694e-13
0.5,5.8,0,0.299447,-0.00111048,-6.89115e-13
0.5,5.9,0,0.299445,-0.000915169,-4.77655e-13
0.5,6,0,0.299444,-0.000729457,-3.04603e-13
0.5,6.1,0,0.299444,-0.000543746,-1.31551e-13
0.5,6.2,0,0.299443,-0.000358035,4.15011e-14
0.5,6.3,0,0.299442,-0.000172324,2.14553e-13
0.5,6.4,0,0.299442,2.50681e-05,3.10878e-13
0.5,6.5,0,0.299442,0.000211083,3.14253e-13
0.5,6.6,0,0.299443,0.000397098,3.17628e-13
0.5,6.7,0,0.299444,0.000583113,3.21003e-13
0.5,6.8,0,0.299444,0.000769129,3.24378e-13
0.5,6.9,0,0.299446,0.000966035,2.22987e-13
0.5,7,0,0.299447,0.00115095,4.13294e-14
0.5,7.1,0,0.299449,0.00133586,-1.40328e-13