/*--------------------------------*- C++ -*----------------------------------*\
| =========                 |                                                 |
| \\      /  F ield         | OpenFOAM: The Open Source CFD Toolbox           |
|  \\    /   O peration     | Version:  v1806                                 |
|   \\  /    A nd           | Web:      www.OpenFOAM.com                      |
|    \\/     M anipulation  |                                                 |
\*---------------------------------------------------------------------------*/
FoamFile
{
    version     2.0;
    format      ascii;
    class       volScalarField;
    location    "11";
    object      p;
}
// * * * * * * * * * * * * * * * * * * * * * * * * * * * * * * * * * * * * * //

dimensions      [0 2 -2 0 0 0 0];


internalField   nonuniform List<scalar> 
24000
(
14.4615
13.6105
13.0678
12.6673
12.2985
11.9558
11.6457
11.3671
11.1131
10.8765
10.6515
10.4339
10.2207
10.0103
9.80149
9.59387
9.3872
9.18156
8.97714
8.77436
14.2609
13.5347
13.0353
12.6477
12.2876
11.9501
11.6419
11.3634
11.1095
10.8733
10.6491
10.4325
10.2204
10.0108
9.80259
9.59522
9.38848
9.18251
8.97755
8.77405
14.2168
13.5153
13.0277
12.6444
12.2871
11.9519
11.6457
11.3687
11.1158
10.8805
10.657
10.4409
10.2292
10.0198
9.8113
9.60336
9.39573
9.18851
8.98195
8.77656
14.1656
13.4791
13.0051
12.6308
12.2794
11.9484
11.6454
11.371
11.1202
10.8866
10.6646
10.4497
10.2388
10.0296
9.82105
9.61242
9.40354
9.1945
8.98567
8.77761
14.141
13.4626
12.9965
12.6279
12.2806
11.9527
11.6525
11.3805
11.1316
10.8996
10.6788
10.4647
10.2542
10.0449
9.8357
9.62578
9.41494
9.20331
8.99128
8.77954
14.1259
13.4511
12.9894
12.6249
12.2812
11.9566
11.6593
11.3902
11.1439
10.9141
10.695
10.4823
10.2724
10.0632
9.85326
9.64177
9.42849
9.21354
8.99739
8.78084
14.1194
13.447
12.9887
12.628
12.2876
11.9659
11.6715
11.405
11.1613
10.9337
10.7166
10.5052
10.2961
10.0869
9.87605
9.6626
9.44622
9.22702
9.00553
8.78274
14.1195
13.4488
12.9928
12.6347
12.2971
11.9784
11.6869
11.4234
11.1825
10.9576
10.7427
10.5331
10.3251
10.116
9.90418
9.68847
9.46838
9.24398
9.01583
8.78513
14.1244
13.4555
13.0013
12.6455
12.3105
11.9947
11.7063
11.446
11.2083
10.9866
10.7745
10.5672
10.3606
10.1521
9.93939
9.72127
9.49684
9.26613
9.02963
8.78884
14.133
13.4666
13.0136
12.6599
12.3273
12.0147
11.7296
11.473
11.2389
11.021
10.8122
10.6081
10.4037
10.1963
9.98303
9.76256
9.53319
9.29505
9.04815
8.7945
14.1443
13.4816
13.029
12.6774
12.3472
12.0381
11.7564
11.5042
11.2741
11.0611
10.8565
10.6567
10.4553
10.2503
10.037
9.81479
9.57991
9.33337
9.07338
8.80341
14.1572
13.5
13.0467
12.6974
12.3694
12.0645
11.7864
11.5394
11.3139
11.1071
10.9075
10.7139
10.5166
10.316
10.1035
9.88109
9.64006
9.385
9.10786
8.81783
14.1706
13.5212
13.0656
12.7193
12.3933
12.0932
11.8186
11.5782
11.3576
11.1589
10.9651
10.7803
10.5883
10.3952
10.185
9.96546
9.71766
9.4561
9.15475
8.84279
14.1841
13.5437
13.0846
12.7422
12.4178
12.1235
11.852
11.6198
11.4041
11.2159
11.0285
10.8558
10.6707
10.4895
10.2836
10.0719
9.8177
9.55635
9.21851
8.89119
14.1971
13.5653
13.1026
12.7648
12.4417
12.1541
11.8851
11.6627
11.4516
11.2765
11.0959
10.9394
10.7628
10.5989
10.4001
10.2018
9.94346
9.69362
9.30674
8.99867
14.2097
13.5839
13.118
12.7859
12.4632
12.1831
11.9156
11.7047
11.4971
11.3382
11.1635
11.0286
10.8611
10.722
10.5338
10.3545
10.0948
9.8594
9.42071
9.19375
14.2231
13.5959
13.13
12.8036
12.482
12.2083
11.9427
11.7426
11.539
11.3967
11.2291
11.1189
10.9627
10.857
10.6847
10.5316
10.2845
10.0204
9.52349
9.44792
14.2421
13.5987
13.1392
12.8173
12.4999
12.2286
11.9679
11.7747
11.5791
11.4499
11.2938
11.2086
11.0673
11.0065
10.8505
10.7622
10.5292
10.2292
9.60584
9.60327
14.2638
13.5925
13.1477
12.8265
12.5185
12.2434
11.9948
11.7977
11.6218
11.4897
11.3644
11.2783
11.1855
11.1298
11.0418
10.9751
10.801
10.5229
9.8804
9.04002
14.2897
13.5656
13.1618
12.824
12.5431
12.2389
12.0284
11.798
11.6747
11.4992
11.4501
11.3074
11.333
11.2034
11.3075
11.1487
11.2276
10.616
9.69813
7.43418
14.204
13.5738
13.0641
12.6664
12.3052
11.9669
11.6562
11.3752
11.1193
10.8812
10.6551
10.4365
10.2226
10.0116
9.80248
9.59461
9.38777
9.18203
8.97755
8.77475
14.0045
13.5019
13.0388
12.65
12.2953
11.9621
11.6537
11.373
11.117
10.8794
10.654
10.4363
10.2233
10.0131
9.80436
9.59665
9.38967
9.18353
8.97844
8.77487
13.9603
13.4827
13.0321
12.6474
12.2951
11.9641
11.6577
11.3784
11.1234
10.8866
10.6619
10.4449
10.2324
10.0223
9.81338
9.60507
9.39717
9.18975
8.98302
8.77752
13.9085
13.4459
13.0093
12.6338
12.2872
11.9605
11.6574
11.3808
11.1279
10.8927
10.6695
10.4537
10.2419
10.0321
9.82304
9.61409
9.40495
9.19573
8.98674
8.77857
13.8838
13.4292
13.0006
12.631
12.2886
11.9649
11.6646
11.3903
11.1394
10.9058
10.6838
10.4687
10.2573
10.0474
9.83772
9.62747
9.41637
9.20455
8.99236
8.7805
13.8685
13.4175
12.9933
12.628
12.2891
11.9687
11.6713
11.3999
11.1516
10.9203
10.7
10.4862
10.2755
10.0657
9.85526
9.64344
9.4299
9.21477
8.99847
8.78183
13.8619
13.4132
12.9925
12.6309
12.2955
11.9781
11.6835
11.4148
11.169
10.9399
10.7216
10.5092
10.2993
10.0894
9.87808
9.6643
9.44766
9.22828
9.00664
8.78375
13.8619
13.4149
12.9964
12.6376
12.305
11.9905
11.6989
11.4331
11.1902
10.9638
10.7477
10.5371
10.3282
10.1185
9.90619
9.69016
9.46982
9.24524
9.01695
8.78619
13.8667
13.4216
13.0048
12.6482
12.3183
12.0068
11.7183
11.4558
11.216
10.9928
10.7795
10.5712
10.3638
10.1546
9.94142
9.72296
9.4983
9.26741
9.0308
8.78995
13.8752
13.4327
13.0171
12.6626
12.335
12.0268
11.7415
11.4828
11.2466
11.0272
10.8172
10.6121
10.4068
10.1988
9.98504
9.76425
9.53466
9.29632
9.04938
8.79566
13.8864
13.4477
13.0325
12.68
12.3548
12.0502
11.7683
11.514
11.2818
11.0674
10.8614
10.6607
10.4583
10.2529
10.039
9.8165
9.58135
9.33459
9.07474
8.80456
13.899
13.4664
13.05
12.7
12.3769
12.0766
11.7982
11.5492
11.3214
11.1135
10.9124
10.7181
10.5194
10.3187
10.1052
9.883
9.64128
9.38608
9.10939
8.81863
13.9123
13.4879
13.0687
12.7218
12.4007
12.1055
11.8302
11.5882
11.365
11.1656
10.9698
10.7848
10.5909
10.3985
10.1861
9.96816
9.71811
9.4574
9.15618
8.84184
13.9256
13.5108
13.0874
12.7446
12.4251
12.1361
11.8633
11.6299
11.4114
11.2229
11.0331
10.8608
10.6729
10.4937
10.2837
10.0763
9.81612
9.55939
9.21838
8.8857
13.9387
13.5329
13.1048
12.7673
12.449
12.1668
11.8962
11.6729
11.459
11.2838
11.1004
10.9448
10.7648
10.6042
10.3991
10.2087
9.93796
9.69924
9.30074
8.98254
13.9514
13.5517
13.1195
12.7883
12.4705
12.1959
11.9264
11.7149
11.5044
11.3453
11.1681
11.0338
10.8631
10.7276
10.5324
10.3632
10.0852
9.86689
9.40006
9.1489
13.9652
13.5633
13.1312
12.8057
12.4892
12.2206
11.9535
11.752
11.5465
11.4025
11.2342
11.1217
10.9661
10.8587
10.6851
10.5379
10.2747
10.0395
9.49068
9.31242
13.9849
13.565
13.1409
12.8185
12.5074
12.2401
11.9794
11.7829
11.5877
11.454
11.3008
11.2083
11.0746
11.0008
10.8589
10.7544
10.526
10.2685
9.53132
9.38986
14.0075
13.5569
13.1496
12.827
12.5259
12.2541
12.0061
11.8052
11.6295
11.4933
11.3697
11.2779
11.1888
11.124
11.0406
10.9601
10.7734
10.5081
9.73572
8.74965
14.0351
13.5272
13.1604
12.8257
12.5522
12.2487
12.039
11.8057
11.6815
11.5037
11.4526
11.3095
11.3305
11.2026
11.2947
11.1281
11.1683
10.4491
9.25011
6.10428
14.0996
13.566
13.0757
12.6736
12.3172
11.9829
11.671
11.3857
11.1259
10.8855
10.6581
10.4385
10.2239
10.0124
9.80298
9.59497
9.38805
9.18225
8.97772
8.7749
13.9027
13.497
13.0538
12.6613
12.309
11.9796
11.6711
11.3868
11.1267
10.8862
10.659
10.4401
10.2261
10.015
9.8057
9.59766
9.39048
9.18422
8.97904
8.77542
13.8587
13.4779
13.0479
12.6597
12.3091
11.9817
11.6754
11.3926
11.1333
10.8935
10.6671
10.4489
10.2354
10.0245
9.81498
9.60634
9.39823
9.19067
8.98381
8.77823
13.8068
13.4407
13.0251
12.6463
12.3013
11.9781
11.6751
11.3951
11.138
10.8998
10.6748
10.4577
10.2449
10.0343
9.8247
9.61537
9.40599
9.19662
8.98757
8.77936
13.7818
13.4238
13.0164
12.6437
12.3028
11.9826
11.6823
11.4047
11.1496
10.913
10.6891
10.4728
10.2604
10.0497
9.83939
9.62876
9.41746
9.20552
8.99324
8.78133
13.7665
13.4119
13.0089
12.6406
12.3033
11.9863
11.689
11.4142
11.1617
10.9274
10.7053
10.4903
10.2786
10.068
9.85693
9.64475
9.43101
9.21576
8.99937
8.78269
13.7598
13.4075
13.008
12.6434
12.3097
11.9958
11.7013
11.4291
11.1791
10.9471
10.7268
10.5132
10.3023
10.0917
9.87975
9.66562
9.44879
9.22929
9.00756
8.78464
13.7598
13.4091
13.0119
12.6499
12.3191
12.0082
11.7166
11.4474
11.2003
10.9708
10.7529
10.5411
10.3312
10.1208
9.90785
9.69147
9.47094
9.24626
9.0179
8.78712
13.7645
13.4157
13.0202
12.6605
12.3323
12.0245
11.736
11.4701
11.2261
10.9998
10.7847
10.5752
10.3668
10.1568
9.94306
9.72426
9.49942
9.26843
9.03176
8.79092
13.773
13.4269
13.0323
12.6748
12.349
12.0444
11.7592
11.497
11.2566
11.0342
10.8224
10.616
10.4098
10.201
9.98666
9.76549
9.53577
9.2973
9.05035
8.79666
13.7841
13.4421
13.0474
12.6921
12.3686
12.0679
11.7859
11.5282
11.2918
11.0744
10.8666
10.6647
10.4612
10.2549
10.0405
9.8176
9.58245
9.33537
9.07571
8.80552
13.7967
13.4611
13.0646
12.7119
12.3906
12.0945
11.8156
11.5635
11.3313
11.1207
10.9174
10.7221
10.5222
10.3208
10.1067
9.8839
9.64233
9.38618
9.11037
8.81904
13.8101
13.4831
13.0827
12.7335
12.4142
12.124
11.8473
11.6025
11.3745
11.1732
10.9745
10.7892
10.5931
10.401
10.187
9.96913
9.7189
9.45597
9.15731
8.83961
13.8236
13.5064
13.1007
12.7562
12.4386
12.1553
11.8799
11.6446
11.4203
11.2312
11.0371
10.8659
10.6739
10.4972
10.2828
10.0784
9.81482
9.5565
9.21926
8.87418
13.8371
13.5286
13.1175
12.7788
12.4626
12.1867
11.9125
11.6878
11.4674
11.2927
11.1039
10.9507
10.7642
10.6092
10.3948
10.2136
9.9306
9.6968
9.29578
8.94951
13.8499
13.5472
13.1319
12.7995
12.4842
12.2161
11.9428
11.7299
11.513
11.3546
11.1716
11.0402
10.862
10.7341
10.5246
10.3726
10.0679
9.86885
9.37243
9.08266
13.8635
13.5581
13.144
12.8158
12.503
12.2399
11.9705
11.766
11.556
11.4108
11.239
11.1271
10.9667
10.8641
10.6788
10.5511
10.2526
10.0535
9.43357
9.22094
13.8838
13.5581
13.1552
12.827
12.5214
12.2571
11.9973
11.7945
11.598
11.4592
11.307
11.2088
11.077
10.9994
10.8531
10.7581
10.4944
10.3041
9.45336
9.35799
13.9085
13.5475
13.1645
12.8353
12.5397
12.2694
12.023
11.8157
11.6385
11.497
11.3729
11.2772
11.1848
11.1189
11.0199
10.9446
10.6995
10.4823
9.65072
9.03817
13.9371
13.5175
13.1713
12.8353
12.566
12.2659
12.0528
11.8176
11.6875
11.5103
11.4519
11.3125
11.3226
11.2014
11.2745
11.0999
11.1012
10.3891
9.40091
5.67644
14.0197
13.5498
13.078
12.6764
12.3234
11.9928
11.6812
11.3936
11.1312
10.8893
10.661
10.4408
10.2256
10.0136
9.80388
9.59566
9.3886
9.18271
8.9781
8.77523
13.8237
13.4808
13.0581
12.6672
12.3161
11.99
11.6826
11.3965
11.1339
10.8916
10.6635
10.4438
10.229
10.0173
9.80757
9.5992
9.3918
9.18537
8.98004
8.7763
13.7799
13.4616
13.0529
12.6663
12.3163
11.9921
11.6871
11.4026
11.1407
10.899
10.6716
10.4527
10.2385
10.027
9.81704
9.60808
9.39974
9.19199
8.985
8.77929
13.7279
13.4242
13.0301
12.6531
12.3087
11.9885
11.6868
11.4053
11.1456
10.9055
10.6794
10.4615
10.2481
10.0369
9.82681
9.61715
9.40755
9.19802
8.9888
8.78047
13.7029
13.4072
13.0215
12.6506
12.3103
11.9931
11.6941
11.4149
11.1573
10.9188
10.6938
10.4767
10.2637
10.0523
9.84152
9.63055
9.41903
9.20693
8.99451
8.78248
13.6875
13.3952
13.014
12.6473
12.3108
11.9968
11.7008
11.4244
11.1693
10.9331
10.71
10.4942
10.2818
10.0706
9.85906
9.64656
9.4326
9.21719
9.00067
8.78388
13.6807
13.3907
13.013
12.6501
12.3172
12.0064
11.7131
11.4393
11.1868
10.9528
10.7315
10.5172
10.3056
10.0943
9.8819
9.66746
9.4504
9.23075
9.00888
8.78586
13.6806
13.3923
13.0168
12.6567
12.3266
12.0187
11.7284
11.4576
11.2079
10.9766
10.7576
10.545
10.3344
10.1234
9.90999
9.6933
9.47256
9.24772
9.01923
8.78837
13.6853
13.3989
13.025
12.6672
12.3398
12.035
11.7478
11.4803
11.2338
11.0056
10.7894
10.5791
10.37
10.1594
9.94521
9.72608
9.50104
9.2699
9.03312
8.7922
13.6938
13.41
13.037
12.6814
12.3564
12.055
11.771
11.5072
11.2643
11.04
10.8271
10.6199
10.413
10.2035
9.98879
9.76726
9.53739
9.29875
9.0517
8.79798
13.7049
13.4252
13.0519
12.6987
12.376
12.0785
11.7976
11.5384
11.2993
11.0802
10.8712
10.6686
10.4644
10.2574
10.0427
9.81922
9.58405
9.33665
9.07701
8.80682
13.7176
13.4442
13.0688
12.7185
12.3979
12.1054
11.8272
11.5737
11.3387
11.1267
10.9219
10.7261
10.5253
10.3232
10.1089
9.88522
9.64401
9.38683
9.11151
8.81994
13.7311
13.4663
13.0866
12.7398
12.4215
12.1354
11.8586
11.6128
11.3815
11.1796
10.9787
10.7935
10.5957
10.4036
10.189
9.97016
9.72091
9.45498
9.15846
8.83868
13.745
13.4896
13.1043
12.7622
12.4458
12.1672
11.8909
11.6551
11.4268
11.2383
11.0406
10.8711
10.6753
10.5009
10.2834
10.0801
9.8164
9.5526
9.22123
8.86665
13.7589
13.5114
13.1211
12.7845
12.47
12.199
11.9233
11.6984
11.4735
11.3004
11.1064
10.957
10.7638
10.6151
10.3924
10.2182
9.92831
9.69173
9.29772
8.9234
13.7725
13.5294
13.136
12.8047
12.492
12.2284
11.9539
11.7403
11.5193
11.3622
11.1741
11.0472
10.8606
10.7423
10.5187
10.3825
10.0572
9.86694
9.36319
9.02757
13.7866
13.5394
13.1491
12.82
12.5111
12.2512
11.9826
11.7753
11.5636
11.417
11.2433
11.1324
10.9669
10.8719
10.6723
10.5647
10.2359
10.0628
9.41005
9.14271
13.8075
13.537
13.1619
12.8296
12.5297
12.2654
12.0109
11.8009
11.6076
11.4617
11.3145
11.2097
11.0818
11.0002
10.8509
10.7642
10.4733
10.3292
9.44154
9.28216
13.8341
13.5248
13.1711
12.838
12.5489
12.277
12.036
11.8221
11.6479
11.5005
11.3801
11.2792
11.1908
11.1185
11.0215
10.933
10.6716
10.4514
9.62196
9.15505
13.8593
13.501
13.1725
12.8406
12.5722
12.2786
12.0616
11.8288
11.6919
11.5193
11.4527
11.3198
11.3213
11.2029
11.2761
11.0701
11.1537
10.2953
9.80754
5.68932
13.9811
13.542
13.0803
12.679
12.3268
11.998
11.6869
11.3983
11.1344
10.8915
10.6627
10.4421
10.2266
10.0144
9.8044
9.59608
9.38895
9.18301
8.97836
8.77547
13.7856
13.473
13.0618
12.6714
12.3201
11.9955
11.6889
11.4021
11.1382
10.8949
10.6661
10.446
10.2308
10.0187
9.80866
9.60011
9.39258
9.18606
8.98066
8.77686
13.7419
13.4539
13.0569
12.6707
12.3204
11.9976
11.6935
11.4084
11.1452
10.9023
10.6742
10.4549
10.2403
10.0284
9.81822
9.60908
9.40061
9.19277
8.9857
8.77993
13.6898
13.4164
13.0341
12.6576
12.3129
11.994
11.6933
11.4111
11.1501
10.9089
10.6821
10.4638
10.2499
10.0384
9.82802
9.61818
9.40845
9.19882
8.98952
8.78112
13.6648
13.3992
13.0255
12.6551
12.3146
11.9987
11.7006
11.4209
11.1619
10.9223
10.6965
10.479
10.2655
10.0539
9.84274
9.63158
9.41993
9.20774
8.99525
8.78315
13.6494
13.3872
13.018
12.6519
12.3151
12.0024
11.7072
11.4303
11.1739
10.9365
10.7127
10.4965
10.2837
10.0721
9.86028
9.6476
9.43351
9.21802
9.00142
8.78457
13.6426
13.3827
13.017
12.6547
12.3214
12.012
11.7196
11.4453
11.1914
10.9563
10.7343
10.5194
10.3074
10.0958
9.88314
9.66851
9.45133
9.23159
9.00965
8.78657
13.6424
13.3843
13.0207
12.6612
12.3308
12.0243
11.7349
11.4636
11.2125
10.98
10.7603
10.5473
10.3363
10.1249
9.91123
9.69435
9.47349
9.24857
9.02001
8.7891
13.6471
13.3908
13.0289
12.6717
12.3439
12.0406
11.7543
11.4862
11.2383
11.009
10.7921
10.5813
10.3719
10.1609
9.94644
9.72713
9.50198
9.27075
9.03391
8.79295
13.6556
13.4019
13.0408
12.6859
12.3606
12.0605
11.7775
11.5132
11.2688
11.0434
10.8298
10.6222
10.4148
10.205
9.99002
9.76828
9.53832
9.29959
9.05249
8.79875
13.6667
13.4172
13.0557
12.7033
12.3801
12.0841
11.8041
11.5443
11.3039
11.0837
10.874
10.6708
10.4663
10.2588
10.0439
9.82016
9.58497
9.33742
9.07776
8.80759
13.6794
13.4362
13.0724
12.7231
12.4021
12.1111
11.8335
11.5796
11.3431
11.1302
10.9246
10.7283
10.5271
10.3246
10.1102
9.88597
9.64496
9.38727
9.11212
8.82053
13.693
13.4582
13.0899
12.7445
12.4256
12.1414
11.8648
11.6188
11.3857
11.1833
10.9812
10.796
10.5973
10.4051
10.1903
9.97068
9.72204
9.45446
9.15898
8.83838
13.7069
13.4816
13.1076
12.7667
12.4498
12.1736
11.8969
11.6611
11.4306
11.2424
11.0426
10.8741
10.6762
10.503
10.284
10.0808
9.81743
9.54979
9.22204
8.86318
13.7211
13.5033
13.1244
12.7888
12.4741
12.2055
11.9291
11.7045
11.477
11.3048
11.1078
10.9608
10.7635
10.6186
10.3912
10.2208
9.92738
9.68793
9.29885
8.9096
13.735
13.521
13.1395
12.8085
12.4963
12.2348
11.96
11.7461
11.523
11.3667
11.1755
11.0512
10.8597
10.747
10.5152
10.3886
10.0516
9.86581
9.35888
8.99807
13.7495
13.5305
13.1533
12.8233
12.5155
12.2571
11.9896
11.7806
11.568
11.4206
11.2457
11.1356
10.9669
10.8763
10.6683
10.5726
10.2255
10.0686
9.39598
9.10048
13.7709
13.5266
13.167
12.8328
12.5345
12.2699
12.019
11.8054
11.6137
11.4639
11.3196
11.2116
11.0856
11.0031
10.8511
10.7703
10.4629
10.3433
9.42317
9.26081
13.7986
13.514
13.1767
12.8405
12.555
12.2819
12.0451
11.8272
11.656
11.5047
11.3882
11.2846
11.1997
11.1244
11.0296
10.9333
10.6665
10.4427
9.61224
9.26769
13.8221
13.4937
13.1749
12.8449
12.5763
12.2867
12.0675
11.8368
11.6959
11.5264
11.4559
11.3264
11.3255
11.2053
11.2855
11.0539
11.1969
10.2492
10.0416
5.69914
13.9811
13.542
13.0803
12.679
12.3268
11.998
11.6869
11.3983
11.1344
10.8915
10.6627
10.4421
10.2266
10.0144
9.8044
9.59608
9.38895
9.18301
8.97836
8.77547
13.7856
13.473
13.0618
12.6714
12.3201
11.9955
11.6889
11.4021
11.1382
10.8949
10.6661
10.446
10.2308
10.0187
9.80866
9.60011
9.39258
9.18606
8.98066
8.77686
13.7419
13.4539
13.0569
12.6707
12.3204
11.9976
11.6935
11.4084
11.1452
10.9023
10.6742
10.4549
10.2403
10.0284
9.81822
9.60908
9.40061
9.19277
8.9857
8.77993
13.6898
13.4164
13.0341
12.6576
12.3129
11.994
11.6933
11.4111
11.1501
10.9089
10.6821
10.4638
10.2499
10.0384
9.82802
9.61818
9.40845
9.19882
8.98952
8.78112
13.6648
13.3992
13.0255
12.6551
12.3146
11.9987
11.7006
11.4209
11.1619
10.9223
10.6965
10.479
10.2655
10.0539
9.84274
9.63158
9.41993
9.20774
8.99525
8.78315
13.6494
13.3872
13.018
12.6519
12.3151
12.0024
11.7072
11.4303
11.1739
10.9365
10.7127
10.4965
10.2837
10.0721
9.86028
9.6476
9.43351
9.21802
9.00142
8.78457
13.6426
13.3827
13.017
12.6547
12.3214
12.012
11.7196
11.4453
11.1914
10.9563
10.7343
10.5194
10.3074
10.0958
9.88314
9.66851
9.45133
9.23159
9.00965
8.78657
13.6424
13.3843
13.0207
12.6612
12.3308
12.0243
11.7349
11.4636
11.2125
10.98
10.7603
10.5473
10.3363
10.1249
9.91123
9.69435
9.47349
9.24857
9.02001
8.7891
13.6471
13.3908
13.0289
12.6717
12.3439
12.0406
11.7543
11.4862
11.2383
11.009
10.7921
10.5813
10.3719
10.1609
9.94644
9.72713
9.50198
9.27075
9.03391
8.79295
13.6556
13.4019
13.0408
12.6859
12.3606
12.0605
11.7775
11.5132
11.2688
11.0434
10.8298
10.6222
10.4148
10.205
9.99002
9.76828
9.53832
9.29959
9.05249
8.79875
13.6667
13.4172
13.0557
12.7033
12.3801
12.0841
11.8041
11.5443
11.3039
11.0837
10.874
10.6708
10.4663
10.2588
10.0439
9.82016
9.58497
9.33742
9.07776
8.80759
13.6794
13.4362
13.0724
12.7231
12.4021
12.1111
11.8335
11.5796
11.3431
11.1302
10.9246
10.7283
10.5271
10.3246
10.1102
9.88597
9.64496
9.38727
9.11212
8.82053
13.693
13.4582
13.0899
12.7445
12.4256
12.1414
11.8648
11.6188
11.3857
11.1833
10.9812
10.796
10.5973
10.4051
10.1903
9.97068
9.72204
9.45446
9.15898
8.83838
13.7069
13.4816
13.1076
12.7667
12.4498
12.1736
11.8969
11.6611
11.4306
11.2424
11.0426
10.8741
10.6762
10.503
10.284
10.0808
9.81743
9.54979
9.22204
8.86318
13.7211
13.5033
13.1244
12.7888
12.4741
12.2055
11.9291
11.7045
11.477
11.3048
11.1078
10.9608
10.7635
10.6186
10.3912
10.2208
9.92738
9.68793
9.29885
8.9096
13.735
13.521
13.1395
12.8085
12.4963
12.2348
11.96
11.7461
11.523
11.3667
11.1755
11.0512
10.8597
10.747
10.5152
10.3886
10.0516
9.8658
9.35887
8.99807
13.7495
13.5305
13.1533
12.8233
12.5155
12.2571
11.9896
11.7806
11.568
11.4206
11.2457
11.1356
10.9669
10.8763
10.6683
10.5726
10.2255
10.0686
9.39597
9.10047
13.7709
13.5266
13.167
12.8328
12.5345
12.2699
12.019
11.8054
11.6137
11.4639
11.3196
11.2116
11.0856
11.0031
10.8511
10.7703
10.4629
10.3433
9.42312
9.26079
13.7986
13.514
13.1767
12.8405
12.555
12.2819
12.0451
11.8272
11.656
11.5047
11.3882
11.2846
11.1997
11.1244
11.0295
10.9333
10.6664
10.4426
9.61179
9.26762
13.8221
13.4937
13.1749
12.8449
12.5763
12.2867
12.0675
11.8368
11.6959
11.5264
11.4559
11.3264
11.3255
11.2053
11.2855
11.0539
11.1969
10.2489
10.0355
5.69887
14.0197
13.5498
13.078
12.6764
12.3234
11.9928
11.6812
11.3936
11.1312
10.8893
10.661
10.4408
10.2256
10.0136
9.80388
9.59566
9.3886
9.18271
8.9781
8.77523
13.8237
13.4808
13.0581
12.6672
12.3161
11.99
11.6826
11.3965
11.1339
10.8916
10.6635
10.4438
10.229
10.0173
9.80757
9.5992
9.3918
9.18537
8.98004
8.7763
13.7799
13.4616
13.0529
12.6663
12.3163
11.9921
11.6871
11.4026
11.1407
10.899
10.6716
10.4527
10.2385
10.027
9.81704
9.60808
9.39974
9.19199
8.985
8.77929
13.7279
13.4242
13.0301
12.6531
12.3087
11.9885
11.6868
11.4053
11.1456
10.9055
10.6794
10.4615
10.2481
10.0369
9.82681
9.61715
9.40755
9.19802
8.9888
8.78047
13.7029
13.4072
13.0215
12.6506
12.3103
11.9931
11.6941
11.4149
11.1573
10.9188
10.6938
10.4767
10.2637
10.0523
9.84152
9.63055
9.41903
9.20693
8.99451
8.78248
13.6875
13.3952
13.014
12.6473
12.3108
11.9968
11.7008
11.4244
11.1693
10.9331
10.71
10.4942
10.2818
10.0706
9.85906
9.64656
9.4326
9.21719
9.00067
8.78388
13.6807
13.3907
13.013
12.6501
12.3172
12.0064
11.7131
11.4393
11.1868
10.9528
10.7315
10.5172
10.3056
10.0943
9.8819
9.66746
9.4504
9.23075
9.00888
8.78586
13.6806
13.3923
13.0168
12.6567
12.3266
12.0187
11.7284
11.4576
11.2079
10.9766
10.7576
10.545
10.3344
10.1234
9.90999
9.6933
9.47256
9.24772
9.01923
8.78837
13.6853
13.3989
13.025
12.6672
12.3398
12.035
11.7478
11.4803
11.2338
11.0056
10.7894
10.5791
10.37
10.1594
9.94521
9.72608
9.50104
9.2699
9.03312
8.7922
13.6938
13.41
13.037
12.6814
12.3564
12.055
11.771
11.5072
11.2643
11.04
10.8271
10.6199
10.413
10.2035
9.98879
9.76726
9.53739
9.29874
9.0517
8.79798
13.7049
13.4252
13.0519
12.6987
12.376
12.0785
11.7976
11.5384
11.2993
11.0802
10.8712
10.6686
10.4644
10.2574
10.0427
9.81922
9.58405
9.33665
9.07701
8.80682
13.7176
13.4442
13.0688
12.7185
12.3979
12.1054
11.8272
11.5737
11.3387
11.1267
10.9219
10.7261
10.5253
10.3232
10.1089
9.88522
9.64401
9.38683
9.11151
8.81994
13.7311
13.4663
13.0866
12.7398
12.4215
12.1354
11.8586
11.6128
11.3815
11.1796
10.9787
10.7935
10.5957
10.4036
10.189
9.97016
9.72091
9.45498
9.15846
8.83868
13.745
13.4896
13.1043
12.7622
12.4458
12.1672
11.8909
11.6551
11.4268
11.2383
11.0406
10.8711
10.6753
10.5009
10.2834
10.0801
9.81639
9.55259
9.22123
8.86665
13.7589
13.5114
13.1211
12.7845
12.47
12.199
11.9233
11.6984
11.4735
11.3004
11.1064
10.957
10.7638
10.6151
10.3924
10.2182
9.92831
9.69173
9.29771
8.92339
13.7725
13.5294
13.136
12.8047
12.492
12.2284
11.9539
11.7403
11.5193
11.3622
11.1741
11.0472
10.8606
10.7423
10.5187
10.3825
10.0572
9.86693
9.36318
9.02756
13.7866
13.5394
13.1491
12.82
12.5111
12.2512
11.9826
11.7753
11.5636
11.4169
11.2433
11.1324
10.9669
10.8719
10.6723
10.5647
10.2359
10.0628
9.41002
9.14269
13.8075
13.537
13.1619
12.8296
12.5297
12.2654
12.0109
11.8009
11.6076
11.4617
11.3145
11.2097
11.0818
11.0002
10.8508
10.7642
10.4732
10.3292
9.44144
9.28211
13.8341
13.5248
13.1711
12.838
12.5489
12.277
12.036
11.8221
11.6479
11.5005
11.3801
11.2792
11.1908
11.1185
11.0215
10.933
10.6715
10.4513
9.62143
9.15492
13.8593
13.501
13.1725
12.8406
12.5722
12.2786
12.0616
11.8288
11.6919
11.5193
11.4527
11.3198
11.3213
11.2029
11.2761
11.0701
11.1537
10.295
9.80531
5.68905
14.0996
13.566
13.0757
12.6736
12.3172
11.9829
11.671
11.3857
11.1259
10.8855
10.6581
10.4385
10.2239
10.0124
9.80298
9.59497
9.38805
9.18225
8.97772
8.7749
13.9027
13.497
13.0538
12.6613
12.309
11.9796
11.6711
11.3868
11.1267
10.8862
10.659
10.4401
10.2261
10.015
9.8057
9.59766
9.39048
9.18422
8.97904
8.77542
13.8587
13.4779
13.0479
12.6597
12.3091
11.9817
11.6754
11.3926
11.1333
10.8935
10.6671
10.4489
10.2354
10.0245
9.81498
9.60634
9.39823
9.19067
8.98381
8.77823
13.8068
13.4407
13.0251
12.6463
12.3013
11.9781
11.6751
11.3951
11.138
10.8998
10.6748
10.4577
10.2449
10.0343
9.8247
9.61537
9.40599
9.19662
8.98757
8.77936
13.7818
13.4238
13.0164
12.6437
12.3028
11.9826
11.6823
11.4047
11.1496
10.913
10.6891
10.4728
10.2604
10.0497
9.83939
9.62876
9.41746
9.20552
8.99324
8.78133
13.7665
13.4119
13.0089
12.6406
12.3033
11.9863
11.689
11.4142
11.1617
10.9274
10.7053
10.4903
10.2786
10.068
9.85693
9.64475
9.43101
9.21576
8.99937
8.78269
13.7598
13.4075
13.008
12.6434
12.3097
11.9958
11.7013
11.4291
11.1791
10.9471
10.7268
10.5132
10.3023
10.0917
9.87975
9.66562
9.44879
9.22929
9.00756
8.78464
13.7598
13.4091
13.0119
12.6499
12.3191
12.0082
11.7166
11.4474
11.2003
10.9708
10.7529
10.5411
10.3312
10.1208
9.90785
9.69147
9.47094
9.24626
9.0179
8.78712
13.7645
13.4157
13.0202
12.6605
12.3323
12.0245
11.736
11.4701
11.2261
10.9998
10.7847
10.5752
10.3668
10.1568
9.94306
9.72426
9.49942
9.26843
9.03176
8.79092
13.773
13.4269
13.0323
12.6748
12.349
12.0444
11.7592
11.497
11.2566
11.0342
10.8224
10.616
10.4098
10.201
9.98666
9.76549
9.53577
9.2973
9.05035
8.79666
13.7841
13.4421
13.0474
12.6921
12.3686
12.0679
11.7859
11.5282
11.2918
11.0744
10.8666
10.6647
10.4612
10.2549
10.0405
9.8176
9.58245
9.33537
9.07571
8.80551
13.7967
13.4611
13.0646
12.7119
12.3906
12.0945
11.8156
11.5635
11.3313
11.1207
10.9174
10.7221
10.5222
10.3208
10.1067
9.8839
9.64233
9.38618
9.11037
8.81904
13.8101
13.4831
13.0827
12.7335
12.4142
12.124
11.8473
11.6025
11.3745
11.1732
10.9745
10.7892
10.5931
10.401
10.187
9.96913
9.7189
9.45597
9.15731
8.83961
13.8236
13.5064
13.1007
12.7562
12.4386
12.1553
11.8799
11.6446
11.4203
11.2312
11.0371
10.8659
10.6739
10.4972
10.2828
10.0784
9.81482
9.5565
9.21926
8.87417
13.8371
13.5286
13.1175
12.7788
12.4626
12.1867
11.9125
11.6878
11.4674
11.2927
11.1039
10.9507
10.7642
10.6092
10.3948
10.2136
9.93059
9.6968
9.29577
8.94951
13.8499
13.5472
13.1319
12.7995
12.4842
12.2161
11.9428
11.7299
11.513
11.3546
11.1716
11.0402
10.862
10.7341
10.5246
10.3726
10.0679
9.86883
9.37241
9.08264
13.8635
13.5581
13.144
12.8158
12.503
12.2399
11.9705
11.766
11.556
11.4108
11.239
11.1271
10.9667
10.8641
10.6788
10.5511
10.2526
10.0535
9.43353
9.22092
13.8838
13.5581
13.1552
12.827
12.5214
12.2571
11.9973
11.7945
11.598
11.4592
11.307
11.2088
11.077
10.9994
10.8531
10.7581
10.4944
10.304
9.45324
9.35793
13.9085
13.5475
13.1645
12.8353
12.5397
12.2694
12.023
11.8157
11.6385
11.497
11.3729
11.2772
11.1848
11.1189
11.0199
10.9445
10.6995
10.4822
9.65031
9.03801
13.9371
13.5175
13.1713
12.8353
12.566
12.2659
12.0528
11.8176
11.6875
11.5103
11.4519
11.3125
11.3226
11.2014
11.2745
11.0999
11.1011
10.3889
9.40003
5.67625
14.204
13.5738
13.0641
12.6664
12.3052
11.9669
11.6562
11.3752
11.1193
10.8812
10.6551
10.4365
10.2226
10.0116
9.80248
9.59461
9.38777
9.18203
8.97755
8.77475
14.0045
13.5019
13.0388
12.65
12.2953
11.9621
11.6537
11.373
11.117
10.8794
10.654
10.4363
10.2233
10.0131
9.80436
9.59665
9.38967
9.18353
8.97844
8.77487
13.9603
13.4827
13.0321
12.6474
12.2951
11.9641
11.6577
11.3784
11.1234
10.8866
10.6619
10.4449
10.2324
10.0223
9.81338
9.60507
9.39717
9.18975
8.98302
8.77752
13.9085
13.4459
13.0093
12.6338
12.2872
11.9605
11.6574
11.3808
11.1279
10.8927
10.6695
10.4537
10.2419
10.0321
9.82304
9.61409
9.40495
9.19573
8.98674
8.77857
13.8838
13.4292
13.0006
12.631
12.2886
11.9649
11.6646
11.3903
11.1394
10.9058
10.6838
10.4687
10.2573
10.0474
9.83772
9.62747
9.41637
9.20455
8.99236
8.7805
13.8685
13.4175
12.9933
12.628
12.2891
11.9687
11.6713
11.3999
11.1516
10.9203
10.7
10.4862
10.2755
10.0657
9.85526
9.64344
9.4299
9.21477
8.99847
8.78183
13.8619
13.4132
12.9925
12.6309
12.2955
11.9781
11.6835
11.4148
11.169
10.9399
10.7216
10.5092
10.2993
10.0894
9.87808
9.6643
9.44766
9.22828
9.00664
8.78375
13.8619
13.4149
12.9964
12.6376
12.305
11.9905
11.6989
11.4331
11.1902
10.9638
10.7477
10.5371
10.3282
10.1185
9.90619
9.69016
9.46982
9.24524
9.01695
8.78619
13.8667
13.4216
13.0048
12.6482
12.3183
12.0068
11.7183
11.4558
11.216
10.9928
10.7795
10.5712
10.3638
10.1546
9.94142
9.72296
9.4983
9.26741
9.0308
8.78995
13.8752
13.4327
13.0171
12.6626
12.335
12.0268
11.7415
11.4828
11.2466
11.0272
10.8172
10.6121
10.4068
10.1988
9.98504
9.76425
9.53466
9.29632
9.04938
8.79565
13.8864
13.4477
13.0325
12.68
12.3548
12.0502
11.7683
11.514
11.2818
11.0674
10.8614
10.6607
10.4583
10.2529
10.039
9.8165
9.58135
9.33459
9.07474
8.80456
13.899
13.4664
13.05
12.7
12.3769
12.0766
11.7982
11.5492
11.3214
11.1135
10.9124
10.7181
10.5194
10.3187
10.1052
9.883
9.64128
9.38608
9.10939
8.81863
13.9123
13.4879
13.0687
12.7218
12.4007
12.1055
11.8302
11.5882
11.365
11.1656
10.9698
10.7848
10.5909
10.3985
10.1861
9.96816
9.71811
9.4574
9.15617
8.84184
13.9256
13.5108
13.0874
12.7446
12.4251
12.1361
11.8633
11.6299
11.4114
11.2229
11.0331
10.8608
10.6729
10.4937
10.2837
10.0763
9.81612
9.55939
9.21837
8.88569
13.9387
13.5329
13.1048
12.7673
12.449
12.1668
11.8962
11.6729
11.459
11.2838
11.1004
10.9448
10.7648
10.6042
10.3991
10.2086
9.93796
9.69923
9.30073
8.98253
13.9514
13.5517
13.1195
12.7883
12.4705
12.1959
11.9264
11.7149
11.5044
11.3453
11.1681
11.0338
10.8631
10.7276
10.5324
10.3632
10.0852
9.86687
9.40004
9.14889
13.9652
13.5633
13.1312
12.8057
12.4892
12.2206
11.9535
11.752
11.5465
11.4025
11.2342
11.1217
10.9661
10.8587
10.6851
10.5379
10.2747
10.0395
9.49063
9.31238
13.9849
13.565
13.1409
12.8185
12.5074
12.2401
11.9794
11.7829
11.5877
11.454
11.3008
11.2083
11.0746
11.0008
10.8589
10.7544
10.526
10.2684
9.5312
9.38978
14.0075
13.5569
13.1496
12.827
12.5259
12.2541
12.0061
11.8052
11.6295
11.4933
11.3697
11.2779
11.1888
11.124
11.0406
10.9601
10.7733
10.5079
9.73542
8.74951
14.0351
13.5272
13.1604
12.8257
12.5522
12.2487
12.039
11.8057
11.6815
11.5037
11.4526
11.3095
11.3305
11.2026
11.2947
11.1281
11.1683
10.449
9.24971
6.10416
14.4615
13.6105
13.0678
12.6673
12.2985
11.9558
11.6457
11.3671
11.1131
10.8765
10.6515
10.4339
10.2207
10.0103
9.80149
9.59387
9.3872
9.18156
8.97714
8.77436
14.2609
13.5347
13.0353
12.6477
12.2876
11.9501
11.6419
11.3634
11.1095
10.8733
10.6491
10.4325
10.2204
10.0108
9.80259
9.59522
9.38848
9.18251
8.97755
8.77405
14.2168
13.5153
13.0277
12.6444
12.2871
11.9519
11.6457
11.3687
11.1158
10.8805
10.657
10.4409
10.2292
10.0198
9.8113
9.60336
9.39573
9.18851
8.98195
8.77656
14.1656
13.4791
13.0051
12.6308
12.2794
11.9484
11.6454
11.371
11.1202
10.8866
10.6646
10.4497
10.2388
10.0296
9.82105
9.61242
9.40354
9.1945
8.98567
8.77761
14.141
13.4626
12.9965
12.6279
12.2806
11.9527
11.6525
11.3805
11.1316
10.8996
10.6788
10.4647
10.2542
10.0449
9.8357
9.62578