x,y,z,U_0,U_1,U_2
0,0,0,0.3,-7.81834e-05,0
0,0.1,0,0.3,-5.58453e-05,0
0,0.2,0,0.3,-3.35072e-05,0
0,0.3,0,0.3,-1.11691e-05,0
0,0.4,0,0.3,0,0
0,0.5,0,0.3,0,0
0,0.6,0,0.3,0,0
0,0.7,0,0.3,0,0
0,0.8,0,0.3,0,0
0,0.9,0,0.3,0,0
0,1,0,0.3,0,0
0,1.1,0,0.3,0,0
0,1.2,0,0.3,0,0
0,1.3,0,0.3,0,0
0,1.4,0,0.3,0,0
0,1.5,0,0.3,0,0
0,1.6,0,0.3,0,0
0,1.7,0,0.3,0,0
0,1.8,0,0.3,0,0
0,1.9,0,0.3,0,0
0,2,0,0.3,0,0
0,2.1,0,0.3,0,0
0,2.2,0,0.3,0,0
0,2.3,0,0.3,0,0
0,2.4,0,0.3,0,0
0,2.5,0,0.3,0,0
0,2.6,0,0.3,0,0
0,2.7,0,0.3,0,0
0,2.8,0,0.3,0,0
0,2.9,0,0.3,0,0
0,3,0,0.3,0,0
0,3.1,0,0.3,0,0
0,3.2,0,0.3,0,0
0,3.3,0,0.3,0,0
0,3.4,0,0.3,0,0
0,3.5,0,0.3,0,0
0,3.6,0,0.3,0,0
0,3.7,0,0.3,0,0
0,3.8,0,0.3,0,0
0,3.9,0,0.3,0,0
0,4,0,0.3,0,0
0,4.1,0,0.3,0,0
0,4.2,0,0.3,0,0
0,4.3,0,0.3,0,0
0,4.4,0,0.3,0,0
0,4.5,0,0.3,0,0
0,4.6,0,0.3,0,0
0,4.7,0,0.3,0,0
0,4.8,0,0.3,0,0
0,4.9,0,0.3,0,0
0,5,0,0.3,0,0
0,5.1,0,0.3,0,0
0,5.2,0,0.3,0,0
0,5.3,0,0.3,0,0
0,5.4,0,0.3,0,0
0,5.5,0,0.3,0,0
0,5.6,0,0.3,0,0
0,5.7,0,0.3,0,0
0,5.8,0,0.3,0,0
0,5.9,0,0.3,0,0
0,6,0,0.3,0,0
0,6.1,0,0.3,0,0
0,6.2,0,0.3,0,0
0,6.3,0,0.3,0,0
0,6.4,0,0.3,0,0
0,6.5,0,0.3,0,0
0,6.6,0,0.3,0,0
0,6.7,0,0.3,0,0
0,6.8,0,0.3,0,0
0,6.9,0,0.3,0,0
0,7,0,0.3,0,0
0,7.1,0,0.3,0,0
0,7.2,0,0.3,0,0
0,7.3,0,0.3,0,0
0,7.4,0,0.3,0,0
0,7.5,0,0.3,0,0
0,7.6,0,0.3,0,0
0,7.7,0,0.3,0,0
0,7.8,0,0.3,0,0
0,7.9,0,0.3,0,0
0,8,0,0.3,0,0
0,8.1,0,0.3,0,0
0,8.2,0,0.3,0,0
0,8.3,0,0.3,0,0
0,8.4,0,0.3,0,0
0,8.5,0,0.3,0,0
0,8.6,0,0.3,0,0
0,8.7,0,0.3,0,0
0,8.8,0,0.3,0,0
0,8.9,0,0.3,0,0
0,9,0,0.3,0,0
0,9.1,0,0.3,0,0
0,9.2,0,0.3,0,0
0,9.3,0,0.3,0,0
0,9.4,0,0.3,0,0
0,9.5,0,0.3,0,0
0,9.6,0,0.3,0,0
0,9.7,0,0.3,0,0
0,9.8,0,0.3,0,0
0,9.9,0,0.3,0,0
0,10,0,0.3,0,0
0,10.1,0,0.3,0,0
0,10.2,0,0.3,0,0
0,10.3,0,0.3,0,0
0,10.4,0,0.3,0,0
0,10.5,0,0.3,0,0
0,10.6,0,0.3,0,0
0,10.7,0,0.3,0,0
0,10.8,0,0.3,0,0
0,10.9,0,0.3,0,0
0,11,0,0.3,0,0
0,11.1,0,0.3,0,0
0,11.2,0,0.3,0,0
0,11.3,0,0.3,0,0
0,11.4,0,0.3,0,0
0,11.5,0,0.3,0,0
0,11.6,0,0.3,0,0
0,11.7,0,0.3,0,0
0,11.8,0,0.3,0,0
0,11.9,0,0.3,0,0
0,12,0,0.3,0,0
0,12.1,0,0.3,0,0
0,12.2,0,0.3,0,0
0,12.3,0,0.3,0,0
0,12.4,0,0.3,0,0
0,12.5,0,0.3,2.81624e-06,0
0,12.6,0,0.299998,1.08626e-05,0
0,12.7,0,0.299997,1.8909e-05,0
0.1,0,0,0.3,-0.000118299,0
0.1,0.1,0,0.3,-9.08678e-05,0
0.1,0.2,0,0.3,-6.85297e-05,0
0.1,0.3,0,0.3,-4.61915e-05,0
0.1,0.4,0,0.3,-4.45456e-05,0
0.1,0.5,0,0.3,-4.45456e-05,0
0.1,0.6,0,0.3,-4.45456e-05,0
0.1,0.7,0,0.299999,-4.9953e-05,0
0.1,0.8,0,0.299999,-4.28536e-05,0
0.1,0.9,0,0.299999,-4.28536e-05,0
0.1,1,0,0.299999,-4.28536e-05,0
0.1,1.1,0,0.299999,-4.03205e-05,0
0.1,1.2,0,0.299999,-4.03205e-05,0
0.1,1.3,0,0.299999,-4.03205e-05,0
0.1,1.4,0,0.299998,-4.82369e-05,0
0.1,1.5,0,0.299998,-3.69669e-05,0
0.1,1.6,0,0.299998,-3.69669e-05,0
0.1,1.7,0,0.299998,-3.69669e-05,0
0.1,1.8,0,0.299998,-3.2836e-05,0
0.1,1.9,0,0.299998,-3.2836e-05,0
0.1,2,0,0.299998,-3.2836e-05,0
0.1,2.1,0,0.299997,-4.54987e-05,0
0.1,2.2,0,0.299997,-2.80072e-05,0
0.1,2.3,0,0.299997,-2.80072e-05,0
0.1,2.4,0,0.299997,-2.80072e-05,0
0.1,2.5,0,0.299997,-2.26131e-05,0
0.1,2.6,0,0.299997,-2.26131e-05,0
0.1,2.7,0,0.299997,-2.26131e-05,0
0.1,2.8,0,0.299996,-4.18182e-05,0
0.1,2.9,0,0.299996,-1.68531e-05,0
0.1,3,0,0.299996,-1.68531e-05,0
0.1,3.1,0,0.299996,-1.68531e-05,0
0.1,3.2,0,0.299995,-1.1003e-05,0
0.1,3.3,0,0.299995,-1.1003e-05,0
0.1,3.4,0,0.299995,-1.1003e-05,0
0.1,3.5,0,0.299996,-3.71752e-05,0
0.1,3.6,0,0.299995,-5.4244e-06,0
0.1,3.7,0,0.299995,-5.4244e-06,0
0.1,3.8,0,0.299995,-5.4244e-06,0
0.1,3.9,0,0.299994,-5.60123e-07,0
0.1,4,0,0.299994,-5.60123e-07,0
0.1,4.1,0,0.299994,-5.60123e-07,0
0.1,4.2,0,0.299996,-3.13546e-05,0
0.1,4.3,0,0.299994,3.11309e-06,0
0.1,4.4,0,0.299994,3.11309e-06,0
0.1,4.5,0,0.299994,3.11309e-06,0
0.1,4.6,0,0.299994,5.08304e-06,0
0.1,4.7,0,0.299994,5.08304e-06,0
0.1,4.8,0,0.299994,5.08304e-06,0
0.1,4.9,0,0.299998,-2.38484e-05,0
0.1,5,0,0.299998,4.97256e-06,0
0.1,5.1,0,0.299998,4.97256e-06,0
0.1,5.2,0,0.299998,4.97256e-06,0
0.1,5.3,0,0.300005,2.7468e-06,0
0.1,5.4,0,0.300005,2.7468e-06,0
0.1,5.5,0,0.300005,2.7468e-06,0
0.1,5.6,0,0.299998,-1.41564e-05,0
0.1,5.7,0,0.300019,-1.02389e-06,0
0.1,5.8,0,0.300019,-1.02389e-06,0
0.1,5.9,0,0.300019,-1.02389e-06,0
0.1,6,0,0.30004,-5.31979e-06,0
0.1,6.1,0,0.30004,-5.31979e-06,0
0.1,6.2,0,0.30004,-5.31979e-06,0
0.1,6.3,0,0.299995,-2.45215e-06,0
0.1,6.4,0,0.300066,-8.30776e-06,0
0.1,6.5,0,0.300066,-8.30776e-06,0
0.1,6.6,0,0.300066,-8.30776e-06,0
0.1,6.7,0,0.300092,-1.03087e-05,0
0.1,6.8,0,0.300092,-1.03087e-05,0
0.1,6.9,0,0.300092,-1.03087e-05,0
0.1,7,0,0.299989,8.56127e-06,0
0.1,7.1,0,0.299988,1.04072e-05,0
0.1,7.2,0,0.299988,1.13642e-05,0
0.1,7.3,0,0.299987,1.23009e-05,0
0.1,7.4,0,0.299987,1.32468e-05,0
0.1,7.5,0,0.299987,1.41953e-05,0
0.1,7.6,0,0.299987,1.5143e-05,0
0.1,7.7,0,0.299987,1.60885e-05,0
0.1,7.8,0,0.299988,1.70292e-05,0
0.1,7.9,0,0.299988,1.79844e-05,0
0.1,8,0,0.299989,1.94019e-05,0
0.1,8.1,0,0.300093,2.50965e-05,0
0.1,8.2,0,0.300093,2.50965e-05,0
0.1,8.3,0,0.300075,2.71357e-05,0
0.1,8.4,0,0.300075,2.71357e-05,0
0.1,8.5,0,0.300052,2.76338e-05,0
0.1,8.6,0,0.300055,2.77339e-05,0
0.1,8.7,0,0.300005,2.85881e-05,0
0.1,8.8,0,0.300035,2.70421e-05,0
0.1,8.9,0,0.300035,2.70421e-05,0
0.1,9,0,0.300018,2.5231e-05,0
0.1,9.1,0,0.300018,2.5231e-05,0
0.1,9.2,0,0.300003,2.52321e-05,0
0.1,9.3,0,0.300004,2.26884e-05,0
0.1,9.4,0,0.300002,3.3352e-05,0
0.1,9.5,0,0.299994,1.98347e-05,0
0.1,9.6,0,0.299994,1.98347e-05,0
0.1,9.7,0,0.299988,1.70355e-05,0
0.1,9.8,0,0.299988,1.70355e-05,0
0.1,9.9,0,0.299991,2.51727e-05,0
0.1,10,0,0.299985,1.45633e-05,0
0.1,10.1,0,0.299993,3.11085e-05,0
0.1,10.2,0,0.299985,1.25802e-05,0
0.1,10.3,0,0.299985,1.25802e-05,0
0.1,10.4,0,0.299986,1.11439e-05,0
0.1,10.5,0,0.299986,1.11439e-05,0
0.1,10.6,0,0.299994,3.11444e-05,0
0.1,10.7,0,0.299987,1.02312e-05,0
0.1,10.8,0,0.299992,2.53403e-05,0
0.1,10.9,0,0.299989,9.76709e-06,0
0.1,11,0,0.299989,9.76709e-06,0
0.1,11.1,0,0.299991,9.652e-06,0
0.1,11.2,0,0.299991,9.652e-06,0
0.1,11.3,0,0.299997,4.03163e-05,0
0.1,11.4,0,0.299993,9.78168e-06,0
0.1,11.5,0,0.299994,1.90483e-05,0
0.1,11.6,0,0.299994,1.00598e-05,0
0.1,11.7,0,0.299994,1.00598e-05,0
0.1,11.8,0,0.299996,1.04034e-05,0
0.1,11.9,0,0.299996,1.04034e-05,0
0.1,12,0,0.299999,4.96557e-05,0
0.1,12.1,0,0.299997,1.07423e-05,0
0.1,12.2,0,0.299997,1.2731e-05,0
0.1,12.3,0,0.299998,1.10163e-05,0
0.1,12.4,0,0.299998,1.10163e-05,0
0.1,12.5,0,0.299998,1.14733e-05,0
0.1,12.6,0,0.299997,1.95197e-05,0
0.1,12.7,0,0.299998,7.42023e-05,0
0.2,0,0,0.299999,-0.000158415,0
0.2,0.1,0,0.3,-0.00012589,0
0.2,0.2,0,0.3,-0.000103552,0
0.2,0.3,0,0.299999,-9.54864e-05,0
0.2,0.4,0,0.299999,-9.45207e-05,0
0.2,0.5,0,0.299999,-8.90912e-05,0
0.2,0.6,0,0.299999,-8.90912e-05,0
0.2,0.7,0,0.299998,-9.9906e-05,0
0.2,0.8,0,0.299998,-8.57072e-05,0
0.2,0.9,0,0.299998,-8.57072e-05,0
0.2,1,0,0.299998,-9.1628e-05,0
0.2,1.1,0,0.299997,-8.8914e-05,0
0.2,1.2,0,0.299998,-8.06411e-05,0
0.2,1.3,0,0.299998,-8.06411e-05,0
0.2,1.4,0,0.299995,-9.64738e-05,0
0.2,1.5,0,0.299997,-7.39339e-05,0
0.2,1.6,0,0.299997,-7.39339e-05,0
0.2,1.7,0,0.299996,-8.32403e-05,0
0.2,1.8,0,0.299995,-7.88143e-05,0
0.2,1.9,0,0.299996,-6.5672e-05,0
0.2,2,0,0.299996,-6.5672e-05,0
0.2,2.1,0,0.299993,-9.09973e-05,0
0.2,2.2,0,0.299995,-5.60144e-05,0
0.2,2.3,0,0.299995,-5.60144e-05,0
0.2,2.4,0,0.299994,-7.06551e-05,0
0.2,2.5,0,0.299993,-6.48757e-05,0
0.2,2.6,0,0.299994,-4.52262e-05,0
0.2,2.7,0,0.299994,-4.52262e-05,0
0.2,2.8,0,0.299992,-8.36364e-05,0
0.2,2.9,0,0.299992,-3.37063e-05,0
0.2,3,0,0.299992,-3.37063e-05,0
0.2,3.1,0,0.299992,-5.48512e-05,0
0.2,3.2,0,0.299991,-4.85832e-05,0
0.2,3.3,0,0.299991,-2.2006e-05,0
0.2,3.4,0,0.299991,-2.2006e-05,0
0.2,3.5,0,0.299992,-7.43503e-05,0
0.2,3.6,0,0.299989,-1.08488e-05,0
0.2,3.7,0,0.299989,-1.08488e-05,0
0.2,3.8,0,0.299991,-3.77895e-05,0
0.2,3.9,0,0.29999,-3.25778e-05,0
0.2,4,0,0.299988,-1.12025e-06,0
0.2,4.1,0,0.299988,-1.12025e-06,0
0.2,4.2,0,0.299993,-6.27093e-05,0
0.2,4.3,0,0.299988,6.22619e-06,0
0.2,4.4,0,0.299988,6.22619e-06,0
0.2,4.5,0,0.299991,-2.25257e-05,0
0.2,4.6,0,0.299991,-2.04151e-05,0
0.2,4.7,0,0.299989,1.01661e-05,0
0.2,4.8,0,0.299989,1.01661e-05,0
0.2,4.9,0,0.299995,-4.76968e-05,0
0.2,5,0,0.299995,9.94512e-06,0
0.2,5.1,0,0.299995,9.94512e-06,0
0.2,5.2,0,0.299996,-1.25862e-05,0
0.2,5.3,0,0.300004,-1.49709e-05,0
0.2,5.4,0,0.30001,5.4936e-06,0
0.2,5.5,0,0.30001,5.4936e-06,0
0.2,5.6,0,0.299996,-2.83129e-05,0
0.2,5.7,0,0.300038,-2.04778e-06,0
0.2,5.8,0,0.300038,-2.04778e-06,0
0.2,5.9,0,0.300018,-8.98193e-06,0
0.2,6,0,0.30004,-1.35847e-05,0
0.2,6.1,0,0.30008,-1.06396e-05,0
0.2,6.2,0,0.30008,-1.06396e-05,0
0.2,6.3,0,0.29999,-4.90431e-06,0
0.2,6.4,0,0.300132,-1.66155e-05,0
0.2,6.5,0,0.300132,-1.66155e-05,0
0.2,6.6,0,0.300063,-5.28188e-06,0
0.2,6.7,0,0.300091,-7.42579e-06,0
0.2,6.8,0,0.300184,-2.06175e-05,0
0.2,6.9,0,0.300184,-2.06175e-05,0
0.2,7,0,0.299979,1.71225e-05,0
0.2,7.1,0,0.299976,2.08145e-05,0
0.2,7.2,0,0.299975,2.27284e-05,0
0.2,7.3,0,0.299974,2.46018e-05,0
0.2,7.4,0,0.299974,2.64936e-05,0
0.2,7.5,0,0.299974,2.83906e-05,0
0.2,7.6,0,0.299974,3.02861e-05,0
0.2,7.7,0,0.299974,3.21771e-05,0
0.2,7.8,0,0.299975,3.40584e-05,0
0.2,7.9,0,0.299976,3.59689e-05,0
0.2,8,0,0.299979,3.88039e-05,0
0.2,8.1,0,0.300186,5.0193e-05,0
0.2,8.2,0,0.300096,4.7473e-05,0
0.2,8.3,0,0.30015,5.42715e-05,0
0.2,8.4,0,0.30015,5.42715e-05,0
0.2,8.5,0,0.300046,5.30164e-05,0
0.2,8.6,0,0.30011,5.54677e-05,0
0.2,8.7,0,0.300001,5.73384e-05,0
0.2,8.8,0,0.300071,5.40843e-05,0
0.2,8.9,0,0.300044,5.7712e-05,0
0.2,9,0,0.300035,5.1043e-05,0
0.2,9.1,0,0.300036,5.04621e-05,0
0.2,9.2,0,0.300003,6.05055e-05,0
0.2,9.3,0,0.300009,4.53767e-05,0
0.2,9.4,0,0.300002,7.17027e-05,0
0.2,9.5,0,0.299989,3.96693e-05,0
0.2,9.6,0,0.299993,5.17368e-05,0
0.2,9.7,0,0.29998,3.99928e-05,0
0.2,9.8,0,0.299977,3.40711e-05,0
0.2,9.9,0,0.299992,6.90679e-05,0
0.2,10,0,0.299971,2.91267e-05,0
0.2,10.1,0,0.299994,7.74114e-05,0
0.2,10.2,0,0.29997,2.51604e-05,0
0.2,10.3,0,0.299976,3.96624e-05,0
0.2,10.4,0,0.299977,3.73704e-05,0
0.2,10.5,0,0.299971,2.22877e-05,0
0.2,10.6,0,0.299994,8.14948e-05,0
0.2,10.7,0,0.299974,2.04623e-05,0
0.2,10.8,0,0.299991,7.73437e-05,0
0.2,10.9,0,0.299978,1.95342e-05,0
0.2,11,0,0.299981,3.02166e-05,0
0.2,11.1,0,0.299987,4.39848e-05,0
0.2,11.2,0,0.299982,1.9304e-05,0
0.2,11.3,0,0.299997,9.49458e-05,0
0.2,11.4,0,0.299986,1.95634e-05,0
0.2,11.5,0,0.299993,7.46756e-05,0
0.2,11.6,0,0.299989,2.01196e-05,0
0.2,11.7,0,0.299989,2.4066e-05,0
0.2,11.8,0,0.299994,5.41021e-05,0
0.2,11.9,0,0.299991,2.08067e-05,0
0.2,12,0,0.299998,0.0001067,0
0.2,12.1,0,0.299994,2.14845e-05,0
0.2,12.2,0,0.299996,7.02078e-05,0
0.2,12.3,0,0.299996,2.20327e-05,0
0.2,12.4,0,0.299996,2.20327e-05,0
0.2,12.5,0,0.299998,6.34617e-05,0
0.2,12.6,0,0.299996,2.81768e-05,0
0.2,12.7,0,0.299998,0.000129496,0
0.3,0,0,0.299999,-0.000198531,0
0.3,0.1,0,0.3,-0.000165279,0
0.3,0.2,0,0.3,-0.000138575,0
0.3,0.3,0,0.299999,-0.000145879,0
0.3,0.4,0,0.299999,-0.000144913,0
0.3,0.5,0,0.299999,-0.000133637,0
0.3,0.6,0,0.299998,-0.000138272,0
0.3,0.7,0,0.299996,-0.000149859,0
0.3,0.8,0,0.299997,-0.000134646,0
0.3,0.9,0,0.299998,-0.000128561,0
0.3,1,0,0.299996,-0.000140858,0
0.3,1.1,0,0.299996,-0.000138144,0
0.3,1.2,0,0.299997,-0.000120962,0
0.3,1.3,0,0.299996,-0.000127747,0
0.3,1.4,0,0.299993,-0.000144711,0
0.3,1.5,0,0.299995,-0.000120561,0
0.3,1.6,0,0.299995,-0.000110901,0
0.3,1.7,0,0.299993,-0.00013023,0
0.3,1.8,0,0.299992,-0.000125804,0
0.3,1.9,0,0.299994,-9.8508e-05,0
0.3,2,0,0.299993,-0.000109362,0
0.3,2.1,0,0.29999,-0.000136496,0
0.3,2.2,0,0.299991,-9.90143e-05,0
0.3,2.3,0,0.299992,-8.40216e-05,0
0.3,2.4,0,0.29999,-0.000114429,0
0.3,2.5,0,0.29999,-0.00010865,0
0.3,2.6,0,0.29999,-6.78394e-05,0
0.3,2.7,0,0.29999,-8.43008e-05,0
0.3,2.8,0,0.299988,-0.000125455,0
0.3,2.9,0,0.299988,-7.1958e-05,0
0.3,3,0,0.299988,-5.05594e-05,0
0.3,3.1,0,0.299988,-9.44757e-05,0
0.3,3.2,0,0.299987,-8.82077e-05,0
0.3,3.3,0,0.299986,-3.3009e-05,0
0.3,3.4,0,0.299987,-5.54423e-05,0
0.3,3.5,0,0.299988,-0.000111525,0
0.3,3.6,0,0.299985,-4.34881e-05,0
0.3,3.7,0,0.299984,-1.62732e-05,0
0.3,3.8,0,0.299987,-7.2227e-05,0
0.3,3.9,0,0.299986,-6.70153e-05,0
0.3,4,0,0.299982,-1.68037e-06,0
0.3,4.1,0,0.299984,-2.80757e-05,0
0.3,4.2,0,0.299989,-9.40639e-05,0
0.3,4.3,0,0.299984,-2.02045e-05,0
0.3,4.4,0,0.299982,9.33928e-06,0
0.3,4.5,0,0.299988,-5.03763e-05,0
0.3,4.6,0,0.299988,-4.82656e-05,0
0.3,4.7,0,0.299983,1.52491e-05,0
0.3,4.8,0,0.299986,-9.54924e-06,0
0.3,4.9,0,0.299993,-7.15451e-05,0
0.3,5,0,0.299993,-9.78599e-06,0
0.3,5.1,0,0.299993,1.49177e-05,0
0.3,5.2,0,0.299994,-3.18781e-05,0
0.3,5.3,0,0.300002,-3.42628e-05,0
0.3,5.4,0,0.300015,8.2404e-06,0
0.3,5.5,0,0.300009,-6.24809e-06,0
0.3,5.6,0,0.299994,-4.24693e-05,0
0.3,5.7,0,0.300039,-1.43281e-05,0
0.3,5.8,0,0.300057,-3.07167e-06,0
0.3,5.9,0,0.300015,-1.74734e-05,0
0.3,6,0,0.300037,-2.20761e-05,0
0.3,6.1,0,0.30012,-1.59594e-05,0
0.3,6.2,0,0.300081,-1.35014e-05,0
0.3,6.3,0,0.299985,-7.35646e-06,0
0.3,6.4,0,0.300137,-1.99042e-05,0
0.3,6.5,0,0.300198,-2.49233e-05,0
0.3,6.6,0,0.300055,-1.38417e-06,0
0.3,6.7,0,0.300083,-3.52809e-06,0
0.3,6.8,0,0.300276,-3.09262e-05,0
0.3,6.9,0,0.300188,-1.47519e-05,0
0.3,7,0,0.299968,2.56838e-05,0
0.3,7.1,0,0.299965,3.12217e-05,0
0.3,7.2,0,0.299963,3.40926e-05,0
0.3,7.3,0,0.299962,3.69027e-05,0
0.3,7.4,0,0.299961,3.97404e-05,0
0.3,7.5,0,0.29996,4.25859e-05,0
0.3,7.6,0,0.299961,4.54291e-05,0
0.3,7.7,0,0.299962,4.82656e-05,0
0.3,7.8,0,0.299963,5.10875e-05,0
0.3,7.9,0,0.299965,5.39533e-05,0
0.3,8,0,0.299968,5.82058e-05,0
0.3,8.1,0,0.300279,7.52895e-05,0
0.3,8.2,0,0.300087,6.94889e-05,0
0.3,8.3,0,0.300147,7.66687e-05,0
0.3,8.4,0,0.300162,8.00644e-05,0
0.3,8.5,0,0.300039,7.8399e-05,0
0.3,8.6,0,0.300165,8.32016e-05,0
0.3,8.7,0,0.299997,8.60887e-05,0
0.3,8.8,0,0.300106,8.11264e-05,0
0.3,8.9,0,0.300042,8.9769e-05,0
0.3,9,0,0.300033,8.31e-05,0
0.3,9.1,0,0.300043,8.17826e-05,0
0.3,9.2,0,0.300002,9.57789e-05,0
0.3,9.3,0,0.300013,6.80651e-05,0
0.3,9.4,0,0.300003,0.000110053,0
0.3,9.5,0,0.299984,6.18677e-05,0
0.3,9.6,0,0.299994,9.2974e-05,0
0.3,9.7,0,0.299981,8.12301e-05,0
0.3,9.8,0,0.29997,6.31078e-05,0
0.3,9.9,0,0.299993,0.000112963,0
0.3,10,0,0.299956,4.369e-05,0
0.3,10.1,0,0.299995,0.000123714,0
0.3,10.2,0,0.299959,4.74269e-05,0
0.3,10.3,0,0.299976,8.81159e-05,0
0.3,10.4,0,0.299978,8.58239e-05,0
0.3,10.5,0,0.299961,4.4693e-05,0
0.3,10.6,0,0.299994,0.000131845,0
0.3,10.7,0,0.299962,3.06935e-05,0
0.3,10.8,0,0.299991,0.000129347,0
0.3,10.9,0,0.299972,4.81728e-05,0
0.3,11,0,0.29998,8.3642e-05,0
0.3,11.1,0,0.299986,9.74103e-05,0
0.3,11.2,0,0.299974,3.46978e-05,0
0.3,11.3,0,0.299996,0.000149575,0
0.3,11.4,0,0.299978,2.9345e-05,0
0.3,11.5,0,0.299993,0.000130303,0
0.3,11.6,0,0.299986,5.78108e-05,0
0.3,11.7,0,0.299989,8.04953e-05,0
0.3,11.8,0,0.299993,0.000110531,0
0.3,11.9,0,0.299987,3.12101e-05,0
0.3,12,0,0.299998,0.000163744,0
0.3,12.1,0,0.29999,3.22268e-05,0
0.3,12.2,0,0.299996,0.000127685,0
0.3,12.3,0,0.299995,6.86358e-05,0
0.3,12.4,0,0.299995,7.62851e-05,0
0.3,12.5,0,0.299998,0.000121193,0
0.3,12.6,0,0.299995,3.68338e-05,0
0.3,12.7,0,0.299998,0.000184789,0
0.4,0,0,0.299999,-0.000238647,0
0.4,0.1,0,0.299999,-0.000205395,0
0.4,0.2,0,0.3,-0.000185674,0
0.4,0.3,0,0.299998,-0.000196272,0
0.4,0.4,0,0.299998,-0.000195306,0
0.4,0.5,0,0.299999,-0.000182777,0
0.4,0.6,0,0.299997,-0.000188225,0
0.4,0.7,0,0.299995,-0.000199812,0
0.4,0.8,0,0.299996,-0.000184599,0
0.4,0.9,0,0.299996,-0.000176424,0
0.4,1,0,0.299994,-0.000190088,0
0.4,1.1,0,0.299994,-0.000187374,0
0.4,1.2,0,0.299995,-0.000168282,0
0.4,1.3,0,0.299994,-0.000175984,0
0.4,1.4,0,0.299991,-0.000192948,0
0.4,1.5,0,0.299992,-0.000168798,0
0.4,1.6,0,0.299993,-0.000155742,0
0.4,1.7,0,0.29999,-0.000177219,0
0.4,1.8,0,0.29999,-0.000172793,0
0.4,1.9,0,0.299991,-0.000142464,0
0.4,2,0,0.299989,-0.00015486,0
0.4,2.1,0,0.299987,-0.000181995,0
0.4,2.2,0,0.299988,-0.000144513,0
0.4,2.3,0,0.299989,-0.000124417,0
0.4,2.4,0,0.299987,-0.000158203,0
0.4,2.5,0,0.299986,-0.000152424,0
0.4,2.6,0,0.299987,-0.000107079,0
0.4,2.7,0,0.299986,-0.000126119,0
0.4,2.8,0,0.299984,-0.000167273,0
0.4,2.9,0,0.299984,-0.000113776,0
0.4,3,0,0.299984,-8.53044e-05,0
0.4,3.1,0,0.299984,-0.0001341,0
0.4,3.2,0,0.299983,-0.000127832,0
0.4,3.3,0,0.299982,-6.65004e-05,0
0.4,3.4,0,0.299983,-9.26175e-05,0
0.4,3.5,0,0.299983,-0.000148701,0
0.4,3.6,0,0.299981,-8.06633e-05,0
0.4,3.7,0,0.29998,-4.44936e-05,0
0.4,3.8,0,0.299983,-0.000106665,0
0.4,3.9,0,0.299982,-0.000101453,0
0.4,4,0,0.299978,-2.88584e-05,0
0.4,4.1,0,0.299981,-5.94303e-05,0
0.4,4.2,0,0.299986,-0.000125419,0
0.4,4.3,0,0.29998,-5.15591e-05,0
0.4,4.4,0,0.299978,-1.18762e-05,0
0.4,4.5,0,0.299985,-7.82268e-05,0
0.4,4.6,0,0.299985,-7.61161e-05,0
0.4,4.7,0,0.29998,-5.54421e-06,0
0.4,4.8,0,0.299984,-3.33976e-05,0
0.4,4.9,0,0.299991,-9.53935e-05,0
0.4,5,0,0.299991,-3.36344e-05,0
0.4,5.1,0,0.299991,8.25297e-07,0
0.4,5.2,0,0.299992,-5.117e-05,0
0.4,5.3,0,0.3,-5.35547e-05,0
0.4,5.4,0,0.300015,-6.32893e-06,0
0.4,5.5,0,0.300007,-2.04045e-05,0
0.4,5.6,0,0.299993,-5.66257e-05,0
0.4,5.7,0,0.300037,-2.84846e-05,0
0.4,5.8,0,0.300059,-9.96292e-06,0
0.4,5.9,0,0.300012,-2.59648e-05,0
0.4,6,0,0.300034,-3.05675e-05,0
0.4,6.1,0,0.300126,-2.37712e-05,0
0.4,6.2,0,0.300076,-1.59535e-05,0
0.4,6.3,0,0.29998,-9.80861e-06,0
0.4,6.4,0,0.300132,-2.23563e-05,0
0.4,6.5,0,0.300206,-2.3641e-05,0
0.4,6.6,0,0.300047,2.51353e-06,0
0.4,6.7,0,0.300075,3.69617e-07,0
0.4,6.8,0,0.300289,-3.00728e-05,0
0.4,6.9,0,0.300177,-6.19067e-06,0
0.4,7,0,0.299958,3.42451e-05,0
0.4,7.1,0,0.299953,4.1629e-05,0
0.4,7.2,0,0.299951,4.54568e-05,0
0.4,7.3,0,0.299949,4.92036e-05,0
0.4,7.4,0,0.299948,5.29872e-05,0
0.4,7.5,0,0.299947,5.67812e-05,0
0.4,7.6,0,0.299948,6.05721e-05,0
0.4,7.7,0,0.299949,6.43542e-05,0
0.4,7.8,0,0.299951,6.81167e-05,0
0.4,7.9,0,0.299953,7.19377e-05,0
0.4,8,0,0.299957,7.76077e-05,0
0.4,8.1,0,0.300288,9.57819e-05,0
0.4,8.2,0,0.300078,9.15049e-05,0
0.4,8.3,0,0.300138,9.86847e-05,0
0.4,8.4,0,0.300156,0.000105447,0
0.4,8.5,0,0.300033,0.000103782,0
0.4,8.6,0,0.300181,0.000111595,0
0.4,8.7,0,0.299993,0.000114839,0
0.4,8.8,0,0.300104,0.000109822,0
0.4,8.9,0,0.30004,0.000121826,0
0.4,9,0,0.300031,0.000115157,0
0.4,9.1,0,0.300043,0.000117056,0
0.4,9.2,0,0.300002,0.000131052,0
0.4,9.3,0,0.300015,9.85519e-05,0
0.4,9.4,0,0.300003,0.000148404,0
0.4,9.5,0,0.299985,0.000100218,0
0.4,9.6,0,0.299995,0.000134211,0
0.4,9.7,0,0.299982,0.000122467,0
0.4,9.8,0,0.299971,0.000107003,0
0.4,9.9,0,0.299994,0.000156858,0
0.4,10,0,0.299949,7.37133e-05,0
0.4,10.1,0,0.299996,0.000170017,0
0.4,10.2,0,0.29996,9.37299e-05,0
0.4,10.3,0,0.299977,0.000136569,0
0.4,10.4,0,0.299978,0.000134277,0
0.4,10.5,0,0.299961,9.50434e-05,0
0.4,10.6,0,0.299994,0.000182196,0
0.4,10.7,0,0.299955,6.12657e-05,0
0.4,10.8,0,0.299991,0.000181351,0
0.4,10.9,0,0.299972,0.000100176,0
0.4,11,0,0.29998,0.000137068,0
0.4,11.1,0,0.299986,0.000150836,0
0.4,11.2,0,0.299973,8.93272e-05,0
0.4,11.3,0,0.299995,0.000204205,0
0.4,11.4,0,0.299974,6.15612e-05,0
0.4,11.5,0,0.299992,0.00018593,0
0.4,11.6,0,0.299986,0.000113438,0
0.4,11.7,0,0.299988,0.000136925,0
0.4,11.8,0,0.299993,0.000166961,0
0.4,11.9,0,0.299986,8.67658e-05,0
0.4,12,0,0.299997,0.000220789,0
0.4,12.1,0,0.299989,7.30161e-05,0
0.4,12.2,0,0.299996,0.000185162,0
0.4,12.3,0,0.299994,0.000126113,0
0.4,12.4,0,0.299995,0.000134016,0
0.4,12.5,0,0.299998,0.000178924,0
0.4,12.6,0,0.299995,8.31968e-05,0
0.4,12.7,0,0.299998,0.000240082,0
0.5,0,0,0.299998,-0.000278763,0
0.5,0.1,0,0.299999,-0.000245511,0
0.5,0.2,0,0.299999,-0.000239705,0
0.5,0.3,0,0.299998,-0.000246664,0
0.5,0.4,0,0.299997,-0.000245699,0
0.5,0.5,0,0.299997,-0.000237032,0
0.5,0.6,0,0.299996,-0.000238178,0
0.5,0.7,0,0.299994,-0.000249765,0
0.5,0.8,0,0.299995,-0.000234552,0
0.5,0.9,0,0.299994,-0.000230725,0
0.5,1,0,0.299992,-0.000239317,0
0.5,1.1,0,0.299992,-0.000236603,0
0.5,1.2,0,0.299993,-0.000223167,0
0.5,1.3,0,0.299991,-0.000224221,0
0.5,1.4,0,0.299989,-0.000241185,0
0.5,1.5,0,0.29999,-0.000217035,0
0.5,1.6,0,0.299989,-0.000210782,0
0.5,1.7,0,0.299987,-0.000224208,0
0.5,1.8,0,0.299987,-0.000219782,0
0.5,1.9,0,0.299987,-0.000198498,0
0.5,2,0,0.299986,-0.000200359,0
0.5,2.1,0,0.299984,-0.000227493,0
0.5,2.2,0,0.299985,-0.000190012,0
0.5,2.3,0,0.299985,-0.000180685,0
0.5,2.4,0,0.299983,-0.000201977,0
0.5,2.5,0,0.299982,-0.000196198,0
0.5,2.6,0,0.299983,-0.000164571,0
0.5,2.7,0,0.299982,-0.000167937,0
0.5,2.8,0,0.29998,-0.000209091,0
0.5,2.9,0,0.29998,-0.000155594,0
0.5,3,0,0.29998,-0.000142761,0
0.5,3.1,0,0.299979,-0.000173725,0
0.5,3.2,0,0.299979,-0.000167457,0
0.5,3.3,0,0.299978,-0.000124819,0
0.5,3.4,0,0.299978,-0.000129793,0
0.5,3.5,0,0.299979,-0.000185876,0
0.5,3.6,0,0.299977,-0.000117838,0
0.5,3.7,0,0.299977,-0.00010161,0
0.5,3.8,0,0.299979,-0.000141102,0
0.5,3.9,0,0.299978,-0.00013589,0
0.5,4,0,0.299976,-8.5292e-05,0
0.5,4.1,0,0.299977,-9.0785e-05,0
0.5,4.2,0,0.299982,-0.000156773,0
0.5,4.3,0,0.299977,-8.29138e-05,0
0.5,4.4,0,0.299977,-6.43465e-05,0
0.5,4.5,0,0.299982,-0.000106077,0
0.5,4.6,0,0.299982,-0.000103967,0
0.5,4.7,0,0.299979,-5.406e-05,0
0.5,4.8,0,0.299982,-5.7246e-05,0
0.5,4.9,0,0.299989,-0.000119242,0
0.5,5,0,0.299988,-5.74828e-05,0
0.5,5.1,0,0.299989,-3.9053e-05,0
0.5,5.2,0,0.29999,-7.04619e-05,0
0.5,5.3,0,0.299998,-7.28467e-05,0
0.5,5.4,0,0.300008,-3.76946e-05,0
0.5,5.5,0,0.300006,-3.4561e-05,0
0.5,5.6,0,0.299991,-7.07822e-05,0
0.5,5.7,0,0.300035,-4.2641e-05,0
0.5,5.8,0,0.300041,-2.78347e-05,0
0.5,5.9,0,0.300009,-3.44562e-05,0
0.5,6,0,0.300032,-3.9059e-05,0
0.5,6.1,0,0.300091,-3.02143e-05,0
0.5,6.2,0,0.300071,-1.84057e-05,0
0.5,6.3,0,0.299975,-1.22608e-05,0
0.5,6.4,0,0.300127,-2.48085e-05,0
0.5,6.5,0,0.300147,-1.55608e-05,0
0.5,6.6,0,0.300039,6.41123e-06,0
0.5,6.7,0,0.300067,4.26732e-06,0
0.5,6.8,0,0.300208,-1.26965e-05,0
0.5,6.9,0,0.300167,2.3706e-06,0
0.5,7,0,0.299947,4.28063e-05,0
0.5,7.1,0,0.299941,5.20362e-05,0
0.5,7.2,0,0.299938,5.68211e-05,0
0.5,7.3,0,0.299936,6.15045e-05,0
0.5,7.4,0,0.299935,6.6234e-05,0
0.5,7.5,0,0.299934,7.09766e-05,0
0.5,7.6,0,0.299934,7.57152e-05,0
0.5,7.7,0,0.299936,8.04427e-05,0
0.5,7.8,0,0.299938,8.51459e-05,0
0.5,7.9,0,0.299941,8.99222e-05,0
0.5,8,0,0.299946,9.70097e-05,0
0.5,8.1,0,0.300207,0.000113054,0
0.5,8.2,0,0.30007,0.000113521,0
0.5,8.3,0,0.30013,0.000120701,0
0.5,8.4,0,0.30015,0.00013083,0
0.5,8.5,0,0.300027,0.000129164,0
0.5,8.6,0,0.300125,0.000138344,0
0.5,8.7,0,0.299989,0.000143589,0
0.5,8.8,0,0.30008,0.00014124,0
0.5,8.9,0,0.300038,0.000153883,0
0.5,9,0,0.300029,0.000147214,0
0.5,9.1,0,0.300042,0.000152329,0
0.5,9.2,0,0.300002,0.000166326,0
0.5,9.3,0,0.300011,0.000149488,0
0.5,9.4,0,0.300004,0.000186755,0
0.5,9.5,0,0.299988,0.000146538,0
0.5,9.6,0,0.299996,0.000175449,0
0.5,9.7,0,0.299983,0.000163705,0
0.5,9.8,0,0.299973,0.000152185,0
0.5,9.9,0,0.299995,0.000200754,0
0.5,10,0,0.299966,0.000149348,0
0.5,10.1,0,0.299997,0.00021632,0
0.5,10.2,0,0.299964,0.000147665,0
0.5,10.3,0,0.299977,0.000185023,0
0.5,10.4,0,0.299978,0.000182731,0
0.5,10.5,0,0.299964,0.000153332,0
0.5,10.6,0,0.299994,0.000232546,0
0.5,10.7,0,0.299968,0.000153388,0
0.5,10.8,0,0.299991,0.000233354,0
0.5,10.9,0,0.299972,0.000154502,0
0.5,11,0,0.299979,0.000190493,0
0.5,11.1,0,0.299985,0.000204261,0
0.5,11.2,0,0.299976,0.000160255,0
0.5,11.3,0,0.299995,0.000258834,0
0.5,11.4,0,0.29998,0.000162036,0
0.5,11.5,0,0.299991,0.000241557,0
0.5,11.6,0,0.299985,0.000169065,0
0.5,11.7,0,0.299987,0.000193354,0
0.5,11.8,0,0.299992,0.00022339,0
0.5,11.9,0,0.299988,0.000168292,0
0.5,12,0,0.299997,0.000277833,0
0.5,12.1,0,0.299991,0.000169835,0
0.5,12.2,0,0.299995,0.000242638,0
0.5,12.3,0,0.299994,0.00018359,0
0.5,12.4,0,0.299995,0.000191747,0
0.5,12.5,0,0.299997,0.000236655,0
0.5,12.6,0,0.299996,0.000172424,0
0.5,12.7,0,0.299998,0.000295376,0
0.6,0,0,0.299998,-0.000318879,0
0.6,0.1,0,0.299998,-0.000295508,0
0.6,0.2,0,0.299998,-0.000295191,0
0.6,0.3,0,0.299997,-0.000297057,0
0.6,0.4,0,0.299997,-0.000296091,0
0.6,0.5,0,0.299996,-0.000292832,0
0.6,0.6,0,0.299995,-0.00029189,0
0.6,0.7,0,0.299993,-0.000299718,0
0.6,0.8,0,0.299993,-0.000288604,0
0.6,0.9,0,0.299992,-0.000287054,0
0.6,1,0,0.299991,-0.000288547,0
0.6,1.1,0,0.29999,-0.000285833,0
0.6,1.2,0,0.29999,-0.000280313,0
0.6,1.3,0,0.299989,-0.000278185,0
0.6,1.4,0,0.299986,-0.000289421,0
0.6,1.5,0,0.299987,-0.000271714,0
0.6,1.6,0,0.299986,-0.000269041,0
0.6,1.7,0,0.299984,-0.000271197,0
0.6,1.8,0,0.299984,-0.000266771,0
0.6,1.9,0,0.299983,-0.00025815,0
0.6,2,0,0.299982,-0.000254956,0
0.6,2.1,0,0.29998,-0.000272992,0
0.6,2.2,0,0.299981,-0.000245646,0
0.6,2.3,0,0.29998,-0.000241951,0
0.6,2.4,0,0.299979,-0.000245751,0
0.6,2.5,0,0.299979,-0.000239972,0
0.6,2.6,0,0.299978,-0.00022755,0
0.6,2.7,0,0.299978,-0.000223359,0
0.6,2.8,0,0.299976,-0.000250909,0
0.6,2.9,0,0.299976,-0.000212051,0
0.6,3,0,0.299976,-0.000207351,0
0.6,3.1,0,0.299975,-0.000213349,0
0.6,3.2,0,0.299975,-0.000207081,0
0.6,3.3,0,0.299974,-0.000190616,0
0.6,3.4,0,0.299974,-0.000185367,0
0.6,3.5,0,0.299975,-0.000223051,0
0.6,3.6,0,0.299973,-0.000173665,0
0.6,3.7,0,0.299974,-0.000167798,0
0.6,3.8,0,0.299975,-0.00017554,0
0.6,3.9,0,0.299974,-0.000170328,0
0.6,4,0,0.299974,-0.000150524,0
0.6,4.1,0,0.299975,-0.000143918,0
0.6,4.2,0,0.299979,-0.000188128,0
0.6,4.3,0,0.299975,-0.000134174,0
0.6,4.4,0,0.299977,-0.000126665,0
0.6,4.5,0,0.299979,-0.000133928,0
0.6,4.6,0,0.29998,-0.000131817,0
0.6,4.7,0,0.29998,-0.000110842,0
0.6,4.8,0,0.299981,-0.000102266,0
0.6,4.9,0,0.299986,-0.00014309,0
0.6,5,0,0.299987,-9.69297e-05,0
0.6,5.1,0,0.299988,-8.71659e-05,0
0.6,5.2,0,0.299989,-8.97538e-05,0
0.6,5.3,0,0.299997,-9.21386e-05,0
0.6,5.4,0,0.3,-7.38897e-05,0
0.6,5.5,0,0.299999,-6.28851e-05,0
0.6,5.6,0,0.299989,-8.49386e-05,0
0.6,5.7,0,0.300019,-6.1598e-05,0
0.6,5.8,0,0.300017,-4.94587e-05,0
0.6,5.9,0,0.300006,-4.29477e-05,0
0.6,6,0,0.300029,-4.75504e-05,0
0.6,6.1,0,0.300043,-3.58381e-05,0
0.6,6.2,0,0.300039,-2.28968e-05,0
0.6,6.3,0,0.29997,-1.47129e-05,0
0.6,6.4,0,0.300075,-1.94143e-05,0
0.6,6.5,0,0.300068,-5.80744e-06,0
0.6,6.6,0,0.300031,1.03089e-05,0
0.6,6.7,0,0.300059,8.16502e-06,0
0.6,6.8,0,0.300098,1.00712e-05,0
0.6,6.9,0,0.300092,2.00646e-05,0
0.6,7,0,0.299937,5.13676e-05,0
0.6,7.1,0,0.299929,6.24435e-05,0
0.6,7.2,0,0.299926,6.81853e-05,0
0.6,7.3,0,0.299923,7.38054e-05,0
0.6,7.4,0,0.299921,7.94808e-05,0
0.6,7.5,0,0.299921,8.51719e-05,0
0.6,7.6,0,0.299921,9.08582e-05,0
0.6,7.7,0,0.299923,9.65313e-05,0
0.6,7.8,0,0.299926,0.000102175,0
0.6,7.9,0,0.299929,0.000107907,0
0.6,8,0,0.299936,0.000116412,0
0.6,8.1,0,0.300094,0.000129375,0
0.6,8.2,0,0.300061,0.000135537,0
0.6,8.3,0,0.300074,0.000141709,0
0.6,8.4,0,0.300082,0.000152454,0
0.6,8.5,0,0.30002,0.000154547,0
0.6,8.6,0,0.30006,0.000164743,0
0.6,8.7,0,0.299985,0.00017234,0
0.6,8.8,0,0.300038,0.000175005,0
0.6,8.9,0,0.300036,0.00018594,0
0.6,9,0,0.300019,0.000183437,0
0.6,9.1,0,0.300024,0.000193702,0
0.6,9.2,0,0.300001,0.000201599,0
0.6,9.3,0,0.300007,0.000200423,0
0.6,9.4,0,0.300005,0.000225105,0
0.6,9.5,0,0.299995,0.000206291,0
0.6,9.6,0,0.299997,0.000216686,0
0.6,9.7,0,0.299987,0.0002118,0
0.6,9.8,0,0.299987,0.000220282,0
0.6,9.9,0,0.299996,0.000244649,0
0.6,10,0,0.299982,0.000224983,0
0.6,10.1,0,0.299997,0.000262623,0
0.6,10.2,0,0.29998,0.000229842,0
0.6,10.3,0,0.299979,0.000236705,0
0.6,10.4,0,0.29998,0.000234938,0
0.6,10.5,0,0.299979,0.000240992,0
0.6,10.6,0,0.299994,0.000282896,0
0.6,10.7,0,0.29998,0.000245511,0
0.6,10.8,0,0.29999,0.000285358,0
0.6,10.9,0,0.299982,0.000250164,0
0.6,11,0,0.299981,0.000254702,0
0.6,11.1,0,0.299985,0.000257687,0
0.6,11.2,0,0.299984,0.000258658,0
0.6,11.3,0,0.299994,0.000313464,0
0.6,11.4,0,0.299986,0.000262511,0
0.6,11.5,0,0.299991,0.000297185,0
0.6,11.6,0,0.299989,0.000266129,0
0.6,11.7,0,0.299989,0.000268689,0
0.6,11.8,0,0.299991,0.00027982,0
0.6,11.9,0,0.299991,0.000271362,0
0.6,12,0,0.299996,0.000334877,0
0.6,12.1,0,0.299993,0.000273613,0
0.6,12.2,0,0.299995,0.000300115,0
0.6,12.3,0,0.299995,0.000275357,0
0.6,12.4,0,0.299996,0.000276169,0
0.6,12.5,0,0.299997,0.000294386,0
0.6,12.6,0,0.299997,0.000276792,0
0.6,12.7,0,0.299999,0.000350669,0
0.7,0,0,0.299998,-0.000358995,0
0.7,0.1,0,0.299997,-0.000350994,0
0.7,0.2,0,0.299997,-0.000350677,0
0.7,0.3,0,0.299996,-0.00035036,0
0.7,0.4,0,0.299996,-0.000349574,0
0.7,0.5,0,0.299994,-0.000348632,0
0.7,0.6,0,0.299993,-0.00034769,0
0.7,0.7,0,0.299992,-0.000349671,0
0.7,0.8,0,0.299991,-0.000344933,0
0.7,0.9,0,0.29999,-0.000343384,0
0.7,1,0,0.299989,-0.000341834,0
0.7,1.1,0,0.299988,-0.000339587,0
0.7,1.2,0,0.299987,-0.000337459,0
0.7,1.3,0,0.299986,-0.000335331,0
0.7,1.4,0,0.299984,-0.000337658,0
0.7,1.5,0,0.299984,-0.000329974,0
0.7,1.6,0,0.299982,-0.0003273,0
0.7,1.7,0,0.299981,-0.000324626,0
0.7,1.8,0,0.29998,-0.000320996,0
0.7,1.9,0,0.299979,-0.000317802,0
0.7,2,0,0.299978,-0.000314608,0
0.7,2.1,0,0.299977,-0.000318491,0
0.7,2.2,0,0.299977,-0.000306912,0
0.7,2.3,0,0.299976,-0.000303216,0
0.7,2.4,0,0.299975,-0.000299521,0
0.7,2.5,0,0.299975,-0.00029472,0
0.7,2.6,0,0.299974,-0.000290529,0
0.7,2.7,0,0.299973,-0.000286338,0
0.7,2.8,0,0.299972,-0.000292727,0
0.7,2.9,0,0.299972,-0.000276641,0
0.7,3,0,0.299971,-0.00027194,0
0.7,3.1,0,0.299971,-0.00026724,0
0.7,3.2,0,0.299971,-0.000261661,0
0.7,3.3,0,0.299971,-0.000256413,0
0.7,3.4,0,0.299971,-0.000251164,0
0.7,3.5,0,0.299971,-0.000260226,0
0.7,3.6,0,0.299971,-0.000239853,0
0.7,3.7,0,0.299971,-0.000233987,0
0.7,3.8,0,0.299971,-0.00022812,0
0.7,3.9,0,0.299972,-0.000222362,0
0.7,4,0,0.299972,-0.000215756,0
0.7,4.1,0,0.299973,-0.00020915,0
0.7,4.2,0,0.299975,-0.000219483,0
0.7,4.3,0,0.299975,-0.000196492,0
0.7,4.4,0,0.299976,-0.000188983,0
0.7,4.5,0,0.299978,-0.000181474,0
0.7,4.6,0,0.299979,-0.0001762,0
0.7,4.7,0,0.29998,-0.000167624,0
0.7,4.8,0,0.299981,-0.000159048,0
0.7,4.9,0,0.299984,-0.000166939,0
0.7,5,0,0.299985,-0.000145043,0
0.7,5.1,0,0.299986,-0.000135279,0
0.7,5.2,0,0.299987,-0.000125515,0
0.7,5.3,0,0.299991,-0.000121089,0
0.7,5.4,0,0.299991,-0.000110085,0
0.7,5.5,0,0.299991,-9.90803e-05,0
0.7,5.6,0,0.299987,-9.90951e-05,0
0.7,5.7,0,0.299996,-8.3222e-05,0
0.7,5.8,0,0.299994,-7.10827e-05,0
0.7,5.9,0,0.299991,-5.89434e-05,0
0.7,6,0,0.3,-5.44032e-05,0
0.7,6.1,0,0.299996,-4.14619e-05,0
0.7,6.2,0,0.299991,-2.85206e-05,0
0.7,6.3,0,0.299965,-1.71651e-05,0
0.7,6.4,0,0.299996,-9.66097e-06,0
0.7,6.5,0,0.299989,3.94587e-06,0
0.7,6.6,0,0.299983,1.75527e-05,0
0.7,6.7,0,0.299993,2.28456e-05,0
0.7,6.8,0,0.299987,3.2839e-05,0