/*--------------------------------*- C++ -*----------------------------------*\
| =========                 |                                                 |
| \\      /  F ield         | OpenFOAM: The Open Source CFD Toolbox           |
|  \\    /   O peration     | Version:  v1806                                 |
|   \\  /    A nd           | Web:      www.OpenFOAM.com                      |
|    \\/     M anipulation  |                                                 |
\*---------------------------------------------------------------------------*/
FoamFile
{
    version     2.0;
    format      ascii;
    class       volVectorField;
    location    "15";
    object      U;
}
// * * * * * * * * * * * * * * * * * * * * * * * * * * * * * * * * * * * * * //

dimensions      [0 1 -1 0 0 0 0];


internalField   nonuniform List<vector> 
24000
(
(2.71582 0.0328983 0.0848826)
(2.45469 0.0470322 0.0941398)
(2.11021 0.0436976 0.0773325)
(1.77531 0.0376083 0.0617033)
(1.51457 0.0297915 0.0437301)
(1.33067 0.0221911 0.0262445)
(1.20646 0.0166062 0.0138876)
(1.12242 0.0130881 0.00709102)
(1.06477 0.0105806 0.00371878)
(1.0252 0.00825196 0.0021618)
(0.998707 0.00585309 0.0016327)
(0.982098 0.00323997 0.00158151)
(0.973149 0.000652326 0.0017552)
(0.970225 -0.00168041 0.00198389)
(0.972074 -0.00357023 0.00215424)
(0.97749 -0.00495609 0.00225106)
(0.985373 -0.00571545 0.00221824)
(0.994654 -0.00582061 0.00205323)
(1.00404 -0.00521871 0.00171884)
(1.01269 -0.00398922 0.00133307)
(2.77002 0.0413193 0.0857092)
(2.56346 0.0605544 0.0981209)
(2.30313 0.0571199 0.0794687)
(2.04186 0.0498284 0.0657772)
(1.82498 0.039992 0.0511099)
(1.65976 0.0292783 0.0351423)
(1.54053 0.019844 0.0219774)
(1.45716 0.0124052 0.0133602)
(1.40083 0.00637807 0.00822763)
(1.36465 0.000864952 0.0052487)
(1.34382 -0.00453776 0.00354584)
(1.33423 -0.0100641 0.00278991)
(1.33324 -0.0153814 0.00250316)
(1.33867 -0.0201917 0.00245634)
(1.34886 -0.0241118 0.00248141)
(1.36264 -0.0268969 0.00244796)
(1.37877 -0.0282402 0.00233905)
(1.39631 -0.0280374 0.00216171)
(1.41382 -0.0260892 0.00185871)
(1.43073 -0.022568 0.00154991)
(2.76952 0.0159543 0.0856818)
(2.55254 0.0290798 0.0982443)
(2.29431 0.0305187 0.0787552)
(2.04285 0.0271997 0.0645698)
(1.83683 0.0212981 0.0503295)
(1.68063 0.013456 0.0349171)
(1.56825 0.00494916 0.0220356)
(1.49022 -0.00380525 0.0133759)
(1.43834 -0.0120229 0.00804344)
(1.40597 -0.0200339 0.00475268)
(1.38876 -0.0277489 0.00271882)
(1.38292 -0.0353065 0.00154506)
(1.3859 -0.0423129 0.000993977)
(1.39526 -0.0485585 0.000793591)
(1.40957 -0.0535309 0.000707703)
(1.42735 -0.0568504 0.000645271)
(1.44757 -0.0580821 0.000533143)
(1.46919 -0.056987 0.000390397)
(1.49086 -0.0532748 0.000171842)
(1.51193 -0.0470934 -2.1414e-05)
(2.76909 0.011518 0.08582)
(2.54289 0.022563 0.0987988)
(2.27839 0.0245716 0.0792295)
(2.02475 0.0205845 0.064607)
(1.81931 0.0139734 0.0502313)
(1.66459 0.00513372 0.0348155)
(1.5545 -0.00418051 0.0218599)
(1.47843 -0.0145009 0.013215)
(1.42882 -0.0244089 0.00789784)
(1.3981 -0.034734 0.0045982)
(1.38278 -0.0444586 0.00248391)
(1.37837 -0.054175 0.00126177)
(1.38338 -0.0629488 0.000557411)
(1.39467 -0.0708734 0.00026035)
(1.41152 -0.077022 6.70039e-05)
(1.43184 -0.0811149 -4.23016e-05)
(1.45513 -0.0824363 -0.000206152)
(1.47976 -0.0806561 -0.000359503)
(1.50478 -0.0753504 -0.000586738)
(1.52889 -0.0666566 -0.000713721)
(2.76874 0.00655296 0.0859569)
(2.53669 0.0109031 0.0990561)
(2.26789 0.0112887 0.0795039)
(2.01184 0.00654655 0.0645735)
(1.80571 0.000275641 0.0500629)
(1.65095 -0.00922391 0.0344787)
(1.54176 -0.0186858 0.0214305)
(1.46641 -0.0303268 0.0126421)
(1.41817 -0.0409886 0.00732403)
(1.38793 -0.0533321 0.00409006)
(1.37382 -0.0643434 0.00203521)
(1.36989 -0.0762314 0.000892322)
(1.37634 -0.0863482 0.000160283)
(1.38877 -0.096075 -8.71715e-05)
(1.40776 -0.103236 -0.000341171)
(1.43029 -0.108253 -0.000413148)
(1.45651 -0.109621 -0.00062103)
(1.48429 -0.107177 -0.000758647)
(1.51266 -0.100152 -0.000999066)
(1.54007 -0.0887094 -0.00114294)
(2.76838 0.00423803 0.0861401)
(2.5328 0.00351748 0.099141)
(2.26151 0.0032785 0.07976)
(2.00313 -0.0027987 0.0646901)
(1.79511 -0.00851847 0.0503251)
(1.63874 -0.0197025 0.034564)
(1.52916 -0.0289759 0.0216452)
(1.45292 -0.0432124 0.0127238)
(1.40536 -0.054279 0.00744409)
(1.37444 -0.0698953 0.00411699)
(1.36176 -0.0817888 0.00208199)
(1.35754 -0.0971538 0.000973282)
(1.36605 -0.108363 0.000187724)
(1.37913 -0.12117 4.64738e-05)
(1.40097 -0.129329 -0.000344255)
(1.42572 -0.136288 -0.00028758)
(1.45567 -0.137864 -0.00064149)
(1.48717 -0.135245 -0.000712303)
(1.51982 -0.126523 -0.00105647)
(1.55144 -0.112116 -0.00119929)
(2.76777 0.0030928 0.0864258)
(2.52947 -0.00322141 0.0990509)
(2.25646 -0.00400879 0.0800667)
(1.99626 -0.0133468 0.0647504)
(1.78605 -0.018131 0.050629)
(1.62828 -0.0325906 0.0343121)
(1.5183 -0.0402307 0.0217149)
(1.44065 -0.0585195 0.0124653)
(1.39392 -0.0681187 0.00746655)
(1.36122 -0.0888211 0.00381594)
(1.35078 -0.0996025 0.0020084)
(1.34485 -0.120664 0.000767162)
(1.35683 -0.131191 6.5623e-05)
(1.36909 -0.149505 2.31941e-05)
(1.39544 -0.157377 -0.000556823)
(1.42159 -0.168404 -0.000186069)
(1.45678 -0.169546 -0.000876277)
(1.49236 -0.167894 -0.000648301)
(1.53048 -0.157099 -0.00123624)
(1.56744 -0.139573 -0.00132635)
(2.76676 0.0027324 0.0868142)
(2.52662 -0.00916412 0.0986745)
(2.2522 -0.00912862 0.0803703)
(1.99119 -0.0229198 0.0646049)
(1.77797 -0.0250317 0.0510805)
(1.61917 -0.0448535 0.0337947)
(1.50818 -0.0486121 0.0220242)
(1.42849 -0.0739183 0.0119904)
(1.38273 -0.0790455 0.00777801)
(1.34667 -0.108631 0.00325154)
(1.33994 -0.114608 0.0021883)
(1.32964 -0.146056 0.000291207)
(1.34788 -0.151866 0.000125738)
(1.35587 -0.181076 -0.000169204)
(1.39047 -0.184848 -0.000794625)
(1.41494 -0.205198 8.2279e-06)
(1.45902 -0.2031 -0.00137051)
(1.49759 -0.205981 -0.000289598)
(1.54368 -0.191677 -0.0015746)
(1.58687 -0.171583 -0.00129607)
(2.76541 0.00274418 0.087261)
(2.52422 -0.0144646 0.0980329)
(2.24824 -0.0124445 0.0808318)
(1.98728 -0.0320721 0.0643083)
(1.77031 -0.029731 0.0516727)
(1.61092 -0.05733 0.0329985)
(1.49836 -0.0543434 0.0225515)
(1.41612 -0.0902997 0.0111286)
(1.37167 -0.0867032 0.00831626)
(1.33058 -0.130337 0.0020946)
(1.32941 -0.125853 0.00264195)
(1.31124 -0.174754 -0.000972177)
(1.33973 -0.168801 0.000471973)
(1.33789 -0.218056 -0.00124655)
(1.38715 -0.209606 -0.00102493)
(1.4033 -0.249836 -0.000307845)
(1.4637 -0.236735 -0.00241968)
(1.50067 -0.253333 0.000327424)
(1.56018 -0.230593 -0.00250056)
(1.60933 -0.211293 -0.000935498)
(2.76417 0.00282738 0.0876746)
(2.52206 -0.0189607 0.0972399)
(2.24489 -0.0140549 0.0813825)
(1.98364 -0.0403288 0.0639175)
(1.76353 -0.0320508 0.0522738)
(1.60252 -0.0692899 0.0320807)
(1.48923 -0.056959 0.0231792)
(1.4025 -0.106809 0.00999895)
(1.361 -0.0902965 0.00899058)
(1.31165 -0.15317 0.000434448)
(1.31908 -0.132004 0.00337814)
(1.28781 -0.20641 -0.00309516)
(1.3319 -0.179805 0.00131454)
(1.31224 -0.261149 -0.00361158)
(1.38487 -0.22819 -0.00077846)
(1.3818 -0.30503 -0.00180519)
(1.4707 -0.265906 -0.00366806)
(1.49525 -0.314996 0.0011773)
(1.57993 -0.271161 -0.00427966)
(1.63106 -0.264084 0.000709403)
(2.76368 0.00298229 0.0879784)
(2.51975 -0.0227498 0.0965023)
(2.24286 -0.0140516 0.0818972)
(1.97913 -0.0473564 0.0636275)
(1.75849 -0.0320322 0.0527542)
(1.59243 -0.0800984 0.0313492)
(1.48162 -0.0564415 0.0237151)
(1.38581 -0.122548 0.00899863)
(1.35143 -0.0897719 0.0095721)
(1.28785 -0.176001 -0.00120721)
(1.30929 -0.13282 0.00416714)
(1.25696 -0.239899 -0.00555682)
(1.32432 -0.184105 0.00245331)
(1.27606 -0.310099 -0.0070241)
(1.38334 -0.238639 0.000187814)
(1.3469 -0.373679 -0.00454531)
(1.47972 -0.286615 -0.00445475)
(1.47565 -0.399169 0.00242413)
(1.60401 -0.309759 -0.00651693)
(1.6466 -0.340831 0.00527852)
(2.76393 0.00338302 0.0881466)
(2.51762 -0.0262027 0.0960394)
(2.24212 -0.0123205 0.0822787)
(1.97386 -0.0533284 0.0635902)
(1.75483 -0.0296688 0.0531191)
(1.58075 -0.0898261 0.0310796)
(1.47514 -0.052776 0.0240371)
(1.3665 -0.137327 0.00850682)
(1.34296 -0.0851841 0.00988998)
(1.25986 -0.198357 -0.0021611)
(1.30076 -0.128493 0.00467335)
(1.2194 -0.274381 -0.00731877)
(1.31891 -0.181865 0.00333965)
(1.22971 -0.363891 -0.010141)
(1.3855 -0.240482 0.00138786)
(1.29859 -0.45711 -0.00748519)
(1.49421 -0.296451 -0.00476953)
(1.44207 -0.517032 0.00527419)
(1.63647 -0.343186 -0.00898388)
(1.65262 -0.460322 0.0150853)
(2.76367 0.00388345 0.0881695)
(2.51786 -0.0294994 0.0960549)
(2.24064 -0.00917318 0.0824996)
(1.97086 -0.0586182 0.063889)
(1.74915 -0.0255283 0.0535068)
(1.57227 -0.0990435 0.031447)
(1.46525 -0.0466504 0.024469)
(1.35122 -0.151867 0.00892727)
(1.33038 -0.0772171 0.0102537)
(1.23654 -0.221237 -0.00177611)
(1.28903 -0.119542 0.00513756)
(1.1859 -0.311251 -0.00735492)
(1.31447 -0.173266 0.00409718)
(1.18341 -0.423725 -0.0114294)
(1.39688 -0.233381 0.00243463)
(1.24319 -0.555234 -0.0096772)
(1.52475 -0.291864 -0.00589657)
(1.39869 -0.675359 0.0100041)
(1.68843 -0.36675 -0.014321)
(1.65086 -0.650286 0.0333696)
(2.76092 0.00349488 0.0879121)
(2.52389 -0.0320454 0.096732)
(2.23498 -0.0061706 0.0825006)
(1.97514 -0.0626363 0.064604)
(1.7355 -0.0218016 0.053951)
(1.57529 -0.107093 0.0325321)
(1.44254 -0.0411847 0.0252293)
(1.35247 -0.165546 0.0103374)
(1.29992 -0.0696933 0.0115026)
(1.23516 -0.244549 0.000305983)
(1.25515 -0.109722 0.00699765)
(1.17969 -0.351529 -0.00514191)
(1.28845 -0.160571 0.00728664)
(1.16487 -0.492737 -0.0105312)
(1.40115 -0.216363 0.00706869)
(1.20084 -0.671199 -0.0132643)
(1.57657 -0.266527 -0.00652609)
(1.34759 -0.869417 0.0111448)
(1.77331 -0.363881 -0.0298549)
(1.62886 -0.93017 0.065168)
(2.75533 0.000616814 0.0870451)
(2.53718 -0.0318966 0.09807)
(2.22428 -0.00640909 0.0820812)
(1.98824 -0.0627574 0.0657368)
(1.71125 -0.0227994 0.054116)
(1.59222 -0.109775 0.0342265)
(1.40101 -0.0432132 0.025606)
(1.3739 -0.171994 0.0123626)
(1.23821 -0.0727486 0.0126433)
(1.26201 -0.258991 0.00340854)
(1.17151 -0.113762 0.0100592)
(1.21303 -0.383073 -0.00110263)
(1.1882 -0.161057 0.0155735)
(1.19993 -0.560866 -0.00956319)
(1.3171 -0.197449 0.0257126)
(1.21037 -0.806705 -0.0211252)
(1.58946 -0.212197 0.0106603)
(1.30572 -1.10868 -0.00626582)
(1.88075 -0.269723 -0.0443981)
(1.55709 -1.30645 0.106912)
(2.7515 -0.00569941 0.0855461)
(2.55153 -0.0260851 0.0994798)
(2.21605 -0.0128187 0.0814597)
(1.9998 -0.0550343 0.066994)
(1.68721 -0.0326089 0.0538596)
(1.60585 -0.100028 0.0356243)
(1.35572 -0.059354 0.0252798)
(1.38951 -0.159961 0.0134086)
(1.16325 -0.097649 0.0124453)
(1.27938 -0.245984 0.00467062)
(1.05814 -0.152606 0.00885225)
(1.23601 -0.373372 0.000878024)
(1.01889 -0.218987 0.0147)
(1.24467 -0.570967 -0.0059357)
(1.07067 -0.259552 0.0449311)
(1.28393 -0.906325 -0.0326028)
(1.35088 -0.158722 0.0950656)
(1.33068 -1.42304 -0.0332038)
(1.96713 -0.16174 -0.0456061)
(1.45642 -1.88156 0.104436)
(2.76128 -0.0132446 0.0839432)
(2.54897 -0.0143377 0.100152)
(2.23097 -0.0234635 0.081311)
(1.98152 -0.039072 0.0685694)
(1.69842 -0.0500777 0.0529049)
(1.57291 -0.0765392 0.0366976)
(1.36382 -0.0860511 0.024608)
(1.33733 -0.127104 0.0142138)
(1.16325 -0.14014 0.0116052)
(1.20268 -0.202394 0.00431703)
(1.04533 -0.220579 0.00644237)
(1.13292 -0.316907 0.00139542)
(0.981619 -0.336121 0.00449889)
(1.13035 -0.497509 0.00291293)
(0.968164 -0.486871 0.0127264)
(1.24584 -0.823388 -0.00278008)
(1.04422 -0.506599 0.0993048)
(1.47147 -1.67286 -0.0499319)
(1.51202 0.228057 0.273191)
(1.40183 -2.83016 0.0278758)
(2.78822 -0.0148907 0.0829726)
(2.52214 -0.00463217 0.100212)
(2.27443 -0.0282771 0.0818507)
(1.92401 -0.0259425 0.070578)
(1.75941 -0.0608432 0.0507348)
(1.48377 -0.0553702 0.0386197)
(1.44986 -0.102706 0.0221978)
(1.20662 -0.0977662 0.0173365)
(1.27569 -0.168974 0.00853039)
(1.02473 -0.163936 0.00866158)
(1.18577 -0.271759 0.0047729)
(0.900614 -0.268824 0.00929475)
(1.15013 -0.435381 0.00569618)
(0.837793 -0.439609 0.0200107)
(1.16154 -0.712868 0.00719079)
(0.894193 -0.715481 0.0514352)
(1.21253 -1.18738 0.00724514)
(1.22064 -1.39901 0.0909138)
(1.16184 -0.85321 0.283195)
(1.46167 -3.91033 -0.126284)
(2.81271 -0.0109674 0.0837745)
(2.49383 -0.00194199 0.100669)
(2.31094 -0.0232947 0.0820192)
(1.87103 -0.0226982 0.0714151)
(1.81377 -0.0536799 0.0498648)
(1.40628 -0.0500886 0.0393671)
(1.52415 -0.0933731 0.0207765)
(1.1003 -0.0943083 0.0192091)
(1.36844 -0.158466 0.00588086)
(0.894066 -0.167288 0.0120745)
(1.2906 -0.266181 0.00179295)
(0.752126 -0.290384 0.0135933)
(1.25109 -0.451246 0.00590606)
(0.666092 -0.502916 0.0221581)
(1.22684 -0.784677 0.0241922)
(0.626695 -0.877185 0.0410276)
(1.22303 -1.43624 0.039703)
(0.731987 -1.52575 0.135801)
(1.0418 -2.41533 -0.0432279)
(1.3205 -4.5273 -0.348353)
(2.82261 -0.00115257 0.0836043)
(2.48425 -0.0115918 0.102582)
(2.32235 -0.00930797 0.0811118)
(1.84991 -0.0333731 0.0741318)
(1.82858 -0.028203 0.0478006)
(1.37963 -0.0665745 0.0422976)
(1.53818 -0.0580625 0.0171644)
(1.07307 -0.118986 0.0238235)
(1.37618 -0.111691 -0.000339001)
(0.876234 -0.204149 0.0184293)
(1.27705 -0.208615 -0.00811526)
(0.743612 -0.344642 0.0212236)
(1.18929 -0.385705 -0.00995938)
(0.629325 -0.579569 0.0268764)
(1.07336 -0.716326 -0.00494589)
(0.436781 -0.987442 0.015422)
(0.922907 -1.39718 0.0196599)
(0.0376327 -1.81188 -0.00847838)
(0.450194 -2.84795 -0.191029)
(0.865243 -4.09711 -0.599797)
(2.94057 0.0341166 0.122628)
(2.99512 0.0535293 0.147751)
(2.96012 0.0542385 0.129947)
(2.85847 0.0533172 0.116446)
(2.73953 0.0504247 0.0975203)
(2.62304 0.0457403 0.0742365)
(2.51557 0.040575 0.0529648)
(2.41807 0.0358332 0.0373825)
(2.33113 0.031561 0.0268975)
(2.25593 0.0274159 0.0198117)
(2.19317 0.0232334 0.0150562)
(2.14296 0.0189269 0.0119594)
(2.10489 0.0145545 0.0100701)
(2.07801 0.0102656 0.0089833)
(2.06137 0.00629374 0.00833314)
(2.05351 0.00272283 0.00789607)
(2.05303 -0.000229335 0.00748754)
(2.05832 -0.00245206 0.00707165)
(2.06757 -0.00379174 0.00651828)
(2.07904 -0.00423481 0.00589263)
(2.99976 0.0428217 0.123342)
(3.11721 0.0686824 0.151849)
(3.17939 0.0708009 0.133598)
(3.1833 0.0701446 0.12144)
(3.15918 0.067049 0.107122)
(3.12483 0.0613414 0.088355)
(3.08864 0.054318 0.0693644)
(3.05321 0.04697 0.0537895)
(3.02068 0.0396545 0.0421145)
(2.99278 0.0321067 0.0334856)
(2.97153 0.0242539 0.0269439)
(2.95754 0.015978 0.022154)
(2.95126 0.00752752 0.0186886)
(2.95244 -0.000878371 0.0162206)
(2.96075 -0.00887434 0.0143931)
(2.97547 -0.0161688 0.0129557)
(2.99578 -0.0223491 0.011793)
(3.02067 -0.027129 0.0107442)
(3.0488 -0.0301459 0.00975084)
(3.0789 -0.0312591 0.00875664)
(2.99989 0.016478 0.123135)
(3.10743 0.0323851 0.151735)
(3.1704 0.0376774 0.132734)
(3.18287 0.0384767 0.11933)
(3.1707 0.0370761 0.10515)
(3.14937 0.0331497 0.0870364)
(3.12705 0.0274623 0.0685441)
(3.10561 0.020058 0.0531743)
(3.08728 0.0117453 0.0416016)
(3.07279 0.00243197 0.0329269)
(3.06452 -0.00757742 0.0262172)
(3.06243 -0.0182777 0.0210926)
(3.0677 -0.0292883 0.0172093)
(3.07921 -0.0402708 0.0142811)
(3.09738 -0.050794 0.0120983)
(3.12081 -0.0602984 0.0103987)
(3.14956 -0.0682963 0.00901398)
(3.18202 -0.0742381 0.00776774)
(3.21786 -0.0776808 0.00667935)
(3.25518 -0.0782441 0.00562659)
(2.99992 0.0120458 0.123245)
(3.09883 0.0248331 0.152458)
(3.15579 0.0302765 0.133546)
(3.16477 0.0297768 0.119482)
(3.15174 0.0271193 0.104997)
(3.12963 0.0213229 0.0868597)
(3.10819 0.0142591 0.0681496)
(3.08739 0.00475804 0.0527166)
(3.07113 -0.00556458 0.040953)
(3.05817 -0.017604 0.0322327)
(3.05252 -0.0302776 0.0254122)
(3.05238 -0.043982 0.0202046)
(3.06064 -0.0579505 0.0161296)
(3.07457 -0.0719814 0.013098)
(3.09619 -0.0853747 0.0107481)
(3.12258 -0.0974618 0.00891866)
(3.15532 -0.107623 0.00739584)
(3.19127 -0.115013 0.00605621)
(3.23165 -0.11913 0.00489044)
(3.27286 -0.119319 0.00383303)
(2.99994 0.00731258 0.123455)
(3.09316 0.0119081 0.152801)
(3.14634 0.0148334 0.134102)
(3.15208 0.0116895 0.119622)
(3.13773 0.0084409 0.104932)
(3.11368 0.000467253 0.0865232)
(3.09198 -0.00728995 0.0675891)
(3.06999 -0.0191422 0.0518752)
(3.0544 -0.0306862 0.0398725)
(3.04078 -0.0455239 0.0312139)
(3.03605 -0.0601525 0.0242953)
(3.03569 -0.0769354 0.0192421)
(3.04513 -0.0933928 0.0150924)
(3.05968 -0.110447 0.0121822)
(3.08313 -0.126492 0.00976547)
(3.11133 -0.141155 0.00798162)
(3.14689 -0.15344 0.00643217)
(3.1859 -0.162266 0.00509256)
(3.23013 -0.167013 0.00394678)
(3.2752 -0.16669 0.00286082)
(2.99998 0.00575992 0.123865)
(3.08928 0.00336013 0.152798)
(3.14083 0.00616473 0.134612)
(3.14351 -0.000513503 0.119964)
(3.12783 -0.00282457 0.105532)
(3.10038 -0.0144496 0.0869494)
(3.07815 -0.0215471 0.0680076)
(3.05281 -0.0374484 0.0523233)
(3.03747 -0.0491482 0.0401345)
(3.02092 -0.068556 0.0315504)
(3.01713 -0.0844149 0.0243232)
(3.0148 -0.105952 0.0195375)
(3.02561 -0.124643 0.0150741)
(3.03968 -0.146173 0.0124686)
(3.06512 -0.165158 0.00977839)
(3.09483 -0.18351 0.00820299)
(3.13348 -0.198593 0.0065005)
(3.17599 -0.209603 0.0052208)
(3.22466 -0.215618 0.0040135)
(3.27458 -0.215082 0.00290367)
(2.99995 0.00629257 0.124629)
(3.08552 -0.00530836 0.152319)
(3.13672 -0.000402454 0.135274)
(3.13615 -0.014366 0.120113)
(3.11999 -0.0134009 0.106335)
(3.08828 -0.0325014 0.0868346)
(3.06732 -0.0358068 0.0681304)
(3.03683 -0.0594444 0.0522286)
(3.02389 -0.0677685 0.0400397)
(3.00172 -0.0953436 0.0314881)
(3.0014 -0.109001 0.0238681)
(2.99415 -0.138672 0.0195695)
(3.00883 -0.156919 0.0144839)
(3.01999 -0.185799 0.0126664)
(3.04926 -0.206306 0.00924402)
(3.07939 -0.230371 0.00840524)
(3.12214 -0.248155 0.00621471)
(3.16859 -0.262405 0.0053017)
(3.22235 -0.270143 0.00396271)
(3.27844 -0.26965 0.00287565)
(2.99987 0.009052 0.12581)
(3.08159 -0.0149081 0.15109)
(3.13381 -0.00285083 0.136111)
(3.12956 -0.0289201 0.1196)
(3.11425 -0.0187715 0.107494)
(3.07633 -0.0513719 0.0860491)
(3.05938 -0.0441026 0.0685815)
(3.01968 -0.0827584 0.0517169)
(3.01342 -0.0801778 0.0402242)
(2.97965 -0.124032 0.0312654)
(2.98861 -0.127619 0.0234492)
(2.96922 -0.173805 0.0197331)
(2.99426 -0.184387 0.0136175)
(2.99547 -0.228356 0.0133495)
(3.03429 -0.245132 0.00819655)
(3.05997 -0.280786 0.00932924)
(3.11045 -0.298971 0.00554136)
(3.15933 -0.31965 0.00601656)
(3.21988 -0.329176 0.00401266)
(3.28298 -0.329555 0.00329129)
(3.00021 0.0141096 0.127322)
(3.07704 -0.0263776 0.149133)
(3.13227 -0.000789637 0.137476)
(3.12237 -0.045905 0.118438)
(3.1107 -0.0185183 0.10916)
(3.06287 -0.0737085 0.0844136)
(3.05464 -0.0456457 0.069584)
(2.99924 -0.110834 0.0503605)
(3.007 -0.0848223 0.0408413)
(2.95192 -0.158785 0.0302038)
(2.98058 -0.137881 0.0231795)
(2.93618 -0.216276 0.0193192)
(2.98444 -0.204074 0.0123565)
(2.9612 -0.279289 0.0140503)
(3.02275 -0.27882 0.0059993)
(3.03145 -0.340085 0.0110936)
(3.09958 -0.349794 0.00342222)
(3.14443 -0.385808 0.00792585)
(3.21627 -0.394408 0.00366186)
(3.28597 -0.398453 0.0045203)
(3.00237 0.0213434 0.128854)
(3.07061 -0.0398895 0.146794)
(3.13355 0.00591519 0.139176)
(3.11246 -0.0656077 0.116803)
(3.11095 -0.0118777 0.11105)
(3.04542 -0.100015 0.0821558)
(3.05468 -0.0388934 0.0710941)
(2.97241 -0.144713 0.048211)
(3.00629 -0.0791044 0.04203)
(2.9144 -0.201653 0.0281684)
(2.97911 -0.135838 0.0234924)
(2.88902 -0.269644 0.0180093)
(2.98129 -0.210589 0.0113422)
(2.90859 -0.343899 0.0144941)
(3.0164 -0.301004 0.00311586)
(2.98281 -0.414657 0.0140769)
(3.09003 -0.394928 -0.000650246)
(3.11292 -0.466826 0.0127377)
(3.20882 -0.463834 0.00234991)
(3.28022 -0.480584 0.0085313)
(3.00778 0.0306502 0.130016)
(3.06094 -0.0553102 0.14471)
(3.13935 0.0169269 0.140738)
(3.09779 -0.087615 0.115349)
(3.11683 0.00101139 0.112759)
(3.02151 -0.129817 0.0801327)
(3.06112 -0.0236893 0.0727172)
(2.93628 -0.184151 0.0461041)
(3.01282 -0.0622497 0.0435374)
(2.86344 -0.253159 0.0259057)
(2.9857 -0.119554 0.0244704)
(2.82253 -0.336143 0.0162068)
(2.98671 -0.200158 0.011156)
(2.83014 -0.427341 0.0146782)
(3.01804 -0.305922 0.000476194)
(2.90419 -0.513338 0.0184209)
(3.08534 -0.428076 -0.00628371)
(3.05382 -0.57357 0.021918)
(3.2009 -0.534325 -0.00102038)
(3.25944 -0.585444 0.0187987)
(3.01507 0.0418995 0.130646)
(3.05015 -0.072458 0.143424)
(3.14818 0.0318015 0.141846)
(3.08097 -0.111355 0.114624)
(3.12659 0.0194683 0.114095)
(2.99429 -0.162183 0.0791073)
(3.07232 -0.000838927 0.0740352)
(2.89483 -0.227732 0.0448351)
(3.02587 -0.0350978 0.0448369)
(2.80354 -0.311702 0.0243891)
(3.00156 -0.089528 0.0254432)
(2.741 -0.414712 0.0149026)
(3.0052 -0.171949 0.0112262)
(2.72886 -0.530539 0.0152931)
(3.0359 -0.290052 -0.00199345)
(2.79694 -0.641759 0.0244372)
(3.09704 -0.443 -0.0132248)
(2.96853 -0.718676 0.0362186)
(3.20717 -0.600552 -0.00658535)
(3.22561 -0.727259 0.0387287)
(3.01736 0.0541658 0.130949)
(3.04749 -0.0905346 0.143096)
(3.15165 0.0494413 0.142681)
(3.07421 -0.135828 0.114473)
(3.13014 0.0420269 0.115556)
(2.97954 -0.195882 0.0788472)
(3.0774 0.0279694 0.0757591)
(2.86752 -0.273799 0.0441187)
(3.03548 0.000576142 0.0465725)
(2.75773 -0.375022 0.0229863)
(3.02112 -0.0476111 0.0267728)
(2.66943 -0.502507 0.0132403)
(3.04066 -0.127756 0.0111028)
(2.62735 -0.650004 0.0152879)
(3.08715 -0.254123 -0.00613369)
(2.6776 -0.796599 0.0311347)
(3.14995 -0.436345 -0.0239827)
(2.8718 -0.903982 0.0558614)
(3.24921 -0.655094 -0.016413)
(3.19314 -0.920015 0.07002)
(3.00419 0.0642969 0.131248)
(3.06707 -0.106534 0.143416)
(3.13571 0.0663552 0.144006)
(3.0963 -0.157368 0.114001)
(3.10873 0.0647538 0.118465)
(3.00259 -0.226589 0.0779769)
(3.05257 0.0584692 0.0800808)
(2.8875 -0.317653 0.0415615)
(3.01359 0.0408881 0.0521674)
(2.76746 -0.438583 0.018173)
(3.01448 0.00392288 0.0330318)
(2.65677 -0.59552 0.00569254)
(3.06922 -0.0674746 0.0159073)
(2.57423 -0.782881 0.00633469)
(3.16904 -0.198181 -0.00893268)
(2.57375 -0.971665 0.0288573)
(3.27139 -0.410998 -0.0434603)
(2.7611 -1.11309 0.0758508)
(3.34426 -0.694617 -0.0386965)
(3.16156 -1.1559 0.116311)
(2.97134 0.0660267 0.13119)
(3.11472 -0.112956 0.143916)
(3.09223 0.0744084 0.146348)
(3.15447 -0.166257 0.112356)
(3.04701 0.0777903 0.12377)
(3.07366 -0.241617 0.07519)
(2.97124 0.0789818 0.089111)
(2.96993 -0.343163 0.0351546)
(2.91615 0.0734488 0.0658813)
(2.85611 -0.483269 0.00652322)
(2.91307 0.0548325 0.0527828)
(2.73898 -0.675587 -0.0141612)
(2.99476 0.00801789 0.0413511)
(2.62194 -0.921032 -0.0247065)
(3.17522 -0.105534 0.013028)
(2.53609 -1.17713 -0.00502643)
(3.40054 -0.353412 -0.0554913)
(2.61022 -1.34676 0.075493)
(3.50529 -0.73537 -0.0858071)
(3.05933 -1.38456 0.18935)
(2.93792 0.0514629 0.129383)
(3.16587 -0.0981812 0.144406)
(3.04245 0.0608553 0.148376)
(3.21578 -0.147225 0.11074)
(2.96452 0.0628714 0.128903)
(3.15049 -0.21957 0.0720788)
(2.84377 0.0640315 0.099391)
(3.06348 -0.319885 0.0282769)
(2.72781 0.0634856 0.0835406)
(2.96549 -0.466186 -0.00675936)
(2.64964 0.0624654 0.0842521)
(2.86271 -0.684779 -0.0391374)
(2.65831 0.0626453 0.0964709)
(2.74981 -1.00272 -0.0704491)
(2.83115 0.0307048 0.101655)
(2.6177 -1.4039 -0.0826906)
(3.23272 -0.197582 0.0325475)
(2.4987 -1.69406 0.01571)
(3.66898 -0.830473 -0.146307)
(2.76154 -1.58231 0.289639)
(2.96597 0.0207818 0.123712)
(3.14237 -0.0584368 0.147313)
(3.07622 0.0218345 0.145385)
(3.17698 -0.0947737 0.11557)
(2.98753 0.00957524 0.125054)
(3.09971 -0.151199 0.0766362)
(2.84462 -0.00672075 0.0967659)
(3 -0.230237 0.0341245)
(2.68065 -0.0314261 0.0822286)
(2.8936 -0.352926 -0.000704765)
(2.50903 -0.0593667 0.0870409)
(2.8029 -0.55439 -0.0340137)
(2.33859 -0.0635345 0.115155)
(2.75076 -0.903532 -0.0749165)
(2.21369 0.0234003 0.18271)
(2.74558 -1.49619 -0.129837)
(2.39034 0.162946 0.278477)
(2.67774 -2.22484 -0.121521)
(3.32375 -0.526974 0.134452)
(2.41503 -1.97514 0.34676)
(3.08826 -0.00270912 0.115959)
(3.00265 -0.0191385 0.15342)
(3.24461 -0.0130464 0.136686)
(2.98406 -0.0425959 0.128068)
(3.201 -0.041589 0.110868)
(2.85084 -0.0790708 0.0924473)
(3.11318 -0.0801771 0.0764948)
(2.68369 -0.128873 0.0572711)
(3.00677 -0.143388 0.0530402)
(2.50364 -0.206297 0.0329813)
(2.89436 -0.241129 0.0433379)
(2.34343 -0.335533 0.0170809)
(2.76685 -0.378675 0.0506941)
(2.26957 -0.583396 0.0055073)
(2.57813 -0.504802 0.0982635)
(2.41815 -1.14574 -0.0165266)
(2.26851 -0.314578 0.300519)
(2.85285 -2.40656 -0.0967477)
(2.52134 0.156313 0.7084)
(2.71755 -3.08234 0.114908)
(3.21113 -0.00237618 0.110867)
(2.85851 -0.00985284 0.161016)
(3.40784 -0.0128315 0.128762)
(2.79279 -0.0308503 0.139479)
(3.41172 -0.040328 0.0980928)
(2.60907 -0.061694 0.107692)
(3.38035 -0.0792928 0.0559885)
(2.3855 -0.105496 0.0805513)
(3.33641 -0.14666 0.0218203)
(2.14689 -0.172023 0.0682447)
(3.29924 -0.263734 -0.00385115)
(1.91955 -0.274098 0.0722488)
(3.27812 -0.472364 -0.0214761)
(1.74345 -0.435419 0.0936158)
(3.26846 -0.839124 -0.0187009)
(1.73806 -0.762292 0.135072)
(3.15732 -1.33831 0.0771828)
(2.27818 -1.88765 0.137913)
(2.56696 -0.813934 0.713185)
(3.12292 -4.44787 -0.427645)
(3.2481 0.0249707 0.106373)
(2.82219 -0.0407278 0.170839)
(3.45769 0.0238632 0.121846)
(2.74776 -0.0675085 0.15222)
(3.47537 0.0131499 0.08735)
(2.56558 -0.107134 0.122244)
(3.45746 -0.00811993 0.0390079)
(2.35798 -0.164563 0.0980766)
(3.42537 -0.0523922 -0.0034647)
(2.15945 -0.252261 0.0885146)
(3.39667 -0.139893 -0.0400745)
(1.99094 -0.38989 0.0940619)
(3.37893 -0.310631 -0.0710281)
(1.84417 -0.605269 0.112387)
(3.37432 -0.652501 -0.0887981)
(1.62138 -0.931665 0.154704)
(3.3473 -1.38311 -0.0908263)
(1.28847 -1.53246 0.263218)
(2.86301 -2.43331 -0.0637481)
(2.60026 -4.49471 -1.08519)
(2.94264 0.03385 0.0636309)
(3.01986 0.0529019 0.093163)
(3.05987 0.0540279 0.0865699)
(3.05622 0.0535717 0.0839983)
(3.03102 0.0523613 0.0767431)
(2.9956 0.0496362 0.0638468)
(2.9534 0.045931 0.0499722)
(2.90583 0.0419981 0.0390313)
(2.85508 0.0382136 0.0313939)
(2.80449 0.0344969 0.025799)
(2.75721 0.0306977 0.0214325)
(2.71538 0.0267455 0.0180532)
(2.68043 0.022662 0.015563)
(2.65292 0.0185664 0.0137724)
(2.63323 0.0145977 0.0124748)
(2.62106 0.0108635 0.0114575)
(2.616 0.00755171 0.01064)
(2.61692 0.00476262 0.00992574)
(2.6227 0.00263829 0.00928048)
(2.6317 0.00126442 0.00860651)
(3.00146 0.0424603 0.0635227)
(3.14299 0.0680122 0.0943651)
(3.27784 0.0707062 0.0901978)
(3.37809 0.0704854 0.0870879)
(3.45196 0.0694144 0.0825475)
(3.50916 0.0663096 0.0734184)
(3.55439 0.0615704 0.0620808)
(3.58923 0.0560016 0.0519725)
(3.61614 0.0501947 0.0442615)
(3.63757 0.0440777 0.0383752)
(3.6569 0.0375277 0.0335567)
(3.67598 0.0304784 0.0295769)
(3.69673 0.0230577 0.026386)
(3.7197 0.015471 0.0238636)
(3.74597 0.00799595 0.0217892)
(3.77538 0.000902202 0.0199796)
(3.80836 -0.00554044 0.0184591)
(3.84413 -0.0110477 0.0170352)
(3.88246 -0.0153519 0.0158115)
(3.92216 -0.0182111 0.0145495)
(3.00159 0.0163691 0.0631768)
(3.13349 0.0324537 0.0940773)
(3.2691 0.0381977 0.0897902)
(3.37649 0.0393199 0.0853434)
(3.46114 0.0390989 0.080622)
(3.53004 0.0369419 0.0718921)
(3.58888 0.0331312 0.060757)
(3.638 0.027729 0.0506741)
(3.68068 0.0213248 0.0430151)
(3.71749 0.0139464 0.0372658)
(3.75288 0.005703 0.0325216)
(3.78697 -0.00335147 0.0285546)
(3.82311 -0.0130228 0.025236)
(3.86012 -0.0229425 0.0223985)
(3.9005 -0.0328281 0.0201165)
(3.94236 -0.0421646 0.0181497)
(3.98776 -0.0506495 0.0164875)
(4.03435 -0.0577397 0.0148702)
(4.08384 -0.0631012 0.0134812)
(4.13332 -0.0662961 0.0120648)
(3.00173 0.0121137 0.0630904)
(3.12503 0.0249996 0.0944327)
(3.25546 0.0309484 0.0902289)
(3.35964 0.0308918 0.085286)
(3.4439 0.0293323 0.0802245)
(3.51178 0.0250841 0.0714975)
(3.57123 0.0197626 0.060171)
(3.62027 0.0122886 0.0500041)
(3.66455 0.00388631 0.0420716)
(3.70218 -0.0059951 0.0362034)
(3.73984 -0.0167839 0.0313557)
(3.77527 -0.0286018 0.0272854)
(3.81423 -0.0411112 0.0237901)
(3.85313 -0.0539173 0.0208871)
(3.89685 -0.0667192 0.0185011)
(3.94106 -0.0788119 0.0164142)
(3.99036 -0.0898082 0.0146308)
(4.03974 -0.0989094 0.0129008)
(4.09363 -0.105716 0.0114229)
(4.14627 -0.10959 0.00994805)
(3.00192 0.00763241 0.0631593)
(3.11931 0.0118229 0.0946309)
(3.2467 0.015428 0.0906333)
(3.34778 0.0125175 0.0854412)
(3.43122 0.0102544 0.0801422)
(3.49713 0.00347511 0.0712704)
(3.55618 -0.00282179 0.0596886)
(3.60361 -0.0127173 0.0493827)
(3.64795 -0.0225607 0.0411139)
(3.68445 -0.0351134 0.0353179)
(3.72236 -0.0480524 0.0302611)
(3.75715 -0.0627127 0.026301)
(3.7967 -0.0778376 0.0227073)
(3.83565 -0.0935459 0.019885)
(3.88063 -0.109175 0.0174548)
(3.92584 -0.123968 0.0153609)
(3.97735 -0.137453 0.013571)
(4.02874 -0.148532 0.0118107)
(4.08583 -0.156749 0.0103637)
(4.14121 -0.161191 0.00886307)
(3.00229 0.00663069 0.0634535)
(3.11515 0.00273674 0.0945537)
(3.24185 0.00699501 0.0910409)
(3.33973 -2.54224e-05 0.0858432)
(3.42272 -0.00102285 0.0805864)
(3.48548 -0.0119006 0.071792)
(3.54433 -0.0176121 0.0599386)
(3.58882 -0.0314066 0.0499681)
(3.63299 -0.0416122 0.0413147)
(3.66698 -0.0582885 0.0358274)
(3.70487 -0.0728107 0.0302795)
(3.73801 -0.0915847 0.0266928)
(3.77775 -0.109322 0.0227286)
(3.81621 -0.128954 0.0201913)
(3.86196 -0.147881 0.0175512)
(3.90814 -0.166191 0.0155681)
(3.96154 -0.182898 0.0137301)
(4.01541 -0.196606 0.0119639)
(4.07573 -0.206891 0.0105405)
(4.13475 -0.21228 0.00900804)
(3.00308 0.00837221 0.0640899)
(3.11047 -0.00717004 0.0940368)
(3.23887 0.00125914 0.0915491)
(3.33223 -0.0147591 0.0861445)
(3.4164 -0.0111609 0.0812279)
(3.47426 -0.0306982 0.0719875)
(3.53512 -0.0321686 0.0598015)
(3.57461 -0.0538753 0.0502789)
(3.62067 -0.0609785 0.0410317)
(3.64988 -0.0851056 0.0362507)
(3.68962 -0.0982949 0.0296834)
(3.7192 -0.123845 0.027096)
(3.76048 -0.14229 0.0221228)
(3.79729 -0.167758 0.0205682)
(3.8445 -0.189282 0.0171821)
(3.89148 -0.212282 0.0157985)
(3.94703 -0.232482 0.013709)
(4.00405 -0.249432 0.0121034)
(4.06791 -0.262297 0.0107641)
(4.13173 -0.268849 0.00921704)
(3.00494 0.0135968 0.0651498)
(3.10422 -0.0194026 0.0928368)
(3.23824 0.000841302 0.0921981)
(3.32384 -0.0314914 0.0858328)
(3.41308 -0.0152222 0.0821715)
(3.46164 -0.051166 0.071721)
(3.52932 -0.0400888 0.0597015)
(3.55833 -0.0779152 0.0505023)
(3.61157 -0.0738327 0.0405933)
(3.62995 -0.113433 0.0370136)
(3.67689 -0.117875 0.0286345)
(3.69708 -0.157435 0.0282198)
(3.74455 -0.170709 0.0208444)
(3.7751 -0.207802 0.0219201)
(3.82689 -0.228392 0.0162175)
(3.8722 -0.259849 0.0169469)
(3.93137 -0.282584 0.0136065)