/*--------------------------------*- C++ -*----------------------------------*\
| =========                 |                                                 |
| \\      /  F ield         | OpenFOAM: The Open Source CFD Toolbox           |
|  \\    /   O peration     | Version:  v1806                                 |
|   \\  /    A nd           | Web:      www.OpenFOAM.com                      |
|    \\/     M anipulation  |                                                 |
\*---------------------------------------------------------------------------*/
FoamFile
{
    version     2.0;
    format      ascii;
    class       volVectorField;
    location    "290";
    object      U;
}
// * * * * * * * * * * * * * * * * * * * * * * * * * * * * * * * * * * * * * //

dimensions      [0 1 -1 0 0 0 0];


internalField   nonuniform List<vector> 
4916
(
(-0.0122441 -0.0112589 -4.97286e-05)
(-0.0122428 -0.0112588 4.89104e-08)
(-0.0122428 -0.0112588 -4.89124e-08)
(-0.0122441 -0.0112589 4.97286e-05)
(-0.00573475 -0.00948209 -4.79943e-05)
(-0.00573618 -0.00948058 2.89694e-08)
(-0.00573618 -0.00948058 -2.89746e-08)
(-0.00573475 -0.00948209 4.79944e-05)
(-0.00675009 -0.0159301 -5.71698e-05)
(-0.00674991 -0.0159297 2.80845e-08)
(-0.00674991 -0.0159297 -2.8092e-08)
(-0.00675009 -0.0159301 5.71698e-05)
(-0.0129413 -0.0180472 -5.72097e-05)
(-0.0129396 -0.0180476 5.28826e-08)
(-0.0129396 -0.0180476 -5.28743e-08)
(-0.0129413 -0.0180472 5.72097e-05)
(-0.0181999 -0.0122755 -5.31836e-05)
(-0.0181943 -0.0122765 2.8598e-08)
(-0.0181943 -0.0122765 -2.86017e-08)
(-0.0181999 -0.0122755 5.31836e-05)
(-0.0192247 -0.00483258 -4.90718e-05)
(-0.0192194 -0.00483162 3.09303e-08)
(-0.0192194 -0.00483162 -3.09347e-08)
(-0.0192247 -0.00483258 4.90718e-05)
(0.189706 -0.03349 0.00155384)
(0.189721 -0.0334912 6.58688e-09)
(0.189721 -0.0334912 -6.58921e-09)
(0.189706 -0.03349 -0.00155384)
(0.168745 -0.0408592 0.00169449)
(0.168743 -0.0408876 8.17225e-08)
(0.168743 -0.0408876 -8.17249e-08)
(0.168745 -0.0408592 -0.00169449)
(0.203311 -0.0112679 0.00147622)
(0.203322 -0.0112706 5.46879e-08)
(0.203322 -0.0112706 -5.46899e-08)
(0.203311 -0.0112679 -0.00147622)
(0.183677 -0.0143781 0.00162016)
(0.183681 -0.0143851 1.42287e-08)
(0.183681 -0.0143851 -1.42312e-08)
(0.183677 -0.0143781 -0.00162016)
(0.222541 -0.021701 0.00129839)
(0.222544 -0.0216884 6.98926e-08)
(0.222544 -0.0216884 -6.98921e-08)
(0.222541 -0.021701 -0.00129839)
(0.219601 -0.00775086 0.00133694)
(0.219596 -0.00774933 7.77863e-08)
(0.219596 -0.00774932 -7.77862e-08)
(0.219601 -0.00775086 -0.00133694)
(-0.0124702 0.0163208 -8.89683e-05)
(-0.0124638 0.0163218 2.92297e-08)
(-0.0124638 0.0163218 -2.92274e-08)
(-0.0124702 0.0163208 8.89683e-05)
(-0.01662 0.0117841 -0.000107718)
(-0.0166168 0.0117796 4.82093e-08)
(-0.0166168 0.0117796 -4.82085e-08)
(-0.01662 0.0117841 0.000107718)
(-0.011442 -0.0140274 -8.61954e-05)
(-0.0114333 -0.0140243 3.52023e-08)
(-0.0114333 -0.0140243 -3.52065e-08)
(-0.011442 -0.0140274 8.61954e-05)
(-0.0157926 -0.0102229 -0.000105043)
(-0.015781 -0.0102163 7.37005e-08)
(-0.015781 -0.0102163 -7.37583e-08)
(-0.0157926 -0.0102229 0.000105043)
(-0.0164297 -0.022258 -8.12364e-05)
(-0.0164279 -0.0222544 2.25436e-08)
(-0.0164279 -0.0222544 -2.24825e-08)
(-0.0164297 -0.022258 8.12363e-05)
(0.0850557 0.17798 0.0016431)
(0.0850388 0.177941 6.97831e-07)
(0.0850388 0.177941 -6.97826e-07)
(0.0850557 0.17798 -0.0016431)
(0.115474 0.122086 0.00169901)
(0.1154 0.122068 2.58853e-07)
(0.1154 0.122068 -2.58871e-07)
(0.115474 0.122086 -0.00169901)
(0.105578 0.052854 0.00206432)
(0.105505 0.0528676 5.00526e-07)
(0.105505 0.0528676 -5.00526e-07)
(0.105578 0.052854 -0.00206432)
(0.0741377 0.0834851 0.00203919)
(0.0741798 0.0835008 -1.57603e-08)
(0.0741798 0.0835008 1.57557e-08)
(0.0741377 0.0834851 -0.00203919)
(0.217491 -0.0819197 0.00120342)
(0.217517 -0.0819273 -7.62434e-08)
(0.217517 -0.0819273 7.62441e-08)
(0.217491 -0.0819197 -0.00120342)
(0.20319 -0.100265 0.00125276)
(0.203198 -0.100252 -3.10354e-08)
(0.203198 -0.100252 3.10369e-08)
(0.20319 -0.100265 -0.00125276)
(-0.0411847 0.00736715 -6.44101e-05)
(-0.0411858 0.0073691 3.1597e-08)
(-0.0411858 0.0073691 -3.15953e-08)
(-0.0411847 0.00736715 6.44101e-05)
(-0.0343905 0.00708041 -5.89057e-05)
(-0.034384 0.00708622 2.51588e-08)
(-0.034384 0.00708622 -2.51564e-08)
(-0.0343905 0.00708041 5.89057e-05)
(-0.0127367 -0.00385524 -4.57712e-05)
(-0.0127367 -0.00385488 5.06239e-08)
(-0.0127367 -0.00385488 -5.06276e-08)
(-0.0127367 -0.00385524 4.57712e-05)
(-0.0137705 0.00366266 -4.621e-05)
(-0.0137681 0.0036617 4.87941e-08)
(-0.0137681 0.0036617 -4.87956e-08)
(-0.0137705 0.00366266 4.621e-05)
(-0.0206208 0.00272176 -4.93877e-05)
(-0.0206118 0.00272666 2.88936e-08)
(-0.0206118 0.00272666 -2.88933e-08)
(-0.0206208 0.00272176 4.93877e-05)
(-0.00576407 -0.00276102 -4.43258e-05)
(-0.00576652 -0.0027596 2.3605e-08)
(-0.00576652 -0.0027596 -2.36063e-08)
(-0.00576407 -0.00276102 4.43258e-05)
(-0.0280752 0.00903051 -5.21316e-05)
(-0.0280718 0.00903661 6.97088e-08)
(-0.0280718 0.00903661 -6.97058e-08)
(-0.0280752 0.00903051 5.21316e-05)
(-0.0270949 0.00117907 -5.31063e-05)
(-0.0270954 0.001176 1.65296e-08)
(-0.0270954 0.001176 -1.65274e-08)
(-0.0270949 0.00117907 5.31063e-05)
(-0.0342636 0.000362295 -5.72392e-05)
(-0.0342642 0.000365217 2.9273e-08)
(-0.0342642 0.000365217 -2.92708e-08)
(-0.0342636 0.000362295 5.72392e-05)
(-0.0416597 -0.000244873 -6.3047e-05)
(-0.0416607 -0.000244081 2.78764e-08)
(-0.0416607 -0.000244081 -2.78743e-08)
(-0.0416597 -0.000244873 6.3047e-05)
(-0.0488879 0.00803193 -7.19895e-05)
(-0.0488902 0.00803457 2.38558e-08)
(-0.0488902 0.00803457 -2.38543e-08)
(-0.0488879 0.00803193 7.19895e-05)
(-0.0495039 -0.000210721 -7.03693e-05)
(-0.0495083 -0.000208556 2.47753e-08)
(-0.0495083 -0.000208556 -2.47746e-08)
(-0.0495039 -0.000210721 7.03693e-05)
(-0.0582805 4.44563e-05 -7.96504e-05)
(-0.0582826 4.69967e-05 3.99449e-08)
(-0.0582826 4.69967e-05 -3.99462e-08)
(-0.0582805 4.44563e-05 7.96504e-05)
(-0.0575247 0.0083748 -8.17028e-05)
(-0.057529 0.00837777 2.99395e-08)
(-0.057529 0.00837777 -2.99399e-08)
(-0.0575247 0.0083748 8.17028e-05)
(0.101952 -0.0241476 0.0020774)
(0.101949 -0.0241524 2.01246e-07)
(0.101949 -0.0241524 -2.01241e-07)
(0.101952 -0.0241476 -0.0020774)
(0.13411 -0.022022 0.00192085)
(0.134096 -0.022041 6.51449e-08)
(0.134096 -0.022041 -6.51411e-08)
(0.13411 -0.022022 -0.00192085)
(0.0997669 0.0149733 0.00210961)
(0.0998089 0.0149359 7.3053e-08)
(0.0998089 0.0149359 -7.3046e-08)
(0.0997669 0.0149733 -0.00210961)
(0.128303 0.0137684 0.0019737)
(0.128288 0.0137705 2.21173e-07)
(0.128288 0.0137705 -2.21168e-07)
(0.128303 0.0137684 -0.0019737)
(0.162421 -0.0165857 0.00177236)
(0.162421 -0.0165998 1.14392e-07)
(0.162421 -0.0165998 -1.14392e-07)
(0.162421 -0.0165857 -0.00177236)
(0.159358 0.00603135 0.0017908)
(0.159333 0.00601091 1.52715e-07)
(0.159333 0.00601091 -1.52714e-07)
(0.159358 0.00603135 -0.0017908)
(0.182589 0.00646023 0.00163368)
(0.182586 0.00646196 7.41325e-08)
(0.182586 0.00646196 -7.4133e-08)
(0.182589 0.00646023 -0.00163368)
(0.201619 0.00548175 0.00148853)
(0.201622 0.00547056 6.3373e-08)
(0.201622 0.00547056 -6.33745e-08)
(0.201619 0.00548175 -0.00148853)
(0.218924 0.00606822 0.00134581)
(0.218913 0.0060688 1.15798e-07)
(0.218913 0.0060688 -1.15796e-07)
(0.218924 0.00606822 -0.00134581)
(0.233971 0.00518046 0.00120932)
(0.233958 0.00518598 1.02872e-07)
(0.233958 0.00518598 -1.0287e-07)
(0.233971 0.00518046 -0.00120932)
(0.234552 -0.00612614 0.00120533)
(0.234538 -0.00611738 1.39752e-07)
(0.234538 -0.00611738 -1.39751e-07)
(0.234552 -0.00612614 -0.00120533)
(-0.031796 0.0135067 -6.56616e-05)
(-0.0317866 0.0135042 -9.43262e-09)
(-0.0317866 0.0135042 9.43712e-09)
(-0.031796 0.0135067 6.56616e-05)
(0.207385 -0.0268504 0.00142543)
(0.207401 -0.0268467 2.57886e-08)
(0.207401 -0.0268467 -2.57905e-08)
(0.207385 -0.0268504 -0.00142543)
(0.236839 -0.0176056 0.00117334)
(0.236826 -0.0175976 1.43203e-07)
(0.236826 -0.0175976 -1.43202e-07)
(0.236839 -0.0176056 -0.00117334)
(-0.0389086 0.0146888 -6.87818e-05)
(-0.0389137 0.0146893 2.43641e-08)
(-0.0389137 0.0146893 -2.4362e-08)
(-0.0389086 0.0146888 6.87818e-05)
(-0.0458843 0.0155708 -7.64539e-05)
(-0.0458874 0.0155721 1.86417e-08)
(-0.0458874 0.0155721 -1.86418e-08)
(-0.0458843 0.0155708 7.64539e-05)
(-0.053914 0.0161463 -8.69765e-05)
(-0.0539199 0.0161482 2.52665e-08)
(-0.0539199 0.0161482 -2.52687e-08)
(-0.053914 0.0161463 8.69765e-05)
(-0.067199 -0.000226662 -9.16972e-05)
(-0.0671969 -0.000229504 3.51593e-08)
(-0.0671969 -0.000229504 -3.51611e-08)
(-0.067199 -0.000226662 9.16972e-05)
(-0.0666087 0.00824492 -9.39165e-05)
(-0.0666091 0.00824395 3.74872e-08)
(-0.0666091 0.00824395 -3.74875e-08)
(-0.0666087 0.00824492 9.39165e-05)
(-0.0624825 0.0160025 -9.97727e-05)
(-0.0624835 0.0160081 4.04647e-08)
(-0.0624835 0.0160081 -4.04661e-08)
(-0.0624825 0.0160025 9.97727e-05)
(-0.0259724 -0.00587306 -5.29885e-05)
(-0.0259712 -0.00587012 3.8453e-08)
(-0.0259712 -0.00587012 -3.84538e-08)
(-0.0259724 -0.00587306 5.29885e-05)
(-0.0328327 -0.00668255 -5.78707e-05)
(-0.032831 -0.00668285 3.33327e-08)
(-0.032831 -0.00668285 -3.33325e-08)
(-0.0328327 -0.00668255 5.78707e-05)
(-0.0400636 -0.00776651 -6.42109e-05)
(-0.0400644 -0.00776708 3.10408e-08)
(-0.0400644 -0.00776708 -3.10418e-08)
(-0.0400636 -0.00776651 6.42109e-05)
(-0.047654 -0.00826913 -7.19043e-05)
(-0.0476588 -0.00826809 2.74018e-08)
(-0.0476588 -0.00826809 -2.74037e-08)
(-0.047654 -0.00826913 7.19043e-05)
(-0.0558911 -0.00820051 -8.11937e-05)
(-0.0558917 -0.00820169 4.73834e-08)
(-0.0558917 -0.00820169 -4.73867e-08)
(-0.0558911 -0.00820051 8.11937e-05)
(-0.06432 -0.00845797 -9.36827e-05)
(-0.0643155 -0.00846162 3.51233e-08)
(-0.0643155 -0.00846162 -3.51262e-08)
(-0.06432 -0.00845797 9.36827e-05)
(-0.00626025 0.00397748 -4.44932e-05)
(-0.00626035 0.00398178 2.70312e-08)
(-0.00626035 0.00398178 -2.70332e-08)
(-0.00626025 0.00397748 4.44932e-05)
(-0.0232652 0.0105526 -5.50626e-05)
(-0.023267 0.010558 -6.56919e-09)
(-0.023267 0.010558 6.57071e-09)
(-0.0232652 0.0105526 5.50626e-05)
(-0.0150369 0.0110185 -4.9542e-05)
(-0.0150349 0.0110163 6.17714e-08)
(-0.0150349 0.0110163 -6.17725e-08)
(-0.0150369 0.0110185 4.9542e-05)
(0.0612199 0.0260108 0.00220378)
(0.0612354 0.0260109 -8.89684e-09)
(0.0612354 0.0260109 8.89744e-09)
(0.0612199 0.0260108 -0.00220378)
(0.056916 -0.0247316 0.00219267)
(0.0569079 -0.0247273 1.12547e-07)
(0.0569079 -0.0247273 -1.12547e-07)
(0.056916 -0.0247316 -0.00219267)
(0.141111 -0.0502142 0.00184492)
(0.141096 -0.050236 1.46446e-07)
(0.141096 -0.050236 -1.46445e-07)
(0.141111 -0.0502142 -0.00184492)
(0.109425 -0.0618365 0.00198121)
(0.109448 -0.0618624 1.27494e-07)
(0.109448 -0.0618624 -1.27491e-07)
(0.109425 -0.0618365 -0.00198121)
(0.136529 0.030834 0.00187642)
(0.136491 0.0308437 4.00193e-08)
(0.136491 0.0308437 -4.00134e-08)
(0.136529 0.030834 -0.00187642)
(0.166052 0.0356675 0.00173083)
(0.166042 0.0356279 2.19866e-07)
(0.166042 0.0356279 -2.19864e-07)
(0.166052 0.0356675 -0.00173083)
(0.185813 0.0276846 0.00158994)
(0.185809 0.0276909 -5.74799e-09)
(0.185809 0.0276909 5.74774e-09)
(0.185813 0.0276846 -0.00158994)
(0.203534 0.0247401 0.00146336)
(0.203549 0.024724 9.69538e-08)
(0.203549 0.024724 -9.6955e-08)
(0.203534 0.0247401 -0.00146336)
(0.219738 0.0199761 0.00132617)
(0.219716 0.0199942 1.39167e-07)
(0.219716 0.0199942 -1.39166e-07)
(0.219738 0.0199761 -0.00132617)
(0.235137 0.0176724 0.00119004)
(0.235128 0.0176715 1.12611e-07)
(0.235128 0.0176715 -1.12609e-07)
(0.235137 0.0176724 -0.00119004)
(0.247885 0.0153327 0.00106693)
(0.247865 0.0153447 1.427e-07)
(0.247865 0.0153447 -1.42699e-07)
(0.247885 0.0153327 -0.00106693)
(0.247011 0.00540487 0.0010845)
(0.246992 0.00540229 1.34825e-07)
(0.246992 0.00540229 -1.34824e-07)
(0.247011 0.00540487 -0.0010845)
(0.247106 -0.00484307 0.0010825)
(0.247085 -0.00484303 1.18509e-07)
(0.247085 -0.00484303 -1.18508e-07)
(0.247106 -0.00484307 -0.0010825)
(0.248568 -0.0150221 0.00105981)
(0.248547 -0.0150121 1.41896e-07)
(0.248547 -0.0150121 -1.41894e-07)
(0.248568 -0.0150221 -0.00105981)
(0.178197 -0.0625881 0.00158221)
(0.178212 -0.0626154 -7.92045e-08)
(0.178212 -0.0626154 7.92063e-08)
(0.178197 -0.0625881 -0.00158221)
(0.19735 -0.0515105 0.0014602)
(0.197383 -0.0515139 -9.06522e-08)
(0.197383 -0.0515139 9.0652e-08)
(0.19735 -0.0515105 -0.0014602)
(0.213573 -0.0414018 0.00134626)
(0.213598 -0.0413974 7.56664e-09)
(0.213598 -0.0413974 -7.56791e-09)
(0.213573 -0.0414018 -0.00134626)
(0.227195 -0.0342631 0.00123584)
(0.227198 -0.0342433 1.0344e-07)
(0.227198 -0.0342433 -1.0344e-07)
(0.227195 -0.0342631 -0.00123584)
(0.239794 -0.02856 0.00112638)
(0.23978 -0.0285492 1.60352e-07)
(0.23978 -0.0285492 -1.6035e-07)
(0.239794 -0.02856 -0.00112638)
(0.250834 -0.0249135 0.0010198)
(0.250811 -0.0249007 1.78549e-07)
(0.250811 -0.0249007 -1.78546e-07)
(0.250834 -0.0249135 -0.0010198)
(0.154069 -0.0772568 0.00169878)
(0.154057 -0.0772758 1.4938e-08)
(0.154057 -0.0772758 -1.49378e-08)
(0.154069 -0.0772568 -0.00169878)
(0.125864 -0.0956024 0.00180314)
(0.125829 -0.095636 1.02936e-07)
(0.125829 -0.095636 -1.02937e-07)
(0.125864 -0.0956024 -0.00180314)
(0.0690619 -0.0735741 0.00207965)
(0.0691119 -0.0735624 1.89639e-08)
(0.0691119 -0.0735624 -1.89666e-08)
(0.0690619 -0.0735741 -0.00207964)
(-0.00716343 0.0105359 -4.90442e-05)
(-0.00716873 0.0105347 5.38677e-09)
(-0.00716873 0.0105347 -5.38977e-09)
(-0.00716343 0.0105359 4.90442e-05)
(-0.024478 -0.0128627 -5.69498e-05)
(-0.024476 -0.0128647 3.57238e-08)
(-0.024476 -0.0128647 -3.57264e-08)
(-0.024478 -0.0128627 5.69498e-05)
(-0.0305977 -0.013778 -6.21154e-05)
(-0.0305955 -0.0137812 2.70934e-08)
(-0.0305955 -0.0137812 -2.7096e-08)
(-0.0305977 -0.013778 6.21154e-05)
(-0.0368165 -0.0148587 -6.85501e-05)
(-0.036819 -0.0148628 2.52719e-08)
(-0.036819 -0.0148628 -2.52756e-08)
(-0.0368165 -0.0148587 6.85501e-05)
(-0.0435739 -0.0157019 -7.66918e-05)
(-0.0435784 -0.0157041 3.08028e-08)
(-0.0435784 -0.0157041 -3.0808e-08)
(-0.0435739 -0.0157019 7.66918e-05)
(-0.0507824 -0.0159888 -8.65077e-05)
(-0.0507816 -0.0159943 4.15555e-08)
(-0.0507816 -0.0159943 -4.15615e-08)
(-0.0507824 -0.0159888 8.65077e-05)
(-0.0579622 -0.0162692 -9.93142e-05)
(-0.0579578 -0.0162746 3.22847e-08)
(-0.0579578 -0.0162746 -3.22885e-08)
(-0.0579622 -0.0162692 9.93142e-05)
(-0.0654251 -0.0156234 -0.000114433)
(-0.0654209 -0.0156319 3.23152e-08)
(-0.0654209 -0.0156319 -3.23172e-08)
(-0.0654251 -0.0156234 0.000114433)
(-0.072973 -0.00800852 -0.000108015)
(-0.0729682 -0.00801324 3.51472e-08)
(-0.0729682 -0.00801324 -3.51483e-08)
(-0.072973 -0.00800852 0.000108015)
(-0.076362 0.000125233 -0.000105641)
(-0.0763555 0.000121796 4.31374e-08)
(-0.0763555 0.000121796 -4.31372e-08)
(-0.076362 0.000125233 0.000105641)
(-0.0754786 0.00815321 -0.000108054)
(-0.0754697 0.00815312 5.17632e-08)
(-0.0754697 0.00815312 -5.17614e-08)
(-0.0754786 0.00815321 0.000108054)
(-0.0704645 0.0156308 -0.000115028)
(-0.0704526 0.0156331 5.19999e-08)
(-0.0704526 0.0156331 -5.2e-08)
(-0.0704645 0.0156308 0.000115028)
(-0.0613824 0.0223128 -0.000123961)
(-0.0613745 0.0223201 5.37307e-08)
(-0.0613745 0.0223201 -5.37295e-08)
(-0.0613824 0.0223128 0.000123961)
(-0.0557827 0.0222583 -0.00010768)
(-0.0557844 0.0222643 1.73998e-08)
(-0.0557844 0.0222643 -1.73988e-08)
(-0.0557827 0.0222583 0.00010768)
(-0.0481064 0.0225792 -9.44581e-05)
(-0.0481084 0.0225822 3.2978e-08)
(-0.0481084 0.0225822 -3.29815e-08)
(-0.0481064 0.0225792 9.44581e-05)
(-0.0409692 0.0217556 -8.27378e-05)
(-0.0409721 0.021757 2.31809e-08)
(-0.0409721 0.021757 -2.31849e-08)
(-0.0409692 0.0217556 8.27378e-05)
(-0.0347806 0.0203292 -7.35093e-05)
(-0.0347743 0.0203328 2.623e-08)
(-0.0347743 0.0203328 -2.62307e-08)
(-0.0347806 0.0203292 7.35093e-05)
(-0.0291465 0.0175823 -6.43093e-05)
(-0.0291386 0.0175761 6.86862e-08)
(-0.0291386 0.0175761 -6.86871e-08)
(-0.0291465 0.0175823 6.43093e-05)
(-0.0228027 0.0168981 -6.01215e-05)
(-0.0228025 0.0168932 2.79607e-08)
(-0.0228025 0.0168932 -2.79627e-08)
(-0.0228027 0.0168981 6.01215e-05)
(-0.0158553 0.0176577 -5.62046e-05)
(-0.0158512 0.0176642 6.08306e-08)
(-0.0158512 0.0176642 -6.08315e-08)
(-0.0158553 0.0176577 5.62046e-05)
(0.1328 0.0783604 0.00176335)
(0.132774 0.0783448 -1.35551e-07)
(0.132774 0.0783448 1.35553e-07)
(0.1328 0.0783604 -0.00176335)
(0.17722 0.0550862 0.00165183)
(0.177232 0.0550733 3.52755e-07)
(0.177232 0.0550733 -3.52752e-07)
(0.17722 0.0550862 -0.00165183)
(0.189392 0.0497139 0.00150618)
(0.189364 0.0497215 5.9634e-08)
(0.189364 0.0497215 -5.96325e-08)
(0.189392 0.0497139 -0.00150618)
(0.210396 0.0397761 0.00139004)
(0.210398 0.0397997 2.109e-07)
(0.210398 0.0397997 -2.109e-07)
(0.210396 0.0397761 -0.00139004)
(0.22263 0.0338094 0.0012688)
(0.222603 0.0338297 8.70711e-08)
(0.222603 0.0338297 -8.70701e-08)
(0.22263 0.0338094 -0.0012688)
(0.23854 0.0290503 0.00114517)
(0.238541 0.0290566 1.16921e-07)
(0.238541 0.0290566 -1.1692e-07)
(0.23854 0.0290503 -0.00114517)
(0.249674 0.0243422 0.00102878)
(0.249651 0.0243573 1.10007e-07)
(0.249651 0.0243573 -1.10007e-07)
(0.249674 0.0243422 -0.00102878)
(0.26049 0.0212971 0.000926917)
(0.260478 0.0213034 8.91562e-08)
(0.260478 0.0213034 -8.91556e-08)
(0.26049 0.0212971 -0.000926917)
(0.258623 0.0126757 0.000959817)
(0.258603 0.0126812 1.21928e-07)
(0.258603 0.0126812 -1.21927e-07)
(0.258623 0.0126757 -0.000959817)
(0.257788 0.00394799 0.000976565)
(0.257767 0.00395284 1.18251e-07)
(0.257767 0.00395284 -1.18249e-07)
(0.257788 0.00394799 -0.000976565)
(0.257842 -0.00457237 0.000976329)
(0.257824 -0.00456789 1.16918e-07)
(0.257824 -0.00456789 -1.16916e-07)
(0.257842 -0.00457237 -0.000976329)
(0.258681 -0.0134679 0.000959346)
(0.258661 -0.0134641 1.35189e-07)
(0.258661 -0.0134641 -1.35187e-07)
(0.258681 -0.0134679 -0.000959346)
(0.260594 -0.0217748 0.000923242)
(0.26057 -0.0217687 1.61579e-07)
(0.26057 -0.0217687 -1.61577e-07)
(0.260594 -0.0217748 -0.000923242)
(0.191436 -0.0823089 0.0014316)
(0.191436 -0.0823136 -3.66442e-08)
(0.191436 -0.0823136 3.66446e-08)
(0.191436 -0.0823089 -0.0014316)
(0.205951 -0.067738 0.00134347)
(0.205984 -0.0677346 -9.95447e-08)
(0.205984 -0.0677346 9.95433e-08)
(0.205951 -0.067738 -0.00134347)
(0.220756 -0.0559075 0.00124987)
(0.220787 -0.0559071 -5.62309e-08)
(0.220787 -0.0559071 5.62303e-08)
(0.220756 -0.0559075 -0.00124987)
(0.232716 -0.0467576 0.00115285)
(0.232722 -0.046748 1.16249e-07)
(0.232722 -0.046748 -1.16248e-07)
(0.232716 -0.0467576 -0.00115285)
(0.244319 -0.0395886 0.00105532)
(0.2443 -0.0395771 1.93813e-07)
(0.2443 -0.0395771 -1.93811e-07)
(0.244319 -0.0395886 -0.00105532)
(0.253602 -0.0345578 0.000966802)
(0.253578 -0.0345452 2.01862e-07)
(0.253578 -0.0345452 -2.0186e-07)
(0.253602 -0.0345578 -0.000966802)
(0.262845 -0.0297131 0.000877179)
(0.26282 -0.0297088 1.74565e-07)
(0.26282 -0.0297088 -1.74564e-07)
(0.262845 -0.0297131 -0.000877179)
(-0.00825709 0.0180799 -5.54065e-05)
(-0.00825395 0.0180833 4.00213e-08)
(-0.00825395 0.0180833 -4.00252e-08)
(-0.00825709 0.0180799 5.54065e-05)
(-0.0500228 0.0272672 -0.000133522)
(-0.0500142 0.0272824 3.33229e-08)
(-0.0500142 0.0272824 -3.33239e-08)
(-0.0500228 0.0272672 0.000133522)
(-0.0453259 0.0281858 -0.00011784)
(-0.0453257 0.0281912 3.22186e-08)
(-0.0453257 0.0281912 -3.22244e-08)
(-0.0453259 0.0281858 0.00011784)
(-0.0405289 0.0278514 -0.000102783)
(-0.0405331 0.0278542 2.10519e-08)
(-0.0405331 0.0278542 -2.106e-08)
(-0.0405289 0.0278514 0.000102783)
(-0.0348448 0.0267808 -9.0177e-05)
(-0.0348489 0.0267833 1.70941e-08)
(-0.0348489 0.0267833 -1.7101e-08)
(-0.0348448 0.0267808 9.0177e-05)
(-0.0302366 0.0251683 -8.03618e-05)
(-0.0302366 0.0251723 1.34692e-08)
(-0.0302366 0.0251723 -1.34731e-08)
(-0.0302366 0.0251683 8.03618e-05)
(-0.0261048 0.0235103 -7.33487e-05)
(-0.0261041 0.0235191 1.41654e-08)
(-0.0261041 0.0235191 -1.41683e-08)
(-0.0261048 0.0235103 7.33487e-05)
(-0.0216476 0.0225596 -6.85358e-05)
(-0.0216439 0.0225606 1.08039e-08)
(-0.0216439 0.0225606 -1.0806e-08)
(-0.0216476 0.0225596 6.85358e-05)
(-0.0172747 0.0229146 -6.55541e-05)
(-0.0172737 0.0229206 2.70186e-08)
(-0.0172737 0.0229206 -2.70204e-08)
(-0.0172747 0.0229146 6.55541e-05)
(-0.0727569 -0.013664 -0.000130296)
(-0.0727475 -0.0136693 3.12442e-08)
(-0.0727475 -0.0136693 -3.12457e-08)
(-0.0727569 -0.013664 0.000130296)
(-0.0811388 -0.00689367 -0.000123017)
(-0.0811291 -0.0068962 3.57127e-08)
(-0.0811291 -0.0068962 -3.57156e-08)
(-0.0811388 -0.00689367 0.000123017)
(-0.0847632 0.000493496 -0.000120463)
(-0.0847525 0.000494167 3.47174e-08)
(-0.0847525 0.000494167 -3.47191e-08)
(-0.0847632 0.000493496 0.000120463)
(-0.0834693 0.00791302 -0.000123712)
(-0.0834574 0.00791683 3.2755e-08)
(-0.0834574 0.00791683 -3.27547e-08)
(-0.0834693 0.00791302 0.000123712)
(-0.0769655 0.0152053 -0.000132611)
(-0.0769542 0.0152106 2.11144e-08)
(-0.0769542 0.0152106 -2.11167e-08)
(-0.0769655 0.0152053 0.000132611)
(-0.0659523 0.0213285 -0.000144753)
(-0.0659403 0.0213352 1.87619e-08)
(-0.0659403 0.0213352 -1.87623e-08)
(-0.0659523 0.0213285 0.000144753)
(-0.0520583 0.0255565 -0.000157043)
(-0.0520486 0.0255651 9.70952e-09)
(-0.0520486 0.0255651 -9.70952e-09)
(-0.0520583 0.0255565 0.000157043)
(-0.0177816 -0.0186117 -6.0121e-05)
(-0.0177742 -0.0186139 3.05368e-08)
(-0.0177742 -0.0186139 -3.05369e-08)
(-0.0177816 -0.0186117 6.0121e-05)
(-0.0227366 -0.0189187 -6.35648e-05)
(-0.0227334 -0.0189221 3.23109e-08)
(-0.0227334 -0.0189221 -3.23127e-08)
(-0.0227366 -0.0189187 6.35648e-05)
(-0.0274641 -0.0196459 -6.84248e-05)
(-0.0274604 -0.019649 2.65995e-08)
(-0.0274604 -0.019649 -2.66014e-08)
(-0.0274641 -0.0196459 6.84248e-05)
(-0.0322627 -0.0208702 -7.52332e-05)
(-0.0322647 -0.0208765 1.76864e-08)
(-0.0322647 -0.0208765 -1.76894e-08)
(-0.0322627 -0.0208702 7.52332e-05)
(-0.0375642 -0.0218884 -8.36832e-05)
(-0.0375687 -0.0218942 2.76148e-08)
(-0.0375687 -0.0218942 -2.76198e-08)
(-0.0375642 -0.0218884 8.36833e-05)
(-0.0431832 -0.0224903 -9.42619e-05)
(-0.0431821 -0.0224987 3.41444e-08)
(-0.0431821 -0.0224987 -3.41504e-08)
(-0.0431832 -0.0224903 9.4262e-05)
(-0.0487291 -0.0226263 -0.000107516)
(-0.048723 -0.0226346 3.10858e-08)
(-0.048723 -0.0226346 -3.10895e-08)
(-0.0487291 -0.0226263 0.000107516)
(-0.0546197 -0.0217186 -0.000123556)
(-0.0546157 -0.0217293 1.41015e-08)
(-0.0546157 -0.0217293 -1.41028e-08)
(-0.0546197 -0.0217186 0.000123556)
(-0.0600717 -0.0195249 -0.000140279)
(-0.0600642 -0.0195318 2.5719e-08)
(-0.0600642 -0.0195318 -2.57196e-08)
(-0.0600717 -0.0195249 0.000140279)
(0.16769 -0.101926 0.0015125)
(0.167669 -0.101939 9.97723e-08)
(0.167669 -0.101939 -9.9776e-08)
(0.16769 -0.101926 -0.0015125)
(0.0803791 -0.118963 0.00184933)
(0.0803484 -0.118986 1.61035e-07)
(0.0803484 -0.118986 -1.61037e-07)
(0.0803791 -0.118963 -0.00184933)
(0.146811 -0.134309 0.00155614)
(0.146796 -0.134356 -2.54613e-08)
(0.146796 -0.134356 2.54651e-08)
(0.146811 -0.134309 -0.00155614)
(0.107785 -0.176693 0.00147097)
(0.107804 -0.176723 -4.86433e-08)
(0.107804 -0.176723 4.86548e-08)
(0.107785 -0.176693 -0.00147097)
(0.150121 0.0980715 0.00165866)
(0.15008 0.0980429 3.71637e-07)
(0.15008 0.0980429 -3.71632e-07)
(0.150121 0.0980715 -0.00165866)
(0.183134 0.082015 0.00150045)
(0.183106 0.0820804 1.8799e-07)
(0.183106 0.0820804 -1.87985e-07)
(0.183134 0.082015 -0.00150045)
(0.200841 0.0665798 0.00137815)
(0.200816 0.0666002 1.33461e-07)
(0.200816 0.0666002 -1.33457e-07)
(0.200841 0.0665798 -0.00137815)
(0.21835 0.0559473 0.00127566)
(0.218346 0.0559928 3.80516e-08)
(0.218346 0.0559928 -3.80499e-08)
(0.21835 0.0559473 -0.00127566)
(0.229449 0.0476508 0.00117708)
(0.229455 0.0476498 3.25819e-09)
(0.229455 0.0476498 -3.2563e-09)
(0.229449 0.0476508 -0.00117708)
(0.242653 0.0403003 0.00107687)
(0.242652 0.0403087 8.43107e-08)
(0.242652 0.0403087 -8.43101e-08)
(0.242653 0.0403003 -0.00107687)
(0.252806 0.0338453 0.000972422)
(0.252788 0.0338518 9.60598e-08)
(0.252788 0.0338518 -9.60597e-08)
(0.252806 0.0338453 -0.000972422)
(0.262839 0.0293502 0.00088002)
(0.262827 0.0293568 8.86842e-08)
(0.262827 0.0293568 -8.86839e-08)
(0.262839 0.0293502 -0.00088002)
(0.270072 0.02551 0.000798567)
(0.270054 0.0255153 7.46603e-08)
(0.270054 0.0255153 -7.46594e-08)
(0.270072 0.02551 -0.000798567)
(0.268331 0.0186584 0.000840684)
(0.268313 0.0186666 8.32466e-08)
(0.268313 0.0186666 -8.32455e-08)
(0.268331 0.0186584 -0.000840684)
(0.267176 0.0113337 0.000870379)
(0.267157 0.0113397 9.79993e-08)
(0.267157 0.0113397 -9.79979e-08)
(0.267176 0.0113337 -0.000870379)
(0.266462 0.00401562 0.000885619)
(0.266446 0.00401784 8.11522e-08)
(0.266446 0.00401784 -8.11506e-08)
(0.266462 0.00401562 -0.000885619)
(0.266431 -0.0040405 0.000885519)
(0.266415 -0.00404007 7.9523e-08)
(0.266415 -0.00404007 -7.95211e-08)
(0.266431 -0.0040405 -0.000885519)
(0.267119 -0.0115499 0.000870418)
(0.267101 -0.0115479 8.75435e-08)
(0.267101 -0.0115479 -8.75417e-08)
(0.267119 -0.0115499 -0.000870418)
(0.268508 -0.0190689 0.000839401)
(0.26849 -0.0190621 9.97118e-08)
(0.26849 -0.0190621 -9.97103e-08)
(0.268508 -0.0190689 -0.000839401)
(0.270356 -0.0260471 0.000796014)
(0.270337 -0.02604 1.22857e-07)
(0.270337 -0.02604 -1.22856e-07)
(0.270356 -0.0260471 -0.000796014)
(0.228244 -0.0689579 0.0011326)
(0.228268 -0.0689541 -3.5466e-08)
(0.228268 -0.0689541 3.54662e-08)
(0.228244 -0.0689579 -0.0011326)
(0.239746 -0.0578211 0.00105021)
(0.239755 -0.0578257 5.41133e-08)
(0.239755 -0.0578257 -5.41126e-08)
(0.239746 -0.0578211 -0.00105021)
(0.249271 -0.0501379 0.000967931)
(0.24926 -0.0501299 1.71706e-07)
(0.24926 -0.0501299 -1.71705e-07)
(0.249271 -0.0501379 -0.000967931)
(0.258129 -0.0431043 0.000888469)
(0.2581 -0.0431017 2.47963e-07)
(0.2581 -0.0431017 -2.47962e-07)
(0.258129 -0.0431043 -0.000888469)
(0.265853 -0.0368917 0.000814433)
(0.265824 -0.0368904 1.88321e-07)
(0.265824 -0.0368904 -1.8832e-07)
(0.265853 -0.0368917 -0.000814433)
(0.272576 -0.0322405 0.000743923)
(0.272556 -0.0322361 1.3032e-07)
(0.272556 -0.0322361 -1.30319e-07)
(0.272576 -0.0322405 -0.000743923)
(0.194876 -0.119989 0.00127174)
(0.194883 -0.120065 -1.19254e-07)
(0.194883 -0.120065 1.19251e-07)
(0.194876 -0.119989 -0.00127174)
(0.172265 -0.158423 0.00117258)
(0.172241 -0.158467 -1.48218e-07)
(0.172241 -0.158467 1.48217e-07)
(0.172265 -0.158423 -0.00117258)
(0.201855 -0.207114 0.000843755)
(0.201937 -0.207236 -2.86877e-07)
(0.201937 -0.207236 2.86882e-07)
(0.201855 -0.207114 -0.000843755)
(0.277122 0.0218309 0.000727565)
(0.277105 0.0218338 6.70024e-08)
(0.277105 0.0218338 -6.70016e-08)
(0.277122 0.0218309 -0.000727565)
(0.27557 0.0158871 0.000766201)
(0.275554 0.0158928 7.07409e-08)
(0.275554 0.0158928 -7.074e-08)
(0.27557 0.0158871 -0.000766201)
(0.2744 0.00964237 0.000793218)
(0.274385 0.00965045 6.18739e-08)
(0.274385 0.00965045 -6.1873e-08)
(0.2744 0.00964237 -0.000793218)
(0.273864 0.00308174 0.000806925)
(0.273851 0.00308929 6.3776e-08)
(0.273851 0.00308929 -6.37752e-08)
(0.273864 0.00308174 -0.000806925)
(0.27388 -0.00345241 0.000806814)
(0.273867 -0.00345017 6.83922e-08)
(0.273867 -0.00345017 -6.83914e-08)
(0.27388 -0.00345241 -0.000806814)
(0.274363 -0.0100817 0.000793327)
(0.27435 -0.0100808 6.85357e-08)
(0.27435 -0.0100808 -6.85351e-08)
(0.274363 -0.0100817 -0.000793327)
(0.27543 -0.0164167 0.00076622)
(0.275415 -0.016413 8.60135e-08)
(0.275415 -0.016413 -8.6013e-08)
(0.27543 -0.0164167 -0.00076622)
(0.276965 -0.0222019 0.000726909)
(0.276946 -0.0221994 1.1528e-07)
(0.276946 -0.0221994 -1.1528e-07)
(0.276965 -0.0222019 -0.000726909)
(0.278761 -0.0274434 0.00067825)
(0.27874 -0.0274398 1.14632e-07)
(0.27874 -0.0274398 -1.14631e-07)
(0.278761 -0.0274434 -0.00067825)
(0.184973 0.199157 0.000968162)
(0.184996 0.199248 5.40203e-08)
(0.184996 0.199248 -5.40209e-08)
(0.184973 0.199157 -0.000968162)
(0.16177 0.156964 0.00123621)
(0.161723 0.156949 4.7882e-08)
(0.161723 0.156949 -4.79002e-08)
(0.16177 0.156964 -0.00123621)
(0.18903 0.1229 0.00130543)
(0.189045 0.12298 -2.52541e-08)
(0.189045 0.12298 2.52577e-08)
(0.18903 0.1229 -0.00130543)
(0.199077 0.100869 0.00127852)
(0.199052 0.10091 7.85392e-08)
(0.199052 0.10091 -7.85336e-08)
(0.199077 0.100869 -0.00127852)
(0.215529 0.0825571 0.00121341)
(0.215524 0.0826009 -1.88351e-08)
(0.215524 0.0826009 1.88394e-08)
(0.215529 0.0825571 -0.00121341)
(0.226771 0.070215 0.00114511)
(0.22679 0.0702389 -1.01447e-07)
(0.22679 0.0702389 1.01451e-07)
(0.226771 0.070215 -0.00114511)
(0.237272 0.0594611 0.00106843)
(0.237289 0.0594708 -1.56565e-08)
(0.237289 0.0594708 1.5659e-08)
(0.237272 0.0594611 -0.00106843)
(0.248047 0.0501629 0.000984252)
(0.248035 0.0501719 1.24408e-07)
(0.248035 0.0501719 -1.24408e-07)
(0.248047 0.0501629 -0.000984252)
(0.257171 0.042598 0.000898284)
(0.257152 0.0426038 1.06656e-07)
(0.257152 0.0426038 -1.06657e-07)
(0.257171 0.042598 -0.000898284)
(0.265711 0.0369223 0.000818508)
(0.265698 0.0369261 7.22387e-08)
(0.265698 0.0369261 -7.22389e-08)
(0.265711 0.0369223 -0.000818508)
(0.27223 0.0320878 0.000746659)
(0.272215 0.0320897 5.81102e-08)
(0.272215 0.0320897 -5.81095e-08)
(0.27223 0.0320878 -0.000746659)
(0.27877 0.0272954 0.000680849)
(0.278754 0.0272964 6.51938e-08)
(0.278754 0.0272964 -6.5193e-08)
(0.27877 0.0272954 -0.000680849)
(-0.0105965 -0.0211124 -6.91196e-05)
(-0.010595 -0.0211145 3.05987e-08)
(-0.010595 -0.0211145 -3.06491e-08)
(-0.0105965 -0.0211124 6.91197e-05)
(-0.0148539 -0.0231162 -6.6885e-05)
(-0.0148503 -0.0231188 4.92739e-08)
(-0.0148503 -0.0231188 -4.92746e-08)
(-0.0148539 -0.0231162 6.6885e-05)
(-0.0176576 -0.0232848 -6.83438e-05)
(-0.0176494 -0.023288 2.57541e-08)
(-0.0176494 -0.023288 -2.57482e-08)
(-0.0176576 -0.0232848 6.83438e-05)
(-0.020671 -0.0233517 -7.10838e-05)
(-0.0206681 -0.023356 2.81943e-08)
(-0.0206681 -0.023356 -2.8191e-08)
(-0.020671 -0.0233517 7.10837e-05)
(-0.023624 -0.0239624 -7.56178e-05)
(-0.0236185 -0.0239658 2.75983e-08)
(-0.0236185 -0.0239658 -2.75976e-08)
(-0.023624 -0.0239624 7.56178e-05)
(-0.0266026 -0.0251294 -8.24708e-05)
(-0.0266022 -0.0251357 9.98675e-09)
(-0.0266022 -0.0251357 -9.9871e-09)
(-0.0266026 -0.0251294 8.24708e-05)
(-0.0301687 -0.0262725 -9.12951e-05)
(-0.0301724 -0.0262798 2.10001e-08)
(-0.0301724 -0.0262798 -2.10026e-08)