/*--------------------------------*- C++ -*----------------------------------*\
| =========                 |                                                 |
| \\      /  F ield         | OpenFOAM: The Open Source CFD Toolbox           |
|  \\    /   O peration     | Version:  v1806                                 |
|   \\  /    A nd           | Web:      www.OpenFOAM.com                      |
|    \\/     M anipulation  |                                                 |
\*---------------------------------------------------------------------------*/
FoamFile
{
    version     2.0;
    format      ascii;
    class       volScalarField;
    location    "240";
    object      p;
}
// * * * * * * * * * * * * * * * * * * * * * * * * * * * * * * * * * * * * * //

dimensions      [0 2 -2 0 0 0 0];


internalField   nonuniform List<scalar> 
4400
(
0.00724815
0.00921135
0.00878882
0.00735606
0.00593593
0.0046859
0.00368353
0.00294221
0.00241232
0.00202526
0.00172781
0.00148433
0.0012722
0.00107849
0.000896538
0.000722814
0.000555136
0.000391834
0.000231493
7.43009e-05
0.0252235
0.017537
0.0125004
0.00945525
0.00745046
0.00604892
0.00501849
0.00423669
0.00362266
0.00311803
0.00268527
0.00230298
0.00195883
0.00164472
0.00135458
0.00108346
0.000827157
0.000581859
0.000344268
0.00011254
0.0196563
0.0164686
0.0138115
0.0116022
0.00985666
0.00838658
0.00710539
0.00599986
0.0050634
0.00427803
0.00361793
0.00305667
0.00257097
0.00214191
0.0017549
0.00139904
0.00106607
0.000749517
0.00044423
0.000146405
0.0192697
0.0167481
0.0142442
0.0120402
0.0102076
0.00871912
0.0074841
0.00644117
0.00555136
0.0047847
0.00411567
0.00352342
0.00299187
0.00250872
0.00206421
0.00165027
0.00126001
0.000887372
0.000527105
0.000174588
0.0155112
0.0141803
0.0128122
0.0114647
0.0101764
0.00899514
0.00792351
0.00694856
0.00606399
0.00526607
0.00454893
0.00390382
0.00332044
0.00278829
0.00229757
0.00183954
0.00140657
0.000992055
0.000590332
0.000196162
0.0141097
0.013136
0.0120277
0.0108719
0.00975073
0.00870106
0.00773871
0.00686149
0.00606148
0.0053303
0.00465991
0.00404235
0.00347001
0.00293588
0.0024336
0.00195741
0.00150193
0.00106213
0.00063341
0.000210991
0.011938
0.0113283
0.0106304
0.00987154
0.00908183
0.00828643
0.00750782
0.00675825
0.00604295
0.00536473
0.00472466
0.00412207
0.00355459
0.00301869
0.0025101
0.00202428
0.00155667
0.00110284
0.000658695
0.000219743
0.0107912
0.0103198
0.00975215
0.00911632
0.00844581
0.00776492
0.00709042
0.00643374
0.00580053
0.00519292
0.00461116
0.00405434
0.00352078
0.00300828
0.00251432
0.00203616
0.00157092
0.00111568
0.000667562
0.000222995
0.00942634
0.00909571
0.00869589
0.00823842
0.00773768
0.00720796
0.00666141
0.00610879
0.00555788
0.00501411
0.00448117
0.00396128
0.00345542
0.00296352
0.00248467
0.00201736
0.00155967
0.00110949
0.000664644
0.000222182
0.00856699
0.00829568
0.00796033
0.00757094
0.00714173
0.0066847
0.00621009
0.00572617
0.00523926
0.00475374
0.00427247
0.00379721
0.00332889
0.00286781
0.00241375
0.0019661
0.00152394
0.00108616
0.000651516
0.000217943
0.00765465
0.00744773
0.00719022
0.00688775
0.00654694
0.00617524
0.0057795
0.00536604
0.0049405
0.00450752
0.00407079
0.0036331
0.00319646
0.00276213
0.00233076
0.00190251
0.00147713
0.00105412
0.000632813
0.000211729
0.00702233
0.00684454
0.00662157
0.00635744
0.00605884
0.00573181
0.00538204
0.00501466
0.00463407
0.00424393
0.00384716
0.00344601
0.00304221
0.00263699
0.00223122
0.00182543
0.00141987
0.00101463
0.000609616
0.000204009
0.00639756
0.00625261
0.00606938
0.00585096
0.00560066
0.00532247
0.00502031
0.00469799
0.00435912
0.00400701
0.00364454
0.0032742
0.00289801
0.00251761
0.00213423
0.00174878
0.00136191
0.000974064
0.000585524
0.000195912
0.00594501
0.00581585
0.00565228
0.0054562
0.00523111
0.0049803
0.00470704
0.00441449
0.00410559
0.003783
0.00344909
0.00310588
0.00275514
0.00239836
0.00203679
0.00167147
0.00130328
0.000932939
0.000561054
0.000187697
0.00552472
0.00541334
0.00527123
0.00510027
0.00490232
0.00467972
0.00443489
0.00417028
0.00388828
0.00359124
0.00328134
0.00296058
0.00263078
0.00229354
0.00195024
0.00160211
0.0012502
0.000895431
0.000538609
0.000180116
0.00522141
0.00511886
0.00498798
0.00482985
0.0046466
0.00444026
0.00421291
0.00396663
0.0037035
0.00342547
0.00313441
0.00283205
0.00251998
0.00219969
0.00187251
0.00153969
0.00120237
0.000861599
0.000518343
0.000173277
0.0049605
0.00486722
0.00474768
0.00460312
0.0044348
0.00424428
0.00403321
0.00380331
0.00355631
0.00329398
0.00301802
0.00273011
0.00243183
0.00212468
0.00181006
0.00148927
0.00116354
0.000834013
0.000501754
0.000167648
0.00478662
0.00469733
0.0045835
0.00444575
0.00428538
0.00410374
0.00390228
0.00368251
0.00344601
0.00319434
0.00292906
0.0026517
0.00236373
0.00206657
0.0017616
0.00145011
0.00113336
0.000812561
0.000488839
0.000163266
0.00466175
0.00457659
0.00446807
0.00433675
0.00418341
0.00400916
0.0038153
0.00360318
0.00337423
0.00312994
0.00287181
0.00260133
0.00231997
0.00202917
0.00173032
0.00142476
0.00111376
0.000798575
0.000480386
0.000160374
0.00461508
0.00453194
0.00442448
0.00429398
0.00414167
0.00396877
0.00377661
0.00356655
0.00334002
0.00309843
0.00284322
0.00257582
0.00229761
0.00200996
0.00171423
0.00141172
0.0011037
0.000791405
0.00047606
0.000158897
0.0269448
0.0311898
0.0345334
0.0372918
0.0395496
0.0413462
0.0427207
0.0437065
0.0443277
0.0445999
0.0445307
0.0441204
0.0433616
0.042239
0.0407283
0.0387957
0.0364021
0.0335048
0.0299909
0.025492
0.0334806
0.034631
0.0355695
0.0363421
0.0369759
0.037483
0.0378707
0.0381445
0.0383084
0.0383648
0.038315
0.038159
0.0378958
0.0375231
0.0370367
0.0364299
0.0356998
0.0348546
0.0338588
0.0324183
0.0226806
0.0232189
0.0237188
0.0241691
0.0245621
0.0248919
0.0251537
0.0253438
0.0254594
0.0254988
0.0254609
0.0253455
0.0251531
0.024885
0.0245434
0.0241315
0.0236535
0.0231143
0.0225206
0.0218858
0.0216155
0.0218813
0.0221181
0.0223241
0.0224977
0.0226375
0.0227423
0.0228113
0.0228436
0.0228387
0.0227962
0.0227162
0.0225986
0.0224439
0.0222524
0.022025
0.0217633
0.0214705
0.0211437
0.0207576
0.0163161
0.0164442
0.0165594
0.0166605
0.0167466
0.0168168
0.0168702
0.0169062
0.0169245
0.0169246
0.0169064
0.01687
0.0168155
0.0167433
0.016654
0.0165483
0.0164266
0.016289
0.0161387
0.0159907
0.0151338
0.0152165
0.0152884
0.0153492
0.0153985
0.0154361
0.0154615
0.0154748
0.0154756
0.015464
0.0154398
0.0154031
0.0153539
0.0152925
0.0152189
0.0151334
0.0150367
0.01493
0.014812
0.0146705
0.0123
0.0123449
0.0123843
0.0124178
0.0124453
0.0124667
0.0124818
0.0124906
0.0124929
0.0124888
0.0124781
0.012461
0.0124375
0.0124076
0.0123714
0.0123292
0.0122807
0.0122255
0.012165
0.012108
0.0113246
0.0113582
0.0113869
0.0114104
0.0114287
0.0114417
0.0114494
0.0114517
0.0114486
0.0114401
0.0114262
0.0114069
0.0113822
0.0113522
0.011317
0.0112764
0.011231
0.0111811
0.0111262
0.0110597
0.00965255
0.00967344
0.00969132
0.00970615
0.00971789
0.00972649
0.00973194
0.00973421
0.00973329
0.00972916
0.00972183
0.0097113
0.00969757
0.00968067
0.00966062
0.00963748
0.00961115
0.00958132
0.00954863
0.00951779
0.00887936
0.00889639
0.00891063
0.00892208
0.00893069
0.00893645
0.00893935
0.00893938
0.00893653
0.00893079
0.00892218
0.0089107
0.00889636
0.00887918
0.00885918
0.00883636
0.00881085
0.00878295
0.00875229
0.00871543
0.00781746
0.00782937
0.00783939
0.00784751
0.00785372
0.00785801
0.00786037
0.0078608
0.00785928
0.00785581
0.00785041
0.00784306
0.00783377
0.00782255
0.00780941
0.00779438
0.00777739
0.00775827
0.00773737
0.00771711
0.00722388
0.00723413
0.00724262
0.00724935
0.0072543
0.00725748
0.00725886
0.00725846
0.00725627
0.0072523
0.00724653
0.00723898
0.00722966
0.00721857
0.00720571
0.00719109
0.00717477
0.00715692
0.00713733
0.00711419
0.00652325
0.00653118
0.00653778
0.00654304
0.00654697
0.00654956
0.0065508
0.0065507
0.00654925
0.00654644
0.00654229
0.0065368
0.00652995
0.00652177
0.00651225
0.0065014
0.0064892
0.00647555
0.00646064
0.00644573
0.00608722
0.00609433
0.00610019
0.0061048
0.00610816
0.00611027
0.00611112
0.00611072
0.00610906
0.00610614
0.00610197
0.00609655
0.00608987
0.00608195
0.00607279
0.00606239
0.00605077
0.00603803
0.00602407
0.0060079
0.00562711
0.00563308
0.00563802
0.00564193
0.00564481
0.00564665
0.00564747
0.00564724
0.00564598
0.00564369
0.00564036
0.00563599
0.0056306
0.00562417
0.00561672
0.00560824
0.00559873
0.00558814
0.00557655
0.00556466
0.0053308
0.00533633
0.00534089
0.00534447
0.00534707
0.0053487
0.00534935
0.00534902
0.00534771
0.00534542
0.00534215
0.00533791
0.00533269
0.0053265
0.00531935
0.00531122
0.00530214
0.00529215
0.00528121
0.00526879
0.00504931
0.00505427
0.00505837
0.0050616
0.00506396
0.00506546
0.00506609
0.00506585
0.00506475
0.00506278
0.00505994
0.00505623
0.00505166
0.00504622
0.00503993
0.00503278
0.00502476
0.00501586
0.00500612
0.0049959
0.00488043
0.00488517
0.00488908
0.00489215
0.00489437
0.00489576
0.0048963
0.004896
0.00489486
0.00489288
0.00489005
0.00488638
0.00488187
0.00487652
0.00487033
0.0048633
0.00485545
0.00484679
0.0048373
0.00482666
0.0047458
0.00475029
0.00475399
0.00475691
0.00475902
0.00476035
0.00476088
0.00476061
0.00475955
0.00475769
0.00475503
0.00475158
0.00474733
0.00474229
0.00473645
0.00472983
0.0047224
0.00471417
0.00470515
0.00469555
0.00469873
0.00470322
0.00470692
0.00470984
0.00471198
0.00471333
0.0047139
0.00471368
0.00471268
0.0047109
0.00470834
0.00470499
0.00470087
0.00469597
0.00469029
0.00468384
0.00467662
0.00466865
0.00465992
0.00465033
0.0114855
0.0118091
0.0120826
0.0123155
0.0125062
0.0126498
0.0127445
0.012793
0.0128033
0.0127901
0.0127758
0.0127916
0.0128781
0.0130876
0.0134865
0.0141487
0.0151254
0.0164419
0.018302
0.0215246
0.011902
0.0123311
0.0128389
0.0133973
0.0140106
0.0146891
0.0154409
0.0162723
0.0171887
0.0181937
0.0192886
0.0204723
0.0217409
0.0230877
0.024503
0.0259736
0.0274844
0.0290224
0.0305774
0.0321074
0.0136819
0.0139986
0.014322
0.0146598
0.0150127
0.0153805
0.0157631
0.0161605
0.0165725
0.0169988
0.0174395
0.0178949
0.0183656
0.0188527
0.0193572
0.0198797
0.0204201
0.0209769
0.021546
0.0221184
0.0138767
0.0142514
0.0146328
0.0150226
0.0154206
0.0158259
0.0162371
0.0166529
0.0170717
0.0174919
0.0179118
0.0183294
0.0187427
0.0191497
0.0195481
0.0199354
0.0203093
0.0206671
0.0210059
0.0213229
0.012613
0.0128025
0.0129989
0.0131969
0.0133953
0.0135941
0.0137932
0.0139922
0.0141906
0.0143881
0.0145843
0.0147787
0.0149705
0.0151593
0.0153442
0.0155244
0.0156988
0.0158664
0.0160259
0.0161762
0.0119801
0.0121786
0.0123702
0.0125602
0.012749
0.0129357
0.0131198
0.0133007
0.013478
0.0136512
0.0138197
0.0139832
0.0141409
0.0142925
0.0144372
0.0145747
0.0147043
0.0148255
0.0149379
0.0150408
0.0105757
0.0106816
0.0107903
0.0108977
0.011003
0.0111065
0.0112079
0.0113072
0.0114042
0.0114985
0.0115901
0.0116786
0.011764
0.0118458
0.0119239
0.011998
0.0120679
0.0121333
0.0121939
0.0122495
0.00980421
0.00991149
0.0100132
0.0101126
0.0102101
0.0103053
0.0103978
0.0104875
0.0105743
0.0106579
0.0107383
0.0108151
0.0108884
0.0109578
0.0110233
0.0110847
0.0111418
0.0111945
0.0112426
0.011286
0.00870742
0.00877162
0.00883674
0.00890032
0.00896196
0.00902176
0.00907972
0.00913575
0.00918976
0.00924169
0.00929144
0.00933895
0.00938412
0.00942689
0.00946717
0.00950489
0.00953998
0.00957235
0.00960194
0.0096287
0.00802608
0.00808995
0.00815012
0.00820851
0.00826532
0.00832032
0.00837339
0.00842447
0.00847349
0.00852039
0.00856511
0.00860759
0.00864775
0.00868555
0.00872093
0.00875382
0.00878418
0.00881196
0.00883711
0.00885959
0.00722121
0.00726418
0.00730721
0.00734895
0.00738916
0.00742793
0.00746524
0.00750107
0.00753538
0.00756813
0.0075993
0.00762886
0.00765677
0.007683
0.00770753
0.00773033
0.00775137
0.00777062
0.00778807
0.00780369
0.00667795
0.00672008
0.00675979
0.00679815
0.00683528
0.00687106
0.00690542
0.00693834
0.00696981
0.00699977
0.00702822
0.00705513
0.00708046
0.00710419
0.00712631
0.00714679
0.0071656
0.00718274
0.00719817
0.00721189
0.00610199
0.00613344
0.00616459
0.00619468
0.00622359
0.00625136
0.00627799
0.00630347
0.00632778
0.0063509
0.00637282
0.00639353
0.00641301
0.00643125
0.00644824
0.00646396
0.00647841
0.00649157
0.00650344
0.006514
0.0056964
0.005727
0.00575594
0.00578383
0.00581073
0.00583658
0.00586134
0.005885
0.00590755
0.00592898
0.00594927
0.00596841
0.00598639
0.0060032
0.00601882
0.00603325
0.00604648
0.0060585
0.0060693
0.00607888
0.00530021
0.00532514
0.00534961
0.00537319
0.00539581
0.00541751
0.00543828
0.00545811
0.00547699
0.00549492
0.00551188
0.00552787
0.00554289
0.00555692
0.00556996
0.00558201
0.00559305
0.00560309
0.00561211
0.00562012
0.00502221
0.0050465
0.00506957
0.00509178
0.00511316
0.00513366
0.00515327
0.00517199
0.0051898
0.00520671
0.00522269
0.00523775
0.00525189
0.00526508
0.00527733
0.00528864
0.00529899
0.00530839
0.00531682
0.00532429
0.00477359
0.00479488
0.00481563
0.0048356
0.00485476
0.00487312
0.00489067
0.00490742
0.00492335
0.00493846
0.00495274
0.0049662
0.00497882
0.0049906
0.00500154
0.00501164
0.00502088
0.00502927
0.00503681
0.0050435
0.00461352
0.00463459
0.00465466
0.00467397
0.00469253
0.00471031
0.0047273
0.0047435
0.00475891
0.00477353
0.00478733
0.00480033
0.00481252
0.0048239
0.00483445
0.00484419
0.0048531
0.00486118
0.00486843
0.00487485
0.00449321
0.00451289
0.00453196
0.00455031
0.0045679
0.00458475
0.00460085
0.0046162
0.00463079
0.00464463
0.0046577
0.00467
0.00468154
0.0046923
0.00470229
0.0047115
0.00471993
0.00472758
0.00473444
0.00474051
0.00444834
0.00446796
0.00448679
0.00450491
0.00452231
0.00453898
0.00455492
0.00457012
0.00458458
0.00459829
0.00461124
0.00462345
0.00463489
0.00464557
0.00465548
0.00466462
0.004673
0.0046806
0.00468742
0.00469346
0.0046055
0.0056005
0.00606931
0.00638564
0.00661086
0.00675182
0.00682648
0.00685422
0.00684961
0.00682319
0.00678298
0.00673515
0.00668449
0.00663467
0.00658851
0.00654817
0.00651535
0.00649169
0.00647862
0.00647427
0.00517
0.00549561
0.00567017
0.00578744
0.00587069
0.00592422
0.0059535
0.00596453
0.00596207
0.00594978
0.00593046
0.00590635
0.00587916
0.00585018
0.00582037
0.00579047
0.00576097
0.00573161
0.00570073
0.00566946
0.00484823
0.0050148
0.00514626
0.00525009
0.00533028
0.00538927
0.00542969
0.00545434
0.00546592
0.00546687
0.00545937
0.00544531
0.0054263
0.00540367
0.00537849
0.00535166
0.00532394
0.00529549
0.0052646
0.00523044
0.00469371
0.00477048
0.00482915
0.00487375
0.00490592
0.00492676
0.00493758
0.00493984
0.00493497
0.00492433
0.00490917
0.0048906
0.00486962
0.00484707
0.00482365
0.00479999
0.00477665
0.00475379
0.00473031
0.00470559
0.00417663
0.00421416
0.00424659
0.0042715
0.004289
0.00429983
0.0043047
0.00430427
0.00429924
0.00429031
0.00427816
0.00426345
0.00424676
0.00422862
0.00420948
0.00418979
0.00416997
0.00415012
0.00412911
0.00410619
0.00370868
0.00372938
0.00374523
0.00375553
0.00376058
0.00376092
0.00375709
0.0037496
0.00373897
0.00372573
0.0037104
0.00369346
0.00367535
0.00365647
0.00363717
0.00361778
0.00359865
0.00357982
0.00356032
0.00353966
0.00312116
0.00312814
0.00313372
0.00313537
0.00313312
0.00312753
0.00311903
0.00310799
0.00309476
0.00307973
0.00306326
0.0030457
0.00302737
0.00300855
0.00298952
0.00297051
0.00295183
0.00293347
0.00291438
0.00289388
0.00253893
0.00253806
0.00253645
0.00253169
0.00252382
0.00251334
0.00250061
0.00248591
0.00246955
0.00245184
0.00243309
0.00241358
0.00239361
0.00237341
0.0023532
0.00233322
0.00231373
0.00229472
0.00227513
0.00225441
0.00190467
0.0018952
0.00188688
0.00187615
0.00186292
0.00184772
0.00183085
0.00181253
0.00179301
0.00177253
0.00175135
0.00172971
0.00170786
0.00168601
0.00166434
0.00164309
0.00162248
0.0016025
0.00158203
0.00156041
0.00125133
0.00123304
0.00121742
0.00120004
0.00118072
0.00116001
0.00113814
0.00111529
0.00109163
0.00106738
0.00104275
0.00101796
0.000993238
0.000968774
0.000944755
0.000921385
0.000898916
0.000877315
0.0008554
0.000832479
0.000568237
0.000540264
0.000516766
0.000492103
0.00046603
0.000439117
0.00041157
0.000383478
0.000354971
0.000326215
0.000297398
0.000268713
0.000240356
0.000212515
0.000185368
0.00015912
0.000134026
0.000110043
8.59149e-05
6.09791e-05
-0.000154365
-0.000198009
-0.00023468
-0.000271643
-0.000309266
-0.000346896
-0.000384347
-0.000421585
-0.000458528
-0.000495044
-0.000530979
-0.000566163
-0.000600418
-0.000633568
-0.000665441
-0.000695828
-0.000724452
-0.00075135
-0.00077793
-0.000805137
-0.000878867
-0.000937288
-0.000987486
-0.0010374
-0.00108726
-0.00113635
-0.00118451
-0.00123174
-0.00127802
-0.00132327
-0.00136737
-0.00141022
-0.00145166
-0.00149157
-0.00152979
-0.00156611
-0.00160028
-0.00163236
-0.00166384
-0.0016953
-0.00167455
-0.00176852
-0.00185133
-0.00193245
-0.00201211
-0.0020893
-0.0021637
-0.00223525
-0.00230386
-0.00236947
-0.00243199
-0.00249135
-0.00254747
-0.00260026
-0.00264961
-0.00269536
-0.00273718
-0.00277513
-0.00281111
-0.00284679
-0.00234626
-0.00246471
-0.00257523
-0.00268394
-0.00279017
-0.00289277
-0.00299125
-0.0030854
-0.0031751
-0.00326031
-0.00334107
-0.00341749
-0.00348968
-0.00355775
-0.00362178
-0.00368174
-0.00373744
-0.00378915
-0.00383885
-0.00388659
-0.00314658
-0.00336097
-0.00356672
-0.00376883
-0.00396635
-0.00415724
-0.00434
-0.00451354
-0.00467703
-0.00482993
-0.00497196
-0.00510308
-0.00522345
-0.0053333
-0.0054329
-0.00552235
-0.00560134
-0.00566998
-0.00573157
-0.00579027
-0.00328002
-0.00351588
-0.00376342
-0.00401192
-0.00425786
-0.0044992
-0.00473364
-0.00495897
-0.00517344
-0.0053758
-0.00556542
-0.00574222
-0.00590667
-0.00605967
-0.00620233
-0.00633566
-0.00646034
-0.00657772
-0.00669179
-0.00680067
-0.00380748
-0.00429594
-0.00480049
-0.00531186
-0.0058284
-0.00634646
-0.00686084
-0.00736596
-0.00785622
-0.00832623
-0.00877108
-0.00918666
-0.00956993
-0.00991921
-0.0102341
-0.0105152
-0.0107625
-0.0109771
-0.0111682
-0.0113468
-0.00156617
-0.00184189
-0.00220307
-0.0026025
-0.00303402
-0.00349708
-0.00398782
-0.00450058
-0.00502902
-0.00556634
-0.00610563
-0.00664034
-0.00716492
-0.00767555
-0.00817061
-0.00865003
-0.00911607
-0.00958627
-0.0101187
-0.0107442
-0.00170488
-0.00251926
-0.00337789
-0.00430791
-0.00532018
-0.00641889
-0.00760731
-0.00888746
-0.0102592
-0.0117197
-0.0132633
-0.0148815
-0.0165632
-0.0182955
-0.0200625
-0.0218428
-0.0236116
-0.0253778
-0.027237
-0.0291395
0.000152333
0.000458507
0.000766368
0.00107627
0.00138895
0.00170541
0.00202674
0.00235423
0.00268958
0.00303521
0.00339507
0.00377593
0.00418958
0.00465622
0.00520904
0.00589987
0.00679078
0.00790272
0.00915316
0.010447
0.000172572
0.000518334
0.000866557
0.0012187
0.00157644
0.00194187
0.00231739
0.00270577
0.00311017
0.00353419
0.00398168
0.00445671
0.00496343
0.00550688
0.00609588
0.00674659
0.00748378
0.00834928
0.0094443
0.0108984
0.000189804
0.000569104
0.000951239
0.00133845
0.00173299
0.00213761
0.00255552
0.00299061
0.0034477
0.00393305
0.00445486
0.00502389
0.00565372
0.00636052
0.00716151
0.00807153
0.00909692
0.0102269
0.0114321
0.012724
0.000203114
0.000608155
0.00101603
0.00142943
0.00185082
0.00228305
0.00272928
0.003193
0.00367808
0.00418882
0.00473015
0.00530781
0.00592889
0.0066026
0.00734095
0.00815895
0.00907478
0.0101141
0.0113227
0.0127792
0.000212065
0.000634242
0.00105891
0.00148897
0.00192687
0.00237544
0.0028379
0.00331788
0.00381953
0.0043476
0.00490747
0.00550497
0.00614604
0.00683595
0.00757821
0.0083735
0.00922013
0.0101175
0.0110698
0.0120675
0.000216702
0.000647532
0.00108026
0.00151766
0.00196181
0.002415
0.00287971
0.00335846
0.00385391
0.00436882
0.00490612
0.00546898
0.00606086
0.00668554
0.00734701
0.0080497
0.00879895
0.00960005
0.0104538
0.0113602
0.000217418
0.000649264
0.00108237
0.00151931
0.00196183
0.00241188
0.00287154
0.00334298
0.00382839
0.00432994
0.00484964
0.00538915
0.00594944
0.00653051
0.00713105
0.00774835
0.00837837
0.0090159
0.00965305
0.0102703
0.000214788
0.000641113
0.00106797
0.00149753
0.00193099
0.00236966
0.00281484
0.00326775
0.00372954
0.00420119
0.00468356
0.00517732
0.00568288
0.00620034
0.00672942
0.0072693
0.00781837
0.0083726
0.00892275
0.00946262
0.000209613
0.000625536
0.00104142
0.00145907
0.00187932
0.00230306
0.00273118
0.00316446
0.00360352
0.00404875
0.00450018
0.00495741
0.00541941
0.00588445
0.00634993
0.00681234
0.007267
0.00770795
0.00812889
0.0085198
0.000202539
0.000604369
0.00100561
0.0014076
0.00181073
0.00221539
0.00262191
0.0030305
0.00344121
0.0038539
0.00426822
0.00468353
0.00509891
0.00551308
0.00592431
0.00633031
0.00672803
0.00711307
0.00747883
0.00782143
0.000194388
0.000580133
0.000964927
0.00134975
0.00173471
0.00211988
0.00250527
0.00289079
0.00327615
0.00366082
0.00404403
0.00442463
0.00480109
0.00517143
0.00553321
0.00588344
0.00621858
0.00653472
0.00682835
0.00709386
0.000185651
0.000554179
0.000921449
0.00128805
0.0016538
0.00201846
0.00238171
0.00274318
0.00310232
0.00345843
0.00381066
0.00415795
0.00449902
0.00483235
0.00515612
0.00546824
0.00576622
0.00604703
0.00630665
0.00654305
0.000176974
0.0005285
0.000878611
0.0012276
0.00157512
0.00192071
0.0022639
0.00260411
0.00294063
0.00327259
0.00359895
0.00391846
0.00422964
0.00453081
0.00482003
0.00509516
0.00535384
0.00559371
0.00581268
0.00600751
0.000168651
0.000503869
0.000837563
0.00116974
0.00149987
0.00182734
0.00215152
0.00247169
0.00278707
0.00309675
0.00339974
0.00369493
0.00398107
0.0042568
0.00452064
0.00477094
0.00500595
0.00522367
0.00542169
0.00559887
0.000161113
0.000481627
0.000800602
0.00111782
0.00143265
0.00174439
0.00205231
0.00235561
0.00265341
0.00294476
0.00322861
0.00350378
0.00376902
0.00402295
0.00426411
0.00449098
0.00470196
0.00489553
0.00507035
0.00522446
0.000154501
0.00046212
0.000768212
0.00107235
0.00137381
0.00167182
0.00196557
0.00225422
0.0025369
0.00281265
0.00308049
0.00333938
0.0035882
0.00382582
0.00405101
0.00426252
0.00445908
0.0046393
0.00480161
0.00494526
0.000149081
0.000446184
0.000741815
0.00103538
0.00132611
0.00161319
0.00189576
0.00217296
0.00244386
0.00270751
0.0029629
0.00320899
0.00344469
0.00366887
0.0038804
0.0040781
0.00426083
0.00442748
0.00457706
0.00470828
0.000144919
0.000433964
0.000721598
0.00100708
0.00128961
0.00156832
0.00184235
0.00211081
0.00237278
0.00262733
0.00287349
0.00311028
0.0033367
0.00355175
0.0037544
0.00394365
0.00411851
0.00427798
0.004421
0.00454705
0.000142166
0.000425929
0.000708351
0.000988592
0.00126581
0.00153915
0.00180771
0.00207059
0.00232687
0.00257559
0.00281579
0.00304647
0.00326663
0.00347528
0.0036714
0.00385404
0.00402225
0.0041752
0.00431221
0.00443254
0.000140802
0.000421948
0.000701781
0.000979416
0.00125399
0.00152463
0.00179045
0.00205055
0.00230403
0.00254995
0.00278738
0.00301538
0.003233
0.00343929
0.00363331
0.00381413
0.00398082
0.0041325
0.00426817
0.00438694
-6.9021e-05
-0.000193225
-0.000318189
-0.000445051
-0.000573579
-0.000703878
-0.000836035
-0.000970035
-0.00110566
-0.00124219
-0.00137777
-0.00150824
-0.00162533
-0.00171396
-0.00174809
-0.00168458
-0.00145719
-0.00101274
-0.000515517
-0.000937463
-5.31898e-05
-0.000146315
-0.00023879
-0.000330863
-0.000421359
-0.000509175
-0.000592874
-0.000670486
-0.000739292
-0.000795492
-0.000833687
-0.000845966
-0.000820034
-0.000735302
-0.000555676
-0.000220568
0.000348975
0.00119973
0.00229941
0.00361751
-3.79648e-05
-0.000101327
-0.000162906
-0.00022222
-0.000277372
-0.000326368
-0.000366671
-0.000394915
-0.000406544
-0.000395274
-0.000352333
-0.000265437
-0.000117511
0.000114602
0.000460356
0.000951307
0.00160787
0.00241948
0.00332455
0.00426007
-2.39564e-05
-6.00523e-05
-9.35937e-05
-0.000123582
-0.000147679
-0.000163377
-0.000167582
-0.000156368
-0.000124696
-6.6028e-05
2.82199e-05
0.000169524
0.000373528
0.000661383
0.0010588
0.00158748
0.00224762
0.0029987
0.00375378
0.00441089
-1.15711e-05
-2.367e-05
-3.28318e-05
-3.77853e-05
-3.60306e-05
-2.48875e-05
-1.09642e-06
3.94098e-05
0.000101744
0.000192347
0.000319288
0.000492564
0.000724318
0.00102844
0.00141789
0.00189779
0.00245559
0.00305043
0.00361187
0.0040534
-9.89439e-07
7.31966e-06
1.85881e-05
3.41208e-05
5.63091e-05
8.76634e-05
0.000131159
0.000190395
0.000269737
0.000374491
0.000511121
0.000687491
0.000913001
0.0011979
0.0015502
0.00196934
0.00243741
0.00291202
0.00333168
0.00363468
7.81632e-06
3.30326e-05
6.09321e-05
9.26537e-05
0.000130294
0.000175999
0.00023228
0.000302122
0.000389058
0.000497227
0.000631398
0.000796921
0.00099951
0.00124449
0.00153487
0.00186762
0.00222786
0.0025838
0.0028909
0.003101
1.50582e-05
5.41237e-05
9.53623e-05
0.000139573
0.000188391
0.000243406
0.000306442
0.000379624
0.000465417
0.000566652
0.000686544
0.000828637
0.000996595
0.00119357
0.00142068
0.00167406
0.00194059
0.00219566
0.00240845
0.00254553
2.10939e-05
7.16757e-05
0.000123773
0.000177732
0.000234647
0.000295487
0.00036135
0.000433504
0.000513377
0.000602541
0.00070266
0.000815395
0.000942258
0.00108432
0.00124149
0.00141072
0.0015831
0.00174287
0.00187181
0.00194559
2.63809e-05
8.70515e-05
0.000148489
0.000210497
0.000273564
0.000337967
0.000404016
0.000472075
0.000542548
0.000615866
0.000692448
0.000772645
0.000856659
0.00094437
0.00103484
0.00112508
0.00120852
0.00127593
0.00131997
0.00132627
3.14465e-05
0.000101823
0.000172208
0.000241831
0.000310567
0.000378011
0.000443695
0.0005071
0.000567626
0.000624569
0.000677085
0.000724172
0.00076468
0.000797295
0.000820304
0.000830932
0.000824862
0.000798373
0.000752791
0.000682323
3.68261e-05
0.00011757
0.000197607
0.000275589
0.000350792
0.000422139
0.000488398
0.000548182
0.000599913
0.000641802
0.000671838
0.00068781
0.000687341
0.000667883
0.000626522
0.000559748
0.000464001
0.000338681
0.000190423
1.90271e-05
4.30476e-05
0.000135855
0.000227354
0.000315662
0.000399527
0.000477277
0.000546982
0.000606435
0.000653089
0.000684009
0.000695864
0.000684966
0.000647361
0.000578852
0.000474931
0.000330989
0.000143527
-8.72329e-05
-0.000354049
-0.00065103
5.05757e-05
0.000158039
0.00026374
0.000365344
0.000461157
0.000549018
0.000626417
0.000690451
0.000737728
0.000764269
0.000765436
0.000735908
0.000669682
0.000560068
0.00039978
0.000181753
-9.91306e-05
-0.000445031
-0.000855317
-0.00132923
5.98047e-05
0.000185283
0.000308744
0.000427531
0.000539628
0.000642515
0.000733233
0.000808325
0.00086371
0.000894545
0.000895072
0.000858438
0.000776464
0.000639358
0.000435771
0.000154058
-0.00021575
-0.000683333
-0.00126019
-0.00193586
7.09723e-05
0.000218285
0.000363586
0.000504074
0.000637582
0.0007614
0.000872269
0.000966305
0.00103885
0.00108434
0.0010961
0.00106613
0.000984671
0.000839472
0.000615276
0.000294274
-0.000143378
-0.000724554
-0.00149111
-0.0024681
8.41174e-05
0.000257169
0.000428535
0.000595528
0.000756085
0.000907596
0.0010468
0.00116965
0.00127107
0.00134471
0.00138279
0.00137583
0.00131246
0.00117891
0.000958433
0.000630211
0.000165429
-0.000485932
-0.00140638
-0.00261836
9.90459e-05
0.000301351
0.000502611
0.000700535
0.000893487
0.00107939
0.00125555
0.00141844
0.00156336
0.00168393
0.00177157
0.00181484
0.00179903
0.00170605
0.00151521
0.00120342
0.000738934
6.18478e-05
-0.000949477
-0.00248074
0.000115413
0.000349734
0.000583861
0.000816164
0.00104569
0.00127128
0.00149138
0.00170391
0.00190597
0.00209333
0.00225948
0.00239424
0.00248176
0.00249859
0.00241235
0.00218163
0.00175929
0.0010991
0.000147498
-0.00109002
0.000132708
0.000400587
0.000669221
0.000937829
0.00120623
0.0014743
0.0017418
0.00200842
0.00227379
0.00253744
0.00279859
0.00305541
0.00330296
0.00352825
0.00370142
0.00376673
0.00364166
0.00320713
0.00228838
0.000558189
-5.88516e-05
-0.000173195
-0.000287438
-0.000402128
-0.000516789
-0.000631
-0.000744259
-0.000855859
-0.000964873
-0.00107018
-0.00117057
-0.00126493
-0.00135257
-0.00143343
-0.00150818
-0.00157792
-0.00164398
-0.00170786
-0.00177077
-0.00186393
-6.7454e-05
-0.000197712
-0.000328419
-0.000459834
-0.000591564
-0.000723299
-0.000854542
-0.000984543
-0.00111225
-0.0012363
-0.00135507
-0.00146686
-0.00157024
-0.00166436
-0.0017492
-0.00182528
-0.00189292
-0.00195086
-0.0019954
-0.00203293
-7.60643e-05
-0.000222348
-0.000369389
-0.000517594
-0.00066651
-0.000815886
-0.000965263
-0.00111385
-0.00126045
-0.00140341
-0.00154064
-0.00166972
-0.00178833
-0.00189465
-0.00198788
-0.00206815
-0.00213592
-0.0021909
-0.00223244
-0.00226839
-8.45177e-05
-0.000246806
-0.000410098
-0.00057499
-0.000741056
-0.000908095
-0.00107567
-0.00124297
-0.00140867
-0.00157083
-0.00172687
-0.00187366
-0.00200797
-0.00212703
-0.00222935
-0.00231499
-0.0023851
-0.00244076
-0.00248301
-0.00252397
-9.28038e-05
-0.000270829
-0.000450147
-0.000631525
-0.000814595
-0.000999227
-0.00118504
-0.00137121
-0.00155632
-0.00173819
-0.00191379
-0.00207934
-0.00223066
-0.00236405
-0.00247732
-0.00257051
-0.00264558
-0.00270473
-0.00274987
-0.0027961
-0.000100862
-0.000294174
-0.000489123
-0.000686639
-0.000886439
-0.0010885
-0.00129251
-0.00149771
-0.00170262
-0.00190491
-0.00210117
-0.00228699
-0.00245734
-0.00260747
-0.0027343
-0.00283767
-0.00292006
-0.00298465
-0.00303405
-0.00308599
-0.000108589
-0.000316536
-0.000526515
-0.000739638
-0.000955734
-0.00117492
-0.00139702
-0.00162137
-0.00184653
-0.00207008
-0.00228833
-0.00249633
-0.00268817
-0.00285795
-0.00300144
-0.00311785
-0.00320993
-0.00328171
-0.00333655
-0.003395
-0.000115859
-0.000337541
-0.000561703
-0.000789663
-0.0010214
-0.00125722
-0.00149714
-0.00174065
-0.00198646
-0.00223216
-0.0024739
-0.00270625
-0.00292245
-0.00311532
-0.00327911
-0.00341188
-0.00351629
-0.00359715
-0.00365864
-0.00372479
-0.000122513
-0.000356714
-0.0005939
-0.000835621
-0.00108206
-0.00133375
-0.00159097
-0.00185347
-0.00212019
-0.00238886
-0.00265561
-0.00291465
-0.00315842
-0.00337834
-0.00356673
-0.00371992
-0.00383992
-0.00393218
-0.00400188
-0.00407734
-0.00012835
-0.000373468
-0.000622123
-0.000876135
-0.00113593
-0.00140236
-0.00167602
-0.00195702
-0.00224464
-0.00253692
-0.00283011
-0.00311827
-0.00339309
-0.00364458
-0.00386279
-0.00404151
-0.00418134
-0.00428807
-0.00436804
-0.00445501
-0.000133128
-0.000387087
-0.000645167
-0.000909495
-0.00118081
-0.00146032
-0.00174905
-0.00204756
-0.00235564
-0.00267181
-0.00299267
-0.0033123
-0.00362189
-0.00391004
-0.00416431
-0.00437511
-0.00454054
-0.00466602
-0.00475916
-0.0048607