/*--------------------------------*- C++ -*----------------------------------*\
| =========                 |                                                 |
| \\      /  F ield         | OpenFOAM: The Open Source CFD Toolbox           |
|  \\    /   O peration     | Version:  v1806                                 |
|   \\  /    A nd           | Web:      www.OpenFOAM.com                      |
|    \\/     M anipulation  |                                                 |
\*---------------------------------------------------------------------------*/
FoamFile
{
    version     2.0;
    format      ascii;
    class       surfaceScalarField;
    location    "12";
    object      phi;
}
// * * * * * * * * * * * * * * * * * * * * * * * * * * * * * * * * * * * * * //

dimensions      [0 3 -1 0 0 0 0];
oriented        oriented;


internalField   nonuniform List<scalar> 
8600
(
1.00044
-0.680573
-0.933297
0.613433
0.909567
-0.739824
0.830695
0.748112
-0.726674
0.888129
0.635547
-0.743568
0.856133
0.566664
-0.78101
0.849893
0.509992
-0.819653
0.876325
0.455359
-0.841533
0.896166
0.405779
-0.845028
0.894607
0.363798
-0.840373
0.882354
0.330033
-0.838854
0.87262
0.303928
-0.843384
0.869489
0.284214
-0.850874
0.870587
0.269561
-0.857877
0.87253
0.258335
-0.862133
0.873359
0.249492
-0.863718
0.872561
0.242647
-0.86356
0.870406
0.237676
-0.86252
0.867491
0.234081
-0.860704
0.864299
0.231756
-0.857993
0.860318
-0.855302
0.85589
0.259092
-0.610106
-0.32956
0.196295
-0.677027
0.200122
-0.730501
0.230631
-0.774077
0.251902
-0.802281
0.261139
-0.828889
0.263454
-0.843848
0.262155
-0.843729
0.260547
-0.838765
0.259786
-0.838093
0.259058
-0.842656
0.256994
-0.848809
0.252781
-0.853665
0.247168
-0.85652
0.241476
-0.858025
0.236529
-0.858613
0.232253
-0.858244
0.228792
-0.857243
0.226336
-0.855537
-0.854359
0.457253
-0.692719
-0.37464
0.520694
-0.740468
0.531013
-0.74082
0.49708
-0.740144
0.461241
-0.766442
0.428483
-0.796131
0.394786
-0.810151
0.361163
-0.810105
0.330638
-0.80824
0.304494
-0.811949
0.282594
-0.820756
0.26481
-0.831025
0.250995
-0.83985
0.240873
-0.846397
0.2334
-0.850553
0.227486
-0.8527
0.222487
-0.853245
0.218615
-0.853371
0.215854
-0.852776
-0.852889
0.13888
-0.701862
-0.129737
0.113773
-0.715361
0.0932568
-0.720304
0.103063
-0.74995
0.130825
-0.794205
0.154013
-0.819319
0.169707
-0.825845
0.181408
-0.821806
0.191707
-0.81854
0.201252
-0.821494
0.209356
-0.82886
0.214919
-0.836587
0.217482
-0.842414
0.21725
-0.846165
0.215075
-0.848378
0.21218
-0.849804
0.209728
-0.850793
0.207972
-0.851614
0.207082
-0.851887
-0.852625
0.255484
-0.74653
-0.210816
0.305766
-0.765643
0.348883
-0.763421
0.365206
-0.766273
0.353831
-0.78283
0.335001
-0.800489
0.314563
-0.805406
0.294722
-0.801965
0.276673
-0.800491
0.260398
-0.805219
0.245687
-0.814149
0.23287
-0.82377
0.222613
-0.832158
0.215032
-0.838584
0.209902
-0.843247
0.206514
-0.846416
0.204548
-0.848828
0.203508
-0.850574
0.203423
-0.851801
-0.853423
0.072045
-0.754242
-0.0643325
0.0645227
-0.75812
0.0518128
-0.750711
0.0503034
-0.764764
0.0643913
-0.796918
0.0867267
-0.822824
0.107051
-0.82573
0.124376
-0.81929
0.139693
-0.815809
0.153537
-0.819063
0.16564
-0.826252
0.175542
-0.833672
0.182746
-0.839361
0.187267
-0.843105
0.189591
-0.845571
0.190631
-0.847457
0.190993
-0.84919
0.191153
-0.850733
0.191377
-0.852026
-0.853722
0.165024
-0.78478
-0.134486
0.198927
-0.792023
0.236876
-0.78866
0.262776
-0.790663
0.270445
-0.804587
0.260167
-0.812546
0.246715
-0.812278
0.234612
-0.807188
0.224052
-0.805249
0.214102
-0.809112
0.204519
-0.81667
0.195664
-0.824818
0.187932
-0.831629
0.181715
-0.836887
0.177084
-0.84094
0.173875
-0.844248
0.171417
-0.846732
0.169468
-0.848784
0.167731
-0.850288
-0.852464
0.0371438
-0.788037
-0.0338872
0.0347805
-0.789659
0.0275787
-0.781459
0.0239469
-0.787031
0.0288207
-0.809461
0.0454443
-0.82917
0.064185
-0.831019
0.0812832
-0.824286
0.0967581
-0.820724
0.111015
-0.823369
0.123775
-0.82943
0.134379
-0.835421
0.142554
-0.839805
0.148321
-0.842655
0.151948
-0.844567
0.153668
-0.845968
0.154233
-0.847297
0.154231
-0.848783
0.154285
-0.850342
-0.852665
0.115516
-0.81133
-0.092223
0.139606
-0.813749
0.168393
-0.810246
0.193564
-0.812201
0.20598
-0.821877
0.203153
-0.826343
0.195158
-0.823024
0.187934
-0.817062
0.181608
-0.814398
0.175151
-0.816911
0.168128
-0.822407
0.161016
-0.828309
0.154729
-0.833517
0.149946
-0.837872
0.146958
-0.841579
0.145811
-0.844821
0.146162
-0.847647
0.147286
-0.849907
0.148828
-0.851884
-0.853895
0.0178616
-0.811668
-0.0175236
0.0164369
-0.812325
0.0118469
-0.805657
0.00768783
-0.808042
0.00852441
-0.822714
0.0189659
-0.836784
0.0342303
-0.838288
0.0495766
-0.832408
0.064232
-0.829053
0.0780094
-0.830689
0.0908012
-0.835199
0.102456
-0.839964
0.112525
-0.843586
0.120599
-0.845946
0.126507
-0.847487
0.130351
-0.848665
0.132351
-0.849648
0.133206
-0.850762
0.133337
-0.852015
-0.853592
0.0848264
-0.830284
-0.0662102
0.103143
-0.830641
0.125028
-0.827542
0.146336
-0.82935
0.159894
-0.836272
0.161521
-0.838411
0.157239
-0.834007
0.153084
-0.828252
0.149505
-0.825474
0.145587
-0.826771
0.140661
-0.830272
0.134822
-0.834125
0.128774
-0.837538
0.12332
-0.840492
0.118993
-0.84316
0.115874
-0.845546
0.113967
-0.84774
0.112988
-0.849783
0.112579
-0.851605
-0.853561
0.00540418
-0.82851
-0.00717803
0.00353623
-0.828773
5.60527e-05
-0.824061
-0.00458616
-0.824708
-0.00699169
-0.833867
-0.00177838
-0.843624
0.00909809
-0.844883
0.0212147
-0.840369
0.033213
-0.837473
0.044623
-0.838181
0.0554467
-0.841096
0.0655915
-0.84427
0.0747712
-0.846718
0.0826047
-0.848325
0.0888491
-0.849405
0.0935686
-0.850266
0.0969579
-0.851129
0.099216
-0.852042
0.100649
-0.853039
-0.854196
0.0635263
-0.84343
-0.0486065
0.0775989
-0.842846
0.0940882
-0.840551
0.111637
-0.842256
0.124516
-0.846746
0.127688
-0.846797
0.125046
-0.842241
0.122068
-0.837391
0.119616
-0.835021
0.11702
-0.835585
0.113629
-0.837705
0.109544
-0.840185
0.105262
-0.842436
0.101369
-0.844432
0.0982105
-0.846247
0.0959094
-0.847965
0.094391
-0.849611
0.0935211
-0.851172
0.0930334
-0.852551
-0.854016
-0.00227795
-0.840429
-0.000722963
-0.00461411
-0.840509
-0.00761808
-0.837547
-0.0121803
-0.837694
-0.015953
-0.842973
-0.0133768
-0.849373
-0.00580868
-0.84981
0.00369383
-0.846893
0.0138183
-0.845145
0.0239
-0.845667
0.0336291
-0.847434
0.0427459
-0.849302
0.0510757
-0.850765
0.058438
-0.851795
0.0646526
-0.852461
0.0695755
-0.852888
0.0731571
-0.853193
0.0754348
-0.853449
0.0767274
-0.853844
-0.854439
0.0487602
-0.852583
-0.0366064
0.059744
-0.851493
0.0723932
-0.850196
0.0868247
-0.852126
0.0987515
-0.8549
0.102489
-0.85311
0.101084
-0.848405
0.0982976
-0.844106
0.0953653
-0.842213
0.0924018
-0.842703
0.0890788
-0.844111
0.0851695
-0.845393
0.0807507
-0.846347
0.0761309
-0.847175
0.0717794
-0.84811
0.0681108
-0.849219
0.0653906
-0.850472
0.0636907
-0.851749
0.0628114
-0.852964
-0.854231
-0.00915133
-0.848164
0.00473216
-0.0124021
-0.848242
-0.0160479
-0.84655
-0.0214726
-0.846701
-0.0266896
-0.849683
-0.0267002
-0.8531
-0.0221064
-0.852999
-0.0152007
-0.851012
-0.00729481
-0.850119
0.000629343
-0.850627
0.00824113
-0.851723
0.0155666
-0.852718
0.0226028
-0.853383
0.0291904
-0.853762
0.0350224
-0.853942
0.0398463
-0.854043
0.0434918
-0.854118
0.0459844
-0.854242
0.0475028
-0.854483
-0.854825
0.0363646
-0.857535
-0.0269928
0.0444288
-0.856307
0.053667
-0.855788
0.0648654
-0.857899
0.0748046
-0.859622
0.0786224
-0.856917
0.0780697
-0.852446
0.0754773
-0.84842
0.0720226
-0.846664
0.0683699
-0.846975
0.064634
-0.847987
0.0606871
-0.848771
0.0565215
-0.849217
0.0523415
-0.849582
0.0484666
-0.850067
0.0451499
-0.850726
0.0425677
-0.851536
0.0408154
-0.85249
0.0397791
-0.853446
-0.854353
-0.0133999
-0.852425
0.00828947
-0.0171271
-0.852579
-0.0212266
-0.851689
-0.0273806
-0.851745
-0.0336293
-0.853374
-0.0348777
-0.855669
-0.0316431
-0.855681
-0.0259318
-0.854131
-0.0191506
-0.853445
-0.0123306
-0.853795
-0.00580786
-0.85451
0.000439516
-0.855019
0.00641432
-0.855192
0.0119497
-0.855118
0.0168431
-0.85496
0.0209211
-0.854804
0.0241628
-0.854777
0.0265069
-0.854834
0.0280885
-0.855028
-0.8552
0.0265716
-0.85996
-0.019037
0.0331287
-0.859137
0.0409442
-0.859504
0.0503379
-0.861139
0.0586902
-0.861726
0.0621959
-0.859175
0.0613448
-0.854829
0.058323
-0.851109
0.0538652
-0.848988
0.0485894
-0.848519
0.0430367
-0.848957
0.0376845
-0.849666
0.0328436
-0.850351
0.0286622
-0.850937
0.0251716
-0.851469
0.0224275
-0.85206
0.0203684
-0.852718
0.0189329
-0.853398
0.0180429
-0.854138
-0.854843
-0.0193841
0.0144245
-0.0235207
-0.028025
-0.0341641
-0.0408901
-0.0450648
-0.0448943
-0.0410036
-0.0349912
-0.02851
-0.0224669
-0.0171334
-0.0124845
-0.00842097
-0.00489045
-0.00195057
0.000331071
0.00193271
0.00279459
-0.30357
-0.0672215
0.370792
-0.237723
-0.065847
-0.174395
-0.0633285
-0.112899
-0.0614958
-0.0528571
-0.0600419
0.00617153
-0.0590286
0.0645887
-0.0584172
0.122797
-0.0582078
0.18117
-0.0583739
0.240022
-0.0588519
0.299671
-0.0596488
0.360423
-0.0607516
0.42268
-0.0622571
0.486655
-0.0639749
0.553088
-0.0664328
0.621741
-0.0686534
0.694334
-0.0725929
0.769319
-0.0749851
0.850725
-0.0814057
-0.0825725
-0.04313
-0.0854171
0.0613255
-0.0248143
-0.0841627
-0.0050169
-0.0831259
0.0157553
-0.082268
0.0373185
-0.0816051
0.0594231
-0.0811332
0.0818533
-0.0808474
0.104391
-0.0807451
0.126843
-0.0808261
0.149083
-0.0810917
0.17098
-0.0815458
0.192426
-0.0821981
0.21322
-0.083051
0.233385
-0.0841401
0.252382
-0.0854297
0.270783
-0.0870544
0.287009
-0.0888184
0.30319
-0.0911662
0.315204
-0.09342
-0.0969281
-0.0271739
-0.102664
0.0444208
-0.00877293
-0.102564
0.0105942
-0.102493
0.0307808
-0.102455
0.0516412
-0.102465
0.0730508
-0.102543
0.0949045
-0.102701
0.117109
-0.10295
0.13958
-0.103297
0.162235
-0.103747
0.184992
-0.104302
0.20776
-0.104966
0.230449
-0.10574
0.25293
-0.106621
0.275118
-0.107618
0.296774
-0.108711
0.31788
-0.109924
0.337954
-0.11124
0.357135
-0.112602
-0.114433
1.4146e-05
-0.111444
0.00876588
0.00866079
-0.11121
0.0171729
-0.111005
0.0255673
-0.110849
0.0338539
-0.110752
0.0420293
-0.110718
0.0500778
-0.11075
0.0579749
-0.110847
0.0656904
-0.111012
0.0731906
-0.111247
0.0804403
-0.111552
0.0874044
-0.11193
0.0940475
-0.112383
0.100341
-0.112915
0.10625
-0.113527
0.111766
-0.114227
0.116859
-0.115017
0.121535
-0.115915
0.125892
-0.116959
-0.118278
0.00963913
-0.121053
-2.97863e-05
0.0195226
-0.121094
0.0296801
-0.121163
0.0400862
-0.121255
0.0507049
-0.121371
0.0614985
-0.121512
0.0724302
-0.121681
0.0834652
-0.121882
0.0945692
-0.122117
0.105708
-0.122386
0.116848
-0.122692
0.127953
-0.123035
0.138985
-0.123416
0.149905
-0.123835
0.160673
-0.124294
0.171242
-0.124796
0.181572
-0.125348
0.191623
-0.125966
0.201352
-0.126687
-0.127742
-0.000195661
-0.125664
0.00480589
0.00430671
-0.125596
0.00868482
-0.125541
0.0129354
-0.125506
0.0170614
-0.125497
0.021067
-0.125517
0.0249551
-0.125569
0.0287266
-0.125654
0.032381
-0.125771
0.0359165
-0.125921
0.0393307
-0.126106
0.0426218
-0.126326
0.0457881
-0.126582
0.0488297
-0.126876
0.0517477
-0.127212
0.0545459
-0.127594
0.0572286
-0.128031
0.0598
-0.128538
0.0622597
-0.129147
-0.129815
0.013238
-0.131693
-0.00720881
0.0193761
-0.131734
0.025626
-0.131791
0.0319812
-0.131861
0.0384283
-0.131944
0.0449509
-0.13204
0.0515313
-0.13215
0.058152
-0.132274
0.0647955
-0.132414
0.0714448
-0.132571
0.0780829
-0.132744
0.0846925
-0.132935
0.0912562
-0.133146
0.0977559
-0.133376
0.104173
-0.133629
0.110489
-0.13391
0.116684
-0.134226
0.122738
-0.134592
0.128626
-0.135035
-0.135675
-0.00406823
-0.134386
0.00676139
-0.00144453
-0.134358
0.00110104
-0.134336
0.00356529
-0.134325
0.00594901
-0.134328
0.00825518
-0.134346
0.0104876
-0.134382
0.0126499
-0.134437
0.0147456
-0.13451
0.0167775
-0.134603
0.0187485
-0.134715
0.0206613
-0.134848
0.0225185
-0.135003
0.0243232
-0.135181
0.0260786
-0.135385
0.0277877
-0.135619
0.0294518
-0.13589
0.0310673
-0.136208
0.0326214
-0.136589
-0.136941
0.0114884
-0.13846
-0.00741385
0.0156198
-0.138489
0.01981
-0.138527
0.0240568
-0.138572
0.0283539
-0.138625
0.0326929
-0.138685
0.0370639
-0.138753
0.0414567
-0.138829
0.0458608
-0.138914
0.0502658
-0.139008
0.0546615
-0.139111
0.0590375
-0.139224
0.0633837
-0.139349
0.0676897
-0.139487
0.0719447
-0.13964
0.076138
-0.139812
0.0802584
-0.14001
0.0842936
-0.140243
0.0882224
-0.140518
-0.140942
-0.00665647
-0.140155
0.00835112
-0.0050068
-0.140139
-0.00340679
-0.140127
-0.00185842
-0.14012
-0.00036131
-0.140122
0.0010865
-0.140133
0.0024879
-0.140155
0.00384616
-0.140188
0.0051646
-0.140233
0.0064464
-0.14029
0.00769459
-0.140359
0.00891205
-0.140442
0.0101015
-0.140538
0.0112655
-0.140651
0.0124063
-0.14078
0.0135249
-0.140931
0.0146206
-0.141106
0.0156895
-0.141312
0.0167289
-0.141557
-0.141736
0.00933351
-0.143035
-0.00645365
0.0122485
-0.143054
0.0152
-0.143078
0.0181869
-0.143107
0.0212059
-0.143141
0.0242522
-0.143179
0.0273198
-0.143222
0.0304021
-0.14327
0.0334921
-0.143323
0.0365831
-0.143381
0.0396682
-0.143444
0.0427407
-0.143514
0.0457937
-0.143591
0.0488206
-0.143678
0.0518147
-0.143774
0.0547693
-0.143885
0.0576773
-0.144014
0.0605296
-0.144164
0.0633092
-0.144337
-0.144637
-0.00790689
-0.144108
0.00898001
-0.00686434
-0.144097
-0.00585518
-0.144087
-0.00488068
-0.144082
-0.00394065
-0.144081
-0.00303378
-0.144086
-0.00215802
-0.144098
-0.0013109
-0.144117
-0.000489774
-0.144144
0.000308009
-0.144178
0.00108499
-0.144221
0.00184355
-0.144273
0.00258585
-0.144334
0.00331366
-0.144405
0.0040281
-0.144489
0.00472933
-0.144587
0.00541619
-0.144701
0.00608696
-0.144835
0.00674408
-0.144994
-0.145071
0.00803934
-0.146154
-0.00599372
0.0101095
-0.146167
0.0122052
-0.146183
0.0143259
-0.146202
0.0164696
-0.146225
0.0186331
-0.14625
0.0208125
-0.146277
0.0230033
-0.146308
0.0252007
-0.146341
0.0273999
-0.146378
0.029596
-0.146417
0.0317842
-0.146461
0.0339598
-0.146509
0.0361182
-0.146564
0.0382549
-0.146626
0.0403653
-0.146697
0.0424443
-0.14678
0.0444844
-0.146875
0.0464726
-0.146982
-0.147205
-0.00838447
-0.146829
0.00905965
-0.00773068
-0.14682
-0.00710012
-0.146814
-0.00649361
-0.146809
-0.00591106
-0.146807
-0.00535158
-0.146809
-0.00481372
-0.146815
-0.00429566
-0.146826
-0.00379541
-0.146841
-0.00331097
-0.146862
-0.00284041
-0.146888
-0.002382
-0.146919
-0.00193431
-0.146957
-0.00149639
-0.147002
-0.00106797
-0.147054
-0.000649479
-0.147115
-0.000241759
-0.147187
0.000155199
-0.147272
0.000544585
-0.147371
-0.147384
0.00695368
-0.14831
-0.00547226
0.00845365
-0.14832
0.00997295
-0.148333
0.0115113
-0.148347
0.0130675
-0.148363
0.0146393
-0.148381
0.0162242
-0.1484
0.0178188
-0.148421
0.0194198
-0.148442
0.0210235
-0.148466
0.0226265
-0.148491
0.0242252
-0.148518
0.0258162
-0.148548
0.0273963
-0.148582
0.0289623
-0.14862
0.0305109
-0.148664
0.0320377
-0.148714
0.0335364
-0.148771
0.0349964
-0.148831
-0.148994
-0.0079788
-0.148632
0.00830065
-0.00767296
-0.148626
-0.00738448
-0.148621
-0.00711403
-0.148618
-0.00686161
-0.148616
-0.00662668
-0.148616
-0.00640822
-0.148619
-0.00620493
-0.148624
-0.00601534
-0.148632
-0.00583794
-0.148643
-0.0056713
-0.148657
-0.00551418
-0.148675
-0.00536569
-0.148697
-0.00522535
-0.148722
-0.00509322
-0.148752
-0.00496974
-0.148788
-0.00485528
-0.148829
-0.00474926
-0.148877
-0.00464776
-0.148933
-0.148909
0.00724125
-0.149593
-0.00628038
0.008217
-0.149602
0.00920832
-0.149613
0.0102151
-0.149624
0.0112367
-0.149637
0.0122716
-0.149651
0.0133179
-0.149665
0.0143734
-0.149679
0.0154357
-0.149694
0.0165022
-0.14971
0.0175703
-0.149726
0.0186376
-0.149742
0.0197019
-0.149761
0.0207609
-0.149781
0.0218126
-0.149804
0.0228543
-0.149829
0.0238826
-0.149857
0.0248923
-0.149886
0.0258748
-0.149915
-0.150027
-0.00777373
-0.149661
0.00784224
-0.00771621
-0.14966
-0.00767055
-0.149658
-0.00763709
-0.149658
-0.00761574
-0.149659
-0.00760597
-0.149661
-0.00760691
-0.149664
-0.00761746
-0.149669
-0.00763635
-0.149675
-0.00766232
-0.149684
-0.00769413
-0.149694
-0.00773076
-0.149706
-0.00777141
-0.14972
-0.00781559
-0.149737
-0.00786299
-0.149756
-0.0079132
-0.149779
-0.0079653
-0.149805
-0.00801734
-0.149834
-0.00806495
-0.149868
-0.149803
0.00684033
-0.150229
-0.00627227
0.00742022
-0.150239
0.00801249
-0.150251
0.00861714
-0.150263
0.00923365
-0.150275
0.00986106
-0.150288
0.0104981
-0.150301
0.011143
-0.150314
0.0117943
-0.150327
0.0124501
-0.150339
0.0131086
-0.150352
0.0137684
-0.150366
0.0144279
-0.15038
0.0150857
-0.150395
0.0157404
-0.150411
0.0163901
-0.150429
0.017032
-0.150447
0.017662
-0.150464
0.0182734
-0.150479
-0.150566
-0.00753917
0.00730969
-0.00777861
-0.00802919
-0.00829177
-0.00856692
-0.00885493
-0.00915589
-0.00946973
-0.00979636
-0.0101358
-0.0104881
-0.0108537
-0.0112334
-0.0116282
-0.0120393
-0.0124681
-0.0129149
-0.0133792
-0.0138583
-0.437885
-0.0982922
0.0938085
0.442369
-0.434635
-0.0964704
0.0932207
-0.432148
-0.0947976
0.0923102
-0.430594
-0.0931539
0.0916005
-0.430093
-0.0915565
0.0910547
-0.430741
-0.0900266
0.0906751
-0.432581
-0.0885836
0.090424
-0.43559
-0.0872452
0.0902534
-0.439659
-0.0860254
0.0900952
-0.444589
-0.0849326
0.0898627
-0.450069
-0.083967
0.0894467
-0.455658
-0.0831184
0.0887077
-0.460761
-0.0823638
0.0874662
-0.464593
-0.081662
0.0854943
-0.466145
-0.0809447
0.0824965
-0.4641
-0.0801016
0.0780572
-0.456703
-0.0789581
0.071561
-0.441513
-0.0772337
0.0620437
-0.414959
-0.0744869
0.0479322
-0.0702637
0.0260968
-0.279584
-0.107561
0.288853
-0.269378
-0.106676
-0.258446
-0.10573
-0.246879
-0.104721
-0.234792
-0.103644
-0.222329
-0.102489
-0.209659
-0.101254
-0.196968
-0.0999361
-0.184438
-0.0985549
-0.17224
-0.0971312
-0.160516
-0.0956903
-0.14937
-0.0942643
-0.138844
-0.0928905
-0.128899
-0.0916071
-0.119396
-0.0904478
-0.110064
-0.0894331
-0.100463
-0.0885591
-0.0899084
-0.0877884
-0.0773427
-0.0870526
-0.0862809
-0.255292
-0.112432
0.260163
-0.250212
-0.111756
-0.244826
-0.111117
-0.239037
-0.11051
-0.232745
-0.109936
-0.225839
-0.109395
-0.218205
-0.108888
-0.209734
-0.108408
-0.200342
-0.107947
-0.189973
-0.1075
-0.178601
-0.107062
-0.166242
-0.106624
-0.152955
-0.106177
-0.138848
-0.105714
-0.124067
-0.105229
-0.108779
-0.104721
-0.0931362
-0.104202
-0.0772271
-0.103697
-0.0610329
-0.103247
-0.102893
-0.146963
-0.119212
0.153743
-0.140062
-0.118658
-0.133091
-0.118087
-0.126092
-0.117508
-0.119102
-0.116926
-0.112152
-0.116346
-0.105263
-0.115777
-0.0984433
-0.115227
-0.0916827
-0.114707
-0.0849577
-0.114225
-0.0782304
-0.113789
-0.0714501
-0.113404
-0.0645547
-0.113072
-0.0574751
-0.112794
-0.0501415
-0.112562
-0.0424937
-0.112369
-0.0344964
-0.112199
-0.0261568
-0.112037
-0.0175397
-0.111864
-0.111667
-0.149832
-0.124272
0.154892
-0.144503
-0.123988
-0.138858
-0.123732
-0.132876
-0.123491
-0.126537
-0.123265
-0.11983
-0.123052
-0.112755
-0.122852
-0.105318
-0.122664
-0.097539
-0.122487
-0.0894459
-0.122319
-0.081078
-0.122157
-0.0724817
-0.122
-0.0637076
-0.121847
-0.0548064
-0.121695
-0.0458222
-0.121546
-0.0367865
-0.121405
-0.0277107
-0.121275
-0.0185804
-0.121167
-0.00935437
-0.12109
-0.121051
-0.0883719
-0.128702
0.0928024
-0.083928
-0.128431
-0.0795168
-0.128143
-0.0751464
-0.127861
-0.0708201
-0.127591
-0.0665374
-0.127334
-0.0622937
-0.127096
-0.0580801
-0.126878
-0.053884
-0.126683
-0.0496894
-0.126513
-0.0454776
-0.126369
-0.0412285
-0.126249
-0.0369223
-0.126153
-0.0325419
-0.126075
-0.0280758
-0.126013
-0.023521
-0.125959
-0.0188871
-0.125909
-0.0141973
-0.125857
-0.00948829
-0.125799
-0.125733
-0.0945158
-0.132782
0.0985954
-0.0903051
-0.132642
-0.0859102
-0.132538
-0.0813296
-0.132442
-0.0765662
-0.132354
-0.071627
-0.132274
-0.0665229
-0.1322
-0.0612684
-0.132132
-0.0558815
-0.13207
-0.0503826
-0.132012
-0.0447936
-0.131958
-0.0391367
-0.131906
-0.0334326
-0.131857
-0.0276985
-0.131809
-0.0219465
-0.131765
-0.0161813
-0.131725
-0.010399
-0.131692
-0.00458705
-0.131669
0.00127439
-0.13166
-0.131668
-0.0595024
-0.135727
0.0624472
-0.056544
-0.135601
-0.0536303
-0.135451
-0.0507624
-0.13531
-0.0479389
-0.135178
-0.045156
-0.135057
-0.042408
-0.134948
-0.0396877
-0.134852
-0.0369866
-0.134771
-0.0342953
-0.134703
-0.0316041
-0.134649
-0.0289038
-0.134607
-0.0261864
-0.134574
-0.0234464
-0.134549
-0.0206819
-0.134529
-0.0178955
-0.134511
-0.015095
-0.134492
-0.0122939
-0.13447
-0.00950947
-0.134445
-0.134416
-0.0635553
-0.138823
0.066652
-0.0604122
-0.138744
-0.0571613
-0.138702
-0.0538057
-0.138666
-0.0503502
-0.138633
-0.0468017
-0.138605
-0.0431692
-0.13858
-0.0394632
-0.138558
-0.0356952
-0.138539
-0.0318771
-0.138521
-0.028021
-0.138505
-0.0241379
-0.13849
-0.0202373
-0.138475
-0.0163264
-0.13846
-0.0124087
-0.138447
-0.00848409
-0.138436
-0.0045485
-0.138428
-0.000594042
-0.138425
0.00338967
-0.138428
-0.13844
-0.0429713
-0.140808
0.0449557
-0.0409611
-0.140754
-0.0389907
-0.140673
-0.037059
-0.140597
-0.035164
-0.140528
-0.0333024
-0.140467
-0.0314696
-0.140413
-0.0296605
-0.140367
-0.0278692
-0.14033
-0.0260899
-0.140301
-0.0243166
-0.140278
-0.0225444
-0.140262
-0.020769
-0.14025
-0.0189881
-0.140241
-0.0172015
-0.140234
-0.0154115
-0.140226
-0.0136232
-0.140216
-0.011844
-0.140204
-0.0100834
-0.140189
-0.140172
-0.0444701
-0.14314
0.0468028
-0.0421349
-0.143089
-0.0397319
-0.143076
-0.0372648
-0.143064
-0.0347378
-0.143055
-0.0321564
-0.143048
-0.0295269
-0.143042
-0.0268566
-0.143038
-0.0241528
-0.143034
-0.0214231
-0.14303
-0.0186744
-0.143027
-0.0159131
-0.143023
-0.0131439
-0.143019
-0.0103702
-0.143015
-0.00759282
-0.143011
-0.00481079
-0.143008
-0.00202072
-0.143006
0.000782507
-0.143007
0.00360516
-0.143012
-0.143021
-0.0315483
-0.144451
0.0328587
-0.0302023
-0.144435
-0.028889
-0.144389
-0.0276063
-0.144347
-0.0263522
-0.144309
-0.0251239
-0.144276
-0.023918
-0.144248
-0.0227306
-0.144225
-0.0215577
-0.144207
-0.0203952
-0.144193
-0.0192392
-0.144183
-0.0180866
-0.144176
-0.0169349
-0.144171
-0.0157829
-0.144167
-0.0146309
-0.144163
-0.0134806
-0.144158
-0.0123354
-0.144151
-0.0111998
-0.144143
-0.0100794
-0.144132
-0.14412
-0.0302971
-0.14616
0.0320058
-0.0286092
-0.146123
-0.0268754
-0.146123
-0.0250993
-0.146123
-0.0232844
-0.146124
-0.0214347
-0.146126
-0.019555
-0.146128
-0.0176501
-0.14613
-0.015725
-0.146132
-0.0137847
-0.146133
-0.0118335
-0.146134
-0.00987509
-0.146134
-0.00791223
-0.146134
-0.00594637
-0.146133
-0.0039776
-0.146132
-0.0020046
-0.146131
-2.47751e-05
-0.146131
0.00196546
-0.146133
0.00397026
-0.146137
-0.146144
-0.0236553
-0.147015
0.0245111
-0.0227586
-0.14702
-0.0218886
-0.146993
-0.0210432
-0.146969
-0.0202201
-0.146947
-0.0194172
-0.146929
-0.0186317
-0.146914
-0.0178606
-0.146901
-0.0171009
-0.146892
-0.0163497
-0.146885
-0.0156042
-0.14688
-0.0148623
-0.146876
-0.0141224
-0.146874
-0.0133838
-0.146871
-0.0126468
-0.146869
-0.0119126
-0.146865
-0.0111836
-0.14686
-0.0104627
-0.146854
-0.00975351
-0.146846
-0.146838
-0.0208006
-0.14828
0.0220648
-0.0195702
-0.14825
-0.0183069
-0.148256
-0.0170139
-0.148262
-0.0156943
-0.148267
-0.0143511
-0.148272
-0.0129878
-0.148277
-0.0116081
-0.148281
-0.0102154
-0.148284
-0.00881315
-0.148287
-0.0074042
-0.148289
-0.00599091
-0.14829
-0.00457481
-0.14829
-0.00315656
-0.14829
-0.00173586
-0.148289
-0.000311437
-0.148289
0.00111879
-0.14829
0.00255751
-0.148292
0.0040077
-0.148296
-0.148302
-0.0158081
-0.148727
0.0162553
-0.0153147
-0.148743
-0.014842
-0.148729
-0.0143879
-0.148716
-0.0139509
-0.148704
-0.0135288
-0.148694
-0.0131196
-0.148686
-0.0127212
-0.148679
-0.0123311
-0.148674
-0.0119474
-0.148671
-0.0115681
-0.148668
-0.0111917
-0.148666
-0.0108172
-0.148664
-0.0104442
-0.148663
-0.0100731
-0.14866
-0.00970493
-0.148658
-0.00934127
-0.148654
-0.00898434
-0.148649
-0.00863662
-0.148644
-0.148638
-0.0106117
-0.149556
0.0114406
-0.00982167
-0.149533
-0.00900925
-0.149541
-0.00817711
-0.149548
-0.00732745
-0.149554
-0.00646265
-0.149559
-0.00558522
-0.149563
-0.00469767
-0.149567
-0.00380243
-0.14957
-0.00290171
-0.149571
-0.0019974
-0.149572
-0.00109086
-0.149573
-0.000182902
-0.149572
0.000726374
-0.149572
0.00163754
-0.149572
0.00255184
-0.149572
0.00347105
-0.149573
0.00439734
-0.149576
0.00533304
-0.14958
-0.149585
-0.0102444
-0.149713
0.0104017
-0.0100319
-0.149746
-0.00983772
-0.149735
-0.00965992
-0.149726
-0.00949692
-0.149717
-0.00934693
-0.149709
-0.00920804
-0.149702
-0.00907838
-0.149697
-0.0089561
-0.149692
-0.00883946
-0.149688
-0.00872693
-0.149685
-0.0086173
-0.149682
-0.00850973
-0.14968
-0.00840385
-0.149678
-0.0082998
-0.149676
-0.00819821
-0.149674
-0.00810015
-0.149671
-0.00800704
-0.149669
-0.00792051
-0.149666
-0.149664
-0.00343984
-0.150214
0.00394074
-0.00300031
-0.150186
-0.00254489
-0.150191
-0.0020753
-0.150195
-0.00159309
-0.150199
-0.00110008
-0.150202
-0.00059811
-0.150204
-8.90132e-05
-0.150206
0.00042548
-0.150206
0.000943812
-0.150206
0.00146471
-0.150206
0.00198728
-0.150205
0.00251108
-0.150204
0.00303617
-0.150203
0.00356312
-0.150203
0.00409296
-0.150203
0.00462709
-0.150205
0.0051672
-0.150209
0.00571504
-0.150214
-0.150221
-0.00344241
0.0032285
-0.00362793
-0.00381871
-0.00401393
-0.00421294
-0.00441496
-0.00461922
-0.00482492
-0.00503128
-0.00523759
-0.00544328
-0.00564799
-0.00585163
-0.00605446
-0.00625707
-0.00646041
-0.00666577
-0.00687465
-0.00708872
-0.0685236
-0.0165382
0.0850618
-0.049514
-0.0190095
-0.039162
-0.010352
-0.0286638
-0.0104983
-0.0210911
-0.00757268
-0.01447
-0.0066211
-0.00926054
-0.00520946
-0.00515988
-0.00410066
-0.00210591
-0.00305397
1.06695e-05
-0.00211658
0.00135449
-0.00134382
0.00203573
-0.000681238
0.00222507
-0.000189341
0.00207954
0.000145525
0.0017331
0.000346449
0.00128765
0.000445441
0.000820024
0.000467631
0.000395815
0.000424209
9.27069e-05
0.000303108
9.27066e-05
-0.0927866
-0.0347137
0.110962
-0.0762278
-0.0355683
-0.061982
-0.0245978
-0.0487877
-0.0236925
-0.0377663
-0.0185941
-0.0278864
-0.016501
-0.0195383
-0.0135575
-0.0125358
-0.0111032
-0.00691299
-0.00867682
-0.00261955
-0.00641002
0.000404675
-0.00436804
0.00232387
-0.00260043
0.0032906
-0.00115607
0.00352088
-8.47617e-05
0.00321631
0.00065102
0.00257502
0.00108673
0.00177112
0.00127153
0.000962502
0.00123283
0.000308856
0.000956754
0.000401562
-0.0946397
-0.0499967
0.109923
-0.0826924
-0.0475156
-0.0691208
-0.0381694
-0.0574031
-0.0354102
-0.0460943
-0.0299029
-0.0359497
-0.0266456
-0.0268502
-0.022657
-0.0188863
-0.0190671
-0.0121528
-0.0154103
-0.00669265
-0.0118701
-0.00252412
-0.00853657
0.000409102
-0.00553364
0.00223263
-0.00297961
0.00309426
-0.000946391
0.00320424
0.000541038
0.00277311
0.00151787
0.0020191
0.00202554
0.00115387
0.00209806
0.000394786
0.00171583
0.000796348
-0.0949376
-0.0614336
0.106375
-0.085165
-0.0572882
-0.073575
-0.0497594
-0.0632539
-0.0457312
-0.0526393
-0.0405175
-0.0428719
-0.036413
-0.0336673
-0.0318616
-0.0253203
-0.0274141
-0.0179473
-0.0227833
-0.0116794
-0.0181381
-0.00661074
-0.0136052
-0.00276714
-0.00937724
-0.000105576
-0.00564117
0.00149156
-0.00254353
0.00219103
-0.000158431
0.00219499
0.0015139
0.00173193
0.00248861
0.00103835
0.00279164
0.000364665
0.00238952
0.00116101
-0.094067
-0.0697595
0.102393
-0.0861493
-0.0652059
-0.0767794
-0.0591294
-0.0677446
-0.0547661
-0.0582949
-0.0499672
-0.049145
-0.0455629
-0.0402015
-0.040805
-0.0317596
-0.035856
-0.0239852
-0.0305577
-0.0170859
-0.0250374
-0.0112359
-0.0194553
-0.00654828
-0.0140649
-0.00305375
-0.0091357
-0.00069699
-0.00490029
0.000654262
-0.00150968
0.00119375
0.00097442
0.0011437
0.00253865
0.000748833
0.00318651
0.000272039
0.00286631
0.00143305
-0.092064
-0.0757148
0.0980193
-0.0858115
-0.0714583
-0.078462
-0.0664789
-0.0708427
-0.0623854
-0.062732
-0.058078
-0.054475
-0.0538199
-0.046112
-0.049168
-0.0378677
-0.0441003
-0.0299405
-0.0384849
-0.0225844
-0.0323935
-0.0160524
-0.0259872
-0.0105588
-0.0195585
-0.00623336
-0.0134612
-0.00309516
-0.00803849
-0.00105543
-0.00354942
5.84211e-05
-0.000139428
0.00046244
0.00213463
0.000410628
0.00323832
0.000166458
0.00311048
0.00159951
-0.0893573
-0.0800121
0.0936545
-0.0845277
-0.0762879
-0.0788165
-0.0721901
-0.0726028
-0.068599
-0.0658368
-0.064844
-0.0586635
-0.0609932
-0.0511331
-0.0566984
-0.0433858
-0.0518476
-0.0355956
-0.0462752
-0.0280146
-0.0399745
-0.0209442
-0.0330576
-0.0146952
-0.0258075
-0.00952022
-0.0186361
-0.00555232
-0.0120064
-0.00277922
-0.00632252
-0.00106353
-0.00185512
-0.00018718
0.00125827
0.000103775
0.00294737
7.93984e-05
0.00313486
0.00167891
-0.0863325
-0.0831629
0.0894833
-0.0826247
-0.0799957
-0.0781991
-0.0766156
-0.0732305
-0.0735677
-0.0677032
-0.0703713
-0.0616621
-0.0670343
-0.0551132
-0.0632474
-0.0481106
-0.0588501
-0.0407562
-0.0536296
-0.0332443
-0.0474863
-0.025865
-0.040437
-0.0189831
-0.0326893
-0.0129707
-0.0246486
-0.00811149
-0.0168656
-0.00452309
-0.00991092
-0.0021413
-0.00423691
-0.000770945
-0.000112087
-0.000143633
0.00232006
2.17788e-05
0.00296945
0.00170069
-0.0832215
-0.0854956
0.0855542
-0.0803694
-0.0828479
-0.0769346
-0.0800504
-0.0729963
-0.077506
-0.0685379
-0.0748297
-0.0635575
-0.0720147
-0.0580189
-0.068786
-0.0519053
-0.0649636
-0.0452318
-0.0603031
-0.0380968
-0.0546214
-0.0307142
-0.0478196
-0.0234294
-0.039974
-0.0166825
-0.0313955
-0.0109091
-0.022639
-0.00640976
-0.0144103
-0.00326208
-0.0073846
-0.00132907
-0.0020451
-0.000350755
0.00134174
-1.23001e-05
0.00263099
0.00168839
-0.0801469
-0.0872612
0.0819125
-0.0779441
-0.0850507
-0.0752683
-0.0827263
-0.0721551
-0.0806191
-0.0685813
-0.0784035
-0.0645259
-0.07607
-0.0599307
-0.0733813
-0.0547352
-0.0701591
-0.048885
-0.0661533
-0.0423782
-0.0611282
-0.035314
-0.0548838
-0.027944
-0.0473441
-0.0206872
-0.0386522
-0.0140737
-0.0292525
-0.00860056
-0.0198834
-0.00456035
-0.0114248
-0.00195649
-0.00464896
-0.000564668
-5.00749e-05
-3.82177e-05
0.00210454
0.00165017
-0.077179
-0.0886159
0.0785338
-0.0754628
-0.0867669
-0.0733696
-0.0848195
-0.0709084
-0.0830804
-0.0680516
-0.0812603
-0.0647708
-0.0793509
-0.0610017
-0.0771503
-0.0566667
-0.0744941
-0.0516721
-0.0711479
-0.0459414
-0.0668589
-0.0394601
-0.0613651
-0.0323437
-0.0544605
-0.0249016
-0.0460943
-0.0176524
-0.0365017
-0.0112323
-0.0263034
-0.00618785
-0.0164693
-0.0027622
-0.00807462
-0.000839503
-0.00197277
-7.23066e-05
0.00133735
0.00157786
-0.0743499
-0.0896852
0.0754192
-0.0729999
-0.0881168
-0.0713513
-0.0864681
-0.0694035
-0.0850282