/*--------------------------------*- C++ -*----------------------------------*\
| =========                 |                                                 |
| \\      /  F ield         | OpenFOAM: The Open Source CFD Toolbox           |
|  \\    /   O peration     | Version:  v1806                                 |
|   \\  /    A nd           | Web:      www.OpenFOAM.com                      |
|    \\/     M anipulation  |                                                 |
\*---------------------------------------------------------------------------*/
FoamFile
{
    version     2.0;
    format      ascii;
    class       surfaceScalarField;
    location    "4";
    object      phi;
}
// * * * * * * * * * * * * * * * * * * * * * * * * * * * * * * * * * * * * * //

dimensions      [0 3 -1 0 0 0 0];
oriented        oriented;


internalField   nonuniform List<scalar> 
4680
(
0.750005
-0.00289596
0.75007
-0.00898291
0.749937
-0.0167535
0.749842
-0.022675
0.750152
-0.0251275
0.750142
-0.0335564
0.749772
-0.0444311
0.749997
-0.0497745
0.7504
-0.0524438
0.75035
-0.0548436
0.750238
-0.0680116
0.74997
-0.0837717
0.750276
-0.0807564
0.751144
-0.0784017
0.751427
-0.0902594
0.751096
-0.102183
0.750704
-0.115507
0.751023
-0.120357
0.752724
-0.102579
-0.112898
0.753716
0.750053
-0.00294916
0.750115
-0.00904493
0.749838
-0.0164764
0.749783
-0.0226202
0.750306
-0.0256505
0.750222
-0.0334718
0.749819
-0.0440284
0.750141
-0.0500965
0.750398
-0.0527003
0.750622
-0.0550683
0.750939
-0.0683282
0.750473
-0.083306
0.750853
-0.0811362
0.752288
-0.0798369
0.752872
-0.0908429
0.752949
-0.10226
0.752801
-0.11536
0.753293
-0.120849
0.755504
-0.10479
-0.114455
0.757061
0.750063
-0.00301237
0.74995
-0.00893209
0.749753
-0.0162792
0.749953
-0.0228198
0.750327
-0.0260243
0.750173
-0.0333177
0.750037
-0.0438928
0.750036
-0.0500956
0.750169
-0.0528337
0.751147
-0.0560459
0.751443
-0.0686239
0.750792
-0.0826548
0.751598
-0.0819425
0.752912
-0.0811508
0.753607
-0.0915384
0.754517
-0.10317
0.754664
-0.115507
0.75534
-0.121525
0.757709
-0.107159
-0.116097
0.759351
0.749913
-0.00292506
0.749894
-0.0089129
0.750025
-0.016411
0.749979
-0.0227732
0.750016
-0.0260615
0.750206
-0.0335083
0.750005
-0.0436914
0.749722
-0.0498128
0.75055
-0.0536618
0.751489
-0.0569846
0.751226
-0.0683608
0.7512
-0.0826284
0.752232
-0.0829746
0.753212
-0.0821307
0.754632
-0.0929593
0.756015
-0.104552
0.756051
-0.115542
0.757167
-0.122641
0.759963
-0.109956
-0.118407
0.762274
0.74983
-0.00275456
0.750037
-0.00912014
0.750121
-0.0164948
0.749696
-0.0223484
0.749875
-0.0262405
0.750239
-0.0338722
0.749744
-0.0431964
0.749849
-0.0499183
0.750775
-0.0545879
0.750842
-0.0570514
0.751085
-0.0686042
0.751882
-0.0834248
0.752338
-0.083431
0.75347
-0.0832629
0.755606
-0.0950949
0.756978
-0.105924
0.757513
-0.116078
0.75912
-0.124248
0.761948
-0.112784
-0.121312
0.764853
0.749854
-0.00260884
0.75005
-0.00931605
0.749961
-0.0164059
0.749522
-0.0219091
0.749799
-0.0265174
0.749956
-0.0340294
0.749488
-0.0427284
0.74988
-0.05031
0.750159
-0.0548669
0.750205
-0.0570974
0.751361
-0.0697602
0.751868
-0.0839316
0.752151
-0.0837147
0.753895
-0.0850061
0.755845
-0.0970453
0.7574
-0.10748
0.75898
-0.117657
0.760717
-0.125985
0.763618
-0.115686
-0.125149
0.767456
0.749759
-0.0023682
0.749901
-0.00945799
0.749731
-0.016236
0.749425
-0.0216025
0.749636
-0.0267284
0.749596
-0.03399
0.749033
-0.0421652
0.749183
-0.0504596
0.74941
-0.0550944
0.750156
-0.0578434
0.751006
-0.0706101
0.75092
-0.0838453
0.751988
-0.084783
0.753815
-0.0868329
0.75535
-0.0985806
0.757722
-0.109851
0.760131
-0.120067
0.761848
-0.127701
0.765229
-0.119067
-0.129962
0.770042
0.749356
-0.0017241
0.749787
-0.00988864
0.749557
-0.0160062
0.749496
-0.0215418
0.749122
-0.0263538
0.748981
-0.0338499
0.748297
-0.0414809
0.74847
-0.0506327
0.74873
-0.0553542
0.749534
-0.0586475
0.749711
-0.0707873
0.74995
-0.0840838
0.751392
-0.0862252
0.752833
-0.088274
0.754745
-0.100493
0.757795
-0.112902
0.760463
-0.122734
0.762774
-0.130013
0.766769
-0.123063
-0.13557
0.772377
0.74873
-0.000454299
0.750087
-0.011245
0.74915
-0.0150696
0.749304
-0.0216958
0.748014
-0.0250638
0.748607
-0.0344428
0.747398
-0.0402724
0.747773
-0.0510072
0.747256
-0.0548372
0.748454
-0.0598462
0.748338
-0.0706709
0.74879
-0.0845362
0.749643
-0.0870773
0.75149
-0.0901214
0.753945
-0.102948
0.756679
-0.115635
0.759992
-0.126047
0.763323
-0.133344
0.767854
-0.127593
-0.142086
0.774371
0.748125
0.00142034
0.750316
-0.0134354
0.747887
-0.0126409
0.749344
-0.0231524
0.746907
-0.0226274
0.748325
-0.0358603
0.745782
-0.0377298
0.747297
-0.0525217
0.745089
-0.0526298
0.747498
-0.0622552
0.7461
-0.0692722
0.74715
-0.0855868
0.746737
-0.0866637
0.74971
-0.0930942
0.751754
-0.104992
0.754556
-0.118438
0.758889
-0.13038
0.762797
-0.137252
0.768143
-0.132939
-0.150065
0.776122
0.747389
0.00403091
0.750219
-0.016265
0.746706
-0.00912806
0.74978
-0.026226
0.745274
-0.0181216
0.747963
-0.0385493
0.744022
-0.0337886
0.746878
-0.0553782
0.742002
-0.0477538
0.746525
-0.0667783
0.742465
-0.0652115
0.745393
-0.088515
0.74233
-0.0836008
0.747343
-0.0981071
0.747489
-0.105138
0.752137
-0.123086
0.755915
-0.134158
0.76055
-0.141887
0.767991
-0.140379
-0.158804
0.776729
0.746877
0.00715374
0.750268
-0.0196559
0.745719
-0.00457856
0.749656
-0.0301629
0.743747
-0.0122132
0.747878
-0.0426805
0.741822
-0.0277327
0.74587
-0.0594254
0.738665
-0.040549
0.744883
-0.0729961
0.737231
-0.0575594
0.743183
-0.0944677
0.736065
-0.0764831
0.744084
-0.106125
0.740551
-0.101605
0.749078
-0.131613
0.749109
-0.134189
0.757054
-0.149832
0.765833
-0.149159
-0.168406
0.775435
0.74682
0.0103333
0.75006
-0.0228955
0.745024
0.000457763
0.749258
-0.0343972
0.742776
-0.00573147
0.747108
-0.0470123
0.739428
-0.0200525
0.744335
-0.0643324
0.734869
-0.0310831
0.741528
-0.0796554
0.731211
-0.0472426
0.739549
-0.102806
0.727779
-0.0647123
0.739261
-0.117607
0.73077
-0.0931145
0.744097
-0.14494
0.738029
-0.128121
0.752192
-0.163994
0.758183
-0.15515
-0.182121
0.771898
0.747143
0.0131904
0.749693
-0.0254457
0.745095
0.00505597
0.74826
-0.0375622
0.742021
0.000507819
0.745535
-0.0505262
0.737335
-0.0118527
0.741418
-0.0684153
0.730736
-0.020401
0.736844
-0.0857639
0.72493
-0.0353281
0.733114
-0.110991
0.718769
-0.0503664
0.732439
-0.131277
0.718032
-0.0787083
0.736181
-0.163089
0.723178
-0.115118
0.744998
-0.185814
0.745002
-0.155154
-0.204448
0.767328
0.748194
0.0149968
0.749183
-0.0264356
0.745489
0.00875087
0.74649
-0.0385632
0.741861
0.00513671
0.743149
-0.0518143
0.73561
-0.00431336
0.737597
-0.0704026
0.727452
-0.0102558
0.73088
-0.0891928
0.718975
-0.0234229
0.72512
-0.117136
0.710297
-0.0355429
0.722568
-0.143549
0.704725
-0.0608648
0.72566
-0.184024
0.705892
-0.0953498
0.735679
-0.215601
0.728811
-0.148286
-0.238201
0.762564
0.749542
0.0154546
0.748237
-0.0251301
0.746677
0.0103101
0.744929
-0.0368146
0.743169
0.00689692
0.740684
-0.0493297
0.736334
3.71098e-05
0.733801
-0.0678703
0.726763
-0.00321776
0.725548
-0.0879774
0.716038
-0.0139132
0.717359
-0.118457
0.704281
-0.0224652
0.711678
-0.150945
0.694734
-0.043921
0.712439
-0.201729
0.690357
-0.0732685
0.726606
-0.25185
0.712184
-0.133863
-0.289174
0.763156
0.750443
0.0150118
0.748287
-0.0229747
0.748329
0.0102689
0.744576
-0.0330617
0.744838
0.00663497
0.739696
-0.0441883
0.73887
0.000862916
0.732133
-0.0611332
0.730484
-0.00156808
0.722525
-0.080019
0.719396
-0.010784
0.711117
-0.110178
0.705074
-0.016422
0.702665
-0.148536
0.691283
-0.0325394
0.699376
-0.209822
0.683129
-0.0570213
0.715826
-0.284547
0.70035
-0.118386
-0.360173
0.771349
0.751279
0.0137328
0.748869
-0.0205645
0.749643
0.00949529
0.745667
-0.0290866
0.7463
0.0060026
0.740763
-0.0386515
0.741141
0.000484687
0.733082
-0.0530741
0.733767
-0.00225306
0.722848
-0.0691003
0.723617
-0.0115522
0.709572
-0.0961327
0.710795
-0.017645
0.695374
-0.133115
0.697563
-0.0347286
0.685156
-0.197415
0.682939
-0.0548048
0.702733
-0.304341
0.689408
-0.105061
-0.457252
0.786487
0.752927
0.0108053
0.749232
-0.0168692
0.751427
0.0073001
0.746666
-0.0243256
0.747922
0.0047473
0.742032
-0.0327624
0.742314
0.000202879
0.734164
-0.0449244
0.734252
-0.00234031
0.723294
-0.0581422
0.722988
-0.0112461
0.707482
-0.0806268
0.707987
-0.0181498
0.688674
-0.113803
0.691946
-0.0380004
0.667909
-0.173378
0.682951
-0.0698475
0.67062
-0.29201
0.693016
-0.127457
-0.523573
0.759337
0.754502
0.00630376
0.748586
-0.0109539
0.752619
0.00326712
0.74528
-0.0169863
0.748647
0.00138062
0.739423
-0.0235385
0.741924
-0.00229858
0.730095
-0.033095
0.731868
-0.00411299
0.717065
-0.0433399
0.717275
-0.0114558
0.697129
-0.0604812
0.696678
-0.017699
0.669474
-0.0865979
0.668253
-0.0367793
0.629333
-0.134458
0.6393
-0.0798146
0.588024
-0.240734
0.685547
-0.22498
0.745112
-0.583138
0.752594
-0.168363
0.752257
-0.179838
0.754331
-0.159989
0.755198
-0.164184
0.753537
-0.19976
0.75298
-0.210322
0.752005
-0.229644
0.752528
-0.198415
0.748746
-0.213051
-0.268582
0.743433
0.756468
-0.16777
0.756771
-0.18014
0.759167
-0.162384
0.759321
-0.164337
0.757229
-0.197669
0.756861
-0.209954
0.754408
-0.227191
0.753251
-0.197258
0.748371
-0.208171
-0.260199
0.739987
0.759391
-0.16781
0.76006
-0.180809
0.762181
-0.164506
0.762181
-0.164337
0.761126
-0.196614
0.759424
-0.208252
0.755154
-0.222921
0.754516
-0.19662
0.748856
-0.20251
-0.250795
0.739452
0.762722
-0.168259
0.763306
-0.181393
0.765499
-0.166699
0.766574
-0.165412
0.765753
-0.195792
0.762121
-0.20462
0.758572
-0.219372
0.757806
-0.195855
0.750099
-0.194803
-0.239538
0.738842
0.766059
-0.169465
0.767026
-0.18236
0.76966
-0.169333
0.771346
-0.167098
0.769778
-0.194224
0.766158
-0.200999
0.762923
-0.216137
0.761182
-0.194115
0.752931
-0.186551
-0.228045
0.741438
0.76946
-0.171469
0.771007
-0.183906
0.77425
-0.172576
0.776369
-0.169218
0.774768
-0.192622
0.771585
-0.197817
0.768156
-0.212708
0.765087
-0.191045
0.756802
-0.178267
-0.215882
0.744639
0.773073
-0.1745
0.775365
-0.186198
0.779037
-0.176249
0.781694
-0.171875
0.780458
-0.191386
0.778801
-0.196159
0.774607
-0.208514
0.769926
-0.186364
0.761489
-0.16983
-0.20331
0.748917
0.776744
-0.178867
0.780086
-0.18954
0.784014
-0.180177
0.787285
-0.175146
0.787833
-0.191934
0.786803
-0.195129
0.781569
-0.203281
0.775655
-0.18045
0.767705
-0.16188
-0.190773
0.755168
0.780348
-0.184845
0.784639
-0.19383
0.78938
-0.184918
0.794167
-0.179932
0.796232
-0.193999
0.795035
-0.193932
0.788047
-0.196293
0.783145
-0.175549
0.775547
-0.154282
-0.176788
0.761562
0.783373
-0.192096
0.789146
-0.199603
0.795109
-0.190881
0.801543
-0.186366
0.804921
-0.197377
0.803011
-0.192023
0.796871
-0.190153
0.792178
-0.170855
0.783229
-0.145334
-0.162003
0.768445
0.785653
-0.20102
0.793248
-0.207198
0.800455
-0.198089
0.809263
-0.195174
0.812656
-0.20077
0.811741
-0.191108
0.807039
-0.185451
0.801026
-0.164841
0.791368
-0.135676
-0.146895
0.776259
0.786818
-0.212403
0.795808
-0.216188
0.804472
-0.206752
0.817039
-0.207741
0.821264
-0.204994
0.820756
-0.190601
0.817522
-0.182216
0.809178
-0.156498
0.800774
-0.127271
-0.133045
0.786924
0.786571
-0.227076
0.795607
-0.225223
0.808999
-0.220145
0.82528
-0.224022
0.829761
-0.209475
0.831294
-0.192133
0.828935
-0.179858
0.821552
-0.149114
0.815939
-0.121658
-0.116982
0.799875
0.782508
-0.242255
0.794694
-0.23741
0.816425
-0.241876
0.835137
-0.242734
0.840818
-0.215156
0.8454
-0.196715
0.845414
-0.179872
0.839723
-0.143423
0.835694
-0.117629
-0.09993
0.818642
0.775037
-0.254729
0.801342
-0.263714
0.830911
-0.271445
0.847815
-0.259638
0.855633
-0.222974
0.866978
-0.208061
0.868942
-0.181836
0.865847
-0.140328
0.856528
-0.10831
-0.0781323
0.83473
0.770066
-0.261638
0.816246
-0.309894
0.85428
-0.309479
0.865831
-0.271189
0.8758
-0.232943
0.882373
-0.214634
0.883605
-0.183068
0.876208
-0.132932
0.859932
-0.0920344
-0.0455204
0.82732
0.776746
-0.267035
0.836631
-0.36978
0.873671
-0.346519
0.870548
-0.268066
0.867245
-0.22964
0.846838
-0.194227
0.8272
-0.16343
0.805388
-0.11112
0.774115
-0.0607614
-0.00630919
0.734904
0.793297
-0.273844
0.84593
-0.422413
0.81799
-0.318579
0.779186
-0.229262
0.735968
-0.186423
0.66588
-0.124138
0.595411
-0.092961
0.543792
-0.0595001
0.499175
-0.0161447
0.0229147
0.469951
0.73954
-0.254048
0.731559
-0.414432
0.631789
-0.218809
0.452375
-0.0498482
0.264448
0.00150533
0.126811
0.0134981
0.0359001
-0.00205004
0.00155368
-0.0251536
-0.0126391
-0.00195189
0.00426016
0.0060154
0.491065
0.076633
-0.142176
-0.192024
-0.190519
-0.177021
-0.179071
-0.204225
-0.206177
-0.201916
0.71786
-0.849029
0.639717
-1.15414
0.519508
-1.46864
0.387945
-1.58596
0.270692
-1.52437
0.180499
-1.36858
0.117772
-1.17904
0.0765155
-0.990193
0.0499301
-0.819136
0.0328652
-0.671461
0.0219102
-0.546737
0.0148609
-0.442361
0.0102983
-0.355298
0.00731785
-0.282638
0.00535012
-0.221731
0.00403975
-0.170207
0.0031661
-0.125952
0.00259714
-0.0870179
0.00225699
-0.0516514
-0.0179863
0.702613
-0.811655
0.625994
-1.07752
0.519594
-1.36224
0.404928
-1.47129
0.299323
-1.41876
0.213139
-1.2824
0.148766
-1.11467
0.103331
-0.944757
0.0720174
-0.787823
0.0504958
-0.64994
0.0356788
-0.53192
0.0254762
-0.432159
0.0184515
-0.348274
0.0136087
-0.277795
0.0102631
-0.218385
0.00795244
-0.167896
0.00637006
-0.12437
0.00532435
-0.0859722
0.00470539
-0.0510324
-0.0177741
0.702347
-0.77455
0.626507
-1.00168
0.518582
-1.25432
0.400523
-1.35323
0.293585
-1.31183
0.209253
-1.19807
0.148032
-1.05345
0.105373
-0.902099
0.0760644
-0.758514
0.0557622
-0.629637
0.0414275
-0.517585
0.0311379
-0.421869
0.0236848
-0.340821
0.0182704
-0.27238
0.0143437
-0.214459
0.0115179
-0.165071
0.00952387
-0.122376
0.00818886
-0.0846372
0.00741654
-0.0502601
-0.0175195
0.695043
-0.73075
0.621837
-0.928479
0.525458
-1.15794
0.420534
-1.24831
0.321464
-1.21276
0.23784
-1.11444
0.172923
-0.988534
0.125148
-0.854324
0.0910641
-0.72443
0.0670884
-0.605662
0.0501877
-0.500684
0.0381324
-0.409814
0.0294193
-0.332108
0.0230629
-0.266024
0.0184128
-0.209809
0.0150331
-0.161691
0.0126308
-0.119974
0.0110227
-0.0830291
0.010111
-0.0493483
-0.0172263
0.698782
-0.688094
0.626001
-0.855698
0.523448
-1.05539
0.411264
-1.13612
0.311007
-1.1125
0.231998
-1.03543
0.173188
-0.929724
0.130045
-0.811181
0.0982621
-0.692647
0.074747
-0.582146
0.0573343
-0.483272
0.0444235
-0.396903
0.0348257
-0.32251
0.0276788
-0.258877
0.0223691
-0.204499
0.018466
-0.157788
0.015672
-0.11718
0.0137985
-0.0811557
0.0127451
-0.0482949
-0.0168893
0.6954
-0.638856
0.623992
-0.78429
0.532489
-0.963884
0.432425
-1.03606
0.336809
-1.01688
0.255075
-0.9537
0.190825
-0.865474
0.143091
-0.763447
0.108425
-0.657981
0.0831484
-0.55687
0.0644796
-0.464603
0.0505364
-0.38296
0.0400502
-0.312024
0.0321459
-0.250973
0.0262092
-0.198562
0.0218066
-0.153385
0.0186366
-0.11401
0.0165051
-0.0790242
0.0153075
-0.0470973
-0.0165045
0.700677
-0.590615
0.625931
-0.709543
0.523979
-0.861932
0.416183
-0.928265
0.322692
-0.923392
0.249567
-0.880575
0.193226
-0.809132
0.149624
-0.719846
0.116097
-0.624454
0.0905469
-0.53132
0.0711282
-0.445184
0.0563414
-0.368173
0.0450567
-0.300739
0.0364493
-0.242365
0.0299219
-0.192035
0.025045
-0.148508
0.0215151
-0.11048
0.0191336
-0.0766427
0.0177908
-0.0457544
-0.0160697
0.697629
-0.533077
0.622432
-0.634346
0.532656
-0.772156
0.436585
-0.832194
0.343972
-0.830779
0.265238
-0.801841
0.204135
-0.748029
0.15833
-0.674041
0.123855
-0.589979
0.0975915
-0.505056
0.0774201
-0.425013
0.0618602
-0.352613
0.0498418
-0.288721
0.0405803
-0.233104
0.0334979
-0.184952
0.0281717
-0.143182
0.0242985
-0.106607
0.0216757
-0.0740199
0.0201885
-0.0442672
-0.0155833
0.702298
-0.473813
0.618416
-0.550465
0.514395
-0.668135
0.413086
-0.730884
0.328729
-0.746422
0.261516
-0.734629
0.207564
-0.694077
0.164523
-0.630999
0.13062
-0.556076
0.10408
-0.478516
0.083323
-0.404256
0.0670851
-0.336375
0.0543988
-0.276034
0.0445311
-0.223236
0.0369287
-0.17735
0.0311783
-0.137432
0.0269785
-0.102407
0.0241238
-0.0711652
0.0224942
-0.0426375
-0.0150448
0.700378
-0.405746
0.619385
-0.469471
0.528509
-0.57726
0.432928
-0.635302
0.343165
-0.656659
0.270036
-0.6615
0.213958
-0.638
0.170777
-0.587818
0.136912
-0.522211
0.110111
-0.451715
0.0888553
-0.383
0.072017
-0.319537
0.058723
-0.26274
0.0482948
-0.212808
0.0402065
-0.169262
0.0340568
-0.131282
0.0295474
-0.0978974
0.0264708
-0.0680886
0.0247019
-0.0408687
-0.0144541
0.70662
-0.336107
0.613021
-0.375871
0.504839
-0.469077
0.407803
-0.538267
0.329758
-0.578614
0.267417
-0.599159
0.216872
-0.587454
0.175821
-0.546767
0.142559
-0.488949
0.115677
-0.424834
0.0940234
-0.361346
0.0766568
-0.30217
0.0628111
-0.248895
0.0518656
-0.201862
0.0433245
-0.16072
0.0367999
-0.124758
0.031998
-0.0930955
0.02871
-0.0648006
0.0268061
-0.0389648
-0.013812
0.707873
-0.257056
0.624364
-0.292362
0.526248
-0.370961
0.423835
-0.435854
0.336473
-0.491252
0.270587
-0.533273
0.220469
-0.537336
0.180461
-0.506759
0.147713
-0.456201
0.120819
-0.39794
0.09884
-0.339367
0.0810074
-0.284338
0.0666605
-0.234548
0.0552384
-0.19044
0.0462763
-0.151758
0.039401
-0.117882
0.0343238
-0.0880184
0.0308353
-0.0613121
0.0288013
-0.0369308
-0.0131196
0.714539
-0.17172
0.609108
-0.186931
0.491444
-0.253296
0.394124
-0.338534
0.32199
-0.419119
0.266978
-0.47826
0.222134
-0.492491
0.184335
-0.46896
0.152369
-0.424236
0.125558
-0.371128
0.103317
-0.317127
0.0850722
-0.266093
0.0702698
-0.219745
0.058409
-0.178579
0.0490564
-0.142406
0.041854
-0.11068
0.0365188
-0.0826832
0.032841
-0.0576343
0.0306826
-0.0347724
-0.0123784
0.720135
-0.0732133
0.613133
-0.0799293
0.495362
-0.135525
0.39253
-0.235702
0.318328
-0.344918
0.2657
-0.425632
0.223795
-0.450587
0.187815
-0.43298
0.156618
-0.393038
0.129927
-0.344437
0.107469
-0.294669
0.0888553
-0.247479
0.0736378
-0.204528
0.0613735
-0.166315
0.0516598
-0.132692
0.0441534
-0.103174
0.0385774
-0.0771071
0.0347219
-0.0537788
0.0324454
-0.0324958
-0.0115903
0.71467
0.0468475
0.55757
0.0771699
0.425205
-0.00315975
0.347334
-0.157831
0.298752
-0.296336
0.260183
-0.387062
0.22435
-0.414754
0.190821
-0.399451
0.160495
-0.362712
0.133954
-0.317896
0.111309
-0.272024
0.0923612
-0.228531
0.0767641
-0.188931
0.0641288
-0.15368
0.0540818
-0.122645
0.0462941
-0.0953858
0.0404943
-0.0713073
0.0364731
-0.0497576
0.0340852
-0.0301079
-0.0107576
0.70659
0.167578
0.557623
0.226136
0.418837
0.135627
0.33516
-0.0741542
0.289501
-0.250677
0.256792
-0.354352
0.22509
-0.383053
0.19361
-0.367972
0.164071
-0.333172
0.137668
-0.291493
0.114849
-0.249205
0.0955941
-0.209276
0.0796481
-0.172985
0.066672
-0.140704
0.0563183
-0.112291
0.0482714
-0.0873389
0.0422651
-0.065301
0.0380901
-0.0455827
0.0355983
-0.0276161
-0.00988283
0.645623
0.256859
0.495714
0.376045
0.356267
0.275073
0.293466
-0.011353
0.270997
-0.228208
0.25131
-0.334666
0.225412
-0.357155
0.196183
-0.338742
0.16739
-0.30438
0.141093
-0.265196
0.118101
-0.226213
0.0985577
-0.189733
0.0822896
-0.156716
0.0690004
-0.127414
0.0583657
-0.101657
0.0500812
-0.0790544
0.0438853
-0.059105
0.039569
-0.0412664
0.0369808
-0.0250279
-0.00896882
0.451902
0.274909
0.334497
0.49345
0.254368
0.355202
0.248147
-0.00513166
0.255083
-0.235144
0.24732
-0.326903
0.226199
-0.336034
0.198763
-0.311306
0.17052
-0.276137
0.144256
-0.238932
0.121075
-0.203033
0.101255
-0.169913
0.0846878
-0.140149
0.0711115
-0.113838
0.0602205
-0.0907657
0.0517196
-0.0705536
0.0453511
-0.0527365
0.0409059
-0.0368211
0.0382295
-0.0223516
-0.00801862
0.157238
0.123686
0.145724
0.504965
0.170272
0.330653
0.217536
-0.0523958
0.245539
-0.263147
0.245932
-0.327295
0.227842
-0.317944
0.201493
-0.284957
0.173513
-0.248157
0.147174
-0.212593
0.123778
-0.179637
0.103688
-0.149822
0.0868418
-0.123303
0.0730029
-0.0999993
0.0618793
-0.0796421
0.0531832
-0.0618574
0.0466591
-0.0462125
0.0420975
-0.0322596
0.0393415
-0.0195955
-0.00703551
-0.0242078
-0.0540227
0.0315408
0.449216
0.127213
0.234982
0.208033
-0.133217
0.246245
-0.301359
0.248689
-0.329739
0.230855
-0.300109
0.204497
-0.258599
0.176393
-0.220052
0.149856
-0.186056
0.126218
-0.155999
0.105863
-0.129467
0.0887568
-0.106197
0.0746778
-0.0859203
0.0633442
-0.0683085
0.0544726
-0.0529859
0.0478093
-0.0395491
0.0431438
-0.0275941
0.0403163
-0.016768
-0.00602284
-0.0222252
-0.0317975
-0.00140426
0.428395
0.0520641
0.181513
0.0892595
-0.170412
0.1032
-0.3153
0.101953
-0.328492
0.0936931
-0.29185
0.0827219
-0.247628
0.0713147
-0.208645
0.0606147
-0.175356
0.051094
-0.146478
0.0428883
-0.121261
0.0359816
-0.0992904
0.0302901
-0.0802289
0.0257041
-0.0637224
0.0221115
-0.0493933
0.0194111
-0.0368487
0.0175192
-0.0257022
0.0163693
-0.0156181
-0.00561114
-0.0268831
-0.00491438
-0.00522604
0.406738
0.0574421
0.118845
0.0951272
-0.208097
0.106779
-0.326951
0.103789
-0.325503
0.094624
-0.282685
0.0833035
-0.236308
0.0717631
-0.197105
0.0609946
-0.164588
0.0514245
-0.136908
0.0431769
-0.113014
0.0362329
-0.0923465
0.0305087
-0.0745046
0.0258946
-0.0591083
0.0222789
-0.0457777
0.0195602
-0.03413
0.0176549
-0.0237969
0.0164954
-0.0144586
-0.00519597
-0.0310781
0.0261637
-0.00466442
0.380324
0.0661223
0.0480585
0.10167
-0.243645
0.110649
-0.33593
0.105785
-0.320638
0.0956245
-0.272524
0.0838998
-0.224583
0.0722043
-0.185409
0.0613602
-0.153744
0.0517384
-0.127286
0.0434482
-0.104723
0.0364672
-0.0853655
0.030711
-0.0687484
0.02607
-0.0544673
0.0224323
-0.04214
0.0196963
-0.031394
0.0177782
-0.0218788
0.01661
-0.0132904
-0.00477722
-0.0358273
0.061991
-0.0011122
0.345609
0.0758325
-0.0288863
0.10787
-0.275683
0.114382
-0.342442
0.107806
-0.314062
0.096661
-0.26138
0.0845048
-0.212427
0.0726372
-0.173542
0.0617108
-0.142817
0.0520353
-0.117611
0.0437025
-0.0963906
0.0366856
-0.0783486
0.0308988
-0.0629616
0.0262321
-0.0498006
0.0225737
-0.0384815
0.0198216
-0.0286419
0.0178916
-0.0199488
0.0167152
-0.012114
-0.00435513
-0.0379615
0.0999525
0.00551212
0.302136
0.0842913
-0.107665
0.112945
-0.304336
0.117586
-0.347084
0.109685
-0.306161
0.0976837
-0.249378
0.085107
-0.19985
0.0730595
-0.161494
0.0620458
-0.131804
0.052315
-0.10788
0.0439398
-0.0880154
0.0368879
-0.0712968
0.0310718
-0.0571455
0.0263811
-0.0451099
0.0227032
-0.0348037
0.0199361
-0.0258747
0.017995
-0.0180077
0.0168111
-0.0109301
-0.00392998
-0.0340461
0.133999
0.0181144
0.249975
0.0910619
-0.180613
0.116863
-0.330137
0.120163
-0.350384
0.111337
-0.297335
0.0986551
-0.236696
0.0856958
-0.186891
0.0734688
-0.149267
0.0623646
-0.120699
0.0525773
-0.0980924
0.04416
-0.0795981
0.0370742
-0.064211
0.0312302
-0.0513016
0.0265167
-0.0403964
0.0228208
-0.0311077
0.0200397
-0.0230936
0.0180884
-0.0160565
0.0168976
-0.00973928
-0.00350203
-0.0243645
0.158363
0.0369665
0.188644
0.0973484
-0.240995
0.120152
-0.35294
0.122246
-0.352478
0.112753
-0.287843
0.0995553
-0.223498
0.0862634
-0.173599
0.073863
-0.136867
0.0626668
-0.109503
0.052822
-0.0882477
0.044363
-0.0711391
0.0372443
-0.0570923
0.0313739
-0.0454312
0.0266391
-0.0356616
0.0229263
-0.027395
0.0201323
-0.0202996
0.0181717
-0.0140958
0.0169746
-0.00854214
-0.00307155
-0.0118009
0.170164
0.0576512
0.119192
0.104345
-0.287689
0.123475
-0.372071
0.124076
-0.353079
0.113981
-0.277748
0.100381
-0.209898
0.0868054
-0.160023
0.0742406
-0.124302
0.062952
-0.0982147
0.0530492
-0.0783449
0.0445487
-0.0626386
0.0373982
-0.0499418
0.0315027
-0.0395357
0.026748
-0.0309069
0.0230198
-0.0236667
0.0202141
-0.0174939
0.018245
-0.0121268
0.0170421
-0.0073393
-0.00263881
0.00564854
0.164515
0.0760207
0.0488198
0.112644
-0.324312
0.127335
-0.386762
0.125873
-0.351616
0.11508
-0.266955
0.101138
-0.195957
0.0873199
-0.146204
0.0746009
-0.111583
0.0632203
-0.0868341
0.0532589
-0.0683836
0.0447174
-0.054097
0.0375361
-0.0427605
0.0316168
-0.0336164
0.0268436
-0.0261338
0.0231012
-0.0199242
0.0202848
-0.0146776
0.0183081
-0.0101501
0.0171002
-0.00613138
-0.00220409
0.032114
0.132401
0.0932468
-0.0123129
0.122392
-0.353458
0.132168
-0.396538
0.127876
-0.347325
0.116168
-0.255246
0.101881
-0.18167
0.0878343
-0.132157
0.0749604
-0.098709
0.0634804
-0.075354
0.0534536
-0.0583568
0.0448668
-0.0455102
0.0376537
-0.0355473
0.0317113
-0.027674
0.0269211
-0.0213436
0.0231659
-0.016169
0.0203404
-0.0118521
0.0183571
-0.00816672
0.0171453
-0.00491966
-0.0017672
0.292096
0.0425101
-0.202205
0.446789
-0.167006
0.494038
-0.400707
0.48225
-0.384749
0.443678
-0.308753
0.396446
-0.208014
0.346173
-0.131397
0.297728
-0.0837127
0.253573
-0.0545546
0.2144
-0.0361805
0.180325
-0.0242815
0.151236
-0.016422
0.126855
-0.0111658
0.106794
-0.00761289
0.0906349
-0.00518464
0.0779736
-0.00350769
0.0684503
-0.00232879
0.0617647
-0.0014812
0.057682
-0.000836925
-0.000290416
0.768089
0.0772579
-0.802836
0.757334
-0.156251
0.669332
-0.312705
0.56404
-0.279457
0.473077
-0.21779
0.40614
-0.141076
0.351088
-0.0763447
0.301315
-0.0339395
0.256165
-0.00940508
0.216168
0.00381676
0.181509
0.0103777
0.152031
0.0130558
0.127392
0.0134734
0.10716
0.0126192
0.0908865
0.0110883
0.0781493
0.00922952
0.0685762
0.00724434
0.0618593
0.00523566
0.0577583
0.00326411
0.00119232
0.888061
0.133633
-0.944436
0.782393
-0.0505833
0.656826
-0.187137
0.567926
-0.190557
0.490458
-0.140323
0.421185
-0.0718033
0.359795
-0.0149546
0.30577
0.020086
0.258397
0.0379673
0.217245
0.0449689
0.181953
0.0456702
0.152121
0.042888
0.127283
0.0383108
0.106945
0.0329576
0.0906195
0.0274136
0.0778609
0.0219881
0.068283
0.0168223
0.0615695
0.0119491
0.0574751
0.00735855
0.00267046
0.957153
0.186112
-1.00963
0.874343
0.032227
0.757948
-0.070742
0.638533
-0.0711425
0.528406
-0.0301955
0.438544
0.0180588
0.367291
0.0562984
0.30894
0.0784364
0.259582
0.0873255
0.217418
0.087133
0.181585
0.0815032
0.151475
0.0729982
0.126513
0.0632724
0.10614
0.053331
0.0898274
0.0437258
0.077104
0.0347114
0.0675675
0.0263587
0.0608928
0.0186239
0.0568301
0.0114212
0.0041335
0.964645
0.234641
-1.01317
0.864557
0.132315
0.734722
0.0590933
0.617409
0.0461703
0.519614
0.0675993
0.438146
0.0995275
0.369176
0.125268
0.310118
0.137495
0.259623
0.137821
0.216653
0.130102
0.180377
0.11778
0.150073
0.103303
0.125068
0.0882765
0.104737
0.0736626
0.0885067
0.0599561
0.0758774
0.0473408
0.0664299
0.0358062
0.0598299
0.0252239
0.0558245
0.0154266
0.00557094
0.949024
0.292432
-1.00681
0.868805
0.212534
0.758431
0.169468
0.641347
0.163255
0.53498
0.173966
0.44565
0.188858
0.371973
0.198944
0.310449
0.199019
0.258606
0.189664
0.214908
0.1738
0.178291
0.154397
0.147891
0.133702
0.122937
0.113231
0.102731
0.0938687
0.0866554
0.0760312
0.0741815
0.0598147
0.0648721
0.0451156
0.0583836
0.0317124
0.0544607
0.0193495
0.0069724
0.962103
0.326223
-0.995894
0.88474
0.289897
0.768906
0.285302
0.647008
0.285152
0.538664
0.28231
0.44766
0.279862
0.372182
0.274422
0.309195
0.262007
0.256361
0.242498
0.212115
0.218046
0.17529
0.191222
0.144909
0.164083
0.120106
0.138034
0.100116
0.113859
0.0842732
0.0918735
0.0720188
0.0720691
0.0628979
0.0542365
0.0565581
0.0380522
0.052743
0.0231646
0.00832775
0.912306
0.398887
-0.984969
0.79618
0.406023
0.687655
0.393828
0.601462
0.371345
0.52049
0.363282
0.44168
0.358671
0.369277
0.346825
0.306209
0.325075
0.252814
0.295893
0.208225
0.262635
0.171341
0.228106
0.141105
0.194319
0.116566
0.162573
0.0968892
0.133536
0.0813617
0.107401
0.0693935
0.0840373
0.0605128
0.0631171
0.0543595
0.0442055
0.050677
0.0268471
0.00962727
0.94382
0.429829
-0.974763
0.91064
0.439203
0.818833
0.485634
0.68367
0.506508
0.554229
0.492724
0.450077
0.462823
0.36835
0.428552
0.302378
0.391047
0.24805
0.350221
0.20321
0.307476
0.166413
0.264902
0.136463
0.224269
0.11231
0.186726
0.0930506
0.152796
0.0779246
0.122527
0.0663121
0.0956498
0.0577248
0.0717045
0.0517957
0.0501346
0.04827
0.0303728
0.0108617
0.908594
0.48288
-0.961645
0.81104
0.536757
0.699851
0.596823
0.601685
0.604674
0.514788
0.579621
0.434166
0.543445
0.360422
0.502297
0.296016
0.455452
0.241773
0.404464
0.196996
0.352253
0.160477
0.301422
0.130966
0.253779
0.107332
0.21036
0.0886017
0.171526
0.0739684
0.13716
0.0627835
0.106835
0.0545435
0.0799444
0.0488767
0.0558014
0.0455313
0.0337182
0.0120227
0.886823
0.552917
-0.95686
0.81068
0.6129
0.734468
0.673036
0.64022
0.698921
0.535262
0.684578
0.437957
0.64075
0.356158
0.584096
0.289096
0.522514
0.234244
0.459315
0.189586
0.396911
0.15351
0.337497
0.124603
0.282686
0.10163
0.233333
0.0835474
0.189609
0.0695022
0.151206
0.0588191
0.117518
0.0509815
0.0877819
0.0456147
0.0611683
0.0424716
0.0368613
0.0131023
0.90511
0.592121
-0.944315
0.815936
0.702075
0.696631
0.792341
0.587455
0.808098
0.497595
0.774438
0.41729
0.721055
0.343774
0.657612
0.279192
0.587096
0.225028
0.51348
0.180888
0.441051
0.145484
0.372901
0.117364
0.310806
0.0952054
0.255492
0.0778957
0.206919
0.0645383
0.164563
0.0544332
0.127623
0.0470535
0.0951616
0.0420238
0.0661981
0.0391036
0.0397814
0.0140941
0.895191
0.64173
-0.9448
0.83322
0.764045
0.747172
0.878389
0.642781
0.912489
0.529997
0.887222
0.425529
0.825523
0.338825
0.744316
0.269666
0.656255
0.214668
0.568478
0.170954
0.484765
0.136392
0.407463
0.109246
0.337952
0.0880635
0.276674
0.0716588
0.223324
0.0590924
0.177129
0.0496433
0.137072
0.0427771
0.102028
0.0381206
0.0708546
0.0354421
0.0424599
0.0149926
0.891413
0.690226
-0.939909
0.814629
0.840829
0.701677
0.99134
0.58009
1.03408
0.47596
0.991351
0.391025
0.910458
0.318048
0.817294
0.254814
0.719489
0.202023
0.621268
0.15957
0.527218
0.12619
0.440843
0.100243
0.363899
0.0802135
0.296704
0.0648526
0.238684
0.0531838
0.188798
0.0444699
0.145786
0.0381727
0.108325
0.0339244
0.075103
0.0315036
0.0448807
0.015794
0.875045
0.750301
-0.93512
0.79528
0.920594
0.706767
1.07985
0.610105
1.13074
0.507326
1.09413
0.40554
1.01224
0.316024
0.906809
0.244355
0.791158
0.189232
0.676391
0.147122
0.569328
0.114939
0.473027
0.090372
0.388466
0.0716722
0.315403
0.0574982
0.252858
0.0468363
0.19946
0.0389372
0.153685
0.0332637
0.113998
0.0294566
0.07891
0.0273065
0.0470308
0.0164964
0.886284
0.799956
-0.935938
0.792455
1.01442
0.67711
1.1952
0.558451
1.2494
0.448698
1.20388
0.356193
1.10475
0.281482
0.981521
0.220708
0.851931
0.171436
0.725664
0.132449
0.608315
0.102391
0.503084
0.0795961
0.411261
0.0624517
0.332548
0.0496201
0.26569
0.0400772
0.209003
0.0330729
0.160689
0.0280768
0.118995
0.0247418
0.082245
0.0228713
0.0489012
0.0171002
0.875367
0.861579
-0.936991
0.786196
1.10359
0.684768
1.29663
0.579872
1.35429
0.47462
1.30914
0.374823
1.20455
0.286472
1.06987