/*--------------------------------*- C++ -*----------------------------------*\
| =========                 |                                                 |
| \\      /  F ield         | OpenFOAM: The Open Source CFD Toolbox           |
|  \\    /   O peration     | Version:  v1806                                 |
|   \\  /    A nd           | Web:      www.OpenFOAM.com                      |
|    \\/     M anipulation  |                                                 |
\*---------------------------------------------------------------------------*/
FoamFile
{
    version     2.0;
    format      ascii;
    class       volVectorField;
    location    "12";
    object      U;
}
// * * * * * * * * * * * * * * * * * * * * * * * * * * * * * * * * * * * * * //

dimensions      [0 1 -1 0 0 0 0];


internalField   nonuniform List<vector> 
4400
(
(2.16692 2.67352 0)
(2.74795 2.15213 0)
(2.96115 1.62371 0)
(3.04895 1.33089 0)
(3.12759 1.0122 0)
(3.17509 0.830404 0)
(3.20222 0.675773 0)
(3.20478 0.579315 0)
(3.19639 0.503091 0)
(3.18226 0.448454 0)
(3.16531 0.406091 0)
(3.14732 0.372906 0)
(3.12939 0.34647 0)
(3.11183 0.325238 0)
(3.09487 0.308399 0)
(3.07828 0.295209 0)
(3.0618 0.28496 0)
(3.04545 0.277535 0)
(3.02949 0.272129 0)
(3.01184 0.269155 0)
(2.94164 0.709307 0)
(3.25174 0.553168 0)
(3.19127 0.485343 0)
(3.17865 0.458127 0)
(3.1767 0.487345 0)
(3.17908 0.451409 0)
(3.17792 0.446838 0)
(3.17717 0.4126 0)
(3.17188 0.386377 0)
(3.16211 0.360944 0)
(3.1492 0.340117 0)
(3.13449 0.323029 0)
(3.11864 0.309163 0)
(3.10249 0.297952 0)
(3.08644 0.288678 0)
(3.0709 0.280976 0)
(3.05607 0.274797 0)
(3.04175 0.269762 0)
(3.0279 0.266217 0)
(3.01187 0.26344 0)
(1.99259 1.25915 0)
(2.39678 1.40123 0)
(2.67171 1.32051 0)
(2.81692 1.17863 0)
(2.92311 0.945154 0)
(3.01033 0.787477 0)
(3.07383 0.650719 0)
(3.10836 0.559078 0)
(3.12213 0.487491 0)
(3.12372 0.434711 0)
(3.11859 0.393399 0)
(3.10995 0.360515 0)
(3.09951 0.334009 0)
(3.08784 0.312575 0)
(3.07546 0.295514 0)
(3.06266 0.282178 0)
(3.0495 0.271845 0)
(3.03621 0.264301 0)
(3.02296 0.258872 0)
(3.00862 0.255789 0)
(2.97696 0.383815 0)
(3.20901 0.269224 0)
(3.11979 0.180473 0)
(3.07203 0.203783 0)
(3.07043 0.284866 0)
(3.07986 0.314215 0)
(3.08833 0.352752 0)
(3.09903 0.354362 0)
(3.10585 0.34811 0)
(3.10717 0.333557 0)
(3.10365 0.318255 0)
(3.09658 0.304256 0)
(3.0871 0.292178 0)
(3.07646 0.281968 0)
(3.06542 0.273275 0)
(3.05426 0.26587 0)
(3.04324 0.259863 0)
(3.03227 0.255005 0)
(3.02145 0.251663 0)
(3.00914 0.24931 0)
(2.24321 0.695271 0)
(2.36924 0.880298 0)
(2.57581 0.962485 0)
(2.72765 0.953308 0)
(2.83275 0.818914 0)
(2.9189 0.700294 0)
(2.98776 0.588006 0)
(3.0338 0.508139 0)
(3.06072 0.446146 0)
(3.07324 0.400155 0)
(3.07696 0.364001 0)
(3.07575 0.334803 0)
(3.07155 0.31099 0)
(3.06502 0.291643 0)
(3.05678 0.276157 0)
(3.04755 0.264006 0)
(3.03764 0.254558 0)
(3.02746 0.247623 0)
(3.01704 0.242664 0)
(3.00599 0.239759 0)
(3.0426 0.203665 0)
(3.21673 0.135121 0)
(3.12398 0.0512877 0)
(3.05061 0.0540811 0)
(3.03367 0.139908 0)
(3.03564 0.192114 0)
(3.04019 0.251751 0)
(3.0497 0.278011 0)
(3.05862 0.290626 0)
(3.06446 0.289819 0)
(3.06621 0.283035 0)
(3.06428 0.27437 0)
(3.05965 0.265715 0)
(3.05354 0.25768 0)
(3.04674 0.250401 0)
(3.03936 0.243975 0)
(3.0317 0.23866 0)
(3.02373 0.234489 0)
(3.01567 0.231609 0)
(3.00665 0.230039 0)
(2.4555 0.439982 0)
(2.44874 0.585585 0)
(2.58805 0.696821 0)
(2.71525 0.744069 0)
(2.80883 0.676934 0)
(2.88318 0.597761 0)
(2.94421 0.510824 0)
(2.98915 0.444343 0)
(3.01895 0.391898 0)
(3.03633 0.353197 0)
(3.04502 0.323339 0)
(3.04837 0.299133 0)
(3.0482 0.279132 0)
(3.04525 0.262739 0)
(3.04021 0.249535 0)
(3.03403 0.239102 0)
(3.02712 0.230962 0)
(3.01986 0.224822 0)
(3.01227 0.220502 0)
(3.00418 0.217774 0)
(3.08454 0.106537 0)
(3.23086 0.059668 0)
(3.14479 -0.00760626 0)
(3.0661 -0.0230218 0)
(3.03199 0.0477235 0)
(3.02292 0.102462 0)
(3.02004 0.166166 0)
(3.02406 0.204414 0)
(3.02993 0.229057 0)
(3.03537 0.239032 0)
(3.03871 0.240435 0)
(3.03939 0.237434 0)
(3.03784 0.232627 0)
(3.03498 0.227252 0)
(3.03139 0.221922 0)
(3.02697 0.216982 0)
(3.02193 0.212767 0)
(3.01639 0.209497 0)
(3.01063 0.20722 0)
(3.00437 0.206202 0)
(2.60454 0.304436 0)
(2.542 0.414417 0)
(2.63553 0.514402 0)
(2.73765 0.578547 0)
(2.81669 0.550351 0)
(2.87762 0.498578 0)
(2.92813 0.432353 0)
(2.96719 0.378272 0)
(2.99506 0.334291 0)
(3.01273 0.301757 0)
(3.02306 0.277411 0)
(3.02846 0.258148 0)
(3.03038 0.2423 0)
(3.02959 0.229283 0)
(3.02678 0.218723 0)
(3.02293 0.210295 0)
(3.01846 0.20368 0)
(3.01364 0.19864 0)
(3.00849 0.195132 0)
(3.00291 0.192857 0)
(3.11019 0.052827 0)
(3.23771 0.0140763 0)
(3.16289 -0.0382568 0)
(3.08581 -0.0623441 0)
(3.043 -0.0103879 0)
(3.02472 0.0397605 0)
(3.01519 0.0994141 0)
(3.01332 0.141231 0)
(3.01475 0.171619 0)
(3.01769 0.188217 0)
(3.02041 0.195446 0)
(3.02195 0.197015 0)
(3.02217 0.195518 0)
(3.02138 0.192524 0)
(3.01987 0.189025 0)
(3.01745 0.185575 0)
(3.01429 0.182517 0)
(3.0106 0.18016 0)
(3.00667 0.178475 0)
(3.00255 0.177896 0)
(2.7079 0.221643 0)
(2.62531 0.306999 0)
(2.68971 0.389064 0)
(2.77301 0.452832 0)
(2.83787 0.444792 0)
(2.88663 0.410355 0)
(2.92712 0.358909 0)
(2.95946 0.314791 0)
(2.98358 0.277765 0)
(2.99958 0.250036 0)
(3.00944 0.229827 0)
(3.01506 0.214519 0)
(3.01758 0.202334 0)
(3.0178 0.192471 0)
(3.0164 0.184486 0)
(3.01422 0.178065 0)
(3.01163 0.173026 0)
(3.00874 0.169107 0)
(3.00557 0.166446 0)
(3.00204 0.164625 0)
(3.12538 0.020872 0)
(3.23659 -0.0149528 0)
(3.17425 -0.0565829 0)
(3.10197 -0.083707 0)
(3.05541 -0.0478777 0)
(3.0316 -0.00470426 0)
(3.01709 0.0478896 0)
(3.01032 0.088639 0)
(3.00773 0.120418 0)
(3.00797 0.140162 0)
(3.00941 0.150804 0)
(3.01093 0.155453 0)
(3.01196 0.15655 0)
(3.01229 0.155688 0)
(3.01192 0.153934 0)
(3.01067 0.15193 0)
(3.00872 0.150014 0)
(3.00635 0.148578 0)
(3.00376 0.147501 0)
(3.0012 0.147322 0)
(2.78121 0.165525 0)
(2.69395 0.234007 0)
(2.74043 0.299246 0)
(2.81 0.356847 0)
(2.86298 0.358163 0)
(2.90152 0.333631 0)
(2.93342 0.292504 0)
(2.95965 0.255759 0)
(2.97986 0.224125 0)
(2.99363 0.200124 0)
(3.00215 0.183042 0)
(3.00688 0.170762 0)
(3.00897 0.161452 0)
(3.00939 0.154067 0)
(3.00879 0.14803 0)
(3.00776 0.143087 0)
(3.00656 0.139183 0)
(3.00511 0.136145 0)
(3.00348 0.134118 0)
(3.00149 0.13278 0)
(3.13289 0.000103065 0)
(3.22995 -0.0346742 0)
(3.17907 -0.0696266 0)
(3.1122 -0.0969851 0)
(3.06544 -0.0730784 0)
(3.0388 -0.0374803 0)
(3.02128 0.00748294 0)
(3.01116 0.0447878 0)
(3.00564 0.0753094 0)
(3.00362 0.0958026 0)
(3.00359 0.108015 0)
(3.00447 0.114364 0)
(3.00548 0.11705 0)
(3.00613 0.117636 0)
(3.00623 0.117188 0)
(3.00568 0.116309 0)
(3.00457 0.115293 0)
(3.0032 0.114473 0)
(3.0017 0.113825 0)
(3.00031 0.1137 0)
(2.83263 0.124235 0)
(2.74798 0.180487 0)
(2.78336 0.23216 0)
(2.84262 0.281614 0)
(2.88688 0.28613 0)
(2.91775 0.267097 0)
(2.94305 0.232905 0)
(2.96417 0.201331 0)
(2.98059 0.173743 0)
(2.99162 0.152699 0)
(2.99812 0.138024 0)
(3.00139 0.12796 0)
(3.00272 0.120715 0)
(3.00317 0.115171 0)
(3.0032 0.110707 0)
(3.00303 0.107051 0)
(3.00279 0.104202 0)
(3.00235 0.102009 0)
(3.00177 0.100584 0)
(3.00095 0.0996461 0)
(3.13299 -0.0146536 0)
(3.21748 -0.0491929 0)
(3.17666 -0.0802806 0)
(3.11633 -0.107358 0)
(3.07147 -0.0927525 0)
(3.04391 -0.0640001 0)
(3.02484 -0.0259555 0)
(3.01234 0.00719133 0)
(3.00449 0.0352573 0)
(3.0006 0.0550887 0)
(2.99951 0.0675456 0)
(3.00007 0.0745187 0)
(3.00118 0.0780462 0)
(3.00204 0.0796371 0)
(3.00243 0.0802227 0)
(3.00233 0.0803106 0)
(3.00183 0.0801113 0)
(3.00117 0.0798984 0)
(3.00042 0.0796571 0)
(2.99981 0.0796935 0)
(2.86889 0.0918927 0)
(2.79054 0.13844 0)
(2.81964 0.178566 0)
(2.87095 0.219564 0)
(2.90707 0.22436 0)
(2.9306 0.208345 0)
(2.95008 0.179038 0)
(2.96675 0.151445 0)
(2.97988 0.126972 0)
(2.98886 0.108136 0)
(2.99426 0.0950027 0)
(2.99706 0.0862523 0)
(2.99834 0.0802346 0)
(2.99908 0.0757796 0)
(2.99964 0.0722729 0)
(3.00007 0.0694755 0)
(3.00042 0.0673459 0)
(3.00058 0.0657866 0)
(3.00067 0.0648065 0)
(3.00058 0.0642902 0)
(3.13412 -0.027511 0)
(3.20877 -0.0619991 0)
(3.17532 -0.0905253 0)
(3.11814 -0.116044 0)
(3.07202 -0.107559 0)
(3.04235 -0.0853009 0)
(3.02178 -0.0541461 0)
(3.00837 -0.0258026 0)
(3.00035 -0.00129747 0)
(2.99693 0.0164286 0)
(2.99655 0.0278338 0)
(2.99767 0.0345837 0)
(2.999 0.0384799 0)
(2.99987 0.0407579 0)
(3.00027 0.042131 0)
(3.00039 0.0429496 0)
(3.00028 0.0433708 0)
(3.00011 0.0435672 0)
(2.9999 0.0436263 0)
(2.99972 0.0436335 0)
(2.89861 0.0625417 0)
(2.82806 0.103329 0)
(2.85159 0.137135 0)
(2.89348 0.172428 0)
(2.92159 0.175464 0)
(2.9393 0.158713 0)
(2.95476 0.130498 0)
(2.96901 0.104146 0)
(2.98078 0.0809863 0)
(2.98905 0.0634013 0)
(2.9939 0.0514889 0)
(2.99621 0.0440035 0)
(2.99723 0.0392253 0)
(2.99791 0.0358792 0)
(2.99854 0.033352 0)
(2.99904 0.0314111 0)
(2.99948 0.0299993 0)
(2.99979 0.0290087 0)
(3.00006 0.0283848 0)
(3.00026 0.0280658 0)
(3.11117 -0.0412998 0)
(3.17496 -0.0724699 0)
(3.14914 -0.095872 0)
(3.10238 -0.119715 0)
(3.06798 -0.118981 0)
(3.04606 -0.104652 0)
(3.0294 -0.0810407 0)
(3.01701 -0.058426 0)
(3.00852 -0.038005 0)
(3.00378 -0.0223929 0)
(3.00174 -0.0116403 0)
(3.00118 -0.00471887 0)
(3.00109 -0.000252553 0)
(3.00091 0.00275086 0)
(3.00065 0.00483282 0)
(3.00047 0.00628187 0)
(3.00029 0.00723587 0)
(3.00017 0.00781932 0)
(3.00003 0.00815764 0)
(2.99989 0.00825508 0)
(1.10737 -2.0439 0)
(1.18644 -1.81083 0)
(0.914902 -1.48647 0)
(0.915812 -1.24051 0)
(0.785205 -0.986834 0)
(0.750034 -0.767272 0)
(0.692839 -0.556409 0)
(0.659203 -0.35988 0)
(0.633425 -0.171548 0)
(0.617638 0.0105554 0)
(0.610847 0.189907 0)
(0.6127 0.369798 0)
(0.624583 0.551452 0)
(0.640466 0.742835 0)
(0.683776 0.932814 0)
(0.697738 1.15633 0)
(0.804484 1.35291 0)
(0.786262 1.63335 0)
(1.00549 1.829 0)
(0.922043 2.16577 0)
(2.20338 -0.658942 0)
(1.88698 -0.600753 0)
(1.71016 -0.566844 0)
(1.53982 -0.485597 0)
(1.43399 -0.413773 0)
(1.34485 -0.323913 0)
(1.28341 -0.231361 0)
(1.2389 -0.132264 0)
(1.20984 -0.0289467 0)
(1.19459 0.0777522 0)
(1.19172 0.186286 0)
(1.20061 0.295388 0)
(1.22134 0.404152 0)
(1.25587 0.510476 0)
(1.30177 0.614139 0)
(1.36953 0.714605 0)
(1.44652 0.802732 0)
(1.55773 0.908344 0)
(1.69753 0.940826 0)
(1.82798 1.1036 0)
(1.92394 -0.843552 0)
(1.91107 -0.763757 0)
(1.87712 -0.670323 0)
(1.85394 -0.578047 0)
(1.82374 -0.477893 0)
(1.80075 -0.379301 0)
(1.78026 -0.27902 0)
(1.76492 -0.179256 0)
(1.75475 -0.0798236 0)
(1.75006 0.0190622 0)
(1.75107 0.117425 0)
(1.75788 0.215316 0)
(1.77046 0.312697 0)
(1.78843 0.409644 0)
(1.81234 0.506377 0)
(1.8401 0.600649 0)
(1.87325 0.699267 0)
(1.91284 0.78271 0)
(1.94224 0.888543 0)
(2.00939 0.947968 0)
(2.57877 -0.18922 0)
(2.455 -0.176385 0)
(2.35576 -0.159563 0)
(2.27183 -0.135541 0)
(2.2058 -0.10832 0)
(2.15256 -0.0760543 0)
(2.11156 -0.0405516 0)
(2.08097 -0.00204 0)
(2.0597 0.0386611 0)
(2.04694 0.0808349 0)
(2.04207 0.12371 0)
(2.04473 0.16648 0)
(2.0548 0.208364 0)
(2.07245 0.248558 0)
(2.0978 0.286155 0)
(2.13196 0.321154 0)
(2.17524 0.350497 0)
(2.22848 0.37911 0)
(2.29756 0.395493 0)
(2.37417 0.423876 0)
(2.29579 -0.432354 0)
(2.30689 -0.388423 0)
(2.31008 -0.341052 0)
(2.31017 -0.291685 0)
(2.30753 -0.240231 0)
(2.30442 -0.187942 0)
(2.30134 -0.134871 0)
(2.29902 -0.0814612 0)
(2.29785 -0.0278904 0)
(2.29812 0.0257256 0)
(2.29999 0.079304 0)
(2.30352 0.132779 0)
(2.30869 0.186122 0)
(2.31539 0.239303 0)
(2.3235 0.292328 0)
(2.33263 0.344811 0)
(2.34265 0.397481 0)
(2.35374 0.44814 0)
(2.3627 0.50092 0)
(2.38736 0.547307 0)
(2.78765 -0.0302868 0)
(2.71649 -0.0247764 0)
(2.6561 -0.0175933 0)
(2.60538 -0.00850261 0)
(2.56382 0.00219222 0)
(2.5302 0.014585 0)
(2.5037 0.0283709 0)
(2.48353 0.0433519 0)
(2.46905 0.0592497 0)
(2.45979 0.0757566 0)
(2.45537 0.0925486 0)
(2.4556 0.109294 0)
(2.46037 0.125658 0)
(2.46976 0.141311 0)
(2.48397 0.155928 0)
(2.50346 0.169318 0)
(2.52884 0.180983 0)
(2.5612 0.191383 0)
(2.60365 0.199312 0)
(2.6594 0.20612 0)
(2.51307 -0.257344 0)
(2.5329 -0.229786 0)
(2.54674 -0.200558 0)
(2.55651 -0.170099 0)
(2.56338 -0.13869 0)
(2.56837 -0.106668 0)
(2.57214 -0.074201 0)
(2.57517 -0.0414555 0)
(2.57777 -0.00853782 0)
(2.58019 0.0244814 0)
(2.58256 0.0575491 0)
(2.58495 0.090627 0)
(2.58739 0.123689 0)
(2.58984 0.156706 0)
(2.59224 0.18964 0)
(2.59446 0.222394 0)
(2.59645 0.254969 0)
(2.59815 0.287072 0)
(2.59934 0.319054 0)
(2.60031 0.350176 0)
(2.91236 0.027844 0)
(2.86443 0.0299028 0)
(2.82288 0.0324531 0)
(2.78768 0.0356195 0)
(2.75847 0.0394113 0)
(2.73469 0.0438295 0)
(2.71576 0.0488058 0)
(2.70118 0.0542578 0)
(2.69052 0.0600791 0)
(2.68344 0.0661467 0)
(2.67968 0.0723283 0)
(2.6791 0.0784873 0)
(2.68162 0.0844857 0)
(2.6873 0.0901902 0)
(2.69629 0.0954753 0)
(2.70894 0.100242 0)
(2.7258 0.10439 0)
(2.74797 0.107956 0)
(2.77782 0.110672 0)
(2.82148 0.111629 0)
(2.65281 -0.172121 0)
(2.67438 -0.153265 0)
(2.69121 -0.133399 0)
(2.70429 -0.112752 0)
(2.7145 -0.09151 0)
(2.72253 -0.0698354 0)
(2.72889 -0.0478474 0)
(2.73398 -0.0256417 0)
(2.73805 -0.00328925 0)
(2.74132 0.0191566 0)
(2.74391 0.0416523 0)
(2.74589 0.064163 0)
(2.74731 0.0866582 0)
(2.74816 0.109104 0)
(2.7484 0.131461 0)
(2.74798 0.153672 0)
(2.74684 0.17567 0)
(2.74478 0.19735 0)
(2.741 0.218765 0)
(2.73129 0.240018 0)
(2.99045 0.0479552 0)
(2.95508 0.0481713 0)
(2.92397 0.0484344 0)
(2.89737 0.0488495 0)
(2.87511 0.0494647 0)
(2.85687 0.0502971 0)
(2.84225 0.051336 0)
(2.83089 0.052555 0)
(2.82246 0.053915 0)
(2.8167 0.0553682 0)
(2.81341 0.0568617 0)
(2.81247 0.0583397 0)
(2.81383 0.0597465 0)
(2.81752 0.0610289 0)
(2.82367 0.0621378 0)
(2.83257 0.0630315 0)
(2.84472 0.0636844 0)
(2.8612 0.0641154 0)
(2.88432 0.0641982 0)
(2.91949 0.0630396 0)
(2.74807 -0.125173 0)
(2.76888 -0.111569 0)
(2.78597 -0.097266 0)
(2.79984 -0.0824057 0)
(2.81103 -0.0671096 0)
(2.82006 -0.0514816 0)
(2.82731 -0.0356056 0)
(2.83311 -0.0195501 0)
(2.83769 -0.0033699 0)
(2.84122 0.0128905 0)
(2.84381 0.0291925 0)
(2.84556 0.0455023 0)
(2.84649 0.061788 0)
(2.84661 0.0780164 0)
(2.8459 0.0941505 0)
(2.8443 0.110145 0)
(2.84166 0.125939 0)
(2.83754 0.141452 0)
(2.83055 0.156718 0)
(2.81645 0.172005 0)
(3.04007 0.0532505 0)
(3.0125 0.0523925 0)
(2.98798 0.0514147 0)
(2.96682 0.0504036 0)
(2.94901 0.049411 0)
(2.93432 0.0484642 0)
(2.92247 0.0475732 0)
(2.91319 0.0467364 0)
(2.90621 0.0459439 0)
(2.90133 0.045181 0)
(2.89839 0.0444296 0)
(2.89728 0.04367 0)
(2.89796 0.0428828 0)
(2.90047 0.0420499 0)
(2.9049 0.0411545 0)
(2.91151 0.0401798 0)
(2.92082 0.0391187 0)
(2.93386 0.038004 0)
(2.9528 0.0368142 0)
(2.98154 0.0347676 0)
(2.81507 -0.0963182 0)
(2.83434 -0.0862053 0)
(2.85069 -0.0755672 0)
(2.86432 -0.0644978 0)
(2.87556 -0.0530833 0)
(2.88475 -0.0413986 0)
(2.89219 -0.0295074 0)
(2.89814 -0.0174635 0)
(2.90281 -0.00531239 0)
(2.90634 0.00690821 0)
(2.90886 0.019164 0)
(2.91043 0.0314225 0)
(2.91109 0.0436537 0)
(2.91085 0.0558268 0)
(2.90968 0.06791 0)
(2.90748 0.0798686 0)
(2.904 0.0916523 0)
(2.89859 0.103183 0)
(2.88974 0.114469 0)
(2.87425 0.125886 0)
(3.07089 0.0527519 0)
(3.04867 0.0511891 0)
(3.02874 0.0494499 0)
(3.01142 0.0476041 0)
(2.99674 0.0456993 0)
(2.98457 0.0437661 0)
(2.9747 0.0418222 0)
(2.96691 0.0398771 0)
(2.96099 0.0379346 0)
(2.95678 0.0359944 0)
(2.95412 0.0340544 0)
(2.95295 0.0321119 0)
(2.95323 0.0301636 0)
(2.95498 0.0282067 0)
(2.95831 0.0262383 0)
(2.96346 0.0242512 0)
(2.97095 0.0222398 0)
(2.98178 0.0202411 0)
(2.99773 0.0183184 0)
(3.02144 0.0158134 0)
(2.86247 -0.0769001 0)
(2.88004 -0.0692997 0)
(2.89533 -0.0612826 0)
(2.90832 -0.0529161 0)
(2.91919 -0.0442646 0)
(2.92817 -0.0353862 0)
(2.93548 -0.0263316 0)
(2.94134 -0.017145 0)
(2.94591 -0.00786463 0)
(2.94934 0.00147587 0)
(2.95172 0.010846 0)
(2.95313 0.0202174 0)
(2.95361 0.0295626 0)
(2.95315 0.0388544 0)
(2.95169 0.0480669 0)
(2.94911 0.0571742 0)
(2.94504 0.066133 0)
(2.93877 0.0748563 0)
(2.92891 0.08333 0)
(2.91334 0.0920957 0)
(3.0876 0.0500866 0)
(3.06933 0.0480075 0)
(3.05283 0.0457414 0)
(3.0384 0.0433443 0)
(3.02611 0.0408583 0)
(3.01586 0.0383128 0)
(3.00751 0.0357285 0)
(3.00087 0.0331193 0)
(2.99578 0.0304951 0)
(2.99209 0.0278629 0)
(2.9897 0.0252279 0)
(2.98852 0.0225947 0)
(2.98854 0.0199676 0)
(2.98977 0.0173509 0)
(2.99234 0.0147473 0)
(2.9965 0.012152 0)
(3.00273 0.00955237 0)
(3.01193 0.00698432 0)
(3.02548 0.00458337 0)
(3.04504 0.00196404 0)
(2.89448 -0.0628544 0)
(2.91044 -0.0571872 0)
(2.9246 -0.0511762 0)
(2.93684 -0.0448716 0)
(2.94722 -0.0383234 0)
(2.95586 -0.0315779 0)
(2.96295 -0.0246765 0)
(2.96864 -0.0176555 0)
(2.9731 -0.010547 0)
(2.97643 -0.00337949 0)
(2.97874 0.00382095 0)
(2.98008 0.0110303 0)
(2.98049 0.0182255 0)
(2.97996 0.0253835 0)
(2.9784 0.0324825 0)
(2.97562 0.0395018 0)
(2.97123 0.0464084 0)
(2.9645 0.0531468 0)
(2.95428 0.0597063 0)
(2.93925 0.0663932 0)
(3.09599 0.0467046 0)
(3.08081 0.0441506 0)
(3.06704 0.0414141 0)
(3.05495 0.0385402 0)
(3.04461 0.035565 0)
(3.03596 0.0325165 0)
(3.02889 0.0294163 0)
(3.02327 0.0262812 0)
(3.01895 0.0231253 0)
(3.01582 0.0199605 0)
(3.0138 0.0167977 0)
(3.01281 0.0136476 0)
(3.01286 0.0105204 0)
(3.01397 0.00742556 0)
(3.01627 0.00437199 0)
(3.02002 0.0013658 0)
(3.02569 -0.00159684 0)
(3.03399 -0.00446734 0)
(3.04596 -0.00711367 0)
(3.06261 -0.0101776 0)
(2.9195 -0.0524907 0)
(2.93405 -0.0484168 0)
(2.94715 -0.0440626 0)
(2.95863 -0.0394678 0)
(2.96845 -0.0346736 0)
(2.97668 -0.0297193 0)
(2.98346 -0.0246407 0)
(2.9889 -0.0194703 0)
(2.99316 -0.0142367 0)
(2.99633 -0.00896635 0)
(2.9985 -0.00368294 0)
(2.99974 0.00159264 0)
(3.00007 0.00684063 0)
(2.99947 0.012041 0)
(2.99784 0.017178 0)
(2.99498 0.0222421 0)
(2.99047 0.0272181 0)
(2.98368 0.0320255 0)
(2.97373 0.0365429 0)
(2.95981 0.0413131 0)
(3.08773 0.0427625 0)
(3.07484 0.0398903 0)
(3.06309 0.0368361 0)
(3.0527 0.0336333 0)
(3.04374 0.0303104 0)
(3.03619 0.0268908 0)
(3.02997 0.0233936 0)
(3.02495 0.0198346 0)
(3.02105 0.0162266 0)
(3.01815 0.0125806 0)
(3.01619 0.00890598 0)
(3.01512 0.00521006 0)
(3.01493 0.00149886 0)
(3.01566 -0.00222657 0)
(3.01745 -0.00596716 0)
(3.02053 -0.00972992 0)
(3.02532 -0.0135329 0)
(3.0324 -0.0173569 0)
(3.04243 -0.0211195 0)
(3.05583 -0.0250996 0)
(2.80242 -0.956272 0)
(2.78935 -1.0061 0)
(2.76075 -1.05128 0)
(2.71104 -1.09413 0)
(2.63621 -1.13248 0)
(2.54193 -1.16965 0)
(2.44405 -1.21181 0)
(2.36554 -1.26762 0)
(2.32922 -1.34694 0)
(2.34796 -1.45885 0)
(2.41805 -1.60695 0)
(2.51972 -1.78367 0)
(2.62372 -1.97171 0)
(2.69898 -2.14949 0)
(2.71821 -2.29968 0)
(2.66181 -2.41569 0)
(2.51889 -2.50116 0)
(2.28774 -2.55632 0)
(1.97487 -2.54704 0)
(1.58488 -2.38527 0)
(2.9235 -0.524483 0)
(2.93151 -0.518381 0)
(2.9616 -0.513224 0)
(3.00647 -0.507653 0)
(3.057 -0.499912 0)
(3.09723 -0.485863 0)
(3.11129 -0.462821 0)
(3.08827 -0.429802 0)
(3.02591 -0.388583 0)
(2.93275 -0.344242 0)
(2.82862 -0.304408 0)
(2.74318 -0.277481 0)
(2.70982 -0.270436 0)
(2.75039 -0.28868 0)
(2.85246 -0.337404 0)
(2.96819 -0.407856 0)
(3.02945 -0.490963 0)
(2.98123 -0.573354 0)
(2.8068 -0.632581 0)
(2.52566 -0.669965 0)
(2.63871 -0.866027 0)
(2.58779 -0.884779 0)
(2.53397 -0.905394 0)
(2.48117 -0.927627 0)
(2.43949 -0.954666 0)
(2.416 -0.988396 0)
(2.41272 -1.02938 0)
(2.42477 -1.07587 0)
(2.44179 -1.12362 0)
(2.45078 -1.16605 0)
(2.43961 -1.19513 0)
(2.39983 -1.20437 0)
(2.32827 -1.19351 0)
(2.23011 -1.16506 0)
(2.11883 -1.12836 0)
(2.01674 -1.08887 0)
(1.94478 -1.0495 0)
(1.91182 -1.00924 0)
(1.90977 -0.96477 0)
(1.92056 -0.90933 0)
(2.91522 -0.273079 0)
(2.94284 -0.261449 0)
(2.97097 -0.245644 0)
(2.99007 -0.226738 0)
(2.99115 -0.204555 0)
(2.96896 -0.179891 0)
(2.92371 -0.154764 0)
(2.86224 -0.132012 0)
(2.79795 -0.114665 0)
(2.7492 -0.10539 0)
(2.73514 -0.106645 0)
(2.76954 -0.118083 0)
(2.85039 -0.138065 0)
(2.95611 -0.161405 0)
(3.05154 -0.182826 0)
(3.10118 -0.198851 0)
(3.08464 -0.207463 0)
(3.00265 -0.20902 0)
(2.87338 -0.205402 0)
(2.72346 -0.198953 0)
(2.60113 -0.681612 0)
(2.56751 -0.689424 0)
(2.54072 -0.699732 0)
(2.52273 -0.711446 0)
(2.51418 -0.724701 0)
(2.51202 -0.737961 0)
(2.51057 -0.748828 0)
(2.50297 -0.754081 0)
(2.4829 -0.750814 0)
(2.44618 -0.737635 0)
(2.39196 -0.715694 0)
(2.3238 -0.687659 0)
(2.25055 -0.657028 0)
(2.18578 -0.62745 0)
(2.14382 -0.600949 0)
(2.13372 -0.577548 0)
(2.15384 -0.555568 0)
(2.19295 -0.532187 0)
(2.23641 -0.504679 0)
(2.27254 -0.471359 0)
(2.95322 -0.129233 0)
(2.97083 -0.116643 0)
(2.98136 -0.102333 0)
(2.98079 -0.0872597 0)
(2.96723 -0.072387 0)
(2.94215 -0.0589991 0)
(2.91045 -0.0484004 0)
(2.88005 -0.0417493 0)
(2.86078 -0.0395556 0)
(2.86195 -0.0411386 0)
(2.88919 -0.0448714 0)
(2.94073 -0.0493354 0)
(3.00619 -0.0531401 0)
(3.06881 -0.0550028 0)
(3.1109 -0.0543176 0)
(3.11977 -0.0513821 0)
(3.09178 -0.0471352 0)
(3.03251 -0.0426519 0)
(2.95369 -0.0385341 0)
(2.86856 -0.0346516 0)
(2.64316 -0.519763 0)
(2.62632 -0.522036 0)
(2.61411 -0.524568 0)
(2.60683 -0.526585 0)
(2.6023 -0.527151 0)
(2.59703 -0.52492 0)
(2.58703 -0.518777 0)
(2.56881 -0.508103 0)
(2.54015 -0.492919 0)
(2.50078 -0.474041 0)
(2.45317 -0.452884 0)
(2.40291 -0.431047 0)
(2.35831 -0.410087 0)
(2.32838 -0.391036 0)
(2.31977 -0.374028 0)
(2.33382 -0.358289 0)
(2.36584 -0.342468 0)
(2.40723 -0.325156 0)
(2.44915 -0.305355 0)
(2.4853 -0.282687 0)
(2.9895 -0.0500279 0)
(2.99957 -0.0402702 0)
(3.00326 -0.0307132 0)
(2.9996 -0.0216803 0)
(2.98935 -0.0139162 0)
(2.97519 -0.00802909 0)
(2.96149 -0.00420335 0)
(2.95361 -0.0021436 0)
(2.95661 -0.00138279 0)
(2.97367 -0.00131226 0)
(3.00466 -0.0012309 0)
(3.04533 -0.000474715 0)
(3.0878 0.00144455 0)
(3.12252 0.00466006 0)
(3.14102 0.00887404 0)
(3.13833 0.0134747 0)
(3.11421 0.0177905 0)
(3.07282 0.0213278 0)
(3.02091 0.0239755 0)
(2.96557 0.0260016 0)
(2.70713 -0.395281 0)
(2.69729 -0.393928 0)
(2.69036 -0.391723 0)
(2.68538 -0.388366 0)
(2.68038 -0.383345 0)
(2.67291 -0.376225 0)
(2.6606 -0.366785 0)
(2.64168 -0.355095 0)
(2.61561 -0.341491 0)
(2.58345 -0.326586 0)
(2.54819 -0.311185 0)
(2.51458 -0.296098 0)
(2.48837 -0.28194 0)
(2.47476 -0.268952 0)
(2.47674 -0.256927 0)
(2.49395 -0.245293 0)
(2.52277 -0.233306 0)
(2.55775 -0.220286 0)
(2.59341 -0.205797 0)
(2.62575 -0.189708 0)
(3.02105 -0.00625336 0)
(3.02804 0.000135001 0)
(3.03047 0.00600702 0)
(3.02871 0.0111346 0)
(3.02412 0.0152846 0)
(3.01902 0.0183939 0)
(3.0164 0.020553 0)
(3.0193 0.0219832 0)
(3.02999 0.0230006 0)
(3.04919 0.0239818 0)
(3.07545 0.0253002 0)
(3.10509 0.0272456 0)
(3.13287 0.0299412 0)
(3.15322 0.0332722 0)
(3.16163 0.0369038 0)
(3.15587 0.0403962 0)
(3.13637 0.043348 0)
(3.10593 0.0455153 0)
(3.06872 0.0468778 0)
(3.02906 0.0476057 0)
(2.76888 -0.301887 0)
(2.76167 -0.298871 0)
(2.7566 -0.295092 0)
(2.75222 -0.290378 0)
(2.74694 -0.284511 0)
(2.73909 -0.277358 0)
(2.7272 -0.268906 0)
(2.71044 -0.259296 0)
(2.68893 -0.248813 0)
(2.66403 -0.237864 0)
(2.63833 -0.226898 0)
(2.6154 -0.216315 0)
(2.59909 -0.206361 0)
(2.59257 -0.197059 0)
(2.59739 -0.188207 0)
(2.61298 -0.179437 0)
(2.63689 -0.170323 0)
(2.66554 -0.160497 0)
(2.69531 -0.149725 0)
(2.72336 -0.137933 0)
(3.04659 0.0189223 0)
(3.05256 0.0230418 0)
(3.05551 0.0267325 0)
(3.05619 0.0298946 0)
(3.05586 0.0324215 0)
(3.05623 0.0343314 0)
(3.0592 0.0357315 0)
(3.06647 0.0367927 0)
(3.07898 0.0377291 0)
(3.09654 0.0387674 0)
(3.11757 0.0401033 0)
(3.13927 0.0418534 0)
(3.15812 0.0440124 0)
(3.17066 0.0464372 0)
(3.17429 0.0488783 0)
(3.16787 0.05105 0)
(3.15192 0.0527097 0)
(3.12838 0.0537189 0)
(3.10005 0.0540696 0)
(3.0698 0.0538619 0)
(2.82108 -0.231611 0)
(2.81516 -0.228472 0)
(2.81083 -0.224777 0)
(2.80671 -0.22043 0)
(2.80152 -0.215306 0)
(2.79407 -0.209369 0)
(2.78344 -0.202664 0)
(2.76923 -0.195324 0)
(2.75183 -0.187556 0)
(2.73249 -0.179619 0)
(2.71331 -0.17177 0)
(2.69692 -0.164215 0)
(2.68599 -0.157056 0)
(2.68261 -0.15026 0)
(2.68772 -0.143672 0)
(2.70089 -0.137053 0)
(2.72044 -0.13014 0)
(2.74393 -0.12271 0)
(2.76883 -0.114618 0)
(2.79301 -0.105813 0)
(3.06551 0.0350235 0)
(3.07111 0.0376771 0)
(3.07478 0.040078 0)
(3.07725 0.0420744 0)
(3.07955 0.0436116 0)
(3.08288 0.0447419 0)
(3.08846 0.0455639 0)
(3.0972 0.0462037 0)
(3.1094 0.0468042 0)
(3.12456 0.0475031 0)
(3.14127 0.048404 0)
(3.15745 0.0495484 0)
(3.17065 0.0508959 0)
(3.17861 0.0523254 0)
(3.1797 0.0536605 0)
(3.17334 0.0547121 0)
(3.16001 0.0553251 0)
(3.14112 0.0554119 0)
(3.11864 0.0549654 0)
(3.09464 0.054046 0)
(2.8624 -0.177428 0)
(2.85729 -0.174857 0)
(2.85332 -0.171892 0)
(2.84939 -0.168451 0)
(2.84448 -0.164469 0)
(2.8377 -0.159949 0)
(2.82845 -0.154946 0)
(2.81655 -0.149566 0)
(2.80243 -0.143953 0)
(2.78715 -0.138276 0)
(2.77237 -0.132688 0)
(2.76006 -0.127302 0)
(2.75216 -0.122158 0)
(2.75016 -0.117216 0)
(2.75474 -0.112361 0)
(2.7656 -0.107432 0)
(2.78161 -0.102255 0)
(2.80103 -0.0966838 0)
(2.82201 -0.0906194 0)
(2.84289 -0.0840216 0)
(3.07691 0.0470202 0)
(3.08228 0.0485237 0)
(3.08644 0.049945 0)
(3.09001 0.051059 0)
(3.09377 0.0518206 0)
(3.09859 0.0522904 0)
(3.10523 0.0525533 0)
(3.11414 0.0527022 0)
(3.12533 0.0528332 0)
(3.13818 0.0530313 0)
(3.15154 0.0533517 0)
(3.1638 0.0538037 0)
(3.17324 0.054342 0)
(3.17829 0.0548718 0)
(3.17794 0.0552673 0)
(3.17185 0.0553992 0)
(3.16047 0.0551631 0)
(3.14489 0.0544999 0)
(3.12656 0.0534028 0)
(3.10701 0.0519098 0)
(2.89273 -0.13376 0)
(2.88821 -0.132023 0)
(2.88448 -0.130025 0)
(2.88073 -0.127647 0)
(2.87616 -0.12487 0)
(2.8701 -0.121717 0)
(2.86212 -0.11824 0)
(2.85213 -0.114518 0)
(2.84053 -0.110652 0)
(2.82819 -0.106753 0)
(2.81641 -0.102918 0)
(2.8067 -0.099212 0)
(2.80056 -0.0956498 0)
(2.7991 -0.0921937 0)
(2.80288 -0.0887591 0)
(2.81175 -0.0852322 0)
(2.8249 -0.0814932 0)
(2.84111 -0.0774381 0)
(2.85894 -0.0729958 0)
(2.87708 -0.0681336 0)
(3.08174 0.0573572 0)
(3.08705 0.0579722 0)
(3.09163 0.0585587 0)
(3.09594 0.0589047 0)
(3.1006 0.0589773 0)
(3.10621 0.0588259 0)
(3.11324 0.0585168 0)
(3.12188 0.0581202 0)
(3.13198 0.057703 0)
(3.14294 0.0573195 0)
(3.15378 0.0569997 0)
(3.16327 0.0567394 0)
(3.17013 0.0564976 0)
(3.1733 0.0562015 0)
(3.1721 0.0557599 0)
(3.16637 0.0550815 0)
(3.15654 0.0540932 0)
(3.14345 0.0527532 0)
(3.12823 0.0510552 0)
(3.11206 0.0490239 0)
(2.91454 -0.0991593 0)
(2.91079 -0.0980521 0)
(2.90753 -0.0969103 0)
(2.90423 -0.0954903 0)
(2.9003 -0.0937578 0)
(2.89518 -0.0917508 0)
(2.88855 -0.0895182 0)
(2.88035 -0.0871192 0)
(2.87091 -0.0846254 0)
(2.86093 -0.0821112 0)
(2.85144 -0.0796396 0)
(2.84363 -0.0772492 0)
(2.83868 -0.0749443 0)
(2.8375 -0.0726934 0)
(2.84058 -0.0704334 0)
(2.84789 -0.0680818 0)
(2.85886 -0.065552 0)
(2.87259 -0.0627681 0)
(2.88798 -0.0596764 0)
(2.90392 -0.0562507 0)
(3.07754 0.0641151 0)
(3.08214 0.0642092 0)
(3.08633 0.064206 0)
(3.09049 0.0639315 0)
(3.09509 0.063432 0)
(3.10055 0.0627629 0)
(3.10715 0.061969 0)
(3.11493 0.0610968 0)
(3.12364 0.060192 0)
(3.13273 0.05929 0)
(3.14136 0.0584081 0)
(3.14859 0.0575397 0)
(3.15345 0.056653 0)
(3.15518 0.0556956 0)
(3.15332 0.0546029 0)
(3.14786 0.0533107 0)
(3.13915 0.0517666 0)
(3.12789 0.0499385 0)
(3.11498 0.0478178 0)
(3.10132 0.0454166 0)
(0.780607 -0.430184 0)
(0.663163 -0.178702 0)
(0.530191 -0.0235884 0)
(0.417273 0.103054 0)
(0.322202 0.193744 0)
(0.243086 0.258946 0)
(0.177501 0.302492 0)
(0.123161 0.328048 0)
(0.0780868 0.338957 0)
(0.0407669 0.337858 0)
(0.00975353 0.326435 0)
(-0.0164462 0.306126 0)
(-0.0393948 0.278395 0)
(-0.0610822 0.244443 0)
(-0.0838374 0.205247 0)
(-0.108647 0.161765 0)
(-0.131517 0.115355 0)
(-0.14083 0.0687659 0)
(-0.120493 0.0276908 0)
(-0.0573849 0.00474546 0)
(1.60445 -0.237077 0)
(1.24368 -0.1404 0)
(0.942416 -0.0725686 0)
(0.691901 -0.017597 0)
(0.484696 0.02341 0)
(0.31549 0.0513348 0)
(0.178486 0.069296 0)
(0.0676812 0.0786434 0)
(-0.0225481 0.0806429 0)
(-0.0967738 0.0773205 0)
(-0.158661 0.0707394 0)
(-0.210861 0.0615346 0)
(-0.254603 0.0500303 0)
(-0.289565 0.0369193 0)
(-0.313789 0.0233823 0)
(-0.323583 0.0110659 0)
(-0.313418 0.00179109 0)
(-0.276075 -0.00304211 0)
(-0.203257 -0.00337999 0)
(-0.0861454 -0.00125672 0)
(1.67742 -0.364093 0)
(1.38079 -0.308528 0)
(1.0971 -0.246053 0)
(0.840051 -0.19294 0)
(0.61715 -0.149353 0)
(0.430272 -0.115246 0)
(0.277742 -0.0899024 0)
(0.155075 -0.0718491 0)
(0.0564842 -0.0592356 0)
(-0.0237141 -0.0507654 0)
(-0.0899692 -0.0453719 0)
(-0.144821 -0.0418143 0)
(-0.188996 -0.0389133 0)
(-0.221701 -0.0357624 0)
(-0.241033 -0.0317165 0)
(-0.244409 -0.0263942 0)
(-0.229027 -0.0197546 0)
(-0.192431 -0.0122213 0)
(-0.133193 -0.0049632 0)
(-0.0514602 -0.000798578 0)
(2.22431 -0.298138 0)
(1.85482 -0.240422 0)
(1.50216 -0.191 0)
(1.17428 -0.145808 0)
(0.879525 -0.106966 0)
(0.623308 -0.0755586 0)
(0.407648 -0.0517955 0)
(0.231507 -0.0352308 0)
(0.0914368 -0.0249098 0)
(-0.017463 -0.0194847 0)
(-0.100527 -0.0173757 0)
(-0.162503 -0.0169905 0)
(-0.206802 -0.0169857 0)
(-0.235242 -0.0164579 0)
(-0.248241 -0.0149348 0)
(-0.245262 -0.0123406 0)
(-0.225278 -0.0089507 0)
(-0.18708 -0.00530191 0)
(-0.129354 -0.00209523 0)
(-0.0506078 -0.000351349 0)
(2.27481 -0.409794 0)
(1.94481 -0.352194 0)
(1.61211 -0.292749 0)
(1.28851 -0.236631 0)
(0.987671 -0.186119 0)
(0.718688 -0.14236 0)
(0.486495 -0.105837 0)
(0.292549 -0.076489 0)
(0.135676 -0.053868 0)
(0.0128926 -0.0372308 0)
(-0.0797848 -0.0254653 0)
(-0.146641 -0.0173672 0)
(-0.191624 -0.0119216 0)
(-0.217887 -0.00824328 0)
(-0.227606 -0.00563501 0)
(-0.221994 -0.0036655 0)
(-0.201423 -0.00214217 0)
(-0.165543 -0.00102466 0)
(-0.113404 -0.000319292 0)
(-0.0438024 -3.61518e-05 0)
(2.76252 -0.386911 0)
(2.40774 -0.329558 0)
(2.04239 -0.276792 0)
(1.67613 -0.224144 0)
(1.3262 -0.175147 0)
(1.00565 -0.131688 0)
(0.722785 -0.0947467 0)
(0.481364 -0.0645477 0)
(0.28157 -0.0407766 0)
(0.121176 -0.0227804 0)
(-0.00341812 -0.00975358 0)
(-0.0963995 -0.00101609 0)
(-0.161923 0.00415613 0)
(-0.203677 0.00666219 0)
(-0.224599 0.00725526 0)
(-0.226652 0.00654039 0)
(-0.210698 0.00501961 0)
(-0.176473 0.00313174 0)
(-0.122792 0.00131857 0)
(-0.0481518 0.000243958 0)
(2.83044 -0.481646 0)
(2.51756 -0.424626 0)
(2.18372 -0.36576 0)
(1.82939 -0.305237 0)
(1.47614 -0.247257 0)
(1.1414 -0.19431 0)
(0.838285 -0.14814 0)
(0.574628 -0.109505 0)
(0.35338 -0.0783412 0)
(0.173798 -0.0540792 0)
(0.0328833 -0.0359063 0)
(-0.0733842 -0.0227437 0)
(-0.149253 -0.0134662 0)