/*--------------------------------*- C++ -*----------------------------------*\
| =========                 |                                                 |
| \\      /  F ield         | OpenFOAM: The Open Source CFD Toolbox           |
|  \\    /   O peration     | Version:  v1806                                 |
|   \\  /    A nd           | Web:      www.OpenFOAM.com                      |
|    \\/     M anipulation  |                                                 |
\*---------------------------------------------------------------------------*/
FoamFile
{
    version     2.0;
    format      ascii;
    class       volVectorField;
    location    "130";
    object      U;
}
// * * * * * * * * * * * * * * * * * * * * * * * * * * * * * * * * * * * * * //

dimensions      [0 1 -1 0 0 0 0];


internalField   nonuniform List<vector> 
4400
(
(0.251791 0.259898 0)
(0.294419 0.177589 0)
(0.308106 0.130938 0)
(0.315705 0.101797 0)
(0.319962 0.0833673 0)
(0.321794 0.0717143 0)
(0.322164 0.063681 0)
(0.321699 0.0575294 0)
(0.320729 0.0525583 0)
(0.319439 0.0484596 0)
(0.317941 0.0450456 0)
(0.316307 0.0421832 0)
(0.314586 0.0397765 0)
(0.312812 0.0377563 0)
(0.311007 0.0360716 0)
(0.309187 0.0346839 0)
(0.307361 0.0335651 0)
(0.305539 0.0326961 0)
(0.303766 0.032047 0)
(0.302276 0.031545 0)
(0.258247 0.135 0)
(0.280152 0.097572 0)
(0.29458 0.0884514 0)
(0.305917 0.0824151 0)
(0.312031 0.0750339 0)
(0.315043 0.0676448 0)
(0.316521 0.0611183 0)
(0.317041 0.0556076 0)
(0.316877 0.050999 0)
(0.31623 0.0471396 0)
(0.315248 0.0438954 0)
(0.314039 0.0411585 0)
(0.312677 0.0388472 0)
(0.311212 0.036901 0)
(0.30968 0.0352748 0)
(0.308104 0.0339346 0)
(0.306502 0.0328552 0)
(0.304887 0.0320192 0)
(0.303305 0.0313985 0)
(0.301967 0.0309319 0)
(0.231438 0.103709 0)
(0.262711 0.101349 0)
(0.28367 0.0928965 0)
(0.296384 0.0818756 0)
(0.304081 0.0718986 0)
(0.30876 0.0640014 0)
(0.311473 0.0578674 0)
(0.312871 0.0529301 0)
(0.313376 0.0488142 0)
(0.313267 0.0453231 0)
(0.312732 0.0423447 0)
(0.311902 0.0398018 0)
(0.310866 0.0376356 0)
(0.309687 0.0358003 0)
(0.308411 0.0342603 0)
(0.307068 0.0329881 0)
(0.305681 0.0319631 0)
(0.304267 0.0311705 0)
(0.302871 0.0305856 0)
(0.301682 0.0301567 0)
(0.248396 0.0698751 0)
(0.268509 0.0701862 0)
(0.281998 0.0677739 0)
(0.292176 0.0649196 0)
(0.299534 0.0614532 0)
(0.304438 0.0574907 0)
(0.30754 0.0534356 0)
(0.309381 0.0496132 0)
(0.310325 0.0461663 0)
(0.31062 0.043123 0)
(0.310446 0.040465 0)
(0.309935 0.0381596 0)
(0.309184 0.0361734 0)
(0.308263 0.0344766 0)
(0.307221 0.0330443 0)
(0.306094 0.0318567 0)
(0.304909 0.0308981 0)
(0.303686 0.0301573 0)
(0.302468 0.0296134 0)
(0.301424 0.0292241 0)
(0.249264 0.0531596 0)
(0.265075 0.0598662 0)
(0.278626 0.061567 0)
(0.288821 0.0598418 0)
(0.296025 0.0565247 0)
(0.301001 0.0528418 0)
(0.304344 0.0493283 0)
(0.306483 0.0461207 0)
(0.307729 0.0432254 0)
(0.308316 0.0406279 0)
(0.308419 0.0383153 0)
(0.308166 0.0362748 0)
(0.307655 0.0344924 0)
(0.306956 0.0329538 0)
(0.306123 0.0316451 0)
(0.305192 0.0305541 0)
(0.304193 0.0296712 0)
(0.303148 0.0289887 0)
(0.302098 0.02849 0)
(0.301191 0.0281407 0)
(0.2607 0.0404302 0)
(0.271577 0.0461617 0)
(0.280794 0.0486289 0)
(0.288348 0.0490395 0)
(0.294336 0.0482073 0)
(0.298838 0.0465864 0)
(0.302054 0.0445183 0)
(0.304235 0.0422749 0)
(0.305611 0.0400402 0)
(0.306372 0.037919 0)
(0.306665 0.035964 0)
(0.306608 0.0341986 0)
(0.30629 0.0326306 0)
(0.305779 0.0312603 0)
(0.305126 0.0300842 0)
(0.30437 0.0290977 0)
(0.303539 0.0282963 0)
(0.302658 0.0276762 0)
(0.301763 0.0272248 0)
(0.300985 0.0269154 0)
(0.265883 0.0318669 0)
(0.273641 0.0381741 0)
(0.28132 0.0417602 0)
(0.287994 0.0430964 0)
(0.293336 0.042904 0)
(0.297409 0.0418194 0)
(0.300402 0.0402873 0)
(0.302513 0.0385701 0)
(0.303918 0.0368124 0)
(0.304766 0.0350969 0)
(0.305181 0.0334744 0)
(0.305264 0.0319768 0)
(0.305094 0.0306231 0)
(0.304735 0.0294237 0)
(0.304235 0.0283837 0)
(0.30363 0.027505 0)
(0.302949 0.0267879 0)
(0.302216 0.0262323 0)
(0.301464 0.0258291 0)
(0.300805 0.0255583 0)
(0.273053 0.0256959 0)
(0.278629 0.0309249 0)
(0.284115 0.0343243 0)
(0.28906 0.036137 0)
(0.29328 0.0367819 0)
(0.296701 0.0366012 0)
(0.299338 0.0358621 0)
(0.301274 0.0347808 0)
(0.302617 0.0335218 0)
(0.303477 0.0322006 0)
(0.303952 0.0308939 0)
(0.304125 0.0296512 0)
(0.304064 0.0285038 0)
(0.303825 0.0274714 0)
(0.303451 0.0265658 0)
(0.302976 0.0257944 0)
(0.302426 0.0251617 0)
(0.301823 0.0246703 0)
(0.301199 0.0243149 0)
(0.300648 0.0240808 0)
(0.277695 0.0208558 0)
(0.281701 0.0256944 0)
(0.285968 0.0291017 0)
(0.290007 0.031158 0)
(0.293528 0.0321274 0)
(0.296425 0.0323012 0)
(0.298702 0.0319346 0)
(0.300416 0.0312252 0)
(0.301645 0.0303162 0)
(0.302466 0.0293084 0)
(0.302955 0.0282727 0)
(0.303178 0.0272592 0)
(0.303192 0.0263028 0)
(0.303044 0.025428 0)
(0.302771 0.0246512 0)
(0.302404 0.0239836 0)
(0.301966 0.0234329 0)
(0.301479 0.023004 0)
(0.300969 0.0226947 0)
(0.300514 0.0224948 0)
(0.282449 0.0172812 0)
(0.285365 0.0213092 0)
(0.288476 0.024345 0)
(0.291479 0.0263824 0)
(0.294192 0.0275711 0)
(0.296512 0.0280881 0)
(0.298401 0.0280987 0)
(0.299867 0.0277488 0)
(0.300947 0.027161 0)
(0.301694 0.0264326 0)
(0.302163 0.0256372 0)
(0.302405 0.0248286 0)
(0.302465 0.0240455 0)
(0.302383 0.0233158 0)
(0.302189 0.0226591 0)
(0.301911 0.0220893 0)
(0.301569 0.0216163 0)
(0.301181 0.0212469 0)
(0.30077 0.0209811 0)
(0.300401 0.0208126 0)
(0.28598 0.0142537 0)
(0.288099 0.0178013 0)
(0.290443 0.0205665 0)
(0.292779 0.0225293 0)
(0.29493 0.0237763 0)
(0.296796 0.0244337 0)
(0.298337 0.0246344 0)
(0.299554 0.0245002 0)
(0.300471 0.024134 0)
(0.301123 0.0236185 0)
(0.301548 0.0230187 0)
(0.301785 0.0223844 0)
(0.301869 0.0217533 0)
(0.301831 0.0211537 0)
(0.301698 0.0206064 0)
(0.301492 0.0201268 0)
(0.301229 0.019726 0)
(0.300926 0.0194119 0)
(0.300601 0.0191864 0)
(0.300307 0.0190463 0)
(0.289236 0.0118979 0)
(0.290765 0.0148547 0)
(0.292465 0.0172509 0)
(0.294179 0.0190403 0)
(0.29579 0.0202661 0)
(0.297223 0.0210072 0)
(0.298435 0.0213529 0)
(0.299414 0.0213918 0)
(0.300166 0.0212057 0)
(0.300712 0.020865 0)
(0.301079 0.0204282 0)
(0.301295 0.0199418 0)
(0.301387 0.0194422 0)
(0.301378 0.0189571 0)
(0.30129 0.0185076 0)
(0.30114 0.0181095 0)
(0.300943 0.0177745 0)
(0.300711 0.017511 0)
(0.30046 0.0173224 0)
(0.30023 0.0172074 0)
(0.291792 0.00981926 0)
(0.292887 0.0123504 0)
(0.294126 0.0144366 0)
(0.295398 0.016042 0)
(0.296611 0.01719 0)
(0.297701 0.0179332 0)
(0.298633 0.0183378 0)
(0.299395 0.018473 0)
(0.29999 0.0184045 0)
(0.300429 0.0181905 0)
(0.300732 0.0178801 0)
(0.300917 0.0175141 0)
(0.301004 0.0171249 0)
(0.301012 0.0167386 0)
(0.300955 0.0163749 0)
(0.300849 0.0160493 0)
(0.300705 0.0157734 0)
(0.300532 0.0155556 0)
(0.300342 0.0154 0)
(0.300167 0.0153071 0)
(0.294021 0.00810445 0)
(0.294782 0.0101868 0)
(0.295649 0.011944 0)
(0.296545 0.0133347 0)
(0.29741 0.0143667 0)
(0.298199 0.0150728 0)
(0.298885 0.015498 0)
(0.299454 0.0156926 0)
(0.299905 0.0157069 0)
(0.300243 0.0155876 0)
(0.30048 0.015376 0)
(0.300629 0.0151072 0)
(0.300705 0.0148099 0)
(0.300719 0.0145075 0)
(0.300685 0.0142181 0)
(0.300612 0.0139562 0)
(0.30051 0.0137327 0)
(0.300385 0.0135556 0)
(0.300247 0.0134294 0)
(0.300117 0.0133555 0)
(0.295787 0.00654748 0)
(0.296303 0.00826618 0)
(0.296895 0.00972998 0)
(0.297513 0.0109082 0)
(0.298115 0.0118037 0)
(0.298669 0.0124378 0)
(0.299153 0.0128423 0)
(0.299558 0.0130549 0)
(0.299882 0.0131145 0)
(0.300127 0.013058 0)
(0.300302 0.0129187 0)
(0.300415 0.0127256 0)
(0.300474 0.012503 0)
(0.30049 0.0122708 0)
(0.30047 0.0120451 0)
(0.300422 0.0118386 0)
(0.300353 0.0116611 0)
(0.300267 0.0115199 0)
(0.30017 0.0114197 0)
(0.300078 0.0113623 0)
(0.297247 0.00518831 0)
(0.297574 0.00654432 0)
(0.29795 0.00771645 0)
(0.298346 0.00867515 0)
(0.298733 0.00941862 0)
(0.299093 0.00995967 0)
(0.299411 0.0103199 0)
(0.299679 0.0105261 0)
(0.299895 0.010607 0)
(0.300061 0.0105909 0)
(0.30018 0.0105039 0)
(0.300258 0.0103693 0)
(0.300301 0.0102069 0)
(0.300314 0.0100332 0)
(0.300304 0.00986173 0)
(0.300274 0.0097032 0)
(0.300229 0.00956608 0)
(0.300173 0.00945665 0)
(0.30011 0.00937912 0)
(0.300049 0.00933576 0)
(0.298358 0.00391856 0)
(0.29855 0.00495651 0)
(0.298771 0.00585812 0)
(0.299004 0.00660214 0)
(0.299233 0.00718654 0)
(0.299447 0.00761938 0)
(0.299636 0.00791536 0)
(0.299797 0.00809347 0)
(0.299927 0.00817453 0)
(0.300027 0.00817939 0)
(0.300099 0.00812768 0)
(0.300147 0.00803703 0)
(0.300174 0.00792272 0)
(0.300183 0.00779765 0)
(0.300178 0.00767243 0)
(0.300161 0.00755562 0)
(0.300135 0.00745399 0)
(0.300102 0.00737264 0)
(0.300065 0.00731519 0)
(0.300028 0.0072838 0)
(0.299189 0.00275042 0)
(0.299281 0.00347583 0)
(0.299389 0.00411159 0)
(0.299503 0.00464048 0)
(0.299615 0.00506004 0)
(0.299721 0.00537492 0)
(0.299815 0.00559441 0)
(0.299895 0.00573088 0)
(0.29996 0.00579831 0)
(0.300011 0.00581092 0)
(0.300047 0.00578231 0)
(0.300072 0.00572489 0)
(0.300086 0.00564951 0)
(0.30009 0.00556542 0)
(0.300088 0.00548026 0)
(0.30008 0.00540021 0)
(0.300067 0.00533023 0)
(0.300051 0.00527408 0)
(0.300032 0.00523456 0)
(0.300013 0.00521345 0)
(0.299722 0.00162533 0)
(0.299752 0.00205969 0)
(0.299789 0.00243969 0)
(0.299828 0.00275655 0)
(0.299867 0.00300919 0)
(0.299903 0.00320013 0)
(0.299936 0.00333458 0)
(0.299963 0.00341964 0)
(0.299986 0.0034634 0)
(0.300003 0.0034742 0)
(0.300016 0.00346003 0)
(0.300024 0.00342825 0)
(0.300029 0.00338533 0)
(0.300031 0.00333682 0)
(0.30003 0.00328731 0)
(0.300027 0.00324055 0)
(0.300023 0.00319953 0)
(0.300017 0.00316656 0)
(0.300011 0.00314342 0)
(0.300004 0.0031313 0)
(0.299987 0.000546224 0)
(0.299988 0.000684765 0)
(0.29999 0.000809818 0)
(0.299992 0.000914913 0)
(0.299993 0.000999032 0)
(0.299995 0.00106285 0)
(0.299997 0.00110801 0)
(0.299998 0.0011368 0)
(0.299999 0.00115184 0)
(0.3 0.00115589 0)
(0.300001 0.00115157 0)
(0.300001 0.00114133 0)
(0.300002 0.00112732 0)
(0.300002 0.0011114 0)
(0.300002 0.0010951 0)
(0.300001 0.00107967 0)
(0.300001 0.00106612 0)
(0.300001 0.00105522 0)
(0.300001 0.00104758 0)
(0.3 0.00104362 0)
(0.100766 -0.162428 0)
(0.0800834 -0.137432 0)
(0.0675724 -0.114231 0)
(0.0588467 -0.093483 0)
(0.0523457 -0.0745897 0)
(0.0474106 -0.0570685 0)
(0.0437108 -0.040593 0)
(0.0410561 -0.0248942 0)
(0.0393303 -0.00972943 0)
(0.0384638 0.00512482 0)
(0.0384217 0.0198805 0)
(0.0391994 0.0347451 0)
(0.0408226 0.0499294 0)
(0.0433503 0.0656552 0)
(0.0468861 0.0821631 0)
(0.0516029 0.0997198 0)
(0.0578077 0.118654 0)
(0.0661268 0.139491 0)
(0.0780857 0.162906 0)
(0.0982467 0.187761 0)
(0.17404 -0.09703 0)
(0.160106 -0.087654 0)
(0.147961 -0.0768833 0)
(0.137787 -0.0653694 0)
(0.129483 -0.0533827 0)
(0.122888 -0.0410613 0)
(0.117837 -0.0285024 0)
(0.11419 -0.0157769 0)
(0.111841 -0.00293501 0)
(0.11072 0.00998718 0)
(0.110791 0.0229612 0)
(0.11205 0.0359618 0)
(0.114532 0.0489626 0)
(0.118311 0.0619323 0)
(0.123508 0.0748267 0)
(0.130306 0.0875742 0)
(0.138974 0.100078 0)
(0.149912 0.112338 0)
(0.163746 0.124548 0)
(0.181451 0.135121 0)
(0.19219 -0.0607878 0)
(0.187141 -0.0552177 0)
(0.182629 -0.0487531 0)
(0.178659 -0.0415456 0)
(0.175245 -0.0337463 0)
(0.172412 -0.0254836 0)
(0.170184 -0.0168645 0)
(0.168586 -0.00797943 0)
(0.167634 0.00109441 0)
(0.167343 0.0102891 0)
(0.167721 0.0195425 0)
(0.168776 0.028795 0)
(0.170512 0.0379864 0)
(0.172933 0.0470517 0)
(0.176038 0.055917 0)
(0.179827 0.0644926 0)
(0.184306 0.0726727 0)
(0.189499 0.0803515 0)
(0.195507 0.0873879 0)
(0.202619 0.0932184 0)
(0.22033 -0.0363529 0)
(0.216745 -0.0321774 0)
(0.213426 -0.0276746 0)
(0.21045 -0.0228767 0)
(0.207876 -0.0178183 0)
(0.205742 -0.0125362 0)
(0.204077 -0.00706877 0)
(0.202901 -0.00145631 0)
(0.202227 0.00425981 0)
(0.202066 0.0100372 0)
(0.202424 0.0158326 0)
(0.203306 0.0216024 0)
(0.204717 0.0273019 0)
(0.206657 0.0328861 0)
(0.209127 0.0383087 0)
(0.212127 0.0435219 0)
(0.215653 0.04848 0)
(0.219703 0.0531515 0)
(0.22428 0.057496 0)
(0.229404 0.0612592 0)
(0.233764 -0.0252236 0)
(0.232016 -0.0221299 0)
(0.230451 -0.0188121 0)
(0.229083 -0.0152886 0)
(0.227927 -0.0115826 0)
(0.226995 -0.00772052 0)
(0.226301 -0.00373062 0)
(0.225854 0.000357535 0)
(0.225664 0.00451366 0)
(0.225735 0.00870693 0)
(0.226071 0.0129061 0)
(0.226673 0.0170795 0)
(0.227539 0.021195 0)
(0.228664 0.0252199 0)
(0.23004 0.0291208 0)
(0.231657 0.0328633 0)
(0.233503 0.0364131 0)
(0.235567 0.0397373 0)
(0.237839 0.042802 0)
(0.240318 0.0455387 0)
(0.24909 -0.0169628 0)
(0.247873 -0.0145206 0)
(0.246769 -0.0119772 0)
(0.245797 -0.00934243 0)
(0.244971 -0.00662721 0)
(0.244306 -0.00384353 0)
(0.243813 -0.00100445 0)
(0.2435 0.00187607 0)
(0.243375 0.00478327 0)
(0.243442 0.00770177 0)
(0.243703 0.0106158 0)
(0.24416 0.0135094 0)
(0.24481 0.0163665 0)
(0.245651 0.0191715 0)
(0.246676 0.0219087 0)
(0.247879 0.0245634 0)
(0.24925 0.027122 0)
(0.250779 0.0295757 0)
(0.252452 0.0319156 0)
(0.254258 0.0340893 0)
(0.258163 -0.0123797 0)
(0.257465 -0.0104838 0)
(0.256853 -0.00851778 0)
(0.256331 -0.00648799 0)
(0.255906 -0.00440207 0)
(0.255579 -0.0022686 0)
(0.255356 -9.70098e-05 0)
(0.255238 0.00210259 0)
(0.255228 0.00431954 0)
(0.255327 0.00654281 0)
(0.255536 0.0087611 0)
(0.255854 0.010963 0)
(0.256279 0.0131369 0)
(0.25681 0.0152716 0)
(0.257443 0.0173558 0)
(0.258175 0.0193786 0)
(0.259 0.0213299 0)
(0.259915 0.0232003 0)
(0.260915 0.0249819 0)
(0.261999 0.0266621 0)
(0.267343 -0.00904726 0)
(0.26686 -0.00751163 0)
(0.266434 -0.0059391 0)
(0.266069 -0.00433404 0)
(0.265771 -0.00270114 0)
(0.265543 -0.00104541 0)
(0.265389 0.000627882 0)
(0.26531 0.00231323 0)
(0.265308 0.00400495 0)
(0.265386 0.00569719 0)
(0.265544 0.00738408 0)
(0.265781 0.00905968 0)
(0.266096 0.0107182 0)
(0.266487 0.0123538 0)
(0.266953 0.0139609 0)
(0.267491 0.0155342 0)
(0.268096 0.0170688 0)
(0.268764 0.0185613 0)
(0.269491 0.0200086 0)
(0.270272 0.021393 0)
(0.27352 -0.00687846 0)
(0.273213 -0.00564717 0)
(0.272949 -0.00439015 0)
(0.27273 -0.00311039 0)
(0.272556 -0.00181113 0)
(0.272431 -0.000495929 0)
(0.272354 0.000831427 0)
(0.272326 0.00216695 0)
(0.272349 0.00350651 0)
(0.272422 0.00484583 0)
(0.272545 0.0061806 0)
(0.272718 0.00750646 0)
(0.27294 0.00881911 0)
(0.273211 0.0101143 0)
(0.273529 0.0113879 0)
(0.273894 0.0126359 0)
(0.274302 0.0138545 0)
(0.274754 0.0150406 0)
(0.275247 0.0161915 0)
(0.275781 0.0173026 0)
(0.279387 -0.00530087 0)
(0.279175 -0.00428555 0)
(0.278993 -0.0032549 0)
(0.278841 -0.00221105 0)
(0.278722 -0.0011562 0)
(0.278636 -9.2687e-05 0)
(0.278585 0.000977109 0)
(0.278569 0.00205073 0)
(0.278588 0.00312567 0)
(0.278644 0.0041994 0)
(0.278736 0.00526937 0)
(0.278864 0.00633306 0)
(0.279028 0.00738794 0)
(0.279226 0.00843156 0)
(0.279458 0.0094615 0)
(0.279723 0.0104754 0)
(0.28002 0.011471 0)
(0.280347 0.0124469 0)
(0.280702 0.0134016 0)
(0.281084 0.0143276 0)
(0.283672 -0.00415215 0)
(0.28353 -0.0033223 0)
(0.283409 -0.0024817 0)
(0.283311 -0.00163184 0)
(0.283237 -0.000774308 0)
(0.283186 8.92337e-05 0)
(0.283159 0.000957044 0)
(0.283157 0.00182733 0)
(0.283179 0.00269824 0)
(0.283226 0.00356791 0)
(0.283297 0.00443446 0)
(0.283393 0.00529599 0)
(0.283513 0.00615063 0)
(0.283657 0.00699656 0)
(0.283824 0.00783197 0)
(0.284014 0.00865512 0)
(0.284227 0.00946434 0)
(0.284461 0.0102583 0)
(0.284716 0.0110358 0)
(0.284992 0.0117945 0)
(0.287574 -0.00329214 0)
(0.287476 -0.00260347 0)
(0.287393 -0.00190778 0)
(0.287327 -0.00120616 0)
(0.287276 -0.00049975 0)
(0.287242 0.000210284 0)
(0.287225 0.000922745 0)
(0.287225 0.00163642 0)
(0.287243 0.00235007 0)
(0.287278 0.00306246 0)
(0.28733 0.00377234 0)
(0.287399 0.00447849 0)
(0.287486 0.00517968 0)
(0.287589 0.0058747 0)
(0.287709 0.00656235 0)
(0.287845 0.00724147 0)
(0.287997 0.00791093 0)
(0.288163 0.00856995 0)
(0.288344 0.00921781 0)
(0.288539 0.00985099 0)
(0.290555 -0.00261582 0)
(0.290489 -0.00205114 0)
(0.290434 -0.00148149 0)
(0.29039 -0.000907673 0)
(0.290357 -0.000330511 0)
(0.290336 0.000249134 0)
(0.290328 0.000830381 0)
(0.290331 0.00141233 0)
(0.290346 0.00199406 0)
(0.290374 0.00257466 0)
(0.290413 0.00315319 0)
(0.290465 0.00372874 0)
(0.290528 0.00430039 0)
(0.290603 0.00486724 0)
(0.29069 0.0054284 0)
(0.290787 0.00598301 0)
(0.290896 0.00653022 0)
(0.291016 0.00706935 0)
(0.291147 0.00759989 0)
(0.291287 0.00812045 0)
(0.29317 -0.0020841 0)
(0.293126 -0.00162018 0)
(0.293089 -0.00115282 0)
(0.29306 -0.000682619 0)
(0.293038 -0.000210197 0)
(0.293025 0.000263824 0)
(0.29302 0.000738807 0)
(0.293023 0.00121411 0)
(0.293034 0.00168907 0)
(0.293053 0.00216305 0)
(0.293081 0.00263538 0)
(0.293116 0.00310542 0)
(0.29316 0.00357252 0)
(0.293212 0.00403604 0)
(0.293271 0.00449535 0)
(0.293338 0.00494982 0)
(0.293413 0.00539885 0)
(0.293494 0.00584201 0)
(0.293583 0.00627895 0)
(0.293679 0.00670786 0)
(0.295191 -0.00164052 0)
(0.295162 -0.00126738 0)
(0.295138 -0.000891807 0)
(0.295119 -0.000514234 0)
(0.295106 -0.000135113 0)
(0.295098 0.000245091 0)
(0.295096 0.00062591 0)
(0.295099 0.00100686 0)
(0.295107 0.00138747 0)
(0.295121 0.00176725 0)
(0.295141 0.00214571 0)
(0.295165 0.00252237 0)
(0.295196 0.00289675 0)
(0.295231 0.00326838 0)
(0.295272 0.00363679 0)
(0.295318 0.00400151 0)
(0.295369 0.0043621 0)
(0.295425 0.00471821 0)
(0.295486 0.00506961 0)
(0.295552 0.00541542 0)
(0.296878 -0.00127028 0)
(0.29686 -0.000975511 0)
(0.296845 -0.000679026 0)
(0.296834 -0.000381153 0)
(0.296826 -8.2227e-05 0)
(0.296821 0.000217416 0)
(0.29682 0.000517433 0)
(0.296822 0.000817479 0)
(0.296827 0.00111721 0)
(0.296836 0.00141626 0)
(0.296848 0.0017143 0)
(0.296863 0.00201098 0)
(0.296882 0.00230595 0)
(0.296904 0.00259886 0)
(0.29693 0.00288939 0)
(0.296958 0.00317718 0)
(0.29699 0.00346191 0)
(0.297024 0.00374337 0)
(0.297062 0.00402142 0)
(0.297102 0.00429503 0)
(0.298136 -0.000944255 0)
(0.298126 -0.000722218 0)
(0.298117 -0.000499002 0)
(0.298111 -0.00027484 0)
(0.298107 -4.99659e-05 0)
(0.298104 0.000175379 0)
(0.298104 0.000400953 0)
(0.298105 0.000626508 0)
(0.298108 0.000851799 0)
(0.298114 0.00107658 0)
(0.298121 0.00130059 0)
(0.298131 0.0015236 0)
(0.298142 0.00174536 0)
(0.298155 0.00196563 0)
(0.29817 0.00218416 0)
(0.298187 0.00240071 0)
(0.298205 0.00261505 0)
(0.298226 0.00282702 0)
(0.298248 0.00303655 0)
(0.298272 0.00324303 0)
(0.299086 -0.000654054 0)
(0.299081 -0.000498394 0)
(0.299077 -0.000341961 0)
(0.299074 -0.000184911 0)
(0.299072 -2.74058e-05 0)
(0.299071 0.000130395 0)
(0.299071 0.000288327 0)
(0.299071 0.000446227 0)
(0.299073 0.000603929 0)
(0.299075 0.000761267 0)
(0.299079 0.000918075 0)
(0.299083 0.00107419 0)
(0.299088 0.00122945 0)
(0.299095 0.00138368 0)
(0.299102 0.00153674 0)
(0.299109 0.00168844 0)
(0.299118 0.00183864 0)
(0.299127 0.00198723 0)
(0.299138 0.00213418 0)
(0.299149 0.00227886 0)
(0.299695 -0.000383823 0)
(0.299693 -0.000291961 0)
(0.299692 -0.000199665 0)
(0.299691 -0.000107026 0)
(0.29969 -1.41363e-05 0)
(0.29969 7.89116e-05 0)
(0.29969 0.000172023 0)
(0.29969 0.000265102 0)
(0.29969 0.000358054 0)
(0.299691 0.000450782 0)
(0.299692 0.000543191 0)
(0.299694 0.000635186 0)
(0.299695 0.000726671 0)
(0.299697 0.000817555 0)
(0.299699 0.000907744 0)
(0.299702 0.000997144 0)
(0.299704 0.00108565 0)
(0.299707 0.00117322 0)
(0.299709 0.00125988 0)
(0.299712 0.00134547 0)
(0.299991 -0.000127199 0)
(0.299991 -9.6501e-05 0)
(0.299991 -6.56557e-05 0)
(0.299991 -3.46908e-05 0)
(0.299991 -3.63551e-06 0)
(0.299991 2.74814e-05 0)
(0.299991 5.86311e-05 0)
(0.299991 8.9785e-05 0)
(0.299991 0.000120915 0)
(0.299991 0.000151993 0)
(0.299991 0.000182992 0)
(0.299991 0.000213887 0)
(0.299991 0.000244654 0)
(0.299991 0.000275271 0)
(0.29999 0.000305716 0)
(0.29999 0.000335968 0)
(0.29999 0.000366014 0)
(0.29999 0.000395916 0)
(0.29999 0.000425786 0)
(0.299989 0.000455115 0)
(0.291459 -0.0961634 0)
(0.290245 -0.0998064 0)
(0.289176 -0.10393 0)
(0.288337 -0.108668 0)
(0.287816 -0.114101 0)
(0.28767 -0.120274 0)
(0.287904 -0.127202 0)
(0.288433 -0.134856 0)
(0.289062 -0.143149 0)
(0.289463 -0.151924 0)
(0.289172 -0.16095 0)
(0.2876 -0.169922 0)
(0.284066 -0.17847 0)
(0.277831 -0.186165 0)
(0.268142 -0.192522 0)
(0.25427 -0.197024 0)
(0.235538 -0.19925 0)
(0.211337 -0.198994 0)
(0.181117 -0.195626 0)
(0.144343 -0.185706 0)
(0.284704 -0.070457 0)
(0.282403 -0.0712061 0)
(0.279721 -0.0720112 0)
(0.276667 -0.0728371 0)
(0.273258 -0.0737426 0)
(0.26953 -0.0748032 0)
(0.265545 -0.0761009 0)
(0.261391 -0.0777221 0)
(0.257169 -0.0797499 0)
(0.252985 -0.0822493 0)
(0.248915 -0.0852511 0)
(0.24498 -0.0887347 0)
(0.241106 -0.0926104 0)
(0.237107 -0.0967051 0)
(0.232668 -0.100753 0)
(0.227376 -0.104395 0)
(0.220759 -0.10718 0)
(0.212337 -0.108538 0)
(0.201681 -0.107725 0)
(0.18864 -0.103954 0)
(0.281035 -0.0744206 0)
(0.279643 -0.0755295 0)
(0.278091 -0.0765768 0)
(0.276342 -0.0775624 0)
(0.274342 -0.0784477 0)
(0.272028 -0.0791942 0)
(0.269331 -0.0797696 0)
(0.266185 -0.0801475 0)
(0.262532 -0.0803103 0)
(0.258336 -0.0802507 0)
(0.253584 -0.0799716 0)
(0.248296 -0.079484 0)
(0.242526 -0.0788007 0)
(0.236362 -0.0779273 0)
(0.229916 -0.076851 0)
(0.223315 -0.0755288 0)
(0.216685 -0.0738766 0)
(0.210142 -0.0717586 0)
(0.203795 -0.0689895 0)
(0.197764 -0.0653743 0)
(0.275126 -0.0552236 0)
(0.273101 -0.0555284 0)
(0.271016 -0.0558559 0)
(0.268879 -0.0561779 0)
(0.2667 -0.0564904 0)
(0.26449 -0.0567828 0)
(0.262255 -0.0570354 0)
(0.259998 -0.0572212 0)
(0.25771 -0.0573064 0)
(0.255377 -0.0572509 0)
(0.252974 -0.0570101 0)
(0.250468 -0.0565375 0)
(0.247824 -0.0557872 0)
(0.245006 -0.0547168 0)
(0.241985 -0.0532906 0)
(0.238747 -0.0514811 0)
(0.235296 -0.0492693 0)
(0.231659 -0.0466456 0)
(0.227893 -0.0436097 0)
(0.224082 -0.0401722 0)
(0.277352 -0.0506144 0)
(0.275906 -0.0504006 0)
(0.274336 -0.0501013 0)
(0.272642 -0.0497191 0)
(0.27082 -0.0492488 0)
(0.268869 -0.0486859 0)
(0.266792 -0.0480281 0)
(0.264594 -0.0472734 0)
(0.262284 -0.0464201 0)
(0.259877 -0.0454655 0)
(0.257393 -0.0444054 0)
(0.254855 -0.043233 0)
(0.252288 -0.0419386 0)
(0.249719 -0.0405087 0)
(0.247175 -0.038927 0)
(0.244683 -0.0371744 0)
(0.242266 -0.035231 0)
(0.239947 -0.0330775 0)
(0.237745 -0.0306977 0)
(0.235678 -0.0280809 0)
(0.27712 -0.0404558 0)
(0.275838 -0.0401724 0)
(0.274541 -0.0398434 0)
(0.273231 -0.0394597 0)
(0.271907 -0.0390131 0)
(0.270569 -0.0384942 0)
(0.269216 -0.0378936 0)
(0.267847 -0.0372014 0)
(0.266461 -0.0364079 0)
(0.265055 -0.0355039 0)
(0.263628 -0.034481 0)
(0.262179 -0.0333321 0)
(0.260709 -0.0320516 0)
(0.259221 -0.0306357 0)
(0.25772 -0.0290822 0)
(0.256213 -0.0273909 0)
(0.254713 -0.0255629 0)
(0.253233 -0.0236013 0)
(0.25179 -0.0215103 0)
(0.250402 -0.0192953 0)
(0.279935 -0.0346828 0)
(0.278926 -0.0341646 0)
(0.277878 -0.0335926 0)
(0.276794 -0.0329674 0)
(0.275675 -0.0322875 0)
(0.274526 -0.0315514 0)
(0.273352 -0.0307575 0)
(0.272157 -0.0299044 0)
(0.270949 -0.0289902 0)
(0.269733 -0.0280128 0)
(0.268519 -0.0269697 0)
(0.267313 -0.0258584 0)
(0.266124 -0.024676 0)
(0.264961 -0.0234194 0)
(0.26383 -0.0220858 0)
(0.262741 -0.0206728 0)
(0.261701 -0.0191783 0)
(0.260716 -0.0176013 0)
(0.259794 -0.0159415 0)
(0.258941 -0.0142002 0)
(0.282025 -0.0287584 0)
(0.281248 -0.028264 0)
(0.280466 -0.0277271 0)
(0.279681 -0.0271478 0)
(0.278893 -0.026523 0)
(0.278103 -0.0258495 0)
(0.277311 -0.0251248 0)
(0.276521 -0.0243466 0)
(0.275731 -0.023513 0)
(0.274945 -0.0226222 0)
(0.274164 -0.0216731 0)
(0.27339 -0.0206649 0)
(0.272626 -0.0195974 0)
(0.271875 -0.0184707 0)
(0.271141 -0.0172855 0)
(0.270427 -0.0160432 0)
(0.269739 -0.0147454 0)
(0.269081 -0.0133941 0)
(0.268459 -0.011992 0)
(0.267877 -0.0105419 0)
(0.284727 -0.0242513 0)
(0.284112 -0.0237181 0)
(0.283488 -0.023151 0)
(0.282858 -0.0225507 0)
(0.282223 -0.0219166 0)
(0.281584 -0.0212479 0)
(0.280945 -0.020544 0)
(0.280307 -0.0198047 0)
(0.279674 -0.0190294 0)
(0.279048 -0.0182177 0)
(0.278433 -0.0173693 0)
(0.277831 -0.0164837 0)
(0.277246 -0.015561 0)
(0.276681 -0.0146009 0)
(0.276138 -0.0136036 0)
(0.275622 -0.0125695 0)
(0.275133 -0.0114992 0)
(0.274676 -0.0103935 0)
(0.274254 -0.00925372 0)
(0.273867 -0.0080814 0)
(0.287165 -0.0203888 0)
(0.28671 -0.0199006 0)
(0.286256 -0.0193841 0)
(0.285802 -0.0188412 0)
(0.28535 -0.0182707 0)
(0.284901 -0.0176718 0)
(0.284456 -0.017044 0)
(0.284016 -0.0163869 0)
(0.283581 -0.0157003 0)
(0.283155 -0.014984 0)
(0.282736 -0.0142383 0)
(0.282328 -0.0134632 0)
(0.281932 -0.0126594 0)
(0.281549 -0.0118273 0)
(0.28118 -0.0109679 0)
(0.280829 -0.0100819 0)
(0.280496 -0.00917071 0)
(0.280183 -0.00823545 0)
(0.279893 -0.00727763 0)
(0.279627 -0.00629886 0)
(0.289509 -0.0171277 0)
(0.289157 -0.0166686 0)
(0.288804 -0.0161884 0)
(0.288452 -0.0156881 0)
(0.288102 -0.0151672 0)
(0.287754 -0.0146257 0)
(0.28741 -0.0140634 0)
(0.287071 -0.0134805 0)
(0.286738 -0.0128769 0)
(0.286412 -0.0122529 0)
(0.286095 -0.0116087 0)
(0.285787 -0.0109444 0)
(0.285491 -0.0102605 0)
(0.285208 -0.00955731 0)
(0.284938 -0.00883539 0)
(0.284683 -0.00809534 0)
(0.284444 -0.00733789 0)
(0.284222 -0.00656384 0)
(0.284019 -0.00577415 0)
(0.283835 -0.00496986 0)
(0.29164 -0.0144016 0)
(0.291386 -0.0139943 0)
(0.291133 -0.0135695 0)
(0.290883 -0.0131288 0)
(0.290635 -0.0126719 0)
(0.29039 -0.0121985 0)
(0.290149 -0.0117087 0)
(0.289913 -0.0112024 0)
(0.289682 -0.01068 0)
(0.289457 -0.0101415 0)
(0.289238 -0.0095873 0)
(0.289026 -0.0090177 0)
(0.288823 -0.00843313 0)
(0.288628 -0.0078341 0)
(0.288443 -0.00722116 0)
(0.288268 -0.00659496 0)
(0.288104 -0.00595622 0)
(0.287952 -0.0053057 0)
(0.287812 -0.00464423 0)
(0.287686 -0.00397273 0)
(0.293518 -0.011996 0)
(0.293328 -0.0116357 0)
(0.29314 -0.0112625 0)
(0.292954 -0.0108772 0)
(0.29277 -0.0104796 0)
(0.292588 -0.0100697 0)
(0.29241 -0.00964765 0)
(0.292235 -0.00921361 0)
(0.292065 -0.00876776 0)
(0.2919 -0.00831032 0)
(0.29174 -0.00784153 0)
(0.291586 -0.00736171 0)
(0.291438 -0.00687117 0)
(0.291298 -0.0063703 0)
(0.291165 -0.00585953 0)
(0.29104 -0.0053393 0)
(0.290924 -0.00481013 0)
(0.290817 -0.00427258 0)
(0.29072 -0.00372725 0)
(0.290632 -0.00317476 0)
(0.295173 -0.00993666 0)
(0.295043 -0.00962816 0)
(0.294913 -0.00930915 0)
(0.294786 -0.00898067 0)
(0.29466 -0.00864265 0)
(0.294536 -0.00829503 0)
(0.294415 -0.00793793 0)
(0.294297 -0.00757152 0)
(0.294182 -0.00719595 0)
(0.294071 -0.00681146 0)
(0.293963 -0.00641827 0)
(0.29386 -0.00601666 0)
(0.293761 -0.00560694 0)
(0.293667 -0.00518944 0)
(0.293578 -0.00476454 0)
(0.293494 -0.00433263 0)
(0.293416 -0.00389415 0)
(0.293345 -0.00344956 0)
(0.29328 -0.00299934 0)
(0.293221 -0.00254401 0)
(0.296562 -0.00806654 0)
(0.296471 -0.0078074 0)
(0.296381 -0.00754049 0)
(0.296293 -0.00726645 0)
(0.296206 -0.00698522 0)
(0.29612 -0.00669682 0)
(0.296037 -0.00640138 0)
(0.295955 -0.00609904 0)
(0.295876 -0.00578996 0)
(0.2958 -0.00547432 0)
(0.295726 -0.00515232 0)
(0.295655 -0.00482418 0)
(0.295587 -0.00449013 0)
(0.295523 -0.00415044 0)
(0.295463 -0.00380538 0)
(0.295407 -0.00345526 0)
(0.295355 -0.00310039 0)
(0.295307 -0.00274111 0)
(0.295263 -0.00237779 0)
(0.295225 -0.00201079 0)
(0.297724 -0.00640248 0)
(0.297668 -0.00619271 0)
(0.297612 -0.00597683 0)
(0.297557 -0.00575559 0)
(0.297503 -0.00552892 0)
(0.29745 -0.00529682 0)
(0.297398 -0.0050594 0)
(0.297348 -0.00481677 0)
(0.297299 -0.00456908 0)
(0.297252 -0.00431647 0)
(0.297206 -0.0040591 0)
(0.297163 -0.00379716 0)
(0.297121 -0.00353083 0)
(0.297082 -0.00326032 0)
(0.297045 -0.00298586 0)
(0.29701 -0.00270769 0)
(0.296978 -0.00242605 0)
(0.296949 -0.0021412 0)
(0.296922 -0.00185343 0)
(0.296898 -0.00156303 0)
(0.298635 -0.00484827 0)
(0.298602 -0.00468635 0)
(0.298568 -0.00452008 0)
(0.298536 -0.00434998 0)
(0.298503 -0.00417599 0)
(0.298472 -0.0039981 0)
(0.298441 -0.00381641 0)
(0.298412 -0.00363102 0)
(0.298383 -0.00344204 0)
(0.298355 -0.00324957 0)
(0.298328 -0.00305373 0)
(0.298302 -0.00285467 0)
(0.298278 -0.00265252 0)
(0.298255 -0.00244743 0)
(0.298233 -0.00223957 0)
(0.298213 -0.0020291 0)
(0.298194 -0.0018162 0)
(0.298177 -0.00160107 0)
(0.298162 -0.0013839 0)
(0.298148 -0.00116489 0)
(0.299321 -0.00340523 0)
(0.299305 -0.00329053 0)
(0.29929 -0.00317267 0)
(0.299274 -0.00305219 0)
(0.299259 -0.00292905 0)
(0.299244 -0.00280323 0)
(0.29923 -0.00267481 0)
(0.299216 -0.00254386 0)
(0.299202 -0.00241046 0)
(0.299189 -0.00227469 0)
(0.299177 -0.00213663 0)
(0.299165 -0.00199637 0)
(0.299153 -0.00185403 0)
(0.299142 -0.0017097 0)
(0.299132 -0.0015635 0)
(0.299122 -0.00141555 0)
(0.299114 -0.00126597 0)
(0.299106 -0.00111489 0)
(0.299098 -0.00096245 0)
(0.299092 -0.00080879 0)
(0.299771 -0.00201424 0)
(0.299767 -0.00194573 0)
(0.299762 -0.00187554 0)
(0.299757 -0.00180387 0)
(0.299752 -0.00173065 0)
(0.299748 -0.00165587 0)
(0.299743 -0.00157959 0)
(0.299738 -0.00150185 0)
(0.299734 -0.0014227 0)
(0.299729 -0.00134219 0)
(0.299725 -0.00126037 0)
(0.299721 -0.00117728 0)
(0.299717 -0.001093 0)
(0.299714 -0.00100758 0)
(0.29971 -0.000921099 0)
(0.299707 -0.000833613 0)
(0.299704 -0.000745199 0)
(0.299701 -0.000655933 0)
(0.299699 -0.000565894 0)
(0.299697 -0.000475163 0)
(0.299991 -0.000675465 0)
(0.299991 -0.000652028 0)
(0.299991 -0.000627871 0)
(0.299992 -0.000603426 0)
(0.299992 -0.000578597 0)
(0.299992 -0.00055332 0)
(0.299992 -0.000527594 0)
(0.299992 -0.000501427 0)
(0.299992 -0.000474827 0)
(0.299992 -0.000447802 0)
(0.299992 -0.000420364 0)
(0.299992 -0.000392526 0)
(0.299992 -0.000364306 0)
(0.299992 -0.000335721 0)
(0.299992 -0.00030679 0)
(0.299992 -0.000277533 0)
(0.299992 -0.000247975 0)
(0.299992 -0.000218137 0)
(0.299992 -0.000188045 0)
(0.299991 -0.000157723 0)
(0.0685954 -0.0754767 0)
(0.0499847 -0.0606501 0)
(0.0375928 -0.0477859 0)
(0.028777 -0.0375755 0)
(0.0222028 -0.0293248 0)
(0.0171415 -0.0225606 0)
(0.0131591 -0.0170295 0)
(0.00997848 -0.012546 0)
(0.00741289 -0.00895259 0)
(0.0053315 -0.00611588 0)
(0.00363967 -0.00392355 0)
(0.00226786 -0.00227931 0)
(0.00116504 -0.00109883 0)
(0.000294975 -0.000306676 0)
(-0.000365718 0.000166424 0)
(-0.00082808 0.000387228 0)
(-0.00109007 0.000419826 0)
(-0.00113616 0.000322358 0)
(-0.000936692 0.000164938 0)
(-0.000439137 4.0963e-05 0)
(0.103966 -0.061021 0)
(0.0883039 -0.0551033 0)
(0.0749289 -0.0485148 0)
(0.063442 -0.0421801 0)
(0.0535177 -0.0362301 0)