x,y,z,U_0,U_1,U_2
0,0,0,0.299982,-0.00106561,2.48558e-14
0,0.1,0,0.299985,-0.000847455,1.97672e-14
0,0.2,0,0.299989,-0.000629299,1.46786e-14
0,0.3,0,0.299993,-0.000411142,9.59003e-15
0,0.4,0,0.299997,-0.000192985,4.50144e-15
0,0.5,0,0.3,-1.07935e-19,9.76183e-31
0,0.6,0,0.3,-1.29521e-19,1.17142e-30
0,0.7,0,0.3,-1.51108e-19,1.36666e-30
0,0.8,0,0.3,-1.72695e-19,1.56189e-30
0,0.9,0,0.3,-1.94282e-19,1.75713e-30
0,1,0,0.3,-2.15869e-19,1.95237e-30
0,1.1,0,0.3,-2.37456e-19,2.1476e-30
0,1.2,0,0.3,-2.59043e-19,2.34284e-30
0,1.3,0,0.3,-2.8063e-19,2.53808e-30
0,1.4,0,0.3,-3.02217e-19,2.73331e-30
0,1.5,0,0.3,-3.11045e-19,3.90537e-30
0,1.6,0,0.3,-3.31781e-19,4.16573e-30
0,1.7,0,0.3,-3.52517e-19,4.42609e-30
0,1.8,0,0.3,-3.73254e-19,4.68644e-30
0,1.9,0,0.3,-3.9399e-19,4.9468e-30
0,2,0,0.3,-3.94137e-19,7.81034e-30
0,2.1,0,0.3,-4.13844e-19,8.20086e-30
0,2.2,0,0.3,-4.33551e-19,8.59138e-30
0,2.3,0,0.3,-4.53258e-19,8.9819e-30
0,2.4,0,0.3,-4.72964e-19,9.37241e-30
0,2.5,0,0.3,-4.60648e-19,1.30179e-29
0,2.6,0,0.3,-4.79074e-19,1.35386e-29
0,2.7,0,0.3,-4.975e-19,1.40593e-29
0,2.8,0,0.3,-5.15926e-19,1.458e-29
0,2.9,0,0.3,-5.34351e-19,1.51008e-29
0,3,0,0.3,-5.05966e-19,1.95268e-29
0,3.1,0,0.3,-5.22832e-19,2.01777e-29
0,3.2,0,0.3,-5.39697e-19,2.08286e-29
0,3.3,0,0.3,-5.56563e-19,2.14795e-29
0,3.4,0,0.3,-5.73428e-19,2.21304e-29
0,3.5,0,0.3,-5.2655e-19,2.96157e-29
0,3.6,0,0.3,-5.41594e-19,3.04619e-29
0,3.7,0,0.3,-5.56638e-19,3.1308e-29
0,3.8,0,0.3,-5.71683e-19,3.21542e-29
0,3.9,0,0.3,-5.86727e-19,3.30004e-29
0,4,0,0.3,-5.19516e-19,3.90537e-29
0,4.1,0,0.3,-5.32504e-19,4.003e-29
0,4.2,0,0.3,-5.45492e-19,4.10064e-29
0,4.3,0,0.3,-5.5848e-19,4.19827e-29
0,4.4,0,0.3,-4.72583e-19,4.5823e-29
0,4.5,0,0.3,-4.83323e-19,4.68644e-29
0,4.6,0,0.3,-4.94064e-19,4.79059e-29
0,4.7,0,0.3,-5.04804e-19,4.89473e-29
0,4.8,0,0.3,-5.15545e-19,4.99887e-29
0,4.9,0,0.3,-4.08633e-19,5.42195e-29
0,5,0,0.3,-4.16972e-19,5.53261e-29
0,5.1,0,0.3,-4.25312e-19,5.64326e-29
0,5.2,0,0.3,-4.33651e-19,5.75391e-29
0,5.3,0,0.3,-4.41991e-19,5.86456e-29
0,5.4,0,0.3,-3.13558e-19,6.67818e-29
0,5.5,0,0.3,-3.19365e-19,6.80185e-29
0,5.6,0,0.3,-3.25172e-19,6.92552e-29
0,5.7,0,0.3,-3.30978e-19,7.04919e-29
0,5.8,0,0.3,-3.36785e-19,7.17286e-29
0,5.9,0,0.3,-1.86751e-19,7.48855e-29
0,6,0,0.3,-1.89916e-19,7.61547e-29
0,6.1,0,0.3,-1.93081e-19,7.7424e-29
0,6.2,0,0.3,-1.96247e-19,7.86932e-29
0,6.3,0,0.3,-1.99412e-19,7.99624e-29
0,6.4,0,0.3,-2.81418e-20,7.53997e-29
0,6.5,0,0.3,-2.85815e-20,7.65778e-29
0,6.6,0,0.3,-2.90213e-20,7.77559e-29
0,6.7,0,0.3,-2.9461e-20,7.8934e-29
0,6.8,0,0.3,-2.99007e-20,8.01122e-29
0,6.9,0,0.3,1.60078e-19,7.90447e-29
0,7,0,0.3,1.62398e-19,8.01903e-29
0,7.1,0,0.3,1.64718e-19,8.13358e-29
0,7.2,0,0.3,1.67038e-19,8.24814e-29
0,7.3,0,0.3,1.69358e-19,8.3627e-29
0,7.4,0,0.3,3.74434e-19,8.66992e-29
0,7.5,0,0.3,3.79494e-19,8.78708e-29
0,7.6,0,0.3,3.84554e-19,8.90424e-29
0,7.7,0,0.3,3.89614e-19,9.0214e-29
0,7.8,0,0.3,3.94674e-19,9.13857e-29
0,7.9,0,0.3,6.11128e-19,9.76993e-29
0,8,0,0.3,6.18864e-19,9.8936e-29
0,8.1,0,0.3,6.266e-19,1.00173e-28
0,8.2,0,0.3,6.34336e-19,1.01409e-28
0,8.3,0,0.3,6.42071e-19,1.02646e-28
0,8.4,0,0.3,8.64845e-19,1.03883e-28
0,8.5,0,0.3,8.75141e-19,1.0512e-28
0,8.6,0,0.3,8.85437e-19,1.06356e-28
0,8.7,0,0.3,8.95733e-19,1.07593e-28
0,8.8,0,0.3,1.11787e-18,9.73739e-29
0,8.9,0,0.3,1.13057e-18,9.84804e-29
0,9,0,0.3,1.14327e-18,9.95869e-29
0,9.1,0,0.3,1.15598e-18,1.00693e-28
0,9.2,0,0.3,1.16868e-18,1.018e-28
0,9.3,0,0.3,1.38712e-18,9.07998e-29
0,9.4,0,0.3,1.40204e-18,9.17762e-29
0,9.5,0,0.3,1.41695e-18,9.27525e-29
0,9.6,0,0.3,1.43187e-18,9.37289e-29
0,9.7,0,0.3,1.44679e-18,9.47052e-29
0,9.8,0,0.3,1.65787e-18,8.2924e-29
0,9.9,0,0.3,1.67478e-18,8.37702e-29
0,10,0,0.3,1.6917e-18,8.46163e-29
0,10.1,0,0.3,1.70862e-18,8.54625e-29
0,10.2,0,0.3,1.72554e-18,8.63087e-29
0,10.3,0,0.3,1.9239e-18,8.04506e-29
0,10.4,0,0.3,1.94258e-18,8.12317e-29
0,10.5,0,0.3,1.96126e-18,8.20128e-29
0,10.6,0,0.3,1.97994e-18,8.27938e-29
0,10.7,0,0.3,1.99862e-18,8.35749e-29
0,10.8,0,0.3,2.17691e-18,7.73322e-29
0,10.9,0,0.3,2.19707e-18,7.80482e-29
0,11,0,0.3,2.21723e-18,7.87643e-29
0,11.1,0,0.3,2.23738e-18,7.94803e-29
0,11.2,0,0.3,2.25754e-18,8.01963e-29
0,11.3,0,0.3,2.41009e-18,5.87985e-29
0,11.4,0,0.3,2.43141e-18,5.93188e-29
0,11.5,0,0.3,2.45274e-18,5.98392e-29
0,11.6,0,0.3,2.47407e-18,6.03595e-29
0,11.7,0,0.3,2.4954e-18,6.08799e-29
0,11.8,0,0.3,2.6207e-18,3.07156e-29
0,11.9,0,0.3,2.64291e-18,3.09759e-29
0,12,0,0.3,2.66512e-18,3.12362e-29
0,12.1,0,0.3,2.68733e-18,3.14965e-29
0,12.2,0,0.3,2.70954e-18,3.17568e-29
0,12.3,0,0.3,0.000200137,4.50144e-15
0,12.4,0,0.3,0.000426378,9.59003e-15
0,12.5,0,0.300001,0.00065262,1.46786e-14
0,12.6,0,0.300001,0.000878861,1.97672e-14
0,12.7,0,0.300001,0.0011051,2.48558e-14
0.1,0,0,0.299982,-0.00171554,2.98846e-14
0.1,0.1,0,0.299979,-0.00170116,2.72581e-14
0.1,0.2,0,0.299983,-0.001483,2.21696e-14
0.1,0.3,0,0.299987,-0.00126484,1.7081e-14
0.1,0.4,0,0.299991,-0.00104669,1.19924e-14
0.1,0.5,0,0.299993,-0.000851798,7.51824e-15
0.1,0.6,0,0.299989,-0.000829124,7.49878e-15
0.1,0.7,0,0.299989,-0.000829124,7.49878e-15
0.1,0.8,0,0.299989,-0.000829124,7.49878e-15
0.1,0.9,0,0.299989,-0.000829124,7.49878e-15
0.1,1,0,0.299989,-0.000829124,7.49878e-15
0.1,1.1,0,0.299989,-0.000829124,7.49878e-15
0.1,1.2,0,0.299989,-0.000829124,7.49878e-15
0.1,1.3,0,0.299989,-0.000829124,7.49878e-15
0.1,1.4,0,0.299987,-0.00081832,8.32595e-15
0.1,1.5,0,0.299983,-0.000796454,1e-14
0.1,1.6,0,0.299983,-0.000796454,1e-14
0.1,1.7,0,0.299983,-0.000796454,1e-14
0.1,1.8,0,0.299983,-0.000796454,1e-14
0.1,1.9,0,0.29998,-0.000778708,1.22438e-14
0.1,2,0,0.299977,-0.000756914,1.49992e-14
0.1,2.1,0,0.299977,-0.000756914,1.49992e-14
0.1,2.2,0,0.299977,-0.000756914,1.49992e-14
0.1,2.3,0,0.299977,-0.000756914,1.49992e-14
0.1,2.4,0,0.299973,-0.000729021,1.78343e-14
0.1,2.5,0,0.29997,-0.000707715,2e-14
0.1,2.6,0,0.29997,-0.000707715,2e-14
0.1,2.7,0,0.29997,-0.000707715,2e-14
0.1,2.8,0,0.29997,-0.000707715,2e-14
0.1,2.9,0,0.299966,-0.000666659,2.34252e-14
0.1,3,0,0.299964,-0.000647782,2.5e-14
0.1,3.1,0,0.299964,-0.000647782,2.5e-14
0.1,3.2,0,0.299964,-0.000647782,2.5e-14
0.1,3.3,0,0.299964,-0.000647782,2.5e-14
0.1,3.4,0,0.29996,-0.000591601,3.10236e-14
0.1,3.5,0,0.299959,-0.000577831,3.25e-14
0.1,3.6,0,0.299959,-0.000577831,3.25e-14
0.1,3.7,0,0.299959,-0.000577831,3.25e-14
0.1,3.8,0,0.299959,-0.000577831,3.25e-14
0.1,3.9,0,0.299956,-0.000505067,3.71063e-14
0.1,4,0,0.299955,-0.000498848,3.75e-14
0.1,4.1,0,0.299955,-0.000498848,3.75e-14
0.1,4.2,0,0.299955,-0.000498848,3.75e-14
0.1,4.3,0,0.299955,-0.000497489,3.75394e-14
0.1,4.4,0,0.299952,-0.000412529,4e-14
0.1,4.5,0,0.299952,-0.000412529,4e-14
0.1,4.6,0,0.299952,-0.000412529,4e-14
0.1,4.7,0,0.299952,-0.000412529,4e-14
0.1,4.8,0,0.299951,-0.000400184,4.03346e-14
0.1,4.9,0,0.299948,-0.000320307,4.25e-14
0.1,5,0,0.299948,-0.000320307,4.25e-14
0.1,5.1,0,0.299948,-0.000320307,4.25e-14
0.1,5.2,0,0.299948,-0.000320307,4.25e-14
0.1,5.3,0,0.299947,-0.000295795,4.37598e-14
0.1,5.4,0,0.299946,-0.000223025,4.75e-14
0.1,5.5,0,0.299946,-0.000223025,4.75e-14
0.1,5.6,0,0.299946,-0.000223025,4.75e-14
0.1,5.7,0,0.299946,-0.000223025,4.75e-14
0.1,5.8,0,0.299945,-0.00018548,4.79626e-14
0.1,5.9,0,0.299944,-0.000121574,4.875e-14
0.1,6,0,0.299944,-0.000121574,4.875e-14
0.1,6.1,0,0.299944,-0.000121574,4.875e-14
0.1,6.2,0,0.299944,-0.000121574,4.875e-14
0.1,6.3,0,0.299943,-7.04678e-05,4.70413e-14
0.1,6.4,0,0.299943,-1.68889e-05,4.525e-14
0.1,6.5,0,0.299943,-1.68889e-05,4.525e-14
0.1,6.6,0,0.299943,-1.68889e-05,4.525e-14
0.1,6.7,0,0.299943,-1.68889e-05,4.525e-14
0.1,6.8,0,0.299943,4.73764e-05,4.44921e-14
0.1,6.9,0,0.299943,8.91071e-05,4.4e-14
0.1,7,0,0.299943,8.91071e-05,4.4e-14
0.1,7.1,0,0.299943,8.91071e-05,4.4e-14
0.1,7.2,0,0.299943,8.91071e-05,4.4e-14
0.1,7.3,0,0.299944,0.000165342,4.47244e-14
0.1,7.4,0,0.299945,0.000194345,4.5e-14
0.1,7.5,0,0.299945,0.000194345,4.5e-14
0.1,7.6,0,0.299945,0.000194345,4.5e-14
0.1,7.7,0,0.299945,0.000194345,4.5e-14
0.1,7.8,0,0.299946,0.000280936,4.71063e-14
0.1,7.9,0,0.299947,0.000297122,4.75e-14
0.1,8,0,0.299947,0.000297122,4.75e-14
0.1,8.1,0,0.299947,0.000297122,4.75e-14
0.1,8.2,0,0.299947,0.000297122,4.75e-14
0.1,8.3,0,0.29995,0.000391576,4.75e-14
0.1,8.4,0,0.29995,0.000395447,4.75e-14
0.1,8.5,0,0.29995,0.000395447,4.75e-14
0.1,8.6,0,0.29995,0.000395447,4.75e-14
0.1,8.7,0,0.29995,0.000400543,4.72244e-14
0.1,8.8,0,0.299953,0.000487906,4.25e-14
0.1,8.9,0,0.299953,0.000487906,4.25e-14
0.1,9,0,0.299953,0.000487906,4.25e-14
0.1,9.1,0,0.299953,0.000487906,4.25e-14
0.1,9.2,0,0.299954,0.000502625,4.16339e-14
0.1,9.3,0,0.299957,0.000572877,3.75e-14
0.1,9.4,0,0.299957,0.000572877,3.75e-14
0.1,9.5,0,0.299957,0.000572877,3.75e-14
0.1,9.6,0,0.299957,0.000572877,3.75e-14
0.1,9.7,0,0.299959,0.000595276,3.60433e-14
0.1,9.8,0,0.299962,0.00064976,3.25e-14
0.1,9.9,0,0.299962,0.00064976,3.25e-14
0.1,10,0,0.299962,0.00064976,3.25e-14
0.1,10.1,0,0.299962,0.00064976,3.25e-14
0.1,10.2,0,0.299964,0.000677464,3.14764e-14
0.1,10.3,0,0.299967,0.000717423,3e-14
0.1,10.4,0,0.299967,0.000717423,3e-14
0.1,10.5,0,0.299967,0.000717423,3e-14
0.1,10.6,0,0.299967,0.000717423,3e-14
0.1,10.7,0,0.299971,0.00074737,2.86822e-14
0.1,10.8,0,0.299974,0.000774188,2.75021e-14
0.1,10.9,0,0.299974,0.000774188,2.75021e-14
0.1,11,0,0.299974,0.000774188,2.75021e-14
0.1,11.1,0,0.299974,0.000774188,2.75021e-14
0.1,11.2,0,0.29998,0.000803243,2.26489e-14
0.1,11.3,0,0.299983,0.000819187,1.99856e-14
0.1,11.4,0,0.299983,0.000819187,1.99856e-14
0.1,11.5,0,0.299983,0.000819187,1.99856e-14
0.1,11.6,0,0.299983,0.000819187,1.99856e-14
0.1,11.7,0,0.299989,0.000845036,1.23572e-14
0.1,11.8,0,0.299991,0.000853031,9.99785e-15
0.1,11.9,0,0.299991,0.000853031,9.99785e-15
0.1,12,0,0.299991,0.000853031,9.99785e-15
0.1,12.1,0,0.299991,0.000853031,9.99785e-15
0.1,12.2,0,0.299996,0.000872006,5.5449e-15
0.1,12.3,0,0.299996,0.00107536,9.48381e-15
0.1,12.4,0,0.299997,0.0013016,1.45724e-14
0.1,12.5,0,0.299997,0.00152784,1.9661e-14
0.1,12.6,0,0.299997,0.00175408,2.47496e-14
0.1,12.7,0,0.299999,0.00177236,2.48846e-14
0.2,0,0,0.299983,-0.00236548,3.49135e-14
0.2,0.1,0,0.29998,-0.00235655,3.2353e-14
0.2,0.2,0,0.299977,-0.0023367,2.96605e-14
0.2,0.3,0,0.299981,-0.00211855,2.45719e-14
0.2,0.4,0,0.299985,-0.00190039,1.94833e-14
0.2,0.5,0,0.299987,-0.00170663,1.50391e-14
0.2,0.6,0,0.299982,-0.00168032,1.50165e-14
0.2,0.7,0,0.299977,-0.00165825,1.49976e-14
0.2,0.8,0,0.299977,-0.00165825,1.49976e-14
0.2,0.9,0,0.299977,-0.00165825,1.49976e-14
0.2,1,0,0.299977,-0.00165825,1.49976e-14
0.2,1.1,0,0.299977,-0.00165825,1.49976e-14
0.2,1.2,0,0.299977,-0.00165825,1.49976e-14
0.2,1.3,0,0.299975,-0.00164822,1.57656e-14
0.2,1.4,0,0.29997,-0.00161477,1.8326e-14
0.2,1.5,0,0.299966,-0.00159291,2e-14
0.2,1.6,0,0.299966,-0.00159291,2e-14
0.2,1.7,0,0.299966,-0.00159291,2e-14
0.2,1.8,0,0.299964,-0.0015761,2.21257e-14
0.2,1.9,0,0.299957,-0.00153562,2.7243e-14
0.2,2,0,0.299953,-0.00151383,2.99985e-14
0.2,2.1,0,0.299953,-0.00151383,2.99985e-14
0.2,2.2,0,0.299953,-0.00151383,2.99985e-14
0.2,2.3,0,0.29995,-0.0014871,3.27154e-14
0.2,2.4,0,0.299943,-0.00143674,3.78343e-14
0.2,2.5,0,0.29994,-0.00141543,4e-14
0.2,2.6,0,0.29994,-0.00141543,4e-14
0.2,2.7,0,0.29994,-0.00141543,4e-14
0.2,2.8,0,0.299936,-0.00137579,4.33071e-14
0.2,2.9,0,0.29993,-0.00131444,4.84252e-14
0.2,3,0,0.299928,-0.00129556,5e-14
0.2,3.1,0,0.299928,-0.00129556,5e-14
0.2,3.2,0,0.299928,-0.00129556,5e-14
0.2,3.3,0,0.299924,-0.00124104,5.58465e-14
0.2,3.4,0,0.299919,-0.00116943,6.35236e-14
0.2,3.5,0,0.299918,-0.00115566,6.5e-14
0.2,3.6,0,0.299918,-0.00115566,6.5e-14
0.2,3.7,0,0.299918,-0.00115566,6.5e-14
0.2,3.8,0,0.299915,-0.00108476,6.94882e-14
0.2,3.9,0,0.299911,-0.00100392,7.46063e-14
0.2,4,0,0.29991,-0.000997696,7.5e-14
0.2,4.1,0,0.29991,-0.000997696,7.5e-14
0.2,4.2,0,0.29991,-0.000997696,7.5e-14
0.2,4.3,0,0.299907,-0.000910017,7.75394e-14
0.2,4.4,0,0.299903,-0.000825058,8e-14
0.2,4.5,0,0.299903,-0.000825058,8e-14
0.2,4.6,0,0.299903,-0.000825058,8e-14
0.2,4.7,0,0.299903,-0.000814891,8.02756e-14
0.2,4.8,0,0.299899,-0.000720491,8.28346e-14
0.2,4.9,0,0.299896,-0.000640614,8.5e-14
0.2,5,0,0.299896,-0.000640614,8.5e-14
0.2,5.1,0,0.299896,-0.000640614,8.5e-14
0.2,5.2,0,0.299896,-0.0006184,8.61417e-14
0.2,5.3,0,0.299893,-0.00051882,9.12598e-14
0.2,5.4,0,0.299891,-0.00044605,9.5e-14
0.2,5.5,0,0.299891,-0.00044605,9.5e-14
0.2,5.6,0,0.299891,-0.00044605,9.5e-14
0.2,5.7,0,0.29989,-0.000410902,9.54331e-14
0.2,5.8,0,0.299889,-0.000307054,9.67126e-14
0.2,5.9,0,0.299887,-0.000243147,9.75e-14
0.2,6,0,0.299887,-0.000243147,9.75e-14
0.2,6.1,0,0.299887,-0.000243147,9.75e-14
0.2,6.2,0,0.299887,-0.000194514,9.5874e-14
0.2,6.3,0,0.299886,-8.73567e-05,9.22913e-14
0.2,6.4,0,0.299886,-3.37778e-05,9.05e-14
0.2,6.5,0,0.299886,-3.37778e-05,9.05e-14
0.2,6.6,0,0.299886,-3.37778e-05,9.05e-14
0.2,6.7,0,0.299886,2.79836e-05,8.97717e-14
0.2,6.8,0,0.299886,0.000136483,8.84921e-14
0.2,6.9,0,0.299886,0.000178214,8.8e-14
0.2,7,0,0.299886,0.000178214,8.8e-14
0.2,7.1,0,0.299886,0.000178214,8.8e-14
0.2,7.2,0,0.299887,0.000251963,8.87008e-14
0.2,7.3,0,0.299889,0.000359687,8.97244e-14
0.2,7.4,0,0.299889,0.00038869,9e-14
0.2,7.5,0,0.299889,0.00038869,9e-14
0.2,7.6,0,0.299889,0.00038869,9e-14
0.2,7.7,0,0.299891,0.000472853,9.20472e-14
0.2,7.8,0,0.299893,0.000578058,9.46063e-14
0.2,7.9,0,0.299894,0.000594243,9.5e-14
0.2,8,0,0.299894,0.000594243,9.5e-14
0.2,8.1,0,0.299894,0.000594243,9.5e-14
0.2,8.2,0,0.299897,0.000686375,9.5e-14
0.2,8.3,0,0.2999,0.000787023,9.5e-14
0.2,8.4,0,0.2999,0.000790894,9.5e-14
0.2,8.5,0,0.2999,0.000790894,9.5e-14
0.2,8.6,0,0.2999,0.000793806,9.48425e-14
0.2,8.7,0,0.299903,0.000888449,8.97244e-14
0.2,8.8,0,0.299906,0.000975812,8.5e-14
0.2,8.9,0,0.299906,0.000975812,8.5e-14
0.2,9,0,0.299906,0.000975812,8.5e-14
0.2,9.1,0,0.299907,0.000988524,8.4252e-14
0.2,9.2,0,0.299911,0.0010755,7.91339e-14
0.2,9.3,0,0.299915,0.00114575,7.5e-14
0.2,9.4,0,0.299915,0.00114575,7.5e-14
0.2,9.5,0,0.299915,0.00114575,7.5e-14
0.2,9.6,0,0.299916,0.00116634,7.36614e-14
0.2,9.7,0,0.299921,0.00124504,6.85433e-14
0.2,9.8,0,0.299924,0.00129952,6.5e-14
0.2,9.9,0,0.299924,0.00129952,6.5e-14
0.2,10,0,0.299924,0.00129952,6.5e-14
0.2,10.1,0,0.299926,0.00132563,6.40354e-14
0.2,10.2,0,0.299932,0.00139489,6.14764e-14
0.2,10.3,0,0.299935,0.00143485,6e-14
0.2,10.4,0,0.299935,0.00143485,6e-14
0.2,10.5,0,0.299935,0.00143485,6e-14
0.2,10.6,0,0.299938,0.00146345,5.87412e-14
0.2,10.7,0,0.299945,0.00152156,5.61843e-14
0.2,10.8,0,0.299949,0.00154838,5.50042e-14
0.2,10.9,0,0.299949,0.00154838,5.50042e-14
0.2,11,0,0.299949,0.00154838,5.50042e-14
0.2,11.1,0,0.299954,0.00157637,5.03286e-14
0.2,11.2,0,0.299963,0.00162243,4.26345e-14
0.2,11.3,0,0.299966,0.00163837,3.99712e-14
0.2,11.4,0,0.299966,0.00163837,3.99712e-14
0.2,11.5,0,0.299966,0.00163837,3.99712e-14
0.2,11.6,0,0.299971,0.00166342,3.25787e-14
0.2,11.7,0,0.299979,0.00169807,2.2355e-14
0.2,11.8,0,0.299981,0.00170606,1.99957e-14
0.2,11.9,0,0.299981,0.00170606,1.99957e-14
0.2,12,0,0.299981,0.00170606,1.99957e-14
0.2,12.1,0,0.299986,0.00172453,1.5662e-14
0.2,12.2,0,0.299992,0.00174655,1.04934e-14
0.2,12.3,0,0.299993,0.00195058,1.44662e-14
0.2,12.4,0,0.299993,0.00217682,1.95548e-14
0.2,12.5,0,0.299993,0.00240306,2.46433e-14
0.2,12.6,0,0.299996,0.00242645,2.49003e-14
0.2,12.7,0,0.299998,0.00243961,2.49135e-14
0.3,0,0,0.299983,-0.00301541,3.99423e-14
0.3,0.1,0,0.29998,-0.00300649,3.73819e-14
0.3,0.2,0,0.299977,-0.00299757,3.48214e-14
0.3,0.3,0,0.299975,-0.00297225,3.20629e-14
0.3,0.4,0,0.299978,-0.00275409,2.69743e-14
0.3,0.5,0,0.299981,-0.00256147,2.25599e-14
0.3,0.6,0,0.299976,-0.00253515,2.25373e-14
0.3,0.7,0,0.29997,-0.00250883,2.25148e-14
0.3,0.8,0,0.299966,-0.00248737,2.24963e-14
0.3,0.9,0,0.299966,-0.00248737,2.24963e-14
0.3,1,0,0.299966,-0.00248737,2.24963e-14
0.3,1.1,0,0.299966,-0.00248737,2.24963e-14
0.3,1.2,0,0.299964,-0.00247811,2.32053e-14
0.3,1.3,0,0.299959,-0.00244467,2.57656e-14
0.3,1.4,0,0.299953,-0.00241123,2.8326e-14
0.3,1.5,0,0.29995,-0.00238936,3e-14
0.3,1.6,0,0.29995,-0.00238936,3e-14
0.3,1.7,0,0.299947,-0.00237348,3.20076e-14
0.3,1.8,0,0.29994,-0.00233301,3.71249e-14
0.3,1.9,0,0.299934,-0.00229253,4.22422e-14
0.3,2,0,0.29993,-0.00227074,4.49977e-14
0.3,2.1,0,0.29993,-0.00227074,4.49977e-14
0.3,2.2,0,0.299927,-0.00224517,4.75965e-14
0.3,2.3,0,0.29992,-0.00219481,5.27154e-14
0.3,2.4,0,0.299913,-0.00214445,5.78343e-14
0.3,2.5,0,0.29991,-0.00212314,6e-14
0.3,2.6,0,0.29991,-0.00212314,6e-14
0.3,2.7,0,0.299906,-0.00208492,6.3189e-14
0.3,2.8,0,0.2999,-0.00202357,6.83071e-14
0.3,2.9,0,0.299894,-0.00196222,7.34252e-14
0.3,3,0,0.299892,-0.00194335,7.5e-14
0.3,3.1,0,0.299892,-0.00194335,7.5e-14
0.3,3.2,0,0.299888,-0.00189047,8.06693e-14
0.3,3.3,0,0.299884,-0.00181887,8.83465e-14
0.3,3.4,0,0.299879,-0.00174726,9.60236e-14
0.3,3.5,0,0.299878,-0.00173349,9.75e-14
0.3,3.6,0,0.299878,-0.00173349,9.75e-14
0.3,3.7,0,0.299874,-0.00166446,1.0187e-13
0.3,3.8,0,0.29987,-0.00158361,1.06988e-13
0.3,3.9,0,0.299866,-0.00150276,1.12106e-13
0.3,4,0,0.299866,-0.00149654,1.125e-13
0.3,4.1,0,0.299866,-0.00149654,1.125e-13
0.3,4.2,0,0.299862,-0.0014109,1.1498e-13
0.3,4.3,0,0.299858,-0.00132255,1.17539e-13
0.3,4.4,0,0.299855,-0.00123759,1.2e-13
0.3,4.5,0,0.299855,-0.00123759,1.2e-13
0.3,4.6,0,0.299854,-0.0012296,1.20217e-13
0.3,4.7,0,0.299851,-0.0011352,1.22776e-13
0.3,4.8,0,0.299847,-0.0010408,1.25335e-13
0.3,4.9,0,0.299844,-0.000960921,1.275e-13
0.3,5,0,0.299844,-0.000960921,1.275e-13
0.3,5.1,0,0.299844,-0.000941005,1.28524e-13
0.3,5.2,0,0.299841,-0.000841425,1.33642e-13
0.3,5.3,0,0.299839,-0.000741845,1.3876e-13
0.3,5.4,0,0.299837,-0.000669075,1.425e-13
0.3,5.5,0,0.299837,-0.000669075,1.425e-13
0.3,5.6,0,0.299836,-0.000636323,1.42904e-13
0.3,5.7,0,0.299834,-0.000532475,1.44183e-13
0.3,5.8,0,0.299832,-0.000428628,1.45463e-13
0.3,5.9,0,0.299831,-0.000364721,1.4625e-13
0.3,6,0,0.299831,-0.000364721,1.4625e-13
0.3,6.1,0,0.299831,-0.000318561,1.44707e-13
0.3,6.2,0,0.29983,-0.000211403,1.41124e-13
0.3,6.3,0,0.299829,-0.000104246,1.37541e-13
0.3,6.4,0,0.299829,-5.06667e-05,1.3575e-13
0.3,6.5,0,0.299829,-5.06667e-05,1.3575e-13
0.3,6.6,0,0.299829,8.59091e-06,1.35051e-13
0.3,6.7,0,0.299829,0.000117091,1.33772e-13
0.3,6.8,0,0.299829,0.000225591,1.32492e-13
0.3,6.9,0,0.29983,0.000267321,1.32e-13
0.3,7,0,0.29983,0.000267321,1.32e-13
0.3,7.1,0,0.299831,0.000338585,1.32677e-13
0.3,7.2,0,0.299832,0.000446308,1.33701e-13
0.3,7.3,0,0.299833,0.000554032,1.34724e-13
0.3,7.4,0,0.299834,0.000583035,1.35e-13
0.3,7.5,0,0.299834,0.000583035,1.35e-13
0.3,7.6,0,0.299836,0.00066477,1.36988e-13
0.3,7.7,0,0.299838,0.000769975,1.39547e-13
0.3,7.8,0,0.29984,0.00087518,1.42106e-13
0.3,7.9,0,0.299841,0.000891365,1.425e-13
0.3,8,0,0.299841,0.000891365,1.425e-13
0.3,8.1,0,0.299843,0.000981174,1.425e-13
0.3,8.2,0,0.299846,0.00108182,1.425e-13
0.3,8.3,0,0.299849,0.00118247,1.425e-13
0.3,8.4,0,0.29985,0.00118634,1.425e-13
0.3,8.5,0,0.29985,0.00118707,1.42461e-13
0.3,8.6,0,0.299853,0.00128171,1.37343e-13
0.3,8.7,0,0.299856,0.00137636,1.32224e-13
0.3,8.8,0,0.29986,0.00146372,1.275e-13
0.3,8.9,0,0.29986,0.00146372,1.275e-13
0.3,9,0,0.29986,0.00147442,1.2687e-13
0.3,9.1,0,0.299864,0.0015614,1.21752e-13
0.3,9.2,0,0.299868,0.00164838,1.16634e-13
0.3,9.3,0,0.299872,0.00171863,1.125e-13
0.3,9.4,0,0.299872,0.00171863,1.125e-13
0.3,9.5,0,0.299873,0.0017374,1.1128e-13
0.3,9.6,0,0.299878,0.0018161,1.06161e-13
0.3,9.7,0,0.299882,0.0018948,1.01043e-13
0.3,9.8,0,0.299886,0.00194928,9.75e-14
0.3,9.9,0,0.299886,0.00194928,9.75e-14
0.3,10,0,0.299888,0.00197379,9.65945e-14
0.3,10.1,0,0.299893,0.00204305,9.40354e-14
0.3,10.2,0,0.299899,0.00211231,9.14764e-14
0.3,10.3,0,0.299902,0.00215227,9e-14
0.3,10.4,0,0.299902,0.00215227,9e-14
0.3,10.5,0,0.299906,0.00217953,8.88002e-14
0.3,10.6,0,0.299913,0.00223764,8.62433e-14
0.3,10.7,0,0.29992,0.00229575,8.36864e-14
0.3,10.8,0,0.299923,0.00232256,8.25063e-14
0.3,10.9,0,0.299923,0.00232256,8.25063e-14
0.3,11,0,0.299928,0.00234949,7.80082e-14
0.3,11.1,0,0.299937,0.00239555,7.03141e-14
0.3,11.2,0,0.299945,0.00244162,6.26201e-14
0.3,11.3,0,0.299948,0.00245756,5.99568e-14
0.3,11.4,0,0.299948,0.00245756,5.99568e-14
0.3,11.5,0,0.299954,0.00248181,5.28002e-14
0.3,11.6,0,0.299962,0.00251646,4.25765e-14
0.3,11.7,0,0.29997,0.0025511,3.23529e-14
0.3,11.8,0,0.299972,0.00255909,2.99935e-14
0.3,11.9,0,0.299972,0.00255909,2.99935e-14
0.3,12,0,0.299977,0.00257705,2.57791e-14
0.3,12.1,0,0.299982,0.00259908,2.06105e-14
0.3,12.2,0,0.299988,0.0026211,1.54419e-14
0.3,12.3,0,0.299989,0.0028258,1.94485e-14
0.3,12.4,0,0.299989,0.00305204,2.45371e-14
0.3,12.5,0,0.299992,0.00308055,2.49159e-14
0.3,12.6,0,0.299994,0.0030937,2.49291e-14
0.3,12.7,0,0.299996,0.00310686,2.49423e-14
0.4,0,0,0.299984,-0.00366534,4.49712e-14
0.4,0.1,0,0.299981,-0.00365642,4.24107e-14
0.4,0.2,0,0.299978,-0.0036475,3.98503e-14
0.4,0.3,0,0.299975,-0.00363858,3.72898e-14
0.4,0.4,0,0.299972,-0.0036078,3.44652e-14
0.4,0.5,0,0.299975,-0.0034163,3.00808e-14
0.4,0.6,0,0.299969,-0.00338999,3.00582e-14
0.4,0.7,0,0.299964,-0.00336367,3.00356e-14
0.4,0.8,0,0.299958,-0.00333735,3.0013e-14
0.4,0.9,0,0.299954,-0.0033165,2.99951e-14
0.4,1,0,0.299954,-0.0033165,2.99951e-14
0.4,1.1,0,0.299953,-0.00330801,3.0645e-14
0.4,1.2,0,0.299947,-0.00327457,3.32053e-14
0.4,1.3,0,0.299942,-0.00324112,3.57656e-14
0.4,1.4,0,0.299936,-0.00320768,3.8326e-14
0.4,1.5,0,0.299933,-0.00318582,4e-14
0.4,1.6,0,0.29993,-0.00317087,4.18895e-14
0.4,1.7,0,0.299924,-0.0031304,4.70068e-14
0.4,1.8,0,0.299917,-0.00308992,5.21241e-14
0.4,1.9,0,0.29991,-0.00304945,5.72415e-14
0.4,2,0,0.299907,-0.00302765,5.9997e-14
0.4,2.1,0,0.299903,-0.00300325,6.24777e-14
0.4,2.2,0,0.299896,-0.00295289,6.75965e-14
0.4,2.3,0,0.29989,-0.00290253,7.27154e-14
0.4,2.4,0,0.299883,-0.00285216,7.78343e-14
0.4,2.5,0,0.29988,-0.00283086,8e-14
0.4,2.6,0,0.299876,-0.00279405,8.30709e-14
0.4,2.7,0,0.29987,-0.0027327,8.8189e-14
0.4,2.8,0,0.299864,-0.00267135,9.33071e-14
0.4,2.9,0,0.299858,-0.00261001,9.84252e-14
0.4,3,0,0.299856,-0.00259113,1e-13
0.4,3.1,0,0.299853,-0.00253991,1.05492e-13
0.4,3.2,0,0.299848,-0.0024683,1.13169e-13
0.4,3.3,0,0.299843,-0.0023967,1.20846e-13
0.4,3.4,0,0.299838,-0.00232509,1.28524e-13
0.4,3.5,0,0.299837,-0.00231132,1.3e-13
0.4,3.6,0,0.299833,-0.00224416,1.34252e-13
0.4,3.7,0,0.299829,-0.00216331,1.3937e-13
0.4,3.8,0,0.299825,-0.00208246,1.44488e-13
0.4,3.9,0,0.299821,-0.00200161,1.49606e-13
0.4,4,0,0.299821,-0.00199539,1.5e-13
0.4,4.1,0,0.299817,-0.00191179,1.52421e-13
0.4,4.2,0,0.299813,-0.00182343,1.5498e-13
0.4,4.3,0,0.29981,-0.00173507,1.57539e-13
0.4,4.4,0,0.299806,-0.00165012,1.6e-13
0.4,4.5,0,0.299806,-0.00164431,1.60157e-13
0.4,4.6,0,0.299802,-0.00154991,1.62717e-13
0.4,4.7,0,0.299799,-0.00145551,1.65276e-13
0.4,4.8,0,0.299796,-0.0013611,1.67835e-13
0.4,4.9,0,0.299793,-0.00128123,1.7e-13
0.4,5,0,0.299792,-0.00126361,1.70906e-13
0.4,5.1,0,0.299789,-0.00116403,1.76024e-13
0.4,5.2,0,0.299787,-0.00106445,1.81142e-13
0.4,5.3,0,0.299784,-0.00096487,1.8626e-13
0.4,5.4,0,0.299782,-0.0008921,1.9e-13
0.4,5.5,0,0.299782,-0.000861745,1.90374e-13
0.4,5.6,0,0.29978,-0.000757897,1.91654e-13
0.4,5.7,0,0.299778,-0.000654049,1.92933e-13
0.4,5.8,0,0.299776,-0.000550201,1.94213e-13
0.4,5.9,0,0.299775,-0.000486295,1.95e-13
0.4,6,0,0.299775,-0.000442608,1.93539e-13
0.4,6.1,0,0.299774,-0.00033545,1.89957e-13
0.4,6.2,0,0.299773,-0.000228292,1.86374e-13
0.4,6.3,0,0.299772,-0.000121134,1.82791e-13
0.4,6.4,0,0.299771,-6.75556e-05,1.81e-13
0.4,6.5,0,0.299772,-1.08018e-05,1.80331e-13
0.4,6.6,0,0.299772,9.7698e-05,1.79051e-13
0.4,6.7,0,0.299772,0.000206198,1.77772e-13
0.4,6.8,0,0.299773,0.000314698,1.76492e-13
0.4,6.9,0,0.299773,0.000356428,1.76e-13
0.4,7,0,0.299774,0.000425206,1.76654e-13
0.4,7.1,0,0.299775,0.00053293,1.77677e-13
0.4,7.2,0,0.299777,0.000640653,1.78701e-13
0.4,7.3,0,0.299778,0.000748377,1.79724e-13
0.4,7.4,0,0.299778,0.000777379,1.8e-13
0.4,7.5,0,0.29978,0.000856688,1.81929e-13
0.4,7.6,0,0.299782,0.000961892,1.84488e-13
0.4,7.7,0,0.299785,0.0010671,1.87047e-13
0.4,7.8,0,0.299787,0.0011723,1.89606e-13
0.4,7.9,0,0.299787,0.00118849,1.9e-13
0.4,8,0,0.29979,0.00127597,1.9e-13
0.4,8.1,0,0.299793,0.00137662,1.9e-13
0.4,8.2,0,0.299796,0.00147727,1.9e-13
0.4,8.3,0,0.299799,0.00157792,1.9e-13
0.4,8.4,0,0.299799,0.00158179,1.9e-13
0.4,8.5,0,0.299803,0.00167498,1.84961e-13
0.4,8.6,0,0.299806,0.00176962,1.79843e-13
0.4,8.7,0,0.29981,0.00186426,1.74724e-13
0.4,8.8,0,0.299813,0.00195162,1.7e-13
0.4,8.9,0,0.299813,0.00196032,1.69488e-13
0.4,9,0,0.299817,0.0020473,1.6437e-13
0.4,9.1,0,0.299822,0.00213428,1.59252e-13
0.4,9.2,0,0.299826,0.00222126,1.54134e-13
0.4,9.3,0,0.299829,0.00229151,1.5e-13
0.4,9.4,0,0.29983,0.00230846,1.48898e-13
0.4,9.5,0,0.299835,0.00238716,1.4378e-13
0.4,9.6,0,0.29984,0.00246586,1.38661e-13
0.4,9.7,0,0.299844,0.00254456,1.33543e-13
0.4,9.8,0,0.299848,0.00259904,1.3e-13
0.4,9.9,0,0.299849,0.00262195,1.29154e-13
0.4,10,0,0.299855,0.00269121,1.26594e-13
0.4,10.1,0,0.299861,0.00276047,1.24035e-13
0.4,10.2,0,0.299866,0.00282973,1.21476e-13
0.4,10.3,0,0.29987,0.00286969,1.2e-13
0.4,10.4,0,0.299873,0.00289561,1.18859e-13
0.4,10.5,0,0.29988,0.00295372,1.16302e-13
0.4,10.6,0,0.299887,0.00301183,1.13745e-13
0.4,10.7,0,0.299894,0.00306993,1.11188e-13
0.4,10.8,0,0.299898,0.00309675,1.10008e-13
0.4,10.9,0,0.299902,0.00312262,1.05688e-13
0.4,11,0,0.299911,0.00316868,9.79938e-14
0.4,11.1,0,0.29992,0.00321474,9.02997e-14
0.4,11.2,0,0.299928,0.0032608,8.26057e-14
0.4,11.3,0,0.299931,0.00327675,7.99423e-14
0.4,11.4,0,0.299936,0.0033002,7.30217e-14
0.4,11.5,0,0.299945,0.00333484,6.2798e-14
0.4,11.6,0,0.299953,0.00336949,5.25744e-14
0.4,11.7,0,0.299961,0.00340413,4.23507e-14
0.4,11.8,0,0.299962,0.00341212,3.99914e-14
0.4,11.9,0,0.299967,0.00342957,3.58963e-14
0.4,12,0,0.299973,0.0034516,3.07277e-14
0.4,12.1,0,0.299979,0.00347362,2.55591e-14
0.4,12.2,0,0.299984,0.00349565,2.03905e-14
0.4,12.3,0,0.299985,0.00370102,2.44309e-14
0.4,12.4,0,0.299988,0.00373464,2.49316e-14
0.4,12.5,0,0.29999,0.0037478,2.49448e-14
0.4,12.6,0,0.299993,0.00376096,2.4958e-14
0.4,12.7,0,0.299995,0.00377411,2.49712e-14
0.5,0,0,0.299984,-0.00431527,5e-14
0.5,0.1,0,0.299981,-0.00430697,4.74242e-14
0.5,0.2,0,0.299978,-0.00429866,4.48485e-14
0.5,0.3,0,0.299975,-0.00429036,4.22727e-14
0.5,0.4,0,0.299972,-0.00428205,3.9697e-14
0.5,0.5,0,0.299969,-0.00427088,3.75195e-14
0.5,0.6,0,0.299963,-0.00424462,3.75141e-14
0.5,0.7,0,0.299958,-0.00421835,3.75088e-14
0.5,0.8,0,0.299952,-0.00419209,3.75034e-14
0.5,0.9,0,0.299947,-0.00416582,3.7498e-14
0.5,1,0,0.299941,-0.0041379,3.80847e-14
0.5,1.1,0,0.299936,-0.00410446,4.0645e-14
0.5,1.2,0,0.29993,-0.00407102,4.32053e-14
0.5,1.3,0,0.299925,-0.00403758,4.57656e-14
0.5,1.4,0,0.29992,-0.00400414,4.8326e-14
0.5,1.5,0,0.299914,-0.00396826,5.17714e-14
0.5,1.6,0,0.299907,-0.00392779,5.68887e-14
0.5,1.7,0,0.2999,-0.00388731,6.2006e-14
0.5,1.8,0,0.299894,-0.00384684,6.71234e-14
0.5,1.9,0,0.299887,-0.00380636,7.22407e-14
0.5,2,0,0.29988,-0.00376132,7.73588e-14
0.5,2.1,0,0.299873,-0.00371096,8.24777e-14
0.5,2.2,0,0.299866,-0.0036606,8.75965e-14
0.5,2.3,0,0.299859,-0.00361024,9.27154e-14
0.5,2.4,0,0.299852,-0.00355988,9.78343e-14
0.5,2.5,0,0.299846,-0.00350318,1.02953e-13
0.5,2.6,0,0.29984,-0.00344183,1.08071e-13
0.5,2.7,0,0.299834,-0.00338048,1.13189e-13
0.5,2.8,0,0.299828,-0.00331914,1.18307e-13
0.5,2.9,0,0.299822,-0.00325779,1.23425e-13
0.5,3,0,0.299817,-0.00318934,1.30315e-13
0.5,3.1,0,0.299812,-0.00311774,1.37992e-13
0.5,3.2,0,0.299807,-0.00304613,1.45669e-13
0.5,3.3,0,0.299802,-0.00297453,1.53346e-13
0.5,3.4,0,0.299797,-0.00290292,1.61024e-13
0.5,3.5,0,0.299793,-0.00282385,1.66634e-13
0.5,3.6,0,0.299789,-0.002743,1.71752e-13
0.5,3.7,0,0.299785,-0.00266216,1.7687e-13
0.5,3.8,0,0.29978,-0.00258131,1.81988e-13
0.5,3.9,0,0.299776,-0.00250046,1.87106e-13
0.5,4,0,0.299773,-0.00241268,1.89862e-13
0.5,4.1,0,0.299769,-0.00232432,1.92421e-13
0.5,4.2,0,0.299765,-0.00223596,1.9498e-13
0.5,4.3,0,0.299761,-0.0021476,1.97539e-13
0.5,4.4,0,0.299757,-0.00205901,2.00098e-13
0.5,4.5,0,0.299754,-0.00196461,2.02657e-13
0.5,4.6,0,0.299751,-0.00187021,2.05217e-13
0.5,4.7,0,0.299747,-0.00177581,2.07776e-13
0.5,4.8,0,0.299744,-0.00168141,2.10335e-13
0.5,4.9,0,0.29974,-0.00158621,2.13287e-13
0.5,5,0,0.299738,-0.00148663,2.18406e-13
0.5,5.1,0,0.299735,-0.00138705,2.23524e-13
0.5,5.2,0,0.299732,-0.00128747,2.28642e-13
0.5,5.3,0,0.29973,-0.0011879,2.3376e-13
0.5,5.4,0,0.299727,-0.00108717,2.37844e-13
0.5,5.5,0,0.299725,-0.000983318,2.39124e-13
0.5,5.6,0,0.299724,-0.000879471,2.40404e-13
0.5,5.7,0,0.299722,-0.000775623,2.41683e-13
0.5,5.8,0,0.29972,-0.000671775,2.42963e-13
0.5,5.9,0,0.299718,-0.000566654,2.42372e-13
0.5,6,0,0.299717,-0.000459497,2.38789e-13
0.5,6.1,0,0.299717,-0.000352339,2.35207e-13
0.5,6.2,0,0.299716,-0.000245181,2.31624e-13
0.5,6.3,0,0.299715,-0.000138023,2.28041e-13
0.5,6.4,0,0.299714,-3.01946e-05,2.2561e-13
0.5,6.5,0,0.299715,7.83053e-05,2.24331e-13
0.5,6.6,0,0.299715,0.000186805,2.23051e-13
0.5,6.7,0,0.299716,0.000295305,2.21772e-13
0.5,6.8,0,0.299716,0.000403805,2.20492e-13
0.5,6.9,0,0.299717,0.000511827,2.2063e-13
0.5,7,0,0.299718,0.000619551,2.21654e-13
0.5,7.1,0,0.29972,0.000727274,2.22677e-13
0.5,7.2,0,0.299721,0.000834998,2.23701e-13
0.5,7.3,0,0.299723,0.000942722,2.24724e-13
0.5,7.4,0,0.299725,0.0010486,2.2687e-13
0.5,7.5,0,0.299727,0.00115381,2.29429e-13
0.5,7.6,0,0.299729,0.00125901,2.31988e-13
0.5,7.7,0,0.299732,0.00136422,2.34547e-13
0.5,7.8,0,0.299734,0.00146942,2.37106e-13
0.5,7.9,0,0.299737,0.00157077,2.375e-13
0.5,8,0,0.29974,0.00167142,2.375e-13
0.5,8.1,0,0.299743,0.00177207,2.375e-13
0.5,8.2,0,0.299746,0.00187272,2.375e-13
0.5,8.3,0,0.299749,0.00197336,2.375e-13
0.5,8.4,0,0.299753,0.00206824,2.32579e-13
0.5,8.5,0,0.299756,0.00216288,2.27461e-13
0.5,8.6,0,0.299759,0.00225752,2.22343e-13
0.5,8.7,0,0.299763,0.00235217,2.17224e-13
0.5,8.8,0,0.299766,0.00244622,2.12106e-13
0.5,8.9,0,0.29977,0.0025332,2.06988e-13
0.5,9,0,0.299775,0.00262018,2.0187e-13
0.5,9.1,0,0.299779,0.00270716,1.96752e-13
0.5,9.2,0,0.299783,0.00279413,1.91634e-13
0.5,9.3,0,0.299787,0.00287952,1.86516e-13
0.5,9.4,0,0.299792,0.00295822,1.81398e-13
0.5,9.5,0,0.299797,0.00303692,1.7628e-13
0.5,9.6,0,0.299801,0.00311562,1.71161e-13
0.5,9.7,0,0.299806,0.00319432,1.66043e-13