/*--------------------------------*- C++ -*----------------------------------*\
| =========                 |                                                 |
| \\      /  F ield         | OpenFOAM: The Open Source CFD Toolbox           |
|  \\    /   O peration     | Version:  v1806                                 |
|   \\  /    A nd           | Web:      www.OpenFOAM.com                      |
|    \\/     M anipulation  |                                                 |
\*---------------------------------------------------------------------------*/
FoamFile
{
    version     2.0;
    format      ascii;
    class       surfaceScalarField;
    location    "270";
    object      phi;
}
// * * * * * * * * * * * * * * * * * * * * * * * * * * * * * * * * * * * * * //

dimensions      [0 3 -1 0 0 0 0];
oriented        oriented;


internalField   nonuniform List<scalar> 
4680
(
0.0750008
-0.000451484
0.0750037
-0.00135404
0.0750089
-0.00225377
0.0750171
-0.0031471
0.075029
-0.00403091
0.0750454
-0.00490182
0.0750675
-0.00575599
0.0750962
-0.0065891
0.075133
-0.00739625
0.0751791
-0.00817208
0.0752361
-0.00891069
0.0753055
-0.00960578
0.0753887
-0.0102509
0.075487
-0.0108392
0.0756014
-0.0113645
0.0757326
-0.0118206
0.075881
-0.0122024
0.0760467
-0.0125052
0.0762299
-0.0127275
-0.0128628
0.0764213
0.0750022
-0.000453652
0.0750088
-0.00136065
0.0750201
-0.00226511
0.0750369
-0.0031639
0.0750602
-0.00405416
0.0750911
-0.00493276
0.0751312
-0.00579607
0.0751821
-0.00664
0.0752456
-0.00745977
0.0753237
-0.00825013
0.0754181
-0.00900513
0.0755307
-0.00971842
0.0756631
-0.0103832
0.0758164
-0.0109925
0.0759913
-0.0115394
0.0761878
-0.012017
0.0764052
-0.0124198
0.0766418
-0.0127418
0.0768948
-0.0129805
-0.0131312
0.0771632
0.0750034
-0.000457066
0.0750137
-0.00137096
0.0750314
-0.00228275
0.0750573
-0.00318979
0.0750927
-0.00408963
0.0751395
-0.00497951
0.0751994
-0.00585606
0.0752749
-0.00671549
0.0753683
-0.00755313
0.075482
-0.00836388
0.0756185
-0.0091416
0.07578
-0.00987988
0.0759681
-0.0105713
0.0761841
-0.0112085
0.0764282
-0.0117836
0.0766999
-0.0122887
0.0769975
-0.0127174
0.0773177
-0.013062
0.0776571
-0.0133199
-0.0134846
0.0780105
0.0750045
-0.00046153
0.075018
-0.00138446
0.075041
-0.00230583
0.0750749
-0.00322369
0.0751213
-0.00413603
0.0751825
-0.00504063
0.0752608
-0.00593441
0.0753594
-0.00681406
0.0754811
-0.00767488
0.0756294
-0.00851214
0.075807
-0.00931922
0.076017
-0.0100898
0.0762611
-0.0108155
0.076541
-0.0114884
0.0768565
-0.0120991
0.0772067
-0.0126389
0.0775887
-0.0130994
0.0779982
-0.0134715
0.0784296
-0.0137513
-0.0139299
0.078875
0.0750053
-0.0004668
0.0750212
-0.0014004
0.0750485
-0.00233314
0.0750888
-0.00326392
0.075144
-0.00419128
0.0752171
-0.00511371
0.0753111
-0.00602843
0.0754299
-0.00693285
0.0755771
-0.00782212
0.0757572
-0.00869222
0.0759736
-0.00953561
0.0762304
-0.0103466
0.0765296
-0.0111147
0.0768738
-0.0118325
0.0772622
-0.0124876
0.0776942
-0.0130709
0.0781652
-0.0135704
0.0786699
-0.0139762
0.0792001
-0.0142816
-0.0144755
0.0797457
0.0750058
-0.000472558
0.0750232
-0.00141785
0.0750532
-0.0023631
0.0750975
-0.00330831
0.0751589
-0.00425262
0.0752407
-0.00519552
0.0753467
-0.00613447
0.0754819
-0.00706804
0.0756507
-0.00799087
0.0758589
-0.00890043
0.0761106
-0.00978731
0.0764118
-0.0106478
0.0767645
-0.0114674
0.0771732
-0.0122412
0.0776362
-0.0129506
0.078154
-0.0135887
0.0787197
-0.0141361
0.0793278
-0.0145843
0.079966
-0.0149198
-0.0151317
0.0806222
0.0750058
-0.000478407
0.0750236
-0.00143561
0.0750542
-0.00239374
0.0751001
-0.00335414
0.0751641
-0.00431663
0.0752506
-0.00528202
0.075364
-0.00624792
0.0755107
-0.00721468
0.0756957
-0.0081759
0.0759271
-0.00913185
0.0762094
-0.0100696
0.0765516
-0.0109899
0.0769551
-0.0118709
0.0774284
-0.0127146
0.0779672
-0.0134894
0.0785763
-0.0141977
0.0792434
-0.0148033
0.0799659
-0.0153068
0.0807239
-0.0156778
-0.0159129
0.0815051
0.0750055
-0.000483867
0.0750221
-0.00145224
0.075051
-0.00242268
0.075095
-0.00339811
0.0751575
-0.0043791
0.0752436
-0.0053682
0.0753587
-0.00636296
0.0755105
-0.00736652
0.075705
-0.00837041
0.0759532
-0.00938
0.0762594
-0.0103758
0.0766378
-0.0113684
0.0770877
-0.0123208
0.0776254
-0.0132522
0.0782404
-0.0141044
0.0789476
-0.0149049
0.0797239
-0.0155796
0.0805759
-0.0161588
0.0814682
-0.0165701
-0.0168394
0.0823947
0.0750045
-0.000488373
0.0750183
-0.00146604
0.0750427
-0.00244708
0.0750809
-0.00343627
0.0751367
-0.00443496
0.0752165
-0.00544794
0.075326
-0.00647246
0.0754751
-0.00751566
0.0756704
-0.0085657
0.0759267
-0.00963633
0.0762479
-0.0106969
0.0766558
-0.0117763
0.077145
-0.01281
0.0777459
-0.0138532
0.0784354
-0.0147939
0.0792498
-0.0157193
0.0801426
-0.0164723
0.0811453
-0.0171615
0.0821897
-0.0176145
-0.017941
0.0832913
0.0750029
-0.000491273
0.0750119
-0.00147506
0.0750285
-0.00246369
0.0750563
-0.00346401
0.0750996
-0.00447825
0.0751655
-0.00551391
0.0752608
-0.00656777
0.0753975
-0.00765227
0.0755826
-0.0087508
0.0758359
-0.00988963
0.0761598
-0.0110209
0.0765875
-0.0122039
0.077105
-0.0133275
0.0777667
-0.014515
0.0785248
-0.015552
0.0794587
-0.0166533
0.0804729
-0.0174865
0.0816573
-0.0183459
0.0828737
-0.0188309
-0.0192631
0.0841958
0.0750006
-0.000491836
0.0750026
-0.00147707
0.0750077
-0.00246881
0.0750198
-0.00347607
0.0750436
-0.00450211
0.0750872
-0.00555749
0.075158
-0.0066386
0.07527
-0.00776429
0.0754314
-0.00891221
0.0756669
-0.0101251
0.0759779
-0.0113319
0.0764111
-0.0126371
0.076941
-0.0138574
0.077658
-0.0152319
0.0784723
-0.0163663
0.0795416
-0.0177226
0.0806759
-0.0186207
0.0820884
-0.0197584
0.0834971
-0.0202396
-0.0208761
0.0851102
0.0749974
-0.000489263
0.07499
-0.00146968
0.0749796
-0.00245838
0.0749701
-0.00346657
0.0749668
-0.00449883
0.0749781
-0.00556878
0.0750126
-0.00667304
0.0750854
-0.00783713
0.0752067
-0.00903356
0.0754052
-0.0103236
0.0756834
-0.01161
0.076101
-0.0130547
0.076622
-0.0143784
0.0773812
-0.0159911
0.0782314
-0.0172165
0.0794542
-0.0189455
0.0806952
-0.0198616
0.0824062
-0.0214695
0.0840228
-0.0218562
-0.0228898
0.0860365
0.0749934
-0.000482708
0.0749741
-0.00145032
0.0749438
-0.00242808
0.0749065
-0.00342924
0.0748676
-0.00446001
0.0748357
-0.00553683
0.0748202
-0.0066576
0.0748368
-0.0078537
0.0748987
-0.00909542
0.0750357
-0.0104607
0.0752564
-0.0118307
0.0756273
-0.0134256
0.0761134
-0.0148644
0.076887
-0.0167648
0.0777471
-0.0180766
0.0791337
-0.020332
0.0804509
-0.0211789
0.0825644
-0.023583
0.0843867
-0.0236785
-0.0254799
0.0869769
0.0749886
-0.000471322
0.0749547
-0.00141643
0.0749002
-0.00237352
0.0748285
-0.00335762
0.0747454
-0.00437685
0.0746585
-0.00544994
0.0745784
-0.00657748
0.0745195
-0.00779485
0.0744993
-0.00907514
0.0745449
-0.0105063
0.0746778
-0.0119636
0.0749583
-0.0137061
0.0753779
-0.015284
0.0761115
-0.0174984
0.0769596
-0.0189247
0.0784855
-0.021858
0.0798449
-0.0225382
0.0824901
-0.0262282
0.0844679
-0.0256563
-0.0289481
0.087936
0.074983
-0.000454296
0.0749321
-0.00136557
0.0748491
-0.00229047
0.0747369
-0.00324546
0.0746007
-0.0042406
0.0744471
-0.00529638
0.0742867
-0.00641713
0.0741322
-0.00764027
0.0740039
-0.00894693
0.0739242
-0.0104265
0.0739305
-0.01197
0.0740647
-0.0138403
0.0743748
-0.0155941
0.0749781
-0.0181017
0.075803
-0.0197496
0.0773625
-0.0234175
0.0787849
-0.0239606
0.0820395
-0.0294828
0.0840677
-0.0276845
-0.0338343
0.0889539
0.0749766
-0.000430926
0.0749067
-0.00129563
0.0747914
-0.0021752
0.0746331
-0.00308713
0.0744357
-0.00404321
0.0742044
-0.00506512
0.0739486
-0.00616126
0.0736781
-0.00736975
0.073414
-0.00868289
0.073173
-0.0101855
0.0730044
-0.0118013
0.0729293
-0.0137652
0.0730605
-0.0157253
0.0734184
-0.0184596
0.0741858
-0.020517
0.0755452
-0.0247769
0.0771943
-0.0256097
0.0808757
-0.0331643
0.0829967
-0.0298055
-0.0410007
0.0901632
0.0749698
-0.000400689
0.0748791
-0.00120498
0.0747288
-0.00202486
0.0745199
-0.00287823
0.0742548
-0.00377816
0.0739366
-0.00474688
0.0735717
-0.0057964
0.0731668
-0.00696485
0.0727395
-0.0082556
0.0723017
-0.00974772
0.0719024
-0.011402
0.0715526
-0.0134154
0.0713964
-0.0155691
0.0713946
-0.0184578
0.0719688
-0.0210912
0.0728552
-0.0256633
0.0749186
-0.027673
0.0783304
-0.0365761
0.0813359
-0.032811
-0.0511324
0.0914676
0.0749626
-0.000363302
0.0748504
-0.00109276
0.0746634
-0.00183785
0.0744013
-0.00261613
0.0740644
-0.00344132
0.0736529
-0.00433532
0.0731693
-0.00531282
0.0726154
-0.00641099
0.0720022
-0.00764235
0.0713351
-0.00908062
0.0706508
-0.0107178
0.069958
-0.0127226
0.0693808
-0.0149919
0.0688944
-0.0179714
0.0689554
-0.0211522
0.0692232
-0.025931
0.0713821
-0.029832
0.0735304
-0.0387244
0.0794005
-0.0386811
-0.0625937
0.0908617
0.0749555
-0.000318806
0.0748218
-0.000959033
0.0745981
-0.00161416
0.0742825
-0.00230057
0.073873
-0.00303182
0.073366
-0.00382829
0.0727595
-0.00470632
0.0720487
-0.00570023
0.0712359
-0.00682952
0.0703157
-0.00816045
0.0693068
-0.00970886
0.0682046
-0.0116204
0.0670863
-0.0138736
0.0659469
-0.0168321
0.0650936
-0.0202989
0.0644479
-0.0252853
0.0654906
-0.0308747
0.0667237
-0.0399574
0.0759521
-0.0479095
-0.0690325
0.0823909
0.0749488
-0.000267638
0.0747947
-0.000804935
0.0745363
-0.00135569
0.0741698
-0.00193412
0.0736907
-0.00255265
0.0730914
-0.00322902
0.0723647
-0.00397969
0.0714988
-0.00483424
0.0704853
-0.00581606
0.0693054
-0.00698053
0.0679565
-0.00836004
0.066407
-0.0100708
0.0646826
-0.0121492
0.0627237
-0.0148731
0.0606659
-0.0182411
0.0584341
-0.0230536
0.0566479
-0.0290884
0.0557857
-0.0390952
0.0613577
-0.0534815
0.0576328
-0.0653075
0.0768547
-0.025899
0.0773237
-0.0254795
0.0778066
-0.0245046
0.0782846
-0.023072
0.078744
-0.021329
0.0791725
-0.0193929
0.0795678
-0.0173428
0.0799254
-0.015291
0.0802497
-0.0131963
-0.0112318
0.0805353
0.0777307
-0.0264665
0.0783086
-0.0260574
0.0788683
-0.0250643
0.0793873
-0.023591
0.079856
-0.0217977
0.0802683
-0.0198052
0.0806289
-0.0177034
0.0809384
-0.0156005
0.0812058
-0.0134636
-0.0114588
0.0814327
0.0787436
-0.0271996
0.0794636
-0.0267774
0.0801329
-0.0257335
0.0807265
-0.0241846
0.0812371
-0.0223083
0.0816638
-0.0202319
0.0820176
-0.0180572
0.0823036
-0.0158866
0.0825363
-0.0136963
-0.0116415
0.082719
0.0797882
-0.0281128
0.0806631
-0.0276523
0.0814526
-0.026523
0.08213
-0.0248621
0.0826913
-0.0228696
0.0831422
-0.0206827
0.0835004
-0.0184154
0.0837761
-0.0161623
0.0839884
-0.0139086
-0.0117953
0.0841422
0.0808544
-0.0292216
0.0818947
-0.0286926
0.0828105
-0.0274388
0.0835739
-0.0256255
0.0841854
-0.0234811
0.0846592
-0.0211566
0.0850214
-0.0187776
0.0852875
-0.0164284
0.0854816
-0.0141027
-0.0119244
0.0856107
0.0819459
-0.0305452
0.0831631
-0.0299098
0.0842105
-0.0284863
0.085059
-0.0264739
0.0857163
-0.0241384
0.0862079
-0.0216482
0.086569
-0.0191387
0.086821
-0.0166804
0.0869929
-0.0142746
-0.0120259
0.0870944
0.0830677
-0.0321078
0.0844748
-0.0313169
0.0856588
-0.0296704
0.0865894
-0.0274045
0.0872856
-0.0248346
0.0877872
-0.0221498
0.0881394
-0.0194908
0.0883694
-0.0169104
0.0885109
-0.0144161
-0.0120919
0.0885769
0.0842249
-0.0339379
0.0858365
-0.0329286
0.087162
-0.0309959
0.0881689
-0.0284113
0.0888946
-0.0255604
0.0893957
-0.0226509
0.0897275
-0.0198226
0.0899221
-0.0171049
0.0900178
-0.0145119
-0.0121055
0.0900314
0.0854215
-0.0360681
0.0872555
-0.0347627
0.0887277
-0.032468
0.0898025
-0.0294862
0.0905449
-0.0263027
0.0910286
-0.0231346
0.0913183
-0.0201123
0.09145
-0.0172366
0.0914687
-0.0145305
-0.0120317
0.0913949
0.0866593
-0.0385316
0.0887428
-0.0368461
0.0903686
-0.0340939
0.0914977
-0.0306153
0.0922327
-0.0270377
0.0926627
-0.0235646
0.0928618
-0.0203114
0.0928715
-0.0172463
0.0927492
-0.0144083
-0.0118026
0.0925201
0.0879375
-0.0413589
0.0903221
-0.0392307
0.0921064
-0.0358783
0.0932544
-0.0317633
0.0939208
-0.0277041
0.0942084
-0.0238522
0.094209
-0.020312
0.0939782
-0.0170155
0.0935976
-0.0140276
-0.0113024
0.0930974
0.0892602
-0.0445826
0.0920442
-0.0420147
0.0939546
-0.0377886
0.0950119
-0.0328207
0.0954501
-0.0281423
0.0953985
-0.0238006
0.0949901
-0.0199036
0.0943153
-0.0163408
0.093494
-0.0132064
-0.0103692
0.0925609
0.0906816
-0.0482874
0.0939748
-0.0453079
0.0958217
-0.0396355
0.0964942
-0.0334932
0.0963532
-0.0280013
0.0955972
-0.0230446
0.0944453
-0.0187517
0.0930473
-0.0149427
0.0915674
-0.0117265
-0.00883822
0.0900365
0.0923069
-0.0526583
0.0960464
-0.0490474
0.0972416
-0.0408306
0.0969142
-0.0331658
0.0955783
-0.0266654
0.0935948
-0.0210611
0.0913063
-0.0164632
0.0889255
-0.012562
0.0866394
-0.00944031
-0.00664895
0.0844501
0.0941426
-0.057847
0.0976154
-0.0525202
0.0969188
-0.040134
0.0946094
-0.0308564
0.0912965
-0.0233525
0.0875976
-0.0173623
0.0839478
-0.0128133
0.0805626
-0.0091768
0.0775844
-0.00646207
-0.00399642
0.0749318
0.0955052
-0.063189
0.0967332
-0.0537481
0.0923158
-0.0357167
0.0869814
-0.0255219
0.0811874
-0.0175585
0.0757873
-0.0119622
0.0711088
-0.00813475
0.0672184
-0.00528639
0.0640998
-0.00334352
-0.00140464
0.061508
0.0938949
-0.0656163
0.0896451
-0.0494984
0.0799312
-0.0260028
0.0714572
-0.0170479
0.0637612
-0.0098625
0.0577825
-0.00598359
0.0532501
-0.00360236
0.0499125
-0.00194873
0.0475125
-0.000943585
0.000492136
0.0456157
0.084251
-0.0590056
0.0715688
-0.0368161
0.0573945
-0.0118285
0.0478269
-0.00748029
0.0408114
-0.00284699
0.0364081
-0.00158029
0.0335105
-0.000704728
0.0316821
-0.000120369
0.0305413
0.00019719
0.00134817
0.0296853
0.0603629
-0.0369776
0.040371
-0.0168242
0.0281893
0.000353202
0.0218561
-0.0011471
0.0186678
0.000341335
0.0170375
4.99417e-05
0.0161557
0.000177092
0.0157918
0.000243543
0.0156878
0.000301216
0.00118473
0.0158512
0.0206552
0.00383095
0.00418415
0.00303705
0.00337838
0.00342833
0.00360542
0.00384896
0.00415018
0.00533491
0.0809212
-0.0133897
0.0812452
-0.00919917
0.0815145
-0.00473467
0.0817231
-0.00116722
0.0819012
0.00295444
0.0820365
0.00604365
0.0821252
0.00971873
0.0821748
0.0121836
0.0821793
0.0147326
0.0821558
0.0159714
0.082098
0.016274
0.0820403
0.0157011
0.0819793
0.0130049
0.0819506
0.0108816
0.0819863
0.00567261
0.0820707
0.00353652
0.0823025
-0.00226617
0.0825505
-0.00226709
0.0829598
-0.00605734
-0.00269045
0.0817237
-0.0136807
0.0819507
-0.00942619
0.0821291
-0.0049131
0.0822716
-0.00130969
0.0823683
0.00285776
0.0824274
0.0059845
0.0824384
0.00970779
0.0824102
0.0122118
0.0823344
0.0148084
0.0822407
0.0160651
0.0821159
0.0163988
0.0820141
0.015803
0.0819186
0.0131004
0.081885
0.0109152
0.0819345
0.00562306
0.0820588
0.00341221
0.0823672
-0.00257452
0.082687
-0.00258693
0.0831859
-0.00655622
-0.00305595
0.0829322
-0.0138939
0.0830717
-0.00956568
0.083167
-0.00500844
0.0832183
-0.00136095
0.083225
0.00285108
0.083184
0.00602549
0.0830856
0.00980621
0.0829369
0.0123605
0.0827303
0.0150149
0.082512
0.0162834
0.0822639
0.0166469
0.0820725
0.0159945
0.0819014
0.0132715
0.0818435
0.010973
0.0819017
0.0055649
0.0820756
0.00323832
0.0824938
-0.0029927
0.0829103
-0.00300352
0.0835622
-0.00720806
-0.00350461
0.0843033
-0.0140549
0.0843813
-0.00964369
0.0844166
-0.00504382
0.0843972
-0.0013415
0.0843301
0.00291817
0.0841994
0.00615624
0.0839935
0.010012
0.0837169
0.0126371
0.0833598
0.0153719
0.082989
0.0166542
0.082581
0.0170549
0.0822648
0.0163106
0.0819818
0.0135545
0.0818764
0.0110785
0.0819226
0.00551873
0.0821402
0.00302072
0.082669
-0.00352158
0.0831881
-0.00352262
0.0840117
-0.0080316
-0.00404878
0.0857292
-0.0141734
0.085759
-0.00967348
0.0857505
-0.0050354
0.0856796
-0.00127053
0.0855586
0.00303911
0.0853572
0.00635769
0.0850599
0.0103093
0.0846653
0.0130318
0.084159
0.0158782
0.0836278
0.0171854
0.0830424
0.0176404
0.0825798
0.0167731
0.082157
0.0139773
0.0819808
0.0112546
0.0819883
0.00551129
0.0822318
0.00277717
0.0828555
-0.0041453
0.083463
-0.00413009
0.0844584
-0.00902702
-0.0046894
0.0871668
-0.0142457
0.087148
-0.00965469
0.0870988
-0.00498623
0.0869826
-0.00115426
0.0868183
0.00320339
0.0865593
0.00661662
0.0861858
0.0106828
0.0856863
0.0135313
0.0850402
0.0165243
0.0843509
0.0178748
0.0835829
0.0184083
0.0829612
0.0173949
0.082378
0.0145605
0.0821092
0.0115235
0.0820468
0.00557368
0.0822912
0.00253268
0.082978
-0.00483209
0.0836466
-0.00479869
0.0847972
-0.0101776
-0.00541687
0.0885887
-0.0142575
0.0885089
-0.00957493
0.0884082
-0.0048855
0.0882393
-0.000985344
0.0880302
0.00341251
0.087717
0.00692979
0.0872758
0.0111241
0.0866807
0.0141264
0.0859052
0.0172997
0.0850622
0.0187178
0.0841128
0.0193577
0.0833228
0.0181848
0.0825631
0.0153202
0.0821785
0.0119082
0.0820101
0.00574204
0.0822227
0.00232014
0.0829233
-0.00553272
0.0836137
-0.00548905
0.0848866
-0.0114505
-0.00621435
0.0899521
-0.0141782
0.089783
-0.00940588
0.0896034
-0.00470591
0.0893606
-0.000742486
0.089094
0.00367911
0.0887216
0.00730213
0.0882165
0.0116291
0.0875324
0.0148105
0.0866386
0.0181936
0.0856473
0.0197091
0.0845212
0.0204838
0.0835546
0.0191515
0.0826047
0.0162701
0.082077
0.0124358
0.0817603
0.00605883
0.0818969
0.00218344
0.0825424
-0.00617817
0.0832023
-0.00614893
0.0845499
-0.0127981
-0.00706168
0.0911653
-0.0139486
0.090854
-0.00909459
0.0905467
-0.00439857
0.090194
-0.000389831
0.0898483
0.00402481
0.0894088
0.00774163
0.0888456
0.0121924
0.0880837
0.0155723
0.0870892
0.0191881
0.0859608
0.0208374
0.0846696
0.021775
0.08352
0.0203011
0.0823693
0.0174208
0.081666
0.0131391
0.0811521
0.00657276
0.0811539
0.0021816
0.0816552
-0.00667942
0.0822206
-0.00671431
0.0835844
-0.014162
-0.00794176
0.0920368
-0.0134653
0.0914974
-0.00855523
0.09099
-0.00389118
0.0904801
0.000120101
0.0900321
0.00447287
0.0895243
0.00824941
0.0889215
0.0127952
0.0881101
0.0163837
0.0870509
0.0202473
0.0858131
0.0220752
0.0843823
0.0232058
0.0830516
0.0216318
0.0816959
0.0187765
0.0807809
0.0140541
0.0800167
0.00733697
0.0798081
0.00239022
0.0800603
-0.00693163
0.0804615
-0.00711548
0.0817825
-0.015483
-0.0088502
0.092205
-0.0125729
0.0913217
-0.00767194
0.0905302
-0.00309969
0.0898176
0.000832674
0.0892586
0.0050319
0.0887052
0.00880282
0.0881106
0.0133898
0.087311
0.0171833
0.0862552
0.0213031
0.0849649
0.0233655
0.0834441
0.0247266
0.0819515
0.0231244
0.0803991
0.0203289
0.079238
0.0152152
0.0781701
0.00840483
0.0776612
0.00289906
0.0775567
-0.00682711
0.0777318
-0.00729051
0.0789678
-0.016719
-0.00980592
0.0910744
-0.0110864
0.0897316
-0.00632919
0.088592
-0.00196007
0.0876716
0.00175312
0.0870323
0.0056712
0.0865025
0.00933254
0.08601
0.0138824
0.0853307
0.0178625
0.0843897
0.0222442
0.0831444
0.0246107
0.0816147
0.0262564
0.0800062
0.0247328
0.0782831
0.022052
0.0768502
0.0166482
0.0754305
0.00982455
0.0745283
0.00380123
0.0739839
-0.00628271
0.073896
-0.00720265
0.075044
-0.017867
-0.010858
0.0878196
-0.00886957
0.0859739
-0.00448347
0.0845078
-0.000494024
0.0834557
0.0028052
0.082841
0.00628596
0.0824698
0.00970369
0.0822282
0.0141241
0.0818279
0.0182628
0.0811553
0.0229168
0.0800928
0.0256732
0.0786669
0.0276822
0.0770188
0.0263809
0.0751705
0.0239004
0.0734545
0.0183641
0.0716471
0.011632
0.0702771
0.00517117
0.0692655
-0.00527106
0.0689292
-0.00686637
0.0700422
-0.01898
-0.0120825
0.0815555
-0.00597503
0.0793419
-0.00226987
0.0777228
0.00112516
0.0767389
0.00378904
0.0763416
0.00668324
0.0763254
0.00971989
0.0765222
0.0139273
0.0765869
0.0181981
0.0763555
0.0231481
0.0756344
0.0263943
0.0744428
0.0288738
0.0728538
0.0279699
0.0709387
0.0258155
0.0689461
0.0203567
0.0667391
0.0138389
0.0648783
0.007032
0.0634587
-0.00385141
0.0629592
-0.00636694
0.0641445
-0.0201653
-0.0135641
0.0717462
-0.00278938
0.0695454
-6.91225e-05
0.0681326
0.00253803
0.067517
0.00440458
0.067584
0.0066163
0.0681312
0.00917264
0.0689393
0.0131193
0.0696299
0.0175075
0.0699851
0.0227929
0.0697466
0.0266329
0.0689084
0.029712
0.0674795
0.0293989
0.0655558
0.0277392
0.0633127
0.0225998
0.0607387
0.016413
0.0584513
0.00931937
0.0567846
-0.00218469
0.056274
-0.00585628
0.0576631
-0.0215544
-0.0153686
0.0587386
-1.99934e-05
0.0571193
0.00155025
0.0563429
0.00331441
0.0563923
0.00435518
0.0571223
0.00588625
0.0583641
0.0079309
0.0598679
0.0116155
0.0612571
0.0161183
0.0622654
0.0217847
0.06259
0.0263082
0.0621807
0.0301213
0.0609889
0.0305907
0.0591028
0.0296253
0.0566653
0.0250373
0.0538269
0.0192513
0.0512863
0.0118599
0.0496169
-0.000515308
0.0492771
-0.00551642
0.0509782
-0.0232555
-0.0175152
0.0440019
0.00159382
0.0434537
0.00209853
0.0436034
0.00316469
0.0444467
0.00351181
0.0458779
0.00445512
0.0477888
0.00601999
0.0499357
0.00946851
0.0519722
0.0140819
0.0535955
0.0201613
0.0544797
0.0254241
0.0545107
0.0300902
0.053593
0.0315084
0.0517831
0.0314352
0.0492563
0.0275641
0.0463447
0.022163
0.0438201
0.0143846
0.0424204
0.000884349
0.0424076
-0.00550366
0.0444619
-0.0253098
-0.0199651
0.0295978
0.00168135
0.0302782
0.00141813
0.0313194
0.00212353
0.0328251
0.00200601
0.0348003
0.00247995
0.0372004
0.0036199
0.0398155
0.00685338
0.042342
0.0115554
0.0444541
0.0180492
0.0458169
0.0240613
0.0462416
0.0296655
0.0456013
0.0321487
0.0439219
0.0331147
0.0414782
0.0300078
0.0387627
0.0248784
0.036565
0.0165823
0.0356646
0.00178476
0.0360662
-0.00590528
0.0384308
-0.0276744
-0.0226265
0.0173359
0.000196628
0.018939
-0.000184943
0.0205114
0.000551088
0.022351
0.000166468
0.0245914
0.000239591
0.0272214
0.000989867
0.0300746
0.00400015
0.0328826
0.00874738
0.035313
0.0156189
0.0370284
0.022346
0.0377703
0.0289235
0.0374069
0.0325121
0.0359568
0.0345648
0.033827
0.0321376
0.0316087
0.0270966
0.0300205
0.0181705
0.0297531
0.00205225
0.0305828
-0.00673504
0.0331395
-0.0302311
-0.0253703
0.00824466
-0.00271313
0.0100299
-0.00197022
0.0116216
-0.0010406
0.0134276
-0.00163954
0.0156498
-0.00198259
0.018262
-0.00162227
0.0211355
0.00112662
0.0240247
0.0058582
0.0266041
0.0130394
0.0285428
0.0204073
0.0295341
0.0279322
0.029474
0.0325722
0.0284024
0.0356364
0.026834
0.033706
0.0253838
0.0285469
0.0246005
0.0189538
0.0250058
0.00164689
0.0262175
-0.00794675
0.028794
-0.0328075
-0.0280599
0.00247987
-0.005193
0.00332779
-0.00281814
0.00430273
-0.00201554
0.00552324
-0.00286006
0.00713672
-0.00359606
0.00908492
-0.00357048
0.0112767
-0.00106517
0.0135393
0.00359563
0.0156098
0.0109689
0.0172589
0.0187582
0.0182093
0.0269817
0.0184279
0.0323536
0.0179694
0.0360949
0.0172545
0.034421
0.0167954
0.0290059
0.0168
0.0189492
0.0176069
0.000840032
0.0187821
-0.00912196
0.0207164
-0.0347418
-0.0300884
0.000135527
-0.00532852
0.000208914
-0.00289152
0.00081065
-0.00261728
0.0017652
-0.0038146
0.00317754
-0.00500841
0.0049429
-0.00533583
0.00698407
-0.00310634
0.00913493
0.00144477
0.0111627
0.00894112
0.0128541
0.0170668
0.0139466
0.0258892
0.0144382
0.031862
0.0144121
0.036121
0.0142675
0.0345656
0.0144709
0.0288025
0.0150773
0.0183428
0.0162683
-0.000351021
0.0176147
-0.0104683
0.0193373
-0.0364644
-0.0319288
-0.00143525
-0.00389328
-0.00198381
-0.00234296
-0.00180161
-0.00279947
-0.00110421
-0.004512
8.69118e-05
-0.00619953
0.00164625
-0.00689517
0.00350171
-0.00496181
0.00550226
-0.000555777
0.00745353
0.00698986
0.009164
0.0153563
0.0104082
0.0246451
0.0112079
0.0310623
0.0116742
0.0356547
0.0121469
0.0340928
0.0130273
0.0279221
0.0142304
0.0171397
0.015773
-0.00189365
0.0172572
-0.0119525
0.0187063
-0.0379136
-0.0334938
-0.00236671
-0.00152656
-0.00339995
-0.00130973
-0.00354545
-0.00265397
-0.00306779
-0.00498967
-0.0020837
-0.00718362
-0.000734637
-0.00824423
0.000918066
-0.00661451
0.00275197
-0.00238968
0.00460688
0.00513495
0.00632704
0.0136361
0.00773539
0.0232367
0.00886774
0.0299299
0.00986023
0.0346622
0.0109585
0.0329945
0.0125025
0.0263781
0.0142653
0.015377
0.0161304
-0.00375879
0.0177207
-0.0135428
0.0188542
-0.039047
-0.0347091
-0.00279286
0.0012663
-0.00408478
-1.78064e-05
-0.00442324
-0.00231551
-0.00410462
-0.00530829
-0.00329798
-0.00799025
-0.00214176
-0.00940045
-0.000687524
-0.00806875
0.000969446
-0.00404665
0.00272064
0.00338375
0.00444747
0.0119093
0.00602886
0.0216553
0.00750162
0.0284572
0.00902566
0.0331382
0.0107252
0.031295
0.0128871
0.0242162
0.0151496
0.0131145
0.0173114
-0.00592056
0.0189843
-0.0152157
0.0197884
-0.0398511
-0.0355402
-0.0027645
0.0040308
-0.00405237
0.00127007
-0.00442778
-0.00194011
-0.00419192
-0.00554415
-0.00351969
-0.00866248
-0.00253497
-0.0103852
-0.00127128
-0.00933244
0.000212569
-0.0055305
0.00185859
0.00173773
0.00358967
0.0101782
0.00534428
0.0199007
0.00714606
0.0266554
0.00917637
0.0311079
0.011428
0.0290433
0.0141296
0.0215146
0.0168299
0.0104142
0.0192478
-0.00833845
0.0209872
-0.0169552
0.0214807
-0.0403446
-0.0359852
-0.00226985
0.00630065
-0.00328781
0.00228802
-0.0035419
-0.00168601
-0.00331093
-0.00577513
-0.002728
-0.00924541
-0.00189142
-0.0112218
-0.000807161
-0.0104167
0.000506684
-0.00684434
0.00204767
0.000196743
0.00377703
0.00844887
0.00569332
0.0179844
0.00779433
0.0245544
0.010278
0.0286242
0.0130139
0.0263075
0.0161598
0.0183687
0.0192178
0.00735617
0.0218318
-0.0109524
0.02363
-0.0187534
0.023862
-0.0405766
-0.0360708
-0.00123373
0.00753438
-0.00174981
0.0028041
-0.00174026
-0.00169556
-0.00144812
-0.00606727
-0.000912625
-0.0097809
-0.00020621
-0.0119282
0.000706155
-0.0113291
0.00184888
-0.00798707
0.00327984
-0.00123421
0.0049947
0.006734
0.00704827
0.0159309
0.00940334
0.0221993
0.0122664
0.0257612
0.0154046
0.0231692
0.0188847
0.0148886
0.0222001
0.00404077
0.0249365
-0.0136888
0.0267836
-0.0206005
0.0268245
-0.0406175
-0.035847
0.000487938
0.00704644
0.000636501
0.00265554
0.00100441
-0.00206347
0.00140414
-0.00646699
0.00191003
-0.0102868
0.0024977
-0.0125158
0.00323896
-0.0120703
0.00420981
-0.00895792
0.00551872
-0.00254312
0.00719599
0.00505673
0.00934904
0.0137778
0.0119024
0.0196459
0.0150539
0.0226097
0.0185004
0.0197227
0.0221994
0.0111896
0.0256617
0.000578478
0.0284354
-0.0164625
0.0303057
-0.0224708
0.0302321
-0.0405439
-0.0353788
0.00309329
0.00395315
0.00402847
0.00172036
0.00471679
-0.00275178
0.00524503
-0.00699524
0.00572069
-0.0107625
0.006192
-0.0129871
0.00675476
-0.0126331
0.00753939
-0.00974255
0.0087044
-0.00370813
0.0103134
0.00344776
0.0125161
0.0115751
0.0152042
0.0169578
0.0185437
0.0192701
0.0221905
0.016076
0.0260006
0.00737951
0.0294882
-0.00290916
0.0322153
-0.0191895
0.0340581
-0.0243136
0.0339228
-0.0404087
-0.034759
0.0113748
0.000242079
-0.00766371
0.0135509
-0.00045573
0.0148947
-0.00409564
0.0157887
-0.00788923
0.0163694
-0.0113432
0.0168111
-0.0134288
0.0172756
-0.0130975
0.0180474
-0.0105144
0.0194058
-0.00506659
0.0215305
0.00132311
0.024656
0.00844954
0.0286002
0.0130136
0.033514
0.0143563
0.0388169
0.0107731
0.0443007
0.00189576
0.0490646
-0.00767312
0.0527617
-0.0228866
0.0551903
-0.0267423
0.0549305
-0.0401489
-0.0338031
0.0246595
-0.00126135
-0.0231561
0.0263327
-0.00212892
0.0274829
-0.00524584
0.0282142
-0.00862058
0.0285249
-0.0116539
0.0285932
-0.0134971
0.0285978
-0.0131021
0.0288744
-0.0107909
0.0297746
-0.00596681
0.0315483
-0.000450647
0.034442
0.0055559
0.0382953
0.00916027
0.0430899
0.00956176
0.0482511
0.00561182
0.0534734
-0.00332645
0.0578275
-0.0120273
0.0610053
-0.0260643
0.0630239
-0.0287608
0.0627418
-0.0398668
-0.0327833
0.0422172
-0.000523447
-0.0429551
0.0424066
-0.00231828
0.0426581
-0.0054973
0.0427722
-0.00873471
0.0425605
-0.0114422
0.0421211
-0.0130577
0.0416106
-0.0125916
0.0413552
-0.0105355
0.0417287
-0.00634026
0.0430332
-0.0017552
0.0455006
0.00308852
0.0490364
0.00562448
0.0534582
0.00513998
0.058196
0.000874034
0.0628886
-0.00801907
0.0666273
-0.015766
0.0691183
-0.0285553
0.0705251
-0.0301676
0.0700875
-0.0394292
-0.0317411
0.0616586
0.00210962
-0.0642917
0.0601899
-0.000849589
0.059181
-0.00448841
0.0583507
-0.00790442
0.0574112
-0.0105027
0.0563712
-0.0120177
0.0553364
-0.0115568
0.054593
-0.00979215
0.0544552
-0.00620246
0.055268
-0.002568
0.0571956
0.00116092
0.0602214
0.00259875
0.064072
0.00128932
0.0681395
-0.00319345
0.0720771
-0.0119566
0.0750193
-0.0187083
0.07673
-0.030266
0.0774253
-0.030863
0.0766769
-0.0386808
-0.030649
0.0794578
0.00561338
-0.0829615
0.0769401
0.00166811
0.0749225
-0.00247089
0.073219
-0.00620087
0.0715812
-0.00886488
0.0699961
-0.0104326
0.0685233
-0.010084
0.0674231
-0.00869191
0.0668934
-0.00567275
0.0672929
-0.00296753
0.0686922
-0.000238399
0.0711062
0.000184819
0.0742637
-0.00186822
0.077499
-0.00642871
0.0805303
-0.0149879
0.0825639
-0.0207419
0.0834625
-0.0311647
0.0834624
-0.0308628
0.0823203
-0.0375387
-0.0294617
0.092762
0.00887456
-0.0960232
0.090096
0.0043341
0.087712
-8.68789e-05
0.0855707
-0.00405958
0.083532
-0.00682618
0.0816387
-0.0085393
0.0799275
-0.00837282
0.0786635
-0.00742794
0.0779333
-0.00494252
0.0780652
-0.00309947
0.0790511
-0.00122428
0.0808682
-0.00163223
0.0833113
-0.00431134
0.0856703
-0.00878772
0.0877567
-0.0170743
0.088881
-0.0218662
0.089004
-0.0312877
0.0884104
-0.0302691
0.086896
-0.0360243
-0.0281607
0.100858
0.0113158
-0.103299
0.098638
0.00655407
0.0964712
0.00207999
0.0943644
-0.00195282
0.092306
-0.00476779
0.0904093
-0.00664262
0.0887059
-0.00666936
0.0874767
-0.00619878
0.0867398
-0.00420556
0.0867549
-0.00311465
0.0874863
-0.00195562
0.0888106
-0.00295658
0.0906078
-0.00610847
0.0921662
-0.0103462
0.0933879
-0.018296
0.0937206
-0.0221989
0.0931824
-0.0307495
0.0921447
-0.0292315
0.0903598
-0.0342394
-0.0267687
0.104704
0.0128947
-0.106282
0.103117
0.00814052
0.101412
0.00378536
0.0996387
-0.000179793
0.0978274
-0.00295645
0.096154
-0.00496921
0.0946509
-0.00516625
0.0935966
-0.00514453
0.0929898
-0.00359874
0.0930013
-0.00312615
0.0936029
-0.0025572
0.0945683
-0.00392202
0.0958439
-0.00738404
0.0967601
-0.0112624
0.0972834
-0.0188192
0.0970213
-0.0219369
0.0959969
-0.029725
0.0946785
-0.027913
0.0927593
-0.0323203
-0.0253382
0.105769
0.0138208
-0.106696
0.10473
0.00917948
0.103497
0.0050185
0.102139
0.00117836
0.100676
-0.00149342
0.0993194
-0.00361245
0.0981049
-0.00395183
0.0972807
-0.00432026
0.0968603
-0.00317837
0.0969203
-0.0031861
0.0974637
-0.00310064
0.0981859
-0.00464423
0.0990724
-0.00827056
0.099531
-0.011721
0.0995548
-0.018843
0.0989137
-0.0212958
0.0975971
-0.0284084
0.0961485
-0.0264644
0.0942245
-0.0303963
-0.0239312
0.105294
0.0143346
-0.105808
0.104639
0.00983414
0.10378
0.00587808
0.102779
0.0021789
0.101655
-0.000369145
0.100605
-0.002563
0.0996804
-0.00302669
0.0990732
-0.00371314
0.0988308
-0.00293593
0.0989449
-0.00330025
0.0994529
-0.00360865
0.100012
-0.00520282
0.10062
-0.00887927
0.100786
-0.0118867
0.100494
-0.0185515
0.0996608
-0.0204621
0.0982244
-0.0269721
0.0967657