/*--------------------------------*- C++ -*----------------------------------*\
| =========                 |                                                 |
| \\      /  F ield         | OpenFOAM: The Open Source CFD Toolbox           |
|  \\    /   O peration     | Version:  v1806                                 |
|   \\  /    A nd           | Web:      www.OpenFOAM.com                      |
|    \\/     M anipulation  |                                                 |
\*---------------------------------------------------------------------------*/
FoamFile
{
    version     2.0;
    format      ascii;
    class       surfaceScalarField;
    location    "6";
    object      phi;
}
// * * * * * * * * * * * * * * * * * * * * * * * * * * * * * * * * * * * * * //

dimensions      [0 3 -1 0 0 0 0];
oriented        oriented;


internalField   nonuniform List<scalar> 
68400
(
0.0589241
0.00189531
0.0141806
0.0453739
0.00196258
0.0115876
0.0356253
0.00155128
0.00819724
0.0294563
0.0012651
0.00490392
0.0258417
0.00110001
0.00251459
0.0235346
0.000979083
0.00132803
0.021878
0.000874931
0.000781645
0.0206155
0.000751226
0.000511266
0.0196305
0.000622812
0.000362213
0.0188374
0.000489341
0.000303816
0.0182117
0.00036913
0.000256483
0.0177169
0.000246935
0.000247881
0.0173532
0.000122037
0.000241661
0.0170876
1.11369e-05
0.000254492
0.0169387
-9.80384e-05
0.000246887
0.0168525
-0.000170758
0.000256983
0.0168544
-0.000268336
0.00026644
0.0168496
-0.000268181
0.000272956
0.0168961
-0.000291468
0.000244968
-0.000193165
0.0001837
0.0169056
0.0612073
0.00135735
0.0143306
0.0495643
0.00171193
0.0118937
0.0409947
0.00150934
0.00861157
0.0352603
0.00133059
0.0056689
0.0318304
0.00120906
0.00332082
0.0297626
0.0010709
0.00197598
0.0283928
0.000954343
0.00129045
0.0274255
0.000810423
0.000908024
0.0267034
0.000666252
0.000678709
0.0261437
0.000493325
0.000555679
0.0257094
0.000329677
0.0004738
0.0253834
0.000157123
0.000415815
0.0251485
-2.60741e-05
0.000382981
0.0250065
-0.000208537
0.000361707
0.0249523
-0.000394401
0.000350499
0.0249688
-0.000534004
0.000346751
0.0250519
-0.000677432
0.000325979
0.0251215
-0.000718721
0.000380949
0.0252635
-0.000734531
0.00030108
-0.000612263
0.000453862
0.0252288
0.0610556
0.000965887
0.0143359
0.0495196
0.00141937
0.0118286
0.0412024
0.00139389
0.00843262
0.0356701
0.00128971
0.00557324
0.0323783
0.00120537
0.00329546
0.030443
0.00104662
0.00195958
0.0291965
0.000913557
0.00128723
0.0283602
0.000741963
0.000904783
0.0277591
0.000585992
0.000681382
0.0273249
0.000384305
0.000543247
0.0269951
0.000194209
0.000465205
0.0267767
-2.36054e-05
0.000399146
0.0266333
-0.000243599
0.000360951
0.0265861
-0.000476882
0.000315529
0.0266138
-0.000706793
0.000284733
0.026716
-0.00090312
0.000266889
0.0268829
-0.00107178
0.000227395
0.0270222
-0.00115358
0.000295616
0.0272449
-0.00115156
0.000194293
-0.00101132
0.000403141
0.0272408
0.0608591
0.000721037
0.0143858
0.0492182
0.00116499
0.0118953
0.0409212
0.00125664
0.00843423
0.0354471
0.00118517
0.00557865
0.0322026
0.00113742
0.00331236
0.0303227
0.000966896
0.00195966
0.0291156
0.000841794
0.00127883
0.0283228
0.0006423
0.000892484
0.0277537
0.000486268
0.000668803
0.0273604
0.000254954
0.000522735
0.0270602
5.59386e-05
0.000438388
0.0268765
-0.000208713
0.000368815
0.0267619
-0.000455982
0.00032698
0.0267465
-0.000749989
0.00028856
0.0268061
-0.00101722
0.000250847
0.0269416
-0.00128007
0.000241382
0.0271581
-0.00147898
0.000190768
0.0273388
-0.00160162
0.000267352
0.0276213
-0.00159011
0.000156025
-0.00141766
0.000370447
0.0276572
0.0607269
0.000572638
0.0144215
0.0490154
0.00095694
0.0119196
0.0407214
0.00114435
0.00840628
0.0352833
0.00108943
0.00553384
0.0320527
0.00108826
0.00327971
0.0302
0.000897315
0.00192232
0.0289987
0.000798752
0.00124435
0.0282223
0.000560222
0.000858467
0.0276484
0.000417729
0.000642394
0.0272645
0.000138609
0.000500244
0.0269599
-6.03841e-05
0.000420905
0.0267846
-0.000383026
0.000349676
0.0266718
-0.000642113
0.000298893
0.0266708
-0.00100769
0.000258704
0.0267439
-0.00130664
0.000216304
0.0269041
-0.00164881
0.000208576
0.027156
-0.00188527
0.000154406
0.0273808
-0.00206059
0.000234154
0.0277203
-0.00205149
0.000121832
-0.00184518
0.000338103
0.0278098
0.0606365
0.000483261
0.0144529
0.0488751
0.000778341
0.01194
0.0405582
0.00104251
0.00841874
0.0351335
0.000977674
0.00553643
0.0318921
0.00103005
0.00329964
0.0300571
0.000801479
0.00193083
0.0288466
0.000750997
0.00125828
0.0280866
0.000457912
0.000862299
0.0274986
0.000353758
0.000652029
0.0271263
1.00802e-05
0.000500806
0.0268044
-0.000160073
0.000421565
0.0266352
-0.000569998
0.000356211
0.0265072
-0.000821764
0.000307661
0.0265166
-0.00128801
0.000270915
0.0265909
-0.00160469
0.000223683
0.026776
-0.00205621
0.000222332
0.0270602
-0.00233052
0.000161063
0.0273397
-0.00258286
0.000242752
0.0277468
-0.00258273
0.000124152
-0.0023448
0.000333347
0.0279131
0.060567
0.000430394
0.0144859
0.0487745
0.000623812
0.011947
0.0404268
0.000955965
0.00843424
0.0350166
0.000859041
0.00552879
0.0317537
0.000979833
0.00331317
0.0299414
0.000693041
0.00192073
0.0287097
0.000717975
0.00126468
0.027973
0.000344408
0.000850184
0.0273544
0.000315477
0.000656869
0.0269994
-0.000131424
0.000496524
0.0266448
-0.000232646
0.000427157
0.0264926
-0.000767223
0.000349431
0.0263356
-0.000967222
0.000302487
0.0263657
-0.00158417
0.0002661
0.0264271
-0.00187936
0.000213224
0.0266502
-0.00249926
0.000219994
0.0269615
-0.00279049
0.000148654
0.0273113
-0.00317581
0.000243178
0.0278006
-0.00318551
0.000113383
-0.00293472
0.000325578
0.028065
0.0605099
0.000397803
0.0145227
0.0487048
0.00049115
0.0119378
0.0403217
0.000889924
0.0084491
0.0349287
0.000740057
0.00551204
0.0316321
0.000944185
0.00333218
0.0298483
0.000574078
0.00190276
0.0285802
0.000705712
0.00128042
0.0278748
0.000218339
0.000831457
0.0272102
0.000308602
0.00067151
0.0268834
-0.00028607
0.000481457
0.0264763
-0.00026409
0.000438536
0.026352
-0.000985035
0.000342111
0.0261415
-0.00106777
0.000310992
0.0262067
-0.00191576
0.000266416
0.0262293
-0.00211616
0.000214146
0.0265084
-0.0030082
0.0002299
0.0268276
-0.00325083
0.000141161
0.027274
-0.00388432
0.000262073
0.0278608
-0.00387525
0.000102891
-0.00365681
0.00033047
0.0282525
0.0604613
0.000373731
0.0145628
0.0486585
0.000376851
0.0119171
0.0402363
0.000847554
0.00846457
0.0348637
0.000622027
0.00549059
0.0315234
0.000927013
0.00335753
0.0297764
0.000445693
0.00187536
0.0284565
0.000720858
0.00130478
0.0277882
8.27615e-05
0.000803781
0.0270642
0.000338096
0.000694587
0.0267746
-0.000454919
0.00045839
0.0262979
-0.000246325
0.000458944
0.0262151
-0.00122446
0.000322244
0.0259282
-0.00110325
0.00032238
0.0260474
-0.00228741
0.000252453
0.0259996
-0.00228237
0.000214009
0.026364
-0.00360282
0.000230274
0.0266579
-0.0036687
0.000123961
0.027247
-0.00475855
0.000285066
0.0279308
-0.0046355
7.65137e-05
-0.00456481
0.000348413
0.0284904
0.0604215
0.000347343
0.0146049
0.0486317
0.000285874
0.0118808
0.0401665
0.000824967
0.00848773
0.0348175
0.000508837
0.00546224
0.0314267
0.000929209
0.00338857
0.0297178
0.000319902
0.00183467
0.0283398
0.000760111
0.00133874
0.0277129
-5.18443e-05
0.000761483
0.0269194
0.000401622
0.000729989
0.0266764
-0.000624052
0.00041218
0.0261131
-0.000177937
0.000494902
0.0260841
-0.00147009
0.000274632
0.025694
-0.00106788
0.000354703
0.0258843
-0.00268823
0.000210584
0.0257274
-0.00235854
0.000233068
0.0262095
-0.00429103
0.000206088
0.0264297
-0.00399793
0.000109022
0.027227
-0.00586042
0.000304611
0.0279712
-0.00540524
2.54494e-05
-0.00578487
0.000423654
0.0287676
0.0603924
0.000313692
0.0146412
0.0486191
0.000219272
0.0118399
0.0401078
0.000816496
0.00851978
0.0347784
0.000407291
0.00543095
0.0313407
0.000946732
0.00342017
0.0296674
0.000204435
0.00178881
0.0282311
0.000819942
0.00137645
0.0276451
-0.000177368
0.00071151
0.026779
0.000498148
0.000769595
0.0265814
-0.000784855
0.00035838
0.0259254
-5.70045e-05
0.000535046
0.02595
-0.001713
0.000218383
0.025443
-0.000950415
0.000389454
0.0257068
-0.00310956
0.000157566
0.0254132
-0.00231557
0.000250628
0.0260281
-0.00507901
0.00017305
0.0261257
-0.0041723
7.67821e-05
0.0272031
-0.00727296
0.000335204
0.0279702
-0.00603748
-0.000134945
-0.00758689
0.000693484
0.0290788
0.0603765
0.000267747
0.0146695
0.0486152
0.000178471
0.0118021
0.0400608
0.000818383
0.00855247
0.0347436
0.000324631
0.00539986
0.0312663
0.000973387
0.00345069
0.0296206
0.000107647
0.00174251
0.0281322
0.000894367
0.001414
0.027578
-0.000282832
0.000659614
0.0266449
0.000619821
0.000811418
0.026483
-0.000920465
0.000297524
0.0257371
0.000106768
0.000582124
0.0258031
-0.00192287
0.000143835
0.025175
-0.000765234
0.000442902
0.0254985
-0.00349898
6.5976e-05
0.0250497
-0.00217587
0.000309111
0.0257904
-0.00588655
6.68256e-05
0.0257171
-0.00421731
0.000118255
0.0271303
-0.00894462
0.00025853
0.0278249
-0.00651686
-0.000215254
-0.0101259
0.000779975
0.0295839
0.0603741
0.000206028
0.0146876
0.0486159
0.000163093
0.0117736
0.0400216
0.000828352
0.00858441
0.0347105
0.000260011
0.00537568
0.0311987
0.00100611
0.0034791
0.0295728
2.67348e-05
0.00170679
0.0280371
0.000979411
0.00145068
0.0275074
-0.00036939
0.000616256
0.0265103
0.000764692
0.000852226
0.0263775
-0.00103116
0.000243456
0.0255398
0.000316771
0.000627758
0.0256411
-0.00210017
7.5942e-05
0.0248804
-0.000494661
0.000490128
0.0252567
-0.00385944
-1.58435e-05
0.0246224
-0.00188967
0.000348101
0.025483
-0.00674109
-6.01318e-06
0.0251882
-0.00400157
7.90149e-05
0.0269581
-0.0110435
0.000329003
0.0275292
-0.00653969
-0.000548288
-0.0141628
0.00155114
0.030015
0.0603915
0.000129254
0.0146853
0.0486143
0.000170292
0.01177
0.0399929
0.000843473
0.00860634
0.0346731
0.000210592
0.0053692
0.0311447
0.00103767
0.00349687
0.0295206
-3.58938e-05
0.00168666
0.0279562
0.00107023
0.00147363
0.0274296
-0.000436952
0.000594197
0.0263889
0.000922877
0.00088247
0.0262603
-0.00111539
0.000212836
0.0253528
0.000559527
0.000664777
0.0254575
-0.00223747
3.25833e-05
0.024586
-0.000157484
0.000534258
0.0249738
-0.00416779
-7.93644e-05
0.0241737
-0.00147687
0.000387261
0.0251064
-0.00757988
-9.39055e-05
0.0245833
-0.00355274
7.42157e-05
0.0267314
-0.0135299
0.000338307
0.026931
-0.00590414
-0.000835106
-0.0205159
0.00252771
0.0307563
0.0604311
3.18413e-05
0.0146663
0.0486073
0.000197656
0.0117965
0.0399699
0.000846816
0.00863401
0.0346259
0.000165751
0.00538887
0.0310971
0.00105099
0.00351545
0.0294564
-0.000102212
0.00170702
0.0278838
0.00114209
0.00150071
0.0273428
-0.000502681
0.000606726
0.0262844
0.00107112
0.000910179
0.0261418
-0.00119621
0.000223469
0.025195
0.000818937
0.000687341
0.0252836
-0.00236663
4.06235e-05
0.024335
0.00025129
0.000539796
0.0247047
-0.00445565
-8.18046e-05
0.0237727
-0.000917705
0.000372789
0.0247383
-0.00843294
-0.000112542
0.0240386
-0.00280726
-4.57283e-05
0.0265945
-0.0164976
0.000411826
0.0261966
-0.00411645
-0.00138983
-0.0307241
0.00413095
0.032274
0.0605184
-8.42729e-05
0.0145977
0.0485904
0.000252267
0.0118734
0.0399814
0.000806962
0.00864884
0.0345551
0.000152794
0.00543929
0.0311043
0.000996732
0.00350511
0.0293837
-0.000113018
0.00173137
0.0278788
0.00113496
0.00151205
0.0272582
-0.00050477
0.000622675
0.0262639
0.00111559
0.000949807
0.0260394
-0.00118273
0.00021106
0.0251416
0.000946331
0.000770334
0.0251396
-0.00233865
-2.59577e-05
0.0242046
0.00048993
0.000696433
0.0244831
-0.00450127
-0.000232898
0.0235025
-0.000527053
0.000589911
0.02446
-0.00897277
-0.000417688
0.0236703
-0.00209038
7.28035e-05
0.0267376
-0.0195254
-3.95124e-05
0.0257158
-0.0013782
-0.00171642
-0.0459512
0.00542083
0.035522
0.0606453
-0.000243436
0.0145139
0.0485634
0.000393035
0.0119411
0.0400063
0.000639638
0.00872444
0.0344536
0.000225723
0.00547972
0.0311165
0.000776603
0.00355726
0.0292769
-1.74287e-05
0.00174407
0.027866
0.000899778
0.00164605
0.027133
-0.000362043
0.000590265
0.026227
0.000869845
0.00115171
0.025889
-0.00097749
0.000132771
0.0250669
0.00070965
0.00105879
0.0249404
-0.00204995
-0.000162179
0.0240556
0.000283033
0.0010917
0.0241772
-0.00415496
-0.000467959
0.0232112
-0.000770106
0.00120911
0.0240332
-0.00894541
-0.000849404
0.0232638
-0.00239022
0.00106929
0.0272929
-0.0225607
-0.000993825
0.0263415
0.00208706
-0.00251386
-0.066494
0.00550152
0.0413827
0.0608159
-0.000349989
0.0142906
0.0485223
0.000550516
0.0121361
0.0400977
0.000397903
0.00866642
0.03426
0.000389897
0.0056735
0.0312277
0.000382843
0.00342603
0.0290519
0.0002909
0.00186748
0.0279888
0.000400208
0.00156264
0.0268528
7.53019e-05
0.000698629
0.0263453
0.000237262
0.00114012
0.0255379
-0.000353336
0.00018323
0.0251478
-9.14157e-05
0.00119122
0.0244757
-0.00115033
-0.000227516
0.0240633
-0.000763287
0.00145872
0.0234991
-0.00284143
-0.000749338
0.0231049
-0.00231806
0.00194214
0.0229527
-0.00713476
-0.00165843
0.0231405
-0.00538745
0.00280942
0.0271972
-0.022135
-0.00448237
0.0260562
0.00271783
0.000510196
-0.0901093
-0.0016963
0.0513678
0.0610102
-0.000490944
0.0141307
0.0484714
0.000922742
0.0121666
0.0402609
-6.38159e-05
0.00867229
0.0341494
0.000908187
0.00559316
0.0314425
-0.000302048
0.00339179
0.0289028
0.00109955
0.00173105
0.0281647
-0.00052432
0.00166269
0.0266297
0.00118242
0.000427804
0.0264892
-0.000976865
0.00135465
0.0251916
0.00123245
-0.000288193
0.0252553
-0.00173725
0.00158213
0.0239556
0.00118063
-0.0010312
0.0240675
-0.00309218
0.00221696
0.0226881
0.000713641
-0.0021757
0.0227277
-0.00589443
0.00353677
0.0213869
-0.00133363
-0.00446028
0.0217662
-0.0123484
0.00658157
0.0209171
-0.0128718
-0.00841399
0.0185118
-0.0163681
0.0214911
-0.108705
-0.0155598
0.0526678
0.0610197
0.0140715
-0.00058221
0.0485347
0.0122157
0.00119206
0.0403581
0.00858624
-0.000473412
0.0342862
0.00561609
0.00136398
0.0316027
0.00319472
-0.000813273
0.0290856
0.0019119
0.00170481
0.0283645
0.00137241
-0.0011757
0.0268657
0.000741025
0.0019402
0.0267051
0.000949439
-0.00176564
0.0254474
0.000317389
0.00217269
0.0254139
0.000973425
-0.0026771
0.0241428
8.55722e-05
0.00236615
0.0240098
0.00121015
-0.00416932
0.0225494
-0.00012072
0.00229477
0.0220165
0.00164307
-0.00700462
0.01999
-0.000135182
0.000828048
0.0200127
0.00220226
-0.0145733
0.01697
0.00286262
-0.0126917
0.0265066
0.022471
-0.0483757
-0.0198266
0.0647917
-0.127164
0.0751921
0.00208671
0.0119019
0.0723317
0.0025485
0.0118995
0.068331
0.00246214
0.00973572
0.0638778
0.00236412
0.00699306
0.0596788
0.0022611
0.00445245
0.0559401
0.00213521
0.00293153
0.0526463
0.00200782
0.00206762
0.0497878
0.00185888
0.00151087
0.047347
0.00168117
0.00112185
0.0452739
0.00148518
0.000891794
0.0435415
0.00128242
0.000706473
0.0420982
0.00109321
0.000597918
0.0409438
0.000861209
0.000534884
0.0400212
0.000666532
0.000510503
0.0393574
0.000431377
0.000479314
0.0388619
0.000279833
0.000472718
0.0385907
4.08715e-05
0.000496691
0.0383857
-6.2145e-05
0.000540101
0.0383204
-0.000194949
0.000505293
-0.000197287
0.000428568
0.0382728
0.07789
0.00150499
0.0120223
0.0778881
0.00221372
0.0122304
0.0765603
0.00234366
0.0100578
0.0744386
0.00238439
0.0077704
0.0721736
0.00240594
0.00544098
0.0700913
0.00233787
0.0038556
0.0682157
0.0022478
0.00292604
0.066586
0.00211085
0.00228582
0.0651704
0.00195046
0.00182495
0.0639655
0.00173179
0.00151398
0.062954
0.00147884
0.00128889
0.0621427
0.00123356
0.00108674
0.0614869
0.000931742
0.000968305
0.0610034
0.000642553
0.000869171
0.0606781
0.000300083
0.000807124
0.0605218
2.74097e-05
0.000755419
0.060514
-0.00029214
0.000666784
0.0605158
-0.000526013
0.000843083
0.0606804
-0.000724116
0.000665649
-0.000798594
0.0012782
0.0604573
0.0777502
0.00106058
0.0120301
0.07786
0.0017517
0.0121808
0.0767929
0.00201799
0.00982544
0.075024
0.00212257
0.00760397
0.0731424
0.00222678
0.0053562
0.0714725
0.00218651
0.00378088
0.0699986
0.00212364
0.0028852
0.068773
0.00197417
0.00226711
0.0677381
0.00182308
0.00184367
0.0669149
0.00158181
0.00151641
0.0662336
0.0013164
0.0013089
0.0657441
0.00101506
0.00110723
0.0653697
0.000679211
0.000987838
0.0651628
0.00030995
0.000854992
0.0650713
-9.23998e-05
0.00076877
0.0651315
-0.000481237
0.0007153
0.0653314
-0.000845749
0.000581137
0.0655136
-0.00117214
0.000759563
0.0658637
-0.00139991
0.000519963
-0.00150557
0.00128566
0.0656882
0.0775755
0.000799702
0.0120711
0.0775736
0.0013978
0.0122511
0.0764484
0.00176277
0.0098147
0.0746797
0.00187555
0.0075944
0.0728194
0.00203726
0.00536218
0.0712171
0.00198671
0.00376167
0.0698097
0.00196051
0.00284943
0.0686721
0.00177853
0.00222571
0.0677178
0.00164097
0.00180523
0.0669944
0.00135647
0.00147147
0.0663971
0.0010932
0.0012589
0.0659985
0.000725077
0.00105742
0.0657045
0.000369781
0.000930395
0.0655811
-8.05629e-05
0.000802482
0.0655673
-0.000528555
0.000700809
0.0656923
-0.00102685
0.000661962
0.0659771
-0.00145878
0.00051902
0.0662287
-0.00187821
0.000721804
0.066678
-0.00214751
0.000454304
-0.00228215
0.00126578
0.0665593
0.0774574
0.000655279
0.0121085
0.0773861
0.00110654
0.0122821
0.076205
0.00155312
0.00979702
0.0744317
0.00163453
0.00754818
0.0725532
0.00186871
0.00532678
0.0709708
0.00177748
0.00371391
0.0695617
0.00181568
0.00279829
0.0684477
0.00157948
0.00217155
0.0674902
0.00148352
0.00175733
0.0667865
0.00113248
0.00142795
0.0661883
0.000893506
0.00121881
0.065805
0.000435779
0.00102229
0.0655146
7.0388e-05
0.000888619
0.0654113
-0.000481796
0.000763305
0.0654159
-0.000965647
0.000648723
0.06557
-0.00157934
0.00060701
0.0658945
-0.00208663
0.000457775
0.0661972
-0.00261109
0.000664338
0.0667218
-0.00294135
0.000391091
-0.00311298
0.00120783
0.0666829
0.077376
0.000586974
0.0121452
0.0772643
0.000857585
0.0123006
0.0760151
0.00139629
0.00982478
0.0742282
0.00140199
0.00755589
0.0723027
0.00173425
0.00535964
0.0707243
0.00155559
0.00373111
0.0692826
0.00169472
0.00282092
0.0681816
0.00136167
0.00218111
0.0671953
0.00134993
0.00177186
0.0665059
0.000887985
0.00143475
0.0658823
0.000718471
0.00122017
0.0655066
0.000137513
0.00103023
0.0651895
-0.0001947
0.000889834
0.0650918
-0.000891077
0.000777876
0.0650864
-0.00139446
0.000657931
0.0652568
-0.00215771
0.00063033
0.0656037
-0.00274281
0.000470259
0.0659595
-0.00340427
0.000680161
0.0665588
-0.00381428
0.000397824
-0.00404213
0.00120524
0.066616
0.0773118
0.000572298
0.0121888
0.0771861
0.000634875
0.0122954
0.0758619
0.00129178
0.00986295
0.0740758
0.00116654
0.00755036
0.0720938
0.00164142
0.00538797
0.0705322
0.0013128
0.00372513
0.0690423
0.00161337
0.00283595
0.0679676
0.00111646
0.00217012
0.0669295
0.00126549
0.0017794
0.0662627
0.000619897
0.00143136
0.0655862
0.000597198
0.00122497
0.0652317
-0.000190195
0.00103165
0.0648658
-0.000411128
0.000884745
0.064788
-0.00132658
0.000779422
0.0647503
-0.00178187
0.000638325
0.0649531
-0.00277142
0.000630894
0.0653126
-0.0034038
0.000450134
0.0657351
-0.00426365
0.000680063
0.0664203
-0.00477015
0.000384068
-0.00508815
0.00119459
0.0665973
0.0772574
0.000595288
0.0122424
0.077148
0.000423009
0.012259
0.0757372
0.00123991
0.00991176
0.0739668
0.000920939
0.00752803
0.0719163
0.00160117
0.00542294
0.0703864
0.00104241
0.00370312
0.0688263
0.00159017
0.00286371
0.0677925
0.000834205
0.00214745
0.0666768
0.0012524
0.00180035
0.0660521
0.000309096
0.00141695
0.0652925
0.000559378
0.0012359
0.0649782
-0.000563111
0.00102941
0.0645249
-0.000532677
0.000885785
0.0644871
-0.00181644
0.000794068
0.0643755
-0.00208641
0.000630329
0.0646298
-0.00345423
0.000658406
0.0649682
-0.00403672
0.000435633
0.0654798
-0.00522282
0.000709688
0.0662575
-0.00582299
0.000378006
-0.00628078
0.00119408
0.0665865
0.0772099
0.000643093
0.012305
0.0771514
0.000208159
0.0121906
0.0756337
0.00124757
0.00997457
0.0738923
0.000659518
0.00749347
0.0717614
0.0016215
0.00546803
0.070279
0.000738251
0.00366192
0.0686279
0.00164064
0.00290543
0.0676477
0.000508895
0.00210929
0.066433
0.00132875
0.00183297
0.0658673
-5.52137e-05
0.00138839
0.0649953
0.000632463
0.00125787
0.0647448
-0.00100582
0.00101545
0.0641666
-0.000520055
0.000887896
0.0642004
-0.0023965
0.000798764
0.0639664
-0.00224634
0.00060794
0.0643107
-0.00425515
0.000686892
0.0645769
-0.00457485
0.000395909
0.0652243
-0.00633565
0.000750464
0.0660702
-0.00695641
0.00036408
-0.00765483
0.00119289
0.0665997
0.0771703
0.000701852
0.0123758
0.0771666
-6.19271e-06
0.0120989
0.0755483
0.00130596
0.0100477
0.0738458
0.000382596
0.00744158
0.0716269
0.00170432
0.00552471
0.0701977
0.000407474
0.00359466
0.0684473
0.00176506
0.00296467
0.0675309
0.000143877
0.00204289
0.0661989
0.00150343
0.00188736
0.0657118
-0.000481313
0.00132537
0.0646971
0.000836117
0.00130589
0.064538
-0.00153074
0.000958668
0.0637885
-0.000332475
0.000916607
0.0639292
-0.00309451
0.000767928
0.0635071
-0.00219454
0.000603338
0.0639904
-0.00523551
0.000703221
0.0641086
-0.00491795
0.000333946
0.0649638
-0.00769754
0.00081128
0.0658212
-0.00806922
0.000280874
-0.00925844
0.00128835
0.0665601
0.07714
0.000761829
0.0124413
0.0771809
-0.000220849
0.0120137
0.0754768
0.00140434
0.0101255
0.0738115
9.91023e-05
0.00737973
0.0715091
0.00184104
0.00558587
0.0701338
5.88113e-05
0.0035128
0.0682831
0.00196003
0.00303214
0.0674341
-0.000254876
0.00195921
0.0659785
0.00177707
0.00195161
0.0655742
-0.000959083
0.00124048
0.0644033
0.00118111
0.00136094
0.0643434
-0.00213915
0.000886663
0.0633949
5.58487e-05
0.0009496
0.0636583
-0.00393183
0.00073149
0.062998
-0.00186308
0.000579527
0.063648
-0.00646066
0.000748181
0.0635414
-0.00493587
0.000201252
0.0646679
-0.00945062
0.000961839
0.0655395
-0.00904775
-2.79827e-05
-0.0113719
0.00144761
0.0668988
0.0771232
0.000811309
0.0124968
0.0771925
-0.000422175
0.0119341
0.0754226
0.00153215
0.0101946
0.0737832
-0.000180674
0.00731899
0.0714096
0.00201943
0.0056459
0.0700767
-0.000298082
0.00343234
0.0681371
0.00221293
0.00310061
0.067341
-0.000671443
0.00187235
0.0657714
0.00213575
0.00202228
0.0654344
-0.00146934
0.00114481
0.0641125
0.00165175
0.00143341
0.0641357
-0.00280359
0.000785086
0.06298
0.000636546
0.00101784
0.0633524
-0.00487397
0.000635781
0.0624161
-0.00124882
0.000631111
0.063235
-0.00790172
0.000688958
0.0628154
-0.00459041
0.000192443
0.0642667
-0.0116262
0.000982802
0.064978
-0.00978317
-0.000191159
-0.0139561
0.00131029
0.067032
0.0771158
0.000845027
0.0125381
0.0772041
-0.000610214
0.0118733
0.0753781
0.0016846
0.0102579
0.0737595
-0.000454353
0.00726804
0.0713176
0.00223487
0.00570555
0.070022
-0.000660038
0.00336433
0.0679935
0.00252084
0.00317131
0.0672474
-0.0011056
0.00179648
0.0655568
0.0025813
0.00209728
0.0652906
-0.00201711
0.00105742
0.0637989
0.00226213
0.00150909
0.0639168
-0.00353684
0.000691291
0.0625144
0.00144739
0.00108168
0.0630177
-0.00595629
0.000563139
0.0617315
-0.000252757
0.000638224
0.0627379
-0.00965852
0.000744441
0.0619173
-0.00367543
-1.53736e-05
0.0636538
-0.0144745
0.00144074
0.0642335
-0.0100537
-0.000857413
-0.0174765
0.00268761
0.0666173
0.0771298
0.000856077
0.0125444
0.0772085
-0.000779352
0.0118604
0.0753569
0.00184856
0.010294
0.0737317
-0.00071153
0.00725156
0.0712515
0.0024687
0.00574324
0.0699632
-0.00101773
0.00333265
0.0678797
0.00286512
0.00321289
0.067146
-0.00154064
0.00176289
0.0653743
0.00308867
0.0021468
0.0651347
-0.00258023
0.00101556
0.0635174
0.00298305
0.00156112
0.0636782
-0.0043063
0.000641298
0.062073
0.00245594
0.00113092
0.0626508
-0.00713093
0.000517412
0.0610368
0.00109012
0.000658431
0.062203
-0.0116728
0.000754254
0.0609043
-0.00218924
-0.000113365
0.0630042
-0.0180045
0.0017685
0.0631809
-0.00975633
-0.00130919
-0.0220774
0.00407183
0.0662377
0.0771698
0.000826114
0.0125264
0.0772023
-0.000922254
0.0119069
0.0753582
0.00200829
0.0103184
0.0737013
-0.000952225
0.00728649
0.071211
0.00269734
0.00577707
0.0699022
-0.00136796
0.00336606
0.0677978
0.0032171
0.00325308
0.0670507
-0.00197583
0.00178906
0.0652424
0.00362563
0.00218149
0.0650081
-0.00316166
0.00103924
0.0633218
0.00378318
0.00157347
0.0635111
-0.00511295
0.00065799
0.0617673
0.00364088
0.00109867
0.0624153
-0.00839052
0.000529796
0.0605184
0.00281959
0.000540186
0.0618709
-0.0139705
0.000832726
0.0600575
4.7794e-05
-0.000469452
0.0626617
-0.0224925
0.00229575
0.0621949
-0.00847107
-0.0022083
-0.0281519
0.00614709
0.0662533
0.07728
0.000713261
0.0124306
0.0771324
-0.000959846
0.0120585
0.075443
0.00206012
0.0102865
0.0736503
-0.00107604
0.00735571
0.0712905
0.00278278
0.00577953
0.069853
-0.0015852
0.00338615
0.0678799
0.00341756
0.00328466
0.0670043
-0.00224506
0.00176749
0.0653289
0.00398978
0.00226103
0.0649845
-0.00354669
0.000940466
0.0634113
0.00441759
0.00170912
0.0635287
-0.00568711
0.000430868
0.061821
0.00474131
0.00130367
0.0624868
-0.0094201
0.000130852
0.0604271
0.0046989
0.000770343
0.0620619
-0.0162463
0.000223291
0.0596698
0.00296842
-0.000455728
0.0631962
-0.0278834
0.00182499
0.0616239
-0.00565866
-0.00295647
-0.0367386
0.0079201
0.0677112
0.0774589
0.000429114
0.0123392
0.077018
-0.000758128
0.0121802
0.0755679
0.0018546
0.0103801
0.0735533
-0.000952978
0.00737121
0.0713921
0.00255892
0.00594239
0.069736
-0.00150367
0.00331863
0.067957
0.00324677
0.00359585
0.0668761
-0.00216623
0.00159225
0.0653933
0.00391117
0.00271315
0.0648613
-0.00351761
0.000635687
0.0634737
0.00452946
0.00233459
0.0634435
-0.0057449
-7.41885e-05
0.0618741
0.00525863
0.00214368
0.0625051
-0.00978244
-0.000736598
0.0604102
0.00609596
0.00190702
0.0624079
-0.017796
-0.00129755
0.0594426
0.00612399
0.000879105
0.0646664
-0.033578
-0.000523161
0.062234
-0.00187514
-0.00386494
-0.0500178
0.00902605
0.0719887
0.0776886
1.41447e-05
0.012017
0.0768886
-0.00025567
0.0124336
0.0757956
0.00129323
0.0103207
0.0732973
-0.000420149
0.00763894
0.0716474
0.00179145
0.00584349
0.06939
-0.000826419
0.00344756
0.0682387
0.00232114
0.00363963
0.0664549
-0.00130497
0.00162111
0.0657238
0.00282635
0.00295607
0.0643478
-0.00239902
0.000440593
0.0638344
0.00330087
0.0029332
0.0628509
-0.00431663
-0.000672245
0.0622677
0.00401494
0.00328556
0.0619251
-0.00810599
-0.00208314
0.0609096
0.00526104
0.00379261
0.0623977
-0.0167176
-0.00422492
0.0602401
0.00766108
0.00342992
0.0677534
-0.0382833
-0.00729029
0.0629726
0.00835483
-0.00493895
-0.0711371
0.00249885
0.0798967
0.0780215
-0.000728788
0.0118522
0.0767419
0.000873661
0.0123169
0.0761416
9.63345e-05
0.0104695
0.073038
0.000919109
0.00735751
0.0719786
0.000205283
0.0060373
0.0689556
0.000956765
0.00297088
0.0684463
0.000265266
0.00422787
0.0657744
0.000985225
0.000809448
0.065775
0.000204598
0.00397589
0.0632528
0.000693936
-0.000858953
0.063581
-9.50728e-05
0.0046498
0.0610703
-0.000119044
-0.00271809
0.0614631
-0.000436243
0.00627535
0.0589044
-0.00217942
-0.00554351
0.0589045
-0.00060717
0.00940481
0.0565506
-0.00845979
-0.0103642
0.0547956
0.00087253
0.0151251
0.0563072
-0.0308073
-0.0174016
0.0450679
0.0150398
0.0260455
-0.0995441
-0.0203675
0.0782827
0.0779471
0.0116692
-0.0012736
0.0769475
0.0123071
0.00178184
0.0762798
0.0102202
-0.00086985
0.0733799
0.00743226
0.00200284
0.0722036
0.00553803
-0.000961739
0.0694583
0.00331772
0.00229624
0.0687346
0.0035149
-0.00115357
0.0664211
0.00145169
0.0025881
0.0660788
0.00298449
-0.00148813
0.0639787
0.000395585
0.0027158
0.0637645
0.00319661
-0.002104
0.0616159
-0.000386121
0.00250119
0.0612639
0.00401991
-0.00289397
0.0585744
-0.00102247
0.00141182
0.057751
0.00580879
-0.00394943
0.0528524
-0.00125223
-0.00244417
0.0516191
0.00991832
-0.00561027
0.0426463
0.000497582
-0.0194694
0.0532802
0.0367829
-0.0099061
-0.0348081
0.100559
-0.131841
0.0770394
0.00207109
0.00779134
0.0779929
0.00257443
0.00837161
0.0779158
0.00255353
0.00725927
0.0766288
0.00258033
0.00569974
0.0745244
0.00255902
0.00399785
0.0720627
0.00249906
0.00289415
0.0694807
0.00242016
0.00222949
0.0669084
0.00232699
0.00175622
0.0644487
0.00219691
0.00138457
0.0621607
0.0020476
0.00113216
0.0600904
0.00186112
0.000915695
0.0582328
0.00169967
0.000755884
0.05664
0.00147507
0.000652587
0.05528
0.00128226
0.000588194
0.0541997
0.00103059
0.000529021
0.0533143
0.000867652
0.000490543
0.0527023
0.000612532
0.000496099
0.0522267
0.000472278
0.000543405
0.0519519
0.000264685
0.00051548
0.000279615
0.000363037
0.0517378
0.0797191
0.00150111
0.00787317
0.0836115
0.00225047
0.00866195
0.0863316
0.00244591
0.00744532
0.0878418
0.00260062
0.00623992
0.0883747
0.0027146
0.00475254
0.0883535
0.00273646
0.00363939
0.0880088
0.00272003
0.0029708
0.087501
0.00265399
0.00246669
0.0868911
0.00255929
0.00207249
0.0862534
0.00242342
0.00177581
0.0856259
0.00221619
0.00156138
0.0850657
0.00201499
0.00133162
0.0845745
0.00174835
0.00118623
0.0841845
0.0014869
0.0010545
0.0838918
0.00115963
0.0009708
0.0837478
0.000868034
0.000899036
0.0837254
0.000547139
0.000754571
0.0838115
0.000291494
0.00093777
0.0840017
1.70738e-05
0.000723076
-9.00461e-05
0.00135381
0.0842957
0.079585
0.00106917
0.00787708
0.0836135
0.00177883
0.00862391
0.0865072
0.00209969
0.00727788
0.0883357
0.00228369
0.00609239
0.0892769
0.00246819
0.00466144
0.089731
0.00251898
0.00354431
0.0898852
0.00254736
0.00290366
0.0899116
0.00247545
0.00241922
0.0898341
0.00240428
0.0020762
0.0897523
0.0022514
0.00177023
0.0896478
0.00205334
0.00157619
0.0896026
0.00180725
0.00136025
0.0895849
0.00152158
0.00123231
0.0896572
0.00119247
0.00107704
0.0897808
0.000834588
0.000970239
0.0900202
0.0004367
0.000907199
0.090342
6.26325e-05
0.000743913
0.0907691
-0.00029952
0.000923426
0.0912744
-0.000604664
0.000636447
-0.000810929
0.00135725
0.0919237
0.0794222
0.000818264
0.00789981
0.0833932
0.00140736
0.00865162
0.0862
0.00182835
0.00727925
0.0880127
0.00199377
0.0060716
0.0889574
0.00223282
0.00465279
0.0894613
0.00226133
0.00351542
0.0896672
0.00233293
0.00285803
0.0897745
0.00222842
0.00236536
0.089778
0.00218166
0.0020244
0.089804
0.00198253
0.00171429
0.0898023
0.00179617
0.00151775
0.0898741
0.00148905
0.0013039
0.0899654
0.00119019
0.00117049
0.0901542
0.000783511
0.00102261
0.0903955
0.000392281
0.00090176
0.0907388
-9.57e-05
0.000851129
0.0911729
-0.000528703
0.000676248
0.0917012
-0.000996226
0.000890199
0.0923276
-0.00134766
0.000570884
-0.0016351
0.00134424
0.0930733
0.0793109
0.00069041
0.00792548
0.0832423
0.0010956
0.00866243
0.0859764
0.0016099
0.00728137
0.0877725
0.00170735
0.0060385
0.0886843
0.00202156
0.00462632
0.0891951
0.00198643
0.00347794