/*--------------------------------*- C++ -*----------------------------------*\
| =========                 |                                                 |
| \\      /  F ield         | OpenFOAM: The Open Source CFD Toolbox           |
|  \\    /   O peration     | Version:  v1806                                 |
|   \\  /    A nd           | Web:      www.OpenFOAM.com                      |
|    \\/     M anipulation  |                                                 |
\*---------------------------------------------------------------------------*/
FoamFile
{
    version     2.0;
    format      ascii;
    class       volVectorField;
    location    "30";
    object      U;
}
// * * * * * * * * * * * * * * * * * * * * * * * * * * * * * * * * * * * * * //

dimensions      [0 1 -1 0 0 0 0];


internalField   nonuniform List<vector> 
4400
(
(0.226485 0.236314 0)
(0.26874 0.171076 0)
(0.282373 0.134151 0)
(0.290226 0.111039 0)
(0.295473 0.0972011 0)
(0.298581 0.0892726 0)
(0.300251 0.0845156 0)
(0.30105 0.081395 0)
(0.301309 0.0792694 0)
(0.301221 0.0778623 0)
(0.300914 0.0770122 0)
(0.30048 0.0766008 0)
(0.299986 0.0765375 0)
(0.299491 0.0767494 0)
(0.299041 0.077175 0)
(0.298675 0.077759 0)
(0.298424 0.078448 0)
(0.298315 0.0791816 0)
(0.298362 0.0799175 0)
(0.298566 0.080709 0)
(0.234041 0.130849 0)
(0.256825 0.101366 0)
(0.271891 0.09466 0)
(0.283779 0.0915173 0)
(0.290838 0.0874732 0)
(0.294856 0.0833841 0)
(0.297345 0.0799663 0)
(0.29891 0.077343 0)
(0.299812 0.0754212 0)
(0.300237 0.0740799 0)
(0.300336 0.0732114 0)
(0.300223 0.0727236 0)
(0.299985 0.0725409 0)
(0.299691 0.0726003 0)
(0.299393 0.0728483 0)
(0.299135 0.0732367 0)
(0.298948 0.0737177 0)
(0.29886 0.0742432 0)
(0.298879 0.0747774 0)
(0.299002 0.0753357 0)
(0.218014 0.0978034 0)
(0.246237 0.0985736 0)
(0.265589 0.0949272 0)
(0.278022 0.0887441 0)
(0.286024 0.0827955 0)
(0.291306 0.0782394 0)
(0.294802 0.0750195 0)
(0.297074 0.0727401 0)
(0.298499 0.0710988 0)
(0.299334 0.069927 0)
(0.299761 0.0691284 0)
(0.299915 0.0686355 0)
(0.299894 0.0683937 0)
(0.299773 0.0683554 0)
(0.299608 0.0684781 0)
(0.299445 0.0687222 0)
(0.299317 0.0690481 0)
(0.299248 0.0694173 0)
(0.29925 0.0697986 0)
(0.299314 0.0701934 0)
(0.233668 0.0680605 0)
(0.252693 0.0722823 0)
(0.26611 0.0730096 0)
(0.276407 0.0727679 0)
(0.284067 0.0718654 0)
(0.289467 0.0704999 0)
(0.293195 0.0689931 0)
(0.29575 0.0675946 0)
(0.297466 0.0664208 0)
(0.298574 0.0655022 0)
(0.299244 0.0648307 0)
(0.299605 0.0643823 0)
(0.299758 0.0641271 0)
(0.299778 0.064034 0)
(0.299725 0.0640722 0)
(0.299643 0.0642113 0)
(0.299567 0.0644206 0)
(0.299519 0.0646697 0)
(0.299513 0.0649342 0)
(0.299537 0.0652072 0)
(0.23905 0.0519833 0)
(0.253534 0.0606103 0)
(0.266028 0.064828 0)
(0.275777 0.0660071 0)
(0.283008 0.0655656 0)
(0.288283 0.0645217 0)
(0.292093 0.0634021 0)
(0.294806 0.0623973 0)
(0.296699 0.0615523 0)
(0.297982 0.060871 0)
(0.298816 0.0603485 0)
(0.299326 0.0599759 0)
(0.299609 0.0597401 0)
(0.29974 0.0596244 0)
(0.299775 0.0596098 0)
(0.29976 0.0596751 0)
(0.299727 0.059798 0)
(0.299701 0.0599558 0)
(0.299693 0.0601306 0)
(0.299693 0.060312 0)
(0.250741 0.0402669 0)
(0.260836 0.0482227 0)
(0.269758 0.0529685 0)
(0.277253 0.0555563 0)
(0.283337 0.0568293 0)
(0.288084 0.0572777 0)
(0.291671 0.0572307 0)
(0.294318 0.0569281 0)
(0.29623 0.0565301 0)
(0.297577 0.0561316 0)
(0.298497 0.0557834 0)
(0.299099 0.0555092 0)
(0.299469 0.0553168 0)
(0.299679 0.0552039 0)
(0.299781 0.0551621 0)
(0.299817 0.0551793 0)
(0.29982 0.0552409 0)
(0.299813 0.0553308 0)
(0.299807 0.0554377 0)
(0.299798 0.0555492 0)
(0.258179 0.0321575 0)
(0.265338 0.0400014 0)
(0.272505 0.0453657 0)
(0.278887 0.0486567 0)
(0.284186 0.0504788 0)
(0.288407 0.051362 0)
(0.291681 0.0516967 0)
(0.294166 0.0517338 0)
(0.296012 0.0516216 0)
(0.29735 0.0514461 0)
(0.298295 0.0512589 0)
(0.298939 0.051091 0)
(0.299359 0.0509595 0)
(0.299618 0.0508718 0)
(0.299765 0.050828 0)
(0.299838 0.0508237 0)
(0.299868 0.0508509 0)
(0.299876 0.0508999 0)
(0.299874 0.0509637 0)
(0.299864 0.0510315 0)
(0.266168 0.0262453 0)
(0.271319 0.0330229 0)
(0.276571 0.0380598 0)
(0.28143 0.0415366 0)
(0.285677 0.0438338 0)
(0.289228 0.0452802 0)
(0.292088 0.0461292 0)
(0.294323 0.0465777 0)
(0.296026 0.0467735 0)
(0.297293 0.0468213 0)
(0.29821 0.0467918 0)
(0.298854 0.0467307 0)
(0.299292 0.0466663 0)
(0.299575 0.046615 0)
(0.299748 0.0465843 0)
(0.299845 0.046576 0)
(0.299893 0.0465878 0)
(0.299913 0.0466151 0)
(0.299917 0.046654 0)
(0.299908 0.0466974 0)
(0.272218 0.0216078 0)
(0.275921 0.0276832 0)
(0.279939 0.0324452 0)
(0.283829 0.0359396 0)
(0.28732 0.0383842 0)
(0.290298 0.0400245 0)
(0.292745 0.0410813 0)
(0.294699 0.0417324 0)
(0.296218 0.0421111 0)
(0.297372 0.0423128 0)
(0.298225 0.0424047 0)
(0.29884 0.0424335 0)
(0.299268 0.0424308 0)
(0.299555 0.0424173 0)
(0.299738 0.0424056 0)
(0.299848 0.042402 0)
(0.299907 0.0424085 0)
(0.299936 0.0424245 0)
(0.299945 0.0424488 0)
(0.299938 0.0424773 0)
(0.277824 0.0180599 0)
(0.280523 0.0232495 0)
(0.283492 0.0275011 0)
(0.286433 0.0307881 0)
(0.289156 0.0332335 0)
(0.291552 0.0349948 0)
(0.293577 0.036222 0)
(0.295231 0.0370473 0)
(0.296544 0.0375807 0)
(0.297559 0.0379102 0)
(0.298324 0.0381023 0)
(0.298885 0.0382061 0)
(0.299285 0.0382564 0)
(0.29956 0.0382775 0)
(0.29974 0.0382852 0)
(0.299852 0.0382894 0)
(0.299917 0.0382952 0)
(0.29995 0.038305 0)
(0.299963 0.03832 0)
(0.299959 0.038338 0)
(0.282345 0.0150733 0)
(0.284306 0.0195893 0)
(0.286528 0.0233831 0)
(0.288792 0.0264166 0)
(0.290932 0.0287532 0)
(0.292848 0.0304965 0)
(0.294493 0.0317597 0)
(0.295858 0.0326495 0)
(0.296959 0.0332584 0)
(0.297823 0.033662 0)
(0.298485 0.0339197 0)
(0.298978 0.0340771 0)
(0.299335 0.0341681 0)
(0.299585 0.0342175 0)
(0.299753 0.0342427 0)
(0.29986 0.0342554 0)
(0.299924 0.034263 0)
(0.299959 0.0342698 0)
(0.299973 0.0342787 0)
(0.299973 0.034289 0)
(0.286324 0.0126564 0)
(0.287743 0.0164824 0)
(0.289367 0.0197784 0)
(0.291047 0.02249 0)
(0.292665 0.0246452 0)
(0.294143 0.0263089 0)
(0.295436 0.0275583 0)
(0.296529 0.0284717 0)
(0.297423 0.0291213 0)
(0.298135 0.0295703 0)
(0.298687 0.0298712 0)
(0.299104 0.0300658 0)
(0.29941 0.0301866 0)
(0.299627 0.0302581 0)
(0.299776 0.0302983 0)
(0.299873 0.0303197 0)
(0.299932 0.030331 0)
(0.299964 0.0303379 0)
(0.29998 0.030344 0)
(0.299982 0.0303502 0)
(0.289594 0.0105374 0)
(0.29061 0.0137949 0)
(0.29179 0.0166389 0)
(0.29303 0.019024 0)
(0.294242 0.0209607 0)
(0.295362 0.0224891 0)
(0.296355 0.0236634 0)
(0.297203 0.0245433 0)
(0.297905 0.0251861 0)
(0.29847 0.0256438 0)
(0.298913 0.0259607 0)
(0.299252 0.0261735 0)
(0.299502 0.0263113 0)
(0.299683 0.0263971 0)
(0.299808 0.0264479 0)
(0.29989 0.0264765 0)
(0.299941 0.0264919 0)
(0.29997 0.0265004 0)
(0.299984 0.0265061 0)
(0.299988 0.0265105 0)
(0.292379 0.0087288 0)
(0.293087 0.0114361 0)
(0.293917 0.0138353 0)
(0.294797 0.0158806 0)
(0.295667 0.0175713 0)
(0.296483 0.0189313 0)
(0.297214 0.0199973 0)
(0.297846 0.0208123 0)
(0.298375 0.0214202 0)
(0.298805 0.0218623 0)
(0.299146 0.0221752 0)
(0.299408 0.0223904 0)
(0.299604 0.0225335 0)
(0.299746 0.0226252 0)
(0.299845 0.0226813 0)
(0.299912 0.022714 0)
(0.299953 0.0227321 0)
(0.299977 0.0227419 0)
(0.299989 0.0227476 0)
(0.299993 0.0227512 0)
(0.294644 0.00709082 0)
(0.295123 0.00931678 0)
(0.295689 0.0113045 0)
(0.296294 0.0130177 0)
(0.296898 0.014452 0)
(0.297469 0.0156213 0)
(0.297984 0.0165506 0)
(0.298433 0.0172713 0)
(0.298812 0.0178168 0)
(0.299122 0.0182197 0)
(0.299369 0.0185095 0)
(0.299561 0.0187121 0)
(0.299705 0.0188493 0)
(0.299811 0.0189387 0)
(0.299885 0.0189946 0)
(0.299934 0.0190277 0)
(0.299966 0.0190463 0)
(0.299984 0.0190562 0)
(0.299993 0.0190614 0)
(0.299996 0.019064 0)
(0.296489 0.00562556 0)
(0.296794 0.00739183 0)
(0.297156 0.00898349 0)
(0.297545 0.0103683 0)
(0.297936 0.0115394 0)
(0.298308 0.0125045 0)
(0.298646 0.0132802 0)
(0.298944 0.0138886 0)
(0.299196 0.0143543 0)
(0.299404 0.0147021 0)
(0.299571 0.0149552 0)
(0.299701 0.015134 0)
(0.299799 0.0152565 0)
(0.299871 0.0153372 0)
(0.299922 0.0153881 0)
(0.299956 0.0154186 0)
(0.299977 0.0154356 0)
(0.29999 0.0154446 0)
(0.299996 0.015449 0)
(0.299998 0.0154508 0)
(0.297915 0.00425952 0)
(0.298093 0.00560614 0)
(0.298305 0.00682471 0)
(0.298534 0.00789093 0)
(0.298764 0.00879878 0)
(0.298985 0.0095524 0)
(0.299186 0.0101627 0)
(0.299364 0.010645 0)
(0.299515 0.0110171 0)
(0.29964 0.011297 0)
(0.299741 0.0115022 0)
(0.299819 0.0116482 0)
(0.299879 0.0117489 0)
(0.299923 0.0118157 0)
(0.299954 0.011858 0)
(0.299974 0.0118833 0)
(0.299987 0.0118975 0)
(0.299994 0.0119048 0)
(0.299998 0.0119082 0)
(0.299999 0.0119094 0)
(0.298967 0.0029859 0)
(0.299053 0.00392959 0)
(0.299157 0.00478774 0)
(0.299269 0.00554176 0)
(0.299383 0.00618682 0)
(0.299492 0.00672502 0)
(0.299593 0.00716312 0)
(0.299681 0.00751116 0)
(0.299757 0.00778094 0)
(0.29982 0.00798483 0)
(0.299871 0.00813481 0)
(0.29991 0.00824192 0)
(0.29994 0.00831587 0)
(0.299962 0.00836494 0)
(0.299978 0.00839597 0)
(0.299988 0.00841446 0)
(0.299994 0.00842468 0)
(0.299998 0.00842982 0)
(0.299999 0.00843207 0)
(0.3 0.00843278 0)
(0.299649 0.00176438 0)
(0.299676 0.00232593 0)
(0.299711 0.00283595 0)
(0.299749 0.00328466 0)
(0.299789 0.00366946 0)
(0.299826 0.00399132 0)
(0.299861 0.00425396 0)
(0.299891 0.00446303 0)
(0.299917 0.00462537 0)
(0.299939 0.00474817 0)
(0.299956 0.00483852 0)
(0.29997 0.00490297 0)
(0.29998 0.00494732 0)
(0.299988 0.00497657 0)
(0.299993 0.00499487 0)
(0.299996 0.00500555 0)
(0.299999 0.00501126 0)
(0.3 0.00501396 0)
(0.3 0.005015 0)
(0.3 0.00501524 0)
(0.299983 0.000590838 0)
(0.299984 0.000770241 0)
(0.299986 0.000937682 0)
(0.299988 0.00108579 0)
(0.29999 0.00121296 0)
(0.299991 0.00131937 0)
(0.299993 0.00140618 0)
(0.299995 0.00147523 0)
(0.299996 0.00152876 0)
(0.299997 0.00156913 0)
(0.299998 0.0015987 0)
(0.299999 0.00161963 0)
(0.299999 0.00163388 0)
(0.3 0.00164311 0)
(0.3 0.00164872 0)
(0.3 0.00165184 0)
(0.3 0.00165335 0)
(0.3 0.00165394 0)
(0.3 0.00165407 0)
(0.3 0.00165404 0)
(0.0941383 -0.157183 0)
(0.0745499 -0.133699 0)
(0.0626824 -0.111935 0)
(0.054434 -0.0924785 0)
(0.0483045 -0.0747613 0)
(0.0436513 -0.0583319 0)
(0.0401502 -0.042889 0)
(0.0376156 -0.0281855 0)
(0.0359342 -0.0139994 0)
(0.035038 -0.000126141 0)
(0.0348925 0.0136272 0)
(0.0354926 0.0274491 0)
(0.0368621 0.0415306 0)
(0.0390586 0.0560724 0)
(0.0421852 0.0712915 0)
(0.0464183 0.0874292 0)
(0.0520756 0.104789 0)
(0.0597994 0.123859 0)
(0.0710904 0.145247 0)
(0.0900869 0.167966 0)
(0.16408 -0.10066 0)
(0.150992 -0.0913171 0)
(0.139624 -0.0806903 0)
(0.130097 -0.0693912 0)
(0.1223 -0.0576761 0)
(0.116074 -0.0456742 0)
(0.111266 -0.0334736 0)
(0.107747 -0.0211367 0)
(0.105419 -0.0087061 0)
(0.104216 0.0037885 0)
(0.104103 0.0163248 0)
(0.105076 0.0288837 0)
(0.107163 0.0414454 0)
(0.110429 0.0539861 0)
(0.114979 0.0664704 0)
(0.120977 0.078838 0)
(0.128659 0.091006 0)
(0.138379 0.102967 0)
(0.150681 0.114823 0)
(0.166391 0.125133 0)
(0.184805 -0.0647068 0)
(0.1798 -0.0591316 0)
(0.175291 -0.0527227 0)
(0.171298 -0.0456234 0)
(0.167841 -0.0379743 0)
(0.164945 -0.0298941 0)
(0.162634 -0.0214817 0)
(0.160925 -0.0128208 0)
(0.159834 -0.00398309 0)
(0.159371 0.00496854 0)
(0.159544 0.0139764 0)
(0.16036 0.0229854 0)
(0.161823 0.0319394 0)
(0.163937 0.0407786 0)
(0.166706 0.0494349 0)
(0.170137 0.0578257 0)
(0.17424 0.0658542 0)
(0.179044 0.0734247 0)
(0.184646 0.080411 0)
(0.191289 0.0862977 0)
(0.211647 -0.0412759 0)
(0.208187 -0.0370248 0)
(0.204984 -0.0324555 0)
(0.202104 -0.0275985 0)
(0.199596 -0.0224875 0)
(0.197495 -0.0171582 0)
(0.195826 -0.0116476 0)
(0.194605 -0.00599409 0)
(0.193845 -0.000236695 0)
(0.193556 0.00558478 0)
(0.193742 0.0114301 0)
(0.194407 0.0172585 0)
(0.195555 0.0230288 0)
(0.197185 0.0286989 0)
(0.199297 0.0342257 0)
(0.201888 0.0395643 0)
(0.204953 0.0446709 0)
(0.208488 0.0495122 0)
(0.212496 0.0540454 0)
(0.21699 0.0580535 0)
(0.226715 -0.029765 0)
(0.224932 -0.0265411 0)
(0.223316 -0.0231062 0)
(0.221884 -0.0194778 0)
(0.220652 -0.0156776 0)
(0.219634 -0.0117296 0)
(0.218843 -0.00765999 0)
(0.218289 -0.00349566 0)
(0.21798 0.000735622 0)
(0.217922 0.00500565 0)
(0.218119 0.00928582 0)
(0.218572 0.0135472 0)
(0.21928 0.0177606 0)
(0.220238 0.0218962 0)
(0.221441 0.0259239 0)
(0.222879 0.0298128 0)
(0.224542 0.0335321 0)
(0.226419 0.0370536 0)
(0.228502 0.0403474 0)
(0.230785 0.0433475 0)
(0.242059 -0.0213509 0)
(0.240826 -0.0187666 0)
(0.239702 -0.0160815 0)
(0.238702 -0.0133046 0)
(0.237841 -0.0104461 0)
(0.237129 -0.00751745 0)
(0.236578 -0.00453112 0)
(0.236194 -0.00150041 0)
(0.235985 0.00156066 0)
(0.235954 0.00463745 0)
(0.236103 0.0077149 0)
(0.236433 0.0107778 0)
(0.236942 0.0138108 0)
(0.237628 0.0167989 0)
(0.238486 0.0197271 0)
(0.239508 0.022581 0)
(0.240686 0.0253473 0)
(0.242011 0.0280164 0)
(0.243472 0.0305786 0)
(0.245057 0.032991 0)
(0.252366 -0.0163435 0)
(0.251624 -0.0142878 0)
(0.250963 -0.0121638 0)
(0.250387 -0.00997766 0)
(0.249901 -0.00773637 0)
(0.24951 -0.00544791 0)
(0.249217 -0.00312098 0)
(0.249025 -0.000764883 0)
(0.248937 0.00161063 0)
(0.248955 0.00399543 0)
(0.249078 0.00637918 0)
(0.249308 0.00875141 0)
(0.249642 0.0111017 0)
(0.250079 0.0134195 0)
(0.250616 0.0156949 0)
(0.251249 0.0179179 0)
(0.251974 0.0200791 0)
(0.252788 0.0221706 0)
(0.253685 0.0241854 0)
(0.254661 0.0261093 0)
(0.262029 -0.0126289 0)
(0.26151 -0.0109391 0)
(0.261047 -0.00921126 0)
(0.260642 -0.00744944 0)
(0.260301 -0.00565805 0)
(0.260026 -0.00384178 0)
(0.25982 -0.00200566 0)
(0.259686 -0.000154917 0)
(0.259626 0.00170499 0)
(0.25964 0.00356846 0)
(0.25973 0.00542982 0)
(0.259895 0.00728335 0)
(0.260134 0.0091234 0)
(0.260446 0.0109444 0)
(0.260828 0.0127409 0)
(0.261279 0.0145075 0)
(0.261795 0.0162396 0)
(0.262373 0.0179335 0)
(0.263008 0.0195859 0)
(0.263697 0.0211826 0)
(0.269187 -0.010069 0)
(0.268846 -0.00868459 0)
(0.268545 -0.0072739 0)
(0.268286 -0.00583967 0)
(0.268072 -0.00438499 0)
(0.267903 -0.00291316 0)
(0.26778 -0.00142772 0)
(0.267706 6.76162e-05 0)
(0.26768 0.00156901 0)
(0.267702 0.00307252 0)
(0.267774 0.00457412 0)
(0.267895 0.00606978 0)
(0.268063 0.00755552 0)
(0.26828 0.00902737 0)
(0.268542 0.0104815 0)
(0.26885 0.0119142 0)
(0.269202 0.013322 0)
(0.269596 0.0147019 0)
(0.270031 0.0160515 0)
(0.270506 0.0173655 0)
(0.275648 -0.00810955 0)
(0.275407 -0.0069537 0)
(0.275194 -0.00578134 0)
(0.275011 -0.00459445 0)
(0.274859 -0.00339512 0)
(0.27474 -0.00218556 0)
(0.274653 -0.00096805 0)
(0.274601 0.000255059 0)
(0.274583 0.00148136 0)
(0.2746 0.0027084 0)
(0.274653 0.00393372 0)
(0.274739 0.00515486 0)
(0.274861 0.00636937 0)
(0.275016 0.00757485 0)
(0.275204 0.00876893 0)
(0.275425 0.00994929 0)
(0.275677 0.0111138 0)
(0.275959 0.0122607 0)
(0.276269 0.0133887 0)
(0.276607 0.0144917 0)
(0.280708 -0.00661211 0)
(0.280541 -0.00565154 0)
(0.280396 -0.00467924 0)
(0.280272 -0.00369664 0)
(0.280171 -0.00270524 0)
(0.280093 -0.00170662 0)
(0.280038 -0.000702428 0)
(0.280007 0.000305628 0)
(0.28 0.00131581 0)
(0.280017 0.00232635 0)
(0.280058 0.00333545 0)
(0.280123 0.00434133 0)
(0.280212 0.00534222 0)
(0.280324 0.00633637 0)
(0.28046 0.00732205 0)
(0.280618 0.00829761 0)
(0.280798 0.00926142 0)
(0.281 0.0102122 0)
(0.281223 0.0111489 0)
(0.281466 0.0120688 0)
(0.285157 -0.00541448 0)
(0.28504 -0.0046101 0)
(0.284937 -0.00379773 0)
(0.28485 -0.0029784 0)
(0.284779 -0.00215321 0)
(0.284724 -0.00132328 0)
(0.284686 -0.000489749 0)
(0.284664 0.000346194 0)
(0.284659 0.00118336 0)
(0.284672 0.00202054 0)
(0.284701 0.00285652 0)
(0.284748 0.0036901 0)
(0.284811 0.00452007 0)
(0.284891 0.00534524 0)
(0.284988 0.00616446 0)
(0.2851 0.00697654 0)
(0.285228 0.00778039 0)
(0.285371 0.00857517 0)
(0.285529 0.00936017 0)
(0.285702 0.0101325 0)
(0.288729 -0.00443352 0)
(0.288648 -0.00376605 0)
(0.288578 -0.00309277 0)
(0.288518 -0.00241446 0)
(0.28847 -0.00173192 0)
(0.288434 -0.00104597 0)
(0.288409 -0.000357463 0)
(0.288395 0.000332728 0)
(0.288394 0.00102372 0)
(0.288405 0.00171464 0)
(0.288427 0.00240456 0)
(0.288461 0.00309262 0)
(0.288508 0.0037779 0)
(0.288566 0.00445954 0)
(0.288635 0.00513667 0)
(0.288716 0.00580844 0)
(0.288807 0.006474 0)
(0.28891 0.00713271 0)
(0.289023 0.00778405 0)
(0.289147 0.00842656 0)
(0.291786 -0.00361049 0)
(0.291731 -0.00305897 0)
(0.291683 -0.00250329 0)
(0.291642 -0.00194404 0)
(0.291609 -0.00138181 0)
(0.291584 -0.000817207 0)
(0.291567 -0.000250851 0)
(0.291558 0.000316626 0)
(0.291558 0.000884586 0)
(0.291565 0.00145239 0)
(0.29158 0.00201938 0)
(0.291604 0.00258494 0)
(0.291636 0.0031484 0)
(0.291675 0.00370915 0)
(0.291723 0.00426654 0)
(0.291778 0.00481996 0)
(0.291841 0.00536881 0)
(0.291911 0.00591261 0)
(0.291989 0.00645104 0)
(0.292073 0.00698261 0)
(0.294231 -0.00289934 0)
(0.294194 -0.00245242 0)
(0.294162 -0.00200247 0)
(0.294136 -0.00154991 0)
(0.294114 -0.00109517 0)
(0.294098 -0.000638729 0)
(0.294088 -0.000181029 0)
(0.294082 0.000277457 0)
(0.294083 0.000736257 0)
(0.294088 0.00119489 0)
(0.294099 0.00165289 0)
(0.294116 0.00210976 0)
(0.294137 0.00256505 0)
(0.294165 0.00301826 0)
(0.294197 0.00346895 0)
(0.294235 0.00391664 0)
(0.294277 0.00436089 0)
(0.294325 0.00480133 0)
(0.294378 0.00523776 0)
(0.294435 0.00566929 0)
(0.296233 -0.00227414 0)
(0.29621 -0.00192024 0)
(0.29619 -0.00156415 0)
(0.296174 -0.00120619 0)
(0.29616 -0.000846689 0)
(0.29615 -0.000485972 0)
(0.296143 -0.00012438 0)
(0.29614 0.000237747 0)
(0.29614 0.000600063 0)
(0.296144 0.000962223 0)
(0.29615 0.00132388 0)
(0.296161 0.00168469 0)
(0.296174 0.0020443 0)
(0.296191 0.00240237 0)
(0.296211 0.00275857 0)
(0.296235 0.00311255 0)
(0.296261 0.00346397 0)
(0.296291 0.00381261 0)
(0.296323 0.00415833 0)
(0.296359 0.00450028 0)
(0.297762 -0.00170954 0)
(0.297749 -0.00144198 0)
(0.297737 -0.00117288 0)
(0.297728 -0.000902454 0)
(0.29772 -0.000630944 0)
(0.297715 -0.000358584 0)
(0.297711 -8.56163e-05 0)
(0.297709 0.000187715 0)
(0.297709 0.000461165 0)
(0.297712 0.000734486 0)
(0.297716 0.00100743 0)
(0.297722 0.00127975 0)
(0.29773 0.00155121 0)
(0.29774 0.00182155 0)
(0.297752 0.00209053 0)
(0.297765 0.00235792 0)
(0.297781 0.00262346 0)
(0.297798 0.00288699 0)
(0.297817 0.00314846 0)
(0.297838 0.00340728 0)
(0.298897 -0.00119048 0)
(0.29889 -0.00100304 0)
(0.298885 -0.000814575 0)
(0.29888 -0.000625234 0)
(0.298876 -0.000435176 0)
(0.298874 -0.000244562 0)
(0.298872 -5.35541e-05 0)
(0.298871 0.000137683 0)
(0.298871 0.000328984 0)
(0.298872 0.000520183 0)
(0.298874 0.000711113 0)
(0.298877 0.000901609 0)
(0.298881 0.00109151 0)
(0.298885 0.00128064 0)
(0.298891 0.00146884 0)
(0.298897 0.00165595 0)
(0.298905 0.00184178 0)
(0.298913 0.00202625 0)
(0.298922 0.00220931 0)
(0.298931 0.00239043 0)
(0.299637 -0.000701283 0)
(0.299635 -0.000590612 0)
(0.299633 -0.000479353 0)
(0.299631 -0.000367597 0)
(0.29963 -0.000255435 0)
(0.299629 -0.000142961 0)
(0.299629 -3.02695e-05 0)
(0.299628 8.25429e-05 0)
(0.299628 0.00019538 0)
(0.299628 0.000308144 0)
(0.299629 0.000420738 0)
(0.29963 0.000533065 0)
(0.299631 0.000645029 0)
(0.299632 0.000756534 0)
(0.299633 0.000867485 0)
(0.299635 0.000977785 0)
(0.299637 0.00108733 0)
(0.299639 0.00119604 0)
(0.299641 0.001304 0)
(0.299642 0.00141112 0)
(0.299988 -0.000231587 0)
(0.299988 -0.000194819 0)
(0.299988 -0.000157853 0)
(0.299988 -0.000120713 0)
(0.299988 -8.34304e-05 0)
(0.299988 -4.60327e-05 0)
(0.299987 -8.54808e-06 0)
(0.299987 2.89953e-05 0)
(0.299987 6.65698e-05 0)
(0.299987 0.000104149 0)
(0.299987 0.000141705 0)
(0.299987 0.000179215 0)
(0.299987 0.000216656 0)
(0.299987 0.000254007 0)
(0.299987 0.000291249 0)
(0.299987 0.00032836 0)
(0.299986 0.000365333 0)
(0.299986 0.000402241 0)
(0.299986 0.000439227 0)
(0.299985 0.00047576 0)
(0.277768 -0.106615 0)
(0.276749 -0.10991 0)
(0.275929 -0.113679 0)
(0.275362 -0.118028 0)
(0.275092 -0.123009 0)
(0.275127 -0.128639 0)
(0.27542 -0.1349 0)
(0.275842 -0.141735 0)
(0.276171 -0.149033 0)
(0.276082 -0.15663 0)
(0.275149 -0.164304 0)
(0.272861 -0.17178 0)
(0.268642 -0.178739 0)
(0.261879 -0.184821 0)
(0.251952 -0.189626 0)
(0.238252 -0.192726 0)
(0.220201 -0.193779 0)
(0.197263 -0.192644 0)
(0.168926 -0.188807 0)
(0.134657 -0.179134 0)
(0.272051 -0.0810641 0)
(0.269678 -0.0815381 0)
(0.266967 -0.0820925 0)
(0.263944 -0.0827087 0)
(0.260639 -0.0834483 0)
(0.257099 -0.0843823 0)
(0.253382 -0.0855815 0)
(0.249561 -0.0871146 0)
(0.24571 -0.0890402 0)
(0.241892 -0.0913948 0)
(0.238133 -0.0941798 0)
(0.234405 -0.097349 0)
(0.230599 -0.100796 0)
(0.22652 -0.104343 0)
(0.221879 -0.107738 0)
(0.216327 -0.110651 0)
(0.209483 -0.112678 0)
(0.200978 -0.113316 0)
(0.190488 -0.111905 0)
(0.177929 -0.107742 0)
(0.270654 -0.083398 0)
(0.269213 -0.0841079 0)
(0.267587 -0.0847486 0)
(0.265744 -0.0853181 0)
(0.263639 -0.0857846 0)
(0.261219 -0.0861195 0)
(0.258433 -0.0863007 0)
(0.255233 -0.0863124 0)
(0.251583 -0.086146 0)
(0.247463 -0.0858005 0)
(0.242874 -0.0852807 0)
(0.237841 -0.0845945 0)
(0.232414 -0.0837463 0)
(0.226661 -0.0827296 0)
(0.220668 -0.0815183 0)
(0.214527 -0.0800586 0)
(0.208328 -0.0782613 0)
(0.202156 -0.075994 0)
(0.196098 -0.0730847 0)
(0.190267 -0.0693578 0)
(0.266138 -0.0649378 0)
(0.264173 -0.0650059 0)
(0.262159 -0.065089 0)
(0.260097 -0.0651612 0)
(0.257992 -0.0652145 0)
(0.255848 -0.0652352 0)
(0.253664 -0.0652023 0)
(0.251435 -0.065089 0)
(0.249148 -0.0648636 0)
(0.246788 -0.0644905 0)
(0.244332 -0.063931 0)
(0.241752 -0.0631462 0)
(0.239023 -0.062098 0)
(0.236121 -0.060752 0)
(0.23303 -0.0590783 0)
(0.229749 -0.0570531 0)
(0.22629 -0.0546586 0)
(0.222685 -0.0518833 0)
(0.218989 -0.0487229 0)
(0.215279 -0.0451823 0)
(0.269465 -0.0589207 0)
(0.267984 -0.0584643 0)
(0.266386 -0.0579308 0)
(0.264674 -0.0573222 0)
(0.262847 -0.0566344 0)
(0.260907 -0.0558638 0)
(0.258858 -0.0550077 0)
(0.256706 -0.0540632 0)
(0.254461 -0.0530269 0)
(0.252136 -0.051894 0)
(0.249747 -0.0506581 0)
(0.247312 -0.0493103 0)
(0.244852 -0.0478392 0)
(0.242387 -0.0462307 0)
(0.239938 -0.0444686 0)
(0.237527 -0.0425353 0)
(0.235173 -0.040413 0)
(0.232896 -0.0380852 0)
(0.230715 -0.035539 0)
(0.228649 -0.0327661 0)
(0.27054 -0.0486978 0)
(0.269266 -0.0481973 0)
(0.267973 -0.0476483 0)
(0.266661 -0.0470429 0)
(0.265328 -0.046373 0)
(0.263976 -0.0456303 0)
(0.262602 -0.0448063 0)
(0.261205 -0.0438925 0)
(0.259784 -0.0428808 0)
(0.25834 -0.0417634 0)
(0.256871 -0.0405335 0)
(0.255379 -0.0391849 0)
(0.253867 -0.037713 0)
(0.252339 -0.0361143 0)
(0.250803 -0.0343865 0)
(0.249267 -0.0325287 0)
(0.247742 -0.0305416 0)
(0.246243 -0.0284266 0)
(0.244785 -0.0261869 0)
(0.243384 -0.0238265 0)
(0.274216 -0.0420441 0)
(0.273191 -0.0413462 0)
(0.272131 -0.040597 0)
(0.271038 -0.039797 0)
(0.269917 -0.0389445 0)
(0.26877 -0.0380373 0)
(0.267601 -0.0370738 0)
(0.266415 -0.0360519 0)
(0.265218 -0.0349692 0)
(0.264016 -0.0338233 0)
(0.262815 -0.0326115 0)
(0.261621 -0.0313309 0)
(0.260442 -0.0299786 0)
(0.259285 -0.0285519 0)
(0.258156 -0.0270481 0)
(0.257063 -0.0254653 0)
(0.256013 -0.0238019 0)
(0.255011 -0.0220571 0)
(0.254065 -0.0202313 0)
(0.253181 -0.0183259 0)
(0.277264 -0.0356069 0)
(0.276472 -0.034939 0)
(0.275674 -0.0342286 0)
(0.27487 -0.0334758 0)
(0.27406 -0.0326778 0)
(0.273247 -0.0318317 0)
(0.27243 -0.0309356 0)
(0.271612 -0.0299873 0)
(0.270794 -0.0289851 0)
(0.269978 -0.0279278 0)
(0.269166 -0.0268141 0)
(0.268361 -0.0256435 0)
(0.267565 -0.0244156 0)
(0.266782 -0.0231305 0)
(0.266017 -0.0217888 0)
(0.265272 -0.0203913 0)
(0.264553 -0.0189395 0)
(0.263864 -0.017435 0)
(0.26321 -0.0158799 0)
(0.262597 -0.0142769 0)
(0.280728 -0.0304228 0)
(0.280098 -0.0297423 0)
(0.279461 -0.0290281 0)
(0.278819 -0.028281 0)
(0.278171 -0.0275002 0)
(0.277522 -0.0266848 0)
(0.276872 -0.0258342 0)
(0.276224 -0.0249478 0)
(0.275581 -0.024025 0)
(0.274945 -0.0230654 0)
(0.274318 -0.0220686 0)
(0.273704 -0.0210341 0)
(0.273105 -0.0199619 0)
(0.272523 -0.0188519 0)
(0.271963 -0.0177042 0)
(0.271426 -0.0165193 0)
(0.270916 -0.0152978 0)
(0.270434 -0.0140406 0)
(0.269984 -0.012749 0)
(0.269567 -0.0114245 0)
(0.283891 -0.0259348 0)
(0.283419 -0.0253098 0)
(0.282946 -0.0246567 0)
(0.282473 -0.0239769 0)
(0.282002 -0.0232695 0)
(0.281532 -0.0225336 0)
(0.281066 -0.0217689 0)
(0.280604 -0.020975 0)
(0.280147 -0.0201518 0)
(0.279698 -0.0192992 0)
(0.279256 -0.0184172 0)
(0.278824 -0.017506 0)
(0.278403 -0.0165662 0)
(0.277995 -0.0155981 0)
(0.277602 -0.0146025 0)
(0.277225 -0.0135803 0)
(0.276866 -0.0125323 0)
(0.276527 -0.0114599 0)
(0.27621 -0.0103643 0)
(0.275916 -0.009247 0)
(0.286867 -0.0220519 0)
(0.286501 -0.0214747 0)
(0.286136 -0.0208759 0)
(0.285771 -0.0202567 0)
(0.285408 -0.0196166 0)
(0.285047 -0.0189554 0)
(0.28469 -0.0182729 0)
(0.284338 -0.0175693 0)
(0.283991 -0.0168445 0)
(0.283651 -0.0160986 0)
(0.283319 -0.0153319 0)
(0.282997 -0.0145445 0)
(0.282685 -0.0137368 0)
(0.282385 -0.0129092 0)
(0.282098 -0.0120621 0)
(0.281824 -0.0111962 0)
(0.281566 -0.0103121 0)
(0.281325 -0.0094107 0)
(0.2811 -0.00849287 0)
(0.280894 -0.00755964 0)
(0.289552 -0.0187081 0)
(0.289284 -0.0181955 0)
(0.289017 -0.0176652 0)
(0.288753 -0.0171186 0)
(0.28849 -0.0165554 0)
(0.288231 -0.0159753 0)
(0.287975 -0.0153784 0)
(0.287723 -0.0147648 0)
(0.287476 -0.0141346 0)
(0.287235 -0.013488 0)
(0.287 -0.0128252 0)
(0.286772 -0.0121467 0)
(0.286551 -0.0114527 0)
(0.286339 -0.0107438 0)
(0.286137 -0.0100204 0)
(0.285944 -0.00928316 0)
(0.285762 -0.00853275 0)
(0.285592 -0.00776986 0)
(0.285434 -0.00699528 0)
(0.285289 -0.00620985 0)
(0.291921 -0.0157267 0)
(0.291722 -0.0152761 0)
(0.291524 -0.0148121 0)
(0.291328 -0.0143355 0)
(0.291134 -0.0138462 0)
(0.290942 -0.0133441 0)
(0.290754 -0.0128293 0)
(0.290569 -0.012302 0)
(0.290389 -0.0117622 0)
(0.290213 -0.0112103 0)
(0.290042 -0.0106465 0)
(0.289876 -0.010071 0)
(0.289717 -0.00948414 0)
(0.289565 -0.00888631 0)
(0.28942 -0.00827791 0)
(0.289283 -0.00765938 0)
(0.289154 -0.00703121 0)
(0.289033 -0.00639394 0)
(0.288922 -0.00574815 0)
(0.288821 -0.00509445 0)
(0.293989 -0.0130951 0)
(0.293849 -0.0127094 0)
(0.293711 -0.0123128 0)
(0.293574 -0.0119064 0)
(0.29344 -0.01149 0)
(0.293307 -0.0110635 0)
(0.293177 -0.0106272 0)
(0.293049 -0.010181 0)
(0.292924 -0.0097253 0)
(0.292803 -0.00926018 0)
(0.292686 -0.00878588 0)
(0.292572 -0.00830267 0)
(0.292463 -0.00781085 0)
(0.292359 -0.00731072 0)
(0.292259 -0.00680264 0)
(0.292165 -0.00628699 0)
(0.292077 -0.00576418 0)
(0.291994 -0.00523464 0)
(0.291918 -0.00469885 0)
(0.291849 -0.0041573 0)
(0.295732 -0.0106898 0)
(0.295635 -0.0103669 0)
(0.29554 -0.0100358 0)
(0.295446 -0.00969712 0)
(0.295353 -0.00935085 0)
(0.295262 -0.00899697 0)
(0.295172 -0.0086356 0)
(0.295085 -0.00826686 0)
(0.294999 -0.00789092 0)
(0.294917 -0.00750795 0)
(0.294836 -0.00711812 0)
(0.294759 -0.00672166 0)
(0.294685 -0.00631879 0)
(0.294614 -0.00590976 0)
(0.294547 -0.00549485 0)
(0.294484 -0.00507433 0)
(0.294424 -0.00464853 0)
(0.294369 -0.00421777 0)
(0.294318 -0.0037824 0)
(0.294272 -0.0033428 0)
(0.297177 -0.00850067 0)
(0.297116 -0.00823967 0)
(0.297055 -0.00797227 0)
(0.296996 -0.00769918 0)
(0.296937 -0.00742031 0)
(0.29688 -0.00713565 0)
(0.296823 -0.00684531 0)
(0.296768 -0.00654941 0)
(0.296715 -0.00624807 0)
(0.296663 -0.00594144 0)
(0.296613 -0.00562967 0)
(0.296564 -0.00531293 0)
(0.296518 -0.00499142 0)
(0.296473 -0.00466532 0)
(0.296431 -0.00433486 0)
(0.296392 -0.00400026 0)
(0.296354 -0.00366177 0)
(0.29632 -0.00331964 0)
(0.296288 -0.00297413 0)
(0.296259 -0.00262554 0)
(0.298314 -0.00645203 0)
(0.298278 -0.00625118 0)
(0.298242 -0.00604567 0)
(0.298207 -0.00583606 0)
(0.298173 -0.00562226 0)
(0.298139 -0.00540426 0)
(0.298106 -0.00518216 0)
(0.298074 -0.00495604 0)
(0.298042 -0.00472601 0)
(0.298012 -0.00449217 0)
(0.297982 -0.00425465 0)
(0.297954 -0.00401357 0)
(0.297927 -0.00376907 0)
(0.297901 -0.00352129 0)
(0.297877 -0.0032704 0)
(0.297854 -0.00301655 0)
(0.297832 -0.00275994 0)
(0.297812 -0.00250073 0)
(0.297794 -0.00223913 0)
(0.297777 -0.00197533 0)
(0.299162 -0.00452702 0)
(0.299145 -0.00438514 0)
(0.299128 -0.0042399 0)
(0.299111 -0.00409185 0)
(0.299094 -0.00394092 0)
(0.299078 -0.0037871 0)
(0.299062 -0.00363046 0)
(0.299047 -0.00347107 0)
(0.299031 -0.003309 0)
(0.299017 -0.00314435 0)
(0.299003 -0.00297718 0)
(0.298989 -0.00280759 0)
(0.298976 -0.00263567 0)
(0.298964 -0.00246154 0)
(0.298952 -0.0022853 0)
(0.298941 -0.00210707 0)
(0.29893 -0.00192696 0)
(0.298921 -0.00174512 0)
(0.298912 -0.00156166 0)
(0.298904 -0.00137673 0)
(0.29972 -0.00267639 0)
(0.299715 -0.00259197 0)
(0.29971 -0.00250577 0)
(0.299705 -0.00241797 0)
(0.2997 -0.00232847 0)
(0.299695 -0.00223728 0)
(0.29969 -0.00214444 0)
(0.299686 -0.00204999 0)
(0.299681 -0.00195399 0)
(0.299676 -0.00185648 0)
(0.299671 -0.00175751 0)
(0.299667 -0.00165714 0)
(0.299663 -0.00155542 0)
(0.299659 -0.00145241 0)
(0.299655 -0.00134819 0)
(0.299651 -0.00124281 0)
(0.299648 -0.00113635 0)
(0.299645 -0.00102889 0)
(0.299642 -0.000920508 0)
(0.299639 -0.000811277 0)
(0.299988 -0.000892053 0)
(0.299989 -0.000863311 0)
(0.299989 -0.000833805 0)
(0.299989 -0.000804022 0)
(0.299989 -0.000773839 0)
(0.299989 -0.00074318 0)
(0.299989 -0.000712041 0)
(0.299989 -0.000680427 0)
(0.299989 -0.000648344 0)
(0.299989 -0.000615798 0)
(0.299989 -0.0005828 0)
(0.299989 -0.000549362 0)
(0.299989 -0.000515499 0)
(0.299989 -0.000481226 0)
(0.299988 -0.000446563 0)
(0.299988 -0.00041153 0)
(0.299988 -0.000376147 0)
(0.299988 -0.000340438 0)
(0.299988 -0.000304425 0)
(0.299988 -0.000268132 0)
(0.0460832 -0.0507066 0)
(0.0336448 -0.0409244 0)
(0.0251269 -0.0324456 0)
(0.0190352 -0.0256977 0)
(0.0145262 -0.0202249 0)
(0.0111009 -0.0157113 0)
(0.00844486 -0.0119898 0)
(0.00635002 -0.00894141 0)
(0.00467448 -0.00646679 0)
(0.00331921 -0.00448398 0)
(0.00221417 -0.00292543 0)
(0.00130985 -0.00173424 0)
(0.000572138 -0.000860907 0)
(-2.07034e-05 -0.000260833 0)
(-0.000479668 0.000108085 0)
(-0.00080537 0.000288746 0)
(-0.000987265 0.000324976 0)
(-0.00100315 0.000256255 0)
(-0.000819479 0.000134113 0)
(-0.00038332 3.40642e-05 0)
(0.0675818 -0.0446629 0)
(0.0578542 -0.040723 0)
(0.0495067 -0.036311 0)
(0.042315 -0.0319479 0)
(0.0360826 -0.0277637 0)
(0.0306545 -0.0238213 0)
(0.0259036 -0.0201709 0)
(0.0217255 -0.016843 0)