x,y,z,p
0,0,0,0.00767649
0,0.1,0,0.0165208
0,0.2,0,0.0253652
0,0.3,0,0.0357272
0,0.4,0,0.0476069
0,0.5,0,0.0594867
0,0.6,0,0.0712782
0,0.7,0,0.0830697
0,0.8,0,0.0947944
0,0.9,0,0.106452
0,1,0,0.11811
0,1.1,0,0.129574
0,1.2,0,0.141038
0,1.3,0,0.152373
0,1.4,0,0.163579
0,1.5,0,0.174785
0,1.6,0,0.185671
0,1.7,0,0.196557
0,1.8,0,0.207258
0,1.9,0,0.217774
0,2,0,0.22829
0,2.1,0,0.238409
0,2.2,0,0.248528
0,2.3,0,0.258444
0,2.4,0,0.268156
0,2.5,0,0.277869
0,2.6,0,0.287176
0,2.7,0,0.296484
0,2.8,0,0.305598
0,2.9,0,0.31452
0,3,0,0.323441
0,3.1,0,0.332012
0,3.2,0,0.340581
0,3.3,0,0.349005
0,3.4,0,0.357282
0,3.5,0,0.36556
0,3.6,0,0.373633
0,3.7,0,0.381706
0,3.8,0,0.389732
0,3.9,0,0.39771
0,4,0,0.405688
0,4.1,0,0.413572
0,4.2,0,0.421455
0,4.3,0,0.429145
0,4.4,0,0.43664
0,4.5,0,0.444135
0,4.6,0,0.450393
0,4.7,0,0.456652
0,4.8,0,0.461718
0,4.9,0,0.465592
0,5,0,0.469466
0,5.1,0,0.475183
0,5.2,0,0.47872
0,5.3,0,0.482029
0,5.4,0,0.485056
0,5.5,0,0.487782
0,5.6,0,0.490199
0,5.7,0,0.492309
0,5.8,0,0.494115
0,5.9,0,0.495613
0,6,0,0.496798
0,6.1,0,0.497659
0,6.2,0,0.498187
0,6.3,0,0.498374
0,6.4,0,0.498223
0,6.5,0,0.49775
0,6.6,0,0.496986
0,6.7,0,0.495985
0,6.8,0,0.49482
0,6.9,0,0.493618
0,7,0,0.491598
0,7.1,0,0.490012
0,7.2,0,0.488425
0,7.3,0,0.486578
0,7.4,0,0.483255
0,7.5,0,0.479932
0,7.6,0,0.476118
0,7.7,0,0.471158
0,7.8,0,0.466199
0,7.9,0,0.460664
0,8,0,0.454424
0,8.1,0,0.448184
0,8.2,0,0.441125
0,8.3,0,0.43352
0,8.4,0,0.425914
0,8.5,0,0.417249
0,8.6,0,0.40823
0,8.7,0,0.399211
0,8.8,0,0.389443
0,8.9,0,0.379591
0,9,0,0.369735
0,9.1,0,0.359793
0,9.2,0,0.34985
0,9.3,0,0.339949
0,9.4,0,0.330216
0,9.5,0,0.320483
0,9.6,0,0.310811
0,9.7,0,0.301251
0,9.8,0,0.291691
0,9.9,0,0.282134
0,10,0,0.272581
0,10.1,0,0.263028
0,10.2,0,0.253418
0,10.3,0,0.243776
0,10.4,0,0.234135
0,10.5,0,0.224405
0,10.6,0,0.214653
0,10.7,0,0.2049
0,10.8,0,0.195017
0,10.9,0,0.185127
0,11,0,0.175221
0,11.1,0,0.165171
0,11.2,0,0.155121
0,11.3,0,0.145035
0,11.4,0,0.13484
0,11.5,0,0.124645
0,11.6,0,0.114398
0,11.7,0,0.104073
0,11.8,0,0.0937482
0,11.9,0,0.0833702
0,12,0,0.0729489
0,12.1,0,0.0625275
0,12.2,0,0.052095
0,12.3,0,0.0416578
0,12.4,0,0.0312206
0,12.5,0,0.0230766
0,12.6,0,0.0153373
0,12.7,0,0.00759801
0.1,0,0,0.00597061
0.1,0.1,0,0.0148143
0.1,0.2,0,0.0238395
0.1,0.3,0,0.0357555
0.1,0.4,0,0.0476271
0.1,0.5,0,0.0596755
0.1,0.6,0,0.071307
0.1,0.7,0,0.0831228
0.1,0.8,0,0.0948624
0.1,0.9,0,0.106498
0.1,1,0,0.118456
0.1,1.1,0,0.129636
0.1,1.2,0,0.141136
0.1,1.3,0,0.152488
0.1,1.4,0,0.16366
0.1,1.5,0,0.175296
0.1,1.6,0,0.185768
0.1,1.7,0,0.196707
0.1,1.8,0,0.207418
0.1,1.9,0,0.217882
0.1,2,0,0.229058
0.1,2.1,0,0.238521
0.1,2.2,0,0.248724
0.1,2.3,0,0.258641
0.1,2.4,0,0.26827
0.1,2.5,0,0.279009
0.1,2.6,0,0.287287
0.1,2.7,0,0.296717
0.1,2.8,0,0.305825
0.1,2.9,0,0.314624
0.1,3,0,0.324934
0.1,3.1,0,0.332103
0.1,3.2,0,0.34082
0.1,3.3,0,0.349226
0.1,3.4,0,0.357353
0.1,3.5,0,0.367058
0.1,3.6,0,0.373675
0.1,3.7,0,0.381867
0.1,3.8,0,0.389864
0.1,3.9,0,0.39772
0.1,4,0,0.406365
0.1,4.1,0,0.413614
0.1,4.2,0,0.421475
0.1,4.3,0,0.429283
0.1,4.4,0,0.436814
0.1,4.5,0,0.442882
0.1,4.6,0,0.450907
0.1,4.7,0,0.456902
0.1,4.8,0,0.462237
0.1,4.9,0,0.466403
0.1,5,0,0.466956
0.1,5.1,0,0.472486
0.1,5.2,0,0.4759
0.1,5.3,0,0.479065
0.1,5.4,0,0.481941
0.1,5.5,0,0.484511
0.1,5.6,0,0.486772
0.1,5.7,0,0.488728
0.1,5.8,0,0.490381
0.1,5.9,0,0.491731
0.1,6,0,0.492772
0.1,6.1,0,0.493496
0.1,6.2,0,0.493892
0.1,6.3,0,0.493954
0.1,6.4,0,0.493682
0.1,6.5,0,0.493089
0.1,6.6,0,0.492199
0.1,6.7,0,0.491059
0.1,6.8,0,0.48973
0.1,6.9,0,0.488317
0.1,7,0,0.485946
0.1,7.1,0,0.490498
0.1,7.2,0,0.488912
0.1,7.3,0,0.482113
0.1,7.4,0,0.483868
0.1,7.5,0,0.480545
0.1,7.6,0,0.473125
0.1,7.7,0,0.471581
0.1,7.8,0,0.465845
0.1,7.9,0,0.459353
0.1,8,0,0.454812
0.1,8.1,0,0.446765
0.1,8.2,0,0.441339
0.1,8.3,0,0.433996
0.1,8.4,0,0.424186
0.1,8.5,0,0.417667
0.1,8.6,0,0.408649
0.1,8.7,0,0.398041
0.1,8.8,0,0.389551
0.1,8.9,0,0.3797
0.1,9,0,0.369928
0.1,9.1,0,0.359742
0.1,9.2,0,0.349799
0.1,9.3,0,0.341014
0.1,9.4,0,0.330134
0.1,9.5,0,0.320401
0.1,9.6,0,0.311965
0.1,9.7,0,0.301223
0.1,9.8,0,0.292354
0.1,9.9,0,0.282837
0.1,10,0,0.272604
0.1,10.1,0,0.264635
0.1,10.2,0,0.253451
0.1,10.3,0,0.243809
0.1,10.4,0,0.236623
0.1,10.5,0,0.224442
0.1,10.6,0,0.21469
0.1,10.7,0,0.208093
0.1,10.8,0,0.195067
0.1,10.9,0,0.185176
0.1,11,0,0.177868
0.1,11.1,0,0.165222
0.1,11.2,0,0.155172
0.1,11.3,0,0.146675
0.1,11.4,0,0.13488
0.1,11.5,0,0.124797
0.1,11.6,0,0.11522
0.1,11.7,0,0.104115
0.1,11.8,0,0.0942476
0.1,11.9,0,0.0836005
0.1,12,0,0.0729681
0.1,12.1,0,0.0631102
0.1,12.2,0,0.0520858
0.1,12.3,0,0.0416486
0.1,12.4,0,0.0316415
0.1,12.5,0,0.0213771
0.1,12.6,0,0.0136378
0.1,12.7,0,0.00590956
0.2,0,0,0.00426472
0.2,0.1,0,0.013108
0.2,0.2,0,0.0239407
0.2,0.3,0,0.0358568
0.2,0.4,0,0.047681
0.2,0.5,0,0.0598644
0.2,0.6,0,0.0713678
0.2,0.7,0,0.083394
0.2,0.8,0,0.0951337
0.2,0.9,0,0.106603
0.2,1,0,0.118803
0.2,1.1,0,0.129755
0.2,1.2,0,0.141559
0.2,1.3,0,0.152911
0.2,1.4,0,0.163827
0.2,1.5,0,0.175807
0.2,1.6,0,0.185948
0.2,1.7,0,0.197329
0.2,1.8,0,0.208041
0.2,1.9,0,0.218123
0.2,2,0,0.229825
0.2,2.1,0,0.238764
0.2,2.2,0,0.249668
0.2,2.3,0,0.259585
0.2,2.4,0,0.26859
0.2,2.5,0,0.28015
0.2,2.6,0,0.287603
0.2,2.7,0,0.298053
0.2,2.8,0,0.307161
0.2,2.9,0,0.315005
0.2,3,0,0.326426
0.2,3.1,0,0.332475
0.2,3.2,0,0.342385
0.2,3.3,0,0.35079
0.2,3.4,0,0.35771
0.2,3.5,0,0.368557
0.2,3.6,0,0.374008
0.2,3.7,0,0.383094
0.2,3.8,0,0.391091
0.2,3.9,0,0.397864
0.2,4,0,0.407043
0.2,4.1,0,0.413783
0.2,4.2,0,0.421297
0.2,4.3,0,0.429105
0.2,4.4,0,0.436702
0.2,4.5,0,0.441629
0.2,4.6,0,0.451067
0.2,4.7,0,0.454788
0.2,4.8,0,0.460122
0.2,4.9,0,0.46655
0.2,5,0,0.464445
0.2,5.1,0,0.469788
0.2,5.2,0,0.47308
0.2,5.3,0,0.476102
0.2,5.4,0,0.478826
0.2,5.5,0,0.481241
0.2,5.6,0,0.483345
0.2,5.7,0,0.485146
0.2,5.8,0,0.486647
0.2,5.9,0,0.487849
0.2,6,0,0.488747
0.2,6.1,0,0.489333
0.2,6.2,0,0.489598
0.2,6.3,0,0.489534
0.2,6.4,0,0.48914
0.2,6.5,0,0.488427
0.2,6.6,0,0.487412
0.2,6.7,0,0.486133
0.2,6.8,0,0.48464
0.2,6.9,0,0.483016
0.2,7,0,0.480294
0.2,7.1,0,0.4884
0.2,7.2,0,0.485104
0.2,7.3,0,0.476073
0.2,7.4,0,0.483256
0.2,7.5,0,0.475181
0.2,7.6,0,0.467057
0.2,7.7,0,0.472004
0.2,7.8,0,0.460364
0.2,7.9,0,0.453872
0.2,8,0,0.4552
0.2,8.1,0,0.442247
0.2,8.2,0,0.436821
0.2,8.3,0,0.434377
0.2,8.4,0,0.421021
0.2,8.5,0,0.415162
0.2,8.6,0,0.408571
0.2,8.7,0,0.396572
0.2,8.8,0,0.388747
0.2,8.9,0,0.379861
0.2,9,0,0.370142
0.2,9.1,0,0.359782
0.2,9.2,0,0.35096
0.2,9.3,0,0.342607
0.2,9.4,0,0.330229
0.2,9.5,0,0.322944
0.2,9.6,0,0.314578
0.2,9.7,0,0.301196
0.2,9.8,0,0.295606
0.2,9.9,0,0.286089
0.2,10,0,0.272627
0.2,10.1,0,0.2682
0.2,10.2,0,0.256922
0.2,10.3,0,0.24422
0.2,10.4,0,0.240243
0.2,10.5,0,0.22712
0.2,10.6,0,0.215899
0.2,10.7,0,0.211555
0.2,10.8,0,0.196823
0.2,10.9,0,0.187012
0.2,11,0,0.181002
0.2,11.1,0,0.166085
0.2,11.2,0,0.157371
0.2,11.3,0,0.149358
0.2,11.4,0,0.134991
0.2,11.5,0,0.126958
0.2,11.6,0,0.117381
0.2,11.7,0,0.104157
0.2,11.8,0,0.0958703
0.2,11.9,0,0.0852232
0.2,12,0,0.0729874
0.2,12.1,0,0.0642
0.2,12.2,0,0.05306
0.2,12.3,0,0.0417432
0.2,12.4,0,0.0321959
0.2,12.5,0,0.0211605
0.2,12.6,0,0.011943
0.2,12.7,0,0.00422112
0.3,0,0,0.00255883
0.3,0.1,0,0.0119444
0.3,0.2,0,0.024042
0.3,0.3,0,0.0359581
0.3,0.4,0,0.0478942
0.3,0.5,0,0.0600532
0.3,0.6,0,0.0716294
0.3,0.7,0,0.0836653
0.3,0.8,0,0.0954049
0.3,0.9,0,0.107017
0.3,1,0,0.119149
0.3,1.1,0,0.13021
0.3,1.2,0,0.141981
0.3,1.3,0,0.153333
0.3,1.4,0,0.16444
0.3,1.5,0,0.176318
0.3,1.6,0,0.186617
0.3,1.7,0,0.197952
0.3,1.8,0,0.208663
0.3,1.9,0,0.219045
0.3,2,0,0.230593
0.3,2.1,0,0.239782
0.3,2.2,0,0.250611
0.3,2.3,0,0.260529
0.3,2.4,0,0.269979
0.3,2.5,0,0.28129
0.3,2.6,0,0.289112
0.3,2.7,0,0.299388
0.3,2.8,0,0.308497
0.3,2.9,0,0.316867
0.3,3,0,0.327918
0.3,3.1,0,0.334409
0.3,3.2,0,0.34395
0.3,3.3,0,0.352355
0.3,3.4,0,0.359657
0.3,3.5,0,0.370056
0.3,3.6,0,0.375863
0.3,3.7,0,0.384321
0.3,3.8,0,0.392319
0.3,3.9,0,0.398907
0.3,4,0,0.40772
0.3,4.1,0,0.414394
0.3,4.2,0,0.421119
0.3,4.3,0,0.428927
0.3,4.4,0,0.435344
0.3,4.5,0,0.440376
0.3,4.6,0,0.449026
0.3,4.7,0,0.452674
0.3,4.8,0,0.458008
0.3,4.9,0,0.463162
0.3,5,0,0.461934
0.3,5.1,0,0.467091
0.3,5.2,0,0.47026
0.3,5.3,0,0.473139
0.3,5.4,0,0.475711
0.3,5.5,0,0.47797
0.3,5.6,0,0.479918
0.3,5.7,0,0.481564
0.3,5.8,0,0.482913
0.3,5.9,0,0.483967
0.3,6,0,0.484721
0.3,6.1,0,0.48517
0.3,6.2,0,0.485303
0.3,6.3,0,0.485114
0.3,6.4,0,0.484599
0.3,6.5,0,0.483765
0.3,6.6,0,0.482625
0.3,6.7,0,0.481207
0.3,6.8,0,0.47955
0.3,6.9,0,0.477715
0.3,7,0,0.474642
0.3,7.1,0,0.482233
0.3,7.2,0,0.479063
0.3,7.3,0,0.470032
0.3,7.4,0,0.475105
0.3,7.5,0,0.469113
0.3,7.6,0,0.460989
0.3,7.7,0,0.463015
0.3,7.8,0,0.454883
0.3,7.9,0,0.448391
0.3,8,0,0.447545
0.3,8.1,0,0.43773
0.3,8.2,0,0.432304
0.3,8.3,0,0.428846
0.3,8.4,0,0.417855
0.3,8.5,0,0.411996
0.3,8.6,0,0.406253
0.3,8.7,0,0.395104
0.3,8.8,0,0.387279
0.3,8.9,0,0.380075
0.3,9,0,0.370356
0.3,9.1,0,0.360255
0.3,9.2,0,0.352553
0.3,9.3,0,0.3442
0.3,9.4,0,0.332886
0.3,9.5,0,0.325557
0.3,9.6,0,0.317192
0.3,9.7,0,0.305533
0.3,9.8,0,0.298859
0.3,9.9,0,0.289342
0.3,10,0,0.277765
0.3,10.1,0,0.271764
0.3,10.2,0,0.260486
0.3,10.3,0,0.249234
0.3,10.4,0,0.243863
0.3,10.5,0,0.23074
0.3,10.6,0,0.219928
0.3,10.7,0,0.215018
0.3,10.8,0,0.200286
0.3,10.9,0,0.190146
0.3,11,0,0.184136
0.3,11.1,0,0.169842
0.3,11.2,0,0.160054
0.3,11.3,0,0.152042
0.3,11.4,0,0.138678
0.3,11.5,0,0.129118
0.3,11.6,0,0.119541
0.3,11.7,0,0.106994
0.3,11.8,0,0.097493
0.3,11.9,0,0.0868459
0.3,12,0,0.074907
0.3,12.1,0,0.0652899
0.3,12.2,0,0.0541498
0.3,12.3,0,0.0426447
0.3,12.4,0,0.0327503
0.3,12.5,0,0.0217149
0.3,12.6,0,0.0104325
0.3,12.7,0,0.00253267
0.4,0,0,0.000852944
0.4,0.1,0,0.0120463
0.4,0.2,0,0.0241436
0.4,0.3,0,0.0361268
0.4,0.4,0,0.0481642
0.4,0.5,0,0.0602421
0.4,0.6,0,0.0720607
0.4,0.7,0,0.0840006
0.4,0.8,0,0.0957965
0.4,0.9,0,0.107589
0.4,1,0,0.119495
0.4,1.1,0,0.130916
0.4,1.2,0,0.142517
0.4,1.3,0,0.153927
0.4,1.4,0,0.165293
0.4,1.5,0,0.176829
0.4,1.6,0,0.187653
0.4,1.7,0,0.198741
0.4,1.8,0,0.20955
0.4,1.9,0,0.220327
0.4,2,0,0.231361
0.4,2.1,0,0.241381
0.4,2.2,0,0.251818
0.4,2.3,0,0.261884
0.4,2.4,0,0.27195
0.4,2.5,0,0.282431
0.4,2.6,0,0.291477
0.4,2.7,0,0.301136
0.4,2.8,0,0.310388
0.4,2.9,0,0.319591
0.4,3,0,0.329411
0.4,3.1,0,0.337374
0.4,3.2,0,0.346075
0.4,3.3,0,0.354491
0.4,3.4,0,0.36265
0.4,3.5,0,0.371555
0.4,3.6,0,0.378547
0.4,3.7,0,0.386131
0.4,3.8,0,0.393813
0.4,3.9,0,0.400801
0.4,4,0,0.408397
0.4,4.1,0,0.414851
0.4,4.2,0,0.421195
0.4,4.3,0,0.428179
0.4,4.4,0,0.433739
0.4,4.5,0,0.439123
0.4,4.6,0,0.445145
0.4,4.7,0,0.449853
0.4,4.8,0,0.454565
0.4,4.9,0,0.457726
0.4,5,0,0.459424
0.4,5.1,0,0.464394
0.4,5.2,0,0.46744
0.4,5.3,0,0.470176
0.4,5.4,0,0.472596
0.4,5.5,0,0.474699
0.4,5.6,0,0.476491
0.4,5.7,0,0.477982
0.4,5.8,0,0.479179
0.4,5.9,0,0.480085
0.4,6,0,0.480696
0.4,6.1,0,0.481007
0.4,6.2,0,0.481009
0.4,6.3,0,0.480694
0.4,6.4,0,0.480058
0.4,6.5,0,0.479103
0.4,6.6,0,0.477838
0.4,6.7,0,0.476281
0.4,6.8,0,0.47446
0.4,6.9,0,0.472414
0.4,7,0,0.468991
0.4,7.1,0,0.470054
0.4,7.2,0,0.467853
0.4,7.3,0,0.463991
0.4,7.4,0,0.462384
0.4,7.5,0,0.459018
0.4,7.6,0,0.454922
0.4,7.7,0,0.451044
0.4,7.8,0,0.447011
0.4,7.9,0,0.441877
0.4,8,0,0.437159
0.4,8.1,0,0.43244
0.4,8.2,0,0.426157
0.4,8.3,0,0.420686
0.4,8.4,0,0.414689
0.4,8.5,0,0.40754
0.4,8.6,0,0.401201
0.4,8.7,0,0.393636
0.4,8.8,0,0.385907
0.4,8.9,0,0.378712
0.4,9,0,0.370569
0.4,9.1,0,0.362113
0.4,9.2,0,0.354349
0.4,9.3,0,0.345794
0.4,9.4,0,0.337175
0.4,9.5,0,0.329053
0.4,9.6,0,0.319978
0.4,9.7,0,0.311427
0.4,9.8,0,0.302876
0.4,9.9,0,0.29362
0.4,10,0,0.284559
0.4,10.1,0,0.275498
0.4,10.2,0,0.265939
0.4,10.3,0,0.256385
0.4,10.4,0,0.247483
0.4,10.5,0,0.236974
0.4,10.6,0,0.226973
0.4,10.7,0,0.218481
0.4,10.8,0,0.206833
0.4,10.9,0,0.196424
0.4,11,0,0.18727
0.4,11.1,0,0.175608
0.4,11.2,0,0.164847
0.4,11.3,0,0.154725
0.4,11.4,0,0.143481
0.4,11.5,0,0.132461
0.4,11.6,0,0.12191
0.4,11.7,0,0.110736
0.4,11.8,0,0.0995618
0.4,11.9,0,0.088863
0.4,12,0,0.0776003
0.4,12.1,0,0.0663797
0.4,12.2,0,0.0555807
0.4,12.3,0,0.0442981
0.4,12.4,0,0.0333047
0.4,12.5,0,0.0222786
0.4,12.6,0,0.0109979
0.4,12.7,0,0.000844223
0.5,0,0,0
0.5,0.1,0,0.0121613
0.5,0.2,0,0.0242585
0.5,0.3,0,0.036417
0.5,0.4,0,0.0484544
0.5,0.5,0,0.0604905
0.5,0.6,0,0.072526
0.5,0.7,0,0.0844658
0.5,0.8,0,0.0964163
0.5,0.9,0,0.108209
0.5,1,0,0.119984
0.5,1.1,0,0.131681
0.5,1.2,0,0.143283
0.5,1.3,0,0.154852
0.5,1.4,0,0.166217
0.5,1.5,0,0.177592
0.5,1.6,0,0.188772
0.5,1.7,0,0.199859
0.5,1.8,0,0.210922
0.5,1.9,0,0.221699
0.5,2,0,0.232495
0.5,2.1,0,0.243079
0.5,2.2,0,0.253516
0.5,2.3,0,0.263961
0.5,2.4,0,0.274027
0.5,2.5,0,0.284009
0.5,2.6,0,0.293962
0.5,2.7,0,0.303621
0.5,2.8,0,0.313246
0.5,2.9,0,0.32245
0.5,3,0,0.331343
0.5,3.1,0,0.340485
0.5,3.2,0,0.349186
0.5,3.3,0,0.357639
0.5,3.4,0,0.365798
0.5,3.5,0,0.373481
0.5,3.6,0,0.381395
0.5,3.7,0,0.388979
0.5,3.8,0,0.395874
0.5,3.9,0,0.402862
0.5,4,0,0.40959
0.5,4.1,0,0.415499
0.5,4.2,0,0.421843
0.5,4.3,0,0.42682
0.5,4.4,0,0.43238
0.5,4.5,0,0.438849
0.5,4.6,0,0.441492
0.5,4.7,0,0.4462
0.5,4.8,0,0.449761
0.5,4.9,0,0.452921
0.5,5,0,0.458597
0.5,5.1,0,0.463631
0.5,5.2,0,0.466688
0.5,5.3,0,0.469417
0.5,5.4,0,0.471816
0.5,5.5,0,0.473887
0.5,5.6,0,0.475637
0.5,5.7,0,0.477078
0.5,5.8,0,0.478217
0.5,5.9,0,0.479058
0.5,6,0,0.479598
0.5,6.1,0,0.479832
0.5,6.2,0,0.479752
0.5,6.3,0,0.479348
0.5,6.4,0,0.478616
0.5,6.5,0,0.477553
0.5,6.6,0,0.476166
0.5,6.7,0,0.474465
0.5,6.8,0,0.472468
0.5,6.9,0,0.470203
0.5,7,0,0.466332
0.5,7.1,0,0.458401
0.5,7.2,0,0.4562
0.5,7.3,0,0.456382
0.5,7.4,0,0.449874
0.5,7.5,0,0.446508
0.5,7.6,0,0.443596
0.5,7.7,0,0.439283
0.5,7.8,0,0.43525
0.5,7.9,0,0.431713
0.5,8,0,0.426995
0.5,8.1,0,0.422277
0.5,8.2,0,0.418251
0.5,8.3,0,0.41278
0.5,8.4,0,0.407993
0.5,8.5,0,0.402783
0.5,8.6,0,0.396444
0.5,8.7,0,0.391449
0.5,8.8,0,0.384791
0.5,8.9,0,0.377595
0.5,9,0,0.371176
0.5,9.1,0,0.364084
0.5,9.2,0,0.35632
0.5,9.3,0,0.349148
0.5,9.4,0,0.341577
0.5,9.5,0,0.333455
0.5,9.6,0,0.326029
0.5,9.7,0,0.317479
0.5,9.8,0,0.308928
0.5,9.9,0,0.300579
0.5,10,0,0.291518
0.5,10.1,0,0.282457
0.5,10.2,0,0.273237
0.5,10.3,0,0.263684
0.5,10.4,0,0.253329
0.5,10.5,0,0.244155
0.5,10.6,0,0.234155
0.5,10.7,0,0.222354
0.5,10.8,0,0.213503
0.5,10.9,0,0.203093
0.5,11,0,0.191174
0.5,11.1,0,0.181475
0.5,11.2,0,0.170713
0.5,11.3,0,0.159122
0.5,11.4,0,0.148348
0.5,11.5,0,0.137328
0.5,11.6,0,0.125685
0.5,11.7,0,0.114511
0.5,11.8,0,0.103337
0.5,11.9,0,0.091579
0.5,12,0,0.0803162
0.5,12.1,0,0.0690147
0.5,12.2,0,0.0572241
0.5,12.3,0,0.0459414
0.5,12.4,0,0.0344047
0.5,12.5,0,0.0228528
0.5,12.6,0,0.0115722
0.5,12.7,0,0
0.6,0,0,0
0.6,0.1,0,0.0122893
0.6,0.2,0,0.0244021
0.6,0.3,0,0.0366335
0.6,0.4,0,0.0487647
0.6,0.5,0,0.0607984
0.6,0.6,0,0.0730252
0.6,0.7,0,0.0849451
0.6,0.8,0,0.0969628
0.6,0.9,0,0.108877
0.6,1,0,0.120615
0.6,1.1,0,0.132506
0.6,1.2,0,0.1441
0.6,1.3,0,0.155738
0.6,1.4,0,0.167214
0.6,1.5,0,0.178609
0.6,1.6,0,0.189973
0.6,1.7,0,0.201088
0.6,1.8,0,0.212256
0.6,1.9,0,0.223162
0.6,2,0,0.233997
0.6,2.1,0,0.244876
0.6,2.2,0,0.255293
0.6,2.3,0,0.265894
0.6,2.4,0,0.276212
0.6,2.5,0,0.286025
0.6,2.6,0,0.296566
0.6,2.7,0,0.305999
0.6,2.8,0,0.31578
0.6,2.9,0,0.325442
0.6,3,0,0.333716
0.6,3.1,0,0.343742
0.6,3.2,0,0.351943
0.6,3.3,0,0.360415
0.6,3.4,0,0.369102
0.6,3.5,0,0.375832
0.6,3.6,0,0.384406
0.6,3.7,0,0.391456
0.6,3.8,0,0.398039
0.6,3.9,0,0.405092
0.6,4,0,0.411298
0.6,4.1,0,0.416336
0.6,4.2,0,0.422872
0.6,4.3,0,0.427068
0.6,4.4,0,0.431266
0.6,4.5,0,0.439552
0.6,4.6,0,0.438068
0.6,4.7,0,0.445195
0.6,4.8,0,0.448456
0.6,4.9,0,0.448749
0.6,5,0,0.459454
0.6,5.1,0,0.464802
0.6,5.2,0,0.468005
0.6,5.3,0,0.470862
0.6,5.4,0,0.47337
0.6,5.5,0,0.475532
0.6,5.6,0,0.477356
0.6,5.7,0,0.478851
0.6,5.8,0,0.480027
0.6,5.9,0,0.480886
0.6,6,0,0.481428
0.6,6.1,0,0.481647
0.6,6.2,0,0.481534
0.6,6.3,0,0.481078
0.6,6.4,0,0.480273
0.6,6.5,0,0.479116
0.6,6.6,0,0.477609
0.6,6.7,0,0.475758
0.6,6.8,0,0.473576
0.6,6.9,0,0.471083
0.6,7,0,0.466666
0.6,7.1,0,0.447274
0.6,7.2,0,0.446774
0.6,7.3,0,0.456023
0.6,7.4,0,0.437576
0.6,7.5,0,0.438701
0.6,7.6,0,0.442675
0.6,7.7,0,0.427733
0.6,7.8,0,0.430218
0.6,7.9,0,0.428649
0.6,8,0,0.417054
0.6,8.1,0,0.419817
0.6,8.2,0,0.414095
0.6,8.3,0,0.405128
0.6,8.4,0,0.406844
0.6,8.5,0,0.399367
0.6,8.6,0,0.391983
0.6,8.7,0,0.390918
0.6,8.8,0,0.383948
0.6,8.9,0,0.376726
0.6,9,0,0.371663
0.6,9.1,0,0.366168
0.6,9.2,0,0.358271
0.6,9.3,0,0.350669
0.6,9.4,0,0.346093
0.6,9.5,0,0.336916
0.6,9.6,0,0.328525
0.6,9.7,0,0.323688
0.6,9.8,0,0.312687
0.6,9.9,0,0.304602
0.6,10,0,0.298642
0.6,10.1,0,0.285682
0.6,10.2,0,0.278581
0.6,10.3,0,0.271129
0.6,10.4,0,0.256424
0.6,10.5,0,0.250473
0.6,10.6,0,0.241472
0.6,10.7,0,0.225395
0.6,10.8,0,0.220295
0.6,10.9,0,0.209575
0.6,11,0,0.194035
0.6,11.1,0,0.187441
0.6,11.2,0,0.175611
0.6,11.3,0,0.161705
0.6,11.4,0,0.153279
0.6,11.5,0,0.140759
0.6,11.6,0,0.128112
0.6,11.7,0,0.118319
0.6,11.8,0,0.105541
0.6,11.9,0,0.0937097
0.6,12,0,0.0830549
0.6,12.1,0,0.0702797
0.6,12.2,0,0.0587119
0.6,12.3,0,0.0475747
0.6,12.4,0,0.0350722
0.6,12.5,0,0.0234493
0.6,12.6,0,0.0121553
0.6,12.7,0,0
0.7,0,0,0
0.7,0.1,0,0.0123277
0.7,0.2,0,0.024556
0.7,0.3,0,0.0367874
0.7,0.4,0,0.0490734
0.7,0.5,0,0.0611064
0.7,0.6,0,0.0733905
0.7,0.7,0,0.085411
0.7,0.8,0,0.0974287
0.7,0.9,0,0.109519
0.7,1,0,0.121246
0.7,1.1,0,0.133195
0.7,1.2,0,0.144912
0.7,1.3,0,0.156551
0.7,1.4,0,0.168225
0.7,1.5,0,0.179626
0.7,1.6,0,0.191045
0.7,1.7,0,0.202336
0.7,1.8,0,0.213504
0.7,1.9,0,0.224652
0.7,2,0,0.235499
0.7,2.1,0,0.246467
0.7,2.2,0,0.257058
0.7,2.3,0,0.267658
0.7,2.4,0,0.278278
0.7,2.5,0,0.28804
0.7,2.6,0,0.298758
0.7,2.7,0,0.308227
0.7,2.8,0,0.318008
0.7,2.9,0,0.328
0.7,3,0,0.336089
0.7,3.1,0,0.34638
0.7,3.2,0,0.354367
0.7,3.3,0,0.362839
0.7,3.4,0,0.371739
0.7,3.5,0,0.378184
0.7,3.6,0,0.386955
0.7,3.7,0,0.393576
0.7,3.8,0,0.400159
0.7,3.9,0,0.406957
0.7,4,0,0.413006
0.7,4.1,0,0.417783
0.7,4.2,0,0.424029
0.7,4.3,0,0.428225
0.7,4.4,0,0.431425
0.7,4.5,0,0.440256
0.7,4.6,0,0.437533
0.7,4.7,0,0.445803
0.7,4.8,0,0.449064
0.7,4.9,0,0.448097
0.7,5,0,0.460311
0.7,5.1,0,0.465974
0.7,5.2,0,0.469322
0.7,5.3,0,0.472307
0.7,5.4,0,0.474925
0.7,5.5,0,0.477178
0.7,5.6,0,0.479074
0.7,5.7,0,0.480625
0.7,5.8,0,0.481837
0.7,5.9,0,0.482715
0.7,6,0,0.483259
0.7,6.1,0,0.483462
0.7,6.2,0,0.483315
0.7,6.3,0,0.482807
0.7,6.4,0,0.48193
0.7,6.5,0,0.480679
0.7,6.6,0,0.479052
0.7,6.7,0,0.477051
0.7,6.8,0,0.474683
0.7,6.9,0,0.471963
0.7,7,0,0.467
0.7,7.1,0,0.446704
0.7,7.2,0,0.446416
0.7,7.3,0,0.455665
0.7,7.4,0,0.433447
0.7,7.5,0,0.43778
0.7,7.6,0,0.441754
0.7,7.7,0,0.421482
0.7,7.8,0,0.428988
0.7,7.9,0,0.427419
0.7,8,0,0.411441
0.7,8.1,0,0.418492
0.7,8.2,0,0.412769
0.7,8.3,0,0.400898
0.7,8.4,0,0.405695
0.7,8.5,0,0.398218
0.7,8.6,0,0.39052
0.7,8.7,0,0.390386
0.7,8.8,0,0.383417
0.7,8.9,0,0.377213
0.7,9,0,0.37215
0.7,9.1,0,0.366908
0.7,9.2,0,0.359791
0.7,9.3,0,0.352189
0.7,9.4,0,0.348796
0.7,9.5,0,0.339206
0.7,9.6,0,0.330815
0.7,9.7,0,0.328
0.7,9.8,0,0.315447
0.7,9.9,0,0.307363
0.7,10,0,0.303675
0.7,10.1,0,0.288691
0.7,10.2,0,0.281589
0.7,10.3,0,0.275942
0.7,10.4,0,0.25952
0.7,10.5,0,0.253568
0.7,10.6,0,0.245189
0.7,10.7,0,0.228437
0.7,10.8,0,0.223337
0.7,10.9,0,0.212437
0.7,11,0,0.196896
0.7,11.1,0,0.191038
0.7,11.2,0,0.178195
0.7,11.3,0,0.164288
0.7,11.4,0,0.156974
0.7,11.5,0,0.142978
0.7,11.6,0,0.130331
0.7,11.7,0,0.121239
0.7,11.8,0,0.107317
0.7,11.9,0,0.0954858
0.7,12,0,0.0850836
0.7,12.1,0,0.0715447
0.7,12.2,0,0.059977
0.7,12.3,0,0.0485471
0.7,12.4,0,0.0357397
0.7,12.5,0,0.0241168
0.7,12.6,0,0.0122013
0.7,12.7,0,0
0.8,0,0,0
0.8,0.1,0,0.0123484
0.8,0.2,0,0.0247099
0.8,0.3,0,0.0369414
0.8,0.4,0,0.0492562
0.8,0.5,0,0.0614143
0.8,0.6,0,0.0736718
0.8,0.7,0,0.0858769
0.8,0.8,0,0.0978946
0.8,0.9,0,0.109988
0.8,1,0,0.121877
0.8,1.1,0,0.133816
0.8,1.2,0,0.145725
0.8,1.3,0,0.157364
0.8,1.4,0,0.169094
0.8,1.5,0,0.180643
0.8,1.6,0,0.192099
0.8,1.7,0,0.203584
0.8,1.8,0,0.214752
0.8,1.9,0,0.225982
0.8,2,0,0.237001
0.8,2.1,0,0.247943
0.8,2.2,0,0.258823
0.8,2.3,0,0.269423
0.8,2.4,0,0.279958
0.8,2.5,0,0.290056
0.8,2.6,0,0.300473
0.8,2.7,0,0.310455
0.8,2.8,0,0.320236
0.8,2.9,0,0.329762
0.8,3,0,0.338462
0.8,3.1,0,0.348087
0.8,3.2,0,0.356791
0.8,3.3,0,0.365263
0.8,3.4,0,0.373387
0.8,3.5,0,0.380536
0.8,3.6,0,0.388595
0.8,3.7,0,0.395697
0.8,3.8,0,0.40228
0.8,3.9,0,0.408578
0.8,4,0,0.414715
0.8,4.1,0,0.419747
0.8,4.2,0,0.425186
0.8,4.3,0,0.429382
0.8,4.4,0,0.433945
0.8,4.5,0,0.44096
0.8,4.6,0,0.441462
0.8,4.7,0,0.44641
0.8,4.8,0,0.449672
0.8,4.9,0,0.452778
0.8,5,0,0.461168
0.8,5.1,0,0.467145
0.8,5.2,0,0.470639
0.8,5.3,0,0.473752
0.8,5.4,0,0.476479
0.8,5.5,0,0.478824
0.8,5.6,0,0.480793
0.8,5.7,0,0.482398
0.8,5.8,0,0.483646
0.8,5.9,0,0.484544
0.8,6,0,0.485089
0.8,6.1,0,0.485277
0.8,6.2,0,0.485097
0.8,6.3,0,0.484537
0.8,6.4,0,0.483588
0.8,6.5,0,0.482242
0.8,6.6,0,0.480495
0.8,6.7,0,0.478344
0.8,6.8,0,0.475791
0.8,6.9,0,0.472843
0.8,7,0,0.467335
0.8,7.1,0,0.453272
0.8,7.2,0,0.449978
0.8,7.3,0,0.455306
0.8,7.4,0,0.44237
0.8,7.5,0,0.438116
0.8,7.6,0,0.440833
0.8,7.7,0,0.43088
0.8,7.8,0,0.427757
0.8,7.9,0,0.426189
0.8,8,0,0.418826
0.8,8.1,0,0.417166
0.8,8.2,0,0.411443
0.8,8.3,0,0.405909
0.8,8.4,0,0.404546
0.8,8.5,0,0.397793
0.8,8.6,0,0.392429
0.8,8.7,0,0.389854
0.8,8.8,0,0.383456
0.8,8.9,0,0.377869
0.8,9,0,0.372637
0.8,9.1,0,0.367024
0.8,9.2,0,0.360892
0.8,9.3,0,0.35371
0.8,9.4,0,0.348325
0.8,9.5,0,0.341417
0.8,9.6,0,0.333105
0.8,9.7,0,0.32684
0.8,9.8,0,0.318208
0.8,9.9,0,0.310124
0.8,10,0,0.302321
0.8,10.1,0,0.291699
0.8,10.2,0,0.284483
0.8,10.3,0,0.275067
0.8,10.4,0,0.262615
0.8,10.5,0,0.255539
0.8,10.6,0,0.245453
0.8,10.7,0,0.231478
0.8,10.8,0,0.224413
0.8,10.9,0,0.213719
0.8,11,0,0.199758
0.8,11.1,0,0.191406
0.8,11.2,0,0.180206
0.8,11.3,0,0.166871
0.8,11.4,0,0.156916
0.8,11.5,0,0.145197
0.8,11.6,0,0.132549
0.8,11.7,0,0.121426
0.8,11.8,0,0.109093
0.8,11.9,0,0.0972619
0.8,12,0,0.0853861
0.8,12.1,0,0.0728097
0.8,12.2,0,0.0611403
0.8,12.3,0,0.0489143
0.8,12.4,0,0.0364073
0.8,12.5,0,0.0245848
0.8,12.6,0,0.0122502
0.8,12.7,0,0
0.9,0,0,0
0.9,0.1,0,0.0123743
0.9,0.2,0,0.0247486
0.9,0.3,0,0.0370931
0.9,0.4,0,0.0494077
0.9,0.5,0,0.0617223
0.9,0.6,0,0.0739465
0.9,0.7,0,0.0861706
0.9,0.8,0,0.0983277
0.9,0.9,0,0.110418
0.9,1,0,0.122508
0.9,1.1,0,0.134436
0.9,1.2,0,0.146364
0.9,1.3,0,0.158194
0.9,1.4,0,0.169927
0.9,1.5,0,0.181659
0.9,1.6,0,0.193163
0.9,1.7,0,0.204667
0.9,1.8,0,0.216036
0.9,1.9,0,0.227269
0.9,2,0,0.238503
0.9,2.1,0,0.249413
0.9,2.2,0,0.260322
0.9,2.3,0,0.271036
0.9,2.4,0,0.281554
0.9,2.5,0,0.292072
0.9,2.6,0,0.302113
0.9,2.7,0,0.312154
0.9,2.8,0,0.321906
0.9,2.9,0,0.33137
0.9,3,0,0.340835
0.9,3.1,0,0.349627
0.9,3.2,0,0.35842
0.9,3.3,0,0.36683
0.9,3.4,0,0.374859
0.9,3.5,0,0.382887
0.9,3.6,0,0.390056
0.9,3.7,0,0.397224
0.9,3.8,0,0.403932
0.9,3.9,0,0.410177
0.9,4,0,0.416423
0.9,4.1,0,0.421775
0.9,4.2,0,0.427127
0.9,4.3,0,0.432175
0.9,4.4,0,0.436919
0.9,4.5,0,0.441663
0.9,4.6,0,0.446199
0.9,4.7,0,0.450734
0.9,4.8,0,0.454806
0.9,4.9,0,0.458415
0.9,5,0,0.462024
0.9,5.1,0,0.468317
0.9,5.2,0,0.471956
0.9,5.3,0,0.475197
0.9,5.4,0,0.478033
0.9,5.5,0,0.48047
0.9,5.6,0,0.482512
0.9,5.7,0,0.484171
0.9,5.8,0,0.485456
0.9,5.9,0,0.486372
0.9,6,0,0.486919
0.9,6.1,0,0.487091
0.9,6.2,0,0.486878
0.9,6.3,0,0.486266
0.9,6.4,0,0.485245
0.9,6.5,0,0.483805
0.9,6.6,0,0.481938
0.9,6.7,0,0.479638
0.9,6.8,0,0.476898
0.9,6.9,0,0.473723
0.9,7,0,0.467669
0.9,7.1,0,0.464375
0.9,7.2,0,0.461081
0.9,7.3,0,0.457642
0.9,7.4,0,0.453388
0.9,7.5,0,0.449134
0.9,7.6,0,0.4448
0.9,7.7,0,0.440279
0.9,7.8,0,0.435757
0.9,7.9,0,0.431079
0.9,8,0,0.42621
0.9,8.1,0,0.421341
0.9,8.2,0,0.416278
0.9,8.3,0,0.411086
0.9,8.4,0,0.405894
0.9,8.5,0,0.400573
0.9,8.6,0,0.395209
0.9,8.7,0,0.389846
0.9,8.8,0,0.384281
0.9,8.9,0,0.378694
0.9,9,0,0.373079
0.9,9.1,0,0.366947
0.9,9.2,0,0.360815
0.9,9.3,0,0.354528
0.9,9.4,0,0.34762
0.9,9.5,0,0.340711
0.9,9.6,0,0.333488
0.9,9.7,0,0.325681
0.9,9.8,0,0.317874
0.9,9.9,0,0.309636
0.9,10,0,0.300966
0.9,10.1,0,0.292297
0.9,10.2,0,0.283142
0.9,10.3,0,0.273726
0.9,10.4,0,0.264309
0.9,10.5,0,0.254358
0.9,10.6,0,0.244272
0.9,10.7,0,0.234186
0.9,10.8,0,0.223523
0.9,10.9,0,0.212829
0.9,11,0,0.202085
0.9,11.1,0,0.190884
0.9,11.2,0,0.179683
0.9,11.3,0,0.168384
0.9,11.4,0,0.156787
0.9,11.5,0,0.145191
0.9,11.6,0,0.133484
0.9,11.7,0,0.121612
0.9,11.8,0,0.109739
0.9,11.9,0,0.0977583
0.9,12,0,0.0856886
0.9,12.1,0,0.0736188
0.9,12.2,0,0.0614397
0.9,12.3,0,0.0492136
0.9,12.4,0,0.0369876
0.9,12.5,0,0.0246693
0.9,12.6,0,0.0123346
0.9,12.7,0,0
1,0,0,0
1,0.1,0,0.012435
1,0.2,0,0.0248216
1,0.3,0,0.0372762
1,0.4,0,0.0495908
1,0.5,0,0.0621027
1,0.6,0,0.0742899
1,0.7,0,0.0865382
1,0.8,0,0.0988449
1,0.9,0,0.110927
1,1,0,0.123313
1,1.1,0,0.135155
1,1.2,0,0.147115
1,1.3,0,0.159153
1,1.4,0,0.170877
1,1.5,0,0.182926
1,1.6,0,0.194363
1,1.7,0,0.205896
1,1.8,0,0.21749
1,1.9,0,0.22872
1,2,0,0.240194
1,2.1,0,0.251079
1,2.2,0,0.262008
1,2.3,0,0.272872
1,2.4,0,0.283387
1,2.5,0,0.294074
1,2.6,0,0.304045
1,2.7,0,0.314104
1,2.8,0,0.323878
1,2.9,0,0.333327
1,3,0,0.343042
1,3.1,0,0.351566
1,3.2,0,0.360396
1,3.3,0,0.368791
1,3.4,0,0.376781
1,3.5,0,0.385324
1,3.6,0,0.392022
1,3.7,0,0.399256
1,3.8,0,0.406102
1,3.9,0,0.412297
1,4,0,0.41933
1,4.1,0,0.424275
1,4.2,0,0.42971
1,4.3,0,0.435367
1,4.4,0,0.440096
1,4.5,0,0.445522
1,4.6,0,0.450965
1,4.7,0,0.455451
1,4.8,0,0.461206
1,4.9,0,0.465051
1,5,0,0.466422
1,5.1,0,0.472674
1,5.2,0,0.476303
1,5.3,0,0.479547
1,5.4,0,0.482396
1,5.5,0,0.48485
1,5.6,0,0.486912
1,5.7,0,0.488593
1,5.8,0,0.489902
1,5.9,0,0.490842
1,6,0,0.491414
1,6.1,0,0.491614
1,6.2,0,0.49143
1,6.3,0,0.49085
1,6.4,0,0.489866
1,6.5,0,0.488471
1,6.6,0,0.48666
1,6.7,0,0.484432
1,6.8,0,0.481788
1,6.9,0,0.478742
1,7,0,0.472958
1,7.1,0,0.47658
1,7.2,0,0.473286
1,7.3,0,0.464445
1,7.4,0,0.46452
1,7.5,0,0.460266
1,7.6,0,0.452149
1,7.7,0,0.449902
1,7.8,0,0.444752
1,7.9,0,0.43788
1,8,0,0.43381
1,8.1,0,0.427681
1,8.2,0,0.421587
1,8.3,0,0.416458
1,8.4,0,0.410044
1,8.5,0,0.403375
1,8.6,0,0.398012
1,8.7,0,0.392362
1,8.8,0,0.385366
1,8.9,0,0.379779
1,9,0,0.374735
1,9.1,0,0.3673
1,9.2,0,0.361168
1,9.3,0,0.355394
1,9.4,0,0.347468
1,9.5,0,0.34056
1,9.6,0,0.333627
1,9.7,0,0.325107
1,9.8,0,0.317586
1,9.9,0,0.309132
1,10,0,0.300119
1,10.1,0,0.292115
1,10.2,0,0.282239
1,10.3,0,0.272822
1,10.4,0,0.264396
1,10.5,0,0.253587
1,10.6,0,0.243501
1,10.7,0,0.234562
1,10.8,0,0.222994
1,10.9,0,0.2123
1,11,0,0.202414
1,11.1,0,0.190643
1,11.2,0,0.179442
1,11.3,0,0.168677
1,11.4,0,0.156878
1,11.5,0,0.145299
1,11.6,0,0.133841
1,11.7,0,0.121929
1,11.8,0,0.110076
1,11.9,0,0.098175
1,12,0,0.0861102
1,12.1,0,0.0739752
1,12.2,0,0.0618178
1,12.3,0,0.0495918
1,12.4,0,0.0371993
1,12.5,0,0.0248124
1,12.6,0,0.0124778
1,12.7,0,0
1.1,0,0,0
1.1,0.1,0,0.0124835
1.1,0.2,0,0.0250051
1.1,0.3,0,0.0374598
1.1,0.4,0,0.0498133
1.1,0.5,0,0.0624832
1.1,0.6,0,0.0746408
1.1,0.7,0,0.087123
1.1,0.8,0,0.0994297
1.1,0.9,0,0.111496
1.1,1,0,0.124118
1.1,1.1,0,0.135891
1.1,1.2,0,0.14815
1.1,1.3,0,0.160188
1.1,1.4,0,0.171891
1.1,1.5,0,0.184192
1.1,1.6,0,0.195577
1.1,1.7,0,0.207385
1.1,1.8,0,0.218979
1.1,1.9,0,0.230219
1.1,2,0,0.241886
1.1,2.1,0,0.252751
1.1,2.2,0,0.263872
1.1,2.3,0,0.274736
1.1,2.4,0,0.285254
1.1,2.5,0,0.296077
1.1,2.6,0,0.305991
1.1,2.7,0,0.316215
1.1,2.8,0,0.32599
1.1,2.9,0,0.335334
1.1,3,0,0.345249
1.1,3.1,0,0.353559
1.1,3.2,0,0.362705
1.1,3.3,0,0.3711
1.1,3.4,0,0.378806
1.1,3.5,0,0.387761
1.1,3.6,0,0.394082
1.1,3.7,0,0.401879
1.1,3.8,0,0.408724
1.1,3.9,0,0.414575
1.1,4,0,0.422236
1.1,4.1,0,0.426857
1.1,4.2,0,0.433035
1.1,4.3,0,0.438692
1.1,4.4,0,0.443409
1.1,4.5,0,0.44938
1.1,4.6,0,0.455549
1.1,4.7,0,0.459732
1.1,4.8,0,0.465488
1.1,4.9,0,0.47124
1.1,5,0,0.470821
1.1,5.1,0,0.477032
1.1,5.2,0,0.480649
1.1,5.3,0,0.483897
1.1,5.4,0,0.486758
1.1,5.5,0,0.48923
1.1,5.6,0,0.491313
1.1,5.7,0,0.493016
1.1,5.8,0,0.494347
1.1,5.9,0,0.495311
1.1,6,0,0.49591
1.1,6.1,0,0.496136
1.1,6.2,0,0.495981
1.1,6.3,0,0.495434
1.1,6.4,0,0.494487
1.1,6.5,0,0.493137
1.1,6.6,0,0.491383
1.1,6.7,0,0.489227
1.1,6.8,0,0.486678
1.1,6.9,0,0.483761
1.1,7,0,0.478247
1.1,7.1,0,0.485874
1.1,7.2,0,0.481053
1.1,7.3,0,0.469903
1.1,7.4,0,0.474606
1.1,7.5,0,0.466181
1.1,7.6,0,0.45745
1.1,7.7,0,0.459526
1.1,7.8,0,0.449591
1.1,7.9,0,0.44272
1.1,8,0,0.441409
1.1,8.1,0,0.431861
1.1,8.2,0,0.425767
1.1,8.3,0,0.421776
1.1,8.4,0,0.413398
1.1,8.5,0,0.406627
1.1,8.6,0,0.400725
1.1,8.7,0,0.394826
1.1,8.8,0,0.38725
1.1,8.9,0,0.381205
1.1,9,0,0.376502
1.1,9.1,0,0.368137
1.1,9.2,0,0.362245
1.1,9.3,0,0.35673
1.1,9.4,0,0.347474
1.1,9.5,0,0.341549
1.1,9.6,0,0.334647
1.1,9.7,0,0.324532
1.1,9.8,0,0.318374
1.1,9.9,0,0.30992
1.1,10,0,0.299272
1.1,10.1,0,0.292756
1.1,10.2,0,0.282839
1.1,10.3,0,0.272071
1.1,10.4,0,0.26494
1.1,10.5,0,0.253784
1.1,10.6,0,0.243156
1.1,10.7,0,0.235036
1.1,10.8,0,0.222966
1.1,10.9,0,0.21233
1.1,11,0,0.202849
1.1,11.1,0,0.19058
1.1,11.2,0,0.179746
1.1,11.3,0,0.169103
1.1,11.4,0,0.156978
1.1,11.5,0,0.145723
1.1,11.6,0,0.134264
1.1,11.7,0,0.122246
1.1,11.8,0,0.11046
1.1,11.9,0,0.0985592
1.1,12,0,0.0865319
1.1,12.1,0,0.0742727
1.1,12.2,0,0.0621238
1.1,12.3,0,0.0499297
1.1,12.4,0,0.0373594
1.1,12.5,0,0.0249667
1.1,12.6,0,0.0125607
1.1,12.7,0,0
1.2,0,0,0
1.2,0.1,0,0.0125204
1.2,0.2,0,0.0251886
1.2,0.3,0,0.0376433
1.2,0.4,0,0.0501939
1.2,0.5,0,0.0628636
1.2,0.6,0,0.0750936
1.2,0.7,0,0.0877078
1.2,0.8,0,0.100014
1.2,0.9,0,0.112324
1.2,1,0,0.124924
1.2,1.1,0,0.136792
1.2,1.2,0,0.149185
1.2,1.3,0,0.161223
1.2,1.4,0,0.173183
1.2,1.5,0,0.185459
1.2,1.6,0,0.19693
1.2,1.7,0,0.208874
1.2,1.8,0,0.220468
1.2,1.9,0,0.231922
1.2,2,0,0.243577
1.2,2.1,0,0.254501
1.2,2.2,0,0.265737
1.2,2.3,0,0.2766
1.2,2.4,0,0.287266
1.2,2.5,0,0.29808
1.2,2.6,0,0.308047
1.2,2.7,0,0.318326
1.2,2.8,0,0.328101
1.2,2.9,0,0.337587
1.2,3,0,0.347456
1.2,3.1,0,0.355877
1.2,3.2,0,0.365014
1.2,3.3,0,0.373409
1.2,3.4,0,0.381359
1.2,3.5,0,0.390198
1.2,3.6,0,0.396716
1.2,3.7,0,0.404501
1.2,3.8,0,0.411347
1.2,3.9,0,0.417632
1.2,4,0,0.425143
1.2,4.1,0,0.430011
1.2,4.2,0,0.43636
1.2,4.3,0,0.442017
1.2,4.4,0,0.447312
1.2,4.5,0,0.453238
1.2,4.6,0,0.459262
1.2,4.7,0,0.464013
1.2,4.8,0,0.469769
1.2,4.9,0,0.474931
1.2,5,0,0.475219
1.2,5.1,0,0.481389
1.2,5.2,0,0.484996
1.2,5.3,0,0.488247
1.2,5.4,0,0.491121
1.2,5.5,0,0.49361
1.2,5.6,0,0.495713
1.2,5.7,0,0.497438
1.2,5.8,0,0.498793
1.2,5.9,0,0.499781
1.2,6,0,0.500405
1.2,6.1,0,0.500658
1.2,6.2,0,0.500533
1.2,6.3,0,0.500018
1.2,6.4,0,0.499109
1.2,6.5,0,0.497803
1.2,6.6,0,0.496105
1.2,6.7,0,0.494022
1.2,6.8,0,0.491568
1.2,6.9,0,0.488779
1.2,7,0,0.483537
1.2,7.1,0,0.49063