/*--------------------------------*- C++ -*----------------------------------*\
| =========                 |                                                 |
| \\      /  F ield         | OpenFOAM: The Open Source CFD Toolbox           |
|  \\    /   O peration     | Version:  v1806                                 |
|   \\  /    A nd           | Web:      www.OpenFOAM.com                      |
|    \\/     M anipulation  |                                                 |
\*---------------------------------------------------------------------------*/
FoamFile
{
    version     2.0;
    format      ascii;
    class       volScalarField;
    location    "120";
    object      p;
}
// * * * * * * * * * * * * * * * * * * * * * * * * * * * * * * * * * * * * * //

dimensions      [0 2 -2 0 0 0 0];


internalField   nonuniform List<scalar> 
4400
(
0.00829857
0.00992333
0.00967589
0.00849011
0.0072012
0.00598261
0.00495333
0.00415502
0.00355304
0.0030844
0.00269845
0.0023618
0.00205354
0.00176132
0.00147854
0.00120192
0.000929679
0.000660606
0.000393805
0.000129422
0.0266439
0.0190626
0.0139736
0.010849
0.00880924
0.00736751
0.00627788
0.00542393
0.00473217
0.00414694
0.00363027
0.00316006
0.00272401
0.00231449
0.00192602
0.00155422
0.00119542
0.000846309
0.000504057
0.000166708
0.0216465
0.0182207
0.0154206
0.0131076
0.0112857
0.0097563
0.00841148
0.00723161
0.00621151
0.00533628
0.0045822
0.00392416
0.00333985
0.00281099
0.00232331
0.00186596
0.0014307
0.00101112
0.000602173
0.000199853
0.0212255
0.0186227
0.0160254
0.0137066
0.0117564
0.0101607
0.00882563
0.00768481
0.00669729
0.00583326
0.00506739
0.00437845
0.00374979
0.00316868
0.00262523
0.00211134
0.00162021
0.00114586
0.000683156
0.000227343
0.0176961
0.0161739
0.0146348
0.0131458
0.0117373
0.0104441
0.00927013
0.00819763
0.00721635
0.00632106
0.0055056
0.00476141
0.00407841
0.0034463
0.00285539
0.00229695
0.00176331
0.00124776
0.000744547
0.000248205
0.0161285
0.0150426
0.0138264
0.0125601
0.0113254
0.0101625
0.00909039
0.00810704
0.00720368
0.00637103
0.00560057
0.004884
0.00421333
0.00358116
0.00298085
0.00240638
0.00185223
0.00131328
0.000784868
0.000262053
0.0139659
0.0132262
0.0123971
0.0115162
0.0106128
0.00970996
0.00882737
0.00797708
0.00716329
0.00638771
0.00565071
0.00495127
0.00428693
0.0036541
0.00304852
0.00246561
0.00190072
0.00134933
0.000807255
0.000269785
0.0126492
0.0120867
0.0114276
0.0106974
0.00993009
0.00915098
0.00837785
0.00762309
0.00689273
0.00618892
0.00551173
0.00486011
0.00423219
0.00362558
0.00303755
0.00246521
0.00190553
0.00135547
0.00081208
0.000271644
0.0112141
0.0107946
0.0103005
0.00974895
0.00915517
0.00853342
0.0078956
0.0072521
0.00661069
0.00597662
0.00535335
0.00474298
0.00414639
0.00356348
0.00299336
0.00243448
0.00188492
0.00134251
0.000805042
0.0002694
0.0102079
0.00986895
0.00946234
0.00899771
0.00848979
0.00795134
0.0073933
0.00682454
0.00625189
0.00568007
0.00511213
0.00454992
0.0039944
0.00344585
0.00290402
0.00236827
0.00183762
0.00131092
0.000786925
0.000263447
0.00920788
0.00893836
0.00861243
0.00823842
0.00782388
0.00737667
0.00690399
0.00641231
0.0059074
0.00539406
0.00487606
0.00435627
0.00383676
0.00331886
0.00280331
0.0022903
0.00177964
0.00127088
0.000763373
0.000255558
0.00845715
0.00822906
0.00795114
0.0076276
0.00726558
0.00687169
0.00645216
0.00601262
0.00555789
0.00509202
0.0046182
0.00413893
0.00365607
0.003171
0.00268467
0.00219767
0.00171032
0.00122276
0.000734951
0.00024605
0.00775184
0.00756104
0.00732646
0.00705253
0.00674328
0.00640312
0.0060364
0.00564722
0.00523946
0.00481665
0.0043819
0.00393785
0.00348671
0.00303025
0.00256986
0.00210658
0.00164117
0.00117419
0.000706019
0.000236289
0.00720924
0.0070416
0.00683471
0.00659079
0.00631371
0.00600719
0.00567491
0.00532046
0.00494713
0.00455794
0.00415553
0.00374222
0.00331997
0.00289047
0.00245515
0.00201519
0.00157159
0.00112522
0.000676796
0.000226451
0.00672527
0.00657861
0.00639613
0.00618042
0.00593387
0.0056592
0.00535917
0.00503655
0.00469403
0.00433421
0.0039595
0.00357214
0.00317416
0.00276735
0.00235331
0.00193341
0.00150888
0.00108082
0.000650186
0.000217444
0.00635897
0.00622546
0.00605892
0.00586076
0.00563337
0.00537912
0.0051004
0.00479967
0.00447928
0.00414153
0.00378855
0.00342234
0.00304475
0.00265747
0.00226206
0.00185995
0.00145246
0.00104083
0.000626182
0.00020933
0.00605509
0.0059329
0.00577968
0.00559712
0.00538684
0.00515072
0.00489073
0.00460886
0.00430713
0.00398757
0.00365215
0.00330278
0.00294127
0.00256935
0.00218861
0.00180059
0.00140669
0.00100828
0.000606589
0.000202673
0.00584441
0.00572863
0.00558368
0.00541045
0.00521053
0.00498556
0.00473732
0.00446761
0.0041783
0.00387124
0.00354825
0.00321112
0.00286156
0.00250123
0.00213171
0.00175453
0.00137115
0.000982975
0.000591335
0.000197491
0.00569907
0.00558851
0.00544969
0.0052837
0.00509169
0.00487511
0.00463555
0.00437463
0.00409407
0.0037956
0.00348096
0.00315189
0.00281009
0.00245723
0.00209491
0.00172468
0.00134806
0.000966492
0.000581366
0.000194079
0.00563927
0.00553117
0.00539444
0.00523043
0.00504059
0.00482642
0.00458949
0.00433147
0.00405403
0.00375889
0.00344773
0.00312225
0.00278409
0.00243486
0.00207613
0.00170943
0.00133626
0.00095806
0.000576271
0.000192338
0.0339431
0.0371597
0.0396554
0.0416893
0.0433211
0.0445766
0.0454828
0.0460626
0.0463314
0.0462976
0.0459631
0.0453238
0.0443689
0.0430807
0.0414334
0.039393
0.0369201
0.0339708
0.0304351
0.0259819
0.0356587
0.0366674
0.0374859
0.0381525
0.0386909
0.0391118
0.0394209
0.0396227
0.0397203
0.0397156
0.0396095
0.039402
0.0390922
0.0386779
0.0381554
0.0375189
0.0367656
0.0359023
0.034897
0.0334881
0.0268063
0.027216
0.0275837
0.0279005
0.0281606
0.0283595
0.0284936
0.0285603
0.0285576
0.0284843
0.0283396
0.0281237
0.0278371
0.0274812
0.0270582
0.0265709
0.0260235
0.0254207
0.0247687
0.0240763
0.0242389
0.0244565
0.0246465
0.0248071
0.0249367
0.025034
0.025098
0.0251277
0.0251225
0.0250819
0.0250055
0.0248934
0.0247456
0.0245624
0.0243443
0.024092
0.0238072
0.0234928
0.0231464
0.022746
0.0195101
0.0195971
0.0196697
0.0197271
0.0197684
0.019793
0.0198002
0.0197897
0.0197612
0.0197145
0.0196497
0.0195669
0.0194665
0.0193488
0.0192146
0.0190646
0.0188994
0.0187193
0.018527
0.0183343
0.0175898
0.01765
0.0176995
0.0177379
0.017765
0.0177805
0.0177841
0.0177756
0.0177549
0.017722
0.0176768
0.0176193
0.0175497
0.017468
0.0173746
0.0172696
0.0171536
0.0170277
0.016891
0.0167335
0.014868
0.0148947
0.014915
0.0149287
0.0149358
0.0149361
0.0149295
0.014916
0.0148956
0.0148683
0.0148341
0.0147931
0.0147453
0.0146908
0.0146299
0.0145627
0.0144891
0.014409
0.0143233
0.0142387
0.0134658
0.0134875
0.013504
0.0135152
0.013521
0.0135214
0.0135163
0.0135057
0.0134896
0.0134679
0.0134408
0.0134081
0.01337
0.0133264
0.0132776
0.0132234
0.0131642
0.0131004
0.0130316
0.0129527
0.0117536
0.0117651
0.0117731
0.0117775
0.0117784
0.0117757
0.0117695
0.0117596
0.0117461
0.0117291
0.0117084
0.0116843
0.0116566
0.0116254
0.0115908
0.0115527
0.0115113
0.0114662
0.0114181
0.0113701
0.0107081
0.0107185
0.0107258
0.0107302
0.0107314
0.0107296
0.0107247
0.0107168
0.0107057
0.0106916
0.0106744
0.0106542
0.0106309
0.0106046
0.0105754
0.0105431
0.010508
0.0104702
0.0104296
0.0103836
0.00956363
0.00957038
0.0095749
0.00957717
0.0095772
0.00957497
0.00957049
0.00956376
0.00955478
0.00954355
0.00953009
0.0095144
0.00949649
0.00947638
0.0094541
0.00942965
0.00940302
0.00937411
0.00934316
0.00931184
0.00878648
0.00879297
0.00879747
0.00879998
0.0088005
0.00879902
0.00879554
0.00879007
0.00878259
0.00877313
0.00876168
0.00874825
0.00873286
0.0087155
0.0086962
0.00867496
0.00865183
0.00862693
0.00860014
0.00857016
0.00800259
0.00800764
0.00801109
0.00801294
0.0080132
0.00801186
0.00800892
0.00800438
0.00799825
0.00799052
0.00798121
0.00797032
0.00795786
0.00794382
0.00792823
0.00791109
0.0078924
0.00787209
0.0078503
0.00782788
0.00744131
0.00744629
0.00744983
0.00745191
0.00745254
0.00745172
0.00744944
0.00744571
0.00744054
0.00743392
0.00742585
0.00741635
0.00740541
0.00739305
0.00737927
0.00736407
0.00734748
0.00732956
0.00731026
0.00728888
0.00691344
0.0069178
0.00692092
0.00692279
0.00692341
0.00692279
0.00692092
0.00691781
0.00691346
0.00690788
0.00690105
0.00689299
0.00688371
0.0068732
0.00686147
0.00684852
0.00683437
0.00681896
0.00680238
0.00678508
0.00653497
0.00653931
0.00654249
0.00654452
0.00654538
0.00654509
0.00654363
0.00654102
0.00653725
0.00653232
0.00652625
0.00651902
0.00651066
0.00650114
0.0064905
0.00647871
0.00646581
0.00645182
0.00643672
0.00642013
0.00620739
0.00621144
0.00621444
0.0062164
0.0062173
0.00621714
0.00621594
0.00621369
0.00621038
0.00620603
0.00620064
0.0061942
0.00618673
0.00617821
0.00616867
0.00615809
0.00614649
0.00613384
0.00612019
0.00610576
0.00599162
0.00599567
0.00599872
0.00600075
0.00600177
0.00600178
0.00600078
0.00599877
0.00599575
0.00599173
0.00598669
0.00598066
0.00597362
0.00596559
0.00595655
0.00594652
0.0059355
0.00592352
0.00591056
0.00589638
0.0058345
0.00583843
0.0058414
0.00584341
0.00584445
0.00584453
0.00584365
0.00584181
0.00583901
0.00583526
0.00583054
0.00582487
0.00581824
0.00581066
0.00580213
0.00579265
0.00578222
0.00577084
0.00575853
0.00574543
0.00577235
0.00577633
0.00577935
0.00578143
0.00578256
0.00578274
0.00578197
0.00578025
0.00577759
0.00577398
0.00576943
0.00576393
0.0057575
0.00575013
0.00574183
0.0057326
0.00572244
0.00571136
0.00569938
0.00568639
0.0180559
0.0185187
0.0189581
0.0193791
0.0197786
0.0201505
0.0204892
0.0207912
0.0210554
0.0212844
0.0214865
0.0216771
0.0218812
0.022137
0.0224985
0.0230329
0.0238134
0.0249486
0.0267219
0.0296916
0.0175197
0.0179056
0.0183504
0.0188313
0.0193509
0.0199171
0.0205363
0.0212144
0.021957
0.022769
0.023654
0.0246142
0.0256495
0.0267576
0.0279333
0.0291682
0.0304512
0.0317724
0.0331221
0.034459
0.0185011
0.018858
0.0192146
0.0195793
0.0199526
0.0203338
0.0207225
0.0211185
0.0215214
0.0219308
0.0223464
0.0227682
0.0231963
0.0236311
0.0240733
0.0245231
0.0249803
0.0254434
0.0259083
0.0263666
0.0175933
0.0179221
0.0182581
0.0185998
0.0189466
0.0192981
0.0196535
0.0200119
0.020372
0.0207328
0.0210927
0.0214503
0.021804
0.0221519
0.0224921
0.0228224
0.0231405
0.023444
0.0237301
0.023996
0.0161269
0.016329
0.0165316
0.0167331
0.0169328
0.0171304
0.0173256
0.0175179
0.017707
0.0178923
0.0180734
0.0182498
0.0184209
0.0185862
0.0187449
0.0188962
0.0190393
0.0191733
0.0192971
0.0194098
0.0148488
0.0150293
0.015205
0.0153785
0.0155496
0.0157177
0.0158825
0.0160435
0.0162004
0.0163526
0.0164998
0.0166415
0.0167773
0.0169066
0.0170289
0.0171438
0.0172508
0.0173494
0.0174391
0.0175194
0.0132895
0.0134011
0.0135122
0.0136207
0.0137262
0.0138287
0.0139279
0.0140238
0.014116
0.0142045
0.014289
0.0143693
0.0144452
0.0145165
0.0145829
0.0146443
0.0147004
0.0147511
0.014796
0.0148351
0.0121194
0.0122207
0.0123175
0.0124117
0.0125032
0.0125917
0.0126772
0.0127594
0.0128382
0.0129135
0.0129851
0.0130528
0.0131165
0.0131761
0.0132314
0.0132822
0.0133286
0.0133702
0.013407
0.0134389
0.0108721
0.0109403
0.0110075
0.0110725
0.011135
0.0111951
0.0112526
0.0113076
0.0113598
0.0114094
0.0114561
0.0114999
0.0115408
0.0115787
0.0116134
0.011645
0.0116734
0.0116985
0.0117203
0.0117387
0.00992583
0.00998871
0.0100484
0.0101059
0.0101614
0.0102147
0.0102657
0.0103143
0.0103605
0.0104042
0.0104455
0.0104841
0.0105201
0.0105535
0.0105841
0.0106119
0.010637
0.0106591
0.0106784
0.0106947
0.00898804
0.00903451
0.00907994
0.00912362
0.00916543
0.00920538
0.00924346
0.00927962
0.00931385
0.00934611
0.00937637
0.0094046
0.00943078
0.00945489
0.00947689
0.00949677
0.0095145
0.00953007
0.00954346
0.00955465
0.00826188
0.00830522
0.00834631
0.00838577
0.00842365
0.00845987
0.00849439
0.00852718
0.00855822
0.00858749
0.00861496
0.00864061
0.00866443
0.00868638
0.00870645
0.00872462
0.00874088
0.00875521
0.00876759
0.00877802
0.00757835
0.00761312
0.00764691
0.00767933
0.0077103
0.00773984
0.00776793
0.00779456
0.00781972
0.0078434
0.00786557
0.00788624
0.00790539
0.007923
0.00793906
0.00795358
0.00796653
0.00797792
0.00798773
0.00799595
0.0070465
0.0070793
0.00711045
0.00714033
0.00716894
0.00719625
0.00722224
0.0072469
0.0072702
0.00729215
0.00731273
0.00733194
0.00734975
0.00736617
0.00738118
0.00739477
0.00740695
0.00741769
0.00742701
0.00743488
0.00657047
0.00659862
0.00662586
0.00665198
0.00667692
0.0067007
0.00672331
0.00674475
0.006765
0.00678406
0.00680192
0.00681857
0.00683402
0.00684825
0.00686125
0.00687304
0.00688359
0.00689291
0.00690099
0.00690784
0.00620929
0.00623623
0.00626189
0.00628648
0.00631002
0.00633247
0.00635384
0.0063741
0.00639326
0.00641131
0.00642823
0.00644404
0.00645871
0.00647225
0.00648466
0.00649592
0.00650603
0.006515
0.00652281
0.00652947
0.00590864
0.00593308
0.00595666
0.00597927
0.00600087
0.00602146
0.00604105
0.00605963
0.0060772
0.00609374
0.00610926
0.00612375
0.00613721
0.00614963
0.00616102
0.00617136
0.00618066
0.00618892
0.00619612
0.00620228
0.00570121
0.00572511
0.00574792
0.00576978
0.00579069
0.00581065
0.00582963
0.00584764
0.00586467
0.00588072
0.00589579
0.00590987
0.00592295
0.00593504
0.00594613
0.00595623
0.00596532
0.0059734
0.00598048
0.00598655
0.00555645
0.00557912
0.00560097
0.00562191
0.00564193
0.00566102
0.00567918
0.00569642
0.00571273
0.00572809
0.00574252
0.005756
0.00576854
0.00578012
0.00579076
0.00580044
0.00580917
0.00581694
0.00582375
0.00582961
0.00549581
0.00551841
0.00554006
0.00556081
0.00558066
0.00559961
0.00561764
0.00563476
0.00565095
0.00566622
0.00568056
0.00569397
0.00570645
0.00571799
0.00572859
0.00573824
0.00574696
0.00575473
0.00576155
0.00576743
0.00961935
0.0126473
0.0139959
0.0147508
0.0151807
0.0153702
0.0153937
0.0153109
0.0151629
0.0149779
0.0147764
0.0145733
0.0143789
0.014203
0.0140511
0.0139259
0.0138325
0.0137748
0.0137569
0.0137798
0.00874112
0.0104803
0.0115718
0.01238
0.0129758
0.013386
0.0136493
0.0138028
0.0138762
0.0138929
0.0138711
0.0138252
0.0137661
0.013702
0.0136393
0.0135843
0.013539
0.0135048
0.013484
0.0134775
0.00991015
0.0111061
0.0119313
0.0125468
0.0129979
0.0133077
0.0135034
0.0136116
0.0136548
0.0136513
0.0136161
0.0135609
0.0134949
0.0134247
0.0133553
0.0132904
0.0132323
0.0131821
0.0131389
0.0131008
0.0103632
0.0111478
0.0117471
0.0122168
0.0125748
0.0128327
0.0130053
0.0131088
0.0131582
0.0131667
0.0131456
0.0131043
0.0130504
0.0129896
0.0129263
0.0128638
0.0128042
0.0127483
0.0126935
0.0126382
0.0106113
0.0111699
0.0116236
0.0119882
0.0122713
0.012479
0.0126202
0.0127052
0.0127443
0.0127474
0.0127235
0.0126803
0.0126243
0.0125607
0.0124938
0.0124265
0.0123613
0.0122993
0.0122376
0.0121741
0.0106095
0.0110195
0.0113681
0.0116532
0.0118775
0.0120446
0.0121594
0.0122284
0.0122588
0.0122578
0.0122323
0.0121886
0.0121323
0.0120682
0.0120001
0.0119311
0.0118637
0.0117992
0.011735
0.0116692
0.0104636
0.0107787
0.0110537
0.01128
0.0114583
0.0115909
0.0116811
0.011733
0.0117518
0.0117431
0.0117123
0.0116649
0.0116056
0.0115388
0.0114679
0.0113962
0.0113261
0.0112592
0.0111929
0.0111253
0.0102089
0.0104564
0.0106755
0.0108553
0.0109959
0.0110989
0.0111664
0.0112014
0.0112077
0.0111897
0.0111519
0.0110989
0.011035
0.010964
0.0108893
0.010814
0.0107406
0.0106707
0.0106017
0.0105317
0.0098873
0.0100827
0.0102557
0.010396
0.0105034
0.0105791
0.0106245
0.0106417
0.0106337
0.0106042
0.0105569
0.0104957
0.0104245
0.010347
0.0102663
0.0101853
0.0101068
0.0100322
0.0099589
0.00988494
0.00952679
0.00967672
0.00980708
0.0099099
0.00998501
0.0100331
0.010055
0.0100526
0.010028
0.00998418
0.00992443
0.00985219
0.00977094
0.00968404
0.0095946
0.00950549
0.00941947
0.00933807
0.00925849
0.00917863
0.00915479
0.00926056
0.0093472
0.00941082
0.0094512
0.00946862
0.0094637
0.0094377
0.00939247
0.00933037
0.00925415
0.00916685
0.00907162
0.0089716
0.00886981
0.00876914
0.00867243
0.00858133
0.00849278
0.00840449
0.00879742
0.00885653
0.0088951
0.00891459
0.00891484
0.00889575
0.00885783
0.00880209
0.00873005
0.00864361
0.00854509
0.00843711
0.00832252
0.00820423
0.00808515
0.00796821
0.00785642
0.00775159
0.0076503
0.00755006
0.00848319
0.00849106
0.0084752
0.00844338
0.00839548
0.00833121
0.00825117
0.00815641
0.0080483
0.0079285
0.007799
0.00766208
0.00752025
0.00737618
0.00723264
0.00709259
0.00695928
0.00683474
0.00671509
0.00659756
0.00824535
0.00819665
0.00811947
0.00802788
0.00792187
0.00780111
0.00766662
0.00751984
0.00736234
0.0071959
0.00702247
0.00684415
0.00666321
0.00648206
0.00630326
0.00612973
0.00596503
0.00581146
0.0056645
0.00552106
0.00812469
0.00801559
0.0078719
0.00771288
0.00753847
0.00734846
0.0071445
0.00692878
0.00670362
0.00647144
0.00623471
0.00599585
0.00575721
0.00552106
0.00528973
0.00506603
0.00485377
0.00465563
0.00446609
0.00428173
0.00816391
0.00799517
0.00778441
0.00755413
0.0073038
0.00703318
0.0067445
0.00644089
0.00612582
0.00580305
0.00547638
0.00514938
0.00482521
0.00450651
0.00419547
0.00389462
0.00360773
0.00333754
0.00307663
0.0028215
0.00840496
0.00818731
0.00791766
0.00762032
0.00729365
0.00693663
0.00655143
0.00614164
0.00571183
0.00526739
0.00481423
0.00435832
0.00390511
0.00345899
0.00302301
0.00259962
0.0021921
0.00180155
0.00141409
0.00102403
0.00892808
0.00870666
0.00841723
0.00808489
0.0077079
0.00728386
0.0068135
0.00629936
0.00574559
0.00515792
0.00454354
0.00391063
0.00326764
0.00262211
0.00197982
0.00134532
0.000723225
0.000109162
-0.000537596
-0.00124259
0.00968584
0.00948596
0.00920991
0.00887124
0.00847057
0.00800578
0.00747561
0.00688015
0.00622116
0.00550244
0.00472995
0.00391163
0.00305644
0.00217256
0.0012658
0.000340912
-0.000599121
-0.00158735
-0.00277372
-0.0042651
0.0107775
0.0104533
0.0101104
0.00971915
0.00926654
0.00874484
0.00814599
0.00746226
0.00668722
0.00581662
0.00484906
0.00378647
0.00263392
0.00139836
8.80138e-05
-0.00128557
-0.0027156
-0.00427045
-0.00622537
-0.00871425
0.00027065
0.000808603
0.00134965
0.00189755
0.00245572
0.00302784
0.00361772
0.00422934
0.00486683
0.00553462
0.0062376
0.00698156
0.00777412
0.00862666
0.0095578
0.0105985
0.0117947
0.0131935
0.014811
0.0166575
0.00029406
0.000876263
0.00146155
0.00205366
0.0026562
0.00327315
0.00390867
0.00456711
0.00525303
0.00597126
0.00672689
0.00752518
0.00837171
0.00927259
0.010235
0.0112679
0.0123833
0.0136047
0.0149867
0.0165703
0.000310324
0.000923577
0.00153921
0.00216124
0.00279313
0.00343879
0.0041024
0.0047884
0.00550165
0.00624766
0.0070329
0.00786509
0.00875359
0.00970968
0.0107464
0.0118777
0.0131146
0.0144568
0.0158857
0.0174094
0.000319624
0.000950694
0.00158324
0.0022213
0.00286798
0.00352682
0.00420149
0.00489574
0.00561344
0.00635862
0.00713553
0.00794873
0.00880326
0.00970496
0.0106607
0.0116781
0.0127654
0.0139346
0.0152111
0.0166341
0.00032253
0.000959055
0.00159612
0.00223755
0.002886
0.00354452
0.00421628
0.00490456
0.00561276
0.00634444
0.00710331
0.0078932
0.00871785
0.00958055
0.0104834
0.0114266
0.0124078
0.0134229
0.014466
0.0155221
0.00031989
0.000951092
0.00158192
0.00221575
0.00285463
0.00350085
0.00415673
0.00482447
0.0055062
0.00620388
0.00691935
0.00765424
0.00840995
0.00918752
0.00998749
0.0108099
0.0116542
0.0125191
0.0134001
0.0142924
0.000312721
0.000929849
0.00154582
0.00216355
0.00278451
0.00341035
0.00404277
0.00468332
0.00533341
0.00599422
0.00666662
0.00735102
0.00804718
0.00875389
0.00946875
0.0101878
0.0109054
0.011614
0.0123033
0.012954
0.000302098
0.000898435
0.00149293
0.00208794
0.00268432
0.00328299
0.00388487
0.00449069
0.00510092
0.00571577
0.00633512
0.00695843
0.0075847
0.00821231
0.00883896
0.0094616
0.0100762
0.0106769
0.0112543
0.0118007
0.00028914
0.000860204
0.00142897
0.00199726
0.00256547
0.003134
0.00370324
0.00427339
0.0048444
0.00541591
0.00598718
0.006557
0.00712355
0.00768432
0.00823594
0.00877411
0.00929339
0.00978722
0.0102481
0.0106653
0.000274768
0.000817807
0.0013582
0.00189725
0.00243488
0.00297101
0.0035055
0.00403804
0.0045681
0.00509487
0.00561726
0.00613382
0.00664273
0.00714169
0.00762794
0.00809819
0.0085485
0.00897394
0.00936812
0.00972657
0.000259906
0.000774021
0.00128533
0.00179469
0.00230173
0.00280601
0.00330706
0.00380427
0.0042968
0.00478358
0.00526327
0.00573417
0.00619424
0.00664098
0.00707148
0.00748233
0.00786963
0.0082291
0.0085565
0.00884613
0.000245176
0.000730617
0.00121318
0.00169331
0.00217036
0.00264359
0.00311228
0.00357553
0.00403233
0.00448146
0.00492151
0.00535087
0.00576769
0.00616985
0.006555
0.00692054
0.0072636
0.00758092
0.00786868
0.00812443
0.00023121
0.000689509
0.00114498
0.00159772
0.00204692
0.00249167
0.00293104
0.00336402
0.00378945
0.00420604
0.00461231
0.00500662
0.00538714
0.0057518
0.00609839
0.00642446
0.00672744
0.0070047
0.00725377
0.00747147
0.000218355
0.000651667
0.00108225
0.00150989
0.00193363
0.00235243
0.00276523
0.00317093
0.00356831
0.00395606
0.00433277
0.00469693
0.0050469
0.00538096
0.00569727
0.0059939
0.00626887
0.00652007
0.00674516
0.00694273
0.000206982
0.000618228
0.0010269
0.00143252
0.00183406
0.00223041
0.00262043
0.00300295
0.00337672
0.00374044
0.00409271
0.00443205
0.00475691
0.00506565
0.00535658
0.00562796
0.00587803
0.00610508
0.00630753
0.0064835
0.000197248
0.000589618
0.00097958
0.00136643
0.00174906
0.00212632
0.00249704
0.00286
0.00321397
0.00355767
0.00388978
0.00420893
0.00451373
0.00480274
0.00507453
0.00532763
0.00556061
0.00577198
0.00596022
0.00612435
0.000189354
0.000566466
0.000941346
0.00131309
0.00168058
0.00204262
0.00239802
0.00274555
0.00308398
0.00341204
0.00372844
0.00403186
0.00432096
0.0045944
0.00485084
0.00508893
0.00530738
0.00550495
0.00568051
0.00583281
0.000183377
0.000548965
0.000912484
0.00127287
0.00162895
0.00197955
0.00232344
0.00265941
0.00298623
0.00330266
0.00360746
0.00389938
0.00417716
0.00443957
0.0046854
0.00491346
0.0051226
0.00531173
0.00547976
0.00562602
0.00017943
0.000537463
0.000893566
0.00124655
0.00159522
0.00193839
0.00227484
0.00260334
0.00292269
0.00323163
0.00352895
0.00381341
0.00408378
0.00433886
0.00457746
0.00479845
0.00500073
0.00518332
0.00534538
0.00548602
0.000177506
0.000531868
0.000884366
0.00123375
0.00157882
0.00191837
0.00225119
0.00257606
0.00289178
0.00319713
0.0034909
0.0037719
0.00403895
0.00429089
0.00452659
0.00474496
0.00494496
0.0051256
0.00528589
0.00542495
-7.0339e-06
8.72783e-07
-8.7054e-07
-9.80608e-06
-3.08546e-05
-6.83547e-05
-0.000127338
-0.000213806
-0.000334997
-0.000499891
-0.000719936
-0.00100974
-0.00138692
-0.00187173
-0.00249084
-0.00326935
-0.00410652
-0.00446184
-0.0040719
-0.00699604
5.77539e-06
3.84428e-05
6.2848e-05
8.08706e-05
8.86117e-05
8.23552e-05
5.80098e-05
1.08603e-05
-6.44953e-05
-0.000174294
-0.000325682
-0.000526262
-0.000782419
-0.00109734
-0.00146936
-0.00186579
-0.00209329
-0.001626
-0.000278322
0.00069074
1.92703e-05
7.75755e-05
0.000129075
0.000175195
0.000212896
0.000239177
0.00025091
0.000244694
0.000216962
0.000164139
8.30827e-05
-2.76749e-05
-0.000165449
-0.000320274
-0.000468392
-0.000538218
-0.000310376
0.000625418
0.0024416
0.00508914
3.32767e-05
0.000118075
0.000197443
0.000272533
0.00034108
0.000400799
0.000449499
0.000485012
0.000505448
0.000509592
0.00049773
0.000473346
0.000445932
0.00043496
0.00047951
0.000670638
0.0012127
0.00240913
0.00444838
0.00746269
4.76444e-05
0.000159633
0.000267477
0.000372171
0.000472171
0.000565881
0.000651985
0.00072943
0.000797785
0.000857797
0.000912421
0.000968662
0.00104039
0.00115273
0.00135232
0.00173212
0.00246342
0.00377595
0.00584911
0.00868964
6.22989e-05
0.000201976
0.000338735
0.000473442
0.000605237
0.000733163
0.000856687
0.000975715
0.00109101
0.00120482
0.00132199
0.00145171
0.00161017
0.00182494
0.00214395
0.00265168
0.00348459
0.00481817
0.00678651
0.00927175
7.71448e-05
0.00024483
0.000410764
0.000575684
0.000739374
0.000901455
0.00106207
0.00122192
0.00138268
0.00154765
0.00172278
0.00191827
0.00215087
0.0024478
0.0028534
0.00343849
0.00430809
0.00559429
0.00737995
0.00947914
9.20949e-05
0.000287937
0.000483129
0.000678272
0.000873738
0.00106967
0.00126677
0.00146636
0.00167076
0.00188389
0.00211218
0.00236586
0.00266087
0.00302198
0.00348709
0.00411171
0.00497352
0.00616778
0.00773395
0.00946037
0.000107062
0.000331053
0.000555418
0.000780616
0.00100755
0.00123681
0.00146957
0.00170761
0.00195366
0.00221189
0.00248866
0.0027935
0.00314053
0.00355068
0.00405386
0.00469055
0.00551499
0.00659178
0.00792688
0.00930641
0.000121964
0.000373945
0.000627242
0.000882168
0.00114009
0.00140201
0.00166945
0.00194453
0.00223017
0.00253053
0.0028515
0.00320138
0.00359183
0.00403913
0.00456478
0.00519531
0.00596497
0.00691294
0.00801843
0.00907729
0.000136724
0.000416395
0.00069824
0.000982425
0.00127073
0.00156449
0.00186554
0.00217618
0.00249941
0.00283917
0.00320061
0.00359051
0.00401772
0.00449357
0.00503133
0.00564502
0.00635197
0.00716988
0.00805491
0.00881836
0.000151271
0.000458203
0.000768078
0.00108093
0.00139888
0.00172358
0.00205708
0.00240182
0.00276077
0.00313751
0.00353636
0.00396247
0.00442177
0.00492079
0.00546513
0.00605782
0.00670174
0.00739577
0.00807504
0.00856784
0.000165538
0.000499179
0.000836448
0.00117726
0.00152403
0.00187868
0.00224344
0.00262086
0.0030138
0.00342547
0.00385934
0.00431899
0.00480765
0.00532743
0.00587719
0.00645054
0.0070379
0.00762082
0.00811492
0.00836219
0.000179464
0.000539149
0.000903066
0.00127103
0.00164569
0.00202925
0.00242408
0.00283278
0.00325815
0.00370303
0.00417016
0.0046617
0.00517861
0.00571926
0.00627699
0.00683782
0.00738155
0.00787339
0.00821014
0.0082415
0.000192993
0.000577948
0.000967658
0.00136188
0.00176344
0.00217479
0.00259845
0.0030371
0.00349348
0.00397015
0.00446926
0.00499188
0.00553714
0.0061005
0.00667115
0.00722958
0.00774731
0.00817506
0.00839239
0.00824883
0.000206094
0.000615426
0.00102995
0.00144944
0.00187681
0.00231477
0.00276601
0.00323329
0.00371935
0.00422664
0.0047569
0.00531047
0.00588513
0.00647418
0.00706366
0.0076301
0.00813908
0.00853078
0.00867511
0.00841803
0.000218771
0.000651469
0.00108971
0.0015334
0.00198542
0.00244876
0.00292625
0.00342082
0.0039353
0.00447219
0.00503316
0.00561828
0.00622461
0.00684391
0.00745957
0.00804424
0.00855778
0.00893339
0.00904594
0.00875559
0.000230967
0.000685999
0.00114679
0.00161354
0.00208904
0.00257648
0.00307891
0.00359943
0.00414108
0.00470663
0.00529812
0.00591604
0.0065578
0.00721495
0.00786947
0.00849025
0.0090296
0.00941148
0.00952025
0.00925987
0.00024227
0.000718987
0.00120121
0.00168986
0.00218766
0.00269796
0.00322404
0.00376919
0.00433677
0.00492998
0.00555161
0.00620342
0.00688471
0.00758975
0.00830366
0.00899748
0.0096212
0.0100897
0.0102762
0.0100575
0.000251986
0.000750345
0.00125287
0.00176218
0.00228107
0.00281298
0.00336137
0.00392981
0.00452191
0.00514137
0.00579182
0.0064766
0.00719809
0.00795637
0.00874694
0.00955684
0.0103559
0.0110775
0.0115961
0.0116472
0.00107362
0.00145656
0.00191631
0.0020941
0.00207072
0.00191367
0.00166682
0.00137375
0.00106884
0.000778139
0.000517417
0.000292292
0.000103496
-5.21005e-05
-0.000179749
-0.000284427
-0.000368879
-0.000433366
-0.000473501
-0.000416799
0.000666333
0.00109907
0.00143489
0.00159891
0.00159471
0.0014601
0.00123395
0.000955355
0.000661074
0.000380776
0.000133684
-6.8327e-05
-0.00022542
-0.000341283
-0.000422553
-0.000475984
-0.000506201
-0.000515733
-0.000504461
-0.000411144
0.000395516
0.000747803
0.000997016
0.00112684
0.00113078
0.00102203
0.000825256
0.000571585
0.000294932
2.68647e-05
-0.000208066
-0.000395263
-0.000530633
-0.000617659
-0.000664411
-0.000680498
-0.0006747
-0.000654706
-0.0006254
-0.000558473
0.000234504
0.000476542
0.00064867
0.000740193
0.000743469
0.000658932
0.000497698
0.000279875
3.20634e-05
-0.000216843
-0.000440891
-0.000621799
-0.000751353
-0.000830035
-0.000865578
-0.000868821
-0.000851249
-0.000823509
-0.000793029
-0.000747724
0.000133534
0.000281294
0.000387651
0.000444771
0.00044394
0.000380774
0.000257304
8.33983e-05
-0.000123715
-0.000341727
-0.000547322
-0.000720961
-0.000850775
-0.000934003
-0.000975449
-0.000984496
-0.000972745
-0.000951696
-0.000930529
-0.00090736
7.37684e-05
0.00015581
0.000213328
0.000242054
0.00023499
0.000186916
9.58534e-05
-3.53193e-05
-0.000197822
-0.000377379
-0.000556383
-0.000717498
-0.00084762
-0.000940725
-0.000997557
-0.00102455
-0.00103154
-0.00102825
-0.00102265
-0.00102027
3.50492e-05
7.042e-05
9.23295e-05
9.86837e-05
8.48358e-05
4.64179e-05
-1.97667e-05
-0.000114595
-0.000235385
-0.000375142
-0.000523002
-0.000666129
-0.000792655
-0.000894611
-0.000969427
-0.00101942
-0.00105054
-0.00106958
-0.00108197
-0.0010955
1.05213e-05
1.08707e-05
4.68031e-06
-9.00318e-06
-3.27139e-05
-6.92721e-05
-0.000121513
-0.000191728
-0.00028078
-0.0003871
-0.000506023
-0.000630047
-0.000750259
-0.000858521
-0.000949551
-0.00102177
-0.00107667
-0.0011172
-0.00114593
-0.00116989
-8.10406e-06
-3.62096e-05
-6.74373e-05
-0.000101461
-0.000139463
-0.000182845
-0.000233447
-0.0002935
-0.000365292
-0.000450428
-0.000548858
-0.000658026
-0.000772737
-0.000886061
-0.000991059
-0.00108258
-0.00115805
-0.00121666
-0.00125862
-0.00128904
-2.42575e-05
-7.86147e-05
-0.000134437
-0.00019079
-0.000247999
-0.000306537
-0.000367268
-0.000431699
-0.000502085
-0.000581199
-0.000671567
-0.000774269
-0.000887723
-0.00100716
-0.0011253
-0.0012343
-0.00132779
-0.00140177
-0.00145488
-0.00149125
-3.93319e-05
-0.0001201
-0.000201627
-0.000282913
-0.000363936
-0.000444712
-0.00052547
-0.00060694
-0.000690653
-0.000779103
-0.000875471
-0.000982664
-0.00110176
-0.00123052
-0.0013628
-0.00148956
-0.00160141
-0.00169123
-0.00175627
-0.00180169
-5.42225e-05
-0.000161843
-0.000270328
-0.000378795
-0.000487277
-0.000595748
-0.000704207
-0.000812887
-0.000922533
-0.00103469
-0.00115181
-0.00127677
-0.00141167
-0.00155612
-0.00170595
-0.00185292
-0.00198625
-0.00209571
-0.00217661
-0.00223655
-6.88699e-05
-0.000203131
-0.000338901
-0.000475654
-0.00061374
-0.000753429
-0.000894895
-0.00103831
-0.001184
-0.00133266
-0.00148551
-0.00164417
-0.00180993
-0.00198247
-0.00215873
-0.00233219
-0.00249283
-0.00262838
-0.00273148
-0.00281286
-8.24778e-05
-0.000241661
-0.00040338
-0.000567738
-0.000735639
-0.000907932
-0.00108532
-0.00126837
-0.00145755
-0.00165327
-0.00185592
-0.00206577
-0.00228229
-0.00250336
-0.00272456
-0.00293934