/*--------------------------------*- C++ -*----------------------------------*\
| =========                 |                                                 |
| \\      /  F ield         | OpenFOAM: The Open Source CFD Toolbox           |
|  \\    /   O peration     | Version:  v1806                                 |
|   \\  /    A nd           | Web:      www.OpenFOAM.com                      |
|    \\/     M anipulation  |                                                 |
\*---------------------------------------------------------------------------*/
FoamFile
{
    version     2.0;
    format      ascii;
    class       volVectorField;
    location    "500";
    object      U;
}
// * * * * * * * * * * * * * * * * * * * * * * * * * * * * * * * * * * * * * //

dimensions      [0 1 -1 0 0 0 0];


internalField   nonuniform List<vector> 
5735
(
(0.262262 0.187931 0.000470645)
(0.26228 0.18781 5.36811e-08)
(0.262285 0.187825 1.01692e-10)
(0.26228 0.18781 -5.35292e-08)
(0.262262 0.187931 -0.000470645)
(0.247623 0.178871 0.000794473)
(0.247662 0.178886 3.51915e-08)
(0.24767 0.17892 8.12967e-11)
(0.247662 0.178886 -3.50682e-08)
(0.247623 0.178871 -0.000794473)
(0.222446 0.181801 0.00103654)
(0.222478 0.182042 -1.67216e-06)
(0.222468 0.182075 4.46768e-11)
(0.222478 0.182042 1.67223e-06)
(0.222446 0.181801 -0.00103654)
(0.228583 -0.0144655 0.00183141)
(0.228446 -0.0144485 1.74886e-06)
(0.228429 -0.0144484 -3.30716e-11)
(0.228446 -0.0144485 -1.74892e-06)
(0.228583 -0.0144655 -0.00183141)
(0.211647 -0.00853502 0.00202108)
(0.21154 -0.00856005 1.65863e-06)
(0.211526 -0.00856419 1.77429e-11)
(0.21154 -0.00856005 -1.65861e-06)
(0.211647 -0.00853502 -0.00202108)
(0.209441 0.0107524 0.00202813)
(0.209283 0.0107425 1.79604e-06)
(0.209268 0.0107412 -7.75556e-12)
(0.209283 0.0107425 -1.79605e-06)
(0.209441 0.0107524 -0.00202813)
(0.230098 0.00719777 0.00182232)
(0.229998 0.00721454 1.32995e-06)
(0.229986 0.00721717 -3.07003e-11)
(0.229998 0.00721454 -1.32999e-06)
(0.230098 0.00719777 -0.00182232)
(0.248174 -0.0219999 0.00157995)
(0.248097 -0.022037 1.16725e-06)
(0.248089 -0.0220438 -2.34742e-10)
(0.248097 -0.022037 -1.16754e-06)
(0.248174 -0.0219999 -0.00157995)
(0.245279 -0.00582619 0.00163955)
(0.245173 -0.00587666 1.41454e-06)
(0.245162 -0.00588315 -1.97589e-10)
(0.245173 -0.00587666 -1.41483e-06)
(0.245279 -0.00582619 -0.00163955)
(0.186375 -0.178623 0.00149004)
(0.186403 -0.178807 -6.80978e-07)
(0.186383 -0.178844 -4.87356e-10)
(0.186403 -0.178807 6.80349e-07)
(0.186375 -0.178623 -0.00149004)
(0.20382 -0.155853 0.00150345)
(0.203839 -0.156056 5.52492e-07)
(0.203841 -0.156085 -1.2359e-09)
(0.203839 -0.156056 -5.54022e-07)
(0.20382 -0.155853 -0.00150345)
(0.238443 -0.178054 0.0009031)
(0.238756 -0.178254 -2.66397e-06)
(0.238791 -0.178285 -3.84469e-09)
(0.238756 -0.178254 2.66109e-06)
(0.238443 -0.178054 -0.000903093)
(0.232912 -0.184497 0.00070912)
(0.233273 -0.184592 -3.59856e-06)
(0.233287 -0.184616 -1.24798e-09)
(0.233273 -0.184592 3.59706e-06)
(0.232912 -0.184497 -0.000709117)
(-0.0141917 -0.000775319 -1.85652e-05)
(-0.0141621 -0.000775562 1.52256e-07)
(-0.0141528 -0.00077575 9.92947e-14)
(-0.0141621 -0.000775562 -1.52255e-07)
(-0.0141917 -0.000775319 1.85651e-05)
(-0.012839 -0.00127792 3.28117e-06)
(-0.0128054 -0.00127528 1.05288e-07)
(-0.0127964 -0.00127407 5.72678e-13)
(-0.0128054 -0.00127528 -1.05288e-07)
(-0.012839 -0.00127792 -3.28117e-06)
(-0.0131509 -0.00202032 2.63456e-05)
(-0.0131411 -0.00201794 1.48088e-07)
(-0.0131346 -0.00201636 -9.76481e-13)
(-0.0131411 -0.00201794 -1.48091e-07)
(-0.0131509 -0.00202032 -2.63456e-05)
(-0.00948492 -0.0105516 8.17044e-05)
(-0.00947796 -0.0105622 1.30902e-07)
(-0.00947478 -0.0105618 -4.04862e-11)
(-0.00947796 -0.0105622 -1.30945e-07)
(-0.00948492 -0.0105516 -8.17044e-05)
(-0.00617864 -0.00769794 8.45035e-05)
(-0.00615023 -0.00770873 1.62496e-07)
(-0.00614572 -0.00770729 6.49883e-12)
(-0.00615023 -0.00770873 -1.62485e-07)
(-0.00617864 -0.00769794 -8.45035e-05)
(-0.00667671 -0.00710717 8.06519e-05)
(-0.00667 -0.0071024 1.18273e-07)
(-0.00666561 -0.00709887 -7.15076e-11)
(-0.00667 -0.0071024 -1.18304e-07)
(-0.00667671 -0.00710717 -8.06518e-05)
(0.0858329 -0.0572184 0.00291433)
(0.0852549 -0.057582 3.06649e-06)
(0.0852232 -0.0576125 -2.61885e-11)
(0.0852549 -0.057582 -3.06654e-06)
(0.0858329 -0.0572184 -0.00291433)
(0.13407 -0.00685296 0.00274039)
(0.133725 -0.0068444 2.58281e-06)
(0.133729 -0.00684329 2.16006e-11)
(0.133725 -0.0068444 -2.58277e-06)
(0.13407 -0.00685296 -0.00274039)
(0.15145 -0.0212212 0.00253809)
(0.151117 -0.0212003 2.69358e-06)
(0.151103 -0.0211988 2.48813e-11)
(0.151117 -0.0212003 -2.69354e-06)
(0.15145 -0.0212212 -0.00253809)
(0.128864 -0.0621545 0.00257913)
(0.128406 -0.0623719 2.66736e-06)
(0.128374 -0.0623888 3.01241e-12)
(0.128406 -0.0623719 -2.66737e-06)
(0.128864 -0.0621545 -0.00257913)
(-0.010143 0.0123865 7.98413e-05)
(-0.0101309 0.0123979 1.6245e-07)
(-0.010126 0.0123964 2.29027e-11)
(-0.0101309 0.0123979 -1.62417e-07)
(-0.010143 0.0123865 -7.98414e-05)
(-0.00751462 0.00874696 7.96138e-05)
(-0.00750316 0.00874645 1.89026e-07)
(-0.007497 0.00874195 1.78425e-10)
(-0.00750316 0.00874645 -1.88855e-07)
(-0.00751462 0.00874696 -7.96142e-05)
(-0.00660455 0.00876297 8.06938e-05)
(-0.00657315 0.0087649 1.46748e-07)
(-0.0065675 0.0087613 2.63184e-11)
(-0.00657315 0.0087649 -1.46705e-07)
(-0.00660455 0.00876297 -8.06939e-05)
(0.238107 0.12576 -0.000369104)
(0.238161 0.125518 -3.98978e-06)
(0.23812 0.125505 2.89512e-11)
(0.238161 0.125518 3.98983e-06)
(0.238107 0.12576 0.000369104)
(0.256987 0.130897 -0.000309018)
(0.256895 0.13072 -1.28701e-06)
(0.256847 0.130702 1.47306e-11)
(0.256895 0.13072 1.28703e-06)
(0.256987 0.130897 0.000309018)
(0.298874 0.162835 -0.000231763)
(0.299072 0.162849 -2.94632e-06)
(0.299082 0.162863 4.79272e-11)
(0.299072 0.162849 2.94638e-06)
(0.298874 0.162835 0.000231763)
(0.171915 -0.0670383 -0.000440801)
(0.17178 -0.0666837 -1.16265e-06)
(0.171748 -0.0666479 3.93702e-11)
(0.17178 -0.0666837 1.16271e-06)
(0.171915 -0.0670383 0.0004408)
(0.261357 -0.112917 -0.000344749)
(0.261376 -0.112783 -6.14168e-07)
(0.261379 -0.11277 2.69559e-11)
(0.261376 -0.112783 6.14216e-07)
(0.261357 -0.112917 0.000344749)
(0.189657 -0.0736697 -0.0002927)
(0.189501 -0.0733896 1.02596e-06)
(0.189478 -0.0733508 1.37608e-11)
(0.189501 -0.0733896 -1.02594e-06)
(0.189657 -0.0736697 0.0002927)
(0.235666 -0.0485226 0.0016562)
(0.23556 -0.0486327 1.50329e-06)
(0.235546 -0.0486482 -1.29594e-12)
(0.23556 -0.0486327 -1.5033e-06)
(0.235666 -0.0485226 -0.0016562)
(0.248883 -0.0353978 0.00151527)
(0.248804 -0.0354356 1.01863e-06)
(0.248798 -0.0354444 -1.03276e-10)
(0.248804 -0.0354356 -1.01877e-06)
(0.248883 -0.0353978 -0.00151527)
(0.256524 -0.0341503 0.00143966)
(0.256479 -0.0341741 1.03766e-06)
(0.25647 -0.0341831 -5.43511e-10)
(0.256479 -0.0341741 -1.03811e-06)
(0.256524 -0.0341503 -0.00143966)
(-0.014684 -0.00787708 7.87016e-05)
(-0.0146753 -0.00788247 1.00883e-07)
(-0.0146722 -0.00788343 3.98075e-10)
(-0.0146753 -0.00788247 -1.00615e-07)
(-0.014684 -0.00787708 -7.87023e-05)
(-0.0113414 -0.0087654 8.16434e-05)
(-0.0113324 -0.00877047 1.05687e-07)
(-0.0113294 -0.00877116 2.84279e-10)
(-0.0113324 -0.00877047 -1.05496e-07)
(-0.0113414 -0.0087654 -8.16438e-05)
(-0.0192243 0.0117711 7.20891e-05)
(-0.0192142 0.0117735 9.22607e-08)
(-0.0192106 0.0117736 9.3556e-10)
(-0.0192142 0.0117735 -9.17893e-08)
(-0.0192243 0.0117711 -7.20905e-05)
(-0.0179507 0.00850192 7.40763e-05)
(-0.0179419 0.00849765 1.09683e-07)
(-0.0179384 0.00849716 1.50704e-10)
(-0.0179419 0.00849765 -1.09522e-07)
(-0.0179507 0.00850192 -7.40766e-05)
(-0.00646016 0.00147568 8.30912e-05)
(-0.00645129 0.00146846 9.14729e-08)
(-0.00644897 0.00146722 8.15348e-10)
(-0.00645129 0.00146846 -9.10801e-08)
(-0.00646016 0.00147568 -8.30925e-05)
(-0.0105623 0.000917572 8.24098e-05)
(-0.0105537 0.0009206 1.21854e-07)
(-0.0105507 0.000920378 3.11705e-11)
(-0.0105537 0.0009206 -1.21811e-07)
(-0.0105623 0.000917573 -8.24099e-05)
(-0.00805607 -0.00904793 8.36903e-05)
(-0.00803609 -0.00904946 1.13065e-07)
(-0.00803208 -0.00904942 6.282e-11)
(-0.00803609 -0.00904946 -1.12989e-07)
(-0.00805607 -0.00904793 -8.36904e-05)
(-0.00366615 -0.00315391 9.12536e-05)
(-0.00365401 -0.00315124 1.40099e-07)
(-0.0036518 -0.00315077 1.11754e-10)
(-0.00365401 -0.00315124 -1.39971e-07)
(-0.00366615 -0.00315391 -9.12539e-05)
(-0.0138328 8.66831e-05 7.89793e-05)
(-0.0138238 8.29035e-05 7.94654e-08)
(-0.0138208 8.22037e-05 -7.77993e-10)
(-0.0138238 8.29038e-05 -7.97686e-08)
(-0.0138328 8.66831e-05 -7.89782e-05)
(-0.0038044 0.00524932 9.12103e-05)
(-0.00379184 0.00524078 1.50362e-07)
(-0.00378945 0.00523851 1.04435e-10)
(-0.00379184 0.00524078 -1.50254e-07)
(-0.0038044 0.00524932 -9.12106e-05)
(-0.00848489 0.00656562 8.72143e-05)
(-0.00847089 0.00656477 1.79761e-07)
(-0.00846764 0.006564 4.77701e-11)
(-0.00847089 0.00656478 -1.79704e-07)
(-0.00848489 0.00656562 -8.72144e-05)
(-0.0124314 0.00569829 8.09041e-05)
(-0.012423 0.00570186 1.00716e-07)
(-0.0124201 0.00570205 1.96995e-12)
(-0.012423 0.00570186 -1.00699e-07)
(-0.0124314 0.00569829 -8.09042e-05)
(-0.0144194 0.00434334 8.1907e-05)
(-0.0144039 0.00434409 1.72758e-07)
(-0.0144002 0.00434408 -6.66675e-11)
(-0.0144039 0.00434409 -1.72803e-07)
(-0.0144194 0.00434334 -8.19069e-05)
(-0.0173618 0.00597919 7.26279e-05)
(-0.0173479 0.00598117 6.47115e-08)
(-0.0173441 0.00598128 3.59576e-11)
(-0.0173479 0.00598117 -6.46617e-08)
(-0.0173618 0.00597919 -7.2628e-05)
(-0.0171945 0.00270435 7.35127e-05)
(-0.0171817 0.0027054 8.08894e-08)
(-0.0171783 0.00270523 2.71447e-11)
(-0.0171817 0.0027054 -8.0888e-08)
(-0.0171945 0.00270435 -7.35127e-05)
(-0.0168626 0.000216779 7.52808e-05)
(-0.0168576 0.000219119 1.02472e-07)
(-0.0168552 0.000219026 -8.89653e-11)
(-0.0168576 0.000219119 -1.02527e-07)
(-0.0168626 0.000216779 -7.52807e-05)
(-0.00846622 0.0110473 8.13577e-05)
(-0.00844809 0.0110454 1.39813e-07)
(-0.00844405 0.0110438 -3.64728e-11)
(-0.00844809 0.0110454 -1.39836e-07)
(-0.00846622 0.0110473 -8.13577e-05)
(-0.016861 -0.00355309 7.55906e-05)
(-0.0168507 -0.00355667 1.02313e-07)
(-0.0168477 -0.00355733 1.11185e-10)
(-0.0168507 -0.00355667 -1.02206e-07)
(-0.016861 -0.00355309 -7.55908e-05)
(-0.0133567 -0.00394058 8.09726e-05)
(-0.0133438 -0.00394081 1.30291e-07)
(-0.0133406 -0.00394098 -7.36778e-13)
(-0.0133438 -0.0039408 -1.3026e-07)
(-0.0133567 -0.00394058 -8.09727e-05)
(-0.00937793 -0.0040741 8.58759e-05)
(-0.00936905 -0.00407705 1.37702e-07)
(-0.00936642 -0.0040773 6.19138e-11)
(-0.00936905 -0.00407705 -1.37621e-07)
(-0.00937793 -0.0040741 -8.5876e-05)
(-0.0113712 0.0110625 8.01558e-05)
(-0.0113589 0.0110681 1.07971e-07)
(-0.0113551 0.011068 -3.15556e-10)
(-0.0113589 0.0110681 -1.08081e-07)
(-0.0113712 0.0110625 -8.01553e-05)
(-0.0147428 0.00977263 7.80972e-05)
(-0.0147367 0.00976962 1.14768e-07)
(-0.0147338 0.00976873 3.68136e-11)
(-0.0147367 0.00976962 -1.14687e-07)
(-0.0147428 0.00977263 -7.80973e-05)
(-0.017705 -0.0068501 7.4429e-05)
(-0.0176974 -0.00685386 8.8453e-08)
(-0.0176946 -0.00685471 9.10778e-10)
(-0.0176974 -0.00685386 -8.80077e-08)
(-0.017705 -0.0068501 -7.44303e-05)
(-0.020612 -0.0060619 6.92857e-05)
(-0.0206058 -0.00606636 8.4827e-08)
(-0.0206032 -0.00606734 -5.77565e-10)
(-0.0206058 -0.00606636 -8.49095e-08)
(-0.020612 -0.00606189 -6.9285e-05)
(-0.0200751 -0.00319244 7.00154e-05)
(-0.0200671 -0.00319555 1.00452e-07)
(-0.0200642 -0.00319627 -7.59399e-11)
(-0.0200671 -0.00319555 -1.00466e-07)
(-0.0200751 -0.00319244 -7.00154e-05)
(-0.0200579 -0.000395007 6.968e-05)
(-0.0200493 -0.000397409 9.38691e-08)
(-0.0200464 -0.000398082 8.09582e-11)
(-0.0200493 -0.000397409 -9.37966e-08)
(-0.0200579 -0.000395007 -6.96802e-05)
(-0.0203423 0.00237598 6.91172e-05)
(-0.0203362 0.00237248 1.11149e-07)
(-0.0203335 0.00237176 -7.57879e-11)
(-0.0203362 0.00237248 -1.11198e-07)
(-0.0203423 0.00237598 -6.91171e-05)
(-0.0209119 0.00536474 6.89503e-05)
(-0.0209073 0.00536335 1.15387e-07)
(-0.0209046 0.00536336 7.08003e-11)
(-0.0209073 0.00536335 -1.15309e-07)
(-0.0209119 0.00536474 -6.89504e-05)
(-0.0215046 0.00807935 6.85214e-05)
(-0.0214966 0.00808257 1.11753e-07)
(-0.0214934 0.0080832 5.95556e-11)
(-0.0214966 0.00808257 -1.11655e-07)
(-0.0215046 0.00807935 -6.85216e-05)
(-0.0119418 0.0140873 8.03982e-05)
(-0.0119295 0.0140939 1.69412e-07)
(-0.0119251 0.0140937 2.18123e-13)
(-0.0119295 0.0140939 -1.69404e-07)
(-0.0119418 0.0140873 -8.03982e-05)
(-0.0138205 0.0140288 7.88456e-05)
(-0.013805 0.0140312 1.42271e-07)
(-0.0138005 0.0140311 1.20618e-11)
(-0.013805 0.0140312 -1.42229e-07)
(-0.0138205 0.0140288 -7.88456e-05)
(-0.0163784 0.0130889 7.61363e-05)
(-0.0163639 0.0130905 1.27714e-07)
(-0.0163596 0.0130903 3.04759e-10)
(-0.0163639 0.0130905 -1.27421e-07)
(-0.0163784 0.0130889 -7.61369e-05)
(-0.0223344 0.0106454 6.72038e-05)
(-0.022328 0.0106516 9.93352e-08)
(-0.022325 0.0106525 1.14316e-10)
(-0.022328 0.0106516 -9.91488e-08)
(-0.0223344 0.0106454 -6.72041e-05)
(-0.0135162 -0.0117443 8.05543e-05)
(-0.0135059 -0.0117471 1.21954e-07)
(-0.0135028 -0.0117479 7.72903e-11)
(-0.0135059 -0.0117471 -1.2189e-07)
(-0.0135162 -0.0117443 -8.05544e-05)
(-0.0159329 -0.0107764 7.76865e-05)
(-0.0159228 -0.0107784 1.06832e-07)
(-0.0159198 -0.0107789 -5.34027e-11)
(-0.0159228 -0.0107784 -1.06831e-07)
(-0.0159329 -0.0107764 -7.76864e-05)
(-0.0185352 -0.00963957 7.36911e-05)
(-0.0185265 -0.00964071 9.44769e-08)
(-0.0185237 -0.00964118 -3.10387e-10)
(-0.0185265 -0.00964071 -9.44108e-08)
(-0.0185352 -0.00963957 -7.36908e-05)
(-0.0212126 -0.00866061 6.87138e-05)
(-0.0212051 -0.0086634 8.55473e-08)
(-0.0212024 -0.00866411 9.02383e-10)
(-0.0212051 -0.0086634 -8.51312e-08)
(-0.0212126 -0.00866061 -6.87152e-05)
(-0.0238865 -0.00788423 6.28465e-05)
(-0.0238791 -0.00788744 7.57458e-08)
(-0.0238764 -0.00788813 -4.12181e-11)
(-0.0238791 -0.00788744 -7.56473e-08)
(-0.0238865 -0.00788423 -6.28465e-05)
(-0.0233156 -0.00547315 6.33603e-05)
(-0.0233086 -0.00547643 7.70964e-08)
(-0.0233059 -0.00547719 6.94898e-10)
(-0.0233086 -0.00547643 -7.67658e-08)
(-0.0233156 -0.00547315 -6.33613e-05)
(-0.022811 -0.00301014 6.38155e-05)
(-0.0228023 -0.00301138 8.47681e-08)
(-0.0227993 -0.00301183 -2.1845e-10)
(-0.0228023 -0.00301138 -8.47261e-08)
(-0.022811 -0.00301014 -6.38153e-05)
(-0.0227046 -0.000508929 6.35661e-05)
(-0.0226957 -0.000508507 7.8372e-08)
(-0.0226928 -0.00050868 7.71796e-10)
(-0.0226957 -0.000508506 -7.80548e-08)
(-0.0227046 -0.000508929 -6.35672e-05)
(-0.0229539 0.00201647 6.30924e-05)
(-0.0229423 0.00201653 7.99113e-08)
(-0.0229389 0.00201648 -7.51856e-10)
(-0.0229423 0.00201653 -8.01752e-08)
(-0.0229539 0.00201647 -6.30914e-05)
(-0.0235413 0.00459694 6.26519e-05)
(-0.0235298 0.00459595 7.46739e-08)
(-0.0235264 0.004596 3.86391e-10)
(-0.0235298 0.00459595 -7.45098e-08)
(-0.0235413 0.00459694 -6.26525e-05)
(-0.0243373 0.00708806 6.19799e-05)
(-0.0243271 0.00708786 8.49075e-08)
(-0.0243238 0.00708806 -1.14841e-11)
(-0.0243271 0.00708786 -8.47673e-08)
(-0.0243373 0.00708806 -6.198e-05)
(-0.0252705 0.00951137 6.082e-05)
(-0.0252622 0.00951444 8.14034e-08)
(-0.025259 0.009515 7.27531e-10)
(-0.0252622 0.00951444 -8.09636e-08)
(-0.0252705 0.00951137 -6.08212e-05)
(-0.0114848 -0.0119885 8.20366e-05)
(-0.0114763 -0.0119939 1.35067e-07)
(-0.0114733 -0.0119944 -1.1864e-10)
(-0.0114763 -0.0119939 -1.35159e-07)
(-0.0114848 -0.0119885 -8.20363e-05)
(-0.0260873 0.0119678 5.93328e-05)
(-0.0260799 0.0119738 7.97943e-08)
(-0.0260768 0.011975 1.18933e-11)
(-0.0260799 0.0119738 -7.96609e-08)
(-0.0260873 0.0119678 -5.93329e-05)
(-0.0230988 0.0132479 6.55224e-05)
(-0.023091 0.0132578 9.5208e-08)
(-0.0230878 0.0132598 3.15415e-11)
(-0.023091 0.0132578 -9.51545e-08)
(-0.0230988 0.0132479 -6.55225e-05)
(-0.0202313 0.0145754 7.05327e-05)
(-0.0202225 0.0145842 1.09284e-07)
(-0.0202191 0.0145859 -6.84149e-10)
(-0.0202225 0.0145842 -1.0945e-07)
(-0.0202313 0.0145754 -7.05318e-05)
(-0.0178026 0.0156899 7.42356e-05)
(-0.0177945 0.0157024 1.20096e-07)
(-0.017791 0.0157045 1.25221e-09)
(-0.0177945 0.0157024 -1.19524e-07)
(-0.0178026 0.0156899 -7.42374e-05)
(-0.0159968 0.0164712 7.63266e-05)
(-0.0159899 0.0164857 1.2131e-07)
(-0.0159864 0.0164879 -2.05501e-10)
(-0.0159899 0.0164857 -1.21307e-07)
(-0.0159968 0.0164712 -7.63264e-05)
(-0.0147003 0.0162607 7.71367e-05)
(-0.0146985 0.0162759 1.27674e-07)
(-0.0146958 0.0162776 -8.18714e-12)
(-0.0146985 0.0162759 -1.27702e-07)
(-0.0147003 0.0162607 -7.71366e-05)
(-0.0137268 -0.0137879 8.05192e-05)
(-0.0137242 -0.0138016 1.13573e-07)
(-0.0137222 -0.0138038 -9.51702e-10)
(-0.0137242 -0.0138016 -1.13976e-07)
(-0.0137268 -0.0137879 -8.05178e-05)
(-0.0150494 -0.0139043 7.94446e-05)
(-0.0150442 -0.0139182 1.15032e-07)
(-0.0150419 -0.0139209 5.04614e-10)
(-0.0150442 -0.0139182 -1.14872e-07)
(-0.0150494 -0.0139043 -7.94452e-05)
(-0.0168515 -0.0131379 7.68676e-05)
(-0.0168444 -0.0131505 1.11603e-07)
(-0.0168418 -0.0131531 -6.18722e-10)
(-0.0168444 -0.0131505 -1.11781e-07)
(-0.0168515 -0.0131379 -7.68668e-05)
(-0.0191108 -0.0121174 7.30132e-05)
(-0.0191025 -0.0121282 1.02896e-07)
(-0.0190997 -0.0121307 1.0282e-09)
(-0.0191025 -0.0121282 -1.02419e-07)
(-0.0191108 -0.0121174 -7.30147e-05)
(-0.0216459 -0.0111412 6.80824e-05)
(-0.0216377 -0.0111505 8.84379e-08)
(-0.0216349 -0.0111528 6.63844e-11)
(-0.0216377 -0.0111505 -8.82637e-08)
(-0.0216459 -0.0111412 -6.80827e-05)
(-0.0243498 -0.0102772 6.21886e-05)
(-0.0243424 -0.0102848 7.60098e-08)
(-0.0243398 -0.0102866 1.06152e-11)
(-0.0243424 -0.0102848 -7.59629e-08)
(-0.0243498 -0.0102772 -6.21887e-05)
(-0.0270499 -0.00958101 5.56043e-05)
(-0.0270434 -0.00958653 6.31537e-08)
(-0.0270408 -0.00958798 -6.35129e-12)
(-0.0270434 -0.00958653 -6.31502e-08)
(-0.0270499 -0.00958101 -5.56043e-05)
(-0.0264396 -0.00724073 5.63481e-05)
(-0.026433 -0.00724418 6.53836e-08)
(-0.0264304 -0.00724493 -9.42762e-13)
(-0.026433 -0.00724418 -6.53605e-08)
(-0.0264396 -0.00724073 -5.63482e-05)
(-0.0257656 -0.00500691 5.69433e-05)
(-0.025759 -0.00501015 6.84088e-08)
(-0.0257564 -0.00501089 -1.19469e-11)
(-0.025759 -0.00501015 -6.83133e-08)
(-0.0257656 -0.00500691 -5.69434e-05)
(-0.0252389 -0.00280968 5.73285e-05)
(-0.0252315 -0.00281102 7.57539e-08)
(-0.0252288 -0.00281151 7.52129e-10)
(-0.0252315 -0.00281101 -7.54053e-08)
(-0.0252389 -0.00280968 -5.73296e-05)
(-0.0250923 -0.000615516 5.7178e-05)
(-0.0250854 -0.000615016 7.28627e-08)
(-0.0250828 -0.000615242 -1.12748e-10)
(-0.0250854 -0.000615015 -7.28235e-08)
(-0.0250923 -0.000615516 -5.71779e-05)
(-0.0253499 0.00161697 5.6681e-05)
(-0.0253427 0.00161644 7.18358e-08)
(-0.02534 0.00161632 -7.38819e-11)
(-0.0253427 0.00161644 -7.18979e-08)
(-0.0253499 0.00161697 -5.66808e-05)
(-0.0259739 0.00392723 5.62975e-05)
(-0.0259679 0.00392554 7.37196e-08)
(-0.0259654 0.00392556 -1.94282e-10)
(-0.0259679 0.00392554 -7.37456e-08)
(-0.0259739 0.00392723 -5.62973e-05)
(-0.0269109 0.00617807 5.54862e-05)
(-0.0269037 0.00617827 7.94086e-08)
(-0.026901 0.0061786 4.84862e-10)
(-0.0269037 0.00617826 -7.91407e-08)
(-0.0269109 0.00617807 -5.54869e-05)
(-0.0279855 0.00843849 5.42588e-05)
(-0.0279783 0.0084417 7.50148e-08)
(-0.0279756 0.00844241 8.67617e-10)
(-0.0279783 0.0084417 -7.45119e-08)
(-0.0279855 0.00843849 -5.42602e-05)
(-0.0124902 -0.0121047 7.97644e-05)
(-0.0124929 -0.0121119 1.08918e-07)
(-0.0124914 -0.0121121 -1.51888e-11)
(-0.0124929 -0.0121119 -1.08972e-07)
(-0.0124902 -0.0121047 -7.97643e-05)
(-0.0289917 0.01076 5.25702e-05)
(-0.0289848 0.0107644 6.96616e-08)
(-0.028982 0.0107653 5.474e-11)
(-0.0289848 0.0107644 -6.95218e-08)
(-0.0289917 0.01076 -5.25704e-05)
(0.17308 -0.0327545 0.00233593)
(0.172836 -0.0327519 1.92493e-06)
(0.17282 -0.0327544 2.79075e-11)
(0.172836 -0.0327519 -1.92489e-06)
(0.17308 -0.0327545 -0.00233593)
(0.170437 -0.00717091 0.00238413)
(0.170165 -0.00717951 2.38865e-06)
(0.170145 -0.00718158 4.34195e-11)
(0.170165 -0.00717951 -2.38858e-06)
(0.170437 -0.00717091 -0.00238413)
(0.172717 -0.0574621 0.00232368)
(0.17236 -0.0576013 3.00803e-06)
(0.172335 -0.0576171 -1.97285e-11)
(0.17236 -0.0576013 -3.00806e-06)
(0.172717 -0.0574621 -0.00232368)
(0.155054 0.00850769 0.00248413)
(0.154766 0.00835957 2.16348e-06)
(0.154745 0.00834427 3.07593e-11)
(0.154766 0.00835957 -2.16343e-06)
(0.155054 0.00850769 -0.00248413)
(0.189841 0.0155256 0.00224848)
(0.189668 0.0154968 1.93529e-06)
(0.189656 0.0154977 1.82005e-11)
(0.189668 0.0154968 -1.93527e-06)
(0.189841 0.0155256 -0.00224848)
(0.191501 -0.00414849 0.00221627)
(0.191328 -0.00416753 1.74583e-06)
(0.191312 -0.00416857 3.52747e-11)
(0.191328 -0.00416753 -1.74579e-06)
(0.191501 -0.00414849 -0.00221627)
(0.190455 -0.0258867 0.00221086)
(0.190309 -0.0259412 1.90717e-06)
(0.190297 -0.0259492 4.88598e-11)
(0.190309 -0.0259412 -1.90709e-06)
(0.190455 -0.0258867 -0.00221086)
(0.196007 -0.0381877 0.00211883)
(0.195785 -0.038316 1.75945e-06)
(0.195771 -0.0383308 1.12142e-11)
(0.195785 -0.038316 -1.75943e-06)
(0.196007 -0.0381877 -0.00211883)
(0.207497 -0.0248681 0.00204453)
(0.207419 -0.0248756 1.47224e-06)
(0.207406 -0.0248801 2.94415e-11)
(0.207419 -0.0248756 -1.47219e-06)
(0.207497 -0.0248681 -0.00204453)
(0.145107 0.0488395 0.00256308)
(0.144692 0.0489688 3.42845e-06)
(0.144659 0.0489776 2.08353e-11)
(0.144692 0.0489688 -3.42842e-06)
(0.145107 0.0488395 -0.00256308)
(0.185507 0.0412417 0.00225254)
(0.185229 0.0413896 2.30549e-06)
(0.185206 0.0414069 6.78385e-12)
(0.185229 0.0413896 -2.30548e-06)
(0.185507 0.0412417 -0.00225254)
(0.210365 0.0296144 0.00200166)
(0.210206 0.0296429 2.01622e-06)
(0.210189 0.0296474 -2.56738e-11)
(0.210206 0.0296429 -2.01626e-06)
(0.210365 0.0296144 -0.00200166)
(0.085036 0.0721971 0.00285171)
(0.0843426 0.072526 2.82946e-06)
(0.0843163 0.0725487 1.74254e-11)
(0.0843426 0.072526 -2.82943e-06)
(0.085036 0.0721971 -0.00285171)
(0.197864 -0.0812316 0.00198798)
(0.197675 -0.0815193 9.79244e-07)
(0.197661 -0.0815548 -4.06754e-11)
(0.197675 -0.0815193 -9.79326e-07)
(0.197864 -0.0812316 -0.00198798)
(0.174977 -0.115291 0.00205943)
(0.174982 -0.115556 4.24969e-07)
(0.174989 -0.115583 -7.30431e-11)
(0.174982 -0.115556 -4.25145e-07)
(0.174977 -0.115291 -0.00205943)
(0.145886 -0.142171 0.00200806)
(0.145994 -0.142521 -1.54372e-06)
(0.146001 -0.142567 -1.11595e-10)
(0.145994 -0.142521 1.54351e-06)
(0.145886 -0.142171 -0.00200806)
(0.212073 -0.0572528 0.00193615)
(0.212063 -0.0574123 6.28804e-07)
(0.212067 -0.057429 -1.37189e-11)
(0.212063 -0.0574123 -6.28827e-07)
(0.212073 -0.0572528 -0.00193615)
(0.228843 -0.0660056 0.00167401)
(0.228861 -0.0660561 3.67707e-07)
(0.228865 -0.0660674 -1.01908e-11)
(0.228861 -0.0660561 -3.67725e-07)
(0.228843 -0.0660056 -0.00167401)
(0.220038 -0.0870161 0.00171578)
(0.21989 -0.0871435 1.24244e-06)
(0.219878 -0.087172 -1.32417e-10)
(0.21989 -0.0871435 -1.24263e-06)
(0.220038 -0.0870161 -0.00171578)
(0.203107 -0.118143 0.00172307)
(0.203027 -0.118194 1.05206e-06)
(0.203026 -0.118209 -3.68468e-10)
(0.203027 -0.118194 -1.05266e-06)
(0.203107 -0.118143 -0.00172307)
(0.221288 -0.039597 0.00187585)
(0.221216 -0.0396707 1.54549e-06)
(0.221201 -0.0396841 8.41158e-12)
(0.221216 -0.0396707 -1.54548e-06)
(0.221288 -0.039597 -0.00187585)
(0.234195 -0.0263371 0.00174959)
(0.23404 -0.0264091 1.7112e-06)
(0.234028 -0.0264207 -5.6486e-11)
(0.23404 -0.0264091 -1.7113e-06)
(0.234195 -0.0263371 -0.00174959)
(0.231368 0.0244525 0.00178537)
(0.231239 0.0244897 1.58218e-06)
(0.231223 0.0244985 -6.43913e-11)
(0.231239 0.0244897 -1.58229e-06)
(0.231368 0.0244525 -0.00178537)
(-0.0133758 0.0140788 7.5667e-05)
(-0.0133804 0.0140852 1.00624e-07)
(-0.0133781 0.0140846 -5.83453e-11)
(-0.0133804 0.0140852 -1.00702e-07)
(-0.0133758 0.0140788 -7.56668e-05)
(0.191497 0.0828472 0.00210157)
(0.191464 0.0830339 1.15165e-06)
(0.191472 0.0830499 1.2587e-11)
(0.191464 0.0830339 -1.15163e-06)
(0.191497 0.0828472 -0.00210157)
(0.199693 0.0676363 0.00197863)
(0.19958 0.0677786 7.1444e-07)
(0.199563 0.0678023 -6.75262e-12)
(0.19958 0.0677786 -7.14445e-07)
(0.199693 0.0676363 -0.00197863)
(0.222991 0.0498115 0.00184214)
(0.222951 0.0498867 1.36223e-06)
(0.222949 0.0498986 -2.77302e-11)
(0.222951 0.0498867 -1.36227e-06)
(0.222991 0.0498115 -0.00184214)
(0.235745 0.0409671 0.00167724)
(0.235644 0.0410439 1.14172e-06)
(0.23563 0.0410581 -3.89518e-11)
(0.235644 0.0410439 -1.14178e-06)
(0.235745 0.0409671 -0.00167724)
(0.154634 0.121834 0.00206481)
(0.154334 0.122309 1.17938e-07)
(0.154299 0.122357 2.14413e-11)
(0.154334 0.122309 -1.17904e-07)
(0.154634 0.121834 -0.00206481)
(-0.0100458 -0.00842355 7.72437e-05)
(-0.0100542 -0.00841313 8.9926e-08)
(-0.0100525 -0.00840966 -1.00566e-11)
(-0.0100542 -0.00841313 -8.99388e-08)
(-0.0100458 -0.00842355 -7.72437e-05)
(0.244571 0.00635342 0.00164528)
(0.244479 0.00633548 1.4882e-06)
(0.244466 0.00633448 -7.79631e-11)
(0.244479 0.00633548 -1.48834e-06)
(0.244571 0.00635342 -0.00164528)
(0.246565 0.0200835 0.00160319)
(0.246464 0.0201035 1.51736e-06)
(0.246452 0.0201075 -1.71267e-10)
(0.246464 0.0201035 -1.51758e-06)
(0.246565 0.0200835 -0.00160319)
(0.25131 0.0324044 0.00152101)
(0.251235 0.0324623 1.38926e-06)
(0.251227 0.0324717 -2.21949e-11)
(0.251235 0.0324623 -1.38932e-06)
(0.25131 0.0324044 -0.00152101)
(-0.0105485 0.00976058 7.27299e-05)
(-0.0105617 0.00974637 8.70464e-08)
(-0.0105589 0.00974224 4.86267e-11)
(-0.0105617 0.00974637 -8.69881e-08)
(-0.0105485 0.00976058 -7.273e-05)
(-0.0143717 -0.0126131 8.04575e-05)
(-0.0143684 -0.0126029 9.55341e-08)
(-0.014366 -0.0126002 7.11392e-11)
(-0.0143684 -0.0126029 -9.54675e-08)
(-0.0143717 -0.0126131 -8.04576e-05)
(-0.0146626 -0.0144039 8.07156e-05)
(-0.0146546 -0.014397 7.11421e-08)
(-0.0146517 -0.0143953 -1.07436e-10)
(-0.0146546 -0.014397 -7.12279e-08)
(-0.0146626 -0.0144039 -8.07154e-05)
(-0.0154576 -0.0149822 7.91733e-05)
(-0.0154508 -0.0149757 5.80445e-08)
(-0.0154481 -0.0149744 6.36729e-11)
(-0.0154508 -0.0149757 -5.79941e-08)
(-0.0154576 -0.0149822 -7.91734e-05)
(-0.0169593 -0.0147664 7.62247e-05)
(-0.0169532 -0.0147597 4.56832e-08)
(-0.0169507 -0.0147585 -5.0819e-11)
(-0.0169532 -0.0147597 -4.57001e-08)
(-0.0169593 -0.0147664 -7.62246e-05)
(-0.0190897 -0.0141888 7.21583e-05)
(-0.0190846 -0.0141825 3.9273e-08)
(-0.0190823 -0.0141816 1.70347e-10)
(-0.0190846 -0.0141825 -3.91112e-08)
(-0.0190897 -0.0141888 -7.21586e-05)
(-0.0216586 -0.0135044 6.71274e-05)
(-0.0216541 -0.0134987 3.82549e-08)
(-0.021652 -0.0134981 5.62839e-11)
(-0.0216541 -0.0134987 -3.81641e-08)
(-0.0216586 -0.0135044 -6.71275e-05)
(-0.0244546 -0.0128133 6.12528e-05)
(-0.0244506 -0.0128088 3.80461e-08)
(-0.0244486 -0.0128084 5.18416e-11)
(-0.0244506 -0.0128088 -3.79957e-08)
(-0.0244546 -0.0128133 -6.12529e-05)
(-0.0273387 -0.012109 5.47022e-05)
(-0.0273352 -0.0121064 4.01887e-08)
(-0.0273334 -0.0121064 -1.09064e-10)
(-0.0273352 -0.0121064 -4.02785e-08)
(-0.0273387 -0.012109 -5.4702e-05)
(-0.0301408 -0.0113192 4.76807e-05)
(-0.0301375 -0.0113184 4.0262e-08)
(-0.0301357 -0.0113187 -3.27534e-11)
(-0.0301375 -0.0113184 -4.02969e-08)
(-0.0301408 -0.0113192 -4.76806e-05)
(-0.0295907 -0.00888284 4.87854e-05)
(-0.0295854 -0.00888678 5.2203e-08)
(-0.029583 -0.0088879 -5.9378e-12)
(-0.0295854 -0.00888678 -5.22108e-08)
(-0.0295907 -0.00888284 -4.87854e-05)
(-0.0287829 -0.00667635 4.96396e-05)
(-0.0287771 -0.00667965 5.70931e-08)
(-0.0287747 -0.0066804 6.23567e-13)
(-0.0287771 -0.00667965 -5.70845e-08)
(-0.0287829 -0.00667635 -4.96396e-05)
(-0.0279665 -0.00460713 5.02826e-05)
(-0.0279604 -0.00460976 6.05703e-08)
(-0.0279579 -0.00461039 -2.33457e-12)
(-0.0279604 -0.00460976 -6.05573e-08)
(-0.0279665 -0.00460713 -5.02826e-05)
(-0.0273837 -0.00263294 5.05973e-05)
(-0.0273766 -0.00263382 6.53896e-08)
(-0.027374 -0.00263421 -6.72243e-11)
(-0.0273766 -0.00263382 -6.53706e-08)
(-0.0273837 -0.00263294 -5.05973e-05)
(-0.0271931 -0.000692002 5.05024e-05)
(-0.0271863 -0.000691697 6.27542e-08)
(-0.0271837 -0.000691881 -1.22652e-11)
(-0.0271863 -0.000691697 -6.27497e-08)
(-0.0271931 -0.000692002 -5.05024e-05)
(-0.0274562 0.00130827 5.01076e-05)
(-0.0274497 0.00130737 6.21692e-08)
(-0.0274471 0.00130727 1.26221e-11)
(-0.0274497 0.00130737 -6.21596e-08)
(-0.0274562 0.00130827 -5.01076e-05)
(-0.0281439 0.00335301 4.9726e-05)
(-0.0281372 0.00335188 6.63545e-08)
(-0.0281345 0.00335198 1.60308e-10)
(-0.0281372 0.00335188 -6.63133e-08)
(-0.0281439 0.00335301 -4.97262e-05)
(-0.0291875 0.00533644 4.88304e-05)
(-0.0291798 0.00533736 6.73729e-08)
(-0.0291771 0.00533774 -6.27874e-10)
(-0.0291798 0.00533736 -6.76046e-08)
(-0.0291875 0.00533644 -4.88295e-05)
(-0.0304178 0.00741166 4.7528e-05)
(-0.0304103 0.00741459 6.37488e-08)
(-0.0304076 0.00741526 -2.30163e-11)
(-0.0304103 0.00741459 -6.37153e-08)
(-0.0304178 0.00741166 -4.7528e-05)
(-0.0316058 0.0095778 4.57744e-05)
(-0.0315986 0.00958164 5.98256e-08)
(-0.031596 0.00958253 1.48721e-11)
(-0.0315986 0.00958164 -5.97821e-08)
(-0.0316058 0.0095778 -4.57745e-05)
(-0.0324864 0.0118996 4.35654e-05)
(-0.0324793 0.0119036 5.44754e-08)
(-0.0324767 0.0119044 2.29459e-11)
(-0.0324793 0.0119036 -5.44368e-08)
(-0.0324864 0.0118996 -4.35654e-05)
(-0.0296208 0.0131993 5.06771e-05)
(-0.0296153 0.0132016 6.21667e-08)
(-0.0296128 0.0132022 6.95505e-11)
(-0.0296153 0.0132016 -6.20395e-08)
(-0.0296208 0.0131993 -5.06773e-05)
(-0.0265835 0.0144329 5.7451e-05)
(-0.0265798 0.0144322 5.75773e-08)
(-0.0265774 0.0144324 2.13786e-10)
(-0.0265798 0.0144322 -5.73354e-08)
(-0.0265835 0.0144329 -5.74514e-05)
(-0.0234983 0.0157087 6.34986e-05)
(-0.0234951 0.0157057 5.48552e-08)
(-0.0234928 0.0157055 -2.88982e-12)
(-0.0234951 0.0157057 -5.48172e-08)
(-0.0234983 0.0157087 -6.34987e-05)
(-0.0206517 0.0168248 6.87134e-05)
(-0.0206467 0.016819 5.83323e-08)
(-0.0206439 0.016818 -1.13936e-10)
(-0.0206467 0.016819 -5.84046e-08)
(-0.0206517 0.0168248 -6.87132e-05)
(-0.0183335 0.0175686 7.27126e-05)
(-0.0183269 0.017561 6.50202e-08)
(-0.0183236 0.0175594 1.48001e-10)
(-0.0183269 0.017561 -6.48996e-08)
(-0.0183335 0.0175686 -7.27129e-05)
(-0.0167343 0.017733 7.5446e-05)
(-0.016726 0.0177228 7.48464e-08)
(-0.0167223 0.0177206 -2.75304e-11)
(-0.016726 0.0177228 -7.48665e-08)
(-0.0167343 0.017733 -7.5446e-05)
(-0.0157451 0.0169639 7.69891e-05)
(-0.0157362 0.0169523 9.11902e-08)