/*--------------------------------*- C++ -*----------------------------------*\
| =========                 |                                                 |
| \\      /  F ield         | OpenFOAM: The Open Source CFD Toolbox           |
|  \\    /   O peration     | Version:  v1806                                 |
|   \\  /    A nd           | Web:      www.OpenFOAM.com                      |
|    \\/     M anipulation  |                                                 |
\*---------------------------------------------------------------------------*/
FoamFile
{
    version     2.0;
    format      ascii;
    class       volVectorField;
    location    "10";
    object      U;
}
// * * * * * * * * * * * * * * * * * * * * * * * * * * * * * * * * * * * * * //

dimensions      [0 1 -1 0 0 0 0];


internalField   nonuniform List<vector> 
2400
(
(2.99412 -0.000949295 0)
(2.99754 -0.149274 0)
(3.00656 -0.138605 0)
(2.9915 -0.29213 0)
(3.01209 -0.278644 0)
(2.99438 -0.402482 0)
(3.01388 -0.444302 0)
(2.9918 -0.469921 0)
(3.0261 -0.63397 0)
(2.97909 -0.526856 0)
(3.03924 -0.792806 0)
(2.98235 -0.622913 0)
(3.03496 -0.8755 0)
(3.01836 -0.756764 0)
(3.01507 -0.901656 0)
(3.06558 -0.875228 0)
(3.00574 -0.920331 0)
(3.08993 -0.957662 0)
(3.03221 -0.94299 0)
(3.09343 -1.01298 0)
(2.99844 0.00745167 0)
(2.99118 -0.162977 0)
(3.01014 -0.129899 0)
(3.00079 -0.301948 0)
(2.99514 -0.276169 0)
(3.02982 -0.408775 0)
(2.97995 -0.439823 0)
(3.03594 -0.480717 0)
(3.00307 -0.626465 0)
(3.0105 -0.52942 0)
(3.0411 -0.807274 0)
(2.99799 -0.606273 0)
(3.0567 -0.917645 0)
(3.03035 -0.73451 0)
(3.04987 -0.942432 0)
(3.08782 -0.876989 0)
(3.04985 -0.931559 0)
(3.13121 -0.994509 0)
(3.09058 -0.939404 0)
(3.15573 -1.06384 0)
(3.00931 0.00818573 0)
(2.98586 -0.160993 0)
(3.00738 -0.142106 0)
(3.01829 -0.28612 0)
(2.96962 -0.296343 0)
(3.06477 -0.398801 0)
(2.94493 -0.440781 0)
(3.0773 -0.498959 0)
(2.96993 -0.604338 0)
(3.05439 -0.562037 0)
(3.01937 -0.786924 0)
(3.03038 -0.630265 0)
(3.06258 -0.91363 0)
(3.03267 -0.745834 0)
(3.08794 -0.952688 0)
(3.07115 -0.888236 0)
(3.09763 -0.944955 0)
(3.13583 -1.01623 0)
(3.11903 -0.954383 0)
(3.20243 -1.08604 0)
(3.01799 0.00708422 0)
(2.98663 -0.152861 0)
(3.00125 -0.158465 0)
(3.02988 -0.270833 0)
(2.95506 -0.316383 0)
(3.07885 -0.393417 0)
(2.9285 -0.443233 0)
(3.10218 -0.514405 0)
(2.94563 -0.590365 0)
(3.09004 -0.592704 0)
(3.00062 -0.770648 0)
(3.05891 -0.66241 0)
(3.06988 -0.907973 0)
(3.04422 -0.766906 0)
(3.11795 -0.968061 0)
(3.07957 -0.898589 0)
(3.13596 -0.97742 0)
(3.16307 -1.02995 0)
(3.1534 -0.989929 0)
(3.25715 -1.11015 0)
(3.02115 -0.00140719 0)
(2.99291 -0.135792 0)
(2.99641 -0.179893 0)
(3.03189 -0.250054 0)
(2.95785 -0.340209 0)
(3.06836 -0.382488 0)
(2.93488 -0.452157 0)
(3.10167 -0.5284 0)
(2.94055 -0.573344 0)
(3.10674 -0.641138 0)
(2.99166 -0.73338 0)
(3.08261 -0.723328 0)
(3.06908 -0.881347 0)
(3.06874 -0.80764 0)
(3.13065 -0.97828 0)
(3.09829 -0.91666 0)
(3.17247 -1.01621 0)
(3.17451 -1.04551 0)
(3.20686 -1.03736 0)
(3.27472 -1.12749 0)
(3.01473 -0.00996726 0)
(3.00155 -0.124618 0)
(2.99681 -0.187906 0)
(3.0168 -0.245261 0)
(2.98636 -0.346059 0)
(3.02612 -0.380411 0)
(2.9773 -0.461366 0)
(3.05758 -0.535247 0)
(2.97886 -0.571664 0)
(3.07833 -0.676335 0)
(3.01604 -0.712473 0)
(3.07961 -0.775652 0)
(3.07285 -0.865204 0)
(3.09468 -0.852386 0)
(3.12713 -0.986243 0)
(3.13013 -0.950773 0)
(3.19316 -1.04909 0)
(3.18784 -1.0734 0)
(3.26062 -1.08664 0)
(3.27464 -1.15075 0)
(3.00668 -0.0140747 0)
(3.00169 -0.128319 0)
(3.00461 -0.176648 0)
(2.99257 -0.259127 0)
(3.01866 -0.333122 0)
(2.98187 -0.390634 0)
(3.02538 -0.459493 0)
(2.99922 -0.552752 0)
(3.03468 -0.563807 0)
(3.02505 -0.714393 0)
(3.05874 -0.695619 0)
(3.05124 -0.818766 0)
(3.08926 -0.862477 0)
(3.09451 -0.889467 0)
(3.1311 -0.998327 0)
(3.14294 -0.993324 0)
(3.20687 -1.07178 0)
(3.19734 -1.11669 0)
(3.29767 -1.12578 0)
(3.27527 -1.18434 0)
(3.01141 -0.00746843 0)
(2.98273 -0.148114 0)
(3.01956 -0.151884 0)
(2.96486 -0.286453 0)
(3.04372 -0.304371 0)
(2.94513 -0.419608 0)
(3.06678 -0.437861 0)
(2.94531 -0.585664 0)
(3.08124 -0.551168 0)
(2.97535 -0.748816 0)
(3.08915 -0.687966 0)
(3.01658 -0.853315 0)
(3.1092 -0.865663 0)
(3.06476 -0.927407 0)
(3.15115 -1.01349 0)
(3.13177 -1.03763 0)
(3.21181 -1.10131 0)
(3.22141 -1.16292 0)
(3.29193 -1.16614 0)
(3.31934 -1.23443 0)
(3.03697 0.00796391 0)
(2.94312 -0.172959 0)
(3.04687 -0.124018 0)
(2.92595 -0.318122 0)
(3.07118 -0.26747 0)
(2.90467 -0.462717 0)
(3.09806 -0.401933 0)
(2.90333 -0.628291 0)
(3.10126 -0.52909 0)
(2.94232 -0.788488 0)
(3.09178 -0.669841 0)
(2.98935 -0.90178 0)
(3.11477 -0.85381 0)
(3.02949 -0.978906 0)
(3.16968 -1.03363 0)
(3.11348 -1.07509 0)
(3.21528 -1.15585 0)
(3.25046 -1.20031 0)
(3.27439 -1.22192 0)
(3.3861 -1.29774 0)
(3.07654 0.0306058 0)
(2.89035 -0.198873 0)
(3.09111 -0.0944383 0)
(2.86733 -0.351677 0)
(3.1172 -0.227853 0)
(2.84343 -0.507951 0)
(3.13487 -0.366436 0)
(2.85099 -0.665224 0)
(3.11833 -0.507119 0)
(2.90107 -0.824623 0)
(3.09018 -0.645441 0)
(2.96144 -0.962795 0)
(3.10757 -0.823253 0)
(3.00928 -1.05486 0)
(3.17452 -1.04178 0)
(3.10044 -1.12532 0)
(3.2345 -1.22062 0)
(3.25831 -1.23762 0)
(3.29927 -1.29653 0)
(3.43062 -1.36721 0)
(3.11476 0.0589024 0)
(2.84322 -0.231393 0)
(3.14002 -0.0574549 0)
(2.80994 -0.391687 0)
(3.16721 -0.184968 0)
(2.78444 -0.550934 0)
(3.17318 -0.333284 0)
(2.79619 -0.699097 0)
(3.1477 -0.484378 0)
(2.84803 -0.861211 0)
(3.11308 -0.620995 0)
(2.92343 -1.02824 0)
(3.11655 -0.789692 0)
(2.99623 -1.14705 0)
(3.18218 -1.03283 0)
(3.08646 -1.20595 0)
(3.28005 -1.26841 0)
(3.23554 -1.29664 0)
(3.38247 -1.38254 0)
(3.43666 -1.4362 0)
(3.13888 0.0891295 0)
(2.82268 -0.270133 0)
(3.17105 -0.0152759 0)
(2.79054 -0.43327 0)
(3.19299 -0.140568 0)
(2.76588 -0.592416 0)
(3.19865 -0.296701 0)
(2.76722 -0.738761 0)
(3.18702 -0.457365 0)
(2.80199 -0.904824 0)
(3.16537 -0.599491 0)
(2.87665 -1.09383 0)
(3.15668 -0.76081 0)
(2.96946 -1.24968 0)
(3.20816 -1.00248 0)
(3.05862 -1.32755 0)
(3.33203 -1.28367 0)
(3.19838 -1.39241 0)
(3.47198 -1.47332 0)
(3.42207 -1.50558 0)
(3.14144 0.106793 0)
(2.83836 -0.294654 0)
(3.17644 0.0166276 0)
(2.81398 -0.46556 0)
(3.192 -0.10022 0)
(2.78755 -0.632095 0)
(3.21129 -0.253046 0)
(2.76352 -0.787402 0)
(3.23181 -0.420641 0)
(2.75508 -0.959917 0)
(3.24178 -0.576763 0)
(2.79772 -1.15874 0)
(3.23086 -0.738038 0)
(2.89234 -1.35313 0)
(3.2483 -0.961288 0)
(3.00465 -1.47581 0)
(3.34615 -1.27301 0)
(3.16246 -1.52732 0)
(3.50413 -1.55713 0)
(3.39776 -1.59204 0)
(3.13145 0.0986905 0)
(2.86535 -0.284854 0)
(3.16778 0.0135543 0)
(2.83769 -0.465031 0)
(3.18317 -0.0882076 0)
(2.80634 -0.645186 0)
(3.21403 -0.218184 0)
(2.75765 -0.824287 0)
(3.26161 -0.373034 0)
(2.7009 -1.01019 0)
(3.31056 -0.544712 0)
(2.67951 -1.21472 0)
(3.33003 -0.724341 0)
(2.73966 -1.43769 0)
(3.32511 -0.940804 0)
(2.88483 -1.61515 0)
(3.35691 -1.25849 0)
(3.097 -1.69681 0)
(3.49498 -1.61169 0)
(3.38135 -1.72973 0)
(3.14708 0.0729741 0)
(2.84816 -0.247391 0)
(3.18691 -0.0230976 0)
(2.81135 -0.421905 0)
(3.19485 -0.120967 0)
(2.78161 -0.607378 0)
(3.21032 -0.227939 0)
(2.73338 -0.811126 0)
(3.24677 -0.351863 0)
(2.66614 -1.02553 0)
(3.30873 -0.507687 0)
(2.60349 -1.25478 0)
(3.37695 -0.699918 0)
(2.60389 -1.5072 0)
(3.41793 -0.944428 0)
(2.72249 -1.73524 0)
(3.44585 -1.27616 0)
(2.97369 -1.87261 0)
(3.54864 -1.6735 0)
(3.37214 -1.91481 0)
(3.19844 0.0476765 0)
(2.78213 -0.20275 0)
(3.24758 -0.0691699 0)
(2.73095 -0.359975 0)
(3.25703 -0.181453 0)
(2.69739 -0.532036 0)
(3.25825 -0.291993 0)
(2.66507 -0.7358 0)
(3.25359 -0.401802 0)
(2.62923 -0.974477 0)
(3.26246 -0.526889 0)
(2.59764 -1.24509 0)
(3.30631 -0.686042 0)
(2.59529 -1.5566 0)
(3.39029 -0.913435 0)
(2.67312 -1.86734 0)
(3.4876 -1.29615 0)
(2.8734 -2.07728 0)
(3.66088 -1.79712 0)
(3.27869 -2.1162 0)
(3.19182 0.0341437 0)
(2.78375 -0.169806 0)
(3.23875 -0.0983202 0)
(2.72078 -0.312086 0)
(3.26054 -0.225989 0)
(2.65498 -0.464271 0)
(3.28411 -0.357413 0)
(2.58909 -0.643303 0)
(3.28809 -0.495156 0)
(2.54423 -0.858573 0)
(3.26136 -0.644004 0)
(2.53625 -1.13229 0)
(3.21838 -0.788941 0)
(2.57157 -1.50598 0)
(3.19765 -0.943574 0)
(2.68378 -1.96415 0)
(3.24627 -1.22701 0)
(2.91123 -2.40526 0)
(3.51637 -1.83553 0)
(3.15903 -2.48441 0)
(3.06365 0.0294943 0)
(2.93846 -0.157686 0)
(3.0748 -0.0959811 0)
(2.89585 -0.29552 0)
(3.07393 -0.220743 0)
(2.81987 -0.439519 0)
(3.09164 -0.360394 0)
(2.71559 -0.593274 0)
(3.10885 -0.531479 0)
(2.59645 -0.760779 0)
(3.11246 -0.740114 0)
(2.47578 -0.979491 0)
(3.09996 -0.965199 0)
(2.39609 -1.30778 0)
(3.03674 -1.18897 0)
(2.45582 -1.83232 0)
(2.91093 -1.34835 0)
(2.76997 -2.63447 0)
(2.9254 -1.64427 0)
(3.27673 -3.29977 0)
(2.95848 0.00999563 0)
(3.07046 -0.132207 0)
(2.93086 -0.0970754 0)
(3.05698 -0.268982 0)
(2.87423 -0.202657 0)
(3.01351 -0.41567 0)
(2.81408 -0.323688 0)
(2.94538 -0.570835 0)
(2.75104 -0.480192 0)
(2.83495 -0.736877 0)
(2.71458 -0.683289 0)
(2.64946 -0.932348 0)
(2.72723 -0.955503 0)
(2.3841 -1.17 0)
(2.76872 -1.34342 0)
(2.11693 -1.51821 0)
(2.75993 -1.81161 0)
(2.13455 -2.3385 0)
(2.51573 -1.98667 0)
(3.10159 -4.123 0)
(2.98902 -0.0247066 0)
(3.02514 -0.077889 0)
(2.97072 -0.125553 0)
(3.00223 -0.200558 0)
(2.90761 -0.225772 0)
(2.96158 -0.331219 0)
(2.8064 -0.33678 0)
(2.91232 -0.481659 0)
(2.66732 -0.463573 0)
(2.83823 -0.666942 0)
(2.51232 -0.60864 0)
(2.7132 -0.905898 0)
(2.3683 -0.802724 0)
(2.50498 -1.19963 0)
(2.27866 -1.12948 0)
(2.14689 -1.53119 0)
(2.30268 -1.75041 0)
(1.58854 -1.93779 0)
(2.30986 -2.80838 0)
(1.69385 -3.71873 0)
(3.07525 -0.943326 0)
(3.11103 -1.08307 0)
(3.11909 -0.971348 0)
(3.25926 -0.993016 0)
(3.30611 -1.16361 0)
(3.22167 -0.972525 0)
(3.2813 -0.797475 0)
(3.35485 -0.678362 0)
(3.38767 -0.739939 0)
(3.44452 -0.74936 0)
(3.15333 -0.950583 0)
(3.21898 -1.11043 0)
(3.17964 -1.07213 0)
(3.44304 -1.08027 0)
(3.4162 -1.16444 0)
(3.31499 -0.955508 0)
(3.39739 -0.874529 0)
(3.54063 -0.739916 0)
(3.57476 -0.781826 0)
(3.62057 -0.818532 0)
(3.14884 -0.979797 0)
(3.33007 -1.09975 0)
(3.21468 -1.14399 0)
(3.48085 -1.11584 0)
(3.37334 -1.11322 0)
(3.34884 -0.94067 0)
(3.46092 -0.940924 0)
(3.57716 -0.807455 0)
(3.68545 -0.772903 0)
(3.6608 -0.839224 0)
(3.17224 -1.01807 0)
(3.43171 -1.13324 0)
(3.27767 -1.19608 0)
(3.54728 -1.13849 0)
(3.44558 -1.11364 0)
(3.42826 -0.998736 0)
(3.60485 -1.00776 0)
(3.67638 -0.901765 0)
(3.91663 -0.798314 0)
(3.80348 -0.905936 0)
(3.23647 -1.07726 0)
(3.47221 -1.14642 0)
(3.32501 -1.24021 0)
(3.54937 -1.1809 0)
(3.5312 -1.0701 0)
(3.50492 -1.03383 0)
(3.70575 -1.08369 0)
(3.74176 -1.03711 0)
(4.10013 -0.819092 0)
(3.92849 -0.917642 0)
(3.33346 -1.14313 0)
(3.45273 -1.1706 0)
(3.41589 -1.26831 0)
(3.53937 -1.23818 0)
(3.66302 -1.10111 0)
(3.65986 -1.09722 0)
(3.80749 -1.14911 0)
(3.86117 -1.17616 0)
(4.26025 -0.876647 0)
(4.12811 -0.955747 0)
(3.4207 -1.20773 0)
(3.40891 -1.18046 0)
(3.53683 -1.31395 0)
(3.577 -1.33188 0)
(3.71594 -1.16121 0)
(3.82517 -1.10513 0)
(3.8511 -1.2239 0)
(4.06369 -1.3418 0)
(4.35905 -0.964034 0)
(4.35279 -0.976372 0)
(3.4278 -1.25297 0)
(3.42617 -1.22625 0)
(3.66754 -1.37978 0)
(3.66965 -1.36544 0)
(3.65206 -1.25988 0)
(3.97851 -1.14176 0)
(3.8956 -1.34546 0)
(4.32972 -1.48919 0)
(4.40872 -1.05426 0)
(4.60414 -1.02819 0)
(3.39214 -1.28382 0)
(3.52764 -1.3299 0)
(3.75191 -1.44795 0)
(3.7603 -1.34153 0)
(3.58713 -1.36576 0)
(4.11097 -1.20424 0)
(3.97823 -1.5175 0)
(4.5351 -1.62187 0)
(4.43473 -1.15357 0)
(4.8386 -1.10938 0)
(3.4069 -1.32242 0)
(3.67028 -1.4777 0)
(3.76856 -1.48564 0)
(3.81985 -1.29709 0)
(3.63791 -1.49037 0)
(4.18811 -1.33656 0)
(4.13614 -1.70863 0)
(4.59449 -1.7131 0)
(4.51866 -1.26994 0)
(5.03438 -1.24128 0)
(3.51541 -1.39908 0)
(3.78864 -1.60298 0)
(3.74233 -1.47829 0)
(3.85978 -1.32266 0)
(3.78363 -1.58033 0)
(4.17275 -1.50335 0)
(4.26405 -1.86906 0)
(4.50448 -1.8129 0)
(4.70218 -1.49641 0)
(5.11625 -1.40841 0)
(3.65881 -1.51749 0)
(3.82219 -1.67287 0)
(3.7586 -1.43864 0)
(3.85477 -1.40878 0)
(3.89267 -1.61956 0)
(4.11246 -1.68532 0)
(4.25852 -2.00078 0)
(4.319 -1.94667 0)
(4.73491 -1.78992 0)
(4.83494 -1.50091 0)
(3.76874 -1.65901 0)
(3.76483 -1.70131 0)
(3.85513 -1.40076 0)
(3.83604 -1.49082 0)
(3.99485 -1.64438 0)
(4.01724 -1.82487 0)
(3.99477 -2.0492 0)
(3.92386 -2.06569 0)
(4.21204 -1.96269 0)
(3.93366 -1.41796 0)
(3.83898 -1.79216 0)
(3.75132 -1.73122 0)
(4.04285 -1.39425 0)
(3.93405 -1.54102 0)
(4.10952 -1.62215 0)
(3.64952 -1.76693 0)
(3.37655 -1.92661 0)
(3.06379 -2.02659 0)
(2.99636 -1.88122 0)
(2.4871 -1.18881 0)
(3.92357 -1.94034 0)
(3.94343 -1.79323 0)
(4.33361 -1.4469 0)
(4.08091 -1.51024 0)
(3.90871 -1.37652 0)
(2.83339 -1.44708 0)
(2.40077 -1.62828 0)
(1.73903 -1.79455 0)
(1.43367 -1.62247 0)
(0.864515 -0.965366 0)
(4.11601 -2.19654 0)
(4.24559 -1.92076 0)
(4.4967 -1.46938 0)
(3.85419 -1.25602 0)
(3.06797 -0.800914 0)
(1.69355 -0.948467 0)
(1.20423 -1.22057 0)
(0.284048 -1.40958 0)
(-0.0379353 -1.24151 0)
(-0.758674 -0.727541 0)
(4.35579 -2.60146 0)
(4.20458 -2.01567 0)
(4.02118 -1.20587 0)
(2.83157 -0.73118 0)
(1.7205 -0.104792 0)
(0.438145 -0.426387 0)
(0.0807605 -0.750085 0)
(-0.764508 -1.03862 0)
(-1.01745 -1.03771 0)
(-1.74713 -0.566931 0)
(4.15896 -2.94484 0)
(3.25451 -1.60049 0)
(2.39443 -0.773352 0)
(0.803178 0.304832 0)
(0.247917 0.666284 0)
(-0.439712 -0.0787834 0)
(-0.423083 -0.481369 0)
(-1.14759 -0.837039 0)
(-1.54399 -0.674853 0)
(-2.5573 -0.241195 0)
(2.89696 -2.6917 0)
(0.973281 -1.07371 0)
(-1.77037 0.497552 0)
(-1.2258 0.425134 0)
(-0.273275 0.675077 0)
(-0.824264 -0.0528767 0)
(-0.536684 -0.222128 0)
(-1.16397 -0.370323 0)
(-1.34106 -0.231452 0)
(-2.15157 -0.119215 0)
(0.0413384 -0.61989 0)
(-3.2532 1.37233 0)
(0.437089 0.467448 0)
(-1.87121 -0.419945 0)
(0.419748 0.454844 0)
(-0.104256 0.0632064 0)
(0.374278 -0.166431 0)
(-0.675382 -0.408738 0)
(-0.810241 -0.211254 0)
(-1.56719 -0.192714 0)
(3.47927 -0.396085 0)
(3.48076 -0.471885 0)
(3.52407 -0.285539 0)
(3.54974 0.262661 0)
(3.25229 0.178629 0)
(2.94607 -0.0624245 0)
(3.40833 0.110265 0)
(4.08221 -0.0775819 0)
(3.89583 -0.095929 0)
(3.49799 0.729775 0)
(3.63979 1.01795 0)
(3.56994 0.685664 0)
(3.22997 0.648664 0)
(3.27893 0.520677 0)
(3.42644 -0.112228 0)
(3.20117 -0.861347 0)
(2.7077 -1.39923 0)
(2.06552 -1.54039 0)
(1.53197 -1.50016 0)
(0.923867 -0.867733 0)
(3.72782 -0.415021 0)
(3.61642 -0.496496 0)
(3.65845 -0.330194 0)
(3.78689 0.317493 0)
(3.40727 0.34813 0)
(2.86397 -0.104643 0)
(3.34678 -0.212968 0)
(4.26629 -0.235833 0)
(4.11006 0.0479987 0)
(3.61704 0.787391 0)
(3.69389 0.973341 0)
(3.50159 0.763506 0)
(3.23245 0.729859 0)
(3.32852 0.476874 0)
(3.31392 -0.103182 0)
(3.00908 -0.683484 0)
(2.59776 -1.09963 0)
(2.09911 -1.21732 0)
(1.6893 -1.20806 0)
(1.23273 -0.726018 0)
(3.876 -0.398355 0)
(3.63211 -0.449055 0)
(3.56065 -0.346921 0)
(3.86392 0.333532 0)
(3.67676 0.471912 0)
(3.11759 -0.0521965 0)
(3.38331 -0.351222 0)
(4.18943 -0.30295 0)
(4.08479 0.120493 0)
(3.68602 0.8481 0)
(3.68991 1.03566 0)
(3.45734 0.840715 0)
(3.24002 0.71308 0)
(3.2394 0.478934 0)
(3.20801 -0.023561 0)
(3.00371 -0.62298 0)
(2.62391 -1.10033 0)
(2.09838 -1.23061 0)
(1.65215 -1.21278 0)
(1.23782 -0.709093 0)
(4.1236 -0.416172 0)
(3.80189 -0.38929 0)
(3.44969 -0.412291 0)
(3.90922 0.268895 0)
(4.06548 0.584076 0)
(3.64496 0.0110466 0)
(3.61001 -0.542672 0)
(4.20957 -0.444845 0)
(4.11717 0.173799 0)
(3.7606 0.908877 0)
(3.67038 1.06438 0)
(3.38327 0.906693 0)
(3.20523 0.785643 0)
(3.20684 0.488228 0)
(3.11284 -0.0245812 0)
(2.84204 -0.516011 0)
(2.5151 -0.856719 0)
(2.12067 -0.949887 0)
(1.82067 -0.984303 0)
(1.41572 -0.620686 0)
(4.31405 -0.421843 0)
(3.97359 -0.24071 0)
(3.27171 -0.391249 0)
(3.77884 0.131005 0)
(4.34329 0.581114 0)
(4.31558 0.108961 0)
(4.10426 -0.541303 0)
(4.28151 -0.459835 0)
(4.13137 0.263571 0)
(3.80788 0.988622 0)
(3.61359 1.13893 0)
(3.31534 0.973221 0)
(3.15927 0.780988 0)
(3.08919 0.507362 0)
(3.00485 0.0737568 0)
(2.84159 -0.433443 0)
(2.54703 -0.854929 0)
(2.11333 -0.97199 0)
(1.7495 -0.976221 0)
(1.43406 -0.587714 0)
(4.48885 -0.455574 0)
(4.2251 -0.073754 0)
(3.27476 -0.342425 0)
(3.55837 -0.0886102 0)
(4.43094 0.448655 0)
(4.8181 0.126128 0)
(4.67974 -0.508802 0)
(4.48752 -0.448176 0)
(4.18259 0.332318 0)
(3.8434 1.06448 0)
(3.56435 1.20403 0)
(3.26126 1.04494 0)
(3.09683 0.846189 0)
(3.01504 0.526077 0)
(2.91499 0.0547076 0)
(2.70708 -0.374612 0)
(2.45081 -0.665841 0)
(2.14584 -0.74047 0)
(1.89418 -0.806276 0)
(1.54708 -0.527988 0)
(4.60304 -0.47578 0)
(4.41957 0.105441 0)
(3.54636 -0.193151 0)
(3.38348 -0.2717 0)
(4.21984 0.204239 0)
(4.90533 0.0607046 0)
(5.02081 -0.441987 0)
(4.6953 -0.324619 0)
(4.2382 0.457726 0)
(3.84337 1.16524 0)
(3.50038 1.30503 0)
(3.19381 1.11695 0)
(3.01788 0.86653 0)
(2.92485 0.564583 0)
(2.85347 0.153936 0)
(2.72238 -0.289736 0)
(2.47628 -0.658406 0)
(2.10923 -0.75713 0)
(1.83804 -0.781878 0)
(1.56528 -0.492868 0)
(4.7026 -0.480318 0)
(4.56541 0.226727 0)
(3.989 -0.0168409 0)
(3.38619 -0.329263 0)
(3.87258 -0.0256374 0)
(4.66993 -0.0859273 0)
(5.04123 -0.443179 0)
(4.81401 -0.212228 0)
(4.28587 0.590368 0)
(3.82021 1.28102 0)
(3.44779 1.39471 0)
(3.12725 1.19299 0)
(2.95487 0.92691 0)
(2.84522 0.576036 0)
(2.75111 0.12659 0)
(2.59815 -0.254914 0)
(2.40825 -0.508119 0)
(2.15499 -0.575822 0)
(1.93485 -0.656338 0)
(1.63743 -0.445478 0)
(4.8479 -0.445961 0)
(4.66041 0.29591 0)
(4.3513 0.173325 0)
(3.59212 -0.261366 0)
(3.76282 -0.190793 0)
(4.42038 -0.279046 0)
(4.84361 -0.488332 0)
(4.76996 -0.0987538 0)
(4.26423 0.74487 0)
(3.77156 1.40076 0)
(3.35114 1.49795 0)
(3.04219 1.26744 0)
(2.87548 0.956303 0)
(2.76748 0.621 0)
(2.7289 0.213468 0)
(2.61797 -0.186402 0)
(2.39967 -0.501622 0)
(2.10351 -0.578277 0)
(1.9004 -0.621413 0)
(1.65476 -0.412086 0)
(5.05978 -0.386067 0)
(4.75355 0.341738 0)
(4.52948 0.314969 0)
(3.84887 -0.18756 0)
(4.00931 -0.296427 0)
(4.47879 -0.415642 0)
(4.68906 -0.532837 0)
(4.59399 -0.0212086 0)
(4.13862 0.893886 0)
(3.65749 1.53925 0)
(3.22794 1.60732 0)
(2.96683 1.33687 0)
(2.78514 1.0128 0)
(2.69855 0.62921 0)
(2.6484 0.18751 0)
(2.52638 -0.14561 0)
(2.37016 -0.373341 0)
(2.14291 -0.442806 0)
(1.95856 -0.527141 0)
(1.70042 -0.371546 0)
(5.21823 -0.322874 0)
(4.75739 0.402595 0)
(4.49221 0.466229 0)
(3.90854 -0.12554 0)
(4.26092 -0.378089 0)
(4.74746 -0.46625 0)
(4.677 -0.489463 0)
(4.36967 0.0884306 0)
(3.95349 1.02567 0)
(3.49306 1.65996 0)
(3.0964 1.69213 0)
(2.85241 1.40306 0)
(2.69788 1.04495 0)
(2.63827 0.655638 0)
(2.59035 0.249891 0)
(2.48649 -0.107112 0)
(2.32517 -0.371603 0)
(2.09752 -0.432469 0)
(1.94073 -0.488141 0)
(1.7161 -0.340344 0)
(5.01314 -0.261967 0)
(4.45549 0.480574 0)
(4.26908 0.578692 0)
(3.64836 -0.149936 0)
(4.10685 -0.52682 0)
(4.78935 -0.509258 0)
(4.67213 -0.399552 0)
(4.17291 0.22348 0)
(3.69819 1.17173 0)
(3.24492 1.77895 0)
(2.92404 1.78145 0)
(2.72063 1.46171 0)
(2.60474 1.07644 0)
(2.55282 0.668277 0)
(2.5475 0.247607 0)
(2.48479 -0.0591712 0)
(2.34834 -0.268357 0)
(2.13092 -0.333132 0)
(1.97315 -0.414222 0)
(1.74461 -0.304314 0)
(4.16274 -0.169471 0)
(3.63812 0.557982 0)
(3.72579 0.719597 0)
(3.14574 -0.118032 0)
(3.69575 -0.713698 0)
(4.4611 -0.619298 0)
(4.43052 -0.302118 0)
(3.90412 0.392845 0)
(3.39796 1.30533 0)
(2.98789 1.8732 0)
(2.72855 1.8437 0)
(2.57321 1.50009 0)
(2.49213 1.10133 0)
(2.48869 0.674049 0)
(2.49685 0.262297 0)
(2.40435 -0.0407016 0)
(2.26086 -0.254282 0)
(2.07396 -0.308556 0)
(1.95479 -0.374081 0)
(1.75493 -0.275199 0)
(2.78981 -0.179086 0)
(2.41127 0.55902 0)
(2.70136 0.738121 0)
(2.66908 -0.218115 0)
(3.40844 -0.943762 0)
(4.00805 -0.739847 0)
(3.99965 -0.229924 0)
(3.52841 0.558348 0)
(3.02289 1.44356 0)
(2.68059 1.95849 0)
(2.49151 1.88751 0)
(2.40277 1.53357 0)
(2.37869 1.10648 0)
(2.42136 0.667212 0)
(2.44679 0.277152 0)
(2.38354 0.00839899 0)
(2.2697 -0.180158 0)
(2.09102 -0.242306 0)
(1.97208 -0.319284 0)
(1.77312 -0.244576 0)
(1.04411 -0.140441 0)
(0.990304 0.538456 0)
(1.61059 0.68737 0)
(2.45005 -0.425491 0)
(3.19624 -1.09978 0)
(3.53815 -0.775877 0)
(3.42743 -0.143663 0)
(3.03201 0.712297 0)
(2.58655 1.56515 0)
(2.33265 2.01617 0)
(2.22749 1.91501 0)
(2.2186 1.53918 0)
(2.26548 1.09646 0)
(2.35023 0.657546 0)
(2.39391 0.276774 0)
(2.33684 0.0194753 0)
(2.22661 -0.156687 0)
(2.0627 -0.210038 0)
(1.96316 -0.27927 0)
(1.78156 -0.217177 0)
(-0.33638 -0.258227 0)
(-0.364479 0.406323 0)
(1.0429 0.322691 0)
(2.15682 -0.770578 0)
(2.70319 -1.24299 0)
(2.94812 -0.774381 0)
(2.75784 -0.0718422 0)
(2.45201 0.834447 0)
(2.10314 1.65598 0)
(1.94095 2.04851 0)
(1.95049 1.91164 0)
(2.0359 1.52178 0)
(2.1519 1.07051 0)
(2.28465 0.631803 0)
(2.34599 0.280938 0)
(2.29163 0.0574588 0)
(2.19263 -0.105222 0)
(2.04579 -0.164205 0)
(1.96054 -0.236996 0)
(1.79014 -0.190644 0)
(-1.59431 -0.287009 0)
(-0.582863 0.107298 0)
(0.805989 -0.0776945 0)
(1.73511 -1.02092 0)
(2.03706 -1.33433 0)
(2.27651 -0.756255 0)
(2.03533 0.00622843 0)
(1.80415 0.943453 0)
(1.57038 1.72586 0)
(1.55483 2.0438 0)
(1.6864 1.87644 0)
(1.84889 1.48206 0)
(2.0421 1.02499 0)
(2.22161 0.601721 0)
(2.28838 0.278105 0)
(2.24023 0.0718491 0)
(2.15714 -0.0776113 0)
(2.02659 -0.133939 0)
(1.95489 -0.202499 0)
(1.79633 -0.166464 0)
(-1.3455 -0.710697 0)
(-0.461231 -0.33419 0)
(0.558102 -0.386709 0)
(1.30305 -1.20859 0)
(1.37734 -1.3892 0)
(1.56687 -0.734327 0)
(1.30605 0.0648738 0)
(1.14702 1.00342 0)
(1.0633 1.73833 0)
(1.16753 2.00064 0)
(1.40861 1.81584 0)
(1.66233 1.41561 0)
(1.94866 0.960569 0)
(2.15989 0.56181 0)
(2.22634 0.275764 0)
(2.18449 0.095944 0)
(2.11717 -0.0440768 0)
(2.00473 -0.102718 0)
(1.94739 -0.169691 0)
(1.80077 -0.14354 0)
(-0.603501 -1.07561 0)
(-0.656487 -0.505673 0)
(0.308607 -0.603966 0)
(0.849329 -1.30807 0)
(0.763455 -1.37843 0)
(0.874235 -0.691496 0)
(0.571538 0.136217 0)
(0.491587 1.04107 0)
(0.502656 1.72579 0)
(0.784708 1.92415 0)
(1.14574 1.71927 0)
(1.50178 1.32007 0)
(1.8694 0.87813 0)
(2.08941 0.520642 0)
(2.15103 0.272969 0)
(2.12191 0.109386 0)
(2.07672 -0.021591 0)
(1.98358 -0.0794211 0)
(1.93976 -0.141858 0)
(1.80421 -0.12257 0)
(-0.572675 -1.50902 0)
(-0.779554 -0.610669 0)
(0.0177047 -0.829972 0)
(0.316962 -1.38334 0)
(0.123843 -1.37536 0)
(0.184841 -0.656219 0)
(-0.14183 0.180997 0)
(-0.110314 1.04206 0)
(0.0383367 1.65088 0)
(0.462238 1.79459 0)
(0.886322 1.59457 0)
(1.37432 1.19506 0)
(1.79659 0.784325 0)
(2.00331 0.479456 0)
(2.06426 0.267194 0)
(2.05697 0.11916 0)
(2.03699 -0.00327601 0)
(1.96305 -0.059946 0)
(1.93198 -0.117105 0)
(1.80679 -0.103045 0)
(-0.465209 -1.26524 0)
(-0.740544 -0.670651 0)
(-0.238015 -0.930979 0)
(-0.278766 -1.33816 0)
(-0.588661 -1.3318 0)
(-0.546618 -0.594564 0)
(-0.893947 0.225903 0)
(-0.694283 0.978724 0)
(-0.425949 1.54248 0)
(0.0714575 1.64398 0)
(0.671795 1.41743 0)
(1.29294 1.02576 0)
(1.69831 0.682242 0)
(1.87735 0.438633 0)
(1.95646 0.256834 0)
(1.98557 0.120388 0)
(1.99615 0.00823166 0)
(1.94253 -0.0444762 0)
(1.9241 -0.0938094 0)
(1.80916 -0.0832625 0)
(-0.706515 -1.06411 0)
(-0.702132 -0.721466 0)
(-0.631008 -0.950816 0)
(-0.820761 -1.28738 0)
(-1.28143 -1.25719 0)
(-1.2892 -0.51813 0)
(-1.5817 0.245253 0)
(-1.26703 0.899273 0)
(-0.88618 1.38503 0)
(-0.189085 1.40007 0)
(0.583123 1.15886 0)
(1.17772 0.838612 0)
(1.51939 0.58503 0)
(1.70946 0.390671 0)
(1.84138 0.230263 0)
(1.91789 0.107299 0)
(1.95927 0.0111752 0)
(1.92422 -0.0336813 0)
(1.91704 -0.0724455 0)
(1.81143 -0.063501 0)
(-0.466506 -0.852507 0)
(-0.785685 -0.726796 0)
(-0.872216 -0.862816 0)
(-1.22669 -1.16448 0)
(-1.8694 -1.13826 0)
(-1.90291 -0.459811 0)
(-1.96063 0.220647 0)
(-1.61256 0.728128 0)
(-1.09053 1.13806 0)
(-0.299573 1.09384 0)
(0.439639 0.908898 0)
(0.94266 0.682756 0)
(1.29395 0.489338 0)
(1.55285 0.322614 0)
(1.74957 0.183231 0)
(1.86698 0.0805964 0)
(1.93191 0.00592861 0)
(1.91087 -0.0278989 0)
(1.91219 -0.0543695 0)
(1.81387 -0.0452432 0)
(-0.260623 -0.544754 0)
(-0.906962 -0.576704 0)
(-1.04601 -0.766717 0)
(-1.62293 -0.973116 0)
(-2.29229 -1.00186 0)
(-2.40441 -0.465184 0)
(-2.19656 0.139485 0)
(-1.91705 0.565368 0)
(-1.27452 0.877347 0)
(-0.516597 0.821176 0)
(0.149738 0.698767 0)
(0.672998 0.525643 0)
(1.10864 0.365235 0)
(1.44428 0.226981 0)
(1.68962 0.118798 0)
(1.83381 0.0441159 0)
(1.91411 -0.00485733 0)
(1.90266 -0.0256129 0)
(1.90989 -0.0386583 0)
(1.81672 -0.0280886 0)
(-0.572581 -0.413512 0)
(-0.81391 -0.458312 0)
(-1.25412 -0.573927 0)
(-1.7901 -0.786459 0)
(-2.56051 -0.828499 0)
(-2.77649 -0.462388 0)
(-2.5174 0.0541884 0)
(-2.25612 0.402882 0)
(-1.47842 0.618 0)
(-0.845638 0.567469 0)
(-0.100518 0.469499 0)
(0.495816 0.33381 0)
(1.00394 0.210388 0)
(1.38548 0.112723 0)
(1.65672 0.0443637 0)
(1.81564 0.00194684 0)
(1.90507 -0.0191504 0)
(1.89958 -0.0256637 0)
(1.91034 -0.0245446 0)
(1.82014 -0.0116815 0)
(-0.529681 -0.0420837 0)
(-1.00304 -0.351385 0)
(-1.25352 -0.397123 0)
(-1.86519 -0.573088 0)
(-2.611 -0.640407 0)
(-2.89727 -0.452839 0)
(-2.72693 -0.0435699 0)
(-2.46092 0.199911 0)
(-1.63857 0.347628 0)
(-1.02161 0.316863 0)
(-0.223914 0.202433 0)
(0.418506 0.119579 0)
(0.958155 0.0413839 0)
(1.35939 -0.00950859 0)
(1.64289 -0.0347906 0)
(1.80974 -0.0432423 0)
(1.90415 -0.0354006 0)
(1.90164 -0.0269744 0)
(1.91372 -0.0112161 0)
(1.82425 0.004387 0)
(-0.544695 0.162026 0)
(-1.04224 -0.201776 0)
(-1.26209 -0.232214 0)
(-1.85923 -0.360427 0)
(-2.55418 -0.452765 0)
(-2.84126 -0.405514 0)
(-2.75014 -0.101172 0)
(-2.51398 0.0130687 0)
(-1.70471 0.0650401 0)
(-1.03209 0.0528628 0)
(-0.268402 -0.0651621 0)
(0.39447 -0.1018 0)
(0.94325 -0.132209 0)
(1.35343 -0.135229 0)
(1.64363 -0.11648 0)
(1.81486 -0.0900755 0)
(1.91117 -0.052547 0)
(1.90889 -0.0286161 0)
(1.9201 0.00214385 0)
(1.82908 0.0205218 0)
(-0.579013 0.512643 0)
(-1.11399 -0.0876159 0)
(-1.23235 -0.0743296 0)
(-1.76794 -0.164076 0)
(-2.40271 -0.269971 0)
(-2.64532 -0.358782 0)
(-2.63443 -0.154531 0)
(-2.40958 -0.171312 0)
(-1.64873 -0.220792 0)
(-0.979096 -0.203941 0)
(-0.229909 -0.33135 0)
(0.419286 -0.326307 0)
(0.960244 -0.308396 0)
(1.36845 -0.263171 0)
(1.65937 -0.19973 0)
(1.83126 -0.13748 0)
(1.92631 -0.0695371 0)
(1.92147 -0.0296072 0)
(1.92953 0.0163432 0)
(1.83459 0.0371346 0)
(-0.682116 0.847187 0)
(-1.16574 0.00506925 0)
(-1.14227 0.0334134 0)
(-1.55582 0.00951646 0)
(-2.05243 -0.116854 0)
(-2.2587 -0.303474 0)
(-2.36367 -0.190445 0)
(-2.07741 -0.331125 0)
(-1.5874 -0.483526 0)
(-0.770146 -0.463009 0)
(-0.0714782 -0.582031 0)
(0.549079 -0.541527 0)
(1.04613 -0.478925 0)
(1.42288 -0.388651 0)
(1.69719 -0.282059 0)
(1.86122 -0.183924 0)
(1.95022 -0.0852318 0)
(1.9395 -0.0289955 0)
(1.94195 0.0321695 0)
(1.84065 0.054645 0)
(-0.943944 1.10336 0)
(-1.27981 0.0988894 0)
(-0.992387 0.0846046 0)
(-1.17537 0.115141 0)
(-1.61908 0.0019225 0)
(-1.85369 -0.225606 0)
(-2.14264 -0.212351 0)
(-1.65044 -0.421452 0)
(-1.4972 -0.697661 0)
(-0.593026 -0.754543 0)
(0.13368 -0.813184 0)
(0.784649 -0.733736 0)
(1.23571 -0.625336 0)
(1.54596 -0.498243 0)
(1.77178 -0.356305 0)
(1.91014 -0.225968 0)
(1.9845 -0.0977633 0)
(1.96335 -0.025495 0)
(1.9573 0.0505852 0)
(1.8471 0.0735203 0)
(-1.23533 1.57323 0)
(-1.4368 -0.00148526 0)
(-0.778176 0.0210128 0)
(-0.717137 0.185156 0)
(-1.13968 0.126081 0)
(-1.46112 -0.108521 0)
(-1.95749 -0.252739 0)
(-1.41934 -0.543918 0)
(-1.31832 -0.863053 0)
(-0.577314 -1.03511 0)
(0.16937 -1.06162 0)
(0.938346 -0.919681 0)
(1.44342 -0.740198 0)
(1.71732 -0.572583 0)
(1.88168 -0.406118 0)
(1.97693 -0.25432 0)
(2.02659 -0.103659 0)
(1.99034 -0.018568 0)
(1.97343 0.0701852 0)
(1.85285 0.0919649 0)
(-0.862438 1.49497 0)
(-1.35575 -0.0213158 0)
(-0.601392 -0.128414 0)
(-0.241787 0.204569 0)
(-0.598849 0.22683 0)
(-0.8945 0.0248338 0)
(-1.47787 -0.23229 0)
(-1.1216 -0.618848 0)
(-1.00745 -0.97575 0)
(-0.42372 -1.23103 0)
(0.18848 -1.29011 0)
(0.960072 -1.12108 0)
(1.56065 -0.859887 0)
(1.86905 -0.630307 0)
(2.00118 -0.435061 0)
(2.05322 -0.268351 0)
(2.07282 -0.102105 0)
(2.01831 -0.00799133 0)
(1.98921 0.0905687 0)
(1.85774 0.109657 0)
(-0.806715 1.49349 0)
(-1.35981 -0.04947 0)
(-0.454085 -0.312583 0)
(0.252209 0.170103 0)
(0.0205863 0.321933 0)
(-0.202355 0.147142 0)
(-0.815426 -0.172959 0)
(-0.698956 -0.65228 0)
(-0.681666 -1.06205 0)
(-0.148321 -1.38068 0)
(0.370618 -1.46965 0)
(1.01355 -1.31626 0)
(1.63401 -0.998549 0)
(1.99492 -0.695334 0)
(2.12437 -0.456519 0)
(2.1411 -0.272191 0)
(2.12733 -0.0942486 0)
(2.05024 0.006771 0)
(2.00623 0.114147 0)
(1.86219 0.128899 0)
(-1.16881 1.3144 0)
(-1.01793 -0.113572 0)
(-0.425386 -0.611395 0)
(0.719994 0.060076 0)
(0.647964 0.365441 0)
(0.498157 0.256704 0)
(-0.143226 -0.0898057 0)
(-0.204238 -0.651622 0)
(-0.301071 -1.1418 0)
(0.0839973 -1.53065 0)
(0.596745 -1.63341 0)
(1.13479 -1.48834 0)
(1.70521 -1.14007 0)
(2.09932 -0.767261 0)
(2.24273 -0.47545 0)
(2.23488 -0.266369 0)
(2.18828 -0.0748801 0)
(2.08615 0.0292953 0)
(2.02462 0.142703 0)
(1.86605 0.150259 0)
(-0.941242 1.30131 0)
(-0.038616 -0.235641 0)
(-0.179907 -0.85029 0)
(1.12791 -0.155903 0)
(1.27077 0.381007 0)
(1.21594 0.379538 0)
(0.604509 0.032197 0)
(0.436172 -0.596314 0)
(0.225967 -1.14958 0)
(0.417561 -1.63377 0)
(0.849054 -1.78205 0)
(1.31314 -1.63808 0)
(1.79708 -1.27501 0)
(2.1904 -0.844555 0)
(2.35114 -0.492647 0)
(2.33062 -0.255988 0)
(2.25324 -0.0547069 0)
(2.12338 0.0543886 0)
(2.04277 0.174214 0)
(1.86856 0.173279 0)
(-0.0713801 1.19659 0)
(1.23189 -0.307925 0)
(0.740941 -0.951209 0)
(1.53225 -0.379089 0)
(1.85753 0.356235 0)
(1.91724 0.461923 0)
(1.36545 0.139729 0)
(1.10278 -0.523045 0)
(0.7631 -1.13155 0)
(0.816005 -1.69925 0)
(1.14582 -1.90439 0)
(1.54127 -1.76232 0)
(1.92552 -1.39169 0)
(2.28289 -0.92182 0)
(2.451 -0.512745 0)
(2.42216 -0.23352 0)
(2.32101 -0.0126832 0)
(2.16454 0.0945587 0)
(2.06158 0.214463 0)
(1.86975 0.199455 0)
(1.21206 1.16011 0)
(2.45274 -0.385097 0)
(1.95359 -0.948204 0)
(2.10972 -0.518919 0)
(2.39954 0.273914 0)
(2.54661 0.523188 0)
(2.10265 0.271328 0)
(1.78963 -0.407148 0)
(1.33824 -1.07456 0)
(1.23634 -1.73449 0)
(1.46283 -2.00755 0)
(1.8011 -1.86309 0)
(2.09278 -1.48796 0)
(2.38374 -0.989455 0)
(2.54782 -0.529242 0)
(2.51335 -0.219599 0)
(2.38879 0.014549 0)
(2.20561 0.127022 0)
(2.08121 0.253845 0)
(1.86948 0.226775 0)
(2.59438 1.13987 0)
(3.60746 -0.443295 0)
(3.02955 -0.888907 0)
(2.81351 -0.563154 0)
(2.93186 0.226851 0)
(3.12848 0.569324 0)
(2.79861 0.364208 0)