x,y,z,p
0,0,0,0.0134327
0,0.1,0,0.0274965
0,0.2,0,0.0415604
0,0.3,0,0.0582261
0,0.4,0,0.0774938
0,0.5,0,0.0967615
0,0.6,0,0.115893
0,0.7,0,0.135024
0,0.8,0,0.154016
0,0.9,0,0.172869
0,1,0,0.191721
0,1.1,0,0.210212
0,1.2,0,0.228703
0,1.3,0,0.247005
0,1.4,0,0.265118
0,1.5,0,0.28323
0,1.6,0,0.300918
0,1.7,0,0.318605
0,1.8,0,0.335948
0,1.9,0,0.352945
0,2,0,0.369943
0,2.1,0,0.386184
0,2.2,0,0.402424
0,2.3,0,0.418325
0,2.4,0,0.433885
0,2.5,0,0.449445
0,2.6,0,0.464205
0,2.7,0,0.478965
0,2.8,0,0.493327
0,2.9,0,0.507292
0,3,0,0.521257
0,3.1,0,0.534361
0,3.2,0,0.547465
0,3.3,0,0.56013
0,3.4,0,0.572354
0,3.5,0,0.584579
0,3.6,0,0.595892
0,3.7,0,0.607206
0,3.8,0,0.618031
0,3.9,0,0.628366
0,4,0,0.638702
0,4.1,0,0.648091
0,4.2,0,0.65748
0,4.3,0,0.666357
0,4.4,0,0.67472
0,4.5,0,0.683083
0,4.6,0,0.690437
0,4.7,0,0.697791
0,4.8,0,0.704489
0,4.9,0,0.710533
0,5,0,0.716576
0,5.1,0,0.72229
0,5.2,0,0.728004
0,5.3,0,0.732526
0,5.4,0,0.737049
0,5.5,0,0.740716
0,5.6,0,0.744384
0,5.7,0,0.74719
0,5.8,0,0.749997
0,5.9,0,0.75194
0,6,0,0.753883
0,6.1,0,0.754957
0,6.2,0,0.756032
0,6.3,0,0.756239
0,6.4,0,0.756445
0,6.5,0,0.755783
0,6.6,0,0.755122
0,6.7,0,0.753592
0,6.8,0,0.752062
0,6.9,0,0.749382
0,7,0,0.746702
0,7.1,0,0.743457
0,7.2,0,0.740212
0,7.3,0,0.736755
0,7.4,0,0.732096
0,7.5,0,0.727436
0,7.6,0,0.722415
0,7.7,0,0.71655
0,7.8,0,0.710685
0,7.9,0,0.704278
0,8,0,0.697207
0,8.1,0,0.690138
0,8.2,0,0.682381
0,8.3,0,0.674167
0,8.4,0,0.665953
0,8.5,0,0.656858
0,8.6,0,0.647468
0,8.7,0,0.638079
0,8.8,0,0.627709
0,8.9,0,0.61723
0,9,0,0.606697
0,9.1,0,0.595127
0,9.2,0,0.583557
0,9.3,0,0.571778
0,9.4,0,0.559161
0,9.5,0,0.546544
0,9.6,0,0.533587
0,9.7,0,0.519999
0,9.8,0,0.50641
0,9.9,0,0.492346
0,10,0,0.477806
0,10.1,0,0.463266
0,10.2,0,0.448168
0,10.3,0,0.43277
0,10.4,0,0.417372
0,10.5,0,0.401285
0,10.6,0,0.385026
0,10.7,0,0.368767
0,10.8,0,0.351887
0,10.9,0,0.334975
0,11,0,0.317997
0,11.1,0,0.300437
0,11.2,0,0.282877
0,11.3,0,0.265152
0,11.4,0,0.246931
0,11.5,0,0.22871
0,11.6,0,0.210327
0,11.7,0,0.191701
0,11.8,0,0.173075
0,11.9,0,0.154268
0,12,0,0.135313
0,12.1,0,0.116358
0,12.2,0,0.0971941
0,12.3,0,0.0779412
0,12.4,0,0.0586883
0,12.5,0,0.0437518
0,12.6,0,0.029577
0,12.7,0,0.0154021
0.1,0,0,0.0116417
0.1,0.1,0,0.0257624
0.1,0.2,0,0.0398263
0.1,0.3,0,0.0582256
0.1,0.4,0,0.0774933
0.1,0.5,0,0.0972144
0.1,0.6,0,0.115939
0.1,0.7,0,0.13507
0.1,0.8,0,0.154063
0.1,0.9,0,0.172916
0.1,1,0,0.192499
0.1,1.1,0,0.210286
0.1,1.2,0,0.228777
0.1,1.3,0,0.247057
0.1,1.4,0,0.26517
0.1,1.5,0,0.284295
0.1,1.6,0,0.301008
0.1,1.7,0,0.318695
0.1,1.8,0,0.336088
0.1,1.9,0,0.353086
0.1,2,0,0.371301
0.1,2.1,0,0.386296
0.1,2.2,0,0.402536
0.1,2.3,0,0.418439
0.1,2.4,0,0.434
0.1,2.5,0,0.450931
0.1,2.6,0,0.464357
0.1,2.7,0,0.479117
0.1,2.8,0,0.49344
0.1,2.9,0,0.507405
0.1,3,0,0.522892
0.1,3.1,0,0.534536
0.1,3.2,0,0.54764
0.1,3.3,0,0.560249
0.1,3.4,0,0.572473
0.1,3.5,0,0.586316
0.1,3.6,0,0.596077
0.1,3.7,0,0.607391
0.1,3.8,0,0.618172
0.1,3.9,0,0.628508
0.1,4,0,0.640518
0.1,4.1,0,0.648265
0.1,4.2,0,0.657654
0.1,4.3,0,0.666525
0.1,4.4,0,0.674888
0.1,4.5,0,0.684961
0.1,4.6,0,0.690605
0.1,4.7,0,0.697959
0.1,4.8,0,0.704758
0.1,4.9,0,0.710801
0.1,5,0,0.718494
0.1,5.1,0,0.722494
0.1,5.2,0,0.729937
0.1,5.3,0,0.73264
0.1,5.4,0,0.738994
0.1,5.5,0,0.740831
0.1,5.6,0,0.746337
0.1,5.7,0,0.747306
0.1,5.8,0,0.751959
0.1,5.9,0,0.752055
0.1,6,0,0.755849
0.1,6.1,0,0.755073
0.1,6.2,0,0.758003
0.1,6.3,0,0.756355
0.1,6.4,0,0.758417
0.1,6.5,0,0.755899
0.1,6.6,0,0.757094
0.1,6.7,0,0.753708
0.1,6.8,0,0.754034
0.1,6.9,0,0.749574
0.1,7,0,0.74867
0.1,7.1,0,0.743767
0.1,7.2,0,0.740522
0.1,7.3,0,0.738034
0.1,7.4,0,0.732324
0.1,7.5,0,0.727664
0.1,7.6,0,0.723007
0.1,7.7,0,0.71678
0.1,7.8,0,0.710915
0.1,7.9,0,0.704505
0.1,8,0,0.697435
0.1,8.1,0,0.690365
0.1,8.2,0,0.682588
0.1,8.3,0,0.674374
0.1,8.4,0,0.666726
0.1,8.5,0,0.657097
0.1,8.6,0,0.647708
0.1,8.7,0,0.639491
0.1,8.8,0,0.627883
0.1,8.9,0,0.617405
0.1,9,0,0.608263
0.1,9.1,0,0.595367
0.1,9.2,0,0.583797
0.1,9.3,0,0.572684
0.1,9.4,0,0.559319
0.1,9.5,0,0.546702
0.1,9.6,0,0.533912
0.1,9.7,0,0.52021
0.1,9.8,0,0.506622
0.1,9.9,0,0.492496
0.1,10,0,0.477956
0.1,10.1,0,0.463525
0.1,10.2,0,0.448344
0.1,10.3,0,0.432946
0.1,10.4,0,0.418123
0.1,10.5,0,0.401437
0.1,10.6,0,0.385178
0.1,10.7,0,0.369938
0.1,10.8,0,0.351984
0.1,10.9,0,0.335072
0.1,11,0,0.318898
0.1,11.1,0,0.300586
0.1,11.2,0,0.283026
0.1,11.3,0,0.26558
0.1,11.4,0,0.247033
0.1,11.5,0,0.228813
0.1,11.6,0,0.210379
0.1,11.7,0,0.191753
0.1,11.8,0,0.173127
0.1,11.9,0,0.154341
0.1,12,0,0.135386
0.1,12.1,0,0.116523
0.1,12.2,0,0.0972343
0.1,12.3,0,0.0779814
0.1,12.4,0,0.0588452
0.1,12.5,0,0.041782
0.1,12.6,0,0.0276072
0.1,12.7,0,0.0133485
0.2,0,0,0.00985065
0.2,0.1,0,0.0240283
0.2,0.2,0,0.039064
0.2,0.3,0,0.0583301
0.2,0.4,0,0.0774928
0.2,0.5,0,0.0976673
0.2,0.6,0,0.115985
0.2,0.7,0,0.135404
0.2,0.8,0,0.154397
0.2,0.9,0,0.172962
0.2,1,0,0.193276
0.2,1.1,0,0.21036
0.2,1.2,0,0.229216
0.2,1.3,0,0.247485
0.2,1.4,0,0.265222
0.2,1.5,0,0.285359
0.2,1.6,0,0.301097
0.2,1.7,0,0.319411
0.2,1.8,0,0.336829
0.2,1.9,0,0.353226
0.2,2,0,0.372659
0.2,2.1,0,0.386408
0.2,2.2,0,0.403316
0.2,2.3,0,0.41922
0.2,2.4,0,0.434114
0.2,2.5,0,0.452418
0.2,2.6,0,0.46451
0.2,2.7,0,0.479975
0.2,2.8,0,0.494278
0.2,2.9,0,0.507517
0.2,3,0,0.524527
0.2,3.1,0,0.53471
0.2,3.2,0,0.548561
0.2,3.3,0,0.561142
0.2,3.4,0,0.572592
0.2,3.5,0,0.588054
0.2,3.6,0,0.596262
0.2,3.7,0,0.608367
0.2,3.8,0,0.619127
0.2,3.9,0,0.628649
0.2,4,0,0.642334
0.2,4.1,0,0.648439
0.2,4.2,0,0.658665
0.2,4.3,0,0.667533
0.2,4.4,0,0.675056
0.2,4.5,0,0.686838
0.2,4.6,0,0.690773
0.2,4.7,0,0.698995
0.2,4.8,0,0.705844
0.2,4.9,0,0.71107
0.2,5,0,0.720412
0.2,5.1,0,0.722697
0.2,5.2,0,0.731871
0.2,5.3,0,0.732754
0.2,5.4,0,0.740938
0.2,5.5,0,0.740945
0.2,5.6,0,0.748291
0.2,5.7,0,0.747421
0.2,5.8,0,0.75392
0.2,5.9,0,0.752171
0.2,6,0,0.757816
0.2,6.1,0,0.755189
0.2,6.2,0,0.759973
0.2,6.3,0,0.75647
0.2,6.4,0,0.76039
0.2,6.5,0,0.756015
0.2,6.6,0,0.759067
0.2,6.7,0,0.753823
0.2,6.8,0,0.756007
0.2,6.9,0,0.749765
0.2,7,0,0.750638
0.2,7.1,0,0.744076
0.2,7.2,0,0.740831
0.2,7.3,0,0.739998
0.2,7.4,0,0.732551
0.2,7.5,0,0.728163
0.2,7.6,0,0.724953
0.2,7.7,0,0.71701
0.2,7.8,0,0.712083
0.2,7.9,0,0.706119
0.2,8,0,0.697663
0.2,8.1,0,0.692176
0.2,8.2,0,0.683508
0.2,8.3,0,0.674581
0.2,8.4,0,0.668587
0.2,8.5,0,0.657379
0.2,8.6,0,0.647947
0.2,8.7,0,0.641323
0.2,8.8,0,0.628058
0.2,8.9,0,0.617579
0.2,9,0,0.61003
0.2,9.1,0,0.595607
0.2,9.2,0,0.584037
0.2,9.3,0,0.574422
0.2,9.4,0,0.559477
0.2,9.5,0,0.547292
0.2,9.6,0,0.535562
0.2,9.7,0,0.520421
0.2,9.8,0,0.507782
0.2,9.9,0,0.493638
0.2,10,0,0.478107
0.2,10.1,0,0.465047
0.2,10.2,0,0.44891
0.2,10.3,0,0.433122
0.2,10.4,0,0.419514
0.2,10.5,0,0.401588
0.2,10.6,0,0.385329
0.2,10.7,0,0.371264
0.2,10.8,0,0.352082
0.2,10.9,0,0.335169
0.2,11,0,0.320067
0.2,11.1,0,0.300735
0.2,11.2,0,0.283198
0.2,11.3,0,0.266636
0.2,11.4,0,0.247136
0.2,11.5,0,0.229259
0.2,11.6,0,0.211253
0.2,11.7,0,0.191805
0.2,11.8,0,0.173703
0.2,11.9,0,0.154757
0.2,12,0,0.135459
0.2,12.1,0,0.117033
0.2,12.2,0,0.0973486
0.2,12.3,0,0.0780215
0.2,12.4,0,0.0590781
0.2,12.5,0,0.0398122
0.2,12.6,0,0.0256374
0.2,12.7,0,0.0112949
0.3,0,0,0.00805962
0.3,0.1,0,0.0222942
0.3,0.2,0,0.0392735
0.3,0.3,0,0.0585397
0.3,0.4,0,0.0774923
0.3,0.5,0,0.0981203
0.3,0.6,0,0.116031
0.3,0.7,0,0.136025
0.3,0.8,0,0.155018
0.3,0.9,0,0.173009
0.3,1,0,0.194054
0.3,1.1,0,0.210434
0.3,1.2,0,0.23002
0.3,1.3,0,0.24829
0.3,1.4,0,0.265274
0.3,1.5,0,0.286424
0.3,1.6,0,0.301187
0.3,1.7,0,0.320753
0.3,1.8,0,0.338171
0.3,1.9,0,0.353366
0.3,2,0,0.374017
0.3,2.1,0,0.38652
0.3,2.2,0,0.404763
0.3,2.3,0,0.420667
0.3,2.4,0,0.434229
0.3,2.5,0,0.453904
0.3,2.6,0,0.464662
0.3,2.7,0,0.481538
0.3,2.8,0,0.495841
0.3,2.9,0,0.50763
0.3,3,0,0.526162
0.3,3.1,0,0.534884
0.3,3.2,0,0.550228
0.3,3.3,0,0.56281
0.3,3.4,0,0.572711
0.3,3.5,0,0.589792
0.3,3.6,0,0.596446
0.3,3.7,0,0.610134
0.3,3.8,0,0.620894
0.3,3.9,0,0.628791
0.3,4,0,0.644151
0.3,4.1,0,0.648612
0.3,4.2,0,0.660513
0.3,4.3,0,0.669381
0.3,4.4,0,0.675225
0.3,4.5,0,0.688716
0.3,4.6,0,0.690941
0.3,4.7,0,0.700899
0.3,4.8,0,0.707748
0.3,4.9,0,0.711338
0.3,5,0,0.72233
0.3,5.1,0,0.722901
0.3,5.2,0,0.733805
0.3,5.3,0,0.732868
0.3,5.4,0,0.742883
0.3,5.5,0,0.741059
0.3,5.6,0,0.750245
0.3,5.7,0,0.747536
0.3,5.8,0,0.755881
0.3,5.9,0,0.752286
0.3,6,0,0.759782
0.3,6.1,0,0.755305
0.3,6.2,0,0.761944
0.3,6.3,0,0.756586
0.3,6.4,0,0.762362
0.3,6.5,0,0.75613
0.3,6.6,0,0.76104
0.3,6.7,0,0.753939
0.3,6.8,0,0.757978
0.3,6.9,0,0.749956
0.3,7,0,0.752607
0.3,7.1,0,0.744997
0.3,7.2,0,0.742404
0.3,7.3,0,0.741962
0.3,7.4,0,0.732779
0.3,7.5,0,0.73011
0.3,7.6,0,0.7269
0.3,7.7,0,0.71724
0.3,7.8,0,0.714009
0.3,7.9,0,0.708045
0.3,8,0,0.697891
0.3,8.1,0,0.694076
0.3,8.2,0,0.685407
0.3,8.3,0,0.674788
0.3,8.4,0,0.670447
0.3,8.5,0,0.65924
0.3,8.6,0,0.648354
0.3,8.7,0,0.643154
0.3,8.8,0,0.629279
0.3,8.9,0,0.61855
0.3,9,0,0.611797
0.3,9.1,0,0.596208
0.3,9.2,0,0.585617
0.3,9.3,0,0.57616
0.3,9.4,0,0.559634
0.3,9.5,0,0.548941
0.3,9.6,0,0.537212
0.3,9.7,0,0.520633
0.3,9.8,0,0.509381
0.3,9.9,0,0.495236
0.3,10,0,0.478257
0.3,10.1,0,0.466568
0.3,10.2,0,0.450432
0.3,10.3,0,0.433298
0.3,10.4,0,0.420905
0.3,10.5,0,0.402848
0.3,10.6,0,0.385758
0.3,10.7,0,0.372589
0.3,10.8,0,0.352793
0.3,10.9,0,0.335943
0.3,11,0,0.321237
0.3,11.1,0,0.300991
0.3,11.2,0,0.284254
0.3,11.3,0,0.267692
0.3,11.4,0,0.247238
0.3,11.5,0,0.230178
0.3,11.6,0,0.212172
0.3,11.7,0,0.191857
0.3,11.8,0,0.174398
0.3,11.9,0,0.155452
0.3,12,0,0.135532
0.3,12.1,0,0.117543
0.3,12.2,0,0.0978588
0.3,12.3,0,0.0780616
0.3,12.4,0,0.059311
0.3,12.5,0,0.0395234
0.3,12.6,0,0.0236367
0.3,12.7,0,0.00924128
0.4,0,0,0.0062686
0.4,0.1,0,0.0205032
0.4,0.2,0,0.039483
0.4,0.3,0,0.0587492
0.4,0.4,0,0.0779452
0.4,0.5,0,0.0985732
0.4,0.6,0,0.116484
0.4,0.7,0,0.136647
0.4,0.8,0,0.15564
0.4,0.9,0,0.173786
0.4,1,0,0.194831
0.4,1.1,0,0.211211
0.4,1.2,0,0.230825
0.4,1.3,0,0.249094
0.4,1.4,0,0.266339
0.4,1.5,0,0.287488
0.4,1.6,0,0.302251
0.4,1.7,0,0.322095
0.4,1.8,0,0.339513
0.4,1.9,0,0.354724
0.4,2,0,0.375375
0.4,2.1,0,0.387878
0.4,2.2,0,0.406209
0.4,2.3,0,0.422114
0.4,2.4,0,0.435715
0.4,2.5,0,0.45539
0.4,2.6,0,0.466148
0.4,2.7,0,0.483102
0.4,2.8,0,0.497405
0.4,2.9,0,0.509265
0.4,3,0,0.527797
0.4,3.1,0,0.536519
0.4,3.2,0,0.551896
0.4,3.3,0,0.564477
0.4,3.4,0,0.574449
0.4,3.5,0,0.591529
0.4,3.6,0,0.598184
0.4,3.7,0,0.611901
0.4,3.8,0,0.622661
0.4,3.9,0,0.630607
0.4,4,0,0.645967
0.4,4.1,0,0.650429
0.4,4.2,0,0.662361
0.4,4.3,0,0.671229
0.4,4.4,0,0.677102
0.4,4.5,0,0.690593
0.4,4.6,0,0.692819
0.4,4.7,0,0.702803
0.4,4.8,0,0.709652
0.4,4.9,0,0.713256
0.4,5,0,0.724248
0.4,5.1,0,0.723966
0.4,5.2,0,0.735739
0.4,5.3,0,0.733894
0.4,5.4,0,0.744828
0.4,5.5,0,0.742091
0.4,5.6,0,0.752199
0.4,5.7,0,0.748572
0.4,5.8,0,0.757842
0.4,5.9,0,0.753326
0.4,6,0,0.761749
0.4,6.1,0,0.756347
0.4,6.2,0,0.763914
0.4,6.3,0,0.75763
0.4,6.4,0,0.764335
0.4,6.5,0,0.757174
0.4,6.6,0,0.763013
0.4,6.7,0,0.754983
0.4,6.8,0,0.75995
0.4,6.9,0,0.751036
0.4,7,0,0.754575
0.4,7.1,0,0.746965
0.4,7.2,0,0.744368
0.4,7.3,0,0.743926
0.4,7.4,0,0.734698
0.4,7.5,0,0.732057
0.4,7.6,0,0.728847
0.4,7.7,0,0.718465
0.4,7.8,0,0.715936
0.4,7.9,0,0.709972
0.4,8,0,0.698959
0.4,8.1,0,0.695975
0.4,8.2,0,0.687306
0.4,8.3,0,0.67617
0.4,8.4,0,0.672308
0.4,8.5,0,0.661101
0.4,8.6,0,0.650186
0.4,8.7,0,0.644986
0.4,8.8,0,0.63111
0.4,8.9,0,0.620317
0.4,9,0,0.613565
0.4,9.1,0,0.597976
0.4,9.2,0,0.587355
0.4,9.3,0,0.577898
0.4,9.4,0,0.561123
0.4,9.5,0,0.550591
0.4,9.6,0,0.538862
0.4,9.7,0,0.521561
0.4,9.8,0,0.51098
0.4,9.9,0,0.496835
0.4,10,0,0.479097
0.4,10.1,0,0.46809
0.4,10.2,0,0.451953
0.4,10.3,0,0.434496
0.4,10.4,0,0.422295
0.4,10.5,0,0.404239
0.4,10.6,0,0.387084
0.4,10.7,0,0.373915
0.4,10.8,0,0.354118
0.4,10.9,0,0.337113
0.4,11,0,0.322406
0.4,11.1,0,0.30216
0.4,11.2,0,0.28531
0.4,11.3,0,0.268748
0.4,11.4,0,0.248018
0.4,11.5,0,0.231097
0.4,11.6,0,0.213091
0.4,11.7,0,0.192301
0.4,11.8,0,0.175093
0.4,11.9,0,0.156147
0.4,12,0,0.135858
0.4,12.1,0,0.118053
0.4,12.2,0,0.098369
0.4,12.3,0,0.0782895
0.4,12.4,0,0.059544
0.4,12.5,0,0.0397563
0.4,12.6,0,0.0215831
0.4,12.7,0,0.00718767
0.5,0,0,0.00447757
0.5,0.1,0,0.019684
0.5,0.2,0,0.0396925
0.5,0.3,0,0.0589587
0.5,0.4,0,0.0785032
0.5,0.5,0,0.0990261
0.5,0.6,0,0.117224
0.5,0.7,0,0.137268
0.5,0.8,0,0.156261
0.5,0.9,0,0.174851
0.5,1,0,0.195608
0.5,1.1,0,0.212354
0.5,1.2,0,0.231629
0.5,1.3,0,0.249898
0.5,1.4,0,0.267779
0.5,1.5,0,0.288553
0.5,1.6,0,0.303942
0.5,1.7,0,0.323437
0.5,1.8,0,0.340855
0.5,1.9,0,0.356683
0.5,2,0,0.376733
0.5,2.1,0,0.389903
0.5,2.2,0,0.407656
0.5,2.3,0,0.423561
0.5,2.4,0,0.437867
0.5,2.5,0,0.456876
0.5,2.6,0,0.46834
0.5,2.7,0,0.484665
0.5,2.8,0,0.498968
0.5,2.9,0,0.511625
0.5,3,0,0.529432
0.5,3.1,0,0.538901
0.5,3.2,0,0.553563
0.5,3.3,0,0.566145
0.5,3.4,0,0.576961
0.5,3.5,0,0.593267
0.5,3.6,0,0.600713
0.5,3.7,0,0.613668
0.5,3.8,0,0.624428
0.5,3.9,0,0.633236
0.5,4,0,0.647783
0.5,4.1,0,0.653082
0.5,4.2,0,0.664209
0.5,4.3,0,0.673077
0.5,4.4,0,0.67982
0.5,4.5,0,0.692471
0.5,4.6,0,0.695564
0.5,4.7,0,0.704707
0.5,4.8,0,0.711556
0.5,4.9,0,0.715992
0.5,5,0,0.726166
0.5,5.1,0,0.727614
0.5,5.2,0,0.737672
0.5,5.3,0,0.737659
0.5,5.4,0,0.746773
0.5,5.5,0,0.745875
0.5,5.6,0,0.754152
0.5,5.7,0,0.752372
0.5,5.8,0,0.759803
0.5,5.9,0,0.757138
0.5,6,0,0.763715
0.5,6.1,0,0.760168
0.5,6.2,0,0.765884
0.5,6.3,0,0.761457
0.5,6.4,0,0.766307
0.5,6.5,0,0.761004
0.5,6.6,0,0.764986
0.5,6.7,0,0.758812
0.5,6.8,0,0.761922
0.5,6.9,0,0.754785
0.5,7,0,0.756543
0.5,7.1,0,0.749151
0.5,7.2,0,0.746332
0.5,7.3,0,0.74589
0.5,7.4,0,0.737567
0.5,7.5,0,0.734004
0.5,7.6,0,0.730794
0.5,7.7,0,0.721974
0.5,7.8,0,0.717862
0.5,7.9,0,0.711898
0.5,8,0,0.702557
0.5,8.1,0,0.697874
0.5,8.2,0,0.689206
0.5,8.3,0,0.679367
0.5,8.4,0,0.674169
0.5,8.5,0,0.662961
0.5,8.6,0,0.652657
0.5,8.7,0,0.646817
0.5,8.8,0,0.632942
0.5,8.9,0,0.622085
0.5,9,0,0.615332
0.5,9.1,0,0.600137
0.5,9.2,0,0.589093
0.5,9.3,0,0.579636
0.5,9.4,0,0.563842
0.5,9.5,0,0.552241
0.5,9.6,0,0.540512
0.5,9.7,0,0.524598
0.5,9.8,0,0.512578
0.5,9.9,0,0.498434
0.5,10,0,0.482067
0.5,10.1,0,0.469612
0.5,10.2,0,0.453475
0.5,10.3,0,0.436773
0.5,10.4,0,0.423686
0.5,10.5,0,0.40563
0.5,10.6,0,0.388736
0.5,10.7,0,0.37524
0.5,10.8,0,0.355444
0.5,10.9,0,0.338282
0.5,11,0,0.323576
0.5,11.1,0,0.303688
0.5,11.2,0,0.286366
0.5,11.3,0,0.269804
0.5,11.4,0,0.249719
0.5,11.5,0,0.232016
0.5,11.6,0,0.21401
0.5,11.7,0,0.193863
0.5,11.8,0,0.175787
0.5,11.9,0,0.156842
0.5,12,0,0.136941
0.5,12.1,0,0.118564
0.5,12.2,0,0.0988792
0.5,12.3,0,0.0787698
0.5,12.4,0,0.0597769
0.5,12.5,0,0.0399893
0.5,12.6,0,0.0198193
0.5,12.7,0,0.00513405
0.6,0,0,0.00268654
0.6,0.1,0,0.0198366
0.6,0.2,0,0.039902
0.6,0.3,0,0.0591682
0.6,0.4,0,0.0791661
0.6,0.5,0,0.099479
0.6,0.6,0,0.118253
0.6,0.7,0,0.13789
0.6,0.8,0,0.156883
0.6,0.9,0,0.176203
0.6,1,0,0.196386
0.6,1.1,0,0.213862
0.6,1.2,0,0.232434
0.6,1.3,0,0.250703
0.6,1.4,0,0.269596
0.6,1.5,0,0.289617
0.6,1.6,0,0.306259
0.6,1.7,0,0.324779
0.6,1.8,0,0.342197
0.6,1.9,0,0.359243
0.6,2,0,0.378091
0.6,2.1,0,0.392596
0.6,2.2,0,0.409103
0.6,2.3,0,0.425007
0.6,2.4,0,0.440685
0.6,2.5,0,0.458362
0.6,2.6,0,0.471237
0.6,2.7,0,0.486229
0.6,2.8,0,0.500532
0.6,2.9,0,0.514711
0.6,3,0,0.531067
0.6,3.1,0,0.542029
0.6,3.2,0,0.555231
0.6,3.3,0,0.567812
0.6,3.4,0,0.580247
0.6,3.5,0,0.595005
0.6,3.6,0,0.604033
0.6,3.7,0,0.615435
0.6,3.8,0,0.626195
0.6,3.9,0,0.636678
0.6,4,0,0.649599
0.6,4.1,0,0.656573
0.6,4.2,0,0.666057
0.6,4.3,0,0.674925
0.6,4.4,0,0.683377
0.6,4.5,0,0.694348
0.6,4.6,0,0.699178
0.6,4.7,0,0.706611
0.6,4.8,0,0.713461
0.6,4.9,0,0.719545
0.6,5,0,0.728084
0.6,5.1,0,0.731262
0.6,5.2,0,0.739606
0.6,5.3,0,0.741424
0.6,5.4,0,0.748717
0.6,5.5,0,0.749659
0.6,5.6,0,0.756106
0.6,5.7,0,0.756171
0.6,5.8,0,0.761764
0.6,5.9,0,0.76095
0.6,6,0,0.765682
0.6,6.1,0,0.763989
0.6,6.2,0,0.767855
0.6,6.3,0,0.765284
0.6,6.4,0,0.76828
0.6,6.5,0,0.764834
0.6,6.6,0,0.766958
0.6,6.7,0,0.762641
0.6,6.8,0,0.763894
0.6,6.9,0,0.758534
0.6,7,0,0.758511
0.6,7.1,0,0.752773
0.6,7.2,0,0.749518
0.6,7.3,0,0.747855
0.6,7.4,0,0.74125
0.6,7.5,0,0.736545
0.6,7.6,0,0.732741
0.6,7.7,0,0.725617
0.6,7.8,0,0.719789
0.6,7.9,0,0.713825
0.6,8,0,0.706155
0.6,8.1,0,0.699774
0.6,8.2,0,0.691235
0.6,8.3,0,0.68292
0.6,8.4,0,0.676029
0.6,8.5,0,0.665576
0.6,8.6,0,0.65611
0.6,8.7,0,0.648649
0.6,8.8,0,0.636157
0.6,8.9,0,0.625509
0.6,9,0,0.617099
0.6,9.1,0,0.603402
0.6,9.2,0,0.591755
0.6,9.3,0,0.581374
0.6,9.4,0,0.567072
0.6,9.5,0,0.554224
0.6,9.6,0,0.542161
0.6,9.7,0,0.527635
0.6,9.8,0,0.514177
0.6,9.9,0,0.500033
0.6,10,0,0.485038
0.6,10.1,0,0.471134
0.6,10.2,0,0.455253
0.6,10.3,0,0.43951
0.6,10.4,0,0.425077
0.6,10.5,0,0.407731
0.6,10.6,0,0.391301
0.6,10.7,0,0.376566
0.6,10.8,0,0.357842
0.6,10.9,0,0.340518
0.6,11,0,0.324745
0.6,11.1,0,0.305764
0.6,11.2,0,0.287906
0.6,11.3,0,0.27086
0.6,11.4,0,0.251591
0.6,11.5,0,0.233011
0.6,11.6,0,0.214929
0.6,11.7,0,0.195425
0.6,11.8,0,0.176482
0.6,11.9,0,0.157536
0.6,12,0,0.138073
0.6,12.1,0,0.119074
0.6,12.2,0,0.0994554
0.6,12.3,0,0.0794728
0.6,12.4,0,0.0600098
0.6,12.5,0,0.0401604
0.6,12.6,0,0.0199684
0.6,12.7,0,0.00308043
0.7,0,0,0.000895514
0.7,0.1,0,0.0199892
0.7,0.2,0,0.0400546
0.7,0.3,0,0.0598311
0.7,0.4,0,0.079829
0.7,0.5,0,0.0999319
0.7,0.6,0,0.119281
0.7,0.7,0,0.138918
0.7,0.8,0,0.158235
0.7,0.9,0,0.177555
0.7,1,0,0.197163
0.7,1.1,0,0.21537
0.7,1.2,0,0.233941
0.7,1.3,0,0.252519
0.7,1.4,0,0.271412
0.7,1.5,0,0.290682
0.7,1.6,0,0.308576
0.7,1.7,0,0.327096
0.7,1.8,0,0.344757
0.7,1.9,0,0.361802
0.7,2,0,0.379449
0.7,2.1,0,0.395289
0.7,2.2,0,0.411796
0.7,2.3,0,0.427826
0.7,2.4,0,0.443504
0.7,2.5,0,0.459847
0.7,2.6,0,0.474134
0.7,2.7,0,0.489126
0.7,2.8,0,0.503618
0.7,2.9,0,0.517797
0.7,3,0,0.532702
0.7,3.1,0,0.545157
0.7,3.2,0,0.558359
0.7,3.3,0,0.571099
0.7,3.4,0,0.583533
0.7,3.5,0,0.596743
0.7,3.6,0,0.607354
0.7,3.7,0,0.618756
0.7,3.8,0,0.629637
0.7,3.9,0,0.64012
0.7,4,0,0.651416
0.7,4.1,0,0.660063
0.7,4.2,0,0.669548
0.7,4.3,0,0.678483
0.7,4.4,0,0.686934
0.7,4.5,0,0.696226
0.7,4.6,0,0.702791
0.7,4.7,0,0.710225
0.7,4.8,0,0.717014
0.7,4.9,0,0.723099
0.7,5,0,0.730001
0.7,5.1,0,0.73491
0.7,5.2,0,0.74154
0.7,5.3,0,0.745188
0.7,5.4,0,0.750662
0.7,5.5,0,0.753444
0.7,5.6,0,0.75806
0.7,5.7,0,0.759971
0.7,5.8,0,0.763725
0.7,5.9,0,0.764763
0.7,6,0,0.767648
0.7,6.1,0,0.76781
0.7,6.2,0,0.769825
0.7,6.3,0,0.769111
0.7,6.4,0,0.770252
0.7,6.5,0,0.768663
0.7,6.6,0,0.768931
0.7,6.7,0,0.766471
0.7,6.8,0,0.765867
0.7,6.9,0,0.762283
0.7,7,0,0.760479
0.7,7.1,0,0.756396
0.7,7.2,0,0.753141
0.7,7.3,0,0.749819
0.7,7.4,0,0.744933
0.7,7.5,0,0.740228
0.7,7.6,0,0.735179
0.7,7.7,0,0.72926
0.7,7.8,0,0.723341
0.7,7.9,0,0.716895
0.7,8,0,0.709753
0.7,8.1,0,0.702612
0.7,8.2,0,0.694788
0.7,8.3,0,0.686473
0.7,8.4,0,0.678157
0.7,8.5,0,0.669029
0.7,8.6,0,0.659563
0.7,8.7,0,0.65048
0.7,8.8,0,0.639581
0.7,8.9,0,0.628933
0.7,9,0,0.618867
0.7,9.1,0,0.606668
0.7,9.2,0,0.595021
0.7,9.3,0,0.583151
0.7,9.4,0,0.570302
0.7,9.5,0,0.557454
0.7,9.6,0,0.544396
0.7,9.7,0,0.530672
0.7,9.8,0,0.516949
0.7,9.9,0,0.50275
0.7,10,0,0.488008
0.7,10.1,0,0.473266
0.7,10.2,0,0.45799
0.7,10.3,0,0.442247
0.7,10.4,0,0.426503
0.7,10.5,0,0.410296
0.7,10.6,0,0.393865
0.7,10.7,0,0.377891
0.7,10.8,0,0.36024
0.7,10.9,0,0.342916
0.7,11,0,0.325915
0.7,11.1,0,0.307841
0.7,11.2,0,0.289982
0.7,11.3,0,0.272045
0.7,11.4,0,0.253464
0.7,11.5,0,0.234884
0.7,11.6,0,0.216204
0.7,11.7,0,0.196987
0.7,11.8,0,0.17777
0.7,11.9,0,0.158645
0.7,12,0,0.139205
0.7,12.1,0,0.119764
0.7,12.2,0,0.100158
0.7,12.3,0,0.0801758
0.7,12.4,0,0.0602427
0.7,12.5,0,0.0403096
0.7,12.6,0,0.0201175
0.7,12.7,0,0.00102681
0.8,0,0,0
0.8,0.1,0,0.0200446
0.8,0.2,0,0.0401101
0.8,0.3,0,0.0606138
0.8,0.4,0,0.0806117
0.8,0.5,0,0.100671
0.8,0.6,0,0.12031
0.8,0.7,0,0.139947
0.8,0.8,0,0.159692
0.8,0.9,0,0.179012
0.8,1,0,0.198476
0.8,1.1,0,0.217022
0.8,1.2,0,0.235594
0.8,1.3,0,0.254084
0.8,1.4,0,0.272977
0.8,1.5,0,0.29252
0.8,1.6,0,0.311268
0.8,1.7,0,0.329788
0.8,1.8,0,0.347433
0.8,1.9,0,0.364478
0.8,2,0,0.381724
0.8,2.1,0,0.398045
0.8,2.2,0,0.414552
0.8,2.3,0,0.430857
0.8,2.4,0,0.446534
0.8,2.5,0,0.462423
0.8,2.6,0,0.477047
0.8,2.7,0,0.492039
0.8,2.8,0,0.506959
0.8,2.9,0,0.521138
0.8,3,0,0.53556
0.8,3.1,0,0.548357
0.8,3.2,0,0.561558
0.8,3.3,0,0.57457
0.8,3.4,0,0.587005
0.8,3.5,0,0.599815
0.8,3.6,0,0.610833
0.8,3.7,0,0.622235
0.8,3.8,0,0.633227
0.8,3.9,0,0.643709
0.8,4,0,0.65466
0.8,4.1,0,0.663739
0.8,4.2,0,0.673224
0.8,4.3,0,0.682199
0.8,4.4,0,0.69065
0.8,4.5,0,0.699597
0.8,4.6,0,0.706585
0.8,4.7,0,0.714019
0.8,4.8,0,0.720836
0.8,4.9,0,0.726921
0.8,5,0,0.733457
0.8,5.1,0,0.738765
0.8,5.2,0,0.745026
0.8,5.3,0,0.749068
0.8,5.4,0,0.754171
0.8,5.5,0,0.757343
0.8,5.6,0,0.761588
0.8,5.7,0,0.763887
0.8,5.8,0,0.767268
0.8,5.9,0,0.768691
0.8,6,0,0.771202
0.8,6.1,0,0.771748
0.8,6.2,0,0.773386
0.8,6.3,0,0.773054
0.8,6.4,0,0.773816
0.8,6.5,0,0.772609
0.8,6.6,0,0.772494
0.8,6.7,0,0.770416
0.8,6.8,0,0.769425
0.8,6.9,0,0.766226
0.8,7,0,0.764027
0.8,7.1,0,0.760332
0.8,7.2,0,0.757076
0.8,7.3,0,0.753658
0.8,7.4,0,0.748854
0.8,7.5,0,0.744149
0.8,7.6,0,0.739045
0.8,7.7,0,0.733127
0.8,7.8,0,0.727208
0.8,7.9,0,0.720734
0.8,8,0,0.713593
0.8,8.1,0,0.706451
0.8,8.2,0,0.698546
0.8,8.3,0,0.690231
0.8,8.4,0,0.681915
0.8,8.5,0,0.672714
0.8,8.6,0,0.663248
0.8,8.7,0,0.653966
0.8,8.8,0,0.643222
0.8,8.9,0,0.632574
0.8,9,0,0.6221
0.8,9.1,0,0.610096
0.8,9.2,0,0.598449
0.8,9.3,0,0.586674
0.8,9.4,0,0.573826
0.8,9.5,0,0.560977
0.8,9.6,0,0.547472
0.8,9.7,0,0.533749
0.8,9.8,0,0.520026
0.8,9.9,0,0.506069
0.8,10,0,0.491327
0.8,10.1,0,0.476585
0.8,10.2,0,0.460759
0.8,10.3,0,0.445016
0.8,10.4,0,0.429272
0.8,10.5,0,0.41309
0.8,10.6,0,0.396659
0.8,10.7,0,0.380293
0.8,10.8,0,0.362748
0.8,10.9,0,0.345424
0.8,11,0,0.328018
0.8,11.1,0,0.310011
0.8,11.2,0,0.292152
0.8,11.3,0,0.274099
0.8,11.4,0,0.255518
0.8,11.5,0,0.236938
0.8,11.6,0,0.217826
0.8,11.7,0,0.198609
0.8,11.8,0,0.179393
0.8,11.9,0,0.159802
0.8,12,0,0.140361
0.8,12.1,0,0.120921
0.8,12.2,0,0.101043
0.8,12.3,0,0.0810599
0.8,12.4,0,0.0610207
0.8,12.5,0,0.0403572
0.8,12.6,0,0.0201651
0.8,12.7,0,0
0.9,0,0,0
0.9,0.1,0,0.0200029
0.9,0.2,0,0.0400684
0.9,0.3,0,0.061516
0.9,0.4,0,0.0815139
0.9,0.5,0,0.101697
0.9,0.6,0,0.12134
0.9,0.7,0,0.140977
0.9,0.8,0,0.161254
0.9,0.9,0,0.180575
0.9,1,0,0.200324
0.9,1.1,0,0.218819
0.9,1.2,0,0.237391
0.9,1.3,0,0.255398
0.9,1.4,0,0.274291
0.9,1.5,0,0.295132
0.9,1.6,0,0.314337
0.9,1.7,0,0.332857
0.9,1.8,0,0.350224
0.9,1.9,0,0.367269
0.9,2,0,0.384918
0.9,2.1,0,0.400865
0.9,2.2,0,0.417372
0.9,2.3,0,0.4341
0.9,2.4,0,0.449778
0.9,2.5,0,0.466089
0.9,2.6,0,0.479976
0.9,2.7,0,0.494968
0.9,2.8,0,0.510555
0.9,2.9,0,0.524734
0.9,3,0,0.539641
0.9,3.1,0,0.551626
0.9,3.2,0,0.564828
0.9,3.3,0,0.578226
0.9,3.4,0,0.590661
0.9,3.5,0,0.604221
0.9,3.6,0,0.614472
0.9,3.7,0,0.625874
0.9,3.8,0,0.636963
0.9,3.9,0,0.647446
0.9,4,0,0.659332
0.9,4.1,0,0.667601
0.9,4.2,0,0.677086
0.9,4.3,0,0.686074
0.9,4.4,0,0.694525
0.9,4.5,0,0.704462
0.9,4.6,0,0.71056
0.9,4.7,0,0.717993
0.9,4.8,0,0.724928
0.9,4.9,0,0.731013
0.9,5,0,0.73845
0.9,5.1,0,0.742828
0.9,5.2,0,0.750065
0.9,5.3,0,0.753062
0.9,5.4,0,0.759245
0.9,5.5,0,0.761357
0.9,5.6,0,0.76669
0.9,5.7,0,0.767919
0.9,5.8,0,0.772392
0.9,5.9,0,0.772736
0.9,6,0,0.776343
0.9,6.1,0,0.775803
0.9,6.2,0,0.778537
0.9,6.3,0,0.777115
0.9,6.4,0,0.778971
0.9,6.5,0,0.776672
0.9,6.6,0,0.777647
0.9,6.7,0,0.774477
0.9,6.8,0,0.77457
0.9,6.9,0,0.770362
0.9,7,0,0.769157
0.9,7.1,0,0.764581
0.9,7.2,0,0.761325
0.9,7.3,0,0.758759
0.9,7.4,0,0.753012
0.9,7.5,0,0.748307
0.9,7.6,0,0.743821
0.9,7.7,0,0.737217
0.9,7.8,0,0.731345
0.9,7.9,0,0.725099
0.9,8,0,0.717673
0.9,8.1,0,0.710906
0.9,8.2,0,0.702509
0.9,8.3,0,0.694194
0.9,8.4,0,0.686585
0.9,8.5,0,0.676631
0.9,8.6,0,0.667165
0.9,8.7,0,0.658664
0.9,8.8,0,0.647079
0.9,8.9,0,0.636431
0.9,9,0,0.62666
0.9,9.1,0,0.613688
0.9,9.2,0,0.602041
0.9,9.3,0,0.591058
0.9,9.4,0,0.577643
0.9,9.5,0,0.564794
0.9,9.6,0,0.55123
0.9,9.7,0,0.536864
0.9,9.8,0,0.523301
0.9,9.9,0,0.509795
0.9,10,0,0.494994
0.9,10.1,0,0.480328
0.9,10.2,0,0.46356
0.9,10.3,0,0.447817
0.9,10.4,0,0.432759
0.9,10.5,0,0.416112
0.9,10.6,0,0.399682
0.9,10.7,0,0.383492
0.9,10.8,0,0.365367
0.9,10.9,0,0.348043
0.9,11,0,0.330907
0.9,11.1,0,0.312273
0.9,11.2,0,0.294414
0.9,11.3,0,0.276554
0.9,11.4,0,0.257754
0.9,11.5,0,0.239173
0.9,11.6,0,0.2197
0.9,11.7,0,0.200292
0.9,11.8,0,0.181064
0.9,11.9,0,0.161008
0.9,12,0,0.141543
0.9,12.1,0,0.122048
0.9,12.2,0,0.102108
0.9,12.3,0,0.0821252
0.9,12.4,0,0.0615476
0.9,12.5,0,0.0403032
0.9,12.6,0,0.0201111
0.9,12.7,0,0
1,0,0,0
1,0.1,0,0.0199612
1,0.2,0,0.0405934
1,0.3,0,0.062041
1,0.4,0,0.0824162
1,0.5,0,0.102722
1,0.6,0,0.12237
1,0.7,0,0.14242
1,0.8,0,0.162697
1,0.9,0,0.182137
1,1,0,0.202172
1,1.1,0,0.220616
1,1.2,0,0.239642
1,1.3,0,0.257649
1,1.4,0,0.275604
1,1.5,0,0.297744
1,1.6,0,0.317405
1,1.7,0,0.335745
1,1.8,0,0.353112
1,1.9,0,0.37006
1,2,0,0.388111
1,2.1,0,0.403685
1,2.2,0,0.420825
1,2.3,0,0.437553
1,2.4,0,0.453022
1,2.5,0,0.469754
1,2.6,0,0.482905
1,2.7,0,0.49888
1,2.8,0,0.514467
1,2.9,0,0.528331
1,3,0,0.543723
1,3.1,0,0.554896
1,3.2,0,0.569089
1,3.3,0,0.582487
1,3.4,0,0.594317
1,3.5,0,0.608628
1,3.6,0,0.618111
1,3.7,0,0.630416
1,3.8,0,0.641504
1,3.9,0,0.651182
1,4,0,0.664003
1,4.1,0,0.671463
1,4.2,0,0.681846
1,4.3,0,0.690834
1,4.4,0,0.6984
1,4.5,0,0.709326
1,4.6,0,0.714534
1,4.7,0,0.722927
1,4.8,0,0.729861
1,4.9,0,0.735104
1,5,0,0.743443
1,5.1,0,0.746891
1,5.2,0,0.755104
1,5.3,0,0.757057
1,5.4,0,0.764319
1,5.5,0,0.765372
1,5.6,0,0.771793
1,5.7,0,0.77195
1,5.8,0,0.777517
1,5.9,0,0.776781
1,6,0,0.781483
1,6.1,0,0.779857
1,6.2,0,0.783687
1,6.3,0,0.781175
1,6.4,0,0.784126
1,6.5,0,0.780734
1,6.6,0,0.7828
1,6.7,0,0.778539
1,6.8,0,0.779715
1,6.9,0,0.774499
1,7,0,0.774286
1,7.1,0,0.76883
1,7.2,0,0.765799
1,7.3,0,0.763861
1,7.4,0,0.757171
1,7.5,0,0.753056
1,7.6,0,0.748877
1,7.7,0,0.741307
1,7.8,0,0.736327
1,7.9,0,0.730081
1,8,0,0.721754
1,8.1,0,0.715824
1,8.2,0,0.707352
1,8.3,0,0.698156
1,8.4,0,0.691388
1,8.5,0,0.681015
1,8.6,0,0.671083
1,8.7,0,0.663362
1,8.8,0,0.651047
1,8.9,0,0.640289
1,9,0,0.63122
1,9.1,0,0.617279
1,9.2,0,0.605951
1,9.3,0,0.595456
1,9.4,0,0.58146
1,9.5,0,0.568934
1,9.6,0,0.555456
1,9.7,0,0.539979
1,9.8,0,0.527288
1,9.9,0,0.513782
1,10,0,0.498661
1,10.1,0,0.484125
1,10.2,0,0.467148
1,10.3,0,0.450618
1,10.4,0,0.436265
1,10.5,0,0.419326
1,10.6,0,0.402704
1,10.7,0,0.38669
1,10.8,0,0.367985
1,10.9,0,0.350697
1,11,0,0.333797
1,11.1,0,0.314536
1,11.2,0,0.2968
1,11.3,0,0.27905
1,11.4,0,0.259989
1,11.5,0,0.241292
1,11.6,0,0.221809
1,11.7,0,0.201975
1,11.8,0,0.182712
1,11.9,0,0.162656
1,12,0,0.142724
1,12.1,0,0.123153
1,12.2,0,0.103199
1,12.3,0,0.0831905
1,12.4,0,0.0620744
1,12.5,0,0.0404021
1,12.6,0,0.0200572
1,12.7,0,0
1.1,0,0,0
1.1,0.1,0,0.0199404
1.1,0.2,0,0.0411183
1.1,0.3,0,0.0625659
1.1,0.4,0,0.0833801
1.1,0.5,0,0.103748
1.1,0.6,0,0.123397
1.1,0.7,0,0.143863
1.1,0.8,0,0.16414
1.1,0.9,0,0.183842
1.1,1,0,0.20402
1.1,1.1,0,0.222438
1.1,1.2,0,0.241894
1.1,1.3,0,0.259901
1.1,1.4,0,0.277567
1.1,1.5,0,0.300356
1.1,1.6,0,0.320246
1.1,1.7,0,0.338632
1.1,1.8,0,0.355999
1.1,1.9,0,0.373053
1.1,2,0,0.391305
1.1,2.1,0,0.406692
1.1,2.2,0,0.424277
1.1,2.3,0,0.441005
1.1,2.4,0,0.456476
1.1,2.5,0,0.473419
1.1,2.6,0,0.486202
1.1,2.7,0,0.502792
1.1,2.8,0,0.518379
1.1,2.9,0,0.532169
1.1,3,0,0.547804
1.1,3.1,0,0.558572
1.1,3.2,0,0.573349
1.1,3.3,0,0.586747
1.1,3.4,0,0.598349
1.1,3.5,0,0.613035
1.1,3.6,0,0.622134
1.1,3.7,0,0.634957
1.1,3.8,0,0.646046
1.1,3.9,0,0.655386
1.1,4,0,0.668675
1.1,4.1,0,0.675729
1.1,4.2,0,0.686607
1.1,4.3,0,0.695595
1.1,4.4,0,0.70277
1.1,4.5,0,0.714191
1.1,4.6,0,0.718954
1.1,4.7,0,0.72786
1.1,4.8,0,0.734794
1.1,4.9,0,0.739646
1.1,5,0,0.748436
1.1,5.1,0,0.750954
1.1,5.2,0,0.760143
1.1,5.3,0,0.761051
1.1,5.4,0,0.769392
1.1,5.5,0,0.769386
1.1,5.6,0,0.776895
1.1,5.7,0,0.775982
1.1,5.8,0,0.782642
1.1,5.9,0,0.780826
1.1,6,0,0.786624
1.1,6.1,0,0.783911
1.1,6.2,0,0.788838
1.1,6.3,0,0.785236
1.1,6.4,0,0.789281
1.1,6.5,0,0.784796
1.1,6.6,0,0.787953
1.1,6.7,0,0.782601
1.1,6.8,0,0.78486
1.1,6.9,0,0.778635
1.1,7,0,0.779415
1.1,7.1,0,0.773843
1.1,7.2,0,0.7709
1.1,7.3,0,0.768962
1.1,7.4,0,0.761776
1.1,7.5,0,0.758111
1.1,7.6,0,0.753932
1.1,7.7,0,0.745473
1.1,7.8,0,0.741308
1.1,7.9,0,0.735062
1.1,8,0,0.725834
1.1,8.1,0,0.720742
1.1,8.2,0,0.712269
1.1,8.3,0,0.702296
1.1,8.4,0,0.696191
1.1,8.5,0,0.685817
1.1,8.6,0,0.675473
1.1,8.7,0,0.66806
1.1,8.8,0,0.655745
1.1,8.9,0,0.644849
1.1,9,0,0.635781
1.1,9.1,0,0.621584
1.1,9.2,0,0.610349
1.1,9.3,0,0.599855
1.1,9.4,0,0.585476
1.1,9.5,0,0.573161
1.1,9.6,0,0.559683
1.1,9.7,0,0.543093
1.1,9.8,0,0.531275
1.1,9.9,0,0.517769
1.1,10,0,0.502329
1.1,10.1,0,0.487923
1.1,10.2,0,0.470946
1.1,10.3,0,0.45366
1.1,10.4,0,0.439771
1.1,10.5,0,0.422831
1.1,10.6,0,0.405856
1.1,10.7,0,0.389888
1.1,10.8,0,0.371183
1.1,10.9,0,0.353587
1.1,11,0,0.336686
1.1,11.1,0,0.317178
1.1,11.2,0,0.299296
1.1,11.3,0,0.281546
1.1,11.4,0,0.26228
1.1,11.5,0,0.243402
1.1,11.6,0,0.223918
1.1,11.7,0,0.203658
1.1,11.8,0,0.18436
1.1,11.9,0,0.164304
1.1,12,0,0.1439
1.1,12.1,0,0.124258
1.1,12.2,0,0.104304
1.1,12.3,0,0.0840007
1.1,12.4,0,0.0626013
1.1,12.5,0,0.040929
1.1,12.6,0,0.0200501
1.1,12.7,0,0
1.2,0,0,0
1.2,0.1,0,0.0199404
1.2,0.2,0,0.0416433
1.2,0.3,0,0.0630909
1.2,0.4,0,0.0844056
1.2,0.5,0,0.104773
1.2,0.6,0,0.124423
1.2,0.7,0,0.145306
1.2,0.8,0,0.165583
1.2,0.9,0,0.18569
1.2,1,0,0.205869
1.2,1.1,0,0.224287
1.2,1.2,0,0.244145
1.2,1.3,0,0.262152
1.2,1.4,0,0.280179
1.2,1.5,0,0.302967
1.2,1.6,0,0.322857
1.2,1.7,0,0.34152
1.2,1.8,0,0.358887
1.2,1.9,0,0.376246
1.2,2,0,0.394498
1.2,2.1,0,0.409885
1.2,2.2,0,0.427729
1.2,2.3,0,0.444457
1.2,2.4,0,0.460142
1.2,2.5,0,0.477085
1.2,2.6,0,0.489867
1.2,2.7,0,0.506704
1.2,2.8,0,0.522291
1.2,2.9,0,0.53625
1.2,3,0,0.551885
1.2,3.1,0,0.562653
1.2,3.2,0,0.57761
1.2,3.3,0,0.591008
1.2,3.4,0,0.602755
1.2,3.5,0,0.617441
1.2,3.6,0,0.62654
1.2,3.7,0,0.639498
1.2,3.8,0,0.650587
1.2,3.9,0,0.660058
1.2,4,0,0.673347
1.2,4.1,0,0.680401
1.2,4.2,0,0.691367
1.2,4.3,0,0.700355
1.2,4.4,0,0.707635
1.2,4.5,0,0.719056
1.2,4.6,0,0.723819
1.2,4.7,0,0.732793
1.2,4.8,0,0.739728
1.2,4.9,0,0.744639
1.2,5,0,0.753429
1.2,5.1,0,0.756447
1.2,5.2,0,0.765183
1.2,5.3,0,0.766639
1.2,5.4,0,0.774466
1.2,5.5,0,0.775011
1.2,5.6,0,0.781997
1.2,5.7,0,0.781636
1.2,5.8,0,0.787766
1.2,5.9,0,0.786502
1.2,6,0,0.791765
1.2,6.1,0,0.789603
1.2,6.2,0,0.793989
1.2,6.3,0,0.790935
1.2,6.4,0,0.794436
1.2,6.5,0,0.790496
1.2,6.6,0,0.793106
1.2,6.7,0,0.788293
1.2,6.8,0,0.790004
1.2,6.9,0,0.784272
1.2,7,0,0.784544
1.2,7.1,0,0.778972
1.2,7.2,0,0.776002