/*--------------------------------*- C++ -*----------------------------------*\
| =========                 |                                                 |
| \\      /  F ield         | OpenFOAM: The Open Source CFD Toolbox           |
|  \\    /   O peration     | Version:  v1806                                 |
|   \\  /    A nd           | Web:      www.OpenFOAM.com                      |
|    \\/     M anipulation  |                                                 |
\*---------------------------------------------------------------------------*/
FoamFile
{
    version     2.0;
    format      ascii;
    class       volScalarField;
    location    "5";
    object      p;
}
// * * * * * * * * * * * * * * * * * * * * * * * * * * * * * * * * * * * * * //

dimensions      [0 2 -2 0 0 0 0];


internalField   nonuniform List<scalar> 
4400
(
-0.722385
0.89629
0.882318
0.73168
0.618524
0.533097
0.479795
0.44268
0.406136
0.369307
0.332625
0.296285
0.260312
0.224832
0.189533
0.154384
0.11944
0.0848293
0.0504433
0.0167851
2.88368
1.31664
1.00033
0.850726
0.753114
0.690223
0.626223
0.561536
0.501984
0.447258
0.396517
0.348801
0.303429
0.259933
0.217763
0.176748
0.136486
0.0967937
0.0575055
0.0189376
2.27051
1.75584
1.50395
1.29532
1.10591
0.925932
0.779828
0.671437
0.588986
0.518431
0.4553
0.397486
0.343569
0.292597
0.24407
0.19742
0.152117
0.107757
0.0644042
0.0212176
2.96973
1.96965
1.55938
1.29973
1.12086
0.986432
0.867486
0.760604
0.665433
0.582458
0.509036
0.442404
0.380895
0.323429
0.26911
0.216992
0.166806
0.118103
0.070502
0.0234362
2.36402
1.97322
1.6813
1.4848
1.31714
1.1452
0.981396
0.84335
0.731459
0.638084
0.556487
0.482913
0.415433
0.352479
0.292956
0.236214
0.18169
0.128653
0.0765313
0.0255361
2.51595
2.02578
1.68971
1.45465
1.2841
1.14261
1.01309
0.893239
0.783407
0.684848
0.59737
0.518443
0.445743
0.377811
0.313725
0.252852
0.194181
0.137164
0.0815479
0.026967
2.12363
1.88599
1.67891
1.50813
1.37026
1.22839
1.08234
0.946251
0.82669
0.72313
0.631361
0.548286
0.471661
0.400087
0.332448
0.267932
0.205817
0.145651
0.0868156
0.0287641
2.13735
1.88636
1.64653
1.47051
1.32535
1.19896
1.07847
0.963484
0.854157
0.752332
0.659105
0.573705
0.494466
0.419941
0.349268
0.28172
0.216696
0.153408
0.0914083
0.0304021
1.88453
1.73765
1.59521
1.464
1.35258
1.23655
1.11405
0.991919
0.87859
0.775528
0.681442
0.594514
0.513207
0.436461
0.363514
0.293532
0.225752
0.159717
0.0952193
0.0315034
1.86441
1.71946
1.55451
1.42414
1.30787
1.20024
1.09439
0.990431
0.888758
0.790574
0.697584
0.610155
0.527819
0.449722
0.375071
0.303253
0.233606
0.165711
0.098976
0.0329533
1.69346
1.59567
1.49403
1.39547
1.3061
1.21161
1.10928
1.00317
0.899891
0.802157
0.709997
0.622802
0.539991
0.460913
0.385043
0.31167
0.240242
0.170419
0.101665
0.0338889
1.6689
1.57496
1.45974
1.35873
1.26636
1.17622
1.08485
0.992527
0.899731
0.807569
0.717982
0.632035
0.549655
0.470436
0.393792
0.31916
0.246277
0.174844
0.104499
0.0346433
1.54931
1.47961
1.40466
1.32807
1.25419
1.17539
1.08859
0.99589
0.902093
0.810826
0.722971
0.638389
0.556619
0.477289
0.400058
0.324717
0.250972
0.178381
0.106699
0.0354971
1.5295
1.46298
1.37865
1.29786
1.221
1.14416
1.06406
0.981143
0.896272
0.810861
0.726405
0.643624
0.562493
0.483133
0.405514
0.32938
0.254582
0.180995
0.108184
0.0360596
1.44717
1.39423
1.33513
1.27132
1.20696
1.13841
1.06269
0.98069
0.89624
0.81236
0.729747
0.647989
0.567316
0.487924
0.409888
0.333254
0.257901
0.183493
0.109773
0.0364982
1.4375
1.38568
1.31776
1.24852
1.1826
1.11487
1.04356
0.969111
0.891984
0.812747
0.73188
0.650576
0.569989
0.49069
0.412743
0.335972
0.260151
0.185128
0.110847
0.0369065
1.37748
1.33236
1.2821
1.22955
1.17573
1.11619
1.04892
0.97475
0.896277
0.81553
0.73376
0.652277
0.571948
0.492891
0.414919
0.337906
0.261834
0.186557
0.111751
0.0372271
1.36248
1.31791
1.26718
1.21714
1.16614
1.10828
1.04316
0.971392
0.894904
0.814697
0.733191
0.652276
0.572668
0.494027
0.416255
0.339412
0.263295
0.187603
0.112329
0.0373621
1.32071
1.28401
1.2494
1.21109
1.16439
1.109
1.04397
0.97033
0.89125
0.810357
0.730216
0.65115
0.572665
0.494709
0.417353
0.340522
0.264108
0.188177
0.112715
0.0375523
1.3725
1.33581
1.2816
1.21419
1.14434
1.07598
1.00827
0.93963
0.869695
0.798379
0.725043
0.649606
0.57261
0.495177
0.417896
0.340964
0.264496
0.188567
0.112995
0.0376764
2.92855
3.70644
4.30417
4.76131
5.09266
5.33368
5.49956
5.60552
5.66036
5.66997
5.63762
5.56248
5.44071
5.2673
5.02933
4.71987
4.31149
3.79315
3.12839
2.3128
4.486
4.67279
4.82644
4.94213
5.03573
5.10581
5.15641
5.18775
5.2001
5.19318
5.16697
5.12138
5.05643
4.97225
4.86846
4.74518
4.59789
4.43372
4.22483
4.02568
3.51307
3.68166
3.83657
3.97373
4.08922
4.18268
4.25338
4.30151
4.32716
4.3304
4.31123
4.26949
4.20484
4.11684
4.005
3.86819
3.70725
3.51898
3.30956
3.07574
3.51045
3.58917
3.65818
3.7168
3.7653
3.80351
3.83165
3.84979
3.85805
3.85656
3.84544
3.82488
3.79508
3.75625
3.70857
3.65235
3.5873
3.51417
3.43209
3.34324
2.93053
2.99171
3.04834
3.09891
3.14223
3.1775
3.20408
3.22153
3.22954
3.2279
3.21645
3.19514
3.16393
3.12288
3.07215
3.0119
2.94266
2.8647
2.77935
2.68621
2.80572
2.84016
2.87051
2.8965
2.91802
2.93495
2.94727
2.95497
2.95807
2.9566
2.9506
2.94012
2.92518
2.90582
2.88204
2.85388
2.82125
2.78419
2.74248
2.69586
2.43235
2.45808
2.48146
2.50197
2.51919
2.53278
2.54244
2.54797
2.54923
2.54605
2.53837
2.52618
2.50949
2.48833
2.46283
2.43314
2.39952
2.36224
2.32173
2.27811
2.3274
2.3439
2.35832
2.37052
2.38043
2.388
2.3932
2.39603
2.39648
2.39454
2.39019
2.38345
2.37428
2.36268
2.34862
2.33205
2.31294
2.29123
2.2668
2.23934
2.07281
2.08478
2.09538
2.10441
2.1117
2.11708
2.12045
2.12168
2.12072
2.11751
2.11201
2.10423
2.09417
2.08189
2.06745
2.05095
2.03253
2.01235
1.99065
1.96754
1.99872
2.0075
2.01505
2.02131
2.02625
2.02982
2.03201
2.03281
2.0322
2.03017
2.02672
2.02182
2.01547
2.00764
1.99831
1.98746
1.97508
1.96114
1.94554
1.92803
1.81794
1.82408
1.82936
1.83369
1.83698
1.83915
1.84016
1.83994
1.83847
1.83573
1.8317
1.82638
1.8198
1.81199
1.80298
1.79285
1.78165
1.7695
1.75653
1.74286
1.76918
1.77436
1.77875
1.7823
1.78499
1.78679
1.7877
1.78769
1.78676
1.7849
1.78209
1.77834
1.77362
1.76794
1.76126
1.7536
1.74494
1.73529
1.72459
1.71258
1.63786
1.64134
1.64423
1.64649
1.64807
1.64893
1.64904
1.64838
1.64692
1.64467
1.64162
1.63776
1.63313
1.62773
1.62159
1.61476
1.60726
1.59915
1.59054
1.58156
1.60878
1.61215
1.61495
1.61716
1.61875
1.61971
1.62004
1.61971
1.61872
1.61706
1.61473
1.61172
1.60802
1.60363
1.59855
1.59276
1.58628
1.57911
1.57128
1.56247
1.51341
1.51559
1.51734
1.51864
1.51945
1.51975
1.51953
1.51878
1.51749
1.51566
1.51328
1.51036
1.50692
1.50296
1.49851
1.49359
1.48822
1.48245
1.47633
1.46998
1.50158
1.50397
1.50592
1.50741
1.50842
1.50895
1.50898
1.50851
1.50753
1.50605
1.50404
1.50153
1.49849
1.49494
1.49087
1.48628
1.48119
1.47562
1.46957
1.46276
1.43418
1.43567
1.43681
1.43758
1.43796
1.43794
1.43751
1.43666
1.43539
1.4337
1.43159
1.42906
1.42613
1.4228
1.4191
1.41503
1.41063
1.40591
1.40094
1.39583
1.42878
1.4305
1.43184
1.43279
1.43334
1.43347
1.43317
1.43244
1.43126
1.42962
1.42753
1.42497
1.42194
1.41843
1.41443
1.40997
1.40503
1.39965
1.39378
1.38713
1.37706
1.378
1.37867
1.37905
1.37914
1.3789
1.37835
1.37747
1.37625
1.37469
1.37278
1.37052
1.3679
1.36492
1.36157
1.35785
1.35374
1.34918
1.34418
1.33893
1.4155
1.41733
1.41884
1.42001
1.42082
1.42124
1.42127
1.4209
1.42012
1.41893
1.41733
1.41534
1.41296
1.4102
1.4071
1.40366
1.39994
1.39599
1.39189
1.38761
1.4823
1.53636
1.59388
1.65709
1.7265
1.80123
1.87845
1.95293
2.0159
2.05427
2.05406
2.00881
1.92435
1.82182
1.72671
1.65188
1.59681
1.56732
1.64505
2.06516
1.47299
1.50447
1.54196
1.58491
1.63212
1.68145
1.73057
1.7781
1.82489
1.87594
1.94179
2.03726
2.17715
2.37093
2.61944
2.91382
3.24169
3.58972
3.93569
4.24382
1.8862
1.94316
2.00124
2.0587
2.11326
2.16221
2.20326
2.23575
2.26185
2.28785
2.32352
2.3777
2.45346
2.54815
2.65406
2.76718
2.88883
3.02354
3.17438
3.34017
1.81446
1.86097
1.90884
1.9577
2.00745
2.05883
2.11368
2.17497
2.24617
2.33022
2.42786
2.53754
2.65572
2.7769
2.89687
3.0131
3.1243
3.22997
3.3299
3.42364
1.93589
1.97702
2.01673
2.05425
2.08943
2.12281
2.15595
2.19128
2.23106
2.27632
2.32662
2.38068
2.43705
2.49465
2.55315
2.61282
2.67407
2.73707
2.80151
2.86651
1.85561
1.89277
1.93067
1.96968
2.01051
2.05412
2.10139
2.15267
2.20766
2.26518
2.32362
2.38149
2.43766
2.49147
2.54275
2.59166
2.63853
2.68359
2.72678
2.76771
1.84526
1.87364
1.90112
1.92779
1.95416
1.98084
2.00839
2.03725
2.06757
2.09913
2.13134
2.16357
2.19537
2.22656
2.25717
2.28735
2.31724
2.34689
2.3762
2.40486
1.77105
1.79877
1.82726
1.85669
1.8873
1.91916
1.95209
1.98568
2.01933
2.05245
2.0845
2.11511
2.14408
2.17141
2.19723
2.22176
2.24521
2.26764
2.289
2.30901
1.71589
1.73576
1.75519
1.77434
1.79342
1.81266
1.83223
1.85213
1.87221
1.89222
1.91189
1.93098
1.94937
1.967
1.9839
2.00016
2.01587
2.03107
2.04574
2.05972
1.65237
1.67301
1.69401
1.71531
1.73686
1.75857
1.78023
1.80161
1.82242
1.84241
1.8614
1.87927
1.89603
1.91173
1.92649
1.94044
1.95367
1.96619
1.97794
1.98883
1.58898
1.60317
1.6171
1.63088
1.64458
1.65826
1.67191
1.68547
1.69882
1.71182
1.72434
1.73629
1.74761
1.75829
1.76837
1.7779
1.78692
1.79547
1.80354
1.81106
1.53778
1.5534
1.56894
1.58439
1.59973
1.61486
1.62968
1.64403
1.65778
1.67084
1.68312
1.69461
1.70533
1.71533
1.72469
1.73348
1.74174
1.74949
1.75668
1.76327
1.48063
1.49122
1.50161
1.51186
1.52197
1.53195
1.54177
1.55137
1.56068
1.56962
1.57814
1.58618
1.59372
1.60076
1.60733
1.61345
1.61916
1.62447
1.62938
1.63386
1.44226
1.45439
1.46627
1.47793
1.48936
1.5005
1.51127
1.52159
1.53141
1.54068
1.54936
1.55746
1.565
1.57202
1.57856
1.58466
1.59035
1.59563
1.60048
1.60488
1.39715
1.40552
1.4137
1.42172
1.42956
1.43723
1.44468
1.45189
1.45882
1.46542
1.47165
1.4775
1.48295
1.488
1.49267
1.49698
1.50095
1.50458
1.50788
1.51083
1.3721
1.38208
1.39171
1.40107
1.41016
1.41895
1.42739
1.43542
1.44302
1.45017
1.45684
1.46306
1.46884
1.4742
1.47917
1.48379
1.48806
1.49199
1.49557
1.49877
1.34024
1.3474
1.35437
1.36115
1.36772
1.37409
1.38023
1.38613
1.39174
1.39706
1.40205
1.40671
1.41103
1.41501
1.41866
1.42199
1.42503
1.42777
1.43021
1.43236
1.32527
1.3335
1.3414
1.34902
1.35639
1.36347
1.37025
1.37669
1.38277
1.38847
1.3938
1.39876
1.40336
1.40762
1.41156
1.4152
1.41853
1.42157
1.4243
1.42671
1.30614
1.31173
1.31724
1.32257
1.3277
1.33263
1.33736
1.34186
1.34614
1.35016
1.35391
1.3574
1.3606
1.36354
1.3662
1.36862
1.37079
1.37271
1.37441
1.37586
1.31289
1.32131
1.32938
1.33719
1.34473
1.35193
1.35878
1.36524
1.37129
1.3769
1.38209
1.38685
1.39122
1.39523
1.39892
1.40232
1.40545
1.40834
1.41098
1.41338
0.923554
0.696199
0.463529
0.250613
0.0573967
-0.112052
-0.247757
-0.344418
-0.402268
-0.421482
-0.406198
-0.363465
-0.301718
-0.229465
-0.15463
-0.0842746
-0.024328
0.0205553
0.0494066
0.0741179
-1.01094
-1.12448
-1.25128
-1.36509
-1.44957
-1.50011
-1.51681
-1.50107
-1.45548
-1.38593
-1.29744
-1.19585
-1.08763
-0.979484
-0.877775
-0.787949
-0.714301
-0.66011
-0.6265
-0.607207
-1.93882
-2.02223
-2.0921
-2.1472
-2.18262
-2.19484
-2.18299
-2.14838
-2.09257
-2.01903
-1.9328
-1.83861
-1.74134
-1.64587
-1.55675
-1.47769
-1.41155
-1.36082
-1.32934
-1.31791
-2.43973
-2.47328
-2.51492
-2.53421
-2.53527
-2.51605
-2.47614
-2.41763
-2.3402
-2.24713
-2.15229
-2.05205
-1.95043
-1.85172
-1.76012
-1.6796
-1.61402
-1.56708
-1.54155
-1.53922
-2.26404
-2.31819
-2.35689
-2.37763
-2.38051
-2.36586
-2.3346
-2.28702
-2.22542
-2.15288
-2.0725
-1.98719
-1.89999
-1.8142
-1.73334
-1.66131
-1.60253
-1.56164
-1.54277
-1.55116
-1.61191
-1.62658
-1.63287
-1.62989
-1.61767
-1.59577
-1.56488
-1.5277
-1.48642
-1.44193
-1.39544
-1.34835
-1.3022
-1.25874
-1.21994
-1.18802
-1.16511
-1.15255
-1.15096
-1.16287
-1.02461
-1.02043
-1.01396
-1.00306
-0.989665
-0.974482
-0.958347
-0.940983
-0.921081
-0.899022
-0.876001
-0.853197
-0.831725
-0.812705
-0.797326
-0.786776
-0.78184
-0.782361
-0.787618
-0.798553
-0.372487
-0.346614
-0.321911
-0.301575
-0.285775
-0.275037
-0.269255
-0.268465
-0.27314
-0.283349
-0.298172
-0.316318
-0.336397
-0.356949
-0.376533
-0.393902
-0.408229
-0.419416
-0.42765
-0.433792
-0.0832746
-0.0476489
-0.0153743
0.0104487
0.0287109
0.0383965
0.0392016
0.0314218
0.015986
-0.00552084
-0.0316826
-0.0609141
-0.091342
-0.120791
-0.147121
-0.168575
-0.184218
-0.194195
-0.199612
-0.201238
0.0903118
0.116453
0.139538
0.155893
0.165867
0.169062
0.165533
0.155549
0.13968
0.118898
0.0945714
0.0682892
0.0408227
0.0167561
-0.00364812
-0.019298
-0.0299611
-0.0361125
-0.0383987
-0.0364883
0.0724636
0.0848658
0.095725
0.102969
0.106776
0.107047
0.10407
0.0982766
0.0901814
0.0803394
0.0693188
0.0580116
0.0472003
0.0373522
0.0292608
0.0233708
0.0197504
0.0181124
0.0182506
0.0210889
0.0939676
0.0920519
0.0892208
0.084334
0.0779803
0.0704483
0.0622246
0.053834
0.0457668
0.0384402
0.0321542
0.0270816
0.0233513
0.021039
0.0199576
0.0199036
0.0205833
0.0216596
0.0231137
0.025951
0.0855255
0.0770899
0.0687672
0.0598519
0.050653
0.0415
0.0327543
0.024848
0.0181376
0.012865
0.00911748
0.00684115
0.00586333
0.00592242
0.00672817
0.00778861
0.00899163
0.0100961
0.011044
0.0122117
0.128312
0.114785
0.100105
0.0850884
0.0701288
0.0558456
0.0426253
0.0307691
0.0204127
0.0115778
0.00420248
-0.00183068
-0.00665789
-0.0103961
-0.0131202
-0.0147796
-0.0154735
-0.0158899
-0.0159609
-0.0154592
0.153061
0.137346
0.120389
0.102941
0.0853927
0.0685386
0.0530988
0.0397193
0.0288254
0.0205435
0.0146951
0.0108418
0.00839144
0.00674804
0.0054446
0.0041352
0.00260655
0.00095364
-0.000229548
-0.000902361
0.222981
0.202078
0.178252
0.152289
0.124613
0.0961337
0.0679041
0.0409629
0.0161403
-0.00610672
-0.0257154
-0.0429196
-0.0580438
-0.0712754
-0.0825739
-0.0917604
-0.0985952
-0.102322
-0.104146
-0.103756
0.307514
0.284867
0.259254
0.230438
0.198391
0.163442
0.126483
0.0889541
0.0527405
0.0199286
-0.00755089
-0.0283262
-0.0419399
-0.0489937
-0.0511352
-0.0506718
-0.0498531
-0.0502136
-0.051785
-0.0557932
0.448093
0.427019
0.402187
0.372282
0.336182
0.292856
0.241793
0.183195
0.118111
0.048406
-0.0234859
-0.0949648
-0.163685
-0.227762
-0.285625
-0.33557
-0.375515
-0.404066
-0.422195
-0.425462
0.607467
0.587696
0.565709
0.540287
0.509855
0.472568
0.426761
0.371508
0.306877
0.234209
0.156436
0.0782728
0.00579262
-0.0549305
-0.0997394
-0.127588
-0.140178
-0.140985
-0.136333
-0.154561
0.831693
0.793609
0.74897
0.697724
0.639569
0.573966
0.499256
0.412466
0.309274
0.184401
0.03259
-0.149793
-0.363695
-0.607696
-0.879341
-1.17629
-1.49497
-1.82815
-2.17538
-2.65097
0.0241717
0.0729751
0.122473
0.172431
0.223119
0.274609
0.327044
0.380645
0.435833
0.492809
0.551858
0.613322
0.67746
0.744429
0.814213
0.887882
0.967797
1.05856
1.16413
1.32785
0.0258762
0.0781514
0.130922
0.184286
0.238376
0.293424
0.349671
0.407329
0.466837
0.528564
0.592925
0.660539
0.732142
0.808704
0.891816
0.984584
1.08877
1.20304
1.30834
1.3994
0.0273879
0.0825096
0.137916
0.194052
0.251031
0.309206
0.368942
0.430679
0.494674
0.561442
0.631517
0.705445
0.783927
0.868031
0.95973
1.06193
1.17937
1.32142
1.50119
1.71792
0.0286973
0.0863261
0.144433
0.203312
0.263183
0.324321
0.387021
0.45176
0.51895
0.58906
0.662726
0.740771
0.824283
0.914842
1.01502
1.12745
1.253
1.3861
1.52358
1.6858
0.0299889
0.0900278
0.150767
0.212219
0.274769
0.338655
0.404199
0.47178
0.54203
0.615383
0.69237
0.773751
0.860533
0.954215
1.05671
1.17097
1.30172
1.45479
1.626
1.81081
0.0310634
0.0933119
0.15614
0.219655
0.284207
0.350159
0.417846
0.487576
0.559782
0.635019
0.713914
0.797301
0.886356
0.982656
1.08785
1.20293
1.32691
1.45523
1.5904
1.74771
0.031841
0.0959498
0.160473
0.225832
0.292205
0.359977
0.429487
0.501154
0.575303
0.652394
0.73295
0.817568
0.907087
1.00261
1.10564
1.21834
1.34281
1.47912
1.61896
1.75879
0.0327137
0.0984665
0.164637
0.23156
0.299493
0.368684
0.43941
0.512004
0.5869
0.664483
0.745307
0.83011
0.919723
1.01489
1.1162
1.22371
1.33437
1.44678
1.5633
1.69006
0.0335678
0.100673
0.168283
0.236472
0.305596
0.375921
0.447731
0.521249
0.596827
0.674867
0.755724
0.839816
0.927618
1.01965
1.11676
1.21973
1.32882
1.44162
1.55098
1.65513
0.034031
0.102183
0.170758
0.23994
0.309897
0.380857
0.453093
0.526885
0.60246
0.680197
0.76051
0.843802
0.930344
1.02029
1.11348
1.20893
1.30415
1.39873
1.4937
1.59188
0.0344567
0.103591
0.173012
0.243034
0.313826
0.385537
0.458337
0.532451
0.608069
0.685324
0.764452
0.845734
0.929371
1.01557
1.1044
1.19563
1.28875
1.38017
1.4659
1.5451
0.034891
0.104803
0.174975
0.24555
0.316741
0.38873
0.461631
0.535556
0.610694
0.687239
0.765293
0.844936
0.926288
1.00926
1.09351
1.17722
1.25884
1.33801
1.41506
1.49168
0.035146
0.105542
0.176189
0.247231
0.318742
0.390874
0.463794
0.537613
0.612353
0.68806
0.764739
0.842276
0.920612
0.999781
1.07983
1.16049
1.24018
1.3159
1.38522
1.44769
0.0353779
0.106171
0.177122
0.248402
0.320133
0.392333
0.46511
0.538561
0.612747
0.687613
0.763132
0.839163
0.915387
0.991522
1.06693
1.14072
1.21182
1.27962
1.34419
1.40569
0.0355978
0.106726
0.17804
0.249544
0.321426
0.393715
0.466407
0.539502
0.613067
0.687067
0.76133
0.835674
0.909747
0.983112
1.05543
1.12653
1.19557
1.26024
1.3189
1.37102
0.0356276
0.106954
0.178424
0.250074
0.321887
0.393974
0.466377
0.539122
0.612127
0.685379
0.758771
0.832113
0.90505
0.976774
1.04618
1.11231
1.17497
1.23426
1.28997
1.34147
0.0357005
0.10727
0.178843
0.250578
0.322435
0.39446
0.466653
0.538982
0.611368
0.683709
0.755944
0.827947
0.899581
0.970457
1.03964
1.106
1.16822
1.2248
1.27473
1.31806
0.0358241
0.107466
0.179171
0.250932
0.32282
0.394797
0.466818
0.538793
0.610693
0.682406
0.753808
0.824803
0.895284
0.965052
1.03319
1.09805
1.15809
1.21214
1.25951
1.30022
0.03587
0.107546
0.179307
0.251115
0.322994
0.394904
0.466809
0.538635
0.610226
0.681431
0.752042
0.821882
0.890801
0.958737
1.02569
1.09075
1.15164
1.20564
1.25134
1.28903
0.03582
0.107494
0.1792
0.250958
0.322771
0.394634
0.466505
0.538337
0.609989
0.681278
0.751869
0.821233
0.888614
0.953093
1.01427
1.0724
1.12814
1.18208
1.2352
1.28614
0.0262297
0.0780543
0.125603
0.170678
0.211136
0.247246
0.280116
0.308379
0.332265
0.349407
0.364837
0.377287
0.383894
0.389351
0.396411
0.409676
0.43173
0.433998
0.574218
0.74854
0.0227226
0.0677587
0.109608
0.149603
0.184893
0.216008
0.244052
0.26734
0.284535
0.294675
0.301156
0.299294
0.286831
0.267459
0.234504
0.18883
0.108267
-0.0565697
-0.26224
-0.702266
0.0198939
0.058902
0.0957676
0.130576
0.161177
0.187882
0.21072
0.228769
0.240346
0.24465
0.242304
0.227844
0.200738
0.159277
0.091702
-0.0109527
-0.188129
-0.476789
-0.877529
-1.60903
0.0174184
0.0511472
0.0833804
0.11347
0.140125
0.163124
0.181243
0.194398
0.2015
0.201326
0.191447
0.16828
0.130831
0.0734574
-0.0133485
-0.148269
-0.368512
-0.717042
-1.2938
-2.15978
0.0151122
0.0446062
0.0729023
0.0994501
0.122973
0.143169
0.158103
0.167602
0.171361
0.167899
0.153085
0.12605
0.0840092
0.0191358
-0.0771152
-0.223112
-0.439563
-0.770508
-1.28185
-2.00691
0.0133786
0.0400142
0.0655773
0.0894735
0.110575
0.128543
0.141498
0.148841
0.150392
0.14485
0.128264
0.100703
0.0590901
-0.00349098
-0.0944013
-0.227052
-0.417508
-0.700701
-1.1138
-1.54065
0.0123304
0.0370353
0.0607221
0.0825287
0.102033
0.118301
0.13016
0.136645
0.136998
0.130629
0.115198
0.0897037
0.0504573
-0.00727233
-0.0867584
-0.189854
-0.323281
-0.5079
-0.73687
-0.976268
0.0116689
0.0346861
0.0566714
0.0769228
0.0954531
0.110834
0.122763
0.129864
0.130693
0.124926
0.112217
0.0905281
0.0565603
0.00864472
-0.0544987
-0.133021
-0.230771
-0.34079
-0.439464
-0.452179
0.0111862
0.0331425
0.0541691
0.0737567
0.0916663
0.106769
0.119264
0.127588
0.130376
0.126936
0.117526
0.099474
0.0708354
0.0328997
-0.0131123
-0.0668861
-0.129029
-0.189511
-0.223983
-0.192252
0.0108104
0.0327797
0.0542717
0.0745234
0.0927593
0.108428
0.121621
0.131085
0.136109
0.135789
0.129806
0.116755
0.0962851
0.06847
0.0329803
-0.00981669
-0.0538981
-0.0841651
-0.084497
-0.0126466
0.0109354
0.0337178
0.0561756
0.077598
0.0971103
0.11428
0.128781
0.140142
0.148012
0.151259
0.148593
0.139953
0.126546
0.108628
0.0859368
0.0579424
0.0287206
0.00510651
0.000251962
0.020277
0.01176
0.0357405
0.0590347
0.0816826
0.102922
0.122299
0.138953
0.153018
0.164111
0.171484
0.173981
0.171404
0.163853
0.150727
0.131416
0.107398
0.0849712
0.071647
0.0729375
0.0846109
0.0127936
0.038278
0.0631315
0.0876215
0.11113
0.133364
0.15327
0.170772
0.185208
0.196245
0.203515
0.206995
0.206478
0.201597
0.191559
0.176838
0.159458
0.142247
0.121938
0.0994202
0.0139542
0.0416173
0.0692544
0.0963114
0.122477
0.147491
0.170859
0.192099
0.210663
0.22623
0.238542
0.247163
0.250973
0.249149
0.242222
0.232486
0.221501
0.208872
0.191848
0.160198
0.0152318
0.0454905
0.0760156
0.105855
0.135067
0.163116
0.19
0.215109
0.238132
0.258644
0.276607
0.29184
0.303473
0.310198
0.311669
0.308153
0.298361
0.279321
0.246175
0.197445
0.016329
0.0492564
0.0821917
0.114797
0.147256
0.179035
0.209998
0.239831
0.268281
0.29475
0.318772
0.339659
0.356741
0.369379
0.377437
0.380898
0.37864
0.368261
0.341253
0.283203
0.0176468
0.0537623
0.0897388
0.125804
0.161814
0.197617
0.232744
0.267092
0.300599
0.333107
0.364189
0.393242
0.419596
0.44257
0.460713
0.471716
0.472236
0.458395
0.428681
0.372739
0.0195218
0.0591337
0.0987902
0.138664
0.178435
0.218249
0.257829
0.297005
0.335723
0.373976
0.411387
0.447514
0.481906
0.514309
0.543896
0.568076
0.582584
0.582005
0.558264
0.503107
0.0215556
0.064406
0.107389
0.150587
0.193914
0.237421
0.281213
0.325304
0.369633
0.41435
0.459533
0.505028
0.550493
0.595207
0.638009
0.676085
0.705886
0.721511
0.710985
0.659182
0.0229589
0.068648
0.114749
0.161206
0.208261
0.255871
0.304149
0.353252
0.403128
0.453818
0.505551
0.558501
0.612877
0.66872
0.725836
0.784309
0.844688
0.905295
0.953288
0.929018
0.102523
0.27515
0.431137
0.56059
0.678474
0.769731
0.854671
0.911183
0.965084
0.986342
1.01169
0.996769
0.986985
0.920812
0.865029
0.704603
0.570507
0.357196
0.278432
0.365096
0.0985159
0.266059
0.414844
0.540479
0.652579
0.741899
0.821991
0.878598
0.927395
0.948422
0.966914
0.951201
0.932659
0.867971
0.800837
0.633291
0.488937
0.238119
0.165748
0.290443
0.0947088
0.256395
0.398409
0.51907
0.625862
0.712412
0.78818
0.844452
0.889273
0.910727
0.923984
0.908235
0.883292
0.821268
0.743444
0.575831
0.426476
0.136189
0.0804244
0.209191
0.0908517
0.24623
0.381831
0.496883
0.598708
0.68198
0.753906
0.809321
0.85149
0.873558
0.883282
0.868591
0.8401
0.782622
0.69621
0.541159
0.391251
0.0653709
0.0583003
0.169564
0.0866857
0.235486
0.364986
0.474409
0.571387
0.651302
0.719617
0.773816
0.814113
0.837135
0.845017
0.832577
0.804311
0.752108
0.665974
0.533536
0.381995
0.0371631
0.105326
0.158087
0.0820882
0.224003
0.3477
0.452006
0.544209
0.621114
0.685988
0.738712
0.777794
0.802021
0.809407
0.800844
0.774666
0.730175
0.655035
0.550084
0.396969
0.0791074
0.216517
0.193119
0.077122
0.211776
0.329889
0.429779
0.517411
0.591682
0.653391
0.704531
0.742722
0.768109
0.776575
0.7727
0.750193
0.715925
0.658944
0.577898
0.440078
0.219618
0.366474
0.273981
0.0720041
0.199166
0.311756
0.407909
0.49141
0.563442
0.622455
0.672133
0.709541
0.735926
0.746617
0.747943
0.730899
0.708576
0.667124
0.60432
0.513452
0.435783
0.511925
0.410143
0.0669616
0.186621
0.293608
0.386304
0.466244
0.536179
0.593136
0.641787
0.678636
0.705996
0.719907
0.726546
0.717777
0.707608
0.676462
0.629649
0.598801
0.629182
0.584923
0.595261
0.0621801
0.174611
0.275866
0.364961
0.441788
0.509475
0.5649
0.612962
0.649503
0.678144
0.695675
0.707794
0.709186
0.711181
0.693017
0.668292
0.681475
0.72318
0.565408
0.81536
0.0578412
0.163501
0.258939
0.344104
0.41803
0.483107
0.537221
0.584794
0.621087
0.651155
0.672441
0.689912
0.701219
0.714555
0.716067
0.726599
0.780177
0.785159
0.595418
1.06802
0.0540665
0.153395
0.243094
0.324133
0.395121
0.457365
0.510185
0.557042
0.592843
0.62422
0.648785
0.670727
0.689984
0.712354
0.734061
0.781272
0.881169
0.911051
0.923518
1.35003
0.0508115
0.144056
0.228317
0.305185
0.37301
0.432418
0.483847
0.529663
0.564921
0.59747
0.624464
0.64937
0.674602
0.70387
0.738966
0.807112
0.932693
1.02907
1.31347
1.54642
0.0478794
0.13518
0.21447
0.287177
0.351574
0.408227
0.458004
0.502345
0.537341
0.571089
0.599658
0.626381
0.656508
0.691321
0.735415
0.813221
0.942711
1.0486
1.35773
1.53936
0.0450428
0.126558
0.201281
0.269812
0.330724
0.384729
0.432418
0.474752
0.50975
0.544341
0.573748
0.602006
0.636046
0.67452
0.725096
0.807713
0.941512
1.06167
1.31156
1.43128
0.042132
0.118113
0.188483
0.252817
0.310487
0.362063
0.407332
0.447319
0.482248
0.51666
0.54603
0.575514
0.612021
0.652854
0.708645
0.787531
0.910547
1.03187
1.29185
1.37254
0.0390983
0.109883
0.175967
0.236163
0.290898
0.340235
0.383044
0.4208
0.45535
0.488375
0.516717
0.546302
0.582606
0.623798
0.683778
0.761274
0.870892
0.959037
1.16532
1.26694
0.03596
0.101954
0.163728
0.21998
0.271798
0.318768
0.359261
0.395134
0.428813
0.459492
0.486132
0.514655
0.547821
0.58427
0.639305
0.714765
0.833705
0.92616
1.07689
1.14769
0.0327832
0.09441
0.151773
0.204383
0.252942
0.297077
0.335399
0.36948
0.401479
0.428886
0.453392
0.479889
0.508185
0.536568
0.576742
0.636456
0.75168
0.86577
1.04696
1.15397
0.0296961
0.0871948
0.140252
0.189415
0.234525
0.27514
0.311434
0.343132
0.372319
0.39531
0.416876
0.438848
0.459714
0.479716
0.506383
0.547864
0.629303
0.716428
0.931777
1.21453
0.00134099
0.00389049
0.00627077
0.00849505
0.0105778
0.0125296
0.0143582
0.0160694
0.0176666
0.019152
0.020527
0.0217941
0.0229557
0.0240147
0.0249737
0.0258357
0.0266032
0.0272788
0.0278649
0.0283634
0.00387432
0.0113106
0.0183465
0.024993
0.0312647
0.0371736
0.0427284
0.0479363
0.0528034
0.0573355
0.0615382
0.0654178
0.0689807
0.072234
0.0751849
0.0778408
0.0802091
0.0822971
0.084112
0.0856605
0.00626948
0.0183959
0.029999
0.0410627
0.0515764
0.0615334
0.0709299
0.0797645
0.0880383
0.0957544
0.102918
0.109537
0.115619
0.121175
0.126217
0.130754
0.134801
0.138368
0.141467
0.144109
0.00878436
0.0258152
0.0421835
0.0578542
0.0727917
0.0869711
0.100374
0.11299
0.124813
0.135843
0.146083
0.155542
0.164232
0.172165
0.179358
0.185827
0.191591
0.196668
0.201076
0.20483
0.0115236
0.0338606
0.0553571
0.0759659
0.0956263
0.114296
0.131944
0.14855
0.164103
0.178598
0.192042
0.204443
0.215818
0.226187
0.235573
0.244001
0.251496
0.258086
0.263797
0.268653
0.0146098
0.0428682
0.0700431
0.0960826
0.120897
0.144431
0.166643
0.187506
0.207005
0.225138
0.241915
0.257351
0.271472
0.284307
0.295892
0.306264
0.315462
0.323525
0.330493
0.336403
0.0181741
0.0531899
0.0867862
0.118915
0.149448
0.178327
0.205501
0.23094
0.254635
0.27659
0.296823
0.315366
0.332257
0.347545
0.361283
0.373528
0.384339
0.393777
0.401897
0.408757
0.0223779
0.0652463
0.106229
0.145292
0.182254
0.217068
0.249676
0.28006
0.308219
0.334174
0.357963
0.379639
0.399268
0.416924
0.43269
0.446653
0.458902
0.469526
0.478611
0.48624
0.0274222
0.0795474
0.129145
0.176199
0.22045
0.261901
0.300489
0.336219
0.369114
0.399223
0.426617
0.451385
0.473629
0.493467
0.511022
0.526426
0.539813
0.551315
0.56106
0.569172
0.0335536
0.0967049
0.156458
0.212797
0.265354
0.314259
0.359428
0.400929
0.438815
0.473187
0.504161
0.531879
0.556498
0.578192
0.597147
0.613555
0.627614
0.639519
0.64946
0.65762
0.0410615
0.117406
0.189221
0.256381
0.318405
0.375693
0.428084
0.475788
0.51889
0.557572
0.592011
0.622422
0.649032
0.672092
0.691868
0.70864
0.722693
0.734314
0.743781
0.751366
0.0502424
0.142333
0.228501
0.3082
0.38096
0.44766
0.507911
0.562263
0.610762
0.653754
0.691461
0.724203
0.752283
0.776052
0.795871
0.812137
0.825256
0.835644
0.84371
0.84986
0.0612981
0.171964
0.275073
0.369007
0.453826
0.531008
0.599683
0.661169
0.715198
0.76252
0.803265
0.837958
0.866913
0.89063
0.90955
0.924233
0.93523
0.943156
0.94861
0.952208
0.0741415
0.206158
0.328664
0.438096
0.536304
0.624815
0.702314
0.771475
0.831088
0.882926
0.926527
0.962968
0.992263
1.01524
1.03225
1.04417
1.05165
1.05566
1.05711
1.05695
0.0881836
0.243596
0.38692
0.512256
0.625081
0.724948
0.811612
0.888866
0.953998
1.0108
1.05712
1.09551
1.12473
1.14661
1.16065
1.16859
1.17086
1.16918
1.16496
1.15996
0.102055
0.280882
0.444237
0.584488
0.711975
0.82163
0.918068
1.0028
1.07346
1.13574
1.18466
1.22579
1.25459
1.27556
1.28538
1.28829
1.28288
1.27248
1.25965
1.24827
0.113402
0.311758
0.49104
0.643462
0.782471
0.898566
1.00447
1.09323
1.17
1.23626
1.2879
1.33227
1.35981
1.38104
1.38441
1.38233
1.36735
1.34796
1.32515
1.30924
0.119454
0.328397
0.515525
0.674228
0.817952
0.935425
1.04544
1.13232
1.21338
1.2766
1.33113
1.37239
1.3966
1.41204
1.40092
1.38409
1.34436
1.30458
1.26387
1.24306
0.117633
0.323541
0.506936
0.66242
0.801058
0.913753
1.01806
1.09491
1.17134
1.22176
1.27222
1.29711
1.31391
1.30213
1.27541
1.22106
1.14571
1.07637
1.02575
1.02798
0.109254
0.29885
0.468519
0.611003
0.738124
0.839229
0.930923
0.994441
1.05717
1.08698
1.12517
1.1213
1.12581
1.07197
1.02978
0.908626
0.792027
0.672944
0.62199
0.741827
0.0286515
0.0288029
0.0289415
0.0290671
0.0291798
0.0292798
0.029367
0.0294416
0.0295036
0.0295531
0.0295901
0.0296146
0.0296268
0.0296266
0.0296141
0.0295893
0.0295522
0.0295028
0.0294411
0.0293673
0.0865622
0.0870361
0.0874688
0.087861
0.0882128
0.0885247
0.0887967
0.0890292
0.0892223
0.0893763
0.0894912
0.0895673
0.0896045
0.089603
0.0895628
0.0894839
0.0893664
0.0892101
0.089015
0.0887808
0.145646
0.146453
0.147191
0.14786
0.14846
0.148992
0.149456
0.149852
0.150182
0.150444
0.15064
0.150769
0.150832
0.150829
0.15076
0.150625
0.150424
0.150157
0.149824
0.149425
0.207012
0.208158
0.209205
0.210154
0.211004
0.211758
0.212415
0.212975
0.213441
0.213811
0.214086
0.214268
0.214355
0.214348
0.214247
0.214052
0.213764
0.213382
0.212905
0.212335
0.27147
0.272949
0.274299
0.275521
0.276616
0.277585
0.278429
0.279148
0.279744
0.280217
0.280568
0.280797
0.280904
0.28089
0.280754
0.280498
0.28012
0.279621
0.279
0.278257
0.339821
0.341615
0.343249
0.344728
0.346051
0.34722
0.348236
0.349102
0.349817
0.350382
0.350799
0.351068
0.351189
0.351163
0.35099
0.35067
0.350202
0.349587
0.348823
0.347912
0.412709
0.414779
0.416664
0.418365
0.419884
0.421225
0.422388
0.423376
0.424189
0.424829
0.425298
0.425595
0.425722
0.425679
0.425465