/*--------------------------------*- C++ -*----------------------------------*\
| =========                 |                                                 |
| \\      /  F ield         | OpenFOAM: The Open Source CFD Toolbox           |
|  \\    /   O peration     | Version:  v1806                                 |
|   \\  /    A nd           | Web:      www.OpenFOAM.com                      |
|    \\/     M anipulation  |                                                 |
\*---------------------------------------------------------------------------*/
FoamFile
{
    version     2.0;
    format      ascii;
    class       surfaceScalarField;
    location    "420";
    object      phi;
}
// * * * * * * * * * * * * * * * * * * * * * * * * * * * * * * * * * * * * * //

dimensions      [0 3 -1 0 0 0 0];
oriented        oriented;


internalField   nonuniform List<scalar> 
4680
(
0.0750004
-0.000193802
0.0750017
-0.000579979
0.0750042
-0.000963712
0.0750082
-0.00134346
0.0750139
-0.0017179
0.0750218
-0.00208545
0.0750324
-0.00244415
0.0750461
-0.00279162
0.0750637
-0.00312514
0.0750856
-0.00344163
0.0751125
-0.00373776
0.0751449
-0.0040099
0.0751834
-0.00425422
0.0752284
-0.00446671
0.0752801
-0.00464333
0.0753386
-0.00478014
0.0754034
-0.00487354
0.0754736
-0.00492028
0.0755481
-0.00491847
-0.00487226
0.0756388
0.075001
-0.000194821
0.0750042
-0.000583121
0.0750096
-0.000969144
0.0750177
-0.00135156
0.075029
-0.00172917
0.075044
-0.0021005
0.0750636
-0.0024637
0.0750884
-0.00281648
0.0751194
-0.00315614
0.0751574
-0.00347965
0.0752033
-0.00378361
0.0752577
-0.00406431
0.0753212
-0.00431772
0.0753941
-0.00453959
0.0754763
-0.00472553
0.0755673
-0.00487119
0.0756663
-0.00497254
0.0757722
-0.00502617
0.0758836
-0.00502987
-0.00498244
0.0759938
0.0750016
-0.000196422
0.0750065
-0.000588012
0.0750149
-0.000977598
0.0750275
-0.00136411
0.0750449
-0.00174653
0.0750679
-0.00212359
0.0750978
-0.00249356
0.0751356
-0.00285428
0.0751826
-0.00320313
0.07524
-0.00353708
0.075309
-0.00385264
0.0753907
-0.00414593
0.0754856
-0.00441264
0.0755941
-0.00464809
0.0757159
-0.00484734
0.0758501
-0.00500542
0.0759951
-0.00511753
0.0761485
-0.00517955
0.0763066
-0.00518799
-0.00514073
0.0764649
0.0750021
-0.000198495
0.0750084
-0.000594362
0.0750194
-0.00098861
0.0750358
-0.0013805
0.0750586
-0.0017693
0.075089
-0.00215397
0.0751284
-0.00253299
0.0751785
-0.00290438
0.075241
-0.00326561
0.0753176
-0.00361368
0.07541
-0.003945
0.0755195
-0.00425547
0.0756472
-0.00454035
0.0757935
-0.00479442
0.0759581
-0.00501191
0.0761397
-0.00518698
0.0763358
-0.00531365
0.076543
-0.00538672
0.0767565
-0.00540151
-0.00535574
0.0769715
0.0750024
-0.0002009
0.0750098
-0.000601749
0.0750227
-0.00100147
0.0750419
-0.00139978
0.0750689
-0.00179627
0.0751052
-0.00219023
0.0751526
-0.00258044
0.0752134
-0.00296514
0.0752898
-0.00334198
0.0753841
-0.003708
0.0754986
-0.00405953
0.0756353
-0.00439221
0.0757958
-0.00470078
0.0759807
-0.00497932
0.0761898
-0.00522101
0.0764216
-0.00541877
0.076673
-0.00556509
0.0769395
-0.00565326
0.077215
-0.00567693
-0.00563272
0.0774919
0.0750025
-0.00020345
0.0750104
-0.000609616
0.0750242
-0.00101527
0.0750451
-0.00142066
0.0750746
-0.00182582
0.0751149
-0.00223047
0.0751682
-0.00263374
0.0752373
-0.00303425
0.0753251
-0.00342983
0.0754349
-0.00381774
0.0755695
-0.0041942
0.075732
-0.00455464
0.0759244
-0.0048932
0.0761482
-0.00520312
0.0764034
-0.00547622
0.0766885
-0.00570391
0.0769999
-0.0058765
0.077332
-0.00598535
0.0776766
-0.0060215
-0.00598005
0.0780239
0.0750025
-0.000205911
0.0750101
-0.000617262
0.0750237
-0.00102883
0.0750445
-0.00144153
0.0750746
-0.00185591
0.0751164
-0.00227223
0.0751727
-0.00269009
0.0752471
-0.00310861
0.0753432
-0.00352597
0.0754652
-0.00393973
0.0756171
-0.00434609
0.0758029
-0.00474044
0.0760259
-0.00511615
0.0762885
-0.00546568
0.0765913
-0.00577907
0.0769333
-0.0060459
0.0773104
-0.00625356
0.0777158
-0.00639077
0.0781391
-0.00644487
-0.00640884
0.0785679
0.0750021
-0.000208005
0.0750087
-0.000623845
0.0750206
-0.00104076
0.0750395
-0.00146043
0.0750676
-0.00188403
0.0751079
-0.00231248
0.0751638
-0.00274596
0.0752395
-0.00318432
0.0753396
-0.00362615
0.0754696
-0.00406971
0.0756347
-0.00451113
0.0758404
-0.00494615
0.0760914
-0.00536717
0.0763919
-0.00576618
0.0767436
-0.00613079
0.0771464
-0.00644867
0.0775959
-0.00670311
0.0780846
-0.00687945
0.0785994
-0.00695965
-0.00693363
0.0791242
0.0750014
-0.000209406
0.0750059
-0.000628387
0.0750146
-0.00104942
0.0750292
-0.00147507
0.0750524
-0.00190718
0.0750875
-0.00234754
0.0751385
-0.002797
0.0752106
-0.00325644
0.0753094
-0.00372496
0.0754417
-0.00420202
0.0756142
-0.00468363
0.0758348
-0.00516673
0.0761098
-0.00564219
0.0764462
-0.00610258
0.0768472
-0.00653179
0.0773148
-0.00691632
0.0778449
-0.00723316
0.0784293
-0.00746389
0.0790519
-0.00758226
-0.00757383
0.0796921
0.0750003
-0.000209746
0.0750017
-0.000629783
0.0750053
-0.00105296
0.075013
-0.00148279
0.0750277
-0.00192187
0.0750532
-0.00237306
0.0750941
-0.00283795
0.0751566
-0.00331889
0.0752471
-0.00381548
0.0753744
-0.00432928
0.0755466
-0.00485584
0.0757748
-0.00539496
0.0760673
-0.00593469
0.0764357
-0.00647094
0.0768847
-0.00698075
0.0774211
-0.00745274
0.0780406
-0.00785262
0.0787364
-0.00815976
0.0794884
-0.00833421
-0.00835562
0.0802702
0.0749989
-0.000208625
0.0749959
-0.000626823
0.0749923
-0.00104932
0.0749901
-0.00148063
0.0749924
-0.00192417
0.0750034
-0.00238403
0.0750281
-0.00286263
0.0750735
-0.00336433
0.0751472
-0.00388914
0.0752599
-0.00444205
0.0754214
-0.00501732
0.0756472
-0.00562076
0.0759471
-0.00623462
0.0763407
-0.00686445
0.076833
-0.00747305
0.0774413
-0.00806107
0.078159
-0.00857032
0.0789862
-0.00898693
0.0798957
-0.00924378
-0.00931478
0.0808549
0.074997
-0.000205622
0.0749884
-0.000618235
0.0749754
-0.00103633
0.0749602
-0.00146543
0.0749458
-0.00190977
0.0749367
-0.00237487
0.074938
-0.002864
0.0749578
-0.00338411
0.0750042
-0.00393552
0.0750905
-0.00452836
0.0752275
-0.00515435
0.0754369
-0.00583015
0.0757292
-0.00652686
0.0761367
-0.00727202
0.0766618
-0.00799817
0.0773438
-0.008743
0.0781656
-0.00939211
0.0791497
-0.00997111
0.0802536
-0.0103477
-0.0105021
0.081441
0.0749947
-0.000200319
0.0749792
-0.000602742
0.0749547
-0.00101178
0.0749232
-0.00143392
0.0748876
-0.00187419
0.0748523
-0.00233959
0.0748226
-0.00283431
0.0748069
-0.00336838
0.0748137
-0.00394234
0.0748587
-0.00457342
0.0749538
-0.00524936
0.0751277
-0.00600405
0.0753903
-0.00678953
0.0757942
-0.00767592
0.0763319
-0.00853588
0.0770867
-0.00949776
0.0780094
-0.0103148
0.0791864
-0.0111481
0.0805273
-0.0116886
-0.0119934
0.0820185
0.074992
-0.000192327
0.0749684
-0.000579154
0.0749303
-0.000973618
0.0748793
-0.00138296
0.0748181
-0.001813
0.0747506
-0.00227209
0.0746818
-0.00276548
0.0746198
-0.00330633
0.0745733
-0.00389585
0.0745592
-0.00455939
0.0745905
-0.00528063
0.074703
-0.0061166
0.0749062
-0.00699265
0.0752776
-0.00804735
0.0757935
-0.00905178
0.0766138
-0.0103181
0.0776152
-0.0113162
0.0790417
-0.0125746
0.0806539
-0.0133008
-0.0139053
0.0825659
0.074989
-0.00018132
0.0749563
-0.000546465
0.0749027
-0.000920049
0.0748296
-0.0013098
0.0747388
-0.00172221
0.0746333
-0.00216666
0.0745175
-0.00264963
0.0743981
-0.00318692
0.0742836
-0.00378136
0.0741901
-0.00446589
0.0741321
-0.00522264
0.0741487
-0.00613321
0.0742536
-0.00709755
0.0745456
-0.0083393
0.0749886
-0.00949483
0.0758437
-0.0111732
0.0768718
-0.0123443
0.0786379
-0.0143407
0.0805162
-0.0151791
-0.0164461
0.0830569
0.0749858
-0.000167074
0.0749433
-0.000503981
0.074873
-0.000849798
0.0747756
-0.00121237
0.0746521
-0.00159867
0.074504
-0.00201857
0.0743342
-0.00247984
0.0741471
-0.00299987
0.0739501
-0.00358438
0.0737556
-0.00427135
0.0735799
-0.00504692
0.0734575
-0.00601084
0.0734151
-0.00705514
0.0735543
-0.00847847
0.0738603
-0.00980083
0.0746591
-0.011972
0.0756316
-0.0133168
0.0778115
-0.0165206
0.079884
-0.0172516
-0.0201442
0.0835822
0.0749824
-0.00014951
0.0749299
-0.000451433
0.0748424
-0.000762301
0.0747197
-0.00108967
0.0745616
-0.00144062
0.0743679
-0.00182485
0.0741392
-0.00225116
0.0738766
-0.00273725
0.0735845
-0.00329227
0.0732689
-0.00395578
0.0729456
-0.00472361
0.0726367
-0.00570194
0.072385
-0.00680347
0.0722664
-0.00835981
0.0723519
-0.00988638
0.0729121
-0.0125321
0.0737619
-0.0141666
0.0761947
-0.0189534
0.0782956
-0.0193524
-0.0263612
0.0845126
0.0749792
-0.000128731
0.0749169
-0.000389078
0.0748125
-0.000657905
0.0746648
-0.000942019
0.0744724
-0.00124815
0.0742325
-0.00158504
0.0739433
-0.00196188
0.0736012
-0.00239519
0.0732059
-0.00289692
0.0727549
-0.00350478
0.0722571
-0.00422581
0.0717175
-0.00516238
0.0711815
-0.00626746
0.070684
-0.00786227
0.0703875
-0.00958994
0.0704449
-0.0125895
0.0711319
-0.0148536
0.073311
-0.0211326
0.0755506
-0.021592
-0.0364573
0.0856466
0.0749764
-0.000105082
0.074905
-0.000317745
0.0747851
-0.000538002
0.0746145
-0.000771381
0.07439
-0.00102371
0.0741068
-0.00130179
0.0737596
-0.00161465
0.07334
-0.00197567
0.0728414
-0.00239824
0.0722507
-0.00291408
0.0715637
-0.00353885
0.0707634
-0.00436212
0.069872
-0.00537606
0.0688793
-0.00686955
0.0679457
-0.00865635
0.0671392
-0.011783
0.0672712
-0.0149855
0.0684305
-0.0222919
0.0726319
-0.0257934
-0.0478467
0.0840213
0.0749741
-7.91896e-05
0.0748951
-0.000238713
0.0747622
-0.000405093
0.0745722
-0.000581367
0.0743205
-0.000772014
0.0739998
-0.000981149
0.0736022
-0.00121708
0.0731142
-0.00148767
0.0725227
-0.00180674
0.0718029
-0.00219422
0.0709354
-0.00267135
0.0698739
-0.00330066
0.0685999
-0.00410206
0.0670297
-0.0052993
0.0652177
-0.00684437
0.0630604
-0.00962573
0.0612486
-0.0131737
0.060384
-0.0214273
0.0673301
-0.0327395
0.0737156
-0.0542321
0.0756736
-0.00192007
0.0757054
-0.00189964
0.0757383
-0.00187782
0.0757714
-0.00185287
0.0758045
-0.00182515
0.0758376
-0.00179479
0.0758706
-0.00176188
0.0759035
-0.00172656
0.075936
-0.00168887
-0.00164874
0.0759667
0.0760375
-0.00196379
0.0760824
-0.00194449
0.0761266
-0.00192207
0.0761704
-0.00189663
0.0762134
-0.00186822
0.0762556
-0.00183697
0.0762967
-0.00180298
0.0763366
-0.00176646
0.0763752
-0.00172741
-0.00168672
0.0764132
0.0765283
-0.00202715
0.0765908
-0.00200697
0.0766521
-0.0019834
0.076712
-0.00195654
0.0767702
-0.00192647
0.0768266
-0.00189332
0.0768808
-0.00185722
0.0769327
-0.00181838
0.0769821
-0.00177675
-0.00173334
0.0770287
0.077056
-0.00211161
0.077139
-0.00209
0.0772203
-0.00206472
0.0772995
-0.00203575
0.0773763
-0.00200321
0.0774502
-0.00196724
0.0775209
-0.00192796
0.0775882
-0.00188566
0.0776516
-0.00184016
-0.00179311
0.0777114
0.0776005
-0.00222018
0.0777073
-0.00219678
0.0778117
-0.00216917
0.0779133
-0.00213732
0.0780115
-0.00210139
0.0781057
-0.00206152
0.0781957
-0.00201787
0.0782808
-0.00197081
0.0783606
-0.00191999
-0.00186793
0.0784355
0.0781602
-0.00235648
0.0782942
-0.00233076
0.0784252
-0.0023001
0.0785523
-0.00226448
0.078675
-0.00222407
0.0787926
-0.00217907
0.0789043
-0.00212967
0.0790099
-0.00207634
0.0791084
-0.00201849
-0.00195989
0.0792003
0.0787364
-0.00252494
0.078902
-0.00249633
0.0790637
-0.00246182
0.0792206
-0.00242139
0.0793718
-0.00237523
0.0795163
-0.00232362
0.0796534
-0.00226676
0.0797824
-0.00220533
0.0799023
-0.0021384
-0.00207139
0.0800138
0.0793307
-0.00273148
0.0795338
-0.00269938
0.079732
-0.00266008
0.0799242
-0.00261356
0.080109
-0.00256007
0.0802854
-0.00249996
0.0804521
-0.00243352
0.0806085
-0.00236169
0.0807531
-0.00228306
-0.00220529
0.080887
0.0799448
-0.00298408
0.0801932
-0.00294782
0.0804357
-0.00290259
0.0806705
-0.00284834
0.0808959
-0.00278544
0.0811103
-0.00271438
0.0813123
-0.00263554
0.0815009
-0.00255027
0.0816744
-0.00245658
-0.00236496
0.0818341
0.0805798
-0.0032937
0.0808844
-0.00325251
0.0811817
-0.00319985
0.081469
-0.00313565
0.081744
-0.00306047
0.0820047
-0.00297506
0.0822491
-0.00287996
0.082476
-0.00277711
0.0826832
-0.00266384
-0.00255415
0.0828724
0.0812368
-0.00367556
0.0816128
-0.00362857
0.0819794
-0.00356643
0.0823328
-0.00348907
0.0826698
-0.00339743
0.0829874
-0.00329271
0.0832833
-0.00317582
0.0835557
-0.00304953
0.0838023
-0.0029104
-0.00277668
0.0840248
0.0819169
-0.00415149
0.0823861
-0.00409778
0.0828428
-0.00402312
0.0832814
-0.00392764
0.083697
-0.00381309
0.0840859
-0.00368157
0.0844447
-0.00353461
0.0847714
-0.00337622
0.0850633
-0.00320228
-0.00303581
0.0853224
0.0826225
-0.00475542
0.0832177
-0.00469307
0.083795
-0.00460039
0.0843457
-0.00447832
0.0848631
-0.0043305
0.085342
-0.00416047
0.0857781
-0.00397076
0.086169
-0.00376707
0.0865118
-0.00354511
-0.00333249
0.0868085
0.0833579
-0.00554745
0.0841339
-0.005469
0.0848793
-0.0053458
0.0855816
-0.00518066
0.0862324
-0.00498127
0.086825
-0.0047531
0.0873543
-0.00450005
0.0878171
-0.00422991
0.0882118
-0.00393975
-0.0036598
0.0885391
0.0841395
-0.00662999
0.0851877
-0.00651721
0.0861773
-0.00633539
0.0870908
-0.00609415
0.0879172
-0.00580769
0.0886479
-0.00548385
0.0892774
-0.00512948
0.0898025
-0.00475501
0.0902258
-0.00436311
-0.00397836
0.0905444
0.0850895
-0.00813737
0.086525
-0.00795265
0.0878398
-0.00765022
0.0890134
-0.00726773
0.0900292
-0.00682351
0.0908748
-0.00632948
0.0915467
-0.00580132
0.0920459
-0.00525425
0.092388
-0.00470521
-0.00414702
0.0925567
0.0866417
-0.0102665
0.0884867
-0.00979766
0.0900378
-0.00920129
0.0912982
-0.00852811
0.0922598
-0.00778513
0.0929231
-0.00699279
0.0933058
-0.00618405
0.0934313
-0.00537973
0.0933389
-0.00461284
-0.00383655
0.0930285
0.088462
-0.0130818
0.090299
-0.0116347
0.0914213
-0.0103236
0.0919347
-0.00904145
0.0919175
-0.00776797
0.091464
-0.00653927
0.0906768
-0.0053969
0.0896487
-0.00435162
0.0884447
-0.00340883
-0.00247312
0.0870813
0.0849026
-0.0139631
0.0844937
-0.0112258
0.0830731
-0.00890307
0.0808983
-0.00686661
0.0782265
-0.0050962
0.0753225
-0.00363528
0.0723897
-0.00246409
0.0695656
-0.00152748
0.0669329
-0.000776136
-0.00016955
0.0646293
0.0597525
0.0485266
0.0396236
0.032757
0.0276608
0.0240255
0.0215614
0.0200339
0.0192578
0.0190882
0.0762532
-0.0138709
0.0763705
-0.00797972
0.0764678
-0.00463834
0.0766936
-0.0034702
0.0769489
-0.00109576
0.0772194
0.00244976
0.0771687
0.00959523
0.0767548
0.0136976
0.0763032
0.0119308
0.076042
0.007437
0.0763951
-0.00223923
0.0769972
-0.00531876
0.0774671
-0.00243785
0.0778915
0.00108342
0.0775554
0.0120927
0.0768352
0.0131781
0.0761548
0.00891632
0.0756496
0.00498791
0.0762988
-0.0126749
-0.0117553
0.0766683
-0.014126
0.0766596
-0.0079711
0.0766523
-0.00463095
0.0768815
-0.00369941
0.0771941
-0.00140836
0.0774261
0.00221772
0.077266
0.00975537
0.0767285
0.014235
0.0761716
0.0124877
0.075914
0.00769459
0.0764324
-0.00275765
0.0771613
-0.00604763
0.0776998
-0.00297637
0.07807
0.000713217
0.0776028
0.0125599
0.076787
0.013994
0.0759965
0.00970673
0.0754684
0.00551603
0.076309
-0.0135155
-0.012571
0.0772863
-0.0143836
0.0771327
-0.00781744
0.0769957
-0.00449405
0.077251
-0.00395468
0.0776353
-0.00179268
0.0778429
0.00201018
0.0775142
0.0100841
0.076747
0.0150021
0.0759823
0.0132525
0.0757147
0.00796223
0.0764847
-0.00352773
0.0774557
-0.0070186
0.0780987
-0.00361933
0.0784072
0.000404687
0.0777324
0.0132346
0.0767188
0.0150077
0.0757325
0.010693
0.0751655
0.006083
0.0762731
-0.0146231
-0.0135648
0.0779934
-0.0146657
0.0776934
-0.00751741
0.0774209
-0.00422162
0.0777226
-0.00425637
0.0782292
-0.00229927
0.07844
0.00179945
0.0779172
0.0106068
0.0768421
0.0160772
0.0757807
0.0143139
0.0754725
0.00827043
0.0765393
-0.00459445
0.0778323
-0.00831169
0.0786423
-0.00442926
0.0788918
0.000155117
0.0779504
0.014176
0.0766622
0.0162959
0.0754179
0.0119372
0.0747593
0.00674165
0.0761394
-0.0160033
-0.0147646
0.0787498
-0.01498
0.0782864
-0.007054
0.0778644
-0.00379958
0.0782419
-0.00463384
0.0789239
-0.00298127
0.0791761
0.00154725
0.0784552
0.0113277
0.0770158
0.0175165
0.0755824
0.0157473
0.0751923
0.00866051
0.0765749
-0.00597702
0.0782602
-0.00999698
0.0792931
-0.00546222
0.0795
-5.18084e-05
0.0782582
0.0154179
0.0766379
0.0179162
0.0750879
0.0134873
0.0742595
0.00757007
0.0758541
-0.0175979
-0.0161763
0.0795479
-0.0153276
0.0788863
-0.00639244
0.0782867
-0.00319996
0.0787733
-0.00512043
0.0796887
-0.00389669
0.0800202
0.00121576
0.0791012
0.0122467
0.0772529
0.0193649
0.0753826
0.0176176
0.0748624
0.00918071
0.0765543
-0.00766889
0.0786903
-0.0121329
0.0800033
-0.00677526
0.080194
-0.000242525
0.0786415
0.0169704
0.076654
0.0199037
0.0747663
0.0153749
0.0736687
0.00866774
0.0753594
-0.0192886
-0.0177806
0.0803925
-0.0157063
0.0794816
-0.00548157
0.0786606
-0.00237888
0.0792947
-0.00575456
0.0805125
-0.00511449
0.0809567
0.000771512
0.0798318
0.0133716
0.0775335
0.0216632
0.0751724
0.0199786
0.0744606
0.00989254
0.0764144
-0.00962268
0.0790413
-0.0147598
0.0806994
-0.0084334
0.0809142
-0.000457307
0.0790708
0.0188139
0.0767065
0.0222679
0.074467
0.0176145
0.0729823
0.0101525
0.0745983
-0.0209046
-0.0195357
0.0812931
-0.0161124
0.0800666
-0.00425501
0.078963
-0.00127527
0.0797883
-0.00657992
0.0813932
-0.00671939
0.0819812
0.000183542
0.080628
0.0147248
0.0778395
0.0244517
0.0749489
0.0228692
0.0739589
0.0108826
0.0760596
-0.0117234
0.079183
-0.0178833
0.0812629
-0.0105133
0.0815752
-0.000769593
0.0794991
0.02089
0.0767795
0.0249874
0.0741899
0.0202041
0.0721915
0.0121509
0.0735293
-0.0222424
-0.0213833
0.0822602
-0.0165385
0.0806384
-0.00263316
0.0791732
0.000189931
0.0802317
-0.00763841
0.0823239
-0.00881163
0.0830886
-0.00058113
0.0814696
0.0163438
0.0781556
0.0277657
0.0747184
0.0263065
0.0733253
0.0122757
0.0753592
-0.0137573
0.0789263
-0.0214504
0.0815219
-0.0131089
0.0820558
-0.00130352
0.0798596
0.0230863
0.0768435
0.0280035
0.0739187
0.0231289
0.0712875
0.0147822
0.0721433
-0.0230983
-0.0232559
0.0833034
-0.0169695
0.0811991
-0.000528895
0.0792741
0.00211499
0.0805846
-0.00894896
0.0832671
-0.0114941
0.0842515
-0.0015656
0.0823238
0.0182716
0.0784653
0.0316242
0.0744905
0.0302812
0.0725217
0.0142445
0.07416
-0.0153956
0.0780359
-0.0253262
0.0812536
-0.0163266
0.0822031
-0.00225302
0.0800656
0.0252238
0.0768551
0.0312139
0.0736208
0.0263632
0.0702675
0.0181354
0.0704772
-0.0233079
-0.025088
0.0844287
-0.0173734
0.0817566
0.00214322
0.079255
0.00461662
0.0807635
-0.0104575
0.0841087
-0.0148392
0.0853805
-0.00283747
0.0831265
0.0205256
0.0787428
0.0360079
0.074263
0.0347609
0.0715001
0.0170074
0.0723225
-0.016218
0.0762844
-0.0292882
0.0802256
-0.0202678
0.0818484
-0.00387585
0.0800183
0.0270539
0.0767595
0.0344727
0.0732517
0.0298711
0.069141
0.0222461
0.068616
-0.0227829
-0.0268254
0.0856394
-0.0176904
0.0823239
0.00545863
0.0791
0.00784059
0.0805897
-0.0119472
0.0845794
-0.018829
0.0862637
-0.00452175
0.0837557
0.0230336
0.0789406
0.0408231
0.0740007
0.0397008
0.0702042
0.020804
0.0697795
-0.0157933
0.0735443
-0.033053
0.0782705
-0.024994
0.0808529
-0.00645819
0.0796247
0.028282
0.0764967
0.0376007
0.0727651
0.0336027
0.0679335
0.0270777
0.0666817
-0.0215311
-0.0284322
0.0869278
-0.0178096
0.082908
0.00947843
0.0787485
0.012
0.0797114
-0.0129101
0.0841562
-0.0232738
0.0864989
-0.00686446
0.0839997
0.0255328
0.0789712
0.0458515
0.0736217
0.0450503
0.068583
0.0258427
0.0665978
-0.0138081
0.0698858
-0.036341
0.0753791
-0.0304874
0.079162
-0.0102411
0.0788233
0.0286207
0.0760132
0.0404108
0.0721238
0.0374921
0.0666869
0.0325146
0.0648099
-0.0196541
-0.0298917
0.0882472
-0.0175177
0.0834592
0.0142664
0.0780031
0.0174562
0.0775313
-0.0124384
0.0820235
-0.0277659
0.0854587
-0.0102997
0.0835391
0.0274524
0.0786911
0.0506995
0.0729998
0.0507416
0.066619
0.0322235
0.0630087
-0.0101978
0.0656233
-0.0389557
0.071758
-0.036622
0.0768519
-0.015335
0.0776088
0.0278638
0.0752746
0.0427451
0.0713106
0.041456
0.0654556
0.0383696
0.0631247
-0.0173233
-0.031202
0.0894049
-0.0163782
0.0837416
0.0199296
0.0763903
0.0248076
0.073222
-0.00927009
0.0772226
-0.0317665
0.0824089
-0.0154859
0.0819889
0.0278724
0.0779049
0.0547835
0.0719895
0.0566571
0.0643579
0.0398551
0.059378
-0.00521787
0.0612649
-0.0408425
0.0678072
-0.0431644
0.0741285
-0.0216562
0.0760401
0.0259521
0.0742748
0.0445104
0.0703333
0.0453976
0.064299
0.0444039
0.0617194
-0.0147437
-0.0323694
0.0897416
-0.0135632
0.0830873
0.0265839
0.0730459
0.0348489
0.0659788
-0.00220294
0.069126
-0.0349137
0.0768612
-0.0232212
0.0790528
0.0256808
0.0764145
0.0574219
0.0704669
0.0626047
0.0619205
0.0484015
0.0561205
0.000582094
0.0573737
-0.0420958
0.0640142
-0.0498049
0.0712737
-0.0289157
0.0742248
0.023001
0.0730373
0.0456979
0.0692233
0.0492116
0.063274
0.0503533
0.0606489
-0.0121187
-0.0334016
0.087408
-0.00794272
0.0800328
0.0339591
0.066787
0.0480947
0.0555826
0.00900151
0.0581407
-0.0374718
0.0690537
-0.0341342
0.0747538
0.0199807
0.0741085
0.0580672
0.0683759
0.0683373
0.0594834
0.057294
0.0535971
0.00646838
0.0544108
-0.0429094
0.0608095
-0.0562036
0.0685621
-0.0366683
0.0722857
0.0192774
0.0716066
0.046377
0.0680302
0.0527879
0.0624298
0.0559537
0.0599388
-0.00962774
-0.0343011
0.0785726
0.00056599
0.0721578
0.0403739
0.0566396
0.0636129
0.0430529
0.0225882
0.0460868
-0.0405057
0.0601069
-0.0481543
0.0695272
0.0105603
0.0710284
0.0565661
0.0657496
0.0736161
0.0572419
0.0658017
0.052034
0.0116763
0.0526344
-0.0435098
0.0584602
-0.0620294
0.0661883
-0.0443965
0.0703272
0.0151384
0.0700368
0.0466675
0.0668133
0.0560114
0.0618039
0.0609631
0.0595952
-0.00741911
-0.0350603
0.0591735
0.00602177
0.0576312
0.0419162
0.0431128
0.0781313
0.0310302
0.0346709
0.0355987
-0.0450742
0.0514997
-0.0640553
0.0639953
-0.00193527
0.067329
0.0532324
0.0627045
0.0782406
0.0553744
0.0731318
0.0515063
0.0155443
0.052085
-0.0440885
0.0570457
-0.0669901
0.0642371
-0.0515878
0.0684165
0.010959
0.0683811
0.0467029
0.0656254
0.0587672
0.0614187
0.0651698
0.0596047
-0.00560506
-0.035659
0.0325438
-0.00743382
0.0388124
0.0356476
0.0292031
0.0877406
0.0229462
0.0409278
0.0290044
-0.0511324
0.0443905
-0.0794415
0.0586549
-0.0161997
0.0631746
0.0487128
0.05941
0.0820052
0.053998
0.0785438
0.0519845
0.0175578
0.0526557
-0.0447598
0.0564727
-0.0708071
0.0627035
-0.0578187
0.0665952
0.00706737
0.0666879
0.0466102
0.0645006
0.0609545
0.0612753
0.0683952
0.0599584
-0.00428816
-0.0360524
0.00794802
-0.0153818
0.0109071
0.0326884
0.00901042
0.0896373
0.00862698
0.0413113
0.0112377
-0.0537431
0.0163586
-0.0845624
0.0221259
-0.021967
0.0241036
0.046735
0.0228234
0.0832854
0.0213317
0.0800356
0.0211766
0.0177129
0.0215051
-0.0450883
0.0225975
-0.0718994
0.0247382
-0.0599594
0.026205
0.00560055
0.0262088
0.0466064
0.025482
0.0616813
0.0245282
0.069349
0.0241891
-0.00394903
-0.036112
0.0055662
-0.020948
0.00843624
0.0298184
0.00779105
0.0902825
0.00873155
0.0403708
0.0113572
-0.0563687
0.015789
-0.0889943
0.0213604
-0.0275383
0.0234023
0.0446931
0.0223072
0.0843805
0.0212408
0.0811019
0.0214367
0.0175171
0.0217855
-0.0454371
0.0226637
-0.0727776
0.0245652
-0.0618609
0.0259369
0.00422885
0.0259516
0.0465916
0.0253198
0.0623131
0.0245639
0.0701049
0.0243121
-0.00369731
-0.0361357
0.00356003
-0.0245081
0.00624596
0.0271325
0.0069253
0.0896032
0.00922008
0.038076
0.0117719
-0.0589206
0.0154178
-0.0926402
0.0206318
-0.0327523
0.0226805
0.0426444
0.0218065
0.0852546
0.0211994
0.081709
0.0217365
0.01698
0.0221007
-0.0458014
0.0227674
-0.0734443
0.0244146
-0.0635081
0.0256701
0.00297335
0.025696
0.0465658
0.025172
0.0628371
0.024616
0.070661
0.02445
-0.00353137
-0.0361257
0.00197695
-0.026485
0.00440138
0.024708
0.00645868
0.0875459
0.0100334
0.0345012
0.0124458
-0.061333
0.0152313
-0.0954256
0.0199471
-0.0374681
0.0219599
0.0406315
0.021329
0.0858854
0.0211998
0.0818382
0.0220701
0.0161097
0.0224491
-0.0461803
0.0229027
-0.0738979
0.0242829
-0.0648883
0.0254111
0.00184513
0.0254466
0.0465302
0.0250348
0.063249
0.0246827
0.071013
0.0246031
-0.00345178
-0.0360828
0.000846955
-0.027332
0.00296601
0.022589
0.00640112
0.0841108
0.0111157
0.0297867
0.0133352
-0.0635524
0.0152205
-0.097311
0.0193138
-0.0415613
0.0212486
0.0386967
0.0208824
0.0862516
0.0212427
0.081478
0.0224329
0.0149194
0.0228253
-0.0465727
0.0230663
-0.074139
0.0241694
-0.0659914
0.0251606
0.000853959
0.0252051
0.0464858
0.0249088
0.0635453
0.0247634
0.0711584
0.0247704
-0.0034587
-0.0360077
0.000202428
-0.0275344
0.00199772
0.0207937
0.00674776
0.0793607
0.0124064
0.024128
0.0143952
-0.0655412
0.0153734
-0.0982892
0.0187412
-0.0449291
0.0205567
0.0368811
0.0204749
0.0863335
0.0213288
0.0806241
0.0228206
0.0134276
0.023224
-0.046976
0.0232553
-0.0741703
0.024074
-0.0668101
0.0249197
8.2894e-06
0.0249729
0.0464326
0.0247949
0.0637232
0.0248575
0.0710958
0.0249506
-0.00355183
-0.0359012
5.68951e-05
-0.0275913
0.00154741
0.0193032
0.00748006
0.0734281
0.0138465
0.0177616
0.0155821
-0.0672768
0.0156753
-0.0983823
0.0182398
-0.0474937
0.0198959
0.035225
0.0201151
0.0861143
0.021459
0.0792802
0.0232293
0.0116572
0.0236404
-0.0473871
0.0234667
-0.0739966
0.0239965
-0.0673398
0.0246895
-0.000684717
0.0247518
0.0463702
0.0246939
0.0637811
0.0249643
0.0708254
0.0251429
-0.00373042
-0.0357643
0.000408276
-0.0279996
0.00165584
0.0180556
0.00856782
0.0665161
0.0153835
0.0109459
0.0168546
-0.0687479
0.0161098
-0.0976376
0.0178206
-0.0492044
0.0192796
0.033766
0.0198124
0.0855814
0.0216342
0.0774584
0.0236558
0.00963563
0.0240702
-0.0478015
0.023698
-0.0736244
0.023937
-0.0675789
0.0244715
-0.00121919
0.0245436
0.0462981
0.0246066
0.0637182
0.0250831
0.0703489
0.0253459
-0.00399324
-0.0355984
0.00134741
-0.029347
0.00234894
0.0170541
0.00997349
0.0588915
0.0169744
0.00394501
0.0181759
-0.0699494
0.0166601
-0.0961218
0.017494
-0.0500383
0.0187223
0.0325377
0.0195766
0.0847271
0.0218558
0.0751792
0.0240974
0.007394
0.0245092
-0.0482133
0.0239463
-0.0730615
0.0238959
-0.0675285
0.0242673
-0.00159055
0.02435
0.0462154
0.0245336
0.0635346
0.0252134
0.069669
0.0255588
-0.00433866
-0.0354043
0.00290275
-0.0322497
0.00365408
0.0163028
0.0116529
0.0508927
0.0185928
-0.00299491
0.0194739
-0.0708305
0.017324
-0.0939719
0.0172838
-0.0499981
0.0182335
0.0315879
0.0194191
0.0835415
0.0221339
0.0724645
0.0245427
0.00498513
0.0249433
-0.0486139
0.0242144
-0.0723325
0.0238781
-0.0671922
0.0240782
-0.00179073
0.0241687
0.046125
0.0244807
0.0632225
0.0253563
0.0687935
0.0257728
-0.0047552
-0.0351939
0.0256236
-0.020682
-0.0371914
0.0264313
0.0154951
0.0529946
0.0243294
0.0737432
-0.0237435
0.0744965
-0.0715838
0.0635999
-0.0830753
0.0573178
-0.0437161
0.0580621
0.0308437
0.0646973
0.0769063
0.0766125
0.0605493
0.0853036
-0.00370592
0.0867571
-0.0500674
0.0832702
-0.0688457
0.0800851
-0.0640071
0.0793411
-0.00104668
0.0796903
0.0457757
0.0819542
0.0609586
0.0860176
0.0647301
0.0877717
-0.00650932
-0.0346898
0.0758669
0.00427404
-0.100823
0.066085
0.0252771
0.0797053
0.010709
0.0907805
-0.0348186
0.0880383
-0.0688416
0.0740062
-0.0690432
0.0610448
-0.0307547
0.0589975
0.032891
0.0681045
0.0677993
0.0820273
0.0466265
0.090811
-0.0124897
0.0917257
-0.0509821
0.0866588
-0.0637787
0.0808203
-0.0581686
0.0783006
0.00147304
0.0787516
0.0453247
0.0822894
0.0574208
0.0880744
0.0589451
0.0905585
-0.00899346
-0.0339695
0.103545
0.0176786
-0.11695
0.0984001
0.0304225
0.102878
0.00623067
0.103758
-0.0356981
0.0970347
-0.0621184
0.0832799
-0.0552883
0.0687504
-0.0162252
0.0656726
0.0359689
0.0757557
0.0577162
0.089263
0.0331192
0.0964733
-0.0196999
0.0962002
-0.0507091
0.090003
-0.0575815
0.082249
-0.0504146
0.0783679
0.00535419
0.0789814
0.0447112
0.0835108
0.0528915
0.0905798
0.0518761
0.093514
-0.0119277
-0.033014
0.114395
0.022098
-0.118815
0.115046
0.0297722
0.115902
0.00537459
0.111014
-0.0308104
0.102015
-0.0531194
0.0902956
-0.0435687
0.0782657
-0.0041953
0.0764082
0.0378264
0.0863585
0.0477658
0.0975103
0.0219674
0.101879
-0.0240682
0.0999175
-0.0487479
0.09304
-0.050704
0.0843039
-0.0416785
0.0796451
0.010013
0.0805985
0.0437577
0.0858534
0.0476366
0.0935999
0.0441296
0.0965666
-0.0148944
-0.0317587
0.116535
0.0226301
-0.117067
0.12009
0.0262178
0.119945
0.00551891
0.113557
-0.0244216
0.104161
-0.043724
0.0948241
-0.0342317
0.0870961
0.00353267
0.0880266
0.0368959
0.0972455
0.0385469
0.10515
0.014063
0.106328
-0.0252465
0.102625
-0.045045
0.0955503
-0.0436292
0.0867926
-0.0329207
0.0821303
0.0146753
0.0836774
0.0422107
0.0893737
0.0419403
0.0971202
0.0363831
0.0996148
-0.0173891
-0.0301031
0.115836
0.0217937
-0.114999
0.119783
0.0222705
0.119637
0.0056647
0.113797
-0.0185813
0.104993
-0.0349205
0.0975177
-0.0267559
0.09387
0.00718031
0.0975392
0.0332267
0.105706
0.0303801
0.110603
0.00916577
0.109229
-0.0238726
0.104242
-0.0400575
0.0973882
-0.0367756
0.0894526
-0.0249852
0.0856249
0.018503
0.0879861
0.0398495
0.0938203
0.0361061
0.100921
0.0292828
0.10248
-0.0189485
-0.0279635
0.114435
0.0205763
-0.113218
0.117784
0.0189213
0.117744
0.00570508
0.11303
-0.0138668
0.105286
-0.0271768
0.0992142
-0.0206841
0.098358
0.00803652
0.103602
0.0279827
0.110521
0.0234608
0.1133
0.0063867
0.110506
-0.0210785
0.104939
-0.0344899
0.0985885
-0.0304254
0.0920104
-0.0184071
0.0896759
0.0208375
0.0929263
0.0365991
0.0985763
0.0304561
0.104563
0.0232958
0.104921
-0.0193059
-0.0253334
0.112968
0.0192789
-0.11167
0.115536
0.0163526
0.115576
0.00566558
0.111894
-0.0101848
0.105382
-0.0206647
0.100461
-0.0157637
0.101052
0.00744645
0.106551
0.0224831
0.112164
0.0178479
0.113752
0.00479887
0.110549
-0.017876
0.105028
-0.0289683
0.0993224
-0.0247201
0.094259
-0.0133437
0.0936803
0.0214162
0.0976701
0.0326092
0.102845
0.0252816
0.107534
0.0186062
0.10671
-0.0184819
-0.0223149
0.11157
0.0180033
-0.110294
0.113487
0.0144353
0.113551
0.00560172
0.110665
-0.00729911
0.105373
-0.0153728
0.101454
-0.0118448
0.102562
0.00633893
0.107457
0.0175881
0.111855
0.0134498
0.112889
0.00376488
0.10987
-0.0148568
0.104799
-0.0238978
0.0998007
-0.0197217
0.0961105
-0.00965347
0.0970953
0.0204314
0.10148
0.0282242
0.105981
0.0207808
0.109468
0.0151192
0.107735
-0.0167483
-0.0190975
0.110262
0.0167957
-0.109054
0.111699
0.0129982
0.111754
0.00554646
0.109463
-0.00500812
0.105271
-0.0111805
0.102208
-0.00878223
0.103347
0.00520006
0.107319
0.0136166
0.110685
0.0100832
0.111474
0.00297631
0.108865
-0.0122475
0.104443
-0.0194762
0.100183
-0.015462
0.0975759
-0.007046
0.0996217
0.0183856
0.103988
0.0238582
0.107743
0.0170252
0.11029
0.012572
0.108036
-0.0144944
-0.0159001
0.109044
0.0156813
-0.10793
0.110139
0.0119032
0.110172
0.00551324
0.108338
-0.00317381