x,y,z,p
0,0,0,0.000158623
0,0.1,0,0.000349092
0,0.2,0,0.000539562
0,0.3,0,0.000761988
0,0.4,0,0.00101637
0,0.5,0,0.00127075
0,0.6,0,0.001526
0,0.7,0,0.00178125
0,0.8,0,0.00203709
0,0.9,0,0.00229352
0,1,0,0.00254994
0,1.1,0,0.00280771
0,1.2,0,0.00306548
0,1.3,0,0.00332392
0,1.4,0,0.00358302
0,1.5,0,0.00384213
0,1.6,0,0.00410234
0,1.7,0,0.00436255
0,1.8,0,0.00462306
0,1.9,0,0.00488388
0,2,0,0.00514469
0,2.1,0,0.00540529
0,2.2,0,0.00566589
0,2.3,0,0.00592579
0,2.4,0,0.006185
0,2.5,0,0.00644421
0,2.6,0,0.00670046
0,2.7,0,0.00695671
0,2.8,0,0.00721049
0,2.9,0,0.0074618
0,3,0,0.0077131
0,3.1,0,0.00795705
0,3.2,0,0.008201
0,3.3,0,0.00843987
0,3.4,0,0.00867366
0,3.5,0,0.00890744
0,3.6,0,0.00912792
0,3.7,0,0.00934839
0,3.8,0,0.00956051
0,3.9,0,0.00976427
0,4,0,0.00996804
0,4.1,0,0.0101515
0,4.2,0,0.010335
0,4.3,0,0.0105067
0,4.4,0,0.0106665
0,4.5,0,0.0108262
0,4.6,0,0.0109591
0,4.7,0,0.0110919
0,4.8,0,0.0112036
0,4.9,0,0.0112942
0,5,0,0.0113848
0,5.1,0,0.0114985
0,5.2,0,0.0115668
0,5.3,0,0.0116217
0,5.4,0,0.0116633
0,5.5,0,0.0116913
0,5.6,0,0.0117059
0,5.7,0,0.0117069
0,5.8,0,0.0116946
0,5.9,0,0.0116689
0,6,0,0.0116043
0,6.1,0,0.0115462
0,6.2,0,0.0114881
0,6.3,0,0.01143
0,6.4,0,0.0113422
0,6.5,0,0.0112384
0,6.6,0,0.0111346
0,6.7,0,0.0110211
0,6.8,0,0.0108846
0,6.9,0,0.0107481
0,7,0,0.0106116
0,7.1,0,0.0104502
0,7.2,0,0.0102874
0,7.3,0,0.0101247
0,7.4,0,0.0099501
0,7.5,0,0.00976761
0,7.6,0,0.00958512
0,7.7,0,0.00939922
0,7.8,0,0.00920309
0,7.9,0,0.00900696
0,8,0,0.00881083
0,8.1,0,0.00860729
0,8.2,0,0.00840293
0,8.3,0,0.00819856
0,8.4,0,0.00799213
0,8.5,0,0.00778401
0,8.6,0,0.00757589
0,8.7,0,0.00736772
0,8.8,0,0.00715935
0,8.9,0,0.00695098
0,9,0,0.00674262
0,9.1,0,0.00653625
0,9.2,0,0.00633023
0,9.3,0,0.00612421
0,9.4,0,0.00592026
0,9.5,0,0.00571837
0,9.6,0,0.00551647
0,9.7,0,0.00531536
0,9.8,0,0.00511866
0,9.9,0,0.00492197
0,10,0,0.00472527
0,10.1,0,0.00453313
0,10.2,0,0.00434213
0,10.3,0,0.00415113
0,10.4,0,0.00396272
0,10.5,0,0.00377747
0,10.6,0,0.00359222
0,10.7,0,0.00340751
0,10.8,0,0.00322771
0,10.9,0,0.00304792
0,11,0,0.00286812
0,11.1,0,0.002692
0,11.2,0,0.00251709
0,11.3,0,0.00234219
0,11.4,0,0.00216893
0,11.5,0,0.00199816
0,11.6,0,0.00182738
0,11.7,0,0.00165677
0,11.8,0,0.00148922
0,11.9,0,0.00132167
0,12,0,0.00115412
0,12.1,0,0.000988122
0,12.2,0,0.000822793
0,12.3,0,0.000657463
0,12.4,0,0.000506712
0,12.5,0,0.000383034
0,12.6,0,0.000259356
0,12.7,0,0.000135678
0.1,0,0,9.51735e-05
0.1,0.1,0,0.00028552
0.1,0.2,0,0.000507673
0.1,0.3,0,0.000761715
0.1,0.4,0,0.00101603
0.1,0.5,0,0.00127037
0.1,0.6,0,0.00152548
0.1,0.7,0,0.00178073
0.1,0.8,0,0.00203651
0.1,0.9,0,0.00229287
0.1,1,0,0.00254935
0.1,1.1,0,0.00280701
0.1,1.2,0,0.00306483
0.1,1.3,0,0.0033233
0.1,1.4,0,0.00358239
0.1,1.5,0,0.00384163
0.1,1.6,0,0.00410187
0.1,1.7,0,0.00436217
0.1,1.8,0,0.00462284
0.1,1.9,0,0.00488374
0.1,2,0,0.00514474
0.1,2.1,0,0.00540564
0.1,2.2,0,0.00566633
0.1,2.3,0,0.00592658
0.1,2.4,0,0.00618603
0.1,2.5,0,0.00644542
0.1,2.6,0,0.00670239
0.1,2.7,0,0.0069587
0.1,2.8,0,0.00721303
0.1,2.9,0,0.00746482
0.1,3,0,0.00771618
0.1,3.1,0,0.00796138
0.1,3.2,0,0.0082053
0.1,3.3,0,0.00844492
0.1,3.4,0,0.00867949
0.1,3.5,0,0.00891307
0.1,3.6,0,0.0091354
0.1,3.7,0,0.00935568
0.1,3.8,0,0.00956867
0.1,3.9,0,0.0097735
0.1,4,0,0.00997662
0.1,4.1,0,0.0101626
0.1,4.2,0,0.0103456
0.1,4.3,0,0.0105181
0.1,4.4,0,0.0106792
0.1,4.5,0,0.0108377
0.1,4.6,0,0.0109733
0.1,4.7,0,0.0111054
0.1,4.8,0,0.011224
0.1,4.9,0,0.0113222
0.1,5,0,0.011398
0.1,5.1,0,0.011512
0.1,5.2,0,0.0115804
0.1,5.3,0,0.0116354
0.1,5.4,0,0.0116771
0.1,5.5,0,0.0117052
0.1,5.6,0,0.0117197
0.1,5.7,0,0.0117206
0.1,5.8,0,0.0117082
0.1,5.9,0,0.0116824
0.1,6,0,0.0116175
0.1,6.1,0,0.0115773
0.1,6.2,0,0.0115253
0.1,6.3,0,0.0114488
0.1,6.4,0,0.0113601
0.1,6.5,0,0.0112624
0.1,6.6,0,0.0111522
0.1,6.7,0,0.0110336
0.1,6.8,0,0.0109041
0.1,6.9,0,0.0107655
0.1,7,0,0.0106204
0.1,7.1,0,0.0104635
0.1,7.2,0,0.0103028
0.1,7.3,0,0.0101337
0.1,7.4,0,0.00995855
0.1,7.5,0,0.0097787
0.1,7.6,0,0.00959323
0.1,7.7,0,0.00940407
0.1,7.8,0,0.00921008
0.1,7.9,0,0.00901332
0.1,8,0,0.00881376
0.1,8.1,0,0.00861073
0.1,8.2,0,0.00840678
0.1,8.3,0,0.00820062
0.1,8.4,0,0.00799329
0.1,8.5,0,0.00778519
0.1,8.6,0,0.0075766
0.1,8.7,0,0.00736761
0.1,8.8,0,0.00715859
0.1,8.9,0,0.00695014
0.1,9,0,0.0067418
0.1,9.1,0,0.00653449
0.1,9.2,0,0.00632793
0.1,9.3,0,0.0061225
0.1,9.4,0,0.0059182
0.1,9.5,0,0.00571514
0.1,9.6,0,0.0055138
0.1,9.7,0,0.00531343
0.1,9.8,0,0.00511522
0.1,9.9,0,0.00491843
0.1,10,0,0.00472313
0.1,10.1,0,0.00453005
0.1,10.2,0,0.00433823
0.1,10.3,0,0.00414843
0.1,10.4,0,0.0039602
0.1,10.5,0,0.00377366
0.1,10.6,0,0.00358908
0.1,10.7,0,0.00340561
0.1,10.8,0,0.00322452
0.1,10.9,0,0.00304454
0.1,11,0,0.00286619
0.1,11.1,0,0.0026896
0.1,11.2,0,0.00251404
0.1,11.3,0,0.00234009
0.1,11.4,0,0.00216726
0.1,11.5,0,0.00199567
0.1,11.6,0,0.00182532
0.1,11.7,0,0.0016557
0.1,11.8,0,0.00148755
0.1,11.9,0,0.00131986
0.1,12,0,0.00115315
0.1,12.1,0,0.000987186
0.1,12.2,0,0.000821655
0.1,12.3,0,0.000656721
0.1,12.4,0,0.000492157
0.1,12.5,0,0.000328359
0.1,12.6,0,0.000204784
0.1,12.7,0,8.14069e-05
0.2,0,0,3.17245e-05
0.2,0.1,0,0.000253755
0.2,0.2,0,0.000507469
0.2,0.3,0,0.00076151
0.2,0.4,0,0.00101572
0.2,0.5,0,0.00126999
0.2,0.6,0,0.0015251
0.2,0.7,0,0.00178022
0.2,0.8,0,0.00203599
0.2,0.9,0,0.00229234
0.2,1,0,0.00254875
0.2,1.1,0,0.00280647
0.2,1.2,0,0.00306424
0.2,1.3,0,0.0033227
0.2,1.4,0,0.0035819
0.2,1.5,0,0.00384112
0.2,1.6,0,0.00410145
0.2,1.7,0,0.00436187
0.2,1.8,0,0.00462255
0.2,1.9,0,0.0048837
0.2,2,0,0.00514478
0.2,2.1,0,0.00540578
0.2,2.2,0,0.00566688
0.2,2.3,0,0.00592712
0.2,2.4,0,0.006187
0.2,2.5,0,0.00644663
0.2,2.6,0,0.00670366
0.2,2.7,0,0.00696076
0.2,2.8,0,0.00721508
0.2,2.9,0,0.00746742
0.2,3,0,0.00771926
0.2,3.1,0,0.00796444
0.2,3.2,0,0.00820959
0.2,3.3,0,0.0084492
0.2,3.4,0,0.00868434
0.2,3.5,0,0.0089187
0.2,3.6,0,0.00914083
0.2,3.7,0,0.00936276
0.2,3.8,0,0.00957575
0.2,3.9,0,0.00978102
0.2,4,0,0.00998521
0.2,4.1,0,0.0101707
0.2,4.2,0,0.0103557
0.2,4.3,0,0.0105282
0.2,4.4,0,0.0106893
0.2,4.5,0,0.0108492
0.2,4.6,0,0.010984
0.2,4.7,0,0.011118
0.2,4.8,0,0.0112366
0.2,4.9,0,0.0113278
0.2,5,0,0.0114113
0.2,5.1,0,0.0115254
0.2,5.2,0,0.011594
0.2,5.3,0,0.0116492
0.2,5.4,0,0.0116909
0.2,5.5,0,0.011719
0.2,5.6,0,0.0117335
0.2,5.7,0,0.0117343
0.2,5.8,0,0.0117218
0.2,5.9,0,0.0116958
0.2,6,0,0.0116307
0.2,6.1,0,0.0115844
0.2,6.2,0,0.0115255
0.2,6.3,0,0.011461
0.2,6.4,0,0.0113724
0.2,6.5,0,0.0112675
0.2,6.6,0,0.0111623
0.2,6.7,0,0.011044
0.2,6.8,0,0.0109092
0.2,6.9,0,0.0107712
0.2,7,0,0.0106288
0.2,7.1,0,0.01047
0.2,7.2,0,0.0103057
0.2,7.3,0,0.01014
0.2,7.4,0,0.00996485
0.2,7.5,0,0.00978123
0.2,7.6,0,0.00959726
0.2,7.7,0,0.00940839
0.2,7.8,0,0.00921241
0.2,7.9,0,0.00901499
0.2,8,0,0.00881635
0.2,8.1,0,0.00861285
0.2,8.2,0,0.00840741
0.2,8.3,0,0.00820177
0.2,8.4,0,0.00799444
0.2,8.5,0,0.00778558
0.2,8.6,0,0.00757662
0.2,8.7,0,0.00736763
0.2,8.8,0,0.00715863
0.2,8.9,0,0.00694964
0.2,9,0,0.006741
0.2,9.1,0,0.00653381
0.2,9.2,0,0.00632737
0.2,9.3,0,0.00612113
0.2,9.4,0,0.00591683
0.2,9.5,0,0.00571449
0.2,9.6,0,0.00551234
0.2,9.7,0,0.00531172
0.2,9.8,0,0.00511418
0.2,9.9,0,0.00491737
0.2,10,0,0.00472127
0.2,10.1,0,0.00452839
0.2,10.2,0,0.00433738
0.2,10.3,0,0.00414656
0.2,10.4,0,0.00395833
0.2,10.5,0,0.00377282
0.2,10.6,0,0.00358765
0.2,10.7,0,0.00340385
0.2,10.8,0,0.00322337
0.2,10.9,0,0.00304372
0.2,11,0,0.00286461
0.2,11.1,0,0.00268812
0.2,11.2,0,0.0025134
0.2,11.3,0,0.00233876
0.2,11.4,0,0.00216593
0.2,11.5,0,0.00199508
0.2,11.6,0,0.00182453
0.2,11.7,0,0.00165467
0.2,11.8,0,0.00148684
0.2,11.9,0,0.00131952
0.2,12,0,0.00115244
0.2,12.1,0,0.000986489
0.2,12.2,0,0.000821416
0.2,12.3,0,0.00065635
0.2,12.4,0,0.000491786
0.2,12.5,0,0.000327788
0.2,12.6,0,0.000163886
0.2,12.7,0,2.71356e-05
0.3,0,0,0
0.3,0.1,0,0.000253538
0.3,0.2,0,0.000507251
0.3,0.3,0,0.000760907
0.3,0.4,0,0.00101511
0.3,0.5,0,0.00126919
0.3,0.6,0,0.00152418
0.3,0.7,0,0.00177929
0.3,0.8,0,0.00203485
0.3,0.9,0,0.0022912
0.3,1,0,0.00254749
0.3,1.1,0,0.00280524
0.3,1.2,0,0.003063
0.3,1.3,0,0.00332155
0.3,1.4,0,0.00358075
0.3,1.5,0,0.00384003
0.3,1.6,0,0.00410059
0.3,1.7,0,0.00436101
0.3,1.8,0,0.00462222
0.3,1.9,0,0.00488338
0.3,2,0,0.00514483
0.3,2.1,0,0.00540629
0.3,2.2,0,0.00566739
0.3,2.3,0,0.00592879
0.3,2.4,0,0.00618866
0.3,2.5,0,0.00644907
0.3,2.6,0,0.00670683
0.3,2.7,0,0.00696393
0.3,2.8,0,0.00722013
0.3,2.9,0,0.00747246
0.3,3,0,0.00772559
0.3,3.1,0,0.00797172
0.3,3.2,0,0.00821686
0.3,3.3,0,0.00845904
0.3,3.4,0,0.00869418
0.3,3.5,0,0.00893034
0.3,3.6,0,0.0091535
0.3,3.7,0,0.00937543
0.3,3.8,0,0.00959142
0.3,3.9,0,0.00979668
0.3,4,0,0.0100031
0.3,4.1,0,0.0101894
0.3,4.2,0,0.0103744
0.3,4.3,0,0.0105498
0.3,4.4,0,0.010711
0.3,4.5,0,0.0108731
0.3,4.6,0,0.0110082
0.3,4.7,0,0.0111422
0.3,4.8,0,0.0112628
0.3,4.9,0,0.011354
0.3,5,0,0.0114392
0.3,5.1,0,0.011554
0.3,5.2,0,0.011623
0.3,5.3,0,0.0116784
0.3,5.4,0,0.0117203
0.3,5.5,0,0.0117485
0.3,5.6,0,0.0117629
0.3,5.7,0,0.0117636
0.3,5.8,0,0.0117507
0.3,5.9,0,0.0117244
0.3,6,0,0.0116584
0.3,6.1,0,0.0116104
0.3,6.2,0,0.0115516
0.3,6.3,0,0.0114868
0.3,6.4,0,0.0113953
0.3,6.5,0,0.0112903
0.3,6.6,0,0.0111852
0.3,6.7,0,0.0110645
0.3,6.8,0,0.0109281
0.3,6.9,0,0.0107901
0.3,7,0,0.0106463
0.3,7.1,0,0.0104847
0.3,7.2,0,0.0103204
0.3,7.3,0,0.010154
0.3,7.4,0,0.00997562
0.3,7.5,0,0.00979175
0.3,7.6,0,0.00960778
0.3,7.7,0,0.00941649
0.3,7.8,0,0.00921918
0.3,7.9,0,0.00902175
0.3,8,0,0.00882186
0.3,8.1,0,0.00861643
0.3,8.2,0,0.00841099
0.3,8.3,0,0.00820493
0.3,8.4,0,0.00799569
0.3,8.5,0,0.00778659
0.3,8.6,0,0.00757763
0.3,8.7,0,0.00736734
0.3,8.8,0,0.0071577
0.3,8.9,0,0.00694871
0.3,9,0,0.00673946
0.3,9.1,0,0.00653151
0.3,9.2,0,0.00632507
0.3,9.3,0,0.00611868
0.3,9.4,0,0.00591372
0.3,9.5,0,0.00571131
0.3,9.6,0,0.00550916
0.3,9.7,0,0.00530813
0.3,9.8,0,0.00511053
0.3,9.9,0,0.00491372
0.3,10,0,0.00471746
0.3,10.1,0,0.00452459
0.3,10.2,0,0.00433358
0.3,10.3,0,0.00414274
0.3,10.4,0,0.00395457
0.3,10.5,0,0.00376913
0.3,10.6,0,0.00358396
0.3,10.7,0,0.00340022
0.3,10.8,0,0.00321999
0.3,10.9,0,0.00304034
0.3,11,0,0.00286129
0.3,11.1,0,0.00268519
0.3,11.2,0,0.00251047
0.3,11.3,0,0.00233585
0.3,11.4,0,0.0021634
0.3,11.5,0,0.0019927
0.3,11.6,0,0.00182215
0.3,11.7,0,0.00165255
0.3,11.8,0,0.00148507
0.3,11.9,0,0.00131776
0.3,12,0,0.00115083
0.3,12.1,0,0.000985394
0.3,12.2,0,0.000820322
0.3,12.3,0,0.000655265
0.3,12.4,0,0.000491216
0.3,12.5,0,0.000327398
0.3,12.6,0,0.000163496
0.3,12.7,0,0
0.4,0,0,0
0.4,0.1,0,0.000253362
0.4,0.2,0,0.000506594
0.4,0.3,0,0.00076025
0.4,0.4,0,0.00101402
0.4,0.5,0,0.00126797
0.4,0.6,0,0.00152283
0.4,0.7,0,0.00177763
0.4,0.8,0,0.00203319
0.4,0.9,0,0.00228932
0.4,1,0,0.00254557
0.4,1.1,0,0.00280329
0.4,1.2,0,0.00306106
0.4,1.3,0,0.0033196
0.4,1.4,0,0.00357899
0.4,1.5,0,0.00383837
0.4,1.6,0,0.00409906
0.4,1.7,0,0.00435998
0.4,1.8,0,0.0046212
0.4,1.9,0,0.00488313
0.4,2,0,0.00514487
0.4,2.1,0,0.0054067
0.4,2.2,0,0.00566898
0.4,2.3,0,0.00593038
0.4,2.4,0,0.00619181
0.4,2.5,0,0.00645276
0.4,2.6,0,0.00671118
0.4,2.7,0,0.00697027
0.4,2.8,0,0.00722647
0.4,2.9,0,0.00748124
0.4,3,0,0.00773518
0.4,3.1,0,0.00798227
0.4,3.2,0,0.00823024
0.4,3.3,0,0.00847242
0.4,3.4,0,0.00871081
0.4,3.5,0,0.00894799
0.4,3.6,0,0.00917238
0.4,3.7,0,0.00939772
0.4,3.8,0,0.00961371
0.4,3.9,0,0.00982269
0.4,4,0,0.0100302
0.4,4.1,0,0.0102178
0.4,4.2,0,0.0104062
0.4,4.3,0,0.0105817
0.4,4.4,0,0.0107463
0.4,4.5,0,0.0109094
0.4,4.6,0,0.0110457
0.4,4.7,0,0.0111824
0.4,4.8,0,0.011303
0.4,4.9,0,0.0114026
0.4,5,0,0.0114818
0.4,5.1,0,0.0115978
0.4,5.2,0,0.0116674
0.4,5.3,0,0.0117233
0.4,5.4,0,0.0117654
0.4,5.5,0,0.0117937
0.4,5.6,0,0.011808
0.4,5.7,0,0.0118084
0.4,5.8,0,0.011795
0.4,5.9,0,0.011768
0.4,6,0,0.0117007
0.4,6.1,0,0.0116581
0.4,6.2,0,0.011603
0.4,6.3,0,0.0115255
0.4,6.4,0,0.011434
0.4,6.5,0,0.0113319
0.4,6.6,0,0.0112184
0.4,6.7,0,0.0110974
0.4,6.8,0,0.0109637
0.4,6.9,0,0.0108199
0.4,7,0,0.0106727
0.4,7.1,0,0.0105118
0.4,7.2,0,0.0103456
0.4,7.3,0,0.0101737
0.4,7.4,0,0.00999532
0.4,7.5,0,0.00981114
0.4,7.6,0,0.00962172
0.4,7.7,0,0.00942996
0.4,7.8,0,0.00923279
0.4,7.9,0,0.00903162
0.4,8,0,0.00882986
0.4,8.1,0,0.0086243
0.4,8.2,0,0.00841674
0.4,8.3,0,0.00820841
0.4,8.4,0,0.00799917
0.4,8.5,0,0.0077888
0.4,8.6,0,0.00757779
0.4,8.7,0,0.0073673
0.4,8.8,0,0.00715691
0.4,8.9,0,0.00694634
0.4,9,0,0.00673683
0.4,9.1,0,0.0065286
0.4,9.2,0,0.00632073
0.4,9.3,0,0.0061143
0.4,9.4,0,0.00590935
0.4,9.5,0,0.00570574
0.4,9.6,0,0.00550359
0.4,9.7,0,0.00530271
0.4,9.8,0,0.00510437
0.4,9.9,0,0.0049072
0.4,10,0,0.00471156
0.4,10.1,0,0.00451852
0.4,10.2,0,0.00432675
0.4,10.3,0,0.00413684
0.4,10.4,0,0.00394867
0.4,10.5,0,0.00376243
0.4,10.6,0,0.00357805
0.4,10.7,0,0.00339465
0.4,10.8,0,0.00321399
0.4,10.9,0,0.00303452
0.4,11,0,0.00285632
0.4,11.1,0,0.00268016
0.4,11.2,0,0.00250522
0.4,11.3,0,0.00233167
0.4,11.4,0,0.00215922
0.4,11.5,0,0.00198821
0.4,11.6,0,0.00181855
0.4,11.7,0,0.00164929
0.4,11.8,0,0.00148171
0.4,11.9,0,0.00131487
0.4,12,0,0.00114858
0.4,12.1,0,0.000983148
0.4,12.2,0,0.000818369
0.4,12.3,0,0.000654101
0.4,12.4,0,0.000490052
0.4,12.5,0,0.000326419
0.4,12.6,0,0.000163296
0.4,12.7,0,0
0.5,0,0,0
0.5,0.1,0,0.000253056
0.5,0.2,0,0.000506113
0.5,0.3,0,0.000759462
0.5,0.4,0,0.0010131
0.5,0.5,0,0.00126674
0.5,0.6,0,0.00152142
0.5,0.7,0,0.0017761
0.5,0.8,0,0.00203148
0.5,0.9,0,0.00228757
0.5,1,0,0.00254365
0.5,1.1,0,0.0028014
0.5,1.2,0,0.00305914
0.5,1.3,0,0.00331775
0.5,1.4,0,0.00357723
0.5,1.5,0,0.0038367
0.5,1.6,0,0.00409776
0.5,1.7,0,0.00435882
0.5,1.8,0,0.00462046
0.5,1.9,0,0.00488269
0.5,2,0,0.00514491
0.5,2.1,0,0.00540756
0.5,2.2,0,0.00567021
0.5,2.3,0,0.00593251
0.5,2.4,0,0.00619448
0.5,2.5,0,0.00645644
0.5,2.6,0,0.0067162
0.5,2.7,0,0.00697595
0.5,2.8,0,0.00723362
0.5,2.9,0,0.00748919
0.5,3,0,0.00774476
0.5,3.1,0,0.0079937
0.5,3.2,0,0.00824264
0.5,3.3,0,0.00848682
0.5,3.4,0,0.00872623
0.5,3.5,0,0.00896565
0.5,3.6,0,0.00919222
0.5,3.7,0,0.00941879
0.5,3.8,0,0.00963711
0.5,3.9,0,0.0098472
0.5,4,0,0.0100573
0.5,4.1,0,0.010247
0.5,4.2,0,0.0104368
0.5,4.3,0,0.0106145
0.5,4.4,0,0.0107801
0.5,4.5,0,0.0109458
0.5,4.6,0,0.0110835
0.5,4.7,0,0.0112214
0.5,4.8,0,0.0113371
0.5,4.9,0,0.0114307
0.5,5,0,0.0115244
0.5,5.1,0,0.0116415
0.5,5.2,0,0.0117118
0.5,5.3,0,0.0117681
0.5,5.4,0,0.0118105
0.5,5.5,0,0.0118389
0.5,5.6,0,0.0118531
0.5,5.7,0,0.0118532
0.5,5.8,0,0.0118393
0.5,5.9,0,0.0118116
0.5,6,0,0.011743
0.5,6.1,0,0.0116815
0.5,6.2,0,0.01162
0.5,6.3,0,0.0115585
0.5,6.4,0,0.0114659
0.5,6.5,0,0.0113564
0.5,6.6,0,0.011247
0.5,6.7,0,0.0111275
0.5,6.8,0,0.0109846
0.5,6.9,0,0.0108417
0.5,7,0,0.0106988
0.5,7.1,0,0.0105308
0.5,7.2,0,0.0103616
0.5,7.3,0,0.0101923
0.5,7.4,0,0.0100114
0.5,7.5,0,0.0098228
0.5,7.6,0,0.00963418
0.5,7.7,0,0.00944234
0.5,7.8,0,0.00924084
0.5,7.9,0,0.00903934
0.5,8,0,0.00883784
0.5,8.1,0,0.00862976
0.5,8.2,0,0.00842095
0.5,8.3,0,0.00821214
0.5,8.4,0,0.0080018
0.5,8.5,0,0.0077902
0.5,8.6,0,0.00757861
0.5,8.7,0,0.00736715
0.5,8.8,0,0.00715624
0.5,8.9,0,0.00694532
0.5,9,0,0.00673441
0.5,9.1,0,0.00652619
0.5,9.2,0,0.00631845
0.5,9.3,0,0.00611071
0.5,9.4,0,0.00590537
0.5,9.5,0,0.00570245
0.5,9.6,0,0.00549952
0.5,9.7,0,0.00529746
0.5,9.8,0,0.0051003
0.5,9.9,0,0.00490314
0.5,10,0,0.00470598
0.5,10.1,0,0.00451373
0.5,10.2,0,0.00432271
0.5,10.3,0,0.00413169
0.5,10.4,0,0.00394342
0.5,10.5,0,0.0037585
0.5,10.6,0,0.00357358
0.5,10.7,0,0.00338923
0.5,10.8,0,0.00321002
0.5,10.9,0,0.00303081
0.5,11,0,0.0028516
0.5,11.1,0,0.00267621
0.5,11.2,0,0.00250208
0.5,11.3,0,0.00232795
0.5,11.4,0,0.00215552
0.5,11.5,0,0.00198565
0.5,11.6,0,0.00181578
0.5,11.7,0,0.00164608
0.5,11.8,0,0.00147952
0.5,11.9,0,0.00131297
0.5,12,0,0.00114642
0.5,12.1,0,0.000981465
0.5,12.2,0,0.000817199
0.5,12.3,0,0.000652933
0.5,12.4,0,0.000489099
0.5,12.5,0,0.000326066
0.5,12.6,0,0.000163033
0.5,12.7,0,0
0.6,0,0,0
0.6,0.1,0,0.000252402
0.6,0.2,0,0.000505193
0.6,0.3,0,0.000758
0.6,0.4,0,0.00101136
0.6,0.5,0,0.00126453
0.6,0.6,0,0.00151876
0.6,0.7,0,0.00177325
0.6,0.8,0,0.00202831
0.6,0.9,0,0.00228424
0.6,1,0,0.00254013
0.6,1.1,0,0.00279776
0.6,1.2,0,0.00305552
0.6,1.3,0,0.00331421
0.6,1.4,0,0.00357375
0.6,1.5,0,0.00383352
0.6,1.6,0,0.00409501
0.6,1.7,0,0.00435638
0.6,1.8,0,0.00461874
0.6,1.9,0,0.00488136
0.6,2,0,0.00514459
0.6,2.1,0,0.00540845
0.6,2.2,0,0.00567182
0.6,2.3,0,0.00593569
0.6,2.4,0,0.00619848
0.6,2.5,0,0.00646239
0.6,2.6,0,0.0067243
0.6,2.7,0,0.00698529
0.6,2.8,0,0.00724552
0.6,2.9,0,0.00750242
0.6,3,0,0.00776098
0.6,3.1,0,0.0080131
0.6,3.2,0,0.00826378
0.6,3.3,0,0.00851152
0.6,3.4,0,0.00875275
0.6,3.5,0,0.00899608
0.6,3.6,0,0.00922665
0.6,3.7,0,0.00945533
0.6,3.8,0,0.00967789
0.6,3.9,0,0.00989009
0.6,4,0,0.0101045
0.6,4.1,0,0.0102986
0.6,4.2,0,0.0104905
0.6,4.3,0,0.0106723
0.6,4.4,0,0.01084
0.6,4.5,0,0.0110095
0.6,4.6,0,0.011151
0.6,4.7,0,0.0112904
0.6,4.8,0,0.0114158
0.6,4.9,0,0.0115175
0.6,5,0,0.0115999
0.6,5.1,0,0.0117194
0.6,5.2,0,0.0117909
0.6,5.3,0,0.0118482
0.6,5.4,0,0.0118912
0.6,5.5,0,0.0119196
0.6,5.6,0,0.0119336
0.6,5.7,0,0.0119331
0.6,5.8,0,0.0119183
0.6,5.9,0,0.0118892
0.6,6,0,0.0118178
0.6,6.1,0,0.0117721
0.6,6.2,0,0.011716
0.6,6.3,0,0.0116338
0.6,6.4,0,0.0115368
0.6,6.5,0,0.0114305
0.6,6.6,0,0.0113131
0.6,6.7,0,0.0111857
0.6,6.8,0,0.0110451
0.6,6.9,0,0.0108991
0.6,7,0,0.0107451
0.6,7.1,0,0.0105772
0.6,7.2,0,0.0104081
0.6,7.3,0,0.01023
0.6,7.4,0,0.010045
0.6,7.5,0,0.00985579
0.6,7.6,0,0.00966278
0.6,7.7,0,0.00946495
0.6,7.8,0,0.00926182
0.6,7.9,0,0.00905886
0.6,8,0,0.00885185
0.6,8.1,0,0.0086413
0.6,8.2,0,0.00843156
0.6,8.3,0,0.00821943
0.6,8.4,0,0.00800612
0.6,8.5,0,0.00779267
0.6,8.6,0,0.00757989
0.6,8.7,0,0.0073662
0.6,8.8,0,0.00715293
0.6,8.9,0,0.00694151
0.6,9,0,0.00672963
0.6,9.1,0,0.00651938
0.6,9.2,0,0.00631055
0.6,9.3,0,0.00610281
0.6,9.4,0,0.00589647
0.6,9.5,0,0.00569186
0.6,9.6,0,0.00548927
0.6,9.7,0,0.00528754
0.6,9.8,0,0.00508864
0.6,9.9,0,0.00489131
0.6,10,0,0.00469532
0.6,10.1,0,0.00450215
0.6,10.2,0,0.00431034
0.6,10.3,0,0.00412049
0.6,10.4,0,0.0039325
0.6,10.5,0,0.00374655
0.6,10.6,0,0.00356234
0.6,10.7,0,0.00337936
0.6,10.8,0,0.0031993
0.6,10.9,0,0.00302004
0.6,11,0,0.00284248
0.6,11.1,0,0.00266708
0.6,11.2,0,0.00249262
0.6,11.3,0,0.00231967
0.6,11.4,0,0.0021481
0.6,11.5,0,0.00197798
0.6,11.6,0,0.00180868
0.6,11.7,0,0.00164038
0.6,11.8,0,0.00147385
0.6,11.9,0,0.00130735
0.6,12,0,0.0011421
0.6,12.1,0,0.000977753
0.6,12.2,0,0.000813678
0.6,12.3,0,0.000650181
0.6,12.4,0,0.000487261
0.6,12.5,0,0.000324762
0.6,12.6,0,0.00016206
0.6,12.7,0,0
0.7,0,0,0
0.7,0.1,0,0.000252136
0.7,0.2,0,0.000504007
0.7,0.3,0,0.000756814
0.7,0.4,0,0.00100943
0.7,0.5,0,0.00126232
0.7,0.6,0,0.00151637
0.7,0.7,0,0.00177023
0.7,0.8,0,0.00202529
0.7,0.9,0,0.00228087
0.7,1,0,0.00253661
0.7,1.1,0,0.00279425
0.7,1.2,0,0.0030519
0.7,1.3,0,0.00331059
0.7,1.4,0,0.0035705
0.7,1.5,0,0.00383033
0.7,1.6,0,0.00409214
0.7,1.7,0,0.00435426
0.7,1.8,0,0.00461661
0.7,1.9,0,0.00488064
0.7,2,0,0.00514428
0.7,2.1,0,0.00540886
0.7,2.2,0,0.00567417
0.7,2.3,0,0.00593803
0.7,2.4,0,0.0062036
0.7,2.5,0,0.00646834
0.7,2.6,0,0.00673149
0.7,2.7,0,0.00699586
0.7,2.8,0,0.00725609
0.7,2.9,0,0.00751732
0.7,3,0,0.00777721
0.7,3.1,0,0.00803107
0.7,3.2,0,0.00828667
0.7,3.3,0,0.00853441
0.7,3.4,0,0.00878137
0.7,3.5,0,0.00902651
0.7,3.6,0,0.00925919
0.7,3.7,0,0.00949398
0.7,3.8,0,0.00971654
0.7,3.9,0,0.00993521
0.7,4,0,0.0101518
0.7,4.1,0,0.0103479
0.7,4.2,0,0.0105463
0.7,4.3,0,0.0107281
0.7,4.4,0,0.0109017
0.7,4.5,0,0.0110733
0.7,4.6,0,0.0112164
0.7,4.7,0,0.0113612
0.7,4.8,0,0.0114866
0.7,4.9,0,0.011585
0.7,5,0,0.0116755
0.7,5.1,0,0.0117972
0.7,5.2,0,0.0118701
0.7,5.3,0,0.0119283
0.7,5.4,0,0.0119718
0.7,5.5,0,0.0120004
0.7,5.6,0,0.0120141
0.7,5.7,0,0.012013
0.7,5.8,0,0.0119972
0.7,5.9,0,0.0119668
0.7,6,0,0.0118926
0.7,6.1,0,0.01184
0.7,6.2,0,0.0117734
0.7,6.3,0,0.0117017
0.7,6.4,0,0.0116047
0.7,6.5,0,0.0114877
0.7,6.6,0,0.0113705
0.7,6.7,0,0.0112432
0.7,6.8,0,0.0110957
0.7,6.9,0,0.010944
0.7,7,0,0.0107909
0.7,7.1,0,0.0106203
0.7,7.2,0,0.0104423
0.7,7.3,0,0.010264
0.7,7.4,0,0.010079
0.7,7.5,0,0.00988267
0.7,7.6,0,0.00968587
0.7,7.7,0,0.00948798
0.7,7.8,0,0.00928166
0.7,7.9,0,0.00907302
0.7,8,0,0.00886532
0.7,8.1,0,0.00865391
0.7,8.2,0,0.00843924
0.7,8.3,0,0.00822504
0.7,8.4,0,0.00801173
0.7,8.5,0,0.00779586
0.7,8.6,0,0.00757971
0.7,8.7,0,0.00736572
0.7,8.8,0,0.00715194
0.7,8.9,0,0.00693772
0.7,9,0,0.00672471
0.7,9.1,0,0.00651446
0.7,9.2,0,0.00630449
0.7,9.3,0,0.0060949
0.7,9.4,0,0.00588857
0.7,9.5,0,0.00568421
0.7,9.6,0,0.00547998
0.7,9.7,0,0.00527788
0.7,9.8,0,0.00507954
0.7,9.9,0,0.00488181
0.7,10,0,0.00468489
0.7,10.1,0,0.00449191
0.7,10.2,0,0.00430091
0.7,10.3,0,0.00411009
0.7,10.4,0,0.0039221
0.7,10.5,0,0.00373729
0.7,10.6,0,0.00355283
0.7,10.7,0,0.00336958
0.7,10.8,0,0.00319023
0.7,10.9,0,0.00301182
0.7,11,0,0.00283377
0.7,11.1,0,0.00265849
0.7,11.2,0,0.0024854
0.7,11.3,0,0.00231235
0.7,11.4,0,0.00214077
0.7,11.5,0,0.00197172
0.7,11.6,0,0.00180306
0.7,11.7,0,0.00163468
0.7,11.8,0,0.00146864
0.7,11.9,0,0.00130342
0.7,12,0,0.00113818
0.7,12.1,0,0.000973865
0.7,12.2,0,0.000811013
0.7,12.3,0,0.000648154
0.7,12.4,0,0.000485233
0.7,12.5,0,0.000323402
0.7,12.6,0,0.000161882
0.7,12.7,0,0
0.8,0,0,0
0.8,0.1,0,0.000251362
0.8,0.2,0,0.000503233
0.8,0.3,0,0.000754655
0.8,0.4,0,0.00100727
0.8,0.5,0,0.00125952
0.8,0.6,0,0.00151304
0.8,0.7,0,0.00176691
0.8,0.8,0,0.0020211
0.8,0.9,0,0.00227669
0.8,1,0,0.00253209
0.8,1.1,0,0.00278964
0.8,1.2,0,0.00304729
0.8,1.3,0,0.00330612
0.8,1.4,0,0.00356603
0.8,1.5,0,0.0038261
0.8,1.6,0,0.00408851
0.8,1.7,0,0.00435063
0.8,1.8,0,0.00461466
0.8,1.9,0,0.00487869
0.8,2,0,0.00514339
0.8,2.1,0,0.00540956
0.8,2.2,0,0.00567487
0.8,2.3,0,0.00594249
0.8,2.4,0,0.00620807
0.8,2.5,0,0.00647497
0.8,2.6,0,0.00674092
0.8,2.7,0,0.0070053
0.8,2.8,0,0.00727177
0.8,2.9,0,0.007533
0.8,3,0,0.00779631
0.8,3.1,0,0.00805428
0.8,3.2,0,0.00830988
0.8,3.3,0,0.00856635
0.8,3.4,0,0.00881331
0.8,3.5,0,0.00906305
0.8,3.6,0,0.00930087
0.8,3.7,0,0.00953566
0.8,3.8,0,0.00976864
0.8,3.9,0,0.00998731
0.8,4,0,0.0102091
0.8,4.1,0,0.0104107
0.8,4.2,0,0.010609
0.8,4.3,0,0.0108013
0.8,4.4,0,0.0109749
0.8,4.5,0,0.0111514
0.8,4.6,0,0.0112989
0.8,4.7,0,0.0114437
0.8,4.8,0,0.0115769
0.8,4.9,0,0.0116754
0.8,5,0,0.0117682
0.8,5.1,0,0.0118929
0.8,5.2,0,0.0119674
0.8,5.3,0,0.0120267
0.8,5.4,0,0.0120709
0.8,5.5,0,0.0120997
0.8,5.6,0,0.0121131
0.8,5.7,0,0.0121113
0.8,5.8,0,0.0120942
0.8,5.9,0,0.0120621
0.8,6,0,0.0119844
0.8,6.1,0,0.0119288
0.8,6.2,0,0.0118621
0.8,6.3,0,0.0117878
0.8,6.4,0,0.0116819
0.8,6.5,0,0.0115648
0.8,6.6,0,0.0114475
0.8,6.7,0,0.0113102
0.8,6.8,0,0.0111587
0.8,6.9,0,0.0110071
0.8,7,0,0.0108471
0.8,7.1,0,0.0106686
0.8,7.2,0,0.0104905
0.8,7.3,0,0.0103094
0.8,7.4,0,0.0101138
0.8,7.5,0,0.00991677
0.8,7.6,0,0.00971997
0.8,7.7,0,0.00951321
0.8,7.8,0,0.00930309
0.8,7.9,0,0.00909445
0.8,8,0,0.00888196
0.8,8.1,0,0.00866469
0.8,8.2,0,0.00845002
0.8,8.3,0,0.00823433
0.8,8.4,0,0.00801476
0.8,8.5,0,0.00779818
0.8,8.6,0,0.00758204
0.8,8.7,0,0.00736374
0.8,8.8,0,0.00714795
0.8,8.9,0,0.00693372
0.8,9,0,0.00671882
0.8,9.1,0,0.00650606
0.8,9.2,0,0.00629609
0.8,9.3,0,0.0060861
0.8,9.4,0,0.00587769
0.8,9.5,0,0.00567304
0.8,9.6,0,0.0054688
0.8,9.7,0,0.00526571
0.8,9.8,0,0.00506694
0.8,9.9,0,0.00486921
0.8,10,0,0.00467208
0.8,10.1,0,0.00447895
0.8,10.2,0,0.00428795
0.8,10.3,0,0.00409715
0.8,10.4,0,0.0039095
0.8,10.5,0,0.00372479
0.8,10.6,0,0.00354033
0.8,10.7,0,0.00335765
0.8,10.8,0,0.00317882
0.8,10.9,0,0.00300041
0.8,11,0,0.00282281
0.8,11.1,0,0.00264862
0.8,11.2,0,0.00247553
0.8,11.3,0,0.00230257
0.8,11.4,0,0.00213238
0.8,11.5,0,0.00196371
0.8,11.6,0,0.00179505
0.8,11.7,0,0.00162778
0.8,11.8,0,0.00146274
0.8,11.9,0,0.00129751
0.8,12,0,0.00113289
0.8,12.1,0,0.000970212
0.8,12.2,0,0.000807359
0.8,12.3,0,0.000644536
0.8,12.4,0,0.000483383
0.8,12.5,0,0.00032212
0.8,12.6,0,0.0001606
0.8,12.7,0,0
0.9,0,0,0
0.9,0.1,0,0.000250853
0.9,0.2,0,0.00050143
0.9,0.3,0,0.000752853
0.9,0.4,0,0.00100425
0.9,0.5,0,0.00125614
0.9,0.6,0,0.00150931
0.9,0.7,0,0.00176225
0.9,0.8,0,0.00201644
0.9,0.9,0,0.00227136
0.9,1,0,0.00252659
0.9,1.1,0,0.00278403
0.9,1.2,0,0.00304153
0.9,1.3,0,0.00330036
0.9,1.4,0,0.00356058
0.9,1.5,0,0.00382081
0.9,1.6,0,0.00408352
0.9,1.7,0,0.00434673
0.9,1.8,0,0.00461075
0.9,1.9,0,0.00487657
0.9,2,0,0.00514193
0.9,2.1,0,0.00540897
0.9,2.2,0,0.0056771
0.9,2.3,0,0.00594472
0.9,2.4,0,0.00621403
0.9,2.5,0,0.00648226
0.9,2.6,0,0.0067498
0.9,2.7,0,0.00701916
0.9,2.8,0,0.00728563
0.9,2.9,0,0.00755289
0.9,3,0,0.00781829
0.9,3.1,0,0.00807863
0.9,3.2,0,0.00834151
0.9,3.3,0,0.00859797
0.9,3.4,0,0.00885317
0.9,3.5,0,0.0091057
0.9,3.6,0,0.00934654
0.9,3.7,0,0.00959042
0.9,3.8,0,0.0098234
0.9,3.9,0,0.0100517
0.9,4,0,0.0102766
0.9,4.1,0,0.0104815
0.9,4.2,0,0.0106893
0.9,4.3,0,0.0108815
0.9,4.4,0,0.0110643
0.9,4.5,0,0.0112437
0.9,4.6,0,0.0113941
0.9,4.7,0,0.0115465
0.9,4.8,0,0.0116798
0.9,4.9,0,0.011791
0.9,5,0,0.0118782
0.9,5.1,0,0.0120064
0.9,5.2,0,0.0120828
0.9,5.3,0,0.0121435
0.9,5.4,0,0.0121885
0.9,5.5,0,0.0122175
0.9,5.6,0,0.0122306
0.9,5.7,0,0.0122279
0.9,5.8,0,0.0122093
0.9,5.9,0,0.0121752
0.9,6,0,0.0120933
0.9,6.1,0,0.012043
0.9,6.2,0,0.0119769
0.9,6.3,0,0.0118863
0.9,6.4,0,0.0117804
0.9,6.5,0,0.0116618
0.9,6.6,0,0.0115309
0.9,6.7,0,0.0113931
0.9,6.8,0,0.0112418
0.9,6.9,0,0.0110776
0.9,7,0,0.0109125
0.9,7.1,0,0.0107336
0.9,7.2,0,0.010547
0.9,7.3,0,0.0103574
0.9,7.4,0,0.0101618
0.9,7.5,0,0.00995975
0.9,7.6,0,0.00975266
0.9,7.7,0,0.00954517
0.9,7.8,0,0.00933299
0.9,7.9,0,0.00911549
0.9,8,0,0.00890009
0.9,8.1,0,0.00868196
0.9,8.2,0,0.00846093
0.9,8.3,0,0.00824122
0.9,8.4,0,0.00802165
0.9,8.5,0,0.00780127
0.9,8.6,0,0.00758066
0.9,8.7,0,0.007362
0.9,8.8,0,0.00714443
0.9,8.9,0,0.00692638
0.9,9,0,0.00671086
0.9,9.1,0,0.00649757
0.9,9.2,0,0.00628461
0.9,9.3,0,0.00607403
0.9,9.4,0,0.00586562
0.9,9.5,0,0.00565903
0.9,9.6,0,0.00545424
0.9,9.7,0,0.00525128
0.9,9.8,0,0.00505154
0.9,9.9,0,0.00485313
0.9,10,0,0.00465669
0.9,10.1,0,0.00446336
0.9,10.2,0,0.00427157
0.9,10.3,0,0.00408191
0.9,10.4,0,0.00389426
0.9,10.5,0,0.00370887
0.9,10.6,0,0.00352564
0.9,10.7,0,0.00334339
0.9,10.8,0,0.00316424
0.9,10.9,0,0.00298663
0.9,11,0,0.00281014
0.9,11.1,0,0.00263593
0.9,11.2,0,0.00246324
0.9,11.3,0,0.00229195
0.9,11.4,0,0.00212176
0.9,11.5,0,0.00195318
0.9,11.6,0,0.0017863
0.9,11.7,0,0.00161953
0.9,11.8,0,0.0014546
0.9,11.9,0,0.00129082
0.9,12,0,0.00112723
0.9,12.1,0,0.000964568
0.9,12.2,0,0.000802826
0.9,12.3,0,0.000641618
0.9,12.4,0,0.000480465
0.9,12.5,0,0.000319762
0.9,12.6,0,0.000160146
0.9,12.7,0,0
1,0,0,0
1,0.1,0,0.000250068
1,0.2,0,0.000500137
1,0.3,0,0.000750688
1,0.4,0,0.00100172
1,0.5,0,0.00125275
1,0.6,0,0.00150535
1,0.7,0,0.00175794
1,0.8,0,0.0020116
1,0.9,0,0.00226635
1,1,0,0.00252109
1,1.1,0,0.00277848
1,1.2,0,0.00303587
1,1.3,0,0.00329476
1,1.4,0,0.00355514
1,1.5,0,0.00381552
1,1.6,0,0.00407902
1,1.7,0,0.00434252
1,1.8,0,0.00460751
1,1.9,0,0.00487399
1,2,0,0.00514048
1,2.1,0,0.00540947
1,2.2,0,0.00567846
1,2.3,0,0.00594828
1,2.4,0,0.00621892
1,2.5,0,0.00648956
1,2.6,0,0.0067605
1,2.7,0,0.00703144
1,2.8,0,0.00730158
1,2.9,0,0.00757093
1,3,0,0.00784027
1,3.1,0,0.00810552
1,3.2,0,0.00837077
1,3.3,0,0.00863238
1,3.4,0,0.00889037
1,3.5,0,0.00914835
1,3.6,0,0.00939525
1,3.7,0,0.00964216
1,3.8,0,0.00988132
1,3.9,0,0.0101127
1,4,0,0.0103442
1,4.1,0,0.0105552
1,4.2,0,0.0107663
1,4.3,0,0.0109647
1,4.4,0,0.0111504
1,4.5,0,0.011336
1,4.6,0,0.0114913
1,4.7,0,0.0116465
1,4.8,0,0.011777
1,4.9,0,0.0118826
1,5,0,0.0119882
1,5.1,0,0.0121199
1,5.2,0,0.0121982
1,5.3,0,0.0122603
1,5.4,0,0.0123061
1,5.5,0,0.0123354
1,5.6,0,0.0123482
1,5.7,0,0.0123444
1,5.8,0,0.0123244
1,5.9,0,0.0122882
1,6,0,0.0122021
1,6.1,0,0.0121278
1,6.2,0,0.0120535
1,6.3,0,0.0119791
1,6.4,0,0.0118693
1,6.5,0,0.0117404
1,6.6,0,0.0116115
1,6.7,0,0.0114719
1,6.8,0,0.0113073
1,6.9,0,0.0111426
1,7,0,0.010978
1,7.1,0,0.0107882
1,7.2,0,0.0105971
1,7.3,0,0.010406
1,7.4,0,0.0102043
1,7.5,0,0.00999555
1,7.6,0,0.00978677
1,7.7,0,0.00957544
1,7.8,0,0.00935649
1,7.9,0,0.00913753
1,8,0,0.00891857
1,8.1,0,0.00869592
1,8.2,0,0.00847286
1,8.3,0,0.0082498
1,8.4,0,0.008027
1,8.5,0,0.00780441
1,8.6,0,0.00758183
1,8.7,0,0.00735999
1,8.8,0,0.00714112
1,8.9,0,0.00692226
1,9,0,0.00670339
1,9.1,0,0.00648949
1,9.2,0,0.00627645
1,9.3,0,0.00606342
1,9.4,0,0.0058539
1,9.5,0,0.0056479
1,9.6,0,0.0054419
1,9.7,0,0.00523704
1,9.8,0,0.0050386
1,9.9,0,0.00484015
1,10,0,0.00464171
1,10.1,0,0.00444931
1,10.2,0,0.00425841
1,10.3,0,0.00406752
1,10.4,0,0.00387985
1,10.5,0,0.00369613
1,10.6,0,0.0035124
1,10.7,0,0.00332932
1,10.8,0,0.0031521
1,10.9,0,0.00297488
1,11,0,0.00279766
1,11.1,0,0.00262468
1,11.2,0,0.00245312
1,11.3,0,0.00228155
1,11.4,0,0.00211186
1,11.5,0,0.00194496
1,11.6,0,0.00177807
1,11.7,0,0.00161136
1,11.8,0,0.00144807
1,11.9,0,0.00128478
1,12,0,0.00112148
1,12.1,0,0.000959931
1,12.2,0,0.000799126
1,12.3,0,0.000638321
1,12.4,0,0.000478028
1,12.5,0,0.000318685
1,12.6,0,0.000159343
1,12.7,0,0
1.1,0,0,0
1.1,0.1,0,0.000248604
1.1,0.2,0,0.000498129
1.1,0.3,0,0.000747524
1.1,0.4,0,0.000997944
1.1,0.5,0,0.00124793
1.1,0.6,0,0.00149951
1.1,0.7,0,0.00175167
1.1,0.8,0,0.00200453
1.1,0.9,0,0.0022589
1.1,1,0,0.00251305
1.1,1.1,0,0.00277006
1.1,1.2,0,0.00302734
1.1,1.3,0,0.00328616
1.1,1.4,0,0.00354658
1.1,1.5,0,0.00380723
1.1,1.6,0,0.0040714
1.1,1.7,0,0.00433532
1.1,1.8,0,0.00460142
1.1,1.9,0,0.00486858
1.1,2,0,0.00513661
1.1,2.1,0,0.00540778
1.1,2.2,0,0.00567796
1.1,2.3,0,0.00595051
1.1,2.4,0,0.0062227
1.1,2.5,0,0.00649661
1.1,2.6,0,0.0067717
1.1,2.7,0,0.00704477
1.1,2.8,0,0.00731967
1.1,2.9,0,0.00759165
1.1,3,0,0.00786629
1.1,3.1,0,0.00813793
1.1,3.2,0,0.00840633
1.1,3.3,0,0.00867484
1.1,3.4,0,0.00893657
1.1,3.5,0,0.00920178
1.1,3.6,0,0.00945712
1.1,3.7,0,0.00970799
1.1,3.8,0,0.00995566
1.1,3.9,0,0.0101916
1.1,4,0,0.0104314
1.1,4.1,0,0.0106519
1.1,4.2,0,0.0108671
1.1,4.3,0,0.0110741
1.1,4.4,0,0.0112644
1.1,4.5,0,0.0114576
1.1,4.6,0,0.0116213
1.1,4.7,0,0.0117797
1.1,4.8,0,0.0119241
1.1,4.9,0,0.0120406
1.1,5,0,0.0121347
1.1,5.1,0,0.0122711
1.1,5.2,0,0.0123522
1.1,5.3,0,0.0124163
1.1,5.4,0,0.0124632
1.1,5.5,0,0.0124929
1.1,5.6,0,0.0125052
1.1,5.7,0,0.0125002
1.1,5.8,0,0.0124781
1.1,5.9,0,0.012439
1.1,6,0,0.012347
1.1,6.1,0,0.0122904
1.1,6.2,0,0.0122221
1.1,6.3,0,0.0121196
1.1,6.4,0,0.012001
1.1,6.5,0,0.0118733
1.1,6.6,0,0.0117329
1.1,6.7,0,0.0115801
1.1,6.8,0,0.0114138
1.1,6.9,0,0.0112444
1.1,7,0,0.0110634
1.1,7.1,0,0.0108691
1.1,7.2,0,0.0106765
1.1,7.3,0,0.0104725