/*--------------------------------*- C++ -*----------------------------------*\
| =========                 |                                                 |
| \\      /  F ield         | OpenFOAM: The Open Source CFD Toolbox           |
|  \\    /   O peration     | Version:  v1806                                 |
|   \\  /    A nd           | Web:      www.OpenFOAM.com                      |
|    \\/     M anipulation  |                                                 |
\*---------------------------------------------------------------------------*/
FoamFile
{
    version     2.0;
    format      ascii;
    class       surfaceScalarField;
    location    "250";
    object      phi;
}
// * * * * * * * * * * * * * * * * * * * * * * * * * * * * * * * * * * * * * //

dimensions      [0 3 -1 0 0 0 0];
oriented        oriented;


internalField   nonuniform List<scalar> 
8600
(
0.0516087
-0.0711303
-0.0488961
0.0684178
0.0422524
-0.0806348
0.0899911
0.0317229
-0.0847019
0.0952314
0.0245956
-0.0879154
0.0950427
0.0201674
-0.0898188
0.094247
0.0172554
-0.0907382
0.0936501
0.0152241
-0.0910824
0.0931137
0.0137244
-0.0910887
0.0925884
0.0125589
-0.090899
0.0920646
0.0116181
-0.0905954
0.0915361
0.0108413
-0.090222
0.0909988
0.0101925
-0.089804
0.0904528
0.00964856
-0.0893574
0.0899014
0.00919371
-0.0888928
0.0893477
0.00881666
-0.0884175
0.0887945
0.00850912
-0.087936
0.0882435
0.00826489
-0.0874514
0.0876956
0.00807888
-0.0869668
0.0871528
0.00794616
-0.0864943
0.086627
-0.0860989
0.0861859
0.0282747
-0.0657343
-0.0336707
0.023283
-0.0756431
0.0208001
-0.082219
0.0190517
-0.086167
0.0174159
-0.088183
0.0158644
-0.0891867
0.0144579
-0.0896758
0.0132358
-0.0898666
0.0121977
-0.0898608
0.0113215
-0.0897192
0.0105825
-0.0894829
0.00995888
-0.0891804
0.00943363
-0.0888322
0.00899349
-0.0884527
0.00862841
-0.0880524
0.00833082
-0.0876384
0.00809498
-0.0872155
0.0079166
-0.0867884
0.0077915
-0.0863692
-0.0860145
0.025049
-0.0675486
-0.0232347
0.0246237
-0.0752178
0.0225112
-0.0801065
0.0198033
-0.0834591
0.0173678
-0.0857475
0.0154293
-0.0872483
0.0139183
-0.0881647
0.0127168
-0.0886652
0.011736
-0.08888
0.0109188
-0.088902
0.0102296
-0.0887936
0.00964532
-0.0885962
0.00915056
-0.0883374
0.0087341
-0.0880362
0.0083876
-0.0877059
0.00810475
-0.0873555
0.00788081
-0.0869916
0.00771213
-0.0866197
0.00759455
-0.0862516
-0.0859378
0.0174104
-0.0695909
-0.0153682
0.0172295
-0.0750369
0.0164655
-0.0793425
0.0155994
-0.0825931
0.0146944
-0.0848425
0.0137479
-0.0863017
0.0128067
-0.0872235
0.0119212
-0.0877797
0.0111205
-0.0880794
0.0104135
-0.088195
0.0097974
-0.0881775
0.00926516
-0.088064
0.00880911
-0.0878813
0.00842229
-0.0876494
0.00809889
-0.0873825
0.00783422
-0.0870909
0.0076246
-0.086782
0.00746709
-0.0864622
0.00735826
-0.0861428
-0.0858686
0.014146
-0.0723449
-0.0113921
0.0152618
-0.0761526
0.015333
-0.0794136
0.0147263
-0.0819864
0.0138141
-0.0839304
0.0128583
-0.0853459
0.0119686
-0.0863338
0.0111726
-0.0869837
0.0104684
-0.0873751
0.00984752
-0.0875742
0.00930229
-0.0876323
0.00882627
-0.0875879
0.00841425
-0.0874693
0.00806183
-0.087297
0.00776535
-0.087086
0.00752173
-0.0868472
0.0073285
-0.0865888
0.00718358
-0.0863173
0.00708426
-0.0860435
-0.0858067
0.0107863
-0.0745859
-0.00854523
0.0118595
-0.0772258
0.0121896
-0.0797438
0.0121041
-0.0819009
0.0117897
-0.0836159
0.0113389
-0.0848951
0.0108132
-0.0858081
0.0102625
-0.0864331
0.00972298
-0.0868356
0.00921632
-0.0870675
0.00875363
-0.0871696
0.0083395
-0.0871738
0.00797502
-0.0871048
0.00765966
-0.0869816
0.00739223
-0.0868186
0.00717136
-0.0866264
0.00699576
-0.0864132
0.00686421
-0.0861857
0.00677473
-0.085954
-0.0857521
0.00871819
-0.0766375
-0.00666661
0.010003
-0.0785106
0.0106434
-0.0803842
0.0107988
-0.0820563
0.0106333
-0.0834504
0.0102918
-0.0845536
0.00987032
-0.0853867
0.00942398
-0.0859867
0.00898242
-0.086394
0.00856183
-0.0866469
0.0081713
-0.0867791
0.00781605
-0.0868186
0.00749897
-0.0867878
0.00722147
-0.0867041
0.0069841
-0.0865812
0.00678688
-0.0864292
0.00662961
-0.0862559
0.00651184
-0.086068
0.00643228
-0.0858744
-0.0857045
0.00700541
-0.0782969
-0.00534598
0.00812964
-0.0796348
0.00878843
-0.081043
0.00909459
-0.0823625
0.00915045
-0.0835063
0.00903652
-0.0844396
0.00881274
-0.0851629
0.008524
-0.085698
0.00820424
-0.0860743
0.00787777
-0.0863204
0.00756092
-0.0864622
0.00726408
-0.0865217
0.0069937
-0.0865174
0.00675364
-0.0864641
0.00654617
-0.0863737
0.00637261
-0.0862556
0.00623367
-0.086117
0.00612964
-0.0859639
0.00605978
-0.0858046
-0.0856635
0.00575299
-0.0797348
-0.00431512
0.00681977
-0.0807016
0.00752196
-0.0817452
0.00791225
-0.0827528
0.0080596
-0.0836536
0.00803403
-0.0844141
0.00789623
-0.0850251
0.00769114
-0.0854929
0.0074499
-0.085833
0.00719405
-0.0860646
0.00693848
-0.0862067
0.00669355
-0.0862768
0.00646637
-0.0862902
0.0062618
-0.0862595
0.00608313
-0.0861951
0.00593255
-0.086105
0.00581149
-0.0859959
0.0057208
-0.0858732
0.00566026
-0.085744
-0.0856287
0.0047485
-0.0809142
-0.00356911
0.00566374
-0.0816169
0.00631196
-0.0823934
0.00672338
-0.0831642
0.0069416
-0.0838718
0.00701087
-0.0844833
0.0069711
-0.0849853
0.0068564
-0.0853782
0.00669418
-0.0856708
0.00650572
-0.0858761
0.00630706
-0.086008
0.00610991
-0.0860796
0.00592262
-0.0861029
0.00575111
-0.086088
0.0055995
-0.0860434
0.00547067
-0.0859762
0.0053666
-0.0858918
0.00528857
-0.0857952
0.00523677
-0.0856922
-0.0855994
0.00394073
-0.0819214
-0.00293349
0.00475384
-0.08243
0.00536021
-0.0829998
0.00577245
-0.0835764
0.00601761
-0.084117
0.0061287
-0.0845944
0.0061388
-0.0849954
0.00607718
-0.0853166
0.00596789
-0.0855615
0.00582962
-0.0857379
0.00567673
-0.0858551
0.00552009
-0.085923
0.00536787
-0.0859507
0.00522613
-0.0859463
0.00509929
-0.0859166
0.00499058
-0.0858675
0.00490232
-0.0858036
0.00483607
-0.085729
0.00479233
-0.0856485
-0.0855752
0.00327956
-0.0827533
-0.00244765
0.00396946
-0.0831199
0.00450513
-0.0835354
0.00489124
-0.0839625
0.0051439
-0.0843696
0.00528469
-0.0847352
0.00533646
-0.0850472
0.00532091
-0.085301
0.0052574
-0.085498
0.00516228
-0.0856427
0.00504877
-0.0857416
0.00492727
-0.0858015
0.00480583
-0.0858293
0.00469055
-0.085831
0.00458599
-0.0858121
0.00449557
-0.085777
0.00442175
-0.0857297
0.00436626
-0.0856735
0.00432983
-0.0856121
-0.0855555
0.00271592
-0.083454
-0.00201527
0.00330862
-0.0837126
0.00378138
-0.0840082
0.00413462
-0.0843158
0.00437792
-0.084613
0.00452636
-0.0848837
0.00459733
-0.0851181
0.00460822
-0.0853119
0.00457491
-0.0854647
0.0045111
-0.0855789
0.00442818
-0.0856587
0.00433536
-0.0857087
0.00423991
-0.0857338
0.00414754
-0.0857386
0.00406264
-0.0857272
0.00398852
-0.0857029
0.00392769
-0.0856689
0.00388189
-0.0856277
0.00385199
-0.0855822
-0.0855396
0.00223686
-0.0840274
-0.00166346
0.00272999
-0.0842057
0.0031327
-0.0844109
0.00344319
-0.0846263
0.00366666
-0.0848364
0.00381295
-0.08503
0.00389423
-0.0851994
0.00392333
-0.085341
0.00391262
-0.085454
0.00387327
-0.0855396
0.00381495
-0.0856004
0.00374574
-0.0856395
0.00367218
-0.0856602
0.00359947
-0.0856659
0.00353168
-0.0856594
0.00347195
-0.0856432
0.00342264
-0.0856196
0.00338546
-0.0855905
0.00336132
-0.085558
-0.0855272
0.00181086
-0.0844965
-0.00134177
0.00221865
-0.0846135
0.00255667
-0.0847489
0.0028226
-0.0848922
0.00301936
-0.0850332
0.00315359
-0.0851642
0.00323417
-0.08528
0.00327087
-0.0853777
0.0032734
-0.0854565
0.00325069
-0.0855169
0.00321066
-0.0855603
0.00316004
-0.0855888
0.00310439
-0.0856046
0.00304824
-0.0856098
0.00299517
-0.0856063
0.00294797
-0.085596
0.0029088
-0.0855804
0.00287922
-0.0855609
0.00286012
-0.0855389
-0.0855177
0.00143286
-0.0848657
-0.00106361
0.00175708
-0.0849377
0.00202962
-0.0850215
0.00224785
-0.0851104
0.00241307
-0.0851984
0.00252956
-0.0852807
0.00260345
-0.0853539
0.00264182
-0.0854161
0.00265192
-0.0854666
0.00264067
-0.0855056
0.00261434
-0.085534
0.00257837
-0.0855529
0.00253738
-0.0855636
0.00249513
-0.0855675
0.00245466
-0.0855658
0.00241836
-0.0855597
0.00238808
-0.0855501
0.00236518
-0.085538
0.00235047
-0.0855242
-0.0855106
0.00108389
-0.085147
-0.000802566
0.00133244
-0.0851862
0.00154299
-0.085232
0.00171339
-0.0852808
0.00184429
-0.0853293
0.00193848
-0.0853749
0.00200023
-0.0854156
0.00203461
-0.0854505
0.00204693
-0.0854789
0.00204234
-0.085501
0.0020256
-0.0855172
0.00200086
-0.0855281
0.0019717
-0.0855344
0.00194107
-0.0855369
0.0019114
-0.0855361
0.00188459
-0.0855329
0.00186212
-0.0855277
0.00184511
-0.085521
0.00183424
-0.0855133
-0.0855056
0.000760285
-0.0853436
-0.00056371
0.000935148
-0.0853611
0.00108424
-0.0853811
0.00120595
-0.0854025
0.00130048
-0.0854238
0.00136953
-0.0854439
0.00141586
-0.085462
0.0014428
-0.0854774
0.00145394
-0.0854901
0.00145284
-0.0854999
0.0014428
-0.0855072
0.00142678
-0.0855121
0.00140733
-0.085515
0.00138659
-0.0855161
0.0013663
-0.0855159
0.00134786
-0.0855145
0.00133236
-0.0855122
0.00132059
-0.0855093
0.00131312
-0.0855059
-0.0855024
0.000450954
-0.085462
-0.000332622
0.000555506
-0.0854657
0.000644808
-0.0854704
0.000717965
-0.0854757
0.000775089
-0.085481
0.000817117
-0.085486
0.00084561
-0.0854904
0.000862506
-0.0854943
0.000869908
-0.0854975
0.000869907
-0.0854999
0.000864465
-0.0855018
0.000855345
-0.085503
0.000844078
-0.0855037
0.000831954
-0.085504
0.000820041
-0.0855039
0.000809188
-0.0855036
0.000800048
-0.085503
0.000793104
-0.0855023
0.00078869
-0.0855015
-0.0855005
0.000150644
-0.000112599
0.00018498
0.000214547
0.000238872
0.000257916
0.000271962
0.000281515
0.00028721
0.00028974
0.000289796
0.000288032
0.000285034
0.000281315
0.000277304
0.000273356
0.000269755
0.000266719
0.000264412
0.000262956
-0.0384768
-0.00703702
0.0455138
-0.0323597
-0.00611709
-0.0268991
-0.00546059
-0.0219432
-0.00495591
-0.0173836
-0.00455956
-0.0131334
-0.00425017
-0.00911875
-0.00401469
-0.00527516
-0.00384359
-0.00154477
-0.00373039
0.00212615
-0.00367093
0.00578918
-0.00366302
0.00949547
-0.0037063
0.0132977
-0.00380219
0.0172518
-0.00395418
0.0214202
-0.00416831
0.0258743
-0.00445414
0.0307004
-0.00482614
0.0360107
-0.00531028
0.0419707
-0.00596001
-0.00692541
-0.0239861
-0.00910004
0.0260492
-0.0214662
-0.00863702
-0.0186995
-0.00822734
-0.0157779
-0.00787748
-0.0127516
-0.00758584
-0.00965255
-0.00734924
-0.00650272
-0.00716452
-0.00331733
-0.00702898
-0.000107172
-0.00694054
0.00311971
-0.0068978
0.00635677
-0.00690009
0.00959787
-0.0069474
0.0128362
-0.00704048
0.0160629
-0.00718093
0.019266
-0.00737136
0.0224276
-0.00761575
0.0255215
-0.00792004
0.0285043
-0.00829315
0.031295
-0.00875069
-0.00930112
-0.0152823
-0.0103562
0.0165385
-0.0137859
-0.0101334
-0.012084
-0.00992925
-0.0102149
-0.00974661
-0.00821301
-0.00958773
-0.00610782
-0.00945443
-0.00392414
-0.0093482
-0.00168297
-0.00927015
0.000597593
-0.00922111
0.00290145
-0.00920166
0.00521361
-0.00921225
0.00751937
-0.00925316
0.00980346
-0.00932458
0.0120491
-0.00942661
0.0142371
-0.00955927
0.0163438
-0.00972249
0.01834
-0.00991623
0.0201877
-0.0101409
0.0218354
-0.0103984
-0.0107004
-0.00913468
-0.0113472
0.0101258
-0.00805717
-0.0112109
-0.00690078
-0.0110856
-0.00567371
-0.0109737
-0.0043847
-0.0108767
-0.00304294
-0.0107962
-0.00165815
-0.010733
-0.000240402
-0.0106879
0.00119996
-0.0106615
0.00265237
-0.0106541
0.0041061
-0.010666
0.00555027
-0.0106973
0.00697385
-0.0107482
0.00836565
-0.0108184
0.00971428
-0.0109079
0.0110082
-0.0110164
0.0122355
-0.0111436
0.0133837
-0.0112891
0.0144383
-0.011453
-0.0116303
-0.00640643
-0.0120853
0.00714454
-0.00560939
-0.012008
-0.00475726
-0.0119378
-0.00385531
-0.0118756
-0.00290976
-0.0118223
-0.00192744
-0.0117785
-0.000915564
-0.0117449
0.000118437
-0.0117219
0.00116699
-0.01171
0.00222242
-0.0117095
0.00327698
-0.0117205
0.0043228
-0.0117432
0.00535195
-0.0117773
0.00635632
-0.0118228
0.00732767
-0.0118793
0.00825758
-0.0119463
0.00913741
-0.0120234
0.0099583
-0.01211
0.0107108
-0.0122054
-0.0123115
-0.00430647
-0.0126798
0.00490091
-0.00368494
-0.0126295
-0.00303855
-0.0125842
-0.00236985
-0.0125443
-0.00168161
-0.0125105
-0.000976939
-0.0124832
-0.00025915
-0.0124627
0.0004682
-0.0124493
0.00120138
-0.0124432
0.00193652
-0.0124446
0.00266967
-0.0124537
0.00339684
-0.0124703
0.00411406
-0.0124945
0.00481742
-0.0125261
0.00550315
-0.012565
0.00616765
-0.0126108
0.00680754
-0.0126633
0.00741964
-0.0127221
0.00800103
-0.0127868
-0.0128557
-0.0031729
-0.0131426
0.00363567
-0.0026912
-0.0131112
-0.00219202
-0.0130833
-0.0016771
-0.0130593
-0.00114844
-0.0130392
-0.00060829
-0.0130233
-5.90803e-05
-0.0130119
0.000496609
-0.0130049
0.00105608
-0.0130027
0.00161655
-0.0130051
0.00217519
-0.0130123
0.00272914
-0.0130243
0.00327555
-0.0130409
0.00381161
-0.0130622
0.00433457
-0.0130879
0.00484175
-0.013118
0.00533062
-0.0131522
0.00579881
-0.0131903
0.00624405
-0.0132321
-0.0132783
-0.00231926
-0.0135208
0.00269753
-0.0019308
-0.0134996
-0.00153321
-0.0134809
-0.00112758
-0.0134649
-0.000715135
-0.0134516
-0.000297133
-0.0134413
0.000125084
-0.0134341
0.000550119
-0.01343
0.000976532
-0.0134291
0.00140285
-0.0134314
0.0018276
-0.0134371
0.00224929
-0.013446
0.00266646
-0.0134581
0.00307767
-0.0134734
0.00348155
-0.0134918
0.00387677
-0.0135132
0.00426211
-0.0135375
0.00463636
-0.0135645
0.00499846
-0.0135942
-0.0136258
-0.00177693
-0.0138246
0.00208074
-0.00146597
-0.0138106
-0.00114854
-0.0137984
-0.00082541
-0.013788
-0.000497438
-0.0137796
-0.000165534
-0.0137732
0.00016933
-0.0137689
0.000506137
-0.0137668
0.000843835
-0.0137668
0.00118135
-0.013769
0.00151758
-0.0137733
0.00185144
-0.0137798
0.00218186
-0.0137885
0.00250776
-0.0137993
0.00282811
-0.0138122
0.00314194
-0.013827
0.0034483
-0.0138439
0.00374634
-0.0138626
0.00403524
-0.0138831
-0.0139057
-0.00137027
-0.0140762
0.00162185
-0.00111434
-0.0140665
-0.000854574
-0.0140581
-0.000591512
-0.0140511
-0.000325719
-0.0140454
-5.77842e-05
-0.0140412
0.000211685
-0.0140384
0.000482066
-0.0140372
0.000752726
-0.0140374
0.00102302
-0.0140392
0.00129232
-0.0140426
0.00155997
-0.0140475
0.00182535
-0.0140539
0.00208783
-0.0140618
0.00234682
-0.0140712
0.00260173
-0.014082
0.002852
-0.0140941
0.00309708
-0.0141076
0.00333647
-0.0141224
-0.0141384
-0.00107964
-0.014282
0.00128545
-0.000870736
-0.0142754
-0.000659105
-0.0142698
-0.000445129
-0.014265
-0.000229214
-0.0142613
-1.1787e-05
-0.0142586
0.000206708
-0.0142569
0.000425813
-0.0142563
0.00064506
-0.0142567
0.000863975
-0.0142582
0.00108208
-0.0142607
0.0012989
-0.0142643
0.00151395
-0.0142689
0.00172679
-0.0142746
0.00193695
-0.0142813
0.002144
-0.014289
0.00234753
-0.0142977
0.00254715
-0.0143073
0.00274248
-0.0143178
-0.0143294
-0.000856812
-0.0144532
0.00102795
-0.000683625
-0.0144486
-0.00050866
-0.0144447
-0.000332196
-0.0144415
-0.000154522
-0.014439
2.40644e-05
-0.0144372
0.00020326
-0.0144361
0.000382757
-0.0144358
0.000562242
-0.0144362
0.000741403
-0.0144373
0.000919924
-0.0144392
0.00109749
-0.0144419
0.0012738
-0.0144453
0.00144854
-0.0144494
0.00162142
-0.0144542
0.00179214
-0.0144597
0.00196042
-0.0144659
0.00212597
-0.0144728
0.00228855
-0.0144803
-0.0144885
-0.00068377
-0.0145936
0.000824167
-0.000541902
-0.0145905
-0.00039876
-0.0145879
-0.000254547
-0.0145857
-0.000109474
-0.0145841
3.6238e-05
-0.0145829
0.000182366
-0.0145822
0.000328679
-0.0145821
0.000474947
-0.0145824
0.000620933
-0.0145833
0.000766404
-0.0145847
0.000911126
-0.0145866
0.00105487
-0.014589
0.0011974
-0.0145919
0.00133849
-0.0145953
0.00147794
-0.0145992
0.00161553
-0.0146035
0.00175105
-0.0146083
0.00188432
-0.0146136
-0.0146194
-0.000545382
-0.014709
0.000660841
-0.000428895
-0.014707
-0.000311527
-0.0147052
-0.000193431
-0.0147038
-7.47613e-05
-0.0147027
4.43216e-05
-0.014702
0.000163656
-0.0147016
0.000283079
-0.0147015
0.000402425
-0.0147018
0.000521528
-0.0147024
0.000640222
-0.0147034
0.000758344
-0.0147047
0.000875728
-0.0147064
0.000992213
-0.0147084
0.00110764
-0.0147107
0.00122185
-0.0147134
0.0013347
-0.0147164
0.00144603
-0.0147197
0.00155569
-0.0147233
-0.0147272
-0.000430748
-0.0148019
0.000523638
-0.000337116
-0.0148006
-0.000242851
-0.0147995
-0.000148067
-0.0147986
-5.28769e-05
-0.0147979
4.26007e-05
-0.0147975
0.000138246
-0.0147972
0.000233938
-0.0147972
0.000329554
-0.0147974
0.000424971
-0.0147978
0.000520065
-0.0147985
0.000614714
-0.0147994
0.000708796
-0.0148005
0.000802191
-0.0148018
0.000894781
-0.0148033
0.00098645
-0.0148051
0.00107709
-0.014807
0.00116658
-0.0148092
0.00125482
-0.0148115
-0.0148141
-0.000333951
-0.0148753
0.000407373
-0.000260005
-0.0148746
-0.000185614
-0.0148739
-0.000110861
-0.0148734
-3.58313e-05
-0.0148729
3.93898e-05
-0.0148727
0.000114715
-0.0148725
0.000190058
-0.0148725
0.000265328
-0.0148727
0.000340439
-0.0148729
0.000415301
-0.0148733
0.000489827
-0.0148739
0.000563929
-0.0148746
0.00063752
-0.0148754
0.000710514
-0.0148763
0.000782829
-0.0148774
0.00085438
-0.0148786
0.000925087
-0.0148799
0.000994871
-0.0148813
-0.0148829
-0.00024894
-0.0149307
0.000304254
-0.000193259
-0.0149302
-0.00013727
-0.0149299
-8.103e-05
-0.0149296
-2.46004e-05
-0.0149294
3.19584e-05
-0.0149292
8.85844e-05
-0.0149292
0.000145215
-0.0149292
0.000201788
-0.0149292
0.000258241
-0.0149294
0.000314509
-0.0149296
0.000370531
-0.0149299
0.000426245
-0.0149303
0.000481588
-0.0149307
0.000536501
-0.0149312
0.000590922
-0.0149318
0.000644794
-0.0149324
0.000698058
-0.0149331
0.000750659
-0.0149339
-0.0149348
-0.000172664
-0.0149695
0.000211456
-0.000133631
-0.0149693
-9.4395e-05
-0.0149691
-5.49964e-05
-0.014969
-1.54755e-05
-0.0149689
2.41266e-05
-0.0149688
6.37686e-05
-0.0149688
0.000103409
-0.0149688
0.000143005
-0.0149688
0.000182515
-0.0149689
0.000221898
-0.014969
0.00026111
-0.0149691
0.000300112
-0.0149693
0.000338861
-0.0149695
0.000377317
-0.0149697
0.000415437
-0.0149699
0.000453182
-0.0149702
0.000490509
-0.0149705
0.000527378
-0.0149708
-0.0149711
-0.000101607
-0.0149923
0.000124502
-7.85748e-05
-0.0149923
-5.54278e-05
-0.0149923
-3.21893e-05
-0.0149922
-8.88269e-06
-0.0149922
1.44684e-05
-0.0149922
3.78399e-05
-0.0149922
6.12076e-05
-0.0149922
8.45473e-05
-0.0149922
0.000107834
-0.0149922
0.000131045
-0.0149922
0.000154154
-0.0149922
0.000177139
-0.0149923
0.000199975
-0.0149923
0.000222639
-0.0149923
0.000245108
-0.0149924
0.000267358
-0.0149924
0.000289366
-0.0149925
0.000311106
-0.0149925
-0.0149926
-3.37164e-05
4.13704e-05
-2.6016e-05
-1.82771e-05
-1.05064e-05
-2.71112e-06
5.10145e-06
1.2924e-05
2.07494e-05
2.85705e-05
3.63805e-05
4.41725e-05
5.19402e-05
5.96777e-05
6.73797e-05
7.50414e-05
8.26591e-05
9.02301e-05
9.7753e-05
0.000105229
-0.0248582
-0.0144695
0.0153674
0.0239602
-0.0258559
-0.014386
0.0153837
-0.027004
-0.0142854
0.0154335
-0.0283212
-0.0141817
0.0154989
-0.0298224
-0.0140778
0.015579
-0.0315155
-0.0139764
0.0156696
-0.0333984
-0.0138797
0.0157625
-0.0354551
-0.0137879
0.0158446
-0.0376535
-0.0136992
0.0158975
-0.0399427
-0.0136079
0.0158972
-0.0422533
-0.0135044
0.0158149
-0.0444978
-0.0133738
0.0156183
-0.0465741
-0.0131963
0.0152725
-0.0483688
-0.0129472
0.0147419
-0.0497616
-0.0125976
0.0139903
-0.0506257
-0.0121162
0.0129803
-0.0508232
-0.0114722
0.0116696
-0.0501922
-0.0106369
0.0100059
-0.0485341
-0.00957705
0.00791894
-0.00825028
0.00522995
-0.0179329
-0.0142706
0.017734
-0.0181449
-0.0141741
-0.0183606
-0.0140696
-0.0185924
-0.0139499
-0.0188562
-0.013814
-0.0191718
-0.0136609
-0.0195612
-0.0134903
-0.0200467
-0.0133024
-0.0206476
-0.0130983
-0.0213761
-0.0128794
-0.0222333
-0.0126471
-0.0232047
-0.0124024
-0.0242558
-0.0121451
-0.0253301
-0.0118729
-0.0263464
-0.0115812
-0.0271992
-0.0112634
-0.0277599
-0.0109115
-0.0278804
-0.0105163
-0.0273856
-0.0100718
-0.00958676
-0.0191014
-0.0139667
0.0187974
-0.0193916
-0.0138838
-0.0196691
-0.0137921
-0.0199247
-0.0136944
-0.0201492
-0.0135894
-0.0203342
-0.0134759
-0.0204722
-0.0133522
-0.0205579
-0.0132168
-0.0205882
-0.0130679
-0.0205633
-0.0129043
-0.0204855
-0.012725
-0.0203582
-0.0125297
-0.0201844
-0.0123189
-0.0199636
-0.0120937
-0.0196885
-0.0118563
-0.0193429
-0.0116091
-0.018899
-0.0113553
-0.0183168
-0.0110985
-0.0175456
-0.010843
-0.0105939
-0.0140909
-0.0138757
0.0139999
-0.0141877
-0.013787
-0.014286
-0.0136939
-0.0143843
-0.0135961
-0.01448
-0.0134938
-0.0145688
-0.0133871
-0.0146445
-0.0132765
-0.0146994
-0.0131619
-0.0147238
-0.0130435
-0.0147068
-0.0129213
-0.0146367
-0.0127951
-0.0145016
-0.0126648
-0.0142904
-0.0125301
-0.0139933
-0.0123908
-0.0136024
-0.0122471
-0.0131123
-0.0120992
-0.0125195
-0.0119481
-0.011823
-0.0117951
-0.0110238
-0.0116422
-0.011492
-0.0128931
-0.0139079
0.0129253
-0.0128404
-0.0138397
-0.012767
-0.0137673
-0.0126718
-0.0136913
-0.0125539
-0.0136117
-0.0124126
-0.0135285
-0.0122474
-0.0134416
-0.0120581
-0.0133512
-0.011844
-0.0132576
-0.0116044
-0.0131609
-0.0113379
-0.0130617
-0.0110422
-0.0129604
-0.0107145
-0.0128578
-0.0103507
-0.0127546
-0.0099462
-0.0126516
-0.00949589
-0.0125495
-0.00899461
-0.0124494
-0.00843771
-0.012352
-0.00782165
-0.0122583
-0.0121691
-0.0102973
-0.013963
0.0103524
-0.010232
-0.013905
-0.0101541
-0.0138451
-0.0100615
-0.0137839
-0.00995174
-0.0137214
-0.00982249
-0.0136577
-0.00967121
-0.0135929
-0.00949537
-0.0135271
-0.00929254
-0.0134604
-0.00906049
-0.013393
-0.00879724
-0.0133249
-0.00850119
-0.0132565
-0.00817116
-0.0131879
-0.00780642
-0.0131194
-0.00740669
-0.0130513
-0.00697211
-0.0129841
-0.00650321
-0.0129183
-0.00600087
-0.0128543
-0.00546628
-0.0127928
-0.0127345
-0.0088031
-0.0140789
0.00891899
-0.00867446
-0.0140336
-0.00853246
-0.0139871
-0.00837682
-0.0139396
-0.00820722
-0.013891
-0.00802332
-0.0138416
-0.00782475
-0.0137915
-0.00761106
-0.0137408
-0.00738173
-0.0136897
-0.00713616
-0.0136385
-0.00687367
-0.0135874
-0.00659351
-0.0135366
-0.00629489
-0.0134865
-0.00597702
-0.0134372
-0.00563917
-0.0133892
-0.0052807
-0.0133426
-0.00490118
-0.0132978
-0.00450039
-0.0132551
-0.00407842
-0.0132148
-0.0131772
-0.00729806
-0.0141913
0.00741046
-0.00717569
-0.014156
-0.00704279
-0.01412
-0.0068986
-0.0140838
-0.00674237
-0.0140472
-0.00657342
-0.0140105
-0.00639113
-0.0139738
-0.00619492
-0.013937
-0.00598433
-0.0139003
-0.00575898
-0.0138639
-0.00551863
-0.0138278
-0.00526312
-0.0137922
-0.00499245
-0.0137572
-0.00470674
-0.013723
-0.00440621
-0.0136897
-0.00409122
-0.0136576
-0.00376224
-0.0136268
-0.00341983
-0.0135975
-0.00306467
-0.01357
-0.0135443
-0.00614225
-0.0143158
0.00626676
-0.00600977
-0.0142885
-0.00586885
-0.014261
-0.00571937
-0.0142332
-0.00556118
-0.0142054
-0.00539417
-0.0141776
-0.00521819
-0.0141497
-0.00503312
-0.0141221
-0.00483884
-0.0140946
-0.00463522
-0.0140675
-0.00442216
-0.0140408
-0.00419958
-0.0140147
-0.00396742
-0.0139893
-0.00372568
-0.0139647
-0.00347438
-0.013941
-0.00321364
-0.0139183
-0.00294361
-0.0138968
-0.00266454
-0.0138766
-0.00237678
-0.0138577
-0.0138404
-0.00516258
-0.0144306
0.00527738
-0.00504103
-0.01441
-0.00491268
-0.0143893
-0.00477732
-0.0143686
-0.00463478
-0.014348
-0.00448491
-0.0143274
-0.00432758
-0.0143071
-0.00416272
-0.0142869
-0.00399026
-0.0142671
-0.00381021
-0.0142475
-0.0036226
-0.0142284
-0.00342752
-0.0142098
-0.00322508
-0.0141918
-0.00301545
-0.0141743
-0.00279887
-0.0141576
-0.00257557
-0.0141416
-0.00234586
-0.0141265
-0.00211008
-0.0141124
-0.00186861
-0.0140992
-0.0140871
-0.00433153
-0.0145397
0.00444065
-0.00421742
-0.0145242
-0.00409809
-0.0145086
-0.00397351
-0.0144932
-0.00384366
-0.0144778
-0.00370852
-0.0144626
-0.00356808
-0.0144475
-0.00342235
-0.0144327
-0.00327134
-0.0144181
-0.00311509
-0.0144038
-0.00295365
-0.0143899
-0.00278709
-0.0143764
-0.00261548
-0.0143634
-0.00243894
-0.0143509
-0.00225761
-0.0143389
-0.00207163
-0.0143276
-0.00188119
-0.014317
-0.00168652
-0.014307
-0.00148785
-0.0142979
-0.0142895
-0.00364111
-0.0146369
0.00373831
-0.0035397
-0.0146256
-0.00343412
-0.0146142
-0.00332433
-0.014603
-0.00321033
-0.0145918
-0.0030921
-0.0145808
-0.00296965
-0.01457
-0.00284299
-0.0145593
-0.00271218
-0.0145489
-0.00257726
-0.0145387
-0.00243832
-0.0145288
-0.00229544
-0.0145193
-0.00214874
-0.0145101
-0.00199834
-0.0145013
-0.0018444
-0.0144929
-0.00168709
-0.0144849
-0.00152658
-0.0144775
-0.00136307
-0.0144705
-0.00119679
-0.0144642
-0.0144584
-0.00303069
-0.0147234
0.00311713
-0.00294115
-0.0147151
-0.00284843
-0.0147069
-0.00275253
-0.0146989
-0.00265347
-0.0146909
-0.00255127
-0.014683
-0.00244596
-0.0146753
-0.00233757
-0.0146677
-0.00222616
-0.0146603
-0.00211178
-0.0146531
-0.0019945
-0.0146461
-0.00187438
-0.0146394
-0.00175152
-0.0146329
-0.00162601
-0.0146268
-0.00149796
-0.0146209
-0.00136749
-0.0146154
-0.00123473
-0.0146102
-0.00109982
-0.0146055
-0.000962908
-0.0146011
-0.0145971
-0.00250999
-0.0147976
0.00258419
-0.00243324
-0.0147919
-0.00235397
-0.0147862
-0.0022722
-0.0147806
-0.00218796
-0.0147751
-0.00210125
-0.0147697
-0.00201212
-0.0147644
-0.00192059
-0.0147592
-0.00182673
-0.0147542
-0.00173057
-0.0147492
-0.00163219
-0.0147445
-0.00153165
-0.0147399
-0.00142903
-0.0147355
-0.00132442
-0.0147314
-0.00121792
-0.0147274
-0.00110963
-0.0147237
-0.000999649
-0.0147202
-0.000888109
-0.014717
-0.000775129
-0.0147141
-0.0147114
-0.00203684
-0.0148601
0.00209935
-0.00197245
-0.0148563
-0.00190616
-0.0148525
-0.00183799
-0.0148488
-0.00176796
-0.0148452
-0.00169609
-0.0148416
-0.00162243
-0.0148381
-0.00154699
-0.0148346
-0.00146983
-0.0148313
-0.00139098
-0.0148281
-0.0013105
-0.014825
-0.00122845
-0.014822
-0.00114488
-0.0148191
-0.00105986
-0.0148164
-0.00097346
-0.0148138
-0.000885759
-0.0148114
-0.000796837
-0.0148091
-0.000706782
-0.0148071
-0.000615683
-0.0148052
-0.0148034
-0.00161665
-0.0149107
0.00166733
-0.00156449
-0.0149084
-0.00151088
-0.0149061
-0.00145583
-0.0149038
-0.00139938
-0.0149016
-0.00134153
-0.0148994
-0.00128232
-0.0148973
-0.00122178
-0.0148952
-0.00115993
-0.0148932
-0.00109682
-0.0148912
-0.00103249
-0.0148893
-0.000966992
-0.0148875
-0.000900364
-0.0148857
-0.000832663
-0.0148841
-0.000763947
-0.0148825
-0.000694276
-0.0148811
-0.000623714
-0.0148797
-0.000552329
-0.0148784
-0.000480191
-0.0148773
-0.0148763
-0.00122411
-0.0149499
0.0012633
-0.00118388
-0.0149486
-0.00114261
-0.0149474
-0.00110031
-0.0149461
-0.00105699
-0.0149449
-0.00101268
-0.0149437
-0.0009674
-0.0149426
-0.000921167
-0.0149414
-0.00087401
-0.0149403
-0.000825958
-0.0149393
-0.000777042
-0.0149382
-0.000727295
-0.0149372
-0.000676754
-0.0149363
-0.000625457
-0.0149354
-0.000573445
-0.0149345
-0.000520761
-0.0149337
-0.000467451
-0.014933
-0.000413563
-0.0149323
-0.000359146
-0.0149317
-0.0149311
-0.000859971
-0.0149777
0.00088774
-0.000831443
-0.0149772
-0.000802189
-0.0149766
-0.000772222
-0.0149761
-0.000741556
-0.0149756
-0.000710208
-0.0149751
-0.000678193
-0.0149746
-0.000645529
-0.0149741
-0.000612235
-0.0149736
-0.000578332
-0.0149732
-0.000543841
-0.0149727
-0.000508786
-0.0149723
-0.000473193
-0.0149719
-0.00043709
-0.0149715
-0.000400504
-0.0149711
-0.000363467
-0.0149708
-0.000326009
-0.0149705
-0.000288165
-0.0149702
-0.000249969
-0.0149699
-0.0149697
-0.000508782
-0.0149943
0.000525392
-0.000491791
-0.0149942
-0.000474376
-0.0149941
-0.000456547
-0.0149939
-0.000438315
-0.0149938
-0.000419688
-0.0149937
-0.000400676
-0.0149936
-0.00038129
-0.0149935
-0.000361542
-0.0149934
-0.000341443
-0.0149933
-0.000321007
-0.0149931
-0.000300247
-0.014993
-0.000279179
-0.0149929
-0.000257818
-0.0149928
-0.000236181
-0.0149928
-0.000214286
-0.0149927
-0.000192151
-0.0149926
-0.000169796
-0.0149925
-0.000147239
-0.0149925
-0.0149924
-0.000170595
0.000176281
-0.000164758
-0.000158812
-0.000152751
-0.000146575
-0.000140282
-0.000133874
-0.000127351
-0.000120715
-0.000113969
-0.000107116
-0.00010016
-9.31041e-05
-8.59538e-05
-7.87139e-05
-7.13897e-05
-6.39871e-05
-5.65119e-05
-4.89705e-05
-0.0184055
-0.00458843
0.0229939
-0.0147221
-0.00368343
-0.0117157
-0.00300641
-0.00924452
-0.00247115
-0.00720987
-0.00203465
-0.00553797
-0.0016719
-0.0041713
-0.00136668
-0.00306358
-0.00110772
-0.00217669
-0.000886886
-0.00147856
-0.000698127
-0.000941729
-0.000536835
-0.000542256
-0.000399473
-0.000258911
-0.000283345
-7.2436e-05
-0.000186475
3.51297e-05
-0.000107566
8.12243e-05
-4.60945e-05
8.45547e-05
-3.33038e-06
5.79962e-05
2.65586e-05
2.22055e-05
3.57908e-05
2.22055e-05
-0.0152587
-0.00607777
0.0167481
-0.0136075
-0.00533466
-0.0119437
-0.00467018
-0.0103403
-0.00407456
-0.00883662
-0.00353836
-0.00745371
-0.00305481
-0.00620182
-0.00261856
-0.00508435
-0.00222519
-0.00410014
-0.0018711
-0.00324501
-0.00155326
-0.00251267
-0.00126918
-0.00189536
-0.00101677
-0.00138438
-0.000794324
-0.000970404
-0.000600456
-0.000643837
-0.000434133
-0.00039527
-0.000294661
-0.000216925
-0.000181676
-9.52835e-05
-9.50833e-05
-2.42639e-05
-3.52289e-05
-2.05843e-06
-0.0120534
-0.00704503
0.0130207
-0.010995
-0.00639304
-0.00989351
-0.00577169
-0.00878731
-0.00518076
-0.00770505
-0.00462061
-0.00666806
-0.00409181
-0.00569175
-0.00359487
-0.00478683
-0.00313012
-0.00396023
-0.00269769
-0.00321589
-0.0022976
-0.00255534
-0.00192972
-0.00197824
-0.00159387
-0.00148278
-0.00128978
-0.00106605
-0.00101719
-0.000724379
-0.000775803
-0.000453691
-0.000565348
-0.000249795
-0.000385571
-0.00010862
-0.000236259
-2.66313e-05
-0.000117217
-2.86897e-05
-0.00962954
-0.00786462
0.0104491
-0.00878551
-0.00723708
-0.00793521
-0.00662199
-0.00709289
-0.00602309
-0.00627059
-0.00544291
-0.00547855
-0.00488385
-0.00472536
-0.00434806
-0.00401803
-0.00383745
-0.00336208
-0.00335364
-0.00276167
-0.00289801
-0.00221967
-0.00247172
-0.00173784
-0.00207571
-0.00131692
-0.0017107
-0.00095685
-0.00137726
-0.000656841
-0.00107581
-0.000415564
-0.000806625
-0.000231276
-0.00056986
-0.000101954
-0.000365581
-2.54055e-05
-0.000193766
-5.40951e-05
-0.00865321
-0.00862628
0.00941487
-0.00788679
-0.0080035
-0.00712376
-0.00738502
-0.00637288
-0.00677396
-0.00564222
-0.00617357
-0.00493907
-0.005587
-0.00426985
-0.00501729
-0.00364004
-0.00446726
-0.00305418
-0.0039395
-0.00251585
-0.00343633
-0.00202778
-0.00295979
-0.00159184
-0.00251165
-0.00120916
-0.00209338
-0.000880185
-0.00170623
-0.000604819
-0.00135118
-0.000382473
-0.00102897
-0.00021218
-0.000740153
-9.26915e-05
-0.00048507
-2.2568e-05
-0.000263889
-7.66632e-05
-0.00814706
-0.0093677
0.00888848
-0.00740806
-0.0087425
-0.00667873
-0.00811435
-0.00596577
-0.00748692