x,y,z,U_0,U_1,U_2
0,0,0,0.300001,-0.000170698,0
0,0.1,0,0.300001,-0.000102419,0
0,0.2,0,0.3,-3.41395e-05,0
0,0.3,0,0.3,0,0
0,0.4,0,0.3,0,0
0,0.5,0,0.3,0,0
0,0.6,0,0.3,0,0
0,0.7,0,0.3,0,0
0,0.8,0,0.3,0,0
0,0.9,0,0.3,0,0
0,1,0,0.3,0,0
0,1.1,0,0.3,0,0
0,1.2,0,0.3,0,0
0,1.3,0,0.3,0,0
0,1.4,0,0.3,0,0
0,1.5,0,0.3,0,0
0,1.6,0,0.3,0,0
0,1.7,0,0.3,0,0
0,1.8,0,0.3,0,0
0,1.9,0,0.3,0,0
0,2,0,0.3,0,0
0,2.1,0,0.3,0,0
0,2.2,0,0.3,0,0
0,2.3,0,0.3,0,0
0,2.4,0,0.3,0,0
0,2.5,0,0.3,0,0
0,2.6,0,0.3,0,0
0,2.7,0,0.3,0,0
0,2.8,0,0.3,0,0
0,2.9,0,0.3,0,0
0,3,0,0.3,0,0
0,3.1,0,0.3,0,0
0,3.2,0,0.3,0,0
0,3.3,0,0.3,0,0
0,3.4,0,0.3,0,0
0,3.5,0,0.3,0,0
0,3.6,0,0.3,0,0
0,3.7,0,0.3,0,0
0,3.8,0,0.3,0,0
0,3.9,0,0.3,0,0
0,4,0,0.3,0,0
0,4.1,0,0.3,0,0
0,4.2,0,0.3,0,0
0,4.3,0,0.3,0,0
0,4.4,0,0.3,0,0
0,4.5,0,0.3,0,0
0,4.6,0,0.3,0,0
0,4.7,0,0.3,0,0
0,4.8,0,0.3,0,0
0,4.9,0,0.3,0,0
0,5,0,0.3,0,0
0,5.1,0,0.3,0,0
0,5.2,0,0.3,0,0
0,5.3,0,0.3,0,0
0,5.4,0,0.3,0,0
0,5.5,0,0.3,0,0
0,5.6,0,0.3,0,0
0,5.7,0,0.3,0,0
0,5.8,0,0.3,0,0
0,5.9,0,0.3,0,0
0,6,0,0.3,0,0
0,6.1,0,0.3,0,0
0,6.2,0,0.3,0,0
0,6.3,0,0.3,0,0
0,6.4,0,0.3,0,0
0,6.5,0,0.3,0,0
0,6.6,0,0.3,0,0
0,6.7,0,0.3,0,0
0,6.8,0,0.3,0,0
0,6.9,0,0.3,0,0
0,7,0,0.3,0,0
0,7.1,0,0.3,0,0
0,7.2,0,0.3,0,0
0,7.3,0,0.3,0,0
0,7.4,0,0.3,0,0
0,7.5,0,0.3,0,0
0,7.6,0,0.3,0,0
0,7.7,0,0.3,0,0
0,7.8,0,0.3,0,0
0,7.9,0,0.3,0,0
0,8,0,0.3,0,0
0,8.1,0,0.3,0,0
0,8.2,0,0.3,0,0
0,8.3,0,0.3,0,0
0,8.4,0,0.3,0,0
0,8.5,0,0.3,0,0
0,8.6,0,0.3,0,0
0,8.7,0,0.3,0,0
0,8.8,0,0.3,0,0
0,8.9,0,0.3,0,0
0,9,0,0.3,0,0
0,9.1,0,0.3,0,0
0,9.2,0,0.3,0,0
0,9.3,0,0.3,0,0
0,9.4,0,0.3,0,0
0,9.5,0,0.3,0,0
0,9.6,0,0.3,0,0
0,9.7,0,0.3,0,0
0,9.8,0,0.3,0,0
0,9.9,0,0.3,0,0
0,10,0,0.3,0,0
0,10.1,0,0.3,0,0
0,10.2,0,0.3,0,0
0,10.3,0,0.3,0,0
0,10.4,0,0.3,0,0
0,10.5,0,0.3,0,0
0,10.6,0,0.3,0,0
0,10.7,0,0.3,0,0
0,10.8,0,0.3,0,0
0,10.9,0,0.3,0,0
0,11,0,0.3,0,0
0,11.1,0,0.3,0,0
0,11.2,0,0.3,0,0
0,11.3,0,0.3,0,0
0,11.4,0,0.3,0,0
0,11.5,0,0.3,0,0
0,11.6,0,0.3,0,0
0,11.7,0,0.3,0,0
0,11.8,0,0.3,0,0
0,11.9,0,0.3,0,0
0,12,0,0.3,0,0
0,12.1,0,0.3,0,0
0,12.2,0,0.3,0,0
0,12.3,0,0.3,0,0
0,12.4,0,0.3,0,0
0,12.5,0,0.300002,5.6155e-05,0
0,12.6,0,0.300004,0.00012222,0
0,12.7,0,0.300006,0.000188284,0
0.1,0,0,0.299999,-0.000302749,0
0.1,0.1,0,0.300001,-0.000180379,0
0.1,0.2,0,0.300001,-0.0001121,0
0.1,0.3,0,0.3,-9.95544e-05,0
0.1,0.4,0,0.3,-9.95544e-05,0
0.1,0.5,0,0.299998,-0.000153789,0
0.1,0.6,0,0.299998,-9.85237e-05,0
0.1,0.7,0,0.299998,-9.85237e-05,0
0.1,0.8,0,0.299997,-9.78283e-05,0
0.1,0.9,0,0.299997,-9.78283e-05,0
0.1,1,0,0.299998,-0.000150431,0
0.1,1.1,0,0.299997,-9.74547e-05,0
0.1,1.2,0,0.299997,-9.74547e-05,0
0.1,1.3,0,0.299997,-9.73971e-05,0
0.1,1.4,0,0.299997,-9.73971e-05,0
0.1,1.5,0,0.299997,-0.000144535,0
0.1,1.6,0,0.3,-9.75928e-05,0
0.1,1.7,0,0.3,-9.75928e-05,0
0.1,1.8,0,0.300005,-9.79024e-05,0
0.1,1.9,0,0.300005,-9.79024e-05,0
0.1,2,0,0.299996,-0.000136082,0
0.1,2.1,0,0.300013,-9.81163e-05,0
0.1,2.2,0,0.300013,-9.81163e-05,0
0.1,2.3,0,0.300024,-9.79739e-05,0
0.1,2.4,0,0.300024,-9.79739e-05,0
0.1,2.5,0,0.299993,-0.000125225,0
0.1,2.6,0,0.300037,-9.71933e-05,0
0.1,2.7,0,0.300037,-9.71933e-05,0
0.1,2.8,0,0.300051,-9.5512e-05,0
0.1,2.9,0,0.300051,-9.5512e-05,0
0.1,3,0,0.299989,-0.000112346,0
0.1,3.1,0,0.300066,-9.27307e-05,0
0.1,3.2,0,0.300066,-9.27307e-05,0
0.1,3.3,0,0.30008,-8.87525e-05,0
0.1,3.4,0,0.30008,-8.87525e-05,0
0.1,3.5,0,0.299985,-9.79116e-05,0
0.1,3.6,0,0.300092,-8.3604e-05,0
0.1,3.7,0,0.300092,-8.3604e-05,0
0.1,3.8,0,0.300102,-7.7432e-05,0
0.1,3.9,0,0.300102,-7.7432e-05,0
0.1,4,0,0.299981,-8.22441e-05,0
0.1,4.1,0,0.300109,-7.04709e-05,0
0.1,4.2,0,0.300109,-7.04709e-05,0
0.1,4.3,0,0.300113,-6.30112e-05,0
0.1,4.4,0,0.300113,-6.30112e-05,0
0.1,4.5,0,0.29998,-6.54075e-05,0
0.1,4.6,0,0.300114,-5.53944e-05,0
0.1,4.7,0,0.300114,-5.53944e-05,0
0.1,4.8,0,0.300113,-4.77517e-05,0
0.1,4.9,0,0.300113,-4.77517e-05,0
0.1,5,0,0.29998,-4.80408e-05,0
0.1,5.1,0,0.300112,-4.02096e-05,0
0.1,5.2,0,0.29998,-4.04835e-05,0
0.1,5.3,0,0.30011,-3.30264e-05,0
0.1,5.4,0,0.29998,-3.3339e-05,0
0.1,5.5,0,0.300109,-2.58823e-05,0
0.1,5.6,0,0.29998,-2.60969e-05,0
0.1,5.7,0,0.300107,-1.88511e-05,0
0.1,5.8,0,0.29998,-1.87661e-05,0
0.1,5.9,0,0.300106,-1.18377e-05,0
0.1,6,0,0.29998,-1.13898e-05,0
0.1,6.1,0,0.300106,-4.76533e-06,0
0.1,6.2,0,0.29998,-4.00976e-06,0
0.1,6.3,0,0.300107,2.42294e-06,0
0.1,6.4,0,0.29998,3.33213e-06,0
0.1,6.5,0,0.300108,9.78715e-06,0
0.1,6.6,0,0.299979,1.05896e-05,0
0.1,6.7,0,0.300109,1.74071e-05,0
0.1,6.8,0,0.299979,1.77636e-05,0
0.1,6.9,0,0.300109,2.51233e-05,0
0.1,7,0,0.299979,2.57495e-05,0
0.1,7.1,0,0.300108,3.35933e-05,0
0.1,7.2,0,0.300108,3.35933e-05,0
0.1,7.3,0,0.300029,3.81214e-05,0
0.1,7.4,0,0.300105,4.20357e-05,0
0.1,7.5,0,0.300105,4.20357e-05,0
0.1,7.6,0,0.300073,4.95023e-05,0
0.1,7.7,0,0.300098,5.0404e-05,0
0.1,7.8,0,0.300098,5.0404e-05,0
0.1,7.9,0,0.300088,5.83739e-05,0
0.1,8,0,0.300088,5.83739e-05,0
0.1,8.1,0,0.300088,5.83739e-05,0
0.1,8.2,0,0.300075,6.54813e-05,0
0.1,8.3,0,0.300075,6.54813e-05,0
0.1,8.4,0,0.300044,6.90094e-05,0
0.1,8.5,0,0.30006,7.14845e-05,0
0.1,8.6,0,0.30006,7.14845e-05,0
0.1,8.7,0,0.300006,8.1448e-05,0
0.1,8.8,0,0.300044,7.63141e-05,0
0.1,8.9,0,0.300044,7.63141e-05,0
0.1,9,0,0.299994,9.20024e-05,0
0.1,9.1,0,0.300029,8.00784e-05,0
0.1,9.2,0,0.300029,8.00784e-05,0
0.1,9.3,0,0.300004,9.20761e-05,0
0.1,9.4,0,0.300016,8.30328e-05,0
0.1,9.5,0,0.300016,8.30328e-05,0
0.1,9.6,0,0.300005,8.74304e-05,0
0.1,9.7,0,0.300006,8.55072e-05,0
0.1,9.8,0,0.300006,8.55072e-05,0
0.1,9.9,0,0.299999,8.78232e-05,0
0.1,10,0,0.299999,8.78232e-05,0
0.1,10.1,0,0.299999,9.0629e-05,0
0.1,10.2,0,0.299995,9.02275e-05,0
0.1,10.3,0,0.299995,9.02275e-05,0
0.1,10.4,0,0.299995,0.000108609,0
0.1,10.5,0,0.299993,9.28541e-05,0
0.1,10.6,0,0.299993,9.28541e-05,0
0.1,10.7,0,0.299995,0.000128557,0
0.1,10.8,0,0.299993,9.57189e-05,0
0.1,10.9,0,0.299993,9.57189e-05,0
0.1,11,0,0.299995,0.0001278,0
0.1,11.1,0,0.299994,9.87363e-05,0
0.1,11.2,0,0.299994,9.87363e-05,0
0.1,11.3,0,0.299996,0.00011542,0
0.1,11.4,0,0.299997,0.000101755,0
0.1,11.5,0,0.299997,0.000101755,0
0.1,11.6,0,0.299999,0.00010459,0
0.1,11.7,0,0.299999,0.00010459,0
0.1,11.8,0,0.299999,0.00010459,0
0.1,11.9,0,0.300001,0.000107071,0
0.1,12,0,0.300001,0.000107071,0
0.1,12.1,0,0.3,0.000115758,0
0.1,12.2,0,0.300002,0.000109101,0
0.1,12.3,0,0.300002,0.000109101,0
0.1,12.4,0,0.3,0.000133436,0
0.1,12.5,0,0.300004,0.000141618,0
0.1,12.6,0,0.300007,0.000207682,0
0.1,12.7,0,0.300004,0.000312826,0
0.2,0,0,0.299997,-0.000434801,0
0.2,0.1,0,0.300001,-0.000258339,0
0.2,0.2,0,0.3,-0.000228361,0
0.2,0.3,0,0.299999,-0.000226613,0
0.2,0.4,0,0.299999,-0.000199109,0
0.2,0.5,0,0.299995,-0.000307578,0
0.2,0.6,0,0.299997,-0.000197047,0
0.2,0.7,0,0.299996,-0.000223998,0
0.2,0.8,0,0.299994,-0.000222955,0
0.2,0.9,0,0.299994,-0.000195657,0
0.2,1,0,0.299995,-0.000300862,0
0.2,1.1,0,0.299993,-0.000194909,0
0.2,1.2,0,0.299994,-0.000220083,0
0.2,1.3,0,0.299994,-0.000219997,0
0.2,1.4,0,0.299994,-0.000194794,0
0.2,1.5,0,0.299995,-0.000289069,0
0.2,1.6,0,0.3,-0.000195186,0
0.2,1.7,0,0.299998,-0.000216701,0
0.2,1.8,0,0.300006,-0.000217166,0
0.2,1.9,0,0.300011,-0.000195805,0
0.2,2,0,0.299992,-0.000272163,0
0.2,2.1,0,0.300027,-0.000196233,0
0.2,2.2,0,0.300018,-0.000212641,0
0.2,2.3,0,0.300033,-0.000212428,0
0.2,2.4,0,0.300047,-0.000195948,0
0.2,2.5,0,0.299987,-0.000250449,0
0.2,2.6,0,0.300073,-0.000194387,0
0.2,2.7,0,0.300051,-0.000205294,0
0.2,2.8,0,0.300072,-0.000202772,0
0.2,2.9,0,0.300101,-0.000191024,0
0.2,3,0,0.299979,-0.000224693,0
0.2,3.1,0,0.300131,-0.000185461,0
0.2,3.2,0,0.300092,-0.000191745,0
0.2,3.3,0,0.300113,-0.000185778,0
0.2,3.4,0,0.300159,-0.000177505,0
0.2,3.5,0,0.29997,-0.000195823,0
0.2,3.6,0,0.300184,-0.000167208,0
0.2,3.7,0,0.300129,-0.000170517,0
0.2,3.8,0,0.300145,-0.000161259,0
0.2,3.9,0,0.300204,-0.000154864,0
0.2,4,0,0.299963,-0.000164488,0
0.2,4.1,0,0.300218,-0.000140942,0
0.2,4.2,0,0.300154,-0.000142695,0
0.2,4.3,0,0.300159,-0.000131506,0
0.2,4.4,0,0.300226,-0.000126022,0
0.2,4.5,0,0.29996,-0.000130815,0
0.2,4.6,0,0.300228,-0.000110789,0
0.2,4.7,0,0.300161,-0.000111371,0
0.2,4.8,0,0.30016,-9.99074e-05,0
0.2,4.9,0,0.300227,-9.55035e-05,0
0.2,5,0,0.299959,-9.60816e-05,0
0.2,5.1,0,0.300223,-8.04192e-05,0
0.2,5.2,0,0.29996,-8.0967e-05,0
0.2,5.3,0,0.30022,-6.60528e-05,0
0.2,5.4,0,0.29996,-6.66779e-05,0
0.2,5.5,0,0.300217,-5.17646e-05,0
0.2,5.6,0,0.29996,-5.21938e-05,0
0.2,5.7,0,0.300214,-3.77022e-05,0
0.2,5.8,0,0.29996,-3.75322e-05,0
0.2,5.9,0,0.300213,-2.36754e-05,0
0.2,6,0,0.29996,-2.27797e-05,0
0.2,6.1,0,0.300213,-9.53067e-06,0
0.2,6.2,0,0.29996,-8.01952e-06,0
0.2,6.3,0,0.300214,4.84588e-06,0
0.2,6.4,0,0.299959,6.66427e-06,0
0.2,6.5,0,0.300215,1.95743e-05,0
0.2,6.6,0,0.299959,2.11791e-05,0
0.2,6.7,0,0.300217,3.48143e-05,0
0.2,6.8,0,0.299958,3.55271e-05,0
0.2,6.9,0,0.300218,5.02466e-05,0
0.2,7,0,0.299958,5.14991e-05,0
0.2,7.1,0,0.300215,6.71867e-05,0
0.2,7.2,0,0.300215,6.71867e-05,0
0.2,7.3,0,0.300007,7.369e-05,0
0.2,7.4,0,0.300209,8.40715e-05,0
0.2,7.5,0,0.300189,8.47165e-05,0
0.2,7.6,0,0.300053,9.5623e-05,0
0.2,7.7,0,0.300196,0.000100808,0
0.2,7.8,0,0.300131,0.000104092,0
0.2,7.9,0,0.300089,0.000115095,0
0.2,8,0,0.300177,0.000116748,0
0.2,8.1,0,0.300076,0.000124193,0
0.2,8.2,0,0.300111,0.000131279,0
0.2,8.3,0,0.30015,0.000130963,0
0.2,8.4,0,0.300029,0.000144804,0
0.2,8.5,0,0.300117,0.000143082,0
0.2,8.6,0,0.300119,0.000142969,0
0.2,8.7,0,0.299993,0.000166454,0
0.2,8.8,0,0.300088,0.000152628,0
0.2,8.9,0,0.300088,0.000152628,0
0.2,9,0,0.299983,0.000185811,0
0.2,9.1,0,0.300058,0.000160157,0
0.2,9.2,0,0.300058,0.000160157,0
0.2,9.3,0,0.299995,0.0001942,0
0.2,9.4,0,0.300032,0.000166066,0
0.2,9.5,0,0.300025,0.000173834,0
0.2,9.6,0,0.299997,0.000197299,0
0.2,9.7,0,0.300012,0.000171014,0
0.2,9.8,0,0.300003,0.000192539,0
0.2,9.9,0,0.299994,0.000195586,0
0.2,10,0,0.299998,0.000175646,0
0.2,10.1,0,0.299993,0.000213993,0
0.2,10.2,0,0.299989,0.000190047,0
0.2,10.3,0,0.299989,0.000180455,0
0.2,10.4,0,0.299989,0.000237641,0
0.2,10.5,0,0.299986,0.000185708,0
0.2,10.6,0,0.299986,0.000185708,0
0.2,10.7,0,0.299989,0.000262524,0
0.2,10.8,0,0.299986,0.000191438,0
0.2,10.9,0,0.299986,0.000191438,0
0.2,11,0,0.29999,0.00026598,0
0.2,11.1,0,0.299989,0.000197473,0
0.2,11.2,0,0.299989,0.000198603,0
0.2,11.3,0,0.299992,0.000257118,0
0.2,11.4,0,0.299993,0.000203509,0
0.2,11.5,0,0.299993,0.000221528,0
0.2,11.6,0,0.299995,0.000247037,0
0.2,11.7,0,0.299997,0.000209181,0
0.2,11.8,0,0.299996,0.00024358,0
0.2,11.9,0,0.299999,0.000236073,0
0.2,12,0,0.300002,0.000214141,0
0.2,12.1,0,0.299997,0.000264091,0
0.2,12.2,0,0.300004,0.000224397,0
0.2,12.3,0,0.300005,0.000218202,0
0.2,12.4,0,0.299998,0.000282742,0
0.2,12.5,0,0.300007,0.00022708,0
0.2,12.6,0,0.300009,0.000293145,0
0.2,12.7,0,0.300001,0.000437368,0
0.3,0,0,0.299995,-0.000566852,0
0.3,0.1,0,0.300002,-0.000336299,0
0.3,0.2,0,0.299998,-0.000382923,0
0.3,0.3,0,0.299996,-0.000381175,0
0.3,0.4,0,0.299999,-0.000298663,0
0.3,0.5,0,0.299993,-0.000461367,0
0.3,0.6,0,0.299995,-0.000295571,0
0.3,0.7,0,0.299994,-0.000376424,0
0.3,0.8,0,0.299992,-0.000375381,0
0.3,0.9,0,0.299991,-0.000293485,0
0.3,1,0,0.299993,-0.000451293,0
0.3,1.1,0,0.29999,-0.000292364,0
0.3,1.2,0,0.299991,-0.000367886,0
0.3,1.3,0,0.299992,-0.0003678,0
0.3,1.4,0,0.299991,-0.000292191,0
0.3,1.5,0,0.299992,-0.000433604,0
0.3,1.6,0,0.3,-0.000292778,0
0.3,1.7,0,0.299995,-0.000357326,0
0.3,1.8,0,0.300003,-0.00035779,0
0.3,1.9,0,0.300016,-0.000293707,0
0.3,2,0,0.299988,-0.000408245,0
0.3,2.1,0,0.30004,-0.000294349,0
0.3,2.2,0,0.300013,-0.000343575,0
0.3,2.3,0,0.300028,-0.000343362,0
0.3,2.4,0,0.300071,-0.000293922,0
0.3,2.5,0,0.29998,-0.000375674,0
0.3,2.6,0,0.30011,-0.00029158,0
0.3,2.7,0,0.300042,-0.000324302,0
0.3,2.8,0,0.300063,-0.00032178,0
0.3,2.9,0,0.300152,-0.000286536,0
0.3,3,0,0.299968,-0.000337039,0
0.3,3.1,0,0.300197,-0.000278192,0
0.3,3.2,0,0.300079,-0.000297043,0
0.3,3.3,0,0.3001,-0.000291076,0
0.3,3.4,0,0.300239,-0.000266258,0
0.3,3.5,0,0.299955,-0.000293735,0
0.3,3.6,0,0.300276,-0.000250812,0
0.3,3.7,0,0.300112,-0.000260738,0
0.3,3.8,0,0.300128,-0.00025148,0
0.3,3.9,0,0.300306,-0.000232296,0
0.3,4,0,0.299944,-0.000246732,0
0.3,4.1,0,0.300327,-0.000211413,0
0.3,4.2,0,0.300134,-0.000216673,0
0.3,4.3,0,0.30014,-0.000205484,0
0.3,4.4,0,0.300338,-0.000189034,0
0.3,4.5,0,0.299939,-0.000196222,0
0.3,4.6,0,0.300342,-0.000166183,0
0.3,4.7,0,0.300141,-0.000167931,0
0.3,4.8,0,0.300139,-0.000156467,0
0.3,4.9,0,0.30034,-0.000143255,0
0.3,5,0,0.299939,-0.000144122,0
0.3,5.1,0,0.300335,-0.000120629,0
0.3,5.2,0,0.299939,-0.000121451,0
0.3,5.3,0,0.30033,-9.90792e-05,0
0.3,5.4,0,0.29994,-0.000100017,0
0.3,5.5,0,0.300326,-7.7647e-05,0
0.3,5.6,0,0.29994,-7.82906e-05,0
0.3,5.7,0,0.300322,-5.65534e-05,0
0.3,5.8,0,0.29994,-5.62983e-05,0
0.3,5.9,0,0.300319,-3.5513e-05,0
0.3,6,0,0.29994,-3.41695e-05,0
0.3,6.1,0,0.300319,-1.4296e-05,0
0.3,6.2,0,0.29994,-1.20293e-05,0
0.3,6.3,0,0.300321,7.26882e-06,0
0.3,6.4,0,0.299939,9.9964e-06,0
0.3,6.5,0,0.300323,2.93614e-05,0
0.3,6.6,0,0.299938,3.17687e-05,0
0.3,6.7,0,0.300326,5.22214e-05,0
0.3,6.8,0,0.299937,5.32907e-05,0
0.3,6.9,0,0.300326,7.53698e-05,0
0.3,7,0,0.299937,7.72486e-05,0
0.3,7.1,0,0.300276,9.78902e-05,0
0.3,7.2,0,0.300225,0.000102287,0
0.3,7.3,0,0.299986,0.000109259,0
0.3,7.4,0,0.300314,0.000126107,0
0.3,7.5,0,0.300169,0.000130837,0
0.3,7.6,0,0.300032,0.000141744,0
0.3,7.7,0,0.300294,0.000151212,0
0.3,7.8,0,0.300112,0.00016044,0
0.3,7.9,0,0.30007,0.000171442,0
0.3,8,0,0.300265,0.000175122,0
0.3,8.1,0,0.300059,0.000190426,0
0.3,8.2,0,0.300093,0.000197512,0
0.3,8.3,0,0.300225,0.000196444,0
0.3,8.4,0,0.300013,0.000220598,0
0.3,8.5,0,0.300102,0.000218877,0
0.3,8.6,0,0.300172,0.000215877,0
0.3,8.7,0,0.29998,0.000251461,0
0.3,8.8,0,0.300096,0.000234432,0
0.3,8.9,0,0.300105,0.00023769,0
0.3,9,0,0.299972,0.000279621,0
0.3,9.1,0,0.300078,0.000243487,0
0.3,9.2,0,0.300053,0.00025996,0
0.3,9.3,0,0.299986,0.000296325,0
0.3,9.4,0,0.300048,0.000249098,0
0.3,9.5,0,0.300018,0.000283702,0
0.3,9.6,0,0.29999,0.000307167,0
0.3,9.7,0,0.300018,0.000256522,0
0.3,9.8,0,0.299997,0.000309505,0
0.3,9.9,0,0.299988,0.000312552,0
0.3,10,0,0.299997,0.00026347,0
0.3,10.1,0,0.299987,0.000337356,0
0.3,10.2,0,0.299983,0.000313411,0
0.3,10.3,0,0.299984,0.000270682,0
0.3,10.4,0,0.299984,0.000366673,0
0.3,10.5,0,0.29998,0.000310932,0
0.3,10.6,0,0.29998,0.0002883,0
0.3,10.7,0,0.299984,0.00039649,0
0.3,10.8,0,0.29998,0.000306281,0
0.3,10.9,0,0.29998,0.000313974,0
0.3,11,0,0.299985,0.000404161,0
0.3,11.1,0,0.299983,0.000300361,0
0.3,11.2,0,0.299984,0.000340301,0
0.3,11.3,0,0.299987,0.000398816,0
0.3,11.4,0,0.29999,0.000305264,0
0.3,11.5,0,0.299989,0.000366078,0
0.3,11.6,0,0.299991,0.000391587,0
0.3,11.7,0,0.299996,0.000313771,0
0.3,11.8,0,0.299992,0.000390336,0
0.3,11.9,0,0.299996,0.00038283,0
0.3,12,0,0.300002,0.000321212,0
0.3,12.1,0,0.299995,0.000412425,0
0.3,12.2,0,0.300001,0.000372731,0
0.3,12.3,0,0.300007,0.000327303,0
0.3,12.4,0,0.299996,0.000432049,0
0.3,12.5,0,0.300006,0.000361266,0
0.3,12.6,0,0.30001,0.000393005,0
0.3,12.7,0,0.299999,0.00056191,0
0.4,0,0,0.299992,-0.000698904,0
0.4,0.1,0,0.3,-0.00046835,0
0.4,0.2,0,0.299995,-0.000537485,0
0.4,0.3,0,0.299994,-0.000535737,0
0.4,0.4,0,0.299997,-0.000452452,0
0.4,0.5,0,0.29999,-0.000615156,0
0.4,0.6,0,0.299993,-0.00044936,0
0.4,0.7,0,0.299991,-0.00052885,0
0.4,0.8,0,0.299989,-0.000527807,0
0.4,0.9,0,0.299989,-0.000443916,0
0.4,1,0,0.29999,-0.000601724,0
0.4,1.1,0,0.299987,-0.000442795,0
0.4,1.2,0,0.299988,-0.000515689,0
0.4,1.3,0,0.299989,-0.000515603,0
0.4,1.4,0,0.299988,-0.000436726,0
0.4,1.5,0,0.299989,-0.000578139,0
0.4,1.6,0,0.299997,-0.000437313,0
0.4,1.7,0,0.299992,-0.00049795,0
0.4,1.8,0,0.3,-0.000498414,0
0.4,1.9,0,0.300012,-0.000429789,0
0.4,2,0,0.299985,-0.000544327,0
0.4,2.1,0,0.300036,-0.00043043,0
0.4,2.2,0,0.300008,-0.000474509,0
0.4,2.3,0,0.300023,-0.000474296,0
0.4,2.4,0,0.300065,-0.000419146,0
0.4,2.5,0,0.299974,-0.000500898,0
0.4,2.6,0,0.300103,-0.000416805,0
0.4,2.7,0,0.300034,-0.00044331,0
0.4,2.8,0,0.300055,-0.000440788,0
0.4,2.9,0,0.300141,-0.000398882,0
0.4,3,0,0.299957,-0.000449385,0
0.4,3.1,0,0.300186,-0.000390538,0
0.4,3.2,0,0.300066,-0.000402341,0
0.4,3.3,0,0.300087,-0.000396374,0
0.4,3.4,0,0.300224,-0.000364169,0
0.4,3.5,0,0.29994,-0.000391646,0
0.4,3.6,0,0.300261,-0.000348724,0
0.4,3.7,0,0.300095,-0.000350959,0
0.4,3.8,0,0.300111,-0.000341701,0
0.4,3.9,0,0.300288,-0.00031454,0
0.4,4,0,0.299926,-0.000328976,0
0.4,4.1,0,0.300309,-0.000293657,0
0.4,4.2,0,0.300115,-0.000290651,0
0.4,4.3,0,0.30012,-0.000279462,0
0.4,4.4,0,0.300318,-0.000254441,0
0.4,4.5,0,0.299919,-0.00026163,0
0.4,4.6,0,0.300322,-0.000231591,0
0.4,4.7,0,0.30012,-0.00022449,0
0.4,4.8,0,0.300119,-0.000213026,0
0.4,4.9,0,0.30032,-0.000191296,0
0.4,5,0,0.299918,-0.000192163,0
0.4,5.1,0,0.300381,-0.000162865,0
0.4,5.2,0,0.299919,-0.000161934,0
0.4,5.3,0,0.300375,-0.000134048,0
0.4,5.4,0,0.29992,-0.000133356,0
0.4,5.5,0,0.30037,-0.000105447,0
0.4,5.6,0,0.29992,-0.000104388,0
0.4,5.7,0,0.300365,-7.71947e-05,0
0.4,5.8,0,0.29992,-7.50644e-05,0
0.4,5.9,0,0.300362,-4.89709e-05,0
0.4,6,0,0.29992,-4.55594e-05,0
0.4,6.1,0,0.300362,-2.05286e-05,0
0.4,6.2,0,0.299919,-1.6039e-05,0
0.4,6.3,0,0.300364,8.31089e-06,0
0.4,6.4,0,0.299918,1.33285e-05,0
0.4,6.5,0,0.300367,3.77354e-05,0
0.4,6.6,0,0.299917,4.23582e-05,0
0.4,6.7,0,0.300369,6.80133e-05,0
0.4,6.8,0,0.299916,7.10543e-05,0
0.4,6.9,0,0.30037,9.88098e-05,0
0.4,7,0,0.299915,0.000102998,0
0.4,7.1,0,0.300255,0.00012364,0
0.4,7.2,0,0.300204,0.000137856,0
0.4,7.3,0,0.299965,0.000144827,0
0.4,7.4,0,0.300296,0.000161846,0
0.4,7.5,0,0.300149,0.000176958,0
0.4,7.6,0,0.300012,0.000187865,0
0.4,7.7,0,0.300324,0.000199136,0
0.4,7.8,0,0.300093,0.000216787,0
0.4,7.9,0,0.30005,0.000227789,0
0.4,8,0,0.3003,0.000235604,0
0.4,8.1,0,0.300041,0.000256659,0
0.4,8.2,0,0.300076,0.000263745,0
0.4,8.3,0,0.300236,0.000269253,0
0.4,8.4,0,0.299998,0.000296392,0
0.4,8.5,0,0.300087,0.000294671,0
0.4,8.6,0,0.300158,0.000300883,0
0.4,8.7,0,0.299967,0.000336467,0
0.4,8.8,0,0.300083,0.000319439,0
0.4,8.9,0,0.300094,0.000331499,0
0.4,9,0,0.299961,0.00037343,0
0.4,9.1,0,0.300067,0.000337296,0
0.4,9.2,0,0.300044,0.000362085,0
0.4,9.3,0,0.299977,0.000398449,0
0.4,9.4,0,0.300043,0.000348208,0
0.4,9.5,0,0.30001,0.00039357,0
0.4,9.6,0,0.299982,0.000417035,0
0.4,9.7,0,0.300017,0.000354583,0
0.4,9.8,0,0.29999,0.000426471,0
0.4,9.9,0,0.299981,0.000429518,0
0.4,10,0,0.299993,0.000368726,0
0.4,10.1,0,0.299981,0.00046072,0
0.4,10.2,0,0.299977,0.000436774,0
0.4,10.3,0,0.299979,0.000393588,0
0.4,10.4,0,0.299978,0.000495705,0
0.4,10.5,0,0.299975,0.000439964,0
0.4,10.6,0,0.299974,0.000422266,0
0.4,10.7,0,0.299979,0.000530457,0
0.4,10.8,0,0.299975,0.000440247,0
0.4,10.9,0,0.299976,0.000452155,0
0.4,11,0,0.29998,0.000542341,0
0.4,11.1,0,0.299978,0.000438541,0
0.4,11.2,0,0.29998,0.000482,0
0.4,11.3,0,0.299983,0.000540515,0
0.4,11.4,0,0.299985,0.0004354,0
0.4,11.5,0,0.299985,0.000510628,0
0.4,11.6,0,0.299987,0.000536137,0
0.4,11.7,0,0.299993,0.000438748,0
0.4,11.8,0,0.299989,0.000537093,0
0.4,11.9,0,0.299992,0.000529586,0
0.4,12,0,0.300001,0.000452172,0
0.4,12.1,0,0.299992,0.000560759,0
0.4,12.2,0,0.299999,0.000521064,0
0.4,12.3,0,0.300005,0.000475552,0
0.4,12.4,0,0.299994,0.000581356,0
0.4,12.5,0,0.300004,0.000510572,0
0.4,12.6,0,0.300008,0.000517547,0
0.4,12.7,0,0.299997,0.000686452,0
0.5,0,0,0.29999,-0.000830956,0
0.5,0.1,0,0.299996,-0.000638703,0
0.5,0.2,0,0.299993,-0.000692048,0
0.5,0.3,0,0.299992,-0.0006903,0
0.5,0.4,0,0.299993,-0.000633745,0
0.5,0.5,0,0.299988,-0.000768945,0
0.5,0.6,0,0.29999,-0.0006301,0
0.5,0.7,0,0.299989,-0.000681275,0
0.5,0.8,0,0.299987,-0.000680232,0
0.5,0.9,0,0.299986,-0.000621646,0
0.5,1,0,0.299988,-0.000752155,0
0.5,1.1,0,0.299985,-0.0006184,0
0.5,1.2,0,0.299986,-0.000663492,0
0.5,1.3,0,0.299987,-0.000663405,0
0.5,1.4,0,0.299986,-0.000606464,0
0.5,1.5,0,0.299986,-0.000722674,0
0.5,1.6,0,0.299993,-0.000603364,0
0.5,1.7,0,0.299989,-0.000638574,0
0.5,1.8,0,0.299997,-0.000639038,0
0.5,1.9,0,0.300004,-0.000587231,0
0.5,2,0,0.299981,-0.000680408,0
0.5,2.1,0,0.300023,-0.000582921,0
0.5,2.2,0,0.300003,-0.000605443,0
0.5,2.3,0,0.300018,-0.00060523,0
0.5,2.4,0,0.300044,-0.000560851,0
0.5,2.5,0,0.299967,-0.000626123,0
0.5,2.6,0,0.300074,-0.000552937,0
0.5,2.7,0,0.300025,-0.000562319,0
0.5,2.8,0,0.300046,-0.000559797,0
0.5,2.9,0,0.300101,-0.000522977,0
0.5,3,0,0.299947,-0.000561732,0
0.5,3.1,0,0.300136,-0.000509168,0
0.5,3.2,0,0.300053,-0.000507639,0
0.5,3.3,0,0.300075,-0.000501672,0
0.5,3.4,0,0.300163,-0.000470354,0
0.5,3.5,0,0.299924,-0.000489558,0
0.5,3.6,0,0.300191,-0.000449944,0
0.5,3.7,0,0.300078,-0.00044118,0
0.5,3.8,0,0.300093,-0.000431922,0
0.5,3.9,0,0.30021,-0.000403179,0
0.5,4,0,0.299907,-0.00041122,0
0.5,4.1,0,0.300226,-0.000377654,0
0.5,4.2,0,0.300095,-0.000364629,0
0.5,4.3,0,0.3001,-0.00035344,0
0.5,4.4,0,0.300232,-0.000325332,0
0.5,4.5,0,0.299899,-0.000327037,0
0.5,4.6,0,0.300235,-0.000297581,0
0.5,4.7,0,0.3001,-0.00028105,0
0.5,4.8,0,0.300098,-0.000269586,0
0.5,4.9,0,0.300232,-0.000243741,0
0.5,5,0,0.299898,-0.000240204,0
0.5,5.1,0,0.300229,-0.000211179,0
0.5,5.2,0,0.299899,-0.000202418,0
0.5,5.3,0,0.300225,-0.000174844,0
0.5,5.4,0,0.2999,-0.000166695,0
0.5,5.5,0,0.300221,-0.000139001,0
0.5,5.6,0,0.2999,-0.000130484,0
0.5,5.7,0,0.300218,-0.000103207,0
0.5,5.8,0,0.2999,-9.38305e-05,0
0.5,5.9,0,0.300216,-6.72891e-05,0
0.5,6,0,0.2999,-5.69492e-05,0
0.5,6.1,0,0.300216,-3.11628e-05,0
0.5,6.2,0,0.299899,-2.00488e-05,0
0.5,6.3,0,0.300217,5.21032e-06,0
0.5,6.4,0,0.299898,1.66607e-05,0
0.5,6.5,0,0.300218,4.187e-05,0
0.5,6.6,0,0.299896,5.29478e-05,0
0.5,6.7,0,0.300219,7.89593e-05,0
0.5,6.8,0,0.299895,8.88179e-05,0
0.5,6.9,0,0.300219,0.0001172,0
0.5,7,0,0.299894,0.000128748,0
0.5,7.1,0,0.300217,0.000149649,0
0.5,7.2,0,0.300183,0.000173425,0
0.5,7.3,0,0.299944,0.000180396,0
0.5,7.4,0,0.300209,0.000199565,0
0.5,7.5,0,0.300128,0.000223079,0
0.5,7.6,0,0.299992,0.000233985,0
0.5,7.7,0,0.300195,0.000250731,0
0.5,7.8,0,0.300074,0.000273135,0
0.5,7.9,0,0.300031,0.000284137,0
0.5,8,0,0.300175,0.00029981,0
0.5,8.1,0,0.300024,0.000322892,0
0.5,8.2,0,0.300058,0.000329978,0
0.5,8.3,0,0.300147,0.00034564,0
0.5,8.4,0,0.299982,0.000372186,0
0.5,8.5,0,0.300071,0.000370465,0
0.5,8.6,0,0.300116,0.000387591,0
0.5,8.7,0,0.299953,0.000421473,0
0.5,8.8,0,0.30007,0.000404445,0
0.5,8.9,0,0.300083,0.000425308,0
0.5,9,0,0.29995,0.000467239,0
0.5,9.1,0,0.300046,0.000436907,0
0.5,9.2,0,0.300035,0.000464209,0
0.5,9.3,0,0.299968,0.000500573,0
0.5,9.4,0,0.300018,0.000467987,0
0.5,9.5,0,0.300002,0.000503438,0
0.5,9.6,0,0.299974,0.000526903,0
0.5,9.7,0,0.299997,0.00049591,0
0.5,9.8,0,0.299984,0.000543437,0
0.5,9.9,0,0.299974,0.000546484,0
0.5,10,0,0.299982,0.000521233,0
0.5,10.1,0,0.299975,0.000584084,0
0.5,10.2,0,0.299971,0.000560138,0
0.5,10.3,0,0.299973,0.00054442,0
0.5,10.4,0,0.299973,0.000624737,0
0.5,10.5,0,0.299969,0.000568997,0
0.5,10.6,0,0.29997,0.000565753,0
0.5,10.7,0,0.299974,0.000664424,0
0.5,10.8,0,0.29997,0.000574214,0
0.5,10.9,0,0.299971,0.000590335,0
0.5,11,0,0.299975,0.000680521,0
0.5,11.1,0,0.299974,0.00059368,0
0.5,11.2,0,0.299975,0.000623698,0
0.5,11.3,0,0.299978,0.000682213,0
0.5,11.4,0,0.29998,0.000610884,0
0.5,11.5,0,0.299981,0.000655178,0
0.5,11.6,0,0.299983,0.000680686,0
0.5,11.7,0,0.299987,0.000625464,0
0.5,11.8,0,0.299985,0.000683849,0
0.5,11.9,0,0.299989,0.000676343,0
0.5,12,0,0.299995,0.000637059,0
0.5,12.1,0,0.299989,0.000709093,0
0.5,12.2,0,0.299996,0.000669398,0
0.5,12.3,0,0.300001,0.000645507,0
0.5,12.4,0,0.299992,0.000730662,0
0.5,12.5,0,0.300002,0.000659879,0
0.5,12.6,0,0.300005,0.000650489,0
0.5,12.7,0,0.299994,0.000810994,0
0.6,0,0,0.299988,-0.000963007,0
0.6,0.1,0,0.299992,-0.000847357,0
0.6,0.2,0,0.299991,-0.00084661,0
0.6,0.3,0,0.29999,-0.000844862,0
0.6,0.4,0,0.299989,-0.000842542,0
0.6,0.5,0,0.299986,-0.000922735,0
0.6,0.6,0,0.299987,-0.000837791,0
0.6,0.7,0,0.299986,-0.000833701,0
0.6,0.8,0,0.299984,-0.000832658,0
0.6,0.9,0,0.299985,-0.000826674,0
0.6,1,0,0.299985,-0.000902586,0
0.6,1.1,0,0.299984,-0.000819179,0
0.6,1.2,0,0.299983,-0.000811295,0
0.6,1.3,0,0.299984,-0.000811208,0
0.6,1.4,0,0.299984,-0.000801404,0
0.6,1.5,0,0.299984,-0.000867208,0
0.6,1.6,0,0.299987,-0.00079093,0
0.6,1.7,0,0.299986,-0.000779198,0
0.6,1.8,0,0.299994,-0.000779663,0
0.6,1.9,0,0.299992,-0.000766035,0
0.6,2,0,0.299977,-0.00081649,0
0.6,2.1,0,0.300001,-0.00075182,0
0.6,2.2,0,0.299998,-0.000736377,0
0.6,2.3,0,0.300013,-0.000736163,0
0.6,2.4,0,0.300009,-0.000719035,0
0.6,2.5,0,0.299961,-0.000751347,0
0.6,2.6,0,0.300023,-0.000699976,0
0.6,2.7,0,0.300017,-0.000681327,0
0.6,2.8,0,0.300038,-0.000678805,0
0.6,2.9,0,0.300031,-0.000658819,0
0.6,3,0,0.299936,-0.000674078,0
0.6,3.1,0,0.300047,-0.000634082,0
0.6,3.2,0,0.30004,-0.000612937,0
0.6,3.3,0,0.300062,-0.00060697,0
0.6,3.4,0,0.300055,-0.000584811,0
0.6,3.5,0,0.299909,-0.000587469,0
0.6,3.6,0,0.300067,-0.000554472,0
0.6,3.7,0,0.300061,-0.000531401,0
0.6,3.8,0,0.300076,-0.000522143,0
0.6,3.9,0,0.300072,-0.000498212,0
0.6,4,0,0.299889,-0.000493464,0
0.6,4.1,0,0.300078,-0.000463406,0
0.6,4.2,0,0.300075,-0.000438607,0
0.6,4.3,0,0.300081,-0.000427418,0
0.6,4.4,0,0.300079,-0.000401706,0
0.6,4.5,0,0.299879,-0.000392445,0
0.6,4.6,0,0.30008,-0.000364153,0
0.6,4.7,0,0.300079,-0.000337609,0
0.6,4.8,0,0.300078,-0.000326145,0
0.6,4.9,0,0.300078,-0.000300589,0
0.6,5,0,0.299878,-0.000288245,0
0.6,5.1,0,0.300076,-0.000259494,0
0.6,5.2,0,0.299879,-0.000242901,0
0.6,5.3,0,0.300075,-0.00021564,0
0.6,5.4,0,0.29988,-0.000200034,0
0.6,5.5,0,0.300073,-0.000172554,0
0.6,5.6,0,0.29988,-0.000156581,0
0.6,5.7,0,0.300071,-0.000129218,0
0.6,5.8,0,0.29988,-0.000112597,0
0.6,5.9,0,0.30007,-8.56074e-05,0
0.6,6,0,0.29988,-6.83391e-05,0
0.6,6.1,0,0.300069,-4.17971e-05,0
0.6,6.2,0,0.299879,-2.40586e-05,0
0.6,6.3,0,0.300069,2.10975e-06,0
0.6,6.4,0,0.299877,1.99928e-05,0
0.6,6.5,0,0.300069,4.60045e-05,0
0.6,6.6,0,0.299876,6.35373e-05,0
0.6,6.7,0,0.300069,8.99053e-05,0
0.6,6.8,0,0.299874,0.000106581,0
0.6,6.9,0,0.300068,0.000135589,0
0.6,7,0,0.299873,0.000154497,0
0.6,7.1,0,0.300067,0.000177374,0
0.6,7.2,0,0.300067,0.000203214,0
0.6,7.3,0,0.299923,0.000215964,0
0.6,7.4,0,0.300063,0.000239218,0
0.6,7.5,0,0.300065,0.000266987,0
0.6,7.6,0,0.299971,0.000280106,0
0.6,7.7,0,0.300058,0.000302795,0
0.6,7.8,0,0.300055,0.000329482,0
0.6,7.9,0,0.300012,0.000340484,0
0.6,8,0,0.30005,0.000364017,0
0.6,8.1,0,0.300006,0.000389124,0
0.6,8.2,0,0.300034,0.000397025,0
0.6,8.3,0,0.300039,0.000422186,0
0.6,8.4,0,0.299967,0.00044798,0
0.6,8.5,0,0.300021,0.000452664,0
0.6,8.6,0,0.300027,0.000476907,0
0.6,8.7,0,0.29994,0.00050648,0
0.6,8.8,0,0.300009,0.000504644,0
0.6,8.9,0,0.300014,0.000527809,0
0.6,9,0,0.299939,0.000561048,0
0.6,9.1,0,0.299997,0.000552762,0
0.6,9.2,0,0.300002,0.000574644,0
0.6,9.3,0,0.299959,0.000602697,0
0.6,9.4,0,0.299985,0.000596947,0
0.6,9.5,0,0.299989,0.000617326,0
0.6,9.6,0,0.299967,0.000636771,0
0.6,9.7,0,0.299977,0.000637237,0
0.6,9.8,0,0.299977,0.000660403,0
0.6,9.9,0,0.299968,0.00066345,0
0.6,10,0,0.29997,0.000673739,0
0.6,10.1,0,0.299969,0.000707447,0
0.6,10.2,0,0.299966,0.000691671,0
0.6,10.3,0,0.299967,0.000706588,0
0.6,10.4,0,0.299967,0.00075377,0
0.6,10.5,0,0.299965,0.000722913,0
0.6,10.6,0,0.299966,0.000735898,0
0.6,10.7,0,0.299969,0.00079839,0
0.6,10.8,0,0.299967,0.000750642,0
0.6,10.9,0,0.299967,0.00076173,0
0.6,11,0,0.29997,0.000818701,0
0.6,11.1,0,0.29997,0.000774822,0
0.6,11.2,0,0.299971,0.000784081,0
0.6,11.3,0,0.299974,0.000823911,0
0.6,11.4,0,0.299975,0.000795377,0
0.6,11.5,0,0.299977,0.000802881,0
0.6,11.6,0,0.299979,0.000825236,0
0.6,11.7,0,0.299981,0.00081218,0
0.6,11.8,0,0.299982,0.000830606,0
0.6,11.9,0,0.299986,0.0008231,0
0.6,12,0,0.299988,0.000825078,0
0.6,12.1,0,0.299987,0.000857427,0
0.6,12.2,0,0.299992,0.000831486,0
0.6,12.3,0,0.299994,0.000834046,0
0.6,12.4,0,0.29999,0.000879969,0
0.6,12.5,0,0.299997,0.000837981,0
0.6,12.6,0,0.299998,0.000838875,0
0.6,12.7,0,0.299992,0.000935536,0
0.7,0,0,0.299986,-0.00109506,0
0.7,0.1,0,0.299987,-0.00105601,0
0.7,0.2,0,0.299986,-0.00105526,0
0.7,0.3,0,0.299986,-0.00105366,0
0.7,0.4,0,0.299985,-0.00105134,0
0.7,0.5,0,0.299983,-0.00107652,0
0.7,0.6,0,0.299983,-0.00104548,0
0.7,0.7,0,0.299983,-0.00104139,0
0.7,0.8,0,0.299983,-0.00103769,0
0.7,0.9,0,0.299982,-0.0010317,0
0.7,1,0,0.299983,-0.00105302,0
0.7,1.1,0,0.299982,-0.00101996,0
0.7,1.2,0,0.299982,-0.00101207,0
0.7,1.3,0,0.299982,-0.00100615,0
0.7,1.4,0,0.299981,-0.000996344,0
0.7,1.5,0,0.299981,-0.00101174,0
0.7,1.6,0,0.299981,-0.000978496,0
0.7,1.7,0,0.29998,-0.000966764,0
0.7,1.8,0,0.299982,-0.000958466,0
0.7,1.9,0,0.29998,-0.000944838,0
0.7,2,0,0.299973,-0.000952572,0
0.7,2.1,0,0.299979,-0.00092072,0
0.7,2.2,0,0.299976,-0.000905276,0
0.7,2.3,0,0.299978,-0.000894348,0
0.7,2.4,0,0.299973,-0.00087722,0
0.7,2.5,0,0.299954,-0.000876572,0
0.7,2.6,0,0.299971,-0.000847015,0
0.7,2.7,0,0.299965,-0.000828366,0
0.7,2.8,0,0.299968,-0.000814647,0
0.7,2.9,0,0.299962,-0.000794662,0
0.7,3,0,0.299926,-0.000786424,0
0.7,3.1,0,0.299958,-0.000758996,0
0.7,3.2,0,0.299951,-0.000737851,0
0.7,3.3,0,0.299954,-0.000721427,0
0.7,3.4,0,0.299947,-0.000699268,0
0.7,3.5,0,0.299894,-0.000685381,0
0.7,3.6,0,0.299943,-0.000659001,0
0.7,3.7,0,0.299937,-0.00063593,0
0.7,3.8,0,0.299939,-0.000617176,0
0.7,3.9,0,0.299934,-0.000593245,0
0.7,4,0,0.29987,-0.000575708,0
0.7,4.1,0,0.299931,-0.000549157,0
0.7,4.2,0,0.299928,-0.000524358,0
0.7,4.3,0,0.299928,-0.000503792,0
0.7,4.4,0,0.299926,-0.00047808,0
0.7,4.5,0,0.299858,-0.000457852,0
0.7,4.6,0,0.299925,-0.000430726,0
0.7,4.7,0,0.299924,-0.000404182,0
0.7,4.8,0,0.299924,-0.000382994,0
0.7,4.9,0,0.299924,-0.000357438,0
0.7,5,0,0.299857,-0.000336286,0
0.7,5.1,0,0.299924,-0.000307809,0
0.7,5.2,0,0.299858,-0.000283384,0
0.7,5.3,0,0.299924,-0.000256436,0
0.7,5.4,0,0.29986,-0.000233373,0
0.7,5.5,0,0.299924,-0.000206108,0
0.7,5.6,0,0.29986,-0.000182678,0
0.7,5.7,0,0.299924,-0.00015523,0
0.7,5.8,0,0.29986,-0.000131363,0
0.7,5.9,0,0.299923,-0.000103926,0
0.7,6,0,0.29986,-7.97289e-05,0
0.7,6.1,0,0.299923,-5.24314e-05,0
0.7,6.2,0,0.299859,-2.80683e-05,0
0.7,6.3,0,0.299922,-9.9082e-07,0
0.7,6.4,0,0.299857,2.33249e-05,0
0.7,6.5,0,0.29992,5.01391e-05,0
0.7,6.6,0,0.299855,7.41269e-05,0
0.7,6.7,0,0.299919,0.000100851,0
0.7,6.8,0,0.299853,0.000124345,0
0.7,6.9,0,0.299918,0.000153979,0
0.7,7,0,0.299852,0.000180247,0