x,y,z,p
0,0,0,0.0328532
0,0.1,0,0.0587384
0,0.2,0,0.0846237
0,0.3,0,0.110509
0,0.4,0,0.14072
0,0.5,0,0.175257
0,0.6,0,0.209793
0,0.7,0,0.24433
0,0.8,0,0.277723
0,0.9,0,0.311116
0,1,0,0.344509
0,1.1,0,0.37736
0,1.2,0,0.409668
0,1.3,0,0.441976
0,1.4,0,0.474284
0,1.5,0,0.505277
0,1.6,0,0.536269
0,1.7,0,0.567262
0,1.8,0,0.597167
0,1.9,0,0.625983
0,2,0,0.654799
0,2.1,0,0.683615
0,2.2,0,0.711033
0,2.3,0,0.738451
0,2.4,0,0.765869
0,2.5,0,0.792225
0,2.6,0,0.817519
0,2.7,0,0.842813
0,2.8,0,0.868107
0,2.9,0,0.891002
0,3,0,0.913898
0,3.1,0,0.936793
0,3.2,0,0.958726
0,3.3,0,0.979695
0,3.4,0,1.00067
0,3.5,0,1.02164
0,3.6,0,1.04009
0,3.7,0,1.05854
0,3.8,0,1.077
0,3.9,0,1.09436
0,4,0,1.11062
0,4.1,0,1.12689
0,4.2,0,1.14315
0,4.3,0,1.15696
0,4.4,0,1.17077
0,4.5,0,1.18458
0,4.6,0,1.1972
0,4.7,0,1.20862
0,4.8,0,1.22005
0,4.9,0,1.23147
0,5,0,1.24045
0,5.1,0,1.24944
0,5.2,0,1.25842
0,5.3,0,1.26619
0,5.4,0,1.27273
0,5.5,0,1.27927
0,5.6,0,1.28581
0,5.7,0,1.28989
0,5.8,0,1.29398
0,5.9,0,1.29806
0,6,0,1.30092
0,6.1,0,1.30255
0,6.2,0,1.30418
0,6.3,0,1.30581
0,6.4,0,1.30493
0,6.5,0,1.30406
0,6.6,0,1.30318
0,6.7,0,1.30143
0,6.8,0,1.29882
0,6.9,0,1.2962
0,7,0,1.29358
0,7.1,0,1.28579
0,7.2,0,1.28006
0,7.3,0,1.27365
0,7.4,0,1.26658
0,7.5,0,1.25882
0,7.6,0,1.2504
0,7.7,0,1.24128
0,7.8,0,1.23151
0,7.9,0,1.22106
0,8,0,1.20613
0,8.1,0,1.19542
0,8.2,0,1.18471
0,8.3,0,1.17188
0,8.4,0,1.15791
0,8.5,0,1.14344
0,8.6,0,1.12781
0,8.7,0,1.11219
0,8.8,0,1.09504
0,8.9,0,1.07781
0,9,0,1.05963
0,9.1,0,1.04082
0,9.2,0,1.02163
0,9.3,0,1.00131
0,9.4,0,0.980987
0,9.5,0,0.959208
0,9.6,0,0.937266
0,9.7,0,0.91462
0,9.8,0,0.891397
0,9.9,0,0.867839
0,10,0,0.842941
0,10.1,0,0.818043
0,10.2,0,0.792114
0,10.3,0,0.766003
0,10.4,0,0.739254
0,10.5,0,0.711867
0,10.6,0,0.684242
0,10.7,0,0.655274
0,10.8,0,0.626306
0,10.9,0,0.596605
0,11,0,0.56672
0,11.1,0,0.536303
0,11.2,0,0.505237
0,11.3,0,0.474093
0,11.4,0,0.442246
0,11.5,0,0.410399
0,11.6,0,0.377717
0,11.7,0,0.344757
0,11.8,0,0.311428
0,11.9,0,0.277548
0,12,0,0.243658
0,12.1,0,0.209559
0,12.2,0,0.175461
0,12.3,0,0.140801
0,12.4,0,0.105901
0,12.5,0,0.0741339
0,12.6,0,0.0481862
0,12.7,0,0.0222385
0.1,0,0,0.0277988
0.1,0.1,0,0.0537799
0.1,0.2,0,0.0796651
0.1,0.3,0,0.105938
0.1,0.4,0,0.141032
0.1,0.5,0,0.175557
0.1,0.6,0,0.210093
0.1,0.7,0,0.245158
0.1,0.8,0,0.278039
0.1,0.9,0,0.311432
0.1,1,0,0.344891
0.1,1.1,0,0.377698
0.1,1.2,0,0.409937
0.1,1.3,0,0.442245
0.1,1.4,0,0.475856
0.1,1.5,0,0.505716
0.1,1.6,0,0.536709
0.1,1.7,0,0.567792
0.1,1.8,0,0.597968
0.1,1.9,0,0.626715
0.1,2,0,0.655531
0.1,2.1,0,0.685556
0.1,2.2,0,0.711054
0.1,2.3,0,0.738472
0.1,2.4,0,0.766039
0.1,2.5,0,0.79342
0.1,2.6,0,0.818643
0.1,2.7,0,0.843937
0.1,2.8,0,0.87029
0.1,2.9,0,0.89117
0.1,3,0,0.914066
0.1,3.1,0,0.937116
0.1,3.2,0,0.959699
0.1,3.3,0,0.980564
0.1,3.4,0,1.00153
0.1,3.5,0,1.02402
0.1,3.6,0,1.04058
0.1,3.7,0,1.05903
0.1,3.8,0,1.07763
0.1,3.9,0,1.09518
0.1,4,0,1.11131
0.1,4.1,0,1.12758
0.1,4.2,0,1.14566
0.1,4.3,0,1.15759
0.1,4.4,0,1.1714
0.1,4.5,0,1.18535
0.1,4.6,0,1.19799
0.1,4.7,0,1.20928
0.1,4.8,0,1.22071
0.1,4.9,0,1.23403
0.1,5,0,1.24111
0.1,5.1,0,1.25009
0.1,5.2,0,1.25921
0.1,5.3,0,1.26698
0.1,5.4,0,1.27339
0.1,5.5,0,1.27993
0.1,5.6,0,1.28839
0.1,5.7,0,1.29056
0.1,5.8,0,1.29464
0.1,5.9,0,1.29886
0.1,6,0,1.30171
0.1,6.1,0,1.3032
0.1,6.2,0,1.30484
0.1,6.3,0,1.30834
0.1,6.4,0,1.30563
0.1,6.5,0,1.30475
0.1,6.6,0,1.304
0.1,6.7,0,1.30184
0.1,6.8,0,1.29906
0.1,6.9,0,1.29644
0.1,7,0,1.29604
0.1,7.1,0,1.28823
0.1,7.2,0,1.28249
0.1,7.3,0,1.27608
0.1,7.4,0,1.26899
0.1,7.5,0,1.26123
0.1,7.6,0,1.25279
0.1,7.7,0,1.24368
0.1,7.8,0,1.23389
0.1,7.9,0,1.22343
0.1,8,0,1.20849
0.1,8.1,0,1.19629
0.1,8.2,0,1.18563
0.1,8.3,0,1.17218
0.1,8.4,0,1.15821
0.1,8.5,0,1.14408
0.1,8.6,0,1.12811
0.1,8.7,0,1.11424
0.1,8.8,0,1.09533
0.1,8.9,0,1.0781
0.1,9,0,1.05992
0.1,9.1,0,1.0411
0.1,9.2,0,1.02251
0.1,9.3,0,1.00156
0.1,9.4,0,0.982688
0.1,9.5,0,0.959536
0.1,9.6,0,0.937595
0.1,9.7,0,0.914755
0.1,9.8,0,0.891532
0.1,9.9,0,0.869054
0.1,10,0,0.843412
0.1,10.1,0,0.819466
0.1,10.2,0,0.792082
0.1,10.3,0,0.765971
0.1,10.4,0,0.739748
0.1,10.5,0,0.712361
0.1,10.6,0,0.685372
0.1,10.7,0,0.655351
0.1,10.8,0,0.627145
0.1,10.9,0,0.596859
0.1,11,0,0.566974
0.1,11.1,0,0.536476
0.1,11.2,0,0.50541
0.1,11.3,0,0.475206
0.1,11.4,0,0.442356
0.1,11.5,0,0.410861
0.1,11.6,0,0.37801
0.1,11.7,0,0.345049
0.1,11.8,0,0.311468
0.1,11.9,0,0.277588
0.1,12,0,0.244432
0.1,12.1,0,0.209598
0.1,12.2,0,0.175592
0.1,12.3,0,0.141052
0.1,12.4,0,0.106152
0.1,12.5,0,0.0707669
0.1,12.6,0,0.0446985
0.1,12.7,0,0.0188172
0.2,0,0,0.0227445
0.2,0.1,0,0.0488076
0.2,0.2,0,0.0747066
0.2,0.3,0,0.106405
0.2,0.4,0,0.141499
0.2,0.5,0,0.175857
0.2,0.6,0,0.210469
0.2,0.7,0,0.245985
0.2,0.8,0,0.278428
0.2,0.9,0,0.311748
0.2,1,0,0.346127
0.2,1.1,0,0.378934
0.2,1.2,0,0.410205
0.2,1.3,0,0.442699
0.2,1.4,0,0.477428
0.2,1.5,0,0.506318
0.2,1.6,0,0.537149
0.2,1.7,0,0.569497
0.2,1.8,0,0.599673
0.2,1.9,0,0.627447
0.2,2,0,0.656436
0.2,2.1,0,0.687496
0.2,2.2,0,0.711348
0.2,2.3,0,0.738492
0.2,2.4,0,0.768154
0.2,2.5,0,0.795534
0.2,2.6,0,0.819766
0.2,2.7,0,0.845211
0.2,2.8,0,0.872473
0.2,2.9,0,0.891626
0.2,3,0,0.914234
0.2,3.1,0,0.93946
0.2,3.2,0,0.962043
0.2,3.3,0,0.981433
0.2,3.4,0,1.00262
0.2,3.5,0,1.02641
0.2,3.6,0,1.04133
0.2,3.7,0,1.05952
0.2,3.8,0,1.0801
0.2,3.9,0,1.09765
0.2,4,0,1.11201
0.2,4.1,0,1.12853
0.2,4.2,0,1.14816
0.2,4.3,0,1.15849
0.2,4.4,0,1.17203
0.2,4.5,0,1.18789
0.2,4.6,0,1.20053
0.2,4.7,0,1.20994
0.2,4.8,0,1.22164
0.2,4.9,0,1.2366
0.2,5,0,1.24204
0.2,5.1,0,1.25075
0.2,5.2,0,1.26179
0.2,5.3,0,1.26956
0.2,5.4,0,1.27405
0.2,5.5,0,1.28086
0.2,5.6,0,1.29096
0.2,5.7,0,1.29149
0.2,5.8,0,1.2953
0.2,5.9,0,1.30142
0.2,6,0,1.30427
0.2,6.1,0,1.30386
0.2,6.2,0,1.30576
0.2,6.3,0,1.31087
0.2,6.4,0,1.30658
0.2,6.5,0,1.30544
0.2,6.6,0,1.30649
0.2,6.7,0,1.30432
0.2,6.8,0,1.2993
0.2,6.9,0,1.297
0.2,7,0,1.29851
0.2,7.1,0,1.29066
0.2,7.2,0,1.28491
0.2,7.3,0,1.2785
0.2,7.4,0,1.27141
0.2,7.5,0,1.26364
0.2,7.6,0,1.25519
0.2,7.7,0,1.24607
0.2,7.8,0,1.23627
0.2,7.9,0,1.22581
0.2,8,0,1.21086
0.2,8.1,0,1.19717
0.2,8.2,0,1.18799
0.2,8.3,0,1.1729
0.2,8.4,0,1.15864
0.2,8.5,0,1.14643
0.2,8.6,0,1.1284
0.2,8.7,0,1.11657
0.2,8.8,0,1.09562
0.2,8.9,0,1.0802
0.2,9,0,1.06089
0.2,9.1,0,1.04139
0.2,9.2,0,1.02479
0.2,9.3,0,1.00182
0.2,9.4,0,0.984941
0.2,9.5,0,0.959865
0.2,9.6,0,0.939349
0.2,9.7,0,0.915886
0.2,9.8,0,0.891667
0.2,9.9,0,0.871189
0.2,10,0,0.843883
0.2,10.1,0,0.821564
0.2,10.2,0,0.79205
0.2,10.3,0,0.767174
0.2,10.4,0,0.741153
0.2,10.5,0,0.712855
0.2,10.6,0,0.687249
0.2,10.7,0,0.655429
0.2,10.8,0,0.628928
0.2,10.9,0,0.597113
0.2,11,0,0.567885
0.2,11.1,0,0.537746
0.2,11.2,0,0.505583
0.2,11.3,0,0.476703
0.2,11.4,0,0.442465
0.2,11.5,0,0.412114
0.2,11.6,0,0.378302
0.2,11.7,0,0.345605
0.2,11.8,0,0.312425
0.2,11.9,0,0.277628
0.2,12,0,0.245325
0.2,12.1,0,0.209637
0.2,12.2,0,0.176168
0.2,12.3,0,0.141324
0.2,12.4,0,0.106412
0.2,12.5,0,0.0710624
0.2,12.6,0,0.0412108
0.2,12.7,0,0.0153959
0.3,0,0,0.0176902
0.3,0.1,0,0.0437533
0.3,0.2,0,0.0709108
0.3,0.3,0,0.106873
0.3,0.4,0,0.141967
0.3,0.5,0,0.176193
0.3,0.6,0,0.211296
0.3,0.7,0,0.246813
0.3,0.8,0,0.279255
0.3,0.9,0,0.312261
0.3,1,0,0.347363
0.3,1.1,0,0.38017
0.3,1.2,0,0.410681
0.3,1.3,0,0.444271
0.3,1.4,0,0.479
0.3,1.5,0,0.50789
0.3,1.6,0,0.537859
0.3,1.7,0,0.571202
0.3,1.8,0,0.601378
0.3,1.9,0,0.628388
0.3,2,0,0.658377
0.3,2.1,0,0.689437
0.3,2.2,0,0.713289
0.3,2.3,0,0.738961
0.3,2.4,0,0.770269
0.3,2.5,0,0.797649
0.3,2.6,0,0.821102
0.3,2.7,0,0.847395
0.3,2.8,0,0.874657
0.3,2.9,0,0.89381
0.3,3,0,0.914868
0.3,3.1,0,0.941803
0.3,3.2,0,0.964386
0.3,3.3,0,0.982617
0.3,3.4,0,1.00501
0.3,3.5,0,1.0288
0.3,3.6,0,1.04372
0.3,3.7,0,1.06043
0.3,3.8,0,1.08256
0.3,3.9,0,1.10012
0.3,4,0,1.11308
0.3,4.1,0,1.13104
0.3,4.2,0,1.15067
0.3,4.3,0,1.16099
0.3,4.4,0,1.17307
0.3,4.5,0,1.19042
0.3,4.6,0,1.20307
0.3,4.7,0,1.211
0.3,4.8,0,1.2242
0.3,4.9,0,1.23916
0.3,5,0,1.2446
0.3,5.1,0,1.25181
0.3,5.2,0,1.26436
0.3,5.3,0,1.27213
0.3,5.4,0,1.27512
0.3,5.5,0,1.28344
0.3,5.6,0,1.29354
0.3,5.7,0,1.29407
0.3,5.8,0,1.29637
0.3,5.9,0,1.30398
0.3,6,0,1.30683
0.3,6.1,0,1.30493
0.3,6.2,0,1.30829
0.3,6.3,0,1.31339
0.3,6.4,0,1.30911
0.3,6.5,0,1.30652
0.3,6.6,0,1.30898
0.3,6.7,0,1.30681
0.3,6.8,0,1.30002
0.3,6.9,0,1.29946
0.3,7,0,1.30097
0.3,7.1,0,1.2931
0.3,7.2,0,1.28734
0.3,7.3,0,1.28092
0.3,7.4,0,1.27382
0.3,7.5,0,1.26604
0.3,7.6,0,1.25759
0.3,7.7,0,1.24846
0.3,7.8,0,1.23865
0.3,7.9,0,1.22818
0.3,8,0,1.21322
0.3,8.1,0,1.19839
0.3,8.2,0,1.19035
0.3,8.3,0,1.17526
0.3,8.4,0,1.16099
0.3,8.5,0,1.14878
0.3,8.6,0,1.12889
0.3,8.7,0,1.1189
0.3,8.8,0,1.09666
0.3,8.9,0,1.08252
0.3,9,0,1.06321
0.3,9.1,0,1.04352
0.3,9.2,0,1.02708
0.3,9.3,0,1.00208
0.3,9.4,0,0.987193
0.3,9.5,0,0.961175
0.3,9.6,0,0.941566
0.3,9.7,0,0.918103
0.3,9.8,0,0.893376
0.3,9.9,0,0.873324
0.3,10,0,0.844354
0.3,10.1,0,0.823662
0.3,10.2,0,0.7934
0.3,10.3,0,0.769144
0.3,10.4,0,0.743123
0.3,10.5,0,0.714246
0.3,10.6,0,0.689126
0.3,10.7,0,0.655506
0.3,10.8,0,0.630711
0.3,10.9,0,0.598571
0.3,11,0,0.56951
0.3,11.1,0,0.539371
0.3,11.2,0,0.506432
0.3,11.3,0,0.478199
0.3,11.4,0,0.442575
0.3,11.5,0,0.413367
0.3,11.6,0,0.379484
0.3,11.7,0,0.346671
0.3,11.8,0,0.313491
0.3,11.9,0,0.277986
0.3,12,0,0.246218
0.3,12.1,0,0.209758
0.3,12.2,0,0.176744
0.3,12.3,0,0.1419
0.3,12.4,0,0.106707
0.3,12.5,0,0.071358
0.3,12.6,0,0.0377387
0.3,12.7,0,0.0119746
0.4,0,0,0.0126358
0.4,0.1,0,0.038699
0.4,0.2,0,0.0713508
0.4,0.3,0,0.10734
0.4,0.4,0,0.142434
0.4,0.5,0,0.176811
0.4,0.6,0,0.212124
0.4,0.7,0,0.247641
0.4,0.8,0,0.280083
0.4,0.9,0,0.313643
0.4,1,0,0.348599
0.4,1.1,0,0.381406
0.4,1.2,0,0.41229
0.4,1.3,0,0.445843
0.4,1.4,0,0.480572
0.4,1.5,0,0.509462
0.4,1.6,0,0.539888
0.4,1.7,0,0.572906
0.4,1.8,0,0.603083
0.4,1.9,0,0.630438
0.4,2,0,0.660317
0.4,2.1,0,0.691377
0.4,2.2,0,0.715229
0.4,2.3,0,0.741625
0.4,2.4,0,0.772383
0.4,2.5,0,0.799764
0.4,2.6,0,0.82352
0.4,2.7,0,0.849578
0.4,2.8,0,0.87684
0.4,2.9,0,0.895993
0.4,3,0,0.917787
0.4,3.1,0,0.944146
0.4,3.2,0,0.966729
0.4,3.3,0,0.985395
0.4,3.4,0,1.0074
0.4,3.5,0,1.03119
0.4,3.6,0,1.04611
0.4,3.7,0,1.06344
0.4,3.8,0,1.08503
0.4,3.9,0,1.10259
0.4,4,0,1.11607
0.4,4.1,0,1.13354
0.4,4.2,0,1.15318
0.4,4.3,0,1.1635
0.4,4.4,0,1.17614
0.4,4.5,0,1.19296
0.4,4.6,0,1.20561
0.4,4.7,0,1.21408
0.4,4.8,0,1.22676
0.4,4.9,0,1.24173
0.4,5,0,1.24716
0.4,5.1,0,1.25493
0.4,5.2,0,1.26694
0.4,5.3,0,1.27471
0.4,5.4,0,1.27824
0.4,5.5,0,1.28602
0.4,5.6,0,1.29612
0.4,5.7,0,1.29665
0.4,5.8,0,1.29948
0.4,5.9,0,1.30654
0.4,6,0,1.30939
0.4,6.1,0,1.30802
0.4,6.2,0,1.31082
0.4,6.3,0,1.31592
0.4,6.4,0,1.31164
0.4,6.5,0,1.30954
0.4,6.6,0,1.31147
0.4,6.7,0,1.3093
0.4,6.8,0,1.30315
0.4,6.9,0,1.30193
0.4,7,0,1.30343
0.4,7.1,0,1.29553
0.4,7.2,0,1.28977
0.4,7.3,0,1.28334
0.4,7.4,0,1.27624
0.4,7.5,0,1.26845
0.4,7.6,0,1.25999
0.4,7.7,0,1.25085
0.4,7.8,0,1.24104
0.4,7.9,0,1.23056
0.4,8,0,1.21559
0.4,8.1,0,1.20115
0.4,8.2,0,1.19271
0.4,8.3,0,1.17762
0.4,8.4,0,1.16334
0.4,8.5,0,1.15113
0.4,8.6,0,1.13205
0.4,8.7,0,1.12123
0.4,8.8,0,1.09925
0.4,8.9,0,1.08483
0.4,9,0,1.06553
0.4,9.1,0,1.04581
0.4,9.2,0,1.02937
0.4,9.3,0,1.00535
0.4,9.4,0,0.989446
0.4,9.5,0,0.963428
0.4,9.6,0,0.943783
0.4,9.7,0,0.92032
0.4,9.8,0,0.895512
0.4,9.9,0,0.875459
0.4,10,0,0.847291
0.4,10.1,0,0.82576
0.4,10.2,0,0.795498
0.4,10.3,0,0.771114
0.4,10.4,0,0.745093
0.4,10.5,0,0.716123
0.4,10.6,0,0.691003
0.4,10.7,0,0.658219
0.4,10.8,0,0.632494
0.4,10.9,0,0.600354
0.4,11,0,0.571135
0.4,11.1,0,0.540997
0.4,11.2,0,0.507928
0.4,11.3,0,0.479696
0.4,11.4,0,0.444633
0.4,11.5,0,0.41462
0.4,11.6,0,0.380737
0.4,11.7,0,0.347737
0.4,11.8,0,0.314557
0.4,11.9,0,0.27901
0.4,12,0,0.247111
0.4,12.1,0,0.210869
0.4,12.2,0,0.177321
0.4,12.3,0,0.142477
0.4,12.4,0,0.107003
0.4,12.5,0,0.0716535
0.4,12.6,0,0.0353236
0.4,12.7,0,0.00855326
0.5,0,0,0.0075815
0.5,0.1,0,0.0355825
0.5,0.2,0,0.0717224
0.5,0.3,0,0.107808
0.5,0.4,0,0.142902
0.5,0.5,0,0.177806
0.5,0.6,0,0.213012
0.5,0.7,0,0.248468
0.5,0.8,0,0.281239
0.5,0.9,0,0.315391
0.5,1,0,0.349835
0.5,1.1,0,0.382642
0.5,1.2,0,0.414829
0.5,1.3,0,0.447761
0.5,1.4,0,0.482144
0.5,1.5,0,0.511485
0.5,1.6,0,0.542725
0.5,1.7,0,0.574611
0.5,1.8,0,0.604787
0.5,1.9,0,0.633351
0.5,2,0,0.662605
0.5,2.1,0,0.693318
0.5,2.2,0,0.717918
0.5,2.3,0,0.745659
0.5,2.4,0,0.774498
0.5,2.5,0,0.801878
0.5,2.6,0,0.826694
0.5,2.7,0,0.852115
0.5,2.8,0,0.879023
0.5,2.9,0,0.898953
0.5,3,0,0.922145
0.5,3.1,0,0.94649
0.5,3.2,0,0.969073
0.5,3.3,0,0.989259
0.5,3.4,0,1.01031
0.5,3.5,0,1.03358
0.5,3.6,0,1.04921
0.5,3.7,0,1.06781
0.5,3.8,0,1.0875
0.5,3.9,0,1.10506
0.5,4,0,1.12035
0.5,4.1,0,1.13669
0.5,4.2,0,1.15568
0.5,4.3,0,1.16669
0.5,4.4,0,1.18056
0.5,4.5,0,1.1955
0.5,4.6,0,1.20814
0.5,4.7,0,1.21853
0.5,4.8,0,1.23
0.5,4.9,0,1.24429
0.5,5,0,1.25041
0.5,5.1,0,1.25942
0.5,5.2,0,1.26951
0.5,5.3,0,1.27728
0.5,5.4,0,1.28273
0.5,5.5,0,1.28928
0.5,5.6,0,1.2987
0.5,5.7,0,1.2999
0.5,5.8,0,1.30396
0.5,5.9,0,1.3091
0.5,6,0,1.31196
0.5,6.1,0,1.31246
0.5,6.2,0,1.31402
0.5,6.3,0,1.31845
0.5,6.4,0,1.31481
0.5,6.5,0,1.31386
0.5,6.6,0,1.31396
0.5,6.7,0,1.3118
0.5,6.8,0,1.30786
0.5,6.9,0,1.30519
0.5,7,0,1.30589
0.5,7.1,0,1.29797
0.5,7.2,0,1.2922
0.5,7.3,0,1.28576
0.5,7.4,0,1.27865
0.5,7.5,0,1.27086
0.5,7.6,0,1.26239
0.5,7.7,0,1.25324
0.5,7.8,0,1.24342
0.5,7.9,0,1.23293
0.5,8,0,1.21795
0.5,8.1,0,1.205
0.5,8.2,0,1.19507
0.5,8.3,0,1.18059
0.5,8.4,0,1.16659
0.5,8.5,0,1.15347
0.5,8.6,0,1.13643
0.5,8.7,0,1.12356
0.5,8.8,0,1.10361
0.5,8.9,0,1.08715
0.5,9,0,1.06816
0.5,9.1,0,1.04926
0.5,9.2,0,1.03165
0.5,9.3,0,1.00963
0.5,9.4,0,0.991699
0.5,9.5,0,0.967549
0.5,9.6,0,0.945999
0.5,9.7,0,0.922579
0.5,9.8,0,0.899131
0.5,9.9,0,0.877594
0.5,10,0,0.851053
0.5,10.1,0,0.827858
0.5,10.2,0,0.7993
0.5,10.3,0,0.773085
0.5,10.4,0,0.747063
0.5,10.5,0,0.719256
0.5,10.6,0,0.69288
0.5,10.7,0,0.661801
0.5,10.8,0,0.634277
0.5,10.9,0,0.603114
0.5,11,0,0.572793
0.5,11.1,0,0.542622
0.5,11.2,0,0.510862
0.5,11.3,0,0.481193
0.5,11.4,0,0.447273
0.5,11.5,0,0.415873
0.5,11.6,0,0.382434
0.5,11.7,0,0.348957
0.5,11.8,0,0.315623
0.5,11.9,0,0.280929
0.5,12,0,0.248004
0.5,12.1,0,0.212299
0.5,12.2,0,0.177897
0.5,12.3,0,0.143073
0.5,12.4,0,0.107395
0.5,12.5,0,0.071949
0.5,12.6,0,0.0356854
0.5,12.7,0,0.00513195
0.6,0,0,0.00252717
0.6,0.1,0,0.0359541
0.6,0.2,0,0.072094
0.6,0.3,0,0.108234
0.6,0.4,0,0.143595
0.6,0.5,0,0.178801
0.6,0.6,0,0.214007
0.6,0.7,0,0.249296
0.6,0.8,0,0.282987
0.6,0.9,0,0.317139
0.6,1,0,0.351291
0.6,1.1,0,0.384437
0.6,1.2,0,0.417369
0.6,1.3,0,0.4503
0.6,1.4,0,0.483716
0.6,1.5,0,0.514322
0.6,1.6,0,0.545562
0.6,1.7,0,0.576801
0.6,1.8,0,0.60701
0.6,1.9,0,0.636264
0.6,2,0,0.665518
0.6,2.1,0,0.695259
0.6,2.2,0,0.721953
0.6,2.3,0,0.749694
0.6,2.4,0,0.777436
0.6,2.5,0,0.804447
0.6,2.6,0,0.829868
0.6,2.7,0,0.85529
0.6,2.8,0,0.881206
0.6,2.9,0,0.903311
0.6,3,0,0.926504
0.6,3.1,0,0.949696
0.6,3.2,0,0.972068
0.6,3.3,0,0.993123
0.6,3.4,0,1.01418
0.6,3.5,0,1.03597
0.6,3.6,0,1.05358
0.6,3.7,0,1.07219
0.6,3.8,0,1.09079
0.6,3.9,0,1.1083
0.6,4,0,1.12464
0.6,4.1,0,1.14097
0.6,4.2,0,1.15819
0.6,4.3,0,1.1711
0.6,4.4,0,1.18497
0.6,4.5,0,1.19884
0.6,4.6,0,1.2115
0.6,4.7,0,1.22297
0.6,4.8,0,1.23444
0.6,4.9,0,1.24686
0.6,5,0,1.2549
0.6,5.1,0,1.2639
0.6,5.2,0,1.27291
0.6,5.3,0,1.28068
0.6,5.4,0,1.28722
0.6,5.5,0,1.29377
0.6,5.6,0,1.30127
0.6,5.7,0,1.30438
0.6,5.8,0,1.30843
0.6,5.9,0,1.31249
0.6,6,0,1.31532
0.6,6.1,0,1.31689
0.6,6.2,0,1.31846
0.6,6.3,0,1.32098
0.6,6.4,0,1.31913
0.6,6.5,0,1.31818
0.6,6.6,0,1.31724
0.6,6.7,0,1.31524
0.6,6.8,0,1.31257
0.6,6.9,0,1.3099
0.6,7,0,1.30836
0.6,7.1,0,1.3004
0.6,7.2,0,1.29462
0.6,7.3,0,1.28818
0.6,7.4,0,1.28107
0.6,7.5,0,1.27326
0.6,7.6,0,1.26479
0.6,7.7,0,1.25563
0.6,7.8,0,1.2458
0.6,7.9,0,1.23531
0.6,8,0,1.22032
0.6,8.1,0,1.20885
0.6,8.2,0,1.19813
0.6,8.3,0,1.185
0.6,8.4,0,1.17099
0.6,8.5,0,1.15649
0.6,8.6,0,1.14082
0.6,8.7,0,1.12588
0.6,8.8,0,1.10797
0.6,8.9,0,1.0907
0.6,9,0,1.07248
0.6,9.1,0,1.05358
0.6,9.2,0,1.03432
0.6,9.3,0,1.01391
0.6,9.4,0,0.993951
0.6,9.5,0,0.97169
0.6,9.6,0,0.949649
0.6,9.7,0,0.926796
0.6,9.8,0,0.903348
0.6,9.9,0,0.879816
0.6,10,0,0.854815
0.6,10.1,0,0.829956
0.6,10.2,0,0.803401
0.6,10.3,0,0.776936
0.6,10.4,0,0.750255
0.6,10.5,0,0.72261
0.6,10.6,0,0.694757
0.6,10.7,0,0.665384
0.6,10.8,0,0.636156
0.6,10.9,0,0.606268
0.6,11,0,0.575948
0.6,11.1,0,0.545234
0.6,11.2,0,0.513811
0.6,11.3,0,0.482689
0.6,11.4,0,0.449913
0.6,11.5,0,0.417392
0.6,11.6,0,0.38446
0.6,11.7,0,0.350983
0.6,11.8,0,0.317207
0.6,11.9,0,0.282848
0.6,12,0,0.248897
0.6,12.1,0,0.213729
0.6,12.2,0,0.178755
0.6,12.3,0,0.143694
0.6,12.4,0,0.108016
0.6,12.5,0,0.0722756
0.6,12.6,0,0.0360473
0.6,12.7,0,0.00171065
0.7,0,0,0
0.7,0.1,0,0.0366516
0.7,0.2,0,0.0727915
0.7,0.3,0,0.108931
0.7,0.4,0,0.144767
0.7,0.5,0,0.179973
0.7,0.6,0,0.215179
0.7,0.7,0,0.25041
0.7,0.8,0,0.285126
0.7,0.9,0,0.319278
0.7,1,0,0.353429
0.7,1.1,0,0.387243
0.7,1.2,0,0.420175
0.7,1.3,0,0.453106
0.7,1.4,0,0.486128
0.7,1.5,0,0.517804
0.7,1.6,0,0.549043
0.7,1.7,0,0.580283
0.7,1.8,0,0.610347
0.7,1.9,0,0.639601
0.7,2,0,0.668856
0.7,2.1,0,0.698373
0.7,2.2,0,0.726378
0.7,2.3,0,0.75412
0.7,2.4,0,0.781861
0.7,2.5,0,0.808481
0.7,2.6,0,0.833902
0.7,2.7,0,0.859323
0.7,2.8,0,0.884749
0.7,2.9,0,0.908011
0.7,3,0,0.931203
0.7,3.1,0,0.954396
0.7,3.2,0,0.976741
0.7,3.3,0,0.997797
0.7,3.4,0,1.01885
0.7,3.5,0,1.03984
0.7,3.6,0,1.05847
0.7,3.7,0,1.07707
0.7,3.8,0,1.09567
0.7,3.9,0,1.1133
0.7,4,0,1.12963
0.7,4.1,0,1.14596
0.7,4.2,0,1.16226
0.7,4.3,0,1.17613
0.7,4.4,0,1.19
0.7,4.5,0,1.20387
0.7,4.6,0,1.21662
0.7,4.7,0,1.22809
0.7,4.8,0,1.23956
0.7,4.9,0,1.25104
0.7,5,0,1.26004
0.7,5.1,0,1.26904
0.7,5.2,0,1.27804
0.7,5.3,0,1.28584
0.7,5.4,0,1.29239
0.7,5.5,0,1.29893
0.7,5.6,0,1.30549
0.7,5.7,0,1.30953
0.7,5.8,0,1.31358
0.7,5.9,0,1.31763
0.7,6,0,1.32042
0.7,6.1,0,1.32199
0.7,6.2,0,1.32356
0.7,6.3,0,1.32516
0.7,6.4,0,1.32414
0.7,6.5,0,1.32319
0.7,6.6,0,1.32225
0.7,6.7,0,1.32019
0.7,6.8,0,1.31752
0.7,6.9,0,1.31485
0.7,7,0,1.31252
0.7,7.1,0,1.30456
0.7,7.2,0,1.29879
0.7,7.3,0,1.29235
0.7,7.4,0,1.28523
0.7,7.5,0,1.27742
0.7,7.6,0,1.26893
0.7,7.7,0,1.25976
0.7,7.8,0,1.24992
0.7,7.9,0,1.2394
0.7,8,0,1.22438
0.7,8.1,0,1.21358
0.7,8.2,0,1.20286
0.7,8.3,0,1.18971
0.7,8.4,0,1.1757
0.7,8.5,0,1.16118
0.7,8.6,0,1.1455
0.7,8.7,0,1.13002
0.7,8.8,0,1.1126
0.7,8.9,0,1.09534
0.7,9,0,1.07711
0.7,9.1,0,1.05821
0.7,9.2,0,1.03883
0.7,9.3,0,1.01842
0.7,9.4,0,0.998112
0.7,9.5,0,0.976188
0.7,9.6,0,0.954147
0.7,9.7,0,0.931165
0.7,9.8,0,0.907717
0.7,9.9,0,0.883987
0.7,10,0,0.858987
0.7,10.1,0,0.833998
0.7,10.2,0,0.807621
0.7,10.3,0,0.781157
0.7,10.4,0,0.753914
0.7,10.5,0,0.726269
0.7,10.6,0,0.698467
0.7,10.7,0,0.669233
0.7,10.8,0,0.640005
0.7,10.9,0,0.609552
0.7,11,0,0.579231
0.7,11.1,0,0.548452
0.7,11.2,0,0.517029
0.7,11.3,0,0.48524
0.7,11.4,0,0.452681
0.7,11.5,0,0.42016
0.7,11.6,0,0.386704
0.7,11.7,0,0.353226
0.7,11.8,0,0.319227
0.7,11.9,0,0.284868
0.7,12,0,0.250219
0.7,12.1,0,0.215281
0.7,12.2,0,0.180307
0.7,12.3,0,0.144448
0.7,12.4,0,0.10877
0.7,12.5,0,0.0727035
0.7,12.6,0,0.0364752
0.7,12.7,0,0
0.8,0,0,0
0.8,0.1,0,0.0376749
0.8,0.2,0,0.0738148
0.8,0.3,0,0.109776
0.8,0.4,0,0.145751
0.8,0.5,0,0.181322
0.8,0.6,0,0.216528
0.8,0.7,0,0.251809
0.8,0.8,0,0.287655
0.8,0.9,0,0.321806
0.8,1,0,0.355893
0.8,1.1,0,0.389939
0.8,1.2,0,0.423247
0.8,1.3,0,0.456179
0.8,1.4,0,0.48938
0.8,1.5,0,0.52193
0.8,1.6,0,0.55317
0.8,1.7,0,0.584152
0.8,1.8,0,0.61406
0.8,1.9,0,0.643363
0.8,2,0,0.672617
0.8,2.1,0,0.70266
0.8,2.2,0,0.731194
0.8,2.3,0,0.758935
0.8,2.4,0,0.786568
0.8,2.5,0,0.81322
0.8,2.6,0,0.838794
0.8,2.7,0,0.864215
0.8,2.8,0,0.889651
0.8,2.9,0,0.913051
0.8,3,0,0.936244
0.8,3.1,0,0.959533
0.8,3.2,0,0.982069
0.8,3.3,0,1.00328
0.8,3.4,0,1.02434
0.8,3.5,0,1.04519
0.8,3.6,0,1.06386
0.8,3.7,0,1.08246
0.8,3.8,0,1.10116
0.8,3.9,0,1.11892
0.8,4,0,1.13534
0.8,4.1,0,1.15167
0.8,4.2,0,1.1679
0.8,4.3,0,1.18178
0.8,4.4,0,1.19565
0.8,4.5,0,1.20958
0.8,4.6,0,1.22239
0.8,4.7,0,1.23389
0.8,4.8,0,1.24536
0.8,4.9,0,1.25683
0.8,5,0,1.26583
0.8,5.1,0,1.27483
0.8,5.2,0,1.28386
0.8,5.3,0,1.29168
0.8,5.4,0,1.29822
0.8,5.5,0,1.30476
0.8,5.6,0,1.31135
0.8,5.7,0,1.31535
0.8,5.8,0,1.3194
0.8,5.9,0,1.32348
0.8,6,0,1.32624
0.8,6.1,0,1.32776
0.8,6.2,0,1.32932
0.8,6.3,0,1.33101
0.8,6.4,0,1.32984
0.8,6.5,0,1.32889
0.8,6.6,0,1.32803
0.8,6.7,0,1.32575
0.8,6.8,0,1.32271
0.8,6.9,0,1.32004
0.8,7,0,1.31839
0.8,7.1,0,1.31045
0.8,7.2,0,1.30469
0.8,7.3,0,1.29826
0.8,7.4,0,1.29114
0.8,7.5,0,1.28332
0.8,7.6,0,1.27482
0.8,7.7,0,1.26564
0.8,7.8,0,1.25577
0.8,7.9,0,1.24522
0.8,8,0,1.23015
0.8,8.1,0,1.2192
0.8,8.2,0,1.20852
0.8,8.3,0,1.19472
0.8,8.4,0,1.18071
0.8,8.5,0,1.16657
0.8,8.6,0,1.15048
0.8,8.7,0,1.13553
0.8,8.8,0,1.11751
0.8,8.9,0,1.10045
0.8,9,0,1.08205
0.8,9.1,0,1.06315
0.8,9.2,0,1.04406
0.8,9.3,0,1.02317
0.8,9.4,0,1.00331
0.8,9.5,0,0.981042
0.8,9.6,0,0.959062
0.8,9.7,0,0.935686
0.8,9.8,0,0.912238
0.8,9.9,0,0.888859
0.8,10,0,0.863567
0.8,10.1,0,0.838716
0.8,10.2,0,0.811962
0.8,10.3,0,0.785514
0.8,10.4,0,0.757941
0.8,10.5,0,0.730235
0.8,10.6,0,0.702655
0.8,10.7,0,0.673347
0.8,10.8,0,0.643953
0.8,10.9,0,0.612965
0.8,11,0,0.582644
0.8,11.1,0,0.551933
0.8,11.2,0,0.520516
0.8,11.3,0,0.48831
0.8,11.4,0,0.455577
0.8,11.5,0,0.422836
0.8,11.6,0,0.389165
0.8,11.7,0,0.355688
0.8,11.8,0,0.321333
0.8,11.9,0,0.28699
0.8,12,0,0.251793
0.8,12.1,0,0.216954
0.8,12.2,0,0.181515
0.8,12.3,0,0.145335
0.8,12.4,0,0.109658
0.8,12.5,0,0.0731987
0.8,12.6,0,0.0369692
0.8,12.7,0,0
0.9,0,0,0
0.9,0.1,0,0.0380404
0.9,0.2,0,0.0748382
0.9,0.3,0,0.110486
0.9,0.4,0,0.146462
0.9,0.5,0,0.182672
0.9,0.6,0,0.21791
0.9,0.7,0,0.253209
0.9,0.8,0,0.289458
0.9,0.9,0,0.324335
0.9,1,0,0.358308
0.9,1.1,0,0.392354
0.9,1.2,0,0.42632
0.9,1.3,0,0.459367
0.9,1.4,0,0.492633
0.9,1.5,0,0.525495
0.9,1.6,0,0.557296
0.9,1.7,0,0.587829
0.9,1.8,0,0.617737
0.9,1.9,0,0.647124
0.9,2,0,0.676717
0.9,2.1,0,0.706947
0.9,2.2,0,0.73567
0.9,2.3,0,0.763751
0.9,2.4,0,0.791193
0.9,2.5,0,0.817846
0.9,2.6,0,0.843686
0.9,2.7,0,0.869114
0.9,2.8,0,0.894553
0.9,2.9,0,0.918003
0.9,3,0,0.941285
0.9,3.1,0,0.964743
0.9,3.2,0,0.987279
0.9,3.3,0,1.00876
0.9,3.4,0,1.02973
0.9,3.5,0,1.05054
0.9,3.6,0,1.06922
0.9,3.7,0,1.08786
0.9,3.8,0,1.10673
0.9,3.9,0,1.12449
0.9,4,0,1.14105
0.9,4.1,0,1.15734
0.9,4.2,0,1.17354
0.9,4.3,0,1.18742
0.9,4.4,0,1.20129
0.9,4.5,0,1.21532
0.9,4.6,0,1.22813
0.9,4.7,0,1.23968
0.9,4.8,0,1.25116
0.9,4.9,0,1.26263
0.9,5,0,1.27162
0.9,5.1,0,1.28062
0.9,5.2,0,1.2897
0.9,5.3,0,1.29752
0.9,5.4,0,1.30405
0.9,5.5,0,1.31061
0.9,5.6,0,1.31722
0.9,5.7,0,1.32119
0.9,5.8,0,1.32522
0.9,5.9,0,1.32934
0.9,6,0,1.3321
0.9,6.1,0,1.33352
0.9,6.2,0,1.33514
0.9,6.3,0,1.33685
0.9,6.4,0,1.33563
0.9,6.5,0,1.33459
0.9,6.6,0,1.33387
0.9,6.7,0,1.33159
0.9,6.8,0,1.3279
0.9,6.9,0,1.32566
0.9,7,0,1.32425
0.9,7.1,0,1.31634
0.9,7.2,0,1.3106
0.9,7.3,0,1.30417
0.9,7.4,0,1.29705
0.9,7.5,0,1.28923
0.9,7.6,0,1.28071
0.9,7.7,0,1.27151
0.9,7.8,0,1.26162
0.9,7.9,0,1.25103
0.9,8,0,1.23592
0.9,8.1,0,1.22481
0.9,8.2,0,1.21421
0.9,8.3,0,1.20021
0.9,8.4,0,1.18606
0.9,8.5,0,1.17217
0.9,8.6,0,1.15546
0.9,8.7,0,1.14104
0.9,8.8,0,1.12242
0.9,8.9,0,1.10587
0.9,9,0,1.0874
0.9,9.1,0,1.06827
0.9,9.2,0,1.0494
0.9,9.3,0,1.02791
0.9,9.4,0,1.00851
0.9,9.5,0,0.985901
0.9,9.6,0,0.964155
0.9,9.7,0,0.940767
0.9,9.8,0,0.916864
0.9,9.9,0,0.893747
0.9,10,0,0.868148
0.9,10.1,0,0.843435
0.9,10.2,0,0.81636
0.9,10.3,0,0.789992
0.9,10.4,0,0.762419
0.9,10.5,0,0.734235
0.9,10.6,0,0.706844
0.9,10.7,0,0.677461
0.9,10.8,0,0.647893
0.9,10.9,0,0.616529
0.9,11,0,0.586107
0.9,11.1,0,0.555397
0.9,11.2,0,0.523999
0.9,11.3,0,0.491379
0.9,11.4,0,0.458474
0.9,11.5,0,0.425461
0.9,11.6,0,0.391696
0.9,11.7,0,0.35783
0.9,11.8,0,0.323415
0.9,11.9,0,0.289111
0.9,12,0,0.253368
0.9,12.1,0,0.218627
0.9,12.2,0,0.182495
0.9,12.3,0,0.146274
0.9,12.4,0,0.11027
0.9,12.5,0,0.073695
0.9,12.6,0,0.0374631
0.9,12.7,0,0
1,0,0,0
1,0.1,0,0.0380404
1,0.2,0,0.075638
1,0.3,0,0.111197
1,0.4,0,0.147172
1,0.5,0,0.183565
1,0.6,0,0.219309
1,0.7,0,0.254608
1,0.8,0,0.290857
1,0.9,0,0.326783
1,1,0,0.360722
1,1.1,0,0.394769
1,1.2,0,0.428922
1,1.3,0,0.462619
1,1.4,0,0.495885
1,1.5,0,0.528747
1,1.6,0,0.561101
1,1.7,0,0.591506
1,1.8,0,0.621414
1,1.9,0,0.650825
1,2,0,0.681004
1,2.1,0,0.711235
1,2.2,0,0.739957
1,2.3,0,0.76843
1,2.4,0,0.795819
1,2.5,0,0.822471
1,2.6,0,0.848388
1,2.7,0,0.874016
1,2.8,0,0.899454
1,2.9,0,0.922905
1,3,0,0.946446
1,3.1,0,0.969953
1,3.2,0,0.992489
1,3.3,0,1.01405
1,3.4,0,1.03508
1,3.5,0,1.05589
1,3.6,0,1.07457
1,3.7,0,1.09337
1,3.8,0,1.11229
1,3.9,0,1.13005
1,4,0,1.14665
1,4.1,0,1.16298
1,4.2,0,1.17918
1,4.3,0,1.19306
1,4.4,0,1.20701
1,4.5,0,1.22107
1,4.6,0,1.23388
1,4.7,0,1.24545
1,4.8,0,1.25696
1,4.9,0,1.26843
1,5,0,1.27742
1,5.1,0,1.28645
1,5.2,0,1.29555
1,5.3,0,1.30336
1,5.4,0,1.30989
1,5.5,0,1.31648
1,5.6,0,1.32308
1,5.7,0,1.32705
1,5.8,0,1.33107
1,5.9,0,1.3352
1,6,0,1.33797
1,6.1,0,1.33936
1,6.2,0,1.34098
1,6.3,0,1.3427
1,6.4,0,1.34148
1,6.5,0,1.34039
1,6.6,0,1.33971
1,6.7,0,1.33743
1,6.8,0,1.33355
1,6.9,0,1.33153
1,7,0,1.33012
1,7.1,0,1.32223
1,7.2,0,1.3165
1,7.3,0,1.31008
1,7.4,0,1.30296
1,7.5,0,1.29513
1,7.6,0,1.28661
1,7.7,0,1.27738
1,7.8,0,1.26746
1,7.9,0,1.25685
1,8,0,1.24169
1,8.1,0,1.23054
1,8.2,0,1.21989
1,8.3,0,1.2059
1,8.4,0,1.19165
1,8.5,0,1.17776
1,8.6,0,1.16076
1,8.7,0,1.14655
1,8.8,0,1.12786
1,8.9,0,1.11129
1,9,0,1.09282
1,9.1,0,1.07361
1,9.2,0,1.05473
1,9.3,0,1.03289
1,9.4,0,1.0137
1,9.5,0,0.991098
1,9.6,0,0.969247
1,9.7,0,0.945859
1,9.8,0,0.921752
1,9.9,0,0.898635
1,10,0,0.872828
1,10.1,0,0.848154
1,10.2,0,0.821078
1,10.3,0,0.794471
1,10.4,0,0.766898
1,10.5,0,0.738423
1,10.6,0,0.711032
1,10.7,0,0.681567
1,10.8,0,0.651832
1,10.9,0,0.620468
1,11,0,0.589571
1,11.1,0,0.558861
1,11.2,0,0.527068
1,11.3,0,0.494448
1,11.4,0,0.461438
1,11.5,0,0.428085
1,11.6,0,0.39432
1,11.7,0,0.359912
1,11.8,0,0.325497
1,11.9,0,0.290755
1,12,0,0.254942
1,12.1,0,0.220241
1,12.2,0,0.183475
1,12.3,0,0.147254
1,12.4,0,0.110767
1,12.5,0,0.0741914
1,12.6,0,0.0375945
1,12.7,0,0
1.1,0,0,0
1.1,0.1,0,0.0380404
1.1,0.2,0,0.0755445
1.1,0.3,0,0.111907
1.1,0.4,0,0.147883
1.1,0.5,0,0.184315
1.1,0.6,0,0.220709
1.1,0.7,0,0.256008
1.1,0.8,0,0.292257
1.1,0.9,0,0.32831
1.1,1,0,0.363137
1.1,1.1,0,0.397183
1.1,1.2,0,0.431478
1.1,1.3,0,0.465872
1.1,1.4,0,0.499137
1.1,1.5,0,0.532
1.1,1.6,0,0.564092
1.1,1.7,0,0.595183
1.1,1.8,0,0.625091
1.1,1.9,0,0.654916
1.1,2,0,0.685291
1.1,2.1,0,0.715522
1.1,2.2,0,0.744244
1.1,2.3,0,0.772641
1.1,2.4,0,0.800444
1.1,2.5,0,0.827097
1.1,2.6,0,0.853021
1.1,2.7,0,0.878917
1.1,2.8,0,0.904356
1.1,2.9,0,0.927807
1.1,3,0,0.951547
1.1,3.1,0,0.975163
1.1,3.2,0,0.997699
1.1,3.3,0,1.01916
1.1,3.4,0,1.04043
1.1,3.5,0,1.06124
1.1,3.6,0,1.07992
1.1,3.7,0,1.0989
1.1,3.8,0,1.11785
1.1,3.9,0,1.13561
1.1,4,0,1.15216
1.1,4.1,0,1.16862
1.1,4.2,0,1.18482
1.1,4.3,0,1.1987
1.1,4.4,0,1.21275
1.1,4.5,0,1.22682
1.1,4.6,0,1.23963
1.1,4.7,0,1.25119
1.1,4.8,0,1.26275
1.1,4.9,0,1.27423
1.1,5,0,1.28322
1.1,5.1,0,1.29229
1.1,5.2,0,1.30139
1.1,5.3,0,1.3092
1.1,5.4,0,1.31575
1.1,5.5,0,1.32234
1.1,5.6,0,1.32894
1.1,5.7,0,1.33292
1.1,5.8,0,1.33697
1.1,5.9,0,1.34107
1.1,6,0,1.34383
1.1,6.1,0,1.34528
1.1,6.2,0,1.34683
1.1,6.3,0,1.34854
1.1,6.4,0,1.34732
1.1,6.5,0,1.34635
1.1,6.6,0,1.34555
1.1,6.7,0,1.34327
1.1,6.8,0,1.33992
1.1,6.9,0,1.3374
1.1,7,0,1.33599
1.1,7.1,0,1.32812
1.1,7.2,0,1.3224
1.1,7.3,0,1.31599
1.1,7.4,0,1.30887
1.1,7.5,0,1.30104
1.1,7.6,0,1.2925
1.1,7.7,0,1.28326
1.1,7.8,0,1.27331
1.1,7.9,0,1.26267
1.1,8,0,1.24746
1.1,8.1,0,1.23637
1.1,8.2,0,1.22558
1.1,8.3,0,1.21158
1.1,8.4,0,1.19725
1.1,8.5,0,1.18336
1.1,8.6,0,1.16683
1.1,8.7,0,1.15207
1.1,8.8,0,1.13369
1.1,8.9,0,1.11671
1.1,9,0,1.09824
1.1,9.1,0,1.07898
1.1,9.2,0,1.06007
1.1,9.3,0,1.03868
1.1,9.4,0,1.0189
1.1,9.5,0,0.996412
1.1,9.6,0,0.97434
1.1,9.7,0,0.950952
1.1,9.8,0,0.926762
1.1,9.9,0,0.903523
1.1,10,0,0.877854
1.1,10.1,0,0.852872
1.1,10.2,0,0.825845
1.1,10.3,0,0.79895
1.1,10.4,0,0.771376
1.1,10.5,0,0.742791
1.1,10.6,0,0.71522
1.1,10.7,0,0.685581
1.1,10.8,0,0.655772
1.1,10.9,0,0.624419
1.1,11,0,0.593035
1.1,11.1,0,0.562325
1.1,11.2,0,0.530126
1.1,11.3,0,0.497517
1.1,11.4,0,0.464235
1.1,11.5,0,0.43071
1.1,11.6,0,0.396916
1.1,11.7,0,0.361994
1.1,11.8,0,0.327579
1.1,11.9,0,0.292305
1.1,12,0,0.256516
1.1,12.1,0,0.221189
1.1,12.2,0,0.184454
1.1,12.3,0,0.148234
1.1,12.4,0,0.111263
1.1,12.5,0,0.0746877
1.1,12.6,0,0.0375963
1.1,12.7,0,0
1.2,0,0,0
1.2,0.1,0,0.0377722
1.2,0.2,0,0.0752316
1.2,0.3,0,0.112618
1.2,0.4,0,0.148593
1.2,0.5,0,0.185075
1.2,0.6,0,0.221561
1.2,0.7,0,0.257407
1.2,0.8,0,0.293558
1.2,0.9,0,0.329595
1.2,1,0,0.365551
1.2,1.1,0,0.399598
1.2,1.2,0,0.434073
1.2,1.3,0,0.46856
1.2,1.4,0,0.50239
1.2,1.5,0,0.534867
1.2,1.6,0,0.566895
1.2,1.7,0,0.59886
1.2,1.8,0,0.628768
1.2,1.9,0,0.659119
1.2,2,0,0.689506
1.2,2.1,0,0.719809
1.2,2.2,0,0.748369
1.2,2.3,0,0.776738
1.2,2.4,0,0.80507
1.2,2.5,0,0.831722
1.2,2.6,0,0.857656
1.2,2.7,0,0.883591
1.2,2.8,0,0.909258
1.2,2.9,0,0.932854
1.2,3,0,0.956618
1.2,3.1,0,0.980373
1.2,3.2,0,1.00291
1.2,3.3,0,1.02423
1.2,3.4,0,1.04555
1.2,3.5,0,1.06659
1.2,3.6,0,1.08542
1.2,3.7,0,1.10442
1.2,3.8,0,1.12342
1.2,3.9,0,1.14118
1.2,4,0,1.15766
1.2,4.1,0,1.17413
1.2,4.2,0,1.19046
1.2,4.3,0,1.20443
1.2,4.4,0,1.2185
1.2,4.5,0,1.23256
1.2,4.6,0,1.24537
1.2,4.7,0,1.25694
1.2,4.8,0,1.26851
1.2,4.9,0,1.28003
1.2,5,0,1.28906
1.2,5.1,0,1.29814
1.2,5.2,0,1.30723
1.2,5.3,0,1.31504
1.2,5.4,0,1.32162
1.2,5.5,0,1.32821
1.2,5.6,0,1.3348
1.2,5.7,0,1.33881
1.2,5.8,0,1.34287
1.2,5.9,0,1.34693
1.2,6,0,1.34969
1.2,6.1,0,1.35122
1.2,6.2,0,1.35276
1.2,6.3,0,1.35439
1.2,6.4,0,1.35329
1.2,6.5,0,1.35234
1.2,6.6,0,1.35139
1.2,6.7,0,1.34911
1.2,6.8,0,1.34644
1.2,6.9,0,1.34382
1.2,7,0,1.34186
1.2,7.1,0,1.334
1.2,7.2,0,1.32831
1.2,7.3,0,1.32191
1.2,7.4,0,1.31478
1.2,7.5,0,1.30694
1.2,7.6,0,1.29839
1.2,7.7,0,1.28913
1.2,7.8,0,1.27916
1.2,7.9,0,1.26849
1.2,8,0,1.25323
1.2,8.1,0,1.24221
1.2,8.2,0,1.23127
1.2,8.3,0,1.21774
1.2,8.4,0,1.20348
1.2,8.5,0,1.18896
1.2,8.6,0,1.17296
1.2,8.7,0,1.15758
1.2,8.8,0,1.13972
1.2,8.9,0,1.1222
1.2,9,0,1.10392
1.2,9.1,0,1.08479
1.2,9.2,0,1.06541
1.2,9.3,0,1.04447
1.2,9.4,0,1.0241
1.2,9.5,0,1.00185
1.2,9.6,0,0.979516
1.2,9.7,0,0.956235
1.2,9.8,0,0.932221
1.2,9.9,0,0.908411
1.2,10,0,0.88288
1.2,10.1,0,0.857591
1.2,10.2,0,0.830701
1.2,10.3,0,0.803573
1.2,10.4,0,0.77594
1.2,10.5,0,0.747492
1.2,10.6,0,0.719408
1.2,10.7,0,0.689594
1.2,10.8,0,0.659711
1.2,10.9,0,0.628409
1.2,11,0,0.596774
1.2,11.1,0,0.565687
1.2,11.2,0,0.533172
1.2,11.3,0,0.500586
1.2,11.4,0,0.467032
1.2,11.5,0,0.433334
1.2,11.6,0,0.399162
1.2,11.7,0,0.364184
1.2,11.8,0,0.329603