/*--------------------------------*- C++ -*----------------------------------*\
| =========                 |                                                 |
| \\      /  F ield         | OpenFOAM: The Open Source CFD Toolbox           |
|  \\    /   O peration     | Version:  v1806                                 |
|   \\  /    A nd           | Web:      www.OpenFOAM.com                      |
|    \\/     M anipulation  |                                                 |
\*---------------------------------------------------------------------------*/
FoamFile
{
    version     2.0;
    format      ascii;
    class       volVectorField;
    location    "13";
    object      U;
}
// * * * * * * * * * * * * * * * * * * * * * * * * * * * * * * * * * * * * * //

dimensions      [0 1 -1 0 0 0 0];


internalField   nonuniform List<vector> 
2400
(
(3.00192 -0.00690175 0)
(2.99762 -0.0317148 0)
(3.00179 -0.0459173 0)
(2.99794 -0.0685878 0)
(3.00134 -0.0825555 0)
(2.99921 -0.102406 0)
(3.00074 -0.115912 0)
(3.00123 -0.133107 0)
(3.00011 -0.144417 0)
(3.00397 -0.159919 0)
(3.00021 -0.168596 0)
(3.00724 -0.183674 0)
(3.00155 -0.186438 0)
(3.01052 -0.200981 0)
(3.00442 -0.196824 0)
(3.01376 -0.210427 0)
(3.00925 -0.198659 0)
(3.01709 -0.210373 0)
(3.01608 -0.191246 0)
(3.01968 -0.199099 0)
(3.00135 -0.0064416 0)
(2.99821 -0.0319203 0)
(3.00108 -0.0459035 0)
(2.99863 -0.0685602 0)
(3.00112 -0.0831009 0)
(3.0004 -0.102273 0)
(3.0016 -0.117127 0)
(3.00291 -0.13317 0)
(3.00267 -0.14604 0)
(3.00686 -0.160601 0)
(3.0054 -0.170676 0)
(3.01231 -0.185323 0)
(3.0104 -0.188563 0)
(3.01884 -0.20387 0)
(3.01751 -0.199113 0)
(3.02684 -0.214745 0)
(3.02726 -0.200707 0)
(3.03602 -0.21564 0)
(3.03792 -0.192919 0)
(3.04568 -0.204843 0)
(3.00055 -0.00596505 0)
(2.99908 -0.0323912 0)
(3.00019 -0.0456965 0)
(2.9995 -0.0691707 0)
(3.00086 -0.0832614 0)
(3.00161 -0.103194 0)
(3.00241 -0.117821 0)
(3.00439 -0.134769 0)
(3.00524 -0.147374 0)
(3.00929 -0.163064 0)
(3.0105 -0.172965 0)
(3.01662 -0.188903 0)
(3.0189 -0.191731 0)
(3.02602 -0.208604 0)
(3.02993 -0.203514 0)
(3.03846 -0.220541 0)
(3.04427 -0.205784 0)
(3.05387 -0.22187 0)
(3.06067 -0.198455 0)
(3.06927 -0.211021 0)
(2.99991 -0.00540896 0)
(2.99978 -0.0328467 0)
(2.9994 -0.0455611 0)
(3.00017 -0.069813 0)
(3.0007 -0.0837142 0)
(3.0025 -0.104236 0)
(3.00315 -0.119042 0)
(3.00549 -0.136768 0)
(3.00765 -0.149548 0)
(3.01121 -0.16623 0)
(3.01519 -0.176507 0)
(3.02057 -0.19373 0)
(3.02674 -0.196389 0)
(3.03288 -0.215331 0)
(3.04166 -0.209738 0)
(3.05021 -0.229008 0)
(3.06065 -0.212815 0)
(3.07123 -0.231252 0)
(3.08092 -0.205805 0)
(3.09394 -0.22022 0)
(2.99934 -0.00472967 0)
(3.0004 -0.0334877 0)
(2.99862 -0.0452225 0)
(3.00063 -0.0708692 0)
(3.0007 -0.0839851 0)
(3.00284 -0.105882 0)
(3.0041 -0.120085 0)
(3.0056 -0.139779 0)
(3.01052 -0.151798 0)
(3.0116 -0.170593 0)
(3.0204 -0.180731 0)
(3.02274 -0.200049 0)
(3.03503 -0.202407 0)
(3.03775 -0.223868 0)
(3.05392 -0.218357 0)
(3.06032 -0.23946 0)
(3.07772 -0.222971 0)
(3.08838 -0.242702 0)
(3.10453 -0.216875 0)
(3.11838 -0.231334 0)
(2.99869 -0.00392263 0)
(3.00104 -0.0342089 0)
(2.99763 -0.0447651 0)
(3.00105 -0.0720956 0)
(3.0005 -0.0842979 0)
(3.00292 -0.107661 0)
(3.00465 -0.121246 0)
(3.00524 -0.143359 0)
(3.01291 -0.154298 0)
(3.01119 -0.175811 0)
(3.02487 -0.185805 0)
(3.02409 -0.207766 0)
(3.04221 -0.209687 0)
(3.04177 -0.234442 0)
(3.06512 -0.229157 0)
(3.06993 -0.252537 0)
(3.09403 -0.23581 0)
(3.10452 -0.257263 0)
(3.12592 -0.231098 0)
(3.14332 -0.245721 0)
(2.99769 -0.00284842 0)
(3.00179 -0.0351615 0)
(2.99629 -0.043977 0)
(3.00136 -0.0737106 0)
(3.00018 -0.0844052 0)
(3.0024 -0.109591 0)
(3.00507 -0.122251 0)
(3.00384 -0.147536 0)
(3.0151 -0.156709 0)
(3.00922 -0.181889 0)
(3.02894 -0.191583 0)
(3.02373 -0.216853 0)
(3.04837 -0.218199 0)
(3.04434 -0.24695 0)
(3.07499 -0.242448 0)
(3.07851 -0.268202 0)
(3.10916 -0.251864 0)
(3.12133 -0.274817 0)
(3.14915 -0.249184 0)
(3.16899 -0.263467 0)
(2.99641 -0.00130949 0)
(3.00227 -0.0365026 0)
(2.99493 -0.0426032 0)
(3.00102 -0.0759631 0)
(3.00019 -0.0839908 0)
(3.00059 -0.111639 0)
(3.00583 -0.122909 0)
(3.00061 -0.152044 0)
(3.01722 -0.158972 0)
(3.00508 -0.188498 0)
(3.03245 -0.19818 0)
(3.02098 -0.226851 0)
(3.05297 -0.228197 0)
(3.04515 -0.26117 0)
(3.08277 -0.258527 0)
(3.08567 -0.286664 0)
(3.12227 -0.271709 0)
(3.13728 -0.295954 0)
(3.16852 -0.271074 0)
(3.1957 -0.284613 0)
(2.99569 0.00127758 0)
(3.0011 -0.0388325 0)
(2.99478 -0.0399343 0)
(2.99839 -0.0797641 0)
(3.00189 -0.0818428 0)
(2.99566 -0.114743 0)
(3.00841 -0.121945 0)
(2.99364 -0.157478 0)
(3.02022 -0.160126 0)
(2.9972 -0.196032 0)
(3.03593 -0.204785 0)
(3.01415 -0.237483 0)
(3.05619 -0.239604 0)
(3.04271 -0.277009 0)
(3.08846 -0.277499 0)
(3.08957 -0.308015 0)
(3.1333 -0.296488 0)
(3.1532 -0.321136 0)
(3.18922 -0.298954 0)
(3.22322 -0.309188 0)
(2.99648 0.00599 0)
(2.99671 -0.0435344 0)
(2.99712 -0.0346891 0)
(2.99197 -0.0866114 0)
(3.00607 -0.075849 0)
(2.98661 -0.120682 0)
(3.01308 -0.116931 0)
(2.98223 -0.165368 0)
(3.02382 -0.158144 0)
(2.98517 -0.205701 0)
(3.0386 -0.209401 0)
(3.0025 -0.248919 0)
(3.05717 -0.25155 0)
(3.03574 -0.294515 0)
(3.09168 -0.298666 0)
(3.08861 -0.332902 0)
(3.14153 -0.325932 0)
(3.16571 -0.35228 0)
(3.20618 -0.333094 0)
(3.25123 -0.346062 0)
(2.99997 0.01411 0)
(2.98772 -0.0526278 0)
(3.00305 -0.0251139 0)
(2.98081 -0.0981617 0)
(3.01273 -0.0635042 0)
(2.97357 -0.13216 0)
(3.01878 -0.104402 0)
(2.96676 -0.179102 0)
(3.0275 -0.149185 0)
(2.9682 -0.220819 0)
(3.04037 -0.207964 0)
(2.9845 -0.263082 0)
(3.05609 -0.261905 0)
(3.0214 -0.31349 0)
(3.09253 -0.322761 0)
(3.08006 -0.358562 0)
(3.147 -0.364215 0)
(3.17139 -0.385863 0)
(3.22101 -0.374929 0)
(3.27674 -0.3799 0)
(3.00704 0.0276381 0)
(2.97454 -0.0689802 0)
(3.01223 -0.00832399 0)
(2.96635 -0.11658 0)
(3.0199 -0.0422095 0)
(2.95908 -0.152736 0)
(3.02309 -0.0803156 0)
(2.94938 -0.203955 0)
(3.03081 -0.126895 0)
(2.94568 -0.248074 0)
(3.04215 -0.192854 0)
(2.95865 -0.287774 0)
(3.05386 -0.262382 0)
(2.99641 -0.341385 0)
(3.09108 -0.342707 0)
(3.06075 -0.388788 0)
(3.14806 -0.408819 0)
(3.16868 -0.425873 0)
(3.23695 -0.425847 0)
(3.29509 -0.423356 0)
(3.01733 0.0458255 0)
(2.96044 -0.0916842 0)
(3.02245 0.0152648 0)
(2.95242 -0.13978 0)
(3.02507 -0.0137324 0)
(2.94593 -0.180754 0)
(3.02495 -0.0453401 0)
(2.93152 -0.239936 0)
(3.03382 -0.0889435 0)
(2.91716 -0.289002 0)
(3.04456 -0.1605 0)
(2.9238 -0.327656 0)
(3.05154 -0.244656 0)
(2.95821 -0.387052 0)
(3.08709 -0.347408 0)
(3.02477 -0.431725 0)
(3.1433 -0.452317 0)
(3.15067 -0.475229 0)
(3.24467 -0.492476 0)
(3.30509 -0.484131 0)
(3.03055 0.0661211 0)
(2.94766 -0.117646 0)
(3.03414 0.0428875 0)
(2.93992 -0.164769 0)
(3.03114 0.019061 0)
(2.93105 -0.21361 0)
(3.02927 -0.00194749 0)
(2.9089 -0.28484 0)
(3.03885 -0.0366391 0)
(2.88094 -0.341063 0)
(3.04762 -0.112116 0)
(2.87723 -0.382157 0)
(3.05072 -0.204644 0)
(2.90075 -0.455025 0)
(3.08057 -0.324723 0)
(2.96094 -0.499589 0)
(3.1376 -0.477826 0)
(3.09546 -0.544442 0)
(3.24922 -0.568941 0)
(3.28519 -0.552852 0)
(3.04871 0.0844195 0)
(2.93276 -0.141616 0)
(3.05339 0.0701111 0)
(2.92205 -0.18752 0)
(3.04753 0.0530379 0)
(2.90394 -0.246219 0)
(3.04537 0.0453729 0)
(2.87223 -0.331355 0)
(3.04926 0.0229111 0)
(2.83427 -0.398244 0)
(3.04902 -0.0522858 0)
(2.81673 -0.44762 0)
(3.04873 -0.146534 0)
(2.82197 -0.540772 0)
(3.06546 -0.275827 0)
(2.86676 -0.597719 0)
(3.12098 -0.472143 0)
(2.99844 -0.642208 0)
(3.23283 -0.647385 0)
(3.25631 -0.628781 0)
(3.08048 0.0968631 0)
(2.90243 -0.157815 0)
(3.09312 0.0939951 0)
(2.88141 -0.203169 0)
(3.08984 0.0859855 0)
(2.8473 -0.269796 0)
(3.08723 0.0911599 0)
(2.80705 -0.364103 0)
(3.07444 0.0804724 0)
(2.76861 -0.443541 0)
(3.05425 0.0140835 0)
(2.73647 -0.516541 0)
(3.04412 -0.0710599 0)
(2.71949 -0.639129 0)
(3.04264 -0.196373 0)
(2.74433 -0.738935 0)
(3.09945 -0.412157 0)
(2.84053 -0.802743 0)
(3.23767 -0.685838 0)
(3.14851 -0.772134 0)
(3.14027 0.0979337 0)
(2.83971 -0.1554 0)
(3.16596 0.103455 0)
(2.80045 -0.199614 0)
(3.17079 0.103402 0)
(2.74853 -0.266493 0)
(3.17053 0.115881 0)
(2.70192 -0.357812 0)
(3.14179 0.114579 0)
(2.66536 -0.447105 0)
(3.09659 0.069949 0)
(2.62278 -0.551407 0)
(3.06221 0.00117087 0)
(2.59211 -0.706578 0)
(3.02626 -0.116297 0)
(2.61484 -0.889131 0)
(3.05618 -0.335705 0)
(2.71336 -1.02735 0)
(3.22683 -0.703958 0)
(3.06695 -1.00641 0)
(3.23483 0.0941742 0)
(2.73573 -0.13976 0)
(3.27662 0.100725 0)
(2.67587 -0.181305 0)
(3.29636 0.104172 0)
(2.60831 -0.239962 0)
(3.30825 0.113666 0)
(2.55214 -0.315818 0)
(3.28612 0.112706 0)
(2.50556 -0.403858 0)
(3.24699 0.0910153 0)
(2.4475 -0.525748 0)
(3.20408 0.0488342 0)
(2.40766 -0.707466 0)
(3.13882 -0.0345173 0)
(2.43915 -0.98422 0)
(3.10427 -0.232503 0)
(2.62514 -1.2951 0)
(3.28058 -0.660247 0)
(3.02712 -1.3581 0)
(3.30688 0.0889098 0)
(2.65484 -0.122736 0)
(3.37041 0.0916468 0)
(2.58148 -0.160259 0)
(3.4167 0.091608 0)
(2.50156 -0.207162 0)
(3.46568 0.0887866 0)
(2.42092 -0.265686 0)
(3.50307 0.0767437 0)
(2.3339 -0.343823 0)
(3.53748 0.0514463 0)
(2.23884 -0.459274 0)
(3.5709 -0.00451133 0)
(2.15673 -0.645268 0)
(3.60805 -0.0997319 0)
(2.15705 -0.971504 0)
(3.63075 -0.286565 0)
(2.44596 -1.54541 0)
(3.64834 -0.673913 0)
(3.10803 -2.11501 0)
(3.22197 0.0950684 0)
(2.76703 -0.126816 0)
(3.27859 0.0986153 0)
(2.72062 -0.164202 0)
(3.3192 0.100859 0)
(2.67012 -0.208284 0)
(3.3704 0.0978826 0)
(2.60817 -0.261441 0)
(3.42927 0.0819897 0)
(2.5271 -0.32787 0)
(3.5006 0.0437991 0)
(2.42127 -0.423658 0)
(3.59543 -0.0297796 0)
(2.26959 -0.595017 0)
(3.73604 -0.164519 0)
(2.06541 -0.908738 0)
(3.93223 -0.408385 0)
(1.87371 -1.58901 0)
(4.27329 -0.753257 0)
(2.8397 -3.24315 0)
(3.01982 -0.180804 0)
(3.0203 -0.183055 0)
(3.02357 -0.1702 0)
(3.02306 -0.173415 0)
(3.02693 -0.158318 0)
(3.02369 -0.162909 0)
(3.02957 -0.145736 0)
(3.02351 -0.151957 0)
(3.03252 -0.13301 0)
(3.0227 -0.140942 0)
(3.05115 -0.183559 0)
(3.05305 -0.187949 0)
(3.05403 -0.172966 0)
(3.0544 -0.178443 0)
(3.05677 -0.16057 0)
(3.05655 -0.167658 0)
(3.06017 -0.147218 0)
(3.05815 -0.15625 0)
(3.0633 -0.133722 0)
(3.05867 -0.144683 0)
(3.07147 -0.188979 0)
(3.07518 -0.1931 0)
(3.07906 -0.177584 0)
(3.0829 -0.182779 0)
(3.08536 -0.164431 0)
(3.08746 -0.171058 0)
(3.0895 -0.150188 0)
(3.09047 -0.158505 0)
(3.0928 -0.13558 0)
(3.09213 -0.145609 0)
(3.10254 -0.196082 0)
(3.10744 -0.200874 0)
(3.1093 -0.183932 0)
(3.11328 -0.18977 0)
(3.11509 -0.169697 0)
(3.11925 -0.176959 0)
(3.12049 -0.154046 0)
(3.12399 -0.162972 0)
(3.12459 -0.137764 0)
(3.12698 -0.14831 0)
(3.12444 -0.206616 0)
(3.13116 -0.210904 0)
(3.13651 -0.19346 0)
(3.14397 -0.198593 0)
(3.14658 -0.177865 0)
(3.1529 -0.184153 0)
(3.15349 -0.160429 0)
(3.15949 -0.168123 0)
(3.15857 -0.141903 0)
(3.16386 -0.151014 0)
(3.15796 -0.219853 0)
(3.16528 -0.223773 0)
(3.17001 -0.20549 0)
(3.17671 -0.209932 0)
(3.1806 -0.188148 0)
(3.18765 -0.193494 0)
(3.18997 -0.168429 0)
(3.19645 -0.174989 0)
(3.19719 -0.147119 0)
(3.20244 -0.154924 0)
(3.18188 -0.237383 0)
(3.19143 -0.240476 0)
(3.20052 -0.221673 0)
(3.21072 -0.22495 0)
(3.21674 -0.20219 0)
(3.22537 -0.206106 0)
(3.22911 -0.179607 0)
(3.23654 -0.184686 0)
(3.23898 -0.154851 0)
(3.24442 -0.16132 0)
(3.21647 -0.257964 0)
(3.22857 -0.260677 0)
(3.23651 -0.241253 0)
(3.24829 -0.243564 0)
(3.25486 -0.219407 0)
(3.26666 -0.222013 0)
(3.27098 -0.193517 0)
(3.28134 -0.197298 0)
(3.28397 -0.164875 0)
(3.29192 -0.170116 0)
(3.23944 -0.284196 0)
(3.25654 -0.2871 0)
(3.26785 -0.267699 0)
(3.28754 -0.268633 0)
(3.29416 -0.243082 0)
(3.31232 -0.244041 0)
(3.3143 -0.213395 0)
(3.33147 -0.215821 0)
(3.3305 -0.180203 0)
(3.34616 -0.184724 0)
(3.26827 -0.318095 0)
(3.29249 -0.316386 0)
(3.30304 -0.295257 0)
(3.33125 -0.293798 0)
(3.33462 -0.267874 0)
(3.36311 -0.2665 0)
(3.35878 -0.234978 0)
(3.38868 -0.234257 0)
(3.37784 -0.197433 0)
(3.40963 -0.198129 0)
(3.30401 -0.357173 0)
(3.3332 -0.35409 0)
(3.34233 -0.335754 0)
(3.37566 -0.330602 0)
(3.37798 -0.305796 0)
(3.41514 -0.299427 0)
(3.40762 -0.267738 0)
(3.44811 -0.261826 0)
(3.43008 -0.222958 0)
(3.47444 -0.219435 0)
(3.32659 -0.407701 0)
(3.35999 -0.402037 0)
(3.37745 -0.386941 0)
(3.41836 -0.375886 0)
(3.42485 -0.353108 0)
(3.46876 -0.338426 0)
(3.46105 -0.309295 0)
(3.51024 -0.292673 0)
(3.48737 -0.25807 0)
(3.54448 -0.240472 0)
(3.35101 -0.474197 0)
(3.38984 -0.458467 0)
(3.41399 -0.446905 0)
(3.46229 -0.425471 0)
(3.47178 -0.406495 0)
(3.52433 -0.380597 0)
(3.51482 -0.354929 0)
(3.57421 -0.327363 0)
(3.54462 -0.295572 0)
(3.61432 -0.267911 0)
(3.38202 -0.553033 0)
(3.40581 -0.531748 0)
(3.46054 -0.524273 0)
(3.48903 -0.490657 0)
(3.53449 -0.472907 0)
(3.55825 -0.429672 0)
(3.58824 -0.407263 0)
(3.61044 -0.35951 0)
(3.62625 -0.33722 0)
(3.65308 -0.286324 0)
(3.37813 -0.66295 0)
(3.40691 -0.630633 0)
(3.48524 -0.633107 0)
(3.52333 -0.577747 0)
(3.58507 -0.567537 0)
(3.61114 -0.497583 0)
(3.64662 -0.482545 0)
(3.66757 -0.400696 0)
(3.68222 -0.38554 0)
(3.71062 -0.293179 0)
(3.37991 -0.80913 0)
(3.39641 -0.757531 0)
(3.55407 -0.74564 0)
(3.55017 -0.674224 0)
(3.69095 -0.667377 0)
(3.65353 -0.594322 0)
(3.78499 -0.595529 0)
(3.72647 -0.508943 0)
(3.85576 -0.514415 0)
(3.78021 -0.408327 0)
(3.45603 -1.04666 0)
(3.53021 -0.927099 0)
(3.69909 -0.883657 0)
(3.68184 -0.731164 0)
(3.79844 -0.714064 0)
(3.75205 -0.562661 0)
(3.87334 -0.570389 0)
(3.82487 -0.404131 0)
(3.94958 -0.430675 0)
(3.89699 -0.244791 0)
(3.74276 -1.38839 0)
(3.91086 -1.27968 0)
(4.10472 -1.24978 0)
(4.04883 -1.14793 0)
(4.1435 -1.14451 0)
(4.04841 -1.01273 0)
(4.16288 -1.01129 0)
(4.0556 -0.838871 0)
(4.1855 -0.856144 0)
(4.05879 -0.650417 0)
(3.87532 -1.31839 0)
(4.00602 -0.866495 0)
(3.97518 -0.69741 0)
(3.87453 -0.538869 0)
(3.83523 -0.512241 0)
(3.80337 -0.352486 0)
(3.76893 -0.360671 0)
(3.75663 -0.198108 0)
(3.67784 -0.246927 0)
(3.69186 -0.0705463 0)
(4.55778 -2.46994 0)
(3.94 -2.05123 0)
(3.04661 -1.77029 0)
(2.4744 -1.5702 0)
(2.17948 -1.38692 0)
(1.87666 -1.17557 0)
(1.59175 -1.0479 0)
(1.34492 -0.842122 0)
(1.07032 -0.786974 0)
(1.06114 -0.51936 0)
(3.09195 -0.0326771 0)
(2.88772 -0.0175028 0)
(2.92722 -0.430726 0)
(3.02368 -0.810695 0)
(2.92538 -0.686631 0)
(2.9482 -0.378948 0)
(3.32094 -0.533319 0)
(3.43723 -0.50817 0)
(3.20746 0.439209 0)
(3.13754 0.880897 0)
(3.38245 -0.147173 0)
(3.15919 -1.29139 0)
(2.68832 -1.23774 0)
(2.60624 -0.293976 0)
(3.11391 0.0165669 0)
(3.30083 -0.385616 0)
(2.75232 -0.856067 0)
(1.97053 -0.944432 0)
(1.45932 -0.9874 0)
(1.01787 -0.703167 0)
(3.09837 -0.0170762 0)
(2.96345 0.0162533 0)
(2.93946 -0.458254 0)
(2.7246 -0.810479 0)
(2.7768 -0.676988 0)
(3.20384 -0.458229 0)
(3.6532 -0.618694 0)
(3.49847 -0.48505 0)
(3.10333 0.483413 0)
(3.15081 0.854604 0)
(3.47681 -0.130264 0)
(3.20458 -1.12467 0)
(2.67089 -1.11936 0)
(2.65706 -0.379037 0)
(3.12886 -0.129572 0)
(3.07674 -0.324793 0)
(2.4735 -0.591322 0)
(1.8503 -0.685115 0)
(1.45713 -0.799614 0)
(1.09755 -0.61618 0)
(3.10708 -0.0153119 0)
(3.01867 0.0262657 0)
(2.95173 -0.391125 0)
(2.54836 -0.77027 0)
(2.63874 -0.788515 0)
(3.35007 -0.581631 0)
(3.82521 -0.596956 0)
(3.48491 -0.38699 0)
(3.05789 0.54857 0)
(3.14639 0.806057 0)
(3.38859 -0.173201 0)
(3.17178 -1.11563 0)
(2.71219 -1.1098 0)
(2.68772 -0.410689 0)
(2.99673 -0.099775 0)
(2.93381 -0.243597 0)
(2.44236 -0.554931 0)
(1.85006 -0.67162 0)
(1.45554 -0.791899 0)
(1.10084 -0.608229 0)
(3.12839 -0.00507684 0)
(3.05699 0.0611592 0)
(2.97978 -0.354046 0)
(2.31541 -0.719941 0)
(2.31993 -0.873574 0)
(3.35703 -0.736032 0)
(4.02919 -0.622951 0)
(3.60802 -0.308145 0)
(3.03248 0.562413 0)
(3.14355 0.751644 0)
(3.43574 -0.139157 0)
(3.20462 -0.965326 0)
(2.7074 -0.994239 0)
(2.66148 -0.43529 0)
(2.91496 -0.165915 0)
(2.72141 -0.186874 0)
(2.19291 -0.364976 0)
(1.72042 -0.483047 0)
(1.42945 -0.651988 0)
(1.14433 -0.543781 0)
(3.15216 -0.000910711 0)
(3.10015 0.0785176 0)
(3.04417 -0.245601 0)
(2.0547 -0.597479 0)
(1.79472 -1.02849 0)
(3.19565 -0.980401 0)
(4.08707 -0.638249 0)
(3.63425 -0.176383 0)
(3.0573 0.641366 0)
(3.17333 0.717642 0)
(3.33538 -0.180372 0)
(3.13311 -0.949882 0)
(2.74284 -0.976747 0)
(2.65397 -0.454021 0)
(2.74287 -0.126851 0)
(2.54476 -0.100009 0)
(2.13323 -0.313658 0)
(1.71261 -0.458151 0)
(1.42768 -0.638638 0)
(1.15094 -0.532714 0)
(3.20105 0.00644908 0)
(3.11335 0.108071 0)
(3.13097 -0.137912 0)
(1.82511 -0.412502 0)
(1.15033 -1.13718 0)
(2.68329 -1.28756 0)
(3.95485 -0.698852 0)
(3.65337 -0.0717852 0)
(3.10205 0.677025 0)
(3.1471 0.675751 0)
(3.30244 -0.148444 0)
(3.13615 -0.84117 0)
(2.74008 -0.880251 0)
(2.60993 -0.438164 0)
(2.64253 -0.129718 0)
(2.35055 -0.0380509 0)
(1.91673 -0.190252 0)
(1.58266 -0.338246 0)
(1.3885 -0.543427 0)
(1.16887 -0.486728 0)
(3.25627 0.0145204 0)
(3.11971 0.120736 0)
(3.25474 0.0179851 0)
(1.55853 -0.120726 0)
(0.79258 -1.22812 0)
(2.0755 -1.66412 0)
(3.66696 -0.831608 0)
(3.58749 0.0138845 0)
(3.09099 0.744129 0)
(3.13652 0.661177 0)
(3.2076 -0.163288 0)
(3.04078 -0.808497 0)
(2.74038 -0.839971 0)
(2.57088 -0.419248 0)
(2.4627 -0.0719864 0)
(2.18068 0.0524807 0)
(1.86513 -0.133008 0)
(1.58818 -0.308037 0)
(1.3914 -0.526891 0)
(1.1775 -0.474706 0)
(3.30622 0.0232967 0)
(3.16149 0.144835 0)
(3.36576 0.177945 0)
(1.36553 0.145561 0)
(1.13507 -1.29769 0)
(1.75732 -1.99937 0)
(3.27192 -1.00388 0)
(3.45512 0.0575889 0)
(3.1093 0.776071 0)
(3.07094 0.639653 0)
(3.12936 -0.145854 0)
(3.02415 -0.750205 0)
(2.71764 -0.772574 0)
(2.4982 -0.374344 0)
(2.32987 -0.0355737 0)
(2.00649 0.100375 0)
(1.68922 -0.0639236 0)
(1.46616 -0.237261 0)
(1.34584 -0.464418 0)
(1.18192 -0.442496 0)
(3.33475 0.0345833 0)
(3.2761 0.129021 0)
(3.42214 0.394588 0)
(1.36028 0.4324 0)
(1.79439 -1.34478 0)
(1.81916 -2.20013 0)
(2.98645 -1.17653 0)
(3.27072 0.0578656 0)
(3.02588 0.81757 0)
(2.99032 0.646404 0)
(3.02969 -0.136449 0)
(2.92491 -0.695856 0)
(2.67121 -0.702669 0)
(2.42024 -0.319654 0)
(2.16476 0.038742 0)
(1.84326 0.184224 0)
(1.62204 -0.0138106 0)
(1.46033 -0.211651 0)
(1.3467 -0.450683 0)
(1.18857 -0.432016 0)
(3.32438 0.0250016 0)
(3.48106 0.190304 0)
(3.44213 0.550508 0)
(1.67857 0.509183 0)
(2.09259 -1.36175 0)
(1.9528 -2.30162 0)
(2.76242 -1.3079 0)
(3.08337 0.0586181 0)
(2.9137 0.833342 0)
(2.86196 0.622462 0)
(2.92908 -0.149924 0)
(2.87194 -0.681099 0)
(2.61227 -0.655197 0)
(2.31203 -0.255424 0)
(2.00578 0.100828 0)
(1.69588 0.229795 0)
(1.5072 0.0219286 0)
(1.3776 -0.173318 0)
(1.31116 -0.411064 0)
(1.18879 -0.409648 0)
(3.33124 0.029689 0)
(3.72021 0.107416 0)
(3.42519 0.774272 0)
(2.28213 0.826991 0)
(2.04906 -1.29774 0)
(1.88899 -2.38433 0)
(2.56966 -1.41563 0)
(2.90161 0.0369911 0)
(2.79268 0.854401 0)
(2.75851 0.632729 0)
(2.83665 -0.124444 0)
(2.78113 -0.608026 0)
(2.52889 -0.562966 0)
(2.19371 -0.172901 0)
(1.84971 0.17525 0)
(1.56251 0.286972 0)
(1.43943 0.052977 0)
(1.35524 -0.157168 0)
(1.30658 -0.401774 0)
(1.1932 -0.401362 0)
(3.3403 -0.0300964 0)
(4.05367 0.27255 0)
(2.88723 0.822163 0)
(2.50886 0.753494 0)
(2.00835 -1.28118 0)
(1.79356 -2.4784 0)
(2.38895 -1.51652 0)
(2.72742 0.01775 0)
(2.65679 0.855077 0)
(2.61354 0.597258 0)
(2.7153 -0.167217 0)
(2.67845 -0.612575 0)
(2.41826 -0.512443 0)
(2.05489 -0.0946547 0)
(1.69702 0.246071 0)
(1.44174 0.324553 0)
(1.36325 0.0682314 0)
(1.30714 -0.138501 0)
(1.28734 -0.378325 0)
(1.1947 -0.386124 0)
(3.34655 -0.0615643 0)
(4.2763 0.205806 0)
(3.3635 1.06289 0)
(2.83266 1.15003 0)
(2.15068 -1.09985 0)
(1.80822 -2.4994 0)
(2.23968 -1.59901 0)
(2.52737 -0.00577975 0)
(2.47527 0.86353 0)
(2.47247 0.600441 0)
(2.62186 -0.136712 0)
(2.59005 -0.534173 0)
(2.31224 -0.414514 0)
(1.91559 -0.00245933 0)
(1.55245 0.314488 0)
(1.3362 0.357563 0)
(1.31327 0.0780271 0)
(1.28712 -0.133564 0)
(1.28356 -0.373271 0)
(1.19886 -0.37947 0)
(3.65709 -0.175304 0)
(4.38375 0.402346 0)
(2.5284 1.11899 0)
(2.40265 0.97155 0)
(2.12849 -1.10943 0)
(1.7443 -2.52435 0)
(2.10754 -1.66885 0)
(2.35173 -0.0187091 0)
(2.29194 0.8591 0)
(2.32395 0.549861 0)
(2.49449 -0.191674 0)
(2.45584 -0.531245 0)
(2.1709 -0.347578 0)
(1.76534 0.0845916 0)
(1.4172 0.376715 0)
(1.24617 0.37774 0)
(1.27073 0.077864 0)
(1.26466 -0.127234 0)
(1.2774 -0.360005 0)
(1.20296 -0.368777 0)
(3.70308 -0.236262 0)
(4.68899 0.478035 0)
(3.19127 1.37996 0)
(2.92938 1.35129 0)
(2.22934 -0.864515 0)
(1.68809 -2.50482 0)
(1.96224 -1.7197 0)
(2.17309 -0.0331078 0)
(2.11229 0.85719 0)
(2.1951 0.533893 0)
(2.39944 -0.171632 0)
(2.35301 -0.458953 0)
(2.04518 -0.252056 0)
(1.62358 0.174684 0)
(1.29545 0.431092 0)
(1.17527 0.388109 0)
(1.246 0.0700088 0)
(1.25384 -0.130022 0)
(1.2756 -0.357374 0)
(1.20745 -0.362973 0)
(4.4382 -0.477053 0)
(4.403 0.655429 0)
(2.76642 1.54325 0)
(2.63392 1.17725 0)
(2.09942 -0.914394 0)
(1.68915 -2.51272 0)
(1.8548 -1.7613 0)
(2.00474 -0.034718 0)
(1.93532 0.84477 0)
(2.06267 0.469708 0)
(2.27223 -0.220817 0)
(2.21206 -0.436537 0)
(1.90183 -0.172737 0)
(1.48454 0.259518 0)
(1.189 0.476295 0)
(1.12599 0.387796 0)
(1.22831 0.0578634 0)
(1.24104 -0.130227 0)
(1.2714 -0.349873 0)
(1.2115 -0.355073 0)
(4.53355 -0.495595 0)
(4.80393 0.89953 0)
(3.20919 1.64356 0)
(3.19188 1.55641 0)
(2.3851 -0.570379 0)
(1.78936 -2.41831 0)
(1.77536 -1.7745 0)
(1.84119 -0.0314804 0)
(1.7694 0.834275 0)
(1.94795 0.435912 0)
(2.16577 -0.210321 0)
(2.09532 -0.371014 0)
(1.77222 -0.0817148 0)
(1.35506 0.341067 0)
(1.10287 0.510297 0)
(1.09737 0.378165 0)
(1.21225 0.0414752 0)
(1.22443 -0.135729 0)
(1.26347 -0.349303 0)
(1.21386 -0.350428 0)
(4.77654 -0.947669 0)
(4.07811 1.0884 0)
(2.95821 1.85609 0)
(2.90172 1.46961 0)
(2.18499 -0.663161 0)
(1.79236 -2.41309 0)
(1.69814 -1.77634 0)
(1.70417 -0.0145882 0)
(1.63037 0.813196 0)
(1.83211 0.365343 0)
(2.03501 -0.247189 0)
(1.96023 -0.333736 0)
(1.64036 0.00111407 0)
(1.23421 0.415215 0)
(1.04372 0.532418 0)
(1.08136 0.362943 0)
(1.18863 0.0268067 0)
(1.20012 -0.139228 0)
(1.25233 -0.347615 0)
(1.21547 -0.345558 0)
(3.07033 -0.588713 0)
(4.14786 1.34095 0)
(3.19745 1.85926 0)
(2.88827 1.70452 0)
(2.38325 -0.34227 0)
(1.9461 -2.28411 0)
(1.65073 -1.74513 0)
(1.59153 0.0061903 0)
(1.52133 0.795411 0)
(1.72433 0.32494 0)
(1.91208 -0.242672 0)
(1.83743 -0.275721 0)
(1.51333 0.0860032 0)
(1.12736 0.480453 0)
(1.01369 0.542075 0)
(1.06394 0.345684 0)
(1.15492 0.0121201 0)
(1.16997 -0.1475 0)
(1.23856 -0.352189 0)
(1.21601 -0.343529 0)
(-1.09683 -1.06656 0)
(3.68201 1.20079 0)
(3.25747 1.95044 0)
(2.77471 1.78035 0)
(2.35455 -0.429569 0)
(2.08256 -2.26145 0)
(1.64081 -1.70379 0)
(1.50157 0.0384295 0)
(1.43411 0.776447 0)
(1.60894 0.264948 0)
(1.76628 -0.265956 0)
(1.69485 -0.230802 0)
(1.38056 0.164816 0)
(1.0497 0.531747 0)
(1.00357 0.543176 0)
(1.03556 0.331904 0)
(1.11785 -9.9322e-05 0)
(1.14103 -0.156571 0)
(1.22665 -0.358295 0)
(1.21735 -0.342283 0)
(-3.88529 -0.896448 0)
(3.19227 0.700042 0)
(2.88544 2.01344 0)
(2.54778 1.88896 0)
(2.5174 -0.262904 0)
(2.26705 -2.13233 0)
(1.68467 -1.63638 0)
(1.45184 0.071446 0)
(1.37901 0.764529 0)
(1.51287 0.238401 0)
(1.63978 -0.263675 0)
(1.57706 -0.188866 0)
(1.28337 0.222556 0)
(1.0138 0.562901 0)
(0.998135 0.54194 0)
(1.00688 0.322608 0)
(1.09242 -0.0122569 0)
(1.12127 -0.167898 0)
(1.21817 -0.367378 0)
(1.2188 -0.342962 0)
(-3.86349 -0.801825 0)
(3.32998 0.103313 0)
(2.65516 2.02648 0)
(2.38373 1.92947 0)
(2.55957 -0.330669 0)
(2.35379 -2.10673 0)
(1.71907 -1.57811 0)
(1.42406 0.10268 0)
(1.34502 0.759128 0)
(1.43163 0.214392 0)
(1.52782 -0.270637 0)
(1.47794 -0.161952 0)
(1.21366 0.261255 0)
(1.00029 0.581825 0)
(0.992123 0.541416 0)
(0.985887 0.316441 0)
(1.0782 -0.0219905 0)
(1.10891 -0.177158 0)
(1.21278 -0.375109 0)
(1.22051 -0.343843 0)
(-2.15562 -0.879837 0)
(2.79508 -0.355363 0)
(2.44151 2.03665 0)
(2.2307 1.92563 0)
(2.68026 -0.283294 0)
(2.50029 -2.00489 0)
(1.7789 -1.50152 0)
(1.41098 0.143841 0)
(1.3209 0.760478 0)
(1.34978 0.202847 0)
(1.41567 -0.270015 0)
(1.38011 -0.136785 0)
(1.15653 0.293842 0)
(0.998751 0.597117 0)
(0.984326 0.542578 0)
(0.971125 0.31066 0)
(1.069 -0.0324977 0)
(1.09844 -0.187362 0)
(1.2077 -0.384245 0)
(1.22241 -0.345478 0)
(-2.64467 -0.953119 0)
(2.54411 -0.594203 0)
(2.23946 2.07829 0)
(2.08163 1.90568 0)
(2.75576 -0.348575 0)
(2.58356 -1.96513 0)
(1.83511 -1.4255 0)
(1.41159 0.183598 0)
(1.30449 0.765254 0)
(1.26771 0.195159 0)
(1.30498 -0.271109 0)
(1.28882 -0.119328 0)
(1.11763 0.316626 0)
(1.00455 0.608616 0)
(0.97777 0.545082 0)
(0.964915 0.304856 0)
(1.06369 -0.0427962 0)
(1.08929 -0.197577 0)
(1.20309 -0.394057 0)
(1.22465 -0.347618 0)
(-2.41554 -0.80969 0)
(2.14238 -1.033 0)
(2.14239 2.08316 0)
(1.92333 1.8519 0)
(2.84951 -0.364143 0)
(2.69844 -1.87091 0)
(1.90312 -1.33284 0)
(1.42634 0.239715 0)
(1.29443 0.780234 0)
(1.19168 0.197559 0)
(1.20625 -0.270969 0)
(1.21208 -0.10332 0)
(1.09823 0.33608 0)
(1.01255 0.619757 0)
(0.976675 0.548735 0)
(0.967004 0.299119 0)
(1.05968 -0.0524936 0)
(1.07996 -0.207944 0)
(1.19827 -0.40489 0)
(1.22707 -0.350411 0)
(-1.15708 -0.897359 0)
(1.44251 -1.36953 0)
(1.97058 2.10355 0)
(1.79671 1.78608 0)
(2.92599 -0.446787 0)
(2.77538 -1.81895 0)
(1.96824 -1.24212 0)
(1.45444 0.280491 0)
(1.28823 0.798163 0)
(1.12464 0.206234 0)
(1.12602 -0.271673 0)
(1.15808 -0.104318 0)
(1.09777 0.342667 0)
(1.02204 0.627403 0)
(0.984971 0.552401 0)
(0.974875 0.294045 0)
(1.05492 -0.0608825 0)
(1.06976 -0.218216 0)
(1.19332 -0.416597 0)
(1.22977 -0.353829 0)
(0.570157 -0.893308 0)
(0.92201 -1.53763 0)
(1.86962 2.06141 0)
(1.72171 1.69555 0)
(3.00345 -0.492784 0)
(2.84922 -1.7374 0)
(2.03414 -1.13692 0)
(1.48816 0.363405 0)
(1.28356 0.8307 0)
(1.07271 0.220406 0)
(1.06814 -0.274414 0)
(1.1287 -0.0951795 0)
(1.11046 0.35624 0)
(1.03235 0.638828 0)
(1.00376 0.556784 0)
(0.985051 0.290577 0)
(1.0481 -0.0677396 0)
(1.05827 -0.228611 0)
(1.18819 -0.429385 0)
(1.23279 -0.357943 0)
(2.3481 -1.04987 0)
(0.591702 -1.54648 0)
(1.5657 2.0185 0)
(1.75318 1.56297 0)
(3.05773 -0.574446 0)
(2.88939 -1.69301 0)
(2.09223 -1.05285 0)
(1.53792 0.384542 0)
(1.28785 0.86088 0)
(1.03729 0.240746 0)
(1.03403 -0.279429 0)
(1.12355 -0.11514 0)
(1.13186 0.349161 0)
(1.05069 0.643009 0)
(1.03282 0.560452 0)
(0.994931 0.289586 0)
(1.03943 -0.0728664 0)
(1.04588 -0.239244 0)
(1.1832 -0.443341 0)
(1.23628 -0.362765 0)
(3.68499 -1.29308 0)
(0.130333 -1.43771 0)
(1.43414 1.92558 0)
(1.89866 1.45074 0)
(3.08333 -0.617941 0)
(2.90097 -1.61631 0)
(2.15635 -0.917026 0)
(1.57423 0.518161 0)
(1.28421 0.912716 0)
(1.01858 0.259627 0)
(1.01295 -0.288777 0)
(1.1303 -0.106203 0)
(1.15354 0.370244 0)
(1.07451 0.657817 0)
(1.06756 0.566506 0)
(1.00349 0.291898 0)
(1.03038 -0.0763799 0)
(1.03342 -0.250356 0)
(1.17874 -0.458693 0)
(1.24039 -0.36839 0)
(3.7447 -1.92412 0)
(-0.509469 -1.30609 0)
(0.851522 1.75908 0)
(2.04982 1.23905 0)
(3.05758 -0.712144 0)
(2.85005 -1.52574 0)
(2.20126 -0.910557 0)
(1.6477 0.480397 0)
(1.31959 0.949295 0)
(1.01807 0.286745 0)
(1.00567 -0.300997 0)
(1.1485 -0.147911 0)
(1.18504 0.343096 0)
(1.11758 0.652974 0)
(1.10914 0.5719 0)
(1.01251 0.29789 0)
(1.02343 -0.0783625 0)
(1.02225 -0.261951 0)
(1.17538 -0.475479 0)
(1.24537 -0.37497 0)
(3.45277 -0.861922 0)
(-0.652085 -0.603588 0)
(0.301097 1.63018 0)
(2.47941 0.964899 0)
(3.02953 -0.732092 0)
(2.7598 -1.47218 0)
(2.24052 -0.482718 0)
(1.64124 0.841583 0)
(1.3006 1.05817 0)
(1.02463 0.323518 0)
(0.994876 -0.291465 0)
(1.15136 -0.108946 0)
(1.20613 0.412571 0)
(1.18774 0.691644 0)
(1.17161 0.591463 0)
(1.02868 0.312968 0)
(1.01968 -0.0793454 0)
(1.00889 -0.281201 0)
(1.17277 -0.50468 0)
(1.25524 -0.387158 0)
(4.42199 -1.55459 0)
(1.7104 -0.596405 0)
(1.32356 0.756868 0)
(3.05206 0.344512 0)
(2.88413 -0.694932 0)
(2.56497 -1.37733 0)
(2.46437 -0.815266 0)
(2.00406 0.603285 0)
(1.5017 1.12629 0)
(1.17835 0.388082 0)
(1.05933 -0.363446 0)
(1.21592 -0.264033 0)
(1.36157 0.279373 0)
(1.38534 0.642844 0)
(1.28783 0.61941 0)
(1.08358 0.351229 0)
(1.04994 -0.0728052 0)
(1.01191 -0.308221 0)
(1.18078 -0.549981 0)
(1.27557 -0.407237 0)
(3.58467 -0.264133 0)
(2.27781 0.237796 0)
(2.63412 0.977477 0)
(3.38963 0.499914 0)
(2.91291 -0.636948 0)
(2.57835 -1.23634 0)
(2.17312 -0.20877 0)
(1.80325 1.17248 0)
(1.567 1.33681 0)
(1.32206 0.490079 0)
(1.1769 -0.281166 0)
(1.29793 -0.210663 0)
(1.49458 0.367259 0)
(1.52243 0.730997 0)
(1.40127 0.695676 0)
(1.20196 0.399676 0)
(1.1488 -0.0571793 0)
(1.06422 -0.32824 0)
(1.21602 -0.596056 0)
(1.30779 -0.429767 0)
(3.62332 -0.737578 0)
(2.69624 -0.278438 0)
(2.97142 0.514415 0)
(4.15082 0.354199 0)
(3.70321 -0.372796 0)
(2.93397 -1.25401 0)
(2.63686 -0.629223 0)
(2.14942 0.852893 0)
(1.85083 1.33695 0)
(1.52691 0.558574 0)
(1.42413 -0.363852 0)
(1.60406 -0.411149 0)
(1.80708 0.184713 0)
(1.76176 0.668063 0)
(1.62802 0.727707 0)
(1.40794 0.452401 0)
(1.30367 -0.0222822 0)
(1.16979 -0.330703 0)
(1.28953 -0.634032 0)
(1.35619 -0.45125 0)
(3.66864 -0.0846359 0)
(2.4137 0.33102 0)
(2.95644 0.393749 0)
(3.91796 0.27218 0)
(3.95712 -0.189588 0)
(3.12458 -0.739571 0)
(2.39808 0.0451718 0)
(2.0497 1.35244 0)
(1.98308 1.51748 0)
(1.72263 0.643837 0)
(1.63154 -0.304458 0)
(1.76757 -0.358938 0)
(1.95887 0.293245 0)
(1.93442 0.796034 0)
(1.86857 0.830871 0)
(1.60144 0.532717 0)
(1.44293 0.0275711 0)
(1.2918 -0.320636 0)
(1.40047 -0.659154 0)
(1.42586 -0.468136 0)
(3.27094 -0.220726 0)
(3.09177 -0.00438434 0)
(3.20105 0.00884137 0)
(3.02211 0.106233 0)
(3.73755 -0.154568 0)
(3.63661 -0.846758 0)
(3.00191 -0.248373 0)
(2.51932 1.07862 0)
(2.28236 1.47845 0)
(2.1041 0.722651 0)
(2.06263 -0.36796 0)
(2.04981 -0.552993 0)
(2.19221 0.132628 0)
(2.23573 0.71824 0)
(2.17235 0.843015 0)
(1.78565 0.612141 0)
(1.56822 0.0845078 0)
(1.39907 -0.312276 0)
(1.52635 -0.676498 0)
(1.51703 -0.477531 0)
(3.40925 0.00152978 0)
(3.1675 0.227958 0)
(3.01904 0.37085 0)
(3.27215 0.096208 0)
(3.45144 -0.364083 0)
(2.61069 -0.426944 0)
(2.38791 0.350378 0)
(2.47802 1.44614 0)
(2.39594 1.64277 0)
(2.48191 0.753882 0)
(2.43437 -0.268464 0)
(2.24776 -0.435307 0)
(2.35411 0.201364 0)
(2.51111 0.796028 0)
(2.41094 0.983877 0)
(1.95979 0.756042 0)
(1.74115 0.159885 0)
(1.51565 -0.311953 0)
(1.64329 -0.703466 0)
(1.61975 -0.485517 0)
(3.36558 -0.0619656 0)
(3.00266 0.145591 0)
(2.96656 0.00976798 0)
(3.36347 0.0295475 0)
(3.43275 0.0045833 0)
(2.63568 -0.489648 0)
(2.13958 -0.0825871 0)
(2.33551 1.17294 0)
(2.43982 1.5142 0)
(2.86906 0.755499 0)