/*--------------------------------*- C++ -*----------------------------------*\
| =========                 |                                                 |
| \\      /  F ield         | OpenFOAM: The Open Source CFD Toolbox           |
|  \\    /   O peration     | Version:  v1806                                 |
|   \\  /    A nd           | Web:      www.OpenFOAM.com                      |
|    \\/     M anipulation  |                                                 |
\*---------------------------------------------------------------------------*/
FoamFile
{
    version     2.0;
    format      ascii;
    class       volScalarField;
    location    "500";
    object      p;
}
// * * * * * * * * * * * * * * * * * * * * * * * * * * * * * * * * * * * * * //

dimensions      [0 2 -2 0 0 0 0];


internalField   nonuniform List<scalar> 
6205
(
0.0447306
0.0447758
0.0447726
0.0447758
0.0447306
0.0501429
0.050151
0.0501461
0.050151
0.0501429
0.0467477
0.0467758
0.0467712
0.0467758
0.0467477
0.0404648
0.040473
0.0404721
0.040473
0.0404648
0.000246596
0.000244442
0.000244668
0.000244442
0.000246596
0.000157508
0.000155821
0.000155839
0.00015582
0.000157508
-0.000104139
-0.000104869
-0.000104838
-0.000104871
-0.000104139
0.000484406
0.000485807
0.000485848
0.000485807
0.000484407
0.000491855
0.000490767
0.00049088
0.000490766
0.000491854
0.000490076
0.000491609
0.000491638
0.000491608
0.000490074
0.000608513
0.00060883
0.000608958
0.00060883
0.000608513
0.000605135
0.000604806
0.000604941
0.000604806
0.000605135
0.000591537
0.000591699
0.000591819
0.000591699
0.000591537
0.000595856
0.000596138
0.000596273
0.000596138
0.000595855
0.000602532
0.000603731
0.000603781
0.000603731
0.000602532
0.000531196
0.00053044
0.000530549
0.00053044
0.000531196
0.0237513
0.0237666
0.0237655
0.0237666
0.0237513
0.0326558
0.0326818
0.0326783
0.0326818
0.0326558
0.0240051
0.0240151
0.0240149
0.0240151
0.0240051
0.0238772
0.0238868
0.023887
0.0238868
0.0238772
0.0268406
0.0268464
0.0268461
0.0268464
0.0268406
0.0267047
0.0267115
0.0267114
0.0267115
0.0267047
0.0300124
0.0300197
0.0300195
0.0300197
0.0300124
0.0298677
0.0298793
0.029879
0.0298793
0.0298677
0.0333648
0.0333687
0.0333688
0.0333687
0.0333648
0.0332972
0.0333051
0.0333047
0.0333051
0.0332972
0.0370134
0.0370331
0.0370325
0.0370331
0.0370134
0.0369617
0.0369806
0.0369796
0.0369806
0.0369617
0.0403708
0.0403763
0.0403754
0.0403763
0.0403708
0.0497253
0.049733
0.0497283
0.049733
0.0497253
0.0464697
0.0464971
0.0464924
0.0464971
0.0464697
0.0411341
0.0411509
0.041149
0.0411509
0.0411341
0.0366817
0.0366976
0.0366968
0.0366976
0.0366817
0.0327476
0.0327593
0.0327592
0.0327593
0.0327476
0.0293114
0.0293205
0.0293203
0.0293205
0.0293114
0.026235
0.0262426
0.0262422
0.0262426
0.026235
0.0235058
0.0235135
0.0235131
0.0235135
0.0235058
0.0210682
0.0210777
0.0210776
0.0210777
0.0210682
0.0214804
0.0214899
0.02149
0.0214899
0.0214804
0.0214208
0.0214276
0.0214281
0.0214276
0.0214208
0.0209989
0.0210049
0.0210058
0.0210049
0.0209989
0.0233953
0.0234056
0.0234061
0.0234056
0.0233953
0.0261204
0.026129
0.0261291
0.026129
0.0261204
0.0292421
0.0292579
0.0292575
0.0292579
0.0292421
0.0327194
0.0327308
0.0327301
0.0327308
0.0327194
0.0367709
0.03679
0.0367886
0.03679
0.0367709
0.0414647
0.0414764
0.0414746
0.0414764
0.0414647
0.0225073
0.0225142
0.0225149
0.0225142
0.0225073
0.0249824
0.0249876
0.0249881
0.0249876
0.0249824
0.0277501
0.0277586
0.0277588
0.0277586
0.0277501
0.0307834
0.0307857
0.0307857
0.0307857
0.0307834
0.0340665
0.0340769
0.0340767
0.0340769
0.0340665
0.0370898
0.0371001
0.0370991
0.0371001
0.0370898
0.0398488
0.0398643
0.0398623
0.0398643
0.0398488
0.0427228
0.0427493
0.0427455
0.0427493
0.0427228
0.0420774
0.042102
0.0420984
0.042102
0.0420774
0.0394805
0.0394947
0.0394927
0.0394947
0.0394805
0.020265
0.020269
0.02027
0.020269
0.020265
0.0367274
0.0367382
0.0367373
0.0367382
0.0367274
0.0338155
0.0338249
0.0338249
0.0338249
0.0338155
0.0309423
0.0309457
0.030946
0.0309457
0.0309423
0.0279245
0.0279274
0.0279275
0.0279274
0.0279245
0.0250861
0.0250887
0.0250884
0.0250887
0.0250861
0.0225859
0.0225947
0.0225944
0.0225947
0.0225859
0.000587843
0.00058754
0.000587667
0.000587539
0.000587843
0.000591274
0.00059111
0.000591237
0.00059111
0.000591274
0.00057622
0.000576088
0.000576203
0.000576087
0.000576219
0.00058545
0.000585186
0.000585324
0.000585186
0.000585449
0.000586091
0.000586006
0.000586138
0.000586006
0.000586091
0.000619696
0.000620185
0.000620244
0.000620186
0.000619696
0.000618735
0.000619105
0.000619174
0.000619105
0.000618735
0.0202851
0.0202949
0.020295
0.0202949
0.0202851
0.0182639
0.0182728
0.0182734
0.0182728
0.0182639
0.0189335
0.0189432
0.0189437
0.0189432
0.0189335
0.0193101
0.0193193
0.0193198
0.0193193
0.0193101
0.0193171
0.0193223
0.0193231
0.0193222
0.0193171
0.0189523
0.0189563
0.0189573
0.0189563
0.0189523
0.0183123
0.0183157
0.0183167
0.0183157
0.0183123
0.0173776
0.0173811
0.0173821
0.0173811
0.0173776
0.0191982
0.0192003
0.0192012
0.0192003
0.0191982
0.0212157
0.0212197
0.0212206
0.0212197
0.0212157
0.0233774
0.0233799
0.0233808
0.0233799
0.0233774
0.0256768
0.0256801
0.0256811
0.0256801
0.0256768
0.0280651
0.0280692
0.0280702
0.0280692
0.0280651
0.0304389
0.0304485
0.0304493
0.0304485
0.0304389
0.0323143
0.0323282
0.0323283
0.0323282
0.0323143
0.0334017
0.0334213
0.0334198
0.0334213
0.0334017
0.0331444
0.0331745
0.0331707
0.0331745
0.0331444
0.0165145
0.0165199
0.016521
0.0165199
0.0165145
0.0171064
0.017112
0.0171129
0.0171119
0.0171064
0.0174399
0.0174449
0.0174458
0.0174449
0.0174399
0.0174724
0.0174762
0.0174772
0.0174762
0.0174724
0.0171797
0.0171816
0.0171827
0.0171816
0.0171797
0.0166013
0.0166035
0.0166046
0.0166035
0.0166013
0.0157468
0.0157491
0.0157502
0.0157491
0.0157468
0.0331219
0.0331449
0.0331433
0.0331449
0.0331219
0.031781
0.0317952
0.0317956
0.0317952
0.031781
0.0300784
0.0300865
0.0300874
0.0300865
0.0300784
0.0280373
0.0280416
0.0280426
0.0280416
0.0280373
0.0258425
0.0258437
0.0258445
0.0258437
0.0258425
0.0234953
0.0234951
0.0234953
0.0234951
0.0234953
0.0212467
0.0212524
0.0212524
0.0212524
0.0212467
0.0191749
0.0191828
0.0191832
0.0191828
0.0191749
0.0173127
0.0173182
0.017319
0.0173181
0.0173127
0.0157
0.0157029
0.015704
0.0157028
0.0157
0.000584957
0.000584152
0.000584349
0.000584151
0.000584957
0.000636021
0.000636396
0.000636457
0.000636392
0.00063602
0.000623832
0.000623875
0.000623923
0.000623875
0.000623831
0.000619773
0.000620031
0.0006201
0.000620031
0.000619773
0.000607543
0.000607743
0.000607849
0.000607743
0.000607543
0.000596985
0.000597139
0.000597262
0.000597139
0.000596985
0.0005747
0.000574604
0.000574739
0.000574604
0.0005747
0.000544101
0.000544545
0.000544685
0.000544545
0.000544101
0.000572743
0.0005727
0.000572823
0.0005727
0.000572743
0.000573964
0.000574188
0.00057432
0.000574188
0.000573964
0.000582289
0.000582209
0.000582321
0.000582209
0.000582289
0.000599633
0.000599993
0.000600074
0.000599993
0.000599633
0.00060159
0.000601058
0.000601167
0.000601058
0.00060159
0.000623596
0.000623889
0.000623926
0.00062389
0.000623596
0.000624272
0.000624478
0.000624468
0.000624478
0.000624272
0.000617475
0.000617926
0.000617948
0.000617926
0.000617475
0.000617374
0.000617796
0.000617819
0.000617796
0.000617374
0.000624801
0.000625021
0.000625022
0.000625021
0.000624801
0.000648257
0.000649149
0.000649249
0.000649149
0.000648257
0.00064627
0.000647164
0.000647296
0.000647162
0.000646269
0.000630226
0.000630845
0.000630984
0.000630845
0.000630225
0.000605396
0.000605658
0.000605804
0.000605658
0.000605396
0.000579951
0.000580047
0.000580211
0.000580047
0.000579951
0.000552804
0.000552474
0.000552615
0.000552474
0.000552804
0.000523397
0.000523522
0.000523651
0.000523521
0.000523395
0.000483788
0.000482747
0.000482908
0.000482747
0.00048379
0.000533299
0.000535235
0.000535244
0.000535236
0.000533301
0.000612316
0.000612706
0.000612677
0.000612705
0.000612316
0.000604327
0.00060486
0.000604853
0.00060486
0.000604327
0.000604909
0.000605438
0.000605431
0.000605438
0.000604909
0.000614148
0.000614492
0.000614459
0.000614492
0.000614148
0.000637797
0.000638728
0.000638787
0.000638728
0.000637798
0.000518906
0.000519099
0.000519253
0.000519099
0.000518906
0.000548924
0.000548623
0.00054878
0.000548623
0.000548923
0.000579936
0.000580231
0.000580408
0.00058023
0.000579936
0.000604727
0.000605093
0.000605291
0.000605092
0.000604727
0.000627748
0.000628538
0.000628748
0.000628538
0.000627747
0.000642064
0.000643038
0.000643184
0.00064304
0.000642065
0.000644472
0.000645421
0.000645508
0.000645421
0.000644472
0.000632344
0.000633231
0.000633276
0.000633231
0.000632344
0.00044002
0.000438122
0.000438314
0.000438122
0.00044002
0.00065522
0.00065487
0.00065477
0.00065487
0.00065522
0.000656323
0.000655745
0.000655658
0.000655747
0.000656324
0.000643751
0.000643035
0.000642982
0.000643035
0.000643751
0.000623625
0.000623003
0.000623004
0.000623003
0.000623625
0.000597466
0.000597068
0.000597124
0.000597068
0.000597466
0.000566152
0.000566063
0.000566155
0.000566063
0.000566152
0.00053174
0.000532057
0.00053216
0.000532057
0.00053174
0.000495561
0.00049572
0.000495823
0.00049572
0.00049556
0.00029398
0.000292653
0.000292719
0.000292651
0.000293978
0.000606963
0.000607769
0.000607779
0.000607769
0.000606963
0.000587641
0.000588199
0.000588164
0.000588199
0.000587641
0.000579921
0.000580488
0.000580462
0.000580488
0.000579921
0.000580997
0.000581561
0.000581534
0.000581561
0.000580997
0.000591066
0.000591526
0.000591481
0.000591526
0.000591066
0.000612914
0.000613752
0.000613775
0.000613752
0.000612914
0.000636503
0.000636328
0.000636228
0.000636328
0.000636503
0.000438242
0.000439552
0.000439606
0.000439552
0.000438242
0.00048237
0.000483918
0.000483941
0.000483918
0.000482369
0.000494072
0.000494156
0.000494265
0.000494156
0.000494072
0.000527647
0.000527867
0.000527995
0.000527866
0.000527647
0.000560706
0.000560459
0.000560549
0.000560459
0.000560706
0.000592629
0.000592171
0.00059221
0.00059217
0.000592627
0.000618749
0.000617967
0.000617944
0.000617963
0.000618745
0.000641463
0.000640862
0.000640791
0.000640861
0.000641461
0.000653587
0.000653141
0.000653039
0.000653141
0.000653587
0.000649967
0.000649763
0.000649663
0.000649763
0.000649966
0.000630368
0.000630301
0.000630217
0.000630301
0.000630368
0.000407635
0.000407867
0.00040796
0.000407868
0.000407635
0.000345776
0.000344208
0.000344398
0.000344208
0.000345776
0.000427513
0.000427262
0.000427422
0.000427262
0.000427513
0.000495746
0.000495693
0.000495868
0.000495693
0.000495746
0.000564844
0.000565194
0.000565428
0.000565194
0.000564844
0.000635523
0.000636626
0.000636879
0.000636626
0.000635523
0.000696867
0.000698662
0.000698907
0.000698662
0.000696867
0.000740334
0.000742665
0.000742921
0.000742666
0.000740334
0.000751757
0.00075392
0.000754142
0.000753921
0.000751757
0.000739262
0.000741424
0.000741595
0.000741424
0.000739262
0.000703685
0.00070565
0.000705761
0.00070565
0.000703685
0.000179038
0.000177139
0.00017725
0.000177139
0.000179038
0.00028411
0.00028308
0.000283251
0.00028308
0.00028411
0.000358332
0.000356714
0.000356908
0.000356714
0.000358332
0.000432133
0.00043194
0.000432138
0.00043194
0.000432133
0.000498445
0.000498675
0.000498861
0.000498675
0.000498445
0.000565795
0.000566404
0.000566658
0.000566403
0.000565794
0.000636729
0.000638261
0.000638594
0.000638259
0.000636725
0.000697768
0.000700314
0.000700733
0.000700289
0.000697755
0.000731593
0.000734054
0.000734355
0.00073405
0.000731589
0.000739984
0.000742239
0.000742463
0.000742238
0.000739983
0.000726011
0.000728211
0.00072838
0.000728211
0.000726011
0.000690484
0.000692473
0.000692595
0.000692473
0.000690484
0.000637435
0.000639018
0.000639117
0.000639018
0.000637435
0.000592272
0.000592281
0.00059222
0.000592281
0.000592272
0.000569233
0.000569889
0.00056989
0.000569889
0.000569233
0.000552542
0.000553116
0.00055308
0.000553116
0.000552542
0.00054522
0.000545769
0.000545741
0.000545768
0.00054522
0.000546293
0.000546832
0.000546805
0.000546832
0.000546293
0.00055592
0.000556466
0.000556432
0.000556466
0.00055592
0.000574862
0.000575545
0.000575545
0.000575545
0.000574862
0.000599459
0.000599508
0.000599425
0.000599508
0.000599459
0.000649715
0.000651419
0.000651501
0.000651419
0.000649715
0.0267294
0.0267341
0.0267332
0.0267341
0.0267294
0.0267543
0.0267568
0.0267578
0.0267568
0.0267543
0.026078
0.0260816
0.0260829
0.0260816
0.026078
0.0247684
0.0247677
0.0247692
0.0247677
0.0247684
0.0232057
0.0232042
0.0232052
0.0232042
0.0232057
0.0214023
0.0214021
0.0214026
0.0214021
0.0214023
0.0195462
0.0195504
0.0195509
0.0195504
0.0195462
0.0177718
0.0177764
0.0177772
0.0177764
0.0177718
0.0161582
0.0161616
0.0161626
0.0161616
0.0161582
0.0146905
0.0146921
0.0146932
0.0146921
0.0146905
0.0133918
0.0133931
0.0133943
0.0133931
0.0133918
0.0143037
0.0143053
0.0143066
0.0143053
0.0143037
0.0150373
0.01504
0.0150413
0.01504
0.0150373
0.0155686
0.0155723
0.0155734
0.0155723
0.0155686
0.0158573
0.0158616
0.0158626
0.0158616
0.0158573
0.0158737
0.0158757
0.0158768
0.0158757
0.0158737
0.0156309
0.015633
0.0156341
0.015633
0.0156309
0.0150963
0.015099
0.0151002
0.015099
0.0150963
0.014334
0.0143362
0.0143376
0.0143362
0.014334
0.0134038
0.0134048
0.0134061
0.0134048
0.0134038
0.0146984
0.0146995
0.0147007
0.0146995
0.0146984
0.0161981
0.016201
0.0162021
0.016201
0.0161981
0.0178089
0.0178105
0.0178115
0.0178105
0.0178089
0.0195368
0.0195379
0.019539
0.0195379
0.0195368
0.021279
0.021279
0.0212803
0.021279
0.021279
0.0231245
0.0231256
0.023127
0.0231256
0.0231245
0.0248719
0.0248728
0.0248743
0.0248728
0.0248719
0.0264007
0.0264062
0.0264074
0.0264062
0.0264007
0.027085
0.0270889
0.0270898
0.0270889
0.027085
0.0268501
0.0268562
0.0268555
0.0268562
0.0268501
0.0239612
0.0239773
0.0239758
0.0239773
0.0239612
0.0175574
0.0176055
0.0176003
0.0176055
0.0175574
0.00650546
0.00646645
0.00646183
0.00646645
0.00650546
0.0179911
0.018045
0.0180396
0.018045
0.0179911
0.00683543
0.0067999
0.0067948
0.00679991
0.00683544
0.000662281
0.00066093
0.000660752
0.00066093
0.000662281
0.000702742
0.000700976
0.000700745
0.000700976
0.000702742
0.00072172
0.000719757
0.000719501
0.000719757
0.00072172
0.000712821
0.000710458
0.000710204
0.000710458
0.000712821
0.000681653
0.000678824
0.000678586
0.000678824
0.000681653
0.000648801
0.000646816
0.000646657
0.000646816
0.000648801
0.000596331
0.000594745
0.000594669
0.000594745
0.000596331
0.000533266
0.000532356
0.000532372
0.000532356
0.000533266
0.000460779
0.000460296
0.000460387
0.000460296
0.000460779
0.000385284
0.000385429
0.000385587
0.000385429
0.000385284
0.000315348
0.000315322
0.000315389
0.000315322
0.000315348
0.000288771
0.000292203
0.00029217
0.000292203
0.000288771
0.000108307
0.000108359
0.000108228
0.000108361
0.000108308
0.000571736
0.000572987
0.000573081
0.000572988
0.000571736
0.000540632
0.0005409
0.000540862
0.0005409
0.000540632
0.00052096
0.000521538
0.000521538
0.000521538
0.00052096
0.000507162
0.000507682
0.000507662
0.000507682
0.000507162
0.000500642
0.000501139
0.000501124
0.000501139
0.000500642
0.000501752
0.000502246
0.000502231
0.000502246
0.000501752
0.000509769
0.000510257
0.000510239
0.000510257
0.000509769
0.000525657
0.00052621
0.00052621
0.00052621
0.000525657
0.000547735
0.000547917
0.000547863
0.000547917
0.000547735
0.000583368
0.000584656
0.000584734
0.000584656
0.000583368
0.000601101
0.000600066
0.000599954
0.000600066
0.000601101
6.31419e-05
6.24658e-05
6.25176e-05
6.24658e-05
6.31418e-05
0.000247268
0.000249807
0.000249862
0.000249807
0.000247268
0.000304289
0.000304114
0.000304277
0.000304114
0.000304289
0.000381824
0.000381681
0.000381871
0.000381681
0.000381823
0.000459186
0.000458696
0.000458805
0.000458695
0.000459185
0.000529719
0.000528583
0.000528583
0.000528582
0.000529719
0.000590146
0.000588344
0.00058818
0.000588343
0.000590144
0.000636537
0.000633563
0.000633172
0.000633558
0.000636532
0.000683005
0.000680619
0.000680303
0.000680618
0.000683002
0.000709589
0.000707309
0.000707022
0.000707309
0.000709588
0.00071451
0.000712571
0.000712324
0.000712571
0.00071451
0.000692609
0.000690814
0.000690605
0.000690813
0.000692609
0.000649516
0.000648164
0.000648005
0.000648164
0.000649516
0.000587279
0.000586253
0.000586154
0.000586254
0.00058728
0.0123086
0.0123098
0.0123111
0.0123098
0.0123086
0.0134856
0.0134867
0.0134879
0.0134867
0.0134856
0.0147657
0.014768
0.0147691
0.014768
0.0147657
0.0161374
0.0161378
0.0161388
0.0161378
0.0161374
0.0175166
0.0175154
0.0175166
0.0175154
0.0175166
0.0189295
0.0189283
0.0189298
0.0189283
0.0189295
0.0203312
0.0203311
0.0203328
0.0203311
0.0203312
0.0215107
0.0215128
0.0215147
0.0215128
0.0215107
0.0223472
0.0223524
0.0223539
0.0223524
0.0223472
0.0224285
0.0224411
0.0224422
0.0224411
0.0224286
0.0212948
0.0213177
0.0213173
0.0213177
0.0212948
0.0193375
0.0193886
0.0193852
0.0193886
0.0193375
0.0145848
0.0145844
0.0145791
0.0145844
0.0145848
0.00780235
0.00776806
0.00776468
0.00776807
0.00780235
-0.000788709
-0.000830392
-0.00082878
-0.000830389
-0.000788706
0.0122532
0.0122551
0.0122565
0.0122551
0.0122532
0.0131042
0.0131056
0.013107
0.0131056
0.0131042
0.0137799
0.0137805
0.0137819
0.0137805
0.0137799
0.0142497
0.0142502
0.0142514
0.0142502
0.0142497
0.0144884
0.0144894
0.0144905
0.0144894
0.0144884
0.0145024
0.0145036
0.0145046
0.0145036
0.0145024
0.0142671
0.0142681
0.0142692
0.0142681
0.0142671
0.0137891
0.0137895
0.0137908
0.0137895
0.0137891
0.0131126
0.0131125
0.013114
0.0131125
0.0131126
0.0122615
0.012262
0.0122634
0.012262
0.0122615
0.0112556
0.0112553
0.0112569
0.0112553
0.0112556
-0.000476615
-0.000513695
-0.000511984
-0.000513695
-0.000476615
0.00760276
0.00756185
0.00755911
0.00756185
0.00760276
0.0145735
0.0145634
0.0145582
0.0145634
0.0145735
0.0197393
0.0197946
0.0197904
0.0197946
0.0197393
0.0213974
0.0214257
0.0214253
0.0214257
0.0213974
0.0222507
0.0222636
0.0222651
0.0222636
0.0222507
0.022122
0.0221222
0.0221238
0.0221222
0.022122
0.0214256
0.0214212
0.0214225
0.0214212
0.0214256
0.0203973
0.0203959
0.0203965
0.0203959
0.0203973
0.019034
0.0190363
0.0190368
0.0190363
0.019034
0.0175696
0.0175747
0.0175752
0.0175747
0.0175696
0.016081
0.0160865
0.0160874
0.0160865
0.0160809
0.0147039
0.0147078
0.014709
0.0147078
0.0147039
0.0134446
0.0134453
0.0134465
0.0134453
0.0134446
0.0123011
0.0123011
0.0123023
0.0123011
0.0123011
0.01126
0.0112612
0.0112626
0.0112612
0.01126
0.000176854
0.000182702
0.000182255
0.000182702
0.000176854
-0.000700347
-0.000700203
-0.000700295
-0.000700203
-0.000700347
0.0103622
0.0103624
0.0103639
0.0103624
0.0103622
0.0112869
0.0112865
0.0112881
0.0112865
0.0112869
0.0120782
0.0120774
0.0120789
0.0120774
0.0120782
0.0126985
0.0126972
0.0126986
0.0126972
0.0126985
0.0131184
0.0131176
0.0131188
0.0131176
0.0131184
0.0133291
0.0133291
0.0133301
0.0133291
0.0133291
0.0133322
0.013332
0.0133329
0.013332
0.0133322
0.0131184
0.0131179
0.0131189
0.0131179
0.0131184
0.0126983
0.012697
0.0126982
0.012697
0.0126983
0.0120914
0.0120893
0.0120907
0.0120893
0.0120914
0.0113034
0.011302
0.0113036
0.011302
0.0113034
0.010368
0.0103663
0.0103679
0.0103663
0.010368
0.00931245
0.00931027
0.00931191
0.00931027
0.00931245
0.0100999
0.0100989
0.0101005
0.0100989
0.0100999
0.0110083
0.0110092
0.0110106
0.0110092
0.0110083
0.0119968
0.0119986
0.0119999
0.0119986
0.0119968
0.0130813
0.0130839
0.013085
0.0130839
0.0130813
0.0142153
0.0142156
0.0142166
0.0142156
0.0142153
0.0153506
0.0153476
0.0153488
0.0153476
0.0153506
0.0164376
0.0164354
0.0164371
0.0164354
0.0164376
0.0174308
0.017432
0.0174338
0.0174319
0.0174308
0.0182007
0.0182062
0.018208
0.0182062
0.0182007
0.0185796
0.0185883
0.0185897
0.0185884
0.0185796
0.0183694
0.0183867
0.0183871
0.0183868
0.0183694
0.0171541
0.0171706
0.0171697
0.0171706
0.0171541
0.0151154
0.0151376
0.015134
0.0151376
0.0151154
0.0113464
0.0113392
0.011335
0.0113392
0.0113464
0.00538044
0.00535271
0.00535082
0.00535271
0.00538044
-0.00172006
-0.00172591
-0.00172298
-0.0017259
-0.00172006
-0.00594682
-0.00591325
-0.00591207
-0.00591325
-0.00594682
-0.00681352
-0.00681589
-0.0068164
-0.00681589
-0.00681352
-0.00476677
-0.00477164
-0.00477136
-0.00477164
-0.00476677
-0.00257638
-0.00258828
-0.00258782
-0.00258828
-0.00257638
-0.000232977
-0.000220611
-0.000222404
-0.000220611
-0.000232977
-0.00146907
-0.00148537
-0.00148528
-0.00148537
-0.00146907
-6.82062e-05
-6.47352e-05
-6.48392e-05
-6.47353e-05
-6.82063e-05
-7.72989e-05
-8.38133e-05
-8.36999e-05
-8.38133e-05
-7.7299e-05
0.000216709
0.000217454
0.000217632
0.000217454
0.000216709
0.000256092
0.000254832
0.000255084
0.000254832
0.000256092
0.000352429
0.000352554
0.000352895
0.000352554
0.000352429
0.000455122
0.000455866
0.000456205
0.000455866
0.000455122
0.000575954
0.000577439
0.000577849
0.000577438
0.000575954
0.000719597
0.000722743
0.000723185
0.000722743
0.000719597
0.0008553
0.000860091
0.000860579
0.00086009
0.000855298
0.000941565
0.000946795
0.000947165
0.000946794
0.000941564
0.000971944
0.000976937
0.000977267
0.000976937
0.000971944
0.000952282
0.00095732
0.000957618
0.00095732
0.000952282
0.00088577
0.000890365
0.000890636
0.000890365
0.00088577
0.000788857
0.000792781
0.000793038
0.000792781
0.000788857
0.000676903
0.000680167
0.000680399
0.000680167
0.000676903
0.000561024
0.000563411
0.000563629
0.000563411
0.000561024
0.000512139
0.000511426
0.000511387
0.000511426
0.00051214
0.000498678
0.000499451
0.000499543
0.000499452
0.000498679
0.000478057
0.000478342
0.00047834
0.000478342
0.000478057
0.000463021
0.000463436
0.000463447
0.000463436
0.000463021
0.000452467
0.000452893
0.000452895
0.000452893
0.000452467
0.000447456
0.00044788
0.000447884
0.00044788
0.000447456
0.000448223
0.000448631
0.000448637
0.000448631
0.000448223
0.000455144
0.000455579
0.000455582
0.000455579
0.000455144
0.000467857
0.000468318
0.000468323
0.000468318
0.000467857
0.000485789
0.000486088
0.000486071
0.000486088
0.00048579
0.000509682
0.000510596
0.000510675
0.000510596
0.000509683
0.000525508
0.000524825
0.000524774
0.000524825
0.000525508
0.000580042
0.000582451
0.000582663
0.000582451
0.000580042
0.000696167
0.000699393
0.00069962
0.000699393
0.000696167
0.000809647
0.000813623
0.000813869
0.000813623
0.000809647
0.00090626
0.000910816
0.000911086
0.000910816
0.00090626
0.000972954
0.000977969
0.000978266
0.000977969
0.000972954
0.000992308
0.000997249
0.000997568
0.000997249
0.000992308
0.000958688
0.000963974
0.000964314
0.000963974
0.000958688
0.000853931
0.000857803
0.000858131
0.000857803
0.000853931
0.000722528
0.000725337
0.000725703
0.000725337
0.000722529
0.000580159
0.000581609
0.000581981
0.00058161
0.00058016
0.000452767
0.000453136
0.000453461
0.000453136
0.000452767
0.000348447
0.000348799
0.000349107
0.000348799
0.000348447
0.000233844
0.000232205
0.000232451
0.000232205
0.000233844
0.000149916
0.000149645
0.000150051
0.000149645
0.000149916
-0.000189197
-0.000197061
-0.000196832
-0.000197062
-0.000189198
0.000278919
0.000285735
0.000285384
0.000285738
0.000278924
-0.000336054
-0.000335642
-0.000335693
-0.000335641
-0.000336052
-6.21126e-05
-5.82481e-05
-5.82985e-05
-5.82493e-05
-6.21125e-05
-0.00175948
-0.00177905
-0.00177875
-0.00177905
-0.00175948
-2.61908e-05
-1.20767e-05
-1.3821e-05
-1.20771e-05
-2.6191e-05
-0.00266807
-0.00268124
-0.00268066
-0.00268124
-0.00266807
-0.004667
-0.0046715
-0.0046717
-0.0046715
-0.004667
-0.00635475
-0.00635736
-0.00635932
-0.00635736
-0.00635475
-0.00527789
-0.00522832
-0.00522811
-0.00522832
-0.00527789
-0.00103257
-0.00102669
-0.00102364
-0.00102669
-0.00103257
0.00593676
0.0059085
0.00590713
0.0059085
0.00593676
0.0116972
0.0116799
0.0116755
0.0116799
0.0116972
0.015408
0.0154306
0.0154258
0.0154306
0.015408
0.017106
0.0171293
0.0171286
0.0171293
0.017106
0.0182312
0.0182448
0.0182457
0.0182448
0.0182312
0.0184594
0.0184608
0.018462
0.0184608
0.0184594
0.0181653
0.0181645
0.0181653
0.0181645
0.0181653
0.0174608
0.0174633
0.0174636
0.0174633
0.0174608
0.0165061
0.0165109
0.0165113
0.0165109
0.0165061
0.0153492
0.0153555
0.0153561
0.0153555
0.0153492
0.0141734
0.014177
0.014178
0.014177
0.0141734
0.0130516
0.0130532
0.0130542
0.0130532
0.0130516
0.0119948
0.0119949
0.011996
0.0119949
0.0119948
0.0110221
0.011023
0.0110241
0.011023
0.0110221
0.0101121
0.0101138
0.0101151
0.0101138
0.0101121
0.00929738
0.00929791
0.00929946
0.00929791
0.00929738
0.00864077
0.00863852
0.0086402
0.00863852
0.00864077
0.00962722
0.00962515
0.00962678
0.00962515
0.00962722
0.0105001
0.0104971
0.0104987
0.0104971
0.0105001
0.0112244
0.0112214
0.0112227
0.0112214
0.0112244
0.0117854
0.0117825
0.0117837
0.0117825
0.0117854
0.0121632
0.012161
0.012162
0.012161
0.0121632
0.0123538
0.0123523
0.0123532
0.0123523
0.0123538
0.0123561
0.0123549
0.0123557
0.0123549
0.0123561
0.012165
0.0121633
0.0121642
0.0121633
0.012165
0.011788
0.0117851
0.0117862
0.0117851
0.011788
0.0112338
0.0112301
0.0112314
0.0112301
0.0112338
0.0105108
0.0105071
0.0105086
0.0105071
0.0105108
0.00964102
0.00963754
0.00963914
0.00963754
0.00964102
0.00864077
0.00863679
0.00863842
0.00863679
0.00864077
0.00755372
0.00754984
0.00755136
0.00754984
0.00755372
0.00813289
0.00813109
0.00813264
0.00813109
0.00813289
0.0088031
0.00880202
0.00880349
0.00880202
0.0088031
0.00954178
0.00954156
0.00954292
0.00954156
0.00954178
0.0103557
0.0103569
0.0103581
0.0103569
0.0103557
0.0112368
0.0112378
0.0112389
0.0112378
0.0112368
0.0121515
0.0121507
0.0121518
0.0121507
0.0121515
0.0130415
0.013039
0.0130403
0.013039
0.0130415
0.0138606
0.0138597
0.0138614
0.0138597
0.0138605
0.0145481
0.0145509
0.0145527
0.0145509
0.0145481
0.0150259
0.0150346
0.015036
0.0150345
0.0150259
0.0151454
0.0151564
0.0151573
0.0151564
0.0151454
0.0147834
0.0147994
0.014799
0.0147994
0.0147834
0.0136567
0.0136655
0.0136642
0.0136655
0.0136567
0.0117991
0.0118097
0.0118071
0.0118097
0.0117991
0.00883561
0.00883337
0.0088306
0.00883337
0.00883561
0.00457158
0.00456431
0.00456252
0.00456431
0.00457158
0.000761764
0.000773181
0.000773314
0.000773181
0.000761764
-0.00224909
-0.00225089
-0.00225111
-0.00225089
-0.00224909
-0.00368042
-0.00369545
-0.00369615
-0.00369545
-0.00368042
-0.003647
-0.00367983
-0.00367917
-0.00367983
-0.003647
-0.00244459
-0.00245472
-0.00245313
-0.00245472
-0.00244459
-0.000819396
-0.000802401
-0.00080277
-0.0008024
-0.000819396
-0.000215777
-0.000215462
-0.000216163
-0.000215462
-0.000215777
0.000194828
0.000201192
0.000200567
0.000201192
0.000194828
0.00024019
0.000239112
0.00023885
0.000239112
0.00024019
0.000280668
0.000281008
0.000281174
0.000281008
0.000280668
0.000297384
0.000295833
0.000296216
0.000295833
0.000297384
0.000349013
0.000347028
0.000347491
0.000347028
0.000349013
0.000444764
0.000442993
0.000443194
0.000442993
0.000444764
0.000542112
0.000539177
0.000539113
0.000539177
0.000542112
0.000634431
0.000630585
0.00063035
0.000630585
0.000634431
0.000703475
0.000698642
0.000698223
0.000698642
0.000703474
0.000757782
0.000752592
0.000752153
0.000752592
0.000757781
0.000784111
0.000778551
0.000778136
0.000778551
0.000784111
0.000776852
0.000771784
0.000771421
0.000771784
0.000776851
0.00073296
0.000727699
0.00072742
0.000727699
0.000732959
0.000669376
0.000664524
0.000664322
0.000664524
0.000669376
0.000590971
0.000586931
0.000586777
0.000586931
0.00059097
0.000503467
0.000500345
0.000500239
0.000500345
0.000503467
0.00041268
0.000410375
0.000410321
0.000410375
0.00041268
0.000451521
0.000453096
0.000453301
0.000453096
0.000451521
0.000430324
0.000429919
0.000429927
0.00042992
0.000430325
0.000422088
0.000422608
0.000422701
0.000422615
0.000422091
0.000409493
0.000409796
0.000409825
0.000409797
0.000409494
0.000398509
0.000398851
0.000398878
0.000398851
0.00039851
0.000390897
0.000391257
0.00039128
0.000391257
0.000390897
0.00038695
0.000387285
0.00038731
0.000387285
0.00038695
0.000387626
0.000387955
0.000387982
0.000387955
0.000387626
0.000393024
0.000393351
0.000393378
0.000393352
0.000393024
0.000402891
0.000403235
0.000403259
0.000403235
0.000402892
0.000415961
0.000416281
0.000416304
0.000416282
0.000415962
0.000431477
0.000431959
0.000432038
0.000431963
0.000431479
0.00044356
0.000443167
0.000443161
0.000443167
0.000443561
0.000468784
0.000470406
0.000470594
0.000470405
0.000468783
0.000434306
0.000432052
0.00043199
0.000432052
0.000434306
0.000525637
0.000522499
0.000522382
0.000522499
0.000525636
0.000612369
0.000608388
0.000608209
0.000608388
0.000612369
0.000689817
0.000685167
0.000684927
0.000685167
0.000689817
0.000750613
0.000745371
0.000745068
0.000745371
0.000750613
0.000788402
0.000783167
0.0007828
0.000783167
0.000788402
0.000790396
0.000784816
0.000784415
0.000784816
0.000790396
0.000761414
0.000756011
0.000755622
0.000756011
0.000761414
0.000709637
0.000704919
0.00070463
0.000704919
0.000709638
0.00063659
0.000632788
0.000632607
0.000632789
0.000636591
0.0005359
0.000532797
0.000532815
0.000532798
0.000535901
0.000435545
0.000432944
0.000433145
0.000432945
0.000435545
0.000354156
0.000353057
0.000353392
0.000353058
0.000354157
0.000267518
0.000265182
0.000265604
0.000265182
0.000267518
0.000241661
0.0002409
0.000241144
0.0002409
0.000241661
0.000255085
0.000255199
0.000254751
0.000255199
0.000255085
0.000242456
0.000251828
0.000251219
0.000251827
0.000242456
-0.000230804
-0.000233418
-0.000233795
-0.000233419
-0.000230804
-0.00065357
-0.000633651
-0.000633677
-0.000633651
-0.00065357
-0.00239432
-0.00241428
-0.00241263
-0.00241428
-0.00239432
-0.00348599
-0.00351323
-0.00351319
-0.00351323
-0.00348599
-0.00350245
-0.00351406
-0.00351541
-0.00351406
-0.00350245
-0.00195292
-0.00195599
-0.00195628
-0.00195599
-0.00195292
0.00100492
0.00101907
0.00101975
0.00101907
0.00100492
0.00476291
0.00475049
0.00474985
0.00475049
0.00476291
0.00904362
0.00902998
0.0090273
0.00902998
0.00904362
0.012052
0.0120621
0.0120591
0.0120621
0.012052
0.0137244
0.0137382
0.0137372
0.0137382
0.0137244
0.0146965
0.0147099
0.0147099
0.0147099
0.0146965
0.0150682
0.0150724
0.0150728
0.0150724
0.0150682
0.0150177
0.0150204
0.0150206
0.0150204
0.0150177
0.0145901
0.0145946
0.0145948
0.0145946
0.0145901
0.0138768