/*--------------------------------*- C++ -*----------------------------------*\
| =========                 |                                                 |
| \\      /  F ield         | OpenFOAM: The Open Source CFD Toolbox           |
|  \\    /   O peration     | Version:  v1806                                 |
|   \\  /    A nd           | Web:      www.OpenFOAM.com                      |
|    \\/     M anipulation  |                                                 |
\*---------------------------------------------------------------------------*/
FoamFile
{
    version     2.0;
    format      ascii;
    class       volVectorField;
    location    "480";
    object      U;
}
// * * * * * * * * * * * * * * * * * * * * * * * * * * * * * * * * * * * * * //

dimensions      [0 1 -1 0 0 0 0];


internalField   nonuniform List<vector> 
5735
(
(0.262195 0.187921 0.000472436)
(0.262213 0.1878 5.19937e-08)
(0.262219 0.187815 6.47871e-11)
(0.262213 0.1878 -5.1892e-08)
(0.262195 0.187921 -0.000472436)
(0.247576 0.178869 0.000795914)
(0.247615 0.178884 3.38143e-08)
(0.247623 0.178918 5.03123e-11)
(0.247615 0.178884 -3.37387e-08)
(0.247576 0.178869 -0.000795914)
(0.222403 0.181791 0.00103787)
(0.222435 0.182032 -1.67283e-06)
(0.222426 0.182065 2.00364e-11)
(0.222435 0.182032 1.67286e-06)
(0.222403 0.181791 -0.00103787)
(0.228566 -0.0144632 0.00183218)
(0.228429 -0.0144462 1.74865e-06)
(0.228411 -0.0144461 -3.84501e-11)
(0.228429 -0.0144462 -1.74871e-06)
(0.228566 -0.0144632 -0.00183218)
(0.211628 -0.00853117 0.00202188)
(0.211522 -0.0085562 1.65833e-06)
(0.211507 -0.00856034 5.28069e-12)
(0.211522 -0.0085562 -1.65832e-06)
(0.211628 -0.00853117 -0.00202188)
(0.209422 0.0107577 0.00202892)
(0.209265 0.0107479 1.79572e-06)
(0.20925 0.0107466 -1.02787e-12)
(0.209265 0.0107479 -1.79572e-06)
(0.209422 0.0107577 -0.00202892)
(0.230081 0.00720178 0.00182309)
(0.229981 0.00721856 1.32973e-06)
(0.229969 0.00722119 -2.34687e-11)
(0.229981 0.00721856 -1.32977e-06)
(0.230081 0.00720178 -0.00182309)
(0.248158 -0.0220011 0.0015807)
(0.248081 -0.0220381 1.16706e-06)
(0.248072 -0.0220449 -2.11612e-10)
(0.248081 -0.0220381 -1.16734e-06)
(0.248158 -0.0220011 -0.0015807)
(0.245264 -0.00582469 0.00164029)
(0.245158 -0.00587516 1.41437e-06)
(0.245146 -0.00588165 -1.87904e-10)
(0.245158 -0.00587516 -1.41463e-06)
(0.245264 -0.00582469 -0.00164029)
(0.186325 -0.178598 0.00149141)
(0.186354 -0.178782 -6.81785e-07)
(0.186333 -0.178819 -3.81813e-10)
(0.186354 -0.178782 6.81322e-07)
(0.186325 -0.178598 -0.00149141)
(0.203776 -0.155838 0.0015048)
(0.203795 -0.156041 5.54156e-07)
(0.203797 -0.156069 -1.05822e-09)
(0.203795 -0.156041 -5.55392e-07)
(0.203776 -0.155838 -0.0015048)
(0.23838 -0.178037 0.000904738)
(0.238693 -0.178237 -2.66313e-06)
(0.238728 -0.178269 -3.78736e-09)
(0.238693 -0.178237 2.66033e-06)
(0.23838 -0.178037 -0.000904731)
(0.232834 -0.184464 0.000711022)
(0.233195 -0.184558 -3.59609e-06)
(0.233209 -0.184583 -8.84727e-10)
(0.233195 -0.184558 3.59514e-06)
(0.232834 -0.184464 -0.00071102)
(-0.0144426 -0.000778543 -1.04097e-05)
(-0.0144132 -0.000778691 1.52376e-07)
(-0.0144039 -0.00077889 -5.3559e-12)
(-0.0144132 -0.000778691 -1.52373e-07)
(-0.0144426 -0.000778543 1.04097e-05)
(-0.0130126 -0.00129603 1.1805e-05)
(-0.0129787 -0.00129273 1.07676e-07)
(-0.0129698 -0.00129142 -2.08342e-12)
(-0.0129787 -0.00129273 -1.0769e-07)
(-0.0130126 -0.00129603 -1.1805e-05)
(-0.0134799 -0.00204003 3.48076e-05)
(-0.0134699 -0.0020367 1.51069e-07)
(-0.0134633 -0.00203502 -1.21294e-11)
(-0.0134699 -0.0020367 -1.5111e-07)
(-0.0134799 -0.00204003 -3.48075e-05)
(-0.0105604 -0.0121572 8.82416e-05)
(-0.0105535 -0.0121707 1.35086e-07)
(-0.0105502 -0.0121706 -1.2623e-10)
(-0.0105535 -0.0121707 -1.35222e-07)
(-0.0105604 -0.0121572 -8.82414e-05)
(-0.00703302 -0.00895309 9.18139e-05)
(-0.00700113 -0.00896623 1.70714e-07)
(-0.00699612 -0.00896463 -5.81597e-11)
(-0.00700113 -0.00896623 -1.70889e-07)
(-0.00703302 -0.00895309 -9.18136e-05)
(-0.00743033 -0.00817617 8.72268e-05)
(-0.00742379 -0.00817212 1.19298e-07)
(-0.00741906 -0.00816825 -3.18921e-10)
(-0.00742379 -0.00817212 -1.1949e-07)
(-0.00743033 -0.00817617 -8.72263e-05)
(0.0858157 -0.057203 0.00291512)
(0.0852379 -0.0575665 3.0656e-06)
(0.0852061 -0.057597 -5.43269e-14)
(0.0852379 -0.0575665 -3.06561e-06)
(0.0858157 -0.057203 -0.00291512)
(0.134052 -0.00684461 0.00274117)
(0.133706 -0.00683605 2.58222e-06)
(0.133711 -0.00683494 1.70755e-11)
(0.133706 -0.00683605 -2.5822e-06)
(0.134052 -0.00684461 -0.00274117)
(0.151429 -0.0212147 0.00253892)
(0.151096 -0.0211939 2.69306e-06)
(0.151081 -0.0211924 1.66682e-11)
(0.151096 -0.0211939 -2.69304e-06)
(0.151429 -0.0212147 -0.00253892)
(0.128842 -0.0621429 0.00257998)
(0.128385 -0.0623602 2.66661e-06)
(0.128353 -0.0623772 8.95563e-12)
(0.128385 -0.0623602 -2.66661e-06)
(0.128842 -0.0621429 -0.00257998)
(-0.0112536 0.0139981 8.61765e-05)
(-0.0112411 0.0140125 1.68836e-07)
(-0.0112359 0.0140111 4.30991e-11)
(-0.0112411 0.0140125 -1.6879e-07)
(-0.0112536 0.0139981 -8.61766e-05)
(-0.00836547 0.00994571 8.5922e-05)
(-0.00835396 0.00994582 1.97933e-07)
(-0.00834738 0.009941 2.32197e-10)
(-0.00835396 0.00994582 -1.97767e-07)
(-0.00836547 0.00994571 -8.59224e-05)
(-0.00744631 0.00997067 8.74739e-05)
(-0.00741079 0.00997436 1.51373e-07)
(-0.00740463 0.00997047 6.10557e-11)
(-0.00741079 0.00997436 -1.51377e-07)
(-0.00744631 0.00997067 -8.7474e-05)
(0.237968 0.125729 -0.000365727)
(0.238022 0.125487 -3.98904e-06)
(0.237981 0.125474 1.25585e-11)
(0.238022 0.125487 3.98906e-06)
(0.237968 0.125729 0.000365727)
(0.256785 0.130878 -0.000305199)
(0.256693 0.1307 -1.28322e-06)
(0.256645 0.130683 4.36732e-12)
(0.256693 0.1307 1.28323e-06)
(0.256785 0.130878 0.000305199)
(0.298734 0.16284 -0.000228624)
(0.298932 0.162854 -2.94489e-06)
(0.298943 0.162868 3.25952e-11)
(0.298932 0.162854 2.94493e-06)
(0.298734 0.16284 0.000228624)
(0.171539 -0.0669768 -0.000434503)
(0.171403 -0.0666228 -1.16359e-06)
(0.171372 -0.0665869 1.71245e-11)
(0.171403 -0.0666228 1.16361e-06)
(0.171539 -0.0669768 0.000434503)
(0.260937 -0.112946 -0.000338907)
(0.260956 -0.112811 -6.2075e-07)
(0.260959 -0.112798 9.61601e-12)
(0.260956 -0.112811 6.20765e-07)
(0.260937 -0.112946 0.000338907)
(0.189193 -0.0736229 -0.00028564)
(0.189036 -0.0733432 1.02357e-06)
(0.189013 -0.0733044 2.33131e-12)
(0.189036 -0.0733432 -1.02357e-06)
(0.189193 -0.0736229 0.00028564)
(0.235643 -0.0485266 0.00165703)
(0.235537 -0.0486366 1.50329e-06)
(0.235523 -0.0486521 6.88535e-12)
(0.235537 -0.0486366 -1.50328e-06)
(0.235643 -0.0485266 -0.00165703)
(0.248864 -0.0353995 0.00151605)
(0.248786 -0.0354373 1.01865e-06)
(0.24878 -0.0354461 -9.66586e-11)
(0.248786 -0.0354373 -1.01877e-06)
(0.248864 -0.0353995 -0.00151605)
(0.256508 -0.0341547 0.0014404)
(0.256462 -0.0341785 1.03767e-06)
(0.256454 -0.0341876 -5.27576e-10)
(0.256462 -0.0341785 -1.03812e-06)
(0.256508 -0.0341547 -0.0014404)
(-0.0166378 -0.00896553 8.55434e-05)
(-0.0166286 -0.0089715 1.04414e-07)
(-0.0166254 -0.00897255 -1.71927e-10)
(-0.0166286 -0.0089715 -1.04586e-07)
(-0.0166378 -0.00896553 -8.55431e-05)
(-0.0129036 -0.0100648 8.89204e-05)
(-0.012894 -0.0100712 1.09202e-07)
(-0.0128908 -0.010072 -4.27852e-11)
(-0.012894 -0.0100712 -1.09312e-07)
(-0.0129036 -0.0100648 -8.89203e-05)
(-0.0214024 0.012866 7.76659e-05)
(-0.0213914 0.0128691 9.83519e-08)
(-0.0213876 0.0128694 5.2724e-10)
(-0.0213914 0.0128691 -9.80933e-08)
(-0.0214024 0.012866 -7.76667e-05)
(-0.0201443 0.00925152 8.03381e-05)
(-0.0201348 0.00924679 1.16201e-07)
(-0.0201311 0.00924632 1.40364e-10)
(-0.0201348 0.00924679 -1.16104e-07)
(-0.0201443 0.00925152 -8.03384e-05)
(-0.00748437 0.001494 9.10888e-05)
(-0.00747461 0.00148609 9.31301e-08)
(-0.00747209 0.0014848 4.46821e-10)
(-0.00747461 0.00148609 -9.28394e-08)
(-0.00748437 0.001494 -9.10895e-05)
(-0.0121252 0.000855689 9.02922e-05)
(-0.0121158 0.000859595 1.29243e-07)
(-0.0121125 0.000859467 -7.23089e-12)
(-0.0121158 0.000859595 -1.29169e-07)
(-0.0121252 0.000855689 -9.02923e-05)
(-0.00918636 -0.0104888 9.1189e-05)
(-0.00916447 -0.0104911 1.17431e-07)
(-0.0091601 -0.0104911 -3.75361e-11)
(-0.00916447 -0.0104911 -1.17438e-07)
(-0.00918636 -0.0104888 -9.1189e-05)
(-0.00425734 -0.00376999 0.000100383)
(-0.00424357 -0.00376706 1.49528e-07)
(-0.00424112 -0.00376653 6.62669e-11)
(-0.00424357 -0.00376706 -1.49423e-07)
(-0.00425734 -0.00376999 -0.000100383)
(-0.0157675 -6.15457e-05 8.63009e-05)
(-0.0157577 -6.567e-05 8.10467e-08)
(-0.0157545 -6.64051e-05 -5.72651e-10)
(-0.0157577 -6.56698e-05 -8.11837e-08)
(-0.0157675 -6.15456e-05 -8.63001e-05)
(-0.00437547 0.00588191 0.00010033)
(-0.00436149 0.0058727 1.60747e-07)
(-0.00435887 0.00587032 7.26297e-11)
(-0.00436149 0.0058727 -1.60581e-07)
(-0.00437547 0.00588191 -0.00010033)
(-0.00968436 0.00723979 9.57417e-05)
(-0.00966892 0.00723904 1.94959e-07)
(-0.00966541 0.00723832 8.27694e-11)
(-0.00966892 0.00723904 -1.9481e-07)
(-0.00968436 0.00723979 -9.57419e-05)
(-0.014115 0.00617568 8.85776e-05)
(-0.0141056 0.00618015 1.05706e-07)
(-0.0141025 0.00618052 7.98989e-11)
(-0.0141056 0.00618015 -1.0558e-07)
(-0.014115 0.00617568 -8.85779e-05)
(-0.016342 0.00464389 8.95429e-05)
(-0.016325 0.00464484 1.87441e-07)
(-0.016321 0.00464491 1.19104e-10)
(-0.016325 0.00464484 -1.87489e-07)
(-0.016342 0.00464389 -8.9543e-05)
(-0.0195644 0.00648121 7.89223e-05)
(-0.0195491 0.00648382 6.61206e-08)
(-0.019545 0.00648402 1.86328e-10)
(-0.0195491 0.00648382 -6.61023e-08)
(-0.0195644 0.00648121 -7.89225e-05)
(-0.0194534 0.00282964 8.00667e-05)
(-0.0194394 0.00283083 8.58794e-08)
(-0.0194358 0.00283067 9.29024e-10)
(-0.0194394 0.00283083 -8.55529e-08)
(-0.0194534 0.00282964 -8.0068e-05)
(-0.0191276 9.70733e-05 8.20399e-05)
(-0.0191224 9.96469e-05 1.08502e-07)
(-0.0191199 9.95714e-05 8.12763e-11)
(-0.0191224 9.96467e-05 -1.08361e-07)
(-0.0191276 9.70731e-05 -8.20401e-05)
(-0.00956163 0.0124488 8.84377e-05)
(-0.00954234 0.0124475 1.45968e-07)
(-0.00953806 0.0124459 4.2279e-11)
(-0.00954234 0.0124475 -1.45973e-07)
(-0.00956163 0.0124488 -8.84377e-05)
(-0.0191079 -0.00407997 8.22986e-05)
(-0.0190967 -0.00408393 1.09422e-07)
(-0.0190935 -0.00408467 -1.55461e-10)
(-0.0190967 -0.00408393 -1.09544e-07)
(-0.0191079 -0.00407997 -8.22983e-05)
(-0.0152042 -0.00455711 8.85209e-05)
(-0.0151898 -0.00455741 1.39921e-07)
(-0.0151863 -0.00455762 -1.14512e-10)
(-0.0151898 -0.00455741 -1.39977e-07)
(-0.0152042 -0.00455711 -8.85207e-05)
(-0.0107501 -0.00476282 9.42332e-05)
(-0.0107403 -0.00476632 1.49354e-07)
(-0.0107374 -0.00476663 -1.27191e-11)
(-0.0107403 -0.00476632 -1.49364e-07)
(-0.0107501 -0.00476282 -9.42331e-05)
(-0.0128506 0.0122929 8.72274e-05)
(-0.0128374 0.0122994 1.12765e-07)
(-0.0128334 0.0122995 6.23306e-11)
(-0.0128374 0.0122994 -1.12627e-07)
(-0.0128506 0.0122929 -8.72276e-05)
(-0.0166034 0.0107254 8.49036e-05)
(-0.0165971 0.0107221 1.19173e-07)
(-0.016594 0.0107212 8.51845e-11)
(-0.0165971 0.0107221 -1.19083e-07)
(-0.0166034 0.0107254 -8.49038e-05)
(-0.0200018 -0.00774634 8.06581e-05)
(-0.0199939 -0.00775043 9.21181e-08)
(-0.019991 -0.00775138 -8.74002e-10)
(-0.0199939 -0.00775043 -9.25942e-08)
(-0.0200018 -0.00774634 -8.06568e-05)
(-0.0232199 -0.00681188 7.48035e-05)
(-0.0232133 -0.00681669 8.91792e-08)
(-0.0232106 -0.00681777 -6.5569e-10)
(-0.0232133 -0.00681669 -8.94683e-08)
(-0.0232199 -0.00681188 -7.48026e-05)
(-0.0226619 -0.00364212 7.59021e-05)
(-0.022653 -0.00364536 1.07245e-07)
(-0.02265 -0.00364613 -9.39694e-11)
(-0.022653 -0.00364536 -1.07331e-07)
(-0.0226619 -0.00364212 -7.59019e-05)
(-0.0226459 -0.000564765 7.56286e-05)
(-0.0226365 -0.000567381 9.87098e-08)
(-0.0226335 -0.000568095 1.02312e-10)
(-0.0226365 -0.000567381 -9.86487e-08)
(-0.0226459 -0.000564765 -7.56288e-05)
(-0.0229244 0.00248522 7.49679e-05)
(-0.022918 0.00248134 1.18979e-07)
(-0.0229152 0.00248058 8.49458e-11)
(-0.022918 0.00248134 -1.18867e-07)
(-0.0229244 0.00248522 -7.49681e-05)
(-0.0234816 0.00577321 7.46589e-05)
(-0.023477 0.00577208 1.22989e-07)
(-0.0234741 0.00577217 1.59714e-10)
(-0.023477 0.00577208 -1.22737e-07)
(-0.0234816 0.00577321 -7.46593e-05)
(-0.0240269 0.00876265 7.39506e-05)
(-0.0240184 0.00876645 1.17412e-07)
(-0.0240151 0.00876721 9.17054e-11)
(-0.0240184 0.00876645 -1.17266e-07)
(-0.0240269 0.00876265 -7.39508e-05)
(-0.0132798 0.0157896 8.70162e-05)
(-0.0132674 0.0157986 1.8014e-07)
(-0.0132628 0.0157988 5.50689e-12)
(-0.0132674 0.0157986 -1.80065e-07)
(-0.0132798 0.0157896 -8.70163e-05)
(-0.0153914 0.0155728 8.53572e-05)
(-0.0153751 0.0155766 1.52452e-07)
(-0.0153703 0.0155768 1.65011e-11)
(-0.0153751 0.0155766 -1.52326e-07)
(-0.0153914 0.0155728 -8.53574e-05)
(-0.0182441 0.0143984 8.2263e-05)
(-0.0182285 0.0144008 1.36207e-07)
(-0.018224 0.0144009 2.15134e-10)
(-0.0182285 0.0144008 -1.35978e-07)
(-0.0182441 0.0143984 -8.22634e-05)
(-0.024816 0.0115782 7.21478e-05)
(-0.0248091 0.0115849 1.04247e-07)
(-0.024806 0.011586 1.71746e-10)
(-0.0248091 0.0115849 -1.04096e-07)
(-0.024816 0.0115782 -7.21481e-05)
(-0.0151696 -0.0134056 8.72373e-05)
(-0.0151589 -0.0134099 1.29036e-07)
(-0.0151557 -0.0134109 -6.79845e-12)
(-0.0151589 -0.0134099 -1.29112e-07)
(-0.0151696 -0.0134056 -8.72372e-05)
(-0.0179042 -0.0122118 8.39643e-05)
(-0.0178938 -0.0122145 1.14744e-07)
(-0.0178906 -0.0122152 -1.20649e-10)
(-0.0178938 -0.0122145 -1.14878e-07)
(-0.0179042 -0.0122118 -8.39641e-05)
(-0.0208232 -0.0108556 7.94072e-05)
(-0.0208139 -0.0108573 1.01298e-07)
(-0.0208109 -0.0108579 -1.79086e-10)
(-0.0208139 -0.0108573 -1.01387e-07)
(-0.0208232 -0.0108556 -7.94069e-05)
(-0.0238018 -0.00969106 7.37775e-05)
(-0.0237936 -0.00969422 9.08327e-08)
(-0.0237907 -0.00969505 6.25615e-10)
(-0.0237936 -0.00969422 -9.06478e-08)
(-0.0238018 -0.00969106 -7.37784e-05)
(-0.0267501 -0.00875368 6.72012e-05)
(-0.0267421 -0.00875718 8.0315e-08)
(-0.0267393 -0.00875798 -4.20745e-10)
(-0.0267421 -0.00875719 -8.04523e-08)
(-0.0267501 -0.00875368 -6.72007e-05)
(-0.0261941 -0.00610057 6.81248e-05)
(-0.0261866 -0.00610402 8.12893e-08)
(-0.0261838 -0.00610484 6.61825e-10)
(-0.0261866 -0.00610402 -8.10518e-08)
(-0.0261941 -0.00610057 -6.81257e-05)
(-0.0256669 -0.00339851 6.88732e-05)
(-0.0256575 -0.0033997 8.99519e-08)
(-0.0256544 -0.00340017 -4.53996e-11)
(-0.0256575 -0.0033997 -8.98673e-08)
(-0.0256669 -0.00339851 -6.88733e-05)
(-0.0255479 -0.000656913 6.87075e-05)
(-0.0255384 -0.00065661 8.17204e-08)
(-0.0255354 -0.000656801 6.8038e-10)
(-0.0255384 -0.00065661 -8.14778e-08)
(-0.0255479 -0.000656913 -6.87084e-05)
(-0.0257868 0.00210256 6.81656e-05)
(-0.0257743 0.00210252 8.62806e-08)
(-0.0257708 0.00210248 -6.51374e-10)
(-0.0257743 0.00210252 -8.64579e-08)
(-0.0257868 0.00210256 -6.81647e-05)
(-0.0263605 0.00491777 6.75736e-05)
(-0.0263482 0.0049169 7.89236e-08)
(-0.0263446 0.00491701 6.97157e-10)
(-0.0263482 0.0049169 -7.86187e-08)
(-0.0263605 0.00491777 -6.75746e-05)
(-0.0271322 0.00764242 6.66074e-05)
(-0.0271215 0.00764229 9.0291e-08)
(-0.0271181 0.00764254 1.75468e-10)
(-0.0271215 0.00764229 -9.0127e-08)
(-0.0271322 0.00764242 -6.66078e-05)
(-0.0280226 0.0102952 6.50023e-05)
(-0.0280139 0.0102986 8.57622e-08)
(-0.0280107 0.0102993 4.07436e-10)
(-0.0280139 0.0102986 -8.55352e-08)
(-0.0280226 0.0102952 -6.5003e-05)
(-0.0128627 -0.0137734 8.88868e-05)
(-0.0128542 -0.0137808 1.43437e-07)
(-0.012851 -0.0137818 -2.10643e-10)
(-0.0128542 -0.0137808 -1.43558e-07)
(-0.0128627 -0.0137734 -8.88865e-05)
(-0.028747 0.0129812 6.2947e-05)
(-0.0287394 0.0129872 8.33949e-08)
(-0.0287362 0.0129885 -2.58281e-10)
(-0.0287394 0.0129872 -8.3423e-08)
(-0.028747 0.0129812 -6.29467e-05)
(-0.0254875 0.0144341 6.98093e-05)
(-0.0254796 0.0144442 9.86058e-08)
(-0.0254763 0.0144463 3.75516e-10)
(-0.0254796 0.0144442 -9.84623e-08)
(-0.0254875 0.0144341 -6.98099e-05)
(-0.0223269 0.0159628 7.53768e-05)
(-0.0223182 0.0159719 1.11572e-07)
(-0.0223147 0.0159737 -1.066e-09)
(-0.0223182 0.0159719 -1.11961e-07)
(-0.0223269 0.0159628 -7.53753e-05)
(-0.0196334 0.0172898 7.95461e-05)
(-0.0196256 0.0173029 1.21281e-07)
(-0.0196221 0.0173052 1.00928e-09)
(-0.0196256 0.0173029 -1.20856e-07)
(-0.0196334 0.0172898 -7.95475e-05)
(-0.0175979 0.0182965 8.18901e-05)
(-0.0175919 0.0183118 1.2054e-07)
(-0.0175884 0.0183141 -3.10622e-10)
(-0.0175919 0.0183118 -1.20518e-07)
(-0.0175979 0.0182965 -8.18898e-05)
(-0.0161206 0.0182178 8.28054e-05)
(-0.0161202 0.0182337 1.23647e-07)
(-0.0161175 0.0182355 -1.03423e-10)
(-0.0161202 0.0182337 -1.2363e-07)
(-0.0161206 0.0182178 -8.28053e-05)
(-0.0151305 -0.0158305 8.67152e-05)
(-0.0151289 -0.0158445 1.09693e-07)
(-0.0151271 -0.0158467 -1.22789e-09)
(-0.0151289 -0.0158445 -1.1014e-07)
(-0.0151305 -0.0158305 -8.67135e-05)
(-0.0166846 -0.0158633 8.5416e-05)
(-0.0166803 -0.0158773 1.1354e-07)
(-0.0166781 -0.01588 5.48407e-10)
(-0.0166803 -0.0158773 -1.13401e-07)
(-0.0166846 -0.0158633 -8.54166e-05)
(-0.0187693 -0.0148746 8.24482e-05)
(-0.0187628 -0.0148872 1.1267e-07)
(-0.0187602 -0.0148899 -4.19637e-10)
(-0.0187628 -0.0148872 -1.128e-07)
(-0.0187693 -0.0148746 -8.24477e-05)
(-0.0213276 -0.0136223 7.80767e-05)
(-0.0213194 -0.0136329 1.04698e-07)
(-0.0213165 -0.0136355 7.65161e-10)
(-0.0213194 -0.0136329 -1.04395e-07)
(-0.0213276 -0.0136223 -7.80778e-05)
(-0.0241563 -0.0124378 7.25482e-05)
(-0.0241479 -0.0124469 9.12723e-08)
(-0.024145 -0.0124492 -1.87966e-10)
(-0.0241479 -0.0124469 -9.12869e-08)
(-0.0241563 -0.0124378 -7.2548e-05)
(-0.027139 -0.011386 6.60003e-05)
(-0.0271312 -0.0113934 7.88203e-08)
(-0.0271284 -0.0113953 -6.71385e-11)
(-0.0271312 -0.0113934 -7.88784e-08)
(-0.027139 -0.011386 -6.60001e-05)
(-0.0300867 -0.0105256 5.87389e-05)
(-0.0300798 -0.010531 6.57771e-08)
(-0.0300772 -0.0105325 -3.283e-11)
(-0.0300798 -0.010531 -6.58248e-08)
(-0.0300867 -0.0105256 -5.87388e-05)
(-0.0295463 -0.00796477 5.99904e-05)
(-0.0295391 -0.00796851 6.91628e-08)
(-0.0295365 -0.00796935 -5.82039e-11)
(-0.0295391 -0.00796851 -6.92357e-08)
(-0.0295463 -0.00796477 -5.99903e-05)
(-0.0288754 -0.00552311 6.09691e-05)
(-0.0288684 -0.00552661 7.22675e-08)
(-0.0288658 -0.00552742 -1.75979e-10)
(-0.0288684 -0.00552661 -7.23012e-08)
(-0.0288754 -0.00552311 -6.09689e-05)
(-0.0283209 -0.00312818 6.16112e-05)
(-0.028313 -0.00312961 8.05082e-08)
(-0.0283102 -0.00313014 5.95364e-10)
(-0.028313 -0.00312961 -8.02966e-08)
(-0.0283209 -0.00312818 -6.1612e-05)
(-0.028151 -0.000740988 6.15519e-05)
(-0.0281437 -0.000740514 7.69113e-08)
(-0.0281411 -0.000740754 -4.1128e-10)
(-0.0281437 -0.000740514 -7.7082e-08)
(-0.028151 -0.000740987 -6.15513e-05)
(-0.0283961 0.00168134 6.09932e-05)
(-0.0283883 0.00168072 7.68154e-08)
(-0.0283855 0.0016806 -8.47316e-11)
(-0.0283883 0.00168072 -7.69691e-08)
(-0.0283961 0.00168134 -6.09929e-05)
(-0.0290107 0.00418689 6.04756e-05)
(-0.0290043 0.00418516 7.81005e-08)
(-0.0290017 0.00418523 -7.62611e-10)
(-0.0290043 0.00418516 -7.83812e-08)
(-0.0290107 0.00418689 -6.04745e-05)
(-0.029939 0.00663369 5.93775e-05)
(-0.0299313 0.00663401 8.43496e-08)
(-0.0299285 0.00663441 1.07052e-10)
(-0.0299313 0.006634 -8.43279e-08)
(-0.029939 0.00663369 -5.93777e-05)
(-0.0309833 0.00909625 5.77333e-05)
(-0.0309757 0.00909985 7.92594e-08)
(-0.0309729 0.00910067 5.60241e-10)
(-0.0309757 0.00909985 -7.90017e-08)
(-0.0309833 0.00909625 -5.77341e-05)
(-0.0136497 -0.0139004 8.59336e-05)
(-0.013654 -0.0139068 1.0246e-07)
(-0.0136525 -0.013907 -1.45595e-10)
(-0.013654 -0.0139068 -1.02593e-07)
(-0.0136497 -0.0139004 -8.59333e-05)
(-0.0319055 0.011627 5.54961e-05)
(-0.0318982 0.0116317 7.32674e-08)
(-0.0318954 0.0116328 -4.04639e-11)
(-0.0318982 0.0116317 -7.32378e-08)
(-0.0319055 0.011627 -5.54961e-05)
(0.173059 -0.0327487 0.00233676)
(0.172815 -0.0327461 1.92453e-06)
(0.172799 -0.0327486 1.72944e-11)
(0.172815 -0.0327461 -1.92451e-06)
(0.173059 -0.0327487 -0.00233676)
(0.170417 -0.00716497 0.00238494)
(0.170145 -0.00717353 2.38817e-06)
(0.170125 -0.0071756 2.20617e-11)
(0.170145 -0.00717353 -2.38814e-06)
(0.170417 -0.00716497 -0.00238494)
(0.172693 -0.0574555 0.00232454)
(0.172336 -0.0575946 3.00743e-06)
(0.172311 -0.0576104 -3.33893e-14)
(0.172336 -0.0575946 -3.00744e-06)
(0.172693 -0.0574555 -0.00232454)
(0.155037 0.00851464 0.00248493)
(0.154748 0.00836656 2.16293e-06)
(0.154728 0.00835128 1.85222e-11)
(0.154748 0.00836656 -2.1629e-06)
(0.155037 0.00851464 -0.00248493)
(0.189821 0.0155312 0.00224928)
(0.189649 0.0155024 1.93468e-06)
(0.189636 0.0155033 1.19163e-11)
(0.189649 0.0155024 -1.93466e-06)
(0.189821 0.0155312 -0.00224928)
(0.191481 -0.0041441 0.00221708)
(0.191309 -0.00416312 1.74538e-06)
(0.191292 -0.00416415 1.8325e-11)
(0.191309 -0.00416312 -1.74535e-06)
(0.191481 -0.0041441 -0.00221708)
(0.190434 -0.0258828 0.00221168)
(0.190288 -0.0259373 1.90676e-06)
(0.190276 -0.0259453 2.51648e-11)
(0.190288 -0.0259373 -1.90672e-06)
(0.190434 -0.0258828 -0.00221168)
(0.195985 -0.0381842 0.00211967)
(0.195763 -0.0383126 1.75909e-06)
(0.195749 -0.0383274 1.09362e-11)
(0.195763 -0.0383126 -1.75908e-06)
(0.195985 -0.0381842 -0.00211967)
(0.207477 -0.0248648 0.00204535)
(0.207399 -0.0248723 1.47192e-06)
(0.207385 -0.0248767 1.48057e-11)
(0.207399 -0.0248723 -1.4719e-06)
(0.207477 -0.0248648 -0.00204535)
(0.14509 0.0488435 0.00256385)
(0.144675 0.0489728 3.42766e-06)
(0.144642 0.0489816 1.32325e-11)
(0.144675 0.0489728 -3.42764e-06)
(0.14509 0.0488435 -0.00256385)
(0.185488 0.0412467 0.00225332)
(0.185211 0.0413946 2.30493e-06)
(0.185188 0.0414118 7.57191e-12)
(0.185211 0.0413946 -2.30492e-06)
(0.185488 0.0412467 -0.00225332)
(0.210347 0.0296204 0.00200244)
(0.210188 0.0296489 2.01582e-06)
(0.210171 0.0296534 -5.90079e-12)
(0.210188 0.0296489 -2.01583e-06)
(0.210347 0.0296204 -0.00200244)
(0.0850245 0.0721978 0.00285245)
(0.0843311 0.0725267 2.8287e-06)
(0.0843048 0.0725494 1.17881e-11)
(0.0843311 0.0725267 -2.82868e-06)
(0.0850245 0.0721978 -0.00285245)
(0.197836 -0.0812259 0.00198891)
(0.197647 -0.0815137 9.79215e-07)
(0.197633 -0.0815492 -1.93228e-11)
(0.197647 -0.0815137 -9.79263e-07)
(0.197836 -0.0812259 -0.00198891)
(0.174946 -0.115279 0.00206046)
(0.174951 -0.115544 4.25059e-07)
(0.174959 -0.115571 -5.02289e-11)
(0.174951 -0.115544 -4.25184e-07)
(0.174946 -0.115279 -0.00206046)
(0.145852 -0.14215 0.00200916)
(0.145961 -0.1425 -1.54314e-06)
(0.145968 -0.142546 -2.85111e-11)
(0.145961 -0.1425 1.54307e-06)
(0.145852 -0.14215 -0.00200916)
(0.21205 -0.0572521 0.00193702)
(0.212039 -0.0574116 6.2872e-07)
(0.212043 -0.0574283 1.36816e-12)
(0.212039 -0.0574116 -6.28721e-07)
(0.21205 -0.0572521 -0.00193702)
(0.228818 -0.0660078 0.0016749)
(0.228835 -0.0660583 3.67553e-07)
(0.228839 -0.0660697 3.617e-12)
(0.228835 -0.0660583 -3.67552e-07)
(0.228818 -0.0660078 -0.0016749)
(0.220006 -0.0870146 0.00171676)
(0.219858 -0.0871421 1.24237e-06)
(0.219846 -0.0871706 -7.94464e-11)
(0.219858 -0.0871421 -1.24249e-06)
(0.220006 -0.0870146 -0.00171676)
(0.203069 -0.118133 0.00172419)
(0.202988 -0.118184 1.05231e-06)
(0.202988 -0.118199 -2.95609e-10)
(0.202988 -0.118184 -1.05277e-06)
(0.203069 -0.118133 -0.00172419)
(0.221267 -0.0395968 0.00187667)
(0.221195 -0.0396704 1.54509e-06)
(0.22118 -0.0396839 1.09944e-12)
(0.221195 -0.0396704 -1.54509e-06)
(0.221267 -0.0395968 -0.00187667)
(0.234177 -0.0263367 0.00175039)
(0.234022 -0.0264087 1.71099e-06)
(0.234009 -0.0264203 -5.12032e-11)
(0.234022 -0.0264087 -1.71107e-06)
(0.234177 -0.0263367 -0.00175039)
(0.231352 0.0244581 0.00178613)
(0.231223 0.0244953 1.5819e-06)
(0.231206 0.0245041 -3.0665e-11)
(0.231223 0.0244953 -1.58194e-06)
(0.231352 0.0244581 -0.00178613)
(-0.0146082 0.0158662 8.11014e-05)
(-0.0146141 0.0158733 9.32988e-08)
(-0.0146117 0.0158728 -8.40275e-11)
(-0.0146141 0.0158733 -9.33696e-08)
(-0.0146082 0.0158662 -8.11013e-05)
(0.191474 0.0828506 0.00210242)
(0.19144 0.0830373 1.15114e-06)
(0.191448 0.0830533 8.5778e-12)
(0.19144 0.0830373 -1.15112e-06)
(0.191474 0.0828506 -0.00210242)
(0.199673 0.0676411 0.00197946)
(0.19956 0.0677835 7.14043e-07)
(0.199543 0.0678072 -3.57167e-13)
(0.19956 0.0677835 -7.14041e-07)
(0.199673 0.0676411 -0.00197946)
(0.222971 0.0498187 0.00184293)
(0.222931 0.0498939 1.36187e-06)
(0.222929 0.0499058 -8.64759e-12)
(0.222931 0.0498939 -1.36188e-06)
(0.222971 0.0498187 -0.00184293)
(0.235729 0.0409746 0.001678)
(0.235628 0.0410514 1.14147e-06)
(0.235613 0.0410656 -9.62501e-12)
(0.235628 0.0410514 -1.14149e-06)
(0.235729 0.0409746 -0.001678)
(0.154612 0.12183 0.00206571)
(0.154312 0.122305 1.17373e-07)
(0.154278 0.122354 1.17041e-11)
(0.154312 0.122305 -1.17355e-07)
(0.154612 0.12183 -0.00206571)
(-0.0108185 -0.00956926 8.32056e-05)
(-0.010828 -0.00955576 7.6432e-08)
(-0.0108262 -0.00955167 -4.59532e-11)
(-0.010828 -0.00955576 -7.65694e-08)
(-0.0108185 -0.00956926 -8.32055e-05)
(0.244557 0.00635709 0.00164601)
(0.244464 0.00633914 1.48804e-06)
(0.244452 0.00633815 -6.72925e-11)
(0.244464 0.00633914 -1.48816e-06)
(0.244557 0.00635709 -0.00164601)
(0.24655 0.0200893 0.00160391)
(0.24645 0.0201093 1.5172e-06)
(0.246437 0.0201133 -1.379e-10)
(0.24645 0.0201093 -1.51738e-06)
(0.24655 0.0200893 -0.00160391)
(0.251295 0.0324123 0.00152172)
(0.25122 0.0324702 1.38906e-06)
(0.251212 0.0324795 3.44479e-11)
(0.25122 0.0324702 -1.38905e-06)
(0.251295 0.0324123 -0.00152172)
(-0.0114288 0.010992 7.7726e-05)
(-0.011444 0.0109757 7.86101e-08)
(-0.0114413 0.0109711 6.46044e-11)
(-0.011444 0.0109757 -7.85989e-08)
(-0.0114288 0.010992 -7.7726e-05)
(-0.0154376 -0.0146309 8.67641e-05)
(-0.0154348 -0.0146196 1.04428e-07)
(-0.0154325 -0.0146168 5.10914e-11)
(-0.0154348 -0.0146196 -1.04436e-07)
(-0.0154376 -0.0146309 -8.67642e-05)
(-0.015951 -0.0166888 8.6684e-05)
(-0.0159434 -0.0166819 8.03313e-08)
(-0.0159406 -0.0166803 -1.32385e-10)
(-0.0159434 -0.0166819 -8.04403e-08)
(-0.015951 -0.0166888 -8.66837e-05)
(-0.0169623 -0.0172286 8.47086e-05)
(-0.0169559 -0.0172228 6.65555e-08)
(-0.0169532 -0.0172216 5.20947e-11)
(-0.0169559 -0.0172228 -6.65082e-08)
(-0.0169623 -0.0172286 -8.47087e-05)
(-0.0187266 -0.0168228 8.12639e-05)
(-0.0187207 -0.0168169 5.49278e-08)
(-0.0187181 -0.0168159 -4.20244e-11)
(-0.0187207 -0.0168169 -5.49454e-08)
(-0.0187266 -0.0168228 -8.12638e-05)
(-0.021142 -0.0160121 7.66345e-05)
(-0.0211366 -0.0160067 4.83161e-08)
(-0.0211343 -0.016006 1.00545e-10)
(-0.0211366 -0.0160067 -4.82364e-08)
(-0.021142 -0.0160121 -7.66346e-05)
(-0.023995 -0.0150995 7.09891e-05)
(-0.0239899 -0.0150946 4.65204e-08)
(-0.0239877 -0.0150942 -2.80752e-12)
(-0.0239899 -0.0150946 -4.65119e-08)
(-0.023995 -0.0150995 -7.09891e-05)
(-0.0270594 -0.0141991 6.44569e-05)
(-0.0270547 -0.0141957 4.50035e-08)
(-0.0270527 -0.0141956 5.2798e-11)
(-0.0270547 -0.0141957 -4.49643e-08)
(-0.0270594 -0.0141991 -6.4457e-05)
(-0.0301909 -0.0133004 5.72462e-05)
(-0.0301868 -0.0132988 4.58782e-08)
(-0.0301848 -0.013299 -4.27284e-11)
(-0.0301868 -0.0132988 -4.59211e-08)
(-0.0301909 -0.0133004 -5.72462e-05)
(-0.0332229 -0.0123262 4.95981e-05)
(-0.0332192 -0.0123262 4.43723e-08)
(-0.0332173 -0.0123267 -2.31686e-11)
(-0.0332192 -0.0123262 -4.44146e-08)
(-0.0332229 -0.0123262 -4.95981e-05)
(-0.0328497 -0.00966958 5.12929e-05)
(-0.0328442 -0.00967354 5.45675e-08)
(-0.0328418 -0.00967469 -1.83191e-11)
(-0.0328442 -0.00967354 -5.46031e-08)
(-0.0328497 -0.00966958 -5.12929e-05)
(-0.0320981 -0.00726786 5.26193e-05)
(-0.0320919 -0.00727139 6.02464e-08)
(-0.0320895 -0.00727221 -2.31936e-11)
(-0.0320919 -0.00727139 -6.02901e-08)
(-0.0320981 -0.00726786 -5.26193e-05)
(-0.0312689 -0.00502161 5.36151e-05)
(-0.0312624 -0.00502447 6.40033e-08)
(-0.0312599 -0.00502514 -3.00979e-11)
(-0.0312624 -0.00502447 -6.40519e-08)
(-0.0312689 -0.00502161 -5.36151e-05)
(-0.0306471 -0.00288526 5.41511e-05)
(-0.0306396 -0.00288621 6.94264e-08)
(-0.0306369 -0.00288663 -1.84493e-10)
(-0.0306396 -0.00288621 -6.95039e-08)
(-0.0306471 -0.00288526 -5.41508e-05)
(-0.0304228 -0.000790492 5.41423e-05)
(-0.0304156 -0.000790184 6.63703e-08)
(-0.0304129 -0.000790373 -4.83535e-11)
(-0.0304156 -0.000790184 -6.6446e-08)
(-0.0304228 -0.000790492 -5.41422e-05)
(-0.0306711 0.00136361 5.3702e-05)
(-0.0306642 0.00136262 6.60781e-08)
(-0.0306614 0.00136254 3.00985e-11)
(-0.0306642 0.00136262 -6.60822e-08)
(-0.0306711 0.00136361 -5.3702e-05)
(-0.0313574 0.00356479 5.31956e-05)
(-0.0313503 0.00356364 7.05728e-08)
(-0.0313475 0.00356377 6.69293e-10)
(-0.0313503 0.00356364 -7.03603e-08)
(-0.0313574 0.00356479 -5.31965e-05)
(-0.032408 0.00570596 5.2034e-05)
(-0.0323997 0.00570704 7.16419e-08)
(-0.0323969 0.00570748 -5.16286e-10)
(-0.0323997 0.00570704 -7.18403e-08)
(-0.032408 0.00570596 -5.20333e-05)
(-0.0336252 0.00795418 5.03395e-05)
(-0.0336171 0.00795744 6.75459e-08)
(-0.0336143 0.00795819 -3.15016e-11)
(-0.0336171 0.00795744 -6.75684e-08)
(-0.0336252 0.00795418 -5.03394e-05)
(-0.0347434 0.010308 4.80666e-05)
(-0.0347357 0.0103122 6.30553e-08)
(-0.0347329 0.0103132 -1.04529e-11)
(-0.0347357 0.0103122 -6.30605e-08)
(-0.0347434 0.010308 -4.80666e-05)
(-0.0354538 0.0128368 4.52243e-05)
(-0.0354463 0.0128413 5.78688e-08)
(-0.0354436 0.0128423 -3.6589e-12)
(-0.0354463 0.0128413 -5.78467e-08)
(-0.0354538 0.0128368 -4.52243e-05)
(-0.0323581 0.0142861 5.29702e-05)
(-0.032352 0.0142891 6.61083e-08)
(-0.0323495 0.0142898 2.28909e-11)
(-0.032352 0.0142891 -6.60074e-08)
(-0.0323581 0.0142861 -5.29704e-05)
(-0.0290727 0.015677 6.04128e-05)
(-0.0290685 0.0156772 6.36372e-08)
(-0.029066 0.0156775 1.40256e-10)
(-0.0290685 0.0156772 -6.34472e-08)
(-0.0290727 0.015677 -6.04131e-05)
(-0.0257066 0.017147 6.7075e-05)
(-0.0257032 0.0171448 6.04813e-08)
(-0.0257007 0.0171447 2.40886e-11)
(-0.0257032 0.0171448 -6.0446e-08)
(-0.0257066 0.017147 -6.70751e-05)
(-0.0225837 0.0184759 7.28397e-05)
(-0.0225783 0.0184712 6.51194e-08)
(-0.0225754 0.0184704 -2.1353e-10)
(-0.0225783 0.0184712 -6.5337e-08)
(-0.0225837 0.0184759 -7.28393e-05)
(-0.0200207 0.0194396 7.73206e-05)
(-0.0200137 0.0194331 7.28485e-08)
(-0.0200104 0.0194317 5.99922e-11)
(-0.0200137 0.0194331 -7.28377e-08)
(-0.0200207 0.0194396 -7.73207e-05)
(-0.0182247 0.0197927 8.044e-05)
(-0.0182162 0.0197833 8.37709e-08)
(-0.0182125 0.0197813 -8.81828e-11)
(-0.0182162 0.0197833 -8.38451e-08)
(-0.0182247 0.0197927 -8.04399e-05)
(-0.0170718 0.0191149 8.22904e-05)
(-0.0170643 0.0191031 1.01329e-07)
(-0.0170606 0.0191004 -1.41133e-10)
(-0.0170643 0.0191031 -1.0149e-07)