/*--------------------------------*- C++ -*----------------------------------*\
| =========                 |                                                 |
| \\      /  F ield         | OpenFOAM: The Open Source CFD Toolbox           |
|  \\    /   O peration     | Version:  v1806                                 |
|   \\  /    A nd           | Web:      www.OpenFOAM.com                      |
|    \\/     M anipulation  |                                                 |
\*---------------------------------------------------------------------------*/
FoamFile
{
    version     2.0;
    format      ascii;
    class       surfaceScalarField;
    location    "220";
    object      phi;
}
// * * * * * * * * * * * * * * * * * * * * * * * * * * * * * * * * * * * * * //

dimensions      [0 3 -1 0 0 0 0];
oriented        oriented;


internalField   nonuniform List<scalar> 
13505
(
-1.52109e-07
0.0203556
-0.0282265
-0.0344744
0.0423455
-1.17567e-12
0.0203518
-0.0282289
-0.0344582
0.0423351
1.5211e-07
0.0203518
-0.0282289
-0.0344582
0.0423351
0.0203556
-0.0282265
-0.0344744
0.0423455
-6.75904e-09
-0.0462012
0.01054
0.0356613
-1.80006e-12
-0.0461953
0.0105253
0.03567
6.7584e-09
-0.0461953
0.0105253
0.03567
-0.0462012
0.01054
0.0356613
-2.15057e-07
-0.0258455
-1.91629e-12
-0.0258437
2.15055e-07
-0.0258437
-0.0258455
-1.202e-08
0.0039058
-0.00430558
-0.00259781
0.0029976
-5.0641e-12
0.00390252
-0.0043039
-0.00259881
0.00300017
1.20204e-08
0.00390252
-0.0043039
-0.00259881
0.00300017
0.0039058
-0.00430558
-0.00259781
0.0029976
4.86935e-08
0.00649084
-0.0182774
0.0183025
-0.00651598
-1.77173e-12
0.00649006
-0.0182723
0.0182968
-0.00651447
-4.86888e-08
0.00649006
-0.0182723
0.0182968
-0.00651447
0.00649084
-0.0182774
0.0183025
-0.00651598
2.26194e-08
0.00146064
0.00893598
2.28647e-12
0.00146004
0.00893256
-2.26451e-08
0.00146004
0.00893256
0.00146064
0.00893598
4.62817e-08
0.0164011
-0.0372176
-0.0274482
0.0482647
-6.06075e-14
0.0164022
-0.0372171
-0.0274438
0.0482588
-4.62833e-08
0.0164022
-0.0372171
-0.0274438
0.0482588
0.0164011
-0.0372176
-0.0274482
0.0482647
5.97384e-08
-0.0455895
0.0542191
0.00777138
7.03894e-13
-0.045589
0.0542103
0.00778088
-5.97435e-08
-0.045589
0.0542103
0.00778088
-0.0455895
0.0542191
0.00777138
3.26308e-08
-0.000698449
-0.0446632
-0.000227828
-1.43413e-13
-0.000692145
-0.0446577
-0.000239119
-3.26303e-08
-0.000692145
-0.0446577
-0.000239119
-0.000698449
-0.0446632
-0.000227828
3.88189e-09
0.01202
-0.0499361
-2.16021e-12
0.0120268
-0.0499361
-3.8834e-09
0.0120268
-0.0499361
0.01202
-0.0499361
1.29717e-08
-0.0457514
0.0303232
-1.27306e-13
-0.0457446
0.0303276
-1.29712e-08
-0.0457446
0.0303276
-0.0457514
0.0303232
-6.07642e-10
0.00147604
0.00260305
-0.00498251
0.000903421
2.15883e-12
0.00147605
0.00260312
-0.00498291
0.000903739
6.10557e-10
0.00147605
0.00260312
-0.00498291
0.000903739
0.00147604
0.00260305
-0.00498251
0.000903421
4.03562e-09
0.00328227
0.00285315
-0.00465939
4.34087e-12
0.00328298
0.00285309
-0.00466001
-4.03171e-09
0.00328298
0.00285309
-0.00466001
0.00328227
0.00285315
-0.00465939
1.48123e-08
-0.0160584
0.0229046
-0.040174
0.0333279
-1.41173e-13
-0.0160585
0.022907
-0.0401705
0.033322
-1.4813e-08
-0.0160585
0.022907
-0.0401705
0.033322
-0.0160584
0.0229046
-0.040174
0.0333279
1.0248e-07
0.0326042
-0.0456037
-0.00305909
2.11898e-13
0.0326152
-0.0456072
-0.0030664
-1.02481e-07
0.0326152
-0.0456072
-0.0030664
0.0326042
-0.0456037
-0.00305909
4.9691e-08
0.0485743
0.00693438
-3.11231e-14
0.0485827
0.00693957
-4.96901e-08
0.0485827
0.00693957
0.0485743
0.00693438
1.07278e-09
0.00260766
-0.000772139
-0.00414741
0.00231188
-1.36887e-12
0.00260849
-0.000773175
-0.00414681
0.00231149
-1.07247e-09
0.00260849
-0.000773175
-0.00414681
0.00231149
0.00260766
-0.000772139
-0.00414741
0.00231188
1.22617e-08
-0.00298979
0.00396627
0.00163117
-8.29568e-13
-0.00299069
0.00396686
0.00163233
-1.2262e-08
-0.00299069
0.00396686
0.00163233
-0.00298979
0.00396627
0.00163117
-2.44034e-09
-0.00434156
0.000579634
-3.94149e-12
-0.004343
0.000579142
2.42313e-09
-0.004343
0.000579142
-0.00434156
0.000579634
2.687e-08
-0.0237563
0.0273075
-0.0480392
0.044488
1.37291e-12
-0.0237465
0.0273037
-0.0480375
0.0444803
-2.68688e-08
-0.0237465
0.0273037
-0.0480375
0.0444803
-0.0237563
0.0273075
-0.0480392
0.044488
4.35845e-08
0.0403597
-0.0597729
-0.00434313
-1.83424e-12
0.0403561
-0.0597722
-0.00433033
-4.35755e-08
0.0403561
-0.0597722
-0.00433033
0.0403597
-0.0597729
-0.00434313
1.1398e-07
0.0635674
0.00409967
1.32996e-12
0.0635733
0.00408653
-1.13975e-07
0.0635733
0.00408653
0.0635674
0.00409967
-1.38702e-09
-0.00276434
0.00461208
-0.00280336
0.00095562
2.57093e-12
-0.00276391
0.00461158
-0.00280354
0.000955874
1.39154e-09
-0.00276391
0.00461158
-0.00280354
0.000955874
-0.00276434
0.00461208
-0.00280336
0.00095562
1.02934e-08
-0.0053784
-0.000394807
0.00300885
2.11855e-13
-0.00537834
-0.000394659
0.0030091
-1.02903e-08
-0.00537834
-0.000394659
0.0030091
-0.0053784
-0.000394807
0.00300885
5.9692e-09
-0.000797049
0.00106922
0.0043399
2.95105e-12
-0.000797496
0.0010694
0.00433969
-5.96304e-09
-0.000797496
0.0010694
0.00433969
-0.000797049
0.00106922
0.0043399
-2.06043e-08
0.00186225
0.00782538
0.000660261
-0.0103479
-3.6043e-12
0.00186301
0.00782559
0.000660685
-0.0103493
2.05969e-08
0.00186301
0.00782559
0.000660685
-0.0103493
0.00186225
0.00782538
0.000660261
-0.0103479
1.32343e-08
0.0101515
0.00250258
-0.0107919
-6.00445e-12
0.0101524
0.00250342
-0.0107928
-1.32515e-08
0.0101524
0.00250342
-0.0107928
0.0101515
0.00250258
-0.0107919
-2.36947e-09
-0.000552193
0.00569613
0.00268145
2.04654e-12
-0.000552871
0.00569762
0.00268084
2.37225e-09
-0.000552871
0.00569762
0.00268084
-0.000552193
0.00569613
0.00268145
1.85259e-08
0.00615122
0.000374659
-0.00707809
3.33248e-12
0.00615254
0.000373529
-0.00707892
-1.85147e-08
0.00615254
0.000373529
-0.00707892
0.00615122
0.000374659
-0.00707809
-2.96044e-08
0.0732053
-0.061379
-0.0479724
0.0361461
2.5999e-12
0.0732062
-0.0613878
-0.0479628
0.0361444
2.96006e-08
0.0732062
-0.0613878
-0.0479628
0.0361444
0.0732053
-0.061379
-0.0479724
0.0361461
-1.9099e-07
0.0267967
-0.013364
3.75494e-12
0.0267946
-0.0133608
1.90984e-07
0.0267946
-0.0133608
0.0267967
-0.013364
-1.1651e-08
0.0363132
0.00597394
-0.0351647
-0.00712245
-3.90517e-13
0.0363085
0.00597318
-0.035159
-0.00712268
1.16507e-08
0.0363085
0.00597318
-0.035159
-0.00712268
0.0363132
0.00597394
-0.0351647
-0.00712245
-1.11837e-08
0.0010694
0.0100539
0.0251899
8.47854e-13
0.00107061
0.0100574
0.0251805
1.11825e-08
0.00107061
0.0100574
0.0251805
0.0010694
0.0100539
0.0251899
-1.10481e-07
0.0276315
0.0136662
-0.0353237
-1.09782e-12
0.0276265
0.0136709
-0.0353244
1.10482e-07
0.0276265
0.0136709
-0.0353244
0.0276315
0.0136662
-0.0353237
6.47811e-09
0.014727
0.0139739
-4.92895e-13
0.0147251
0.0139721
-6.47785e-09
0.0147251
0.0139721
0.014727
0.0139739
-1.61448e-07
-0.0531874
0.0534496
-0.00281632
0.0025543
-7.23726e-14
-0.0531824
0.053443
-0.00281941
0.00255862
1.6145e-07
-0.0531824
0.053443
-0.00281941
0.00255862
-0.0531874
0.0534496
-0.00281632
0.0025543
-2.06785e-08
0.000808196
-0.0598776
0.0533761
0.00569327
7.43953e-13
0.000807034
-0.0598692
0.0533771
0.00568507
2.06811e-08
0.000807034
-0.0598692
0.0533771
0.00568507
0.000808196
-0.0598776
0.0533761
0.00569327
2.60937e-08
-0.063907
0.0115277
7.07708e-13
-0.0638965
0.0115212
-2.60933e-08
-0.0638965
0.0115212
-0.063907
0.0115277
5.59857e-08
0.0376819
0.00411501
0.0116526
-6.45683e-13
0.0376837
0.00411099
0.0116484
-5.59859e-08
0.0376837
0.00411099
0.0116484
0.0376819
0.00411501
0.0116526
1.14189e-07
0.0303948
0.0209532
-1.63184e-12
0.0304011
0.0209537
-1.14189e-07
0.0304011
0.0209537
0.0303948
0.0209532
-1.11298e-07
-0.0347567
-0.0432133
0.0140631
6.26927e-13
-0.0347607
-0.0431991
0.0140632
1.11298e-07
-0.0347607
-0.0431991
0.0140632
-0.0347567
-0.0432133
0.0140631
-3.99519e-08
-0.0429154
-0.0122386
0.0203974
3.45848e-13
-0.0429238
-0.012237
0.0204
3.99528e-08
-0.0429238
-0.012237
0.0204
-0.0429154
-0.0122386
0.0203974
-5.70117e-08
0.0136493
0.00175358
-0.0583182
-2.64806e-14
0.0136427
0.00175334
-0.0583198
5.70121e-08
0.0136427
0.00175334
-0.0583198
0.0136493
0.00175358
-0.0583182
-7.92453e-08
-0.0635047
0.00805291
2.3153e-13
-0.0634889
0.00805267
7.92457e-08
-0.0634889
0.00805267
-0.0635047
0.00805291
-9.69221e-08
0.01234
-0.0621954
-1.45859e-13
0.0123404
-0.0621866
9.69219e-08
0.0123404
-0.0621866
0.01234
-0.0621954
-1.71612e-07
-0.0492865
0.00980646
4.01147e-13
-0.0492809
0.00981155
1.71612e-07
-0.0492809
0.00981155
-0.0492865
0.00980646
-7.70111e-08
-0.0543407
0.0068079
-8.64537e-14
-0.0543316
0.00680397
7.70106e-08
-0.0543316
0.00680397
-0.0543407
0.0068079
-1.93792e-07
0.0539136
-0.00335362
3.28891e-13
0.0539084
-0.00335094
1.93792e-07
0.0539084
-0.00335094
0.0539136
-0.00335362
2.38962e-08
0.0168953
-2.93141e-12
0.0168972
-2.39012e-08
0.0168972
0.0168953
-1.08376e-07
-0.0383987
0.0248776
9.23407e-14
-0.038382
0.0248774
1.08378e-07
-0.038382
0.0248774
-0.0383987
0.0248776
3.52813e-09
-0.0489244
0.0146406
-1.95313e-12
-0.0489133
0.0146423
-3.52877e-09
-0.0489133
0.0146423
-0.0489244
0.0146406
-4.71956e-08
-0.0567546
0.0103846
-1.50543e-12
-0.0567447
0.01039
4.71938e-08
-0.0567447
0.01039
-0.0567546
0.0103846
-1.10647e-07
-0.0572275
0.0120007
-1.76709e-13
-0.0572227
0.011999
1.10645e-07
-0.0572227
0.011999
-0.0572275
0.0120007
-4.58428e-08
-0.0555458
0.0123815
1.29432e-13
-0.0555422
0.0123827
4.58421e-08
-0.0555422
0.0123827
-0.0555458
0.0123815
-1.22641e-07
-0.0581736
0.0106809
-2.941e-14
-0.0581715
0.0106819
1.22641e-07
-0.0581715
0.0106819
-0.0581736
0.0106809
-2.28276e-08
-0.0502415
0.00440787
-9.68935e-14
-0.05024
0.00440876
2.28273e-08
-0.05024
0.00440876
-0.0502415
0.00440787
-1.06907e-07
-0.00114062
0.0122444
-0.0613451
-4.34406e-14
-0.00113846
0.012244
-0.0613456
1.06907e-07
-0.00113846
0.012244
-0.0613456
-0.00114062
0.0122444
-0.0613451
-8.92779e-08
-0.00288517
-0.0604507
-1.08027e-13
-0.00288038
-0.0604448
8.92773e-08
-0.00288038
-0.0604448
-0.00288517
-0.0604507
-2.32734e-09
-0.000251564
-0.0609518
-1.0841e-13
-0.000252597
-0.0609476
2.32663e-09
-0.000252597
-0.0609476
-0.000251564
-0.0609518
-6.98013e-08
-0.0603596
0.00576742
5.33144e-14
-0.0603536
0.00576932
6.98007e-08
-0.0603536
0.00576932
-0.0603596
0.00576742
-2.76472e-09
-0.00492212
0.0236711
-1.53472e-12
-0.00492655
0.023676
2.76295e-09
-0.00492655
0.023676
-0.00492212
0.0236711
-4.19872e-08
-0.04442
0.0599922
0.0267732
-1.84388e-12
-0.0444324
0.0599932
0.0267742
4.19861e-08
-0.0444324
0.0599932
0.0267742
-0.04442
0.0599922
0.0267732
6.72604e-08
-0.0455875
0.0260451
-1.03091e-12
-0.0455861
0.0260312
-6.72598e-08
-0.0455861
0.0260312
-0.0455875
0.0260451
-1.12344e-08
-0.0501622
0.0192154
-2.68762e-12
-0.0501554
0.0192116
1.12325e-08
-0.0501554
0.0192116
-0.0501622
0.0192154
-9.81417e-08
-0.0546696
0.0148921
-1.55298e-12
-0.0546672
0.0149017
9.81388e-08
-0.0546672
0.0149017
-0.0546696
0.0148921
-1.03432e-07
-0.0575158
0.014847
-4.53297e-13
-0.0575194
0.0148511
1.0343e-07
-0.0575194
0.0148511
-0.0575158
0.014847
-7.96865e-08
-0.058417
0.0132828
1.25229e-14
-0.0584238
0.013287
7.9686e-08
-0.0584238
0.013287
-0.058417
0.0132828
-6.96698e-08
-0.0580339
0.0102978
-3.44873e-15
-0.0580414
0.0102994
6.96697e-08
-0.0580414
0.0102994
-0.0580339
0.0102978
-4.38027e-08
-0.0630367
0.00941078
-5.12783e-14
-0.0630424
0.00940968
4.38024e-08
-0.0630424
0.00940968
-0.0630367
0.00941078
-6.40899e-08
-0.0602159
0.00942356
1.50791e-14
-0.0602215
0.00942305
6.40895e-08
-0.0602215
0.00942305
-0.0602159
0.00942356
-4.13334e-08
-0.00618594
0.0087069
-0.0627368
8.61298e-14
-0.00618471
0.00870314
-0.06274
4.13331e-08
-0.00618471
0.00870314
-0.06274
-0.00618594
0.0087069
-0.0627368
-3.57518e-08
-0.00350669
-0.0640243
1.17422e-13
-0.00351086
-0.0640195
3.57513e-08
-0.00351086
-0.0640195
-0.00350669
-0.0640243
-7.24256e-08
-0.000299269
-0.0636581
1.03054e-13
-0.000302348
-0.0636534
7.24251e-08
-0.000302348
-0.0636534
-0.000299269
-0.0636581
-7.28468e-08
0.00219215
-0.0634432
1.98475e-13
0.00219128
-0.0634413
7.28464e-08
0.00219128
-0.0634413
0.00219215
-0.0634432
-8.05058e-08
0.00533304
-0.0635004
3.1289e-13
0.00533348
-0.0634959
8.05056e-08
0.00533348
-0.0634959
0.00533304
-0.0635004
-7.19989e-08
0.0588064
0.00982395
-0.0632972
3.58645e-13
0.058809
0.00982236
-0.0632979
7.1999e-08
0.058809
0.00982236
-0.0632979
0.0588064
0.00982395
-0.0632972
-4.99482e-08
0.0580563
0.00651752
1.54915e-13
0.058062
0.00651626
4.99483e-08
0.058062
0.00651626
0.0580563
0.00651752
-5.92322e-08
0.0564006
0.00846366
-4.5152e-14
0.0564064
0.00845956
5.92321e-08
0.0564064
0.00845956
0.0564006
0.00846366
-3.69082e-08
0.05761
0.00859716
-1.51813e-14
0.0576215
0.00859638
3.69082e-08
0.0576215
0.00859638
0.05761
0.00859716
-9.84482e-08
0.0559276
0.00737574
-6.3342e-14
0.0559342
0.00737229
9.84483e-08
0.0559342
0.00737229
0.0559276
0.00737574
-1.56022e-07
0.0479907
0.00458347
-1.64876e-13
0.0479974
0.00458571
1.56022e-07
0.0479974
0.00458571
0.0479907
0.00458347
-1.31135e-07
0.0466067
-0.00353804
-1.28784e-12
0.0466047
-0.003534
1.31136e-07
0.0466047
-0.003534
0.0466067
-0.00353804
6.72941e-09
-0.00660974
0.046094
-2.05566e-12
-0.00661257
0.0460946
-6.7292e-09
-0.00661257
0.0460946
-0.00660974
0.046094
-1.26509e-08
0.038711
-0.052884
0.010635
-5.34642e-13
0.0387251
-0.0528979
0.0106388
1.26511e-08
0.0387251
-0.0528979
0.0106388
0.038711
-0.052884
0.010635
-2.34016e-09
-0.0324181
0.0645194
-1.1899e-12
-0.0324101
0.0645227
2.34039e-09
-0.0324101
0.0645227
-0.0324181
0.0645194
-5.66632e-08
-0.0564041
0.00810356
-9.16272e-13
-0.0564186
0.00810637
5.66616e-08
-0.0564186
0.00810637
-0.0564041
0.00810356
-6.36624e-08
-0.058082
0.00905375
-9.28984e-13
-0.0580922
0.00904585
6.36601e-08
-0.0580922
0.00904585
-0.058082
0.00905375
-7.71908e-08
-0.0601055
0.0106208
-3.41117e-13
-0.0601127
0.0106168
7.71892e-08
-0.0601127
0.0106168
-0.0601055
0.0106208
-5.43993e-08
-0.0610692
0.00942739
-2.30335e-13
-0.0610745
0.00942129
5.43983e-08
-0.0610745
0.00942129
-0.0610692
0.00942739
-7.16336e-08
-0.0615252
0.00697358
-4.34668e-14
-0.0615306
0.0069723
7.16331e-08
-0.0615306
0.0069723
-0.0615252
0.00697358
-6.68052e-08
-0.0638259
0.0121247
2.00998e-13
-0.0638296
0.0121213
6.68051e-08
-0.0638296
0.0121213
-0.0638259
0.0121247
-1.70071e-07
0.0531818
0.0173505
-1.78292e-12
0.0531782
0.0173402
1.70066e-07
0.0531782
0.0173402
0.0531818
0.0173505
2.05307e-08
0.0147607
-0.00718251
8.41495e-13
0.0147574
-0.00718642
-2.05316e-08
0.0147574
-0.00718642
0.0147607
-0.00718251
3.54219e-08
-0.0495479
0.0241345
-2.11577e-13
-0.0495434
0.0241304
-3.54223e-08
-0.0495434
0.0241304
-0.0495479
0.0241345
-1.30189e-07
-0.0568554
0.0246582
7.94778e-13
-0.0568549
0.0246515
1.3019e-07
-0.0568549
0.0246515
-0.0568554
0.0246582
-2.20474e-07
-0.0555925
0.0255105
1.61476e-12
-0.0555927
0.0255119
2.20477e-07
-0.0555927
0.0255119
-0.0555925
0.0255105
-3.0265e-08
-0.0524981
0.0229507
-3.23787e-13
-0.0525096
0.022948
3.02664e-08
-0.0525096
0.022948
-0.0524981
0.0229507
-4.19247e-08
-0.0539552
0.0206725
-2.0086e-12
-0.0539688
0.0206708
4.19231e-08
-0.0539688
0.0206708
-0.0539552
0.0206725
-5.73051e-08
-0.0564373
0.0173742
-1.42808e-12
-0.0564468
0.0173796
5.73026e-08
-0.0564468
0.0173796
-0.0564373
0.0173742
-6.16099e-08
-0.0581944
0.0166042
-4.58859e-13
-0.0582018
0.0166061
6.16085e-08
-0.0582018
0.0166061
-0.0581944
0.0166042
-3.7716e-08
-0.060232
0.0153204
-7.33689e-14
-0.0602384
0.0153236
3.77157e-08
-0.0602384
0.0153236
-0.060232
0.0153204
-2.97454e-08
-0.0615115
0.0115773
1.54939e-14
-0.0615189
0.0115799
2.97453e-08
-0.0615189
0.0115799
-0.0615115
0.0115773
-3.35185e-08
-0.06197
0.00986925
2.25261e-15
-0.0619756
0.00986633
3.35183e-08
-0.0619756
0.00986633
-0.06197
0.00986925
-5.39516e-08
-0.0605168
0.00797049
-4.40828e-15
-0.0605214
0.00796875
5.39513e-08
-0.0605214
0.00796875
-0.0605168
0.00797049
-5.2446e-08
-0.0632032
0.0113933
-3.0449e-14
-0.0632083
0.01139
5.24456e-08
-0.0632083
0.01139
-0.0632032
0.0113933
-5.06446e-08
-0.00789313
0.00990782
-0.0652179
-7.33576e-14
-0.00789324
0.00990661
-0.0652217
5.0644e-08
-0.00789324
0.00990661
-0.0652217
-0.00789313
0.00990782
-0.0652179
-5.42868e-08
-0.00493178
-0.0656981
1.01952e-13
-0.00493261
-0.0657007
5.42863e-08
-0.00493261
-0.0657007
-0.00493178
-0.0656981
-7.58895e-08
-0.00287927
-0.0660768
2.59679e-13
-0.00287583
-0.0660763
7.58892e-08
-0.00287583
-0.0660763
-0.00287927
-0.0660768
-5.75505e-08
-0.000274268
-0.066263
3.5963e-13
-0.000272083
-0.0662572
5.75504e-08
-0.000272083
-0.0662572
-0.000274268
-0.066263
-4.06927e-08
0.00281972
-0.0665371
4.57353e-13
0.00281812
-0.0665316
4.06928e-08
0.00281812
-0.0665316
0.00281972
-0.0665371
-6.25795e-08
0.00538379
-0.0660644
5.32292e-13
0.00538329
-0.0660611
6.25798e-08
0.00538329
-0.0660611
0.00538379
-0.0660644
-5.1347e-08
0.00826807
-0.0661815
5.1238e-13
0.00826631
-0.066181
5.13473e-08
0.00826631
-0.066181
0.00826807
-0.0661815
-5.41403e-08
0.00965627
-0.0652141
3.78848e-13
0.00965396
-0.0652173
5.41405e-08
0.00965396
-0.0652173
0.00965627
-0.0652141
-5.65044e-08
-0.051873
0.03009
-7.29586e-13
-0.0518576
0.0300861
5.65035e-08
-0.0518576
0.0300861
-0.051873
0.03009
-7.83452e-09
0.000103125
-0.00138062
-0.00410089
1.1048e-12
0.000103116
-0.00138032
-0.00410114
7.83495e-09
0.000103116
-0.00138032
-0.00410114
0.000103125
-0.00138062
-0.00410089
-8.98603e-09
-0.00314863
0.00299126
0.000260503
2.29112e-12
-0.00314888
0.00299079
0.000261195
8.98467e-09
-0.00314888
0.00299079
0.000261195
-0.00314863
0.00299126
0.000260503
-5.53139e-09
-0.00255922
-0.00391818
0.00359281
0.0028846
6.86209e-13
-0.00256017
-0.00391849
0.00359309
0.00288557
5.53586e-09
-0.00256017
-0.00391849
0.00359309
0.00288557
-0.00255921
-0.00391818
0.00359281
0.0028846
-2.0467e-10
0.00301468
-0.00229162
4.7877e-12
0.00301462
-0.00229182
2.05509e-10
0.00301462
-0.00229182
0.00301468
-0.00229162
1.1252e-08
-0.00135026
0.0012163
-6.09599e-12
-0.00134981
0.00121557
-1.12578e-08
-0.00134981
0.00121557
-0.00135026
0.0012163
-2.16463e-09
-0.00448547
0.00342044
6.15877e-12
-0.00448599
0.00342058
2.18157e-09
-0.00448599
0.00342058
-0.00448547
0.00342044
2.57423e-09
0.0025436
-0.00542699
-0.00177601
3.43248e-12
0.00254362
-0.00542777
-0.00177585
-2.56661e-09
0.00254362
-0.00542777
-0.00177585
0.0025436
-0.00542699
-0.00177601
-6.31976e-10
-0.00490478
0.00296291
4.35454e-12
-0.00490563
0.00296326
6.43086e-10
-0.00490563
0.00296326
-0.00490478
0.00296291
-6.4024e-09
0.00247328
-0.00174904
5.02675e-12
0.002473
-0.00174824
6.41123e-09
0.002473
-0.00174824
0.00247328
-0.00174904
-7.72275e-09
0.00326464
7.55966e-12
0.00326499
7.74408e-09
0.00326499
0.00326464
4.71656e-09
0.00570808
-0.0034959
8.51265e-12
0.0057087
-0.00349593
-4.69635e-09
0.0057087
-0.00349593
0.00570808
-0.0034959
8.71575e-09
0.00268341
-8.69561e-05
2.19254e-12
0.00268395
-8.78117e-05
-8.70383e-09
0.00268395
-8.78117e-05
0.00268341
-8.69561e-05
-1.11719e-08
0.0021397
-0.00182826
8.29041e-12
0.00213909
-0.0018278
1.11815e-08
0.00213909
-0.0018278
0.0021397
-0.00182826
-2.64727e-09
-0.00687628
0.000117771
-2.02418e-12
-0.0068765
0.00011773
2.64357e-09
-0.0068765
0.00011773
-0.00687628
0.000117771
-4.96528e-09
-0.00819927
-0.000426045
-4.024e-12
-0.00819864
-0.000426099
4.95033e-09
-0.00819864
-0.000426099
-0.00819927
-0.000426045
-1.68784e-09
-0.00673725
-0.00108736
-3.68631e-12
-0.00673701
-0.0010881
1.67342e-09
-0.00673701
-0.0010881
-0.00673725
-0.00108736
-2.99241e-08
-0.0120505
-0.00176483
-1.62931e-12
-0.0120506
-0.00176536
2.99219e-08
-0.0120506
-0.00176536
-0.0120505
-0.00176483
1.59071e-08
-0.0108192
-0.00057107
1.16379e-12
-0.0108183
-0.000571566
-1.59064e-08
-0.0108183
-0.000571566
-0.0108192
-0.00057107
-9.70248e-08
-0.0576561
0.0138868
-6.56806e-13
-0.0576523
0.013901
9.70232e-08
-0.0576523
0.013901
-0.0576561
0.0138868
-9.94708e-08
-0.0608628
0.0122605
-6.82033e-13
-0.0608693
0.0122628
9.94687e-08
-0.0608693
0.0122628
-0.0608628
0.0122605
-7.64756e-08
-0.0611852
0.0109432
-5.19767e-13
-0.0611939
0.0109413
7.64739e-08
-0.0611939
0.0109413
-0.0611852
0.0109432
-7.43956e-08
-0.0623677
0.01061
-2.93801e-13
-0.062375
0.0106023
7.43946e-08
-0.062375
0.0106023
-0.0623677
0.01061
-8.46007e-08
-0.0662018
0.0108077
-1.02092e-13
-0.0662078
0.010805
8.46e-08
-0.0662078
0.010805
-0.0662018
0.0108077
-7.07012e-08
-0.0649042
0.0108272
1.28325e-13
-0.0649095
0.0108229
7.0701e-08
-0.0649095
0.0108229
-0.0649042
0.0108272
-5.77881e-08
-0.0657451
0.0104973
2.8908e-13
-0.0657505
0.0104949
5.77883e-08
-0.0657505
0.0104949
-0.0657451
0.0104973
4.75012e-08
-0.0295
0.0166953
-7.78334e-13
-0.0294931
0.016688
-4.74982e-08
-0.0294931
0.016688
-0.0295
0.0166953
7.03231e-08
-0.0400039
0.0438318
6.99506e-13
-0.0399999
0.0438289
-7.03225e-08
-0.0399999
0.0438289
-0.0400039
0.0438318
8.77211e-08
-0.0494806
0.0336111
-9.69012e-13
-0.0494772
0.0336078
-8.77218e-08
-0.0494772
0.0336078
-0.0494806
0.0336111
-4.02155e-08
-0.0536577
0.0288354
9.30647e-13
-0.0536619
0.028836
4.02147e-08
-0.0536619
0.028836
-0.0536577
0.0288354
-1.13248e-07
-0.0543978
0.0262507
2.14127e-12
-0.0544047
0.0262546
1.13249e-07
-0.0544047
0.0262546
-0.0543978
0.0262507
-8.4779e-08
-0.0555147
0.0240677
1.04799e-12
-0.0555227
0.0240659
8.47801e-08
-0.0555227
0.0240659
-0.0555147
0.0240677
-7.61059e-08
-0.058155
0.0233129
-8.59663e-13
-0.0581641
0.0233122
7.61053e-08
-0.0581641
0.0233122
-0.058155
0.0233129
-6.43619e-08
-0.0579749
0.0171942
-1.20154e-12
-0.0579794
0.0171948
6.43603e-08
-0.0579794
0.0171948
-0.0579749
0.0171942
-5.28531e-08
-0.0599341
0.0185634
-6.17803e-13
-0.059937
0.0185636
5.2852e-08
-0.059937
0.0185636
-0.0599341
0.0185634
1.22858e-08
-0.0607461
0.0161324
-1.20901e-13
-0.0607458
0.0161324
-1.22861e-08
-0.0607458
0.0161324
-0.0607461
0.0161324
-2.41191e-09
-0.0618412
0.0126724
6.63671e-14
-0.0618406
0.0126747
2.41192e-09
-0.0618406
0.0126747
-0.0618412
0.0126724
-3.69348e-08
-0.0623691
0.0103972
1.70353e-14
-0.0623731
0.0103988
3.69347e-08
-0.0623731
0.0103988
-0.0623691
0.0103972
-6.43048e-08
-0.0656578
0.0112593
-1.28122e-13
-0.0656612
0.0112567
6.43044e-08
-0.0656612
0.0112567
-0.0656578
0.0112593
-5.95182e-08
-0.0628649
0.00860044
-2.49182e-13
-0.0628701
0.00859889
5.95176e-08
-0.0628701
0.00859889
-0.0628649
0.00860044
-5.11783e-08
-0.0658591
0.0129021
-2.60094e-13
-0.0658635
0.0129
5.11775e-08
-0.0658635
0.0129
-0.0658591
0.0129021
-3.44371e-08
-0.00786738
-0.0671226
0.00913092
-1.84352e-13
-0.00786535
-0.067128
0.00912979
3.44363e-08
-0.00786535
-0.067128
0.00912979
-0.00786738
-0.0671226
0.00913092
-3.90325e-08
-0.00607409
-0.0670111
7.75111e-15
-0.00607199
-0.0670151
3.9032e-08
-0.00607199
-0.0670151
-0.00607409
-0.0670111
-3.5233e-08
-0.00427113
-0.067501
2.02072e-13
-0.0042707
-0.067502
3.52328e-08
-0.0042707
-0.067502
-0.00427113
-0.067501
-3.00933e-08
-0.00146535
-0.0688825
3.7459e-13
-0.00146886
-0.0688782
3.00934e-08
-0.00146886
-0.0688782
-0.00146535
-0.0688825
-4.53779e-08
0.00100341
-0.0687317
4.87419e-13
0.00100086
-0.068727
4.53782e-08
0.00100086
-0.068727
0.00100341
-0.0687317
-5.00589e-08
0.00245672
-0.0679904
5.59676e-13
0.00245653
-0.0679873
5.00593e-08
0.00245653
-0.0679873
0.00245672
-0.0679904
-5.00085e-08
0.00440806
-0.0680157
5.90371e-13
0.00440817
-0.0680128
5.0009e-08
0.00440817
-0.0680128
0.00440806
-0.0680157
-4.98786e-08
0.0063121
-0.0680855
5.59406e-13
0.00631203
-0.0680849
4.98792e-08
0.00631203
-0.0680849
0.0063121
-0.0680855
-4.40825e-08
0.00844141
-0.0673433
4.63644e-13
0.00844006
-0.0673454
4.4083e-08
0.00844006
-0.0673454
0.00844141
-0.0673433
-4.20803e-08
0.00993333
-0.067237
3.55278e-13
0.00993046
-0.0672409
4.20807e-08
0.00993046
-0.0672409
0.00993333
-0.067237
1.13244e-07
0.00295012
0.0531977
-1.53046e-13
0.00294665
0.0532054
-1.13244e-07
0.00294665
0.0532054
0.00295012
0.0531977
-5.23189e-09
0.0558111
0.0116584
-1.30423e-12
0.0558164
0.011653
5.23113e-09
0.0558164
0.011653
0.0558111
0.0116584
-1.19895e-08
-0.00365245
0.00655719
3.07921e-12
-0.00365226
0.00655741
1.20115e-08
-0.00365226
0.00655741
-0.00365245
0.00655719
-2.05952e-09
-0.000813742
0.00160318
1.24983e-11
-0.000814057
0.00160334
2.04979e-09
-0.000814057
0.00160334
-0.000813742
0.00160318
-3.24385e-09
-0.00498425
0.00490879
1.62303e-12
-0.00498435
0.004909
3.26931e-09
-0.00498435
0.004909
-0.00498425
0.00490879
-5.47403e-10
-0.00624966
0.00422832
2.08831e-12
-0.00624986
0.00422877
5.58643e-10
-0.00624986
0.00422877
-0.00624966
0.00422832
-1.3142e-08
-0.00733869
0.00435368
4.45802e-12
-0.00734041
0.00435553
1.31604e-08
-0.00734041
0.00435553
-0.00733869
0.00435368
3.01697e-08
-0.00977369
0.00511641
-1.39899e-12
-0.00977547
0.00511592
-3.01763e-08
-0.00977547
0.00511592
-0.00977369
0.00511641
-3.25496e-08
-0.00666454
0.00704243
2.86482e-12
-0.00666494
0.00704188
3.25401e-08
-0.00666494
0.00704188
-0.00666454
0.00704243
3.61242e-09
-0.0111047
0.0069427
1.92046e-12
-0.0111034
0.00694189
-3.60958e-09
-0.0111034
0.00694189
-0.0111047
0.0069427
-1.71352e-08
-0.00523299
-0.0120172
0.00614552
5.76562e-14
-0.00523214
-0.0120178
0.00614649
1.71358e-08
-0.00523214
-0.0120178
0.00614649
-0.00523299
-0.0120172
0.00614552
-1.71346e-08
-0.00323281
-0.0127921
2.97879e-14
-0.00323172
-0.0127933
1.71358e-08
-0.00323172
-0.0127933
-0.00323281
-0.0127921
-1.37709e-08
-0.00119535
-0.0123853
-1.39991e-12
-0.00119535
-0.0123857
1.37656e-08
-0.00119535
-0.0123857
-0.00119535
-0.0123853
-2.08002e-08
0.000219683
-0.0122342
-2.5602e-12
0.000221402
-0.0122351
2.07967e-08
0.000221402
-0.0122351
0.000219683
-0.0122342
3.12547e-09
-0.00474599
0.00382115
-3.17214e-12
-0.00474498
0.00382092
-3.10871e-09
-0.00474498
0.00382092
-0.00474599
0.00382115
-4.03736e-09
-7.66766e-05
0.00274622
1.38624e-05
-5.35023e-14
-7.71738e-05
0.00274665
1.44711e-05
4.03613e-09
-7.71738e-05
0.00274665
1.44712e-05
-7.66766e-05
0.00274622
1.38624e-05
-7.59801e-09
0.00388781
5.96794e-12
0.00388779
7.59239e-09
0.00388779
0.00388781
6.47061e-10
-0.00609073
0.00146251
-3.96565e-13
-0.00609016
0.0014629
-6.37758e-10
-0.00609016
0.0014629
-0.00609073
0.00146251
-4.56738e-09
-0.00734107
0.000824301
-3.87432e-12
-0.00734124
0.000824982
4.56298e-09
-0.00734124
0.000824982
-0.00734107
0.000824301
9.77617e-09
-0.00881244
0.000384
-1.01012e-11
-0.0088132
0.000383865
-9.7958e-09
-0.0088132
0.000383865
-0.00881244
0.000384
-7.90485e-09
-0.0108398
0.000262589
-1.23085e-11
-0.010842
0.000263483
7.87892e-09
-0.010842
0.000263483
-0.0108398
0.000262589
-3.10596e-09
-0.0120831
0.00067223
-5.31636e-12
-0.0120856
0.000672026
3.09157e-09
-0.0120856
0.000672026
-0.0120831
0.00067223
-8.70528e-09
-0.0126205
0.000757053
-1.74724e-12
-0.0126224
0.000758169
8.70146e-09
-0.0126224
0.000758169
-0.0126205
0.000757053
1.60455e-08
-0.000499626
0.00350702
-8.014e-12
-0.000500365
0.00350725
-1.60396e-08
-0.000500365
0.00350725
-0.000499626
0.00350702
-7.05831e-09
-0.0052569
0.00684782
-0.0136081
2.05271e-12
-0.0052559
0.00684732
-0.0136092
7.05932e-09
-0.0052559
0.00684732
-0.0136092
-0.0052569
0.00684782
-0.0136081
-6.69885e-09
-0.00400831
-0.0140406
5.33926e-12
-0.00400741
-0.0140418
6.7032e-09
-0.00400741
-0.0140418
-0.00400831
-0.0140406
-9.48874e-09
-0.0023001
-0.0140935
6.22535e-12
-0.00229915
-0.014094
9.49122e-09
-0.00229915
-0.014094
-0.0023001
-0.0140935
-7.55159e-09
-0.000456652
-0.0140776
6.33034e-12
-0.000456053
-0.0140782
7.55818e-09
-0.000456053
-0.0140782
-0.000456652
-0.0140776
-3.13862e-09
-0.013615
0.000537879
7.03329e-12
-0.0136168
0.000538306
3.14549e-09
-0.0136168
0.000538306
-0.013615
0.000537879
-2.50843e-10
-0.00496272
0.00621906
2.03364e-12
-0.0049624
0.00621913
2.69749e-10
-0.0049624
0.00621913
-0.00496272
0.00621906
-1.64427e-09
-0.00630426
0.00556986
3.02083e-12
-0.00630409
0.00557046
1.65439e-09
-0.00630409
0.00557046
-0.00630426
0.00556986
-6.53074e-09
-0.00748319
0.00553262
6.83809e-12
-0.00748315
0.00553458
6.55078e-09
-0.00748315
0.00553458
-0.00748319
0.00553262
2.4547e-09
-0.00850019
0.00613341
4.3258e-12
-0.00850007
0.00613284
-2.4428e-09
-0.00850007
0.00613284
-0.00850019
0.00613341
8.29177e-10
-0.00863971
0.00718195
5.34888e-12
-0.00864149
0.0071833
-8.26299e-10
-0.00864149
0.0071833
-0.00863971
0.00718195
-1.45488e-09
-0.00929797
0.00760096
2.61226e-12
-0.00929938
0.00759978
1.45733e-09
-0.00929938
0.00759978
-0.00929797
0.00760096
-6.91558e-09
-0.0111589
0.00800648
-7.48312e-13
-0.0111597
0.00800684
6.91712e-09
-0.0111597
0.00800684
-0.0111589
0.00800648
-2.4417e-09
0.00760563
-0.0119167
2.41383e-12
0.00760542
-0.0119178
2.4477e-09
0.00760542
-0.0119178
0.00760563
-0.0119167
9.94888e-09
0.00491833
0.000841802
4.77573e-13
0.00491848
0.000841437
-9.93615e-09
0.00491848
0.000841437
0.00491833
0.000841802
5.07126e-09
0.000829085
0.00412793
4.29922e-12
0.000829093
0.0041281
-5.07301e-09
0.000829093
0.0041281
0.000829085
0.00412793
9.03837e-09
0.00341604
0.000159264
2.37281e-12
0.00341674
0.000159007
-9.03745e-09
0.00341674
0.000159007
0.00341604
0.000159264
-3.99159e-09
-0.00265925
0.00159169
0.0051955
3.36382e-12
-0.00265922
0.00159189
0.00519542
3.99374e-09
-0.00265922
0.00159189
0.00519542
-0.00265925
0.00159169
0.0051955
-5.62563e-09
-0.00342025
0.00510091
1.37476e-12
-0.00342022
0.00510068
5.6321e-09
-0.00342022
0.00510068
-0.00342025
0.00510091
-7.06853e-09
-0.00406174
0.00555982
3.72624e-13
-0.00406156
0.00555982
7.07458e-09
-0.00406156
0.00555982
-0.00406174
0.00555982
-1.04798e-09
-0.00679192
0.00357198
2.92913e-13
-0.00679217
0.00357204
1.05416e-09
-0.00679217
0.00357204
-0.00679192
0.00357198
2.3627e-09
-0.0051845
0.00461165
2.74977e-12
-0.00518494
0.0046119
-2.35176e-09
-0.00518494
0.0046119
-0.0051845
0.00461165
-1.64201e-09
-0.00576781
0.00615317
-7.56174e-13
-0.00576787
0.00615339
1.6473e-09
-0.00576787
0.00615339
-0.00576781
0.00615317
-1.52941e-09
-0.00666902
0.00643383
-7.43666e-13
-0.0066691
0.00643581
1.53898e-09
-0.0066691
0.00643581
-0.00666902
0.00643383
-1.77263e-09
-0.00738901
0.0068534
-8.06798e-13
-0.00739008
0.00685382
1.78015e-09
-0.00739008
0.00685382
-0.00738901
0.0068534
-8.69374e-09
-0.00795425
0.00774719
-3.27025e-13
-0.00795431
0.00774752
8.69485e-09
-0.00795431
0.00774752
-0.00795425
0.00774719
-3.51865e-09
-0.00868401
0.00833073
-1.34451e-12
-0.00868465
0.00833011