/*--------------------------------*- C++ -*----------------------------------*\
| =========                 |                                                 |
| \\      /  F ield         | OpenFOAM: The Open Source CFD Toolbox           |
|  \\    /   O peration     | Version:  v1806                                 |
|   \\  /    A nd           | Web:      www.OpenFOAM.com                      |
|    \\/     M anipulation  |                                                 |
\*---------------------------------------------------------------------------*/
FoamFile
{
    version     2.0;
    format      ascii;
    class       volScalarField;
    location    "210";
    object      p;
}
// * * * * * * * * * * * * * * * * * * * * * * * * * * * * * * * * * * * * * //

dimensions      [0 2 -2 0 0 0 0];


internalField   nonuniform List<scalar> 
5208
(
0.0363011
0.0362952
0.0362952
0.0363011
0.0340838
0.0340751
0.0340751
0.0340838
-0.0025312
-0.00252983
-0.00252983
-0.0025312
-0.00247115
-0.00247229
-0.00247229
-0.00247115
-0.00253079
-0.00252979
-0.00252979
-0.00253079
-0.00274409
-0.00274291
-0.00274291
-0.00274409
0.0286424
0.0286394
0.0286394
0.0286424
0.0304705
0.0304717
0.0304717
0.0304705
0.0317075
0.0316995
0.0316995
0.0317075
-0.00311043
-0.00311741
-0.00311741
-0.00311042
-0.00177873
-0.00177324
-0.00177324
-0.00177874
-0.00339044
-0.00339166
-0.00339166
-0.00339044
-0.00332147
-0.00331845
-0.00331845
-0.00332147
-0.00332493
-0.00332508
-0.00332508
-0.00332493
-0.000142383
-0.00016401
-0.00016401
-0.000142383
-0.000709375
-0.000713604
-0.000713604
-0.000709375
-0.00564017
-0.00564401
-0.00564401
-0.00564017
0.025053
0.0250685
0.0250685
0.025053
0.0244422
0.0244514
0.0244514
0.0244422
0.021782
0.0217689
0.0217689
0.021782
0.0320713
0.0320738
0.0320738
0.0320713
0.00380512
0.00383252
0.00383252
0.00380512
0.00451433
0.00451424
0.00451424
0.00451433
-0.00261328
-0.00261308
-0.00261308
-0.00261328
-0.00288435
-0.00288384
-0.00288384
-0.00288435
-0.00237355
-0.00237306
-0.00237306
-0.00237355
-0.00216881
-0.00216863
-0.00216863
-0.00216881
-0.00216277
-0.00216254
-0.00216254
-0.00216277
-0.00239289
-0.00239261
-0.00239261
-0.00239289
-0.00265979
-0.00265967
-0.00265967
-0.00265979
-0.00297144
-0.00297157
-0.00297157
-0.00297144
-0.00232162
-0.00232058
-0.00232058
-0.00232162
-0.0021509
-0.00215068
-0.00215068
-0.0021509
0.0230392
0.0230576
0.0230576
0.0230392
0.0221752
0.0221877
0.0221877
0.0221752
0.0212724
0.0212803
0.0212803
0.0212724
0.0208303
0.0208379
0.0208379
0.0208303
0.0241974
0.0242091
0.0242091
0.0241974
0.0220996
0.0221086
0.0221086
0.0220996
0.0202014
0.0202073
0.0202073
0.0202014
0.0192483
0.0192528
0.0192528
0.0192483
0.0198129
0.019817
0.019817
0.0198129
0.018379
0.0183791
0.0183791
0.018379
0.0175582
0.0175591
0.0175591
0.0175582
0.0270621
0.0270625
0.0270625
0.0270621
0.0285738
0.0285681
0.0285681
0.0285738
0.0304604
0.030462
0.030462
0.0304604
0.0282338
0.028239
0.028239
0.0282338
0.0259419
0.0259552
0.0259552
0.0259419
0.0235253
0.0235373
0.0235373
0.0235253
0.0212074
0.0212129
0.0212129
0.0212074
0.0191326
0.0191326
0.0191326
0.0191326
0.0260615
0.0260621
0.0260621
0.0260615
0.027465
0.0274598
0.0274598
0.027465
0.0328812
0.0328767
0.0328767
0.0328812
0.0337906
0.0337854
0.0337854
0.0337906
-0.00334309
-0.00334325
-0.00334325
-0.00334309
-0.00320063
-0.00320056
-0.00320056
-0.00320063
-0.00302942
-0.00302896
-0.00302896
-0.00302942
-0.00288212
-0.00288218
-0.00288218
-0.00288212
-0.0021418
-0.0021416
-0.0021416
-0.0021418
-0.00238607
-0.00238587
-0.00238587
-0.00238607
-0.00267549
-0.00267531
-0.00267531
-0.00267549
-0.0030155
-0.00301528
-0.00301528
-0.0030155
-0.00342955
-0.00342937
-0.00342937
-0.00342955
-0.00198632
-0.00198547
-0.00198547
-0.00198632
-0.00198343
-0.00198304
-0.00198304
-0.00198343
-0.00195924
-0.00195892
-0.00195892
-0.00195924
-0.0019279
-0.00192768
-0.00192768
-0.0019279
-0.00226539
-0.00226448
-0.00226448
-0.00226539
-0.00213405
-0.00213429
-0.00213429
-0.00213405
0.0228179
0.0228336
0.0228336
0.0228179
0.0207668
0.0207758
0.0207758
0.0207668
-0.00198602
-0.00198502
-0.00198502
-0.00198602
0.0181968
0.0181969
0.0181969
0.0181968
0.0166446
0.0166456
0.0166456
0.0166446
0.0189976
0.0190034
0.0190034
0.0189976
0.0172897
0.0172825
0.0172825
0.0172897
0.0167234
0.0167159
0.0167159
0.0167234
0.0159718
0.0159677
0.0159677
0.0159718
0.0149719
0.0149661
0.0149661
0.0149719
0.0226843
0.0226926
0.0226926
0.0226843
0.0303134
0.0303259
0.0303259
0.0303134
0.0274703
0.0274776
0.0274776
0.0274703
0.0247176
0.024726
0.024726
0.0247176
0.0220226
0.0220234
0.0220234
0.0220226
0.0196906
0.0196887
0.0196887
0.0196906
0.0238984
0.0239068
0.0239068
0.0238984
0.0256211
0.0256216
0.0256216
0.0256211
0.0265515
0.0265454
0.0265454
0.0265515
0.0275731
0.0275675
0.0275675
0.0275731
0.0287185
0.0287154
0.0287154
0.0287185
0.0320411
0.0320342
0.0320342
0.0320411
0.0368334
0.0368339
0.0368339
0.0368334
0.0331054
0.0331011
0.0331011
0.0331054
0.0294343
0.0294317
0.0294317
0.0294343
0.0302475
0.0302397
0.0302397
0.0302475
0.017616
0.0176102
0.0176102
0.017616
0.0347121
0.0347151
0.0347151
0.0347121
0.0387468
0.0387394
0.0387394
0.0387468
0.0367073
0.036716
0.036716
0.0367073
-0.00275378
-0.00275302
-0.00275302
-0.00275378
-0.00245944
-0.00245847
-0.00245847
-0.00245944
0.0226646
0.0226746
0.0226746
0.0226646
0.0238507
0.0238528
0.0238528
0.0238507
0.0245993
0.0246012
0.0246012
0.0245993
0.0253563
0.0253604
0.0253604
0.0253563
0.0263001
0.0263042
0.0263042
0.0263001
0.0269611
0.0269645
0.0269645
0.0269611
0.0278029
0.0278064
0.0278064
0.0278029
0.0206155
0.0206311
0.0206311
0.0206155
0.0209453
0.0209675
0.0209675
0.0209453
0.0351991
0.0351946
0.0351946
0.0351991
0.0325169
0.0325331
0.0325331
0.0325169
0.0288869
0.0288916
0.0288916
0.0288869
0.0255609
0.0255676
0.0255676
0.0255609
0.0224909
0.022489
0.022489
0.0224909
0.0198532
0.0198512
0.0198512
0.0198532
-0.00392069
-0.0039204
-0.0039204
-0.00392069
-0.00377498
-0.00377507
-0.00377507
-0.00377498
-0.00357598
-0.00357565
-0.00357565
-0.00357598
-0.0033691
-0.0033684
-0.0033684
-0.0033691
-0.00319248
-0.0031915
-0.0031915
-0.00319248
-0.0030556
-0.00305479
-0.00305479
-0.0030556
-0.0018849
-0.00188482
-0.00188482
-0.0018849
-0.00209943
-0.00209934
-0.00209934
-0.00209943
-0.00235079
-0.00235067
-0.00235067
-0.00235079
-0.00265314
-0.00265302
-0.00265302
-0.00265315
-0.00301221
-0.00301204
-0.00301204
-0.00301222
-0.00345631
-0.00345588
-0.00345588
-0.00345631
-0.00399822
-0.00399777
-0.00399777
-0.00399822
-0.0019242
-0.00192463
-0.00192463
-0.0019242
-0.0018701
-0.00186995
-0.00186995
-0.0018701
-0.0018265
-0.00182634
-0.00182634
-0.00182649
-0.00178071
-0.00178051
-0.00178051
-0.00178071
-0.00173709
-0.00173694
-0.00173694
-0.00173709
-0.00169643
-0.00169637
-0.00169637
-0.00169643
-0.00214147
-0.00213913
-0.00213913
-0.00214147
-0.00212086
-0.00212118
-0.00212118
-0.00212086
-0.00197795
-0.00197613
-0.00197613
-0.00197795
-0.00199017
-0.00199084
-0.00199084
-0.00199017
0.0399962
0.0400042
0.0400042
0.0399962
0.0174363
0.0174425
0.0174425
0.0174363
0.0188013
0.0188126
0.0188126
0.0188013
0.0158984
0.0159017
0.0159017
0.0158984
0.0156547
0.0156473
0.0156473
0.0156547
0.015233
0.0152243
0.0152243
0.015233
0.0143914
0.0143927
0.0143927
0.0143914
0.0145307
0.0145216
0.0145216
0.0145307
0.0136448
0.0136402
0.0136402
0.0136448
0.015869
0.0158636
0.0158636
0.015869
0.0383199
0.0383242
0.0383242
0.0383199
0.0411896
0.0411771
0.0411771
0.0411896
0.0387008
0.038708
0.038708
0.0387008
0.0432469
0.0432323
0.0432323
0.0432469
0.0403245
0.0403354
0.0403354
0.0403245
-0.00190674
-0.00190573
-0.00190573
-0.00190674
-0.00181994
-0.0018193
-0.0018193
-0.00181994
-0.00173404
-0.00173352
-0.00173352
-0.00173404
-0.0016629
-0.00166258
-0.00166258
-0.0016629
-0.00160047
-0.00160014
-0.00160014
-0.00160047
-0.00155502
-0.00155478
-0.00155478
-0.00155502
-0.00152363
-0.00152354
-0.00152354
-0.00152363
-0.00150523
-0.00150519
-0.00150519
-0.00150523
-0.00165379
-0.00165383
-0.00165383
-0.00165379
-0.00182547
-0.00182558
-0.00182558
-0.00182547
-0.0020296
-0.00202976
-0.00202976
-0.0020296
-0.00227532
-0.00227551
-0.00227551
-0.00227532
-0.00257566
-0.00257583
-0.00257583
-0.00257566
-0.00294435
-0.00294447
-0.00294447
-0.00294435
-0.00340239
-0.0034024
-0.0034024
-0.00340239
-0.00397015
-0.00397028
-0.00397028
-0.00397015
-0.0046706
-0.00467113
-0.00467113
-0.0046706
-0.00464064
-0.00464065
-0.00464064
-0.00464064
-0.00448764
-0.00448746
-0.00448747
-0.00448764
-0.00426216
-0.00426212
-0.00426213
-0.00426216
-0.00399871
-0.00399839
-0.00399839
-0.0039987
-0.00373903
-0.00373838
-0.00373838
-0.00373903
-0.00351394
-0.00351344
-0.00351344
-0.00351393
-0.00333535
-0.0033349
-0.0033349
-0.00333535
-0.00322096
-0.00322121
-0.00322121
-0.00322096
-0.00317939
-0.00317746
-0.00317746
-0.00317939
0.017659
0.0176554
0.0176554
0.017659
0.0435009
0.0435101
0.0435101
0.0435009
0.0341318
0.0341326
0.0341326
0.0341318
0.0296541
0.0296525
0.0296525
0.0296541
0.0257901
0.02579
0.02579
0.0257901
0.0224972
0.0224931
0.0224931
0.0224972
0.019129
0.019143
0.019143
0.019129
0.0197337
0.0197445
0.0197445
0.0197337
0.0210217
0.021038
0.021038
0.0210217
0.0222062
0.0222119
0.0222119
0.0222062
0.0228476
0.0228499
0.0228499
0.0228476
0.0233198
0.0233238
0.0233238
0.0233198
0.0239711
0.0239758
0.0239758
0.0239711
0.0242095
0.0242106
0.0242106
0.0242095
0.0249354
0.0249322
0.0249322
0.0249354
0.0197369
0.019735
0.019735
0.0197369
-0.00297406
-0.00297357
-0.00297357
-0.00297406
-0.00269108
-0.00269119
-0.00269119
-0.00269108
-0.00240061
-0.00240022
-0.00240022
-0.00240061
0.0225674
0.0225709
0.0225709
0.0225674
0.0319904
0.0319918
0.0319918
0.0319904
0.0338828
0.0338838
0.0338838
0.0338828
-0.00222063
-0.00222051
-0.00222051
-0.00222063
-0.00211112
-0.00211215
-0.00211215
-0.00211112
-0.00197668
-0.00197525
-0.00197524
-0.00197668
-0.00209155
-0.00209385
-0.00209385
-0.00209155
-0.00200263
-0.00200025
-0.00200025
-0.00200263
0.029116
0.0291162
0.0291162
0.029116
-0.00219069
-0.0021919
-0.0021919
-0.00219069
-0.00219438
-0.00219632
-0.00219632
-0.00219438
-0.00195274
-0.0019514
-0.0019514
-0.00195274
-0.00209326
-0.00209389
-0.00209389
-0.00209326
-0.00215873
-0.00215683
-0.00215683
-0.00215873
-0.00301253
-0.00301276
-0.00301276
-0.00301253
-0.00269413
-0.00269371
-0.00269371
-0.00269413
0.0477823
0.047801
0.047801
0.0477823
0.0263448
0.0263501
0.0263501
0.0263448
0.0234676
0.0234742
0.0234742
0.0234676
0.0174549
0.0174514
0.0174514
0.0174549
-0.00331257
-0.00331109
-0.00331109
-0.00331257
-0.00340163
-0.00340197
-0.00340196
-0.00340163
-0.00356502
-0.00356468
-0.00356468
-0.00356502
-0.00380372
-0.00380355
-0.00380354
-0.00380372
-0.00409932
-0.00409906
-0.00409906
-0.00409932
-0.00443653
-0.00443644
-0.00443644
-0.00443653
-0.00478817
-0.00478811
-0.00478811
-0.00478817
-0.00511366
-0.00511377
-0.00511377
-0.00511365
-0.00535536
-0.00535568
-0.00535568
-0.00535535
-0.00545159
-0.00545245
-0.00545245
-0.00545159
-0.00149589
-0.0014959
-0.0014959
-0.00149589
-0.0016031
-0.00160319
-0.00160319
-0.0016031
-0.00174296
-0.0017432
-0.0017432
-0.00174296
-0.0019228
-0.00192318
-0.00192318
-0.0019228
-0.00214954
-0.00214997
-0.00214997
-0.00214954
-0.00243273
-0.00243322
-0.00243322
-0.00243273
-0.00278706
-0.00278761
-0.00278761
-0.00278706
-0.00323497
-0.00323561
-0.00323561
-0.00323497
-0.00380488
-0.00380561
-0.00380561
-0.00380488
-0.00451392
-0.00451494
-0.00451494
-0.00451392
-0.00532653
-0.00532758
-0.00532758
-0.00532653
-0.00202753
-0.00202697
-0.00202697
-0.00202753
-0.00228378
-0.00228873
-0.00228873
-0.00228378
-0.00189538
-0.00189515
-0.00189515
-0.00189538
-0.00175704
-0.00175791
-0.00175791
-0.00175704
-0.00160843
-0.00160836
-0.00160836
-0.00160843
-0.00150159
-0.00150151
-0.00150151
-0.00150159
-0.00142124
-0.00142129
-0.00142129
-0.00142124
-0.00137286
-0.00137308
-0.00137308
-0.00137286
-0.00135781
-0.00135815
-0.00135815
-0.00135781
-0.00137273
-0.00137307
-0.00137307
-0.00137273
-0.00141548
-0.0014158
-0.0014158
-0.00141548
0.0355151
0.0355176
0.0355176
0.0355151
0.0366128
0.0366142
0.0366142
0.0366128
0.0307039
0.0306998
0.0306998
0.0307039
0.0400659
0.0400476
0.0400476
0.0400659
0.036549
0.0365765
0.0365765
0.036549
0.0300549
0.03006
0.03006
0.0300549
0.0255987
0.0256059
0.0256059
0.0255987
0.0220371
0.0220349
0.0220349
0.0220371
0.0192866
0.0192853
0.0192853
0.0192866
0.0170249
0.0170206
0.0170206
0.0170249
0.0158304
0.0158273
0.0158273
0.0158304
0.0124291
0.0124369
0.0124369
0.0124291
0.0130747
0.0130864
0.0130864
0.0130747
0.0143637
0.0143598
0.0143598
0.0143637
0.0142218
0.0142164
0.0142164
0.0142218
0.0138977
0.0138902
0.0138902
0.0138977
0.0133424
0.013336
0.013336
0.0133424
0.0125203
0.0125168
0.0125168
0.0125203
0.0115243
0.0115202
0.0115202
0.0115243
0.013631
0.0136286
0.0136286
0.013631
0.0148243
0.0148286
0.0148286
0.0148243
0.0161749
0.0161871
0.0161871
0.0161749
0.0172276
0.0172419
0.0172419
0.0172276
0.0177176
0.0177216
0.0177216
0.0177176
0.0181891
0.0181924
0.0181924
0.0181891
0.0192147
0.0192253
0.0192253
0.0192147
0.0202734
0.0202823
0.0202823
0.0202734
0.0208994
0.0209015
0.0209015
0.0208994
0.0212661
0.0212682
0.0212682
0.0212661
0.0215483
0.0215495
0.0215495
0.0215483
0.0216599
0.0216649
0.0216649
0.0216599
0.0212847
0.021292
0.021292
0.0212847
0.0203775
0.020384
0.020384
0.0203775
0.0206778
0.0206868
0.0206868
0.0206778
0.0156063
0.0156039
0.0156039
0.0156063
0.0151676
0.015165
0.015165
0.0151676
0.0287382
0.028739
0.028739
0.0287382
0.0260005
0.0259965
0.0259965
0.0260005
0.0234266
0.0234258
0.0234258
0.0234266
0.0208016
0.0207936
0.0207936
0.0208016
0.0184428
0.0184382
0.0184382
0.0184428
0.0163139
0.0163057
0.0163057
0.0163139
0.014533
0.0145288
0.0145288
0.014533
0.0423653
0.0423702
0.0423702
0.0423653
0.0307289
0.0307244
0.0307244
0.0307289
0.0438096
0.043802
0.043802
0.0438096
0.027473
0.0274742
0.0274742
0.027473
0.0241097
0.0241102
0.0241102
0.0241097
0.0208018
0.0208055
0.0208055
0.0208018
0.0319123
0.0319062
0.0319062
0.0319123
0.0327004
0.0326936
0.0326936
0.0327004
0.0104114
0.0104107
0.0104107
0.0104114
0.0110524
0.0110567
0.0110567
0.0110524
0.0117313
0.0117328
0.0117328
0.0117313
0.012455
0.012453
0.012453
0.012455
0.0133698
0.0133743
0.0133743
0.0133698
0.0144328
0.0144404
0.0144404
0.0144328
0.0153604
0.0153715
0.0153715
0.0153604
0.0162255
0.0162321
0.0162321
0.0162255
0.0167793
0.0167806
0.0167806
0.0167793
0.0176001
0.0176087
0.0176087
0.0176001
0.0184316
0.0184401
0.0184401
0.0184316
0.0189892
0.0189926
0.0189926
0.0189892
0.0192242
0.0192253
0.0192253
0.0192242
0.0192865
0.0192878
0.0192878
0.0192865
0.0192294
0.0192314
0.0192314
0.0192294
0.0188017
0.0187971
0.0187971
0.0188017
0.0179677
0.0179645
0.0179645
0.0179677
0.0177448
0.0177466
0.0177466
0.0177448
0.0129755
0.012972
0.012972
0.0129755
0.0127265
0.0127226
0.0127226
0.0127265
0.0122188
0.0122157
0.0122157
0.0122188
0.0115076
0.0115071
0.0115071
0.0115076
0.0107188
0.0107172
0.0107172
0.0107188
0.0098097
0.00980972
0.00980972
0.0098097
0.013075
0.0130728
0.0130728
0.013075
0.0142702
0.0142671
0.0142671
0.0142702
0.0513751
0.051403
0.051403
0.0513751
0.0175663
0.0175676
0.0175676
0.0175663
0.0141529
0.0141486
0.0141486
0.0141529
0.0146845
0.0146798
0.0146798
0.0146845
0.0156038
0.0155992
0.0155992
0.0156038
0.0164013
0.0163935
0.0163935
0.0164013
0.0169626
0.0169592
0.0169592
0.0169626
0.017142
0.0171416
0.0171416
0.017142
0.0172266
0.0172266
0.0172266
0.0172266
0.0171134
0.017115
0.017115
0.0171134
0.016676
0.0166825
0.0166825
0.016676
0.0160055
0.0160119
0.0160119
0.0160055
0.0153834
0.015385
0.015385
0.0153834
0.0147898
0.0147969
0.0147969
0.0147898
0.0138498
0.0138596
0.0138596
0.0138498
0.0129409
0.0129472
0.0129472
0.0129409
0.0121118
0.0121158
0.0121158
0.0121118
0.0112849
0.0112867
0.0112867
0.0112849
0.0105569
0.0105616
0.0105616
0.0105569
0.00983697
0.00984131
0.00984131
0.00983697
0.00922654
0.0092287
0.0092287
0.00922654
0.0140115
0.0140076
0.0140076
0.0140115
0.0135776
0.013572
0.013572
0.0135776
0.0129494
0.0129466
0.0129466
0.0129494
0.0129782
0.0129721
0.0129721
0.0129782
0.0126963
0.0126926
0.0126926
0.0126963
0.0122952
0.01229
0.01229
0.0122952
0.0117245
0.0117196
0.0117196
0.0117245
0.0283082
0.0283084
0.0283084
0.0283082
0.028885
0.0288827
0.0288827
0.028885
0.0113058
0.0113131
0.0113131
0.0113058
0.0245893
0.0245886
0.0245886
0.0245893
0.0249536
0.0249523
0.0249523
0.0249536
0.0209936
0.0210002
0.0210002
0.0209936
0.0210675
0.0210734
0.0210734
0.0210675
0.0173135
0.0173131
0.0173131
0.0173135
0.017075
0.0170801
0.0170801
0.017075
0.0139751
0.0139856
0.0139856
0.0139751
0.0130469
0.0130518
0.0130518
0.0130469
0.0102776
0.0102735
0.0102735
0.0102776
-0.00239795
-0.00239782
-0.00239782
-0.00239795
-0.00213024
-0.00212941
-0.00212941
-0.00213024
-0.00208461
-0.00208626
-0.00208626
-0.00208461
-0.00187844
-0.00187647
-0.00187647
-0.00187844
-0.00237068
-0.00237429
-0.00237429
-0.00237068
0.0275787
0.0275908
0.0275908
0.0275787
0.0256407
0.025658
0.025658
0.0256407
0.0234214
0.0234321
0.0234321
0.0234214
0.021225
0.021226
0.021226
0.021225
0.0190605
0.0190515
0.0190515
0.0190605
0.0171199
0.0171118
0.0171118
0.0171199
0.0152662
0.0152579
0.0152579
0.0152662
0.0136235
0.013619
0.013619
0.0136235
0.0121716
0.0121671
0.0121671
0.0121716
0.0109725
0.0109685
0.0109685
0.0109725
0.00996939
0.00996482
0.00996482
0.00996939
0.0106683
0.010664
0.010664
0.0106683
0.0112181
0.0112139
0.0112139
0.0112181
0.0116112
0.011608
0.011608
0.0116112
0.0118738
0.0118718
0.0118718
0.0118738
0.0119822
0.0119807
0.0119807
0.0119822
0.0119253
0.011924
0.011924
0.0119253
0.0116929
0.011693
0.011693
0.0116929
0.0112284
0.0112309
0.0112309
0.0112284
0.0106154
0.0106177
0.0106177
0.0106154
0.00990764
0.00990885
0.00990885
0.00990764
0.0091144
0.00911646
0.00911646
0.0091144
0.00874883
0.00874866
0.00874866
0.00874883
0.00832161
0.00831927
0.00831927
0.00832161
0.022294
0.0222892
0.0222892
0.022294
0.0215081
0.0215209
0.0215209
0.0215081
0.0199907
0.0199916
0.0199916
0.0199907
0.0185365
0.0185396
0.0185396
0.0185365
0.0168862
0.0168783
0.0168783
0.0168862
0.0153256
0.0153191
0.0153191
0.0153256
0.0137841
0.0137765
0.0137765
0.0137841
0.0123931
0.0123887
0.0123887
0.0123931
0.011104
0.0110991
0.0110991
0.011104
0.0100177
0.0100138
0.0100138
0.0100177
0.00909246
0.00908874
0.00908874
0.00909246
0.00831608
0.00831434
0.00831434
0.00831608
0.00913333
0.00913156
0.00913156
0.00913333
0.00979117
0.00978974
0.00978974
0.00979117
0.0103269
0.0103252
0.0103252
0.0103269
0.0107334
0.0107318
0.0107318
0.0107334
0.0109777
0.0109765
0.0109765
0.0109777
0.0110883
0.0110875
0.0110875
0.0110883
0.011037
0.0110369
0.0110369
0.011037
0.010801
0.0108021
0.0108021
0.010801
0.0103938
0.0103942
0.0103942
0.0103938
0.00985672
0.00985727
0.00985727
0.00985672
0.00920378
0.00920382
0.00920382
0.00920378
0.00845191
0.00844937
0.00844937
0.00845191
0.00774842
0.00773609
0.00773609
0.00774842
-0.00147245
-0.00147265
-0.00147265
-0.00147245
-0.0014839
-0.00148388
-0.00148388
-0.0014839
-0.00153578
-0.00153585
-0.00153585
-0.00153578
-0.00163262
-0.00163288
-0.00163288
-0.00163262
-0.00177623
-0.00177672
-0.00177672
-0.00177623
-0.00196952
-0.00197015
-0.00197014
-0.00196952
-0.00221825
-0.00221902
-0.00221902
-0.00221825
-0.00253579
-0.00253672
-0.00253672
-0.00253579
-0.00294476
-0.00294586
-0.00294586
-0.00294476
-0.00347707
-0.00347821
-0.00347821
-0.00347707
-0.00415539
-0.00415678
-0.00415678
-0.00415539
-0.00495482
-0.00495677
-0.00495677
-0.00495482
-0.00574959
-0.0057515
-0.0057515
-0.00574959
-0.00611935
-0.00612044
-0.00612044
-0.00611935
-0.00622118
-0.00622243
-0.00622243
-0.00622118
-0.00604873
-0.00604935
-0.00604935
-0.00604873
-0.00572043
-0.00572087
-0.00572087
-0.00572043
-0.00528697
-0.00528719
-0.00528719
-0.00528697
-0.00483922
-0.00483936
-0.00483936
-0.00483922
-0.00440522
-0.00440522
-0.00440522
-0.00440522
-0.00402487
-0.00402493
-0.00402493
-0.00402487
-0.0037125
-0.00371226
-0.00371226
-0.0037125
-0.00349288
-0.003493
-0.003493
-0.00349288
0.00736862
0.00735762
0.00735762
0.00736862
0.00762268
0.00762159
0.00762159
0.00762268
0.00812279
0.00812615
0.00812615
0.00812279
0.00869465
0.0086989
0.0086989
0.00869465
0.00935639
0.0093606
0.0093606
0.00935639
0.0100798
0.010082
0.010082
0.0100798
0.0108409
0.0108439
0.0108439
0.0108409
0.0116082
0.0116127
0.0116127
0.0116082
0.0124252
0.0124317
0.0124317
0.0124252
0.0132523
0.0132581
0.0132581
0.0132523
0.0138875
0.0138893
0.0138893
0.0138875
0.0144118
0.0144159
0.0144159
0.0144118
0.0149446
0.0149493
0.0149493
0.0149446
0.0152649
0.0152659
0.0152659
0.0152649
0.0152921
0.0152915
0.0152915
0.0152921
0.015179
0.0151777
0.0151777
0.015179
0.0148604
0.0148561
0.0148561
0.0148604
0.0142556
0.0142514
0.0142514
0.0142556
0.0133833
0.0133832
0.0133832
0.0133833
0.0121441
0.0121516
0.0121516
0.0121441
0.0107115
0.0107347
0.0107347
0.0107115
0.0086777
0.0086817
0.0086817
0.0086777
0.00885165
0.00885082
0.00885082
0.00885165
0.00727369
0.00729175
0.00729175
0.00727369
-0.0024662
-0.00247817
-0.00247817
-0.0024662
-0.000912483
-0.000893115
-0.000893115
-0.000912483
-0.00209998
-0.00210524
-0.00210524
-0.00209998
-0.00214282
-0.0021412
-0.0021412
-0.00214282
-0.00191512
-0.0019123
-0.0019123
-0.00191512
-0.00178288
-0.00178229
-0.00178229
-0.00178288
-0.00161183
-0.00161123
-0.00161123
-0.00161183
-0.00144367
-0.00144302
-0.00144302
-0.00144367
-0.00131907
-0.00131852
-0.00131852
-0.00131907
-0.00122481
-0.00122374
-0.00122374
-0.00122481
-0.00117863
-0.00117727
-0.00117727
-0.00117863
-0.00118452
-0.00118305
-0.00118305
-0.00118452
-0.00124184
-0.00124038
-0.00124038
-0.00124184
-0.00134738
-0.00134614
-0.00134614
-0.00134738
-0.0014864
-0.00148561
-0.00148562
-0.0014864
0.0235952
0.0236146
0.0236146
0.0235952
0.0219215
0.0219566
0.0219566
0.0219215
-0.00335181
-0.00335101
-0.00335101
-0.00335181
-0.00335717
-0.0033577
-0.0033577
-0.00335717
-0.00335061
-0.00334922
-0.00334922
-0.00335061
-0.00363885
-0.00363951
-0.00363951
-0.00363885
-0.00626004
-0.00626313
-0.00626313
-0.00626004
-0.0066625
-0.00666383
-0.00666383
-0.00666251
-0.00675663
-0.0067582
-0.0067582
-0.00675663
-0.00654216
-0.00654307
-0.00654307
-0.00654216
-0.00615612
-0.00615693
-0.00615694
-0.00615612
-0.00564936
-0.00564995
-0.00564995
-0.00564936
-0.00511703
-0.00511768
-0.00511768
-0.00511703
-0.00460328
-0.00460372
-0.00460372
-0.00460328
-0.00415446
-0.00415508
-0.00415508
-0.00415446
-0.00376793
-0.00376757
-0.00376757
-0.00376793
-0.00348729
-0.00348715
-0.00348715
-0.00348729
-0.00327466
-0.00327309
-0.00327309
-0.00327466
-0.00324824
-0.00324809
-0.00324809
-0.00324824
-0.00316563
-0.00316193
-0.00316193
-0.00316563
-0.00365479
-0.00365557
-0.00365557
-0.00365479
-0.00342149
-0.00341558
-0.00341558
-0.00342149
-0.00163098
-0.00163065
-0.00163065
-0.00163098
-0.00152185
-0.00152186
-0.00152186
-0.00152185
-0.00145205
-0.00145191
-0.00145191
-0.00145205
-0.00143908
-0.00143921
-0.00143921
-0.00143908
-0.00148412
-0.00148451
-0.00148451
-0.00148412
-0.00158249
-0.00158311
-0.00158311
-0.00158249
-0.00173148
-0.00173222
-0.00173222
-0.00173148
-0.00193228
-0.00193306
-0.00193306
-0.00193228
-0.00219367
-0.00219451
-0.00219451
-0.00219367
-0.0025352
-0.00253609
-0.00253609
-0.0025352
-0.00298835
-0.00298912
-0.00298912
-0.00298835
-0.00358267
-0.00358325
-0.00358325
-0.00358267
-0.00429982
-0.00430064
-0.00430064
-0.00429982
-0.00500776
-0.00500856
-0.00500856
-0.00500776
-0.00545941
-0.00546036
-0.00546036
-0.00545941
0.00653725
0.00652796
0.00652796
0.00653725
0.00671111
0.00670122
0.00670122
0.00671111
0.00703515
0.00703439
0.00703439
0.00703515
0.007535
0.00753896
0.00753896
0.007535
0.00814929
0.0081532
0.0081532
0.00814929
0.00881192
0.00881445
0.00881445
0.00881192
0.0094977
0.00950002
0.00950002
0.0094977
0.0101893
0.0101925
0.0101925
0.0101893
0.0108751
0.0108794
0.0108794
0.0108751
0.0115855
0.0115898
0.0115898
0.0115855
0.012189
0.0121914
0.0121914
0.012189
0.0126526
0.0126555
0.0126555
0.0126526
0.0130754
0.0130795
0.0130795
0.0130754
0.0133282
0.0133306
0.0133306
0.0133282
0.0133454
0.0133452
0.0133452
0.0133454
0.0132199
0.0132195
0.0132195
0.0132199
0.0128073
0.0128058
0.0128058
0.0128073
0.0121587
0.0121603
0.0121603
0.0121587
0.0112451
0.0112535
0.0112535
0.0112451
0.0101778
0.0101917
0.0101917
0.0101778
0.00887488
0.00888419
0.00888419
0.00887488
0.00672251
0.00671611
0.00671611
0.00672251
0.00471676
0.00473014
0.00473014
0.00471676
0.00086028
0.000843095
0.000843095
0.000860281
-0.0020255
-0.00204711
-0.00204711
-0.0020255
-0.0018863
-0.00187899
-0.00187899
-0.0018863
-0.00201206
-0.00202228
-0.00202228
-0.00201206
-0.00182141
-0.00181989
-0.00181989
-0.00182141
-0.00168149
-0.00168301
-0.00168301
-0.00168149
-0.00160574
-0.00160827
-0.00160827
-0.00160574
-0.00146173
-0.00146354
-0.00146354
-0.00146173
-0.0012734
-0.00127399
-0.00127399
-0.0012734
-0.00113359
-0.00113454
-0.00113454
-0.00113359
-0.00104447
-0.00104557
-0.00104557
-0.00104447
-0.00102033
-0.00102197
-0.00102197
-0.00102033
-0.00106032
-0.00106233
-0.00106233
-0.00106032
-0.00116399
-0.00116616
-0.00116616
-0.00116399
-0.00132638
-0.0013285
-0.0013285
-0.00132638
-0.00153636
-0.00153828
-0.00153828
-0.00153636
-0.00176728
-0.00176909
-0.00176909
-0.00176728
0.00893969
0.0089165
0.0089165
0.00893969
0.00620958
0.00617922
0.00617922
0.00620958
0.0134126
0.0134146
0.0134146
0.0134126
0.0162743
0.0162734
0.0162734
0.0162743
0.0173951
0.0173961
0.0173961
0.0173951
0.017327
0.0173309
0.0173309
0.017327
0.0165184
0.016516
0.016516
0.0165184
0.0155432
0.0155417
0.0155417
0.0155432
0.0143771
0.0143704
0.0143704
0.0143771
0.0131876
0.0131818
0.0131818
0.0131876
0.01198
0.0119728
0.0119728
0.01198
0.0108442
0.0108393
0.0108393
0.0108442
0.00977404
0.00976875
0.00976875
0.00977404
0.00884589
0.0088418
0.0088418
0.00884589
0.00802347
0.00802027
0.00802027
0.00802347
0.00732998
0.0073286
0.0073286
0.00732998
0.00674749
0.00674719
0.00674719
0.00674749
0.00765332
0.00765334
0.00765334
0.00765332
0.00844021
0.00844013
0.00844013
0.00844021
0.00909037
0.00909015
0.00909015
0.00909037
0.00962261
0.00962198
0.00962198
0.00962261
0.0100096
0.0100092
0.0100092
0.0100096
0.0102552
0.0102546
0.0102546
0.0102552
0.0103589
0.0103587
0.0103587
0.0103589
0.010309
0.0103091
0.0103091
0.010309
0.010091
0.0100911
0.0100911
0.010091
0.0097363
0.00973573
0.00973573
0.0097363
0.00925399
0.00925226
0.00925226
0.00925399
0.00864416
0.00863923
0.00863923
0.00864416
0.00794416
0.00793226
0.00793226
0.00794416
0.00721176
0.0071999
0.0071999
0.00721176
0.00626472
0.00626054
0.00626054
0.00626472
0.00518874
0.00518278
0.00518278
0.00518874
0.0054574
0.00544684
0.00544684
0.0054574
0.00569472
0.00568334
0.00568334
0.00569472
0.00595814
0.00595383
0.00595383
0.00595814
0.00637073
0.00637428
0.00637428
0.00637073
0.00689847
0.006903
0.006903
0.00689847
0.00747317
0.00747592
0.00747592
0.00747317
0.00806396
0.00806581
0.00806581
0.00806396
0.00865431
0.00865651
0.00865651
0.00865431
0.00923434
0.00923721
0.00923721
0.00923434
0.00981551
0.00981889
0.00981889
0.00981551
0.0103356
0.0103381
0.0103381
0.0103356
0.0107402
0.0107427
0.0107427
0.0107402
0.0110765
0.0110801
0.0110801
0.0110765
0.01128
0.0112823
0.0112823
0.01128
0.0112833
0.0112846
0.0112846
0.0112833
0.0111256
0.0111279
0.0111279
0.0111256
0.0107106
0.0107134
0.0107134
0.0107106
0.0100972
0.0101034
0.0101034
0.0100972
0.00929746
0.00930876
0.00930876
0.00929746
0.00833729
0.00834853
0.00834853
0.00833729
0.00708837
0.00709804
0.00709804
0.00708837
0.00529382
0.00529963
0.00529963
0.00529382
0.00373449
0.00375386
0.00375386
0.00373449
0.00218323
0.00220579
0.00220579
0.00218323
0.000526302
0.000530431
0.000530431
0.000526302
-0.000319132
-0.000302113
-0.000302113
-0.000319131
-0.000911011
-0.00090185
-0.00090185
-0.000911011
-0.00120468
-0.00120027
-0.00120027
-0.00120468
-0.0013042
-0.00130352
-0.00130352
-0.0013042
-0.00126973
-0.00126851
-0.00126851
-0.00126973
-0.00117375
-0.00117249
-0.00117249
-0.00117375
-0.00104343
-0.00104166
-0.00104166
-0.00104343
-0.000907129
-0.000904527
-0.000904527
-0.000907129
-0.000784802
-0.000781033
-0.000781033
-0.000784802
-0.000729595
-0.000725129
-0.000725129
-0.000729595
-0.000773827
-0.000769056
-0.000769056
-0.000773827
-0.000922112
-0.000917405
-0.000917405
-0.000922112
-0.00116032
-0.0011561
-0.0011561
-0.00116032
-0.00145919
-0.00145567
-0.00145567
-0.00145919
-0.00178214
-0.00177975
-0.00177975
-0.00178214
-0.00203302
-0.00203097
-0.00203097
-0.00203302
-0.00194873
-0.00194994
-0.00194994
-0.00194873
-0.00173258
-0.00173239
-0.00173239
-0.00173258
-0.00152862
-0.00152886
-0.00152886
-0.00152862
-0.00137442
-0.00137472
-0.00137472
-0.00137442
-0.00129433
-0.00129502
-0.00129502
-0.00129433
-0.00128649
-0.00128726
-0.00128726
-0.00128649
-0.00133801
-0.00133879
-0.00133879
-0.00133801
-0.00143857
-0.0014394
-0.0014394
-0.00143857
-0.00158388
-0.00158468
-0.00158468
-0.00158388
-0.00177699
-0.0017777
-0.0017777
-0.00177699
-0.00203165
-0.00203226
-0.00203226
-0.00203165
-0.00237531
-0.00237568
-0.00237568
-0.00237531
-0.00284244
-0.0028423
-0.0028423
-0.00284244
-0.00342875
-0.00342897
-0.00342897
-0.00342875
-0.00403476
-0.00403547
-0.00403547
-0.00403477
-0.00442298
-0.00442474
-0.00442474
-0.00442298
-0.00440209
-0.00440523
-0.00440523
-0.00440209
-0.00546111
-0.0054624
-0.0054624
-0.00546111
-0.00630769
-0.00631167
-0.00631166
-0.00630769
-0.0067428
-0.00674426
-0.00674426
-0.0067428
-0.00686819
-0.00687043
-0.00687043
-0.0068682
-0.00667126
-0.00667221
-0.00667221
-0.00667126
-0.00628695
-0.00628764
-0.00628764
-0.00628695
-0.00577002
-0.00577003
-0.00577003
-0.00577002
-0.00521101
-0.00521062
-0.00521062
-0.00521101
-0.00466012
-0.00465912
-0.00465912
-0.00466012
-0.00416664
-0.00416555
-0.00416555
-0.00416664
-0.00373433
-0.00373284
-0.00373284
-0.00373433
-0.00340023
-0.00339879
-0.00339879
-0.00340023
-0.00317922
-0.00317732
-0.00317732
-0.00317922
-0.00313405
-0.00313363
-0.00313363
-0.00313405
-0.0032387
-0.0032378
-0.0032378
-0.00323871
-0.00382563
-0.00382913
-0.00382913
-0.00382563
-0.00410947
-0.00410756
-0.00410756
-0.00410947
-0.00517869