/*--------------------------------*- C++ -*----------------------------------*\
| =========                 |                                                 |
| \\      /  F ield         | OpenFOAM: The Open Source CFD Toolbox           |
|  \\    /   O peration     | Version:  v1806                                 |
|   \\  /    A nd           | Web:      www.OpenFOAM.com                      |
|    \\/     M anipulation  |                                                 |
\*---------------------------------------------------------------------------*/
FoamFile
{
    version     2.0;
    format      ascii;
    class       volVectorField;
    location    "210";
    object      U;
}
// * * * * * * * * * * * * * * * * * * * * * * * * * * * * * * * * * * * * * //

dimensions      [0 1 -1 0 0 0 0];


internalField   nonuniform List<vector> 
5208
(
(0.173476 0.0636487 -0.00144472)
(0.173492 0.0636673 1.16458e-07)
(0.173492 0.0636673 -1.16457e-07)
(0.173476 0.0636487 0.00144472)
(0.185065 0.06539 -0.00135618)
(0.185091 0.0653999 1.72787e-07)
(0.185091 0.0653999 -1.72786e-07)
(0.185065 0.06539 0.00135618)
(-0.0218842 -0.00885279 0.000100819)
(-0.0218777 -0.00884695 -2.73588e-08)
(-0.0218777 -0.00884695 2.73607e-08)
(-0.0218842 -0.00885279 -0.000100819)
(-0.0220499 -0.00625171 9.83639e-05)
(-0.0220446 -0.00625438 2.2676e-08)
(-0.0220446 -0.00625438 -2.26807e-08)
(-0.0220499 -0.00625171 -9.83639e-05)
(-0.0265838 -0.00524879 0.000100759)
(-0.0265843 -0.00524738 -1.98004e-08)
(-0.0265843 -0.00524738 1.9796e-08)
(-0.0265838 -0.00524879 -0.000100759)
(-0.026873 -0.00874244 0.000109284)
(-0.0268675 -0.0087455 -2.33853e-08)
(-0.0268675 -0.0087455 2.33829e-08)
(-0.026873 -0.00874244 -0.000109284)
(0.212875 0.0630645 -0.00113673)
(0.212881 0.0630689 6.00282e-08)
(0.212881 0.0630689 -6.00275e-08)
(0.212875 0.0630645 0.00113673)
(0.205711 0.0600079 -0.00121086)
(0.205734 0.0600252 -2.49807e-08)
(0.205734 0.0600252 2.49806e-08)
(0.205711 0.0600079 0.00121086)
(0.199574 0.0674771 -0.00126072)
(0.199625 0.0674721 1.60603e-07)
(0.199625 0.0674721 -1.60601e-07)
(0.199574 0.0674771 0.00126072)
(-0.00951074 0.0105394 0.000124046)
(-0.00951254 0.0105133 1.38949e-07)
(-0.00951254 0.0105133 -1.38974e-07)
(-0.00951074 0.0105394 -0.000124046)
(-0.0165338 0.016525 7.07684e-05)
(-0.0165429 0.0165386 -1.09293e-07)
(-0.0165429 0.0165386 1.09355e-07)
(-0.0165338 0.016525 -7.07684e-05)
(-0.0139794 -0.0242023 0.000134967)
(-0.0139739 -0.0242043 2.42429e-08)
(-0.0139739 -0.0242043 -2.42313e-08)
(-0.0139794 -0.0242023 -0.000134967)
(-0.0127537 -0.0179734 0.000132173)
(-0.0127388 -0.0179699 -6.00719e-08)
(-0.0127388 -0.0179699 6.00816e-08)
(-0.0127537 -0.0179734 -0.000132173)
(-0.0134747 -0.020704 0.000132411)
(-0.0134778 -0.0206972 3.01737e-09)
(-0.0134778 -0.0206972 -3.00641e-09)
(-0.0134747 -0.020704 -0.000132411)
(0.27436 -0.167167 6.09047e-06)
(0.274398 -0.167225 4.29553e-07)
(0.274398 -0.167225 -4.29554e-07)
(0.27436 -0.167167 -6.09047e-06)
(0.24299 -0.163046 2.82944e-05)
(0.243061 -0.16305 8.402e-08)
(0.243061 -0.16305 -8.40181e-08)
(0.24299 -0.163046 -2.82944e-05)
(0.265157 -0.152702 0.000224177)
(0.265151 -0.152752 7.61182e-08)
(0.265151 -0.152752 -7.61131e-08)
(0.265157 -0.152702 -0.000224177)
(0.234771 0.0351845 -0.000996583)
(0.234738 0.0351677 -3.06618e-07)
(0.234738 0.0351677 3.06619e-07)
(0.234771 0.0351845 0.000996583)
(0.23485 0.0461636 -0.000969885)
(0.234831 0.0461852 -1.81181e-07)
(0.234831 0.0461852 1.81182e-07)
(0.23485 0.0461636 0.000969885)
(0.136297 -0.198828 -0.000868158)
(0.13639 -0.198838 2.59342e-07)
(0.13639 -0.198838 -2.59344e-07)
(0.136297 -0.198828 0.000868158)
(0.192356 -0.108531 -0.0012782)
(0.192317 -0.108541 -4.87437e-08)
(0.192317 -0.108541 4.8748e-08)
(0.192356 -0.108531 0.0012782)
(0.142015 0.124505 -0.000152055)
(0.141967 0.124519 -5.451e-07)
(0.141967 0.124519 5.45094e-07)
(0.142015 0.124505 0.000152055)
(0.20831 0.180239 -0.000179832)
(0.208245 0.180295 1.69093e-09)
(0.208245 0.180295 -1.69513e-09)
(0.20831 0.180239 0.000179832)
(-0.029967 -0.00387112 0.000104074)
(-0.0299609 -0.0038724 -3.89221e-09)
(-0.0299609 -0.0038724 3.88594e-09)
(-0.029967 -0.00387112 -0.000104074)
(-0.0310768 -0.00709226 0.000114879)
(-0.0310691 -0.00709437 -1.02271e-08)
(-0.0310691 -0.00709437 1.02297e-08)
(-0.0310768 -0.00709226 -0.000114879)
(-0.0286635 -0.00100502 9.45118e-05)
(-0.0286582 -0.00100534 -9.82846e-09)
(-0.0286582 -0.00100534 9.81774e-09)
(-0.0286635 -0.00100502 -9.45118e-05)
(-0.0274832 0.00159839 8.63716e-05)
(-0.0274811 0.00159869 -3.53349e-09)
(-0.0274811 0.00159869 3.52735e-09)
(-0.0274832 0.00159839 -8.63716e-05)
(-0.0298769 0.00275722 8.61377e-05)
(-0.0298751 0.00275695 -4.52835e-09)
(-0.0298751 0.00275695 4.51992e-09)
(-0.0298769 0.00275722 -8.61377e-05)
(-0.0314159 0.0004596 9.5295e-05)
(-0.0314132 0.00045877 -5.59647e-09)
(-0.0314132 0.00045877 5.58862e-09)
(-0.0314159 0.0004596 -9.5295e-05)
(-0.0329821 -0.002048 0.000105931)
(-0.0329807 -0.00205032 -2.424e-09)
(-0.0329807 -0.00205032 2.41914e-09)
(-0.0329821 -0.002048 -0.000105931)
(-0.0344977 -0.00483567 0.000118352)
(-0.0344965 -0.00483763 2.61826e-09)
(-0.0344965 -0.00483763 -2.60428e-09)
(-0.0344977 -0.00483567 -0.000118352)
(-0.0256132 -0.0019857 9.24173e-05)
(-0.0256095 -0.00198255 -2.06304e-08)
(-0.0256095 -0.00198255 2.0622e-08)
(-0.0256132 -0.0019857 -9.24173e-05)
(-0.0249396 0.000944896 8.56447e-05)
(-0.0249393 0.000946133 -4.35664e-09)
(-0.0249393 0.000946133 4.35034e-09)
(-0.0249396 0.000944896 -8.56447e-05)
(0.2421 0.0380763 -0.000914202)
(0.242036 0.0380905 -3.64259e-07)
(0.242036 0.0380905 3.64259e-07)
(0.2421 0.0380763 0.000914202)
(0.246692 0.031756 -0.000881752)
(0.246649 0.0317628 -2.4925e-07)
(0.246649 0.0317628 2.49252e-07)
(0.246692 0.031756 0.000881752)
(0.249017 0.0382882 -0.00084511)
(0.248967 0.0383124 -1.55789e-07)
(0.248967 0.0383124 1.5579e-07)
(0.249017 0.0382882 0.00084511)
(0.252918 0.0282467 -0.000829733)
(0.252885 0.028261 -1.50676e-07)
(0.252885 0.028261 1.50677e-07)
(0.252918 0.0282467 0.000829733)
(0.239482 0.0292362 -0.000963136)
(0.239436 0.029239 -2.3401e-07)
(0.239436 0.029239 2.34011e-07)
(0.239482 0.0292362 0.000963136)
(0.248804 0.0213255 -0.00088001)
(0.24877 0.0213315 -1.79029e-07)
(0.24877 0.0213315 1.7903e-07)
(0.248804 0.0213255 0.00088001)
(0.256714 0.0196688 -0.000804713)
(0.256683 0.0196624 -1.1836e-07)
(0.256683 0.0196624 1.18361e-07)
(0.256714 0.0196688 0.000804713)
(0.259153 0.0262964 -0.000766842)
(0.259131 0.0262964 -8.80611e-08)
(0.259131 0.0262964 8.80617e-08)
(0.259153 0.0262964 0.000766842)
(0.255161 0.0346994 -0.00078905)
(0.255133 0.0346949 -8.1127e-08)
(0.255133 0.0346949 8.11275e-08)
(0.255161 0.0346994 0.00078905)
(0.263928 0.0159354 -0.00073215)
(0.263913 0.0159356 -1.56754e-09)
(0.263913 0.0159356 1.56841e-09)
(0.263928 0.0159354 0.00073215)
(0.265824 0.0225445 -0.000699582)
(0.265811 0.0225338 -1.81044e-08)
(0.265811 0.0225338 1.81049e-08)
(0.265824 0.0225445 0.000699582)
(0.226069 0.0405162 -0.00107681)
(0.226094 0.0404903 -8.29037e-09)
(0.226094 0.0404903 8.29153e-09)
(0.226069 0.0405162 0.00107681)
(0.216709 0.048774 -0.0011355)
(0.216735 0.0487712 1.14412e-07)
(0.216735 0.0487712 -1.14411e-07)
(0.216709 0.048774 0.0011355)
(0.209565 0.044894 -0.00121254)
(0.20957 0.0449127 -3.22327e-08)
(0.20957 0.0449127 3.22317e-08)
(0.209565 0.044894 0.00121254)
(0.222318 0.0297418 -0.00112477)
(0.222316 0.0297608 -1.03243e-07)
(0.222316 0.0297608 1.03243e-07)
(0.222318 0.0297418 0.00112477)
(0.233292 0.0251262 -0.00103355)
(0.233261 0.0250946 -2.64376e-07)
(0.233261 0.0250946 2.64378e-07)
(0.233292 0.0251262 0.00103355)
(0.244134 0.0153058 -0.000937156)
(0.24409 0.0153051 -2.39474e-07)
(0.24409 0.0153051 2.39476e-07)
(0.244134 0.0153058 0.000937156)
(0.253503 0.0132589 -0.000844828)
(0.253475 0.0132435 -1.10381e-07)
(0.253475 0.0132435 1.10382e-07)
(0.253503 0.0132589 0.000844828)
(0.26188 0.00973978 -0.000762173)
(0.261869 0.00975421 1.52939e-09)
(0.261869 0.00975421 -1.52853e-09)
(0.26188 0.00973978 0.000762173)
(0.227597 0.0512613 -0.00103489)
(0.227617 0.0512537 -1.19352e-08)
(0.227617 0.0512537 1.19374e-08)
(0.227597 0.0512613 0.00103489)
(0.220287 0.0598241 -0.00109055)
(0.220322 0.0597929 1.0268e-07)
(0.220322 0.0597929 -1.02678e-07)
(0.220287 0.0598241 0.00109055)
(0.200269 0.0382141 -0.00131014)
(0.200304 0.0381992 8.91296e-08)
(0.200304 0.0381992 -8.91287e-08)
(0.200269 0.0382141 0.00131014)
(0.192518 0.0512364 -0.00134687)
(0.192545 0.0512594 1.05094e-07)
(0.192545 0.0512594 -1.05093e-07)
(0.192518 0.0512364 0.00134687)
(-0.0356442 -0.00811592 0.000133166)
(-0.0356444 -0.00811664 3.26929e-09)
(-0.0356444 -0.00811664 -3.24544e-09)
(-0.0356442 -0.00811592 -0.000133166)
(-0.0320661 -0.010655 0.000127498)
(-0.032061 -0.0106568 -1.40968e-09)
(-0.032061 -0.0106568 1.42179e-09)
(-0.0320661 -0.010655 -0.000127498)
(-0.0277913 -0.0127884 0.000120687)
(-0.0277888 -0.0127916 -9.08851e-09)
(-0.0277888 -0.0127916 9.09324e-09)
(-0.0277913 -0.0127884 -0.000120687)
(-0.0231896 -0.0149186 0.000114855)
(-0.0231864 -0.014919 1.03216e-09)
(-0.0231864 -0.014919 -1.02728e-09)
(-0.0231896 -0.0149186 -0.000114855)
(-0.0321269 0.00429139 8.53065e-05)
(-0.0321241 0.00429123 -4.03664e-09)
(-0.0321241 0.00429123 4.02726e-09)
(-0.0321269 0.00429139 -8.53065e-05)
(-0.03379 0.00223533 9.50306e-05)
(-0.0337871 0.00223547 -3.93393e-09)
(-0.0337871 0.00223547 3.92779e-09)
(-0.03379 0.00223533 -9.50306e-05)
(-0.0355299 0.000105537 0.000106558)
(-0.035528 0.00010599 -3.5231e-09)
(-0.035528 0.00010599 3.53112e-09)
(-0.0355299 0.000105537 -0.000106558)
(-0.0372794 -0.00217472 0.000120104)
(-0.0372796 -0.00217456 -4.42457e-09)
(-0.0372796 -0.00217456 4.45597e-09)
(-0.0372794 -0.00217472 -0.000120104)
(-0.0387475 -0.0047851 0.000136605)
(-0.0387489 -0.00478547 -3.52118e-09)
(-0.0387489 -0.00478547 3.54534e-09)
(-0.0387475 -0.0047851 -0.000136605)
(-0.0240915 0.00337294 7.90853e-05)
(-0.0240879 0.00337419 -1.68023e-08)
(-0.0240879 0.00337419 1.67985e-08)
(-0.0240915 0.00337294 -7.90853e-05)
(-0.0262513 0.00385307 7.89834e-05)
(-0.0262476 0.00385352 -7.84632e-09)
(-0.0262476 0.00385352 7.83934e-09)
(-0.0262513 0.00385307 -7.89834e-05)
(-0.0283188 0.00489027 7.80322e-05)
(-0.0283165 0.00489037 -6.42864e-09)
(-0.0283165 0.00489037 6.42006e-09)
(-0.0283188 0.00489027 -7.80322e-05)
(-0.0304213 0.00631491 7.6788e-05)
(-0.0304185 0.0063148 -4.30783e-09)
(-0.0304185 0.0063148 4.29927e-09)
(-0.0304213 0.00631491 -7.6788e-05)
(-0.0221908 -0.00263773 9.01106e-05)
(-0.0221863 -0.00263958 -1.80461e-08)
(-0.0221863 -0.00263958 1.80422e-08)
(-0.0221908 -0.00263773 -9.01106e-05)
(-0.0220688 0.000540881 8.49638e-05)
(-0.0220699 0.000541035 4.6265e-09)
(-0.0220699 0.000541035 -4.63034e-09)
(-0.0220688 0.000540881 -8.49638e-05)
(0.242322 0.0425406 -0.000905539)
(0.242267 0.0425798 -3.10766e-07)
(0.242267 0.0425798 3.10766e-07)
(0.242322 0.0425406 0.000905539)
(0.249122 0.0458624 -0.00082578)
(0.249066 0.0458722 -1.79231e-07)
(0.249066 0.0458722 1.79232e-07)
(0.249122 0.0458624 0.00082578)
(-0.0217932 0.00348755 7.9065e-05)
(-0.0217887 0.00348985 -2.00178e-08)
(-0.0217887 0.00348985 2.00163e-08)
(-0.0217932 0.00348755 -7.9065e-05)
(0.261256 0.0322288 -0.000724924)
(0.261241 0.0322088 -1.38827e-09)
(0.261241 0.0322088 1.38863e-09)
(0.261256 0.0322288 0.000724924)
(0.267732 0.0281108 -0.00066323)
(0.267721 0.0280867 -1.91514e-08)
(0.267721 0.0280867 1.91517e-08)
(0.267732 0.0281108 0.00066323)
(0.256125 0.0431385 -0.000756744)
(0.256105 0.0430955 -1.14941e-07)
(0.256105 0.0430955 1.14942e-07)
(0.256125 0.0431385 0.000756744)
(0.268745 0.00839277 -0.000688673)
(0.268757 0.00839985 1.43132e-07)
(0.268757 0.00839985 -1.43132e-07)
(0.268745 0.00839277 0.000688673)
(0.270201 0.0145448 -0.000666144)
(0.270213 0.0145402 1.48688e-07)
(0.270213 0.0145402 -1.48688e-07)
(0.270201 0.0145448 0.000666144)
(0.271701 0.0206299 -0.000636358)
(0.271706 0.02062 8.29601e-08)
(0.271706 0.02062 -8.29598e-08)
(0.271701 0.0206299 0.000636358)
(0.273856 0.0245711 -0.000596655)
(0.273861 0.0245414 1.14995e-07)
(0.273861 0.0245414 -1.14995e-07)
(0.273856 0.0245711 0.000596655)
(0.23997 0.0530868 -0.000899911)
(0.239937 0.0530929 -1.65723e-07)
(0.239937 0.0530929 1.65724e-07)
(0.23997 0.0530868 0.000899911)
(0.213817 0.0220379 -0.00120808)
(0.21379 0.0220488 -2.48313e-07)
(0.21379 0.0220488 2.48314e-07)
(0.213817 0.0220379 0.00120808)
(0.22752 0.0145141 -0.00109476)
(0.227489 0.0144533 -1.46525e-07)
(0.227489 0.0144533 1.46527e-07)
(0.22752 0.0145141 0.00109476)
(0.239832 0.00798303 -0.000984964)
(0.239803 0.00798029 -1.66307e-07)
(0.239803 0.00798029 1.66308e-07)
(0.239832 0.00798303 0.000984964)
(0.250702 0.00535936 -0.000877368)
(0.250684 0.00534227 -1.52902e-08)
(0.250684 0.00534227 1.52911e-08)
(0.250702 0.00535936 0.000877368)
(0.260091 0.00321443 -0.000784363)
(0.260093 0.00323373 3.76734e-08)
(0.260093 0.00323373 -3.76725e-08)
(0.260091 0.00321443 0.000784363)
(0.233417 0.057328 -0.00094964)
(0.233397 0.0573228 -1.67442e-07)
(0.233397 0.0573228 1.67441e-07)
(0.233417 0.057328 0.00094964)
(0.224986 0.0667457 -0.00101836)
(0.225014 0.0667079 -1.14899e-08)
(0.225014 0.0667079 1.14905e-08)
(0.224986 0.0667457 0.00101836)
(0.218482 0.0744618 -0.00105518)
(0.218513 0.0744281 1.22027e-07)
(0.218513 0.0744281 -1.22028e-07)
(0.218482 0.0744618 0.00105518)
(0.212322 0.0775114 -0.00109619)
(0.212343 0.0775033 1.11589e-07)
(0.212343 0.0775033 -1.11589e-07)
(0.212322 0.0775114 0.00109619)
(0.205931 0.0849358 -0.00114151)
(0.205941 0.084924 6.1916e-08)
(0.205941 0.084924 -6.19159e-08)
(0.205931 0.0849358 0.00114151)
(0.191411 0.0792889 -0.00127269)
(0.191441 0.0792793 1.35848e-07)
(0.191441 0.0792793 -1.35847e-07)
(0.191411 0.0792889 0.00127269)
(0.178066 0.0419287 -0.0014676)
(0.178063 0.0419686 -8.5611e-09)
(0.178063 0.0419686 8.56127e-09)
(0.178066 0.0419287 0.0014676)
(0.185239 0.0793524 -0.00131382)
(0.185237 0.0793915 8.4758e-08)
(0.185237 0.0793915 -8.47575e-08)
(0.185239 0.0793524 0.00131382)
(0.198444 0.093914 -0.00116948)
(0.198469 0.0938744 5.16827e-08)
(0.198469 0.0938744 -5.16826e-08)
(0.198444 0.093914 0.00116948)
(0.191205 0.0965884 -0.0012018)
(0.191199 0.096596 1.551e-07)
(0.191199 0.096596 -1.551e-07)
(0.191205 0.0965884 0.0012018)
(0.267809 0.00231415 -0.000701621)
(0.267819 0.00232417 1.14399e-07)
(0.267819 0.00232417 -1.14399e-07)
(0.267809 0.00231415 0.000701621)
(0.175752 0.0808746 -0.00138053)
(0.175724 0.0809155 -6.0295e-08)
(0.175724 0.0809155 6.02956e-08)
(0.175752 0.0808746 0.00138053)
(0.160405 0.0625144 -0.00154291)
(0.160441 0.0625224 1.47573e-07)
(0.160441 0.0625224 -1.47573e-07)
(0.160405 0.0625144 0.00154291)
(0.162441 0.0841782 -0.00146133)
(0.16242 0.0841736 -1.73856e-07)
(0.16242 0.0841736 1.73857e-07)
(0.162441 0.0841782 0.00146133)
(-0.0183107 -0.017205 0.000109741)
(-0.0183113 -0.0172047 -1.53138e-08)
(-0.0183113 -0.0172047 1.5319e-08)
(-0.0183107 -0.017205 -0.000109741)
(-0.0169466 -0.0111487 9.80078e-05)
(-0.016951 -0.0111446 -1.92998e-08)
(-0.016951 -0.0111446 1.93017e-08)
(-0.0169466 -0.0111487 -9.80078e-05)
(0.235987 0.0671556 -0.000900963)
(0.235984 0.067097 -1.98187e-07)
(0.235984 0.067097 1.98187e-07)
(0.235987 0.0671556 0.000900963)
(0.229405 0.0743474 -0.000948188)
(0.229431 0.0742873 -4.09893e-08)
(0.229431 0.0742873 4.09893e-08)
(0.229405 0.0743474 0.000948188)
(0.223754 0.0823721 -0.000978062)
(0.223773 0.0823102 -3.67987e-08)
(0.223773 0.0823102 3.67984e-08)
(0.223754 0.0823721 0.000978062)
(0.217757 0.0883545 -0.00100838)
(0.217764 0.0883035 -8.17837e-08)
(0.217764 0.0883035 8.17832e-08)
(0.217757 0.0883545 0.00100838)
(0.210779 0.0971315 -0.00104609)
(0.210783 0.097081 -8.05656e-08)
(0.210783 0.097081 8.0565e-08)
(0.210779 0.0971315 0.00104609)
(0.205257 0.104039 -0.00107216)
(0.20526 0.103996 -6.62527e-08)
(0.20526 0.103996 6.62522e-08)
(0.205257 0.104039 0.00107216)
(0.196374 0.110582 -0.00110567)
(0.196368 0.11055 -6.90477e-08)
(0.196368 0.11055 6.90473e-08)
(0.196374 0.110582 0.00110567)
(0.24631 0.0554561 -0.000820023)
(0.24625 0.0553995 -3.10892e-07)
(0.24625 0.0553995 3.10893e-07)
(0.24631 0.0554561 0.000820023)
(0.24433 0.0611459 -0.000832504)
(0.244281 0.0611131 -4.40271e-07)
(0.244281 0.0611131 4.40271e-07)
(0.24433 0.0611459 0.000832504)
(0.189749 0.0228841 -0.00140302)
(0.189788 0.022862 9.03944e-08)
(0.189788 0.022862 -9.03938e-08)
(0.189749 0.0228841 0.00140302)
(0.204703 0.0092907 -0.00129659)
(0.20468 0.00923508 -3.21975e-07)
(0.20468 0.00923508 3.21976e-07)
(0.204703 0.0092907 0.00129659)
(0.221185 0.00206198 -0.00115142)
(0.221146 0.00202227 -9.3292e-08)
(0.221146 0.00202227 9.3293e-08)
(0.221185 0.00206198 0.00115142)
(0.236235 -0.0015249 -0.00101863)
(0.236219 -0.00154055 -1.34016e-07)
(0.236219 -0.00154055 1.34017e-07)
(0.236235 -0.0015249 0.00101863)
(0.248615 -0.00294232 -0.000896045)
(0.248602 -0.0029478 3.78711e-08)
(0.248602 -0.0029478 -3.78701e-08)
(0.248615 -0.00294232 0.000896045)
(0.259145 -0.00378164 -0.000790823)
(0.259155 -0.00377068 4.10856e-08)
(0.259155 -0.00377068 -4.10846e-08)
(0.259145 -0.00378164 0.000790823)
(-0.0389443 -0.00767068 0.000156172)
(-0.0389454 -0.00767277 -5.72954e-09)
(-0.0389454 -0.00767277 5.71452e-09)
(-0.0389443 -0.00767068 -0.000156172)
(-0.0356719 -0.0116221 0.000150382)
(-0.0356716 -0.0116224 1.86967e-09)
(-0.0356716 -0.0116224 -1.8578e-09)
(-0.0356719 -0.0116221 -0.000150382)
(-0.0320747 -0.014641 0.00014246)
(-0.0320687 -0.0146409 -6.61608e-09)
(-0.0320687 -0.0146409 6.61115e-09)
(-0.0320747 -0.014641 -0.00014246)
(-0.0279709 -0.0171467 0.000134229)
(-0.0279646 -0.0171467 -1.39378e-08)
(-0.0279646 -0.0171467 1.39356e-08)
(-0.0279709 -0.0171467 -0.000134229)
(-0.0237769 -0.0194748 0.000127201)
(-0.0237734 -0.0194728 -1.95229e-08)
(-0.0237734 -0.0194728 1.95224e-08)
(-0.0237769 -0.0194748 -0.000127201)
(-0.0196294 -0.0220021 0.00012176)
(-0.0196311 -0.0220029 -1.62033e-08)
(-0.0196311 -0.0220029 1.6204e-08)
(-0.0196294 -0.0220021 -0.00012176)
(-0.0325758 0.00786299 7.50796e-05)
(-0.0325728 0.00786227 -1.5834e-09)
(-0.0325728 0.00786227 1.5787e-09)
(-0.0325758 0.00786299 -7.50796e-05)
(-0.034207 0.00590284 8.36221e-05)
(-0.0342032 0.00590246 -1.74649e-09)
(-0.0342032 0.00590246 1.73981e-09)
(-0.034207 0.00590284 -8.36221e-05)
(-0.0358458 0.00410202 9.36305e-05)
(-0.0358416 0.00410212 -2.42208e-09)
(-0.0358416 0.00410212 2.42102e-09)
(-0.0358458 0.00410202 -9.36305e-05)
(-0.0376363 0.00243457 0.000105672)
(-0.0376319 0.00243556 -2.41242e-09)
(-0.0376319 0.00243556 2.43177e-09)
(-0.0376363 0.00243457 -0.000105672)
(-0.0395105 0.000799482 0.000119975)
(-0.0395062 0.000801005 -3.43654e-09)
(-0.0395062 0.000801005 3.47073e-09)
(-0.0395105 0.000799482 -0.000119975)
(-0.0411264 -0.000990797 0.000137666)
(-0.0411226 -0.000990834 -8.52195e-09)
(-0.0411226 -0.000990834 8.54249e-09)
(-0.0411264 -0.000990797 -0.000137666)
(-0.0415042 -0.00296193 0.000159258)
(-0.0414999 -0.00296614 -8.95564e-09)
(-0.0414999 -0.00296614 8.96201e-09)
(-0.0415042 -0.00296193 -0.000159258)
(-0.0220775 0.00540456 7.66396e-05)
(-0.0220811 0.00540701 8.60169e-09)
(-0.0220811 0.00540701 -8.60767e-09)
(-0.0220775 0.00540456 -7.66396e-05)
(-0.0234475 0.00512839 7.44756e-05)
(-0.023449 0.00513014 -2.95085e-09)
(-0.023449 0.00513014 2.94515e-09)
(-0.0234475 0.00512839 -7.44756e-05)
(-0.0249402 0.00560346 7.27451e-05)
(-0.0249392 0.005604 -3.17002e-09)
(-0.0249392 0.005604 3.16404e-09)
(-0.0249402 0.00560346 -7.27451e-05)
(-0.0265767 0.00670516 7.09275e-05)
(-0.0265753 0.00670517 -3.95841e-09)
(-0.0265753 0.00670517 3.95372e-09)
(-0.0265767 0.00670516 -7.09275e-05)
(-0.0284941 0.00828373 6.91918e-05)
(-0.028492 0.00828338 -3.11972e-09)
(-0.028492 0.00828338 3.11622e-09)
(-0.0284941 0.00828373 -6.91918e-05)
(-0.0306604 0.00998041 6.75757e-05)
(-0.0306584 0.00997953 -1.1247e-09)
(-0.0306584 0.00997953 1.1257e-09)
(-0.0306604 0.00998041 -6.75757e-05)
(-0.0187156 -0.00348875 8.51506e-05)
(-0.018715 -0.00349003 -4.64888e-08)
(-0.018715 -0.00349003 4.64874e-08)
(-0.0187156 -0.00348875 -8.51506e-05)
(-0.0187784 0.000711762 8.44414e-05)
(-0.0187842 0.000713053 6.39231e-09)
(-0.0187842 0.000713053 -6.3972e-09)
(-0.0187784 0.000711762 -8.44414e-05)
(-0.019245 0.00422995 7.87263e-05)
(-0.0192441 0.00423391 -3.61868e-08)
(-0.0192441 0.00423391 3.61834e-08)
(-0.019245 0.00422995 -7.87263e-05)
(-0.0208798 0.00635602 7.92691e-05)
(-0.020889 0.00635832 1.34113e-08)
(-0.020889 0.00635832 -1.3419e-08)
(-0.0208798 0.00635602 -7.92691e-05)
(0.162419 0.0360764 -0.00159414)
(0.162417 0.0361213 -1.58177e-07)
(0.162417 0.0361213 1.58176e-07)
(0.162419 0.0360764 0.00159414)
(0.261744 0.0435741 -0.000694496)
(0.261729 0.0435233 -1.23099e-07)
(0.261729 0.0435233 1.23099e-07)
(0.261744 0.0435741 0.000694496)
(0.255001 0.0513762 -0.000748946)
(0.254971 0.0513128 -2.25242e-07)
(0.254971 0.0513128 2.25242e-07)
(0.255001 0.0513762 0.000748946)
(0.268428 0.0349328 -0.000632969)
(0.26842 0.0349069 -6.59824e-08)
(0.26842 0.0349069 6.59824e-08)
(0.268428 0.0349328 0.000632969)
(0.274913 0.00650733 -0.000623491)
(0.274935 0.00651642 1.47129e-07)
(0.274935 0.00651642 -1.47128e-07)
(0.274913 0.00650733 0.000623491)
(0.275785 0.011692 -0.000606738)
(0.275809 0.0116968 1.72594e-07)
(0.275809 0.0116968 -1.72594e-07)
(0.275785 0.011692 0.000606738)
(0.273637 0.0328829 -0.000572927)
(0.273642 0.0328375 -2.72014e-08)
(0.273642 0.0328375 2.72013e-08)
(0.273637 0.0328829 0.000572927)
(0.27704 0.0170623 -0.000578802)
(0.277063 0.0170499 1.8121e-07)
(0.277063 0.0170499 -1.81209e-07)
(0.27704 0.0170623 0.000578802)
(0.278451 0.0232238 -0.000543591)
(0.278471 0.023198 9.25875e-08)
(0.278471 0.023198 -9.25875e-08)
(0.278451 0.0232238 0.000543591)
(0.274366 0.00111698 -0.000632037)
(0.274384 0.00112435 1.06961e-07)
(0.274384 0.00112435 -1.0696e-07)
(0.274366 0.00111698 0.000632037)
(0.176219 0.007454 -0.00152808)
(0.176236 0.00741291 -8.44007e-08)
(0.176236 0.00741291 8.43984e-08)
(0.176219 0.007454 0.00152808)
(0.138717 0.0634958 -0.00164082)
(0.13875 0.0635031 2.4918e-07)
(0.13875 0.0635031 -2.49179e-07)
(0.138717 0.0634958 0.00164082)
(0.143914 0.087784 -0.00154153)
(0.143879 0.0877443 -1.44396e-07)
(0.143879 0.0877443 1.44396e-07)
(0.143914 0.087784 0.00154153)
(0.116865 0.0709891 -0.00172295)
(0.116904 0.07104 2.89752e-07)
(0.116904 0.07104 -2.89752e-07)
(0.116865 0.0709891 0.00172295)
(0.121209 0.0925243 -0.00160665)
(0.121153 0.0925025 -2.16488e-07)
(0.121153 0.0925025 2.16488e-07)
(0.121209 0.0925243 0.00160665)
(-0.0201602 0.00742596 7.59237e-05)
(-0.020158 0.0074251 -2.01716e-08)
(-0.020158 0.0074251 2.01666e-08)
(-0.0201602 0.00742596 -7.59236e-05)
(-0.0209502 0.00636397 7.24737e-05)
(-0.0209488 0.00636664 -1.27515e-08)
(-0.0209488 0.00636664 1.27438e-08)
(-0.0209502 0.00636397 -7.24737e-05)
(-0.0218865 0.00612931 6.90566e-05)
(-0.0218854 0.00613008 -1.03997e-08)
(-0.0218854 0.00613008 1.03957e-08)
(-0.0218865 0.00612931 -6.90566e-05)
(-0.0228845 0.0068447 6.62338e-05)
(-0.0228828 0.00684497 -6.33921e-09)
(-0.0228828 0.00684497 6.33722e-09)
(-0.0228845 0.0068447 -6.62338e-05)
(-0.0241933 0.00827205 6.37505e-05)
(-0.0241918 0.00827247 -6.38831e-09)
(-0.0241918 0.00827247 6.38896e-09)
(-0.0241933 0.00827205 -6.37505e-05)
(-0.025908 0.0101544 6.19425e-05)
(-0.0259059 0.0101549 -4.90407e-09)
(-0.0259059 0.0101549 4.90776e-09)
(-0.025908 0.0101544 -6.19425e-05)
(-0.0280631 0.0122267 6.06956e-05)
(-0.0280616 0.0122269 -1.91761e-09)
(-0.0280616 0.0122269 1.92508e-09)
(-0.0280631 0.0122267 -6.06956e-05)
(-0.0306668 0.0140974 5.99632e-05)
(-0.0306663 0.0140969 -8.62841e-10)
(-0.0306663 0.0140969 8.76174e-10)
(-0.0306668 0.0140974 -5.99632e-05)
(-0.0330668 0.0115002 6.58807e-05)
(-0.0330657 0.0114981 9.03058e-10)
(-0.0330657 0.0114981 -8.97273e-10)
(-0.0330668 0.0115002 -6.58807e-05)
(-0.0347273 0.00924297 7.27186e-05)
(-0.0347251 0.00924089 2.27402e-09)
(-0.0347251 0.00924089 -2.27871e-09)
(-0.0347273 0.00924297 -7.27186e-05)
(-0.0360865 0.0073585 8.08474e-05)
(-0.0360831 0.00735702 3.13451e-09)
(-0.0360831 0.00735702 -3.14592e-09)
(-0.0360865 0.0073585 -8.08474e-05)
(-0.0374442 0.00585903 9.06331e-05)
(-0.0374401 0.00585842 3.60215e-09)
(-0.0374401 0.00585842 -3.60027e-09)
(-0.0374442 0.00585903 -9.06331e-05)
(-0.0390349 0.00470886 0.000102594)
(-0.0390304 0.00470922 3.50697e-09)
(-0.0390304 0.00470922 -3.4883e-09)
(-0.0390349 0.00470886 -0.000102594)
(-0.0408656 0.00384269 0.000117279)
(-0.0408602 0.00384331 2.3754e-09)
(-0.0408602 0.00384331 -2.35692e-09)
(-0.0408656 0.00384269 -0.000117279)
(-0.0425539 0.00309915 0.000135528)
(-0.0425479 0.00309806 1.2316e-10)
(-0.0425479 0.00309806 -9.23722e-11)
(-0.0425539 0.00309915 -0.000135528)
(-0.042936 0.00230727 0.000158154)
(-0.042931 0.0023033 2.6547e-09)
(-0.042931 0.0023033 -2.62531e-09)
(-0.042936 0.00230727 -0.000158154)
(-0.03964 0.00141624 0.000186074)
(-0.0396377 0.00141036 1.05272e-08)
(-0.0396377 0.00141036 -1.05529e-08)
(-0.03964 0.00141624 -0.000186073)
(-0.0385906 -0.00506991 0.000184873)
(-0.0385863 -0.00507726 1.42983e-10)
(-0.0385863 -0.00507726 -2.08304e-10)
(-0.0385906 -0.00506991 -0.000184873)
(-0.0362825 -0.0106451 0.000178771)
(-0.0362814 -0.0106504 -3.56338e-09)
(-0.0362814 -0.0106504 3.5465e-09)
(-0.0362825 -0.0106451 -0.000178771)
(-0.0331802 -0.015161 0.000169798)
(-0.0331786 -0.0151625 -6.87582e-10)
(-0.0331786 -0.0151625 6.98393e-10)
(-0.0331802 -0.015161 -0.000169798)
(-0.0298222 -0.0186145 0.000159313)
(-0.0298167 -0.0186164 -6.28965e-09)
(-0.0298167 -0.0186164 6.28882e-09)
(-0.0298222 -0.0186145 -0.000159313)
(-0.0261804 -0.0213292 0.000148977)
(-0.0261757 -0.0213323 -1.28406e-08)
(-0.0261757 -0.0213323 1.28333e-08)
(-0.0261804 -0.0213292 -0.000148977)
(-0.0226307 -0.0236321 0.000140021)
(-0.0226293 -0.0236364 -9.81203e-09)
(-0.0226293 -0.0236364 9.80177e-09)
(-0.0226307 -0.0236321 -0.000140021)
(-0.0194994 -0.0257332 0.000132908)
(-0.0195024 -0.025737 -9.13978e-09)
(-0.0195024 -0.025737 9.1335e-09)
(-0.0194994 -0.0257332 -0.000132908)
(-0.0167292 -0.0275863 0.000128369)
(-0.0167256 -0.0275898 4.85073e-09)
(-0.0167256 -0.0275898 -4.84741e-09)
(-0.0167292 -0.0275863 -0.000128369)
(-0.0148195 -0.0272793 0.000126683)
(-0.0148196 -0.0272725 -3.83752e-08)
(-0.0148196 -0.0272725 3.83872e-08)
(-0.0148195 -0.0272793 -0.000126683)
(0.267382 -0.00391893 -0.000703309)
(0.267387 -0.00391556 7.10112e-08)
(0.267387 -0.00391556 -7.10105e-08)
(0.267382 -0.00391893 0.000703309)
(0.131346 0.0318285 -0.0017342)
(0.131304 0.0318345 -1.83942e-07)
(0.131304 0.0318345 1.83942e-07)
(0.131346 0.0318285 0.0017342)
(0.192708 -0.00153851 -0.00136093)
(0.192675 -0.00149414 -1.61291e-08)
(0.192675 -0.00149414 1.61292e-08)
(0.192708 -0.00153851 0.00136093)
(0.218386 -0.01159 -0.00118181)
(0.218385 -0.0116164 3.20391e-08)
(0.218385 -0.0116164 -3.20393e-08)
(0.218386 -0.01159 0.00118181)
(0.2337 -0.0119402 -0.00102765)
(0.23369 -0.0119325 1.37287e-09)
(0.23369 -0.0119325 -1.37327e-09)
(0.2337 -0.0119402 0.00102765)
(0.248098 -0.0124158 -0.000896307)
(0.248101 -0.012424 8.1384e-08)
(0.248101 -0.012424 -8.13838e-08)
(0.248098 -0.0124158 0.000896307)
(0.252144 0.057766 -0.000761256)
(0.252112 0.057746 -2.78064e-07)
(0.252112 0.057746 2.78064e-07)
(0.252144 0.057766 0.000761256)
(0.248569 0.0631507 -0.000783279)
(0.248532 0.0631813 -2.15292e-07)
(0.248532 0.0631813 2.15292e-07)
(0.248569 0.0631507 0.000783279)
(0.241558 0.070893 -0.000835332)
(0.24153 0.0709001 -3.22882e-07)
(0.24153 0.0709001 3.22882e-07)
(0.241558 0.070893 0.000835332)
(0.234495 0.0797843 -0.00088272)
(0.234516 0.0797426 -1.12067e-07)
(0.234516 0.0797426 1.12067e-07)
(0.234495 0.0797843 0.00088272)
(0.229367 0.0883958 -0.000908485)
(0.229393 0.0883449 -4.4925e-08)
(0.229393 0.0883449 4.49247e-08)
(0.229367 0.0883958 0.000908485)
(0.223556 0.0965688 -0.000927585)
(0.223564 0.0965289 -7.95669e-08)
(0.223564 0.0965289 7.95663e-08)
(0.223556 0.0965688 0.000927585)
(0.217848 0.104906 -0.000953737)
(0.217855 0.104871 -9.43908e-08)
(0.217855 0.104871 9.439e-08)
(0.217848 0.104906 0.000953737)
(0.210926 0.117073 -0.000963312)
(0.210956 0.117015 -2.08727e-08)
(0.210956 0.117015 2.08719e-08)
(0.210926 0.117073 0.000963312)
(0.2067 0.118507 -0.000992817)
(0.206713 0.118487 6.38382e-08)
(0.206713 0.118487 -6.38387e-08)
(0.2067 0.118507 0.000992817)
(0.258746 -0.0111597 -0.000786178)
(0.258754 -0.0111584 3.81431e-08)
(0.258754 -0.0111584 -3.81424e-08)
(0.258746 -0.0111597 0.000786178)
(-0.0158083 -0.024262 0.000118531)
(-0.0158133 -0.0242622 -9.83304e-09)
(-0.0158133 -0.0242622 9.8375e-09)
(-0.0158083 -0.024262 -0.000118531)
(-0.013643 -0.0193678 0.000107256)
(-0.0136467 -0.0193681 2.34651e-09)
(-0.0136467 -0.0193681 -2.34124e-09)
(-0.013643 -0.0193678 -0.000107256)
(-0.0116248 -0.0133953 9.56543e-05)
(-0.0116293 -0.0134015 -7.80741e-09)
(-0.0116293 -0.0134015 7.81057e-09)
(-0.0116248 -0.0133953 -9.56543e-05)
(0.208632 0.132646 -0.0008979)
(0.208621 0.132602 -6.80351e-08)
(0.208621 0.132602 6.80352e-08)
(0.208632 0.132646 0.0008979)
(0.181374 0.0985073 -0.00127257)
(0.181332 0.0985753 -2.7344e-08)
(0.181332 0.0985753 2.73438e-08)
(0.181374 0.0985073 0.00127257)
(0.168986 0.102885 -0.00134873)
(0.168971 0.102937 -1.88661e-08)
(0.168971 0.102937 1.88658e-08)
(0.168986 0.102885 0.00134873)
(-0.0157137 -0.00531749 8.8444e-05)
(-0.0157192 -0.00531209 -2.44045e-09)
(-0.0157192 -0.00531209 2.44316e-09)
(-0.0157137 -0.00531749 -8.8444e-05)
(-0.0151889 3.41596e-05 8.40893e-05)
(-0.0151939 3.09253e-05 2.0393e-08)
(-0.0151939 3.09253e-05 -2.03971e-08)
(-0.0151889 3.41595e-05 -8.40893e-05)
(-0.0162055 0.00533204 7.8697e-05)
(-0.016209 0.00533906 -2.85839e-08)
(-0.016209 0.00533906 2.85784e-08)
(-0.0162055 0.00533204 -7.8697e-05)
(-0.019488 0.00783654 8.33477e-05)
(-0.0194994 0.00783404 4.57132e-08)
(-0.0194994 0.00783404 -4.57253e-08)
(-0.019488 0.00783654 -8.33477e-05)
(-0.019121 0.0101938 7.9722e-05)
(-0.0191328 0.0102035 -4.72496e-08)
(-0.0191328 0.0102035 4.72457e-08)
(-0.019121 0.0101938 -7.9722e-05)
(0.186856 0.114474 -0.00115841)
(0.186846 0.114482 -3.28251e-09)
(0.186846 0.114482 3.28244e-09)
(0.186856 0.114474 0.00115841)
(-0.0159412 0.0113095 8.73076e-05)
(-0.0159391 0.0113091 2.39652e-08)
(-0.0159391 0.0113091 -2.39953e-08)
(-0.0159412 0.0113095 -8.73076e-05)