/*--------------------------------*- C++ -*----------------------------------*\
| =========                 |                                                 |
| \\      /  F ield         | OpenFOAM: The Open Source CFD Toolbox           |
|  \\    /   O peration     | Version:  v1806                                 |
|   \\  /    A nd           | Web:      www.OpenFOAM.com                      |
|    \\/     M anipulation  |                                                 |
\*---------------------------------------------------------------------------*/
FoamFile
{
    version     2.0;
    format      ascii;
    class       volScalarField;
    location    "210";
    object      p;
}
// * * * * * * * * * * * * * * * * * * * * * * * * * * * * * * * * * * * * * //

dimensions      [0 2 -2 0 0 0 0];


internalField   nonuniform List<scalar> 
5735
(
0.00716462
0.00717998
0.00717039
0.00717998
0.00716462
0.0141774
0.014188
0.0141826
0.014188
0.0141774
0.0192448
0.0191818
0.0191783
0.0191818
0.0192448
0.0359541
0.036024
0.0360254
0.036024
0.0359541
0.0397583
0.0398269
0.0398261
0.0398269
0.0397583
0.0399147
0.0399897
0.0399883
0.0399897
0.0399147
0.0357803
0.0358335
0.0358348
0.0358335
0.0357803
0.0309469
0.030991
0.0309946
0.030991
0.0309468
0.0321396
0.0321936
0.0321973
0.0321936
0.0321396
0.0287043
0.0286966
0.0286785
0.0286966
0.0287043
0.0289437
0.0289757
0.0289645
0.0289757
0.0289436
0.0166709
0.0165749
0.0165621
0.0165747
0.0166708
0.0124746
0.0123401
0.0123249
0.0123401
0.0124746
-0.006382
-0.00638076
-0.00637671
-0.00638076
-0.006382
-0.00609648
-0.00609865
-0.00609502
-0.00609865
-0.00609648
-0.00528173
-0.00527928
-0.00527598
-0.00527928
-0.00528173
-0.00282465
-0.00281776
-0.00281748
-0.00281776
-0.00282465
-0.00270155
-0.00269278
-0.0026931
-0.00269279
-0.00270155
-0.00291335
-0.00290705
-0.00290664
-0.00290705
-0.00291335
0.0578683
0.0580222
0.0579942
0.0580222
0.0578683
0.0543434
0.0544675
0.0544492
0.0544675
0.0543434
0.0504138
0.0505365
0.0505245
0.0505365
0.0504138
0.0511124
0.0512374
0.0512221
0.0512374
0.0511124
-0.00272123
-0.00271234
-0.00271181
-0.00271234
-0.00272123
-0.00279157
-0.00278198
-0.00278137
-0.00278197
-0.00279157
-0.00265389
-0.00264567
-0.00264566
-0.00264567
-0.00265389
-0.011874
-0.0120293
-0.0120379
-0.0120293
-0.011874
-0.0111644
-0.0112408
-0.0112442
-0.0112408
-0.0111644
-0.00870387
-0.00882774
-0.008834
-0.00882774
-0.00870387
-0.0150702
-0.0151248
-0.015122
-0.0151248
-0.0150702
-0.0125971
-0.012616
-0.0126153
-0.012616
-0.0125971
-0.0129238
-0.0128881
-0.0128851
-0.0128881
-0.0129238
0.0324654
0.0325256
0.0325267
0.0325256
0.0324654
0.0296618
0.0297003
0.0297032
0.0297003
0.0296617
0.0281489
0.0281873
0.0281912
0.0281873
0.0281489
-0.00260471
-0.00260006
-0.00259972
-0.00260006
-0.00260471
-0.00261991
-0.00261482
-0.0026145
-0.00261482
-0.00261991
-0.0026524
-0.00264782
-0.0026472
-0.00264783
-0.00265241
-0.00255166
-0.00254721
-0.00254658
-0.00254721
-0.00255166
-0.00251597
-0.00251118
-0.00251079
-0.00251119
-0.00251597
-0.00246818
-0.00246219
-0.00246191
-0.00246219
-0.00246818
-0.00263974
-0.00263356
-0.00263342
-0.00263356
-0.00263974
-0.00235627
-0.00234879
-0.00234885
-0.00234879
-0.00235627
-0.00247667
-0.00247236
-0.002472
-0.00247237
-0.00247667
-0.00230519
-0.00229732
-0.00229734
-0.00229732
-0.00230519
-0.00237372
-0.00236495
-0.00236478
-0.00236495
-0.00237372
-0.00245734
-0.00245216
-0.00245178
-0.00245216
-0.00245734
-0.00239942
-0.00239161
-0.00239122
-0.00239162
-0.00239942
-0.00251176
-0.00250874
-0.0025081
-0.00250874
-0.00251176
-0.00246909
-0.00246543
-0.00246486
-0.00246545
-0.0024691
-0.00246675
-0.00246257
-0.00246208
-0.00246258
-0.00246675
-0.00260508
-0.00259791
-0.00259757
-0.00259791
-0.00260508
-0.00249884
-0.00249367
-0.00249328
-0.00249367
-0.00249884
-0.00247576
-0.00246917
-0.00246894
-0.00246917
-0.00247576
-0.00243367
-0.0024264
-0.00242633
-0.0024264
-0.00243367
-0.00257979
-0.00257419
-0.00257374
-0.00257419
-0.00257978
-0.00255575
-0.00255034
-0.00254981
-0.00255034
-0.00255575
-0.00259519
-0.00259111
-0.00259071
-0.00259111
-0.00259519
-0.00257258
-0.00256896
-0.00256849
-0.00256895
-0.00257257
-0.00248477
-0.00248055
-0.00248002
-0.00248055
-0.00248477
-0.00244318
-0.00243943
-0.00243886
-0.00243942
-0.00244318
-0.00243577
-0.00243112
-0.00243056
-0.00243112
-0.00243577
-0.00246522
-0.00246042
-0.00245986
-0.00246042
-0.00246522
-0.00253362
-0.00252941
-0.00252879
-0.00252941
-0.00253363
-0.00266465
-0.00265603
-0.00265555
-0.00265602
-0.00266464
-0.00265067
-0.00264322
-0.00264274
-0.00264322
-0.00265067
-0.0026518
-0.00264545
-0.00264491
-0.00264545
-0.0026518
-0.00263322
-0.00262938
-0.00262873
-0.00262942
-0.00263323
-0.00272761
-0.00272136
-0.00272105
-0.00272136
-0.00272761
-0.00271465
-0.00270904
-0.00270869
-0.00270904
-0.00271466
-0.00270404
-0.00269937
-0.00269899
-0.00269937
-0.00270404
-0.00268356
-0.00267966
-0.00267922
-0.00267966
-0.00268356
-0.00264425
-0.00264118
-0.0026407
-0.00264119
-0.00264426
-0.00252538
-0.00252243
-0.00252187
-0.00252239
-0.00252537
-0.00243816
-0.00243502
-0.00243443
-0.00243504
-0.00243817
-0.00239135
-0.00238843
-0.00238782
-0.00238843
-0.00239135
-0.00238235
-0.00237918
-0.00237858
-0.00237918
-0.00238235
-0.00241495
-0.00241196
-0.00241136
-0.00241196
-0.00241495
-0.00248859
-0.00248546
-0.00248484
-0.00248547
-0.0024886
-0.00259442
-0.0025914
-0.00259077
-0.0025914
-0.00259442
-0.00275584
-0.00274875
-0.00274846
-0.00274876
-0.00275585
-0.0027274
-0.00272436
-0.00272374
-0.00272436
-0.0027274
-0.0027547
-0.00275093
-0.00275024
-0.00275089
-0.00275469
-0.00276615
-0.00276174
-0.00276107
-0.00276177
-0.00276616
-0.00276798
-0.00276324
-0.00276252
-0.00276323
-0.00276798
-0.00278569
-0.00278065
-0.00277988
-0.00278067
-0.00278569
-0.00282067
-0.00281552
-0.00281456
-0.00281545
-0.00282064
-0.00289322
-0.00288906
-0.00288842
-0.00288908
-0.00289323
-0.00285597
-0.00285188
-0.00285135
-0.00285189
-0.00285598
-0.00283716
-0.00283284
-0.00283239
-0.00283285
-0.00283717
-0.00282911
-0.00282516
-0.00282474
-0.00282516
-0.00282911
-0.00281727
-0.00281384
-0.0028134
-0.00281384
-0.00281727
-0.00278927
-0.00278638
-0.0027859
-0.00278636
-0.00278926
-0.00273864
-0.00273637
-0.00273585
-0.00273636
-0.00273864
-0.00257202
-0.00256975
-0.00256921
-0.00256975
-0.00257202
-0.00244293
-0.00244066
-0.00244006
-0.00244066
-0.00244292
-0.00235147
-0.00234914
-0.0023485
-0.00234914
-0.00235147
-0.00230092
-0.00229858
-0.00229793
-0.00229858
-0.00230092
-0.00229073
-0.00228827
-0.00228763
-0.00228827
-0.00229073
-0.00232618
-0.00232371
-0.00232306
-0.00232371
-0.00232618
-0.00240434
-0.00240188
-0.00240124
-0.00240188
-0.00240435
-0.00251786
-0.0025155
-0.00251488
-0.0025155
-0.00251786
-0.00298467
-0.002982
-0.0029812
-0.002982
-0.00298468
-0.00266967
-0.00266742
-0.00266683
-0.00266742
-0.00266967
0.0463419
0.0464282
0.0464212
0.0464282
0.0463419
0.0472387
0.0473432
0.0473368
0.0473432
0.0472387
0.0459611
0.0460915
0.0460847
0.0460915
0.0459611
0.0491629
0.0492625
0.0492519
0.0492625
0.0491629
0.0443792
0.044464
0.0444586
0.044464
0.0443792
0.0437392
0.0438141
0.0438108
0.0438141
0.0437392
0.043733
0.0438155
0.0438113
0.0438155
0.043733
0.0418553
0.0419303
0.0419277
0.0419303
0.0418553
0.0402596
0.0403222
0.0403201
0.0403222
0.0402596
0.0507034
0.050857
0.050844
0.050857
0.0507034
0.0444318
0.0445312
0.0445262
0.0445312
0.0444318
0.0393709
0.0394542
0.0394534
0.0394542
0.0393709
0.0565195
0.0566639
0.0566356
0.0566639
0.0565195
0.0390881
0.039134
0.0391283
0.039134
0.0390881
0.0404418
0.0404724
0.0404595
0.0404724
0.0404418
0.0393608
0.039316
0.0392978
0.039316
0.0393608
0.0380729
0.0381007
0.038099
0.0381007
0.0380729
0.0327741
0.0327898
0.0327899
0.0327898
0.0327741
0.0335135
0.0335668
0.0335645
0.0335668
0.0335135
0.0335624
0.0336133
0.0336056
0.0336132
0.0335624
0.0368401
0.036905
0.0369037
0.036905
0.0368401
0.0343102
0.0343787
0.0343801
0.0343787
0.0343102
0.0350344
0.0350977
0.0350991
0.0350977
0.0350344
-0.00291058
-0.00290667
-0.00290551
-0.00290666
-0.00291056
0.0413046
0.0413603
0.0413525
0.0413603
0.0413046
0.0388723
0.0389064
0.0389021
0.0389064
0.0388723
0.0361461
0.0362039
0.0362023
0.0362039
0.0361461
0.0328547
0.0329005
0.0329013
0.0329005
0.0328547
0.0405009
0.040521
0.0405073
0.040521
0.0405009
-0.00312528
-0.00312394
-0.00312267
-0.00312394
-0.00312528
0.0322452
0.0323028
0.0323059
0.0323027
0.0322452
0.0313969
0.0314556
0.0314588
0.0314556
0.0313969
0.0297447
0.0297984
0.0298014
0.0297984
0.0297447
-0.00303639
-0.00303304
-0.00303149
-0.00303304
-0.00303639
-0.00303493
-0.00303132
-0.00303018
-0.00303132
-0.00303493
-0.00296209
-0.00295777
-0.00295683
-0.00295778
-0.00296209
-0.00294577
-0.00294231
-0.00294151
-0.00294232
-0.00294577
-0.00294393
-0.00294018
-0.00293954
-0.00294022
-0.00294395
-0.00295212
-0.00294879
-0.00294823
-0.00294877
-0.00295212
-0.00295876
-0.00295581
-0.00295532
-0.00295585
-0.00295878
-0.00295751
-0.00295509
-0.00295458
-0.00295509
-0.00295751
-0.00293542
-0.00293365
-0.00293312
-0.00293365
-0.00293542
-0.00287164
-0.00287046
-0.00286994
-0.00287046
-0.00287164
-0.00264228
-0.00264077
-0.00264024
-0.00264077
-0.00264228
-0.00245569
-0.00245416
-0.00245359
-0.00245416
-0.00245569
-0.00231646
-0.00231491
-0.00231429
-0.00231491
-0.00231645
-0.00222101
-0.00221941
-0.00221877
-0.00221941
-0.00222101
-0.00216872
-0.00216694
-0.00216633
-0.00216694
-0.00216872
-0.00215851
-0.00215671
-0.00215609
-0.00215671
-0.00215851
-0.00219569
-0.00219381
-0.00219319
-0.00219381
-0.00219569
-0.00227548
-0.00227373
-0.0022731
-0.00227373
-0.00227548
-0.0023957
-0.00239392
-0.00239331
-0.00239392
-0.0023957
-0.00256321
-0.00256158
-0.00256099
-0.00256158
-0.00256321
-0.00276688
-0.00276534
-0.00276481
-0.00276534
-0.00276688
-0.00284737
-0.00284539
-0.00284483
-0.00284539
-0.00284737
-0.00287691
-0.00287423
-0.00287361
-0.00287423
-0.00287691
-0.00289334
-0.00289048
-0.00288975
-0.00289048
-0.00289334
-0.00288315
-0.00287943
-0.00287862
-0.00287943
-0.00288315
-0.00286981
-0.00286542
-0.00286451
-0.00286542
-0.00286981
-0.00286804
-0.00286297
-0.00286195
-0.00286297
-0.00286804
-0.00288862
-0.00288285
-0.00288162
-0.00288285
-0.00288861
-0.00295891
-0.00295382
-0.00295226
-0.00295381
-0.0029589
0.0350357
0.0349724
0.0349515
0.0349724
0.0350357
0.0371763
0.0372284
0.0372156
0.0372284
0.0371763
0.0364295
0.0365064
0.0364973
0.0365064
0.0364295
0.034568
0.0346344
0.0346309
0.0346344
0.034568
0.0324575
0.0325172
0.0325163
0.0325172
0.0324575
0.029883
0.02993
0.0299319
0.02993
0.029883
0.0274477
0.0274914
0.0274949
0.0274914
0.0274477
0.028448
0.0284827
0.0284845
0.0284827
0.028448
0.0264125
0.0264514
0.0264545
0.0264515
0.0264125
0.0251253
0.0251339
0.0251219
0.0251338
0.0251252
0.0283623
0.0284114
0.028403
0.0284114
0.0283622
0.0286698
0.02871
0.0287066
0.02871
0.0286698
0.0282438
0.0282881
0.0282872
0.0282881
0.0282438
0.0264206
0.0264619
0.0264628
0.0264619
0.0264206
0.0240072
0.0240255
0.0240286
0.0240256
0.0240073
0.0223059
0.0223278
0.0223308
0.0223279
0.0223059
0.024448
0.0244812
0.0244851
0.0244812
0.024448
0.0263069
0.0263387
0.0263435
0.0263385
0.0263068
0.0281212
0.0281668
0.0281716
0.0281668
0.0281212
0.028956
0.0290017
0.0290065
0.0290016
0.028956
0.0290032
0.0290475
0.0290524
0.0290475
0.0290032
0.0282502
0.0282973
0.0283023
0.0282973
0.0282502
0.0268499
0.0268918
0.026897
0.0268918
0.0268499
0.0249595
0.0249945
0.025
0.0249947
0.0249595
0.0227492
0.0227795
0.0227846
0.0227791
0.022749
0.0247626
0.0247987
0.0248022
0.0247986
0.0247626
0.0265416
0.0265765
0.0265785
0.0265765
0.0265416
0.0281873
0.0282249
0.0282244
0.0282249
0.0281873
0.0292982
0.0293331
0.0293303
0.0293331
0.0292982
0.0293194
0.0293346
0.0293282
0.0293346
0.0293194
0.0275587
0.0275614
0.0275537
0.0275614
0.0275587
0.0227458
0.0227747
0.0227766
0.0227747
0.0227458
0.0238001
0.0238405
0.023839
0.0238405
0.0238001
0.0239222
0.0239567
0.0239525
0.0239567
0.0239222
0.0228238
0.0228419
0.0228343
0.0228419
0.0228238
0.0202326
0.020216
0.0202073
0.0202159
0.0202326
0.0151513
0.0150868
0.0150783
0.0150866
0.0151512
0.00900706
0.00895417
0.00895181
0.00895413
0.00900702
0.00172315
0.00168154
0.00168258
0.00168158
0.00172319
0.0214469
0.0214605
0.0214633
0.0214605
0.0214469
0.0199915
0.0200054
0.0200079
0.0200056
0.0199916
0.0209855
0.0210286
0.021023
0.0210286
0.0209855
0.0232166
0.0232314
0.0232289
0.0232314
0.0232166
0.024222
0.0242455
0.0242447
0.0242455
0.024222
0.0238709
0.0238915
0.0238921
0.0238915
0.0238709
0.0230299
0.0230552
0.0230572
0.0230552
0.0230299
0.021759
0.021788
0.0217914
0.021788
0.021759
0.0202634
0.0202882
0.0202931
0.0202882
0.0202634
0.018844
0.0188632
0.0188689
0.0188632
0.018844
0.0209999
0.0210232
0.0210293
0.0210232
0.0209998
0.0228917
0.0229183
0.0229246
0.0229183
0.0228917
0.0244875
0.0245198
0.0245261
0.0245199
0.0244875
0.0256651
0.025702
0.0257078
0.0257017
0.0256649
0.0262526
0.0262893
0.026295
0.0262894
0.0262526
0.0262276
0.0262636
0.0262692
0.0262633
0.0262275
0.0255545
0.0255848
0.0255908
0.0255849
0.0255545
0.0242934
0.0243227
0.0243283
0.0243228
0.0242934
0.0227108
0.0227443
0.022749
0.0227443
0.0227108
0.0207434
0.0207708
0.0207744
0.0207707
0.0207434
0.018656
0.0186804
0.0186832
0.0186804
0.018656
0.000452563
0.000443088
0.000431593
0.000443087
0.000452561
-0.00569653
-0.00578713
-0.00579926
-0.00578714
-0.00569653
-0.00432816
-0.00432293
-0.00431979
-0.00432293
-0.00432815
-0.00373279
-0.00372383
-0.00372103
-0.00372382
-0.00373279
-0.00306232
-0.00305549
-0.00305361
-0.00305548
-0.00306232
-0.00325234
-0.00324556
-0.00324326
-0.00324556
-0.00325234
-0.00344454
-0.00343814
-0.00343556
-0.00343814
-0.00344454
-0.00332132
-0.00331723
-0.00331476
-0.00331723
-0.00332132
-0.00305899
-0.00305217
-0.00305035
-0.00305217
-0.00305899
-0.00297383
-0.00296943
-0.00296777
-0.00296943
-0.00297383
-0.00291544
-0.00290993
-0.00290857
-0.00290993
-0.00291544
-0.00291594
-0.00291147
-0.00291031
-0.00291147
-0.00291594
-0.002943
-0.0029388
-0.00293775
-0.0029388
-0.002943
-0.00298405
-0.00298045
-0.00297952
-0.00298045
-0.00298405
-0.00302364
-0.00302038
-0.00301958
-0.00302039
-0.00302364
-0.00304363
-0.00304097
-0.00304027
-0.00304097
-0.00304363
-0.0030523
-0.00305048
-0.00304985
-0.00305048
-0.0030523
-0.00301144
-0.00300993
-0.00300935
-0.00300994
-0.00301144
-0.00456783
-0.00456537
-0.00456267
-0.00456537
-0.00456783
-0.00399478
-0.00399253
-0.00399029
-0.00399253
-0.00399478
-0.00315511
-0.00315082
-0.0031495
-0.00315082
-0.00315511
-0.00338147
-0.00337748
-0.00337584
-0.00337748
-0.00338147
-0.00360035
-0.00359673
-0.00359483
-0.00359673
-0.00360035
-0.00349268
-0.0034922
-0.0034904
-0.0034922
-0.00349268
-0.00314042
-0.00313571
-0.00313449
-0.00313571
-0.00314042
-0.00305062
-0.00304843
-0.00304726
-0.00304843
-0.00305062
-0.00299035
-0.00298668
-0.00298564
-0.00298668
-0.00299035
-0.00300112
-0.00299843
-0.00299751
-0.00299843
-0.00300113
-0.00301877
-0.00301538
-0.00301459
-0.00301538
-0.00301877
-0.00305708
-0.00305432
-0.00305363
-0.00305432
-0.00305708
-0.0030922
-0.00308945
-0.00308881
-0.00308945
-0.0030922
-0.00313245
-0.0031303
-0.00312965
-0.0031303
-0.00313245
-0.00313448
-0.00313276
-0.00313213
-0.00313276
-0.00313448
-0.00311272
-0.00311137
-0.00311071
-0.00311137
-0.00311272
-0.00299426
-0.00299354
-0.00299303
-0.00299354
-0.00299426
-0.00273195
-0.00273124
-0.00273079
-0.00273124
-0.00273194
-0.00248217
-0.00248122
-0.00248073
-0.00248122
-0.00248217
-0.00228481
-0.0022839
-0.00228336
-0.0022839
-0.00228481
-0.00213957
-0.00213863
-0.00213805
-0.00213863
-0.00213957
-0.00204288
-0.00204174
-0.00204117
-0.00204174
-0.00204288
-0.0019908
-0.00198954
-0.00198898
-0.00198954
-0.0019908
-0.00198144
-0.00198019
-0.00197963
-0.00198019
-0.00198144
-0.00201753
-0.00201626
-0.00201569
-0.00201626
-0.00201753
-0.00209776
-0.00209668
-0.00209608
-0.00209668
-0.00209776
-0.00222383
-0.00222282
-0.00222222
-0.00222282
-0.00222383
-0.00240412
-0.00240323
-0.00240266
-0.00240323
-0.00240412
-0.00263911
-0.00263854
-0.00263805
-0.00263854
-0.00263911
-0.00292269
-0.00292232
-0.00292181
-0.00292232
-0.0029227
-0.00485633
-0.00484545
-0.00484192
-0.00484545
-0.00485633
-0.00411116
-0.00419253
-0.0042
-0.00419254
-0.00411116
0.0014041
0.00133901
0.00132978
0.00133901
0.00140409
0.00733836
0.00731588
0.00730395
0.00731588
0.00733835
0.0126574
0.0127009
0.0126917
0.0127009
0.0126574
0.0163233
0.0163616
0.0163558
0.0163616
0.0163233
0.0185148
0.0185441
0.0185425
0.0185441
0.0185148
0.0196594
0.0196792
0.0196792
0.0196792
0.0196594
0.0198728
0.0198878
0.0198888
0.0198877
0.0198728
0.0194846
0.0195057
0.0195077
0.0195057
0.0194846
0.0186462
0.018669
0.0186724
0.018669
0.0186462
0.0176137
0.0176334
0.0176379
0.0176334
0.0176137
0.0165629
0.0165784
0.0165836
0.0165784
0.0165629
0.0155148
0.0155273
0.0155329
0.0155273
0.0155148
0.0175855
0.0176
0.0176062
0.0176
0.0175855
0.0194851
0.0195025
0.0195091
0.0195025
0.019485
0.0211766
0.0211954
0.021202
0.0211954
0.0211766
0.0225295
0.0225522
0.0225588
0.0225522
0.0225295
0.0234842
0.0235111
0.0235175
0.0235111
0.0234842
0.0239567
0.0239843
0.0239904
0.0239843
0.0239567
0.0239392
0.0239671
0.0239731
0.0239671
0.0239392
0.0234321
0.0234593
0.0234654
0.0234593
0.0234321
0.0224106
0.0224336
0.0224395
0.0224336
0.0224106
0.021022
0.021047
0.0210524
0.021047
0.021022
0.0193505
0.0193764
0.0193807
0.0193761
0.0193503
0.017413
0.0174392
0.0174429
0.0174391
0.0174129
0.0153831
0.0154032
0.0154065
0.015403
0.015383
0.0164191
0.0164392
0.0164417
0.0164392
0.0164191
0.0175232
0.0175347
0.0175368
0.0175346
0.0175231
0.0184526
0.018463
0.0184651
0.018463
0.0184526
0.0191365
0.0191632
0.0191649
0.0191632
0.0191365
0.0196412
0.0196778
0.0196765
0.0196778
0.0196412
0.0195202
0.0195473
0.019543
0.0195473
0.0195202
0.0183042
0.0182999
0.0182938
0.0182999
0.0183042
0.0159389
0.0159147
0.0159086
0.0159147
0.0159389
0.0115961
0.0115406
0.011537
0.0115406
0.0115961
0.00643846
0.00642066
0.00641954
0.00642067
0.00643847
-0.000321859
-0.000332741
-0.000332187
-0.000332737
-0.000321854
-0.00687022
-0.00692161
-0.00692464
-0.00692165
-0.00687026
-0.0103474
-0.0103935
-0.0103972
-0.0103935
-0.0103475
-0.0129057
-0.0129929
-0.0129959
-0.0129929
-0.0129058
-0.0143385
-0.0144092
-0.014409
-0.0144092
-0.0143385
-0.0116644
-0.0117012
-0.0117022
-0.0117012
-0.0116644
-0.00997724
-0.0100191
-0.010021
-0.0100192
-0.00997725
-0.0073599
-0.00740186
-0.00740455
-0.00740186
-0.00735991
-0.00366077
-0.00370508
-0.00370904
-0.00370509
-0.00366079
0.000916875
0.000925054
0.000921594
0.000925066
0.000916884
0.00500692
0.00499615
0.00499432
0.00499628
0.00500699
0.00894618
0.00892672
0.00892441
0.00892674
0.00894618
0.0123245
0.012305
0.0123007
0.012305
0.0123245
0.0144094
0.0144007
0.014396
0.0144007
0.0144094
0.0155757
0.015594
0.0155902
0.015594
0.0155757
0.0158906
0.015918
0.0159169
0.015918
0.0158906
0.0157563
0.0157792
0.0157802
0.0157792
0.0157563
0.0153827
0.0153942
0.0153959
0.0153942
0.0153827
0.014805
0.0148173
0.0148193
0.0148172
0.014805
0.0140271
0.0140408
0.0140434
0.014041
0.0140272
0.0132379
0.0132517
0.0132547
0.0132517
0.0132379
-0.00700815
-0.0070133
-0.00700927
-0.0070133
-0.00700815
-0.00469035
-0.00467465
-0.00467144
-0.00467466
-0.00469034
-0.00461463
-0.00461222
-0.00460867
-0.00461221
-0.00461463
-0.00383947
-0.0038294
-0.00382638
-0.0038294
-0.00383946
-0.00339191
-0.00338374
-0.00338119
-0.00338374
-0.00339191
-0.00320011
-0.00319291
-0.00319047
-0.00319291
-0.00320011
-0.00301985
-0.00301272
-0.00301084
-0.00301272
-0.00301985
-0.00294115
-0.0029353
-0.00293366
-0.0029353
-0.00294115
-0.00290335
-0.00289775
-0.00289638
-0.00289775
-0.00290335
-0.0029231
-0.00291888
-0.00291772
-0.00291888
-0.0029231
-0.0029897
-0.00298679
-0.00298573
-0.00298679
-0.0029897
-0.00307075
-0.00306894
-0.00306804
-0.00306894
-0.00307076
-0.00314742
-0.00314586
-0.00314512
-0.00314586
-0.00314742
-0.00322346
-0.00322284
-0.00322219
-0.00322284
-0.00322347
-0.00326793
-0.00326786
-0.00326731
-0.00326786
-0.00326793
-0.00327151
-0.00327161
-0.00327112
-0.00327161
-0.00327151
-0.00321489
-0.00321607
-0.00321566
-0.00321607
-0.00321489
-0.00279539
-0.00279529
-0.00279489
-0.00279529
-0.00279539
-0.00250989
-0.00250979
-0.00250947
-0.00250979
-0.00250989
-0.00225366
-0.00225324
-0.00225286
-0.00225324
-0.00225366
-0.00205264
-0.00205225
-0.00205181
-0.00205225
-0.00205264
-0.00190971
-0.00190911
-0.00190863
-0.00190911
-0.00190971
-0.00181524
-0.00181447
-0.00181399
-0.00181447
-0.00181524
-0.00176561
-0.00176476
-0.00176428
-0.00176476
-0.00176561
-0.0017573
-0.00175644
-0.00175596
-0.00175644
-0.0017573
-0.00179072
-0.00178989
-0.00178939
-0.00178989
-0.00179072
-0.0018672
-0.00186655
-0.00186603
-0.00186655
-0.0018672
-0.00199216
-0.00199177
-0.00199124
-0.00199177
-0.00199216
-0.00217463
-0.00217435
-0.00217385
-0.00217435
-0.00217463
-0.00241993
-0.00241977
-0.00241935
-0.00241977
-0.00241993
-0.00271468
-0.00271449
-0.00271407
-0.00271449
-0.00271468
-0.00301415
-0.0030144
-0.00301403
-0.0030144
-0.00301415
-0.0123717
-0.0123802
-0.0123777
-0.0123802
-0.0123717
-0.0115356
-0.0115406
-0.0115346
-0.0115406
-0.0115356
-0.0102065
-0.010201
-0.0101943
-0.010201
-0.0102065
-0.00873196
-0.00872854
-0.00872293
-0.00872854
-0.00873196
-0.00767506
-0.00768114
-0.00767617
-0.00768114
-0.00767506
-0.00604248
-0.00603468
-0.00603139
-0.00603468
-0.00604248
-0.00544039
-0.00544239
-0.00543912
-0.00544239
-0.00544039
-0.00483019
-0.00483129
-0.0048279
-0.00483129
-0.00483019
-0.00412756
-0.0041253
-0.00412282
-0.0041253
-0.00412756
-0.00356604
-0.00356102
-0.00355918
-0.00356102
-0.00356604
-0.00334241
-0.00333959
-0.00333785
-0.00333959
-0.00334241
-0.00312101
-0.00311663
-0.0031153
-0.00311663
-0.00312101
-0.00298908
-0.00298413
-0.0029831
-0.00298413
-0.00298908
-0.00296917
-0.00296499
-0.00296403
-0.00296499
-0.00296917
-0.00300265
-0.00299929
-0.00299839
-0.00299929
-0.00300265
-0.00305539
-0.00305261
-0.00305181
-0.00305261
-0.00305539
-0.00312329
-0.00312107
-0.00312036
-0.00312107
-0.00312329
-0.00319875
-0.00319714
-0.0031965
-0.00319714
-0.00319875
-0.00327457
-0.00327354
-0.00327291
-0.00327354
-0.00327457
-0.00332951
-0.00332915
-0.0033285
-0.00332915
-0.00332951
-0.00333832
-0.00333825
-0.00333755
-0.00333825
-0.00333832
-0.00326185
-0.00326233
-0.00326184
-0.00326233
-0.00326185
-0.00308371
-0.00308454
-0.00308414
-0.00308454
-0.00308371
0.0145934
0.0146036
0.0146094
0.0146036
0.0145934
0.0164891
0.0165003
0.0165066
0.0165003
0.0164891
0.0182097
0.0182226
0.018229
0.0182226
0.0182097
0.0196984
0.0197139
0.0197203
0.0197139
0.0196984
0.0208681
0.0208859
0.0208923
0.0208859
0.0208681
0.0216697
0.0216904
0.0216967
0.0216904
0.0216697
0.0220752
0.0220989
0.022105
0.0220989
0.0220752
0.0220568
0.0220805
0.0220865
0.0220805
0.0220568
0.021615
0.0216355
0.0216416
0.0216355
0.021615
0.0207851
0.0208043
0.0208103
0.0208043
0.0207851
0.0195792
0.0196004
0.019606
0.0196004
0.0195792
0.0180772
0.0180974
0.0181025
0.0180974
0.0180772
0.0163511
0.0163729
0.0163776
0.0163729
0.0163511
0.0144873
0.0145056
0.0145097
0.0145056
0.0144872
0.012502
0.0125159
0.0125196
0.0125159
0.012502
-0.00732685
-0.00733045
-0.00732619
-0.0073305
-0.00732689
-0.00776165
-0.00774176
-0.00773857
-0.00774196
-0.00776174
-0.00942126
-0.00941464
-0.00941077
-0.00941468
-0.0094213
-0.0107282
-0.0107323
-0.0107284
-0.0107323
-0.0107282
-0.0117021
-0.0117249
-0.0117209
-0.0117249
-0.0117021
-0.0120926
-0.0121512
-0.0121477
-0.0121512
-0.0120926
-0.0119004
-0.012026
-0.0120263
-0.012026
-0.0119004
-0.00978288
-0.00987485
-0.00987777
-0.00987485
-0.00978288
-0.00655912
-0.00665151
-0.00665518
-0.00665151
-0.00655912
-0.00264009
-0.00270722
-0.00271215
-0.00270722
-0.0026401
0.00148373
0.00141918
0.00141228
0.00141917
0.00148371
0.00607491
0.00603108
0.0060211
0.00603106
0.00607489
0.0100549
0.0100627
0.0100544
0.0100627
0.0100548
0.0127388
0.0127609
0.0127556
0.0127609
0.0127388
0.014623
0.0146455
0.0146433
0.0146455
0.014623
0.0157479
0.0157649
0.0157645
0.0157649
0.0157479
0.0161522
0.0161672
0.016168
0.0161672
0.0161521
0.0160419
0.0160604
0.0160622
0.0160604
0.0160419
0.0155678
0.0155854
0.0155882
0.0155852
0.0155677
0.0149045
0.0149217
0.0149255
0.0149217
0.0149045
0.0141203
0.0141344
0.014139
0.0141344
0.0141203
0.013329
0.0133398
0.0133448
0.0133398
0.013329
0.0125648
0.0125732
0.0125784
0.0125732
0.0125648
-0.0031954
-0.00319506
-0.00319448
-0.00319506
-0.0031954
-0.00336405
-0.00336453
-0.00336392
-0.00336453
-0.00336405
-0.0033725
-0.00336972
-0.00336912
-0.00336972
-0.0033725
-0.00335963
-0.00335727
-0.00335666
-0.00335727
-0.00335963
-0.0032927
-0.00328991
-0.00328921
-0.00328991
-0.00329271
-0.00317873
-0.00317417
-0.00317345
-0.00317421
-0.00317875
-0.0030786
-0.0030745
-0.00307356
-0.0030745
-0.00307861
-0.00298075
-0.00297624
-0.00297512
-0.00297624
-0.00298075
-0.00289736
-0.00289209
-0.00289084
-0.00289209
-0.00289736
-0.00286814
-0.00286302
-0.00286156
-0.00286302
-0.00286814
-0.00289517
-0.00288923
-0.00288748
-0.00288923
-0.00289517
-0.00300216
-0.0029971
-0.0029949
-0.0029971
-0.00300216
-0.00316508
-0.00315976
-0.00315724
-0.00315976
-0.00316508
-0.00339611
-0.00338926
-0.00338658
-0.00338925
-0.0033961
-0.00375561
-0.00374506
-0.00374195
-0.00374506
-0.00375561
-0.00428652
-0.00428314
-0.00427973
-0.00428311
-0.0042865
-0.00463412
-0.00461623
-0.00461333
-0.0046161
-0.00463405
-0.00567905
-0.00566893
-0.0056653
-0.00566891
-0.00567904
-0.00666757
-0.006668
-0.00666422
-0.00666801
-0.00666758
-0.00733942
-0.00732975
-0.00732697
-0.00732978
-0.00733945
-0.00833238
-0.0083365
-0.00833405
-0.00833652
-0.0083324
-0.00897148
-0.00897825
-0.00897613
-0.00897825
-0.00897149
-0.00938435
-0.00939785
-0.00939561
-0.00939785
-0.00938436
-0.00932443
-0.00934805
-0.0093457
-0.00934805
-0.00932443
-0.00869798
-0.00875169
-0.00875065
-0.00875169
-0.00869798
-0.00713387
-0.0071944
-0.00719492
-0.0071944
-0.00713387
-0.00476617
-0.00482824
-0.00483017
-0.00482824
-0.00476617
-0.00174431
-0.00179164
-0.00179461
-0.00179165
-0.00174432
0.00133624
0.0012851
0.00128058
0.00128507
0.00133621
0.00474427
0.00470801
0.00470131
0.00470787
0.00474419
0.00766147
0.00765323
0.00764723
0.00765321
0.00766144
0.0097795
0.00978941
0.00978497
0.0097894
0.0097795
0.0112916
0.0113072
0.0113048
0.0113072
0.0112916
0.0122694
0.0122846
0.0122838
0.0122846
0.0122694
0.0127426
0.0127554
0.0127558
0.0127554
0.0127425
0.0128078
0.0128216
0.012823
0.0128216
0.0128077
0.012568
0.0125816
0.0125838
0.0125815
0.0125679
0.0121344
0.0121494
0.0121525
0.0121494
0.0121344
0.01159
0.0116031
0.0116069
0.0116031
0.0115899
0.0110027
0.0110128
0.0110171
0.0110128
0.0110027
0.0104401
0.0104457
0.0104502
0.0104457
0.0104401
0.00993001
0.00993245
0.0099369
0.00993245
0.00993001
0.0119146
0.0119181
0.0119233
0.0119181
0.0119146
0.0138074
0.013812
0.0138177
0.013812
0.0138074
0.0155687
0.0155744
0.0155804
0.0155744
0.0155687
0.0171276
0.0171354
0.0171415
0.0171354
0.0171276
0.018447
0.0184581
0.0184642
0.0184581
0.018447
0.0194851
0.0194994
0.0195054
0.0194994
0.0194851
0.0201925
0.0202098
0.0202158
0.0202098
0.0201925
0.0205436
0.0205626
0.0205686
0.0205626
0.0205436
0.0205302
0.0205497
0.0205556
0.0205497
0.0205302
0.0201528
0.0201716
0.0201774
0.0201716
0.0201528
0.0194193
0.0194351
0.0194408
0.0194351
0.0194193
0.0183578
0.0183731
0.0183787
0.0183731
0.0183578
0.017021
0.0170363
0.0170416
0.0170363
0.0170209
0.0154482
0.0154626
0.0154676
0.0154626
0.0154482
0.0137099
0.0137236
0.0137282
0.0137236
0.0137099
0.011849
0.0118608
0.0118649
0.0118607
0.011849
0.00987307
0.00988206
0.00988577
0.00988206
0.00987306
0.0103786
0.0103887
0.010392
0.0103887
0.0103786
0.0109249
0.0109359
0.0109387
0.0109359
0.0109249
0.0114822
0.011494
0.0114964
0.011494
0.0114822
0.0120307
0.0120432
0.0120449
0.0120432
0.0120306
0.0124112
0.0124228
0.012424
0.0124228
0.0124112
0.012592
0.0126073
0.0126076
0.0126073
0.012592
0.0125117
0.012528
0.0125271
0.012528
0.0125117
0.0120774
0.0120869
0.0120842
0.0120869
0.0120774
0.0110267
0.0110238
0.0110202
0.0110238
0.0110267
0.00930667
0.00929602
0.00929275
0.00929602
0.00930667
0.00699912
0.00699502
0.00699203
0.00699502
0.00699912
0.00407608
0.00406319
0.00406064
0.00406318
0.00407607
0.00122783
0.00122772
0.00122386
0.00122769
0.0012278
-0.00205468
-0.00209932
-0.0021031
-0.00209934
-0.00205469
-0.00505369
-0.00509976
-0.00510139
-0.00509976
-0.0050537
-0.00745692
-0.0074858
-0.00748609
-0.0074858
-0.00745692
-0.00902304
-0.00903602
-0.00903705
-0.00903602
-0.00902305
-0.0103084
-0.0103346
-0.0103349
-0.0103346
-0.0103084
-0.0107724
-0.0108009
-0.0107999
-0.0108009
-0.0107724
-0.0103164
-0.0103339
-0.0103301
-0.0103339
-0.0103164
-0.00951914
-0.00952919
-0.00952323
-0.00952919
-0.00951914
-0.00838389
-0.0083907
-0.00838448
-0.0083907
-0.00838389
-0.00720138
-0.00721037
-0.00720451
-0.00721037
-0.00720138
-0.00582808
-0.00581642
-0.00581231
-0.00581642
-0.00582808
-0.00498357
-0.00497973
-0.0049767
-0.00497973
-0.00498357
-0.00447565
-0.00447611
-0.00447295
-0.00447611
-0.00447565
-0.00397398
-0.00397239
-0.0039697
-0.00397239
-0.00397398
-0.00356374
-0.00355956
-0.00355754
-0.00355956
-0.00356374
-0.0033126
-0.00331254
-0.00331073
-0.00331254
-0.0033126
-0.00308442
-0.00308041
-0.003079
-0.00308041
-0.00308442
-0.00296013
-0.00295614
-0.00295506
-0.00295614
-0.00296013
-0.00294012
-0.00293714
-0.0029361
-0.00293714
-0.00294012
-0.00297171
-0.00296848
-0.00296752
-0.00296848
-0.00297171
-0.00303997
-0.00303662
-0.00303576
-0.00303662
-0.00303997
-0.00312826
-0.0031249
-0.00312414
-0.0031249
-0.00312826
-0.00322787
-0.00322496
-0.00322425
-0.00322496
-0.00322787
-0.0033185
-0.00331526
-0.00331455
-0.00331526
-0.0033185
-0.00340126
-0.0033995
-0.00339862
-0.0033995
-0.00340126
-0.0034006
-0.00339514
-0.00339352
-0.00339514
-0.0034006
-0.00338178
-0.00338144
-0.00338069
-0.00338144
-0.00338178
-0.00322249
-0.00322168
-0.00322115
-0.00322168
-0.00322249
-0.00294248
-0.00294426
-0.00294376
-0.00294426
-0.00294248
-0.00277455
-0.00277564
-0.00277535
-0.00277564
-0.00277455
-0.00248073
-0.00248061
-0.00248039
-0.00248061
-0.00248073
-0.00218948
-0.00218894