/*--------------------------------*- C++ -*----------------------------------*\
| =========                 |                                                 |
| \\      /  F ield         | OpenFOAM: The Open Source CFD Toolbox           |
|  \\    /   O peration     | Version:  v1806                                 |
|   \\  /    A nd           | Web:      www.OpenFOAM.com                      |
|    \\/     M anipulation  |                                                 |
\*---------------------------------------------------------------------------*/
FoamFile
{
    version     2.0;
    format      ascii;
    class       surfaceScalarField;
    location    "6";
    object      phi;
}
// * * * * * * * * * * * * * * * * * * * * * * * * * * * * * * * * * * * * * //

dimensions      [0 3 -1 0 0 0 0];
oriented        oriented;


internalField   nonuniform List<scalar> 
68400
(
0.0530115
0.00107717
0.00591137
0.0452158
0.00144246
0.00635324
0.0385631
0.0013148
0.00533791
0.0328963
0.00113019
0.00453658
0.0285052
0.000891501
0.00349959
0.0253934
0.000654111
0.00245767
0.0233014
0.000462946
0.00162908
0.0218967
0.000325604
0.00107905
0.0209404
0.000215263
0.00074109
0.0202948
0.000113828
0.000531777
0.0198794
9.26216e-06
0.000406093
0.0196359
-8.80489e-05
0.000331627
0.0195293
-0.000183971
0.000290548
0.0195293
-0.000271669
0.000271626
0.0196128
-0.000342439
0.000258922
0.0197557
-0.000393414
0.000250527
0.0199355
-0.000418145
0.000238397
0.0201294
-0.000414858
0.000220897
0.020314
-0.00038156
0.000197042
-0.0003189
0.00016847
0.0204644
0.0544902
0.000635097
0.00595189
0.048339
0.00105216
0.00654144
0.0431954
0.00104156
0.00541692
0.0386564
0.000918623
0.00475053
0.0349045
0.000726005
0.00391737
0.0320379
0.000499042
0.00302173
0.0299966
0.000276009
0.00222821
0.0286058
8.06692e-05
0.00163569
0.0276974
-9.95121e-05
0.00122325
0.0271441
-0.000272888
0.000939969
0.0268551
-0.000440332
0.000738635
0.0267651
-0.00060426
0.00060623
0.026824
-0.00075876
0.000515792
0.0269925
-0.000895928
0.000455809
0.0272448
-0.00100592
0.000411166
0.0275566
-0.00107861
0.000373449
0.0279035
-0.00110855
0.000343426
0.0282641
-0.00108666
0.000311275
0.0286154
-0.00101107
0.000278192
-0.000879122
0.000243284
0.0289323
0.054331
0.000359121
0.00594502
0.0481678
0.000676499
0.00653884
0.0431384
0.00070865
0.00536228
0.0387859
0.000608027
0.00466314
0.0352284
0.000437231
0.00384619
0.032522
0.00022264
0.00298285
0.0306053
-1.53868e-05
0.00220806
0.0293116
-0.000244653
0.00161906
0.0284845
-0.000474036
0.00120163
0.0280037
-0.00069996
0.000907888
0.0277893
-0.000921333
0.000695418
0.0277756
-0.00113369
0.00054313
0.0279129
-0.00133351
0.000437431
0.0281625
-0.0015068
0.00036126
0.0284962
-0.00164601
0.000306352
0.0288888
-0.00173373
0.000262567
0.029318
-0.0017654
0.00022763
0.0297624
-0.00172362
0.000192523
0.0301986
-0.00160761
0.000160353
-0.00141119
0.000129285
0.0306014
0.054207
0.000200696
0.00595143
0.0479126
0.000395371
0.00657553
0.0428093
0.000414501
0.00539744
0.0384395
0.000307745
0.00467006
0.0348965
0.0001378
0.00384246
0.0322255
-8.44812e-05
0.00297812
0.0303484
-0.000334809
0.00219654
0.0290991
-0.000601796
0.00160646
0.0283092
-0.000869794
0.0011856
0.0278641
-0.00114281
0.000887996
0.0276828
-0.00141015
0.000670112
0.0277044
-0.00166832
0.00051299
0.0278815
-0.00191004
0.000399422
0.0281767
-0.00211947
0.000317513
0.0285616
-0.00228769
0.00025677
0.0290106
-0.00239166
0.000208883
0.029502
-0.00242617
0.000169371
0.0300115
-0.00236503
0.00013192
0.0305141
-0.00220876
9.85558e-05
-0.00194591
6.89403e-05
0.0309799
0.0541294
0.000113566
0.0059577
0.0477491
0.000181262
0.00659444
0.0425802
0.000164704
0.00541866
0.0381839
3.11523e-05
0.00467293
0.0346287
-0.000139372
0.00383237
0.031967
-0.000382572
0.00295977
0.0301044
-0.000641116
0.00216894
0.0288758
-0.000944885
0.00157171
0.0281023
-0.0012413
0.00114502
0.0276753
-0.00156702
0.000851173
0.0275083
-0.00187642
0.000633232
0.0275504
-0.00219124
0.000480869
0.0277518
-0.00247714
0.000365668
0.0280816
-0.00273524
0.000286018
0.0285093
-0.0029391
0.000223662
0.0290113
-0.00307037
0.000176687
0.0295649
-0.00311574
0.000136024
0.0301415
-0.00304031
9.86357e-05
0.0307138
-0.00284721
6.61899e-05
-0.00251377
3.63837e-05
0.0312452
0.0540812
6.44467e-05
0.00596795
0.0476568
2.33993e-06
0.00660328
0.0424291
-4.74341e-05
0.00543987
0.0379962
-0.000225116
0.00468914
0.0343974
-0.000397217
0.00385669
0.0317221
-0.00068663
0.00297928
0.0298411
-0.000945495
0.00218547
0.028616
-0.00130704
0.00158717
0.027837
-0.00161609
0.00115382
0.0274232
-0.00201543
0.000862195
0.0272617
-0.00235197
0.00063709
0.0273263
-0.00274693
0.000491105
0.0275492
-0.003069
0.000368883
0.0279193
-0.00340048
0.00029517
0.0283935
-0.00364061
0.000227334
0.0289591
-0.00381959
0.00018358
0.0295868
-0.00388271
0.00013934
0.0302463
-0.00380161
0.000101808
0.0309068
-0.0035765
6.87498e-05
-0.00316468
3.59922e-05
0.0315217
0.0540345
4.27526e-05
0.00598719
0.047592
-0.000154663
0.00659947
0.0423046
-0.000217311
0.00545734
0.0378502
-0.000469853
0.00469912
0.0341972
-0.000621139
0.00387695
0.0315193
-0.000989966
0.00298122
0.0296027
-0.00121666
0.00218776
0.0283874
-0.00167756
0.00158584
0.0275819
-0.00196018
0.00114953
0.027189
-0.00248271
0.000860194
0.0270152
-0.00280397
0.000625818
0.0271129
-0.00333656
0.000491947
0.0273453
-0.00365761
0.000356233
0.0277681
-0.00412284
0.00029949
0.0282851
-0.00437503
0.00021741
0.0289312
-0.00465361
0.000187983
0.0296425
-0.00472832
0.000134245
0.0304058
-0.0046672
0.000102313
0.0311767
-0.0044162
6.88543e-05
-0.00391558
3.25264e-05
0.031895
0.0539834
3.91086e-05
0.0060202
0.0475526
-0.000297282
0.00657344
0.0421964
-0.00034033
0.00547929
0.037739
-0.000706343
0.00469383
0.0340033
-0.00079452
0.0039091
0.0313438
-0.00129954
0.0029691
0.0293597
-0.00143203
0.00219941
0.0281724
-0.00206954
0.00157926
0.0273045
-0.00224592
0.00115364
0.0269534
-0.00298969
0.000858115
0.0267333
-0.0032007
0.000616849
0.0268876
-0.00398984
0.000498987
0.0271001
-0.00421038
0.00034029
0.0276007
-0.00494178
0.000318356
0.0281424
-0.00511693
0.000200189
0.0288981
-0.00562096
0.000211585
0.0296933
-0.00564926
0.000125807
0.0305936
-0.00568596
0.00011844
0.0314996
-0.00539793
7.56914e-05
-0.00480439
3.84838e-05
0.03235
0.0539253
4.58735e-05
0.00606789
0.0475353
-0.000426551
0.00651932
0.0420941
-0.000415128
0.00551596
0.0376526
-0.000933173
0.00466832
0.0338053
-0.00090464
0.00395742
0.0311924
-0.00161404
0.00292747
0.0291059
-0.00156984
0.00222429
0.0279763
-0.0024857
0.00154577
0.0270005
-0.00243664
0.00116651
0.0267259
-0.00354526
0.000830175
0.0264095
-0.00349105
0.000606681
0.0266618
-0.00472863
0.000486555
0.0268036
-0.0046617
0.000309462
0.0274286
-0.0059002
0.000333407
0.0279527
-0.00579213
0.000151136
0.0288698
-0.0067901
0.000251994
0.0297242
-0.00658524
8.16212e-05
0.0308217
-0.00694224
0.000158798
0.0318764
-0.00652491
7.22309e-05
-0.00588208
5.35119e-05
0.0329006
0.0538649
5.70698e-05
0.00612393
0.0475395
-0.000539586
0.00643843
0.0419945
-0.000443665
0.00557351
0.037584
-0.00114173
0.00461907
0.033606
-0.00094581
0.00401912
0.0310581
-0.00191998
0.00285393
0.0288375
-0.00161582
0.00226654
0.0277862
-0.0029113
0.0014769
0.026663
-0.0025087
0.00119527
0.0264937
-0.00413775
0.000761723
0.0260288
-0.00363505
0.00060897
0.0264181
-0.00555453
0.000436567
0.0264248
-0.00494802
0.000279615
0.027229
-0.00703201
0.00032757
0.0276701
-0.0063086
7.5374e-05
0.0288175
-0.00825416
0.000316722
0.0296794
-0.00742838
-1.87826e-05
0.0310625
-0.00859958
0.000274213
0.0322359
-0.00775269
5.43803e-05
-0.00729927
0.000128378
0.0335247
0.0538088
7.22795e-05
0.00617599
0.0475616
-0.000638852
0.00634644
0.0419002
-0.000424281
0.00564205
0.0375227
-0.00132387
0.00455965
0.0334099
-0.000916201
0.00408319
0.0309267
-0.00220373
0.00276691
0.0285556
-0.00156403
0.00231928
0.0275852
-0.00332677
0.00138595
0.0262907
-0.00245063
0.00123641
0.0262366
-0.00474297
0.000659315
0.0255832
-0.00361103
0.000629414
0.026132
-0.00644425
0.000340899
0.0259472
-0.00502871
0.00026542
0.0269725
-0.00833655
0.000279258
0.0272625
-0.00659264
-5.88645e-06
0.0287108
-0.0100975
0.000394961
0.0295175
-0.00805699
-0.000178093
0.0312926
-0.0109012
0.000526592
0.0325392
-0.00898278
-1.65548e-05
-0.00938757
0.000387492
0.0342401
0.0537654
9.13638e-05
0.00621551
0.047596
-0.000733407
0.00626398
0.041816
-0.000354606
0.00571032
0.0374605
-0.00148113
0.00451273
0.0332235
-0.00081683
0.00413761
0.0307887
-0.00246411
0.00269526
0.0282711
-0.00141502
0.00236855
0.0273676
-0.00372712
0.00130383
0.0259026
-0.00225871
0.00127309
0.0259554
-0.00535343
0.000557717
0.0251002
-0.0034072
0.000651306
0.0258154
-0.00738845
0.00022902
0.0254051
-0.00487421
0.000255828
0.0266814
-0.00980875
0.000195861
0.0267692
-0.00659611
-8.43484e-05
0.0285794
-0.0123777
0.000470041
0.0292809
-0.00837454
-0.00038398
0.0315518
-0.0141233
0.000951188
0.0328526
-0.0101105
-0.000173082
-0.0126738
0.00101306
0.0351257
0.0537484
9.62633e-05
0.0062467
0.0476205
-0.000818628
0.00621308
0.0417522
-0.000260914
0.00577469
0.0373964
-0.00161357
0.00448822
0.0330604
-0.000689275
0.00420841
0.030642
-0.00270252
0.00265684
0.0280104
-0.00122002
0.00243663
0.0271483
-0.00411339
0.00124828
0.0255483
-0.00198482
0.00132617
0.0256953
-0.00597393
0.000473434
0.0246671
-0.00306052
0.000681516
0.0255663
-0.00841056
0.000122924
0.0249217
-0.00446255
0.000233006
0.0265173
-0.0114957
9.13444e-05
0.0263405
-0.00618978
-0.000229524
0.028598
-0.0151399
0.000504714
0.0291196
-0.00815585
-0.000740296
0.0319908
-0.0185247
0.00153006
0.0332929
-0.010886
-0.000526509
-0.0177489
0.00214357
0.0362244
0.0537826
4.20424e-05
0.00627167
0.047616
-0.000858638
0.00620658
0.0417297
-0.000218038
0.00584344
0.0373206
-0.00168115
0.00447661
0.0329503
-0.000651675
0.00433277
0.0304724
-0.0028598
0.00263517
0.0278048
-0.00115999
0.00260754
0.0269052
-0.00440379
0.00119003
0.0252571
-0.0018778
0.00154106
0.0254283
-0.00651138
0.000366235
0.0243321
-0.00285742
0.000893128
0.0253975
-0.00941131
-6.47072e-05
0.0245804
-0.00404874
0.000403291
0.02661
-0.0133237
-0.000201606
0.0260626
-0.00534242
-0.000299955
0.0290283
-0.0183972
0.000291553
0.0290909
-0.00681191
-0.00140653
0.0328002
-0.0242644
0.00203052
0.0337474
-0.0103132
-0.00152006
-0.0255434
0.00427811
0.0372638
0.0538915
-0.000108524
0.00625902
0.0475651
-0.000778546
0.00624634
0.0417624
-0.000327265
0.00591199
0.0372109
-0.00157761
0.00444793
0.0328993
-0.000846002
0.00450591
0.0302249
-0.00277128
0.00258591
0.0276254
-0.00146641
0.00290587
0.0265002
-0.00434358
0.00106504
0.0249327
-0.00231529
0.00200496
0.0248741
-0.00657136
0.000118583
0.0238593
-0.00344981
0.00160721
0.0247748
-0.00980627
-0.000520533
0.0240137
-0.00467968
0.00139202
0.0262691
-0.0145578
-0.00102132
0.0254886
-0.00532309
0.000761232
0.029586
-0.021639
-0.0008556
0.0289113
-0.00445714
-0.00168011
0.0340425
-0.0310128
0.00161716
0.0336912
-0.00674332
-0.00321856
-0.0384631
0.00812356
0.0384874
0.0540574
-0.000315987
0.00615006
0.0474854
-0.000526759
0.00632025
0.0418305
-0.000595527
0.00592313
0.0370501
-0.00123887
0.00444169
0.0328513
-0.00126013
0.00461292
0.0298541
-0.00231399
0.0025399
0.0273662
-0.00213183
0.00315327
0.0258222
-0.00371521
0.000915713
0.0243757
-0.00334145
0.0024726
0.023789
-0.00575509
-0.000229591
0.0229563
-0.00505021
0.00243313
0.0231451
-0.00882768
-0.00116736
0.0227433
-0.00724741
0.00296952
0.0240365
-0.0136786
-0.00217244
0.0238187
-0.00923016
0.00412485
0.0276602
-0.0222264
-0.00325402
0.0271247
-0.00729866
0.00337696
0.0357555
-0.0391828
-0.000460853
0.0332063
0.00126811
-0.00546219
-0.0581056
0.011359
0.0414898
0.0541953
-0.000428672
0.00591736
0.047459
-0.000236654
0.00644624
0.0418709
-0.000809491
0.00580206
0.0368695
-0.000850635
0.00461314
0.032784
-0.00164281
0.00446822
0.0294843
-0.00171471
0.00270038
0.0270514
-0.00270538
0.00300648
0.025139
-0.00289011
0.00108726
0.0237527
-0.00429272
0.00233754
0.0227023
-0.00465403
-5.06627e-05
0.0219491
-0.00665457
0.00235763
0.0215081
-0.00739136
-0.00099538
0.0213865
-0.0102146
0.00308882
0.0215883
-0.0117893
-0.00209112
0.0226454
-0.015616
0.00532872
0.023574
-0.0194369
-0.00371815
0.0263996
-0.0212723
0.011148
0.0317155
-0.0395953
-0.0049033
0.0285322
-0.00707128
0.0115226
-0.0849335
0.0100808
0.0452793
0.0542576
-0.000344016
0.00565771
0.0474921
-0.000118127
0.00664699
0.0418786
-0.000754929
0.00555899
0.0366976
-0.000704706
0.00503502
0.0327156
-0.00161253
0.00395178
0.0292226
-0.00145847
0.00323675
0.0268851
-0.00270124
0.00233333
0.0247284
-0.0025827
0.00184932
0.02344
-0.00437963
0.00137529
0.0220721
-0.00435089
0.00106471
0.0214469
-0.0070386
0.00100927
0.0205735
-0.00723236
0.000714384
0.0206281
-0.0114242
0.00115492
0.0202111
-0.0120613
0.00068904
0.0213892
-0.0191147
0.00232072
0.0214052
-0.0202886
0.000835756
0.025597
-0.0332174
0.00775326
0.0239142
-0.0373564
-0.000556054
0.0275909
-0.0395923
0.0288443
-0.105236
-0.00161637
0.0495097
0.0542486
-0.000172558
0.00557992
0.0474896
-0.000201659
0.00684259
0.0418657
-0.00051212
0.00538108
0.0366179
-0.000789494
0.00533256
0.0325697
-0.00119843
0.00363413
0.0290601
-0.00158589
0.00363702
0.0266626
-0.00213905
0.00183525
0.0244508
-0.00282504
0.00245421
0.0231592
-0.0036921
0.000604022
0.0216417
-0.00482412
0.00199078
0.0211176
-0.00634112
-0.000173367
0.0198852
-0.00815289
0.00215285
0.0200012
-0.0110077
-0.000532387
0.0188431
-0.0138933
0.00299009
0.019376
-0.0195427
-0.000104882
0.018469
-0.0239373
0.00455567
0.019637
-0.0366072
0.00222175
0.018385
-0.0429446
0.00684017
0.0255622
-0.0651016
0.0183321
-0.108053
-0.0198809
0.0482601
0.0542974
0.0054551
7.49135e-05
0.047424
0.00717064
-0.000498865
0.0419312
0.00517278
-0.000192074
0.0364561
0.00577693
-0.00109133
0.03254
0.0033166
-0.000598993
0.0288038
0.00417262
-0.0020223
0.0266215
0.00136002
-0.00131676
0.0240911
0.00311475
-0.00340938
0.0231262
-0.000107313
-0.00261984
0.0211001
0.00279298
-0.00559101
0.0209089
-0.00116221
-0.00498777
0.0188526
0.0030091
-0.0091057
0.0189507
-0.00188544
-0.00922033
0.016474
0.00350057
-0.0149172
0.0158982
-0.0021104
-0.0168566
0.0128768
0.00407647
-0.0249923
0.0101342
-0.00145454
-0.0324101
0.00472599
0.00673908
-0.0442755
0.0125331
-0.00639305
-0.0665157
-0.0416482
0.0375358
-0.0914073
0.0604778
0.00111277
0.00432081
0.0593967
0.00162756
0.00580671
0.0578783
0.00161019
0.00524612
0.0559319
0.00158362
0.00489945
0.0536821
0.00149183
0.00425749
0.051425
0.00135123
0.00336354
0.0493506
0.0011948
0.00250872
0.0475144
0.00104548
0.0018698
0.0459172
0.000899158
0.00143913
0.0445639
0.000749606
0.0011354
0.0434595
0.000596235
0.00091429
0.0425998
0.0004336
0.000757736
0.0419724
0.000269949
0.000647973
0.0415585
0.000106421
0.000579153
0.0413347
-4.492e-05
0.000527661
0.0412707
-0.000176603
0.000491087
0.041336
-0.000288454
0.000461512
0.0414971
-0.000372688
0.000432521
0.0417172
-0.000424909
0.0004019
-0.000440551
0.000367839
0.0419583
0.0620762
0.000657268
0.00433118
0.0631245
0.00119205
0.00592868
0.0634197
0.00129852
0.00543339
0.0633563
0.00130723
0.00509028
0.0628861
0.00125179
0.00462764
0.0621854
0.001135
0.00393867
0.0614398
0.000973034
0.00319551
0.0607562
0.00078913
0.00257564
0.0601731
0.000594184
0.00211135
0.0597078
0.000386438
0.00176845
0.0593828
0.000166319
0.00149357
0.0592038
-6.69138e-05
0.00128568
0.0591785
-0.000318933
0.00112997
0.0592958
-0.000564708
0.00100968
0.0595496
-0.000799673
0.000912066
0.0599232
-0.0010064
0.000829662
0.0603962
-0.00118527
0.000767227
0.0609469
-0.00131559
0.000703552
0.0615477
-0.00139272
0.000645152
-0.00140375
0.000586537
0.0621677
0.061917
0.000370109
0.0043152
0.0629779
0.000749969
0.00592001
0.0633657
0.000871172
0.0054018
0.0634731
0.000869961
0.00499299
0.0632397
0.00080155
0.0045299
0.0628108
0.000677888
0.00386888
0.062349
0.000502601
0.00314028
0.0619441
0.000288025
0.00252506
0.0616352
3.85899e-05
0.00206616
0.061429
-0.000220854
0.00172132
0.0613519
-0.000510204
0.00144907
0.0614078
-0.000809568
0.0012299
0.0615978
-0.00112765
0.00105613
0.0619159
-0.00143865
0.000917129
0.0623548
-0.00174103
0.000808752
0.0628982
-0.00200436
0.000717152
0.0635306
-0.00223394
0.000643879
0.0642346
-0.00239785
0.000570825
0.0649853
-0.00248891
0.000505775
-0.0024901
0.000443494
0.0657575
0.0617995
0.000209216
0.00431281
0.06274
0.000437406
0.00594761
0.0630571
0.000520481
0.00543106
0.0631181
0.000486176
0.00499279
0.0628583
0.000389001
0.00451481
0.0624256
0.000233971
0.00385481
0.0619778
3.05211e-05
0.00311638
0.0616028
-0.000227068
0.00249652
0.0613253
-0.000523911
0.00202569
0.0611611
-0.000845736
0.00167705
0.0611284
-0.00120569
0.00139824
0.061233
-0.00157314
0.00117197
0.061478
-0.00196558
0.000992426
0.0618553
-0.00234615
0.000847657
0.0623589
-0.00272031
0.000732466
0.0629719
-0.00304376
0.000635304
0.0636807
-0.00332766
0.0005543
0.0644659
-0.00352703
0.000475844
0.0653034
-0.00363489
0.000407033
-0.00362592
0.000344162
0.066164
0.0617253
0.000126948
0.00431464
0.0625905
0.00020164
0.00596501
0.0628436
0.000232087
0.00545396
0.0628645
0.000138292
0.00499994
0.0625647
1.24499e-05
0.00450872
0.0621096
-0.000191089
0.00383994
0.0616463
-0.000428426
0.00309114
0.0612677
-0.000737049
0.00246031
0.0609869
-0.00107585
0.00197775
0.0608271
-0.00146471
0.00162995
0.0607974
-0.00188904
0.00134629
0.0609131
-0.00233288
0.00112491
0.0611742
-0.00280428
0.000943248
0.0615776
-0.00326358
0.000800053
0.0621175
-0.00372007
0.000683508
0.0627777
-0.00411366
0.000586366
0.0635483
-0.00446602
0.000503847
0.0644038
-0.00470853
0.000424657
0.0653212
-0.00484366
0.00035754
-0.00482981
0.000294796
0.0662667
0.0616775
9.38936e-05
0.00432347
0.0625131
-1.50491e-06
0.0059709
0.0627021
6.23745e-06
0.0054767
0.0626904
-0.000183477
0.00502254
0.0623276
-0.000300836
0.00453283
0.0618455
-0.000598755
0.003869
0.0613318
-0.000838495
0.00310925
0.0609331
-0.00123898
0.00248784
0.0606154
-0.0015954
0.00199105
0.0604453
-0.00208394
0.00165154
0.060395
-0.00255451
0.00135288
0.0605124
-0.00310145
0.00114223
0.0607748
-0.00364754
0.000949772
0.0611999
-0.00420659
0.000813101
0.0617705
-0.00475588
0.000692474
0.0624802
-0.0052364
0.000596605
0.0633188
-0.00567767
0.000512463
0.0642543
-0.00597473
0.000432464
0.0652688
-0.00615715
0.000367776
-0.00614458
0.000302126
0.0663174
0.0616274
0.00010951
0.0043442
0.0624669
-0.000202208
0.00596069
0.0625778
-0.000146935
0.00549957
0.0625553
-0.000502749
0.00504091
0.0621183
-0.000545247
0.00455829
0.0616345
-0.00101597
0.00388226
0.0610524
-0.00117734
0.00310871
0.0606539
-0.00175684
0.00250228
0.0602745
-0.00205033
0.00198381
0.0601117
-0.00272603
0.00166513
0.0600151
-0.00316821
0.00133604
0.0601497
-0.00389918
0.00115514
0.0603924
-0.00446794
0.000933919
0.0608521
-0.00519059
0.000823813
0.0614422
-0.00581509
0.000686505
0.0622145
-0.00642422
0.000603462
0.063126
-0.00697037
0.000515482
0.064156
-0.00734027
0.000437821
0.0652887
-0.0076013
0.000380334
-0.00759356
0.000310627
0.0664596
0.0615677
0.00017871
0.00438332
0.0624493
-0.000431336
0.00592097
0.0624568
-0.000202865
0.00552772
0.0624629
-0.000857068
0.00504204
0.0619096
-0.000679778
0.00459693
0.0614652
-0.00148265
0.00388011
0.0607702
-0.00139224
0.00310933
0.0604119
-0.00233628
0.00251703
0.0599177
-0.00237714
0.00197463
0.0597979
-0.00344145
0.00169339
0.0596025
-0.00366317
0.0013072
0.0597869
-0.004778
0.0011934
0.0599623
-0.00520375
0.000900725
0.0604873
-0.00626364
0.000866367
0.0610593
-0.00685565
0.00066881
0.0619239
-0.00771608
0.000638838
0.0628952
-0.00834127
0.00052534
0.0640426
-0.00883333
0.000464115
0.0653161
-0.00921396
0.000414846
-0.00920929
0.000340766
0.0666296
0.0614949
0.000308082
0.00444366
0.0624501
-0.00071252
0.00584527
0.0623286
-0.000141534
0.00557609
0.0624065
-0.0012782
0.00501159
0.0616902
-0.000662997
0.00465699
0.0613307
-0.00203864
0.0038429
0.0604694
-0.001426
0.00311933
0.0602032
-0.00303413
0.00250987
0.0595281
-0.00249704
0.00196149
0.0595061
-0.00430489
0.00171567
0.0591385
-0.00394008
0.0012511
0.0594317
-0.0058322
0.00124762
0.059464
-0.00574432
0.000817735
0.0601161
-0.007532
0.000949609
0.060596
-0.00777578
0.000591433
0.0616195
-0.00921173
0.000724128
0.0625876
-0.00972933
0.000501562
0.0639167
-0.0105291
0.00052555
0.0653337
-0.0110225
0.000463749
-0.0110323
0.000395648
0.0668146
0.0614137
0.000500287
0.004518
0.0624594
-0.00105657
0.00573682
0.062191
4.76542e-05
0.00565273
0.0623693
-0.00178058
0.00494313
0.0614564
-0.000469647
0.00473863
0.0612185
-0.00270835
0.00376162
0.0601404
-0.00123347
0.00315205
0.0600076
-0.00389061
0.00246621
0.0590868
-0.00234145
0.00196042
0.0592108
-0.00538128
0.00171418
0.0585924
-0.00389973
0.00118702
0.0590464
-0.00716485
0.0013152
0.0588455
-0.00595784
0.000694014
0.0596831
-0.00914203
0.00110005
0.0599786
-0.00842366
0.000427748
0.0612388
-0.0110872
0.000932
0.0620986
-0.0110019
0.000393933
0.0637261
-0.0126012
0.00071882
0.0652191
-0.0130023
0.00054109
-0.0131636
0.000542926
0.0669359
0.0613314
0.000757443
0.00458743
0.0624679
-0.00146631
0.00561964
0.0620508
0.000361425
0.00574546
0.0623357
-0.00236226
0.00485639
0.0612145
-9.26692e-05
0.00482741
0.0611085
-0.00349263
0.00365715
0.0597827
-0.000795736
0.00320741
0.0597993
-0.00491611
0.00239488
0.0585841
-0.00187171
0.00198184
0.0588803
-0.00670296
0.00168482
0.0579395
-0.00347271
0.00114322
0.0585876
-0.00884968
0.00137761
0.05807
-0.00573451
0.000559699
0.0591249
-0.0112304
0.0013127
0.0591626
-0.00865364
0.000186354
0.0607066
-0.0135505
0.00131427
0.0613907
-0.0119963
0.000132085
0.0634362
-0.0153059
0.0011858
0.0648685
-0.0150263
0.000575314
-0.0158593
0.00091274
0.0670389
0.0612601
0.00107482
0.00463801
0.0624768
-0.00193922
0.00552023
0.0619241
0.000793974
0.00583048
0.0623035
-0.00300867
0.00477974
0.0609886
0.000450239
0.0049096
0.0610036
-0.00437253
0.00356012
0.0594298
-0.000120272
0.00326692
0.0595952
-0.00609325
0.00231549
0.0580676
-0.00108017
0.00200916
0.0585551
-0.00826804
0.00163532
0.0572404
-0.00262269
0.00111595
0.0581215
-0.0109204
0.00141867
0.0572135
-0.0049977
0.000427045
0.0585195
-0.0138876
0.00154709
0.0582633
-0.00836858
-0.000113248
0.0601006
-0.0167743
0.0018566
0.0606399
-0.0126129
-0.00030665
0.0631756
-0.018907
0.00201658
0.0645384
-0.016967
0.00040472
-0.0194577
0.00174535
0.0674044
0.0612315
0.00140204
0.00468801
0.0624955
-0.00242888
0.00543873
0.0618575
0.00128922
0.00591745
0.0623013
-0.00366296
0.00469871
0.0608479
0.00109718
0.0050148
0.0609576
-0.00527373
0.00344841
0.0591918
0.000723328
0.00335884
0.0595083
-0.00734056
0.00217907
0.0577068
-1.14698e-05
0.00205897
0.0584418
-0.010012
0.00148238
0.0567435
-0.00132728
0.00108439
0.0579795
-0.0133546
0.00132105
0.056598
-0.00363317
0.000249942
0.0583083
-0.0171625
0.00165597
0.0576657
-0.00741858
-0.00053697
0.059843
-0.0208527
0.0024059
0.0603082
-0.0127964
-0.00102205
0.0632632
-0.0235225
0.00319059
0.0646546
-0.0187934
-9.14968e-05
-0.0242323
0.00324777
0.068325
0.0613057
0.00158398
0.00478402
0.0625193
-0.00277078
0.00533491
0.061924
0.00165667
0.00607127
0.0623323
-0.00412529
0.00453061
0.0608927
0.00161528
0.00525428
0.0609978
-0.00595533
0.00321172
0.0592014
0.00147649
0.0036507
0.0596127
-0.00837884
0.00181703
0.0576881
0.00110035
0.00235382
0.0586857
-0.0116085
0.000965275
0.0567216
0.000234417
0.00129552
0.0584705
-0.0158597
0.000691535
0.0565787
-0.0015546
0.000216508
0.0590325
-0.0209355
0.00111761
0.0576809
-0.00526687
-0.00110004
0.060552
-0.0259141
0.0024817
0.0605984
-0.011986
-0.00226331
0.063803
-0.0291462
0.00444971
0.0653293
-0.0207858
-0.00105392
-0.0297454
0.00575242
0.0693681
0.0615243
0.00138731
0.00493142
0.0624974
-0.00266724
0.00516966
0.0621221
0.00155629
0.00638765
0.0622698
-0.00400836
0.00418329
0.0610619
0.00154211
0.005787
0.0608741
-0.00591558
0.00273395
0.0593017
0.00151976
0.00443502
0.0594644
-0.00853686
0.00106037
0.0577197
0.00144272
0.00340729
0.0586252
-0.0122538
-0.000141706
0.0566984
0.00121642
0.00255199
0.0587173
-0.0174578
-0.000941311
0.0565737
0.000615136
0.00136583
0.0598955
-0.024353
-0.000925523
0.0576758
-0.00155039
-0.000735522
0.0619565
-0.0318483
0.00079787
0.0604699
-0.00843182
-0.00374769
0.0645908
-0.036743
0.00509302
0.0656811
-0.0219902
-0.0031044
-0.0348981
0.0096679
0.0692894
0.0618116
0.000747658
0.00497811
0.0623659
-0.00189964
0.00499837
0.0623109
0.000783643
0.00675077
0.0619244
-0.0030086
0.00382844
0.0610845
0.000556821
0.00643816
0.0601623
-0.00469653
0.00224301
0.0589944
0.000284797
0.00555617
0.058173
-0.00705592
0.00025612
0.056893
-3.52758e-05
0.00523061
0.0565588
-0.0106169
-0.00153222
0.0551863
-0.000312735
0.00533476
0.0559057
-0.0161873
-0.00315723
0.0542904
-0.000134222
0.00533426
0.057075
-0.0249196
-0.0043905
0.0549077
0.000842392
0.00389935
0.0608262
-0.0370834
-0.00393735
0.0576064
-0.000558728
-0.0012763
0.0656097
-0.0480498
0.00284259
0.0637448
-0.0187544
-0.00683307
-0.0421679
0.0140916
0.0682819
0.0619461
6.07051e-05
0.00465824
0.0621948
-0.000843584
0.00514143
0.062367
-0.000184325
0.00659784
0.0615543
-0.0016263
0.00404358
0.0610208
-0.000831412
0.00638993
0.0594182
-0.00281817
0.00242465
0.0585776
-0.00163298
0.00576483
0.0566726
-0.00449782
0.000434176
0.055936
-0.00283366
0.0058725
0.0538382
-0.0070771
-0.00149271
0.0534268
-0.00441645
0.0068728
0.0511201
-0.0113337
-0.00354224
0.0512378
-0.00602283
0.00885966
0.0493655
-0.0191151
-0.00602322
0.0498527
-0.00603722
0.0117211
0.0521521
-0.0345391
-0.0085618
0.0509642
-0.000770732
0.0125478
0.0631754
-0.0595036
-0.0056607
0.0571299
-0.00403016
0.00284397
-0.0610759
0.0161741
0.0699445
0.0618286
-0.000145297
0.00403511
0.0621757
-0.000318997
0.00577528
0.0623614
-0.000538116
0.00572712
0.0616131
-0.00092404
0.005081
0.0609057
-0.0013248
0.00515259
0.0594268
-0.00182677
0.00372427
0.0584227
-0.00238063
0.00408514
0.0566761
-0.0030749
0.00217299
0.0557271
-0.00408755
0.00357815
0.0537935
-0.00494025
0.000861491
0.0532528
-0.00683069
0.00396425
0.0509674
-0.00789048
-0.000443581
0.0515852
-0.0111444
0.00565873
0.0483337
-0.0130714
-0.0021032
0.0514296
-0.0170278
0.0102155
0.0464845
-0.0243388
-0.00441945
0.0520245
-0.0198142
0.0212566
0.0545639
-0.0553207
-0.00727833
0.0532723
-0.00465644
0.0307623
-0.0927607
0.00456051
0.0787802
0.0616395
0.000255856
0.0035393
0.0622611
-0.000629865
0.00653179
0.0621826
1.66543e-05
0.00490481
0.0617224
-0.00129266
0.00616145
0.0606747
-0.000545326
0.00390229
0.0595441
-0.00223343
0.00517431
0.0582101
-0.00138016
0.00216877
0.0568599
-0.00355578
0.00428526
0.0555625
-0.00288177
0.000695692
0.0541599
-0.00551917
0.00397223
0.053172
-0.00557685
-0.000439249
0.0518189
-0.00852879
0.00414426
0.0515008
-0.0105279
-0.000830802
0.0501227
-0.0132969
0.00459368
0.0516681
-0.0197329
0.00105475
0.0487218
-0.0218241
0.00498731
0.0550019
-0.0353372
0.0114646
0.047364
-0.0443077
0.00346511
0.0594559
-0.0390498
0.0406334
-0.11375
-0.0186006
0.0791649
0.0617189
0.0031484
0.000843659
0.0622697
0.0073437
-0.00135369
0.0624257
0.00428158
0.00075179
0.0617869
0.00721526
-0.00209212
0.0610582
0.00298568
0.000514276
0.0597177
0.00643024
-0.00315056
0.0589329
0.000798277
-3.35942e-05
0.0572814
0.00586221
-0.00465181
0.0568352
-0.00138724
-0.00115566
0.054998
0.00603524
-0.00692417
0.0551062
-0.00352204
-0.00332526
0.053134
0.0069629
-0.0105103
0.0536699
-0.00555
-0.00739924
0.0515223
0.008635
-0.0162837
0.0514256
-0.0065806
-0.015166
0.0484476
0.0109285
-0.0256981
0.0472002
-0.00401497
-0.0315293
0.0399125
0.0116243
-0.0419051
0.0523703
0.00561914
-0.0635198
-0.0481517
0.0471584
-0.102035
0.0605994
0.00110272
0.00261865
0.0608989
0.00160686
0.0039004
0.0609284
0.0015986
0.00361804
0.060772
0.0015838
0.003472
0.0603013
0.00154125
0.00318699
0.0595423
0.00145361
0.0026689
0.0586178
0.00133802
0.00209518
0.0576254
0.00122198
0.00164027
0.0566286
0.00110575
0.00133022
0.0556778
0.000981932
0.00110422
0.0548147
0.00085226
0.000925128
0.0540725
0.000711022
0.000788951
0.0534709
0.000565971
0.000683557
0.0530227
0.000416567
0.000610755
0.0527284
0.000270652
0.000551327
0.0525797
0.000134086
0.000505728
0.0525604
9.49207e-06
0.000471364
0.0526465
-9.11111e-05
0.000437462
0.0528116
-0.000168837
0.000405616
-0.000218176
0.000374563
0.0530231
0.0621659
0.000651653
0.0026163
0.064538
0.00118663
0.00397681
0.0664614
0.00130536
0.00380327
0.0681973
0.0013236
0.00361456
0.0696217
0.00130742
0.00343708
0.0706886
0.00124602
0.00307936
0.0714689
0.00113596
0.00261729
0.072068
0.00099778
0.00220079
0.0725613
0.000844238
0.00187947
0.0729926
0.000676718
0.00164241
0.0734056
0.000491004
0.0014418
0.0738288
0.000292749
0.00128079
0.0742903
8.40988e-05
0.00115029
0.0748038
-0.000137355
0.00105018
0.0753874
-0.000364234
0.000963308
0.0760368
-0.000567666
0.000882052
0.0767459
-0.00075353
0.000821141
0.0775095
-0.000913652
0.000762447
0.0783121
-0.00103372
0.000707488
-0.00110204
0.00065078
0.0791317
0.0619996
0.000368531
0.00259877
0.0643799
0.000754392
0.00397187
0.0664147
0.000885337
0.0037871
0.068289
0.000896388
0.00354592
0.0699128
0.000853543
0.00335996
0.0712333
0.000775618
0.00301872
0.0723033
0.000644567
0.0025617
0.0732012
0.00048154
0.00214334
0.0740018
0.000281547
0.00182834
0.0747423
6.47559e-05
0.00159269
0.0754636
-0.000180148
0.00139896
0.0761896
-0.000437152
0.00123381
0.0769432
-0.000714359
0.00110096
0.0777368
-0.000997568
0.000983802
0.0785818
-0.00129191
0.000891427
0.0794782
-0.00155537
0.000808441
0.0804177
-0.00179203
0.000742871
0.0813985
-0.00199986
0.000676204
0.0824097
-0.00215347
0.000614343
-0.00223846
0.000553767
0.0834359
0.0618798
0.000209847
0.00259169
0.064152
0.00044219
0.00398762
0.0661356
0.000531731
0.00380103
0.0679682
0.000513733
0.00354292
0.0695627
0.000433563
0.00334024
0.0708736
0.000319983
0.00299951
0.0719491
0.000150178
0.00253526
0.0728647
-4.95366e-05
0.00211201
0.0736892
-0.000303913
0.00178664
0.0744573
-0.000569826
0.00154351
0.0752137
-0.00088405
0.0013458
0.0759818
-0.00120828
0.00117499
0.0767818
-0.00155747
0.00103552
0.0776262
-0.00190989
0.000915555
0.0785294
-0.00228025
0.000817686
0.0794885
-0.0026108
0.000731551
0.080496
-0.00290554
0.000660368
0.0815488
-0.00316502
0.000588141
0.0826376
-0.00335746
0.000522291
-0.00346156
0.000461594
0.0837432
0.0618036
0.000131439
0.00258943
0.0640087