x,y,z,p
0,0,0,0.00018628
0,0.1,0,0.000409868
0,0.2,0,0.000633455
0,0.3,0,0.000894399
0,0.4,0,0.0011927
0,0.5,0,0.00149099
0,0.6,0,0.00178966
0,0.7,0,0.00208833
0,0.8,0,0.00238726
0,0.9,0,0.00268642
0,1,0,0.00298559
0,1.1,0,0.00328533
0,1.2,0,0.00358506
0,1.3,0,0.00388506
0,1.4,0,0.00418533
0,1.5,0,0.0044856
0,1.6,0,0.00478627
0,1.7,0,0.00508695
0,1.8,0,0.00538771
0,1.9,0,0.00568853
0,2,0,0.00598935
0,2.1,0,0.00628988
0,2.2,0,0.00659041
0,2.3,0,0.00689049
0,2.4,0,0.0071901
0,2.5,0,0.00748971
0,2.6,0,0.00778754
0,2.7,0,0.00808537
0,2.8,0,0.00838175
0,2.9,0,0.00867668
0,3,0,0.0089716
0,3.1,0,0.00926219
0,3.2,0,0.00955278
0,3.3,0,0.00984032
0,3.4,0,0.0101248
0,3.5,0,0.0104093
0,3.6,0,0.0106856
0,3.7,0,0.0109619
0,3.8,0,0.0112328
0,3.9,0,0.0114984
0,4,0,0.011764
0,4.1,0,0.0120161
0,4.2,0,0.0122682
0,4.3,0,0.0125119
0,4.4,0,0.0127473
0,4.5,0,0.0129827
0,4.6,0,0.0131979
0,4.7,0,0.0134132
0,4.8,0,0.0135994
0,4.9,0,0.0137565
0,5,0,0.0139136
0,5.1,0,0.0141759
0,5.2,0,0.0143379
0,5.3,0,0.0144881
0,5.4,0,0.0146258
0,5.5,0,0.0147504
0,5.6,0,0.0148617
0,5.7,0,0.014959
0,5.8,0,0.015042
0,5.9,0,0.0151103
0,6,0,0.0151638
0,6.1,0,0.015202
0,6.2,0,0.0152249
0,6.3,0,0.0152323
0,6.4,0,0.015224
0,6.5,0,0.0152001
0,6.6,0,0.0151606
0,6.7,0,0.0151057
0,6.8,0,0.0150354
0,6.9,0,0.01495
0,7,0,0.0147869
0,7.1,0,0.0146809
0,7.2,0,0.0145749
0,7.3,0,0.0144602
0,7.4,0,0.0142957
0,7.5,0,0.0141313
0,7.6,0,0.0139569
0,7.7,0,0.0137595
0,7.8,0,0.0135621
0,7.9,0,0.0133521
0,8,0,0.0131268
0,8.1,0,0.0129015
0,8.2,0,0.0126626
0,8.3,0,0.0124146
0,8.4,0,0.0121666
0,8.5,0,0.0119055
0,8.6,0,0.0116399
0,8.7,0,0.0113744
0,8.8,0,0.0110973
0,8.9,0,0.0108189
0,9,0,0.0105401
0,9.1,0,0.0102531
0,9.2,0,0.00996611
0,9.3,0,0.00967806
0,9.4,0,0.0093859
0,9.5,0,0.00909374
0,9.6,0,0.00880079
0,9.7,0,0.00850636
0,9.8,0,0.00821193
0,9.9,0,0.00791745
0,10,0,0.00762294
0,10.1,0,0.00732843
0,10.2,0,0.00703491
0,10.3,0,0.0067419
0,10.4,0,0.0064489
0,10.5,0,0.00615795
0,10.6,0,0.00586752
0,10.7,0,0.00557708
0,10.8,0,0.00528963
0,10.9,0,0.00500234
0,11,0,0.00471539
0,11.1,0,0.00443145
0,11.2,0,0.00414752
0,11.3,0,0.0038644
0,11.4,0,0.00358372
0,11.5,0,0.00330304
0,11.6,0,0.00302352
0,11.7,0,0.00274574
0,11.8,0,0.00246796
0,11.9,0,0.00219147
0,12,0,0.00191604
0,12.1,0,0.00164062
0,12.2,0,0.00136635
0,12.3,0,0.00109259
0,12.4,0,0.000818821
0,12.5,0,0.000603483
0,12.6,0,0.000398456
0,12.7,0,0.000193428
0.1,0,0,0.000111768
0.1,0.1,0,0.000335303
0.1,0.2,0,0.000596129
0.1,0.3,0,0.000894281
0.1,0.4,0,0.00119255
0.1,0.5,0,0.00149083
0.1,0.6,0,0.00178944
0.1,0.7,0,0.00208811
0.1,0.8,0,0.00238701
0.1,0.9,0,0.00268615
0.1,1,0,0.00298534
0.1,1.1,0,0.00328504
0.1,1.2,0,0.00358479
0.1,1.3,0,0.00388481
0.1,1.4,0,0.00418507
0.1,1.5,0,0.0044854
0.1,1.6,0,0.00478612
0.1,1.7,0,0.00508684
0.1,1.8,0,0.00538767
0.1,1.9,0,0.00568854
0.1,2,0,0.00598945
0.1,2.1,0,0.00629016
0.1,2.2,0,0.00659073
0.1,2.3,0,0.00689099
0.1,2.4,0,0.00719074
0.1,2.5,0,0.00749043
0.1,2.6,0,0.00778868
0.1,2.7,0,0.00808654
0.1,2.8,0,0.00838324
0.1,2.9,0,0.00867845
0.1,3,0,0.0089734
0.1,3.1,0,0.00926475
0.1,3.2,0,0.00955533
0.1,3.3,0,0.00984336
0.1,3.4,0,0.0101283
0.1,3.5,0,0.0104128
0.1,3.6,0,0.0106903
0.1,3.7,0,0.0109664
0.1,3.8,0,0.011238
0.1,3.9,0,0.0115044
0.1,4,0,0.0117697
0.1,4.1,0,0.0120236
0.1,4.2,0,0.0122754
0.1,4.3,0,0.01252
0.1,4.4,0,0.0127565
0.1,4.5,0,0.0129911
0.1,4.6,0,0.0132088
0.1,4.7,0,0.0134237
0.1,4.8,0,0.0136281
0.1,4.9,0,0.0138038
0.1,5,0,0.0139244
0.1,5.1,0,0.0141873
0.1,5.2,0,0.0143498
0.1,5.3,0,0.0145004
0.1,5.4,0,0.0146386
0.1,5.5,0,0.0147636
0.1,5.6,0,0.0148752
0.1,5.7,0,0.0149729
0.1,5.8,0,0.0150563
0.1,5.9,0,0.0151249
0.1,6,0,0.0151786
0.1,6.1,0,0.0152171
0.1,6.2,0,0.0152401
0.1,6.3,0,0.0152475
0.1,6.4,0,0.0152393
0.1,6.5,0,0.0152154
0.1,6.6,0,0.0151758
0.1,6.7,0,0.0151208
0.1,6.8,0,0.0150503
0.1,6.9,0,0.0149647
0.1,7,0,0.0148015
0.1,7.1,0,0.0147235
0.1,7.2,0,0.0146131
0.1,7.3,0,0.0144749
0.1,7.4,0,0.0143159
0.1,7.5,0,0.0141484
0.1,7.6,0,0.0139706
0.1,7.7,0,0.0137769
0.1,7.8,0,0.0135759
0.1,7.9,0,0.0133641
0.1,8,0,0.0131412
0.1,8.1,0,0.012912
0.1,8.2,0,0.0126726
0.1,8.3,0,0.012426
0.1,8.4,0,0.0121742
0.1,8.5,0,0.0119134
0.1,8.6,0,0.0116484
0.1,8.7,0,0.0113795
0.1,8.8,0,0.0111031
0.1,8.9,0,0.0108245
0.1,9,0,0.0105434
0.1,9.1,0,0.0102569
0.1,9.2,0,0.00996936
0.1,9.3,0,0.00967994
0.1,9.4,0,0.00938791
0.1,9.5,0,0.00909523
0.1,9.6,0,0.00880151
0.1,9.7,0,0.00850694
0.1,9.8,0,0.00821216
0.1,9.9,0,0.00791722
0.1,10,0,0.00762245
0.1,10.1,0,0.00732785
0.1,10.2,0,0.00703394
0.1,10.3,0,0.00674067
0.1,10.4,0,0.00644786
0.1,10.5,0,0.00615647
0.1,10.6,0,0.00586586
0.1,10.7,0,0.00557583
0.1,10.8,0,0.00528784
0.1,10.9,0,0.00500057
0.1,11,0,0.00471404
0.1,11.1,0,0.00442955
0.1,11.2,0,0.00414583
0.1,11.3,0,0.00386304
0.1,11.4,0,0.00358194
0.1,11.5,0,0.00330158
0.1,11.6,0,0.00302227
0.1,11.7,0,0.00274422
0.1,11.8,0,0.00246681
0.1,11.9,0,0.00219045
0.1,12,0,0.00191488
0.1,12.1,0,0.00163985
0.1,12.2,0,0.00136566
0.1,12.3,0,0.00109186
0.1,12.4,0,0.000818436
0.1,12.5,0,0.000545515
0.1,12.6,0,0.000320856
0.1,12.7,0,0.000116057
0.2,0,0,3.72559e-05
0.2,0.1,0,0.000298029
0.2,0.2,0,0.000596041
0.2,0.3,0,0.000894193
0.2,0.4,0,0.00119242
0.2,0.5,0,0.00149067
0.2,0.6,0,0.00178928
0.2,0.7,0,0.00208789
0.2,0.8,0,0.00238679
0.2,0.9,0,0.00268593
0.2,1,0,0.00298509
0.2,1.1,0,0.00328481
0.2,1.2,0,0.00358455
0.2,1.3,0,0.00388456
0.2,1.4,0,0.00418488
0.2,1.5,0,0.00448521
0.2,1.6,0,0.00478597
0.2,1.7,0,0.00508676
0.2,1.8,0,0.00538759
0.2,1.9,0,0.00568859
0.2,2,0,0.00598955
0.2,2.1,0,0.0062903
0.2,2.2,0,0.00659109
0.2,2.3,0,0.00689135
0.2,2.4,0,0.00719132
0.2,2.5,0,0.00749116
0.2,2.6,0,0.00778943
0.2,2.7,0,0.00808774
0.2,2.8,0,0.00838444
0.2,2.9,0,0.00867996
0.2,3,0,0.0089752
0.2,3.1,0,0.00926655
0.2,3.2,0,0.00955788
0.2,3.3,0,0.00984591
0.2,3.4,0,0.0101313
0.2,3.5,0,0.0104162
0.2,3.6,0,0.0106936
0.2,3.7,0,0.010971
0.2,3.8,0,0.0112425
0.2,3.9,0,0.0115093
0.2,4,0,0.0117754
0.2,4.1,0,0.0120291
0.2,4.2,0,0.0122825
0.2,4.3,0,0.0125271
0.2,4.4,0,0.0127639
0.2,4.5,0,0.0129996
0.2,4.6,0,0.0132169
0.2,4.7,0,0.0134336
0.2,4.8,0,0.013638
0.2,4.9,0,0.013796
0.2,5,0,0.0139353
0.2,5.1,0,0.0141987
0.2,5.2,0,0.0143617
0.2,5.3,0,0.0145128
0.2,5.4,0,0.0146513
0.2,5.5,0,0.0147768
0.2,5.6,0,0.0148888
0.2,5.7,0,0.0149869
0.2,5.8,0,0.0150706
0.2,5.9,0,0.0151395
0.2,6,0,0.0151935
0.2,6.1,0,0.0152321
0.2,6.2,0,0.0152552
0.2,6.3,0,0.0152628
0.2,6.4,0,0.0152546
0.2,6.5,0,0.0152306
0.2,6.6,0,0.015191
0.2,6.7,0,0.0151359
0.2,6.8,0,0.0150653
0.2,6.9,0,0.0149795
0.2,7,0,0.0148162
0.2,7.1,0,0.0147258
0.2,7.2,0,0.0146193
0.2,7.3,0,0.0144889
0.2,7.4,0,0.0143259
0.2,7.5,0,0.01416
0.2,7.6,0,0.0139829
0.2,7.7,0,0.0137855
0.2,7.8,0,0.0135863
0.2,7.9,0,0.0133745
0.2,8,0,0.0131481
0.2,8.1,0,0.0129205
0.2,8.2,0,0.0126809
0.2,8.3,0,0.0124313
0.2,8.4,0,0.0121808
0.2,8.5,0,0.0119193
0.2,8.6,0,0.0116522
0.2,8.7,0,0.0113842
0.2,8.8,0,0.011107
0.2,8.9,0,0.0108273
0.2,9,0,0.0105466
0.2,9.1,0,0.0102593
0.2,9.2,0,0.00997109
0.2,9.3,0,0.0096818
0.2,9.4,0,0.0093891
0.2,9.5,0,0.00909601
0.2,9.6,0,0.0088023
0.2,9.7,0,0.00850727
0.2,9.8,0,0.00821213
0.2,9.9,0,0.00791719
0.2,10,0,0.00762217
0.2,10.1,0,0.00732723
0.2,10.2,0,0.00703333
0.2,10.3,0,0.00673999
0.2,10.4,0,0.00644685
0.2,10.5,0,0.00615555
0.2,10.6,0,0.00586493
0.2,10.7,0,0.00557461
0.2,10.8,0,0.00528682
0.2,10.9,0,0.00499947
0.2,11,0,0.00471275
0.2,11.1,0,0.00442858
0.2,11.2,0,0.00414468
0.2,11.3,0,0.00386179
0.2,11.4,0,0.00358104
0.2,11.5,0,0.00330049
0.2,11.6,0,0.00302116
0.2,11.7,0,0.00274347
0.2,11.8,0,0.00246592
0.2,11.9,0,0.00218955
0.2,12,0,0.00191435
0.2,12.1,0,0.00163921
0.2,12.2,0,0.00136507
0.2,12.3,0,0.00109157
0.2,12.4,0,0.000818102
0.2,12.5,0,0.000545246
0.2,12.6,0,0.000272641
0.2,12.7,0,3.86856e-05
0.3,0,0,0
0.3,0.1,0,0.000297936
0.3,0.2,0,0.000595947
0.3,0.3,0,0.000893933
0.3,0.4,0,0.00119216
0.3,0.5,0,0.00149032
0.3,0.6,0,0.00178888
0.3,0.7,0,0.00208749
0.3,0.8,0,0.0023863
0.3,0.9,0,0.00268544
0.3,1,0,0.00298456
0.3,1.1,0,0.00328429
0.3,1.2,0,0.00358403
0.3,1.3,0,0.0038841
0.3,1.4,0,0.00418442
0.3,1.5,0,0.0044848
0.3,1.6,0,0.00478566
0.3,1.7,0,0.00508645
0.3,1.8,0,0.00538757
0.3,1.9,0,0.00568857
0.3,2,0,0.00598972
0.3,2.1,0,0.00629071
0.3,2.2,0,0.00659151
0.3,2.3,0,0.00689238
0.3,2.4,0,0.00719236
0.3,2.5,0,0.00749262
0.3,2.6,0,0.00779129
0.3,2.7,0,0.0080896
0.3,2.8,0,0.00838737
0.3,2.9,0,0.00868289
0.3,3,0,0.0089789
0.3,3.1,0,0.00927082
0.3,3.2,0,0.00956216
0.3,3.3,0,0.00985183
0.3,3.4,0,0.0101372
0.3,3.5,0,0.0104233
0.3,3.6,0,0.0107015
0.3,3.7,0,0.0109788
0.3,3.8,0,0.0112527
0.3,3.9,0,0.0115195
0.3,4,0,0.0117872
0.3,4.1,0,0.0120417
0.3,4.2,0,0.0122952
0.3,4.3,0,0.0125426
0.3,4.4,0,0.0127794
0.3,4.5,0,0.0130173
0.3,4.6,0,0.0132354
0.3,4.7,0,0.0134521
0.3,4.8,0,0.0136593
0.3,4.9,0,0.0138173
0.3,5,0,0.0139585
0.3,5.1,0,0.0142236
0.3,5.2,0,0.0143877
0.3,5.3,0,0.0145398
0.3,5.4,0,0.0146795
0.3,5.5,0,0.014806
0.3,5.6,0,0.0149189
0.3,5.7,0,0.0150178
0.3,5.8,0,0.0151023
0.3,5.9,0,0.0151719
0.3,6,0,0.0152264
0.3,6.1,0,0.0152655
0.3,6.2,0,0.0152889
0.3,6.3,0,0.0152966
0.3,6.4,0,0.0152884
0.3,6.5,0,0.0152644
0.3,6.6,0,0.0152246
0.3,6.7,0,0.0151691
0.3,6.8,0,0.015098
0.3,6.9,0,0.0150117
0.3,7,0,0.0148474
0.3,7.1,0,0.0147551
0.3,7.2,0,0.0146485
0.3,7.3,0,0.0145173
0.3,7.4,0,0.0143523
0.3,7.5,0,0.0141864
0.3,7.6,0,0.014007
0.3,7.7,0,0.0138083
0.3,7.8,0,0.0136091
0.3,7.9,0,0.013394
0.3,8,0,0.013167
0.3,8.1,0,0.0129389
0.3,8.2,0,0.0126958
0.3,8.3,0,0.0124462
0.3,8.4,0,0.0121949
0.3,8.5,0,0.0119305
0.3,8.6,0,0.0116634
0.3,8.7,0,0.0113943
0.3,8.8,0,0.0111148
0.3,8.9,0,0.0108351
0.3,9,0,0.0105529
0.3,9.1,0,0.0102642
0.3,9.2,0,0.00997601
0.3,9.3,0,0.00968514
0.3,9.4,0,0.00939162
0.3,9.5,0,0.00909852
0.3,9.6,0,0.0088033
0.3,9.7,0,0.0085079
0.3,9.8,0,0.00821267
0.3,9.9,0,0.00791651
0.3,10,0,0.00762141
0.3,10.1,0,0.00732625
0.3,10.2,0,0.00703161
0.3,10.3,0,0.00673827
0.3,10.4,0,0.00644486
0.3,10.5,0,0.00615324
0.3,10.6,0,0.00586262
0.3,10.7,0,0.00557206
0.3,10.8,0,0.00528424
0.3,10.9,0,0.00499689
0.3,11,0,0.00471006
0.3,11.1,0,0.00442599
0.3,11.2,0,0.0041421
0.3,11.3,0,0.00385929
0.3,11.4,0,0.00357866
0.3,11.5,0,0.0032981
0.3,11.6,0,0.00301905
0.3,11.7,0,0.00274144
0.3,11.8,0,0.00246393
0.3,11.9,0,0.00218799
0.3,12,0,0.0019128
0.3,12.1,0,0.00163777
0.3,12.2,0,0.00136409
0.3,12.3,0,0.00109059
0.3,12.4,0,0.000817333
0.3,12.5,0,0.000544896
0.3,12.6,0,0.000272291
0.3,12.7,0,0
0.4,0,0,0
0.4,0.1,0,0.00029786
0.4,0.2,0,0.000595663
0.4,0.3,0,0.000893649
0.4,0.4,0,0.00119169
0.4,0.5,0,0.0014898
0.4,0.6,0,0.0017883
0.4,0.7,0,0.00208679
0.4,0.8,0,0.00238559
0.4,0.9,0,0.00268464
0.4,1,0,0.00298375
0.4,1.1,0,0.00328348
0.4,1.2,0,0.00358323
0.4,1.3,0,0.00388331
0.4,1.4,0,0.00418374
0.4,1.5,0,0.00448416
0.4,1.6,0,0.0047851
0.4,1.7,0,0.00508615
0.4,1.8,0,0.00538727
0.4,1.9,0,0.00568868
0.4,2,0,0.00598998
0.4,2.1,0,0.00629116
0.4,2.2,0,0.00659258
0.4,2.3,0,0.00689345
0.4,2.4,0,0.00719427
0.4,2.5,0,0.00749482
0.4,2.6,0,0.00779386
0.4,2.7,0,0.00809329
0.4,2.8,0,0.00839106
0.4,2.9,0,0.00868801
0.4,3,0,0.00898448
0.4,3.1,0,0.009277
0.4,3.2,0,0.00957009
0.4,3.3,0,0.00985975
0.4,3.4,0,0.0101473
0.4,3.5,0,0.0104341
0.4,3.6,0,0.0107131
0.4,3.7,0,0.0109929
0.4,3.8,0,0.0112667
0.4,3.9,0,0.0115364
0.4,4,0,0.0118051
0.4,4.1,0,0.0120608
0.4,4.2,0,0.0123173
0.4,4.3,0,0.0125647
0.4,4.4,0,0.0128051
0.4,4.5,0,0.0130441
0.4,4.6,0,0.0132635
0.4,4.7,0,0.0134837
0.4,4.8,0,0.013691
0.4,4.9,0,0.0138696
0.4,5,0,0.0139939
0.4,5.1,0,0.0142618
0.4,5.2,0,0.0144278
0.4,5.3,0,0.0145817
0.4,5.4,0,0.014723
0.4,5.5,0,0.0148511
0.4,5.6,0,0.0149655
0.4,5.7,0,0.0150658
0.4,5.8,0,0.0151514
0.4,5.9,0,0.015222
0.4,6,0,0.0152774
0.4,6.1,0,0.0153171
0.4,6.2,0,0.015341
0.4,6.3,0,0.015349
0.4,6.4,0,0.0153409
0.4,6.5,0,0.0153167
0.4,6.6,0,0.0152765
0.4,6.7,0,0.0152204
0.4,6.8,0,0.0151485
0.4,6.9,0,0.0150612
0.4,7,0,0.0148951
0.4,7.1,0,0.0148137
0.4,7.2,0,0.0147007
0.4,7.3,0,0.0145616
0.4,7.4,0,0.0143978
0.4,7.5,0,0.0142262
0.4,7.6,0,0.0140459
0.4,7.7,0,0.013847
0.4,7.8,0,0.0136419
0.4,7.9,0,0.0134268
0.4,8,0,0.0131983
0.4,8.1,0,0.0129655
0.4,8.2,0,0.0127224
0.4,8.3,0,0.0124701
0.4,8.4,0,0.0122153
0.4,8.5,0,0.0119508
0.4,8.6,0,0.0116804
0.4,8.7,0,0.0114091
0.4,8.8,0,0.0111294
0.4,8.9,0,0.0108463
0.4,9,0,0.0105628
0.4,9.1,0,0.0102735
0.4,9.2,0,0.0099823
0.4,9.3,0,0.00969084
0.4,9.4,0,0.00939649
0.4,9.5,0,0.00910101
0.4,9.6,0,0.00880564
0.4,9.7,0,0.00850915
0.4,9.8,0,0.00821246
0.4,9.9,0,0.00791629
0.4,10,0,0.00762004
0.4,10.1,0,0.00732419
0.4,10.2,0,0.00702948
0.4,10.3,0,0.00673517
0.4,10.4,0,0.0064416
0.4,10.5,0,0.00614982
0.4,10.6,0,0.00585863
0.4,10.7,0,0.00556815
0.4,10.8,0,0.00528011
0.4,10.9,0,0.00499265
0.4,11,0,0.00470594
0.4,11.1,0,0.00442166
0.4,11.2,0,0.00413805
0.4,11.3,0,0.00385533
0.4,11.4,0,0.00357462
0.4,11.5,0,0.00329458
0.4,11.6,0,0.00301555
0.4,11.7,0,0.00273806
0.4,11.8,0,0.0024611
0.4,11.9,0,0.00218516
0.4,12,0,0.00191032
0.4,12.1,0,0.00163577
0.4,12.2,0,0.00136212
0.4,12.3,0,0.00108919
0.4,12.4,0,0.00081628
0.4,12.5,0,0.000543948
0.4,12.6,0,0.000272055
0.4,12.7,0,0
0.5,0,0,0
0.5,0.1,0,0.000297727
0.5,0.2,0,0.000595454
0.5,0.3,0,0.000893308
0.5,0.4,0,0.00119129
0.5,0.5,0,0.00148927
0.5,0.6,0,0.0017877
0.5,0.7,0,0.00208613
0.5,0.8,0,0.00238486
0.5,0.9,0,0.0026839
0.5,1,0,0.00298294
0.5,1.1,0,0.00328269
0.5,1.2,0,0.00358244
0.5,1.3,0,0.00388256
0.5,1.4,0,0.00418304
0.5,1.5,0,0.00448352
0.5,1.6,0,0.00478464
0.5,1.7,0,0.00508577
0.5,1.8,0,0.00538711
0.5,1.9,0,0.00568867
0.5,2,0,0.00599023
0.5,2.1,0,0.00629184
0.5,2.2,0,0.00659346
0.5,2.3,0,0.00689482
0.5,2.4,0,0.00719592
0.5,2.5,0,0.00749702
0.5,2.6,0,0.00779682
0.5,2.7,0,0.00809661
0.5,2.8,0,0.00839522
0.5,2.9,0,0.00869264
0.5,3,0,0.00899007
0.5,3.1,0,0.00928374
0.5,3.2,0,0.00957743
0.5,3.3,0,0.00986837
0.5,3.4,0,0.0101566
0.5,3.5,0,0.0104448
0.5,3.6,0,0.0107254
0.5,3.7,0,0.0110061
0.5,3.8,0,0.0112817
0.5,3.9,0,0.0115524
0.5,4,0,0.011823
0.5,4.1,0,0.0120807
0.5,4.2,0,0.0123384
0.5,4.3,0,0.012588
0.5,4.4,0,0.0128294
0.5,4.5,0,0.0130709
0.5,4.6,0,0.0132925
0.5,4.7,0,0.013514
0.5,4.8,0,0.0137057
0.5,4.9,0,0.0138676
0.5,5,0,0.0140294
0.5,5.1,0,0.0143001
0.5,5.2,0,0.0144679
0.5,5.3,0,0.0146236
0.5,5.4,0,0.0147665
0.5,5.5,0,0.0148962
0.5,5.6,0,0.0150121
0.5,5.7,0,0.0151137
0.5,5.8,0,0.0152005
0.5,5.9,0,0.0152722
0.5,6,0,0.0153284
0.5,6.1,0,0.0153688
0.5,6.2,0,0.0153931
0.5,6.3,0,0.0154014
0.5,6.4,0,0.0153933
0.5,6.5,0,0.0153689
0.5,6.6,0,0.0153284
0.5,6.7,0,0.0152717
0.5,6.8,0,0.0151991
0.5,6.9,0,0.0151108
0.5,7,0,0.0149429
0.5,7.1,0,0.0148333
0.5,7.2,0,0.0147236
0.5,7.3,0,0.0146049
0.5,7.4,0,0.0144342
0.5,7.5,0,0.0142636
0.5,7.6,0,0.0140829
0.5,7.7,0,0.0138785
0.5,7.8,0,0.0136741
0.5,7.9,0,0.013457
0.5,8,0,0.0132244
0.5,8.1,0,0.0129919
0.5,8.2,0,0.0127458
0.5,8.3,0,0.0124908
0.5,8.4,0,0.0122358
0.5,8.5,0,0.011968
0.5,8.6,0,0.011696
0.5,8.7,0,0.011424
0.5,8.8,0,0.0111411
0.5,8.9,0,0.010857
0.5,9,0,0.0105726
0.5,9.1,0,0.0102807
0.5,9.2,0,0.00998886
0.5,9.3,0,0.00969617
0.5,9.4,0,0.00940014
0.5,9.5,0,0.0091041
0.5,9.6,0,0.00880758
0.5,9.7,0,0.00851018
0.5,9.8,0,0.00821278
0.5,9.9,0,0.00791576
0.5,10,0,0.00761912
0.5,10.1,0,0.00732248
0.5,10.2,0,0.0070273
0.5,10.3,0,0.0067329
0.5,10.4,0,0.00643851
0.5,10.5,0,0.00614667
0.5,10.6,0,0.00585547
0.5,10.7,0,0.00556427
0.5,10.8,0,0.00527655
0.5,10.9,0,0.00498903
0.5,11,0,0.00470188
0.5,11.1,0,0.00441813
0.5,11.2,0,0.00413438
0.5,11.3,0,0.00385153
0.5,11.4,0,0.00357137
0.5,11.5,0,0.00329121
0.5,11.6,0,0.00301231
0.5,11.7,0,0.0027353
0.5,11.8,0,0.0024583
0.5,11.9,0,0.00218268
0.5,12,0,0.00190822
0.5,12.1,0,0.00163375
0.5,12.2,0,0.00136054
0.5,12.3,0,0.00108786
0.5,12.4,0,0.000815192
0.5,12.5,0,0.000543362
0.5,12.6,0,0.000271681
0.5,12.7,0,0
0.6,0,0,0
0.6,0.1,0,0.000297446
0.6,0.2,0,0.000595057
0.6,0.3,0,0.000892674
0.6,0.4,0,0.00119053
0.6,0.5,0,0.00148832
0.6,0.6,0,0.00178656
0.6,0.7,0,0.00208491
0.6,0.8,0,0.00238351
0.6,0.9,0,0.00268248
0.6,1,0,0.00298145
0.6,1.1,0,0.00328116
0.6,1.2,0,0.00358093
0.6,1.3,0,0.0038811
0.6,1.4,0,0.00418162
0.6,1.5,0,0.00448226
0.6,1.6,0,0.00478362
0.6,1.7,0,0.00508491
0.6,1.8,0,0.00538662
0.6,1.9,0,0.00568838
0.6,2,0,0.00599047
0.6,2.1,0,0.0062927
0.6,2.2,0,0.0065947
0.6,2.3,0,0.00689688
0.6,2.4,0,0.00719842
0.6,2.5,0,0.00750058
0.6,2.6,0,0.00780155
0.6,2.7,0,0.00810203
0.6,2.8,0,0.00840208
0.6,2.9,0,0.00870026
0.6,3,0,0.00899943
0.6,3.1,0,0.009295
0.6,3.2,0,0.00958976
0.6,3.3,0,0.00988295
0.6,3.4,0,0.0101723
0.6,3.5,0,0.0104631
0.6,3.6,0,0.0107465
0.6,3.7,0,0.0110287
0.6,3.8,0,0.0113074
0.6,3.9,0,0.0115796
0.6,4,0,0.0118538
0.6,4.1,0,0.0121151
0.6,4.2,0,0.0123747
0.6,4.3,0,0.0126282
0.6,4.4,0,0.0128717
0.6,4.5,0,0.0131173
0.6,4.6,0,0.0133432
0.6,4.7,0,0.013567
0.6,4.8,0,0.0137811
0.6,4.9,0,0.0139632
0.6,5,0,0.0140917
0.6,5.1,0,0.0143676
0.6,5.2,0,0.0145388
0.6,5.3,0,0.0146977
0.6,5.4,0,0.0148437
0.6,5.5,0,0.0149763
0.6,5.6,0,0.0150949
0.6,5.7,0,0.015199
0.6,5.8,0,0.015288
0.6,5.9,0,0.0153616
0.6,6,0,0.0154193
0.6,6.1,0,0.015461
0.6,6.2,0,0.0154862
0.6,6.3,0,0.0154949
0.6,6.4,0,0.015487
0.6,6.5,0,0.0154623
0.6,6.6,0,0.015421
0.6,6.7,0,0.0153632
0.6,6.8,0,0.0152891
0.6,6.9,0,0.015199
0.6,7,0,0.0150274
0.6,7.1,0,0.0149428
0.6,7.2,0,0.0148277
0.6,7.3,0,0.0146827
0.6,7.4,0,0.0145123
0.6,7.5,0,0.0143378
0.6,7.6,0,0.0141506
0.6,7.7,0,0.0139453
0.6,7.8,0,0.0137359
0.6,7.9,0,0.0135133
0.6,8,0,0.0132794
0.6,8.1,0,0.013041
0.6,8.2,0,0.0127903
0.6,8.3,0,0.0125339
0.6,8.4,0,0.0122728
0.6,8.5,0,0.0120011
0.6,8.6,0,0.0117278
0.6,8.7,0,0.0114499
0.6,8.8,0,0.0111638
0.6,8.9,0,0.0108782
0.6,9,0,0.0105891
0.6,9.1,0,0.0102945
0.6,9.2,0,0.0100012
0.6,9.3,0,0.00970507
0.6,9.4,0,0.00940672
0.6,9.5,0,0.00910939
0.6,9.6,0,0.00881043
0.6,9.7,0,0.00851137
0.6,9.8,0,0.00821284
0.6,9.9,0,0.00791407
0.6,10,0,0.00761632
0.6,10.1,0,0.00731887
0.6,10.2,0,0.00702245
0.6,10.3,0,0.00672739
0.6,10.4,0,0.0064326
0.6,10.5,0,0.00613987
0.6,10.6,0,0.00584834
0.6,10.7,0,0.00555718
0.6,10.8,0,0.00526885
0.6,10.9,0,0.00498129
0.6,11,0,0.00469446
0.6,11.1,0,0.00441036
0.6,11.2,0,0.00412685
0.6,11.3,0,0.00384447
0.6,11.4,0,0.00356422
0.6,11.5,0,0.00328451
0.6,11.6,0,0.00300616
0.6,11.7,0,0.00272926
0.6,11.8,0,0.00245288
0.6,11.9,0,0.00217787
0.6,12,0,0.00190361
0.6,12.1,0,0.00162993
0.6,12.2,0,0.00135738
0.6,12.3,0,0.00108495
0.6,12.4,0,0.000813201
0.6,12.5,0,0.000542082
0.6,12.6,0,0.000270728
0.6,12.7,0,0
0.7,0,0,0
0.7,0.1,0,0.00029733
0.7,0.2,0,0.000594545
0.7,0.3,0,0.000892162
0.7,0.4,0,0.0011897
0.7,0.5,0,0.00148736
0.7,0.6,0,0.00178553
0.7,0.7,0,0.00208362
0.7,0.8,0,0.00238221
0.7,0.9,0,0.00268105
0.7,1,0,0.00297996
0.7,1.1,0,0.00327969
0.7,1.2,0,0.00357943
0.7,1.3,0,0.0038796
0.7,1.4,0,0.00418033
0.7,1.5,0,0.00448101
0.7,1.6,0,0.00478253
0.7,1.7,0,0.00508421
0.7,1.8,0,0.00538592
0.7,1.9,0,0.00568841
0.7,2,0,0.0059907
0.7,2.1,0,0.00629332
0.7,2.2,0,0.00659633
0.7,2.3,0,0.00689851
0.7,2.4,0,0.00720154
0.7,2.5,0,0.00750413
0.7,2.6,0,0.00780579
0.7,2.7,0,0.00810814
0.7,2.8,0,0.00840819
0.7,2.9,0,0.00870887
0.7,3,0,0.0090088
0.7,3.1,0,0.00930544
0.7,3.2,0,0.00960317
0.7,3.3,0,0.00989636
0.7,3.4,0,0.0101895
0.7,3.5,0,0.0104814
0.7,3.6,0,0.0107663
0.7,3.7,0,0.0110528
0.7,3.8,0,0.0113315
0.7,3.9,0,0.0116088
0.7,4,0,0.0118846
0.7,4.1,0,0.0121478
0.7,4.2,0,0.012413
0.7,4.3,0,0.0126665
0.7,4.4,0,0.0129162
0.7,4.5,0,0.0131638
0.7,4.6,0,0.0133918
0.7,4.7,0,0.0136221
0.7,4.8,0,0.0138362
0.7,4.9,0,0.0140052
0.7,5,0,0.0141539
0.7,5.1,0,0.0144352
0.7,5.2,0,0.0146097
0.7,5.3,0,0.0147718
0.7,5.4,0,0.014921
0.7,5.5,0,0.0150565
0.7,5.6,0,0.0151778
0.7,5.7,0,0.0152843
0.7,5.8,0,0.0153755
0.7,5.9,0,0.015451
0.7,6,0,0.0155103
0.7,6.1,0,0.0155532
0.7,6.2,0,0.0155793
0.7,6.3,0,0.0155885
0.7,6.4,0,0.0155806
0.7,6.5,0,0.0155557
0.7,6.6,0,0.0155137
0.7,6.7,0,0.0154548
0.7,6.8,0,0.0153792
0.7,6.9,0,0.0152873
0.7,7,0,0.015112
0.7,7.1,0,0.015014
0.7,7.2,0,0.0148985
0.7,7.3,0,0.0147606
0.7,7.4,0,0.0145851
0.7,7.5,0,0.0144059
0.7,7.6,0,0.0142187
0.7,7.7,0,0.014007
0.7,7.8,0,0.0137931
0.7,7.9,0,0.0135705
0.7,8,0,0.0133291
0.7,8.1,0,0.0130871
0.7,8.2,0,0.0128361
0.7,8.3,0,0.0125716
0.7,8.4,0,0.012308
0.7,8.5,0,0.0120353
0.7,8.6,0,0.0117546
0.7,8.7,0,0.0114752
0.7,8.8,0,0.0111876
0.7,8.9,0,0.0108959
0.7,9,0,0.0106057
0.7,9.1,0,0.0103094
0.7,9.2,0,0.0100112
0.7,9.3,0,0.00971445
0.7,9.4,0,0.0094143
0.7,9.5,0,0.00911317
0.7,9.6,0,0.00881401
0.7,9.7,0,0.00851313
0.7,9.8,0,0.00821201
0.7,9.9,0,0.00791325
0.7,10,0,0.00761392
0.7,10.1,0,0.0073149
0.7,10.2,0,0.00701845
0.7,10.3,0,0.00672227
0.7,10.4,0,0.0064266
0.7,10.5,0,0.00613389
0.7,10.6,0,0.00584174
0.7,10.7,0,0.00555011
0.7,10.8,0,0.00526192
0.7,10.9,0,0.00497413
0.7,11,0,0.00468709
0.7,11.1,0,0.00440333
0.7,11.2,0,0.00411987
0.7,11.3,0,0.00383742
0.7,11.4,0,0.00355773
0.7,11.5,0,0.0032783
0.7,11.6,0,0.00299995
0.7,11.7,0,0.00272384
0.7,11.8,0,0.00244787
0.7,11.9,0,0.00217286
0.7,12,0,0.00189967
0.7,12.1,0,0.00162641
0.7,12.2,0,0.00135397
0.7,12.3,0,0.00108277
0.7,12.4,0,0.00081135
0.7,12.5,0,0.000540497
0.7,12.6,0,0.00027044
0.7,12.7,0,0
0.8,0,0,0
0.8,0.1,0,0.000296994
0.8,0.2,0,0.000594209
0.8,0.3,0,0.00089123
0.8,0.4,0,0.00118877
0.8,0.5,0,0.00148615
0.8,0.6,0,0.00178409
0.8,0.7,0,0.00208218
0.8,0.8,0,0.00238042
0.8,0.9,0,0.00267926
0.8,1,0,0.00297803
0.8,1.1,0,0.00327774
0.8,1.2,0,0.00357749
0.8,1.3,0,0.00387777
0.8,1.4,0,0.00417849
0.8,1.5,0,0.00447931
0.8,1.6,0,0.00478114
0.8,1.7,0,0.00508282
0.8,1.8,0,0.0053854
0.8,1.9,0,0.00568789
0.8,2,0,0.00599072
0.8,2.1,0,0.00629417
0.8,2.2,0,0.00659717
0.8,2.3,0,0.00690132
0.8,2.4,0,0.00720435
0.8,2.5,0,0.00750808
0.8,2.6,0,0.00781127
0.8,2.7,0,0.00811362
0.8,2.8,0,0.00841716
0.8,2.9,0,0.00871784
0.8,3,0,0.00901971
0.8,3.1,0,0.00931881
0.8,3.2,0,0.00961654
0.8,3.3,0,0.00991512
0.8,3.4,0,0.0102082
0.8,3.5,0,0.0105031
0.8,3.6,0,0.0107916
0.8,3.7,0,0.0110781
0.8,3.8,0,0.0113644
0.8,3.9,0,0.0116417
0.8,4,0,0.0119214
0.8,4.1,0,0.0121893
0.8,4.2,0,0.0124545
0.8,4.3,0,0.0127177
0.8,4.4,0,0.0129673
0.8,4.5,0,0.0132199
0.8,4.6,0,0.0134534
0.8,4.7,0,0.0136836
0.8,4.8,0,0.0139084
0.8,4.9,0,0.0140774
0.8,5,0,0.0142294
0.8,5.1,0,0.0145171
0.8,5.2,0,0.0146957
0.8,5.3,0,0.0148619
0.8,5.4,0,0.0150149
0.8,5.5,0,0.0151541
0.8,5.6,0,0.0152787
0.8,5.7,0,0.0153883
0.8,5.8,0,0.0154823
0.8,5.9,0,0.0155602
0.8,6,0,0.0156215
0.8,6.1,0,0.0156659
0.8,6.2,0,0.0156931
0.8,6.3,0,0.015703
0.8,6.4,0,0.0156952
0.8,6.5,0,0.0156699
0.8,6.6,0,0.0156271
0.8,6.7,0,0.0155669
0.8,6.8,0,0.0154895
0.8,6.9,0,0.0153953
0.8,7,0,0.0152155
0.8,7.1,0,0.0151145
0.8,7.2,0,0.014999
0.8,7.3,0,0.0148543
0.8,7.4,0,0.0146745
0.8,7.5,0,0.0144953
0.8,7.6,0,0.0142983
0.8,7.7,0,0.0140835
0.8,7.8,0,0.0138693
0.8,7.9,0,0.0136346
0.8,8,0,0.0133918
0.8,8.1,0,0.0131476
0.8,8.2,0,0.0128852
0.8,8.3,0,0.0126207
0.8,8.4,0,0.0123533
0.8,8.5,0,0.0120715
0.8,8.6,0,0.0117908
0.8,8.7,0,0.0115064
0.8,8.8,0,0.0112124
0.8,8.9,0,0.0109207
0.8,9,0,0.0106249
0.8,9.1,0,0.0103244
0.8,9.2,0,0.0100262
0.8,9.3,0,0.00972392
0.8,9.4,0,0.00942143
0.8,9.5,0,0.00912031
0.8,9.6,0,0.00881605
0.8,9.7,0,0.00851411
0.8,9.8,0,0.00821268
0.8,9.9,0,0.00790995
0.8,10,0,0.00761039
0.8,10.1,0,0.00731068
0.8,10.2,0,0.00701186
0.8,10.3,0,0.00671569
0.8,10.4,0,0.00641929
0.8,10.5,0,0.0061255
0.8,10.6,0,0.00583335
0.8,10.7,0,0.00554121
0.8,10.8,0,0.00525277
0.8,10.9,0,0.00496498
0.8,11,0,0.00467788
0.8,11.1,0,0.00439428
0.8,11.2,0,0.00411082
0.8,11.3,0,0.00382887
0.8,11.4,0,0.00354945
0.8,11.5,0,0.00327002
0.8,11.6,0,0.00299275
0.8,11.7,0,0.00271686
0.8,11.8,0,0.00244105
0.8,11.9,0,0.00216753
0.8,12,0,0.00189437
0.8,12.1,0,0.00162155
0.8,12.2,0,0.00135063
0.8,12.3,0,0.00107943
0.8,12.4,0,0.00080879
0.8,12.5,0,0.000539313
0.8,12.6,0,0.000269256
0.8,12.7,0,0
0.9,0,0,0
0.9,0.1,0,0.000296774
0.9,0.2,0,0.000593428
0.9,0.3,0,0.000890449
0.9,0.4,0,0.00118746
0.9,0.5,0,0.00148469
0.9,0.6,0,0.00178248
0.9,0.7,0,0.00208017
0.9,0.8,0,0.00237841
0.9,0.9,0,0.00267698
0.9,1,0,0.00297568
0.9,1.1,0,0.00327535
0.9,1.2,0,0.00357506
0.9,1.3,0,0.00387534
0.9,1.4,0,0.00417625
0.9,1.5,0,0.00447716
0.9,1.6,0,0.00477915
0.9,1.7,0,0.00508138
0.9,1.8,0,0.00538396
0.9,1.9,0,0.00568735
0.9,2,0,0.00599053
0.9,2.1,0,0.00629441
0.9,2.2,0,0.00659886
0.9,2.3,0,0.00690301
0.9,2.4,0,0.00720799
0.9,2.5,0,0.00751243
0.9,2.6,0,0.00781646
0.9,2.7,0,0.0081215
0.9,2.8,0,0.00842504
0.9,2.9,0,0.00872911
0.9,3,0,0.00903216
0.9,3.1,0,0.00933264
0.9,3.2,0,0.00963469
0.9,3.3,0,0.00993327
0.9,3.4,0,0.0102315
0.9,3.5,0,0.0105282
0.9,3.6,0,0.0108188
0.9,3.7,0,0.0111115
0.9,3.8,0,0.0113978
0.9,3.9,0,0.0116823
0.9,4,0,0.0119644
0.9,4.1,0,0.012235
0.9,4.2,0,0.0125084
0.9,4.3,0,0.0127715
0.9,4.4,0,0.0130301
0.9,4.5,0,0.0132857
0.9,4.6,0,0.0135224
0.9,4.7,0,0.013762
0.9,4.8,0,0.0139868
0.9,4.9,0,0.0141831
0.9,5,0,0.0143181
0.9,5.1,0,0.0146134
0.9,5.2,0,0.014797
0.9,5.3,0,0.0149679
0.9,5.4,0,0.0151255
0.9,5.5,0,0.0152691
0.9,5.6,0,0.0153978
0.9,5.7,0,0.0155111
0.9,5.8,0,0.0156084
0.9,5.9,0,0.0156892
0.9,6,0,0.0157529
0.9,6.1,0,0.0157992
0.9,6.2,0,0.0158278
0.9,6.3,0,0.0158383
0.9,6.4,0,0.0158308
0.9,6.5,0,0.0158051
0.9,6.6,0,0.0157613
0.9,6.7,0,0.0156994
0.9,6.8,0,0.0156199
0.9,6.9,0,0.015523
0.9,7,0,0.0153379
0.9,7.1,0,0.0152479
0.9,7.2,0,0.0151213
0.9,7.3,0,0.014967
0.9,7.4,0,0.0147862
0.9,7.5,0,0.0145948
0.9,7.6,0,0.0143964
0.9,7.7,0,0.0141775
0.9,7.8,0,0.0139512
0.9,7.9,0,0.0137165
0.9,8,0,0.0134667
0.9,8.1,0,0.013213
0.9,8.2,0,0.0129504
0.9,8.3,0,0.0126769
0.9,8.4,0,0.0124027
0.9,8.5,0,0.0121201
0.9,8.6,0,0.0118299
0.9,8.7,0,0.0115414
0.9,8.8,0,0.0112459
0.9,8.9,0,0.0109456
0.9,9,0,0.0106473
0.9,9.1,0,0.0103448
0.9,9.2,0,0.0100394
0.9,9.3,0,0.00973599
0.9,9.4,0,0.00943099
0.9,9.5,0,0.00912444
0.9,9.6,0,0.0088199
0.9,9.7,0,0.00851509
0.9,9.8,0,0.00821035
0.9,9.9,0,0.00790762
0.9,10,0,0.00760532
0.9,10.1,0,0.00730401
0.9,10.2,0,0.00700504
0.9,10.3,0,0.00670676
0.9,10.4,0,0.00640988
0.9,10.5,0,0.0061158
0.9,10.6,0,0.00582253
0.9,10.7,0,0.00553041
0.9,10.8,0,0.00524168
0.9,10.9,0,0.00495372
0.9,11,0,0.00466679
0.9,11.1,0,0.00438301
0.9,11.2,0,0.00410017
0.9,11.3,0,0.00381838
0.9,11.4,0,0.00353911
0.9,11.5,0,0.00326079
0.9,11.6,0,0.00298355
0.9,11.7,0,0.00270828
0.9,11.8,0,0.00243367
0.9,11.9,0,0.00216015
0.9,12,0,0.00188814
0.9,12.1,0,0.00161637
0.9,12.2,0,0.00134556
0.9,12.3,0,0.00107594
0.9,12.4,0,0.000806083
0.9,12.5,0,0.000536877
0.9,12.6,0,0.000268651
0.9,12.7,0,0
1,0,0,0
1,0.1,0,0.000296433
1,0.2,0,0.000592867
1,0.3,0,0.000889511
1,0.4,0,0.00118637
1,0.5,0,0.00148322
1,0.6,0,0.00178077
1,0.7,0,0.00207831
1,0.8,0,0.00237633
1,0.9,0,0.00267483
1,1,0,0.00297333
1,1.1,0,0.003273
1,1.2,0,0.00357267
1,1.3,0,0.00387301
1,1.4,0,0.00417401
1,1.5,0,0.004475
1,1.6,0,0.0047774
1,1.7,0,0.00507979
1,1.8,0,0.00538285
1,1.9,0,0.00568659
1,2,0,0.00599033
1,2.1,0,0.00629522
1,2.2,0,0.00660012
1,2.3,0,0.00690541
1,2.4,0,0.00721109
1,2.5,0,0.00751677
1,2.6,0,0.00782266
1,2.7,0,0.00812855
1,2.8,0,0.00843412
1,2.9,0,0.00873936
1,3,0,0.00904461
1,3.1,0,0.00934804
1,3.2,0,0.00965146
1,3.3,0,0.00995321
1,3.4,0,0.0102533
1,3.5,0,0.0105534
1,3.6,0,0.0108481
1,3.7,0,0.0111428
1,3.8,0,0.0114336
1,3.9,0,0.0117205
1,4,0,0.0120074
1,4.1,0,0.0122835
1,4.2,0,0.0125595
1,4.3,0,0.0128283
1,4.4,0,0.0130899
1,4.5,0,0.0133514
1,4.6,0,0.0135943
1,4.7,0,0.0138371
1,4.8,0,0.0140482
1,4.9,0,0.0142275
1,5,0,0.0144069
1,5.1,0,0.0147097
1,5.2,0,0.0148982
1,5.3,0,0.015074
1,5.4,0,0.0152362
1,5.5,0,0.015384
1,5.6,0,0.0155168
1,5.7,0,0.0156339
1,5.8,0,0.0157345
1,5.9,0,0.0158181
1,6,0,0.0158843
1,6.1,0,0.0159325
1,6.2,0,0.0159624
1,6.3,0,0.0159737
1,6.4,0,0.0159664
1,6.5,0,0.0159403
1,6.6,0,0.0158955
1,6.7,0,0.015832
1,6.8,0,0.0157503
1,6.9,0,0.0156507
1,7,0,0.0154603
1,7.1,0,0.0153363
1,7.2,0,0.0152123
1,7.3,0,0.015078
1,7.4,0,0.014886
1,7.5,0,0.014694
1,7.6,0,0.0144912
1,7.7,0,0.014263
1,7.8,0,0.0140349
1,7.9,0,0.0137938
1,8,0,0.0135369
1,8.1,0,0.0132801
1,8.2,0,0.0130102
1,8.3,0,0.0127318
1,8.4,0,0.0124534
1,8.5,0,0.0121637
1,8.6,0,0.0118703
1,8.7,0,0.0115769
1,8.8,0,0.0112752
1,8.9,0,0.0109725
1,9,0,0.0106696
1,9.1,0,0.0103622
1,9.2,0,0.0100549
1,9.3,0,0.00974736
1,9.4,0,0.00943902
1,9.5,0,0.00913068
1,9.6,0,0.00882292
1,9.7,0,0.00851622
1,9.8,0,0.00820953
1,9.9,0,0.00790459
1,10,0,0.00760138
1,10.1,0,0.00729818
1,10.2,0,0.00699798
1,10.3,0,0.0066994
1,10.4,0,0.00640083
1,10.5,0,0.00610641
1,10.6,0,0.00581304
1,10.7,0,0.00551966
1,10.8,0,0.00523135
1,10.9,0,0.00494331
1,11,0,0.00465578
1,11.1,0,0.00437285
1,11.2,0,0.00408993
1,11.3,0,0.00380816
1,11.4,0,0.00352986
1,11.5,0,0.00325156
1,11.6,0,0.00297484
1,11.7,0,0.00270048
1,11.8,0,0.00242612
1,11.9,0,0.00215348
1,12,0,0.00188224
1,12.1,0,0.001611
1,12.2,0,0.00134131
1,12.3,0,0.00107228
1,12.4,0,0.000803249
1,12.5,0,0.000535365
1,12.6,0,0.000267682
1,12.7,0,0
1.1,0,0,0
1.1,0.1,0,0.000295798
1.1,0.2,0,0.000591993
1.1,0.3,0,0.000888135
1.1,0.4,0,0.00118472
1.1,0.5,0,0.00148112
1.1,0.6,0,0.00177823
1.1,0.7,0,0.00207559
1.1,0.8,0,0.00237327
1.1,0.9,0,0.00267161
1.1,1,0,0.00296986
1.1,1.1,0,0.00326938
1.1,1.2,0,0.00356901
1.1,1.3,0,0.00386934
1.1,1.4,0,0.00417038
1.1,1.5,0,0.00447152
1.1,1.6,0,0.00477425
1.1,1.7,0,0.00507685
1.1,1.8,0,0.00538046
1.1,1.9,0,0.00568454
1.1,2,0,0.00598903
1.1,2.1,0,0.00629502
1.1,2.2,0,0.00660049
1.1,2.3,0,0.00690715
1.1,2.4,0,0.00721363
1.1,2.5,0,0.00752096
1.1,2.6,0,0.00782901
1.1,2.7,0,0.00813601
1.1,2.8,0,0.0084441
1.1,2.9,0,0.00875076
1.1,3,0,0.00905888
1.1,3.1,0,0.00936593
1.1,3.2,0,0.00967116
1.1,3.3,0,0.00997694
1.1,3.4,0,0.0102792
1.1,3.5,0,0.0105838
1.1,3.6,0,0.0108839
1.1,3.7,0,0.0111812
1.1,3.8,0,0.0114779
1.1,3.9,0,0.011768
1.1,4,0,0.012061
1.1,4.1,0,0.0123444
1.1,4.2,0,0.012624
1.1,4.3,0,0.0129004
1.1,4.4,0,0.013166
1.1,4.5,0,0.0134352
1.1,4.6,0,0.0136872
1.1,4.7,0,0.0139339
1.1,4.8,0,0.0141738
1.1,4.9,0,0.0143779
1.1,5,0,0.0145216
1.1,5.1,0,0.0148347
1.1,5.2,0,0.01503
1.1,5.3,0,0.0152125
1.1,5.4,0,0.0153811
1.1,5.5,0,0.015535
1.1,5.6,0,0.0156735
1.1,5.7,0,0.0157958
1.1,5.8,0,0.0159011
1.1,5.9,0,0.0159889
1.1,6,0,0.0160584
1.1,6.1,0,0.0161093
1.1,6.2,0,0.0161412
1.1,6.3,0,0.0161537
1.1,6.4,0,0.0161467
1.1,6.5,0,0.0161201
1.1,6.6,0,0.0160739
1.1,6.7,0,0.0160082
1.1,6.8,0,0.0159235
1.1,6.9,0,0.0158202
1.1,7,0,0.0156225
1.1,7.1,0,0.0155256
1.1,7.2,0,0.0153941
1.1,7.3,0,0.0152263
1.1,7.4,0,0.0150313
1.1,7.5,0,0.0148328
1.1,7.6,0,0.0146181
1.1,7.7,0,0.0143856
1.1,7.8,0,0.014149
1.1,7.9,0,0.0138971
1.1,8,0,0.0136357
1.1,8.1,0,0.013369
1.1,8.2,0,0.0130896
1.1,8.3,0,0.0128073
1.1,8.4,0,0.0125185
1.1,8.5,0,0.0122206
1.1,8.6,0,0.0119241
1.1,8.7,0,0.0116208