/*--------------------------------*- C++ -*----------------------------------*\
| =========                 |                                                 |
| \\      /  F ield         | OpenFOAM: The Open Source CFD Toolbox           |
|  \\    /   O peration     | Version:  v1806                                 |
|   \\  /    A nd           | Web:      www.OpenFOAM.com                      |
|    \\/     M anipulation  |                                                 |
\*---------------------------------------------------------------------------*/
FoamFile
{
    version     2.0;
    format      ascii;
    class       volScalarField;
    location    "460";
    object      p;
}
// * * * * * * * * * * * * * * * * * * * * * * * * * * * * * * * * * * * * * //

dimensions      [0 2 -2 0 0 0 0];


internalField   nonuniform List<scalar> 
2400
(
1.59296e-05
1.73859e-05
1.82579e-05
2.06191e-05
2.29531e-05
2.73927e-05
3.13802e-05
3.79423e-05
4.36811e-05
5.2529e-05
5.98486e-05
7.0227e-05
7.76454e-05
8.66123e-05
8.99873e-05
9.08622e-05
8.24285e-05
6.55162e-05
3.7632e-05
-8.63139e-07
4.75987e-05
5.20362e-05
5.43742e-05
6.16148e-05
6.82622e-05
8.17249e-05
9.31717e-05
0.000113078
0.000129636
0.000156545
0.000177732
0.00020947
0.000231013
0.000258874
0.000268654
0.000272516
0.000247489
0.00019813
0.000114543
2.86841e-07
7.89884e-05
8.62196e-05
9.008e-05
0.000102105
0.000113079
0.000135416
0.000154282
0.000187425
0.000214741
0.000259777
0.000294768
0.000348409
0.000384071
0.000432289
0.0004486
0.000457948
0.000416405
0.000336437
0.000196169
4.26342e-06
0.000109866
0.000119706
0.000125146
0.000141873
0.000157207
0.000188274
0.000214526
0.000260853
0.00029886
0.000362283
0.000410996
0.000487586
0.000537367
0.000608497
0.000631449
0.000650556
0.000592161
0.000484785
0.000285211
1.10965e-05
0.000140039
0.000152233
0.000159317
0.000180649
0.000200365
0.000239978
0.000273553
0.000332991
0.000381597
0.000463733
0.00052609
0.000626991
0.000690965
0.000788462
0.000818252
0.000853308
0.000777312
0.000648113
0.000384241
2.24066e-05
0.000169328
0.00018352
0.000192357
0.000218142
0.0002423
0.000290163
0.000331042
0.000403394
0.00046259
0.000563672
0.000639759
0.000766415
0.000844959
0.000972924
0.00101011
0.00106925
0.000974554
0.000832535
0.000496362
4.11382e-05
0.000197559
0.000213288
0.000224048
0.000254061
0.000282776
0.000338453
0.000386706
0.000471581
0.000541522
0.00066155
0.000751757
0.000905447
0.00099948
0.00116228
0.00120821
0.00130127
0.00118679
0.00104535
0.000625028
7.20214e-05
0.000224571
0.000241266
0.000254188
0.000288118
0.000321577
0.000384457
0.000440276
0.000537031
0.000618091
0.000756701
0.000861842
0.00104341
0.00115466
0.00135647
0.00141381
0.00155177
0.00141733
0.00129472
0.000773843
0.000123297
0.000250179
0.000267194
0.000282592
0.000320029
0.000358498
0.000427775
0.000491497
0.000599179
0.000692002
0.000848342
0.000969749
0.00117935
0.00131057
0.00155482
0.00162824
0.00182231
0.00167023
0.00158924
0.0009471
0.000208366
0.000274244
0.000290831
0.000309089
0.000349519
0.000393341
0.000468003
0.000540123
0.000657428
0.000762956
0.000935581
0.00107517
0.001312
0.00146723
0.00175602
0.00185288
0.00211337
0.00195059
0.00193735
0.00115079
0.00034698
0.000296608
0.000311962
0.000333523
0.000376331
0.000425915
0.000504747
0.000585911
0.000711168
0.00083064
0.00101744
0.00117775
0.00143983
0.00162446
0.00195805
0.00208907
0.00242417
0.00226468
0.00234677
0.00139421
0.000565786
0.000317109
0.000330419
0.000355746
0.000400234
0.000456018
0.000537636
0.000628612
0.000759796
0.000894715
0.00109287
0.00127704
0.00156108
0.0017819
0.00215818
0.0023379
0.00275237
0.00261999
0.00282371
0.00169279
0.00089808
0.000335573
0.000346094
0.000375624
0.000421035
0.000483428
0.000566347
0.000667945
0.000802753
0.000954794
0.00116084
0.0013725
0.00167378
0.00193897
0.00235298
0.00259998
0.00309369
0.00302508
0.00337148
0.00207216
0.00138528
0.000351809
0.000358945
0.000393033
0.000438585
0.000507895
0.000590625
0.000703582
0.000839568
0.00101039
0.00122036
0.00146339
0.00177595
0.0020948
0.00253856
0.00287546
0.00344173
0.00348878
0.00398923
0.0025702
0.00208312
0.0003656
0.000369
0.000407837
0.000452785
0.000529132
0.000610302
0.000735176
0.000869871
0.00106094
0.00127059
0.00154869
0.00186561
0.00224803
0.00271096
0.00316417
0.00378858
0.0040198
0.00466872
0.00323552
0.00303806
0.000376723
0.000376353
0.000419869
0.000463588
0.000546754
0.000625332
0.000762174
0.000893501
0.00110574
0.00131086
0.00162765
0.00194058
0.00239649
0.00286598
0.0034654
0.00412767
0.00462979
0.00539123
0.00414001
0.00424915
0.00038495
0.000381143
0.000429006
0.000470978
0.00056036
0.00063574
0.000783867
0.000910469
0.00114339
0.00134104
0.00169799
0.00199955
0.00253914
0.00299557
0.00377644
0.00445373
0.0053402
0.00614552
0.00541662
0.00568256
0.000389994
0.000383558
0.000434907
0.000474978
0.000569392
0.000641605
0.000799206
0.000920849
0.00117165
0.00136107
0.001755
0.00204207
0.00266511
0.0030968
0.00409267
0.00473524
0.00617992
0.00694944
0.0073216
0.00739325
0.000391804
0.000383695
0.00043821
0.000475716
0.000574645
0.000643199
0.000809516
0.000924944
0.00119272
0.00137101
0.00180034
0.00206814
0.00277345
0.00316971
0.00438217
0.00496843
0.00711452
0.00781708
0.00978926
0.00930551
0.000389322
0.00038245
0.000435935
0.000472983
0.000572249
0.00064083
0.000808243
0.000923845
0.0011951
0.00137492
0.00181468
0.00208406
0.00282433
0.00322076
0.0045796
0.00514192
0.00801993
0.00858003
0.0145158
0.00298862
-3.02277e-05
-3.69557e-05
-4.24021e-05
-4.68798e-05
-5.11679e-05
-5.55029e-05
-5.97958e-05
-6.39204e-05
-6.77849e-05
-7.13264e-05
-7.5746e-05
-9.1362e-05
-0.000105896
-0.000119764
-0.000133486
-0.00014719
-0.00016078
-0.000174158
-0.000187288
-0.000200173
-0.000124543
-0.000151785
-0.000177393
-0.000201721
-0.000225617
-0.000249334
-0.00027274
-0.000295661
-0.00031799
-0.000339665
-0.000174994
-0.000214362
-0.000251343
-0.000286469
-0.00032099
-0.000355279
-0.000389138
-0.000422314
-0.000454656
-0.000486086
-0.000226279
-0.00027899
-0.000328806
-0.000376316
-0.000423029
-0.000469385
-0.000515117
-0.000559883
-0.000603473
-0.000645766
-0.000278183
-0.000346135
-0.000410972
-0.000473082
-0.000534088
-0.000594476
-0.000653933
-0.000712045
-0.000768537
-0.000823244
-0.000330611
-0.000416778
-0.000499818
-0.000579617
-0.000657803
-0.00073493
-0.000810663
-0.000884514
-0.000956132
-0.0010253
-0.000383889
-0.000493177
-0.000599066
-0.000700668
-0.00079979
-0.000897192
-0.000992536
-0.00108523
-0.00117481
-0.00126101
-0.000439477
-0.00058008
-0.000715532
-0.000844162
-0.000968843
-0.00109096
-0.00121014
-0.00132556
-0.00143663
-0.001543
-0.00050093
-0.000686074
-0.000860624
-0.00102272
-0.00117845
-0.00133069
-0.00147892
-0.00162185
-0.00175862
-0.00188882
-0.00057535
-0.000825213
-0.00105204
-0.00125544
-0.00144869
-0.00163756
-0.00182121
-0.00199736
-0.00216475
-0.00232295
-0.000676952
-0.00102055
-0.00131689
-0.00157076
-0.00180894
-0.00204223
-0.00226886
-0.00248492
-0.00268846
-0.00287916
-0.0008338
-0.0013115
-0.00169849
-0.0020126
-0.00230382
-0.00259056
-0.00286904
-0.00313252
-0.00337809
-0.00360563
-0.00108926
-0.00175525
-0.00225801
-0.00264247
-0.00299528
-0.00334552
-0.00368581
-0.00400503
-0.00429893
-0.00456766
-0.00150693
-0.0024309
-0.00308334
-0.003554
-0.0039807
-0.00440611
-0.00481779
-0.00519935
-0.00554558
-0.00585778
-0.00219966
-0.00345566
-0.00429064
-0.00487022
-0.00539696
-0.00592502
-0.00643183
-0.00689286
-0.00730085
-0.00765754
-0.00352124
-0.00514881
-0.00610764
-0.006726
-0.00730672
-0.00791463
-0.00850728
-0.00904589
-0.00952028
-0.00993309
-0.0061162
-0.0084963
-0.0097803
-0.0104805
-0.0110949
-0.011741
-0.0123624
-0.0129045
-0.0133506
-0.0137018
-0.00728542
-0.0099533
-0.0114229
-0.0124493
-0.0134858
-0.014548
-0.0155373
-0.016409
-0.0171669
-0.0178282
-0.0209728
-0.0220941
-0.0206792
-0.0197256
-0.019565
-0.0197644
-0.0200552
-0.0203801
-0.0207423
-0.0210799
-7.8712e-05
-9.11629e-05
-0.000102137
-0.000110404
-0.000115661
-0.000118024
-0.000117733
-0.000115125
-0.000110511
-0.000104265
-9.66597e-05
-8.80574e-05
-7.8628e-05
-6.87159e-05
-5.83321e-05
-4.78234e-05
-3.69988e-05
-2.63275e-05
-1.5385e-05
-5.05466e-06
-0.000230207
-0.000270343
-0.000303044
-0.000327585
-0.000343432
-0.000350762
-0.000350211
-0.000342743
-0.000329304
-0.000310973
-0.000288592
-0.000263185
-0.000235313
-0.000205924
-0.000175144
-0.00014395
-0.000111887
-8.02941e-05
-4.78974e-05
-1.69478e-05
-0.00038931
-0.000457064
-0.00051228
-0.000553467
-0.000579831
-0.000591707
-0.000590214
-0.000577031
-0.000553828
-0.000522461
-0.000484394
-0.000441355
-0.000394321
-0.000344862
-0.000293224
-0.000241011
-0.000187465
-0.000134753
-8.05873e-05
-2.86407e-05
-0.000558258
-0.00065601
-0.000735116
-0.000793484
-0.000830109
-0.000845669
-0.000841971
-0.000821587
-0.000787047
-0.00074109
-0.00068588
-0.000623898
-0.000556566
-0.000486099
-0.000412842
-0.000339029
-0.000263537
-0.000189369
-0.000113182
-4.02389e-05
-0.00074267
-0.000873111
-0.000977622
-0.00105349
-0.00109966
-0.00111743
-0.00110957
-0.00107978
-0.00103165
-0.000968935
-0.000894577
-0.000811886
-0.000722751
-0.000630049
-0.000534209
-0.000438074
-0.000340122
-0.000244173
-0.000145816
-5.18575e-05
-0.000948333
-0.00111505
-0.00124676
-0.00134025
-0.00139473
-0.00141248
-0.00139764
-0.0013554
-0.00129061
-0.00120822
-0.00111208
-0.00100638
-0.000893525
-0.00077705
-0.000657456
-0.000538151
-0.000417183
-0.000299131
-0.000178475
-6.34646e-05
-0.00118296
-0.00139034
-0.00155113
-0.0016619
-0.00172256
-0.00173699
-0.00171123
-0.00165237
-0.00156686
-0.00146102
-0.00133973
-0.00120815
-0.00106923
-0.000927144
-0.000782437
-0.000639021
-0.000494461
-0.000354014
-0.000210994
-7.49919e-05
-0.00145673
-0.00170984
-0.00190139
-0.00202816
-0.00209152
-0.00209778
-0.00205565
-0.00197465
-0.00186316
-0.0017291
-0.00157849
-0.00141756
-0.00124979
-0.00108
-0.000908665
-0.000740144
-0.000571445
-0.000408403
-0.0002431
-8.63479e-05
-0.00178332
-0.0020876
-0.00231081
-0.00245072
-0.00251128
-0.00250242
-0.00243651
-0.00232615
-0.00218199
-0.00201379
-0.00182884
-0.00163446
-0.00143467
-0.00123479
-0.00103522
-0.000840618
-0.000647336
-0.00046167
-0.00027439
-9.73955e-05
-0.00218125
-0.00254193
-0.00279611
-0.00294368
-0.00299294
-0.00295917
-0.00285958
-0.00271053
-0.00252535
-0.0023158
-0.00209057
-0.00185804
-0.00162265
-0.00139014
-0.00116066
-0.000939087
-0.000720986
-0.000512935
-0.000304288
-0.000107922
-0.00267566
-0.00309681
-0.00337826
-0.00352393
-0.00354913
-0.00347684
-0.00333055
-0.00313101
-0.00289448
-0.00263494
-0.00236254
-0.00208658
-0.00181171
-0.00154393
-0.00128292
-0.00103364
-0.000790811
-0.000561079
-0.000332134
-0.000117711
-0.00330063
-0.00378361
-0.00408354
-0.00421152
-0.0041939
-0.00406449
-0.00385463
-0.00358992
-0.00328957
-0.00296989
-0.00264236
-0.00231713
-0.00199879
-0.00169323
-0.0013995
-0.0011222
-0.000854684
-0.000604276
-0.000356687
-0.000126474
-0.00410301
-0.00464346
-0.00494465
-0.00502991
-0.00494257
-0.00473107
-0.00443596
-0.00408798
-0.0037093
-0.00331797
-0.0029264
-0.00254539
-0.00217964
-0.00183384
-0.00150579
-0.00120049
-0.000909736
-0.000640836
-0.000376952
-0.000134055
-0.00514628
-0.00572934
-0.00600046
-0.0060047
-0.00581063
-0.00548462
-0.0050768
-0.00462319
-0.00414917
-0.00367402
-0.00320992
-0.00276706
-0.00234839
-0.00195978
-0.0015975
-0.00126542
-0.000953162
-0.000668484
-0.000391375
-0.000140183
-0.00652218
-0.00711411
-0.00729979
-0.00716452
-0.00681358
-0.00633237
-0.00577838
-0.00519145
-0.00460019
-0.00402663
-0.00348009
-0.00296942
-0.0024966
-0.00206516
-0.00166932
-0.00131202
-0.000980836
-0.000683988
-0.000397926
-0.000144251
-0.00838354
-0.00891101
-0.00891518
-0.0085478
-0.0079669
-0.00727874
-0.00654146
-0.00579245
-0.00506133
-0.00436895
-0.00372866
-0.00314569
-0.00261714
-0.00214296
-0.00171517
-0.00133503
-0.000988662
-0.000683695
-0.000394446
-0.000144639
-0.0107818
-0.0111571
-0.0108573
-0.0101524
-0.00925238
-0.00828274
-0.00731236
-0.00637062
-0.00548322
-0.0046694
-0.00393515
-0.00328019
-0.00269779
-0.00218408
-0.00172882
-0.00132985
-0.000973635
-0.0006642
-0.000379111
-0.000137356
-0.0143033
-0.0139907
-0.0131338
-0.0119769
-0.0106781
-0.00934916
-0.00807005
-0.00689573
-0.00584124
-0.0049058
-0.00408203
-0.00336175
-0.00273302
-0.00218658
-0.00171042
-0.00129776
-0.000937857
-0.000626138
-0.00035302
-0.000117211
-0.0189487
-0.017348
-0.0154503
-0.0135532
-0.0117704
-0.0101079
-0.00859436
-0.0072479
-0.0060676
-0.0050413
-0.00415264
-0.00338659
-0.00272677
-0.00215988
-0.00167227
-0.00125245
-0.000893847
-0.000579839
-0.000323258
-8.19479e-05
-0.0206691
-0.0193866
-0.0173734
-0.0148798
-0.0126589
-0.0106861
-0.0089657
-0.00747849
-0.0062028
-0.00511217
-0.00418081
-0.00338667
-0.00270894
-0.00213097
-0.00163783
-0.00121456
-0.000858913
-0.000540633
-0.000303374
-3.10519e-05
-0.0256814
-0.019523
-0.0173978
-0.0147465
-0.0126196
-0.0106468
-0.00894439
-0.00745937
-0.00618367
-0.00509075
-0.00415711
-0.00336142
-0.00268293
-0.00210435
-0.00161309
-0.0011869
-0.000841206
-0.00050417
-0.000308002
4.61602e-05
-0.0241492
-0.0195663
-0.017482
-0.0147673
-0.0126434
-0.0106539
-0.00894983
-0.00746075
-0.00618263
-0.00508745
-0.00415215
-0.00335524
-0.00267607
-0.00209685
-0.00160607
-0.00117861
-0.000836159
-0.000493041
-0.000310114
7.08434e-05
-0.0233335
-0.0195631
-0.0175326
-0.0148002
-0.0126746
-0.0106699
-0.00896102
-0.00746677
-0.00618544
-0.00508767
-0.00415054
-0.00335225
-0.00267228
-0.0020923
-0.00160169
-0.00117333
-0.000832668
-0.000486417
-0.000310286
8.52069e-05
-0.0227675
-0.0195308
-0.0175205
-0.0148136
-0.0126914
-0.0106786
-0.00896739
-0.0074701
-0.00618687
-0.00508749
-0.00414919
-0.00334997
-0.00266949
-0.00208897
-0.00159851
-0.00116952
-0.000830151
-0.000481779
-0.000310191
9.47687e-05
-0.0223914
-0.0194802
-0.0174971
-0.014818
-0.0126967
-0.0106815
-0.00896965
-0.00747104
-0.006187
-0.00508686
-0.00414798
-0.00334829
-0.00266753
-0.00208671
-0.00159639
-0.00116704
-0.000828543
-0.000478867
-0.000310187
0.000100405
-0.0222612
-0.01946
-0.0174845
-0.0148189
-0.0126974
-0.0106819
-0.00896972
-0.00747084
-0.00618663
-0.00508632
-0.00414727
-0.00334742
-0.00266655
-0.00208565
-0.00159539
-0.00116599
-0.000827831
-0.000477903
-0.000310122
0.000101772
-0.0223902
-0.01948
-0.0174867
-0.0148171
-0.012695
-0.0106803
-0.00896788
-0.00746967
-0.00618585
-0.0050859
-0.00414705
-0.00334735
-0.00266654
-0.00208576
-0.00159548
-0.00116636
-0.000827983
-0.000478889
-0.000309962
9.88173e-05
-0.0227412
-0.0195198
-0.0174967
-0.014811
-0.0126856
-0.0106751
-0.00896309
-0.00746679
-0.00618414
-0.0050852
-0.00414702
-0.00334784
-0.00266729
-0.00208687
-0.00159655
-0.001168
-0.00082898
-0.000481621
-0.000309847
9.17727e-05
-0.0233268
-0.0195428
-0.0174805
-0.0148041
-0.0126669
-0.0106645
-0.00895429
-0.00746156
-0.00618108
-0.00508397
-0.00414702
-0.00334879
-0.00266877
-0.00208895
-0.00159859
-0.00117093
-0.000830798
-0.000486226
-0.00030948
7.98846e-05
-0.0242482
-0.0195751
-0.0174365
-0.014792
-0.0126397
-0.0106507
-0.00894301
-0.00745546
-0.006178
-0.00508338
-0.00414813
-0.00335114
-0.00267184
-0.00209281
-0.00160226
-0.00117604
-0.00083347
-0.000494546
-0.000306924
5.85121e-05
-0.0234426
-0.0198272
-0.0173388
-0.0147686
-0.0125805
-0.0106217
-0.00892069
-0.00744446
-0.00617376
-0.00508448
-0.00415296
-0.00335857
-0.00268085
-0.00210336
-0.00161225
-0.0011893
-0.000840371
-0.000515723
-0.000299964
6.47756e-06
-0.021611
-0.0188339
-0.0166382
-0.0143771
-0.0123003
-0.0104343
-0.00879314
-0.00736124
-0.00612136
-0.00505415
-0.00413821
-0.00335491
-0.00268478
-0.00211279
-0.00162467
-0.00120519
-0.00085454
-0.000537585
-0.000306013
-3.72963e-05
-0.0192916
-0.0174391
-0.0155697
-0.0136458
-0.0117871
-0.0100777
-0.00854722
-0.0071957
-0.00601314
-0.0049866
-0.00409936
-0.00333638
-0.00268037
-0.0021184
-0.00163653
-0.00122232
-0.000871833
-0.000561356
-0.000317353
-7.2101e-05
-0.0163651
-0.0154011
-0.0140591
-0.0125588
-0.0110295
-0.00954133
-0.00816659
-0.00692934
-0.00583071
-0.00486546
-0.00402258
-0.0032916
-0.00265834
-0.00211275
-0.00164158
-0.001236
-0.000887551
-0.000584297
-0.000329362
-9.9098e-05
-0.0136483
-0.0132951
-0.0124215
-0.0113046
-0.0100833
-0.00885352
-0.00766803
-0.00656881
-0.00557366
-0.00468604
-0.00390087
-0.00321263
-0.00261068
-0.00208826
-0.00163302
-0.00123999
-0.0008967
-0.000601408
-0.000339224
-0.00011731
-0.0113338
-0.0113596
-0.0108443
-0.0100408
-0.00909382
-0.00809042
-0.00709293
-0.00614076
-0.00525735
-0.00445566
-0.00373647
-0.00309865
-0.0025347
-0.00204117
-0.00160673
-0.00123002
-0.00089566
-0.000609364
-0.000344848
-0.000127148
-0.00943205
-0.00967626
-0.00941937
-0.00885932
-0.00813306
-0.00732449
-0.00649132
-0.0056759
-0.00490303
-0.00418837
-0.00353781
-0.00295403
-0.00243216
-0.00197147
-0.00156172
-0.0012044
-0.000882724
-0.00060678
-0.000345067
-0.000129987
-0.00788051
-0.00824101
-0.00816023
-0.00778413
-0.00723302
-0.00658518
-0.005894
-0.0051995
-0.00452847
-0.00389743
-0.00331449
-0.00278533
-0.00230724
-0.00188157
-0.00149923
-0.00116357
-0.000857859
-0.000593891
-0.000339592
-0.000127805
-0.00660234
-0.00701669
-0.0070519
-0.00681273
-0.00639962
-0.00588358
-0.0053131
-0.00472506
-0.00414529
-0.00359233
-0.0030742
-0.00259854
-0.00216443
-0.0017747
-0.00142152
-0.00110919
-0.000822044
-0.000571866
-0.000328749
-0.000122474
-0.00553639
-0.00596496
-0.00607293
-0.0059343
-0.00562975
-0.00522152
-0.00475324
-0.00425823
-0.00376073
-0.00327884
-0.00282218
-0.00239819
-0.00200749
-0.00165394
-0.00133096
-0.00104319
-0.000776645
-0.000542138
-0.000313141
-0.000115303
-0.00463771
-0.00505506
-0.00520453
-0.00513779
-0.00491782
-0.00459758
-0.00421562
-0.0038017
-0.00337787
-0.0029614
-0.00256207
-0.00218757
-0.00183937
-0.00152183
-0.00122966
-0.000967453
-0.000723047
-0.000506024
-0.000293439
-0.000107014
-0.00387236
-0.0042623
-0.00443071
-0.00441328
-0.00425815
-0.00400929
-0.00370009
-0.0033567
-0.00299876
-0.00264212
-0.0022962
-0.00196918
-0.00166236
-0.00138049
-0.00111945
-0.000883575
-0.000662521
-0.000464627
-0.000270284
-9.79239e-05
-0.00321365
-0.00356616
-0.00373737
-0.00375163
-0.00364526
-0.0034539
-0.00320588
-0.00292378
-0.00262471
-0.00232286
-0.00202708
-0.00174505
-0.00147836
-0.0012317
-0.00100189
-0.000792951
-0.000596203
-0.000418847
-0.000244252
-8.81447e-05
-0.00264006
-0.0029492
-0.00311183
-0.00314433
-0.00307374
-0.0029284
-0.00273178
-0.00250296
-0.00225657
-0.00200491
-0.00175589
-0.00151645
-0.00128891
-0.00107695
-0.000878342
-0.000696789
-0.000525098
-0.000369439
-0.000215848
-7.77173e-05
-0.00213395
-0.00239651
-0.00254266
-0.0025833
-0.00253825
-0.00242957
-0.0022762
-0.00209386
-0.00189472
-0.00168915
-0.00148398
-0.00128537
-0.00109542
-0.000917511
-0.000750009
-0.000596146
-0.000450096
-0.000317057
-0.000185512
-6.66821e-05
-0.00168075
-0.00189524
-0.0020196
-0.00206092
-0.00203349
-0.00195398
-0.0018372
-0.00169568
-0.00153918
-0.00137614
-0.0012122
-0.00105253
-0.000898992
-0.000754534
-0.000617951
-0.000491961
-0.000371988
-0.000262281
-0.000153636
-5.5118e-05
-0.00126839
-0.00143439
-0.00153343
-0.00157006
-0.00155423
-0.00149806
-0.00141259
-0.00130729
-0.00118963
-0.0010661
-0.000941126
-0.000818753
-0.000700535
-0.00058898
-0.000483077
-0.00038504
-0.000291446
-0.000205613
-0.00012055
-4.31646e-05
-0.000886756
-0.00100453
-0.00107609
-0.0011043
-0.00109567
-0.00105841
-0.00100013
-0.000927425
-0.00084553
-0.000759046
-0.000671113
-0.000584669
-0.000500879
-0.00042159
-0.000346086
-0.000276016
-0.000208972
-0.000147387
-8.6396e-05
-3.09114e-05
-0.000526362
-0.000597143
-0.00064052
-0.000658102
-0.000653671
-0.000632112
-0.000597909
-0.000554979
-0.000506401
-0.000454943
-0.000402468
-0.000350784
-0.000300548
-0.000252969
-0.000207569
-0.000165419
-0.000124977
-8.78516e-05
-5.11188e-05
-1.80912e-05
-0.000180641
-0.000202569
-0.000217132
-0.000222831
-0.000220952
-0.000213294
-0.000201408
-0.000186634
-0.000170001
-0.00015246
-0.000134613
-0.0001171
-0.000100082
-8.39366e-05
-6.86042e-05
-5.44292e-05
-4.07652e-05
-2.82747e-05
-1.58437e-05
-4.94686e-06
-0.0231469
-0.0251185
-0.0250784
-0.0252833
-0.0256918
-0.0259668
-0.0260333
-0.0259501
-0.0258049
-0.0255639
-0.0161133
-0.0192265
-0.0205634
-0.0213339
-0.022003
-0.022528
-0.0228353
-0.0229363
-0.0228695
-0.0226626
-0.0116166
-0.0147078
-0.0163076
-0.0171891
-0.0179314
-0.0186132
-0.0191496
-0.019497
-0.0196621
-0.0196685
-0.00834968
-0.010943
-0.0123488
-0.0131707
-0.0138946
-0.0145985
-0.0152064
-0.0156679
-0.0159829
-0.0161695
-0.00607369
-0.00818407
-0.00936442
-0.010098
-0.0107672
-0.0114312
-0.0120285
-0.0125176
-0.0128965
-0.0131769
-0.00451267
-0.00622613
-0.00721828
-0.00786161
-0.00845728
-0.00905262
-0.0096
-0.0100668
-0.0104505
-0.010759
-0.00341609
-0.00480455
-0.00564135
-0.00620295
-0.00672563
-0.0072493
-0.00773777
-0.00816535
-0.00852913
-0.00883473
-0.00263052
-0.00375271
-0.00445903
-0.00494849
-0.00540458
-0.00586133
-0.00629177
-0.00667565
-0.00700997
-0.00729855
-0.00205891
-0.00296178
-0.00355586
-0.00398079
-0.00437684
-0.00477262
-0.0051484
-0.00548838
-0.00578971
-0.00605493
-0.00163656
-0.00235873
-0.00285526
-0.00322191
-0.00356395
-0.0039047
-0.00422999
-0.0045277
-0.00479529
-0.00503434
-0.00131933
-0.00189343
-0.00230522
-0.00261907
-0.00291242
-0.00320366
-0.00348278
-0.00374063
-0.00397502
-0.0041869
-0.00107567
-0.00152907
-0.00186762
-0.00213369
-0.00238309
-0.00262987
-0.00286703
-0.00308779
-0.00329033
-0.00347515
-0.000882576
-0.00123797
-0.00151357
-0.00173657
-0.00194632
-0.00215321
-0.00235243
-0.00253901
-0.00271149
-0.0028701
-0.000723742
-0.000999684
-0.00122134
-0.00140561
-0.00157954
-0.00175062
-0.00191555
-0.00207081
-0.00221521
-0.00234883
-0.000587896
-0.000799329
-0.000974685
-0.00112402
-0.00126547
-0.00140425
-0.00153816
-0.00166471
-0.00178301
-0.001893
-0.000467312
-0.000626012
-0.000761358
-0.000879016
-0.000990799
-0.00110023
-0.00120589
-0.00130605
-0.00140005
-0.0014878
-0.000356638
-0.000471634
-0.000572037
-0.000660778
-0.000745264
-0.0008278
-0.000907492
-0.000983217
-0.00105449
-0.00112122
-0.00025249
-0.000329984
-0.000399058
-0.00046107
-0.000520237
-0.000577918
-0.000633593
-0.000686581
-0.000736564
-0.000783453
-0.000154314
-0.000198476
-0.000238215
-0.000274254
-0.000308778
-0.000342492
-0.000375077
-0.000406145
-0.000435563
-0.000463401
-5.91547e-05
-7.73782e-05
-9.23211e-05
-0.000104575
-0.000116083
-0.00012741
-0.000138336
-0.000148566
-0.000157851
-0.000165952
0.000356656
0.000349838
0.000405261
0.00043211
0.000532717
0.000588485
0.000758686
0.000854675
0.00113223
0.00128383
0.00173938
0.00196945
0.00274643
0.00308487
0.00452455
0.00500175
0.00811604
0.00859591
0.0163823
0.00608488
0.000346916
0.000339486
0.000394005
0.000420472
0.000518274
0.000573111
0.000738632
0.000833533
0.00110305
0.00125401
0.00169482
0.00192632
0.0026709
0.00301705
0.0043594
0.00485891
0.00752019
0.00798974
0.0121127
0.00620578
0.00033579
0.000328098
0.000381435
0.000407239
0.000502052
0.000555587
0.000715858
0.000809249
0.00106934
0.00121942
0.00164204
0.00187554
0.00257872
0.0029352
0.00415558
0.00468214
0.00682958
0.00733838
0.00904015
0.00702855
0.000323339
0.000315832
0.000367345
0.000392746
0.000483728
0.000536407
0.000689868
0.000782536
0.00103038
0.00118107
0.00158013
0.00181847
0.0024694
0.00284123
0.00391703
0.00447937
0.00611213
0.00671167
0.00698784
0.006954
0.000309691
0.000302647
0.000351839
0.000376975
0.000463446
0.000515508
0.000660903
0.000753253
0.000986627
0.00113864
0.00151012
0.0017545
0.002346
0.00273463
0.00365702
0.00425583
0.00543741
0.00614773
0.0055417
0.00618656
0.000294922
0.000288529
0.000335025
0.000359921
0.000441356
0.000492847
0.000629221
0.000721302
0.000938569
0.00109196
0.00143316
0.00168343
0.00221185
0.00261598
0.0033882
0.00401627
0.00482799
0.00563683
0.00444973
0.00521027
0.00027911
0.000273496
0.000316989
0.00034161
0.000417586
0.000468438
0.000595048
0.000686679
0.00088667
0.00104102
0.00135032
0.00160537
0.00207006
0.0024861
0.00311997
0.00376518
0.00428578
0.00514061
0.00359508
0.00424871
0.000262332
0.000257565
0.00029782
0.00032208
0.00039227
0.000442306
0.000558627
0.000649405
0.000831413
0.000985833
0.00126271
0.00152043
0.00192335
0.00234547
0.00285638
0.00350656
0.00379822
0.00464589
0.0029172
0.00338486
0.000244659
0.000240761
0.000277614
0.000301369
0.000365556
0.000414486
0.000520213
0.00060951
0.000773274
0.00092644
0.00117129
0.00142868
0.00177361
0.00219484
0.00259881
0.00324035
0.00335455
0.00415687
0.00237906
0.00264562
0.00022616
0.00022311
0.000256466
0.000279522
0.00033759
0.00038502
0.000480051
0.000567039
0.000712695
0.000862882
0.00107688
0.00133023
0.00162185
0.00203506
0.00234746
0.00296687
0.00294843
0.00368235
0.0019516
0.00203254
0.000206906
0.000204649
0.000234474
0.000256591
0.000308517
0.000353962
0.000438374
0.000522055
0.000650061
0.000795243
0.00098005
0.00122538
0.00146871
0.00186681
0.00210218
0.00268777
0.00257569
0.00322882
0.00160972
0.00153534
0.000186969
0.000185417
0.00021173
0.000232637
0.000278473
0.000321382
0.000395394
0.000474649
0.000585707
0.00072368
0.000881236
0.0011145
0.00131471
0.00169089
0.00186278
0.00240517
0.0022326
0.00279967
0.00133221
0.00113904
0.000166418
0.000165464
0.000188326
0.000207728
0.00024759
0.000287367
0.000351307
0.000424947
0.000519908
0.000648419
0.000780815
0.000998017
0.00116022
0.00150823
0.00162905
0.00212091
0.00191534
0.00239603
0.00110219
0.000828536
0.000145325
0.000144849
0.000164351
0.000181946
0.000215989
0.000252025
0.000306287
0.000373112
0.000452908
0.000569737
0.000679104
0.000876443
0.00100551
0.00131972
0.00140064
0.00183635
0.00162001
0.00201759
0.00090675
0.000589706
0.000123763
0.000123637
0.000139888
0.000155378
0.000183784
0.000215479
0.000260492
0.000319341
0.000384922
0.000487958
0.000576373
0.000750311
0.000850782
0.00112622
0.00117706
0.00155237
0.00134285
0.00166295
0.000736207
0.000409511
0.000101805
0.000101904
0.00011502
0.000128127
0.000151081
0.000177877
0.000214063
0.000263865
0.00031614
0.000403448
0.000472842
0.000620182
0.000696163
0.000928441
0.000957667
0.00126939
0.00108036
0.0013298
0.000583303
0.000276107
7.95211e-05
7.97328e-05
8.98246e-05
0.000100302
0.000117981
0.000139386
0.000167132
0.000206947
0.000246735
0.000316619
0.000368708
0.000486655
0.000541716
0.000727071
0.000741767
0.000987454
0.00082933
0.00101512
0.000442588
0.000178834
5.69841e-05
5.72123e-05
6.43791e-05
7.2027e-05
8.45872e-05
0.000100194
0.000119841
0.000148888
0.000176899
0.000227941
0.000264194
0.000350387
0.000387551
0.000522761
0.000528757
0.000706356
0.000587034
0.000715285
0.000310171
0.000108
3.42632e-05
3.44359e-05
3.87503e-05
4.34172e-05
5.09838e-05
6.04782e-05
7.23037e-05
8.99646e-05
0.000106791
0.000137834
0.000159498
0.000211936
0.000233773
0.000315956
0.000318141
0.000425425
0.000351284
0.000426091
0.000183687
5.53641e-05
1.14292e-05
1.1505e-05
1.29645e-05
1.45456e-05
1.71263e-05
2.03029e-05
2.4373e-05
3.02394e-05
3.61022e-05
4.6359e-05
5.40386e-05
7.12946e-05
7.93003e-05
0.000106227
0.000107859
0.000142681
0.000118607
0.000141834
6.12116e-05
1.55023e-05
0.000386341
0.000378444
0.000437218
0.000466284
0.000573144
0.000632079
0.000811519
0.000912003
0.00120307
0.00135885
0.00183333
0.00206433
0.00287104
0.00319996
0.00470101
0.00515344
0.00850221
0.008997
0.0196689
0.0160792
0.000384603
0.000376887
0.000435684
0.000463882
0.000571598
0.000629093
0.00081004
0.000908173
0.00120199
0.00135413
0.00183408
0.00205932
0.00287758
0.00319721
0.0047313
0.00516462
0.00865898
0.00920217
0.0207993
0.0202947
0.000382581
0.000375278
0.000433813
0.000461653
0.000569221
0.000626385
0.000807232
0.000904812
0.00119882
0.00135021
0.00183146
0.00205551
0.00287864
0.00319604
0.00474915
0.00517813
0.00876479
0.00938225
0.0215463
0.0231972
0.000380375
0.000373356
0.000431743
0.000459135
0.000566554
0.000623267
0.000803977
0.00090085
0.00119492
0.00134535
0.00182753
0.00205017
0.00287701
0.00319194
0.00475872
0.00518326
0.00883693
0.00950529
0.0220448
0.0250479
0.000377979
0.000371114
0.000429399
0.000456303
0.000563571
0.000619698
0.000800251
0.000896221
0.00119027
0.00133946
0.00182222
0.00204313
0.00287239
0.0031847
0.00475982
0.00518035
0.00887163
0.00956484
0.022286
0.0259069
0.000375382
0.000368579
0.000426756
0.000453197
0.000560219
0.00061574
0.000795964
0.000891021
0.0011847
0.00133268
0.0018153
0.00203463
0.00286442
0.00317473
0.00475199
0.00516982
0.00886713
0.009559
0.0222666
0.0257939
0.000372582
0.000365755
0.000423826
0.000449823
0.000556498
0.000611399
0.000791117
0.000885258
0.00117823
0.00132502
0.00180676
0.00202469
0.00285314
0.00316202
0.00473525
0.00515149
0.00882371
0.00948812
0.0219884
0.0247091
0.000369589
0.000362624
0.000420633
0.000446157
0.000552443
0.000606639
0.000785762
0.000878875
0.00117094
0.0013164
0.00179675
0.00201314
0.00283877
0.00314633
0.00471001
0.00512506
0.00874286
0.0093555
0.0214524
0.0226259
0.000366406
0.0003592
0.000417162
0.000442225
0.000548025
0.0006015
0.000779856
0.000871933
0.00116275
0.00130692
0.00178514
0.00200017
0.0028211
0.00312798
0.00467594
0.00509153
0.00862484
0.00916988
0.0206466
0.0194589
0.000362965
0.000355664
0.000413165
0.000438307
0.000542901
0.000596409
0.000772861
0.000865108
0.00115281
0.00129766
0.00177051
0.00198764
0.0027977
0.00311028
0.00462876
0.00505707
0.00846266
0.00895664
0.0194473
0.0150296
)
;

boundaryField
{
    inlet
    {
        type            zeroGradient;
    }
    outlet
    {
        type            fixedValue;
        value           uniform 0;
    }
    upAndBottom
    {
        type            empty;
    }
    obstacle
    {
        type            zeroGradient;
    }
}


// ************************************************************************* //
