/*--------------------------------*- C++ -*----------------------------------*\
| =========                 |                                                 |
| \\      /  F ield         | OpenFOAM: The Open Source CFD Toolbox           |
|  \\    /   O peration     | Version:  v1806                                 |
|   \\  /    A nd           | Web:      www.OpenFOAM.com                      |
|    \\/     M anipulation  |                                                 |
\*---------------------------------------------------------------------------*/
FoamFile
{
    version     2.0;
    format      ascii;
    class       volVectorField;
    location    "270";
    object      U;
}
// * * * * * * * * * * * * * * * * * * * * * * * * * * * * * * * * * * * * * //

dimensions      [0 1 -1 0 0 0 0];


internalField   nonuniform List<vector> 
2400
(
(0.299999 -7.80476e-05 0)
(0.299994 -0.000455737 0)
(0.299988 -0.000628456 0)
(0.299976 -0.00106485 0)
(0.299962 -0.0012842 0)
(0.299934 -0.00182524 0)
(0.299908 -0.00215381 0)
(0.299861 -0.00286283 0)
(0.299817 -0.00337363 0)
(0.299746 -0.00428914 0)
(0.299683 -0.00505946 0)
(0.299586 -0.00624826 0)
(0.299502 -0.00734254 0)
(0.29939 -0.00877229 0)
(0.299304 -0.0101594 0)
(0.299213 -0.0117258 0)
(0.299166 -0.0131611 0)
(0.299165 -0.0144577 0)
(0.299242 -0.0153689 0)
(0.299404 -0.0157994 0)
(0.299997 -7.37321e-05 0)
(0.299988 -0.000457874 0)
(0.299974 -0.000617282 0)
(0.299954 -0.00106349 0)
(0.299924 -0.00126476 0)
(0.29988 -0.00181976 0)
(0.299832 -0.00212371 0)
(0.299761 -0.00285133 0)
(0.299689 -0.00332982 0)
(0.299584 -0.00426987 0)
(0.299489 -0.0050024 0)
(0.299352 -0.00622078 0)
(0.299241 -0.00727748 0)
(0.299096 -0.00874269 0)
(0.299008 -0.0101076 0)
(0.298924 -0.0117127 0)
(0.298937 -0.0131578 0)
(0.299033 -0.0144979 0)
(0.299266 -0.0154517 0)
(0.299633 -0.0159133 0)
(0.299995 -6.61175e-05 0)
(0.299981 -0.000460975 0)
(0.299957 -0.000597706 0)
(0.299927 -0.00106093 0)
(0.299877 -0.0012314 0)
(0.299812 -0.0018114 0)
(0.299734 -0.00207333 0)
(0.29963 -0.00283527 0)
(0.299521 -0.00325857 0)
(0.299367 -0.00424497 0)
(0.299228 -0.00491152 0)
(0.299031 -0.00618871 0)
(0.298879 -0.0071782 0)
(0.298677 -0.0087166 0)
(0.298576 -0.0100375 0)
(0.29848 -0.0117257 0)
(0.298555 -0.0131817 0)
(0.298752 -0.0146081 0)
(0.299171 -0.0156226 0)
(0.299787 -0.0161494 0)
(0.299992 -5.5037e-05 0)
(0.299975 -0.000465247 0)
(0.29994 -0.000569279 0)
(0.299901 -0.00105726 0)
(0.299829 -0.00118329 0)
(0.299742 -0.00180032 0)
(0.299633 -0.00200113 0)
(0.299493 -0.00281519 0)
(0.299341 -0.00315714 0)
(0.299135 -0.00421563 0)
(0.298946 -0.00478237 0)
(0.298679 -0.00615451 0)
(0.298479 -0.00703758 0)
(0.298204 -0.00869778 0)
(0.298084 -0.00993971 0)
(0.297953 -0.01177 0)
(0.298088 -0.0132248 0)
(0.29837 -0.0147923 0)
(0.298984 -0.0158898 0)
(0.299869 -0.016499 0)
(0.299989 -4.08782e-05 0)
(0.299971 -0.000470424 0)
(0.299923 -0.000532143 0)
(0.299875 -0.00105208 0)
(0.299781 -0.00112014 0)
(0.299674 -0.00178584 0)
(0.299531 -0.00190583 0)
(0.299356 -0.00279001 0)
(0.29916 -0.0030224 0)
(0.298899 -0.00418057 0)
(0.298657 -0.00460867 0)
(0.298316 -0.00611714 0)
(0.298063 -0.00684416 0)
(0.297702 -0.00868642 0)
(0.297557 -0.00979606 0)
(0.297368 -0.0118482 0)
(0.297562 -0.0132668 0)
(0.297904 -0.0150569 0)
(0.29873 -0.0162494 0)
(0.299898 -0.0169764 0)
(0.299986 -2.41882e-05 0)
(0.299967 -0.000475906 0)
(0.299907 -0.000486962 0)
(0.299851 -0.00104478 0)
(0.299734 -0.00104265 0)
(0.299608 -0.00176734 0)
(0.299431 -0.00178772 0)
(0.299222 -0.00275918 0)
(0.29898 -0.0028535 0)
(0.298666 -0.00413968 0)
(0.298367 -0.00438679 0)
(0.297949 -0.00607759 0)
(0.297638 -0.00658891 0)
(0.297178 -0.00868606 0)
(0.297004 -0.00958881 0)
(0.296727 -0.0119687 0)
(0.296983 -0.013284 0)
(0.297348 -0.0154171 0)
(0.298413 -0.0166949 0)
(0.299876 -0.0176024 0)
(0.299984 -5.68156e-06 0)
(0.299965 -0.000480937 0)
(0.299891 -0.000434717 0)
(0.299829 -0.00103459 0)
(0.299688 -0.000952049 0)
(0.299545 -0.00174404 0)
(0.299332 -0.00164797 0)
(0.299093 -0.00272204 0)
(0.298802 -0.00265087 0)
(0.298438 -0.00409267 0)
(0.298077 -0.00411477 0)
(0.29758 -0.00603662 0)
(0.297204 -0.00626425 0)
(0.296634 -0.00870007 0)
(0.296424 -0.00929966 0)
(0.296025 -0.0121418 0)
(0.296348 -0.0132462 0)
(0.296682 -0.0158959 0)
(0.298031 -0.0172087 0)
(0.299792 -0.0184057 0)
(0.299981 1.38913e-05 0)
(0.299965 -0.000484451 0)
(0.299877 -0.00037669 0)
(0.29981 -0.0010204 0)
(0.299643 -0.000850049 0)
(0.299486 -0.00171463 0)
(0.299237 -0.00148848 0)
(0.29897 -0.00267713 0)
(0.298627 -0.00241607 0)
(0.298215 -0.00403803 0)
(0.297789 -0.00379223 0)
(0.297212 -0.00599294 0)
(0.296763 -0.00586431 0)
(0.296071 -0.00872897 0)
(0.295812 -0.00891072 0)
(0.295255 -0.0123754 0)
(0.295645 -0.0131176 0)
(0.295879 -0.0165219 0)
(0.297573 -0.0177589 0)
(0.299613 -0.01943 0)
(0.299978 3.34683e-05 0)
(0.299967 -0.000485154 0)
(0.299864 -0.000314576 0)
(0.299793 -0.00100068 0)
(0.2996 -0.000738987 0)
(0.299432 -0.00167718 0)
(0.299144 -0.00131212 0)
(0.298853 -0.00262196 0)
(0.298456 -0.0021521 0)
(0.297999 -0.00397252 0)
(0.297502 -0.00342093 0)
(0.296847 -0.0059424 0)
(0.296314 -0.005386 0)
(0.295491 -0.00876866 0)
(0.295164 -0.0084065 0)
(0.294412 -0.0126718 0)
(0.294861 -0.0128607 0)
(0.294909 -0.0173253 0)
(0.297026 -0.0183019 0)
(0.29929 -0.0207374 0)
(0.299975 5.1709e-05 0)
(0.299972 -0.000481478 0)
(0.299851 -0.000250527 0)
(0.299779 -0.000973459 0)
(0.299558 -0.000621907 0)
(0.299383 -0.00162898 0)
(0.299054 -0.00112288 0)
(0.298745 -0.00255285 0)
(0.298289 -0.0018637 0)
(0.297795 -0.00389097 0)
(0.297218 -0.00300521 0)
(0.296488 -0.00587763 0)
(0.295857 -0.00482998 0)
(0.294896 -0.00880936 0)
(0.294477 -0.00777559 0)
(0.293494 -0.0130255 0)
(0.29398 -0.0124386 0)
(0.293743 -0.0183329 0)
(0.296369 -0.0187858 0)
(0.298746 -0.0224112 0)
(0.299971 6.72335e-05 0)
(0.299982 -0.000471422 0)
(0.299838 -0.000187173 0)
(0.299771 -0.000936214 0)
(0.299515 -0.000502661 0)
(0.299344 -0.00156642 0)
(0.298964 -0.000926045 0)
(0.298651 -0.00246469 0)
(0.298124 -0.00155761 0)
(0.297606 -0.00378603 0)
(0.296935 -0.0025525 0)
(0.296143 -0.0057877 0)
(0.295391 -0.00420138 0)
(0.294293 -0.00883505 0)
(0.293746 -0.00701206 0)
(0.292502 -0.0134197 0)
(0.292982 -0.0118173 0)
(0.292351 -0.0195621 0)
(0.295573 -0.0191505 0)
(0.29788 -0.0245638 0)
(0.299966 7.84252e-05 0)
(0.299996 -0.000452628 0)
(0.299823 -0.000127732 0)
(0.299771 -0.00088579 0)
(0.299469 -0.000386085 0)
(0.299318 -0.00148478 0)
(0.298871 -0.000728528 0)
(0.298576 -0.00235064 0)
(0.297954 -0.00124313 0)
(0.297445 -0.00364767 0)
(0.296645 -0.00207398 0)
(0.295827 -0.00565771 0)
(0.294907 -0.00351071 0)
(0.293702 -0.00882307 0)
(0.292962 -0.00611687 0)
(0.291449 -0.0138245 0)
(0.291844 -0.0109661 0)
(0.290713 -0.0210156 0)
(0.294589 -0.0193215 0)
(0.296566 -0.027358 0)
(0.299961 8.35608e-05 0)
(0.300015 -0.000422377 0)
(0.299806 -7.60106e-05 0)
(0.299779 -0.000818316 0)
(0.299418 -0.000278187 0)
(0.299308 -0.00137786 0)
(0.298769 -0.000539445 0)
(0.29853 -0.00220127 0)
(0.29777 -0.000933188 0)
(0.297327 -0.00346197 0)
(0.29633 -0.0015861 0)
(0.295566 -0.00546722 0)
(0.294381 -0.00277553 0)
(0.293161 -0.0087432 0)
(0.292093 -0.00509998 0)
(0.290374 -0.0141974 0)
(0.290523 -0.00985875 0)
(0.288825 -0.0226779 0)
(0.29335 -0.0192011 0)
(0.294647 -0.0310179 0)
(0.299958 8.11018e-05 0)
(0.300034 -0.000378014 0)
(0.29979 -3.59295e-05 0)
(0.299791 -0.000729475 0)
(0.299366 -0.000185863 0)
(0.299313 -0.00123794 0)
(0.298659 -0.000370636 0)
(0.298516 -0.00200361 0)
(0.297564 -0.000646333 0)
(0.297268 -0.00320842 0)
(0.295969 -0.00111456 0)
(0.295401 -0.00518578 0)
(0.293767 -0.00202516 0)
(0.292741 -0.00855249 0)
(0.291065 -0.00398483 0)
(0.289383 -0.0144814 0)
(0.288916 -0.00847939 0)
(0.286754 -0.0245091 0)
(0.291737 -0.0186744 0)
(0.291926 -0.0357622 0)
(0.299965 7.01895e-05 0)
(0.300044 -0.000317832 0)
(0.299784 -1.04546e-05 0)
(0.299796 -0.000615848 0)
(0.299324 -0.000115122 0)
(0.299319 -0.00105766 0)
(0.298554 -0.000234419 0)
(0.298521 -0.00174231 0)
(0.297347 -0.000406631 0)
(0.297266 -0.00285734 0)
(0.295557 -0.000701337 0)
(0.295356 -0.00476378 0)
(0.293019 -0.00131454 0)
(0.292532 -0.00817804 0)
(0.28975 -0.00282066 0)
(0.288666 -0.0145907 0)
(0.286771 -0.00683499 0)
(0.284754 -0.0264613 0)
(0.289478 -0.0175901 0)
(0.288215 -0.0419259 0)
(0.29999 5.1255e-05 0)
(0.300028 -0.000241996 0)
(0.299805 -5.29696e-07 0)
(0.29977 -0.000476839 0)
(0.299318 -6.87247e-05 0)
(0.299292 -0.000833775 0)
(0.298493 -0.000138376 0)
(0.298499 -0.00140689 0)
(0.297172 -0.000233452 0)
(0.297264 -0.00237973 0)
(0.295155 -0.00039403 0)
(0.295386 -0.0041308 0)
(0.292171 -0.000746103 0)
(0.292552 -0.00748275 0)
(0.288051 -0.00172775 0)
(0.288426 -0.0143405 0)
(0.283655 -0.00498429 0)
(0.283396 -0.028494 0)
(0.285724 -0.0156901 0)
(0.283738 -0.050573 0)
(0.300043 2.66649e-05 0)
(0.299971 -0.000153427 0)
(0.299869 -3.52579e-06 0)
(0.299688 -0.000316067 0)
(0.299382 -4.40702e-05 0)
(0.299186 -0.000570607 0)
(0.298538 -8.09035e-05 0)
(0.298371 -0.00100012 0)
(0.297146 -0.000129416 0)
(0.297131 -0.00176812 0)
(0.294938 -0.000213175 0)
(0.295291 -0.00324014 0)
(0.291472 -0.000405772 0)
(0.292567 -0.00629467 0)
(0.28619 -0.000972235 0)
(0.288539 -0.0132964 0)
(0.279269 -0.00318012 0)
(0.283265 -0.0302421 0)
(0.278365 -0.0127442 0)
(0.280302 -0.0633588 0)
(0.300127 1.40746e-07 0)
(0.299863 -5.73234e-05 0)
(0.299987 -1.51504e-05 0)
(0.299531 -0.000142274 0)
(0.299542 -3.47591e-05 0)
(0.298963 -0.000281606 0)
(0.298745 -5.3625e-05 0)
(0.298058 -0.000541788 0)
(0.297391 -8.51484e-05 0)
(0.296704 -0.00105085 0)
(0.295158 -0.000149799 0)
(0.294741 -0.00211911 0)
(0.291438 -0.00030924 0)
(0.291939 -0.00457653 0)
(0.28511 -0.000724613 0)
(0.288029 -0.0110042 0)
(0.274621 -0.00205721 0)
(0.283459 -0.0303079 0)
(0.264917 -0.00848391 0)
(0.28171 -0.0803946 0)
(0.300233 -2.06349e-05 0)
(0.299714 3.58135e-05 0)
(0.300149 -2.08868e-05 0)
(0.299309 3.30129e-05 0)
(0.299789 -1.50709e-05 0)
(0.298628 1.17845e-05 0)
(0.299116 -1.19996e-05 0)
(0.297546 -7.08037e-05 0)
(0.297942 -2.27406e-05 0)
(0.295914 -0.0002991 0)
(0.295957 -8.01464e-05 0)
(0.293505 -0.0008873 0)
(0.292518 -0.000261121 0)
(0.289998 -0.00246472 0)
(0.286181 -0.00079584 0)
(0.285021 -0.00725463 0)
(0.273294 -0.00242333 0)
(0.279642 -0.0255857 0)
(0.249295 -0.00812775 0)
(0.288221 -0.102343 0)
(0.300338 -3.77825e-05 0)
(0.299557 0.000130186 0)
(0.30032 -3.49733e-05 0)
(0.299075 0.000203997 0)
(0.300065 -3.11614e-06 0)
(0.298261 0.000304291 0)
(0.299558 1.74897e-05 0)
(0.296956 0.000405894 0)
(0.298656 1.75967e-05 0)
(0.294937 0.00047747 0)
(0.297124 -4.53533e-05 0)
(0.291832 0.000408003 0)
(0.29447 -0.000271143 0)
(0.286943 -0.000200156 0)
(0.289516 -0.000881735 0)
(0.278816 -0.00297629 0)
(0.278681 -0.00261756 0)
(0.264484 -0.0178476 0)
(0.251038 -0.00838893 0)
(0.283795 -0.15203 0)
(0.29956 -0.0156242 0)
(0.299593 -0.0155768 0)
(0.299623 -0.0155199 0)
(0.299652 -0.0154546 0)
(0.299681 -0.0153808 0)
(0.29971 -0.0152986 0)
(0.299741 -0.015208 0)
(0.299771 -0.015109 0)
(0.299801 -0.015002 0)
(0.299831 -0.0148872 0)
(0.299904 -0.0157659 0)
(0.299959 -0.015725 0)
(0.300012 -0.0156743 0)
(0.300064 -0.015614 0)
(0.300117 -0.0155442 0)
(0.300169 -0.0154651 0)
(0.300222 -0.0153768 0)
(0.300275 -0.0152793 0)
(0.300327 -0.0151729 0)
(0.300379 -0.0150579 0)
(0.300229 -0.0160037 0)
(0.300321 -0.0159617 0)
(0.300408 -0.0159091 0)
(0.300493 -0.0158464 0)
(0.300576 -0.0157738 0)
(0.30066 -0.0156915 0)
(0.300743 -0.0155995 0)
(0.300825 -0.0154979 0)
(0.300906 -0.0153871 0)
(0.300984 -0.0152675 0)
(0.300501 -0.0163604 0)
(0.300632 -0.0163191 0)
(0.300756 -0.0162663 0)
(0.300876 -0.0162025 0)
(0.300995 -0.0161279 0)
(0.301114 -0.0160423 0)
(0.301232 -0.0159461 0)
(0.301348 -0.0158393 0)
(0.301461 -0.0157221 0)
(0.301572 -0.0155952 0)
(0.300737 -0.0168506 0)
(0.300911 -0.0168106 0)
(0.301077 -0.0167574 0)
(0.301238 -0.0166914 0)
(0.301398 -0.0166127 0)
(0.301557 -0.0165216 0)
(0.301714 -0.0164181 0)
(0.301869 -0.0163025 0)
(0.30202 -0.0161752 0)
(0.302167 -0.0160368 0)
(0.300949 -0.0174952 0)
(0.301174 -0.0174569 0)
(0.301389 -0.0174028 0)
(0.301598 -0.0173333 0)
(0.301805 -0.0172488 0)
(0.302011 -0.0171494 0)
(0.302214 -0.0170356 0)
(0.302413 -0.0169077 0)
(0.302608 -0.016766 0)
(0.302797 -0.0166115 0)
(0.301142 -0.0183244 0)
(0.301426 -0.0182878 0)
(0.301701 -0.0182317 0)
(0.301969 -0.0181566 0)
(0.302233 -0.0180632 0)
(0.302494 -0.0179519 0)
(0.302752 -0.0178232 0)
(0.303003 -0.0176776 0)
(0.303248 -0.0175157 0)
(0.303486 -0.0173388 0)
(0.301314 -0.0193823 0)
(0.301674 -0.0193464 0)
(0.302024 -0.0192852 0)
(0.302363 -0.0192004 0)
(0.302697 -0.0190932 0)
(0.303026 -0.0189642 0)
(0.303349 -0.0188139 0)
(0.303664 -0.0186432 0)
(0.303969 -0.0184529 0)
(0.304264 -0.0182448 0)
(0.301465 -0.0207288 0)
(0.301928 -0.0206904 0)
(0.302374 -0.0206185 0)
(0.302802 -0.0205171 0)
(0.303221 -0.0203881 0)
(0.303633 -0.0202324 0)
(0.304036 -0.0200507 0)
(0.304427 -0.0198441 0)
(0.304805 -0.0196136 0)
(0.305168 -0.0193622 0)
(0.301602 -0.022442 0)
(0.302208 -0.022395 0)
(0.302778 -0.0223026 0)
(0.303316 -0.0221734 0)
(0.30384 -0.0220106 0)
(0.304353 -0.0218149 0)
(0.304854 -0.0215871 0)
(0.305338 -0.0213289 0)
(0.305804 -0.021042 0)
(0.306248 -0.0207301 0)
(0.30174 -0.0246224 0)
(0.302548 -0.0245558 0)
(0.303281 -0.0244277 0)
(0.303956 -0.0242536 0)
(0.304607 -0.0240388 0)
(0.305246 -0.0237836 0)
(0.305867 -0.023489 0)
(0.306465 -0.0231572 0)
(0.307035 -0.0227905 0)
(0.307575 -0.0223947 0)
(0.30191 -0.0274029 0)
(0.303007 -0.0272971 0)
(0.303952 -0.0271086 0)
(0.304794 -0.0268639 0)
(0.305601 -0.0265701 0)
(0.306394 -0.0262268 0)
(0.307164 -0.025835 0)
(0.307899 -0.025398 0)
(0.308594 -0.0249192 0)
(0.309248 -0.0244066 0)
(0.302181 -0.0309597 0)
(0.30368 -0.0307821 0)
(0.3049 -0.0304961 0)
(0.305944 -0.0301424 0)
(0.306942 -0.0297303 0)
(0.307925 -0.029258 0)
(0.308877 -0.0287263 0)
(0.309779 -0.0281401 0)
(0.310625 -0.027504 0)
(0.311414 -0.0268293 0)
(0.302668 -0.0354804 0)
(0.304725 -0.0351899 0)
(0.306295 -0.0347582 0)
(0.307589 -0.0342439 0)
(0.308823 -0.0336588 0)
(0.310047 -0.0330005 0)
(0.311229 -0.0322702 0)
(0.312341 -0.031475 0)
(0.313374 -0.030621 0)
(0.314326 -0.0297244 0)
(0.303617 -0.0412571 0)
(0.306454 -0.0408035 0)
(0.308501 -0.0401697 0)
(0.310131 -0.039431 0)
(0.311682 -0.0386006 0)
(0.313224 -0.0376755 0)
(0.314705 -0.0366592 0)
(0.316085 -0.0355632 0)
(0.317353 -0.034397 0)
(0.318509 -0.0331853 0)
(0.305811 -0.0488858 0)
(0.309708 -0.048131 0)
(0.312403 -0.0471815 0)
(0.314508 -0.0461275 0)
(0.316506 -0.0449714 0)
(0.318476 -0.0437 0)
(0.320337 -0.0423134 0)
(0.322028 -0.0408255 0)
(0.323538 -0.0392434 0)
(0.324861 -0.0376124 0)
(0.311348 -0.059309 0)
(0.316389 -0.0578534 0)
(0.319583 -0.0561252 0)
(0.321971 -0.0542949 0)
(0.324234 -0.0523773 0)
(0.326447 -0.0503517 0)
(0.328477 -0.0482134 0)
(0.330235 -0.0459803 0)
(0.331708 -0.0436538 0)
(0.332914 -0.0413194 0)
(0.32204 -0.074013 0)
(0.328016 -0.0719447 0)
(0.330867 -0.0695096 0)
(0.332264 -0.0668224 0)
(0.333346 -0.0638849 0)
(0.334288 -0.0607095 0)
(0.33493 -0.0573316 0)
(0.335164 -0.0537992 0)
(0.334999 -0.0501046 0)
(0.334431 -0.046422 0)
(0.321041 -0.0758388 0)
(0.323795 -0.0701597 0)
(0.322644 -0.0653675 0)
(0.320026 -0.0610751 0)
(0.317132 -0.0569094 0)
(0.314022 -0.0527625 0)
(0.310552 -0.048633 0)
(0.306723 -0.0445177 0)
(0.302702 -0.0403767 0)
(0.298335 -0.0362322 0)
(0.264805 -0.0911259 0)
(0.247339 -0.0787362 0)
(0.225182 -0.0679075 0)
(0.206232 -0.0583216 0)
(0.190693 -0.049646 0)
(0.177138 -0.0417987 0)
(0.164946 -0.034773 0)
(0.154097 -0.0285171 0)
(0.144453 -0.0228497 0)
(0.135535 -0.0170048 0)
(0.299902 -0.0145951 0)
(0.300022 -0.0140325 0)
(0.300142 -0.0133826 0)
(0.300254 -0.0126636 0)
(0.300357 -0.0118965 0)
(0.300447 -0.0111021 0)
(0.300526 -0.0103004 0)
(0.300589 -0.00950888 0)
(0.300642 -0.00874298 0)
(0.300679 -0.00801559 0)
(0.300708 -0.00733663 0)
(0.300719 -0.00671573 0)
(0.300728 -0.00615624 0)
(0.300715 -0.0056683 0)
(0.30071 -0.00524582 0)
(0.300673 -0.00490663 0)
(0.30066 -0.00462834 0)
(0.300599 -0.00444846 0)
(0.300586 -0.00431401 0)
(0.300499 -0.00430247 0)
(0.3005 -0.014761 0)
(0.300673 -0.0141843 0)
(0.300827 -0.0135186 0)
(0.300955 -0.012783 0)
(0.301057 -0.0119985 0)
(0.30113 -0.0111863 0)
(0.301179 -0.0103669 0)
(0.301199 -0.00955828 0)
(0.301202 -0.00877621 0)
(0.301179 -0.00803393 0)
(0.301148 -0.00734131 0)
(0.301092 -0.00670821 0)
(0.301038 -0.00613776 0)
(0.300956 -0.0056402 0)
(0.300893 -0.00520922 0)
(0.300787 -0.00486244 0)
(0.300726 -0.00457755 0)
(0.300591 -0.00439125 0)
(0.30055 -0.00425192 0)
(0.300372 -0.00423514 0)
(0.301166 -0.0149606 0)
(0.301424 -0.0143624 0)
(0.301643 -0.0136687 0)
(0.301817 -0.012901 0)
(0.301944 -0.0120829 0)
(0.30202 -0.0112376 0)
(0.302054 -0.0103871 0)
(0.302042 -0.00955045 0)
(0.302 -0.00874378 0)
(0.301921 -0.0079805 0)
(0.301827 -0.00727042 0)
(0.301698 -0.00662306 0)
(0.301573 -0.00604125 0)
(0.301408 -0.0055347 0)
(0.301274 -0.00509681 0)
(0.301077 -0.00474456 0)
(0.300956 -0.00445569 0)
(0.300719 -0.00426614 0)
(0.300639 -0.00412501 0)
(0.300333 -0.00410685 0)
(0.301829 -0.0152674 0)
(0.302186 -0.0146252 0)
(0.302485 -0.0138803 0)
(0.302715 -0.0130577 0)
(0.302876 -0.0121844 0)
(0.302963 -0.0112865 0)
(0.302988 -0.0103879 0)
(0.30295 -0.00950869 0)
(0.302869 -0.00866558 0)
(0.302736 -0.00787189 0)
(0.302583 -0.00713718 0)
(0.302384 -0.00647038 0)
(0.302192 -0.00587366 0)
(0.301945 -0.00535604 0)
(0.301743 -0.00491013 0)
(0.301454 -0.00455245 0)
(0.301272 -0.00425996 0)
(0.300928 -0.00406845 0)
(0.300809 -0.00392633 0)
(0.300369 -0.00390776 0)
(0.302508 -0.0156783 0)
(0.302975 -0.0149728 0)
(0.303361 -0.0141552 0)
(0.303652 -0.0132558 0)
(0.303847 -0.0123063 0)
(0.303943 -0.0113366 0)
(0.303957 -0.010373 0)
(0.303889 -0.00943694 0)
(0.303765 -0.00854568 0)
(0.303577 -0.00771236 0)
(0.303364 -0.0069459 0)
(0.303092 -0.0062545 0)
(0.302832 -0.00563911 0)
(0.302503 -0.00510806 0)
(0.302234 -0.00465245 0)
(0.301853 -0.00428869 0)
(0.301614 -0.00399189 0)
(0.301164 -0.00379864 0)
(0.301008 -0.00365503 0)
(0.300434 -0.00363668 0)
(0.303232 -0.0162095 0)
(0.303822 -0.0154163 0)
(0.304302 -0.0144995 0)
(0.304655 -0.0134969 0)
(0.304881 -0.0124467 0)
(0.304981 -0.0113834 0)
(0.304976 -0.0103366 0)
(0.304869 -0.00932885 0)
(0.304695 -0.00837784 0)
(0.304442 -0.0074962 0)
(0.304161 -0.00669174 0)
(0.303813 -0.00597158 0)
(0.303479 -0.00533479 0)
(0.303066 -0.00478892 0)
(0.302726 -0.00432272 0)
(0.302254 -0.00395288 0)
(0.301955 -0.00365159 0)
(0.301401 -0.00345716 0)
(0.301207 -0.00331195 0)
(0.300501 -0.00329467 0)
(0.304031 -0.0168765 0)
(0.30476 -0.0159645 0)
(0.305341 -0.014916 0)
(0.305756 -0.0137787 0)
(0.306008 -0.0125994 0)
(0.306101 -0.0114185 0)
(0.306065 -0.0102688 0)
(0.305906 -0.00917428 0)
(0.305669 -0.00815229 0)
(0.30534 -0.00721455 0)
(0.304982 -0.00636706 0)
(0.304547 -0.00561533 0)
(0.304135 -0.00495576 0)
(0.30363 -0.00439492 0)
(0.303218 -0.00391836 0)
(0.302651 -0.00354339 0)
(0.302291 -0.00323817 0)
(0.301631 -0.00304378 0)
(0.301399 -0.00289733 0)
(0.300562 -0.00288219 0)
(0.304938 -0.0176995 0)
(0.305825 -0.0166283 0)
(0.306514 -0.0154069 0)
(0.306988 -0.0140969 0)
(0.307255 -0.0127555 0)
(0.307327 -0.01143 0)
(0.307243 -0.0101566 0)
(0.307015 -0.00896 0)
(0.306698 -0.0078566 0)
(0.30628 -0.0068563 0)
(0.305831 -0.00596236 0)
(0.3053 -0.00517796 0)
(0.304799 -0.00449585 0)
(0.304199 -0.00392138 0)
(0.303708 -0.00343596 0)
(0.303044 -0.00305794 0)
(0.302621 -0.00275021 0)
(0.301855 -0.0025578 0)
(0.301584 -0.00241086 0)
(0.300615 -0.00239921 0)
(0.305994 -0.0187027 0)
(0.307058 -0.0174189 0)
(0.307862 -0.0159728 0)
(0.308387 -0.0144433 0)
(0.308654 -0.0129013 0)
(0.308682 -0.0114013 0)
(0.308527 -0.00998243 0)
(0.308209 -0.00866884 0)
(0.307791 -0.007475 0)
(0.307265 -0.00640771 0)
(0.306711 -0.00546621 0)
(0.306071 -0.00465028 0)
(0.305474 -0.00394798 0)
(0.304771 -0.00336312 0)
(0.304197 -0.00287191 0)
(0.303433 -0.0024942 0)
(0.302946 -0.00218631 0)
(0.302073 -0.00199858 0)
(0.301763 -0.00185229 0)
(0.300662 -0.00184583 0)
(0.307253 -0.0199135 0)
(0.308517 -0.0183467 0)
(0.309435 -0.0166096 0)
(0.309997 -0.014804 0)
(0.310238 -0.0130168 0)
(0.310194 -0.0113096 0)
(0.309938 -0.00972306 0)
(0.3095 -0.00827894 0)
(0.308956 -0.00698806 0)
(0.308301 -0.00585233 0)
(0.307624 -0.00486533 0)
(0.306864 -0.00402205 0)
(0.30616 -0.00330469 0)
(0.305348 -0.00271492 0)
(0.304687 -0.00222284 0)
(0.303821 -0.00185017 0)
(0.303268 -0.0015455 0)
(0.302287 -0.00136581 0)
(0.301938 -0.00122183 0)
(0.300706 -0.00122236 0)
(0.308791 -0.0213618 0)
(0.310273 -0.0194187 0)
(0.3113 -0.0173062 0)
(0.311872 -0.015156 0)
(0.312049 -0.0130729 0)
(0.311892 -0.0111241 0)
(0.311496 -0.00934877 0)
(0.310903 -0.00776328 0)
(0.310204 -0.00637256 0)
(0.309394 -0.00517103 0)
(0.308576 -0.00414484 0)
(0.30768 -0.00328226 0)
(0.30686 -0.00255843 0)
(0.305932 -0.00197175 0)
(0.305181 -0.00148571 0)
(0.304209 -0.00112402 0)
(0.303588 -0.00082685 0)
(0.302496 -0.000658755 0)
(0.302109 -0.000519069 0)
(0.300741 -0.000528149 0)
(0.31071 -0.0230765 0)
(0.312425 -0.020634 0)
(0.313542 -0.0180402 0)
(0.314083 -0.0154645 0)
(0.314144 -0.0130298 0)
(0.31382 -0.0108047 0)
(0.313235 -0.0088223 0)
(0.312445 -0.00708954 0)
(0.311553 -0.00560164 0)
(0.310559 -0.00434226 0)
(0.309577 -0.00328817 0)
(0.308527 -0.00241851 0)
(0.307578 -0.00170042 0)
(0.306522 -0.00112733 0)
(0.305673 -0.000655622 0)
(0.304583 -0.000311258 0)
(0.303891 -2.70058e-05 0)
(0.302673 0.000125996 0)
(0.302244 0.00025879 0)
(0.30072 0.000241385 0)
(0.31316 -0.0250901 0)
(0.315122 -0.0219848 0)
(0.316295 -0.018778 0)
(0.316742 -0.0156836 0)
(0.316614 -0.0128374 0)
(0.316053 -0.0103016 0)
(0.315212 -0.00809751 0)
(0.314165 -0.00621752 0)
(0.313029 -0.00464218 0)
(0.311804 -0.00333971 0)
(0.310618 -0.00227405 0)
(0.309379 -0.00141304 0)
(0.308272 -0.00071388 0)
(0.307057 -0.000166616 0)
(0.306086 0.000279725 0)
(0.304843 0.000599107 0)
(0.304058 0.000865816 0)
(0.302671 0.00100214 0)
(0.302186 0.00112639 0)
(0.300446 0.00110334 0)
(0.316416 -0.0274217 0)
(0.318628 -0.0234354 0)
(0.319792 -0.019453 0)
(0.320037 -0.0157359 0)
(0.3196 -0.0124166 0)
(0.318678 -0.00953753 0)
(0.317463 -0.00709934 0)
(0.316043 -0.00507648 0)
(0.314557 -0.00343077 0)
(0.313004 -0.00210927 0)
(0.311526 -0.00105549 0)
(0.310011 -0.000225401 0)
(0.308669 0.000435372 0)
(0.30721 0.000942403 0)
(0.306048 0.00135562 0)
(0.304568 0.00164489 0)
(0.303634 0.00189348 0)
(0.30198 0.00201261 0)
(0.301402 0.00212907 0)
(0.299323 0.00210274 0)
(0.321017 -0.0300995 0)
(0.323401 -0.0249315 0)
(0.324343 -0.0199599 0)
(0.324114 -0.0154909 0)
(0.323082 -0.0116285 0)
(0.321516 -0.00837283 0)
(0.319651 -0.00568548 0)
(0.317595 -0.00352189 0)
(0.315514 -0.00182004 0)
(0.31341 -0.000506244 0)
(0.311438 0.000500929 0)
(0.309459 0.00126571 0)
(0.307712 0.00186242 0)
(0.305852 0.00230909 0)
(0.304358 0.00268087 0)
(0.302496 0.00292974 0)
(0.301295 0.00315977 0)
(0.29923 0.00325196 0)
(0.298484 0.00336241 0)
(0.295899 0.00332342 0)
(0.327637 -0.0333613 0)
(0.329641 -0.0264977 0)
(0.329621 -0.0201932 0)
(0.328141 -0.0147439 0)
(0.325785 -0.0101959 0)
(0.322923 -0.00650752 0)
(0.319825 -0.00357659 0)
(0.316615 -0.00130623 0)
(0.313477 0.000404096 0)
(0.310421 0.00166174 0)
(0.30761 0.00258118 0)
(0.304888 0.00324282 0)
(0.302494 0.00374715 0)
(0.300038 0.0041031 0)
(0.298036 0.00441506 0)
(0.295662 0.00459664 0)
(0.294073 0.0048035 0)
(0.291515 0.00483784 0)
(0.290525 0.00494543 0)
(0.287371 0.00485321 0)
(0.335134 -0.0352147 0)
(0.334703 -0.0262931 0)
(0.331715 -0.0185519 0)
(0.327267 -0.0120703 0)
(0.322162 -0.00683297 0)
(0.316851 -0.00276351 0)
(0.311642 0.000247131 0)
(0.306627 0.0024044 0)
(0.301954 0.00391303 0)
(0.297626 0.00493545 0)
(0.293757 0.00562057 0)
(0.290179 0.00605309 0)
(0.287078 0.00635761 0)
(0.284067 0.00652736 0)
(0.281606 0.00670735 0)
(0.278883 0.00674769 0)
(0.277 0.00689473 0)
(0.274217 0.00679899 0)
(0.273056 0.00689809 0)
(0.269715 0.00666185 0)
(0.332355 -0.0362313 0)
(0.324541 -0.0236412 0)
(0.315456 -0.0138967 0)
(0.306098 -0.00651865 0)
(0.297104 -0.000982153 0)
(0.288749 0.00304218 0)
(0.28125 0.00580924 0)
(0.274663 0.00759796 0)
(0.268973 0.00867928 0)
(0.264054 0.00925343 0)
(0.259891 0.00949822 0)
(0.256292 0.00951492 0)
(0.253327 0.00945104 0)
(0.25066 0.009293 0)
(0.248572 0.00922077 0)
(0.246419 0.0090206 0)
(0.244965 0.00904552 0)
(0.242913 0.00873959 0)
(0.242053 0.00882871 0)
(0.239669 0.00834569 0)
(0.28839 -0.0256169 0)
(0.267336 -0.0122689 0)
(0.250788 -0.0015325 0)
(0.237498 0.00535903 0)
(0.22723 0.00970336 0)
(0.219179 0.0122368 0)
(0.212951 0.0135761 0)
(0.208206 0.0140807 0)
(0.204676 0.0140235 0)
(0.202096 0.0136058 0)
(0.200315 0.0130021 0)
(0.199123 0.0123135 0)
(0.198475 0.0116733 0)
(0.198116 0.0110627 0)
(0.198132 0.0106559 0)
(0.198143 0.0101948 0)
(0.198446 0.0101055 0)
(0.198499 0.00960218 0)
(0.198788 0.00977275 0)
(0.198869 0.00901026 0)
(0.127985 0.00709992 0)
(0.119803 0.00902776 0)
(0.116465 0.0131316 0)
(0.113344 0.0142985 0)
(0.113442 0.0153843 0)
(0.114743 0.0155889 0)
(0.116875 0.0154134 0)
(0.119477 0.0148646 0)
(0.122401 0.0140628 0)
(0.125519 0.0131001 0)
(0.128777 0.0120873 0)
(0.132098 0.0111073 0)
(0.135467 0.0102624 0)
(0.138781 0.00954496 0)
(0.142039 0.00910514 0)
(0.145141 0.0086654 0)
(0.148007 0.0087231 0)
(0.150876 0.00819317 0)
(0.152858 0.00875957 0)
(0.156179 0.00769272 0)
(0.0375522 -0.00548615 0)
(0.038305 0.00314732 0)
(0.0486724 0.00892309 0)
(0.0517193 0.0103304 0)
(0.0573431 0.011661 0)
(0.0628247 0.0118599 0)
(0.0688445 0.0117622 0)
(0.0749166 0.0112907 0)
(0.0809983 0.0105831 0)
(0.086973 0.00971937 0)
(0.0928075 0.00880799 0)
(0.0984593 0.00793974 0)
(0.103916 0.0072126 0)
(0.109144 0.00663932 0)
(0.114092 0.00634489 0)
(0.118838 0.00609535 0)
(0.123034 0.00631536 0)
(0.12749 0.00599853 0)
(0.13031 0.00673881 0)
(0.135534 0.00578376 0)
(0.0126617 -0.0148907 0)
(0.0119528 0.000914544 0)
(0.0237481 0.00715841 0)
(0.0285126 0.00876023 0)
(0.0360909 0.00994837 0)
(0.0431199 0.0100617 0)
(0.0506113 0.00993136 0)
(0.0579995 0.00946877 0)
(0.0652856 0.00879709 0)
(0.0723524 0.00798505 0)
(0.0791727 0.00713323 0)
(0.0857145 0.00633108 0)
(0.0919665 0.00567296 0)
(0.0979217 0.00517917 0)
(0.103509 0.00496019 0)
(0.108881 0.00481192 0)
(0.11358 0.00509704 0)
(0.118651 0.00491906 0)
(0.12179 0.00567401 0)
(0.127765 0.00489401 0)
(-0.00181809 -0.0150815 0)
(-0.00648811 -0.000464753 0)
(0.00451384 0.00512036 0)
(0.0101929 0.00689647 0)
(0.0191728 0.00789428 0)
(0.0274034 0.00795704 0)
(0.0360694 0.00780516 0)
(0.0445133 0.00737077 0)
(0.0527689 0.00675392 0)
(0.0607142 0.00601444 0)
(0.0683263 0.00524344 0)
(0.0755794 0.00452809 0)
(0.0824636 0.00395758 0)
(0.0889935 0.00356041 0)
(0.0950853 0.00342857 0)
(0.100952 0.00339638 0)
(0.106051 0.00374596 0)
(0.111619 0.00373134 0)
(0.11502 0.00447443 0)
(0.121618 0.00392541 0)
(-0.00962149 -0.0118599 0)
(-0.0183353 -0.00111641 0)
(-0.00887211 0.0030682 0)
(-0.00278214 0.00475238 0)
(0.00708814 0.00550665 0)
(0.0161659 0.00555417 0)
(0.025682 0.00540655 0)
(0.0348937 0.00502784 0)
(0.0438547 0.00448964 0)
(0.0524371 0.00384529 0)
(0.0606193 0.00317614 0)
(0.0683792 0.00256727 0)
(0.075709 0.00210133 0)
(0.0826399 0.00181591 0)
(0.0890808 0.00178138 0)
(0.0952931 0.00187573 0)
(0.100672 0.00229178 0)
(0.106603 0.00244988 0)
(0.110197 0.00317638 0)
(0.117269 0.00287108 0)
(-0.0130354 -0.00703928 0)
(-0.0244572 -0.00116471 0)
(-0.016356 0.00122907 0)
(-0.0101618 0.00247098 0)
(0.000173583 0.00292299 0)
(0.00975235 0.00296065 0)
(0.0197783 0.00282799 0)
(0.0294516 0.00252185 0)
(0.0388342 0.00207838 0)
(0.047792 0.00154516 0)
(0.0563037 0.000993274 0)
(0.0643485 0.000505378 0)
(0.0719209 0.000156385 0)
(0.0790641 -6.81074e-06 0)
(0.0856858 6.24035e-05 0)
(0.0920823 0.000288913 0)
(0.097609 0.000770773 0)
(0.103756 0.00110524 0)
(0.107463 0.00180961 0)
(0.114848 0.00175532 0)
(-0.0131782 -0.00159179 0)
(-0.0253814 -0.000818898 0)
(-0.0179616 -0.000446346 0)
(-0.0118153 0.000143075 0)
(-0.00137461 0.000260882 0)
(0.008362 0.000279831 0)
(0.0185493 0.000164072 0)
(0.0283668 -6.15207e-05 0)
(0.0378744 -0.00040161 0)
(0.0469345 -0.000814399 0)
(0.0555243 -0.00123962 0)
(0.063622 -0.0015976 0)
(0.0712257 -0.0018222 0)
(0.0783849 -0.00185758 0)
(0.0850123 -0.00168223 0)
(0.0914242 -0.0013226 0)
(0.0969613 -0.000778484 0)
(0.103168 -0.000268908 0)
(0.106903 0.000404891 0)
(0.114428 0.000606155 0)
(-0.0102789 0.00350147 0)
(-0.0212824 -0.000460129 0)
(-0.0137173 -0.00208456 0)
(-0.00770572 -0.0021551 0)
(0.00250348 -0.0023911 0)
(0.0120532 -0.0023965 0)
(0.0220471 -0.00249507 0)
(0.0316847 -0.00263867 0)
(0.0410153 -0.00287295 0)
(0.0498999 -0.0031622 0)
(0.0583136 -0.00345712 0)
(0.0662306 -0.00368172 0)
(0.0736531 -0.00377942 0)
(0.0806316 -0.00368621 0)
(0.0870892 -0.00340631 0)
(0.0933472 -0.00291711 0)
(0.098756 -0.00231696 0)
(0.104865 -0.00163849 0)
(0.10854 -0.00100498 0)
(0.116027 -0.000549113 0)
(-0.00377621 0.00723648 0)
(-0.0119826 -0.000423843 0)
(-0.00364368 -0.00380173 0)
(0.00211328 -0.00434637 0)
(0.011732 -0.00493659 0)
(0.0207438 -0.00497297 0)
(0.030184 -0.00505702 0)
(0.0393155 -0.00512433 0)
(0.0481679 -0.00525723 0)
(0.0566025 -0.00542655 0)
(0.0645902 -0.00559372 0)
(0.0720986 -0.00568734 0)
(0.079134 -0.00566081 0)
(0.085742 -0.00544309 0)
(0.0918606 -0.00506418 0)
(0.0978014 -0.00445314 0)
(0.102948 -0.00380614 0)
(0.108805 -0.00296876 0)
(0.112333 -0.00238737 0)
(0.119605 -0.00168156 0)
(0.00774612 0.00814408 0)
(0.0030238 -0.00086646 0)
(0.0122203 -0.00557693 0)
(0.0174971 -0.0063781 0)
(0.0260989 -0.00726977 0)
(0.0342073 -0.00734966 0)
(0.042732 -0.00742844 0)
(0.0510343 -0.00743369 0)
(0.0591156 -0.0074774 0)
(0.0668365 -0.0075377 0)
(0.074161 -0.00758628 0)
(0.0810465 -0.00755732 0)
(0.0875026 -0.00741443 0)
(0.0935637 -0.00708111 0)
(0.0991872 -0.00661246 0)
(0.10466 -0.00589132 0)
(0.109419 -0.00520859 0)
(0.11488 -0.0042266 0)
(0.118181 -0.00370954 0)
(0.125065 -0.00276345 0)
(0.0267303 0.00320946 0)
(0.0246443 -0.00197833 0)
(0.033756 -0.00729667 0)
(0.0381587 -0.00822585 0)
(0.0452547 -0.00930941 0)
(0.0520711 -0.00945081 0)
(0.0593228 -0.00953507 0)