x,y,z,p
0,0,0,0.0045876
0,0.1,0,0.00794622
0,0.2,0,0.0113048
0,0.3,0,0.0146635
0,0.4,0,0.0186766
0,0.5,0,0.0233443
0,0.6,0,0.028012
0,0.7,0,0.0326798
0,0.8,0,0.0372279
0,0.9,0,0.041776
0,1,0,0.0463241
0,1.1,0,0.0508257
0,1.2,0,0.0552806
0,1.3,0,0.0597355
0,1.4,0,0.0641904
0,1.5,0,0.0684615
0,1.6,0,0.0727326
0,1.7,0,0.0770038
0,1.8,0,0.0811914
0,1.9,0,0.0852956
0,2,0,0.0893997
0,2.1,0,0.0935039
0,2.2,0,0.0974105
0,2.3,0,0.101317
0,2.4,0,0.105224
0,2.5,0,0.109011
0,2.6,0,0.112678
0,2.7,0,0.116345
0,2.8,0,0.120012
0,2.9,0,0.12344
0,3,0,0.126868
0,3.1,0,0.130296
0,3.2,0,0.13347
0,3.3,0,0.13639
0,3.4,0,0.13931
0,3.5,0,0.14223
0,3.6,0,0.145012
0,3.7,0,0.147793
0,3.8,0,0.150574
0,3.9,0,0.153251
0,4,0,0.155823
0,4.1,0,0.158396
0,4.2,0,0.160968
0,4.3,0,0.163034
0,4.4,0,0.165101
0,4.5,0,0.167167
0,4.6,0,0.169078
0,4.7,0,0.170834
0,4.8,0,0.172589
0,4.9,0,0.174345
0,5,0,0.175763
0,5.1,0,0.177181
0,5.2,0,0.178599
0,5.3,0,0.179774
0,5.4,0,0.180707
0,5.5,0,0.181639
0,5.6,0,0.182572
0,5.7,0,0.183085
0,5.8,0,0.183599
0,5.9,0,0.184112
0,6,0,0.184517
0,6.1,0,0.184814
0,6.2,0,0.185111
0,6.3,0,0.185408
0,6.4,0,0.185287
0,6.5,0,0.185166
0,6.6,0,0.185045
0,6.7,0,0.184793
0,6.8,0,0.18441
0,6.9,0,0.184027
0,7,0,0.183644
0,7.1,0,0.182493
0,7.2,0,0.181627
0,7.3,0,0.180647
0,7.4,0,0.179552
0,7.5,0,0.178341
0,7.6,0,0.177019
0,7.7,0,0.175584
0,7.8,0,0.174034
0,7.9,0,0.172392
0,8,0,0.16983
0,8.1,0,0.168065
0,8.2,0,0.1663
0,8.3,0,0.164288
0,8.4,0,0.162144
0,8.5,0,0.159916
0,8.6,0,0.157491
0,8.7,0,0.155067
0,8.8,0,0.152474
0,8.9,0,0.149872
0,9,0,0.147127
0,9.1,0,0.144287
0,9.2,0,0.141388
0,9.3,0,0.138314
0,9.4,0,0.135239
0,9.5,0,0.132037
0,9.6,0,0.12882
0,9.7,0,0.125483
0,9.8,0,0.122048
0,9.9,0,0.118582
0,10,0,0.114994
0,10.1,0,0.111405
0,10.2,0,0.107676
0,10.3,0,0.103922
0,10.4,0,0.100089
0,10.5,0,0.0961785
0,10.6,0,0.0922479
0,10.7,0,0.0882041
0,10.8,0,0.0841603
0,10.9,0,0.0800229
0,11,0,0.075862
0,11.1,0,0.0716558
0,11.2,0,0.0673942
0,11.3,0,0.063122
0,11.4,0,0.0587558
0,11.5,0,0.0543896
0,11.6,0,0.0499611
0,11.7,0,0.0455118
0,11.8,0,0.0410365
0,11.9,0,0.0365224
0,12,0,0.0320081
0,12.1,0,0.0274906
0,12.2,0,0.0229732
0,12.3,0,0.0183673
0,12.4,0,0.0137235
0,12.5,0,0.00955243
0,12.6,0,0.0062593
0,12.7,0,0.00296618
0.1,0,0,0.00415068
0.1,0.1,0,0.00746517
0.1,0.2,0,0.0108238
0.1,0.3,0,0.0141824
0.1,0.4,0,0.0187213
0.1,0.5,0,0.023389
0.1,0.6,0,0.0280567
0.1,0.7,0,0.0328383
0.1,0.8,0,0.037223
0.1,0.9,0,0.0417712
0.1,1,0,0.0463193
0.1,1.1,0,0.0508616
0.1,1.2,0,0.0553165
0.1,1.3,0,0.0597714
0.1,1.4,0,0.0644547
0.1,1.5,0,0.0684868
0.1,1.6,0,0.072758
0.1,1.7,0,0.0770291
0.1,1.8,0,0.0812217
0.1,1.9,0,0.0853259
0.1,2,0,0.0894301
0.1,2.1,0,0.0938505
0.1,2.2,0,0.097446
0.1,2.3,0,0.101353
0.1,2.4,0,0.105259
0.1,2.5,0,0.109055
0.1,2.6,0,0.112722
0.1,2.7,0,0.116389
0.1,2.8,0,0.120441
0.1,2.9,0,0.123475
0.1,3,0,0.126903
0.1,3.1,0,0.130331
0.1,3.2,0,0.133604
0.1,3.3,0,0.136524
0.1,3.4,0,0.139444
0.1,3.5,0,0.142723
0.1,3.6,0,0.144924
0.1,3.7,0,0.147705
0.1,3.8,0,0.150487
0.1,3.9,0,0.153408
0.1,4,0,0.155981
0.1,4.1,0,0.158553
0.1,4.2,0,0.161494
0.1,4.3,0,0.163046
0.1,4.4,0,0.165112
0.1,4.5,0,0.167179
0.1,4.6,0,0.16917
0.1,4.7,0,0.170926
0.1,4.8,0,0.172681
0.1,4.9,0,0.174912
0.1,5,0,0.175783
0.1,5.1,0,0.177201
0.1,5.2,0,0.178619
0.1,5.3,0,0.179916
0.1,5.4,0,0.180849
0.1,5.5,0,0.181781
0.1,5.6,0,0.183167
0.1,5.7,0,0.183083
0.1,5.8,0,0.183597
0.1,5.9,0,0.18411
0.1,6,0,0.184592
0.1,6.1,0,0.184888
0.1,6.2,0,0.185185
0.1,6.3,0,0.186017
0.1,6.4,0,0.185352
0.1,6.5,0,0.185231
0.1,6.6,0,0.18511
0.1,6.7,0,0.184815
0.1,6.8,0,0.184432
0.1,6.9,0,0.184049
0.1,7,0,0.184235
0.1,7.1,0,0.183073
0.1,7.2,0,0.182202
0.1,7.3,0,0.181217
0.1,7.4,0,0.180117
0.1,7.5,0,0.178903
0.1,7.6,0,0.177576
0.1,7.7,0,0.176137
0.1,7.8,0,0.174584
0.1,7.9,0,0.172937
0.1,8,0,0.170379
0.1,8.1,0,0.168124
0.1,8.2,0,0.166359
0.1,8.3,0,0.164314
0.1,8.4,0,0.16217
0.1,8.5,0,0.159954
0.1,8.6,0,0.157529
0.1,8.7,0,0.155482
0.1,8.8,0,0.152476
0.1,8.9,0,0.149874
0.1,9,0,0.147178
0.1,9.1,0,0.144338
0.1,9.2,0,0.14139
0.1,9.3,0,0.138315
0.1,9.4,0,0.135502
0.1,9.5,0,0.132067
0.1,9.6,0,0.12885
0.1,9.7,0,0.125502
0.1,9.8,0,0.122067
0.1,9.9,0,0.118642
0.1,10,0,0.11501
0.1,10.1,0,0.11155
0.1,10.2,0,0.107697
0.1,10.3,0,0.103943
0.1,10.4,0,0.100103
0.1,10.5,0,0.0961923
0.1,10.6,0,0.0923764
0.1,10.7,0,0.0882201
0.1,10.8,0,0.0842096
0.1,10.9,0,0.0800331
0.1,11,0,0.0758722
0.1,11.1,0,0.0716682
0.1,11.2,0,0.0674065
0.1,11.3,0,0.0632705
0.1,11.4,0,0.0587668
0.1,11.5,0,0.0544006
0.1,11.6,0,0.0499687
0.1,11.7,0,0.0455194
0.1,11.8,0,0.0410435
0.1,11.9,0,0.0365293
0.1,12,0,0.0321218
0.1,12.1,0,0.0274844
0.1,12.2,0,0.022967
0.1,12.3,0,0.0184018
0.1,12.4,0,0.013758
0.1,12.5,0,0.00921565
0.1,12.6,0,0.00592253
0.1,12.7,0,0.00268368
0.2,0,0,0.00371377
0.2,0.1,0,0.00698411
0.2,0.2,0,0.0103427
0.2,0.3,0,0.0139865
0.2,0.4,0,0.0187883
0.2,0.5,0,0.0234337
0.2,0.6,0,0.0281014
0.2,0.7,0,0.0329969
0.2,0.8,0,0.0372182
0.2,0.9,0,0.0417663
0.2,1,0,0.0464273
0.2,1.1,0,0.0509899
0.2,1.2,0,0.0553524
0.2,1.3,0,0.0598073
0.2,1.4,0,0.064719
0.2,1.5,0,0.0685122
0.2,1.6,0,0.0727833
0.2,1.7,0,0.0771947
0.2,1.8,0,0.0813898
0.2,1.9,0,0.0853562
0.2,2,0,0.0894604
0.2,2.1,0,0.0941972
0.2,2.2,0,0.0974816
0.2,2.3,0,0.101388
0.2,2.4,0,0.105472
0.2,2.5,0,0.109272
0.2,2.6,0,0.112766
0.2,2.7,0,0.116433
0.2,2.8,0,0.120869
0.2,2.9,0,0.123511
0.2,3,0,0.126939
0.2,3.1,0,0.130569
0.2,3.2,0,0.133891
0.2,3.3,0,0.136658
0.2,3.4,0,0.139578
0.2,3.5,0,0.143215
0.2,3.6,0,0.144837
0.2,3.7,0,0.147618
0.2,3.8,0,0.150707
0.2,3.9,0,0.153751
0.2,4,0,0.156138
0.2,4.1,0,0.15871
0.2,4.2,0,0.16202
0.2,4.3,0,0.163057
0.2,4.4,0,0.165124
0.2,4.5,0,0.167462
0.2,4.6,0,0.169494
0.2,4.7,0,0.171018
0.2,4.8,0,0.172774
0.2,4.9,0,0.175479
0.2,5,0,0.175803
0.2,5.1,0,0.177221
0.2,5.2,0,0.178917
0.2,5.3,0,0.180275
0.2,5.4,0,0.18099
0.2,5.5,0,0.181923
0.2,5.6,0,0.183763
0.2,5.7,0,0.183081
0.2,5.8,0,0.183595
0.2,5.9,0,0.184417
0.2,6,0,0.184936
0.2,6.1,0,0.184963
0.2,6.2,0,0.18526
0.2,6.3,0,0.186626
0.2,6.4,0,0.185417
0.2,6.5,0,0.185296
0.2,6.6,0,0.185441
0.2,6.7,0,0.185125
0.2,6.8,0,0.184454
0.2,6.9,0,0.184071
0.2,7,0,0.184826
0.2,7.1,0,0.183653
0.2,7.2,0,0.182777
0.2,7.3,0,0.181788
0.2,7.4,0,0.180683
0.2,7.5,0,0.179464
0.2,7.6,0,0.178133
0.2,7.7,0,0.17669
0.2,7.8,0,0.175133
0.2,7.9,0,0.173481
0.2,8,0,0.170928
0.2,8.1,0,0.168184
0.2,8.2,0,0.166632
0.2,8.3,0,0.164339
0.2,8.4,0,0.162195
0.2,8.5,0,0.160318
0.2,8.6,0,0.157566
0.2,8.7,0,0.156005
0.2,8.8,0,0.152478
0.2,8.9,0,0.149983
0.2,9,0,0.147229
0.2,9.1,0,0.144389
0.2,9.2,0,0.141823
0.2,9.3,0,0.138317
0.2,9.4,0,0.135975
0.2,9.5,0,0.132098
0.2,9.6,0,0.128881
0.2,9.7,0,0.12552
0.2,9.8,0,0.122085
0.2,9.9,0,0.119074
0.2,10,0,0.115026
0.2,10.1,0,0.111958
0.2,10.2,0,0.107718
0.2,10.3,0,0.103964
0.2,10.4,0,0.100117
0.2,10.5,0,0.0962061
0.2,10.6,0,0.0927338
0.2,10.7,0,0.088236
0.2,10.8,0,0.084539
0.2,10.9,0,0.0800433
0.2,11,0,0.0758824
0.2,11.1,0,0.0716806
0.2,11.2,0,0.0674189
0.2,11.3,0,0.06353
0.2,11.4,0,0.0587779
0.2,11.5,0,0.0546009
0.2,11.6,0,0.0499762
0.2,11.7,0,0.0455269
0.2,11.8,0,0.0410895
0.2,11.9,0,0.0365363
0.2,12,0,0.0322701
0.2,12.1,0,0.0274782
0.2,12.2,0,0.0230291
0.2,12.3,0,0.0184362
0.2,12.4,0,0.0137924
0.2,12.5,0,0.00904906
0.2,12.6,0,0.00558576
0.2,12.7,0,0.00240119
0.3,0,0,0.00327686
0.3,0.1,0,0.00650306
0.3,0.2,0,0.00986168
0.3,0.3,0,0.0140757
0.3,0.4,0,0.0188775
0.3,0.5,0,0.0234784
0.3,0.6,0,0.0281461
0.3,0.7,0,0.0331555
0.3,0.8,0,0.0372134
0.3,0.9,0,0.0417615
0.3,1,0,0.0466482
0.3,1.1,0,0.0512108
0.3,1.2,0,0.0553883
0.3,1.3,0,0.0598432
0.3,1.4,0,0.0649833
0.3,1.5,0,0.0685375
0.3,1.6,0,0.0728087
0.3,1.7,0,0.0775006
0.3,1.8,0,0.0816957
0.3,1.9,0,0.0853865
0.3,2,0,0.0894907
0.3,2.1,0,0.0945438
0.3,2.2,0,0.0975171
0.3,2.3,0,0.101424
0.3,2.4,0,0.105862
0.3,2.5,0,0.109661
0.3,2.6,0,0.112811
0.3,2.7,0,0.116478
0.3,2.8,0,0.121298
0.3,2.9,0,0.123546
0.3,3,0,0.126974
0.3,3.1,0,0.131008
0.3,3.2,0,0.13433
0.3,3.3,0,0.136792
0.3,3.4,0,0.139712
0.3,3.5,0,0.143707
0.3,3.6,0,0.144749
0.3,3.7,0,0.14753
0.3,3.8,0,0.151235
0.3,3.9,0,0.154279
0.3,4,0,0.156295
0.3,4.1,0,0.158867
0.3,4.2,0,0.162547
0.3,4.3,0,0.163069
0.3,4.4,0,0.165135
0.3,4.5,0,0.168017
0.3,4.6,0,0.170049
0.3,4.7,0,0.17111
0.3,4.8,0,0.172866
0.3,4.9,0,0.176046
0.3,5,0,0.175823
0.3,5.1,0,0.177241
0.3,5.2,0,0.179493
0.3,5.3,0,0.180851
0.3,5.4,0,0.181132
0.3,5.5,0,0.182065
0.3,5.6,0,0.184358
0.3,5.7,0,0.183079
0.3,5.8,0,0.183593
0.3,5.9,0,0.185032
0.3,6,0,0.185552
0.3,6.1,0,0.185037
0.3,6.2,0,0.185334
0.3,6.3,0,0.187236
0.3,6.4,0,0.185482
0.3,6.5,0,0.185361
0.3,6.6,0,0.186039
0.3,6.7,0,0.185723
0.3,6.8,0,0.184477
0.3,6.9,0,0.184094
0.3,7,0,0.185417
0.3,7.1,0,0.184232
0.3,7.2,0,0.183352
0.3,7.3,0,0.182358
0.3,7.4,0,0.181249
0.3,7.5,0,0.180026
0.3,7.6,0,0.17869
0.3,7.7,0,0.177243
0.3,7.8,0,0.175682
0.3,7.9,0,0.174026
0.3,8,0,0.171478
0.3,8.1,0,0.168243
0.3,8.2,0,0.167182
0.3,8.3,0,0.164415
0.3,8.4,0,0.16222
0.3,8.5,0,0.160852
0.3,8.6,0,0.157604
0.3,8.7,0,0.156528
0.3,8.8,0,0.15248
0.3,8.9,0,0.150488
0.3,9,0,0.147425
0.3,9.1,0,0.14444
0.3,9.2,0,0.142312
0.3,9.3,0,0.138318
0.3,9.4,0,0.136448
0.3,9.5,0,0.132128
0.3,9.6,0,0.129327
0.3,9.7,0,0.125773
0.3,9.8,0,0.122103
0.3,9.9,0,0.119506
0.3,10,0,0.115042
0.3,10.1,0,0.112365
0.3,10.2,0,0.107739
0.3,10.3,0,0.104262
0.3,10.4,0,0.100413
0.3,10.5,0,0.09622
0.3,10.6,0,0.0930911
0.3,10.7,0,0.088252
0.3,10.8,0,0.0848684
0.3,10.9,0,0.0800535
0.3,11,0,0.0760476
0.3,11.1,0,0.0719733
0.3,11.2,0,0.0674313
0.3,11.3,0,0.0637894
0.3,11.4,0,0.0587889
0.3,11.5,0,0.0548263
0.3,11.6,0,0.0499838
0.3,11.7,0,0.045593
0.3,11.8,0,0.0412803
0.3,11.9,0,0.0365432
0.3,12,0,0.0324183
0.3,12.1,0,0.027472
0.3,12.2,0,0.0231264
0.3,12.3,0,0.0184707
0.3,12.4,0,0.0138287
0.3,12.5,0,0.00910247
0.3,12.6,0,0.00524898
0.3,12.7,0,0.0021187
0.4,0,0,0.00283994
0.4,0.1,0,0.00606614
0.4,0.2,0,0.00938062
0.4,0.3,0,0.0141649
0.4,0.4,0,0.0189667
0.4,0.5,0,0.0235231
0.4,0.6,0,0.0283047
0.4,0.7,0,0.0333141
0.4,0.8,0,0.037372
0.4,0.9,0,0.0417567
0.4,1,0,0.046869
0.4,1.1,0,0.0514317
0.4,1.2,0,0.0554242
0.4,1.3,0,0.0601075
0.4,1.4,0,0.0652477
0.4,1.5,0,0.0688018
0.4,1.6,0,0.072834
0.4,1.7,0,0.0778065
0.4,1.8,0,0.0820016
0.4,1.9,0,0.0854169
0.4,2,0,0.0898373
0.4,2.1,0,0.0948905
0.4,2.2,0,0.0978637
0.4,2.3,0,0.101459
0.4,2.4,0,0.106251
0.4,2.5,0,0.110051
0.4,2.6,0,0.112855
0.4,2.7,0,0.116906
0.4,2.8,0,0.121726
0.4,2.9,0,0.123975
0.4,3,0,0.12701
0.4,3.1,0,0.131448
0.4,3.2,0,0.134769
0.4,3.3,0,0.136926
0.4,3.4,0,0.140204
0.4,3.5,0,0.144199
0.4,3.6,0,0.145241
0.4,3.7,0,0.147443
0.4,3.8,0,0.151764
0.4,3.9,0,0.154808
0.4,4,0,0.156452
0.4,4.1,0,0.159394
0.4,4.2,0,0.163073
0.4,4.3,0,0.163595
0.4,4.4,0,0.165146
0.4,4.5,0,0.168572
0.4,4.6,0,0.170604
0.4,4.7,0,0.171203
0.4,4.8,0,0.173433
0.4,4.9,0,0.176614
0.4,5,0,0.17639
0.4,5.1,0,0.177261
0.4,5.2,0,0.180069
0.4,5.3,0,0.181427
0.4,5.4,0,0.181274
0.4,5.5,0,0.18266
0.4,5.6,0,0.184953
0.4,5.7,0,0.183675
0.4,5.8,0,0.183591
0.4,5.9,0,0.185647
0.4,6,0,0.186167
0.4,6.1,0,0.185111
0.4,6.2,0,0.185943
0.4,6.3,0,0.187845
0.4,6.4,0,0.186091
0.4,6.5,0,0.185426
0.4,6.6,0,0.186637
0.4,6.7,0,0.18632
0.4,6.8,0,0.184499
0.4,6.9,0,0.184685
0.4,7,0,0.186008
0.4,7.1,0,0.184812
0.4,7.2,0,0.183927
0.4,7.3,0,0.182928
0.4,7.4,0,0.181815
0.4,7.5,0,0.180587
0.4,7.6,0,0.179247
0.4,7.7,0,0.177796
0.4,7.8,0,0.176231
0.4,7.9,0,0.174571
0.4,8,0,0.172027
0.4,8.1,0,0.168303
0.4,8.2,0,0.167731
0.4,8.3,0,0.164964
0.4,8.4,0,0.162689
0.4,8.5,0,0.161386
0.4,8.6,0,0.157641
0.4,8.7,0,0.157052
0.4,8.8,0,0.152483
0.4,8.9,0,0.150992
0.4,9,0,0.14793
0.4,9.1,0,0.144776
0.4,9.2,0,0.142802
0.4,9.3,0,0.13832
0.4,9.4,0,0.136921
0.4,9.5,0,0.132159
0.4,9.6,0,0.129777
0.4,9.7,0,0.126223
0.4,9.8,0,0.122298
0.4,9.9,0,0.119938
0.4,10,0,0.115057
0.4,10.1,0,0.112772
0.4,10.2,0,0.107839
0.4,10.3,0,0.104645
0.4,10.4,0,0.100796
0.4,10.5,0,0.0963032
0.4,10.6,0,0.0934484
0.4,10.7,0,0.088268
0.4,10.8,0,0.0851977
0.4,10.9,0,0.0801995
0.4,11,0,0.0763433
0.4,11.1,0,0.072269
0.4,11.2,0,0.0674437
0.4,11.3,0,0.0640489
0.4,11.4,0,0.0587999
0.4,11.5,0,0.0550516
0.4,11.6,0,0.0501327
0.4,11.7,0,0.0457837
0.4,11.8,0,0.041471
0.4,11.9,0,0.0365501
0.4,12,0,0.0325666
0.4,12.1,0,0.0274658
0.4,12.2,0,0.0232237
0.4,12.3,0,0.01856
0.4,12.4,0,0.0138821
0.4,12.5,0,0.00915587
0.4,12.6,0,0.00491221
0.4,12.7,0,0.0018362
0.5,0,0,0.00240303
0.5,0.1,0,0.00562923
0.5,0.2,0,0.0091847
0.5,0.3,0,0.0142541
0.5,0.4,0,0.0190559
0.5,0.5,0,0.0235901
0.5,0.6,0,0.0284633
0.5,0.7,0,0.0334726
0.5,0.8,0,0.0375305
0.5,0.9,0,0.0418647
0.5,1,0,0.0470899
0.5,1.1,0,0.0516525
0.5,1.2,0,0.0555526
0.5,1.3,0,0.0603718
0.5,1.4,0,0.065512
0.5,1.5,0,0.0690662
0.5,1.6,0,0.0729996
0.5,1.7,0,0.0781124
0.5,1.8,0,0.0823075
0.5,1.9,0,0.085585
0.5,2,0,0.090184
0.5,2.1,0,0.0952371
0.5,2.2,0,0.0982104
0.5,2.3,0,0.101672
0.5,2.4,0,0.106641
0.5,2.5,0,0.110441
0.5,2.6,0,0.113072
0.5,2.7,0,0.117335
0.5,2.8,0,0.122154
0.5,2.9,0,0.124403
0.5,3,0,0.127247
0.5,3.1,0,0.131887
0.5,3.2,0,0.135209
0.5,3.3,0,0.137212
0.5,3.4,0,0.140696
0.5,3.5,0,0.144692
0.5,3.6,0,0.145734
0.5,3.7,0,0.147663
0.5,3.8,0,0.152292
0.5,3.9,0,0.155336
0.5,4,0,0.156795
0.5,4.1,0,0.15992
0.5,4.2,0,0.163599
0.5,4.3,0,0.164121
0.5,4.4,0,0.16543
0.5,4.5,0,0.169127
0.5,4.6,0,0.171159
0.5,4.7,0,0.171526
0.5,4.8,0,0.174001
0.5,4.9,0,0.177181
0.5,5,0,0.176958
0.5,5.1,0,0.177559
0.5,5.2,0,0.180645
0.5,5.3,0,0.182003
0.5,5.4,0,0.181633
0.5,5.5,0,0.183255
0.5,5.6,0,0.185548
0.5,5.7,0,0.18427
0.5,5.8,0,0.183897
0.5,5.9,0,0.186262
0.5,6,0,0.186782
0.5,6.1,0,0.185456
0.5,6.2,0,0.186552
0.5,6.3,0,0.188454
0.5,6.4,0,0.186701
0.5,6.5,0,0.185758
0.5,6.6,0,0.187234
0.5,6.7,0,0.186918
0.5,6.8,0,0.184809
0.5,6.9,0,0.185276
0.5,7,0,0.186599
0.5,7.1,0,0.185392
0.5,7.2,0,0.184502
0.5,7.3,0,0.183498
0.5,7.4,0,0.18238
0.5,7.5,0,0.181149
0.5,7.6,0,0.179805
0.5,7.7,0,0.178349
0.5,7.8,0,0.176781
0.5,7.9,0,0.175115
0.5,8,0,0.172577
0.5,8.1,0,0.168623
0.5,8.2,0,0.16828
0.5,8.3,0,0.165513
0.5,8.4,0,0.163223
0.5,8.5,0,0.16192
0.5,8.6,0,0.157828
0.5,8.7,0,0.157575
0.5,8.8,0,0.152878
0.5,8.9,0,0.151497
0.5,9,0,0.148434
0.5,9.1,0,0.145266
0.5,9.2,0,0.143292
0.5,9.3,0,0.138361
0.5,9.4,0,0.137394
0.5,9.5,0,0.132622
0.5,9.6,0,0.130227
0.5,9.7,0,0.126673
0.5,9.8,0,0.12273
0.5,9.9,0,0.12037
0.5,10,0,0.115073
0.5,10.1,0,0.11318
0.5,10.2,0,0.108246
0.5,10.3,0,0.105028
0.5,10.4,0,0.101179
0.5,10.5,0,0.0966605
0.5,10.6,0,0.0938057
0.5,10.7,0,0.088284
0.5,10.8,0,0.0855271
0.5,10.9,0,0.0805289
0.5,11,0,0.076639
0.5,11.1,0,0.0725647
0.5,11.2,0,0.0676979
0.5,11.3,0,0.0643084
0.5,11.4,0,0.0588321
0.5,11.5,0,0.055277
0.5,11.6,0,0.0503581
0.5,11.7,0,0.0459744
0.5,11.8,0,0.0416617
0.5,11.9,0,0.0366638
0.5,12,0,0.0327149
0.5,12.1,0,0.0275073
0.5,12.2,0,0.023321
0.5,12.3,0,0.0186573
0.5,12.4,0,0.0139355
0.5,12.5,0,0.00920928
0.5,12.6,0,0.00460431
0.5,12.7,0,0.00155371
0.6,0,0,0.00196611
0.6,0.1,0,0.00519231
0.6,0.2,0,0.00927392
0.6,0.3,0,0.0143434
0.6,0.4,0,0.0191451
0.6,0.5,0,0.0236793
0.6,0.6,0,0.0286219
0.6,0.7,0,0.0336312
0.6,0.8,0,0.0376891
0.6,0.9,0,0.0420855
0.6,1,0,0.0473107
0.6,1.1,0,0.0518734
0.6,1.2,0,0.0557734
0.6,1.3,0,0.0606362
0.6,1.4,0,0.0657763
0.6,1.5,0,0.0693305
0.6,1.6,0,0.0733055
0.6,1.7,0,0.0784183
0.6,1.8,0,0.0826134
0.6,1.9,0,0.0858908
0.6,2,0,0.0905306
0.6,2.1,0,0.0955838
0.6,2.2,0,0.098557
0.6,2.3,0,0.102062
0.6,2.4,0,0.107031
0.6,2.5,0,0.11083
0.6,2.6,0,0.113461
0.6,2.7,0,0.117763
0.6,2.8,0,0.122583
0.6,2.9,0,0.124832
0.6,3,0,0.127687
0.6,3.1,0,0.132327
0.6,3.2,0,0.135648
0.6,3.3,0,0.137652
0.6,3.4,0,0.141189
0.6,3.5,0,0.145184
0.6,3.6,0,0.146226
0.6,3.7,0,0.148191
0.6,3.8,0,0.15282
0.6,3.9,0,0.155864
0.6,4,0,0.157323
0.6,4.1,0,0.160446
0.6,4.2,0,0.164125
0.6,4.3,0,0.164647
0.6,4.4,0,0.165985
0.6,4.5,0,0.169682
0.6,4.6,0,0.171714
0.6,4.7,0,0.172082
0.6,4.8,0,0.174568
0.6,4.9,0,0.177748
0.6,5,0,0.177525
0.6,5.1,0,0.178136
0.6,5.2,0,0.181222
0.6,5.3,0,0.182579
0.6,5.4,0,0.182209
0.6,5.5,0,0.18385
0.6,5.6,0,0.186144
0.6,5.7,0,0.184865
0.6,5.8,0,0.184513
0.6,5.9,0,0.186878
0.6,6,0,0.187397
0.6,6.1,0,0.186071
0.6,6.2,0,0.187161
0.6,6.3,0,0.189063
0.6,6.4,0,0.18731
0.6,6.5,0,0.186355
0.6,6.6,0,0.187832
0.6,6.7,0,0.187516
0.6,6.8,0,0.185407
0.6,6.9,0,0.185867
0.6,7,0,0.18719
0.6,7.1,0,0.185972
0.6,7.2,0,0.185077
0.6,7.3,0,0.184069
0.6,7.4,0,0.182946
0.6,7.5,0,0.18171
0.6,7.6,0,0.180362
0.6,7.7,0,0.178903
0.6,7.8,0,0.17733
0.6,7.9,0,0.17566
0.6,8,0,0.173126
0.6,8.1,0,0.169172
0.6,8.2,0,0.168829
0.6,8.3,0,0.166062
0.6,8.4,0,0.163757
0.6,8.5,0,0.162454
0.6,8.6,0,0.158447
0.6,8.7,0,0.158098
0.6,8.8,0,0.153402
0.6,8.9,0,0.152002
0.6,9,0,0.148939
0.6,9.1,0,0.145756
0.6,9.2,0,0.143782
0.6,9.3,0,0.139037
0.6,9.4,0,0.137867
0.6,9.5,0,0.133095
0.6,9.6,0,0.130677
0.6,9.7,0,0.127123
0.6,9.8,0,0.123161
0.6,9.9,0,0.120802
0.6,10,0,0.115692
0.6,10.1,0,0.113587
0.6,10.2,0,0.108653
0.6,10.3,0,0.105411
0.6,10.4,0,0.101562
0.6,10.5,0,0.0970178
0.6,10.6,0,0.094163
0.6,10.7,0,0.0887942
0.6,10.8,0,0.0858565
0.6,10.9,0,0.0808582
0.6,11,0,0.0769347
0.6,11.1,0,0.0728605
0.6,11.2,0,0.0679574
0.6,11.3,0,0.0645679
0.6,11.4,0,0.0591805
0.6,11.5,0,0.0555024
0.6,11.6,0,0.0505834
0.6,11.7,0,0.0461652
0.6,11.8,0,0.0418525
0.6,11.9,0,0.0368121
0.6,12,0,0.0328631
0.6,12.1,0,0.0276754
0.6,12.2,0,0.0234183
0.6,12.3,0,0.0187546
0.6,12.4,0,0.013989
0.6,12.5,0,0.00926269
0.6,12.6,0,0.00432182
0.6,12.7,0,0.00127122
0.7,0,0,0.0015292
0.7,0.1,0,0.0047554
0.7,0.2,0,0.00940728
0.7,0.3,0,0.0144326
0.7,0.4,0,0.0192344
0.7,0.5,0,0.0238824
0.7,0.6,0,0.0287804
0.7,0.7,0,0.0337898
0.7,0.8,0,0.0378477
0.7,0.9,0,0.0424698
0.7,1,0,0.0475316
0.7,1.1,0,0.0520942
0.7,1.2,0,0.0562227
0.7,1.3,0,0.0609005
0.7,1.4,0,0.0660406
0.7,1.5,0,0.0695948
0.7,1.6,0,0.0738504
0.7,1.7,0,0.0787241
0.7,1.8,0,0.0829193
0.7,1.9,0,0.086513
0.7,2,0,0.0908773
0.7,2.1,0,0.0959304
0.7,2.2,0,0.0989037
0.7,2.3,0,0.102762
0.7,2.4,0,0.10742
0.7,2.5,0,0.11122
0.7,2.6,0,0.114235
0.7,2.7,0,0.118192
0.7,2.8,0,0.123011
0.7,2.9,0,0.12526
0.7,3,0,0.128519
0.7,3.1,0,0.132766
0.7,3.2,0,0.136088
0.7,3.3,0,0.13845
0.7,3.4,0,0.141681
0.7,3.5,0,0.145676
0.7,3.6,0,0.146718
0.7,3.7,0,0.149299
0.7,3.8,0,0.153348
0.7,3.9,0,0.156392
0.7,4,0,0.158221
0.7,4.1,0,0.160972
0.7,4.2,0,0.164652
0.7,4.3,0,0.165173
0.7,4.4,0,0.167055
0.7,4.5,0,0.170237
0.7,4.6,0,0.172269
0.7,4.7,0,0.173112
0.7,4.8,0,0.175135
0.7,4.9,0,0.178316
0.7,5,0,0.178092
0.7,5.1,0,0.179259
0.7,5.2,0,0.181798
0.7,5.3,0,0.183155
0.7,5.4,0,0.183238
0.7,5.5,0,0.184446
0.7,5.6,0,0.186739
0.7,5.7,0,0.18546
0.7,5.8,0,0.185725
0.7,5.9,0,0.187493
0.7,6,0,0.188012
0.7,6.1,0,0.187221
0.7,6.2,0,0.187771
0.7,6.3,0,0.189672
0.7,6.4,0,0.187919
0.7,6.5,0,0.187497
0.7,6.6,0,0.18843
0.7,6.7,0,0.188113
0.7,6.8,0,0.186573
0.7,6.9,0,0.186458
0.7,7,0,0.187781
0.7,7.1,0,0.186551
0.7,7.2,0,0.185652
0.7,7.3,0,0.184639
0.7,7.4,0,0.183512
0.7,7.5,0,0.182271
0.7,7.6,0,0.180919
0.7,7.7,0,0.179456
0.7,7.8,0,0.177879
0.7,7.9,0,0.176204
0.7,8,0,0.173675
0.7,8.1,0,0.170196
0.7,8.2,0,0.169379
0.7,8.3,0,0.166612
0.7,8.4,0,0.164291
0.7,8.5,0,0.162988
0.7,8.6,0,0.159467
0.7,8.7,0,0.158622
0.7,8.8,0,0.154299
0.7,8.9,0,0.152506
0.7,9,0,0.149443
0.7,9.1,0,0.146246
0.7,9.2,0,0.144272
0.7,9.3,0,0.139998
0.7,9.4,0,0.13834
0.7,9.5,0,0.133787
0.7,9.6,0,0.131128
0.7,9.7,0,0.127574
0.7,9.8,0,0.123625
0.7,9.9,0,0.121234
0.7,10,0,0.116515
0.7,10.1,0,0.113995
0.7,10.2,0,0.109169
0.7,10.3,0,0.105794
0.7,10.4,0,0.101945
0.7,10.5,0,0.0974851
0.7,10.6,0,0.0945204
0.7,10.7,0,0.0894649
0.7,10.8,0,0.0861859
0.7,10.9,0,0.0812089
0.7,11,0,0.0772304
0.7,11.1,0,0.0731562
0.7,11.2,0,0.0683645
0.7,11.3,0,0.0648273
0.7,11.4,0,0.0596543
0.7,11.5,0,0.0557277
0.7,11.6,0,0.0508088
0.7,11.7,0,0.0463559
0.7,11.8,0,0.0420432
0.7,11.9,0,0.0370972
0.7,12,0,0.0330114
0.7,12.1,0,0.0279271
0.7,12.2,0,0.0235156
0.7,12.3,0,0.0188519
0.7,12.4,0,0.0140424
0.7,12.5,0,0.00931609
0.7,12.6,0,0.00441705
0.7,12.7,0,0.000988725
0.8,0,0,0.00109229
0.8,0.1,0,0.00460362
0.8,0.2,0,0.00954063
0.8,0.3,0,0.0145218
0.8,0.4,0,0.0193236
0.8,0.5,0,0.0240855
0.8,0.6,0,0.0289613
0.8,0.7,0,0.0339484
0.8,0.8,0,0.0381191
0.8,0.9,0,0.0428541
0.8,1,0,0.0477524
0.8,1.1,0,0.0523151
0.8,1.2,0,0.056672
0.8,1.3,0,0.0612573
0.8,1.4,0,0.066305
0.8,1.5,0,0.0699994
0.8,1.6,0,0.0743952
0.8,1.7,0,0.07903
0.8,1.8,0,0.0832251
0.8,1.9,0,0.0871353
0.8,2,0,0.0913617
0.8,2.1,0,0.0962771
0.8,2.2,0,0.0994274
0.8,2.3,0,0.103463
0.8,2.4,0,0.10781
0.8,2.5,0,0.11161
0.8,2.6,0,0.115009
0.8,2.7,0,0.118793
0.8,2.8,0,0.12344
0.8,2.9,0,0.125891
0.8,3,0,0.129352
0.8,3.1,0,0.133206
0.8,3.2,0,0.136527
0.8,3.3,0,0.139247
0.8,3.4,0,0.142326
0.8,3.5,0,0.146168
0.8,3.6,0,0.147518
0.8,3.7,0,0.150407
0.8,3.8,0,0.153877
0.8,3.9,0,0.156921
0.8,4,0,0.159118
0.8,4.1,0,0.161684
0.8,4.2,0,0.165178
0.8,4.3,0,0.165971
0.8,4.4,0,0.168124
0.8,4.5,0,0.170792
0.8,4.6,0,0.172824
0.8,4.7,0,0.174142
0.8,4.8,0,0.175934
0.8,4.9,0,0.178883
0.8,5,0,0.178937
0.8,5.1,0,0.180382
0.8,5.2,0,0.182374
0.8,5.3,0,0.183731
0.8,5.4,0,0.184268
0.8,5.5,0,0.185258
0.8,5.6,0,0.187334
0.8,5.7,0,0.186364
0.8,5.8,0,0.186938
0.8,5.9,0,0.188108
0.8,6,0,0.188627
0.8,6.1,0,0.188371
0.8,6.2,0,0.18865
0.8,6.3,0,0.190282
0.8,6.4,0,0.188795
0.8,6.5,0,0.188639
0.8,6.6,0,0.189027
0.8,6.7,0,0.188711
0.8,6.8,0,0.187739
0.8,6.9,0,0.187336
0.8,7,0,0.188372
0.8,7.1,0,0.187131
0.8,7.2,0,0.186227
0.8,7.3,0,0.185209
0.8,7.4,0,0.184078
0.8,7.5,0,0.182833
0.8,7.6,0,0.181476
0.8,7.7,0,0.180009
0.8,7.8,0,0.178428
0.8,7.9,0,0.176749
0.8,8,0,0.174225
0.8,8.1,0,0.171235
0.8,8.2,0,0.169928
0.8,8.3,0,0.167367
0.8,8.4,0,0.165154
0.8,8.5,0,0.163522
0.8,8.6,0,0.160486
0.8,8.7,0,0.159145
0.8,8.8,0,0.155325
0.8,8.9,0,0.153011
0.8,9,0,0.150027
0.8,9.1,0,0.147121
0.8,9.2,0,0.144762
0.8,9.3,0,0.14096
0.8,9.4,0,0.138813
0.8,9.5,0,0.13468
0.8,9.6,0,0.131578
0.8,9.7,0,0.128024
0.8,9.8,0,0.124489
0.8,9.9,0,0.121665
0.8,10,0,0.117339
0.8,10.1,0,0.114402
0.8,10.2,0,0.109938
0.8,10.3,0,0.106177
0.8,10.4,0,0.102328
0.8,10.5,0,0.0982116
0.8,10.6,0,0.0948777
0.8,10.7,0,0.0901356
0.8,10.8,0,0.0865153
0.8,10.9,0,0.0818238
0.8,11,0,0.0775262
0.8,11.1,0,0.0734519
0.8,11.2,0,0.0689074
0.8,11.3,0,0.0650868
0.8,11.4,0,0.0601281
0.8,11.5,0,0.0559531
0.8,11.6,0,0.0511901
0.8,11.7,0,0.0465861
0.8,11.8,0,0.042234
0.8,11.9,0,0.0374293
0.8,12,0,0.0331596
0.8,12.1,0,0.0281789
0.8,12.2,0,0.0236129
0.8,12.3,0,0.0189611
0.8,12.4,0,0.0141212
0.8,12.5,0,0.0093695
0.8,12.6,0,0.00452473
0.8,12.7,0,0.000706232
0.9,0,0,0.000655371
0.9,0.1,0,0.00473698
0.9,0.2,0,0.00967399
0.9,0.3,0,0.014611
0.9,0.4,0,0.0194128
0.9,0.5,0,0.0242886
0.9,0.6,0,0.0291644
0.9,0.7,0,0.0341069
0.9,0.8,0,0.0385034
0.9,0.9,0,0.0432383
0.9,1,0,0.0479733
0.9,1.1,0,0.0525359
0.9,1.2,0,0.0571212
0.9,1.3,0,0.0617066
0.9,1.4,0,0.0665693
0.9,1.5,0,0.0705443
0.9,1.6,0,0.0749401
0.9,1.7,0,0.0793359
0.9,1.8,0,0.083531
0.9,1.9,0,0.0877575
0.9,2,0,0.0919839
0.9,2.1,0,0.0966237
0.9,2.2,0,0.100128
0.9,2.3,0,0.104164
0.9,2.4,0,0.108199
0.9,2.5,0,0.112
0.9,2.6,0,0.115783
0.9,2.7,0,0.119567
0.9,2.8,0,0.123868
0.9,2.9,0,0.126723
0.9,3,0,0.130184
0.9,3.1,0,0.133645
0.9,3.2,0,0.136967
0.9,3.3,0,0.140045
0.9,3.4,0,0.143124
0.9,3.5,0,0.14666
0.9,3.6,0,0.148626
0.9,3.7,0,0.151516
0.9,3.8,0,0.154405
0.9,3.9,0,0.157449
0.9,4,0,0.160015
0.9,4.1,0,0.162581
0.9,4.2,0,0.165704
0.9,4.3,0,0.167041
0.9,4.4,0,0.169194
0.9,4.5,0,0.171347
0.9,4.6,0,0.17338
0.9,4.7,0,0.175172
0.9,4.8,0,0.176964
0.9,4.9,0,0.17945
0.9,5,0,0.180061
0.9,5.1,0,0.181505
0.9,5.2,0,0.18295
0.9,5.3,0,0.184308
0.9,5.4,0,0.185298
0.9,5.5,0,0.186288
0.9,5.6,0,0.187929
0.9,5.7,0,0.187577
0.9,5.8,0,0.18815
0.9,5.9,0,0.188723
0.9,6,0,0.189243
0.9,6.1,0,0.189522
0.9,6.2,0,0.1898
0.9,6.3,0,0.190891
0.9,6.4,0,0.189936
0.9,6.5,0,0.189781
0.9,6.6,0,0.189625
0.9,6.7,0,0.189309
0.9,6.8,0,0.188906
0.9,6.9,0,0.188503
0.9,7,0,0.188963
0.9,7.1,0,0.187711
0.9,7.2,0,0.186802
0.9,7.3,0,0.185779
0.9,7.4,0,0.184643
0.9,7.5,0,0.183394
0.9,7.6,0,0.182034
0.9,7.7,0,0.180562
0.9,7.8,0,0.178978
0.9,7.9,0,0.177294
0.9,8,0,0.174774
0.9,8.1,0,0.172274
0.9,8.2,0,0.170508
0.9,8.3,0,0.168424
0.9,8.4,0,0.166212
0.9,8.5,0,0.164056
0.9,8.6,0,0.161506
0.9,8.7,0,0.159668
0.9,8.8,0,0.156351
0.9,8.9,0,0.153665
0.9,9,0,0.150971
0.9,9.1,0,0.148065
0.9,9.2,0,0.145252
0.9,9.3,0,0.141921
0.9,9.4,0,0.139286
0.9,9.5,0,0.135573
0.9,9.6,0,0.132254
0.9,9.7,0,0.12887
0.9,9.8,0,0.125353
0.9,9.9,0,0.122097
0.9,10,0,0.118162
0.9,10.1,0,0.114809
0.9,10.2,0,0.110707
0.9,10.3,0,0.106844
0.9,10.4,0,0.102964
0.9,10.5,0,0.0989381
0.9,10.6,0,0.095235
0.9,10.7,0,0.0908063
0.9,10.8,0,0.0868447
0.9,10.9,0,0.0824387
0.9,11,0,0.0781275
0.9,11.1,0,0.0738738
0.9,11.2,0,0.0694502
0.9,11.3,0,0.0653463
0.9,11.4,0,0.0606019
0.9,11.5,0,0.0561785
0.9,11.6,0,0.0515986
0.9,11.7,0,0.0469946
0.9,11.8,0,0.0424653
0.9,11.9,0,0.0377613
0.9,12,0,0.0333079
0.9,12.1,0,0.0284307
0.9,12.2,0,0.0237102
0.9,12.3,0,0.0190774
0.9,12.4,0,0.0142374
0.9,12.5,0,0.00942637
0.9,12.6,0,0.00463242
0.9,12.7,0,0.000423739
1,0,0,0.000218457
1,0.1,0,0.00487033
1,0.2,0,0.00980734
1,0.3,0,0.0147444
1,0.4,0,0.0196159
1,0.5,0,0.0244917
1,0.6,0,0.0293675
1,0.7,0,0.0342655
1,0.8,0,0.0388876
1,0.9,0,0.0436226
1,1,0,0.0483576
1,1.1,0,0.0529852
1,1.2,0,0.0575705
1,1.3,0,0.0621558
1,1.4,0,0.0668336
1,1.5,0,0.0710892
1,1.6,0,0.075485
1,1.7,0,0.0798808
1,1.8,0,0.0841532
1,1.9,0,0.0883797
1,2,0,0.0926061
1,2.1,0,0.0969704
1,2.2,0,0.100829
1,2.3,0,0.104865
1,2.4,0,0.1089
1,2.5,0,0.112773
1,2.6,0,0.116557
1,2.7,0,0.120341
1,2.8,0,0.124297
1,2.9,0,0.127556
1,3,0,0.131017
1,3.1,0,0.134478
1,3.2,0,0.137765
1,3.3,0,0.140843
1,3.4,0,0.143921
1,3.5,0,0.147153
1,3.6,0,0.149734
1,3.7,0,0.152624
1,3.8,0,0.155513
1,3.9,0,0.158346
1,4,0,0.160912
1,4.1,0,0.163478
1,4.2,0,0.16623
1,4.3,0,0.168111
1,4.4,0,0.170264
1,4.5,0,0.172417
1,4.6,0,0.17441
1,4.7,0,0.176202
1,4.8,0,0.177994
1,4.9,0,0.180017
1,5,0,0.181184
1,5.1,0,0.182629
1,5.2,0,0.184073
1,5.3,0,0.185337
1,5.4,0,0.186327
1,5.5,0,0.187317
1,5.6,0,0.188525
1,5.7,0,0.188789
1,5.8,0,0.189362
1,5.9,0,0.189936
1,6,0,0.190393
1,6.1,0,0.190672
1,6.2,0,0.190951
1,6.3,0,0.1915
1,6.4,0,0.191078
1,6.5,0,0.190922
1,6.6,0,0.190767
1,6.7,0,0.190475
1,6.8,0,0.190072
1,6.9,0,0.189669
1,7,0,0.189553
1,7.1,0,0.188291
1,7.2,0,0.187377
1,7.3,0,0.18635
1,7.4,0,0.185209
1,7.5,0,0.183956
1,7.6,0,0.182591
1,7.7,0,0.181115
1,7.8,0,0.179527
1,7.9,0,0.177838
1,8,0,0.175324
1,8.1,0,0.173313
1,8.2,0,0.171548
1,8.3,0,0.169482
1,8.4,0,0.167269
1,8.5,0,0.164998
1,8.6,0,0.162526
1,8.7,0,0.160192
1,8.8,0,0.157376
1,8.9,0,0.154691
1,9,0,0.151914
1,9.1,0,0.149008
1,9.2,0,0.146032
1,9.3,0,0.142883
1,9.4,0,0.139759
1,9.5,0,0.136465
1,9.6,0,0.133147
1,9.7,0,0.129734
1,9.8,0,0.126216
1,9.9,0,0.122683
1,10,0,0.118985
1,10.1,0,0.115288
1,10.2,0,0.111476
1,10.3,0,0.107613
1,10.4,0,0.10369
1,10.5,0,0.0996647
1,10.6,0,0.0956457
1,10.7,0,0.091477
1,10.8,0,0.0873084
1,10.9,0,0.0830536
1,11,0,0.0787424
1,11.1,0,0.0744166
1,11.2,0,0.069993
1,11.3,0,0.0656058
1,11.4,0,0.0610757
1,11.5,0,0.0565571
1,11.6,0,0.0520071
1,11.7,0,0.0474031
1,11.8,0,0.0427974
1,11.9,0,0.0380934
1,12,0,0.0334561
1,12.1,0,0.0286824
1,12.2,0,0.0239373
1,12.3,0,0.0191936
1,12.4,0,0.0143536
1,12.5,0,0.00953405
1,12.6,0,0.0047401
1,12.7,0,0.000141246
1.1,0,0,0
1.1,0.1,0,0.0049907
1.1,0.2,0,0.00992771
1.1,0.3,0,0.0148647
1.1,0.4,0,0.0198524
1.1,0.5,0,0.0247282
1.1,0.6,0,0.029604
1.1,0.7,0,0.0345695
1.1,0.8,0,0.0392854
1.1,0.9,0,0.0440204
1.1,1,0,0.0487554
1.1,1.1,0,0.0534708
1.1,1.2,0,0.0580561
1.1,1.3,0,0.0626415
1.1,1.4,0,0.0673899
1.1,1.5,0,0.0716609
1.1,1.6,0,0.0760567
1.1,1.7,0,0.0804525
1.1,1.8,0,0.084805
1.1,1.9,0,0.0890315
1.1,2,0,0.0932579
1.1,2.1,0,0.097718
1.1,2.2,0,0.101564
1.1,2.3,0,0.105599
1.1,2.4,0,0.109635
1.1,2.5,0,0.113597
1.1,2.6,0,0.117381
1.1,2.7,0,0.121165
1.1,2.8,0,0.12521
1.1,2.9,0,0.128446
1.1,3,0,0.131907
1.1,3.1,0,0.135368
1.1,3.2,0,0.138632
1.1,3.3,0,0.141711
1.1,3.4,0,0.144789
1.1,3.5,0,0.148205
1.1,3.6,0,0.150835
1.1,3.7,0,0.153725
1.1,3.8,0,0.156614
1.1,3.9,0,0.159358
1.1,4,0,0.161924
1.1,4.1,0,0.16449
1.1,4.2,0,0.167365
1.1,4.3,0,0.169204
1.1,4.4,0,0.171357
1.1,4.5,0,0.17351
1.1,4.6,0,0.175537
1.1,4.7,0,0.177329
1.1,4.8,0,0.179121
1.1,4.9,0,0.181228
1.1,5,0,0.182326
1.1,5.1,0,0.18377
1.1,5.2,0,0.185215
1.1,5.3,0,0.1865
1.1,5.4,0,0.18749
1.1,5.5,0,0.18848
1.1,5.6,0,0.189781
1.1,5.7,0,0.190008
1.1,5.8,0,0.190581
1.1,5.9,0,0.191154
1.1,6,0,0.191635
1.1,6.1,0,0.191914
1.1,6.2,0,0.192193
1.1,6.3,0,0.192771
1.1,6.4,0,0.192273
1.1,6.5,0,0.192117
1.1,6.6,0,0.191961
1.1,6.7,0,0.191671
1.1,6.8,0,0.191268
1.1,6.9,0,0.190865
1.1,7,0,0.190791
1.1,7.1,0,0.189513
1.1,7.2,0,0.188591
1.1,7.3,0,0.187555
1.1,7.4,0,0.186406
1.1,7.5,0,0.185145
1.1,7.6,0,0.183772
1.1,7.7,0,0.182288
1.1,7.8,0,0.180692
1.1,7.9,0,0.178994
1.1,8,0,0.176478
1.1,8.1,0,0.174431
1.1,8.2,0,0.172665
1.1,8.3,0,0.170561
1.1,8.4,0,0.168349
1.1,8.5,0,0.166054
1.1,8.6,0,0.163582
1.1,8.7,0,0.161267
1.1,8.8,0,0.158414
1.1,8.9,0,0.155728
1.1,9,0,0.152895
1.1,9.1,0,0.149989
1.1,9.2,0,0.147011
1.1,9.3,0,0.143861
1.1,9.4,0,0.140738
1.1,9.5,0,0.137379
1.1,9.6,0,0.134061
1.1,9.7,0,0.130621
1.1,9.8,0,0.127104
1.1,9.9,0,0.123524
1.1,10,0,0.119826
1.1,10.1,0,0.116128
1.1,10.2,0,0.112265
1.1,10.3,0,0.108402
1.1,10.4,0,0.104433
1.1,10.5,0,0.100407
1.1,10.6,0,0.0963322
1.1,10.7,0,0.0921636
1.1,10.8,0,0.0879949
1.1,10.9,0,0.0836846
1.1,11,0,0.0793734
1.1,11.1,0,0.0749685
1.1,11.2,0,0.0705449
1.1,11.3,0,0.0660965
1.1,11.4,0,0.0615618
1.1,11.5,0,0.0570431
1.1,11.6,0,0.0524225
1.1,11.7,0,0.0478185
1.1,11.8,0,0.0431449
1.1,11.9,0,0.0384409
1.1,12,0,0.0337277
1.1,12.1,0,0.0289279
1.1,12.2,0,0.0241828
1.1,12.3,0,0.0193373
1.1,12.4,0,0.0144974
1.1,12.5,0,0.00960394
1.1,12.6,0,0.00480999
1.1,12.7,0,0
1.2,0,0,0
1.2,0.1,0,0.00509808
1.2,0.2,0,0.0100351
1.2,0.3,0,0.0149721
1.2,0.4,0,0.0201223
1.2,0.5,0,0.0249981
1.2,0.6,0,0.0298738
1.2,0.7,0,0.0350188
1.2,0.8,0,0.0396968
1.2,0.9,0,0.0444318
1.2,1,0,0.0491667
1.2,1.1,0,0.0539928
1.2,1.2,0,0.0585781
1.2,1.3,0,0.0631634
1.2,1.4,0,0.068238
1.2,1.5,0,0.0722594
1.2,1.6,0,0.0766552
1.2,1.7,0,0.081051
1.2,1.8,0,0.0854865
1.2,1.9,0,0.0897129
1.2,2,0,0.0939394
1.2,2.1,0,0.0988665
1.2,2.2,0,0.102332
1.2,2.3,0,0.106368
1.2,2.4,0,0.110404
1.2,2.5,0,0.114471
1.2,2.6,0,0.118255
1.2,2.7,0,0.122039
1.2,2.8,0,0.126608
1.2,2.9,0,0.129394
1.2,3,0,0.132854
1.2,3.1,0,0.136315
1.2,3.2,0,0.13957
1.2,3.3,0,0.142648
1.2,3.4,0,0.145727
1.2,3.5,0,0.149817
1.2,3.6,0,0.15193
1.2,3.7,0,0.154819
1.2,3.8,0,0.157708
1.2,3.9,0,0.160485
1.2,4,0,0.163051
1.2,4.1,0,0.165617
1.2,4.2,0,0.169108
1.2,4.3,0,0.17032