x,y,z,U_0,U_1,U_2
0,0,0,0.3,-0.000606185,0
0,0.1,0,0.3,-0.000363711,0
0,0.2,0,0.3,-0.000121237,0
0,0.3,0,0.3,0,0
0,0.4,0,0.3,0,0
0,0.5,0,0.3,0,0
0,0.6,0,0.3,0,0
0,0.7,0,0.3,0,0
0,0.8,0,0.3,0,0
0,0.9,0,0.3,0,0
0,1,0,0.3,0,0
0,1.1,0,0.3,0,0
0,1.2,0,0.3,0,0
0,1.3,0,0.3,0,0
0,1.4,0,0.3,0,0
0,1.5,0,0.3,0,0
0,1.6,0,0.3,0,0
0,1.7,0,0.3,0,0
0,1.8,0,0.3,0,0
0,1.9,0,0.3,0,0
0,2,0,0.3,0,0
0,2.1,0,0.3,0,0
0,2.2,0,0.3,0,0
0,2.3,0,0.3,0,0
0,2.4,0,0.3,0,0
0,2.5,0,0.3,0,0
0,2.6,0,0.3,0,0
0,2.7,0,0.3,0,0
0,2.8,0,0.3,0,0
0,2.9,0,0.3,0,0
0,3,0,0.3,0,0
0,3.1,0,0.3,0,0
0,3.2,0,0.3,0,0
0,3.3,0,0.3,0,0
0,3.4,0,0.3,0,0
0,3.5,0,0.3,0,0
0,3.6,0,0.3,0,0
0,3.7,0,0.3,0,0
0,3.8,0,0.3,0,0
0,3.9,0,0.3,0,0
0,4,0,0.3,0,0
0,4.1,0,0.3,0,0
0,4.2,0,0.3,0,0
0,4.3,0,0.3,0,0
0,4.4,0,0.3,0,0
0,4.5,0,0.3,0,0
0,4.6,0,0.3,0,0
0,4.7,0,0.3,0,0
0,4.8,0,0.3,0,0
0,4.9,0,0.3,0,0
0,5,0,0.3,0,0
0,5.1,0,0.3,0,0
0,5.2,0,0.3,0,0
0,5.3,0,0.3,0,0
0,5.4,0,0.3,0,0
0,5.5,0,0.3,0,0
0,5.6,0,0.3,0,0
0,5.7,0,0.3,0,0
0,5.8,0,0.3,0,0
0,5.9,0,0.3,0,0
0,6,0,0.3,0,0
0,6.1,0,0.3,0,0
0,6.2,0,0.3,0,0
0,6.3,0,0.3,0,0
0,6.4,0,0.3,0,0
0,6.5,0,0.3,0,0
0,6.6,0,0.3,0,0
0,6.7,0,0.3,0,0
0,6.8,0,0.3,0,0
0,6.9,0,0.3,0,0
0,7,0,0.3,0,0
0,7.1,0,0.3,0,0
0,7.2,0,0.3,0,0
0,7.3,0,0.3,0,0
0,7.4,0,0.3,0,0
0,7.5,0,0.3,0,0
0,7.6,0,0.3,0,0
0,7.7,0,0.3,0,0
0,7.8,0,0.3,0,0
0,7.9,0,0.3,0,0
0,8,0,0.3,0,0
0,8.1,0,0.3,0,0
0,8.2,0,0.3,0,0
0,8.3,0,0.3,0,0
0,8.4,0,0.3,0,0
0,8.5,0,0.3,0,0
0,8.6,0,0.3,0,0
0,8.7,0,0.3,0,0
0,8.8,0,0.3,0,0
0,8.9,0,0.3,0,0
0,9,0,0.3,0,0
0,9.1,0,0.3,0,0
0,9.2,0,0.3,0,0
0,9.3,0,0.3,0,0
0,9.4,0,0.3,0,0
0,9.5,0,0.3,0,0
0,9.6,0,0.3,0,0
0,9.7,0,0.3,0,0
0,9.8,0,0.3,0,0
0,9.9,0,0.3,0,0
0,10,0,0.3,0,0
0,10.1,0,0.3,0,0
0,10.2,0,0.3,0,0
0,10.3,0,0.3,0,0
0,10.4,0,0.3,0,0
0,10.5,0,0.3,0,0
0,10.6,0,0.3,0,0
0,10.7,0,0.3,0,0
0,10.8,0,0.3,0,0
0,10.9,0,0.3,0,0
0,11,0,0.3,0,0
0,11.1,0,0.3,0,0
0,11.2,0,0.3,0,0
0,11.3,0,0.3,0,0
0,11.4,0,0.3,0,0
0,11.5,0,0.3,0,0
0,11.6,0,0.3,0,0
0,11.7,0,0.3,0,0
0,11.8,0,0.3,0,0
0,11.9,0,0.3,0,0
0,12,0,0.3,0,0
0,12.1,0,0.3,0,0
0,12.2,0,0.3,0,0
0,12.3,0,0.3,0,0
0,12.4,0,0.3,0,0
0,12.5,0,0.3,0.000162605,0
0,12.6,0,0.3,0.000353906,0
0,12.7,0,0.3,0.000545206,0
0.1,0,0,0.3,-0.00133387,0
0.1,0.1,0,0.3,-0.00109113,0
0.1,0.2,0,0.3,-0.000970169,0
0.1,0.3,0,0.3,-0.000970445,0
0.1,0.4,0,0.3,-0.000970448,0
0.1,0.5,0,0.300001,-0.000971253,0
0.1,0.6,0,0.3,-0.00097148,0
0.1,0.7,0,0.3,-0.000971979,0
0.1,0.8,0,0.3,-0.000972659,0
0.1,0.9,0,0.3,-0.00097284,0
0.1,1,0,0.300001,-0.000973936,0
0.1,1.1,0,0.3,-0.000974312,0
0.1,1.2,0,0.3,-0.000974847,0
0.1,1.3,0,0.3,-0.000975503,0
0.1,1.4,0,0.3,-0.000975624,0
0.1,1.5,0,0.300001,-0.000976498,0
0.1,1.6,0,0.3,-0.000976408,0
0.1,1.7,0,0.3,-0.000976646,0
0.1,1.8,0,0.3,-0.000976558,0
0.1,1.9,0,0.3,-0.000976232,0
0.1,2,0,0.299999,-0.000976045,0
0.1,2.1,0,0.3,-0.000974536,0
0.1,2.2,0,0.299999,-0.000973964,0
0.1,2.3,0,0.299999,-0.00097204,0
0.1,2.4,0,0.299999,-0.000970688,0
0.1,2.5,0,0.299996,-0.000968222,0
0.1,2.6,0,0.299999,-0.000963928,0
0.1,2.7,0,0.299997,-0.000961826,0
0.1,2.8,0,0.299996,-0.000956555,0
0.1,2.9,0,0.299998,-0.000953384,0
0.1,3,0,0.299992,-0.00094698,0
0.1,3.1,0,0.299998,-0.000938088,0
0.1,3.2,0,0.299994,-0.000933527,0
0.1,3.3,0,0.299993,-0.000922971,0
0.1,3.4,0,0.299998,-0.000916976,0
0.1,3.5,0,0.299985,-0.000904572,0
0.1,3.6,0,0.299997,-0.000888912,0
0.1,3.7,0,0.299989,-0.00088078,0
0.1,3.8,0,0.299988,-0.000862704,0
0.1,3.9,0,0.299996,-0.00085276,0
0.1,4,0,0.299976,-0.00083204,0
0.1,4.1,0,0.299994,-0.000807424,0
0.1,4.2,0,0.299982,-0.000794536,0
0.1,4.3,0,0.299982,-0.000766798,0
0.1,4.4,0,0.299994,-0.000751948,0
0.1,4.5,0,0.299964,-0.000720596,0
0.1,4.6,0,0.299993,-0.000686017,0
0.1,4.7,0,0.299976,-0.000667499,0
0.1,4.8,0,0.299975,-0.0006305,0
0.1,4.9,0,0.299992,-0.00061202,0
0.1,5,0,0.299954,-0.000584173,0
0.1,5.1,0,0.299951,-0.000530627,0
0.1,5.2,0,0.299949,-0.000492169,0
0.1,5.3,0,0.299947,-0.00045211,0
0.1,5.4,0,0.299945,-0.00041046,0
0.1,5.5,0,0.299944,-0.000367306,0
0.1,5.6,0,0.299942,-0.000322743,0
0.1,5.7,0,0.29994,-0.000276892,0
0.1,5.8,0,0.299939,-0.000229888,0
0.1,5.9,0,0.299938,-0.000181881,0
0.1,6,0,0.299937,-0.000133035,0
0.1,6.1,0,0.299936,-8.35254e-05,0
0.1,6.2,0,0.299936,-3.35388e-05,0
0.1,6.3,0,0.299935,1.67318e-05,0
0.1,6.4,0,0.299935,6.70888e-05,0
0.1,6.5,0,0.299936,0.000117333,0
0.1,6.6,0,0.299936,0.000167266,0
0.1,6.7,0,0.299937,0.000216698,0
0.1,6.8,0,0.299937,0.000265442,0
0.1,6.9,0,0.299938,0.000313387,0
0.1,7,0,0.29994,0.000386059,0
0.1,7.1,0,0.299983,0.000422315,0
0.1,7.2,0,0.299978,0.000441686,0
0.1,7.3,0,0.29995,0.000491187,0
0.1,7.4,0,0.29999,0.000541334,0
0.1,7.5,0,0.299975,0.000561916,0
0.1,7.6,0,0.299961,0.000607834,0
0.1,7.7,0,0.299991,0.000644726,0
0.1,7.8,0,0.299974,0.000668562,0
0.1,7.9,0,0.299972,0.000707162,0
0.1,8,0,0.299993,0.000732277,0
0.1,8.1,0,0.299976,0.000756857,0
0.1,8.2,0,0.299981,0.000787474,0
0.1,8.3,0,0.299994,0.000803072,0
0.1,8.4,0,0.299979,0.000826256,0
0.1,8.5,0,0.299989,0.000849095,0
0.1,8.6,0,0.299995,0.000858356,0
0.1,8.7,0,0.299983,0.000877663,0
0.1,8.8,0,0.299994,0.000893373,0
0.1,8.9,0,0.299995,0.000899571,0
0.1,9,0,0.299988,0.000912672,0
0.1,9.1,0,0.299998,0.000922382,0
0.1,9.2,0,0.299997,0.000926019,0
0.1,9.3,0,0.299994,0.000933528,0
0.1,9.4,0,0.299999,0.000938272,0
0.1,9.5,0,0.299998,0.000940194,0
0.1,9.6,0,0.299998,0.000943213,0
0.1,9.7,0,0.3,0.000944272,0
0.1,9.8,0,0.300001,0.000944689,0
0.1,9.9,0,0.300001,0.000944286,0
0.1,10,0,0.300001,0.000943352,0
0.1,10.1,0,0.300003,0.000941973,0
0.1,10.2,0,0.300002,0.00093913,0
0.1,10.3,0,0.300001,0.000937448,0
0.1,10.4,0,0.300004,0.000934292,0
0.1,10.5,0,0.300002,0.000929873,0
0.1,10.6,0,0.300001,0.000927894,0
0.1,10.7,0,0.300005,0.000923604,0
0.1,10.8,0,0.300002,0.000918345,0
0.1,10.9,0,0.300002,0.000916217,0
0.1,11,0,0.300005,0.000911479,0
0.1,11.1,0,0.300001,0.000906049,0
0.1,11.2,0,0.300002,0.000904051,0
0.1,11.3,0,0.300004,0.000899344,0
0.1,11.4,0,0.300001,0.000894776,0
0.1,11.5,0,0.300003,0.000892563,0
0.1,11.6,0,0.300003,0.000888302,0
0.1,11.7,0,0.300001,0.000884968,0
0.1,11.8,0,0.300003,0.000882663,0
0.1,11.9,0,0.300002,0.000879165,0
0.1,12,0,0.300001,0.000877024,0
0.1,12.1,0,0.300002,0.000875049,0
0.1,12.2,0,0.300002,0.00087256,0
0.1,12.3,0,0.300001,0.00087144,0
0.1,12.4,0,0.300001,0.000870234,0
0.1,12.5,0,0.3,0.000868921,0
0.1,12.6,0,0.3,0.00100436,0
0.1,12.7,0,0.300001,0.0011957,0
0.2,0,0,0.3,-0.00206155,0
0.2,0.1,0,0.3,-0.00194032,0
0.2,0.2,0,0.3,-0.00194061,0
0.2,0.3,0,0.3,-0.00194089,0
0.2,0.4,0,0.300001,-0.0019417,0
0.2,0.5,0,0.300001,-0.00194251,0
0.2,0.6,0,0.300001,-0.00194323,0
0.2,0.7,0,0.300001,-0.00194446,0
0.2,0.8,0,0.300001,-0.00194514,0
0.2,0.9,0,0.300001,-0.00194659,0
0.2,1,0,0.300002,-0.00194787,0
0.2,1.1,0,0.300001,-0.00194878,0
0.2,1.2,0,0.300001,-0.00195023,0
0.2,1.3,0,0.300001,-0.00195089,0
0.2,1.4,0,0.300001,-0.001952,0
0.2,1.5,0,0.300001,-0.001953,0
0.2,1.6,0,0.300001,-0.00195314,0
0.2,1.7,0,0.3,-0.00195353,0
0.2,1.8,0,0.3,-0.00195344,0
0.2,1.9,0,0.299999,-0.0019526,0
0.2,2,0,0.299999,-0.00195209,0
0.2,2.1,0,0.299998,-0.00195001,0
0.2,2.2,0,0.299997,-0.00194735,0
0.2,2.3,0,0.299997,-0.00194543,0
0.2,2.4,0,0.299995,-0.00194026,0
0.2,2.5,0,0.299993,-0.00193644,0
0.2,2.6,0,0.299993,-0.00193005,0
0.2,2.7,0,0.299991,-0.00192155,0
0.2,2.8,0,0.299991,-0.00191628,0
0.2,2.9,0,0.299988,-0.00190353,0
0.2,3,0,0.299984,-0.00189396,0
0.2,3.1,0,0.299986,-0.00188051,0
0.2,3.2,0,0.299983,-0.00186249,0
0.2,3.3,0,0.299982,-0.00185194,0
0.2,3.4,0,0.299978,-0.00182754,0
0.2,3.5,0,0.29997,-0.00180914,0
0.2,3.6,0,0.299974,-0.00178535,0
0.2,3.7,0,0.299969,-0.00175343,0
0.2,3.8,0,0.299969,-0.00173535,0
0.2,3.9,0,0.299964,-0.00169474,0
0.2,4,0,0.299951,-0.00166408,0
0.2,4.1,0,0.299958,-0.00162658,0
0.2,4.2,0,0.299952,-0.00157618,0
0.2,4.3,0,0.299952,-0.00154845,0
0.2,4.4,0,0.299946,-0.00148739,0
0.2,4.5,0,0.299928,-0.00144119,0
0.2,4.6,0,0.29994,-0.00138809,0
0.2,4.7,0,0.299934,-0.00131648,0
0.2,4.8,0,0.299933,-0.00127948,0
0.2,4.9,0,0.299929,-0.00121467,0
0.2,5,0,0.299908,-0.00116835,0
0.2,5.1,0,0.299902,-0.00106125,0
0.2,5.2,0,0.299899,-0.000984338,0
0.2,5.3,0,0.299895,-0.00090422,0
0.2,5.4,0,0.299891,-0.00082092,0
0.2,5.5,0,0.299887,-0.000734611,0
0.2,5.6,0,0.299884,-0.000645486,0
0.2,5.7,0,0.299881,-0.000553785,0
0.2,5.8,0,0.299878,-0.000459777,0
0.2,5.9,0,0.299876,-0.000363762,0
0.2,6,0,0.299874,-0.00026607,0
0.2,6.1,0,0.299872,-0.000167051,0
0.2,6.2,0,0.299871,-6.70777e-05,0
0.2,6.3,0,0.299871,3.34637e-05,0
0.2,6.4,0,0.299871,0.000134178,0
0.2,6.5,0,0.299871,0.000234665,0
0.2,6.6,0,0.299872,0.000334532,0
0.2,6.7,0,0.299873,0.000433396,0
0.2,6.8,0,0.299875,0.000530885,0
0.2,6.9,0,0.299877,0.000626775,0
0.2,7,0,0.299879,0.000772118,0
0.2,7.1,0,0.299906,0.000829571,0
0.2,7.2,0,0.299909,0.000915123,0
0.2,7.3,0,0.299893,0.000974775,0
0.2,7.4,0,0.299914,0.00105256,0
0.2,7.5,0,0.29992,0.00114999,0
0.2,7.6,0,0.299911,0.00120249,0
0.2,7.7,0,0.299926,0.0012759,0
0.2,7.8,0,0.299932,0.00135934,0
0.2,7.9,0,0.29993,0.00139794,0
0.2,8,0,0.29994,0.00146357,0
0.2,8.1,0,0.299942,0.001527,0
0.2,8.2,0,0.299947,0.0015584,0
0.2,8.3,0,0.299954,0.00161333,0
0.2,8.4,0,0.299953,0.00165903,0
0.2,8.5,0,0.29996,0.00168534,0
0.2,8.6,0,0.299967,0.00172641,0
0.2,8.7,0,0.299964,0.00175726,0
0.2,8.8,0,0.299972,0.00177735,0
0.2,8.9,0,0.299978,0.00180594,0
0.2,9,0,0.299976,0.00182486,0
0.2,9.1,0,0.299983,0.00183847,0
0.2,9.2,0,0.299988,0.0018563,0
0.2,9.3,0,0.299987,0.00186605,0
0.2,9.4,0,0.299992,0.00187357,0
0.2,9.5,0,0.299996,0.00188253,0
0.2,9.6,0,0.299996,0.00188596,0
0.2,9.7,0,0.299999,0.00188781,0
0.2,9.8,0,0.300001,0.0018897,0
0.2,9.9,0,0.300002,0.0018893,0
0.2,10,0,0.300004,0.00188622,0
0.2,10.1,0,0.300006,0.00188333,0
0.2,10.2,0,0.300005,0.00188022,0
0.2,10.3,0,0.300007,0.00187343,0
0.2,10.4,0,0.300009,0.00186791,0
0.2,10.5,0,0.300008,0.00186251,0
0.2,10.6,0,0.300008,0.00185353,0
0.2,10.7,0,0.300011,0.00184699,0
0.2,10.8,0,0.300009,0.00183996,0
0.2,10.9,0,0.300009,0.00182999,0
0.2,11,0,0.300011,0.0018235,0
0.2,11.1,0,0.300009,0.00181565,0
0.2,11.2,0,0.300009,0.00180566,0
0.2,11.3,0,0.30001,0.00179997,0
0.2,11.4,0,0.300008,0.00179205,0
0.2,11.5,0,0.300008,0.00178282,0
0.2,11.6,0,0.300008,0.00177841,0
0.2,11.7,0,0.300007,0.00177113,0
0.2,11.8,0,0.300007,0.00176382,0
0.2,11.9,0,0.300006,0.00176032,0
0.2,12,0,0.300005,0.00175439,0
0.2,12.1,0,0.300005,0.00174939,0
0.2,12.2,0,0.300004,0.00174675,0
0.2,12.3,0,0.300003,0.00174298,0
0.2,12.4,0,0.300003,0.00174028,0
0.2,12.5,0,0.300002,0.00173898,0
0.2,12.6,0,0.300001,0.00173769,0
0.2,12.7,0,0.300002,0.00184619,0
0.3,0,0,0.300001,-0.00291059,0
0.3,0.1,0,0.300001,-0.00291074,0
0.3,0.2,0,0.300001,-0.00291103,0
0.3,0.3,0,0.300001,-0.00291189,0
0.3,0.4,0,0.300001,-0.0029127,0
0.3,0.5,0,0.300002,-0.00291395,0
0.3,0.6,0,0.300002,-0.00291531,0
0.3,0.7,0,0.300002,-0.00291654,0
0.3,0.8,0,0.300003,-0.00291865,0
0.3,0.9,0,0.300003,-0.00292011,0
0.3,1,0,0.300003,-0.00292217,0
0.3,1.1,0,0.300003,-0.00292386,0
0.3,1.2,0,0.300003,-0.00292531,0
0.3,1.3,0,0.300002,-0.0029274,0
0.3,1.4,0,0.300002,-0.00292851,0
0.3,1.5,0,0.300002,-0.00293015,0
0.3,1.6,0,0.300001,-0.00293059,0
0.3,1.7,0,0.300001,-0.00293098,0
0.3,1.8,0,0.3,-0.00293088,0
0.3,1.9,0,0.299999,-0.00293005,0
0.3,2,0,0.299997,-0.00292922,0
0.3,2.1,0,0.299996,-0.00292598,0
0.3,2.2,0,0.299995,-0.00292332,0
0.3,2.3,0,0.299992,-0.0029178,0
0.3,2.4,0,0.299991,-0.00291263,0
0.3,2.5,0,0.299987,-0.00290635,0
0.3,2.6,0,0.299985,-0.00289595,0
0.3,2.7,0,0.299983,-0.00288745,0
0.3,2.8,0,0.299979,-0.00287197,0
0.3,2.9,0,0.299977,-0.00285922,0
0.3,3,0,0.299969,-0.00284339,0
0.3,3.1,0,0.299968,-0.00282127,0
0.3,3.2,0,0.299965,-0.00280325,0
0.3,3.3,0,0.299959,-0.00277197,0
0.3,3.4,0,0.299955,-0.00274758,0
0.3,3.5,0,0.299943,-0.00271704,0
0.3,3.6,0,0.299943,-0.00267772,0
0.3,3.7,0,0.299939,-0.00264579,0
0.3,3.8,0,0.29993,-0.00259191,0
0.3,3.9,0,0.299925,-0.0025513,0
0.3,4,0,0.299906,-0.0025003,0
0.3,4.1,0,0.29991,-0.002438,0
0.3,4.2,0,0.299904,-0.0023876,0
0.3,4.3,0,0.299893,-0.00230425,0
0.3,4.4,0,0.299887,-0.0022432,0
0.3,4.5,0,0.299862,-0.00216654,0
0.3,4.6,0,0.299869,-0.00207671,0
0.3,4.7,0,0.299863,-0.00200509,0
0.3,4.8,0,0.299852,-0.00188875,0
0.3,4.9,0,0.299847,-0.00182394,0
0.3,5,0,0.29982,-0.00175677,0
0.3,5.1,0,0.299809,-0.00159602,0
0.3,5.2,0,0.299801,-0.00148068,0
0.3,5.3,0,0.299793,-0.00136041,0
0.3,5.4,0,0.299785,-0.00123528,0
0.3,5.5,0,0.299778,-0.00110558,0
0.3,5.6,0,0.299771,-0.000971593,0
0.3,5.7,0,0.299765,-0.000833693,0
0.3,5.8,0,0.29976,-0.00069229,0
0.3,5.9,0,0.299755,-0.000547841,0
0.3,6,0,0.299751,-0.000400844,0
0.3,6.1,0,0.299748,-0.000251835,0
0.3,6.2,0,0.299746,-0.000101378,0
0.3,6.3,0,0.299745,4.9939e-05,0
0.3,6.4,0,0.299745,0.000201514,0
0.3,6.5,0,0.299746,0.000352737,0
0.3,6.6,0,0.299748,0.000503005,0
0.3,6.7,0,0.299751,0.000651725,0
0.3,6.8,0,0.299754,0.000798318,0
0.3,6.9,0,0.299758,0.000942383,0
0.3,7,0,0.299765,0.00116093,0
0.3,7.1,0,0.299797,0.0012516,0
0.3,7.2,0,0.2998,0.00133715,0
0.3,7.3,0,0.299789,0.00147706,0
0.3,7.4,0,0.299816,0.00159616,0
0.3,7.5,0,0.299822,0.00169359,0
0.3,7.6,0,0.299824,0.00182808,0
0.3,7.7,0,0.299843,0.00192487,0
0.3,7.8,0,0.299849,0.00200997,0
0.3,7.9,0,0.29986,0.00212646,0
0.3,8,0,0.299871,0.00220073,0
0.3,8.1,0,0.299875,0.0022756,0
0.3,8.2,0,0.299893,0.00236647,0
0.3,8.3,0,0.2999,0.0024214,0
0.3,8.4,0,0.299902,0.00248385,0
0.3,8.5,0,0.29992,0.00254769,0
0.3,8.6,0,0.299927,0.00258877,0
0.3,8.7,0,0.299929,0.0026377,0
0.3,8.8,0,0.299945,0.00267874,0
0.3,8.9,0,0.299951,0.00270733,0
0.3,9,0,0.299954,0.00274212,0
0.3,9.1,0,0.299966,0.00276552,0
0.3,9.2,0,0.299971,0.00278336,0
0.3,9.3,0,0.299977,0.00280399,0
0.3,9.4,0,0.299984,0.00281506,0
0.3,9.5,0,0.299988,0.00282403,0
0.3,9.6,0,0.299993,0.00283238,0
0.3,9.7,0,0.299997,0.00283474,0
0.3,9.8,0,0.300001,0.00283668,0
0.3,9.9,0,0.300005,0.00283502,0
0.3,10,0,0.300008,0.00283172,0
0.3,10.1,0,0.300011,0.00282789,0
0.3,10.2,0,0.300013,0.00281937,0
0.3,10.3,0,0.300014,0.00281258,0
0.3,10.4,0,0.300017,0.00280426,0
0.3,10.5,0,0.300017,0.00279211,0
0.3,10.6,0,0.300018,0.00278314,0
0.3,10.7,0,0.300021,0.00277165,0
0.3,10.8,0,0.300019,0.0027583,0
0.3,10.9,0,0.300019,0.00274833,0
0.3,11,0,0.300021,0.00273494,0
0.3,11.1,0,0.300019,0.00272223,0
0.3,11.2,0,0.300019,0.00271224,0
0.3,11.3,0,0.30002,0.00269836,0
0.3,11.4,0,0.300018,0.00268737,0
0.3,11.5,0,0.300017,0.00267814,0
0.3,11.6,0,0.300016,0.00266516,0
0.3,11.7,0,0.300015,0.00265648,0
0.3,11.8,0,0.300014,0.00264825,0
0.3,11.9,0,0.300012,0.00263775,0
0.3,12,0,0.300011,0.00263169,0
0.3,12.1,0,0.300011,0.00262512,0
0.3,12.2,0,0.300008,0.00261836,0
0.3,12.3,0,0.300007,0.00261459,0
0.3,12.4,0,0.300006,0.00261041,0
0.3,12.5,0,0.300004,0.0026076,0
0.3,12.6,0,0.300003,0.0026063,0
0.3,12.7,0,0.300003,0.00260522,0
0.4,0,0,0.300001,-0.00388098,0
0.4,0.1,0,0.300001,-0.003881,0
0.4,0.2,0,0.300002,-0.00388175,0
0.4,0.3,0,0.300002,-0.00388261,0
0.4,0.4,0,0.300003,-0.0038839,0
0.4,0.5,0,0.300004,-0.00388559,0
0.4,0.6,0,0.300003,-0.00388709,0
0.4,0.7,0,0.300004,-0.00388954,0
0.4,0.8,0,0.300005,-0.00389166,0
0.4,0.9,0,0.300005,-0.00389416,0
0.4,1,0,0.300006,-0.00389684,0
0.4,1.1,0,0.300005,-0.00389877,0
0.4,1.2,0,0.300005,-0.00390168,0
0.4,1.3,0,0.300004,-0.00390376,0
0.4,1.4,0,0.300003,-0.0039058,0
0.4,1.5,0,0.300003,-0.00390795,0
0.4,1.6,0,0.300003,-0.00390846,0
0.4,1.7,0,0.300001,-0.00390956,0
0.4,1.8,0,0.3,-0.00390947,0
0.4,1.9,0,0.299998,-0.00390825,0
0.4,2,0,0.299995,-0.00390744,0
0.4,2.1,0,0.299994,-0.0039036,0
0.4,2.2,0,0.29999,-0.00389944,0
0.4,2.3,0,0.299987,-0.00389392,0
0.4,2.4,0,0.299984,-0.00388534,0
0.4,2.5,0,0.299977,-0.00387794,0
0.4,2.6,0,0.299977,-0.00386563,0
0.4,2.7,0,0.299969,-0.00385127,0
0.4,2.8,0,0.299965,-0.00383579,0
0.4,2.9,0,0.29996,-0.00381419,0
0.4,3,0,0.299948,-0.00379527,0
0.4,3.1,0,0.299949,-0.00376904,0
0.4,3.2,0,0.299935,-0.00373798,0
0.4,3.3,0,0.299929,-0.0037067,0
0.4,3.4,0,0.299924,-0.00366495,0
0.4,3.5,0,0.299902,-0.00362827,0
0.4,3.6,0,0.299908,-0.00358154,0
0.4,3.7,0,0.299886,-0.00352598,0
0.4,3.8,0,0.299877,-0.0034721,0
0.4,3.9,0,0.299872,-0.00340209,0
0.4,4,0,0.29984,-0.0033407,0
0.4,4.1,0,0.299852,-0.00326649,0
0.4,4.2,0,0.299823,-0.0031783,0
0.4,4.3,0,0.299812,-0.00309494,0
0.4,4.4,0,0.299808,-0.0029889,0
0.4,4.5,0,0.299764,-0.00289663,0
0.4,4.6,0,0.299785,-0.00278859,0
0.4,4.7,0,0.299748,-0.00266337,0
0.4,4.8,0,0.299737,-0.00254703,0
0.4,4.9,0,0.299741,-0.00241898,0
0.4,5,0,0.299692,-0.00234945,0
0.4,5.1,0,0.29967,-0.00213494,0
0.4,5.2,0,0.299656,-0.00198119,0
0.4,5.3,0,0.299641,-0.00182067,0
0.4,5.4,0,0.299628,-0.00165355,0
0.4,5.5,0,0.299615,-0.00148021,0
0.4,5.6,0,0.299604,-0.00130106,0
0.4,5.7,0,0.299593,-0.00111662,0
0.4,5.8,0,0.299584,-0.000927429,0
0.4,5.9,0,0.299575,-0.000734117,0
0.4,6,0,0.299569,-0.000537358,0
0.4,6.1,0,0.299564,-0.000337877,0
0.4,6.2,0,0.29956,-0.00013644,0
0.4,6.3,0,0.299559,6.61579e-05,0
0.4,6.4,0,0.299559,0.000269097,0
0.4,6.5,0,0.299561,0.000471548,0
0.4,6.6,0,0.299564,0.000672684,0
0.4,6.7,0,0.299569,0.000871685,0
0.4,6.8,0,0.299575,0.00106774,0
0.4,6.9,0,0.299583,0.00126021,0
0.4,7,0,0.299598,0.00155249,0
0.4,7.1,0,0.299651,0.00164702,0
0.4,7.2,0,0.299656,0.0018066,0
0.4,7.3,0,0.299635,0.00196854,0
0.4,7.4,0,0.29969,0.00211804,0
0.4,7.5,0,0.299691,0.00229197,0
0.4,7.6,0,0.299688,0.00243265,0
0.4,7.7,0,0.299736,0.00256937,0
0.4,7.8,0,0.299736,0.00271144,0
0.4,7.9,0,0.299746,0.00282794,0
0.4,8,0,0.299787,0.0029459,0
0.4,8.1,0,0.299784,0.00305652,0
0.4,8.2,0,0.299803,0.00314831,0
0.4,8.3,0,0.299837,0.00324508,0
0.4,8.4,0,0.299833,0.0033269,0
0.4,8.5,0,0.299855,0.00339499,0
0.4,8.6,0,0.299882,0.00346889,0
0.4,8.7,0,0.299879,0.00352669,0
0.4,8.8,0,0.299902,0.00357325,0
0.4,8.9,0,0.29992,0.00362364,0
0.4,9,0,0.299922,0.00366256,0
0.4,9.1,0,0.299941,0.00369111,0
0.4,9.2,0,0.299953,0.00372149,0
0.4,9.3,0,0.299958,0.0037435,0
0.4,9.4,0,0.299972,0.00375829,0
0.4,9.5,0,0.299981,0.00377232,0
0.4,9.6,0,0.299987,0.00378084,0
0.4,9.7,0,0.299995,0.00378436,0
0.4,9.8,0,0.300003,0.0037862,0
0.4,9.9,0,0.300008,0.00378453,0
0.4,10,0,0.300013,0.00377896,0
0.4,10.1,0,0.300019,0.00377265,0
0.4,10.2,0,0.300022,0.00376384,0
0.4,10.3,0,0.300025,0.00375144,0
0.4,10.4,0,0.30003,0.00374029,0
0.4,10.5,0,0.300029,0.00372703,0
0.4,10.6,0,0.300031,0.00371043,0
0.4,10.7,0,0.300036,0.00369663,0
0.4,10.8,0,0.300033,0.00368115,0
0.4,10.9,0,0.300033,0.00366289,0
0.4,11,0,0.300037,0.00364785,0
0.4,11.1,0,0.300032,0.00363209,0
0.4,11.2,0,0.300033,0.00361404,0
0.4,11.3,0,0.300035,0.00359932,0
0.4,11.4,0,0.30003,0.00358414,0
0.4,11.5,0,0.30003,0.00356826,0
0.4,11.6,0,0.30003,0.00355516,0
0.4,11.7,0,0.300025,0.00354157,0
0.4,11.8,0,0.300025,0.00352897,0
0.4,11.9,0,0.300023,0.00351847,0
0.4,12,0,0.300018,0.00350756,0
0.4,12.1,0,0.300018,0.00349877,0
0.4,12.2,0,0.300015,0.00349162,0
0.4,12.3,0,0.300011,0.00348434,0
0.4,12.4,0,0.30001,0.00347955,0
0.4,12.5,0,0.300007,0.00347625,0
0.4,12.6,0,0.300005,0.00347371,0
0.4,12.7,0,0.300006,0.00347279,0
0.5,0,0,0.300002,-0.00485138,0
0.5,0.1,0,0.300003,-0.00485199,0
0.5,0.2,0,0.300003,-0.0048526,0
0.5,0.3,0,0.300004,-0.00485377,0
0.5,0.4,0,0.300005,-0.0048555,0
0.5,0.5,0,0.300006,-0.00485723,0
0.5,0.6,0,0.300006,-0.00485982,0
0.5,0.7,0,0.300007,-0.00486242,0
0.5,0.8,0,0.300007,-0.00486527,0
0.5,0.9,0,0.300008,-0.00486839,0
0.5,1,0,0.300008,-0.0048715,0
0.5,1.1,0,0.300008,-0.00487465,0
0.5,1.2,0,0.300007,-0.0048778,0
0.5,1.3,0,0.300007,-0.00488065,0
0.5,1.4,0,0.300006,-0.0048832,0
0.5,1.5,0,0.300005,-0.00488576,0
0.5,1.6,0,0.300003,-0.00488692,0
0.5,1.7,0,0.300002,-0.00488808,0
0.5,1.8,0,0.299999,-0.00488806,0
0.5,1.9,0,0.299996,-0.00488686,0
0.5,2,0,0.299994,-0.00488565,0
0.5,2.1,0,0.299989,-0.0048809,0
0.5,2.2,0,0.299985,-0.00487615,0
0.5,2.3,0,0.29998,-0.00486892,0
0.5,2.4,0,0.299974,-0.00485922,0
0.5,2.5,0,0.299968,-0.00484953,0
0.5,2.6,0,0.299961,-0.00483326,0
0.5,2.7,0,0.299953,-0.00481699,0
0.5,2.8,0,0.299945,-0.00479651,0
0.5,2.9,0,0.299935,-0.00477183,0
0.5,3,0,0.299926,-0.00474714,0
0.5,3.1,0,0.299914,-0.00471197,0
0.5,3.2,0,0.299903,-0.00467681,0
0.5,3.3,0,0.29989,-0.00463528,0
0.5,3.4,0,0.299876,-0.00458739,0
0.5,3.5,0,0.299862,-0.0045395,0
0.5,3.6,0,0.299845,-0.00447653,0
0.5,3.7,0,0.299829,-0.00441357,0
0.5,3.8,0,0.299811,-0.0043419,0
0.5,3.9,0,0.299793,-0.0042615,0
0.5,4,0,0.299774,-0.0041811,0
0.5,4.1,0,0.299753,-0.00408101,0
0.5,4.2,0,0.299733,-0.00398091,0
0.5,4.3,0,0.299711,-0.00387003,0
0.5,4.4,0,0.299689,-0.00374838,0
0.5,4.5,0,0.299666,-0.00362673,0
0.5,4.6,0,0.299643,-0.00348329,0
0.5,4.7,0,0.29962,-0.00333986,0
0.5,4.8,0,0.299599,-0.00320294,0
0.5,4.9,0,0.299581,-0.00307253,0
0.5,5,0,0.299563,-0.00294212,0
0.5,5.1,0,0.299531,-0.00267385,0
0.5,5.2,0,0.299511,-0.00248171,0
0.5,5.3,0,0.29949,-0.00228094,0
0.5,5.4,0,0.299471,-0.00207182,0
0.5,5.5,0,0.299453,-0.00185484,0
0.5,5.6,0,0.299436,-0.00163053,0
0.5,5.7,0,0.299421,-0.00139954,0
0.5,5.8,0,0.299407,-0.00116257,0
0.5,5.9,0,0.299396,-0.000920392,0
0.5,6,0,0.299386,-0.000673871,0
0.5,6.1,0,0.29938,-0.000423919,0
0.5,6.2,0,0.299375,-0.000171501,0
0.5,6.3,0,0.299372,8.23768e-05,0
0.5,6.4,0,0.299372,0.00033668,0
0.5,6.5,0,0.299375,0.000590359,0
0.5,6.6,0,0.29938,0.000842362,0
0.5,6.7,0,0.299387,0.00109165,0
0.5,6.8,0,0.299397,0.00133717,0
0.5,6.9,0,0.299408,0.00157804,0
0.5,7,0,0.29943,0.00194405,0
0.5,7.1,0,0.299445,0.00211725,0
0.5,7.2,0,0.299459,0.00229045,0
0.5,7.3,0,0.299475,0.00246716,0
0.5,7.4,0,0.299498,0.00266379,0
0.5,7.5,0,0.299521,0.00286042,0
0.5,7.6,0,0.299545,0.00304886,0
0.5,7.7,0,0.299571,0.00321819,0
0.5,7.8,0,0.299597,0.00338752,0
0.5,7.9,0,0.299624,0.00354333,0
0.5,8,0,0.29965,0.00368263,0
0.5,8.1,0,0.299677,0.00382193,0
0.5,8.2,0,0.299703,0.00394331,0
0.5,8.3,0,0.299729,0.00405276,0
0.5,8.4,0,0.299755,0.0041622,0
0.5,8.5,0,0.299779,0.00425059,0
0.5,8.6,0,0.299802,0.00433195,0
0.5,8.7,0,0.299826,0.00441332,0
0.5,8.8,0,0.299847,0.00447202,0
0.5,8.9,0,0.299868,0.0045282,0
0.5,9,0,0.299889,0.0045833,0
0.5,9.1,0,0.299906,0.00461787,0
0.5,9.2,0,0.299924,0.00465243,0
0.5,9.3,0,0.299941,0.00468345,0
0.5,9.4,0,0.299954,0.00470027,0
0.5,9.5,0,0.299968,0.00471709,0
0.5,9.6,0,0.299981,0.00472904,0
0.5,9.7,0,0.299992,0.00473195,0
0.5,9.8,0,0.300003,0.00473487,0
0.5,9.9,0,0.300012,0.00473263,0
0.5,10,0,0.30002,0.00472525,0
0.5,10.1,0,0.300028,0.00471787,0
0.5,10.2,0,0.300033,0.0047059,0
0.5,10.3,0,0.300038,0.00469147,0
0.5,10.4,0,0.300043,0.00467703,0
0.5,10.5,0,0.300046,0.0046592,0
0.5,10.6,0,0.300049,0.00464052,0
0.5,10.7,0,0.300051,0.00462184,0
0.5,10.8,0,0.300052,0.00460139,0
0.5,10.9,0,0.300053,0.00458083,0
0.5,11,0,0.300053,0.00456029,0
0.5,11.1,0,0.300052,0.00453981,0
0.5,11.2,0,0.300051,0.00451933,0
0.5,11.3,0,0.30005,0.00449925,0
0.5,11.4,0,0.300048,0.00448041,0
0.5,11.5,0,0.300046,0.00446156,0
0.5,11.6,0,0.300044,0.00444386,0
0.5,11.7,0,0.30004,0.00442788,0
0.5,11.8,0,0.300037,0.00441189,0
0.5,11.9,0,0.300034,0.004398,0
0.5,12,0,0.30003,0.00438582,0
0.5,12.1,0,0.300026,0.00437363,0
0.5,12.2,0,0.300022,0.00436458,0
0.5,12.3,0,0.300018,0.00435686,0
0.5,12.4,0,0.300014,0.00434914,0
0.5,12.5,0,0.300012,0.00434571,0
0.5,12.6,0,0.30001,0.00434303,0
0.5,12.7,0,0.300008,0.00434036,0
0.6,0,0,0.300003,-0.00582143,0
0.6,0.1,0,0.300003,-0.00582176,0
0.6,0.2,0,0.300004,-0.00582272,0
0.6,0.3,0,0.300006,-0.0058243,0
0.6,0.4,0,0.300007,-0.00582609,0
0.6,0.5,0,0.300009,-0.00582883,0
0.6,0.6,0,0.300009,-0.00583183,0
0.6,0.7,0,0.30001,-0.00583507,0
0.6,0.8,0,0.300011,-0.00583887,0
0.6,0.9,0,0.300011,-0.0058423,0
0.6,1,0,0.300012,-0.00584688,0
0.6,1.1,0,0.300011,-0.00585076,0
0.6,1.2,0,0.300011,-0.00585468,0
0.6,1.3,0,0.30001,-0.00585865,0
0.6,1.4,0,0.300009,-0.00586156,0
0.6,1.5,0,0.300008,-0.00586555,0
0.6,1.6,0,0.300005,-0.00586722,0
0.6,1.7,0,0.300003,-0.00586895,0
0.6,1.8,0,0.3,-0.00586954,0
0.6,1.9,0,0.299996,-0.00586837,0
0.6,2,0,0.299991,-0.00586776,0
0.6,2.1,0,0.299986,-0.00586239,0
0.6,2.2,0,0.299979,-0.00585751,0
0.6,2.3,0,0.299972,-0.00584933,0
0.6,2.4,0,0.299966,-0.00583881,0
0.6,2.5,0,0.299954,-0.00582766,0
0.6,2.6,0,0.299946,-0.00580832,0
0.6,2.7,0,0.299934,-0.00579051,0
0.6,2.8,0,0.299922,-0.00576603,0
0.6,2.9,0,0.299913,-0.00573887,0
0.6,3,0,0.299891,-0.00570899,0
0.6,3.1,0,0.299881,-0.00566648,0
0.6,3.2,0,0.299861,-0.00562739,0
0.6,3.3,0,0.299842,-0.00557677,0
0.6,3.4,0,0.299831,-0.00552371,0
0.6,3.5,0,0.299795,-0.00546472,0
0.6,3.6,0,0.299785,-0.00538779,0
0.6,3.7,0,0.299755,-0.00531733,0
0.6,3.8,0,0.299729,-0.00522903,0
0.6,3.9,0,0.299716,-0.00513952,0
0.6,4,0,0.299664,-0.00503951,0
0.6,4.1,0,0.299656,-0.00491633,0
0.6,4.2,0,0.299616,-0.00480375,0
0.6,4.3,0,0.299584,-0.00466612,0
0.6,4.4,0,0.29957,-0.00453018,0
0.6,4.5,0,0.299502,-0.00437774,0
0.6,4.6,0,0.299501,-0.00419925,0
0.6,4.7,0,0.299452,-0.00403781,0
0.6,4.8,0,0.299418,-0.00384603,0
0.6,4.9,0,0.299411,-0.00367876,0
0.6,5,0,0.299345,-0.00355634,0
0.6,5.1,0,0.299296,-0.00323329,0
0.6,5.2,0,0.299263,-0.00300181,0
0.6,5.3,0,0.299232,-0.00275979,0
0.6,5.4,0,0.299203,-0.00250754,0
0.6,5.5,0,0.299175,-0.00224566,0
0.6,5.6,0,0.299149,-0.00197479,0
0.6,5.7,0,0.299125,-0.0016957,0
0.6,5.8,0,0.299105,-0.00140924,0
0.6,5.9,0,0.299087,-0.00111636,0
0.6,6,0,0.299073,-0.000818106,0
0.6,6.1,0,0.299062,-0.000515597,0
0.6,6.2,0,0.299055,-0.000210017,0
0.6,6.3,0,0.299051,9.73979e-05,0
0.6,6.4,0,0.299051,0.000405374,0
0.6,6.5,0,0.299055,0.000712619,0
0.6,6.6,0,0.299063,0.00101784,0
0.6,6.7,0,0.299075,0.00131974,0
0.6,6.8,0,0.299089,0.00161705,0
0.6,6.9,0,0.299108,0.00190866,0
0.6,7,0,0.299143,0.00235165,0
0.6,7.1,0,0.299212,0.00251763,0
0.6,7.2,0,0.299224,0.00271816,0
0.6,7.3,0,0.299221,0.00298631,0
0.6,7.4,0,0.299302,0.003238,0
0.6,7.5,0,0.299312,0.00345491,0
0.6,7.6,0,0.299332,0.00369031,0
0.6,7.7,0,0.299404,0.0039008,0
0.6,7.8,0,0.299417,0.00409216,0
0.6,7.9,0,0.299454,0.00428676,0
0.6,8,0,0.299514,0.00445402,0
0.6,8.1,0,0.299529,0.00461493,0
0.6,8.2,0,0.299575,0.00476715,0
0.6,8.3,0,0.299623,0.00489383,0
0.6,8.4,0,0.29964,0.00502243,0
0.6,8.5,0,0.299688,0.00513404,0
0.6,8.6,0,0.299725,0.00522528,0
0.6,8.7,0,0.299744,0.00532126,0
0.6,8.8,0,0.299789,0.00539626,0
0.6,8.9,0,0.299816,0.00545805,0
0.6,9,0,0.299836,0.00552194,0
0.6,9.1,0,0.299874,0.00556672,0
0.6,9.2,0,0.299894,0.00560353,0
0.6,9.3,0,0.299914,0.00563869,0
0.6,9.4,0,0.299941,0.00566024,0
0.6,9.5,0,0.299957,0.00567717,0
0.6,9.6,0,0.299975,0.00568959,0
0.6,9.7,0,0.299992,0.00569325,0
0.6,9.8,0,0.300006,0.00569459,0
0.6,9.9,0,0.30002,0.00569006,0
0.6,10,0,0.30003,0.00568132,0
0.6,10.1,0,0.300041,0.00567058,0
0.6,10.2,0,0.30005,0.00565434,0
0.6,10.3,0,0.300055,0.00563781,0
0.6,10.4,0,0.300064,0.00561841,0
0.6,10.5,0,0.300067,0.00559501,0
0.6,10.6,0,0.300069,0.0055739,0
0.6,10.7,0,0.300077,0.00554954,0
0.6,10.8,0,0.300075,0.00552278,0
0.6,10.9,0,0.300076,0.00549969,0
0.6,11,0,0.30008,0.00547346,0
0.6,11.1,0,0.300074,0.00544652,0
0.6,11.2,0,0.300074,0.00542378,0
0.6,11.3,0,0.300074,0.00539834,0
0.6,11.4,0,0.300068,0.00537402,0
0.6,11.5,0,0.300067,0.00535284,0
0.6,11.6,0,0.300064,0.00533035,0
0.6,11.7,0,0.300057,0.00531031,0
0.6,11.8,0,0.300055,0.00529205,0
0.6,11.9,0,0.300049,0.00527416,0
0.6,12,0,0.300042,0.00525928,0
0.6,12.1,0,0.300039,0.00524531,0
0.6,12.2,0,0.300032,0.00523321,0
0.6,12.3,0,0.300026,0.00522399,0
0.6,12.4,0,0.300022,0.00521536,0
0.6,12.5,0,0.300015,0.00520984,0
0.6,12.6,0,0.300011,0.0052066,0
0.6,12.7,0,0.300012,0.00520466,0
0.7,0,0,0.300004,-0.00679148,0
0.7,0.1,0,0.300005,-0.00679215,0
0.7,0.2,0,0.300006,-0.00679318,0
0.7,0.3,0,0.300007,-0.00679477,0
0.7,0.4,0,0.30001,-0.00679763,0
0.7,0.5,0,0.300011,-0.00680043,0
0.7,0.6,0,0.300013,-0.00680407,0
0.7,0.7,0,0.300014,-0.00680836,0
0.7,0.8,0,0.300015,-0.00681217,0
0.7,0.9,0,0.300016,-0.00681737,0
0.7,1,0,0.300017,-0.00682226,0
0.7,1.1,0,0.300016,-0.00682691,0
0.7,1.2,0,0.300015,-0.00683233,0
0.7,1.3,0,0.300015,-0.0068363,0
0.7,1.4,0,0.300013,-0.006841,0
0.7,1.5,0,0.300011,-0.00684534,0
0.7,1.6,0,0.300008,-0.00684758,0
0.7,1.7,0,0.300004,-0.00685039,0
0.7,1.8,0,0.3,-0.00685098,0
0.7,1.9,0,0.299994,-0.00685044,0
0.7,2,0,0.299988,-0.00684987,0
0.7,2.1,0,0.299981,-0.00684437,0
0.7,2.2,0,0.299972,-0.00683874,0
0.7,2.3,0,0.299964,-0.00683057,0
0.7,2.4,0,0.299951,-0.00681776,0
0.7,2.5,0,0.299939,-0.00680578,0
0.7,2.6,0,0.299927,-0.00678491,0
0.7,2.7,0,0.299911,-0.0067625,0
0.7,2.8,0,0.299898,-0.00673801,0
0.7,2.9,0,0.299877,-0.00670319,0
0.7,3,0,0.299855,-0.00667084,0
0.7,3.1,0,0.299838,-0.0066244,0
0.7,3.2,0,0.299812,-0.00657405,0
0.7,3.3,0,0.299793,-0.00652343,0
0.7,3.4,0,0.299762,-0.0064541,0
0.7,3.5,0,0.299728,-0.00638994,0
0.7,3.6,0,0.299705,-0.00630551,0
0.7,3.7,0,0.299669,-0.00621358,0
0.7,3.8,0,0.299643,-0.00612528,0
0.7,3.9,0,0.299601,-0.00600704,0
0.7,4,0,0.299554,-0.00589793,0
0.7,4.1,0,0.299527,-0.00576226,0
0.7,4.2,0,0.29948,-0.00561412,0
0.7,4.3,0,0.299448,-0.00547648,0
0.7,4.4,0,0.299397,-0.00529548,0
0.7,4.5,0,0.299338,-0.00512876,0
0.7,4.6,0,0.299311,-0.00493226,0
0.7,4.7,0,0.299259,-0.00471776,0
0.7,4.8,0,0.299224,-0.00452598,0
0.7,4.9,0,0.299182,-0.00432984,0
0.7,5,0,0.299128,-0.00417056,0
0.7,5.1,0,0.29906,-0.00379273,0
0.7,5.2,0,0.299016,-0.00352191,0
0.7,5.3,0,0.298974,-0.00323863,0
0.7,5.4,0,0.298934,-0.00294327,0
0.7,5.5,0,0.298896,-0.00263649,0
0.7,5.6,0,0.298862,-0.00231905,0
0.7,5.7,0,0.29883,-0.00199186,0
0.7,5.8,0,0.298802,-0.00165591,0
0.7,5.9,0,0.298778,-0.00131233,0
0.7,6,0,0.298759,-0.000962339,0
0.7,6.1,0,0.298744,-0.000607274,0
0.7,6.2,0,0.298735,-0.000248532,0
0.7,6.3,0,0.29873,0.000112419,0
0.7,6.4,0,0.29873,0.000474068,0
0.7,6.5,0,0.298736,0.000834879,0
0.7,6.6,0,0.298746,0.00119331,0
0.7,6.7,0,0.298762,0.00154783,0
0.7,6.8,0,0.298782,0.00189692,0
0.7,6.9,0,0.298807,0.00223928,0
0.7,7,0,0.298856,0.00275925,0
0.7,7.1,0,0.29891,0.00296726,0
0.7,7.2,0,0.298945,0.00323099,0
0.7,7.3,0,0.298957,0.00349711,0
0.7,7.4,0,0.299022,0.00377609,0
0.7,7.5,0,0.299075,0.00407443,0
0.7,7.6,0,0.299103,0.00431706,0
0.7,7.7,0,0.299168,0.00456266,0
0.7,7.8,0,0.299226,0.00481736,0
0.7,7.9,0,0.299262,0.00501195,0
0.7,8,0,0.299324,0.00521748,0
0.7,8.1,0,0.299376,0.00541963,0
0.7,8.2,0,0.299421,0.00557249,0
0.7,8.3,0,0.299479,0.00573537,0
0.7,8.4,0,0.299524,0.00588805,0
0.7,8.5,0,0.299571,0.00600229,0
0.7,8.6,0,0.299624,0.00612207,0
0.7,8.7,0,0.299661,0.00623066,0
0.7,8.8,0,0.299705,0.00630854,0
0.7,8.9,0,0.299752,0.00638992,0
0.7,9,0,0.299783,0.00646008,0
0.7,9.1,0,0.299821,0.00650673,0
0.7,9.2,0,0.29986,0.00655543,0