x,y,z,p
0,0,0,6.97649e-05
0,0.1,0,0.00015005
0,0.2,0,0.000230334
0,0.3,0,0.000324411
0,0.4,0,0.000432279
0,0.5,0,0.000540147
0,0.6,0,0.000647376
0,0.7,0,0.000754605
0,0.8,0,0.000861354
0,0.9,0,0.000967623
0,1,0,0.00107389
0,1.1,0,0.00117889
0,1.2,0,0.00128388
0,1.3,0,0.00138807
0,1.4,0,0.00149146
0,1.5,0,0.00159486
0,1.6,0,0.00169631
0,1.7,0,0.00179777
0,1.8,0,0.0018981
0,1.9,0,0.00199728
0,2,0,0.00209647
0,2.1,0,0.00219305
0,2.2,0,0.00228963
0,2.3,0,0.00238473
0,2.4,0,0.00247834
0,2.5,0,0.00257195
0,2.6,0,0.00266224
0,2.7,0,0.00275253
0,2.8,0,0.00284098
0,2.9,0,0.00292758
0,3,0,0.00301419
0,3.1,0,0.00309674
0,3.2,0,0.00317929
0,3.3,0,0.00325963
0,3.4,0,0.00333776
0,3.5,0,0.00341589
0,3.6,0,0.00348923
0,3.7,0,0.00356257
0,3.8,0,0.00363333
0,3.9,0,0.0037015
0,4,0,0.00376968
0,4.1,0,0.00383232
0,4.2,0,0.00389496
0,4.3,0,0.00395464
0,4.4,0,0.00401136
0,4.5,0,0.00406808
0,4.6,0,0.00411849
0,4.7,0,0.00416889
0,4.8,0,0.0042121
0,4.9,0,0.00424811
0,5,0,0.00428413
0,5.1,0,0.00434337
0,5.2,0,0.00437966
0,5.3,0,0.00441318
0,5.4,0,0.00444385
0,5.5,0,0.00447163
0,5.6,0,0.0044965
0,5.7,0,0.00451842
0,5.8,0,0.00453736
0,5.9,0,0.0045533
0,6,0,0.00456621
0,6.1,0,0.00457609
0,6.2,0,0.0045829
0,6.3,0,0.00458667
0,6.4,0,0.00458737
0,6.5,0,0.00458502
0,6.6,0,0.00457961
0,6.7,0,0.00457116
0,6.8,0,0.00455967
0,6.9,0,0.00454521
0,7,0,0.00451637
0,7.1,0,0.00449681
0,7.2,0,0.00447724
0,7.3,0,0.00445586
0,7.4,0,0.00442419
0,7.5,0,0.00439252
0,7.6,0,0.00435839
0,7.7,0,0.00431851
0,7.8,0,0.00427864
0,7.9,0,0.00423526
0,8,0,0.00418762
0,8.1,0,0.00413997
0,8.2,0,0.00408791
0,8.3,0,0.0040329
0,8.4,0,0.00397789
0,8.5,0,0.00391769
0,8.6,0,0.00385575
0,8.7,0,0.00379381
0,8.8,0,0.00372604
0,8.9,0,0.00365762
0,9,0,0.0035889
0,9.1,0,0.00351448
0,9.2,0,0.00344006
0,9.3,0,0.00336454
0,9.4,0,0.0032846
0,9.5,0,0.00320466
0,9.6,0,0.00312296
0,9.7,0,0.003038
0,9.8,0,0.00295303
0,9.9,0,0.00286579
0,10,0,0.00277629
0,10.1,0,0.00268679
0,10.2,0,0.00259465
0,10.3,0,0.0025011
0,10.4,0,0.00240755
0,10.5,0,0.00231115
0,10.6,0,0.00221403
0,10.7,0,0.00211691
0,10.8,0,0.00201685
0,10.9,0,0.00191664
0,11,0,0.00181617
0,11.1,0,0.00171333
0,11.2,0,0.0016105
0,11.3,0,0.00150712
0,11.4,0,0.00140211
0,11.5,0,0.0012971
0,11.6,0,0.0011914
0,11.7,0,0.00108466
0,11.8,0,0.000977917
0,11.9,0,0.000870463
0,12,0,0.000762424
0,12.1,0,0.000654385
0,12.2,0,0.000545743
0,12.3,0,0.000436842
0,12.4,0,0.000327941
0,12.5,0,0.000242546
0,12.6,0,0.0001613
0,12.7,0,8.00535e-05
0.1,0,0,5.42616e-05
0.1,0.1,0,0.000134593
0.1,0.2,0,0.00021645
0.1,0.3,0,0.000324557
0.1,0.4,0,0.000432411
0.1,0.5,0,0.000540688
0.1,0.6,0,0.000647599
0.1,0.7,0,0.000754886
0.1,0.8,0,0.000861714
0.1,0.9,0,0.000967934
0.1,1,0,0.00107497
0.1,1.1,0,0.00117928
0.1,1.2,0,0.00128437
0.1,1.3,0,0.00138865
0.1,1.4,0,0.00149195
0.1,1.5,0,0.00159649
0.1,1.6,0,0.0016969
0.1,1.7,0,0.00179849
0.1,1.8,0,0.0018989
0.1,1.9,0,0.00199796
0.1,2,0,0.00209869
0.1,2.1,0,0.00219383
0.1,2.2,0,0.00229058
0.1,2.3,0,0.00238576
0.1,2.4,0,0.00247921
0.1,2.5,0,0.00257475
0.1,2.6,0,0.00266321
0.1,2.7,0,0.00275371
0.1,2.8,0,0.00284225
0.1,2.9,0,0.00292866
0.1,3,0,0.00301753
0.1,3.1,0,0.00309792
0.1,3.2,0,0.00318071
0.1,3.3,0,0.00326114
0.1,3.4,0,0.00333904
0.1,3.5,0,0.00341969
0.1,3.6,0,0.00349062
0.1,3.7,0,0.00356421
0.1,3.8,0,0.00363506
0.1,3.9,0,0.00370299
0.1,4,0,0.00377382
0.1,4.1,0,0.0038339
0.1,4.2,0,0.00389682
0.1,4.3,0,0.0039566
0.1,4.4,0,0.00401306
0.1,4.5,0,0.00407249
0.1,4.6,0,0.0041203
0.1,4.7,0,0.00417098
0.1,4.8,0,0.00421812
0.1,4.9,0,0.00425429
0.1,5,0,0.00428873
0.1,5.1,0,0.00434796
0.1,5.2,0,0.00438432
0.1,5.3,0,0.00441788
0.1,5.4,0,0.0044486
0.1,5.5,0,0.00447642
0.1,5.6,0,0.00450132
0.1,5.7,0,0.00452327
0.1,5.8,0,0.00454223
0.1,5.9,0,0.00455819
0.1,6,0,0.00457112
0.1,6.1,0,0.004581
0.1,6.2,0,0.00458783
0.1,6.3,0,0.0045916
0.1,6.4,0,0.0045923
0.1,6.5,0,0.00458994
0.1,6.6,0,0.00458451
0.1,6.7,0,0.00457604
0.1,6.8,0,0.00456452
0.1,6.9,0,0.00455001
0.1,7,0,0.00452125
0.1,7.1,0,0.00450181
0.1,7.2,0,0.00448224
0.1,7.3,0,0.00446023
0.1,7.4,0,0.00442686
0.1,7.5,0,0.00439519
0.1,7.6,0,0.00436208
0.1,7.7,0,0.00432104
0.1,7.8,0,0.00428144
0.1,7.9,0,0.00423832
0.1,8,0,0.00419001
0.1,8.1,0,0.00414318
0.1,8.2,0,0.00409029
0.1,8.3,0,0.00403516
0.1,8.4,0,0.00398151
0.1,8.5,0,0.00391981
0.1,8.6,0,0.00385787
0.1,8.7,0,0.00379781
0.1,8.8,0,0.00372802
0.1,8.9,0,0.0036596
0.1,9,0,0.00359288
0.1,9.1,0,0.00351631
0.1,9.2,0,0.00344189
0.1,9.3,0,0.00336775
0.1,9.4,0,0.00328627
0.1,9.5,0,0.00320633
0.1,9.6,0,0.00312543
0.1,9.7,0,0.00303951
0.1,9.8,0,0.00295493
0.1,9.9,0,0.00286757
0.1,10,0,0.00277765
0.1,10.1,0,0.00268888
0.1,10.2,0,0.00259586
0.1,10.3,0,0.00250231
0.1,10.4,0,0.00240975
0.1,10.5,0,0.0023122
0.1,10.6,0,0.00221508
0.1,10.7,0,0.00211913
0.1,10.8,0,0.00201776
0.1,10.9,0,0.00191755
0.1,11,0,0.00181795
0.1,11.1,0,0.00171409
0.1,11.2,0,0.00161126
0.1,11.3,0,0.00150835
0.1,11.4,0,0.00140273
0.1,11.5,0,0.00129775
0.1,11.6,0,0.00119218
0.1,11.7,0,0.00108514
0.1,11.8,0,0.000978538
0.1,11.9,0,0.000870886
0.1,12,0,0.000762766
0.1,12.1,0,0.000654886
0.1,12.2,0,0.000545947
0.1,12.3,0,0.000437046
0.1,12.4,0,0.000328238
0.1,12.5,0,0.000224828
0.1,12.6,0,0.000143581
0.1,12.7,0,6.22639e-05
0.2,0,0,3.87583e-05
0.2,0.1,0,0.000119127
0.2,0.2,0,0.000216724
0.2,0.3,0,0.000324831
0.2,0.4,0,0.000432626
0.2,0.5,0,0.000541228
0.2,0.6,0,0.000647885
0.2,0.7,0,0.000755694
0.2,0.8,0,0.000862522
0.2,0.9,0,0.000968398
0.2,1,0,0.00107605
0.2,1.1,0,0.00117982
0.2,1.2,0,0.00128573
0.2,1.3,0,0.00139
0.2,1.4,0,0.00149267
0.2,1.5,0,0.00159813
0.2,1.6,0,0.00169769
0.2,1.7,0,0.00180041
0.2,1.8,0,0.00190082
0.2,1.9,0,0.00199895
0.2,2,0,0.00210091
0.2,2.1,0,0.00219489
0.2,2.2,0,0.00229309
0.2,2.3,0,0.00238827
0.2,2.4,0,0.00248047
0.2,2.5,0,0.00257754
0.2,2.6,0,0.00266455
0.2,2.7,0,0.00275679
0.2,2.8,0,0.00284533
0.2,2.9,0,0.00293019
0.2,3,0,0.00302086
0.2,3.1,0,0.00309953
0.2,3.2,0,0.00318429
0.2,3.3,0,0.00326472
0.2,3.4,0,0.00334083
0.2,3.5,0,0.00342349
0.2,3.6,0,0.00349248
0.2,3.7,0,0.0035682
0.2,3.8,0,0.00363905
0.2,3.9,0,0.003705
0.2,4,0,0.00377796
0.2,4.1,0,0.003836
0.2,4.2,0,0.00390109
0.2,4.3,0,0.00396087
0.2,4.4,0,0.00401531
0.2,4.5,0,0.0040769
0.2,4.6,0,0.00412263
0.2,4.7,0,0.00417555
0.2,4.8,0,0.00422269
0.2,4.9,0,0.00426016
0.2,5,0,0.00429334
0.2,5.1,0,0.00435256
0.2,5.2,0,0.00438898
0.2,5.3,0,0.00442259
0.2,5.4,0,0.00445335
0.2,5.5,0,0.00448121
0.2,5.6,0,0.00450614
0.2,5.7,0,0.00452811
0.2,5.8,0,0.0045471
0.2,5.9,0,0.00456308
0.2,6,0,0.00457602
0.2,6.1,0,0.00458592
0.2,6.2,0,0.00459276
0.2,6.3,0,0.00459653
0.2,6.4,0,0.00459723
0.2,6.5,0,0.00459486
0.2,6.6,0,0.00458942
0.2,6.7,0,0.00458092
0.2,6.8,0,0.00456937
0.2,6.9,0,0.00455481
0.2,7,0,0.00452613
0.2,7.1,0,0.00450676
0.2,7.2,0,0.00448717
0.2,7.3,0,0.00446511
0.2,7.4,0,0.00442994
0.2,7.5,0,0.00439971
0.2,7.6,0,0.00436682
0.2,7.7,0,0.00432356
0.2,7.8,0,0.00428612
0.2,7.9,0,0.00424299
0.2,8,0,0.00419241
0.2,8.1,0,0.00414778
0.2,8.2,0,0.0040949
0.2,8.3,0,0.00403749
0.2,8.4,0,0.003986
0.2,8.5,0,0.00392387
0.2,8.6,0,0.00386058
0.2,8.7,0,0.00380215
0.2,8.8,0,0.00373137
0.2,8.9,0,0.00366267
0.2,9,0,0.00359703
0.2,9.1,0,0.00351893
0.2,9.2,0,0.00344525
0.2,9.3,0,0.00337166
0.2,9.4,0,0.00328818
0.2,9.5,0,0.00320992
0.2,9.6,0,0.00312907
0.2,9.7,0,0.00304102
0.2,9.8,0,0.00295826
0.2,9.9,0,0.00287091
0.2,10,0,0.00277901
0.2,10.1,0,0.00269189
0.2,10.2,0,0.00259882
0.2,10.3,0,0.00250366
0.2,10.4,0,0.00241242
0.2,10.5,0,0.00231444
0.2,10.6,0,0.00221657
0.2,10.7,0,0.00212144
0.2,10.8,0,0.00201937
0.2,10.9,0,0.00191907
0.2,11,0,0.00181992
0.2,11.1,0,0.00171517
0.2,11.2,0,0.00161272
0.2,11.3,0,0.00150997
0.2,11.4,0,0.00140337
0.2,11.5,0,0.00129904
0.2,11.6,0,0.00119347
0.2,11.7,0,0.00108562
0.2,11.8,0,0.000979502
0.2,11.9,0,0.000871851
0.2,12,0,0.000763108
0.2,12.1,0,0.00065553
0.2,12.2,0,0.000546545
0.2,12.3,0,0.000437273
0.2,12.4,0,0.000328563
0.2,12.5,0,0.00021898
0.2,12.6,0,0.000125833
0.2,12.7,0,4.44742e-05
0.3,0,0,2.3255e-05
0.3,0.1,0,0.000108342
0.3,0.2,0,0.000216997
0.3,0.3,0,0.000325104
0.3,0.4,0,0.000433208
0.3,0.5,0,0.000541769
0.3,0.6,0,0.000648601
0.3,0.7,0,0.000756502
0.3,0.8,0,0.00086333
0.3,0.9,0,0.000969627
0.3,1,0,0.00107713
0.3,1.1,0,0.00118119
0.3,1.2,0,0.00128708
0.3,1.3,0,0.00139136
0.3,1.4,0,0.00149457
0.3,1.5,0,0.00159977
0.3,1.6,0,0.00169973
0.3,1.7,0,0.00180234
0.3,1.8,0,0.00190275
0.3,1.9,0,0.00200154
0.3,2,0,0.00210312
0.3,2.1,0,0.00219763
0.3,2.2,0,0.00229559
0.3,2.3,0,0.00239078
0.3,2.4,0,0.00248375
0.3,2.5,0,0.00258034
0.3,2.6,0,0.00266797
0.3,2.7,0,0.00275986
0.3,2.8,0,0.0028484
0.3,2.9,0,0.00293412
0.3,3,0,0.0030242
0.3,3.1,0,0.00310359
0.3,3.2,0,0.00318787
0.3,3.3,0,0.00326831
0.3,3.4,0,0.00334531
0.3,3.5,0,0.00342729
0.3,3.6,0,0.00349706
0.3,3.7,0,0.00357218
0.3,3.8,0,0.00364303
0.3,3.9,0,0.00370989
0.3,4,0,0.0037821
0.3,4.1,0,0.00384095
0.3,4.2,0,0.00390536
0.3,4.3,0,0.00396514
0.3,4.4,0,0.00402048
0.3,4.5,0,0.0040813
0.3,4.6,0,0.00412786
0.3,4.7,0,0.00418012
0.3,4.8,0,0.00422727
0.3,4.9,0,0.00426429
0.3,5,0,0.00429794
0.3,5.1,0,0.00435716
0.3,5.2,0,0.00439364
0.3,5.3,0,0.0044273
0.3,5.4,0,0.0044581
0.3,5.5,0,0.004486
0.3,5.6,0,0.00451096
0.3,5.7,0,0.00453296
0.3,5.8,0,0.00455197
0.3,5.9,0,0.00456797
0.3,6,0,0.00458093
0.3,6.1,0,0.00459084
0.3,6.2,0,0.00459768
0.3,6.3,0,0.00460146
0.3,6.4,0,0.00460216
0.3,6.5,0,0.00459978
0.3,6.6,0,0.00459433
0.3,6.7,0,0.00458581
0.3,6.8,0,0.00457423
0.3,6.9,0,0.00455961
0.3,7,0,0.00453101
0.3,7.1,0,0.00451163
0.3,7.2,0,0.00449205
0.3,7.3,0,0.00447
0.3,7.4,0,0.00443548
0.3,7.5,0,0.00440445
0.3,7.6,0,0.00437156
0.3,7.7,0,0.00432937
0.3,7.8,0,0.00429079
0.3,7.9,0,0.00424766
0.3,8,0,0.00419816
0.3,8.1,0,0.00415238
0.3,8.2,0,0.0040995
0.3,8.3,0,0.00404309
0.3,8.4,0,0.0039905
0.3,8.5,0,0.00392837
0.3,8.6,0,0.00386549
0.3,8.7,0,0.0038065
0.3,8.8,0,0.00373572
0.3,8.9,0,0.00366682
0.3,9,0,0.00360119
0.3,9.1,0,0.00352342
0.3,9.2,0,0.00344917
0.3,9.3,0,0.00337558
0.3,9.4,0,0.00329287
0.3,9.5,0,0.00321356
0.3,9.6,0,0.00313272
0.3,9.7,0,0.00304554
0.3,9.8,0,0.0029616
0.3,9.9,0,0.00287424
0.3,10,0,0.00278305
0.3,10.1,0,0.0026949
0.3,10.2,0,0.00260182
0.3,10.3,0,0.00250704
0.3,10.4,0,0.00241508
0.3,10.5,0,0.00231711
0.3,10.6,0,0.00221914
0.3,10.7,0,0.00212376
0.3,10.8,0,0.00202169
0.3,10.9,0,0.00192104
0.3,11,0,0.00182189
0.3,11.1,0,0.00171735
0.3,11.2,0,0.00161435
0.3,11.3,0,0.0015116
0.3,11.4,0,0.00140532
0.3,11.5,0,0.00130034
0.3,11.6,0,0.00119476
0.3,11.7,0,0.00108708
0.3,11.8,0,0.000980466
0.3,11.9,0,0.000872815
0.3,12,0,0.00076408
0.3,12.1,0,0.000656174
0.3,12.2,0,0.000547188
0.3,12.3,0,0.000437736
0.3,12.4,0,0.000328888
0.3,12.5,0,0.000219305
0.3,12.6,0,0.000109468
0.3,12.7,0,2.66845e-05
0.4,0,0,7.75165e-06
0.4,0.1,0,0.000108569
0.4,0.2,0,0.000217252
0.4,0.3,0,0.000325541
0.4,0.4,0,0.00043389
0.4,0.5,0,0.000542309
0.4,0.6,0,0.000649727
0.4,0.7,0,0.000757437
0.4,0.8,0,0.000864445
0.4,0.9,0,0.000971203
0.4,1,0,0.00107821
0.4,1.1,0,0.00118322
0.4,1.2,0,0.00128871
0.4,1.3,0,0.00139318
0.4,1.4,0,0.00149708
0.4,1.5,0,0.00160141
0.4,1.6,0,0.00170271
0.4,1.7,0,0.00180469
0.4,1.8,0,0.00190529
0.4,1.9,0,0.002005
0.4,2,0,0.00210534
0.4,2.1,0,0.00220158
0.4,2.2,0,0.00229868
0.4,2.3,0,0.00239405
0.4,2.4,0,0.00248818
0.4,2.5,0,0.00258313
0.4,2.6,0,0.00267287
0.4,2.7,0,0.00276366
0.4,2.8,0,0.00285238
0.4,2.9,0,0.00293946
0.4,3,0,0.00302754
0.4,3.1,0,0.00310933
0.4,3.2,0,0.00319232
0.4,3.3,0,0.00327289
0.4,3.4,0,0.00335141
0.4,3.5,0,0.00343109
0.4,3.6,0,0.00350346
0.4,3.7,0,0.00357714
0.4,3.8,0,0.00364808
0.4,3.9,0,0.00371654
0.4,4,0,0.00378624
0.4,4.1,0,0.00384778
0.4,4.2,0,0.00391066
0.4,4.3,0,0.0039705
0.4,4.4,0,0.00402746
0.4,4.5,0,0.00408571
0.4,4.6,0,0.00413503
0.4,4.7,0,0.00418574
0.4,4.8,0,0.00423121
0.4,4.9,0,0.00426728
0.4,5,0,0.00430255
0.4,5.1,0,0.00436176
0.4,5.2,0,0.0043983
0.4,5.3,0,0.00443201
0.4,5.4,0,0.00446285
0.4,5.5,0,0.00449079
0.4,5.6,0,0.00451578
0.4,5.7,0,0.00453781
0.4,5.8,0,0.00455684
0.4,5.9,0,0.00457286
0.4,6,0,0.00458583
0.4,6.1,0,0.00459575
0.4,6.2,0,0.00460261
0.4,6.3,0,0.00460639
0.4,6.4,0,0.00460709
0.4,6.5,0,0.0046047
0.4,6.6,0,0.00459923
0.4,6.7,0,0.00459069
0.4,6.8,0,0.00457908
0.4,6.9,0,0.00456441
0.4,7,0,0.00453589
0.4,7.1,0,0.00451639
0.4,7.2,0,0.00449684
0.4,7.3,0,0.00447488
0.4,7.4,0,0.00444244
0.4,7.5,0,0.00441054
0.4,7.6,0,0.0043763
0.4,7.7,0,0.00433626
0.4,7.8,0,0.00429628
0.4,7.9,0,0.0042528
0.4,8,0,0.00420504
0.4,8.1,0,0.00415728
0.4,8.2,0,0.0041051
0.4,8.3,0,0.00404992
0.4,8.4,0,0.003995
0.4,8.5,0,0.00393439
0.4,8.6,0,0.00387221
0.4,8.7,0,0.00381085
0.4,8.8,0,0.00374207
0.4,8.9,0,0.00367335
0.4,9,0,0.00360534
0.4,9.1,0,0.00352967
0.4,9.2,0,0.00345487
0.4,9.3,0,0.0033795
0.4,9.4,0,0.00329877
0.4,9.5,0,0.00321839
0.4,9.6,0,0.00313645
0.4,9.7,0,0.003051
0.4,9.8,0,0.00296555
0.4,9.9,0,0.00287806
0.4,10,0,0.00278803
0.4,10.1,0,0.00269801
0.4,10.2,0,0.0026056
0.4,10.3,0,0.00251151
0.4,10.4,0,0.00241775
0.4,10.5,0,0.00232073
0.4,10.6,0,0.00222307
0.4,10.7,0,0.00212608
0.4,10.8,0,0.00202507
0.4,10.9,0,0.00192431
0.4,11,0,0.00182386
0.4,11.1,0,0.00172018
0.4,11.2,0,0.00161681
0.4,11.3,0,0.00151323
0.4,11.4,0,0.00140762
0.4,11.5,0,0.00130208
0.4,11.6,0,0.00119612
0.4,11.7,0,0.00108886
0.4,11.8,0,0.000981601
0.4,11.9,0,0.000873891
0.4,12,0,0.000765346
0.4,12.1,0,0.000656817
0.4,12.2,0,0.000547905
0.4,12.3,0,0.000438501
0.4,12.4,0,0.000329213
0.4,12.5,0,0.00021957
0.4,12.6,0,0.000109722
0.4,12.7,0,8.89484e-06
0.5,0,0,0
0.5,0.1,0,0.000108848
0.5,0.2,0,0.000217531
0.5,0.3,0,0.000326356
0.5,0.4,0,0.000434705
0.5,0.5,0,0.000543384
0.5,0.6,0,0.000651073
0.5,0.7,0,0.000758783
0.5,0.8,0,0.00086633
0.5,0.9,0,0.000973088
0.5,1,0,0.00108035
0.5,1.1,0,0.00118566
0.5,1.2,0,0.00129115
0.5,1.3,0,0.00139617
0.5,1.4,0,0.00150007
0.5,1.5,0,0.00160466
0.5,1.6,0,0.00170628
0.5,1.7,0,0.00180825
0.5,1.8,0,0.00190943
0.5,1.9,0,0.00200915
0.5,2,0,0.00210975
0.5,2.1,0,0.0022063
0.5,2.2,0,0.0023034
0.5,2.3,0,0.00239936
0.5,2.4,0,0.00249349
0.5,2.5,0,0.00258874
0.5,2.6,0,0.00267875
0.5,2.7,0,0.00276954
0.5,2.8,0,0.0028588
0.5,2.9,0,0.00294588
0.5,3,0,0.00303436
0.5,3.1,0,0.00311626
0.5,3.2,0,0.00319925
0.5,3.3,0,0.00328029
0.5,3.4,0,0.00335881
0.5,3.5,0,0.00343908
0.5,3.6,0,0.00351126
0.5,3.7,0,0.00358493
0.5,3.8,0,0.00365622
0.5,3.9,0,0.00372468
0.5,4,0,0.00379534
0.5,4.1,0,0.0038562
0.5,4.2,0,0.00391908
0.5,4.3,0,0.00397917
0.5,4.4,0,0.00403613
0.5,4.5,0,0.00409581
0.5,4.6,0,0.00414399
0.5,4.7,0,0.00419469
0.5,4.8,0,0.00424055
0.5,4.9,0,0.00427662
0.5,5,0,0.00431355
0.5,5.1,0,0.00437304
0.5,5.2,0,0.00440975
0.5,5.3,0,0.00444362
0.5,5.4,0,0.0044746
0.5,5.5,0,0.00450266
0.5,5.6,0,0.00452776
0.5,5.7,0,0.0045499
0.5,5.8,0,0.00456901
0.5,5.9,0,0.0045851
0.5,6,0,0.00459814
0.5,6.1,0,0.0046081
0.5,6.2,0,0.00461499
0.5,6.3,0,0.00461878
0.5,6.4,0,0.00461948
0.5,6.5,0,0.00461707
0.5,6.6,0,0.00461157
0.5,6.7,0,0.00460297
0.5,6.8,0,0.00459129
0.5,6.9,0,0.00457653
0.5,7,0,0.00454783
0.5,7.1,0,0.00452637
0.5,7.2,0,0.00450682
0.5,7.3,0,0.00448555
0.5,7.4,0,0.004452
0.5,7.5,0,0.0044201
0.5,7.6,0,0.0043858
0.5,7.7,0,0.00434566
0.5,7.8,0,0.00430568
0.5,7.9,0,0.00426209
0.5,8,0,0.00421433
0.5,8.1,0,0.00416657
0.5,8.2,0,0.00411422
0.5,8.3,0,0.00405904
0.5,8.4,0,0.00400429
0.5,8.5,0,0.00394325
0.5,8.6,0,0.00388108
0.5,8.7,0,0.00382006
0.5,8.8,0,0.0037506
0.5,8.9,0,0.00368187
0.5,9,0,0.003614
0.5,9.1,0,0.00353776
0.5,9.2,0,0.00346297
0.5,9.3,0,0.00338728
0.5,9.4,0,0.00330635
0.5,9.5,0,0.00322597
0.5,9.6,0,0.00314345
0.5,9.7,0,0.003058
0.5,9.8,0,0.00297255
0.5,9.9,0,0.00288441
0.5,10,0,0.00279439
0.5,10.1,0,0.00270436
0.5,10.2,0,0.00261128
0.5,10.3,0,0.00251719
0.5,10.4,0,0.00242329
0.5,10.5,0,0.00232572
0.5,10.6,0,0.00222805
0.5,10.7,0,0.00213073
0.5,10.8,0,0.00202935
0.5,10.9,0,0.00192859
0.5,11,0,0.00182766
0.5,11.1,0,0.00172378
0.5,11.2,0,0.0016204
0.5,11.3,0,0.00151621
0.5,11.4,0,0.00141053
0.5,11.5,0,0.001305
0.5,11.6,0,0.00119837
0.5,11.7,0,0.00109111
0.5,11.8,0,0.000983852
0.5,11.9,0,0.000875497
0.5,12,0,0.000766952
0.5,12.1,0,0.000658406
0.5,12.2,0,0.000548875
0.5,12.3,0,0.000439471
0.5,12.4,0,0.000330011
0.5,12.5,0,0.000219901
0.5,12.6,0,0.000110053
0.5,12.7,0,0
0.6,0,0,0
0.6,0.1,0,0.000109178
0.6,0.2,0,0.000218152
0.6,0.3,0,0.000327225
0.6,0.4,0,0.000435654
0.6,0.5,0,0.000544992
0.6,0.6,0,0.000652641
0.6,0.7,0,0.000760852
0.6,0.8,0,0.000868647
0.6,0.9,0,0.00097528
0.6,1,0,0.00108356
0.6,1.1,0,0.00118849
0.6,1.2,0,0.00129469
0.6,1.3,0,0.00139997
0.6,1.4,0,0.00150355
0.6,1.5,0,0.00160953
0.6,1.6,0,0.00171042
0.6,1.7,0,0.00181334
0.6,1.8,0,0.0019148
0.6,1.9,0,0.00201396
0.6,2,0,0.00211635
0.6,2.1,0,0.0022118
0.6,2.2,0,0.0023101
0.6,2.3,0,0.00240633
0.6,2.4,0,0.00249967
0.6,2.5,0,0.00259716
0.6,2.6,0,0.0026856
0.6,2.7,0,0.00277789
0.6,2.8,0,0.00286741
0.6,2.9,0,0.00295338
0.6,3,0,0.00304465
0.6,3.1,0,0.00312437
0.6,3.2,0,0.00320924
0.6,3.3,0,0.00329051
0.6,3.4,0,0.00336749
0.6,3.5,0,0.00345127
0.6,3.6,0,0.00352045
0.6,3.7,0,0.00359649
0.6,3.8,0,0.00366796
0.6,3.9,0,0.00373432
0.6,4,0,0.00380939
0.6,4.1,0,0.00386622
0.6,4.2,0,0.00393205
0.6,4.3,0,0.00399227
0.6,4.4,0,0.00404648
0.6,4.5,0,0.00411161
0.6,4.6,0,0.00415473
0.6,4.7,0,0.00420897
0.6,4.8,0,0.00425681
0.6,4.9,0,0.00429231
0.6,5,0,0.00433093
0.6,5.1,0,0.00439098
0.6,5.2,0,0.00442798
0.6,5.3,0,0.00446211
0.6,5.4,0,0.00449334
0.6,5.5,0,0.00452162
0.6,5.6,0,0.00454692
0.6,5.7,0,0.00456922
0.6,5.8,0,0.00458849
0.6,5.9,0,0.0046047
0.6,6,0,0.00461784
0.6,6.1,0,0.00462788
0.6,6.2,0,0.00463482
0.6,6.3,0,0.00463863
0.6,6.4,0,0.00463933
0.6,6.5,0,0.00463689
0.6,6.6,0,0.00463134
0.6,6.7,0,0.00462265
0.6,6.8,0,0.00461086
0.6,6.9,0,0.00459596
0.6,7,0,0.00456684
0.6,7.1,0,0.00454157
0.6,7.2,0,0.00452252
0.6,7.3,0,0.00450396
0.6,7.4,0,0.00446417
0.6,7.5,0,0.00443448
0.6,7.6,0,0.00440356
0.6,7.7,0,0.00435757
0.6,7.8,0,0.00432084
0.6,7.9,0,0.00427802
0.6,8,0,0.00422603
0.6,8.1,0,0.00418223
0.6,8.2,0,0.0041283
0.6,8.3,0,0.00407045
0.6,8.4,0,0.00401965
0.6,8.5,0,0.00395564
0.6,8.6,0,0.00389209
0.6,8.7,0,0.00383446
0.6,8.8,0,0.00376143
0.6,8.9,0,0.0036924
0.6,9,0,0.00362738
0.6,9.1,0,0.0035477
0.6,9.2,0,0.00347347
0.6,9.3,0,0.00339959
0.6,9.4,0,0.00331561
0.6,9.5,0,0.00323616
0.6,9.6,0,0.00315452
0.6,9.7,0,0.00306652
0.6,9.8,0,0.0029822
0.6,9.9,0,0.00289383
0.6,10,0,0.00280211
0.6,10.1,0,0.00271331
0.6,10.2,0,0.00261917
0.6,10.3,0,0.00252407
0.6,10.4,0,0.00243121
0.6,10.5,0,0.0023322
0.6,10.6,0,0.00223409
0.6,10.7,0,0.00213759
0.6,10.8,0,0.00203454
0.6,10.9,0,0.00193383
0.6,11,0,0.00183348
0.6,11.1,0,0.00172813
0.6,11.2,0,0.00162489
0.6,11.3,0,0.00152101
0.6,11.4,0,0.00141406
0.6,11.5,0,0.00130868
0.6,11.6,0,0.00120204
0.6,11.7,0,0.00109384
0.6,11.8,0,0.000986678
0.6,11.9,0,0.000878015
0.6,12,0,0.000768898
0.6,12.1,0,0.000660312
0.6,12.2,0,0.000550337
0.6,12.3,0,0.000440644
0.6,12.4,0,0.000330974
0.6,12.5,0,0.000220397
0.6,12.6,0,0.00011046
0.6,12.7,0,0
0.7,0,0,0
0.7,0.1,0,0.000109278
0.7,0.2,0,0.000218966
0.7,0.3,0,0.000328039
0.7,0.4,0,0.000437065
0.7,0.5,0,0.0005466
0.7,0.6,0,0.000654238
0.7,0.7,0,0.000763254
0.7,0.8,0,0.000871049
0.7,0.9,0,0.000978182
0.7,1,0,0.00108677
0.7,1.1,0,0.00119158
0.7,1.2,0,0.00129872
0.7,1.3,0,0.001404
0.7,1.4,0,0.001508
0.7,1.5,0,0.00161439
0.7,1.6,0,0.00171507
0.7,1.7,0,0.00181907
0.7,1.8,0,0.00192052
0.7,1.9,0,0.00202003
0.7,2,0,0.00212296
0.7,2.1,0,0.00221807
0.7,2.2,0,0.00231761
0.7,2.3,0,0.00241383
0.7,2.4,0,0.00250742
0.7,2.5,0,0.00260558
0.7,2.6,0,0.00269355
0.7,2.7,0,0.00278725
0.7,2.8,0,0.00287677
0.7,2.9,0,0.00296284
0.7,3,0,0.00305495
0.7,3.1,0,0.00313402
0.7,3.2,0,0.00322049
0.7,3.3,0,0.00330176
0.7,3.4,0,0.00337864
0.7,3.5,0,0.00346347
0.7,3.6,0,0.00353175
0.7,3.7,0,0.00360962
0.7,3.8,0,0.00368109
0.7,3.9,0,0.00374705
0.7,4,0,0.00382343
0.7,4.1,0,0.00387906
0.7,4.2,0,0.003947
0.7,4.3,0,0.00400722
0.7,4.4,0,0.00406065
0.7,4.5,0,0.00412741
0.7,4.6,0,0.00416901
0.7,4.7,0,0.00422562
0.7,4.8,0,0.00427345
0.7,4.9,0,0.00430918
0.7,5,0,0.00434832
0.7,5.1,0,0.00440893
0.7,5.2,0,0.00444621
0.7,5.3,0,0.00448061
0.7,5.4,0,0.00451208
0.7,5.5,0,0.00454058
0.7,5.6,0,0.00456608
0.7,5.7,0,0.00458855
0.7,5.8,0,0.00460797
0.7,5.9,0,0.00462431
0.7,6,0,0.00463754
0.7,6.1,0,0.00464766
0.7,6.2,0,0.00465465
0.7,6.3,0,0.00465849
0.7,6.4,0,0.00465918
0.7,6.5,0,0.00465672
0.7,6.6,0,0.00465111
0.7,6.7,0,0.00464234
0.7,6.8,0,0.00463043
0.7,6.9,0,0.00461539
0.7,7,0,0.00458585
0.7,7.1,0,0.00456027
0.7,7.2,0,0.00454094
0.7,7.3,0,0.00452238
0.7,7.4,0,0.00448062
0.7,7.5,0,0.00445225
0.7,7.6,0,0.00442133
0.7,7.7,0,0.00437238
0.7,7.8,0,0.0043379
0.7,7.9,0,0.00429507
0.7,8,0,0.00424018
0.7,8.1,0,0.00419848
0.7,8.2,0,0.00414456
0.7,8.3,0,0.00408394
0.7,8.4,0,0.00403501
0.7,8.5,0,0.003971
0.7,8.6,0,0.00390569
0.7,8.7,0,0.00384886
0.7,8.8,0,0.00377583
0.7,8.9,0,0.00370578
0.7,9,0,0.00364075
0.7,9.1,0,0.00356053
0.7,9.2,0,0.00348578
0.7,9.3,0,0.0034119
0.7,9.4,0,0.00332672
0.7,9.5,0,0.00324738
0.7,9.6,0,0.00316574
0.7,9.7,0,0.00307624
0.7,9.8,0,0.00299232
0.7,9.9,0,0.00290395
0.7,10,0,0.00281062
0.7,10.1,0,0.00272233
0.7,10.2,0,0.00262819
0.7,10.3,0,0.00253159
0.7,10.4,0,0.00243914
0.7,10.5,0,0.00234013
0.7,10.6,0,0.00224082
0.7,10.7,0,0.00214445
0.7,10.8,0,0.0020414
0.7,10.9,0,0.00193965
0.7,11,0,0.0018393
0.7,11.1,0,0.0017336
0.7,11.2,0,0.0016297
0.7,11.3,0,0.00152582
0.7,11.4,0,0.00141826
0.7,11.5,0,0.0013125
0.7,11.6,0,0.00120586
0.7,11.7,0,0.00109691
0.7,11.8,0,0.000989531
0.7,11.9,0,0.000880867
0.7,12,0,0.000770873
0.7,12.1,0,0.000662217
0.7,12.2,0,0.000552243
0.7,12.3,0,0.000441674
0.7,12.4,0,0.000331937
0.7,12.5,0,0.00022136
0.7,12.6,0,0.000110493
0.7,12.7,0,0
0.8,0,0,0
0.8,0.1,0,0.000109665
0.8,0.2,0,0.00021978
0.8,0.3,0,0.000328853
0.8,0.4,0,0.000438565
0.8,0.5,0,0.000548208
0.8,0.6,0,0.000656513
0.8,0.7,0,0.000765656
0.8,0.8,0,0.000873451
0.8,0.9,0,0.000981557
0.8,1,0,0.00108997
0.8,1.1,0,0.00119574
0.8,1.2,0,0.00130275
0.8,1.3,0,0.00140803
0.8,1.4,0,0.0015133
0.8,1.5,0,0.00161926
0.8,1.6,0,0.0017212
0.8,1.7,0,0.00182479
0.8,1.8,0,0.00192624
0.8,1.9,0,0.00202736
0.8,2,0,0.00212956
0.8,2.1,0,0.00222628
0.8,2.2,0,0.00232511
0.8,2.3,0,0.00242134
0.8,2.4,0,0.00251689
0.8,2.5,0,0.002614
0.8,2.6,0,0.00270397
0.8,2.7,0,0.0027966
0.8,2.8,0,0.00288612
0.8,2.9,0,0.00297462
0.8,3,0,0.00306525
0.8,3.1,0,0.00314682
0.8,3.2,0,0.00323173
0.8,3.3,0,0.003313
0.8,3.4,0,0.00339288
0.8,3.5,0,0.00347566
0.8,3.6,0,0.00354709
0.8,3.7,0,0.00362275
0.8,3.8,0,0.00369422
0.8,3.9,0,0.00376389
0.8,4,0,0.00383748
0.8,4.1,0,0.00389705
0.8,4.2,0,0.00396194
0.8,4.3,0,0.00402216
0.8,4.4,0,0.00408012
0.8,4.5,0,0.00414321
0.8,4.6,0,0.00418953
0.8,4.7,0,0.00424226
0.8,4.8,0,0.0042901
0.8,4.9,0,0.00432734
0.8,5,0,0.00436571
0.8,5.1,0,0.00442687
0.8,5.2,0,0.00446444
0.8,5.3,0,0.00449911
0.8,5.4,0,0.00453081
0.8,5.5,0,0.00455954
0.8,5.6,0,0.00458523
0.8,5.7,0,0.00460788
0.8,5.8,0,0.00462745
0.8,5.9,0,0.00464391
0.8,6,0,0.00465725
0.8,6.1,0,0.00466744
0.8,6.2,0,0.00467448
0.8,6.3,0,0.00467834
0.8,6.4,0,0.00467903
0.8,6.5,0,0.00467654
0.8,6.6,0,0.00467087
0.8,6.7,0,0.00466202
0.8,6.8,0,0.00465
0.8,6.9,0,0.00463481
0.8,7,0,0.00460487
0.8,7.1,0,0.00458115
0.8,7.2,0,0.00456066
0.8,7.3,0,0.00454079
0.8,7.4,0,0.0045036
0.8,7.5,0,0.00447067
0.8,7.6,0,0.00443909
0.8,7.7,0,0.00439528
0.8,7.8,0,0.00435495
0.8,7.9,0,0.00431213
0.8,8,0,0.00426179
0.8,8.1,0,0.00421473
0.8,8.2,0,0.00416081
0.8,8.3,0,0.00410402
0.8,8.4,0,0.00405037
0.8,8.5,0,0.00398699
0.8,8.6,0,0.00392329
0.8,8.7,0,0.00386326
0.8,8.8,0,0.00379142
0.8,8.9,0,0.00372109
0.8,9,0,0.00365413
0.8,9.1,0,0.00357547
0.8,9.2,0,0.00349899
0.8,9.3,0,0.00342421
0.8,9.4,0,0.00334078
0.8,9.5,0,0.00325868
0.8,9.6,0,0.00317696
0.8,9.7,0,0.00308906
0.8,9.8,0,0.00300243
0.8,9.9,0,0.00291406
0.8,10,0,0.00282203
0.8,10.1,0,0.00273134
0.8,10.2,0,0.00263723
0.8,10.3,0,0.00254142
0.8,10.4,0,0.00244707
0.8,10.5,0,0.00234827
0.8,10.6,0,0.00224892
0.8,10.7,0,0.00215131
0.8,10.8,0,0.00204858
0.8,10.9,0,0.00194618
0.8,11,0,0.00184512
0.8,11.1,0,0.00173976
0.8,11.2,0,0.00163478
0.8,11.3,0,0.00153063
0.8,11.4,0,0.00142335
0.8,11.5,0,0.00131632
0.8,11.6,0,0.00120968
0.8,11.7,0,0.00110085
0.8,11.8,0,0.000992383
0.8,11.9,0,0.000883719
0.8,12,0,0.000773685
0.8,12.1,0,0.000664123
0.8,12.2,0,0.000554127
0.8,12.3,0,0.000443234
0.8,12.4,0,0.000332901
0.8,12.5,0,0.000222184
0.8,12.6,0,0.000110814
0.8,12.7,0,0
0.9,0,0,0
0.9,0.1,0,0.000110149
0.9,0.2,0,0.000220297
0.9,0.3,0,0.000330261
0.9,0.4,0,0.000440039
0.9,0.5,0,0.000549816
0.9,0.6,0,0.000658955
0.9,0.7,0,0.000768094
0.9,0.8,0,0.000876767
0.9,0.9,0,0.000984974
0.9,1,0,0.00109318
0.9,1.1,0,0.00120015
0.9,1.2,0,0.00130712
0.9,1.3,0,0.0014133
0.9,1.4,0,0.00151871
0.9,1.5,0,0.00162412
0.9,1.6,0,0.00172764
0.9,1.7,0,0.00183117
0.9,1.8,0,0.00193357
0.9,1.9,0,0.00203487
0.9,2,0,0.00213616
0.9,2.1,0,0.00223488
0.9,2.2,0,0.0023336
0.9,2.3,0,0.00243085
0.9,2.4,0,0.00252664
0.9,2.5,0,0.00262242
0.9,2.6,0,0.00271489
0.9,2.7,0,0.00280736
0.9,2.8,0,0.00289799
0.9,2.9,0,0.00298677
0.9,3,0,0.00307554
0.9,3.1,0,0.00316024
0.9,3.2,0,0.00324494
0.9,3.3,0,0.0033274
0.9,3.4,0,0.00340763
0.9,3.5,0,0.00348785
0.9,3.6,0,0.00356321
0.9,3.7,0,0.00363857
0.9,3.8,0,0.00371131
0.9,3.9,0,0.00378142
0.9,4,0,0.00385153
0.9,4.1,0,0.00391602
0.9,4.2,0,0.0039805
0.9,4.3,0,0.004042
0.9,4.4,0,0.0041005
0.9,4.5,0,0.004159
0.9,4.6,0,0.00421123
0.9,4.7,0,0.00426346
0.9,4.8,0,0.00430828
0.9,4.9,0,0.00434569
0.9,5,0,0.0043831
0.9,5.1,0,0.00444482
0.9,5.2,0,0.00448268
0.9,5.3,0,0.0045176
0.9,5.4,0,0.00454955
0.9,5.5,0,0.0045785
0.9,5.6,0,0.00460439
0.9,5.7,0,0.00462721
0.9,5.8,0,0.00464692
0.9,5.9,0,0.00466351
0.9,6,0,0.00467695
0.9,6.1,0,0.00468722
0.9,6.2,0,0.00469431
0.9,6.3,0,0.0046982
0.9,6.4,0,0.00469889
0.9,6.5,0,0.00469636
0.9,6.6,0,0.00469064
0.9,6.7,0,0.0046817
0.9,6.8,0,0.00466957
0.9,6.9,0,0.00465424
0.9,7,0,0.00462388
0.9,7.1,0,0.00460338
0.9,7.2,0,0.00458289
0.9,7.3,0,0.00456053
0.9,7.4,0,0.0045276
0.9,7.5,0,0.00449468
0.9,7.6,0,0.0044593
0.9,7.7,0,0.00441819
0.9,7.8,0,0.00437709
0.9,7.9,0,0.00433242
0.9,8,0,0.0042834
0.9,8.1,0,0.00423437
0.9,8.2,0,0.00418081
0.9,8.3,0,0.00412423
0.9,8.4,0,0.00406765
0.9,8.5,0,0.00400573
0.9,8.6,0,0.00394204
0.9,8.7,0,0.00387834
0.9,8.8,0,0.00380867
0.9,8.9,0,0.00373833
0.9,9,0,0.00366769
0.9,9.1,0,0.00359121
0.9,9.2,0,0.00351474
0.9,9.3,0,0.00343714
0.9,9.4,0,0.00335504
0.9,9.5,0,0.00327294
0.9,9.6,0,0.00318906
0.9,9.7,0,0.00310187
0.9,9.8,0,0.00301468
0.9,9.9,0,0.0029252
0.9,10,0,0.00283344
0.9,10.1,0,0.00274168
0.9,10.2,0,0.00264729
0.9,10.3,0,0.00255148
0.9,10.4,0,0.00245567
0.9,10.5,0,0.00235703
0.9,10.6,0,0.00225767
0.9,10.7,0,0.00215832
0.9,10.8,0,0.00205607
0.9,10.9,0,0.00195367
0.9,11,0,0.00185101
0.9,11.1,0,0.00174603
0.9,11.2,0,0.00164105
0.9,11.3,0,0.00153554
0.9,11.4,0,0.00142844
0.9,11.5,0,0.00132135
0.9,11.6,0,0.00121357
0.9,11.7,0,0.00110479
0.9,11.8,0,0.00099601
0.9,11.9,0,0.000886537
0.9,12,0,0.000776497
0.9,12.1,0,0.000666458
0.9,12.2,0,0.000555821
0.9,12.3,0,0.000444929
0.9,12.4,0,0.000334037
0.9,12.5,0,0.000222739
0.9,12.6,0,0.00011137
0.9,12.7,0,0
1,0,0,0
1,0.1,0,0.000110769
1,0.2,0,0.000220992
1,0.3,0,0.000331972
1,0.4,0,0.000441788
1,0.5,0,0.00055252
1,0.6,0,0.000661832
1,0.7,0,0.000771087
1,0.8,0,0.000880787
1,0.9,0,0.000988992
1,1,0,0.00109859
1,1.1,0,0.00120533
1,1.2,0,0.00131246
1,1.3,0,0.00141972
1,1.4,0,0.00152508
1,1.5,0,0.00163235
1,1.6,0,0.00173523
1,1.7,0,0.00183897
1,1.8,0,0.0019425
1,1.9,0,0.00204371
1,2,0,0.00214737
1,2.1,0,0.00224502
1,2.2,0,0.002344
1,2.3,0,0.00244246
1,2.4,0,0.00253811
1,2.5,0,0.00263679
1,2.6,0,0.00272776
1,2.7,0,0.00282054
1,2.8,0,0.00291246
1,2.9,0,0.00300107
1,3,0,0.00309322
1,3.1,0,0.00317604
1,3.2,0,0.0032611
1,3.3,0,0.00334495
1,3.4,0,0.00342497
1,3.5,0,0.00350892
1,3.6,0,0.00358215
1,3.7,0,0.00365789
1,3.8,0,0.00373209
1,3.9,0,0.00380198
1,4,0,0.00387592
1,4.1,0,0.00393821
1,4.2,0,0.00400308
1,4.3,0,0.00406602
1,4.4,0,0.0041243
1,4.5,0,0.00418646
1,4.6,0,0.00423649
1,4.7,0,0.00428907
1,4.8,0,0.00433928
1,4.9,0,0.00437694
1,5,0,0.00441274
1,5.1,0,0.00447499
1,5.2,0,0.00451322
1,5.3,0,0.0045485
1,5.4,0,0.00458078
1,5.5,0,0.00461003
1,5.6,0,0.0046362
1,5.7,0,0.00465927
1,5.8,0,0.00467922
1,5.9,0,0.004696
1,6,0,0.00470961
1,6.1,0,0.00472002
1,6.2,0,0.00472721
1,6.3,0,0.00473118
1,6.4,0,0.00473191
1,6.5,0,0.0047294
1,6.6,0,0.00472366
1,6.7,0,0.00471468
1,6.8,0,0.00470247
1,6.9,0,0.00468704
1,7,0,0.00465656
1,7.1,0,0.00463613
1,7.2,0,0.00461564
1,7.3,0,0.00459207
1,7.4,0,0.00455684
1,7.5,0,0.00452392
1,7.6,0,0.00448904
1,7.7,0,0.00444623
1,7.8,0,0.00440539
1,7.9,0,0.00435996
1,8,0,0.00430992
1,8.1,0,0.00426163
1,8.2,0,0.00420586
1,8.3,0,0.00414909
1,8.4,0,0.00409372
1,8.5,0,0.00402884
1,8.6,0,0.00396514
1,8.7,0,0.0039031
1,8.8,0,0.00382997
1,8.9,0,0.00375963
1,9,0,0.00369057
1,9.1,0,0.00361068
1,9.2,0,0.00353421
1,9.3,0,0.00345723
1,9.4,0,0.00337269
1,9.5,0,0.0032906
1,9.6,0,0.00320644
1,9.7,0,0.00311774
1,9.8,0,0.00303085
1,9.9,0,0.00294
1,10,0,0.00284758
1,10.1,0,0.00275636
1,10.2,0,0.00265975
1,10.3,0,0.00256394
1,10.4,0,0.00246881
1,10.5,0,0.00236786
1,10.6,0,0.00226851
1,10.7,0,0.00216987
1,10.8,0,0.00206535
1,10.9,0,0.00196295
1,11,0,0.00186051
1,11.1,0,0.0017538
1,11.2,0,0.00164882
1,11.3,0,0.00154293
1,11.4,0,0.00143474
1,11.5,0,0.00132765
1,11.6,0,0.00121901
1,11.7,0,0.00110966
1,11.8,0,0.00100086
1,11.9,0,0.000890188
1,12,0,0.000779976
1,12.1,0,0.000669787
1,12.2,0,0.00055793
1,12.3,0,0.000447038
1,12.4,0,0.000335766
1,12.5,0,0.000223486
1,12.6,0,0.000112116
1,12.7,0,0
1.1,0,0,0
1.1,0.1,0,0.000111265
1.1,0.2,0,0.000222358
1.1,0.3,0,0.000333338
1.1,0.4,0,0.000443728
1.1,0.5,0,0.000555223
1.1,0.6,0,0.000664674
1.1,0.7,0,0.000775132
1.1,0.8,0,0.000884832
1.1,0.9,0,0.000993287
1.1,1,0,0.001104
1.1,1.1,0,0.00121056
1.1,1.2,0,0.00131926
1.1,1.3,0,0.00142652
1.1,1.4,0,0.00153182
1.1,1.5,0,0.00164058
1.1,1.6,0,0.00174295
1.1,1.7,0,0.00184866
1.1,1.8,0,0.0019522
1.1,1.9,0,0.00205303
1.1,2,0,0.00215858
1.1,2.1,0,0.00225537
1.1,2.2,0,0.00235677
1.1,2.3,0,0.00245522
1.1,2.4,0,0.00255017
1.1,2.5,0,0.00265115
1.1,2.6,0,0.00274093
1.1,2.7,0,0.00283655
1.1,2.8,0,0.00292847
1.1,2.9,0,0.00301605
1.1,3,0,0.0031109
1.1,3.1,0,0.00319222
1.1,3.2,0,0.00328047
1.1,3.3,0,0.00336432
1.1,3.4,0,0.00344306
1.1,3.5,0,0.00352998
1.1,3.6,0,0.00360151
1.1,3.7,0,0.00368064
1.1,3.8,0,0.00375483
1.1,3.9,0,0.0038233
1.1,4,0,0.00390032
1.1,4.1,0,0.00396085
1.1,4.2,0,0.00402905
1.1,4.3,0,0.00409199
1.1,4.4,0,0.00414884
1.1,4.5,0,0.00421391
1.1,4.6,0,0.00426219
1.1,4.7,0,0.00431784