/*--------------------------------*- C++ -*----------------------------------*\
| =========                 |                                                 |
| \\      /  F ield         | OpenFOAM: The Open Source CFD Toolbox           |
|  \\    /   O peration     | Version:  v1806                                 |
|   \\  /    A nd           | Web:      www.OpenFOAM.com                      |
|    \\/     M anipulation  |                                                 |
\*---------------------------------------------------------------------------*/
FoamFile
{
    version     2.0;
    format      ascii;
    class       surfaceScalarField;
    location    "370";
    object      phi;
}
// * * * * * * * * * * * * * * * * * * * * * * * * * * * * * * * * * * * * * //

dimensions      [0 3 -1 0 0 0 0];
oriented        oriented;


internalField   nonuniform List<scalar> 
4680
(
0.0749994
-0.000271062
0.0749973
-0.000819014
0.0749932
-0.00137189
0.0749872
-0.00194497
0.0749785
-0.00253464
0.0749677
-0.00315815
0.0749537
-0.00380742
0.074938
-0.00450095
0.0749194
-0.00522511
0.0749004
-0.00599676
0.0748801
-0.00679523
0.0748623
-0.00763008
0.0748474
-0.00847175
0.0748401
-0.00931502
0.0748427
-0.0101195
0.0748605
-0.0108604
0.0748965
-0.0114858
0.0749534
-0.0119573
0.0750289
-0.0122161
-0.0122406
0.0751424
0.0749983
-0.000269349
0.0749938
-0.000814538
0.0749856
-0.00136366
0.0749747
-0.00193409
0.0749596
-0.00251953
0.0749423
-0.00314082
0.0749206
-0.00378571
0.0748979
-0.00447829
0.0748717
-0.00519894
0.0748475
-0.0059725
0.0748228
-0.00677053
0.0748053
-0.00761267
0.0747942
-0.00846065
0.0747989
-0.00931965
0.0748207
-0.0101412
0.0748682
-0.0109079
0.0749439
-0.0115616
0.0750518
-0.0120651
0.0751912
-0.0123555
-0.0124043
0.0753549
0.0749972
-0.000266514
0.0749899
-0.00080726
0.0749766
-0.00135039
0.0749595
-0.00191694
0.0749359
-0.00249598
0.0749097
-0.00311459
0.074877
-0.00375308
0.0748443
-0.0044455
0.0748065
-0.00516118
0.0747736
-0.00593958
0.0747403
-0.00673726
0.0747206
-0.00759293
0.0747104
-0.0084505
0.0747265
-0.00933575
0.074768
-0.0101827
0.0748497
-0.0109896
0.0749726
-0.0116845
0.0751428
-0.0122353
0.0753548
-0.0125676
-0.0126465
0.0755971
0.074996
-0.000262558
0.0749859
-0.000797128
0.0749674
-0.00133186
0.0749436
-0.00189318
0.0749109
-0.0024633
0.0748749
-0.00307859
0.07483
-0.00370812
0.0747856
-0.00440114
0.074734
-0.00510953
0.0746904
-0.00589601
0.0746452
-0.00669211
0.0746208
-0.0075685
0.0746075
-0.00843725
0.074633
-0.00936121
0.0746908
-0.0102405
0.0748061
-0.011105
0.0749764
-0.0118547
0.0752117
-0.0124706
0.0755032
-0.0128591
-0.0129808
0.0758375
0.0749949
-0.000257478
0.0749819
-0.000784119
0.074958
-0.00130797
0.0749275
-0.00186266
0.0748853
-0.00242112
0.0748392
-0.00303246
0.074781
-0.00364989
0.0747243
-0.00434442
0.0746568
-0.0050421
0.0746012
-0.0058404
0.0745408
-0.00663173
0.0745097
-0.00753739
0.0744884
-0.00841597
0.0745212
-0.00939394
0.0745899
-0.0103092
0.0747381
-0.0112532
0.0749536
-0.0120702
0.075257
-0.0127741
0.0756344
-0.0132364
-0.0134146
0.0760682
0.0749938
-0.000251275
0.0749779
-0.000768194
0.0749486
-0.00127865
0.0749112
-0.00182528
0.0748592
-0.00236914
0.0748026
-0.00297589
0.0747303
-0.00357758
0.0746605
-0.00427463
0.0745754
-0.00495694
0.0745064
-0.00577146
0.0744271
-0.00655236
0.0743874
-0.00749772
0.0743519
-0.00838047
0.07439
-0.009432
0.0744621
-0.0103814
0.0746429
-0.011434
0.0748994
-0.0123266
0.0752754
-0.0131502
0.0757451
-0.0137061
-0.0139583
0.0762889
0.0749927
-0.00024397
0.0749738
-0.000749292
0.074939
-0.00124386
0.0748946
-0.0017809
0.0748326
-0.0023071
0.0747652
-0.00290851
0.074678
-0.00349034
0.0745943
-0.00419097
0.0744894
-0.00485202
0.0744056
-0.00568773
0.0743029
-0.00644965
0.0742526
-0.00744737
0.0741951
-0.00832303
0.0742367
-0.00947359
0.0743015
-0.0104462
0.0745161
-0.0116486
0.0748057
-0.0126163
0.0752616
-0.013606
0.0758306
-0.014275
-0.0146267
0.0764989
0.0749916
-0.000235605
0.0749697
-0.000727319
0.0749294
-0.00120358
0.0748778
-0.00172929
0.0748055
-0.00223484
0.0747268
-0.00282984
0.074624
-0.00338747
0.0745254
-0.00409242
0.0743987
-0.00472529
0.0742983
-0.00558732
0.0741675
-0.00631891
0.0741039
-0.00738369
0.0740153
-0.00823442
0.0740584
-0.00951673
0.0741013
-0.0104891
0.0743522
-0.0118994
0.0746611
-0.0129252
0.0752091
-0.0141539
0.0758829
-0.0149489
-0.0154398
0.076696
0.0749907
-0.000226256
0.0749655
-0.000702146
0.0749198
-0.00115792
0.0748607
-0.00167018
0.0747782
-0.00215232
0.0746876
-0.00273922
0.0745686
-0.00326845
0.0744538
-0.00397761
0.0743034
-0.00457496
0.0741839
-0.00546776
0.0740204
-0.00615542
0.0739398
-0.00730308
0.0738097
-0.00810434
0.0738515
-0.00955858
0.073854
-0.0104916
0.0741454
-0.0121908
0.0744507
-0.0132305
0.0751105
-0.0148137
0.075889
-0.0157274
-0.016427
0.0768762
0.0749898
-0.000216029
0.0749612
-0.000673605
0.0749104
-0.00110706
0.0748434
-0.00160322
0.0747508
-0.00205974
0.0746474
-0.00263584
0.0745122
-0.00313318
0.0743793
-0.00384474
0.0742042
-0.00439986
0.074062
-0.0053256
0.0738618
-0.00595515
0.0737588
-0.00720014
0.0735769
-0.00792239
0.0736123
-0.00959401
0.0735525
-0.0104318
0.0738885
-0.0125269
0.0741562
-0.0134981
0.0749575
-0.015615
0.0758253
-0.0165953
-0.0176359
0.0770343
0.074989
-0.000205057
0.0749569
-0.000641506
0.0749012
-0.0010513
0.0748259
-0.00152799
0.0747237
-0.00195754
0.0746066
-0.00251865
0.0744554
-0.00298207
0.0743022
-0.00369146
0.0741021
-0.00419976
0.0739326
-0.0051561
0.073693
-0.00571559
0.0735596
-0.00706675
0.073317
-0.00767976
0.0733362
-0.0096132
0.0731909
-0.0102865
0.0735723
-0.0129082
0.0737576
-0.0136834
0.0747395
-0.016597
0.0756585
-0.0175143
-0.019143
0.0771656
0.0749884
-0.000193479
0.0749526
-0.000605666
0.0748923
-0.000991054
0.0748084
-0.00144408
0.0746973
-0.00184641
0.0745651
-0.00238651
0.0743992
-0.00281612
0.0742226
-0.00351491
0.0739986
-0.00397574
0.0737954
-0.00495287
0.0735166
-0.00543675
0.0733405
-0.0068907
0.0730323
-0.00737157
0.0730175
-0.00959835
0.0727668
-0.0100359
0.073184
-0.0133254
0.0732343
-0.0137337
0.0744419
-0.0178046
0.0753452
-0.0184176
-0.0210669
0.0772691
0.0749879
-0.00018141
0.0749482
-0.000565972
0.0748839
-0.00092674
0.074791
-0.00135116
0.0746718
-0.0017272
0.0745236
-0.00223833
0.0743443
-0.00263681
0.0741413
-0.00331194
0.0738958
-0.00373022
0.073651
-0.00470802
0.073336
-0.00512181
0.0731
-0.00665467
0.0727279
-0.00699951
0.0726486
-0.00951906
0.0722826
-0.00966987
0.0727057
-0.0137484
0.0725678
-0.0135958
0.0740441
-0.0192809
0.0748308
-0.0192044
-0.0235885
0.0773524
0.0749875
-0.000168907
0.074944
-0.000522449
0.074876
-0.000858739
0.074774
-0.0012492
0.0746475
-0.00160071
0.0744826
-0.00207341
0.0742916
-0.00244578
0.0740594
-0.00307978
0.0737956
-0.00346642
0.0735007
-0.00441306
0.0731558
-0.0047769
0.0728375
-0.00633641
0.0724116
-0.00657356
0.0722199
-0.00932745
0.071748
-0.00919791
0.0721094
-0.0141099
0.0717489
-0.0132353
0.0735159
-0.0210478
0.0740343
-0.0197228
-0.0269973
0.0774431
0.074987
-0.000155939
0.0749399
-0.000475321
0.0748685
-0.000787284
0.0747578
-0.00113859
0.0746246
-0.00146748
0.0744431
-0.00189193
0.0742415
-0.00224416
0.0739789
-0.00281717
0.0736997
-0.00318718
0.0733478
-0.00406124
0.07298
-0.00440904
0.0725556
-0.005912
0.0720919
-0.00610995
0.0717215
-0.00895704
0.0711783
-0.0086547
0.0713493
-0.0142808
0.0707926
-0.0126787
0.0727931
-0.0230483
0.0728368
-0.0197665
-0.0318124
0.0776519
0.0749865
-0.000142394
0.0749362
-0.000425022
0.0748613
-0.000712455
0.074743
-0.00102022
0.0746031
-0.00132763
0.0744064
-0.00169523
0.0741943
-0.0020321
0.0739027
-0.00252548
0.0736084
-0.00289292
0.0731987
-0.00365152
0.0728112
-0.00402155
0.0722648
-0.00536564
0.0717772
-0.00562233
0.0711521
-0.00833195
0.070586
-0.00808861
0.0703601
-0.0140549
0.0697435
-0.0120621
0.0717032
-0.025008
0.0711268
-0.0191901
-0.0390269
0.0783413
0.0749857
-0.000128118
0.0749328
-0.000372124
0.0748546
-0.000634263
0.0747298
-0.000895365
0.0745832
-0.00118107
0.0743736
-0.00148563
0.0741504
-0.0018089
0.0738338
-0.00220881
0.0735221
-0.00258124
0.073061
-0.0031904
0.0726478
-0.00360835
0.0719858
-0.00470364
0.0714686
-0.00510513
0.0705552
-0.00741858
0.0699775
-0.00751093
0.0690693
-0.0131466
0.068628
-0.0116208
0.0698833
-0.0262634
0.0689969
-0.0183037
-0.0501163
0.0800862
0.0749848
-0.000112951
0.07493
-0.00031729
0.0748485
-0.000552744
0.0747186
-0.000765516
0.0745653
-0.0010277
0.0743457
-0.00126606
0.0741105
-0.00157373
0.0737747
-0.00187295
0.073442
-0.00224859
0.0729417
-0.00269007
0.0724903
-0.00315701
0.0717389
-0.00395215
0.071152
-0.00451823
0.0700021
-0.00626871
0.0693364
-0.0068453
0.0676669
-0.011477
0.0673331
-0.0112871
0.0669451
-0.0258753
0.067009
-0.0183676
-0.0654556
0.0823483
0.0749837
-9.66858e-05
0.0749278
-0.000261331
0.074843
-0.000467939
0.0747098
-0.00063234
0.0745496
-0.000867543
0.0743233
-0.00103968
0.0740759
-0.00132634
0.0737268
-0.00152391
0.0733714
-0.00189316
0.0728444
-0.00216311
0.0723461
-0.00265866
0.0715362
-0.00314224
0.0708383
-0.00382037
0.0695375
-0.00496794
0.0685912
-0.00589892
0.0664178
-0.00930367
0.0656498
-0.0105192
0.0627089
-0.0229343
0.065931
-0.0215898
-0.0799011
0.0803766
0.0749821
-7.87863e-05
0.0749267
-0.00020593
0.0748377
-0.000378925
0.074704
-0.000498651
0.0745356
-0.000699151
0.0743078
-0.000811848
0.0740456
-0.00106413
0.0736928
-0.00117115
0.0733103
-0.00151067
0.0727729
-0.00162572
0.0722217
-0.00210739
0.0713805
-0.00230108
0.0705612
-0.00300106
0.0691656
-0.00357238
0.0678503
-0.00458361
0.0653431
-0.00679642
0.0631948
-0.00837093
0.0586236
-0.0183631
0.0617189
-0.0246851
0.063645
-0.0818272
0.0751731
-0.00268593
0.0751976
-0.00266706
0.0752238
-0.0026481
0.0752506
-0.00262596
0.075278
-0.00260094
0.0753058
-0.00257315
0.075334
-0.00254262
0.0753624
-0.00250942
0.0753908
-0.00247351
-0.0024351
0.0754179
0.0753905
-0.00272154
0.0754292
-0.00270574
0.075468
-0.00268693
0.0755072
-0.00266507
0.0755464
-0.00264019
0.0755856
-0.00261234
0.0756245
-0.00258157
0.0756631
-0.00254802
0.0757013
-0.00251163
-0.00247332
0.0757395
0.0756532
-0.00277766
0.0757098
-0.00276237
0.0757664
-0.00274354
0.0758228
-0.00272145
0.0758787
-0.00269613
0.075934
-0.00266762
0.0759885
-0.002636
0.0760418
-0.00260139
0.0760939
-0.00256372
-0.00252387
0.0761445
0.075914
-0.00285415
0.0759904
-0.00283881
0.0760667
-0.00281985
0.0761425
-0.00279728
0.0762176
-0.00277116
0.0762915
-0.00274154
0.076364
-0.00270848
0.0764347
-0.00267215
0.0765034
-0.00263242
-0.0025905
0.0765701
0.0761667
-0.00295267
0.0762654
-0.00293754
0.0763639
-0.00291832
0.0764616
-0.00289502
0.0765582
-0.0028677
0.0766531
-0.00283642
0.0767459
-0.00280127
0.0768362
-0.00276245
0.0769235
-0.00271979
-0.00267489
0.0770079
0.0764125
-0.00307636
0.0765365
-0.00306153
0.0766601
-0.00304191
0.0767826
-0.00301755
0.0769035
-0.00298852
0.077022
-0.00295492
0.0771375
-0.00291686
0.0772497
-0.00287463
0.0773579
-0.00282796
-0.00277907
0.0774621
0.0766517
-0.00322914
0.0768049
-0.0032147
0.0769575
-0.00319453
0.0771086
-0.00316868
0.0772574
-0.00313728
0.077403
-0.00310051
0.0775446
-0.00305851
0.0776816
-0.00301167
0.0778133
-0.00295961
-0.00290548
0.0779397
0.0768833
-0.00341642
0.0770711
-0.00340255
0.0772582
-0.00338159
0.0774432
-0.00335364
0.0776248
-0.00331895
0.0778021
-0.00327779
0.077974
-0.0032304
0.0781397
-0.00317735
0.0782982
-0.00311807
-0.00305706
0.0784497
0.0771059
-0.00364618
0.0773363
-0.00363293
0.0775654
-0.00361069
0.0777914
-0.00357959
0.0780126
-0.00354014
0.0782276
-0.00349279
0.0784351
-0.00343793
0.0786341
-0.0033764
0.0788234
-0.00330735
-0.00323721
0.0790036
0.0773184
-0.00393033
0.0776027
-0.00391723
0.0778845
-0.00389247
0.0781612
-0.00385628
0.0784307
-0.00380966
0.0786913
-0.00375334
0.0789412
-0.00368788
0.0791793
-0.00361451
0.0794041
-0.00353212
-0.00344966
0.0796165
0.0775217
-0.00428645
0.0778762
-0.0042717
0.0782254
-0.00424167
0.078566
-0.00419688
0.0788954
-0.00413909
0.0792114
-0.00406937
0.0795121
-0.00398855
0.079796
-0.00389842
0.0800615
-0.00379757
-0.0036982
0.08031
0.0777223
-0.0047396
0.0781695
-0.00471892
0.0786061
-0.00467829
0.0790281
-0.00461889
0.0794326
-0.00454354
0.0798168
-0.0044536
0.0801785
-0.00435023
0.0805162
-0.00423608
0.080828
-0.00410946
-0.00398653
0.0811164
0.0779384
-0.00532565
0.0785097
-0.0052902
0.0790612
-0.00522979
0.0795886
-0.00514627
0.0800886
-0.0050435
0.0805579
-0.00492293
0.0809939
-0.0047862
0.081395
-0.00463717
0.0817596
-0.00447409
-0.00431759
0.0820906
0.0782178
-0.00610034
0.0789609
-0.00603322
0.0796692
-0.00593809
0.0803377
-0.00581484
0.0809625
-0.00566825
0.0815393
-0.00549972
0.0820648
-0.00531168
0.0825373
-0.00510974
0.082956
-0.00489278
-0.00468573
0.0833242
0.0786991
-0.0071475
0.0796896
-0.00702379
0.0806182
-0.00686662
0.0814767
-0.00667334
0.0822584
-0.00644996
0.0829572
-0.00619855
0.0835693
-0.00592374
0.0840933
-0.00563378
0.084531
-0.00533047
-0.0050388
0.0848841
0.0797551
-0.00856131
0.0810659
-0.00833459
0.0822492
-0.00804986
0.0832953
-0.00771941
0.0841941
-0.00734877
0.0849381
-0.00694264
0.0855264
-0.00651201
0.0859623
-0.00606963
0.0862567
-0.00562487
-0.00518934
0.0864072
0.0819115
-0.0103865
0.0834172
-0.00984034
0.0846333
-0.00926599
0.0855724
-0.00865849
0.086236
-0.00801235
0.0866319
-0.00733851
0.0867787
-0.00665882
0.0866987
-0.0059897
0.0864211
-0.00534721
-0.00472394
0.0859557
0.0840915
-0.0121297
0.0850551
-0.010804
0.0854543
-0.00966518
0.0853661
-0.00857027
0.0848536
-0.00749981
0.0839922
-0.00647712
0.0828611
-0.00552774
0.0815248
-0.00465338
0.0800298
-0.00385226
-0.00309086
0.0783968
0.079479
-0.0112321
0.0778624
-0.00918742
0.0756065
-0.00740928
0.0728898
-0.00585352
0.0698931
-0.00450317
0.066795
-0.00337905
0.0637294
-0.00246206
0.0607892
-0.00171324
0.0580314
-0.00109445
-0.000585268
0.0555258
0.0524129
0.0432255
0.0358162
0.0299627
0.0254595
0.0220804
0.0196184
0.0179051
0.0168107
0.0162254
0.0756424
-0.0174431
0.0758291
-0.0140664
0.0759694
-0.0103771
0.0760636
-0.00689461
0.0761165
-0.00378988
0.0761407
-0.00126576
0.0761523
0.000701425
0.0761581
0.00224865
0.0761674
0.00337183
0.0761701
0.00439513
0.0761655
0.00515441
0.0761494
0.00572723
0.0761175
0.00615599
0.076089
0.00604388
0.0760575
0.00602314
0.076053
0.00547807
0.0760702
0.00521611
0.0760992
0.00509564
0.0761476
0.00496823
0.00565993
0.0759948
-0.0176984
0.0761649
-0.0142365
0.0762555
-0.0104677
0.0762865
-0.00692565
0.076276
-0.0037793
0.0762478
-0.00123764
0.07622
0.000729257
0.0762009
0.00226779
0.0761947
0.00337802
0.0761854
0.00440436
0.0761711
0.00516875
0.0761432
0.00575518
0.076102
0.00619711
0.0760687
0.00607719
0.0760366
0.00605526
0.076041
0.00547364
0.0760693
0.00518788
0.0761094
0.00505546
0.0761676
0.00491008
0.00563891
0.0764674
-0.0180214
0.0766412
-0.0144102
0.0766921
-0.0105186
0.0766565
-0.00689005
0.0765686
-0.00369137
0.0764681
-0.00113712
0.0763803
0.000817042
0.0763192
0.0023289
0.0762836
0.00341355
0.0762507
0.00443728
0.0762152
0.00520427
0.076163
0.00580738
0.0761005
0.00625965
0.0760528
0.00612484
0.0760136
0.00609443
0.0760283
0.00545895
0.0760725
0.00514373
0.0761313
0.00499662
0.076207
0.0048344
0.00561678
0.0769768
-0.0184281
0.0771689
-0.0146023
0.0771917
-0.0105415
0.0770972
-0.00679562
0.0769352
-0.00352931
0.0767614
-0.000963375
0.0766101
0.000968395
0.0765029
0.00243611
0.0764338
0.00348258
0.076372
0.00449907
0.0763089
0.00526739
0.0762233
0.00589299
0.076129
0.00635395
0.0760574
0.0061965
0.076003
0.00614875
0.0760262
0.00543578
0.076087
0.00508291
0.076169
0.00491464
0.076267
0.00473645
0.00559398
0.0775052
-0.0189253
0.0777191
-0.0148162
0.0777166
-0.010539
0.0775662
-0.00664518
0.077333
-0.00329608
0.0770888
-0.00071923
0.0768768
0.00118044
0.0767267
0.00258618
0.0766271
0.00358219
0.0765378
0.00458833
0.0764461
0.00535911
0.0763226
0.00601653
0.0761897
0.00648681
0.0760864
0.00629976
0.0760098
0.00622539
0.076039
0.00540657
0.0761157
0.00500625
0.0762233
0.00480696
0.0763465
0.00461324
0.00557159
0.0780531
-0.0195164
0.0782872
-0.0150503
0.0782561
-0.0105079
0.0780463
-0.00643538
0.0777401
-0.00298989
0.0774256
-0.000404788
0.0771554
0.00145069
0.0769674
0.00277416
0.0768428
0.00370682
0.0767308
0.00470031
0.0766126
0.00547731
0.0764495
0.00617962
0.0762739
0.00666241
0.0761333
0.00644042
0.0760286
0.00633006
0.0760621
0.0053731
0.0761533
0.00491497
0.0762888
0.0046715
0.0764392
0.00446282
0.00555135
0.078626
-0.0202027
0.0788765
-0.0153007
0.0788092
-0.0104406
0.0785326
-0.00615874
0.0781475
-0.00260481
0.0777591
-1.6409e-05
0.0774307
0.00177914
0.0772087
0.00299616
0.0770643
0.00385124
0.0769348
0.00482978
0.0767925
0.00561963
0.0765885
0.00638358
0.0763666
0.00688431
0.076183
0.00662402
0.0760455
0.00646764
0.0760817
0.0053369
0.0761859
0.0048107
0.0763511
0.00450634
0.0765295
0.00428443
0.0055357
0.0792307
-0.0209837
0.0794922
-0.0155622
0.0793787
-0.0103271
0.0790249
-0.00580491
0.0785519
-0.00213187
0.0780821
0.000453425
0.0776928
0.00216843
0.0774384
0.00325056
0.0772774
0.0040122
0.0771342
0.00497304
0.0769682
0.00578563
0.0767203
0.00663143
0.0764471
0.00715752
0.0762135
0.00685758
0.0760376
0.00664354
0.0760738
0.00530076
0.0761879
0.00469657
0.0763837
0.00431053
0.0765891
0.00407903
0.0055275
0.0798757
-0.0218559
0.0801417
-0.0158282
0.0799684
-0.0101537
0.0795238
-0.00536038
0.0789499
-0.00155791
0.0783873
0.00101601
0.0779304
0.0026253
0.0776416
0.00353937
0.0774638
0.00419005
0.0773073
0.00512951
0.0771145
0.00597841
0.0768168
0.00692915
0.0764846
0.00748971
0.0761914
0.00715075
0.0759701
0.00686492
0.0760002
0.00527067
0.0761179
0.00457886
0.0763429
0.00408546
0.0765721
0.00384985
0.00552953
0.0805724
-0.0228117
0.0808346
-0.0160904
0.0805822
-0.00990133
0.0800276
-0.00480576
0.0793325
-0.00086282
0.0786585
0.00169006
0.0781207
0.00316306
0.0777889
0.0038712
0.0775877
0.00439121
0.0774136
0.00530359
0.0771866
0.00620542
0.0768303
0.00728544
0.0764291
0.0078909
0.0760644
0.00751553
0.075788
0.00714126
0.075801
0.00525764
0.0759115
0.00446844
0.0761607
0.00383627
0.0764083
0.00360221
0.00554288
0.0813378
-0.0238395
0.0815827
-0.0163353
0.0812187
-0.00953732
0.0805212
-0.00410831
0.0796707
-1.22594e-05
0.0788535
0.00250725
0.0782101
0.00380645
0.0778154
0.00426586
0.0775755
0.00463118
0.0773731
0.00550594
0.0771011
0.00647744
0.0766774
0.00770911
0.0761976
0.00837077
0.0757493
0.00796381
0.0754069
0.00748366
0.0753859
0.00527866
0.0754732
0.00438108
0.0757371
0.00357237
0.0759979
0.00334148
0.00556389
0.0821968
-0.02492
0.0823903
-0.0165287
0.0818488
-0.00899584
0.0809486
-0.00320811
0.079882
0.00105435
0.0788712
0.00351799
0.078081
0.00459673
0.0775887
0.00475813
0.0772843
0.00493559
0.0770386
0.00575157
0.076713
0.00680306
0.0762202
0.0082019
0.0756593
0.00893173
0.0751214
0.00850169
0.0747028
0.00790221
0.074626
0.00535548
0.0746715
0.00433556
0.074938
0.00330594
0.075211
0.00306845
0.00557972
0.0831712
-0.0260005
0.0832142
-0.0165717
0.0823569
-0.00813859
0.0811459
-0.00199709
0.0797712
0.0024291
0.0784958
0.00479333
0.0775023
0.00559027
0.0768657
0.00539472
0.0764676
0.0053337
0.076169
0.00605017
0.0757966
0.00717549
0.0752534
0.00874512
0.0746278
0.00955724
0.0740091
0.00912046
0.0735103
0.00840094
0.0733559
0.00550991
0.0733431
0.00434835
0.0736019
0.00304715
0.0738983
0.00277203
0.0055633
0.084212
-0.0268883
0.0838467
-0.0162065
0.0824143
-0.00670621
0.080731
-0.000313795
0.0789359
0.00422426
0.0773265
0.00640272
0.0760781
0.00683865
0.0752591
0.00621376
0.074756
0.0058368
0.074422
0.00638412
0.0740471
0.00755037
0.0735111
0.0092812
0.0728712
0.0101971
0.0722058
0.00978592
0.0716362
0.00897053
0.0713917
0.00575442
0.0713156
0.00442441
0.0715668
0.00279595
0.0719175
0.00242136
0.00547044
0.084976
-0.0269803
0.0836631
-0.0148936
0.0812821
-0.00432522
0.0789577
0.00201068
0.0766836
0.00649835
0.0747353
0.00835103
0.0732376
0.00833633
0.0722533
0.00719804
0.0716921
0.00639801
0.0714003
0.00667594
0.0711296
0.00782104
0.0707126
0.00969817
0.0701529
0.0107568
0.0695075
0.0104313
0.0688977
0.00958036
0.0685731
0.00607902
0.068452
0.00454553
0.0687158
0.00253211
0.0691755
0.00196171
0.0052422
0.0843313
-0.0249044
0.0812511
-0.0118134
0.0776167
-0.000690776
0.0746828
0.00494454
0.072062
0.00911917
0.069948
0.010465
0.068346
0.00993837
0.0673339
0.00821009
0.0668649
0.00686706
0.0667786
0.00676222
0.0667896
0.00781008
0.0666547
0.00983306
0.0663087
0.0111028
0.0657797
0.0109602
0.0651878
0.0101723
0.0648289
0.00643793
0.0647138
0.00466066
0.0650368
0.00220907
0.0656778
0.00132071
0.00481548
0.0796881
-0.0186368
0.0742903
-0.00641562
0.0696487
0.00395088
0.0666469
0.00794628
0.0641949
0.0115712
0.0623621
0.0122977
0.0610027
0.0112979
0.0602586
0.00895415
0.0601444
0.00698125
0.0604984
0.00640823
0.0610059
0.00730262
0.0613299
0.00950903
0.0613415
0.0110911
0.0610396
0.0112622
0.0605533
0.0106586
0.060248
0.0067432
0.0602233
0.00468531
0.0606741
0.00175833
0.0615658
0.000429009
0.00414104
0.0670832
-0.00732319
0.0603761
0.00029148
0.056268
0.00805893
0.0543803
0.00983399
0.0529998
0.0129517
0.052091
0.0132066
0.0514569
0.0119319
0.051371
0.00904008
0.0519133
0.006439
0.0529325
0.00538901
0.0541077
0.00612744
0.0550166
0.00860006
0.055497
0.0106107
0.0555252
0.011234
0.0552571
0.0109267
0.0551267
0.00687359
0.0552955
0.00451654
0.0559444
0.00110948
0.0571217
-0.000748348
0.00320315
0.0441565
0.0040461
0.040091
0.004357
0.0389538
0.00919608
0.039363
0.00942485
0.0398184
0.0124963
0.0403291
0.0126959
0.040824
0.0114369
0.0417093
0.00815482
0.0431067
0.00504158
0.0448917
0.00360397
0.0467729
0.00424628
0.0482866
0.00708634
0.0492793
0.00961801
0.0497156
0.0107977
0.0497884
0.0108539
0.0499587
0.00670327
0.0504125
0.00406275
0.0513009
0.000221045
0.0527358
-0.00218325
0.00203112
0.0177287
0.00254283
0.0193666
0.00271912
0.0219815
0.00658117
0.0246616
0.00674472
0.027041
0.010117
0.0290447
0.0106921
0.0308094
0.00967226
0.0327466
0.00621758
0.0349861
0.00280214
0.0374434
0.00114668
0.0399045
0.00178516
0.0419251
0.00506574
0.0433941
0.00814906
0.0442806
0.0099111
0.0447909
0.0103437
0.0453515
0.0061426
0.0461451
0.00326919
0.0472438
-0.000877609
0.0488521
-0.00379162
0.000701522
0.00281909
-0.000276264
0.00363241
0.00190581
0.00523571
0.00497787
0.00662934
0.00535108
0.00803538
0.00871094
0.00915266
0.00957485
0.0101803
0.0086446
0.0111911
0.00520681
0.0122616
0.00173162
0.0133546
5.3669e-05
0.0144329
0.000706893
0.0153341
0.0041645
0.0160214
0.00746179
0.0165052
0.0094273
0.016837
0.0100119
0.0171701
0.00580955
0.0175922
0.00284705
0.0180447
-0.0013301
0.0187218
-0.00446873
0.000170175
0.0009998
-0.00127606
0.00175281
0.00115279
0.00354604
0.00318463
0.00509434
0.00380278
0.00669354
0.00711174
0.0079812
0.00828719
0.00917152
0.00745429
0.0103022
0.0040761
0.0114483
0.000585539
0.0125829
-0.00108097
0.0136872
-0.00039734
0.0146225
0.00322915
0.0153606
0.00672367
0.015908
0.00887997
0.0163197
0.00960017
0.0167154
0.00541377
0.017185
0.00237751
0.0176553
-0.00180046
0.0183239
-0.00513729
-0.000356681
-0.000320203
-0.000955861
0.00034545
0.00048714
0.0022495
0.00128059
0.00390684
0.00214544
0.00564686
0.00537172
0.00707876
0.00685528
0.00840574
0.00612731
0.0096341
0.00284774
0.0108311
-0.000611454
0.0119834
-0.00223326
0.0130897
-0.00150362
0.0140407
0.00227807
0.0148185
0.00594595
0.0154222
0.00827622
0.0159117
0.00911065
0.0163678
0.00495765
0.0168777
0.00186767
0.0173623
-0.00228513
0.0180081
-0.00578308
-0.000872431
-0.00119675
0.000240888
-0.000554214
-0.000155395
0.00138325
-0.000656878
0.00309518
0.000433514
0.00492956
0.00353734
0.00647093
0.00531391
0.00790503
0.00469321
0.00920414
0.00154864
0.0104261
-0.0018334
0.0115711
-0.00337827
0.0126559
-0.00258849
0.0136044
0.00132959
0.0144087
0.00514172
0.0150607
0.0076242
0.015623
0.00854832
0.0161341
0.00444662
0.0166776
0.00132414
0.0171694
-0.00277694
0.0177818
-0.00639551
-0.00136911
-0.00157988
0.00182077
-0.00095992
-0.000775358
0.000966735
-0.00258353
0.00268248
-0.00128223
0.00456294
0.00165687
0.00617542
0.00370143
0.00768326
0.00318537
0.00902376
0.000208134
0.0102439
-0.00305355
0.0113571
-0.00449144
0.0123978
-0.00362924
0.0133254
0.000401987
0.0141422
0.00432494
0.0148327
0.00693376
0.0154604
0.0079206
0.0160191
0.00388792
0.0165885
0.000754763
0.01708
-0.00326847
0.0176493
-0.00696482
-0.0018392
-0.0014895
0.00331027
-0.000875567
-0.00138929
0.00100801
-0.00446711
0.00268095
-0.00295517
0.00455794
-0.000220123
0.00620037
0.00205901
0.00774582
0.00163992
0.00909701
-0.00114306
0.0102889
-0.00424548
0.0113471
-0.00554961
0.0123227
-0.00460487
0.0132118
-0.000487046
0.0140267
0.00351004
0.0147442
0.00621622
0.0154276
0.00723719
0.0160252
0.00329039
0.0166116
0.000168306
0.0170954
-0.0037523
0.0176131
-0.00748244
-0.00227585
-0.000917376
0.00422764
-0.000304408
-0.00200226
0.00150691
-0.00627843
0.00309157
-0.00453982
0.00491488
-0.00204344
0.00654434
0.000429554
0.00808954
9.47182e-05
0.00942056
-0.00247408
0.0105591
-0.00538398
0.0115413
-0.00653185
0.0124332
-0.00549679
0.0132673
-0.00132109
0.0140658
0.00271151
0.014798
0.00548403
0.0155254
0.00650971
0.0161517
0.00266416
0.0167458
-0.000425829
0.0172148
-0.00422128
0.0176737
-0.00794131
-0.00267306
0.00016606
0.00406158
0.000777361
-0.00261356
0.00245442
-0.00795549
0.00390393
-0.00598933
0.00562356
-0.00376306
0.00719661
-0.0011435
0.00870314
-0.00141181
0.00998383
-0.00375476
0.0110457
-0.00644586
0.011934
-0.00742015
0.0127268
-0.00628953
0.0134912
-0.00208555
0.0142595
0.00194329
0.0149932
0.00475033
0.0157515
0.00575136
0.0163954
0.0020203
0.0169874
-0.0010179
0.0174349
-0.00466879
0.0178296
-0.00833598
-0.00302594
0.00169686
0.00236473
0.00234332
-0.00326002
0.00382904
-0.00944122
0.00509619
-0.00725648
0.00666363
-0.0053305
0.00813765
-0.00261753
0.00956777
-0.00284192
0.0107695
-0.00495654
0.0117343
-0.00741059
0.0125141
-0.00819995
0.0131958
-0.00697129
0.0138786
-0.00276833
0.0146037
0.0012182
0.0153256
0.0040284
0.0161006
0.00497639
0.0167504
0.0013705
0.0173306
-0.00159808
0.0177506
-0.00508883
0.0180775
-0.00866283
-0.0033307
0.00378518
-0.00142045
0.00438065
-0.00385549
0.00558655
-0.0106471
0.0066425
-0.00831242
0.0080031
-0.00669111
0.00934282
-0.00395725
0.0106579
-0.00415704
0.0117543
-0.00605293
0.0126043
-0.00826061
0.0132647
-0.00886036
0.0138279
-0.00753449
0.0144207
-0.00336113
0.0150906
0.000548379
0.0157891
0.00332988
0.0165647
0.0042008
0.0172086
0.00072655
0.0177672
-0.00215663
0.0181546
-0.00547621
0.0184097
-0.00891793
-0.00359093
0.0323857
0.00204474
-0.0358509
0.0326921
-0.0041619
0.0339482
-0.0119032
0.0358372
-0.0102014
0.0384636
-0.00931754
0.0417952
-0.00728883
0.0450564
-0.00741823
0.0477712
-0.00876772
0.0497028
-0.0101922
0.0509876
-0.0101452
0.0520175
-0.00856445
0.0533222
-0.00466583
0.055056
-0.00118541
0.0571945
0.00119137
0.0596071
0.00178823
0.0616613
-0.00132766
0.0633061
-0.00380143
0.0643001
-0.0064702
0.0646373
-0.00925509
-0.0042517
0.0807463
0.0168388
-0.0955403
0.0723539
0.0042305
0.0664881
-0.00603742
0.0637388
-0.00745209
0.0625388
-0.00811757
0.062927
-0.007677
0.0638248
-0.00831609
0.0646281
-0.00957103
0.0649637
-0.0105277
0.06484
-0.0100215
0.0645944
-0.00831884
0.0647646
-0.00483603
0.0655551
-0.00197596
0.0669788
-0.000232353
0.0687686
-1.52929e-06
0.0703149
-0.00287393
0.0714208
-0.00490734
0.0718942
-0.00694365
0.071611
-0.00897182
-0.00438171
0.104842
0.0241294
-0.112133
0.0981899
0.0108828
0.0916756
0.000476872
0.087394
-0.00317044
0.0843141
-0.00503763
0.0826303
-0.00599328
0.0816224
-0.00730811
0.0807908
-0.00873946
0.079833
-0.00956998
0.0787156
-0.00890405
0.0776639
-0.00726716
0.0770682
-0.00424033
0.0770973
-0.00200501
0.0777759
-0.000911016
0.0787992
-0.00102483
0.0796686
-0.0037433
0.0801516
-0.00539031
0.0801357
-0.00692775
0.0794416
-0.00827775
-0.00411884
0.112361
0.0256154
-0.113847
0.109129
0.0141154
0.104741
0.00486506
0.101192
0.000377801
0.0982718
-0.00211702
0.0961341
-0.00385558
0.0944071
-0.00558104
0.0928094
-0.00714185
0.0912353
-0.00799589
0.0897121
-0.00738083
0.0884191
-0.00597411
0.0875871
-0.00340836
0.0872637
-0.00168163
0.0874656
-0.00111293
0.0878637
-0.00142285
0.0881156
-0.00399524
0.0880505
-0.00532522
0.0876374
-0.00651461
0.0867415
-0.00738189
-0.00366088
0.112883
0.0247337
-0.112002
0.111838
0.0151611
0.109386
0.0073163
0.107051
0.00271373
0.104962
-2.8381e-05
0.103207
-0.00210078
0.101581
-0.00395496
0.0999504
-0.00551122
0.0983509
-0.00639638
0.0968833
-0.00591325
0.0957236
-0.0048144
0.0950222
-0.00270694
0.094695
-0.00135444
0.094727
-0.00114495
0.0947901
-0.00148591
0.0946412
-0.00384636
0.0942307
-0.00491471
0.0935697
-0.00585358
0.0926296
-0.00644178
-0.00317321
0.111633
0.0232007
-0.1101
0.111545
0.0152494
0.110257
0.00860454
0.108792
0.00417883
0.107399
0.00136422
0.106106
-0.00080792
0.104813
-0.00266156
0.103439
-0.00413715
0.102076
-0.00503415
0.100863
-0.00469934
0.0999576
-0.00390946
0.0994962
-0.00224552
0.0993102
-0.00116847
0.0993479
-0.00118269
0.0993156
-0.0014536
0.0989957
-0.00352646
0.0984588
-0.00437775
0.0977153
-0.00511009
0.0968338
-0.00556025
-0.00275216
0.110239
0.02161
-0.108649
0.110508
0.0149806
0.109822
0.00929059
0.108858
0.00514307
0.107878
0.00234392
0.106915
0.000155176
0.105912
-0.00165843
0.104816
-0.00304097
0.103723
-0.00394162
0.102776
-0.00375237
0.102099
-0.00323266
0.101832
-0.0019783
0.101782
-0.00111873
0.101865
-0.00126568
0.101853
-0.00144068
0.101513
-0.00318651
0.100997
-0.00386188
0.100297
-0.00441086
0.0995291
-0.00479184
-0.00243114
0.109021
0.0201147
-0.107526
0.109419
0.014583
0.109047
0.00966213
0.108367
0.00582287
0.107624
0.00308707
0.106865
0.000914319
0.106057
-0.000850797
0.105176
-0.00215981
0.1043
-0.00306496
0.103562
-0.00301484
0.103046
-0.00271637
0.102889
-0.0018212
0.102917
-0.00114664
0.10302
-0.00136932
0.103048
-0.00146851
0.102753
-0.00289171
0.102321
-0.00342926
0.10173
-0.00382019
0.101092
-0.00415337
-0.0022042
0.107976
0.0187545
-0.106616
0.108421
0.0141378
0.108231
0.00985172
0.107734
0.00632041
0.107143
0.00367824
0.10651
0.00154667
0.105835
-0.000175218
0.105108
-0.00143267
0.104388
-0.00234548
0.103799
-0.00242576
0.103387
-0.00230419
0.103275
-0.00170954
0.103327
-0.00119865
0.10342
-0.00146193
0.10347
-0.00151884
0.103233
-0.00265458
0.10289
-0.00308647
0.102421
-0.00335121
0.101906
-0.00363784