/*--------------------------------*- C++ -*----------------------------------*\
| =========                 |                                                 |
| \\      /  F ield         | OpenFOAM: The Open Source CFD Toolbox           |
|  \\    /   O peration     | Version:  v1806                                 |
|   \\  /    A nd           | Web:      www.OpenFOAM.com                      |
|    \\/     M anipulation  |                                                 |
\*---------------------------------------------------------------------------*/
FoamFile
{
    version     2.0;
    format      ascii;
    class       volScalarField;
    location    "140";
    object      p;
}
// * * * * * * * * * * * * * * * * * * * * * * * * * * * * * * * * * * * * * //

dimensions      [0 2 -2 0 0 0 0];


internalField   nonuniform List<scalar> 
2400
(
0.000181642
0.000182421
0.000184017
0.000186347
0.000189226
0.000192409
0.000195566
0.000198307
0.000200125
0.000200447
0.000198578
0.000193786
0.000185285
0.000172375
0.000154443
0.000131168
0.000102542
6.9153e-05
3.20525e-05
-8.8193e-06
0.000544478
0.000546756
0.000551434
0.00055831
0.00056685
0.000576346
0.00058583
0.00059417
0.000599875
0.000601267
0.000596295
0.000582828
0.000558535
0.000521325
0.000469327
0.000401491
0.000317628
0.000219055
0.000108129
-1.11261e-05
0.000906008
0.000909827
0.000917668
0.000929249
0.000943706
0.000959899
0.000976235
0.00099087
0.00100133
0.00100486
0.000998012
0.000977234
0.00093853
0.000878304
0.00079322
0.00068129
0.000541898
0.000376959
0.000190576
-9.47744e-06
0.00126532
0.00127078
0.00128202
0.00129869
0.0013196
0.00134323
0.00136737
0.0013895
0.00140615
0.00141352
0.00140668
0.00138061
0.00132943
0.00124788
0.00113078
0.000974932
0.000778947
0.000545172
0.000279399
-7.88234e-06
0.00162146
0.00162873
0.00164369
0.00166596
0.00169407
0.00172615
0.00175936
0.00179064
0.00181546
0.00182906
0.00182484
0.00179638
0.00173548
0.00163514
0.00148769
0.00128843
0.00103453
0.000728457
0.000377319
-5.20932e-06
0.0019734
0.00198266
0.00200174
0.00203027
0.00206648
0.00210825
0.00215217
0.0021947
0.00223023
0.00225315
0.00225501
0.00222804
0.00216121
0.00204567
0.00187034
0.0016287
0.00131536
0.000932553
0.000488245
-1.83189e-07
0.00231999
0.00233146
0.00235511
0.00239064
0.00243602
0.00248897
0.00254552
0.00260183
0.00265115
0.00268727
0.00269953
0.00267907
0.00261124
0.00248551
0.00228577
0.00200372
0.00162937
0.00116456
0.00061707
8.39427e-06
0.00265998
0.00267389
0.00270262
0.00274596
0.00280168
0.00286748
0.00293884
0.00301186
0.00307858
0.00313251
0.00316044
0.00315285
0.0030903
0.00296117
0.00274191
0.00242298
0.00198621
0.00143358
0.000770108
2.22378e-05
0.00299197
0.00300856
0.00304288
0.00309489
0.00316221
0.00324262
0.0033312
0.00342417
0.0035124
0.00358951
0.00363936
0.00365244
0.0036031
0.00347972
0.00324767
0.00289793
0.00239775
0.00175157
0.000955733
4.39441e-05
0.00331444
0.00333393
0.00337437
0.00343589
0.00351609
0.00361293
0.00372124
0.00383762
0.00395189
0.00405821
0.00413729
0.00418045
0.0041542
0.00404866
0.00381308
0.00344248
0.00287874
0.00213481
0.00118509
7.74912e-05
0.00362575
0.00364834
0.00369537
0.00376719
0.00386149
0.00397653
0.00410713
0.00425046
0.00439564
0.00453772
0.00465439
0.00473857
0.0047477
0.00467554
0.00444934
0.00407345
0.0034477
0.00260604
0.00147312
0.00012949
0.00392412
0.00394995
0.00400401
0.00408679
0.00419632
0.00433112
0.0044865
0.00466018
0.00484134
0.00502597
0.00518967
0.00532717
0.00538686
0.00536737
0.00516867
0.00481055
0.00412819
0.00319756
0.00184054
0.000212617
0.00420768
0.00423685
0.00429826
0.00439249
0.00451816
0.00467401
0.00485642
0.00506349
0.00528571
0.00551952
0.00574065
0.00594464
0.00607351
0.00612945
0.00598398
0.00567531
0.00495031
0.00395398
0.00231667
0.000354369
0.00447452
0.00450702
0.00457597
0.0046819
0.00482436
0.00500208
0.00521337
0.00545623
0.00572426
0.00601327
0.00630288
0.00658673
0.00680728
0.00696416
0.00690825
0.0066886
0.00595231
0.00493231
0.00294232
0.000613481
0.00472264
0.0047584
0.00483492
0.00495251
0.005112
0.00531187
0.00555326
0.00583338
0.00615122
0.00650021
0.00686932
0.00724568
0.00758434
0.00786956
0.00795398
0.00786786
0.00718235
0.00619699
0.0037827
0.00109191
0.0049501
0.00498894
0.00507285
0.00520172
0.00537802
0.00559966
0.00587147
0.00618917
0.00655944
0.00697138
0.00742967
0.0079093
0.00839492
0.00883724
0.00913079
0.00922759
0.00870128
0.00780679
0.00496557
0.00194696
0.005155
0.00519667
0.00528753
0.00542699
0.0056193
0.00586159
0.00616305
0.00651729
0.00694056
0.00741605
0.00796992
0.00856027
0.00921969
0.00984778
0.0104374
0.010781
0.0105922
0.00980556
0.00671394
0.00344135
0.00533556
0.00537971
0.00547687
0.00562584
0.00583274
0.00609383
0.00642284
0.00681112
0.00728524
0.00782212
0.00847259
0.00917636
0.0100276
0.0108663
0.0118421
0.0125232
0.0129718
0.012263
0.00930562
0.00562686
0.00549016
0.00553639
0.00563892
0.00579603
0.0060154
0.00629274
0.00664571
0.00706409
0.00758357
0.00817673
0.00891707
0.00973146
0.0107752
0.0118423
0.013266
0.0143966
0.0158907
0.0154432
0.0132279
0.00551356
0.00561751
0.00566523
0.00577213
0.00593553
0.00616486
0.00645488
0.0068274
0.0072697
0.00782695
0.00846619
0.00928374
0.0101941
0.0114123
0.0127025
0.0145807
0.0162706
0.0191874
0.0196848
0.0218715
-0.00153515
-4.28139e-05
-5.8538e-05
-7.06405e-05
-8.104e-05
-9.13052e-05
-0.00010162
-0.000111722
-0.000121429
-0.000130544
-0.00013906
-8.89919e-05
-0.000122251
-0.00015482
-0.000186884
-0.000218458
-0.000249396
-0.000279485
-0.000308567
-0.00033653
-0.000363441
-0.000141793
-0.000200227
-0.000257362
-0.000313165
-0.000367733
-0.000420946
-0.000472568
-0.000522371
-0.000570146
-0.000615748
-0.000200365
-0.000285097
-0.000367173
-0.000447058
-0.00052525
-0.000601603
-0.000675696
-0.00074713
-0.00081561
-0.000880832
-0.000262957
-0.000376278
-0.000485915
-0.000592623
-0.000697116
-0.000799155
-0.000898114
-0.000993417
-0.00108467
-0.00117139
-0.000331405
-0.000477139
-0.000618046
-0.000755072
-0.000889157
-0.00101998
-0.0011467
-0.00126854
-0.00138499
-0.00149538
-0.000407759
-0.000591
-0.000767964
-0.000939829
-0.00110784
-0.00127156
-0.00142988
-0.00158177
-0.00172656
-0.00186339
-0.000494165
-0.000721749
-0.000941234
-0.00115405
-0.00136177
-0.00156383
-0.00175874
-0.00194515
-0.00212219
-0.00228885
-0.000593216
-0.000874431
-0.00114531
-0.00140739
-0.00166259
-0.00191012
-0.00214801
-0.00237455
-0.00258858
-0.00278903
-0.000708209
-0.00105594
-0.0013907
-0.0017136
-0.00202676
-0.00232912
-0.00261814
-0.00289169
-0.0031483
-0.00338696
-0.000843667
-0.00127651
-0.00169329
-0.00209336
-0.00247876
-0.00284818
-0.00319857
-0.00352736
-0.00383271
-0.00411407
-0.00100672
-0.00155338
-0.00207936
-0.0025797
-0.00305644
-0.00350861
-0.00393284
-0.0043262
-0.00468639
-0.00501408
-0.00121063
-0.00191979
-0.00259683
-0.00322912
-0.00382125
-0.00437481
-0.0048867
-0.00535358
-0.0057728
-0.0061472
-0.00148363
-0.00244311
-0.00333627
-0.0041424
-0.00487836
-0.0055535
-0.00616553
-0.00671037
-0.00718574
-0.0075978
-0.00190269
-0.00326246
-0.00445935
-0.00548573
-0.00639659
-0.00721511
-0.0079367
-0.0085544
-0.00906833
-0.0094889
-0.00270841
-0.00470828
-0.00628595
-0.00754179
-0.00863343
-0.00960263
-0.0104282
-0.0110927
-0.0116009
-0.0119688
-0.00442014
-0.00750321
-0.00955887
-0.0109914
-0.0121924
-0.0132425
-0.0140903
-0.0147019
-0.0150896
-0.0152802
-0.00737241
-0.0121018
-0.014877
-0.0165703
-0.0178586
-0.01887
-0.0195585
-0.0199221
-0.020005
-0.019857
-0.0124562
-0.0177997
-0.0206101
-0.0225239
-0.0239457
-0.0247773
-0.0250388
-0.0248865
-0.0244722
-0.0239004
-0.0373118
-0.0368358
-0.0332515
-0.0319338
-0.0316802
-0.031309
-0.0306582
-0.0298397
-0.0289661
-0.0280209
-0.000167769
-0.000194609
-0.000187833
-0.000153722
-0.000118375
-0.000102646
-8.46044e-05
-4.19614e-05
1.51595e-05
5.92601e-05
7.97937e-05
4.62718e-05
-3.86518e-05
-0.00011085
-7.48334e-05
-1.95993e-05
0.000107556
0.000239086
0.000614451
0.000393139
-0.000488449
-0.000573944
-0.00055165
-0.000450567
-0.000349927
-0.000298296
-0.000242313
-0.000127236
3.21304e-05
0.000172158
0.000229282
0.000135867
-6.95621e-05
-0.0002494
-0.000233404
-9.56768e-05
0.000235956
0.000564112
0.000913839
0.000325883
-0.000823478
-0.000964076
-0.000921491
-0.000748243
-0.000580524
-0.000493862
-0.000403367
-0.000217983
4.81767e-05
0.000289524
0.000385878
0.00023686
-9.84883e-05
-0.000406319
-0.000418714
-0.000192896
0.000331135
0.000793405
0.00124851
0.000450472
-0.00118108
-0.00137445
-0.00130427
-0.00104893
-0.000810905
-0.000693864
-0.000572792
-0.000313688
6.76202e-05
0.000418192
0.000558711
0.000348261
-0.000138456
-0.000591042
-0.000631036
-0.00031237
0.000397551
0.000990019
0.00151435
0.000537047
-0.00157092
-0.0018118
-0.00170287
-0.00135147
-0.00103957
-0.000898761
-0.000752418
-0.000416278
9.04907e-05
0.000562397
0.000752857
0.00047221
-0.000190226
-0.000806761
-0.000880169
-0.00046238
0.000433871
0.00114438
0.00170747
0.000610633
-0.00200344
-0.00228345
-0.00212058
-0.00165454
-0.00126431
-0.00110902
-0.000945812
-0.000529448
0.00011659
0.000726415
0.000974925
0.000613315
-0.000255681
-0.00106188
-0.00117672
-0.000650815
0.000431988
0.00125404
0.00184536
0.000676574
-0.00249121
-0.00279784
-0.00256113
-0.00195612
-0.00148225
-0.0013257
-0.00115788
-0.000657643
0.000145422
0.00091477
0.0012324
0.000775967
-0.000337276
-0.00136317
-0.00152776
-0.000884597
0.000385764
0.00131952
0.00193409
0.000734681
-0.00304938
-0.00336459
-0.00302838
-0.00225298
-0.0016896
-0.00155006
-0.00139458
-0.0008066
0.000175475
0.00113186
0.00153258
0.0009645
-0.000434813
-0.00171187
-0.00193497
-0.00116774
0.000290305
0.00133827
0.00197686
0.000785513
-0.00369634
-0.00399464
-0.00352634
-0.00254034
-0.00188134
-0.00178347
-0.00166332
-0.000984046
0.000203308
0.00138114
0.00188165
0.00118341
-0.000543781
-0.0021015
-0.00239243
-0.00150037
0.000142324
0.00130791
0.00197684
0.000829292
-0.00445456
-0.00470062
-0.00405921
-0.00281141
-0.00205087
-0.00202741
-0.00197306
-0.00119965
0.000223267
0.00166289
0.00228214
0.00143649
-0.000653869
-0.00251482
-0.0028838
-0.00187368
-5.69272e-05
0.00122882
0.0019375
0.000865222
-0.00535144
-0.00549705
-0.00463143
-0.00305687
-0.00218927
-0.00228267
-0.00233415
-0.00146444
0.000227924
0.00197248
0.00272909
0.00172427
-0.000749132
-0.00292312
-0.00338161
-0.0022725
-0.000299869
0.00110561
0.00186308
0.000891462
-0.00642038
-0.00640072
-0.00524751
-0.0032645
-0.00228465
-0.00254677
-0.00275553
-0.00179109
0.000205809
0.00229564
0.00320501
0.00203924
-0.000811423
-0.00328988
-0.00385022
-0.00267319
-0.000571941
0.000946643
0.00175837
0.000905638
-0.00770183
-0.00743149
-0.00591267
-0.00341911
-0.00232155
-0.00281091
-0.00323708
-0.00218912
0.000144068
0.00260827
0.00367625
0.00236137
-0.00082694
-0.00357807
-0.00425131
-0.00304582
-0.000852238
0.000763877
0.00162874
0.000905152
-0.00924322
-0.00861223
-0.00663498
-0.00350679
-0.00228185
-0.00305471
-0.00376191
-0.00265216
2.46496e-05
0.00286383
0.00409186
0.0026556
-0.000792869
-0.0037581
-0.00454874
-0.00335694
-0.0011156
0.000571232
0.00147928
0.000887117
-0.0110879
-0.00995851
-0.00742587
-0.00353051
-0.00215548
-0.00324136
-0.00428379
-0.00315614
-0.000166343
0.00301771
0.00438586
0.00287324
-0.0007192
-0.00381214
-0.00471133
-0.00357283
-0.00133588
0.000382332
0.00131382
0.000849167
-0.0132402
-0.0114568
-0.00829096
-0.00352114
-0.0019642
-0.00332803
-0.00472989
-0.0036501
-0.000427246
0.00301735
0.00448655
0.00295946
-0.000624637
-0.00373301
-0.00471359
-0.00366302
-0.00148945
0.000208479
0.0011346
0.000789653
-0.0156383
-0.013009
-0.00921621
-0.00354651
-0.00177305
-0.00330391
-0.00501662
-0.00405702
-0.000734093
0.0028275
0.00433443
0.00286602
-0.000530228
-0.00352023
-0.0045379
-0.00360376
-0.00155834
5.71811e-05
0.000942094
0.000707803
-0.0181599
-0.0144564
-0.0101538
-0.00373888
-0.0017144
-0.00320904
-0.005077
-0.00428611
-0.00103856
0.00244388
0.00388509
0.00256587
-0.000452606
-0.00317674
-0.00417457
-0.00338105
-0.00153261
-6.85475e-05
0.000735366
0.000603752
-0.0197167
-0.0153526
-0.0109584
-0.00418592
-0.00197058
-0.00313308
-0.00488216
-0.00424793
-0.00127245
0.00189093
0.00315413
0.00206327
-0.000399286
-0.00270933
-0.00362362
-0.00299299
-0.00141178
-0.000170138
0.00051267
0.000478391
-0.0213138
-0.0157287
-0.0114537
-0.00489322
-0.00264135
-0.00314438
-0.00443068
-0.00387748
-0.00136878
0.00122325
0.00218865
0.00139545
-0.000364
-0.0021316
-0.00289835
-0.00245152
-0.00120444
-0.000252567
0.000272423
0.000334683
-0.0210254
-0.0153116
-0.0115276
-0.00552136
-0.00334763
-0.00320564
-0.00394039
-0.00337993
-0.00132252
0.000717225
0.00140738
0.000853334
-0.000339253
-0.00165991
-0.00228865
-0.00198211
-0.00100613
-0.00029945
9.20635e-05
0.000229282
-0.0207889
-0.0150853
-0.0115134
-0.00590279
-0.00379725
-0.00325748
-0.00362691
-0.00304214
-0.00126669
0.00042655
0.000947841
0.000536152
-0.000324539
-0.00137864
-0.00192131
-0.00169863
-0.000887618
-0.000325799
-1.36556e-05
0.00016293
-0.0206042
-0.0148328
-0.0114512
-0.0062963
-0.00427784
-0.00331785
-0.00328194
-0.00265472
-0.00118256
0.000138709
0.000483244
0.000217512
-0.000307267
-0.00108706
-0.00153744
-0.00140208
-0.000764631
-0.000351985
-0.000121825
9.29752e-05
-0.0204621
-0.0145526
-0.0113525
-0.00669172
-0.00477396
-0.0033784
-0.00290933
-0.00222511
-0.00107385
-0.000143837
2.01678e-05
-9.79164e-05
-0.000285703
-0.000786796
-0.00113987
-0.00109419
-0.000636038
-0.000377871
-0.000232436
2.07242e-05
-0.0203705
-0.014252
-0.0112273
-0.00708072
-0.00526951
-0.00343263
-0.00251446
-0.00176215
-0.000944673
-0.000418576
-0.00043454
-0.000404808
-0.000258453
-0.000479943
-0.000732013
-0.000777638
-0.000502859
-0.000403762
-0.00034524
-5.34192e-05
-0.0203367
-0.0139462
-0.0110907
-0.0074554
-0.0057479
-0.00347451
-0.00210356
-0.00127607
-0.000799773
-0.000682973
-0.000874136
-0.000697846
-0.00022426
-0.000168791
-0.000317505
-0.000455497
-0.000366882
-0.000430063
-0.000459846
-0.000129142
-0.0203635
-0.0136428
-0.0109534
-0.00780791
-0.00619361
-0.00349879
-0.00168368
-0.000778361
-0.000644614
-0.000934843
-0.00129242
-0.00097218
-0.000181996
0.000144223
9.99398e-05
-0.000130875
-0.000229771
-0.000457077
-0.000575805
-0.000205997
-0.0204523
-0.013346
-0.0108206
-0.0081304
-0.00659305
-0.00350149
-0.0012625
-0.00028126
-0.000485018
-0.00117231
-0.00168389
-0.00122355
-0.000130704
0.000456595
0.000516608
0.000193128
-9.3011e-05
-0.000484995
-0.000692606
-0.000283436
-0.0206119
-0.0130684
-0.0106954
-0.00841739
-0.00693333
-0.003479
-0.000846967
0.000203181
-0.000326889
-0.00139391
-0.00204365
-0.00144817
-6.98125e-05
0.000766419
0.000928789
0.000513732
4.19792e-05
-0.000513989
-0.000809618
-0.000361019
-0.0208733
-0.0128228
-0.0106028
-0.00867542
-0.00720022
-0.00342634
-0.000441584
0.00066433
-0.000177018
-0.00160005
-0.00236753
-0.0016426
4.19867e-07
0.00107308
0.0013326
0.000829233
0.000173623
-0.000544668
-0.000926086
-0.000438886
-0.0202199
-0.0127564
-0.0105424
-0.00919828
-0.00761634
-0.00324827
0.000401217
0.00159524
0.000114076
-0.00201905
-0.00299171
-0.00199747
0.000172429
0.00172777
0.00218363
0.00149843
0.000449049
-0.000616549
-0.00117777
-0.000609181
-0.0175713
-0.0113831
-0.0100869
-0.00925776
-0.00753444
-0.00282027
0.00128975
0.00251418
0.000360916
-0.00243543
-0.0035323
-0.00219879
0.000524603
0.0025977
0.00329768
0.00236456
0.000805474
-0.000732545
-0.0015479
-0.000855057
-0.0146175
-0.0107817
-0.00964185
-0.00882003
-0.00687048
-0.00237895
0.00163073
0.00271895
0.000351667
-0.00262989
-0.00361604
-0.00206583
0.000918949
0.00325539
0.00410981
0.00300669
0.00105876
-0.000855389
-0.00187037
-0.00107074
-0.0114348
-0.00934732
-0.00860588
-0.00790556
-0.00600245
-0.00206643
0.00148037
0.00238914
0.000177548
-0.00258979
-0.00336499
-0.00171046
0.00127711
0.00365224
0.00457176
0.00338797
0.00119421
-0.000970269
-0.0021139
-0.00123632
-0.00908685
-0.00810707
-0.00757584
-0.00690326
-0.00516781
-0.00190469
0.00106343
0.0018397
-1.00059e-05
-0.00232989
-0.00287707
-0.00125116
0.00154134
0.00378158
0.00468816
0.00350699
0.00122268
-0.00105624
-0.00225328
-0.00133599
-0.00716076
-0.00692707
-0.00655423
-0.00592576
-0.00443449
-0.00180951
0.00058821
0.00127788
-0.000134726
-0.00192671
-0.00217283
-0.000788923
0.00168113
0.00367842
0.00451903
0.00340417
0.00117185
-0.00109216
-0.00227174
-0.00136057
-0.00566082
-0.00587497
-0.00564067
-0.00508395
-0.00383271
-0.00173704
0.000181342
0.000798403
-0.000193621
-0.00150381
-0.00161307
-0.000399144
0.00170312
0.00337435
0.00414953
0.00314615
0.00107803
-0.00106121
-0.00216481
-0.00130874
-0.00449516
-0.00496131
-0.00484527
-0.00436808
-0.00332729
-0.00166034
-0.000126516
0.000431373
-0.000216293
-0.00113359
-0.00113264
-0.000105562
0.00164149
0.00301049
0.00367496
0.00280514
0.000974999
-0.000956828
-0.00194474
-0.00117875
-0.00358504
-0.00417476
-0.00415044
-0.00375337
-0.00289544
-0.00156974
-0.000336156
0.00016634
-0.000222675
-0.000838557
-0.00075952
9.18649e-05
0.00152127
0.00262024
0.00317215
0.00243988
0.000885126
-0.000791714
-0.00164494
-0.00101008
-0.00287083
-0.00349865
-0.00354194
-0.00322127
-0.00251909
-0.00146332
-0.000466239
-1.75203e-05
-0.000222184
-0.000617564
-0.000487382
0.000212864
0.00137647
0.00224335
0.0026916
0.00208782
0.000812932
-0.000595175
-0.00131019
-0.000817239
-0.00230515
-0.00291829
-0.00300826
-0.00275624
-0.00218504
-0.00134371
-0.000535157
-0.000138398
-0.000217245
-0.000455719
-0.000295573
0.000276493
0.00122011
0.00189818
0.00225809
0.00176698
0.000750831
-0.000400661
-0.00098465
-0.000626224
-0.00185227
-0.00242036
-0.00253862
-0.00234557
-0.00188404
-0.00121421
-0.00055785
-0.000210951
-0.000207658
-0.000337837
-0.000164263
0.000300281
0.00106309
0.00159045
0.00187888
0.00148141
0.000689298
-0.000233582
-0.000700454
-0.000457361
-0.00148525
-0.00199221
-0.00212331
-0.00197924
-0.0016094
-0.00107783
-0.000546115
-0.00024687
-0.00019361
-0.000251969
-7.71937e-05
0.000297378
0.000911875
0.0013192
0.00155082
0.00122925
0.00062248
-0.000106082
-0.000472921
-0.000321121
-0.0011837
-0.00162213
-0.00175377
-0.00164917
-0.00135604
-0.000937092
-0.000509074
-0.000255365
-0.000175593
-0.000188982
-2.20068e-05
0.000276834
0.000769043
0.00108007
0.00126658
0.0010066
0.000548376
-1.95742e-05
-0.000303734
-0.000218946
-0.000932034
-0.00129956
-0.00142243
-0.00134871
-0.00111998
-0.00079392
-0.000453668
-0.000243518
-0.000154158
-0.000142103
1.03432e-05
0.000244695
0.000635047
0.000868281
0.0010183
0.000809024
0.000467702
3.13411e-05
-0.000185474
-0.000146391
-0.000718194
-0.00101512
-0.00112245
-0.0010722
-0.000897914
-0.000649672
-0.000385135
-0.000216703
-0.000129865
-0.000106375
2.64727e-05
0.000205115
0.000509298
0.000679199
0.000798695
0.00063234
0.000382805
5.49536e-05
-0.000107332
-9.66337e-05
-0.000532649
-0.00076055
-0.000847609
-0.000814731
-0.000687002
-0.000505188
-0.000307433
-0.000179066
-0.000103277
-7.80746e-05
3.12997e-05
0.000161124
0.000390601
0.000508334
0.000601279
0.000472678
0.000295839
5.95387e-05
-5.91054e-05
-6.33318e-05
-0.000367949
-0.000528661
-0.000592295
-0.00057204
-0.00048486
-0.000360983
-0.000223527
-0.00013399
-7.51994e-05
-5.46001e-05
2.85869e-05
0.000114824
0.00027778
0.00035158
0.000420182
0.000325723
0.000207956
5.15195e-05
-3.13941e-05
-4.02489e-05
-0.000216866
-0.000312914
-0.000351398
-0.000340362
-0.000289495
-0.00021773
-0.000135656
-8.40549e-05
-4.642e-05
-3.50787e-05
2.11025e-05
6.68202e-05
0.000169905
0.000204949
0.000251784
0.000187796
0.00011745
3.60947e-05
-2.05385e-05
-2.08201e-05
-7.51537e-05
-0.000106561
-0.000119133
-0.000115015
-9.76154e-05
-7.47278e-05
-4.56526e-05
-3.00617e-05
-1.59196e-05
-1.70823e-05
9.39408e-06
1.84955e-05
6.27487e-05
6.56258e-05
8.88308e-05
6.43889e-05
2.29837e-05
1.60354e-05
-1.93457e-05
-7.99009e-06
-0.0325427
-0.0322516
-0.0277332
-0.0253474
-0.0247138
-0.0245815
-0.0245148
-0.0244755
-0.0244778
-0.0243982
-0.00203884
-0.00614567
-0.00889441
-0.0111671
-0.0132774
-0.0151024
-0.0165074
-0.0174778
-0.0180521
-0.018322
-0.00317997
-0.00638528
-0.00844713
-0.00979509
-0.0108954
-0.0118768
-0.0127046
-0.0133471
-0.0138021
-0.0141063
-0.000861453
-0.00246916
-0.00377734
-0.0048624
-0.00584899
-0.00677247
-0.00761165
-0.00834368
-0.00895936
-0.00946948
-0.000270325
-0.001343
-0.00235246
-0.00326396
-0.00409629
-0.00486256
-0.00556083
-0.00618544
-0.00673244
-0.00720623
-0.000140409
-0.000877143
-0.0015827
-0.00223983
-0.0028554
-0.00343459
-0.00397643
-0.00447802
-0.00493702
-0.0053546
-4.78087e-05
-0.000577161
-0.00108981
-0.00158134
-0.00205479
-0.0025101
-0.00294435
-0.0033544
-0.00373773
-0.00409357
1.37217e-05
-0.000388816
-0.000780483
-0.00116029
-0.00153026
-0.00188958
-0.00223564
-0.00256605
-0.00287891
-0.00317339
5.2779e-05
-0.000261739
-0.00056771
-0.000865559
-0.00115735
-0.0014426
-0.00171941
-0.00198596
-0.00224081
-0.00248314
7.87513e-05
-0.000170641
-0.000413436
-0.000650492
-0.000883565
-0.00111235
-0.00133543
-0.00155142
-0.00175921
-0.00195808
9.51991e-05
-0.000104567
-0.000299368
-0.000489992
-0.000677766
-0.000862474
-0.00104308
-0.00121856
-0.0013881
-0.0015511
0.000103691
-5.72521e-05
-0.000214434
-0.000368488
-0.000520393
-0.000669994
-0.000816537
-0.000959275
-0.0010976
-0.00123104
0.000105373
-2.44349e-05
-0.000151352
-0.000275882
-0.000398754
-0.000519853
-0.000638624
-0.000754513
-0.000867082
-0.000975935
0.000101288
-2.94738e-06
-0.000104943
-0.0002051
-0.000303965
-0.000401451
-0.000497147
-0.000590641
-0.000681613
-0.000769753
9.23883e-05
9.65094e-06
-7.13502e-05
-0.000150938
-0.000229524
-0.00030704
-0.000383178
-0.000457635
-0.000530177
-0.000600566
7.95588e-05
1.5318e-05
-4.75744e-05
-0.000109394
-0.000170458
-0.000230712
-0.000289928
-0.000347879
-0.000404393
-0.000459293
6.37622e-05
1.57823e-05
-3.11991e-05
-7.73557e-05
-0.000122917
-0.00016786
-0.000212035
-0.00025529
-0.00029751
-0.000338577
4.62439e-05
1.31071e-05
-1.97147e-05
-5.20704e-05
-8.39438e-05
-0.000115302
-0.000146078
-0.000176187
-0.000205544
-0.00023406
2.62459e-05
7.84321e-06
-1.06318e-05
-2.91344e-05
-4.75125e-05
-6.56746e-05
-8.35609e-05
-0.00010113
-0.000118372
-0.000135286
-1.3358e-06
-1.06436e-05
-1.75987e-05
-2.33601e-05
-2.90331e-05
-3.48157e-05
-4.05423e-05
-4.60593e-05
-5.12535e-05
-5.6044e-05
0.00581579
0.00586366
0.00596922
0.00613153
0.00635813
0.00664665
0.0070144
0.00745506
0.00800399
0.0086422
0.00944367
0.0103535
0.0115339
0.0128151
0.0145781
0.016187
0.0186318
0.0186403
0.0183628
-0.0039071
0.00574089
0.00578625
0.00588532
0.00603772
0.0062493
0.00651817
0.0068571
0.00726131
0.00775561
0.00832502
0.00901679
0.00978724
0.0107244
0.0117003
0.0128622
0.0138227
0.0147073
0.0144867
0.0126923
0.00963552
0.00561849
0.00566053
0.00575125
0.00589086
0.0060831
0.00632677
0.00662939
0.00698797
0.00741548
0.00790212
0.00846728
0.00908276
0.00976893
0.0104496
0.0111087
0.0115663
0.0115983
0.0110403
0.00853009
0.00493199
0.00545251
0.00549053
0.0055716
0.00569634
0.00586648
0.00608122
0.00634332
0.00665093
0.00700698
0.00740532
0.0078441
0.00830652
0.0087694
0.00919474
0.0094853
0.0095871
0.00917382
0.0083168
0.00591369
0.00290442
0.00524737
0.00528089
0.00535162
0.00546029
0.00560706
0.00579102
0.00601141
0.00626645
0.00655229
0.00686401
0.00718755
0.0075115
0.00779369
0.00801433
0.00805982
0.00792037
0.00731838
0.00635146
0.00442754
0.0020271
0.00500784
0.00503664
0.00509688
0.00518917
0.00531254
0.00546566
0.00564554
0.00584967
0.00607058
0.00630283
0.00652764
0.0067344
0.00687906
0.00694592
0.00683946
0.00655436
0.00590765
0.00495011
0.00341003
0.00146278
0.00473884
0.00476293
0.00481299
0.00488933
0.00499031
0.00511403
0.00525628
0.00541362
0.00557719
0.00574035
0.00588429
0.00599731
0.00604175
0.00600107
0.00580731
0.00544778
0.00481726
0.00392762
0.00267329
0.00112652
0.00444518
0.00446478
0.00450531
0.00456675
0.00464709
0.00474392
0.00485257
0.00496874
0.00508355
0.00518938
0.00526949
0.0053114
0.00528584
0.00517589
0.0049365
0.00455075
0.00396284
0.0031703
0.00214075
0.000911804
0.00413139
0.00414689
0.0041788
0.0042268
0.00428875
0.00436189
0.00444152
0.00452284
0.00459762
0.00465784
0.00468945
0.00468021
0.00460839
0.00445804
0.00420003
0.00381844
0.0032849
0.00259529
0.00174441
0.000757488
0.00380163
0.00381351
0.00383785
0.00387413
0.00392022
0.00397319
0.00402858
0.00408147
0.00412452
0.00414996
0.0041463
0.00410246
0.00400238
0.00383239
0.00357362
0.00321365
0.00273822
0.00214538
0.00143902
0.000639348
0.00345957
0.00346835
0.00348625
0.00351264
0.00354546
0.00358183
0.00361765
0.00364821
0.00366709
0.00366725
0.00363939
0.00357402
0.00345921
0.00328406
0.00303621
0.00270698
0.00228933
0.00178366
0.0011966
0.000545075
0.00310833
0.00311456
0.00312717
0.00314546
0.00316756
0.00319075
0.00321136
0.0032251
0.00322648
0.00320937
0.00316632
0.0030895
0.00297002
0.00279962
0.00257013
0.00227591
0.00191375
0.00148563
0.000998589
0.000466585
0.00275053
0.00275472
0.00276312
0.00277504
0.00278879
0.00280193
0.00281127
0.00281302
0.00280259
0.00277482
0.00272375
0.00264315
0.0025264
0.00236744
0.00216086
0.00190323
0.00159344
0.00123422
0.000832097
0.000398363
0.00238826
0.00239089
0.00239607
0.00240317
0.00241073
0.00241661
0.0024181
0.00241199
0.00239448
0.00236136
0.00230792
0.00222931
0.00212066
0.0019776
0.00179658
0.00157568
0.0013149
0.00101716
0.000688117
0.000336771
0.0020231
0.0020246
0.00202746
0.00203112
0.00203436
0.00203538
0.00203194
0.00202138
0.00200066
0.0019664
0.00191497
0.00184267
0.00174593
0.00162171
0.00146769
0.00128291
0.00106794
0.000825508
0.000560343
0.000279462
0.00165626
0.00165698
0.00165828
0.00165967
0.00166017
0.00165833
0.00165236
0.00164013
0.00161928
0.00158718
0.00154108
0.00147826
0.00139615
0.00129265
0.00116633
0.00101676
0.000844745
0.000652654
0.000444286
0.000224954
0.00128854
0.00128879
0.00128914
0.00128922
0.00128828
0.00128519
0.00127859
0.00126688
0.00124827
0.00122084
0.00118257
0.00113152
0.00106593
0.000984378
0.000886002
0.000770702
0.000639253
0.000493571
0.000336605
0.000172301
0.000920446
0.000920457
0.000920357
0.00091988
0.000918484
0.000915387
0.000909619
0.000900063
0.000885478
0.000864541
0.000835896
0.000798245
0.000750433
0.000691586
0.000621207
0.000539342
0.000446608
0.000344365
0.000234663
0.000120642
0.00055226
0.0005522
0.000551999
0.000551496
0.000550365
0.000548137
0.00054423
0.000537983
0.000528661
0.00051549
0.000497685
0.000474501
0.00044529
0.000409579
0.000367124
0.000318017
0.000262687
0.000201931
0.000136757
6.90033e-05
0.000184083
0.000184052
0.000183961
0.000183754
0.00018332
0.0001825
0.000181096
0.000178883
0.000175614
0.00017103
0.000164866
0.000156879
0.000146857
0.000134654
0.000120199
0.000103543
8.48756e-05
6.46013e-05
4.31258e-05
1.92114e-05
0.00568719
0.00573499
0.00584468
0.00601036
0.00624558
0.00654013
0.00692473
0.00737528
0.0079569
0.00861151
0.00948101
0.0104244
0.0117636
0.0131453
0.0153441
0.0173847
0.0213287
0.0237203
0.0320126
0.0238706
0.00572224
0.00577017
0.00588104
0.00604789
0.00628559
0.00658255
0.00697225
0.0074273
0.0080192
0.00868253
0.00957402
0.0105366
0.0119278
0.013363
0.0157041
0.0179493
0.0223555
0.0258256
0.0351764
0.0345167
0.00575253
0.00580066
0.00591229
0.00608013
0.0063195
0.00661855
0.00701166
0.00747072
0.00806948
0.00874081
0.00964698
0.0106274
0.012054
0.0135385
0.0159799
0.0184085
0.0231441
0.0274726
0.0373476
0.0413247
0.00577811
0.00582638
0.00593849
0.006107
0.00634746
0.00664791
0.00704325
0.00750505
0.00810833
0.00878518
0.00970111
0.010694
0.0121442
0.0136637
0.0161729
0.0187339
0.0236903
0.0286138
0.0388387
0.0454299
0.00579897
0.00584731
0.00595965
0.00612846
0.00636943
0.00667056
0.00706698
0.00753014
0.00813566
0.00881532
0.00973617
0.0107355
0.0121976
0.0137352
0.016279
0.0189103
0.0239813
0.0292264
0.0396334
0.0474962
0.00581509
0.00586343
0.00597573
0.00614451
0.00638539
0.00668648
0.00708279
0.00754595
0.00815135
0.00883115
0.00975184
0.0107516
0.0122132
0.0137516
0.0162947
0.0189301
0.0240071
0.0292931
0.0397301
0.0478032
0.00582648
0.00587476
0.00598674
0.00615513
0.00639533
0.00669567
0.00709067
0.00755249
0.00815539
0.00883268
0.00974812
0.0107422
0.0121911
0.0137128
0.0162196
0.0187923
0.0237663
0.0288099
0.0391267
0.0463837
0.00583315
0.0058813
0.00599271
0.00616035
0.0063993
0.00669815
0.0070907
0.00754979
0.00814793
0.00881996
0.00972538
0.0107077
0.0121323
0.0136202
0.0160575
0.0185027
0.0232663
0.0277864
0.0378297
0.0430443
0.00583512
0.00588309
0.00599364
0.00616021
0.00639732
0.006694
0.00708291
0.007538
0.00812904
0.00879337
0.00968381
0.0106491
0.0120377
0.0134773
0.0158114
0.0180739
0.0225126
0.0262255
0.0358829
0.0373045
0.00583232
0.00588019
0.00598946
0.00615478
0.00638919
0.00668344
0.00706693
0.00751763
0.00809794
0.00875411
0.00962186
0.0105694
0.0119043
0.0132929
0.0154772
0.0175319
0.0214779
0.0241065
0.0329531
0.0281375
)
;

boundaryField
{
    inlet
    {
        type            zeroGradient;
    }
    outlet
    {
        type            fixedValue;
        value           uniform 0;
    }
    upAndBottom
    {
        type            empty;
    }
    obstacle
    {
        type            zeroGradient;
    }
}


// ************************************************************************* //
