/*--------------------------------*- C++ -*----------------------------------*\
| =========                 |                                                 |
| \\      /  F ield         | OpenFOAM: The Open Source CFD Toolbox           |
|  \\    /   O peration     | Version:  v1806                                 |
|   \\  /    A nd           | Web:      www.OpenFOAM.com                      |
|    \\/     M anipulation  |                                                 |
\*---------------------------------------------------------------------------*/
FoamFile
{
    version     2.0;
    format      ascii;
    class       volVectorField;
    location    "270";
    object      U;
}
// * * * * * * * * * * * * * * * * * * * * * * * * * * * * * * * * * * * * * //

dimensions      [0 1 -1 0 0 0 0];


internalField   nonuniform List<vector> 
2400
(
(0.299999 1.9459e-05 0)
(0.299994 -0.000416561 0)
(0.29999 -0.000369106 0)
(0.299978 -0.000875545 0)
(0.299969 -0.000845243 0)
(0.299939 -0.00150212 0)
(0.29992 -0.00154223 0)
(0.299868 -0.00236101 0)
(0.299839 -0.00257597 0)
(0.299757 -0.00368378 0)
(0.299701 -0.00416006 0)
(0.299583 -0.00552485 0)
(0.299511 -0.00643268 0)
(0.299358 -0.00819416 0)
(0.299254 -0.00956365 0)
(0.299104 -0.0114764 0)
(0.299029 -0.0131886 0)
(0.298959 -0.0149989 0)
(0.298982 -0.0163775 0)
(0.299103 -0.0172352 0)
(0.299996 2.38456e-05 0)
(0.299989 -0.000420234 0)
(0.299977 -0.000357771 0)
(0.299961 -0.000877671 0)
(0.299936 -0.000826134 0)
(0.299895 -0.00150236 0)
(0.299854 -0.00151116 0)
(0.299783 -0.00235877 0)
(0.299725 -0.00252985 0)
(0.299611 -0.00367561 0)
(0.299522 -0.00409315 0)
(0.299357 -0.00551197 0)
(0.299252 -0.00634958 0)
(0.299045 -0.00817323 0)
(0.298929 -0.00947708 0)
(0.298747 -0.0114636 0)
(0.298721 -0.0131472 0)
(0.298711 -0.0150199 0)
(0.298886 -0.0164295 0)
(0.29921 -0.0173253 0)
(0.299992 3.11539e-05 0)
(0.299984 -0.000425804 0)
(0.299961 -0.000338861 0)
(0.29994 -0.000880757 0)
(0.299895 -0.000794253 0)
(0.299839 -0.00150315 0)
(0.29977 -0.00146066 0)
(0.29967 -0.00235704 0)
(0.299575 -0.00245532 0)
(0.299415 -0.003668 0)
(0.29928 -0.00398775 0)
(0.299046 -0.00550148 0)
(0.298896 -0.00621929 0)
(0.298605 -0.0081612 0)
(0.298465 -0.00934866 0)
(0.298221 -0.0114791 0)
(0.298244 -0.0131012 0)
(0.298281 -0.0151061 0)
(0.298638 -0.016553 0)
(0.299203 -0.0175271 0)
(0.299989 4.15454e-05 0)
(0.29998 -0.000433336 0)
(0.299946 -0.00031206 0)
(0.299919 -0.000884701 0)
(0.299854 -0.000749137 0)
(0.299782 -0.00150441 0)
(0.299681 -0.00138967 0)
(0.299552 -0.00235563 0)
(0.299416 -0.00235078 0)
(0.299204 -0.00366128 0)
(0.299018 -0.00384052 0)
(0.298708 -0.00549444 0)
(0.298505 -0.00603679 0)
(0.298114 -0.00816152 0)
(0.297944 -0.00916893 0)
(0.297612 -0.0115287 0)
(0.297683 -0.0130398 0)
(0.297739 -0.0152663 0)
(0.298293 -0.0167487 0)
(0.299109 -0.0178364 0)
(0.299985 5.44734e-05 0)
(0.299978 -0.000442244 0)
(0.299931 -0.000277838 0)
(0.299899 -0.000888656 0)
(0.299813 -0.000691157 0)
(0.299725 -0.0015047 0)
(0.299593 -0.0012981 0)
(0.299434 -0.00235249 0)
(0.299256 -0.00221518 0)
(0.298993 -0.00365242 0)
(0.298752 -0.00364837 0)
(0.298362 -0.00548765 0)
(0.298101 -0.00579497 0)
(0.297602 -0.00817131 0)
(0.297395 -0.00892328 0)
(0.29695 -0.011614 0)
(0.297072 -0.0129401 0)
(0.297108 -0.0155093 0)
(0.297886 -0.0170008 0)
(0.298951 -0.0182697 0)
(0.299982 6.92138e-05 0)
(0.299976 -0.000451534 0)
(0.299917 -0.000237338 0)
(0.299881 -0.000891433 0)
(0.299773 -0.00062179 0)
(0.299671 -0.00150242 0)
(0.299507 -0.00118769 0)
(0.299319 -0.00234557 0)
(0.299097 -0.00205003 0)
(0.298785 -0.003639 0)
(0.298487 -0.00341173 0)
(0.298018 -0.00547873 0)
(0.297692 -0.00549034 0)
(0.297077 -0.00818981 0)
(0.296828 -0.00860061 0)
(0.296246 -0.0117392 0)
(0.29642 -0.0127795 0)
(0.296387 -0.0158518 0)
(0.297429 -0.0172899 0)
(0.298729 -0.018852 0)
(0.29998 8.49296e-05 0)
(0.299976 -0.000460072 0)
(0.299904 -0.000191963 0)
(0.299864 -0.000891691 0)
(0.299734 -0.000542963 0)
(0.299619 -0.00149587 0)
(0.299424 -0.00106088 0)
(0.29921 -0.00233274 0)
(0.298943 -0.00185797 0)
(0.298583 -0.00361862 0)
(0.298225 -0.00313259 0)
(0.297678 -0.00546508 0)
(0.297283 -0.00512165 0)
(0.296545 -0.00821548 0)
(0.296244 -0.0081915 0)
(0.295498 -0.0119078 0)
(0.295724 -0.0125342 0)
(0.295562 -0.0163127 0)
(0.296919 -0.0175904 0)
(0.298425 -0.0196167 0)
(0.299977 0.000100656 0)
(0.299978 -0.000466567 0)
(0.299893 -0.000143352 0)
(0.299849 -0.000887873 0)
(0.299698 -0.000456947 0)
(0.299572 -0.001483 0)
(0.299344 -0.000920638 0)
(0.299107 -0.00231142 0)
(0.298793 -0.00164248 0)
(0.29839 -0.00358803 0)
(0.297968 -0.00281418 0)
(0.297345 -0.00544269 0)
(0.296873 -0.00468942 0)
(0.296007 -0.00824401 0)
(0.295642 -0.00768826 0)
(0.294705 -0.012119 0)
(0.294976 -0.0121802 0)
(0.294615 -0.0169103 0)
(0.296349 -0.0178709 0)
(0.298 -0.020609 0)
(0.299974 0.000115308 0)
(0.299983 -0.000469544 0)
(0.299882 -9.34079e-05 0)
(0.299838 -0.000878175 0)
(0.299662 -0.000366408 0)
(0.299529 -0.00146139 0)
(0.299267 -0.000770553 0)
(0.299011 -0.0022784 0)
(0.298649 -0.001408 0)
(0.298206 -0.00354293 0)
(0.297718 -0.00246122 0)
(0.297021 -0.00540565 0)
(0.296464 -0.00419631 0)
(0.295467 -0.00826757 0)
(0.29502 -0.00708575 0)
(0.293867 -0.0123666 0)
(0.294165 -0.0116943 0)
(0.293527 -0.0176595 0)
(0.295705 -0.0180953 0)
(0.297401 -0.0218883 0)
(0.29997 0.000127685 0)
(0.299993 -0.000467324 0)
(0.29987 -4.43368e-05 0)
(0.299831 -0.000860517 0)
(0.299626 -0.000274474 0)
(0.299494 -0.00142814 0)
(0.299191 -0.000614935 0)
(0.298926 -0.00222972 0)
(0.298508 -0.00116009 0)
(0.298036 -0.00347786 0)
(0.297473 -0.00208018 0)
(0.296712 -0.00534603 0)
(0.296057 -0.0036477 0)
(0.294929 -0.00827455 0)
(0.294377 -0.00638226 0)
(0.292985 -0.0126374 0)
(0.293277 -0.011055 0)
(0.292281 -0.0185696 0)
(0.294963 -0.0182226 0)
(0.296559 -0.0235331 0)
(0.299963 0.000136463 0)
(0.300009 -0.000458008 0)
(0.299854 1.37352e-06 0)
(0.299833 -0.000832436 0)
(0.299586 -0.000184824 0)
(0.299472 -0.00137974 0)
(0.299112 -0.000458987 0)
(0.298859 -0.00216047 0)
(0.298365 -0.000905726 0)
(0.297888 -0.00338591 0)
(0.297228 -0.00167963 0)
(0.296426 -0.00525369 0)
(0.295646 -0.00305207 0)
(0.294403 -0.00824943 0)
(0.293709 -0.00558017 0)
(0.292066 -0.0129102 0)
(0.292298 -0.0102437 0)
(0.290863 -0.0196403 0)
(0.294091 -0.0182045 0)
(0.295388 -0.0256501 0)
(0.299952 0.000140188 0)
(0.300033 -0.000439407 0)
(0.299833 4.08022e-05 0)
(0.299847 -0.00079098 0)
(0.299537 -0.000101895 0)
(0.299469 -0.00131181 0)
(0.299021 -0.000309183 0)
(0.298819 -0.00206436 0)
(0.298209 -0.00065383 0)
(0.297778 -0.00325816 0)
(0.296968 -0.00127093 0)
(0.296184 -0.00511571 0)
(0.295217 -0.00242172 0)
(0.293912 -0.00817258 0)
(0.293002 -0.00468687 0)
(0.291128 -0.0131555 0)
(0.291209 -0.00924445 0)
(0.289264 -0.0208595 0)
(0.293042 -0.0179805 0)
(0.293789 -0.0283918 0)
(0.299937 0.000137386 0)
(0.300065 -0.000409162 0)
(0.299805 7.06241e-05 0)
(0.299875 -0.000732635 0)
(0.299476 -3.11526e-05 0)
(0.29949 -0.00121887 0)
(0.298913 -0.000173948 0)
(0.298819 -0.00193291 0)
(0.298025 -0.000416606 0)
(0.297728 -0.00308209 0)
(0.296669 -0.000870174 0)
(0.296023 -0.00491446 0)
(0.294733 -0.00177463 0)
(0.293509 -0.00801879 0)
(0.292212 -0.00371628 0)
(0.290227 -0.0133361 0)
(0.289964 -0.00804503 0)
(0.287503 -0.0221991 0)
(0.291752 -0.017473 0)
(0.291644 -0.0319506 0)
(0.299923 0.000126827 0)
(0.300101 -0.000365283 0)
(0.299774 8.78527e-05 0)
(0.299912 -0.000654057 0)
(0.299406 2.24358e-05 0)
(0.299534 -0.00109439 0)
(0.298783 -6.31895e-05 0)
(0.298864 -0.00175496 0)
(0.297801 -0.000211104 0)
(0.297757 -0.00283928 0)
(0.296299 -0.000502712 0)
(0.295989 -0.00462251 0)
(0.294133 -0.00114077 0)
(0.293281 -0.00775022 0)
(0.29124 -0.00269354 0)
(0.289494 -0.0134044 0)
(0.288439 -0.00664304 0)
(0.285683 -0.0236128 0)
(0.290106 -0.0165935 0)
(0.288798 -0.0364978 0)
(0.299917 0.00010791 0)
(0.300128 -0.000306669 0)
(0.299749 9.04456e-05 0)
(0.299946 -0.000552907 0)
(0.29934 5.48135e-05 0)
(0.299584 -0.000933451 0)
(0.298648 1.49439e-05 0)
(0.298939 -0.00151918 0)
(0.297548 -5.54291e-05 0)
(0.297862 -0.00250636 0)
(0.29585 -0.000204843 0)
(0.296111 -0.00419503 0)
(0.293359 -0.00057937 0)
(0.293326 -0.00729863 0)
(0.289932 -0.00167447 0)
(0.289147 -0.0132814 0)
(0.286336 -0.00505405 0)
(0.284125 -0.0250641 0)
(0.287797 -0.015211 0)
(0.285152 -0.0423641 0)
(0.29993 8.12396e-05 0)
(0.30013 -0.000233787 0)
(0.29975 7.80965e-05 0)
(0.29995 -0.000429042 0)
(0.299308 6.40663e-05 0)
(0.299604 -0.000734727 0)
(0.29855 5.61452e-05 0)
(0.298992 -0.00122012 0)
(0.297326 4.02468e-05 0)
(0.297978 -0.00206471 0)
(0.295391 -7.84457e-06 0)
(0.296329 -0.00358092 0)
(0.292451 -0.000175289 0)
(0.293653 -0.00655037 0)
(0.288184 -0.00079624 0)
(0.289396 -0.0127843 0)
(0.283179 -0.00335281 0)
(0.283464 -0.0265137 0)
(0.283849 -0.0131014 0)
(0.281129 -0.0505167 0)
(0.299972 4.90384e-05 0)
(0.300088 -0.00014941 0)
(0.299796 5.31914e-05 0)
(0.299894 -0.000286265 0)
(0.299347 5.32523e-05 0)
(0.299543 -0.000502481 0)
(0.298558 6.26131e-05 0)
(0.298939 -0.000862036 0)
(0.297248 7.66283e-05 0)
(0.297964 -0.00151528 0)
(0.295106 8.57507e-05 0)
(0.296426 -0.00276241 0)
(0.291674 4.75652e-05 0)
(0.293994 -0.00538604 0)
(0.286255 -0.00023976 0)
(0.290086 -0.011561 0)
(0.278697 -0.00179783 0)
(0.284263 -0.0275439 0)
(0.276078 -0.0101507 0)
(0.278842 -0.0623582 0)
(0.300048 1.45959e-05 0)
(0.299992 -5.8593e-05 0)
(0.2999 2.00433e-05 0)
(0.299759 -0.000131973 0)
(0.299485 2.73473e-05 0)
(0.299359 -0.000249525 0)
(0.298731 4.22549e-05 0)
(0.298693 -0.000462124 0)
(0.297442 6.17103e-05 0)
(0.297653 -0.000880007 0)
(0.295253 7.6612e-05 0)
(0.296073 -0.00175583 0)
(0.291551 4.59892e-05 0)
(0.293701 -0.00380153 0)
(0.285103 -0.000144092 0)
(0.290182 -0.00929205 0)
(0.274029 -0.000998576 0)
(0.285491 -0.0268175 0)
(0.262214 -0.00632954 0)
(0.282135 -0.0780365 0)
(0.300149 -1.43328e-05 0)
(0.299852 2.91747e-05 0)
(0.300052 -7.9005e-06 0)
(0.299554 2.20632e-05 0)
(0.299715 1.27558e-05 0)
(0.299056 6.88354e-06 0)
(0.299075 3.29302e-05 0)
(0.298238 -5.48908e-05 0)
(0.297949 5.79776e-05 0)
(0.296963 -0.00022414 0)
(0.295984 7.44253e-05 0)
(0.295017 -0.000677693 0)
(0.292525 3.55655e-05 0)
(0.292104 -0.00192921 0)
(0.286052 -0.000234793 0)
(0.287844 -0.0058772 0)
(0.272733 -0.00137623 0)
(0.282901 -0.0219211 0)
(0.246546 -0.00610209 0)
(0.290708 -0.0980249 0)
(0.300251 -4.0098e-05 0)
(0.299701 0.000118286 0)
(0.300216 -4.17769e-05 0)
(0.299332 0.00017429 0)
(0.299981 -1.20009e-05 0)
(0.298709 0.000260825 0)
(0.2995 1.32711e-05 0)
(0.297686 0.00035462 0)
(0.298635 3.95498e-05 0)
(0.296059 0.000447443 0)
(0.297106 4.57095e-05 0)
(0.29349 0.0004469 0)
(0.294404 -3.27566e-05 0)
(0.289356 6.77073e-05 0)
(0.28926 -0.000438461 0)
(0.282378 -0.00202712 0)
(0.277936 -0.00172327 0)
(0.269874 -0.0143971 0)
(0.247435 -0.00646542 0)
(0.286439 -0.140488 0)
(0.299244 -0.017245 0)
(0.299271 -0.0172374 0)
(0.299296 -0.0172212 0)
(0.29932 -0.0171972 0)
(0.299344 -0.0171657 0)
(0.299369 -0.0171265 0)
(0.299394 -0.0170798 0)
(0.299419 -0.0170257 0)
(0.299445 -0.0169643 0)
(0.29947 -0.0168961 0)
(0.299472 -0.0173637 0)
(0.299521 -0.0173618 0)
(0.299567 -0.0173511 0)
(0.299613 -0.0173317 0)
(0.299658 -0.0173038 0)
(0.299704 -0.0172674 0)
(0.299751 -0.0172226 0)
(0.299797 -0.0171698 0)
(0.299842 -0.0171089 0)
(0.299887 -0.0170404 0)
(0.299639 -0.017572 0)
(0.299721 -0.0175702 0)
(0.299799 -0.0175586 0)
(0.299874 -0.0175377 0)
(0.299949 -0.0175075 0)
(0.300024 -0.0174684 0)
(0.300099 -0.0174203 0)
(0.300172 -0.0173636 0)
(0.300243 -0.0172985 0)
(0.300313 -0.0172253 0)
(0.299736 -0.0178929 0)
(0.299855 -0.0178925 0)
(0.299968 -0.0178811 0)
(0.300078 -0.0178591 0)
(0.300186 -0.0178268 0)
(0.300294 -0.0177843 0)
(0.300401 -0.0177319 0)
(0.300506 -0.0176696 0)
(0.300609 -0.0175979 0)
(0.300708 -0.0175171 0)
(0.299794 -0.0183428 0)
(0.299954 -0.0183436 0)
(0.300108 -0.0183315 0)
(0.300258 -0.0183069 0)
(0.300405 -0.0182701 0)
(0.300551 -0.0182215 0)
(0.300696 -0.0181613 0)
(0.300837 -0.0180897 0)
(0.300974 -0.0180072 0)
(0.301108 -0.0179143 0)
(0.299828 -0.0189451 0)
(0.300039 -0.0189466 0)
(0.300241 -0.0189322 0)
(0.300438 -0.0189027 0)
(0.300631 -0.0188587 0)
(0.300822 -0.0188007 0)
(0.30101 -0.0187288 0)
(0.301193 -0.0186436 0)
(0.301372 -0.0185455 0)
(0.301544 -0.0184354 0)
(0.299848 -0.0197324 0)
(0.300121 -0.0197329 0)
(0.300384 -0.0197132 0)
(0.300636 -0.0196751 0)
(0.300884 -0.0196197 0)
(0.301129 -0.0195473 0)
(0.301368 -0.0194584 0)
(0.301602 -0.0193536 0)
(0.301828 -0.0192335 0)
(0.302046 -0.0190991 0)
(0.299857 -0.020747 0)
(0.300214 -0.0207436 0)
(0.300552 -0.0207138 0)
(0.300873 -0.0206615 0)
(0.301187 -0.0205884 0)
(0.301495 -0.0204948 0)
(0.301797 -0.0203812 0)
(0.30209 -0.0202484 0)
(0.302373 -0.0200974 0)
(0.302644 -0.0199296 0)
(0.299865 -0.0220438 0)
(0.300335 -0.0220313 0)
(0.300768 -0.021984 0)
(0.301173 -0.0219091 0)
(0.301566 -0.0218092 0)
(0.301952 -0.0216845 0)
(0.302329 -0.0215356 0)
(0.302694 -0.0213635 0)
(0.303044 -0.0211695 0)
(0.303378 -0.0209558 0)
(0.299885 -0.0236921 0)
(0.300511 -0.0236625 0)
(0.301067 -0.0235867 0)
(0.301573 -0.0234772 0)
(0.302061 -0.0233376 0)
(0.302541 -0.0231681 0)
(0.303009 -0.022969 0)
(0.30346 -0.022742 0)
(0.30389 -0.0224887 0)
(0.304299 -0.0222121 0)
(0.299942 -0.0257806 0)
(0.300783 -0.0257211 0)
(0.301497 -0.0256009 0)
(0.302125 -0.0254394 0)
(0.302728 -0.0252421 0)
(0.303323 -0.0250083 0)
(0.303901 -0.0247386 0)
(0.304456 -0.024435 0)
(0.304981 -0.0241002 0)
(0.305477 -0.0237381 0)
(0.300081 -0.0284266 0)
(0.301214 -0.0283161 0)
(0.302127 -0.028127 0)
(0.302904 -0.0278884 0)
(0.303645 -0.027607 0)
(0.304379 -0.0272815 0)
(0.305093 -0.0269122 0)
(0.305771 -0.0265023 0)
(0.30641 -0.0260553 0)
(0.307009 -0.0255767 0)
(0.300378 -0.0317782 0)
(0.301902 -0.0315855 0)
(0.303065 -0.0312933 0)
(0.304019 -0.0309423 0)
(0.304929 -0.0305405 0)
(0.305834 -0.0300855 0)
(0.306713 -0.0295774 0)
(0.307542 -0.0290206 0)
(0.308317 -0.0284201 0)
(0.309036 -0.0277834 0)
(0.300953 -0.0359885 0)
(0.303 -0.0356778 0)
(0.30448 -0.0352409 0)
(0.305655 -0.0347325 0)
(0.306778 -0.0341624 0)
(0.307901 -0.0335274 0)
(0.30899 -0.0328285 0)
(0.310011 -0.0320716 0)
(0.310957 -0.0312633 0)
(0.311826 -0.0304141 0)
(0.302097 -0.0413431 0)
(0.304857 -0.0408696 0)
(0.306769 -0.0402385 0)
(0.308251 -0.0395169 0)
(0.309667 -0.0387153 0)
(0.311086 -0.03783 0)
(0.312454 -0.0368638 0)
(0.313726 -0.0358261 0)
(0.314892 -0.0347268 0)
(0.315953 -0.0335814 0)
(0.30472 -0.0483818 0)
(0.308429 -0.0476279 0)
(0.310924 -0.0467031 0)
(0.312838 -0.0456856 0)
(0.314663 -0.0445775 0)
(0.316475 -0.0433668 0)
(0.318192 -0.042053 0)
(0.319752 -0.0406468 0)
(0.321141 -0.039158 0)
(0.322359 -0.0376116 0)
(0.310882 -0.0579353 0)
(0.315576 -0.0565788 0)
(0.318507 -0.0549763 0)
(0.320661 -0.0532733 0)
(0.322702 -0.0514848 0)
(0.324704 -0.0495927 0)
(0.326542 -0.0475922 0)
(0.32813 -0.0454961 0)
(0.329452 -0.0433132 0)
(0.330522 -0.0410905 0)
(0.321592 -0.0709734 0)
(0.326927 -0.0690286 0)
(0.329442 -0.0667637 0)
(0.330613 -0.0642717 0)
(0.331492 -0.0615538 0)
(0.332249 -0.0586174 0)
(0.332738 -0.0554887 0)
(0.332853 -0.0522004 0)
(0.332594 -0.0487519 0)
(0.331965 -0.0452366 0)
(0.319625 -0.0723024 0)
(0.321608 -0.0673136 0)
(0.320153 -0.0630248 0)
(0.317354 -0.0591247 0)
(0.314305 -0.0553088 0)
(0.311093 -0.0514894 0)
(0.307595 -0.0476666 0)
(0.303814 -0.0438386 0)
(0.299885 -0.0399696 0)
(0.29567 -0.0360764 0)
(0.257867 -0.0815788 0)
(0.241564 -0.0707906 0)
(0.221293 -0.0613367 0)
(0.203631 -0.0529504 0)
(0.188901 -0.0453515 0)
(0.175954 -0.0384683 0)
(0.164255 -0.032294 0)
(0.15377 -0.0267812 0)
(0.144378 -0.0217284 0)
(0.135706 -0.0161436 0)
(0.299517 -0.0167551 0)
(0.29959 -0.0165003 0)
(0.299664 -0.0162029 0)
(0.299735 -0.0158697 0)
(0.299802 -0.0155084 0)
(0.299862 -0.0151271 0)
(0.299916 -0.0147339 0)
(0.299963 -0.0143363 0)
(0.300004 -0.0139416 0)
(0.300035 -0.0135566 0)
(0.300061 -0.0131877 0)
(0.300077 -0.0128407 0)
(0.300088 -0.0125205 0)
(0.300088 -0.0122326 0)
(0.300087 -0.0119795 0)
(0.300071 -0.0117675 0)
(0.300062 -0.0115947 0)
(0.300027 -0.011472 0)
(0.300017 -0.0113867 0)
(0.29996 -0.0113645 0)
(0.299971 -0.0168962 0)
(0.300083 -0.016633 0)
(0.300184 -0.0163256 0)
(0.300274 -0.0159813 0)
(0.300349 -0.015608 0)
(0.30041 -0.0152137 0)
(0.300455 -0.0148068 0)
(0.300484 -0.0143951 0)
(0.3005 -0.0139863 0)
(0.3005 -0.0135874 0)
(0.300488 -0.0132049 0)
(0.300461 -0.0128449 0)
(0.300427 -0.0125125 0)
(0.300377 -0.012213 0)
(0.300328 -0.0119494 0)
(0.300254 -0.0117274 0)
(0.3002 -0.0115462 0)
(0.3001 -0.0114149 0)
(0.300058 -0.0113238 0)
(0.299915 -0.0112941 0)
(0.30044 -0.0170727 0)
(0.300611 -0.0167938 0)
(0.300762 -0.0164668 0)
(0.30089 -0.0161 0)
(0.300992 -0.0157021 0)
(0.301068 -0.0152824 0)
(0.301118 -0.0148498 0)
(0.301141 -0.0144129 0)
(0.30114 -0.0139799 0)
(0.301114 -0.0135582 0)
(0.301069 -0.0131548 0)
(0.301 -0.0127758 0)
(0.300921 -0.0124264 0)
(0.300815 -0.0121118 0)
(0.300713 -0.0118355 0)
(0.300573 -0.0116023 0)
(0.300467 -0.0114125 0)
(0.300286 -0.0112734 0)
(0.300206 -0.011178 0)
(0.299953 -0.0111436 0)
(0.30089 -0.0173476 0)
(0.301129 -0.0170377 0)
(0.301339 -0.016675 0)
(0.301513 -0.0162692 0)
(0.30165 -0.0158307 0)
(0.301747 -0.0153696 0)
(0.301806 -0.0148964 0)
(0.301826 -0.0144204 0)
(0.301812 -0.0139505 0)
(0.301762 -0.0134945 0)
(0.301686 -0.0130599 0)
(0.301577 -0.0126528 0)
(0.301453 -0.0122789 0)
(0.301293 -0.011943 0)
(0.301139 -0.0116487 0)
(0.300932 -0.0114003 0)
(0.300773 -0.0111988 0)
(0.30051 -0.0110501 0)
(0.300391 -0.010949 0)
(0.300025 -0.0109091 0)
(0.30135 -0.0177196 0)
(0.301667 -0.0173647 0)
(0.301942 -0.016951 0)
(0.302167 -0.0164901 0)
(0.30234 -0.0159946 0)
(0.302459 -0.0154764 0)
(0.302526 -0.0149473 0)
(0.302542 -0.0144178 0)
(0.302513 -0.0138979 0)
(0.302438 -0.0133959 0)
(0.302328 -0.0129197 0)
(0.302175 -0.0124755 0)
(0.302003 -0.0120692 0)
(0.301786 -0.0117053 0)
(0.301577 -0.0113877 0)
(0.301301 -0.0111199 0)
(0.301088 -0.0109033 0)
(0.300738 -0.0107423 0)
(0.300579 -0.0106338 0)
(0.300097 -0.0105875 0)
(0.301856 -0.0182049 0)
(0.302261 -0.017787 0)
(0.302606 -0.0173031 0)
(0.302886 -0.0167677 0)
(0.303097 -0.0161958 0)
(0.303237 -0.0156018 0)
(0.30331 -0.0149994 0)
(0.303318 -0.0144007 0)
(0.303268 -0.0138165 0)
(0.30316 -0.0132559 0)
(0.30301 -0.0127273 0)
(0.302807 -0.0122369 0)
(0.302582 -0.0117906 0)
(0.302301 -0.0113925 0)
(0.302033 -0.0110465 0)
(0.30168 -0.0107552 0)
(0.301409 -0.0105207 0)
(0.300968 -0.0103453 0)
(0.300767 -0.0102279 0)
(0.30016 -0.0101748 0)
(0.302438 -0.0188188 0)
(0.302943 -0.0183155 0)
(0.303368 -0.0177378 0)
(0.303706 -0.017104 0)
(0.303954 -0.0164328 0)
(0.304113 -0.0157416 0)
(0.304186 -0.0150464 0)
(0.304178 -0.0143609 0)
(0.3041 -0.0136972 0)
(0.303951 -0.0130651 0)
(0.303752 -0.0124731 0)
(0.30349 -0.0119274 0)
(0.303203 -0.0114339 0)
(0.30285 -0.0109958 0)
(0.302514 -0.010617 0)
(0.302079 -0.0102989 0)
(0.301744 -0.010044 0)
(0.301204 -0.00985266 0)
(0.300958 -0.00972538 0)
(0.300219 -0.00966497 0)
(0.303131 -0.019581 0)
(0.303749 -0.0189633 0)
(0.304262 -0.018262 0)
(0.304661 -0.0175008 0)
(0.304946 -0.0167029 0)
(0.305116 -0.0158894 0)
(0.305182 -0.0150791 0)
(0.305148 -0.0142875 0)
(0.30503 -0.013528 0)
(0.304829 -0.0128107 0)
(0.304569 -0.0121444 0)
(0.304237 -0.0115348 0)
(0.303878 -0.0109873 0)
(0.303443 -0.0105044 0)
(0.303031 -0.0100892 0)
(0.302504 -0.00974184 0)
(0.302099 -0.00946466 0)
(0.301452 -0.0092565 0)
(0.301156 -0.00911873 0)
(0.300275 -0.00905109 0)
(0.303975 -0.0205146 0)
(0.304722 -0.0197446 0)
(0.305331 -0.0188821 0)
(0.305793 -0.0179575 0)
(0.306108 -0.0169997 0)
(0.306282 -0.0160345 0)
(0.306327 -0.0150837 0)
(0.306254 -0.0141649 0)
(0.306081 -0.0132922 0)
(0.305812 -0.0124762 0)
(0.305476 -0.011725 0)
(0.305059 -0.0110438 0)
(0.304615 -0.0104369 0)
(0.304087 -0.00990529 0)
(0.303589 -0.00945128 0)
(0.30296 -0.00907347 0)
(0.302477 -0.00877344 0)
(0.301715 -0.0085484 0)
(0.301366 -0.0084001 0)
(0.300333 -0.00832576 0)
(0.305025 -0.0216454 0)
(0.305918 -0.0206739 0)
(0.306628 -0.019602 0)
(0.30715 -0.0184691 0)
(0.307486 -0.0173115 0)
(0.307648 -0.0161603 0)
(0.307656 -0.0150407 0)
(0.307522 -0.0139718 0)
(0.307274 -0.0129684 0)
(0.306918 -0.0120403 0)
(0.306488 -0.011195 0)
(0.30597 -0.0104359 0)
(0.305426 -0.00976584 0)
(0.30479 -0.00918386 0)
(0.304196 -0.00869055 0)
(0.303456 -0.00828269 0)
(0.302888 -0.00796063 0)
(0.302002 -0.00771988 0)
(0.301595 -0.00756187 0)
(0.300402 -0.00748184 0)
(0.306353 -0.0230019 0)
(0.307408 -0.0217641 0)
(0.308223 -0.0204211 0)
(0.308795 -0.019024 0)
(0.309136 -0.0176186 0)
(0.309264 -0.0162419 0)
(0.309208 -0.0149223 0)
(0.308989 -0.0136797 0)
(0.30864 -0.0125284 0)
(0.308172 -0.0114767 0)
(0.307627 -0.0105302 0)
(0.306988 -0.00968969 0)
(0.306327 -0.0089555 0)
(0.305569 -0.00832395 0)
(0.304866 -0.00779344 0)
(0.304004 -0.00735809 0)
(0.303345 -0.00701683 0)
(0.302326 -0.00676283 0)
(0.301859 -0.00659709 0)
(0.300495 -0.00651259 0)
(0.308057 -0.0246122 0)
(0.30929 -0.0230235 0)
(0.310209 -0.0213309 0)
(0.310816 -0.0196012 0)
(0.311135 -0.0178914 0)
(0.311197 -0.0162447 0)
(0.311043 -0.0146918 0)
(0.310705 -0.0132521 0)
(0.310225 -0.0119377 0)
(0.309616 -0.010754 0)
(0.308929 -0.00970283 0)
(0.308146 -0.00878101 0)
(0.307349 -0.00798545 0)
(0.306452 -0.00730838 0)
(0.305627 -0.0067458 0)
(0.304628 -0.0062878 0)
(0.303868 -0.00593237 0)
(0.302703 -0.00566843 0)
(0.302171 -0.00549812 0)
(0.300619 -0.00540943 0)
(0.310286 -0.0265108 0)
(0.311715 -0.024459 0)
(0.312733 -0.0223167 0)
(0.313351 -0.0201709 0)
(0.313612 -0.0180915 0)
(0.313564 -0.0161264 0)
(0.313269 -0.0143058 0)
(0.312766 -0.0126462 0)
(0.312111 -0.0111559 0)
(0.311321 -0.00983494 0)
(0.310455 -0.0086798 0)
(0.309493 -0.00768085 0)
(0.308528 -0.00683043 0)
(0.30746 -0.00611496 0)
(0.306488 -0.00552809 0)
(0.305321 -0.00505384 0)
(0.30444 -0.004691 0)
(0.303093 -0.0044202 0)
(0.302484 -0.00424933 0)
(0.300696 -0.00415353 0)
(0.313324 -0.0287266 0)
(0.314974 -0.0260616 0)
(0.316077 -0.0233393 0)
(0.316661 -0.020675 0)
(0.316798 -0.0181515 0)
(0.316566 -0.0158165 0)
(0.316048 -0.0136941 0)
(0.315298 -0.0117938 0)
(0.314384 -0.0101169 0)
(0.313328 -0.00865578 0)
(0.312203 -0.00739949 0)
(0.310982 -0.00633053 0)
(0.309777 -0.00543452 0)
(0.308462 -0.00469021 0)
(0.307273 -0.00408842 0)
(0.305862 -0.00360548 0)
(0.3048 -0.0032426 0)
(0.303185 -0.00296797 0)
(0.302458 -0.00280109 0)
(0.300319 -0.00269221 0)
(0.317759 -0.0313263 0)
(0.319619 -0.0278347 0)
(0.32071 -0.0243461 0)
(0.321102 -0.0210188 0)
(0.320925 -0.0179495 0)
(0.320304 -0.0151782 0)
(0.319354 -0.0127143 0)
(0.318146 -0.010552 0)
(0.316764 -0.00867822 0)
(0.315239 -0.00707324 0)
(0.313657 -0.00571733 0)
(0.311988 -0.00458539 0)
(0.310362 -0.00365293 0)
(0.308626 -0.00289078 0)
(0.30706 -0.00228366 0)
(0.30524 -0.00180195 0)
(0.30386 -0.00144619 0)
(0.301811 -0.00117414 0)
(0.300872 -0.00101637 0)
(0.298178 -0.000896725 0)
(0.324358 -0.0345329 0)
(0.326103 -0.0298429 0)
(0.326711 -0.0252845 0)
(0.326354 -0.0210639 0)
(0.325279 -0.017274 0)
(0.3237 -0.0139396 0)
(0.321778 -0.0110545 0)
(0.319612 -0.00859385 0)
(0.317301 -0.00651953 0)
(0.314883 -0.00478414 0)
(0.312451 -0.00334683 0)
(0.309978 -0.00217111 0)
(0.307606 -0.00122191 0)
(0.305161 -0.000466881 0)
(0.302955 0.000124795 0)
(0.300492 0.00057915 0)
(0.298584 0.000912872 0)
(0.295903 0.00115499 0)
(0.294609 0.00129654 0)
(0.291151 0.00140134 0)
(0.332046 -0.0366761 0)
(0.332266 -0.0303303 0)
(0.330877 -0.0245008 0)
(0.328331 -0.0192949 0)
(0.325059 -0.0147285 0)
(0.321368 -0.010798 0)
(0.317463 -0.00749511 0)
(0.313477 -0.00478153 0)
(0.309525 -0.00258827 0)
(0.305649 -0.000844617 0)
(0.301915 0.000533816 0)
(0.298282 0.00161339 0)
(0.294871 0.002455 0)
(0.291516 0.00309101 0)
(0.288498 0.00357481 0)
(0.285327 0.00390902 0)
(0.282794 0.00415536 0)
(0.279534 0.00427629 0)
(0.277828 0.00436596 0)
(0.27376 0.0043465 0)
(0.330191 -0.037924 0)
(0.325076 -0.0284258 0)
(0.318691 -0.0205716 0)
(0.311805 -0.0141772 0)
(0.30481 -0.0089565 0)
(0.297939 -0.00472993 0)
(0.291329 -0.00135842 0)
(0.285104 0.00127849 0)
(0.279335 0.00330266 0)
(0.27404 0.00481825 0)
(0.269238 0.00593351 0)
(0.264849 0.0067315 0)
(0.260896 0.00729509 0)
(0.257223 0.00765987 0)
(0.253981 0.00789802 0)
(0.250801 0.00798558 0)
(0.248213 0.00803799 0)
(0.245197 0.00791537 0)
(0.243477 0.0078876 0)
(0.2399 0.007571 0)
(0.287749 -0.0280646 0)
(0.272567 -0.0176384 0)
(0.258605 -0.00858829 0)
(0.246664 -0.00167913 0)
(0.236679 0.00334485 0)
(0.228297 0.00685972 0)
(0.221241 0.00924182 0)
(0.215331 0.01079 0)
(0.210424 0.0117336 0)
(0.206373 0.0122461 0)
(0.203049 0.0124531 0)
(0.200311 0.0124438 0)
(0.198074 0.0122987 0)
(0.196198 0.0120562 0)
(0.194685 0.0117797 0)
(0.193328 0.0114353 0)
(0.192305 0.0111413 0)
(0.191181 0.0106842 0)
(0.19058 0.010472 0)
(0.189392 0.00974681 0)
(0.128699 0.00552651 0)
(0.122385 0.00855562 0)
(0.118208 0.0114315 0)
(0.11418 0.0127583 0)
(0.112026 0.0136895 0)
(0.111256 0.0141828 0)
(0.11143 0.0143619 0)
(0.112248 0.0143052 0)
(0.113517 0.0140733 0)
(0.115096 0.0137137 0)
(0.11688 0.0132712 0)
(0.118788 0.0127848 0)
(0.120766 0.0122923 0)
(0.122753 0.0118117 0)
(0.124734 0.0113727 0)
(0.126644 0.0109383 0)
(0.128496 0.0106024 0)
(0.130276 0.0100922 0)
(0.131771 0.00998557 0)
(0.133917 0.00896482 0)
(0.0302979 -0.00747928 0)
(0.034052 0.000875371 0)
(0.0444961 0.00642834 0)
(0.0474369 0.00867092 0)
(0.0506656 0.0100704 0)
(0.053908 0.0106592 0)
(0.0575051 0.0108636 0)
(0.0613732 0.0108235 0)
(0.0654301 0.0106253 0)
(0.0695817 0.010322 0)
(0.073751 0.00995775 0)
(0.077874 0.0095703 0)
(0.0819074 0.00919259 0)
(0.085811 0.00884263 0)
(0.0895619 0.00854299 0)
(0.0931472 0.00826306 0)
(0.0964954 0.0080772 0)
(0.0998204 0.00773478 0)
(0.102378 0.00778038 0)
(0.106343 0.00685053 0)
(0.00764785 -0.0178502 0)
(0.00852375 -0.00265477 0)
(0.0185759 0.00421828 0)
(0.0227169 0.00712152 0)
(0.0275671 0.00861893 0)
(0.0321927 0.0091307 0)
(0.037054 0.00924906 0)
(0.0420631 0.00914514 0)
(0.0471658 0.00891502 0)
(0.0522825 0.00860899 0)
(0.0573463 0.00826598 0)
(0.0623011 0.00791805 0)
(0.0671076 0.00759319 0)
(0.0717334 0.00730655 0)
(0.0761538 0.00707633 0)
(0.080374 0.00687481 0)
(0.0842927 0.00676138 0)
(0.088207 0.00651933 0)
(0.0911777 0.00660541 0)
(0.0958277 0.00583507 0)
(-0.00342961 -0.0171159 0)
(-0.00762047 -0.00423569 0)
(-0.000562848 0.00209055 0)
(0.00360665 0.00533961 0)
(0.00932674 0.00680001 0)
(0.0149066 0.00724996 0)
(0.0207297 0.00730504 0)
(0.0266304 0.00715879 0)
(0.0325568 0.00691495 0)
(0.0384337 0.00662251 0)
(0.0442013 0.0063158 0)
(0.0498099 0.00602184 0)
(0.0552244 0.00576371 0)
(0.0604187 0.00555373 0)
(0.0653678 0.00540515 0)
(0.0700908 0.00529475 0)
(0.0744654 0.0052622 0)
(0.0788482 0.00514023 0)
(0.0821611 0.00525762 0)
(0.0873467 0.00471413 0)
(-0.00852546 -0.012841 0)
(-0.0171235 -0.00424344 0)
(-0.0133575 0.000529799 0)
(-0.00966942 0.00345177 0)
(-0.00363031 0.00466796 0)
(0.0025336 0.00503298 0)
(0.00900948 0.00504025 0)
(0.0155343 0.00488008 0)
(0.0220417 0.00464986 0)
(0.0284537 0.00439476 0)
(0.0347144 0.00414451 0)
(0.0407796 0.0039218 0)
(0.0466177 0.00374535 0)
(0.0522084 0.00362513 0)
(0.0575273 0.00356946 0)
(0.0626033 0.00356046 0)
(0.0673019 0.00361735 0)
(0.0720173 0.0036251 0)
(0.0755832 0.00378119 0)
(0.0811477 0.00348802 0)
(-0.0104152 -0.00714162 0)
(-0.0216133 -0.00305745 0)
(-0.0202472 -0.00033443 0)
(-0.0171166 0.00162159 0)
(-0.0110563 0.00241541 0)
(-0.00461148 0.00263429 0)
(0.0022209 0.0025841 0)
(0.00909847 0.0024206 0)
(0.0159334 0.00221903 0)
(0.0226428 0.00201596 0)
(0.0291733 0.00183514 0)
(0.0354849 0.00169478 0)
(0.0415498 0.00160932 0)
(0.047352 0.00158671 0)
(0.0528693 0.00163041 0)
(0.0581368 0.00172814 0)
(0.0630146 0.00187914 0)
(0.0679169 0.00202056 0)
(0.0716317 0.00222099 0)
(0.0774143 0.00219265 0)
(-0.0102726 -0.000959598 0)
(-0.0219786 -0.00121728 0)
(-0.0215566 -0.000802676 0)
(-0.0187712 -0.000102753 0)
(-0.0128308 0.000152895 0)
(-0.00635461 0.000170946 0)
(0.000555372 5.08138e-05 0)
(0.00751444 -0.000113587 0)
(0.014418 -0.000279378 0)
(0.0211803 -0.000422745 0)
(0.0277501 -0.000527463 0)
(0.034091 -0.000580174 0)
(0.0401789 -0.000570664 0)
(0.0460013 -0.000492931 0)
(0.0515388 -0.000348195 0)
(0.0568295 -0.00014306 0)
(0.0617345 0.000102281 0)
(0.0666718 0.000377064 0)
(0.0704228 0.000622275 0)
(0.0762601 0.000866981 0)
(-0.00827399 0.00479978 0)
(-0.0184504 0.000549666 0)
(-0.0174184 -0.00122906 0)
(-0.0146616 -0.00175679 0)
(-0.00892412 -0.00206405 0)
(-0.00264067 -0.00226512 0)
(0.00407593 -0.00246108 0)
(0.0108448 -0.00262581 0)
(0.0175554 -0.00275301 0)
(0.024123 -0.00283402 0)
(0.0304992 -0.00286102 0)
(0.0366505 -0.00282569 0)
(0.0425564 -0.00272201 0)
(0.0482065 -0.00254578 0)
(0.0535846 -0.00230277 0)
(0.058729 -0.00199376 0)
(0.0635074 -0.00165813 0)
(0.0683261 -0.00125423 0)
(0.0719978 -0.000968817 0)
(0.0777252 -0.000451859 0)
(-0.00373716 0.00917959 0)
(-0.0106401 0.00160531 0)
(-0.00776281 -0.0019254 0)
(-0.00480745 -0.00337098 0)
(0.000612708 -0.00417739 0)
(0.00647114 -0.0045815 0)
(0.0127187 -0.00485112 0)
(0.0190226 -0.00501735 0)
(0.0252771 -0.00510791 0)
(0.0314032 -0.00512949 0)
(0.0373551 -0.0050827 0)
(0.0431016 -0.00496424 0)
(0.0486245 -0.00477215 0)
(0.0539141 -0.00450396 0)
(0.058958 -0.00416981 0)
(0.0637904 -0.00376464 0)
(0.0682924 -0.00334689 0)
(0.0728414 -0.00282181 0)
(0.0763219 -0.00250636 0)
(0.0817752 -0.0017251 0)
(0.00515131 0.0105148 0)
(0.00244925 0.00159652 0)
(0.00763024 -0.00302827 0)
(0.0107702 -0.00493154 0)
(0.0156379 -0.00610199 0)
(0.020801 -0.00667685 0)
(0.0262887 -0.00701432 0)
(0.0318479 -0.00718723 0)
(0.0373847 -0.00724945 0)
(0.0428271 -0.00722128 0)
(0.0481316 -0.00711101 0)
(0.0532669 -0.00692014 0)
(0.0582158 -0.00665064 0)
(0.0629673 -0.00630181 0)
(0.0675121 -0.00588796 0)
(0.0718768 -0.00539844 0)
(0.0759619 -0.00491032 0)
(0.0800972 -0.00427631 0)
(0.0832847 -0.00394439 0)
(0.0883011 -0.00291493 0)
(0.0220661 0.00483279 0)
(0.0226157 0.000247355 0)
(0.0290265 -0.00442994 0)
(0.0319747 -0.00642188 0)
(0.0358958 -0.00777089 0)
(0.0400317 -0.00847149 0)
(0.0444509 -0.00886754 0)
(0.0489829 -0.00905454 0)
(0.0535462 -0.00910118 0)
(0.058074 -0.00903786 0)