/*--------------------------------*- C++ -*----------------------------------*\
| =========                 |                                                 |
| \\      /  F ield         | OpenFOAM: The Open Source CFD Toolbox           |
|  \\    /   O peration     | Version:  v1806                                 |
|   \\  /    A nd           | Web:      www.OpenFOAM.com                      |
|    \\/     M anipulation  |                                                 |
\*---------------------------------------------------------------------------*/
FoamFile
{
    version     2.0;
    format      ascii;
    class       volScalarField;
    location    "14";
    object      p;
}
// * * * * * * * * * * * * * * * * * * * * * * * * * * * * * * * * * * * * * //

dimensions      [0 2 -2 0 0 0 0];


internalField   nonuniform List<scalar> 
4400
(
-0.809565
0.517177
0.671008
0.562449
0.492325
0.375997
0.285614
0.214358
0.161038
0.124096
0.1005
0.0861346
0.0763229
0.066842
0.0568448
0.0465429
0.0361974
0.0258626
0.0155368
0.00519432
2.40473
0.90198
0.764656
0.404247
0.325995
0.259146
0.216902
0.197145
0.18547
0.175229
0.16319
0.148145
0.130166
0.110848
0.0919894
0.0739621
0.0567432
0.0401316
0.0239561
0.00790526
1.21226
1.06918
0.927772
0.806928
0.73819
0.662515
0.578182
0.490152
0.408368
0.335565
0.273112
0.221559
0.180834
0.149172
0.122592
0.0980412
0.0749
0.0527721
0.0314443
0.0103936
1.66835
1.26726
0.97352
0.758231
0.61944
0.522587
0.452397
0.395222
0.34842
0.309493
0.275205
0.242846
0.210903
0.179068
0.147687
0.117959
0.0899524
0.0634107
0.0376916
0.012578
1.02391
0.951631
0.83603
0.758527
0.706184
0.65896
0.606625
0.54702
0.483279
0.419031
0.357138
0.299796
0.248689
0.204365
0.166458
0.132854
0.101441
0.0715467
0.042551
0.0142474
1.16916
1.03171
0.883386
0.721898
0.627168
0.55305
0.495805
0.444704
0.398949
0.357542
0.319469
0.283435
0.248234
0.213038
0.177793
0.142943
0.109389
0.0770787
0.0459362
0.0151482
0.791483
0.758793
0.696453
0.65366
0.612643
0.580464
0.548775
0.510614
0.466652
0.418853
0.369216
0.319517
0.271536
0.226831
0.186
0.148875
0.114142
0.0807234
0.048143
0.0159582
0.870615
0.80564
0.72886
0.628282
0.560154
0.505094
0.462474
0.423462
0.387251
0.352115
0.318036
0.284685
0.251626
0.218319
0.184423
0.150012
0.115657
0.0819964
0.0488668
0.0163841
0.622424
0.605058
0.570394
0.544956
0.518726
0.495044
0.473183
0.447487
0.417363
0.382983
0.345106
0.30505
0.264229
0.224073
0.185715
0.149463
0.115142
0.0818206
0.0489839
0.0162869
0.677696
0.639762
0.592971
0.529646
0.477509
0.438995
0.40795
0.378834
0.35087
0.323003
0.294729
0.265999
0.236825
0.20706
0.176495
0.14506
0.112978
0.0806468
0.0484125
0.0160549
0.502988
0.492209
0.471541
0.454731
0.436802
0.418272
0.402822
0.384994
0.363374
0.337874
0.308827
0.276977
0.243274
0.208799
0.174604
0.141375
0.109169
0.0777056
0.0465207
0.0155031
0.547106
0.521941
0.490028
0.448317
0.408875
0.379093
0.354667
0.332192
0.310111
0.28754
0.264163
0.239859
0.214687
0.188633
0.161584
0.13346
0.10427
0.0744912
0.0445687
0.0149
0.418367
0.411199
0.397729
0.385366
0.371771
0.357474
0.345561
0.332187
0.31564
0.295775
0.272736
0.246935
0.218992
0.189616
0.159595
0.129628
0.100135
0.0711111
0.0425347
0.014144
0.456429
0.438693
0.415147
0.385342
0.355402
0.331274
0.311468
0.293249
0.274973
0.256024
0.236173
0.215246
0.193202
0.17006
0.145829
0.12056
0.0944027
0.0677134
0.0407562
0.0135915
0.35941
0.353754
0.344533
0.335252
0.324861
0.313724
0.303111
0.291701
0.277825
0.261268
0.242023
0.220258
0.196342
0.170808
0.144346
0.117728
0.0914182
0.0654765
0.0394426
0.0132906
0.39518
0.382278
0.36464
0.342245
0.318043
0.296563
0.279061
0.262722
0.246388
0.2296
0.212138
0.193784
0.174451
0.154154
0.132953
0.110821
0.0877523
0.0636267
0.0386385
0.0129327
0.324207
0.31974
0.312665
0.304035
0.293817
0.283291
0.273567
0.26369
0.251802
0.237673
0.22129
0.202779
0.182381
0.160441
0.137351
0.113449
0.0889045
0.0638072
0.0383206
0.0127122
0.350158
0.338495
0.323287
0.305138
0.286803
0.272161
0.261955
0.251275
0.239039
0.225154
0.209731
0.192866
0.174597
0.154926
0.13384
0.111337
0.087447
0.0626378
0.0375062
0.0125583
0.276678
0.27202
0.269271
0.267889
0.267683
0.268392
0.265408
0.25972
0.250618
0.238101
0.222413
0.2039
0.182916
0.159892
0.135361
0.109985
0.0845392
0.059689
0.0355731
0.0118122
0.354409
0.350111
0.338734
0.322274
0.301607
0.276714
0.253442
0.232357
0.213575
0.195918
0.178675
0.161456
0.144077
0.126448
0.108528
0.0902534
0.0714939
0.0520234
0.0316736
0.0105947
1.66227
2.20052
2.64271
2.99917
3.27611
3.48855
3.64455
3.75178
3.8149
3.83695
3.81937
3.762
3.66315
3.51996
3.3265
3.0776
2.7605
2.36875
1.88453
1.3111
3.20655
3.34508
3.45803
3.54444
3.61292
3.66485
3.70356
3.73048
3.7468
3.75329
3.75032
3.73789
3.71574
3.68321
3.63929
3.58243
3.51028
3.4201
3.30559
3.1812
1.70501
1.76548
1.82379
1.87766
1.92473
1.9639
1.9942
2.01507
2.02609
2.02703
2.01767
1.99796
1.96789
1.92752
1.87704
1.8168
1.74739
1.66945
1.58573
1.49494
1.92273
1.95971
1.99358
2.02337
2.0489
2.06995
2.08646
2.09841
2.10581
2.10865
2.10691
2.10055
2.08949
2.07365
2.0529
2.02711
1.99615
1.95985
1.91782
1.87386
1.16878
1.18046
1.19148
1.20144
1.20994
1.2167
1.22146
1.22406
1.22436
1.22227
1.21775
1.21082
1.20151
1.18994
1.17624
1.16064
1.1434
1.12488
1.10565
1.0858
1.29024
1.30223
1.3131
1.32265
1.33072
1.33721
1.34206
1.34521
1.34664
1.3463
1.34419
1.34027
1.33454
1.32697
1.31756
1.30632
1.29325
1.27845
1.26198
1.24352
0.844925
0.847713
0.850246
0.852426
0.854156
0.855351
0.855948
0.855899
0.855171
0.853747
0.851625
0.848817
0.845348
0.84126
0.836614
0.831485
0.825969
0.820168
0.814187
0.808303
0.937842
0.94298
0.947553
0.951488
0.954723
0.957215
0.958931
0.95985
0.959956
0.959239
0.957691
0.955308
0.95209
0.948037
0.943155
0.937452
0.930951
0.923719
0.915804
0.906779
0.645712
0.646463
0.647122
0.647655
0.648024
0.648196
0.648144
0.647849
0.647299
0.646488
0.645418
0.644095
0.642533
0.640751
0.638776
0.636643
0.634388
0.632043
0.629654
0.627503
0.720159
0.722872
0.72525
0.727261
0.728875
0.730068
0.730823
0.731128
0.730975
0.730361
0.729281
0.727735
0.725726
0.723256
0.720331
0.716956
0.713149
0.708965
0.704433
0.699166
0.514622
0.514829
0.515
0.51512
0.515172
0.515139
0.515006
0.514765
0.514407
0.513931
0.513337
0.512628
0.511812
0.510898
0.509901
0.508837
0.507725
0.506574
0.505417
0.504508
0.576187
0.577844
0.57928
0.580478
0.581422
0.582096
0.582492
0.582602
0.58242
0.581944
0.581174
0.580108
0.578751
0.577104
0.575172
0.572959
0.57048
0.567782
0.564878
0.561424
0.424871
0.424922
0.424958
0.42497
0.424949
0.424884
0.424768
0.424593
0.424356
0.424054
0.423688
0.423259
0.422772
0.422233
0.42165
0.421036
0.420399
0.419742
0.419095
0.418679
0.477902
0.479024
0.479988
0.480782
0.481397
0.481824
0.482057
0.48209
0.48192
0.481545
0.480965
0.48018
0.479192
0.478004
0.476619
0.475041
0.473282
0.471378
0.469337
0.466853
0.363716
0.363719
0.363713
0.363691
0.363649
0.363581
0.363481
0.363346
0.363173
0.362961
0.362709
0.362419
0.362092
0.361733
0.361347
0.360939
0.360515
0.360072
0.359637
0.359403
0.411281
0.412081
0.412763
0.413321
0.413748
0.414038
0.414187
0.414191
0.414048
0.413757
0.413318
0.41273
0.411997
0.41112
0.410102
0.408947
0.407665
0.406288
0.404815
0.402977
0.326004
0.325997
0.325985
0.325965
0.325933
0.325886
0.325821
0.325734
0.325625
0.325492
0.325336
0.325158
0.324961
0.324748
0.324523
0.324293
0.324061
0.323825
0.323616
0.323603
0.368081
0.368648
0.369105
0.369448
0.369671
0.369771
0.369744
0.369588
0.369301
0.368881
0.36833
0.367648
0.366837
0.3659
0.36484
0.36366
0.362374
0.361009
0.35956
0.357756
0.289888
0.28968
0.289457
0.289216
0.288953
0.288665
0.288346
0.287993
0.287599
0.287162
0.286676
0.286137
0.285542
0.284885
0.284163
0.283372
0.282506
0.28154
0.280471
0.279471
0.353983
0.354488
0.354956
0.355381
0.35576
0.356083
0.356346
0.356544
0.356673
0.356731
0.356722
0.356647
0.356514
0.356334
0.356117
0.355879
0.355638
0.355426
0.355276
0.355124
0.927323
0.966376
1.00635
1.04629
1.08445
1.11847
1.14513
1.15995
1.15705
1.12993
1.07401
0.989837
0.886501
0.782668
0.69878
0.646005
0.628063
0.65373
0.768416
1.08718
0.774378
0.815924
0.860223
0.907306
0.957416
1.01107
1.0692
1.13331
1.2057
1.28892
1.38594
1.49982
1.63312
1.78748
1.96355
2.16058
2.37414
2.59837
2.82438
3.03366
1.04221
1.06122
1.07895
1.09518
1.10983
1.12311
1.13586
1.14955
1.16602
1.18748
1.21595
1.25237
1.29598
1.34423
1.39385
1.44271
1.49067
1.53925
1.59054
1.6459
1.0004
1.0351
1.072
1.1111
1.15275
1.19714
1.24432
1.29415
1.3463
1.40023
1.45514
1.51007
1.56403
1.61616
1.66595
1.71326
1.75824
1.80137
1.84313
1.88366
0.911383
0.920723
0.929809
0.938819
0.947981
0.957631
0.968156
0.979922
0.993189
1.00801
1.02417
1.04121
1.05846
1.07528
1.09119
1.10595
1.11962
1.13243
1.14473
1.15682
0.890201
0.912547
0.934985
0.957826
0.981109
1.00476
1.02867
1.05267
1.07654
1.10001
1.12278
1.14458
1.16518
1.18446
1.20241
1.21913
1.2348
1.24964
1.26381
1.27737
0.749271
0.753602
0.757952
0.762376
0.766939
0.771727
0.776826
0.782283
0.788096
0.794194
0.800441
0.806653
0.812636
0.818222
0.823303
0.827843
0.83188
0.835505
0.838833
0.841958
0.737404
0.750369
0.762912
0.775489
0.788096
0.800647
0.813072
0.825297
0.83723
0.848766
0.859803
0.870252
0.880054
0.889185
0.89766
0.905527
0.912856
0.919719
0.926168
0.932218
0.607578
0.60975
0.611918
0.614075
0.616257
0.618502
0.620831
0.623251
0.625745
0.628271
0.630769
0.633167
0.635395
0.637401
0.639155
0.640658
0.641938
0.643038
0.644009
0.644893
0.604225
0.612291
0.619939
0.627526
0.635055
0.642473
0.64974
0.656821
0.663674
0.670254
0.676518
0.68243
0.687969
0.693127
0.697914
0.702353
0.706471
0.710298
0.713854
0.717145
0.497412
0.49859
0.499773
0.500934
0.502085
0.503241
0.504412
0.505594
0.506777
0.50794
0.509053
0.510087
0.511015
0.511819
0.512491
0.513039
0.513478
0.513834
0.514131
0.51439
0.500915
0.506411
0.511532
0.51657
0.521541
0.526408
0.531147
0.535739
0.540162
0.544394
0.548413
0.552202
0.555751
0.559058
0.562127
0.56497
0.5676
0.570031
0.572272
0.574326
0.41598
0.416662
0.417368
0.418057
0.418729
0.419393
0.420051
0.420702
0.421337
0.421946
0.422514
0.423025
0.423469
0.423838
0.424132
0.424356
0.424522
0.424644
0.424736
0.424809
0.424386
0.42844
0.432168
0.43581
0.439387
0.442873
0.446252
0.449512
0.452642
0.455628
0.458459
0.461126
0.463624
0.465952
0.468113
0.470113
0.471958
0.473657
0.475214
0.47663
0.35801
0.358489
0.359006
0.359507
0.359984
0.360444
0.360889
0.361317
0.361724
0.362105
0.362451
0.362756
0.363015
0.363225
0.363388
0.363508
0.363592
0.363647
0.363682
0.363703
0.371953
0.374991
0.377762
0.380458
0.383101
0.385672
0.388158
0.390552
0.392846
0.395033
0.397104
0.399055
0.400883
0.402587
0.404169
0.405631
0.406979
0.408217
0.409346
0.410368
0.322341
0.322629
0.322976
0.32332
0.323647
0.323959
0.324259
0.324545
0.324814
0.325062
0.325284
0.325476
0.325636
0.325763
0.325858
0.325924
0.325967
0.325991
0.326003
0.326006
0.334958
0.337653
0.340063
0.342395
0.344678
0.346891
0.349022
0.351065
0.353014
0.354863
0.356607
0.358242
0.359767
0.36118
0.362483
0.363677
0.364764
0.365748
0.366629
0.367407
0.287386
0.28795
0.288523
0.289012
0.289421
0.289769
0.290064
0.29031
0.290508
0.29066
0.290768
0.290831
0.290852
0.290833
0.290776
0.290686
0.290567
0.290424
0.290261
0.290082
0.333382
0.334846
0.336247
0.337642
0.339023
0.340377
0.341696
0.342973
0.344198
0.345364
0.346463
0.347493
0.34845
0.349336
0.350154
0.350909
0.351609
0.352261
0.352871
0.353444
-0.55576
-0.537476
-0.525706
-0.517467
-0.511253
-0.50551
-0.498942
-0.490643
-0.480134
-0.467382
-0.452821
-0.437017
-0.420932
-0.405549
-0.391696
-0.380036
-0.371023
-0.364749
-0.360794
-0.357621
-0.399216
-0.404952
-0.411742
-0.418771
-0.425498
-0.43144
-0.436212
-0.439581
-0.441467
-0.441877
-0.440734
-0.438013
-0.434066
-0.429096
-0.423357
-0.417348
-0.412487
-0.409966
-0.410501
-0.415013
0.101742
0.098562
0.0933409
0.0867043
0.0790048
0.0706137
0.061898
0.0531918
0.0447658
0.0367962
0.0293546
0.0222363
0.015639
0.00966277
0.00434865
-0.000394763
-0.00424182
-0.00729311
-0.0096029
-0.0113139
-0.0632047
-0.0674404
-0.071367
-0.0756753
-0.080409
-0.0855505
-0.0910609
-0.0968413
-0.102731
-0.108524
-0.113985
-0.118887
-0.123038
-0.126329
-0.12875
-0.130382
-0.131371
-0.13184
-0.131759
-0.130598
-0.216939
-0.212619
-0.210543
-0.207022
-0.202478
-0.197388
-0.192069
-0.186747
-0.181585
-0.176697
-0.17215
-0.167981
-0.164206
-0.160832
-0.157868
-0.155325
-0.153211
-0.151525
-0.150209
-0.14891
-0.307241
-0.306093
-0.303187
-0.299347
-0.294757
-0.289685
-0.284392
-0.279069
-0.273874
-0.268936
-0.264347
-0.260177
-0.256473
-0.253263
-0.250557
-0.248347
-0.246611
-0.245322
-0.244461
-0.244016
-0.168292
-0.168312
-0.168091
-0.168094
-0.168393
-0.168996
-0.169877
-0.170983
-0.172239
-0.173571
-0.174916
-0.176222
-0.177456
-0.178594
-0.179622
-0.180532
-0.181318
-0.181969
-0.182484
-0.182933
-0.131751
-0.131206
-0.131449
-0.132503
-0.13409
-0.135995
-0.138083
-0.14017
-0.142175
-0.14401
-0.145611
-0.146947
-0.148008
-0.148804
-0.149353
-0.149682
-0.149818
-0.149783
-0.149572
-0.148916
-0.288481
-0.291327
-0.293345
-0.294826
-0.295745
-0.296106
-0.295958
-0.295373
-0.294437
-0.293247
-0.291897
-0.290474
-0.28894
-0.287592
-0.286372
-0.285324
-0.28448
-0.283845
-0.283371
-0.283179
-0.185478
-0.184372
-0.183549
-0.183075
-0.182931
-0.183074
-0.183454
-0.184016
-0.184703
-0.185465
-0.186253
-0.187029
-0.187763
-0.188433
-0.189021
-0.189512
-0.189897
-0.19018
-0.190407
-0.190527
-0.245876
-0.246774
-0.247846
-0.249082
-0.250415
-0.251781
-0.253126
-0.254406
-0.255589
-0.256651
-0.257582
-0.25838
-0.259048
-0.259594
-0.260023
-0.260342
-0.260553
-0.260645
-0.260605
-0.260356
-0.262355
-0.264904
-0.267235
-0.269341
-0.271237
-0.272921
-0.274395
-0.275665
-0.27674
-0.277632
-0.278355
-0.278926
-0.279363
-0.279686
-0.279916
-0.280071
-0.280173
-0.280248
-0.280277
-0.280261
-0.282279
-0.284081
-0.285867
-0.287586
-0.289227
-0.290777
-0.292221
-0.293552
-0.294764
-0.295858
-0.296834
-0.297696
-0.298449
-0.299094
-0.299636
-0.300075
-0.300404
-0.300598
-0.300815
-0.30082
-0.331631
-0.337887
-0.343831
-0.349407
-0.354567
-0.359268
-0.363485
-0.367207
-0.370442
-0.373209
-0.375539
-0.377469
-0.379041
-0.380296
-0.381275
-0.382011
-0.382538
-0.382985
-0.383024
-0.382981
-0.353415
-0.35889
-0.364056
-0.368822
-0.373108
-0.376848
-0.380006
-0.382579
-0.384605
-0.386155
-0.387324
-0.388218
-0.388934
-0.38955
-0.390114
-0.390642
-0.391117
-0.391513
-0.391876
-0.39235
-0.427121
-0.440449
-0.453909
-0.467321
-0.480487
-0.493192
-0.505222
-0.516381
-0.526504
-0.535471
-0.543215
-0.549724
-0.555035
-0.559233
-0.562438
-0.564796
-0.566455
-0.567519
-0.568266
-0.567937
-0.436775
-0.44935
-0.46189
-0.474143
-0.485815
-0.496595
-0.506182
-0.514318
-0.520824
-0.525632
-0.528813
-0.530575
-0.531252
-0.531259
-0.531024
-0.530907
-0.531106
-0.53164
-0.532515
-0.534181
-0.510957
-0.5424
-0.575532
-0.610247
-0.6464
-0.683686
-0.721653
-0.759709
-0.79715
-0.833206
-0.867091
-0.898056
-0.925439
-0.948722
-0.967592
-0.982006
-0.992207
-0.998769
-1.00271
-1.00361
-0.25987
-0.280915
-0.304544
-0.330714
-0.359381
-0.390339
-0.423233
-0.4575
-0.492363
-0.526841
-0.559798
-0.590018
-0.616348
-0.637931
-0.654488
-0.666416
-0.674601
-0.679953
-0.68392
-0.693384
-0.733236
-0.8031
-0.877564
-0.957228
-1.04305
-1.13609
-1.23743
-1.34815
-1.46939
-1.60237
-1.74825
-1.90773
-2.08055
-2.26518
-2.45926
-2.66016
-2.86395
-3.06256
-3.25028
-3.48044
0.00841607
0.0251078
0.0419668
0.0590584
0.0764801
0.094244
0.112378
0.130922
0.150029
0.169905
0.190638
0.212468
0.236766
0.273331
0.327389
0.39919
0.487429
0.588606
0.697377
0.815661
0.0101714
0.0309319
0.0517508
0.0730497
0.0948393
0.117416
0.140964
0.165866
0.192557
0.221377
0.252175
0.283661
0.313448
0.341066
0.367922
0.396441
0.429844
0.474444
0.541452
0.660527
0.0121358
0.0364999
0.0610417
0.0860896
0.111787
0.138373
0.166147
0.19551
0.22683
0.260489
0.297606
0.342532
0.399282
0.467884
0.546459
0.631587
0.71907
0.806169
0.893246
0.983595
0.0134346
0.0400836
0.0673595
0.0950443
0.123633
0.153292
0.184459
0.217578
0.253018
0.290778
0.330264
0.369841
0.409686
0.451513
0.497046
0.548307
0.608693
0.683488
0.778104
0.903386
0.0145557
0.0435568
0.072784
0.102491
0.132911
0.164343
0.197115
0.231563
0.268099
0.307822
0.35308
0.405063
0.463245
0.525475
0.589213
0.651904
0.711814
0.768811
0.824633
0.881309
0.0148793
0.0451169
0.0754448
0.106365
0.13795
0.170576
0.204504
0.239982
0.277071
0.315334
0.353645
0.391905
0.43085
0.47127
0.513865
0.560187
0.612605
0.672789
0.741722
0.823371
0.015426
0.0462452
0.0771887
0.108469
0.14031
0.172904
0.206458
0.241244
0.27782
0.317244
0.360152
0.406195
0.453768
0.501085
0.546641
0.589253
0.6282
0.663426
0.698188
0.735892
0.0152494
0.0456328
0.0764237
0.107463
0.139035
0.171229
0.204221
0.23804
0.272438
0.306479
0.339943
0.373073
0.406296
0.43986
0.474156
0.509987
0.547786
0.58911
0.637031
0.695838
0.015169
0.0454911
0.0757475
0.106209
0.136896
0.167972
0.199524
0.231819
0.265309
0.300435
0.337103
0.374375
0.411064
0.446136
0.478648
0.507782
0.533411
0.556755
0.581045
0.601067
0.0144896
0.0437789
0.0730688
0.102565
0.132252
0.162181
0.192354
0.222628
0.252404
0.281319
0.30939
0.336872
0.363944
0.390705
0.417292
0.443953
0.471922
0.502205
0.535375
0.577828
0.0142033
0.0423737
0.0706704
0.0989314
0.127296
0.155693
0.184186
0.212934
0.242282
0.272296
0.302506
0.332135
0.360458
0.386781
0.410426
0.431063
0.448744
0.46473
0.480647
0.493703
0.0133591
0.0400279
0.0668359
0.0937444
0.12076
0.147858
0.174881
0.2014
0.226951
0.251434
0.274976
0.297723
0.319726
0.341005
0.361625
0.38219
0.403135
0.425946
0.452429
0.482801
0.0128295
0.0385358
0.0640723
0.0895686
0.114973
0.140379
0.165828
0.191405
0.217154
0.242851
0.267976
0.29199
0.314389
0.334692
0.352588
0.368017
0.381419
0.393765
0.404626
0.41374
0.0122643
0.0367453
0.0611061
0.0852791
0.1093
0.133176
0.156871
0.180026
0.202316
0.22365
0.244034
0.263466
0.281898
0.299257
0.315934
0.332259
0.348752
0.366023
0.388287
0.410979
0.0119261
0.0356193
0.0591276
0.0823051
0.105088
0.127479
0.149703
0.172015
0.194441
0.21664
0.238102
0.258368
0.277011
0.293669
0.308183
0.32057
0.331304
0.341372
0.349466
0.356455
0.0114173
0.0343785
0.0571571
0.079801
0.102048
0.123683
0.144467
0.164334
0.183337
0.201566
0.219053
0.235777
0.251676
0.266775
0.281298
0.295643
0.310355
0.325744
0.344498
0.361913
0.0110165
0.0330861
0.0551813
0.0772277
0.0991889
0.12082
0.14195
0.162505
0.182464
0.201683
0.219933
0.236964
0.252513
0.26638
0.278492
0.288901
0.298077
0.307035
0.314691
0.321374
0.0106738
0.0318101
0.0531177
0.0745059
0.0960733
0.11765
0.138825
0.159083
0.178182
0.19609
0.212781
0.228174
0.242211
0.254889
0.266236
0.276352
0.28585
0.296183
0.311064
0.325896
0.0102846
0.0308797
0.0513196
0.0717036
0.0920889
0.112769
0.133821
0.155072
0.176012
0.196137
0.214995
0.232155
0.247221
0.259825
0.269647
0.27658
0.280726
0.282401
0.282541
0.285821
0.0100686
0.0302054
0.0501002
0.0695523
0.0882611
0.106068
0.12298
0.139227
0.155012
0.170454
0.185605
0.200494
0.215196
0.229926
0.245161
0.261615
0.279775
0.299201
0.316919
0.328658
-0.0154227
-0.04156
-0.0724138
-0.0998587
-0.132158
-0.161225
-0.195494
-0.226529
-0.263584
-0.296734
-0.339554
-0.381194
-0.431026
-0.48714
-0.550465
-0.617863
-0.678129
-0.715066
-0.704285
-0.643373
-0.0133118
-0.0369545
-0.0640042
-0.087763
-0.114837
-0.138759
-0.165749
-0.189556
-0.215571
-0.238616
-0.261935
-0.280669
-0.298234
-0.316605
-0.334658
-0.350544
-0.363707
-0.369496
-0.361028
-0.391225
-0.0110095
-0.0329766
-0.0551655
-0.0771129
-0.0989873
-0.120383
-0.141387
-0.161576
-0.181015
-0.199198
-0.215248
-0.228117
-0.234098
-0.230056
-0.211576
-0.172981
-0.111566
-0.0233044
0.0847421
0.10071
-0.00924221
-0.0280187
-0.0467876
-0.065595
-0.0842632
-0.102631
-0.120435
-0.137354
-0.152925
-0.166744
-0.178273
-0.187072
-0.193481
-0.196663
-0.193803
-0.182402
-0.154861
-0.100035
-0.0688746
-0.0443426
-0.00842124
-0.0251187
-0.0418277
-0.0582833
-0.0745302
-0.0904861
-0.106185
-0.121584
-0.136433
-0.149747
-0.160455
-0.168404
-0.173614
-0.176885
-0.179108
-0.179763
-0.17876
-0.183185
-0.208849
-0.192752
-0.00783912
-0.0231716
-0.0384711
-0.0535383
-0.0682156
-0.0823661
-0.0957742
-0.108339
-0.120109
-0.131513
-0.142953
-0.154623
-0.166775
-0.178987
-0.189926
-0.200618
-0.213352
-0.235757
-0.262929
-0.294155
-0.00683624
-0.0206082
-0.0343074
-0.0480924
-0.0618224
-0.0754541
-0.0886558
-0.100947
-0.111813
-0.120949
-0.128319
-0.134197
-0.138623
-0.141791
-0.144231
-0.147089
-0.151064
-0.154759
-0.160292
-0.163089
-0.00628199
-0.0191514
-0.0320146
-0.0447458
-0.0572691
-0.0694895
-0.0815502
-0.093661
-0.106118
-0.119005
-0.132187
-0.145174
-0.157626
-0.168697
-0.177126
-0.180891
-0.178444
-0.170334
-0.153561
-0.131468
-0.00638737
-0.0189183
-0.0315463
-0.0439934
-0.0562837
-0.0681801
-0.0795456
-0.0901582
-0.0999731
-0.109147
-0.118003
-0.127099
-0.136901
-0.147699
-0.159433
-0.17342
-0.192018
-0.213357
-0.236845
-0.273807
-0.00595572
-0.0176309
-0.0293399
-0.0411504
-0.0530714
-0.0652528
-0.0777152
-0.0905665
-0.103702
-0.116977
-0.130166
-0.142767
-0.154033
-0.162923
-0.168757
-0.172811
-0.175422
-0.178081
-0.183639
-0.188116
-0.00571448
-0.0174114
-0.0290505
-0.0407218
-0.0522099
-0.0635206
-0.0746068
-0.0855673
-0.0966424
-0.108124
-0.120215
-0.133037
-0.146589
-0.161255
-0.177478
-0.19415
-0.210279
-0.224466
-0.233396
-0.243051
-0.00568701
-0.017043
-0.0284165
-0.0398602
-0.0516232
-0.0637438
-0.0763528
-0.0893602
-0.102653
-0.116009
-0.12922
-0.142018
-0.154142
-0.165344
-0.176568
-0.188839
-0.201917
-0.215326
-0.233014
-0.255069
-0.00513251
-0.0152683
-0.0257613
-0.0364428
-0.047436
-0.058707
-0.0703444
-0.0825041
-0.0953626
-0.109105
-0.123778
-0.13931
-0.155959
-0.173832
-0.192588
-0.211563
-0.229631
-0.246659
-0.26254
-0.278496
-0.0049517
-0.0149238
-0.0249635
-0.035305
-0.0459435
-0.0571467
-0.0689721
-0.081525
-0.0948256
-0.10888
-0.123567
-0.13872
-0.154346
-0.171024
-0.189329
-0.209613
-0.231588
-0.2549
-0.281848
-0.314356
-0.00426857
-0.0128247
-0.0213395
-0.0301068
-0.0392875
-0.0490515
-0.0596497
-0.0713157
-0.0843157
-0.0988869
-0.115298
-0.133839
-0.154446
-0.177108
-0.201962
-0.228554
-0.255459
-0.282759
-0.31091
-0.339301
-0.00282212
-0.00855604
-0.0149089
-0.0217796
-0.0294493
-0.0380016
-0.0475788
-0.0582653
-0.0701677
-0.0833794
-0.0979832
-0.114538
-0.134309
-0.158475
-0.186945
-0.219424
-0.255805
-0.295817
-0.339706
-0.390261
-0.00152495
-0.00451259
-0.00765037
-0.0112112
-0.0154591
-0.0207039
-0.0271935
-0.0351737
-0.0448533
-0.0564743
-0.0704504
-0.0871859
-0.107214
-0.131415
-0.161037
-0.197388
-0.240583
-0.290245
-0.344059
-0.401528
0.000938064
0.00256945
0.00376585
0.00426654
0.00395149
0.00264418
0.000162916
-0.00370274
-0.00923657
-0.016895
-0.0270838
-0.040019
-0.0562695
-0.0764323
-0.100986
-0.131417
-0.17199
-0.23169
-0.314064
-0.421757
0.00335818
0.00999111
0.016463
0.0227129
0.0285522
0.0337619
0.0380251
0.0408818
0.0416424
0.0397515
0.0346809
0.0256099
0.0117195
-0.00735669
-0.0309052
-0.0542934
-0.0778692
-0.103526
-0.140591
-0.203582
0.00581121
0.0174474
0.0291469
0.0408085
0.0524716
0.0640985
0.0756722
0.0871358
0.0985057
0.109663
0.120261
0.129526
0.135353
0.131696
0.112999
0.0696332
-0.00581233
-0.120578
-0.289046
-0.532514
-0.0116209
-0.0349127
-0.0585501
-0.0824855
-0.107055
-0.132399
-0.158752
-0.186249
-0.21508
-0.245229
-0.277088
-0.310188
-0.344783
-0.381302
-0.419502
-0.457296
-0.49343
-0.521771
-0.536853
-0.536808
-0.0122613
-0.0368666
-0.0618607
-0.0872105
-0.113291
-0.140247
-0.168355
-0.197811
-0.228869
-0.261661
-0.296737
-0.33363
-0.372733
-0.414119
-0.457271
-0.500191
-0.539552
-0.566542
-0.575966
-0.57587
-0.012863
-0.0387239
-0.0650095
-0.0917294
-0.119275
-0.147812
-0.177649
-0.209009
-0.242193
-0.277464
-0.315547
-0.356194
-0.400105
-0.447103
-0.496812
-0.546338
-0.590027
-0.61753
-0.623042
-0.622262
-0.0134236
-0.0404527
-0.067954
-0.0959669
-0.124906
-0.15498
-0.186529
-0.219788
-0.255061
-0.292668
-0.333454
-0.3775
-0.42588
-0.47877
-0.536362
-0.594318
-0.644443
-0.674715
-0.679805
-0.675804
-0.013947
-0.0420621
-0.0706882
-0.0999062
-0.130153
-0.161695
-0.194923
-0.230083
-0.267474
-0.307443
-0.350895
-0.398095
-0.450478
-0.508996
-0.574739
-0.642517
-0.70196
-0.737435
-0.741391
-0.736209
-0.0144231
-0.0435346
-0.0732076
-0.10354
-0.13501
-0.167939
-0.202775
-0.239774
-0.279299
-0.321793
-0.368139
-0.418702
-0.475259
-0.539061
-0.612374
-0.690145
-0.761016
-0.804066
-0.808851
-0.799767
-0.0148636
-0.0448979
-0.0755384
-0.106915
-0.13954
-0.173786
-0.210125
-0.248852
-0.290491
-0.33561
-0.385091
-0.439554
-0.500921
-0.570019
-0.650705
-0.737828
-0.820709
-0.87289
-0.878904
-0.868134
-0.0152529
-0.0461171
-0.077652
-0.109995
-0.143713
-0.179191
-0.216904
-0.25725
-0.300957
-0.348636
-0.401323
-0.46001
-0.526322
-0.601445
-0.690563
-0.786544
-0.880501
-0.942193
-0.950814
-0.936932
-0.0155953
-0.0471843
-0.0795034
-0.112715
-0.147419
-0.18399
-0.222909
-0.264747
-0.310369
-0.360394
-0.416211
-0.478944
-0.549862
-0.631528
-0.730115
-0.836004
-0.940172
-1.0102
-1.02207
-1.00635
-0.015862
-0.048028
-0.08099
-0.114918
-0.150435
-0.187878
-0.227777
-0.270849
-0.318
-0.369962
-0.428571
-0.494778
-0.56982
-0.658061
-0.765901
-0.882458
-0.99864
-1.07536
-1.08989
-1.07252
-0.0160532
-0.0486312
-0.0820564
-0.116519
-0.152607
-0.190663
-0.231249
-0.275152
-0.323201
-0.37641
-0.436979
-0.505699
-0.584266
-0.678989
-0.794522
-0.919739
-1.05229
-1.13516
-1.15195
-1.1342
-0.0161484
-0.0489727
-0.0826864
-0.117488
-0.153903
-0.192326
-0.233308
-0.277612
-0.325925
-0.379527
-0.4408
-0.510543
-0.591319
-0.691267
-0.812324
-0.947086
-1.09362
-1.18673
-1.20503
-1.18736
-0.0161851
-0.0491116
-0.0829976
-0.117959
-0.15453
-0.193118
-0.234301
-0.278704
-0.32695
-0.380313
-0.441077
-0.509955
-0.591017
-0.693386
-0.816998
-0.960138
-1.12042
-1.22638
-1.24816
-1.2292
-0.0162029
-0.0490669
-0.0831572
-0.11806
-0.154788
-0.19333
-0.234724
-0.279047
-0.327381
-0.380378
-0.44009
-0.506381
-0.58553
-0.686757
-0.810067
-0.959295
-1.13179
-1.2479
-1.27627
-1.25552
-0.0162965
-0.0488697
-0.0833219
-0.117896
-0.154926
-0.193172
-0.23494
-0.279047
-0.327924
-0.380845
-0.44008
-0.503174
-0.57867
-0.675845
-0.796652
-0.94755
-1.12555
-1.24421
-1.28675
-1.2657
-0.016378
-0.0486612
-0.0832655
-0.117562
-0.154693
-0.192716
-0.234649
-0.278697
-0.328113
-0.381541
-0.441121
-0.502754
-0.575124
-0.66745
-0.783667
-0.930851
-1.10308
-1.21789
-1.27925
-1.25357
-0.0158796
-0.0490866
-0.0820855
-0.11757
-0.153005
-0.192302
-0.232499
-0.27796
-0.325954
-0.381355
-0.440139
-0.504422
-0.576686
-0.665123
-0.775691
-0.914136
-1.06985
-1.17422
-1.25239
-1.21556
-0.0133771
-0.0513565
-0.0780617
-0.118988
-0.147882
-0.192731
-0.226101
-0.277089
-0.318166
-0.379258
-0.431775
-0.504604
-0.579372
-0.664693
-0.769026
-0.895661
-1.02963
-1.11913
-1.20203
-1.15182
-0.00881186
-0.055304
-0.0712284
-0.121527
-0.139251
-0.193503
-0.215115
-0.275194
-0.303879
-0.373409
-0.413058
-0.49737
-0.573119
-0.655364
-0.753185
-0.866812
-0.976849
-1.05258
-1.12191
-1.06226
-0.00756294
-0.0548191
-0.0680299
-0.118925
-0.133729
-0.188108
-0.206202
-0.265456
-0.289581
-0.35633
-0.390217
-0.47086
-0.539885
-0.61662
-0.706497
-0.807576
-0.899459
-0.964298
-1.00849
-0.949462
0.000125432
-0.000821364
-0.00115895
-0.00169985
-0.00220405
-0.00271962
-0.00319848
-0.00373813
-0.00422268
-0.00465314
-0.00519981
-0.0055179
-0.0057851
-0.00544159
-0.00533531
-0.00426061
-0.00272608
-0.00387912
-0.00202639
-0.00853444
-0.000212772
-0.00185199
-0.0033577
-0.0047861
-0.00625374
-0.00781793
-0.00923773
-0.0107737
-0.012235
-0.0136068
-0.0150816
-0.0161387
-0.0167181
-0.016282
-0.015858
-0.0127716
-0.00891047
-0.0102602
-0.00539511
-0.0209857
-0.000657729
-0.00310548
-0.00565375
-0.00806564
-0.0105658
-0.0131386
-0.0155827
-0.0181194
-0.0205912
-0.0229741
-0.0253323
-0.0270849
-0.028112
-0.02781
-0.0268193
-0.0221481
-0.0162568
-0.0164836
-0.00987225
-0.0303167
-0.00116302
-0.00451978
-0.00804156
-0.0114946
-0.0150478
-0.0186255
-0.0221271
-0.0256758
-0.0291954
-0.0325999
-0.0358263
-0.0383476
-0.0400302
-0.0399213
-0.0384786
-0.0323783
-0.0259426
-0.0239467
-0.016444
-0.039091
-0.00171276
-0.00605524
-0.0105625
-0.0150922
-0.0197274
-0.0243403
-0.0289381
-0.0335418
-0.0381533
-0.0425956
-0.0467445
-0.0501785
-0.0526396
-0.0529168
-0.0514377
-0.0440829
-0.0385482
-0.0335603
-0.0270133
-0.049734
-0.00228805
-0.00766597
-0.0131904
-0.018818
-0.0245283
-0.0302213
-0.0359308
-0.041622
-0.0473547
-0.0528488
-0.0580108
-0.0624729
-0.0657918
-0.0668358
-0.0657132
-0.0580531
-0.05383
-0.045715
-0.0421534
-0.06435
-0.00288344
-0.00934621
-0.0159469
-0.0226868
-0.0294975
-0.0363206
-0.0431731
-0.0500073
-0.0568927
-0.0634977
-0.0697762
-0.0753417
-0.0795941
-0.0815835
-0.0814317
-0.0743855
-0.0714723
-0.0614977
-0.0635379
-0.0843183
-0.0034892
-0.0110735
-0.018794
-0.0266533
-0.0345824
-0.0425717
-0.0505916
-0.0586125
-0.0666845
-0.0744673
-0.0819655
-0.0887221
-0.0940947
-0.0973682
-0.0984077
-0.09268
-0.0915288
-0.0819222
-0.0911634
-0.110418
-0.0041096
-0.0128604
-0.0217419
-0.0307377
-0.0398299
-0.049018
-0.058249
-0.0675136
-0.0768182
-0.0858646
-0.0946838
-0.102757
-0.109503
-0.114353
-0.116753
-0.112954
-0.114376
-0.107754
-0.124867
-0.142852
-0.00473604
-0.0146751
-0.024737
-0.0348856
-0.0451745
-0.0555824
-0.0660649
-0.0766159
-0.0872104
-0.0976097
-0.107864
-0.117386
-0.12577
-0.132546
-0.136579
-0.135508
-0.140026
-0.137582
-0.163349
-0.181033
-0.00537459
-0.0165276
-0.0277842
-0.0391185
-0.0506435
-0.0622952
-0.0740748
-0.085956
-0.0979088
-0.109761
-0.121553
-0.132656
-0.1429
-0.151901
-0.157942
-0.160642
-0.168643
-0.170781
-0.205293
-0.224621
-0.00601039
-0.0183747
-0.0308359
-0.0433809
-0.0561645
-0.0690818
-0.0821893
-0.0954389
-0.108824
-0.122222
-0.135652
-0.148474
-0.160786
-0.17217
-0.180669
-0.18808
-0.199965
-0.207276
-0.249184
-0.272457
-0.00665126
-0.0202375
-0.0339161
-0.0477024
-0.0617637
-0.075972
-0.0904401
-0.105095
-0.119982
-0.135
-0.150148
-0.164821
-0.179366
-0.193115
-0.204555
-0.217184
-0.23315
-0.246767
-0.293876
-0.322469
-0.00728044
-0.022082
-0.0369982
-0.0520391
-0.0673865
-0.0829139
-0.0987639
-0.114866