/*--------------------------------*- C++ -*----------------------------------*\
| =========                 |                                                 |
| \\      /  F ield         | OpenFOAM: The Open Source CFD Toolbox           |
|  \\    /   O peration     | Version:  v1806                                 |
|   \\  /    A nd           | Web:      www.OpenFOAM.com                      |
|    \\/     M anipulation  |                                                 |
\*---------------------------------------------------------------------------*/
FoamFile
{
    version     2.0;
    format      ascii;
    class       volVectorField;
    location    "100";
    object      U;
}
// * * * * * * * * * * * * * * * * * * * * * * * * * * * * * * * * * * * * * //

dimensions      [0 1 -1 0 0 0 0];


internalField   nonuniform List<vector> 
4400
(
(0.215353 0.238955 0)
(0.277829 0.18919 0)
(0.298582 0.150665 0)
(0.307863 0.119936 0)
(0.313902 0.0976773 0)
(0.317429 0.0826557 0)
(0.318764 0.07236 0)
(0.318717 0.0649485 0)
(0.31795 0.0594129 0)
(0.316823 0.0551619 0)
(0.315506 0.0518173 0)
(0.314081 0.0491323 0)
(0.312592 0.0469448 0)
(0.311069 0.045147 0)
(0.309527 0.0436662 0)
(0.307978 0.0424525 0)
(0.306426 0.0414721 0)
(0.304875 0.040704 0)
(0.303352 0.040125 0)
(0.302034 0.0396614 0)
(0.237228 0.135606 0)
(0.268434 0.105807 0)
(0.287448 0.0914458 0)
(0.301341 0.0835138 0)
(0.308932 0.076794 0)
(0.312462 0.0705326 0)
(0.314039 0.0649314 0)
(0.314596 0.0601204 0)
(0.314507 0.0560702 0)
(0.313973 0.0526784 0)
(0.313138 0.049833 0)
(0.312102 0.0474388 0)
(0.310934 0.045422 0)
(0.309682 0.0437266 0)
(0.308376 0.0423101 0)
(0.307036 0.0411403 0)
(0.305673 0.0401931 0)
(0.304296 0.0394526 0)
(0.302936 0.0388952 0)
(0.301753 0.0384675 0)
(0.219544 0.0990845 0)
(0.252186 0.101899 0)
(0.275485 0.0982251 0)
(0.290037 0.089627 0)
(0.299088 0.0797488 0)
(0.304848 0.0711531 0)
(0.308338 0.0643153 0)
(0.310221 0.0589136 0)
(0.311025 0.0545892 0)
(0.311134 0.0510803 0)
(0.31079 0.048201 0)
(0.310147 0.0458174 0)
(0.309303 0.043833 0)
(0.308323 0.042179 0)
(0.307252 0.0408055 0)
(0.306119 0.0396767 0)
(0.304943 0.0387673 0)
(0.30374 0.0380604 0)
(0.30254 0.0375342 0)
(0.301491 0.0371417 0)
(0.23899 0.0682574 0)
(0.26083 0.0720077 0)
(0.276214 0.0704327 0)
(0.287784 0.0674529 0)
(0.29601 0.0641836 0)
(0.301461 0.0607264 0)
(0.304931 0.0572214 0)
(0.307046 0.0538666 0)
(0.308214 0.0507983 0)
(0.308705 0.0480721 0)
(0.308713 0.0456902 0)
(0.308378 0.0436299 0)
(0.307803 0.0418615 0)
(0.30706 0.0403562 0)
(0.3062 0.0390887 0)
(0.305257 0.0380381 0)
(0.304258 0.0371884 0)
(0.30322 0.0365278 0)
(0.302175 0.0360386 0)
(0.301256 0.0356839 0)
(0.243608 0.0514777 0)
(0.259049 0.0599636 0)
(0.273002 0.0635023 0)
(0.284003 0.0633042 0)
(0.292044 0.0608166 0)
(0.297732 0.0574245 0)
(0.301635 0.0539726 0)
(0.304187 0.0507895 0)
(0.305734 0.0479529 0)
(0.306552 0.0454606 0)
(0.306848 0.0432881 0)
(0.306771 0.0414058 0)
(0.306426 0.0397851 0)
(0.305892 0.0384006 0)
(0.305222 0.0372312 0)
(0.304455 0.0362599 0)
(0.30362 0.0354739 0)
(0.302737 0.034864 0)
(0.301839 0.0344154 0)
(0.301045 0.0340982 0)
(0.255674 0.0393049 0)
(0.266759 0.0465331 0)
(0.27659 0.0500413 0)
(0.284778 0.0510584 0)
(0.291294 0.0506831 0)
(0.296212 0.0494922 0)
(0.299762 0.0478288 0)
(0.30222 0.0459433 0)
(0.303833 0.0440133 0)
(0.304796 0.042152 0)
(0.305269 0.040423 0)
(0.305374 0.0388576 0)
(0.305209 0.0374672 0)
(0.304846 0.0362534 0)
(0.304338 0.0352125 0)
(0.303726 0.0343393 0)
(0.303038 0.0336286 0)
(0.302299 0.0330763 0)
(0.301537 0.0326717 0)
(0.300859 0.0323922 0)
(0.262357 0.0309814 0)
(0.269937 0.0382555 0)
(0.277686 0.0428082 0)
(0.284649 0.0450261 0)
(0.2904 0.045518 0)
(0.294892 0.0448982 0)
(0.298253 0.0436722 0)
(0.300666 0.0421776 0)
(0.302313 0.0406071 0)
(0.30336 0.0390652 0)
(0.303945 0.0376094 0)
(0.304178 0.0362711 0)
(0.304148 0.0350665 0)
(0.303921 0.034003 0)
(0.30355 0.0330828 0)
(0.303071 0.0323058 0)
(0.302515 0.0316709 0)
(0.301904 0.031177 0)
(0.301268 0.0308168 0)
(0.300697 0.0305736 0)
(0.270034 0.0249949 0)
(0.275592 0.0310424 0)
(0.281265 0.0351715 0)
(0.286479 0.0375761 0)
(0.290977 0.0387047 0)
(0.294661 0.0389373 0)
(0.297537 0.0385577 0)
(0.299688 0.0377867 0)
(0.301222 0.0367943 0)
(0.30225 0.0357026 0)
(0.302875 0.0345952 0)
(0.303182 0.0335269 0)
(0.303245 0.0325325 0)
(0.303123 0.0316335 0)
(0.302861 0.0308425 0)
(0.302495 0.0301667 0)
(0.302053 0.0296106 0)
(0.301556 0.0291766 0)
(0.301031 0.0288611 0)
(0.300557 0.0286524 0)
(0.275425 0.0203246 0)
(0.279341 0.0257769 0)
(0.283624 0.0297982 0)
(0.287784 0.0324318 0)
(0.291499 0.0339044 0)
(0.294621 0.0344897 0)
(0.29712 0.0344506 0)
(0.299035 0.0340053 0)
(0.300437 0.0333171 0)
(0.301409 0.0325009 0)
(0.302029 0.0316355 0)
(0.30237 0.0307744 0)
(0.302492 0.0299543 0)
(0.302445 0.0291995 0)
(0.302269 0.0285264 0)
(0.301996 0.0279457 0)
(0.30165 0.0274648 0)
(0.301252 0.0270885 0)
(0.300826 0.0268157 0)
(0.300439 0.0266389 0)
(0.28058 0.0168462 0)
(0.283458 0.021394 0)
(0.286624 0.0249308 0)
(0.289741 0.0274246 0)
(0.292596 0.0290169 0)
(0.295068 0.0298879 0)
(0.297108 0.0302078 0)
(0.298718 0.0301267 0)
(0.299933 0.0297718 0)
(0.300802 0.029245 0)
(0.301382 0.0286246 0)
(0.301724 0.0279683 0)
(0.301876 0.0273176 0)
(0.30188 0.0267021 0)
(0.301768 0.0261427 0)
(0.301569 0.0256536 0)
(0.301304 0.025245 0)
(0.300991 0.0249239 0)
(0.300652 0.0246916 0)
(0.30034 0.024544 0)
(0.284556 0.0139235 0)
(0.286625 0.0178877 0)
(0.288972 0.0210719 0)
(0.291363 0.0234373 0)
(0.293609 0.0250533 0)
(0.295594 0.0260362 0)
(0.297261 0.0265171 0)
(0.298602 0.0266223 0)
(0.299631 0.0264616 0)
(0.300385 0.0261242 0)
(0.300902 0.02568 0)
(0.301222 0.025182 0)
(0.301383 0.0246702 0)
(0.301417 0.0241738 0)
(0.301352 0.0237145 0)
(0.301211 0.023308 0)
(0.301012 0.0229656 0)
(0.30077 0.0226953 0)
(0.300504 0.0225002 0)
(0.300258 0.0223786 0)
(0.288112 0.0116286 0)
(0.289612 0.0149373 0)
(0.291328 0.0176824 0)
(0.293091 0.0198047 0)
(0.294773 0.0213385 0)
(0.296288 0.0223584 0)
(0.297588 0.0229531 0)
(0.298655 0.0232121 0)
(0.299492 0.0232191 0)
(0.300117 0.0230472 0)
(0.300558 0.0227574 0)
(0.300841 0.022399 0)
(0.300995 0.0220101 0)
(0.301045 0.02162 0)
(0.301012 0.0212509 0)
(0.300914 0.0209192 0)
(0.300768 0.020637 0)
(0.300586 0.0204132 0)
(0.300382 0.0202518 0)
(0.300191 0.0201532 0)
(0.290957 0.00961425 0)
(0.292025 0.0124331 0)
(0.293263 0.0148097 0)
(0.29456 0.0166983 0)
(0.29582 0.0181128 0)
(0.296971 0.0190998 0)
(0.297971 0.0197226 0)
(0.298802 0.0200506 0)
(0.299462 0.0201514 0)
(0.299964 0.0200855 0)
(0.300324 0.0199047 0)
(0.300561 0.0196516 0)
(0.300697 0.0193606 0)
(0.300751 0.0190585 0)
(0.300738 0.0187662 0)
(0.300673 0.0184995 0)
(0.300568 0.0182705 0)
(0.300434 0.0180878 0)
(0.300282 0.0179563 0)
(0.300138 0.0178776 0)
(0.293401 0.00794025 0)
(0.294146 0.0102619 0)
(0.295016 0.012259 0)
(0.295933 0.0138834 0)
(0.296831 0.0151368 0)
(0.297662 0.0160479 0)
(0.298395 0.0166597 0)
(0.299011 0.0170218 0)
(0.299509 0.0171849 0)
(0.299892 0.017197 0)
(0.300172 0.0171006 0)
(0.300361 0.0169321 0)
(0.300473 0.0167218 0)
(0.300523 0.0164937 0)
(0.300521 0.0162671 0)
(0.300479 0.0160569 0)
(0.300407 0.0158744 0)
(0.300312 0.015728 0)
(0.300202 0.0156227 0)
(0.300096 0.0155609 0)
(0.295358 0.00642378 0)
(0.29586 0.00833518 0)
(0.29645 0.00999396 0)
(0.29708 0.0113639 0)
(0.297703 0.0124427 0)
(0.298285 0.0132477 0)
(0.298802 0.0138084 0)
(0.299241 0.0141618 0)
(0.299599 0.0143469 0)
(0.299877 0.0144013 0)
(0.300082 0.0143596 0)
(0.300223 0.0142517 0)
(0.300309 0.0141029 0)
(0.300349 0.013934 0)
(0.300353 0.0137617 0)
(0.300327 0.0135992 0)
(0.300279 0.0134566 0)
(0.300214 0.0133416 0)
(0.300138 0.013259 0)
(0.300064 0.0132116 0)
(0.296962 0.00509282 0)
(0.297281 0.00660223 0)
(0.297659 0.00792901 0)
(0.298062 0.0090399 0)
(0.298463 0.00992936 0)
(0.298841 0.0106074 0)
(0.299179 0.0110939 0)
(0.299469 0.0114148 0)
(0.299707 0.0115987 0)
(0.299894 0.0116741 0)
(0.300033 0.0116679 0)
(0.30013 0.0116038 0)
(0.30019 0.0115025 0)
(0.30022 0.0113812 0)
(0.300225 0.0112538 0)
(0.30021 0.0111316 0)
(0.30018 0.0110233 0)
(0.300138 0.0109353 0)
(0.300089 0.0108723 0)
(0.30004 0.0108369 0)
(0.298191 0.00384991 0)
(0.298377 0.00500362 0)
(0.298598 0.0060225 0)
(0.298835 0.00688244 0)
(0.299072 0.00757852 0)
(0.299296 0.00811662 0)
(0.299497 0.00850997 0)
(0.299671 0.00877676 0)
(0.299814 0.0089376 0)
(0.299927 0.00901353 0)
(0.300011 0.00902458 0)
(0.30007 0.00898887 0)
(0.300108 0.00892223 0)
(0.300127 0.00883801 0)
(0.300131 0.00874724 0)
(0.300123 0.00865877 0)
(0.300105 0.0085796 0)
(0.300081 0.00851503 0)
(0.300052 0.00846888 0)
(0.300022 0.00844354 0)
(0.299105 0.00270258 0)
(0.299195 0.00350955 0)
(0.299302 0.00422768 0)
(0.299419 0.00483796 0)
(0.299535 0.00533609 0)
(0.299646 0.00572525 0)
(0.299746 0.0060137 0)
(0.299832 0.00621326 0)
(0.299904 0.00633766 0)
(0.29996 0.00640116 0)
(0.300003 0.0064176 0)
(0.300033 0.00639964 0)
(0.300052 0.0063585 0)
(0.300062 0.00630374 0)
(0.300064 0.00624329 0)
(0.300061 0.00618359 0)
(0.300052 0.00612972 0)
(0.30004 0.00608559 0)
(0.300026 0.00605414 0)
(0.30001 0.00603726 0)
(0.299694 0.00159773 0)
(0.299722 0.0020803 0)
(0.299759 0.00250907 0)
(0.299799 0.00287425 0)
(0.299839 0.00317363 0)
(0.299877 0.00340884 0)
(0.299912 0.00358447 0)
(0.299942 0.00370723 0)
(0.299966 0.00378507 0)
(0.299986 0.00382632 0)
(0.300001 0.00383913 0)
(0.300011 0.003831 0)
(0.300018 0.0038086 0)
(0.300021 0.00377768 0)
(0.300022 0.00374301 0)
(0.300021 0.00370847 0)
(0.300018 0.00367712 0)
(0.300014 0.00365138 0)
(0.300009 0.00363307 0)
(0.300003 0.00362343 0)
(0.299986 0.000537308 0)
(0.299987 0.00069148 0)
(0.299988 0.000832644 0)
(0.29999 0.000953746 0)
(0.299992 0.00105336 0)
(0.299994 0.00113187 0)
(0.299996 0.0011907 0)
(0.299997 0.00123202 0)
(0.299998 0.00125842 0)
(0.299999 0.00127262 0)
(0.3 0.00127731 0)
(0.300001 0.00127497 0)
(0.300001 0.00126782 0)
(0.300001 0.00125777 0)
(0.300001 0.00124641 0)
(0.300001 0.00123506 0)
(0.300001 0.00122473 0)
(0.300001 0.00121625 0)
(0.3 0.00121022 0)
(0.3 0.00120707 0)
(0.0996921 -0.168424 0)
(0.0792342 -0.143631 0)
(0.0668273 -0.120603 0)
(0.0581034 -0.10003 0)
(0.0515372 -0.0813388 0)
(0.0464908 -0.0640566 0)
(0.0426431 -0.0478626 0)
(0.0398075 -0.032493 0)
(0.0378672 -0.0177118 0)
(0.0367498 -0.003303 0)
(0.0364161 0.0109363 0)
(0.0368557 0.0252027 0)
(0.0380876 0.039694 0)
(0.0401637 0.0546164 0)
(0.0431797 0.070191 0)
(0.0473005 0.0866628 0)
(0.0528216 0.104337 0)
(0.0603342 0.123692 0)
(0.0712066 0.145299 0)
(0.0891812 0.168227 0)
(0.173433 -0.104362 0)
(0.159209 -0.0950782 0)
(0.146816 -0.0844311 0)
(0.136412 -0.0730594 0)
(0.127881 -0.0612273 0)
(0.121044 -0.0490701 0)
(0.115728 -0.0366832 0)
(0.111786 -0.024136 0)
(0.109106 -0.0114773 0)
(0.107608 0.0012589 0)
(0.107251 0.014047 0)
(0.10802 0.0268655 0)
(0.109939 0.0396933 0)
(0.113066 0.0525055 0)
(0.117502 0.0652668 0)
(0.123406 0.0779186 0)
(0.131012 0.0903808 0)
(0.140673 0.102635 0)
(0.152946 0.114741 0)
(0.1687 0.125383 0)
(0.190773 -0.0672575 0)
(0.185568 -0.0617818 0)
(0.18087 -0.0554085 0)
(0.176686 -0.0482927 0)
(0.173036 -0.0405864 0)
(0.169947 -0.0324182 0)
(0.167446 -0.0238945 0)
(0.165557 -0.0151042 0)
(0.164297 -0.00612336 0)
(0.163679 0.00298217 0)
(0.163714 0.0121526 0)
(0.164409 0.0213313 0)
(0.165769 0.0304615 0)
(0.167796 0.0394829 0)
(0.170494 0.0483275 0)
(0.173862 0.0569141 0)
(0.177903 0.0651467 0)
(0.182629 0.0729287 0)
(0.188099 0.080131 0)
(0.194479 0.0862683 0)
(0.218642 -0.0416059 0)
(0.214863 -0.0374686 0)
(0.211345 -0.0329993 0)
(0.208166 -0.0282279 0)
(0.205378 -0.0231874 0)
(0.20302 -0.0179131 0)
(0.201119 -0.0124421 0)
(0.199691 -0.00681332 0)
(0.19875 -0.00106664 0)
(0.198303 0.00475714 0)
(0.198356 0.0106166 0)
(0.198913 0.0164699 0)
(0.199977 0.0222745 0)
(0.201548 0.0279873 0)
(0.203627 0.0335643 0)
(0.206212 0.0389599 0)
(0.209302 0.0441302 0)
(0.212897 0.0490426 0)
(0.217005 0.0536586 0)
(0.221645 0.0577724 0)
(0.23196 -0.0298029 0)
(0.230081 -0.0267111 0)
(0.228375 -0.0233893 0)
(0.226858 -0.0198558 0)
(0.225544 -0.0161336 0)
(0.224448 -0.0122485 0)
(0.223584 -0.008228 0)
(0.222961 -0.00410069 0)
(0.222591 0.000104236 0)
(0.222479 0.00435723 0)
(0.22263 0.00862847 0)
(0.223045 0.0128879 0)
(0.223724 0.0171051 0)
(0.224663 0.0212494 0)
(0.225856 0.0252895 0)
(0.227294 0.0291935 0)
(0.228964 0.0329292 0)
(0.230856 0.0364665 0)
(0.232957 0.0397733 0)
(0.235263 0.0427851 0)
(0.24735 -0.0206622 0)
(0.246005 -0.0181963 0)
(0.244772 -0.0156239 0)
(0.243666 -0.012954 0)
(0.242704 -0.0101969 0)
(0.241898 -0.00736397 0)
(0.24126 -0.00446783 0)
(0.2408 -0.00152193 0)
(0.240523 0.00145947 0)
(0.240434 0.00446142 0)
(0.240538 0.00746844 0)
(0.240833 0.0104648 0)
(0.241321 0.0134349 0)
(0.241997 0.0163629 0)
(0.242859 0.0192335 0)
(0.243899 0.0220317 0)
(0.24511 0.0247437 0)
(0.246482 0.02736 0)
(0.248006 0.029871 0)
(0.249671 0.0322312 0)
(0.256564 -0.0155689 0)
(0.255779 -0.0136397 0)
(0.255078 -0.0116355 0)
(0.254465 -0.00956255 0)
(0.253946 -0.0074282 0)
(0.253524 -0.00524077 0)
(0.253204 -0.00300942 0)
(0.252989 -0.000743922 0)
(0.252882 0.00154542 0)
(0.252884 0.00384792 0)
(0.252997 0.00615264 0)
(0.25322 0.00844849 0)
(0.253552 0.0107244 0)
(0.253993 0.0129692 0)
(0.254538 0.0151721 0)
(0.255184 0.0173225 0)
(0.255928 0.0194102 0)
(0.256766 0.0214261 0)
(0.257692 0.0233622 0)
(0.258703 0.0252051 0)
(0.265917 -0.0116598 0)
(0.265358 -0.010084 0)
(0.264854 -0.0084676 0)
(0.264412 -0.00681478 0)
(0.264034 -0.00513007 0)
(0.263726 -0.0034183 0)
(0.263491 -0.0016846 0)
(0.263331 6.56334e-05 0)
(0.263249 0.00182679 0)
(0.263246 0.00359308 0)
(0.263323 0.00535864 0)
(0.26348 0.00711753 0)
(0.263717 0.00886385 0)
(0.264032 0.0105918 0)
(0.264424 0.0122956 0)
(0.264889 0.0139697 0)
(0.265425 0.0156091 0)
(0.266029 0.0172101 0)
(0.266695 0.0187691 0)
(0.267421 0.0202703 0)
(0.272298 -0.00911956 0)
(0.271938 -0.00784816 0)
(0.271621 -0.00654791 0)
(0.271348 -0.00522168 0)
(0.27112 -0.00387265 0)
(0.27094 -0.00250431 0)
(0.270809 -0.00112035 0)
(0.270727 0.000275314 0)
(0.270696 0.00167861 0)
(0.270716 0.00308533 0)
(0.270788 0.00449121 0)
(0.27091 0.00589193 0)
(0.271083 0.00728319 0)
(0.271306 0.00866074 0)
(0.271578 0.0100204 0)
(0.271898 0.0113582 0)
(0.272264 0.0126701 0)
(0.272676 0.013953 0)
(0.27313 0.015204 0)
(0.273627 0.016418 0)
(0.278352 -0.00716039 0)
(0.278096 -0.0061058 0)
(0.277869 -0.00503359 0)
(0.277672 -0.00394583 0)
(0.277508 -0.00284469 0)
(0.277378 -0.00173247 0)
(0.277282 -0.00061152 0)
(0.277222 0.000515702 0)
(0.277198 0.00164669 0)
(0.277211 0.00277891 0)
(0.277261 0.00390977 0)
(0.277348 0.0050367 0)
(0.277472 0.00615714 0)
(0.277631 0.00726855 0)
(0.277827 0.00836845 0)
(0.278056 0.00945436 0)
(0.27832 0.010524 0)
(0.278615 0.0115757 0)
(0.278941 0.0126079 0)
(0.279296 0.0136136 0)
(0.282828 -0.00573737 0)
(0.282655 -0.00487132 0)
(0.282503 -0.00399258 0)
(0.282374 -0.00310263 0)
(0.282269 -0.00220304 0)
(0.282187 -0.00129545 0)
(0.28213 -0.0003816 0)
(0.282097 0.000536722 0)
(0.28209 0.00145767 0)
(0.282107 0.00237937 0)
(0.28215 0.00329992 0)
(0.282218 0.0042174 0)
(0.282311 0.00512991 0)
(0.282429 0.00603557 0)
(0.282571 0.00693254 0)
(0.282737 0.007819 0)
(0.282927 0.00869322 0)
(0.283139 0.00955371 0)
(0.283373 0.0103993 0)
(0.28363 0.0112274 0)
(0.286893 -0.00461193 0)
(0.286771 -0.0038904 0)
(0.286663 -0.00316042 0)
(0.286572 -0.00242309 0)
(0.286497 -0.00167953 0)
(0.286439 -0.000930914 0)
(0.286398 -0.000178443 0)
(0.286374 0.000576656 0)
(0.286369 0.00133314 0)
(0.286381 0.00208974 0)
(0.286411 0.0028452 0)
(0.286459 0.00359824 0)
(0.286525 0.00434761 0)
(0.286608 0.00509205 0)
(0.286709 0.00583033 0)
(0.286826 0.00656121 0)
(0.286961 0.00728355 0)
(0.287111 0.00799646 0)
(0.287277 0.00869916 0)
(0.287458 0.00938836 0)
(0.290031 -0.00372616 0)
(0.289947 -0.00313246 0)
(0.289875 -0.00253261 0)
(0.289814 -0.00192741 0)
(0.289765 -0.00131768 0)
(0.289727 -0.000704297 0)
(0.289702 -8.81366e-05 0)
(0.289689 0.000529886 0)
(0.289689 0.00114884 0)
(0.2897 0.00176779 0)
(0.289725 0.00238579 0)
(0.289761 0.00300189 0)
(0.28981 0.00361514 0)
(0.289872 0.00422461 0)
(0.289945 0.00482938 0)
(0.29003 0.00542853 0)
(0.290127 0.00602118 0)
(0.290235 0.00660659 0)
(0.290355 0.0071842 0)
(0.290485 0.00775259 0)
(0.292775 -0.00299745 0)
(0.292718 -0.00250846 0)
(0.292668 -0.00201516 0)
(0.292627 -0.00151813 0)
(0.292593 -0.00101801 0)
(0.292567 -0.000515419 0)
(0.29255 -1.10082e-05 0)
(0.29254 0.000494567 0)
(0.29254 0.00100064 0)
(0.292548 0.00150655 0)
(0.292564 0.00201161 0)
(0.292589 0.00251516 0)
(0.292622 0.00301652 0)
(0.292664 0.00351503 0)
(0.292714 0.00401004 0)
(0.292772 0.00450087 0)
(0.292837 0.00498691 0)
(0.292911 0.00546768 0)
(0.292992 0.00594279 0)
(0.293081 0.00641056 0)
(0.294912 -0.00238664 0)
(0.294874 -0.00199238 0)
(0.294842 -0.00159498 0)
(0.294815 -0.00119487 0)
(0.294794 -0.000792502 0)
(0.294778 -0.000388353 0)
(0.294767 1.70989e-05 0)
(0.294762 0.000423368 0)
(0.294763 0.000829959 0)
(0.29477 0.00123637 0)
(0.294782 0.00164211 0)
(0.2948 0.00204667 0)
(0.294823 0.00244956 0)
(0.294852 0.00285027 0)
(0.294886 0.00324832 0)
(0.294926 0.00364322 0)
(0.294971 0.0040345 0)
(0.295022 0.00442176 0)
(0.295077 0.00480477 0)
(0.295138 0.00518264 0)
(0.296691 -0.00185958 0)
(0.296668 -0.00154766 0)
(0.296647 -0.00123351 0)
(0.29663 -0.000917446 0)
(0.296617 -0.000599812 0)
(0.296607 -0.00028095 0)
(0.2966 3.87907e-05 0)
(0.296597 0.000359056 0)
(0.296597 0.000679489 0)
(0.296601 0.000999729 0)
(0.296608 0.00131942 0)
(0.296619 0.00163819 0)
(0.296633 0.0019557 0)
(0.296651 0.00227157 0)
(0.296672 0.00258546 0)
(0.296697 0.00289701 0)
(0.296725 0.00320587 0)
(0.296756 0.00351181 0)
(0.29679 0.00381467 0)
(0.296827 0.00411347 0)
(0.298025 -0.00139243 0)
(0.298012 -0.00115713 0)
(0.298001 -0.000920245 0)
(0.297991 -0.000682019 0)
(0.297984 -0.000442689 0)
(0.297978 -0.000202502 0)
(0.297974 3.82945e-05 0)
(0.297973 0.000279447 0)
(0.297974 0.000520702 0)
(0.297976 0.000761802 0)
(0.297981 0.00100249 0)
(0.297987 0.00124251 0)
(0.297996 0.00148161 0)
(0.298007 0.00171953 0)
(0.298019 0.00195601 0)
(0.298034 0.00219081 0)
(0.29805 0.00242368 0)
(0.298069 0.00265442 0)
(0.298089 0.00288298 0)
(0.298111 0.00310875 0)
(0.29903 -0.000967755 0)
(0.299024 -0.000802687 0)
(0.299018 -0.00063658 0)
(0.299014 -0.000469594 0)
(0.29901 -0.00030189 0)
(0.299007 -0.000133633 0)
(0.299005 3.50091e-05 0)
(0.299005 0.000203867 0)
(0.299005 0.00037277 0)
(0.299006 0.000541548 0)
(0.299008 0.000710027 0)
(0.299011 0.000878038 0)
(0.299015 0.00104541 0)
(0.29902 0.00121197 0)
(0.299025 0.00137755 0)
(0.299032 0.00154197 0)
(0.29904 0.00170507 0)
(0.299048 0.00186673 0)
(0.299057 0.00202692 0)
(0.299068 0.00218504 0)
(0.299677 -0.000570331 0)
(0.299675 -0.000472843 0)
(0.299673 -0.000374761 0)
(0.299672 -0.000276178 0)
(0.29967 -0.000177187 0)
(0.29967 -7.78846e-05 0)
(0.299669 2.16326e-05 0)
(0.299669 0.000121266 0)
(0.299669 0.000220916 0)
(0.299669 0.000320484 0)
(0.29967 0.000419869 0)
(0.299671 0.000518972 0)
(0.299672 0.000617693 0)
(0.299673 0.000715935 0)
(0.299675 0.0008136 0)
(0.299677 0.000910586 0)
(0.299679 0.00100679 0)
(0.299681 0.00110214 0)
(0.299683 0.00119668 0)
(0.299686 0.00129029 0)
(0.299991 -0.00018904 0)
(0.29999 -0.000156473 0)
(0.29999 -0.000123706 0)
(0.29999 -9.0771e-05 0)
(0.29999 -5.76947e-05 0)
(0.29999 -2.45065e-05 0)
(0.29999 8.76418e-06 0)
(0.29999 4.20881e-05 0)
(0.29999 7.54362e-05 0)
(0.29999 0.00010878 0)
(0.29999 0.000142092 0)
(0.29999 0.000175345 0)
(0.299989 0.000208515 0)
(0.299989 0.000241579 0)
(0.299989 0.000274516 0)
(0.299989 0.000307301 0)
(0.299989 0.000339924 0)
(0.299989 0.000372448 0)
(0.299988 0.000404996 0)
(0.299988 0.000437052 0)
(0.292327 -0.101369 0)
(0.291179 -0.105163 0)
(0.290216 -0.109464 0)
(0.289522 -0.114406 0)
(0.289179 -0.120066 0)
(0.289235 -0.126482 0)
(0.289672 -0.133658 0)
(0.29038 -0.14155 0)
(0.291133 -0.150054 0)
(0.291573 -0.158995 0)
(0.291213 -0.168127 0)
(0.289454 -0.177133 0)
(0.285618 -0.185638 0)
(0.278984 -0.193218 0)
(0.268834 -0.199398 0)
(0.254479 -0.203683 0)
(0.235287 -0.205682 0)
(0.210695 -0.205229 0)
(0.180192 -0.201721 0)
(0.14327 -0.191718 0)
(0.285291 -0.0748065 0)
(0.282928 -0.0755885 0)
(0.280173 -0.0764361 0)
(0.277046 -0.0773194 0)
(0.273574 -0.0783042 0)
(0.269805 -0.0794723 0)
(0.26581 -0.0809103 0)
(0.261687 -0.0827072 0)
(0.257541 -0.0849453 0)
(0.253473 -0.0876852 0)
(0.249549 -0.0909494 0)
(0.245765 -0.0947056 0)
(0.242022 -0.0988508 0)
(0.238099 -0.103198 0)
(0.233657 -0.107469 0)
(0.228265 -0.111296 0)
(0.22145 -0.114226 0)
(0.212748 -0.115688 0)
(0.201757 -0.114946 0)
(0.188363 -0.111226 0)
(0.281546 -0.0792415 0)
(0.280151 -0.0804078 0)
(0.27858 -0.0815081 0)
(0.276792 -0.0825411 0)
(0.27473 -0.0834673 0)
(0.272328 -0.084249 0)
(0.269516 -0.0848561 0)
(0.266232 -0.0852657 0)
(0.262422 -0.0854645 0)
(0.258058 -0.0854505 0)
(0.253136 -0.0852315 0)
(0.247686 -0.0848223 0)
(0.241773 -0.0842377 0)
(0.235491 -0.0834826 0)
(0.228953 -0.0825405 0)
(0.222282 -0.0813623 0)
(0.215597 -0.0798566 0)
(0.209001 -0.0778801 0)
(0.202587 -0.0752411 0)
(0.196467 -0.0717415 0)
(0.275134 -0.0594025 0)
(0.273078 -0.0597716 0)
(0.27097 -0.0601681 0)
(0.268815 -0.0605635 0)
(0.266624 -0.0609522 0)
(0.264405 -0.0613221 0)
(0.262163 -0.0616513 0)
(0.259895 -0.0619107 0)
(0.257589 -0.0620643 0)
(0.255226 -0.0620704 0)
(0.252776 -0.0618839 0)
(0.250203 -0.0614579 0)
(0.247468 -0.0607476 0)
(0.244535 -0.0597126 0)
(0.241378 -0.0583191 0)
(0.237984 -0.056542 0)
(0.234361 -0.0543644 0)
(0.230543 -0.0517774 0)
(0.22659 -0.0487809 0)
(0.222587 -0.0453844 0)
(0.277267 -0.0545727 0)
(0.275769 -0.0543808 0)
(0.274138 -0.0541041 0)
(0.272375 -0.0537453 0)
(0.270477 -0.0532998 0)
(0.268445 -0.0527643 0)
(0.266282 -0.0521368 0)
(0.263996 -0.051416 0)
(0.261596 -0.0506002 0)
(0.259101 -0.0496866 0)
(0.25653 -0.0486701 0)
(0.253906 -0.0475431 0)
(0.251256 -0.0462943 0)
(0.248604 -0.0449088 0)
(0.245978 -0.0433687 0)
(0.243401 -0.0416536 0)
(0.240895 -0.0397425 0)
(0.238481 -0.0376153 0)
(0.236176 -0.0352556 0)
(0.233997 -0.0326526 0)
(0.276886 -0.0440478 0)
(0.275573 -0.0437906 0)
(0.274243 -0.0434865 0)
(0.272899 -0.0431266 0)
(0.271537 -0.0427018 0)
(0.270159 -0.0422026 0)
(0.268761 -0.041619 0)
(0.267342 -0.0409409 0)
(0.265899 -0.0401586 0)
(0.26443 -0.0392629 0)
(0.262932 -0.0382456 0)
(0.261406 -0.0370999 0)
(0.25985 -0.0358204 0)
(0.258269 -0.0344034 0)
(0.256669 -0.032847 0)
(0.255058 -0.031151 0)
(0.253448 -0.0293165 0)
(0.251855 -0.027346 0)
(0.250294 -0.0252434 0)
(0.248786 -0.0230135 0)
(0.279606 -0.0379 0)
(0.278551 -0.0373908 0)
(0.277455 -0.0368279 0)
(0.276319 -0.0362118 0)
(0.275147 -0.035541 0)
(0.273943 -0.0348138 0)
(0.272712 -0.0340287 0)
(0.271459 -0.033184 0)
(0.270191 -0.0322775 0)
(0.268915 -0.0313068 0)
(0.267639 -0.0302691 0)
(0.266371 -0.0291612 0)
(0.265118 -0.0279799 0)
(0.263889 -0.0267217 0)
(0.262691 -0.0253835 0)
(0.261532 -0.0239624 0)
(0.26042 -0.0224561 0)
(0.25936 -0.0208633 0)
(0.25836 -0.0191837 0)
(0.257426 -0.0174181 0)
(0.281689 -0.0316548 0)
(0.280881 -0.0311638 0)
(0.280066 -0.0306289 0)
(0.279245 -0.0300501 0)
(0.278419 -0.0294242 0)
(0.277589 -0.028748 0)
(0.276755 -0.0280188 0)
(0.275919 -0.0272343 0)
(0.275082 -0.0263924 0)
(0.274245 -0.0254915 0)
(0.273409 -0.0245303 0)
(0.272579 -0.023508 0)
(0.271755 -0.0224244 0)
(0.270942 -0.0212795 0)
(0.270143 -0.0200741 0)
(0.269363 -0.0188092 0)
(0.268606 -0.0174863 0)
(0.267877 -0.0161074 0)
(0.267182 -0.0146748 0)
(0.266527 -0.0131912 0)
(0.284365 -0.0268063 0)
(0.283717 -0.0262711 0)
(0.283059 -0.0257014 0)
(0.282394 -0.0250977 0)
(0.281722 -0.0244592 0)
(0.281045 -0.0237851 0)
(0.280367 -0.0230748 0)
(0.27969 -0.0223277 0)
(0.279016 -0.0215432 0)
(0.278349 -0.0207208 0)
(0.277691 -0.01986 0)
(0.277046 -0.0189602 0)
(0.276417 -0.0180211 0)
(0.275806 -0.0170426 0)
(0.275217 -0.0160245 0)
(0.274653 -0.0149672 0)
(0.274116 -0.0138711 0)
(0.273609 -0.012737 0)
(0.273136 -0.011566 0)
(0.272698 -0.0103596 0)
(0.286841 -0.0226505 0)
(0.286362 -0.022156 0)
(0.285881 -0.021632 0)
(0.2854 -0.0210804 0)
(0.28492 -0.0205 0)
(0.284442 -0.0198899 0)
(0.283966 -0.0192495 0)
(0.283494 -0.0185784 0)
(0.283026 -0.0178764 0)
(0.282565 -0.0171432 0)
(0.282111 -0.016379 0)
(0.281666 -0.015584 0)
(0.281231 -0.0147585 0)
(0.280809 -0.0139031 0)
(0.280401 -0.0130185 0)
(0.280008 -0.0121057 0)
(0.279634 -0.0111657 0)
(0.279279 -0.0101997 0)
(0.278946 -0.00920906 0)
(0.278636 -0.00819541 0)
(0.289208 -0.0191003 0)
(0.288833 -0.0186334 0)
(0.288458 -0.0181445 0)
(0.288083 -0.0176346 0)
(0.287709 -0.0171033 0)
(0.287337 -0.0165502 0)
(0.286968 -0.0159753 0)
(0.286603 -0.0153785 0)
(0.286243 -0.01476 0)
(0.285891 -0.0141197 0)
(0.285546 -0.0134578 0)
(0.285211 -0.0127745 0)
(0.284887 -0.01207 0)
(0.284575 -0.0113448 0)
(0.284276 -0.0105992 0)
(0.283991 -0.00983377 0)
(0.283722 -0.00904926 0)
(0.283471 -0.00824641 0)
(0.283237 -0.00742611 0)
(0.283022 -0.00658939 0)
(0.291389 -0.0161151 0)
(0.291118 -0.0156983 0)
(0.290848 -0.0152631 0)
(0.29058 -0.014811 0)
(0.290314 -0.0143418 0)
(0.29005 -0.0138552 0)
(0.28979 -0.013351 0)
(0.289534 -0.0128295 0)
(0.289282 -0.0122906 0)
(0.289035 -0.0117346 0)
(0.288795 -0.0111618 0)
(0.288561 -0.0105724 0)
(0.288335 -0.00996683 0)
(0.288117 -0.0093456 0)
(0.287908 -0.00870922 0)
(0.28771 -0.00805831 0)
(0.287522 -0.00739355 0)
(0.287345 -0.00671569 0)
(0.287181 -0.00602553 0)
(0.28703 -0.00532397 0)
(0.293308 -0.0134636 0)
(0.293105 -0.013094 0)
(0.292904 -0.0127107 0)
(0.292703 -0.0123145 0)
(0.292505 -0.0119053 0)
(0.292309 -0.011483 0)
(0.292116 -0.0110477 0)
(0.291926 -0.0105995 0)
(0.291741 -0.0101386 0)
(0.29156 -0.00966524 0)
(0.291384 -0.00917953 0)
(0.291213 -0.00868179 0)
(0.29105 -0.00817233 0)
(0.290893 -0.00765148 0)
(0.290743 -0.00711966 0)
(0.290601 -0.0065773 0)
(0.290468 -0.00602489 0)
(0.290344 -0.00546296 0)
(0.29023 -0.0048921 0)
(0.290125 -0.00431294 0)
(0.295012 -0.0111773 0)
(0.294872 -0.0108595 0)
(0.294733 -0.0105305 0)
(0.294595 -0.0101914 0)
(0.294459 -0.00984208 0)
(0.294325 -0.00948247 0)
(0.294193 -0.00911266 0)
(0.294063 -0.0087328 0)
(0.293937 -0.00834305 0)
(0.293814 -0.00794359 0)
(0.293694 -0.00753467 0)
(0.293579 -0.00711652 0)
(0.293468 -0.00668946 0)
(0.293361 -0.0062538 0)
(0.29326 -0.0058099 0)
(0.293163 -0.00535815 0)
(0.293073 -0.00489898 0)
(0.292989 -0.00443282 0)
(0.292911 -0.00396018 0)
(0.292839 -0.00348154 0)
(0.296442 -0.00909302 0)
(0.296344 -0.0088256 0)
(0.296248 -0.00854987 0)
(0.296152 -0.0082665 0)
(0.296057 -0.00797539 0)
(0.295964 -0.00767654 0)
(0.295873 -0.00737007 0)
(0.295784 -0.00705611 0)
(0.295697 -0.00673479 0)
(0.295613 -0.0064063 0)
(0.295531 -0.0060708 0)
(0.295452 -0.00572851 0)
(0.295376 -0.00537965 0)
(0.295304 -0.00502447 0)
(0.295235 -0.00466325 0)
(0.29517 -0.00429626 0)
(0.29511 -0.00392383 0)
(0.295053 -0.00354629 0)
(0.295001 -0.00316399 0)
(0.294954 -0.00277731 0)
(0.297644 -0.00722686 0)
(0.297582 -0.00700986 0)
(0.297522 -0.0067863 0)
(0.297462 -0.00655696 0)
(0.297403 -0.00632175 0)
(0.297345 -0.00608065 0)
(0.297289 -0.00583376 0)
(0.297233 -0.0055812 0)
(0.297179 -0.00532309 0)
(0.297127 -0.00505958 0)
(0.297076 -0.00479081 0)
(0.297027 -0.00451696 0)
(0.29698 -0.00423822 0)
(0.296935 -0.00395479 0)
(0.296892 -0.00366689 0)
(0.296852 -0.00337474 0)
(0.296814 -0.00307861 0)
(0.296779 -0.00277874 0)
(0.296747 -0.00247542 0)
(0.296717 -0.00216893 0)
(0.298586 -0.00547996 0)
(0.298549 -0.0053123 0)
(0.298513 -0.00513994 0)
(0.298478 -0.00496343 0)
(0.298443 -0.0047827 0)
(0.298408 -0.00459773 0)
(0.298375 -0.00440861 0)
(0.298342 -0.00421544 0)
(0.29831 -0.0040183 0)
(0.298279 -0.0038173 0)
(0.298249 -0.00361256 0)
(0.29822 -0.00340422 0)
(0.298193 -0.0031924 0)
(0.298167 -0.00297724 0)
(0.298142 -0.00275892 0)
(0.298118 -0.0025376 0)
(0.298096 -0.00231344 0)
(0.298076 -0.00208665 0)
(0.298057 -0.00185741 0)
(0.29804 -0.00162594 0)
(0.299297 -0.00385128 0)
(0.299279 -0.00373236 0)
(0.299262 -0.00361002 0)
(0.299245 -0.00348485 0)
(0.299229 -0.00335677 0)
(0.299213 -0.00322578 0)
(0.299197 -0.00309194 0)
(0.299181 -0.00295531 0)
(0.299166 -0.00281598 0)
(0.299151 -0.00267402 0)
(0.299137 -0.00252952 0)
(0.299124 -0.00238256 0)
(0.29911 -0.00223324 0)
(0.299098 -0.00208167 0)
(0.299086 -0.00192796 0)
(0.299075 -0.00177223 0)
(0.299064 -0.00161459 0)
(0.299055 -0.00145519 0)
(0.299046 -0.00129415 0)
(0.299038 -0.00113163 0)
(0.299763 -0.00227989 0)
(0.299758 -0.00220885 0)
(0.299753 -0.00213598 0)
(0.299747 -0.00206149 0)
(0.299742 -0.00198532 0)
(0.299737 -0.00190745 0)
(0.299732 -0.00182792 0)
(0.299727 -0.0017468 0)
(0.299722 -0.0016641 0)
(0.299717 -0.0015799 0)
(0.299712 -0.00149422 0)
(0.299708 -0.00140713 0)
(0.299703 -0.00131868 0)
(0.299699 -0.00122894 0)
(0.299695 -0.00113796 0)
(0.299692 -0.00104582 0)
(0.299688 -0.000952595 0)
(0.299685 -0.000858352 0)
(0.299682 -0.000763173 0)
(0.299679 -0.000667137 0)
(0.299991 -0.000763904 0)
(0.299991 -0.000739596 0)
(0.299991 -0.000714508 0)
(0.299991 -0.000689097 0)
(0.299991 -0.00066326 0)
(0.299991 -0.00063693 0)
(0.299991 -0.000610105 0)
(0.299991 -0.000582791 0)
(0.299991 -0.000554995 0)
(0.299991 -0.000526725 0)
(0.299991 -0.000497993 0)
(0.299991 -0.00046881 0)
(0.299991 -0.000439194 0)
(0.299991 -0.00040916 0)
(0.299991 -0.000378729 0)
(0.299991 -0.00034792 0)
(0.299991 -0.000316757 0)
(0.299991 -0.000285261 0)
(0.299991 -0.000253459 0)
(0.299991 -0.000221377 0)
(0.0590069 -0.0657847 0)
(0.0435403 -0.0526158 0)
(0.0329165 -0.0412192 0)
(0.0252083 -0.0321673 0)
(0.019393 -0.0248727 0)
(0.0148891 -0.0189212 0)
(0.0113383 -0.0140839 0)
(0.00850473 -0.0101914 0)
(0.00622575 -0.00709894 0)
(0.00438525 -0.00468413 0)
(0.00289815 -0.00284349 0)
(0.00170129 -0.00148835 0)
(0.000748038 -0.00054115 0)
(5.14892e-06 6.74306e-05 0)
(-0.000548852 0.000401805 0)
(-0.000923913 0.000523368 0)
(-0.00111827 0.000486358 0)
(-0.00111937 0.000344616 0)
(-0.000900257 0.000167041 0)
(-0.000413609 3.95632e-05 0)
(0.0936937 -0.0548384 0)
(0.0793145 -0.0491895 0)
(0.0670457 -0.0431122 0)
(0.0565225 -0.0373103 0)
(0.0474478 -0.0318954 0)
(0.0395955 -0.0269098 0)