/*--------------------------------*- C++ -*----------------------------------*\
| =========                 |                                                 |
| \\      /  F ield         | OpenFOAM: The Open Source CFD Toolbox           |
|  \\    /   O peration     | Version:  v1806                                 |
|   \\  /    A nd           | Web:      www.OpenFOAM.com                      |
|    \\/     M anipulation  |                                                 |
\*---------------------------------------------------------------------------*/
FoamFile
{
    version     2.0;
    format      ascii;
    class       volVectorField;
    location    "14";
    object      U;
}
// * * * * * * * * * * * * * * * * * * * * * * * * * * * * * * * * * * * * * //

dimensions      [0 1 -1 0 0 0 0];


internalField   nonuniform List<vector> 
24000
(
(2.63152 0.0289448 0.0900449)
(2.26589 0.0371276 0.0839464)
(1.8471 0.0319323 0.0614287)
(1.50083 0.0260191 0.0401727)
(1.27288 0.0209419 0.020544)
(1.13112 0.0177157 0.00842274)
(1.03739 0.0158002 0.00321172)
(0.96952 0.0142475 0.0012995)
(0.91887 0.0125269 0.00055103)
(0.879276 0.0106853 0.000413752)
(0.848724 0.00866881 0.00052453)
(0.823877 0.00685323 0.000749722)
(0.804801 0.00501591 0.000917032)
(0.789226 0.00358793 0.00106902)
(0.777905 0.00210643 0.00115066)
(0.768831 0.00128335 0.00118591)
(0.762472 0.000306829 0.00118191)
(0.757184 0.000347116 0.0010769)
(0.75273 0.000106594 0.00100874)
(0.748644 0.000662664 0.000530553)
(2.67905 0.0369322 0.0911351)
(2.36169 0.0491455 0.0862018)
(2.01279 0.0438542 0.0632436)
(1.71266 0.0375708 0.0444991)
(1.50158 0.031566 0.0260458)
(1.36467 0.0269291 0.0128921)
(1.27685 0.0236034 0.00621277)
(1.21603 0.0207457 0.00317967)
(1.17516 0.0177388 0.00179104)
(1.14436 0.0144885 0.00120955)
(1.12429 0.0109151 0.00103094)
(1.10703 0.00746295 0.00108417)
(1.09731 0.0039761 0.00112973)
(1.08711 0.00103813 0.00127434)
(1.08406 -0.00181399 0.00128349)
(1.07845 -0.00375093 0.00141013)
(1.07993 -0.0054587 0.00137561)
(1.07668 -0.00573739 0.00149463)
(1.07921 -0.00568758 0.00119938)
(1.07652 -0.00449204 0.000121594)
(2.67851 0.0161183 0.0911924)
(2.35225 0.0278606 0.0861673)
(2.00793 0.0290906 0.0623103)
(1.71706 0.0276877 0.0437622)
(1.51319 0.025003 0.0258014)
(1.38118 0.021655 0.0128424)
(1.29762 0.0182377 0.0061923)
(1.24051 0.0147969 0.00314787)
(1.20338 0.0112868 0.00174319)
(1.17601 0.00754549 0.00110063)
(1.15975 0.00354944 0.000864376)
(1.14594 -0.000578973 0.000838185)
(1.14008 -0.00466794 0.000829948)
(1.13318 -0.00844591 0.000844951)
(1.13406 -0.0118255 0.000755769)
(1.13151 -0.014462 0.000835655)
(1.13694 -0.016209 0.000730488)
(1.13655 -0.0167278 0.000910133)
(1.14256 -0.0159372 0.000632481)
(1.14259 -0.0139585 -0.000907341)
(2.67797 0.013066 0.091403)
(2.34266 0.0256881 0.0866692)
(1.99419 0.0288063 0.0625304)
(1.70357 0.0277965 0.043765)
(1.50156 0.0250713 0.0258681)
(1.37137 0.0213843 0.0129139)
(1.28981 0.0173489 0.00618582)
(1.23425 0.0129776 0.00308947)
(1.19872 0.0085465 0.00164484)
(1.17238 0.00385051 0.000974839)
(1.15745 -0.000909366 0.000706376)
(1.14451 -0.00590466 0.000713076)
(1.14 -0.0107883 0.000714583)
(1.13402 -0.0155274 0.000788248)
(1.13636 -0.0196449 0.000693104)
(1.13505 -0.0229994 0.000779213)
(1.14219 -0.0250694 0.000644035)
(1.14347 -0.0256871 0.00082384)
(1.15124 -0.0244228 0.000472146)
(1.15335 -0.0213026 -0.00112369)
(2.67763 0.00866531 0.0915115)
(2.33701 0.018058 0.0868896)
(1.98555 0.0216029 0.0625554)
(1.69465 0.0215722 0.0435506)
(1.4934 0.0198245 0.0255941)
(1.36399 0.0166182 0.0126659)
(1.28309 0.0128095 0.00597325)
(1.22799 0.00818624 0.00291407)
(1.19282 0.00345136 0.00152993)
(1.16661 -0.00188031 0.000906682)
(1.15192 -0.00721652 0.000598792)
(1.13927 -0.0129864 0.000524932)
(1.13528 -0.0185597 0.000472712)
(1.12988 -0.0241979 0.00055182)
(1.13311 -0.0290475 0.000479839)
(1.13279 -0.0332032 0.000582893)
(1.14132 -0.0356886 0.000479096)
(1.14399 -0.0364949 0.000635961)
(1.15376 -0.0347458 0.00034205)
(1.15719 -0.0305285 -0.00123655)
(2.67742 0.0065798 0.091588)
(2.3337 0.0142458 0.0870549)
(1.97999 0.0182291 0.0626968)
(1.68794 0.0186941 0.043612)
(1.48632 0.0174459 0.0256466)
(1.35678 0.0141961 0.0127164)
(1.27592 0.0104101 0.00601589)
(1.22086 0.00529301 0.00292908)
(1.18584 0.000200637 0.00152257)
(1.15956 -0.00589344 0.000935071)
(1.14481 -0.0119098 0.000706642)
(1.132 -0.0187508 0.000690172)
(1.12809 -0.0252172 0.000624129)
(1.12297 -0.0320688 0.000675389)
(1.12681 -0.0379176 0.000568977)
(1.12752 -0.0432009 0.000663367)
(1.1374 -0.0463816 0.000531854)
(1.14204 -0.0476257 0.000690936)
(1.15375 -0.0455264 0.000361927)
(1.15981 -0.0402603 -0.00125425)
(2.67722 0.00529418 0.0916638)
(2.33134 0.0108423 0.0871786)
(1.97592 0.0145346 0.0628032)
(1.68282 0.0148391 0.0436479)
(1.48046 0.0139766 0.0256641)
(1.35068 0.0104942 0.0126844)
(1.26955 0.00686648 0.00599508)
(1.2144 0.00120078 0.00291317)
(1.17914 -0.00410116 0.00153445)
(1.15282 -0.0110437 0.000880824)
(1.13792 -0.0175561 0.000628862)
(1.12518 -0.0255376 0.000599821)
(1.12131 -0.0328824 0.000573473)
(1.11657 -0.041152 0.000625653)
(1.12097 -0.0481307 0.00053277)
(1.12284 -0.0548232 0.000614517)
(1.1343 -0.0589398 0.000494729)
(1.14111 -0.0608639 0.000634428)
(1.15557 -0.0585726 0.000326363)
(1.16437 -0.0521451 -0.00133259)
(2.67697 0.00466129 0.0917474)
(2.32938 0.00799157 0.0872703)
(1.97292 0.0115715 0.0628503)
(1.67894 0.0114539 0.0436502)
(1.47564 0.011193 0.025708)
(1.34533 0.00719721 0.0126577)
(1.2638 0.00407368 0.00599084)
(1.20825 -0.00240696 0.00286205)
(1.17282 -0.00750313 0.00154275)
(1.14585 -0.015645 0.000909656)
(1.13085 -0.0223868 0.000679207)
(1.11743 -0.0319767 0.000640484)
(1.1138 -0.040026 0.000604119)
(1.10879 -0.0503302 0.000671528)
(1.11418 -0.0584551 0.000554561)
(1.11678 -0.0673025 0.000675187)
(1.13037 -0.0725771 0.000508699)
(1.13955 -0.075862 0.000688692)
(1.15743 -0.0735817 0.000333424)
(1.17008 -0.0661528 -0.0013423)
(2.67653 0.00447531 0.0918655)
(2.3276 0.00552095 0.0873161)
(1.97044 0.00932126 0.0628794)
(1.67606 0.00838511 0.0436155)
(1.47123 0.00892985 0.0258127)
(1.34063 0.00394953 0.0126169)
(1.2581 0.00168545 0.00603265)
(1.2024 -0.00610442 0.00279615)
(1.1662 -0.0105379 0.00160829)
(1.13887 -0.020427 0.000850077)
(1.12327 -0.0268525 0.000728249)
(1.10941 -0.0387288 0.000588175)
(1.10553 -0.0470196 0.000644877)
(1.10036 -0.0602233 0.00063203)
(1.10639 -0.0693043 0.000575994)
(1.10992 -0.0813935 0.000667521)
(1.12576 -0.0879791 0.000500486)
(1.13783 -0.0937136 0.000724937)
(1.16012 -0.0916516 0.00028075)
(1.17736 -0.0836171 -0.0013402)
(2.67589 0.00464141 0.0920146)
(2.32586 0.0032111 0.0872947)
(1.96836 0.00786728 0.0629184)
(1.67376 0.00548144 0.0435499)
(1.46721 0.00743312 0.0259501)
(1.33624 0.000616807 0.012532)
(1.25279 0.000132582 0.0061078)
(1.19645 -0.00993411 0.00268384)
(1.15995 -0.0124949 0.00165933)
(1.13129 -0.0254124 0.000750773)
(1.11599 -0.0300922 0.000785143)
(1.1 -0.0458423 0.000523027)
(1.09731 -0.0528947 0.000688583)
(1.08966 -0.0710138 0.000600976)
(1.09839 -0.079677 0.000564344)
(1.10024 -0.0975126 0.000704988)
(1.121 -0.104454 0.000387495)
(1.13419 -0.115196 0.000904221)
(1.1635 -0.11318 9.45472e-05)
(1.18659 -0.105055 -0.00119256)
(2.6748 0.00492998 0.0922151)
(2.32451 0.00116407 0.0871256)
(1.96616 0.00718328 0.0630124)
(1.67244 0.00282172 0.0434279)
(1.46275 0.0067922 0.0261212)
(1.33314 -0.0026384 0.012308)
(1.24696 -0.00038801 0.00627169)
(1.19172 -0.0137646 0.0024229)
(1.15273 -0.0131382 0.0018674)
(1.12457 -0.0304521 0.000473665)
(1.10734 -0.0317763 0.00101804)
(1.09082 -0.0532708 0.000229843)
(1.08714 -0.0571625 0.00093056)
(1.0783 -0.0828371 0.000266057)
(1.08793 -0.0888803 0.000791396)
(1.08889 -0.116211 0.000395411)
(1.11396 -0.121252 0.000471366)
(1.12841 -0.142019 0.000943)
(1.16754 -0.138032 -0.000121848)
(1.19481 -0.133775 0.00125565)
(2.67372 0.00517138 0.0924207)
(2.32318 -0.0005758 0.0868926)
(1.96445 0.00730881 0.0631762)
(1.67101 0.00031119 0.0432886)
(1.45895 0.00720026 0.026294)
(1.32968 -0.0059247 0.0120067)
(1.24227 0.000607401 0.00651847)
(1.18575 -0.0177505 0.00212476)
(1.14717 -0.0118156 0.0020228)
(1.11559 -0.0358301 0.000151504)
(1.10078 -0.0309521 0.00120858)
(1.07781 -0.0614694 -9.55408e-05)
(1.0794 -0.0584077 0.00109802)
(1.06092 -0.096375 -0.000111084)
(1.0801 -0.0949383 0.000902517)
(1.06911 -0.138868 7.59263e-05)
(1.10943 -0.135859 0.000217526)
(1.11437 -0.177144 0.00131695)
(1.17252 -0.16466 -0.0012142)
(1.20552 -0.174063 0.00093651)
(2.67251 0.00522597 0.0926202)
(2.32242 -0.00192392 0.0865694)
(1.96277 0.00814241 0.0633879)
(1.6701 -0.0018728 0.0431228)
(1.45501 0.00856456 0.0264867)
(1.3271 -0.00894283 0.0116467)
(1.23721 0.00301779 0.00678084)
(1.18085 -0.0214404 0.00170444)
(1.14062 -0.00859251 0.00230237)
(1.10761 -0.0408981 -0.000367751)
(1.09241 -0.0275846 0.00157308)
(1.06539 -0.0695959 -0.000760182)
(1.06878 -0.0563156 0.00155222)
(1.04279 -0.11073 -0.00106776)
(1.06814 -0.0969375 0.00150311)
(1.04581 -0.165297 -0.00120894)
(1.10051 -0.146262 0.000694476)
(1.09201 -0.223241 0.000806529)
(1.17799 -0.190005 -0.00242957)
(1.20532 -0.232006 0.00496468)
(2.67187 0.00493939 0.0927791)
(2.32167 -0.0027618 0.0862544)
(1.96219 0.00967738 0.0636167)
(1.6682 -0.00358425 0.0429616)
(1.45282 0.0108865 0.0266652)
(1.32285 -0.0114966 0.0113218)
(1.23462 0.00686098 0.00703206)
(1.17323 -0.0246557 0.00132669)
(1.13739 -0.00322595 0.00251916)
(1.09535 -0.0455001 -0.000831208)
(1.08841 -0.0210031 0.00172654)
(1.04645 -0.077429 -0.00132669)
(1.06362 -0.0496594 0.00177872)
(1.01438 -0.125993 -0.00186959)
(1.06291 -0.0926057 0.00172443)
(1.00682 -0.196583 -0.00227727)
(1.09969 -0.147896 0.000434168)
(1.04864 -0.286128 0.00151438)
(1.19226 -0.205292 -0.00561948)
(1.18385 -0.325846 0.0158781)
(2.67146 0.00412502 0.09285)
(2.32205 -0.00327559 0.0860972)
(1.96169 0.011878 0.0638018)
(1.66678 -0.00507669 0.0429262)
(1.45042 0.0141497 0.0268116)
(1.31974 -0.0139607 0.0111578)
(1.23138 0.0122139 0.00723341)
(1.16762 -0.0278443 0.00112222)
(1.13281 0.00453372 0.00272952)
(1.08618 -0.0501621 -0.00111338)
(1.08209 -0.0108172 0.00192627)
(1.03174 -0.0856092 -0.0017436)
(1.05499 -0.0374143 0.00190859)
(0.99142 -0.14267 -0.00263482)
(1.05307 -0.0799124 0.00193739)
(0.972433 -0.233816 -0.00370857)
(1.09558 -0.136114 0.000369988)
(1.0037 -0.371756 0.00154841)
(1.21296 -0.19941 -0.00935432)
(1.13426 -0.481696 0.0355459)
(2.67033 0.00316039 0.0927667)
(2.32617 -0.00368812 0.0861846)
(1.95916 0.0145423 0.0638789)
(1.66949 -0.00668688 0.0430075)
(1.44404 0.0179224 0.0269734)
(1.32337 -0.0164754 0.0111162)
(1.22207 0.0184527 0.00757912)
(1.17159 -0.0308044 0.000980035)
(1.12008 0.0139137 0.00327376)
(1.08978 -0.0540883 -0.00141797)
(1.06545 0.00239406 0.00279067)
(1.03326 -0.0923956 -0.00223364)
(1.03419 -0.0200382 0.00289183)
(0.98816 -0.157636 -0.00336157)
(1.03019 -0.0587645 0.00294685)
(0.961393 -0.27315 -0.00575977)
(1.08331 -0.109248 0.00168877)
(0.982077 -0.482182 -0.00168724)
(1.2522 -0.156258 -0.0143101)
(1.08615 -0.770798 0.058481)
(2.66707 -0.000729005 0.0924509)
(2.33585 -0.00146134 0.0866332)
(1.95145 0.0150046 0.0640871)
(1.67923 -0.00536383 0.0433057)
(1.42864 0.018097 0.0273169)
(1.33829 -0.0153932 0.0112431)
(1.19939 0.0200996 0.00828951)
(1.19102 -0.0293987 0.00100701)
(1.08944 0.0175724 0.00432012)
(1.11404 -0.0529142 -0.00147562)
(1.02564 0.00889787 0.00406629)
(1.06295 -0.0933247 -0.00201274)
(0.981911 -0.00977697 0.00480084)
(1.02332 -0.167233 -0.00279072)
(0.962375 -0.0431502 0.00644392)
(1.00113 -0.31428 -0.00592306)
(1.02141 -0.0770449 0.00984561)
(1.0254 -0.641093 -0.0139341)
(1.31135 -0.0374142 -0.0160474)
(1.10447 -1.29306 0.057225)
(2.66467 -0.00469286 0.0914018)
(2.35095 0.000781874 0.0873098)
(1.94285 0.0134418 0.063922)
(1.69233 -0.00377657 0.0441977)
(1.40916 0.0153826 0.0268561)
(1.36023 -0.014035 0.0118344)
(1.16761 0.0174395 0.00810271)
(1.22132 -0.0268344 0.0016427)
(1.04209 0.015223 0.00458184)
(1.15411 -0.0485272 -0.00110341)
(0.958762 0.00652562 0.00438839)
(1.11535 -0.0862862 -0.00151422)
(0.886946 -0.0131322 0.00490081)
(1.09277 -0.157686 -0.00183814)
(0.820978 -0.0515826 0.0066822)
(1.10101 -0.313086 -0.00769818)
(0.804419 -0.0809926 0.0259294)
(1.17757 -0.740738 -0.0550859)
(1.16871 0.111324 0.0733536)
(1.17228 -1.89836 -0.0162811)
(2.66206 -0.0111343 0.090272)
(2.36793 0.0110803 0.087393)
(1.93374 0.0038741 0.0644884)
(1.70776 0.00859773 0.0445369)
(1.38803 -0.000135933 0.0264871)
(1.38735 0.00536277 0.0113444)
(1.13386 -0.00282201 0.00827456)
(1.25692 -0.000446613 0.000413615)
(0.99352 -0.011469 0.00522577)
(1.19582 -0.0108222 -0.00267484)
(0.893844 -0.0284806 0.00595269)
(1.15762 -0.0302311 -0.00426027)
(0.800477 -0.0631382 0.00728216)
(1.1262 -0.0724444 -0.00659081)
(0.70049 -0.138332 0.0092282)
(1.11071 -0.177724 -0.0128129)
(0.594912 -0.281965 0.0261729)
(1.18025 -0.568458 -0.0414736)
(0.554231 0.0202586 0.193009)
(1.11514 -2.51975 -0.161398)
(2.68988 -0.018371 0.0894621)
(2.33964 0.0257491 0.0886765)
(1.98159 -0.0096142 0.0645674)
(1.64486 0.0267861 0.0458528)
(1.46977 -0.0203128 0.0243802)
(1.29501 0.0326209 0.0141704)
(1.2477 -0.0292984 0.0060065)
(1.1266 0.0349028 0.00461041)
(1.14322 -0.0455562 0.00190697)
(1.0192 0.0363722 0.00312093)
(1.08353 -0.0715147 0.00186326)
(0.914611 0.0348684 0.00365078)
(1.03827 -0.118319 0.00265962)
(0.775605 0.0217486 0.00575014)
(0.998931 -0.219075 0.00344169)
(0.575768 -0.0372326 0.0100005)
(0.981121 -0.510809 0.000358856)
(0.541863 -0.346917 0.0977481)
(0.860184 -1.29915 0.0147981)
(1.33548 -3.69976 -0.294732)
(2.94303 0.0309436 0.13582)
(3.01234 0.0448497 0.139781)
(2.94698 0.0450624 0.11667)
(2.80886 0.0439202 0.0933836)
(2.66331 0.041404 0.0658184)
(2.52771 0.0385713 0.0424019)
(2.40396 0.0359236 0.0275625)
(2.28927 0.0335341 0.0186636)
(2.18781 0.0308744 0.0130359)
(2.09751 0.028204 0.00952804)
(2.02102 0.0250087 0.00735324)
(1.95413 0.0220747 0.00610426)
(1.8992 0.0186897 0.00529494)
(1.85178 0.0159723 0.00483164)
(1.81425 0.012764 0.00448897)
(1.78254 0.010658 0.0042947)
(1.75804 0.00802245 0.0040932)
(1.73786 0.0068845 0.0039554)
(1.72121 0.00538681 0.00370045)
(1.7076 0.00480225 0.00346053)
(2.99667 0.0394047 0.136969)
(3.12453 0.0590515 0.143402)
(3.15243 0.0608722 0.118595)
(3.10614 0.0611528 0.0988459)
(3.04017 0.0596102 0.0752051)
(2.96967 0.0570818 0.0529764)
(2.90652 0.0541907 0.0373885)
(2.84228 0.0512109 0.0272962)
(2.78942 0.0476128 0.0204074)
(2.73723 0.0437034 0.0156508)
(2.69977 0.0389068 0.0124474)
(2.66095 0.0340601 0.010366)
(2.63782 0.0285283 0.00882855)
(2.61021 0.0234318 0.00793114)
(2.59928 0.017936 0.00697564)
(2.58104 0.0133353 0.00673139)
(2.5797 0.00879487 0.00586142)
(2.56887 0.00553483 0.00651675)
(2.57167 0.00311922 0.00549098)
(2.56596 0.0012999 0.00763422)
(2.9971 0.0169496 0.137022)
(3.11601 0.0323902 0.143114)
(3.14674 0.0382289 0.117257)
(3.10923 0.0414989 0.0972483)
(3.054 0.0430382 0.0741208)
(2.99428 0.0428626 0.0522709)
(2.94329 0.0414972 0.0369316)
(2.89082 0.0391211 0.0270496)
(2.85039 0.035956 0.0203867)
(2.80948 0.031927 0.0156787)
(2.78387 0.0271636 0.0125018)
(2.75542 0.0216578 0.0103366)
(2.74331 0.0157399 0.00873765)
(2.72492 0.00946676 0.00766458)
(2.72417 0.00333988 0.00650248)
(2.7142 -0.00266448 0.00613905)
(2.72213 -0.00772739 0.00504294)
(2.71897 -0.0120917 0.00582409)
(2.7298 -0.0145886 0.00458084)
(2.73165 -0.0162253 0.00701308)
(2.99717 0.0136538 0.13729)
(3.10764 0.0290832 0.143847)
(3.13353 0.0365729 0.117846)
(3.094 0.0401349 0.0974188)
(3.03857 0.0417255 0.0742625)
(2.97875 0.0413064 0.0523727)
(2.92912 0.0396144 0.0368456)
(2.87794 0.0363902 0.0268154)
(2.84004 0.0323637 0.0200531)
(2.80096 0.027098 0.0152934)
(2.77829 0.0212807 0.0120327)
(2.75182 0.0143844 0.00990983)
(2.74272 0.00725653 0.00827676)
(2.72636 -0.000575945 0.00729885)
(2.72856 -0.00801506 0.00612837)
(2.72081 -0.0155296 0.00584805)
(2.73177 -0.0217236 0.00471523)
(2.73131 -0.0271184 0.00554486)
(2.7452 -0.0301304 0.00428515)
(2.75043 -0.0315017 0.00651785)
(2.99715 0.00907139 0.137459)
(3.10276 0.0200641 0.144195)
(3.12534 0.0267146 0.118096)
(3.08422 0.0300533 0.0972545)
(3.02812 0.0319812 0.073932)
(2.96773 0.0316536 0.0519837)
(2.91787 0.0302712 0.0364252)
(2.86649 0.0268183 0.026383)
(2.82868 0.0226679 0.0196704)
(2.7895 0.0167287 0.0149835)
(2.76698 0.0103589 0.0117294)
(2.74065 0.00241557 0.0095397)
(2.73212 -0.00561583 0.00785544)
(2.71632 -0.0148374 0.0068136)
(2.71962 -0.0234559 0.00560828)
(2.71289 -0.0324789 0.00532144)
(2.72559 -0.0398085 0.00419877)
(2.72667 -0.0463441 0.00507341)
(2.74316 -0.0498064 0.00376118)
(2.75036 -0.0511509 0.00627044)
(2.99712 0.00698993 0.137593)
(3.09992 0.015542 0.144454)
(3.12025 0.022068 0.118465)
(3.07735 0.0251877 0.0975253)
(3.01992 0.0274347 0.07418)
(2.95822 0.0267607 0.0522075)
(2.90742 0.0254808 0.036609)
(2.85509 0.0214057 0.0265101)
(2.81679 0.0169769 0.0197234)
(2.77698 0.0100447 0.015046)
(2.75406 0.00296524 0.0118399)
(2.72712 -0.00639922 0.00974762)
(2.71825 -0.0155674 0.00809632)
(2.70223 -0.0265875 0.00709912)
(2.70566 -0.0367391 0.00587065)
(2.6996 -0.0477718 0.00556058)
(2.71331 -0.056672 0.0043963)
(2.71635 -0.0648627 0.0051973)
(2.73488 -0.0691433 0.00392436)
(2.74524 -0.0708676 0.00609623)
(2.997 0.00586869 0.137757)
(3.09793 0.0116761 0.144598)
(3.11646 0.0175951 0.118769)
(3.07227 0.0196555 0.0977265)
(3.01335 0.0220408 0.0743704)
(2.95062 0.0205326 0.0522883)
(2.8986 0.0193889 0.0366695)
(2.84548 0.0144053 0.0265291)
(2.80613 0.00983578 0.0197748)
(2.76575 0.00171537 0.0150281)
(2.74203 -0.0059301 0.0118004)
(2.71484 -0.0168656 0.00962186)
(2.70545 -0.0271453 0.00798614)
(2.68954 -0.040166 0.00696692)
(2.69294 -0.0519717 0.00580102)
(2.68775 -0.0653125 0.00544374)
(2.70258 -0.0760871 0.00433973)
(2.70766 -0.0863196 0.00507669)
(2.729 -0.0917513 0.00383102)
(2.74266 -0.0940848 0.00608744)
(2.99686 0.00564011 0.137976)
(3.09615 0.00836651 0.144602)
(3.11363 0.0143009 0.118996)
(3.06833 0.0147901 0.0978337)
(3.00824 0.0179421 0.0745736)
(2.94407 0.0150203 0.0523487)
(2.89127 0.0146904 0.0367417)
(2.83662 0.00821017 0.0265183)
(2.7969 0.0042248 0.0197903)
(2.75477 -0.00566572 0.0150864)
(2.73086 -0.0132348 0.0118557)
(2.70184 -0.0263994 0.00977578)
(2.69254 -0.0373359 0.00804132)
(2.67523 -0.0531486 0.00713894)
(2.6793 -0.066474 0.00582592)
(2.67386 -0.0830142 0.00563864)
(2.69038 -0.0959355 0.00436317)
(2.69731 -0.10911 0.00525504)
(2.72189 -0.116217 0.00386547)
(2.7399 -0.119783 0.00607067)
(2.99636 0.00615529 0.138332)
(3.09465 0.00525328 0.144404)
(3.11093 0.0121698 0.119249)
(3.06555 0.0102736 0.0978177)
(3.00351 0.0150012 0.0748835)
(2.93864 0.00968442 0.0523401)
(2.88418 0.0110677 0.0369061)
(2.82868 0.00204424 0.0264359)
(2.78762 -0.000388718 0.0199311)
(2.74432 -0.0131675 0.0150299)
(2.71935 -0.019644 0.0119446)
(2.68904 -0.0361656 0.00973309)
(2.67895 -0.04687 0.00810892)
(2.66062 -0.0666369 0.00712035)
(2.6645 -0.081018 0.00588124)
(2.65924 -0.102022 0.0056124)
(2.67695 -0.117256 0.00447061)
(2.68628 -0.134675 0.00516533)
(2.71471 -0.144048 0.00408091)
(2.73759 -0.149865 0.0061075)
(2.99574 0.0075642 0.138836)
(3.09297 0.00172329 0.143971)
(3.10867 0.0115162 0.11956)
(3.06299 0.00549009 0.0976682)
(2.99967 0.0137381 0.0752713)
(2.93312 0.00386387 0.0522045)
(2.87846 0.00930294 0.0371221)
(2.82005 -0.00472644 0.0262729)
(2.78008 -0.00284535 0.0200329)
(2.7324 -0.0213057 0.0149334)
(2.70985 -0.023663 0.011945)
(2.67366 -0.0466065 0.00979308)
(2.66723 -0.0540543 0.0079672)
(2.64225 -0.0810588 0.00738272)
(2.65091 -0.0939296 0.0055314)
(2.64015 -0.122651 0.00610484)
(2.66362 -0.138923 0.00390299)
(2.67177 -0.163143 0.00579377)
(2.7068 -0.175553 0.00350801)
(2.73554 -0.183897 0.00651481)
(2.99404 0.00964427 0.139557)
(3.09237 -0.00226085 0.143199)
(3.10538 0.0124086 0.120076)
(3.06224 0.00030548 0.0972637)
(2.99455 0.01438 0.0758434)
(2.92982 -0.00254415 0.0516224)
(2.87155 0.0098288 0.0375969)
(2.81376 -0.0122334 0.0257187)
(2.7711 -0.00257869 0.0204681)
(2.72248 -0.0303198 0.0143603)
(2.69858 -0.024488 0.0123686)
(2.6595 -0.0581765 0.00931177)
(2.65312 -0.0577736 0.00831024)
(2.62386 -0.0971531 0.00700975)
(2.63415 -0.103772 0.00570799)
(2.61951 -0.14601 0.00592919)
(2.64651 -0.159436 0.0039461)
(2.65434 -0.196349 0.00572068)
(2.69693 -0.210077 0.00371919)
(2.73079 -0.226035 0.00573874)
(2.99328 0.0124704 0.140371)
(3.09048 -0.00710662 0.142226)
(3.10396 0.0153035 0.120727)
(3.05958 -0.00599933 0.0967492)
(2.99218 0.0177026 0.0764846)
(2.92366 -0.0104696 0.0507772)
(2.86896 0.0138556 0.0382244)
(2.80281 -0.0216689 0.0250408)
(2.76807 0.00211164 0.0208941)
(2.70566 -0.0417934 0.013721)
(2.69508 -0.0198124 0.0126335)
(2.63538 -0.0729501 0.00897316)
(2.64836 -0.054965 0.00818787)
(2.59194 -0.117482 0.00720684)
(2.62716 -0.10674 0.0047653)
(2.58267 -0.175118 0.00723034)
(2.63653 -0.174977 0.00154423)
(2.62297 -0.237184 0.0087153)
(2.68618 -0.246473 0.000515568)
(2.72322 -0.277351 0.0101493)
(2.99219 0.0157865 0.141197)
(3.08943 -0.0126373 0.141109)
(3.10229 0.0199437 0.121478)
(3.05792 -0.0131839 0.096091)
(2.98916 0.0234648 0.077202)
(2.91903 -0.0195728 0.0497345)
(2.86529 0.0211652 0.0389895)
(2.79388 -0.0326207 0.0240065)
(2.76328 0.0111352 0.0216208)
(2.69089 -0.0552778 0.0125352)
(2.6889 -0.00945596 0.0134152)
(2.61255 -0.0906457 0.00772884)
(2.64002 -0.0447815 0.00896287)
(2.55883 -0.142262 0.00610697)
(2.61564 -0.100878 0.00514023)
(2.53997 -0.21125 0.00696749)
(2.62104 -0.182586 0.000590702)
(2.58007 -0.288136 0.0107744)
(2.66954 -0.282763 -0.00262644)
(2.7054 -0.338752 0.0129422)
(2.99383 0.0194305 0.141912)
(3.08558 -0.0187987 0.140073)
(3.10491 0.0264129 0.122238)
(3.05167 -0.0212838 0.0954327)
(2.99211 0.0319046 0.0778876)
(2.90794 -0.0300504 0.0487656)
(2.86971 0.032256 0.0397083)
(2.77586 -0.0456048 0.0230629)
(2.76931 0.0254576 0.0222321)
(2.66322 -0.0717867 0.0115213)
(2.69707 0.00841096 0.0138956)
(2.57144 -0.112915 0.00683778)
(2.65046 -0.0240981 0.0091365)
(2.4996 -0.17457 0.00580226)
(2.62765 -0.0809918 0.00417587)
(2.46157 -0.259809 0.00868365)
(2.63108 -0.174344 -0.00350115)
(2.49656 -0.357747 0.0181305)
(2.66914 -0.310078 -0.0112478)
(2.66159 -0.421419 0.0290524)
(2.99442 0.0231899 0.142294)
(3.08446 -0.0258659 0.139582)
(3.1065 0.0346482 0.122755)
(3.04837 -0.0306444 0.0951928)
(2.99327 0.0430269 0.0783773)
(2.90134 -0.0423675 0.0482948)
(2.87139 0.047233 0.0401794)
(2.76452 -0.0611693 0.0225667)
(2.77151 0.0453828 0.0226008)
(2.64493 -0.0919065 0.0109215)
(2.70039 0.0343383 0.0140867)
(2.5424 -0.140486 0.00609181)
(2.65592 0.00820103 0.00892514)
(2.45366 -0.215171 0.00497908)
(2.63793 -0.0449001 0.00309462)
(2.39099 -0.32256 0.00914978)
(2.64888 -0.146614 -0.00775227)
(2.40553 -0.449079 0.0259481)
(2.68834 -0.325998 -0.0216079)
(2.59895 -0.525624 0.0557943)
(2.98734 0.0271054 0.142284)
(3.09553 -0.0333513 0.139713)
(3.09826 0.0441448 0.123151)
(3.06038 -0.0406108 0.0950668)
(2.9811 0.0558594 0.0791141)
(2.91525 -0.0554559 0.0477352)
(2.85639 0.0647734 0.0412623)
(2.77972 -0.0776396 0.0215449)
(2.75419 0.0692969 0.0240214)
(2.65996 -0.113169 0.00919749)
(2.68258 0.0667299 0.0159236)
(2.55335 -0.16988 0.00347318)
(2.6419 0.0512483 0.0108166)
(2.45246 -0.26002 0.00111185)
(2.63736 0.00854634 0.00402023)
(2.36286 -0.396838 0.00407528)
(2.68018 -0.0959851 -0.0114106)
(2.33655 -0.56572 0.0282549)
(2.76107 -0.327389 -0.0398789)
(2.54909 -0.658653 0.0918894)
(2.96511 0.0245696 0.141973)
(3.12803 -0.0355035 0.140435)
(3.06878 0.0485077 0.124081)
(3.09964 -0.044425 0.0950108)
(2.93966 0.0627439 0.0810006)
(2.96512 -0.0620701 0.0469574)
(2.80334 0.0760068 0.0442103)
(2.84075 -0.0874585 0.0199283)
(2.68924 0.0871282 0.0280803)
(2.73318 -0.128461 0.0062732)
(2.60696 0.0946142 0.0213246)
(2.63923 -0.195678 -0.00173042)
(2.5605 0.0948203 0.0186754)
(2.54509 -0.30845 -0.00860649)
(2.56733 0.0750178 0.015599)
(2.43915 -0.495543 -0.0138341)
(2.67173 -0.00763771 -0.00130554)
(2.35324 -0.759359 0.00215845)
(2.90041 -0.27034 -0.0652473)
(2.53881 -0.887152 0.131761)
(2.93476 0.019748 0.139143)
(3.17684 -0.0348421 0.142937)
(3.02654 0.0487661 0.123518)
(3.15752 -0.0444769 0.0962611)
(2.87559 0.064359 0.0815205)
(3.04189 -0.0636359 0.04735)
(2.71445 0.0802836 0.0464233)
(2.93916 -0.0894603 0.0189648)
(2.56952 0.0958059 0.0328256)
(2.85694 -0.130776 0.00302543)
(2.45037 0.110976 0.0299042)
(2.7932 -0.200281 -0.00994632)
(2.36107 0.125977 0.0336591)
(2.73203 -0.323678 -0.0273065)
(2.32768 0.137061 0.0436193)
(2.65002 -0.552417 -0.0581726)
(2.44448 0.110334 0.0527849)
(2.52691 -0.933412 -0.0966661)
(2.91568 -0.221224 -0.030488)
(2.4737 -1.12676 0.0913141)
(2.90439 -0.00210953 0.136773)
(3.23029 -0.0075538 0.142152)
(2.97811 0.0227412 0.1249)
(3.22279 -0.0123846 0.0948325)
(2.79614 0.0299687 0.0831655)
(3.13004 -0.0228379 0.0432695)
(2.59992 0.0389187 0.0511396)
(3.04688 -0.0379733 0.0119725)
(2.41195 0.0448562 0.0410293)
(2.98023 -0.0644166 -0.00809357)
(2.23867 0.0491222 0.0433775)
(2.92497 -0.114106 -0.026471)
(2.07032 0.0535759 0.0554661)
(2.8643 -0.218291 -0.0525396)
(1.8928 0.0680591 0.0820457)
(2.78122 -0.465735 -0.0985741)
(1.6864 0.144366 0.154156)
(2.64679 -1.10645 -0.185127)
(1.59014 0.410876 0.355955)
(2.10456 -1.65598 -0.144093)
(3.03705 -0.0301386 0.13248)
(3.07976 0.0321856 0.1447)
(3.16685 -0.0144489 0.121482)
(3.01001 0.0336879 0.101035)
(3.0496 -0.0182091 0.0749916)
(2.85557 0.0357298 0.0523593)
(2.92579 -0.0209767 0.0406499)
(2.69187 0.0361794 0.0262545)
(2.81989 -0.0313085 0.0260311)
(2.52353 0.0331647 0.0142378)
(2.73935 -0.0497937 0.0220891)
(2.33317 0.0217897 0.00967728)
(2.67183 -0.0815696 0.023127)
(2.09006 -0.0148565 0.0106596)
(2.58183 -0.137857 0.0265353)
(1.7753 -0.140232 0.0219768)
(2.3633 -0.225895 0.0334955)
(1.61487 -0.688028 0.0880038)
(2.05206 0.0741208 0.448895)
(2.83193 -3.4879 -0.381541)
(2.95088 0.0306803 0.0774598)
(3.08984 0.0450516 0.094147)
(3.15332 0.0455217 0.0843855)
(3.15065 0.0461909 0.0752945)
(3.11771 0.0455812 0.0601094)
(3.06577 0.0440779 0.0445762)
(3.00247 0.0421612 0.0338924)
(2.9287 0.0405037 0.0269523)
(2.85349 0.038383 0.0217813)
(2.77722 0.0362959 0.017746)
(2.70633 0.0335472 0.014615)
(2.63812 0.0310499 0.0122914)
(2.57776 0.027846 0.0104527)
(2.52154 0.0252495 0.00910578)
(2.47385 0.0218677 0.00798286)
(2.43081 0.0195685 0.00724415)
(2.39534 0.0164005 0.00659041)
(2.36422 0.014998 0.0061527)
(2.3381 0.0126436 0.00582338)
(2.31533 0.012673 0.00459724)
(3.0044 0.0391086 0.0778568)
(3.20238 0.0592586 0.096108)
(3.3573 0.0615677 0.0855304)
(3.44846 0.0639745 0.0782451)
(3.50764 0.0648817 0.0661811)
(3.53802 0.0644016 0.0522282)
(3.5581 0.0629969 0.0417295)
(3.55808 0.0615378 0.0345995)
(3.55771 0.0592651 0.0292654)
(3.5446 0.0566872 0.0249254)
(3.53912 0.0531003 0.0214654)
(3.52327 0.0493993 0.01883)
(3.51914 0.0447865 0.0164633)
(3.50481 0.0403951 0.0149452)
(3.50494 0.035281 0.0129509)
(3.49452 0.0308374 0.012465)
(3.49977 0.0259701 0.0103336)
(3.49418 0.022462 0.0115737)
(3.50213 0.018838 0.00918557)
(3.49899 0.0171511 0.013677)
(3.00474 0.016935 0.077845)
(3.19444 0.0324953 0.0955933)
(3.35163 0.0390003 0.0846317)
(3.44973 0.0432565 0.0767773)
(3.5186 0.0463345 0.0649263)
(3.55944 0.0477715 0.0511028)
(3.59236 0.048073 0.0407161)
(3.60578 0.0473005 0.0337612)
(3.62039 0.0458156 0.0287525)
(3.62207 0.0432876 0.0246059)
(3.63237 0.040076 0.021338)
(3.63169 0.0358778 0.018802)
(3.64319 0.0312506 0.016505)
(3.6436 0.0258577 0.0150112)
(3.6585 0.0204875 0.0129005)
(3.662 0.0147174 0.0124331)
(3.68076 0.0096104 0.0101066)
(3.68821 0.00467178 0.0115427)
(3.70828 0.00108899 0.00896171)
(3.71715 -0.00188243 0.0134383)
(3.00481 0.0137028 0.0779402)
(3.18659 0.0292214 0.0959786)
(3.33988 0.0372986 0.0850746)
(3.43617 0.0416284 0.0768134)
(3.5048 0.0446454 0.0649269)
(3.54507 0.0457316 0.0510905)
(3.57871 0.0458076 0.040518)
(3.59263 0.04424 0.0333845)
(3.60911 0.0420711 0.0282336)
(3.61211 0.038418 0.0240262)
(3.62503 0.0343111 0.0206481)
(3.62629 0.0287792 0.01815)
(3.64096 0.0230496 0.0157685)
(3.64375 0.0161208 0.0143905)
(3.66212 0.00949301 0.0121994)
(3.66835 0.00213802 0.011939)
(3.69075 -0.00415479 0.00947518)
(3.70135 -0.0104603 0.0111784)
(3.72513 -0.0148028 0.00836907)
(3.73758 -0.0183455 0.0131993)
(3.0048 0.00917737 0.0780329)
(3.18197 0.0200667 0.0961937)
(3.33255 0.0271549 0.0853488)
(3.42733 0.0308695 0.0767186)
(3.49522 0.0338848 0.0647113)
(3.53455 0.034658 0.050823)
(3.56761 0.0348807 0.0401945)
(3.58085 0.032914 0.0329956)
(3.59704 0.0306204 0.0278474)
(3.59958 0.0262732 0.023657)
(3.61236 0.0217342 0.0203035)
(3.61338 0.0151962 0.0177541)
(3.62822 0.0087104 0.0153807)
(3.63118 0.000443168 0.0138897)
(3.65025 -0.00725436 0.0116739)
(3.65721 -0.0161604 0.0113142)
(3.68091 -0.0236054 0.00889221)
(3.69285 -0.0313061 0.0105217)
(3.71862 -0.0363803 0.00785756)
(3.733 -0.0405353 0.0125004)
(3.0048 0.00718488 0.0781235)
(3.17927 0.01543 0.096365)
(3.32809 0.0224225 0.0856976)
(3.42139 0.025665 0.0770022)
(3.48826 0.0289017 0.0649946)
(3.52632 0.0290714 0.0511165)
(3.55842 0.0293489 0.040458)
(3.57048 0.0266376 0.0332218)
(3.58592 0.024114 0.0279968)
(3.58748 0.0187371 0.0238014)
(3.59964 0.0136112 0.0204207)
(3.59982 0.00569452 0.0179332)
(3.61414 -0.00177035 0.0155639)
(3.61652 -0.0117604 0.0141935)
(3.63538 -0.0208123 0.011949)
(3.64243 -0.0317334 0.0116312)
(3.66667 -0.0407027 0.00910416)
(3.6797 -0.0503147 0.0107668)
(3.70693 -0.0564798 0.00794363)
(3.7235 -0.0616987 0.0126127)
(3.00469 0.0062198 0.0782621)
(3.17739 0.0114105 0.096414)
(3.32475 0.0179863 0.086)
(3.41701 0.019881 0.0772326)
(3.48266 0.0232435 0.0652402)
(3.51977 0.0223047 0.051289)
(3.55064 0.022674 0.0406114)
(3.56184 0.0189002 0.0333336)
(3.57607 0.016253 0.0281226)
(3.57688 0.009657 0.0238904)
(3.58787 0.00401928 0.0205048)
(3.58754 -0.00540313 0.0179296)
(3.6009 -0.0138917 0.0155382)
(3.60318 -0.0257701 0.014088)
(3.62147 -0.0363666 0.0119341)
(3.62903 -0.0494918 0.0115149)
(3.65358 -0.0603093 0.00910861)
(3.66815 -0.0720746 0.0106237)
(3.69708 -0.0797178 0.00790063)
(3.71628 -0.0861488 0.0124798)
(3.00468 0.00631375 0.0784745)
(3.17555 0.00780943 0.0962871)
(3.32239 0.0149069 0.0862627)
(3.41338 0.0147357 0.0773864)
(3.47845 0.019103 0.065484)