/*--------------------------------*- C++ -*----------------------------------*\
| =========                 |                                                 |
| \\      /  F ield         | OpenFOAM: The Open Source CFD Toolbox           |
|  \\    /   O peration     | Version:  v1806                                 |
|   \\  /    A nd           | Web:      www.OpenFOAM.com                      |
|    \\/     M anipulation  |                                                 |
\*---------------------------------------------------------------------------*/
FoamFile
{
    version     2.0;
    format      ascii;
    class       surfaceScalarField;
    location    "200";
    object      phi;
}
// * * * * * * * * * * * * * * * * * * * * * * * * * * * * * * * * * * * * * //

dimensions      [0 3 -1 0 0 0 0];
oriented        oriented;


internalField   nonuniform List<scalar> 
4680
(
0.0749987
4.19109e-05
0.0749964
-0.0014842
0.0749903
-0.00108146
0.0749816
-0.00314213
0.0749641
-0.00248071
0.0749458
-0.00531484
0.0749121
-0.00431177
0.0748807
-0.00837449
0.0748163
-0.00707559
0.0747663
-0.0127261
0.0746566
-0.0111053
0.0745812
-0.0190044
0.0743912
-0.0172752
0.0742877
-0.0276635
0.0739931
-0.0261219
0.073872
-0.0387188
0.0734832
-0.0381884
0.0733811
-0.0503686
0.0731099
-0.0518941
-0.0581782
0.0730974
0.0749999
4.19966e-05
0.074992
-0.00147627
0.0749835
-0.00107295
0.0749662
-0.00312486
0.0749435
-0.00245803
0.0749131
-0.00528443
0.0748689
-0.00426756
0.0748219
-0.00832748
0.0747366
-0.00699027
0.0746692
-0.0126588
0.0745189
-0.010955
0.0744318
-0.0189172
0.074165
-0.0170083
0.0740777
-0.0275763
0.0736476
-0.0256917
0.0736247
-0.0386959
0.0730387
-0.0376023
0.073186
-0.0505159
0.0727755
-0.0514836
-0.058449
0.0730463
0.0750019
4.01069e-05
0.0749862
-0.00146062
0.0749759
-0.00106258
0.0749458
-0.00309477
0.0749168
-0.00242908
0.0748681
-0.00523567
0.0748104
-0.00420989
0.0747397
-0.00825679
0.0746274
-0.00687794
0.0745332
-0.0125646
0.0743324
-0.0107541
0.0742229
-0.0188078
0.0738676
-0.0166531
0.0737837
-0.0274923
0.0732166
-0.0251246
0.0732719
-0.0387512
0.0725146
-0.036845
0.0728881
-0.0508894
0.0723796
-0.0509752
-0.0590161
0.0729468
0.0750041
3.59779e-05
0.0749805
-0.00143698
0.0749684
-0.00105048
0.0749242
-0.00305062
0.0748887
-0.00239354
0.074819
-0.00516601
0.0747475
-0.00413833
0.0746486
-0.0081579
0.0745093
-0.00673867
0.0743811
-0.0124364
0.0741313
-0.0105043
0.0739883
-0.0186648
0.0735512
-0.0162159
0.0734531
-0.0273942
0.0727647
-0.0244362
0.0728722
-0.0388587
0.0719676
-0.0359404
0.0725444
-0.0514662
0.0719459
-0.0503767
-0.0599056
0.0728354
0.0750066
2.94148e-05
0.0749747
-0.00140508
0.0749613
-0.00103715
0.0749023
-0.00299163
0.074861
-0.00235219
0.0747686
-0.00507365
0.0746846
-0.0040543
0.0745539
-0.00802723
0.0743908
-0.0065755
0.0742222
-0.0122678
0.0739291
-0.0102113
0.0737427
-0.0184784
0.0732326
-0.0157058
0.0731059
-0.0272675
0.0723085
-0.0236388
0.0724482
-0.0389984
0.0714076
-0.0348999
0.0721714
-0.0522299
0.0714741
-0.0496794
-0.0611584
0.0727269
0.0750091
2.03032e-05
0.0749688
-0.00136474
0.0749548
-0.00102314
0.0748803
-0.00291722
0.0748344
-0.00230621
0.0747178
-0.00495705
0.0746237
-0.00396024
0.0744577
-0.00786127
0.0742756
-0.00639338
0.0740597
-0.0120518
0.0737317
-0.00988331
0.0734908
-0.0182375
0.0729193
-0.0151344
0.0727491
-0.0270972
0.0718532
-0.022743
0.0720081
-0.0391533
0.0708339
-0.0337257
0.0717726
-0.0531686
0.0709617
-0.0488686
-0.0628248
0.0726281
0.0750116
8.65417e-06
0.0749628
-0.0013159
0.0749486
-0.00100889
0.0748583
-0.00282696
0.0748089
-0.00225681
0.0746667
-0.00481488
0.0745654
-0.00385891
0.0743606
-0.00765648
0.0741655
-0.00619825
0.0738942
-0.0117806
0.0735426
-0.00953175
0.0732329
-0.0179277
0.0726155
-0.014517
0.0723827
-0.0268645
0.0714008
-0.0217611
0.0715546
-0.0393071
0.0702415
-0.0324126
0.0713506
-0.0542777
0.0704062
-0.0479242
-0.0649571
0.0725385
0.075014
-5.3257e-06
0.0749569
-0.00125878
0.0749425
-0.000994561
0.0748364
-0.00272084
0.0747845
-0.00220489
0.0746159
-0.00464629
0.0745098
-0.00375285
0.0742632
-0.00740979
0.0740611
-0.00599616
0.0737262
-0.0114457
0.0733641
-0.00916966
0.0729675
-0.0175311
0.0723245
-0.013874
0.0720027
-0.0265427
0.0709542
-0.0207125
0.0710851
-0.0394381
0.0696244
-0.0309519
0.0709118
-0.055565
0.0698002
-0.0468126
-0.0676051
0.0724482
0.0750158
-2.11537e-05
0.074951
-0.00119399
0.0749364
-0.000979891
0.074815
-0.00259946
0.0747608
-0.0021507
0.0745659
-0.0044514
0.0744567
-0.00364361
0.0741663
-0.00711945
0.0739621
-0.00579192
0.0735568
-0.0110404
0.0731968
-0.00880961
0.072692
-0.0170263
0.0720499
-0.0132318
0.071601
-0.0260939
0.0705185
-0.0196301
0.0705885
-0.039508
0.0689797
-0.029343
0.0704671
-0.0570524
0.0691213
-0.0454668
-0.0708275
0.0723437
0.0750169
-3.80282e-05
0.0749455
-0.00112262
0.0749297
-0.000964063
0.0747945
-0.00246424
0.0747373
-0.00209353
0.0745176
-0.00423171
0.0744051
-0.00353112
0.0740717
-0.00678606
0.0738675
-0.00558773
0.0733883
-0.0105612
0.0730387
-0.00846
0.0724079
-0.0163955
0.0717947
-0.0126187
0.0711677
-0.0254669
0.0701014
-0.0185637
0.0700411
-0.0394478
0.0683142
-0.0276161
0.0700214
-0.0587596
0.0683237
-0.0437692
-0.0747364
0.0722326
0.0750169
-5.48805e-05
0.0749405
-0.00104623
0.0749221
-0.000945719
0.0747753
-0.00231745
0.0747134
-0.00203161
0.0744721
-0.00399038
0.0743542
-0.00341328
0.0739815
-0.00641332
0.0737757
-0.00538189
0.0732245
-0.01001
0.0728872
-0.00812274
0.0721223
-0.0156306
0.0715594
-0.0120557
0.0706932
-0.0246007
0.0697098
-0.0175803
0.0694069
-0.0391449
0.0676485
-0.0258576
0.0695496
-0.0606607
0.0673443
-0.0415639
-0.0795877
0.0721956
0.0750156
-7.04734e-05
0.074936
-0.000966661
0.0749134
-0.0009231
0.074758
-0.00216209
0.0746887
-0.00196228
0.0744304
-0.0037321
0.0743031
-0.00328599
0.073898
-0.00600822
0.0736846
-0.00516843
0.0730705
-0.00939586
0.0727384
-0.00779071
0.0718445
-0.0147367
0.0713307
-0.0115419
0.0701909
-0.0234608
0.0693485
-0.016738
0.0686464
-0.0384428
0.067013
-0.0242242
0.0689655
-0.0626132
0.0661405
-0.0387389
-0.0858862
0.072439
0.0750131
-8.35769e-05
0.0749323
-0.000885849
0.0749035
-0.000894345
0.0747429
-0.00200144
0.0746631
-0.00188244
0.0743934
-0.00346246
0.0742513
-0.00314386
0.0738233
-0.00558025
0.0735927
-0.00493783
0.0729313
-0.00873441
0.0725882
-0.00744765
0.0715867
-0.0137353
0.0710995
-0.0110546
0.0696959
-0.0220573
0.0690213
-0.0160633
0.0677265
-0.0371481
0.0664319
-0.0229295
0.0681049
-0.0642862
0.0647575
-0.0353915
-0.0944106
0.0732819
0.0750096
-9.31814e-05
0.0749292
-0.000805462
0.0748928
-0.000857899
0.0747298
-0.00183852
0.0746367
-0.0017893
0.0743612
-0.00318692
0.0741988
-0.0029815
0.0737582
-0.00513962
0.0734995
-0.00467919
0.0728101
-0.00804498
0.0724336
-0.00707119
0.0713603
-0.0126619
0.0708562
-0.0105505
0.0692387
-0.0204399
0.0686678
-0.0154924
0.0666833
-0.0351636
0.0659025
-0.0221487
0.0667617
-0.0651454
0.0633881
-0.0320179
-0.106009
0.0749863
0.0750055
-9.86949e-05
0.0749267
-0.000726601
0.0748817
-0.000812911
0.0747186
-0.00167546
0.0746104
-0.00168113
0.0743332
-0.00290969
0.0741468
-0.00279507
0.0737021
-0.00469491
0.0734063
-0.00438342
0.0727073
-0.00734597
0.0722751
-0.00663897
0.0711707
-0.0115576
0.0705948
-0.0099746
0.0688491
-0.0186942
0.0682594
-0.0149026
0.0657071
-0.0326113
0.0653944
-0.0218361
0.0647964
-0.0645473
0.062347
-0.0295686
-0.121061
0.0773991
0.0750014
-0.000100064
0.0749244
-0.000649589
0.074871
-0.000759526
0.0747086
-0.00151308
0.0745854
-0.00155796
0.0743085
-0.00263272
0.0740971
-0.00258372
0.073653
-0.00425083
0.0733161
-0.00404646
0.0726195
-0.00664943
0.072117
-0.00613644
0.0710149
-0.0104555
0.0703186
-0.00927825
0.0685392
-0.0169149
0.0677811
-0.0141445
0.0648867
-0.0297169
0.0648309
-0.0217803
0.0622339
-0.0619503
0.0619071
-0.0292418
-0.13871
0.0795557
0.0749977
-9.77699e-05
0.0749221
-0.000573965
0.0748615
-0.000698923
0.0746992
-0.00135083
0.074563
-0.00142171
0.0742856
-0.00235539
0.0740521
-0.00235023
0.0736084
-0.00380713
0.0732334
-0.00367137
0.0725414
-0.00595751
0.0719682
-0.00556319
0.0708819
-0.00936922
0.0700427
-0.00843911
0.0682942
-0.0151664
0.0672405
-0.0130907
0.0642676
-0.026744
0.0638897
-0.0214023
0.0593569
-0.0574175
0.0620435
-0.0319284
-0.156189
0.0795234
0.0749949
-9.26555e-05
0.0749197
-0.000498738
0.0748538
-0.000633025
0.07469
-0.00118707
0.0745441
-0.00127576
0.0742637
-0.00207499
0.0740138
-0.00210041
0.0735658
-0.00335914
0.0731624
-0.00326793
0.0724673
-0.00526236
0.0718387
-0.00493465
0.0707574
-0.00828793
0.0697923
-0.007474
0.0680783
-0.0134523
0.0666883
-0.0117008
0.0637998
-0.0238554
0.0625962
-0.0201988
0.0572924
-0.0521137
0.0621375
-0.0367735
-0.168706
0.0746542
0.074993
-8.56671e-05
0.074917
-0.000422759
0.0748481
-0.000564085
0.0746807
-0.0010197
0.0745292
-0.00112427
0.074242
-0.00178775
0.0739834
-0.00184178
0.0735239
-0.00289967
0.073106
-0.00285005
0.0723933
-0.00454963
0.0717362
-0.0042776
0.0706303
-0.00718203
0.0695918
-0.00643545
0.0678527
-0.0117133
0.066209
-0.0100571
0.0633475
-0.0209939
0.0611147
-0.017966
0.055797
-0.046796
0.060619
-0.0415956
-0.170251
0.0621643
0.0749911
-7.67418e-05
0.0749158
-0.000347518
0.0748428
-0.000491089
0.0746732
-0.000850048
0.0745162
-0.000967309
0.0742231
-0.00149465
0.0739577
-0.00157632
0.0734859
-0.00242788
0.0730603
-0.00242451
0.0723235
-0.00381276
0.0716571
-0.00361125
0.0705032
-0.00602815
0.0694446
-0.00537675
0.0676051
-0.0098738
0.0658592
-0.00831123
0.0627871
-0.0179218
0.0598101
-0.014989
0.0540607
-0.0410466
0.0537766
-0.0413115
0.0390498
-0.155525
0.0731662
-0.0355339
0.073277
-0.0355705
0.0734101
-0.0351452
0.0735491
-0.0345573
0.0736847
-0.0338431
0.0738121
-0.0330265
0.0739275
-0.0321788
0.0740293
-0.0313751
0.0741167
-0.0306485
-0.0300147
0.0741967
0.0732429
-0.0357305
0.0734237
-0.0357513
0.0736059
-0.0353274
0.0737812
-0.0347326
0.073933
-0.0339949
0.0740574
-0.0331509
0.0741579
-0.0322793
0.0742404
-0.0314576
0.0743094
-0.0307175
-0.0300761
0.0743708
0.0732858
-0.0360695
0.0735558
-0.0360213
0.0738018
-0.0355734
0.0740215
-0.0349524
0.0741947
-0.0341681
0.0743206
-0.0332769
0.0744111
-0.0323698
0.0744795
-0.0315259
0.0745339
-0.030772
-0.0301258
0.0745837
0.073322
-0.036556
0.0736882
-0.0363876
0.0740036
-0.0358888
0.0742683
-0.035217
0.074462
-0.0343618
0.0745905
-0.0334055
0.0746754
-0.0324546
0.0747363
-0.0315868
0.0747847
-0.0308204
-0.0301727
0.0748316
0.0733643
-0.0371934
0.0738296
-0.0368529
0.0742177
-0.0362769
0.0745267
-0.035526
0.0747411
-0.0345763
0.0748773
-0.0335417
0.074966
-0.0325432
0.0750302
-0.0316511
0.0750821
-0.0308723
-0.0302206
0.0751299
0.0734156
-0.0379808
0.0739828
-0.0374201
0.0744475
-0.0367416
0.0748043
-0.0358828
0.0750475
-0.0348195
0.0752052
-0.0336994
0.0753131
-0.0326512
0.0753918
-0.0317298
0.0754488
-0.0309292
-0.0302566
0.0754848
0.0734649
-0.0389073
0.0741487
-0.038104
0.0747029
-0.0372957
0.0751238
-0.0363037
0.0754172
-0.0351129
0.0756182
-0.0339004
0.0757587
-0.0327917
0.0758482
-0.0318193
0.0758845
-0.0309655
-0.0302304
0.0758583
0.0735146
-0.0399737
0.0743399
-0.0389293
0.0750177
-0.0379735
0.0755392
-0.0368252
0.0759139
-0.0354875
0.0761729
-0.0341594
0.0763323
-0.0329512
0.076385
-0.0318719
0.0763188
-0.0308993
-0.0300301
0.0761185
0.073582
-0.0412121
0.0746062
-0.0399535
0.075473
-0.0388403
0.0761425
-0.0374947
0.076612
-0.0359571
0.0768971
-0.0344445
0.0769927
-0.0330468
0.0768795
-0.0317587
0.0765453
-0.030565
-0.0294679
0.075983
0.0737328
-0.0427123
0.0750649
-0.0412855
0.0762002
-0.0399756
0.0770295
-0.0383239
0.0775292
-0.0364568
0.0777021
-0.0346174
0.0775353
-0.03288
0.0770183
-0.0312417
0.0761608
-0.0297075
-0.0282939
0.0749868
0.0741266
-0.0446433
0.0759002
-0.0430591
0.0773212
-0.0413966
0.0781935
-0.0391962
0.078498
-0.0367613
0.0782599
-0.0343793
0.0774961
-0.0321162
0.0762403
-0.029986
0.0745536
-0.0280208
-0.0262533
0.0725131
0.0750081
-0.0472124
0.0772706
-0.0453216
0.0787901
-0.0429161
0.0793454
-0.0397516
0.0790116
-0.0364274
0.0779011
-0.0332688
0.0761137
-0.0303288
0.0737647
-0.027637
0.0709894
-0.0252456
-0.0231873
0.0679234
0.0765722
-0.0505027
0.0790804
-0.0478298
0.080148
-0.0439837
0.0797299
-0.0393335
0.0781326
-0.0348301
0.0756224
-0.0307586
0.0724273
-0.0271337
0.0687601
-0.0239698
0.064827
-0.0213124
-0.0191532
0.0607929
0.0786671
-0.0541836
0.0806702
-0.0498329
0.0803206
-0.043634
0.0780748
-0.0370877
0.0745832
-0.0313385
0.0702944
-0.0264697
0.065565
-0.0224044
0.0606727
-0.0190775
0.0558404
-0.0164801
-0.0145072
0.0511943
0.0804341
-0.0572186
0.0806208
-0.0500196
0.0776429
-0.040656
0.0728155
-0.0322603
0.0671144
-0.0256374
0.0611138
-0.0204692
0.0552111
-0.0165017
0.0496391
-0.0135055
0.0445271
-0.0113681
-0.00986186
0.0398817
0.0801305
-0.0577934
0.0769019
-0.046791
0.0702425
-0.0339966
0.0626766
-0.0246945
0.0551686
-0.0181293
0.0482298
-0.0135304
0.0420868
-0.0103587
0.0367569
-0.00817557
0.0321648
-0.00677595
-0.00586967
0.0281726
0.0753284
-0.0535984
0.0672534
-0.0387159
0.0569123
-0.0236555
0.0476003
-0.0153825
0.03967
-0.010199
0.0332233
-0.00708367
0.0280532
-0.0051886
0.0238726
-0.00399496
0.0204191
-0.00332242
-0.00294675
0.0174961
0.0635197
-0.0424638
0.0504837
-0.0256799
0.0384048
-0.0115766
0.0296947
-0.00667244
0.0233534
-0.00385767
0.0188135
-0.00254381
0.0154433
-0.00181836
0.0128329
-0.00138464
0.0107051
-0.0011946
-0.00115904
0.00891742
0.0432378
-0.0235373
0.027902
-0.0103442
0.0184539
-0.00212856
0.0130496
-0.00126811
0.00973242
-0.000540532
0.00756618
-0.000377557
0.00601598
-0.000268172
0.00483113
-0.000199783
0.00384087
-0.000204344
-0.000300914
0.00298275
0.0155126
0.0051684
0.00303984
0.00177173
0.00123119
0.000853637
0.000585465
0.000385682
0.000181338
-0.000119576
0.074225
-0.0103778
0.0742485
-0.0103139
0.0742725
-0.0102555
0.0742959
-0.0102002
0.0743187
-0.0101484
0.0743412
-0.0100999
0.0743634
-0.0100545
0.0743853
-0.0100122
0.0744069
-0.0099728
0.0744282
-0.00993612
0.0744492
-0.00990209
0.0744698
-0.00987055
0.0744899
-0.00984154
0.0745093
-0.00981476
0.0745281
-0.0097906
0.0745459
-0.00976821
0.0745628
-0.00974915
0.0745779
-0.00973045
0.0745918
-0.00971783
-0.0096991
0.0743905
-0.0103974
0.0744111
-0.0103345
0.0744312
-0.0102756
0.0744514
-0.0102204
0.0744717
-0.0101686
0.0744919
-0.0101201
0.0745122
-0.0100748
0.0745323
-0.0100324
0.0745524
-0.00999282
0.0745721
-0.00995584
0.0745913
-0.00992136
0.0746099
-0.00988914
0.0746277
-0.00985925
0.0746441
-0.00983124
0.0746592
-0.00980569
0.0746723
-0.00978126
0.0746835
-0.00976036
0.0746913
-0.00973823
0.0746973
-0.00972389
-0.00970026
0.0746012
-0.0104149
0.0746192
-0.0103525
0.0746374
-0.0102938
0.0746558
-0.0102388
0.0746744
-0.0101872
0.0746932
-0.0101389
0.0747119
-0.0100935
0.0747303
-0.0100508
0.0747482
-0.0100107
0.0747652
-0.00997283
0.0747809
-0.00993708
0.0747949
-0.00990316
0.0748068
-0.00987115
0.074816
-0.0098404
0.0748221
-0.00981181
0.0748242
-0.00978332
0.0748225
-0.00975864
0.0748147
-0.00973051
0.0748035
-0.00971267
-0.009679
0.0748485
-0.0104318
0.0748655
-0.0103696
0.0748826
-0.010311
0.0748997
-0.0102559
0.0749165
-0.010204
0.0749327
-0.010155
0.0749478
-0.0101086
0.0749614
-0.0100644
0.074973
-0.0100222
0.0749818
-0.00998167
0.0749873
-0.00994261
0.0749888
-0.00990465
0.0749856
-0.00986793
0.0749768
-0.00983161
0.074962
-0.00979693
0.0749397
-0.00976103
0.0749103
-0.00972927
0.0748708
-0.00969098
0.0748248
-0.0096667
-0.00961708
0.0751453
-0.0104471
0.0751597
-0.010384
0.0751728
-0.0103241
0.0751842
-0.0102673
0.0751934
-0.0102132
0.0751995
-0.0101612
0.0752021
-0.0101111
0.0752002
-0.0100625
0.075193
-0.010015
0.0751796
-0.0099683
0.0751591
-0.00992215
0.0751306
-0.00987615
0.0750932
-0.00983048
0.0750457
-0.00978418
0.0749876
-0.00973881
0.0749174
-0.00969077
0.0748353
-0.00964718
0.0747378
-0.00959351
0.0746298
-0.00955869
-0.00948593
0.0754903
-0.0104527
0.0754919
-0.0103855
0.0754886
-0.0103208
0.0754797
-0.0102584
0.0754644
-0.0101978
0.0754416
-0.0101385
0.0754106
-0.0100801
0.0753701
-0.010022
0.0753191
-0.00996405
0.0752566
-0.00990578
0.0751814
-0.009847
0.0750926
-0.00978734
0.0749891
-0.00972701
0.07487
-0.00966506
0.0747344
-0.00960323
0.0745812
-0.00953752
0.0744104
-0.00947643
0.0742189
-0.00940201
0.074012
-0.00935176
-0.00924918
0.0758311
-0.0104255
0.075794
-0.0103484
0.0757459
-0.0102727
0.0756859
-0.0101984
0.0756129
-0.0101249
0.075526
-0.0100516
0.075424
-0.00997805
0.0753058
-0.00990389
0.0751705
-0.00982872
0.075017
-0.00975224
0.0748442
-0.00967428
0.0746515
-0.00959459
0.0744379
-0.00951337
0.0742027
-0.00942992
0.0739454
-0.00934588
0.0736654
-0.00925754
0.0733626
-0.00917362
0.0730353
-0.00907471
0.0726878
-0.00900428
-0.00886839
0.076014
-0.010321
0.0758913
-0.0102257
0.0757493
-0.0101307
0.0755873
-0.0100364
0.0754044
-0.00994203
0.0752
-0.00984711
0.0749731
-0.00975118
0.074723
-0.00965384
0.0744491
-0.0095548
0.0741507
-0.00945384
0.0738273
-0.00935089
0.0734786
-0.00924588
0.0731042
-0.00913901
0.0727043
-0.00903
0.0722785
-0.00892008
0.0718276
-0.00880664
0.071351
-0.00869703
0.0708499
-0.00857357
0.0703256
-0.00848003
-0.0083134
0.0757334
-0.0100713
0.0754566
-0.00994891
0.0751523
-0.00982647
0.0748205
-0.00970459
0.0744611
-0.00958257
0.0740738
-0.00945988
0.0736587
-0.00933609
0.0732157
-0.00921086
0.0727449
-0.00908398
0.0722465
-0.00895537
0.0717206
-0.00882506
0.0711679
-0.00869319
0.0705889
-0.00855997
0.0699845
-0.00842559
0.0693551
-0.00829072
0.0687028
-0.00815434
0.0680268
-0.00802103
0.0673315
-0.00787829
0.0666141
-0.00776256
-0.00757591
0.0745096
-0.00959406
0.0739994
-0.00943874
0.0734574
-0.00928452
0.0728848
-0.00913191
0.0722824
-0.00898015
0.0716512
-0.00882869
0.0709922
-0.00867708
0.0703063
-0.00852501
0.0695947
-0.00837235
0.0688584
-0.00821911
0.0680988
-0.00806543
0.0673172
-0.00791159
0.066515
-0.00775783
0.0656941
-0.00760465
0.0648557
-0.00745229
0.0640024
-0.0073011
0.063134
-0.00715262
0.062257
-0.00700129
0.0613643
-0.00686984
-0.00668126
0.0717339
-0.00881491
0.070924
-0.0086288
0.0700865
-0.00844702
0.0692238
-0.00826921
0.0683381
-0.00809446
0.0674315
-0.00792211
0.066506
-0.0077516
0.0655636
-0.00758255
0.064606
-0.00741481
0.0636353
-0.0072484
0.0626534
-0.00708348
0.0616621
-0.00692033
0.0606635
-0.00675918
0.0596594
-0.00660056
0.0586516
-0.00644451
0.0576425
-0.00629199
0.0566324
-0.00614248
0.0556274
-0.00599632
0.0546186
-0.005861
-0.00569104
0.0668107
-0.00770221
0.0656819
-0.00749997
0.0645419
-0.00730703
0.063394
-0.00712135
0.0622413
-0.00694178
0.0610865
-0.00676731
0.059932
-0.00659705
0.0587798
-0.0064304
0.057632
-0.00626702
0.0564904
-0.00610677
0.0553566
-0.00594965
0.054232
-0.00579575
0.053118
-0.00564517
0.0520156
-0.00549822
0.0509261
-0.00535491
0.0498501
-0.00521606
0.0487883
-0.00508068
0.0477438
-0.00495179
0.0467089
-0.00482614
-0.00468998
0.0593942
-0.00630355
0.0580081
-0.00611383
0.0566394
-0.0059384
0.0552916
-0.00577353
0.0539673
-0.00561744
0.0526683
-0.00546836
0.0513961
-0.00532478
0.0501513
-0.00518562
0.0489345
-0.00505018
0.0477456
-0.00491795
0.0465846
-0.00478861
0.0454508
-0.00466197
0.0443436
-0.00453796
0.043262
-0.00441666
0.0422053
-0.00429815
0.0411722
-0.00418298
0.0401624
-0.00407086
0.0391752
-0.00396466
0.0382069
-0.0038578
-0.00375907
0.0496546
-0.00476377
0.048165
-0.00462431
0.0467287
-0.0045021
0.0453472
-0.004392
0.0440205
-0.00429078
0.0427475
-0.00419533
0.041526
-0.00410327
0.0403533
-0.00401294
0.0392264
-0.00392324
0.0381418
-0.00383339
0.0370962
-0.00374296
0.0360859
-0.00365174
0.0351078
-0.00355978
0.0341584
-0.00346733
0.0332351
-0.00337483
0.0323352
-0.00328303
0.0314571
-0.00319275
0.0305984
-0.00310597
0.0297593
-0.00301868
-0.00294995
0.0384166
-0.00329868
0.0370385
-0.00324613
0.0357462
-0.00320989
0.0345369
-0.00318262
0.0334046
-0.00315851
0.0323421
-0.00313287
0.0313416
-0.00310277
0.0303952
-0.00306655
0.0294954
-0.00302344
0.0286353
-0.00297326
0.0278086
-0.00291625
0.0270098
-0.00285296
0.0262342
-0.00278418
0.0254778
-0.0027109
0.0247373
-0.00263433
0.0240102
-0.00255599
0.0232953
-0.0024778
0.022591
-0.00240169
0.0219005
-0.00232821
-0.00227709
0.026995
-0.0021211
0.0259311
-0.00218222
0.0249724
-0.00225114
0.0241062
-0.00231646
0.0233174
-0.00236969
0.0225906
-0.00240613
0.0219122
-0.00242433
0.0212703
-0.00242465
0.0206553
-0.00240841
0.0200594
-0.00237738
0.0194767
-0.0023335
0.0189024
-0.00227873
0.0183333
-0.00221504
0.0177668
-0.00214441
0.0172014
-0.00206897
0.0166366
-0.00199117
0.0160728
-0.00191395
0.0155113
-0.00184023
0.0149566
-0.00177355
-0.0017289
0.0167387
-0.00136369
0.0161079
-0.00155143
0.0155797
-0.00172293
0.0151264
-0.00186309
0.014722
-0.00196528
0.0143457
-0.00202989
0.0139824
-0.00206098
0.0136213
-0.00206363
0.0132558
-0.00204284
0.0128815
-0.00200308
0.0124961
-0.00194818
0.0120988
-0.00188137
0.0116893
-0.00180553
0.0112682
-0.00172333
0.0108368
-0.00163755
0.010397
-0.00155134
0.00995153
-0.00146853
0.00950488
-0.00139358
0.00906136
-0.00133003
-0.00128442
0.00859951
-0.00104577
0.00840276
-0.00135468
0.00827813
-0.0015983
0.00818239
-0.00176735
0.00808522
-0.00186812
0.0079685
-0.00191317
0.00782304
-0.00191551
0.00764542
-0.00188601
0.00743571
-0.00183313
0.00719585
-0.00176322
0.00692867
-0.001681
0.00663737
-0.00159007
0.00632519
-0.00149335
0.00599545
-0.0013936
0.0056516
-0.0012937
0.00529733
-0.00119707
0.00493675
-0.00110795
0.0045757
-0.00103253
0.00422336
-0.00097769
-0.000921677
0.0029956
-0.00105862
0.0031131
-0.00147219
0.00324875
-0.00173395
0.00335428
-0.00187287
0.00340672
-0.00192056
0.00339992
-0.00190637
0.00333618
-0.00185178
0.0032216
-0.00177142
0.00306342
-0.00167495
0.00286889
-0.00156869
0.00264461
-0.00145672
0.00239635
-0.00134181
0.00212918
-0.00122619
0.00184761
-0.00111202
0.00155581
-0.0010019
0.0012579
-0.00089916
0.000957835
-0.000807881
0.0006574
-0.000732097
0.000357924
-0.000678214
-0.000677692
-7.50487e-05
-0.00110315
0.00012306
-0.0016703
0.000297087
-0.00190798
0.000394328
-0.00197011
0.000411365
-0.0019376
0.000358226
-0.00185323
0.00024772
-0.00174127
9.20943e-05
-0.0016158
-9.80063e-05
-0.00148485
-0.000313834
-0.00135286
-0.00054832
-0.00122223
-0.000795734
-0.0010944
-0.00105142
-0.000970497
-0.00131153
-0.000851919
-0.00157276
-0.000740671
-0.00183232
-0.000639599
-0.00208792
-0.000552277
-0.00233704
-0.000482983
-0.00257598
-0.000439267
-0.000427867
-0.0002847
-0.000818449
-0.000449768
-0.00150523
-0.000583119
-0.00177463
-0.000720194
-0.00183303
-0.00087528
-0.00178251
-0.00105026
-0.00167825
-0.00124195
-0.00154958
-0.00144571
-0.00141203
-0.00165698
-0.00127359
-0.00187173
-0.0011381
-0.00208672
-0.00100724
-0.00229937
-0.000881746
-0.00250769
-0.000762174
-0.00271016
-0.000649447
-0.00290566
-0.000545169
-0.00309352
-0.000451749
-0.00327351
-0.000372278
-0.00344591
-0.000310584
-0.00361334
-0.000271839
-0.000257718
-0.000240456
-0.000577993
-0.000563952
-0.00118174
-0.000892308
-0.00144627
-0.00121292
-0.00151242
-0.00152417
-0.00147126
-0.00182605
-0.00137637
-0.00211799
-0.00125765
-0.00239897
-0.00113105
-0.00266793
-0.00100464
-0.00292393
-0.000882097
-0.00316633
-0.000764847
-0.00339473
-0.000653344
-0.00360902
-0.000547888
-0.00380934
-0.000449128
-0.00399616
-0.000358353
-0.00417034
-0.000277564
-0.00433328
-0.00020934
-0.00448705
-0.00015681
-0.0046355
-0.000123389
-0.000109022
-0.000208492
-0.000369501
-0.000590092
-0.000800136
-0.00103105
-0.00100532
-0.00147831
-0.00106516
-0.00190897
-0.0010406
-0.00231385
-0.000971492
-0.00268991
-0.000881587
-0.0030368
-0.000784154
-0.00335536
-0.000686078
-0.00364689
-0.000590562
-0.00391288
-0.000498857
-0.00415486
-0.000411363
-0.00437442
-0.000328327
-0.00457327
-0.000250283
-0.00475333
-0.000178296
-0.00491684
-0.000114048
-0.00506653
-5.96509e-05
-0.00520573
-1.76121e-05
-0.0053388
9.67873e-06
2.2624e-05
-0.000193578
-0.000175923
-0.000598136
-0.000395578
-0.00109567
-0.000507781
-0.00161564
-0.000545189
-0.00212047
-0.000535775
-0.00259246
-0.00049951
-0.0030248
-0.000449238
-0.00341634
-0.000392617
-0.00376854
-0.000333881
-0.00408394
-0.000275157
-0.00436542
-0.000217379
-0.00461585
-0.000160937
-0.00483805
-0.000106125
-0.00503487
-5.34616e-05
-0.00520936
-3.80328e-06
-0.0053647
4.12831e-05
-0.00550456
8.02125e-05
-0.00563303
0.000110862
-0.0057548
0.000131443
0.000141879
-0.000188268
1.2345e-05
-0.000599949
1.61026e-05
-0.00111859
1.08567e-05
-0.00166793
4.15431e-06
-0.00220406
3.51839e-07
-0.00270496
1.39839e-06
-0.00316165
7.44842e-06
-0.0035722
1.7934e-05
-0.00393821
3.21311e-05
-0.00426276
4.93863e-05
-0.00454935
6.9211e-05
-0.00480152
9.12339e-05
-0.00502272
0.000115075
-0.00521638
0.000140204
-0.005386
0.000165815
-0.00553545
0.000190732
-0.00566875
0.000213513
-0.00579036
0.000232475
-0.00590504
0.000246118
0.000253612
-0.000188193
0.000200538
-0.000596025
0.000423934
-0.00110785
0.00052268
-0.00164878
0.00054509
-0.00217603
0.000527594
-0.0026681
0.00049347
-0.00311632
0.000455671
-0.00351896
0.000420573
-0.00387767
0.000390837
-0.00419551
0.000367232
-0.00447599
0.000349692
-0.0047226
0.000337845
-0.00493875
0.000331222
-0.00512782
0.000329269
-0.0052933
0.000331296
-0.00543896
0.000336395
-0.00556885
0.000343405
-0.00568737
0.000350997
-0.00579919
0.000357931
0.000362616
-0.000192512
0.00039305
-0.000583364
0.000814786
-0.00105877
0.000998083
-0.00155271
0.00103904
-0.00203063
0.00100551
-0.0024764
0.000939239
-0.00288394
0.000863215
-0.00325235
0.000788982
-0.00358316
0.000721648
-0.0038789
0.00066297
-0.00414236
0.000613151
-0.00437632
0.000571801
-0.00458348
0.000538383
-0.00476658
0.00051237
-0.00492852
0.000493238
-0.00507251
0.000480379
-0.00520209
0.000472984
-0.00532122
0.000470131
-0.00543431
0.000471021
0.000473562
-0.000201195
0.000594245
-0.000551551
0.00116514
-0.000950087
0.00139662
-0.00135199
0.00144094
-0.00173824
0.00139176
-0.00210116
0.00130216
-0.00243807
0.00120013
-0.0027486
0.0010995
-0.00303342
0.00100647
-0.00329372
0.000923266
-0.00353083
0.000850264
-0.00374615
0.000787125
-0.00394113
0.00073336
-0.00411733
0.000688572
-0.00427658
0.00065249
-0.00442109
0.000624887
-0.0045535
0.000605389
-0.00467691
0.000593543
-0.00479525
0.00058936
0.000590874
-0.00020687
0.000801115
-0.000464893
0.00142316
-0.000725091
0.00165682
-0.000981572
0.00169742
-0.00123447
0.00164465
-0.00148319
0.00155088
-0.00172617
0.00144311
-0.00196162
0.00133495
-0.00218795
0.0012328
-0.00240395
0.00113927
-0.00260879
0.00105511
-0.00280196
0.000980295
-0.00298324
0.000914638
-0.00315271
0.00085804
-0.00331082
0.000810602
-0.00345849
0.000772559
-0.00359715
0.000744051
-0.00372869
0.000725081
-0.00385606
0.000716733
0.00071863
-0.000136517
0.000937632
-0.000195866
0.00148251
-0.00024164
0.00170259
-0.000307611
0.00176339
-0.000402047
0.00173909
-0.000522614
0.00167145
-0.000663817
0.00158432
-0.000819757
0.00149089
-0.000985195
0.00139824
-0.00115585
0.00130992
-0.00132837
0.00122763
-0.00150018
0.00115211
-0.00166933
0.00108378
-0.00183436
0.00102308
-0.00199434
0.000970584
-0.00214884
0.00092706
-0.00229801
0.000893215
-0.00244213
0.000869199
-0.00258182
0.00085643
0.000862361
0.000955657
0.000843575
-0.0008616
0.00123601
0.00120216
0.00149337
0.00144524
0.00166998
0.00158678
0.00175684
0.00165223
0.00176291
0.00166537
0.00170239
0.00164484
0.00158943
0.00160386
0.00143632
0.00155134
0.00125317
0.00149307
0.00104804
0.00143276
0.000827305
0.00137284
0.000596047
0.00131504
0.000358346
0.00126078
0.000117485
0.00121145
-0.000123945
0.00116849
-0.000364203
0.00113347
-0.000603338
0.00110833
-0.000840361
0.00109345
0.00108009
0.00670714
0.00095769
-0.00682125
0.00672053
0.00118876
0.00677962
0.00138614
0.0068315
0.0015349
0.00684765
0.00163608
0.0068166
0.00169642
0.00673685
0.00172459
0.00661195
0.00172876
0.00644758
0.00171572
0.00624992
0.00169073
0.00602486
0.00165781
0.00577772
0.00161998
0.00551316
0.0015796
0.00523528
0.00153866
0.00494776
0.00149897
0.00465387
0.00146238
0.00435655
0.00143079
0.00405911
0.00140578
0.00376449
0.00138807
0.00137631
0.0163848
0.00159886
-0.017026
0.0158789
0.00169463
0.0154732
0.00179187
0.0151295
0.0018786
0.0148178
0.00194781
0.014517
0.00199715
0.0142142
0.00202747
0.0139018
0.00204113
0.0135766
0.00204096
0.0132375
0.00202979
0.0128851
0.00201017
0.0125208
0.00198436
0.012146
0.00195433
0.0117629
0.00192185
0.0113733
0.00188857
0.0109794
0.00185619
0.0105838
0.00182644
0.0101891
0.00180046
0.00979777
0.00177942
0.00176975
0.0295382
0.00279358
-0.0307329
0.0284657
0.00276711
0.0275034
0.00275412
0.0266348
0.00274724
0.0258414
0.00274118
0.0251064
0.00273218
0.0244155
0.0027183
0.0237578
0.00269892
0.0231246
0.00267416
0.0225098
0.00264457
0.021909
0.00261093
0.0213192
0.00257417
0.0207383
0.00253524
0.020165
0.00249511
0.0195988
0.00245479
0.0190396
0.00241538
0.018488
0.00237807
0.0179447
0.00234372
0.0174127
0.00231147
0.00229384
0.0446109
0.00436739
-0.0461847
0.0431276
0.00425035
0.0417327
0.0041491
0.040422
0.00405787
0.0391893
0.00397393
0.0380267
0.00389477
0.0369264
0.00381858
0.035881
0.00374429
0.0348839
0.00367135
0.0339289
0.00359951
0.0330111
0.00352875
0.0321261
0.00345918
0.0312703
0.00339102
0.0304408
0.00332459
0.0296354
0.00326024
0.0288522
0.0031985
0.0280907
0.00313967
0.0273492
0.00308514
0.0266305
0.0030302
0.0029887
0.0591759
0.00600363
-0.0608121
0.0575849
0.0058413
0.0560422
0.00569183
0.0545491
0.00555098
0.0531058
0.00541725
0.0517113
0.00528923
0.0503642
0.00516573
0.0490625
0.00504601
0.0478041
0.00492968
0.0465871
0.00481657
0.0454092
0.00470664
0.0442684
0.00459992
0.0431629
0.0044965
0.042091
0.00439658
0.041051
0.00430018
0.0400417
0.00420778
0.0390627
0.00411869
0.0381125
0.00403533
0.0371909
0.0039518
0.00387052
0.0710329
0.00740749
-0.0724367
0.0696316
0.00724254
0.0682384
0.00708505
0.066856
0.00693338
0.0654869
0.00678639
0.0641329
0.00664317
0.0627957
0.00650297
0.0614764
0.0063653
0.0601762
0.0062299
0.058896
0.00609674
0.0576368
0.00596587
0.0563993
0.00583745
0.0551842
0.00571162
0.0539921
0.00558869
0.0528236
0.00546859
0.0516794
0.00535201
0.0505601
0.00523799
0.0494674
0.00512799
0.0483964
0.00502284
0.00489792
0.0791929
0.00842994
-0.0802153
0.078147
0.00828839
0.0770823
0.00814974
0.0760012
0.00801448
0.074906
0.00788158
0.0737988
0.00775035
0.0726816
0.0076202
0.0715562
0.00749074
0.0704243
0.00736173
0.069288
0.00723309