/*--------------------------------*- C++ -*----------------------------------*\
| =========                 |                                                 |
| \\      /  F ield         | OpenFOAM: The Open Source CFD Toolbox           |
|  \\    /   O peration     | Version:  v1806                                 |
|   \\  /    A nd           | Web:      www.OpenFOAM.com                      |
|    \\/     M anipulation  |                                                 |
\*---------------------------------------------------------------------------*/
FoamFile
{
    version     2.0;
    format      ascii;
    class       surfaceScalarField;
    location    "350";
    object      phi;
}
// * * * * * * * * * * * * * * * * * * * * * * * * * * * * * * * * * * * * * //

dimensions      [0 3 -1 0 0 0 0];
oriented        oriented;


internalField   nonuniform List<scalar> 
15538
(
-1.7379e-07
-0.0732577
0.0610823
0.0291419
-0.0169663
1.30377e-07
-0.073292
0.0610803
0.0291481
-0.0169367
-1.30429e-07
-0.0732958
0.061081
0.0291507
-0.0169357
1.73764e-07
-0.073292
0.0610803
0.0291481
-0.0169367
-0.0732577
0.0610823
0.0291419
-0.0169663
-1.21576e-07
-0.0583035
-0.0495408
0.0345866
8.05417e-08
-0.0583607
-0.0495431
0.0346115
-8.05831e-08
-0.0583698
-0.0495441
0.0346183
1.21552e-07
-0.0583607
-0.0495431
0.0346115
-0.0583035
-0.0495408
0.0345866
8.15566e-07
-0.0398583
-0.0406044
0.0221585
4.0608e-08
-0.03988
-0.0406209
0.022141
-4.06206e-08
-0.0398836
-0.0406222
0.0221361
-8.1557e-07
-0.03988
-0.0406209
0.022141
-0.0398583
-0.0406044
0.0221585
-8.52945e-07
0.0472313
-0.00169807
-0.0450048
-0.000527528
-1.59336e-08
0.047195
-0.00169367
-0.0449835
-0.000518658
1.59662e-08
0.0471913
-0.00169332
-0.0449809
-0.000517136
8.52963e-07
0.047195
-0.00169367
-0.0449835
-0.000518658
0.0472313
-0.00169807
-0.0450048
-0.000527528
-7.20601e-07
-0.00518512
0.0295346
0.0228825
8.6623e-09
-0.00518189
0.029508
0.0228681
-8.65199e-09
-0.00518187
0.0295054
0.0228678
7.20607e-07
-0.00518189
0.029508
0.0228681
-0.00518512
0.0295346
0.0228825
-7.55841e-07
-0.040825
0.0334637
0.0021769
1.46402e-08
-0.0408002
0.0334373
0.00218028
-1.46329e-08
-0.0407976
0.0334351
0.00218067
7.55846e-07
-0.0408002
0.0334373
0.00218028
-0.040825
0.0334637
0.0021769
-5.99185e-07
0.00393021
-0.0464526
-1.37081e-08
0.00393475
-0.0464292
1.3726e-08
0.00393576
-0.0464267
5.99197e-07
0.00393475
-0.0464292
0.00393021
-0.0464526
-4.88104e-07
-0.0015258
0.0039839
0.0467447
-0.0492023
-3.9674e-08
-0.00153506
0.00398733
0.0467396
-0.0491923
3.97777e-08
-0.00153648
0.00398873
0.0467379
-0.0491903
4.88141e-07
-0.00153506
0.00398733
0.0467396
-0.0491923
-0.0015258
0.0039839
0.0467447
-0.0492023
-6.25057e-07
0.00132621
-0.0478562
-4.10061e-08
0.00131844
-0.0478376
4.11077e-08
0.00131768
-0.0478352
6.25095e-07
0.00131844
-0.0478376
0.00132621
-0.0478562
1.09977e-07
-0.000426933
0.0403331
-0.0434516
0.00354532
3.06313e-07
-0.000386628
0.040354
-0.0435118
0.00354423
-3.06169e-07
-0.000377297
0.0403586
-0.0435207
0.00354002
-1.09896e-07
-0.000386628
0.040354
-0.0435118
0.00354423
-0.000426933
0.0403331
-0.0434516
0.00354532
-3.86734e-07
0.0383113
-0.0475021
0.00876426
1.33016e-07
0.0383397
-0.0475284
0.0088015
-1.32451e-07
0.0383455
-0.0475306
0.00880806
3.86813e-07
0.0383397
-0.0475284
0.0088015
0.0383113
-0.0475021
0.00876426
9.56462e-07
0.0133096
0.0403459
-0.0153452
1.29328e-07
0.0133412
0.0403514
-0.015352
-1.27697e-07
0.0133418
0.0403552
-0.0153513
-9.56852e-07
0.0133412
0.0403514
-0.015352
0.0133096
0.0403459
-0.0153452
1.58817e-06
0.0467723
0.00686876
1.81018e-07
0.0467643
0.00693236
-1.80522e-07
0.0467669
0.00693384
-1.58797e-06
0.0467643
0.00693236
0.0467723
0.00686876
-3.11147e-08
-0.00340105
0.000547406
0.00285368
-5.5424e-08
-0.00338175
0.000543619
0.00283815
5.54255e-08
-0.00337911
0.000543221
0.00283578
3.11153e-08
-0.00338175
0.000543619
0.00283815
-0.00340105
0.000547406
0.00285368
2.51295e-10
-0.00193859
-0.00146246
-3.1241e-08
-0.00193558
-0.00144613
3.12425e-08
-0.00193436
-0.00144482
-2.50948e-10
-0.00193558
-0.00144613
-0.00193859
-0.00146246
-2.9227e-08
-0.00255247
0.000927123
-0.000313218
-2.98796e-08
-0.00254945
0.000925285
-0.000311419
2.98827e-08
-0.00254805
0.000924699
-0.000311061
2.92282e-08
-0.00254945
0.000925285
-0.000311419
-0.00255247
0.000927123
-0.000313218
-5.8322e-08
-0.00203474
0.00101546
-0.00286042
0.00387975
-3.32245e-09
-0.00203994
0.00101221
-0.00285596
0.00388364
3.32282e-09
-0.00204025
0.00101136
-0.00285493
0.00388381
5.83217e-08
-0.00203994
0.00101221
-0.00285596
0.00388364
-0.00203474
0.00101546
-0.00286042
0.00387975
-9.87852e-08
0.00224922
-0.00368909
-0.000594768
3.23918e-09
0.00224732
-0.00368059
-0.000606764
-3.23881e-09
0.00224628
-0.00367908
-0.000607439
9.87848e-08
0.00224732
-0.00368059
-0.000606764
0.00224922
-0.00368909
-0.000594768
-4.49307e-08
0.00302667
0.000238058
-5.16165e-09
0.00302442
0.000235067
5.16162e-09
0.00302309
0.00023454
4.49306e-08
0.00302442
0.000235067
0.00302667
0.000238058
-2.01059e-06
-0.0209053
-0.0183913
0.021943
0.0173556
3.672e-07
-0.0208637
-0.0182792
0.0219804
0.0171601
-3.67191e-07
-0.0208635
-0.0182715
0.0219851
0.0171506
2.0106e-06
-0.0208637
-0.0182792
0.0219804
0.0171601
-0.0209053
-0.0183913
0.021943
0.0173556
-1.45713e-06
-0.0166414
-0.0254368
0.0211744
2.15621e-07
-0.0165981
-0.0253961
0.0211288
-2.15619e-07
-0.0165971
-0.0253949
0.0211289
1.45713e-06
-0.0165981
-0.0253961
0.0211288
-0.0166414
-0.0254368
0.0211744
-7.18048e-07
0.0171034
-0.0173909
-0.0163531
7.08369e-08
0.0170881
-0.0173583
-0.0163287
-7.08334e-08
0.0170869
-0.0173566
-0.0163273
7.1805e-07
0.0170881
-0.0173583
-0.0163287
0.0171034
-0.0173909
-0.0163531
-1.18806e-06
-0.0239172
0.0226304
1.46421e-07
-0.0238442
0.0226517
-1.46411e-07
-0.0238389
0.0226547
1.18807e-06
-0.0238442
0.0226517
-0.0239172
0.0226304
-6.67499e-08
0.00170258
-0.00178446
-0.00328216
0.00336411
-4.81216e-09
0.00169837
-0.0017885
-0.00327729
0.00336736
4.81306e-09
0.00169712
-0.00178857
-0.00327587
0.00336731
6.67504e-08
0.00169837
-0.0017885
-0.00327729
0.00336736
0.00170258
-0.00178446
-0.00328216
0.00336411
-8.0374e-08
-0.0023438
0.00358888
0.000457571
-7.21651e-09
-0.00234235
0.00358733
0.000453316
7.21629e-09
-0.00234103
0.0035857
0.000452437
8.03744e-08
-0.00234235
0.00358733
0.000453316
-0.0023438
0.00358888
0.000457571
-8.28319e-08
-0.00361728
-0.00051089
1.36352e-09
-0.00360768
-0.000523255
-1.36401e-09
-0.00360589
-0.000523711
8.2832e-08
-0.00360768
-0.000523255
-0.00361728
-0.00051089
1.13037e-06
0.0347309
0.00891464
-0.0418026
-0.00184407
5.23625e-08
0.0346988
0.00888602
-0.0417874
-0.00179633
-5.23702e-08
0.0346928
0.00888645
-0.0417835
-0.00179565
-1.13038e-06
0.0346988
0.00888602
-0.0417874
-0.00179633
0.0347309
0.00891464
-0.0418026
-0.00184407
5.10748e-07
-0.0285373
0.0473504
0.0159173
2.01238e-08
-0.028553
0.047334
0.0159183
-2.01298e-08
-0.0285514
0.0473312
0.0159131
-5.10755e-07
-0.028553
0.047334
0.0159183
-0.0285373
0.0473504
0.0159173
8.96391e-07
-0.0531623
0.0335387
4.0489e-08
-0.0531944
0.0335282
-4.05035e-08
-0.0531959
0.033531
-8.96402e-07
-0.0531944
0.0335282
-0.0531623
0.0335387
3.51246e-07
0.0120668
0.0246657
-0.0346003
-0.00213252
-1.90753e-08
0.0120303
0.0246352
-0.0345737
-0.0020915
1.90727e-08
0.0120269
0.0246305
-0.0345693
-0.00208815
-3.51247e-07
0.0120303
0.0246352
-0.0345737
-0.0020915
0.0120668
0.0246657
-0.0346003
-0.00213252
1.72415e-07
0.0203645
-0.0463264
0.0380285
-5.21609e-09
0.0203769
-0.0463515
0.0380051
5.21471e-09
0.0203778
-0.0463533
0.0380024
-1.72414e-07
0.0203769
-0.0463515
0.0380051
0.0203645
-0.0463264
0.0380285
-2.6701e-07
0.0464543
-0.00142391
-2.32013e-08
0.0464032
-0.00139133
2.31988e-08
0.0463954
-0.00138718
2.6701e-07
0.0464032
-0.00139133
0.0464543
-0.00142391
-6.04263e-07
-0.0394288
0.0547823
0.0107347
-0.0260876
-1.02306e-08
-0.0394296
0.0547678
0.0107113
-0.0260501
1.0234e-08
-0.0394288
0.0547675
0.0107081
-0.0260469
6.04266e-07
-0.0394296
0.0547678
0.0107113
-0.0260501
-0.0394288
0.0547823
0.0107347
-0.0260876
-3.63514e-07
-0.0580247
0.00344855
0.0151477
-2.70282e-08
-0.0580262
0.0034374
0.0151588
2.70759e-08
-0.0580247
0.00343557
0.0151603
3.63521e-07
-0.0580262
0.0034374
0.0151588
-0.0580247
0.00344855
0.0151477
-4.03361e-07
-0.00106286
-0.0529775
-3.96634e-08
-0.00105491
-0.0529843
3.98971e-08
-0.00105306
-0.052983
4.0333e-07
-0.00105491
-0.0529843
-0.00106286
-0.0529775
-5.76491e-08
0.00449942
-0.00238991
-0.00539809
0.00328863
-4.65364e-09
0.00449691
-0.00239032
-0.00539701
0.00329036
4.6542e-09
0.00449592
-0.00239045
-0.0053962
0.00329073
5.76494e-08
0.00449691
-0.00239032
-0.00539701
0.00329036
0.00449942
-0.00238991
-0.00539809
0.00328863
-7.09642e-08
0.00424763
-0.00297592
0.00322778
-4.88844e-09
0.00424203
-0.00297624
0.00323105
4.88927e-09
0.00424063
-0.00297629
0.00323156
7.09636e-08
0.00424203
-0.00297624
0.00323105
0.00424763
-0.00297592
0.00322778
-5.94977e-08
-0.00347559
0.00558577
-0.00602666
0.00391653
-6.79911e-09
-0.00347443
0.00558245
-0.00602552
0.00391745
6.82774e-09
-0.0034744
0.00558128
-0.00602459
0.00391771
5.9482e-08
-0.00347443
0.00558245
-0.00602552
0.00391745
-0.00347559
0.00558577
-0.00602666
0.00391653
-7.82565e-08
-0.00404145
0.00587823
-0.00531228
-6.3384e-09
-0.00404114
0.00587719
-0.00531056
6.33851e-09
-0.00404087
0.00587614
-0.00530968
7.82538e-08
-0.00404114
0.00587719
-0.00531056
-0.00404145
0.00587823
-0.00531228
-5.21545e-08
-0.00382589
0.00190019
0.00190693
1.88174e-05
-4.40118e-09
-0.00382114
0.00189872
0.00190338
1.89888e-05
4.40168e-09
-0.00381998
0.00189835
0.00190257
1.90503e-05
5.21535e-08
-0.00382114
0.00189872
0.00190338
1.89889e-05
-0.00382589
0.00190019
0.00190693
1.88175e-05
-7.93692e-08
-0.00475993
-0.000212489
0.00114661
-3.01633e-09
-0.00475708
-0.000210561
0.00114643
3.01695e-09
-0.0047561
-0.000210298
0.00114641
7.9369e-08
-0.00475708
-0.000210561
0.00114643
-0.00475993
-0.000212489
0.00114661
-8.31757e-08
-0.00239402
0.00295264
-2.67668e-09
-0.00239466
0.00295602
2.67732e-09
-0.00239484
0.00295639
8.31746e-08
-0.00239466
0.00295602
-0.00239402
0.00295264
-1.65705e-07
-0.00235916
0.0018655
3.54706e-09
-0.00235422
0.00185811
-3.54642e-09
-0.00235329
0.00185681
1.65704e-07
-0.00235422
0.00185811
-0.00235916
0.0018655
-4.1241e-08
-0.000162098
-0.00588534
0.00128755
-3.78492e-09
-0.00016201
-0.00588288
0.00128777
3.78568e-09
-0.000161961
-0.005882
0.00128785
4.12414e-08
-0.00016201
-0.00588288
0.00128777
-0.000162098
-0.00588534
0.00128755
-1.24171e-07
-0.00172188
0.00210465
0.00152429
2.76452e-09
-0.00171793
0.00210374
0.00151745
-2.76393e-09
-0.00171719
0.00210345
0.00151633
1.24171e-07
-0.00171793
0.00210374
0.00151745
-0.00172188
0.00210465
0.00152429
-1.05136e-07
-0.00423682
0.00253386
8.44663e-11
-0.00423311
0.00253406
-8.41013e-11
-0.0042321
0.00253395
1.05136e-07
-0.00423311
0.00253406
-0.00423682
0.00253386
-7.19637e-08
-0.00648
0.00203077
-3.8118e-09
-0.00647398
0.00203024
3.81082e-09
-0.00647265
0.00203024
7.19632e-08
-0.00647398
0.00203024
-0.00648
0.00203077
-9.00609e-08
-0.00303448
-0.00360754
-2.22129e-09
-0.00303083
-0.00360525
2.22104e-09
-0.00303002
-0.00360459
9.00608e-08
-0.00303083
-0.00360525
-0.00303448
-0.00360754
-2.68409e-08
-0.00140381
-0.00567209
-5.15169e-09
-0.00140387
-0.00566812
5.14883e-09
-0.00140377
-0.00566714
2.68394e-08
-0.00140387
-0.00566812
-0.00140381
-0.00567209
-4.0188e-08
0.00126377
-0.00627508
-4.46652e-09
0.0012619
-0.00627105
4.46602e-09
0.00126174
-0.0062701
4.01873e-08
0.0012619
-0.00627105
0.00126377
-0.00627508
-6.39153e-08
0.00134987
-0.00597138
-4.86718e-09
0.00134902
-0.00597006
4.86912e-09
0.00134907
-0.00596933
6.39159e-08
0.00134902
-0.00597006
0.00134987
-0.00597138
-8.83661e-08
-0.00398996
0.00247741
-3.02392e-09
-0.00398493
0.0024809
3.02429e-09
-0.00398361
0.00248116
8.83665e-08
-0.00398493
0.0024809
-0.00398996
0.00247741
-6.89982e-08
0.00529062
0.00232005
-0.00626073
-4.25528e-09
0.00528678
0.00232041
-0.00625824
4.25828e-09
0.00528578
0.00232062
-0.00625735
6.89996e-08
0.00528678
0.00232041
-0.00625824
0.00529062
0.00232005
-0.00626073
-9.27258e-08
0.00418836
-2.36868e-09
0.00418414
2.37002e-09
0.00418317
9.27264e-08
0.00418414
0.00418836
-1.12186e-07
3.98611e-10
-3.97773e-10
1.12186e-07
-7.13774e-08
-0.00458585
0.00312983
-4.65232e-09
-0.00458373
0.00313279
4.65112e-09
-0.00458272
0.00313305
7.13761e-08
-0.00458373
0.00313279
-0.00458585
0.00312983
-7.09494e-08
0.00332321
-5.89923e-09
0.00332364
5.8913e-09
0.00332365
7.09468e-08
0.00332364
0.00332321
-5.33905e-08
-0.00616638
0.0030884
-5.19241e-09
-0.00616547
0.00308882
5.19575e-09
-0.00616472
0.00308914
5.33923e-08
-0.00616547
0.00308882
-0.00616638
0.0030884
-5.01245e-08
-0.00222186
0.00296069
-0.00690515
-5.38106e-09
-0.00222209
0.00296083
-0.00690425
5.39402e-09
-0.00222231
0.00296112
-0.00690355
5.01295e-08
-0.00222209
0.00296083
-0.00690425
-0.00222186
0.00296069
-0.00690515
-6.51632e-08
-0.00129578
-0.00718675
-5.44037e-09
-0.00129584
-0.00718455
5.44927e-09
-0.00129597
-0.00718369
6.5167e-08
-0.00129584
-0.00718455
-0.00129578
-0.00718675
-5.31743e-08
-1.40137e-05
-0.00725309
-5.29469e-09
-1.47909e-05
-0.00725115
5.30254e-09
-1.49606e-05
-0.00725035
5.31757e-08
-1.47909e-05
-0.00725115
-1.40137e-05
-0.00725309
-6.63024e-08
0.000982868
-0.00727189
-5.66076e-09
0.000983008
-0.00726891
5.65419e-09
0.000982961
-0.00726804
6.63008e-08
0.000983008
-0.00726891
0.000982868
-0.00727189
-6.90506e-08
0.00226447
-0.00695362
-5.56601e-09
0.00226651
-0.00695168
5.55834e-09
0.00226668
-0.00695087
6.90467e-08
0.00226651
-0.00695168
0.00226447
-0.00695362
-6.36724e-08
0.00365679
-0.00670454
-5.88957e-09
0.00365752
-0.00670164
5.87533e-09
0.00365778
-0.00670079
6.36676e-08
0.00365752
-0.00670164
0.00365679
-0.00670454
-9.40342e-08
-0.00429092
0.00348627
-4.49346e-09
-0.00428594
0.00348946
4.49644e-09
-0.00428454
0.00348983
9.4034e-08
-0.00428594
0.00348946
-0.00429092
0.00348627
-9.38889e-08
-0.00479489
0.0036339
-4.86112e-09
-0.00478949
0.00363626
4.86528e-09
-0.00478811
0.0036366
9.38819e-08
-0.00478949
0.00363626
-0.00479489
0.0036339
-8.86096e-08
0.00411418
-6.14248e-09
0.00411652
6.08858e-09
0.00411681
8.86164e-08
0.00411652
0.00411418
-6.09113e-08
-0.00657822
0.00420842
-7.51825e-09
-0.00657736
0.00420931
7.44695e-09
-0.00657654
0.0042097
6.09196e-08
-0.00657736
0.00420931
-0.00657822
0.00420842
-7.75221e-08
-0.00459419
0.0039381
0.00388394
-4.7608e-09
-0.00459014
0.00393405
0.00388707
4.76162e-09
-0.00458921
0.00393313
0.00388763
7.7521e-08
-0.00459014
0.00393405
0.00388707
-0.00459419
0.0039381
0.00388394
-7.20334e-08
-0.00526903
0.00396354
-5.43022e-09
-0.00526595
0.00396611
5.42624e-09
-0.00526508
0.00396659
7.20338e-08
-0.00526595
0.00396611
-0.00526903
0.00396354
-5.94055e-08
-0.00591234
0.00373177
-5.7347e-09
-0.00591047
0.00373328
5.73635e-09
-0.00590968
0.00373372
5.94074e-08
-0.00591047
0.00373328
-0.00591234
0.00373177
-5.08825e-08
-0.00661013
0.00365853
-5.9607e-09
-0.00660893
0.00365925
5.97048e-09
-0.00660821
0.00365964
5.08906e-08
-0.00660893
0.00365925
-0.00661013
0.00365853
-4.44852e-08
-0.00278553
0.00362219
-0.00744675
-6.30704e-09
-0.00278547
0.00362254
-0.00744604
6.34886e-09
-0.00278571
0.00362288
-0.00744539
4.44912e-08
-0.00278547
0.00362254
-0.00744604
-0.00278553
0.00362219
-0.00744675
-4.51668e-08
-0.00180476
-0.00788588
-5.83616e-09
-0.00180483
-0.00788493
5.89189e-09
-0.00180502
-0.00788424
4.51673e-08
-0.00180483
-0.00788493
-0.00180476
-0.00788588
-5.05896e-08
-0.00100418
-0.00798728
-6.00655e-09
-0.00100421
-0.00798522
6.03025e-09
-0.00100429
-0.00798444
5.05985e-08
-0.00100421
-0.00798522
-0.00100418
-0.00798728
-4.52388e-08
-0.000124593
-0.00813264
-6.25591e-09
-0.000124875
-0.00813053
6.2994e-09
-0.000124898
-0.00812976
4.52314e-08
-0.000124875
-0.00813053
-0.000124593
-0.00813264
-4.94904e-08
0.000783967
-0.0081804
-6.34913e-09
0.000784399
-0.00817823
6.3064e-09
0.000784443
-0.00817739
4.9495e-08
0.000784399
-0.00817823
0.000783967
-0.0081804
-4.56645e-08
0.00196812
-0.00813773
-5.75066e-09
0.00196817
-0.00813549
5.72889e-09
0.00196823
-0.00813467
4.56576e-08
0.00196817
-0.00813549
0.00196812
-0.00813773
-5.45012e-08
0.00301308
-0.00774944
-5.48675e-09
0.00301364
-0.00774716
5.48959e-09
0.00301379
-0.00774636
5.44983e-08
0.00301364
-0.00774716
0.00301308
-0.00774944
-4.85672e-08
0.00391998
-0.00748508
-6.23223e-09
0.00392032
-0.00748409
6.27991e-09
0.00392059
-0.00748335
4.8552e-08
0.00392032
-0.00748409
0.00391998
-0.00748508
-8.10554e-08
0.00403041
-3.95861e-09
0.00403403
3.95902e-09
0.00403458
8.10545e-08
0.00403403
0.00403041
-4.29541e-08
0.00618881
-0.00681042
0.00454163
-7.15544e-09
0.00618837
-0.00681011
0.00454202
6.15272e-09
0.00618762
-0.00680942
0.00454237
4.26982e-08
0.00618837
-0.00681011
0.00454202
0.00618881
-0.00681042
0.00454163
-5.0013e-08
0.00586213
0.00453515
-7.26387e-09
0.00586122
0.00453643
8.38783e-09
0.00586046
0.00453686
5.03094e-08
0.00586122
0.00453643
0.00586213
0.00453515
-5.51246e-08
0.00517005
0.00460866
-8.83275e-09
0.00516828
0.00461034
7.79585e-09
0.00516743
0.00461072
5.4861e-08
0.00516828
0.00461034
0.00517005
0.00460866
-5.3329e-08
0.00503856
0.00424572
-7.63118e-09
0.00503741
0.00424735
8.62871e-09
0.00503655
0.00424767
5.3588e-08
0.00503741
0.00424735
0.00503856
0.00424572
-4.72121e-08
0.00425945
0.00441305
-8.08162e-09
0.0042581
0.00441552
7.65307e-09
0.0042573
0.00441585
4.71165e-08
0.0042581
0.00441552
0.00425945
0.00441305
-3.87167e-08
0.00317173
0.00457403
-8.74871e-09
0.00317131
0.00457623
8.77077e-09
0.00317068
0.00457643
3.87124e-08
0.00317131
0.00457623
0.00317173
0.00457403
-3.57844e-08
-0.0037312
0.00313248
0.00462916
-7.35146e-09
-0.00372935
0.00313165
0.00463171
7.35266e-09
-0.00372881
0.00313127
0.00463211
3.57829e-08
-0.00372935
0.00313165
0.00463171
-0.0037312
0.00313248
0.00462916
-4.23866e-08
-0.00449094
0.00464372
-7.0642e-09
-0.00448922
0.0046469
7.03015e-09
-0.00448862
0.00464742
4.23775e-08
-0.00448922
0.0046469
-0.00449094
0.00464372
-4.91927e-08
-0.00498864
0.0044613
-7.01462e-09
-0.00498711
0.00446396
7.08011e-09
-0.00498648
0.00446444
4.92116e-08
-0.00498711
0.00446396
-0.00498864
0.0044613
-4.79807e-08
-0.00557129
0.00431446
-6.40307e-09
-0.00557022
0.00431635
6.39953e-09
-0.00556958
0.00431681
4.79854e-08
-0.00557022
0.00431635
-0.00557129
0.00431446
-4.37028e-08
-0.00615661
0.0042439
-6.17664e-09
-0.00615601
0.004245
6.35846e-09
-0.00615539
0.00424544
4.37394e-08
-0.00615601
0.004245
-0.00615661
0.0042439
-3.85214e-08
-0.00680017
0.00426579
-6.36841e-09
-0.0067997
0.0042662
5.59381e-09
-0.00679911
0.00426658
3.82969e-08
-0.0067997
0.0042662
-0.00680017
0.00426579
-3.17899e-08
-0.00321667
0.00410614
-0.0076896
-5.77201e-09
-0.00321685
0.00410639
-0.00768927
5.79786e-09
-0.00321715
0.00410674
-0.00768871
3.17994e-08
-0.00321685
0.00410639
-0.00768927
-0.00321667
0.00410614
-0.0076896
-3.57939e-08
-0.00238342
-0.00827997
-5.5503e-09
-0.00238356
-0.00827935
6.25876e-09
-0.00238381
-0.00827874
3.59884e-08
-0.00238356
-0.00827935
-0.00238342
-0.00827997
-3.94365e-08
-0.00152968
-0.00873958
-6.31561e-09
-0.00152995
-0.00873857
5.62902e-09
-0.00153015
-0.00873791
3.92539e-08
-0.00152995
-0.00873857
-0.00152968
-0.00873958
-4.46229e-08
-0.000771814
-0.0087451
-6.29604e-09
-0.000772002
-0.00874321
6.50071e-09
-0.000772112
-0.00874249
4.46484e-08
-0.000772002
-0.00874321
-0.000771814
-0.0087451
-4.29555e-08
2.4974e-07
-0.00890466
-7.00568e-09
1.57523e-07
-0.00890272
6.16005e-09
1.02803e-07
-0.00890199
4.27436e-08
1.57139e-07
-0.00890272
2.49527e-07
-0.00890466
-4.14676e-08
0.000883393
-0.00906351
-5.88742e-09
0.000883414
-0.00906152
6.67125e-09
0.000883435
-0.00906074
4.1662e-08
0.000883414
-0.00906152
0.000883393
-0.00906351
-4.34669e-08
0.00159968
-0.00885398
-6.17696e-09
0.00159957
-0.00885168
6.08519e-09
0.00159968
-0.00885093
4.34741e-08
0.00159957
-0.00885168
0.00159968
-0.00885398
-4.65311e-08
0.00245846
-0.00860818
-5.48883e-09
0.00245888
-0.00860651
5.49882e-09
0.00245908
-0.00860577
4.65247e-08
0.00245888
-0.00860651
0.00245847
-0.00860818
-4.20411e-08
0.00329845
-0.00832503
-5.84204e-09
0.00329882
-0.00832406
5.83468e-09
0.00329911
-0.00832338
4.20467e-08
0.00329882
-0.00832406
0.00329845
-0.00832503
-2.36386e-08
0.00233705
0.0046752
-1.42377e-08
0.00233874
0.00467653
1.42386e-08
0.00233856
0.00467649
2.36377e-08
0.00233874
0.00467653
0.00233705
0.0046752
-3.60934e-08
-0.00778731
0.00427537
-5.37326e-09
-0.00778707
0.00427576
6.31977e-09
-0.00778644
0.00427611
3.63535e-08
-0.00778707
0.00427576
-0.00778731
0.00427537
-4.21677e-07
0.000821394
0.00890881
-0.0271207
3.44848e-08
0.000814907
0.00891181
-0.0270855
-3.44821e-08
0.000814256
0.00891259
-0.0270833
4.21679e-07
0.000814907
0.00891181
-0.0270855
0.000821394
0.00890881
-0.0271207
-5.46341e-07
0.0109324
-0.0264636
3.40498e-08
0.0109182
-0.0264326
-3.40482e-08
0.0109167
-0.0264296
5.46341e-07
0.0109182
-0.0264326
0.0109324
-0.0264636
-1.01709e-06
-0.0278433
0.0128359
5.39308e-08
-0.0278106
0.0128771
-5.39226e-08
-0.0278082
0.012882
1.0171e-06
-0.0278106
0.0128771
-0.0278433
0.0128359
-9.38066e-07
-0.0256099
0.0111064
1.01076e-07
-0.0255696
0.0110907
-1.01075e-07
-0.0255671
0.011089
9.38068e-07
-0.0255696
0.0110907
-0.0256099
0.0111064
-7.79828e-07
0.0017205
0.00613409
5.0269e-08
0.00172201
0.00614489
-5.02661e-08
0.00172169
0.00614642
7.79829e-07
0.00172201
0.00614489
0.0017205
0.00613409
-5.44058e-07
0.00479212
2.40484e-08
0.00479684
-2.40444e-08
0.00479747
5.44059e-07
0.00479684
0.00479212
-3.88645e-07
-0.0020115
-0.0203167
1.99756e-08
-0.00199646
-0.0202926
-1.99731e-08
-0.00199494
-0.0202909
3.88645e-07
-0.00199646
-0.0202926
-0.0020115
-0.0203167
-4.47319e-07
-0.0235442
-0.00631008
1.59122e-08
-0.0235307
-0.00627678
-1.59077e-08
-0.0235295
-0.00627363
4.47321e-07
-0.0235307
-0.00627678
-0.0235442
-0.00631008
-4.66579e-07
-0.020978
1.59664e-08
-0.0209557
-1.59615e-08
-0.0209525
4.66582e-07
-0.0209557
-0.020978
-1.69681e-06
-0.0273938
0.0207942
0.0177076
1.45085e-07
-0.0273382
0.0206965
0.0177305
-1.45084e-07
-0.027333
0.02069
0.0177324
1.69681e-06
-0.0273382
0.0206965
0.0177305
-0.0273938
0.0207942
0.0177076
-1.04344e-06
-0.0351699
0.0139113
5.34524e-08
-0.0351299
0.0139355
-5.34496e-08
-0.0351259
0.0139394
1.04344e-06
-0.0351299
0.0139355
-0.0351699
0.0139113
-9.18085e-07
-0.0414456
0.00845354
1.05876e-08
-0.0414125
0.00846191
-1.05809e-08
-0.0414089
0.00846366
9.1809e-07
-0.0414125
0.00846191
-0.0414456
0.00845354
-2.50867e-06
0.0156661
0.0263051
4.93998e-07
0.0157759
0.0260465
-4.93998e-07
0.0157855
0.0260345
2.50867e-06
0.0157759
0.0260465
0.0156661
0.0263051
-4.56864e-07
0.0310397
-0.035209
0.0170056
5.69579e-08
0.0310422
-0.035212
0.0170464
-5.69374e-08
0.0310424
-0.0352127
0.0170525
4.56878e-07
0.0310422
-0.035212
0.0170464
0.0310397
-0.035209
0.0170056
-3.8767e-07
0.0300928
0.0235777
1.64899e-07
0.0300758
0.0236176
-1.64852e-07
0.0300756
0.0236217
3.87713e-07
0.0300758
0.0236176
0.0300928
0.0235777
6.3715e-07
0.00858362
3.30183e-07
0.00854467
-3.30157e-07
0.00854073
-6.37122e-07
0.00854467
0.00858362
-2.68566e-07
-0.00209484
-0.039424
1.63925e-08
-0.00207664
-0.0394124
-1.63838e-08
-0.00207438
-0.0394119
2.68571e-07
-0.00207664
-0.0394124
-0.00209484
-0.039424
-2.04516e-07
0.0419647
0.010723
-5.87919e-10
0.041968
0.0107229
5.95689e-10
0.041968
0.0107252
2.04523e-07
0.041968
0.0107229
0.0419647
0.010723
-6.27906e-07
0.0400794
0.0188916
2.79407e-08
0.0400853
0.0189284
-2.78956e-08
0.0400853
0.0189352
6.27939e-07
0.0400853
0.0189284
0.0400794
0.0188916
-6.27813e-07
0.0161556
9.53848e-08
0.0161738
-9.52053e-08
0.0161767
6.27926e-07
0.0161738
0.0161556
-6.93585e-07
-0.0496666
1.43696e-08
-0.0496576
-1.4359e-08
-0.0496563
6.93592e-07
-0.0496576
-0.0496666
-7.90569e-07
-1.56589e-08
1.56983e-08
7.90587e-07
-7.15629e-07
0.00760659
-0.0451213
-1.52791e-08
0.00761728
-0.0450957
1.52957e-08
0.00761967
-0.0450928
7.1564e-07
0.00761728
-0.0450957
0.00760659
-0.0451213
-1.5898e-08
0.0017867
0.00474915
-1.78352e-08
0.00178895
0.00474972
1.78383e-08
0.00178863
0.00474932
1.58993e-08
0.00178895
0.00474972
0.0017867
0.00474915
-6.6609e-07
-0.0365806
0.038514
0.0157749
9.53355e-08
-0.0365777
0.0384975
0.0158099
-9.53352e-08
-0.0365768
0.0384951
0.0158142
6.66092e-07
-0.0365777
0.0384975
0.0158099
-0.0365806
0.038514
0.0157749
-3.79779e-07
-0.0381335
0.0154645
5.0117e-08
-0.038124
0.0154814
-5.01152e-08
-0.0381221
0.0154849
3.79781e-07
-0.038124
0.0154814
-0.0381335
0.0154645
-6.3251e-07
-0.041646
0.0119667
1.90841e-08
-0.0416385
0.0119757
-1.90791e-08
-0.0416369
0.0119785
6.32512e-07
-0.0416385
0.0119757
-0.041646
0.0119667
-5.13651e-07
-0.0456843
0.0116454
-8.53609e-09
-0.0456713
0.0116495
8.54276e-09
-0.045669
0.0116517
5.13656e-07
-0.0456713
0.0116495
-0.0456843
0.0116454
-2.14371e-07
0.037894
0.0162863
1.54629e-07
0.0379371
0.0163359
-1.54631e-07
0.0379402
0.0163407
2.14372e-07
0.0379371
0.0163359
0.037894
0.0162863
1.28742e-09
0.00434277
0.00102095
-2.25922e-08
0.0043377
0.00102548
2.25931e-08
0.00433604
0.00102557
-1.28744e-09
0.0043377
0.00102548
0.00434277
0.00102095
-6.75401e-07
0.00282047
-0.0479462
-3.58185e-08
0.00281893
-0.0479304
3.58574e-08
0.00281911
-0.0479282
6.75432e-07
0.00281893
-0.0479304
0.00282047
-0.0479462
-6.91966e-07
0.00664047
-0.0489406
-3.69895e-08
0.0066451
-0.0489225
3.70566e-08
0.00664649
-0.0489203
6.91989e-07
0.0066451
-0.0489225
0.00664047
-0.0489406
-6.44774e-07
0.00995123
-0.0489944
-3.54926e-08
0.009961
-0.0489878
3.54693e-08
0.00996338
-0.0489859
6.44786e-07
0.009961
-0.0489878
0.00995123
-0.0489944
-1.51419e-09
0.00454405
0.00083154
-3.10675e-08
0.00453763
0.000838677
3.10668e-08
0.00453559
0.000838684
1.51516e-09
0.00453763
0.000838677
0.00454405
0.00083154
-4.48062e-08
-0.00369159
0.00373708
0.00462975
-1.58406e-08
-0.00369134
0.00373721
0.00463064
1.58429e-08
-0.00369103
0.00373694
0.00463055
4.4805e-08
-0.00369134
0.00373721
0.00463064
-0.00369159
0.00373708
0.00462975
-4.46928e-08
-0.00401202
0.00494964
-1.04996e-08
-0.00401148
0.00495181
1.04972e-08
-0.00401102
0.00495208
4.46907e-08
-0.00401148
0.00495181
-0.00401202
0.00494964
-4.14542e-08
-0.00424854
0.00488028
-9.42654e-09
-0.00424745
0.00488285
9.42299e-09
-0.00424689
0.00488326
4.14502e-08
-0.00424745
0.00488285
-0.00424854
0.00488028
-4.26809e-08
-0.00464197
0.00485477
-7.88071e-09
-0.00464094
0.00485741
7.87121e-09
-0.00464035
0.00485788
4.26789e-08
-0.00464094
0.00485741
-0.00464197
0.00485477
-4.01507e-08
-0.00509565
0.00476817
-6.8217e-09
-0.00509504
0.00477041
6.8207e-09
-0.00509445
0.0047709
4.0152e-08
-0.00509504
0.00477041
-0.00509565
0.00476817
-3.74779e-08
-0.00559918
0.00474747
-6.30556e-09
-0.00559858
0.00474851
6.33417e-09
-0.00559799
0.00474896
3.74934e-08
-0.00559858
0.00474851
-0.00559918
0.00474747
-3.22564e-08
-0.00605232
0.00471897
-5.80792e-09
-0.00605198
0.00471957
5.9371e-09
-0.00605143
0.00472002
3.22736e-08
-0.00605198
0.00471957
-0.00605232
0.00471897
-2.61695e-08
-0.00650897
0.00456281
-5.76264e-09
-0.00650869
0.00456308
5.77415e-09
-0.00650818
0.00456348
2.61761e-08
-0.00650869
0.00456308
-0.00650897
0.00456281
-2.01573e-08
-0.00348518
0.00425546
-0.00727923
-6.9937e-09
-0.00348541
0.00425585
-0.00727914
6.99723e-09
-0.00348574
0.00425623
-0.00727869
2.01592e-08
-0.00348541
0.00425585
-0.00727914
-0.00348518
0.00425546
-0.00727923
-2.43984e-08
-0.0027015
-0.00847326
-5.62068e-09
-0.00270173
-0.00847297
5.61787e-09
-0.002702
-0.00847246
2.43991e-08
-0.00270173
-0.00847297
-0.0027015
-0.00847326
-2.85449e-08
-0.00187928
-0.00910217
-5.60486e-09
-0.00187949
-0.00910161
5.55295e-09
-0.00187971
-0.00910105
2.85485e-08
-0.00187949
-0.00910161
-0.00187928
-0.00910217
-3.19704e-08
-0.00122964
-0.00938919
-5.63231e-09
-0.00122993
-0.00938815
5.69431e-09
-0.00123009
-0.00938754
3.19764e-08
-0.00122993
-0.00938815
-0.00122964
-0.00938919
-3.6216e-08
-0.000507607
-0.00946709
-5.8578e-09
-0.00050789
-0.00946528
6.03702e-09
-0.000507988
-0.0094646
3.62732e-08
-0.00050789
-0.00946528
-0.000507608
-0.00946709
-3.45436e-08
0.000118438
-0.00953067
-6.01582e-09
0.000118223
-0.00952886
6.07912e-09
0.000118175
-0.00952817
3.45438e-08
0.000118223
-0.00952886
0.000118438
-0.00953067
-3.38704e-08
0.000668403
-0.00961344
-6.15266e-09
0.00066828
-0.00961161
5.9485e-09
0.000668309
-0.00961088
3.38455e-08
0.000668279
-0.00961161
0.000668403
-0.00961344
-3.84208e-08
0.00128821
-0.00947374
-5.5154e-09
0.00128822
-0.00947165
6.15167e-09
0.00128831
-0.00947095
3.8598e-08
0.00128822
-0.00947165
0.00128821
-0.00947374
-3.85324e-08
0.00204215
-0.00936208
-5.79856e-09
0.00204227
-0.00936059
5.48097e-09
0.00204244
-0.00935991
3.84335e-08
0.00204227
-0.00936059
0.00204215
-0.00936208
-3.5693e-08
0.00287301
-0.00915585
-5.84678e-09
0.00287317
-0.009155
5.18369e-09
0.00287341
-0.00915436
3.54848e-08
0.00287317
-0.009155
0.00287301
-0.00915585
-3.02727e-08
0.00365414
-0.00856841
-5.31305e-09
0.00365421
-0.00856815
5.32363e-09
0.00365452
-0.00856757
3.02771e-08
0.00365421
-0.00856815
0.00365414
-0.00856841
-2.71949e-08
0.00651642
0.00479289
-0.00765514
-5.19238e-09
0.00651627
0.00479303
-0.00765511
5.18306e-09
0.00651569
0.00479339
-0.00765457
2.71912e-08
0.00651627
0.00479303
-0.00765511
0.00651642
0.00479289
-0.00765514
-2.88414e-08
0.00590554
0.00488628
-5.44654e-09
0.00590543
0.00488658
5.32815e-09
0.00590482
0.00488697
2.88355e-08
0.00590543
0.00488658
0.00590554
0.00488628
-3.5217e-08
0.00555399
0.00489322
-6.15123e-09
0.00555402
0.0048934
6.2556e-09
0.00555335
0.00489383
3.52175e-08
0.00555402
0.0048934
0.00555399
0.00489322
-3.45362e-08
0.00558378
0.0045054
-7.52271e-09
0.00558317
0.00450725
7.44057e-09
0.00558243
0.00450777
3.45418e-08
0.00558317
0.00450725
0.00558378
0.0045054
-4.80095e-08
0.0050269
0.00516559
-9.11829e-09
0.00502594
0.00516753
9.17439e-09
0.0050251
0.00516803
4.79982e-08
0.00502594
0.00516753
0.0050269
0.00516559
-4.75503e-08
0.00464135
0.00463132
-8.89511e-09
0.00464008
0.00463317
8.81432e-09
0.0046392
0.00463355
4.75478e-08
0.00464008
0.00463317
0.00464135
0.00463132
-5.38116e-08
0.00423522
0.00481923
-9.98495e-09
0.00423431
0.00482125
1.00106e-08
0.00423348
0.00482154
5.38114e-08
0.00423431
0.00482125
0.00423522
0.00481923
-5.78221e-08
0.00375944
0.00504987