x,y,z,U_0,U_1,U_2
0,0,0,0.3,-0.000235303,0
0,0.1,0,0.3,-0.000168074,0
0,0.2,0,0.3,-0.000100844,0
0,0.3,0,0.3,-3.36147e-05,0
0,0.4,0,0.3,0,0
0,0.5,0,0.3,0,0
0,0.6,0,0.3,0,0
0,0.7,0,0.3,-1.05792e-19,0
0,0.8,0,0.3,0,0
0,0.9,0,0.3,0,0
0,1,0,0.3,0,0
0,1.1,0,0.3,0,0
0,1.2,0,0.3,0,0
0,1.3,0,0.3,0,0
0,1.4,0,0.3,-1.03778e-19,0
0,1.5,0,0.3,0,0
0,1.6,0,0.3,0,0
0,1.7,0,0.3,0,0
0,1.8,0,0.3,0,0
0,1.9,0,0.3,0,0
0,2,0,0.3,0,0
0,2.1,0,0.3,0,0
0,2.2,0,0.3,0,0
0,2.3,0,0.3,0,0
0,2.4,0,0.3,0,0
0,2.5,0,0.3,0,0
0,2.6,0,0.3,0,0
0,2.7,0,0.3,0,0
0,2.8,0,0.3,-9.43414e-20,0
0,2.9,0,0.3,0,0
0,3,0,0.3,0,0
0,3.1,0,0.3,0,0
0,3.2,0,0.3,0,0
0,3.3,0,0.3,0,0
0,3.4,0,0.3,0,0
0,3.5,0,0.3,0,0
0,3.6,0,0.3,0,0
0,3.7,0,0.3,0,0
0,3.8,0,0.3,0,0
0,3.9,0,0.3,0,0
0,4,0,0.3,0,0
0,4.1,0,0.3,0,0
0,4.2,0,0.3,0,0
0,4.3,0,0.3,0,0
0,4.4,0,0.3,0,0
0,4.5,0,0.3,0,0
0,4.6,0,0.3,0,0
0,4.7,0,0.3,0,0
0,4.8,0,0.3,0,0
0,4.9,0,0.3,0,0
0,5,0,0.3,0,0
0,5.1,0,0.3,0,0
0,5.2,0,0.3,0,0
0,5.3,0,0.3,0,0
0,5.4,0,0.3,0,0
0,5.5,0,0.3,0,0
0,5.6,0,0.3,0,0
0,5.7,0,0.3,0,0
0,5.8,0,0.3,0,0
0,5.9,0,0.3,0,0
0,6,0,0.3,0,0
0,6.1,0,0.3,0,0
0,6.2,0,0.3,0,0
0,6.3,0,0.3,0,0
0,6.4,0,0.3,0,0
0,6.5,0,0.3,0,0
0,6.6,0,0.3,0,0
0,6.7,0,0.3,0,0
0,6.8,0,0.3,0,0
0,6.9,0,0.3,0,0
0,7,0,0.3,0,0
0,7.1,0,0.3,0,0
0,7.2,0,0.3,0,0
0,7.3,0,0.3,0,0
0,7.4,0,0.3,0,0
0,7.5,0,0.3,0,0
0,7.6,0,0.3,2.75915e-20,0
0,7.7,0,0.3,0,0
0,7.8,0,0.3,0,0
0,7.9,0,0.3,3.80757e-20,0
0,8,0,0.3,0,0
0,8.1,0,0.3,0,0
0,8.2,0,0.3,0,0
0,8.3,0,0.3,0,0
0,8.4,0,0.3,0,0
0,8.5,0,0.3,0,0
0,8.6,0,0.3,0,0
0,8.7,0,0.3,0,0
0,8.8,0,0.3,0,0
0,8.9,0,0.3,0,0
0,9,0,0.3,0,0
0,9.1,0,0.3,0,0
0,9.2,0,0.3,0,0
0,9.3,0,0.3,0,0
0,9.4,0,0.3,0,0
0,9.5,0,0.3,0,0
0,9.6,0,0.3,0,0
0,9.7,0,0.3,0,0
0,9.8,0,0.3,0,0
0,9.9,0,0.3,0,0
0,10,0,0.3,0,0
0,10.1,0,0.3,0,0
0,10.2,0,0.3,0,0
0,10.3,0,0.3,0,0
0,10.4,0,0.3,0,0
0,10.5,0,0.3,0,0
0,10.6,0,0.3,0,0
0,10.7,0,0.3,0,0
0,10.8,0,0.3,0,0
0,10.9,0,0.3,0,0
0,11,0,0.3,0,0
0,11.1,0,0.3,0,0
0,11.2,0,0.3,0,0
0,11.3,0,0.3,0,0
0,11.4,0,0.3,0,0
0,11.5,0,0.3,0,0
0,11.6,0,0.3,0,0
0,11.7,0,0.3,0,0
0,11.8,0,0.3,0,0
0,11.9,0,0.3,0,0
0,12,0,0.3,0,0
0,12.1,0,0.3,0,0
0,12.2,0,0.3,0,0
0,12.3,0,0.3,0,0
0,12.4,0,0.3,0,0
0,12.5,0,0.3,4.415e-05,0
0,12.6,0,0.3,0.000170293,0
0,12.7,0,0.3,0.000296436,0
0.1,0,0,0.3,-0.000396047,0
0.1,0.1,0,0.3,-0.000328605,0
0.1,0.2,0,0.3,-0.000261376,0
0.1,0.3,0,0.3,-0.000212783,0
0.1,0.4,0,0.3,-0.00021237,0
0.1,0.5,0,0.3,-0.000212178,0
0.1,0.6,0,0.3,-0.000212178,0
0.1,0.7,0,0.299999,-0.000211753,0
0.1,0.8,0,0.3,-0.000210861,0
0.1,0.9,0,0.3,-0.000210861,0
0.1,1,0,0.3,-0.000210592,0
0.1,1.1,0,0.3,-0.000209278,0
0.1,1.2,0,0.3,-0.000208817,0
0.1,1.3,0,0.3,-0.000208817,0
0.1,1.4,0,0.299998,-0.000207722,0
0.1,1.5,0,0.3,-0.000205972,0
0.1,1.6,0,0.3,-0.000205972,0
0.1,1.7,0,0.299999,-0.000205451,0
0.1,1.8,0,0.299999,-0.000203037,0
0.1,1.9,0,0.3,-0.000202217,0
0.1,2,0,0.3,-0.000202217,0
0.1,2.1,0,0.299997,-0.000200376,0
0.1,2.2,0,0.3,-0.000197419,0
0.1,2.3,0,0.3,-0.000197419,0
0.1,2.4,0,0.299998,-0.000196624,0
0.1,2.5,0,0.299998,-0.000192768,0
0.1,2.6,0,0.3,-0.000191421,0
0.1,2.7,0,0.3,-0.000191421,0
0.1,2.8,0,0.299995,-0.000188834,0
0.1,2.9,0,0.299999,-0.000184052,0
0.1,3,0,0.299999,-0.000184052,0
0.1,3.1,0,0.299997,-0.000183023,0
0.1,3.2,0,0.299997,-0.000177294,0
0.1,3.3,0,0.299999,-0.00017514,0
0.1,3.4,0,0.299999,-0.00017514,0
0.1,3.5,0,0.299993,-0.000172077,0
0.1,3.6,0,0.299999,-0.000164535,0
0.1,3.7,0,0.299999,-0.000164535,0
0.1,3.8,0,0.299996,-0.000163428,0
0.1,3.9,0,0.299996,-0.000155465,0
0.1,4,0,0.299999,-0.000152147,0
0.1,4.1,0,0.299999,-0.000152147,0
0.1,4.2,0,0.299991,-0.000149148,0
0.1,4.3,0,0.299998,-0.000137993,0
0.1,4.4,0,0.299998,-0.000137993,0
0.1,4.5,0,0.299995,-0.000136966,0
0.1,4.6,0,0.299995,-0.00012684,0
0.1,4.7,0,0.299998,-0.00012224,0
0.1,4.8,0,0.299998,-0.00012224,0
0.1,4.9,0,0.299988,-0.000119266,0
0.1,5,0,0.299999,-0.000105213,0
0.1,5.1,0,0.299999,-0.000105213,0
0.1,5.2,0,0.299995,-0.000103895,0
0.1,5.3,0,0.299996,-9.2392e-05,0
0.1,5.4,0,0.300001,-8.73187e-05,0
0.1,5.5,0,0.300001,-8.73187e-05,0
0.1,5.6,0,0.299986,-8.18544e-05,0
0.1,5.7,0,0.300006,-6.88951e-05,0
0.1,5.8,0,0.300006,-6.88951e-05,0
0.1,5.9,0,0.299998,-6.58279e-05,0
0.1,6,0,0.300003,-5.36945e-05,0
0.1,6.1,0,0.300012,-5.00209e-05,0
0.1,6.2,0,0.300012,-5.00209e-05,0
0.1,6.3,0,0.299983,-3.70238e-05,0
0.1,6.4,0,0.30002,-3.03389e-05,0
0.1,6.5,0,0.30002,-3.03389e-05,0
0.1,6.6,0,0.300006,-2.3846e-05,0
0.1,6.7,0,0.300012,-1.10945e-05,0
0.1,6.8,0,0.300029,-1.05032e-05,0
0.1,6.9,0,0.300029,-1.05032e-05,0
0.1,7,0,0.29998,8.85454e-06,0
0.1,7.1,0,0.299979,2.0203e-05,0
0.1,7.2,0,0.299979,2.71913e-05,0
0.1,7.3,0,0.299979,3.41763e-05,0
0.1,7.4,0,0.299979,4.11841e-05,0
0.1,7.5,0,0.299979,4.82052e-05,0
0.1,7.6,0,0.299979,5.52271e-05,0
0.1,7.7,0,0.299979,6.22378e-05,0
0.1,7.8,0,0.299979,6.92279e-05,0
0.1,7.9,0,0.299979,7.62123e-05,0
0.1,8,0,0.29998,8.55781e-05,0
0.1,8.1,0,0.300032,9.9352e-05,0
0.1,8.2,0,0.300015,9.95804e-05,0
0.1,8.3,0,0.300027,0.00011492,0
0.1,8.4,0,0.300027,0.00011492,0
0.1,8.5,0,0.300005,0.000124203,0
0.1,8.6,0,0.300021,0.000129663,0
0.1,8.7,0,0.299987,0.000132809,0
0.1,8.8,0,0.300015,0.000143604,0
0.1,8.9,0,0.300008,0.000144826,0
0.1,9,0,0.300009,0.000156694,0
0.1,9.1,0,0.300009,0.000156694,0
0.1,9.2,0,0.299995,0.000166326,0
0.1,9.3,0,0.300005,0.000169074,0
0.1,9.4,0,0.29999,0.000176275,0
0.1,9.5,0,0.300001,0.000180892,0
0.1,9.6,0,0.299999,0.000182328,0
0.1,9.7,0,0.299999,0.000192253,0
0.1,9.8,0,0.299999,0.000192253,0
0.1,9.9,0,0.299992,0.000203455,0
0.1,10,0,0.299997,0.00020319,0
0.1,10.1,0,0.299992,0.000211596,0
0.1,10.2,0,0.299997,0.000213666,0
0.1,10.3,0,0.299997,0.000214163,0
0.1,10.4,0,0.299997,0.000223666,0
0.1,10.5,0,0.299997,0.000223592,0
0.1,10.6,0,0.299993,0.000234181,0
0.1,10.7,0,0.299997,0.000232848,0
0.1,10.8,0,0.299994,0.000239166,0
0.1,10.9,0,0.299997,0.000241316,0
0.1,11,0,0.299997,0.000241316,0
0.1,11.1,0,0.299997,0.00024911,0
0.1,11.2,0,0.299998,0.000248892,0
0.1,11.3,0,0.299995,0.000256598,0
0.1,11.4,0,0.299998,0.000255495,0
0.1,11.5,0,0.299996,0.000259028,0
0.1,11.6,0,0.299999,0.000261064,0
0.1,11.7,0,0.299999,0.000261064,0
0.1,11.8,0,0.299998,0.000265833,0
0.1,11.9,0,0.299999,0.000265565,0
0.1,12,0,0.299997,0.00027006,0
0.1,12.1,0,0.299999,0.000268969,0
0.1,12.2,0,0.299999,0.000270542,0
0.1,12.3,0,0.3,0.000271247,0
0.1,12.4,0,0.3,0.000271247,0
0.1,12.5,0,0.3,0.000272979,0
0.1,12.6,0,0.3,0.00037681,0
0.1,12.7,0,0.299999,0.000505241,0
0.2,0,0,0.3,-0.00055679,0
0.2,0.1,0,0.3,-0.000489288,0
0.2,0.2,0,0.3,-0.000425634,0
0.2,0.3,0,0.299999,-0.000425499,0
0.2,0.4,0,0.299999,-0.000425086,0
0.2,0.5,0,0.3,-0.000424395,0
0.2,0.6,0,0.299999,-0.000424053,0
0.2,0.7,0,0.299998,-0.000423505,0
0.2,0.8,0,0.299999,-0.000422359,0
0.2,0.9,0,0.3,-0.000421669,0
0.2,1,0,0.299998,-0.000420701,0
0.2,1.1,0,0.299998,-0.000419387,0
0.2,1.2,0,0.3,-0.000417727,0
0.2,1.3,0,0.299999,-0.000416852,0
0.2,1.4,0,0.299996,-0.000415444,0
0.2,1.5,0,0.299998,-0.000413194,0
0.2,1.6,0,0.299999,-0.00041184,0
0.2,1.7,0,0.299996,-0.000409963,0
0.2,1.8,0,0.299996,-0.00040755,0
0.2,1.9,0,0.299999,-0.000404599,0
0.2,2,0,0.299997,-0.000403119,0
0.2,2.1,0,0.299994,-0.000400751,0
0.2,2.2,0,0.299997,-0.00039695,0
0.2,2.3,0,0.299999,-0.000394679,0
0.2,2.4,0,0.299995,-0.000391816,0
0.2,2.5,0,0.299995,-0.00038796,0
0.2,2.6,0,0.299999,-0.000383112,0
0.2,2.7,0,0.299996,-0.000380994,0
0.2,2.8,0,0.299991,-0.000377667,0
0.2,2.9,0,0.299995,-0.00037152,0
0.2,3,0,0.299998,-0.000367899,0
0.2,3.1,0,0.299992,-0.000364193,0
0.2,3.2,0,0.299992,-0.000358464,0
0.2,3.3,0,0.299998,-0.000350711,0
0.2,3.4,0,0.299994,-0.000348092,0
0.2,3.5,0,0.299986,-0.000344153,0
0.2,3.6,0,0.299993,-0.000334456,0
0.2,3.7,0,0.299997,-0.000328848,0
0.2,3.8,0,0.299988,-0.000324865,0
0.2,3.9,0,0.299988,-0.000316901,0
0.2,4,0,0.299997,-0.000304957,0
0.2,4.1,0,0.299992,-0.000302151,0
0.2,4.2,0,0.299982,-0.000298295,0
0.2,4.3,0,0.299991,-0.000283954,0
0.2,4.4,0,0.299996,-0.00027578,0
0.2,4.5,0,0.299985,-0.000272084,0
0.2,4.6,0,0.299985,-0.000261958,0
0.2,4.7,0,0.299996,-0.000245401,0
0.2,4.8,0,0.299989,-0.000242357,0
0.2,4.9,0,0.299977,-0.000238533,0
0.2,5,0,0.299991,-0.000220464,0
0.2,5.1,0,0.299997,-0.000210162,0
0.2,5.2,0,0.299982,-0.000205419,0
0.2,5.3,0,0.299984,-0.000193916,0
0.2,5.4,0,0.300002,-0.000175652,0
0.2,5.5,0,0.299992,-0.000170734,0
0.2,5.6,0,0.299972,-0.000163709,0
0.2,5.7,0,0.299998,-0.000147047,0
0.2,5.8,0,0.30001,-0.000137177,0
0.2,5.9,0,0.299983,-0.000126135,0
0.2,6,0,0.299987,-0.000114002,0
0.2,6.1,0,0.300023,-0.000100777,0
0.2,6.2,0,0.300004,-9.07581e-05,0
0.2,6.3,0,0.299966,-7.40476e-05,0
0.2,6.4,0,0.300014,-6.54527e-05,0
0.2,6.5,0,0.300038,-5.93792e-05,0
0.2,6.6,0,0.299988,-3.60048e-05,0
0.2,6.7,0,0.299993,-2.32533e-05,0
0.2,6.8,0,0.300054,-2.11247e-05,0
0.2,6.9,0,0.300023,-7.1795e-06,0
0.2,7,0,0.29996,1.77091e-05,0
0.2,7.1,0,0.299959,4.0406e-05,0
0.2,7.2,0,0.299958,5.43827e-05,0
0.2,7.3,0,0.299957,6.83525e-05,0
0.2,7.4,0,0.299957,8.23682e-05,0
0.2,7.5,0,0.299957,9.64105e-05,0
0.2,7.6,0,0.299957,0.000110454,0
0.2,7.7,0,0.299957,0.000124476,0
0.2,7.8,0,0.299958,0.000138456,0
0.2,7.9,0,0.299958,0.000152425,0
0.2,8,0,0.299959,0.000171156,0
0.2,8.1,0,0.30006,0.000197532,0
0.2,8.2,0,0.299996,0.000199625,0
0.2,8.3,0,0.300019,0.000218604,0
0.2,8.4,0,0.300024,0.000231101,0
0.2,8.5,0,0.299986,0.000241036,0
0.2,8.6,0,0.300043,0.000259325,0
0.2,8.7,0,0.29997,0.000265951,0
0.2,8.8,0,0.300024,0.000285315,0
0.2,8.9,0,0.299992,0.000293652,0
0.2,9,0,0.299997,0.000306692,0
0.2,9.1,0,0.300005,0.000317397,0
0.2,9.2,0,0.299981,0.00033013,0
0.2,9.3,0,0.30001,0.000338148,0
0.2,9.4,0,0.299977,0.000354256,0
0.2,9.5,0,0.299999,0.00036098,0
0.2,9.6,0,0.299987,0.000373601,0
0.2,9.7,0,0.299987,0.000383578,0
0.2,9.8,0,0.299993,0.000389826,0
0.2,9.9,0,0.29998,0.000407075,0
0.2,10,0,0.299995,0.00040638,0
0.2,10.1,0,0.299981,0.000426581,0
0.2,10.2,0,0.299991,0.000427823,0
0.2,10.3,0,0.299987,0.000439515,0
0.2,10.4,0,0.299987,0.000449018,0
0.2,10.5,0,0.299992,0.000451326,0
0.2,10.6,0,0.299984,0.000468899,0
0.2,10.7,0,0.299995,0.000465695,0
0.2,10.8,0,0.299986,0.000482255,0
0.2,10.9,0,0.299992,0.000483462,0
0.2,11,0,0.29999,0.000491296,0
0.2,11.1,0,0.29999,0.000499577,0
0.2,11.2,0,0.299994,0.000499989,0
0.2,11.3,0,0.299989,0.000513458,0
0.2,11.4,0,0.299996,0.000510989,0
0.2,11.5,0,0.299991,0.000521301,0
0.2,11.6,0,0.299995,0.00052281,0
0.2,11.7,0,0.299995,0.000526934,0
0.2,11.8,0,0.299994,0.000532543,0
0.2,11.9,0,0.299998,0.000531964,0
0.2,12,0,0.299994,0.000540236,0
0.2,12.1,0,0.299998,0.000537939,0
0.2,12.2,0,0.299996,0.000543206,0
0.2,12.3,0,0.299998,0.000543428,0
0.2,12.4,0,0.299999,0.000544703,0
0.2,12.5,0,0.299999,0.00054715,0
0.2,12.6,0,0.3,0.000583522,0
0.2,12.7,0,0.299999,0.000714047,0
0.3,0,0,0.299999,-0.000717533,0
0.3,0.1,0,0.3,-0.000650031,0
0.3,0.2,0,0.299999,-0.000638441,0
0.3,0.3,0,0.299999,-0.000638214,0
0.3,0.4,0,0.299999,-0.000637801,0
0.3,0.5,0,0.299999,-0.000636928,0
0.3,0.6,0,0.299999,-0.000635805,0
0.3,0.7,0,0.299997,-0.000635258,0
0.3,0.8,0,0.299999,-0.000634112,0
0.3,0.9,0,0.299998,-0.000632159,0
0.3,1,0,0.299997,-0.000630809,0
0.3,1.1,0,0.299997,-0.000629495,0
0.3,1.2,0,0.299998,-0.000627366,0
0.3,1.3,0,0.299997,-0.000624574,0
0.3,1.4,0,0.299994,-0.000623166,0
0.3,1.5,0,0.299996,-0.000620916,0
0.3,1.6,0,0.299996,-0.000617102,0
0.3,1.7,0,0.299994,-0.000614476,0
0.3,1.8,0,0.299994,-0.000612062,0
0.3,1.9,0,0.299995,-0.000608322,0
0.3,2,0,0.299994,-0.000603495,0
0.3,2.1,0,0.299991,-0.000601127,0
0.3,2.2,0,0.299994,-0.000597326,0
0.3,2.3,0,0.299994,-0.000591139,0
0.3,2.4,0,0.299991,-0.000587008,0
0.3,2.5,0,0.299991,-0.000583153,0
0.3,2.6,0,0.299993,-0.000577195,0
0.3,2.7,0,0.299991,-0.000569828,0
0.3,2.8,0,0.299986,-0.000566501,0
0.3,2.9,0,0.299991,-0.000560354,0
0.3,3,0,0.299991,-0.000551118,0
0.3,3.1,0,0.299986,-0.000545363,0
0.3,3.2,0,0.299986,-0.000539634,0
0.3,3.3,0,0.29999,-0.000530568,0
0.3,3.4,0,0.299987,-0.000520168,0
0.3,3.5,0,0.29998,-0.00051623,0
0.3,3.6,0,0.299987,-0.000506533,0
0.3,3.7,0,0.299987,-0.000493517,0
0.3,3.8,0,0.299981,-0.000486302,0
0.3,3.9,0,0.299981,-0.000478338,0
0.3,4,0,0.299986,-0.000465108,0
0.3,4.1,0,0.299983,-0.000451299,0
0.3,4.2,0,0.299973,-0.000447443,0
0.3,4.3,0,0.299982,-0.000433101,0
0.3,4.4,0,0.299982,-0.000415679,0
0.3,4.5,0,0.299974,-0.000407202,0
0.3,4.6,0,0.299974,-0.000397076,0
0.3,4.7,0,0.299981,-0.000379244,0
0.3,4.8,0,0.299978,-0.000361623,0
0.3,4.9,0,0.299965,-0.000357799,0
0.3,5,0,0.299979,-0.00033973,0
0.3,5.1,0,0.29998,-0.000317709,0
0.3,5.2,0,0.29997,-0.000306943,0
0.3,5.3,0,0.299971,-0.00029544,0
0.3,5.4,0,0.299982,-0.000274834,0
0.3,5.5,0,0.299978,-0.000252589,0
0.3,5.6,0,0.299958,-0.000245563,0
0.3,5.7,0,0.299984,-0.000228901,0
0.3,5.8,0,0.299986,-0.000203038,0
0.3,5.9,0,0.299968,-0.000186442,0
0.3,6,0,0.299972,-0.000174309,0
0.3,6.1,0,0.299995,-0.000155513,0
0.3,6.2,0,0.299987,-0.000127782,0
0.3,6.3,0,0.299949,-0.000111071,0
0.3,6.4,0,0.299997,-0.000102477,0
0.3,6.5,0,0.300003,-7.44029e-05,0
0.3,6.6,0,0.299969,-4.81635e-05,0
0.3,6.7,0,0.299974,-3.5412e-05,0
0.3,6.8,0,0.300015,-2.49873e-05,0
0.3,6.9,0,0.300003,1.67503e-06,0
0.3,7,0,0.29994,2.65636e-05,0
0.3,7.1,0,0.299938,6.06089e-05,0
0.3,7.2,0,0.299937,8.1574e-05,0
0.3,7.3,0,0.299936,0.000102529,0
0.3,7.4,0,0.299936,0.000123552,0
0.3,7.5,0,0.299936,0.000144616,0
0.3,7.6,0,0.299936,0.000165681,0
0.3,7.7,0,0.299936,0.000186713,0
0.3,7.8,0,0.299937,0.000207684,0
0.3,7.9,0,0.299937,0.000228637,0
0.3,8,0,0.299939,0.000256734,0
0.3,8.1,0,0.300018,0.000283397,0
0.3,8.2,0,0.299976,0.000299669,0
0.3,8.3,0,0.3,0.000318648,0
0.3,8.4,0,0.300006,0.000347934,0
0.3,8.5,0,0.299968,0.000357869,0
0.3,8.6,0,0.300006,0.000385879,0
0.3,8.7,0,0.299953,0.000399092,0
0.3,8.8,0,0.299998,0.000420124,0
0.3,8.9,0,0.299977,0.000442478,0
0.3,9,0,0.299982,0.000455518,0
0.3,9.1,0,0.299991,0.0004812,0
0.3,9.2,0,0.299966,0.000493933,0
0.3,9.3,0,0.299987,0.000511985,0
0.3,9.4,0,0.299964,0.000532237,0
0.3,9.5,0,0.299982,0.000541279,0
0.3,9.6,0,0.299975,0.000564874,0
0.3,9.7,0,0.299975,0.000574851,0
0.3,9.8,0,0.299981,0.000593415,0
0.3,9.9,0,0.299969,0.000610695,0
0.3,10,0,0.299979,0.000619282,0
0.3,10.1,0,0.29997,0.000641565,0
0.3,10.2,0,0.29998,0.000644299,0
0.3,10.3,0,0.299977,0.000664866,0
0.3,10.4,0,0.299977,0.000674369,0
0.3,10.5,0,0.299982,0.000686269,0
0.3,10.6,0,0.299975,0.000703617,0
0.3,10.7,0,0.299983,0.000707226,0
0.3,10.8,0,0.299978,0.000725343,0
0.3,10.9,0,0.299984,0.000726843,0
0.3,11,0,0.299983,0.000741763,0
0.3,11.1,0,0.299983,0.000750043,0
0.3,11.2,0,0.299987,0.0007572,0
0.3,11.3,0,0.299982,0.000770317,0
0.3,11.4,0,0.299989,0.000771814,0
0.3,11.5,0,0.299986,0.000783573,0
0.3,11.6,0,0.29999,0.000785083,0
0.3,11.7,0,0.299991,0.000793644,0
0.3,11.8,0,0.29999,0.000799254,0
0.3,11.9,0,0.299994,0.000802505,0
0.3,12,0,0.299991,0.000810411,0
0.3,12.1,0,0.299994,0.000809988,0
0.3,12.2,0,0.299994,0.00081587,0
0.3,12.3,0,0.299996,0.000816093,0
0.3,12.4,0,0.299998,0.000818874,0
0.3,12.5,0,0.299998,0.000821322,0
0.3,12.6,0,0.299999,0.000820397,0
0.3,12.7,0,0.299998,0.000922853,0
0.4,0,0,0.299999,-0.000878277,0
0.4,0.1,0,0.299999,-0.000851776,0
0.4,0.2,0,0.299999,-0.000851368,0
0.4,0.3,0,0.299998,-0.00085096,0
0.4,0.4,0,0.299998,-0.000850456,0
0.4,0.5,0,0.299998,-0.000849218,0
0.4,0.6,0,0.299997,-0.00084798,0
0.4,0.7,0,0.299997,-0.000847011,0
0.4,0.8,0,0.299997,-0.000845273,0
0.4,0.9,0,0.299996,-0.000843159,0
0.4,1,0,0.299996,-0.000841044,0
0.4,1.1,0,0.299995,-0.000839446,0
0.4,1.2,0,0.299995,-0.000836378,0
0.4,1.3,0,0.299994,-0.000833311,0
0.4,1.4,0,0.299992,-0.000830888,0
0.4,1.5,0,0.299993,-0.000827491,0
0.4,1.6,0,0.299992,-0.000823365,0
0.4,1.7,0,0.299991,-0.000819238,0
0.4,1.8,0,0.299991,-0.000816312,0
0.4,1.9,0,0.29999,-0.000810993,0
0.4,2,0,0.299989,-0.000805674,0
0.4,2.1,0,0.299988,-0.000801503,0
0.4,2.2,0,0.299988,-0.000795952,0
0.4,2.3,0,0.299987,-0.000789287,0
0.4,2.4,0,0.299986,-0.000782623,0
0.4,2.5,0,0.299986,-0.000777975,0
0.4,2.6,0,0.299985,-0.0007698,0
0.4,2.7,0,0.299984,-0.000761625,0
0.4,2.8,0,0.299981,-0.000755335,0
0.4,2.9,0,0.299982,-0.000746923,0
0.4,3,0,0.299981,-0.00073707,0
0.4,3.1,0,0.29998,-0.000727217,0
0.4,3.2,0,0.299979,-0.000720366,0
0.4,3.3,0,0.299978,-0.000708675,0
0.4,3.4,0,0.299977,-0.000696983,0
0.4,3.5,0,0.299973,-0.000688306,0
0.4,3.6,0,0.299975,-0.000676175,0
0.4,3.7,0,0.299973,-0.000662496,0
0.4,3.8,0,0.299972,-0.000648816,0
0.4,3.9,0,0.299972,-0.000639347,0
0.4,4,0,0.29997,-0.000623546,0
0.4,4.1,0,0.299968,-0.000607746,0
0.4,4.2,0,0.299964,-0.000596591,0
0.4,4.3,0,0.299966,-0.00057999,0
0.4,4.4,0,0.299965,-0.000561952,0
0.4,4.5,0,0.299963,-0.000543914,0
0.4,4.6,0,0.299963,-0.000531769,0
0.4,4.7,0,0.299961,-0.000511388,0
0.4,4.8,0,0.29996,-0.000491008,0
0.4,4.9,0,0.299954,-0.000477066,0
0.4,5,0,0.299958,-0.000456098,0
0.4,5.1,0,0.299957,-0.000433287,0
0.4,5.2,0,0.299955,-0.000410475,0
0.4,5.3,0,0.299956,-0.000396183,0
0.4,5.4,0,0.299955,-0.000370894,0
0.4,5.5,0,0.299953,-0.000345604,0
0.4,5.6,0,0.299944,-0.000327418,0
0.4,5.7,0,0.299953,-0.000304008,0
0.4,5.8,0,0.299951,-0.000276304,0
0.4,5.9,0,0.299949,-0.0002486,0
0.4,6,0,0.299952,-0.000232759,0
0.4,6.1,0,0.29995,-0.000202823,0
0.4,6.2,0,0.299948,-0.000172888,0
0.4,6.3,0,0.299932,-0.000148095,0
0.4,6.4,0,0.299949,-0.000125216,0
0.4,6.5,0,0.299947,-9.32466e-05,0
0.4,6.6,0,0.299945,-6.12773e-05,0
0.4,6.7,0,0.299949,-4.48054e-05,0
0.4,6.8,0,0.299947,-1.77883e-05,0
0.4,6.9,0,0.299945,9.2288e-06,0
0.4,7,0,0.29992,3.54181e-05,0
0.4,7.1,0,0.299917,8.08119e-05,0
0.4,7.2,0,0.299916,0.000108765,0
0.4,7.3,0,0.299915,0.000136705,0
0.4,7.4,0,0.299914,0.000164736,0
0.4,7.5,0,0.299914,0.000192821,0
0.4,7.6,0,0.299914,0.000220908,0
0.4,7.7,0,0.299915,0.000248951,0
0.4,7.8,0,0.299916,0.000276912,0
0.4,7.9,0,0.299916,0.000304849,0
0.4,8,0,0.299918,0.000342313,0
0.4,8.1,0,0.299946,0.000369668,0
0.4,8.2,0,0.299948,0.000397369,0
0.4,8.3,0,0.299946,0.000420117,0
0.4,8.4,0,0.299949,0.000452266,0
0.4,8.5,0,0.299947,0.000474961,0
0.4,8.6,0,0.29995,0.000506191,0
0.4,8.7,0,0.299936,0.000532234,0
0.4,8.8,0,0.29995,0.000558488,0
0.4,8.9,0,0.299953,0.000588521,0
0.4,9,0,0.299951,0.000608957,0
0.4,9.1,0,0.299953,0.000637637,0
0.4,9.2,0,0.299952,0.000657736,0
0.4,9.3,0,0.299954,0.000684695,0
0.4,9.4,0,0.299951,0.000710218,0
0.4,9.5,0,0.299956,0.000729641,0
0.4,9.6,0,0.299957,0.000755094,0
0.4,9.7,0,0.299957,0.000772413,0
0.4,9.8,0,0.299958,0.000796055,0
0.4,9.9,0,0.299958,0.000814314,0
0.4,10,0,0.29996,0.000834696,0
0.4,10.1,0,0.29996,0.000856549,0
0.4,10.2,0,0.299962,0.000870968,0
0.4,10.3,0,0.299964,0.00089082,0
0.4,10.4,0,0.299965,0.00090481,0
0.4,10.5,0,0.299966,0.000922747,0
0.4,10.6,0,0.299966,0.000938336,0
0.4,10.7,0,0.299969,0.000952184,0
0.4,10.8,0,0.29997,0.000968431,0
0.4,10.9,0,0.299971,0.000979081,0
0.4,11,0,0.299973,0.00099321,0
0.4,11.1,0,0.299974,0.00100339,0
0.4,11.2,0,0.299976,0.00101563,0
0.4,11.3,0,0.299976,0.00102718,0
0.4,11.4,0,0.299979,0.00103545,0
0.4,11.5,0,0.299981,0.00104585,0
0.4,11.6,0,0.299982,0.00105264,0
0.4,11.7,0,0.299984,0.00106114,0
0.4,11.8,0,0.299985,0.00106719,0
0.4,11.9,0,0.299987,0.00107383,0
0.4,12,0,0.299988,0.00108059,0
0.4,12.1,0,0.29999,0.00108386,0
0.4,12.2,0,0.299992,0.00108862,0
0.4,12.3,0,0.299993,0.00109121,0
0.4,12.4,0,0.299995,0.0010941,0
0.4,12.5,0,0.299996,0.00109588,0
0.4,12.6,0,0.299997,0.00109686,0
0.4,12.7,0,0.299998,0.00113166,0
0.5,0,0,0.299999,-0.00106562,0
0.5,0.1,0,0.299999,-0.00106502,0
0.5,0.2,0,0.299998,-0.00106461,0
0.5,0.3,0,0.299998,-0.0010642,0
0.5,0.4,0,0.299997,-0.00106307,0
0.5,0.5,0,0.299997,-0.00106184,0
0.5,0.6,0,0.299996,-0.0010606,0
0.5,0.7,0,0.299995,-0.00105925,0
0.5,0.8,0,0.299995,-0.00105663,0
0.5,0.9,0,0.299994,-0.00105451,0
0.5,1,0,0.299994,-0.0010524,0
0.5,1.1,0,0.299992,-0.00104885,0
0.5,1.2,0,0.299992,-0.00104578,0
0.5,1.3,0,0.299991,-0.00104271,0
0.5,1.4,0,0.299989,-0.00103921,0
0.5,1.5,0,0.299989,-0.00103419,0
0.5,1.6,0,0.299988,-0.00103006,0
0.5,1.7,0,0.299987,-0.00102594,0
0.5,1.8,0,0.299986,-0.00101947,0
0.5,1.9,0,0.299985,-0.00101416,0
0.5,2,0,0.299984,-0.00100884,0
0.5,2.1,0,0.299982,-0.00100265,0
0.5,2.2,0,0.299982,-0.000994656,0
0.5,2.3,0,0.299981,-0.000987991,0
0.5,2.4,0,0.29998,-0.000981327,0
0.5,2.5,0,0.299978,-0.0009712,0
0.5,2.6,0,0.299977,-0.000963025,0
0.5,2.7,0,0.299976,-0.000954849,0
0.5,2.8,0,0.299972,-0.000945103,0
0.5,2.9,0,0.299973,-0.000933559,0
0.5,3,0,0.299971,-0.000923706,0
0.5,3.1,0,0.29997,-0.000913853,0
0.5,3.2,0,0.299968,-0.000899219,0
0.5,3.3,0,0.299966,-0.000887527,0
0.5,3.4,0,0.299965,-0.000875835,0
0.5,3.5,0,0.29996,-0.000861357,0
0.5,3.6,0,0.299961,-0.000845955,0
0.5,3.7,0,0.29996,-0.000832275,0
0.5,3.8,0,0.299959,-0.000818596,0
0.5,3.9,0,0.299956,-0.000798633,0
0.5,4,0,0.299954,-0.000782833,0
0.5,4.1,0,0.299953,-0.000767033,0
0.5,4.2,0,0.299946,-0.00074645,0
0.5,4.3,0,0.299948,-0.000727155,0
0.5,4.4,0,0.299947,-0.000709117,0
0.5,4.5,0,0.299945,-0.000691079,0
0.5,4.6,0,0.299942,-0.000664844,0
0.5,4.7,0,0.299941,-0.000644463,0
0.5,4.8,0,0.299939,-0.000624082,0
0.5,4.9,0,0.299932,-0.000596486,0
0.5,5,0,0.299935,-0.000572636,0
0.5,5.1,0,0.299933,-0.000549825,0
0.5,5.2,0,0.299932,-0.000527013,0
0.5,5.3,0,0.299928,-0.000493209,0
0.5,5.4,0,0.299927,-0.00046792,0
0.5,5.5,0,0.299925,-0.000442631,0
0.5,5.6,0,0.299918,-0.000409145,0
0.5,5.7,0,0.299918,-0.000378185,0
0.5,5.8,0,0.299916,-0.000350482,0
0.5,5.9,0,0.299915,-0.000322778,0
0.5,6,0,0.299908,-0.000280893,0
0.5,6.1,0,0.299906,-0.000250958,0
0.5,6.2,0,0.299903,-0.000221022,0
0.5,6.3,0,0.299903,-0.000185881,0
0.5,6.4,0,0.299893,-0.000144817,0
0.5,6.5,0,0.299891,-0.000112848,0
0.5,6.6,0,0.299889,-8.08783e-05,0
0.5,6.7,0,0.29988,-3.29974e-05,0
0.5,6.8,0,0.299879,-5.98027e-06,0
0.5,6.9,0,0.299877,2.10368e-05,0
0.5,7,0,0.299889,4.19344e-05,0
0.5,7.1,0,0.299887,9.90024e-05,0
0.5,7.2,0,0.299885,0.000134356,0
0.5,7.3,0,0.299884,0.000169728,0
0.5,7.4,0,0.299884,0.000205206,0
0.5,7.5,0,0.299883,0.000240746,0
0.5,7.6,0,0.299883,0.000276289,0
0.5,7.7,0,0.299884,0.000311778,0
0.5,7.8,0,0.299885,0.000347168,0
0.5,7.9,0,0.299886,0.0003825,0
0.5,8,0,0.299888,0.000429674,0
0.5,8.1,0,0.299874,0.00045343,0
0.5,8.2,0,0.299875,0.000481132,0
0.5,8.3,0,0.299881,0.000522261,0
0.5,8.4,0,0.299884,0.000554409,0
0.5,8.5,0,0.299891,0.000595567,0
0.5,8.6,0,0.299893,0.000626797,0
0.5,8.7,0,0.299902,0.000663716,0
0.5,8.8,0,0.299903,0.000697183,0
0.5,8.9,0,0.299905,0.000727217,0
0.5,9,0,0.299912,0.000765268,0
0.5,9.1,0,0.299914,0.000793948,0
0.5,9.2,0,0.29992,0.000830484,0
0.5,9.3,0,0.299922,0.000857829,0
0.5,9.4,0,0.299923,0.00088636,0
0.5,9.5,0,0.299929,0.000918464,0
0.5,9.6,0,0.299931,0.000943917,0
0.5,9.7,0,0.299934,0.000975537,0
0.5,9.8,0,0.299936,0.00099918,0
0.5,9.9,0,0.299937,0.00102733,0
0.5,10,0,0.299941,0.00105061,0
0.5,10.1,0,0.29994,0.00107206,0
0.5,10.2,0,0.299945,0.00109814,0
0.5,10.3,0,0.299947,0.00111799,0
0.5,10.4,0,0.299949,0.00114179,0
0.5,10.5,0,0.299951,0.00115972,0
0.5,10.6,0,0.299951,0.00117938,0
0.5,10.7,0,0.299955,0.00119764,0
0.5,10.8,0,0.299955,0.00121347,0
0.5,10.9,0,0.299959,0.00123181,0
0.5,11,0,0.29996,0.00124594,0
0.5,11.1,0,0.299963,0.00126232,0
0.5,11.2,0,0.299965,0.00127456,0
0.5,11.3,0,0.299965,0.00128745,0
0.5,11.4,0,0.29997,0.00129958,0
0.5,11.5,0,0.299971,0.00130994,0
0.5,11.6,0,0.299974,0.00132105,0
0.5,11.7,0,0.299976,0.00132954,0
0.5,11.8,0,0.299979,0.001339,0
0.5,11.9,0,0.299981,0.00134563,0
0.5,12,0,0.299982,0.00135271,0
0.5,12.1,0,0.299986,0.00135822,0
0.5,12.2,0,0.299988,0.00136299,0
0.5,12.3,0,0.299991,0.00136729,0
0.5,12.4,0,0.299993,0.00137018,0
0.5,12.5,0,0.299995,0.00137285,0
0.5,12.6,0,0.299996,0.00137383,0
0.5,12.7,0,0.299996,0.00137502,0
0.6,0,0,0.299998,-0.00127957,0
0.6,0.1,0,0.299998,-0.00127867,0
0.6,0.2,0,0.299998,-0.00127818,0
0.6,0.3,0,0.299997,-0.00127783,0
0.6,0.4,0,0.299996,-0.00127661,0
0.6,0.5,0,0.299995,-0.00127478,0
0.6,0.6,0,0.299994,-0.00127349,0
0.6,0.7,0,0.299993,-0.00127197,0
0.6,0.8,0,0.299993,-0.00126855,0
0.6,0.9,0,0.299992,-0.00126622,0
0.6,1,0,0.29999,-0.00126364,0
0.6,1.1,0,0.299989,-0.00125982,0
0.6,1.2,0,0.299988,-0.00125557,0
0.6,1.3,0,0.299987,-0.00125231,0
0.6,1.4,0,0.299984,-0.00124812,0
0.6,1.5,0,0.299984,-0.00124171,0
0.6,1.6,0,0.299984,-0.0012372,0
0.6,1.7,0,0.299981,-0.00123199,0
0.6,1.8,0,0.299979,-0.00122503,0
0.6,1.9,0,0.29998,-0.00121781,0
0.6,2,0,0.299978,-0.00121212,0
0.6,2.1,0,0.299973,-0.00120456,0
0.6,2.2,0,0.299975,-0.00119448,0
0.6,2.3,0,0.299975,-0.00118725,0
0.6,2.4,0,0.29997,-0.00117857,0
0.6,2.5,0,0.299968,-0.00116767,0
0.6,2.6,0,0.299969,-0.00115687,0
0.6,2.7,0,0.299967,-0.00114802,0
0.6,2.8,0,0.299959,-0.00113581,0
0.6,2.9,0,0.299962,-0.0011216,0
0.6,3,0,0.299962,-0.00111103,0
0.6,3.1,0,0.299955,-0.00109758,0
0.6,3.2,0,0.299953,-0.00108185,0
0.6,3.3,0,0.299955,-0.00106712,0
0.6,3.4,0,0.299952,-0.00105424,0
0.6,3.5,0,0.299941,-0.00103538,0
0.6,3.6,0,0.299947,-0.00101727,0
0.6,3.7,0,0.299947,-0.00100286,0
0.6,3.8,0,0.299938,-0.000982863,0
0.6,3.9,0,0.299935,-0.000961408,0
0.6,4,0,0.299939,-0.000942968,0
0.6,4.1,0,0.299935,-0.000925119,0
0.6,4.2,0,0.299921,-0.000897022,0
0.6,4.3,0,0.299929,-0.00087575,0
0.6,4.4,0,0.299929,-0.000857173,0
0.6,4.5,0,0.299918,-0.000828818,0
0.6,4.6,0,0.299915,-0.000800575,0
0.6,4.7,0,0.299921,-0.000778468,0
0.6,4.8,0,0.299916,-0.000754995,0
0.6,4.9,0,0.299899,-0.00071606,0
0.6,5,0,0.29991,-0.00069058,0
0.6,5.1,0,0.29991,-0.000667323,0
0.6,5.2,0,0.299898,-0.00063068,0
0.6,5.3,0,0.299894,-0.00059409,0
0.6,5.4,0,0.299899,-0.000565913,0
0.6,5.5,0,0.299895,-0.000537111,0
0.6,5.6,0,0.29988,-0.000490745,0
0.6,5.7,0,0.299883,-0.000454669,0
0.6,5.8,0,0.299882,-0.00042557,0
0.6,5.9,0,0.299875,-0.000385407,0
0.6,6,0,0.299867,-0.00033979,0
0.6,6.1,0,0.299861,-0.000299917,0
0.6,6.2,0,0.29986,-0.00026775,0
0.6,6.3,0,0.299863,-0.000224428,0
0.6,6.4,0,0.29984,-0.000169073,0
0.6,6.5,0,0.299835,-0.000133206,0
0.6,6.6,0,0.299846,-9.7358e-05,0
0.6,6.7,0,0.299836,-4.42235e-05,0
0.6,6.8,0,0.29981,1.04368e-05,0
0.6,6.9,0,0.299814,3.48313e-05,0
0.6,7,0,0.299849,4.61124e-05,0
0.6,7.1,0,0.299846,0.00011518,0
0.6,7.2,0,0.299845,0.000158347,0
0.6,7.3,0,0.299844,0.000201596,0
0.6,7.4,0,0.299844,0.000244961,0
0.6,7.5,0,0.299843,0.000288391,0
0.6,7.6,0,0.299843,0.000331822,0
0.6,7.7,0,0.299844,0.000375193,0
0.6,7.8,0,0.299845,0.000418452,0
0.6,7.9,0,0.299846,0.00046159,0
0.6,8,0,0.299848,0.000518818,0
0.6,8.1,0,0.299801,0.000534685,0
0.6,8.2,0,0.29983,0.000580872,0
0.6,8.3,0,0.299823,0.000624898,0
0.6,8.4,0,0.299823,0.000659477,0
0.6,8.5,0,0.299849,0.000715157,0
0.6,8.6,0,0.299837,0.000747696,0
0.6,8.7,0,0.299862,0.000798689,0
0.6,8.8,0,0.299855,0.00083621,0
0.6,8.9,0,0.299863,0.000874258,0
0.6,9,0,0.299872,0.000919588,0
0.6,9.1,0,0.299875,0.000951121,0
0.6,9.2,0,0.299881,0.000994797,0
0.6,9.3,0,0.29989,0.00103139,0
0.6,9.4,0,0.299885,0.0010644,0
0.6,9.5,0,0.299902,0.00110775,0
0.6,9.6,0,0.299898,0.00113435,0
0.6,9.7,0,0.299906,0.00117355,0
0.6,9.8,0,0.299913,0.00120279,0
0.6,9.9,0,0.299904,0.00123074,0
0.6,10,0,0.299921,0.00126702,0
0.6,10.1,0,0.299908,0.00128703,0
0.6,10.2,0,0.299928,0.00132581,0
0.6,10.3,0,0.299923,0.00134458,0
0.6,10.4,0,0.299926,0.00137286,0
0.6,10.5,0,0.299935,0.0013972,0
0.6,10.6,0,0.299925,0.00141485,0
0.6,10.7,0,0.299941,0.00144359,0
0.6,10.8,0,0.299932,0.00145776,0
0.6,10.9,0,0.299946,0.00148504,0
0.6,11,0,0.299944,0.00149867,0
0.6,11.1,0,0.299946,0.00151707,0
0.6,11.2,0,0.299954,0.00153397,0
0.6,11.3,0,0.299948,0.00154634,0
0.6,11.4,0,0.29996,0.00156419,0
0.6,11.5,0,0.299957,0.00157458,0
0.6,11.6,0,0.299966,0.00158967,0
0.6,11.7,0,0.299967,0.00159859,0
0.6,11.8,0,0.299969,0.00160912,0
0.6,11.9,0,0.299974,0.00161792,0
0.6,12,0,0.299973,0.00162572,0
0.6,12.1,0,0.299981,0.00163307,0
0.6,12.2,0,0.299982,0.00163859,0
0.6,12.3,0,0.299987,0.00164372,0
0.6,12.4,0,0.29999,0.00164694,0
0.6,12.5,0,0.299992,0.00165021,0
0.6,12.6,0,0.299996,0.0016513,0
0.6,12.7,0,0.299994,0.00165295,0
0.7,0,0,0.299997,-0.00149352,0
0.7,0.1,0,0.299998,-0.00149262,0
0.7,0.2,0,0.299997,-0.00149178,0
0.7,0.3,0,0.299996,-0.00149147,0
0.7,0.4,0,0.299995,-0.00149025,0
0.7,0.5,0,0.299994,-0.00148812,0
0.7,0.6,0,0.299992,-0.00148622,0
0.7,0.7,0,0.29999,-0.00148469,0
0.7,0.8,0,0.29999,-0.00148127,0
0.7,0.9,0,0.299989,-0.00147762,0
0.7,1,0,0.299986,-0.00147481,0
0.7,1.1,0,0.299985,-0.00147099,0
0.7,1.2,0,0.299985,-0.00146614,0
0.7,1.3,0,0.299982,-0.00146123,0
0.7,1.4,0,0.299979,-0.00145704,0
0.7,1.5,0,0.299979,-0.00145062,0
0.7,1.6,0,0.299978,-0.00144361,0
0.7,1.7,0,0.299974,-0.00143785,0
0.7,1.8,0,0.299973,-0.00143089,0
0.7,1.9,0,0.299974,-0.00142273,0
0.7,2,0,0.29997,-0.00141403,0
0.7,2.1,0,0.299964,-0.00140647,0
0.7,2.2,0,0.299966,-0.00139639,0
0.7,2.3,0,0.299966,-0.00138517,0
0.7,2.4,0,0.299959,-0.00137548,0
0.7,2.5,0,0.299957,-0.00136458,0
0.7,2.6,0,0.29996,-0.00135247,0
0.7,2.7,0,0.299954,-0.00133872,0
0.7,2.8,0,0.299946,-0.00132651,0
0.7,2.9,0,0.299949,-0.00131231,0
0.7,3,0,0.299949,-0.00129595,0
0.7,3.1,0,0.299939,-0.00128072,0
0.7,3.2,0,0.299937,-0.00126498,0
0.7,3.3,0,0.299941,-0.00124874,0
0.7,3.4,0,0.299933,-0.00122826,0
0.7,3.5,0,0.299922,-0.00120941,0
0.7,3.6,0,0.299928,-0.0011913,0
0.7,3.7,0,0.299928,-0.00116923,0
0.7,3.8,0,0.299916,-0.00114608,0
0.7,3.9,0,0.299913,-0.00112462,0
0.7,4,0,0.29992,-0.00110486,0
0.7,4.1,0,0.29991,-0.00107569,0
0.7,4.2,0,0.299895,-0.00104759,0
0.7,4.3,0,0.299903,-0.00102632,0
0.7,4.4,0,0.299905,-0.000998351,0
0.7,4.5,0,0.299889,-0.000964837,0
0.7,4.6,0,0.299886,-0.000936594,0
0.7,4.7,0,0.299895,-0.000913623,0
0.7,4.8,0,0.299884,-0.000874568,0
0.7,4.9,0,0.299867,-0.000835634,0
0.7,5,0,0.299877,-0.000810154,0
0.7,5.1,0,0.29988,-0.0007756,0
0.7,5.2,0,0.299863,-0.000732041,0
0.7,5.3,0,0.299858,-0.000695451,0
0.7,5.4,0,0.299867,-0.00066583,0
0.7,5.5,0,0.299857,-0.000618711,0
0.7,5.6,0,0.299842,-0.000572345,0
0.7,5.7,0,0.299845,-0.00053627,0
0.7,5.8,0,0.299844,-0.000492353,0
0.7,5.9,0,0.299835,-0.000445961,0
0.7,6,0,0.299827,-0.000400343,0
0.7,6.1,0,0.299819,-0.000355501,0
0.7,6.2,0,0.299819,-0.000306297,0
0.7,6.3,0,0.299822,-0.000262975,0
0.7,6.4,0,0.2998,-0.00020762,0
0.7,6.5,0,0.299787,-0.000150979,0
0.7,6.6,0,0.299805,-0.000113191,0
0.7,6.7,0,0.299795,-6.00568e-05,0
0.7,6.8,0,0.299757,8.42511e-06,0
0.7,6.9,0,0.299774,3.90093e-05,0
0.7,7,0,0.299808,5.02904e-05,0
0.7,7.1,0,0.299806,0.000131358,0
0.7,7.2,0,0.299805,0.000182337,0
0.7,7.3,0,0.299804,0.000233465,0
0.7,7.4,0,0.299804,0.000284716,0