/*--------------------------------*- C++ -*----------------------------------*\
| =========                 |                                                 |
| \\      /  F ield         | OpenFOAM: The Open Source CFD Toolbox           |
|  \\    /   O peration     | Version:  v1806                                 |
|   \\  /    A nd           | Web:      www.OpenFOAM.com                      |
|    \\/     M anipulation  |                                                 |
\*---------------------------------------------------------------------------*/
FoamFile
{
    version     2.0;
    format      ascii;
    class       surfaceScalarField;
    location    "420";
    object      phi;
}
// * * * * * * * * * * * * * * * * * * * * * * * * * * * * * * * * * * * * * //

dimensions      [0 3 -1 0 0 0 0];
oriented        oriented;


internalField   nonuniform List<scalar> 
13971
(
-7.77346e-09
0.0238995
-0.0103092
-0.0192814
0.00569104
-1.71137e-12
0.0238997
-0.0103121
-0.0192794
0.00569181
7.77468e-09
0.0238997
-0.0103121
-0.0192794
0.00569181
0.0238995
-0.0103092
-0.0192814
0.00569104
8.12015e-09
0.00644585
0.0182582
-0.00080452
1.31053e-12
0.00644539
0.0182603
-0.000805975
-8.11903e-09
0.00644539
0.0182603
-0.000805975
0.00644585
0.0182582
-0.00080452
-1.95209e-08
0.0174953
-0.0136632
-0.0141412
-1.58684e-13
0.0174932
-0.0136658
-0.0141396
1.95199e-08
0.0174932
-0.0136658
-0.0141396
0.0174953
-0.0136632
-0.0141412
-1.35635e-08
-0.000603668
-0.00647629
-0.00255409
0.00963406
-4.27197e-14
-0.000606033
-0.0064776
-0.002552
0.00963561
1.35641e-08
-0.000606033
-0.0064776
-0.002552
0.00963561
-0.000603668
-0.00647629
-0.00255409
0.00963406
-1.81869e-08
-0.0082701
-0.000763698
0.00843015
-6.38577e-13
-0.00827223
-0.000764963
0.00843114
1.81861e-08
-0.00827223
-0.000764963
0.00843114
-0.0082701
-0.000763698
0.00843015
-2.10064e-08
0.00405324
-0.0106173
-0.00170602
9.42734e-14
0.00405575
-0.0106198
-0.00170816
2.1006e-08
0.00405575
-0.0106198
-0.00170816
0.00405324
-0.0106173
-0.00170602
-1.23467e-08
0.00626527
-0.00868831
2.54689e-13
0.00626822
-0.00869008
1.23473e-08
0.00626822
-0.00869008
0.00626527
-0.00868831
-5.48435e-09
-0.00508685
0.00879803
7.29916e-13
-0.0050835
0.00879972
5.48579e-09
-0.0050835
0.00879972
-0.00508685
0.00879803
-1.6118e-08
-0.00846336
0.0109519
-0.0118291
0.00934062
1.2984e-12
-0.00846386
0.0109537
-0.0118306
0.00934079
1.61189e-08
-0.00846386
0.0109537
-0.0118306
0.00934079
-0.00846336
0.0109519
-0.0118291
0.00934062
-3.0741e-08
-0.0157593
-0.0061732
0.0134692
1.32162e-12
-0.0157625
-0.00617379
0.0134724
3.07418e-08
-0.0157625
-0.00617379
0.0134724
-0.0157593
-0.0061732
0.0134692
-1.66073e-08
-0.00677413
0.00903774
1.32214e-12
-0.00677491
0.0090385
1.66088e-08
-0.00677491
0.0090385
-0.00677413
0.00903774
-2.46396e-08
0.0200241
-0.0135929
0.0110641
-1.62758e-13
0.0200266
-0.0135958
0.0110624
2.46366e-08
0.0200266
-0.0135958
0.0110624
0.0200241
-0.0135929
0.0110641
8.32285e-08
0.0551336
-0.00576363
-0.0538487
0.00447858
-4.41596e-13
0.055131
-0.00576998
-0.0538435
0.00448253
-8.32284e-08
0.055131
-0.00576998
-0.0538435
0.00448253
0.0551336
-0.00576363
-0.0538487
0.00447858
1.13481e-07
0.0379442
0.0280724
-0.010883
-3.76678e-13
0.0379446
0.028073
-0.0108865
-1.13481e-07
0.0379446
0.028073
-0.0108865
0.0379442
0.0280724
-0.010883
-1.04171e-08
-0.109004
0.0924483
0.0470865
-0.0305306
7.92573e-13
-0.109012
0.0924631
0.0470837
-0.0305344
1.04164e-08
-0.109012
0.0924631
0.0470837
-0.0305344
-0.109004
0.0924483
0.0470865
-0.0305306
-9.27166e-08
-0.0902022
-0.0727119
0.0539099
1.38295e-12
-0.0902184
-0.0727022
0.0539081
9.2721e-08
-0.0902184
-0.0727022
0.0539081
-0.0902022
-0.0727119
0.0539099
-1.82577e-08
0.00583779
0.0155232
-0.0202771
-0.00108387
-4.82154e-13
0.00584071
0.0155234
-0.0202806
-0.00108355
1.82589e-08
0.00584071
0.0155234
-0.0202806
-0.00108355
0.00583779
0.0155232
-0.0202771
-0.00108387
-1.46359e-09
0.00954558
-0.017371
-2.0517e-13
0.0095418
-0.0173668
1.46392e-09
0.0095418
-0.0173668
0.00954558
-0.017371
-5.90852e-08
0.00578752
2.71616e-13
0.00578578
5.90859e-08
0.00578578
0.00578752
1.02102e-08
0.00860485
0.0229023
-0.00158141
-0.0299257
-1.4329e-13
0.0086045
0.0229061
-0.00158097
-0.0299296
-1.021e-08
0.0086045
0.0229061
-0.00158097
-0.0299296
0.00860485
0.0229023
-0.00158141
-0.0299257
2.10454e-08
0.00898349
-0.031763
0.0313844
-7.86951e-14
0.00898016
-0.031768
0.0313923
-2.10456e-08
0.00898016
-0.031768
0.0313923
0.00898349
-0.031763
0.0313844
-1.60668e-08
0.00296641
0.0289194
-1.81114e-14
0.00296646
0.0289198
1.60665e-08
0.00296646
0.0289198
0.00296641
0.0289194
-1.1917e-08
-0.00175681
8.78869e-05
-0.000641773
0.0023107
1.18079e-12
-0.00175697
8.33548e-05
-0.000638577
0.00231219
1.19182e-08
-0.00175697
8.33548e-05
-0.000638577
0.00231219
-0.00175681
8.78869e-05
-0.000641773
0.0023107
-1.13903e-08
0.00179501
-0.00296741
-0.000584389
1.0841e-12
0.0017903
-0.0029634
-0.000583887
1.13955e-08
0.0017903
-0.0029634
-0.000583887
0.00179501
-0.00296741
-0.000584389
-6.89808e-08
0.000688525
0.00119444
2.62486e-12
0.000679546
0.00119404
6.89795e-08
0.000679546
0.00119404
0.000688525
0.00119444
-2.98321e-08
-0.0165126
-0.00794627
0.00869959
1.25876e-12
-0.0165162
-0.00794542
0.00869914
2.98326e-08
-0.0165162
-0.00794542
0.00869914
-0.0165126
-0.00794627
0.00869959
-4.53113e-09
-0.00983116
-0.000489305
0.00103474
0.00928573
2.21441e-12
-0.00983075
-0.000491319
0.00103619
0.00928587
4.53241e-09
-0.00983075
-0.000491319
0.00103619
0.00928587
-0.00983116
-0.000489305
0.00103474
0.00928573
-4.14941e-09
-0.0101591
0.00244158
-0.00211366
1.553e-12
-0.0101584
0.00244008
-0.00211245
4.14988e-09
-0.0101584
0.00244008
-0.00211245
-0.0101591
0.00244158
-0.00211366
-4.83801e-08
0.00995743
1.63259e-13
0.00995567
4.83791e-08
0.00995567
0.00995743
-6.69829e-09
-0.00970612
-0.0104407
0.011457
0.00868979
-2.25314e-12
-0.00970794
-0.0104413
0.0114596
0.00868964
6.69415e-09
-0.00970794
-0.0104413
0.0114596
0.00868964
-0.00970612
-0.0104407
0.011457
0.00868979
-4.56315e-09
-0.00791473
-0.00934055
0.00754917
-2.32186e-12
-0.00791551
-0.00934157
0.00754913
4.56053e-09
-0.00791551
-0.00934157
0.00754913
-0.00791473
-0.00934055
0.00754917
-1.00519e-08
-0.0134518
-0.0105817
-1.54101e-12
-0.0134534
-0.0105837
1.00511e-08
-0.0134534
-0.0105837
-0.0134518
-0.0105817
-9.80004e-09
-0.0131544
-0.00821214
-1.95841e-12
-0.0131552
-0.00821371
9.8005e-09
-0.0131552
-0.00821371
-0.0131544
-0.00821214
-3.59282e-08
-0.0154572
0.0156634
-0.00637942
1.52589e-12
-0.0154597
0.015666
-0.0063801
3.59289e-08
-0.0154597
0.015666
-0.0063801
-0.0154572
0.0156634
-0.00637942
-5.52607e-08
-0.00514519
1.94949e-12
-0.00514491
5.52627e-08
-0.00514491
-0.00514519
-2.48525e-08
-0.00392225
1.52966e-12
-0.00392241
2.48537e-08
-0.00392241
-0.00392225
-4.01525e-08
0.00197775
0.00976345
1.74308e-12
0.00197828
0.00976525
4.01532e-08
0.00197828
0.00976525
0.00197775
0.00976345
-1.68662e-08
0.00178853
-0.00861852
0.00880776
9.06837e-13
0.00178736
-0.00861689
0.00880779
1.6866e-08
0.00178736
-0.00861689
0.00880779
0.00178853
-0.00861852
0.00880776
-7.10394e-09
0.0131873
0.00933381
-9.90348e-13
0.0131892
0.00933281
7.09955e-09
0.0131892
0.00933281
0.0131873
0.00933381
-1.4985e-08
0.0130084
0.0101363
4.46802e-13
0.0130096
0.0101353
1.49836e-08
0.0130096
0.0101353
0.0130084
0.0101363
-1.79258e-08
0.00987884
2.5159e-12
0.00987806
1.7928e-08
0.00987806
0.00987884
-5.58368e-09
0.0066926
-0.0132862
-0.00656083
-1.51662e-12
0.00669345
-0.0132862
-0.00656242
5.58305e-09
0.00669345
-0.0132862
-0.00656242
0.0066926
-0.0132862
-0.00656083
-2.32355e-09
-0.0086912
0.00604325
-9.42845e-13
-0.00869153
0.00604341
2.32315e-09
-0.00869153
0.00604341
-0.0086912
0.00604325
-2.49813e-09
0.00536132
-0.00545954
-0.013188
-7.23475e-13
0.00536193
-0.00546038
-0.0131878
2.49883e-09
0.00536193
-0.00546038
-0.0131878
0.00536132
-0.00545954
-0.013188
1.26912e-09
-0.00795741
0.00462754
9.07333e-13
-0.00795688
0.00462728
-1.26865e-09
-0.00795688
0.00462728
-0.00795741
0.00462754
-6.27248e-08
-0.0144879
0.0119672
-0.00385871
1.55577e-12
-0.0144884
0.0119664
-0.0038581
6.27271e-08
-0.0144884
0.0119664
-0.0038581
-0.0144879
0.0119672
-0.00385871
-5.10689e-08
-0.00248437
-0.0171486
1.81876e-12
-0.00248304
-0.0171503
5.1072e-08
-0.00248304
-0.0171503
-0.00248437
-0.0171486
-2.57632e-08
-0.0158206
-0.00890239
-1.22156e-12
-0.0158173
-0.008906
2.57635e-08
-0.0158173
-0.008906
-0.0158206
-0.00890239
-2.11999e-08
-0.0174467
-0.00658595
-1.71207e-12
-0.0174457
-0.00658534
2.12009e-08
-0.0174457
-0.00658534
-0.0174467
-0.00658595
-1.64632e-08
-0.017958
-0.00604958
-1.17832e-12
-0.0179583
-0.00604984
1.64641e-08
-0.0179583
-0.00604984
-0.017958
-0.00604958
-7.03005e-09
-0.018187
-0.00523051
-4.0857e-13
-0.0181876
-0.0052311
7.03315e-09
-0.0181876
-0.0052311
-0.018187
-0.00523051
3.53661e-11
0.00459589
-0.00459567
-0.0181872
-2.18272e-13
0.0045968
-0.00459682
-0.0181876
-3.21979e-11
0.0045968
-0.00459682
-0.0181876
0.00459589
-0.00459567
-0.0181872
5.34835e-09
0.00407223
-0.0126643
-4.59528e-13
0.00407279
-0.0126637
-5.34491e-09
0.00407279
-0.0126637
0.00407223
-0.0126643
8.77144e-09
0.00314702
-0.00703222
3.39124e-12
0.0031469
-0.00703098
-8.77567e-09
0.0031469
-0.00703098
0.00314702
-0.00703222
-2.27484e-09
0.00584913
-0.00483549
0.00653553
-1.20323e-12
0.00584965
-0.00483556
0.00653504
2.27224e-09
0.00584965
-0.00483556
0.00653504
0.00584913
-0.00483549
0.00653553
-2.52796e-09
0.00706523
0.00747369
-9.74153e-13
0.0070657
0.00747358
2.52385e-09
0.0070657
0.00747358
0.00706523
0.00747369
-1.11128e-08
-0.00565667
4.8172e-05
0.00739704
2.63533e-13
-0.0056558
4.70376e-05
0.00739611
1.11124e-08
-0.0056558
4.70376e-05
0.00739611
-0.00565667
4.8172e-05
0.00739704
-4.43251e-08
-0.00402267
0.00737142
1.1725e-12
-0.00402227
0.0073717
4.43264e-08
-0.00402227
0.0073717
-0.00402267
0.00737142
-3.7739e-08
0.00920612
-0.011529
-0.00153582
5.02098e-13
0.00920417
-0.0115273
-0.001535
3.77427e-08
0.00920417
-0.0115273
-0.001535
0.00920612
-0.011529
-0.00153582
-2.41641e-08
0.00666407
-0.00148059
1.21476e-12
0.00666265
-0.00148078
2.41661e-08
0.00666265
-0.00148078
0.00666407
-0.00148059
-2.64114e-08
-0.00315515
0.00486993
3.15195e-13
-0.00315423
0.0048701
2.64116e-08
-0.00315423
0.0048701
-0.00315515
0.00486993
-1.93251e-08
0.00441352
-0.000904584
4.67312e-13
0.00441272
-0.000904314
1.93255e-08
0.00441272
-0.000904314
0.00441352
-0.000904584
-2.39862e-08
-0.00100725
0.00592537
1.29635e-13
-0.00100703
0.00592415
2.39858e-08
-0.00100703
0.00592415
-0.00100725
0.00592537
-2.18818e-08
0.00380139
-0.000395096
3.37526e-13
0.00380048
-0.000394819
2.18815e-08
0.00380048
-0.000394819
0.00380139
-0.000395096
-2.65655e-08
-0.000760295
0.00881775
2.8759e-13
-0.000762334
0.0088194
2.6565e-08
-0.000762334
0.0088194
-0.000760295
0.00881775
-2.86755e-08
-0.0001425
0.00819
1.36466e-13
-0.000143898
0.00818933
2.86747e-08
-0.000143898
0.00818933
-0.0001425
0.00819
-3.30057e-08
-6.71197e-05
0.00732169
5.35332e-16
-6.76351e-05
0.00731981
3.30047e-08
-6.76351e-05
0.00731981
-6.71197e-05
0.00732169
-2.71925e-08
-5.8669e-05
0.00591695
3.42605e-13
-5.96512e-05
0.00591614
2.71918e-08
-5.96512e-05
0.00591614
-5.8669e-05
0.00591695
-3.48464e-08
0.0038047
-6.1944e-05
9.98613e-13
0.00380306
-6.22609e-05
3.48461e-08
0.00380306
-6.22609e-05
0.0038047
-6.1944e-05
-1.04599e-08
-0.00502178
0.00897268
2.36614e-12
-0.00501962
0.00897462
1.0463e-08
-0.00501962
0.00897462
-0.00502178
0.00897268
-6.00332e-09
-0.0064787
0.0107976
3.33059e-12
-0.00647886
0.0108
6.00716e-09
-0.00647886
0.0108
-0.0064787
0.0107976
-1.61455e-08
-0.00738108
0.0107812
3.31327e-12
-0.00738078
0.01078
1.61485e-08
-0.00738078
0.01078
-0.00738108
0.0107812
-8.48909e-09
0.00740381
0.00899525
1.57669e-13
0.00740392
0.00899459
8.48603e-09
0.00740392
0.00899459
0.00740381
0.00899525
-1.02535e-08
1.61501e-12
1.02556e-08
-2.67206e-08
-0.0129943
-0.00101902
4.6522e-13
-0.0129915
-0.00101887
2.67251e-08
-0.0129915
-0.00101887
-0.0129943
-0.00101902
1.40902e-09
-0.0039031
0.00511086
-2.55756e-12
-0.00390274
0.0051106
-1.40929e-09
-0.00390274
0.0051106
-0.0039031
0.00511086
1.55525e-09
-0.0028976
0.00362204
-1.31822e-12
-0.00289686
0.0036214
-1.55089e-09
-0.00289686
0.0036214
-0.0028976
0.00362204
7.32532e-09
-0.00193491
0.00218433
8.25441e-14
-0.00193449
0.00218453
-7.32486e-09
-0.00193449
0.00218453
-0.00193491
0.00218433
-2.16767e-08
-0.0181167
0.000163596
1.76062e-12
-0.018117
0.000160619
2.16804e-08
-0.018117
0.000160619
-0.0181167
0.000163596
-3.54931e-08
-0.020148
-0.00612536
-4.70588e-13
-0.0201491
-0.0061238
3.54949e-08
-0.0201491
-0.0061238
-0.020148
-0.00612536
-1.88184e-08
-0.0207893
-0.00594456
-8.62523e-13
-0.020791
-0.00594344
1.88201e-08
-0.020791
-0.00594344
-0.0207893
-0.00594456
-1.84668e-08
-0.0217482
-0.00509066
-4.57485e-13
-0.0217507
-0.00509019
1.84687e-08
-0.0217507
-0.00509019
-0.0217482
-0.00509066
-9.42736e-09
-0.0222112
-0.00476759
4.22488e-13
-0.0222138
-0.004768
9.43126e-09
-0.0222138
-0.004768
-0.0222112
-0.00476759
-4.17536e-09
-0.0225672
-0.00423957
5.8183e-13
-0.0225704
-0.0042402
4.17906e-09
-0.0225704
-0.0042402
-0.0225672
-0.00423957
-3.7345e-09
0.00408321
-0.0226888
-0.00396169
-6.78683e-13
0.00408484
-0.0226926
-0.00396264
3.73657e-09
0.00408484
-0.0226926
-0.00396264
0.00408321
-0.0226888
-0.00396169
7.00594e-09
0.00356767
-0.0176717
1.51383e-12
0.00356784
-0.0176706
-7.00281e-09
0.00356784
-0.0176706
0.00356767
-0.0176717
8.54248e-09
0.00274525
-0.0118419
-1.84275e-12
0.00274453
-0.0118404
-8.53293e-09
0.00274453
-0.0118404
0.00274525
-0.0118419
5.11854e-09
0.00179433
-0.00608131
6.55487e-12
0.00179401
-0.00608046
-5.11966e-09
0.00179401
-0.00608046
0.00179433
-0.00608131
2.13163e-09
0.000643368
-0.000783955
-2.97944e-12
0.000643079
-0.000783554
-2.13161e-09
0.000643079
-0.000783554
0.000643368
-0.000783955
3.98428e-10
-0.0012811
0.00170213
0.00705266
8.07801e-13
-0.00128004
0.00170134
0.00705228
-4.00423e-10
-0.00128004
0.00170134
0.00705228
-0.0012811
0.00170213
0.00705266
-1.90266e-09
-0.000333138
0.00558757
4.84489e-13
-0.000332288
0.00558728
1.9012e-09
-0.000332288
0.00558728
-0.000333138
0.00558757
-2.3821e-08
-0.000282485
0.00833656
-7.538e-13
-0.000282286
0.0083367
2.38193e-08
-0.000282286
0.0083367
-0.000282485
0.00833656
-1.87459e-08
0.000173629
0.0077339
-4.27195e-13
0.00017469
0.00773233
1.87443e-08
0.00017469
0.00773233
0.000173629
0.0077339
-2.01332e-08
0.000573064
0.00692228
1.18754e-13
0.00057457
0.00691991
2.01321e-08
0.00057457
0.00691991
0.000573064
0.00692228
-9.10463e-09
0.000592774
0.00589725
1.09888e-12
0.000593481
0.00589722
9.10444e-09
0.000593481
0.00589722
0.000592774
0.00589725
-1.33937e-08
0.00406557
0.000331923
1.86219e-12
0.00406439
0.000332138
1.33944e-08
0.00406439
0.000332138
0.00406557
0.000331923
-1.74161e-08
0.00062152
-0.000527053
0.00953961
-3.66768e-13
0.000619104
-0.000525027
0.00954152
1.74169e-08
0.000619104
-0.000525027
0.00954152
0.00062152
-0.000527053
0.00953961
-2.31892e-08
0.000415889
0.0086358
-1.1442e-12
0.000413469
0.00863676
2.31875e-08
0.000413469
0.00863676
0.000415889
0.0086358
7.05185e-09
-0.0248497
0.00144242
0.0218258
-7.03398e-15
-0.0248532
0.00144529
0.0218269
-7.05197e-09
-0.0248532
0.00144529
0.0218269
-0.0248497
0.00144242
0.0218258
6.79236e-08
-0.00851871
0.0216132
-2.84178e-13
-0.00852541
0.0216169
-6.79228e-08
-0.00852541
0.0216169
-0.00851871
0.0216132
1.43312e-07
-0.0120034
0.00831261
-1.34127e-13
-0.0120075
0.00831268
-1.43312e-07
-0.0120075
0.00831268
-0.0120034
0.00831261
-1.82601e-08
-0.00135118
0.00962218
1.32447e-12
-0.00134894
0.00962361
1.82628e-08
-0.00134894
0.00962361
-0.00135118
0.00962218
-1.10775e-08
0.00263945
0.0105834
2.4614e-12
0.00263658
0.0105835
1.10818e-08
0.00263658
0.0105835
0.00263945
0.0105834
-1.75971e-08
-0.00260849
0.01023
3.2633e-12
-0.00260674
0.0102324
1.76021e-08
-0.00260674
0.0102324
-0.00260849
0.01023
-1.46259e-08
0.0108285
4.39808e-12
0.0108299
1.46326e-08
0.0108299
0.0108285
2.22037e-09
0.000698341
0.00407938
-2.06911e-12
0.000698879
0.00407944
-2.22174e-09
0.000698879
0.00407944
0.000698341
0.00407938
-8.17445e-10
0.00177038
0.00255
-1.53761e-12
0.00177078
0.00254949
8.22589e-10
0.00177078
0.00254949
0.00177038
0.00255
3.58456e-09
0.00282078
0.00113393
3.90354e-15
0.0028209
0.00113442
-3.57476e-09
0.0028209
0.00113442
0.00282078
0.00113393
-9.53308e-10
0.00380463
-0.00034049
-9.24689e-13
0.00380431
-0.000340333
9.6364e-10
0.00380431
-0.000340333
0.00380463
-0.00034049
-3.0636e-09
0.00858372
1.83909e-12
0.00858347
3.06407e-09
0.00858347
0.00858372
5.9231e-10
0.00265791
-0.00173917
0.00613393
2.06796e-12
0.00265821
-0.00174006
0.00613413
-5.91956e-10
0.00265821
-0.00174006
0.00613413
0.00265791
-0.00173917
0.00613393
6.94876e-10
0.00378721
0.00445827
2.96776e-12
0.00378714
0.00445835
-6.93314e-10
0.00378714
0.00445835
0.00378721
0.00445827
-1.61082e-09
0.00323969
-0.00364241
-0.022286
4.88972e-13
0.00324044
-0.00364323
-0.0222898
1.61233e-09
0.00324044
-0.00364323
-0.0222898
0.00323969
-0.00364241
-0.022286
5.64516e-09
0.00245302
-0.016885
3.50792e-12
0.00245293
-0.0168831
-5.64631e-09
0.00245293
-0.0168831
0.00245302
-0.016885
5.88553e-09
0.00146342
-0.0108523
-1.27125e-11
0.00146333
-0.0108508
-5.87995e-09
0.00146333
-0.0108508
0.00146342
-0.0108523
3.01298e-09
0.000282033
-0.00489993
9.25885e-12
0.000282052
-0.00489917
-3.02255e-09
0.000282052
-0.00489917
0.000282033
-0.00489993
7.38051e-09
-0.00122109
0.000719163
-4.63076e-12
-0.00122102
0.000719523
-7.38302e-09
-0.00122102
0.000719523
-0.00122109
0.000719163
-8.74962e-09
-0.00285464
0.00543819
-1.68595e-12
-0.00285445
0.00543774
8.76282e-09
-0.00285445
0.00543774
-0.00285464
0.00543819
-3.00196e-08
-0.021559
-0.00484347
-3.51353e-13
-0.0215626
-0.00484181
3.0023e-08
-0.0215626
-0.00484181
-0.021559
-0.00484347
-1.89211e-08
-0.0229285
-0.00457501
-5.31614e-14
-0.0229322
-0.0045739
1.8924e-08
-0.0229322
-0.0045739
-0.0229285
-0.00457501
-1.68015e-08
-0.0232646
-0.00475456
5.59903e-13
-0.0232684
-0.00475399
1.68059e-08
-0.0232684
-0.00475399
-0.0232646
-0.00475456
-1.36619e-08
-0.0243834
-0.00364882
5.01516e-13
-0.0243871
-0.00364927
1.36671e-08
-0.0243871
-0.00364927
-0.0243834
-0.00364882
-9.18194e-09
-0.0248751
-0.00374785
-7.41912e-13
-0.0248787
-0.00374868
9.18411e-09
-0.0248787
-0.00374868
-0.0248751
-0.00374785
-9.33899e-09
-0.0252969
-0.00353987
-1.78094e-12
-0.0253009
-0.00354039
9.33879e-09
-0.0253009
-0.00354039
-0.0252969
-0.00353987
-1.0083e-08
-0.00345714
-0.0254822
-3.46256e-12
-0.00345669
-0.0254875
1.00831e-08
-0.00345669
-0.0254875
-0.00345714
-0.0254822
-1.52252e-08
0.00366288
-0.0160885
-9.72718e-13
0.00366214
-0.0160873
1.52277e-08
0.00366214
-0.0160873
0.00366288
-0.0160885
-1.94649e-08
-0.0128079
-2.27899e-05
3.74676e-12
-0.0128051
-2.57927e-05
1.94728e-08
-0.0128051
-2.57927e-05
-0.0128079
-2.27899e-05
-3.05891e-08
0.000620365
0.00813211
-1.17993e-12
0.000617991
0.00813214
3.05864e-08
0.000617991
0.00813214
0.000620365
0.00813211
-3.46128e-08
0.000990383
0.00736392
-5.26682e-13
0.000987732
0.00736256
3.4611e-08
0.000987732
0.00736256
0.000990383
0.00736392
-5.08506e-08
0.00126894
0.00664377
5.2496e-13
0.00126581
0.00664178
5.08499e-08
0.00126581
0.00664178
0.00126894
0.00664377
-5.16825e-08
0.00111393
0.00605231
1.63353e-12
0.00111107
0.0060519
5.16831e-08
0.00111107
0.0060519
0.00111393
0.00605231
-7.07831e-08
0.0045019
0.000677666
2.47384e-12
0.00449892
0.000676474
7.07844e-08
0.00449892
0.000676474
0.0045019
0.000677666
-5.85058e-09
9.85839e-05
0.00999549
3.37935e-12
9.59823e-05
0.00999615
5.85696e-09
9.59823e-05
0.00999615
9.85839e-05
0.00999549
-1.06862e-09
0.00787928
2.78601e-12
0.00787961
1.07033e-09
0.00787961
0.00787928
5.09423e-09
0.00493868
0.0029279
5.53448e-12
0.00493858
0.002928
-5.09459e-09
0.00493858
0.002928
0.00493868
0.0029279
-2.3552e-10
0.00632594
0.00116273
6.40226e-12
0.00632577
0.0011623
2.35723e-10
0.00632577
0.0011623
0.00632594
0.00116273
8.33801e-09
0.00755975
-9.98823e-05
1.04595e-11
0.00756032
-0.000100124
-8.33746e-09
0.00756032
-0.000100124
0.00755975
-9.98823e-05
-1.60953e-09
0.0087027
-0.00148344
8.07027e-12
0.00870385
-0.00148387
1.60638e-09
0.00870385
-0.00148387
0.0087027
-0.00148344
1.94011e-08
0.00738717
-0.00153913
3.74248e-12
0.00738873
-0.00153931
-1.93981e-08
0.00738873
-0.00153931
0.00738717
-0.00153913
-1.51347e-08
0.000173512
0.0107536
4.91678e-12
0.000171092
0.0107547
1.51428e-08
0.000171092
0.0107547
0.000173512
0.0107536
-1.82875e-08
1.51559e-05
0.0103884
4.07381e-12
1.32966e-05
0.0103902
1.82948e-08
1.32966e-05
0.0103902
1.51559e-05
0.0103884
-2.06266e-08
-0.000446521
0.0100839
1.52323e-12
-0.000448151
0.010085
2.06301e-08
-0.000448151
0.010085
-0.000446521
0.0100839
-2.1433e-08
0.000261812
0.0088313
-8.65649e-13
0.0002603
0.00883305
2.14326e-08
0.0002603
0.00883305
0.000261812
0.0088313
-2.35757e-08
0.000566111
0.00833153
-2.00819e-12
0.000565258
0.00833177
2.35727e-08
0.000565258
0.00833177
0.000566111
0.00833153
-2.3319e-08
0.00139248
0.00730577
-1.66149e-12
0.00139277
0.00730461
2.33154e-08
0.00139277
0.00730461
0.00139248
0.00730577
-1.65274e-08
0.00222972
0.0065267
-3.99846e-13
0.0022315
0.00652381
1.65257e-08
0.0022315
0.00652381
0.00222972
0.0065267
-1.56239e-08
0.00301099
0.00586251
8.48584e-13
0.00301284
0.00586043
1.56237e-08
0.00301284
0.00586043
0.00301099
0.00586251
1.2765e-08
0.00329637
0.00576691
2.10138e-12
0.00329779
0.00576697
-1.27636e-08
0.00329779
0.00576697
0.00329637
0.00576691
-2.93467e-09
0.00532541
0.00247287
3.08937e-12
0.00532306
0.00247364
2.93663e-09
0.00532306
0.00247364
0.00532541
0.00247287
-1.57073e-08
-0.0104618
0.00131684
6.52434e-12
-0.0104606
0.00131764
1.57233e-08
-0.0104606
0.00131764
-0.0104618
0.00131684
-8.65845e-08
-0.0167589
0.00645792
-3.2514e-12
-0.0167601
0.00645852
8.65796e-08
-0.0167601
0.00645852
-0.0167589
0.00645792
1.00225e-07
-0.0304196
0.0231633
0.00869866
-3.25412e-13
-0.0304196
0.0231616
0.00870338
-1.00224e-07
-0.0304196
0.0231616
0.00870338
-0.0304196
0.0231633
0.00869866
7.74508e-08
-0.0397348
0.000796437
-8.2292e-14
-0.0397357
0.000790807
-7.74508e-08
-0.0397357
0.000790807
-0.0397348
0.000796437
7.33186e-08
-0.0500068
-0.000611143
-2.01488e-13
-0.050007
-0.000615098
-7.33184e-08
-0.050007
-0.000615098
-0.0500068
-0.000611143
8.45413e-08
-0.0559602
0.000189649
-3.12972e-13
-0.0559604
0.000183502
-8.45411e-08
-0.0559604
0.000183502
-0.0559602
0.000189649
-1.69808e-08
-0.000923535
-0.0573949
0.00235833
-4.29105e-13
-0.00091361
-0.0574021
0.00235529
1.69809e-08
-0.00091361
-0.0574021
0.00235529
-0.000923535
-0.0573949
0.00235833
5.31654e-08
0.00279006
-0.0575623
-3.06268e-13
0.00280145
-0.0575585
-5.31655e-08
0.00280145
-0.0575585
0.00279006
-0.0575623
-2.58136e-08
-0.0165031
-0.00133966
3.12176e-13
-0.0165056
-0.00133812
2.58178e-08
-0.0165056
-0.00133812
-0.0165031
-0.00133966
-3.46173e-08
-0.0191445
-0.00220197
5.4577e-13
-0.0191474
-0.00220001
3.46217e-08
-0.0191474
-0.00220001
-0.0191445
-0.00220197
-2.28435e-08
-0.0211486
-0.00257088
-7.06044e-13
-0.0211517
-0.00256968
2.2845e-08
-0.0211517
-0.00256968
-0.0211486
-0.00257088
-2.21849e-08
-0.0233284
-0.00257477
5.64261e-13
-0.0233314
-0.00257428
2.21881e-08
-0.0233314
-0.00257428
-0.0233284
-0.00257477
-1.81305e-08
-0.0242604
-0.00271677
1.03839e-12
-0.0242639
-0.00271676
1.81349e-08
-0.0242639
-0.00271676
-0.0242604
-0.00271677
-8.81042e-09
-0.0243971
-0.00361113
-7.72906e-13
-0.0244014
-0.00361118
8.81177e-09
-0.0244014
-0.00361118
-0.0243971
-0.00361113
-1.06854e-08
-0.024508
-0.00342904
-2.80468e-12
-0.0245121
-0.00342975
1.06843e-08
-0.0245121
-0.00342975
-0.024508
-0.00342904
-7.84489e-09
-0.024701
-0.00326412
-5.26584e-12
-0.024705
-0.00326381
7.83832e-09
-0.024705
-0.00326381
-0.024701
-0.00326412
-9.88718e-09
0.00309352
-0.00295057
-0.0248439
-8.25015e-12
0.00309463
-0.00295109
-0.0248485
9.88086e-09
0.00309463
-0.00295109
-0.0248485
0.00309352
-0.00295057
-0.0248439
-1.23481e-08
0.00307365
-0.0254623
-1.15917e-11
0.00307476
-0.0254676
1.23452e-08
0.00307476
-0.0254676
0.00307365
-0.0254623
-7.06539e-10
0.00215672
-0.0213691
-4.5802e-12
0.00215697
-0.021372
6.86109e-10
0.00215697
-0.021372
0.00215672
-0.0213691
4.04583e-09
0.00117411
-0.0159024
5.30714e-12
0.00117415
-0.0159003
-4.05202e-09
0.00117415
-0.0159003
0.00117411
-0.0159024
3.76132e-09
-9.50965e-05
-0.00958308
-7.72659e-12
-9.47261e-05
-0.00958193
-3.73887e-09
-9.4726e-05
-0.00958193
-9.50964e-05
-0.00958308
-4.60666e-10
-0.00158062
-0.0034144
1.59316e-11
-0.00158048
-0.00341342
4.55241e-10
-0.00158048
-0.00341342
-0.00158062
-0.0034144
2.68235e-09
-0.00348705
0.00262559
-3.94156e-12
-0.00348715
0.0026262
-2.68232e-09
-0.00348715
0.0026262
-0.00348705
0.00262559
-1.45928e-08
-0.0061854
0.00813656
-1.15848e-11
-0.00618653
0.00813711
1.45987e-08
-0.00618653
0.00813711
-0.0061854
0.00813656
-1.12066e-08
0.00741203
0.0173802
3.3148e-13
0.00741374
0.0173796
1.12059e-08
0.00741374
0.0173796
0.00741203
0.0173802
8.00484e-08
0.0121599
0.0184153
-5.14384e-13
0.0121589
0.0184165
-8.00477e-08
0.0121589
0.0184165
0.0121599
0.0184153
6.91671e-09
-0.0115497
0.0127515
1.59352e-12
-0.0115483
0.0127505
-6.91447e-09
-0.0115483
0.0127505
-0.0115497
0.0127515
4.2581e-08
-0.0009189
0.00485706
0.013442
9.87043e-13
-0.000920433
0.00485641
0.0134437
-4.25823e-08
-0.000920433
0.00485641
0.0134437
-0.0009189
0.00485706
0.013442
4.60912e-08
0.00743712
-0.00894628
0.0328935
8.11019e-14
0.0074423
-0.00895133
0.0329014
-4.60911e-08
0.0074423
-0.00895133
0.0329014
0.00743712
-0.00894628
0.0328935
1.22725e-07
0.0354375
3.56167e-13
0.0354418
-1.22724e-07
0.0354418
0.0354375
1.19987e-07
0.0543879
-0.0580422
0.00644425
-2.22231e-13
0.0543996
-0.0580397
0.00644158
-1.19987e-07
0.0543996
-0.0580397
0.00644158
0.0543879
-0.0580422
0.00644425
2.54255e-09
0.0557157
0.00315073
3.49315e-14
0.0557277
0.0031545
-2.54288e-09
0.0557277
0.0031545
0.0557157
0.00315073
1.35768e-07
0.0427664
0.000945837
7.48102e-14
0.0427761
0.000944214
-1.35768e-07
0.0427761
0.000944214
0.0427664
0.000945837
3.56702e-08
0.035875
-0.00205489
3.22443e-14
0.0358822
-0.00205744
-3.56698e-08
0.0358822
-0.00205744
0.035875
-0.00205489
-2.2837e-08
0.0102363
0.0252087
0.00042991
9.73872e-14
0.0102292
0.0252168
0.000436131
2.28374e-08
0.0102292
0.0252168
0.000436131
0.0102363
0.0252087
0.00042991
4.79205e-09
0.0152338
0.027896
5.59826e-13
0.015232
0.0278986
-4.79169e-09
0.015232
0.0278986
0.0152338
0.027896
6.91453e-09
-0.00115314
0.00406029
-0.0603021
-4.50122e-13
-0.0011513
0.00405492
-0.0603058
-6.91471e-09
-0.0011513
0.00405492
-0.0603058
-0.00115314
0.00406029
-0.0603021
2.65954e-08
0.00122263
-0.0599381
-3.74638e-13
0.00122483
-0.0599346
-2.65956e-08
0.00122483
-0.0599346
0.00122263
-0.0599381
6.22367e-08
0.00373049
-0.0605501
-3.08144e-13
0.00373345
-0.0605482
-6.22367e-08
0.00373345
-0.0605482
0.00373049
-0.0605501
6.15937e-08
-0.033398
0.0273451
0.0147514
-3.07055e-13
-0.0333917
0.0273386
0.0147565
-6.15932e-08
-0.0333917
0.0273386
0.0147565
-0.033398
0.0273451
0.0147514
7.24691e-08
-0.0415474
0.00894575
-2.84528e-13
-0.0415468
0.00894598
-7.2469e-08
-0.0415468
0.00894598
-0.0415474
0.00894575
9.37086e-08
-0.0480534
0.0058948
-2.75229e-13
-0.0480571
0.00589534
-9.37086e-08
-0.0480571
0.00589534
-0.0480534
0.0058948
1.203e-08
-0.0537328
0.00586899
-3.92333e-13
-0.0537448
0.00587117
-1.20302e-08
-0.0537448
0.00587117
-0.0537328
0.00586899
-6.87411e-09
-0.0581621
0.00678765
-4.2079e-13
-0.0581728
0.00678334
6.87377e-09
-0.0581728
0.00678334
-0.0581621
0.00678765
-3.06887e-08
-0.0607501
0.00664837
-4.36097e-13
-0.0607599
0.00664198
3.06882e-08
-0.0607599
0.00664198
-0.0607501
0.00664837
-5.29733e-08
0.0187795
0.0207256
-5.9054e-13
0.018777
0.0207204
5.29737e-08
0.018777
0.0207204
0.0187795
0.0207256
1.07521e-07
0.015893
0.00737927
1.25012e-13
0.0158993
0.00737375
-1.0752e-07
0.0158993
0.00737375
0.015893
0.00737927
-5.55048e-08
0.0422246
0.00844671
1.55987e-12
0.0422255
0.00844825
5.55042e-08
0.0422255
0.00844825
0.0422246
0.00844671
1.11475e-07
-0.0268794
0.0211616
0.0336137
-5.4945e-14
-0.0268909
0.0211704
0.0336192
-1.11475e-07
-0.0268909
0.0211704
0.0336192
-0.0268794
0.0211616
0.0336137
1.01025e-07
-0.0266847
0.0250139
-1.29861e-13
-0.0266856
0.0250116
-1.01024e-07
-0.0266856
0.0250116
-0.0266847
0.0250139
6.21491e-08
-0.0387423
0.0124875
1.12747e-13
-0.0387367
0.0124873
-6.21486e-08
-0.0387367
0.0124873
-0.0387423
0.0124875
9.84613e-08
-0.0504629
0.00966561
2.45919e-13
-0.0504566
0.00966257
-9.84607e-08
-0.0504566
0.00966257
-0.0504629
0.00966561
8.71276e-08
-0.0528489
0.00333173
3.84323e-13
-0.0528446
0.00333231
-8.71269e-08
-0.0528446
0.00333231
-0.0528489
0.00333173
7.2778e-08
-0.0586598
0.00896159
2.90059e-13
-0.0586545
0.00896447
-7.27773e-08
-0.0586545
0.00896447
-0.0586598
0.00896159
9.51439e-08
-0.0609965
0.00878085
1.08624e-14
-0.0609933
0.00878045
-9.51435e-08
-0.0609933
0.00878045
-0.0609965
0.00878085
6.85955e-08
-0.0615713
0.00430516
-1.93279e-13
-0.0615663
0.00430661
-6.85952e-08
-0.0615663
0.00430661
-0.0615713
0.00430516
-2.44695e-08
-0.00477363
0.00667273
-0.0626492
-4.99292e-13
-0.00477252
0.00666986
-0.0626573
2.4469e-08
-0.00477252
0.00666986
-0.0626573
-0.00477363
0.00667273
-0.0626492
-1.93505e-08
-0.00253447
-0.0625412
-4.99615e-13
-0.00253132
-0.062547
1.935e-08
-0.00253132
-0.062547
-0.00253447
-0.0625412
1.15402e-08
0.000213709
-0.0626863
-3.87275e-13
0.00021707
-0.0626829
-1.15405e-08
0.00021707
-0.0626829
0.000213709
-0.0626863
6.47609e-08
0.00230002
-0.0626365
-3.41863e-13
0.00230038
-0.0626315
-6.47609e-08
0.00230038
-0.0626315
0.00230002
-0.0626365
5.6509e-08
0.00398723
-0.0632586
-3.43663e-13
0.00398697
-0.0632529
-5.6509e-08
0.00398697
-0.0632529
0.00398723
-0.0632586
1.31388e-07
-0.037204
0.0331988
0.0187565
-1.72921e-13
-0.0372022
0.0332064
0.0187524
-1.31388e-07
-0.0372022
0.0332064
0.0187524
-0.037204
0.0331988
0.0187565
8.90544e-08
-0.0429759
0.0147175
-4.0423e-13
-0.0429748
0.0147187
-8.90544e-08
-0.0429748
0.0147187
-0.0429759
0.0147175
1.09077e-07
-0.0492003
0.0121191
-3.15888e-13
-0.0491998
0.0121204
-1.09077e-07
-0.0491998
0.0121204
-0.0492003
0.0121191
4.63309e-08
-0.0541003
0.0107689
-4.83348e-13
-0.0541007
0.0107722
-4.63312e-08
-0.0541007
0.0107722
-0.0541003