/*--------------------------------*- C++ -*----------------------------------*\
| =========                 |                                                 |
| \\      /  F ield         | OpenFOAM: The Open Source CFD Toolbox           |
|  \\    /   O peration     | Version:  v1806                                 |
|   \\  /    A nd           | Web:      www.OpenFOAM.com                      |
|    \\/     M anipulation  |                                                 |
\*---------------------------------------------------------------------------*/
FoamFile
{
    version     2.0;
    format      ascii;
    class       volScalarField;
    location    "340";
    object      p;
}
// * * * * * * * * * * * * * * * * * * * * * * * * * * * * * * * * * * * * * //

dimensions      [0 2 -2 0 0 0 0];


internalField   nonuniform List<scalar> 
2400
(
0.000140269
0.00014308
0.00014783
0.000155939
0.000165745
0.000179482
0.00019367
0.000212769
0.000229779
0.000253031
0.000268989
0.000292657
0.00029987
0.000315646
0.000302319
0.000295644
0.000250491
0.000203969
0.000127676
3.97128e-05
0.000420216
0.000428474
0.000442248
0.000466209
0.000494839
0.000535528
0.000576968
0.000633682
0.000683301
0.000752557
0.000798996
0.000869905
0.000890701
0.000939034
0.000899553
0.000882749
0.000749072
0.000615437
0.000388836
0.000131131
0.000698619
0.000712051
0.000734838
0.000774234
0.000821689
0.00088865
0.000957598
0.00105099
0.00113408
0.00124819
0.00132703
0.00144428
0.00148182
0.00156334
0.00150072
0.0014781
0.00125432
0.00104108
0.000654948
0.000228347
0.000974435
0.000992757
0.00102473
0.00107924
0.00114579
0.00123847
0.00133554
0.0014649
0.00158279
0.00174116
0.00185486
0.00201869
0.00207651
0.00219401
0.0021107
0.00209018
0.00177106
0.00149049
0.000926416
0.000332673
0.00124666
0.00126955
0.00131091
0.0013802
0.00146615
0.00158396
0.00170986
0.00187457
0.0020288
0.00223113
0.00238266
0.00259401
0.00267661
0.00283422
0.00273374
0.00272582
0.00230482
0.0019744
0.00120431
0.000449959
0.0015143
0.00154138
0.00159236
0.00167604
0.00178171
0.00192402
0.00207955
0.00227897
0.00247144
0.00271753
0.0029107
0.00317081
0.00328437
0.00348664
0.00337512
0.0033913
0.00286268
0.00250438
0.00148951
0.000589852
0.00177635
0.00180722
0.00186804
0.00196568
0.00209142
0.00225753
0.00244363
0.00267708
0.00291006
0.0031997
0.00343925
0.0037493
0.00390211
0.00415326
0.00404065
0.00409185
0.00345335
0.00309202
0.0017832
0.000766531
0.00203183
0.00206606
0.00213693
0.00224807
0.0023942
0.00258339
0.00280104
0.00306778
0.00334383
0.00367676
0.00396839
0.00432932
0.00453199
0.00483529
0.00473644
0.00483144
0.00408756
0.00374817
0.0020885
0.000999312
0.00227975
0.00231693
0.002398
0.00252215
0.00268896
0.00290044
0.0031506
0.00344986
0.00377176
0.00414757
0.00449786
0.00491026
0.0051759
0.00553322
0.00546877
0.00561245
0.00477833
0.00448216
0.00241291
0.00131206
0.00251914
0.00255888
0.00265022
0.00278688
0.00297453
0.00320752
0.00349104
0.00382198
0.00419253
0.00461077
0.00502699
0.00549121
0.00583539
0.00624712
0.00624409
0.0064355
0.00554057
0.00530003
0.00277161
0.00173093
0.00274901
0.00279099
0.00289256
0.00304125
0.00324972
0.00350344
0.00382092
0.00418273
0.00460448
0.00506477
0.00555442
0.00607101
0.00651153
0.0069772
0.00706945
0.0073
0.0063906
0.00620098
0.00318974
0.00228184
0.00296842
0.00301237
0.00312402
0.00328424
0.0035133
0.00378702
0.00413866
0.0045306
0.00500555
0.00550763
0.00607787
0.00664798
0.00720427
0.00772449
0.00795325
0.00820662
0.0073476
0.00717247
0.00369931
0.00298812
0.00317643
0.00322218
0.00334357
0.00351488
0.00376399
0.00405708
0.00444254
0.00486408
0.00539327
0.00593718
0.00659391
0.00721928
0.00791134
0.00849024
0.00890477
0.00916275
0.00843994
0.00819018
0.00433055
0.00385727
0.00337211
0.00341957
0.00355026
0.00373221
0.00400055
0.00431244
0.00473076
0.00518157
0.00576476
0.00635125
0.00709796
0.00778143
0.00862667
0.0092719
0.00992993
0.0101881
0.00971504
0.00923819
0.00511334
0.00483857
0.0035546
0.00360374
0.00374314
0.00393528
0.00422175
0.00455186
0.0050015
0.00548138
0.00611697
0.0067474
0.00758437
0.0083312
0.00934071
0.010063
0.0110224
0.0113041
0.0112393
0.0103468
0.00611818
0.00570352
0.00372308
0.00377393
0.00392136
0.00412316
0.00442642
0.00477411
0.00525299
0.00576165
0.00644678
0.00712271
0.00804704
0.00886451
0.0100404
0.0108596
0.012162
0.0124985
0.0130678
0.0116475
0.00758375
0.0059074
0.00387678
0.00392938
0.0040841
0.00429494
0.00461348
0.00497791
0.00548355
0.00602035
0.00675121
0.00747375
0.00847992
0.00937574
0.0107117
0.0116562
0.0133124
0.01377
0.0151722
0.0133266
0.010062
0.00488732
0.00401504
0.00406944
0.00423063
0.00444978
0.00478193
0.00516203
0.00569162
0.0062554
0.00702744
0.00779661
0.00887722
0.00985747
0.0113412
0.0124418
0.0144347
0.0151267
0.0174675
0.0154101
0.0142219
0.00261753
0.00413721
0.00419349
0.00436028
0.00458688
0.00493084
0.00532525
0.00587578
0.00646464
0.00727288
0.00808697
0.00923357
0.0103004
0.0119164
0.0131975
0.0154937
0.0165577
0.0197962
0.0180179
0.0201272
0.000193445
0.00424281
0.00430089
0.00447264
0.00470533
0.00505966
0.00546617
0.00603514
0.00664554
0.00748577
0.00833966
0.00954501
0.0106929
0.0124274
0.013895
0.0164603
0.0180062
0.0220033
0.021397
0.0275827
0.00275221
-4.50764e-05
-0.000125874
-0.000192958
-0.000237142
-0.000262604
-0.000275857
-0.000279673
-0.000275903
-0.000267157
-0.000255923
-0.000119372
-0.000359279
-0.00055782
-0.000688705
-0.000765107
-0.000805626
-0.000818069
-0.000808016
-0.000783323
-0.000751327
-0.000195667
-0.000605959
-0.000939816
-0.00115735
-0.0012846
-0.00135151
-0.00137043
-0.00135155
-0.00130863
-0.00125387
-0.000279431
-0.000877812
-0.0013507
-0.00165266
-0.00182922
-0.00192037
-0.00194214
-0.00191065
-0.00184635
-0.00176634
-0.000375472
-0.00118623
-0.00180046
-0.00218261
-0.00240571
-0.00251725
-0.00253632
-0.00248687
-0.00239694
-0.00228844
-0.000492524
-0.00154559
-0.00230046
-0.00275687
-0.00302257
-0.00314839
-0.00315691
-0.00308251
-0.00296151
-0.0028204
-0.000646246
-0.00197321
-0.00286264
-0.00338653
-0.00368951
-0.00382045
-0.00380789
-0.00369986
-0.00354111
-0.00336233
-0.000862705
-0.00248972
-0.00349957
-0.00408449
-0.00441738
-0.00454033
-0.00449323
-0.00434115
-0.00413658
-0.00391393
-0.00118029
-0.00312003
-0.00422614
-0.00486631
-0.00521825
-0.00531516
-0.00521695
-0.00500847
-0.00474819
-0.00447398
-0.0016483
-0.00389348
-0.00506329
-0.00575199
-0.00610566
-0.00615226
-0.00598298
-0.00570313
-0.00537472
-0.00503907
-0.00232941
-0.004839
-0.00604302
-0.00676861
-0.00709485
-0.00705861
-0.00679384
-0.00642379
-0.00601126
-0.00560145
-0.00331366
-0.00598154
-0.0072124
-0.00795163
-0.00820104
-0.00803781
-0.00764684
-0.00716234
-0.00664566
-0.00614604
-0.00471399
-0.00736787
-0.00863447
-0.00933811
-0.00943102
-0.00908252
-0.00852649
-0.00789773
-0.00725472
-0.00664874
-0.00668035
-0.00908562
-0.0103817
-0.010944
-0.0107667
-0.0101605
-0.00939434
-0.00859104
-0.00780401
-0.00707947
-0.00944783
-0.0112634
-0.0125136
-0.0127305
-0.0121378
-0.0111998
-0.0101851
-0.00919038
-0.00825754
-0.00741387
-0.0134272
-0.0139818
-0.0150349
-0.0145464
-0.0134067
-0.0120952
-0.010826
-0.00965392
-0.00859679
-0.00764692
-0.0189952
-0.0171444
-0.0177942
-0.0161191
-0.0144177
-0.0127631
-0.0112828
-0.00997455
-0.00882754
-0.00779551
-0.0260869
-0.0200491
-0.0203339
-0.0171918
-0.0151175
-0.013195
-0.0115694
-0.0101749
-0.00897407
-0.00789769
-0.034359
-0.0217678
-0.0221163
-0.0177208
-0.0155554
-0.0134338
-0.0117313
-0.0102907
-0.00905686
-0.00795757
-0.048609
-0.0232717
-0.0237605
-0.0180504
-0.0158388
-0.0135537
-0.0118191
-0.0103486
-0.00910268
-0.00811618
-0.000244235
-0.000232907
-0.0002219
-0.000211441
-0.000201271
-0.000191118
-0.000180486
-0.00016924
-0.000157005
-0.000143942
-0.000129768
-0.000115017
-9.94608e-05
-8.4048e-05
-6.84015e-05
-5.38215e-05
-3.94723e-05
-2.69692e-05
-1.47148e-05
-4.62082e-06
-0.000717506
-0.000684605
-0.000652897
-0.000622779
-0.000593513
-0.000564233
-0.000533544
-0.000500973
-0.000465483
-0.000427436
-0.000386066
-0.000342833
-0.000297117
-0.00025164
-0.000205354
-0.000162154
-0.000119628
-8.2626e-05
-4.63413e-05
-1.65813e-05
-0.00119643
-0.00114088
-0.00108771
-0.00103748
-0.000988854
-0.000940237
-0.000889304
-0.00083518
-0.000776187
-0.00071283
-0.000643914
-0.000571786
-0.000495518
-0.000419586
-0.000342336
-0.00027029
-0.000199409
-0.000138018
-7.76767e-05
-2.84596e-05
-0.00168345
-0.001604
-0.00152865
-0.00145802
-0.00138996
-0.00132192
-0.00125057
-0.00117458
-0.00109162
-0.00100233
-0.000905085
-0.000803176
-0.000695398
-0.000588107
-0.000478997
-0.000377494
-0.000277688
-0.000191958
-0.0001075
-3.99676e-05
-0.00217779
-0.00207298
-0.00197481
-0.00188374
-0.00179645
-0.00170913
-0.00161738
-0.00151935
-0.00141205
-0.00129618
-0.00116976
-0.00103706
-0.000896643
-0.000756892
-0.000614838
-0.000483128
-0.000353748
-0.000243798
-0.000135398
-5.11928e-05
-0.00267909
-0.00254719
-0.00242561
-0.00231427
-0.00220817
-0.0021019
-0.00198989
-0.0018697
-0.00173768
-0.00159452
-0.00143799
-0.00127332
-0.00109898
-0.000925468
-0.000749253
-0.000586434
-0.000426816
-0.000292789
-0.000160851
-6.18986e-05
-0.00318684
-0.00302582
-0.00288027
-0.00274906
-0.00262475
-0.00249994
-0.00236785
-0.00222539
-0.00206824
-0.00189703
-0.00170934
-0.00151138
-0.00130174
-0.00109302
-0.000881369
-0.000686433
-0.000495981
-0.000338017
-0.00018323
-7.16738e-05
-0.00369986
-0.00350726
-0.00333723
-0.0031867
-0.00304485
-0.00290191
-0.00274994
-0.00258508
-0.00240236
-0.00220227
-0.00198239
-0.00174983
-0.00150356
-0.0012582
-0.00100999
-0.000781947
-0.000560278
-0.00037852
-0.000201942
-7.99727e-05
-0.00421564
-0.0039883
-0.00379326
-0.00362406
-0.00346529
-0.00330455
-0.00313284
-0.00294547
-0.00273683
-0.00250717
-0.0022543
-0.00198609
-0.00170221
-0.0014191
-0.00113358
-0.000871702
-0.000618835
-0.000413465
-0.000216558
-8.61297e-05
-0.00472886
-0.00446276
-0.00424216
-0.00405497
-0.00387974
-0.00370147
-0.00351027
-0.00330049
-0.00306589
-0.00280648
-0.0025204
-0.00221619
-0.00189447
-0.00157318
-0.00125041
-0.00095449
-0.000671037
-0.000442375
-0.000226976
-8.94831e-05
-0.00522923
-0.00491957
-0.00467325
-0.00446888
-0.00427767
-0.00408235
-0.0038723
-0.00364078
-0.00338097
-0.00309257
-0.00277423
-0.00243486
-0.00207634
-0.00171751
-0.00135869
-0.00102938
-0.00071668
-0.00046526
-0.000233481
-8.95774e-05
-0.00569925
-0.00534152
-0.00507061
-0.00485049
-0.00464425
-0.00443316
-0.00420586
-0.00395436
-0.00367139
-0.00335624
-0.00300814
-0.00263606
-0.00224357
-0.00184997
-0.00145692
-0.00109595
-0.000756146
-0.000482788
-0.000236765
-8.62859e-05
-0.00611406
-0.00570656
-0.00541496
-0.00518181
-0.00496282
-0.00473865
-0.00449705
-0.00422878
-0.00392624
-0.00358829
-0.00321466
-0.00281445
-0.00239169
-0.00196674
-0.00154408
-0.00115442
-0.000790473
-0.000496424
-0.000238003
-7.99962e-05
-0.0064467
-0.00599415
-0.00568964
-0.005448
-0.00522025
-0.00498712
-0.00473527
-0.0044545
-0.00413719
-0.00378163
-0.00338818
-0.00296464
-0.00251777
-0.00206705
-0.00161978
-0.00120545
-0.000821027
-0.000507949
-0.000238623
-7.16839e-05
-0.00668014
-0.00619563
-0.00588877
-0.00564423
-0.00541265
-0.00517496
-0.00491686
-0.00462782
-0.00430067
-0.00393264
-0.00352493
-0.00308491
-0.00262037
-0.00215008
-0.00168405
-0.00125003
-0.000849386
-0.000519444
-0.000240386
-6.27531e-05
-0.00681549
-0.00631787
-0.00601903
-0.00577658
-0.00554526
-0.00530598
-0.00504434
-0.00475012
-0.00441613
-0.00404145
-0.00362516
-0.0031748
-0.00269907
-0.00221588
-0.00173746
-0.00128946
-0.00087722
-0.000533096
-0.000245224
-5.48184e-05
-0.00687333
-0.00638306
-0.00609822
-0.00585995
-0.00563002
-0.00538933
-0.00512468
-0.00482707
-0.00448954
-0.0041107
-0.00369037
-0.00323531
-0.00275469
-0.0022654
-0.00178113
-0.00132523
-0.000906182
-0.000550986
-0.000255029
-4.93281e-05
-0.00688666
-0.00641731
-0.00614536
-0.00590917
-0.00567843
-0.00543422
-0.00516545
-0.0048648
-0.00452444
-0.00414404
-0.00372348
-0.0032688
-0.00278926
-0.00230047
-0.00181676
-0.00135905
-0.000937817
-0.000574841
-0.000271402
-4.71559e-05
-0.00688041
-0.00643124
-0.0061688
-0.00593146
-0.00569702
-0.00544703
-0.00517278
-0.00486808
-0.00452596
-0.00414606
-0.00372854
-0.00327883
-0.00280583
-0.00232371
-0.00184652
-0.00139269
-0.000973368
-0.000605661
-0.000295261
-4.86047e-05
-0.00690085
-0.00641704
-0.00616618
-0.0059277
-0.00568909
-0.00543259
-0.00515219
-0.00484315
-0.00449991
-0.00412229
-0.00371064
-0.00326989
-0.00280825
-0.00233821
-0.00187272
-0.00142758
-0.00101348
-0.000643359
-0.000326815
-5.33138e-05
-0.00676779
-0.00633805
-0.00613133
-0.00590078
-0.00566122
-0.00539982
-0.00511404
-0.00479974
-0.0044574
-0.0040831
-0.00367876
-0.00324901
-0.00280118
-0.00234601
-0.00189477
-0.00146082
-0.00105361
-0.000682265
-0.000362045
-5.88976e-05
-0.00650297
-0.00626055
-0.00608428
-0.00586584
-0.00562667
-0.00536146
-0.00507099
-0.00475365
-0.00441045
-0.00403948
-0.00364272
-0.0032244
-0.00279088
-0.00235113
-0.00191462
-0.00149229
-0.00109217
-0.000720062
-0.00039733
-6.41696e-05
-0.00630833
-0.0061908
-0.00603377
-0.00582644
-0.00558747
-0.0053181
-0.00502246
-0.00470146
-0.00435747
-0.00399012
-0.00360168
-0.00319597
-0.00277822
-0.00235551
-0.00193516
-0.00152556
-0.00113293
-0.000761196
-0.000430029
-7.99222e-05
-0.00618112
-0.00613528
-0.00599137
-0.00579008
-0.00554909
-0.00527406
-0.00497214
-0.00464671
-0.00430149
-0.00393771
-0.00355795
-0.00316556
-0.00276451
-0.00235985
-0.00195654
-0.00156033
-0.00117535
-0.000803974
-0.000464126
-9.4316e-05
-0.00612009
-0.00610553
-0.00596549
-0.00576309
-0.00551616
-0.005233
-0.00492315
-0.00459218
-0.00424509
-0.00388458
-0.0035135
-0.00313467
-0.00275073
-0.0023646
-0.00197872
-0.00159613
-0.00121879
-0.000847456
-0.000498938
-0.000108594
-0.00612966
-0.00610692
-0.00596096
-0.00574897
-0.00549136
-0.00519717
-0.00487759
-0.00453989
-0.00419021
-0.0038325
-0.00346981
-0.0031044
-0.00273748
-0.00236986
-0.00200136
-0.00163234
-0.00126248
-0.000890828
-0.000533456
-0.000123326
-0.00621055
-0.00613943
-0.00597784
-0.0057481
-0.00547515
-0.0051672
-0.00483633
-0.0044909
-0.00413804
-0.00378262
-0.00342784
-0.00307536
-0.00272495
-0.00237539
-0.00202384
-0.00166811
-0.00130548
-0.00093327
-0.000567102
-0.000138157
-0.00635946
-0.00619612
-0.00601065
-0.00575646
-0.00546531
-0.00514213
-0.00479908
-0.00444542
-0.00408904
-0.00373551
-0.00338807
-0.00304779
-0.00271304
-0.00238069
-0.00204534
-0.00170238
-0.00134673
-0.000973805
-0.00059963
-0.000152482
-0.00657997
-0.00626385
-0.006051
-0.00576794
-0.00545781
-0.00511945
-0.00476453
-0.00440292
-0.00404312
-0.00369129
-0.00335061
-0.00302164
-0.00270141
-0.00238508
-0.00206487
-0.001734
-0.00138501
-0.00101119
-0.000630459
-0.000166963
-0.00688274
-0.00633907
-0.00608529
-0.00577576
-0.00544808
-0.00509636
-0.00473101
-0.00436253
-0.00399994
-0.00364986
-0.00331543
-0.00299677
-0.00268967
-0.00238787
-0.00208142
-0.00176173
-0.00141887
-0.00104714
-0.000653873
-0.000186285
-0.00698555
-0.00642146
-0.00610715
-0.00577467
-0.00542949
-0.00506526
-0.00469013
-0.0043153
-0.00395045
-0.00360277
-0.00327538
-0.00296788
-0.00267484
-0.00238849
-0.00209675
-0.00178923
-0.00145375
-0.00108399
-0.000679344
-0.000209031
-0.00693433
-0.00641396
-0.00608083
-0.00574001
-0.00538497
-0.00501369
-0.00463363
-0.00425641
-0.00389231
-0.00354908
-0.00322973
-0.0029336
-0.00265403
-0.0023823
-0.00210427
-0.0018085
-0.00148042
-0.00111327
-0.000702485
-0.000230275
-0.00692854
-0.00637762
-0.00602209
-0.00567566
-0.00531646
-0.00494418
-0.00456537
-0.00419113
-0.00383161
-0.00349487
-0.00318365
-0.00289728
-0.00262816
-0.0023674
-0.00209929
-0.00181249
-0.00149039
-0.00112702
-0.000714663
-0.000245736
-0.00686947
-0.00630787
-0.0059301
-0.00557972
-0.00522053
-0.00485197
-0.00447982
-0.00411377
-0.00376294
-0.00343524
-0.00313283
-0.00285527
-0.0025942
-0.00234132
-0.00207983
-0.00179961
-0.00148234
-0.00112428
-0.000713657
-0.000255123
-0.00673346
-0.00618411
-0.00579185
-0.00544147
-0.00508817
-0.00472891
-0.00436886
-0.00401624
-0.00367841
-0.00336272
-0.00307051
-0.00280171
-0.00254741
-0.00230049
-0.00204357
-0.00176856
-0.00145574
-0.00110517
-0.000699328
-0.000258056
-0.00649381
-0.00598055
-0.00559005
-0.0052473
-0.00490761
-0.00456461
-0.00422253
-0.00388858
-0.00356819
-0.00326787
-0.00298798
-0.00272895
-0.0024815
-0.00224018
-0.00198738
-0.00171783
-0.00141037
-0.00107036
-0.000673017
-0.00025482
-0.00615079
-0.00569057
-0.00531844
-0.00499174
-0.00467272
-0.00435251
-0.00403379
-0.00372303
-0.00342397
-0.00314227
-0.0028772
-0.00262979
-0.0023906
-0.00215608
-0.00190868
-0.00164639
-0.00134651
-0.00102051
-0.000636829
-0.00024607
-0.00572878
-0.00532684
-0.00498447
-0.00468036
-0.00438663
-0.00409366
-0.00380215
-0.00351774
-0.00324283
-0.00298226
-0.00273437
-0.00250073
-0.00227192
-0.00204636
-0.00180673
-0.00155452
-0.00126565
-0.000957578
-0.000592882
-0.000232415
-0.00526092
-0.00491452
-0.00460673
-0.00432868
-0.00406171
-0.00379722
-0.00353418
-0.00327723
-0.00302763
-0.00278958
-0.00256057
-0.00234264
-0.0021265
-0.00191247
-0.00168364
-0.00144472
-0.00117081
-0.000883886
-0.000543459
-0.000214594
-0.00477325
-0.00447681
-0.00420427
-0.00395351
-0.00371303
-0.00347621
-0.00324097
-0.00301091
-0.00278638
-0.00257105
-0.00236178
-0.00216095
-0.00195951
-0.0017594
-0.00154434
-0.00132152
-0.00106622
-0.000802762
-0.000490725
-0.000193716
-0.00428148
-0.00402931
-0.00379088
-0.00356752
-0.00335276
-0.00314216
-0.00293325
-0.00272878
-0.0025284
-0.00233532
-0.00214604
-0.00196314
-0.00177798
-0.00159364
-0.00139485
-0.00119025
-0.000956421
-0.000717793
-0.000436817
-0.000171244
-0.00379365
-0.00358081
-0.00337474
-0.00317842
-0.00298865
-0.00280294
-0.00261892
-0.0024387
-0.00226142
-0.00208994
-0.00192063
-0.00175615
-0.00158845
-0.00142122
-0.00124061
-0.00105567
-0.000845286
-0.00063214
-0.000383445
-0.000148557
-0.00331348
-0.00313577
-0.00296014
-0.00279024
-0.00262489
-0.00246309
-0.00230281
-0.00214574
-0.00199073
-0.0018403
-0.00169092
-0.00154517
-0.0013958
-0.00124668
-0.00108562
-0.000921297
-0.000735494
-0.000548024
-0.00033169
-0.000126669
-0.00284255
-0.00269633
-0.0025492
-0.00240493
-0.00226349
-0.00212488
-0.00198752
-0.00185279
-0.00171946
-0.00158968
-0.00146023
-0.00133349
-0.00120313
-0.00107283
-0.000932284
-0.000789194
-0.000628507
-0.000466656
-0.000282047
-0.000106119
-0.00238143
-0.00226352
-0.00214301
-0.00202344
-0.00190536
-0.00178937
-0.00167431
-0.00156135
-0.00144928
-0.0013399
-0.00123042
-0.00112291
-0.00101209
-0.000901165
-0.000781752
-0.000660299
-0.000524854
-0.000388447
-0.000234587
-8.70413e-05
-0.00193018
-0.00183779
-0.00174212
-0.00164624
-0.00155094
-0.00145705
-0.0013638
-0.00127215
-0.00118102
-0.00109187
-0.0010024
-0.000914321
-0.000823382
-0.000732249
-0.000634349
-0.000534795
-0.000424481
-0.000313289
-0.000189124
-6.93115e-05
-0.00148847
-0.00141924
-0.0013468
-0.00127361
-0.00120044
-0.00112817
-0.00105628
-0.000985548
-0.000915083
-0.000846023
-0.000776552
-0.000708025
-0.000637195
-0.00056613
-0.000489936
-0.000412427
-0.000327009
-0.000240785
-0.000145334
-5.26754e-05
-0.00105575
-0.00100777
-0.000957164
-0.000905729
-0.00085407
-0.000802932
-0.000751985
-0.000701818
-0.000651749
-0.00060261
-0.000553077
-0.000504148
-0.000453516
-0.00040267
-0.00034822
-0.000292801
-0.000231983
-0.000170473
-0.000102877
-3.68507e-05
-0.00063192
-0.000603682
-0.000573737
-0.000543189
-0.000512406
-0.000481894
-0.000451446
-0.000421459
-0.000391472
-0.000362029
-0.000332282
-0.000302884
-0.000272408
-0.000241792
-0.000209005
-0.000175614
-0.000139078
-0.000102025
-6.15826e-05
-2.17244e-05
-0.000215047
-0.000205402
-0.0001951
-0.000184614
-0.000174058
-0.000163631
-0.000153231
-0.000143025
-0.000132816
-0.000122823
-0.000112712
-0.000102741
-9.23884e-05
-8.19906e-05
-7.0861e-05
-5.94954e-05
-4.71332e-05
-3.44964e-05
-2.09085e-05
-7.23903e-06
-0.0467794
-0.0226829
-0.0235766
-0.0178235
-0.0156062
-0.0133609
-0.0116735
-0.0102637
-0.00908177
-0.00815099
-0.0301241
-0.0208419
-0.0213182
-0.0173595
-0.0152167
-0.0132051
-0.0115595
-0.0101831
-0.00901288
-0.00796365
-0.0217536
-0.0184866
-0.0190109
-0.0165728
-0.0146117
-0.0128462
-0.0113274
-0.0100212
-0.00889531
-0.00788528
-0.0148575
-0.0148942
-0.0158273
-0.01498
-0.01363
-0.0122167
-0.0109053
-0.00972525
-0.00867623
-0.00773001
-0.00980452
-0.0116199
-0.012853
-0.0129694
-0.0122896
-0.0113027
-0.0102658
-0.00926716
-0.00833827
-0.00749212
-0.00645213
-0.00906195
-0.0104111
-0.010976
-0.0107984
-0.0101979
-0.00944073
-0.00864981
-0.0078733
-0.00714765
-0.00421152
-0.00712211
-0.00847386
-0.0092147
-0.00935253
-0.00904989
-0.00852972
-0.00792866
-0.00730503
-0.00670238
-0.00270769
-0.00559178
-0.00693904
-0.00773112
-0.00804531
-0.00795283
-0.00761761
-0.0071722
-0.00668144
-0.0061891
-0.00172189
-0.00436123
-0.00570948
-0.00650086
-0.00689695
-0.00694337
-0.0067479
-0.00642551
-0.00604334
-0.00564388
-0.00109229
-0.0033866
-0.00470522
-0.00547203
-0.00589585
-0.00602736
-0.00593484
-0.005709
-0.00541422
-0.00509151
-0.000702209
-0.00263284
-0.00386882
-0.00459783
-0.00502045
-0.00519915
-0.00517955
-0.0050288
-0.00480442
-0.00454521
-0.000469989
-0.00205217
-0.00316429
-0.00384507
-0.0042504
-0.00444986
-0.00447869
-0.00438507
-0.00421728
-0.00401087
-0.000330368
-0.0016025
-0.00256925
-0.00319056
-0.00356814
-0.00377003
-0.00382772
-0.00377594
-0.00365315
-0.00349068
-0.000240401
-0.00125068
-0.00206618
-0.0026167
-0.00295838
-0.00315013
-0.00322166
-0.00319885
-0.00311122
-0.00298518
-0.000177221
-0.000970548
-0.00163813
-0.00210904
-0.00240803
-0.00258096
-0.00265523
-0.00265093
-0.00259014
-0.00249416
-0.000129875
-0.000741369
-0.00126917
-0.00165524
-0.00190596
-0.00205397
-0.00212301
-0.00212904
-0.00208819
-0.00201692
-9.29927e-05
-0.000547554
-0.000945286
-0.0012444
-0.00144261
-0.00156133
-0.00161956
-0.00162976
-0.00160339
-0.00155247
-6.36117e-05
-0.000377926
-0.00065462
-0.000866765
-0.00100956
-0.00109594
-0.00113959
-0.00114959
-0.00113354
-0.0010996
-3.96667e-05
-0.00022464
-0.000387637
-0.000513991
-0.000599832
-0.000651999
-0.000678757
-0.000685641
-0.000676999
-0.000657522
-1.7286e-05
-7.96306e-05
-0.00013436
-0.000176848
-0.000205671
-0.00022304
-0.000231795
-0.000233868
-0.000230701
-0.000223841
0.00440537
0.00446493
0.0046367
0.00487361
0.00522895
0.00564127
0.00620964
0.00682691
0.00766291
0.00852434
0.00971852
0.0108746
0.0125872
0.0140638
0.0165937
0.018141
0.0220939
0.0214102
0.0272473
0.00244184
0.00432391
0.00438174
0.00454807
0.00477885
0.00512288
0.00552257
0.00607011
0.00666408
0.00746294
0.0082802
0.00940493
0.0104701
0.0120418
0.0133102
0.0155186
0.0165448
0.0195579
0.0177981
0.0189162
0.00173085
0.00422064
0.00427678
0.00443691
0.00465984
0.00499078
0.00537511
0.00589883
0.00646513
0.00722173
0.00798868
0.00903483
0.0100033
0.0114158
0.0124892
0.0143286
0.0149929
0.0169132
0.0151079
0.0129092
0.00469417
0.00409628
0.00415091
0.00430381
0.00451784
0.00483352
0.00520095
0.00569723
0.00623387
0.00694211
0.00765745
0.00861463
0.00949121
0.0107256
0.0116389
0.0130739
0.0135378
0.0144236
0.0129662
0.00927129
0.00638111
0.00395174
0.00400495
0.00414972
0.00435401
0.00465251
0.00500189
0.00546758
0.00597343
0.00662832
0.00729266
0.00815316
0.00894614
0.0099919
0.0107806
0.0118152
0.0121793
0.0122762
0.0113359
0.00725368
0.00644315
0.00378801
0.00383985
0.00397569
0.00416955
0.00444927
0.00477972
0.00521234
0.00568686
0.0062849
0.0068997
0.00765981
0.00837736
0.00923673
0.00992516
0.0106118
0.0109133
0.0105155
0.0100052
0.00597416
0.00548458
0.00360618
0.0036566
0.0037829
0.00396575
0.00422546
0.00453626
0.00493414
0.00537697
0.00591657
0.00648317
0.00714399
0.00779165
0.0084802
0.0090795
0.00949337
0.00976302
0.00907563
0.00877806
0.00502095
0.00432975
0.00340741
0.00345629
0.00357259
0.00374391
0.0039828
0.00427327
0.00463566
0.00504636
0.00552799
0.00604699
0.00661417
0.00719471
0.00773585
0.00825603
0.00846824
0.00870376
0.00786728
0.00760907
0.00427689
0.00331972
0.0031929
0.00323999
0.00334605
0.00350534
0.00372307
0.00399249
0.0043195
0.00469747
0.00512332
0.00559482
0.00607688
0.00659299
0.00701195
0.00745894
0.00752874
0.00771183
0.00682788
0.00651666
0.00369038
0.00252214
0.00296392
0.00300886
0.00310464
0.0032514
0.00344799
0.00369562
0.00398808
0.00433271
0.00470606
0.00513033
0.00553692
0.00599091
0.00631155
0.00668778
0.00666303
0.00678015
0.00592089
0.00552966
0.00321466
0.00192673
0.0027217
0.00276406
0.00284967
0.00298346
0.00315922
0.00338439
0.00364355
0.00395438
0.00427908
0.00465652
0.00499741
0.00539137
0.0056348
0.00594254
0.00586085
0.00590924
0.00512126
0.00465945
0.00280683
0.00149735
0.0024675
0.00250682
0.00258249
0.00270291
0.00285832
0.00306049
0.00328782
0.00356458
0.00384458
0.00417591
0.00446015
0.00479656
0.00498057
0.00522397
0.0051137
0.00510003
0.00440783
0.00390222
0.0024375
0.00119072
0.00220257
0.00223841
0.00230439
0.00241115
0.00254678
0.00272552
0.00292253
0.00316522
0.00340425
0.00369057
0.00392609
0.00420815
0.00434712
0.00453254
0.00441382
0.00435096
0.00376223
0.00324553
0.00209181
0.00096627
0.00192817
0.0019601
0.0020167
0.00210955
0.00222597
0.00238103
0.00254915
0.00275801
0.00295936
0.00320218
0.00339557
0.00362722
0.00373228
0.0038678
0.00375374
0.00365776
0.00316951
0.00267339
0.00176451
0.000792146
0.00164555
0.0016732
0.00172068
0.00179949
0.00189722
0.00202848
0.00216894
0.00234441
0.00251085
0.00271196
0.00286852
0.00305418
0.00313354
0.00322817
0.00312645
0.0030141
0.00261828
0.00216896
0.00145474
0.000646509
0.00135595
0.00137902
0.00141763
0.00148228
0.00156177
0.00166922
0.00178302
0.00192568
0.00205939
0.00222074
0.00234449
0.00248875
0.00254813
0.00261096
0.00252554
0.00241231
0.00209989
0.00171615
0.00116204
0.000516273
0.00106062
0.00107888
0.00110879
0.00115924
0.00122084
0.00130451
0.00139242
0.00150288
0.00160549
0.00172897
0.00182279
0.00193002
0.0019732
0.00201259
0.00194522
0.00184403
0.00160733
0.0013009
0.000884889
0.000394439
0.00076081
0.000774067
0.000795433
0.000831656
0.000875615
0.000935564
0.000998137
0.00107691
0.00114957
0.00123682
0.00130263
0.00137659
0.00140591
0.00142886
0.00138016
0.00130085
0.00113437
0.000911741
0.00062076
0.000277188
0.00045778
0.000465873
0.000478796
0.000500722
0.000527235
0.000563445
0.000601082
0.000648489
0.000692006
0.000744173
0.000783296
0.000826748
0.000843701
0.000855346
0.000825602
0.00077494
0.000675359
0.000539813
0.000366562
0.000162548
0.000152832
0.000155575
0.000160027
0.000167428
0.00017648
0.000188676
0.000201496
0.000217416
0.000232224
0.000249659
0.000262953
0.000277295
0.000283026
0.000286427
0.000276304
0.000258537
0.000224798
0.000178463
0.000119848
5.10565e-05
0.00432276
0.0043819
0.004558
0.00479433
0.00515732
0.00557157
0.00615591
0.00678045
0.00764727
0.00852839
0.00978248
0.0109896
0.0128221
0.0144404
0.017225
0.0192303
0.0237684
0.0249941
0.0336663
0.0207863
0.00438269
0.00444292
0.00462178
0.00486121
0.00522995
0.00565059
0.00624519
0.00688129
0.00776598
0.00866935
0.00995667
0.0112124
0.0131135
0.014857
0.0178011
0.0201957
0.0251251
0.0278714
0.0366451
0.0332632
0.00443146
0.00449263
0.00467343
0.00491551
0.00528837
0.00571434
0.0063163
0.00696199
0.00785954
0.00878131
0.0100928
0.0113888
0.0133408
0.0151893
0.0182554
0.0209772
0.0262041
0.0301118
0.0391016
0.0407229
0.004469
0.00453082
0.00471294
0.00495692
0.00533261
0.00576233
0.00636927
0.00702163
0.00792783
0.0088624
0.0101901
0.0115144
0.0135008
0.015424
0.0185731
0.0215299
0.0269501
0.0316595
0.040702
0.0450271
0.00449521
0.00455741
0.00474025
0.00498532
0.00536254
0.00579435
0.0064039
0.00705987
0.00797044
0.00891174
0.0102475
0.0115866
0.0135902
0.0155526
0.0187436
0.0218235
0.0273412
0.0324578
0.0415263
0.0469969
0.00451004
0.00457238
0.00475527
0.00500067
0.00537808
0.00581034
0.00642004
0.00707654
0.00798711
0.00892894
0.0102645
0.0116041
0.0136072
0.0155705
0.0187616
0.0218442
0.0273658
0.0324939
0.0415806
0.0470919
0.00451349
0.00457569
0.00475802
0.00500295
0.00537923
0.0058103
0.00641771
0.00707159
0.00797783
0.00891398
0.0102408
0.0115669
0.0135518
0.0154778
0.0186266
0.0215915
0.0270227
0.0317664
0.0408626
0.0453164
0.00450558
0.00456737
0.00474852
0.00499219
0.00536606
0.0057943
0.00639705
0.00704532
0.00794293
0.00886737
0.0101775
0.0114765
0.0134258
0.0152792
0.0183441
0.0210795
0.0263219
0.0302851
0.039355
0.0412298
0.0044864
0.00454745
0.00472684
0.00496852
0.0053387
0.00576254
0.00635828
0.00699805
0.00788281
0.00879005
0.0100754
0.0113356
0.0132324
0.0149834
0.0179241
0.0203387
0.0252826
0.0281063
0.0369688
0.0339634
0.00445597
0.00451618
0.00469286
0.0049323
0.00529701
0.00571565
0.00630118
0.00693092
0.0077973
0.00868426
0.00993475
0.0111491
0.0129741
0.0146045
0.0173805
0.0194138
0.0239607
0.0252717
0.0341479
0.0217283
)
;

boundaryField
{
    inlet
    {
        type            zeroGradient;
    }
    outlet
    {
        type            fixedValue;
        value           uniform 0;
    }
    upAndBottom
    {
        type            empty;
    }
    obstacle
    {
        type            zeroGradient;
    }
}


// ************************************************************************* //
