/*--------------------------------*- C++ -*----------------------------------*\
| =========                 |                                                 |
| \\      /  F ield         | OpenFOAM: The Open Source CFD Toolbox           |
|  \\    /   O peration     | Version:  v1806                                 |
|   \\  /    A nd           | Web:      www.OpenFOAM.com                      |
|    \\/     M anipulation  |                                                 |
\*---------------------------------------------------------------------------*/
FoamFile
{
    version     2.0;
    format      ascii;
    class       volVectorField;
    location    "80";
    object      U;
}
// * * * * * * * * * * * * * * * * * * * * * * * * * * * * * * * * * * * * * //

dimensions      [0 1 -1 0 0 0 0];


internalField   nonuniform List<vector> 
4400
(
(0.237357 0.249972 0)
(0.286011 0.18131 0)
(0.300882 0.136683 0)
(0.308652 0.107086 0)
(0.313577 0.0880905 0)
(0.316163 0.0762243 0)
(0.317082 0.0683931 0)
(0.317074 0.0626928 0)
(0.316546 0.0582491 0)
(0.315693 0.0546512 0)
(0.314623 0.0516764 0)
(0.313402 0.0491885 0)
(0.312078 0.0470974 0)
(0.310684 0.0453397 0)
(0.309243 0.0438693 0)
(0.307771 0.0426521 0)
(0.306278 0.0416627 0)
(0.304772 0.040885 0)
(0.303281 0.0402975 0)
(0.301981 0.039835 0)
(0.247981 0.133368 0)
(0.273306 0.0985811 0)
(0.288931 0.0884696 0)
(0.300714 0.0828387 0)
(0.307137 0.0767131 0)
(0.310394 0.0705626 0)
(0.31214 0.0649841 0)
(0.312977 0.06019 0)
(0.313166 0.056158 0)
(0.312887 0.0527838 0)
(0.312276 0.0499539 0)
(0.311429 0.0475715 0)
(0.310418 0.0455616 0)
(0.30929 0.0438685 0)
(0.308083 0.0424506 0)
(0.306819 0.041277 0)
(0.305516 0.0403253 0)
(0.304186 0.0395806 0)
(0.302861 0.0390214 0)
(0.3017 0.0385961 0)
(0.225686 0.100592 0)
(0.256936 0.100672 0)
(0.278278 0.094232 0)
(0.291326 0.0843896 0)
(0.29937 0.0749649 0)
(0.304433 0.0674404 0)
(0.307511 0.0616916 0)
(0.309247 0.0571846 0)
(0.31008 0.053516 0)
(0.310298 0.0504526 0)
(0.310086 0.0478606 0)
(0.309573 0.0456553 0)
(0.308845 0.0437783 0)
(0.307965 0.0421868 0)
(0.306976 0.0408483 0)
(0.305911 0.0397382 0)
(0.30479 0.0388382 0)
(0.303632 0.0381358 0)
(0.302468 0.0376124 0)
(0.301443 0.0372248 0)
(0.243304 0.068316 0)
(0.263774 0.070079 0)
(0.277729 0.0683474 0)
(0.288172 0.0659884 0)
(0.295701 0.063174 0)
(0.300797 0.059948 0)
(0.304129 0.0565791 0)
(0.306224 0.0533426 0)
(0.307436 0.0503909 0)
(0.308006 0.0477726 0)
(0.30811 0.0454828 0)
(0.307873 0.0434962 0)
(0.307391 0.0417835 0)
(0.306731 0.0403184 0)
(0.305942 0.0390787 0)
(0.305061 0.0380467 0)
(0.304112 0.0372091 0)
(0.303116 0.0365563 0)
(0.302106 0.0360729 0)
(0.301212 0.0357243 0)
(0.245954 0.0517785 0)
(0.261396 0.059375 0)
(0.274851 0.0620373 0)
(0.28516 0.0611975 0)
(0.292564 0.0585621 0)
(0.297766 0.0554065 0)
(0.301345 0.0523492 0)
(0.30372 0.0495669 0)
(0.305204 0.0470727 0)
(0.30603 0.044847 0)
(0.306371 0.0428704 0)
(0.306355 0.0411268 0)
(0.306077 0.0396018 0)
(0.305606 0.0382824 0)
(0.304993 0.0371566 0)
(0.304277 0.0362143 0)
(0.303486 0.0354474 0)
(0.302642 0.03485 0)
(0.301776 0.03441 0)
(0.301006 0.0341002 0)
(0.257657 0.0394544 0)
(0.268432 0.0459442 0)
(0.277724 0.0490669 0)
(0.28539 0.0500365 0)
(0.291491 0.0497397 0)
(0.296125 0.0486494 0)
(0.2995 0.0470879 0)
(0.301862 0.0453066 0)
(0.303432 0.0434824 0)
(0.304392 0.041723 0)
(0.304888 0.040086 0)
(0.305033 0.0385986 0)
(0.304915 0.0372714 0)
(0.304599 0.0361067 0)
(0.304138 0.0351028 0)
(0.303568 0.0342567 0)
(0.302918 0.0335655 0)
(0.302212 0.0330267 0)
(0.30148 0.0326317 0)
(0.300825 0.0323598 0)
(0.263616 0.0311118 0)
(0.271182 0.0379606 0)
(0.27876 0.0421287 0)
(0.28544 0.0440486 0)
(0.29087 0.0443932 0)
(0.295072 0.0437822 0)
(0.298213 0.0426707 0)
(0.300482 0.0413356 0)
(0.302051 0.039928 0)
(0.303067 0.0385318 0)
(0.303653 0.0371969 0)
(0.303907 0.0359544 0)
(0.303908 0.0348236 0)
(0.303716 0.0338155 0)
(0.30338 0.0329365 0)
(0.302935 0.0321895 0)
(0.302411 0.0315762 0)
(0.301829 0.0310974 0)
(0.301218 0.0307477 0)
(0.300668 0.0305121 0)
(0.271076 0.0251121 0)
(0.276543 0.0308208 0)
(0.28201 0.0346981 0)
(0.286985 0.0369676 0)
(0.291263 0.0380484 0)
(0.294765 0.0382852 0)
(0.297506 0.0379412 0)
(0.299562 0.037226 0)
(0.301037 0.0363003 0)
(0.302037 0.0352789 0)
(0.302654 0.0342392 0)
(0.30297 0.0332321 0)
(0.303053 0.0322904 0)
(0.302955 0.0314347 0)
(0.302719 0.0306783 0)
(0.30238 0.0300294 0)
(0.301964 0.0294934 0)
(0.301491 0.029074 0)
(0.300989 0.0287687 0)
(0.300533 0.0285672 0)
(0.276151 0.0204163 0)
(0.280052 0.0256365 0)
(0.284256 0.0294489 0)
(0.288285 0.0319172 0)
(0.291842 0.0332865 0)
(0.294807 0.0338353 0)
(0.297173 0.0338151 0)
(0.298988 0.0334241 0)
(0.300325 0.0328069 0)
(0.30126 0.0320648 0)
(0.301866 0.0312687 0)
(0.302208 0.0304686 0)
(0.302341 0.0296997 0)
(0.30231 0.0289867 0)
(0.302154 0.0283469 0)
(0.301901 0.0277921 0)
(0.301576 0.0273307 0)
(0.301198 0.0269685 0)
(0.300791 0.0267056 0)
(0.300419 0.0265356 0)
(0.281161 0.0169354 0)
(0.284006 0.0213 0)
(0.287088 0.0246821 0)
(0.290094 0.0270652 0)
(0.292834 0.0285912 0)
(0.295201 0.0294328 0)
(0.297153 0.0297513 0)
(0.298695 0.0296893 0)
(0.299861 0.029367 0)
(0.3007 0.0288803 0)
(0.301264 0.0283024 0)
(0.301602 0.0276872 0)
(0.30176 0.0270742 0)
(0.301774 0.0264915 0)
(0.301676 0.0259594 0)
(0.301493 0.0254925 0)
(0.301244 0.0251012 0)
(0.300947 0.0247929 0)
(0.300623 0.0245696 0)
(0.300324 0.024428 0)
(0.284976 0.0139956 0)
(0.287035 0.0178227 0)
(0.289343 0.0208818 0)
(0.291669 0.0231444 0)
(0.293836 0.0246876 0)
(0.295738 0.0256303 0)
(0.29733 0.0261006 0)
(0.298608 0.026218 0)
(0.299593 0.0260843 0)
(0.300317 0.0257816 0)
(0.300818 0.0253745 0)
(0.301133 0.0249126 0)
(0.301295 0.0244336 0)
(0.301336 0.023966 0)
(0.30128 0.0235309 0)
(0.301151 0.0231441 0)
(0.300964 0.0228172 0)
(0.300735 0.0225585 0)
(0.300482 0.0223715 0)
(0.300246 0.0222551 0)
(0.288436 0.0116962 0)
(0.289923 0.014896 0)
(0.291602 0.0175437 0)
(0.293313 0.0195877 0)
(0.294937 0.0210655 0)
(0.296395 0.0220513 0)
(0.297644 0.0226309 0)
(0.298668 0.0228902 0)
(0.299472 0.0229088 0)
(0.300074 0.0227562 0)
(0.300501 0.0224899 0)
(0.300778 0.0221563 0)
(0.300931 0.0217916 0)
(0.300984 0.0214238 0)
(0.300957 0.0210741 0)
(0.300868 0.0207587 0)
(0.300731 0.0204897 0)
(0.300559 0.0202758 0)
(0.300365 0.0201213 0)
(0.300182 0.0200271 0)
(0.291189 0.0096699 0)
(0.292252 0.0124041 0)
(0.293471 0.0147022 0)
(0.294737 0.0165239 0)
(0.295957 0.0178872 0)
(0.297066 0.0188402 0)
(0.298025 0.0194455 0)
(0.298822 0.0197701 0)
(0.299455 0.019878 0)
(0.299938 0.0198264 0)
(0.300285 0.0196639 0)
(0.300517 0.0194307 0)
(0.300651 0.0191593 0)
(0.300706 0.0188755 0)
(0.300698 0.0185994 0)
(0.300638 0.0183464 0)
(0.300541 0.0181285 0)
(0.300414 0.0179542 0)
(0.300269 0.0178287 0)
(0.300131 0.0177535 0)
(0.293571 0.00798969 0)
(0.29431 0.0102441 0)
(0.295164 0.0121792 0)
(0.296057 0.0137508 0)
(0.296928 0.014963 0)
(0.297731 0.0158453 0)
(0.298436 0.0164399 0)
(0.299029 0.0167951 0)
(0.299508 0.0169596 0)
(0.299877 0.0169791 0)
(0.300147 0.0168941 0)
(0.300331 0.0167392 0)
(0.300441 0.016543 0)
(0.300491 0.0163287 0)
(0.300492 0.0161147 0)
(0.300455 0.0159154 0)
(0.300387 0.0157419 0)
(0.300297 0.0156024 0)
(0.300192 0.015502 0)
(0.300091 0.0154431 0)
(0.295473 0.00646386 0)
(0.295973 0.00832286 0)
(0.296555 0.00993245 0)
(0.29717 0.0112593 0)
(0.297775 0.0123033 0)
(0.298338 0.0130828 0)
(0.298836 0.0136275 0)
(0.299258 0.0139733 0)
(0.299601 0.0141576 0)
(0.299869 0.0142166 0)
(0.300066 0.0141828 0)
(0.300203 0.014085 0)
(0.300287 0.013947 0)
(0.300328 0.0137888 0)
(0.300333 0.0136263 0)
(0.30031 0.0134725 0)
(0.300265 0.0133371 0)
(0.300204 0.0132277 0)
(0.300132 0.013149 0)
(0.300061 0.0131038 0)
(0.297038 0.00512605 0)
(0.297355 0.00659496 0)
(0.297726 0.00788375 0)
(0.29812 0.00896119 0)
(0.29851 0.00982324 0)
(0.298875 0.0104806 0)
(0.299201 0.0109533 0)
(0.299481 0.0112665 0)
(0.29971 0.0114479 0)
(0.29989 0.0115251 0)
(0.300024 0.0115235 0)
(0.300118 0.011466 0)
(0.300177 0.0113722 0)
(0.300207 0.0112586 0)
(0.300213 0.0111385 0)
(0.300199 0.0110228 0)
(0.300171 0.01092 0)
(0.300132 0.0108364 0)
(0.300085 0.0107764 0)
(0.300038 0.0107427 0)
(0.298235 0.0038751 0)
(0.298421 0.00499876 0)
(0.298638 0.00598916 0)
(0.29887 0.00682367 0)
(0.2991 0.00749854 0)
(0.299317 0.00802028 0)
(0.299512 0.00840227 0)
(0.299679 0.00866235 0)
(0.299816 0.00882053 0)
(0.299925 0.008897 0)
(0.300006 0.00891094 0)
(0.300064 0.00887965 0)
(0.3001 0.00881825 0)
(0.300119 0.00873953 0)
(0.300124 0.00865407 0)
(0.300116 0.0085704 0)
(0.3001 0.00849528 0)
(0.300077 0.00843389 0)
(0.30005 0.00838996 0)
(0.300021 0.00836584 0)
(0.299127 0.00272078 0)
(0.299216 0.00350688 0)
(0.299322 0.00420522 0)
(0.299436 0.00479776 0)
(0.299549 0.00528097 0)
(0.299656 0.00565842 0)
(0.299753 0.00593849 0)
(0.299836 0.00613281 0)
(0.299905 0.00625471 0)
(0.29996 0.00631797 0)
(0.300001 0.00633585 0)
(0.30003 0.0063205 0)
(0.300049 0.00628263 0)
(0.300058 0.00623142 0)
(0.300061 0.00617447 0)
(0.300058 0.00611798 0)
(0.30005 0.00606686 0)
(0.300038 0.0060249 0)
(0.300024 0.00599495 0)
(0.30001 0.00597887 0)
(0.299701 0.00160848 0)
(0.29973 0.00207873 0)
(0.299766 0.00249575 0)
(0.299805 0.00285033 0)
(0.299844 0.00314071 0)
(0.299881 0.00336878 0)
(0.299914 0.00353922 0)
(0.299943 0.00365865 0)
(0.299967 0.0037348 0)
(0.299986 0.00377572 0)
(0.3 0.00378922 0)
(0.30001 0.0037825 0)
(0.300017 0.00376193 0)
(0.30002 0.00373302 0)
(0.300021 0.00370034 0)
(0.30002 0.00366764 0)
(0.300017 0.00363788 0)
(0.300013 0.00361339 0)
(0.300008 0.00359596 0)
(0.300003 0.00358677 0)
(0.299986 0.000540852 0)
(0.299987 0.000691015 0)
(0.299989 0.00082828 0)
(0.29999 0.000945844 0)
(0.299992 0.00104244 0)
(0.299994 0.00111853 0)
(0.299996 0.00117559 0)
(0.299997 0.00121574 0)
(0.299998 0.00124151 0)
(0.299999 0.00125552 0)
(0.3 0.00126037 0)
(0.300001 0.00125843 0)
(0.300001 0.00125182 0)
(0.300001 0.00124239 0)
(0.300001 0.00123167 0)
(0.300001 0.0012209 0)
(0.300001 0.00121108 0)
(0.300001 0.001203 0)
(0.3 0.00119725 0)
(0.3 0.00119424 0)
(0.0996917 -0.164805 0)
(0.0792262 -0.14003 0)
(0.0668346 -0.117027 0)
(0.0581659 -0.0964621 0)
(0.0516817 -0.077751 0)
(0.0467353 -0.0604185 0)
(0.0430015 -0.0441425 0)
(0.0402931 -0.0286579 0)
(0.0384944 -0.0137263 0)
(0.0375355 0.000871624 0)
(0.0373802 0.0153427 0)
(0.0380225 0.029889 0)
(0.0394857 0.0447151 0)
(0.041827 0.0600354 0)
(0.0451484 0.0760817 0)
(0.0496222 0.0931115 0)
(0.0555567 0.111445 0)
(0.0635766 0.131587 0)
(0.0751681 0.154167 0)
(0.0945941 0.178127 0)
(0.172926 -0.100869 0)
(0.158944 -0.0915292 0)
(0.146766 -0.0808193 0)
(0.136557 -0.0693814 0)
(0.12821 -0.0574815 0)
(0.121554 -0.0452559 0)
(0.116423 -0.0328 0)
(0.112675 -0.0201836 0)
(0.110202 -0.00745558 0)
(0.108931 0.00534892 0)
(0.108825 0.018203 0)
(0.109876 0.031083 0)
(0.112114 0.0439649 0)
(0.115608 0.0568201 0)
(0.120471 0.069608 0)
(0.126875 0.0822618 0)
(0.135075 0.0946911 0)
(0.145449 0.10689 0)
(0.158582 0.118992 0)
(0.175378 0.129503 0)
(0.190987 -0.0642537 0)
(0.185881 -0.0587208 0)
(0.181296 -0.0522974 0)
(0.177238 -0.0451361 0)
(0.173725 -0.0373874 0)
(0.170782 -0.0291791 0)
(0.168437 -0.0206171 0)
(0.166711 -0.0117907 0)
(0.165622 -0.0027761 0)
(0.165184 0.00635986 0)
(0.165405 0.0155564 0)
(0.166293 0.0247553 0)
(0.167853 0.0338979 0)
(0.170086 0.0429213 0)
(0.172995 0.0517539 0)
(0.176581 0.0603096 0)
(0.180849 0.0684864 0)
(0.18582 0.0761825 0)
(0.191584 0.0832623 0)
(0.198387 0.0891958 0)
(0.218885 -0.0393974 0)
(0.21523 -0.0352343 0)
(0.21184 -0.0307432 0)
(0.20879 -0.0259551 0)
(0.206136 -0.0209039 0)
(0.203915 -0.0156258 0)
(0.202156 -0.0101585 0)
(0.200876 -0.00454166 0)
(0.200089 0.00118408 0)
(0.199805 0.00697714 0)
(0.200028 0.0127952 0)
(0.200764 0.0185956 0)
(0.202015 0.0243347 0)
(0.203784 0.0299686 0)
(0.206069 0.0354521 0)
(0.208871 0.0407385 0)
(0.212185 0.0457829 0)
(0.216008 0.0505536 0)
(0.220346 0.0550097 0)
(0.225215 0.0589169 0)
(0.232405 -0.0279249 0)
(0.2306 -0.0248222 0)
(0.228972 -0.0214942 0)
(0.227536 -0.0179594 0)
(0.226306 -0.0142407 0)
(0.225298 -0.0103642 0)
(0.224523 -0.00635776 0)
(0.223992 -0.00225026 0)
(0.223714 0.00192861 0)
(0.223695 0.00614873 0)
(0.223939 0.0103796 0)
(0.224447 0.0145903 0)
(0.225218 0.0187497 0)
(0.226247 0.022826 0)
(0.227526 0.0267869 0)
(0.229047 0.0305992 0)
(0.230799 0.0342297 0)
(0.232769 0.0376471 0)
(0.234948 0.0408187 0)
(0.237333 0.0436778 0)
(0.247748 -0.0192629 0)
(0.246475 -0.0168013 0)
(0.245314 -0.0142366 0)
(0.244283 -0.0115782 0)
(0.243397 -0.00883657 0)
(0.242668 -0.00602351 0)
(0.242109 -0.00315177 0)
(0.241728 -0.000235062 0)
(0.241531 0.00271209 0)
(0.241524 0.00567457 0)
(0.241709 0.00863681 0)
(0.242086 0.011583 0)
(0.242654 0.0144974 0)
(0.243411 0.0173642 0)
(0.244351 0.0201683 0)
(0.245467 0.0228945 0)
(0.24675 0.0255295 0)
(0.24819 0.028064 0)
(0.249776 0.0304888 0)
(0.251496 0.0327546 0)
(0.256974 -0.0143971 0)
(0.256234 -0.012475 0)
(0.255579 -0.010481 0)
(0.255012 -0.00842133 0)
(0.25454 -0.00630358 0)
(0.254165 -0.00413615 0)
(0.253893 -0.0019283 0)
(0.253725 0.000310039 0)
(0.253664 0.00256844 0)
(0.253712 0.00483608 0)
(0.253869 0.00710188 0)
(0.254135 0.00935463 0)
(0.254508 0.0115831 0)
(0.254988 0.0137761 0)
(0.25557 0.0159227 0)
(0.256252 0.0180123 0)
(0.257028 0.0200347 0)
(0.257895 0.0219809 0)
(0.258849 0.0238431 0)
(0.259886 0.0256082 0)
(0.266264 -0.0107617 0)
(0.265744 -0.00919731 0)
(0.26528 -0.00759441 0)
(0.264877 -0.00595728 0)
(0.26454 -0.00429049 0)
(0.264272 -0.00259895 0)
(0.264077 -0.000887839 0)
(0.263957 0.000837422 0)
(0.263914 0.00257121 0)
(0.26395 0.00430773 0)
(0.264065 0.00604114 0)
(0.264258 0.00776555 0)
(0.26453 0.00947511 0)
(0.264879 0.0111641 0)
(0.265302 0.0128269 0)
(0.265797 0.014458 0)
(0.26636 0.0160525 0)
(0.266987 0.0176071 0)
(0.267674 0.0191183 0)
(0.268417 0.0205694 0)
(0.272603 -0.00837079 0)
(0.272269 -0.00711002 0)
(0.271978 -0.00582216 0)
(0.27173 -0.00451012 0)
(0.271528 -0.00317713 0)
(0.271373 -0.00182668 0)
(0.271267 -0.000462494 0)
(0.27121 0.000911494 0)
(0.271202 0.0022912 0)
(0.271245 0.00367242 0)
(0.271339 0.00505089 0)
(0.271482 0.00642231 0)
(0.271675 0.00778241 0)
(0.271917 0.00912699 0)
(0.272206 0.0104519 0)
(0.272542 0.0117533 0)
(0.272924 0.0130272 0)
(0.273348 0.0142706 0)
(0.273815 0.0154808 0)
(0.274323 0.016653 0)
(0.278601 -0.00657029 0)
(0.278366 -0.00552652 0)
(0.27816 -0.00446632 0)
(0.277985 -0.00339178 0)
(0.277842 -0.00230509 0)
(0.277732 -0.00120852 0)
(0.277657 -0.000104446 0)
(0.277617 0.0010047 0)
(0.277613 0.00211643 0)
(0.277644 0.00322823 0)
(0.277712 0.00433754 0)
(0.277816 0.00544185 0)
(0.277956 0.00653862 0)
(0.278131 0.00762539 0)
(0.27834 0.00869971 0)
(0.278583 0.00975921 0)
(0.278858 0.0108017 0)
(0.279163 0.0118255 0)
(0.279497 0.0128291 0)
(0.27986 0.0138055 0)
(0.283031 -0.00524644 0)
(0.282872 -0.00438979 0)
(0.282735 -0.00352145 0)
(0.28262 -0.0026429 0)
(0.282528 -0.00175569 0)
(0.28246 -0.000861479 0)
(0.282416 3.80068e-05 0)
(0.282396 0.000940988 0)
(0.282401 0.00184563 0)
(0.28243 0.00275009 0)
(0.282484 0.00365247 0)
(0.282563 0.0045509 0)
(0.282666 0.00544351 0)
(0.282794 0.00632846 0)
(0.282945 0.00720395 0)
(0.283119 0.00806823 0)
(0.283315 0.00891961 0)
(0.283534 0.00975669 0)
(0.283774 0.0105784 0)
(0.284035 0.0113822 0)
(0.287053 -0.004218 0)
(0.286942 -0.00350494 0)
(0.286845 -0.00278412 0)
(0.286765 -0.00205662 0)
(0.286701 -0.00132358 0)
(0.286653 -0.000586142 0)
(0.286623 0.000154492 0)
(0.286609 0.000897116 0)
(0.286613 0.0016405 0)
(0.286634 0.0023834 0)
(0.286673 0.00312458 0)
(0.28673 0.00386279 0)
(0.286803 0.0045968 0)
(0.286894 0.00532539 0)
(0.287001 0.00604737 0)
(0.287125 0.00676153 0)
(0.287265 0.00746676 0)
(0.287419 0.00816224 0)
(0.287589 0.0088472 0)
(0.287773 0.00951831 0)
(0.290153 -0.00340075 0)
(0.290077 -0.00281421 0)
(0.290012 -0.00222208 0)
(0.289959 -0.00162515 0)
(0.289917 -0.00102425 0)
(0.289886 -0.000420228 0)
(0.289868 0.000186037 0)
(0.289861 0.000793646 0)
(0.289867 0.00140168 0)
(0.289885 0.00200923 0)
(0.289915 0.00261535 0)
(0.289957 0.00321913 0)
(0.290011 0.00381964 0)
(0.290077 0.00441597 0)
(0.290155 0.00500723 0)
(0.290244 0.00559253 0)
(0.290344 0.00617103 0)
(0.290456 0.00674203 0)
(0.290578 0.007305 0)
(0.290711 0.00785855 0)
(0.292866 -0.00273611 0)
(0.292814 -0.0022532 0)
(0.29277 -0.00176637 0)
(0.292734 -0.00127622 0)
(0.292705 -0.000783352 0)
(0.292685 -0.000288393 0)
(0.292672 0.000208019 0)
(0.292668 0.000705239 0)
(0.292672 0.00120262 0)
(0.292684 0.00169949 0)
(0.292705 0.00219521 0)
(0.292733 0.00268911 0)
(0.29277 0.00318055 0)
(0.292815 0.00366887 0)
(0.292868 0.00415345 0)
(0.292929 0.00463363 0)
(0.292998 0.0051088 0)
(0.293073 0.00557853 0)
(0.293157 0.00604246 0)
(0.293247 0.00649885 0)
(0.294976 -0.00217553 0)
(0.294942 -0.00178626 0)
(0.294913 -0.00139415 0)
(0.29489 -0.000999646 0)
(0.294872 -0.000603194 0)
(0.294859 -0.000205257 0)
(0.294851 0.000193692 0)
(0.29485 0.000593175 0)
(0.294853 0.000992707 0)
(0.294863 0.0013918 0)
(0.294877 0.00178997 0)
(0.294898 0.00218673 0)
(0.294923 0.00258158 0)
(0.294955 0.00297406 0)
(0.294991 0.00336368 0)
(0.295033 0.00374998 0)
(0.29508 0.0041325 0)
(0.295131 0.00451087 0)
(0.295188 0.00488486 0)
(0.29525 0.00525362 0)
(0.296733 -0.00169501 0)
(0.296712 -0.00138709 0)
(0.296694 -0.00107715 0)
(0.29668 -0.000765526 0)
(0.296668 -0.000452547 0)
(0.29666 -0.00013855 0)
(0.296656 0.000176122 0)
(0.296655 0.000491121 0)
(0.296657 0.000806098 0)
(0.296663 0.0011207 0)
(0.296672 0.00143458 0)
(0.296684 0.00174738 0)
(0.2967 0.00205875 0)
(0.296719 0.00236836 0)
(0.296742 0.00267584 0)
(0.296767 0.00298087 0)
(0.296796 0.00328309 0)
(0.296828 0.00358229 0)
(0.296863 0.00387833 0)
(0.296901 0.00417023 0)
(0.29805 -0.00126778 0)
(0.298038 -0.00103552 0)
(0.298028 -0.000801856 0)
(0.29802 -0.000567011 0)
(0.298014 -0.000331225 0)
(0.298009 -9.47396e-05 0)
(0.298007 0.000142201 0)
(0.298007 0.000379351 0)
(0.298008 0.00061646 0)
(0.298012 0.000853278 0)
(0.298018 0.00108956 0)
(0.298025 0.00132504 0)
(0.298035 0.00155949 0)
(0.298046 0.00179265 0)
(0.298059 0.00202429 0)
(0.298075 0.00225415 0)
(0.298092 0.00248198 0)
(0.298111 0.00270764 0)
(0.298131 0.00293104 0)
(0.298154 0.0031516 0)
(0.299043 -0.00088085 0)
(0.299037 -0.000717937 0)
(0.299032 -0.000554096 0)
(0.299028 -0.000389484 0)
(0.299025 -0.00022426 0)
(0.299023 -5.85858e-05 0)
(0.299022 0.000107374 0)
(0.299022 0.000273453 0)
(0.299022 0.000439485 0)
(0.299024 0.000605304 0)
(0.299026 0.00077074 0)
(0.29903 0.000935629 0)
(0.299034 0.0010998 0)
(0.29904 0.0012631 0)
(0.299046 0.00142535 0)
(0.299053 0.00158638 0)
(0.299061 0.00174604 0)
(0.299069 0.00190421 0)
(0.299079 0.00206087 0)
(0.299089 0.00221541 0)
(0.299681 -0.00051849 0)
(0.299679 -0.00042229 0)
(0.299678 -0.000325563 0)
(0.299676 -0.0002284 0)
(0.299675 -0.000130892 0)
(0.299675 -3.31351e-05 0)
(0.299674 6.47768e-05 0)
(0.299674 0.000162747 0)
(0.299674 0.000260679 0)
(0.299675 0.000358476 0)
(0.299676 0.00045604 0)
(0.299677 0.000553275 0)
(0.299678 0.000650084 0)
(0.29968 0.000746373 0)
(0.299681 0.000842047 0)
(0.299683 0.000937008 0)
(0.299686 0.00103115 0)
(0.299688 0.00112442 0)
(0.29969 0.00121686 0)
(0.299693 0.00130833 0)
(0.299991 -0.000171746 0)
(0.299991 -0.000139614 0)
(0.299991 -0.000107305 0)
(0.299991 -7.48465e-05 0)
(0.29999 -4.22669e-05 0)
(0.29999 -9.59527e-06 0)
(0.29999 2.31395e-05 0)
(0.29999 5.59089e-05 0)
(0.29999 8.86844e-05 0)
(0.29999 0.000121438 0)
(0.29999 0.000154144 0)
(0.29999 0.000186775 0)
(0.29999 0.000219307 0)
(0.29999 0.00025172 0)
(0.29999 0.000283991 0)
(0.299989 0.000316098 0)
(0.299989 0.000348031 0)
(0.299989 0.000379851 0)
(0.299989 0.000411681 0)
(0.299988 0.000443008 0)
(0.290655 -0.0997573 0)
(0.289483 -0.103438 0)
(0.288482 -0.107611 0)
(0.287734 -0.11241 0)
(0.287319 -0.117909 0)
(0.287287 -0.124148 0)
(0.287626 -0.131134 0)
(0.288234 -0.138827 0)
(0.288899 -0.147129 0)
(0.289276 -0.155874 0)
(0.288894 -0.164822 0)
(0.287165 -0.173666 0)
(0.283419 -0.182037 0)
(0.276939 -0.189516 0)
(0.267002 -0.195631 0)
(0.25291 -0.199883 0)
(0.234018 -0.201873 0)
(0.209749 -0.201425 0)
(0.179573 -0.197931 0)
(0.142972 -0.187981 0)
(0.283893 -0.0736308 0)
(0.281552 -0.0743671 0)
(0.278827 -0.0751654 0)
(0.275735 -0.0759948 0)
(0.2723 -0.0769181 0)
(0.268564 -0.0780134 0)
(0.264595 -0.0793642 0)
(0.260483 -0.0810568 0)
(0.25633 -0.0831717 0)
(0.252236 -0.0857691 0)
(0.248266 -0.088873 0)
(0.244426 -0.0924545 0)
(0.240626 -0.0964156 0)
(0.23666 -0.100576 0)
(0.232205 -0.104664 0)
(0.226845 -0.108321 0)
(0.220116 -0.111096 0)
(0.211557 -0.112428 0)
(0.200762 -0.111583 0)
(0.187605 -0.10779 0)
(0.280396 -0.0776602 0)
(0.278999 -0.0787596 0)
(0.277432 -0.0797941 0)
(0.275657 -0.0807628 0)
(0.273618 -0.081627 0)
(0.271253 -0.0823497 0)
(0.268494 -0.0829004 0)
(0.265276 -0.0832555 0)
(0.261549 -0.0834003 0)
(0.25728 -0.0833306 0)
(0.252462 -0.0830523 0)
(0.247122 -0.082578 0)
(0.241318 -0.0819207 0)
(0.235139 -0.0810846 0)
(0.228697 -0.0800538 0)
(0.222112 -0.0787816 0)
(0.215504 -0.0771796 0)
(0.20898 -0.0751088 0)
(0.202639 -0.072382 0)
(0.196596 -0.0688045 0)
(0.274373 -0.0582027 0)
(0.272339 -0.0585166 0)
(0.270249 -0.0588548 0)
(0.268112 -0.0591891 0)
(0.265935 -0.0595145 0)
(0.263729 -0.0598191 0)
(0.261498 -0.0600822 0)
(0.259242 -0.0602757 0)
(0.25695 -0.0603649 0)
(0.254604 -0.0603093 0)
(0.252178 -0.0600645 0)
(0.249638 -0.0595846 0)
(0.246948 -0.0588249 0)
(0.244072 -0.0577448 0)
(0.240985 -0.0563103 0)
(0.237674 -0.0544952 0)
(0.234146 -0.0522819 0)
(0.230433 -0.049661 0)
(0.226592 -0.0466321 0)
(0.222708 -0.0432047 0)
(0.276658 -0.0533568 0)
(0.275184 -0.0531316 0)
(0.273584 -0.0528217 0)
(0.271856 -0.05243 0)
(0.269998 -0.0519515 0)
(0.268011 -0.0513825 0)
(0.265897 -0.0507208 0)
(0.263663 -0.0499648 0)
(0.261318 -0.0491125 0)
(0.25888 -0.0481611 0)
(0.256366 -0.0471058 0)
(0.2538 -0.0459392 0)
(0.251207 -0.0446506 0)
(0.248614 -0.043226 0)
(0.246045 -0.0416481 0)
(0.243526 -0.0398975 0)
(0.241079 -0.0379538 0)
(0.238726 -0.0357977 0)
(0.236484 -0.0334133 0)
(0.234372 -0.0307901 0)
(0.276467 -0.0430143 0)
(0.275172 -0.0427251 0)
(0.273862 -0.0423892 0)
(0.272537 -0.0419981 0)
(0.271196 -0.0415429 0)
(0.26984 -0.0410144 0)
(0.268466 -0.0404028 0)
(0.267074 -0.0396985 0)
(0.265661 -0.0388918 0)
(0.264224 -0.0379738 0)
(0.262763 -0.0369361 0)
(0.261277 -0.0357722 0)
(0.259766 -0.0344764 0)
(0.258234 -0.0330453 0)
(0.256686 -0.0314767 0)
(0.255131 -0.0297704 0)
(0.253581 -0.0279276 0)
(0.25205 -0.0259509 0)
(0.250555 -0.0238444 0)
(0.249115 -0.0216129 0)
(0.279309 -0.0369797 0)
(0.278277 -0.0364506 0)
(0.277206 -0.0358681 0)
(0.276098 -0.0352326 0)
(0.274955 -0.0345426 0)
(0.273781 -0.0337966 0)
(0.272582 -0.0329929 0)
(0.271362 -0.03213 0)
(0.270128 -0.0312058 0)
(0.268888 -0.0302181 0)
(0.267648 -0.0291641 0)
(0.266416 -0.0280411 0)
(0.2652 -0.0268459 0)
(0.264009 -0.0255754 0)
(0.26285 -0.0242266 0)
(0.261731 -0.0227969 0)
(0.260658 -0.0212843 0)
(0.25964 -0.0196875 0)
(0.258682 -0.0180065 0)
(0.257792 -0.0162422 0)
(0.281475 -0.0308553 0)
(0.280684 -0.0303484 0)
(0.279886 -0.0297983 0)
(0.279083 -0.0292052 0)
(0.278277 -0.0285658 0)
(0.277467 -0.0278771 0)
(0.276655 -0.0271365 0)
(0.275842 -0.0263418 0)
(0.275029 -0.0254908 0)
(0.274218 -0.0245821 0)
(0.27341 -0.0236145 0)
(0.272608 -0.0225871 0)
(0.271815 -0.0214998 0)
(0.271034 -0.0203526 0)
(0.270268 -0.0191464 0)
(0.269522 -0.0178822 0)
(0.268801 -0.0165616 0)
(0.268109 -0.0151866 0)
(0.267451 -0.0137597 0)
(0.266835 -0.0122837 0)
(0.284226 -0.0261189 0)
(0.283594 -0.0255728 0)
(0.282954 -0.0249927 0)
(0.282307 -0.0243791 0)
(0.281654 -0.0237312 0)
(0.280997 -0.0230483 0)
(0.28034 -0.0223298 0)
(0.279683 -0.0215753 0)
(0.279031 -0.0207841 0)
(0.278386 -0.0199559 0)
(0.277751 -0.0190902 0)
(0.277129 -0.0181866 0)
(0.276523 -0.0172447 0)
(0.275936 -0.0162647 0)
(0.275371 -0.0152463 0)
(0.274831 -0.0141901 0)
(0.274319 -0.0130966 0)
(0.273838 -0.0119665 0)
(0.27339 -0.0108011 0)
(0.272978 -0.00960189 0)
(0.286741 -0.0220574 0)
(0.286274 -0.0215553 0)
(0.285806 -0.0210243 0)
(0.285339 -0.0204663 0)
(0.284872 -0.0198802 0)
(0.284408 -0.0192652 0)
(0.283948 -0.0186206 0)
(0.283491 -0.0179461 0)
(0.28304 -0.0172415 0)
(0.282596 -0.0165067 0)
(0.282159 -0.0157417 0)
(0.281732 -0.0149468 0)
(0.281317 -0.0141224 0)
(0.280913 -0.013269 0)
(0.280525 -0.0123875 0)
(0.280153 -0.0114788 0)
(0.279798 -0.0105439 0)
(0.279464 -0.0095841 0)
(0.279152 -0.00860085 0)
(0.278864 -0.00759568 0)
(0.289146 -0.0185965 0)
(0.288782 -0.0181241 0)
(0.288418 -0.0176303 0)
(0.288055 -0.017116 0)
(0.287692 -0.0165806 0)
(0.287332 -0.0160241 0)
(0.286976 -0.0154463 0)
(0.286624 -0.0148473 0)
(0.286277 -0.0142272 0)
(0.285938 -0.013586 0)
(0.285607 -0.0129238 0)
(0.285286 -0.012241 0)
(0.284976 -0.0115378 0)
(0.284677 -0.0108146 0)
(0.284393 -0.0100718 0)
(0.284122 -0.00931022 0)
(0.283868 -0.00853036 0)
(0.283631 -0.00773308 0)
(0.283412 -0.00691929 0)
(0.283211 -0.00609003 0)
(0.291346 -0.015686 0)
(0.291083 -0.0152657 0)
(0.290822 -0.0148274 0)
(0.290562 -0.0143728 0)
(0.290304 -0.0139015 0)
(0.29005 -0.0134133 0)
(0.289799 -0.0129081 0)
(0.289552 -0.012386 0)
(0.28931 -0.0118472 0)
(0.289074 -0.0112919 0)
(0.288843 -0.0107202 0)
(0.28862 -0.0101327 0)
(0.288405 -0.0095296 0)
(0.288198 -0.00891146 0)
(0.288 -0.00827882 0)
(0.287812 -0.00763231 0)
(0.287636 -0.00697261 0)
(0.287471 -0.00630048 0)
(0.287318 -0.00561673 0)
(0.287178 -0.00492226 0)
(0.293283 -0.0131036 0)
(0.293087 -0.0127315 0)
(0.292891 -0.0123461 0)
(0.292698 -0.0119482 0)
(0.292506 -0.0115376 0)
(0.292317 -0.0111144 0)
(0.292131 -0.0106786 0)
(0.291949 -0.0102303 0)
(0.291771 -0.00976976 0)
(0.291597 -0.00929716 0)
(0.291429 -0.00881273 0)
(0.291266 -0.00831676 0)
(0.29111 -0.00780956 0)
(0.290961 -0.00729149 0)
(0.290819 -0.00676297 0)
(0.290685 -0.00622445 0)
(0.29056 -0.00567642 0)
(0.290444 -0.00511942 0)
(0.290337 -0.00455405 0)
(0.29024 -0.00398093 0)
(0.294996 -0.0108771 0)
(0.29486 -0.0105578 0)
(0.294726 -0.0102276 0)
(0.294592 -0.00988769 0)
(0.294461 -0.00953785 0)
(0.294332 -0.00917806 0)
(0.294205 -0.00880842 0)
(0.294081 -0.00842909 0)
(0.29396 -0.00804024 0)
(0.293842 -0.00764206 0)
(0.293728 -0.00723479 0)
(0.293618 -0.0068187 0)
(0.293512 -0.00639407 0)
(0.293411 -0.00596125 0)
(0.293316 -0.00552059 0)
(0.293225 -0.00507248 0)
(0.293141 -0.00461736 0)
(0.293062 -0.00415566 0)
(0.29299 -0.00368788 0)
(0.292924 -0.00321452 0)
(0.296434 -0.00884783 0)
(0.296339 -0.00857942 0)
(0.296245 -0.00830295 0)
(0.296153 -0.00801908 0)
(0.296062 -0.00772774 0)
(0.295973 -0.00742893 0)
(0.295885 -0.00712277 0)
(0.295799 -0.00680939 0)
(0.295716 -0.00648895 0)
(0.295635 -0.00616163 0)
(0.295557 -0.0058276 0)
(0.295482 -0.00548709 0)
(0.29541 -0.00514032 0)
(0.295341 -0.00478754 0)
(0.295276 -0.00442904 0)
(0.295215 -0.0040651 0)
(0.295159 -0.00369603 0)
(0.295106 -0.00332218 0)
(0.295058 -0.00294389 0)
(0.295014 -0.00256155 0)
(0.297639 -0.00703124 0)
(0.297579 -0.00681369 0)
(0.297521 -0.00658979 0)
(0.297463 -0.00636031 0)
(0.297407 -0.00612516 0)
(0.297351 -0.00588434 0)
(0.297297 -0.00563795 0)
(0.297243 -0.00538611 0)
(0.297192 -0.00512894 0)
(0.297142 -0.0048666 0)
(0.297093 -0.00459923 0)
(0.297047 -0.00432702 0)
(0.297002 -0.00405015 0)
(0.29696 -0.00376882 0)
(0.29692 -0.00348327 0)
(0.296882 -0.00319371 0)
(0.296847 -0.00290039 0)
(0.296814 -0.00260359 0)
(0.296784 -0.00230356 0)
(0.296757 -0.0020006 0)
(0.298584 -0.00533077 0)
(0.298548 -0.00516278 0)
(0.298513 -0.00499024 0)
(0.298479 -0.00481371 0)
(0.298446 -0.00463309 0)
(0.298413 -0.00444841 0)
(0.29838 -0.00425973 0)
(0.298349 -0.00406715 0)
(0.298319 -0.00387078 0)
(0.298289 -0.00367073 0)
(0.29826 -0.00346711 0)
(0.298233 -0.00326004 0)
(0.298207 -0.00304968 0)
(0.298182 -0.00283617 0)
(0.298158 -0.00261966 0)
(0.298136 -0.00240032 0)
(0.298116 -0.00217834 0)
(0.298097 -0.0019539 0)
(0.29808 -0.00172719 0)
(0.298064 -0.00149841 0)
(0.299296 -0.00374581 0)
(0.299279 -0.00362673 0)
(0.299262 -0.00350436 0)
(0.299246 -0.00337925 0)
(0.29923 -0.00325134 0)
(0.299215 -0.00312063 0)
(0.299199 -0.00298718 0)
(0.299185 -0.00285107 0)
(0.29917 -0.00271236 0)
(0.299156 -0.00257114 0)
(0.299143 -0.00242749 0)
(0.29913 -0.00228151 0)
(0.299117 -0.00213329 0)
(0.299106 -0.00198293 0)
(0.299094 -0.00183056 0)
(0.299084 -0.00167628 0)
(0.299074 -0.00152022 0)
(0.299065 -0.00136251 0)
(0.299057 -0.00120328 0)
(0.299049 -0.00104268 0)
(0.299763 -0.00221684 0)
(0.299758 -0.00214572 0)
(0.299753 -0.00207284 0)
(0.299748 -0.00199841 0)
(0.299743 -0.00192235 0)
(0.299738 -0.00184465 0)
(0.299733 -0.00176538 0)
(0.299728 -0.00168456 0)
(0.299723 -0.00160225 0)
(0.299719 -0.00151849 0)
(0.299714 -0.00143333 0)
(0.29971 -0.00134682 0)
(0.299706 -0.00125903 0)
(0.299702 -0.00117002 0)
(0.299698 -0.00107984 0)
(0.299695 -0.000988573 0)
(0.299691 -0.000896286 0)
(0.299689 -0.000803055 0)
(0.299686 -0.000708958 0)
(0.299683 -0.000614075 0)
(0.299991 -0.000742689 0)
(0.299991 -0.000718361 0)
(0.299991 -0.000693281 0)
(0.299991 -0.000667898 0)
(0.299991 -0.000642109 0)
(0.299991 -0.00061585 0)
(0.299991 -0.000589117 0)
(0.299991 -0.000561918 0)
(0.299991 -0.00053426 0)
(0.299991 -0.00050615 0)
(0.299991 -0.000477601 0)
(0.299991 -0.000448625 0)
(0.299991 -0.000419238 0)
(0.299991 -0.000389457 0)
(0.299991 -0.000359301 0)
(0.299991 -0.000328792 0)
(0.299991 -0.000297951 0)
(0.299991 -0.000266801 0)
(0.299991 -0.000235366 0)
(0.299991 -0.000203672 0)
(0.0588306 -0.0639055 0)
(0.0431001 -0.0510236 0)
(0.0323695 -0.039891 0)
(0.0246412 -0.0310899 0)
(0.0188531 -0.0240185 0)
(0.0144011 -0.0182589 0)
(0.0109135 -0.0135839 0)
(0.00814611 -0.00982625 0)
(0.00593167 -0.00684365 0)
(0.00415121 -0.00451597 0)
(0.00271807 -0.0027423 0)
(0.00156836 -0.00143647 0)
(0.000655161 -0.00052347 0)
(-5.47407e-05 6.35829e-05 0)
(-0.000582626 0.000386684 0)
(-0.00093817 0.000504843 0)
(-0.0011193 0.000469997 0)
(-0.00111314 0.000333639 0)
(-0.000892422 0.000162111 0)
(-0.00040945 3.85252e-05 0)
(0.0909221 -0.0535372 0)
(0.0769325 -0.0481128 0)
(0.064999 -0.0422211 0)
(0.0547702 -0.0365774 0)
(0.0459575 -0.0312998 0)
(0.0383405 -0.0264336 0)