/*--------------------------------*- C++ -*----------------------------------*\
| =========                 |                                                 |
| \\      /  F ield         | OpenFOAM: The Open Source CFD Toolbox           |
|  \\    /   O peration     | Version:  v1806                                 |
|   \\  /    A nd           | Web:      www.OpenFOAM.com                      |
|    \\/     M anipulation  |                                                 |
\*---------------------------------------------------------------------------*/
FoamFile
{
    version     2.0;
    format      ascii;
    class       volScalarField;
    location    "230";
    object      p;
}
// * * * * * * * * * * * * * * * * * * * * * * * * * * * * * * * * * * * * * //

dimensions      [0 2 -2 0 0 0 0];


internalField   nonuniform List<scalar> 
2400
(
0.000102248
0.000103481
0.000105886
0.000109575
0.000114337
0.000120223
0.000126824
0.000134147
0.000141474
0.000148641
0.000154459
0.000158449
0.000158896
0.000154928
0.00014455
0.00012673
0.000100169
6.48693e-05
2.17772e-05
-2.81846e-05
0.000306336
0.000309936
0.000316945
0.000327794
0.000341791
0.000359197
0.000378689
0.000400463
0.00042222
0.000443737
0.000461245
0.00047365
0.00047555
0.000464686
0.000434838
0.000383284
0.000305762
0.000202012
7.3597e-05
-7.36672e-05
0.000509267
0.000515207
0.000526763
0.000544725
0.000567923
0.00059688
0.000629339
0.000665798
0.000702305
0.000738796
0.000768724
0.000790751
0.000795338
0.000779339
0.000731518
0.000647848
0.000520067
0.000347653
0.000132559
-0.000114445
0.000710262
0.000718555
0.000734685
0.000759839
0.00079235
0.000833092
0.000878814
0.000930526
0.000982444
0.00103508
0.00107866
0.00111232
0.00112145
0.00110303
0.00103917
0.000925509
0.00074775
0.000505605
0.000200368
-0.000153494
0.000908563
0.000919232
0.000939985
0.000972444
0.00101442
0.00106726
0.00112664
0.00119437
0.00126259
0.00133297
0.00139188
0.00143999
0.00145623
0.00143931
0.00136205
0.00122177
0.000994413
0.00068145
0.000280627
-0.000189375
0.00110341
0.00111647
0.0011419
0.00118179
0.00123341
0.00129872
0.00137225
0.00145693
0.00154258
0.0016327
0.00170909
0.00177531
0.00180196
0.00179189
0.00170474
0.00154292
0.00126644
0.000882042
0.000378281
-0.000219834
0.00129402
0.00130949
0.00133967
0.0013871
0.00144858
0.00152675
0.00161501
0.00171769
0.0018221
0.00193432
0.00203083
0.00211962
0.00216081
0.00216453
0.00207197
0.00189604
0.00157099
0.0011159
0.000499301
-0.000242298
0.00147963
0.00149748
0.00153248
0.00158756
0.00165914
0.00175053
0.00185418
0.00197594
0.0021007
0.00223759
0.00235733
0.00247389
0.0025347
0.00256086
0.00246858
0.00228904
0.00191613
0.00139399
0.000650781
-0.00025309
0.00165946
0.00167963
0.00171954
0.00178232
0.00186425
0.00196916
0.00208892
0.0022308
0.00237765
0.00254189
0.0026885
0.00283855
0.00292521
0.00298413
0.00289958
0.00273069
0.00231115
0.00173068
0.000841315
-0.00024623
0.00183272
0.00185513
0.00190003
0.00197051
0.00206301
0.00218163
0.00231824
0.00248112
0.00265202
0.00284613
0.00302385
0.00321332
0.00333347
0.00343685
0.00337008
0.00323026
0.00276696
0.00214474
0.00108157
-0.000211194
0.00199865
0.00202314
0.00207311
0.00215118
0.0022545
0.00238683
0.00254105
0.00272553
0.00292255
0.00314875
0.00336239
0.00359705
0.0037601
0.00392037
0.00388529
0.00379681
0.00329668
0.00265966
0.00138476
-0.000128284
0.00215647
0.00218285
0.00223795
0.00232342
0.00243771
0.00258354
0.00275609
0.00296239
0.00318772
0.0034476
0.0037026
0.00398751
0.00420496
0.00443441
0.00445029
0.00443795
0.00391647
0.00330304
0.00176837
3.84295e-05
0.00230544
0.00233345
0.00239372
0.00248625
0.00261162
0.00277049
0.00296198
0.00318983
0.00344561
0.00373997
0.00404223
0.00438132
0.00466698
0.00497668
0.00506978
0.00515825
0.00464587
0.00410374
0.00225827
0.000349503
0.0024448
0.00247418
0.00253957
0.00263875
0.00277516
0.00294634
0.00315717
0.0034058
0.00369394
0.00402259
0.00437819
0.0047738
0.00514379
0.00554272
0.00574806
0.00595841
0.00550795
0.0050856
0.00289607
0.000894731
0.00257384
0.00260432
0.00267471
0.00277999
0.0029272
0.00310976
0.00334001
0.00360814
0.00393002
0.00429171
0.00470622
0.00515885
0.00563085
0.00612572
0.00648866
0.00683657
0.00653144
0.00625985
0.00374876
0.001779
0.00269187
0.00272318
0.00279836
0.0029091
0.00306666
0.00325946
0.00350872
0.00379464
0.00415075
0.00454319
0.00502082
0.0055288
0.00612002
0.00671547
0.00729157
0.00779171
0.00775775
0.00762766
0.00492516
0.00308253
0.00279825
0.00283016
0.00290976
0.00302527
0.00319242
0.00339422
0.00366148
0.00396317
0.00435274
0.00477289
0.00531532
0.00587469
0.00659849
0.00729475
0.00814626
0.00882139
0.00924655
0.00920487
0.00660551
0.0048262
0.00289235
0.00292474
0.00300824
0.00312779
0.00330342
0.00351294
0.00379642
0.00411178
0.00453227
0.00497684
0.00558177
0.00618778
0.00704907
0.00784145
0.00901953
0.00989204
0.0110483
0.0110737
0.00909096
0.00680222
0.00297359
0.00300653
0.00309318
0.00321607
0.00339862
0.00361473
0.00391169
0.00423881
0.00468553
0.00515158
0.00581127
0.00645989
0.00744886
0.00833533
0.00985721
0.0109441
0.0131178
0.0133608
0.0131271
0.00622346
0.00304152
0.00307507
0.00316431
0.00328935
0.00347762
0.00369833
0.00400656
0.00434196
0.00481078
0.00529235
0.00599895
0.00668021
0.00778145
0.00874846
0.0105901
0.0119135
0.0152824
0.0160306
0.0209426
0.00135229
-6.77665e-05
-8.33203e-05
-9.5481e-05
-0.000105822
-0.000115964
-0.000126158
-0.000136145
-0.000145698
-0.000154627
-0.000162751
-0.00016989
-0.000203446
-0.000235797
-0.000267445
-0.000298671
-0.000329381
-0.000359323
-0.000388299
-0.000416208
-0.000443044
-0.00027692
-0.000335552
-0.000392282
-0.000447458
-0.000501542
-0.000554486
-0.000605993
-0.000655789
-0.00070364
-0.00074943
-0.000389418
-0.000474528
-0.000556222
-0.00063539
-0.000713051
-0.000789185
-0.000863297
-0.000934936
-0.00100373
-0.00106954
-0.000505296
-0.000619161
-0.000728366
-0.000834229
-0.00093815
-0.00104006
-0.00113922
-0.001235
-0.00132688
-0.00141466
-0.000625417
-0.000771808
-0.000912304
-0.00104849
-0.00118211
-0.00131304
-0.00144029
-0.00156302
-0.00168053
-0.00179257
-0.000750838
-0.00093482
-0.00111162
-0.00128293
-0.00145083
-0.0016151
-0.00177446
-0.00192782
-0.00207428
-0.0022135
-0.000882335
-0.00111082
-0.00133089
-0.00154399
-0.00175237
-0.00195571
-0.00215242
-0.0023411
-0.00252064
-0.00269058
-0.00102064
-0.00130347
-0.00157676
-0.00184087
-0.00209808
-0.002348
-0.00258875
-0.00281859
-0.00303617
-0.00324091
-0.00116702
-0.00151902
-0.00185998
-0.00218783
-0.00250492
-0.00281108
-0.00310423
-0.00338226
-0.00364357
-0.00388745
-0.00132506
-0.00177005
-0.00219973
-0.00260831
-0.00299936
-0.0033738
-0.00372946
-0.00406372
-0.00437476
-0.00466185
-0.00150482
-0.00208277
-0.00263129
-0.00314172
-0.00362346
-0.00408044
-0.0045102
-0.0049092
-0.00527535
-0.00560834
-0.00173104
-0.00250917
-0.00321831
-0.00385445
-0.00444456
-0.00499925
-0.00551489
-0.00598592
-0.00640998
-0.00678807
-0.00205673
-0.00314264
-0.00406828
-0.0048557
-0.00557161
-0.00623855
-0.00684935
-0.00739473
-0.0078725
-0.00828642
-0.00259477
-0.00414007
-0.00534568
-0.00630851
-0.00716822
-0.00796223
-0.00867373
-0.00928688
-0.00980103
-0.0102248
-0.00361559
-0.00581228
-0.00734035
-0.00847344
-0.00947589
-0.0103989
-0.0112024
-0.0118578
-0.0123672
-0.0127475
-0.00563482
-0.00879459
-0.0107004
-0.0119535
-0.0130353
-0.0140231
-0.0148429
-0.0154499
-0.0158503
-0.0160756
-0.00899961
-0.0134792
-0.0159029
-0.0173222
-0.0184575
-0.019407
-0.0200879
-0.0204783
-0.0206074
-0.0205298
-0.014556
-0.0193873
-0.0216157
-0.0230728
-0.0242489
-0.0250194
-0.0253337
-0.0252878
-0.0249962
-0.0245466
-0.0343829
-0.0348236
-0.0320941
-0.0310759
-0.0309766
-0.0308053
-0.0303894
-0.0298164
-0.0291897
-0.02847
-0.000190436
-0.000223104
-0.000225631
-0.000206782
-0.000173909
-0.000140942
-0.000111527
-8.90966e-05
-6.98367e-05
-5.03519e-05
-3.31163e-05
-1.12621e-05
4.71379e-06
1.35867e-05
1.4286e-05
-3.22003e-06
-3.61691e-06
-1.29527e-05
-9.88861e-06
-1.94219e-06
-0.000556828
-0.000659466
-0.000668383
-0.000612748
-0.000517617
-0.000418935
-0.000329396
-0.000259742
-0.000206266
-0.000151522
-0.000100378
-3.99419e-05
8.13907e-06
3.66265e-05
4.41892e-05
2.14806e-05
-3.75176e-06
-2.60457e-05
-2.71058e-05
-1.28814e-05
-0.000937281
-0.00110794
-0.00112048
-0.00102474
-0.000864192
-0.000696797
-0.000546457
-0.000431184
-0.000342685
-0.000253737
-0.000168697
-6.94879e-05
1.25511e-05
6.18566e-05
7.73945e-05
3.70843e-05
-4.78868e-06
-4.21494e-05
-4.74134e-05
-2.50743e-05
-0.0013399
-0.00157814
-0.0015897
-0.00144815
-0.00121613
-0.000975605
-0.000762699
-0.000601613
-0.000479365
-0.000356658
-0.000237322
-9.71285e-05
2.05168e-05
9.14955e-05
0.000114116
5.48197e-05
-6.91066e-06
-6.17954e-05
-7.11274e-05
-3.75193e-05
-0.00177396
-0.00207698
-0.00208045
-0.00188519
-0.00157387
-0.00125452
-0.00097649
-0.000770066
-0.000616055
-0.000460517
-0.000306413
-0.000122613
3.27365e-05
0.000126738
0.000156356
7.36783e-05
-1.04965e-05
-8.55709e-05
-9.94048e-05
-5.13253e-05
-0.00224969
-0.00261205
-0.00259769
-0.00233843
-0.00193775
-0.00153229
-0.00118615
-0.000935637
-0.000752711
-0.000565941
-0.000376567
-0.000145806
5.03316e-05
0.000169578
0.000206123
9.40626e-05
-1.59085e-05
-0.000115052
-0.000134453
-6.72111e-05
-0.00277948
-0.00319195
-0.00314702
-0.00281066
-0.00230796
-0.00180735
-0.00138972
-0.00109717
-0.000889378
-0.000673733
-0.000448513
-0.000166394
7.47112e-05
0.000222304
0.00026541
0.000116356
-2.37055e-05
-0.000152367
-0.000178639
-8.55714e-05
-0.00337854
-0.00382622
-0.00373454
-0.0033047
-0.00268433
-0.0020776
-0.00158474
-0.00125325
-0.00102616
-0.000784949
-0.000523213
-0.000184183
0.000107253
0.000287393
0.000335812
0.000140881
-3.45076e-05
-0.000199932
-0.000234528
-0.000106746
-0.0040655
-0.00452543
-0.00436696
-0.00382336
-0.00306628
-0.00234022
-0.00176803
-0.0014022
-0.00116327
-0.000901031
-0.000602021
-0.000199253
0.000149261
0.00036754
0.000420685
0.000168145
-4.82372e-05
-0.000260416
-0.000304764
-0.000130916
-0.00486333
-0.00530125
-0.00505174
-0.00436941
-0.00345276
-0.00259157
-0.00193531
-0.00154187
-0.00130104
-0.00102388
-0.000686779
-0.000212097
0.000201835
0.000465406
0.000521642
0.00019878
-6.68335e-05
-0.000336006
-0.000391751
-0.000157958
-0.00580017
-0.00616654
-0.0057972
-0.0049455
-0.00384212
-0.00282684
-0.00208248
-0.00166971
-0.0014398
-0.00115576
-0.000779825
-0.000223831
0.000265441
0.000583115
0.000640256
0.000233928
-8.89788e-05
-0.000428305
-0.000496906
-0.000187283
-0.00691031
-0.0071354
-0.00661248
-0.00555386
-0.004232
-0.00304663
-0.0022018
-0.00178239
-0.00157926
-0.00129892
-0.000883788
-0.000236436
0.000339214
0.000721064
0.000776745
0.000275338
-0.00011305
-0.000536928
-0.000619476
-0.000217701
-0.008235
-0.00822333
-0.00750778
-0.006195
-0.0046236
-0.00323039
-0.00228734
-0.00187532
-0.00171748
-0.00145419
-0.00100089
-0.000252985
0.000420033
0.000876435
0.000928709
0.000325258
-0.000135586
-0.000658127
-0.000755098
-0.000247345
-0.00982309
-0.00944578
-0.00849315
-0.00686606
-0.00500167
-0.00337769
-0.00233167
-0.00194194
-0.00184933
-0.00161886
-0.00113129
-0.000277646
0.000501092
0.0010407
0.00108934
0.000385506
-0.000151189
-0.00078323
-0.000894646
-0.000273737
-0.0117237
-0.0108087
-0.00956974
-0.00756605
-0.00536687
-0.00348435
-0.00233052
-0.00197389
-0.00196424
-0.00178371
-0.00127056
-0.000314943
0.000570961
0.00119748
0.00124525
0.000455097
-0.000153535
-0.000898594
-0.00102407
-0.000293944
-0.0139529
-0.0122905
-0.0107113
-0.00825395
-0.00571408
-0.00355372
-0.00228866
-0.00196493
-0.0020456
-0.00193029
-0.00140707
-0.000367597
0.000614438
0.00132212
0.00137473
0.000527304
-0.00013808
-0.000987036
-0.00112549
-0.000304714
-0.0164656
-0.0137847
-0.0118556
-0.00888208
-0.00603747
-0.00360337
-0.00222811
-0.00192073
-0.00207585
-0.00203181
-0.0015204
-0.000432669
0.00061632
0.00138424
0.00144843
0.00058825
-0.000105216
-0.00103052
-0.00117942
-0.000302569
-0.0191366
-0.0151188
-0.0128312
-0.00938106
-0.00632981
-0.00366828
-0.00219487
-0.00186225
-0.00204701
-0.00205955
-0.00158207
-0.000498273
0.000567794
0.0013541
0.00143314
0.000617159
-6.1319e-05
-0.00101299
-0.00116729
-0.00028403
-0.0210118
-0.0158767
-0.0134664
-0.00968043
-0.00657546
-0.00378782
-0.00224976
-0.00183071
-0.00196692
-0.00199155
-0.00155948
-0.000542943
0.000472325
0.00121377
0.00129911
0.000592357
-1.64316e-05
-0.000923179
-0.00107358
-0.000245801
-0.02274
-0.0164432
-0.0137302
-0.00975011
-0.00675557
-0.00398122
-0.00243568
-0.00187447
-0.0018552
-0.00181949
-0.00142621
-0.000540633
0.000343465
0.000965779
0.00104304
0.000503194
2.48278e-05
-0.000759004
-0.000891322
-0.000183597
-0.0227146
-0.0162445
-0.0136534
-0.00963583
-0.00682914
-0.00416252
-0.00265519
-0.00195647
-0.00175804
-0.00162308
-0.00124971
-0.000495913
0.000238891
0.000728667
0.000796547
0.00039855
5.79787e-05
-0.000593713
-0.000706382
-0.000117885
-0.0224373
-0.0162547
-0.0135872
-0.00955331
-0.00685638
-0.00427948
-0.00280058
-0.00201919
-0.00170435
-0.00149945
-0.00113025
-0.000459957
0.000180141
0.000583293
0.000643168
0.000332789
7.25127e-05
-0.000487527
-0.000588129
-8.22639e-05
-0.0222842
-0.016252
-0.0135017
-0.00945429
-0.00687028
-0.00440656
-0.00296134
-0.00209438
-0.00165135
-0.00136416
-0.000993698
-0.000413741
0.000122851
0.000431181
0.000480618
0.000262726
8.45717e-05
-0.000370669
-0.000458503
-4.74542e-05
-0.0222041
-0.0162498
-0.0133973
-0.009338
-0.00687492
-0.00453901
-0.0031322
-0.00217734
-0.00159771
-0.00121879
-0.000843116
-0.000358625
6.64428e-05
0.000274773
0.000312373
0.000189749
9.66246e-05
-0.000245163
-0.00031952
-1.08106e-05
-0.0221962
-0.0162511
-0.0132837
-0.00920992
-0.00687339
-0.00467361
-0.00330785
-0.00226416
-0.00154328
-0.00106613
-0.000682158
-0.000296691
1.1069e-05
0.000116906
0.000142139
0.000115998
0.00010947
-0.000112803
-0.000173174
2.77079e-05
-0.0222669
-0.0162575
-0.0131682
-0.00907741
-0.0068684
-0.00480749
-0.0034824
-0.00235084
-0.0014881
-0.000909485
-0.00051504
-0.000230487
-4.30027e-05
-3.94309e-05
-2.62692e-05
4.37754e-05
0.000123601
2.45371e-05
-2.17071e-05
6.73923e-05
-0.0224099
-0.0162644
-0.0130529
-0.00894682
-0.00686242
-0.00493764
-0.00365029
-0.00243338
-0.00143217
-0.000752377
-0.000346412
-0.000162855
-9.56458e-05
-0.000191386
-0.000189191
-2.47161e-05
0.000139458
0.00016475
0.000132347
0.000107574
-0.022609
-0.01626
-0.0129345
-0.00882184
-0.00685702
-0.00506079
-0.00380621
-0.00250816
-0.00137567
-0.000598524
-0.000181061
-9.67193e-05
-0.00014672
-0.000336301
-0.000343276
-8.74249e-05
0.00015728
0.000305584
0.00028627
0.000147575
-0.0228775
-0.016238
-0.012812
-0.00870712
-0.00685306
-0.00517459
-0.00394533
-0.00257203
-0.00131869
-0.000451359
-2.38156e-05
-3.50541e-05
-0.000196445
-0.000471827
-0.000485563
-0.000142745
0.000177831
0.000444796
0.000437595
0.00018681
-0.0233477
-0.0162312
-0.0126986
-0.00861953
-0.00685422
-0.00528186
-0.00406358
-0.00262227
-0.00126078
-0.000313164
0.00011962
1.85556e-05
-0.000247202
-0.000596603
-0.000613695
-0.000190334
0.000204125
0.000580041
0.000584829
0.00022548
-0.0223114
-0.0165385
-0.0125012
-0.00852148
-0.00688792
-0.00551093
-0.00427359
-0.0027008
-0.0011348
-3.73619e-05
0.000392055
0.000110706
-0.000364825
-0.000844276
-0.00085979
-0.000277403
0.000276446
0.000859058
0.000891894
0.000309038
-0.0198704
-0.0150372
-0.0116516
-0.00828348
-0.00681568
-0.00561055
-0.00435082
-0.00268683
-0.00099347
0.000192565
0.00061331
0.000143262
-0.000503218
-0.0010647
-0.00105635
-0.000305073
0.000387816
0.00117148
0.00123765
0.000402578
-0.0163685
-0.0135009
-0.0107894
-0.00806847
-0.0066315
-0.00549142
-0.00421424
-0.00258349
-0.000933688
0.00020392
0.000584006
6.27584e-05
-0.000604412
-0.00113141
-0.00107668
-0.000250085
0.000486565
0.00132904
0.00140569
0.000446484
-0.0127791
-0.011458
-0.00960112
-0.0075723
-0.0062756
-0.00518797
-0.00395812
-0.0024572
-0.000964085
5.29488e-05
0.000404399
-6.2926e-05
-0.00064963
-0.00106553
-0.000976168
-0.000162582
0.000544286
0.00133091
0.00140407
0.000445922
-0.0101529
-0.00974742
-0.00851921
-0.00698567
-0.00581566
-0.00479733
-0.00366285
-0.00233756
-0.00104043
-0.000158366
0.000177464
-0.000180513
-0.000636951
-0.000923227
-0.000817218
-7.95936e-05
0.000549808
0.00121788
0.0012833
0.000415805
-0.00804662
-0.00823254
-0.007463
-0.00631124
-0.0053082
-0.00438245
-0.00336702
-0.00222224
-0.00111502
-0.000360428
-3.01372e-05
-0.000267996
-0.000588755
-0.000761918
-0.00065013
-2.03813e-05
0.00051338
0.00104552
0.00110215
0.000370823
-0.00643829
-0.00694051
-0.00650805
-0.00565522
-0.00480993
-0.00398329
-0.00308513
-0.00210455
-0.00116417
-0.000521883
-0.000196801
-0.000325269
-0.000529647
-0.000616712
-0.000503231
1.27507e-05
0.000452798
0.000858975
0.000904981
0.000320635
-0.00519781
-0.00584878
-0.00565468
-0.00503046
-0.00432778
-0.00360185
-0.00281662
-0.00197951
-0.00118041
-0.000637282
-0.000316965
-0.000359568
-0.00047332
-0.000498473
-0.000387043
2.60228e-05
0.000383467
0.000685588
0.00071916
0.00027039
-0.00422895
-0.00492461
-0.0048937
-0.00444384
-0.00386691
-0.00323924
-0.0025591
-0.00184549
-0.00116322
-0.000663491
-0.000393247
-0.000376633
-0.000424198
-0.000408602
-0.000300252
2.6974e-05
0.000315245
0.000537111
0.000558118
0.000222871
-0.00346238
-0.00414083
-0.00421542
-0.00389848
-0.00343023
-0.00289463
-0.00231012
-0.00170332
-0.00112306
-0.000695419
-0.000437858
-0.00038041
-0.000382015
-0.000341758
-0.000236654
2.1546e-05
0.000253164
0.00041816
0.000426015
0.000179931
-0.00284592
-0.0034736
-0.00361054
-0.00339423
-0.00301829
-0.00256635
-0.00206804
-0.00155333
-0.00106199
-0.000694233
-0.000455726
-0.000373181
-0.000344316
-0.000288045
-0.000189839
1.36412e-05
0.00019905
0.000321962
0.000321195
0.000142562
-0.00234157
-0.00290224
-0.00307009
-0.00292869
-0.00263009
-0.00225292
-0.00183207
-0.00139856
-0.000984009
-0.000667943
-0.000451903
-0.000356562
-0.000309085
-0.000245385
-0.000154913
5.52428e-06
0.00015358
0.000246131
0.000239921
0.000111046
-0.00192143
-0.00240897
-0.00258552
-0.00249844
-0.00226406
-0.00195305
-0.00160155
-0.00123942
-0.000892166
-0.000622418
-0.000430721
-0.000331913
-0.000274853
-0.000209981
-0.000128276
-1.53299e-06
0.000116232
0.000186772
0.000177843
8.51586e-05
-0.00156493
-0.00197867
-0.0021488
-0.00209969
-0.00191826
-0.00166547
-0.00137597
-0.00107711
-0.000789701
-0.00056227
-0.000395821
-0.000300464
-0.000240664
-0.000178789
-0.000106509
-6.3985e-06
8.62488e-05
0.000140443
0.000130795
6.43263e-05
-0.00125663
-0.00159865
-0.00175238
-0.00172851
-0.00159049
-0.00138887
-0.00115497
-0.000912701
-0.000679075
-0.000490997
-0.000350204
-0.000263343
-0.000205912
-0.000149937
-8.77597e-05
-9.53824e-06
6.26357e-05
0.000104303
9.52041e-05
4.77929e-05
-0.000984814
-0.00125828
-0.00138928
-0.00138091
-0.00127842
-0.00112191
-0.000938143
-0.000747075
-0.000562323
-0.000411363
-0.000296342
-0.000221583
-0.000170302
-0.000122279
-7.07803e-05
-1.06756e-05
4.43442e-05
7.60314e-05
6.81929e-05
3.47539e-05
-0.00074034
-0.000948626
-0.00105299
-0.00105291
-0.000979627
-0.000863201
-0.000725079
-0.000580898
-0.000441139
-0.00032558
-0.000236289
-0.000176137
-0.000133724
-9.50896e-05
-5.46822e-05
-1.00607e-05
3.02967e-05
5.36483e-05
4.74265e-05
2.44445e-05
-0.000516111
-0.000662208
-0.00073768
-0.000740709
-0.000691737
-0.000611372
-0.000515334
-0.000414691
-0.000316952
-0.0002355
-0.000171812
-0.000127983
-9.62787e-05
-6.79525e-05
-3.88661e-05
-7.92481e-06
1.95223e-05
3.5494e-05
3.08506e-05
1.60276e-05
-0.000305372
-0.000392296
-0.00043805
-0.000440843
-0.000412665
-0.000365264
-0.00030855
-0.000248936
-0.000190975
-0.000142748
-0.000104466
-7.8142e-05
-5.83818e-05
-4.08458e-05
-2.31355e-05
-4.45719e-06
1.12696e-05
2.05818e-05
1.70746e-05
8.4726e-06
-0.000104294
-0.000132234
-0.000147863
-0.000148597
-0.000139099
-0.00012282
-0.000103622
-8.35271e-05
-6.38998e-05
-4.8156e-05
-3.52201e-05
-2.6878e-05
-2.01385e-05
-1.38414e-05
-7.86415e-06
-6.17805e-07
4.24328e-06
7.59305e-06
5.71917e-06
1.71945e-06
-0.0317521
-0.0319926
-0.0281295
-0.0259905
-0.0254213
-0.0253457
-0.0253446
-0.0253726
-0.0254436
-0.0254483
-0.00503427
-0.00900053
-0.0113815
-0.0132647
-0.0150713
-0.0166966
-0.0179904
-0.0189216
-0.01952
-0.0198552
-0.00493068
-0.00820197
-0.0101302
-0.011317
-0.0123141
-0.0132477
-0.0140617
-0.014711
-0.0151936
-0.0155354
-0.00228192
-0.00409647
-0.00540532
-0.0064105
-0.00733111
-0.00821856
-0.00903953
-0.00976206
-0.0103778
-0.0108936
-0.00140423
-0.0026118
-0.00365314
-0.00453831
-0.00534155
-0.00609217
-0.00678363
-0.0074045
-0.0079502
-0.00842355
-0.00114471
-0.00194018
-0.00267588
-0.00333692
-0.00394879
-0.00452562
-0.00506657
-0.0055668
-0.00602337
-0.00643705
-0.000984756
-0.00153194
-0.00206043
-0.00255904
-0.00303382
-0.00348829
-0.00392073
-0.00432783
-0.00470683
-0.00505694
-0.000865938
-0.00127175
-0.00166812
-0.0020498
-0.00241888
-0.00277576
-0.00311848
-0.00344467
-0.00375232
-0.00404067
-0.000765673
-0.00107982
-0.00138499
-0.00168038
-0.00196866
-0.0022499
-0.00252227
-0.00278389
-0.00303316
-0.00326942
-0.000673226
-0.000921381
-0.00116126
-0.00139391
-0.0016222
-0.00184623
-0.00206448
-0.00227542
-0.00247777
-0.00267105
-0.000587058
-0.000785313
-0.000976667
-0.0011625
-0.00134531
-0.00152527
-0.0017012
-0.00187194
-0.00203653
-0.00219464
-0.000507296
-0.0006666
-0.000820418
-0.000969982
-0.0011173
-0.00126255
-0.00140485
-0.00154337
-0.00167738
-0.00180665
-0.000433652
-0.000561781
-0.000685632
-0.00080621
-0.000925068
-0.00104236
-0.00115744
-0.0012697
-0.00137858
-0.00148395
-0.000365483
-0.000468094
-0.000567392
-0.000664179
-0.000759638
-0.00085389
-0.000946467
-0.00103691
-0.00112479
-0.00121006
-0.000302021
-0.00038327
-0.000461967
-0.00053875
-0.000614517
-0.000689356
-0.000762917
-0.000834861
-0.000904876
-0.000972931
-0.000242461
-0.00030541
-0.000366416
-0.000425985
-0.00048479
-0.000542897
-0.000600044
-0.000655983
-0.000710481
-0.000763527
-0.000185908
-0.000232803
-0.000278336
-0.000322809
-0.000366679
-0.000410004
-0.000452616
-0.000494351
-0.000535044
-0.000574711
-0.000131479
-0.000163745
-0.000195458
-0.000226585
-0.000257247
-0.000287453
-0.000317116
-0.000346147
-0.000374427
-0.000401968
-8.02184e-05
-9.83164e-05
-0.000116171
-0.000133925
-0.000151572
-0.000169054
-0.000186295
-0.000203246
-0.000219865
-0.000236229
-3.51555e-05
-4.40549e-05
-5.08569e-05
-5.64431e-05
-6.18958e-05
-6.74575e-05
-7.29853e-05
-7.83362e-05
-8.33853e-05
-8.81205e-05
0.00317532
0.0032095
0.00329701
0.00342348
0.00360889
0.00383173
0.00413374
0.00447281
0.00492967
0.00541847
0.00610181
0.00679677
0.00785067
0.00883938
0.0105716
0.0118976
0.0148967
0.0153736
0.0180761
-0.00206274
0.00315007
0.00318316
0.0032672
0.00338981
0.00356736
0.00378221
0.00406847
0.0043929
0.0048187
0.00528027
0.00589789
0.00653872
0.00743573
0.00830414
0.00958894
0.0106321
0.0121043
0.0124467
0.011516
0.00955856
0.0031012
0.00313382
0.00321308
0.0033304
0.00349739
0.00370201
0.00396784
0.00427362
0.00466005
0.00508745
0.00562531
0.00619933
0.00692044
0.00764731
0.00851369
0.00924559
0.00979383
0.0098792
0.00789973
0.00571357
0.00303018
0.00306208
0.0031357
0.0032464
0.00340093
0.00359293
0.00383534
0.00411826
0.00446107
0.00484715
0.00530141
0.00579736
0.00635115
0.00692304
0.00745446
0.00791779
0.00792357
0.00772932
0.00545417
0.00320256
0.00293844
0.00296912
0.00303668
0.00313957
0.00328064
0.0034578
0.00367553
0.00393199
0.00423059
0.00456989
0.00494441
0.00535601
0.00576541
0.00618904
0.00647873
0.00671781
0.00642604
0.00599369
0.00395891
0.00182442
0.00282748
0.00285644
0.00291774
0.00301196
0.00313916
0.00329986
0.00349279
0.0037205
0.00397646
0.00426667
0.00456901
0.00489767
0.00518938
0.00547991
0.00560216
0.00565771
0.00523059
0.00463109
0.00294802
0.000949306
0.00269891
0.00272568
0.00278074
0.00286575
0.00297912
0.00312246
0.00329126
0.00348944
0.00370562
0.00394743
0.00418674
0.00443859
0.00463726
0.00481454
0.00482451
0.00474222
0.00426962
0.00358774
0.0022084
0.00047016
0.00255437
0.00257862
0.00262757
0.00270319
0.00280309
0.0029289
0.00307475
0.003244
0.00342395
0.0036204
0.00380584
0.00399023
0.00411659
0.00420352
0.00414039
0.0039666
0.0034934
0.00280267
0.00166593
0.000224827
0.00239551
0.00241706
0.00246011
0.00252647
0.0026135
0.00272225
0.00284671
0.00298869
0.00313625
0.00329197
0.00343209
0.00356003
0.00363106
0.00365058
0.00354185
0.00331651
0.0028646
0.00221309
0.0012675
8.76336e-05
0.00222394
0.00224277
0.00228023
0.00233768
0.00241262
0.00250527
0.0026101
0.00272723
0.00284629
0.00296675
0.00306939
0.00315215
0.00318183
0.00315455
0.00301954
0.00277272
0.002353
0.00176392
0.00097135
5.8332e-06
0.00204127
0.00205745
0.00208966
0.00213876
0.00220249
0.00228034
0.00236744
0.00246253
0.00255694
0.00264784
0.00272012
0.00276823
0.00276809
0.00271093
0.00256361
0.00231573
0.00193383
0.00141449
0.00074851
-4.23794e-05
0.00184901
0.00186271
0.00189004
0.00193144
0.00198493
0.00204943
0.00212078
0.00219677
0.00227026
0.00233707
0.00238539
0.00240808
0.00238763
0.00231368
0.00216434
0.00192839
0.00158723
0.00113729
0.000579139
-6.86863e-05
0.00164858
0.00166
0.00168286
0.00171727
0.00176152
0.00181419
0.00187175
0.00193151
0.00198758
0.00203528
0.00206532
0.00207032
0.0020373
0.00195637
0.00181266
0.00159655
0.00129744
0.000913479
0.000448811
-8.0378e-05
0.00144129
0.00145065
0.00146945
0.00149759
0.00153359
0.00157591
0.00162155
0.00166774
0.00170961
0.00174256
0.00175924
0.00175281
0.0017135
0.00163281
0.00150037
0.0013088
0.00105195
0.000729597
0.000346946
-8.22573e-05
0.00122835
0.00123587
0.001251
0.00127354
0.00130223
0.00133556
0.00137104
0.00140602
0.00143655
0.00145845
0.00146591
0.00145305
0.00141246
0.00133727
0.00122018
0.00105584
0.000840734
0.000575688
0.000265839
-7.75382e-05
0.00101084
0.00101671
0.00102856
0.00104611
0.00106834
0.0010939
0.00112074
0.00114656
0.00116819
0.0011821
0.00118375
0.00116836
0.00113037
0.00106452
0.000965638
0.000830054
0.000655793
0.000444184
0.000199823
-6.83918e-05
0.000789756
0.000794149
0.000803022
0.000816123
0.000832636
0.00085144
0.000870941
0.000889282
0.000904017
0.000912366
0.000910906
0.000895986
0.000863553
0.000809773
0.000731074
0.000625044
0.000490626
0.000329211
0.000144581
-5.63727e-05
0.000565975
0.000569029
0.000575198
0.000584275
0.000595664
0.000608532
0.000621731
0.000633903
0.00064331
0.000647949
0.000645424
0.000633177
0.000608442
0.000568634
0.000511428
0.000435346
0.00033986
0.000226128
9.68083e-05
-4.28108e-05
0.000340318
0.000342127
0.000345784
0.000351148
0.00035785
0.000365374
0.000373027
0.00037998
0.000385188
0.000387438
0.000385301
0.000377256
0.000361691
0.000337115
0.00030222
0.000256229
0.000198953
0.000131189
5.44125e-05
-2.85883e-05
0.000113563
0.000114174
0.000115408
0.000117208
0.000119448
0.00012195
0.000124483
0.000126764
0.000128441
0.000129104
0.000128265
0.000125407
0.000119991
0.000111521
9.95739e-05
8.39119e-05
6.45359e-05
4.1849e-05
1.65636e-05
-1.20617e-05
0.00307987
0.00311298
0.00320487
0.00332895
0.00352247
0.00374183
0.00406045
0.00439282
0.00488221
0.00535741
0.00610687
0.00677678
0.00797422
0.00893303
0.0110188
0.0124298
0.0165801
0.0183071
0.0285118
0.0214723
0.00309947
0.00313261
0.00322536
0.00334943
0.00354478
0.00376434
0.00408657
0.00441913
0.00491577
0.00539108
0.00615611
0.00682662
0.00806094
0.00902705
0.0112141
0.012692
0.0171892
0.0195526
0.0308913
0.0303368
0.00311681
0.00315014
0.00324325
0.00336767
0.00356391
0.00378428
0.00410831
0.00444224
0.00494258
0.00542037
0.00619374
0.00686942
0.00812512
0.00910621
0.0113582
0.0129093
0.0176491
0.0205592
0.0324528
0.0362542
0.00313195
0.00316542
0.00325873
0.00338343
0.00358022
0.00380118
0.00412631
0.00446125
0.00496387
0.0054435
0.0062221
0.00690164
0.00817102
0.00916323
0.0114578
0.0130632
0.0179644
0.0212617
0.0335025
0.0399197
0.00314489
0.00317842
0.00327183
0.00339667
0.00359373
0.00381497
0.00414062
0.00447604
0.00497972
0.00546023
0.00624134
0.00692275
0.00819878
0.00919652
0.0115122
0.0131454
0.0181292
0.0216322
0.0340524
0.0417662
0.00315561
0.00318917
0.00328253
0.00340741
0.0036044
0.00382569
0.00415117
0.00448666
0.00499002
0.00547068
0.00625118
0.00693291
0.00820781
0.00920608
0.0115197
0.0131533
0.0181375
0.0216533
0.034105
0.0419868
0.00316412
0.00319765
0.00329082
0.00341564
0.00361223
0.00383333
0.00415797
0.00449311
0.00499474
0.00547484
0.00625162
0.00693216
0.00819814
0.00919194
0.0114802
0.0130864
0.0179885
0.0213222
0.03366
0.0405982
0.00317043
0.00320386
0.00329672
0.00342136
0.00361727
0.00383787
0.00416109
0.00449535
0.00499406
0.00547259
0.00624297
0.0069203
0.00817046
0.00915406
0.0113957
0.0129474
0.0176877
0.0206494
0.0327228
0.0374537
0.00317454
0.00320781
0.00330024
0.00342457
0.00361949
0.00383933
0.00416051
0.00449343
0.00498797
0.00546409
0.00622523
0.00689755
0.00812469
0.00909419
0.0112666
0.0127441
0.0172383
0.0196487
0.0313143
0.0322119
0.0031764
0.00320966
0.00330114
0.00342553
0.00361854
0.00383823
0.00415546
0.0044884
0.00497487
0.00545151
0.00619535
0.00686871
0.00805531
0.00902106
0.0110837
0.0124978
0.0166181
0.0183608
0.0290878
0.0241582
)
;

boundaryField
{
    inlet
    {
        type            zeroGradient;
    }
    outlet
    {
        type            fixedValue;
        value           uniform 0;
    }
    upAndBottom
    {
        type            empty;
    }
    obstacle
    {
        type            zeroGradient;
    }
}


// ************************************************************************* //
