/*--------------------------------*- C++ -*----------------------------------*\
| =========                 |                                                 |
| \\      /  F ield         | OpenFOAM: The Open Source CFD Toolbox           |
|  \\    /   O peration     | Version:  v1806                                 |
|   \\  /    A nd           | Web:      www.OpenFOAM.com                      |
|    \\/     M anipulation  |                                                 |
\*---------------------------------------------------------------------------*/
FoamFile
{
    version     2.0;
    format      ascii;
    class       volScalarField;
    location    "470";
    object      p;
}
// * * * * * * * * * * * * * * * * * * * * * * * * * * * * * * * * * * * * * //

dimensions      [0 2 -2 0 0 0 0];


internalField   nonuniform List<scalar> 
2400
(
0.000319682
0.000319009
0.0003175
0.000315027
0.000311374
0.00030624
0.000299252
0.000289991
0.000278005
0.000262836
0.000244044
0.000221251
0.000194172
0.000162677
0.000126808
8.68688e-05
4.33962e-05
-2.65067e-06
-5.05067e-05
-0.000101567
0.000959656
0.000957794
0.000953644
0.000946817
0.000936689
0.000922396
0.000902868
0.000876889
0.000843138
0.000800267
0.000746967
0.00068209
0.000604741
0.000514446
0.000411233
0.000295819
0.000169559
3.45686e-05
-0.000106667
-0.000250221
0.00160134
0.00159851
0.00159218
0.0015817
0.00156602
0.00154369
0.00151294
0.0014717
0.00141772
0.00134868
0.00126229
0.00115645
0.0010295
0.000880422
0.000709024
0.000516266
0.000304243
7.65437e-05
-0.000162068
-0.000404851
0.00224568
0.00224216
0.00223427
0.00222107
0.00220108
0.00217224
0.00213199
0.0020774
0.00200517
0.00191186
0.00179402
0.00164845
0.00147242
0.00126413
0.00102292
0.000749822
0.000447563
0.00012119
-0.000222517
-0.000574757
0.0028933
0.00288948
0.00288085
0.00286622
0.00284362
0.00281039
0.00276312
0.0026979
0.00261029
0.00249559
0.00234891
0.00216568
0.00194178
0.00167428
0.00136168
0.00100473
0.000606581
0.000173612
-0.000285303
-0.000758134
0.00354444
0.00354082
0.00353251
0.00351809
0.00349513
0.00346025
0.0034092
0.00333698
0.00323786
0.00310567
0.00293383
0.00271602
0.00244627
0.00212004
0.0017344
0.00128944
0.000788304
0.000238632
-0.000348316
-0.000956532
0.00419888
0.00419606
0.00418938
0.00417721
0.0041566
0.0041235
0.0040727
0.0039981
0.00389245
0.00374795
0.0035559
0.00330788
0.00299537
0.00261168
0.00215159
0.00161393
0.00100118
0.000322105
-0.000409468
-0.00117286
0.00485583
0.00485452
0.004851
0.00484346
0.00482846
0.00480125
0.00475563
0.00468432
0.00457843
0.00442828
0.00422261
0.00395048
0.00359988
0.00316135
0.002626
0.00199074
0.00125616
0.000431884
-0.000465695
-0.00141023
0.00551384
0.00551484
0.00551622
0.00551606
0.00551043
0.00549392
0.00545934
0.00539821
0.00529982
0.0051525
0.00494184
0.00465396
0.00427214
0.00378345
0.00317326
0.00243586
0.00156757
0.000578753
-0.000512316
-0.0016722
0.00617066
0.00617487
0.0061831
0.00619337
0.00620136
0.00620103
0.0061843
0.00614152
0.00606005
0.00592612
0.0057216
0.00542932
0.00502615
0.00449515
0.00381258
0.00296984
0.00195433
0.000777813
-0.000542268
-0.00196309
0.00682324
0.0068316
0.00684875
0.00687277
0.00689902
0.006921
0.00692983
0.00691486
0.00686156
0.00675398
0.00656978
0.00628816
0.00587764
0.0053168
0.00456766
0.00361938
0.00244149
0.00105052
-0.000545124
-0.00228803
0.00746759
0.00748109
0.00750933
0.00755055
0.0076
0.00765085
0.00769378
0.00771729
0.00770526
0.00763957
0.00749353
0.0072422
0.00684395
0.00627214
0.0054679
0.00441944
0.00306263
0.00142784
-0.000506463
-0.00265322
0.00809881
0.00811841
0.00815989
0.00822178
0.00829944
0.008386
0.00847212
0.00854576
0.00858991
0.00858425
0.00849841
0.00830223
0.0079434
0.00738787
0.00654958
0.00541578
0.00386438
0.00195622
-0.000407425
-0.00306615
0.00871109
0.00873768
0.0087944
0.00888023
0.00899096
0.00911994
0.00925854
0.00939451
0.00951119
0.00958604
0.00958691
0.00947662
0.00919415
0.00869225
0.00785642
0.00666597
0.00491436
0.00270913
-0.000219009
-0.00353228
0.00929776
0.0093321
0.00940578
0.00951838
0.0096665
0.0098441
0.010044
0.0102544
0.0104607
0.0106382
0.0107564
0.0107688
0.0106119
0.0102131
0.00943934
0.00823626
0.00630913
0.00379983
0.000122432
-0.00403422
0.00985144
0.00989407
0.00998595
0.0101275
0.0103164
0.0105477
0.0108166
0.0111125
0.0114247
0.0117275
0.0119964
0.012174
0.012205
0.0119751
0.0113561
0.0101987
0.00817452
0.00536511
0.000767323
-0.00445562
0.0103642
0.0104154
0.0105261
0.0106977
0.0109294
0.0112178
0.0115612
0.0119515
0.0123833
0.0128327
0.0132848
0.0136745
0.0139652
0.0139926
0.0136658
0.0126443
0.010674
0.00750353
0.00196183
-0.00453439
0.010828
0.0108877
0.011017
0.0112186
0.0114932
0.0118398
0.0122599
0.0127496
0.0133101
0.0139228
0.0145851
0.0152336
0.0158565
0.0162544
0.0163981
0.0157002
0.0140747
0.0103248
0.00390457
-0.00443775
0.0112348
0.0113024
0.0114493
0.0116793
0.0119949
0.0123974
0.0128925
0.0134814
0.0141723
0.0149566
0.0158444
0.0167891
0.0178023
0.0186981
0.0195013
0.0194838
0.0187662
0.0144685
0.00692079
-0.00914248
0.011577
0.0116514
0.0118139
0.0120691
0.0124212
0.0128742
0.0134376
0.0141185
0.0149324
0.0158832
0.0169945
0.0182482
0.0196789
0.0211693
0.0227773
0.0239217
0.0248326
0.021838
0.0160903
-0.021779
-0.000146947
-0.000172332
-0.000191238
-0.000207543
-0.000223561
-0.000239341
-0.000254425
-0.000268335
-0.000281186
-0.000291039
-0.000346809
-0.000400001
-0.000452942
-0.000505033
-0.000555799
-0.000604898
-0.000652053
-0.000696802
-0.000739641
-0.000778306
-0.000573552
-0.000669117
-0.00076282
-0.000854056
-0.000942535
-0.00102796
-0.00111008
-0.00118834
-0.00126337
-0.00133216
-0.000822606
-0.000962163
-0.00109767
-0.00122935
-0.00135739
-0.00148134
-0.00160065
-0.00171445
-0.00182344
-0.00192377
-0.00109168
-0.00127941
-0.00146178
-0.00163917
-0.00181176
-0.00197887
-0.00213969
-0.00229301
-0.00243958
-0.00257471
-0.00138736
-0.00163014
-0.00186604
-0.00209537
-0.00231839
-0.00253419
-0.00274164
-0.00293919
-0.00312759
-0.00330137
-0.00171652
-0.00202312
-0.00232081
-0.00260994
-0.00289087
-0.00316245
-0.00342312
-0.00367096
-0.00390656
-0.00412401
-0.00208705
-0.002469
-0.0028394
-0.00319865
-0.00354725
-0.00388371
-0.00420596
-0.00451167
-0.004801
-0.00506825
-0.00250933
-0.00298204
-0.00343963
-0.00388253
-0.00431139
-0.00472432
-0.0051185
-0.00549128
-0.00584202
-0.0061663
-0.00299731
-0.00358165
-0.00414594
-0.00469039
-0.00521582
-0.0057198
-0.00619855
-0.00664928
-0.00707006
-0.00745933
-0.00357004
-0.00429506
-0.00499302
-0.00566321
-0.00630644
-0.00691966
-0.00749797
-0.00803878
-0.00853849
-0.00900047
-0.00425431
-0.00516205
-0.00603266
-0.00686196
-0.00765037
-0.00839464
-0.00908913
-0.00973204
-0.0103181
-0.0108577
-0.00509045
-0.00624563
-0.00734847
-0.00838399
-0.00935188
-0.010251
-0.0110768
-0.0118293
-0.0125031
-0.0131159
-0.0061473
-0.00765607
-0.00908352
-0.0103912
-0.0115806
-0.0126579
-0.0136232
-0.014479
-0.0152255
-0.0158826
-0.00756911
-0.00961563
-0.0114936
-0.0131456
-0.0145972
-0.01587
-0.0169694
-0.017896
-0.0186678
-0.0192918
-0.0096992
-0.012648
-0.0151246
-0.0171396
-0.0188354
-0.0202721
-0.0214502
-0.0223553
-0.023041
-0.0234755
-0.0131761
-0.0177825
-0.0211171
-0.023447
-0.0252356
-0.026646
-0.0276801
-0.0283109
-0.0286467
-0.0286025
-0.0186405
-0.025691
-0.0301673
-0.0328427
-0.0345455
-0.0355647
-0.0359985
-0.0359221
-0.0355084
-0.0346551
-0.029205
-0.0366895
-0.0407681
-0.0432461
-0.0444169
-0.0443506
-0.0434007
-0.041967
-0.0403367
-0.0386045
-0.0686816
-0.0643532
-0.0581646
-0.05593
-0.0546208
-0.0527293
-0.0503288
-0.0477104
-0.0450481
-0.0426066
-0.000360605
-0.000393958
-0.000269199
-5.65027e-05
6.83999e-05
3.03354e-05
-7.03746e-06
-8.63006e-05
-0.000123524
-8.97786e-05
2.61962e-06
0.000230633
0.00034646
0.000168116
5.0206e-05
-0.000186931
-0.000136603
-0.000242744
-0.000120955
3.12649e-05
-0.00102995
-0.00110019
-0.000847489
-0.000277307
0.000175376
0.000254878
8.39396e-05
-0.0001966
-0.000321875
-0.000273751
-9.33165e-05
0.000297619
0.000311772
0.000462666
0.000237507
-0.000291029
-0.000332108
-0.000354725
-0.000279471
-2.6987e-05
-0.00173974
-0.00187187
-0.00146293
-0.000515321
0.000295947
0.00047877
0.000168956
-0.000328165
-0.000550913
-0.000491654
-0.00025429
0.000330954
0.00054109
0.000750178
0.00041042
-0.000407627
-0.000529954
-0.000539857
-0.000448325
-0.000108259
-0.00250592
-0.00269838
-0.0021147
-0.000756747
0.000426797
0.000704152
0.000243538
-0.00049799
-0.000830826
-0.000743067
-0.000426069
0.000365431
0.000718735
0.000991976
0.000543283
-0.000530806
-0.000722564
-0.000734774
-0.000628801
-0.000173088
-0.00334462
-0.00360041
-0.00282022
-0.00101423
0.000572116
0.000939345
0.000308342
-0.000716281
-0.00117372
-0.00103197
-0.000613953
0.000365409
0.000848123
0.00117098
0.000627171
-0.00064718
-0.000895696
-0.000911013
-0.000803034
-0.000229233
-0.00427485
-0.00460129
-0.00360128
-0.00129944
0.000738032
0.00118515
0.000356242
-0.000998062
-0.00159651
-0.00137359
-0.000837592
0.000318853
0.000924288
0.00126648
0.000645709
-0.000758485
-0.00104003
-0.00106498
-0.000968974
-0.000283483
-0.00531861
-0.0057264
-0.00448149
-0.00162479
0.000924533
0.00143843
0.000376127
-0.00135714
-0.00211683
-0.00178328
-0.00110717
0.000222719
0.000937419
0.00125501
0.000576458
-0.000873917
-0.00114924
-0.00119233
-0.00112489
-0.000335512
-0.0065019
-0.0070054
-0.00548962
-0.00200572
0.00112634
0.00169541
0.000356053
-0.00180067
-0.00274654
-0.00227171
-0.0014289
7.14592e-05
0.00087697
0.00111611
0.000396018
-0.00100792
-0.00122362
-0.00129168
-0.00126494
-0.000384422
-0.00785614
-0.0084733
-0.00666168
-0.00245885
0.0013287
0.00195248
0.000286722
-0.0023215
-0.00348356
-0.00284363
-0.00180928
-0.000141573
0.000733712
0.000840986
8.57983e-05
-0.00117748
-0.0012708
-0.00136538
-0.00138432
-0.000430244
-0.00941991
-0.0101717
-0.00804249
-0.00300029
0.00150479
0.00219984
0.000163382
-0.00288979
-0.00430515
-0.00349445
-0.00225298
-0.000421746
0.000501331
0.000419162
-0.000361836
-0.00139738
-0.00130449
-0.00142023
-0.00148126
-0.000473141
-0.011241
-0.0121508
-0.00968748
-0.00364654
0.00161138
0.00240304
-2.03996e-05
-0.00345155
-0.00515861
-0.00420615
-0.00276001
-0.000772091
0.000178785
-0.000133624
-0.000939885
-0.00167638
-0.00134151
-0.00146632
-0.00155664
-0.00051322
-0.0133781
-0.014471
-0.0116643
-0.0044185
0.00158851
0.00248095
-0.000294052
-0.00395033
-0.0059615
-0.00494582
-0.0033242
-0.00119231
-0.000229596
-0.000796004
-0.00162784
-0.00201576
-0.00139797
-0.00151485
-0.00161362
-0.000550692
-0.0159032
-0.017205
-0.0140533
-0.00534546
0.0013642
0.00229701
-0.00072756
-0.0043677
-0.00662074
-0.00566964
-0.00393287
-0.00167756
-0.000713747
-0.00153901
-0.00239585
-0.00240892
-0.00148603
-0.00157585
-0.00165702
-0.000585936
-0.0188918
-0.0204384
-0.0169441
-0.00646438
0.000866595
0.00168951
-0.00142525
-0.00474357
-0.00708279
-0.00633226
-0.0045679
-0.0022178
-0.00125837
-0.00233019
-0.00321013
-0.00284285
-0.00161177
-0.00165643
-0.0016925
-0.000619456
-0.02237
-0.0242157
-0.0204204
-0.00781223
4.43885e-05
0.000556337
-0.00247409
-0.00515096
-0.00727523
-0.00689614
-0.00520819
-0.00279827
-0.00184423
-0.00313704
-0.00403584
-0.00330224
-0.00177479
-0.00175996
-0.00172546
-0.000651818
-0.0262393
-0.028471
-0.0245009
-0.00941251
-0.0011214
-0.00107087
-0.00387909
-0.00565151
-0.00725922
-0.0073411
-0.00583273
-0.00340071
-0.00244962
-0.00392941
-0.00484139
-0.00377108
-0.00196941
-0.00188604
-0.00176035
-0.000683593
-0.030097
-0.032819
-0.0290531
-0.011251
-0.0026178
-0.0030436
-0.00556306
-0.00624999
-0.00710452
-0.00766584
-0.00642316
-0.00400509
-0.00305203
-0.00468101
-0.00560002
-0.00423392
-0.00218665
-0.00203099
-0.00180004
-0.000715265
-0.0330496
-0.0363022
-0.0336583
-0.0132619
-0.00438255
-0.00516055
-0.00738729
-0.00690849
-0.00689823
-0.00788747
-0.00696522
-0.00459133
-0.0036297
-0.00537016
-0.00628994
-0.00467603
-0.00241613
-0.00218865
-0.00184565
-0.000747174
-0.0341799
-0.0379325
-0.0375663
-0.0152963
-0.00631053
-0.00727437
-0.00920361
-0.00757105
-0.0067123
-0.00803414
-0.00744869
-0.00514085
-0.00416293
-0.00597988
-0.00689469
-0.00508186
-0.00264563
-0.00235228
-0.00189648
-0.000779429
-0.0354454
-0.0380725
-0.0402299
-0.0171768
-0.00826877
-0.00928812
-0.0109001
-0.00818234
-0.00658452
-0.00813232
-0.00786659
-0.00563754
-0.00463501
-0.00649784
-0.00740503
-0.00543569
-0.00285848
-0.00251745
-0.00195137
-0.00081187
-0.0362512
-0.0379174
-0.0412451
-0.0185325
-0.00983422
-0.0108533
-0.0121576
-0.00861807
-0.00652735
-0.00819
-0.00815997
-0.00599817
-0.00496687
-0.00684881
-0.00774948
-0.00567695
-0.00300966
-0.00265317
-0.00200037
-0.000839409
-0.037075
-0.0379428
-0.0413459
-0.0194938
-0.011
-0.0120377
-0.013052
-0.00892066
-0.00650616
-0.00822316
-0.00836392
-0.00625951
-0.00520073
-0.00708167
-0.00797522
-0.00583879
-0.00311899
-0.00275458
-0.00204002
-0.000861992
-0.0381106
-0.0380125
-0.0406681
-0.0203043
-0.0120418
-0.0131554
-0.0138261
-0.00917325
-0.00649859
-0.00824415
-0.00853403
-0.00648958
-0.00540061
-0.00726502
-0.00815214
-0.00596943
-0.00321385
-0.00284601
-0.00207942
-0.000884076
-0.0393762
-0.0380028
-0.039172
-0.020929
-0.0129457
-0.0142114
-0.0144738
-0.00936904
-0.00649418
-0.00825337
-0.00866877
-0.00668246
-0.00556262
-0.00740103
-0.00828186
-0.00606783
-0.00329187
-0.00292564
-0.00211785
-0.00090472
-0.0409284
-0.0377897
-0.0368496
-0.0213401
-0.0137091
-0.015207
-0.0149905
-0.00950181
-0.00648279
-0.00824868
-0.00876657
-0.00683531
-0.00568594
-0.00749137
-0.00836536
-0.00613327
-0.00335145
-0.00299167
-0.00215435
-0.000923519
-0.0427863
-0.0372417
-0.0337426
-0.0215082
-0.0143403
-0.0161379
-0.0153732
-0.00956563
-0.00645477
-0.00822632
-0.00882573
-0.00694723
-0.00577125
-0.0075375
-0.00840408
-0.00616525
-0.00339124
-0.0030425
-0.00218788
-0.000940256
-0.0449003
-0.0362001
-0.0299431
-0.021396
-0.0148609
-0.0169921
-0.0156205
-0.00955504
-0.00640108
-0.0081818
-0.00884442
-0.00701779
-0.00581973
-0.00754151
-0.00840024
-0.00616336
-0.00340977
-0.00307694
-0.00221747
-0.000954639
-0.0471763
-0.034497
-0.0255865
-0.0209565
-0.0153115
-0.0177465
-0.0157316
-0.00946742
-0.0063137
-0.00811035
-0.0088207
-0.00704668
-0.00583305
-0.00750617
-0.00835655
-0.00612824
-0.00340592
-0.00309371
-0.00224227
-0.000966285
-0.0495792
-0.0320066
-0.0208392
-0.0201511
-0.0157499
-0.0183672
-0.0157047
-0.00930756
-0.00618812
-0.00800618
-0.00875265
-0.0070339
-0.00581358
-0.00743465
-0.00827458
-0.00606338
-0.00338182
-0.00308997
-0.0022614
-0.000974858
-0.0520154
-0.0287288
-0.0158545
-0.0189521
-0.0162443
-0.0188254
-0.0155388
-0.00908692
-0.00602556
-0.00786086
-0.0086376
-0.00697992
-0.00576448
-0.00732978
-0.00815302
-0.00597444
-0.0033451
-0.00306098
-0.00227298
-0.000980135
-0.0525683
-0.0224925
-0.00719667
-0.0163443
-0.0173306
-0.01929
-0.0150633
-0.00862736
-0.00569686
-0.00755336
-0.00836745
-0.00682382
-0.00564315
-0.00711244
-0.0078996
-0.00579352
-0.0032619
-0.00297761
-0.00227467
-0.000981413
-0.0438192
-0.0123459
0.00195023
-0.0122464
-0.0187976
-0.0189773
-0.0138014
-0.00764101
-0.00500691
-0.00690819
-0.00773813
-0.00639989
-0.00534739
-0.00672033
-0.00744094
-0.00542118
-0.00302665
-0.00277971
-0.0022224
-0.00095605
-0.0324702
-0.00640584
0.00298938
-0.00981382
-0.0193943
-0.0176175
-0.012048
-0.00640142
-0.00410624
-0.00600338
-0.00683477
-0.00579819
-0.00498778
-0.00627198
-0.00688601
-0.00493753
-0.00269615
-0.00249623
-0.00209942
-0.000901589
-0.0240809
-0.00397758
0.00180918
-0.00886634
-0.018189
-0.0153474
-0.0100409
-0.00505694
-0.00305007
-0.00484021
-0.00566104
-0.00505839
-0.00462747
-0.00580545
-0.00626293
-0.00436676
-0.0022893
-0.00212907
-0.00189898
-0.0008155
-0.018629
-0.00431836
9.04946e-05
-0.00790829
-0.0152213
-0.0126113
-0.00805707
-0.00376106
-0.00192343
-0.00346839
-0.00426227
-0.00422296
-0.00431043
-0.00534505
-0.0055887
-0.00373277
-0.00182917
-0.00168597
-0.00161999
-0.000695205
-0.0139573
-0.00418334
-0.00102882
-0.00661796
-0.0119666
-0.00998364
-0.00630043
-0.00262501
-0.000837358
-0.00199572
-0.0027489
-0.0033558
-0.00404817
-0.00488557
-0.00487343
-0.00306228
-0.00134195
-0.00118134
-0.00126454
-0.000541193
-0.0109894
-0.0041352
-0.00159039
-0.00542059
-0.0092262
-0.00776201
-0.00484327
-0.00169848
9.07407e-05
-0.000562658
-0.0013176
-0.002543
-0.00380337
-0.00439345
-0.00412817
-0.00238487
-0.000856404
-0.00063729
-0.00084287
-0.00035833
-0.00866937
-0.0039619
-0.00186507
-0.0044656
-0.00710946
-0.00600321
-0.00367972
-0.000985078
0.000776422
0.000512118
-0.000182651
-0.00185115
-0.00349637
-0.0038354
-0.00337222
-0.00173267
-0.000401384
-8.437e-05
-0.000375239
-0.000156097
-0.0069125
-0.0036897
-0.00198467
-0.00373469
-0.00554087
-0.00465144
-0.00277281
-0.00046782
0.00120312
0.00118409
0.000558033
-0.00128961
-0.00306125
-0.00319887
-0.00263673
-0.00113794
-2.48838e-06
0.000440051
0.000105577
5.07259e-05
-0.00555154
-0.00335857
-0.00199801
-0.00315389
-0.00436427
-0.00361864
-0.0020795
-0.00011793
0.00139951
0.00148193
0.000945208
-0.000824788
-0.00249435
-0.00253341
-0.00196139
-0.00062888
0.000320155
0.000897675
0.000553833
0.000242208
-0.0044773
-0.00299881
-0.00192896
-0.00267171
-0.00346612
-0.00282708
-0.00155769
9.87448e-05
0.00142632
0.00153237
0.00109439
-0.000435557
-0.00187031
-0.00189934
-0.00137992
-0.000222536
0.000554118
0.00125555
0.000919567
0.000396262
-0.00361513
-0.00263147
-0.00179942
-0.00225833
-0.00276565
-0.00221559
-0.00116885
0.000213834
0.00128852
0.00144333
0.00110104
-0.000132809
-0.001291
-0.00134769
-0.000910736
7.7293e-05
0.00070265
0.00148546
0.00116804
0.000494588
-0.00291224
-0.00226946
-0.0016284
-0.00189554
-0.00220745
-0.00173785
-0.000879845
0.000259734
0.0011416
0.00128848
0.00102432
7.42069e-05
-0.000820242
-0.000903302
-0.000555216
0.000277221
0.000776198
0.00157723
0.00128817
0.000533194
-0.00233052
-0.00191977
-0.00143066
-0.00157176
-0.00175323
-0.00135903
-0.00066371
0.000259957
0.000973546
0.00110568
0.00090148
0.000191468
-0.000473855
-0.000571707
-0.000301204
0.000390782
0.000788261
0.0015403
0.00129015
0.000523085
-0.00184149
-0.00158564
-0.00121712
-0.00127901
-0.00137587
-0.00105289
-0.000499322
0.000234255
0.000802334
0.000915475
0.000757938
0.000238866
-0.000239591
-0.000341886
-0.000130717
0.000434205
0.000751807
0.00140094
0.00120028
0.000480305
-0.00142314
-0.00126809
-0.000995509
-0.00101139
-0.00105583
-0.000799803
-0.000370638
0.000196834
0.00063777
0.000729066
0.000609058
0.000237957
-9.36149e-05
-0.000182408
-2.4566e-05
0.0004244
0.000676817
0.00118447
0.00104488
0.000416798
-0.00105789
-0.000966657
-0.000771149
-0.000764136
-0.000778792
-0.0005853
-0.000266395
0.000155753
0.000483417
0.000551508
0.00046259
0.000205511
-1.29766e-05
-8.36582e-05
3.20421e-05
0.000376886
0.000571126
0.00094003
0.000846476
0.000338469
-0.000731817
-0.000680058
-0.000547872
-0.000533216
-0.000532794
-0.000397403
-0.000178087
0.000113662
0.000337941
0.000382799
0.000320893
0.000153837
2.2184e-05
-2.86919e-05
5.0955e-05
0.00029808
0.000438912
0.000682026
0.000619601
0.000248635
-0.000431498
-0.000406359
-0.000328617
-0.000316693
-0.000307819
-0.000225343
-9.53625e-05
7.60097e-05
0.000197659
0.000218102
0.000180507
8.62535e-05
2.60566e-05
-2.67486e-06
5.33242e-05
0.000201774
0.000274023
0.000413776
0.000366585
0.000145071
-0.000147478
-0.000141792
-0.00011415
-0.000111123
-0.000108759
-6.88762e-05
-1.71171e-05
5.13225e-05
6.99927e-05
5.76779e-05
4.07249e-05
4.69018e-07
1.08198e-06
-4.08505e-06
5.62044e-05
0.000143706
0.00015006
0.000162271
0.000101528
1.18645e-05
-0.0745966
-0.0725695
-0.0643441
-0.0603163
-0.059444
-0.0594258
-0.0595438
-0.0597655
-0.0601538
-0.0606513
-0.0180301
-0.0239628
-0.0287275
-0.033042
-0.0370399
-0.0404661
-0.0431258
-0.0450329
-0.0461933
-0.0469003
-0.017645
-0.0222915
-0.0256649
-0.0280453
-0.029924
-0.0314966
-0.0327489
-0.0336575
-0.0341767
-0.0344113
-0.0117302
-0.0139206
-0.0158224
-0.0174629
-0.0189255
-0.0202344
-0.0213591
-0.0222698
-0.0229325
-0.023372
-0.00884296
-0.0103487
-0.0117756
-0.0130701
-0.0142246
-0.0152385
-0.0161034
-0.016812
-0.0173517
-0.0177337
-0.00698348
-0.00801624
-0.00897243
-0.00983962
-0.0106216
-0.0113177
-0.0119218
-0.0124284
-0.0128291
-0.0131283
-0.00553398
-0.0062562
-0.00692728
-0.00754731
-0.00811966
-0.00864129
-0.00910573
-0.00950785
-0.00984164
-0.0101095
-0.00441115
-0.00494039
-0.00543644
-0.00589886
-0.00632873
-0.00672339
-0.00707844
-0.00739039
-0.00765555
-0.00787491
-0.00353608
-0.00393474
-0.00430926
-0.00465958
-0.00498661
-0.00528875
-0.00556328
-0.00580779
-0.00602016
-0.00619984
-0.00284402
-0.00314981
-0.00343751
-0.00370756
-0.00396074
-0.004196
-0.00441146
-0.00460535
-0.00477649
-0.0049234
-0.0022898
-0.0025276
-0.00275181
-0.00296292
-0.0031615
-0.00334679
-0.00351752
-0.00367238
-0.00381083
-0.00393104
-0.00184162
-0.00202833
-0.00220474
-0.00237128
-0.00252834
-0.00267539
-0.00281155
-0.00293587
-0.00304817
-0.00314662
-0.00147593
-0.0016232
-0.00176261
-0.00189451
-0.00201917
-0.00213621
-0.00224502
-0.00234492
-0.0024359
-0.00251631
-0.00117451
-0.00129052
-0.00140052
-0.00150477
-0.00160347
-0.00169636
-0.001783
-0.0018629
-0.00193613
-0.00200128
-0.000923002
-0.00101358
-0.00109958
-0.0011812
-0.00125859
-0.00133155
-0.00139977
-0.0014629
-0.00152105
-0.00157303
-0.000709992
-0.000779311
-0.000845173
-0.000907751
-0.00096716
-0.00102325
-0.00107581
-0.00112457
-0.00116966
-0.00121009
-0.000526145
-0.000577334
-0.000625879
-0.000671966
-0.000715725
-0.000757069
-0.000795858
-0.000831896
-0.000865333
-0.000895348
-0.00036265
-0.00039789
-0.000431575
-0.000463593
-0.000493922
-0.000522506
-0.000549288
-0.00057414
-0.000597202
-0.000617759
-0.000213427
-0.000232317
-0.000251004
-0.000269152
-0.000286437
-0.000302733
-0.000318013
-0.000332207
-0.000345506
-0.000357368
-8.5006e-05
-9.47589e-05
-0.000101586
-0.000107009
-0.000112142
-0.000117104
-0.000121684
-0.000125652
-0.000128995
-0.000131111
0.0115755
0.0116416
0.0117841
0.0120071
0.0123138
0.0127075
0.0131942
0.0137788
0.0144701
0.0152687
0.0161836
0.0171898
0.0182888
0.019341
0.020325
0.0205395
0.0199647
0.014359
0.00378135
-0.0352148
0.0110649
0.0111174
0.0112298
0.0114046
0.0116423
0.0119422
0.0123039
0.0127241
0.0131996
0.0137147
0.014256
0.014769
0.0152141
0.0154191
0.0152896
0.0143109
0.0123465
0.00841135
0.00228836
-0.00613894
0.0104442
0.010482
0.0105626
0.0106865
0.010852
0.0110549
0.01129
0.0115479
0.0118165
0.012072
0.0122865
0.0124018
0.0123573
0.0120207
0.0112715
0.00987228
0.00759479
0.00415364
-0.00141421
-0.008957
0.00974396
0.00976759
0.00981749
0.00989282
0.00999007
0.010103
0.0102232
0.0103382
0.0104311
0.0104764
0.010441
0.0102748
0.00991495
0.00927537
0.0082452
0.00671247
0.00444954
0.00141125
-0.00283439
-0.0077196
0.00899367
0.00900464
0.00902725
0.00905971
0.00909759
0.00913374
0.00915837
0.00915814
0.00911525
0.00900601
0.00879892
0.00845481
0.00792159
0.00714563
0.00604466
0.00456613
0.00259071
0.000146554
-0.00287613
-0.00624509
0.00821966
0.0082201
0.0082201
0.00821737
0.00820723
0.00818256
0.00813362
0.00804785
0.00790885
0.00769649
0.00738482
0.0069452
0.00634031
0.00553582
0.00448278
0.00315703
0.00151128
-0.00043157
-0.00268296
-0.00514646
0.0074439
0.00743615
0.00741872
0.00738908
0.00734284
0.00727352
0.00717238
0.00702849
0.00682813
0.00655538
0.00619094
0.00571433
0.00510086
0.00432905
0.00337333
0.00222258
0.000863199
-0.000686966
-0.00240631
-0.00422963
0.00668345
0.00666984
0.00663997
0.00659136
0.00652019
0.00642097
0.00628639
0.00610755
0.0058738
0.00557318
0.00519192
0.0047159
0.00412979
0.00342102
0.00257773
0.00159663
0.000478953
-0.000757763
-0.0020854
-0.00345512
0.00595063
0.00593322
0.00589538
0.00583481
0.0057484
0.00563174
0.0054791
0.00528362
0.00503737
0.00473167
0.00435712
0.00390452
0.00336501
0.00273204
0.00200144
0.00117471
0.000258839
-0.000729619
-0.0017658
-0.00281453
0.00525341
0.00523397
0.0051919
0.0051252
0.00503144
0.0049073
0.0047485
0.00454994
0.00430591
0.00401041
0.00365734
0.00324114
0.00275716
0.00220278
0.00157788
0.000886408
0.0001368
-0.000656519
-0.00147369
-0.00228922
0.00459612
0.00457606
0.00453276
0.00446453
0.00436958
0.00424554
0.0040893
0.00389722
0.00366538
0.00338985
0.00306693
0.00269357
0.0022678
0.00178931
0.00126
0.000684711
7.15554e-05
-0.000567448
-0.00121681
-0.00185777
0.00398019
0.00396058
0.00391836
0.0038521
0.00376055
0.00364205
0.00349448
0.00331538
0.00310217
0.00285246
0.00256418
0.00223599
0.00186747
0.00145964
0.00101522
0.000539083
3.84273e-05
-0.000476983
-0.000995172
-0.00150224
0.00340487
0.0033865
0.00334703
0.00328526
0.00320032
0.00309116
0.0029564
0.00279446
0.00260378
0.002383
0.00213118
0.00184801
0.00153398
0.00119072
0.000821161
0.000429784
2.26953e-05
-0.000392307
-0.000806028
-0.00120818
0.00286774
0.00285116
0.00281559
0.00276003
0.0026839
0.00258661
0.00246731
0.00232508
0.00215903
0.00196854
0.00175335
0.00151374
0.00125069
0.000965993
0.00066246
0.000343992
1.561e-05
-0.000316549
-0.000645478
-0.000963554
0.00236516
0.00235074
0.00231982
0.00227161
0.00220574
0.00212192
0.00201969
0.00189856
0.00175811
0.00159817
0.00141887
0.0012208
0.00100509
0.000773497
0.000528508
0.000273383
1.21406e-05
-0.00025047
-0.000509158
-0.00075829
0.00189269
0.00188066
0.00185489
0.00181475
0.00176004
0.00169065
0.00160639
0.00150703
0.00139244
0.00126269
0.00111814
0.000959449
0.000787726
0.000604534
0.000411952
0.000212598
9.59979e-06
-0.00019345
-0.000392642
-0.000583877
0.00144536
0.00143587
0.00141555
0.00138393
0.00134092
0.00128651
0.00122066
0.00114329
0.00105445
0.000954311
0.000843265
0.000721965
0.000591357
0.00045272
0.000307686
0.000158256
6.77043e-06
-0.000144128
-0.000291627
-0.000432933
0.00101789
0.00101102
0.000996326
0.000973488
0.000942478
0.000903339
0.000856088
0.000800745
0.000737391
0.000666227
0.000587602
0.000502041
0.000410269
0.000313229
0.000212092
0.000108254
3.3244e-06
-0.000100877
-0.000202354
-0.00029907
0.000604821
0.000600617
0.000591635
0.000577713
0.000558858
0.000535117
0.000506525
0.000473118
0.000434973
0.00039224
0.000345161
0.000294079
0.000239453
0.000181865
0.000122026
6.07666e-05
-1.00042e-06
-6.23151e-05
-0.000122089
-0.000178512
0.000200544
0.000199045
0.000195885
0.000191032
0.0001845
0.000176313
0.000166488
0.000155047
0.000142021
0.000127466
0.000111467
9.41415e-05
7.56472e-05
5.61851e-05
3.59965e-05
1.53818e-05
-5.31491e-06
-2.57105e-05
-4.57651e-05
-6.67991e-05
0.0118034
0.011882
0.0120548
0.0123272
0.012704
0.0131916
0.0138025
0.0145482
0.0154503
0.0165226
0.0178016
0.0192931
0.0210576
0.023046
0.0253587
0.0276895
0.0302614
0.0315083
0.033675
0.0159119
0.0119508
0.012032
0.0122114
0.0124949
0.0128877
0.0133979
0.0140399
0.0148286
0.0157896
0.0169449
0.0183386
0.0199974
0.0219972
0.0243479
0.0271723
0.0303628
0.03408
0.0375874
0.0405982
0.0375835
0.0120631
0.0121463
0.0123305
0.0126219
0.0130264
0.0135532
0.0142181
0.0150391
0.0160446
0.0172637
0.0187465
0.0205378
0.0227255
0.0253681
0.0286059
0.0324604
0.0370474
0.0420054
0.0465586
0.0488027
0.0121396
0.012224
0.0124109
0.012707
0.0131183
0.0136551
0.014334
0.0151751
0.0162087
0.0174688
0.0190099
0.0208896
0.0232048
0.0260467
0.029568
0.0338655
0.0390278
0.0448648
0.0503247
0.0546056
0.0121798
0.0122644
0.012452
0.0127492
0.0131624
0.0137021
0.0143854
0.0152333
0.016277
0.017553
0.0191178
0.0210356
0.0234078
0.0263425
0.0299993
0.0345106
0.0399534
0.0461955
0.0520691
0.0570772
0.0121836
0.0122675
0.0124537
0.0127485
0.0131583
0.0136937
0.0143714
0.0152124
0.0162474
0.0175129
0.0190647
0.0209671
0.0233208
0.0262351
0.0298702
0.0343627
0.0397928
0.0460349
0.0519127
0.0569482
0.0121512
0.0122336
0.0124161
0.012705
0.0131064
0.0136302
0.0142924
0.0151129
0.0161207
0.0173494
0.0188516
0.020685
0.0229445
0.0257245
0.0291795
0.0334183
0.0385378
0.0443736
0.0498509
0.0542465
0.0120833
0.0121633
0.0123402
0.0126199
0.0130079
0.0135132
0.0141507
0.0149377
0.0159007
0.017068
0.0184865
0.0202009
0.0222952
0.0248326
0.027955
0.0317047
0.0362073
0.0411485
0.0457199
0.048394
0.0119811
0.0120579
0.0122273
0.0124945
0.0128646
0.0133453
0.0139493
0.0146913
0.0155937
0.0166779
0.0179829
0.0195352
0.021403
0.0236016
0.0262526
0.0292791
0.0328635
0.0363242
0.0391042
0.0370384
0.0118455
0.0119187
0.0120787
0.0123306
0.0126787
0.013129
0.0136921
0.0143789
0.0152072
0.0161904
0.0173573
0.0187137
0.020307
0.0220915
0.0241526
0.0262156
0.0285445
0.0297995
0.0321931
0.0172884
)
;

boundaryField
{
    inlet
    {
        type            zeroGradient;
    }
    outlet
    {
        type            fixedValue;
        value           uniform 0;
    }
    upAndBottom
    {
        type            empty;
    }
    obstacle
    {
        type            zeroGradient;
    }
}


// ************************************************************************* //
