x,y,z,U_0,U_1,U_2
0,0,0,0.299992,-0.0015785,2.48558e-14
0,0.1,0,0.299993,-0.00125534,1.97672e-14
0,0.2,0,0.299995,-0.000932186,1.46786e-14
0,0.3,0,0.299997,-0.000609028,9.59003e-15
0,0.4,0,0.299998,-0.00028587,4.50144e-15
0,0.5,0,0.3,-1.62788e-19,9.18826e-30
0,0.6,0,0.3,-1.95346e-19,1.10259e-29
0,0.7,0,0.3,-2.27903e-19,1.28636e-29
0,0.8,0,0.3,-2.60461e-19,1.47012e-29
0,0.9,0,0.3,-2.93018e-19,1.65389e-29
0,1,0,0.3,-3.25576e-19,1.83765e-29
0,1.1,0,0.3,-3.58133e-19,2.02142e-29
0,1.2,0,0.3,-3.90691e-19,2.20518e-29
0,1.3,0,0.3,-4.23249e-19,2.38895e-29
0,1.4,0,0.3,-4.55806e-19,2.57271e-29
0,1.5,0,0.3,-4.72016e-19,2.17487e-29
0,1.6,0,0.3,-5.03483e-19,2.31986e-29
0,1.7,0,0.3,-5.34951e-19,2.46485e-29
0,1.8,0,0.3,-5.66419e-19,2.60984e-29
0,1.9,0,0.3,-5.97886e-19,2.75483e-29
0,2,0,0.3,-5.97934e-19,-1.05798e-29
0,2.1,0,0.3,-6.2783e-19,-1.11087e-29
0,2.2,0,0.3,-6.57727e-19,-1.16377e-29
0,2.3,0,0.3,-6.87624e-19,-1.21667e-29
0,2.4,0,0.3,-7.1752e-19,-1.26957e-29
0,2.5,0,0.3,-6.97214e-19,-6.46601e-30
0,2.6,0,0.3,-7.25102e-19,-6.72465e-30
0,2.7,0,0.3,-7.52991e-19,-6.98329e-30
0,2.8,0,0.3,-7.80879e-19,-7.24193e-30
0,2.9,0,0.3,-8.08768e-19,-7.50057e-30
0,3,0,0.3,-7.63769e-19,9.92491e-29
0,3.1,0,0.3,-7.89228e-19,1.02557e-28
0,3.2,0,0.3,-8.14687e-19,1.05866e-28
0,3.3,0,0.3,-8.40146e-19,1.09174e-28
0,3.4,0,0.3,-8.65605e-19,1.12482e-28
0,3.5,0,0.3,-7.92836e-19,1.61561e-28
0,3.6,0,0.3,-8.15488e-19,1.66177e-28
0,3.7,0,0.3,-8.38141e-19,1.70793e-28
0,3.8,0,0.3,-8.60793e-19,1.75409e-28
0,3.9,0,0.3,-8.83446e-19,1.80025e-28
0,4,0,0.3,-7.79793e-19,1.79328e-28
0,4.1,0,0.3,-7.99288e-19,1.83811e-28
0,4.2,0,0.3,-8.18783e-19,1.88295e-28
0,4.3,0,0.3,-8.38278e-19,1.92778e-28
0,4.4,0,0.3,-7.04576e-19,2.55606e-28
0,4.5,0,0.3,-7.20589e-19,2.61416e-28
0,4.6,0,0.3,-7.36602e-19,2.67225e-28
0,4.7,0,0.3,-7.52615e-19,2.73034e-28
0,4.8,0,0.3,-7.68628e-19,2.78843e-28
0,4.9,0,0.3,-6.00314e-19,3.62262e-28
0,5,0,0.3,-6.12565e-19,3.69655e-28
0,5.1,0,0.3,-6.24816e-19,3.77048e-28
0,5.2,0,0.3,-6.37068e-19,3.84441e-28
0,5.3,0,0.3,-6.49319e-19,3.91834e-28
0,5.4,0,0.3,-4.46279e-19,4.63347e-28
0,5.5,0,0.3,-4.54544e-19,4.71928e-28
0,5.6,0,0.3,-4.62808e-19,4.80508e-28
0,5.7,0,0.3,-4.71073e-19,4.89089e-28
0,5.8,0,0.3,-4.79337e-19,4.97669e-28
0,5.9,0,0.3,-2.43054e-19,4.78941e-28
0,6,0,0.3,-2.47173e-19,4.87058e-28
0,6.1,0,0.3,-2.51293e-19,4.95176e-28
0,6.2,0,0.3,-2.55412e-19,5.03294e-28
0,6.3,0,0.3,-2.59532e-19,5.11411e-28
0,6.4,0,0.3,6.53717e-21,4.77244e-28
0,6.5,0,0.3,6.63931e-21,4.84701e-28
0,6.6,0,0.3,6.74145e-21,4.92158e-28
0,6.7,0,0.3,6.8436e-21,4.99615e-28
0,6.8,0,0.3,6.94574e-21,5.07072e-28
0,6.9,0,0.3,2.97205e-19,4.96251e-28
0,7,0,0.3,3.01512e-19,5.03443e-28
0,7.1,0,0.3,3.05819e-19,5.10635e-28
0,7.2,0,0.3,3.10127e-19,5.17827e-28
0,7.3,0,0.3,3.14434e-19,5.25019e-28
0,7.4,0,0.3,6.23487e-19,4.83341e-28
0,7.5,0,0.3,6.31913e-19,4.89873e-28
0,7.6,0,0.3,6.40338e-19,4.96405e-28
0,7.7,0,0.3,6.48764e-19,5.02936e-28
0,7.8,0,0.3,6.57189e-19,5.09468e-28
0,7.9,0,0.3,9.7841e-19,4.5867e-28
0,8,0,0.3,9.90795e-19,4.64476e-28
0,8.1,0,0.3,1.00318e-18,4.70282e-28
0,8.2,0,0.3,1.01556e-18,4.76088e-28
0,8.3,0,0.3,1.02795e-18,4.81894e-28
0,8.4,0,0.3,1.35347e-18,4.71104e-28
0,8.5,0,0.3,1.36958e-18,4.76712e-28
0,8.6,0,0.3,1.38569e-18,4.82321e-28
0,8.7,0,0.3,1.40181e-18,4.87929e-28
0,8.8,0,0.3,1.72145e-18,5.45835e-28
0,8.9,0,0.3,1.74101e-18,5.52038e-28
0,9,0,0.3,1.76057e-18,5.58241e-28
0,9.1,0,0.3,1.78014e-18,5.64443e-28
0,9.2,0,0.3,1.7997e-18,5.70646e-28
0,9.3,0,0.3,2.11018e-18,6.68937e-28
0,9.4,0,0.3,2.13287e-18,6.7613e-28
0,9.5,0,0.3,2.15556e-18,6.83322e-28
0,9.6,0,0.3,2.17825e-18,6.90515e-28
0,9.7,0,0.3,2.20094e-18,6.97708e-28
0,9.8,0,0.3,2.49524e-18,7.82448e-28
0,9.9,0,0.3,2.5207e-18,7.90432e-28
0,10,0,0.3,2.54616e-18,7.98416e-28
0,10.1,0,0.3,2.57162e-18,8.064e-28
0,10.2,0,0.3,2.59708e-18,8.14384e-28
0,10.3,0,0.3,2.86771e-18,8.35591e-28
0,10.4,0,0.3,2.89555e-18,8.43703e-28
0,10.5,0,0.3,2.92339e-18,8.51816e-28
0,10.6,0,0.3,2.95123e-18,8.59928e-28
0,10.7,0,0.3,2.97907e-18,8.68041e-28
0,10.8,0,0.3,3.21836e-18,7.82463e-28
0,10.9,0,0.3,3.24816e-18,7.89708e-28
0,11,0,0.3,3.27796e-18,7.96953e-28
0,11.1,0,0.3,3.30776e-18,8.04198e-28
0,11.2,0,0.3,3.33756e-18,8.11443e-28
0,11.3,0,0.3,3.53625e-18,6.74911e-28
0,11.4,0,0.3,3.56754e-18,6.80884e-28
0,11.5,0,0.3,3.59884e-18,6.86856e-28
0,11.6,0,0.3,3.63013e-18,6.92829e-28
0,11.7,0,0.3,3.66142e-18,6.98802e-28
0,11.8,0,0.3,3.8127e-18,5.31133e-28
0,11.9,0,0.3,3.84501e-18,5.35634e-28
0,12,0,0.3,3.87732e-18,5.40136e-28
0,12.1,0,0.3,3.90963e-18,5.44637e-28
0,12.2,0,0.3,3.94194e-18,5.49138e-28
0,12.3,0,0.299999,0.000287091,2.70086e-14
0,12.4,0,0.299998,0.000611629,5.75402e-14
0,12.5,0,0.299996,0.000936167,8.80717e-14
0,12.6,0,0.299995,0.0012607,1.18603e-13
0,12.7,0,0.299994,0.00158524,1.49135e-13
0.1,0,0,0.299989,-0.00254134,2.48846e-14
0.1,0.1,0,0.299984,-0.00253082,4.74417e-14
0.1,0.2,0,0.299986,-0.00220766,4.23531e-14
0.1,0.3,0,0.299988,-0.0018845,3.72645e-14
0.1,0.4,0,0.299989,-0.00156134,3.21759e-14
0.1,0.5,0,0.29999,-0.00127176,3.25638e-14
0.1,0.6,0,0.299982,-0.00125049,7.05817e-14
0.1,0.7,0,0.299982,-0.00125049,7.05817e-14
0.1,0.8,0,0.299982,-0.00125049,7.05817e-14
0.1,0.9,0,0.299982,-0.00125049,7.05817e-14
0.1,1,0,0.299982,-0.00125049,7.05817e-14
0.1,1.1,0,0.299982,-0.00125049,7.05817e-14
0.1,1.2,0,0.299982,-0.00125049,7.05817e-14
0.1,1.3,0,0.299982,-0.00125049,7.05817e-14
0.1,1.4,0,0.299979,-0.0012365,6.56026e-14
0.1,1.5,0,0.299973,-0.00120863,5.56892e-14
0.1,1.6,0,0.299973,-0.00120863,5.56892e-14
0.1,1.7,0,0.299973,-0.00120863,5.56892e-14
0.1,1.8,0,0.299973,-0.00120863,5.56892e-14
0.1,1.9,0,0.299969,-0.00118124,2.11875e-14
0.1,2,0,0.299965,-0.00114829,-2.03177e-14
0.1,2.1,0,0.299965,-0.00114829,-2.03177e-14
0.1,2.2,0,0.299965,-0.00114829,-2.03177e-14
0.1,2.3,0,0.299965,-0.00114829,-2.03177e-14
0.1,2.4,0,0.29996,-0.00110412,-1.43705e-14
0.1,2.5,0,0.299956,-0.00107116,-9.93403e-15
0.1,2.6,0,0.299956,-0.00107116,-9.93403e-15
0.1,2.7,0,0.299956,-0.00107116,-9.93403e-15
0.1,2.8,0,0.299956,-0.00107116,-9.93403e-15
0.1,2.9,0,0.29995,-0.00100676,8.46111e-14
0.1,3,0,0.299948,-0.000977844,1.27067e-13
0.1,3.1,0,0.299948,-0.000977844,1.27067e-13
0.1,3.2,0,0.299948,-0.000977844,1.27067e-13
0.1,3.3,0,0.299948,-0.000977844,1.27067e-13
0.1,3.4,0,0.299941,-0.000890892,1.67584e-13
0.1,3.5,0,0.29994,-0.00087005,1.77296e-13
0.1,3.6,0,0.29994,-0.00087005,1.77296e-13
0.1,3.7,0,0.29994,-0.00087005,1.77296e-13
0.1,3.8,0,0.29994,-0.00087005,1.77296e-13
0.1,3.9,0,0.299933,-0.000758095,1.72586e-13
0.1,4,0,0.299932,-0.00074877,1.72194e-13
0.1,4.1,0,0.299932,-0.00074877,1.72194e-13
0.1,4.2,0,0.299932,-0.00074877,1.72194e-13
0.1,4.3,0,0.299932,-0.000744705,1.73742e-13
0.1,4.4,0,0.299926,-0.000615041,2.23125e-13
0.1,4.5,0,0.299926,-0.000615041,2.23125e-13
0.1,4.6,0,0.299926,-0.000615041,2.23125e-13
0.1,4.7,0,0.299926,-0.000615041,2.23125e-13
0.1,4.8,0,0.299925,-0.000593834,2.32054e-13
0.1,4.9,0,0.299921,-0.000470556,2.83959e-13
0.1,5,0,0.299921,-0.000470556,2.83959e-13
0.1,5.1,0,0.299921,-0.000470556,2.83959e-13
0.1,5.2,0,0.299921,-0.000470556,2.83959e-13
0.1,5.3,0,0.29992,-0.000430256,2.95962e-13
0.1,5.4,0,0.299917,-0.000317426,3.29566e-13
0.1,5.5,0,0.299917,-0.000317426,3.29566e-13
0.1,5.6,0,0.299917,-0.000317426,3.29566e-13
0.1,5.7,0,0.299917,-0.000317426,3.29566e-13
0.1,5.8,0,0.299916,-0.000256995,3.22817e-13
0.1,5.9,0,0.299914,-0.000158226,3.11788e-13
0.1,6,0,0.299914,-0.000158226,3.11788e-13
0.1,6.1,0,0.299914,-0.000158226,3.11788e-13
0.1,6.2,0,0.299914,-0.000158226,3.11788e-13
0.1,6.3,0,0.299914,-7.77944e-05,2.992e-13
0.1,6.4,0,0.299913,3.92318e-06,2.86411e-13
0.1,6.5,0,0.299913,3.92318e-06,2.86411e-13
0.1,6.6,0,0.299913,3.92318e-06,2.86411e-13
0.1,6.7,0,0.299913,3.92318e-06,2.86411e-13
0.1,6.8,0,0.299914,0.000102853,2.80179e-13
0.1,6.9,0,0.299915,0.000165438,2.76237e-13
0.1,7,0,0.299915,0.000165438,2.76237e-13
0.1,7.1,0,0.299915,0.000165438,2.76237e-13
0.1,7.2,0,0.299915,0.000165438,2.76237e-13
0.1,7.3,0,0.299917,0.00028075,2.57745e-13
0.1,7.4,0,0.299918,0.000323612,2.50871e-13
0.1,7.5,0,0.299918,0.000323612,2.50871e-13
0.1,7.6,0,0.299918,0.000323612,2.50871e-13
0.1,7.7,0,0.299918,0.000323612,2.50871e-13
0.1,7.8,0,0.299921,0.000452204,2.27303e-13
0.1,7.9,0,0.299922,0.000475689,2.22999e-13
0.1,8,0,0.299922,0.000475689,2.22999e-13
0.1,8.1,0,0.299922,0.000475689,2.22999e-13
0.1,8.2,0,0.299922,0.000475689,2.22999e-13
0.1,8.3,0,0.299928,0.000613454,2.15697e-13
0.1,8.4,0,0.299928,0.000618868,2.1541e-13
0.1,8.5,0,0.299928,0.000618868,2.1541e-13
0.1,8.6,0,0.299928,0.000618868,2.1541e-13
0.1,8.7,0,0.299928,0.000627982,2.16981e-13
0.1,8.8,0,0.299935,0.000751348,2.38236e-13
0.1,8.9,0,0.299935,0.000751348,2.38236e-13
0.1,9,0,0.299935,0.000751348,2.38236e-13
0.1,9.1,0,0.299935,0.000751348,2.38236e-13
0.1,9.2,0,0.299936,0.000773637,2.45292e-13
0.1,9.3,0,0.299942,0.000871496,2.76268e-13
0.1,9.4,0,0.299942,0.000871496,2.76268e-13
0.1,9.5,0,0.299942,0.000871496,2.76268e-13
0.1,9.6,0,0.299942,0.000871496,2.76268e-13
0.1,9.7,0,0.299945,0.000903683,2.85458e-13
0.1,9.8,0,0.29995,0.000977946,3.06661e-13
0.1,9.9,0,0.29995,0.000977946,3.06661e-13
0.1,10,0,0.29995,0.000977946,3.06661e-13
0.1,10.1,0,0.29995,0.000977946,3.06661e-13
0.1,10.2,0,0.299953,0.00101628,3.08728e-13
0.1,10.3,0,0.299958,0.00106937,3.11591e-13
0.1,10.4,0,0.299958,0.00106937,3.11591e-13
0.1,10.5,0,0.299958,0.00106937,3.11591e-13
0.1,10.6,0,0.299958,0.00106937,3.11591e-13
0.1,10.7,0,0.299962,0.0011097,2.93722e-13
0.1,10.8,0,0.299965,0.00114457,2.78272e-13
0.1,10.9,0,0.299965,0.00114457,2.78272e-13
0.1,11,0,0.299965,0.00114457,2.78272e-13
0.1,11.1,0,0.299965,0.00114457,2.78272e-13
0.1,11.2,0,0.29997,0.00118206,2.46355e-13
0.1,11.3,0,0.299973,0.00120197,2.29402e-13
0.1,11.4,0,0.299973,0.00120197,2.29402e-13
0.1,11.5,0,0.299973,0.00120197,2.29402e-13
0.1,11.6,0,0.299973,0.00120197,2.29402e-13
0.1,11.7,0,0.299981,0.00123202,1.85914e-13
0.1,11.8,0,0.299983,0.00124102,1.72882e-13
0.1,11.9,0,0.299983,0.00124102,1.72882e-13
0.1,12,0,0.299983,0.00124102,1.72882e-13
0.1,12.1,0,0.299983,0.00124102,1.72882e-13
0.1,12.2,0,0.299992,0.0012616,1.08193e-13
0.1,12.3,0,0.299992,0.00155224,1.26877e-13
0.1,12.4,0,0.299991,0.00187678,1.57409e-13
0.1,12.5,0,0.299989,0.00220132,1.8794e-13
0.1,12.6,0,0.299988,0.00252585,2.18472e-13
0.1,12.7,0,0.299993,0.00254402,1.79308e-13
0.2,0,0,0.299986,-0.00350417,2.49135e-14
0.2,0.1,0,0.299981,-0.00349866,4.79132e-14
0.2,0.2,0,0.299977,-0.00348313,7.00276e-14
0.2,0.3,0,0.299979,-0.00315997,6.4939e-14
0.2,0.4,0,0.29998,-0.00283682,5.98504e-14
0.2,0.5,0,0.299981,-0.00254633,6.00915e-14
0.2,0.6,0,0.299971,-0.00252192,1.03738e-13
0.2,0.7,0,0.299963,-0.00250099,1.41163e-13
0.2,0.8,0,0.299963,-0.00250099,1.41163e-13
0.2,0.9,0,0.299963,-0.00250099,1.41163e-13
0.2,1,0,0.299963,-0.00250099,1.41163e-13
0.2,1.1,0,0.299963,-0.00250099,1.41163e-13
0.2,1.2,0,0.299963,-0.00250099,1.41163e-13
0.2,1.3,0,0.29996,-0.00248769,1.36434e-13
0.2,1.4,0,0.299951,-0.00244523,1.21328e-13
0.2,1.5,0,0.299945,-0.00241726,1.11378e-13
0.2,1.6,0,0.299945,-0.00241726,1.11378e-13
0.2,1.7,0,0.299945,-0.00241726,1.11378e-13
0.2,1.8,0,0.299942,-0.00239066,7.78711e-14
0.2,1.9,0,0.299934,-0.00232961,9.62692e-16
0.2,2,0,0.29993,-0.00229658,-4.06354e-14
0.2,2.1,0,0.29993,-0.00229658,-4.06354e-14
0.2,2.2,0,0.29993,-0.00229658,-4.06354e-14
0.2,2.3,0,0.299925,-0.00225318,-3.47929e-14
0.2,2.4,0,0.299916,-0.00217527,-2.4303e-14
0.2,2.5,0,0.299913,-0.00214232,-1.98681e-14
0.2,2.6,0,0.299913,-0.00214232,-1.98681e-14
0.2,2.7,0,0.299913,-0.00214232,-1.98681e-14
0.2,2.8,0,0.299907,-0.00207871,7.35175e-14
0.2,2.9,0,0.299898,-0.00198455,2.11758e-13
0.2,3,0,0.299896,-0.00195569,2.54135e-13
0.2,3.1,0,0.299896,-0.00195569,2.54135e-13
0.2,3.2,0,0.299896,-0.00195569,2.54135e-13
0.2,3.3,0,0.299889,-0.00186964,2.94232e-13
0.2,3.4,0,0.299881,-0.00176087,3.44915e-13
0.2,3.5,0,0.29988,-0.0017401,3.54591e-13
0.2,3.6,0,0.29988,-0.0017401,3.54591e-13
0.2,3.7,0,0.29988,-0.0017401,3.54591e-13
0.2,3.8,0,0.299873,-0.00162916,3.49924e-13
0.2,3.9,0,0.299866,-0.00150678,3.44776e-13
0.2,4,0,0.299865,-0.00149754,3.44388e-13
0.2,4.1,0,0.299865,-0.00149754,3.44388e-13
0.2,4.2,0,0.299865,-0.0014946,3.45507e-13
0.2,4.3,0,0.299858,-0.00135965,3.96905e-13
0.2,4.4,0,0.299852,-0.00123008,4.4625e-13
0.2,4.5,0,0.299852,-0.00123008,4.4625e-13
0.2,4.6,0,0.299852,-0.00123008,4.4625e-13
0.2,4.7,0,0.299851,-0.0012101,4.54662e-13
0.2,4.8,0,0.299846,-0.00106428,5.1606e-13
0.2,4.9,0,0.299841,-0.000941112,5.67918e-13
0.2,5,0,0.299841,-0.000941112,5.67918e-13
0.2,5.1,0,0.299841,-0.000941112,5.67918e-13
0.2,5.2,0,0.29984,-0.000902126,5.79529e-13
0.2,5.3,0,0.299836,-0.000747562,6.25563e-13
0.2,5.4,0,0.299833,-0.000634852,6.59131e-13
0.2,5.5,0,0.299833,-0.000634852,6.59131e-13
0.2,5.6,0,0.299833,-0.000634852,6.59131e-13
0.2,5.7,0,0.299833,-0.0005758,6.52537e-13
0.2,5.8,0,0.29983,-0.000415094,6.34591e-13
0.2,5.9,0,0.299828,-0.000316453,6.23575e-13
0.2,6,0,0.299828,-0.000316453,6.23575e-13
0.2,6.1,0,0.299828,-0.000316453,6.23575e-13
0.2,6.2,0,0.299828,-0.000237439,6.11209e-13
0.2,6.3,0,0.299827,-7.37385e-05,5.8559e-13
0.2,6.4,0,0.299827,7.84637e-06,5.72822e-13
0.2,6.5,0,0.299827,7.84637e-06,5.72822e-13
0.2,6.6,0,0.299827,7.84637e-06,5.72822e-13
0.2,6.7,0,0.299828,0.00010535,5.6668e-13
0.2,6.8,0,0.299829,0.000268427,5.56407e-13
0.2,6.9,0,0.299829,0.000330876,5.52473e-13
0.2,7,0,0.299829,0.000330876,5.52473e-13
0.2,7.1,0,0.299829,0.000330876,5.52473e-13
0.2,7.2,0,0.299832,0.00044478,5.34207e-13
0.2,7.3,0,0.299835,0.000604502,5.08594e-13
0.2,7.4,0,0.299835,0.000647225,5.01743e-13
0.2,7.5,0,0.299835,0.000647225,5.01743e-13
0.2,7.6,0,0.299835,0.000647225,5.01743e-13
0.2,7.7,0,0.299839,0.000774455,4.78424e-13
0.2,7.8,0,0.299844,0.000928036,4.50276e-13
0.2,7.9,0,0.299844,0.000951377,4.45998e-13
0.2,8,0,0.299844,0.000951377,4.45998e-13
0.2,8.1,0,0.299844,0.000951377,4.45998e-13
0.2,8.2,0,0.29985,0.00108786,4.38764e-13
0.2,8.3,0,0.299856,0.00123247,4.311e-13
0.2,8.4,0,0.299856,0.00123774,4.30821e-13
0.2,8.5,0,0.299856,0.00123774,4.30821e-13
0.2,8.6,0,0.299856,0.00124567,4.32188e-13
0.2,8.7,0,0.299863,0.00137949,4.55244e-13
0.2,8.8,0,0.29987,0.0015027,4.76473e-13
0.2,8.9,0,0.29987,0.0015027,4.76473e-13
0.2,9,0,0.29987,0.0015027,4.76473e-13
0.2,9.1,0,0.299871,0.00152393,4.83196e-13
0.2,9.2,0,0.299878,0.0016453,5.21614e-13
0.2,9.3,0,0.299884,0.00174299,5.52537e-13
0.2,9.4,0,0.299884,0.00174299,5.52537e-13
0.2,9.5,0,0.299884,0.00174299,5.52537e-13
0.2,9.6,0,0.299887,0.00177428,5.61469e-13
0.2,9.7,0,0.299894,0.00188182,5.92172e-13
0.2,9.8,0,0.2999,0.00195589,6.13322e-13
0.2,9.9,0,0.2999,0.00195589,6.13322e-13
0.2,10,0,0.2999,0.00195589,6.13322e-13
0.2,10.1,0,0.299903,0.00199348,6.15349e-13
0.2,10.2,0,0.299911,0.00208586,6.20331e-13
0.2,10.3,0,0.299915,0.00213873,6.23183e-13
0.2,10.4,0,0.299915,0.00213873,6.23183e-13
0.2,10.5,0,0.299915,0.00213873,6.23183e-13
0.2,10.6,0,0.299919,0.00217845,6.05585e-13
0.2,10.7,0,0.299927,0.00225448,5.71895e-13
0.2,10.8,0,0.29993,0.00228913,5.56544e-13
0.2,10.9,0,0.29993,0.00228913,5.56544e-13
0.2,11,0,0.29993,0.00228913,5.56544e-13
0.2,11.1,0,0.299935,0.00232611,5.25065e-13
0.2,11.2,0,0.299943,0.00238423,4.7558e-13
0.2,11.3,0,0.299946,0.00240394,4.58804e-13
0.2,11.4,0,0.299946,0.00240394,4.58804e-13
0.2,11.5,0,0.299946,0.00240394,4.58804e-13
0.2,11.6,0,0.299954,0.00243352,4.15986e-13
0.2,11.7,0,0.299964,0.00247319,3.58581e-13
0.2,11.8,0,0.299966,0.00248204,3.45765e-13
0.2,11.9,0,0.299966,0.00248204,3.45765e-13
0.2,12,0,0.299966,0.00248204,3.45765e-13
0.2,12.1,0,0.299975,0.00250222,2.82364e-13
0.2,12.2,0,0.299985,0.00252595,2.0778e-13
0.2,12.3,0,0.299985,0.00281739,2.26746e-13
0.2,12.4,0,0.299984,0.00314193,2.57277e-13
0.2,12.5,0,0.299983,0.00346647,2.87809e-13
0.2,12.6,0,0.299987,0.00349171,2.50254e-13
0.2,12.7,0,0.299992,0.0035028,2.09481e-13
0.3,0,0,0.299983,-0.00446701,2.49423e-14
0.3,0.1,0,0.299978,-0.00446149,4.7942e-14
0.3,0.2,0,0.299974,-0.00445598,7.09418e-14
0.3,0.3,0,0.29997,-0.00443545,9.26135e-14
0.3,0.4,0,0.299971,-0.00411229,8.75249e-14
0.3,0.5,0,0.299972,-0.0038209,8.76192e-14
0.3,0.6,0,0.299962,-0.00379649,1.31266e-13
0.3,0.7,0,0.299953,-0.00377208,1.74912e-13
0.3,0.8,0,0.299945,-0.00375148,2.11745e-13
0.3,0.9,0,0.299945,-0.00375148,2.11745e-13
0.3,1,0,0.299945,-0.00375148,2.11745e-13
0.3,1.1,0,0.299945,-0.00375148,2.11745e-13
0.3,1.2,0,0.299942,-0.00373889,2.07265e-13
0.3,1.3,0,0.299933,-0.00369643,1.9216e-13
0.3,1.4,0,0.299924,-0.00365397,1.77054e-13
0.3,1.5,0,0.299918,-0.0036259,1.67068e-13
0.3,1.6,0,0.299918,-0.0036259,1.67068e-13
0.3,1.7,0,0.299915,-0.00360009,1.34555e-13
0.3,1.8,0,0.299907,-0.00353903,5.76463e-14
0.3,1.9,0,0.299899,-0.00347797,-1.92621e-14
0.3,2,0,0.299894,-0.00344487,-6.09531e-14
0.3,2.1,0,0.299894,-0.00344487,-6.09531e-14
0.3,2.2,0,0.29989,-0.00340225,-5.52152e-14
0.3,2.3,0,0.299881,-0.00332433,-4.47254e-14
0.3,2.4,0,0.299873,-0.00324642,-3.42355e-14
0.3,2.5,0,0.299869,-0.00321348,-2.98021e-14
0.3,2.6,0,0.299869,-0.00321348,-2.98021e-14
0.3,2.7,0,0.299863,-0.00315067,6.2424e-14
0.3,2.8,0,0.299855,-0.0030565,2.00664e-13
0.3,2.9,0,0.299846,-0.00296234,3.38904e-13
0.3,3,0,0.299843,-0.00293353,3.81202e-13
0.3,3.1,0,0.299843,-0.00293353,3.81202e-13
0.3,3.2,0,0.299837,-0.00284838,4.2088e-13
0.3,3.3,0,0.299829,-0.00273961,4.71563e-13
0.3,3.4,0,0.299821,-0.00263084,5.22246e-13
0.3,3.5,0,0.299819,-0.00261015,5.31887e-13
0.3,3.6,0,0.299819,-0.00261015,5.31887e-13
0.3,3.7,0,0.299813,-0.00250022,5.27263e-13
0.3,3.8,0,0.299805,-0.00237784,5.22115e-13
0.3,3.9,0,0.299798,-0.00225546,5.16966e-13
0.3,4,0,0.299797,-0.00224631,5.16582e-13
0.3,4.1,0,0.299797,-0.0022445,5.17273e-13
0.3,4.2,0,0.299791,-0.00210954,5.68671e-13
0.3,4.3,0,0.299784,-0.00197459,6.20069e-13
0.3,4.4,0,0.299778,-0.00184512,6.69375e-13
0.3,4.5,0,0.299778,-0.00184512,6.69375e-13
0.3,4.6,0,0.299778,-0.00182637,6.77271e-13
0.3,4.7,0,0.299772,-0.00168055,7.38668e-13
0.3,4.8,0,0.299767,-0.00153473,8.00065e-13
0.3,4.9,0,0.299762,-0.00141167,8.51877e-13
0.3,5,0,0.299762,-0.00141167,8.51877e-13
0.3,5.1,0,0.299761,-0.001374,8.63097e-13
0.3,5.2,0,0.299757,-0.00121943,9.09131e-13
0.3,5.3,0,0.299753,-0.00106487,9.55164e-13
0.3,5.4,0,0.29975,-0.000952277,9.88697e-13
0.3,5.5,0,0.29975,-0.000952277,9.88697e-13
0.3,5.6,0,0.299749,-0.000894604,9.82257e-13
0.3,5.7,0,0.299747,-0.000733899,9.6431e-13
0.3,5.8,0,0.299744,-0.000573194,9.46364e-13
0.3,5.9,0,0.299743,-0.000474679,9.35363e-13
0.3,6,0,0.299743,-0.000474679,9.35363e-13
0.3,6.1,0,0.299742,-0.000397084,9.23219e-13
0.3,6.2,0,0.299741,-0.000233383,8.97599e-13
0.3,6.3,0,0.299741,-6.96826e-05,8.7198e-13
0.3,6.4,0,0.29974,1.17696e-05,8.59232e-13
0.3,6.5,0,0.29974,1.17696e-05,8.59232e-13
0.3,6.6,0,0.299741,0.000107847,8.5318e-13
0.3,6.7,0,0.299742,0.000270924,8.42908e-13
0.3,6.8,0,0.299744,0.000434002,8.32635e-13
0.3,6.9,0,0.299744,0.000496314,8.2871e-13
0.3,7,0,0.299744,0.000496314,8.2871e-13
0.3,7.1,0,0.299746,0.00060881,8.1067e-13
0.3,7.2,0,0.299749,0.000768532,7.85056e-13
0.3,7.3,0,0.299752,0.000928254,7.59443e-13
0.3,7.4,0,0.299753,0.000970837,7.52614e-13
0.3,7.5,0,0.299753,0.000970837,7.52614e-13
0.3,7.6,0,0.299757,0.00109671,7.29545e-13
0.3,7.7,0,0.299761,0.00125029,7.01397e-13
0.3,7.8,0,0.299766,0.00140387,6.73248e-13
0.3,7.9,0,0.299766,0.00142707,6.68996e-13
0.3,8,0,0.299766,0.00142707,6.68996e-13
0.3,8.1,0,0.299772,0.00156226,6.61831e-13
0.3,8.2,0,0.299778,0.00170687,6.54167e-13
0.3,8.3,0,0.299783,0.00185149,6.46502e-13
0.3,8.4,0,0.299784,0.0018566,6.46231e-13
0.3,8.5,0,0.299784,0.00186336,6.47395e-13
0.3,8.6,0,0.299791,0.00199717,6.70451e-13
0.3,8.7,0,0.299798,0.00213099,6.93507e-13
0.3,8.8,0,0.299804,0.00225404,7.14709e-13
0.3,8.9,0,0.299804,0.00225404,7.14709e-13
0.3,9,0,0.299806,0.00227423,7.211e-13
0.3,9.1,0,0.299813,0.0023956,7.59518e-13
0.3,9.2,0,0.299821,0.00251697,7.97935e-13
0.3,9.3,0,0.299827,0.00261449,8.28805e-13
0.3,9.4,0,0.299827,0.00261449,8.28805e-13
0.3,9.5,0,0.299829,0.00264487,8.37479e-13
0.3,9.6,0,0.299837,0.00275241,8.68183e-13
0.3,9.7,0,0.299844,0.00285995,8.98887e-13
0.3,9.8,0,0.29985,0.00293384,9.19983e-13
0.3,9.9,0,0.29985,0.00293384,9.19983e-13
0.3,10,0,0.299853,0.00297068,9.21969e-13
0.3,10.1,0,0.299861,0.00306305,9.26952e-13
0.3,10.2,0,0.299868,0.00315543,9.31934e-13
0.3,10.3,0,0.299873,0.0032081,9.34774e-13
0.3,10.4,0,0.299873,0.0032081,9.34774e-13
0.3,10.5,0,0.299877,0.00324721,9.17447e-13
0.3,10.6,0,0.299884,0.00332324,8.83758e-13
0.3,10.7,0,0.299892,0.00339927,8.50069e-13
0.3,10.8,0,0.299896,0.0034337,8.34816e-13
0.3,10.9,0,0.299896,0.0034337,8.34816e-13
0.3,11,0,0.299901,0.00347016,8.03775e-13
0.3,11.1,0,0.299909,0.00352828,7.5429e-13
0.3,11.2,0,0.299917,0.00358641,7.04805e-13
0.3,11.3,0,0.299919,0.00360591,6.88206e-13
0.3,11.4,0,0.299919,0.00360591,6.88206e-13
0.3,11.5,0,0.299927,0.00363503,6.46059e-13
0.3,11.6,0,0.299937,0.00367469,5.88653e-13
0.3,11.7,0,0.299947,0.00371436,5.31247e-13
0.3,11.8,0,0.299949,0.00372306,5.18647e-13
0.3,11.9,0,0.299949,0.00372306,5.18647e-13
0.3,12,0,0.299958,0.00374283,4.56536e-13
0.3,12.1,0,0.299968,0.00376656,3.81951e-13
0.3,12.2,0,0.299979,0.00379029,3.07366e-13
0.3,12.3,0,0.299979,0.00408254,3.26614e-13
0.3,12.4,0,0.299977,0.00440708,3.57146e-13
0.3,12.5,0,0.299982,0.00443939,3.212e-13
0.3,12.6,0,0.299986,0.00445049,2.80427e-13
0.3,12.7,0,0.299991,0.00446158,2.39654e-13
0.4,0,0,0.29998,-0.00542984,2.49712e-14
0.4,0.1,0,0.299975,-0.00542433,4.79709e-14
0.4,0.2,0,0.299971,-0.00541882,7.09706e-14
0.4,0.3,0,0.299966,-0.0054133,9.39703e-14
0.4,0.4,0,0.299962,-0.00538776,1.15199e-13
0.4,0.5,0,0.299963,-0.00509548,1.15147e-13
0.4,0.6,0,0.299953,-0.00507107,1.58793e-13
0.4,0.7,0,0.299944,-0.00504665,2.0244e-13
0.4,0.8,0,0.299934,-0.00502224,2.46086e-13
0.4,0.9,0,0.299926,-0.00500197,2.82327e-13
0.4,1,0,0.299926,-0.00500197,2.82327e-13
0.4,1.1,0,0.299924,-0.00499008,2.78097e-13
0.4,1.2,0,0.299915,-0.00494762,2.62991e-13
0.4,1.3,0,0.299906,-0.00490516,2.47886e-13
0.4,1.4,0,0.299897,-0.0048627,2.3278e-13
0.4,1.5,0,0.299891,-0.00483453,2.22757e-13
0.4,1.6,0,0.299888,-0.00480951,1.91238e-13
0.4,1.7,0,0.29988,-0.00474845,1.1433e-13
0.4,1.8,0,0.299872,-0.00468739,3.74216e-14
0.4,1.9,0,0.299864,-0.00462634,-3.94868e-14
0.4,2,0,0.299859,-0.00459317,-8.12708e-14
0.4,2.1,0,0.299855,-0.00455132,-7.56375e-14
0.4,2.2,0,0.299846,-0.0044734,-6.51477e-14
0.4,2.3,0,0.299837,-0.00439548,-5.46579e-14
0.4,2.4,0,0.299829,-0.00431757,-4.4168e-14
0.4,2.5,0,0.299825,-0.00428465,-3.97361e-14
0.4,2.6,0,0.29982,-0.00422262,5.13304e-14
0.4,2.7,0,0.299811,-0.00412846,1.8957e-13
0.4,2.8,0,0.299802,-0.0040343,3.2781e-13
0.4,2.9,0,0.299794,-0.00394013,4.6605e-13
0.4,3,0,0.299791,-0.00391138,5.0827e-13
0.4,3.1,0,0.299785,-0.00382713,5.47527e-13
0.4,3.2,0,0.299777,-0.00371836,5.98211e-13
0.4,3.3,0,0.299769,-0.00360959,6.48894e-13
0.4,3.4,0,0.299761,-0.00350081,6.99578e-13
0.4,3.5,0,0.299759,-0.0034802,7.09183e-13
0.4,3.6,0,0.299753,-0.00337129,7.04601e-13
0.4,3.7,0,0.299745,-0.0032489,6.99453e-13
0.4,3.8,0,0.299738,-0.00312652,6.94305e-13
0.4,3.9,0,0.29973,-0.00300414,6.89156e-13
0.4,4,0,0.29973,-0.00299439,6.89038e-13
0.4,4.1,0,0.299723,-0.00285944,7.40436e-13
0.4,4.2,0,0.299717,-0.00272448,7.91834e-13
0.4,4.3,0,0.299711,-0.00258953,8.43232e-13
0.4,4.4,0,0.299704,-0.00246017,8.925e-13
0.4,4.5,0,0.299704,-0.00244264,8.99879e-13
0.4,4.6,0,0.299698,-0.00229682,9.61276e-13
0.4,4.7,0,0.299693,-0.00215099,1.02267e-12
0.4,4.8,0,0.299687,-0.00200517,1.08407e-12
0.4,4.9,0,0.299683,-0.00188222,1.13584e-12
0.4,5,0,0.299682,-0.00184586,1.14667e-12
0.4,5.1,0,0.299678,-0.0016913,1.1927e-12
0.4,5.2,0,0.299674,-0.00153674,1.23873e-12
0.4,5.3,0,0.29967,-0.00138217,1.28477e-12
0.4,5.4,0,0.299667,-0.0012697,1.31826e-12
0.4,5.5,0,0.299666,-0.00121341,1.31198e-12
0.4,5.6,0,0.299663,-0.0010527,1.29403e-12
0.4,5.7,0,0.299661,-0.000891998,1.27608e-12
0.4,5.8,0,0.299658,-0.000731293,1.25814e-12
0.4,5.9,0,0.299657,-0.000632906,1.24715e-12
0.4,6,0,0.299656,-0.000556728,1.23523e-12
0.4,6.1,0,0.299656,-0.000393028,1.20961e-12
0.4,6.2,0,0.299655,-0.000229327,1.18399e-12
0.4,6.3,0,0.299654,-6.56266e-05,1.15837e-12
0.4,6.4,0,0.299654,1.56927e-05,1.14564e-12
0.4,6.5,0,0.299654,0.000110344,1.13968e-12
0.4,6.6,0,0.299656,0.000273422,1.12941e-12
0.4,6.7,0,0.299657,0.000436499,1.11914e-12
0.4,6.8,0,0.299658,0.000599576,1.10886e-12
0.4,6.9,0,0.299659,0.000661752,1.10495e-12
0.4,7,0,0.299661,0.00077284,1.08713e-12
0.4,7.1,0,0.299664,0.000932562,1.06152e-12
0.4,7.2,0,0.299667,0.00109228,1.03591e-12
0.4,7.3,0,0.29967,0.00125201,1.01029e-12
0.4,7.4,0,0.299671,0.00129445,1.00349e-12
0.4,7.5,0,0.299675,0.00141896,9.80666e-13
0.4,7.6,0,0.299679,0.00157254,9.52518e-13
0.4,7.7,0,0.299683,0.00172612,9.24369e-13
0.4,7.8,0,0.299688,0.0018797,8.96221e-13
0.4,7.9,0,0.299688,0.00190275,8.91995e-13
0.4,8,0,0.299694,0.00203667,8.84898e-13
0.4,8.1,0,0.2997,0.00218128,8.77233e-13
0.4,8.2,0,0.299705,0.00232589,8.69569e-13
0.4,8.3,0,0.299711,0.0024705,8.61905e-13
0.4,8.4,0,0.299712,0.00248105,8.62602e-13
0.4,8.5,0,0.299719,0.00261486,8.85658e-13
0.4,8.6,0,0.299726,0.00274868,9.08714e-13
0.4,8.7,0,0.299733,0.00288249,9.3177e-13
0.4,8.8,0,0.299739,0.00300539,9.52946e-13
0.4,8.9,0,0.29974,0.00302453,9.59003e-13
0.4,9,0,0.299748,0.0031459,9.97421e-13
0.4,9.1,0,0.299755,0.00326726,1.03584e-12
0.4,9.2,0,0.299763,0.00338863,1.07426e-12
0.4,9.3,0,0.299769,0.00348599,1.10507e-12
0.4,9.4,0,0.299771,0.00351546,1.11349e-12
0.4,9.5,0,0.299779,0.003623,1.14419e-12
0.4,9.6,0,0.299786,0.00373054,1.1749e-12
0.4,9.7,0,0.299794,0.00383808,1.2056e-12
0.4,9.8,0,0.299799,0.00391178,1.22664e-12
0.4,9.9,0,0.299803,0.00394787,1.22859e-12
0.4,10,0,0.29981,0.00404025,1.23357e-12
0.4,10.1,0,0.299818,0.00413263,1.23855e-12
0.4,10.2,0,0.299826,0.00422501,1.24354e-12
0.4,10.3,0,0.29983,0.00427747,1.24637e-12
0.4,10.4,0,0.299834,0.00431596,1.22931e-12
0.4,10.5,0,0.299842,0.00439199,1.19562e-12
0.4,10.6,0,0.29985,0.00446803,1.16193e-12
0.4,10.7,0,0.299857,0.00454406,1.12824e-12
0.4,10.8,0,0.299861,0.00457826,1.11309e-12
0.4,10.9,0,0.299866,0.00461421,1.08249e-12
0.4,11,0,0.299874,0.00467233,1.033e-12
0.4,11.1,0,0.299882,0.00473046,9.83515e-13
0.4,11.2,0,0.29989,0.00478859,9.3403e-13
0.4,11.3,0,0.299892,0.00480788,9.17608e-13
0.4,11.4,0,0.2999,0.00483653,8.76131e-13
0.4,11.5,0,0.29991,0.0048762,8.18725e-13
0.4,11.6,0,0.29992,0.00491586,7.6132e-13
0.4,11.7,0,0.29993,0.00495553,7.03914e-13
0.4,11.8,0,0.299932,0.00496408,6.91529e-13
0.4,11.9,0,0.299941,0.00498344,6.30708e-13
0.4,12,0,0.299951,0.00500717,5.56123e-13
0.4,12.1,0,0.299962,0.0050309,4.81538e-13
0.4,12.2,0,0.299972,0.00505463,4.06953e-13
0.4,12.3,0,0.299972,0.00534769,4.26483e-13
0.4,12.4,0,0.299976,0.00538708,3.92147e-13
0.4,12.5,0,0.299981,0.00539817,3.51373e-13
0.4,12.6,0,0.299985,0.00540927,3.106e-13
0.4,12.7,0,0.29999,0.00542036,2.69827e-13
0.5,0,0,0.299977,-0.00639268,2.5e-14
0.5,0.1,0,0.299972,-0.00638864,4.79995e-14
0.5,0.2,0,0.299968,-0.0063846,7.0999e-14
0.5,0.3,0,0.299963,-0.00638056,9.39985e-14
0.5,0.4,0,0.299958,-0.00637652,1.16998e-13
0.5,0.5,0,0.299953,-0.00636981,1.41882e-13
0.5,0.6,0,0.299943,-0.00634536,1.85391e-13
0.5,0.7,0,0.299933,-0.00632091,2.28901e-13
0.5,0.8,0,0.299924,-0.00629646,2.7241e-13
0.5,0.9,0,0.299914,-0.006272,3.1592e-13
0.5,1,0,0.299904,-0.00624359,3.46277e-13
0.5,1.1,0,0.299895,-0.00620139,3.30876e-13
0.5,1.2,0,0.299886,-0.00615919,3.15474e-13
0.5,1.3,0,0.299877,-0.00611698,3.00073e-13
0.5,1.4,0,0.299868,-0.00607478,2.84672e-13
0.5,1.5,0,0.299856,-0.00601973,2.48911e-13
0.5,1.6,0,0.299848,-0.0059587,1.7203e-13
0.5,1.7,0,0.29984,-0.00589766,9.51485e-14
0.5,1.8,0,0.299832,-0.00583663,1.82674e-14
0.5,1.9,0,0.299823,-0.00577559,-5.86137e-14
0.5,2,0,0.299815,-0.00570688,-9.5707e-14
0.5,2.1,0,0.299807,-0.00562898,-8.5216e-14
0.5,2.2,0,0.299798,-0.00555108,-7.4725e-14
0.5,2.3,0,0.299789,-0.00547319,-6.4234e-14
0.5,2.4,0,0.299781,-0.00539529,-5.3743e-14
0.5,2.5,0,0.299771,-0.00530233,3.48804e-14
0.5,2.6,0,0.299762,-0.00520814,1.73144e-13
0.5,2.7,0,0.299753,-0.00511394,3.11408e-13
0.5,2.8,0,0.299745,-0.00501975,4.49672e-13
0.5,2.9,0,0.299736,-0.00492555,5.87936e-13
0.5,3,0,0.299726,-0.00481456,6.67441e-13
0.5,3.1,0,0.299718,-0.00470577,7.18137e-13
0.5,3.2,0,0.29971,-0.00459698,7.68832e-13
0.5,3.3,0,0.299702,-0.0044882,8.19527e-13
0.5,3.4,0,0.299694,-0.00437941,8.70222e-13
0.5,3.5,0,0.299685,-0.00425185,8.72141e-13
0.5,3.6,0,0.299677,-0.00412946,8.67005e-13
0.5,3.7,0,0.29967,-0.00400706,8.6187e-13
0.5,3.8,0,0.299663,-0.00388467,8.56735e-13
0.5,3.9,0,0.299655,-0.00376227,8.516e-13
0.5,4,0,0.299647,-0.00361954,8.98587e-13
0.5,4.1,0,0.299641,-0.00348457,9.50003e-13
0.5,4.2,0,0.299635,-0.0033496,1.00142e-12
0.5,4.3,0,0.299628,-0.00321464,1.05283e-12
0.5,4.4,0,0.299621,-0.00306969,1.10237e-12
0.5,4.5,0,0.299615,-0.00292385,1.16379e-12
0.5,4.6,0,0.29961,-0.00277802,1.22522e-12
0.5,4.7,0,0.299604,-0.00263218,1.28664e-12
0.5,4.8,0,0.299599,-0.00248634,1.34807e-12
0.5,4.9,0,0.299593,-0.00232891,1.40303e-12
0.5,5,0,0.299589,-0.00217433,1.4491e-12
0.5,5.1,0,0.299585,-0.00201975,1.49517e-12
0.5,5.2,0,0.299581,-0.00186517,1.54124e-12
0.5,5.3,0,0.299577,-0.00171059,1.58731e-12
0.5,5.4,0,0.299572,-0.00154358,1.61661e-12
0.5,5.5,0,0.29957,-0.00138286,1.5987e-12
0.5,5.6,0,0.299567,-0.00122214,1.58079e-12
0.5,5.7,0,0.299565,-0.00106142,1.56288e-12
0.5,5.8,0,0.299562,-0.000900695,1.54497e-12
0.5,5.9,0,0.29956,-0.00072773,1.52374e-12
0.5,6,0,0.299559,-0.000564013,1.49815e-12
0.5,6.1,0,0.299558,-0.000400295,1.47257e-12
0.5,6.2,0,0.299557,-0.000236578,1.44698e-12
0.5,6.3,0,0.299557,-7.28602e-05,1.4214e-12
0.5,6.4,0,0.299557,0.000101747,1.40493e-12
0.5,6.5,0,0.299558,0.000264841,1.39469e-12
0.5,6.6,0,0.29956,0.000427935,1.38445e-12
0.5,6.7,0,0.299561,0.000591028,1.3742e-12
0.5,6.8,0,0.299562,0.000754122,1.36396e-12
0.5,6.9,0,0.299565,0.000926294,1.34746e-12
0.5,7,0,0.299568,0.00108603,1.32187e-12
0.5,7.1,0,0.299571,0.00124577,1.29628e-12
0.5,7.2,0,0.299574,0.0014055,1.27068e-12
0.5,7.3,0,0.299577,0.00156524,1.24509e-12
0.5,7.4,0,0.299582,0.00173131,1.21865e-12
0.5,7.5,0,0.299586,0.0018849,1.19051e-12
0.5,7.6,0,0.29959,0.00203849,1.16238e-12
0.5,7.7,0,0.299595,0.00219208,1.13424e-12
0.5,7.8,0,0.299599,0.00234568,1.10611e-12
0.5,7.9,0,0.299606,0.00250199,1.0932e-12
0.5,8,0,0.299612,0.0026466,1.08554e-12
0.5,8.1,0,0.299617,0.00279122,1.07788e-12