/*--------------------------------*- C++ -*----------------------------------*\
| =========                 |                                                 |
| \\      /  F ield         | OpenFOAM: The Open Source CFD Toolbox           |
|  \\    /   O peration     | Version:  v1806                                 |
|   \\  /    A nd           | Web:      www.OpenFOAM.com                      |
|    \\/     M anipulation  |                                                 |
\*---------------------------------------------------------------------------*/
FoamFile
{
    version     2.0;
    format      ascii;
    class       volScalarField;
    location    "460";
    object      p;
}
// * * * * * * * * * * * * * * * * * * * * * * * * * * * * * * * * * * * * * //

dimensions      [0 2 -2 0 0 0 0];


internalField   nonuniform List<scalar> 
2400
(
0.000531636
0.000529991
0.000526421
0.00052081
0.000512988
0.000502703
0.000489644
0.000473464
0.000453816
0.000430374
0.000402865
0.000371101
0.00033501
0.000294669
0.000250338
0.000202454
0.000151671
9.87144e-05
4.44419e-05
-1.01329e-05
0.00159681
0.00159222
0.00158223
0.00156643
0.0015443
0.00151512
0.00147795
0.0014318
0.00137561
0.00130843
0.00122942
0.00113798
0.00103386
0.000917213
0.000788726
0.000649623
0.000501758
0.000347492
0.000189907
3.23799e-05
0.0026673
0.00266005
0.0026443
0.00261926
0.00258403
0.00253736
0.00247766
0.00240319
0.00231212
0.00220273
0.00207347
0.0019232
0.00175127
0.00155778
0.00134369
0.00111091
0.000862451
0.000602271
0.000335383
6.69943e-05
0.00374621
0.0037367
0.00371596
0.00368288
0.0036361
0.00357379
0.00349362
0.003393
0.00326917
0.00311949
0.00294149
0.00273328
0.00249357
0.00222224
0.00192026
0.00159021
0.00123614
0.000863742
0.0004802
9.35746e-05
0.00483618
0.00482489
0.00480021
0.00476071
0.00470453
0.00462915
0.00453138
0.00440766
0.00425409
0.0040669
0.0038424
0.0035777
0.00327048
0.00292016
0.00252739
0.00209528
0.00162884
0.00113572
0.000625656
0.000110125
0.00593921
0.00592678
0.00589955
0.00585574
0.00579292
0.00570783
0.00559623
0.00545344
0.00527415
0.00505326
0.00478539
0.00446634
0.00409222
0.00366168
0.00317443
0.00263414
0.00204632
0.00142113
0.000770965
0.00011183
0.00705656
0.00704381
0.00701573
0.00697024
0.00690428
0.00681369
0.00669307
0.00653642
0.00633672
0.00608724
0.00578034
0.0054102
0.00497041
0.00445869
0.00387263
0.00321667
0.00249584
0.00172375
0.000915274
9.29759e-05
0.00818854
0.00817644
0.00814961
0.00810566
0.00804081
0.00794995
0.00782632
0.00766246
0.00744924
0.007178
0.00683811
0.00642177
0.00591871
0.00532559
0.00463594
0.00385563
0.00298693
0.00204902
0.0010578
4.63037e-05
0.00933432
0.00932402
0.00930092
0.00926234
0.00920374
0.00911897
0.00899976
0.00883701
0.00861913
0.00833518
0.00797065
0.00751532
0.00695326
0.00628011
0.00548198
0.00456778
0.00353236
0.00240486
0.00119778
-3.76183e-05
0.0104917
0.0104846
0.0104681
0.0104393
0.010393
0.0103219
0.0102161
0.0100648
0.00985352
0.00956867
0.00919093
0.00870712
0.0080933
0.00734413
0.00643332
0.00537564
0.00414967
0.00280323
0.00133461
-0.000170953
0.011657
0.0116545
0.0116478
0.011634
0.011607
0.0115584
0.0114768
0.0113494
0.0111589
0.0108883
0.0105128
0.0100153
0.00936159
0.00854464
0.00751929
0.00630988
0.00486371
0.00326292
0.00146817
-0.000369212
0.0128246
0.0128284
0.0128352
0.0128419
0.012842
0.0128259
0.0127812
0.0126925
0.0125402
0.0123029
0.0119507
0.0114597
0.0107848
0.00991421
0.0087781
0.007412
0.00571113
0.0038148
0.00160069
-0.000651397
0.0139872
0.013999
0.0140231
0.0140564
0.0140921
0.0141197
0.0141259
0.0140933
0.0140001
0.0138199
0.0135181
0.013061
0.0123936
0.0114912
0.0102591
0.00873614
0.0067467
0.00450878
0.00174205
-0.00103579
0.0151352
0.0151568
0.015202
0.0152682
0.0153484
0.0154315
0.0155042
0.0155469
0.0155373
0.0154426
0.0152265
0.0148392
0.014222
0.0133199
0.0120257
0.0103496
0.00805131
0.00541742
0.00192093
-0.00152658
0.0162572
0.0162902
0.0163604
0.0164653
0.0165988
0.0167494
0.0169046
0.0170434
0.0171446
0.0171687
0.017081
0.016811
0.0163041
0.0154514
0.0141585
0.0123376
0.00974432
0.00662839
0.00220272
-0.00210465
0.0173395
0.0173856
0.0174839
0.0176331
0.0178278
0.0180573
0.0183105
0.0185666
0.0188066
0.018987
0.0190764
0.0189841
0.0186661
0.0179406
0.0167548
0.0148201
0.012006
0.00824475
0.00273364
-0.00277141
0.0183671
0.0184273
0.0185563
0.0187541
0.0190165
0.0193344
0.0196991
0.0200922
0.0204978
0.0208732
0.0211912
0.0213498
0.021314
0.0208364
0.0199094
0.0179667
0.0151056
0.010461
0.00384669
-0.00372419
0.0193233
0.0193983
0.0195595
0.0198085
0.0201426
0.0205555
0.0210415
0.0215871
0.0221807
0.0227867
0.023382
0.023871
0.0242192
0.0241573
0.0236858
0.0220034
0.0193957
0.0137528
0.0061111
-0.00577969
0.0201909
0.0202807
0.0204742
0.0207746
0.0211814
0.0216915
0.0223033
0.0230098
0.0238054
0.0246671
0.0255782
0.0264676
0.0272982
0.0278443
0.0280616
0.0271388
0.0252698
0.0190591
0.0105222
-0.0100748
0.0209528
0.0210565
0.0212806
0.0216301
0.0221066
0.0227107
0.0234454
0.0243113
0.0253106
0.0264354
0.0276803
0.0290077
0.0303901
0.0316914
0.0328314
0.0332681
0.0328851
0.0285301
0.0209982
-0.0137308
-8.44675e-05
-0.000177198
-0.00025701
-0.00031659
-0.000355645
-0.000377407
-0.000386252
-0.000385948
-0.000379458
-0.000369021
-0.000199735
-0.000482292
-0.000719467
-0.000897424
-0.0010155
-0.00108274
-0.00111172
-0.00111343
-0.00109606
-0.00106505
-0.000327584
-0.000808273
-0.00121085
-0.00151206
-0.00171086
-0.0018229
-0.00186991
-0.00187093
-0.00183992
-0.00178639
-0.000474967
-0.00116798
-0.00174571
-0.00217464
-0.00245438
-0.00260884
-0.00267036
-0.00266705
-0.00261898
-0.00253961
-0.000648988
-0.00157265
-0.00233619
-0.00289632
-0.0032551
-0.00344716
-0.00351758
-0.00350478
-0.00343504
-0.00332564
-0.000859918
-0.00203716
-0.0029983
-0.00369198
-0.00412529
-0.00434713
-0.0044183
-0.004389
-0.00429159
-0.00414714
-0.00112098
-0.00258
-0.00375126
-0.00457903
-0.00507877
-0.00531875
-0.00537959
-0.00532474
-0.00519219
-0.00500669
-0.00145006
-0.00322439
-0.00461812
-0.0055776
-0.00613062
-0.00637234
-0.00640837
-0.0063167
-0.00613988
-0.00590628
-0.00187228
-0.00399972
-0.0056268
-0.00671109
-0.00729718
-0.00751835
-0.00751133
-0.00736909
-0.00713699
-0.00684713
-0.00242387
-0.00494352
-0.0068117
-0.00800686
-0.00859581
-0.00876701
-0.00869441
-0.00848491
-0.00818431
-0.00782889
-0.00315833
-0.006104
-0.00821627
-0.00949723
-0.0100445
-0.0101275
-0.00996159
-0.00966429
-0.0092793
-0.00884766
-0.00415746
-0.00754321
-0.00989679
-0.0112201
-0.0116605
-0.0116059
-0.0113117
-0.0109007
-0.010412
-0.00989198
-0.00555427
-0.00934
-0.0119264
-0.0132138
-0.0134538
-0.0131982
-0.0127307
-0.0121727
-0.0115577
-0.0109363
-0.00756681
-0.0115979
-0.014399
-0.0154971
-0.0154129
-0.0148758
-0.0141765
-0.0134313
-0.0126675
-0.0119342
-0.0105622
-0.0144549
-0.0174217
-0.0180357
-0.0174734
-0.0165582
-0.0155601
-0.0145895
-0.0136643
-0.0128178
-0.0152063
-0.0180753
-0.0210626
-0.0206722
-0.0194746
-0.0180879
-0.0167417
-0.0155333
-0.0144593
-0.013517
-0.0225613
-0.0225059
-0.0252691
-0.0230713
-0.0211594
-0.0192603
-0.0175894
-0.0161856
-0.0150074
-0.0139996
-0.0331405
-0.0271666
-0.0295839
-0.0247477
-0.0223623
-0.0199884
-0.0180841
-0.0165485
-0.0153124
-0.0142898
-0.0466539
-0.0300113
-0.0326229
-0.0254481
-0.0230888
-0.020322
-0.0183082
-0.0167107
-0.0154553
-0.0144483
-0.0784106
-0.0321014
-0.0353971
-0.0257515
-0.0234287
-0.0203916
-0.0183681
-0.0167256
-0.0154541
-0.0146039
-0.000350638
-0.000326252
-0.000301927
-0.000259995
-0.000225312
-0.000193391
-0.000163838
-0.000136903
-0.000113911
-9.31873e-05
-7.5352e-05
-5.81397e-05
-4.26835e-05
-2.73506e-05
-1.45392e-05
-3.09292e-06
4.00435e-06
7.85972e-06
6.85554e-06
2.26126e-06
-0.00101399
-0.000936086
-0.000846132
-0.000759168
-0.000666724
-0.000573742
-0.000486719
-0.000407263
-0.000339093
-0.000277966
-0.00022493
-0.000174528
-0.000128699
-8.39791e-05
-4.59913e-05
-1.20176e-05
8.80916e-06
2.14659e-05
1.81118e-05
7.3709e-06
-0.00169879
-0.00156674
-0.00142134
-0.00127045
-0.0011135
-0.000956351
-0.000810271
-0.000677477
-0.000563869
-0.000462549
-0.000374554
-0.000291697
-0.000215588
-0.000142114
-7.86319e-05
-2.21917e-05
1.28573e-05
3.5091e-05
2.96975e-05
1.35882e-05
-0.00241127
-0.00222132
-0.00201328
-0.0017955
-0.00157084
-0.00134654
-0.00113909
-0.000951126
-0.000791133
-0.000648876
-0.000525561
-0.000409756
-0.000302712
-0.000199854
-0.00011005
-3.05699e-05
1.92412e-05
5.12559e-05
4.32904e-05
2.04393e-05
-0.00315217
-0.0028994
-0.00262409
-0.0023365
-0.00204062
-0.00174565
-0.00147425
-0.00122911
-0.00102182
-0.000837742
-0.000678643
-0.000529054
-0.000390042
-0.000256795
-0.000139443
-3.61219e-05
2.90578e-05
7.09373e-05
5.93272e-05
2.81406e-05
-0.00392325
-0.00360239
-0.00325642
-0.00289522
-0.00252377
-0.00215402
-0.00181588
-0.00151148
-0.00125625
-0.00102958
-0.000834469
-0.00065022
-0.000477988
-0.000313156
-0.00016647
-3.83139e-05
4.32817e-05
9.51926e-05
7.87566e-05
3.74486e-05
-0.00472616
-0.00433165
-0.00391136
-0.00347236
-0.00302039
-0.00257131
-0.00216352
-0.00179781
-0.0014944
-0.00122454
-0.000993644
-0.000773828
-0.000566998
-0.000369123
-0.000190654
-3.64163e-05
6.33024e-05
0.000125527
0.000103003
4.9287e-05
-0.00556196
-0.00508774
-0.00458935
-0.00406793
-0.00352981
-0.00299645
-0.00251594
-0.00208697
-0.00173563
-0.00142229
-0.00115648
-0.00090018
-0.000657399
-0.000424773
-0.000211429
-2.96289e-05
9.06786e-05
0.000163587
0.000133608
6.47062e-05
-0.00643074
-0.00587022
-0.00529003
-0.00468099
-0.00405025
-0.00342731
-0.00287083
-0.00237687
-0.00197845
-0.00162179
-0.00132281
-0.00102918
-0.000749377
-0.000480126
-0.000228283
-1.73081e-05
0.000126889
0.000210903
0.00017212
8.4929e-05
-0.0073306
-0.00667671
-0.00601132
-0.00530877
-0.00457818
-0.00386017
-0.00322436
-0.00266413
-0.0022202
-0.00182102
-0.00149178
-0.00116017
-0.000842908
-0.00053513
-0.000240858
8.75937e-07
0.000173144
0.000268693
0.000219996
0.000111319
-0.00825553
-0.00750086
-0.0067476
-0.0059451
-0.0051071
-0.00428886
-0.00357049
-0.00294354
-0.00245645
-0.00201651
-0.00166136
-0.00129156
-0.000937581
-0.000589563
-0.000249029
2.47955e-05
0.000230132
0.000337564
0.000278371
0.000145273
-0.0091915
-0.00832888
-0.00748671
-0.00657839
-0.00562633
-0.00470395
-0.00390046
-0.00320758
-0.0026805
-0.00220287
-0.00182781
-0.0014204
-0.00103228
-0.000642841
-0.000252975
5.37057e-05
0.000297671
0.00041712
0.000347695
0.000188055
-0.010111
-0.00913647
-0.00820696
-0.00718969
-0.00612022
-0.00509249
-0.00420277
-0.00344651
-0.00288314
-0.00237248
-0.00198503
-0.00154189
-0.00112476
-0.000693745
-0.000253207
8.61268e-05
0.000374309
0.000505509
0.000427314
0.000240538
-0.0109679
-0.00988783
-0.0088781
-0.0077535
-0.0065694
-0.00543939
-0.0044647
-0.00364945
-0.00305344
-0.00251586
-0.00212435
-0.00164912
-0.00121114
-0.000740073
-0.000250434
0.000119897
0.000456991
0.000599052
0.000515021
0.000302882
-0.0117002
-0.0105298
-0.00946497
-0.00824258
-0.00695521
-0.00573122
-0.00467584
-0.00380717
-0.00318098
-0.0026232
-0.00223521
-0.00173348
-0.0012856
-0.000778316
-0.000245196
0.000152521
0.000541044
0.000692168
0.000606729
0.000374174
-0.0122526
-0.0110303
-0.00993856
-0.0086369
-0.00726667
-0.00596162
-0.00483268
-0.0039159
-0.00325941
-0.00268682
-0.00230693
-0.00178576
-0.00134042
-0.000803488
-0.000237189
0.0001819
0.000620643
0.000777863
0.000696448
0.000452095
-0.0126083
-0.0113807
-0.0102892
-0.00893193
-0.00750399
-0.00613366
-0.00494045
-0.0039795
-0.00328953
-0.00270378
-0.00233116
-0.00179774
-0.00136652
-0.000809207
-0.000224427
0.000207437
0.000689921
0.000848922
0.000776685
0.000532615
-0.0127954
-0.0115957
-0.010526
-0.00913853
-0.00767903
-0.00626034
-0.00501321
-0.0040094
-0.00327945
-0.00267693
-0.00230399
-0.00176356
-0.0013544
-0.000787978
-0.0002025
0.000231275
0.000744603
0.000899801
0.000839314
0.000609732
-0.01287
-0.0117106
-0.0106737
-0.00927821
-0.00781023
-0.00636026
-0.00506998
-0.00402237
-0.00324331
-0.0026141
-0.00222656
-0.00168028
-0.00129511
-0.000731483
-0.000164095
0.000259183
0.000783784
0.000928702
0.00087688
0.000675396
-0.0129291
-0.0117501
-0.010756
-0.00937129
-0.00791548
-0.00645182
-0.00512947
-0.00403631
-0.00319761
-0.00252624
-0.00210427
-0.00154754
-0.00118152
-0.00063083
-9.91467e-05
0.000300789
0.000811023
0.00093871
0.000883755
0.000720535
-0.0129754
-0.0117144
-0.0107833
-0.00942623
-0.00799949
-0.00653943
-0.0051982
-0.00406253
-0.00316061
-0.00243432
-0.00196044
-0.00138486
-0.00102632
-0.000493091
-6.71483e-06
0.000361091
0.000831322
0.000937306
0.000859188
0.000734978
-0.0126558
-0.0116635
-0.0107852
-0.00946494
-0.00807512
-0.00662887
-0.00527779
-0.0041036
-0.00313881
-0.00235243
-0.00181377
-0.0012147
-0.000849302
-0.000335312
0.000105075
0.000439254
0.000850257
0.000935854
0.000817781
0.000720434
-0.0124308
-0.011607
-0.0107713
-0.00950176
-0.00815716
-0.00673322
-0.00537825
-0.00416499
-0.00313139
-0.00227349
-0.00165316
-0.00102247
-0.000635141
-0.000140844
0.000249691
0.000546707
0.000875143
0.000938177
0.00075876
0.000677121
-0.0122661
-0.0115505
-0.010759
-0.00954326
-0.00824828
-0.0068545
-0.00549935
-0.00424627
-0.00313967
-0.00220179
-0.00148357
-0.000813058
-0.000389251
8.79419e-05
0.000426155
0.000683766
0.000908758
0.000945427
0.000685552
0.000608046
-0.0121702
-0.0115111
-0.0107602
-0.00959469
-0.0083512
-0.00699039
-0.00563823
-0.00434422
-0.00316183
-0.00213742
-0.00131003
-0.000592813
-0.000119785
0.000343995
0.000629202
0.000846291
0.000950521
0.000956414
0.000602982
0.000518306
-0.0121618
-0.0115026
-0.01078
-0.00965826
-0.00846455
-0.00713731
-0.00578784
-0.00445302
-0.00319377
-0.00207975
-0.00113741
-0.000369413
0.000165148
0.000616089
0.000849117
0.00102519
0.000996673
0.000967299
0.000515925
0.000415142
-0.0122398
-0.0115219
-0.0108176
-0.00973178
-0.00858604
-0.00728769
-0.00593895
-0.00456441
-0.00322937
-0.00202692
-0.000970368
-0.000150182
0.000447417
0.0008897
0.0010725
0.00120694
0.0010412
0.000972425
0.000428565
0.000307041
-0.0123847
-0.0115575
-0.0108664
-0.00980783
-0.00870417
-0.00743201
-0.00608151
-0.00466831
-0.00326136
-0.00197624
-0.000812984
5.69559e-05
0.000716102
0.00114889
0.00128406
0.00137588
0.00107712
0.000966051
0.000344261
0.000202152
-0.012589
-0.011594
-0.0109123
-0.00988038
-0.00880979
-0.00756036
-0.00620452
-0.00475529
-0.00328283
-0.00192497
-0.000668928
0.000244598
0.000957467
0.00138744
0.00146902
0.00151716
0.00109798
0.000943729
0.000265958
0.000106602
-0.0128887
-0.0116263
-0.0109409
-0.00993797
-0.00889418
-0.00766272
-0.00629855
-0.00481747
-0.00328848
-0.00187094
-0.000541662
0.0004072
0.00115878
0.00157418
0.00161519
0.00161852
0.00109974
0.000902036
0.000196721
2.49687e-05
-0.0127871
-0.0116542
-0.0109547
-0.00998341
-0.00896015
-0.00774526
-0.00636843
-0.00485596
-0.00327266
-0.00180147
-0.000411295
0.000568935
0.00134451
0.00174115
0.00173625
0.00168514
0.00107755
0.00082663
0.000125746
-5.49272e-05
-0.0127017
-0.0116059
-0.0109009
-0.00996505
-0.00895406
-0.00775116
-0.00636273
-0.00483205
-0.00321413
-0.00171822
-0.000301168
0.000689095
0.00145949
0.00183296
0.00177823
0.00167786
0.00101331
0.000717956
6.47841e-05
-0.000111608
-0.0126181
-0.0114902
-0.0107657
-0.00985477
-0.00884539
-0.007652
-0.00626292
-0.00473844
-0.00312052
-0.00163808
-0.000238045
0.000737725
0.00147396
0.00182401
0.00172991
0.00159376
0.000924407
0.000600765
2.79514e-05
-0.000135071
-0.0123796
-0.0112561
-0.0105054
-0.00961895
-0.00861467
-0.00743868
-0.00606852
-0.00457983
-0.00299999
-0.001566
-0.000221709
0.00072041
0.00140348
0.00173254
0.00161666
0.00146076
0.000832349
0.000493988
1.5215e-05
-0.000132038
-0.011929
-0.0108558
-0.0100913
-0.00923714
-0.00825345
-0.00711152
-0.00578674
-0.00436508
-0.00286024
-0.00150353
-0.000244881
0.000649937
0.00127212
0.00158297
0.00146594
0.00130355
0.000746804
0.000409498
2.25372e-05
-0.000111082
-0.0112582
-0.0102766
-0.00952384
-0.00871279
-0.00777119
-0.00668587
-0.00543421
-0.00410638
-0.00270685
-0.00144794
-0.000294156
0.000543907
0.00110609
0.00140023
0.00130062
0.00114327
0.000673838
0.000351873
4.32914e-05
-8.08902e-05
-0.0104289
-0.00955685
-0.00883815
-0.00808077
-0.00720045
-0.00619113
-0.00503419
-0.00381788
-0.00254326
-0.00139387
-0.000353557
0.000421273
0.000928915
0.00120639
0.0011364
0.000992922
0.000613373
0.000317603
7.01431e-05
-4.87314e-05
-0.00952012
-0.00875891
-0.00808844
-0.00739001
-0.00658194
-0.00565995
-0.00461003
-0.00351303
-0.00237154
-0.00133582
-0.00040903
0.000298574
0.000758081
0.00101812
0.000982308
0.000858513
0.000561546
0.000298674
9.6727e-05
-1.96058e-05
-0.00859024
-0.00793136
-0.00731533
-0.00668089
-0.00594947
-0.00511892
-0.00417989
-0.00320231
-0.00219312
-0.00126987
-0.000451283
0.000187447
0.000604078
0.000845759
0.000842501
0.00074102
0.000514194
0.000286783
0.00011858
3.84141e-06
-0.00767278
-0.00710744
-0.00655309
-0.00597908
-0.00532457
-0.00458512
-0.00375518
-0.00289258
-0.00200923
-0.00119408
-0.00047597
9.42863e-05
0.000471585
0.000694117
0.000717788
0.000638638
0.000468399
0.000275766
0.000133316
2.08485e-05
-0.00678386
-0.00630305
-0.00581124
-0.00529775
-0.00471863
-0.00406745
-0.00334173
-0.00258758
-0.0018211
-0.0011081
-0.00048226
2.13695e-05
0.00036138
0.000564141
0.000607391
0.000548765
0.000422658
0.000262161
0.000140266
3.18299e-05
-0.00593004
-0.00552506
-0.00509556
-0.00464251
-0.00413625
-0.00356938
-0.00294176
-0.00228903
-0.00162995
-0.00101265
-0.000471426
-3.17034e-05
0.000271942
0.000454502
0.000509946
0.000468965
0.000376508
0.000244598
0.000139936
3.77476e-05
-0.00511325
-0.00477619
-0.00440755
-0.00401441
-0.00357823
-0.00309139
-0.00255556
-0.0019975
-0.00143697
-0.000909021
-0.000445734
-6.68138e-05
0.000200791
0.000362824
0.000423925
0.000397248
0.000330055
0.000222995
0.000133447
3.96828e-05
-0.00433325
-0.00405701
-0.00374699
-0.00341266
-0.00304363
-0.00263263
-0.00218255
-0.001713
-0.00124316
-0.00079867
-0.000407689
-8.64345e-05
0.00014521
0.00028641
0.000347796
0.00033205
0.000283628
0.000197909
0.000122078
3.86136e-05
-0.00358869
-0.00336699
-0.00311276
-0.00283561
-0.00253083
-0.00219173
-0.00182187
-0.0014353
-0.00104939
-0.000683037
-0.000359681
-9.31605e-05
0.000102549
0.00022261
0.000280079
0.000272143
0.000237572
0.000170125
0.000107049
3.53314e-05
-0.00287758
-0.00270484
-0.00250335
-0.00228153
-0.00203812
-0.00176721
-0.00147257
-0.00116405
-0.000856328
-0.000563429
-0.000303867
-8.94911e-05
7.03389e-05
0.000168962
0.00021936
0.000216523
0.000192174
0.000140456
8.94744e-05
3.04598e-05
-0.00219743
-0.00206879
-0.0019168
-0.00174853
-0.00156367
-0.00135749
-0.00113359
-0.000898754
-0.000664442
-0.000440998
-0.000242168
-7.7786e-05
4.62595e-05
0.000123157
0.000164221
0.000164263
0.000147573
0.000109587
7.03282e-05
2.45419e-05
-0.0015455
-0.00145697
-0.00135082
-0.00123357
-0.001105
-0.000960566
-0.000803639
-0.000638746
-0.000473976
-0.000316738
-0.000176279
-6.02554e-05
2.81016e-05
8.29538e-05
0.000113132
0.00011431
0.000103558
7.78185e-05
5.01695e-05
1.80064e-05
-0.000920238
-0.00086851
-0.00080527
-0.000733089
-0.000659195
-0.000573941
-0.000480954
-0.000382984
-0.000284762
-0.000191266
-0.00010745
-3.86123e-05
1.4149e-05
4.66595e-05
6.48821e-05
6.58972e-05
5.9887e-05
4.53071e-05
2.91024e-05
1.08887e-05
-0.000317645
-0.000300138
-0.000281216
-0.00025791
-0.000224669
-0.000193446
-0.000161565
-0.000128548
-9.54064e-05
-6.42596e-05
-3.62475e-05
-1.35934e-05
3.81227e-06
1.42663e-05
2.0093e-05
2.03493e-05
1.82893e-05
1.38631e-05
8.54283e-06
3.27267e-06
-0.0753301
-0.031402
-0.03552
-0.0254808
-0.0231546
-0.0200783
-0.0181076
-0.0165136
-0.0152907
-0.0144621
-0.0388305
-0.0287417
-0.0316769
-0.0249778
-0.0226276
-0.0199987
-0.0180308
-0.0164793
-0.0152628
-0.0142535
-0.0272334
-0.025108
-0.0277858
-0.0239705
-0.0216329
-0.0194609
-0.0176812
-0.0162355
-0.0150571
-0.0140559
-0.0175513
-0.0195835
-0.0225594
-0.0215039
-0.0200038
-0.0184145
-0.0169573
-0.015697
-0.0146094
-0.0136627
-0.0111121
-0.0150562
-0.0181485
-0.018618
-0.0179105
-0.0168799
-0.0158158
-0.0148132
-0.0138795
-0.0130329
-0.00736491
-0.011662
-0.0146302
-0.0157812
-0.0156733
-0.0151015
-0.0143894
-0.0136477
-0.012899
-0.0121819
-0.00505736
-0.00909137
-0.0118414
-0.0132419
-0.0135409
-0.0133156
-0.0128797
-0.0123559
-0.0117795
-0.0111916
-0.00355007
-0.00710924
-0.00961192
-0.0110669
-0.0116165
-0.0116385
-0.0114078
-0.0110527
-0.01062
-0.0101468
-0.00252734
-0.0055791
-0.00782216
-0.00923895
-0.00991818
-0.010106
-0.010025
-0.00979825
-0.00948005
-0.00910431
-0.00181469
-0.00439591
-0.0063759
-0.00770349
-0.00843059
-0.00872036
-0.00874541
-0.00861571
-0.00838772
-0.00809315
-0.00130898
-0.00347384
-0.00519654
-0.00640624
-0.00712843
-0.00747248
-0.00756881
-0.0075109
-0.00735317
-0.00712551
-0.000944652
-0.0027481
-0.00422628
-0.00530352
-0.00598688
-0.00634982
-0.00648947
-0.00648252
-0.00637842
-0.00620522
-0.000679478
-0.00217062
-0.00342095
-0.00435989
-0.00498284
-0.00533876
-0.0054994
-0.00552613
-0.00546189
-0.00533233
-0.0004856
-0.00170547
-0.00274571
-0.00354582
-0.00409497
-0.00442539
-0.00458966
-0.00463598
-0.00460024
-0.00450514
-0.00034385
-0.00132543
-0.00217263
-0.00283652
-0.00330408
-0.00359621
-0.00375105
-0.00380575
-0.00378929
-0.00372101
-0.000240462
-0.00100972
-0.00167916
-0.00221117
-0.00259319
-0.00283855
-0.00297449
-0.00302892
-0.00302442
-0.00297673
-0.000165128
-0.000742213
-0.00124701
-0.00165223
-0.00194733
-0.00214067
-0.00225112
-0.00229888
-0.00230068
-0.00226863
-0.000109685
-0.000510178
-0.00086128
-0.00114492
-0.00135341
-0.00149185
-0.00157258
-0.00160921
-0.00161314
-0.00159288
-6.83865e-05
-0.000303951
-0.000510632
-0.000678001
-0.000801486
-0.000884058
-0.000932752
-0.000955429
-0.000958707
-0.000947361
-3.66107e-05
-0.000113709
-0.000183194
-0.000239409
-0.000280577
-0.000307862
-0.000323704
-0.0003308
-0.000331607
-0.000327902
0.021265
0.0213676
0.0215884
0.0219326
0.0224018
0.0229968
0.0237202
0.0245726
0.025556
0.026662
0.0278845
0.0291849
0.0305345
0.0317908
0.0328734
0.0332003
0.0326792
0.0279436
0.019656
-0.0145844
0.0204692
0.0205554
0.0207404
0.0210272
0.0214152
0.0219009
0.0224817
0.0231498
0.0238983
0.0247021
0.0255424
0.0263438
0.0270666
0.0274767
0.0275308
0.0264209
0.0243104
0.0182299
0.00993489
-0.00722512
0.0195418
0.0196107
0.0197581
0.0199852
0.0202891
0.0206627
0.0210992
0.0215838
0.0221029
0.0226195
0.0231072
0.0234707
0.0236698
0.0234516
0.0227944
0.021026
0.0183112
0.013261
0.00621492
-0.00343078
0.0185089
0.0185608
0.0186715
0.0188403
0.0190627
0.0193291
0.0196296
0.019945
0.0202573
0.0205248
0.0207163
0.0207393
0.0205478
0.0199408
0.0188706
0.0169607
0.0141537
0.0100798
0.00417761
-0.00230159
0.0173962
0.0174323
0.0175088
0.0176238
0.0177715
0.0179413
0.0181209
0.01829
0.0184277
0.0184948
0.0184558
0.0182371
0.0177834
0.0169702
0.0157113
0.0138667
0.0112296
0.00791619
0.00320493
-0.00155164
0.0162277
0.0162498
0.0162959
0.0163636
0.0164463
0.0165332
0.0166111
0.0166607
0.0166597
0.016575
0.0163702
0.015993
0.0153854
0.0144838
0.0131867
0.0114775
0.00913604
0.00639182
0.00274981
-0.000899185
0.0150247
0.0150348
0.0150554
0.0150833
0.015112
0.0151313
0.0151279
0.0150847
0.0149802
0.0147878
0.0144736
0.0140027
0.0133223
0.0124026
0.0111558
0.00960423
0.00759127
0.00530022
0.00248225
-0.000381118
0.0138052
0.0138057
0.0138056
0.0138017
0.0137877
0.0137545
0.0136898
0.0135787
0.013402
0.013139
0.0127608
0.0122436
0.0115455
0.0106513
0.00949946
0.00811365
0.00640725
0.00449312
0.00227556
-2.99431e-06
0.0125841
0.0125772
0.0125612
0.0125332
0.0124873
0.0124157
0.0123075
0.0121503
0.0119279
0.011624
0.0112161
0.0106867
0.0100061
0.00916481
0.00812596
0.00690506
0.00546384
0.00386528
0.00208762
0.0002541
0.0113726
0.0113603
0.011333
0.0112879
0.0112199
0.0111223
0.0109862
0.0108012
0.0105543
0.0102327
0.00981968
0.00930232
0.00866089
0.00788863
0.00696609
0.0059022
0.00468501
0.00334991
0.0019044
0.000415262
0.0101789
0.0101631
0.0101285
0.0100724
0.00999073
0.00987793
0.00972667
0.00952867
0.00927381
0.00895217
0.00855162
0.00806274
0.00747316
0.00677804
0.00596836
0.00504968
0.00402211
0.00290733
0.00172127
0.000503681
0.00900846
0.00899081
0.00895227
0.0088905
0.00880221
0.00868299
0.00852702
0.00832775
0.00807751
0.00776875
0.00739298
0.00694343
0.00641264
0.0057975
0.00509464
0.00430829
0.00344314
0.00251405
0.00153716
0.000538392
0.00786428
0.00784606
0.00780644
0.00774338
0.00765432
0.0075358
0.00738334
0.00719187
0.00695569
0.00666921
0.0063266
0.00592319
0.00545465
0.00491928
0.00431659
0.00365031
0.00292633
0.00215569
0.00135219
0.000533935
0.00674732
0.00672962
0.00669123
0.00663044
0.00654526
0.00643308
0.00629051
0.00611375
0.00589863
0.00564112
0.0053373
0.00498409
0.00457911
0.00412174
0.00361283
0.00305581
0.00245635
0.00182299
0.0011668
0.00050094
0.00565692
0.0056406
0.0056053
0.00554958
0.00547195
0.00537049
0.00524273
0.00508585
0.00489689
0.00467303
0.00441171
0.00411099
0.0037697
0.00338792
0.00296701
0.00251011
0.00202211
0.0015097
0.000981481
0.000447145
0.00459108
0.00457683
0.00454605
0.00449758
0.00443035
0.00434299
0.00423374
0.00410059
0.00394149
0.00375454
0.0035381
0.00329106
0.00301296
0.00270425
0.00236641
0.00200213
0.00161543
0.00121145
0.000796698
0.000378295
0.00354674
0.00353508
0.00350992
0.00347038
0.00341572
0.00334502
0.00325706
0.00315048
0.00302391
0.00287611
0.00270611
0.00251333
0.00229768
0.00205976
0.00180092
0.00152334
0.00123013
0.000925108
0.000613002
0.000298857
0.00252004
0.00251135
0.00249262
0.00246326
0.0024228
0.00237065
0.00230604
0.0022281
0.00213597
0.00202891
0.00190637
0.00176811
0.00161421
0.00144523
0.00126226
0.00106688
0.000861338
0.000648295
0.000431001
0.000212682
0.00150652
0.00150108
0.00148938
0.00147109
0.00144598
0.00141373
0.00137391
0.00132603
0.00126964
0.00120436
0.00112992
0.00104625
0.000953478
0.000852004
0.000742532
0.000626056
0.000503925
0.000377744
0.00024954
0.000121408
0.000501198
0.000499256
0.000495099
0.000488648
0.000479831
0.000468545
0.000454646
0.000437978
0.000418391
0.000395763
0.000370016
0.000341132
0.000309172
0.000274283
0.000236722
0.000196834
0.000155084
0.000111937
6.79594e-05
2.38846e-05
0.0215291
0.0216435
0.0218919
0.022281
0.0228138
0.0234943
0.0243297
0.0253277
0.0264983
0.027847
0.0293822
0.0310954
0.0329819
0.0349813
0.0370414
0.03893
0.0404796
0.0408144
0.0400841
0.0231234
0.0219547
0.0220774
0.0223444
0.0227635
0.0233394
0.0240786
0.024992
0.0260928
0.0273978
0.0289234
0.0306904
0.0327133
0.0350096
0.0375709
0.0403821
0.0433419
0.0462803
0.0487477
0.0494828
0.047628
0.0222875
0.0224168
0.0226983
0.0231412
0.0237512
0.0245372
0.025513
0.0266965
0.02811
0.0297793
0.0317358
0.0340121
0.0366443
0.0396587
0.0430659
0.0468242
0.0507813
0.0546185
0.0572961
0.0587921
0.0225226
0.0226564
0.022948
0.0234073
0.024041
0.0248595
0.0258788
0.0271201
0.0286099
0.0303806
0.0324713
0.0349267
0.0377962
0.0411256
0.0449412
0.0492241
0.0538224
0.0584309
0.0620233
0.0649134
0.0226565
0.0227926
0.0230894
0.023557
0.0242027
0.0250378
0.0260793
0.0273503
0.0288796
0.0307027
0.0328631
0.0354115
0.0384041
0.0418959
0.04592
0.050464
0.0553725
0.0603285
0.0643206
0.0675763
0.0226876
0.0228237
0.0231203
0.0235877
0.0242333
0.025068
0.0261094
0.0273801
0.0289094
0.0307327
0.0328936
0.0354431
0.0384377
0.0419328
0.0459623
0.0505143
0.055434
0.060404
0.0644123
0.067682
0.0226159
0.0227495
0.0230408
0.0234996
0.0241326
0.0249503
0.0259689
0.0272096
0.0286992
0.0304703
0.0325624
0.0350209
0.0378961
0.0412352
0.0450663
0.0493727
0.0540047
0.058657
0.0622999
0.0652318
0.0224431
0.0225721
0.0228531
0.0232951
0.0239039
0.0246886
0.0256632
0.0268456
0.0282587
0.0299284
0.0318869
0.0341677
0.0368086
0.0398376
0.0432689
0.0470638
0.0510759
0.0549888
0.0577864
0.0593987
0.0221728
0.0222952
0.0225613
0.0229792
0.0235534
0.0242908
0.0252025
0.0263018
0.0276058
0.0291317
0.0309008
0.0329288
0.0352349
0.0378136
0.0406541
0.0436611
0.0466696
0.0492313
0.0500577
0.0484475
0.0218098
0.0219239
0.0221714
0.0225588
0.0230894
0.0237675
0.0246005
0.0255963
0.0267653
0.0281137
0.0296505
0.0313684
0.033264
0.0352795
0.0373671
0.0393054
0.0409479
0.041457
0.0410842
0.0246401
)
;

boundaryField
{
    inlet
    {
        type            zeroGradient;
    }
    outlet
    {
        type            fixedValue;
        value           uniform 0;
    }
    upAndBottom
    {
        type            empty;
    }
    obstacle
    {
        type            zeroGradient;
    }
}


// ************************************************************************* //
