/*--------------------------------*- C++ -*----------------------------------*\
| =========                 |                                                 |
| \\      /  F ield         | OpenFOAM: The Open Source CFD Toolbox           |
|  \\    /   O peration     | Version:  v1806                                 |
|   \\  /    A nd           | Web:      www.OpenFOAM.com                      |
|    \\/     M anipulation  |                                                 |
\*---------------------------------------------------------------------------*/
FoamFile
{
    version     2.0;
    format      ascii;
    class       volVectorField;
    location    "2";
    object      U;
}
// * * * * * * * * * * * * * * * * * * * * * * * * * * * * * * * * * * * * * //

dimensions      [0 1 -1 0 0 0 0];


internalField   nonuniform List<vector> 
24000
(
(2.73503 0.0228605 0.0852717)
(2.48769 0.0358809 0.0958284)
(2.16805 0.0355621 0.0783685)
(1.85186 0.0324227 0.0639791)
(1.59535 0.0277069 0.0473695)
(1.40561 0.0226847 0.0302599)
(1.27008 0.0185233 0.0171557)
(1.17317 0.0157324 0.00898452)
(1.10266 0.0140273 0.00448395)
(1.05004 0.0127357 0.00226063)
(1.00956 0.0115981 0.00115492)
(0.97795 0.0105674 0.000480077)
(0.952788 0.00955338 0.000110582)
(0.932601 0.00857533 2.07771e-05)
(0.916026 0.00778002 0.000128386)
(0.902618 0.00711269 0.000308713)
(0.891964 0.00633827 0.000514563)
(0.883936 0.00515295 0.00081209)
(0.877713 0.00364776 0.00119121)
(0.872629 0.00202728 0.00151586)
(2.7695 0.0277005 0.0857922)
(2.54918 0.044778 0.098809)
(2.28133 0.0452897 0.079682)
(2.01684 0.0419907 0.0658473)
(1.79571 0.0366784 0.051351)
(1.62542 0.0305367 0.0356248)
(1.49903 0.0247719 0.0226441)
(1.40655 0.0202649 0.0136011)
(1.33963 0.0169795 0.0078463)
(1.29164 0.014255 0.00459363)
(1.25672 0.0119741 0.002909)
(1.23156 0.0100558 0.0018195)
(1.21352 0.00818714 0.000988639)
(1.20114 0.00622194 0.000413296)
(1.19253 0.00480394 0.000165608)
(1.18712 0.00416029 0.000194668)
(1.18405 0.00406341 0.00046062)
(1.18319 0.00345691 0.000838602)
(1.18322 0.00185901 0.00132143)
(1.18354 -0.000778612 0.00174046)
(2.76918 0.00964739 0.0857823)
(2.5414 0.0202376 0.0989719)
(2.2723 0.0239304 0.0793726)
(2.01173 0.0240008 0.0650694)
(1.79601 0.0220731 0.0506729)
(1.63106 0.0189607 0.0351664)
(1.50924 0.0150976 0.0223847)
(1.42046 0.0111531 0.0134711)
(1.35678 0.00762473 0.00777311)
(1.31175 0.00438715 0.00455678)
(1.27938 0.0014538 0.00286265)
(1.25654 -0.0012316 0.00169647)
(1.24087 -0.00362558 0.000789169)
(1.23122 -0.00583618 0.00024657)
(1.22554 -0.00732238 4.82992e-05)
(1.22309 -0.00806683 5.08758e-05)
(1.22277 -0.00811799 0.000166145)
(1.22469 -0.00844984 0.000276422)
(1.22747 -0.00934745 0.000409273)
(1.23071 -0.0109775 0.00048194)
(2.76896 0.00710242 0.0858623)
(2.53572 0.0165712 0.0993573)
(2.2615 0.0207453 0.0798328)
(1.99827 0.020987 0.0653373)
(1.78177 0.0188635 0.0507961)
(1.61744 0.015435 0.0352067)
(1.49699 0.0112589 0.0223939)
(1.40979 0.00679824 0.0134209)
(1.34774 0.00258017 0.00765163)
(1.30437 -0.00140467 0.00439047)
(1.27351 -0.005094 0.00272397)
(1.252 -0.00856799 0.00161652)
(1.23749 -0.0115388 0.000738425)
(1.22901 -0.0141712 0.000205835)
(1.22456 -0.0160442 5.99645e-05)
(1.22344 -0.0172913 6.26383e-05)
(1.22433 -0.0176605 0.000137197)
(1.22734 -0.0177671 0.000153828)
(1.23103 -0.0174395 0.000192649)
(1.23519 -0.0170327 0.000186913)
(2.76884 0.00367703 0.0859)
(2.53267 0.0087944 0.0995097)
(2.2554 0.0111349 0.0800212)
(1.99022 0.0109681 0.0653847)
(1.77281 0.00907836 0.0507128)
(1.60844 0.00598581 0.0350103)
(1.48831 0.00213127 0.0221774)
(1.40179 -0.00230103 0.0131865)
(1.34048 -0.0067527 0.00739683)
(1.29801 -0.0111741 0.00409807)
(1.26803 -0.0153088 0.00240985)
(1.24745 -0.0193257 0.00130289)
(1.23373 -0.0227769 0.000459889)
(1.22625 -0.0258915 -6.02882e-05)
(1.22279 -0.0280199 -0.000189833)
(1.22279 -0.029432 -0.000164714)
(1.22453 -0.0296085 -5.01215e-05)
(1.22836 -0.0292089 -3.61331e-06)
(1.23276 -0.0277265 5.7738e-05)
(1.23791 -0.0258153 3.74249e-05)
(2.76881 0.00197739 0.0859253)
(2.53127 0.00483142 0.0996018)
(2.25224 0.00603915 0.0801774)
(1.98537 0.00543341 0.0655629)
(1.76665 0.00338196 0.0508525)
(1.60143 9.22719e-05 0.0351156)
(1.48082 -0.00391271 0.0222428)
(1.39413 -0.00863295 0.0132773)
(1.33277 -0.0134963 0.00753749)
(1.29052 -0.0185531 0.00424693)
(1.2608 -0.02336 0.00255756)
(1.24085 -0.0282094 0.00141699)
(1.22775 -0.0323844 0.00057129)
(1.22124 -0.0362523 3.4625e-05)
(1.21875 -0.0388553 -8.56575e-05)
(1.22004 -0.0406867 -6.86394e-05)
(1.22296 -0.0408484 4.93658e-05)
(1.22823 -0.0401513 6.6119e-05)
(1.23394 -0.037584 0.000106527)
(1.24067 -0.0341479 4.49497e-05)
(2.76878 0.000719038 0.0859501)
(2.53028 0.00131266 0.0996668)
(2.24988 0.000861966 0.0802911)
(1.98159 -0.000802446 0.0656973)
(1.76155 -0.00354645 0.0509773)
(1.59562 -0.00744748 0.0351147)
(1.4745 -0.0118964 0.0222063)
(1.38776 -0.0171625 0.0131801)
(1.32635 -0.0224923 0.00743803)
(1.28434 -0.0282287 0.00415413)
(1.25481 -0.0336988 0.00248524)
(1.23548 -0.0394229 0.0013319)
(1.22295 -0.0443197 0.00051141)
(1.21749 -0.0490845 -3.17913e-05)
(1.21604 -0.052213 -0.000138146)
(1.2189 -0.0545496 -0.000135351)
(1.22328 -0.05465 -2.04298e-06)
(1.23049 -0.053673 3.3875e-06)
(1.23792 -0.0499462 6.20908e-05)
(1.24672 -0.0450176 -2.03158e-05)
(2.76875 -0.000103534 0.0859812)
(2.52942 -0.001468 0.0997121)
(2.24826 -0.00330387 0.0803439)
(1.97895 -0.00582298 0.0657914)
(1.75771 -0.00911844 0.0510682)
(1.59083 -0.0135989 0.0351809)
(1.4688 -0.0184644 0.0222706)
(1.38168 -0.0244842 0.0131846)
(1.31981 -0.0303863 0.00746901)
(1.27779 -0.0371276 0.00417965)
(1.24815 -0.0434657 0.0025333)
(1.22934 -0.0504352 0.00135288)
(1.21723 -0.0562992 0.000560223)
(1.21295 -0.0623985 2.97724e-06)
(1.2126 -0.0663014 -7.61594e-05)
(1.21731 -0.0695516 -8.23464e-05)
(1.22347 -0.0697856 6.65641e-05)
(1.2332 -0.0688256 4.43338e-05)
(1.2429 -0.063964 0.000106383)
(1.25451 -0.0575894 -2.8347e-05)
(2.76865 -0.000505972 0.0860341)
(2.52843 -0.00382041 0.099741)
(2.24688 -0.00678475 0.0803743)
(1.97674 -0.010245 0.0658732)
(1.75429 -0.0142097 0.0511733)
(1.58638 -0.0195043 0.0352333)
(1.46332 -0.0248449 0.0223264)
(1.37568 -0.0318872 0.0131624)
(1.31308 -0.0383301 0.00748746)
(1.27096 -0.0464438 0.00415321)
(1.24098 -0.0536969 0.00253764)
(1.22269 -0.0623888 0.00130933)
(1.21089 -0.0693538 0.000560329)
(1.20791 -0.0774028 -1.71441e-05)
(1.20879 -0.0822967 -5.93783e-05)
(1.21576 -0.087102 -7.61961e-05)
(1.2241 -0.0877029 9.05672e-05)
(1.23712 -0.0872237 4.61066e-05)
(1.24981 -0.0812079 0.000108816)
(1.26522 -0.0733634 -8.04993e-05)
(2.76835 -0.000409582 0.0861333)
(2.5271 -0.0060747 0.099716)
(2.24555 -0.00955937 0.0803805)
(1.97484 -0.0141042 0.0659251)
(1.75105 -0.0184667 0.0512842)
(1.58208 -0.0248234 0.0352524)
(1.45787 -0.030372 0.0223904)
(1.3695 -0.0388421 0.0131221)
(1.30591 -0.0455628 0.00754071)
(1.26342 -0.0556466 0.00410048)
(1.23285 -0.063609 0.00255709)
(1.21493 -0.0748704 0.00124601)
(1.20328 -0.0828352 0.000588193)
(1.20159 -0.0939228 -2.80119e-05)
(1.20381 -0.0998277 -2.24201e-05)
(1.21329 -0.107371 -3.51851e-05)
(1.22437 -0.108466 0.000125535)
(1.24148 -0.10948 0.0001124)
(1.25818 -0.102174 0.00012462)
(1.27864 -0.0930037 -0.000102157)
(2.76754 0.000291884 0.0863569)
(2.52547 -0.00843301 0.0995491)
(2.24403 -0.0113066 0.0804123)
(1.97333 -0.0175458 0.0659206)
(1.74758 -0.0215055 0.0514373)
(1.57795 -0.0296442 0.0351852)
(1.4522 -0.0345562 0.0224993)
(1.36297 -0.0453704 0.0130376)
(1.29806 -0.0515693 0.00766581)
(1.25473 -0.0648586 0.00396376)
(1.22353 -0.072592 0.00258722)
(1.2055 -0.0881302 0.00106631)
(1.19415 -0.0961993 0.000628761)
(1.19319 -0.112597 -9.91392e-05)
(1.19738 -0.118687 -6.04586e-06)
(1.20906 -0.131537 3.13653e-06)
(1.22403 -0.132534 0.000113998)
(1.24579 -0.137449 0.000298654)
(1.26821 -0.128174 7.7597e-05)
(1.29532 -0.118422 -1.30422e-05)
(2.76579 0.00151739 0.0867201)
(2.52396 -0.0109991 0.099075)
(2.24184 -0.0115719 0.0805664)
(1.97274 -0.0208997 0.0658177)
(1.74313 -0.0226297 0.0517005)
(1.57461 -0.0342814 0.0348671)
(1.44582 -0.0364705 0.0227149)
(1.35638 -0.05182 0.0127929)
(1.28936 -0.0552064 0.0079031)
(1.24479 -0.0743854 0.00360047)
(1.21313 -0.0792487 0.00266217)
(1.19383 -0.102512 0.000551326)
(1.18385 -0.10769 0.000709658)
(1.18154 -0.134171 -0.000446478)
(1.18991 -0.137265 -5.24495e-05)
(1.20143 -0.161244 -0.00012047)
(1.22351 -0.158975 -0.00012554)
(1.24868 -0.174263 0.000762443)
(1.28075 -0.159574 -0.000306469)
(1.31537 -0.153048 0.000581133)
(2.76275 0.00282297 0.0872229)
(2.52351 -0.0134479 0.0981615)
(2.23839 -0.00995351 0.080961)
(1.97395 -0.0241938 0.0655107)
(1.73687 -0.0209577 0.0521521)
(1.57324 -0.0390075 0.0341686)
(1.43778 -0.0348927 0.0231224)
(1.35084 -0.0586601 0.012204)
(1.27923 -0.0547252 0.00830933)
(1.23429 -0.0846385 0.00278467)
(1.20173 -0.0814213 0.00289676)
(1.17963 -0.118486 -0.000618168)
(1.17289 -0.114426 0.000993334)
(1.16476 -0.159596 -0.00158912)
(1.18274 -0.151746 -0.000141279)
(1.18683 -0.199043 -0.00094342)
(1.22467 -0.183852 -0.000848847)
(1.24636 -0.225943 0.00150074)
(1.29785 -0.194135 -0.00185694)
(1.33717 -0.205125 0.00294892)
(2.75869 0.0033938 0.0877426)
(2.52493 -0.0151116 0.0969193)
(2.23372 -0.00655479 0.0816449)
(1.97716 -0.0266495 0.0650457)
(1.72869 -0.0163472 0.0527201)
(1.57443 -0.043084 0.0332117)
(1.42722 -0.0292871 0.0237443)
(1.3474 -0.065303 0.0112291)
(1.26675 -0.0488589 0.00888536)
(1.22428 -0.0951953 0.00143007)
(1.18875 -0.0770566 0.00338613)
(1.1628 -0.135798 -0.00261854)
(1.16141 -0.113139 0.00161338)
(1.14043 -0.189578 -0.00395321)
(1.177 -0.156728 -8.86158e-05)
(1.15916 -0.247842 -0.00319518)
(1.22925 -0.198769 -0.00211072)
(1.22852 -0.301175 0.00219943)
(1.32224 -0.222488 -0.00592199)
(1.34949 -0.293568 0.00999827)
(2.75495 0.00265421 0.088053)
(2.52829 -0.0155054 0.0958867)
(2.22954 -0.00204472 0.0823838)
(1.98095 -0.0272779 0.0647555)
(1.7201 -0.00988133 0.0533582)
(1.57602 -0.0454569 0.0325874)
(1.41496 -0.0203685 0.0243337)
(1.34419 -0.0703933 0.0104285)
(1.25178 -0.037515 0.00937084)
(1.2135 -0.104704 0.000210818)
(1.17295 -0.064673 0.00391728)
(1.14195 -0.153144 -0.00470248)
(1.14668 -0.100942 0.00246932)
(1.1066 -0.22292 -0.00710522)
(1.16892 -0.147144 0.000186338)
(1.11421 -0.309271 -0.00675285)
(1.23414 -0.192638 -0.00355126)
(1.18477 -0.410314 0.00280145)
(1.34986 -0.225456 -0.0130551)
(1.32995 -0.449756 0.0269779)
(2.75351 -4.17075e-06 0.0879369)
(2.53231 -0.0143706 0.0958336)
(2.22858 0.00245848 0.0828168)
(1.98214 -0.0256737 0.0649166)
(1.71357 -0.00350187 0.0539717)
(1.5747 -0.0454923 0.0327852)
(1.40229 -0.0110864 0.0252154)
(1.33804 -0.072756 0.010526)
(1.23245 -0.0242326 0.0103757)
(1.2003 -0.111548 0.000135724)
(1.14758 -0.0478773 0.00538178)
(1.11809 -0.16844 -0.00531257)
(1.11631 -0.0823263 0.00473544)
(1.06768 -0.256909 -0.00848704)
(1.14125 -0.126773 0.00261179)
(1.05933 -0.385466 -0.00940661)
(1.22475 -0.163297 -0.00332428)
(1.12719 -0.57206 0.00301697)
(1.37804 -0.177558 -0.0239307)
(1.27444 -0.739175 0.0560334)
(2.75748 -0.00366408 0.087012)
(2.53517 -0.0126453 0.0971661)
(2.23422 0.00535442 0.0830825)
(1.97653 -0.0233336 0.0657993)
(1.71199 0.000733263 0.0543329)
(1.56586 -0.0443679 0.0341139)
(1.39287 -0.00475527 0.0257336)
(1.32559 -0.073492 0.0122783)
(1.21074 -0.0141853 0.011158)
(1.18457 -0.116315 0.00244171)
(1.10976 -0.0334661 0.00677219)
(1.09776 -0.181878 -0.0022855)
(1.05946 -0.0656241 0.00756054)
(1.04124 -0.290675 -0.0056693)
(1.06927 -0.105273 0.00864034)
(1.02616 -0.476959 -0.00879237)
(1.16936 -0.112932 0.00417046)
(1.11269 -0.805371 -0.00129334)
(1.39724 -0.0467658 -0.0427277)
(1.26803 -1.24881 0.0698864)
(2.76666 -0.00549142 0.0854279)
(2.53714 -0.00873261 0.0979416)
(2.24655 0.00423106 0.0834625)
(1.96632 -0.0195533 0.0670625)
(1.71474 0.00093406 0.0540859)
(1.55512 -0.0410501 0.0349948)
(1.3863 -0.0048229 0.0255547)
(1.3171 -0.068275 0.0130302)
(1.18595 -0.0152636 0.0116575)
(1.18066 -0.108902 0.0030286)
(1.05664 -0.03643 0.00786101)
(1.09948 -0.172612 -0.00178618)
(0.965579 -0.0781381 0.00955268)
(1.04891 -0.282761 -0.00572151)
(0.917819 -0.134809 0.0164685)
(1.0365 -0.502655 -0.012553)
(0.94709 -0.129816 0.0412141)
(1.14623 -1.00728 -0.0200501)
(1.16878 0.188049 0.0456373)
(1.36566 -1.95689 0.00635552)
(2.7807 -0.00949287 0.0844351)
(2.52869 0.0034398 0.0986073)
(2.26632 -0.00252451 0.0839957)
(1.94137 -0.00539364 0.0682531)
(1.73511 -0.0102751 0.0526274)
(1.52331 -0.0183307 0.0349621)
(1.41029 -0.0193251 0.0244856)
(1.27728 -0.0353316 0.0131029)
(1.20802 -0.0378263 0.0108611)
(1.12856 -0.0628858 0.00298604)
(1.07052 -0.0706605 0.00756365)
(1.02506 -0.109637 -0.00094045)
(0.963774 -0.137026 0.00951061)
(0.935543 -0.200331 -0.00103836)
(0.883611 -0.260006 0.0168053)
(0.868098 -0.403998 0.00622393)
(0.845763 -0.475108 0.047975)
(0.926558 -0.999357 0.0480555)
(0.77417 -0.154877 0.165836)
(1.38543 -3.08395 -0.105154)
(2.80216 -0.00783643 0.0828876)
(2.51068 0.00687874 0.101237)
(2.30057 -0.00162715 0.0821332)
(1.89242 -0.000912375 0.0725154)
(1.79603 -0.0104022 0.0483588)
(1.44782 -0.00720051 0.0399538)
(1.50296 -0.017915 0.0192771)
(1.16335 -0.0196323 0.0200723)
(1.33881 -0.0365481 0.00372048)
(0.97227 -0.0409023 0.0129424)
(1.24226 -0.0717699 -0.00260705)
(0.817895 -0.0815265 0.0136362)
(1.17188 -0.145276 -0.0053772)
(0.666329 -0.172147 0.020531)
(1.09865 -0.309907 -0.00532095)
(0.508871 -0.394836 0.0378801)
(0.994711 -0.761098 0.018507)
(0.374062 -0.988409 0.114179)
(0.699247 -1.79478 -0.0925447)
(1.39024 -3.69336 -0.391662)
(2.96172 0.0235592 0.122999)
(3.0338 0.0404574 0.150087)
(3.02929 0.0437184 0.131797)
(2.96072 0.0443517 0.119814)
(2.86764 0.0435978 0.103411)
(2.77006 0.0420006 0.0815074)
(2.67527 0.0395368 0.0608434)
(2.58495 0.0364678 0.0448251)
(2.49933 0.0337682 0.0329825)
(2.41964 0.0318164 0.0244308)
(2.34652 0.0302618 0.0184545)
(2.2811 0.028338 0.0140504)
(2.22294 0.0256837 0.0108857)
(2.17202 0.0228713 0.00872771)
(2.12706 0.0211539 0.00690211)
(2.08783 0.0208954 0.00481718)
(2.05353 0.0214099 0.00260132)
(2.0243 0.020988 0.00104856)
(1.99964 0.0187912 0.000781218)
(1.97988 0.0148514 0.00170499)
(2.99979 0.0285331 0.123337)
(3.10475 0.0501797 0.152854)
(3.15925 0.0554013 0.134254)
(3.16088 0.0569759 0.121672)
(3.13383 0.0564936 0.108054)
(3.09543 0.0549506 0.0893476)
(3.05396 0.0525984 0.0703953)
(3.01261 0.0491579 0.0549576)
(2.97151 0.045259 0.0429412)
(2.93234 0.0415728 0.0336169)
(2.89551 0.038808 0.026702)
(2.86369 0.0365576 0.0214518)
(2.83658 0.0337922 0.0173696)
(2.81415 0.0292879 0.0143956)
(2.79427 0.0244703 0.0122438)
(2.77775 0.0212765 0.0100283)
(2.76476 0.021444 0.00748656)
(2.75722 0.0235548 0.00510348)
(2.75373 0.0248765 0.00375622)
(2.75429 0.0234615 0.00355447)
(2.99985 0.00984114 0.123191)
(3.09789 0.0220016 0.152984)
(3.15043 0.0283232 0.133998)
(3.15505 0.0312731 0.120366)
(3.13307 0.0323022 0.10667)
(3.10071 0.0324313 0.0882189)
(3.06616 0.0316572 0.0694522)
(3.03232 0.0293559 0.0541651)
(2.99915 0.0261862 0.0422129)
(2.96829 0.0228596 0.03305)
(2.93958 0.0200903 0.0265161)
(2.91533 0.0172101 0.0215912)
(2.89558 0.0139383 0.0174792)
(2.88097 0.00932512 0.0140647)
(2.86914 0.004846 0.0115867)
(2.86048 0.00152791 0.0096306)
(2.85448 0.00112689 0.00790254)
(2.85366 0.00229614 0.00617381)
(2.8571 0.00315386 0.00476663)
(2.86505 0.00176 0.00355901)
(2.9998 0.00723192 0.123243)
(3.09303 0.0177859 0.153566)
(3.14075 0.0240372 0.134784)
(3.14223 0.0269067 0.120902)
(3.11835 0.0276265 0.107045)
(3.08493 0.0269539 0.0884508)
(3.04993 0.025337 0.069547)
(3.01622 0.0223758 0.0541217)
(2.98361 0.018618 0.0420114)
(2.95389 0.0143123 0.032687)
(2.92665 0.0102995 0.0260849)
(2.90408 0.00587947 0.02117)
(2.88586 0.0015746 0.017107)
(2.87292 -0.00355919 0.0136707)
(2.86306 -0.0081644 0.0111958)
(2.85697 -0.0122547 0.00926758)
(2.8538 -0.0142459 0.00760782)
(2.85568 -0.0153819 0.00586606)
(2.86128 -0.0156527 0.00439084)
(2.87079 -0.0167853 0.00308436)
(2.99975 0.0037433 0.123268)
(3.09044 0.00938613 0.153844)
(3.13534 0.0128621 0.135155)
(3.13472 0.0142155 0.121109)
(3.10931 0.0141232 0.107096)
(3.075 0.0127364 0.088305)
(3.03915 0.0105999 0.0693212)
(3.00495 0.00715953 0.0538185)
(2.97206 0.00297806 0.0416276)
(2.94263 -0.0020889 0.0321768)
(2.9157 -0.00687834 0.0255185)
(2.89373 -0.0123533 0.0205679)
(2.87587 -0.0173944 0.0165172)
(2.8638 -0.0233811 0.0130419)
(2.85513 -0.0285357 0.0105623)
(2.85093 -0.0335133 0.00863317)
(2.84939 -0.036204 0.00703527)
(2.85262 -0.0383041 0.00536523)
(2.85887 -0.038568 0.00399145)
(2.86899 -0.0392688 0.00269473)
(2.99976 0.00201615 0.123296)
(3.08925 0.00515086 0.154029)
(3.13263 0.00704922 0.13544)
(3.13046 0.0073714 0.121479)
(3.10351 0.00661357 0.107475)
(3.06794 0.0044057 0.0886423)
(3.03083 0.00162129 0.0696265)
(2.99566 -0.0025887 0.054113)
(2.96171 -0.0074252 0.0419623)
(2.93174 -0.0134766 0.0325144)
(2.90412 -0.0192003 0.0258656)
(2.8821 -0.0260704 0.0208494)
(2.86404 -0.032143 0.016802)
(2.85247 -0.0394913 0.0132844)
(2.8444 -0.045548 0.0107993)
(2.84158 -0.0518403 0.00882775)
(2.84127 -0.0554072 0.00724037)
(2.84615 -0.0587906 0.00551297)
(2.85367 -0.0591944 0.00411991)
(2.86546 -0.0597198 0.00272519)
(2.99976 0.000755373 0.123332)
(3.08842 0.00150556 0.154164)
(3.13056 0.00140452 0.135646)
(3.12725 0.000131291 0.121753)
(3.09876 -0.001821 0.107806)
(3.06224 -0.00539486 0.0887968)
(3.02392 -0.00912225 0.0697503)
(2.98808 -0.0146022 0.0541208)
(2.95324 -0.0204241 0.0419273)
(2.92297 -0.0277708 0.0324344)
(2.89467 -0.0345196 0.0257952)
(2.87284 -0.0430214 0.0207218)
(2.85457 -0.0501246 0.0167177)
(2.8437 -0.0592514 0.0131683)
(2.83618 -0.0664495 0.0107046)
(2.83493 -0.0743647 0.00869183)
(2.83588 -0.0787046 0.00712682)
(2.8429 -0.0833737 0.00534374)
(2.85217 -0.0836216 0.00399958)
(2.86637 -0.0840307 0.00257834)
(2.99979 -2.02968e-05 0.123392)
(3.08763 -0.00131597 0.154249)
(3.1291 -0.00310535 0.135744)
(3.125 -0.00566606 0.121953)
(3.09523 -0.00852661 0.108056)
(3.05786 -0.0133641 0.0889867)
(3.01803 -0.0177055 0.070008)
(2.98147 -0.0246247 0.0542557)
(2.94531 -0.0312797 0.0420909)
(2.91453 -0.0401811 0.0325662)
(2.88506 -0.0480334 0.0259585)
(2.86328 -0.0586204 0.0208178)
(2.8444 -0.0668401 0.0168689)
(2.83419 -0.0784245 0.0132616)
(2.827 -0.087019 0.010832)
(2.82739 -0.0971729 0.008798)
(2.82955 -0.102486 0.00727741)
(2.83919 -0.109068 0.00541727)
(2.85069 -0.109266 0.00412896)
(2.86825 -0.110003 0.00261433)
(2.99977 -0.000240406 0.123511)
(3.08661 -0.0036916 0.154261)
(3.12779 -0.00682254 0.135794)
(3.12306 -0.0106738 0.122127)
(3.09209 -0.0143993 0.1083)
(3.0539 -0.0208014 0.08915)
(3.01243 -0.0255414 0.0702529)
(2.97527 -0.0344323 0.0543284)
(2.93743 -0.0416306 0.0422383)
(2.90617 -0.0526374 0.032627)
(2.87517 -0.0614681 0.0260504)
(2.85351 -0.0748353 0.0208167)
(2.83371 -0.0840242 0.0169302)
(2.82422 -0.0990403 0.0132524)
(2.81726 -0.10918 0.0108594)
(2.81963 -0.122417 0.00881517)
(2.823 -0.129006 0.00734605)
(2.83605 -0.138428 0.005397)
(2.85041 -0.138691 0.00417357)
(2.87245 -0.140367 0.00255462)
(2.9995 0.000416271 0.123807)
(3.08516 -0.00617396 0.154084)
(3.12645 -0.00968844 0.135811)
(3.12121 -0.0151388 0.122248)
(3.08921 -0.0191705 0.108524)
(3.05006 -0.0275794 0.0892528)
(3.00699 -0.0319418 0.0704723)
(2.96913 -0.0436308 0.0543406)
(2.92933 -0.0504605 0.0424279)
(2.89744 -0.0645911 0.0326554)
(2.86448 -0.0736393 0.0261314)
(2.84285 -0.091078 0.0207954)
(2.82173 -0.100465 0.016994)
(2.81269 -0.120571 0.0132777)
(2.80595 -0.131954 0.010867)
(2.81024 -0.149728 0.00892766)
(2.81493 -0.157637 0.00744225)
(2.832 -0.171628 0.00546607)
(2.85004 -0.17201 0.00428545)
(2.87786 -0.175484 0.00254894)
(2.99837 0.00249528 0.124495)
(3.08354 -0.00956828 0.153416)
(3.12469 -0.0109771 0.13593)
(3.11957 -0.0196274 0.1222)
(3.08634 -0.0221756 0.108828)
(3.04607 -0.0341051 0.0891901)
(3.00176 -0.0361582 0.070677)
(2.96255 -0.0525825 0.0542305)
(2.92108 -0.0568188 0.0426982)
(2.88758 -0.0765413 0.0326165)
(2.85291 -0.0834559 0.0261634)
(2.83042 -0.107999 0.0206525)
(2.8084 -0.114968 0.0169435)
(2.79841 -0.143902 0.0133175)
(2.79295 -0.154664 0.0106415)
(2.79811 -0.180061 0.00915878)
(2.80474 -0.188624 0.00737602)
(2.82632 -0.210236 0.00570307)
(2.84914 -0.210614 0.00430871)
(2.88436 -0.217265 0.00271038)
(2.99523 0.00663724 0.125772)
(3.08293 -0.0151827 0.151785)
(3.12152 -0.00921552 0.136444)
(3.11917 -0.0256507 0.121667)
(3.08263 -0.0218009 0.109501)
(3.04238 -0.041718 0.0885559)
(2.99686 -0.0364177 0.0709984)
(2.95508 -0.0625821 0.0537106)
(2.91354 -0.0587274 0.0430783)
(2.87556 -0.0897981 0.0323063)
(2.84165 -0.0884905 0.0261193)
(2.81472 -0.127229 0.0201626)
(2.79518 -0.124421 0.0165817)
(2.77923 -0.170876 0.0132721)
(2.77989 -0.174585 0.00973271)
(2.78086 -0.215252 0.00969457)
(2.79334 -0.220065 0.00646223)
(2.81709 -0.257191 0.00650469)
(2.84837 -0.254558 0.00379456)
(2.89116 -0.267932 0.00352308)
(2.98875 0.0131544 0.127722)
(3.08546 -0.0241745 0.148873)
(3.1155 -0.00252258 0.137716)
(3.122 -0.0351386 0.120142)
(3.07666 -0.0154018 0.11085)
(3.04074 -0.0526928 0.086829)
(2.99167 -0.0296403 0.0717901)
(2.9471 -0.0762016 0.0522873)
(2.90778 -0.0527643 0.0437768)
(2.86011 -0.106961 0.0311795)
(2.83329 -0.0845904 0.0261769)
(2.79301 -0.15209 0.0188302)
(2.78559 -0.123391 0.0160367)
(2.75022 -0.205922 0.0127406)
(2.77145 -0.185398 0.0076297)
(2.75164 -0.260004 0.0108656)
(2.7844 -0.246528 0.00335114)
(2.79873 -0.318513 0.00895464)
(2.84877 -0.301764 0.00124825)
(2.89584 -0.332429 0.00691104)
(2.97896 0.0214121 0.129972)
(3.09237 -0.0366333 0.145053)
(3.10644 0.00975811 0.139878)
(3.12912 -0.0486626 0.117702)
(3.06751 -0.0012853 0.112855)
(3.04292 -0.068321 0.0839348)
(2.98484 -0.0130548 0.0734326)
(2.93965 -0.095732 0.0495668)
(2.90381 -0.0353596 0.0452031)
(2.84006 -0.130855 0.0286356)
(2.83058 -0.0672193 0.0268047)
(2.76056 -0.186725 0.0161616)
(2.78473 -0.105038 0.0157655)
(2.70251 -0.255944 0.0112285)
(2.77432 -0.177942 0.00456992)
(2.69601 -0.323081 0.0128696)
(2.78573 -0.257661 -0.00320481)
(2.75257 -0.40536 0.0154951)
(2.85309 -0.343613 -0.0061593)
(2.88324 -0.421986 0.0182235)
(2.96899 0.0301816 0.131601)
(3.10169 -0.0511154 0.141715)
(3.0976 0.026062 0.142286)
(3.13805 -0.0646497 0.115399)
(3.05739 0.0195207 0.115326)
(3.04656 -0.0881016 0.0814568)
(2.97634 0.0139007 0.0757142)
(2.93125 -0.121829 0.0468115)
(2.90033 -0.00395537 0.0471933)
(2.81351 -0.163561 0.0256215)
(2.83288 -0.0317813 0.0280075)
(2.71343 -0.233884 0.0128141)
(2.79153 -0.0636295 0.0166392)
(2.63023 -0.324723 0.00814837)
(2.78797 -0.142247 0.0021208)
(2.59917 -0.414753 0.0151242)
(2.80221 -0.240239 -0.0130728)
(2.65395 -0.529147 0.027842)
(2.85795 -0.368186 -0.0200101)
(2.82672 -0.551885 0.0454948)
(2.9654 0.0368888 0.131686)
(3.10716 -0.0649976 0.140691)
(3.09514 0.0430735 0.144178)
(3.1425 -0.079433 0.114605)
(3.04965 0.0425029 0.117964)
(3.04818 -0.107613 0.080801)
(2.96399 0.0458077 0.0792257)
(2.92374 -0.150049 0.0455427)
(2.88622 0.0366993 0.051373)
(2.78861 -0.201283 0.0233533)
(2.82121 0.0167451 0.0326567)
(2.66468 -0.287836 0.00944143)
(2.78182 -0.00581988 0.0225828)
(2.5499 -0.407788 0.00333257)
(2.7893 -0.0782058 0.00580591)
(2.47078 -0.542767 0.013711)
(2.8284 -0.190096 -0.0207478)
(2.49531 -0.704311 0.041993)
(2.88147 -0.372863 -0.0434957)
(2.70698 -0.740941 0.0927846)
(2.97897 0.0413858 0.128639)
(3.10168 -0.0766846 0.143211)
(3.10592 0.0563034 0.145371)
(3.13622 -0.0896278 0.116484)
(3.04741 0.0610687 0.120063)
(3.04326 -0.121953 0.0836894)
(2.94696 0.0747837 0.0823667)
(2.92084 -0.173676 0.0480707)
(2.85089 0.0789823 0.0563498)
(2.78316 -0.237679 0.0242265)
(2.77272 0.0735817 0.0400767)
(2.64862 -0.341693 0.00777406)
(2.72181 0.0654647 0.0339329)
(2.5177 -0.495476 -0.00441798)
(2.73597 0.0193614 0.0204702)
(2.38972 -0.705905 -0.000132876)
(2.82965 -0.0844168 -0.016822)
(2.35815 -0.946063 0.0340726)
(2.95 -0.330325 -0.0834677)
(2.56146 -1.00439 0.134239)
(3.01179 0.0400424 0.123318)
(3.0865 -0.072719 0.145772)
(3.12973 0.0576563 0.145998)
(3.12448 -0.0857299 0.118507)
(3.04607 0.0669393 0.121059)
(3.0423 -0.118096 0.0849909)
(2.91768 0.0832328 0.0851936)
(2.93971 -0.167574 0.0470988)
(2.77762 0.0948242 0.0632222)
(2.82683 -0.234379 0.0191601)
(2.64521 0.10052 0.0540173)
(2.71326 -0.337616 -0.00492128)
(2.53104 0.100806 0.0596788)
(2.59412 -0.508575 -0.0311411)
(2.48202 0.0962469 0.0710776)
(2.44597 -0.79909 -0.0533922)
(2.55191 0.0446604 0.0803104)
(2.31839 -1.16763 -0.0471889)
(2.82778 -0.306444 0.00699396)
(2.29121 -1.23272 0.100916)
(3.07518 0.0210858 0.119513)
(3.02789 -0.0381862 0.148816)
(3.19841 0.0334152 0.143429)
(3.05212 -0.0479834 0.12278)
(3.10997 0.0372971 0.117541)
(2.96502 -0.0708182 0.0855293)
(2.9783 0.0467417 0.0824412)
(2.85799 -0.103727 0.0477699)
(2.82278 0.0498853 0.0615416)
(2.74077 -0.154499 0.0196596)
(2.6546 0.0475331 0.0562115)
(2.61318 -0.237188 -0.0030704)
(2.48049 0.036878 0.0665606)
(2.46967 -0.399622 -0.0240707)
(2.30371 0.0366015 0.0983458)
(2.31851 -0.746392 -0.0447662)
(2.14212 0.0710451 0.193125)
(2.1973 -1.48612 -0.0633174)
(2.27934 0.177455 0.400737)
(2.02422 -2.15196 -0.0451332)
(3.16249 0.0180609 0.11147)
(2.92174 -0.0223492 0.161126)
(3.3431 0.026101 0.131138)
(2.87756 -0.0304311 0.141239)
(3.3256 0.0264682 0.100453)
(2.72493 -0.0467551 0.106495)
(3.27592 0.0337598 0.0594198)
(2.54381 -0.0655578 0.0772564)
(3.20987 0.0275306 0.02862)
(2.35123 -0.0907903 0.0624416)
(3.13701 0.00713263 0.00838969)
(2.14844 -0.133684 0.0614471)
(3.05629 -0.0402345 -0.00708806)
(1.94425 -0.219588 0.0760725)
(2.93935 -0.146408 -0.0146618)
(1.76671 -0.419739 0.110783)
(2.75754 -0.376799 0.0204306)
(1.77622 -1.03726 0.154202)
(2.73759 -0.554456 0.338965)
(2.55517 -3.363 -0.554012)
(2.96356 0.023352 0.0636706)
(3.05914 0.0399754 0.094406)
(3.12897 0.0439344 0.0882527)
(3.15896 0.0448402 0.0863049)
(3.16387 0.0448887 0.0813047)
(3.15441 0.0445516 0.069648)
(3.13415 0.0438443 0.0563025)
(3.10456 0.0423133 0.0455532)
(3.06699 0.0399614 0.0377479)
(3.0249 0.0375692 0.0318823)
(2.98022 0.0362363 0.0269992)
(2.93483 0.0358413 0.0223652)
(2.88901 0.034806 0.0185418)
(2.845 0.0318126 0.0161698)
(2.80373 0.0280828 0.0144442)
(2.76594 0.0257566 0.0119848)
(2.73004 0.0263569 0.00827752)
(2.69452 0.028667 0.00420757)
(2.65861 0.0301282 0.00138072)
(2.6245 0.0289947 0.000449399)
(3.00136 0.0282907 0.063329)
(3.1311 0.0496744 0.0949928)
(3.25868 0.0556643 0.0908792)
(3.35703 0.0576542 0.0869476)
(3.42973 0.0582839 0.0832467)
(3.48484 0.0580249 0.0745265)
(3.52646 0.0574808 0.0630242)
(3.5578 0.056296 0.0527606)
(3.57922 0.0541769 0.0447901)
(3.59379 0.0510001 0.0388807)
(3.60217 0.0480838 0.0344159)
(3.60782 0.0461263 0.0301193)
(3.61138 0.0453439 0.0257936)
(3.61489 0.0434958 0.0225273)
(3.61707 0.0398461 0.0207611)
(3.6188 0.0348685 0.019231)
(3.61967 0.0312004 0.0166444)
(3.62181 0.0310872 0.0129025)
(3.62428 0.0337545 0.00934739)
(3.62896 0.0372394 0.00669428)
(3.00139 0.00976891 0.0630598)
(3.12448 0.0220479 0.0950329)
(3.25018 0.0286799 0.0907742)
(3.35092 0.0319421 0.0858702)
(3.42812 0.0335199 0.0819456)
(3.48852 0.0342328 0.0733558)
(3.53625 0.0346845 0.0619905)
(3.57468 0.0341302 0.0518284)
(3.60418 0.0325849 0.043661)
(3.62769 0.0298572 0.0375362)
(3.64543 0.0274166 0.0334078)
(3.66029 0.0251273 0.0298969)
(3.67318 0.0237274 0.026124)
(3.68653 0.0212708 0.0225195)
(3.69922 0.0178486 0.0199143)
(3.71171 0.0133113 0.0179063)
(3.72288 0.0101216 0.0160172)
(3.7347 0.00949209 0.0137611)
(3.74747 0.0113083 0.0114946)
(3.76247 0.0134613 0.00912515)
(3.00133 0.00720495 0.0629959)
(3.11979 0.0179208 0.0954122)
(3.24119 0.0243831 0.0912669)
(3.3393 0.0275223 0.0861865)
(3.41507 0.0288087 0.0821562)
(3.47462 0.0287597 0.0734714)
(3.52177 0.0282546 0.0619653)
(3.55996 0.0266639 0.0516965)
(3.5895 0.0244604 0.0433983)
(3.61346 0.0209392 0.0370991)
(3.63199 0.0176533 0.032849)
(3.64799 0.013799 0.0292801)
(3.66213 0.0108678 0.0255131)
(3.67678 0.00717467 0.02189)
(3.69092 0.00360052 0.0192513)
(3.70534 -0.000993228 0.0172011)
(3.719 -0.00443146 0.0153009)
(3.73361 -0.0071191 0.0130432)
(3.74914 -0.00743771 0.0107802)
(3.76665 -0.007576 0.00848675)
(3.00128 0.00373561 0.0629658)
(3.11728 0.00946662 0.095646)
(3.23612 0.0130799 0.0915427)
(3.33245 0.0145686 0.0863642)
(3.40692 0.0148902 0.0822482)
(3.46572 0.0139007 0.0734167)
(3.51206 0.0126468 0.0618277)
(3.5496 0.0101928 0.0514834)
(3.57841 0.00739313 0.0431409)
(3.60221 0.00296688 0.036715)
(3.62064 -0.000981991 0.0324062)
(3.6369 -0.00602969 0.0287721)
(3.65108 -0.00983306 0.0250101)
(3.66589 -0.0147188 0.0212775)
(3.6803 -0.0188934 0.0185858)
(3.69575 -0.0244283 0.0165164)
(3.7109 -0.0282746 0.0146728)
(3.72728 -0.032089 0.0124642)
(3.74403 -0.0329334 0.0102857)
(3.76234 -0.0338192 0.00799344)
(3.00127 0.00202246 0.0629715)
(3.11616 0.00519653 0.0958073)
(3.2336 0.00723232 0.0917736)
(3.3287 0.00761405 0.0866737)
(3.40195 0.00726859 0.0826153)
(3.45981 0.0053185 0.0737654)
(3.50509 0.00335356 0.0621649)
(3.54184 -8.11439e-05 0.0518097)
(3.56959 -0.00356349 0.043516)
(3.59282 -0.00912798 0.0371177)
(3.61046 -0.0138236 0.0328153)
(3.62644 -0.0203961 0.0291019)
(3.64023 -0.025195 0.0253298)
(3.65503 -0.031628 0.02158)
(3.66941 -0.0366487 0.0188969)
(3.68559 -0.0436609 0.0167659)
(3.70162 -0.0481909 0.0149148)
(3.71934 -0.0535951 0.0126284)
(3.73715 -0.0551452 0.010423)
(3.75676 -0.0570405 0.00802012)
(3.00127 0.000768424 0.0629894)
(3.11539 0.001529 0.0959284)
(3.23165 0.00160188 0.0919433)
(3.32587 0.000287064 0.0869127)
(3.39787 -0.00116771 0.0829341)
(3.45497 -0.00465435 0.0739582)
(3.49924 -0.0075408 0.062351)
(3.53539 -0.0123878 0.0519015)
(3.56212 -0.0168367 0.0436001)
(3.58503 -0.0240067 0.0371662)
(3.60183 -0.0295131 0.0328708)
(3.61769 -0.0379823 0.0290682)
(3.63111 -0.0436743 0.025323)
(3.64613 -0.0519624 0.0215445)
(3.66052 -0.0580591 0.0188856)
(3.67769 -0.0671326 0.0167051)
(3.69464 -0.0724165 0.0148699)
(3.7139 -0.0795852 0.0124983)
(3.73307 -0.0814775 0.0103112)
(3.7546 -0.0841879 0.00786314)
(3.00129 9.33757e-06 0.063036)
(3.11465 -0.0013031 0.0959891)
(3.23019 -0.00287498 0.0920318)
(3.32395 -0.00561187 0.0870983)
(3.39479 -0.00778182 0.0831884)
(3.45129 -0.0127984 0.0741575)
(3.49436 -0.0161436 0.0626409)