x,y,z,U_0,U_1,U_2
0,0,0,0.300012,-0.0017803,2.74599e-13
0,0.1,0,0.30001,-0.00141583,1.95458e-09
0,0.2,0,0.300007,-0.00105136,3.90889e-09
0,0.3,0,0.300005,-0.000686886,3.68333e-09
0,0.4,0,0.300002,-0.000322416,1.72891e-09
0,0.5,0,0.3,-1.838e-19,1.0775e-28
0,0.6,0,0.3,-2.2056e-19,1.293e-28
0,0.7,0,0.3,-2.5732e-19,1.5085e-28
0,0.8,0,0.3,-2.9408e-19,1.724e-28
0,0.9,0,0.3,-3.3084e-19,1.9395e-28
0,1,0,0.3,-3.5774e-19,3.62657e-28
0,1.1,0,0.3,-3.93514e-19,3.98923e-28
0,1.2,0,0.3,-4.29287e-19,4.35188e-28
0,1.3,0,0.3,-4.65061e-19,4.71454e-28
0,1.4,0,0.3,-5.00835e-19,5.0772e-28
0,1.5,0,0.3,-5.1828e-19,6.27165e-28
0,1.6,0,0.3,-5.52832e-19,6.68976e-28
0,1.7,0,0.3,-5.87384e-19,7.10786e-28
0,1.8,0,0.3,-6.21936e-19,7.52597e-28
0,1.9,0,0.3,-6.56488e-19,7.94408e-28
0,2,0,0.3,-6.55979e-19,1.09234e-27
0,2.1,0,0.3,-6.88778e-19,1.14695e-27
0,2.2,0,0.3,-7.21577e-19,1.20157e-27
0,2.3,0,0.3,-7.54376e-19,1.25619e-27
0,2.4,0,0.3,-7.87175e-19,1.3108e-27
0,2.5,0,0.3,-7.66374e-19,9.91191e-28
0,2.6,0,0.3,-7.97029e-19,1.03084e-27
0,2.7,0,0.3,-8.27684e-19,1.07049e-27
0,2.8,0,0.3,-8.58339e-19,1.11013e-27
0,2.9,0,0.3,-8.88994e-19,1.14978e-27
0,3,0,0.3,-8.40751e-19,7.26608e-28
0,3.1,0,0.3,-8.68776e-19,7.50828e-28
0,3.2,0,0.3,-8.96801e-19,7.75049e-28
0,3.3,0,0.3,-9.24826e-19,7.99269e-28
0,3.4,0,0.3,-9.52851e-19,8.23489e-28
0,3.5,0,0.3,-8.69886e-19,2.14198e-28
0,3.6,0,0.3,-8.9474e-19,2.20318e-28
0,3.7,0,0.3,-9.19593e-19,2.26438e-28
0,3.8,0,0.3,-9.44447e-19,2.32558e-28
0,3.9,0,0.3,-9.69301e-19,2.38678e-28
0,4,0,0.3,-8.46663e-19,-5.63515e-28
0,4.1,0,0.3,-8.6783e-19,-5.77603e-28
0,4.2,0,0.3,-8.88996e-19,-5.9169e-28
0,4.3,0,0.3,-9.10163e-19,-6.05778e-28
0,4.4,0,0.3,-7.56157e-19,-1.166e-27
0,4.5,0,0.3,-7.73343e-19,-1.1925e-27
0,4.6,0,0.3,-7.90528e-19,-1.219e-27
0,4.7,0,0.3,-8.07714e-19,-1.2455e-27
0,4.8,0,0.3,-8.24899e-19,-1.272e-27
0,4.9,0,0.3,-6.11796e-19,-9.18237e-28
0,5,0,0.3,-6.24281e-19,-9.36976e-28
0,5.1,0,0.3,-6.36767e-19,-9.55716e-28
0,5.2,0,0.3,-6.49252e-19,-9.74455e-28
0,5.3,0,0.3,-6.61738e-19,-9.93195e-28
0,5.4,0,0.3,-4.19536e-19,-2.64008e-29
0,5.5,0,0.3,-4.27305e-19,-2.68897e-29
0,5.6,0,0.3,-4.35074e-19,-2.73786e-29
0,5.7,0,0.3,-4.42844e-19,-2.78675e-29
0,5.8,0,0.3,-4.50613e-19,-2.83564e-29
0,5.9,0,0.3,-1.62671e-19,1.22593e-27
0,6,0,0.3,-1.65428e-19,1.24671e-27
0,6.1,0,0.3,-1.68185e-19,1.26748e-27
0,6.2,0,0.3,-1.70943e-19,1.28826e-27
0,6.3,0,0.3,-1.737e-19,1.30904e-27
0,6.4,0,0.3,1.5612e-19,3.68108e-27
0,6.5,0,0.3,1.5856e-19,3.73859e-27
0,6.6,0,0.3,1.60999e-19,3.79611e-27
0,6.7,0,0.3,1.63438e-19,3.85363e-27
0,6.8,0,0.3,1.65878e-19,3.91114e-27
0,6.9,0,0.3,5.18718e-19,5.12555e-27
0,7,0,0.3,5.26235e-19,5.19984e-27
0,7.1,0,0.3,5.33753e-19,5.27412e-27
0,7.2,0,0.3,5.41271e-19,5.3484e-27
0,7.3,0,0.3,5.48788e-19,5.42269e-27
0,7.4,0,0.3,9.13856e-19,7.85587e-27
0,7.5,0,0.3,9.26205e-19,7.96203e-27
0,7.6,0,0.3,9.38555e-19,8.06819e-27
0,7.7,0,0.3,9.50904e-19,8.17435e-27
0,7.8,0,0.3,9.63254e-19,8.28051e-27
0,7.9,0,0.3,1.33478e-18,1.16212e-26
0,8,0,0.3,1.35168e-18,1.17683e-26
0,8.1,0,0.3,1.36857e-18,1.19154e-26
0,8.2,0,0.3,1.38547e-18,1.20625e-26
0,8.3,0,0.3,1.40237e-18,1.22096e-26
0,8.4,0,0.3,1.76249e-18,1.36113e-26
0,8.5,0,0.3,1.78347e-18,1.37734e-26
0,8.6,0,0.3,1.80446e-18,1.39354e-26
0,8.7,0,0.3,1.82544e-18,1.40974e-26
0,8.8,0,0.3,2.1621e-18,1.19904e-26
0,8.9,0,0.3,2.18667e-18,1.21267e-26
0,9,0,0.3,2.21124e-18,1.22629e-26
0,9.1,0,0.3,2.23581e-18,1.23992e-26
0,9.2,0,0.3,2.26038e-18,1.25354e-26
0,9.3,0,0.3,2.58725e-18,9.34985e-27
0,9.4,0,0.3,2.61507e-18,9.45038e-27
0,9.5,0,0.3,2.64289e-18,9.55092e-27
0,9.6,0,0.3,2.67071e-18,9.65145e-27
0,9.7,0,0.3,2.69853e-18,9.75199e-27
0,9.8,0,0.3,3.00425e-18,4.96323e-27
0,9.9,0,0.3,3.0349e-18,5.01388e-27
0,10,0,0.3,3.06556e-18,5.06453e-27
0,10.1,0,0.3,3.09621e-18,5.11517e-27
0,10.2,0,0.3,3.12687e-18,5.16582e-27
0,10.3,0,0.3,3.39022e-18,1.91467e-27
0,10.4,0,0.3,3.42314e-18,1.93326e-27
0,10.5,0,0.3,3.45605e-18,1.95185e-27
0,10.6,0,0.3,3.48897e-18,1.97044e-27
0,10.7,0,0.3,3.52188e-18,1.98903e-27
0,10.8,0,0.3,3.75002e-18,2.19948e-27
0,10.9,0,0.3,3.78474e-18,2.21984e-27
0,11,0,0.3,3.81946e-18,2.24021e-27
0,11.1,0,0.3,3.85418e-18,2.26057e-27
0,11.2,0,0.3,3.88891e-18,2.28094e-27
0,11.3,0,0.3,4.06187e-18,1.70366e-27
0,11.4,0,0.3,4.09782e-18,1.71873e-27
0,11.5,0,0.3,4.13376e-18,1.73381e-27
0,11.6,0,0.3,4.16971e-18,1.74889e-27
0,11.7,0,0.3,4.20565e-18,1.76396e-27
0,11.8,0,0.3,4.37123e-18,5.30604e-28
0,11.9,0,0.3,4.40827e-18,5.351e-28
0,12,0,0.3,4.44531e-18,5.39597e-28
0,12.1,0,0.3,4.48236e-18,5.44094e-28
0,12.2,0,0.3,4.5194e-18,5.4859e-28
0,12.3,0,0.299995,0.000324643,3.04682e-09
0,12.4,0,0.299988,0.00069163,6.49104e-09
0,12.5,0,0.299982,0.00105862,6.88853e-09
0,12.6,0,0.299976,0.0014256,3.44449e-09
0,12.7,0,0.29997,0.00179259,4.51286e-13
0.1,0,0,0.300013,-0.00286135,-1.35836e-10
0.1,0.1,0,0.300017,-0.00249613,3.52747e-11
0.1,0.2,0,0.300015,-0.00213166,1.98958e-09
0.1,0.3,0,0.300012,-0.00176719,1.78565e-09
0.1,0.4,0,0.300009,-0.00143387,-3.8055e-10
0.1,0.5,0,0.300005,-0.00142807,-3.87313e-09
0.1,0.6,0,0.300024,-0.0014119,8.27708e-13
0.1,0.7,0,0.300024,-0.0014119,8.27708e-13
0.1,0.8,0,0.300024,-0.0014119,8.27708e-13
0.1,0.9,0,0.300019,-0.00140907,-1.22986e-09
0.1,1,0,0.299999,-0.00139243,-4.77543e-09
0.1,1.1,0,0.300007,-0.00137403,1.39292e-12
0.1,1.2,0,0.300007,-0.00137403,1.39292e-12
0.1,1.3,0,0.300007,-0.00137403,1.39292e-12
0.1,1.4,0,0.299999,-0.00136805,-1.15896e-09
0.1,1.5,0,0.299987,-0.0013456,-2.34706e-09
0.1,1.6,0,0.299994,-0.0013271,1.6059e-12
0.1,1.7,0,0.299994,-0.0013271,1.6059e-12
0.1,1.8,0,0.299994,-0.0013271,1.6059e-12
0.1,1.9,0,0.299983,-0.00131307,4.23363e-10
0.1,2,0,0.299979,-0.00127875,4.98977e-10
0.1,2.1,0,0.299991,-0.00125976,2.09776e-12
0.1,2.2,0,0.299991,-0.00125976,2.09776e-12
0.1,2.3,0,0.299991,-0.00125976,2.09776e-12
0.1,2.4,0,0.299972,-0.00123714,3.90837e-09
0.1,2.5,0,0.299974,-0.0011948,2.82296e-09
0.1,2.6,0,0.299985,-0.00117742,1.52281e-12
0.1,2.7,0,0.299985,-0.00117742,1.52281e-12
0.1,2.8,0,0.299985,-0.00117742,1.52281e-12
0.1,2.9,0,0.299959,-0.00114244,9.63586e-09
0.1,3,0,0.299972,-0.00109096,4.09847e-09
0.1,3.1,0,0.299983,-0.0010764,9.30268e-13
0.1,3.2,0,0.299983,-0.0010764,9.30268e-13
0.1,3.3,0,0.299983,-0.0010764,9.30268e-13
0.1,3.4,0,0.299945,-0.00102721,1.69874e-08
0.1,3.5,0,0.299976,-0.000965092,3.66411e-09
0.1,3.6,0,0.299984,-0.000954604,2.35059e-13
0.1,3.7,0,0.299984,-0.000954604,2.35059e-13
0.1,3.8,0,0.299984,-0.000954604,2.35059e-13
0.1,3.9,0,0.299931,-0.000890512,2.567e-08
0.1,4,0,0.299976,-0.000816951,1.5353e-09
0.1,4.1,0,0.299979,-0.00081298,-5.41096e-13
0.1,4.2,0,0.299979,-0.00081298,-5.41096e-13
0.1,4.3,0,0.299978,-0.000811762,5.32936e-10
0.1,4.4,0,0.299919,-0.000732633,3.25415e-08
0.1,4.5,0,0.299972,-0.000660068,-1.01783e-12
0.1,4.6,0,0.299972,-0.000660068,-1.01783e-12
0.1,4.7,0,0.299972,-0.000660068,-1.01783e-12
0.1,4.8,0,0.299963,-0.000648104,5.19365e-09
0.1,4.9,0,0.29992,-0.000556341,3.26949e-08
0.1,5,0,0.299984,-0.000479556,-7.1976e-13
0.1,5.1,0,0.299984,-0.000479556,-7.1976e-13
0.1,5.2,0,0.299984,-0.000479556,-7.1976e-13
0.1,5.3,0,0.299963,-0.000457291,1.06542e-08
0.1,5.4,0,0.299926,-0.000365619,3.06324e-08
0.1,5.5,0,0.299993,-0.000298404,-1.87781e-14
0.1,5.6,0,0.299993,-0.000298404,-1.87781e-14
0.1,5.7,0,0.299993,-0.000298404,-1.87781e-14
0.1,5.8,0,0.299957,-0.000261842,1.63931e-08
0.1,5.9,0,0.299932,-0.000162715,2.6857e-08
0.1,6,0,0.299989,-0.000105898,7.98072e-13
0.1,6.1,0,0.299989,-0.000105898,7.98072e-13
0.1,6.2,0,0.299989,-0.000105898,7.98072e-13
0.1,6.3,0,0.299943,-5.63211e-05,2.1704e-08
0.1,6.4,0,0.299942,4.58319e-05,2.17047e-08
0.1,6.5,0,0.299988,9.36932e-05,2.20914e-12
0.1,6.6,0,0.299988,9.36932e-05,2.20914e-12
0.1,6.7,0,0.299988,9.36932e-05,2.20914e-12
0.1,6.8,0,0.299932,0.000152531,2.56666e-08
0.1,6.9,0,0.299954,0.000252473,1.56679e-08
0.1,7,0,0.299988,0.000288743,2.85312e-12
0.1,7.1,0,0.299988,0.000288743,2.85312e-12
0.1,7.2,0,0.299988,0.000288743,2.85312e-12
0.1,7.3,0,0.299924,0.000356261,2.76846e-08
0.1,7.4,0,0.299961,0.000451048,9.6322e-09
0.1,7.5,0,0.299982,0.000474324,4.07748e-12
0.1,7.6,0,0.299982,0.000474324,4.07748e-12
0.1,7.7,0,0.299982,0.000474324,4.07748e-12
0.1,7.8,0,0.299919,0.000549364,2.73731e-08
0.1,7.9,0,0.299965,0.000637499,4.35379e-09
0.1,8,0,0.299974,0.000648952,5.65004e-12
0.1,8.1,0,0.299974,0.000648952,5.65004e-12
0.1,8.2,0,0.299974,0.000648952,5.65004e-12
0.1,8.3,0,0.299919,0.000727867,2.45306e-08
0.1,8.4,0,0.299973,0.000804714,4.08262e-10
0.1,8.5,0,0.299974,0.000805892,6.22372e-12
0.1,8.6,0,0.299974,0.000805892,6.22372e-12
0.1,8.7,0,0.299972,0.000810164,1.00816e-09
0.1,8.8,0,0.29993,0.000888149,1.67527e-08
0.1,8.9,0,0.299985,0.000943676,5.23336e-12
0.1,9,0,0.299985,0.000943676,5.23336e-12
0.1,9.1,0,0.299985,0.000943676,5.23336e-12
0.1,9.2,0,0.299976,0.000956485,1.9776e-09
0.1,9.3,0,0.299946,0.00102764,9.14956e-09
0.1,9.4,0,0.299994,0.00106852,3.86145e-12
0.1,9.5,0,0.299994,0.00106852,3.86145e-12
0.1,9.6,0,0.299994,0.00106852,3.86145e-12
0.1,9.7,0,0.299979,0.00108687,1.65622e-09
0.1,9.8,0,0.299959,0.00114597,3.88854e-09
0.1,9.9,0,0.299992,0.00117744,1.94522e-12
0.1,10,0,0.299992,0.00117744,1.94522e-12
0.1,10.1,0,0.299992,0.00117744,1.94522e-12
0.1,10.2,0,0.299977,0.00119705,4.26021e-10
0.1,10.3,0,0.299971,0.00124217,5.88594e-10
0.1,10.4,0,0.299992,0.00126421,7.1398e-13
0.1,10.5,0,0.299992,0.00126421,7.1398e-13
0.1,10.6,0,0.299992,0.00126421,7.1398e-13
0.1,10.7,0,0.299979,0.00128294,-1.5857e-09
0.1,10.8,0,0.299979,0.00131841,-1.34888e-09
0.1,10.9,0,0.299989,0.00133364,7.82212e-13
0.1,11,0,0.299989,0.00133364,7.82212e-13
0.1,11.1,0,0.299989,0.00133364,7.82212e-13
0.1,11.2,0,0.299981,0.00134917,-4.63992e-09
0.1,11.3,0,0.299991,0.00137305,-2.3763e-09
0.1,11.4,0,0.299998,0.00138063,5.79072e-13
0.1,11.5,0,0.299998,0.00138063,5.79072e-13
0.1,11.6,0,0.299998,0.00138063,5.79072e-13
0.1,11.7,0,0.299988,0.00139859,-8.34673e-09
0.1,11.8,0,0.299991,0.00141881,-2.34874e-09
0.1,11.9,0,0.299993,0.00142282,1.7271e-13
0.1,12,0,0.299993,0.00142282,1.7271e-13
0.1,12.1,0,0.299993,0.00142282,1.7271e-13
0.1,12.2,0,0.299992,0.00143815,-8.2959e-09
0.1,12.3,0,0.299977,0.00144733,-9.50593e-10
0.1,12.4,0,0.29997,0.00177909,3.10662e-09
0.1,12.5,0,0.299964,0.00214608,3.52764e-09
0.1,12.6,0,0.299958,0.00251307,8.36033e-11
0.1,12.7,0,0.299972,0.00288546,-3.08356e-09
0.2,0,0,0.300013,-0.0039424,-2.71946e-10
0.2,0.1,0,0.300018,-0.00357716,-1.3319e-10
0.2,0.2,0,0.300022,-0.00321196,7.02748e-11
0.2,0.3,0,0.30002,-0.00286824,-2.53072e-10
0.2,0.4,0,0.300012,-0.0028639,-4.65598e-09
0.2,0.5,0,0.300008,-0.00285827,-8.25674e-09
0.2,0.6,0,0.300029,-0.00283981,-3.83253e-09
0.2,0.7,0,0.300048,-0.00282381,1.65542e-12
0.2,0.8,0,0.300044,-0.00282149,-1.00565e-09
0.2,0.9,0,0.300016,-0.002807,-7.30663e-09
0.2,1,0,0.299996,-0.00279048,-1.10096e-08
0.2,1.1,0,0.300006,-0.00276613,-4.68835e-09
0.2,1.2,0,0.300014,-0.00274806,2.78583e-12
0.2,1.3,0,0.300007,-0.0027427,-1.03836e-09
0.2,1.4,0,0.299983,-0.00272366,-4.73487e-09
0.2,1.5,0,0.299971,-0.00270127,-5.97354e-09
0.2,1.6,0,0.299981,-0.00267216,-2.27745e-09
0.2,1.7,0,0.299987,-0.00265419,3.21181e-12
0.2,1.8,0,0.299977,-0.00264098,4.00514e-10
0.2,1.9,0,0.299951,-0.00260881,1.36731e-09
0.2,2,0,0.299948,-0.00257449,1.44292e-09
0.2,2.1,0,0.299971,-0.00253766,4.78826e-10
0.2,2.2,0,0.299982,-0.00251953,4.19551e-12
0.2,2.3,0,0.299964,-0.00249785,3.74771e-09
0.2,2.4,0,0.299929,-0.00245701,1.08007e-08
0.2,2.5,0,0.299931,-0.00241466,9.71529e-09
0.2,2.6,0,0.29996,-0.00237121,2.6617e-09
0.2,2.7,0,0.29997,-0.00235483,3.04562e-12
0.2,2.8,0,0.299945,-0.00232106,9.30517e-09
0.2,2.9,0,0.299907,-0.00226879,2.37013e-08
0.2,3,0,0.29992,-0.00221731,1.81639e-08
0.2,3.1,0,0.299956,-0.00216618,3.76716e-09
0.2,3.2,0,0.299966,-0.00215281,1.86054e-12
0.2,3.3,0,0.299929,-0.00210506,1.64888e-08
0.2,3.4,0,0.299882,-0.00204235,3.81382e-08
0.2,3.5,0,0.299912,-0.00198024,2.48149e-08
0.2,3.6,0,0.299961,-0.00191827,3.16473e-09
0.2,3.7,0,0.299968,-0.00190921,4.70118e-13
0.2,3.8,0,0.299916,-0.00184676,2.5012e-08
0.2,3.9,0,0.299857,-0.00177555,5.3534e-08
0.2,4,0,0.299902,-0.00170199,2.93993e-08
0.2,4.1,0,0.299956,-0.00162823,8.76541e-10
0.2,4.2,0,0.299958,-0.00162596,-1.08219e-12
0.2,4.3,0,0.299895,-0.00154737,3.44082e-08
0.2,4.4,0,0.299836,-0.00146824,6.64168e-08
0.2,4.5,0,0.299893,-0.00139092,3.17403e-08
0.2,4.6,0,0.299944,-0.00132014,-2.03566e-12
0.2,4.7,0,0.299937,-0.00131028,4.27593e-09
0.2,4.8,0,0.299871,-0.0012188,4.39999e-08
0.2,4.9,0,0.299828,-0.00112703,7.15011e-08
0.2,5,0,0.299906,-0.00103374,3.17775e-08
0.2,5.1,0,0.299968,-0.000959112,-1.43952e-12
0.2,5.2,0,0.299949,-0.000938934,9.65459e-09
0.2,5.3,0,0.299863,-0.000848481,5.29403e-08
0.2,5.4,0,0.299825,-0.000756809,7.29185e-08
0.2,5.5,0,0.299921,-0.000661831,2.96335e-08
0.2,5.6,0,0.299986,-0.000596808,-3.75562e-14
0.2,5.7,0,0.299952,-0.00056258,1.53467e-08
0.2,5.8,0,0.299852,-0.00046145,6.06892e-08
0.2,5.9,0,0.299828,-0.000362323,7.11532e-08
0.2,6,0,0.299923,-0.000266399,2.58115e-08
0.2,6.1,0,0.299978,-0.000211796,1.59614e-12
0.2,6.2,0,0.299934,-0.000164618,2.06547e-08
0.2,6.3,0,0.299837,-6.06664e-05,6.61614e-08
0.2,6.4,0,0.299836,4.14866e-05,6.61621e-08
0.2,6.5,0,0.299932,0.000141841,2.06568e-08
0.2,6.6,0,0.299975,0.000187386,4.41829e-12
0.2,6.7,0,0.299921,0.000243931,2.46689e-08
0.2,6.8,0,0.299827,0.000343267,6.79985e-08
0.2,6.9,0,0.299849,0.000443209,5.79997e-08
0.2,7,0,0.299945,0.000543531,1.46709e-08
0.2,7.1,0,0.299977,0.000577486,5.70625e-12
0.2,7.2,0,0.299915,0.000642802,2.67848e-08
0.2,7.3,0,0.299824,0.000738208,6.59003e-08
0.2,7.4,0,0.299861,0.000832995,4.78479e-08
0.2,7.5,0,0.299945,0.000927554,8.73364e-09
0.2,7.6,0,0.299964,0.000948648,8.15496e-12
0.2,7.7,0,0.299903,0.00102158,2.66099e-08
0.2,7.8,0,0.299827,0.00111276,5.9862e-08
0.2,7.9,0,0.299873,0.00120089,3.68426e-08
0.2,8,0,0.299941,0.00128847,3.59212e-09
0.2,8.1,0,0.299948,0.0012979,1.13001e-11
0.2,8.2,0,0.299894,0.00137488,2.39331e-08
0.2,8.3,0,0.299835,0.00145897,5.00662e-08
0.2,8.4,0,0.29989,0.00153582,2.59439e-08
0.2,8.5,0,0.299949,0.00161178,1.24474e-11
0.2,8.6,0,0.299947,0.00161423,5.84981e-10
0.2,8.7,0,0.299897,0.00169357,1.91923e-08
0.2,8.8,0,0.299856,0.00177155,3.49369e-08
0.2,8.9,0,0.299917,0.00183325,1.63286e-08
0.2,9,0,0.29997,0.00188735,1.04667e-11
0.2,9.1,0,0.299963,0.00189841,1.71387e-09
0.2,9.2,0,0.29991,0.0019741,1.33688e-08
0.2,9.3,0,0.29988,0.00204526,2.05407e-08
0.2,9.4,0,0.299941,0.00209737,8.88443e-09
0.2,9.5,0,0.299987,0.00213705,7.7229e-12
0.2,9.6,0,0.299974,0.00215391,1.52611e-09
0.2,9.7,0,0.299923,0.00221836,7.33171e-09
0.2,9.8,0,0.299903,0.00227746,9.56403e-09
0.2,9.9,0,0.299953,0.00232449,3.75647e-09
0.2,10,0,0.299985,0.00235488,3.89043e-12
0.2,10.1,0,0.29997,0.00237336,4.035e-10
0.2,10.2,0,0.299932,0.00242239,1.46369e-09
0.2,10.3,0,0.299926,0.00246751,1.62626e-09
0.2,10.4,0,0.299964,0.0025073,5.64813e-10
0.2,10.5,0,0.299985,0.00252842,1.42796e-12
0.2,10.6,0,0.299972,0.00254631,-1.51395e-09
0.2,10.7,0,0.299945,0.00258265,-4.59206e-09
0.2,10.8,0,0.299945,0.00261812,-4.35525e-09
0.2,10.9,0,0.299969,0.00265285,-1.27706e-09
0.2,11,0,0.299978,0.00266728,1.56442e-12
0.2,11.1,0,0.299971,0.00268225,-4.46936e-09
0.2,11.2,0,0.299958,0.00270687,-1.18266e-08
0.2,11.3,0,0.299968,0.00273074,-9.56295e-09
0.2,11.4,0,0.299989,0.00275421,-2.20594e-09
0.2,11.5,0,0.299996,0.00276126,1.15814e-12
0.2,11.6,0,0.299986,0.00277866,-8.08798e-09
0.2,11.7,0,0.299972,0.00280274,-1.92751e-08
0.2,11.8,0,0.299976,0.00282295,-1.32771e-08
0.2,11.9,0,0.299985,0.00284201,-2.12359e-09
0.2,12,0,0.299986,0.00284564,3.4542e-13
0.2,12.1,0,0.299985,0.00286052,-8.05328e-09
0.2,12.2,0,0.299984,0.00287835,-1.77055e-08
0.2,12.3,0,0.299969,0.00288759,-1.04743e-08
0.2,12.4,0,0.299952,0.00289558,-7.82953e-10
0.2,12.5,0,0.299945,0.00323354,1.66755e-10
0.2,12.6,0,0.299959,0.0036058,-3.00724e-09
0.2,12.7,0,0.299974,0.00397834,-6.16757e-09
0.3,0,0,0.300014,-0.00502344,-2.718e-10
0.3,0.1,0,0.300018,-0.00465821,-1.33124e-10
0.3,0.2,0,0.300023,-0.00430534,-7.86962e-11
0.3,0.3,0,0.300023,-0.00429827,-1.86698e-10
0.3,0.4,0,0.300015,-0.00429392,-4.55565e-09
0.3,0.5,0,0.30001,-0.00428847,-8.23517e-09
0.3,0.6,0,0.300032,-0.00427001,-3.83485e-09
0.3,0.7,0,0.30005,-0.00424969,-2.39484e-10
0.3,0.8,0,0.300041,-0.00421942,-9.20612e-10
0.3,0.9,0,0.300013,-0.00420493,-7.25464e-09
0.3,1,0,0.299992,-0.00418853,-1.1137e-08
0.3,1.1,0,0.300003,-0.00416418,-4.79141e-09
0.3,1.2,0,0.300007,-0.00413514,6.5006e-10
0.3,1.3,0,0.299991,-0.0040983,-1.00937e-09
0.3,1.4,0,0.299967,-0.00407927,-4.70592e-09
0.3,1.5,0,0.299954,-0.00405695,-5.99258e-09
0.3,1.6,0,0.299964,-0.00402783,-2.28846e-09
0.3,1.7,0,0.299965,-0.00398635,1.7891e-09
0.3,1.8,0,0.299946,-0.00393672,3.97279e-10
0.3,1.9,0,0.29992,-0.00390456,1.36651e-09
0.3,2,0,0.299917,-0.00387024,1.44344e-09
0.3,2.1,0,0.29994,-0.00383341,4.79341e-10
0.3,2.2,0,0.299945,-0.00377584,2.8618e-09
0.3,2.3,0,0.299921,-0.00371771,3.74804e-09
0.3,2.4,0,0.299886,-0.00367687,1.0801e-08
0.3,2.5,0,0.299888,-0.00363452,9.71562e-09
0.3,2.6,0,0.299917,-0.00359107,2.66203e-09
0.3,2.7,0,0.299921,-0.00351505,2.60143e-09
0.3,2.8,0,0.299893,-0.00344741,9.3052e-09
0.3,2.9,0,0.299854,-0.00339514,2.37013e-08
0.3,3,0,0.299867,-0.00334366,1.81639e-08
0.3,3.1,0,0.299903,-0.00329253,3.7672e-09
0.3,3.2,0,0.299905,-0.0031951,1.73126e-09
0.3,3.3,0,0.299866,-0.0031202,1.64885e-08
0.3,3.4,0,0.299818,-0.0030575,3.8138e-08
0.3,3.5,0,0.299848,-0.00299538,2.48147e-08
0.3,3.6,0,0.299897,-0.00293341,3.1645e-09
0.3,3.7,0,0.299895,-0.00281063,8.4584e-10
0.3,3.8,0,0.299842,-0.00273179,2.50116e-08
0.3,3.9,0,0.299783,-0.00266058,5.35336e-08
0.3,4,0,0.299828,-0.00258702,2.93989e-08
0.3,4.1,0,0.299882,-0.00251326,8.76101e-10
0.3,4.2,0,0.299875,-0.00236274,4.57619e-11
0.3,4.3,0,0.299812,-0.00228298,3.44077e-08
0.3,4.4,0,0.299753,-0.00220385,6.64163e-08
0.3,4.5,0,0.29981,-0.00212652,3.17398e-08
0.3,4.6,0,0.29986,-0.00204146,4.24567e-10
0.3,4.7,0,0.299845,-0.00188098,4.27564e-09
0.3,4.8,0,0.299779,-0.00178949,4.39996e-08
0.3,4.9,0,0.299736,-0.00169773,7.15008e-08
0.3,5,0,0.299814,-0.00160444,3.17772e-08
0.3,5.1,0,0.299874,-0.00149306,7.10682e-10
0.3,5.2,0,0.299849,-0.00133012,9.65472e-09
0.3,5.3,0,0.299763,-0.00123967,5.29404e-08
0.3,5.4,0,0.299725,-0.001148,7.29186e-08
0.3,5.5,0,0.29982,-0.00105302,2.96336e-08
0.3,5.6,0,0.299884,-0.000926149,6.4902e-10
0.3,5.7,0,0.299847,-0.000762188,1.53472e-08
0.3,5.8,0,0.299748,-0.000661059,6.06897e-08
0.3,5.9,0,0.299723,-0.000561931,7.11537e-08
0.3,6,0,0.299819,-0.000466007,2.5812e-08
0.3,6.1,0,0.299872,-0.000325304,7.32075e-11
0.3,6.2,0,0.299828,-0.000168963,2.06557e-08
0.3,6.3,0,0.299731,-6.50117e-05,6.61624e-08
0.3,6.4,0,0.29973,3.71413e-05,6.61631e-08
0.3,6.5,0,0.299826,0.000137496,2.06578e-08
0.3,6.6,0,0.29987,0.000292103,-9.31801e-10
0.3,6.7,0,0.299817,0.000434668,2.46703e-08
0.3,6.8,0,0.299722,0.000534004,6.79999e-08
0.3,6.9,0,0.299744,0.000633946,5.80012e-08
0.3,7,0,0.29984,0.000734267,1.46723e-08
0.3,7.1,0,0.299875,0.000897703,-1.32162e-09
0.3,7.2,0,0.299814,0.00102475,2.67865e-08
0.3,7.3,0,0.299724,0.00112016,6.5902e-08
0.3,7.4,0,0.299761,0.00121494,4.78496e-08
0.3,7.5,0,0.299845,0.0013095,8.73532e-09
0.3,7.6,0,0.29987,0.00147489,-1.16241e-09
0.3,7.7,0,0.29981,0.00158498,2.66118e-08
0.3,7.8,0,0.299734,0.00167615,5.9864e-08
0.3,7.9,0,0.29978,0.00176428,3.68446e-08
0.3,8,0,0.299848,0.00185186,3.59411e-09
0.3,8.1,0,0.299864,0.00201448,-5.88856e-10
0.3,8.2,0,0.299811,0.00210598,2.39352e-08
0.3,8.3,0,0.299752,0.00219007,5.00683e-08
0.3,8.4,0,0.299807,0.00226692,2.5946e-08
0.3,8.5,0,0.299865,0.00234408,-4.33291e-11
0.3,8.6,0,0.299873,0.00249763,5.86794e-10
0.3,8.7,0,0.299822,0.00257697,1.91941e-08
0.3,8.8,0,0.299781,0.00265496,3.49387e-08
0.3,8.9,0,0.299842,0.00271665,1.63304e-08
0.3,9,0,0.299897,0.00278766,-8.4353e-10
0.3,9.1,0,0.299897,0.00291603,1.71512e-09
0.3,9.2,0,0.299844,0.00299172,1.337e-08
0.3,9.3,0,0.299814,0.00306288,2.0542e-08
0.3,9.4,0,0.299875,0.00311499,8.88568e-09
0.3,9.5,0,0.299924,0.00318246,-1.38619e-09
0.3,9.6,0,0.299918,0.0032854,1.52672e-09
0.3,9.7,0,0.299867,0.00334986,7.33232e-09
0.3,9.8,0,0.299847,0.00340896,9.56464e-09
0.3,9.9,0,0.299897,0.00345599,3.75708e-09
0.3,10,0,0.299933,0.00352036,-1.67534e-09
0.3,10.1,0,0.299925,0.00359869,4.03605e-10
0.3,10.2,0,0.299887,0.00364772,1.46379e-09
0.3,10.3,0,0.299881,0.00369284,1.62637e-09
0.3,10.4,0,0.299919,0.00373264,5.64918e-10
0.3,10.5,0,0.299945,0.00378948,-1.94088e-09
0.3,10.6,0,0.299938,0.00384602,-1.51395e-09
0.3,10.7,0,0.299911,0.00388236,-4.59206e-09
0.3,10.8,0,0.299912,0.00391783,-4.35525e-09
0.3,10.9,0,0.299935,0.00395256,-1.27707e-09
0.3,11,0,0.299951,0.00400169,-1.67713e-09
0.3,11.1,0,0.299947,0.00403994,-4.46931e-09
0.3,11.2,0,0.299934,0.00406457,-1.18265e-08
0.3,11.3,0,0.299944,0.00408844,-9.5629e-09
0.3,11.4,0,0.299966,0.00411191,-2.2059e-09
0.3,11.5,0,0.299978,0.00415224,1.06179e-09
0.3,11.6,0,0.29997,0.00418281,-8.08799e-09
0.3,11.7,0,0.299956,0.00420688,-1.92751e-08
0.3,11.8,0,0.29996,0.0042271,-1.32695e-08
0.3,11.9,0,0.299969,0.00424616,-2.10614e-09
0.3,12,0,0.299977,0.00427956,-2.65689e-10
0.3,12.1,0,0.299977,0.00430073,-7.91318e-09
0.3,12.2,0,0.299976,0.00431856,-1.75182e-08
0.3,12.3,0,0.299961,0.00432786,-1.04022e-08
0.3,12.4,0,0.299944,0.00433585,-7.19334e-10
0.3,12.5,0,0.299947,0.00434699,-1.77505e-10
0.3,12.6,0,0.299961,0.00469868,-2.99171e-09
0.3,12.7,0,0.299976,0.00507121,-6.16756e-09
0.4,0,0,0.300014,-0.00610449,-1.35399e-10
0.4,0.1,0,0.300019,-0.00574544,-3.88469e-11
0.4,0.2,0,0.300019,-0.00573824,-2.34054e-09
0.4,0.3,0,0.300019,-0.00573104,-2.19359e-09
0.4,0.4,0,0.300018,-0.00572395,-1.72083e-10
0.4,0.5,0,0.300013,-0.00571868,-3.95908e-09
0.4,0.6,0,0.300032,-0.00569876,-1.86549e-10
0.4,0.7,0,0.300026,-0.0056658,-2.07195e-09
0.4,0.8,0,0.30002,-0.00563284,-1.5963e-09
0.4,0.9,0,0.30001,-0.00560285,-1.01938e-09
0.4,1,0,0.299989,-0.00558658,-5.05987e-09
0.4,1.1,0,0.299994,-0.00555835,5.37824e-10
0.4,1.2,0,0.299981,-0.0055148,3.18424e-09
0.4,1.3,0,0.299967,-0.00547125,1.86797e-09
0.4,1.4,0,0.299951,-0.00543487,-1.07841e-09
0.4,1.5,0,0.299938,-0.00541262,-2.41568e-09
0.4,1.6,0,0.299939,-0.00537225,1.62838e-09
0.4,1.7,0,0.299924,-0.00531068,6.31224e-09
0.4,1.8,0,0.299909,-0.00524912,2.65609e-09
0.4,1.9,0,0.299889,-0.0052003,4.23595e-10
0.4,2,0,0.299886,-0.00516599,5.00522e-10
0.4,2.1,0,0.299892,-0.00510936,2.95442e-09
0.4,2.2,0,0.29988,-0.00503169,8.80913e-09
0.4,2.3,0,0.299868,-0.00495401,2.71984e-09
0.4,2.4,0,0.299843,-0.00489674,3.90936e-09
0.4,2.5,0,0.299845,-0.00485439,2.82395e-09
0.4,2.6,0,0.29985,-0.00477958,4.40805e-09
0.4,2.7,0,0.29984,-0.00468386,9.77368e-09
0.4,2.8,0,0.29983,-0.00458813,2.43052e-09
0.4,2.9,0,0.299801,-0.00452149,9.63597e-09
0.4,3,0,0.299814,-0.00447001,4.09857e-09
0.4,3.1,0,0.299817,-0.00437403,5.18953e-09
0.4,3.2,0,0.299805,-0.00426019,8.81575e-09
0.4,3.3,0,0.299794,-0.00414636,1.56248e-09
0.4,3.4,0,0.299755,-0.00407264,1.69867e-08
0.4,3.5,0,0.299785,-0.00401053,3.66341e-09
0.4,3.6,0,0.299784,-0.0038894,5.7084e-09
0.4,3.7,0,0.299774,-0.00375621,7.55834e-09
0.4,3.8,0,0.299763,-0.00362302,6.86135e-10
0.4,3.9,0,0.299709,-0.00354561,2.56687e-08
0.4,4,0,0.299754,-0.00347205,1.53398e-09
0.4,4.1,0,0.299748,-0.00332336,5.82005e-09
0.4,4.2,0,0.299739,-0.00317041,6.05666e-09
0.4,4.3,0,0.299729,-0.00301858,5.31468e-10
0.4,4.4,0,0.29967,-0.00293946,3.25401e-08
0.4,4.5,0,0.299723,-0.0028565,3.08126e-10
0.4,4.6,0,0.299713,-0.00268769,5.35557e-09
0.4,4.7,0,0.299704,-0.00251888,4.38516e-09
0.4,4.8,0,0.299687,-0.00236018,5.1928e-09
0.4,4.9,0,0.299644,-0.00226842,3.2694e-08
0.4,5,0,0.299706,-0.00215913,6.28631e-10
0.4,5.1,0,0.299698,-0.00197538,4.19066e-09
0.4,5.2,0,0.29969,-0.00179164,2.68424e-09
0.4,5.3,0,0.299663,-0.00163086,1.06546e-08
0.4,5.4,0,0.299625,-0.00153919,3.06328e-08
0.4,5.5,0,0.299691,-0.00141465,6.018e-10
0.4,5.6,0,0.299687,-0.00121854,2.6594e-09
0.4,5.7,0,0.299682,-0.00102244,1.31471e-09
0.4,5.8,0,0.299643,-0.000860667,1.63946e-08
0.4,5.9,0,0.299619,-0.00076154,2.68586e-08
0.4,6,0,0.299675,-0.000623236,6.96321e-11
0.4,6.1,0,0.299673,-0.00042336,2.34675e-10
0.4,6.2,0,0.299672,-0.000223484,8.95865e-11
0.4,6.3,0,0.299625,-6.9357e-05,2.1707e-08
0.4,6.4,0,0.299624,3.2796e-05,2.17077e-08
0.4,6.5,0,0.29967,0.000185111,-1.13293e-09
0.4,6.6,0,0.299672,0.000384801,-3.0576e-09
0.4,6.7,0,0.299673,0.000584491,-8.8096e-10
0.4,6.8,0,0.299617,0.00072474,2.56709e-08
0.4,6.9,0,0.29964,0.000824682,1.56721e-08
0.4,7,0,0.299677,0.000985917,-2.683e-09
0.4,7.1,0,0.299682,0.00118164,-5.43781e-09
0.4,7.2,0,0.299686,0.00137737,-1.22386e-09
0.4,7.3,0,0.299623,0.0015021,2.76896e-08
0.4,7.4,0,0.299661,0.00159689,9.63725e-09
0.4,7.5,0,0.299687,0.00176018,-4.41001e-09
0.4,7.6,0,0.299695,0.00194591,-6.88996e-09
0.4,7.7,0,0.299703,0.00213164,-1.02722e-09
0.4,7.8,0,0.299642,0.00223954,2.73791e-08
0.4,7.9,0,0.299687,0.00232767,4.35975e-09
0.4,8,0,0.299704,0.00248835,-6.17508e-09
0.4,8.1,0,0.299714,0.00266002,-7.54371e-09
0.4,8.2,0,0.299723,0.00283169,-4.26033e-10
0.4,8.3,0,0.299669,0.00292117,2.45369e-08
0.4,8.4,0,0.299723,0.00299802,4.14591e-10
0.4,8.5,0,0.299733,0.0031527,-7.39685e-09
0.4,8.6,0,0.299742,0.0033086,-7.10774e-09
0.4,8.7,0,0.299748,0.00346037,1.0136e-09
0.4,8.8,0,0.299706,0.00353836,1.67582e-08
0.4,8.9,0,0.299762,0.00360762,-6.84672e-10
0.4,9,0,0.299771,0.00374501,-7.63813e-09
0.4,9.1,0,0.29978,0.0038824,-5.76678e-09
0.4,9.2,0,0.299778,0.00400934,1.98135e-09
0.4,9.3,0,0.299748,0.0040805,9.15331e-09
0.4,9.4,0,0.299798,0.00414649,-1.25254e-09
0.4,9.5,0,0.299808,0.00426305,-7.10323e-09
0.4,9.6,0,0.299818,0.00437962,-4.17886e-09
0.4,9.7,0,0.299811,0.00448135,1.65806e-09
0.4,9.8,0,0.299791,0.00454045,3.89038e-09
0.4,9.9,0,0.299828,0.0046037,-1.5665e-09
0.4,10,0,0.299839,0.00469975,-6.31387e-09
0.4,10.1,0,0.29985,0.00479581,-2.84554e-09
0.4,10.2,0,0.299842,0.00487305,4.26335e-10
0.4,10.3,0,0.299836,0.00491818,5.88908e-10
0.4,10.4,0,0.299862,0.00497418,-1.84585e-09
0.4,10.5,0,0.299874,0.00505031,-5.98541e-09
0.4,10.6,0,0.299886,0.00512645,-2.00528e-09
0.4,10.7,0,0.299878,0.00518207,-1.5857e-09
0.4,10.8,0,0.299878,0.00521754,-1.34889e-09
0.4,10.9,0,0.299894,0.0052661,-2.40207e-09
0.4,11,0,0.299905,0.00532546,-5.8582e-09
0.4,11.1,0,0.299915,0.00538482,-1.57907e-09
0.4,11.2,0,0.299911,0.00542227,-4.63979e-09
0.4,11.3,0,0.299921,0.00544614,-2.37616e-09
0.4,11.4,0,0.299933,0.00548591,2.59333e-09
0.4,11.5,0,0.299941,0.00553345,4.80292e-09
0.4,11.6,0,0.299949,0.005581,9.72813e-10
0.4,11.7,0,0.29994,0.00561103,-8.34675e-09
0.4,11.8,0,0.299944,0.00563124,-2.34117e-09
0.4,11.9,0,0.299952,0.00566428,-1.20066e-09
0.4,12,0,0.29996,0.00570102,-1.76377e-09
0.4,12.1,0,0.299967,0.00573776,-2.5297e-10
0.4,12.2,0,0.299968,0.00575877,-7.99497e-09
0.4,12.3,0,0.299953,0.00576812,-9.92694e-10
0.4,12.4,0,0.299955,0.00577917,-2.75543e-09
0.4,12.5,0,0.299959,0.00579057,-3.17724e-09
0.4,12.6,0,0.299964,0.00580197,-8.84881e-11
0.4,12.7,0,0.299978,0.00616408,-3.08351e-09
0.5,0,0,0.300014,-0.00718554,1.0023e-12
0.5,0.1,0,0.300014,-0.00717839,-2.28432e-09
0.5,0.2,0,0.300014,-0.00717125,-4.56964e-09
0.5,0.3,0,0.300014,-0.0071641,-4.43692e-09
0.5,0.4,0,0.300014,-0.00715695,-2.13504e-09
0.5,0.5,0,0.300014,-0.0071481,-6.87653e-11
0.5,0.6,0,0.300008,-0.00711505,-1.97425e-09
0.5,0.7,0,0.300002,-0.00708201,-3.87974e-09
0.5,0.8,0,0.299995,-0.00704896,-3.46773e-09
0.5,0.9,0,0.299989,-0.00701598,-1.56646e-09
0.5,1,0,0.299982,-0.00698155,4.25588e-10
0.5,1.1,0,0.299968,-0.00693801,3.07201e-09
0.5,1.2,0,0.299955,-0.00689446,5.71842e-09
0.5,1.3,0,0.299941,-0.00685091,4.45481e-09
0.5,1.4,0,0.299927,-0.00680737,1.81863e-09
0.5,1.5,0,0.299913,-0.00675816,1.46032e-09
0.5,1.6,0,0.299898,-0.00669659,6.1458e-09
0.5,1.7,0,0.299883,-0.00663502,1.08313e-08
0.5,1.8,0,0.299868,-0.00657345,7.20851e-09
0.5,1.9,0,0.299853,-0.00651188,2.52465e-09
0.5,2,0,0.299839,-0.00644288,2.81284e-09
0.5,2.1,0,0.299827,-0.00636521,8.90174e-09
0.5,2.2,0,0.299815,-0.00628753,1.47564e-08
0.5,2.3,0,0.299803,-0.00620986,8.66717e-09
0.5,2.4,0,0.29979,-0.00613218,2.57788e-09
0.5,2.5,0,0.299779,-0.0060441,4.23774e-09
0.5,2.6,0,0.29977,-0.00594838,1.15803e-08
0.5,2.7,0,0.29976,-0.00585266,1.69459e-08
0.5,2.8,0,0.29975,-0.00575694,9.60277e-09
0.5,2.9,0,0.29974,-0.00566122,2.25961e-09
0.5,3,0,0.299729,-0.00555296,5.0213e-09
0.5,3.1,0,0.299718,-0.00543912,1.2274e-08
0.5,3.2,0,0.299706,-0.00532529,1.59003e-08
0.5,3.3,0,0.299695,-0.00521146,8.64698e-09
0.5,3.4,0,0.299684,-0.00509762,1.3937e-09
0.5,3.5,0,0.299673,-0.00496816,5.54912e-09
0.5,3.6,0,0.299663,-0.00483497,1.24209e-08
0.5,3.7,0,0.299652,-0.00470179,1.42708e-08
0.5,3.8,0,0.299642,-0.0045686,7.39864e-09
0.5,3.9,0,0.299631,-0.00443542,5.26429e-10
0.5,4,0,0.299622,-0.00428398,5.67771e-09
0.5,4.1,0,0.299612,-0.00413102,1.18309e-08
0.5,4.2,0,0.299603,-0.00397807,1.20676e-08
0.5,4.3,0,0.299594,-0.00382511,5.91422e-09
0.5,4.4,0,0.299585,-0.00367154,1.91686e-10
0.5,4.5,0,0.299576,-0.00350273,5.23913e-09
0.5,4.6,0,0.299566,-0.00333392,1.02866e-08
0.5,4.7,0,0.299557,-0.00316511,9.31617e-09
0.5,4.8,0,0.299548,-0.0029963,4.26914e-09
0.5,4.9,0,0.299538,-0.0028252,5.4658e-10
0.5,5,0,0.29953,-0.00264145,4.10861e-09
0.5,5.1,0,0.299522,-0.00245771,7.67065e-09
0.5,5.2,0,0.299514,-0.00227397,6.16422e-09
0.5,5.3,0,0.299506,-0.00209022,2.60302e-09
0.5,5.4,0,0.299499,-0.00190315,5.54579e-10
0.5,5.5,0,0.299494,-0.00170704,2.61218e-09
0.5,5.6,0,0.29949,-0.00151094,4.66978e-09
0.5,5.7,0,0.299485,-0.00131483,3.32509e-09
0.5,5.8,0,0.299481,-0.00111872,1.2683e-09
0.5,5.9,0,0.299477,-0.000921167,6.60567e-11
0.5,6,0,0.299476,-0.000721291,2.311e-10
0.5,6.1,0,0.299474,-0.000521416,3.96144e-10
0.5,6.2,0,0.299473,-0.00032154,2.51055e-10
0.5,6.3,0,0.299471,-0.000121664,8.69779e-11
0.5,6.4,0,0.299471,7.81185e-05,-1.08295e-09
0.5,6.5,0,0.299472,0.000277809,-3.25872e-09
0.5,6.6,0,0.299473,0.000477499,-5.1834e-09
0.5,6.7,0,0.299474,0.000677189,-3.00676e-09
0.5,6.8,0,0.299476,0.000876879,-8.30119e-10
0.5,6.9,0,0.299479,0.00107413,-2.5858e-09
0.5,7,0,0.299484,0.00126986,-6.79918e-09
0.5,7.1,0,0.299488,0.00146559,-9.55399e-09
0.5,7.2,0,0.299493,0.00166131,-5.34005e-09
0.5,7.3,0,0.299497,0.00185704,-1.12611e-09
0.5,7.4,0,0.299505,0.00204546,-4.27544e-09
0.5,7.5,0,0.299512,0.00223119,-1.01376e-08
0.5,7.6,0,0.29952,0.00241692,-1.26175e-08
0.5,7.7,0,0.299528,0.00260265,-6.75477e-09
0.5,7.8,0,0.299536,0.00278838,-8.9204e-10