x,y,z,p
0,0,0,0.0157687
0,0.1,0,0.0346937
0,0.2,0,0.0536187
0,0.3,0,0.0757035
0,0.4,0,0.100948
0,0.5,0,0.126193
0,0.6,0,0.151464
0,0.7,0,0.176735
0,0.8,0,0.202026
0,0.9,0,0.227336
0,1,0,0.252646
0,1.1,0,0.278006
0,1.2,0,0.303367
0,1.3,0,0.328755
0,1.4,0,0.354172
0,1.5,0,0.379588
0,1.6,0,0.40505
0,1.7,0,0.430512
0,1.8,0,0.455974
0,1.9,0,0.481435
0,2,0,0.506896
0,2.1,0,0.532267
0,2.2,0,0.557638
0,2.3,0,0.582901
0,2.4,0,0.608056
0,2.5,0,0.63321
0,2.6,0,0.658016
0,2.7,0,0.682822
0,2.8,0,0.707386
0,2.9,0,0.731709
0,3,0,0.756032
0,3.1,0,0.779706
0,3.2,0,0.803378
0,3.3,0,0.826616
0,3.4,0,0.849418
0,3.5,0,0.872221
0,3.6,0,0.893982
0,3.7,0,0.915744
0,3.8,0,0.93699
0,3.9,0,0.957719
0,4,0,0.978448
0,4.1,0,0.998345
0,4.2,0,1.01824
0,4.3,0,1.03794
0,4.4,0,1.05743
0,4.5,0,1.07692
0,4.6,0,1.09622
0,4.7,0,1.11553
0,4.8,0,1.13259
0,4.9,0,1.14741
0,5,0,1.16224
0,5.1,0,1.18693
0,5.2,0,1.20182
0,5.3,0,1.21551
0,5.4,0,1.22775
0,5.5,0,1.23832
0,5.6,0,1.2472
0,5.7,0,1.25456
0,5.8,0,1.26074
0,5.9,0,1.26602
0,6,0,1.27048
0,6.1,0,1.274
0,6.2,0,1.27634
0,6.3,0,1.27729
0,6.4,0,1.2767
0,6.5,0,1.27451
0,6.6,0,1.27074
0,6.7,0,1.26545
0,6.8,0,1.25886
0,6.9,0,1.2513
0,7,0,1.23821
0,7.1,0,1.22953
0,7.2,0,1.22086
0,7.3,0,1.21119
0,7.4,0,1.19594
0,7.5,0,1.18069
0,7.6,0,1.16386
0,7.7,0,1.14332
0,7.8,0,1.12278
0,7.9,0,1.10112
0,8,0,1.07811
0,8.1,0,1.0551
0,8.2,0,1.03233
0,8.3,0,1.00973
0,8.4,0,0.98713
0,8.5,0,0.965214
0,8.6,0,0.943526
0,8.7,0,0.921839
0,8.8,0,0.900317
0,8.9,0,0.878815
0,9,0,0.857296
0,9.1,0,0.835475
0,9.2,0,0.813654
0,9.3,0,0.791749
0,9.4,0,0.76951
0,9.5,0,0.74727
0,9.6,0,0.72487
0,9.7,0,0.702172
0,9.8,0,0.679474
0,9.9,0,0.656514
0,10,0,0.633291
0,10.1,0,0.610068
0,10.2,0,0.586544
0,10.3,0,0.562859
0,10.4,0,0.539174
0,10.5,0,0.515295
0,10.6,0,0.491369
0,10.7,0,0.467442
0,10.8,0,0.443515
0,10.9,0,0.419589
0,11,0,0.395679
0,11.1,0,0.371909
0,11.2,0,0.34814
0,11.3,0,0.324426
0,11.4,0,0.300879
0,11.5,0,0.277332
0,11.6,0,0.253875
0,11.7,0,0.230553
0,11.8,0,0.20723
0,11.9,0,0.184014
0,12,0,0.160885
0,12.1,0,0.137755
0,12.2,0,0.114726
0,12.3,0,0.0917389
0,12.4,0,0.0687521
0,12.5,0,0.050672
0,12.6,0,0.0334577
0,12.7,0,0.0162434
0.1,0,0,0.00946122
0.1,0.1,0,0.0283837
0.1,0.2,0,0.0504528
0.1,0.3,0,0.0756878
0.1,0.4,0,0.100939
0.1,0.5,0,0.126156
0.1,0.6,0,0.151447
0.1,0.7,0,0.176706
0.1,0.8,0,0.201994
0.1,0.9,0,0.227313
0.1,1,0,0.252613
0.1,1.1,0,0.277979
0.1,1.2,0,0.303346
0.1,1.3,0,0.328734
0.1,1.4,0,0.354143
0.1,1.5,0,0.379599
0.1,1.6,0,0.405034
0.1,1.7,0,0.43052
0.1,1.8,0,0.455999
0.1,1.9,0,0.481452
0.1,2,0,0.506954
0.1,2.1,0,0.532341
0.1,2.2,0,0.55773
0.1,2.3,0,0.583028
0.1,2.4,0,0.608198
0.1,2.5,0,0.633451
0.1,2.6,0,0.658223
0.1,2.7,0,0.683175
0.1,2.8,0,0.707774
0.1,2.9,0,0.731985
0.1,3,0,0.756964
0.1,3.1,0,0.78008
0.1,3.2,0,0.804352
0.1,3.3,0,0.82765
0.1,3.4,0,0.849914
0.1,3.5,0,0.874689
0.1,3.6,0,0.894527
0.1,3.7,0,0.917825
0.1,3.8,0,0.939043
0.1,3.9,0,0.958207
0.1,4,0,0.983251
0.1,4.1,0,0.99869
0.1,4.2,0,1.02114
0.1,4.3,0,1.04069
0.1,4.4,0,1.05749
0.1,4.5,0,1.08175
0.1,4.6,0,1.09635
0.1,4.7,0,1.1169
0.1,4.8,0,1.13607
0.1,4.9,0,1.15177
0.1,5,0,1.1622
0.1,5.1,0,1.18479
0.1,5.2,0,1.1985
0.1,5.3,0,1.2111
0.1,5.4,0,1.2224
0.1,5.5,0,1.2322
0.1,5.6,0,1.24045
0.1,5.7,0,1.24729
0.1,5.8,0,1.25299
0.1,5.9,0,1.25781
0.1,6,0,1.26182
0.1,6.1,0,1.26492
0.1,6.2,0,1.26688
0.1,6.3,0,1.26751
0.1,6.4,0,1.26667
0.1,6.5,0,1.2643
0.1,6.6,0,1.26038
0.1,6.7,0,1.25499
0.1,6.8,0,1.24825
0.1,6.9,0,1.24042
0.1,7,0,1.22669
0.1,7.1,0,1.23167
0.1,7.2,0,1.22085
0.1,7.3,0,1.20134
0.1,7.4,0,1.19939
0.1,7.5,0,1.17903
0.1,7.6,0,1.15732
0.1,7.7,0,1.1459
0.1,7.8,0,1.1217
0.1,7.9,0,1.0985
0.1,8,0,1.07835
0.1,8.1,0,1.05602
0.1,8.2,0,1.03257
0.1,8.3,0,1.00902
0.1,8.4,0,0.991131
0.1,8.5,0,0.966816
0.1,8.6,0,0.943455
0.1,8.7,0,0.9283
0.1,8.8,0,0.901912
0.1,8.9,0,0.880081
0.1,9,0,0.863986
0.1,9.1,0,0.836248
0.1,9.2,0,0.815501
0.1,9.3,0,0.796432
0.1,9.4,0,0.769746
0.1,9.5,0,0.749034
0.1,9.6,0,0.727585
0.1,9.7,0,0.702459
0.1,9.8,0,0.680785
0.1,9.9,0,0.657836
0.1,10,0,0.633603
0.1,10.1,0,0.610821
0.1,10.2,0,0.587074
0.1,10.3,0,0.563074
0.1,10.4,0,0.539467
0.1,10.5,0,0.51543
0.1,10.6,0,0.491426
0.1,10.7,0,0.467467
0.1,10.8,0,0.443469
0.1,10.9,0,0.419524
0.1,11,0,0.395593
0.1,11.1,0,0.371792
0.1,11.2,0,0.348024
0.1,11.3,0,0.324311
0.1,11.4,0,0.300744
0.1,11.5,0,0.277211
0.1,11.6,0,0.253763
0.1,11.7,0,0.230431
0.1,11.8,0,0.207131
0.1,11.9,0,0.183924
0.1,12,0,0.160787
0.1,12.1,0,0.137689
0.1,12.2,0,0.114664
0.1,12.3,0,0.0916737
0.1,12.4,0,0.0687193
0.1,12.5,0,0.0458068
0.1,12.6,0,0.0269444
0.1,12.7,0,0.00974607
0.2,0,0,0.00315374
0.2,0.1,0,0.0252203
0.2,0.2,0,0.0504311
0.2,0.3,0,0.0756661
0.2,0.4,0,0.100896
0.2,0.5,0,0.126119
0.2,0.6,0,0.151398
0.2,0.7,0,0.176664
0.2,0.8,0,0.201952
0.2,0.9,0,0.22727
0.2,1,0,0.252579
0.2,1.1,0,0.277952
0.2,1.2,0,0.303332
0.2,1.3,0,0.32872
0.2,1.4,0,0.354161
0.2,1.5,0,0.37961
0.2,1.6,0,0.405069
0.2,1.7,0,0.430554
0.2,1.8,0,0.456032
0.2,1.9,0,0.481518
0.2,2,0,0.507012
0.2,2.1,0,0.532418
0.2,2.2,0,0.557841
0.2,2.3,0,0.583138
0.2,2.4,0,0.608423
0.2,2.5,0,0.633692
0.2,2.6,0,0.65861
0.2,2.7,0,0.683676
0.2,2.8,0,0.708274
0.2,2.9,0,0.733029
0.2,3,0,0.757896
0.2,3.1,0,0.78161
0.2,3.2,0,0.805924
0.2,3.3,0,0.829222
0.2,3.4,0,0.852921
0.2,3.5,0,0.877157
0.2,3.6,0,0.898532
0.2,3.7,0,0.921444
0.2,3.8,0,0.942661
0.2,3.9,0,0.964575
0.2,4,0,0.988054
0.2,4.1,0,1.00605
0.2,4.2,0,1.0266
0.2,4.3,0,1.04615
0.2,4.4,0,1.06502
0.2,4.5,0,1.08659
0.2,4.6,0,1.10243
0.2,4.7,0,1.11951
0.2,4.8,0,1.13868
0.2,4.9,0,1.15085
0.2,5,0,1.16216
0.2,5.1,0,1.18265
0.2,5.2,0,1.19517
0.2,5.3,0,1.2067
0.2,5.4,0,1.21706
0.2,5.5,0,1.22609
0.2,5.6,0,1.23371
0.2,5.7,0,1.24002
0.2,5.8,0,1.24524
0.2,5.9,0,1.2496
0.2,6,0,1.25316
0.2,6.1,0,1.25583
0.2,6.2,0,1.25741
0.2,6.3,0,1.25773
0.2,6.4,0,1.25664
0.2,6.5,0,1.25408
0.2,6.6,0,1.25003
0.2,6.7,0,1.24453
0.2,6.8,0,1.23764
0.2,6.9,0,1.22954
0.2,7,0,1.21516
0.2,7.1,0,1.21414
0.2,7.2,0,1.20516
0.2,7.3,0,1.18948
0.2,7.4,0,1.18093
0.2,7.5,0,1.1675
0.2,7.6,0,1.14754
0.2,7.7,0,1.13332
0.2,7.8,0,1.1172
0.2,7.9,0,1.094
0.2,8,0,1.07596
0.2,8.1,0,1.05732
0.2,8.2,0,1.03403
0.2,8.3,0,1.01496
0.2,8.4,0,0.996455
0.2,8.5,0,0.973317
0.2,8.6,0,0.953199
0.2,8.7,0,0.935414
0.2,8.8,0,0.911013
0.2,8.9,0,0.889397
0.2,9,0,0.870972
0.2,9.1,0,0.845503
0.2,9.2,0,0.822491
0.2,9.3,0,0.80206
0.2,9.4,0,0.777055
0.2,9.5,0,0.753204
0.2,9.6,0,0.731376
0.2,9.7,0,0.706852
0.2,9.8,0,0.682896
0.2,9.9,0,0.659946
0.2,10,0,0.635664
0.2,10.1,0,0.611769
0.2,10.2,0,0.588029
0.2,10.3,0,0.563784
0.2,10.4,0,0.539777
0.2,10.5,0,0.515733
0.2,10.6,0,0.491555
0.2,10.7,0,0.467491
0.2,10.8,0,0.443485
0.2,10.9,0,0.419466
0.2,11,0,0.39551
0.2,11.1,0,0.371713
0.2,11.2,0,0.34792
0.2,11.3,0,0.3242
0.2,11.4,0,0.300649
0.2,11.5,0,0.277106
0.2,11.6,0,0.253658
0.2,11.7,0,0.230349
0.2,11.8,0,0.207047
0.2,11.9,0,0.18384
0.2,12,0,0.160734
0.2,12.1,0,0.137633
0.2,12.2,0,0.114613
0.2,12.3,0,0.0916503
0.2,12.4,0,0.0686915
0.2,12.5,0,0.0457834
0.2,12.6,0,0.0228941
0.2,12.7,0,0.00324869
0.3,0,0,0
0.3,0.1,0,0.0251963
0.3,0.2,0,0.0504071
0.3,0.3,0,0.0756033
0.3,0.4,0,0.100833
0.3,0.5,0,0.126069
0.3,0.6,0,0.151314
0.3,0.7,0,0.17658
0.3,0.8,0,0.20187
0.3,0.9,0,0.227189
0.3,1,0,0.252531
0.3,1.1,0,0.2779
0.3,1.2,0,0.30328
0.3,1.3,0,0.328717
0.3,1.4,0,0.354158
0.3,1.5,0,0.379609
0.3,1.6,0,0.405116
0.3,1.7,0,0.4306
0.3,1.8,0,0.45612
0.3,1.9,0,0.481605
0.3,2,0,0.507082
0.3,2.1,0,0.532562
0.3,2.2,0,0.557986
0.3,2.3,0,0.583437
0.3,2.4,0,0.608722
0.3,2.5,0,0.634072
0.3,2.6,0,0.659274
0.3,2.7,0,0.684339
0.3,2.8,0,0.709612
0.3,2.9,0,0.734367
0.3,3,0,0.759195
0.3,3.1,0,0.783999
0.3,3.2,0,0.808312
0.3,3.3,0,0.83312
0.3,3.4,0,0.856819
0.3,3.5,0,0.880191
0.3,3.6,0,0.904507
0.3,3.7,0,0.927419
0.3,3.8,0,0.95116
0.3,3.9,0,0.973074
0.3,4,0,0.993382
0.3,4.1,0,1.01676
0.3,4.2,0,1.03731
0.3,4.3,0,1.05726
0.3,4.4,0,1.07613
0.3,4.5,0,1.09195
0.3,4.6,0,1.11066
0.3,4.7,0,1.12774
0.3,4.8,0,1.14089
0.3,4.9,0,1.15306
0.3,5,0,1.16353
0.3,5.1,0,1.18272
0.3,5.2,0,1.19455
0.3,5.3,0,1.20547
0.3,5.4,0,1.21534
0.3,5.5,0,1.22398
0.3,5.6,0,1.23132
0.3,5.7,0,1.23741
0.3,5.8,0,1.24245
0.3,5.9,0,1.24662
0.3,6,0,1.24997
0.3,6.1,0,1.2524
0.3,6.2,0,1.25375
0.3,6.3,0,1.25383
0.3,6.4,0,1.25253
0.3,6.5,0,1.24978
0.3,6.6,0,1.24554
0.3,6.7,0,1.23982
0.3,6.8,0,1.23265
0.3,6.9,0,1.22411
0.3,7,0,1.20858
0.3,7.1,0,1.19041
0.3,7.2,0,1.18143
0.3,7.3,0,1.17756
0.3,7.4,0,1.15719
0.3,7.5,0,1.14377
0.3,7.6,0,1.13611
0.3,7.7,0,1.11789
0.3,7.8,0,1.1022
0.3,7.9,0,1.09128
0.3,8,0,1.0734
0.3,8.1,0,1.05597
0.3,8.2,0,1.04178
0.3,8.3,0,1.02271
0.3,8.4,0,1.00275
0.3,8.5,0,0.986862
0.3,8.6,0,0.966745
0.3,8.7,0,0.9434
0.3,8.8,0,0.925925
0.3,8.9,0,0.90431
0.3,9,0,0.878286
0.3,9.1,0,0.858534
0.3,9.2,0,0.835522
0.3,9.3,0,0.809049
0.3,9.4,0,0.786537
0.3,9.5,0,0.762686
0.3,9.6,0,0.736408
0.3,9.7,0,0.712533
0.3,9.8,0,0.688167
0.3,9.9,0,0.662657
0.3,10,0,0.638426
0.3,10.1,0,0.61388
0.3,10.2,0,0.589059
0.3,10.3,0,0.564814
0.3,10.4,0,0.540342
0.3,10.5,0,0.515943
0.3,10.6,0,0.491765
0.3,10.7,0,0.467455
0.3,10.8,0,0.44337
0.3,10.9,0,0.41935
0.3,11,0,0.395302
0.3,11.1,0,0.371497
0.3,11.2,0,0.347704
0.3,11.3,0,0.323966
0.3,11.4,0,0.300424
0.3,11.5,0,0.276881
0.3,11.6,0,0.253454
0.3,11.7,0,0.230154
0.3,11.8,0,0.206854
0.3,11.9,0,0.183698
0.3,12,0,0.160594
0.3,12.1,0,0.137499
0.3,12.2,0,0.11453
0.3,12.3,0,0.0915678
0.3,12.4,0,0.0686227
0.3,12.5,0,0.0457544
0.3,12.6,0,0.0228652
0.3,12.7,0,0
0.4,0,0,0
0.4,0.1,0,0.0251818
0.4,0.2,0,0.0503692
0.4,0.3,0,0.0755655
0.4,0.4,0,0.100763
0.4,0.5,0,0.126005
0.4,0.6,0,0.151228
0.4,0.7,0,0.176508
0.4,0.8,0,0.201798
0.4,0.9,0,0.227102
0.4,1,0,0.252469
0.4,1.1,0,0.277827
0.4,1.2,0,0.30324
0.4,1.3,0,0.328677
0.4,1.4,0,0.354135
0.4,1.5,0,0.379595
0.4,1.6,0,0.405125
0.4,1.7,0,0.430619
0.4,1.8,0,0.456138
0.4,1.9,0,0.481696
0.4,2,0,0.507163
0.4,2.1,0,0.5327
0.4,2.2,0,0.558214
0.4,2.3,0,0.583665
0.4,2.4,0,0.609176
0.4,2.5,0,0.634593
0.4,2.6,0,0.659931
0.4,2.7,0,0.685337
0.4,2.8,0,0.710611
0.4,2.9,0,0.73596
0.4,3,0,0.760862
0.4,3.1,0,0.786157
0.4,3.2,0,0.810843
0.4,3.3,0,0.835651
0.4,3.4,0,0.860745
0.4,3.5,0,0.883791
0.4,3.6,0,0.90951
0.4,3.7,0,0.932213
0.4,3.8,0,0.955954
0.4,3.9,0,0.980533
0.4,4,0,0.999237
0.4,4.1,0,1.02544
0.4,4.2,0,1.04368
0.4,4.3,0,1.06363
0.4,4.4,0,1.08506
0.4,4.5,0,1.09783
0.4,4.6,0,1.11817
0.4,4.7,0,1.13197
0.4,4.8,0,1.14512
0.4,4.9,0,1.15755
0.4,5,0,1.16633
0.4,5.1,0,1.18501
0.4,5.2,0,1.19665
0.4,5.3,0,1.20744
0.4,5.4,0,1.21724
0.4,5.5,0,1.22589
0.4,5.6,0,1.23328
0.4,5.7,0,1.23948
0.4,5.8,0,1.24464
0.4,5.9,0,1.24888
0.4,6,0,1.25225
0.4,6.1,0,1.25463
0.4,6.2,0,1.25588
0.4,6.3,0,1.25582
0.4,6.4,0,1.25435
0.4,6.5,0,1.2514
0.4,6.6,0,1.24691
0.4,6.7,0,1.24086
0.4,6.8,0,1.23327
0.4,6.9,0,1.22413
0.4,7,0,1.20695
0.4,7.1,0,1.18183
0.4,7.2,0,1.17385
0.4,7.3,0,1.17403
0.4,7.4,0,1.14424
0.4,7.5,0,1.13752
0.4,7.6,0,1.13194
0.4,7.7,0,1.1091
0.4,7.8,0,1.10003
0.4,7.9,0,1.08911
0.4,8,0,1.07252
0.4,8.1,0,1.05766
0.4,8.2,0,1.04364
0.4,8.3,0,1.02897
0.4,8.4,0,1.00773
0.4,8.5,0,0.993318
0.4,8.6,0,0.976875
0.4,8.7,0,0.949892
0.4,8.8,0,0.935125
0.4,8.9,0,0.913954
0.4,9,0,0.88483
0.4,9.1,0,0.868086
0.4,9.2,0,0.842797
0.4,9.3,0,0.814703
0.4,9.4,0,0.794179
0.4,9.5,0,0.767284
0.4,9.6,0,0.740615
0.4,9.7,0,0.717211
0.4,9.8,0,0.690748
0.4,9.9,0,0.665238
0.4,10,0,0.640671
0.4,10.1,0,0.615087
0.4,10.2,0,0.590253
0.4,10.3,0,0.565528
0.4,10.4,0,0.540659
0.4,10.5,0,0.516225
0.4,10.6,0,0.491745
0.4,10.7,0,0.467314
0.4,10.8,0,0.443198
0.4,10.9,0,0.419049
0.4,11,0,0.394974
0.4,11.1,0,0.371156
0.4,11.2,0,0.347334
0.4,11.3,0,0.323593
0.4,11.4,0,0.300055
0.4,11.5,0,0.276534
0.4,11.6,0,0.253107
0.4,11.7,0,0.229833
0.4,11.8,0,0.206572
0.4,11.9,0,0.183415
0.4,12,0,0.160364
0.4,12.1,0,0.137303
0.4,12.2,0,0.11434
0.4,12.3,0,0.0914437
0.4,12.4,0,0.0685229
0.4,12.5,0,0.0456673
0.4,12.6,0,0.022847
0.4,12.7,0,0
0.5,0,0,0
0.5,0.1,0,0.0251729
0.5,0.2,0,0.0503458
0.5,0.3,0,0.0755339
0.5,0.4,0,0.100737
0.5,0.5,0,0.125941
0.5,0.6,0,0.151199
0.5,0.7,0,0.176457
0.5,0.8,0,0.20175
0.5,0.9,0,0.227078
0.5,1,0,0.252406
0.5,1.1,0,0.277809
0.5,1.2,0,0.303211
0.5,1.3,0,0.328646
0.5,1.4,0,0.354114
0.5,1.5,0,0.379582
0.5,1.6,0,0.405098
0.5,1.7,0,0.430614
0.5,1.8,0,0.456147
0.5,1.9,0,0.481695
0.5,2,0,0.507244
0.5,2.1,0,0.532814
0.5,2.2,0,0.558385
0.5,2.3,0,0.583958
0.5,2.4,0,0.609536
0.5,2.5,0,0.635113
0.5,2.6,0,0.660656
0.5,2.7,0,0.686199
0.5,2.8,0,0.711682
0.5,2.9,0,0.737106
0.5,3,0,0.762529
0.5,3.1,0,0.787706
0.5,3.2,0,0.812884
0.5,3.3,0,0.837856
0.5,3.4,0,0.862623
0.5,3.5,0,0.88739
0.5,3.6,0,0.911497
0.5,3.7,0,0.935603
0.5,3.8,0,0.959143
0.5,3.9,0,0.982117
0.5,4,0,1.00509
0.5,4.1,0,1.02616
0.5,4.2,0,1.04722
0.5,4.3,0,1.06694
0.5,4.4,0,1.08533
0.5,4.5,0,1.10371
0.5,4.6,0,1.11914
0.5,4.7,0,1.13457
0.5,4.8,0,1.14766
0.5,4.9,0,1.15839
0.5,5,0,1.16913
0.5,5.1,0,1.18729
0.5,5.2,0,1.19874
0.5,5.3,0,1.2094
0.5,5.4,0,1.21914
0.5,5.5,0,1.22779
0.5,5.6,0,1.23525
0.5,5.7,0,1.24155
0.5,5.8,0,1.24682
0.5,5.9,0,1.25115
0.5,6,0,1.25453
0.5,6.1,0,1.25687
0.5,6.2,0,1.25801
0.5,6.3,0,1.25781
0.5,6.4,0,1.25617
0.5,6.5,0,1.25301
0.5,6.6,0,1.24828
0.5,6.7,0,1.24191
0.5,6.8,0,1.23388
0.5,6.9,0,1.22415
0.5,7,0,1.20531
0.5,7.1,0,1.19467
0.5,7.2,0,1.18403
0.5,7.3,0,1.17289
0.5,7.4,0,1.1589
0.5,7.5,0,1.14491
0.5,7.6,0,1.13088
0.5,7.7,0,1.11674
0.5,7.8,0,1.1026
0.5,7.9,0,1.08827
0.5,8,0,1.07373
0.5,8.1,0,1.05919
0.5,8.2,0,1.04366
0.5,8.3,0,1.02747
0.5,8.4,0,1.01129
0.5,8.5,0,0.993151
0.5,8.6,0,0.974358
0.5,8.7,0,0.955565
0.5,8.8,0,0.934273
0.5,8.9,0,0.912702
0.5,9,0,0.891021
0.5,9.1,0,0.867229
0.5,9.2,0,0.843437
0.5,9.3,0,0.819379
0.5,9.4,0,0.794259
0.5,9.5,0,0.769138
0.5,9.6,0,0.743851
0.5,9.7,0,0.718252
0.5,9.8,0,0.692654
0.5,9.9,0,0.667131
0.5,10,0,0.641683
0.5,10.1,0,0.616235
0.5,10.2,0,0.591061
0.5,10.3,0,0.566035
0.5,10.4,0,0.541008
0.5,10.5,0,0.516339
0.5,10.6,0,0.491759
0.5,10.7,0,0.467179
0.5,10.8,0,0.442976
0.5,10.9,0,0.418792
0.5,11,0,0.394644
0.5,11.1,0,0.370812
0.5,11.2,0,0.34698
0.5,11.3,0,0.323226
0.5,11.4,0,0.299706
0.5,11.5,0,0.276186
0.5,11.6,0,0.252776
0.5,11.7,0,0.229528
0.5,11.8,0,0.206281
0.5,11.9,0,0.183154
0.5,12,0,0.160125
0.5,12.1,0,0.137096
0.5,12.2,0,0.114173
0.5,12.3,0,0.0912947
0.5,12.4,0,0.0684166
0.5,12.5,0,0.0456034
0.5,12.6,0,0.0228017
0.5,12.7,0,0
0.6,0,0,0
0.6,0.1,0,0.0251478
0.6,0.2,0,0.05031
0.6,0.3,0,0.0754758
0.6,0.4,0,0.100667
0.6,0.5,0,0.125849
0.6,0.6,0,0.151104
0.6,0.7,0,0.176342
0.6,0.8,0,0.201633
0.6,0.9,0,0.226979
0.6,1,0,0.252235
0.6,1.1,0,0.277718
0.6,1.2,0,0.303066
0.6,1.3,0,0.328507
0.6,1.4,0,0.354035
0.6,1.5,0,0.379379
0.6,1.6,0,0.405032
0.6,1.7,0,0.430503
0.6,1.8,0,0.456055
0.6,1.9,0,0.481669
0.6,2,0,0.507213
0.6,2.1,0,0.53291
0.6,2.2,0,0.55853
0.6,2.3,0,0.584238
0.6,2.4,0,0.609899
0.6,2.5,0,0.635623
0.6,2.6,0,0.661447
0.6,2.7,0,0.687036
0.6,2.8,0,0.712783
0.6,2.9,0,0.738425
0.6,3,0,0.763813
0.6,3.1,0,0.789574
0.6,3.2,0,0.814665
0.6,3.3,0,0.839893
0.6,3.4,0,0.865003
0.6,3.5,0,0.88948
0.6,3.6,0,0.914303
0.6,3.7,0,0.93821
0.6,3.8,0,0.961862
0.6,3.9,0,0.985146
0.6,4,0,1.00773
0.6,4.1,0,1.02924
0.6,4.2,0,1.05024
0.6,4.3,0,1.07005
0.6,4.4,0,1.08858
0.6,4.5,0,1.10729
0.6,4.6,0,1.12303
0.6,4.7,0,1.13881
0.6,4.8,0,1.1536
0.6,4.9,0,1.1657
0.6,5,0,1.17485
0.6,5.1,0,1.19402
0.6,5.2,0,1.2061
0.6,5.3,0,1.21737
0.6,5.4,0,1.2277
0.6,5.5,0,1.2369
0.6,5.6,0,1.24488
0.6,5.7,0,1.25164
0.6,5.8,0,1.25732
0.6,5.9,0,1.26201
0.6,6,0,1.26571
0.6,6.1,0,1.2683
0.6,6.2,0,1.26962
0.6,6.3,0,1.26954
0.6,6.4,0,1.26794
0.6,6.5,0,1.26477
0.6,6.6,0,1.25995
0.6,6.7,0,1.25347
0.6,6.8,0,1.24534
0.6,6.9,0,1.23558
0.6,7,0,1.21683
0.6,7.1,0,1.21538
0.6,7.2,0,1.20313
0.6,7.3,0,1.18412
0.6,7.4,0,1.17407
0.6,7.5,0,1.15733
0.6,7.6,0,1.13876
0.6,7.7,0,1.12422
0.6,7.8,0,1.10863
0.6,7.9,0,1.09202
0.6,8,0,1.07601
0.6,8.1,0,1.06149
0.6,8.2,0,1.04537
0.6,8.3,0,1.02864
0.6,8.4,0,1.01247
0.6,8.5,0,0.993848
0.6,8.6,0,0.974807
0.6,8.7,0,0.956121
0.6,8.8,0,0.934575
0.6,8.9,0,0.912947
0.6,9,0,0.891339
0.6,9.1,0,0.867743
0.6,9.2,0,0.843913
0.6,9.3,0,0.819854
0.6,9.4,0,0.795345
0.6,9.5,0,0.769952
0.6,9.6,0,0.744509
0.6,9.7,0,0.719376
0.6,9.8,0,0.693357
0.6,9.9,0,0.667599
0.6,10,0,0.642271
0.6,10.1,0,0.61647
0.6,10.2,0,0.591077
0.6,10.3,0,0.566004
0.6,10.4,0,0.540787
0.6,10.5,0,0.515944
0.6,10.6,0,0.491303
0.6,10.7,0,0.466671
0.6,10.8,0,0.442339
0.6,10.9,0,0.418136
0.6,11,0,0.394
0.6,11.1,0,0.370094
0.6,11.2,0,0.346281
0.6,11.3,0,0.322563
0.6,11.4,0,0.299022
0.6,11.5,0,0.275543
0.6,11.6,0,0.25218
0.6,11.7,0,0.228938
0.6,11.8,0,0.205751
0.6,11.9,0,0.182682
0.6,12,0,0.159672
0.6,12.1,0,0.136721
0.6,12.2,0,0.113867
0.6,12.3,0,0.0910146
0.6,12.4,0,0.0682231
0.6,12.5,0,0.0454869
0.6,12.6,0,0.0227186
0.6,12.7,0,0
0.7,0,0,0
0.7,0.1,0,0.0251371
0.7,0.2,0,0.0502635
0.7,0.3,0,0.0754293
0.7,0.4,0,0.100587
0.7,0.5,0,0.125757
0.7,0.6,0,0.150993
0.7,0.7,0,0.176209
0.7,0.8,0,0.201499
0.7,0.9,0,0.22679
0.7,1,0,0.252063
0.7,1.1,0,0.277492
0.7,1.2,0,0.302867
0.7,1.3,0,0.328307
0.7,1.4,0,0.353772
0.7,1.5,0,0.379176
0.7,1.6,0,0.404784
0.7,1.7,0,0.430346
0.7,1.8,0,0.455898
0.7,1.9,0,0.481573
0.7,2,0,0.507182
0.7,2.1,0,0.532929
0.7,2.2,0,0.558725
0.7,2.3,0,0.584432
0.7,2.4,0,0.610325
0.7,2.5,0,0.636133
0.7,2.6,0,0.662003
0.7,2.7,0,0.687919
0.7,2.8,0,0.713666
0.7,2.9,0,0.73949
0.7,3,0,0.765096
0.7,3.1,0,0.790771
0.7,3.2,0,0.816359
0.7,3.3,0,0.841588
0.7,3.4,0,0.86675
0.7,3.5,0,0.891569
0.7,3.6,0,0.916193
0.7,3.7,0,0.940618
0.7,3.8,0,0.96427
0.7,3.9,0,0.987477
0.7,4,0,1.01037
0.7,4.1,0,1.03182
0.7,4.2,0,1.0532
0.7,4.3,0,1.07301
0.7,4.4,0,1.09201
0.7,4.5,0,1.11086
0.7,4.6,0,1.12695
0.7,4.7,0,1.14339
0.7,4.8,0,1.15818
0.7,4.9,0,1.17006
0.7,5,0,1.18057
0.7,5.1,0,1.20076
0.7,5.2,0,1.21345
0.7,5.3,0,1.22533
0.7,5.4,0,1.23626
0.7,5.5,0,1.24602
0.7,5.6,0,1.25451
0.7,5.7,0,1.26173
0.7,5.8,0,1.26782
0.7,5.9,0,1.27287
0.7,6,0,1.27688
0.7,6.1,0,1.27973
0.7,6.2,0,1.28124
0.7,6.3,0,1.28128
0.7,6.4,0,1.27972
0.7,6.5,0,1.27652
0.7,6.6,0,1.27162
0.7,6.7,0,1.26503
0.7,6.8,0,1.2568
0.7,6.9,0,1.24701
0.7,7,0,1.22834
0.7,7.1,0,1.22261
0.7,7.2,0,1.21119
0.7,7.3,0,1.19475
0.7,7.4,0,1.18111
0.7,7.5,0,1.16484
0.7,7.6,0,1.14679
0.7,7.7,0,1.13038
0.7,7.8,0,1.11333
0.7,7.9,0,1.09671
0.7,8,0,1.08008
0.7,8.1,0,1.06382
0.7,8.2,0,1.04769
0.7,8.3,0,1.03051
0.7,8.4,0,1.01365
0.7,8.5,0,0.995049
0.7,8.6,0,0.975716
0.7,8.7,0,0.956687
0.7,8.8,0,0.935163
0.7,8.9,0,0.913366
0.7,9,0,0.891647
0.7,9.1,0,0.867972
0.7,9.2,0,0.844212
0.7,9.3,0,0.820199
0.7,9.4,0,0.795379
0.7,9.5,0,0.770352
0.7,9.6,0,0.744961
0.7,9.7,0,0.719439
0.7,9.8,0,0.69373
0.7,9.9,0,0.667973
0.7,10,0,0.642296
0.7,10.1,0,0.616548
0.7,10.2,0,0.591139
0.7,10.3,0,0.565814
0.7,10.4,0,0.540524
0.7,10.5,0,0.51567
0.7,10.6,0,0.490871
0.7,10.7,0,0.466159
0.7,10.8,0,0.441836
0.7,10.9,0,0.417542
0.7,11,0,0.393363
0.7,11.1,0,0.369487
0.7,11.2,0,0.345637
0.7,11.3,0,0.321907
0.7,11.4,0,0.298414
0.7,11.5,0,0.274945
0.7,11.6,0,0.251581
0.7,11.7,0,0.228414
0.7,11.8,0,0.205261
0.7,11.9,0,0.182191
0.7,12,0,0.159286
0.7,12.1,0,0.136373
0.7,12.2,0,0.11353
0.7,12.3,0,0.0907989
0.7,12.4,0,0.0680428
0.7,12.5,0,0.0453298
0.7,12.6,0,0.0226863
0.7,12.7,0,0
0.8,0,0,0
0.8,0.1,0,0.0251079
0.8,0.2,0,0.0502343
0.8,0.3,0,0.0753371
0.8,0.4,0,0.100495
0.8,0.5,0,0.125616
0.8,0.6,0,0.150827
0.8,0.7,0,0.176043
0.8,0.8,0,0.201253
0.8,0.9,0,0.226543
0.8,1,0,0.251804
0.8,1.1,0,0.277168
0.8,1.2,0,0.302543
0.8,1.3,0,0.327938
0.8,1.4,0,0.353402
0.8,1.5,0,0.3789
0.8,1.6,0,0.404437
0.8,1.7,0,0.429999
0.8,1.8,0,0.455676
0.8,1.9,0,0.481351
0.8,2,0,0.50714
0.8,2.1,0,0.532936
0.8,2.2,0,0.558732
0.8,2.3,0,0.584736
0.8,2.4,0,0.610629
0.8,2.5,0,0.636621
0.8,2.6,0,0.662618
0.8,2.7,0,0.688534
0.8,2.8,0,0.714592
0.8,2.9,0,0.740416
0.8,3,0,0.766239
0.8,3.1,0,0.792039
0.8,3.2,0,0.817627
0.8,3.3,0,0.843261
0.8,3.4,0,0.868423
0.8,3.5,0,0.893377
0.8,3.6,0,0.918352
0.8,3.7,0,0.942777
0.8,3.8,0,0.96704
0.8,3.9,0,0.990247
0.8,4,0,1.0128
0.8,4.1,0,1.03541
0.8,4.2,0,1.05679
0.8,4.3,0,1.07758
0.8,4.4,0,1.09658
0.8,4.5,0,1.11474
0.8,4.6,0,1.13248
0.8,4.7,0,1.14892
0.8,4.8,0,1.16449
0.8,4.9,0,1.17637
0.8,5,0,1.18732
0.8,5.1,0,1.20859
0.8,5.2,0,1.22198
0.8,5.3,0,1.23453
0.8,5.4,0,1.2461
0.8,5.5,0,1.25645
0.8,5.6,0,1.26547
0.8,5.7,0,1.27316
0.8,5.8,0,1.27966
0.8,5.9,0,1.28509
0.8,6,0,1.28943
0.8,6.1,0,1.29256
0.8,6.2,0,1.29429
0.8,6.3,0,1.29447
0.8,6.4,0,1.293
0.8,6.5,0,1.28982
0.8,6.6,0,1.28491
0.8,6.7,0,1.27827
0.8,6.8,0,1.26996
0.8,6.9,0,1.26014
0.8,7,0,1.24147
0.8,7.1,0,1.22724
0.8,7.2,0,1.21583
0.8,7.3,0,1.205
0.8,7.4,0,1.18564
0.8,7.5,0,1.16937
0.8,7.6,0,1.15408
0.8,7.7,0,1.13548
0.8,7.8,0,1.11846
0.8,7.9,0,1.10147
0.8,8,0,1.08447
0.8,8.1,0,1.06783
0.8,8.2,0,1.05102
0.8,8.3,0,1.03383
0.8,8.4,0,1.01585
0.8,8.5,0,0.997823
0.8,8.6,0,0.978489
0.8,8.7,0,0.957362
0.8,8.8,0,0.937144
0.8,8.9,0,0.915348
0.8,9,0,0.891427
0.8,9.1,0,0.868993
0.8,9.2,0,0.845234
0.8,9.3,0,0.819979
0.8,9.4,0,0.795633
0.8,9.5,0,0.770607
0.8,9.6,0,0.744744
0.8,9.7,0,0.719327
0.8,9.8,0,0.693593
0.8,9.9,0,0.667691
0.8,10,0,0.64202
0.8,10.1,0,0.616222
0.8,10.2,0,0.590689
0.8,10.3,0,0.565364
0.8,10.4,0,0.539989
0.8,10.5,0,0.515044
0.8,10.6,0,0.490246
0.8,10.7,0,0.465432
0.8,10.8,0,0.441078
0.8,10.9,0,0.416785
0.8,11,0,0.392547
0.8,11.1,0,0.368679
0.8,11.2,0,0.34483
0.8,11.3,0,0.321114
0.8,11.4,0,0.297644
0.8,11.5,0,0.274175
0.8,11.6,0,0.250901
0.8,11.7,0,0.227754
0.8,11.8,0,0.204616
0.8,11.9,0,0.181681
0.8,12,0,0.158778
0.8,12.1,0,0.13591
0.8,12.2,0,0.113206
0.8,12.3,0,0.0904751
0.8,12.4,0,0.0678004
0.8,12.5,0,0.0452199
0.8,12.6,0,0.0225764
0.8,12.7,0,0
0.9,0,0,0
0.9,0.1,0,0.0250893
0.9,0.2,0,0.0501382
0.9,0.3,0,0.075241
0.9,0.4,0,0.100342
0.9,0.5,0,0.125426
0.9,0.6,0,0.150633
0.9,0.7,0,0.175765
0.9,0.8,0,0.200974
0.9,0.9,0,0.226226
0.9,1,0,0.251456
0.9,1.1,0,0.276811
0.9,1.2,0,0.302164
0.9,1.3,0,0.32756
0.9,1.4,0,0.35302
0.9,1.5,0,0.378551
0.9,1.6,0,0.404064
0.9,1.7,0,0.429758
0.9,1.8,0,0.455434
0.9,1.9,0,0.481182
0.9,2,0,0.507086
0.9,2.1,0,0.532883
0.9,2.2,0,0.558926
0.9,2.3,0,0.58493
0.9,2.4,0,0.610996
0.9,2.5,0,0.637088
0.9,2.6,0,0.663166
0.9,2.7,0,0.689273
0.9,2.8,0,0.715331
0.9,2.9,0,0.74142
0.9,3,0,0.767241
0.9,3.1,0,0.793252
0.9,3.2,0,0.81889
0.9,3.3,0,0.844525
0.9,3.4,0,0.870158
0.9,3.5,0,0.894903
0.9,3.6,0,0.920428
0.9,3.7,0,0.944589
0.9,3.8,0,0.968852
0.9,3.9,0,0.993116
0.9,4,0,1.01502
0.9,4.1,0,1.03885
0.9,4.2,0,1.05973
0.9,4.3,0,1.08053
0.9,4.4,0,1.10162
0.9,4.5,0,1.11893
0.9,4.6,0,1.13797
0.9,4.7,0,1.15498
0.9,4.8,0,1.17055
0.9,4.9,0,1.18506
0.9,5,0,1.19508
0.9,5.1,0,1.21753
0.9,5.2,0,1.23167
0.9,5.3,0,1.24497
0.9,5.4,0,1.25723
0.9,5.5,0,1.2682
0.9,5.6,0,1.27777
0.9,5.7,0,1.28593
0.9,5.8,0,1.29285
0.9,5.9,0,1.29867
0.9,6,0,1.30336
0.9,6.1,0,1.30679
0.9,6.2,0,1.30876
0.9,6.3,0,1.30913
0.9,6.4,0,1.30779
0.9,6.5,0,1.30469
0.9,6.6,0,1.29981
0.9,6.7,0,1.29318
0.9,6.8,0,1.28484
0.9,6.9,0,1.27496
0.9,7,0,1.25621
0.9,7.1,0,1.23986
0.9,7.2,0,1.22859
0.9,7.3,0,1.21896
0.9,7.4,0,1.19539
0.9,7.5,0,1.18014
0.9,7.6,0,1.16551
0.9,7.7,0,1.14313
0.9,7.8,0,1.12606
0.9,7.9,0,1.10907
0.9,8,0,1.0893
0.9,8.1,0,1.07182
0.9,8.2,0,1.05501
0.9,8.3,0,1.03696
0.9,8.4,0,1.01732
0.9,8.5,0,0.999726
0.9,8.6,0,0.980404
0.9,8.7,0,0.957252
0.9,8.8,0,0.938028
0.9,8.9,0,0.915796
0.9,9,0,0.89044
0.9,9.1,0,0.869231
0.9,9.2,0,0.844586
0.9,9.3,0,0.818683
0.9,9.4,0,0.795388
0.9,9.5,0,0.769527
0.9,9.6,0,0.743522
0.9,9.7,0,0.718792
0.9,9.8,0,0.692585
0.9,9.9,0,0.666682
0.9,10,0,0.641346
0.9,10.1,0,0.615335
0.9,10.2,0,0.589812
0.9,10.3,0,0.564541
0.9,10.4,0,0.53909
0.9,10.5,0,0.514138
0.9,10.6,0,0.489297
0.9,10.7,0,0.464468
0.9,10.8,0,0.440093
0.9,10.9,0,0.415777
0.9,11,0,0.391548
0.9,11.1,0,0.36766
0.9,11.2,0,0.343853
0.9,11.3,0,0.32015
0.9,11.4,0,0.296689
0.9,11.5,0,0.273319
0.9,11.6,0,0.250047
0.9,11.7,0,0.226954
0.9,11.8,0,0.20393
0.9,11.9,0,0.180996
0.9,12,0,0.158196
0.9,12.1,0,0.135433
0.9,12.2,0,0.112738
0.9,12.3,0,0.0901503
0.9,12.4,0,0.0675541
0.9,12.5,0,0.0450011
0.9,12.6,0,0.0225258
0.9,12.7,0,0
1,0,0,0
1,0.1,0,0.0250303
1,0.2,0,0.0500606
1,0.3,0,0.0751077
1,0.4,0,0.100172
1,0.5,0,0.125235
1,0.6,0,0.150363
1,0.7,0,0.175491
1,0.8,0,0.200666
1,0.9,0,0.225888
1,1,0,0.251109
1,1.1,0,0.276453
1,1.2,0,0.301796
1,1.3,0,0.327215
1,1.4,0,0.352708
1,1.5,0,0.378201
1,1.6,0,0.403871
1,1.7,0,0.42954
1,1.8,0,0.455306
1,1.9,0,0.481169
1,2,0,0.507032
1,2.1,0,0.533076
1,2.2,0,0.55912
1,2.3,0,0.585224
1,2.4,0,0.61139
1,2.5,0,0.637556
1,2.6,0,0.663743
1,2.7,0,0.68993
1,2.8,0,0.716068
1,2.9,0,0.742155
1,3,0,0.768243
1,3.1,0,0.794093
1,3.2,0,0.819943
1,3.3,0,0.84558
1,3.4,0,0.871005
1,3.5,0,0.89643
1,3.6,0,0.921141
1,3.7,0,0.945852
1,3.8,0,0.970014
1,3.9,0,0.993628
1,4,0,1.01724
1,4.1,0,1.03935
1,4.2,0,1.06146
1,4.3,0,1.08263
1,4.4,0,1.10288
1,4.5,0,1.12312
1,4.6,0,1.14144
1,4.7,0,1.15975
1,4.8,0,1.17569
1,4.9,0,1.18927
1,5,0,1.20285
1,5.1,0,1.22646
1,5.2,0,1.24137
1,5.3,0,1.2554
1,5.4,0,1.26836
1,5.5,0,1.27996
1,5.6,0,1.29006
1,5.7,0,1.2987
1,5.8,0,1.30605
1,5.9,0,1.31224
1,6,0,1.31729
1,6.1,0,1.32101
1,6.2,0,1.32323
1,6.3,0,1.32378
1,6.4,0,1.32258
1,6.5,0,1.31955
1,6.6,0,1.31472
1,6.7,0,1.30808
1,6.8,0,1.29972
1,6.9,0,1.28978
1,7,0,1.27096
1,7.1,0,1.25885
1,7.2,0,1.24674
1,7.3,0,1.23368
1,7.4,0,1.2152
1,7.5,0,1.19672
1,7.6,0,1.17765
1,7.7,0,1.15722
1,7.8,0,1.13679
1,7.9,0,1.11665
1,8,0,1.09686
1,8.1,0,1.07706
1,8.2,0,1.0575
1,8.3,0,1.03811
1,8.4,0,1.01871
1,8.5,0,0.998326
1,8.6,0,0.977613
1,8.7,0,0.956899
1,8.8,0,0.934518
1,8.9,0,0.911951
1,9,0,0.889312
1,9.1,0,0.86528
1,9.2,0,0.841249
1,9.3,0,0.817032
1,9.4,0,0.792071
1,9.5,0,0.767111
1,9.6,0,0.741969
1,9.7,0,0.716488
1,9.8,0,0.691008
1,9.9,0,0.665467
1,10,0,0.639867
1,10.1,0,0.614266
1,10.2,0,0.588837
1,10.3,0,0.563501
1,10.4,0,0.538165
1,10.5,0,0.513215
1,10.6,0,0.488361
1,10.7,0,0.463506
1,10.8,0,0.439155
1,10.9,0,0.41483
1,11,0,0.390556
1,11.1,0,0.366737
1,11.2,0,0.342918
1,11.3,0,0.319211
1,11.4,0,0.295839
1,11.5,0,0.272467
1,11.6,0,0.249242
1,11.7,0,0.226237
1,11.8,0,0.203233
1,11.9,0,0.180384
1,12,0,0.157662
1,12.1,0,0.134941
1,12.2,0,0.112355
1,12.3,0,0.089826
1,12.4,0,0.0672976
1,12.5,0,0.0448549
1,12.6,0,0.0224275
1,12.7,0,0
1.1,0,0,0
1.1,0.1,0,0.0249531
1.1,0.2,0,0.049954
1.1,0.3,0,0.07493
1.1,0.4,0,0.0999521
1.1,0.5,0,0.124973
1.1,0.6,0,0.150015
1.1,0.7,0,0.175134
1.1,0.8,0,0.20026
1.1,0.9,0,0.225442
1.1,1,0,0.250677
1.1,1.1,0,0.275958
1.1,1.2,0,0.301326
1.1,1.3,0,0.326755
1.1,1.4,0,0.352233
1.1,1.5,0,0.377805
1.1,1.6,0,0.403489
1.1,1.7,0,0.429207
1.1,1.8,0,0.455059
1.1,1.9,0,0.480958
1.1,2,0,0.506908
1.1,2.1,0,0.533105
1.1,2.2,0,0.559167
1.1,2.3,0,0.585415
1.1,2.4,0,0.611704
1.1,2.5,0,0.637836
1.1,2.6,0,0.664356
1.1,2.7,0,0.690501
1.1,2.8,0,0.716781
1.1,2.9,0,0.743053
1.1,3,0,0.769091
1.1,3.1,0,0.795247
1.1,3.2,0,0.821161
1.1,3.3,0,0.846913
1.1,3.4,0,0.872388
1.1,3.5,0,0.89832
1.1,3.6,0,0.922744
1.1,3.7,0,0.948024
1.1,3.8,0,0.972292
1.1,3.9,0,0.995443
1.1,4,0,1.02114
1.1,4.1,0,1.04156
1.1,4.2,0,1.06524
1.1,4.3,0,1.08695
1.1,4.4,0,1.10615
1.1,4.5,0,1.13008
1.1,4.6,0,1.14676
1.1,4.7,0,1.1667
1.1,4.8,0,1.18589
1.1,4.9,0,1.20109
1.1,5,0,1.21267
1.1,5.1,0,1.23707
1.1,5.2,0,1.25249
1.1,5.3,0,1.26705
1.1,5.4,0,1.28053
1.1,5.5,0,1.29266
1.1,5.6,0,1.30325
1.1,5.7,0,1.31232
1.1,5.8,0,1.32006
1.1,5.9,0,1.32662
1.1,6,0,1.33201
1.1,6.1,0,1.33604
1.1,6.2,0,1.33849
1.1,6.3,0,1.33921
1.1,6.4,0,1.33807
1.1,6.5,0,1.33501
1.1,6.6,0,1.33004
1.1,6.7,0,1.32316
1.1,6.8,0,1.31445
1.1,6.9,0,1.30407
1.1,7,0,1.28441
1.1,7.1,0,1.28679
1.1,7.2,0,1.27217
1.1,7.3,0,1.24737
1.1,7.4,0,1.23916
1.1,7.5,0,1.21544
1.1,7.6,0,1.18908
1.1,7.7,0,1.17159
1.1,7.8,0,1.14806
1.1,7.9,0,1.12403
1.1,8,0,1.1027
1.1,8.1,0,1.08316
1.1,8.2,0,1.06148
1.1,8.3,0,1.04005
1.1,8.4,0,1.02254
1.1,8.5,0,0.99937
1.1,8.6,0,0.977049
1.1,8.7,0,0.959336
1.1,8.8,0,0.933203
1.1,8.9,0,0.910155
1.1,9,0,0.890331
1.1,9.1,0,0.862718
1.1,9.2,0,0.839184
1.1,9.3,0,0.81648
1.1,9.4,0,0.789554
1.1,9.5,0,0.765233
1.1,9.6,0,0.740665
1.1,9.7,0,0.71457
1.1,9.8,0,0.689365
1.1,9.9,0,0.663968
1.1,10,0,0.638276
1.1,10.1,0,0.612727
1.1,10.2,0,0.587312
1.1,10.3,0,0.561969
1.1,10.4,0,0.536647
1.1,10.5,0,0.511682
1.1,10.6,0,0.486824
1.1,10.7,0,0.462002
1.1,10.8,0,0.437626
1.1,10.9,0,0.413313
1.1,11,0,0.389101
1.1,11.1,0,0.365267
1.1,11.2,0,0.341491
1.1,11.3,0,0.317874
1.1,11.4,0,0.294522
1.1,11.5,0,0.271223
1.1,11.6,0,0.248106
1.1,11.7,0,0.225149
1.1,11.8,0,0.202244
1.1,11.9,0,0.179516
1.1,12,0,0.156854
1.1,12.1,0,0.134255
1.1,12.2,0,0.111806
1.1,12.3,0,0.0893362
1.1,12.4,0,0.0669469
1.1,12.5,0,0.0446393
1.1,12.6,0,0.0222724
1.1,12.7,0,0
1.2,0,0,0
1.2,0.1,0,0.0249237
1.2,0.2,0,0.049818
1.2,0.3,0,0.074794
1.2,0.4,0,0.0997318
1.2,0.5,0,0.124711
1.2,0.6,0,0.149744
1.2,0.7,0,0.174769
1.2,0.8,0,0.199895
1.2,0.9,0,0.22505
1.2,1,0,0.250245
1.2,1.1,0,0.275551
1.2,1.2,0,0.300881
1.2,1.3,0,0.326309
1.2,1.4,0,0.351852
1.2,1.5,0,0.377409
1.2,1.6,0,0.403141
1.2,1.7,0,0.428922
1.2,1.8,0,0.454774
1.2,1.9,0,0.480797
1.2,2,0,0.506783
1.2,2.1,0,0.532999
1.2,2.2,0,0.559234
1.2,2.3,0,0.585481
1.2,2.4,0,0.611861
1.2,2.5,0,0.638116
1.2,2.6,0,0.664594
1.2,2.7,0,0.691031
1.2,2.8,0,0.717311
1.2,2.9,0,0.743717
1.2,3,0,0.769939
1.2,3.1,0,0.79616
1.2,3.2,0,0.822445
1.2,3.3,0,0.848197
1.2,3.4,0,0.874229
1.2,3.5,0,0.900211
1.2,3.6,0,0.925203
1.2,3.7,0,0.950765
1.2,3.8,0,0.975033
1.2,3.9,0,0.999806
1.2,4,0,1.02504
1.2,4.1,0,1.04703
1.2,4.2,0,1.07059
1.2,4.3,0,1.0923
1.2,4.4,0,1.11415
1.2,4.5,0,1.13704
1.2,4.6,0,1.15535
1.2,4.7,0,1.17529
1.2,4.8,0,1.19448
1.2,4.9,0,1.20929
1.2,5,0,1.22248
1.2,5.1,0,1.24769
1.2,5.2,0,1.26361
1.2,5.3,0,1.27869
1.2,5.4,0,1.29271
1.2,5.5,0,1.30536
1.2,5.6,0,1.31643
1.2,5.7,0,1.32594
1.2,5.8,0,1.33407
1.2,5.9,0,1.341
1.2,6,0,1.34672
1.2,6.1,0,1.35106
1.2,6.2,0,1.35375
1.2,6.3,0,1.35463
1.2,6.4,0,1.35356
1.2,6.5,0,1.35047
1.2,6.6,0,1.34535
1.2,6.7,0,1.33823
1.2,6.8,0,1.32918
1.2,6.9,0,1.31837
1.2,7,0,1.29786
1.2,7.1,0,1.29351
1.2,7.2,0,1.28025
1.2,7.3,0,1.25951
1.2,7.4,0,1.24449
1.2,7.5,0,1.22447
1.2,7.6,0,1.19946
1.2,7.7,0,1.1787
1.2,7.8,0,1.15644
1.2,7.9,0,1.1324
1.2,8,0,1.11069
1.2,8.1,0,1.0894
1.2,8.2,0,1.06779
1.2,8.3,0,1.04674
1.2,8.4,0,1.02691
1.2,8.5,0,1.00427
1.2,8.6,0,0.982133
1.2,8.7,0,0.962073
1.2,8.8,0,0.93698
1.2,8.9,0,0.913065
1.2,9,0,0.89153
1.2,9.1,0,0.865075
1.2,9.2,0,0.839875
1.2,9.3,0,0.816346
1.2,9.4,0,0.790116
1.2,9.5,0,0.764368
1.2,9.6,0,0.739634
1.2,9.7,0,0.713711
1.2,9.8,0,0.687937
1.2,9.9,0,0.662539
1.2,10,0,0.636857
1.2,10.1,0,0.611211
1.2,10.2,0,0.585797
1.2,10.3,0,0.560461
1.2,10.4,0,0.53513
1.2,10.5,0,0.510173
1.2,10.6,0,0.48533
1.2,10.7,0,0.460498
1.2,10.8,0,0.43615
1.2,10.9,0,0.411868