/*--------------------------------*- C++ -*----------------------------------*\
| =========                 |                                                 |
| \\      /  F ield         | OpenFOAM: The Open Source CFD Toolbox           |
|  \\    /   O peration     | Version:  v1806                                 |
|   \\  /    A nd           | Web:      www.OpenFOAM.com                      |
|    \\/     M anipulation  |                                                 |
\*---------------------------------------------------------------------------*/
FoamFile
{
    version     2.0;
    format      ascii;
    class       volScalarField;
    location    "500";
    object      p;
}
// * * * * * * * * * * * * * * * * * * * * * * * * * * * * * * * * * * * * * //

dimensions      [0 2 -2 0 0 0 0];


internalField   nonuniform List<scalar> 
2400
(
1.59291e-05
1.73854e-05
1.82573e-05
2.06185e-05
2.29524e-05
2.73917e-05
3.13791e-05
3.7941e-05
4.36796e-05
5.25271e-05
5.98463e-05
7.02243e-05
7.76422e-05
8.66084e-05
8.99827e-05
9.08569e-05
8.24224e-05
6.55092e-05
3.76245e-05
-8.71089e-07
4.7597e-05
5.20346e-05
5.43724e-05
6.16129e-05
6.82598e-05
8.17223e-05
9.31684e-05
0.000113074
0.000129632
0.000156539
0.000177725
0.000209462
0.000231003
0.000258863
0.00026864
0.0002725
0.000247471
0.00019811
0.000114521
2.63244e-07
7.89856e-05
8.6217e-05
9.0077e-05
0.000102102
0.000113075
0.000135411
0.000154276
0.000187418
0.000214734
0.000259768
0.000294757
0.000348395
0.000384055
0.000432271
0.000448577
0.000457922
0.000416375
0.000336403
0.000196132
4.22423e-06
0.000109862
0.000119702
0.000125142
0.000141868
0.000157202
0.000188268
0.000214518
0.000260844
0.00029885
0.00036227
0.00041098
0.000487568
0.000537344
0.000608471
0.000631418
0.00065052
0.00059212
0.000484738
0.000285159
1.10415e-05
0.000140034
0.000152228
0.000159312
0.000180643
0.000200359
0.00023997
0.000273543
0.00033298
0.000381583
0.000463717
0.00052607
0.000626968
0.000690937
0.000788429
0.000818212
0.000853262
0.000777259
0.000648053
0.000384174
2.23352e-05
0.000169322
0.000183515
0.000192351
0.000218135
0.000242291
0.000290154
0.000331031
0.00040338
0.000462573
0.000563653
0.000639735
0.000766387
0.000844925
0.000972884
0.00101006
0.00106919
0.000974489
0.000832461
0.000496281
4.10498e-05
0.000197552
0.000213282
0.000224041
0.000254053
0.000282767
0.000338442
0.000386693
0.000471566
0.000541503
0.000661527
0.00075173
0.000905414
0.000999441
0.00116224
0.00120816
0.00130121
0.00118671
0.00104526
0.000624931
7.19153e-05
0.000224563
0.000241259
0.000254179
0.000288109
0.000321566
0.000384445
0.000440261
0.000537014
0.000618069
0.000756676
0.00086181
0.00104338
0.00115461
0.00135641
0.00141375
0.0015517
0.00141724
0.00129462
0.00077373
0.000123173
0.000250171
0.000267186
0.000282583
0.000320019
0.000358485
0.000427761
0.00049148
0.000599159
0.000691978
0.000848314
0.000969714
0.00117931
0.00131052
0.00155476
0.00162817
0.00182223
0.00167013
0.00158913
0.000946971
0.000208222
0.000274235
0.000290822
0.000309079
0.000349508
0.000393328
0.000467988
0.000540104
0.000657407
0.00076293
0.00093555
0.00107514
0.00131196
0.00146717
0.00175595
0.00185281
0.00211328
0.00195048
0.00193723
0.00115064
0.000346817
0.000296597
0.000311953
0.000333511
0.000376319
0.0004259
0.000504731
0.000585891
0.000711145
0.000830611
0.0010174
0.00117771
0.00143978
0.0016244
0.00195798
0.00208899
0.00242408
0.00226455
0.00234664
0.00139405
0.000565604
0.000317097
0.00033041
0.000355734
0.000400222
0.000456002
0.000537619
0.000628591
0.000759772
0.000894685
0.00109284
0.001277
0.00156102
0.00178184
0.00215811
0.0023378
0.00275226
0.00261986
0.00282357
0.00169261
0.000897879
0.000335561
0.000346084
0.00037561
0.000421022
0.000483412
0.000566329
0.000667923
0.000802727
0.000954762
0.0011608
0.00137245
0.00167373
0.0019389
0.0023529
0.00259988
0.00309358
0.00302494
0.00337132
0.00207196
0.00138506
0.000351795
0.000358935
0.000393019
0.000438572
0.000507878
0.000590606
0.000703559
0.000839541
0.00101036
0.00122032
0.00146334
0.00177589
0.00209473
0.00253848
0.00287535
0.00344161
0.00348863
0.00398906
0.00256998
0.00208289
0.000365586
0.000368991
0.000407822
0.000452772
0.000529114
0.000610282
0.000735152
0.000869843
0.00106091
0.00127055
0.00154864
0.00186555
0.00224796
0.00271087
0.00316406
0.00378846
0.00401964
0.00466855
0.00323529
0.00303782
0.000376707
0.000376344
0.000419853
0.000463574
0.000546736
0.000625312
0.00076215
0.000893472
0.0011057
0.00131082
0.0016276
0.00194052
0.00239641
0.00286589
0.00346529
0.00412754
0.00462963
0.00539104
0.00413976
0.00424889
0.000384931
0.000381137
0.000428989
0.000470965
0.000560341
0.000635719
0.000783842
0.000910439
0.00114336
0.00134099
0.00169794
0.00199948
0.00253906
0.00299547
0.00377633
0.00445359
0.00534004
0.00614532
0.00541636
0.00568229
0.000389972
0.000383553
0.000434888
0.000474965
0.000569373
0.000641584
0.000799181
0.000920818
0.00117161
0.00136102
0.00175495
0.002042
0.00266503
0.00309671
0.00409256
0.0047351
0.00617976
0.00694923
0.00732135
0.00739296
0.000391779
0.000383694
0.000438189
0.000475704
0.000574626
0.000643178
0.000809491
0.000924914
0.00119268
0.00137097
0.00180028
0.00206807
0.00277338
0.00316961
0.00438206
0.00496829
0.00711436
0.00781687
0.00978901
0.00930522
0.000389291
0.000382453
0.000435913
0.000472972
0.00057223
0.000640809
0.000808219
0.000923814
0.00119506
0.00137487
0.00181463
0.002084
0.00282426
0.00322066
0.0045795
0.00514177
0.00801978
0.00857981
0.0145156
0.00298809
-3.02363e-05
-3.69645e-05
-4.24108e-05
-4.68885e-05
-5.11765e-05
-5.55114e-05
-5.98043e-05
-6.39288e-05
-6.77932e-05
-7.13345e-05
-7.57695e-05
-9.13854e-05
-0.000105919
-0.000119787
-0.000133509
-0.000147213
-0.000160804
-0.000174181
-0.000187311
-0.000200195
-0.000124583
-0.000151824
-0.000177432
-0.000201761
-0.000225656
-0.000249373
-0.000272779
-0.0002957
-0.000318029
-0.000339703
-0.000175049
-0.000214418
-0.000251399
-0.000286525
-0.000321046
-0.000355334
-0.000389194
-0.00042237
-0.000454712
-0.000486141
-0.000226353
-0.000279063
-0.00032888
-0.000376389
-0.000423102
-0.000469458
-0.00051519
-0.000559956
-0.000603546
-0.000645838
-0.000278274
-0.000346226
-0.000411063
-0.000473174
-0.00053418
-0.000594568
-0.000654025
-0.000712136
-0.000768628
-0.000823335
-0.000330721
-0.000416889
-0.000499928
-0.000579728
-0.000657914
-0.000735041
-0.000810775
-0.000884625
-0.000956243
-0.00102541
-0.000384018
-0.000493307
-0.000599198
-0.0007008
-0.000799922
-0.000897324
-0.000992669
-0.00108536
-0.00117495
-0.00126115
-0.000439627
-0.000580232
-0.000715685
-0.000844316
-0.000968997
-0.00109111
-0.00121029
-0.00132572
-0.00143679
-0.00154316
-0.000501102
-0.000686248
-0.0008608
-0.0010229
-0.00117863
-0.00133087
-0.0014791
-0.00162203
-0.0017588
-0.00188901
-0.000575546
-0.000825413
-0.00105224
-0.00125565
-0.00144889
-0.00163777
-0.00182142
-0.00199758
-0.00216496
-0.00232316
-0.000677174
-0.00102077
-0.00131712
-0.001571
-0.00180917
-0.00204247
-0.00226911
-0.00248516
-0.00268871
-0.00287941
-0.00083405
-0.00131176
-0.00169875
-0.00201287
-0.00230409
-0.00259083
-0.00286933
-0.0031328
-0.00337838
-0.00360592
-0.00108954
-0.00175554
-0.00225831
-0.00264278
-0.00299559
-0.00334584
-0.00368613
-0.00400536
-0.00429927
-0.004568
-0.00150725
-0.00243124
-0.00308369
-0.00355436
-0.00398107
-0.00440648
-0.00481817
-0.00519974
-0.00554597
-0.00585818
-0.00220003
-0.00345605
-0.00429105
-0.00487063
-0.00539739
-0.00592546
-0.00643228
-0.00689332
-0.00730132
-0.00765802
-0.00352166
-0.00514926
-0.00610811
-0.00672648
-0.00730722
-0.00791514
-0.00850779
-0.00904642
-0.00952082
-0.00993365
-0.00611672
-0.00849687
-0.0097809
-0.0104811
-0.0110955
-0.0117416
-0.012363
-0.0129051
-0.0133513
-0.0137025
-0.00728599
-0.00995391
-0.0114236
-0.01245
-0.0134864
-0.0145487
-0.015538
-0.0164098
-0.0171677
-0.017829
-0.0209737
-0.0220951
-0.0206801
-0.0197265
-0.0195659
-0.0197653
-0.020056
-0.020381
-0.0207431
-0.0210808
-7.87198e-05
-9.11702e-05
-0.000102144
-0.00011041
-0.000115667
-0.000118029
-0.000117738
-0.000115129
-0.000110514
-0.000104267
-9.66614e-05
-8.80586e-05
-7.86287e-05
-6.87163e-05
-5.83323e-05
-4.78236e-05
-3.69989e-05
-2.63275e-05
-1.5385e-05
-5.05468e-06
-0.00023023
-0.000270365
-0.000303064
-0.000327603
-0.000343449
-0.000350777
-0.000350224
-0.000342753
-0.000329312
-0.000310979
-0.000288596
-0.000263187
-0.000235314
-0.000205924
-0.000175143
-0.00014395
-0.000111886
-8.02936e-05
-4.78971e-05
-1.69478e-05
-0.000389348
-0.0004571
-0.000512314
-0.000553499
-0.000579859
-0.000591731
-0.000590235
-0.000577048
-0.000553842
-0.00052247
-0.000484401
-0.000441358
-0.000394322
-0.000344862
-0.000293223
-0.00024101
-0.000187464
-0.000134752
-8.05865e-05
-2.86405e-05
-0.000558312
-0.000656062
-0.000735165
-0.000793529
-0.000830149
-0.000845705
-0.000842001
-0.000821611
-0.000787065
-0.000741104
-0.000685888
-0.000623902
-0.000556567
-0.000486098
-0.00041284
-0.000339027
-0.000263535
-0.000189367
-0.00011318
-4.02387e-05
-0.000742741
-0.00087318
-0.000977687
-0.00105355
-0.00109972
-0.00111748
-0.0011096
-0.00107981
-0.00103168
-0.000968951
-0.000894587
-0.000811891
-0.000722752
-0.000630047
-0.000534206
-0.00043807
-0.000340119
-0.00024417
-0.000145814
-5.18572e-05
-0.000948422
-0.00111514
-0.00124684
-0.00134032
-0.00139479
-0.00141254
-0.00139769
-0.00135544
-0.00129064
-0.00120824
-0.00111209
-0.00100639
-0.000893525
-0.000777047
-0.00065745
-0.000538146
-0.000417179
-0.000299128
-0.000178473
-6.34642e-05
-0.00118307
-0.00139045
-0.00155123
-0.00166199
-0.00172265
-0.00173706
-0.00171129
-0.00165242
-0.0015669
-0.00146104
-0.00133974
-0.00120816
-0.00106922
-0.000927138
-0.000782429
-0.000639014
-0.000494455
-0.00035401
-0.000210992
-7.49916e-05
-0.00145687
-0.00170997
-0.00190151
-0.00202827
-0.00209163
-0.00209787
-0.00205573
-0.00197471
-0.0018632
-0.00172912
-0.0015785
-0.00141756
-0.00124979
-0.00107999
-0.000908654
-0.000740134
-0.000571437
-0.000408398
-0.000243097
-8.63478e-05
-0.00178348
-0.00208775
-0.00231096
-0.00245086
-0.0025114
-0.00250253
-0.0024366
-0.00232621
-0.00218204
-0.00201381
-0.00182885
-0.00163446
-0.00143465
-0.00123478
-0.00103521
-0.000840605
-0.000647326
-0.000461664
-0.000274387
-9.73953e-05
-0.00218144
-0.00254211
-0.00279628
-0.00294384
-0.00299309
-0.00295929
-0.00285968
-0.0027106
-0.0025254
-0.00231582
-0.00209057
-0.00185803
-0.00162262
-0.00139011
-0.00116063
-0.00093907
-0.000720974
-0.000512928
-0.000304283
-0.000107919
-0.00267588
-0.00309702
-0.00337846
-0.00352413
-0.00354931
-0.00347699
-0.00333066
-0.0031311
-0.00289453
-0.00263495
-0.00236252
-0.00208655
-0.00181167
-0.00154389
-0.00128288
-0.00103362
-0.0007908
-0.000561079
-0.000332138
-0.000117716
-0.00330088
-0.00378386
-0.00408379
-0.00421176
-0.00419411
-0.00406467
-0.00385477
-0.00359001
-0.00328962
-0.00296989
-0.00264233
-0.00231708
-0.00199873
-0.00169317
-0.00139946
-0.00112217
-0.000854672
-0.000604279
-0.000356695
-0.000126479
-0.00410331
-0.00464376
-0.00494494
-0.00503019
-0.00494282
-0.00473129
-0.00443612
-0.00408809
-0.00370934
-0.00331795
-0.00292634
-0.0025453
-0.00217955
-0.00183375
-0.00150572
-0.00120045
-0.000909728
-0.00064085
-0.000376971
-0.000134065
-0.00514663
-0.0057297
-0.00600082
-0.00600504
-0.00581094
-0.00548487
-0.005077
-0.00462331
-0.00414921
-0.00367398
-0.00320981
-0.00276692
-0.00234824
-0.00195965
-0.00159741
-0.00126538
-0.000953164
-0.000668517
-0.000391414
-0.000140202
-0.0065226
-0.00711454
-0.00730022
-0.00716493
-0.00681396
-0.00633269
-0.00577861
-0.00519158
-0.00460022
-0.00402654
-0.00347992
-0.0029692
-0.00249638
-0.00206498
-0.00166919
-0.00131197
-0.000980859
-0.000684056
-0.000398001
-0.000144285
-0.00838404
-0.00891152
-0.0089157
-0.00854832
-0.00796738
-0.00727915
-0.00654175
-0.00579259
-0.00506131
-0.0043688
-0.0037284
-0.00314537
-0.00261681
-0.00214269
-0.00171499
-0.00133497
-0.000988717
-0.00068382
-0.000394581
-0.0001447
-0.0107824
-0.0111577
-0.0108579
-0.010153
-0.00925299
-0.00828328
-0.00731275
-0.00637081
-0.0054832
-0.00466918
-0.00393477
-0.00327972
-0.00269732
-0.00218368
-0.00172856
-0.00132977
-0.000973724
-0.000664396
-0.000379331
-0.000137459
-0.014304
-0.0139915
-0.0131346
-0.0119778
-0.0106788
-0.00934984
-0.00807056
-0.00689599
-0.00584122
-0.0049055
-0.00408152
-0.00336111
-0.00273236
-0.00218602
-0.00171004
-0.00129761
-0.000937956
-0.000626392
-0.000353329
-0.000117365
-0.0189495
-0.0173489
-0.0154512
-0.0135542
-0.0117714
-0.0101088
-0.00859506
-0.0072483
-0.00606765
-0.00504101
-0.00415206
-0.00338584
-0.00272597
-0.00215917
-0.00167176
-0.00125221
-0.000893903
-0.000580093
-0.00032362
-8.21411e-05
-0.02067
-0.0193875
-0.0173744
-0.0148809
-0.0126599
-0.0106871
-0.00896647
-0.00747897
-0.00620294
-0.00511197
-0.00418032
-0.00338599
-0.00270819
-0.00213028
-0.00163731
-0.00121428
-0.000858908
-0.000540825
-0.000303712
-3.12387e-05
-0.0256824
-0.0195239
-0.0173988
-0.0147475
-0.0126205
-0.0106477
-0.00894511
-0.00745986
-0.00618388
-0.00509068
-0.0041568
-0.00336094
-0.00268237
-0.00210382
-0.00161267
-0.00118665
-0.000841169
-0.000504271
-0.000308261
4.603e-05
-0.0241502
-0.0195672
-0.0174829
-0.0147682
-0.0126443
-0.0106548
-0.00895051
-0.00746123
-0.00618286
-0.00508744
-0.00415192
-0.00335486
-0.00267562
-0.00209641
-0.00160572
-0.00117839
-0.000836117
-0.000493107
-0.000310327
7.07478e-05
-0.0233345
-0.019564
-0.0175335
-0.0148011
-0.0126754
-0.0106706
-0.00896164
-0.00746721
-0.00618569
-0.00508771
-0.00415041
-0.00335199
-0.00267196
-0.00209198
-0.00160142
-0.00117316
-0.000832627
-0.000486451
-0.000310442
8.51524e-05
-0.0227685
-0.0195317
-0.0175214
-0.0148144
-0.0126922
-0.0106793
-0.00896794
-0.00747051
-0.00618713
-0.0050876
-0.00414917
-0.00334986
-0.00266931
-0.00208878
-0.00159834
-0.00116941
-0.000830115
-0.00048178
-0.000310282
9.47586e-05
-0.0223924
-0.0194811
-0.017498
-0.0148188
-0.0126973
-0.0106821
-0.00897012
-0.00747141
-0.00618726
-0.00508703
-0.00414807
-0.00334831
-0.00266751
-0.00208666
-0.00159633
-0.00116698
-0.000828517
-0.000478836
-0.00031021
0.000100441
-0.0222622
-0.0194609
-0.0174853
-0.0148196
-0.0126979
-0.0106824
-0.00897012
-0.00747117
-0.00618691
-0.00508656
-0.00414748
-0.00334759
-0.0026667
-0.00208575
-0.00159545
-0.001166
-0.000827815
-0.00047784
-0.000310075
0.000101854
-0.0223913
-0.0194809
-0.0174875
-0.0148177
-0.0126955
-0.0106807
-0.0089682
-0.00746996
-0.00618614
-0.00508621
-0.00414738
-0.00334767
-0.00266684
-0.00208601
-0.00159566
-0.00116644
-0.000827979
-0.000478797
-0.000309849
9.89433e-05
-0.0227423
-0.0195208
-0.0174975
-0.0148116
-0.012686
-0.0106754
-0.00896334
-0.00746705
-0.00618445
-0.00508558
-0.00414747
-0.00334831
-0.00266775
-0.00208726
-0.00159684
-0.00116814
-0.000828989
-0.000481501
-0.000309672
9.19385e-05
-0.0233279
-0.0195438
-0.0174813
-0.0148046
-0.0126672
-0.0106647
-0.00895448
-0.0074618
-0.00618142
-0.00508443
-0.00414758
-0.0033494
-0.00266937
-0.00208947
-0.00159899
-0.00117113
-0.000830817
-0.000486083
-0.000309249
8.00841e-05
-0.0242493
-0.0195761
-0.0174372
-0.0147925
-0.01264
-0.0106509
-0.00894316
-0.00745569
-0.00617836
-0.0050839
-0.00414879
-0.00335188
-0.00267258
-0.00209345
-0.00160274
-0.0011763
-0.000833496
-0.00049438
-0.000306647
5.87346e-05
-0.0234438
-0.0198281
-0.0173395
-0.0147691
-0.0125807
-0.0106218
-0.00892081
-0.0074447
-0.00617419
-0.00508512
-0.00415379
-0.00335949
-0.00268178
-0.00210416
-0.00161285
-0.00118962
-0.0008404
-0.000515522
-0.000299628
6.71755e-06
-0.0216121
-0.0188348
-0.0166389
-0.0143774
-0.0123005
-0.0104344
-0.00879327
-0.00736153
-0.00612189
-0.00505492
-0.00413919
-0.00335599
-0.00268585
-0.00211371
-0.00162534
-0.00120554
-0.000854563
-0.00053736
-0.000305652
-3.70591e-05
-0.0192924
-0.0174398
-0.0155703
-0.0136462
-0.0117873
-0.0100778
-0.00854743
-0.00719608
-0.00601376
-0.00498745
-0.00410039
-0.0033375
-0.00268146
-0.00211933
-0.00163719
-0.00122266
-0.000871847
-0.000561132
-0.000317015
-7.18895e-05
-0.0163658
-0.0154017
-0.0140596
-0.0125592
-0.0110297
-0.00954155
-0.00816687
-0.00692979
-0.00583137
-0.00486632
-0.00402359
-0.00329268
-0.00265937
-0.00211361
-0.00164219
-0.00123631
-0.000887564
-0.0005841
-0.000329076
-9.89251e-05
-0.0136489
-0.0132956
-0.0124219
-0.0113049
-0.0100836
-0.00885379
-0.00766837
-0.00656928
-0.0055743
-0.00468685
-0.0039018
-0.0032136
-0.00261159
-0.00208902
-0.00163356
-0.00124027
-0.000896725
-0.000601256
-0.000339006
-0.000117179
-0.0113342
-0.01136
-0.0108447
-0.0100412
-0.00909412
-0.00809072
-0.0070933
-0.00614123
-0.00525795
-0.00445638
-0.00373729
-0.00309948
-0.00253549
-0.00204183
-0.00160719
-0.00123027
-0.000895706
-0.000609263
-0.000344697
-0.000127054
-0.00943245
-0.00967665
-0.00941973
-0.00885964
-0.00813336
-0.0073248
-0.00649168
-0.00567634
-0.00490358
-0.004189
-0.00353851
-0.00295475
-0.00243282
-0.00197203
-0.00156212
-0.00120462
-0.000882793
-0.000606729
-0.000344975
-0.000129924
-0.00788086
-0.00824135
-0.00816056
-0.00778444
-0.00723331
-0.00658548
-0.00589435
-0.00519991
-0.00452895
-0.00389798
-0.00331509
-0.00278594
-0.0023078
-0.00188203
-0.00149958
-0.00116378
-0.000857946
-0.00059388
-0.000339546
-0.000127767
-0.00660264
-0.007017
-0.0070522
-0.00681301
-0.0063999
-0.00588387
-0.00531342
-0.00472543
-0.00414572
-0.0035928
-0.00307471
-0.00259905
-0.0021649
-0.0017751
-0.00142182
-0.00110938
-0.000822143
-0.000571884
-0.000328734
-0.000122454
-0.00553666
-0.00596523
-0.00607319
-0.00593456
-0.00563
-0.00522179
-0.00475353
-0.00425857
-0.0037611
-0.00327925
-0.00282261
-0.00239861
-0.00200789
-0.00165428
-0.00133122
-0.00104337
-0.000776749
-0.000542175
-0.000313147
-0.000115295
-0.00463794
-0.00505529
-0.00520476
-0.00513803
-0.00491805
-0.00459782
-0.00421588
-0.003802
-0.0033782
-0.00296176
-0.00256244
-0.00218793
-0.0018397
-0.00152212
-0.00122989
-0.000967615
-0.00072315
-0.000506072
-0.000293458
-0.000107013
-0.00387256
-0.0042625
-0.00443092
-0.00441348
-0.00425837
-0.00400951
-0.00370033
-0.00335696
-0.00299904
-0.00264242
-0.00229651
-0.00196948
-0.00166264
-0.00138074
-0.00111965
-0.00088372
-0.000662619
-0.000464678
-0.000270309
-9.7927e-05
-0.00321383
-0.00356634
-0.00373755
-0.00375182
-0.00364545
-0.0034541
-0.00320609
-0.002924
-0.00262495
-0.00232312
-0.00202735
-0.00174532
-0.00147859
-0.0012319
-0.00100206
-0.000793079
-0.000596292
-0.000418898
-0.000244279
-8.815e-05
-0.00264021
-0.00294935
-0.00311198
-0.00314449
-0.0030739
-0.00292857
-0.00273196
-0.00250315
-0.00225677
-0.00200512
-0.0017561
-0.00151665
-0.00128911
-0.00107712
-0.000878488
-0.000696899
-0.000525177
-0.000369487
-0.000215875
-7.77235e-05
-0.00213407
-0.00239663
-0.00254279
-0.00258343
-0.00253839
-0.00242971
-0.00227635
-0.00209402
-0.00189488
-0.00168932
-0.00148415
-0.00128554
-0.00109559
-0.000917657
-0.00075013
-0.000596239
-0.000450165
-0.000317099
-0.000185537
-6.66883e-05
-0.00168084
-0.00189534
-0.0020197
-0.00206102
-0.0020336
-0.00195409
-0.00183732
-0.00169581
-0.00153932
-0.00137628
-0.00121234
-0.00105267
-0.000899125
-0.00075465
-0.000618048
-0.000492036
-0.000372045
-0.000262317
-0.000153657
-5.51235e-05
-0.00126847
-0.00143447
-0.00153351
-0.00157014
-0.00155432
-0.00149815
-0.00141268
-0.00130739
-0.00118973
-0.00106621
-0.000941232
-0.000818855
-0.000700631
-0.000589068
-0.000483152
-0.000385099
-0.00029149
-0.000205642
-0.000120567
-4.3169e-05
-0.000886808
-0.00100458
-0.00107615
-0.00110436
-0.00109573
-0.00105847
-0.00100019
-0.000927494
-0.000845601
-0.000759119
-0.000671187
-0.000584741
-0.000500947
-0.000421652
-0.000346139
-0.000276058
-0.000209003
-0.000147408
-8.64084e-05
-3.09146e-05
-0.000526393
-0.000597175
-0.000640553
-0.000658136
-0.000653706
-0.000632149
-0.000597948
-0.00055502
-0.000506444
-0.000454987
-0.000402511
-0.000350826
-0.000300589
-0.000253006
-0.0002076
-0.000165443
-0.000124995
-8.78637e-05
-5.11262e-05
-1.80932e-05
-0.000180652
-0.00020258
-0.000217144
-0.000222843
-0.000220964
-0.000213307
-0.000201421
-0.000186649
-0.000170016
-0.000152475
-0.000134628
-0.000117113
-0.000100095
-8.39489e-05
-6.86144e-05
-5.44367e-05
-4.07708e-05
-2.82786e-05
-1.58462e-05
-4.94788e-06
-0.0231476
-0.0251193
-0.0250792
-0.0252842
-0.0256926
-0.0259677
-0.0260342
-0.0259511
-0.025806
-0.025565
-0.016114
-0.0192272
-0.0205641
-0.0213347
-0.0220038
-0.0225289
-0.0228362
-0.0229372
-0.0228705
-0.0226636
-0.0116171
-0.0147084
-0.0163082
-0.0171897
-0.0179321
-0.0186139
-0.0191503
-0.0194978
-0.0196629
-0.0196693
-0.00835012
-0.0109435
-0.0123493
-0.0131713
-0.0138952
-0.0145991
-0.015207
-0.0156685
-0.0159836
-0.0161702
-0.00607408
-0.00818449
-0.00936487
-0.0100985
-0.0107677
-0.0114317
-0.012029
-0.0125181
-0.0128971
-0.0131774
-0.00451301
-0.0062265
-0.00721867
-0.00786201
-0.00845769
-0.00905305
-0.00960043
-0.0100672
-0.0104509
-0.0107595
-0.00341639
-0.00480487
-0.00564169
-0.0062033
-0.00672599
-0.00724967
-0.00773815
-0.00816574
-0.00852953
-0.00883513
-0.00263079
-0.003753
-0.00445932
-0.00494879
-0.00540489
-0.00586165
-0.0062921
-0.00667599
-0.0070103
-0.0072989
-0.00205915
-0.00296203
-0.00355613
-0.00398106
-0.00437712
-0.0047729
-0.00514868
-0.00548867
-0.00579001
-0.00605523
-0.00163677
-0.00235895
-0.00285549
-0.00322215
-0.00356419
-0.00390494
-0.00423024
-0.00452795
-0.00479554
-0.0050346
-0.00131952
-0.00189363
-0.00230542
-0.00261928
-0.00291263
-0.00320387
-0.00348299
-0.00374085
-0.00397524
-0.00418712
-0.00107583
-0.00152924
-0.00186779
-0.00213387
-0.00238327
-0.00263005
-0.00286722
-0.00308798
-0.00329052
-0.00347535
-0.000882722
-0.00123811
-0.00151372
-0.00173672
-0.00194647
-0.00215337
-0.00235259
-0.00253918
-0.00271166
-0.00287027
-0.000723867
-0.000999811
-0.00122147
-0.00140574
-0.00157967
-0.00175075
-0.00191569
-0.00207095
-0.00221535
-0.00234897
-0.000588001
-0.000799435
-0.000974793
-0.00112413
-0.00126558
-0.00140436
-0.00153827
-0.00166483
-0.00178312
-0.00189312
-0.000467397
-0.000626099
-0.000761445
-0.000879104
-0.000990889
-0.00110032
-0.00120598
-0.00130614
-0.00140014
-0.0014879
-0.000356704
-0.0004717
-0.000572104
-0.000660846
-0.000745333
-0.00082787
-0.000907563
-0.000983288
-0.00105456
-0.00112129
-0.000252537
-0.000330032
-0.000399106
-0.000461119
-0.000520286
-0.000577968
-0.000633643
-0.000686632
-0.000736615
-0.000783505
-0.000154342
-0.000198505
-0.000238244
-0.000274283
-0.000308808
-0.000342521
-0.000375107
-0.000406175
-0.000435593
-0.000463432
-5.91651e-05
-7.73889e-05
-9.23319e-05
-0.000104586
-0.000116094
-0.000127421
-0.000138347
-0.000148578
-0.000157862
-0.000165963
0.000356637
0.000349831
0.000405246
0.000432097
0.000532701
0.000588465
0.000758664
0.000854647
0.0011322
0.00128379
0.00173933
0.00196938
0.00274636
0.00308478
0.00452444
0.00500161
0.0081159
0.00859571
0.0163821
0.0060845
0.000346946
0.000339457
0.000394
0.000420454
0.00051826
0.000573091
0.000738611
0.000833506
0.00110302
0.00125397
0.00169478
0.00192626
0.00267083
0.00301695
0.0043593
0.00485877
0.00752005
0.00798954
0.0121125
0.0062055
0.000335813
0.000328073
0.00038143
0.000407223
0.000502038
0.000555568
0.000715837
0.000809222
0.00106931
0.00121938
0.00164199
0.00187549
0.00257865
0.00293512
0.00415548
0.00468201
0.00682944
0.0073382
0.00903994
0.0070283
0.000323357
0.00031581
0.000367338
0.000392731
0.000483714
0.000536389
0.000689848
0.00078251
0.00103035
0.00118103
0.00158009
0.00181841
0.00246933
0.00284115
0.00391694
0.00447924
0.00611198
0.00671149
0.00698763
0.00695376
0.000309704
0.000302626
0.000351832
0.000376961
0.000463433
0.00051549
0.000660884
0.000753228
0.000986598
0.00113861
0.00151008
0.00175445
0.00234594
0.00273455
0.00365692
0.00425572
0.00543727
0.00614757
0.00554149
0.00618632
0.000294932
0.000288511
0.000335017
0.000359907
0.000441344
0.000492831
0.000629202
0.000721279
0.000938542
0.00109193
0.00143311
0.00168338
0.00221179
0.0026159
0.00338811
0.00401616
0.00482785
0.00563667
0.00444952
0.00521004
0.000279117
0.000273479
0.000316982
0.000341598
0.000417574
0.000468422
0.00059503
0.000686657
0.000886644
0.00104099
0.00135028
0.00160532
0.00207
0.00248603
0.00311988
0.00376508
0.00428565
0.00514046
0.00359488
0.00424849
0.000262337
0.00025755
0.000297813
0.000322068
0.000392259
0.000442292
0.000558611
0.000649384
0.000831388
0.000985802
0.00126267
0.00152039
0.0019233
0.0023454
0.0028563
0.00350646
0.0037981
0.00464575
0.00291701
0.00338465
0.000244662
0.000240748
0.000277607
0.000301358
0.000365545
0.000414473
0.000520197
0.000609491
0.000773251
0.000926411
0.00117126
0.00142863
0.00177356
0.00219478
0.00259873
0.00324026
0.00335444
0.00415674
0.00237888
0.00264542
0.000226162
0.000223099
0.00025646
0.000279512
0.00033758
0.000385007
0.000480036
0.000567021
0.000712673
0.000862856
0.00107685
0.00133019
0.0016218
0.002035
0.00234738
0.00296679
0.00294832
0.00368222
0.00195144
0.00203236
0.000206907
0.000204639
0.000234467
0.000256582
0.000308508
0.00035395
0.00043836
0.000522039
0.000650042
0.000795219
0.00098002
0.00122534
0.00146867
0.00186676
0.00210211
0.00268769
0.00257559
0.00322871
0.00160957
0.00153518
0.000186969
0.000185408
0.000211724
0.000232629
0.000278465
0.000321372
0.000395382
0.000474635
0.000585689
0.000723659
0.000881209
0.00111446
0.00131467
0.00169084
0.00186271
0.0024051
0.00223251
0.00279957
0.00133208
0.00113889
0.000166417
0.000165457
0.000188321
0.000207721
0.000247582
0.000287358
0.000351296
0.000424934
0.000519892
0.0006484
0.000780791
0.000997989
0.00116018
0.00150818
0.00162899
0.00212084
0.00191525
0.00239594
0.00110207
0.000828403
0.000145325
0.000144842
0.000164346
0.00018194
0.000215982
0.000252017
0.000306278
0.000373101
0.000452894
0.00056972
0.000679083
0.000876418
0.00100547
0.00131969
0.00140059
0.0018363
0.00161993
0.00201751
0.000906649
0.00058959
0.000123763
0.000123632
0.000139884
0.000155373
0.000183778
0.000215473
0.000260484
0.000319332
0.00038491
0.000487944
0.000576354
0.000750289
0.000850754
0.00112618
0.00117702
0.00155232
0.00134279
0.00166288
0.000736121
0.000409413
0.000101804
0.0001019
0.000115017
0.000128122
0.000151076
0.000177872
0.000214056
0.000263857
0.000316129
0.000403437
0.000472827
0.000620165
0.00069614
0.000928415
0.000957632
0.00126935
0.00108031
0.00132974
0.000583233
0.000276026
7.95204e-05
7.97295e-05
8.98219e-05
0.000100299
0.000117977
0.000139381
0.000167127
0.00020694
0.000246727
0.00031661
0.000368696
0.000486641
0.000541698
0.00072705
0.000741739
0.000987423
0.00082929
0.00101507
0.000442534
0.000178771
5.69836e-05
5.721e-05
6.43772e-05
7.20246e-05
8.45846e-05
0.000100191
0.000119837
0.000148883
0.000176893
0.000227935
0.000264185
0.000350377
0.000387538
0.000522746
0.000528737
0.000706334
0.000587005
0.000715252
0.000310132
0.000107955
3.42629e-05
3.44345e-05
3.87491e-05
4.34158e-05
5.09822e-05
6.04763e-05
7.23014e-05
8.99619e-05
0.000106788
0.00013783
0.000159493
0.00021193
0.000233765
0.000315947
0.000318129
0.000425412
0.000351267
0.00042607
0.000183663
5.53366e-05
1.14291e-05
1.15046e-05
1.29641e-05
1.45451e-05
1.71257e-05
2.03023e-05
2.43722e-05
3.02385e-05
3.61011e-05
4.63577e-05
5.40368e-05
7.12925e-05
7.92976e-05
0.000106224
0.000107855
0.000142677
0.000118601
0.000141827
6.12036e-05
1.54927e-05
0.000386303
0.000378449
0.000437194
0.000466273
0.000573124
0.000632059
0.000811495
0.000911972
0.00120304
0.00135881
0.00183328
0.00206426
0.00287097
0.00319986
0.0047009
0.00515329
0.00850206
0.00899678
0.0196688
0.0160789
0.000384564
0.000376894
0.00043566
0.000463872
0.000571578
0.000629073
0.000810016
0.000908143
0.00120196
0.00135408
0.00183403
0.00205925
0.00287751
0.00319711
0.00473119
0.00516447
0.00865884
0.00920195
0.0207992
0.0202944
0.00038254
0.000375286
0.000433789
0.000461642
0.000569202
0.000626365
0.000807208
0.000904782
0.00119878
0.00135016
0.00183141
0.00205544
0.00287857
0.00319594
0.00474905
0.00517798
0.00876465
0.00938204
0.0215462
0.023197
0.000380332
0.000373365
0.000431718
0.000459125
0.000566534
0.000623247
0.000803953
0.00090082
0.00119489
0.00134531
0.00182748
0.0020501
0.00287694
0.00319184
0.00475861
0.00518311
0.00883679
0.00950507
0.0220447
0.0250477
0.000377935
0.000371123
0.000429374
0.000456293
0.000563552
0.000619678
0.000800227
0.000896191
0.00119023
0.00133941
0.00182217
0.00204306
0.00287231
0.0031846
0.00475972
0.00518021
0.0088715
0.00956463
0.0222859
0.0259067
0.000375335
0.000368589
0.000426732
0.000453187
0.0005602
0.00061572
0.00079594
0.000890991
0.00118467
0.00133263
0.00181525
0.00203457
0.00286435
0.00317463
0.00475189
0.00516967
0.008867
0.00955879
0.0222665
0.0257937
0.000372533
0.000365764
0.000423802
0.000449813
0.000556479
0.00061138
0.000791093
0.000885229
0.0011782
0.00132498
0.00180671
0.00202462
0.00285306
0.00316193
0.00473514
0.00515135
0.00882357
0.00948791
0.0219883
0.024709
0.000369538
0.000362634
0.00042061
0.000446147
0.000552424
0.00060662
0.000785739
0.000878846
0.00117091
0.00131636
0.0017967
0.00201308
0.0028387
0.00314623
0.00470991
0.00512492
0.00874273
0.0093553
0.0214523
0.0226257
0.000366352
0.000359209
0.000417139
0.000442215
0.000548006
0.00060148
0.000779833
0.000871904
0.00116272
0.00130687
0.00178509
0.00200011
0.00282103
0.00312789
0.00467584
0.00509138
0.0086247
0.00916968
0.0206465
0.0194587
0.000362909
0.000355673
0.000413142
0.000438297
0.000542882
0.00059639
0.000772838
0.000865079
0.00115278
0.00129762
0.00177046
0.00198758
0.00279763
0.00311019
0.00462865
0.00505693
0.00846252
0.00895644
0.0194472
0.0150293
)
;

boundaryField
{
    inlet
    {
        type            zeroGradient;
    }
    outlet
    {
        type            fixedValue;
        value           uniform 0;
    }
    upAndBottom
    {
        type            empty;
    }
    obstacle
    {
        type            zeroGradient;
    }
}


// ************************************************************************* //
