/*--------------------------------*- C++ -*----------------------------------*\
| =========                 |                                                 |
| \\      /  F ield         | OpenFOAM: The Open Source CFD Toolbox           |
|  \\    /   O peration     | Version:  v1806                                 |
|   \\  /    A nd           | Web:      www.OpenFOAM.com                      |
|    \\/     M anipulation  |                                                 |
\*---------------------------------------------------------------------------*/
FoamFile
{
    version     2.0;
    format      ascii;
    class       surfaceScalarField;
    location    "440";
    object      phi;
}
// * * * * * * * * * * * * * * * * * * * * * * * * * * * * * * * * * * * * * //

dimensions      [0 3 -1 0 0 0 0];
oriented        oriented;


internalField   nonuniform List<scalar> 
13443
(
-1.24595e-07
0.0585817
-0.0500684
0.00913006
-0.0176432
-1.46088e-13
0.0585731
-0.0500586
0.00913129
-0.017646
1.24596e-07
0.0585731
-0.0500586
0.00913129
-0.017646
0.0585817
-0.0500684
0.00913006
-0.0176432
-3.12339e-08
0.0552649
-0.00342175
0.00673858
-9.60231e-13
0.0552585
-0.00342181
0.0067364
3.12344e-08
0.0552585
-0.00342181
0.0067364
0.0552649
-0.00342175
0.00673858
-8.88877e-08
-0.0041073
-0.0541163
0.00815527
-2.22764e-13
-0.00410393
-0.0541078
0.00815311
8.88867e-08
-0.00410393
-0.0541078
0.00815311
-0.0041073
-0.0541163
0.00815527
-2.35952e-08
0.00589547
-0.0546173
0.0446145
1.18477e-13
0.00589302
-0.0546146
0.0446176
2.35954e-08
0.00589302
-0.0546146
0.0446176
0.00589547
-0.0546173
0.0446145
-1.05168e-07
0.040681
-0.0445206
0.000735547
0.00310417
-3.20386e-12
0.0406862
-0.0445261
0.000736547
0.0031032
1.05168e-07
0.0406862
-0.0445261
0.000736547
0.0031032
0.040681
-0.0445206
0.000735547
0.00310417
-6.06624e-08
0.0228911
0.0188218
-0.0010319
-1.31234e-11
0.0228951
0.0188197
-0.00102867
6.06471e-08
0.0228951
0.0188197
-0.00102867
0.0228911
0.0188218
-0.0010319
-1.12718e-07
0.0143935
-0.0195379
-0.0168028
0.0219474
-9.00729e-14
0.0143945
-0.0195368
-0.0168055
0.0219476
1.12721e-07
0.0143945
-0.0195368
-0.0168055
0.0219476
0.0143935
-0.0195379
-0.0168028
0.0219474
-1.3695e-08
-0.00416444
0.0119505
0.00660743
1.48383e-11
-0.00416382
0.0119471
0.00661124
1.37215e-08
-0.00416382
0.0119471
0.00661124
-0.00416444
0.0119505
0.00660743
2.03144e-08
0.0125316
-0.00952191
-0.0225476
-1.78529e-11
0.0125341
-0.00952599
-0.0225448
-2.03313e-08
0.0125341
-0.00952599
-0.0225448
0.0125316
-0.00952191
-0.0225476
-1.29032e-09
0.00508511
-0.000554345
-0.00453076
5.9928e-14
0.00508443
-0.000554147
-0.00453028
1.28712e-09
0.00508443
-0.000554147
-0.00453028
0.00508511
-0.000554345
-0.00453076
-6.71462e-10
0.00128817
0.00379694
1.26367e-12
0.00128912
0.00379531
6.71046e-10
0.00128912
0.00379531
0.00128817
0.00379694
-1.37745e-09
0.00474442
-0.00057131
-0.00417311
2.27231e-13
0.00474206
-0.000570313
-0.00417175
1.37738e-09
0.00474206
-0.000570313
-0.00417175
0.00474442
-0.00057131
-0.00417311
-3.34064e-08
0.00112422
0.00362023
1.01646e-12
0.00112293
0.0036191
3.3408e-08
0.00112293
0.0036191
0.00112422
0.00362023
-2.21741e-09
-0.00955957
-0.00127875
0.010267
1.69666e-12
-0.00955699
-0.00127876
0.0102654
2.22318e-09
-0.00955699
-0.00127876
0.0102654
-0.00955957
-0.00127875
0.010267
-2.94909e-08
-0.00443838
-0.00594843
0.00794921
0.00243763
-1.71219e-12
-0.00443709
-0.00594854
0.00794813
0.00243747
2.949e-08
-0.00443709
-0.00594854
0.00794813
0.00243747
-0.00443838
-0.00594843
0.00794921
0.00243763
-1.06271e-08
-0.0064053
-0.00559008
0.00755701
-2.50761e-12
-0.00640333
-0.0055896
0.00755583
1.06204e-08
-0.00640333
-0.0055896
0.00755583
-0.0064053
-0.00559008
0.00755701
-7.65915e-09
0.00562881
-0.00639453
-0.00563957
-2.21217e-12
0.00562993
-0.00639272
-0.00564055
7.65568e-09
0.00562993
-0.00639272
-0.00564055
0.00562881
-0.00639453
-0.00563957
-7.10541e-09
0.00332519
-0.00364481
-1.57574e-13
0.00332466
-0.00364327
7.11689e-09
0.00332466
-0.00364327
0.00332519
-0.00364481
-5.02613e-09
-0.00177905
-0.00670636
0.00816323
0.000322189
-2.48039e-12
-0.00177839
-0.00670468
0.00816154
0.000321535
5.02648e-09
-0.00177839
-0.00670468
0.00816154
0.000321535
-0.00177905
-0.00670636
0.00816323
0.000322189
-1.57877e-08
-0.00286849
0.00903866
-2.56942e-12
-0.00286787
0.0090376
1.5785e-08
-0.00286787
0.0090376
-0.00286849
0.00903866
-2.86724e-08
0.00954326
0.00144912
-0.00548786
-0.00550449
-6.06795e-12
0.0095406
0.00144937
-0.00548789
-0.00550212
2.86612e-08
0.0095406
0.00144937
-0.00548789
-0.00550212
0.00954326
0.00144912
-0.00548786
-0.00550449
1.26627e-08
0.00189991
0.00798668
-0.000343341
-2.37289e-12
0.00189912
0.00798575
-0.000344262
-1.26698e-08
0.00189912
0.00798575
-0.000344262
0.00189991
0.00798668
-0.000343341
-2.70032e-08
-0.00634853
-0.000797685
0.00904615
3.85943e-14
-0.00634819
-0.000796921
0.0090442
2.70055e-08
-0.00634819
-0.000796921
0.0090442
-0.00634853
-0.000797685
0.00904615
-5.8069e-09
0.0034596
-0.00178905
-0.00167054
-5.5936e-12
0.0034598
-0.00178821
-0.00167159
5.81038e-09
0.0034598
-0.00178821
-0.00167159
0.0034596
-0.00178905
-0.00167054
-2.45725e-08
0.00490874
-5.43347e-12
0.00490915
2.45615e-08
0.00490915
0.00490874
-9.57999e-09
-0.00272264
0.00515301
0.000894829
-2.93568e-12
-0.00272166
0.00515134
0.00089496
9.58806e-09
-0.00272166
0.00515134
0.00089496
-0.00272264
0.00515301
0.000894829
3.88684e-09
-0.00360823
-0.000785565
0.00167115
-4.23649e-12
-0.00360903
-0.000784422
0.00167179
-3.87955e-09
-0.00360903
-0.000784422
0.00167179
-0.00360823
-0.000785565
0.00167115
-1.43292e-08
-0.013774
-0.00708608
0.0150845
0.00577562
-1.64992e-12
-0.0137702
-0.0070853
0.0150831
0.00577232
1.43336e-08
-0.0137702
-0.0070853
0.0150831
0.00577232
-0.013774
-0.00708608
0.0150845
0.00577562
-1.78782e-08
-0.00995402
-0.0172132
0.0133932
-4.08556e-11
-0.00995404
-0.0172082
0.013392
1.78225e-08
-0.00995404
-0.0172082
0.013392
-0.00995402
-0.0172132
0.0133932
-4.13411e-08
0.0477251
-0.00718022
-0.0514535
0.0109086
-1.09604e-12
0.0477116
-0.00717981
-0.0514461
0.0109143
4.13417e-08
0.0477116
-0.00717981
-0.0514461
0.0109143
0.0477251
-0.00718022
-0.0514535
0.0109086
-7.19345e-08
-0.00698038
0.0373879
0.0173177
-6.10281e-13
-0.00698401
0.037376
0.0173195
7.1936e-08
-0.00698401
0.037376
0.0173195
-0.00698038
0.0373879
0.0173177
-4.14574e-09
-0.0232069
-0.0384991
0.0559446
0.00576135
9.5246e-13
-0.0232168
-0.03849
0.05594
0.00576679
4.14617e-09
-0.0232168
-0.03849
0.05594
0.00576679
-0.0232069
-0.0384991
0.0559446
0.00576135
-2.41453e-08
-0.0305709
-0.0332825
0.0406466
-2.14331e-12
-0.0305782
-0.0332762
0.0406375
2.41504e-08
-0.0305782
-0.0332762
0.0406375
-0.0305709
-0.0332825
0.0406466
-1.16857e-07
0.0179327
-0.015355
-2.07747e-11
0.0179345
-0.0153546
1.1681e-07
0.0179345
-0.0153546
0.0179327
-0.015355
1.30276e-08
0.00668214
1.7077e-10
0.00668542
-1.27066e-08
0.00668542
0.00668214
-1.09503e-08
0.000884291
-3.188e-12
0.000884119
1.09484e-08
0.000884119
0.000884291
-2.72105e-08
-0.00501244
-0.00224057
-1.75449e-12
-0.00501162
-0.0022407
2.72148e-08
-0.00501162
-0.0022407
-0.00501244
-0.00224057
-1.91996e-08
0.0501779
0.00183578
0.00325125
-1.75864e-12
0.050176
0.0018355
0.00324692
1.91991e-08
0.050176
0.0018355
0.00324692
0.0501779
0.00183578
0.00325125
-4.67391e-08
0.00433074
0.00132665
-5.78303e-12
0.00433094
0.00131896
4.67317e-08
0.00433094
0.00131896
0.00433074
0.00132665
1.27307e-09
-0.00845533
0.0218245
-4.25635e-11
-0.00845864
0.0218278
-1.34079e-09
-0.00845864
0.0218278
-0.00845533
0.0218245
9.35721e-09
-0.00695967
0.000478041
0.00146918
-2.60966e-12
-0.00695838
0.000477706
0.00146906
-9.35268e-09
-0.00695838
0.000477706
0.00146906
-0.00695967
0.000478041
0.00146918
-9.95755e-08
0.0222462
-0.0259719
1.98919e-11
0.0222448
-0.02597
9.96114e-08
0.0222448
-0.02597
0.0222462
-0.0259719
-2.49162e-08
-0.00908873
-0.000384941
0.00251403
-2.71613e-12
-0.00908918
-0.000383725
0.0025145
2.49152e-08
-0.00908918
-0.000383725
0.0025145
-0.00908873
-0.000384941
0.00251403
-1.05341e-08
-0.0116228
-0.000296403
0.00283047
-2.71165e-12
-0.0116229
-0.000296533
0.00283021
1.0533e-08
-0.0116229
-0.000296533
0.00283021
-0.0116228
-0.000296403
0.00283047
-8.53429e-09
-0.0129869
-0.000706344
0.00207044
-2.86351e-12
-0.0129868
-0.000706486
0.00207043
8.5342e-09
-0.0129868
-0.000706486
0.00207043
-0.0129869
-0.000706344
0.00207044
-5.80955e-09
-0.0141094
-0.000668755
0.00179124
-2.8748e-12
-0.0141093
-0.000668935
0.00179137
5.80876e-09
-0.0141093
-0.000668935
0.00179137
-0.0141094
-0.000668755
0.00179124
-2.61819e-09
-0.0142207
-0.000457068
0.000568438
-2.80647e-12
-0.0142205
-0.000457324
0.000568602
2.61738e-09
-0.0142205
-0.000457324
0.000568602
-0.0142207
-0.000457068
0.000568438
-1.08623e-09
-0.0151681
0.000835059
0.000112324
-2.38013e-12
-0.0151681
0.00083488
0.00011264
1.08462e-09
-0.0151681
0.00083488
0.00011264
-0.0151681
0.000835059
0.000112324
3.77027e-10
0.000775627
0.000535773
-0.0164795
-1.72477e-12
0.000776236
0.00053492
-0.0164792
-3.80486e-10
0.000776236
0.00053492
-0.0164792
0.000775627
0.000535773
-0.0164795
4.25243e-10
0.015154
0.000862487
-0.0152409
-1.5415e-12
0.0151538
0.000862363
-0.01524
-4.27203e-10
0.0151538
0.000862363
-0.01524
0.015154
0.000862487
-0.0152409
7.06564e-11
0.0155136
0.000475477
-2.39975e-12
0.0155133
0.00047544
-7.1562e-11
0.0155133
0.00047544
0.0155136
0.000475477
-2.11079e-09
0.0145235
0.000533051
-2.8427e-12
0.0145233
0.000532681
2.10976e-09
0.0145233
0.000532681
0.0145235
0.000533051
-7.88607e-09
0.0127186
0.00113615
-3.00541e-12
0.0127181
0.00113619
7.88516e-09
0.0127181
0.00113619
0.0127186
0.00113615
-1.19438e-08
0.0110894
0.000922883
-3.17736e-12
0.0110886
0.000922996
1.19429e-08
0.0110886
0.000922996
0.0110894
0.000922883
-1.43562e-08
0.00899401
0.00179899
-2.74934e-12
0.00899283
0.00179927
1.43565e-08
0.00899283
0.00179927
0.00899401
0.00179899
-1.38369e-08
0.00693145
0.00167763
-3.66595e-12
0.00693155
0.00167754
1.38382e-08
0.00693155
0.00167754
0.00693145
0.00167763
-3.50357e-08
0.00502955
0.00237997
-4.66154e-12
0.00502895
0.00238027
3.50335e-08
0.00502895
0.00238027
0.00502955
0.00237997
-1.30312e-08
0.00245885
0.00178515
-7.70856e-12
0.00245885
0.00178566
1.3022e-08
0.00245885
0.00178566
0.00245885
0.00178515
-4.90593e-09
-0.00716592
-4.00049e-12
-0.00716437
4.90037e-09
-0.00716437
-0.00716592
8.19718e-09
-0.00481807
-3.40959e-12
-0.00481724
-8.19895e-09
-0.00481724
-0.00481807
1.30282e-08
-0.00693746
0.00449935
-7.93375e-12
-0.00693796
0.00450101
-1.30443e-08
-0.00693796
0.00450101
-0.00693746
0.00449935
-1.58971e-08
-0.00922585
0.00396604
-6.29539e-12
-0.00922627
0.00396583
1.5886e-08
-0.00922627
0.00396583
-0.00922585
0.00396604
-8.45931e-09
-0.0109357
0.00350889
-3.82078e-12
-0.0109358
0.00350883
8.45398e-09
-0.0109358
0.00350883
-0.0109357
0.00350889
-1.04087e-08
-0.0127941
0.00278124
-2.85368e-12
-0.0127939
0.00278105
1.04047e-08
-0.0127939
0.00278105
-0.0127941
0.00278124
-5.80279e-09
-0.0135854
0.00192742
-2.2116e-12
-0.0135856
0.00192784
5.79961e-09
-0.0135856
0.00192784
-0.0135854
0.00192742
-4.15213e-09
-0.0146831
0.00163078
-2.02769e-12
-0.0146833
0.00163045
4.14861e-09
-0.0146833
0.00163045
-0.0146831
0.00163078
-7.58514e-10
-0.0150605
0.00085288
-1.87985e-12
-0.0150606
0.000852753
7.5381e-10
-0.0150606
0.000852753
-0.0150605
0.00085288
1.20647e-10
-0.0147581
0.000560113
-1.38773e-12
-0.0147581
0.000559859
-1.2551e-10
-0.0147581
0.000559859
-0.0147581
0.000560113
-2.31627e-08
0.0342938
-0.0288504
-4.03854e-12
0.0342904
-0.0288512
2.31654e-08
0.0342904
-0.0288512
0.0342938
-0.0288504
-2.08653e-08
-0.00914045
0.00448858
-1.49879e-12
-0.00914024
0.00449035
2.08603e-08
-0.00914024
0.00449035
-0.00914045
0.00448858
-8.8512e-09
-0.0104312
0.00412125
-2.39194e-12
-0.010431
0.00412095
8.84686e-09
-0.010431
0.00412095
-0.0104312
0.00412125
-8.77495e-09
-0.0120893
0.00372855
-2.08099e-12
-0.0120896
0.00372901
8.77154e-09
-0.0120896
0.00372901
-0.0120893
0.00372855
-4.56581e-09
-0.0128835
0.00258542
-2.78119e-12
-0.0128842
0.00258597
4.56227e-09
-0.0128842
0.00258597
-0.0128835
0.00258542
-1.10901e-09
-0.0137469
0.00143189
-2.79946e-12
-0.0137474
0.00143182
1.10577e-09
-0.0137474
0.00143182
-0.0137469
0.00143189
3.54284e-09
-0.0142459
0.000611277
-2.43251e-12
-0.0142461
0.000611329
-3.54599e-09
-0.0142461
0.000611329
-0.0142459
0.000611277
1.43886e-10
-0.0148657
0.00115562
-1.83813e-12
-0.0148657
0.0011545
-1.46716e-10
-0.0148657
0.0011545
-0.0148657
0.00115562
4.14538e-09
-0.000843396
0.00067749
-0.0146998
-1.24084e-12
-0.000842687
0.000676642
-0.0146996
-4.14891e-09
-0.000842687
0.000676642
-0.0146996
-0.000843396
0.00067749
-0.0146998
4.58424e-09
-0.00128091
-0.016042
-1.32223e-12
-0.00128058
-0.0160413
-4.58826e-09
-0.00128058
-0.0160413
-0.00128091
-0.016042
7.2611e-09
-0.000616447
-0.0159054
-4.86693e-13
-0.000616224
-0.0159043
-7.26434e-09
-0.000616224
-0.0159043
-0.000616447
-0.0159054
1.00417e-08
-0.00059024
-0.0147843
-4.36792e-13
-0.00059082
-0.0147835
-1.00462e-08
-0.00059082
-0.0147835
-0.00059024
-0.0147843
2.09312e-08
-0.0423945
0.0153907
3.88834e-12
-0.0423889
0.0153903
-2.09134e-08
-0.0423889
0.0153903
-0.0423945
0.0153907
-5.91795e-08
-0.0486393
-5.10806e-12
-0.0486365
5.9178e-08
-0.0486365
-0.0486393
-2.02731e-08
-0.0514888
-3.98626e-12
-0.0514853
2.02689e-08
-0.0514853
-0.0514888
-1.99506e-08
-0.0543902
0.00473722
4.81108e-15
-0.0543852
0.00473534
1.99518e-08
-0.0543852
0.00473534
-0.0543902
0.00473722
-5.82121e-08
-0.0648034
0.00699154
6.44022e-14
-0.0647966
0.00698951
5.82132e-08
-0.0647966
0.00698951
-0.0648034
0.00699154
-1.53751e-07
-0.0456221
0.0077902
-0.0269713
-1.87735e-13
-0.0456174
0.00779231
-0.0269716
1.53751e-07
-0.0456174
0.00779231
-0.0269716
-0.0456221
0.0077902
-0.0269713
-7.61341e-08
-0.0559185
0.0161919
-7.54607e-13
-0.0559104
0.0161859
7.61328e-08
-0.0559104
0.0161859
-0.0559185
0.0161919
-8.60099e-08
-0.00460852
0.00813727
-0.0594471
2.42502e-14
-0.00460774
0.00814137
-0.0594441
8.60096e-08
-0.00460774
0.00814137
-0.0594441
-0.00460852
0.00813727
-0.0594471
-8.34778e-08
0.000568661
-0.0597944
1.76449e-13
0.000570701
-0.0597931
8.34781e-08
0.000570701
-0.0597931
0.000568661
-0.0597944
-9.80248e-08
0.00597647
-0.059524
1.74391e-14
0.00598115
-0.0595184
9.80248e-08
0.00598115
-0.0595184
0.00597647
-0.059524
-6.85422e-08
0.0557173
0.0102621
-0.0600029
-3.73877e-14
0.0557183
0.0102624
-0.0599996
6.85424e-08
0.0557183
0.0102624
-0.0599996
0.0557173
0.0102621
-0.0600029
-9.39319e-08
0.0560117
0.00786097
-3.13152e-13
0.0560095
0.00786182
9.39317e-08
0.0560095
0.00786182
0.0560117
0.00786097
-4.60095e-08
0.0557758
0.00936602
-7.78364e-13
0.0557754
0.00936536
4.60084e-08
0.0557754
0.00936536
0.0557758
0.00936602
-8.89575e-08
0.0533935
0.00912099
-9.00589e-13
0.0533938
0.00911795
8.89568e-08
0.0533938
0.00911795
0.0533935
0.00912099
-1.13249e-07
0.0496085
0.00703633
-2.27932e-12
0.0496042
0.00703641
1.13249e-07
0.0496042
0.00703641
0.0496085
0.00703633
-5.98088e-08
0.0432516
0.00768365
-4.20032e-12
0.0432467
0.00767632
5.98069e-08
0.0432467
0.00767632
0.0432516
0.00768365
-7.84188e-08
0.0398851
0.00647071
1.88895e-11
0.0398808
0.0064691
7.84571e-08
0.0398808
0.0064691
0.0398851
0.00647071
-3.2045e-08
0.0243353
0.00709453
1.08934e-10
0.0243289
0.00709316
3.22631e-08
0.0243289
0.00709316
0.0243353
0.00709453
-2.05899e-08
0.0135917
-0.00646955
-3.74794e-11
0.0135939
-0.00647315
2.05488e-08
0.0135939
-0.00647315
0.0135917
-0.00646955
-4.12839e-08
0.0180102
-0.0261285
0.0215116
7.15966e-12
0.018015
-0.0261358
0.0215127
4.12942e-08
0.018015
-0.0261358
0.0215127
0.0180102
-0.0261285
0.0215116
-6.20359e-08
0.0251234
0.00797129
-6.94146e-11
0.0251229
0.00797523
6.19145e-08
0.0251229
0.00797523
0.0251234
0.00797129
-1.47746e-08
-0.0120648
0.0184831
0.00553226
-3.19533e-11
-0.0120675
0.0184826
0.0055319
1.47158e-08
-0.0120675
0.0184826
0.0055319
-0.0120648
0.0184831
0.00553226
5.49682e-09
-0.00411559
0.0139981
7.3737e-12
-0.0041176
0.0139978
-5.49744e-09
-0.0041176
0.0139978
-0.00411559
0.0139981
-2.28124e-08
-0.00620347
0.00519835
-7.3719e-12
-0.00620153
0.00520039
2.27981e-08
-0.00620153
0.00520039
-0.00620347
0.00519835
-3.54689e-08
-0.00828658
0.00604918
-3.53366e-12
-0.00828567
0.00604994
3.54609e-08
-0.00828567
0.00604994
-0.00828658
0.00604918
-1.33167e-08
-0.010053
0.00527534
-3.26778e-12
-0.0100525
0.00527563
1.33106e-08
-0.0100525
0.00527563
-0.010053
0.00527534
-1.28448e-08
-0.0118966
0.00462482
-3.26729e-12
-0.0118963
0.00462486
1.28389e-08
-0.0118963
0.00462486
-0.0118966
0.00462482
-2.65091e-09
-0.013061
0.00309187
-2.61161e-12
-0.0130607
0.00309217
2.64561e-09
-0.0130607
0.00309217
-0.013061
0.00309187
-4.23813e-09
-0.0136243
0.00219408
-2.29836e-12
-0.0136246
0.00219435
4.23209e-09
-0.0136246
0.00219435
-0.0136243
0.00219408
6.41562e-10
-0.0137103
0.000938826
-1.82875e-12
-0.0137104
0.000938626
-6.48361e-10
-0.0137104
0.000938626
-0.0137103
0.000938826
1.12626e-11
-0.0132433
9.31868e-05
-1.07341e-12
-0.0132439
9.32874e-05
-1.80693e-11
-0.0132439
9.32874e-05
-0.0132433
9.31868e-05
6.89546e-09
-0.0128219
-0.00101168
-1.04881e-13
-0.0128223
-0.00101239
-6.90148e-09
-0.0128223
-0.00101239
-0.0128219
-0.00101168
-1.4255e-08
-0.0310948
0.018558
1.42987e-10
-0.0310906
0.0185487
1.45374e-08
-0.0310906
0.0185487
-0.0310948
0.018558
-2.05694e-08
-0.0387675
0.0147672
-1.721e-12
-0.0387624
0.0147649
2.07098e-08
-0.0387624
0.0147649
-0.0387675
0.0147672
-1.81517e-08
-0.0457515
0.0134548
-5.96438e-11
-0.0457483
0.013455
1.81018e-08
-0.0457483
0.013455
-0.0457515
0.0134548
-1.12127e-07
-0.0498325
0.0117647
-2.53029e-11
-0.0498348
0.0117626
1.12093e-07
-0.0498348
0.0117626
-0.0498325
0.0117647
-1.50794e-07
-0.0542251
0.0114291
-8.79357e-13
-0.0542286
0.0114301
1.50788e-07
-0.0542286
0.0114301
-0.0542251
0.0114291
-1.25967e-07
-0.0563338
0.0112299
5.53504e-13
-0.0563396
0.0112289
1.25966e-07
-0.0563396
0.0112289
-0.0563338
0.0112299
-8.94517e-08
-0.057155
0.0101873
1.09767e-13
-0.0571615
0.0101871
8.9451e-08
-0.0571615
0.0101871
-0.057155
0.0101873
-7.63847e-08
-0.0599614
0.0106675
-3.76619e-14
-0.0599667
0.010667
7.63846e-08
-0.0599667
0.010667
-0.0599614
0.0106675
-6.12115e-08
-0.0602899
0.0105906
-7.36969e-14
-0.0602937
0.0105893
6.12116e-08
-0.0602937
0.0105893
-0.0602899
0.0105906
1.48594e-08
0.0204014
0.00977686
-3.02188e-13
0.0204026
0.00977026
-1.48635e-08
0.0204026
0.00977026
0.0204014
0.00977686
-7.2615e-08
0.0239283
-1.33773e-12
0.0239151
7.26244e-08
0.0239151
0.0239283
-8.61156e-08
-0.0560307
0.00931453
-6.3838e-13
-0.0560305
0.00931967
8.61154e-08
-0.0560305
0.00931967
-0.0560307
0.00931453
-1.00305e-07
-0.0579697
0.00893059
-1.01268e-12
-0.0579735
0.00893232
1.00304e-07
-0.0579735
0.00893232
-0.0579697
0.00893059
-5.81698e-08
-0.0606978
0.0105184
-1.26286e-12
-0.0606987
0.0105175
5.8167e-08
-0.0606987
0.0105175
-0.0606978
0.0105184
-9.22555e-08
-0.05512
0.0106142
-3.27595e-13
-0.0551257
0.0106127
9.22541e-08
-0.0551257
0.0106127
-0.05512
0.0106142
-5.78911e-08
-0.0599685
0.0129858
-1.54096e-13
-0.059968
0.0129837
5.78905e-08
-0.059968
0.0129837
-0.0599685
0.0129858
-7.25236e-08
-0.00715429
0.0094496
-0.0622638
-1.40067e-13
-0.00715167
0.0094481
-0.0622645
7.25232e-08
-0.00715167
0.0094481
-0.0622645
-0.00715429
0.0094496
-0.0622638
-7.2122e-08
-0.00388466
-0.0627167
-1.48014e-13
-0.00388167
-0.0627141
7.21217e-08
-0.00388167
-0.0627141
-0.00388466
-0.0627167
-5.45776e-08
0.000556349
-0.0642353
-1.57849e-15
0.000555196
-0.0642301
5.45775e-08
0.000555196
-0.0642301
0.000556349
-0.0642353
-7.05325e-08
0.00429813
-0.0632657
-7.28334e-14
0.00429726
-0.0632605
7.05324e-08
0.00429726
-0.0632605
0.00429813
-0.0632657
-5.9169e-08
0.00794418
-0.0636489
-8.21909e-14
0.00794336
-0.0636458
5.9169e-08
0.00794336
-0.0636458
0.00794418
-0.0636489
-5.16057e-08
0.00960601
-0.0619516
-1.43665e-13
0.00960513
-0.0619555
5.16057e-08
0.00960513
-0.0619555
0.00960601
-0.0619516
-1.02763e-07
-0.0205084
0.00713284
-3.13016e-12
-0.0204917
0.00712448
1.02741e-07
-0.0204917
0.00712448
-0.0205084
0.00713284
-6.67602e-08
-0.0295677
-1.07264e-11
-0.0295572
6.67367e-08
-0.0295572
-0.0295677
-6.76929e-09
-0.00756324
0.00641226
4.27905e-13
-0.00756205
0.00641185
6.76861e-09
-0.00756205
0.00641185
-0.00756324
0.00641226
-9.14289e-09
-0.00932897
0.005887
-1.19433e-12
-0.00932847
0.00588735
9.13982e-09
-0.00932847
0.00588735
-0.00932897
0.005887
-5.79604e-09
-0.0105364
0.00493598
-2.00366e-12
-0.0105357
0.00493626
5.79306e-09
-0.0105357
0.00493626
-0.0105364
0.00493598
1.06806e-09
-0.0115575
0.00360655
-2.58179e-12
-0.011556
0.00360621
-1.071e-09
-0.011556
0.00360621
-0.0115575
0.00360655
-1.32573e-09
-0.013054
0.00292836
-2.6604e-12
-0.0130521
0.00292797
1.32269e-09
-0.0130521
0.00292797
-0.013054
0.00292836
4.04223e-09
-0.0138814
0.00143867
-2.448e-12
-0.0138795
0.00143871
-4.04524e-09
-0.0138795
0.00143871
-0.0138814
0.00143867
-4.11749e-09
-0.0133543
0.000628529
-1.96945e-12
-0.0133537
0.000628686
4.11556e-09
-0.0133537
0.000628686
-0.0133543
0.000628529
-4.59811e-10
-0.012947
0.000270153
-1.31715e-12
-0.0129474
0.000270321
4.60027e-10
-0.0129474
0.000270321
-0.012947
0.000270153
7.85892e-09
0.000254915
-0.00184852
-0.0113534
-1.84772e-12
0.000254683
-0.00184861
-0.0113534
-7.86011e-09
0.000254683
-0.00184861
-0.0113534
0.000254915
-0.00184852
-0.0113534
6.06708e-09
-0.000540295
-0.0139046
-8.59987e-13
-0.000540477
-0.0139044
-6.06995e-09
-0.000540477
-0.0139044
-0.000540295
-0.0139046
7.43424e-09
-0.00109592
-0.0154864
-3.72088e-13
-0.00109634
-0.0154855
-7.43753e-09
-0.00109634
-0.0154855
-0.00109592
-0.0154864
7.69493e-09
-0.00116857
-0.0158327
-2.26638e-13
-0.00116888
-0.0158318
-7.69845e-09
-0.00116888
-0.0158318
-0.00116857
-0.0158327
7.498e-09
-0.00158777
-0.0143651
-7.15888e-14
-0.00158798
-0.0143644
-7.50275e-09
-0.00158798
-0.0143644
-0.00158777
-0.0143651
7.73251e-09
-0.00225761
-0.0121521
5.24297e-13
-0.00225724
-0.012153
-7.73824e-09
-0.00225724
-0.012153
-0.00225761
-0.0121521
-3.88062e-08
0.0141406
0.0202589
3.71509e-12
0.0141419
0.0202584
3.88094e-08
0.0141419
0.0202584
0.0141406
0.0202589
-7.72995e-08
0.025618
0.00700583
5.59269e-12
0.0256136
0.00701094
7.73036e-08
0.0256136
0.00701094
0.025618
0.00700583
1.15279e-08
-0.00662338
0.00547319
-2.96118e-12
-0.00662265
0.00547487
-1.15316e-08
-0.00662265
0.00547487
-0.00662338
0.00547319
-1.15443e-08
-0.00736353
0.00678935
-2.41237e-12
-0.00736443
0.00679171
1.15399e-08
-0.00736443
0.00679171
-0.00736353
0.00678935
-3.59891e-09
-0.00859645
0.00650826
-2.13856e-12
-0.00859681
0.00650801
3.59409e-09
-0.00859681
0.00650801
-0.00859645
0.00650826
-6.83325e-09
-0.00968299
0.00571136
-2.47166e-12
-0.00968303
0.00571107
6.82772e-09
-0.00968303
0.00571107
-0.00968299
0.00571136
9.425e-10
-0.0107118
0.00412072
-2.17125e-12
-0.0107114
0.00412057
-9.48332e-10
-0.0107114
0.00412057
-0.0107118
0.00412072
3.68716e-10
-0.0110035
0.0024857
-1.97942e-12
-0.0110031
0.00248602
-3.75715e-10
-0.0110031
0.00248602
-0.0110035
0.0024857
-1.38124e-11
-0.0112344
0.00116975
-1.30718e-12
-0.0112343
0.00116988
6.19494e-12
-0.0112343
0.00116988
-0.0112344
0.00116975
1.35079e-09
-0.0108249
-0.000316298
-2.50441e-13
-0.0108252
-0.000315875
-1.35819e-09
-0.0108252
-0.000315875
-0.0108249
-0.000316298
5.60245e-09
-0.0100527
-0.00178393
6.72923e-13
-0.0100531
-0.0017845
-5.60916e-09
-0.0100531
-0.0017845
-0.0100527
-0.00178393
7.13524e-09
-0.00893708
-0.00337319
1.2527e-12
-0.00893736
-0.00337292
-7.14209e-09
-0.00893736
-0.00337292
-0.00893708
-0.00337319
-3.22607e-08
-0.0352413
0.0242316
-1.6283e-11
-0.0352393
0.0242308
3.22966e-08
-0.0352393
0.0242308
-0.0352413
0.0242316
-6.30329e-08
-0.041554
0.02108
-2.46287e-11
-0.0415489
0.0210744
6.30785e-08
-0.0415489
0.0210744
-0.041554
0.02108
-7.13897e-08
-0.0463321
0.018233
-1.98965e-11
-0.0463246
0.0182306
7.13921e-08
-0.0463246
0.0182306
-0.0463321
0.018233
-1.41594e-07
-0.0506082
0.0160409
-5.65948e-12
-0.0506099
0.0160478
1.4159e-07
-0.0506099
0.0160478
-0.0506082
0.0160409
-1.33678e-07
-0.054229
0.01505
3.54242e-13
-0.054233
0.015053
1.33676e-07
-0.054233
0.015053
-0.054229
0.01505
-9.52823e-08
-0.0573682
0.0143692
3.01617e-13
-0.0573735
0.0143693
9.52809e-08
-0.0573735
0.0143693
-0.0573682
0.0143692
-8.31776e-08
-0.0603549
0.013174
-3.05143e-14
-0.0603608
0.0131744
8.31766e-08
-0.0603608
0.0131744
-0.0603549
0.013174
-7.59113e-08
-0.0608533
0.0111659
-1.59466e-13
-0.0608599
0.011166
7.59108e-08
-0.0608599
0.011166
-0.0608533
0.0111659
-5.76122e-08
-0.0617224
0.0114599
-1.78407e-13
-0.0617293
0.0114586
5.76119e-08
-0.0617293
0.0114586
-0.0617224
0.0114599
-4.55688e-08
-0.062994
0.0108776
-1.88401e-13
-0.0630002
0.0108761
4.55685e-08
-0.0630002
0.0108761
-0.062994
0.0108776
-2.29854e-08
-0.0288964
0.0195892
0.0295661
2.17482e-12
-0.0288903
0.01958
0.0295686
2.2988e-08
-0.0288903
0.01958
0.0295686
-0.0288964
0.0195892
0.0295661
-9.35723e-08
-0.041706
0.0225866
-3.3621e-12
-0.0416997
0.0225796
9.3569e-08
-0.0416997
0.0225796
-0.041706
0.0225866
-1.3795e-07
-0.0406727
0.022895
-5.35712e-13
-0.0406781
0.0228933
1.37952e-07
-0.0406781
0.0228933
-0.0406727
0.022895
-4.68224e-08
-0.0461754
0.0228205
-1.51385e-12
-0.0461791
0.0228205
4.6818e-08
-0.0461791
0.0228205
-0.0461754
0.0228205
-3.13255e-08
0.0379448
0.00726241
-2.35487e-12
0.0379379
0.00725566
3.13226e-08
0.0379379
0.00725566
0.0379448
0.00726241
-1.65621e-08
-0.0529486
0.0176818
-4.83562e-14
-0.0529502
0.0176854
1.65619e-08
-0.0529502
0.0176854
-0.0529486
0.0176818
-4.82154e-08
-0.0563639
0.0127299
-3.91113e-13
-0.0563711
0.0127405
4.82146e-08
-0.0563711
0.0127405
-0.0563639
0.0127299
-7.89564e-08
-0.0580041
0.0105709
-4.23277e-13
-0.0580113
0.0105725
7.89555e-08
-0.0580113
0.0105725
-0.0580041
0.0105709
-7.31561e-08
-0.0600397
0.012554
-6.49967e-13
-0.0600452
0.0125514
7.31546e-08
-0.0600452
0.0125514
-0.0600397
0.012554
-7.01266e-08
-0.0621458
0.0127204
-4.1032e-13
-0.0621511
0.0127185
7.01255e-08
-0.0621511
0.0127185
-0.0621458
0.0127204
-6.54599e-08
-0.0605508
0.0113909
-3.04644e-13
-0.0605572
0.0113897
6.5459e-08
-0.0605572
0.0113897
-0.0605508
0.0113909
-5.74955e-08
-0.0632843
0.0121831
-2.33232e-13
-0.0632895
0.0121804
5.7495e-08
-0.0632895
0.0121804
-0.0632843
0.0121831
-5.15112e-08
-0.00798325
0.00904306
-0.064344
-1.67515e-13
-0.00798262
0.00904087
-0.0643478
5.15109e-08
-0.00798262
0.00904087
-0.0643478
-0.00798325
0.00904306
-0.064344
-6.07231e-08
-0.00498155
-0.0652654
-1.77706e-13
-0.00498198
-0.0652652
6.07228e-08
-0.00498198
-0.0652652
-0.00498155
-0.0652654
-6.46734e-08
-0.00233511
-0.0653631
-1.81119e-13
-0.00233515
-0.065361
6.46729e-08
-0.00233515
-0.065361
-0.00233511
-0.0653631
-6.29753e-08
-3.37652e-05
-0.0665366
-1.12516e-13
-3.27339e-05
-0.0665325
6.2975e-08
-3.27339e-05
-0.0665325
-3.37652e-05
-0.0665366
-5.78293e-08
0.00325949
-0.0665589
-1.89797e-13
0.00326075
-0.066554
5.7829e-08
0.00326075
-0.066554
0.00325949
-0.0665589
-5.32749e-08
0.00456933
-0.0649587
-1.87146e-13
0.0045709
-0.064956
5.32746e-08
0.0045709
-0.064956
0.00456933
-0.0649587
-4.15895e-08
0.00756427
-0.0649465
-2.00138e-13
0.00756381
-0.0649485
4.15892e-08
0.00756381
-0.0649485
0.00756427
-0.0649465
-3.75678e-08
0.00961787
-0.0650476
-1.48642e-13
0.00961622
-0.0650527
3.75675e-08
0.00961622
-0.0650527
0.00961787
-0.0650476
-1.05581e-08
-0.0065504
0.00737258
-2.04332e-12
-0.00654981
0.00737205
1.05552e-08
-0.00654981
0.00737205
-0.0065504
0.00737258
-8.5855e-09
-0.00828731
0.00762391
-1.68828e-12
-0.00828595
0.00762349
8.58435e-09
-0.00828595
0.00762349
-0.00828731
0.00762391
-2.31559e-09
-0.0091969
0.00584558
-2.24109e-12
-0.00919614
0.00584644
2.31537e-09
-0.00919614
0.00584644
-0.0091969
0.00584558
-1.17854e-09
-0.0101385
0.00454814
-2.59428e-12
-0.0101375
0.00454757
1.17748e-09
-0.0101375
0.00454757
-0.0101385
0.00454814
-1.01082e-09
-0.0104291
0.00321901
-2.65596e-12
-0.0104284
0.00321886
1.0085e-09
-0.0104284
0.00321886
-0.0104291
0.00321901
6.66164e-09
-0.010755
0.00176454
-3.88322e-12
-0.010754
0.00176431
-6.66533e-09
-0.010754
0.00176431
-0.010755
0.00176454
-6.79713e-10
-0.0106534
0.000526922
-4.66639e-12
-0.0106531
0.00052779
6.75716e-10
-0.0106531
0.00052779
-0.0106534
0.000526922
8.58141e-10
-0.00937897
-0.00100428
-3.02185e-12
-0.00937912
-0.00100364
-8.60987e-10
-0.00937912
-0.00100364
-0.00937897
-0.00100428
9.1172e-09
-0.00824449
-0.002983
-2.90074e-12
-0.00824476
-0.00298297
-9.11947e-09
-0.00824476
-0.00298297
-0.00824449
-0.002983
7.73871e-09
0.00330478
-0.00661035
-0.00493893
-2.68552e-12
0.00330431
-0.00661079
-0.00493827
-7.74031e-09
0.00330431
-0.00661079
-0.00493827
0.00330478
-0.00661035
-0.00493893
1.10181e-08
0.00175099
-0.00979958
-2.17227e-12
0.00175051
-0.00979961
-1.102e-08
0.00175051
-0.00979961
0.00175099
-0.00979958
1.14364e-08
0.00049438
-0.012648
-1.43316e-12
0.000493889
-0.0126478
-1.14404e-08
0.000493889
-0.0126478
0.00049438
-0.012648
1.06532e-08
-0.000412309
-0.0145797
-7.7575e-13
-0.000412316
-0.0145792
-1.06569e-08
-0.000412316
-0.0145792
-0.000412309
-0.0145797
1.01724e-08
-0.0012963
-0.0149487
-4.55695e-13
-0.00129589
-0.0149482
-1.01758e-08
-0.00129589
-0.0149482
-0.0012963
-0.0149487
7.96974e-09
-0.00213998
-0.0135215
-8.80084e-14
-0.00213884
-0.0135215
-7.97368e-09
-0.00213884
-0.0135215
-0.00213998
-0.0135215
9.49365e-09
-0.00384746
-0.0104446
7.47861e-13
-0.00384642
-0.0104454
-9.49848e-09
-0.00384642
-0.0104454
-0.00384746
-0.0104446
1.07514e-08
-0.00538349
-0.00740106
1.93053e-12
-0.00538262
-0.00740115
-1.07596e-08
-0.00538262
-0.00740115
-0.00538349
-0.00740106
1.30492e-08
0.00583752
-0.00428892
-0.0069321
3.16524e-12
0.00583795
-0.00428886
-0.0069317
-1.30597e-08
0.00583795
-0.00428886
-0.0069317
0.00583752
-0.00428892
-0.0069321
8.09069e-09
0.00703325
-0.00456893
1.44361e-12
0.00703345
-0.00456842
-8.09342e-09
0.00703345
-0.00456842
0.00703325
-0.00456893
6.06135e-09
0.00772997
-0.00248066
8.86896e-13
0.00772986
-0.00248089
-6.06366e-09
0.00772986
-0.00248089
0.00772997
-0.00248066
2.59873e-09
0.00805961
-0.00064594
6.19584e-13
0.00805963
-0.000645646
-2.6011e-09
0.00805963
-0.000645646
0.00805961
-0.00064594
-3.05421e-10
0.00812214
0.00110722
3.85054e-13
0.00812211
0.0011074
3.03088e-10
0.00812211
0.0011074
0.00812214
0.00110722
1.06652e-09
0.00770266