/*--------------------------------*- C++ -*----------------------------------*\
| =========                 |                                                 |
| \\      /  F ield         | OpenFOAM: The Open Source CFD Toolbox           |
|  \\    /   O peration     | Version:  v1806                                 |
|   \\  /    A nd           | Web:      www.OpenFOAM.com                      |
|    \\/     M anipulation  |                                                 |
\*---------------------------------------------------------------------------*/
FoamFile
{
    version     2.0;
    format      ascii;
    class       volScalarField;
    location    "240";
    object      p;
}
// * * * * * * * * * * * * * * * * * * * * * * * * * * * * * * * * * * * * * //

dimensions      [0 2 -2 0 0 0 0];


internalField   nonuniform List<scalar> 
4400
(
0.00753843
0.0094822
0.00897191
0.00747605
0.00602239
0.00475616
0.00374479
0.00299684
0.00246062
0.00206735
0.00176399
0.00151497
0.00129777
0.00109951
0.00091352
0.000736197
0.000565261
0.000398951
0.000235784
7.58478e-05
0.0252067
0.0175635
0.0125548
0.00951637
0.00750586
0.00609659
0.00505926
0.00427131
0.00365157
0.0031418
0.00270467
0.00231879
0.0019717
0.00165517
0.00136298
0.00109009
0.000832197
0.00058544
0.000346477
0.000113375
0.0195323
0.0164044
0.0137763
0.0115801
0.00983767
0.00836873
0.00708964
0.00598718
0.00505396
0.00427137
0.0036134
0.00305365
0.00256896
0.00214055
0.00175398
0.00139843
0.0010657
0.000749341
0.000444219
0.000146489
0.0191178
0.0166181
0.0141404
0.0119597
0.0101451
0.00866949
0.0074437
0.00640782
0.00552357
0.00476136
0.00409594
0.00350673
0.00297783
0.00249705
0.0020547
0.00164276
0.00125436
0.000883474
0.000524873
0.000173919
0.0152835
0.0139982
0.0126669
0.0113458
0.0100769
0.00891054
0.00785072
0.00688586
0.00601024
0.0052203
0.00451021
0.00387129
0.00329333
0.00276595
0.00227947
0.00182527
0.00139581
0.000984571
0.000585964
0.00019477
0.0138974
0.0129472
0.0118614
0.0107276
0.00962657
0.00859457
0.00764723
0.0067827
0.00599357
0.00527181
0.00460965
0.00399938
0.00343357
0.00290537
0.00240855
0.00193744
0.00148672
0.00105147
0.000627125
0.000208944
0.0116923
0.0111142
0.0104456
0.00971094
0.00894149
0.00816343
0.00739985
0.00666349
0.00595999
0.00529241
0.00466201
0.00406821
0.00350879
0.00298027
0.00247851
0.00199906
0.00153744
0.00108932
0.000650697
0.000217117
0.0105665
0.0101151
0.00956644
0.00894918
0.00829645
0.00763215
0.00697283
0.00632989
0.0057091
0.00511273
0.0045412
0.00399374
0.00346882
0.00296437
0.00247795
0.00200694
0.00154854
0.00109988
0.000658174
0.000219896
0.00919257
0.00888368
0.00850514
0.00806687
0.0075834
0.00706941
0.00653726
0.00599786
0.00545918
0.00492676
0.00440439
0.00389439
0.00339781
0.00291466
0.0024441
0.0019847
0.0015346
0.00109176
0.000654091
0.000218688
0.00835253
0.00809652
0.00777615
0.00740166
0.00698708
0.00654419
0.00608307
0.0056119
0.00513699
0.00466274
0.00419207
0.0037268
0.00326795
0.00281587
0.00237043
0.00193109
0.00149698
0.00106704
0.000640111
0.000214158
0.0074419
0.0072501
0.0070079
0.00672006
0.00639313
0.00603463
0.00565146
0.00524999
0.00483587
0.00441379
0.00398749
0.0035598
0.00313275
0.00270766
0.00228521
0.00186561
0.00144866
0.00103391
0.000620742
0.000207718
0.00682556
0.00665918
0.00644774
0.00619533
0.00590852
0.00559318
0.00525491
0.00489874
0.00452903
0.00414942
0.00376282
0.0033715
0.00297721
0.00258123
0.00218445
0.00178744
0.0013905
0.000993744
0.000597122
0.000199852
0.00620624
0.00607209
0.00590007
0.00569284
0.00545358
0.00518627
0.0048948
0.00458297
0.00425437
0.0039123
0.00355966
0.00319892
0.00283213
0.00246094
0.00208658
0.00171001
0.00133189
0.000952694
0.000572731
0.000191654
0.00576606
0.00564549
0.00549089
0.00530411
0.00508858
0.00484748
0.00458398
0.0043012
0.004002
0.00368902
0.00336458
0.00303071
0.00268918
0.00234148
0.00198887
0.00163241
0.00127299
0.00091135
0.000548119
0.000183388
0.00535151
0.00524816
0.00511458
0.00495242
0.00476344
0.00454993
0.00431426
0.00405883
0.00378602
0.00349815
0.00319738
0.0028857
0.00256492
0.00223663
0.00190222
0.00156291
0.00121976
0.000873722
0.000525595
0.00017578
0.00505702
0.00496121
0.00483753
0.00468703
0.00451177
0.0043137
0.00409482
0.00385719
0.00360279
0.00333356
0.00305133
0.0027578
0.00245455
0.00214306
0.00182465
0.00150058
0.00117197
0.000839902
0.000505329
0.00016894
0.00480041
0.00471348
0.00460082
0.00446353
0.00430281
0.00412015
0.00391717
0.00369553
0.00345693
0.00320309
0.00293571
0.00265642
0.0023668
0.00206832
0.00176237
0.00145026
0.0011332
0.000812348
0.000488756
0.000163316
0.00463172
0.00454804
0.00444037
0.00430926
0.00415596
0.00398174
0.00378798
0.00357616
0.00334778
0.00310438
0.00284748
0.00257857
0.00229912
0.00201052
0.00171414
0.00141126
0.00110314
0.000790964
0.000475879
0.000158945
0.00450881
0.00442904
0.00432656
0.00420179
0.00405539
0.00388841
0.00370209
0.00349774
0.00327675
0.00304058
0.00279069
0.00252856
0.00225563
0.00197332
0.001683
0.001386
0.0010836
0.00077702
0.000467449
0.000156061
0.00446441
0.00438652
0.00428479
0.00416049
0.00401483
0.00384895
0.00366413
0.00346169
0.003243
0.00300944
0.00276241
0.00250329
0.00223345
0.00195426
0.00166703
0.00137305
0.0010736
0.000769891
0.000463147
0.000154592
0.0260124
0.030387
0.0338244
0.0366674
0.0390019
0.0408675
0.0423047
0.0433479
0.0440226
0.044345
0.0443235
0.0439591
0.0432448
0.0421658
0.0406984
0.0388091
0.0364594
0.0336075
0.0301413
0.025687
0.0334465
0.0345861
0.0355183
0.0362872
0.0369187
0.0374246
0.037812
0.0380866
0.038252
0.0383107
0.0382637
0.0381112
0.037852
0.0374837
0.0370019
0.0364
0.0356748
0.0348347
0.0338438
0.0324056
0.0219813
0.0225557
0.023091
0.0235761
0.024003
0.0243657
0.0246593
0.02488
0.0250252
0.0250929
0.0250822
0.0249927
0.0248251
0.0245808
0.0242618
0.0238714
0.0234139
0.022894
0.0223187
0.0217019
0.0213788
0.0216506
0.0218933
0.0221049
0.0222839
0.0224288
0.0225386
0.0226122
0.0226489
0.0226483
0.0226099
0.0225338
0.0224199
0.0222687
0.0220807
0.0218565
0.021598
0.0213083
0.0209844
0.0206003
0.0157812
0.015924
0.0160541
0.0161702
0.0162713
0.0163563
0.0164246
0.0164754
0.0165083
0.0165228
0.0165189
0.0164965
0.0164557
0.016397
0.0163208
0.016228
0.0161188
0.0159933
0.0158548
0.0157192
0.0148331
0.0149213
0.0149986
0.0150647
0.0151191
0.0151615
0.0151918
0.0152098
0.0152151
0.0152079
0.015188
0.0151555
0.0151104
0.0150529
0.0149831
0.0149014
0.0148083
0.0147052
0.0145906
0.0144517
0.0118816
0.0119337
0.0119803
0.0120212
0.0120561
0.012085
0.0121077
0.0121241
0.0121341
0.0121376
0.0121347
0.0121253
0.0121094
0.0120871
0.0120585
0.0120238
0.0119827
0.0119349
0.0118817
0.0118326
0.0110307
0.0110681
0.0111005
0.0111276
0.0111496
0.0111662
0.0111774
0.0111832
0.0111836
0.0111785
0.0111679
0.0111519
0.0111305
0.0111037
0.0110716
0.0110342
0.0109918
0.010945
0.0108931
0.010829
0.0093168
0.00934159
0.00936345
0.00938233
0.00939818
0.00941097
0.00942066
0.00942723
0.00943065
0.00943091
0.009428
0.00942192
0.00941268
0.00940028
0.00938476
0.00936616
0.00934436
0.00931902
0.00929085
0.00926501
0.00861457
0.00863402
0.0086507
0.00866457
0.0086756
0.00868379
0.00868911
0.00869154
0.0086911
0.00868776
0.00868154
0.00867245
0.00866049
0.00864568
0.00862803
0.00860756
0.0085844
0.00855887
0.00853056
0.0084957
0.00754192
0.0075561
0.00756844
0.00757895
0.00758759
0.00759436
0.00759925
0.00760224
0.00760334
0.00760253
0.00759981
0.00759519
0.00758866
0.00758023
0.00756991
0.00755772
0.00754359
0.00752733
0.0075093
0.00749224
0.00699132
0.00700311
0.00701316
0.00702146
0.00702801
0.00703279
0.00703579
0.00703703
0.00703648
0.00703416
0.00703007
0.0070242
0.00701657
0.00700718
0.00699603
0.00698313
0.00696854
0.00695244
0.00693461
0.00691303
0.00629179
0.00630109
0.0063091
0.00631582
0.00632125
0.00632537
0.00632818
0.00632969
0.00632988
0.00632875
0.00632631
0.00632255
0.00631748
0.00631109
0.0063034
0.00629441
0.00628409
0.00627233
0.00625932
0.00624651
0.0058827
0.00589078
0.00589765
0.00590329
0.0059077
0.00591088
0.00591282
0.00591353
0.005913
0.00591123
0.00590823
0.00590399
0.00589853
0.00589183
0.00588391
0.00587476
0.00586442
0.00585298
0.00584032
0.00582537
0.00542705
0.00543387
0.0054397
0.00544453
0.00544837
0.0054512
0.00545303
0.00545386
0.00545368
0.00545249
0.0054503
0.00544711
0.0054429
0.0054377
0.00543149
0.00542429
0.00541607
0.00540678
0.00539653
0.00538608
0.00514743
0.00515361
0.00515883
0.00516311
0.00516643
0.00516879
0.0051702
0.00517065
0.00517015
0.00516869
0.00516627
0.0051629
0.00515857
0.00515329
0.00514707
0.00513989
0.00513178
0.00512279
0.00511286
0.0051014
0.00486997
0.0048755
0.00488019
0.00488404
0.00488705
0.00488923
0.00489057
0.00489106
0.00489072
0.00488953
0.00488751
0.00488464
0.00488093
0.00487638
0.004871
0.00486478
0.00485772
0.00484979
0.00484105
0.00483191
0.00471045
0.00471565
0.00472004
0.00472361
0.00472637
0.0047283
0.00472942
0.00472972
0.00472919
0.00472785
0.00472569
0.0047227
0.0047189
0.00471428
0.00470884
0.00470258
0.00469551
0.00468766
0.004679
0.00466917
0.0045778
0.00458271
0.00458686
0.00459025
0.00459286
0.00459471
0.00459578
0.00459608
0.00459561
0.00459437
0.00459235
0.00458956
0.004586
0.00458166
0.00457655
0.00457066
0.004564
0.00455655
0.00454833
0.00453958
0.00453406
0.00453893
0.00454303
0.00454639
0.00454898
0.00455081
0.00455188
0.00455219
0.00455175
0.00455054
0.00454857
0.00454585
0.00454237
0.00453813
0.00453315
0.00452741
0.00452092
0.0045137
0.00450575
0.00449695
0.00916893
0.00943001
0.00963818
0.00981022
0.00994923
0.0100563
0.0101362
0.0101981
0.0102558
0.0103284
0.0104406
0.0106227
0.0109101
0.0113459
0.0119842
0.0128821
0.0140606
0.0154825
0.0172824
0.0203793
0.0110452
0.0115623
0.0121564
0.0128033
0.0135074
0.0142773
0.0151191
0.0160369
0.0170335
0.0181102
0.019266
0.0204982
0.0218016
0.0231692
0.0245917
0.0260572
0.0275518
0.0290647
0.0305886
0.0320892
0.0125079
0.0128182
0.0131438
0.013487
0.0138479
0.0142263
0.0146224
0.0150362
0.0154676
0.0159164
0.0163828
0.0168671
0.0173699
0.0178917
0.018433
0.0189934
0.0195721
0.0201668
0.0207732
0.0213825
0.0133188
0.0137251
0.0141317
0.0145458
0.0149677
0.0153958
0.0158286
0.0162646
0.0167024
0.0171401
0.0175762
0.0180086
0.0184354
0.0188546
0.0192639
0.0196612
0.0200439
0.0204097
0.0207559
0.0210797
0.011883
0.0120719
0.0122716
0.0124739
0.0126773
0.012882
0.013088
0.0132949
0.0135022
0.0137094
0.0139161
0.0141218
0.0143256
0.0145269
0.0147248
0.0149184
0.0151065
0.0152881
0.0154619
0.0156267
0.0115206
0.0117307
0.0119316
0.0121309
0.0123289
0.0125248
0.0127178
0.0129075
0.0130934
0.013275
0.0134516
0.0136229
0.0137883
0.0139471
0.014099
0.0142433
0.0143795
0.014507
0.0146255
0.0147343
0.0100592
0.0101658
0.010277
0.0103874
0.010496
0.010603
0.0107083
0.0108118
0.0109132
0.0110124
0.011109
0.011203
0.0112939
0.0113815
0.0114657
0.011546
0.0116223
0.0116943
0.0117616
0.0118242
0.00942495
0.00953757
0.00964354
0.00974727
0.00984919
0.00994876
0.0100457
0.0101398
0.010231
0.010319
0.0104037
0.0104848
0.0105623
0.010636
0.0107056
0.0107711
0.0108322
0.0108889
0.0109409
0.0109882
0.00831786
0.00838271
0.00844942
0.00851477
0.00857827
0.00864008
0.0087002
0.00875854
0.00881502
0.00886954
0.00892203
0.00897239
0.00902056
0.00906643
0.00910994
0.00915099
0.00918951
0.00922542
0.00925865
0.00928913
0.00771447
0.00778091
0.00784314
0.00790362
0.00796261
0.00801984
0.00807517
0.00812854
0.00817987
0.00822911
0.00827619
0.00832104
0.0083636
0.00840379
0.00844158
0.00847689
0.00850967
0.00853988
0.00856746
0.00859237
0.00691556
0.00695887
0.00700275
0.00704544
0.00708666
0.0071265
0.00716499
0.00720209
0.00723774
0.00727193
0.00730462
0.00733576
0.00736534
0.00739332
0.00741966
0.00744435
0.00746735
0.00748863
0.00750816
0.00752594
0.0064198
0.00646314
0.0065038
0.00654315
0.00658133
0.00661821
0.00665372
0.00668782
0.00672049
0.00675171
0.00678143
0.00680965
0.00683631
0.00686142
0.00688492
0.00690682
0.00692707
0.00694567
0.00696259
0.00697781
0.00585395
0.00588549
0.00591701
0.00594754
0.00597692
0.00600523
0.00603246
0.00605859
0.00608362
0.00610751
0.00613026
0.00615185
0.00617226
0.00619149
0.00620952
0.00622633
0.00624192
0.00625627
0.00626937
0.00628121
0.00547824
0.00550933
0.00553865
0.00556695
0.00559431
0.00562066
0.00564596
0.00567019
0.00569335
0.00571542
0.00573638
0.00575623
0.00577495
0.00579252
0.00580894
0.0058242
0.00583828
0.00585118
0.00586289
0.0058734
0.0050914
0.00511625
0.0051408
0.00516452
0.00518732
0.00520923
0.00523025
0.00525039
0.00526961
0.00528793
0.00530532
0.00532179
0.00533732
0.0053519
0.00536554
0.00537822
0.00538993
0.00540068
0.00541045
0.00541924
0.00483193
0.00485634
0.00487948
0.00490179
0.00492331
0.00494399
0.00496381
0.00498277
0.00500085
0.00501806
0.00503438
0.00504981
0.00506434
0.00507796
0.00509067
0.00510246
0.00511332
0.00512325
0.00513225
0.00514031
0.00458988
0.004611
0.00463167
0.00465162
0.00467077
0.00468916
0.00470679
0.00472363
0.0047397
0.00475499
0.00476948
0.00478318
0.00479608
0.00480818
0.00481946
0.00482993
0.00483959
0.00484842
0.00485644
0.00486362
0.00444008
0.00446108
0.00448108
0.00450034
0.00451888
0.00453668
0.00455372
0.00457
0.00458551
0.00460026
0.00461423
0.00462742
0.00463983
0.00465145
0.00466228
0.00467231
0.00468155
0.00468998
0.00469761
0.00470443
0.0043226
0.00434211
0.00436107
0.00437934
0.00439688
0.00441371
0.00442981
0.0044452
0.00445985
0.00447378
0.00448697
0.00449942
0.00451113
0.0045221
0.00453232
0.00454179
0.00455051
0.00455847
0.00456567
0.00457212
0.0042818
0.00430124
0.00431991
0.0043379
0.00435521
0.00437182
0.00438772
0.00440292
0.0044174
0.00443117
0.00444421
0.00445652
0.00446811
0.00447895
0.00448906
0.00449843
0.00450706
0.00451493
0.00452206
0.00452844
0.00470199
0.00507167
0.00522927
0.00534087
0.00542661
0.00548273
0.00551338
0.00552506
0.00552289
0.00551066
0.00549138
0.00546747
0.00544092
0.00541328
0.00538579
0.00535946
0.0053351
0.00531324
0.00529359
0.00527609
0.00463881
0.00474247
0.00479971
0.00483555
0.00485807
0.0048695
0.00487197
0.00486766
0.00485833
0.00484536
0.00482985
0.00481266
0.00479448
0.00477583
0.00475711
0.00473866
0.00472078
0.00470348
0.00468578
0.00466704
0.00410586
0.00414024
0.00416895
0.0041914
0.00420807
0.00421957
0.00422645
0.00422926
0.00422854
0.00422483
0.00421861
0.00421032
0.00420035
0.00418903
0.00417665
0.00416348
0.00414978
0.00413558
0.00411989
0.00410208
0.00378576
0.00379862
0.00380723
0.00381268
0.00381533
0.00381541
0.00381319
0.00380898
0.00380309
0.0037958
0.0037874
0.00377813
0.00376824
0.00375792
0.00374735
0.0037367
0.00372614
0.00371569
0.00370481
0.00369334
0.00319687
0.00319799
0.00319901
0.0031985
0.00319638
0.00319291
0.00318829
0.00318264
0.00317611
0.00316883
0.00316094
0.00315256
0.00314381
0.00313479
0.00312558
0.00311629
0.00310703
0.00309779
0.00308794
0.00307705
0.00272751
0.00272681
0.00272475
0.00272144
0.00271702
0.00271161
0.00270533
0.0026983
0.00269065
0.00268248
0.00267391
0.00266503
0.00265594
0.00264673
0.00263745
0.0026282
0.00261906
0.00261001
0.00260051
0.00259038
0.00213972
0.00213492
0.00213021
0.00212463
0.00211815
0.00211096
0.0021032
0.00209494
0.0020863
0.00207735
0.00206817
0.00205886
0.00204947
0.00204007
0.00203072
0.00202148
0.00201243
0.00200355
0.00199426
0.00198421
0.00158503
0.00157867
0.00157206
0.00156474
0.00155674
0.00154819
0.0015392
0.00152984
0.0015202
0.00151036
0.00150038
0.00149033
0.00148028
0.00147029
0.00146039
0.00145065
0.00144115
0.00143185
0.00142219
0.00141189
0.00097281
0.000964082
0.000955688
0.00094672
0.000937164
0.000927182
0.000916873
0.000906307
0.000895553
0.000884683
0.000873761
0.00086285
0.000852008
0.000841283
0.000830722
0.000820381
0.000810342
0.000800556
0.000790438
0.000779664
0.000338396
0.000325717
0.000313927
0.000301845
0.000289413
0.000276795
0.000264079
0.000251318
0.000238564
0.000225873
0.000213298
0.000200891
0.000188697
0.000176758
0.000165111
0.000153808
0.00014293
0.000132423
0.000121662
0.000110269
-0.000319693
-0.000334179
-0.000347704
-0.000361473
-0.000375512
-0.000389664
-0.000403859
-0.00041806
-0.000432227
-0.000446311
-0.000460268
-0.000474049
-0.000487612
-0.000500916
-0.000513925
-0.000526581
-0.000538802
-0.000550653
-0.000562804
-0.000575558
-0.0010639
-0.00108884
-0.00111057
-0.00113183
-0.00115285
-0.0011734
-0.0011934
-0.00121285
-0.00123175
-0.00125008
-0.00126783
-0.00128497
-0.00130148
-0.00131735
-0.00133256
-0.00134706
-0.00136077
-0.00137376
-0.00138682
-0.00140051
-0.00176326
-0.00178765
-0.00180994
-0.00183197
-0.00185377
-0.00187517
-0.00189616
-0.00191678
-0.00193705
-0.00195695
-0.00197649
-0.00199565
-0.0020144
-0.00203272
-0.00205057
-0.0020679
-0.00208461
-0.0021008
-0.00211729
-0.00213429
-0.00270443
-0.00275943
-0.0028056
-0.0028495
-0.00289178
-0.00293196
-0.00296994
-0.00300583
-0.00303973
-0.00307169
-0.00310179
-0.00313008
-0.0031566
-0.0031814
-0.00320451
-0.00322591
-0.00324551
-0.0032634
-0.00328069
-0.00329855
-0.00334784
-0.00339038
-0.00342973
-0.00346816
-0.00350547
-0.00354148
-0.00357631
-0.00361011
-0.003643
-0.00367508
-0.00370642
-0.00373707
-0.00376706
-0.0037964
-0.00382507
-0.003853
-0.00388006
-0.00390642
-0.00393314
-0.00395995
-0.00471853
-0.00485867
-0.00497951
-0.00509427
-0.00520397
-0.00530731
-0.0054038
-0.00549345
-0.00557633
-0.00565256
-0.00572233
-0.00578585
-0.00584338
-0.00589518
-0.00594147
-0.00598238
-0.00601786
-0.00604805
-0.00607485
-0.00610111
-0.00478151
-0.00486028
-0.00494399
-0.00502751
-0.00510886
-0.00518787
-0.00526452
-0.0053387
-0.00541042
-0.0054798
-0.00554706
-0.00561246
-0.00567631
-0.00573891
-0.00580051
-0.00586119
-0.00592089
-0.00598003
-0.00604047
-0.00610059
-0.00702068
-0.0074317
-0.00781953
-0.00819999
-0.00857295
-0.00893416
-0.00928018
-0.00960829
-0.00991611
-0.0102017
-0.0104635
-0.0107007
-0.0109131
-0.0111012
-0.011266
-0.0114084
-0.011529
-0.0116282
-0.0117099
-0.0117804
-0.00348401
-0.00364237
-0.00384995
-0.00407237
-0.00430468
-0.00454734
-0.00479896
-0.00505725
-0.00531992
-0.00558476
-0.00584978
-0.00611332
-0.00637431
-0.00663247
-0.00688852
-0.00714371
-0.00740025
-0.00766859
-0.00798161
-0.0083551
-0.00720476
-0.00811423
-0.00907194
-0.0100934
-0.0111859
-0.0123508
-0.0135885
-0.0148981
-0.0162768
-0.0177199
-0.0192203
-0.0207685
-0.0223527
-0.0239588
-0.0255696
-0.0271617
-0.0287076
-0.0302016
-0.0316963
-0.0331351
0.000105926
0.000321952
0.000539958
0.000759687
0.000981803
0.00120715
0.00143672
0.00167183
0.00191442
0.00216753
0.00243632
0.00272979
0.00306261
0.00345624
0.00393928
0.00454912
0.00532478
0.00626804
0.00727748
0.00827739
0.000129987
0.000392924
0.000658936
0.000928979
0.00120469
0.001488
0.00178105
0.00208615
0.00240577
0.00274258
0.00309952
0.00348007
0.00388921
0.00433552
0.00483493
0.00541417
0.00611083
0.00697959
0.00813854
0.00977982
0.000151173
0.000455322
0.000763098
0.00107647
0.00139782
0.0017301
0.00207683
0.00244236
0.00283222
0.00325362
0.0037158
0.00423027
0.00481057
0.0054714
0.00622691
0.00708787
0.00805765
0.00913006
0.0102991
0.0115981
0.000168482
0.000506161
0.000847519
0.00119508
0.0015514
0.00191941
0.00230233
0.00270373
0.00312757
0.00357847
0.00406193
0.00458485
0.00515615
0.00578768
0.00649473
0.00729623
0.0082155
0.00928447
0.0105514
0.0121003
0.00018129
0.000543647
0.000909443
0.00128156
0.00166273
0.00205612
0.00246534
0.00289448
0.00334823
0.00383184
0.00435109
0.00491197
0.00552021
0.00618064
0.00689632
0.00766814
0.00849646
0.00938611
0.0103469
0.011353
0.00018953
0.000567536
0.000948314
0.00133462
0.00172875
0.00213321
0.00255067
0.00298393
0.00343599
0.00391008
0.00440979
0.00493919
0.00550283
0.00610577
0.00675347
0.00745209
0.00820894
0.00903001
0.00991297
0.0108567
0.000193603
0.000579166
0.000966879
0.00135939
0.00175876
0.00216723
0.00258721
0.0030212
0.00347169
0.00394115
0.00443178
0.00494534
0.00548287
0.00604443
0.00662896
0.00723434
0.00785737
0.00849284
0.00913207
0.00975814
0.000193928
0.000579658
0.000966689
0.00135723
0.00175273
0.0021547
0.00256469
0.00298419
0.00341464
0.00385742
0.00431381
0.00478499
0.00527196
0.00577542
0.00629565
0.00683234
0.00738396
0.00794595
0.00850796
0.00906317
0.000191442
0.00057199
0.000953222
0.00133703
0.00172453
0.00211682
0.00251505
0.00292022
0.00333315
0.0037544
0.00418417
0.00462214
0.00506739
0.00551831
0.00597244
0.00642644
0.00687564
0.00731397
0.00773603
0.00813198
0.000186634
0.000557431
0.000928236
0.00130046
0.0016747
0.00205154
0.00243151
0.00281504
0.0032024
0.0035937
0.00398886
0.00438752
0.00478903
0.00519236
0.00559597
0.0059976
0.00639413
0.00678097
0.00715085
0.00749997
0.000180508
0.000539141
0.000897356
0.00125623
0.00161606
0.00197711
0.00233956
0.00270349
0.00306873
0.0034349
0.00380131
0.00416692
0.00453026
0.00488943
0.00524204
0.00558515
0.00591523
0.00622852
0.00652177
0.00678924
0.000173425
0.000518003
0.00086176
0.00120536
0.00154879
0.00189195
0.00223471
0.00257682
0.00291792
0.00325746
0.00359476
0.00392889
0.00425873
0.00458285
0.0048995
0.00520659
0.00550158
0.00578132
0.00604149
0.00628019
0.000166197
0.000496576
0.000825918
0.0011546
0.00148241
0.00180905
0.00213416
0.00245728
0.00277781
0.00309498
0.00340781
0.00371513
0.00401553
0.00430735
0.0045887
0.00485747
0.00511134
0.00534799
0.00556545
0.00576034
0.000159025
0.000475296
0.000790353
0.00110427
0.00141665
0.00172701
0.00203482
0.0023395
0.00264037
0.00293663
0.0032274
0.00351165
0.00378823
0.00405582
0.00431297
0.00455803
0.00478924
0.00500453
0.00520135
0.00537866
0.000152466
0.000455928
0.000758111
0.00105887
0.0013577
0.001654
0.00194712
0.00223638
0.00252097
0.00280002
0.00307253
0.00333739
0.00359338
0.00383918
0.00407334
0.00429437
0.00450071
0.00469083
0.00486346
0.00501654
0.000146603
0.000438598
0.000729281
0.00101829
0.00130502
0.00158879
0.00186888
0.00214455
0.00241499
0.00267936
0.00293673
0.00318612
0.00342648
0.0036567
0.00387559
0.0040819
0.00427435
0.0044515
0.00461174
0.00475435
0.000141786
0.00042443
0.000705782
0.000985326
0.00126239
0.00153623
0.00180608
0.00207116
0.0023306
0.00258351
0.00282895
0.00306591
0.00329335
0.00351017
0.00371527
0.00390751
0.00408573
0.00424884
0.00439588
0.00452549
0.000138047
0.000413433
0.000687563
0.000959777
0.00122935
0.0014955
0.00175745
0.00201438
0.00226544
0.00250975
0.00274643
0.00297453
0.00319309
0.00340116
0.00359772
0.00378181
0.00395242
0.00410855
0.00424913
0.00437365
0.000135582
0.000406238
0.000675689
0.000943176
0.00120794
0.00146919
0.00172611
0.00197786
0.00222357
0.00246236
0.00269328
0.00291541
0.00312778
0.00332941
0.00351934
0.00369663
0.00386036
0.00400971
0.00414406
0.00426267
0.000134337
0.000402597
0.000669672
0.00093476
0.00119707
0.00145582
0.00171019
0.00195935
0.00220245
0.00243864
0.00266702
0.00288671
0.0030968
0.00329637
0.0034845
0.00366026
0.00382274
0.00397103
0.00410411
0.004221
5.73881e-06
2.16099e-05
3.94107e-05
5.82513e-05
7.85401e-05
0.000101054
0.00012679
0.000157191
0.000194507
0.000242326
0.000306283
0.000394808
0.000519342
0.000692864
0.000925842
0.00122165
0.00157451
0.00196165
0.00229877
0.00250691
2.1242e-05
6.86784e-05
0.000118721
0.000172117
0.000230322
0.000295003
0.000368153
0.000452182
0.000550088
0.000665723
0.000804117
0.000971769
0.00117665
0.00142777
0.00173433
0.00210407
0.00253988
0.00303649
0.00358081
0.00417384
3.35132e-05
0.000105292
0.000180409
0.000260214
0.000346936
0.000443052
0.000551459
0.000675618
0.000819628
0.000988167
0.00118619
0.00141817
0.00168671
0.00199101
0.00232552
0.00268006
0.00304146
0.00339378
0.00371754
0.00399115
4.13209e-05
0.000128122
0.000218283
0.000313246
0.000415109
0.000526098
0.000648676
0.000785649
0.000940239
0.00111611
0.00131721
0.00154723
0.0018085
0.00210035
0.00241715
0.00274619
0.00306667
0.00335205
0.00357807
0.00373368
4.46696e-05
0.000137782
0.000234079
0.000335049
0.00044271
0.000559118
0.000686436
0.000826937
0.000982925
0.00115657
0.00134959
0.00156271
0.00179494
0.0020426
0.00229815
0.00254945
0.0027801
0.00297256
0.00311366
0.00319502
4.34035e-05
0.000133694
0.000226574
0.000323149
0.000424982
0.0005336
0.000650593
0.000777642
0.000916497
0.0010689
0.00123634
0.00141963
0.00161806
0.0018283
0.00204301
0.00225022
0.00243433
0.0025797
0.00267675
0.00272535
3.89863e-05
0.000120444
0.000203976
0.00029039
0.000380924
0.000476676
0.000578692
0.000687963
0.000805371
0.000931611
0.00106706
0.00121155
0.00136398
0.00152169
0.00167972
0.00183017
0.00196238
0.00206511
0.00213083
0.00215587
3.14813e-05
9.80579e-05
0.000166094
0.000235902
0.000308314
0.000384023
0.000463701
0.000548025
0.000637649
0.000733145
0.000834896
0.00094287
0.00105625
0.00117292
0.00128887
0.00139772
0.00149095
0.00155965
0.001598
0.00160424
2.27009e-05
7.20566e-05
0.000122297
0.000173329
0.000225649
0.000279547
0.000335247
0.00039294
0.00045277
0.000514814
0.000579057
0.000645335
0.000713195
0.000781638
0.00084868
0.000910778
0.00096254
0.000997773
0.00101203
0.00100193
1.2698e-05
4.24786e-05
7.26079e-05
0.000102495
0.000132298
0.000161986
0.000191501
0.000220803
0.000249862
0.000278636
0.000307044
0.000334913
0.000361881
0.000387251
0.000409737
0.000427106
0.000436027
0.000432952
0.000415805
0.00038153
3.17824e-06
1.44488e-05
2.54604e-05
3.51495e-05
4.33313e-05
4.9588e-05
5.3457e-05
5.44992e-05
5.23043e-05
4.6504e-05
3.67904e-05
2.29292e-05
4.76148e-06
-1.78342e-05
-4.5089e-05
-7.7625e-05
-0.000116513
-0.000162241
-0.000213233
-0.000269803
-5.64892e-06
-1.14775e-05
-1.81009e-05
-2.71186e-05
-3.9077e-05
-5.47576e-05
-7.49787e-05
-0.000100519
-0.000132113
-0.000170443
-0.00021612
-0.000269664
-0.000331467
-0.00040176
-0.000480642
-0.000568175
-0.000664128
-0.00076643
-0.000869633
-0.000973814
-1.22091e-05
-3.06206e-05
-5.04815e-05
-7.39448e-05
-0.000101972
-0.000135796
-0.000176715
-0.000225993
-0.000284854
-0.00035446
-0.00043588
-0.000530039
-0.000637647
-0.000759113
-0.000894508
-0.00104348
-0.00120449
-0.00137213
-0.00153334
-0.0016761
-1.59447e-05
-4.13605e-05
-6.87835e-05
-0.00010097
-0.000139346
-0.000185636
-0.000241663
-0.000309252
-0.000390222
-0.000486376
-0.000599468
-0.000731164
-0.000882977
-0.00105624
-0.00125217
-0.00147174
-0.00171456
-0.00197521
-0.0022391
-0.00249985
-1.53246e-05
-3.91694e-05
-6.55829e-05
-9.79133e-05
-0.000138093
-0.000188415
-0.000251365
-0.000329521
-0.000425556
-0.000542214
-0.000682253
-0.000848361
-0.00104306
-0.00126876
-0.00152779
-0.0018222
-0.00215184
-0.00250941
-0.00287128
-0.00319385
-9.5027e-06
-2.15536e-05
-3.64499e-05
-5.80456e-05
-8.87236e-05
-0.000131283
-0.000188839
-0.000264782
-0.000362827
-0.000487061
-0.000641938
-0.00083221
-0.00106287
-0.00133922
-0.0016669
-0.00205161
-0.00249768
-0.00300588
-0.00357459
-0.00421716
2.90201e-06
1.55181e-05
2.52585e-05
2.79776e-05
2.09945e-05
1.19272e-06
-3.49614e-05
-9.14146e-05
-0.000172639
-0.000283772
-0.000430772
-0.000620621
-0.00086166
-0.00116388
-0.00153826
-0.00199401
-0.00253481
-0.00315771
-0.00384907
-0.00454065
2.23907e-05
7.35241e-05
0.0001223
0.000164704
0.000198062
0.000219245
0.000224588
0.000209877
0.000170248
0.000100075
-7.19731e-06
-0.000159468
-0.000366958
-0.000643887
-0.00101048
-0.00149556
-0.00213857
-0.00299378
-0.00414372
-0.0057182
4.83436e-05
0.000150676
0.000251849
0.000348708
0.000439227
0.000520951
0.000590797
0.000644924
0.000678542
0.000685711
0.000659137
0.000589973
0.000467809
0.000281926
2.40876e-05
-0.000313324
-0.000745849
-0.00132255
-0.00214163
-0.0031996
7.80485e-05
0.000239192
0.000400866
0.000561418
0.000720226
0.000876528
0.00102926
0.0011769
0.00131716
0.0014462
0.00155737
0.00163917
0.00167267
0.0016277
0.00145618
0.0010894
0.000436615
-0.000615359
-0.00221629
-0.00467722
-4.331e-05
-0.000116776
-0.000195788
-0.000277848
-0.000364632
-0.000457289
-0.0005568
-0.000663878
-0.000778776
-0.000901095
-0.00102959
-0.00116208
-0.00129545
-0.00142596
-0.00155005
-0.00166592
-0.00177681
-0.00189135
-0.00201219
-0.00222727
-4.44081e-05
-0.000119958
-0.000201167
-0.00028578
-0.000375638
-0.000472062
-0.000576248
-0.000689147
-0.000811259
-0.000942408
-0.00108151
-0.00122642
-0.00137388
-0.00151975
-0.00165971
-0.00179081
-0.00191485
-0.00203682
-0.00214729
-0.00230409
-4.53379e-05
-0.000122335
-0.000205255
-0.000291899
-0.000384289
-0.000483936
-0.000592254
-0.00071045
-0.000839296
-0.000978874
-0.0011283
-0.00128547
-0.00144699
-0.00160825
-0.00176396
-0.00190954
-0.00204444
-0.00217078
-0.00227667
-0.00240753
-4.60044e-05
-0.000123874
-0.000207933
-0.00029603
-0.000390346
-0.00049259
-0.000604399
-0.000727251
-0.000862214
-0.00100966
-0.00116895
-0.00133809
-0.00151354
-0.00169021
-0.00186176
-0.0020217
-0.0021669
-0.0022976
-0.00240282
-0.00253135
-4.63599e-05
-0.000124518
-0.000209091
-0.000298005
-0.000393574
-0.000497705
-0.000612265
-0.000739009
-0.000879328
-0.00103393
-0.00120247
-0.00138312
-0.00157227
-0.0017644
-0.00195213
-0.00212703
-0.0022834
-0.00242014
-0.00252743
-0.00266265
-4.63813e-05
-0.000124205
-0.000208629
-0.000297667
-0.000393751
-0.000498978
-0.000615443
-0.000745188
-0.000889949
-0.00105082
-0.00122781
-0.00141934
-0.00162186
-0.00182951
-0.002034
-0.00222507
-0.0023945
-0.00253989
-0.00265193
-0.0027984
-4.60495e-05
-0.000122881
-0.000206453
-0.000294873
-0.000390671
-0.000496123
-0.000613544
-0.000745267
-0.000893394
-0.00105944
-0.00124386
-0.00144545
-0.00166084
-0.00188403
-0.00210604
-0.00231493
-0.00250005
-0.00265728
-0.00277675
-0.00293821
-4.53498e-05
-0.000120502
-0.000202485
-0.000289502
-0.000384154
-0.000488882
-0.000606207
-0.000738752
-0.000888995
-0.00105892
-0.00124951
-0.00146006
-0.00168759
-0.0019262
-0.0021665
-0.00239518
-0.00259919
-0.00277198
-0.00290156
-0.00308202
-4.42709e-05
-0.000117035
-0.000196665
-0.000281455
-0.000374051
-0.000477036
-0.000593115
-0.000725188
-0.000876119
-0.0010484
-0.00124361
-0.00146172
-0.00170031
-0.00195394
-0.00221315
-0.00246368
-0.00269022
-0.00288294
-0.00302554
-0.00323
-4.28065e-05
-0.000112459
-0.000188951
-0.000270666
-0.000360254
-0.000460412
-0.000574002
-0.000704178
-0.000854183
-0.00102704
-0.00122501
-0.00144887
-0.00169705
-0.00196485
-0.00224324
-0.00251749
-0.0027705
-0.0029883
-0.00314724
-0.00338237
-4.09553e-05
-0.000106768
-0.00017933
-0.000257104
-0.0003427
-0.000438893
-0.000548667
-0.000675389
-0.000822662
-0.000994046