/*--------------------------------*- C++ -*----------------------------------*\
| =========                 |                                                 |
| \\      /  F ield         | OpenFOAM: The Open Source CFD Toolbox           |
|  \\    /   O peration     | Version:  v1806                                 |
|   \\  /    A nd           | Web:      www.OpenFOAM.com                      |
|    \\/     M anipulation  |                                                 |
\*---------------------------------------------------------------------------*/
FoamFile
{
    version     2.0;
    format      ascii;
    class       volScalarField;
    location    "10";
    object      p;
}
// * * * * * * * * * * * * * * * * * * * * * * * * * * * * * * * * * * * * * //

dimensions      [0 2 -2 0 0 0 0];


internalField   nonuniform List<scalar> 
4400
(
0.0787895
1.10268
1.16141
1.12493
1.09369
1.01581
0.915698
0.817567
0.730316
0.652058
0.582002
0.517398
0.458897
0.401793
0.34724
0.291204
0.234458
0.173758
0.109308
0.0388474
1.71481
1.2916
1.14122
0.96481
0.863701
0.780512
0.715403
0.656571
0.602685
0.553942
0.508168
0.463643
0.420168
0.374766
0.328352
0.277814
0.224572
0.166272
0.103491
0.0364694
1.20218
1.16452
1.08058
1.01846
0.966743
0.916362
0.861317
0.80539
0.745618
0.685421
0.623407
0.561988
0.499878
0.437985
0.375836
0.312392
0.248439
0.181549
0.112558
0.039689
1.1589
1.09091
1.02074
0.937501
0.86436
0.800096
0.740777
0.685289
0.631922
0.579868
0.528128
0.476997
0.425092
0.373402
0.320387
0.266518
0.211238
0.153564
0.0942836
0.0323564
0.872448
0.848508
0.815379
0.782881
0.747114
0.708928
0.67105
0.631179
0.590975
0.548024
0.503915
0.457563
0.409732
0.360371
0.30941
0.257335
0.203429
0.147998
0.0908207
0.0310678
0.762728
0.740185
0.714876
0.679548
0.644258
0.605731
0.567284
0.528601
0.490369
0.452139
0.413699
0.374242
0.334239
0.292692
0.250323
0.20692
0.162223
0.11702
0.070563
0.0237038
0.589045
0.576374
0.560337
0.542941
0.522377
0.50015
0.475314
0.449049
0.420222
0.390625
0.35926
0.326925
0.293091
0.257859
0.221299
0.18345
0.144303
0.104469
0.0631252
0.0215284
0.501761
0.491499
0.478368
0.461948
0.443047
0.421929
0.398924
0.374752
0.349722
0.323735
0.296905
0.26946
0.241022
0.211999
0.181879
0.15085
0.119017
0.0862192
0.0523941
0.0178803
0.388806
0.381331
0.371943
0.36135
0.349205
0.335432
0.32057
0.303991
0.286442
0.267059
0.246719
0.224954
0.20233
0.178615
0.153869
0.128075
0.101615
0.0736779
0.0453194
0.0150397
0.325616
0.319964
0.312612
0.303205
0.292518
0.280031
0.266204
0.251177
0.23518
0.218317
0.200647
0.182059
0.162909
0.142861
0.122356
0.101226
0.0798059
0.0574489
0.0353083
0.0110852
0.252753
0.248035
0.242437
0.2358
0.227975
0.219279
0.20943
0.198754
0.18688
0.174277
0.160515
0.146094
0.130711
0.114764
0.0981751
0.0810909
0.0634012
0.0456445
0.0272772
0.00917512
0.212416
0.208767
0.203796
0.197838
0.190863
0.182906
0.174141
0.164488
0.15417
0.143084
0.13146
0.119246
0.106503
0.0934438
0.0798153
0.0659553
0.0515289
0.0371758
0.0221799
0.00788667
0.166592
0.163682
0.160062
0.155757
0.150794
0.145165
0.138929
0.131976
0.124476
0.116283
0.10761
0.0981908
0.0883205
0.0778467
0.0670096
0.0556992
0.044046
0.0319023
0.0194998
0.00678857
0.13931
0.137126
0.134173
0.130545
0.126283
0.121376
0.115861
0.109816
0.103201
0.0960963
0.0885547
0.0804524
0.0722044
0.0630688
0.054396
0.0448782
0.0354934
0.0253713
0.0156486
0.00477693
0.110658
0.108668
0.106433
0.103427
0.100132
0.0963235
0.0920093
0.0872925
0.0820759
0.0765159
0.0704494
0.064069
0.0572358
0.0500602
0.0439619
0.0358251
0.0286442
0.0198502
0.0128886
0.00297084
0.0946826
0.0931538
0.0910796
0.0885504
0.0855598
0.0821446
0.0783182
0.0740603
0.069464
0.064524
0.0593451
0.0538789
0.0481582
0.0422337
0.0361199
0.0298791
0.0233962
0.0169502
0.0100918
0.00366291
0.0785901
0.0773405
0.0757376
0.0737571
0.0714155
0.0687356
0.0657097
0.0623777
0.0587308
0.0547552
0.0505008
0.0459785
0.0412562
0.0362849
0.0311168
0.0257581
0.0202497
0.0146546
0.00883874
0.00319554
0.0689394
0.0677638
0.0662494
0.0643919
0.0622185
0.0597573
0.0569521
0.053934
0.0506349
0.0471115
0.0433449
0.039377
0.0352264
0.0308878
0.0264201
0.0217874
0.0170997
0.0122157
0.00744788
0.00232474
0.0613489
0.0602584
0.0589253
0.0573009
0.0554167
0.0532542
0.0508446
0.0481838
0.0452826
0.0421622
0.0388218
0.0353058
0.0316056
0.0277578
0.0237619
0.0196157
0.0153927
0.0110178
0.00670881
0.00206837
0.0591247
0.0581535
0.0568668
0.0553031
0.0534544
0.0513423
0.0489717
0.0463562
0.0435245
0.0404709
0.0372183
0.0337787
0.0301868
0.0264601
0.0226043
0.0186523
0.0145823
0.0104804
0.0062796
0.00213863
2.62814
2.64977
2.66011
2.65935
2.64754
2.62459
2.59032
2.54445
2.48663
2.41641
2.33322
2.23641
2.12517
1.99862
1.85561
1.69508
1.51549
1.31618
1.0963
0.860194
2.30949
2.32495
2.33706
2.34589
2.35146
2.35377
2.35281
2.34853
2.34087
2.32971
2.31495
2.29643
2.27396
2.24732
2.21622
2.18036
2.13928
2.09261
2.04021
1.9832
1.48343
1.4793
1.47403
1.4676
1.46001
1.45128
1.44142
1.43047
1.41849
1.40551
1.39164
1.37694
1.36153
1.34553
1.32908
1.31235
1.29553
1.27884
1.26251
1.24647
1.29121
1.2915
1.2912
1.2903
1.28877
1.28661
1.28381
1.28037
1.2763
1.2716
1.26629
1.26038
1.25388
1.24683
1.23925
1.23118
1.22266
1.21375
1.20452
1.19494
0.936381
0.935174
0.933743
0.932092
0.930226
0.928151
0.925876
0.923412
0.92077
0.91796
0.914997
0.911893
0.908664
0.905323
0.901886
0.898369
0.894787
0.891151
0.887467
0.883815
0.805036
0.805042
0.804858
0.804483
0.803915
0.803156
0.802205
0.801066
0.79974
0.798231
0.796543
0.794679
0.792645
0.790447
0.788089
0.785578
0.782921
0.780133
0.777225
0.774128
0.612164
0.611968
0.611679
0.611296
0.610821
0.610254
0.609599
0.608855
0.608026
0.607113
0.60612
0.605047
0.603898
0.602675
0.601379
0.600015
0.598584
0.597082
0.595514
0.593954
0.519124
0.519293
0.519371
0.519359
0.519255
0.51906
0.518775
0.5184
0.517936
0.517383
0.516743
0.516017
0.515205
0.51431
0.513332
0.512271
0.511132
0.509921
0.508645
0.507239
0.3993
0.399387
0.399418
0.399394
0.399315
0.39918
0.398991
0.398747
0.398449
0.398098
0.397693
0.397234
0.396723
0.39616
0.395543
0.394875
0.394155
0.39338
0.392552
0.391697
0.33352
0.333711
0.33385
0.333938
0.333973
0.333957
0.333889
0.333769
0.333598
0.333376
0.333103
0.332779
0.332406
0.331982
0.33151
0.330988
0.330418
0.329803
0.329147
0.328412
0.258575
0.258686
0.25876
0.258797
0.258798
0.258761
0.258688
0.258578
0.258432
0.258248
0.258029
0.257772
0.25748
0.257151
0.256786
0.256385
0.255948
0.255472
0.254959
0.254441
0.216774
0.216952
0.217096
0.217206
0.217281
0.217322
0.217329
0.217301
0.217239
0.217142
0.21701
0.216844
0.216644
0.216409
0.216139
0.215834
0.215495
0.215123
0.214719
0.214254
0.169781
0.169888
0.16997
0.170028
0.170062
0.170072
0.170058
0.17002
0.169957
0.16987
0.16976
0.169624
0.169465
0.169281
0.169073
0.168841
0.168585
0.168302
0.167994
0.167673
0.141634
0.141751
0.141848
0.141923
0.141978
0.142012
0.142025
0.142017
0.141988
0.141938
0.141867
0.141776
0.141663
0.14153
0.141376
0.141202
0.141007
0.140792
0.140557
0.140293
0.112684
0.112766
0.11283
0.112878
0.112909
0.112924
0.112921
0.112902
0.112866
0.112813
0.112743
0.112657
0.112553
0.112432
0.112295
0.11214
0.111969
0.11178
0.111573
0.111358
0.0961608
0.0962517
0.0963281
0.0963898
0.0964368
0.0964692
0.0964869
0.0964899
0.0964781
0.0964517
0.0964105
0.0963547
0.096284
0.0961987
0.0960986
0.0959837
0.0958541
0.0957103
0.0955521
0.0953729
0.0797388
0.0798043
0.0798584
0.0799013
0.0799327
0.0799529
0.0799618
0.0799593
0.0799455
0.0799205
0.0798841
0.0798365
0.0797777
0.0797076
0.0796263
0.0795339
0.0794304
0.0793155
0.0791893
0.0790552
0.0701558
0.0702181
0.0702693
0.0703096
0.0703388
0.070357
0.0703642
0.0703603
0.0703454
0.0703194
0.0702825
0.0702344
0.0701754
0.0701053
0.0700243
0.0699322
0.0698291
0.0697153
0.0695907
0.069453
0.0625299
0.0625826
0.0626252
0.0626577
0.0626803
0.0626928
0.0626952
0.0626876
0.06267
0.0626422
0.0626044
0.0625564
0.0624983
0.0624301
0.0623517
0.0622632
0.0621645
0.0620554
0.0619362
0.0618078
0.0600429
0.0600975
0.0601431
0.0601796
0.0602069
0.0602251
0.0602341
0.0602341
0.0602248
0.0602065
0.0601791
0.0601425
0.0600969
0.0600422
0.0599785
0.0599057
0.0598239
0.0597332
0.0596337
0.0595245
1.95202
1.99531
2.03785
2.07951
2.12014
2.15962
2.19785
2.23478
2.27034
2.3045
2.33725
2.36863
2.3987
2.42758
2.45542
2.48242
2.5089
2.5357
2.56442
2.59624
1.76532
1.79424
1.82315
1.85202
1.88088
1.9097
1.9385
1.96726
1.99598
2.02465
2.05324
2.08173
2.11004
2.1381
2.16579
2.19293
2.21935
2.24475
2.26872
2.29059
1.39468
1.40507
1.41501
1.42447
1.43341
1.44181
1.44963
1.45684
1.46342
1.46933
1.47455
1.47905
1.4828
1.48579
1.48799
1.48939
1.48997
1.48971
1.48856
1.48649
1.18523
1.19413
1.20272
1.21102
1.21902
1.2267
1.23403
1.241
1.24759
1.25378
1.25955
1.26488
1.26977
1.27419
1.27813
1.28159
1.28455
1.287
1.28894
1.29035
0.913119
0.91643
0.919546
0.922436
0.925098
0.927532
0.929733
0.931702
0.933435
0.934935
0.9362
0.937232
0.938033
0.938606
0.938953
0.939077
0.93898
0.938662
0.938124
0.937364
0.766507
0.77012
0.773561
0.776832
0.779934
0.782862
0.785614
0.788188
0.790581
0.792793
0.794821
0.796667
0.798328
0.799807
0.801103
0.802216
0.803147
0.803896
0.804461
0.804842
0.595633
0.597413
0.599114
0.60071
0.602196
0.603575
0.604849
0.606017
0.607082
0.608043
0.608903
0.609663
0.610324
0.610887
0.611354
0.611725
0.612002
0.612184
0.612272
0.612265
0.496907
0.498894
0.500766
0.502548
0.504242
0.505846
0.507359
0.508781
0.510113
0.511355
0.512507
0.51357
0.514543
0.515427
0.516222
0.516928
0.517546
0.518075
0.518514
0.518864
0.3861
0.38727
0.388405
0.389481
0.390499
0.391459
0.392364
0.393213
0.394007
0.394746
0.39543
0.396061
0.396637
0.397159
0.397628
0.398043
0.398403
0.39871
0.398961
0.399158
0.31887
0.320103
0.321272
0.322388
0.323455
0.32447
0.325433
0.326345
0.327205
0.328014
0.328771
0.329477
0.330132
0.330735
0.331287
0.331788
0.332238
0.332636
0.332982
0.333277
0.248717
0.249543
0.250349
0.251118
0.251848
0.252542
0.253198
0.253818
0.254402
0.254949
0.25546
0.255935
0.256373
0.256775
0.257141
0.257471
0.257765
0.258022
0.258243
0.258427
0.206235
0.207079
0.20788
0.20865
0.209388
0.210095
0.210769
0.211411
0.21202
0.212598
0.213142
0.213654
0.214134
0.21458
0.214994
0.215374
0.215721
0.216035
0.216315
0.216561
0.162736
0.163301
0.163851
0.164377
0.16488
0.16536
0.165818
0.166252
0.166663
0.167051
0.167416
0.167758
0.168076
0.168372
0.168644
0.168893
0.169118
0.169319
0.169497
0.169651
0.134959
0.135491
0.135997
0.136483
0.136949
0.137395
0.13782
0.138226
0.138611
0.138976
0.13932
0.139644
0.139948
0.140231
0.140493
0.140735
0.140956
0.141157
0.141337
0.141496
0.1076
0.108002
0.108396
0.108774
0.109135
0.109479
0.109807
0.110119
0.110415
0.110695
0.110958
0.111204
0.111435
0.111649
0.111846
0.112027
0.112192
0.11234
0.112471
0.112586
0.0913341
0.0917117
0.0920713
0.0924176
0.0927504
0.0930695
0.0933746
0.0936658
0.0939431
0.0942063
0.0944554
0.0946904
0.0949111
0.0951177
0.0953099
0.0954879
0.0956514
0.0958005
0.0959351
0.0960553
0.0760853
0.0763704
0.0766468
0.0769123
0.0771668
0.0774104
0.0776432
0.0778651
0.0780759
0.0782758
0.0784646
0.0786424
0.078809
0.0789645
0.0791088
0.0792419
0.0793638
0.0794744
0.0795738
0.0796619
0.0666277
0.0669073
0.0671744
0.067431
0.0676773
0.0679129
0.068138
0.0683523
0.068556
0.068749
0.0689311
0.0691025
0.0692631
0.0694129
0.0695518
0.0696798
0.0697969
0.0699031
0.0699983
0.0700826
0.0593943
0.0596438
0.0598846
0.0601156
0.0603367
0.0605479
0.0607492
0.0609407
0.0611223
0.0612941
0.061456
0.061608
0.0617502
0.0618824
0.0620047
0.0621171
0.0622195
0.062312
0.0623946
0.0624672
0.0570542
0.0572882
0.0575127
0.0577287
0.057936
0.0581346
0.0583244
0.0585054
0.0586776
0.0588409
0.0589952
0.0591406
0.0592771
0.0594045
0.0595229
0.0596323
0.0597327
0.0598239
0.0599061
0.0599792
0.668078
1.43309
1.8453
2.16621
2.36949
2.51755
2.61533
2.67937
2.71787
2.7381
2.74576
2.74536
2.74042
2.73323
2.72603
2.71962
2.71464
2.71137
2.70989
2.71043
0.95597
1.45428
1.857
2.14205
2.34902
2.49406
2.59414
2.66027
2.70128
2.72403
2.73416
2.73613
2.73339
2.72844
2.7229
2.71799
2.71416
2.71157
2.71034
2.71092
1.15903
1.54289
1.89701
2.14627
2.34496
2.48383
2.58393
2.65063
2.69297
2.71701
2.72827
2.73116
2.72917
2.72488
2.72006
2.71559
2.71225
2.71
2.70892
2.70949
1.29264
1.61848
1.92396
2.14955
2.33494
2.46922
2.56876
2.63695
2.68152
2.7078
2.72095
2.72529
2.72432
2.72075
2.71642
2.71242
2.70932
2.70727
2.70624
2.70662
1.39988
1.67985
1.94198
2.14838
2.31965
2.44974
2.54838
2.61853
2.666
2.69541
2.71134
2.71786
2.71845
2.71589
2.71218
2.70856
2.70565
2.70364
2.70254
2.70257
1.48726
1.72948
1.95588
2.14379
2.30188
2.42711
2.5245
2.59646
2.64711
2.68017
2.69953
2.70889
2.71156
2.71037
2.70744
2.70418
2.70137
2.69929
2.69799
2.69757
1.55945
1.76932
1.96696
2.1372
2.28319
2.40285
2.49851
2.57181
2.62549
2.66238
2.6856
2.69832
2.70358
2.70413
2.70219
2.69935
2.69657
2.69431
2.69272
2.69179
1.61834
1.80157
1.97554
2.12967
2.2645
2.37816
2.47155
2.54552
2.6018
2.64238
2.66961
2.68604
2.69433
2.69701
2.69632
2.69401
2.69126
2.68875
2.68678
2.68528
1.66631
1.82749
1.98192
2.1217
2.24628
2.35383
2.44444
2.5184
2.57666
2.62052
2.65164
2.67194
2.68357
2.68875
2.68963
2.68802
2.68535
2.68255
2.68014
2.67802
1.70497
1.8481
1.98625
2.11346
2.22871
2.33026
2.41774
2.49103
2.5506
2.59718
2.63185
2.65595
2.67109
2.6791
2.68187
2.68122
2.67874
2.67565
2.67275
2.66992
1.73599
1.86415
1.98868
2.10493
2.21177
2.30756
2.3917
2.46383
2.52405
2.57271
2.61043
2.63807
2.65673
2.66778
2.67277
2.67339
2.67128
2.66796
2.66451
2.66085
1.7606
1.87633
1.98938
2.09611
2.1954
2.28575
2.36646
2.43704
2.49734
2.54744
2.58764
2.61841
2.64042
2.65459
2.66208
2.66429
2.66282
2.65937
2.65534
2.65068
1.77999
1.88527
1.98861
2.08705
2.17957
2.26485
2.34213
2.41087
2.47077
2.52173
2.56381
2.5972
2.62224
2.63945
2.64959
2.65371
2.65319
2.64979
2.64519
2.63928
1.79504
1.89154
1.98662
2.07783
2.16428
2.24484
2.31877
2.38549
2.44462
2.49593
2.53933
2.5748
2.60244
2.62247
2.63527
2.64151
2.64225
2.63916
2.63403
2.62653
1.80621
1.89529
1.98324
2.06811
2.14912
2.22533
2.29603
2.36066
2.41879
2.47011
2.51438
2.55148
2.5813
2.60385
2.61921
2.62767
2.62995
2.62749
2.62194
2.61244
1.81361
1.89618
1.97778
2.05694
2.13301
2.20519
2.27284
2.3354
2.39243
2.44355
2.48846
2.52691
2.55867
2.58355
2.60141
2.6122
2.6163
2.61486
2.60917
2.59719
1.81789
1.89431
1.96993
2.04374
2.11516
2.18352
2.24821
2.3087
2.36453
2.41529
2.46065
2.50027
2.53384
2.56103
2.58148
2.59489
2.60127
2.60146
2.59613
2.58147
1.82182
1.89216
1.96206
2.03076
2.09772
2.16233
2.22401
2.28225
2.33658
2.38661
2.43196
2.47231
2.5073
2.53654
2.55957
2.5759
2.5853
2.58809
2.58399
2.56729
1.83004
1.8951
1.9601
2.02434
2.0873
2.14839
2.20706
2.26282
2.31521
2.36386
2.4084
2.44852
2.48389
2.51417
2.53896
2.55785
2.57057
2.577
2.57587
2.56089
1.84312
1.90482
1.96651
2.02769
2.08776
2.14614
2.20232
2.25585
2.30631
2.35334
2.3966
2.4358
2.47064
2.50083
2.52611
2.54624
2.56112
2.57062
2.57387
2.56832
0.0321346
0.0971832
0.158081
0.219666
0.277979
0.316636
0.362786
0.415321
0.470549
0.534412
0.594376
0.660918
0.734554
0.808995
0.905218
1.03506
1.19558
1.39043
1.60237
1.82068
0.0372667
0.10864
0.175739
0.239703
0.300281
0.364541
0.425836
0.488092
0.552492
0.616867
0.690007
0.767311
0.851217
0.94608
1.04934
1.1596
1.27884
1.4041
1.53718
1.67899
0.0383467
0.110321
0.179203
0.246434
0.310387
0.37396
0.438314
0.502267
0.567388
0.633279
0.69962
0.768662
0.839741
0.912326
0.989008
1.06667
1.14539
1.22286
1.29686
1.36199
0.0349101
0.101674
0.165989
0.228936
0.290564
0.351177
0.410676
0.469863
0.528695
0.587311
0.646691
0.705607
0.765306
0.82511
0.884045
0.942655
1.00004
1.05531
1.10821
1.15749
0.0303918
0.0894629
0.146637
0.202536
0.256896
0.31003
0.362391
0.41346
0.463793
0.513162
0.561236
0.608568
0.654154
0.698479
0.74059
0.780629
0.81694
0.85026
0.878822
0.902705
0.024903
0.0739057
0.122347
0.169592
0.216282
0.261741
0.306326
0.349901
0.392204
0.433596
0.473574
0.512324
0.549638
0.585306
0.619312
0.651259
0.681258
0.708844
0.733504
0.755234
0.0208602
0.0614835
0.102041
0.141424
0.180221
0.218008
0.254772
0.290457
0.324988
0.358154
0.390049
0.4203
0.449044
0.475756
0.500763
0.523351
0.543942
0.561792
0.577316
0.590026
0.0178362
0.0524063
0.0861824
0.119046
0.150954
0.181991
0.211988
0.240997
0.269064
0.295905
0.321711
0.346262
0.369556
0.391619
0.412151
0.431372
0.448915
0.464772
0.478759
0.49058
0.0142772
0.0430617
0.0703097
0.0972167
0.12293
0.148009
0.172089
0.195297
0.217559
0.238865
0.259009
0.278153
0.295986
0.312676
0.327884
0.341829
0.35416
0.365125
0.374498
0.382539
0.0106275
0.0335811
0.0549617
0.0763659
0.0970096
0.117184
0.136728
0.155657
0.173818
0.191321
0.207944
0.223735
0.238695
0.25268
0.265826
0.277883
0.288945
0.298885
0.307594
0.314973
0.00850724
0.0252862
0.0424065
0.0589925
0.0755441
0.0915786
0.107285
0.122456
0.13709
0.151035
0.164392
0.176927
0.188752
0.199672
0.209775
0.218913
0.22719
0.234451
0.240765
0.246203
0.00736464
0.0207153
0.0346335
0.0479876
0.0613257
0.0742375
0.0868974
0.0991023
0.110932
0.12227
0.133141
0.143513
0.153273
0.162504
0.171051
0.179006
0.18625
0.192795
0.198594
0.203567
0.00614979
0.0176421
0.0288863
0.0399616
0.0506311
0.0610921
0.0711792
0.0809705
0.090333
0.0993439
0.107869
0.115973
0.123533
0.130604
0.137124
0.143092
0.148439
0.153203
0.157376
0.161012
0.0042992
0.0142857
0.0231007
0.0323375
0.0409066
0.0495416
0.0575384
0.0657151
0.0733548
0.0807722
0.0878265
0.0945554
0.100913
0.10684
0.112394
0.117502
0.122178
0.126393
0.130122
0.133276
0.00268347
0.0114476
0.0179346
0.025558
0.0323422
0.0394762
0.0454043
0.0519477
0.0582573
0.064277
0.0700404
0.0754699
0.0806032
0.0853914
0.089834
0.0939021
0.0976041
0.100916
0.10374
0.106386
0.00325232
0.00894872
0.0150657
0.0208489
0.0266884
0.0323284
0.0378688
0.0432577
0.0485063
0.0535701
0.0584151
0.0630499
0.0674347
0.0715872
0.0754538
0.0790385
0.0823028
0.0852512
0.0878795
0.0901378
0.0028259
0.00779973
0.0129567
0.0179604
0.0228922
0.0277122
0.0323945
0.0369489
0.0413236
0.0455379
0.049556
0.0533842
0.0569976
0.0603752
0.0635078
0.066387
0.0690102
0.0713607
0.0734243
0.0752082
0.002081
0.00667982
0.010924
0.0152731
0.0194643
0.0236153
0.0276418
0.0315784
0.0353856
0.0390555
0.0425763
0.0459284
0.0491171
0.0521164
0.0549298
0.0575287
0.0599588
0.062124
0.0640639
0.0657481
0.00176027
0.00592174
0.0097124
0.0135706
0.0173306
0.0210374
0.0246623
0.028182
0.0315963
0.034881
0.0380335
0.0410359
0.0438806
0.0465543
0.0490509
0.0513601
0.0534748
0.0553903
0.0570959
0.0586206
0.00191198
0.00555099
0.00928369
0.0129294
0.0165568
0.0201004
0.0235735
0.0269521
0.0302249
0.0333872
0.0364251
0.0393281
0.0420788
0.044669
0.0470877
0.0493322
0.0513863
0.0532414
0.0548953
0.0563231
0.0280541
0.061849
0.105487
0.129739
0.147652
0.166979
0.173706
0.168066
0.167892
0.141432
0.123945
0.0915494
0.0485309
0.00102898
-0.0582929
-0.144282
-0.282534
-0.431693
-0.306848
-1.68427
0.0284585
0.0619509
0.106515
0.131316
0.149357
0.170609
0.179015
0.17449
0.177282
0.152613
0.138835
0.111418
0.0743566
0.0364565
-0.010508
-0.0820408
-0.189587
-0.268782
-0.128553
-0.997357
0.0287565
0.0622608
0.107456
0.133086
0.151178
0.174313
0.18456
0.181243
0.186784
0.164209
0.153831
0.131605
0.100504
0.07213
0.0370975
-0.0195726
-0.0954223
-0.117465
0.0189587
-0.428491
0.0290548
0.0626931
0.108385
0.135012
0.153073
0.178087
0.190361
0.188247
0.196468
0.176087
0.168922
0.152017
0.126856
0.107817
0.0841875
0.0422563
-0.00295708
0.021644
0.165815
0.0325909
0.0294
0.0632119
0.109335
0.137065
0.155
0.181907
0.196419
0.195467
0.206354
0.18815
0.184049
0.17255
0.15329
0.143381
0.130895
0.103836
0.0873188
0.14545
0.296554
0.382088
0.0298045
0.0638123
0.110316
0.139221
0.156916
0.185739
0.202734
0.202889
0.216438
0.200322
0.199133
0.193096
0.179678
0.178667
0.17708
0.164525
0.173866
0.257827
0.424064
0.654957
0.0302677
0.0644925
0.111336
0.141475
0.1588
0.189565
0.209307
0.210514
0.226712
0.212565
0.214131
0.213589
0.205933
0.213605
0.22284
0.224416
0.25615
0.358023
0.539662
0.864242
0.03078
0.0652426
0.112414
0.14384
0.160708
0.193411
0.21613
0.218353
0.237163
0.224918
0.229098
0.234059
0.232047
0.248122
0.267993
0.282973
0.333864
0.450344
0.64833
1.02839
0.0313405
0.0660292
0.113591
0.146333
0.162792
0.197375
0.223166
0.226433
0.247763
0.237506
0.244209
0.254649
0.258112
0.282218
0.31242
0.339973
0.406796
0.534393
0.746231
1.15705
0.0319786
0.0668098
0.114922
0.14894
0.165238
0.201578
0.230342
0.234791
0.258452
0.250474
0.25966
0.275516
0.28423
0.315862
0.355799
0.394912
0.475152
0.612509
0.836165
1.25918
0.0327578
0.0675867
0.116424
0.151607
0.168042
0.206009
0.237591
0.243431
0.269174
0.263793
0.275385
0.296566
0.310298
0.348974
0.398004
0.447642
0.538955
0.684314
0.917049
1.34064
0.0337085
0.0685172
0.117955
0.154313
0.170693
0.210267
0.244987
0.252233
0.279983
0.276992
0.290682
0.317115
0.335695
0.381243
0.439225
0.498445
0.598956
0.751208
0.990308
1.40613
0.0346658
0.0700181
0.119086
0.15723
0.171984
0.213375
0.252931
0.260848
0.291202
0.289028
0.304046
0.335772
0.359178
0.412102
0.480355
0.548435
0.656127
0.813322
1.05532
1.45903
0.0351483
0.0726785
0.119165
0.160809
0.170461
0.214091
0.262137
0.268772
0.303419
0.298691
0.313804
0.35105
0.379421
0.440905
0.522708
0.599182
0.71205
0.871852
1.11231
1.50152
0.0346799
0.0766631
0.117988
0.165348
0.165929
0.212148
0.273025
0.275945
0.316949
0.305876
0.319892
0.362989
0.396542
0.467738
0.56696
0.651371
0.767328
0.927008
1.16124
1.53507
0.0340339
0.0803884
0.117356
0.169692
0.161802
0.210405
0.284266
0.284062
0.330501
0.313528
0.326358
0.375385
0.414223
0.49477
0.611068
0.702595
0.820204
0.978306
1.204
1.56139
0.0372204
0.0787927
0.123089
0.169552
0.166906
0.216803
0.291061
0.298038
0.339554
0.329099
0.34295
0.397019
0.440857
0.527378
0.648211
0.745315
0.864512
1.02269
1.24466
1.58408
0.0516044
0.0641311
0.144066
0.158102
0.191963
0.241819
0.285922
0.324903
0.33707
0.361575
0.380583
0.437346
0.485265
0.572088
0.668375
0.769275
0.891827
1.05563
1.28864
1.6086
0.0795087
0.0351567
0.182003
0.133632
0.2372
0.286699
0.266528
0.365819
0.32105
0.410957
0.438448
0.494943
0.545507
0.628254
0.668476
0.772348
0.900398
1.07575
1.33659
1.63788
0.0968433
0.0188731
0.205647
0.120702
0.267579
0.318385
0.256058
0.393759
0.314947
0.44648
0.480505
0.536166
0.588313
0.669101
0.67166
0.778998
0.911892
1.09644
1.37459
1.66351
0.0467734
0.117224
0.175648
0.211123
0.238937
0.246721
0.249705
0.235142
0.216732
0.182119
0.14299
0.086754
0.0230727
-0.0611738
-0.15304
-0.264494
-0.372576
-0.44215
-0.468818
-0.439227
0.0454909
0.11455
0.171501
0.206455
0.23325
0.240161
0.241768
0.225336
0.204479
0.166482
0.12333
0.0614148
-0.00867938
-0.101714
-0.201498
-0.327721
-0.446525
-0.524747
-0.560849
-0.526337
0.0440664
0.111358
0.166602
0.200751
0.226341
0.232215
0.232318
0.213969
0.190488
0.14908
0.101553
0.0338329
-0.0434095
-0.145576
-0.255389
-0.398564
-0.531732
-0.623149
-0.671221
-0.632076
0.0425021
0.10775
0.161048
0.194198
0.218387
0.223144
0.22161
0.201377
0.175114
0.130333
0.0781968
0.00454607
-0.0804945
-0.1922
-0.314275
-0.477687
-0.628736
-0.737889
-0.800827
-0.754254
0.0408384
0.103808
0.154978
0.186959
0.20962
0.213206
0.209951
0.1879
0.15879
0.110746
0.0538863
-0.0258176
-0.119052
-0.240544
-0.377132
-0.564111
-0.735869
-0.869359
-0.949505
-0.893061
0.0391245
0.0996317
0.148553
0.17921
0.200294
0.202686
0.197683
0.173926
0.142007
0.0908959
0.0292952
-0.0564449
-0.157885
-0.289401
-0.442639
-0.655049
-0.848903
-1.01711
-1.11503
-1.0472
0.0374028
0.0953371
0.141957
0.171152
0.190677
0.191895
0.18518
0.159899
0.12531
0.0713953
0.0051824
-0.0863014
-0.195629
-0.337649
-0.509353
-0.746606
-0.96243
-1.17929
-1.29335
-1.21484
0.0357101
0.091052
0.135389
0.163011
0.181049
0.181165
0.172837
0.146297
0.109269
0.0528834
-0.0175797
-0.11423
-0.230909
-0.384018
-0.57518
-0.834584
-1.07278
-1.35331
-1.47829
-1.395
0.0340759
0.0868994
0.129045
0.15503
0.171695
0.170838
0.161056
0.13361
0.0944774
0.0360485
-0.0380299
-0.139049
-0.262425
-0.426596
-0.636446
-0.913404
-1.1795
-1.53784
-1.66088
-1.58654
0.0325227
0.0829771
0.123095
0.147452
0.162904
0.161261
0.150241
0.122323
0.0815501
0.0216237
-0.0551799
-0.159616
-0.288806
-0.462712
-0.687804
-0.977826
-1.28239
-1.73284
-1.82945
-1.79085
0.0310649
0.0793462
0.117673
0.14051
0.154949
0.152779
0.140797
0.112914
0.0711131
0.0103641
-0.0680583
-0.174791
-0.308443
-0.489227
-0.72376
-1.02483
-1.38013
-1.9291
-1.98082
-2.00702
0.0297131
0.0760387
0.112881
0.134407
0.148065
0.145724
0.133128
0.105834
0.0637785
0.00301753
-0.0757026
-0.183299
-0.319401
-0.503258
-0.741112
-1.05352
-1.46597
-2.08636
-2.10832
-2.23504
0.0284809
0.0730727
0.108799
0.129311
0.14244
0.140403
0.127613
0.10147
0.0600931
0.000256813
-0.0772175
-0.183764
-0.31956
-0.50256
-0.739935
-1.06335
-1.52145
-2.13779
-2.20226
-2.45764
0.0273889
0.0704622
0.105475
0.12535
0.138215
0.13707
0.124576
0.100103
0.0604677
0.00259434
-0.0719385
-0.175075
-0.307243
-0.485316
-0.719713
-1.05277
-1.52392
-2.05657
-2.25317
-2.644
0.0264622
0.0682235
0.102909
0.12263
0.1355
0.135886
0.12426
0.101898
0.0651151
0.0103323
-0.0595775
-0.156795
-0.281939
-0.450649
-0.678305
-1.01109
-1.46332
-1.87637
-2.27262
-2.7167
0.0257219
0.0663989
0.101055
0.121221
0.134372
0.136846
0.126792
0.106928
0.0740092
0.0235228
-0.0402623
-0.129214
-0.2443
-0.399241
-0.612878
-0.92619
-1.33974
-1.70964
-2.43316
-2.68681
0.0251667
0.0650608
0.0998814
0.121117
0.134884
0.13979
0.132129
0.115192
0.0869239
0.0419163
-0.0144956
-0.0931961
-0.195772
-0.332978
-0.522676
-0.793395
-1.15163
-1.58623
-2.94767
-2.47392
0.0247998
0.0642159
0.0994961
0.122196
0.137
0.144547
0.140077
0.12655
0.10361
0.0649063
0.0169423
-0.0500332
-0.138201
-0.254518
-0.411897
-0.621581
-0.901807
-1.4209
-3.28372
-2.16969
0.0248817
0.0636111
0.100274
0.124246
0.140442
0.151144
0.150467
0.140559
0.124084
0.0915134
0.0533013
-0.0010695
-0.0732397
-0.166012
-0.287688
-0.443113
-0.65881
-1.06641
-1.50199
-1.13367
0.0262499
0.062704
0.102757
0.127119
0.144653
0.15983
0.163363
0.156455
0.14873
0.120638
0.0941654
0.0527463
-0.00212247
-0.0686336
-0.153767
-0.270622
-0.466721
-0.754976
-0.659534
-2.43814
0.00938641
0.0140068
0.0139984
0.0155469
0.0146233
0.0151666
0.0142458
0.0141942
0.0133193
0.012891
0.0120069
0.0113075
0.0103268
0.00940717
0.00830109
0.00723055
0.00605495
0.00530883
0.0043961
0.00434874
0.0234589
0.0362675
0.0402529
0.0447557
0.0437572
0.0452166
0.0433333
0.0431005
0.0409651
0.0396746
0.0372571
0.0351329
0.0322015
0.0292633
0.0257087
0.02202
0.0181739
0.0150499
0.0119403
0.0113903
0.0327083
0.0525471
0.0634572
0.0706033
0.0707507
0.0730205
0.0706414
0.0701845
0.0669313
0.0647233
0.0607515
0.0571125
0.0521184
0.0470344
0.0408857
0.0344921
0.0279082
0.0223205
0.0171609
0.0161132
0.0396962
0.0657605
0.0839275
0.0938744
0.0959959
0.0992323
0.0967281
0.0961835
0.0919286
0.0888738
0.0833249
0.0781547
0.0709544
0.0635771
0.0545647
0.0451851
0.0355352
0.0270584
0.0195833
0.0176887
0.044185
0.0760468
0.101544
0.114283
0.119005
0.123258
0.12091
0.120352
0.115147
0.111275
0.104071
0.0973293
0.0877412
0.077927
0.0657636
0.0531396
0.0400609
0.0283232
0.0183196
0.0152906
0.0473823
0.0847697
0.116922
0.132397
0.140095
0.145381
0.143472
0.142959
0.13688
0.132226
0.123307
0.114962
0.102802
0.0903859
0.0747273
0.0585084
0.0414892
0.0259422
0.0130166
0.00836524
0.0494023
0.09199
0.130187
0.148153
0.159075
0.165295
0.164076
0.163569
0.156688
0.151228
0.140525
0.13052
0.1156
0.100402
0.0808885
0.0607144
0.0391649
0.0192283
0.00302714
-0.00372854
0.0507475
0.098183
0.141689
0.161951
0.176127
0.183146
0.182847
0.182254
0.174671
0.168345
0.155817
0.144078
0.126226
0.108052
0.0843181
0.0597881
0.0330324
0.0080564
-0.0118152
-0.0212308
0.051563
0.103428
0.151476
0.173865
0.191167
0.198811
0.199615
0.198768
0.190589
0.183274
0.168899
0.155305
0.134339
0.113041
0.0847292
0.0554374
0.0228022
-0.00782428
-0.0317062
-0.0442562
0.0520401
0.107898
0.159736
0.184146
0.204288
0.212413
0.214435
0.213132
0.204478
0.195997
0.179789
0.164156
0.139882
0.115398
0.0821522
0.0476726
0.00855504
-0.0282203
-0.0563887
-0.0724052
0.0522561
0.11164
0.166544
0.192863
0.215501
0.223958
0.227231
0.225243
0.216225
0.206344
0.188344
0.170414
0.142703
0.114898
0.0764427
0.0363562
-0.00968837
-0.0528514
-0.0853662
-0.104881
0.0522839
0.114727
0.172034
0.200134
0.224912
0.233566
0.238033
0.235141
0.225846
0.214293
0.194558
0.174035
0.143003
0.111268
0.0676059
0.0215257
-0.0317082
-0.0811496
-0.117741
-0.14033
0.0521579
0.117185
0.176297
0.206021
0.232554
0.241322
0.246806
0.242825
0.23329
0.219771
0.198358
0.174915
0.140606
0.104499
0.0556229
0.00323977
-0.0572308
-0.112456
-0.1524
-0.176963
0.0519044
0.119048
0.179441
0.210604
0.238503
0.247346
0.253575
0.248378
0.238568
0.222803
0.199755
0.173053
0.135505
0.0946611
0.0405708
-0.0183
-0.0857957
-0.145982
-0.188032
-0.212609
0.0515356
0.120335
0.181553
0.213938
0.242833
0.251702
0.258382
0.251876
0.241675
0.223431
0.198744
0.168453
0.127707
0.0818485
0.0224872
-0.0429003
-0.116922
-0.180968
-0.223319
-0.24507
0.0510624
0.121068
0.182723
0.216085
0.245647
0.254467
0.261309
0.253431
0.242644
0.221755
0.195365
0.161176
0.117274
0.0661337
0.00144328
-0.0704077
-0.150261
-0.216774
-0.257195
-0.272711
0.0504934
0.121269
0.183013
0.217109
0.247023
0.255704
0.262424
0.253139
0.241514
0.217884
0.189639
0.15129
0.104235
0.0474218
-0.0225349
-0.100827
-0.185871
-0.253242
-0.289494
-0.295562
0.0498245
0.120968
0.182448
0.217084
0.24701
0.255497
0.261794
0.2511
0.238359
0.211941
0.181597
0.138929
0.0885882
0.025553
-0.0495419
-0.134378
-0.224303
-0.291135
-0.321473
-0.315743
0.0490067
0.120217
0.181024
0.216097
0.245635
0.253952
0.259456
0.24745
0.233228
0.204061
0.171291
0.124275
0.0702469
0.000526337
-0.0796867
-0.171629
-0.266562
-0.332361
-0.356427
-0.337709
0.0479713
0.119049
0.178782
0.214222
0.242984
0.251172
0.255501
0.242349
0.226203
0.194465
0.158816
0.107477
0.0491398
-0.0274362
-0.112962
-0.213297
-0.313872
-0.379906
-0.401274
-0.373366
0.00534178
0.00615587
0.00714349
0.00826482
0.00944148
0.0105765
0.0115771
0.0123685
0.0128968
0.0131192
0.0129971
0.0125005
0.0116267
0.0104222
0.00898666
0.00744998