/*--------------------------------*- C++ -*----------------------------------*\
| =========                 |                                                 |
| \\      /  F ield         | OpenFOAM: The Open Source CFD Toolbox           |
|  \\    /   O peration     | Version:  v1806                                 |
|   \\  /    A nd           | Web:      www.OpenFOAM.com                      |
|    \\/     M anipulation  |                                                 |
\*---------------------------------------------------------------------------*/
FoamFile
{
    version     2.0;
    format      ascii;
    class       volScalarField;
    location    "8";
    object      p;
}
// * * * * * * * * * * * * * * * * * * * * * * * * * * * * * * * * * * * * * //

dimensions      [0 2 -2 0 0 0 0];


internalField   nonuniform List<scalar> 
2400
(
0.0641191
0.0642315
0.0639825
0.0632246
0.0627231
0.0619427
0.0608086
0.0593014
0.0573824
0.0551565
0.0532148
0.0497488
0.0467807
0.0423875
0.0379377
0.0334981
0.02732
0.0222831
0.0161284
0.0094603
0.192207
0.192655
0.192258
0.189837
0.188544
0.186076
0.182889
0.178455
0.172638
0.166569
0.160092
0.15054
0.141124
0.128494
0.11505
0.101368
0.0835668
0.0677363
0.0492087
0.0294166
0.320555
0.321532
0.320764
0.317271
0.31509
0.311166
0.305927
0.298614
0.289564
0.279715
0.268813
0.25357
0.237456
0.217025
0.194322
0.17133
0.141858
0.114525
0.0832546
0.0493245
0.449375
0.450965
0.449841
0.445813
0.442903
0.437591
0.430419
0.420579
0.408665
0.395543
0.380207
0.359536
0.336818
0.308738
0.276696
0.244184
0.202801
0.163046
0.118437
0.0694503
0.578804
0.581128
0.579782
0.575923
0.572222
0.565799
0.556741
0.545048
0.530748
0.514791
0.495268
0.469341
0.440214
0.404741
0.363302
0.320986
0.267244
0.214106
0.154993
0.090384
0.70876
0.712111
0.711142
0.707826
0.703069
0.695997
0.685196
0.672863
0.656541
0.638366
0.614921
0.584214
0.548853
0.50629
0.455302
0.402642
0.33592
0.268784
0.193584
0.113358
0.838732
0.844295
0.844344
0.841573
0.83532
0.828182
0.816271
0.804631
0.786843
0.767291
0.740101
0.705731
0.663982
0.614776
0.55384
0.490352
0.409778
0.328595
0.235061
0.139484
0.967858
0.978213
0.979433
0.976798
0.968722
0.962413
0.950532
0.940805
0.922105
0.902541
0.871582
0.835596
0.786562
0.732064
0.66026
0.586021
0.490422
0.394825
0.280049
0.168342
1.09586
1.11412
1.11529
1.11281
1.1029
1.09913
1.08828
1.08172
1.06224
1.04467
1.00958
0.975107
0.917928
0.860607
0.776632
0.692128
0.579998
0.468162
0.329374
0.198808
1.22328
1.25072
1.25019
1.24886
1.23758
1.23861
1.22875
1.22718
1.20662
1.19373
1.1547
1.12515
1.05961
1.00308
0.905362
0.811838
0.680523
0.549828
0.385006
0.231008
1.35137
1.38493
1.38307
1.38358
1.3724
1.37935
1.3707
1.37573
1.3549
1.34913
1.30804
1.28522
1.21315
1.16095
1.04823
0.949856
0.793955
0.643022
0.448604
0.264976
1.48065
1.51374
1.51322
1.51511
1.50708
1.51803
1.51345
1.52382
1.50676
1.50779
1.46926
1.45378
1.37874
1.33365
1.20644
1.11022
0.922848
0.754128
0.519917
0.298856
1.61147
1.63481
1.63942
1.64239
1.64163
1.65332
1.65679
1.66932
1.66141
1.66601
1.63616
1.62677
1.55482
1.51896
1.38033
1.29342
1.07018
0.893183
0.598439
0.333236
1.74625
1.74806
1.7595
1.7658
1.77606
1.78664
1.80094
1.81345
1.81918
1.82508
1.80847
1.80308
1.74131
1.71238
1.56991
1.49579
1.23665
1.06732
0.687717
0.380281
1.88459
1.85794
1.87672
1.88782
1.91293
1.92265
1.95065
1.96358
1.9856
1.99354
1.9932
1.98588
1.94319
1.91292
1.77801
1.70962
1.42335
1.27767
0.789459
0.465974
2.01755
1.96841
2.00117
2.01244
2.05886
2.06224
2.11663
2.12102
2.17908
2.17501
2.21684
2.19423
2.18418
2.13459
2.02696
1.92985
1.63619
1.49098
0.900594
0.594387
2.13359
2.08336
2.12178
2.13789
2.197
2.20476
2.28115
2.28658
2.38561
2.37254
2.48463
2.43085
2.52134
2.40945
2.3795
2.20161
1.94148
1.69274
1.01821
0.713726
2.23303
2.20029
2.23181
2.258
2.31887
2.34579
2.42785
2.45641
2.57056
2.58394
2.73166
2.69893
2.8749
2.74126
2.89485
2.57661
2.47823
1.97372
1.23584
0.7199
2.31988
2.30756
2.33214
2.36753
2.4266
2.47715
2.55755
2.621
2.73226
2.80014
2.94661
2.99068
3.18151
3.1292
3.3765
3.06995
3.29397
2.43347
2.02488
0.485112
2.40126
2.39642
2.42287
2.46307
2.52559
2.5906
2.67814
2.76622
2.88505
2.99678
3.14952
3.2733
3.4605
3.55755
3.78528
3.7176
4.01916
3.28873
3.43769
0.000780658
0.00141027
-0.0175301
-0.0152993
-0.0328938
-0.0462548
-0.0537845
-0.0499581
-0.0449911
-0.0464237
-0.0366357
0.00291282
-0.0483223
-0.0511612
-0.108995
-0.141196
-0.157529
-0.156545
-0.146778
-0.142496
-0.10907
0.00315732
-0.0815122
-0.0973826
-0.194573
-0.246696
-0.270898
-0.274026
-0.257662
-0.239993
-0.182252
0.00180065
-0.115379
-0.154652
-0.290472
-0.358725
-0.394415
-0.406379
-0.37979
-0.336397
-0.253079
-0.00107687
-0.147365
-0.223767
-0.395581
-0.479881
-0.534066
-0.560675
-0.517798
-0.432607
-0.321082
-0.00501506
-0.174547
-0.301769
-0.50888
-0.617404
-0.697618
-0.742576
-0.668373
-0.523822
-0.383171
-0.0106199
-0.194886
-0.386827
-0.628549
-0.780662
-0.904663
-0.9665
-0.831527
-0.607667
-0.433466
-0.020311
-0.208885
-0.485458
-0.752877
-0.971459
-1.17678
-1.24569
-1.0091
-0.684187
-0.466226
-0.0355296
-0.220117
-0.611806
-0.881793
-1.18672
-1.53169
-1.59005
-1.20952
-0.755809
-0.47251
-0.0542586
-0.240572
-0.775475
-1.00355
-1.457
-1.99435
-2.00639
-1.4407
-0.827042
-0.440775
-0.0728549
-0.281112
-0.96959
-1.12453
-1.8455
-2.61686
-2.51681
-1.7211
-0.898229
-0.361488
-0.0933358
-0.342446
-1.17083
-1.27886
-2.47025
-3.48626
-3.18675
-2.09907
-0.996663
-0.266031
-0.127647
-0.423824
-1.29462
-1.48737
-3.49473
-4.80408
-4.14256
-2.59106
-1.10422
-0.144421
-0.193593
-0.530641
-1.26568
-1.65037
-4.8662
-6.57177
-5.4928
-3.27904
-1.25096
0.0038612
-0.335492
-0.606907
-1.1156
-1.51504
-6.07766
-8.30202
-6.76845
-3.93716
-1.42854
0.11303
-0.61801
-0.660264
-0.924943
-1.08957
-6.55409
-9.13501
-7.5513
-4.33212
-1.52593
0.27572
-1.19948
-0.7551
-0.882166
-0.569633
-6.4849
-9.15017
-7.59187
-4.40162
-1.60894
0.353386
-2.24149
-0.983871
-1.37209
-0.266848
-5.87387
-8.49324
-7.03092
-4.20613
-1.68587
0.332595
-2.77551
-1.02781
-1.74853
-0.0272086
-4.82995
-7.23081
-6.15292
-3.86945
-1.5551
0.282912
-6.27303
-1.21953
-2.11469
0.28066
-4.1434
-6.36276
-5.57911
-3.5563
-1.34779
0.294555
-0.0288791
-0.0312141
-0.0261416
-0.0422344
-0.0348434
-0.00234969
0.0104444
0.0791762
0.129645
0.151815
0.151802
0.14218
0.126505
0.107833
0.0890326
0.0717068
0.0566017
0.0428177
0.0306918
0.0127496
-0.0877224
-0.0926608
-0.0757678
-0.13342
-0.129075
-0.0495071
0.0900136
0.22752
0.34129
0.395185
0.403373
0.383938
0.343384
0.292604
0.241293
0.193957
0.152337
0.114363
0.0803053
0.0324196
-0.145604
-0.153466
-0.134336
-0.246086
-0.239547
-0.0763033
0.138615
0.344778
0.518803
0.606621
0.625192
0.596346
0.534672
0.457238
0.378319
0.304597
0.238451
0.17719
0.120932
0.0472613
-0.20264
-0.213694
-0.20154
-0.382728
-0.374219
-0.129634
0.178352
0.465707
0.678491
0.783794
0.803666
0.766624
0.689511
0.592451
0.492787
0.398812
0.312844
0.231607
0.155097
0.0593734
-0.258796
-0.27251
-0.286642
-0.561619
-0.556419
-0.200231
0.213267
0.557239
0.806421
0.931304
0.961417
0.920911
0.829072
0.712983
0.593991
0.480811
0.376537
0.277495
0.18289
0.0688176
-0.312836
-0.326999
-0.402924
-0.792861
-0.783579
-0.296757
0.2332
0.655019
0.928322
1.06331
1.08871
1.03701
0.93567
0.809424
0.678426
0.551348
0.431979
0.317111
0.206046
0.0763183
-0.363367
-0.374065
-0.564901
-1.0985
-1.09581
-0.430413
0.240942
0.731983
1.02395
1.17055
1.20376
1.15097
1.03634
0.895311
0.750481
0.610459
0.47844
0.350296
0.225019
0.0822095
-0.399352
-0.403178
-0.79084
-1.49455
-1.47696
-0.595486
0.232041
0.794522
1.11926
1.27096
1.29381
1.22798
1.10922
0.963646
0.811308
0.661598
0.518481
0.378484
0.240676
0.0868435
-0.392527
-0.392589
-1.05078
-1.99139
-1.97369
-0.813787
0.205902
0.85168
1.19155
1.35303
1.38135
1.31179
1.17889
1.02243
0.861212
0.703594
0.551775
0.401998
0.253501
0.0904672
-0.311716
-0.303307
-1.28589
-2.58549
-2.55581
-1.0722
0.160202
0.894239
1.27239
1.43152
1.44499
1.3634
1.22848
1.06919
0.90344
0.739462
0.579964
0.421696
0.264012
0.0932933
-0.139688
-0.131178
-1.46194
-3.23826
-3.19976
-1.36137
0.102951
0.936239
1.33677
1.50077
1.51121
1.41994
1.27346
1.10737
0.937098
0.768606
0.603247
0.438018
0.272585
0.0954851
0.0787128
0.0865038
-1.61535
-3.90975
-3.8441
-1.65985
0.04255
0.990803
1.42241
1.57083
1.55913
1.45508
1.30539
1.13763
0.965098
0.792964
0.622634
0.451538
0.279565
0.0971778
0.327969
0.315818
-1.75823
-4.53142
-4.42826
-1.92261
0.00191754
1.04837
1.48375
1.62443
1.6005
1.48619
1.33087
1.1607
0.986903
0.812572
0.638516
0.462652
0.285226
0.098478
0.61591
0.549411
-1.86136
-5.0054
-4.87538
-2.11375
-0.0175604
1.1065
1.54915
1.66809
1.62811
1.50637
1.34879
1.17871
1.00458
0.828628
0.651563
0.471774
0.289809
0.0994725
0.807757
0.729912
-1.88425
-5.22586
-5.10769
-2.19597
-0.00347703
1.17316
1.60935
1.71068
1.65421
1.52104
1.36095
1.19154
1.01809
0.841445
0.662173
0.479225
0.29351
0.100231
1.13927
0.787047
-1.84313
-5.17674
-5.08755
-2.15507
0.0544872
1.23639
1.65136
1.72964
1.65845
1.52556
1.3679
1.20099
1.02876
0.851796
0.670818
0.485307
0.296501
0.100809
0.991193
0.675935
-1.74973
-4.90977
-4.83294
-1.99327
0.150897
1.2872
1.67857
1.74346
1.66599
1.52861
1.37241
1.20773
1.03695
0.860061
0.677837
0.490265
0.29892
0.101253
0.665001
0.489022
-1.61291
-4.46433
-4.35793
-1.72268
0.272745
1.32976
1.69535
1.74624
1.66193
1.52735
1.37427
1.21248
1.04335
0.866728
0.683562
0.494317
0.300887
0.101599
0.294704
0.279289
-1.51029
-3.88744
-3.67788
-1.37675
0.410474
1.36851
1.70566
1.74598
1.6592
1.52555
1.37518
1.21599
1.04843
0.872142
0.688255
0.497639
0.302497
0.101874
-0.0201767
0.0371614
-1.47881
-3.32431
-2.9903
-1.00509
0.550201
1.40596
1.7136
1.74376
1.65467
1.52302
1.37551
1.21876
1.0526
0.876624
0.692143
0.500383
0.303832
0.1021
-0.285083
-0.305096
-1.5093
-2.89002
-2.45709
-0.699733
0.66888
1.43832
1.71939
1.74137
1.65145
1.5213
1.37596
1.22099
1.05583
0.880041
0.69508
0.502443
0.304841
0.102275
-0.541028
-0.614014
-1.57692
-2.56217
-2.04088
-0.459743
0.767063
1.46468
1.72332
1.73924
1.64908
1.52032
1.37664
1.22296
1.05847
0.882744
0.697368
0.504038
0.305624
0.102416
-0.824655
-0.958294
-1.68505
-2.29564
-1.67872
-0.251667
0.854751
1.48627
1.72537
1.73712
1.64748
1.52011
1.37778
1.22503
1.06096
0.88519
0.699391
0.505434
0.306313
0.102546
-1.15988
-1.34035
-1.83336
-2.08672
-1.37523
-0.0760213
0.927934
1.50124
1.72498
1.73503
1.64676
1.52077
1.37945
1.22728
1.06338
0.887433
0.701193
0.50666
0.306924
0.102668
-1.55667
-1.76089
-2.01443
-1.9337
-1.12753
0.0657227
0.984322
1.50871
1.72175
1.73297
1.647
1.52237
1.3817
1.22975
1.06577
0.889507
0.702801
0.507739
0.307465
0.102785
-2.0262
-2.23422
-2.22203
-1.83196
-0.929803
0.175945
1.02423
1.50852
1.7154
1.73088
1.64818
1.52486
1.38451
1.23244
1.06812
0.891427
0.704232
0.508681
0.307944
0.102897
-2.55405
-2.73303
-2.45849
-1.76663
-0.77625
0.2598
1.04941
1.501
1.70584
1.72867
1.65025
1.52816
1.38779
1.23528
1.07043
0.893185
0.705486
0.509491
0.308364
0.103006
-3.21028
-3.28593
-2.7071
-1.7231
-0.658166
0.322567
1.06237
1.48797
1.69363
1.72631
1.6531
1.53214
1.39142
1.23821
1.07263
0.894758
0.706552
0.510163
0.308722
0.103111
-3.89675
-3.83223
-2.95423
-1.68187
-0.565878
0.369599
1.06683
1.47338
1.68029
1.72379
1.65647
1.53654
1.39523
1.24109
1.07465
0.896105
0.707411
0.510691
0.309014
0.103211
-4.66018
-4.39313
-3.17644
-1.63976
-0.492445
0.403391
1.0665
1.46012
1.66733
1.72085
1.65972
1.54094
1.39895
1.24377
1.0764
0.897172
0.70803
0.511053
0.30923
0.103306
-5.57989
-4.98264
-3.45272
-1.59596
-0.424963
0.424465
1.05561
1.44258
1.65131
1.71538
1.66191
1.54522
1.40277
1.24647
1.07806
0.898041
0.708443
0.511267
0.309389
0.103411
-4.6881
-5.12073
-3.32243
-1.54436
-0.37908
0.413913
1.00691
1.39277
1.61417
1.69795
1.65819
1.54696
1.40531
1.24838
1.07891
0.89815
0.708224
0.511053
0.309373
0.1035
-4.48475
-5.91955
-3.10783
-1.4875
-0.369168
0.379154
0.935869
1.31729
1.55055
1.65404
1.63523
1.5383
1.40321
1.24775
1.07812
0.897024
0.707099
0.510248
0.309092
0.103542
-4.82758
-6.50139
-3.01998
-1.40787
-0.369444
0.338109
0.86884
1.23809
1.47933
1.6021
1.60356
1.52214
1.39582
1.24392
1.07514
0.894288
0.704818
0.5087
0.30847
0.103524
-5.02381
-6.24613
-2.84608
-1.28488
-0.346188
0.312074
0.816527
1.18033
1.42048
1.54643
1.5601
1.49674
1.38333
1.23653
1.06961
0.889634
0.701127
0.506234
0.307419
0.103431
-4.67394
-5.30626
-2.59257
-1.1622
-0.327366
0.2893
0.769147
1.11912
1.35759
1.49847
1.52883
1.47627
1.36954
1.22613
1.06098
0.882503
0.695652
0.502618
0.305825
0.103238
-4.05506
-4.18225
-2.26936
-1.02591
-0.289303
0.275883
0.730481
1.06509
1.29167
1.426
1.47181
1.44579
1.35251
1.21372
1.04999
0.872958
0.68817
0.497629
0.303557
0.102911
-3.32836
-3.22913
-1.94241
-0.907712
-0.244871
0.274073
0.701143
1.01519
1.22991
1.3716
1.43501
1.4135
1.32655
1.19271
1.03314
0.859424
0.677975
0.490904
0.300439
0.102399
-2.73923
-2.53704
-1.64267
-0.800537
-0.20674
0.265985
0.667096
0.969246
1.1737
1.30332
1.3663
1.36519
1.29289
1.168
1.01265
0.842376
0.664853
0.482139
0.296274
0.101637
-2.24475
-2.02138
-1.36636
-0.688292
-0.165815
0.265108
0.637579
0.922626
1.11548
1.24577
1.32208
1.32396
1.25372
1.13343
0.983986
0.819541
0.647769
0.470805
0.290791
0.100536
-1.8338
-1.62971
-1.1333
-0.58849
-0.132789
0.256825
0.600442
0.872507
1.061
1.18352
1.24668
1.25374
1.20006
1.09185
0.950454
0.792066
0.626646
0.45653
0.283704
0.0989848
-1.49216
-1.31994
-0.932807
-0.493248
-0.103091
0.246672
0.565545
0.817255
0.996428
1.1158
1.18923
1.20277
1.14595
1.04132
0.906395
0.756503
0.599846
0.43851
0.274591
0.0968309
-1.2019
-1.06606
-0.763843
-0.409476
-0.0770437
0.232075
0.518307
0.760391
0.938631
1.04993
1.10671
1.11255
1.06909
0.978435
0.855698
0.71518
0.567759
0.41637
0.263042
0.0938906
-0.959954
-0.855221
-0.617938
-0.333618
-0.056554
0.213812
0.474785
0.695034
0.858698
0.966041
1.02725
1.04171
0.99764
0.90826
0.792671
0.662744
0.527559
0.388761
0.24835
0.0898944
-0.751014
-0.675714
-0.493379
-0.267378
-0.0384151
0.191523
0.414554
0.621488
0.781853
0.880905
0.929107
0.931424
0.892944
0.818527
0.718171
0.602558
0.480615
0.355576
0.229984
0.0845445
-0.577074
-0.520547
-0.382978
-0.208759
-0.0260879
0.166129
0.360538
0.539691
0.681545
0.771549
0.818535
0.827373
0.79367
0.723596
0.63155
0.528614
0.422317
0.314328
0.2066
0.0773342
-0.420365
-0.383661
-0.284901
-0.155434
-0.0156927
0.133688
0.293496
0.448727
0.573495
0.649513
0.684461
0.686375
0.656652
0.599895
0.525208
0.441616
0.354699
0.265762
0.177811
0.0678691
-0.285231
-0.261888
-0.196506
-0.108177
-0.00908194
0.102535
0.220948
0.339762
0.440006
0.503901
0.532609
0.533928
0.510582
0.465929
0.406792
0.340485
0.273143
0.205724
0.140669
0.0549614
-0.160739
-0.149907
-0.113639
-0.0630111
-0.00537068
0.0629988
0.142418
0.223695
0.288953
0.3272
0.3436
0.343879
0.328181
0.298622
0.260268
0.218128
0.176257
0.134748
0.0954316
0.0387455
-0.0497251
-0.0471109
-0.0362562
-0.020395
-0.00156652
0.0197289
0.0483059
0.0818656
0.110468
0.12514
0.12925
0.127492
0.12104
0.110535
0.0971665
0.082267
0.0671982
0.0518308
0.0375137
0.0157072
-4.87981
-3.86391
-3.83157
-2.55177
-2.04971
-1.50243
-1.78905
-2.54952
-4.33025
-6.00761
-3.98513
-4.2622
-2.95513
-3.17191
-2.35443
-1.26112
-1.57203
-2.51431
-4.53955
-5.60889
-2.28398
-2.78536
-3.3218
-2.34722
-1.47402
-0.917528
-1.41736
-2.53557
-4.99584
-5.47011
-1.18274
-2.1783
-2.21475
-2.07301
-1.88641
-0.824362
-1.07142
-2.50133
-5.05757
-5.48928
-0.711085
-1.52677
-1.80152
-1.80222
-1.41249
-0.96884
-1.43663
-2.54788
-4.87807
-5.80164
-0.409051
-1.04721
-1.4282
-1.4366
-1.40431
-1.20209
-1.61811
-2.51477
-4.25474
-5.25435
-0.217035
-0.75193
-1.1194
-1.22391
-1.32557
-1.27036
-1.62288
-2.30637
-3.38261
-4.37218
-0.106959
-0.552
-0.885367
-1.05373
-1.2005
-1.25156
-1.52079
-2.02653
-2.6801
-3.45002
-0.0393146
-0.414678
-0.715048
-0.905584
-1.06049
-1.17688
-1.3746
-1.75407
-2.16034
-2.72024
0.00376729
-0.317805
-0.58359
-0.773507
-0.923781
-1.06152
-1.21853
-1.50651
-1.78318
-2.16468
0.0302273
-0.246885
-0.475203
-0.656129
-0.795323
-0.929467
-1.06792
-1.28348
-1.47985
-1.73694
0.0434516
-0.190961
-0.384647
-0.55146
-0.675455
-0.798628
-0.922946
-1.08214
-1.2275
-1.40134
0.0483386
-0.146192
-0.309379
-0.456371
-0.567048
-0.674998
-0.783038
-0.902145
-1.01175
-1.13108
0.047895
-0.110912
-0.246373
-0.371855
-0.468928
-0.559831
-0.650358
-0.740605
-0.824444
-0.905984
0.0440121
-0.0833249
-0.193265
-0.296458
-0.379014
-0.453246
-0.526444
-0.595274
-0.65944
-0.715771
0.0380693
-0.0613267
-0.148087
-0.228925
-0.295973
-0.355997
-0.412473
-0.463339
-0.512645
-0.551492
0.0306907
-0.0439586
-0.108263
-0.168056
-0.220727
-0.267081
-0.307262
-0.343061
-0.379993
-0.405729
0.0223427
-0.0292205
-0.0733718
-0.1141
-0.151579
-0.184446
-0.210689
-0.234201
-0.259922
-0.276739
0.0134435
-0.0170055
-0.0418904
-0.0650295
-0.0880862
-0.107138
-0.120416
-0.133463
-0.148729
-0.156683
0.00427069
-0.00580314
-0.0137534
-0.0212292
-0.028674
-0.0349386
-0.0390023
-0.042214
-0.0464634
-0.0484246
2.44619
2.43658
2.46423
2.50737
2.57247
2.63933
2.72829
2.82061
2.94204
3.06252
3.21764
3.35835
3.54592
3.67779
3.88919
3.90186
4.12549
3.64714
3.55551
1.11102
2.36788
2.33747
2.37095
2.40482
2.47068
2.51373
2.60132
2.65775
2.77835
2.83946
2.99589
3.03542
3.23033
3.19421
3.4145
3.18531
3.28669
2.61468
1.94592
0.393278
2.27268
2.22304
2.26416
2.28502
2.35164
2.3677
2.4544
2.47339
2.58855
2.59664
2.73545
2.71089
2.85354
2.7567
2.81792
2.6036
2.37986
1.92476
1.07322
0.462048
2.15979
2.10563
2.14262
2.15534
2.21268
2.21529
2.28362
2.28692
2.36675
2.36153
2.43091
2.40804
2.42992
2.37333
2.27147
2.13044
1.79825
1.57929
0.865283
0.452247
2.0293
1.99064
2.00973
2.02189
2.05437
2.06404
2.09536
2.10801
2.13424
2.14549
2.14776
2.1402
2.096
2.05836
1.89497
1.82679
1.48739
1.33519
0.755731
0.359922
1.88696
1.8773
1.88107
1.89005
1.90196
1.91594
1.9259
1.93932
1.94003
1.95048
1.92233
1.92277
1.84319
1.82347
1.64859
1.58523
1.28235
1.10855
0.666729
0.297968
1.74307
1.75907
1.75743
1.76136
1.75973
1.77303
1.76871
1.78405
1.76549
1.77821
1.73095
1.73258
1.6374
1.61159
1.44585
1.36047
1.11022
0.915673
0.593408
0.282223
1.60213
1.63681
1.62941
1.63188
1.61902
1.63302
1.61837
1.63307
1.60247
1.61106
1.55489
1.54691
1.45268
1.41009
1.26562
1.16012
0.961622
0.771554
0.532206
0.282572
1.46629
1.50762
1.4972
1.49833
1.47972
1.49109
1.47153
1.4805
1.44593
1.44431
1.38901
1.36624
1.28266
1.22275
1.10381
0.990855
0.833924
0.665794
0.477072
0.275488
1.33394
1.37165
1.36264
1.36086
1.34191
1.34639
1.32709
1.32621
1.29447
1.27978
1.23175
1.19496
1.12499
1.05577
0.957922
0.84981
0.722192
0.57988
0.425164
0.259408
1.20363
1.23157
1.22624
1.22146
1.20517
1.20128
1.18483
1.17434
1.14769
1.12315
1.08229
1.0384
0.978549
0.909611
0.826629
0.730955
0.623648
0.504183
0.375896
0.238522
1.07446
1.09107
1.0887
1.08237
1.06927
1.05937
1.04503
1.02884
1.00562
0.977083
0.940544
0.896739
0.843497
0.781284
0.709149
0.627105
0.536241
0.435839
0.329071
0.21529
0.945556
0.953169
0.951646
0.945277
0.934602
0.922293
0.908637
0.890618
0.869185
0.841178
0.80755
0.767616
0.720186
0.666022
0.603894
0.534029
0.457404
0.373285
0.284502
0.190375
0.816616
0.818726
0.816796
0.810979
0.802039
0.789839
0.776555
0.759024
0.739182
0.713641
0.683423
0.648322
0.60699
0.560519
0.507689
0.448891
0.384897
0.315064
0.241791
0.164442
0.687959
0.687525
0.684962
0.679747
0.672194
0.661313
0.648921
0.63298
0.615294
0.592882
0.566716
0.536623
0.50148
0.46243
0.418245
0.369808
0.317232
0.260281
0.200743
0.138208
0.560218
0.558971
0.556145
0.551524
0.545234
0.536155
0.525236
0.51153
0.496473
0.477553
0.455824
0.430873
0.401972
0.370188
0.334288
0.295566
0.253623
0.208397
0.161392
0.112153
0.433759
0.432549
0.429893
0.425971
0.420966
0.413831
0.404871
0.393792
0.381753
0.366539
0.349559
0.329854
0.307259
0.282705
0.25482
0.225384
0.193315
0.159074
0.123604
0.0865367
0.308681
0.307751
0.305605
0.302622
0.298957
0.293802
0.287135
0.279011
0.270202
0.259002
0.246894
0.23257
0.216399
0.198938
0.178989
0.158384
0.135748
0.111793
0.0871005
0.0612666
0.184751
0.184169
0.18271
0.180892
0.178643
0.175517
0.171385
0.166413
0.161033
0.154078
0.146932
0.138097
0.128462
0.117951
0.105881
0.0938541
0.0801813
0.0661011
0.0516285
0.036394
0.0615021
0.0613302
0.0607601
0.0601895
0.0594356
0.058339
0.0569469
0.0552667
0.0534575
0.0510604
0.0487546
0.0456731
0.0424953
0.0389796
0.034888
0.0309655
0.0263401
0.0217393
0.0169353
0.0118195
2.46416
2.46321
2.49258
2.53601
2.60249
2.67582
2.77422
2.8768
3.01265
3.14731
3.32551
3.49107
3.71258
3.89432
4.15191
4.30272
4.58869
4.48228
5.00853
2.82956
2.50289
2.51548
2.54501
2.5923
2.65837
2.74072
2.84363
2.96193
3.10536
3.26408
3.45518
3.65903
3.90582
4.15118
4.4598
4.72241
5.06952
5.25245
5.41563
5.29507
2.53737
2.55372
2.58559
2.63515
2.70354
2.79119
2.89893
3.02799
3.17903
3.35629
3.55923
3.79569
4.06079
4.36438
4.69589
5.05626
5.44524
5.81327
6.23661
6.12137
2.56725
2.57941
2.61347
2.66446
2.73677
2.82643
2.94016
3.07326
3.23471
3.41933
3.63923
3.88834
4.18017
4.50664
4.87695
5.28084
5.7065
6.13788
6.46777
6.76938
2.5789
2.59603
2.63028
2.68335
2.7554
2.84827
2.96251
3.10086
3.26441
3.45732
3.68188
3.94301
4.24433
4.58744
4.97597
5.40304
5.86752
6.32271
6.74741
6.96441
2.5847
2.59969
2.63414
2.68719
2.76027
2.8532
2.96836
3.10645
3.27124
3.46424
3.69053
3.95246
4.25524
4.6009
4.99187
5.42434
5.89176
6.35528
6.77228
6.97058
2.58088
2.59274
2.6261
2.67808
2.75091
2.84239
2.95625
3.09131
3.25339
3.44172
3.66351
3.91812
4.21292
4.54729
4.9238
5.34048
5.7764
6.22527
6.57581
6.8942
2.55823
2.5752
2.60665
2.65796
2.72731
2.81764
2.92565
3.05765
3.21017
3.39301
3.59989
3.84413
4.11581
4.43004
4.77328
5.15204
5.55655
5.95198
6.37781
6.31579
2.53857
2.54292
2.57362
2.62224
2.69237
2.77594
2.88116
3.00119
3.14871
3.31281
3.51091
3.72414
3.98013
4.24348
4.56035
4.86077
5.20741
5.47134
5.64795
5.70972
2.50372
2.4997
2.52975
2.57569
2.64513
2.72114
2.8207
2.92831
3.06575
3.21136
3.39089
3.57559
3.79646
4.01445
4.26767
4.48558
4.74454
4.80523
5.16954
3.58958
)
;

boundaryField
{
    inlet
    {
        type            zeroGradient;
    }
    outlet
    {
        type            fixedValue;
        value           uniform 0;
    }
    upAndBottom
    {
        type            empty;
    }
    obstacle
    {
        type            zeroGradient;
    }
}


// ************************************************************************* //
