x,y,z,p
0,0,0,0.0654179
0,0.1,0,0.105199
0,0.2,0,0.144981
0,0.3,0,0.184763
0,0.4,0,0.224544
0,0.5,0,0.265717
0,0.6,0,0.317558
0,0.7,0,0.369399
0,0.8,0,0.42124
0,0.9,0,0.473081
0,1,0,0.524311
0,1.1,0,0.573503
0,1.2,0,0.622695
0,1.3,0,0.671887
0,1.4,0,0.721079
0,1.5,0,0.769398
0,1.6,0,0.816067
0,1.7,0,0.862737
0,1.8,0,0.909406
0,1.9,0,0.956076
0,2,0,1.0014
0,2.1,0,1.04517
0,2.2,0,1.08893
0,2.3,0,1.1327
0,2.4,0,1.17646
0,2.5,0,1.21809
0,2.6,0,1.25815
0,2.7,0,1.29821
0,2.8,0,1.33827
0,2.9,0,1.37832
0,3,0,1.41547
0,3.1,0,1.45133
0,3.2,0,1.48719
0,3.3,0,1.52304
0,3.4,0,1.5589
0,3.5,0,1.59107
0,3.6,0,1.62237
0,3.7,0,1.65367
0,3.8,0,1.68497
0,3.9,0,1.71626
0,4,0,1.74288
0,4.1,0,1.76912
0,4.2,0,1.79535
0,4.3,0,1.82158
0,4.4,0,1.84761
0,4.5,0,1.86836
0,4.6,0,1.88911
0,4.7,0,1.90986
0,4.8,0,1.93062
0,4.9,0,1.95047
0,5,0,1.9654
0,5.1,0,1.98032
0,5.2,0,1.99524
0,5.3,0,2.01017
0,5.4,0,2.02364
0,5.5,0,2.03319
0,5.6,0,2.04274
0,5.7,0,2.05229
0,5.8,0,2.06184
0,5.9,0,2.0691
0,6,0,2.07269
0,6.1,0,2.07629
0,6.2,0,2.07988
0,6.3,0,2.08348
0,6.4,0,2.08385
0,6.5,0,2.08101
0,6.6,0,2.07816
0,6.7,0,2.07531
0,6.8,0,2.07247
0,6.9,0,2.06592
0,7,0,2.05707
0,7.1,0,2.04822
0,7.2,0,2.03937
0,7.3,0,2.03052
0,7.4,0,2.01713
0,7.5,0,2.00206
0,7.6,0,1.987
0,7.7,0,1.97193
0,7.8,0,1.95687
0,7.9,0,1.93699
0,8,0,1.91624
0,8.1,0,1.89549
0,8.2,0,1.87474
0,8.3,0,1.85399
0,8.4,0,1.82801
0,8.5,0,1.80181
0,8.6,0,1.77562
0,8.7,0,1.74942
0,8.8,0,1.72282
0,8.9,0,1.69135
0,9,0,1.65987
0,9.1,0,1.62839
0,9.2,0,1.59691
0,9.3,0,1.56453
0,9.4,0,1.52835
0,9.5,0,1.49216
0,9.6,0,1.45598
0,9.7,0,1.41979
0,9.8,0,1.38235
0,9.9,0,1.34206
0,10,0,1.30177
0,10.1,0,1.26148
0,10.2,0,1.22119
0,10.3,0,1.17935
0,10.4,0,1.1354
0,10.5,0,1.09144
0,10.6,0,1.04749
0,10.7,0,1.00354
0,10.8,0,0.958136
0,10.9,0,0.911482
0,11,0,0.864829
0,11.1,0,0.818176
0,11.2,0,0.771523
0,11.3,0,0.723428
0,11.4,0,0.674569
0,11.5,0,0.62571
0,11.6,0,0.576851
0,11.7,0,0.527992
0,11.8,0,0.476806
0,11.9,0,0.424921
0,12,0,0.373036
0,12.1,0,0.321151
0,12.2,0,0.269266
0,12.3,0,0.227655
0,12.4,0,0.187384
0,12.5,0,0.147113
0,12.6,0,0.106842
0,12.7,0,0.0665705
0.1,0,0,0.0523343
0.1,0.1,0,0.0919231
0.1,0.2,0,0.131705
0.1,0.3,0,0.171486
0.1,0.4,0,0.212454
0.1,0.5,0,0.265837
0.1,0.6,0,0.318162
0.1,0.7,0,0.370003
0.1,0.8,0,0.421844
0.1,0.9,0,0.473669
0.1,1,0,0.524934
0.1,1.1,0,0.574361
0.1,1.2,0,0.623553
0.1,1.3,0,0.672745
0.1,1.4,0,0.722156
0.1,1.5,0,0.770765
0.1,1.6,0,0.817082
0.1,1.7,0,0.863752
0.1,1.8,0,0.910421
0.1,1.9,0,0.957627
0.1,2,0,1.00338
0.1,2.1,0,1.04687
0.1,2.2,0,1.09063
0.1,2.3,0,1.1344
0.1,2.4,0,1.17857
0.1,2.5,0,1.22024
0.1,2.6,0,1.26012
0.1,2.7,0,1.30017
0.1,2.8,0,1.34023
0.1,2.9,0,1.38073
0.1,3,0,1.41779
0.1,3.1,0,1.45352
0.1,3.2,0,1.48938
0.1,3.3,0,1.52523
0.1,3.4,0,1.5616
0.1,3.5,0,1.59348
0.1,3.6,0,1.62469
0.1,3.7,0,1.65599
0.1,3.8,0,1.68729
0.1,3.9,0,1.71927
0.1,4,0,1.7456
0.1,4.1,0,1.77181
0.1,4.2,0,1.79804
0.1,4.3,0,1.82429
0.1,4.4,0,1.85087
0.1,4.5,0,1.87109
0.1,4.6,0,1.89185
0.1,4.7,0,1.9126
0.1,4.8,0,1.93349
0.1,4.9,0,1.95414
0.1,5,0,1.96843
0.1,5.1,0,1.98336
0.1,5.2,0,1.99828
0.1,5.3,0,2.01354
0.1,5.4,0,2.02744
0.1,5.5,0,2.03549
0.1,5.6,0,2.04504
0.1,5.7,0,2.05458
0.1,5.8,0,2.06484
0.1,5.9,0,2.07306
0.1,6,0,2.0763
0.1,6.1,0,2.07989
0.1,6.2,0,2.08349
0.1,6.3,0,2.08721
0.1,6.4,0,2.08716
0.1,6.5,0,2.08378
0.1,6.6,0,2.08093
0.1,6.7,0,2.07808
0.1,6.8,0,2.07582
0.1,6.9,0,2.0693
0.1,7,0,2.06025
0.1,7.1,0,2.0514
0.1,7.2,0,2.04255
0.1,7.3,0,2.0339
0.1,7.4,0,2.02022
0.1,7.5,0,2.00504
0.1,7.6,0,1.98997
0.1,7.7,0,1.97491
0.1,7.8,0,1.96017
0.1,7.9,0,1.93974
0.1,8,0,1.9189
0.1,8.1,0,1.89815
0.1,8.2,0,1.8774
0.1,8.3,0,1.85713
0.1,8.4,0,1.83075
0.1,8.5,0,1.80454
0.1,8.6,0,1.77835
0.1,8.7,0,1.75217
0.1,8.8,0,1.72571
0.1,8.9,0,1.69384
0.1,9,0,1.66236
0.1,9.1,0,1.63088
0.1,9.2,0,1.59946
0.1,9.3,0,1.56722
0.1,9.4,0,1.53051
0.1,9.5,0,1.49432
0.1,9.6,0,1.45814
0.1,9.7,0,1.42214
0.1,9.8,0,1.38486
0.1,9.9,0,1.34395
0.1,10,0,1.30367
0.1,10.1,0,1.26338
0.1,10.2,0,1.22336
0.1,10.3,0,1.18155
0.1,10.4,0,1.13712
0.1,10.5,0,1.09316
0.1,10.6,0,1.04921
0.1,10.7,0,1.00558
0.1,10.8,0,0.959704
0.1,10.9,0,0.912437
0.1,11,0,0.865784
0.1,11.1,0,0.81913
0.1,11.2,0,0.772988
0.1,11.3,0,0.724826
0.1,11.4,0,0.675795
0.1,11.5,0,0.626937
0.1,11.6,0,0.578078
0.1,11.7,0,0.528816
0.1,11.8,0,0.478429
0.1,11.9,0,0.426797
0.1,12,0,0.374912
0.1,12.1,0,0.323027
0.1,12.2,0,0.269831
0.1,12.3,0,0.216011
0.1,12.4,0,0.174405
0.1,12.5,0,0.134134
0.1,12.6,0,0.0938627
0.1,12.7,0,0.0532564
0.2,0,0,0.0392507
0.2,0.1,0,0.0788361
0.2,0.2,0,0.118428
0.2,0.3,0,0.159
0.2,0.4,0,0.212496
0.2,0.5,0,0.265892
0.2,0.6,0,0.318287
0.2,0.7,0,0.370608
0.2,0.8,0,0.422435
0.2,0.9,0,0.474193
0.2,1,0,0.525487
0.2,1.1,0,0.574989
0.2,1.2,0,0.624411
0.2,1.3,0,0.6738
0.2,1.4,0,0.723689
0.2,1.5,0,0.772324
0.2,1.6,0,0.818439
0.2,1.7,0,0.864767
0.2,1.8,0,0.911942
0.2,1.9,0,0.959841
0.2,2,0,1.00559
0.2,2.1,0,1.04883
0.2,2.2,0,1.09233
0.2,2.3,0,1.13648
0.2,2.4,0,1.18098
0.2,2.5,0,1.22265
0.2,2.6,0,1.26225
0.2,2.7,0,1.30214
0.2,2.8,0,1.34262
0.2,2.9,0,1.38334
0.2,3,0,1.4204
0.2,3.1,0,1.45582
0.2,3.2,0,1.49157
0.2,3.3,0,1.52792
0.2,3.4,0,1.56442
0.2,3.5,0,1.59631
0.2,3.6,0,1.62709
0.2,3.7,0,1.65831
0.2,3.8,0,1.69028
0.2,3.9,0,1.72233
0.2,4,0,1.74866
0.2,4.1,0,1.77451
0.2,4.2,0,1.80074
0.2,4.3,0,1.82758
0.2,4.4,0,1.85416
0.2,4.5,0,1.87435
0.2,4.6,0,1.89458
0.2,4.7,0,1.91545
0.2,4.8,0,1.93728
0.2,4.9,0,1.95793
0.2,5,0,1.97209
0.2,5.1,0,1.9864
0.2,5.2,0,2.00162
0.2,5.3,0,2.0179
0.2,5.4,0,2.0318
0.2,5.5,0,2.03923
0.2,5.6,0,2.04733
0.2,5.7,0,2.05754
0.2,5.8,0,2.06904
0.2,5.9,0,2.07726
0.2,6,0,2.08025
0.2,6.1,0,2.0835
0.2,6.2,0,2.08721
0.2,6.3,0,2.09107
0.2,6.4,0,2.09102
0.2,6.5,0,2.08705
0.2,6.6,0,2.0837
0.2,6.7,0,2.08141
0.2,6.8,0,2.07955
0.2,6.9,0,2.07304
0.2,7,0,2.06362
0.2,7.1,0,2.05457
0.2,7.2,0,2.04592
0.2,7.3,0,2.03735
0.2,7.4,0,2.02368
0.2,7.5,0,2.00812
0.2,7.6,0,1.99295
0.2,7.7,0,1.9782
0.2,7.8,0,1.96354
0.2,7.9,0,1.94311
0.2,8,0,1.92163
0.2,8.1,0,1.9008
0.2,8.2,0,1.88053
0.2,8.3,0,1.8603
0.2,8.4,0,1.83391
0.2,8.5,0,1.80728
0.2,8.6,0,1.78109
0.2,8.7,0,1.75509
0.2,8.8,0,1.72863
0.2,8.9,0,1.69671
0.2,9,0,1.66485
0.2,9.1,0,1.63343
0.2,9.2,0,1.60228
0.2,9.3,0,1.57004
0.2,9.4,0,1.53318
0.2,9.5,0,1.49649
0.2,9.6,0,1.46047
0.2,9.7,0,1.42494
0.2,9.8,0,1.38765
0.2,9.9,0,1.34645
0.2,10,0,1.30556
0.2,10.1,0,1.26553
0.2,10.2,0,1.22593
0.2,10.3,0,1.18412
0.2,10.4,0,1.1393
0.2,10.5,0,1.09489
0.2,10.6,0,1.05124
0.2,10.7,0,1.0079
0.2,10.8,0,0.962026
0.2,10.9,0,0.913973
0.2,11,0,0.866738
0.2,11.1,0,0.820577
0.2,11.2,0,0.774734
0.2,11.3,0,0.726572
0.2,11.4,0,0.677181
0.2,11.5,0,0.628163
0.2,11.6,0,0.578913
0.2,11.7,0,0.529514
0.2,11.8,0,0.479127
0.2,11.9,0,0.428444
0.2,12,0,0.376788
0.2,12.1,0,0.32363
0.2,12.2,0,0.27022
0.2,12.3,0,0.216403
0.2,12.4,0,0.162526
0.2,12.5,0,0.121155
0.2,12.6,0,0.0805569
0.2,12.7,0,0.0399423
0.3,0,0,0.0261672
0.3,0.1,0,0.0657525
0.3,0.2,0,0.105809
0.3,0.3,0,0.159042
0.3,0.4,0,0.212538
0.3,0.5,0,0.265948
0.3,0.6,0,0.318342
0.3,0.7,0,0.370727
0.3,0.8,0,0.42296
0.3,0.9,0,0.474718
0.3,1,0,0.526039
0.3,1.1,0,0.575541
0.3,1.2,0,0.625215
0.3,1.3,0,0.675333
0.3,1.4,0,0.725222
0.3,1.5,0,0.773883
0.3,1.6,0,0.819998
0.3,1.7,0,0.866583
0.3,1.8,0,0.914156
0.3,1.9,0,0.962056
0.3,2,0,1.0078
0.3,2.1,0,1.05104
0.3,2.2,0,1.09465
0.3,2.3,0,1.1389
0.3,2.4,0,1.18339
0.3,2.5,0,1.22506
0.3,2.6,0,1.26466
0.3,2.7,0,1.30468
0.3,2.8,0,1.34523
0.3,2.9,0,1.38595
0.3,3,0,1.42301
0.3,3.1,0,1.45843
0.3,3.2,0,1.49434
0.3,3.3,0,1.53074
0.3,3.4,0,1.56725
0.3,3.5,0,1.59913
0.3,3.6,0,1.62992
0.3,3.7,0,1.66135
0.3,3.8,0,1.69334
0.3,3.9,0,1.72539
0.3,4,0,1.75172
0.3,4.1,0,1.77758
0.3,4.2,0,1.80402
0.3,4.3,0,1.83086
0.3,4.4,0,1.85745
0.3,4.5,0,1.87764
0.3,4.6,0,1.89791
0.3,4.7,0,1.91924
0.3,4.8,0,1.94107
0.3,4.9,0,1.96172
0.3,5,0,1.97587
0.3,5.1,0,1.9903
0.3,5.2,0,2.00599
0.3,5.3,0,2.02227
0.3,5.4,0,2.03617
0.3,5.5,0,2.0436
0.3,5.6,0,2.05164
0.3,5.7,0,2.06174
0.3,5.8,0,2.07323
0.3,5.9,0,2.08146
0.3,6,0,2.08445
0.3,6.1,0,2.08755
0.3,6.2,0,2.09107
0.3,6.3,0,2.09493
0.3,6.4,0,2.09487
0.3,6.5,0,2.09091
0.3,6.6,0,2.08749
0.3,6.7,0,2.08515
0.3,6.8,0,2.08328
0.3,6.9,0,2.07677
0.3,7,0,2.06735
0.3,7.1,0,2.05811
0.3,7.2,0,2.04937
0.3,7.3,0,2.0408
0.3,7.4,0,2.02713
0.3,7.5,0,2.01158
0.3,7.6,0,1.99633
0.3,7.7,0,1.98157
0.3,7.8,0,1.9669
0.3,7.9,0,1.94647
0.3,8,0,1.925
0.3,8.1,0,1.90398
0.3,8.2,0,1.88369
0.3,8.3,0,1.86346
0.3,8.4,0,1.83707
0.3,8.5,0,1.81044
0.3,8.6,0,1.78401
0.3,8.7,0,1.758
0.3,8.8,0,1.73154
0.3,8.9,0,1.69963
0.3,9,0,1.66776
0.3,9.1,0,1.63625
0.3,9.2,0,1.60511
0.3,9.3,0,1.57286
0.3,9.4,0,1.53601
0.3,9.5,0,1.4993
0.3,9.6,0,1.46327
0.3,9.7,0,1.42773
0.3,9.8,0,1.39045
0.3,9.9,0,1.34924
0.3,10,0,1.30828
0.3,10.1,0,1.26811
0.3,10.2,0,1.2285
0.3,10.3,0,1.18669
0.3,10.4,0,1.14187
0.3,10.5,0,1.09734
0.3,10.6,0,1.05356
0.3,10.7,0,1.01022
0.3,10.8,0,0.964349
0.3,10.9,0,0.916295
0.3,11,0,0.868715
0.3,11.1,0,0.822323
0.3,11.2,0,0.77648
0.3,11.3,0,0.728318
0.3,11.4,0,0.678927
0.3,11.5,0,0.629158
0.3,11.6,0,0.579612
0.3,11.7,0,0.530212
0.3,11.8,0,0.479825
0.3,11.9,0,0.429142
0.3,12,0,0.377218
0.3,12.1,0,0.324019
0.3,12.2,0,0.270608
0.3,12.3,0,0.216794
0.3,12.4,0,0.162918
0.3,12.5,0,0.108647
0.3,12.6,0,0.0672428
0.3,12.7,0,0.0266282
0.4,0,0,0.0130836
0.4,0.1,0,0.0529043
0.4,0.2,0,0.106126
0.4,0.3,0,0.159348
0.4,0.4,0,0.21258
0.4,0.5,0,0.266003
0.4,0.6,0,0.31839
0.4,0.7,0,0.370704
0.4,0.8,0,0.423018
0.4,0.9,0,0.475242
0.4,1,0,0.526592
0.4,1.1,0,0.576236
0.4,1.2,0,0.62644
0.4,1.3,0,0.676644
0.4,1.4,0,0.726756
0.4,1.5,0,0.775442
0.4,1.6,0,0.821985
0.4,1.7,0,0.869334
0.4,1.8,0,0.916682
0.4,1.9,0,0.96427
0.4,2,0,1.01002
0.4,2.1,0,1.05361
0.4,2.2,0,1.09758
0.4,2.3,0,1.14154
0.4,2.4,0,1.1858
0.4,2.5,0,1.22747
0.4,2.6,0,1.26747
0.4,2.7,0,1.30773
0.4,2.8,0,1.34799
0.4,2.9,0,1.38856
0.4,3,0,1.42561
0.4,3.1,0,1.46151
0.4,3.2,0,1.49758
0.4,3.3,0,1.53366
0.4,3.4,0,1.57007
0.4,3.5,0,1.60195
0.4,3.6,0,1.63337
0.4,3.7,0,1.66491
0.4,3.8,0,1.69645
0.4,3.9,0,1.72846
0.4,4,0,1.75479
0.4,4.1,0,1.78122
0.4,4.2,0,1.80768
0.4,4.3,0,1.83415
0.4,4.4,0,1.86074
0.4,4.5,0,1.88099
0.4,4.6,0,1.90226
0.4,4.7,0,1.92352
0.4,4.8,0,1.94485
0.4,4.9,0,1.9655
0.4,5,0,1.9799
0.4,5.1,0,1.99541
0.4,5.2,0,2.01093
0.4,5.3,0,2.02663
0.4,5.4,0,2.04053
0.4,5.5,0,2.04853
0.4,5.6,0,2.05791
0.4,5.7,0,2.06729
0.4,5.8,0,2.07743
0.4,5.9,0,2.08565
0.4,6,0,2.08875
0.4,6.1,0,2.092
0.4,6.2,0,2.09525
0.4,6.3,0,2.09879
0.4,6.4,0,2.09873
0.4,6.5,0,2.09529
0.4,6.6,0,2.09231
0.4,6.7,0,2.08933
0.4,6.8,0,2.08702
0.4,6.9,0,2.0805
0.4,7,0,2.07126
0.4,7.1,0,2.06213
0.4,7.2,0,2.05299
0.4,7.3,0,2.04426
0.4,7.4,0,2.03058
0.4,7.5,0,2.01533
0.4,7.6,0,2.00017
0.4,7.7,0,1.98502
0.4,7.8,0,1.97026
0.4,7.9,0,1.94984
0.4,8,0,1.92881
0.4,8.1,0,1.90786
0.4,8.2,0,1.8869
0.4,8.3,0,1.86663
0.4,8.4,0,1.84024
0.4,8.5,0,1.81379
0.4,8.6,0,1.78734
0.4,8.7,0,1.76092
0.4,8.8,0,1.73446
0.4,8.9,0,1.70258
0.4,9,0,1.67101
0.4,9.1,0,1.63943
0.4,9.2,0,1.60793
0.4,9.3,0,1.57569
0.4,9.4,0,1.53897
0.4,9.5,0,1.50276
0.4,9.6,0,1.46655
0.4,9.7,0,1.43053
0.4,9.8,0,1.39325
0.4,9.9,0,1.35227
0.4,10,0,1.31175
0.4,10.1,0,1.27123
0.4,10.2,0,1.23108
0.4,10.3,0,1.18927
0.4,10.4,0,1.14472
0.4,10.5,0,1.10051
0.4,10.6,0,1.0563
0.4,10.7,0,1.01255
0.4,10.8,0,0.966671
0.4,10.9,0,0.919072
0.4,11,0,0.871829
0.4,11.1,0,0.824586
0.4,11.2,0,0.778226
0.4,11.3,0,0.730063
0.4,11.4,0,0.680307
0.4,11.5,0,0.630376
0.4,11.6,0,0.580445
0.4,11.7,0,0.530911
0.4,11.8,0,0.480524
0.4,11.9,0,0.428632
0.4,12,0,0.376419
0.4,12.1,0,0.324207
0.4,12.2,0,0.270997
0.4,12.3,0,0.217186
0.4,12.4,0,0.162927
0.4,12.5,0,0.108626
0.4,12.6,0,0.0543237
0.4,12.7,0,0.0133141
0.5,0,0,0
0.5,0.1,0,0.0532238
0.5,0.2,0,0.106448
0.5,0.3,0,0.159671
0.5,0.4,0,0.212895
0.5,0.5,0,0.266094
0.5,0.6,0,0.318395
0.5,0.7,0,0.370696
0.5,0.8,0,0.422997
0.5,0.9,0,0.475308
0.5,1,0,0.527256
0.5,1.1,0,0.57746
0.5,1.2,0,0.627664
0.5,1.3,0,0.677868
0.5,1.4,0,0.728072
0.5,1.5,0,0.777389
0.5,1.6,0,0.824737
0.5,1.7,0,0.872085
0.5,1.8,0,0.919433
0.5,1.9,0,0.966781
0.5,2,0,1.01257
0.5,2.1,0,1.05654
0.5,2.2,0,1.1005
0.5,2.3,0,1.14447
0.5,2.4,0,1.18844
0.5,2.5,0,1.23027
0.5,2.6,0,1.27053
0.5,2.7,0,1.31079
0.5,2.8,0,1.35105
0.5,2.9,0,1.39131
0.5,3,0,1.42867
0.5,3.1,0,1.46475
0.5,3.2,0,1.50082
0.5,3.3,0,1.5369
0.5,3.4,0,1.57297
0.5,3.5,0,1.60539
0.5,3.6,0,1.63693
0.5,3.7,0,1.66847
0.5,3.8,0,1.70002
0.5,3.9,0,1.73156
0.5,4,0,1.75841
0.5,4.1,0,1.78488
0.5,4.2,0,1.81134
0.5,4.3,0,1.83781
0.5,4.4,0,1.86407
0.5,4.5,0,1.88534
0.5,4.6,0,1.9066
0.5,4.7,0,1.92786
0.5,4.8,0,1.94912
0.5,4.9,0,1.9695
0.5,5,0,1.98501
0.5,5.1,0,2.00053
0.5,5.2,0,2.01604
0.5,5.3,0,2.03155
0.5,5.4,0,2.04542
0.5,5.5,0,2.0548
0.5,5.6,0,2.06417
0.5,5.7,0,2.07355
0.5,5.8,0,2.08293
0.5,5.9,0,2.08995
0.5,6,0,2.0932
0.5,6.1,0,2.09645
0.5,6.2,0,2.0997
0.5,6.3,0,2.10295
0.5,6.4,0,2.10309
0.5,6.5,0,2.10011
0.5,6.6,0,2.09713
0.5,6.7,0,2.09416
0.5,6.8,0,2.09118
0.5,6.9,0,2.08441
0.5,7,0,2.07527
0.5,7.1,0,2.06614
0.5,7.2,0,2.057
0.5,7.3,0,2.04786
0.5,7.4,0,2.03433
0.5,7.5,0,2.01917
0.5,7.6,0,2.00402
0.5,7.7,0,1.98886
0.5,7.8,0,1.9737
0.5,7.9,0,1.95364
0.5,8,0,1.93269
0.5,8.1,0,1.91173
0.5,8.2,0,1.89077
0.5,8.3,0,1.86982
0.5,8.4,0,1.84358
0.5,8.5,0,1.81714
0.5,8.6,0,1.79069
0.5,8.7,0,1.76425
0.5,8.8,0,1.73741
0.5,8.9,0,1.70583
0.5,9,0,1.67425
0.5,9.1,0,1.64268
0.5,9.2,0,1.6111
0.5,9.3,0,1.57863
0.5,9.4,0,1.54242
0.5,9.5,0,1.50621
0.5,9.6,0,1.47
0.5,9.7,0,1.43379
0.5,9.8,0,1.39625
0.5,9.9,0,1.35573
0.5,10,0,1.31522
0.5,10.1,0,1.2747
0.5,10.2,0,1.23418
0.5,10.3,0,1.1921
0.5,10.4,0,1.14789
0.5,10.5,0,1.10368
0.5,10.6,0,1.05948
0.5,10.7,0,1.01527
0.5,10.8,0,0.969429
0.5,10.9,0,0.922186
0.5,11,0,0.874943
0.5,11.1,0,0.8277
0.5,11.2,0,0.780456
0.5,11.3,0,0.731456
0.5,11.4,0,0.681525
0.5,11.5,0,0.631594
0.5,11.6,0,0.581663
0.5,11.7,0,0.531732
0.5,11.8,0,0.48005
0.5,11.9,0,0.427844
0.5,12,0,0.375637
0.5,12.1,0,0.323431
0.5,12.2,0,0.271224
0.5,12.3,0,0.217211
0.5,12.4,0,0.162908
0.5,12.5,0,0.108605
0.5,12.6,0,0.0543027
0.5,12.7,0,0
0.6,0,0,0
0.6,0.1,0,0.0541426
0.6,0.2,0,0.107366
0.6,0.3,0,0.16059
0.6,0.4,0,0.213839
0.6,0.5,0,0.267531
0.6,0.6,0,0.320693
0.6,0.7,0,0.372994
0.6,0.8,0,0.425295
0.6,0.9,0,0.477698
0.6,1,0,0.530412
0.6,1.1,0,0.581198
0.6,1.2,0,0.631407
0.6,1.3,0,0.681616
0.6,1.4,0,0.732048
0.6,1.5,0,0.782371
0.6,1.6,0,0.830605
0.6,1.7,0,0.877952
0.6,1.8,0,0.9253
0.6,1.9,0,0.972602
0.6,2,0,1.01845
0.6,2.1,0,1.06254
0.6,2.2,0,1.10651
0.6,2.3,0,1.15048
0.6,2.4,0,1.19473
0.6,2.5,0,1.23725
0.6,2.6,0,1.27783
0.6,2.7,0,1.31809
0.6,2.8,0,1.35835
0.6,2.9,0,1.39861
0.6,3,0,1.43595
0.6,3.1,0,1.47202
0.6,3.2,0,1.5081
0.6,3.3,0,1.54417
0.6,3.4,0,1.58086
0.6,3.5,0,1.61381
0.6,3.6,0,1.64544
0.6,3.7,0,1.67698
0.6,3.8,0,1.70852
0.6,3.9,0,1.74035
0.6,4,0,1.76718
0.6,4.1,0,1.79365
0.6,4.2,0,1.82011
0.6,4.3,0,1.84659
0.6,4.4,0,1.87361
0.6,4.5,0,1.89488
0.6,4.6,0,1.91614
0.6,4.7,0,1.9374
0.6,4.8,0,1.95874
0.6,4.9,0,1.97981
0.6,5,0,1.9963
0.6,5.1,0,2.01182
0.6,5.2,0,2.02733
0.6,5.3,0,2.04267
0.6,5.4,0,2.05645
0.6,5.5,0,2.06703
0.6,5.6,0,2.07641
0.6,5.7,0,2.08579
0.6,5.8,0,2.09464
0.6,5.9,0,2.10069
0.6,6,0,2.10382
0.6,6.1,0,2.10707
0.6,6.2,0,2.11032
0.6,6.3,0,2.11368
0.6,6.4,0,2.114
0.6,6.5,0,2.11109
0.6,6.6,0,2.10811
0.6,6.7,0,2.10513
0.6,6.8,0,2.102
0.6,6.9,0,2.09471
0.6,7,0,2.08532
0.6,7.1,0,2.07619
0.6,7.2,0,2.06705
0.6,7.3,0,2.05813
0.6,7.4,0,2.04421
0.6,7.5,0,2.02889
0.6,7.6,0,2.01374
0.6,7.7,0,1.99858
0.6,7.8,0,1.9836
0.6,7.9,0,1.96317
0.6,8,0,1.94216
0.6,8.1,0,1.9212
0.6,8.2,0,1.90025
0.6,8.3,0,1.87916
0.6,8.4,0,1.85221
0.6,8.5,0,1.82575
0.6,8.6,0,1.79931
0.6,8.7,0,1.77287
0.6,8.8,0,1.74611
0.6,8.9,0,1.71396
0.6,9,0,1.68239
0.6,9.1,0,1.65081
0.6,9.2,0,1.61924
0.6,9.3,0,1.58671
0.6,9.4,0,1.55016
0.6,9.5,0,1.51395
0.6,9.6,0,1.47774
0.6,9.7,0,1.44148
0.6,9.8,0,1.40388
0.6,9.9,0,1.36344
0.6,10,0,1.32292
0.6,10.1,0,1.2824
0.6,10.2,0,1.24153
0.6,10.3,0,1.19867
0.6,10.4,0,1.15412
0.6,10.5,0,1.10991
0.6,10.6,0,1.0657
0.6,10.7,0,1.02138
0.6,10.8,0,0.975405
0.6,10.9,0,0.928139
0.6,11,0,0.880896
0.6,11.1,0,0.833653
0.6,11.2,0,0.785555
0.6,11.3,0,0.735122
0.6,11.4,0,0.684744
0.6,11.5,0,0.634813
0.6,11.6,0,0.584882
0.6,11.7,0,0.534385
0.6,11.8,0,0.481547
0.6,11.9,0,0.429101
0.6,12,0,0.376895
0.6,12.1,0,0.324688
0.6,12.2,0,0.27178
0.6,12.3,0,0.217483
0.6,12.4,0,0.163161
0.6,12.5,0,0.108858
0.6,12.6,0,0.0545555
0.6,12.7,0,0
0.7,0,0,0
0.7,0.1,0,0.0541488
0.7,0.2,0,0.108285
0.7,0.3,0,0.161523
0.7,0.4,0,0.215239
0.7,0.5,0,0.268935
0.7,0.6,0,0.322153
0.7,0.7,0,0.375292
0.7,0.8,0,0.427674
0.7,0.9,0,0.480734
0.7,1,0,0.533461
0.7,1.1,0,0.584391
0.7,1.2,0,0.635161
0.7,1.3,0,0.685558
0.7,1.4,0,0.736593
0.7,1.5,0,0.786936
0.7,1.6,0,0.835624
0.7,1.7,0,0.88382
0.7,1.8,0,0.931125
0.7,1.9,0,0.978366
0.7,2,0,1.02421
0.7,2.1,0,1.06843
0.7,2.2,0,1.11252
0.7,2.3,0,1.15676
0.7,2.4,0,1.20125
0.7,2.5,0,1.24376
0.7,2.6,0,1.28483
0.7,2.7,0,1.32539
0.7,2.8,0,1.36565
0.7,2.9,0,1.4059
0.7,3,0,1.44325
0.7,3.1,0,1.4793
0.7,3.2,0,1.51537
0.7,3.3,0,1.55204
0.7,3.4,0,1.58891
0.7,3.5,0,1.62185
0.7,3.6,0,1.65387
0.7,3.7,0,1.68548
0.7,3.8,0,1.7173
0.7,3.9,0,1.74917
0.7,4,0,1.776
0.7,4.1,0,1.80242
0.7,4.2,0,1.82888
0.7,4.3,0,1.85612
0.7,4.4,0,1.88314
0.7,4.5,0,1.90441
0.7,4.6,0,1.92568
0.7,4.7,0,1.94701
0.7,4.8,0,1.96888
0.7,4.9,0,1.98995
0.7,5,0,2.00665
0.7,5.1,0,2.02311
0.7,5.2,0,2.03846
0.7,5.3,0,2.05324
0.7,5.4,0,2.06702
0.7,5.5,0,2.0781
0.7,5.6,0,2.08865
0.7,5.7,0,2.09753
0.7,5.8,0,2.10545
0.7,5.9,0,2.1115
0.7,6,0,2.11455
0.7,6.1,0,2.11769
0.7,6.2,0,2.12105
0.7,6.3,0,2.12453
0.7,6.4,0,2.12485
0.7,6.5,0,2.12201
0.7,6.6,0,2.11909
0.7,6.7,0,2.11596
0.7,6.8,0,2.11272
0.7,6.9,0,2.10543
0.7,7,0,2.0956
0.7,7.1,0,2.08623
0.7,7.2,0,2.07731
0.7,7.3,0,2.06847
0.7,7.4,0,2.05455
0.7,7.5,0,2.03876
0.7,7.6,0,2.02346
0.7,7.7,0,2.00847
0.7,7.8,0,1.99352
0.7,7.9,0,1.9731
0.7,8,0,1.95168
0.7,8.1,0,1.93067
0.7,8.2,0,1.90959
0.7,8.3,0,1.8885
0.7,8.4,0,1.86155
0.7,8.5,0,1.83437
0.7,8.6,0,1.80793
0.7,8.7,0,1.78162
0.7,8.8,0,1.75487
0.7,8.9,0,1.72266
0.7,9,0,1.69052
0.7,9.1,0,1.65895
0.7,9.2,0,1.6274
0.7,9.3,0,1.59487
0.7,9.4,0,1.55823
0.7,9.5,0,1.52168
0.7,9.6,0,1.48543
0.7,9.7,0,1.44907
0.7,9.8,0,1.41146
0.7,9.9,0,1.37106
0.7,10,0,1.33062
0.7,10.1,0,1.28977
0.7,10.2,0,1.24837
0.7,10.3,0,1.20551
0.7,10.4,0,1.16068
0.7,10.5,0,1.11614
0.7,10.6,0,1.07182
0.7,10.7,0,1.02738
0.7,10.8,0,0.98141
0.7,10.9,0,0.934114
0.7,11,0,0.886849
0.7,11.1,0,0.83878
0.7,11.2,0,0.790187
0.7,11.3,0,0.739734
0.7,11.4,0,0.688356
0.7,11.5,0,0.638033
0.7,11.6,0,0.587553
0.7,11.7,0,0.536862
0.7,11.8,0,0.483997
0.7,11.9,0,0.430551
0.7,12,0,0.378152
0.7,12.1,0,0.325258
0.7,12.2,0,0.272229
0.7,12.3,0,0.217908
0.7,12.4,0,0.163425
0.7,12.5,0,0.109111
0.7,12.6,0,0.0545617
0.7,12.7,0,0
0.8,0,0,0
0.8,0.1,0,0.0541488
0.8,0.2,0,0.108304
0.8,0.3,0,0.162923
0.8,0.4,0,0.216639
0.8,0.5,0,0.270338
0.8,0.6,0,0.323557
0.8,0.7,0,0.376835
0.8,0.8,0,0.430711
0.8,0.9,0,0.483771
0.8,1,0,0.536511
0.8,1.1,0,0.587441
0.8,1.2,0,0.638527
0.8,1.3,0,0.690103
0.8,1.4,0,0.741138
0.8,1.5,0,0.791501
0.8,1.6,0,0.840189
0.8,1.7,0,0.888839
0.8,1.8,0,0.936889
0.8,1.9,0,0.98413
0.8,2,0,1.02998
0.8,2.1,0,1.07419
0.8,2.2,0,1.11868
0.8,2.3,0,1.16328
0.8,2.4,0,1.20777
0.8,2.5,0,1.25028
0.8,2.6,0,1.29134
0.8,2.7,0,1.3324
0.8,2.8,0,1.37294
0.8,2.9,0,1.4132
0.8,3,0,1.45055
0.8,3.1,0,1.4866
0.8,3.2,0,1.52323
0.8,3.3,0,1.56009
0.8,3.4,0,1.59695
0.8,3.5,0,1.62989
0.8,3.6,0,1.66191
0.8,3.7,0,1.6942
0.8,3.8,0,1.72612
0.8,3.9,0,1.75798
0.8,4,0,1.78482
0.8,4.1,0,1.81123
0.8,4.2,0,1.83841
0.8,4.3,0,1.86565
0.8,4.4,0,1.89267
0.8,4.5,0,1.91394
0.8,4.6,0,1.93527
0.8,4.7,0,1.95714
0.8,4.8,0,1.97901
0.8,4.9,0,2.00008
0.8,5,0,2.01678
0.8,5.1,0,2.03333
0.8,5.2,0,2.04903
0.8,5.3,0,2.06381
0.8,5.4,0,2.0776
0.8,5.5,0,2.08868
0.8,5.6,0,2.0993
0.8,5.7,0,2.10835
0.8,5.8,0,2.11626
0.8,5.9,0,2.12231
0.8,6,0,2.12537
0.8,6.1,0,2.12852
0.8,6.2,0,2.1319
0.8,6.3,0,2.13538
0.8,6.4,0,2.1357
0.8,6.5,0,2.13285
0.8,6.6,0,2.12986
0.8,6.7,0,2.12668
0.8,6.8,0,2.12344
0.8,6.9,0,2.11615
0.8,7,0,2.10632
0.8,7.1,0,2.0967
0.8,7.2,0,2.08765
0.8,7.3,0,2.07882
0.8,7.4,0,2.0649
0.8,7.5,0,2.0491
0.8,7.6,0,2.03347
0.8,7.7,0,2.01839
0.8,7.8,0,2.00345
0.8,7.9,0,1.98302
0.8,8,0,1.9616
0.8,8.1,0,1.94006
0.8,8.2,0,1.91893
0.8,8.3,0,1.89784
0.8,8.4,0,1.87089
0.8,8.5,0,1.8437
0.8,8.6,0,1.81668
0.8,8.7,0,1.79038
0.8,8.8,0,1.76362
0.8,8.9,0,1.73141
0.8,9,0,1.6992
0.8,9.1,0,1.66711
0.8,9.2,0,1.63556
0.8,9.3,0,1.60303
0.8,9.4,0,1.56639
0.8,9.5,0,1.52971
0.8,9.6,0,1.49302
0.8,9.7,0,1.45665
0.8,9.8,0,1.41905
0.8,9.9,0,1.37865
0.8,10,0,1.33794
0.8,10.1,0,1.29661
0.8,10.2,0,1.25521
0.8,10.3,0,1.21235
0.8,10.4,0,1.16752
0.8,10.5,0,1.12258
0.8,10.6,0,1.07782
0.8,10.7,0,1.03339
0.8,10.8,0,0.987414
0.8,10.9,0,0.940118
0.8,11,0,0.892026
0.8,11.1,0,0.843412
0.8,11.2,0,0.794818
0.8,11.3,0,0.744346
0.8,11.4,0,0.692968
0.8,11.5,0,0.641051
0.8,11.6,0,0.590031
0.8,11.7,0,0.53934
0.8,11.8,0,0.486447
0.8,11.9,0,0.433001
0.8,12,0,0.378878
0.8,12.1,0,0.325706
0.8,12.2,0,0.272677
0.8,12.3,0,0.218333
0.8,12.4,0,0.16385
0.8,12.5,0,0.109128
0.8,12.6,0,0.0545617
0.8,12.7,0,0
0.9,0,0,0
0.9,0.1,0,0.0541522
0.9,0.2,0,0.108788
0.9,0.3,0,0.163425
0.9,0.4,0,0.21804
0.9,0.5,0,0.271742
0.9,0.6,0,0.324996
0.9,0.7,0,0.378974
0.9,0.8,0,0.432952
0.9,0.9,0,0.486808
0.9,1,0,0.53956
0.9,1.1,0,0.590618
0.9,1.2,0,0.642371
0.9,1.3,0,0.694124
0.9,1.4,0,0.745682
0.9,1.5,0,0.796066
0.9,1.6,0,0.844723
0.9,1.7,0,0.893305
0.9,1.8,0,0.941887
0.9,1.9,0,0.989894
0.9,2,0,1.03574
0.9,2.1,0,1.08021
0.9,2.2,0,1.12495
0.9,2.3,0,1.16969
0.9,2.4,0,1.21429
0.9,2.5,0,1.2568
0.9,2.6,0,1.29786
0.9,2.7,0,1.33892
0.9,2.8,0,1.37998
0.9,2.9,0,1.4205
0.9,3,0,1.45784
0.9,3.1,0,1.49446
0.9,3.2,0,1.53129
0.9,3.3,0,1.56813
0.9,3.4,0,1.60499
0.9,3.5,0,1.63793
0.9,3.6,0,1.67022
0.9,3.7,0,1.70255
0.9,3.8,0,1.73489
0.9,3.9,0,1.7668
0.9,4,0,1.79363
0.9,4.1,0,1.82079
0.9,4.2,0,1.84799
0.9,4.3,0,1.87519
0.9,4.4,0,1.90221
0.9,4.5,0,1.92351
0.9,4.6,0,1.94539
0.9,4.7,0,1.96727
0.9,4.8,0,1.98914
0.9,4.9,0,2.01022
0.9,5,0,2.02678
0.9,5.1,0,2.04275
0.9,5.2,0,2.05871
0.9,5.3,0,2.07438
0.9,5.4,0,2.08817
0.9,5.5,0,2.09882
0.9,5.6,0,2.10845
0.9,5.7,0,2.11807
0.9,5.8,0,2.12708
0.9,5.9,0,2.13312
0.9,6,0,2.13627
0.9,6.1,0,2.13956
0.9,6.2,0,2.14285
0.9,6.3,0,2.14623
0.9,6.4,0,2.14655
0.9,6.5,0,2.14356
0.9,6.6,0,2.14045
0.9,6.7,0,2.13734
0.9,6.8,0,2.13416
0.9,6.9,0,2.12686
0.9,7,0,2.11724
0.9,7.1,0,2.10772
0.9,7.2,0,2.0982
0.9,7.3,0,2.08917
0.9,7.4,0,2.07524
0.9,7.5,0,2.05961
0.9,7.6,0,2.04402
0.9,7.7,0,2.02843
0.9,7.8,0,2.01337
0.9,7.9,0,1.99295
0.9,8,0,1.97141
0.9,8.1,0,1.94986
0.9,8.2,0,1.9283
0.9,8.3,0,1.90718
0.9,8.4,0,1.88023
0.9,8.5,0,1.85318
0.9,8.6,0,1.82614
0.9,8.7,0,1.79913
0.9,8.8,0,1.77238
0.9,8.9,0,1.74017
0.9,9,0,1.70798
0.9,9.1,0,1.6758
0.9,9.2,0,1.64372
0.9,9.3,0,1.6112
0.9,9.4,0,1.57452
0.9,9.5,0,1.53772
0.9,9.6,0,1.50092
0.9,9.7,0,1.46424
0.9,9.8,0,1.42663
0.9,9.9,0,1.38594
0.9,10,0,1.34466
0.9,10.1,0,1.30338
0.9,10.2,0,1.26205
0.9,10.3,0,1.21919
0.9,10.4,0,1.17426
0.9,10.5,0,1.12919
0.9,10.6,0,1.08413
0.9,10.7,0,1.03939
0.9,10.8,0,0.993418
0.9,10.9,0,0.94536
0.9,11,0,0.896711
0.9,11.1,0,0.848062
0.9,11.2,0,0.79945
0.9,11.3,0,0.748959
0.9,11.4,0,0.697055
0.9,11.5,0,0.644909
0.9,11.6,0,0.592763
0.9,11.7,0,0.541818
0.9,11.8,0,0.488896
0.9,11.9,0,0.434796
0.9,12,0,0.380519
0.9,12.1,0,0.326243
0.9,12.2,0,0.273126
0.9,12.3,0,0.218758
0.9,12.4,0,0.164041
0.9,12.5,0,0.109303
0.9,12.6,0,0.0545642
0.9,12.7,0,0
1,0,0,0
1,0.1,0,0.0546363
1,0.2,0,0.109273
1,0.3,0,0.163909
1,0.4,0,0.218545
1,0.5,0,0.273157
1,0.6,0,0.327135
1,0.7,0,0.381113
1,0.8,0,0.435092
1,0.9,0,0.48907
1,1,0,0.54271
1,1.1,0,0.594462
1,1.2,0,0.646215
1,1.3,0,0.697968
1,1.4,0,0.74972
1,1.5,0,0.800606
1,1.6,0,0.849188
1,1.7,0,0.897771
1,1.8,0,0.946353
1,1.9,0,0.994935
1,2,0,1.04174
1,2.1,0,1.08648
1,2.2,0,1.13122
1,2.3,0,1.17596
1,2.4,0,1.2207
1,2.5,0,1.26331
1,2.6,0,1.30437
1,2.7,0,1.34543
1,2.8,0,1.38649
1,2.9,0,1.42755
1,3,0,1.46569
1,3.1,0,1.50252
1,3.2,0,1.53936
1,3.3,0,1.57619
1,3.4,0,1.61303
1,3.5,0,1.64623
1,3.6,0,1.67857
1,3.7,0,1.71091
1,3.8,0,1.74324
1,3.9,0,1.77558
1,4,0,1.80317
1,4.1,0,1.83037
1,4.2,0,1.85757
1,4.3,0,1.88477
1,4.4,0,1.91176
1,4.5,0,1.93364
1,4.6,0,1.95552
1,4.7,0,1.97739
1,4.8,0,1.99927
1,4.9,0,2.02024
1,5,0,2.0362
1,5.1,0,2.05216
1,5.2,0,2.06813
1,5.3,0,2.08409
1,5.4,0,2.09835
1,5.5,0,2.10797
1,5.6,0,2.11759
1,5.7,0,2.12722
1,5.8,0,2.13684
1,5.9,0,2.14403
1,6,0,2.14731
1,6.1,0,2.1506
1,6.2,0,2.15389
1,6.3,0,2.15717
1,6.4,0,2.15726
1,6.5,0,2.15415
1,6.6,0,2.15104
1,6.7,0,2.14793
1,6.8,0,2.14482
1,6.9,0,2.13777
1,7,0,2.12825
1,7.1,0,2.11873
1,7.2,0,2.10921
1,7.3,0,2.0997
1,7.4,0,2.08574
1,7.5,0,2.07016
1,7.6,0,2.05457
1,7.7,0,2.03898
1,7.8,0,2.0234
1,7.9,0,2.00276
1,8,0,1.98121
1,8.1,0,1.95965
1,8.2,0,1.9381
1,8.3,0,1.91654
1,8.4,0,1.88971
1,8.5,0,1.86266
1,8.6,0,1.83562
1,8.7,0,1.80857
1,8.8,0,1.78113
1,8.9,0,1.74895
1,9,0,1.71677
1,9.1,0,1.68458
1,9.2,0,1.6524
1,9.3,0,1.61933
1,9.4,0,1.58253
1,9.5,0,1.54573
1,9.6,0,1.50893
1,9.7,0,1.47213
1,9.8,0,1.43395
1,9.9,0,1.39266
1,10,0,1.35138
1,10.1,0,1.3101
1,10.2,0,1.26882
1,10.3,0,1.22594
1,10.4,0,1.18087
1,10.5,0,1.13581
1,10.6,0,1.09075
1,10.7,0,1.04569
1,10.8,0,0.998693
1,10.9,0,0.950044
1,11,0,0.901395
1,11.1,0,0.852746
1,11.2,0,0.804097
1,11.3,0,0.753058
1,11.4,0,0.700912
1,11.5,0,0.648767
1,11.6,0,0.596621
1,11.7,0,0.544475
1,11.8,0,0.490713
1,11.9,0,0.436437
1,12,0,0.382161
1,12.1,0,0.327885
1,12.2,0,0.273608
1,12.3,0,0.218954
1,12.4,0,0.164216
1,12.5,0,0.109477
1,12.6,0,0.0547386
1,12.7,0,0
1.1,0,0,0
1.1,0.1,0,0.0562501
1.1,0.2,0,0.110885
1.1,0.3,0,0.16552
1.1,0.4,0,0.220157
1.1,0.5,0,0.275015
1.1,0.6,0,0.330754
1.1,0.7,0,0.384728
1.1,0.8,0,0.438703
1.1,0.9,0,0.492672
1.1,1,0,0.546717
1.1,1.1,0,0.601125
1.1,1.2,0,0.652872
1.1,1.3,0,0.70462
1.1,1.4,0,0.755993
1.1,1.5,0,0.806401
1.1,1.6,0,0.857264
1.1,1.7,0,0.905867
1.1,1.8,0,0.954469
1.1,1.9,0,1.00228
1.1,2,0,1.04904
1.1,2.1,0,1.09491
1.1,2.2,0,1.13965
1.1,2.3,0,1.18439
1.1,2.4,0,1.22884
1.1,2.5,0,1.2731
1.1,2.6,0,1.31548
1.1,2.7,0,1.35654
1.1,2.8,0,1.3976
1.1,2.9,0,1.43765
1.1,3,0,1.47677
1.1,3.1,0,1.51421
1.1,3.2,0,1.55104
1.1,3.3,0,1.58788
1.1,3.4,0,1.62411
1.1,3.5,0,1.6594
1.1,3.6,0,1.6922
1.1,3.7,0,1.72454
1.1,3.8,0,1.75687
1.1,3.9,0,1.78777
1.1,4,0,1.8175
1.1,4.1,0,1.84483
1.1,4.2,0,1.87203
1.1,4.3,0,1.89921
1.1,4.4,0,1.92494
1.1,4.5,0,1.94941
1.1,4.6,0,1.97129
1.1,4.7,0,1.99316
1.1,4.8,0,2.01478
1.1,4.9,0,2.03431
1.1,5,0,2.05166
1.1,5.1,0,2.06763
1.1,5.2,0,2.08359
1.1,5.3,0,2.09928
1.1,5.4,0,2.11306
1.1,5.5,0,2.12361
1.1,5.6,0,2.13323
1.1,5.7,0,2.14286
1.1,5.8,0,2.15222
1.1,5.9,0,2.15981
1.1,6,0,2.1644
1.1,6.1,0,2.16768
1.1,6.2,0,2.17097
1.1,6.3,0,2.17337
1.1,6.4,0,2.17352
1.1,6.5,0,2.17135
1.1,6.6,0,2.16824
1.1,6.7,0,2.16513
1.1,6.8,0,2.16081
1.1,6.9,0,2.15415
1.1,7,0,2.14533
1.1,7.1,0,2.13581
1.1,7.2,0,2.12629
1.1,7.3,0,2.11516
1.1,7.4,0,2.10182
1.1,7.5,0,2.08664
1.1,7.6,0,2.07106
1.1,7.7,0,2.05547
1.1,7.8,0,2.03796
1.1,7.9,0,2.01822
1.1,8,0,1.99686
1.1,8.1,0,1.97531
1.1,8.2,0,1.95375
1.1,8.3,0,1.92999
1.1,8.4,0,1.90416
1.1,8.5,0,1.87713
1.1,8.6,0,1.85009
1.1,8.7,0,1.82293
1.1,8.8,0,1.79363
1.1,8.9,0,1.7629
1.1,9,0,1.73072
1.1,9.1,0,1.69853
1.1,9.2,0,1.66587
1.1,9.3,0,1.63067
1.1,9.4,0,1.5945
1.1,9.5,0,1.5577
1.1,9.6,0,1.5209
1.1,9.7,0,1.48346
1.1,9.8,0,1.44431
1.1,9.9,0,1.40427
1.1,10,0,1.36299
1.1,10.1,0,1.32171
1.1,10.2,0,1.27919
1.1,10.3,0,1.2347
1.1,10.4,0,1.18989
1.1,10.5,0,1.14483
1.1,10.6,0,1.09976
1.1,10.7,0,1.05349
1.1,10.8,0,1.00625
1.1,10.9,0,0.958217
1.1,11,0,0.909553
1.1,11.1,0,0.860889
1.1,11.2,0,0.810205
1.1,11.3,0,0.75898
1.1,11.4,0,0.707074
1.1,11.5,0,0.654909
1.1,11.6,0,0.602745
1.1,11.7,0,0.547836
1.1,11.8,0,0.493286
1.1,11.9,0,0.439009
1.1,12,0,0.384738
1.1,12.1,0,0.330466
1.1,12.2,0,0.275575
1.1,12.3,0,0.220156
1.1,12.4,0,0.165411
1.1,12.5,0,0.11068
1.1,12.6,0,0.0559494
1.1,12.7,0,0
1.2,0,0,0
1.2,0.1,0,0.0562528
1.2,0.2,0,0.1125
1.2,0.3,0,0.167137
1.2,0.4,0,0.221979
1.2,0.5,0,0.276831
1.2,0.6,0,0.332651
1.2,0.7,0,0.38836
1.2,0.8,0,0.44233
1.2,0.9,0,0.496237
1.2,1,0,0.550272
1.2,1.1,0,0.605252
1.2,1.2,0,0.659591
1.2,1.3,0,0.711041
1.2,1.4,0,0.760934
1.2,1.5,0,0.811314
1.2,1.6,0,0.863228
1.2,1.7,0,0.914015
1.2,1.8,0,0.961946
1.2,1.9,0,1.00858
1.2,2,0,1.05533
1.2,2.1,0,1.10224
1.2,2.2,0,1.14808
1.2,2.3,0,1.19255
1.2,2.4,0,1.23675
1.2,2.5,0,1.28102
1.2,2.6,0,1.32533
1.2,2.7,0,1.36764
1.2,2.8,0,1.40774
1.2,2.9,0,1.44729
1.2,3,0,1.48641
1.2,3.1,0,1.52534
1.2,3.2,0,1.56273
1.2,3.3,0,1.59897
1.2,3.4,0,1.63503
1.2,3.5,0,1.67032
1.2,3.6,0,1.70543
1.2,3.7,0,1.73817
1.2,3.8,0,1.7691
1.2,3.9,0,1.79984
1.2,4,0,1.82957
1.2,4.1,0,1.85922
1.2,4.2,0,1.88649
1.2,4.3,0,1.91228
1.2,4.4,0,1.93802
1.2,4.5,0,1.96265
1.2,4.6,0,1.98706
1.2,4.7,0,2.00872
1.2,4.8,0,2.02859
1.2,4.9,0,2.04811
1.2,5,0,2.06577
1.2,5.1,0,2.08309
1.2,5.2,0,2.0988
1.2,5.3,0,2.11364
1.2,5.4,0,2.12742
1.2,5.5,0,2.13835
1.2,5.6,0,2.14887
1.2,5.7,0,2.15826
1.2,5.8,0,2.16717
1.2,5.9,0,2.17476
1.2,6,0,2.18024
1.2,6.1,0,2.18477
1.2,6.2,0,2.18721
1.2,6.3,0,2.18864
1.2,6.4,0,2.18879
1.2,6.5,0,2.18765
1.2,6.6,0,2.18543
1.2,6.7,0,2.18116
1.2,6.8,0,2.17601
1.2,6.9,0,2.16935
1.2,7,0,2.16176
1.2,7.1,0,2.15289
1.2,7.2,0,2.14181
1.2,7.3,0,2.13
1.2,7.4,0,2.11666
1.2,7.5,0,2.10275
1.2,7.6,0,2.08754
1.2,7.7,0,2.07009
1.2,7.8,0,2.05216
1.2,7.9,0,2.03243
1.2,8,0,2.01236
1.2,8.1,0,1.99097
1.2,8.2,0,1.96726
1.2,8.3,0,1.94335
1.2,8.4,0,1.91752
1.2,8.5,0,1.89161
1.2,8.6,0,1.8645
1.2,8.7,0,1.83531
1.2,8.8,0,1.80601
1.2,8.9,0,1.77544
1.2,9,0,1.74466
1.2,9.1,0,1.71207
1.2,9.2,0,1.67705
1.2,9.3,0,1.64185
1.2,9.4,0,1.60585
1.2,9.5,0,1.56967
1.2,9.6,0,1.53228
1.2,9.7,0,1.49326
1.2,9.8,0,1.45411
1.2,9.9,0,1.41468
1.2,10,0,1.3746
1.2,10.1,0,1.33215
1.2,10.2,0,1.28777
1.2,10.3,0,1.24328
1.2,10.4,0,1.19867
1.2,10.5,0,1.15384
1.2,10.6,0,1.1076
1.2,10.7,0,1.06021
1.2,10.8,0,1.01297
1.2,10.9,0,0.965864
1.2,11,0,0.917748
1.2,11.1,0,0.867122
1.2,11.2,0,0.815349
1.2,11.3,0,0.764138
1.2,11.4,0,0.713141
1.2,11.5,0,0.661153
1.2,11.6,0,0.60625
1.2,11.7,0,0.550473
1.2,11.8,0,0.495977
1.2,11.9,0,0.441633
1.2,12,0,0.387361
1.2,12.1,0,0.332483
1.2,12.2,0,0.277509
1.2,12.3,0,0.222089
1.2,12.4,0,0.16664
1.2,12.5,0,0.111899
1.2,12.6,0,0.0559731
1.2,12.7,0,0
1.3,0,0,0
1.3,0.1,0,0.0562528
1.3,0.2,0,0.112506
1.3,0.3,0,0.168955
1.3,0.4,0,0.223802
1.3,0.5,0,0.278647
1.3,0.6,0,0.334467
1.3,0.7,0,0.390285
1.3,0.8,0,0.445896
1.3,0.9,0,0.499802
1.3,1,0,0.553827
1.3,1.1,0,0.608807
1.3,1.2,0,0.663563
1.3,1.3,0,0.715982