/*--------------------------------*- C++ -*----------------------------------*\
| =========                 |                                                 |
| \\      /  F ield         | OpenFOAM: The Open Source CFD Toolbox           |
|  \\    /   O peration     | Version:  v1806                                 |
|   \\  /    A nd           | Web:      www.OpenFOAM.com                      |
|    \\/     M anipulation  |                                                 |
\*---------------------------------------------------------------------------*/
FoamFile
{
    version     2.0;
    format      ascii;
    class       volVectorField;
    location    "10";
    object      U;
}
// * * * * * * * * * * * * * * * * * * * * * * * * * * * * * * * * * * * * * //

dimensions      [0 1 -1 0 0 0 0];


internalField   nonuniform List<vector> 
2400
(
(2.9993 -0.00188361 0)
(3.00051 -0.0152591 0)
(3.00105 -0.029442 0)
(2.99931 -0.0300649 0)
(2.99974 -0.0326325 0)
(2.99989 -0.0533198 0)
(2.99785 -0.0723485 0)
(2.99901 -0.0770771 0)
(3.0016 -0.0738697 0)
(2.99965 -0.0868302 0)
(2.99934 -0.128259 0)
(2.99628 -0.13982 0)
(2.99721 -0.109864 0)
(3.00042 -0.118216 0)
(3.00238 -0.177489 0)
(2.99818 -0.201713 0)
(2.99585 -0.170258 0)
(2.99992 -0.161898 0)
(3.00464 -0.196424 0)
(3.00255 -0.231932 0)
(2.99894 -0.00171925 0)
(3.00183 -0.0163743 0)
(3.00069 -0.0289201 0)
(2.99796 -0.0289341 0)
(2.99846 -0.0330822 0)
(3.00009 -0.0518478 0)
(2.99657 -0.0716286 0)
(2.9993 -0.0797083 0)
(2.99991 -0.0746914 0)
(2.99838 -0.0854156 0)
(2.99707 -0.125814 0)
(2.99466 -0.137993 0)
(2.99451 -0.112942 0)
(3.00005 -0.122152 0)
(3.00289 -0.176209 0)
(2.99683 -0.19637 0)
(2.99227 -0.17094 0)
(2.99996 -0.167151 0)
(3.00293 -0.199123 0)
(3.00736 -0.229796 0)
(3.00027 -0.00244125 0)
(3.00216 -0.0167296 0)
(2.99802 -0.0264853 0)
(2.99602 -0.0279422 0)
(2.99986 -0.0344337 0)
(2.99947 -0.0517188 0)
(2.99803 -0.0718639 0)
(2.99843 -0.0797731 0)
(2.99586 -0.0729313 0)
(2.99586 -0.0848017 0)
(2.99624 -0.125019 0)
(2.99382 -0.138097 0)
(2.99419 -0.114659 0)
(2.99845 -0.124604 0)
(3.00064 -0.174754 0)
(2.99329 -0.193772 0)
(2.99457 -0.172975 0)
(3.00156 -0.171076 0)
(3.00815 -0.201695 0)
(3.00691 -0.230825 0)
(3.00135 -0.00351667 0)
(2.99981 -0.014473 0)
(2.99601 -0.0243687 0)
(2.99856 -0.0300318 0)
(3.00055 -0.035869 0)
(2.99904 -0.0501742 0)
(2.99784 -0.0710824 0)
(2.99472 -0.0775618 0)
(2.99188 -0.0725502 0)
(2.99635 -0.0860194 0)
(2.99643 -0.124011 0)
(2.99313 -0.136129 0)
(2.99029 -0.117067 0)
(2.99547 -0.127154 0)
(2.99731 -0.172342 0)
(2.99402 -0.192302 0)
(2.9941 -0.17651 0)
(3.00046 -0.176739 0)
(3.00347 -0.203357 0)
(3.0086 -0.231043 0)
(3.0008 -0.0033819 0)
(2.99743 -0.0126988 0)
(2.99939 -0.0254592 0)
(2.99974 -0.0310548 0)
(2.99813 -0.0350284 0)
(2.99758 -0.0493188 0)
(2.9968 -0.069125 0)
(2.99121 -0.074259 0)
(2.99182 -0.074608 0)
(2.99643 -0.087838 0)
(2.99489 -0.122986 0)
(2.9893 -0.131938 0)
(2.98666 -0.118574 0)
(2.99126 -0.128243 0)
(2.99658 -0.175456 0)
(2.99386 -0.190601 0)
(2.99354 -0.181276 0)
(2.9993 -0.177038 0)
(3.00668 -0.208629 0)
(3.00802 -0.225615 0)
(2.99902 -0.00148086 0)
(2.99916 -0.0146756 0)
(3.00246 -0.0248275 0)
(2.99749 -0.0304645 0)
(2.99577 -0.0326524 0)
(2.99627 -0.050828 0)
(2.99511 -0.0645143 0)
(2.99181 -0.0750822 0)
(2.99262 -0.0743277 0)
(2.9926 -0.091001 0)
(2.99053 -0.115947 0)
(2.98667 -0.131793 0)
(2.98332 -0.117001 0)
(2.98911 -0.137166 0)
(2.99471 -0.171669 0)
(2.99072 -0.193672 0)
(2.99028 -0.178142 0)
(2.99686 -0.191003 0)
(3.00823 -0.212709 0)
(3.00818 -0.244845 0)
(2.9985 -0.00207353 0)
(3.00178 -0.0148179 0)
(2.99995 -0.0244187 0)
(2.99546 -0.0254356 0)
(2.99587 -0.0343139 0)
(2.99506 -0.0485613 0)
(2.99382 -0.0659062 0)
(2.99297 -0.0713986 0)
(2.98998 -0.0752087 0)
(2.9867 -0.0863904 0)
(2.98666 -0.118246 0)
(2.98505 -0.125992 0)
(2.97997 -0.12151 0)
(2.98691 -0.136968 0)
(2.9887 -0.176357 0)
(2.98696 -0.188844 0)
(2.98572 -0.185313 0)
(2.99567 -0.193841 0)
(3.00413 -0.221791 0)
(3.01154 -0.238717 0)
(3.00022 -0.00174408 0)
(3.00079 -0.015103 0)
(2.99584 -0.0203115 0)
(2.99609 -0.0268548 0)
(2.99701 -0.0330809 0)
(2.9929 -0.0484304 0)
(2.99315 -0.0636169 0)
(2.99011 -0.0702775 0)
(2.98575 -0.0704768 0)
(2.98253 -0.087336 0)
(2.98507 -0.11612 0)
(2.98111 -0.124405 0)
(2.97665 -0.121603 0)
(2.98073 -0.141327 0)
(2.98268 -0.174312 0)
(2.98218 -0.19034 0)
(2.98371 -0.188781 0)
(2.99344 -0.203723 0)
(3.00512 -0.22558 0)
(3.00936 -0.245109 0)
(3.00098 -0.001918 0)
(2.99808 -0.0124972 0)
(2.99501 -0.0198491 0)
(2.99727 -0.027898 0)
(2.99565 -0.0304882 0)
(2.99206 -0.0468645 0)
(2.9907 -0.061808 0)
(2.9855 -0.0662914 0)
(2.98252 -0.0678094 0)
(2.98242 -0.0873061 0)
(2.98012 -0.115825 0)
(2.97479 -0.119826 0)
(2.97065 -0.121255 0)
(2.97532 -0.142257 0)
(2.97577 -0.17676 0)
(2.97666 -0.191812 0)
(2.97715 -0.192528 0)
(2.98805 -0.210841 0)
(2.99647 -0.233678 0)
(3.00964 -0.255123 0)
(2.99989 0.000154336 0)
(2.9968 -0.0119165 0)
(2.99691 -0.0189512 0)
(2.99416 -0.029131 0)
(2.99368 -0.0270454 0)
(2.98993 -0.0457515 0)
(2.98799 -0.056247 0)
(2.98196 -0.0645174 0)
(2.98178 -0.0670995 0)
(2.97808 -0.086038 0)
(2.97271 -0.10993 0)
(2.96785 -0.115866 0)
(2.96523 -0.123414 0)
(2.96715 -0.144096 0)
(2.96801 -0.17631 0)
(2.96749 -0.192216 0)
(2.97024 -0.198733 0)
(2.9822 -0.22092 0)
(2.99472 -0.241936 0)
(3.00655 -0.264708 0)
(2.99875 0.00410861 0)
(2.99743 -0.0161824 0)
(2.9956 -0.0142574 0)
(2.98986 -0.0300186 0)
(2.9923 -0.0212845 0)
(2.98837 -0.0464593 0)
(2.98648 -0.0503664 0)
(2.97947 -0.0655114 0)
(2.97714 -0.0608722 0)
(2.97117 -0.0835152 0)
(2.96712 -0.105128 0)
(2.96084 -0.114261 0)
(2.95674 -0.120809 0)
(2.95865 -0.143261 0)
(2.95677 -0.178065 0)
(2.95822 -0.193606 0)
(2.95879 -0.204631 0)
(2.97424 -0.230257 0)
(2.98238 -0.251598 0)
(3.00348 -0.278998 0)
(2.99976 0.00910987 0)
(2.99493 -0.0215513 0)
(2.99254 -0.0046947 0)
(2.98861 -0.035111 0)
(2.993 -0.0144874 0)
(2.98467 -0.0506265 0)
(2.98522 -0.0389991 0)
(2.97296 -0.0672016 0)
(2.97378 -0.0511483 0)
(2.96323 -0.0864588 0)
(2.96419 -0.0943677 0)
(2.9497 -0.111667 0)
(2.94845 -0.118682 0)
(2.94783 -0.143694 0)
(2.94324 -0.176864 0)
(2.94619 -0.19179 0)
(2.94509 -0.216341 0)
(2.96479 -0.240113 0)
(2.97513 -0.264477 0)
(2.99461 -0.285869 0)
(3.00149 0.0178364 0)
(2.99006 -0.0308196 0)
(2.99299 0.00700194 0)
(2.98906 -0.0457644 0)
(2.99112 0.00112539 0)
(2.9806 -0.0590732 0)
(2.9855 -0.0221094 0)
(2.96484 -0.0768967 0)
(2.97352 -0.0329717 0)
(2.95401 -0.0962151 0)
(2.9599 -0.0750994 0)
(2.93729 -0.119338 0)
(2.94057 -0.103607 0)
(2.93394 -0.15152 0)
(2.92709 -0.166848 0)
(2.93057 -0.201315 0)
(2.92813 -0.216022 0)
(2.94833 -0.260517 0)
(2.96122 -0.276129 0)
(2.9828 -0.326615 0)
(3.00312 0.02783 0)
(2.9885 -0.0406885 0)
(2.99554 0.0184676 0)
(2.98328 -0.054221 0)
(2.99361 0.017454 0)
(2.97491 -0.0718402 0)
(2.98696 9.19916e-05 0)
(2.95729 -0.0859329 0)
(2.97383 -0.0127398 0)
(2.94351 -0.10509 0)
(2.95532 -0.0505217 0)
(2.92346 -0.125014 0)
(2.93235 -0.0871751 0)
(2.91372 -0.157224 0)
(2.91282 -0.150538 0)
(2.90709 -0.208651 0)
(2.90626 -0.21667 0)
(2.92548 -0.276768 0)
(2.93607 -0.294033 0)
(2.97696 -0.341137 0)
(3.0088 0.0366909 0)
(2.9812 -0.0528002 0)
(3.00327 0.0355009 0)
(2.97468 -0.0672706 0)
(3.00193 0.0347571 0)
(2.96496 -0.083174 0)
(2.99133 0.0215453 0)
(2.94699 -0.0996792 0)
(2.97575 0.0120117 0)
(2.92952 -0.1184 0)
(2.95479 -0.0229421 0)
(2.90398 -0.141085 0)
(2.92851 -0.0577385 0)
(2.88657 -0.177374 0)
(2.89988 -0.123728 0)
(2.87315 -0.23434 0)
(2.88448 -0.199796 0)
(2.88866 -0.315058 0)
(2.91592 -0.300315 0)
(2.95611 -0.388498 0)
(3.02119 0.0499937 0)
(2.9686 -0.0665526 0)
(3.01801 0.0516987 0)
(2.9618 -0.0793114 0)
(3.0141 0.0566031 0)
(2.95049 -0.0973048 0)
(3.00255 0.0501856 0)
(2.93101 -0.112808 0)
(2.98159 0.0433644 0)
(2.91436 -0.134211 0)
(2.95278 0.018632 0)
(2.88596 -0.156331 0)
(2.91998 -0.0161147 0)
(2.85888 -0.19159 0)
(2.88536 -0.075206 0)
(2.82745 -0.256154 0)
(2.86442 -0.159454 0)
(2.82471 -0.35372 0)
(2.89314 -0.287387 0)
(2.90269 -0.444694 0)
(3.04091 0.0517139 0)
(2.94867 -0.0706274 0)
(3.04223 0.0594881 0)
(2.93683 -0.0819382 0)
(3.03585 0.0653297 0)
(2.92671 -0.0991515 0)
(3.01827 0.0628744 0)
(2.91076 -0.114196 0)
(2.99091 0.0572145 0)
(2.89544 -0.133376 0)
(2.9536 0.0385559 0)
(2.86373 -0.159612 0)
(2.91802 0.00996374 0)
(2.81759 -0.202908 0)
(2.8829 -0.0439966 0)
(2.75807 -0.286532 0)
(2.85889 -0.125751 0)
(2.72337 -0.430995 0)
(2.88384 -0.267684 0)
(2.78924 -0.56011 0)
(3.07558 0.0661724 0)
(2.91881 -0.0844948 0)
(3.08449 0.0783059 0)
(2.90397 -0.0938338 0)
(3.07525 0.0870778 0)
(2.89375 -0.109755 0)
(3.05586 0.0923573 0)
(2.87825 -0.125234 0)
(3.02509 0.0935391 0)
(2.86228 -0.147933 0)
(2.98237 0.0910457 0)
(2.8276 -0.182555 0)
(2.93689 0.078971 0)
(2.77244 -0.236323 0)
(2.88937 0.0493395 0)
(2.689 -0.338074 0)
(2.84899 -0.0158419 0)
(2.60895 -0.524287 0)
(2.88426 -0.198827 0)
(2.68333 -0.755715 0)
(3.12111 0.0407978 0)
(2.87883 -0.0467271 0)
(3.12825 0.0470432 0)
(2.85955 -0.0491911 0)
(3.1145 0.0485122 0)
(2.84595 -0.0554598 0)
(3.09184 0.0505603 0)
(2.82475 -0.061703 0)
(3.05804 0.0457235 0)
(2.80154 -0.0724773 0)
(3.00444 0.0437226 0)
(2.76211 -0.0980144 0)
(2.93663 0.0366468 0)
(2.69786 -0.141913 0)
(2.8474 0.0197153 0)
(2.59498 -0.245397 0)
(2.73346 -0.0258983 0)
(2.44655 -0.492518 0)
(2.65977 -0.154796 0)
(2.31057 -0.962078 0)
(3.25492 0.0482337 0)
(2.73471 -0.0525769 0)
(3.28583 0.058518 0)
(2.6972 -0.0566988 0)
(3.30108 0.0641792 0)
(2.66191 -0.0630704 0)
(3.31444 0.0757233 0)
(2.61484 -0.0729305 0)
(3.32547 0.0801178 0)
(2.55984 -0.0846475 0)
(3.32723 0.0952539 0)
(2.48602 -0.117292 0)
(3.32346 0.114805 0)
(2.38732 -0.17446 0)
(3.30851 0.145522 0)
(2.25102 -0.314286 0)
(3.28437 0.175856 0)
(2.12601 -0.699093 0)
(3.36744 0.130261 0)
(2.80327 -1.99405 0)
(2.99128 -0.23857 0)
(2.99211 -0.238827 0)
(2.99645 -0.239923 0)
(2.99944 -0.237284 0)
(3.00073 -0.237594 0)
(3.00039 -0.232348 0)
(3.00049 -0.232417 0)
(2.99951 -0.225355 0)
(3.00036 -0.225676 0)
(2.99933 -0.218177 0)
(3.01602 -0.235385 0)
(3.01492 -0.236197 0)
(3.00914 -0.23706 0)
(3.0053 -0.235304 0)
(3.00309 -0.235324 0)
(3.00262 -0.231316 0)
(3.00285 -0.231199 0)
(3.00292 -0.225712 0)
(3.00386 -0.226069 0)
(3.00348 -0.220204 0)
(2.99436 -0.235816 0)
(2.99574 -0.236518 0)
(3.0006 -0.237213 0)
(3.00518 -0.235746 0)
(3.00687 -0.235699 0)
(3.00815 -0.232317 0)
(3.00811 -0.232071 0)
(3.0088 -0.227472 0)
(3.00913 -0.227509 0)
(3.01003 -0.222736 0)
(3.02026 -0.236251 0)
(3.01986 -0.237116 0)
(3.01517 -0.237788 0)
(3.01225 -0.236433 0)
(3.01114 -0.236185 0)
(3.01165 -0.233142 0)
(3.01261 -0.232842 0)
(3.01368 -0.229008 0)
(3.01489 -0.229186 0)
(3.0156 -0.225346 0)
(2.99988 -0.23853 0)
(3.00286 -0.243214 0)
(3.01018 -0.245893 0)
(3.01636 -0.245435 0)
(3.01941 -0.244953 0)
(3.02062 -0.24192 0)
(3.02056 -0.241103 0)
(3.02049 -0.237476 0)
(3.02082 -0.237172 0)
(3.02141 -0.233691 0)
(3.0024 -0.24065 0)
(3.00603 -0.237836 0)
(3.0139 -0.236276 0)
(3.01999 -0.235448 0)
(3.02317 -0.235863 0)
(3.02424 -0.235056 0)
(3.02437 -0.235434 0)
(3.02436 -0.233635 0)
(3.02492 -0.233766 0)
(3.02578 -0.231715 0)
(3.02682 -0.242099 0)
(3.02686 -0.243182 0)
(3.02341 -0.244082 0)
(3.02078 -0.244401 0)
(3.02099 -0.245139 0)
(3.02183 -0.244533 0)
(3.02422 -0.245044 0)
(3.02568 -0.243562 0)
(3.0283 -0.244002 0)
(3.0295 -0.242247 0)
(3.00398 -0.248712 0)
(3.00683 -0.250098 0)
(3.01461 -0.250699 0)
(3.02041 -0.251083 0)
(3.025 -0.251238 0)
(3.02712 -0.250803 0)
(3.02993 -0.250796 0)
(3.03121 -0.249828 0)
(3.03431 -0.249893 0)
(3.03558 -0.248807 0)
(3.02795 -0.257587 0)
(3.02945 -0.259148 0)
(3.02723 -0.259184 0)
(3.02591 -0.259874 0)
(3.02727 -0.259438 0)
(3.02922 -0.259509 0)
(3.03279 -0.25889 0)
(3.03501 -0.258598 0)
(3.03888 -0.25798 0)
(3.04043 -0.257688 0)
(3.00391 -0.266686 0)
(3.00881 -0.269084 0)
(3.01718 -0.268761 0)
(3.02464 -0.270548 0)
(3.02952 -0.269399 0)
(3.03322 -0.270855 0)
(3.03644 -0.269119 0)
(3.03922 -0.27058 0)
(3.04296 -0.26837 0)
(3.04535 -0.270205 0)
(3.02472 -0.279039 0)
(3.02882 -0.282381 0)
(3.02751 -0.28071 0)
(3.02867 -0.283454 0)
(3.03061 -0.280187 0)
(3.0348 -0.283002 0)
(3.03878 -0.278639 0)
(3.04306 -0.282312 0)
(3.04749 -0.277013 0)
(3.05066 -0.281965 0)
(2.99848 -0.292629 0)
(3.00684 -0.30099 0)
(3.01839 -0.300461 0)
(3.02913 -0.305596 0)
(3.03606 -0.300587 0)
(3.04122 -0.305239 0)
(3.04527 -0.298018 0)
(3.04843 -0.304163 0)
(3.05338 -0.295267 0)
(3.05605 -0.30364 0)
(2.99407 -0.312322 0)
(3.00479 -0.316188 0)
(3.01873 -0.308807 0)
(3.03093 -0.316871 0)
(3.03978 -0.308333 0)
(3.04625 -0.319066 0)
(3.0517 -0.306483 0)
(3.05533 -0.319301 0)
(3.0602 -0.301569 0)
(3.06218 -0.317683 0)
(3.0081 -0.333521 0)
(3.01833 -0.342216 0)
(3.02097 -0.336233 0)
(3.02876 -0.345919 0)
(3.03403 -0.336626 0)
(3.0448 -0.348566 0)
(3.05143 -0.336184 0)
(3.06211 -0.351642 0)
(3.06804 -0.335818 0)
(3.07653 -0.355497 0)
(2.97405 -0.373406 0)
(2.99023 -0.385679 0)
(3.00629 -0.36866 0)
(3.02284 -0.376301 0)
(3.03149 -0.348245 0)
(3.03923 -0.358625 0)
(3.04276 -0.323779 0)
(3.04595 -0.342163 0)
(3.04992 -0.300639 0)
(3.05045 -0.3295 0)
(2.97559 -0.438509 0)
(3.00978 -0.454795 0)
(3.04532 -0.441756 0)
(3.07084 -0.458306 0)
(3.08866 -0.438342 0)
(3.09713 -0.460216 0)
(3.10445 -0.4338 0)
(3.10594 -0.462839 0)
(3.11151 -0.427904 0)
(3.10977 -0.465628 0)
(2.90011 -0.462853 0)
(2.93177 -0.44601 0)
(2.97073 -0.386815 0)
(2.98437 -0.373819 0)
(3.00379 -0.313598 0)
(3.0011 -0.319338 0)
(3.01537 -0.257483 0)
(3.00898 -0.281311 0)
(3.02547 -0.212288 0)
(3.01669 -0.255586 0)
(3.08406 -0.729964 0)
(3.15435 -0.730904 0)
(3.22203 -0.696466 0)
(3.20061 -0.702089 0)
(3.21283 -0.663052 0)
(3.16629 -0.678949 0)
(3.18103 -0.628277 0)
(3.13394 -0.654183 0)
(3.15416 -0.587092 0)
(3.1021 -0.628794 0)
(2.91636 -0.50668 0)
(2.98389 -0.339332 0)
(3.07596 -0.205765 0)
(3.01961 -0.15475 0)
(3.08975 -0.0850175 0)
(3.01181 -0.0741696 0)
(3.10488 -0.00803538 0)
(3.00774 -0.0172952 0)
(3.11608 0.0517696 0)
(2.98925 0.0188824 0)
(3.83454 -1.51864 0)
(3.7413 -1.35626 0)
(3.44511 -1.18531 0)
(3.13219 -1.10632 0)
(3.02662 -0.978993 0)
(2.84367 -0.940367 0)
(2.84065 -0.812837 0)
(2.63081 -0.803895 0)
(2.678 -0.670359 0)
(2.42069 -0.699353 0)
(3.00707 -0.221565 0)
(3.00025 -0.242035 0)
(3.00007 -0.247018 0)
(3.01439 -0.255415 0)
(3.00687 -0.266743 0)
(2.99311 -0.290563 0)
(2.99495 -0.324453 0)
(2.98544 -0.363976 0)
(2.95505 -0.441974 0)
(2.92 -0.57266 0)
(2.86822 -0.722201 0)
(2.76048 -0.880906 0)
(2.57441 -1.07118 0)
(2.30572 -1.26876 0)
(1.97386 -1.40468 0)
(1.60288 -1.42461 0)
(1.24883 -1.34003 0)
(0.912736 -1.14762 0)
(0.671583 -0.946413 0)
(0.434458 -0.486691 0)
(3.01074 -0.224875 0)
(3.00451 -0.23972 0)
(3.01625 -0.252732 0)
(3.0239 -0.257935 0)
(3.0044 -0.258108 0)
(2.9934 -0.285823 0)
(2.99019 -0.321053 0)
(2.96414 -0.348104 0)
(2.91985 -0.418163 0)
(2.86155 -0.542128 0)
(2.76609 -0.662719 0)
(2.62275 -0.767718 0)
(2.44767 -0.892552 0)
(2.2333 -1.02618 0)
(1.97151 -1.1164 0)
(1.67219 -1.12609 0)
(1.38759 -1.06596 0)
(1.10868 -0.921838 0)
(0.915497 -0.774978 0)
(0.703311 -0.411165 0)
(3.01433 -0.224976 0)
(3.01749 -0.24488 0)
(3.02826 -0.256887 0)
(3.02397 -0.249395 0)
(3.00767 -0.251593 0)
(2.99726 -0.284385 0)
(2.98576 -0.311169 0)
(2.95371 -0.33151 0)
(2.9026 -0.396414 0)
(2.83986 -0.504807 0)
(2.75057 -0.612828 0)
(2.62996 -0.727598 0)
(2.48161 -0.87879 0)
(2.27441 -1.03425 0)
(1.9927 -1.13299 0)
(1.66127 -1.13631 0)
(1.35091 -1.06244 0)
(1.07023 -0.900694 0)
(0.88481 -0.748951 0)
(0.764461 -0.390747 0)
(3.02231 -0.228192 0)
(3.02458 -0.245515 0)
(3.03081 -0.255644 0)
(3.03321 -0.246731 0)
(3.01483 -0.24462 0)
(3.00111 -0.275811 0)
(2.98482 -0.301073 0)
(2.93516 -0.310389 0)
(2.88477 -0.365945 0)
(2.82274 -0.470109 0)
(2.69111 -0.565972 0)
(2.52483 -0.651953 0)
(2.37535 -0.748054 0)
(2.2048 -0.82951 0)
(1.98885 -0.870811 0)
(1.7355 -0.865712 0)
(1.49586 -0.831869 0)
(1.25569 -0.727869 0)
(1.06734 -0.643196 0)
(0.894684 -0.359178 0)
(3.02719 -0.233932 0)
(3.0316 -0.251574 0)
(3.04275 -0.262956 0)
(3.03777 -0.241737 0)
(3.02257 -0.238032 0)
(3.01516 -0.272244 0)
(2.97474 -0.281159 0)
(2.92073 -0.285523 0)
(2.88579 -0.346314 0)
(2.79546 -0.422164 0)
(2.64761 -0.485569 0)
(2.52906 -0.584298 0)
(2.4261 -0.721762 0)
(2.25015 -0.835742 0)
(1.98988 -0.888378 0)
(1.68956 -0.87435 0)
(1.41857 -0.818379 0)
(1.1956 -0.687684 0)
(1.06378 -0.592075 0)
(0.948043 -0.32939 0)
(3.03225 -0.232921 0)
(3.04835 -0.252405 0)
(3.04713 -0.258512 0)
(3.03594 -0.231437 0)
(3.04305 -0.231418 0)
(3.02835 -0.255889 0)
(2.96478 -0.255831 0)
(2.91521 -0.266307 0)
(2.87652 -0.310686 0)
(2.77863 -0.361746 0)
(2.63679 -0.435356 0)
(2.48421 -0.540871 0)
(2.30817 -0.62611 0)
(2.10808 -0.657913 0)
(1.91404 -0.659733 0)
(1.72694 -0.646131 0)
(1.54439 -0.636717 0)
(1.33433 -0.565443 0)
(1.17328 -0.521644 0)
(1.02581 -0.306115 0)
(3.04164 -0.244923 0)
(3.05668 -0.259987 0)
(3.04505 -0.258488 0)
(3.05044 -0.235227 0)
(3.06638 -0.234399 0)
(3.02892 -0.239441 0)
(2.96188 -0.229972 0)
(2.92523 -0.244935 0)
(2.87124 -0.283393 0)
(2.74806 -0.315031 0)
(2.60591 -0.362297 0)
(2.48447 -0.451223 0)
(2.35195 -0.555769 0)
(2.16301 -0.634727 0)
(1.92142 -0.675869 0)
(1.66457 -0.664838 0)
(1.45781 -0.621732 0)
(1.28993 -0.517818 0)
(1.18457 -0.465334 0)
(1.06525 -0.276871 0)
(3.05081 -0.249688 0)
(3.05803 -0.260118 0)
(3.0567 -0.257793 0)
(3.07564 -0.234592 0)
(3.07735 -0.225792 0)
(3.03326 -0.212674 0)
(2.97569 -0.201861 0)
(2.92825 -0.223919 0)
(2.85641 -0.239359 0)
(2.74298 -0.245182 0)
(2.61512 -0.305806 0)
(2.45898 -0.40935 0)
(2.255 -0.480074 0)
(2.04645 -0.489871 0)
(1.88023 -0.477761 0)
(1.72601 -0.471756 0)
(1.56368 -0.482658 0)
(1.37969 -0.431382 0)
(1.25201 -0.409949 0)
(1.11515 -0.252702 0)
(3.05857 -0.255241 0)
(3.0562 -0.267236 0)
(3.0724 -0.267086 0)
(3.10935 -0.234019 0)
(3.08656 -0.214663 0)
(3.0258 -0.19799 0)
(2.99165 -0.180536 0)
(2.95159 -0.185143 0)
(2.85187 -0.191638 0)
(2.7172 -0.201787 0)
(2.59354 -0.243367 0)
(2.46385 -0.304758 0)
(2.28563 -0.368475 0)
(2.05467 -0.437892 0)
(1.82472 -0.491511 0)
(1.63023 -0.488729 0)
(1.48717 -0.459432 0)
(1.35297 -0.382106 0)
(1.26457 -0.356498 0)
(1.14325 -0.22416 0)
(3.06494 -0.258323 0)
(3.05212 -0.281084 0)
(3.09984 -0.279672 0)
(3.14557 -0.22839 0)
(3.08557 -0.200901 0)
(3.0241 -0.177941 0)
(3.03072 -0.163148 0)
(2.9764 -0.166293 0)
(2.82427 -0.148949 0)
(2.70881 -0.136056 0)
(2.62791 -0.184502 0)
(2.45097 -0.264176 0)
(2.2033 -0.306561 0)
(1.99468 -0.310522 0)
(1.84668 -0.323174 0)
(1.70692 -0.342984 0)
(1.56611 -0.361301 0)
(1.40952 -0.319525 0)
(1.30737 -0.308288 0)
(1.17584 -0.198334 0)
(3.07308 -0.253287 0)
(3.04431 -0.299217 0)
(3.12781 -0.311556 0)
(3.17692 -0.207072 0)
(3.09238 -0.160617 0)
(3.03835 -0.168984 0)
(3.0466 -0.140358 0)
(2.98909 -0.0794845 0)
(2.83826 -0.062205 0)
(2.69629 -0.104396 0)
(2.59726 -0.127866 0)
(2.45679 -0.115802 0)
(2.23825 -0.151142 0)
(2.00404 -0.24748 0)
(1.81191 -0.329429 0)
(1.65427 -0.341885 0)
(1.53037 -0.326391 0)
(1.40139 -0.270682 0)
(1.31948 -0.258549 0)
(1.19537 -0.169777 0)
(3.08585 -0.256422 0)
(3.03117 -0.33261 0)
(3.15009 -0.331322 0)
(3.22277 -0.205191 0)
(3.09835 -0.170983 0)
(3.05954 -0.173832 0)
(3.09499 -0.139798 0)
(2.99139 -0.0813836 0)
(2.82387 -0.0300895 0)
(2.71549 -0.0364748 0)
(2.59738 -0.0826167 0)
(2.42026 -0.109036 0)
(2.23812 -0.116749 0)
(2.07647 -0.143043 0)
(1.92119 -0.193388 0)
(1.75404 -0.228836 0)
(1.59902 -0.24617 0)
(1.44188 -0.2151 0)
(1.3473 -0.211398 0)
(1.21595 -0.14218 0)
(3.08831 -0.216708 0)
(3.04322 -0.35496 0)
(3.1696 -0.378516 0)
(3.22765 -0.139948 0)
(3.12772 -0.0939451 0)
(3.08666 -0.15566 0)
(3.10082 -0.0784486 0)
(3.00394 0.052003 0)
(2.84163 0.0616301 0)
(2.721 0.00182939 0)
(2.58439 0.00975578 0)
(2.39804 0.0488919 0)
(2.23022 0.0148038 0)
(2.08753 -0.0812409 0)
(1.92799 -0.161958 0)
(1.74733 -0.186121 0)
(1.59124 -0.18885 0)
(1.44196 -0.160673 0)
(1.35538 -0.161715 0)
(1.22746 -0.112837 0)
(3.09635 -0.267762 0)
(3.00745 -0.435221 0)
(3.2426 -0.413905 0)
(3.27025 -0.187366 0)
(3.13985 -0.15978 0)
(3.13668 -0.181779 0)
(3.0898 -0.0949918 0)
(2.98975 0.0318769 0)
(2.90917 0.0860301 0)
(2.73176 0.072965 0)
(2.47727 0.0593586 0)
(2.32774 0.047465 0)
(2.29662 0.0169014 0)
(2.22886 -0.0221096 0)
(2.05478 -0.0591281 0)
(1.8284 -0.0837769 0)
(1.63376 -0.106449 0)
(1.46271 -0.10182 0)
(1.36828 -0.112944 0)
(1.23728 -0.083831 0)
(3.08398 -0.110426 0)
(2.9524 -0.448113 0)
(3.28772 -0.436378 0)
(3.3328 -0.0311115 0)
(3.09618 -0.0588216 0)
(3.09615 -0.115224 0)
(3.11923 0.0224871 0)
(3.0379 0.141818 0)
(2.93546 0.173286 0)
(2.74796 0.195497 0)
(2.52633 0.195832 0)
(2.36228 0.135813 0)
(2.21125 0.0663781 0)
(2.03127 0.0372921 0)
(1.85093 0.0273219 0)
(1.6903 0.00901909 0)
(1.56426 -0.0259199 0)
(1.43598 -0.0419124 0)
(1.36178 -0.063648 0)
(1.23902 -0.0543965 0)
(3.1336 -0.266723 0)
(2.89138 -0.64395 0)
(3.3277 -0.592078 0)
(3.4217 -0.0976238 0)
(3.03496 -0.127042 0)
(3.00095 -0.207111 0)
(3.12688 -0.0420748 0)
(3.06977 0.115389 0)
(2.87 0.20739 0)
(2.66853 0.258461 0)
(2.50472 0.238489 0)
(2.28546 0.186696 0)
(2.01742 0.157841 0)
(1.8063 0.130898 0)
(1.68599 0.0853148 0)
(1.60186 0.0417756 0)
(1.52601 0.00691372 0)
(1.42088 -0.00777791 0)
(1.35669 -0.0250806 0)
(1.23834 -0.0278142 0)
(3.09798 0.0910604 0)
(2.90184 -0.559915 0)
(3.31513 -0.572054 0)
(3.40555 0.17283 0)
(2.92355 0.0706068 0)
(2.89182 -0.140653 0)
(3.14714 0.0281501 0)
(3.10102 0.246857 0)
(2.83571 0.326338 0)
(2.66279 0.343838 0)
(2.57286 0.354964 0)
(2.42036 0.349528 0)
(2.22848 0.292509 0)
(2.05776 0.202343 0)
(1.89907 0.128814 0)
(1.73045 0.0866641 0)
(1.58203 0.0579104 0)
(1.43754 0.0379796 0)
(1.35831 0.0181012 0)
(1.23651 -0.000175749 0)
(3.18513 -0.252401 0)
(2.66236 -0.931202 0)
(2.99957 -0.838492 0)
(3.0895 0.0914132 0)
(2.60586 0.0139243 0)
(2.55519 -0.295436 0)
(2.84428 -0.0886235 0)
(2.95538 0.271476 0)
(2.74216 0.405378 0)
(2.49805 0.389857 0)
(2.34135 0.367822 0)
(2.25216 0.355253 0)
(2.19167 0.318818 0)
(2.08713 0.269443 0)
(1.9166 0.223469 0)
(1.72106 0.180469 0)
(1.56219 0.135925 0)
(1.41994 0.0939012 0)
(1.34525 0.0635842 0)
(1.22826 0.0275174 0)
(3.49464 0.358611 0)
(2.30814 -0.50508 0)
(2.07916 -0.609384 0)
(2.54531 0.434983 0)
(2.44061 0.197139 0)
(2.04817 -0.267653 0)
(2.17599 -0.117441 0)
(2.49273 0.267438 0)
(2.57933 0.479173 0)
(2.46761 0.502282 0)
(2.29523 0.456199 0)
(2.176 0.407302 0)
(2.08932 0.36566 0)
(1.96232 0.333118 0)
(1.79981 0.298717 0)
(1.63787 0.250363 0)
(1.51228 0.195037 0)
(1.39126 0.138777 0)
(1.32689 0.103558 0)
(1.2164 0.0532058 0)
(2.91084 -0.0516803 0)
(0.514261 -0.408623 0)
(0.708777 -0.955809 0)
(2.2266 0.036059 0)
(1.34809 0.162986 0)
(0.234022 -0.107864 0)
(0.702528 -0.214218 0)
(1.37794 0.115376 0)
(1.85345 0.399624 0)
(2.06222 0.512476 0)
(2.08857 0.504624 0)
(2.0364 0.456982 0)
(1.94112 0.419833 0)
(1.81237 0.396582 0)
(1.68134 0.363289 0)
(1.56101 0.307035 0)
(1.46601 0.24459 0)
(1.36238 0.178573 0)
(1.3061 0.140722 0)
(1.20157 0.0775635 0)
(1.77584 0.614391 0)
(0.194946 0.0501195 0)
(0.175015 -1.19861 0)
(1.66184 0.115062 0)
(0.337288 0.669101 0)
(-0.720842 -0.0435899 0)
(-0.182437 -0.465401 0)
(0.683926 -0.112633 0)
(1.36986 0.24326 0)
(1.76758 0.438615 0)
(1.92249 0.485986 0)
(1.92683 0.469483 0)
(1.84736 0.449843 0)
(1.73277 0.431806 0)
(1.62361 0.395763 0)
(1.52332 0.335188 0)
(1.44089 0.270988 0)
(1.34431 0.201139 0)
(1.29121 0.162889 0)
(1.1901 0.0922836 0)
(1.04029 0.271113 0)
(0.116225 0.0599128 0)
(0.0515774 -1.2599 0)
(1.34769 0.0981705 0)
(-0.090777 0.800519 0)
(-0.808427 -0.0123881 0)
(-0.607752 -0.543716 0)
(0.409149 -0.213886 0)
(1.1612 0.16553 0)
(1.63611 0.397432 0)
(1.84615 0.473009 0)
(1.87635 0.473689 0)
(1.80619 0.462448 0)
(1.69953 0.446126 0)
(1.60015 0.40876 0)
(1.50791 0.346669 0)
(1.43023 0.282178 0)
(1.33633 0.210836 0)
(1.28444 0.172609 0)
(1.1848 0.0987196 0)
(0.412136 0.341358 0)
(0.00576317 0.137042 0)
(-0.0462478 -1.34303 0)
(1.0116 0.116474 0)
(-0.456112 0.91616 0)
(-0.767546 0.0179541 0)
(-0.92353 -0.610323 0)
(0.177012 -0.332459 0)
(0.967416 0.0803277 0)
(1.50804 0.348963 0)
(1.7688 0.455637 0)
(1.82478 0.475808 0)
(1.766 0.473545 0)
(1.66875 0.458879 0)
(1.57901 0.420457 0)
(1.49384 0.357305 0)
(1.42008 0.292939 0)
(1.3284 0.220259 0)
(1.27754 0.182193 0)
(1.17931 0.105051 0)
(0.0495914 0.295296 0)
(-0.0117711 0.132495 0)
(-0.118914 -1.38116 0)
(0.689516 0.150008 0)
(-0.728065 1.02222 0)
(-0.729497 0.0426148 0)
(-1.00575 -0.65931 0)
(-0.0389651 -0.456236 0)
(0.793379 -0.0111156 0)
(1.38658 0.293812 0)
(1.69197 0.433556 0)
(1.77292 0.475214 0)
(1.72728 0.482923 0)
(1.64065 0.470256 0)
(1.56019 0.431116 0)
(1.48105 0.367295 0)
(1.41038 0.303343 0)
(1.32053 0.229482 0)
(1.2705 0.191633 0)
(1.17363 0.11128 0)
(-0.125368 0.306781 0)
(-0.0116313 0.141679 0)
(-0.135984 -1.42005 0)
(0.418079 0.191653 0)
(-0.89094 1.10581 0)
(-0.672873 0.0502605 0)
(-0.916512 -0.69438 0)
(-0.254132 -0.568961 0)
(0.640697 -0.108264 0)
(1.27372 0.232952 0)
(1.61694 0.40703 0)
(1.72164 0.471931 0)
(1.69055 0.490635 0)
(1.61536 0.480381 0)
(1.54358 0.440877 0)
(1.46942 0.376766 0)
(1.40109 0.31346 0)
(1.31269 0.238552 0)
(1.26334 0.200939 0)
(1.16777 0.117411 0)
(-0.205258 0.315943 0)
(0.0614503 0.13243 0)
(-0.107678 -1.43098 0)
(0.181299 0.239993 0)
(-0.948285 1.16876 0)
(-0.566546 0.0455743 0)
(-0.77185 -0.709706 0)
(-0.425911 -0.662849 0)
(0.50901 -0.210809 0)
(1.17041 0.167676 0)
(1.54468 0.376767 0)
(1.6717 0.466216 0)
(1.65615 0.496702 0)
(1.59288 0.489269 0)
(1.52903 0.449829 0)
(1.45882 0.385821 0)
(1.39215 0.323361 0)
(1.30487 0.247501 0)
(1.25603 0.210127 0)
(1.16171 0.123447 0)
(-0.23957 0.34092 0)
(0.211991 0.122357 0)
(-0.0157768 -1.42411 0)
(0.003769 0.295078 0)
(-0.924168 1.20798 0)
(-0.427278 0.0298011 0)
(-0.615113 -0.709442 0)
(-0.49634 -0.738052 0)
(0.395462 -0.315689 0)
(1.07679 0.0991611 0)
(1.47597 0.34342 0)
(1.62393 0.458116 0)
(1.62457 0.500941 0)
(1.57322 0.496862 0)
(1.51638 0.458059 0)
(1.44912 0.394564 0)
(1.38349 0.333112 0)
(1.29704 0.256354 0)
(1.24858 0.219213 0)
(1.15546 0.129391 0)
(-0.259528 0.301343 0)
(0.468858 0.0988935 0)
(0.144194 -1.40028 0)
(-0.144056 0.344729 0)
(-0.81477 1.23635 0)
(-0.278195 0.00797942 0)
(-0.438393 -0.700841 0)
(-0.453329 -0.795499 0)
(0.299724 -0.416398 0)
(0.992746 0.0282498 0)
(1.4114 0.307478 0)
(1.57879 0.447768 0)
(1.59575 0.503463 0)
(1.55606 0.503334 0)
(1.5053 0.465733 0)
(1.44014 0.403097 0)
(1.37504 0.342765 0)
(1.28919 0.265136 0)
(1.24098 0.228207 0)
(1.149 0.135244 0)
(-0.273561 0.351479 0)
(0.821202 0.0698773 0)
(0.379893 -1.35392 0)
(-0.257632 0.41398 0)
(-0.620684 1.23747 0)
(-0.123182 -0.0162832 0)
(-0.239852 -0.68835 0)
(-0.329227 -0.835482 0)
(0.230757 -0.506763 0)
(0.918836 -0.0439593 0)
(1.35183 0.269244 0)
(1.53725 0.434996 0)
(1.5704 0.503915 0)
(1.54167 0.508504 0)
(1.4958 0.472862 0)
(1.43184 0.41149 0)
(1.36677 0.352369 0)
(1.28129 0.273873 0)
(1.23322 0.237123 0)
(1.14235 0.141009 0)
(-0.318856 0.175224 0)
(1.23 0.00334711 0)
(0.690464 -1.25199 0)
(-0.292961 0.446796 0)
(-0.347171 1.23405 0)
(0.0398072 -0.0422127 0)
(-0.03182 -0.674806 0)
(-0.159612 -0.858228 0)
(0.203007 -0.583301 0)
(0.857552 -0.115834 0)
(1.29789 0.229326 0)
(1.49915 0.420424 0)
(1.54756 0.503226 0)
(1.52883 0.513174 0)
(1.48706 0.479862 0)
(1.42381 0.419877 0)
(1.35854 0.36196 0)
(1.27331 0.28257 0)
(1.22529 0.245962 0)
(1.1355 0.146683 0)
(0.327751 0.383971 0)
(1.96648 -0.0777827 0)
(1.3225 -0.954239 0)
(-0.465583 0.625164 0)
(0.284378 1.19349 0)
(0.330445 -0.0488815 0)
(0.317925 -0.655722 0)
(0.170441 -0.870542 0)
(0.237153 -0.683849 0)
(0.78448 -0.230711 0)
(1.22234 0.16099 0)
(1.44418 0.392087 0)
(1.51662 0.4975 0)
(1.51291 0.517854 0)
(1.47561 0.490335 0)
(1.41173 0.43375 0)
(1.34515 0.378056 0)
(1.25991 0.297195 0)
(1.2118 0.260634 0)
(1.12373 0.15602 0)
(2.13693 0.258164 0)
(3.01409 -0.225169 0)
(2.63652 -0.696754 0)
(0.209171 0.653411 0)
(0.956284 1.03159 0)
(0.781238 -0.0408676 0)
(0.789244 -0.640634 0)
(0.757376 -0.82556 0)
(0.495555 -0.738566 0)
(0.759096 -0.3664 0)
(1.15824 0.062726 0)
(1.3944 0.346933 0)
(1.4876 0.486828 0)
(1.49541 0.524975 0)
(1.45992 0.506544 0)
(1.39413 0.454464 0)
(1.32563 0.400924 0)
(1.24029 0.317907 0)
(1.19175 0.280864 0)
(1.10601 0.168562 0)
(2.75785 0.644381 0)
(3.10443 -0.108613 0)
(2.54146 -0.153036 0)
(0.900326 1.00192 0)
(1.49182 1.00965 0)
(1.33924 -0.000348456 0)
(1.21115 -0.661617 0)
(1.26173 -0.786085 0)
(0.952513 -0.69311 0)
(0.855285 -0.434932 0)
(1.13174 -0.0282054 0)
(1.36517 0.292984 0)
(1.47272 0.465211 0)
(1.48664 0.524794 0)
(1.44851 0.519917 0)
(1.37799 0.474923 0)
(1.30616 0.423942 0)
(1.22002 0.338808 0)
(1.17057 0.300855 0)
(1.08708 0.180613 0)
(2.95182 0.432603 0)
(3.10799 -0.108091 0)
(2.89134 -0.0514336 0)
(1.75273 1.02024 0)
(2.08907 0.97204 0)
(2.03422 0.0648208 0)
(1.78495 -0.616169 0)
(1.68111 -0.751331 0)
(1.4163 -0.613504 0)
(1.0816 -0.423957 0)
(1.14946 -0.0874636 0)
(1.34099 0.248163 0)
(1.44886 0.45199 0)
(1.46475 0.533503 0)
(1.4267 0.539229 0)
(1.35621 0.497999 0)
(1.28411 0.447642 0)
(1.19829 0.359874 0)
(1.14801 0.320627 0)
(1.06682 0.192161 0)
(3.02566 0.600652 0)
(2.94936 0.000936132 0)
(2.94319 0.186599 0)
(2.35396 1.13716 0)
(2.64569 0.987591 0)
(2.61045 0.118086 0)
(2.32018 -0.563518 0)
(2.08048 -0.697502 0)
(1.81583 -0.516752 0)
(1.37918 -0.35302 0)
(1.22827 -0.104148 0)
(1.33325 0.206338 0)
(1.42984 0.426263 0)
(1.44856 0.528713 0)
(1.41089 0.550498 0)
(1.33812 0.518275 0)
(1.26328 0.470847 0)
(1.17623 0.381156 0)
(1.12431 0.340314 0)
(1.04523 0.203225 0)
(3.07731 0.575129 0)
(2.8377 0.00154608 0)
(2.90571 0.117523 0)
(2.77309 1.10903 0)
(3.0674 0.959945 0)
(3.11939 0.180267 0)
(2.82942 -0.46349 0)
(2.46086 -0.614281 0)
(2.15793 -0.405173 0)
(1.67948 -0.242763 0)
(1.35572 -0.0718168 0)
(1.34222 0.193009 0)
(1.40413 0.421438 0)
(1.41613 0.542539 0)
(1.37997 0.573631 0)
(1.31106 0.543434 0)
(1.23838 0.495242 0)
(1.15215 0.402786 0)
(1.09897 0.359873 0)
(1.02213 0.213759 0)
(3.12276 0.60837 0)
(2.86951 0.114389 0)
(2.81312 0.129385 0)
(2.9721 1.04451 0)
(3.34542 0.931512 0)
(3.487 0.221352 0)
(3.16062 -0.370368 0)
(2.68964 -0.523972 0)
(2.39173 -0.294758 0)
(1.94406 -0.110973 0)
(1.51659 0.00195084 0)
(1.37946 0.196737 0)
(1.39514 0.403273 0)
(1.40194 0.531889 0)