/*--------------------------------*- C++ -*----------------------------------*\
| =========                 |                                                 |
| \\      /  F ield         | OpenFOAM: The Open Source CFD Toolbox           |
|  \\    /   O peration     | Version:  v1806                                 |
|   \\  /    A nd           | Web:      www.OpenFOAM.com                      |
|    \\/     M anipulation  |                                                 |
\*---------------------------------------------------------------------------*/
FoamFile
{
    version     2.0;
    format      ascii;
    class       volScalarField;
    location    "500";
    object      p;
}
// * * * * * * * * * * * * * * * * * * * * * * * * * * * * * * * * * * * * * //

dimensions      [0 2 -2 0 0 0 0];


internalField   nonuniform List<scalar> 
2400
(
1.00284e-05
1.15101e-05
1.19348e-05
1.41576e-05
1.58482e-05
2.01486e-05
2.32034e-05
2.98671e-05
3.46148e-05
4.43519e-05
5.10024e-05
6.38886e-05
7.16468e-05
8.5708e-05
9.11354e-05
9.95906e-05
9.45696e-05
8.44665e-05
5.87834e-05
2.08289e-05
2.99173e-05
3.44604e-05
3.54326e-05
4.23438e-05
4.69944e-05
6.01495e-05
6.86763e-05
8.90435e-05
0.000102415
0.000132178
0.000151003
0.000190518
0.000212489
0.000256012
0.000271123
0.000298384
0.000282806
0.00025443
0.000177124
6.46366e-05
4.96833e-05
5.70028e-05
5.86821e-05
7.01132e-05
7.78528e-05
9.95564e-05
0.000113691
0.000147406
0.000169558
0.000219011
0.000250168
0.00031628
0.000352617
0.000426521
0.00045132
0.00050011
0.000473361
0.000430298
0.000299147
0.000111284
6.91823e-05
7.89641e-05
8.1545e-05
9.73023e-05
0.000108305
0.000138195
0.000158121
0.000204779
0.000235922
0.000304749
0.000348454
0.000441377
0.000492286
0.00059832
0.000632795
0.000707677
0.000668533
0.000616899
0.000427204
0.000161587
8.83101e-05
0.000100145
0.000103849
0.000123707
0.00013816
0.000175794
0.000201694
0.000260803
0.000301155
0.000388974
0.000445486
0.000565509
0.000631334
0.000771738
0.000816126
0.000923213
0.000870199
0.000819173
0.000563349
0.000218165
0.000106965
0.000120333
0.000125446
0.000149108
0.000167251
0.000212048
0.000244179
0.000315062
0.000364957
0.000471161
0.000540959
0.000688176
0.000769693
0.000946795
0.00100206
0.00114857
0.00108056
0.0010426
0.000709933
0.000285625
0.000125043
0.000139329
0.000146202
0.000173293
0.000195424
0.000246657
0.000285365
0.000367131
0.000427067
0.000550744
0.000634621
0.00080874
0.00090737
0.00112321
0.00119152
0.00138518
0.00130227
0.00129298
0.000869627
0.000371064
0.000142436
0.00015695
0.00016599
0.000196058
0.00022253
0.000279321
0.000325055
0.000416576
0.000487239
0.000627097
0.000726231
0.000926398
0.00104437
0.00130031
0.00138547
0.00163382
0.00153847
0.00157607
0.00104575
0.000484839
0.000159037
0.000173033
0.000184692
0.00021721
0.000248425
0.000309748
0.000363061
0.000462953
0.000545233
0.000699546
0.000815536
0.00104018
0.00118067
0.00147701
0.00158492
0.00189452
0.00179298
0.00189736
0.00124299
0.000641153
0.000174732
0.00018744
0.000202199
0.000236568
0.000272965
0.000337659
0.000399198
0.00050582
0.000600807
0.000767377
0.00090226
0.00114897
0.00131614
0.0016518
0.00179084
0.00216649
0.00207034
0.00226174
0.00146843
0.000858461
0.000189403
0.000200068
0.000218418
0.000253975
0.000296001
0.000362796
0.000433278
0.000544753
0.000653712
0.000829855
0.000986087
0.00125151
0.00145056
0.00182273
0.00200402
0.00244795
0.00237581
0.00267308
0.00173293
0.0011595
0.000202918
0.000210852
0.000233236
0.000269303
0.000317367
0.000384937
0.000465099
0.000579365
0.000703673
0.000886264
0.00106665
0.00134646
0.00158353
0.00198746
0.00222496
0.00273597
0.00271534
0.00313362
0.00205335
0.00157092
0.00021513
0.000219775
0.000246568
0.000282463
0.00033687
0.00040391
0.000494416
0.000609332
0.000750359
0.00093594
0.00114348
0.00143244
0.00171451
0.00214328
0.00245375
0.00302633
0.00309527
0.00364331
0.00245552
0.00212517
0.000225878
0.000226873
0.00025832
0.000293394
0.000354382
0.00041962
0.000520976
0.000634417
0.000793345
0.000978328
0.00121597
0.00150815
0.00184269
0.00228739
0.00269016
0.00331351
0.00352158
0.00419861
0.00297448
0.00286393
0.000234996
0.000232225
0.000268371
0.000302056
0.000369512
0.000432058
0.000544531
0.000654533
0.000832253
0.00101299
0.00128343
0.00157236
0.00196661
0.002417
0.0029335
0.00359167
0.00400004
0.00478947
0.0036538
0.00381266
0.000242319
0.000235943
0.000276594
0.000308448
0.000382038
0.000441256
0.000564438
0.000669749
0.000866408
0.0010399
0.00134508
0.00162413
0.00208537
0.00252832
0.00318235
0.00385592
0.00453956
0.00539921
0.00455712
0.00496206
0.000247672
0.000238173
0.000282851
0.000312577
0.000391649
0.000447265
0.000580252
0.00068012
0.000894395
0.00105922
0.00139877
0.00166346
0.00219869
0.00261791
0.0034373
0.00409761
0.0051588
0.00602322
0.00579086
0.00626904
0.000250853
0.000239088
0.000287001
0.000314489
0.000397845
0.000450135
0.000591213
0.000685715
0.000914933
0.00107095
0.0014405
0.00169023
0.00229077
0.00268549
0.00368316
0.00429833
0.00586704
0.00668057
0.00757149
0.00775539
0.000251913
0.000238736
0.0002894
0.000314259
0.000401886
0.000450143
0.000598299
0.000686705
0.000929279
0.00107509
0.00147289
0.00170467
0.00237499
0.00273133
0.00391218
0.00446027
0.00663807
0.00736198
0.00988954
0.00928085
0.000249832
0.00023804
0.000287875
0.000311829
0.000399064
0.000447807
0.000596636
0.000684629
0.000929678
0.00107516
0.00147995
0.00171101
0.00240164
0.0027603
0.00403898
0.00457955
0.00733027
0.00795313
0.0140893
0.00428149
-8.09206e-06
-1.40491e-05
-1.89853e-05
-2.31212e-05
-2.70853e-05
-3.10712e-05
-3.50031e-05
-3.87718e-05
-4.22975e-05
-4.55243e-05
-1.23519e-05
-2.67651e-05
-4.01359e-05
-5.2822e-05
-6.53429e-05
-7.78316e-05
-9.01943e-05
-0.000102329
-0.000114194
-0.000125784
-1.88456e-05
-4.38733e-05
-6.74279e-05
-8.97552e-05
-0.000111638
-0.000133319
-0.00015467
-0.000175517
-0.000195751
-0.000215304
-2.62713e-05
-6.24808e-05
-9.67619e-05
-0.000129346
-0.000161262
-0.000192843
-0.000223921
-0.00025426
-0.000283712
-0.00031219
-3.42146e-05
-8.30467e-05
-0.000129701
-0.000174229
-0.000217792
-0.00026079
-0.00030302
-0.000344181
-0.00038407
-0.000422561
-4.2936e-05
-0.00010685
-0.000168327
-0.000227043
-0.000284314
-0.000340662
-0.00039587
-0.000449569
-0.000501493
-0.000551478
-5.32911e-05
-0.000136345
-0.000216169
-0.000291977
-0.000365574
-0.000437781
-0.000508366
-0.000576843
-0.000642859
-0.000706207
-6.70586e-05
-0.000175721
-0.000278862
-0.000375385
-0.000468487
-0.000559666
-0.000648637
-0.000734686
-0.000817327
-0.000896311
-8.7533e-05
-0.000231667
-0.000364977
-0.000486634
-0.000602996
-0.000716925
-0.000827983
-0.000935017
-0.00103732
-0.00113462
-0.000120438
-0.000314421
-0.000487118
-0.000639243
-0.000783269
-0.000924489
-0.00106212
-0.00119423
-0.00131978
-0.00143846
-0.000175523
-0.00043934
-0.00066341
-0.000852397
-0.00102928
-0.00120326
-0.00137287
-0.00153489
-0.00168778
-0.00183128
-0.000270139
-0.000630451
-0.000920606
-0.0011537
-0.00136939
-0.00158259
-0.00179054
-0.00198802
-0.0021728
-0.00234475
-0.000434161
-0.000926035
-0.0012995
-0.00158429
-0.00184534
-0.00210525
-0.00235889
-0.00259799
-0.0028194
-0.00302323
-0.000708759
-0.00137692
-0.00185381
-0.00219861
-0.00251243
-0.0028277
-0.00313545
-0.00342318
-0.00368646
-0.00392572
-0.00115337
-0.00205373
-0.00266143
-0.00307985
-0.00345745
-0.00383851
-0.00420899
-0.00455139
-0.00486037
-0.00513735
-0.00186931
-0.00306018
-0.00382463
-0.0043354
-0.00479879
-0.00526896
-0.00572259
-0.00613475
-0.0064981
-0.00681423
-0.00315752
-0.00467052
-0.00554879
-0.00609888
-0.00661284
-0.00715541
-0.00768681
-0.00816965
-0.00859352
-0.00896049
-0.00549208
-0.00764012
-0.00881263
-0.00945067
-0.0100096
-0.0106018
-0.0111766
-0.0116816
-0.0120985
-0.0124263
-0.00675874
-0.00914317
-0.0104783
-0.011401
-0.0123281
-0.0132892
-0.0142018
-0.0150258
-0.015764
-0.0164239
-0.0178772
-0.0190374
-0.0180744
-0.0174164
-0.0173939
-0.0176709
-0.0180231
-0.0183984
-0.0187978
-0.019167
-5.08974e-05
-5.91701e-05
-6.68783e-05
-7.31998e-05
-7.78798e-05
-8.0913e-05
-8.23513e-05
-8.22724e-05
-8.07587e-05
-7.79262e-05
-7.3877e-05
-6.8764e-05
-6.26796e-05
-5.58149e-05
-4.82078e-05
-4.01172e-05
-3.14577e-05
-2.26545e-05
-1.34017e-05
-4.58597e-06
-0.000146981
-0.000174108
-0.000197195
-0.000215951
-0.000230036
-0.000239336
-0.000243921
-0.000243994
-0.000239801
-0.000231672
-0.000219922
-0.00020498
-0.000187145
-0.000166944
-0.000144538
-0.000120639
-9.50706e-05
-6.90227e-05
-4.15503e-05
-1.5022e-05
-0.000250513
-0.000296331
-0.000335487
-0.000367204
-0.000390939
-0.000406516
-0.000414058
-0.000413921
-0.000406547
-0.000392522
-0.000372401
-0.000346923
-0.000316615
-0.000282363
-0.000244461
-0.00020409
-0.000160959
-0.000117029
-7.05993e-05
-2.56409e-05
-0.000363552
-0.00042997
-0.000486432
-0.000531876
-0.000565562
-0.00058731
-0.000597373
-0.000596332
-0.000584889
-0.000563945
-0.000534347
-0.000497188
-0.000453254
-0.000403822
-0.000349326
-0.000291439
-0.000229728
-0.000166967
-0.000100677
-3.65763e-05
-0.000491809
-0.000580896
-0.000656106
-0.000716053
-0.000759858
-0.000787419
-0.000799219
-0.000796161
-0.000779302
-0.000749935
-0.000709267
-0.000658806
-0.000599638
-0.000533473
-0.000460893
-0.000384088
-0.000302477
-0.00021967
-0.000132376
-4.80968e-05
-0.000641181
-0.000755684
-0.000851413
-0.000926719
-0.000980676
-0.00101339
-0.00102571
-0.001019
-0.000994797
-0.000954905
-0.000900981
-0.000835028
-0.000758487
-0.000673544
-0.000580953
-0.000483444
-0.000380266
-0.000275892
-0.000166141
-6.03497e-05
-0.000819517
-0.000962731
-0.00108097
-0.00117239
-0.00123618
-0.00127283
-0.00128376
-0.00127101
-0.00123676
-0.00118347
-0.00111338
-0.00102906
-0.000932398
-0.000826099
-0.000711103
-0.000590708
-0.000463958
-0.000336208
-0.000202286
-7.34451e-05
-0.00103701
-0.0012127
-0.00135546
-0.00146341
-0.00153604
-0.00157454
-0.00158119
-0.00155898
-0.00151095
-0.00144043
-0.00135035
-0.00124401
-0.00112379
-0.000992967
-0.000852694
-0.000706843
-0.000554208
-0.000401033
-0.000241039
-8.74634e-05
-0.00130711
-0.00151931
-0.00168833
-0.00181244
-0.00189183
-0.00192877
-0.00192686
-0.00189035
-0.00182349
-0.00173066
-0.00161571
-0.00148276
-0.00133475
-0.00117562
-0.00100671
-0.00083247
-0.000651379
-0.000470561
-0.000282488
-0.00010243
-0.00164764
-0.00190034
-0.00209659
-0.00223516
-0.00231745
-0.00234749
-0.00233073
-0.00227322
-0.00218075
-0.00205903
-0.00191299
-0.00174774
-0.00156686
-0.00137497
-0.00117358
-0.00096771
-0.000755416
-0.000544672
-0.000326524
-0.000118298
-0.00208238
-0.002379
-0.00260192
-0.00275094
-0.00282955
-0.00284447
-0.00280386
-0.00271616
-0.00258911
-0.00243004
-0.00224515
-0.00204067
-0.00182087
-0.0015911
-0.00135295
-0.00111198
-0.000865664
-0.000622792
-0.000372752
-0.000134939
-0.0026431
-0.00298565
-0.00323199
-0.00338383
-0.00344808
-0.00343557
-0.00335832
-0.00322795
-0.00305457
-0.00284744
-0.00261416
-0.00236214
-0.00209642
-0.00182298
-0.00154343
-0.00126375
-0.000980675
-0.000703763
-0.000420388
-0.000152137
-0.00337305
-0.00376037
-0.00402219
-0.00416347
-0.00419667
-0.00413879
-0.00400715
-0.00381734
-0.00358237
-0.00331368
-0.0030204
-0.00271115
-0.00239152
-0.0020681
-0.00174225
-0.00142037
-0.00109807
-0.000785779
-0.000468225
-0.000169691
-0.0043303
-0.00475572
-0.00501669
-0.00512461
-0.00510128
-0.00497277
-0.00476304
-0.0044921
-0.0041761
-0.00382902
-0.00346176
-0.003084
-0.00270158
-0.00232144
-0.00194442
-0.00157729
-0.00121398
-0.000866014
-0.000514445
-0.000187532
-0.00559969
-0.00604758
-0.00627678
-0.0063121
-0.00619207
-0.00595659
-0.00563734
-0.00525804
-0.00483738
-0.00439162
-0.0039335
-0.00347394
-0.00301874
-0.00257463
-0.00214147
-0.00172643
-0.00132138
-0.00093904
-0.000555399
-0.000204805
-0.00732007
-0.00775539
-0.00789932
-0.00779707
-0.00751561
-0.00711626
-0.00664105
-0.00611758
-0.00556503
-0.00499845
-0.00443091
-0.00387515
-0.00333703
-0.00282217
-0.00232873
-0.00186316
-0.00141523
-0.00100007
-0.000587976
-0.000220463
-0.00954863
-0.00993026
-0.0099131
-0.00959274
-0.00907733
-0.00844756
-0.00775509
-0.00703514
-0.00631336
-0.00560367
-0.00491381
-0.00425226
-0.00362413
-0.00303479
-0.00248097
-0.00196702
-0.00148139
-0.00103824
-0.000605678
-0.000228975
-0.0128716
-0.0128261
-0.0123732
-0.0116893
-0.0108623
-0.00994569
-0.00898245
-0.00801566
-0.00707569
-0.006184
-0.00535036
-0.00457641
-0.00385977
-0.00319968
-0.00259068
-0.00203321
-0.00151636
-0.00104874
-0.000605324
-0.000220548
-0.0173207
-0.0165302
-0.0151866
-0.0137858
-0.0124386
-0.0111381
-0.00988711
-0.00870107
-0.00759466
-0.00657415
-0.00563845
-0.00478346
-0.00400339
-0.00329335
-0.00264636
-0.00205852
-0.0015214
-0.00103453
-0.000589142
-0.000188091
-0.0190432
-0.0185114
-0.0173001
-0.0155616
-0.0138123
-0.0121648
-0.0106446
-0.00925675
-0.00799935
-0.00686512
-0.00584389
-0.00492502
-0.00409783
-0.0033528
-0.00268032
-0.00207269
-0.00152236
-0.0010206
-0.000574162
-0.000136239
-0.025224
-0.0191577
-0.0174578
-0.0154459
-0.013706
-0.0120812
-0.0105878
-0.00922015
-0.00797566
-0.00684824
-0.00582981
-0.00491152
-0.00408383
-0.00333776
-0.00266453
-0.00205468
-0.00150662
-0.000992395
-0.000571725
-4.85507e-05
-0.0230484
-0.0191396
-0.0175646
-0.0154987
-0.0137486
-0.0121045
-0.0106031
-0.00923073
-0.00798337
-0.0068537
-0.00583335
-0.00491338
-0.00408425
-0.00333688
-0.00266285
-0.00205152
-0.00150438
-0.000984578
-0.000574603
-1.89783e-05
-0.0218143
-0.0190706
-0.0175836
-0.0155402
-0.0137963
-0.0121383
-0.0106282
-0.00924899
-0.00799684
-0.00686358
-0.00584046
-0.00491826
-0.0040874
-0.00333856
-0.00266356
-0.00205087
-0.0015041
-0.000980638
-0.000576602
-1.43209e-06
-0.0209785
-0.0189641
-0.0175151
-0.0155512
-0.0138159
-0.0121545
-0.0106416
-0.00925895
-0.00800423
-0.00686896
-0.00584428
-0.00492081
-0.00408894
-0.00333921
-0.00266366
-0.00205013
-0.00150365
-0.000977835
-0.000577717
1.03565e-05
-0.0204534
-0.0188589
-0.0174504
-0.0155437
-0.0138181
-0.0121599
-0.0106461
-0.00926222
-0.00800646
-0.00687039
-0.00584509
-0.00492112
-0.00408886
-0.00333877
-0.00266302
-0.00204912
-0.00150288
-0.00097585
-0.000578096
1.72905e-05
-0.0202881
-0.0188153
-0.017421
-0.015536
-0.0138158
-0.0121599
-0.010646
-0.00926165
-0.00800556
-0.00686933
-0.00584397
-0.00492
-0.00408774
-0.00333767
-0.00266194
-0.00204806
-0.00150192
-0.000974854
-0.000577601
1.88583e-05
-0.0204864
-0.0188501
-0.0174272
-0.0155341
-0.0138117
-0.012156
-0.0106419
-0.00925764
-0.00800181
-0.00686598
-0.00584106
-0.00491752
-0.00408564
-0.00333592
-0.00266043
-0.00204695
-0.00150076
-0.000974857
-0.000576183
1.49563e-05
-0.0210031
-0.0189277
-0.0174588
-0.0155318
-0.013802
-0.0121461
-0.010632
-0.0092489
-0.00799426
-0.00685965
-0.00583586
-0.00491333
-0.00408228
-0.00333332
-0.00265834
-0.00204567
-0.00149932
-0.000975745
-0.000573985
5.90929e-06
-0.0218595
-0.0189928
-0.0174724
-0.0155209
-0.0137795
-0.0121266
-0.0106144
-0.00923404
-0.00798197
-0.00684971
-0.00582795
-0.00490715
-0.00407751
-0.0033298
-0.00265564
-0.00204426
-0.00149767
-0.000977706
-0.000570891
-9.00355e-06
-0.0231769
-0.0190635
-0.0174392
-0.0155013
-0.013747
-0.0120992
-0.0105907
-0.00921479
-0.00796661
-0.00683771
-0.00581877
-0.00490031
-0.00407255
-0.00332649
-0.00265342
-0.00204377
-0.00149659
-0.000982342
-0.00056587
-3.51635e-05
-0.0220013
-0.0193993
-0.0174097
-0.0154709
-0.0136842
-0.0120425
-0.0105427
-0.00917696
-0.00793754
-0.00681601
-0.00580315
-0.00488965
-0.00406589
-0.00332319
-0.00265248
-0.00204617
-0.00149811
-0.000995324
-0.000558308
-9.71352e-05
-0.0200672
-0.0181745
-0.0165183
-0.014888
-0.0132734
-0.0117367
-0.0103111
-0.00900151
-0.00780477
-0.00671615
-0.00572887
-0.00483545
-0.00402732
-0.00329716
-0.00263603
-0.00203839
-0.0014959
-0.00100345
-0.000564031
-0.000145601
-0.017794
-0.0166435
-0.015327
-0.0139475
-0.0125534
-0.0111903
-0.00989489
-0.00868521
-0.00756555
-0.00653717
-0.00559681
-0.00473999
-0.00396014
-0.00325236
-0.00260825
-0.00202513
-0.00149248
-0.00101291
-0.000574072
-0.00018303
-0.0149914
-0.0144724
-0.0136132
-0.0125971
-0.0115046
-0.010387
-0.00928238
-0.0082164
-0.007206
-0.0062642
-0.0053921
-0.00458944
-0.00385232
-0.00317868
-0.00256086
-0.00199968
-0.0014819
-0.00101857
-0.000581229
-0.000210095
-0.0124178
-0.0123007
-0.0118146
-0.0111187
-0.0103037
-0.00942127
-0.00851163
-0.00760888
-0.0067371
-0.00590425
-0.00511688
-0.00438237
-0.00369992
-0.00307036
-0.00248731
-0.00195504
-0.00145775
-0.00101347
-0.000581879
-0.000224527
-0.0102483
-0.010363
-0.0101371
-0.00968691
-0.00909679
-0.00841893
-0.00769115
-0.00694455
-0.0062015
-0.00547774
-0.00478453
-0.00412765
-0.00350793
-0.00292889
-0.00238682
-0.00188847
-0.0014168
-0.000993778
-0.000574021
-0.000226362
-0.00848019
-0.00871796
-0.00866307
-0.00839212
-0.00797516
-0.00746097
-0.00688414
-0.00627253
-0.00564805
-0.0050278
-0.00442232
-0.0038398
-0.00328314
-0.00275957
-0.0022626
-0.00180113
-0.00135912
-0.000959291
-0.000557325
-0.000218713
-0.00704648
-0.00734445
-0.00739577
-0.00725073
-0.00696368
-0.00657723
-0.00612234
-0.00562398
-0.00510235
-0.00457382
-0.00404911
-0.00353757
-0.00304282
-0.00257155
-0.00211953
-0.00169591
-0.00128637
-0.000911905
-0.000532718
-0.000205609
-0.00587146
-0.00619277
-0.00630757
-0.00624928
-0.00605871
-0.0057714
-0.00541456
-0.00501026
-0.00457641
-0.00412819
-0.0036761
-0.00322956
-0.00279241
-0.00237142
-0.00196389
-0.00157844
-0.0012027
-0.000855
-0.000501783
-0.000190184
-0.00489604
-0.0052179
-0.00536762
-0.00536768
-0.00524821
-0.00503786
-0.00475987
-0.00443346
-0.00407433
-0.00369616
-0.00330881
-0.00292126
-0.00253756
-0.00216433
-0.00179988
-0.00145205
-0.00111058
-0.000791144
-0.000466041
-0.000174079
-0.00407764
-0.00438555
-0.00455067
-0.00458819
-0.00452015
-0.00436908
-0.00415434
-0.00389236
-0.00359676
-0.00327962
-0.00294989
-0.00261588
-0.0022817
-0.00195355
-0.0016305
-0.00131956
-0.00101241
-0.000722473
-0.000426825
-0.000157935
-0.00338463
-0.00366937
-0.00383638
-0.00389589
-0.00386389
-0.00375785
-0.00359353
-0.00338475
-0.00314312
-0.00287912
-0.00260068
-0.00231532
-0.00202695
-0.0017413
-0.00145791
-0.00118311
-0.000910097
-0.000650496
-0.000385145
-0.000141816
-0.00279235
-0.00304822
-0.00320778
-0.00327783
-0.00326994
-0.00319747
-0.00307304
-0.00290806
-0.00271226
-0.00249455
-0.00226182
-0.00202068
-0.00177475
-0.00152915
-0.00128378
-0.00104426
-0.000805051
-0.00057627
-0.000341758
-0.000125611
-0.00228091
-0.00250455
-0.00265028
-0.00272251
-0.00272957
-0.00268159
-0.00258849
-0.00245951
-0.00230266
-0.00212537
-0.00193345
-0.00173261
-0.00152604
-0.00131824
-0.00110932
-0.000904199
-0.000698344
-0.000500568
-0.000297232
-0.000109227
-0.00183391
-0.00202354
-0.00215114
-0.00221952
-0.00223463
-0.00220404
-0.00213542
-0.00203607
-0.00191244
-0.00177057
-0.00161527
-0.00145129
-0.00128136
-0.00110932
-0.000935371
-0.00076375
-0.000590763
-0.000423958
-0.00025198
-9.26294e-05
-0.00143769
-0.00159253
-0.00169919
-0.00175945
-0.00177749
-0.00175885
-0.0017093
-0.00163448
-0.0015394
-0.00142883
-0.0013066
-0.00117654
-0.00104088
-0.000902797
-0.000762483
-0.000623485
-0.000482859
-0.000346861
-0.000206308
-7.58383e-05
-0.0010808
-0.00120064
-0.00128458
-0.00133374
-0.00135096
-0.00134018
-0.00130557
-0.00125128
-0.00118104
-0.00109845
-0.00100639
-0.00090782
-0.000804439
-0.000698741
-0.000590897
-0.000483712
-0.00037495
-0.000269539
-0.000160417
-5.89301e-05
-0.000753516
-0.000838557
-0.000898729
-0.000934767
-0.000948521
-0.000942604
-0.000919833
-0.000883037
-0.000834776
-0.000777552
-0.000713372
-0.000644317
-0.000571588
-0.000496977
-0.000420598
-0.000344503
-0.000267109
-0.000192024
-0.000114295
-4.19769e-05
-0.000446443
-0.000497731
-0.00053407
-0.00055604
-0.00056469
-0.000561608
-0.000548469
-0.000526931
-0.000498487
-0.000464618
-0.000426497
-0.000385384
-0.000341967
-0.000297358
-0.000251572
-0.000205914
-0.000159364
-0.000114249
-6.76301e-05
-2.47042e-05
-0.000154392
-0.000169817
-0.000182021
-0.000189319
-0.00019194
-0.00019055
-0.000185767
-0.000178167
-0.000168255
-0.000156545
-0.000143424
-0.000129339
-0.000114496
-9.93094e-05
-8.37212e-05
-6.82278e-05
-5.23701e-05
-3.70598e-05
-2.11897e-05
-6.98229e-06
-0.0202481
-0.0222369
-0.0225218
-0.0228868
-0.0233529
-0.0236741
-0.0237952
-0.0237689
-0.0236751
-0.0234871
-0.0147319
-0.0175
-0.0187526
-0.0194786
-0.0200971
-0.0205874
-0.0208873
-0.0210021
-0.0209611
-0.0207824
-0.0108201
-0.0135584
-0.0150019
-0.015803
-0.0164755
-0.0170943
-0.0175844
-0.0179044
-0.0180583
-0.0180632
-0.00787098
-0.010202
-0.0114745
-0.0122113
-0.0128551
-0.0134819
-0.0140241
-0.0144352
-0.0147136
-0.0148744
-0.00575916
-0.00768823
-0.00875807
-0.00940632
-0.00999362
-0.0105797
-0.0111083
-0.0115396
-0.0118706
-0.0121116
-0.00427757
-0.00586819
-0.00676724
-0.00733017
-0.00785013
-0.00837478
-0.00885835
-0.00926879
-0.00960289
-0.00986792
-0.00321209
-0.00452187
-0.00528273
-0.00577283
-0.00622913
-0.00669149
-0.00712364
-0.00749979
-0.00781684
-0.00808009
-0.00243194
-0.00350966
-0.00415696
-0.00458516
-0.00498457
-0.0053895
-0.00577178
-0.00611064
-0.00640311
-0.00665302
-0.00185481
-0.00273902
-0.00328948
-0.00366323
-0.00401172
-0.00436454
-0.00470015
-0.0050019
-0.00526702
-0.00549823
-0.00142444
-0.0021462
-0.00261212
-0.00293697
-0.00323973
-0.00354547
-0.00383797
-0.00410397
-0.00434099
-0.00455091
-0.0011015
-0.00168701
-0.00207864
-0.0023591
-0.00262055
-0.00288373
-0.00313656
-0.00336862
-0.00357775
-0.00376521
-0.000857332
-0.00132892
-0.00165526
-0.00189523
-0.00211916
-0.00234381
-0.00256025
-0.00276041
-0.00294244
-0.00310718
-0.000670372
-0.00104689
-0.00131601
-0.00151903
-0.00170881
-0.00189852
-0.00208166
-0.00225207
-0.0024082
-0.0025506
-0.000524505
-0.000821748
-0.0010408
-0.00121012
-0.0013687
-0.00152668
-0.00167938
-0.00182216
-0.00195378
-0.00207455
-0.000407963
-0.000639002
-0.000814169
-0.000952637
-0.00108259
-0.00121162
-0.00133641
-0.00145354
-0.00156205
-0.0016621
-0.000312225
-0.000487689
-0.000624164
-0.000734197
-0.000837642
-0.000940031
-0.00103908
-0.00113234
-0.00121906
-0.00129933
-0.000231063
-0.000359364
-0.000461391
-0.000545013
-0.000623709
-0.000701362
-0.000776466
-0.000847329
-0.000913408
-0.000974744
-0.000160119
-0.000247244
-0.000317863
-0.000376643
-0.000432043
-0.000486556
-0.000539246
-0.000589035
-0.000635556
-0.00067881
-9.7521e-05
-0.000147581
-0.000188462
-0.000222761
-0.000255189
-0.000287148
-0.000318085
-0.000347375
-0.000374863
-0.000400678
-3.92315e-05
-5.93224e-05
-7.46868e-05
-8.63745e-05
-9.71674e-05
-0.00010789
-0.000118248
-0.000127862
-0.00013647
-0.000143846
0.000228198
0.000216343
0.000268405
0.000282475
0.0003722
0.000407729
0.000559418
0.000627727
0.000877555
0.000994942
0.00141102
0.00160287
0.00232263
0.00262414
0.00397209
0.00442024
0.00737268
0.0078834
0.01565
0.00684159
0.000222164
0.000209511
0.000261062
0.000274577
0.00036214
0.000396599
0.000544596
0.000611446
0.000854808
0.000970723
0.00137495
0.00156658
0.00226088
0.00256705
0.00383994
0.00430731
0.00689933
0.00741262
0.0119619
0.00645238
0.000215079
0.000202053
0.000252844
0.000265603
0.000350881
0.000383944
0.000527849
0.000592844
0.000828706
0.000942863
0.00133257
0.00152433
0.00218595
0.0024991
0.00367615
0.00416765
0.00634113
0.00689144
0.0092009
0.00712354
0.000207151
0.000194113
0.00024359
0.000255855
0.000338144
0.000370205
0.000508743
0.000572552
0.000798612
0.000912252
0.00128301
0.00147733
0.00209713
0.00242186
0.00348277
0.00400668
0.00574542
0.00637921
0.00726919
0.00713095
0.000198461
0.000185655
0.000233382
0.00024531
0.000324037
0.000355332
0.000487456
0.000550463
0.000764854
0.000878658
0.001227
0.00142509
0.0019965
0.00233472
0.00326914
0.00382817
0.00516808
0.00590485
0.00588707
0.00654493
0.000189054
0.000176665
0.000222295
0.000233959
0.000308667
0.00033929
0.000464176
0.000526504
0.000727792
0.000841936
0.00116537
0.00136743
0.00188648
0.00223799
0.00304454
0.00363574
0.00463443
0.0054706
0.00482381
0.00571768
0.000178977
0.000167156
0.000210387
0.000221821
0.00029212
0.000322092
0.000439063
0.000500678
0.000687761
0.000802085
0.00109891
0.00130441
0.00176934
0.00213229
0.00281645
0.00343138
0.00414944
0.00504891
0.00397494
0.0048581
0.000168278
0.000157143
0.000197717
0.000208922
0.000274487
0.000303766
0.00041229
0.000473013
0.000645111
0.000759139
0.00102842
0.00123612
0.00164713
0.00201784
0.00258942
0.00321694
0.00370708
0.00462378
0.00328494
0.00405348
0.000157001
0.000146643
0.000184349
0.000195293
0.00025587
0.00028434
0.000384039
0.00044354
0.000600199
0.000713124
0.00095465
0.00116258
0.00152143
0.00189457
0.00236506
0.00299315
0.00329874
0.00419534
0.00272184
0.00333724
0.000145189
0.000135675
0.000170347
0.000180963
0.000236368
0.000263848
0.000354486
0.000412292
0.000553351
0.000664064
0.000878214
0.00108375
0.00139336
0.00176269
0.00214388
0.00275999
0.00291918
0.00376987
0.00226188
0.00271737
0.000132887
0.000124261
0.000155777
0.00016597
0.000216081
0.000242328
0.0003238
0.000379314
0.000504858
0.000611996
0.000799627
0.000999654
0.00126355
0.0016226
0.001926
0.0025182
0.00256533
0.00335326
0.00188433
0.0021904
0.000120135
0.000112425
0.000140702
0.000150352
0.000195103
0.000219828
0.000292132
0.000344663
0.000454978
0.00055699
0.000719304
0.000910453
0.00113246
0.0014748
0.0017115
0.00226924
0.00223479
0.00294906
0.00157092
0.00174743
0.000106979
0.000100195
0.000125175
0.000134153
0.000173522
0.000196404
0.000259625
0.00030842
0.000403937
0.000499162
0.000637573
0.000816408
0.00100046
0.00131988
0.0015004
0.00201456
0.00192507
0.00255898
0.00130636
0.00137814
9.3461e-05
8.76074e-05
0.000109264
0.000117422
0.000151422
0.000172124
0.000226408
0.000270686
0.000351937
0.000438685
0.000554705
0.000717872
0.000867867
0.00115853
0.00129268
0.0017554
0.00163353
0.00218344
0.0010784
0.00107236
7.96277e-05
7.46985e-05
9.30219e-05
0.000100214
0.000128884
0.000147071
0.000192598
0.000231593
0.000299153
0.000375786
0.000470933
0.000615257
0.000734917
0.000991465
0.00108817
0.00149266
0.00135745
0.00182196
0.000877489
0.00082026
6.55252e-05
6.15099e-05
7.65024e-05
8.25923e-05
0.000105981
0.000121337
0.000158303
0.000191296
0.000245735
0.000310738
0.000386452
0.000509029
0.000601778
0.000819368
0.000886574
0.00122696
0.00109415
0.0014733
0.000696203
0.000612455
5.12011e-05
4.80868e-05
5.97577e-05
6.4624e-05
8.27858e-05
9.50317e-05
0.000123624
0.000149982
0.000191821
0.000243867
0.00030143
0.000399716
0.000468562
0.000642952
0.000687485
0.000958734
0.000841078
0.00113562
0.000528814
0.000439998
3.67034e-05
3.44779e-05
4.28417e-05
4.6384e-05
5.93755e-05
6.8279e-05
8.86701e-05
0.000107868
0.000137562
0.00017555
0.000216059
0.00028792
0.000335416
0.000462983
0.00049055
0.000688276
0.00059602
0.000806611
0.000371116
0.000294298
2.20776e-05
2.07369e-05
2.58067e-05
2.79487e-05
3.58092e-05
4.12007e-05
5.35239e-05
6.51618e-05
8.30773e-05
0.000106138
0.000130495
0.000174186
0.000202457
0.000280097
0.000295453
0.00041559
0.000357107
0.000483361
0.000220378
0.000167552
7.36582e-06
6.92726e-06
8.65282e-06
9.36892e-06
1.20384e-05
1.384e-05
1.80514e-05
2.19134e-05
2.80928e-05
3.57104e-05
4.42227e-05
5.86139e-05
6.87138e-05
9.42307e-05
0.000100289
0.000139609
0.000120847
0.000161514
7.3902e-05
5.3488e-05
0.00024781
0.000234949
0.000289344
0.000306382
0.000400969
0.000440317
0.000599569
0.000673944
0.000935301
0.00106005
0.00149277
0.00169114
0.00243599
0.00273904
0.00413712
0.00456897
0.0077033
0.00822297
0.0184023
0.0153038
0.000246598
0.000233905
0.000288477
0.000304544
0.00039979
0.000437883
0.000598344
0.000670571
0.00093409
0.00105553
0.00149247
0.00168569
0.00243971
0.00273411
0.00415514
0.00457429
0.00781979
0.00835995
0.0193757
0.0188676
0.000245193
0.000232902
0.000287271
0.000302913
0.000398055
0.000435773
0.000596111
0.000667693
0.000931232
0.00105176
0.00148942
0.00168135
0.00243852
0.00273051
0.00416503
0.00457904
0.00789878
0.00848225
0.0200274
0.0213245
0.000243688
0.000231677
0.000285926
0.000301091
0.000396164
0.000433372
0.000593584
0.000664368
0.000927857
0.00104729
0.0014854
0.00167581
0.00243534
0.00272476
0.00416943
0.00457857
0.00795075
0.00856405
0.0204633
0.0228998
0.000242082
0.000230221
0.000284408
0.000299059
0.000394063
0.000430645
0.000590733
0.000660543
0.000923935
0.00104201
0.00148037
0.00166893
0.00243001
0.00271665
0.00416757
0.00457238
0.00797434
0.00860093
0.0206754
0.0236337
0.000240362
0.000228562
0.000282696
0.000296851
0.000391706
0.000427648
0.000587481
0.000656305
0.000919349
0.00103607
0.00147415
0.00166094
0.00242219
0.00270646
0.004159
0.00456071
0.00796815
0.00859154
0.0206599
0.0235353
0.000238528
0.000226704
0.000280796
0.000294471
0.000389099
0.000424387
0.000583831
0.000651661
0.000914098
0.00102947
0.00146673
0.00165184
0.00241189
0.00269421
0.00414377
0.00454352
0.00793225
0.00853626
0.0204189
0.0226048
0.000236586
0.000224631
0.000278732
0.000291899
0.000386271
0.000420831
0.000579828
0.000646561
0.000908252
0.00102214
0.00145821
0.0016415
0.0023993
0.00267968
0.00412225
0.00452053
0.00786773
0.00843704
0.0199542
0.0208274
0.000234546
0.000222354
0.000276492
0.000289155
0.000383201
0.000417012
0.000575437
0.000641059
0.000901751
0.00101416
0.0014485
0.00163008
0.00238424
0.00266315
0.00409412
0.00449248
0.00777456
0.00830004
0.0192555
0.0181421
0.000232356
0.000220039
0.000273848
0.00028649
0.000379582
0.000413302
0.000570196
0.000635718
0.000893883
0.00100643
0.00143645
0.00161904
0.00236475
0.00264722
0.00405591
0.0044643
0.00764671
0.00814492
0.0182223
0.0144022
)
;

boundaryField
{
    inlet
    {
        type            zeroGradient;
    }
    outlet
    {
        type            fixedValue;
        value           uniform 0;
    }
    upAndBottom
    {
        type            empty;
    }
    obstacle
    {
        type            zeroGradient;
    }
}


// ************************************************************************* //
