x,y,z,U_0,U_1,U_2
0,0,0,0.3,-0.00051048,0
0,0.1,0,0.3,-0.000306288,0
0,0.2,0,0.3,-0.000102096,0
0,0.3,0,0.3,0,0
0,0.4,0,0.3,0,0
0,0.5,0,0.3,0,0
0,0.6,0,0.3,0,0
0,0.7,0,0.3,0,0
0,0.8,0,0.3,0,0
0,0.9,0,0.3,0,0
0,1,0,0.3,0,0
0,1.1,0,0.3,0,0
0,1.2,0,0.3,0,0
0,1.3,0,0.3,0,0
0,1.4,0,0.3,0,0
0,1.5,0,0.3,0,0
0,1.6,0,0.3,0,0
0,1.7,0,0.3,0,0
0,1.8,0,0.3,0,0
0,1.9,0,0.3,0,0
0,2,0,0.3,0,0
0,2.1,0,0.3,0,0
0,2.2,0,0.3,0,0
0,2.3,0,0.3,0,0
0,2.4,0,0.3,0,0
0,2.5,0,0.3,0,0
0,2.6,0,0.3,0,0
0,2.7,0,0.3,0,0
0,2.8,0,0.3,0,0
0,2.9,0,0.3,0,0
0,3,0,0.3,0,0
0,3.1,0,0.3,0,0
0,3.2,0,0.3,0,0
0,3.3,0,0.3,0,0
0,3.4,0,0.3,0,0
0,3.5,0,0.3,0,0
0,3.6,0,0.3,0,0
0,3.7,0,0.3,0,0
0,3.8,0,0.3,0,0
0,3.9,0,0.3,0,0
0,4,0,0.3,0,0
0,4.1,0,0.3,0,0
0,4.2,0,0.3,0,0
0,4.3,0,0.3,0,0
0,4.4,0,0.3,0,0
0,4.5,0,0.3,0,0
0,4.6,0,0.3,0,0
0,4.7,0,0.3,0,0
0,4.8,0,0.3,0,0
0,4.9,0,0.3,0,0
0,5,0,0.3,0,0
0,5.1,0,0.3,0,0
0,5.2,0,0.3,0,0
0,5.3,0,0.3,0,0
0,5.4,0,0.3,0,0
0,5.5,0,0.3,0,0
0,5.6,0,0.3,0,0
0,5.7,0,0.3,0,0
0,5.8,0,0.3,0,0
0,5.9,0,0.3,0,0
0,6,0,0.3,0,0
0,6.1,0,0.3,0,0
0,6.2,0,0.3,0,0
0,6.3,0,0.3,0,0
0,6.4,0,0.3,0,0
0,6.5,0,0.3,0,0
0,6.6,0,0.3,0,0
0,6.7,0,0.3,0,0
0,6.8,0,0.3,0,0
0,6.9,0,0.3,0,0
0,7,0,0.3,0,0
0,7.1,0,0.3,0,0
0,7.2,0,0.3,0,0
0,7.3,0,0.3,0,0
0,7.4,0,0.3,0,0
0,7.5,0,0.3,0,0
0,7.6,0,0.3,0,0
0,7.7,0,0.3,0,0
0,7.8,0,0.3,0,0
0,7.9,0,0.3,0,0
0,8,0,0.3,0,0
0,8.1,0,0.3,0,0
0,8.2,0,0.3,0,0
0,8.3,0,0.3,0,0
0,8.4,0,0.3,0,0
0,8.5,0,0.3,0,0
0,8.6,0,0.3,0,0
0,8.7,0,0.3,0,0
0,8.8,0,0.3,0,0
0,8.9,0,0.3,0,0
0,9,0,0.3,0,0
0,9.1,0,0.3,0,0
0,9.2,0,0.3,0,0
0,9.3,0,0.3,0,0
0,9.4,0,0.3,0,0
0,9.5,0,0.3,0,0
0,9.6,0,0.3,0,0
0,9.7,0,0.3,0,0
0,9.8,0,0.3,0,0
0,9.9,0,0.3,0,0
0,10,0,0.3,0,0
0,10.1,0,0.3,0,0
0,10.2,0,0.3,0,0
0,10.3,0,0.3,0,0
0,10.4,0,0.3,0,0
0,10.5,0,0.3,0,0
0,10.6,0,0.3,0,0
0,10.7,0,0.3,0,0
0,10.8,0,0.3,0,0
0,10.9,0,0.3,0,0
0,11,0,0.3,0,0
0,11.1,0,0.3,0,0
0,11.2,0,0.3,0,0
0,11.3,0,0.3,0,0
0,11.4,0,0.3,0,0
0,11.5,0,0.3,0,0
0,11.6,0,0.3,0,0
0,11.7,0,0.3,0,0
0,11.8,0,0.3,0,0
0,11.9,0,0.3,0,0
0,12,0,0.3,0,0
0,12.1,0,0.3,0,0
0,12.2,0,0.3,0,0
0,12.3,0,0.3,0,0
0,12.4,0,0.3,3.46533e-05,0
0,12.5,0,0.3,0.000133663,0
0,12.6,0,0.3,0.000232672,0
0,12.7,0,0.3,0.000331682,0
0.1,0,0,0.3,-0.0011228,0
0.1,0.1,0,0.3,-0.000918864,0
0.1,0.2,0,0.3,-0.000817028,0
0.1,0.3,0,0.3,-0.000817784,0
0.1,0.4,0,0.3,-0.00081828,0
0.1,0.5,0,0.300002,-0.000819522,0
0.1,0.6,0,0.3,-0.000821128,0
0.1,0.7,0,0.300001,-0.000822043,0
0.1,0.8,0,0.300001,-0.000823983,0
0.1,0.9,0,0.300001,-0.000825008,0
0.1,1,0,0.300003,-0.000827212,0
0.1,1.1,0,0.300001,-0.000829448,0
0.1,1.2,0,0.300002,-0.000830607,0
0.1,1.3,0,0.300002,-0.000832819,0
0.1,1.4,0,0.300001,-0.000833872,0
0.1,1.5,0,0.300002,-0.000835969,0
0.1,1.6,0,0.3,-0.00083756,0
0.1,1.7,0,0.300001,-0.000838288,0
0.1,1.8,0,0.300001,-0.000839316,0
0.1,1.9,0,0.3,-0.000839616,0
0.1,2,0,0.3,-0.000839955,0
0.1,2.1,0,0.3,-0.000839024,0
0.1,2.2,0,0.299999,-0.000838354,0
0.1,2.3,0,0.299999,-0.00083615,0
0.1,2.4,0,0.299999,-0.000834616,0
0.1,2.5,0,0.299995,-0.000830977,0
0.1,2.6,0,0.299998,-0.000825112,0
0.1,2.7,0,0.299995,-0.000821811,0
0.1,2.8,0,0.299995,-0.000813835,0
0.1,2.9,0,0.299998,-0.00080916,0
0.1,3,0,0.299987,-0.000798921,0
0.1,3.1,0,0.299997,-0.000785422,0
0.1,3.2,0,0.29999,-0.000778146,0
0.1,3.3,0,0.299989,-0.000761738,0
0.1,3.4,0,0.299996,-0.000752606,0
0.1,3.5,0,0.299977,-0.000733138,0
0.1,3.6,0,0.299995,-0.000709614,0
0.1,3.7,0,0.299983,-0.000697182,0
0.1,3.8,0,0.299982,-0.000670196,0
0.1,3.9,0,0.299994,-0.000655642,0
0.1,4,0,0.299965,-0.0006251,0
0.1,4.1,0,0.299993,-0.000590316,0
0.1,4.2,0,0.299976,-0.000572186,0
0.1,4.3,0,0.299975,-0.000533936,0
0.1,4.4,0,0.299992,-0.000513815,0
0.1,4.5,0,0.299953,-0.000472123,0
0.1,4.6,0,0.29999,-0.00042717,0
0.1,4.7,0,0.299969,-0.000403961,0
0.1,4.8,0,0.299969,-0.000356821,0
0.1,4.9,0,0.29999,-0.00033289,0
0.1,5,0,0.299945,-0.000296839,0
0.1,5.1,0,0.299944,-0.000240408,0
0.1,5.2,0,0.299943,-0.000197734,0
0.1,5.3,0,0.299943,-0.000154523,0
0.1,5.4,0,0.299943,-0.000111003,0
0.1,5.5,0,0.299943,-6.73234e-05,0
0.1,5.6,0,0.299943,-2.36591e-05,0
0.1,5.7,0,0.299943,1.98194e-05,0
0.1,5.8,0,0.299943,6.29783e-05,0
0.1,5.9,0,0.299944,0.000105564,0
0.1,6,0,0.299945,0.000169512,0
0.1,6.1,0,0.299978,0.00020275,0
0.1,6.2,0,0.29999,0.000214051,0
0.1,6.3,0,0.29996,0.000259823,0
0.1,6.4,0,0.29997,0.000305043,0
0.1,6.5,0,0.299991,0.000335868,0
0.1,6.6,0,0.299975,0.000361939,0
0.1,6.7,0,0.299965,0.000401782,0
0.1,6.8,0,0.299992,0.000439544,0
0.1,6.9,0,0.299987,0.0004507,0
0.1,7,0,0.299966,0.00048396,0
0.1,7.1,0,0.299986,0.000514044,0
0.1,7.2,0,0.299994,0.000525712,0
0.1,7.3,0,0.29998,0.000549593,0
0.1,7.4,0,0.299984,0.000573013,0
0.1,7.5,0,0.299996,0.000589363,0
0.1,7.6,0,0.29999,0.00059991,0
0.1,7.7,0,0.299985,0.000617028,0
0.1,7.8,0,0.299997,0.000631876,0
0.1,7.9,0,0.299996,0.000635885,0
0.1,8,0,0.29999,0.000647024,0
0.1,8.1,0,0.299996,0.000655826,0
0.1,8.2,0,0.299998,0.000659585,0
0.1,8.3,0,0.299996,0.000664449,0
0.1,8.4,0,0.299997,0.000668758,0
0.1,8.5,0,0.3,0.000671414,0
0.1,8.6,0,0.3,0.00067193,0
0.1,8.7,0,0.3,0.000672562,0
0.1,8.8,0,0.300001,0.000671902,0
0.1,8.9,0,0.300001,0.000671349,0
0.1,9,0,0.300003,0.000668927,0
0.1,9.1,0,0.300002,0.000665512,0
0.1,9.2,0,0.300001,0.000663753,0
0.1,9.3,0,0.300004,0.000659746,0
0.1,9.4,0,0.300004,0.000654585,0
0.1,9.5,0,0.300002,0.000649922,0
0.1,9.6,0,0.300004,0.000646867,0
0.1,9.7,0,0.300007,0.000640564,0
0.1,9.8,0,0.300002,0.000633871,0
0.1,9.9,0,0.300002,0.000631624,0
0.1,10,0,0.300007,0.000624654,0
0.1,10.1,0,0.300004,0.000617525,0
0.1,10.2,0,0.300002,0.000613654,0
0.1,10.3,0,0.300005,0.000608022,0
0.1,10.4,0,0.300006,0.000600895,0
0.1,10.5,0,0.300002,0.000594553,0
0.1,10.6,0,0.300004,0.000591545,0
0.1,10.7,0,0.300007,0.000584726,0
0.1,10.8,0,0.300003,0.000578048,0
0.1,10.9,0,0.300002,0.000575888,0
0.1,11,0,0.300006,0.000569697,0
0.1,11.1,0,0.300004,0.000563711,0
0.1,11.2,0,0.300002,0.00056022,0
0.1,11.3,0,0.300004,0.000556307,0
0.1,11.4,0,0.300004,0.000551164,0
0.1,11.5,0,0.300001,0.000546531,0
0.1,11.6,0,0.300002,0.000544893,0
0.1,11.7,0,0.300004,0.000540714,0
0.1,11.8,0,0.300002,0.000536935,0
0.1,11.9,0,0.300001,0.00053572,0
0.1,12,0,0.300003,0.000532742,0
0.1,12.1,0,0.300002,0.000530089,0
0.1,12.2,0,0.300001,0.000528481,0
0.1,12.3,0,0.300001,0.000527329,0
0.1,12.4,0,0.300001,0.000525838,0
0.1,12.5,0,0.3,0.000525681,0
0.1,12.6,0,0.3,0.000624599,0
0.1,12.7,0,0.300001,0.00072334,0
0.2,0,0,0.300001,-0.00173512,0
0.2,0.1,0,0.300001,-0.00163354,0
0.2,0.2,0,0.300001,-0.00163432,0
0.2,0.3,0,0.300001,-0.00163507,0
0.2,0.4,0,0.300002,-0.00163731,0
0.2,0.5,0,0.300003,-0.00163904,0
0.2,0.6,0,0.300003,-0.00164156,0
0.2,0.7,0,0.300003,-0.001645,0
0.2,0.8,0,0.300004,-0.00164694,0
0.2,0.9,0,0.300004,-0.0016512,0
0.2,1,0,0.300005,-0.00165442,0
0.2,1.1,0,0.300004,-0.00165782,0
0.2,1.2,0,0.300004,-0.00166237,0
0.2,1.3,0,0.300004,-0.00166459,0
0.2,1.4,0,0.300004,-0.00166879,0
0.2,1.5,0,0.300004,-0.00167194,0
0.2,1.6,0,0.300003,-0.00167426,0
0.2,1.7,0,0.300002,-0.00167731,0
0.2,1.8,0,0.300002,-0.00167833,0
0.2,1.9,0,0.300001,-0.00167927,0
0.2,2,0,0.3,-0.00167991,0
0.2,2.1,0,0.299999,-0.00167831,0
0.2,2.2,0,0.299997,-0.00167604,0
0.2,2.3,0,0.299997,-0.00167383,0
0.2,2.4,0,0.299994,-0.00166713,0
0.2,2.5,0,0.29999,-0.00166195,0
0.2,2.6,0,0.29999,-0.00165279,0
0.2,2.7,0,0.299987,-0.00164032,0
0.2,2.8,0,0.299987,-0.00163235,0
0.2,2.9,0,0.299982,-0.00161276,0
0.2,3,0,0.299975,-0.00159784,0
0.2,3.1,0,0.299977,-0.00157707,0
0.2,3.2,0,0.299972,-0.00154901,0
0.2,3.3,0,0.299972,-0.00153261,0
0.2,3.4,0,0.299966,-0.00149488,0
0.2,3.5,0,0.299954,-0.00146628,0
0.2,3.6,0,0.29996,-0.00143032,0
0.2,3.7,0,0.299954,-0.00138193,0
0.2,3.8,0,0.299953,-0.00135495,0
0.2,3.9,0,0.299947,-0.0012953,0
0.2,4,0,0.299929,-0.0012502,0
0.2,4.1,0,0.29994,-0.00119729,0
0.2,4.2,0,0.299934,-0.00112624,0
0.2,4.3,0,0.299934,-0.00108799,0
0.2,4.4,0,0.299928,-0.00100606,0
0.2,4.5,0,0.299905,-0.000944246,0
0.2,4.6,0,0.299922,-0.000876084,0
0.2,4.7,0,0.299917,-0.000784713,0
0.2,4.8,0,0.299917,-0.000737573,0
0.2,4.9,0,0.299914,-0.00065366,0
0.2,5,0,0.29989,-0.000593677,0
0.2,5.1,0,0.299888,-0.000480816,0
0.2,5.2,0,0.299887,-0.000395468,0
0.2,5.3,0,0.299886,-0.000309045,0
0.2,5.4,0,0.299885,-0.000222006,0
0.2,5.5,0,0.299885,-0.000134647,0
0.2,5.6,0,0.299885,-4.73182e-05,0
0.2,5.7,0,0.299886,3.96388e-05,0
0.2,5.8,0,0.299887,0.000125957,0
0.2,5.9,0,0.299888,0.000211127,0
0.2,6,0,0.29989,0.000339024,0
0.2,6.1,0,0.299914,0.000387519,0
0.2,6.2,0,0.299917,0.000466991,0
0.2,6.3,0,0.299909,0.000535827,0
0.2,6.4,0,0.299919,0.000581047,0
0.2,6.5,0,0.299925,0.000665642,0
0.2,6.6,0,0.299931,0.000751052,0
0.2,6.7,0,0.299922,0.000792235,0
0.2,6.8,0,0.299936,0.000850951,0
0.2,6.9,0,0.299942,0.000921973,0
0.2,7,0,0.299932,0.000969583,0
0.2,7.1,0,0.299947,0.00100678,0
0.2,7.2,0,0.299954,0.0010621,0
0.2,7.3,0,0.299954,0.00110935,0
0.2,7.4,0,0.299958,0.00113277,0
0.2,7.5,0,0.299965,0.00117149,0
0.2,7.6,0,0.299971,0.00121146,0
0.2,7.7,0,0.299968,0.00123034,0
0.2,7.8,0,0.299976,0.00125165,0
0.2,7.9,0,0.299981,0.00127764,0
0.2,8,0,0.29998,0.00129516,0
0.2,8.1,0,0.299985,0.00130522,0
0.2,8.2,0,0.299989,0.00131923,0
0.2,8.3,0,0.299992,0.00133136,0
0.2,8.4,0,0.299993,0.00133567,0
0.2,8.5,0,0.299996,0.00133987,0
0.2,8.6,0,0.3,0.00134419,0
0.2,8.7,0,0.3,0.00134526,0
0.2,8.8,0,0.300002,0.00134331,0
0.2,8.9,0,0.300005,0.00134023,0
0.2,9,0,0.300007,0.00133749,0
0.2,9.1,0,0.300006,0.00133322,0
0.2,9.2,0,0.300008,0.00132486,0
0.2,9.3,0,0.30001,0.00131711,0
0.2,9.4,0,0.30001,0.00131194,0
0.2,9.5,0,0.300011,0.00130122,0
0.2,9.6,0,0.300012,0.00128943,0
0.2,9.7,0,0.300014,0.00128213,0
0.2,9.8,0,0.300012,0.00127209,0
0.2,9.9,0,0.300012,0.00125843,0
0.2,10,0,0.300015,0.00124792,0
0.2,10.1,0,0.300013,0.00123986,0
0.2,10.2,0,0.300013,0.00122556,0
0.2,10.3,0,0.300013,0.00121212,0
0.2,10.4,0,0.300014,0.001205,0
0.2,10.5,0,0.300012,0.00119254,0
0.2,10.6,0,0.300012,0.00117858,0
0.2,10.7,0,0.300015,0.00117012,0
0.2,10.8,0,0.300012,0.00116078,0
0.2,10.9,0,0.300011,0.00114791,0
0.2,11,0,0.300013,0.00113785,0
0.2,11.1,0,0.300011,0.00113144,0
0.2,11.2,0,0.30001,0.00112023,0
0.2,11.3,0,0.30001,0.00110944,0
0.2,11.4,0,0.30001,0.0011043,0
0.2,11.5,0,0.300008,0.0010963,0
0.2,11.6,0,0.300007,0.00108718,0
0.2,11.7,0,0.300009,0.00108162,0
0.2,11.8,0,0.300007,0.00107671,0
0.2,11.9,0,0.300006,0.00106995,0
0.2,12,0,0.300006,0.00106459,0
0.2,12.1,0,0.300005,0.00106189,0
0.2,12.2,0,0.300004,0.0010577,0
0.2,12.3,0,0.300003,0.00105357,0
0.2,12.4,0,0.300003,0.00105208,0
0.2,12.5,0,0.300002,0.00105074,0
0.2,12.6,0,0.300001,0.00104931,0
0.2,12.7,0,0.300002,0.001115,0
0.3,0,0,0.300002,-0.00244888,0
0.3,0.1,0,0.300002,-0.00244979,0
0.3,0.2,0,0.300002,-0.00245057,0
0.3,0.3,0,0.300004,-0.00245292,0
0.3,0.4,0,0.300004,-0.00245516,0
0.3,0.5,0,0.300006,-0.00245809,0
0.3,0.6,0,0.300006,-0.00246239,0
0.3,0.7,0,0.300007,-0.00246583,0
0.3,0.8,0,0.300008,-0.00247181,0
0.3,0.9,0,0.300009,-0.00247606,0
0.3,1,0,0.30001,-0.00248154,0
0.3,1.1,0,0.300009,-0.00248734,0
0.3,1.2,0,0.300009,-0.0024919,0
0.3,1.3,0,0.300009,-0.0024988,0
0.3,1.4,0,0.300008,-0.00250301,0
0.3,1.5,0,0.300009,-0.00250842,0
0.3,1.6,0,0.300006,-0.00251248,0
0.3,1.7,0,0.300006,-0.00251553,0
0.3,1.8,0,0.300004,-0.002519,0
0.3,1.9,0,0.300002,-0.00251994,0
0.3,2,0,0.3,-0.00252123,0
0.3,2.1,0,0.299997,-0.00251882,0
0.3,2.2,0,0.299995,-0.00251655,0
0.3,2.3,0,0.299991,-0.00251042,0
0.3,2.4,0,0.299988,-0.00250371,0
0.3,2.5,0,0.299982,-0.00249534,0
0.3,2.6,0,0.299979,-0.00248038,0
0.3,2.7,0,0.299976,-0.00246792,0
0.3,2.8,0,0.299968,-0.00244452,0
0.3,2.9,0,0.299964,-0.00242493,0
0.3,3,0,0.299952,-0.00240026,0
0.3,3.1,0,0.29995,-0.00236599,0
0.3,3.2,0,0.299945,-0.00233794,0
0.3,3.3,0,0.299935,-0.00228913,0
0.3,3.4,0,0.29993,-0.0022514,0
0.3,3.5,0,0.299911,-0.00220378,0
0.3,3.6,0,0.299913,-0.00214413,0
0.3,3.7,0,0.299907,-0.00209574,0
0.3,3.8,0,0.299895,-0.00201489,0
0.3,3.9,0,0.299888,-0.00195524,0
0.3,4,0,0.299863,-0.00187995,0
0.3,4.1,0,0.29987,-0.00179179,0
0.3,4.2,0,0.299864,-0.00172074,0
0.3,4.3,0,0.299852,-0.00160558,0
0.3,4.4,0,0.299847,-0.00152365,0
0.3,4.5,0,0.299817,-0.0014203,0
0.3,4.6,0,0.299831,-0.001306,0
0.3,4.7,0,0.299826,-0.00121463,0
0.3,4.8,0,0.299818,-0.0010706,0
0.3,4.9,0,0.299815,-0.00098669,0
0.3,5,0,0.299787,-0.000892421,0
0.3,5.1,0,0.299782,-0.000722529,0
0.3,5.2,0,0.299779,-0.000594242,0
0.3,5.3,0,0.299777,-0.000464289,0
0.3,5.4,0,0.299776,-0.000333353,0
0.3,5.5,0,0.299776,-0.000201917,0
0.3,5.6,0,0.299776,-7.05304e-05,0
0.3,5.7,0,0.299778,6.02664e-05,0
0.3,5.8,0,0.299779,0.000190029,0
0.3,5.9,0,0.299782,0.000318008,0
0.3,6,0,0.299788,0.000510599,0
0.3,6.1,0,0.299816,0.00060218,0
0.3,6.2,0,0.299819,0.000681652,0
0.3,6.3,0,0.299813,0.000781437,0
0.3,6.4,0,0.299833,0.000918695,0
0.3,6.5,0,0.29984,0.00100508,0
0.3,6.6,0,0.299845,0.00109049,0
0.3,6.7,0,0.299846,0.00120979,0
0.3,6.8,0,0.299865,0.0012964,0
0.3,6.9,0,0.299871,0.00136743,0
0.3,7,0,0.299867,0.00145669,0
0.3,7.1,0,0.299892,0.00153705,0
0.3,7.2,0,0.299899,0.00159238,0
0.3,7.3,0,0.299902,0.00165342,0
0.3,7.4,0,0.299918,0.0017234,0
0.3,7.5,0,0.299926,0.00176516,0
0.3,7.6,0,0.299932,0.00180513,0
0.3,7.7,0,0.299938,0.00185524,0
0.3,7.8,0,0.299951,0.00188867,0
0.3,7.9,0,0.299956,0.00191465,0
0.3,8,0,0.29996,0.00194484,0
0.3,8.1,0,0.299972,0.00196796,0
0.3,8.2,0,0.299976,0.00198197,0
0.3,8.3,0,0.299981,0.00199647,0
0.3,8.4,0,0.299988,0.00200886,0
0.3,8.5,0,0.299993,0.00201377,0
0.3,8.6,0,0.299996,0.00201808,0
0.3,8.7,0,0.300002,0.00201989,0
0.3,8.8,0,0.300006,0.00201697,0
0.3,8.9,0,0.300008,0.00201388,0
0.3,9,0,0.300013,0.00200852,0
0.3,9.1,0,0.300015,0.00199825,0
0.3,9.2,0,0.300017,0.00198989,0
0.3,9.3,0,0.30002,0.00198048,0
0.3,9.4,0,0.300022,0.00196465,0
0.3,9.5,0,0.300023,0.00195195,0
0.3,9.6,0,0.300024,0.00194017,0
0.3,9.7,0,0.300028,0.00192229,0
0.3,9.8,0,0.300026,0.00190511,0
0.3,9.9,0,0.300026,0.00189145,0
0.3,10,0,0.300029,0.00187427,0
0.3,10.1,0,0.300027,0.00185363,0
0.3,10.2,0,0.300027,0.00183933,0
0.3,10.3,0,0.300028,0.00182415,0
0.3,10.4,0,0.300028,0.00180258,0
0.3,10.5,0,0.300026,0.00178697,0
0.3,10.6,0,0.300026,0.00177301,0
0.3,10.7,0,0.300028,0.00175388,0
0.3,10.8,0,0.300025,0.00173692,0
0.3,10.9,0,0.300024,0.00172406,0
0.3,11,0,0.300025,0.00170868,0
0.3,11.1,0,0.300022,0.00169122,0
0.3,11.2,0,0.300021,0.00168002,0
0.3,11.3,0,0.300021,0.00166847,0
0.3,11.4,0,0.30002,0.00165293,0
0.3,11.5,0,0.300017,0.00164231,0
0.3,11.6,0,0.300016,0.00163318,0
0.3,11.7,0,0.300017,0.00162145,0
0.3,11.8,0,0.300013,0.00161195,0
0.3,11.9,0,0.300012,0.00160519,0
0.3,12,0,0.300012,0.00159753,0
0.3,12.1,0,0.300009,0.00158972,0
0.3,12.2,0,0.300008,0.00158554,0
0.3,12.3,0,0.300007,0.00158133,0
0.3,12.4,0,0.300005,0.00157674,0
0.3,12.5,0,0.300004,0.00157471,0
0.3,12.6,0,0.300003,0.00157328,0
0.3,12.7,0,0.300003,0.00157212,0
0.4,0,0,0.300003,-0.0032641,0
0.4,0.1,0,0.300003,-0.00326514,0
0.4,0.2,0,0.300005,-0.00326667,0
0.4,0.3,0,0.300006,-0.00326902,0
0.4,0.4,0,0.300008,-0.00327303,0
0.4,0.5,0,0.300011,-0.00327666,0
0.4,0.6,0,0.30001,-0.00328183,0
0.4,0.7,0,0.300013,-0.00328816,0
0.4,0.8,0,0.300014,-0.00329414,0
0.4,0.9,0,0.300014,-0.00330186,0
0.4,1,0,0.300017,-0.00330855,0
0.4,1.1,0,0.300015,-0.00331561,0
0.4,1.2,0,0.300016,-0.00332402,0
0.4,1.3,0,0.300016,-0.00333093,0
0.4,1.4,0,0.300014,-0.0033388,0
0.4,1.5,0,0.300015,-0.00334542,0
0.4,1.6,0,0.300011,-0.00335049,0
0.4,1.7,0,0.30001,-0.00335637,0
0.4,1.8,0,0.300008,-0.00335984,0
0.4,1.9,0,0.300003,-0.00336227,0
0.4,2,0,0.3,-0.00336392,0
0.4,2.1,0,0.299997,-0.00336137,0
0.4,2.2,0,0.29999,-0.00335797,0
0.4,2.3,0,0.299986,-0.00335184,0
0.4,2.4,0,0.299979,-0.00334117,0
0.4,2.5,0,0.299969,-0.00333113,0
0.4,2.6,0,0.299967,-0.00331369,0
0.4,2.7,0,0.299953,-0.00329235,0
0.4,2.8,0,0.299946,-0.00326895,0
0.4,2.9,0,0.299938,-0.00323593,0
0.4,3,0,0.299918,-0.00320617,0
0.4,3.1,0,0.29992,-0.00316569,0
0.4,3.2,0,0.299898,-0.00311677,0
0.4,3.3,0,0.299888,-0.00306796,0
0.4,3.4,0,0.29988,-0.00300316,0
0.4,3.5,0,0.299848,-0.00294566,0
0.4,3.6,0,0.299858,-0.00287474,0
0.4,3.7,0,0.299828,-0.00278972,0
0.4,3.8,0,0.299815,-0.00270886,0
0.4,3.9,0,0.299811,-0.00260527,0
0.4,4,0,0.299767,-0.00251436,0
0.4,4.1,0,0.299787,-0.00240907,0
0.4,4.2,0,0.299751,-0.00228369,0
0.4,4.3,0,0.299739,-0.00216853,0
0.4,4.4,0,0.299741,-0.00202505,0
0.4,4.5,0,0.299688,-0.00190029,0
0.4,4.6,0,0.299721,-0.00176305,0
0.4,4.7,0,0.299683,-0.00160136,0
0.4,4.8,0,0.299675,-0.00145733,0
0.4,4.9,0,0.299689,-0.0012977,0
0.4,5,0,0.299635,-0.00119307,0
0.4,5.1,0,0.299626,-0.000965548,0
0.4,5.2,0,0.299621,-0.000794055,0
0.4,5.3,0,0.299617,-0.000620254,0
0.4,5.4,0,0.299615,-0.000445044,0
0.4,5.5,0,0.299614,-0.000269132,0
0.4,5.6,0,0.299615,-9.32957e-05,0
0.4,5.7,0,0.299618,8.17022e-05,0
0.4,5.8,0,0.299621,0.000255196,0
0.4,5.9,0,0.299627,0.000426204,0
0.4,6,0,0.299637,0.000684238,0
0.4,6.1,0,0.299678,0.000781783,0
0.4,6.2,0,0.2997,0.000921224,0
0.4,6.3,0,0.299676,0.00106436,0
0.4,6.4,0,0.299696,0.00120161,0
0.4,6.5,0,0.299733,0.00134764,0
0.4,6.6,0,0.299729,0.00148877,0
0.4,6.7,0,0.299729,0.00160922,0
0.4,6.8,0,0.29977,0.00172237,0
0.4,6.9,0,0.299784,0.00185156,0
0.4,7,0,0.299774,0.00195201,0
0.4,7.1,0,0.299807,0.00204189,0
0.4,7.2,0,0.299836,0.00214414,0
0.4,7.3,0,0.299833,0.0022227,0
0.4,7.4,0,0.299849,0.00229268,0
0.4,7.5,0,0.299877,0.00236186,0
0.4,7.6,0,0.299886,0.00242607,0
0.4,7.7,0,0.299891,0.00247727,0
0.4,7.8,0,0.299913,0.00252098,0
0.4,7.9,0,0.299929,0.00256714,0
0.4,8,0,0.299932,0.00260049,0
0.4,8.1,0,0.299947,0.00262608,0
0.4,8.2,0,0.299963,0.00265207,0
0.4,8.3,0,0.299969,0.00266951,0
0.4,8.4,0,0.299977,0.0026819,0
0.4,8.5,0,0.299987,0.00269077,0
0.4,8.6,0,0.299997,0.00269572,0
0.4,8.7,0,0.300002,0.00269732,0
0.4,8.8,0,0.300008,0.00269456,0
0.4,8.9,0,0.300016,0.00268797,0
0.4,9,0,0.300023,0.0026805,0
0.4,9.1,0,0.300025,0.00266969,0
0.4,9.2,0,0.300029,0.00265513,0
0.4,9.3,0,0.300036,0.00264011,0
0.4,9.4,0,0.300039,0.00262427,0
0.4,9.5,0,0.300038,0.00260599,0
0.4,9.6,0,0.300043,0.00258432,0
0.4,9.7,0,0.300048,0.00256516,0
0.4,9.8,0,0.300044,0.00254474,0
0.4,9.9,0,0.300045,0.00251919,0
0.4,10,0,0.300051,0.00249803,0
0.4,10.1,0,0.300048,0.00247643,0
0.4,10.2,0,0.300045,0.00245134,0
0.4,10.3,0,0.300049,0.00242813,0
0.4,10.4,0,0.30005,0.00240657,0
0.4,10.5,0,0.300044,0.00238435,0
0.4,10.6,0,0.300045,0.00235937,0
0.4,10.7,0,0.300049,0.00233867,0
0.4,10.8,0,0.300043,0.00231864,0
0.4,10.9,0,0.30004,0.00229471,0
0.4,11,0,0.300043,0.00227587,0
0.4,11.1,0,0.30004,0.0022579,0
0.4,11.2,0,0.300035,0.0022382,0
0.4,11.3,0,0.300036,0.00222039,0
0.4,11.4,0,0.300035,0.00220485,0
0.4,11.5,0,0.300029,0.00218996,0
0.4,11.6,0,0.300028,0.00217373,0
0.4,11.7,0,0.300029,0.00216095,0
0.4,11.8,0,0.300024,0.00214977,0
0.4,11.9,0,0.30002,0.00213703,0
0.4,12,0,0.30002,0.00212785,0
0.4,12.1,0,0.300017,0.00211994,0
0.4,12.2,0,0.300013,0.00211218,0
0.4,12.3,0,0.300011,0.00210591,0
0.4,12.4,0,0.300009,0.00210132,0
0.4,12.5,0,0.300006,0.00209801,0
0.4,12.6,0,0.300005,0.00209574,0
0.4,12.7,0,0.300006,0.00209471,0
0.5,0,0,0.300005,-0.00407932,0
0.5,0.1,0,0.300006,-0.00408098,0
0.5,0.2,0,0.300008,-0.00408263,0
0.5,0.3,0,0.30001,-0.00408582,0
0.5,0.4,0,0.300013,-0.00409052,0
0.5,0.5,0,0.300015,-0.00409523,0
0.5,0.6,0,0.300017,-0.00410242,0
0.5,0.7,0,0.30002,-0.00410962,0
0.5,0.8,0,0.300021,-0.00411769,0
0.5,0.9,0,0.300023,-0.00412663,0
0.5,1,0,0.300024,-0.00413556,0
0.5,1.1,0,0.300024,-0.00414523,0
0.5,1.2,0,0.300025,-0.00415489,0
0.5,1.3,0,0.300024,-0.00416426,0
0.5,1.4,0,0.300023,-0.00417334,0
0.5,1.5,0,0.300021,-0.00418242,0
0.5,1.6,0,0.300018,-0.00418931,0
0.5,1.7,0,0.300015,-0.0041962,0
0.5,1.8,0,0.300011,-0.00420104,0
0.5,1.9,0,0.300006,-0.00420383,0
0.5,2,0,0.300001,-0.00420661,0
0.5,2.1,0,0.299993,-0.00420308,0
0.5,2.2,0,0.299985,-0.00419954,0
0.5,2.3,0,0.299976,-0.0041916,0
0.5,2.4,0,0.299966,-0.00417926,0
0.5,2.5,0,0.299956,-0.00416692,0
0.5,2.6,0,0.299943,-0.0041431,0
0.5,2.7,0,0.29993,-0.00411927,0
0.5,2.8,0,0.299916,-0.0040883,0
0.5,2.9,0,0.2999,-0.0040502,0
0.5,3,0,0.299884,-0.00401209,0
0.5,3.1,0,0.299866,-0.00395695,0
0.5,3.2,0,0.299847,-0.00390182,0
0.5,3.3,0,0.299827,-0.00383691,0
0.5,3.4,0,0.299807,-0.00376223,0
0.5,3.5,0,0.299786,-0.00368754,0
0.5,3.6,0,0.299763,-0.00359125,0
0.5,3.7,0,0.299741,-0.00349496,0
0.5,3.8,0,0.299718,-0.0033872,0
0.5,3.9,0,0.299694,-0.00326799,0
0.5,4,0,0.299671,-0.00314876,0
0.5,4.1,0,0.299648,-0.00300626,0
0.5,4.2,0,0.299625,-0.00286376,0
0.5,4.3,0,0.299602,-0.00271006,0
0.5,4.4,0,0.299581,-0.00254517,0
0.5,4.5,0,0.299559,-0.00238027,0
0.5,4.6,0,0.299541,-0.00219564,0
0.5,4.7,0,0.299522,-0.00201101,0
0.5,4.8,0,0.299507,-0.0018337,0
0.5,4.9,0,0.299495,-0.00166371,0
0.5,5,0,0.299483,-0.00149372,0
0.5,5.1,0,0.29947,-0.00120857,0
0.5,5.2,0,0.299462,-0.000993869,0
0.5,5.3,0,0.299457,-0.000776219,0
0.5,5.4,0,0.299454,-0.000556735,0
0.5,5.5,0,0.299453,-0.000336348,0
0.5,5.6,0,0.299454,-0.000116061,0
0.5,5.7,0,0.299458,0.000103138,0
0.5,5.8,0,0.299463,0.000320364,0
0.5,5.9,0,0.299471,0.000534401,0
0.5,6,0,0.299487,0.000857876,0
0.5,6.1,0,0.2995,0.0010189,0
0.5,6.2,0,0.299513,0.00117992,0
0.5,6.3,0,0.299526,0.00134095,0
0.5,6.4,0,0.299544,0.00150934,0
0.5,6.5,0,0.299565,0.00168169,0
0.5,6.6,0,0.299586,0.00185405,0
0.5,6.7,0,0.299608,0.00201747,0
0.5,6.8,0,0.299631,0.00216006,0
0.5,6.9,0,0.299655,0.00230264,0
0.5,7,0,0.299679,0.00244522,0
0.5,7.1,0,0.299703,0.00255735,0
0.5,7.2,0,0.299727,0.00266787,0
0.5,7.3,0,0.299752,0.00277839,0
0.5,7.4,0,0.299775,0.0028702,0
0.5,7.5,0,0.299798,0.00294954,0
0.5,7.6,0,0.29982,0.00302887,0
0.5,7.7,0,0.299842,0.00310115,0
0.5,7.8,0,0.299862,0.00315222,0
0.5,7.9,0,0.299882,0.00320329,0
0.5,8,0,0.299902,0.00325437,0
0.5,8.1,0,0.299919,0.00328376,0
0.5,8.2,0,0.299935,0.00331074,0
0.5,8.3,0,0.299952,0.00333773,0
0.5,8.4,0,0.299966,0.00335404,0
0.5,8.5,0,0.299979,0.00336163,0
0.5,8.6,0,0.299992,0.00336922,0
0.5,8.7,0,0.300004,0.00337386,0
0.5,8.8,0,0.300013,0.00336672,0
0.5,8.9,0,0.300023,0.00335958,0
0.5,9,0,0.300032,0.00335244,0
0.5,9.1,0,0.300039,0.00333642,0
0.5,9.2,0,0.300046,0.00331884,0
0.5,9.3,0,0.300052,0.00330126,0
0.5,9.4,0,0.300057,0.00328033,0
0.5,9.5,0,0.300061,0.00325603,0
0.5,9.6,0,0.300065,0.00323174,0
0.5,9.7,0,0.300068,0.0032069,0
0.5,9.8,0,0.30007,0.00317898,0
0.5,9.9,0,0.300072,0.00315107,0
0.5,10,0,0.300073,0.00312315,0
0.5,10.1,0,0.300074,0.00309432,0
0.5,10.2,0,0.300074,0.00306526,0
0.5,10.3,0,0.300074,0.0030362,0
0.5,10.4,0,0.300073,0.00300749,0
0.5,10.5,0,0.300072,0.00297921,0
0.5,10.6,0,0.300071,0.00295093,0
0.5,10.7,0,0.300069,0.00292287,0
0.5,10.8,0,0.300067,0.00289687,0
0.5,10.9,0,0.300065,0.00287086,0
0.5,11,0,0.300063,0.00284486,0
0.5,11.1,0,0.30006,0.00282141,0
0.5,11.2,0,0.300057,0.0027988,0
0.5,11.3,0,0.300054,0.0027762,0
0.5,11.4,0,0.300051,0.00275528,0
0.5,11.5,0,0.300048,0.00273689,0
0.5,11.6,0,0.300044,0.00271849,0
0.5,11.7,0,0.300041,0.00270034,0
0.5,11.8,0,0.300037,0.00268672,0
0.5,11.9,0,0.300033,0.0026731,0
0.5,12,0,0.300029,0.00265949,0
0.5,12.1,0,0.300025,0.00264948,0
0.5,12.2,0,0.300021,0.00264101,0
0.5,12.3,0,0.300018,0.00263255,0
0.5,12.4,0,0.300014,0.00262603,0
0.5,12.5,0,0.300012,0.00262312,0
0.5,12.6,0,0.30001,0.00262021,0
0.5,12.7,0,0.300009,0.0026173,0
0.6,0,0,0.300008,-0.00489162,0
0.6,0.1,0,0.300007,-0.0048935,0
0.6,0.2,0,0.300011,-0.00489559,0
0.6,0.3,0,0.300015,-0.00489986,0
0.6,0.4,0,0.300017,-0.00490523,0
0.6,0.5,0,0.300023,-0.00491159,0
0.6,0.6,0,0.300025,-0.00492083,0
0.6,0.7,0,0.300029,-0.00492923,0
0.6,0.8,0,0.300031,-0.00493983,0
0.6,0.9,0,0.300032,-0.0049501,0
0.6,1,0,0.300037,-0.004962,0
0.6,1.1,0,0.300035,-0.0049747,0
0.6,1.2,0,0.300036,-0.00498599,0
0.6,1.3,0,0.300036,-0.00499855,0
0.6,1.4,0,0.300033,-0.00500919,0
0.6,1.5,0,0.300033,-0.00502151,0
0.6,1.6,0,0.300027,-0.0050312,0
0.6,1.7,0,0.300023,-0.00503949,0
0.6,1.8,0,0.300017,-0.00504673,0
0.6,1.9,0,0.30001,-0.00505052,0
0.6,2,0,0.300002,-0.00505515,0
0.6,2.1,0,0.299991,-0.00505228,0
0.6,2.2,0,0.299981,-0.0050489,0
0.6,2.3,0,0.299967,-0.00504045,0
0.6,2.4,0,0.299956,-0.00502746,0
0.6,2.5,0,0.299936,-0.00501322,0
0.6,2.6,0,0.299922,-0.00498538,0
0.6,2.7,0,0.299901,-0.00495914,0
0.6,2.8,0,0.29988,-0.004922,0
0.6,2.9,0,0.299865,-0.00488015,0
0.6,3,0,0.299829,-0.00483351,0
0.6,3.1,0,0.299814,-0.00476659,0
0.6,3.2,0,0.299782,-0.00470494,0
0.6,3.3,0,0.299752,-0.00462511,0
0.6,3.4,0,0.299735,-0.00454202,0
0.6,3.5,0,0.299681,-0.00444901,0
0.6,3.6,0,0.29967,-0.00433024,0
0.6,3.7,0,0.299628,-0.00422182,0
0.6,3.8,0,0.299593,-0.00408761,0
0.6,3.9,0,0.299577,-0.00395407,0
0.6,4,0,0.299508,-0.00380416,0
0.6,4.1,0,0.299508,-0.00362664,0
0.6,4.2,0,0.299459,-0.0034655,0
0.6,4.3,0,0.299425,-0.00327247,0
0.6,4.4,0,0.299417,-0.00308688,0
0.6,4.5,0,0.29934,-0.00287839,0
0.6,4.6,0,0.299357,-0.00264609,0
0.6,4.7,0,0.299309,-0.00243711,0
0.6,4.8,0,0.299284,-0.00219402,0
0.6,4.9,0,0.299292,-0.00198259,0
0.6,5,0,0.299224,-0.0018059,0
0.6,5.1,0,0.299202,-0.00146041,0
0.6,5.2,0,0.29919,-0.00120028,0
0.6,5.3,0,0.299182,-0.000936492,0
0.6,5.4,0,0.299177,-0.000670422,0
0.6,5.5,0,0.299175,-0.00040324,0
0.6,5.6,0,0.299177,-0.000136185,0
0.6,5.7,0,0.299183,0.000129519,0
0.6,5.8,0,0.299192,0.000392751,0
0.6,5.9,0,0.299205,0.000652014,0
0.6,6,0,0.29923,0.00104401,0
0.6,6.1,0,0.299283,0.00120888,0
0.6,6.2,0,0.29931,0.00137121,0
0.6,6.3,0,0.299301,0.00161238,0
0.6,6.4,0,0.29934,0.00184371,0
0.6,6.5,0,0.299392,0.0020528,0
0.6,6.6,0,0.299401,0.00224839,0
0.6,6.7,0,0.299423,0.00245107,0
0.6,6.8,0,0.299489,0.00263981,0
0.6,6.9,0,0.299511,0.00279191,0
0.6,7,0,0.299522,0.00296094,0
0.6,7.1,0,0.299581,0.00310974,0
0.6,7.2,0,0.29962,0.00323478,0
0.6,7.3,0,0.299638,0.00336183,0
0.6,7.4,0,0.299677,0.00347751,0
0.6,7.5,0,0.299722,0.00357759,0
0.6,7.6,0,0.299744,0.00366276,0
0.6,7.7,0,0.29977,0.00374728,0
0.6,7.8,0,0.299813,0.00381774,0
0.6,7.9,0,0.299835,0.00387143,0
0.6,8,0,0.299856,0.00392612,0
0.6,8.1,0,0.299888,0.00396646,0
0.6,8.2,0,0.299912,0.00399861,0
0.6,8.3,0,0.299932,0.00402458,0
0.6,8.4,0,0.299954,0.00404338,0
0.6,8.5,0,0.299975,0.00405526,0
0.6,8.6,0,0.299991,0.00406041,0
0.6,8.7,0,0.300008,0.00406154,0
0.6,8.8,0,0.300023,0.00405489,0
0.6,8.9,0,0.300034,0.00404654,0
0.6,9,0,0.300049,0.0040327,0
0.6,9.1,0,0.300059,0.00401298,0
0.6,9.2,0,0.300066,0.00399384,0
0.6,9.3,0,0.300077,0.00396961,0
0.6,9.4,0,0.300085,0.00394187,0
0.6,9.5,0,0.300088,0.00391278,0
0.6,9.6,0,0.300094,0.00388439,0
0.6,9.7,0,0.300102,0.00385134,0
0.6,9.8,0,0.3001,0.00381617,0
0.6,9.9,0,0.300102,0.00378572,0
0.6,10,0,0.300109,0.00374954,0
0.6,10.1,0,0.300107,0.00371265,0
0.6,10.2,0,0.300104,0.00367927,0
0.6,10.3,0,0.300108,0.00364407,0
0.6,10.4,0,0.300107,0.00360742,0
0.6,10.5,0,0.300101,0.00357188,0
0.6,10.6,0,0.300101,0.00354055,0
0.6,10.7,0,0.300103,0.00350547,0
0.6,10.8,0,0.300095,0.00347163,0
0.6,10.9,0,0.300092,0.00344321,0
0.6,11,0,0.300093,0.00341135,0
0.6,11.1,0,0.300086,0.00338105,0
0.6,11.2,0,0.30008,0.00335422,0
0.6,11.3,0,0.300079,0.00332818,0
0.6,11.4,0,0.300075,0.00330198,0
0.6,11.5,0,0.300066,0.00327773,0
0.6,11.6,0,0.300063,0.00325803,0
0.6,11.7,0,0.30006,0.00323646,0
0.6,11.8,0,0.300052,0.00321773,0
0.6,11.9,0,0.300046,0.00320255,0
0.6,12,0,0.300043,0.00318697,0
0.6,12.1,0,0.300036,0.00317368,0
0.6,12.2,0,0.30003,0.00316276,0
0.6,12.3,0,0.300025,0.00315386,0
0.6,12.4,0,0.30002,0.00314599,0
0.6,12.5,0,0.300013,0.00314044,0
0.6,12.6,0,0.300012,0.0031379,0
0.6,12.7,0,0.300013,0.00313608,0
0.7,0,0,0.300011,-0.00570392,0
0.7,0.1,0,0.300012,-0.00570623,0
0.7,0.2,0,0.300015,-0.00570898,0
0.7,0.3,0,0.300019,-0.00571325,0
0.7,0.4,0,0.300025,-0.00572093,0
0.7,0.5,0,0.300031,-0.00572795,0
0.7,0.6,0,0.300035,-0.0057384,0
0.7,0.7,0,0.30004,-0.00575005,0
0.7,0.8,0,0.300042,-0.00576065,0
0.7,0.9,0,0.300045,-0.00577521,0
0.7,1,0,0.300049,-0.00578844,0
0.7,1.1,0,0.300049,-0.00580277,0
0.7,1.2,0,0.300049,-0.00581874,0
0.7,1.3,0,0.300048,-0.0058313,0
0.7,1.4,0,0.300046,-0.00584673,0
0.7,1.5,0,0.300044,-0.00586061,0
0.7,1.6,0,0.300038,-0.00587169,0
0.7,1.7,0,0.300031,-0.00588417,0
0.7,1.8,0,0.300025,-0.00589141,0
0.7,1.9,0,0.300013,-0.00589805,0
0.7,2,0,0.300003,-0.00590368,0
0.7,2.1,0,0.29999,-0.00590097,0
0.7,2.2,0,0.299973,-0.00589841,0
0.7,2.3,0,0.29996,-0.00588996,0
0.7,2.4,0,0.299937,-0.00587441,0
0.7,2.5,0,0.299916,-0.00585952,0
0.7,2.6,0,0.299894,-0.00582926,0
0.7,2.7,0,0.299865,-0.00579659,0
0.7,2.8,0,0.299844,-0.00575946,0
0.7,2.9,0,0.299809,-0.00570532,0
0.7,3,0,0.299773,-0.00565493,0
0.7,3.1,0,0.299745,-0.00558149,0
0.7,3.2,0,0.299703,-0.00550154,0
0.7,3.3,0,0.299674,-0.0054217,0
0.7,3.4,0,0.299627,-0.00531189,0
0.7,3.5,0,0.299577,-0.00521048,0
0.7,3.6,0,0.299546,-0.00507958,0
0.7,3.7,0,0.299495,-0.00493654,0
0.7,3.8,0,0.29946,-0.00480233,0
0.7,3.9,0,0.299407,-0.00462379,0
0.7,4,0,0.299346,-0.00445956,0
0.7,4.1,0,0.299319,-0.0042634,0
0.7,4.2,0,0.299267,-0.00404859,0
0.7,4.3,0,0.299233,-0.00385556,0
0.7,4.4,0,0.299184,-0.00360569,0
0.7,4.5,0,0.29912,-0.00337651,0
0.7,4.6,0,0.299108,-0.00311986,0
0.7,4.7,0,0.299065,-0.00283886,0
0.7,4.8,0,0.299041,-0.00259577,0
0.7,4.9,0,0.299012,-0.00233621,0
0.7,5,0,0.298964,-0.00211808,0
0.7,5.1,0,0.298935,-0.00171225,0
0.7,5.2,0,0.298918,-0.0014067,0
0.7,5.3,0,0.298907,-0.00109676,0
0.7,5.4,0,0.2989,-0.000784109,0
0.7,5.5,0,0.298898,-0.000470132,0
0.7,5.6,0,0.2989,-0.000156309,0
0.7,5.7,0,0.298908,0.000155899,0
0.7,5.8,0,0.298921,0.000465139,0
0.7,5.9,0,0.298938,0.000769628,0
0.7,6,0,0.298973,0.00123014,0
0.7,6.1,0,0.299019,0.00142173,0
0.7,6.2,0,0.29905,0.00166755,0
0.7,6.3,0,0.299067,0.00191215,0
0.7,6.4,0,0.299107,0.00214348,0
0.7,6.5,0,0.299155,0.00240464,0
0.7,6.6,0,0.299202,0.00266654,0
0.7,6.7,0,0.299225,0.00287082,0
0.7,6.8,0,0.299284,0.00307622,0
0.7,6.9,0,0.299338,0.00329141,0
0.7,7,0,0.299365,0.00347797,0
0.7,7.1,0,0.299422,0.0036317,0
0.7,7.2,0,0.299477,0.00379703,0
0.7,7.3,0,0.299521,0.00395232,0
0.7,7.4,0,0.29956,0.00406799,0
0.7,7.5,0,0.299611,0.00418455,0
0.7,7.6,0,0.299662,0.00430181,0
0.7,7.7,0,0.299691,0.00438858,0
0.7,7.8,0,0.299735,0.00446113,0
0.7,7.9,0,0.29978,0.0045352,0
0.7,8,0,0.299811,0.00459823,0
0.7,8.1,0,0.299843,0.0046383,0
0.7,8.2,0,0.29988,0.00467591,0
0.7,8.3,0,0.299913,0.00471092,0
0.7,8.4,0,0.299935,0.00472972,0
0.7,8.5,0,0.299963,0.00473877,0
0.7,8.6,0,0.299992,0.00474729,0
0.7,8.7,0,0.30001,0.00474913,0
0.7,8.8,0,0.300029,0.00473892,0
0.7,8.9,0,0.300049,0.00472557,0
0.7,9,0,0.300067,0.00471196,0
0.7,9.1,0,0.300077,0.00469081,0