/*--------------------------------*- C++ -*----------------------------------*\
| =========                 |                                                 |
| \\      /  F ield         | OpenFOAM: The Open Source CFD Toolbox           |
|  \\    /   O peration     | Version:  v1806                                 |
|   \\  /    A nd           | Web:      www.OpenFOAM.com                      |
|    \\/     M anipulation  |                                                 |
\*---------------------------------------------------------------------------*/
FoamFile
{
    version     2.0;
    format      ascii;
    class       volVectorField;
    location    "2";
    object      U;
}
// * * * * * * * * * * * * * * * * * * * * * * * * * * * * * * * * * * * * * //

dimensions      [0 1 -1 0 0 0 0];


internalField   nonuniform List<vector> 
2400
(
(2.99799 -0.0223272 0)
(3.00369 -0.0312806 0)
(3.00317 -0.103068 0)
(2.99253 -0.20324 0)
(2.99339 -0.192327 0)
(3.00368 -0.129189 0)
(3.00848 -0.214727 0)
(3.00222 -0.430658 0)
(2.98525 -0.533479 0)
(2.97693 -0.427801 0)
(2.99375 -0.317412 0)
(3.01222 -0.424422 0)
(3.00079 -0.721805 0)
(2.9691 -0.983102 0)
(2.94419 -1.02713 0)
(2.93427 -0.882157 0)
(2.92689 -0.769038 0)
(2.90705 -0.859751 0)
(2.85874 -1.18883 0)
(2.76763 -1.60961 0)
(2.9988 -0.0236668 0)
(3.0038 -0.0362232 0)
(2.99972 -0.0940766 0)
(2.99278 -0.192075 0)
(2.99574 -0.201597 0)
(2.99954 -0.147163 0)
(3.00409 -0.214244 0)
(3.00143 -0.406161 0)
(2.98046 -0.509819 0)
(2.96839 -0.437328 0)
(2.98367 -0.351463 0)
(2.99389 -0.433826 0)
(2.97932 -0.68624 0)
(2.95532 -0.931934 0)
(2.927 -0.992582 0)
(2.89132 -0.868969 0)
(2.85716 -0.759254 0)
(2.83039 -0.823222 0)
(2.78448 -1.08564 0)
(2.70297 -1.43074 0)
(2.99979 -0.024985 0)
(3.00046 -0.0317464 0)
(3.00027 -0.0937135 0)
(2.99601 -0.19724 0)
(2.99156 -0.198493 0)
(2.9976 -0.143095 0)
(3.00602 -0.214583 0)
(2.9939 -0.401466 0)
(2.97347 -0.505351 0)
(2.97092 -0.437232 0)
(2.97809 -0.339665 0)
(2.97898 -0.415234 0)
(2.97558 -0.686548 0)
(2.95427 -0.935197 0)
(2.91019 -0.962171 0)
(2.873 -0.80813 0)
(2.86374 -0.699528 0)
(2.85495 -0.773672 0)
(2.80721 -1.04491 0)
(2.72456 -1.4085 0)
(2.99948 -0.0241276 0)
(2.99734 -0.0355378 0)
(3.00334 -0.091682 0)
(2.99796 -0.183286 0)
(2.98945 -0.199459 0)
(2.99597 -0.164965 0)
(2.99697 -0.212468 0)
(2.98741 -0.36937 0)
(2.98379 -0.488727 0)
(2.97294 -0.446997 0)
(2.95842 -0.357124 0)
(2.96515 -0.428003 0)
(2.97021 -0.6677 0)
(2.93746 -0.874024 0)
(2.89247 -0.907702 0)
(2.8757 -0.812824 0)
(2.86636 -0.740276 0)
(2.82302 -0.780654 0)
(2.76179 -0.978191 0)
(2.70585 -1.27456 0)
(2.99712 -0.0218241 0)
(2.9998 -0.0352626 0)
(3.00724 -0.0957651 0)
(2.99345 -0.182778 0)
(2.98602 -0.193137 0)
(2.99421 -0.153599 0)
(2.99489 -0.207883 0)
(2.98959 -0.380319 0)
(2.97865 -0.489522 0)
(2.95727 -0.421133 0)
(2.95703 -0.332333 0)
(2.97484 -0.421065 0)
(2.95799 -0.65927 0)
(2.91268 -0.86039 0)
(2.88406 -0.893526 0)
(2.87656 -0.775915 0)
(2.85586 -0.656339 0)
(2.82033 -0.680294 0)
(2.79449 -0.918508 0)
(2.75426 -1.26201 0)
(2.99813 -0.0214276 0)
(3.00405 -0.044259 0)
(2.9994 -0.0872262 0)
(2.98836 -0.163379 0)
(2.99352 -0.195823 0)
(2.99553 -0.175452 0)
(2.98869 -0.211931 0)
(2.98636 -0.349026 0)
(2.97662 -0.453145 0)
(2.95523 -0.432355 0)
(2.95443 -0.375193 0)
(2.96246 -0.421869 0)
(2.94734 -0.603436 0)
(2.92532 -0.801243 0)
(2.90212 -0.868958 0)
(2.86691 -0.78372 0)
(2.82808 -0.688396 0)
(2.80976 -0.718116 0)
(2.79026 -0.9028 0)
(2.73446 -1.15469 0)
(3.00084 -0.024298 0)
(2.99755 -0.0349942 0)
(2.99645 -0.0823443 0)
(2.99929 -0.178134 0)
(2.99354 -0.193409 0)
(2.98388 -0.154085 0)
(2.98725 -0.203949 0)
(2.98645 -0.359847 0)
(2.97279 -0.455516 0)
(2.95279 -0.41211 0)
(2.95079 -0.340756 0)
(2.95583 -0.402233 0)
(2.94345 -0.622341 0)
(2.91353 -0.824299 0)
(2.8761 -0.844993 0)
(2.85395 -0.708186 0)
(2.8532 -0.600124 0)
(2.85782 -0.638782 0)
(2.82444 -0.836447 0)
(2.75203 -1.12027 0)
(2.99789 -0.0198607 0)
(2.99825 -0.0395424 0)
(3.0054 -0.0893491 0)
(2.99321 -0.160967 0)
(2.98136 -0.175969 0)
(2.99115 -0.173237 0)
(2.99299 -0.214436 0)
(2.97255 -0.32831 0)
(2.96711 -0.419113 0)
(2.95578 -0.418032 0)
(2.94544 -0.372763 0)
(2.94457 -0.406751 0)
(2.93986 -0.57098 0)
(2.91693 -0.744441 0)
(2.88038 -0.80267 0)
(2.86106 -0.741236 0)
(2.84999 -0.671203 0)
(2.82106 -0.676596 0)
(2.77259 -0.79512 0)
(2.73318 -1.00472 0)
(2.99822 -0.0206775 0)
(3.00165 -0.0412915 0)
(2.99798 -0.0776843 0)
(2.98988 -0.157871 0)
(2.99167 -0.18471 0)
(2.98925 -0.167375 0)
(2.97751 -0.188993 0)
(2.97101 -0.333284 0)
(2.97861 -0.432639 0)
(2.9475 -0.397732 0)
(2.93042 -0.332023 0)
(2.94221 -0.396258 0)
(2.9402 -0.592825 0)
(2.9103 -0.759943 0)
(2.87204 -0.783242 0)
(2.85768 -0.680508 0)
(2.84861 -0.584567 0)
(2.83534 -0.601872 0)
(2.82473 -0.780912 0)
(2.80845 -1.05092 0)
(2.99872 -0.0193663 0)
(2.99879 -0.0396767 0)
(2.9982 -0.0775275 0)
(2.99557 -0.157099 0)
(2.98567 -0.166499 0)
(2.97869 -0.167318 0)
(2.98584 -0.197393 0)
(2.97259 -0.324079 0)
(2.96246 -0.386948 0)
(2.93233 -0.385541 0)
(2.94137 -0.365545 0)
(2.94283 -0.404601 0)
(2.91877 -0.533437 0)
(2.89567 -0.687319 0)
(2.87221 -0.765676 0)
(2.85797 -0.723427 0)
(2.84485 -0.641995 0)
(2.85038 -0.620223 0)
(2.84944 -0.710681 0)
(2.82222 -0.889033 0)
(2.9976 -0.0179359 0)
(3.0005 -0.0413248 0)
(2.9981 -0.0723186 0)
(2.99144 -0.150343 0)
(2.98421 -0.159522 0)
(2.98277 -0.174079 0)
(2.98116 -0.177631 0)
(2.95494 -0.312937 0)
(2.9672 -0.383982 0)
(2.93737 -0.390472 0)
(2.92951 -0.331688 0)
(2.9144 -0.374656 0)
(2.91737 -0.550817 0)
(2.9114 -0.725129 0)
(2.87821 -0.741261 0)
(2.84945 -0.632404 0)
(2.83183 -0.564558 0)
(2.83582 -0.611165 0)
(2.80499 -0.784504 0)
(2.75455 -1.02352 0)
(2.99758 -0.016867 0)
(3.00072 -0.0412718 0)
(2.99615 -0.0663788 0)
(2.99194 -0.149299 0)
(2.98523 -0.14497 0)
(2.97414 -0.175275 0)
(2.97884 -0.16463 0)
(2.95342 -0.317263 0)
(2.96738 -0.349905 0)
(2.9136 -0.370671 0)
(2.92312 -0.331606 0)
(2.91852 -0.398906 0)
(2.91701 -0.51449 0)
(2.87435 -0.65414 0)
(2.84401 -0.701957 0)
(2.84195 -0.683126 0)
(2.84469 -0.654998 0)
(2.8651 -0.623953 0)
(2.87582 -0.651139 0)
(2.90789 -0.77473 0)
(2.99783 -0.0157875 0)
(3.00008 -0.0412719 0)
(2.99751 -0.0601753 0)
(2.98867 -0.146069 0)
(2.98478 -0.12925 0)
(2.96904 -0.181427 0)
(2.98101 -0.144428 0)
(2.93949 -0.313811 0)
(2.96205 -0.320401 0)
(2.90584 -0.377387 0)
(2.92511 -0.309189 0)
(2.88633 -0.385747 0)
(2.89836 -0.488665 0)
(2.86655 -0.680023 0)
(2.86542 -0.699247 0)
(2.84224 -0.632585 0)
(2.8107 -0.573088 0)
(2.81462 -0.6107 0)
(2.81095 -0.786273 0)
(2.8054 -1.01604 0)
(2.99985 -0.0151192 0)
(2.9971 -0.0403028 0)
(3.00131 -0.0535299 0)
(2.98146 -0.142914 0)
(2.99085 -0.112095 0)
(2.95713 -0.18503 0)
(2.98293 -0.121986 0)
(2.92634 -0.316777 0)
(2.96361 -0.283938 0)
(2.88558 -0.374586 0)
(2.91669 -0.276924 0)
(2.86473 -0.407369 0)
(2.90612 -0.454506 0)
(2.8312 -0.65599 0)
(2.82944 -0.640402 0)
(2.78964 -0.654696 0)
(2.80876 -0.629659 0)
(2.84382 -0.662816 0)
(2.86718 -0.706785 0)
(2.91182 -0.793813 0)
(3.00521 -0.0145815 0)
(2.98863 -0.0385231 0)
(3.01219 -0.0471727 0)
(2.9661 -0.137338 0)
(3.00431 -0.0960925 0)
(2.93626 -0.18489 0)
(2.9946 -0.1013 0)
(2.9043 -0.312383 0)
(2.96554 -0.244759 0)
(2.86275 -0.377946 0)
(2.91892 -0.238177 0)
(2.82847 -0.421252 0)
(2.89157 -0.403527 0)
(2.78679 -0.671076 0)
(2.83433 -0.602569 0)
(2.76339 -0.66455 0)
(2.79743 -0.57091 0)
(2.76504 -0.676128 0)
(2.80073 -0.800285 0)
(2.84774 -0.993469 0)
(3.01493 -0.0135689 0)
(2.97326 -0.0361755 0)
(3.03092 -0.041437 0)
(2.94053 -0.128521 0)
(3.02883 -0.08424 0)
(2.90394 -0.174962 0)
(3.01706 -0.0884923 0)
(2.87002 -0.296378 0)
(2.98199 -0.211209 0)
(2.82335 -0.372682 0)
(2.92684 -0.193705 0)
(2.7809 -0.43716 0)
(2.89679 -0.346321 0)
(2.73541 -0.67501 0)
(2.81478 -0.523982 0)
(2.67391 -0.709264 0)
(2.77777 -0.551548 0)
(2.70742 -0.774466 0)
(2.83793 -0.782015 0)
(2.86526 -0.945159 0)
(3.02768 -0.0107592 0)
(2.95312 -0.0348227 0)
(3.0542 -0.0353293 0)
(2.90934 -0.117148 0)
(3.05966 -0.0761329 0)
(2.86319 -0.156036 0)
(3.0515 -0.0844604 0)
(2.82095 -0.265802 0)
(3.01679 -0.189489 0)
(2.76094 -0.349153 0)
(2.96546 -0.158965 0)
(2.70714 -0.430414 0)
(2.91475 -0.289167 0)
(2.64711 -0.677115 0)
(2.81955 -0.444259 0)
(2.58602 -0.752621 0)
(2.77007 -0.470922 0)
(2.59114 -0.863412 0)
(2.79673 -0.792549 0)
(2.7405 -1.14485 0)
(3.03721 -0.00543148 0)
(2.93896 -0.0355419 0)
(3.06897 -0.0274425 0)
(2.88909 -0.105756 0)
(3.0792 -0.0684013 0)
(2.83344 -0.133385 0)
(3.07955 -0.0827709 0)
(2.77256 -0.227367 0)
(3.06101 -0.176312 0)
(2.68484 -0.304678 0)
(3.0249 -0.145202 0)
(2.6025 -0.390483 0)
(2.98041 -0.256395 0)
(2.51377 -0.635273 0)
(2.87859 -0.36062 0)
(2.42209 -0.773137 0)
(2.77566 -0.393797 0)
(2.43757 -0.993687 0)
(2.78011 -0.730629 0)
(2.60438 -1.3193 0)
(3.03405 0.000487426 0)
(2.94651 -0.035969 0)
(3.05767 -0.0191657 0)
(2.90313 -0.0944806 0)
(3.06114 -0.0575316 0)
(2.84667 -0.114416 0)
(3.06486 -0.0725718 0)
(2.76936 -0.19416 0)
(3.06309 -0.15596 0)
(2.64917 -0.256946 0)
(3.05276 -0.138238 0)
(2.52265 -0.325335 0)
(3.04034 -0.248319 0)
(2.35907 -0.547998 0)
(2.98321 -0.339476 0)
(2.18515 -0.716695 0)
(2.91311 -0.366545 0)
(2.16366 -1.09448 0)
(2.83226 -0.66446 0)
(2.38176 -1.74209 0)
(3.01697 0.00201206 0)
(2.976 -0.0305346 0)
(3.02137 -0.0149976 0)
(2.94977 -0.0794217 0)
(3.00486 -0.0453696 0)
(2.90778 -0.0987979 0)
(2.99117 -0.0515366 0)
(2.84182 -0.172213 0)
(2.97129 -0.114796 0)
(2.72972 -0.228632 0)
(2.94745 -0.0950988 0)
(2.59324 -0.290826 0)
(2.93644 -0.187046 0)
(2.37716 -0.488019 0)
(2.91447 -0.263544 0)
(2.07464 -0.656501 0)
(2.93041 -0.311594 0)
(1.79803 -1.14805 0)
(3.11171 -0.663701 0)
(2.25355 -2.51282 0)
(2.68355 -1.87351 0)
(2.63136 -2.014 0)
(2.57574 -2.13891 0)
(2.51871 -2.24726 0)
(2.4595 -2.33557 0)
(2.40046 -2.40721 0)
(2.33985 -2.45849 0)
(2.28091 -2.4984 0)
(2.21994 -2.51759 0)
(2.16187 -2.53734 0)
(2.6307 -1.65378 0)
(2.58714 -1.77417 0)
(2.54085 -1.88337 0)
(2.49461 -1.98084 0)
(2.4466 -2.06255 0)
(2.39978 -2.13091 0)
(2.35092 -2.18137 0)
(2.30443 -2.2214 0)
(2.25523 -2.24153 0)
(2.20949 -2.26207 0)
(2.65278 -1.64681 0)
(2.60989 -1.77645 0)
(2.56437 -1.89424 0)
(2.51924 -1.99901 0)
(2.47204 -2.08596 0)
(2.42452 -2.15758 0)
(2.37391 -2.20873 0)
(2.32297 -2.24845 0)
(2.2695 -2.26646 0)
(2.21621 -2.2855 0)
(2.65992 -1.47358 0)
(2.6321 -1.58251 0)
(2.60081 -1.68143 0)
(2.56759 -1.76969 0)
(2.53014 -1.8415 0)
(2.48987 -1.90135 0)
(2.44622 -1.94216 0)
(2.40028 -1.97612 0)
(2.3539 -1.98982 0)
(2.30496 -2.00818 0)
(2.70351 -1.48314 0)
(2.66936 -1.60252 0)
(2.6294 -1.70762 0)
(2.58615 -1.79926 0)
(2.53818 -1.87088 0)
(2.48814 -1.93003 0)
(2.43553 -1.96791 0)
(2.38322 -2.00034 0)
(2.33054 -2.01097 0)
(2.27803 -2.02802 0)
(2.67424 -1.31635 0)
(2.63789 -1.40383 0)
(2.59878 -1.48154 0)
(2.5611 -1.55218 0)
(2.52063 -1.60983 0)
(2.48402 -1.66159 0)
(2.44481 -1.69793 0)
(2.41131 -1.73228 0)
(2.3742 -1.7472 0)
(2.34296 -1.76959 0)
(2.68549 -1.30921 0)
(2.64765 -1.41312 0)
(2.6073 -1.50753 0)
(2.56881 -1.59347 0)
(2.52717 -1.66376 0)
(2.4872 -1.72493 0)
(2.4444 -1.76569 0)
(2.40252 -1.80214 0)
(2.35829 -1.81273 0)
(2.31355 -1.83202 0)
(2.70254 -1.15007 0)
(2.68714 -1.23212 0)
(2.66988 -1.30597 0)
(2.65365 -1.37647 0)
(2.63268 -1.43169 0)
(2.60996 -1.48465 0)
(2.58303 -1.51616 0)
(2.55373 -1.55154 0)
(2.52244 -1.56078 0)
(2.48775 -1.58415 0)
(2.77826 -1.22124 0)
(2.75879 -1.31435 0)
(2.73171 -1.3944 0)
(2.70075 -1.46712 0)
(2.66306 -1.51891 0)
(2.6222 -1.56474 0)
(2.57733 -1.58475 0)
(2.52959 -1.60582 0)
(2.48221 -1.6001 0)
(2.43126 -1.60645 0)
(2.78326 -1.01057 0)
(2.76282 -1.08166 0)
(2.73563 -1.14346 0)
(2.71309 -1.20486 0)
(2.68472 -1.24832 0)
(2.66226 -1.29593 0)
(2.63385 -1.31895 0)
(2.61162 -1.35293 0)
(2.58381 -1.35705 0)
(2.56018 -1.38186 0)
(2.7094 -1.16884 0)
(2.68656 -1.24719 0)
(2.65915 -1.31065 0)
(2.6355 -1.36935 0)
(2.60664 -1.40484 0)
(2.57988 -1.44202 0)
(2.55096 -1.44917 0)
(2.52106 -1.46541 0)
(2.49163 -1.44818 0)
(2.45736 -1.45275 0)
(2.91773 -0.874936 0)
(2.92911 -0.939298 0)
(2.93231 -0.993446 0)
(2.93496 -1.05883 0)
(2.92752 -1.09823 0)
(2.9184 -1.15169 0)
(2.90117 -1.16914 0)
(2.88196 -1.20215 0)
(2.8516 -1.19739 0)
(2.82187 -1.21715 0)
(2.77504 -1.14749 0)
(2.76155 -1.21673 0)
(2.73368 -1.26753 0)
(2.71189 -1.31755 0)
(2.68001 -1.33375 0)
(2.65607 -1.35514 0)
(2.62463 -1.33776 0)
(2.60052 -1.33038 0)
(2.5744 -1.29102 0)
(2.5508 -1.27074 0)
(2.92559 -0.864697 0)
(2.93993 -0.91162 0)
(2.94172 -0.944956 0)
(2.95169 -0.997641 0)
(2.94763 -1.0184 0)
(2.95116 -1.06398 0)
(2.93671 -1.07018 0)
(2.93145 -1.0997 0)
(2.90469 -1.08343 0)
(2.89118 -1.1032 0)
(2.86411 -1.11346 0)
(2.88162 -1.17208 0)
(2.89023 -1.20769 0)
(2.9093 -1.24739 0)
(2.90784 -1.25015 0)
(2.91526 -1.26354 0)
(2.89706 -1.24059 0)
(2.89393 -1.22284 0)
(2.86837 -1.17474 0)
(2.86097 -1.13976 0)
(2.90981 -1.0288 0)
(2.94921 -1.0526 0)
(2.98301 -1.06329 0)
(3.01752 -1.07779 0)
(3.02347 -1.07435 0)
(3.04175 -1.08564 0)
(3.03035 -1.0733 0)
(3.04127 -1.06937 0)
(3.0202 -1.03129 0)
(3.0212 -1.01654 0)
(2.89913 -1.25146 0)
(2.97706 -1.25627 0)
(3.04062 -1.26035 0)
(3.07278 -1.24452 0)
(3.08808 -1.23285 0)
(3.10889 -1.20156 0)
(3.11566 -1.17095 0)
(3.13109 -1.10538 0)
(3.11885 -1.03982 0)
(3.10646 -0.961547 0)
(2.96382 -1.41405 0)
(3.08575 -1.41466 0)
(3.15839 -1.42886 0)
(3.14393 -1.42227 0)
(3.15546 -1.41023 0)
(3.14248 -1.35282 0)
(3.15288 -1.27191 0)
(3.11764 -1.08589 0)
(3.07232 -0.960955 0)
(2.96325 -0.763659 0)
(2.86592 -1.27538 0)
(2.90949 -1.11199 0)
(2.87007 -1.05883 0)
(2.76281 -1.08185 0)
(2.80821 -1.09406 0)
(2.75146 -1.18984 0)
(2.83825 -1.1146 0)
(2.74533 -0.979858 0)
(2.59547 -0.841638 0)
(2.26432 -0.641731 0)
(3.31142 -2.05888 0)
(2.65364 -1.81595 0)
(1.91117 -1.72325 0)
(1.36772 -1.63577 0)
(0.943256 -1.75645 0)
(0.262739 -1.61552 0)
(-0.196592 -0.525931 0)
(-0.406522 0.117394 0)
(-0.596708 0.274717 0)
(-0.716152 0.336751 0)
(1.83878 -2.48869 0)
(1.27323 -2.24228 0)
(0.827763 -1.9064 0)
(0.514876 -1.56003 0)
(0.314674 -1.24816 0)
(0.192121 -0.988233 0)
(0.118792 -0.779489 0)
(0.0751038 -0.614096 0)
(0.0487847 -0.483524 0)
(0.0326043 -0.38041 0)
(0.0224047 -0.298841 0)
(0.0158031 -0.234158 0)
(0.0114214 -0.182699 0)
(0.00844873 -0.141563 0)
(0.00639812 -0.108435 0)
(0.00497093 -0.0814486 0)
(0.00398061 -0.0590781 0)
(0.00330859 -0.0400464 0)
(0.0028866 -0.0232635 0)
(0.00266137 -0.00782179 0)
(1.93814 -2.21475 0)
(1.42718 -2.00723 0)
(0.999975 -1.73387 0)
(0.674065 -1.44783 0)
(0.448101 -1.18002 0)
(0.296677 -0.947843 0)
(0.197266 -0.755639 0)
(0.132759 -0.599885 0)
(0.0908712 -0.474898 0)
(0.0634056 -0.375046 0)
(0.0451209 -0.295414 0)
(0.0327336 -0.231912 0)
(0.0241957 -0.181191 0)
(0.0182227 -0.140532 0)
(0.0140002 -0.107721 0)
(0.0110048 -0.0809535 0)
(0.00889737 -0.0587394 0)
(0.00745555 -0.0398254 0)
(0.00655136 -0.0231371 0)
(0.00607869 -0.00777963 0)
(1.92395 -2.22203 0)
(1.39961 -1.9923 0)
(0.980803 -1.69951 0)
(0.669018 -1.40804 0)
(0.458077 -1.14561 0)
(0.318104 -0.921736 0)
(0.224014 -0.736965 0)
(0.159848 -0.586884 0)
(0.115527 -0.465926 0)
(0.0845639 -0.368842 0)
(0.0626868 -0.291089 0)
(0.0470566 -0.228864 0)
(0.0357774 -0.179021 0)
(0.0275763 -0.138973 0)
(0.0215926 -0.106599 0)
(0.017241 -0.0801496 0)
(0.0141236 -0.0581755 0)
(0.0119682 -0.0394506 0)
(0.0106175 -0.0229205 0)
(0.00993278 -0.00770693 0)
(2.04939 -1.95888 0)
(1.56094 -1.78575 0)
(1.14269 -1.56053 0)
(0.803532 -1.32047 0)
(0.556086 -1.09083 0)
(0.386498 -0.886959 0)
(0.272955 -0.714248 0)
(0.196458 -0.571592 0)
(0.143862 -0.45537 0)
(0.106919 -0.361409 0)
(0.0804855 -0.285773 0)
(0.0612908 -0.225014 0)
(0.0471999 -0.176207 0)
(0.0367865 -0.136906 0)
(0.029079 -0.105082 0)
(0.0234071 -0.0790467 0)
(0.0193077 -0.0573939 0)
(0.0164594 -0.0389289 0)
(0.0146745 -0.0226212 0)
(0.0137849 -0.0076077 0)
(2.00708 -1.96196 0)
(1.50922 -1.74429 0)
(1.11117 -1.49361 0)
(0.806951 -1.25646 0)
(0.585715 -1.04072 0)
(0.42487 -0.851058 0)
(0.309758 -0.689346 0)
(0.228204 -0.554315 0)
(0.170125 -0.443213 0)
(0.128273 -0.352709 0)
(0.097721 -0.279451 0)
(0.0751643 -0.220365 0)
(0.0583716 -0.172761 0)
(0.0458141 -0.134343 0)
(0.0364285 -0.10318 0)
(0.0294681 -0.0776527 0)
(0.0244089 -0.0564005 0)
(0.0208822 -0.0382643 0)
(0.0186699 -0.0222411 0)
(0.0175757 -0.00748237 0)
(2.14792 -1.72611 0)
(1.67966 -1.57776 0)
(1.25391 -1.38207 0)
(0.901434 -1.18082 0)
(0.648492 -0.98833 0)
(0.471759 -0.814181 0)
(0.347466 -0.663222 0)
(0.259141 -0.535676 0)
(0.195461 -0.429769 0)
(0.148895 -0.34289 0)
(0.11442 -0.272197 0)
(0.0886487 -0.214957 0)
(0.0692577 -0.168706 0)
(0.0546282 -0.131299 0)
(0.0436152 -0.100905 0)
(0.0354019 -0.075975 0)
(0.0294073 -0.0552002 0)
(0.0252181 -0.0374596 0)
(0.0225862 -0.021781 0)
(0.0212884 -0.00733081 0)
(2.08147 -1.72312 0)
(1.60779 -1.50636 0)
(1.23306 -1.29471 0)
(0.923988 -1.10652 0)
(0.686902 -0.933076 0)
(0.510505 -0.774827 0)
(0.381778 -0.635233 0)
(0.28822 -0.515526 0)
(0.219601 -0.415051 0)
(0.16869 -0.331999 0)
(0.13053 -0.264053 0)
(0.101702 -0.208822 0)
(0.0798233 -0.164065 0)
(0.0631994 -0.127789 0)
(0.0506142 -0.0982664 0)
(0.0411872 -0.0740215 0)
(0.0342846 -0.0537984 0)
(0.0294512 -0.0365182 0)
(0.026409 -0.0212423 0)
(0.02491 -0.00715311 0)
(2.28422 -1.52355 0)
(1.77983 -1.37113 0)
(1.33641 -1.19613 0)
(0.983167 -1.03335 0)
(0.730482 -0.878712 0)
(0.547667 -0.734943 0)
(0.413967 -0.606127 0)
(0.315643 -0.494159 0)
(0.242544 -0.3992 0)
(0.187624 -0.320116 0)
(0.146009 -0.25507 0)
(0.114289 -0.201994 0)
(0.090036 -0.158863 0)
(0.0715 -0.123832 0)
(0.0574019 -0.0952783 0)
(0.0468039 -0.0718012 0)
(0.0390235 -0.0522013 0)
(0.0335658 -0.0354438 0)
(0.0301244 -0.0206264 0)
(0.0284277 -0.00694957 0)
(2.18911 -1.47105 0)
(1.71471 -1.27314 0)
(1.33743 -1.0978 0)
(1.0119 -0.956051 0)
(0.765036 -0.822056 0)
(0.580822 -0.693712 0)
(0.44367 -0.575861 0)
(0.341343 -0.471675 0)
(0.264255 -0.382309 0)
(0.205658 -0.307311 0)
(0.160822 -0.245299 0)
(0.126373 -0.194509 0)
(0.0998654 -0.153125 0)
(0.0795035 -0.119447 0)
(0.0639556 -0.0919537 0)
(0.0522326 -0.0693237 0)
(0.043607 -0.0504154 0)
(0.0375472 -0.0342406 0)
(0.0337192 -0.0199354 0)
(0.0318295 -0.00672065 0)
(2.40263 -1.30155 0)
(1.85501 -1.15255 0)
(1.40423 -1.00118 0)
(1.05014 -0.881345 0)
(0.797461 -0.765895 0)
(0.610986 -0.651989 0)
(0.471034 -0.544749 0)
(0.365336 -0.448239 0)
(0.284717 -0.364484 0)
(0.222766 -0.293656 0)
(0.174937 -0.234789 0)
(0.137925 -0.186404 0)
(0.109283 -0.146878 0)
(0.0871852 -0.114651 0)
(0.0702539 -0.0883067 0)
(0.0574547 -0.0665993 0)
(0.0480191 -0.0484481 0)
(0.0413811 -0.0329133 0)
(0.0371805 -0.0191716 0)
(0.0351037 -0.00646698 0)
(2.28788 -1.24876 0)
(1.81308 -1.04328 0)
(1.41556 -0.897642 0)
(1.07359 -0.803507 0)
(0.824237 -0.708894 0)
(0.637785 -0.609745 0)
(0.496056 -0.512948 0)
(0.387632 -0.423983 0)
(0.303921 -0.34582 0)
(0.238925 -0.279218 0)
(0.188327 -0.223591 0)
(0.148916 -0.177714 0)
(0.118264 -0.140148 0)
(0.094522 -0.109466 0)
(0.0762766 -0.0843525 0)
(0.0624527 -0.0636392 0)
(0.0522444 -0.0463073 0)
(0.045054 -0.031467 0)
(0.0404962 -0.0183377 0)
(0.0382388 -0.00618932 0)
(2.57502 -1.0824 0)
(1.92399 -0.92358 0)
(1.45731 -0.796577 0)
(1.09672 -0.727257 0)
(0.847284 -0.652364 0)
(0.661502 -0.567406 0)
(0.518817 -0.48067 0)
(0.408258 -0.399043 0)
(0.321865 -0.32641 0)
(0.254119 -0.264065 0)
(0.200969 -0.211753 0)
(0.159322 -0.168477 0)
(0.126784 -0.132964 0)
(0.101492 -0.103913 0)
(0.0820044 -0.0801069 0)
(0.0672099 -0.060455 0)
(0.0562683 -0.0440011 0)
(0.0485528 -0.0299071 0)
(0.0436545 -0.0174366 0)
(0.0412243 -0.00588856 0)
(2.44537 -0.981615 0)
(1.89677 -0.793875 0)
(1.46519 -0.686983 0)
(1.10926 -0.649712 0)
(0.865405 -0.59612 0)
(0.682107 -0.52519 0)
(0.539386 -0.448096 0)
(0.427256 -0.373539 0)
(0.338559 -0.306339 0)
(0.268336 -0.24826 0)
(0.212842 -0.199323 0)
(0.16912 -0.158729 0)
(0.13482 -0.125353 0)
(0.108075 -0.098013 0)
(0.0874196 -0.0755862 0)
(0.0717105 -0.0570588 0)
(0.0600771 -0.0415383 0)
(0.0518653 -0.0282395 0)
(0.0466446 -0.0164715 0)
(0.0440497 -0.0055657 0)
(2.67536 -0.851982 0)
(1.95654 -0.671693 0)
(1.48 -0.579743 0)
(1.11623 -0.573947 0)
(0.87924 -0.541028 0)
(0.699784 -0.483452 0)
(0.557872 -0.415409 0)
(0.444678 -0.347585 0)
(0.354016 -0.285687 0)
(0.281569 -0.231861 0)
(0.22393 -0.186347 0)
(0.17829 -0.148506 0)
(0.142352 -0.117344 0)
(0.114253 -0.0917882 0)
(0.0925055 -0.0708073 0)
(0.07594 -0.0534634 0)
(0.0636578 -0.0389281 0)
(0.0549801 -0.0264702 0)
(0.0494559 -0.0154459 0)
(0.0467055 -0.00522188 0)
(2.68986 -0.707742 0)
(1.93629 -0.524632 0)
(1.46797 -0.465991 0)
(1.11214 -0.49944 0)
(0.888286 -0.48758 0)
(0.714652 -0.442515 0)
(0.574404 -0.382777 0)
(0.46059 -0.321279 0)
(0.368259 -0.264522 0)
(0.293817 -0.214923 0)
(0.234219 -0.17287 0)
(0.186815 -0.137844 0)
(0.149363 -0.108966 0)
(0.120008 -0.085261 0)
(0.0972464 -0.0657877 0)
(0.0798846 -0.0496819 0)
(0.0669984 -0.0361802 0)
(0.0578864 -0.0246058 0)
(0.0520787 -0.0143634 0)
(0.0491827 -0.00485828 0)
(2.78825 -0.555226 0)
(1.90106 -0.385812 0)
(1.43449 -0.356177 0)
(1.09655 -0.429312 0)
(0.89271 -0.436876 0)
(0.726961 -0.402768 0)
(0.589144 -0.35035 0)
(0.475071 -0.294701 0)
(0.381313 -0.242906 0)
(0.305079 -0.197498 0)
(0.243697 -0.158933 0)
(0.194677 -0.126778 0)
(0.155835 -0.100246 0)
(0.125324 -0.0784543 0)
(0.101628 -0.0605451 0)
(0.0835316 -0.045728 0)
(0.0700875 -0.0333044 0)
(0.0605741 -0.022653 0)
(0.0545041 -0.013228 0)
(0.0514727 -0.00447623 0)
(2.78578 -0.359213 0)
(1.76795 -0.188567 0)
(1.35661 -0.239149 0)
(1.06525 -0.364855 0)
(0.892423 -0.390097 0)
(0.737023 -0.364606 0)
(0.602293 -0.318246 0)
(0.488208 -0.267912 0)
(0.393206 -0.220889 0)
(0.315357 -0.179631 0)
(0.252355 -0.144578 0)
(0.201864 -0.115343 0)
(0.161754 -0.0912137 0)
(0.130187 -0.0713912 0)
(0.105638 -0.0550978 0)
(0.0868693 -0.0416156 0)
(0.072915 -0.030311 0)
(0.0630342 -0.0206188 0)
(0.0567236 -0.0120438 0)
(0.0535678 -0.0040771 0)
(2.5086 -0.150325 0)
(1.44019 -0.0770735 0)
(1.20167 -0.166749 0)
(1.01417 -0.319037 0)
(0.887699 -0.35003 0)
(0.745305 -0.328534 0)
(0.614092 -0.286549 0)
(0.500095 -0.240948 0)
(0.403969 -0.198509 0)
(0.324653 -0.161362 0)
(0.260183 -0.129842 0)
(0.208361 -0.103572 0)
(0.167105 -0.0818972 0)
(0.134585 -0.0640947 0)
(0.109263 -0.0494642 0)
(0.089887 -0.0373589 0)
(0.0754713 -0.0272105 0)
(0.065258 -0.0185105 0)
(0.0587296 -0.010815 0)
(0.0554609 -0.00366235 0)
(1.70503 0.163568 0)
(0.887457 0.128706 0)
(1.02103 -0.104211 0)
(0.958783 -0.28871 0)
(0.882144 -0.316979 0)
(0.752804 -0.294668 0)
(0.624848 -0.255263 0)
(0.51083 -0.213824 0)
(0.413629 -0.175799 0)
(0.332969 -0.14273 0)
(0.267174 -0.114763 0)
(0.214158 -0.0914985 0)
(0.171876 -0.0723251 0)
(0.138504 -0.0565886 0)
(0.112493 -0.0436633 0)
(0.0925752 -0.0329726 0)
(0.0777479 -0.0240137 0)
(0.0672381 -0.0163354 0)
(0.0605153 -0.00954612 0)
(0.0571456 -0.00323349 0)
(-0.0825101 0.265948 0)
(0.109812 0.0710783 0)
(0.824374 -0.17586 0)
(0.903024 -0.292857 0)
(0.877432 -0.293194 0)
(0.760278 -0.263046 0)
(0.634836 -0.224322 0)
(0.520495 -0.186539 0)
(0.422206 -0.152795 0)
(0.340305 -0.123783 0)
(0.273319 -0.0993903 0)
(0.219243 -0.0791665 0)
(0.176055 -0.0625345 0)
(0.141933 -0.048903 0)
(0.115318 -0.0377189 0)
(0.0949248 -0.0284752 0)
(0.0797375 -0.0207344 0)
(0.0689673 -0.014103 0)
(0.0620748 -0.00824256 0)
(0.0586162 -0.00279233 0)
(-0.12178 -0.00963793 0)
(0.041974 -0.0514564 0)
(0.801724 -0.253735 0)
(0.898338 -0.303909 0)
(0.881762 -0.280078 0)
(0.766841 -0.24178 0)
(0.641523 -0.202714 0)
(0.526549 -0.167279 0)
(0.427452 -0.13648 0)
(0.344745 -0.110313 0)
(0.277017 -0.088444 0)
(0.222295 -0.070376 0)
(0.178556 -0.0555497 0)
(0.143984 -0.043417 0)
(0.117004 -0.0334737 0)
(0.0963267 -0.0252624 0)
(0.0809245 -0.018391 0)
(0.0699979 -0.0125073 0)
(0.0630047 -0.00731013 0)
(0.0594923 -0.00247657 0)
(-0.172555 0.106264 0)
(0.0158727 -0.0897958 0)
(0.794241 -0.294265 0)
(0.898773 -0.309404 0)
(0.885378 -0.272461 0)
(0.770899 -0.229576 0)
(0.645304 -0.19034 0)
(0.529866 -0.156236 0)
(0.430288 -0.127107 0)
(0.34713 -0.102563 0)
(0.278997 -0.0821401 0)
(0.223924 -0.0653095 0)
(0.17989 -0.0515217 0)
(0.145076 -0.0402519 0)
(0.117902 -0.0310237 0)
(0.097072 -0.0234078 0)
(0.0815551 -0.017038 0)
(0.0705453 -0.0115859 0)
(0.0634984 -0.00677146 0)
(0.0599574 -0.00229424 0)
(-0.2334 0.0514995 0)
(0.03776 -0.147955 0)
(0.799029 -0.337894 0)
(0.903772 -0.316038 0)
(0.890204 -0.265101 0)
(0.775229 -0.217375 0)
(0.649024 -0.177919 0)
(0.533028 -0.145142 0)
(0.432955 -0.117686 0)
(0.349357 -0.0947696 0)
(0.280838 -0.0757971 0)
(0.225436 -0.0602095 0)
(0.181126 -0.0474657 0)
(0.146087 -0.037064 0)
(0.118732 -0.0285554 0)
(0.0977609 -0.0215392 0)
(0.0821376 -0.0156745 0)
(0.0710507 -0.0106573 0)
(0.0639539 -0.00622841 0)
(0.0603865 -0.00211041 0)
(-0.282355 0.0958994 0)
(0.10204 -0.205725 0)
(0.821978 -0.379132 0)
(0.91515 -0.322106 0)
(0.896591 -0.257526 0)
(0.779876 -0.205064 0)
(0.652687 -0.165423 0)
(0.536033 -0.133991 0)
(0.435452 -0.108218 0)
(0.351426 -0.0869348 0)
(0.282541 -0.069419 0)
(0.22683 -0.0550801 0)
(0.182263 -0.0433853 0)
(0.147016 -0.0338564 0)
(0.119494 -0.0260716 0)
(0.0983929 -0.0196586 0)
(0.0826716 -0.0143022 0)
(0.071514 -0.00972255 0)
(0.0643711 -0.0056817 0)
(0.0607795 -0.00192528 0)
(-0.285131 0.0950592 0)
(0.236255 -0.267298 0)
(0.871605 -0.416172 0)
(0.935204 -0.326794 0)
(0.904947 -0.249426 0)
(0.784883 -0.192552 0)
(0.656292 -0.15283 0)
(0.538882 -0.122777 0)
(0.437777 -0.0987009 0)
(0.353335 -0.0790602 0)
(0.284105 -0.0630075 0)
(0.228106 -0.0499228 0)
(0.183302 -0.0392822 0)
(0.147863 -0.0306305 0)
(0.120188 -0.0235734 0)
(0.0989679 -0.0177669 0)
(0.0831568 -0.0129218 0)
(0.0719348 -0.00878216 0)
(0.0647498 -0.00513158 0)
(0.0611363 -0.00173894 0)
(-0.206987 0.084904 0)
(0.437762 -0.332484 0)
(0.951542 -0.445568 0)
(0.965525 -0.328549 0)
(0.915612 -0.240302 0)
(0.790282 -0.17972 0)
(0.659837 -0.140111 0)
(0.54157 -0.111495 0)
(0.439931 -0.0891359 0)
(0.355085 -0.0711473 0)
(0.285529 -0.0565644 0)
(0.229263 -0.0447396 0)
(0.184242 -0.035158 0)
(0.148627 -0.0273877 0)
(0.120813 -0.0210619 0)
(0.0994854 -0.0158651 0)
(0.0835931 -0.0115338 0)
(0.0723129 -0.00783658 0)
(0.0650899 -0.00457834 0)
(0.0614565 -0.00155151 0)
(0.0327751 0.0924769 0)
(0.679622 -0.394506 0)
(1.055 -0.465117 0)
(1.0054 -0.326063 0)
(0.928599 -0.229655 0)
(0.796064 -0.166437 0)
(0.663313 -0.127239 0)
(0.544095 -0.100139 0)
(0.44191 -0.0795231 0)
(0.356674 -0.063198 0)
(0.286813 -0.0500921 0)
(0.230301 -0.0395326 0)
(0.185082 -0.0310146 0)
(0.149308 -0.0241296 0)
(0.12137 -0.0185384 0)
(0.0999451 -0.0139541 0)
(0.0839802 -0.010139 0)
(0.0726482 -0.00688633 0)
(0.0653911 -0.00402228 0)
(0.0617402 -0.0013631 0)
(0.506045 -0.00703378 0)
(0.921376 -0.440276 0)
(1.16442 -0.473826 0)
(1.05073 -0.318698 0)
(0.943334 -0.217155 0)
(0.802143 -0.152606 0)
(0.666703 -0.114191 0)
(0.546451 -0.0887062 0)
(0.443714 -0.0698634 0)
(0.358102 -0.0552143 0)
(0.287956 -0.0435928 0)
(0.231219 -0.0343041 0)
(0.185822 -0.026854 0)
(0.149907 -0.0208578 0)
(0.121857 -0.0160042 0)
(0.100347 -0.0120349 0)
(0.0843179 -0.00873827 0)
(0.0729404 -0.00593197 0)
(0.0656533 -0.00346375 0)
(0.061987 -0.00117383 0)
(1.10311 -0.0234014 0)
(1.14006 -0.459025 0)
(1.26204 -0.472721 0)
(1.09556 -0.306626 0)
(0.958709 -0.202672 0)
(0.808354 -0.138164 0)
(0.669984 -0.10095 0)
(0.548635 -0.0771922 0)
(0.445342 -0.0601569 0)
(0.359368 -0.0471979 0)
(0.288958 -0.0370686 0)
(0.232017 -0.029056 0)
(0.186461 -0.0226779 0)
(0.150421 -0.0175739 0)
(0.122275 -0.0134606 0)
(0.100691 -0.0101086 0)
(0.0846059 -0.00733233 0)
(0.0731893 -0.00497402 0)
(0.0658763 -0.00290306 0)
(0.0621969 -0.000983819 0)
(1.49345 -0.282218 0)
(1.29786 -0.481661 0)
(1.34169 -0.464959 0)
(1.13584 -0.290514 0)
(0.973565 -0.186038 0)
(0.814491 -0.122977 0)
(0.673129 -0.0874656 0)
(0.550645 -0.065578 0)
(0.446794 -0.0503965 0)
(0.360473 -0.0391464 0)
(0.289819 -0.030519 0)
(0.232696 -0.0237887 0)
(0.187001 -0.0184871 0)
(0.150853 -0.0142786 0)
(0.122623 -0.0109083 0)
(0.100976 -0.00817574 0)
(0.0848443 -0.00592161 0)
(0.073395 -0.00401284 0)
(0.06606 -0.00234045 0)
(0.0623696 -0.000793093 0)
(1.88138 -0.111195 0)
(1.66776 -0.417733 0)
(1.50291 -0.421467 0)
(1.21334 -0.247741 0)
(1.00305 -0.145207 0)
(0.827163 -0.0879177 0)
(0.679596 -0.0574116 0)
(0.554648 -0.0400245 0)
(0.449593 -0.0290255 0)
(0.362545 -0.021547 0)
(0.291401 -0.0162124 0)
(0.233921 -0.012287 0)
(0.187962 -0.00933759 0)
(0.151613 -0.0070852 0)
(0.123232 -0.00533711 0)
(0.101472 -0.00395704 0)
(0.0852554 -0.00284242 0)
(0.0737483 -0.0019149 0)
(0.0663742 -0.0011125 0)
(0.0626647 -0.000376426 0)
(2.93543 -0.342746 0)
(2.17216 -0.412604 0)
(1.62232 -0.304141 0)
(1.2472 -0.149153 0)
(1.01848 -0.0715395 0)
(0.837771 -0.0305226 0)
(0.68593 -0.00973413 0)
(0.558242 3.92268e-05 0)
(0.451679 0.00428243 0)
(0.363799 0.00579175 0)
(0.292179 0.00596921 0)
(0.234416 0.00552459 0)
(0.188284 0.00482037 0)
(0.151825 0.00404126 0)
(0.123375 0.00327602 0)
(0.10157 0.00256488 0)
(0.0853247 0.00191604 0)
(0.0738002 0.00132765 0)
(0.0664151 0.000785029 0)
(0.0627009 0.000267769 0)
(2.69945 0.167331 0)
(1.96786 -0.0426787 0)
(1.56494 -0.109835 0)
(1.25711 -0.05379 0)
(1.03214 -0.00153857 0)
(0.846245 0.0275708 0)
(0.689722 0.0390991 0)
(0.559368 0.0408126 0)
(0.451538 0.0379559 0)
(0.363114 0.033309 0)
(0.291305 0.0282343 0)
(0.233524 0.0233721 0)
(0.187453 0.0189905 0)
(0.151082 0.0151672 0)
(0.122725 0.0118844 0)
(0.101005 0.00907925 0)
(0.0848302 0.00666822 0)
(0.0733598 0.00456453 0)
(0.0660118 0.00267923 0)
(0.0623178 0.000910479 0)
(2.68853 0.0591367 0)
(2.12714 -0.0401575 0)
(1.68535 -0.0283425 0)
(1.3154 0.0350619 0)
(1.0524 0.0744164 0)
(0.852156 0.0891652 0)
(0.690352 0.0894033 0)
(0.557768 0.082179 0)
(0.449067 0.0718522 0)
(0.360446 0.0608797 0)
(0.28876 0.0504759 0)
(0.231238 0.0411639 0)
(0.185464 0.033095 0)
(0.149383 0.0262296 0)
(0.121283 0.0204361 0)
(0.0997778 0.0155471 0)
(0.0837735 0.0113839 0)
(0.0724296 0.00777547 0)
(0.0651662 0.0045573 0)
(0.0615172 0.00154739 0)
(2.60987 0.399075 0)
(2.04872 0.248457 0)
(1.63534 0.164558 0)
(1.30474 0.154141 0)
(1.05235 0.156726 0)
(0.851274 0.15263 0)
(0.687172 0.140592 0)
(0.553263 0.123926 0)
(0.444187 0.105843 0)
(0.355755 0.0883968 0)
(0.284525 0.0725967 0)