/*--------------------------------*- C++ -*----------------------------------*\
| =========                 |                                                 |
| \\      /  F ield         | OpenFOAM: The Open Source CFD Toolbox           |
|  \\    /   O peration     | Version:  v1806                                 |
|   \\  /    A nd           | Web:      www.OpenFOAM.com                      |
|    \\/     M anipulation  |                                                 |
\*---------------------------------------------------------------------------*/
FoamFile
{
    version     2.0;
    format      ascii;
    class       volVectorField;
    location    "5";
    object      U;
}
// * * * * * * * * * * * * * * * * * * * * * * * * * * * * * * * * * * * * * //

dimensions      [0 1 -1 0 0 0 0];


internalField   nonuniform List<vector> 
24000
(
(2.54953 0.024983 0.0900811)
(2.10704 0.0287896 0.0729242)
(1.65461 0.0230029 0.046466)
(1.33656 0.0186606 0.0238857)
(1.15846 0.0159478 0.00887738)
(1.05226 0.0141315 0.00293924)
(0.980625 0.0125634 0.00117493)
(0.926913 0.011056 0.000652331)
(0.886864 0.00939196 0.00047924)
(0.854007 0.00781705 0.000592631)
(0.828881 0.00633817 0.000619953)
(0.806793 0.0051623 0.000737736)
(0.790646 0.00397299 0.000688692)
(0.776137 0.00299143 0.00074075)
(0.766635 0.00176697 0.000709986)
(0.757743 0.00157709 0.000719529)
(0.751893 0.000625693 0.000681193)
(0.746347 0.0015968 0.000540287)
(0.741473 0.00053433 0.000603522)
(0.736953 0.00180423 -0.000320124)
(2.59057 0.0317757 0.0910447)
(2.18934 0.0378294 0.0745682)
(1.79085 0.0312675 0.0483467)
(1.49901 0.0265266 0.0270636)
(1.33032 0.0232319 0.0117083)
(1.23226 0.0205601 0.00462295)
(1.17195 0.0180505 0.00212194)
(1.12867 0.0156386 0.00126111)
(1.1007 0.0130874 0.000902058)
(1.07665 0.0103957 0.000852825)
(1.06221 0.0077234 0.000843555)
(1.04628 0.00529988 0.000881195)
(1.03983 0.00303585 0.000857282)
(1.02915 0.00125377 0.000853825)
(1.02905 -0.00113436 0.000805046)
(1.0213 -0.00204231 0.000825032)
(1.02626 -0.00371432 0.000781846)
(1.01875 -0.00256595 0.000929953)
(1.02615 -0.00288877 0.000697377)
(1.01556 -0.00140238 -0.00114868)
(2.58988 0.014376 0.0911178)
(2.18135 0.0223076 0.0742857)
(1.78825 0.0216884 0.0476352)
(1.50335 0.0203858 0.0267218)
(1.33843 0.0186474 0.0116365)
(1.24337 0.0163144 0.00455152)
(1.18618 0.0137581 0.00203263)
(1.14593 0.011179 0.00115265)
(1.12102 0.0086153 0.000799695)
(1.09996 0.00575752 0.000712208)
(1.08854 0.0027713 0.000721852)
(1.07542 -0.000206847 0.000717528)
(1.07182 -0.00310227 0.000702663)
(1.06355 -0.00540209 0.000623283)
(1.06683 -0.00812736 0.000526754)
(1.06098 -0.00978289 0.000567462)
(1.06983 -0.0113864 0.000444156)
(1.06349 -0.0110209 0.000687482)
(1.07414 -0.0100111 0.00037636)
(1.06542 -0.00832791 -0.00185946)
(2.5892 0.0121382 0.0913608)
(2.172 0.0214135 0.0746179)
(1.77688 0.0223304 0.0476908)
(1.49349 0.0210636 0.0267836)
(1.33019 0.0190613 0.0117392)
(1.23623 0.0162977 0.00462072)
(1.18039 0.0132503 0.00205266)
(1.14101 0.0100468 0.00116393)
(1.11711 0.00685642 0.00080011)
(1.0967 0.00341227 0.000683898)
(1.08628 -0.000146024 0.000663358)
(1.07369 -0.00370315 0.000682605)
(1.07113 -0.0073344 0.000670976)
(1.06318 -0.0104981 0.000649931)
(1.06782 -0.0137248 0.000523233)
(1.06251 -0.0160144 0.000585306)
(1.07302 -0.017656 0.000432123)
(1.06746 -0.0175891 0.00071249)
(1.07958 -0.0162725 0.000361209)
(1.0721 -0.0134432 -0.00197581)
(2.58878 0.00812516 0.0914827)
(2.16643 0.0151446 0.0747109)
(1.77 0.0170286 0.0475669)
(1.4875 0.016534 0.0265745)
(1.32504 0.0152291 0.0115701)
(1.23145 0.0126833 0.00448411)
(1.17599 0.00985456 0.00193378)
(1.13683 0.00647625 0.00107072)
(1.11306 0.00314889 0.000743885)
(1.09265 -0.000703188 0.000652871)
(1.08235 -0.004617 0.000602503)
(1.06995 -0.00880374 0.000573306)
(1.06784 -0.0129616 0.000502839)
(1.06019 -0.0169606 0.000513915)
(1.06545 -0.020663 0.000397417)
(1.06084 -0.0236994 0.000480932)
(1.07235 -0.02559 0.000342014)
(1.06802 -0.0258626 0.000608153)
(1.08129 -0.0240766 0.000281522)
(1.07503 -0.0202665 -0.00204247)
(2.5885 0.00638626 0.0915726)
(2.16301 0.0122786 0.0748142)
(1.76522 0.0149952 0.0476145)
(1.48246 0.0147446 0.0266125)
(1.31998 0.0138208 0.0116335)
(1.22627 0.0110965 0.00454505)
(1.17089 0.00835492 0.00198164)
(1.13176 0.00456763 0.00109907)
(1.10809 0.00100321 0.000755901)
(1.08759 -0.00340198 0.000685847)
(1.07722 -0.00776099 0.000686637)
(1.06468 -0.0127562 0.000695639)
(1.0626 -0.0175708 0.000614376)
(1.0551 -0.0225991 0.00060573)
(1.06076 -0.0270634 0.000466771)
(1.05691 -0.0310144 0.000537729)
(1.06945 -0.0334589 0.000390231)
(1.06664 -0.0340884 0.000644841)
(1.08144 -0.0320763 0.000321216)
(1.07714 -0.0272422 -0.00205008)
(2.58821 0.0052846 0.0916594)
(2.16044 0.00928315 0.0748737)
(1.76162 0.0121711 0.0476349)
(1.47857 0.0116375 0.0265908)
(1.31587 0.0112108 0.011627)
(1.22205 0.00812332 0.00451706)
(1.16655 0.00573614 0.00197177)
(1.12732 0.00144746 0.00109366)
(1.10354 -0.0021007 0.000770132)
(1.08291 -0.00720473 0.000644761)
(1.07258 -0.0117718 0.000612576)
(1.05995 -0.017701 0.000626351)
(1.05806 -0.0230841 0.000559238)
(1.05068 -0.0292951 0.00056602)
(1.05682 -0.034568 0.000427448)
(1.0537 -0.0396602 0.00050373)
(1.06747 -0.0428244 0.0003511)
(1.06638 -0.0440249 0.000607259)
(1.08323 -0.0418606 0.000281)
(1.08133 -0.0359258 -0.00210116)
(2.58783 0.00474517 0.091751)
(2.15837 0.00672986 0.0748869)
(1.75892 0.0100068 0.047632)
(1.47567 0.00894782 0.0265626)
(1.31236 0.00931403 0.0116594)
(1.21841 0.00557056 0.00449315)
(1.16253 0.00389564 0.0019913)
(1.12323 -0.00119087 0.00105227)
(1.09919 -0.00430701 0.000790466)
(1.0782 -0.010476 0.000674944)
(1.06761 -0.0149464 0.000675034)
(1.05456 -0.0222398 0.000658255)
(1.0527 -0.0279658 0.000594372)
(1.04518 -0.0358489 0.000595349)
(1.05187 -0.0419396 0.000453131)
(1.04939 -0.0487457 0.000541106)
(1.06463 -0.0528479 0.000372276)
(1.0655 -0.0551059 0.00063493)
(1.085 -0.0529856 0.000293596)
(1.08623 -0.0460732 -0.00211952)
(2.58727 0.00458916 0.091862)
(2.15656 0.00443915 0.0748667)
(1.75667 0.00833368 0.0476301)
(1.47352 0.00630581 0.0265187)
(1.30908 0.0077288 0.0117374)
(1.2152 0.00281168 0.00444556)
(1.15858 0.00229541 0.00204722)
(1.11929 -0.00420933 0.0010091)
(1.09474 -0.00626092 0.000833865)
(1.07349 -0.0141666 0.000622513)
(1.06261 -0.0178211 0.000699706)
(1.049 -0.0272655 0.000619527)
(1.04722 -0.0326632 0.000605391)
(1.03915 -0.0431058 0.000571486)
(1.04667 -0.0495637 0.000443568)
(1.04438 -0.0591253 0.000549704)
(1.06167 -0.0641341 0.000346721)
(1.06447 -0.0683613 0.000665457)
(1.08756 -0.0664319 0.00024124)
(1.09286 -0.0587675 -0.00215782)
(2.58646 0.00465359 0.0919934)
(2.15495 0.00232175 0.0748248)
(1.75468 0.00723407 0.0476277)
(1.47205 0.00370372 0.0264373)
(1.30589 0.00666067 0.0118469)
(1.21258 -0.000123624 0.00435227)
(1.15466 0.00134856 0.00212649)
(1.11582 -0.00747797 0.000903733)
(1.09028 -0.00728019 0.000904489)
(1.06897 -0.0180938 0.000533466)
(1.05739 -0.0196026 0.000780036)
(1.0431 -0.0326242 0.000542976)
(1.04127 -0.0362566 0.000661787)
(1.0322 -0.051018 0.000514972)
(1.04071 -0.0565098 0.000468243)
(1.03791 -0.0709415 0.000550846)
(1.05799 -0.0760326 0.000319289)
(1.06241 -0.0842763 0.000767405)
(1.09037 -0.0823785 0.000144535)
(1.10074 -0.0745108 -0.00213075)
(2.58535 0.00470951 0.0921428)
(2.15372 0.000433149 0.0748028)
(1.75264 0.00674006 0.047651)
(1.47142 0.00125986 0.0262903)
(1.30239 0.00618525 0.0119875)
(1.21096 -0.00316525 0.00417609)
(1.15043 0.00122065 0.00227112)
(1.11327 -0.0108939 0.000714409)
(1.08545 -0.00725213 0.00106827)
(1.06499 -0.0222711 0.000348262)
(1.05166 -0.020107 0.000949504)
(1.03719 -0.0384744 0.000343705)
(1.03462 -0.038366 0.000816083)
(1.02433 -0.0599132 0.000308413)
(1.03391 -0.0621179 0.000586242)
(1.02946 -0.0848958 0.000398442)
(1.05376 -0.0878357 0.000323905)
(1.05822 -0.104231 0.000858539)
(1.09438 -0.101402 -7.62047e-05)
(1.1092 -0.0948878 -0.00167569)
(2.58405 0.00463043 0.0922816)
(2.15308 -0.00121043 0.0747223)
(1.75068 0.00684826 0.0477338)
(1.47127 -0.00110821 0.0261476)
(1.29879 0.00645166 0.0121193)
(1.21006 -0.00629055 0.00395962)
(1.14623 0.00210092 0.00245404)
(1.11119 -0.0144606 0.000484934)
(1.08064 -0.00592722 0.00126401)
(1.06115 -0.0267758 9.74096e-05)
(1.04596 -0.0188339 0.00114622)
(1.0309 -0.0448919 4.99764e-05)
(1.02791 -0.0380877 0.00101132)
(1.01501 -0.0701001 -1.26755e-05)
(1.02665 -0.064886 0.000752037)
(1.018 -0.101998 7.44691e-05)
(1.04904 -0.0972321 0.000350904)
(1.04978 -0.130904 0.000800901)
(1.1007 -0.121401 -0.000591179)
(1.11715 -0.124162 0.00036925)
(2.58264 0.00406455 0.0923989)
(2.15328 -0.00229691 0.0745762)
(1.74868 0.00729527 0.0478687)
(1.4716 -0.00316813 0.0259988)
(1.295 0.00716905 0.0122552)
(1.20998 -0.00901392 0.00371962)
(1.1418 0.00360536 0.00265203)
(1.11006 -0.0176404 0.000203998)
(1.07534 -0.00375836 0.00148169)
(1.05831 -0.0309429 -0.000234896)
(1.03928 -0.016241 0.0014261)
(1.02526 -0.051185 -0.000371814)
(1.01941 -0.0357691 0.00131014)
(1.00569 -0.0808093 -0.000558333)
(1.01627 -0.0649143 0.00113335)
(1.00502 -0.121499 -0.000713514)
(1.04004 -0.103906 0.000774161)
(1.03744 -0.165195 7.63556e-05)
(1.10527 -0.140587 -0.000951091)
(1.12353 -0.166772 0.003033)
(2.58176 0.00340851 0.0924351)
(2.15412 -0.00299652 0.0744602)
(1.74743 0.00823687 0.0479678)
(1.47161 -0.00498904 0.0258773)
(1.29232 0.00857048 0.0123492)
(1.20929 -0.0114884 0.00351704)
(1.13866 0.00603031 0.00284531)
(1.10771 -0.0205031 -4.26624e-05)
(1.0716 -7.76411e-05 0.00173719)
(1.05332 -0.0345901 -0.000563576)
(1.03474 -0.0112661 0.00163284)
(1.01641 -0.0566049 -0.000835673)
(1.01349 -0.0299362 0.0015155)
(0.990991 -0.0905966 -0.00126529)
(1.00883 -0.0603695 0.00154231)
(0.982217 -0.142164 -0.00187362)
(1.03486 -0.104842 0.0012144)
(1.01012 -0.209369 -0.000955897)
(1.11634 -0.153719 -0.00159356)
(1.11384 -0.234342 0.00702986)
(2.58135 0.00134709 0.0924307)
(2.15527 -0.00245719 0.0744422)
(1.74658 0.00862029 0.0481256)
(1.47074 -0.00559045 0.0258251)
(1.29041 0.00929229 0.0124756)
(1.20752 -0.0126049 0.00339237)
(1.13659 0.00774272 0.00301115)
(1.10421 -0.0220787 -0.000186022)
(1.06887 0.00280126 0.0018522)
(1.04753 -0.0369835 -0.00073841)
(1.03034 -0.00709777 0.00181756)
(1.00697 -0.0609091 -0.0010526)
(1.00592 -0.0242748 0.00193966)
(0.975001 -0.100116 -0.0015892)
(0.997426 -0.0544018 0.00198733)
(0.957784 -0.166264 -0.00258318)
(1.02203 -0.100003 0.00135183)
(0.98057 -0.270208 -0.00224577)
(1.12079 -0.153263 -0.00253021)
(1.08872 -0.352477 0.0128294)
(2.58243 0.000376997 0.0922454)
(2.1581 -0.00303281 0.0745795)
(1.74698 0.0103488 0.0480862)
(1.46989 -0.00788769 0.0260359)
(1.28919 0.0117289 0.0123707)
(1.20668 -0.015797 0.00357672)
(1.13396 0.0120083 0.00300225)
(1.10286 -0.0258326 -1.73604e-05)
(1.06399 0.00932002 0.00196915)
(1.04518 -0.0412842 -0.000648593)
(1.02239 0.00279881 0.00212319)
(1.00231 -0.0664598 -0.00115043)
(0.994179 -0.0102368 0.00211066)
(0.966298 -0.1095 -0.00198431)
(0.980469 -0.0361594 0.00193824)
(0.943639 -0.187268 -0.00370463)
(1.00072 -0.0788777 0.00191161)
(0.956069 -0.330274 -0.00568268)
(1.12453 -0.134347 -0.00374147)
(1.05053 -0.527145 0.0208326)
(2.58125 -0.0036045 0.0920646)
(2.16499 3.93317e-05 0.0748374)
(1.74151 0.00868155 0.048423)
(1.47534 -0.00590338 0.0261446)
(1.27885 0.0092536 0.0125889)
(1.21603 -0.0133156 0.00354883)
(1.11933 0.00991103 0.00356147)
(1.11411 -0.022465 -0.000116231)
(1.04415 0.00777602 0.00265876)
(1.05834 -0.0366886 -0.000872862)
(0.996417 0.00207712 0.00295714)
(1.01693 -0.0610168 -0.00135556)
(0.959467 -0.00963948 0.00362356)
(0.980763 -0.105541 -0.00217945)
(0.934775 -0.0348888 0.00470441)
(0.952312 -0.197705 -0.00387368)
(0.950953 -0.0764731 0.00615657)
(0.954336 -0.412705 -0.00599322)
(1.12532 -0.0776892 -0.00334203)
(1.03138 -0.889179 0.0243215)
(2.583 -0.00621376 0.091103)
(2.17514 0.000731296 0.0754815)
(1.73787 0.00696981 0.0484938)
(1.48072 -0.0078185 0.0271534)
(1.26798 0.00740624 0.0118654)
(1.2273 -0.0155707 0.00449598)
(1.10175 0.00903045 0.00304882)
(1.13069 -0.0257113 0.000954849)
(1.01792 0.0078665 0.00228964)
(1.08042 -0.0406368 0.000207665)
(0.96051 0.00397693 0.00278801)
(1.04501 -0.0661112 -0.000139606)
(0.911929 -0.00497518 0.00335118)
(1.01597 -0.113624 -0.000346319)
(0.871715 -0.0261809 0.0042206)
(1.00047 -0.220539 -0.00160035)
(0.868957 -0.0550173 0.00871772)
(1.04879 -0.525559 -0.0191957)
(1.14979 -0.0064013 0.0113859)
(1.15055 -1.38401 -0.00136591)
(2.57849 -0.00966419 0.0903685)
(2.19502 0.00819689 0.0757616)
(1.72056 -0.00233575 0.0485552)
(1.50934 0.00152553 0.0268976)
(1.23445 -0.00794304 0.0115965)
(1.27513 -0.000725216 0.00371328)
(1.05022 -0.0104535 0.00333742)
(1.1964 -0.00491625 -0.000649725)
(0.946601 -0.016578 0.00304862)
(1.16533 -0.011355 -0.001906)
(0.864515 -0.0260853 0.00441295)
(1.15047 -0.0239932 -0.00358981)
(0.7836 -0.0445496 0.00626782)
(1.14292 -0.0526882 -0.00564931)
(0.694635 -0.0852944 0.00907706)
(1.14685 -0.130012 -0.0091736)
(0.575365 -0.164393 0.0187864)
(1.20208 -0.416027 -0.0239129)
(0.458189 0.0861482 0.0996702)
(1.08065 -1.77349 -0.0791502)
(2.6035 -0.016938 0.0902382)
(2.16428 0.0229548 0.0763955)
(1.76672 -0.0179902 0.0487201)
(1.44805 0.021156 0.0269656)
(1.31769 -0.0306652 0.0107374)
(1.19062 0.0267569 0.00519303)
(1.16176 -0.0405478 0.00207648)
(1.08755 0.0312754 0.00178512)
(1.08988 -0.0555064 0.00141105)
(1.02549 0.0367735 0.0015181)
(1.04355 -0.0777128 0.00215693)
(0.965802 0.042595 0.00186108)
(1.00459 -0.1154 0.00340136)
(0.887147 0.0448324 0.00183205)
(0.964073 -0.189739 0.00497298)
(0.769081 0.0212594 0.00329145)
(0.907652 -0.380478 0.00289469)
(0.753696 -0.207872 0.0392912)
(0.828623 -0.772897 0.0436831)
(1.52196 -3.16255 -0.138325)
(2.94241 0.0275459 0.139858)
(3.02297 0.0375392 0.128982)
(2.92616 0.0368498 0.100593)
(2.76265 0.0355049 0.0698261)
(2.61168 0.03366 0.042226)
(2.47544 0.0317438 0.0255774)
(2.35572 0.0294873 0.016512)
(2.24778 0.027551 0.0114117)
(2.1578 0.0250102 0.00811522)
(2.07751 0.02254 0.00637842)
(2.01319 0.0195994 0.00510276)
(1.95423 0.0174757 0.00447132)
(1.90908 0.0149375 0.00368344)
(1.86648 0.01319 0.00329867)
(1.83577 0.00993599 0.00307116)
(1.80712 0.00922282 0.0028939)
(1.78591 0.00643548 0.00276767)
(1.76772 0.00765827 0.00235478)
(1.75078 0.00529454 0.00211032)
(1.73793 0.00552142 0.0025823)
(2.99022 0.0349469 0.141082)
(3.12431 0.0490342 0.131589)
(3.11324 0.0491663 0.102482)
(3.0268 0.0488741 0.0749711)
(2.94185 0.0476739 0.0489208)
(2.85999 0.0460276 0.0315396)
(2.79345 0.04334 0.0215332)
(2.72684 0.0406952 0.0154597)
(2.68069 0.03749 0.0115124)
(2.631 0.0340653 0.00904477)
(2.60319 0.0295966 0.00751688)
(2.56517 0.0256154 0.00638105)
(2.55193 0.0209469 0.00554774)
(2.52367 0.0182731 0.0046653)
(2.52321 0.0130419 0.00432481)
(2.50022 0.0105197 0.00404428)
(2.50994 0.0056649 0.00366531)
(2.48999 0.00482769 0.00433248)
(2.50617 0.00377627 0.00292281)
(2.48858 0.00320586 0.00799045)
(2.9906 0.0154868 0.141188)
(3.11686 0.0276022 0.131416)
(3.10938 0.0314159 0.101064)
(3.03082 0.0338894 0.0739189)
(2.95377 0.0350554 0.0484012)
(2.88004 0.0348882 0.0311425)
(2.82274 0.0333639 0.0212696)
(2.76504 0.0310178 0.0152354)
(2.72793 0.0283603 0.0114539)
(2.68692 0.0250297 0.0089123)
(2.66797 0.0207105 0.00743149)
(2.63823 0.0161773 0.00614469)
(2.63317 0.0108262 0.00544329)
(2.61113 0.00706008 0.00448922)
(2.61972 0.00189356 0.00396391)
(2.60201 -0.00222363 0.00361485)
(2.62164 -0.00691936 0.0029941)
(2.60574 -0.0100619 0.00405226)
(2.62879 -0.0104577 0.00259391)
(2.61664 -0.0106947 0.00793641)
(2.99076 0.0129348 0.141539)
(3.10853 0.0256347 0.132171)
(3.09743 0.0309536 0.101319)
(3.01772 0.0336322 0.0741017)
(2.94072 0.0348055 0.0485975)
(2.86686 0.0343282 0.0312452)
(2.81092 0.0325071 0.0212535)
(2.75423 0.0295394 0.0151644)
(2.71892 0.0260728 0.0113782)
(2.67918 0.0217983 0.0087944)
(2.66244 0.0165995 0.0072543)
(2.63393 0.0111586 0.00598552)
(2.63148 0.0048714 0.00524227)
(2.60991 -0.000625513 0.00443293)
(2.62138 -0.00676678 0.00384908)
(2.60455 -0.0123806 0.00356713)
(2.62729 -0.0175054 0.00285587)
(2.6129 -0.0213567 0.00404725)
(2.63843 -0.022628 0.00253354)
(2.6284 -0.0225196 0.00804472)
(2.99082 0.0086856 0.14174)
(3.10361 0.0177133 0.132474)
(3.0902 0.0228476 0.101254)
(3.00983 0.0253433 0.0738336)
(2.93264 0.02695 0.0483168)
(2.85837 0.0264943 0.0309721)
(2.80238 0.0250659 0.0209711)
(2.74574 0.0219708 0.0149013)
(2.71046 0.0184844 0.0111734)
(2.67064 0.013691 0.008642)
(2.65391 0.00823028 0.00708975)
(2.62547 0.0018935 0.00579205)
(2.6237 -0.00496245 0.00497044)
(2.60247 -0.0119317 0.0041542)
(2.61468 -0.018886 0.0035254)
(2.59869 -0.0258728 0.00324888)
(2.62257 -0.0317464 0.00257038)
(2.61 -0.0366283 0.00374482)
(2.63723 -0.0383867 0.00226614)
(2.62891 -0.0380631 0.00786902)
(2.99083 0.00696794 0.141902)
(3.1006 0.014011 0.132728)
(3.08542 0.0195783 0.101448)
(3.00382 0.0217963 0.0740003)
(2.92568 0.0238058 0.0485109)
(2.85037 0.0229915 0.0311582)
(2.79373 0.0217586 0.021114)
(2.73653 0.0182268 0.0150091)
(2.70098 0.0145264 0.0112401)
(2.66078 0.00893082 0.00871837)
(2.64378 0.00297461 0.0071926)
(2.61496 -0.00451273 0.00596443)
(2.61296 -0.012178 0.00516787)
(2.59163 -0.020782 0.00438693)
(2.60386 -0.0290402 0.0037491)
(2.58849 -0.0376735 0.00343347)
(2.61321 -0.0448534 0.0027217)
(2.60238 -0.0508858 0.00385905)
(2.63143 -0.0534737 0.00237628)
(2.62568 -0.0532399 0.00787801)
(2.99071 0.0061146 0.142084)
(3.09833 0.010392 0.132881)
(3.08176 0.0159187 0.101583)
(2.99927 0.0169217 0.0740406)
(2.92018 0.0193615 0.0485777)
(2.84408 0.0176141 0.0311666)
(2.78674 0.0168202 0.0211238)
(2.72889 0.0124792 0.0150085)
(2.69289 0.00890887 0.0112703)
(2.65203 0.00226656 0.0087075)
(2.63487 -0.00390974 0.00712687)
(2.60563 -0.0127476 0.0058645)
(2.60376 -0.0211479 0.00502007)
(2.5824 -0.0315121 0.00427344)
(2.59485 -0.0410728 0.00364159)
(2.58005 -0.0515866 0.00334883)
(2.60577 -0.0602784 0.00263403)
(2.59678 -0.0678755 0.00378307)
(2.62819 -0.0715131 0.00228169)
(2.62553 -0.0714992 0.00777301)
(2.99043 0.0060737 0.14231)
(3.0965 0.0072201 0.132916)
(3.07886 0.0133714 0.101673)
(2.99596 0.0126485 0.0740135)
(2.91566 0.0162168 0.0486983)
(2.83893 0.0129387 0.0311575)
(2.78064 0.0133086 0.0211946)
(2.72211 0.00754484 0.0149653)
(2.68561 0.0048562 0.0112968)
(2.64383 -0.00342505 0.0087361)
(2.62625 -0.00920508 0.00720952)
(2.59592 -0.0200076 0.00597323)
(2.59388 -0.0287316 0.00509863)
(2.57178 -0.0414305 0.00437451)
(2.58447 -0.0522155 0.00369628)
(2.56983 -0.0652997 0.00345041)
(2.59671 -0.0758239 0.00269098)
(2.58958 -0.0857061 0.00386895)
(2.62373 -0.0908182 0.00233185)
(2.62493 -0.0915391 0.00779338)
(2.9898 0.00672367 0.142632)
(3.09497 0.00413384 0.132804)
(3.07615 0.0118096 0.101805)
(2.99356 0.0083881 0.073904)
(2.91149 0.0139972 0.0489098)
(2.83453 0.00798367 0.0310868)
(2.77492 0.0106441 0.0213335)
(2.71578 0.00208174 0.0148929)
(2.67859 0.00156692 0.0113978)
(2.63569 -0.00975708 0.0086744)
(2.618 -0.0138103 0.0072286)
(2.58609 -0.0279777 0.00593523)
(2.58445 -0.0358347 0.0050697)
(2.56067 -0.0521767 0.00438743)
(2.57427 -0.0633899 0.00362129)
(2.55884 -0.0803166 0.00351519)
(2.58754 -0.0926157 0.0026064)
(2.58192 -0.105937 0.00395163)
(2.61957 -0.113011 0.0022665)
(2.62556 -0.115219 0.00772734)
(2.98869 0.00801407 0.143068)
(3.09382 0.000771497 0.132472)
(3.07334 0.0114428 0.102019)
(2.99207 0.0037972 0.0736759)
(2.9074 0.0131222 0.0491949)
(2.83106 0.00242893 0.030883)
(2.76942 0.00953881 0.0215394)
(2.71026 -0.00415219 0.0146692)
(2.67191 0.000115998 0.0115525)
(2.62799 -0.0168182 0.0085065)
(2.6101 -0.0163285 0.00733666)
(2.57596 -0.036671 0.00584213)
(2.57516 -0.0408232 0.00507808)
(2.54837 -0.0636968 0.0043978)
(2.56369 -0.07296 0.00352954)
(2.54584 -0.0965217 0.0036615)
(2.57726 -0.109453 0.00245795)
(2.57243 -0.128484 0.00417554)
(2.61424 -0.137942 0.00222793)
(2.62625 -0.142734 0.00763305)
(2.98672 0.0097217 0.14365)
(3.0936 -0.00302716 0.131884)
(3.06978 0.0123686 0.102434)
(2.99202 -0.0011801 0.0732743)
(2.90254 0.0138084 0.0496063)
(2.8292 -0.00388679 0.0304261)
(2.76346 0.0103589 0.0219137)
(2.7062 -0.0112986 0.0141972)
(2.66508 0.00102678 0.01191)
(2.62122 -0.0250149 0.00807479)
(2.60224 -0.0160615 0.00765574)
(2.56577 -0.0468453 0.00546971)
(2.56611 -0.0427015 0.00527515)
(2.53447 -0.0770592 0.00415769)
(2.55341 -0.0796227 0.00351486)
(2.52952 -0.11515 0.00368451)
(2.56702 -0.125263 0.0021725)
(2.55916 -0.154522 0.00448619)
(2.60897 -0.166315 0.0020344)
(2.62606 -0.17534 0.00802974)
(2.98417 0.0118432 0.144243)
(3.09424 -0.00754459 0.131185)
(3.06607 0.0147966 0.102934)
(2.99275 -0.00701783 0.0728004)
(2.8976 0.0165299 0.050054)
(2.82822 -0.0114056 0.0297942)
(2.75796 0.013782 0.0223976)
(2.7026 -0.0200266 0.0135612)
(2.65909 0.00521659 0.0123985)
(2.61424 -0.0353369 0.00743984)
(2.59577 -0.0115587 0.00807282)
(2.55435 -0.0597997 0.00485628)
(2.55907 -0.039141 0.00553364)
(2.51754 -0.094139 0.00376707)
(2.54514 -0.0799525 0.00341846)
(2.50761 -0.139007 0.00376103)
(2.55828 -0.135757 0.00142557)
(2.53854 -0.18752 0.00520131)
(2.60498 -0.195536 0.000525863)
(2.62402 -0.215738 0.0092148)
(2.98098 0.0136383 0.144809)
(3.09619 -0.0121602 0.130446)
(3.06203 0.0181753 0.103492)
(2.99461 -0.0131967 0.0722705)
(2.89203 0.0205369 0.0505514)
(2.82881 -0.0193722 0.0290667)
(2.7518 0.019086 0.0229528)
(2.70092 -0.0294509 0.0127699)
(2.65222 0.0119651 0.0129751)
(2.60934 -0.0469124 0.00654194)
(2.58801 -0.00344181 0.00870923)
(2.54443 -0.0749519 0.00387076)
(2.54994 -0.0305448 0.00615409)
(2.50078 -0.114716 0.00277178)
(2.53377 -0.0736182 0.00394872)
(2.48281 -0.168547 0.00294607)
(2.54508 -0.139439 0.00150949)
(2.51098 -0.229629 0.00499327)
(2.5959 -0.2233 -0.000810949)
(2.61793 -0.267149 0.00743709)
(2.97911 0.0158526 0.145108)
(3.09752 -0.0172125 0.129911)
(3.06052 0.0230049 0.103925)
(2.99452 -0.0200272 0.0717603)
(2.88998 0.0266056 0.0509762)
(2.82649 -0.0283067 0.0283441)
(2.75021 0.027128 0.0235545)
(2.69457 -0.0403181 0.0119558)
(2.65129 0.0225292 0.0137377)
(2.59734 -0.0603176 0.00556289)
(2.58808 0.0102182 0.00949746)
(2.52441 -0.0923451 0.00267902)
(2.55141 -0.0138276 0.00686072)
(2.46871 -0.138696 0.00145174)
(2.53646 -0.0559324 0.00446878)
(2.43391 -0.205186 0.00222854)
(2.5488 -0.129378 0.000270242)
(2.45131 -0.285846 0.00754166)
(2.59953 -0.24291 -0.00665135)
(2.587 -0.336425 0.0182534)
(2.97843 0.015686 0.145294)
(3.09822 -0.0207768 0.129674)
(3.06085 0.0267896 0.10445)
(2.99237 -0.0254721 0.0715595)
(2.88988 0.0318261 0.051447)
(2.82194 -0.0359766 0.028)
(2.75083 0.0349343 0.0240122)
(2.68644 -0.0503881 0.0116361)
(2.65191 0.0332054 0.0141247)
(2.5849 -0.0738632 0.00518695)
(2.58811 0.0249671 0.00988344)
(2.50521 -0.111933 0.00219907)
(2.55023 0.00631908 0.00751037)
(2.43731 -0.168549 0.000947068)
(2.53359 -0.0301165 0.00484905)
(2.38449 -0.255421 0.00202871)
(2.54554 -0.10396 -0.00100332)
(2.3837 -0.368213 0.00900413)
(2.601 -0.248479 -0.0111571)
(2.53419 -0.438216 0.0292529)
(2.97887 0.0186503 0.144691)
(3.10158 -0.0274807 0.130343)
(3.06253 0.0344563 0.104196)
(2.99318 -0.0346313 0.0720884)
(2.88938 0.0415269 0.051308)
(2.82308 -0.0481302 0.0283104)
(2.74868 0.0485421 0.0240826)
(2.68737 -0.0651741 0.011774)
(2.64729 0.051348 0.0145227)
(2.58468 -0.0920101 0.00496857)
(2.58076 0.0500625 0.010706)
(2.50129 -0.135121 0.00148712)
(2.5412 0.0406319 0.00823765)
(2.4253 -0.200394 -0.000578336)
(2.52524 0.0151918 0.00510527)
(2.35514 -0.305245 -0.000818167)
(2.54575 -0.0536984 -0.000894899)
(2.3151 -0.451311 0.00832043)
(2.62471 -0.238439 -0.0190531)
(2.458 -0.548342 0.0455088)
(2.96717 0.0128744 0.144382)
(3.12197 -0.0250717 0.131009)
(3.04488 0.0331648 0.105123)
(3.01639 -0.0331663 0.0722319)
(2.8628 0.0399348 0.0524731)
(2.85356 -0.0477851 0.0278641)
(2.71491 0.0490446 0.0259352)
(2.72407 -0.0655723 0.0110764)
(2.6045 0.0541661 0.0170385)
(2.62679 -0.0941837 0.00381848)
(2.52865 0.0577181 0.0138895)
(2.54759 -0.142704 -0.000328616)
(2.48002 0.0574052 0.012961)
(2.47032 -0.220589 -0.00394388)
(2.46294 0.04816 0.0124228)
(2.38029 -0.36211 -0.00663316)
(2.50873 0.00150142 0.00673987)
(2.28801 -0.599874 0.00060149)
(2.67307 -0.179108 -0.0232967)
(2.4024 -0.782639 0.061966)
(2.95404 0.0112879 0.141388)
(3.15212 -0.0279109 0.133355)
(3.0239 0.0358275 0.104329)
(3.05026 -0.0399998 0.0752568)
(2.82651 0.0438389 0.0513098)
(2.89933 -0.0576454 0.0301609)
(2.66493 0.057644 0.0254942)
(2.7848 -0.0782389 0.0129489)
(2.53898 0.068032 0.0176508)
(2.70267 -0.111152 0.00487909)
(2.44844 0.0805001 0.0160064)
(2.64013 -0.166545 -0.00108559)
(2.38731 0.0950239 0.0172027)
(2.58052 -0.257855 -0.00876508)
(2.3734 0.113201 0.0196909)
(2.50663 -0.433194 -0.0219113)
(2.47583 0.11091 0.0168302)
(2.41734 -0.759214 -0.0434698)
(2.88008 -0.114872 -0.0472245)
(2.44109 -1.07195 0.0504883)
(2.91037 -0.00638365 0.139947)
(3.22747 -0.00359695 0.132267)
(2.94683 0.0101994 0.105177)
(3.15669 -0.0114197 0.0728621)
(2.70674 0.00890768 0.0525966)
(3.0448 -0.0221862 0.0257003)
(2.49666 0.0148467 0.0293485)
(2.97253 -0.0323442 0.0057527)
(2.31651 0.0173628 0.0243368)
(2.93588 -0.0532933 -0.00601177)
(2.15758 0.0218348 0.0275519)
(2.91987 -0.0915924 -0.0183087)
(2.00485 0.0299218 0.0369793)
(2.90499 -0.167897 -0.0352481)
(1.85775 0.0528488 0.0549371)
(2.86721 -0.347747 -0.0635321)
(1.72087 0.119485 0.0954774)
(2.73241 -0.821512 -0.113647)
(1.75598 0.257086 0.185355)
(2.03835 -1.36932 -0.106628)
(3.03731 -0.0338049 0.138918)
(3.08177 0.0343741 0.132383)
(3.12684 -0.0271546 0.104355)
(2.95806 0.0321157 0.0738561)
(2.95075 -0.0378003 0.0483021)
(2.79984 0.031291 0.0294769)
(2.80109 -0.0451025 0.0233037)
(2.6722 0.0336334 0.0122088)
(2.69337 -0.0572863 0.0159135)
(2.56668 0.0316961 0.00495002)
(2.61279 -0.0736733 0.0157411)
(2.45959 0.0223754 0.000897188)
(2.53784 -0.095693 0.019)
(2.32423 -0.0111336 -0.00149354)
(2.4331 -0.118062 0.0260255)
(2.14111 -0.130045 -7.14347e-06)
(2.19127 -0.114957 0.0381185)
(2.00099 -0.636993 0.0256788)
(1.8315 0.213555 0.2936)
(2.8489 -3.09416 -0.232302)
(2.95927 0.0273403 0.0840057)
(3.15904 0.0381297 0.0905441)
(3.23621 0.0384377 0.0790581)
(3.2268 0.0390994 0.0626981)
(3.18758 0.0385943 0.0448643)
(3.1264 0.0378283 0.0327565)
(3.05683 0.0361228 0.0253144)
(2.97902 0.0348529 0.0202065)
(2.90602 0.0329137 0.0159784)
(2.83105 0.0312356 0.0131045)
(2.76645 0.028355 0.0107362)
(2.7014 0.0261539 0.00919453)
(2.64892 0.0233926 0.00756856)
(2.59551 0.0221653 0.00633292)
(2.55368 0.0183983 0.0056377)
(2.514 0.0172781 0.00507134)
(2.4818 0.0132634 0.0047931)
(2.45471 0.0143276 0.00402963)
(2.42773 0.0120649 0.00370383)
(2.40618 0.0135838 0.00129816)
(3.00721 0.034661 0.0845459)
(3.26057 0.0498999 0.09269)
(3.42385 0.051184 0.0791621)
(3.49787 0.0534632 0.0654329)
(3.54244 0.0540679 0.04944)
(3.55362 0.0542041 0.0372763)
(3.56187 0.0529373 0.0298073)
(3.5463 0.0514975 0.0244806)
(3.54339 0.0491218 0.0203073)
(3.52046 0.047235 0.0169434)
(3.51824 0.0435778 0.0146716)
(3.49431 0.0406946 0.0126729)
(3.49583 0.0354416 0.0112379)
(3.47461 0.0330978 0.0093657)
(3.48306 0.0281133 0.00825053)
(3.46472 0.0254919 0.00780254)
(3.47974 0.0206242 0.00651373)
(3.46332 0.0178896 0.00842741)
(3.48267 0.0154084 0.00465055)
(3.46819 0.0158789 0.0140174)
(3.00748 0.0154023 0.0846096)
(3.25389 0.0280976 0.0925678)
(3.41952 0.0326016 0.0779161)
(3.4999 0.0364325 0.0643202)
(3.55217 0.038986 0.048711)
(3.5718 0.040309 0.0365744)
(3.59055 0.0404719 0.0292319)
(3.58612 0.0394189 0.0239292)
(3.59471 0.0377413 0.0201037)
(3.58398 0.0360033 0.0167748)
(3.59381 0.0327247 0.0146622)
(3.58254 0.029628 0.0124237)
(3.59659 0.024303 0.0111532)
(3.5859 0.0204398 0.00945961)
(3.60698 0.0159141 0.00822757)
(3.59822 0.011581 0.00774432)
(3.6262 0.00748128 0.00589556)
(3.61982 0.00251936 0.00828231)
(3.64844 3.74872e-05 0.00470058)
(3.64333 -0.00127449 0.0143942)
(3.00761 0.0129209 0.0848006)
(3.24642 0.0259377 0.0931133)
(3.40915 0.0319507 0.0781384)
(3.48823 0.0357624 0.0644581)
(3.54032 0.038298 0.0488718)
(3.55924 0.0392879 0.0366361)
(3.57856 0.0391865 0.0291493)
(3.5747 0.0376974 0.0237393)
(3.58453 0.0354446 0.0199192)
(3.57486 0.0327673 0.0165433)
(3.58667 0.0286366 0.0143868)
(3.57655 0.0244281 0.0121568)
(3.59363 0.0185904 0.0107849)
(3.58384 0.0130612 0.0092722)
(3.608 0.00743739 0.00796276)
(3.60069 0.00138608 0.0076196)
(3.63183 -0.00374951 0.00561725)
(3.62783 -0.0092909 0.00821036)
(3.65939 -0.0125746 0.00442479)
(3.6567 -0.014507 0.0147297)
(3.00767 0.00875731 0.0849373)
(3.242 0.0177811 0.0933587)
(3.40271 0.0234409 0.0781544)
(3.48095 0.0265787 0.0642958)
(3.53249 0.0292289 0.0486926)
(3.55072 0.0299221 0.0364452)
(3.56949 0.030033 0.0289181)
(3.56534 0.0283086 0.0234848)
(3.57491 0.0261367 0.0197014)
(3.565 0.0228274 0.0163494)
(3.57661 0.0185772 0.0141894)
(3.56618 0.01337 0.011952)
(3.58353 0.00721909 0.0105421)
(3.574 0.000332087 0.00899437)
(3.59868 -0.00618274 0.00763287)
(3.59209 -0.0136623 0.00723547)
(3.62396 -0.0197719 0.00526429)
(3.62135 -0.0264167 0.00781583)
(3.6546 -0.0303577 0.0041016)
(3.65356 -0.0328133 0.0143963)
(3.0077 0.00715863 0.0850615)
(3.23928 0.0139372 0.0935566)
(3.39859 0.0200334 0.0783784)
(3.47576 0.0226225 0.0645039)
(3.52644 0.0255335 0.0489385)
(3.5436 0.0257219 0.0367017)
(3.56154 0.0259297 0.0291278)
(3.55652 0.0237306 0.0236626)
(3.5655 0.0214871 0.0198338)
(3.55494 0.0173078 0.0164767)
(3.56597 0.0126914 0.0142941)
(3.55499 0.00624935 0.0120943)
(3.57183 -0.000564807 0.0107081)
(3.56206 -0.00891166 0.00923656)
(3.58648 -0.0167659 0.00790106)
(3.5801 -0.0259058 0.0074716)
(3.6124 -0.0335764 0.00546753)
(3.61083 -0.0415588 0.00797927)
(3.64553 -0.046448 0.00424585)
(3.64643 -0.0496786 0.0144682)
(3.00764 0.00651841 0.0852248)
(3.2372 0.0101715 0.0936465)
(3.39541 0.0164162 0.078558)
(3.47176 0.0174429 0.0645921)
(3.52161 0.020732 0.0490698)
(3.53786 0.0197395 0.0367893)
(3.55507 0.0203028 0.0292029)
(3.54911 0.0171688 0.0237258)
(3.55754 0.0151047 0.0198978)
(3.54606 0.00981327 0.0165381)
(3.55658 0.00503992 0.0143016)
(3.54487 -0.00278616 0.0120727)
(3.5614 -0.0102714 0.0105789)
(3.55146 -0.020294 0.00912361)
(3.57582 -0.0294776 0.00778264)
(3.56971 -0.0404974 0.00737529)
(3.6026 -0.0497896 0.00537658)