/*--------------------------------*- C++ -*----------------------------------*\
| =========                 |                                                 |
| \\      /  F ield         | OpenFOAM: The Open Source CFD Toolbox           |
|  \\    /   O peration     | Version:  v1806                                 |
|   \\  /    A nd           | Web:      www.OpenFOAM.com                      |
|    \\/     M anipulation  |                                                 |
\*---------------------------------------------------------------------------*/
FoamFile
{
    version     2.0;
    format      ascii;
    class       volScalarField;
    location    "14";
    object      p;
}
// * * * * * * * * * * * * * * * * * * * * * * * * * * * * * * * * * * * * * //

dimensions      [0 2 -2 0 0 0 0];


internalField   nonuniform List<scalar> 
4400
(
-2.62956
-0.0860462
-0.00881447
-0.440754
-0.618316
-0.621396
-0.585193
-0.539722
-0.491551
-0.443327
-0.395779
-0.349178
-0.303733
-0.25957
-0.216714
-0.175128
-0.134706
-0.0952936
-0.0567501
-0.0188819
2.08017
0.365363
-0.0654106
-0.135884
-0.1742
-0.222772
-0.275081
-0.298894
-0.297836
-0.283972
-0.264291
-0.240922
-0.215032
-0.187522
-0.159112
-0.130253
-0.101226
-0.0721978
-0.043273
-0.014448
1.67545
1.15091
0.859448
0.60727
0.348097
0.115047
-0.0140771
-0.0787719
-0.114096
-0.131734
-0.1381
-0.136471
-0.128931
-0.117215
-0.10261
-0.086022
-0.0680703
-0.0492085
-0.0297765
-0.0100131
2.6817
1.53835
0.90455
0.616497
0.459758
0.33756
0.219143
0.116213
0.0470982
0.00383405
-0.0234355
-0.0398841
-0.0483026
-0.0507185
-0.0487519
-0.0435792
-0.0360775
-0.0269223
-0.0166611
-0.00570108
2.15265
1.65418
1.2551
1.01996
0.820967
0.601854
0.408196
0.277294
0.189493
0.127547
0.0825618
0.0500191
0.0272621
0.0120072
0.00238468
-0.00303947
-0.00535106
-0.00541815
-0.00394507
-0.0015008
2.40995
1.81116
1.33847
1.00928
0.811053
0.66834
0.5377
0.414842
0.311761
0.233813
0.175084
0.13007
0.095631
0.0694773
0.0496859
0.0347352
0.0234234
0.014789
0.00802365
0.00246488
2.05266
1.70385
1.4124
1.19271
1.02797
0.854495
0.67341
0.523075
0.411357
0.325457
0.257331
0.202296
0.157935
0.122249
0.093391
0.0698012
0.0502407
0.033683
0.0192519
0.00619159
2.10179
1.7759
1.43776
1.18076
0.993362
0.850301
0.724751
0.605728
0.494943
0.402728
0.327167
0.264593
0.212511
0.169043
0.132506
0.10144
0.0746035
0.0509509
0.0295616
0.00962956
1.87078
1.6385
1.43391
1.25219
1.11098
0.971359
0.822512
0.678965
0.561345
0.46644
0.386862
0.318895
0.260628
0.210666
0.167588
0.130018
0.0967455
0.0667187
0.0390056
0.0127782
1.86232
1.66427
1.42688
1.23772
1.07656
0.944011
0.828714
0.719766
0.615165
0.519576
0.436596
0.364512
0.301689
0.246761
0.198404
0.15537
0.116531
0.080886
0.0475311
0.0156348
1.70495
1.541
1.39053
1.25086
1.13309
1.01861
0.896369
0.76971
0.65715
0.561269
0.477456
0.403219
0.337163
0.27829
0.22554
0.177824
0.134125
0.0935113
0.0551266
0.0181721
1.68155
1.54854
1.37742
1.23368
1.10288
0.987247
0.883004
0.78458
0.688343
0.595296
0.511197
0.435405
0.367094
0.305309
0.249063
0.197435
0.149567
0.104638
0.0618545
0.0204345
1.57091
1.44999
1.33516
1.22614
1.12791
1.03188
0.929014
0.819434
0.714286
0.621028
0.537835
0.462104
0.392521
0.328407
0.269186
0.21422
0.162805
0.114195
0.0676314
0.0223708
1.54858
1.45159
1.32482
1.21016
1.10365
1.00363
0.909237
0.81898
0.72987
0.642374
0.560613
0.484497
0.413573
0.347499
0.2859
0.228265
0.173967
0.122311
0.0725771
0.0240401
1.4722
1.37952
1.28841
1.19836
1.11307
1.02899
0.938866
0.842313
0.746368
0.659048
0.578155
0.502057
0.430299
0.362765
0.299342
0.239638
0.183062
0.12895
0.0766209
0.0253994
1.4582
1.38281
1.2829
1.18389
1.09323
1.00421
0.918138
0.835669
0.754733
0.673751
0.59317
0.516084
0.443216
0.374594
0.309964
0.248795
0.190481
0.134408
0.0799633
0.0265301
1.40235
1.32682
1.24976
1.17309
1.09969
1.02513
0.944893
0.858897
0.770846
0.685035
0.602458
0.52471
0.451797
0.383096
0.317981
0.25589
0.196305
0.13872
0.0826108
0.0274256
1.3845
1.31728
1.2395
1.16483
1.09457
1.0196
0.940655
0.860466
0.777534
0.691771
0.608801
0.531213
0.458578
0.389868
0.324325
0.261445
0.200824
0.142047
0.0846483
0.0281146
1.34793
1.27851
1.2195
1.16433
1.10282
1.0364
0.960266
0.873922
0.781287
0.692172
0.611279
0.5355
0.463695
0.394963
0.328911
0.265313
0.203895
0.144282
0.0860206
0.0285813
1.3913
1.33633
1.26283
1.17278
1.07785
0.986035
0.901889
0.825759
0.755186
0.6857
0.614851
0.542156
0.469839
0.399725
0.332394
0.267821
0.205671
0.145474
0.0867022
0.0287999
4.82712
5.17575
5.42329
5.59533
5.703
5.76089
5.7747
5.75154
5.69187
5.59592
5.46198
5.28709
5.06288
4.78232
4.42899
3.99258
3.4458
2.7691
1.93552
0.932427
4.98678
5.09196
5.17544
5.23186
5.26614
5.27917
5.27173
5.24434
5.19713
5.13005
5.04303
4.93616
4.80953
4.66446
4.49858
4.31569
4.10511
3.88347
3.61354
3.35459
4.35066
4.42064
4.47922
4.52442
4.55386
4.56635
4.56145
4.5387
4.49758
4.43749
4.35773
4.25738
4.13567
3.99121
3.82394
3.63128
3.41539
3.17249
2.90913
2.62583
3.96941
4.00255
4.02819
4.0454
4.05369
4.05261
4.04194
4.02163
3.99173
3.9524
3.90389
3.84653
3.78066
3.70684
3.62518
3.53651
3.44046
3.33814
3.22854
3.11382
3.50788
3.52545
3.53775
3.54402
3.5437
3.53629
3.52134
3.49847
3.46737
3.42776
3.37947
3.32232
3.25626
3.18123
3.09746
3.00501
2.90457
2.79644
2.6821
2.56248
3.18691
3.19536
3.19997
3.2005
3.19678
3.18871
3.17625
3.15938
3.13814
3.11258
3.08279
3.04888
3.01094
2.9691
2.92341
2.87398
2.82079
2.76392
2.70337
2.63902
2.85758
2.86024
2.85972
2.85588
2.84855
2.83756
2.82277
2.80406
2.78134
2.75454
2.72362
2.68856
2.64941
2.60622
2.55914
2.50833
2.45408
2.39669
2.33652
2.27407
2.625
2.62586
2.62448
2.62082
2.61483
2.60649
2.59581
2.58278
2.56742
2.54974
2.52975
2.50747
2.48291
2.45606
2.42693
2.39548
2.36168
2.32549
2.28685
2.2455
2.39095
2.38919
2.38549
2.37979
2.37203
2.36216
2.35013
2.33592
2.31949
2.30085
2.28
2.25696
2.23176
2.20448
2.17521
2.14404
2.11113
2.07666
2.0408
2.00375
2.22737
2.22603
2.22329
2.21915
2.2136
2.20663
2.19824
2.18843
2.1772
2.16455
2.15048
2.13497
2.11803
2.09964
2.07979
2.05845
2.0356
2.01122
1.98522
1.95748
2.06012
2.05731
2.05323
2.04786
2.04119
2.0332
2.02388
2.01323
2.00124
1.98793
1.9733
1.9574
1.94024
1.92189
1.90239
1.88183
1.86028
1.83784
1.81466
1.79078
1.94668
1.94486
1.94211
1.93844
1.93382
1.92827
1.92177
1.91433
1.90594
1.8966
1.8863
1.87502
1.86278
1.84955
1.83532
1.82009
1.80386
1.7866
1.76824
1.74869
1.82723
1.8244
1.8207
1.81612
1.81065
1.8043
1.79707
1.78895
1.77996
1.77011
1.75941
1.74789
1.73556
1.72248
1.70866
1.69416
1.67903
1.66332
1.64713
1.63048
1.75072
1.74894
1.74648
1.74336
1.73957
1.73511
1.72996
1.72413
1.71762
1.71041
1.70251
1.69391
1.6846
1.67457
1.66383
1.65236
1.64018
1.62728
1.6136
1.59902
1.6674
1.66482
1.66159
1.65773
1.65322
1.64807
1.6423
1.63589
1.62887
1.62124
1.61302
1.60422
1.59487
1.58498
1.57458
1.56371
1.55237
1.54062
1.52851
1.51611
1.62
1.61835
1.61619
1.6135
1.61029
1.60656
1.60229
1.5975
1.59217
1.5863
1.5799
1.57297
1.56549
1.55748
1.54893
1.53984
1.53024
1.52013
1.50949
1.49813
1.5645
1.56215
1.55928
1.5559
1.552
1.54759
1.54268
1.53727
1.53137
1.52498
1.51812
1.51081
1.50304
1.49486
1.48626
1.47728
1.46793
1.45823
1.44823
1.43803
1.53738
1.53562
1.53341
1.53074
1.52762
1.52404
1.51999
1.51547
1.51048
1.505
1.49903
1.49258
1.48563
1.47817
1.47022
1.46177
1.45282
1.44337
1.43352
1.42286
1.50521
1.50268
1.49968
1.49623
1.49234
1.488
1.48322
1.47801
1.47238
1.46632
1.45986
1.45298
1.4457
1.43802
1.42994
1.42144
1.41253
1.40317
1.39334
1.38315
1.51306
1.51176
1.51003
1.50789
1.50533
1.50234
1.49893
1.4951
1.49085
1.48618
1.48109
1.4756
1.46971
1.46344
1.45681
1.44983
1.44253
1.43496
1.42719
1.41916
2.69925
2.8107
2.92238
3.03406
3.14568
3.25707
3.36807
3.47838
3.5874
3.69404
3.79666
3.89338
3.98227
4.06109
4.12633
4.17282
4.19705
4.20458
4.24134
4.43277
2.73691
2.82519
2.91409
3.00347
3.09319
3.18313
3.27314
3.36308
3.45293
3.54302
3.63429
3.72841
3.8278
3.93527
4.05377
4.18637
4.33512
4.50002
4.67671
4.8482
2.78998
2.87248
2.955
3.03726
3.11905
3.20003
3.2799
3.35842
3.43548
3.51124
3.58604
3.66045
3.73509
3.81055
3.88705
3.96398
4.04084
4.11791
4.19584
4.27432
2.70183
2.76809
2.83473
2.90163
2.9687
3.03587
3.10317
3.17069
3.23857
3.30692
3.37584
3.44523
3.51471
3.58358
3.65084
3.71549
3.77654
3.83312
3.88448
3.93002
2.62166
2.67839
2.73446
2.78972
2.84405
2.89735
2.94955
3.00064
3.05063
3.09952
3.14724
3.19359
3.23833
3.2812
3.32197
3.36044
3.39636
3.42945
3.45934
3.48565
2.48846
2.53406
2.57936
2.62433
2.66889
2.71299
2.75657
2.79953
2.84174
2.88299
2.92298
2.96139
2.99786
3.03202
3.06357
3.09223
3.11782
3.14017
3.15919
3.17481
2.36551
2.40296
2.43956
2.47522
2.50988
2.54346
2.57591
2.60717
2.63715
2.66577
2.69292
2.7185
2.74241
2.76453
2.78474
2.80289
2.81885
2.83245
2.84354
2.85197
2.23193
2.26232
2.29214
2.32134
2.34988
2.37769
2.40466
2.43071
2.45569
2.47945
2.50186
2.52274
2.54196
2.55938
2.57491
2.58846
2.59998
2.60941
2.61675
2.62195
2.11079
2.13541
2.15921
2.18216
2.2042
2.22528
2.24536
2.26439
2.28232
2.2991
2.31468
2.32901
2.34202
2.35366
2.36385
2.37254
2.37964
2.3851
2.38884
2.39081
1.99541
2.01583
2.03563
2.0548
2.07328
2.09102
2.10798
2.12407
2.13923
2.15338
2.16646
2.17838
2.18909
2.19855
2.20671
2.21354
2.21903
2.22316
2.22593
2.22734
1.89248
1.90909
1.925
1.9402
1.95466
1.96833
1.9812
1.99324
2.00441
2.01469
2.02406
2.03247
2.0399
2.04632
2.05169
2.05598
2.05916
2.06119
2.06204
2.06169
1.80049
1.81471
1.82838
1.84146
1.85395
1.8658
1.87698
1.88746
1.8972
1.90616
1.91431
1.92161
1.92804
1.93358
1.93822
1.94194
1.94473
1.9466
1.94755
1.94758
1.71986
1.73162
1.74281
1.75341
1.76341
1.77279
1.78152
1.7896
1.797
1.80372
1.80973
1.81501
1.81956
1.82334
1.82635
1.82857
1.82998
1.83056
1.8303
1.8292
1.65119
1.66165
1.67162
1.6811
1.69006
1.69849
1.70637
1.71368
1.7204
1.72652
1.73201
1.73686
1.74106
1.7446
1.74748
1.74969
1.75122
1.7521
1.7523
1.75185
1.59273
1.60161
1.61
1.61791
1.62531
1.6322
1.63857
1.64441
1.64971
1.65445
1.65863
1.66223
1.66526
1.66769
1.66952
1.67073
1.67133
1.6713
1.67064
1.66934
1.54583
1.55405
1.56184
1.56921
1.57613
1.5826
1.58862
1.59416
1.59922
1.60378
1.60785
1.6114
1.61444
1.61696
1.61896
1.62043
1.62139
1.62182
1.62173
1.62112
1.50778
1.51493
1.52168
1.528
1.5339
1.53936
1.54438
1.54895
1.55306
1.55671
1.55989
1.56259
1.56481
1.56654
1.56778
1.56851
1.56873
1.56845
1.56765
1.56633
1.48018
1.48699
1.49342
1.49947
1.50513
1.51039
1.51524
1.51968
1.52369
1.52727
1.53041
1.53312
1.53538
1.53719
1.53856
1.53948
1.53995
1.53998
1.53956
1.53869
1.46083
1.46707
1.47292
1.47838
1.48345
1.4881
1.49234
1.49616
1.49955
1.50251
1.50503
1.50712
1.50875
1.50993
1.51065
1.51091
1.5107
1.51003
1.50889
1.50728
1.4527
1.45949
1.46591
1.47194
1.47759
1.48285
1.48773
1.49221
1.49629
1.49996
1.50323
1.50608
1.50852
1.51055
1.51216
1.51335
1.51412
1.51448
1.51442
1.51395
-0.162583
1.52669
2.41955
3.10856
3.48152
3.74479
3.87169
3.93065
3.93427
3.90771
3.86797
3.82622
3.78874
3.7586
3.73636
3.72125
3.71199
3.7073
3.70627
3.70905
0.467666
1.5517
2.44395
3.02669
3.43754
3.68607
3.82749
3.89141
3.90197
3.8824
3.84815
3.81223
3.78027
3.75482
3.73613
3.7234
3.71536
3.71086
3.70938
3.71208
0.870315
1.7023
2.47033
2.98067
3.38427
3.62622
3.78004
3.85161
3.87066
3.8571
3.82779
3.79488
3.76606
3.74362
3.72769
3.71739
3.71121
3.70789
3.70697
3.71013
1.11986
1.8181
2.46193
2.92865
3.30362
3.54852
3.71161
3.79633
3.82813
3.82439
3.802
3.77379
3.74792
3.72809
3.71489
3.70697
3.70276
3.70082
3.70064
3.70391
1.33095
1.90919
2.44572
2.86961
3.21275
3.45864
3.62893
3.72897
3.77637
3.78594
3.7733
3.75142
3.72944
3.71213
3.70077
3.69452
3.6917
3.6908
3.69112
3.69401
1.50391
1.98565
2.43426
2.81131
3.12411
3.36428
3.53945
3.65369
3.71771
3.74299
3.74271
3.72916
3.71203
3.69728
3.68716
3.68184
3.67954
3.67899
3.67937
3.68156
1.65242
2.05229
2.43096
2.76144
3.04456
3.27334
3.44949
3.57452
3.65406
3.69581
3.70976
3.70652
3.69563
3.68395
3.67501
3.66963
3.66721
3.66633
3.66628
3.6676
1.77765
2.11391
2.43502
2.72373
2.97775
3.19161
3.36438
3.49569
3.58777
3.64489
3.67365
3.68222
3.67909
3.67139
3.6638
3.65834
3.65497
3.65316
3.65227
3.65269
1.88576
2.17098
2.44605
2.69809
2.92503
3.12214
3.2879
3.42094
3.52152
3.59134
3.63402
3.65499
3.66089
3.65832
3.65261
3.64695
3.64251
3.63937
3.63734
3.63685
1.97891
2.22455
2.46231
2.68346
2.8858
3.06593
3.2222
3.3531
3.45793
3.53684
3.59123
3.62401
3.63961
3.64334
3.64041
3.6349
3.62927
3.62454
3.62114
3.61965
2.0607
2.2748
2.48279
2.67798
2.85877
3.02257
3.16809
3.29399
3.39929
3.4834
3.54635
3.58919
3.61424
3.62508
3.62604
3.62139
3.61466
3.60813
3.60307
3.60036
2.13317
2.32249
2.50647
2.68024
2.84241
2.99124
3.12569
3.24477
3.34759
3.43329
3.50128
3.55146
3.58457
3.60251
3.60826
3.6055
3.59809
3.58956
3.58246
3.57799
2.19858
2.36808
2.53283
2.68897
2.83545
2.97096
3.09481
3.20628
3.30466
3.38913
3.45883
3.51312
3.55183
3.5756
3.58614
3.5861
3.57878
3.56821
3.55847
3.55142
2.25811
2.41181
2.56105
2.70287
2.83629
2.96038
3.07463
3.17856
3.27161
3.35306
3.42203
3.47758
3.51904
3.54634
3.56027
3.56258
3.55575
3.54326
3.53015
3.51906
2.31231
2.45315
2.58981
2.71993
2.8426
2.95705
3.06291
3.1598
3.24734
3.32492
3.3917
3.44666
3.4888
3.51751
3.53286
3.53587
3.52858
3.51396
3.49646
3.4787
2.36139
2.49149
2.61764
2.73799
2.85159
2.95775
3.05608
3.14631
3.22814
3.30113
3.36461
3.41761
3.45901
3.48782
3.50344
3.50606
3.49722
3.47995
3.45703
3.42713
2.4069
2.52792
2.64518
2.75711
2.86275
2.96135
3.05252
3.13597
3.21146
3.27865
3.33701
3.38569
3.42358
3.44968
3.46353
3.46534
3.45636
3.43877
3.41213
3.36203
2.45299
2.56701
2.67737
2.78252
2.88151
2.97357
3.05826
3.13522
3.20418
3.26473
3.31617
3.35738
3.38689
3.40377
3.40862
3.40387
3.39306
3.37866
3.35515
3.28852
2.50413
2.61454
2.72122
2.82275
2.91831
3.00711
3.08862
3.16244
3.22812
3.28501
3.33189
3.36667
3.38667
3.38998
3.37724
3.35263
3.32424
3.30004
3.2736
3.20113
2.55796
2.66795
2.7746
2.87701
2.97433
3.06583
3.15097
3.22926
3.3001
3.36259
3.41507
3.45483
3.47858
3.48425
3.4721
3.44316
3.39925
3.34027
3.2499
3.07426
0.0011143
0.00377972
0.0113271
0.0185834
0.0424466
0.0568622
0.0588434
0.079892
0.11038
0.153941
0.207091
0.28073
0.381025
0.510175
0.664639
0.85638
1.11468
1.44954
1.86377
2.36422
-0.0013177
0.0298087
0.0273545
0.0687151
0.0709884
0.0978672
0.146492
0.159018
0.226845
0.266337
0.357416
0.431555
0.567277
0.686369
0.859943
1.08938
1.34036
1.68094
2.05931
2.47544
0.00873374
0.0394877
0.0579614
0.0955481
0.117039
0.153786
0.205833
0.246163
0.313343
0.377491
0.470088
0.568121
0.699627
0.839876
1.02055
1.24406
1.5021
1.81331
2.16307
2.54261
0.0160187
0.0497081
0.0836201
0.121829
0.159277
0.205527
0.260755
0.319575
0.389652
0.469918
0.565639
0.677016
0.807779
0.958529
1.14007
1.354
1.60012
1.87871
2.18303
2.5043
0.0202229
0.0609579
0.103691
0.14793
0.196496
0.250408
0.311098
0.37979
0.456188
0.544498
0.645106
0.761167
0.893466
1.04675
1.22267
1.42397
1.65142
1.9015
2.17037
2.45007
0.0236232
0.0713249
0.120848
0.172318
0.228054
0.288854
0.355493
0.429703
0.511993
0.604594
0.708487
0.825867
0.957933
1.10727
1.2754
1.46211
1.66652
1.88626
2.11605
2.35064
0.0265632
0.0804156
0.135806
0.193551
0.255244
0.321211
0.392757
0.471276
0.557316
0.652395
0.757564
0.87417
1.00363
1.14695
1.30413
1.47545
1.65979
1.85374
2.05313
2.25098
0.0291992
0.0882269
0.148783
0.211715
0.277854
0.348333
0.423713
0.504955
0.593297
0.689368
0.794211
0.908732
1.03356
1.16903
1.31537
1.47114
1.63473
1.80367
1.97319
2.13903
0.0314136
0.094873
0.159722
0.226784
0.296835
0.370397
0.448542
0.531973
0.62126
0.7173
0.820636
0.931801
1.05113
1.17857
1.31335
1.45495
1.60138
1.74951
1.89584
2.03469
0.0333051
0.100426
0.16886
0.23921
0.312057
0.388313
0.468333
0.552745
0.642353
0.737475
0.838559
0.945784
1.05908
1.17817
1.30259
1.43063
1.56055
1.68988
1.81495
1.9324
0.0348428
0.105006
0.17627
0.249238
0.324459
0.40231
0.483596
0.568669
0.657797
0.751467
0.849757
0.95268
1.0601
1.17149
1.28586
1.40232
1.51882
1.63279
1.74145
1.84063
0.0361153
0.108714
0.182279
0.25724
0.334042
0.413308
0.495226
0.580198
0.668597
0.760454
0.855819
0.954533
1.05621
1.16028
1.26598
1.37171
1.4759
1.5765
1.67078
1.75625
0.0371135
0.111662
0.186985
0.263527
0.341638
0.421556
0.503823
0.58855
0.675783
0.765684
0.858086
0.952767
1.04932
1.14702
1.24483
1.34179
1.43612
1.52594
1.60917
1.68282
0.0379073
0.113962
0.190674
0.268341
0.347264
0.427816
0.51006
0.594179
0.680292
0.768237
0.857891
0.948908
1.04077
1.13279
1.22406
1.31318
1.3988
1.47948
1.5533
1.61844
0.0385158
0.115751
0.193493
0.272045
0.351606
0.432298
0.514439
0.597976
0.682816
0.768961
0.856103
0.943895
1.03182
1.11912
1.2048
1.28788
1.36687
1.4404
1.50701
1.5646
0.0389907
0.117121
0.195667
0.274803
0.354712
0.435604
0.517473
0.60033
0.684133
0.768652
0.853655
0.938711
1.02325
1.10656
1.18781
1.26584
1.33937
1.40716
1.46777
1.52
0.0393444
0.118157
0.197287
0.276899
0.357064
0.437856
0.51953
0.601852
0.684622
0.767809
0.85103
0.933883
1.01579
1.09597
1.17363
1.24806
1.31783
1.3815
1.43774
1.48507
0.0395972
0.118883
0.198434
0.27834
0.358646
0.439489
0.520918
0.602752
0.684809
0.766934
0.848787
0.929929
1.00976
1.0875
1.16247
1.23394
1.30066
1.36125
1.41431
1.4587
0.0397549
0.119339
0.199121
0.279216
0.359671
0.440492
0.521738
0.60326
0.684822
0.766258
0.847167
0.927103
1.00549
1.08158
1.15462
1.22393
1.28843
1.34691
1.3982
1.44093
0.0398342
0.119544
0.199416
0.279427
0.360009
0.441265
0.522034
0.603278
0.684902
0.765887
0.846346
0.925554
1.00294
1.07805
1.15009
1.21727
1.27957
1.33648
1.38687
1.43116
-0.024748
-0.0748776
-0.127182
-0.179043
-0.237035
-0.294552
-0.353924
-0.420426
-0.490288
-0.566083
-0.648317
-0.739195
-0.840712
-0.964583
-1.10817
-1.28899
-1.56565
-1.89067
-2.03674
-5.47007
-0.0236557
-0.0713762
-0.121036
-0.170094
-0.225193
-0.279225
-0.334398
-0.39632
-0.460928
-0.530402
-0.605156
-0.686973
-0.777139
-0.885154
-1.00703
-1.16062
-1.37958
-1.57634
-1.6685
-3.80482
-0.0224603
-0.0677706
-0.114805
-0.161135
-0.213323
-0.263893
-0.314848
-0.372108
-0.431437
-0.494554
-0.561795
-0.634517
-0.713172
-0.805181
-0.905867
-1.03096
-1.19016
-1.28517
-1.34943
-2.4977
-0.0213028
-0.0641927
-0.108585
-0.152182
-0.201485
-0.248604
-0.295321
-0.347954
-0.402095
-0.458993
-0.518847
-0.582614
-0.649863
-0.726524
-0.807181
-0.902815
-1.00492
-1.02151
-1.02563
-1.44213
-0.020083
-0.0605388
-0.102338
-0.143211
-0.189702
-0.233374
-0.275787
-0.323785
-0.372731
-0.423442
-0.475932
-0.530797
-0.586651
-0.648354
-0.709365
-0.77514
-0.825762
-0.787002
-0.733175
-0.673129
-0.0188878
-0.0568888
-0.0960948
-0.134223
-0.17795
-0.218191
-0.256281
-0.299701
-0.343535
-0.388199
-0.433452
-0.479575
-0.524268
-0.571755
-0.613798
-0.650199
-0.655667
-0.571485
-0.443099
-0.0713532
-0.0176626
-0.053204
-0.0898345
-0.125208
-0.16617
-0.203003
-0.236798
-0.275657
-0.314414
-0.353088
-0.391186
-0.428671
-0.46238
-0.496038
-0.519452
-0.52775
-0.49507
-0.375673
-0.183717
0.377162
-0.0164531
-0.0495488
-0.0835509
-0.116169
-0.15424
-0.18771
-0.217381
-0.251713
-0.285518
-0.318291
-0.349416
-0.378413
-0.401475
-0.421783
-0.427251
-0.409277
-0.343731
-0.190913
0.0641657
0.731329
-0.0152079
-0.0459289
-0.0772145
-0.107147
-0.142096
-0.172258
-0.198083
-0.227832
-0.256826
-0.28368
-0.308043
-0.328623
-0.341381
-0.348532
-0.336683
-0.294767
-0.201562
-0.0208692
0.285358
1.00632
-0.0139217
-0.042373
-0.0708102
-0.098189
-0.129816
-0.156726
-0.178969
-0.204055
-0.228461
-0.249387
-0.267277
-0.279527
-0.282474
-0.276826
-0.248535
-0.184926
-0.0672277
0.140431
0.492001
1.22782
-0.0125657
-0.0387962
-0.0643985
-0.0893171
-0.117844
-0.141518
-0.16002
-0.180434
-0.200349
-0.215434
-0.22701
-0.231113
-0.224658
-0.206841
-0.162952
-0.0796851
0.0590732
0.289719
0.676509
1.40676
-0.0112543
-0.0349677
-0.0582041
-0.0803671
-0.107006
-0.127399
-0.141017
-0.157212
-0.172339
-0.182194
-0.187179
-0.183809
-0.168035
-0.139629
-0.0810103
0.0209947
0.178624
0.431675
0.846166
1.55525
-0.0102692
-0.0304639
-0.0526632
-0.0709547
-0.0982851
-0.115292
-0.121491
-0.13478
-0.14397
-0.150114
-0.147346
-0.138056
-0.112198
-0.0759104
-0.00334159
0.117569
0.290901
0.564498
0.998204
1.68033
-0.00999766
-0.024953
-0.0481289
-0.0606953
-0.0919431
-0.105484
-0.101037
-0.113454
-0.114869
-0.119657
-0.10723
-0.0944012
-0.0569454
-0.0160743
0.0696695
0.210589
0.396885
0.69145
1.13768
1.78738
-0.0102872
-0.018981
-0.0440206
-0.0500874
-0.0862054
-0.0963703
-0.0802528
-0.0925472
-0.0855198
-0.0901592
-0.0672865
-0.0522592
-0.00265957
0.0416006
0.13957
0.299862
0.496567
0.810223
1.2634
1.88029
-0.00928025
-0.0152106
-0.0374855
-0.0417669
-0.0759233
-0.0831063
-0.0621089
-0.0690097
-0.058826
-0.0584972
-0.0303146
-0.00866922
0.0480505
0.101613
0.210566
0.383505
0.5925
0.919744
1.37583
1.96218
-0.00253966
-0.0189725
-0.022838
-0.0410669
-0.0532368
-0.0580193
-0.0524844
-0.0368034
-0.0408377
-0.0182153
-0.00209106
0.0427823
0.0899689
0.171058
0.289465
0.456831
0.68791
1.0137
1.47037
2.0365
0.0149908
-0.0355372
0.00552194
-0.0531818
-0.0127174
-0.0153721
-0.057059
0.00983444
-0.0378604
0.0371072
0.0112242
0.108699
0.117708
0.254686
0.381153
0.514848
0.787114
1.08851
1.54427
2.10586
0.0404958
-0.0608459
0.0430886
-0.0738731
0.038642
0.0386424
-0.0712636
0.0654924
-0.0455895
0.102644
0.0137504
0.184825
0.135493
0.345916
0.47946
0.559738
0.887111
1.14663
1.5998
2.17066
0.0480018
-0.0644885
0.056724
-0.0713477
0.0628472
0.0664586
-0.0607502
0.0933026
-0.0290374
0.140538
0.0400527
0.233884
0.176309
0.409459
0.549735
0.618775
0.964112
1.21237
1.65812
2.22637
-0.0457774
-0.13777
-0.235865
-0.342094
-0.462668
-0.599366
-0.759804
-0.94921
-1.17637
-1.45399
-1.79762
-2.23229
-2.79383
-3.51328
-4.51707
-5.71257
-7.17005
-7.86286
-7.77034
-7.1071
-0.0479323
-0.145787
-0.25032
-0.363105
-0.490337
-0.63427
-0.802196
-0.999674
-1.23526
-1.52183
-1.87451
-2.31861
-2.88575
-3.60409
-4.6026
-5.77271
-7.22614
-7.80942
-7.60738
-7.1624
-0.0501002
-0.152754
-0.262133
-0.380093
-0.512395
-0.661688
-0.835095
-1.03834
-1.27982
-1.572
-1.9291
-2.37426
-2.933
-3.64508
-4.59791
-5.72533
-7.09911
-7.64925
-7.40049
-7.00101
-0.0516441
-0.15775
-0.271022
-0.392872
-0.529055
-0.682196
-0.85926
-1.06597
-1.3104
-1.6044
-1.96082
-2.39976
-2.94251
-3.63117
-4.52105
-5.56403
-6.79072
-7.21372
-7.05736
-6.69036
-0.053075
-0.161793
-0.277623
-0.402129
-0.54077
-0.696133
-0.875007
-1.08302
-1.32777
-1.62013
-1.97148
-2.39922
-2.92098
-3.57537
-4.38923
-5.31266
-6.39177
-6.70048
-6.5785
-6.29892
-0.0537477
-0.164008
-0.281521
-0.407592
-0.547643
-0.704014
-0.883335
-1.09101
-1.33386
-1.62157
-1.96426
-2.37631
-2.87247
-3.48649
-4.22122
-5.01913
-5.95056
-6.09828
-6.12152
-5.8921
-0.0542487
-0.165151
-0.283163
-0.409678
-0.549815
-0.705776
-0.883958
-1.08956
-1.32856
-1.60974
-1.94212
-2.33671
-2.80546
-3.37525
-4.03071
-4.73475
-5.58908
-5.5244
-5.70504
-5.52558
-0.0540162
-0.164636
-0.282297
-0.408265
-0.547462
-0.70178
-0.87736
-1.07903
-1.31198
-1.58458
-1.90498
-2.28131
-2.72435
-3.25077
-3.83527
-4.46814
-5.27232
-5.02368
-5.4188
-5.23753
-0.0536055
-0.162998
-0.279244
-0.403618
-0.540724
-0.692284
-0.864051
-1.0604
-1.28575
-1.54799
-1.85398
-2.21044
-2.62903
-3.11875
-3.65271
-4.23126
-4.94281
-4.57376
-5.2337
-5.06435
-0.0525353
-0.159919
-0.273876
-0.395623
-0.52957
-0.677238
-0.84411
-1.03425
-1.25158
-1.50321
-1.79404
-2.13002
-2.52393
-2.98097
-3.47823
-4.00374
-4.57177
-4.20452
-5.17154
-5.03863
-0.0513324
-0.155855
-0.266589
-0.38466
-0.514232
-0.65668
-0.817149
-0.999636
-1.20794
-1.44859
-1.72534
-2.04445
-2.41701
-2.84222
-3.30358
-3.78383
-4.24058
-4.07345
-5.24091
-5.12891
-0.0495967
-0.150719
-0.257568
-0.371228
-0.495617
-0.6318
-0.784475
-0.957473
-1.15434
-1.38118
-1.64205
-1.94459
-2.29698
-2.69266
-3.11369
-3.55643
-4.07302
-4.4774
-4.92933
-5.15876
-0.0477205
-0.144673
-0.246969
-0.355554
-0.47413
-0.60351
-0.747886
-0.910858
-1.09537
-1.30698
-1.55048
-1.83443
-2.16385
-2.53029
-2.9185
-3.34204
-3.97749
-4.75549
-4.0956
-4.8012
-0.045395
-0.137754
-0.234949
-0.337879
-0.44996
-0.571731
-0.706997
-0.859234
-1.03087
-1.22709
-1.4532
-1.71727
-2.02192
-2.36289
-2.73622
-3.17224
-3.85793
-4.16981
-3.61197
-5.37482
-0.0429329
-0.129997
-0.221492
-0.318124
-0.423012
-0.536431
-0.661744
-0.802277
-0.96006
-1.14001
-1.34729
-1.58822
-1.86539
-2.18214
-2.54987
-3.03262
-3.7606
-3.33371
-3.70545
-5.4146
-0.0401295
-0.121582
-0.206878
-0.296698
-0.393797
-0.498279
-0.613072
-0.741295
-0.884706
-1.04784
-1.23506
-1.4508
-1.69814
-1.98659
-2.34239
-2.8653
-3.62803
-3.20141
-5.0932
-6.04688
-0.0372024
-0.11243
-0.19097
-0.273391
-0.362115
-0.457211
-0.561166
-0.67687
-0.805868
-0.952121
-1.1191
-1.31017
-1.52889
-1.78796
-2.12061
-2.60924
-3.26299
-3.33539
-7.65976
-6.59769
-0.0340665
-0.102926
-0.174403
-0.249084
-0.329079
-0.414341
-0.50689
-0.609377
-0.722986
-0.850791
-0.995338
-1.1595
-1.34719
-1.57201
-1.86496
-2.27151
-2.76837
-3.35818
-8.7165
-6.21621
-0.0308
-0.0928237
-0.157023
-0.223557
-0.294891
-0.37008
-0.450838
-0.539938
-0.637633
-0.746216
-0.867452
-1.00411
-1.16075
-1.35165
-1.59191
-1.88813
-2.25561
-2.97282
-4.42123
-4.66678
-0.0273085
-0.0823292
-0.139336
-0.1972
-0.260338
-0.324995
-0.393172
-0.468716
-0.549833
-0.638829
-0.73671
-0.846051
-0.971126
-1.1264
-1.31565
-1.55062
-1.92217
-2.51564
-2.79212
-7.58736
-0.0640251
-0.17334
-0.295397
-0.375128
-0.38672
-0.30322
-0.179252
-0.0844771
-0.000224772
0.0665225
0.105946
0.122914
0.124677
0.115576
0.0999015
0.0805041
0.0600882
0.0403123
0.0223765
0.00715905
-0.105444
-0.268151
-0.424528
-0.484916
-0.507704
-0.465397
-0.423013
-0.385437
-0.327624
-0.25056
-0.178683
-0.127442
-0.0945388
-0.0775591
-0.0720717
-0.0758578
-0.0864407
-0.102355
-0.12205
-0.144839
-0.0378508
-0.135212
-0.266917
-0.315138
-0.295198
-0.228018
-0.17664
-0.132042
-0.101896
-0.0902582
-0.0892158
-0.0958272
-0.108007
-0.125659
-0.148482
-0.177354
-0.212388
-0.25302
-0.297473
-0.343541
0.0843126
0.190435
0.178806
0.177151
0.148574
0.122056
0.103406
0.077729
0.0621976
0.0292608
-0.00452508
-0.0498151
-0.103838
-0.167282
-0.238457
-0.312975
-0.389547
-0.466747
-0.545805
-0.626457
0.0669974
0.148813
0.204746
0.238111
0.277801
0.266053
0.270491
0.243926
0.222631
0.176575
0.115146
0.0388503
-0.0590433
-0.164319
-0.279733
-0.393235
-0.508443
-0.627531
-0.75432
-0.887043
0.081654
0.195543
0.3128
0.357318
0.420575
0.429215
0.445978
0.434392
0.422624
0.38888
0.325801
0.248738
0.120458
-0.017273
-0.174011
-0.32544
-0.47968
-0.645493
-0.832718
-1.03895
0.118914
0.260183
0.384572
0.455395
0.511309
0.547673
0.556099
0.557249
0.539701
0.529819
0.46891
0.397053
0.279593
0.142764
-0.0131696
-0.180479
-0.357389
-0.54988
-0.765395
-1.0061
0.117883
0.266974
0.369714
0.450193
0.481691
0.54598
0.545731
0.560571
0.544327
0.520176
0.477002
0.414144
0.329411
0.218738
0.089283
-0.0576814
-0.217981
-0.389329
-0.576073
-0.782807
0.0633252
0.169709
0.180497
0.231944
0.256568
0.272529
0.275476
0.268338
0.250741
0.214592
0.165603
0.0984432
0.0153833
-0.0802288
-0.188534
-0.304005
-0.424282
-0.543778
-0.658758
-0.771469
0.00512692
0.0130782
0.00288672
-0.0151852
-0.0333011
-0.0694886
-0.10963
-0.161903
-0.225368
-0.300252
-0.390929
-0.491166
-0.601058
-0.711165
-0.812132
-0.896495
-0.959307
-1.00201
-1.02613
-1.03771
-0.0346961
-0.112064
-0.189619
-0.274826
-0.373109
-0.477616
-0.602062
-0.739382
-0.898356
-1.07426
-1.26095
-1.45082
-1.6257
-1.76751
-1.85408
-1.87188
-1.81682
-1.69878
-1.54051
-1.37211
-0.0625442
-0.198222
-0.347381
-0.510496
-0.698427
-0.913256
-1.15855
-1.44187
-1.7547
-2.08993
-2.42901
-2.74799
-3.01228
-3.18669
-3.24828
-3.19128
-3.00779
-2.69056
-2.24738
-1.72664
-0.0528577
-0.207182
-0.392424
-0.624693
-0.910068
-1.26565
-1.69442
-2.18481
-2.71597
-3.24347
-3.73857
-4.17132
-4.49639
-4.56143
-4.27502
-3.77236
-3.30942
-2.97193
-2.68266
-2.41779
-0.0331387
-0.139052
-0.283413
-0.495271
-0.793861
-1.20475
-1.74174
-2.35178
-2.92265
-3.27768
-3.40471
-3.42443
-3.54584
-3.78676
-3.97624
-4.00869
-3.98703
-3.9446
-3.849
-3.75045
0.00825646
0.021681
0.012237
-0.0266876
-0.110712
-0.268227
-0.5118
-0.819186
-1.11546
-1.32188
-1.46744
-1.63394
-1.87894
-2.12094
-2.30042
-2.57235
-3.0684
-3.63753
-4.12357
-4.54876
0.0764736
0.239875
0.397845
0.557934
0.704338
0.824834
0.914085
1.01873
1.2096
1.43189
1.51221
1.24081
0.627109
-0.126894
-0.781827
-1.4419
-2.1364
-2.92266
-3.85919
-4.80635
0.0811202
0.253305
0.428311
0.615777
0.814506
1.01997
1.2181
1.39696
1.54468
1.64125
1.65473
1.52058
1.26908
0.837591
0.345708
-0.259856
-0.966022
-1.74734
-2.68764
-3.68291
0.0309751
0.0923364
0.159464
0.224201
0.286425
0.336362
0.374709
0.40865
0.458228
0.51401
0.52719
0.475001
0.343051
0.133905
-0.188759
-0.65009
-1.25071
-1.93515
-2.65558
-3.37055
-0.0038776
-0.0185147
-0.0302986
-0.0473893
-0.0700013
-0.101664
-0.146968
-0.208251
-0.294844
-0.416614
-0.586924
-0.806164
-1.09571
-1.44498
-1.91207
-2.44715
-3.04983
-3.66328
-4.02998
-3.96562
-0.0342932
-0.102642
-0.178962
-0.261533
-0.358036
-0.468498
-0.600371
-0.757253
-0.94756
-1.18483
-1.48457
-1.87018
-2.38918
-3.0715
-4.00995
-5.13002
-6.30651
-6.94799
-6.34196
-5.80692
-0.00194648
-0.00706132
-0.0119825
-0.016723
-0.0212781
-0.0256532
-0.0298577
-0.0338972
-0.0377824
-0.0415221
-0.0451279
-0.048609
-0.0519729
-0.0552241
-0.0583683
-0.061414
-0.0643686
-0.0672325
-0.0700024
-0.0726505
-0.162816
-0.173126
-0.183495
-0.193841
-0.204136
-0.214305
-0.224306
-0.234079
-0.243582
-0.252769
-0.261601
-0.270033
-0.278027
-0.285555
-0.292616
-0.299223
-0.305343
-0.310815
-0.315425
-0.319219
-0.376167
-0.394934
-0.413682
-0.432216
-0.450495
-0.468388
-0.485846
-0.502777
-0.519123
-0.534811
-0.549794
-0.564021
-0.577443
-0.59001
-0.601692
-0.612457
-0.62221
-0.630819
-0.638296
-0.644847
-0.683721
-0.71633
-0.748786
-0.780919
-0.81264
-0.843813
-0.874323
-0.904029
-0.932825
-0.960605
-0.98727
-1.01267
-1.03664
-1.0591
-1.08001
-1.09922
-1.11643
-1.13147
-1.14445
-1.15556
-0.983111
-1.0384
-1.09411
-1.15002
-1.20602
-1.26193
-1.31755
-1.37266
-1.42702
-1.48039
-1.53241
-1.58271
-1.63096
-1.67693
-1.72037
-1.76084
-1.79778
-1.83095
-1.86067
-1.88717
-1.19197
-1.28078
-1.37093
-1.46219
-1.55437
-1.64734
-1.74093
-1.83496
-1.92915
-2.02309
-2.11626
-2.20805
-2.29786
-2.38511
-2.46907
-2.54882
-2.62351
-2.69286