/*--------------------------------*- C++ -*----------------------------------*\
| =========                 |                                                 |
| \\      /  F ield         | OpenFOAM: The Open Source CFD Toolbox           |
|  \\    /   O peration     | Version:  v1806                                 |
|   \\  /    A nd           | Web:      www.OpenFOAM.com                      |
|    \\/     M anipulation  |                                                 |
\*---------------------------------------------------------------------------*/
FoamFile
{
    version     2.0;
    format      ascii;
    class       surfaceScalarField;
    location    "330";
    object      phi;
}
// * * * * * * * * * * * * * * * * * * * * * * * * * * * * * * * * * * * * * //

dimensions      [0 3 -1 0 0 0 0];
oriented        oriented;


internalField   nonuniform List<scalar> 
4680
(
0.0749994
-0.000271172
0.0749973
-0.000819345
0.0749932
-0.00137245
0.0749872
-0.00194574
0.0749785
-0.00253562
0.0749677
-0.00315934
0.0749537
-0.00380882
0.074938
-0.00450255
0.0749195
-0.00522689
0.0749004
-0.00599871
0.0748802
-0.0067973
0.0748624
-0.00763223
0.0748475
-0.0084739
0.0748403
-0.00931711
0.074843
-0.0101214
0.0748607
-0.0108621
0.0748967
-0.0114872
0.0749536
-0.0119583
0.075029
-0.0122168
-0.0122409
0.0751423
0.0749983
-0.000269459
0.0749938
-0.000814869
0.0749856
-0.00136422
0.0749747
-0.00193486
0.0749596
-0.00252053
0.0749423
-0.00314202
0.0749206
-0.00378713
0.074898
-0.00447991
0.0748718
-0.00520074
0.0748476
-0.00597447
0.0748229
-0.00677264
0.0748055
-0.00761486
0.0747945
-0.00846286
0.0747992
-0.00932179
0.074821
-0.0101432
0.0748686
-0.0109097
0.0749444
-0.011563
0.0750522
-0.0120661
0.0751915
-0.0123561
-0.0124044
0.075355
0.0749972
-0.000266623
0.0749899
-0.00080759
0.0749766
-0.00135095
0.0749595
-0.00191772
0.0749359
-0.00249699
0.0749097
-0.0031158
0.0748771
-0.00375452
0.0748443
-0.00444714
0.0748066
-0.00516303
0.0747738
-0.0059416
0.0747405
-0.00673942
0.0747209
-0.00759519
0.0747108
-0.00845278
0.074727
-0.00933798
0.0747686
-0.0101848
0.0748503
-0.0109914
0.0749733
-0.011686
0.0751435
-0.0122363
0.0753554
-0.0125681
-0.0126464
0.0755974
0.074996
-0.000262667
0.0749859
-0.000797459
0.0749674
-0.00133242
0.0749436
-0.00189396
0.074911
-0.00246432
0.074875
-0.00307983
0.07483
-0.00370959
0.0747857
-0.00440282
0.0747341
-0.00511143
0.0746906
-0.00589809
0.0746455
-0.00669435
0.0746212
-0.00757085
0.074608
-0.00843963
0.0746336
-0.00936357
0.0746915
-0.0102427
0.074807
-0.0111069
0.0749774
-0.0118563
0.0752127
-0.0124716
0.0755042
-0.0128595
-0.0129803
0.0758381
0.0749949
-0.000257587
0.0749819
-0.000784449
0.074958
-0.00130854
0.0749275
-0.00186345
0.0748854
-0.00242216
0.0748392
-0.00303372
0.0747811
-0.00365141
0.0747244
-0.00434615
0.074657
-0.00504406
0.0746015
-0.00584256
0.0745412
-0.00663407
0.0745102
-0.00753987
0.0744891
-0.00841847
0.074522
-0.00939646
0.0745909
-0.0103116
0.0747392
-0.0112553
0.0749548
-0.0120719
0.0752584
-0.0127752
0.0756357
-0.0132368
-0.0134139
0.0760692
0.0749938
-0.000251383
0.0749779
-0.000768522
0.0749486
-0.00127923
0.0749112
-0.00182608
0.0748592
-0.0023702
0.0748027
-0.00297718
0.0747304
-0.00357914
0.0746607
-0.00427641
0.0745756
-0.00495899
0.0745068
-0.00577372
0.0744275
-0.00655481
0.074388
-0.00750034
0.0743526
-0.00838312
0.0743909
-0.00943472
0.0744632
-0.0103839
0.0746443
-0.0114364
0.074901
-0.0123285
0.0752772
-0.0131514
0.0757469
-0.0137065
-0.0139575
0.0762904
0.0749927
-0.000244077
0.0749738
-0.000749619
0.074939
-0.00124443
0.0748946
-0.0017817
0.0748326
-0.00230819
0.0747653
-0.00290982
0.0746781
-0.00349196
0.0745945
-0.00419281
0.0744896
-0.00485416
0.074406
-0.00569008
0.0743034
-0.00645223
0.0742532
-0.00745015
0.074196
-0.00832586
0.0742378
-0.00947656
0.0743028
-0.0104489
0.0745177
-0.0116512
0.0748076
-0.0126185
0.0752638
-0.0136076
0.0758329
-0.0142756
-0.0146257
0.0765011
0.0749916
-0.000235711
0.0749697
-0.000727644
0.0749294
-0.00120417
0.0748778
-0.0017301
0.0748056
-0.00223595
0.0747269
-0.00283117
0.0746241
-0.00338915
0.0745256
-0.00409431
0.074399
-0.00472753
0.0742987
-0.00558978
0.0741681
-0.00632163
0.0741046
-0.00738666
0.0740162
-0.00823744
0.0740596
-0.00952
0.0741028
-0.0104921
0.0743541
-0.0119025
0.0746633
-0.0129277
0.0752117
-0.0141559
0.0758858
-0.0149497
-0.0154389
0.076699
0.0749906
-0.000226361
0.0749655
-0.000702469
0.0749198
-0.00115851
0.0748607
-0.001671
0.0747782
-0.00215346
0.0746876
-0.00274058
0.0745687
-0.0032702
0.0744539
-0.00397956
0.0743037
-0.00457732
0.0741843
-0.00547033
0.0740209
-0.0061583
0.0739405
-0.00730625
0.0738106
-0.00810756
0.0738529
-0.00956222
0.0738556
-0.0104949
0.0741475
-0.0121945
0.0744531
-0.0132333
0.0751136
-0.0148163
0.0758925
-0.0157287
-0.0164264
0.0768801
0.0749898
-0.000216131
0.0749612
-0.000673925
0.0749104
-0.00110765
0.0748434
-0.00160404
0.0747509
-0.00206091
0.0746475
-0.00263722
0.0745123
-0.003135
0.0743795
-0.00384674
0.0742045
-0.00440233
0.0740624
-0.00532828
0.0738623
-0.00595821
0.0737596
-0.00720353
0.0735779
-0.00792583
0.0736137
-0.00959805
0.0735541
-0.0104353
0.0738909
-0.0125312
0.0741589
-0.0135013
0.0749611
-0.0156185
0.0758296
-0.0165973
-0.0176361
0.0770392
0.074989
-0.000205156
0.0749569
-0.000641821
0.0749012
-0.0010519
0.0748259
-0.00152882
0.0747238
-0.00195874
0.0746066
-0.00252005
0.0744556
-0.00298395
0.0743023
-0.00369351
0.0741024
-0.00420235
0.0739329
-0.00515886
0.0736936
-0.00571883
0.0735604
-0.00707035
0.073318
-0.00768343
0.0733376
-0.00961771
0.0731927
-0.0102903
0.0735749
-0.0129134
0.0737605
-0.0136869
0.0747436
-0.0166016
0.0756634
-0.017517
-0.0191443
0.0771717
0.0749884
-0.000193574
0.0749526
-0.000605977
0.0748923
-0.000991651
0.0748084
-0.0014449
0.0746973
-0.00184763
0.0745652
-0.00238793
0.0743993
-0.00281806
0.0742228
-0.00351699
0.0739989
-0.00397846
0.0737957
-0.00495572
0.0735171
-0.00544018
0.0733412
-0.00689451
0.0730333
-0.00737548
0.0730189
-0.00960336
0.0727685
-0.0100399
0.0731867
-0.0133316
0.0732373
-0.0137375
0.0744465
-0.0178108
0.0753508
-0.0184213
-0.0210699
0.0772764
0.0749879
-0.000181502
0.0749482
-0.000566278
0.0748839
-0.000927335
0.074791
-0.00135199
0.0746718
-0.00172844
0.0745236
-0.00223975
0.0743444
-0.00263881
0.0741414
-0.00331405
0.073896
-0.00373305
0.0736512
-0.00471094
0.0733365
-0.00512544
0.0731007
-0.00665867
0.0727289
-0.00700368
0.0726501
-0.00952458
0.0722843
-0.00967412
0.0727085
-0.0137558
0.0725709
-0.0135999
0.0740492
-0.0192891
0.0748369
-0.019209
-0.0235938
0.0773607
0.0749875
-0.000168994
0.074944
-0.000522748
0.074876
-0.000859328
0.074774
-0.00125002
0.0746475
-0.00160196
0.0744826
-0.00207484
0.0742916
-0.00244783
0.0740595
-0.00308192
0.0737958
-0.00346936
0.0735009
-0.00441604
0.0731562
-0.00478072
0.0728381
-0.00634057
0.0724124
-0.00657802
0.0722213
-0.00933343
0.0717496
-0.00920246
0.0721123
-0.0141184
0.071752
-0.0132396
0.0735213
-0.0210584
0.0740407
-0.0197284
-0.0270055
0.0774524
0.074987
-0.000156022
0.0749399
-0.000475612
0.0748684
-0.000787865
0.0747578
-0.0011394
0.0746246
-0.00146873
0.0744431
-0.00189337
0.0742415
-0.00224623
0.0739789
-0.00281932
0.0736998
-0.0031902
0.073348
-0.00406426
0.0729803
-0.00441303
0.072556
-0.00591627
0.0720927
-0.00611471
0.0717227
-0.00896341
0.0711798
-0.00865965
0.071352
-0.0142906
0.0707956
-0.0126832
0.0727988
-0.0230617
0.0728432
-0.0197727
-0.0318242
0.0776619
0.0749865
-0.000142473
0.0749361
-0.000425301
0.0748613
-0.000713024
0.0747429
-0.00102101
0.0746031
-0.00132888
0.0744064
-0.00169665
0.0741943
-0.00203418
0.0739026
-0.00252764
0.0736084
-0.00289598
0.0731987
-0.00365459
0.0728114
-0.00402566
0.0722651
-0.00537001
0.0717778
-0.00562738
0.0711529
-0.00833859
0.0705874
-0.00809411
0.0703624
-0.0140656
0.0697464
-0.0120671
0.071709
-0.0250243
0.0711328
-0.0191965
-0.0390431
0.0783518
0.0749857
-0.000128193
0.0749328
-0.000372389
0.0748546
-0.000634818
0.0747297
-0.000896137
0.0745831
-0.0011823
0.0743735
-0.00148704
0.0741503
-0.00181097
0.0738337
-0.00221097
0.073522
-0.0025843
0.0730609
-0.00319352
0.0726477
-0.0036125
0.0719859
-0.00470814
0.0714689
-0.00511038
0.0705557
-0.00742545
0.0699787
-0.00751704
0.0690709
-0.0131579
0.0686308
-0.011627
0.0698884
-0.0262819
0.0690024
-0.0183105
-0.0501381
0.0800973
0.0749848
-0.000113023
0.07493
-0.000317537
0.0748484
-0.000553283
0.0747186
-0.000766257
0.0745652
-0.0010289
0.0743456
-0.00126744
0.0741104
-0.00157577
0.0737745
-0.00187511
0.0734418
-0.0022516
0.0729415
-0.00269324
0.0724901
-0.00316108
0.0717388
-0.00395682
0.0711519
-0.00452348
0.0700024
-0.0062759
0.0693371
-0.0068518
0.0676679
-0.0114887
0.0673357
-0.0112948
0.0669489
-0.0258951
0.0670145
-0.0183761
-0.0654833
0.0823597
0.0749837
-9.67564e-05
0.0749278
-0.000261558
0.0748429
-0.000468458
0.0747097
-0.000633044
0.0745495
-0.000868715
0.0743231
-0.00104102
0.0740757
-0.00132832
0.0737266
-0.00152604
0.0733711
-0.00189606
0.0728441
-0.00216633
0.0723456
-0.00266257
0.0715359
-0.00314713
0.0708378
-0.00382538
0.0695376
-0.00497561
0.0685911
-0.00590535
0.0664185
-0.00931612
0.0656517
-0.0105279
0.0627111
-0.0229545
0.0659378
-0.0216029
-0.0799311
0.0803857
0.0749821
-7.88549e-05
0.0749267
-0.000206133
0.0748376
-0.000379421
0.0747039
-0.000499309
0.0745355
-0.000700279
0.0743076
-0.000813122
0.0740453
-0.00106604
0.0736925
-0.00117324
0.0733099
-0.00151345
0.0727725
-0.00162896
0.072221
-0.00211106
0.07138
-0.00230614
0.0705603
-0.0030057
0.0691652
-0.00358053
0.0678495
-0.00458964
0.0653432
-0.00680979
0.0631952
-0.00837994
0.0586251
-0.0183845
0.061725
-0.0247028
0.0636495
-0.0818555
0.0751729
-0.00268599
0.0751974
-0.00266712
0.0752235
-0.00264817
0.0752502
-0.00262604
0.0752775
-0.00260104
0.0753053
-0.00257327
0.0753334
-0.00254277
0.0753617
-0.00250962
0.0753899
-0.00247376
-0.00243538
0.0754169
0.0753905
-0.00272153
0.0754292
-0.00270572
0.0754679
-0.0026869
0.0755069
-0.00266505
0.075546
-0.00264018
0.0755851
-0.00261233
0.0756239
-0.00258159
0.0756624
-0.00254806
0.0757003
-0.00251172
-0.00247342
0.0757384
0.0756534
-0.00277757
0.07571
-0.00276225
0.0757665
-0.0027434
0.0758227
-0.00272129
0.0758785
-0.00269597
0.0759336
-0.00266746
0.0759879
-0.00263583
0.076041
-0.00260123
0.0760929
-0.00256359
-0.00252373
0.0761432
0.0759145
-0.00285395
0.0759908
-0.00283857
0.076067
-0.00281957
0.0761427
-0.00279697
0.0762175
-0.00277082
0.0762912
-0.00274117
0.0763635
-0.00270809
0.076434
-0.00267174
0.0765024
-0.00263202
-0.00259006
0.0765688
0.0761677
-0.00295236
0.0762662
-0.00293717
0.0763646
-0.00291789
0.0764621
-0.00289454
0.0765585
-0.00286716
0.0766531
-0.00283582
0.0767457
-0.00280062
0.0768357
-0.00276175
0.0769227
-0.00271906
-0.00267408
0.0770067
0.076414
-0.00307595
0.0765379
-0.00306103
0.0766613
-0.00304133
0.0767836
-0.00301688
0.0769042
-0.00298776
0.0770225
-0.00295407
0.0771378
-0.00291593
0.0772497
-0.00287361
0.0773575
-0.00282685
-0.00277785
0.0774612
0.0766538
-0.00322864
0.0768069
-0.00321409
0.0769594
-0.00319381
0.0771103
-0.00316784
0.0772589
-0.00313632
0.0774042
-0.00309941
0.0775456
-0.00305728
0.0776823
-0.00301031
0.0778135
-0.00295811
-0.00290381
0.0779395
0.0768862
-0.00341588
0.077074
-0.00340187
0.077261
-0.00338077
0.0774458
-0.00335267
0.0776273
-0.00331781
0.0778044
-0.00327647
0.077976
-0.0032289
0.0781413
-0.00317566
0.0782994
-0.00311618
-0.00305492
0.0784505
0.0771099
-0.00364566
0.0773402
-0.00363226
0.0775693
-0.00360984
0.0777952
-0.00357855
0.0780163
-0.00353889
0.0782311
-0.00349132
0.0784384
-0.00343622
0.0786372
-0.00337442
0.0788261
-0.00330511
-0.00323462
0.0790058
0.0773235
-0.00392993
0.0776079
-0.00391665
0.0778897
-0.00389169
0.0781665
-0.00385528
0.078436
-0.00380841
0.0786965
-0.00375181
0.0789463
-0.00368605
0.0791842
-0.00361235
0.0794087
-0.00352963
-0.00344669
0.0796208
0.077528
-0.0042863
0.0778827
-0.00427135
0.0782321
-0.00424111
0.0785729
-0.00419606
0.0789025
-0.00413799
0.0792187
-0.00406796
0.0795194
-0.00398678
0.0798033
-0.00389626
0.0800687
-0.003795
-0.00369499
0.080317
0.0777299
-0.00473985
0.0781775
-0.00471899
0.0786146
-0.00467813
0.079037
-0.00461847
0.0794418
-0.00454283
0.0798264
-0.00445254
0.0801884
-0.00434879
0.0805263
-0.00423418
0.0808384
-0.0041071
-0.00398334
0.0811268
0.0779474
-0.0053265
0.0785193
-0.00529088
0.0790714
-0.00523027
0.0795994
-0.00514651
0.0801001
-0.00504346
0.0805701
-0.00492256
0.0810067
-0.00478543
0.0814085
-0.00463592
0.0817738
-0.0044724
-0.00431485
0.0821053
0.0782279
-0.00610199
0.0789718
-0.00603474
0.079681
-0.00593947
0.0803505
-0.00581604
0.0809763
-0.00566923
0.0815541
-0.00550043
0.0820808
-0.00531207
0.0825545
-0.00510968
0.0829745
-0.00489237
-0.00468413
0.0833438
0.07871
-0.00715015
0.0797017
-0.00702639
0.0806314
-0.00686918
0.0814911
-0.00667581
0.0822742
-0.00645233
0.0829746
-0.00620077
0.0835883
-0.00592579
0.0841141
-0.00563553
0.0845539
-0.00533212
-0.00503926
0.084909
0.0797668
-0.00856516
0.0810789
-0.00833847
0.0822635
-0.00805378
0.083311
-0.00772336
0.0842114
-0.00735274
0.0849573
-0.00694663
0.0855475
-0.00651605
0.0859857
-0.00607365
0.0862827
-0.00562919
-0.00519278
0.0864363
0.0819238
-0.0103916
0.0834308
-0.00984542
0.0846481
-0.00927111
0.0855884
-0.00866368
0.0862533
-0.00801764
0.0866506
-0.00734397
0.0867991
-0.00666455
0.0867213
-0.00599577
0.0864462
-0.00535409
-0.00473061
0.085984
0.0841036
-0.0121356
0.0850678
-0.0108096
0.0854672
-0.00967056
0.0853791
-0.00857554
0.0848665
-0.00750505
0.084005
-0.00648248
0.0828739
-0.00553345
0.0815379
-0.00465977
0.0800438
-0.00385995
-0.00309943
0.0784126
0.079487
-0.011237
0.0778692
-0.00919176
0.0756117
-0.00741309
0.072893
-0.0058568
0.0698939
-0.00450598
0.066793
-0.00338156
0.0637241
-0.00246449
0.0607802
-0.00171596
0.0580186
-0.00109831
-0.000592
0.0555112
0.0524125
0.0432207
0.0358077
0.0299509
0.0254449
0.0220633
0.0195988
0.0178829
0.0167846
0.0161926
0.0756406
-0.0174537
0.0758245
-0.0140716
0.0759631
-0.0104247
0.0760566
-0.00697906
0.0761112
-0.00392548
0.0761459
-0.00148919
0.0761673
0.000567906
0.0761822
0.00217368
0.0761861
0.00352646
0.0761697
0.00465652
0.0761454
0.00528986
0.0761052
0.0057731
0.0760731
0.0056837
0.076059
0.00542389
0.0760654
0.00524012
0.076108
0.0048044
0.0761402
0.00527878
0.0761787
0.00527871
0.0761877
0.00605815
0.0064468
0.0759921
-0.0177075
0.0761586
-0.0142382
0.0762464
-0.0105125
0.076276
-0.00700864
0.0762702
-0.0039197
0.0762572
-0.00147611
0.0762438
0.00058124
0.0762335
0.00218404
0.0762149
0.00354506
0.0761795
0.00469188
0.0761381
0.00533129
0.076085
0.00582621
0.0760511
0.00571762
0.0760411
0.0054339
0.0760604
0.00522076
0.0761188
0.00474601
0.0761585
0.00523908
0.0762012
0.00523599
0.0762045
0.00605487
0.00648311
0.0764637
-0.018028
0.0766327
-0.0144072
0.0766789
-0.0105587
0.0766403
-0.00697008
0.0765611
-0.00384044
0.0764827
-0.00139768
0.076417
0.000646878
0.0763661
0.00223494
0.0763088
0.00360238
0.0762377
0.00476294
0.076162
0.00540701
0.0760804
0.00590783
0.0760346
0.0057634
0.0760251
0.00544341
0.0760611
0.00518473
0.0761443
0.0046628
0.0761971
0.00518632
0.076249
0.00518411
0.0762417
0.00606213
0.00653939
0.076972
-0.0184312
0.0771579
-0.0145931
0.0771734
-0.0105742
0.0770737
-0.00687036
0.0769243
-0.00369106
0.0767813
-0.00125465
0.0766623
0.000765845
0.0765687
0.00232862
0.0764673
0.00370375
0.0763521
0.00487812
0.0762309
0.00552818
0.076108
0.00603078
0.0760406
0.00583078
0.0760254
0.00545863
0.0760782
0.00513188
0.0761909
0.00455019
0.0762598
0.00511734
0.0763244
0.00511953
0.0763022
0.00608437
0.00662218
0.0774995
-0.018924
0.0777058
-0.0147994
0.0776925
-0.010561
0.0775335
-0.00671135
0.077317
-0.00347453
0.0771138
-0.00105144
0.076947
0.000932665
0.0768154
0.00246018
0.0766721
0.00384703
0.0765115
0.00503873
0.0763395
0.00570016
0.0761673
0.00620298
0.0760713
0.0059268
0.0760453
0.00548466
0.0761147
0.00506246
0.0762599
0.00440503
0.076347
0.00503021
0.076427
0.00503956
0.0763859
0.00612548
0.00673793
0.078047
-0.0195098
0.0782719
-0.0150243
0.0782251
-0.0105142
0.0780023
-0.00648848
0.0777168
-0.0031891
0.0774556
-0.000790174
0.0772465
0.00114173
0.0770836
0.00262307
0.0769032
0.00402745
0.0766989
0.00524305
0.0764735
0.00592554
0.0762472
0.00642929
0.0761178
0.00605621
0.0760775
0.00552489
0.0761645
0.00497549
0.0763453
0.0042242
0.0764525
0.00492304
0.0765505
0.0049416
0.0764865
0.00618947
0.00689293
0.0786201
-0.0201904
0.0788597
-0.015264
0.0787702
-0.0104247
0.0784743
-0.00619257
0.0781142
-0.002829
0.0777939
-0.000469839
0.0775466
0.00138901
0.0773579
0.00281173
0.0771446
0.00424082
0.076898
0.0054896
0.0766161
0.00620748
0.0763312
0.00671415
0.076164
0.00622344
0.0761069
0.00558203
0.0762132
0.00486919
0.0764324
0.00400496
0.0765617
0.00479376
0.0766799
0.00482337
0.0765886
0.00628076
0.00709295
0.0792259
-0.0209657
0.079475
-0.0155131
0.0793301
-0.0102798
0.0789486
-0.00581102
0.0785047
-0.00238517
0.0781216
-8.67645e-05
0.0778384
0.00167227
0.0776275
0.00302257
0.0773834
0.00448497
0.0770937
0.00577932
0.0767491
0.00655207
0.0763995
0.00706374
0.0761881
0.00643483
0.0761102
0.00565987
0.0762366
0.00474281
0.0764952
0.00374643
0.0766482
0.00464076
0.0767881
0.00468339
0.0766649
0.00640404
0.00734277
0.0798733
-0.0218332
0.0801254
-0.0157651
0.0799081
-0.0100625
0.0794246
-0.00532747
0.0788842
-0.00184482
0.0784311
0.000366407
0.0781114
0.00199194
0.0778786
0.00325539
0.0776026
0.00476097
0.0772648
0.00611706
0.0768474
0.00696953
0.0764237
0.00748739
0.0761582
0.00670033
0.0760529
0.00576521
0.0761965
0.00459926
0.0764911
0.00345175
0.076668
0.00446388
0.0768303
0.00452114
0.0766711
0.00656321
0.00764493
0.0805745
-0.0227869
0.0808209
-0.0160116
0.0805076
-0.00974923
0.0798992
-0.00471902
0.0792423
-0.00118791
0.0787054
0.000903301
0.0783426
0.0023547
0.0780819
0.00351609
0.0777681
0.00507481
0.0773726
0.0065125
0.076868
0.00747413
0.0763578
0.00799757
0.0760238
0.00703436
0.0758796
0.00590946
0.0760308
0.00444803
0.0763524
0.0031301
0.0765515
0.00426482
0.0767364
0.00433626
0.0765411
0.00675852
0.00799736
0.0813471
-0.023817
0.0815738
-0.0162383
0.0811263
-0.00930168
0.0803562
-0.00394889
0.0795481
-0.000379807
0.0789009
0.00155044
0.078476
0.00277963
0.0781714
0.00382069
0.0778075
0.0054387
0.0773406
0.00697939
0.0767333
0.00808149
0.076123
0.00860787
0.0757024
0.00745497
0.0755022
0.00610961
0.0756425
0.00430773
0.0759751
0.0027975
0.076194
0.00404598
0.0764044
0.00412586
0.0761816
0.00698126
0.00838964
0.0822167
-0.024907
0.0823887
-0.0164103
0.0817354
-0.00864838
0.0807385
-0.00295198
0.0797181
0.000640591
0.0789119
0.00235662
0.0783866
0.0033049
0.0780096
0.00419774
0.0775795
0.00586881
0.077029
0.00752982
0.0763098
0.00880075
0.0755905
0.00932717
0.0750655
0.00797998
0.0747878
0.00638728
0.0748892
0.00420632
0.0752121
0.00247458
0.0754511
0.00380699
0.0756978
0.00387913
0.0754728
0.00720631
0.00879862
0.0832053
-0.026007
0.0832226
-0.0164276
0.0822219
-0.00764767
0.080886
-0.00161607
0.0795537
0.00197282
0.0785127
0.00339766
0.0778284
0.00398916
0.0773437
0.0046825
0.0768385
0.006374
0.0762091
0.00815926
0.0753906
0.00961918
0.0745693
0.0101485
0.0739302
0.00861904
0.0735529
0.00676464
0.0735824
0.00417678
0.0738773
0.00217968
0.0741461
0.00353817
0.0744554
0.00356989
0.0742771
0.00738462
0.00918497
0.0842638
-0.026927
0.0838696
-0.0160333
0.0822655
-0.00604359
0.0804226
0.000226784
0.078651
0.00374441
0.077285
0.00476368
0.0763817
0.00489249
0.0757719
0.0052923
0.0752167
0.00692923
0.0745562
0.00881973
0.0736957
0.0104797
0.0728104
0.0110338
0.0720679
0.00936158
0.0715772
0.00725532
0.0715086
0.0042454
0.0717719
0.00191636
0.0720978
0.00321228
0.0725181
0.00314951
0.0724627
0.00744006
0.00949366
0.0850476
-0.0270656
0.0837134
-0.0146991
0.0811452
-0.00347547
0.0786175
0.00275456
0.0763133
0.00604855
0.0745776
0.00649939
0.0734488
0.00602127
0.0727653
0.00597585
0.0722597
0.00743483
0.0716916
0.00938788
0.0709113
0.0112599
0.0700451
0.0119
0.0692427
0.010164
0.0686475
0.00785052
0.0684801
0.00441273
0.0687378
0.00165868
0.0691718
0.00277828
0.0697755
0.00254581
0.0699392
0.00727638
0.00966054
0.0844225
-0.0250518
0.0813578
-0.0116344
0.0775443
0.000338047
0.0743442
0.00595466
0.0715844
0.00880836
0.0695978
0.00848599
0.0683823
0.00723674
0.0678084
0.00654979
0.067561
0.00768221
0.067298
0.0096509
0.0667857
0.0117722
0.0660664
0.0126193
0.065288
0.0109424
0.0646358
0.00850269
0.0644164
0.00463215
0.0647331
0.00134204
0.0653474
0.00216391
0.0662188
0.00167443
0.066697
0.0067982
0.00962547
0.0797951
-0.0188629
0.0744931
-0.00633249
0.0697104
0.00512079
0.0663475
0.00931754
0.0635853
0.0115706
0.0617544
0.0103169
0.0608096
0.00818154
0.0606809
0.00667846
0.0609904
0.00737268
0.0612958
0.00934552
0.0612635
0.0118045
0.0608414
0.0130414
0.0602085
0.0115753
0.0595979
0.0091133
0.0594311
0.00479902
0.0599024
0.000870671
0.0607729
0.00129341
0.0619815
0.000465869
0.0628371
0.00594259
0.00934769
0.0671976
-0.00764786
0.0606994
0.000165632
0.0565049
0.0093153
0.0541307
0.0116918
0.0522437
0.0134576
0.0512255
0.0113351
0.0510607
0.00834632
0.0517625
0.00597667
0.0529073
0.00622796
0.0539926
0.00826016
0.054601
0.0111961
0.0546129
0.0130295
0.0542707
0.0119175
0.0538496
0.00953444
0.0538828
0.00476579
0.0546057
0.000147789
0.0557801
0.000119029
0.0573437
-0.00109778
0.0585778
0.00470853
0.00881609
0.0442731
0.0035902
0.0405141
0.00392466
0.0393146
0.0105148
0.0391268
0.0118796
0.0389528
0.0136315
0.0393188
0.0109691
0.0403398
0.00732529
0.0421
0.00421644
0.0441828
0.00414519
0.0460989
0.00634403
0.0473954
0.00989962
0.0479349
0.0124901
0.0480303
0.011822
0.0479705
0.00959427
0.0483484
0.00438789
0.0493754
-0.000879248
0.0508429
-0.00134841
0.0526969
-0.00295179
0.0542373
0.00316816
0.00804886
0.0178571
0.00192569
0.0197951
0.00198664
0.0223387
0.0079712
0.0244202
0.00979809
0.0262001
0.0118516
0.0280953
0.00907395
0.0303718
0.00504875
0.0331163
0.00147193
0.0359941
0.0012674
0.0385979
0.00374024
0.0405118
0.00798573
0.0416099
0.0113919
0.0422598
0.0111721
0.0427047
0.00914943
0.0435087
0.00358389
0.0448202
-0.00219079
0.046487
-0.00301522
0.048483
-0.00494777
0.0502082
0.00144301
0.00709748
0.00284838
-0.000922696
0.00377218
0.00106283
0.00535468
0.0063887
0.00655167
0.00860111
0.00776028
0.010643
0.00884388
0.00799035
0.0100331
0.0038595
0.0113074
0.00019764
0.0125883
-1.34524e-05
0.0137426
0.00258591
0.0146455
0.00708281
0.0152232
0.0108142
0.0156513
0.010744
0.015988
0.00881269
0.0164146
0.00315729
0.017002
-0.00277815
0.0176745
-0.00368774
0.0184462
-0.00571947
0.0191741
0.000715099
0.00671289
0.00102428
-0.00194697
0.00186761
0.000219505
0.00364369
0.00461262
0.00502906
0.00721573
0.00646714
0.00920493
0.00772984
0.00672765
0.00905048
0.00253886
0.0103943
-0.00114617
0.0117164
-0.0013356
0.0129088
0.00139355
0.0138675
0.00612409
0.0145262
0.0101555
0.0150458
0.0102245
0.0154746
0.00838386
0.0159665
0.0026654
0.01657
-0.00338167
0.0172424
-0.00436016
0.017987
-0.00646404
0.0187059
-3.80405e-06
0.00631293
-0.000299811
-0.00164716
0.000430985
-0.00051129
0.00232091
0.00272269
0.00385726
0.00567938
0.00547983
0.00758236
0.00689574
0.00531174
0.00831547
0.00111913
0.00969698
-0.00252768
0.0110292
-0.0026678
0.0122332
0.000189488
0.0132288
0.00512851
0.0139608
0.0094235
0.0145673
0.00961802
0.0150852
0.00786595
0.0156382
0.0021124
0.016247
-0.00399052
0.0169087
-0.00502181
0.0176132
-0.00716858
0.018307
-0.000697596
0.00589906
-0.00118467
-0.000462495
-0.000505934
-0.00119002
0.00142574
0.000791015
0.00306468
0.00404044
0.00482966
0.00581738
0.00636327
0.00377813
0.00784756
-0.000365153
0.00923368
-0.0039138
0.0105451
-0.00397917
0.0117342
-0.000999683
0.0127478
0.00411494
0.0135423
0.00862901
0.014228
0.0089323
0.0148292
0.00726475
0.0154354
0.00150617
0.0160397
-0.00459479
0.0166795
-0.00566159
0.0173306
-0.00781973
0.0179878
-0.00135471
0.00547656
-0.00157745
0.00111495
-0.000947614
-0.00181986
0.000978772
-0.00113537
0.00267313
0.00234609
0.00453458
0.00395592
0.00614664
0.00216607
0.0076592
-0.00187772
0.00901718
-0.00527178
0.0102778
-0.00523982
0.0114262
-0.00214803
0.0124382
0.00310297
0.0132821
0.00778507
0.0140367
0.00817773
0.0147123
0.00658913
0.0153621
0.000856361
0.0159518
-0.00518448
0.0165591
-0.00626893
0.017145
-0.00840558
0.0177547
-0.00196444
0.00505091
-0.00149724
0.00261219
-0.00090053
-0.00241656
0.000988979
-0.00302488
0.00269306
0.000642005
0.00460174
0.00204725
0.00625039
0.000517421
0.00775458
-0.00338191
0.00905329
-0.00657049
0.0102355
-0.00642202
0.0113186
-0.00323117
0.0123092
0.00211236
0.0131877
0.00690662
0.0139981
0.00736729
0.0147366
0.00585064
0.0154189
0.000174085
0.0159844
-0.00574995
0.0165496
-0.00683416
0.0170602
-0.00891616
0.0176131
-0.00251733
0.00462775
-0.00093475
0.00354694
-0.000364593
-0.00298672
0.00145706
-0.00484654
0.00312361
-0.00102454
0.00502766
0.000143197
0.00666957
-0.00112449
0.0081295
-0.00484184
0.00934051
-0.0077815
0.0104197
-0.00750117
0.0114157
-0.0042272
0.0123656
0.00116241
0.0132622
0.00601007
0.0141134
0.00651607
0.0149009
0.00506318
0.0156035
-0.000528561
0.0161358
-0.00628223
0.0166505
-0.0073489
0.0170781
-0.0093437
0.0175662
-0.0030054
0.00421277
0.000143443
0.0034035
0.000680136
-0.00352341
0.00237514
-0.00654154
0.0039528
-0.0026022
0.00579858
-0.00170258
0.00739014
-0.00271605
0.00877152
-0.00622322
0.00986993
-0.00887992
0.0108254
-0.00845669
0.0117158
-0.00511754
0.0126071
0.000271123
0.0135045
0.00511268
0.0143798
0.00564077
0.0152004
0.00424251
0.0159108
-0.0012389
0.0164018
-0.00677329
0.0168592
-0.00780623
0.0171985
-0.00968303
0.0176155
-0.00342237
0.00381151
0.00166592
0.00173757
0.00221691
-0.0040744
0.00372321
-0.00804785
0.00515798
-0.00403697
0.00689131
-0.00343591
0.00838953
-0.00421427
0.00966051
-0.0074942
0.0106255
-0.00984489
0.0114414
-0.00927258
0.0122115
-0.0058877
0.0130282
-0.000545536
0.0139091
0.00423182
0.0147908
0.00475899
0.0156277
0.00340564
0.0163328
-0.00194402
0.0167756
-0.00721612
0.0171703
-0.0082009
0.0174189
-0.00993158
0.0177604
-0.00376391
0.00342919
0.0037478
-0.00201023
0.00422986
-0.00455645
0.00545987
-0.00927787
0.00671399
-0.00529109
0.00827169
-0.00499361
0.0096397
-0.00558228
0.0107683
-0.00862276
0.0115842
-0.0106608
0.01225
-0.00993842
0.01289
-0.00652771
0.01362
-0.00127555
0.014467
0.00338487
0.0153373
0.00388868
0.0161733
0.00256961
0.0168577
-0.00262842
0.0172487
-0.00760709
0.0175759
-0.00852811
0.0177345
-0.0100902
0.0179978
-0.0040272
0.00306747
0.0321853
0.00166979
-0.0358654
0.0320628
-0.00443395
0.033434
-0.010649
0.0361367
-0.00799375
0.0395505
-0.0084074
0.0429742
-0.00900599
0.0454648
-0.0111134
0.0470626
-0.0122586
0.0481834
-0.0110592
0.0493494
-0.00769378
0.0511284
-0.00305457
0.0535545
0.000958814
0.0562706
0.00117257
0.0589333
-9.30522e-05
0.0608944
-0.00458952
0.0619139
-0.00862667
0.0624102
-0.00902438
0.0623659
-0.0100459
0.0626843
-0.00434566
0.00201104
0.0805614
0.0166094
-0.095501
0.0718114
0.00431606
0.0660241
-0.00486171
0.0639769
-0.0059466
0.0634966
-0.00792713
0.063998
-0.00950738
0.064219
-0.0113345
0.0639362
-0.0119757
0.0633968
-0.0105198
0.0630851
-0.00738209
0.0635997
-0.0035691
0.0650187
-0.000460165
0.0669359
-0.000744696
0.0689025
-0.00205966
0.0701963
-0.00588332
0.0705908
-0.00902116
0.070355
-0.00878857
0.0695562
-0.00924701
0.0691422
-0.00393174
0.00142476
0.10467
0.0240112
-0.112072
0.0978813
0.0111052
0.0915183
0.00150125
0.0876926
-0.00212083
0.0850152
-0.00524977
0.0833028
-0.00779498
0.0817383
-0.00976993
0.0801047
-0.0103421
0.0785229
-0.008938
0.0773202
-0.00617946
0.0769258
-0.0031747
0.0773981
-0.000932466
0.0783871
-0.00173367
0.0794485
-0.0031211
0.0799506
-0.00638533
0.079752
-0.00882263
0.0790088
-0.00804535
0.0778139
-0.00805212
0.076962
-0.00307984
0.00124691
0.112228
0.0255765
-0.113793
0.108996
0.0143363
0.104807
0.0056908
0.101567
0.00111873
0.0987809
-0.00246332
0.0964298
-0.0054439
0.094191
-0.00753111
0.0920751
-0.00822618
0.0902181
-0.00708107
0.0888348
-0.00479611
0.0881493
-0.00248921
0.0881085
-0.000891649
0.0884088
-0.00203394
0.0887077
-0.00342
0.0885082
-0.00618583
0.0878478
-0.00816229
0.0868302
-0.0070277
0.0855639
-0.00678582
0.0846433
-0.00215932
0.001287
0.112785
0.0247487
-0.111957
0.111768
0.0153537
0.10954
0.00791857
0.107421
0.00323794
0.105331
-0.000373593
0.103273
-0.00338598
0.101176
-0.00543384
0.0992095
-0.00625997
0.0975709
-0.00544247
0.0964262
-0.00365143
0.0958716
-0.00193466
0.0957313
-0.00075128
0.0957072
-0.00200988
0.0955756
-0.00328839
0.0949481
-0.00555836
0.0940277
-0.00724183
0.0929419
-0.00594189
0.0917898
-0.00563376
0.0910651
-0.00143465
0.00133804
0.111569
0.0232459
-0.110066
0.11151
0.0154128
0.110407
0.0090215
0.109103
0.00454144
0.107657
0.00107231
0.106071
-0.00179969
0.104371
-0.00373431
0.102767
-0.0046554
0.101484
-0.00415932
0.10066
-0.0028279
0.100338
-0.00161287
0.100288
-0.000700895
0.100186
-0.00190805
0.0999127
-0.00301493
0.0991482
-0.00479393
0.0981672
-0.00626078
0.0971679
-0.00494262
0.0962003
-0.00466617
0.0957604
-0.000994721
0.00127697
0.110201
0.021668
-0.108623
0.110493
0.015121
0.109942
0.00957187
0.109094
0.00539002
0.108054
0.00211207
0.106847
-0.000592506
0.105519
-0.00240689
0.104256
-0.0033918
0.10328
-0.00318344
0.102702
-0.00225001
0.102546
-0.00145639
0.102595
-0.000750421
0.102509
-0.00182233
0.102244
-0.00274925
0.101531
-0.00408082
0.100623
-0.00535274
0.0997922
-0.00411227
0.0990158
-0.00388977
0.0988223
-0.000801208
0.00108173
0.109
0.0201749
-0.107507
0.109416
0.0147052
0.109137
0.0098508
0.108539
0.00598869
0.107741
0.00290943
0.106789
0.000359659
0.105739
-0.00135628
0.104733
-0.00238599
0.103974
-0.00242435
0.103546
-0.00182237
0.103461
-0.00137156
0.103555
-0.000844598
0.103494
-0.00176108
0.103277
-0.00253189
0.102689
-0.00349352
0.101912
-0.00457554
0.101266
-0.00346651
0.100661
-0.00328428
0.100628
-0.000768612
0.000792565
0.107966
0.0188115
-0.106603
0.108427
0.0142446
0.108298
0.00997946
0.107855
0.00643114
0.107216
0.00354855
0.106438
0.00113793
0.105586
-0.000503889
0.104766
-0.00156634
0.104152
-0.00181029
0.103809
-0.00147894
0.103734
-0.00129729
0.103823
-0.000933696
0.10377
-0.0017079
0.103593
-0.00235482
0.103136
-0.00303602
0.102496
-0.00393625
0.102011
-0.00298128
0.101548
-0.00282085
0.101597
-0.00081761