/*--------------------------------*- C++ -*----------------------------------*\
| =========                 |                                                 |
| \\      /  F ield         | OpenFOAM: The Open Source CFD Toolbox           |
|  \\    /   O peration     | Version:  v1806                                 |
|   \\  /    A nd           | Web:      www.OpenFOAM.com                      |
|    \\/     M anipulation  |                                                 |
\*---------------------------------------------------------------------------*/
FoamFile
{
    version     2.0;
    format      ascii;
    class       volScalarField;
    location    "10";
    object      p;
}
// * * * * * * * * * * * * * * * * * * * * * * * * * * * * * * * * * * * * * //

dimensions      [0 2 -2 0 0 0 0];


internalField   nonuniform List<scalar> 
4400
(
-1.59772
0.635703
0.598281
0.430049
0.297104
0.200924
0.157062
0.128203
0.105058
0.0862385
0.0707472
0.05791
0.0472299
0.038257
0.0305634
0.0238171
0.0177676
0.0122554
0.00712037
0.00228644
2.44915
0.90278
0.635336
0.515622
0.453571
0.398307
0.329797
0.268076
0.219083
0.180698
0.149569
0.123694
0.101872
0.0832022
0.0669409
0.0525027
0.0394443
0.0273993
0.0160801
0.00524895
1.83042
1.4031
1.21091
1.01471
0.818092
0.625043
0.483427
0.391975
0.322936
0.26795
0.223003
0.185368
0.153376
0.125763
0.101526
0.0798613
0.0601435
0.0418708
0.0246333
0.00808423
2.62961
1.59432
1.21995
0.982447
0.834498
0.712599
0.599718
0.497586
0.412752
0.344539
0.288526
0.241263
0.200642
0.165223
0.133847
0.105591
0.0797134
0.0556115
0.0327695
0.0107738
1.99708
1.65695
1.39381
1.21099
1.04851
0.872784
0.711277
0.584963
0.48943
0.411852
0.347084
0.291741
0.243711
0.201445
0.163707
0.12949
0.0979758
0.0684806
0.0404243
0.0133195
2.19586
1.68595
1.39369
1.16499
1.01139
0.882971
0.763643
0.652002
0.552377
0.46808
0.396932
0.335568
0.281724
0.233849
0.190718
0.151312
0.114779
0.0803953
0.0475524
0.0156989
1.79667
1.5872
1.39766
1.24525
1.11604
0.976915
0.833297
0.707174
0.602657
0.515027
0.439766
0.373845
0.31528
0.262672
0.214874
0.170903
0.129904
0.0911431
0.0539767
0.0178346
1.84052
1.57586
1.36738
1.1979
1.06772
0.9532
0.844333
0.739837
0.641208
0.55266
0.474724
0.405709
0.343781
0.287604
0.236099
0.188322
0.14347
0.10084
0.0597953
0.0197993
1.58695
1.45876
1.3308
1.21294
1.111
1.00151
0.883896
0.77071
0.67019
0.581964
0.503333
0.432547
0.368204
0.309209
0.254626
0.203625
0.155451
0.109435
0.0649756
0.0215117
1.58633
1.43716
1.29148
1.17015
1.06488
0.967549
0.873316
0.780589
0.690032
0.604444
0.525893
0.454155
0.388293
0.327344
0.270456
0.216863
0.165908
0.11699
0.0695524
0.0230484
1.41784
1.33491
1.24577
1.15712
1.07686
0.989525
0.893804
0.796293
0.704748
0.62066
0.543216
0.471582
0.404994
0.342692
0.283995
0.228288
0.175001
0.123597
0.0735621
0.0244075
1.40832
1.31402
1.21032
1.12055
1.03699
0.955876
0.875049
0.793626
0.71201
0.632128
0.556452
0.485309
0.418386
0.355159
0.295103
0.237728
0.182561
0.129125
0.0769438
0.0255469
1.2913
1.23335
1.16797
1.10012
1.03568
0.964418
0.884817
0.800592
0.717993
0.639857
0.566032
0.495943
0.429188
0.365446
0.304407
0.245717
0.188988
0.133818
0.0797956
0.0265007
1.28325
1.21735
1.14146
1.07139
1.00314
0.934561
0.864128
0.791705
0.718135
0.644958
0.573576
0.504518
0.437927
0.373786
0.311972
0.252246
0.194283
0.137719
0.0821843
0.0273179
1.20251
1.15904
1.10833
1.05271
0.9973
0.936153
0.867808
0.794464
0.720851
0.649196
0.579293
0.511028
0.444667
0.380338
0.318021
0.257539
0.198609
0.140926
0.084169
0.0279884
1.20168
1.1515
1.09076
1.03227
0.973581
0.913336
0.851197
0.786996
0.720732
0.652555
0.583742
0.515883
0.449699
0.385319
0.322703
0.261705
0.20207
0.143523
0.0857784
0.0285231
1.14285
1.10536
1.06373
1.01985
0.973553
0.920514
0.860301
0.794492
0.725625
0.655725
0.586421
0.51877
0.452886
0.388681
0.326013
0.264722
0.204614
0.145459
0.0870025
0.0289563
1.13265
1.09209
1.04977
1.00989
0.965024
0.913482
0.855671
0.79262
0.725369
0.656034
0.587304
0.520322
0.45502
0.391147
0.328515
0.267001
0.206485
0.14682
0.0878052
0.0292144
1.0889
1.06267
1.03774
1.00563
0.966342
0.917559
0.858937
0.792522
0.722767
0.653792
0.586774
0.521168
0.456597
0.392999
0.33036
0.268663
0.207876
0.147869
0.0884542
0.0294442
1.14571
1.11218
1.06176
1.00021
0.938613
0.879326
0.821492
0.76401
0.706114
0.646699
0.585014
0.521601
0.457671
0.39413
0.331388
0.269555
0.208615
0.148436
0.0888364
0.0295812
2.50552
3.34931
3.99459
4.48588
4.83969
5.09594
5.27115
5.38225
5.43865
5.44658
5.40985
5.32737
5.19436
5.00595
4.74669
4.4104
3.96349
3.39652
2.66422
1.7649
4.23617
4.43322
4.59346
4.71178
4.80678
4.87674
4.92653
4.95636
4.9667
4.95729
4.92806
4.87889
4.80993
4.72102
4.6117
4.48178
4.32628
4.1526
3.92846
3.71761
3.17381
3.35482
3.52078
3.66725
3.79009
3.8891
3.96361
4.01399
4.04041
4.04305
4.02189
3.97681
3.90744
3.8133
3.69378
3.54757
3.37556
3.17387
2.94941
2.69811
3.21627
3.29972
3.37223
3.43326
3.48337
3.52251
3.55112
3.56933
3.57739
3.57548
3.56377
3.54248
3.5118
3.47193
3.42301
3.36529
3.29832
3.22275
3.1376
3.04548
2.59704
2.66205
2.72239
2.77633
2.82251
2.86011
2.88841
2.907
2.91556
2.91386
2.90178
2.87924
2.8462
2.80273
2.74894
2.68498
2.61136
2.52828
2.43722
2.33715
2.50382
2.54031
2.57235
2.59969
2.62226
2.63999
2.65292
2.66107
2.6645
2.66326
2.65741
2.64699
2.63203
2.61253
2.58849
2.55985
2.52647
2.48832
2.44503
2.39611
2.11453
2.14126
2.16573
2.18733
2.20554
2.21998
2.23033
2.23634
2.23784
2.23467
2.22677
2.2141
2.19666
2.1745
2.14775
2.11656
2.0812
2.04196
1.99932
1.95338
2.03606
2.05345
2.06867
2.08159
2.09211
2.10022
2.10588
2.10911
2.10991
2.10827
2.1042
2.09769
2.08872
2.07724
2.06322
2.04658
2.02725
2.00517
1.98018
1.95174
1.77487
1.78691
1.79771
1.80701
1.81458
1.82024
1.82384
1.82525
1.82442
1.82123
1.81567
1.80774
1.79744
1.78483
1.76998
1.753
1.73406
1.71333
1.69108
1.66757
1.72302
1.7322
1.74016
1.74682
1.75213
1.75605
1.75857
1.75968
1.75936
1.7576
1.7544
1.74973
1.74358
1.73591
1.72669
1.7159
1.70349
1.68944
1.67372
1.65595
1.53922
1.54514
1.55032
1.55461
1.55792
1.56014
1.5612
1.56104
1.55962
1.55691
1.5529
1.54758
1.54098
1.53313
1.52409
1.51392
1.50272
1.4906
1.47771
1.46427
1.50892
1.51428
1.51887
1.52265
1.52556
1.52758
1.52871
1.52891
1.52819
1.52653
1.52391
1.52034
1.51578
1.51023
1.50368
1.4961
1.48747
1.4778
1.46719
1.45507
1.3758
1.37899
1.38168
1.3838
1.38529
1.38611
1.38621
1.38555
1.38413
1.38192
1.37892
1.37514
1.37059
1.36529
1.35929
1.35261
1.34533
1.33752
1.32929
1.32078
1.36141
1.36484
1.36774
1.37006
1.37178
1.37288
1.37334
1.37316
1.37231
1.3708
1.36861
1.36573
1.36216
1.35788
1.35289
1.34719
1.34078
1.33366
1.32586
1.31696
1.26418
1.26604
1.26755
1.26866
1.26935
1.26957
1.26931
1.26855
1.26729
1.2655
1.2632
1.26039
1.25708
1.25329
1.24905
1.24437
1.2393
1.23388
1.22819
1.22243
1.26399
1.26635
1.2683
1.26982
1.27088
1.27148
1.2716
1.27123
1.27036
1.26898
1.2671
1.26471
1.26181
1.25839
1.25446
1.25002
1.24507
1.23966
1.23379
1.22709
1.19448
1.19566
1.19655
1.19713
1.19738
1.19727
1.1968
1.19595
1.19471
1.1931
1.19109
1.18871
1.18596
1.18286
1.17942
1.17567
1.17164
1.16736
1.16289
1.15841
1.19663
1.19825
1.19953
1.20045
1.20099
1.20115
1.2009
1.20023
1.19913
1.19759
1.19562
1.19319
1.1903
1.18695
1.18313
1.17886
1.17413
1.16899
1.16339
1.15695
1.13955
1.14008
1.14041
1.14052
1.1404
1.14002
1.13937
1.13844
1.13723
1.13573
1.13393
1.13183
1.12942
1.12671
1.12369
1.12037
1.11672
1.1127
1.10831
1.10381
1.18682
1.18853
1.18997
1.19112
1.19193
1.19239
1.19247
1.19216
1.19145
1.19033
1.18881
1.18688
1.18457
1.18188
1.17884
1.17549
1.17186
1.16803
1.16412
1.16007
1.09403
1.14614
1.20078
1.26057
1.32708
1.40036
1.47816
1.55523
1.62209
1.66358
1.66179
1.60636
1.50149
1.37109
1.24728
1.14793
1.07405
1.03133
1.10846
1.56413
1.0843
1.10818
1.13846
1.17518
1.21754
1.26343
1.31008
1.35521
1.3988
1.44497
1.50439
1.59377
1.73127
1.93022
2.1937
2.51288
2.87328
3.25855
3.64055
3.97663
1.54598
1.59989
1.65548
1.71139
1.76548
1.81474
1.85611
1.88776
1.9105
1.92955
1.95529
1.99963
2.0685
2.16078
2.26773
2.3838
2.50986
2.65109
2.81101
2.98823
1.46598
1.50939
1.5551
1.60243
1.65101
1.70115
1.75432
1.81332
1.88195
1.96403
2.06148
2.17339
2.29667
2.42525
2.55401
2.67968
2.80026
2.91478
3.02275
3.12353
1.62282
1.66149
1.69913
1.73481
1.76809
1.79911
1.82907
1.86035
1.89587
1.93759
1.98557
2.03858
2.09471
2.15226
2.21051
2.26985
2.33118
2.3951
2.4615
2.52943
1.54092
1.57625
1.61257
1.65002
1.6892
1.73109
1.77678
1.82703
1.8818
1.94014
2.00012
2.05996
2.11824
2.17414
2.22744
2.2783
2.32719
2.37445
2.42005
2.46346
1.55381
1.5801
1.6055
1.62997
1.65388
1.67789
1.70272
1.72896
1.75702
1.78688
1.81799
1.84952
1.88071
1.91116
1.94084
1.96999
1.99896
2.02803
2.05723
2.08627
1.48196
1.50803
1.53495
1.56281
1.59196
1.62264
1.65484
1.6881
1.72183
1.75531
1.78788
1.81904
1.84847
1.87614
1.90221
1.927
1.95082
1.9738
1.99587
2.01675
1.44306
1.46111
1.47867
1.49588
1.51293
1.5301
1.54767
1.56576
1.5843
1.60308
1.62175
1.63996
1.65746
1.67413
1.68999
1.70518
1.71987
1.73422
1.74826
1.76189
1.38366
1.40302
1.42273
1.44284
1.46337
1.48425
1.5053
1.52626
1.54682
1.56669
1.58561
1.60341
1.62005
1.63558
1.65014
1.66391
1.67705
1.68961
1.70155
1.71275
1.33251
1.34518
1.35754
1.36968
1.38171
1.39375
1.40584
1.41797
1.43006
1.44196
1.45349
1.46452
1.47493
1.48468
1.49381
1.50238
1.5105
1.51825
1.52566
1.53268
1.28666
1.301
1.31541
1.32983
1.34425
1.35858
1.37272
1.38653
1.39985
1.41255
1.42452
1.43571
1.44612
1.4558
1.46484
1.47335
1.48141
1.48903
1.49621
1.50287
1.23823
1.24747
1.25649
1.26534
1.27408
1.28271
1.29125
1.29966
1.30788
1.31583
1.32342
1.33057
1.33724
1.34342
1.34912
1.3544
1.35932
1.36392
1.36821
1.37219
1.20472
1.21575
1.22664
1.23737
1.24794
1.25831
1.2684
1.27813
1.28743
1.29623
1.30448
1.31217
1.31931
1.32594
1.33211
1.33789
1.34331
1.3484
1.35314
1.3575
1.16585
1.173
1.17996
1.18675
1.19339
1.19989
1.20622
1.21238
1.21831
1.22397
1.22931
1.2343
1.23892
1.24316
1.24703
1.25058
1.25382
1.25681
1.25953
1.262
1.14509
1.15403
1.16272
1.17118
1.17942
1.18743
1.19515
1.20254
1.20955
1.21616
1.22233
1.22807
1.2334
1.23833
1.2429
1.24716
1.25112
1.2548
1.25819
1.26126
1.11775
1.12365
1.1294
1.13498
1.14039
1.14564
1.15071
1.15559
1.16024
1.16465
1.16878
1.17261
1.17613
1.17934
1.18226
1.1849
1.18728
1.18943
1.19135
1.19304
1.10564
1.11267
1.11947
1.12606
1.13245
1.13863
1.14457
1.15025
1.15562
1.16067
1.16539
1.16978
1.17384
1.17761
1.18109
1.18431
1.18728
1.19001
1.19249
1.19471
1.0881
1.09235
1.09652
1.10055
1.10443
1.10814
1.1117
1.11509
1.11828
1.12126
1.12402
1.12654
1.12882
1.13085
1.13266
1.13425
1.13565
1.13688
1.13794
1.13883
1.09472
1.10245
1.10979
1.11688
1.1237
1.13023
1.13644
1.14229
1.14776
1.15283
1.15748
1.16173
1.16558
1.16908
1.17227
1.17519
1.1779
1.18041
1.18273
1.18488
-0.285679
-0.229547
-0.207051
-0.249322
-0.305273
-0.362833
-0.412904
-0.450889
-0.475656
-0.488001
-0.48933
-0.481933
-0.468783
-0.452661
-0.435918
-0.420483
-0.407816
-0.398631
-0.392248
-0.38418
-0.555366
-0.572382
-0.601728
-0.638005
-0.673005
-0.699824
-0.71711
-0.724692
-0.723522
-0.714155
-0.699662
-0.681843
-0.662203
-0.642256
-0.623399
-0.606767
-0.593302
-0.583684
-0.578341
-0.577496
-0.654277
-0.642537
-0.638756
-0.637675
-0.637018
-0.635226
-0.63147
-0.625425
-0.617362
-0.608926
-0.600248
-0.591552
-0.583212
-0.57557
-0.568931
-0.56356
-0.559648
-0.557272
-0.556526
-0.557983
-0.580494
-0.580975
-0.581214
-0.5818
-0.582387
-0.582671
-0.582527
-0.582002
-0.581133
-0.57987
-0.578167
-0.576281
-0.574383
-0.572611
-0.571087
-0.569904
-0.569127
-0.568785
-0.56895
-0.570025
-0.582568
-0.578634
-0.573716
-0.568508
-0.563511
-0.559051
-0.555291
-0.552284
-0.550018
-0.54844
-0.547452
-0.546945
-0.546871
-0.547116
-0.547561
-0.548101
-0.548656
-0.549185
-0.549727
-0.550586
-0.505404
-0.507482
-0.508237
-0.508862
-0.509456
-0.51014
-0.511014
-0.512131
-0.513484
-0.515024
-0.516722
-0.518606
-0.520453
-0.522171
-0.523718
-0.525047
-0.526118
-0.526905
-0.527409
-0.527632
-0.523662
-0.52342
-0.522115
-0.520351
-0.518438
-0.516727
-0.515443
-0.514699
-0.514513
-0.514842
-0.515584
-0.516499
-0.517447
-0.51848
-0.519519
-0.52048
-0.521299
-0.521939
-0.522389
-0.522708
-0.467098
-0.473382
-0.477897
-0.481798
-0.484984
-0.487607
-0.489859
-0.491918
-0.493907
-0.495882
-0.497838
-0.499777
-0.501796
-0.503685
-0.50533
-0.506697
-0.507757
-0.508494
-0.508898
-0.508896
-0.486631
-0.492747
-0.497378
-0.50077
-0.503063
-0.504529
-0.505467
-0.506158
-0.506825
-0.507603
-0.508555
-0.509669
-0.510833
-0.511912
-0.512948
-0.513887
-0.514659
-0.515223
-0.515559
-0.51565
-0.445616
-0.457395
-0.467749
-0.477058
-0.484907
-0.491253
-0.496242
-0.500137
-0.503239
-0.505817
-0.508058
-0.51006
-0.511871
-0.513575
-0.515082
-0.516315
-0.51725
-0.517879
-0.518183
-0.518059
-0.459361
-0.472447
-0.484536
-0.495154
-0.504091
-0.511197
-0.516554
-0.520412
-0.523136
-0.525111
-0.526664
-0.528015
-0.52928
-0.53047
-0.531546
-0.532489
-0.533255
-0.533812
-0.534129
-0.534135
-0.424827
-0.44256
-0.460258
-0.477337
-0.492993
-0.506622
-0.517911
-0.526847
-0.533693
-0.538876
-0.54286
-0.546036
-0.548666
-0.550894
-0.552766
-0.554164
-0.555221
-0.555931
-0.55626
-0.556093
-0.426292
-0.446097
-0.466461
-0.486381
-0.505272
-0.522294
-0.536804
-0.548426
-0.557142
-0.563276
-0.567396
-0.570142
-0.572068
-0.573542
-0.574773
-0.576007
-0.577167
-0.578044
-0.578609
-0.578771
-0.384479
-0.408138
-0.433806
-0.46071
-0.487966
-0.51441
-0.538837
-0.560254
-0.57808
-0.592247
-0.603131
-0.611385
-0.617713
-0.622684
-0.626653
-0.629704
-0.63163
-0.63284
-0.633512
-0.633335
-0.359571
-0.386361
-0.415419
-0.446265
-0.478401
-0.51074
-0.541855
-0.570195
-0.594396
-0.61357
-0.627496
-0.636633
-0.642002
-0.644898
-0.646505
-0.647635
-0.648913
-0.650601
-0.651951
-0.652821
-0.288215
-0.319884
-0.354763
-0.393188
-0.435022
-0.479569
-0.525424
-0.570694
-0.613328
-0.651553
-0.684251
-0.711133
-0.732629
-0.749592
-0.76289
-0.77316
-0.780707
-0.785229
-0.787145
-0.787125
-0.19443
-0.227617
-0.264155
-0.304968
-0.350565
-0.401045
-0.455771
-0.513125
-0.570479
-0.624494
-0.67169
-0.709206
-0.735582
-0.751094
-0.757821
-0.759224
-0.759028
-0.759852
-0.762623
-0.767055
-0.0412887
-0.0725245
-0.107721
-0.148165
-0.195363
-0.251036
-0.316539
-0.392292
-0.477459
-0.569734
-0.665523
-0.76051
-0.850501
-0.932175
-1.00333
-1.06242
-1.10807
-1.13952
-1.15848
-1.16338
0.132209
0.100691
0.0670204
0.0302854
-0.0112566
-0.0598479
-0.11799
-0.187643
-0.269638
-0.363227
-0.465518
-0.570963
-0.671589
-0.758622
-0.82525
-0.868805
-0.890539
-0.894745
-0.889907
-0.908433
0.394889
0.346288
0.289769
0.225238
0.152416
0.0709795
-0.0203247
-0.124194
-0.245209
-0.389769
-0.564965
-0.77611
-1.02476
-1.30886
-1.62417
-1.96624
-2.32948
-2.70477
-3.09132
-3.61839
0.0151819
0.0458053
0.0768186
0.108362
0.140551
0.173531
0.207509
0.242584
0.278967
0.316922
0.356676
0.398571
0.443006
0.490437
0.541124
0.595225
0.653571
0.720661
0.801841
0.944199
0.0169028
0.050958
0.085458
0.120561
0.15648
0.193419
0.231564
0.271242
0.312714
0.356282
0.402404
0.451602
0.50459
0.562155
0.625515
0.69708
0.780675
0.877441
0.967221
1.03277
0.0185439
0.0558644
0.0936649
0.132144
0.171512
0.212029
0.25403
0.297795
0.343752
0.392395
0.444276
0.500182
0.561062
0.627986
0.702278
0.786414
0.885723
1.01168
1.17884
1.3872
0.0200308
0.0603539
0.101203
0.142807
0.185433
0.229346
0.274821
0.322289
0.372165
0.424999
0.48152
0.542538
0.609003
0.682134
0.763971
0.858015
0.967512
1.0886
1.21232
1.35008
0.0214024
0.0644754
0.108095
0.152516
0.197999
0.244857
0.293457
0.344143
0.397415
0.453853
0.514162
0.579281
0.650253
0.7283
0.815233
0.914231
1.03044
1.17076
1.33239
1.50544
0.0226712
0.0682486
0.114369
0.161296
0.209328
0.258765
0.309931
0.363274
0.419248
0.478421
0.5415
0.609221
0.682479
0.762558
0.851556
0.951786
1.06355
1.1801
1.30023
1.44065
0.0237855
0.0715832
0.119905
0.169026
0.219231
0.270858
0.324269
0.379806
0.437927
0.499162
0.564135
0.633635
0.70853
0.789891
0.879179
0.978279
1.08988
1.2149
1.34496
1.47363
0.0247792
0.0745462
0.124807
0.175817
0.227869
0.281266
0.336342
0.393525
0.453209
0.515841
0.581916
0.651931
0.726573
0.806884
0.894189
0.98908
1.08923
1.19018
1.29257
1.40684
0.025649
0.0771274
0.129072
0.181723
0.235338
0.290207
0.346647
0.404962
0.465571
0.528912
0.595454
0.66572
0.740202
0.819439
0.904012
0.99458
1.09183
1.19487
1.29445
1.38781
0.0263702
0.0792872
0.132633
0.186639
0.241548
0.297598
0.355049
0.41423
0.475426
0.538962
0.605184
0.67443
0.747139
0.823791
0.904657
0.989189
1.07433
1.15782
1.24057
1.32874
0.0269987
0.0811498
0.135677
0.190794
0.246707
0.303642
0.361823
0.421464
0.48286
0.546303
0.612094
0.680537
0.751808
0.825961
0.902936
0.982688
1.06511
1.1478
1.22418
1.29344
0.0275191
0.0826767
0.138166
0.194177
0.250912
0.308544
0.367251
0.427232
0.488622
0.551563
0.616224
0.682793
0.751502
0.822512
0.895655
0.969613
1.04162
1.11037
1.1768
1.24487
0.0279328
0.0839077
0.140174
0.19689
0.254214
0.312315
0.371351
0.431447
0.492756
0.555369
0.619327
0.684639
0.751254
0.819088
0.888053
0.958007
1.02818
1.09542
1.15578
1.20941
0.0282693
0.0849047
0.141788
0.199065
0.256869
0.31532
0.374526
0.434602
0.495594
0.557517
0.620348
0.684017
0.748434
0.813438
0.87865
0.943006
1.00468
1.06274
1.11777
1.17193
0.028538
0.0856869
0.143041
0.200718
0.258834
0.317505
0.376821
0.436841
0.497626
0.559167
0.621369
0.684038
0.746828
0.809324
0.871205
0.932394
0.992423
1.04892
1.09924
1.14338
0.0287468
0.0862977
0.144015
0.201998
0.260346
0.319128
0.378402
0.438211
0.498559
0.559432
0.620772
0.682435
0.744149
0.805386
0.865181
0.922156
0.975574
1.02554
1.07279
1.11811
0.0289084
0.0867741
0.144769
0.202979
0.26148
0.320341
0.37959
0.439231
0.499277
0.559675
0.620318
0.681062
0.741673
0.801832
0.860961
0.918024
0.971766
1.02047
1.06292
1.09935
0.0290248
0.0871098
0.145303
0.203675
0.262286
0.321164
0.380306
0.439707
0.499343
0.55914
0.618991
0.678783
0.738402
0.797672
0.856015
0.912025
0.963711
1.00967
1.04984
1.0845
0.0290996
0.0873293
0.145655
0.204133
0.262812
0.321717
0.380837
0.440114
0.499495
0.558857
0.618005
0.676738
0.734865
0.792317
0.849146
0.90511
0.958373
1.00551
1.04429
1.07484
0.0291253
0.0874131
0.145805
0.204353
0.263067
0.321914
0.380955
0.440185
0.499351
0.558404
0.617172
0.67529
0.732335
0.787496
0.839862
0.889025
0.93535
0.979982
1.02497
1.07017
-0.011276
-0.0349862
-0.0553044
-0.0824967
-0.0874725
-0.113491
-0.163075
-0.188381
-0.223888
-0.255804
-0.294847
-0.332275
-0.377868
-0.422105
-0.500457
-0.556042
-0.591439
-0.675738
-0.566139
-1.24146
-0.0202402
-0.0218499
-0.0662141
-0.0645631
-0.107388
-0.132399
-0.140963
-0.196696
-0.200888
-0.260748
-0.268483
-0.334777
-0.346525
-0.423867
-0.447288
-0.500235
-0.584442
-0.619934
-0.689154
-0.832544
-0.013876
-0.0260108
-0.0569601
-0.0683956
-0.102412
-0.126806
-0.141507
-0.180137
-0.197987
-0.240527
-0.262377
-0.310355
-0.336989
-0.392287
-0.422816
-0.469734
-0.531417
-0.560472
-0.593077
-0.677486
-0.00981669
-0.0279695
-0.0497315
-0.0689499
-0.0947677
-0.117537
-0.13769
-0.164919
-0.190383
-0.221451
-0.251281
-0.287055
-0.32179
-0.362457
-0.398271
-0.440541
-0.489233
-0.534269
-0.582566
-0.597979
-0.00875723
-0.0267794
-0.045312
-0.0654079
-0.086231
-0.107483
-0.129079
-0.151796
-0.177369
-0.204529
-0.234379
-0.266008
-0.300282
-0.335401
-0.372301
-0.410334
-0.446839
-0.481618
-0.515431
-0.577254
-0.00802902
-0.0243569
-0.0411543
-0.0591651
-0.0777033
-0.0969087
-0.117149
-0.13843
-0.161867
-0.187085
-0.214792
-0.244307
-0.276172
-0.309338
-0.344331
-0.380989
-0.419722
-0.458562
-0.49583
-0.519982
-0.00717985
-0.0215315
-0.0364811
-0.0521096
-0.0682766
-0.0855202
-0.103867
-0.123357
-0.144703
-0.167978
-0.193397
-0.220902
-0.250532
-0.282127
-0.31569
-0.349674
-0.383025
-0.418349
-0.460479
-0.518745
-0.00612167
-0.0183903
-0.0310947
-0.0443355
-0.0583471
-0.0731696
-0.0892564
-0.106803
-0.125932
-0.14707
-0.170321
-0.195798
-0.223553
-0.253582
-0.285793
-0.321079
-0.359613
-0.399195
-0.438254
-0.465765
-0.00496653
-0.014827
-0.0250919
-0.0358567
-0.0473015
-0.0598544
-0.0735616
-0.0886504
-0.105504
-0.124288
-0.145286
-0.168699
-0.194648
-0.223254
-0.254546
-0.28807
-0.323999
-0.364989
-0.412349
-0.468024
-0.00369038
-0.0110061
-0.0186253
-0.026745
-0.0356196
-0.0453438
-0.0563737
-0.0689287
-0.0831611
-0.0994651
-0.118071
-0.139267
-0.163351
-0.190609
-0.221517
-0.25755
-0.298537
-0.342015
-0.386463
-0.424249
-0.00232888
-0.00685178
-0.0116599
-0.0169223
-0.0228361
-0.0297899
-0.0378696
-0.0474119
-0.0588227
-0.0723269
-0.0883006
-0.107081
-0.129045
-0.15472
-0.184696
-0.219056
-0.258891
-0.305522
-0.358874
-0.422401
-0.000798125
-0.00230442
-0.00405627
-0.00626278
-0.00914637
-0.0128399
-0.0177897
-0.0242358
-0.0324299
-0.0428397
-0.0558272
-0.0718677
-0.0914909
-0.115381
-0.144777
-0.181292
-0.224478
-0.272621
-0.325534
-0.381134
0.000785987
0.00246315
0.00392097
0.00503203
0.005563
0.00519629
0.00379212
0.000953356
-0.00373728
-0.0105936
-0.0201565
-0.0329717
-0.0496759
-0.0710827
-0.0981601
-0.131777
-0.174232
-0.226953
-0.290058
-0.369144
0.00244512
0.00743416
0.0122949
0.0168369
0.020897
0.0243249
0.0266988
0.0277801
0.027226
0.0244605
0.0189467
0.00999661
-0.00316428
-0.0215964
-0.0469507
-0.0810332
-0.124044
-0.176256
-0.23997
-0.318853
0.0041837
0.0126998
0.0211423
0.0293813
0.0372488
0.0444781
0.0509636
0.0563334
0.0601927
0.0621277
0.0614454
0.0573724
0.0489169
0.0348963
0.0139727
-0.015525
-0.0565482
-0.111063
-0.182471
-0.280728
0.00600208
0.0181561
0.0303099
0.0423493
0.0541719
0.0656541
0.0764656
0.0864306
0.0952239
0.102319
0.1072
0.109051
0.10671
0.0984041
0.081772
0.0549175
0.0175085
-0.0318401
-0.0985038
-0.197648
0.00786828
0.0237595
0.0397023
0.0556634
0.0715386
0.0872137
0.102646
0.117555
0.131642
0.144584
0.155796
0.1646
0.169946
0.170202
0.163216
0.146139
0.115484
0.0683733
-0.00116641
-0.101592
0.00974525
0.0293995
0.0492026
0.0691313
0.0891805
0.109312
0.129356
0.149283
0.168935
0.188017
0.206209
0.222855
0.236961
0.247052
0.251061
0.246773
0.231609
0.198204
0.136914
0.0413646
0.0115782
0.0349398
0.0585569
0.0824606
0.106668
0.131184
0.156065
0.181194
0.206517
0.23198
0.257388
0.282506
0.306848
0.329653
0.349767
0.365023
0.371152
0.359006
0.314823
0.219178
0.0134018
0.0404321
0.0677893
0.0955444
0.123807
0.152662
0.182131
0.212362
0.243406
0.275272
0.307987
0.341473
0.375623
0.410267
0.445103
0.479986
0.514732
0.549031
0.57519
0.521579
-0.0131112
-0.0390309
-0.0667348
-0.0923717
-0.125156
-0.154174
-0.181987
-0.216249
-0.248364
-0.282425
-0.318203
-0.355389
-0.394258
-0.435175
-0.469754
-0.532675
-0.510081
-0.643193
-0.587246
-0.653098
-0.0130248
-0.0390118
-0.0665062
-0.0923133
-0.124957
-0.153903
-0.181559
-0.215559
-0.247867
-0.282003
-0.318057
-0.355628
-0.394926
-0.43607
-0.473587
-0.536318
-0.519074
-0.662258
-0.595115
-0.681022
-0.01298
-0.039009
-0.0663285
-0.0923327
-0.124898
-0.153812
-0.181287
-0.215016
-0.247479
-0.28164
-0.317873
-0.35575
-0.395398
-0.436949
-0.4772
-0.539235
-0.528274
-0.681196
-0.606112
-0.713054
-0.0129209
-0.0389335
-0.0661016
-0.0922264
-0.124802
-0.153646
-0.180818
-0.214311
-0.246907
-0.281147
-0.317588
-0.35578
-0.395744
-0.437929
-0.480531
-0.542027
-0.537895
-0.700036
-0.617865
-0.746183
-0.0128844
-0.0388486
-0.0659112
-0.0921157
-0.124844
-0.15362
-0.180384
-0.213682
-0.246359
-0.280656
-0.317239
-0.355695
-0.395961
-0.438954
-0.483446
-0.544549
-0.547521
-0.719492
-0.631946
-0.783165
-0.0128364
-0.0387119
-0.0656753
-0.0918936
-0.124854
-0.153536
-0.179793
-0.212934
-0.245682
-0.280075
-0.316809
-0.355532
-0.396117
-0.440029
-0.486051
-0.546938
-0.557147
-0.738984
-0.646415
-0.822831
-0.0128007
-0.0385752
-0.0654371
-0.0916387
-0.124839
-0.153438
-0.179193
-0.212187
-0.244989
-0.279444
-0.316288
-0.355227
-0.396172
-0.441077
-0.488429
-0.549131
-0.566468
-0.758591
-0.662054
-0.866933
-0.0127491
-0.0384325
-0.0651315
-0.0913025
-0.124586
-0.153107
-0.178502
-0.211316
-0.244223
-0.278697
-0.315703
-0.35479
-0.396181
-0.442077
-0.490777
-0.551246
-0.575228
-0.777372
-0.677119
-0.915296
-0.0126723
-0.0383366
-0.0647634
-0.090974
-0.124062
-0.152531
-0.177851
-0.21036
-0.243468
-0.277808
-0.31506
-0.354126
-0.396116
-0.442906
-0.493145
-0.553277
-0.583319
-0.795294
-0.691854
-0.968845
-0.0125262
-0.0382771
-0.0642874
-0.0906611
-0.123313
-0.151742
-0.177214
-0.20925
-0.242705
-0.276755
-0.314404
-0.35327
-0.396026
-0.443492
-0.495311
-0.555012
-0.590965
-0.812226
-0.705306
-1.02692
-0.0123276
-0.038188
-0.0637811
-0.0903596
-0.122841
-0.151213
-0.176563
-0.208101
-0.241886
-0.275643
-0.313637
-0.352315
-0.395804
-0.443828
-0.49649
-0.555765
-0.599138
-0.829638
-0.718648
-1.08897
-0.0122146
-0.0378019
-0.0634588
-0.0898042
-0.123518
-0.151757
-0.175544
-0.207166
-0.240716
-0.274824
-0.312497
-0.351691
-0.395203
-0.444244
-0.495329
-0.554292
-0.609272
-0.849412
-0.733016
-1.15413
-0.0125475
-0.0366804
-0.0637623
-0.0885169
-0.126393
-0.154381
-0.173599
-0.206959
-0.238692
-0.274878
-0.310433
-0.352019
-0.393682
-0.445381
-0.490377
-0.549252
-0.622826
-0.873823
-0.75083
-1.22404
-0.0137195
-0.0344784
-0.0649984
-0.0860839
-0.131698
-0.159336
-0.170287
-0.207789
-0.235414
-0.276216
-0.307065
-0.353754
-0.39092
-0.447702
-0.481357
-0.540294
-0.639575
-0.902485
-0.77242
-1.30471
-0.0154344
-0.0318467
-0.066455
-0.0831827
-0.137468
-0.164798
-0.166449
-0.208724
-0.231697
-0.277848
-0.303259
-0.355792
-0.387895
-0.450035
-0.470987
-0.529962
-0.65588
-0.930114
-0.794486
-1.40822
-0.0154326
-0.0316903
-0.0650557
-0.0828802
-0.138158
-0.16544
-0.165588
-0.206053
-0.231109
-0.275751
-0.302808
-0.353835
-0.388537
-0.447841
-0.466545
-0.525314
-0.662908
-0.943418
-0.806118
-1.54667
-0.00878438
-0.0396258
-0.0549617
-0.0910478
-0.125438
-0.153024
-0.174248
-0.192926
-0.240446
-0.262402
-0.312842
-0.339874
-0.400059
-0.432897
-0.478761
-0.537044
-0.648656
-0.924284
-0.790536
-1.71973
0.00972168
-0.060934
-0.0307628
-0.113101
-0.0937083
-0.121633
-0.198324
-0.163216
-0.265935
-0.23107
-0.339887
-0.306812
-0.428915
-0.398078
-0.514715
-0.572234
-0.606054
-0.861216
-0.734705
-1.8936
0.0364444
-0.0908511
0.00225611
-0.144243
-0.0504036
-0.078111
-0.232373
-0.12342
-0.301361
-0.188534
-0.377354
-0.261834
-0.467942
-0.350656
-0.565104
-0.621773
-0.546542
-0.766277
-0.646775
-1.97963
0.0430427
-0.0974244
0.00982481
-0.150547
-0.0355194
-0.0625519
-0.238925
-0.113969
-0.307213
-0.178015
-0.383426
-0.250656
-0.473396
-0.338504
-0.579395
-0.635643
-0.52571
-0.707483
-0.589375
-1.90519
0.0332541
0.059235
0.0795888
0.0905575
0.0933786
0.0949323
0.091959
0.0891866
0.0846786
0.0806242
0.0762606
0.0724223
0.0688984
0.0659557
0.0635538
0.0617424
0.0604966
0.0597892
0.0595761
0.0598083
0.0686337
0.143138
0.2006
0.229974
0.248231
0.254431
0.252792
0.247327
0.237889
0.227759
0.216721
0.206434
0.197031
0.189055
0.182674
0.177946
0.174883
0.173382
0.17334
0.174616
0.0812662
0.191393
0.28409
0.330698
0.369824
0.380212
0.386441
0.378252
0.367477
0.351128
0.334896
0.318298
0.304079
0.291863
0.282811
0.276476
0.273036
0.272119
0.273523
0.276928
0.0992985
0.244371
0.3614
0.422196
0.479948
0.486144
0.503183
0.482835
0.473175
0.445361
0.425247
0.400853
0.383356
0.367863
0.358213
0.352336
0.350796
0.352622
0.357489
0.364804
0.102127
0.259541
0.3821
0.456894
0.51801
0.526557
0.548521
0.513862
0.511051
0.463792
0.450291
0.414622
0.40394
0.388728
0.386903
0.387749
0.394695
0.404668
0.41756
0.432299
0.084724
0.219491
0.324639
0.400278
0.446014
0.466424
0.465881
0.439701
0.416655
0.370878
0.354089
0.323377
0.32633
0.329146
0.348806
0.369171
0.396444
0.423652
0.451325
0.478144
0.0510348
0.138387
0.208443
0.260667
0.288474
0.296634
0.27566
0.245755
0.198406
0.160962
0.134209
0.130095
0.150618
0.190546
0.243897
0.302583
0.360676
0.414088
0.461675
0.5031
0.0228839
0.0664807
0.101154
0.125367
0.133081
0.12018
0.0885265
0.0402911
-0.016706
-0.0582682
-0.0804277
-0.0647806
-0.0163681
0.0606476
0.152522
0.248413
0.336271
0.412419
0.474494
0.52375
0.0153529
0.0463523
0.0737024
0.0941578
0.104067
0.0999061
0.080882
0.0471102
0.0149021
-0.010081
-0.00725705
0.0266647
0.0936813
0.182043
0.279591
0.372503
0.45126
0.512464
0.555602
0.583535
0.0253602
0.0748257
0.123324
0.168034
0.20863
0.242134
0.267884
0.290805
0.313215
0.343304
0.390609
0.455685
0.534059
0.614821
0.690338
0.745001
0.779172
0.787777
0.775466
0.744571
0.0383037
0.112463
0.186494
0.26101
0.335615
0.41161
0.489314
0.569358
0.654077
0.748571
0.849376
0.956169
1.05739
1.1447
1.20749
1.23473
1.22913
1.1819
1.10301
0.996274
0.0419726
0.12384
0.20454
0.2862
0.369045
0.455385
0.545834
0.643374
0.750275
0.86352
0.98365
1.10535
1.22422
1.33185
1.42386
1.47549
1.49192
1.4515
1.36012
1.22008
0.0353501
0.105792
0.175257
0.24595
0.318755
0.393184
0.470215
0.551076
0.636423
0.727458
0.825482
0.924544
1.02554
1.11355
1.20409
1.26084
1.28643
1.27246
1.18872
1.04616
0.0237016
0.0709087
0.117933
0.165019
0.213062
0.261811
0.312584
0.364813
0.417559
0.469329
0.517179
0.555954
0.588676
0.60984
0.62125
0.612885
0.56471
0.482271
0.343803
0.159734
0.00965847
0.0283552
0.0469262
0.0640667
0.0794038
0.0932382
0.103927
0.110281
0.111065
0.102909
0.0826907
0.0454097
-0.0120724
-0.103154
-0.231279
-0.412044
-0.654481
-0.940447
-1.23071
-1.49736
-0.00219231
-0.00638728
-0.0118613
-0.01979
-0.0326666
-0.0515755
-0.0809071
-0.123159
-0.181259
-0.261088
-0.366065
-0.504659
-0.68318
-0.926007
-1.24341
-1.66831
-2.19224
-2.7674
-3.25539
-3.58312
-0.00695592
-0.0204088
-0.0362392
-0.0547296
-0.0785108
-0.10844
-0.147563
-0.198471
-0.265042
-0.353184
-0.469406
-0.623915
-0.827512
-1.09281
-1.44278
-1.89382
-2.43267
-2.97788
-3.39341
-3.67532
-0.00884167
-0.0268606
-0.045719
-0.0655185
-0.0871743
-0.110388
-0.136606
-0.167321
-0.202704
-0.245005
-0.294882
-0.354129
-0.425776
-0.518203
-0.643438
-0.799397
-0.950994
-1.05312
-1.09982
-1.26113
-0.0115801
-0.0353894
-0.0595913
-0.0843636
-0.110331
-0.136801
-0.163902
-0.190929
-0.21547
-0.235679
-0.248973
-0.252293
-0.242818
-0.215869
-0.157641
-0.0674886
0.0984265
0.303931
0.579579
0.675718
-0.0127287
-0.038326
-0.0649696
-0.0919427
-0.121361
-0.151029
-0.181745
-0.214676
-0.248179
-0.28287
-0.318258
-0.353676
-0.389141
-0.423736
-0.447455
-0.484929
-0.457347
-0.452977
-0.502937
-0.384866