x,y,z,U_0,U_1,U_2
0,0,0,0.3,-0.000596845,0
0,0.1,0,0.3,-0.000358107,0
0,0.2,0,0.3,-0.000119369,0
0,0.3,0,0.3,0,0
0,0.4,0,0.3,0,0
0,0.5,0,0.3,0,0
0,0.6,0,0.3,0,0
0,0.7,0,0.3,0,0
0,0.8,0,0.3,0,0
0,0.9,0,0.3,0,0
0,1,0,0.3,0,0
0,1.1,0,0.3,0,0
0,1.2,0,0.3,0,0
0,1.3,0,0.3,0,0
0,1.4,0,0.3,0,0
0,1.5,0,0.3,0,0
0,1.6,0,0.3,0,0
0,1.7,0,0.3,0,0
0,1.8,0,0.3,0,0
0,1.9,0,0.3,0,0
0,2,0,0.3,0,0
0,2.1,0,0.3,0,0
0,2.2,0,0.3,0,0
0,2.3,0,0.3,0,0
0,2.4,0,0.3,0,0
0,2.5,0,0.3,0,0
0,2.6,0,0.3,0,0
0,2.7,0,0.3,0,0
0,2.8,0,0.3,0,0
0,2.9,0,0.3,0,0
0,3,0,0.3,0,0
0,3.1,0,0.3,0,0
0,3.2,0,0.3,0,0
0,3.3,0,0.3,0,0
0,3.4,0,0.3,0,0
0,3.5,0,0.3,0,0
0,3.6,0,0.3,0,0
0,3.7,0,0.3,0,0
0,3.8,0,0.3,0,0
0,3.9,0,0.3,0,0
0,4,0,0.3,0,0
0,4.1,0,0.3,0,0
0,4.2,0,0.3,0,0
0,4.3,0,0.3,0,0
0,4.4,0,0.3,0,0
0,4.5,0,0.3,0,0
0,4.6,0,0.3,0,0
0,4.7,0,0.3,0,0
0,4.8,0,0.3,0,0
0,4.9,0,0.3,0,0
0,5,0,0.3,0,0
0,5.1,0,0.3,0,0
0,5.2,0,0.3,0,0
0,5.3,0,0.3,0,0
0,5.4,0,0.3,0,0
0,5.5,0,0.3,0,0
0,5.6,0,0.3,0,0
0,5.7,0,0.3,0,0
0,5.8,0,0.3,0,0
0,5.9,0,0.3,0,0
0,6,0,0.3,0,0
0,6.1,0,0.3,0,0
0,6.2,0,0.3,0,0
0,6.3,0,0.3,0,0
0,6.4,0,0.3,0,0
0,6.5,0,0.3,0,0
0,6.6,0,0.3,0,0
0,6.7,0,0.3,0,0
0,6.8,0,0.3,0,0
0,6.9,0,0.3,0,0
0,7,0,0.3,0,0
0,7.1,0,0.3,0,0
0,7.2,0,0.3,0,0
0,7.3,0,0.3,0,0
0,7.4,0,0.3,0,0
0,7.5,0,0.3,0,0
0,7.6,0,0.3,0,0
0,7.7,0,0.3,0,0
0,7.8,0,0.3,0,0
0,7.9,0,0.3,0,0
0,8,0,0.3,0,0
0,8.1,0,0.3,0,0
0,8.2,0,0.3,0,0
0,8.3,0,0.3,0,0
0,8.4,0,0.3,0,0
0,8.5,0,0.3,0,0
0,8.6,0,0.3,0,0
0,8.7,0,0.3,0,0
0,8.8,0,0.3,0,0
0,8.9,0,0.3,0,0
0,9,0,0.3,0,0
0,9.1,0,0.3,0,0
0,9.2,0,0.3,0,0
0,9.3,0,0.3,0,0
0,9.4,0,0.3,0,0
0,9.5,0,0.3,0,0
0,9.6,0,0.3,0,0
0,9.7,0,0.3,0,0
0,9.8,0,0.3,0,0
0,9.9,0,0.3,0,0
0,10,0,0.3,0,0
0,10.1,0,0.3,0,0
0,10.2,0,0.3,0,0
0,10.3,0,0.3,0,0
0,10.4,0,0.3,0,0
0,10.5,0,0.3,0,0
0,10.6,0,0.3,0,0
0,10.7,0,0.3,0,0
0,10.8,0,0.3,0,0
0,10.9,0,0.3,0,0
0,11,0,0.3,0,0
0,11.1,0,0.3,0,0
0,11.2,0,0.3,0,0
0,11.3,0,0.3,0,0
0,11.4,0,0.3,0,0
0,11.5,0,0.3,0,0
0,11.6,0,0.3,0,0
0,11.7,0,0.3,0,0
0,11.8,0,0.3,0,0
0,11.9,0,0.3,0,0
0,12,0,0.3,0,0
0,12.1,0,0.3,0,0
0,12.2,0,0.3,0,0
0,12.3,0,0.3,0,0
0,12.4,0,0.3,0,0
0,12.5,0,0.3,0.000161603,0
0,12.6,0,0.3,0.000351725,0
0,12.7,0,0.3,0.000541846,0
0.1,0,0,0.3,-0.00131292,0
0.1,0.1,0,0.3,-0.00107432,0
0.1,0.2,0,0.3,-0.000955076,0
0.1,0.3,0,0.3,-0.000955456,0
0.1,0.4,0,0.3,-0.000955712,0
0.1,0.5,0,0.300001,-0.000956322,0
0.1,0.6,0,0.3,-0.000957144,0
0.1,0.7,0,0.300001,-0.0009576,0
0.1,0.8,0,0.300001,-0.000958584,0
0.1,0.9,0,0.3,-0.000959112,0
0.1,1,0,0.300001,-0.000960217,0
0.1,1.1,0,0.3,-0.000961376,0
0.1,1.2,0,0.300001,-0.000961964,0
0.1,1.3,0,0.300001,-0.000963108,0
0.1,1.4,0,0.3,-0.000963664,0
0.1,1.5,0,0.300001,-0.000964738,0
0.1,1.6,0,0.3,-0.0009656,0
0.1,1.7,0,0.3,-0.000965982,0
0.1,1.8,0,0.3,-0.000966551,0
0.1,1.9,0,0.3,-0.000966736,0
0.1,2,0,0.3,-0.000966929,0
0.1,2.1,0,0.3,-0.000966512,0
0.1,2.2,0,0.299999,-0.000966169,0
0.1,2.3,0,0.299999,-0.000965054,0
0.1,2.4,0,0.3,-0.00096428,0
0.1,2.5,0,0.299997,-0.000962342,0
0.1,2.6,0,0.299999,-0.000959248,0
0.1,2.7,0,0.299997,-0.000957445,0
0.1,2.8,0,0.299997,-0.000953089,0
0.1,2.9,0,0.299999,-0.000950536,0
0.1,3,0,0.299993,-0.00094478,0
0.1,3.1,0,0.299998,-0.000937144,0
0.1,3.2,0,0.299994,-0.000932924,0
0.1,3.3,0,0.299994,-0.000923336,0
0.1,3.4,0,0.299998,-0.000917968,0
0.1,3.5,0,0.299986,-0.000906269,0
0.1,3.6,0,0.299997,-0.00089184,0
0.1,3.7,0,0.299989,-0.000884059,0
0.1,3.8,0,0.299989,-0.000866928,0
0.1,3.9,0,0.299996,-0.000857576,0
0.1,4,0,0.299977,-0.00083753,0
0.1,4.1,0,0.299995,-0.000814024,0
0.1,4.2,0,0.299983,-0.000801444,0
0.1,4.3,0,0.299982,-0.000774518,0
0.1,4.4,0,0.299994,-0.000760171,0
0.1,4.5,0,0.299965,-0.000729344,0
0.1,4.6,0,0.299993,-0.000695635,0
0.1,4.7,0,0.299976,-0.000677328,0
0.1,4.8,0,0.299975,-0.000640896,0
0.1,4.9,0,0.299992,-0.00062277,0
0.1,5,0,0.299954,-0.000595067,0
0.1,5.1,0,0.299951,-0.000542002,0
0.1,5.2,0,0.299949,-0.000503778,0
0.1,5.3,0,0.299948,-0.000463887,0
0.1,5.4,0,0.299945,-0.000422342,0
0.1,5.5,0,0.299944,-0.000379221,0
0.1,5.6,0,0.299942,-0.000334625,0
0.1,5.7,0,0.29994,-0.00028867,0
0.1,5.8,0,0.299939,-0.000241491,0
0.1,5.9,0,0.299937,-0.000193238,0
0.1,6,0,0.299936,-0.000144077,0
0.1,6.1,0,0.299936,-9.41862e-05,0
0.1,6.2,0,0.299935,-4.37537e-05,0
0.1,6.3,0,0.299935,7.02401e-06,0
0.1,6.4,0,0.299935,5.79448e-05,0
0.1,6.5,0,0.299935,0.000108805,0
0.1,6.6,0,0.299935,0.0001594,0
0.1,6.7,0,0.299936,0.000209534,0
0.1,6.8,0,0.299936,0.000259014,0
0.1,6.9,0,0.299937,0.000307724,0
0.1,7,0,0.299939,0.000381636,0
0.1,7.1,0,0.299983,0.000418522,0
0.1,7.2,0,0.299978,0.000438253,0
0.1,7.3,0,0.299949,0.00048869,0
0.1,7.4,0,0.29999,0.000539796,0
0.1,7.5,0,0.299974,0.000560769,0
0.1,7.6,0,0.29996,0.000607578,0
0.1,7.7,0,0.299991,0.000645218,0
0.1,7.8,0,0.299974,0.000669496,0
0.1,7.9,0,0.299971,0.000708846,0
0.1,8,0,0.299993,0.000734481,0
0.1,8.1,0,0.299975,0.00075947,0
0.1,8.2,0,0.299981,0.000790657,0
0.1,8.3,0,0.299994,0.000806568,0
0.1,8.4,0,0.299978,0.000830036,0
0.1,8.5,0,0.299988,0.000853241,0
0.1,8.6,0,0.299995,0.000862655,0
0.1,8.7,0,0.299983,0.000882042,0
0.1,8.8,0,0.299994,0.000897935,0
0.1,8.9,0,0.299995,0.000904151,0
0.1,9,0,0.299988,0.000917111,0
0.1,9.1,0,0.299998,0.000926851,0
0.1,9.2,0,0.299997,0.000930369,0
0.1,9.3,0,0.299994,0.000937574,0
0.1,9.4,0,0.299999,0.000942232,0
0.1,9.5,0,0.299999,0.000943889,0
0.1,9.6,0,0.299999,0.000946496,0
0.1,9.7,0,0.3,0.000947416,0
0.1,9.8,0,0.300001,0.000947399,0
0.1,9.9,0,0.300001,0.000946547,0
0.1,10,0,0.300001,0.000945472,0
0.1,10.1,0,0.300003,0.000943485,0
0.1,10.2,0,0.300002,0.000940225,0
0.1,10.3,0,0.300001,0.000938432,0
0.1,10.4,0,0.300004,0.000934499,0
0.1,10.5,0,0.300002,0.00092975,0
0.1,10.6,0,0.300001,0.000927626,0
0.1,10.7,0,0.300006,0.000922491,0
0.1,10.8,0,0.300002,0.000917039,0
0.1,10.9,0,0.300003,0.00091468,0
0.1,11,0,0.300006,0.000909179,0
0.1,11.1,0,0.300002,0.000903653,0
0.1,11.2,0,0.300003,0.000901339,0
0.1,11.3,0,0.300005,0.000896026,0
0.1,11.4,0,0.300001,0.00089144,0
0.1,11.5,0,0.300003,0.000888822,0
0.1,11.6,0,0.300004,0.000884136,0
0.1,11.7,0,0.300001,0.000880848,0
0.1,11.8,0,0.300003,0.000878073,0
0.1,11.9,0,0.300003,0.000874353,0
0.1,12,0,0.300001,0.000872304,0
0.1,12.1,0,0.300002,0.000869816,0
0.1,12.2,0,0.300002,0.000867311,0
0.1,12.3,0,0.300001,0.000866296,0
0.1,12.4,0,0.300001,0.000864576,0
0.1,12.5,0,0.3,0.000863472,0
0.1,12.6,0,0.3,0.000998115,0
0.1,12.7,0,0.300001,0.00118784,0
0.2,0,0,0.3,-0.00202899,0
0.2,0.1,0,0.3,-0.00190989,0
0.2,0.2,0,0.300001,-0.00191028,0
0.2,0.3,0,0.300001,-0.00191066,0
0.2,0.4,0,0.300001,-0.00191178,0
0.2,0.5,0,0.300002,-0.00191264,0
0.2,0.6,0,0.300001,-0.00191392,0
0.2,0.7,0,0.300002,-0.00191566,0
0.2,0.8,0,0.300002,-0.00191664,0
0.2,0.9,0,0.300002,-0.0019188,0
0.2,1,0,0.300002,-0.00192043,0
0.2,1.1,0,0.300002,-0.00192218,0
0.2,1.2,0,0.300002,-0.00192452,0
0.2,1.3,0,0.300002,-0.00192566,0
0.2,1.4,0,0.300002,-0.00192785,0
0.2,1.5,0,0.300002,-0.00192948,0
0.2,1.6,0,0.300001,-0.00193072,0
0.2,1.7,0,0.300001,-0.00193235,0
0.2,1.8,0,0.300001,-0.00193292,0
0.2,1.9,0,0.3,-0.00193348,0
0.2,2,0,0.3,-0.00193386,0
0.2,2.1,0,0.299999,-0.0019331,0
0.2,2.2,0,0.299999,-0.001932,0
0.2,2.3,0,0.299999,-0.00193088,0
0.2,2.4,0,0.299997,-0.0019274,0
0.2,2.5,0,0.299995,-0.00192468,0
0.2,2.6,0,0.299995,-0.00191979,0
0.2,2.7,0,0.299993,-0.00191309,0
0.2,2.8,0,0.299993,-0.00190873,0
0.2,2.9,0,0.29999,-0.00189787,0
0.2,3,0,0.299986,-0.00188956,0
0.2,3.1,0,0.299987,-0.0018777,0
0.2,3.2,0,0.299984,-0.00186163,0
0.2,3.3,0,0.299984,-0.00185204,0
0.2,3.4,0,0.29998,-0.00182961,0
0.2,3.5,0,0.299972,-0.00181254,0
0.2,3.6,0,0.299975,-0.00179033,0
0.2,3.7,0,0.299971,-0.00176034,0
0.2,3.8,0,0.299971,-0.00174321,0
0.2,3.9,0,0.299966,-0.00170446,0
0.2,4,0,0.299953,-0.00167506,0
0.2,4.1,0,0.29996,-0.00163897,0
0.2,4.2,0,0.299954,-0.00159031,0
0.2,4.3,0,0.299953,-0.00156338,0
0.2,4.4,0,0.299947,-0.00150386,0
0.2,4.5,0,0.29993,-0.00145869,0
0.2,4.6,0,0.299941,-0.00140667,0
0.2,4.7,0,0.299935,-0.00133635,0
0.2,4.8,0,0.299934,-0.00129992,0
0.2,4.9,0,0.29993,-0.00123596,0
0.2,5,0,0.299909,-0.00119013,0
0.2,5.1,0,0.299903,-0.001084,0
0.2,5.2,0,0.299899,-0.00100756,0
0.2,5.3,0,0.299895,-0.000927775,0
0.2,5.4,0,0.299891,-0.000844684,0
0.2,5.5,0,0.299887,-0.000758443,0
0.2,5.6,0,0.299884,-0.00066925,0
0.2,5.7,0,0.29988,-0.00057734,0
0.2,5.8,0,0.299878,-0.000482981,0
0.2,5.9,0,0.299875,-0.000386476,0
0.2,6,0,0.299873,-0.000288154,0
0.2,6.1,0,0.299871,-0.000188372,0
0.2,6.2,0,0.29987,-8.75073e-05,0
0.2,6.3,0,0.299869,1.4048e-05,0
0.2,6.4,0,0.299869,0.00011589,0
0.2,6.5,0,0.29987,0.000217609,0
0.2,6.6,0,0.29987,0.0003188,0
0.2,6.7,0,0.299871,0.000419069,0
0.2,6.8,0,0.299873,0.000518028,0
0.2,6.9,0,0.299874,0.000615447,0
0.2,7,0,0.299877,0.000763272,0
0.2,7.1,0,0.299904,0.000821756,0
0.2,7.2,0,0.299907,0.000908871,0
0.2,7.3,0,0.299891,0.000969636,0
0.2,7.4,0,0.299912,0.00104891,0
0.2,7.5,0,0.299918,0.00114819,0
0.2,7.6,0,0.299909,0.00120171,0
0.2,7.7,0,0.299924,0.00127656,0
0.2,7.8,0,0.299931,0.00136162,0
0.2,7.9,0,0.299928,0.00140097,0
0.2,8,0,0.299939,0.00146784,0
0.2,8.1,0,0.299941,0.00153245,0
0.2,8.2,0,0.299946,0.00156443,0
0.2,8.3,0,0.299953,0.00162026,0
0.2,8.4,0,0.299952,0.00166666,0
0.2,8.5,0,0.29996,0.00169336,0
0.2,8.6,0,0.299966,0.0017349,0
0.2,8.7,0,0.299964,0.00176602,0
0.2,8.8,0,0.299972,0.00178625,0
0.2,8.9,0,0.299978,0.00181488,0
0.2,9,0,0.299976,0.00183374,0
0.2,9.1,0,0.299983,0.0018472,0
0.2,9.2,0,0.299988,0.00186471,0
0.2,9.3,0,0.299988,0.00187416,0
0.2,9.4,0,0.299992,0.00188124,0
0.2,9.5,0,0.299996,0.00188958,0
0.2,9.6,0,0.299997,0.00189258,0
0.2,9.7,0,0.299999,0.00189373,0
0.2,9.8,0,0.300002,0.00189479,0
0.2,9.9,0,0.300003,0.00189393,0
0.2,10,0,0.300004,0.00188991,0
0.2,10.1,0,0.300007,0.00188609,0
0.2,10.2,0,0.300006,0.00188249,0
0.2,10.3,0,0.300007,0.00187465,0
0.2,10.4,0,0.30001,0.00186816,0
0.2,10.5,0,0.300008,0.00186223,0
0.2,10.6,0,0.300009,0.00185221,0
0.2,10.7,0,0.300012,0.00184472,0
0.2,10.8,0,0.30001,0.00183718,0
0.2,10.9,0,0.30001,0.00182622,0
0.2,11,0,0.300012,0.00181891,0
0.2,11.1,0,0.30001,0.00181054,0
0.2,11.2,0,0.30001,0.00179965,0
0.2,11.3,0,0.300011,0.00179334,0
0.2,11.4,0,0.300009,0.00178489,0
0.2,11.5,0,0.300008,0.00177489,0
0.2,11.6,0,0.300009,0.00177005,0
0.2,11.7,0,0.300007,0.00176227,0
0.2,11.8,0,0.300007,0.00175434,0
0.2,11.9,0,0.300007,0.00175062,0
0.2,12,0,0.300006,0.00174424,0
0.2,12.1,0,0.300005,0.00173874,0
0.2,12.2,0,0.300005,0.00173601,0
0.2,12.3,0,0.300004,0.00173197,0
0.2,12.4,0,0.300003,0.00172889,0
0.2,12.5,0,0.300002,0.00172768,0
0.2,12.6,0,0.300002,0.00172629,0
0.2,12.7,0,0.300002,0.00183383,0
0.3,0,0,0.300001,-0.00286409,0
0.3,0.1,0,0.300001,-0.00286455,0
0.3,0.2,0,0.300001,-0.00286494,0
0.3,0.3,0,0.300002,-0.00286612,0
0.3,0.4,0,0.300002,-0.00286725,0
0.3,0.5,0,0.300003,-0.00286871,0
0.3,0.6,0,0.300003,-0.00287089,0
0.3,0.7,0,0.300004,-0.00287262,0
0.3,0.8,0,0.300004,-0.00287564,0
0.3,0.9,0,0.300004,-0.00287781,0
0.3,1,0,0.300005,-0.00288058,0
0.3,1.1,0,0.300004,-0.00288356,0
0.3,1.2,0,0.300004,-0.00288589,0
0.3,1.3,0,0.300004,-0.00288945,0
0.3,1.4,0,0.300004,-0.00289164,0
0.3,1.5,0,0.300004,-0.00289445,0
0.3,1.6,0,0.300003,-0.00289662,0
0.3,1.7,0,0.300003,-0.00289824,0
0.3,1.8,0,0.300002,-0.00290014,0
0.3,1.9,0,0.300001,-0.00290071,0
0.3,2,0,0.3,-0.00290148,0
0.3,2.1,0,0.299999,-0.00290034,0
0.3,2.2,0,0.299998,-0.00289924,0
0.3,2.3,0,0.299995,-0.00289616,0
0.3,2.4,0,0.299994,-0.00289267,0
0.3,2.5,0,0.29999,-0.00288835,0
0.3,2.6,0,0.299989,-0.00288035,0
0.3,2.7,0,0.299987,-0.00287365,0
0.3,2.8,0,0.299982,-0.00286095,0
0.3,2.9,0,0.29998,-0.00285008,0
0.3,3,0,0.299973,-0.00283647,0
0.3,3.1,0,0.299972,-0.00281693,0
0.3,3.2,0,0.299969,-0.00280085,0
0.3,3.3,0,0.299962,-0.00277252,0
0.3,3.4,0,0.299959,-0.00275008,0
0.3,3.5,0,0.299947,-0.00272187,0
0.3,3.6,0,0.299947,-0.00268512,0
0.3,3.7,0,0.299942,-0.00265513,0
0.3,3.8,0,0.299933,-0.00260412,0
0.3,3.9,0,0.299928,-0.00256537,0
0.3,4,0,0.29991,-0.00251658,0
0.3,4.1,0,0.299913,-0.00245658,0
0.3,4.2,0,0.299907,-0.00240792,0
0.3,4.3,0,0.299896,-0.00232704,0
0.3,4.4,0,0.29989,-0.00226752,0
0.3,4.5,0,0.299864,-0.00219268,0
0.3,4.6,0,0.299872,-0.00210459,0
0.3,4.7,0,0.299865,-0.00203426,0
0.3,4.8,0,0.299854,-0.00191968,0
0.3,4.9,0,0.299849,-0.00185573,0
0.3,5,0,0.299822,-0.00178943,0
0.3,5.1,0,0.29981,-0.00163014,0
0.3,5.2,0,0.299802,-0.0015155,0
0.3,5.3,0,0.299793,-0.00139575,0
0.3,5.4,0,0.299785,-0.00127095,0
0.3,5.5,0,0.299778,-0.00114135,0
0.3,5.6,0,0.299771,-0.00100727,0
0.3,5.7,0,0.299764,-0.000869063,0
0.3,5.8,0,0.299759,-0.000727138,0
0.3,5.9,0,0.299753,-0.000581957,0
0.3,6,0,0.299749,-0.000434019,0
0.3,6.1,0,0.299746,-0.000283868,0
0.3,6.2,0,0.299744,-0.000132075,0
0.3,6.3,0,0.299742,2.07613e-05,0
0.3,6.4,0,0.299742,0.000174027,0
0.3,6.5,0,0.299743,0.000327097,0
0.3,6.6,0,0.299745,0.000479351,0
0.3,6.7,0,0.299747,0.000630179,0
0.3,6.8,0,0.29975,0.000778978,0
0.3,6.9,0,0.299754,0.000925335,0
0.3,7,0,0.299761,0.0011476,0
0.3,7.1,0,0.299793,0.00123999,0
0.3,7.2,0,0.299797,0.00132711,0
0.3,7.3,0,0.299785,0.00146955,0
0.3,7.4,0,0.299813,0.00159097,0
0.3,7.5,0,0.299818,0.00169026,0
0.3,7.6,0,0.29982,0.00182731,0
0.3,7.7,0,0.299839,0.00192603,0
0.3,7.8,0,0.299846,0.00201277,0
0.3,7.9,0,0.299857,0.00213151,0
0.3,8,0,0.299869,0.00220719,0
0.3,8.1,0,0.299873,0.00228343,0
0.3,8.2,0,0.299891,0.00237594,0
0.3,8.3,0,0.299898,0.00243177,0
0.3,8.4,0,0.299901,0.00249514,0
0.3,8.5,0,0.299919,0.00255991,0
0.3,8.6,0,0.299926,0.00260145,0
0.3,8.7,0,0.299928,0.00265075,0
0.3,8.8,0,0.299945,0.00269208,0
0.3,8.9,0,0.299951,0.00272072,0
0.3,9,0,0.299955,0.00275529,0
0.3,9.1,0,0.299967,0.00277848,0
0.3,9.2,0,0.299972,0.00279599,0
0.3,9.3,0,0.299978,0.00281587,0
0.3,9.4,0,0.299985,0.00282634,0
0.3,9.5,0,0.299989,0.00283468,0
0.3,9.6,0,0.299995,0.00284184,0
0.3,9.7,0,0.299999,0.00284334,0
0.3,9.8,0,0.300003,0.00284436,0
0.3,9.9,0,0.300007,0.00284126,0
0.3,10,0,0.300009,0.00283696,0
0.3,10.1,0,0.300012,0.00283194,0
0.3,10.2,0,0.300014,0.00282196,0
0.3,10.3,0,0.300016,0.00281411,0
0.3,10.4,0,0.300019,0.00280439,0
0.3,10.5,0,0.300019,0.0027909,0
0.3,10.6,0,0.30002,0.00278087,0
0.3,10.7,0,0.300023,0.00276786,0
0.3,10.8,0,0.300021,0.00275337,0
0.3,10.9,0,0.300021,0.0027424,0
0.3,11,0,0.300024,0.00272751,0
0.3,11.1,0,0.300021,0.00271385,0
0.3,11.2,0,0.300021,0.00270296,0
0.3,11.3,0,0.300021,0.00268774,0
0.3,11.4,0,0.300019,0.00267596,0
0.3,11.5,0,0.300018,0.00266596,0
0.3,11.6,0,0.300017,0.00265186,0
0.3,11.7,0,0.300016,0.00264257,0
0.3,11.8,0,0.300015,0.00263363,0
0.3,11.9,0,0.300013,0.00262236,0
0.3,12,0,0.300012,0.00261585,0
0.3,12.1,0,0.300011,0.00260867,0
0.3,12.2,0,0.300009,0.00260151,0
0.3,12.3,0,0.300008,0.00259747,0
0.3,12.4,0,0.300006,0.00259279,0
0.3,12.5,0,0.300004,0.00258996,0
0.3,12.6,0,0.300003,0.00258857,0
0.3,12.7,0,0.300003,0.00258715,0
0.4,0,0,0.300002,-0.00381823,0
0.4,0.1,0,0.300001,-0.00381876,0
0.4,0.2,0,0.300002,-0.00381952,0
0.4,0.3,0,0.300003,-0.0038207,0
0.4,0.4,0,0.300004,-0.00382271,0
0.4,0.5,0,0.300005,-0.00382452,0
0.4,0.6,0,0.300006,-0.00382714,0
0.4,0.7,0,0.300007,-0.00383032,0
0.4,0.8,0,0.300007,-0.00383335,0
0.4,0.9,0,0.300007,-0.00383727,0
0.4,1,0,0.300008,-0.00384065,0
0.4,1.1,0,0.300007,-0.00384427,0
0.4,1.2,0,0.300008,-0.00384857,0
0.4,1.3,0,0.300008,-0.00385213,0
0.4,1.4,0,0.300007,-0.00385622,0
0.4,1.5,0,0.300008,-0.00385965,0
0.4,1.6,0,0.300006,-0.00386236,0
0.4,1.7,0,0.300005,-0.00386549,0
0.4,1.8,0,0.300004,-0.00386739,0
0.4,1.9,0,0.300002,-0.00386881,0
0.4,2,0,0.3,-0.00386979,0
0.4,2.1,0,0.299999,-0.00386861,0
0.4,2.2,0,0.299995,-0.00386703,0
0.4,2.3,0,0.299993,-0.00386395,0
0.4,2.4,0,0.299989,-0.0038585,0
0.4,2.5,0,0.299984,-0.00385333,0
0.4,2.6,0,0.299983,-0.00384404,0
0.4,2.7,0,0.299975,-0.0038327,0
0.4,2.8,0,0.299971,-0.00382,0
0.4,2.9,0,0.299965,-0.00380188,0
0.4,3,0,0.299954,-0.00378552,0
0.4,3.1,0,0.299955,-0.0037625,0
0.4,3.2,0,0.299942,-0.00373474,0
0.4,3.3,0,0.299935,-0.0037064,0
0.4,3.4,0,0.29993,-0.00366827,0
0.4,3.5,0,0.299909,-0.00363428,0
0.4,3.6,0,0.299914,-0.00359075,0
0.4,3.7,0,0.299893,-0.00353849,0
0.4,3.8,0,0.299884,-0.00348749,0
0.4,3.9,0,0.299878,-0.00342092,0
0.4,4,0,0.299847,-0.0033621,0
0.4,4.1,0,0.299857,-0.00329076,0
0.4,4.2,0,0.299828,-0.00320553,0
0.4,4.3,0,0.299817,-0.00312465,0
0.4,4.4,0,0.299813,-0.00302147,0
0.4,4.5,0,0.299769,-0.00293132,0
0.4,4.6,0,0.299789,-0.00282546,0
0.4,4.7,0,0.299752,-0.00270247,0
0.4,4.8,0,0.299741,-0.00258789,0
0.4,4.9,0,0.299745,-0.00246159,0
0.4,5,0,0.299695,-0.00239295,0
0.4,5.1,0,0.299672,-0.00218039,0
0.4,5.2,0,0.299657,-0.00202762,0
0.4,5.3,0,0.299643,-0.0018678,0
0.4,5.4,0,0.299629,-0.00170113,0
0.4,5.5,0,0.299615,-0.00152794,0
0.4,5.6,0,0.299603,-0.00134868,0
0.4,5.7,0,0.299592,-0.00116384,0
0.4,5.8,0,0.299582,-0.000973962,0
0.4,5.9,0,0.299573,-0.00077968,0
0.4,6,0,0.299566,-0.000581673,0
0.4,6.1,0,0.29956,-0.000380674,0
0.4,6.2,0,0.299557,-0.000177458,0
0.4,6.3,0,0.299554,2.71639e-05,0
0.4,6.4,0,0.299553,0.000232356,0
0.4,6.5,0,0.299555,0.000437269,0
0.4,6.6,0,0.299558,0.000641053,0
0.4,6.7,0,0.299563,0.000842864,0
0.4,6.8,0,0.299569,0.00104186,0
0.4,6.9,0,0.299576,0.00123739,0
0.4,7,0,0.29959,0.00153463,0
0.4,7.1,0,0.299644,0.001631,0
0.4,7.2,0,0.29965,0.00179347,0
0.4,7.3,0,0.299628,0.00195831,0
0.4,7.4,0,0.299684,0.00211079,0
0.4,7.5,0,0.299685,0.00228799,0
0.4,7.6,0,0.299682,0.00243133,0
0.4,7.7,0,0.299731,0.00257084,0
0.4,7.8,0,0.29973,0.00271558,0
0.4,7.9,0,0.299741,0.00283432,0
0.4,8,0,0.299782,0.00295464,0
0.4,8.1,0,0.29978,0.00306714,0
0.4,8.2,0,0.299799,0.0031606,0
0.4,8.3,0,0.299833,0.00325908,0
0.4,8.4,0,0.29983,0.00334195,0
0.4,8.5,0,0.299854,0.00341108,0
0.4,8.6,0,0.299881,0.0034859,0
0.4,8.7,0,0.299878,0.00354395,0
0.4,8.8,0,0.299902,0.00359094,0
0.4,8.9,0,0.29992,0.00364136,0
0.4,9,0,0.299922,0.00367989,0
0.4,9.1,0,0.299942,0.00370834,0
0.4,9.2,0,0.299955,0.00373795,0
0.4,9.3,0,0.29996,0.00375907,0
0.4,9.4,0,0.299974,0.00377324,0
0.4,9.5,0,0.299984,0.00378589,0
0.4,9.6,0,0.29999,0.00379316,0
0.4,9.7,0,0.299999,0.00379557,0
0.4,9.8,0,0.300006,0.00379566,0
0.4,9.9,0,0.300011,0.00379256,0
0.4,10,0,0.300016,0.00378551,0
0.4,10.1,0,0.300022,0.00377725,0
0.4,10.2,0,0.300025,0.00376697,0
0.4,10.3,0,0.300027,0.00375284,0
0.4,10.4,0,0.300033,0.0037397,0
0.4,10.5,0,0.300033,0.00372503,0
0.4,10.6,0,0.300034,0.0037066,0
0.4,10.7,0,0.30004,0.00369083,0
0.4,10.8,0,0.300036,0.00367415,0
0.4,10.9,0,0.300037,0.00365405,0
0.4,11,0,0.300041,0.00363722,0
0.4,11.1,0,0.300035,0.00362045,0
0.4,11.2,0,0.300036,0.00360064,0
0.4,11.3,0,0.300038,0.00358442,0
0.4,11.4,0,0.300032,0.00356834,0
0.4,11.5,0,0.300033,0.00355092,0
0.4,11.6,0,0.300032,0.00353666,0
0.4,11.7,0,0.300026,0.00352232,0
0.4,11.8,0,0.300027,0.00350842,0
0.4,11.9,0,0.300024,0.00349716,0
0.4,12,0,0.30002,0.00348567,0
0.4,12.1,0,0.300019,0.00347585,0
0.4,12.2,0,0.300016,0.00346834,0
0.4,12.3,0,0.300012,0.00346071,0
0.4,12.4,0,0.300011,0.00345513,0
0.4,12.5,0,0.300007,0.00345189,0
0.4,12.6,0,0.300005,0.00344923,0
0.4,12.7,0,0.300006,0.0034478,0
0.5,0,0,0.300003,-0.00477236,0
0.5,0.1,0,0.300003,-0.00477319,0
0.5,0.2,0,0.300004,-0.00477402,0
0.5,0.3,0,0.300005,-0.00477561,0
0.5,0.4,0,0.300006,-0.00477797,0
0.5,0.5,0,0.300008,-0.00478033,0
0.5,0.6,0,0.300009,-0.00478396,0
0.5,0.7,0,0.30001,-0.00478758,0
0.5,0.8,0,0.300011,-0.00479166,0
0.5,0.9,0,0.300011,-0.0047962,0
0.5,1,0,0.300012,-0.00480073,0
0.5,1.1,0,0.300012,-0.00480567,0
0.5,1.2,0,0.300012,-0.00481061,0
0.5,1.3,0,0.300012,-0.00481544,0
0.5,1.4,0,0.300011,-0.00482015,0
0.5,1.5,0,0.300011,-0.00482486,0
0.5,1.6,0,0.30001,-0.00482853,0
0.5,1.7,0,0.300008,-0.0048322,0
0.5,1.8,0,0.300006,-0.00483485,0
0.5,1.9,0,0.300003,-0.00483648,0
0.5,2,0,0.300001,-0.0048381,0
0.5,2.1,0,0.299997,-0.00483648,0
0.5,2.2,0,0.299993,-0.00483486,0
0.5,2.3,0,0.299988,-0.00483091,0
0.5,2.4,0,0.299983,-0.00482461,0
0.5,2.5,0,0.299977,-0.00481832,0
0.5,2.6,0,0.29997,-0.00480569,0
0.5,2.7,0,0.299963,-0.00479305,0
0.5,2.8,0,0.299954,-0.0047763,0
0.5,2.9,0,0.299945,-0.00475543,0
0.5,3,0,0.299936,-0.00473456,0
0.5,3.1,0,0.299924,-0.00470332,0
0.5,3.2,0,0.299913,-0.00467209,0
0.5,3.3,0,0.2999,-0.00463451,0
0.5,3.4,0,0.299886,-0.0045906,0
0.5,3.5,0,0.299872,-0.00454668,0
0.5,3.6,0,0.299855,-0.00448766,0
0.5,3.7,0,0.299839,-0.00442863,0
0.5,3.8,0,0.299821,-0.00436082,0
0.5,3.9,0,0.299802,-0.00428421,0
0.5,4,0,0.299783,-0.00420761,0
0.5,4.1,0,0.299762,-0.00411105,0
0.5,4.2,0,0.299741,-0.00401448,0
0.5,4.3,0,0.299719,-0.00390695,0
0.5,4.4,0,0.299696,-0.00378846,0
0.5,4.5,0,0.299673,-0.00366996,0
0.5,4.6,0,0.29965,-0.00352921,0
0.5,4.7,0,0.299626,-0.00338845,0
0.5,4.8,0,0.299605,-0.00325375,0
0.5,4.9,0,0.299586,-0.00312511,0
0.5,5,0,0.299568,-0.00299647,0
0.5,5.1,0,0.299534,-0.00273065,0
0.5,5.2,0,0.299513,-0.00253973,0
0.5,5.3,0,0.299492,-0.00233986,0
0.5,5.4,0,0.299472,-0.00213131,0
0.5,5.5,0,0.299453,-0.00191454,0
0.5,5.6,0,0.299435,-0.0016901,0
0.5,5.7,0,0.299419,-0.00145861,0
0.5,5.8,0,0.299405,-0.00122079,0
0.5,5.9,0,0.299392,-0.000977404,0
0.5,6,0,0.299382,-0.000729327,0
0.5,6.1,0,0.299374,-0.00047748,0
0.5,6.2,0,0.299369,-0.00022284,0
0.5,6.3,0,0.299366,3.35664e-05,0
0.5,6.4,0,0.299365,0.000290685,0
0.5,6.5,0,0.299367,0.000547441,0
0.5,6.6,0,0.299372,0.000802755,0
0.5,6.7,0,0.299378,0.00105555,0
0.5,6.8,0,0.299387,0.00130475,0
0.5,6.9,0,0.299398,0.00154944,0
0.5,7,0,0.29942,0.00192165,0
0.5,7.1,0,0.299434,0.00209801,0
0.5,7.2,0,0.299449,0.00227437,0
0.5,7.3,0,0.299465,0.00245433,0
0.5,7.4,0,0.299489,0.00265472,0
0.5,7.5,0,0.299512,0.00285512,0
0.5,7.6,0,0.299536,0.00304718,0
0.5,7.7,0,0.299563,0.00321979,0
0.5,7.8,0,0.299589,0.00339241,0
0.5,7.9,0,0.299616,0.00355119,0
0.5,8,0,0.299644,0.00369308,0
0.5,8.1,0,0.299671,0.00383497,0
0.5,8.2,0,0.299698,0.00395844,0
0.5,8.3,0,0.299725,0.00406963,0
0.5,8.4,0,0.299751,0.00418082,0
0.5,8.5,0,0.299776,0.00427028,0
0.5,8.6,0,0.299801,0.00435251,0
0.5,8.7,0,0.299825,0.00443473,0
0.5,8.8,0,0.299847,0.00449352,0
0.5,8.9,0,0.299868,0.0045497,0
0.5,9,0,0.29989,0.00460477,0
0.5,9.1,0,0.299908,0.00463858,0
0.5,9.2,0,0.299926,0.0046724,0
0.5,9.3,0,0.299943,0.00470254,0
0.5,9.4,0,0.299958,0.004718,0
0.5,9.5,0,0.299972,0.00473347,0
0.5,9.6,0,0.299986,0.00474391,0
0.5,9.7,0,0.299997,0.00474503,0
0.5,9.8,0,0.300008,0.00474615,0
0.5,9.9,0,0.300017,0.00474198,0
0.5,10,0,0.300025,0.00473253,0
0.5,10.1,0,0.300032,0.00472309,0
0.5,10.2,0,0.300038,0.00470898,0
0.5,10.3,0,0.300043,0.00469236,0
0.5,10.4,0,0.300048,0.00467574,0
0.5,10.5,0,0.300051,0.00465574,0
0.5,10.6,0,0.300054,0.0046349,0
0.5,10.7,0,0.300056,0.00461405,0
0.5,10.8,0,0.300057,0.00459154,0
0.5,10.9,0,0.300058,0.00456895,0
0.5,11,0,0.300058,0.00454638,0
0.5,11.1,0,0.300057,0.00452406,0
0.5,11.2,0,0.300056,0.00450174,0
0.5,11.3,0,0.300054,0.00447989,0
0.5,11.4,0,0.300052,0.00445947,0
0.5,11.5,0,0.30005,0.00443905,0
0.5,11.6,0,0.300047,0.0044199,0
0.5,11.7,0,0.300044,0.00440265,0
0.5,11.8,0,0.30004,0.00438541,0
0.5,11.9,0,0.300037,0.00437043,0
0.5,12,0,0.300033,0.00435732,0
0.5,12.1,0,0.300029,0.00434421,0
0.5,12.2,0,0.300024,0.00433447,0
0.5,12.3,0,0.30002,0.00432617,0
0.5,12.4,0,0.300016,0.00431788,0
0.5,12.5,0,0.300013,0.00431419,0
0.5,12.6,0,0.300011,0.00431132,0
0.5,12.7,0,0.300009,0.00430844,0
0.6,0,0,0.300004,-0.005725,0
0.6,0.1,0,0.300004,-0.00572596,0
0.6,0.2,0,0.300005,-0.005727,0
0.6,0.3,0,0.300007,-0.00572913,0
0.6,0.4,0,0.300009,-0.00573183,0
0.6,0.5,0,0.300012,-0.005735,0
0.6,0.6,0,0.300013,-0.00573966,0
0.6,0.7,0,0.300015,-0.00574388,0
0.6,0.8,0,0.300016,-0.00574923,0
0.6,0.9,0,0.300016,-0.00575443,0
0.6,1,0,0.300018,-0.00576045,0
0.6,1.1,0,0.300018,-0.00576694,0
0.6,1.2,0,0.300018,-0.0057727,0
0.6,1.3,0,0.300018,-0.00577915,0
0.6,1.4,0,0.300017,-0.00578467,0
0.6,1.5,0,0.300017,-0.00579103,0
0.6,1.6,0,0.300014,-0.00579619,0
0.6,1.7,0,0.300012,-0.00580059,0
0.6,1.8,0,0.300009,-0.00580454,0
0.6,1.9,0,0.300006,-0.00580673,0
0.6,2,0,0.300002,-0.00580936,0
0.6,2.1,0,0.299996,-0.00580825,0
0.6,2.2,0,0.299991,-0.00580676,0
0.6,2.3,0,0.299984,-0.0058027,0
0.6,2.4,0,0.299978,-0.00579618,0
0.6,2.5,0,0.299967,-0.00578901,0
0.6,2.6,0,0.299959,-0.00577456,0
0.6,2.7,0,0.299948,-0.00576072,0
0.6,2.8,0,0.299935,-0.00574093,0
0.6,2.9,0,0.299926,-0.00571823,0
0.6,3,0,0.299905,-0.00569289,0
0.6,3.1,0,0.299895,-0.00565562,0
0.6,3.2,0,0.299876,-0.00562085,0
0.6,3.3,0,0.299857,-0.00557523,0
0.6,3.4,0,0.299845,-0.00552681,0
0.6,3.5,0,0.29981,-0.0054726,0
0.6,3.6,0,0.299799,-0.00540091,0
0.6,3.7,0,0.29977,-0.00533479,0
0.6,3.8,0,0.299743,-0.00525139,0
0.6,3.9,0,0.299729,-0.00516631,0
0.6,4,0,0.299678,-0.00507089,0
0.6,4.1,0,0.299669,-0.00495245,0
0.6,4.2,0,0.299629,-0.00484378,0
0.6,4.3,0,0.299596,-0.00471041,0
0.6,4.4,0,0.299581,-0.00457819,0
0.6,4.5,0,0.299513,-0.00442955,0
0.6,4.6,0,0.299511,-0.00425472,0
0.6,4.7,0,0.299461,-0.00409623,0
0.6,4.8,0,0.299426,-0.00390754,0
0.6,4.9,0,0.299418,-0.00374264,0
0.6,5,0,0.299352,-0.00362178,0
0.6,5.1,0,0.299301,-0.00330177,0
0.6,5.2,0,0.299267,-0.00307182,0
0.6,5.3,0,0.299235,-0.00283094,0
0.6,5.4,0,0.299204,-0.00257943,0
0.6,5.5,0,0.299175,-0.00231786,0
0.6,5.6,0,0.299148,-0.00204687,0
0.6,5.7,0,0.299123,-0.00176722,0
0.6,5.8,0,0.299101,-0.00147976,0
0.6,5.9,0,0.299082,-0.00118545,0
0.6,6,0,0.299066,-0.000885334,0
0.6,6.1,0,0.299054,-0.000580544,0
0.6,6.2,0,0.299046,-0.00027228,0
0.6,6.3,0,0.299041,3.81985e-05,0
0.6,6.4,0,0.29904,0.000349594,0
0.6,6.5,0,0.299043,0.000660583,0
0.6,6.6,0,0.29905,0.000969834,0
0.6,6.7,0,0.299061,0.00127602,0
0.6,6.8,0,0.299075,0.00157782,0
0.6,6.9,0,0.299093,0.00187409,0
0.6,7,0,0.299128,0.00232465,0
0.6,7.1,0,0.299197,0.0024936,0
0.6,7.2,0,0.299209,0.00269782,0
0.6,7.3,0,0.299206,0.002971,0
0.6,7.4,0,0.299289,0.00322751,0
0.6,7.5,0,0.299299,0.00344862,0
0.6,7.6,0,0.299319,0.00368862,0
0.6,7.7,0,0.299392,0.00390322,0
0.6,7.8,0,0.299406,0.00409834,0
0.6,7.9,0,0.299443,0.0042967,0
0.6,8,0,0.299505,0.0044671,0
0.6,8.1,0,0.299521,0.004631,0
0.6,8.2,0,0.299568,0.00478585,0
0.6,8.3,0,0.299617,0.00491458,0
0.6,8.4,0,0.299635,0.00504519,0
0.6,8.5,0,0.299684,0.00515817,0
0.6,8.6,0,0.299722,0.00525037,0
0.6,8.7,0,0.299742,0.00534724,0
0.6,8.8,0,0.299788,0.00542238,0
0.6,8.9,0,0.299816,0.00548414,0
0.6,9,0,0.299838,0.00554778,0
0.6,9.1,0,0.299877,0.00559166,0
0.6,9.2,0,0.299897,0.00562756,0
0.6,9.3,0,0.299919,0.00566144,0
0.6,9.4,0,0.299946,0.00568136,0
0.6,9.5,0,0.299962,0.00569663,0
0.6,9.6,0,0.299981,0.00570701,0
0.6,9.7,0,0.299999,0.00570859,0
0.6,9.8,0,0.300013,0.00570764,0
0.6,9.9,0,0.300026,0.00570061,0
0.6,10,0,0.300037,0.00568955,0
0.6,10.1,0,0.300049,0.00567607,0
0.6,10.2,0,0.300057,0.00565714,0
0.6,10.3,0,0.300062,0.00563824,0
0.6,10.4,0,0.300072,0.00561582,0
0.6,10.5,0,0.300075,0.0055898,0
0.6,10.6,0,0.300077,0.00556633,0
0.6,10.7,0,0.300085,0.0055389,0
0.6,10.8,0,0.300082,0.0055098,0
0.6,10.9,0,0.300082,0.00548439,0
0.6,11,0,0.300087,0.00545533,0
0.6,11.1,0,0.300081,0.00542636,0
0.6,11.2,0,0.300081,0.00540146,0
0.6,11.3,0,0.300081,0.00537359,0
0.6,11.4,0,0.300073,0.00534762,0
0.6,11.5,0,0.300072,0.00532445,0
0.6,11.6,0,0.300069,0.00530006,0
0.6,11.7,0,0.300062,0.00527875,0
0.6,11.8,0,0.300059,0.00525875,0
0.6,11.9,0,0.300053,0.00523953,0
0.6,12,0,0.300046,0.00522378,0
0.6,12.1,0,0.300042,0.00520838,0
0.6,12.2,0,0.300035,0.00519556,0
0.6,12.3,0,0.300029,0.00518584,0
0.6,12.4,0,0.300023,0.00517613,0
0.6,12.5,0,0.300016,0.00517051,0
0.6,12.6,0,0.300012,0.00516709,0
0.6,12.7,0,0.300013,0.00516457,0
0.7,0,0,0.300005,-0.00667765,0
0.7,0.1,0,0.300006,-0.00667881,0
0.7,0.2,0,0.300008,-0.00668018,0
0.7,0.3,0,0.30001,-0.00668232,0
0.7,0.4,0,0.300013,-0.00668616,0
0.7,0.5,0,0.300016,-0.00668967,0
0.7,0.6,0,0.300017,-0.00669492,0
0.7,0.7,0,0.30002,-0.00670078,0
0.7,0.8,0,0.300021,-0.00670613,0
0.7,0.9,0,0.300023,-0.00671348,0
0.7,1,0,0.300025,-0.00672017,0
0.7,1.1,0,0.300025,-0.00672748,0
0.7,1.2,0,0.300025,-0.00673562,0
0.7,1.3,0,0.300025,-0.00674207,0
0.7,1.4,0,0.300023,-0.00675004,0
0.7,1.5,0,0.300023,-0.00675721,0
0.7,1.6,0,0.30002,-0.00676309,0
0.7,1.7,0,0.300017,-0.00676971,0
0.7,1.8,0,0.300013,-0.00677365,0
0.7,1.9,0,0.300008,-0.00677743,0
0.7,2,0,0.300003,-0.00678063,0
0.7,2.1,0,0.299996,-0.00677964,0
0.7,2.2,0,0.299987,-0.00677878,0
0.7,2.3,0,0.29998,-0.00677472,0
0.7,2.4,0,0.299968,-0.0067671,0
0.7,2.5,0,0.299957,-0.00675971,0
0.7,2.6,0,0.299945,-0.00674404,0
0.7,2.7,0,0.299929,-0.00672717,0
0.7,2.8,0,0.299916,-0.00670738,0
0.7,2.9,0,0.299896,-0.00667839,0
0.7,3,0,0.299875,-0.00665122,0
0.7,3.1,0,0.299857,-0.00661041,0
0.7,3.2,0,0.299831,-0.00656607,0
0.7,3.3,0,0.299812,-0.00652045,0
0.7,3.4,0,0.299781,-0.00645723,0
0.7,3.5,0,0.299748,-0.00639851,0
0.7,3.6,0,0.299725,-0.00631973,0
0.7,3.7,0,0.299688,-0.00623385,0
0.7,3.8,0,0.299661,-0.00615045,0
0.7,3.9,0,0.299619,-0.00603807,0
0.7,4,0,0.299572,-0.00593417,0
0.7,4.1,0,0.299544,-0.00580362,0
0.7,4.2,0,0.299497,-0.00566096,0
0.7,4.3,0,0.299464,-0.0055276,0
0.7,4.4,0,0.299413,-0.00535151,0
0.7,4.5,0,0.299353,-0.00518914,0
0.7,4.6,0,0.299325,-0.00499658,0
0.7,4.7,0,0.299271,-0.00478627,0
0.7,4.8,0,0.299235,-0.00459758,0
0.7,4.9,0,0.299192,-0.00440421,0
0.7,5,0,0.299137,-0.0042471,0
0.7,5.1,0,0.299067,-0.00387288,0
0.7,5.2,0,0.299021,-0.00360391,0
0.7,5.3,0,0.298978,-0.00332202,0
0.7,5.4,0,0.298936,-0.00302756,0
0.7,5.5,0,0.298897,-0.00272119,0
0.7,5.6,0,0.29886,-0.00240365,0
0.7,5.7,0,0.298827,-0.00207583,0
0.7,5.8,0,0.298797,-0.00173874,0
0.7,5.9,0,0.298771,-0.0013935,0
0.7,6,0,0.29875,-0.00104134,0
0.7,6.1,0,0.298734,-0.000683608,0
0.7,6.2,0,0.298723,-0.00032172,0
0.7,6.3,0,0.298716,4.28307e-05,0
0.7,6.4,0,0.298715,0.000408503,0
0.7,6.5,0,0.29872,0.000773725,0
0.7,6.6,0,0.298729,0.00113691,0
0.7,6.7,0,0.298744,0.00149649,0
0.7,6.8,0,0.298764,0.00185089,0
0.7,6.9,0,0.298788,0.00219875,0
0.7,7,0,0.298836,0.00272764,0
0.7,7.1,0,0.29889,0.00293945,0
0.7,7.2,0,0.298926,0.00320807,0
0.7,7.3,0,0.298937,0.00347917,0
0.7,7.4,0,0.299004,0.00376355,0
0.7,7.5,0,0.299057,0.0040677,0
0.7,7.6,0,0.299085,0.00431508,0
0.7,7.7,0,0.299151,0.00456551,0
0.7,7.8,0,0.29921,0.00482524,0
0.7,7.9,0,0.299248,0.0050236,0
0.7,8,0,0.299311,0.005233,0
0.7,8.1,0,0.299365,0.00543894,0
0.7,8.2,0,0.299411,0.00559444,0
0.7,8.3,0,0.299471,0.00575992,0
0.7,8.4,0,0.299517,0.00591501,0
0.7,8.5,0,0.299565,0.00603063,0
0.7,8.6,0,0.29962,0.00615158,0
0.7,8.7,0,0.299659,0.00626122,0
0.7,8.8,0,0.299705,0.00633916,0
0.7,8.9,0,0.299753,0.00642038,0
0.7,9,0,0.299785,0.0064903,0
0.7,9.1,0,0.299825,0.00653584,0