x,y,z,p
0,0,0,3.68197e-05
0,0.1,0,6.68178e-05
0,0.2,0,9.6816e-05
0,0.3,0,0.000126814
0,0.4,0,0.000161968
0,0.5,0,0.000202276
0,0.6,0,0.000242585
0,0.7,0,0.000282893
0,0.8,0,0.000322784
0,0.9,0,0.000362674
0,1,0,0.000402565
0,1.1,0,0.000442141
0,1.2,0,0.000481402
0,1.3,0,0.000520663
0,1.4,0,0.000559923
0,1.5,0,0.000598339
0,1.6,0,0.000636755
0,1.7,0,0.000675171
0,1.8,0,0.000713054
0,1.9,0,0.000750404
0,2,0,0.000787754
0,2.1,0,0.000825104
0,2.2,0,0.000861161
0,2.3,0,0.000897218
0,2.4,0,0.000933275
0,2.5,0,0.000968569
0,2.6,0,0.0010031
0,2.7,0,0.00103763
0,2.8,0,0.00107217
0,2.9,0,0.00110494
0,3,0,0.00113771
0,3.1,0,0.00117048
0,3.2,0,0.00120224
0,3.3,0,0.00123301
0,3.4,0,0.00126378
0,3.5,0,0.00129455
0,3.6,0,0.00132308
0,3.7,0,0.00135161
0,3.8,0,0.00138014
0,3.9,0,0.00140744
0,4,0,0.0014335
0,4.1,0,0.00145956
0,4.2,0,0.00148562
0,4.3,0,0.00150897
0,4.4,0,0.00153232
0,4.5,0,0.00155568
0,4.6,0,0.00157757
0,4.7,0,0.00159799
0,4.8,0,0.00161842
0,4.9,0,0.00163884
0,5,0,0.00165612
0,5.1,0,0.00167339
0,5.2,0,0.00169066
0,5.3,0,0.00170625
0,5.4,0,0.00172015
0,5.5,0,0.00173404
0,5.6,0,0.00174794
0,5.7,0,0.00175824
0,5.8,0,0.00176854
0,5.9,0,0.00177884
0,6,0,0.00178723
0,6.1,0,0.00179372
0,6.2,0,0.0018002
0,6.3,0,0.00180669
0,6.4,0,0.00180907
0,6.5,0,0.00181144
0,6.6,0,0.00181382
0,6.7,0,0.00181446
0,6.8,0,0.00181336
0,6.9,0,0.00181225
0,7,0,0.00181115
0,7.1,0,0.00180456
0,7.2,0,0.00179882
0,7.3,0,0.00179189
0,7.4,0,0.0017838
0,7.5,0,0.00177455
0,7.6,0,0.00176413
0,7.7,0,0.00175253
0,7.8,0,0.00173978
0,7.9,0,0.00172583
0,8,0,0.00170542
0,8.1,0,0.00169048
0,8.2,0,0.00167554
0,8.3,0,0.00165743
0,8.4,0,0.00163761
0,8.5,0,0.00161698
0,8.6,0,0.00159446
0,8.7,0,0.00157193
0,8.8,0,0.00154694
0,8.9,0,0.00152181
0,9,0,0.00149521
0,9.1,0,0.00146762
0,9.2,0,0.00143945
0,9.3,0,0.00140952
0,9.4,0,0.00137958
0,9.5,0,0.00134766
0,9.6,0,0.00131551
0,9.7,0,0.00128222
0,9.8,0,0.00124799
0,9.9,0,0.00121338
0,10,0,0.0011772
0,10.1,0,0.00114103
0,10.2,0,0.00110332
0,10.3,0,0.00106534
0,10.4,0,0.00102652
0,10.5,0,0.000986882
0,10.6,0,0.000947013
0,10.7,0,0.000905857
0,10.8,0,0.000864702
0,10.9,0,0.00082246
0,11,0,0.000779946
0,11.1,0,0.000736892
0,11.2,0,0.000693177
0,11.3,0,0.000649358
0,11.4,0,0.000604603
0,11.5,0,0.000559849
0,11.6,0,0.000514439
0,11.7,0,0.00046881
0,11.8,0,0.000422899
0,11.9,0,0.000376565
0,12,0,0.000330204
0,12.1,0,0.000283335
0,12.2,0,0.000236465
0,12.3,0,0.000189345
0,12.4,0,0.000142118
0,12.5,0,9.91972e-05
0,12.6,0,6.42746e-05
0,12.7,0,2.93519e-05
0.1,0,0,3.01252e-05
0.1,0.1,0,6.01575e-05
0.1,0.2,0,9.01557e-05
0.1,0.3,0,0.000121615
0.1,0.4,0,0.000162079
0.1,0.5,0,0.000202375
0.1,0.6,0,0.000242684
0.1,0.7,0,0.000283205
0.1,0.8,0,0.00032295
0.1,0.9,0,0.000362841
0.1,1,0,0.000402797
0.1,1.1,0,0.000442426
0.1,1.2,0,0.000481636
0.1,1.3,0,0.000520897
0.1,1.4,0,0.00056056
0.1,1.5,0,0.000598643
0.1,1.6,0,0.000637059
0.1,1.7,0,0.000675583
0.1,1.8,0,0.000713522
0.1,1.9,0,0.000750779
0.1,2,0,0.000788129
0.1,2.1,0,0.0008261
0.1,2.2,0,0.000861609
0.1,2.3,0,0.000897666
0.1,2.4,0,0.000933882
0.1,2.5,0,0.000969234
0.1,2.6,0,0.00100362
0.1,2.7,0,0.00103816
0.1,2.8,0,0.00107356
0.1,2.9,0,0.00110553
0.1,3,0,0.0011383
0.1,3.1,0,0.00117129
0.1,3.2,0,0.00120312
0.1,3.3,0,0.00123369
0.1,3.4,0,0.00126446
0.1,3.5,0,0.00129635
0.1,3.6,0,0.00132383
0.1,3.7,0,0.00135236
0.1,3.8,0,0.00138116
0.1,3.9,0,0.00140851
0.1,4,0,0.00143432
0.1,4.1,0,0.00146038
0.1,4.2,0,0.00148775
0.1,4.3,0,0.00150987
0.1,4.4,0,0.00153322
0.1,4.5,0,0.00155686
0.1,4.6,0,0.00157881
0.1,4.7,0,0.00159896
0.1,4.8,0,0.00161939
0.1,4.9,0,0.00164113
0.1,5,0,0.00165716
0.1,5.1,0,0.00167443
0.1,5.2,0,0.00169197
0.1,5.3,0,0.00170761
0.1,5.4,0,0.00172125
0.1,5.5,0,0.00173515
0.1,5.6,0,0.00175013
0.1,5.7,0,0.00175942
0.1,5.8,0,0.00176972
0.1,5.9,0,0.00178021
0.1,6,0,0.00178865
0.1,6.1,0,0.00179496
0.1,6.2,0,0.00180145
0.1,6.3,0,0.00180863
0.1,6.4,0,0.00181044
0.1,6.5,0,0.00181282
0.1,6.6,0,0.00181531
0.1,6.7,0,0.00181553
0.1,6.8,0,0.0018142
0.1,6.9,0,0.0018131
0.1,7,0,0.00181304
0.1,7.1,0,0.00180637
0.1,7.2,0,0.00180065
0.1,7.3,0,0.00179373
0.1,7.4,0,0.00178566
0.1,7.5,0,0.00177641
0.1,7.6,0,0.00176598
0.1,7.7,0,0.00175437
0.1,7.8,0,0.00174159
0.1,7.9,0,0.00172763
0.1,8,0,0.00170723
0.1,8.1,0,0.00169198
0.1,8.2,0,0.0016771
0.1,8.3,0,0.00165802
0.1,8.4,0,0.0016382
0.1,8.5,0,0.00161791
0.1,8.6,0,0.00159503
0.1,8.7,0,0.00157357
0.1,8.8,0,0.00154748
0.1,8.9,0,0.00152244
0.1,9,0,0.00149573
0.1,9.1,0,0.00146814
0.1,9.2,0,0.0014405
0.1,9.3,0,0.00141
0.1,9.4,0,0.00138114
0.1,9.5,0,0.00134812
0.1,9.6,0,0.00131597
0.1,9.7,0,0.00128265
0.1,9.8,0,0.00124842
0.1,9.9,0,0.00121457
0.1,10,0,0.0011776
0.1,10.1,0,0.00114238
0.1,10.2,0,0.00110369
0.1,10.3,0,0.00106571
0.1,10.4,0,0.00102686
0.1,10.5,0,0.000987222
0.1,10.6,0,0.000948239
0.1,10.7,0,0.000906164
0.1,10.8,0,0.000865703
0.1,10.9,0,0.000822734
0.1,11,0,0.00078022
0.1,11.1,0,0.000737131
0.1,11.2,0,0.000693416
0.1,11.3,0,0.000650408
0.1,11.4,0,0.000604808
0.1,11.5,0,0.000560435
0.1,11.6,0,0.000514608
0.1,11.7,0,0.000468979
0.1,11.8,0,0.000423082
0.1,11.9,0,0.000376698
0.1,12,0,0.00033084
0.1,12.1,0,0.000283431
0.1,12.2,0,0.000236676
0.1,12.3,0,0.000189402
0.1,12.4,0,0.000142175
0.1,12.5,0,9.48881e-05
0.1,12.6,0,5.89601e-05
0.1,12.7,0,2.40152e-05
0.2,0,0,2.34307e-05
0.2,0.1,0,5.34826e-05
0.2,0.2,0,8.34954e-05
0.2,0.3,0,0.000121771
0.2,0.4,0,0.000162235
0.2,0.5,0,0.000202474
0.2,0.6,0,0.000242874
0.2,0.7,0,0.000283516
0.2,0.8,0,0.000323179
0.2,0.9,0,0.000363008
0.2,1,0,0.000403268
0.2,1.1,0,0.000442897
0.2,1.2,0,0.00048187
0.2,1.3,0,0.000521303
0.2,1.4,0,0.000561197
0.2,1.5,0,0.000599089
0.2,1.6,0,0.000637362
0.2,1.7,0,0.000676395
0.2,1.8,0,0.000714333
0.2,1.9,0,0.000751153
0.2,2,0,0.00078877
0.2,2.1,0,0.000827095
0.2,2.2,0,0.000862292
0.2,2.3,0,0.000898114
0.2,2.4,0,0.000935071
0.2,2.5,0,0.000970424
0.2,2.6,0,0.00100415
0.2,2.7,0,0.00103905
0.2,2.8,0,0.00107495
0.2,2.9,0,0.00110647
0.2,3,0,0.0011389
0.2,3.1,0,0.00117288
0.2,3.2,0,0.00120471
0.2,3.3,0,0.00123436
0.2,3.4,0,0.00126561
0.2,3.5,0,0.00129814
0.2,3.6,0,0.00132503
0.2,3.7,0,0.00135311
0.2,3.8,0,0.00138314
0.2,3.9,0,0.00141049
0.2,4,0,0.00143515
0.2,4.1,0,0.00146177
0.2,4.2,0,0.00148988
0.2,4.3,0,0.00151129
0.2,4.4,0,0.00153412
0.2,4.5,0,0.0015591
0.2,4.6,0,0.00158105
0.2,4.7,0,0.00159993
0.2,4.8,0,0.00162092
0.2,4.9,0,0.00164342
0.2,5,0,0.00165873
0.2,5.1,0,0.00167547
0.2,5.2,0,0.00169423
0.2,5.3,0,0.00170987
0.2,5.4,0,0.00172236
0.2,5.5,0,0.00173672
0.2,5.6,0,0.00175232
0.2,5.7,0,0.00176103
0.2,5.8,0,0.0017709
0.2,5.9,0,0.00178227
0.2,6,0,0.00179072
0.2,6.1,0,0.0017962
0.2,6.2,0,0.00180299
0.2,6.3,0,0.00181058
0.2,6.4,0,0.00181205
0.2,6.5,0,0.00181419
0.2,6.6,0,0.00181723
0.2,6.7,0,0.00181746
0.2,6.8,0,0.00181504
0.2,6.9,0,0.00181439
0.2,7,0,0.00181493
0.2,7.1,0,0.00180819
0.2,7.2,0,0.00180248
0.2,7.3,0,0.00179558
0.2,7.4,0,0.00178751
0.2,7.5,0,0.00177826
0.2,7.6,0,0.00176782
0.2,7.7,0,0.0017562
0.2,7.8,0,0.0017434
0.2,7.9,0,0.00172943
0.2,8,0,0.00170903
0.2,8.1,0,0.00169348
0.2,8.2,0,0.00167892
0.2,8.3,0,0.00165919
0.2,8.4,0,0.00163922
0.2,8.5,0,0.0016197
0.2,8.6,0,0.0015956
0.2,8.7,0,0.00157536
0.2,8.8,0,0.00154802
0.2,8.9,0,0.00152425
0.2,9,0,0.00149701
0.2,9.1,0,0.00146898
0.2,9.2,0,0.00144235
0.2,9.3,0,0.00141049
0.2,9.4,0,0.00138302
0.2,9.5,0,0.00134858
0.2,9.6,0,0.00131779
0.2,9.7,0,0.00128413
0.2,9.8,0,0.00124904
0.2,9.9,0,0.00121646
0.2,10,0,0.001178
0.2,10.1,0,0.00114424
0.2,10.2,0,0.00110407
0.2,10.3,0,0.00106727
0.2,10.4,0,0.00102842
0.2,10.5,0,0.000987576
0.2,10.6,0,0.000949963
0.2,10.7,0,0.000906471
0.2,10.8,0,0.000867314
0.2,10.9,0,0.000823178
0.2,11,0,0.000781347
0.2,11.1,0,0.000738537
0.2,11.2,0,0.000693656
0.2,11.3,0,0.000651716
0.2,11.4,0,0.000605012
0.2,11.5,0,0.000561559
0.2,11.6,0,0.00051501
0.2,11.7,0,0.000469597
0.2,11.8,0,0.000424005
0.2,11.9,0,0.00037683
0.2,12,0,0.000331547
0.2,12.1,0,0.000283527
0.2,12.2,0,0.000237157
0.2,12.3,0,0.000189613
0.2,12.4,0,0.000142322
0.2,12.5,0,9.51331e-05
0.2,12.6,0,5.36456e-05
0.2,12.7,0,1.86785e-05
0.3,0,0,1.67362e-05
0.3,0.1,0,4.67881e-05
0.3,0.2,0,8.12173e-05
0.3,0.3,0,0.000121928
0.3,0.4,0,0.000162392
0.3,0.5,0,0.00020261
0.3,0.6,0,0.000243186
0.3,0.7,0,0.000283828
0.3,0.8,0,0.000323491
0.3,0.9,0,0.00036337
0.3,1,0,0.000403739
0.3,1.1,0,0.000443367
0.3,1.2,0,0.000482256
0.3,1.3,0,0.00052194
0.3,1.4,0,0.000561833
0.3,1.5,0,0.000599726
0.3,1.6,0,0.000637992
0.3,1.7,0,0.000677206
0.3,1.8,0,0.000715145
0.3,1.9,0,0.000751809
0.3,2,0,0.000789765
0.3,2.1,0,0.000828091
0.3,2.2,0,0.000863287
0.3,2.3,0,0.000899039
0.3,2.4,0,0.000936261
0.3,2.5,0,0.000971614
0.3,2.6,0,0.0010051
0.3,2.7,0,0.00104044
0.3,2.8,0,0.00107634
0.3,2.9,0,0.00110786
0.3,3,0,0.00114014
0.3,3.1,0,0.00117448
0.3,3.2,0,0.00120631
0.3,3.3,0,0.00123563
0.3,3.4,0,0.00126741
0.3,3.5,0,0.00129994
0.3,3.6,0,0.00132683
0.3,3.7,0,0.00135465
0.3,3.8,0,0.00138512
0.3,3.9,0,0.00141247
0.3,4,0,0.00143671
0.3,4.1,0,0.0014639
0.3,4.2,0,0.00149202
0.3,4.3,0,0.00151343
0.3,4.4,0,0.00153588
0.3,4.5,0,0.00156134
0.3,4.6,0,0.00158329
0.3,4.7,0,0.00160171
0.3,4.8,0,0.00162321
0.3,4.9,0,0.00164571
0.3,5,0,0.00166102
0.3,5.1,0,0.0016773
0.3,5.2,0,0.0016965
0.3,5.3,0,0.00171214
0.3,5.4,0,0.00172422
0.3,5.5,0,0.00173891
0.3,5.6,0,0.00175451
0.3,5.7,0,0.00176322
0.3,5.8,0,0.00177265
0.3,5.9,0,0.00178434
0.3,6,0,0.00179278
0.3,6.1,0,0.00179798
0.3,6.2,0,0.00180493
0.3,6.3,0,0.00181252
0.3,6.4,0,0.001814
0.3,6.5,0,0.00181591
0.3,6.6,0,0.00181915
0.3,6.7,0,0.00181938
0.3,6.8,0,0.00181658
0.3,6.9,0,0.00181628
0.3,7,0,0.00181682
0.3,7.1,0,0.00181001
0.3,7.2,0,0.00180431
0.3,7.3,0,0.00179743
0.3,7.4,0,0.00178937
0.3,7.5,0,0.00178012
0.3,7.6,0,0.00176968
0.3,7.7,0,0.00175804
0.3,7.8,0,0.00174522
0.3,7.9,0,0.00173122
0.3,8,0,0.00171084
0.3,8.1,0,0.00169518
0.3,8.2,0,0.00168073
0.3,8.3,0,0.00166101
0.3,8.4,0,0.001641
0.3,8.5,0,0.00162148
0.3,8.6,0,0.00159683
0.3,8.7,0,0.00157715
0.3,8.8,0,0.00154953
0.3,8.9,0,0.00152606
0.3,9,0,0.00149883
0.3,9.1,0,0.00147083
0.3,9.2,0,0.0014442
0.3,9.3,0,0.00141167
0.3,9.4,0,0.0013849
0.3,9.5,0,0.0013503
0.3,9.6,0,0.00131969
0.3,9.7,0,0.00128602
0.3,9.8,0,0.00125093
0.3,9.9,0,0.00121836
0.3,10,0,0.00117914
0.3,10.1,0,0.00114611
0.3,10.2,0,0.00110594
0.3,10.3,0,0.00106908
0.3,10.4,0,0.00103023
0.3,10.5,0,0.0009893
0.3,10.6,0,0.000951687
0.3,10.7,0,0.000907465
0.3,10.8,0,0.000868925
0.3,10.9,0,0.000824789
0.3,11,0,0.000782819
0.3,11.1,0,0.000740009
0.3,11.2,0,0.00069485
0.3,11.3,0,0.000653024
0.3,11.4,0,0.000605755
0.3,11.5,0,0.000562683
0.3,11.6,0,0.000516134
0.3,11.7,0,0.00047052
0.3,11.8,0,0.000424928
0.3,11.9,0,0.000377409
0.3,12,0,0.000332254
0.3,12.1,0,0.000283954
0.3,12.2,0,0.000237638
0.3,12.3,0,0.000190094
0.3,12.4,0,0.000142567
0.3,12.5,0,9.5378e-05
0.3,12.6,0,4.83165e-05
0.3,12.7,0,1.33418e-05
0.4,0,0,1.00417e-05
0.4,0.1,0,4.05805e-05
0.4,0.2,0,8.13444e-05
0.4,0.3,0,0.000122084
0.4,0.4,0,0.000162548
0.4,0.5,0,0.000202949
0.4,0.6,0,0.000243502
0.4,0.7,0,0.00028414
0.4,0.8,0,0.000323824
0.4,0.9,0,0.000363965
0.4,1,0,0.000404209
0.4,1.1,0,0.000443838
0.4,1.2,0,0.000483072
0.4,1.3,0,0.000522594
0.4,1.4,0,0.00056247
0.4,1.5,0,0.000600399
0.4,1.6,0,0.000639089
0.4,1.7,0,0.000678017
0.4,1.8,0,0.000715956
0.4,1.9,0,0.000753152
0.4,2,0,0.000790792
0.4,2.1,0,0.000829086
0.4,2.2,0,0.000864336
0.4,2.3,0,0.000900698
0.4,2.4,0,0.000937451
0.4,2.5,0,0.000972803
0.4,2.6,0,0.00100703
0.4,2.7,0,0.00104188
0.4,2.8,0,0.00107773
0.4,2.9,0,0.00110933
0.4,3,0,0.00114242
0.4,3.1,0,0.00117608
0.4,3.2,0,0.00120791
0.4,3.3,0,0.00123819
0.4,3.4,0,0.00126927
0.4,3.5,0,0.00130174
0.4,3.6,0,0.00132871
0.4,3.7,0,0.00135753
0.4,3.8,0,0.0013871
0.4,3.9,0,0.00141445
0.4,4,0,0.00143982
0.4,4.1,0,0.00146612
0.4,4.2,0,0.00149415
0.4,4.3,0,0.00151566
0.4,4.4,0,0.00153918
0.4,4.5,0,0.00156359
0.4,4.6,0,0.00158553
0.4,4.7,0,0.00160509
0.4,4.8,0,0.00162559
0.4,4.9,0,0.001648
0.4,5,0,0.00166339
0.4,5.1,0,0.00168064
0.4,5.2,0,0.00169877
0.4,5.3,0,0.00171441
0.4,5.4,0,0.00172741
0.4,5.5,0,0.00174118
0.4,5.6,0,0.0017567
0.4,5.7,0,0.00176547
0.4,5.8,0,0.00177558
0.4,5.9,0,0.00178641
0.4,6,0,0.00179485
0.4,6.1,0,0.00180064
0.4,6.2,0,0.00180694
0.4,6.3,0,0.00181446
0.4,6.4,0,0.00181598
0.4,6.5,0,0.00181832
0.4,6.6,0,0.00182108
0.4,6.7,0,0.0018213
0.4,6.8,0,0.0018194
0.4,6.9,0,0.00181825
0.4,7,0,0.00181872
0.4,7.1,0,0.00181183
0.4,7.2,0,0.00180614
0.4,7.3,0,0.00179928
0.4,7.4,0,0.00179123
0.4,7.5,0,0.00178198
0.4,7.6,0,0.00177153
0.4,7.7,0,0.00175988
0.4,7.8,0,0.00174703
0.4,7.9,0,0.00173302
0.4,8,0,0.00171265
0.4,8.1,0,0.00169726
0.4,8.2,0,0.00168255
0.4,8.3,0,0.00166285
0.4,8.4,0,0.00164296
0.4,8.5,0,0.00162327
0.4,8.6,0,0.00159977
0.4,8.7,0,0.00157893
0.4,8.8,0,0.00155223
0.4,8.9,0,0.00152788
0.4,9,0,0.00150064
0.4,9.1,0,0.00147301
0.4,9.2,0,0.00144605
0.4,9.3,0,0.00141491
0.4,9.4,0,0.00138678
0.4,9.5,0,0.00135306
0.4,9.6,0,0.00132158
0.4,9.7,0,0.00128792
0.4,9.8,0,0.00125337
0.4,9.9,0,0.00122025
0.4,10,0,0.0011825
0.4,10.1,0,0.00114797
0.4,10.2,0,0.00110851
0.4,10.3,0,0.00107089
0.4,10.4,0,0.00103204
0.4,10.5,0,0.000991743
0.4,10.6,0,0.000953411
0.4,10.7,0,0.000910493
0.4,10.8,0,0.000870536
0.4,10.9,0,0.000826846
0.4,11,0,0.000784291
0.4,11.1,0,0.000741481
0.4,11.2,0,0.000696906
0.4,11.3,0,0.000654333
0.4,11.4,0,0.000607983
0.4,11.5,0,0.000563807
0.4,11.6,0,0.000517451
0.4,11.7,0,0.000471442
0.4,11.8,0,0.00042585
0.4,11.9,0,0.000378688
0.4,12,0,0.000332962
0.4,12.1,0,0.00028503
0.4,12.2,0,0.000238119
0.4,12.3,0,0.000190601
0.4,12.4,0,0.000142821
0.4,12.5,0,9.56229e-05
0.4,12.6,0,4.7652e-05
0.4,12.7,0,8.00508e-06
0.5,0,0,3.34724e-06
0.5,0.1,0,4.07028e-05
0.5,0.2,0,8.14667e-05
0.5,0.3,0,0.000122231
0.5,0.4,0,0.000162766
0.5,0.5,0,0.000203318
0.5,0.6,0,0.000243871
0.5,0.7,0,0.000284452
0.5,0.8,0,0.00032444
0.5,0.9,0,0.000364581
0.5,1,0,0.000404722
0.5,1.1,0,0.000444424
0.5,1.2,0,0.000483945
0.5,1.3,0,0.000523467
0.5,1.4,0,0.000563106
0.5,1.5,0,0.000601543
0.5,1.6,0,0.000640233
0.5,1.7,0,0.000678923
0.5,1.8,0,0.000716944
0.5,1.9,0,0.000754584
0.5,2,0,0.000792224
0.5,2.1,0,0.000830082
0.5,2.2,0,0.000866073
0.5,2.3,0,0.000902435
0.5,2.4,0,0.000938797
0.5,2.5,0,0.000974241
0.5,2.6,0,0.00100909
0.5,2.7,0,0.00104394
0.5,2.8,0,0.00107912
0.5,2.9,0,0.00111172
0.5,3,0,0.00114481
0.5,3.1,0,0.0011779
0.5,3.2,0,0.00120982
0.5,3.3,0,0.00124091
0.5,3.4,0,0.00127199
0.5,3.5,0,0.00130353
0.5,3.6,0,0.00133174
0.5,3.7,0,0.00136056
0.5,3.8,0,0.00138938
0.5,3.9,0,0.00141681
0.5,4,0,0.00144311
0.5,4.1,0,0.00146941
0.5,4.2,0,0.00149628
0.5,4.3,0,0.00151913
0.5,4.4,0,0.00154266
0.5,4.5,0,0.00156618
0.5,4.6,0,0.00158815
0.5,4.7,0,0.00160865
0.5,4.8,0,0.00162915
0.5,4.9,0,0.00165028
0.5,5,0,0.00166691
0.5,5.1,0,0.00168415
0.5,5.2,0,0.0017014
0.5,5.3,0,0.00171699
0.5,5.4,0,0.00173076
0.5,5.5,0,0.00174453
0.5,5.6,0,0.00175889
0.5,5.7,0,0.00176855
0.5,5.8,0,0.00177866
0.5,5.9,0,0.00178877
0.5,6,0,0.00179712
0.5,6.1,0,0.00180341
0.5,6.2,0,0.0018097
0.5,6.3,0,0.0018164
0.5,6.4,0,0.00181847
0.5,6.5,0,0.00182082
0.5,6.6,0,0.00182316
0.5,6.7,0,0.00182352
0.5,6.8,0,0.00182237
0.5,6.9,0,0.00182122
0.5,7,0,0.00182061
0.5,7.1,0,0.00181365
0.5,7.2,0,0.00180797
0.5,7.3,0,0.00180113
0.5,7.4,0,0.00179309
0.5,7.5,0,0.00178383
0.5,7.6,0,0.00177338
0.5,7.7,0,0.00176171
0.5,7.8,0,0.00174885
0.5,7.9,0,0.00173482
0.5,8,0,0.00171446
0.5,8.1,0,0.00169938
0.5,8.2,0,0.00168446
0.5,8.3,0,0.00166586
0.5,8.4,0,0.00164597
0.5,8.5,0,0.0016253
0.5,8.6,0,0.00160277
0.5,8.7,0,0.00158072
0.5,8.8,0,0.00155529
0.5,8.9,0,0.00153024
0.5,9,0,0.00150366
0.5,9.1,0,0.00147616
0.5,9.2,0,0.00144802
0.5,9.3,0,0.00141816
0.5,9.4,0,0.00138866
0.5,9.5,0,0.00135637
0.5,9.6,0,0.00132427
0.5,9.7,0,0.00129097
0.5,9.8,0,0.00125673
0.5,9.9,0,0.00122214
0.5,10,0,0.00118585
0.5,10.1,0,0.00114984
0.5,10.2,0,0.00111181
0.5,10.3,0,0.0010737
0.5,10.4,0,0.00103478
0.5,10.5,0,0.000994936
0.5,10.6,0,0.000955135
0.5,10.7,0,0.000913522
0.5,10.8,0,0.000872147
0.5,10.9,0,0.000829656
0.5,11,0,0.000786816
0.5,11.1,0,0.000743544
0.5,11.2,0,0.000699447
0.5,11.3,0,0.000655641
0.5,11.4,0,0.000610211
0.5,11.5,0,0.000565026
0.5,11.6,0,0.000519329
0.5,11.7,0,0.000473229
0.5,11.8,0,0.000427024
0.5,11.9,0,0.000380185
0.5,12,0,0.000333669
0.5,12.1,0,0.000286123
0.5,12.2,0,0.000238724
0.5,12.3,0,0.00019127
0.5,12.4,0,0.00014349
0.5,12.5,0,9.58608e-05
0.5,12.6,0,4.78747e-05
0.5,12.7,0,2.66836e-06
0.6,0,0,0
0.6,0.1,0,4.08615e-05
0.6,0.2,0,8.16255e-05
0.6,0.3,0,0.000122389
0.6,0.4,0,0.000163233
0.6,0.5,0,0.000203785
0.6,0.6,0,0.000244338
0.6,0.7,0,0.00028507
0.6,0.8,0,0.00032522
0.6,0.9,0,0.000365361
0.6,1,0,0.000405502
0.6,1.1,0,0.000445528
0.6,1.2,0,0.000485049
0.6,1.3,0,0.00052457
0.6,1.4,0,0.000564361
0.6,1.5,0,0.000602986
0.6,1.6,0,0.000641676
0.6,1.7,0,0.000680366
0.6,1.8,0,0.000718746
0.6,1.9,0,0.000756386
0.6,2,0,0.000794025
0.6,2.1,0,0.000832022
0.6,2.2,0,0.000868253
0.6,2.3,0,0.000904615
0.6,2.4,0,0.000940977
0.6,2.5,0,0.000976819
0.6,2.6,0,0.00101167
0.6,2.7,0,0.00104652
0.6,2.8,0,0.0010818
0.6,2.9,0,0.0011147
0.6,3,0,0.00114779
0.6,3.1,0,0.00118089
0.6,3.2,0,0.00121322
0.6,3.3,0,0.0012443
0.6,3.4,0,0.00127539
0.6,3.5,0,0.00130698
0.6,3.6,0,0.00133553
0.6,3.7,0,0.00136435
0.6,3.8,0,0.00139317
0.6,3.9,0,0.00142094
0.6,4,0,0.00144724
0.6,4.1,0,0.00147354
0.6,4.2,0,0.00150045
0.6,4.3,0,0.00152354
0.6,4.4,0,0.00154706
0.6,4.5,0,0.00157058
0.6,4.6,0,0.00159271
0.6,4.7,0,0.00161321
0.6,4.8,0,0.00163371
0.6,4.9,0,0.00165502
0.6,5,0,0.0016715
0.6,5.1,0,0.00168874
0.6,5.2,0,0.00170599
0.6,5.3,0,0.00172147
0.6,5.4,0,0.00173525
0.6,5.5,0,0.00174902
0.6,5.6,0,0.00176397
0.6,5.7,0,0.00177282
0.6,5.8,0,0.00178293
0.6,5.9,0,0.00179304
0.6,6,0,0.00180112
0.6,6.1,0,0.00180741
0.6,6.2,0,0.0018137
0.6,6.3,0,0.00182165
0.6,6.4,0,0.00182224
0.6,6.5,0,0.00182459
0.6,6.6,0,0.00182693
0.6,6.7,0,0.00182744
0.6,6.8,0,0.00182629
0.6,6.9,0,0.00182513
0.6,7,0,0.00182609
0.6,7.1,0,0.00181919
0.6,7.2,0,0.00181354
0.6,7.3,0,0.00180673
0.6,7.4,0,0.00179869
0.6,7.5,0,0.00178944
0.6,7.6,0,0.00177897
0.6,7.7,0,0.00176729
0.6,7.8,0,0.0017544
0.6,7.9,0,0.00174033
0.6,8,0,0.00171991
0.6,8.1,0,0.00170306
0.6,8.2,0,0.00168814
0.6,8.3,0,0.00166945
0.6,8.4,0,0.00164956
0.6,8.5,0,0.00162885
0.6,8.6,0,0.00160633
0.6,8.7,0,0.00158544
0.6,8.8,0,0.00155889
0.6,8.9,0,0.00153383
0.6,9,0,0.00150733
0.6,9.1,0,0.00147982
0.6,9.2,0,0.00145175
0.6,9.3,0,0.00142189
0.6,9.4,0,0.00139288
0.6,9.5,0,0.00136016
0.6,9.6,0,0.00132805
0.6,9.7,0,0.00129477
0.6,9.8,0,0.00126053
0.6,9.9,0,0.00122594
0.6,10,0,0.00118963
0.6,10.1,0,0.00115368
0.6,10.2,0,0.0011155
0.6,10.3,0,0.00107738
0.6,10.4,0,0.00103832
0.6,10.5,0,0.000998483
0.6,10.6,0,0.000958512
0.6,10.7,0,0.00091687
0.6,10.8,0,0.000875482
0.6,10.9,0,0.000832751
0.6,11,0,0.000789911
0.6,11.1,0,0.000746336
0.6,11.2,0,0.000702238
0.6,11.3,0,0.000658076
0.6,11.4,0,0.000612653
0.6,11.5,0,0.000567468
0.6,11.6,0,0.000521384
0.6,11.7,0,0.000475284
0.6,11.8,0,0.00042866
0.6,11.9,0,0.000381821
0.6,12,0,0.000334916
0.6,12.1,0,0.000287316
0.6,12.2,0,0.000239917
0.6,12.3,0,0.000192001
0.6,12.4,0,0.000144221
0.6,12.5,0,9.61093e-05
0.6,12.6,0,4.81232e-05
0.6,12.7,0,0
0.7,0,0,0
0.7,0.1,0,4.10567e-05
0.7,0.2,0,8.18206e-05
0.7,0.3,0,0.000122777
0.7,0.4,0,0.000163726
0.7,0.5,0,0.00020435
0.7,0.6,0,0.000244903
0.7,0.7,0,0.000285996
0.7,0.8,0,0.000326164
0.7,0.9,0,0.000366305
0.7,1,0,0.000406766
0.7,1.1,0,0.000446903
0.7,1.2,0,0.000486383
0.7,1.3,0,0.000525904
0.7,1.4,0,0.000566234
0.7,1.5,0,0.000604727
0.7,1.6,0,0.000643417
0.7,1.7,0,0.000682557
0.7,1.8,0,0.000721059
0.7,1.9,0,0.000758557
0.7,2,0,0.000796197
0.7,2.1,0,0.000834908
0.7,2.2,0,0.000870877
0.7,2.3,0,0.000907239
0.7,2.4,0,0.00094417
0.7,2.5,0,0.000980147
0.7,2.6,0,0.00101477
0.7,2.7,0,0.00104961
0.7,2.8,0,0.00108577
0.7,2.9,0,0.00111829
0.7,3,0,0.00115138
0.7,3.1,0,0.00118515
0.7,3.2,0,0.00121762
0.7,3.3,0,0.00124838
0.7,3.4,0,0.00127947
0.7,3.5,0,0.00131208
0.7,3.6,0,0.00134008
0.7,3.7,0,0.0013689
0.7,3.8,0,0.00139851
0.7,3.9,0,0.0014264
0.7,4,0,0.00145222
0.7,4.1,0,0.00147851
0.7,4.2,0,0.00150665
0.7,4.3,0,0.00152886
0.7,4.4,0,0.00155238
0.7,4.5,0,0.0015769
0.7,4.6,0,0.0015991
0.7,4.7,0,0.00161877
0.7,4.8,0,0.00163927
0.7,4.9,0,0.00166221
0.7,5,0,0.00167716
0.7,5.1,0,0.0016944
0.7,5.2,0,0.00171304
0.7,5.3,0,0.00172852
0.7,5.4,0,0.00174087
0.7,5.5,0,0.00175464
0.7,5.6,0,0.00177195
0.7,5.7,0,0.00177829
0.7,5.8,0,0.00178839
0.7,5.9,0,0.00180052
0.7,6,0,0.00180854
0.7,6.1,0,0.00181264
0.7,6.2,0,0.00181894
0.7,6.3,0,0.00183021
0.7,6.4,0,0.00182729
0.7,6.5,0,0.00182964
0.7,6.6,0,0.00183466
0.7,6.7,0,0.00183511
0.7,6.8,0,0.00183115
0.7,6.9,0,0.00183
0.7,7,0,0.00183517
0.7,7.1,0,0.00182846
0.7,7.2,0,0.00182286
0.7,7.3,0,0.00181607
0.7,7.4,0,0.00180805
0.7,7.5,0,0.0017988
0.7,7.6,0,0.00178832
0.7,7.7,0,0.00177661
0.7,7.8,0,0.00176368
0.7,7.9,0,0.00174954
0.7,8,0,0.00172899
0.7,8.1,0,0.00170829
0.7,8.2,0,0.00169584
0.7,8.3,0,0.00167361
0.7,8.4,0,0.00165371
0.7,8.5,0,0.00163657
0.7,8.6,0,0.00161043
0.7,8.7,0,0.00159383
0.7,8.8,0,0.00156301
0.7,8.9,0,0.00154019
0.7,9,0,0.00151188
0.7,9.1,0,0.001484
0.7,9.2,0,0.00145922
0.7,9.3,0,0.00142612
0.7,9.4,0,0.00140029
0.7,9.5,0,0.00136441
0.7,9.6,0,0.00133354
0.7,9.7,0,0.0012996
0.7,9.8,0,0.00126478
0.7,9.9,0,0.00123254
0.7,10,0,0.00119381
0.7,10.1,0,0.00115982
0.7,10.2,0,0.00111957
0.7,10.3,0,0.00108198
0.7,10.4,0,0.00104281
0.7,10.5,0,0.00100238
0.7,10.6,0,0.000963675
0.7,10.7,0,0.00092054
0.7,10.8,0,0.000880123
0.7,10.9,0,0.000836133
0.7,11,0,0.000793447
0.7,11.1,0,0.000749852
0.7,11.2,0,0.00070528
0.7,11.3,0,0.000661625
0.7,11.4,0,0.00061531
0.7,11.5,0,0.000570422
0.7,11.6,0,0.000523615
0.7,11.7,0,0.000477532
0.7,11.8,0,0.000430789
0.7,11.9,0,0.000383596
0.7,12,0,0.000336734
0.7,12.1,0,0.00028861
0.7,12.2,0,0.000241157
0.7,12.3,0,0.000192795
0.7,12.4,0,0.000145015
0.7,12.5,0,9.6621e-05
0.7,12.6,0,4.83974e-05
0.7,12.7,0,0
0.8,0,0,0
0.8,0.1,0,4.10706e-05
0.8,0.2,0,8.20544e-05
0.8,0.3,0,0.000123243
0.8,0.4,0,0.000164192
0.8,0.5,0,0.000204901
0.8,0.6,0,0.000245802
0.8,0.7,0,0.000286921
0.8,0.8,0,0.00032709
0.8,0.9,0,0.000367312
0.8,1,0,0.000408158
0.8,1.1,0,0.000448296
0.8,1.2,0,0.000487725
0.8,1.3,0,0.000527738
0.8,1.4,0,0.000568107
0.8,1.5,0,0.000606591
0.8,1.6,0,0.000645249
0.8,1.7,0,0.000684927
0.8,1.8,0,0.000723429
0.8,1.9,0,0.000760757
0.8,2,0,0.000799031
0.8,2.1,0,0.000837794
0.8,2.2,0,0.000873744
0.8,2.3,0,0.000909977
0.8,2.4,0,0.000947589
0.8,2.5,0,0.000983567
0.8,2.6,0,0.00101791
0.8,2.7,0,0.00105352
0.8,2.8,0,0.00108974
0.8,2.9,0,0.00112223
0.8,3,0,0.0011551
0.8,3.1,0,0.00118968
0.8,3.2,0,0.00122215
0.8,3.3,0,0.00125252
0.8,3.4,0,0.00128449
0.8,3.5,0,0.00131717
0.8,3.6,0,0.00134513
0.8,3.7,0,0.00137361
0.8,3.8,0,0.00140416
0.8,3.9,0,0.00143206
0.8,4,0,0.00145729
0.8,4.1,0,0.00148463
0.8,4.2,0,0.00151285
0.8,4.3,0,0.001535
0.8,4.4,0,0.00155791
0.8,4.5,0,0.00158361
0.8,4.6,0,0.00160581
0.8,4.7,0,0.0016245
0.8,4.8,0,0.00164634
0.8,4.9,0,0.0016694
0.8,5,0,0.00168424
0.8,5.1,0,0.00170034
0.8,5.2,0,0.00172065
0.8,5.3,0,0.00173613
0.8,5.4,0,0.00174678
0.8,5.5,0,0.00176245
0.8,5.6,0,0.00177993
0.8,5.7,0,0.00178609
0.8,5.8,0,0.00179426
0.8,5.9,0,0.00180881
0.8,6,0,0.00181683
0.8,6.1,0,0.00181832
0.8,6.2,0,0.00182725
0.8,6.3,0,0.00183876
0.8,6.4,0,0.00183559
0.8,6.5,0,0.00183522
0.8,6.6,0,0.00184346
0.8,6.7,0,0.00184391
0.8,6.8,0,0.00183657
0.8,6.9,0,0.00183878
0.8,7,0,0.00184426
0.8,7.1,0,0.00183772
0.8,7.2,0,0.00183218
0.8,7.3,0,0.00182542
0.8,7.4,0,0.00181741
0.8,7.5,0,0.00180815
0.8,7.6,0,0.00179766
0.8,7.7,0,0.00178593
0.8,7.8,0,0.00177296
0.8,7.9,0,0.00175876
0.8,8,0,0.00173807
0.8,8.1,0,0.00171413
0.8,8.2,0,0.00170471
0.8,8.3,0,0.00168237
0.8,8.4,0,0.00166173
0.8,8.5,0,0.0016452
0.8,8.6,0,0.00161471
0.8,8.7,0,0.00160221
0.8,8.8,0,0.00156831
0.8,8.9,0,0.00154829
0.8,9,0,0.00151998
0.8,9.1,0,0.00149085
0.8,9.2,0,0.00146699
0.8,9.3,0,0.00143034
0.8,9.4,0,0.0014077
0.8,9.5,0,0.00136991
0.8,9.6,0,0.00134056
0.8,9.7,0,0.00130662
0.8,9.8,0,0.0012705
0.8,9.9,0,0.00123913
0.8,10,0,0.001198
0.8,10.1,0,0.00116596
0.8,10.2,0,0.0011247
0.8,10.3,0,0.00108764
0.8,10.4,0,0.00104847
0.8,10.5,0,0.00100693
0.8,10.6,0,0.000968837
0.8,10.7,0,0.000924209
0.8,10.8,0,0.000884764
0.8,10.9,0,0.000840306
0.8,11,0,0.000797549
0.8,11.1,0,0.000753954
0.8,11.2,0,0.000708522
0.8,11.3,0,0.000665174
0.8,11.4,0,0.000617966
0.8,11.5,0,0.000573404
0.8,11.6,0,0.000526406
0.8,11.7,0,0.000479936
0.8,11.8,0,0.000433194
0.8,11.9,0,0.000385383
0.8,12,0,0.000338552
0.8,12.1,0,0.000289927
0.8,12.2,0,0.000242382
0.8,12.3,0,0.00019396
0.8,12.4,0,0.000145641
0.8,12.5,0,9.72441e-05
0.8,12.6,0,4.86279e-05
0.8,12.7,0,0
0.9,0,0,0
0.9,0.1,0,4.10706e-05
0.9,0.2,0,8.24499e-05
0.9,0.3,0,0.000123708
0.9,0.4,0,0.000164657
0.9,0.5,0,0.000205495
0.9,0.6,0,0.000246728
0.9,0.7,0,0.000287846
0.9,0.8,0,0.000328016
0.9,0.9,0,0.000368698
0.9,1,0,0.000409551
0.9,1.1,0,0.000449688
0.9,1.2,0,0.00048931
0.9,1.3,0,0.000529611
0.9,1.4,0,0.00056998
0.9,1.5,0,0.000608464
0.9,1.6,0,0.000647666
0.9,1.7,0,0.000687297
0.9,1.8,0,0.000725799
0.9,1.9,0,0.000763382
0.9,2,0,0.000801917
0.9,2.1,0,0.000840679
0.9,2.2,0,0.00087663
0.9,2.3,0,0.00091349
0.9,2.4,0,0.000951009
0.9,2.5,0,0.000986986
0.9,2.6,0,0.00102164
0.9,2.7,0,0.00105749
0.9,2.8,0,0.00109371
0.9,2.9,0,0.0011262
0.9,3,0,0.00115977
0.9,3.1,0,0.00119421
0.9,3.2,0,0.00122668
0.9,3.3,0,0.00125742
0.9,3.4,0,0.00128959
0.9,3.5,0,0.00132227
0.9,3.6,0,0.00135023
0.9,3.7,0,0.00137946
0.9,3.8,0,0.00140982
0.9,3.9,0,0.00143771
0.9,4,0,0.00146338
0.9,4.1,0,0.00149083
0.9,4.2,0,0.00151905
0.9,4.3,0,0.0015412
0.9,4.4,0,0.00156493
0.9,4.5,0,0.00159033
0.9,4.6,0,0.00161253
0.9,4.7,0,0.00163179
0.9,4.8,0,0.00165353
0.9,4.9,0,0.00167658
0.9,5,0,0.00169143
0.9,5.1,0,0.0017085
0.9,5.2,0,0.00172826
0.9,5.3,0,0.00174374
0.9,5.4,0,0.00175523
0.9,5.5,0,0.00177043
0.9,5.6,0,0.0017879
0.9,5.7,0,0.00179406
0.9,5.8,0,0.00180345
0.9,5.9,0,0.0018171
0.9,6,0,0.00182512
0.9,6.1,0,0.00182779
0.9,6.2,0,0.00183581
0.9,6.3,0,0.00184731
0.9,6.4,0,0.00184415
0.9,6.5,0,0.00184527
0.9,6.6,0,0.00185226
0.9,6.7,0,0.00185272
0.9,6.8,0,0.00184688
0.9,6.9,0,0.00184786
0.9,7,0,0.00185334
0.9,7.1,0,0.00184698
0.9,7.2,0,0.0018415
0.9,7.3,0,0.00183476
0.9,7.4,0,0.00182677
0.9,7.5,0,0.00181751
0.9,7.6,0,0.00180701
0.9,7.7,0,0.00179525
0.9,7.8,0,0.00178224
0.9,7.9,0,0.00176798
0.9,8,0,0.00174715
0.9,8.1,0,0.00172445
0.9,8.2,0,0.00171358
0.9,8.3,0,0.00169124
0.9,8.4,0,0.00167036
0.9,8.5,0,0.00165384
0.9,8.6,0,0.00162517
0.9,8.7,0,0.00161059
0.9,8.8,0,0.00157758
0.9,8.9,0,0.00155638
0.9,9,0,0.00152807
0.9,9.1,0,0.00149862
0.9,9.2,0,0.00147476
0.9,9.3,0,0.00143956
0.9,9.4,0,0.00141511
0.9,9.5,0,0.00137762
0.9,9.6,0,0.00134758
0.9,9.7,0,0.00131364
0.9,9.8,0,0.00127709
0.9,9.9,0,0.00124573
0.9,10,0,0.00120543
0.9,10.1,0,0.0011721
0.9,10.2,0,0.00113084
0.9,10.3,0,0.00109331
0.9,10.4,0,0.00105413
0.9,10.5,0,0.00101209
0.9,10.6,0,0.000973999
0.9,10.7,0,0.000929758
0.9,10.8,0,0.000889405
0.9,10.9,0,0.000844947
0.9,11,0,0.000801652
0.9,11.1,0,0.000758057
0.9,11.2,0,0.000712184
0.9,11.3,0,0.000668723
0.9,11.4,0,0.000621635
0.9,11.5,0,0.000576386
0.9,11.6,0,0.000529388
0.9,11.7,0,0.00048234
0.9,11.8,0,0.000435598
0.9,11.9,0,0.000387341
0.9,12,0,0.00034037
0.9,12.1,0,0.000291713
0.9,12.2,0,0.000243607
0.9,12.3,0,0.000195186
0.9,12.4,0,0.000146264
0.9,12.5,0,9.78672e-05
0.9,12.6,0,4.87467e-05
0.9,12.7,0,0
1,0,0,0
1,0.1,0,4.1225e-05
1,0.2,0,8.272e-05
1,0.3,0,0.000124173
1,0.4,0,0.000165122
1,0.5,0,0.000206321
1,0.6,0,0.000247596
1,0.7,0,0.000288772
1,0.8,0,0.000329198
1,0.9,0,0.000370072
1,1,0,0.000410943
1,1.1,0,0.000451081
1,1.2,0,0.000491241
1,1.3,0,0.000531518
1,1.4,0,0.000571853
1,1.5,0,0.000610696
1,1.6,0,0.000650167
1,1.7,0,0.000689667
1,1.8,0,0.000728169
1,1.9,0,0.000766466
1,2,0,0.000804916
1,2.1,0,0.000843565
1,2.2,0,0.00087997
1,2.3,0,0.000917171
1,2.4,0,0.000954428
1,2.5,0,0.000990406
1,2.6,0,0.00102593
1,2.7,0,0.00106165
1,2.8,0,0.00109768
1,2.9,0,0.00113071
1,3,0,0.00116468
1,3.1,0,0.00119874
1,3.2,0,0.00123121
1,3.3,0,0.00126297
1,3.4,0,0.00129494
1,3.5,0,0.00132737
1,3.6,0,0.00135596
1,3.7,0,0.00138566
1,3.8,0,0.00141548
1,3.9,0,0.00144337
1,4,0,0.00147026
1,4.1,0,0.00149742
1,4.2,0,0.00152525
1,4.3,0,0.00154819
1,4.4,0,0.00157252
1,4.5,0,0.00159704
1,4.6,0,0.00161924
1,4.7,0,0.00164013
1,4.8,0,0.00166138
1,4.9,0,0.00168377
1,5,0,0.00169973
1,5.1,0,0.00171764
1,5.2,0,0.00173587
1,5.3,0,0.00175135
1,5.4,0,0.00176519
1,5.5,0,0.00177954
1,5.6,0,0.00179588
1,5.7,0,0.00180366
1,5.8,0,0.00181426
1,5.9,0,0.00182539
1,6,0,0.00183341
1,6.1,0,0.0018394
1,6.2,0,0.00184611
1,6.3,0,0.00185587
1,6.4,0,0.00185485
1,6.5,0,0.00185758
1,6.6,0,0.00186107
1,6.7,0,0.00186152
1,6.8,0,0.0018599
1,6.9,0,0.00185919
1,7,0,0.00186242
1,7.1,0,0.00185625
1,7.2,0,0.00185082
1,7.3,0,0.00184411
1,7.4,0,0.00183612
1,7.5,0,0.00182687
1,7.6,0,0.00181635
1,7.7,0,0.00180457
1,7.8,0,0.00179152
1,7.9,0,0.0017772
1,8,0,0.00175623
1,8.1,0,0.00173717
1,8.2,0,0.00172244
1,8.3,0,0.00170244
1,8.4,0,0.00168201
1,8.5,0,0.00166247
1,8.6,0,0.00163808
1,8.7,0,0.00161898
1,8.8,0,0.00158994
1,8.9,0,0.00156448
1,9,0,0.00153762
1,9.1,0,0.00150936
1,9.2,0,0.00148254
1,9.3,0,0.00145051
1,9.4,0,0.00142253
1,9.5,0,0.0013878
1,9.6,0,0.00135477
1,9.7,0,0.00132134
1,9.8,0,0.00128611
1,9.9,0,0.00125232
1,10,0,0.00121398
1,10.1,0,0.00117824
1,10.2,0,0.00113855
1,10.3,0,0.00109932
1,10.4,0,0.00106001
1,10.5,0,0.001019
1,10.6,0,0.000979161
1,10.7,0,0.000935892
1,10.8,0,0.000894047
1,10.9,0,0.000850217
1,11,0,0.000806116
1,11.1,0,0.000762187
1,11.2,0,0.000716793
1,11.3,0,0.000672272
1,11.4,0,0.00062551
1,11.5,0,0.000579368
1,11.6,0,0.0005325
1,11.7,0,0.000485048
1,11.8,0,0.000438002
1,11.9,0,0.000389789
1,12,0,0.000342188
1,12.1,0,0.000293463
1,12.2,0,0.000244833
1,12.3,0,0.000196302
1,12.4,0,0.000147113
1,12.5,0,9.84902e-05
1,12.6,0,4.90955e-05
1,12.7,0,0
1.1,0,0,0
1.1,0.1,0,4.1495e-05
1.1,0.2,0,8.299e-05
1.1,0.3,0,0.000124485
1.1,0.4,0,0.00016587
1.1,0.5,0,0.000207146
1.1,0.6,0,0.000248421
1.1,0.7,0,0.000289697
1.1,0.8,0,0.000330572
1.1,0.9,0,0.000371447
1.1,1,0,0.000412321
1.1,1.1,0,0.000452897
1.1,1.2,0,0.000493173
1.1,1.3,0,0.000533449
1.1,1.4,0,0.000573726
1.1,1.5,0,0.000613197
1.1,1.6,0,0.000652669
1.1,1.7,0,0.00069214
1.1,1.8,0,0.000731101
1.1,1.9,0,0.000769551
1.1,2,0,0.000808001
1.1,2.1,0,0.000846451
1.1,2.2,0,0.000883652
1.1,2.3,0,0.000920852
1.1,2.4,0,0.000958053
1.1,2.5,0,0.00099451
1.1,2.6,0,0.00103022
1.1,2.7,0,0.00106594
1.1,2.8,0,0.00110165