/*--------------------------------*- C++ -*----------------------------------*\
| =========                 |                                                 |
| \\      /  F ield         | OpenFOAM: The Open Source CFD Toolbox           |
|  \\    /   O peration     | Version:  v1806                                 |
|   \\  /    A nd           | Web:      www.OpenFOAM.com                      |
|    \\/     M anipulation  |                                                 |
\*---------------------------------------------------------------------------*/
FoamFile
{
    version     2.0;
    format      ascii;
    class       volVectorField;
    location    "7";
    object      U;
}
// * * * * * * * * * * * * * * * * * * * * * * * * * * * * * * * * * * * * * //

dimensions      [0 1 -1 0 0 0 0];


internalField   nonuniform List<vector> 
2400
(
(2.99942 -0.00344926 0)
(3.00131 -0.0214722 0)
(3.0001 -0.0370119 0)
(2.99861 -0.043803 0)
(3.00027 -0.0474427 0)
(3.00123 -0.074816 0)
(2.99826 -0.0990392 0)
(3.00012 -0.0918752 0)
(3.00187 -0.0970062 0)
(3.00039 -0.122723 0)
(2.99948 -0.151517 0)
(2.99999 -0.166139 0)
(3.00126 -0.152087 0)
(3.00158 -0.146421 0)
(3.00431 -0.203228 0)
(2.99943 -0.247479 0)
(2.99932 -0.206884 0)
(3.00298 -0.185163 0)
(3.00892 -0.233809 0)
(3.00397 -0.27551 0)
(2.99978 -0.00407989 0)
(3.00282 -0.0222376 0)
(2.99775 -0.0345397 0)
(2.99839 -0.0435865 0)
(3.00106 -0.0501082 0)
(3.0014 -0.0729423 0)
(2.99852 -0.0976815 0)
(3.00095 -0.0952928 0)
(3.00028 -0.097604 0)
(3.0017 -0.120209 0)
(3.00112 -0.151024 0)
(3.00152 -0.167884 0)
(3.00068 -0.153862 0)
(3.00435 -0.14935 0)
(3.00706 -0.201628 0)
(3.00298 -0.242236 0)
(3.00181 -0.20969 0)
(3.00617 -0.193253 0)
(3.01141 -0.235539 0)
(3.01042 -0.270045 0)
(3.0021 -0.00604273 0)
(2.99979 -0.019431 0)
(2.99624 -0.0324218 0)
(3.00096 -0.0472135 0)
(3.00159 -0.0505776 0)
(2.9999 -0.0717785 0)
(3.00104 -0.0988336 0)
(2.99912 -0.0937616 0)
(2.99833 -0.0973208 0)
(3.00449 -0.123781 0)
(3.00387 -0.151326 0)
(3.00051 -0.165798 0)
(3.00049 -0.154872 0)
(3.00669 -0.153112 0)
(3.00885 -0.201947 0)
(3.00694 -0.242576 0)
(3.00618 -0.210825 0)
(3.01127 -0.195726 0)
(3.01728 -0.236764 0)
(3.01499 -0.272714 0)
(3.00154 -0.00591559 0)
(2.99642 -0.0164727 0)
(3.00076 -0.0356222 0)
(3.0027 -0.048722 0)
(2.99814 -0.0493963 0)
(3.00106 -0.0720429 0)
(3.00132 -0.0969613 0)
(2.99694 -0.0925418 0)
(3.00069 -0.103176 0)
(3.00541 -0.12543 0)
(3.003 -0.147507 0)
(3.00009 -0.164402 0)
(3.0024 -0.159832 0)
(3.00861 -0.158534 0)
(3.01073 -0.20211 0)
(3.01035 -0.238848 0)
(3.00751 -0.21349 0)
(3.01393 -0.203344 0)
(3.01773 -0.239264 0)
(3.0218 -0.271411 0)
(2.99933 -0.00385281 0)
(2.99851 -0.0190616 0)
(3.00407 -0.0382514 0)
(2.99898 -0.0446394 0)
(2.99773 -0.0492135 0)
(3.00193 -0.0743764 0)
(2.99902 -0.0947829 0)
(2.99891 -0.0931726 0)
(3.00323 -0.10627 0)
(3.00133 -0.125034 0)
(3.00211 -0.147517 0)
(3.0026 -0.16475 0)
(3.00454 -0.163245 0)
(3.0082 -0.161964 0)
(3.01249 -0.205106 0)
(3.012 -0.238291 0)
(3.01183 -0.217466 0)
(3.01951 -0.20656 0)
(3.02564 -0.242853 0)
(3.02557 -0.268701 0)
(2.99855 -0.00349714 0)
(3.00271 -0.0216484 0)
(3.00019 -0.0352942 0)
(2.99741 -0.0430736 0)
(3.00028 -0.0515775 0)
(3.00025 -0.0738139 0)
(2.99893 -0.0930743 0)
(3.00144 -0.0977404 0)
(3.0008 -0.104755 0)
(2.99806 -0.124964 0)
(3.00397 -0.148507 0)
(3.0044 -0.168138 0)
(3.0039 -0.163667 0)
(3.00702 -0.168858 0)
(3.01314 -0.205338 0)
(3.01431 -0.238601 0)
(3.01575 -0.220829 0)
(3.02217 -0.220586 0)
(3.02943 -0.24871 0)
(3.03066 -0.278822 0)
(3.00019 -0.00519254 0)
(3.0026 -0.0204736 0)
(2.99592 -0.0326465 0)
(2.99973 -0.0443015 0)
(3.00056 -0.0526691 0)
(2.99983 -0.0721969 0)
(2.99824 -0.0961422 0)
(2.99948 -0.0949502 0)
(2.99792 -0.103205 0)
(3.00059 -0.127338 0)
(3.00387 -0.154782 0)
(3.00132 -0.165025 0)
(3.0021 -0.165065 0)
(3.00825 -0.172204 0)
(3.01391 -0.213355 0)
(3.01413 -0.240095 0)
(3.01708 -0.225718 0)
(3.02421 -0.223463 0)
(3.03093 -0.255703 0)
(3.03879 -0.278629 0)
(3.00137 -0.00628327 0)
(2.99853 -0.0171891 0)
(2.99807 -0.0321745 0)
(3.00163 -0.0473318 0)
(2.99866 -0.0525109 0)
(2.998 -0.0703775 0)
(2.9978 -0.0931908 0)
(2.99679 -0.0968828 0)
(2.99796 -0.106586 0)
(3.00111 -0.129428 0)
(2.99899 -0.150913 0)
(2.9989 -0.166028 0)
(3.00239 -0.170784 0)
(3.00803 -0.180629 0)
(3.01131 -0.213911 0)
(3.01434 -0.239976 0)
(3.0201 -0.233698 0)
(3.02694 -0.235324 0)
(3.03914 -0.261403 0)
(3.04339 -0.282638 0)
(3.00026 -0.00478016 0)
(2.99799 -0.0174713 0)
(3.00228 -0.0350556 0)
(2.99817 -0.0448934 0)
(2.9954 -0.0495217 0)
(2.99942 -0.0706977 0)
(2.99664 -0.0945583 0)
(2.99483 -0.0953161 0)
(2.99613 -0.107405 0)
(2.99767 -0.127707 0)
(2.99584 -0.153211 0)
(2.99842 -0.169465 0)
(2.99866 -0.173005 0)
(3.00515 -0.182977 0)
(3.00958 -0.220913 0)
(3.01412 -0.247918 0)
(3.01814 -0.237829 0)
(3.02772 -0.242044 0)
(3.03862 -0.271634 0)
(3.049 -0.293824 0)
(2.99953 -0.00435748 0)
(3 -0.0191531 0)
(2.99991 -0.0321058 0)
(2.99473 -0.0400735 0)
(2.99788 -0.0545286 0)
(2.9977 -0.0702807 0)
(2.99353 -0.0887159 0)
(2.99287 -0.0955616 0)
(2.99362 -0.11031 0)
(2.99289 -0.126978 0)
(2.99324 -0.15389 0)
(2.99377 -0.168144 0)
(2.99389 -0.177939 0)
(3.00042 -0.191802 0)
(3.0063 -0.225607 0)
(3.0115 -0.247432 0)
(3.0163 -0.250497 0)
(3.02935 -0.256981 0)
(3.04341 -0.280816 0)
(3.05265 -0.296515 0)
(3.00083 -0.00349929 0)
(2.99922 -0.0184561 0)
(2.99572 -0.0294361 0)
(2.99758 -0.0430136 0)
(2.99495 -0.0526788 0)
(2.99341 -0.0655202 0)
(2.99232 -0.0889113 0)
(2.99108 -0.0953328 0)
(2.98805 -0.107344 0)
(2.98763 -0.126456 0)
(2.98984 -0.154745 0)
(2.9859 -0.170537 0)
(2.98736 -0.178831 0)
(2.99413 -0.19725 0)
(3.00046 -0.233159 0)
(3.00543 -0.258666 0)
(3.0121 -0.257402 0)
(3.0289 -0.271721 0)
(3.04199 -0.297888 0)
(3.05515 -0.318987 0)
(3.00073 -0.00263458 0)
(2.99738 -0.0163498 0)
(2.99612 -0.0295165 0)
(2.9948 -0.0404827 0)
(2.99185 -0.0490403 0)
(2.99167 -0.0670115 0)
(2.99019 -0.0849654 0)
(2.98406 -0.0913616 0)
(2.98304 -0.106764 0)
(2.9835 -0.12738 0)
(2.97947 -0.153185 0)
(2.97832 -0.164862 0)
(2.97896 -0.186162 0)
(2.98493 -0.205498 0)
(2.98978 -0.238838 0)
(2.99669 -0.26029 0)
(3.00531 -0.277205 0)
(3.02245 -0.293077 0)
(3.04017 -0.315925 0)
(3.0565 -0.333956 0)
(3.00184 0.00294536 0)
(2.99322 -0.0217671 0)
(2.99601 -0.0227801 0)
(2.98927 -0.0427437 0)
(2.9922 -0.0441019 0)
(2.98857 -0.0660426 0)
(2.98403 -0.0771588 0)
(2.9804 -0.0907581 0)
(2.97765 -0.104423 0)
(2.9731 -0.123299 0)
(2.97069 -0.148563 0)
(2.96833 -0.169262 0)
(2.96632 -0.184868 0)
(2.96992 -0.207636 0)
(2.97664 -0.247513 0)
(2.9829 -0.27453 0)
(2.99288 -0.289225 0)
(3.01331 -0.311933 0)
(3.03413 -0.34149 0)
(3.05842 -0.35932 0)
(3.00324 0.011568 0)
(2.99046 -0.029128 0)
(2.99405 -0.0126532 0)
(2.98659 -0.0487518 0)
(2.99146 -0.0326776 0)
(2.98096 -0.0710356 0)
(2.98366 -0.0631763 0)
(2.97032 -0.0977378 0)
(2.97225 -0.0874401 0)
(2.9612 -0.130224 0)
(2.96254 -0.137853 0)
(2.95118 -0.168068 0)
(2.95092 -0.179449 0)
(2.95348 -0.220404 0)
(2.95507 -0.248577 0)
(2.96366 -0.279788 0)
(2.97162 -0.312157 0)
(3.00133 -0.340133 0)
(3.02144 -0.371155 0)
(3.05619 -0.385405 0)
(3.00758 0.0233182 0)
(2.98306 -0.042555 0)
(2.99823 0.00488333 0)
(2.97895 -0.0621533 0)
(2.99449 -0.0112391 0)
(2.97199 -0.0845969 0)
(2.9832 -0.0399387 0)
(2.95808 -0.107794 0)
(2.96811 -0.0672318 0)
(2.94645 -0.141816 0)
(2.95153 -0.11024 0)
(2.9298 -0.184791 0)
(2.93704 -0.160233 0)
(2.92386 -0.235729 0)
(2.93171 -0.236058 0)
(2.92968 -0.30843 0)
(2.94809 -0.318681 0)
(2.97094 -0.374271 0)
(3.00393 -0.408372 0)
(3.04893 -0.436052 0)
(3.01705 0.0398034 0)
(2.97311 -0.0595538 0)
(3.00704 0.0264665 0)
(2.96843 -0.0767669 0)
(3.00106 0.0136875 0)
(2.95948 -0.0998421 0)
(2.98629 -0.00681178 0)
(2.94214 -0.127312 0)
(2.96817 -0.0272939 0)
(2.92322 -0.162397 0)
(2.94644 -0.0668352 0)
(2.89827 -0.206117 0)
(2.92318 -0.114691 0)
(2.88057 -0.268313 0)
(2.90845 -0.194699 0)
(2.87485 -0.344189 0)
(2.91522 -0.303341 0)
(2.91411 -0.428013 0)
(2.96933 -0.435788 0)
(3.02339 -0.484774 0)
(3.03388 0.0495119 0)
(2.9571 -0.0722292 0)
(3.02486 0.0435135 0)
(2.95016 -0.0882016 0)
(3.01691 0.0360861 0)
(2.93607 -0.111278 0)
(3.00028 0.0199993 0)
(2.9131 -0.138398 0)
(2.97751 0.00199939 0)
(2.88801 -0.177755 0)
(2.94898 -0.0265217 0)
(2.85002 -0.231302 0)
(2.91923 -0.072068 0)
(2.81482 -0.305506 0)
(2.88923 -0.146661 0)
(2.7885 -0.414557 0)
(2.8847 -0.266558 0)
(2.80935 -0.537888 0)
(2.94342 -0.451553 0)
(2.93565 -0.595482 0)
(3.06882 0.0675377 0)
(2.92652 -0.0892642 0)
(3.06678 0.0690046 0)
(2.91588 -0.10411 0)
(3.05606 0.0688392 0)
(2.89633 -0.128072 0)
(3.03791 0.0637323 0)
(2.86491 -0.15791 0)
(3.01436 0.0561717 0)
(2.82813 -0.199526 0)
(2.97941 0.0435473 0)
(2.77669 -0.259953 0)
(2.93761 0.0143557 0)
(2.71806 -0.347063 0)
(2.88598 -0.041521 0)
(2.66245 -0.483915 0)
(2.84266 -0.1526 0)
(2.64797 -0.666417 0)
(2.90472 -0.395672 0)
(2.84058 -0.817646 0)
(3.12051 0.0469256 0)
(2.87115 -0.0591891 0)
(3.12565 0.0506342 0)
(2.8506 -0.068839 0)
(3.11592 0.0491623 0)
(2.81938 -0.0863209 0)
(3.0983 0.0465466 0)
(2.77454 -0.107144 0)
(3.07362 0.0385325 0)
(2.72077 -0.137322 0)
(3.03105 0.0306818 0)
(2.64854 -0.190644 0)
(2.97216 0.00738468 0)
(2.55934 -0.273437 0)
(2.88688 -0.0400416 0)
(2.46249 -0.432266 0)
(2.78782 -0.14296 0)
(2.40514 -0.734671 0)
(2.75059 -0.381942 0)
(2.46327 -1.11066 0)
(3.23532 0.0664916 0)
(2.7498 -0.0789145 0)
(3.26814 0.0803445 0)
(2.71109 -0.0919521 0)
(3.2859 0.0883323 0)
(2.66465 -0.112238 0)
(3.30379 0.103044 0)
(2.60253 -0.139223 0)
(3.32171 0.111706 0)
(2.52667 -0.174193 0)
(3.3345 0.127533 0)
(2.43006 -0.23814 0)
(3.34618 0.136009 0)
(2.30827 -0.3359 0)
(3.35844 0.132726 0)
(2.16053 -0.54376 0)
(3.37813 0.090145 0)
(2.06404 -0.995739 0)
(3.58168 -0.129371 0)
(2.8169 -2.20516 0)
(2.99668 -0.278893 0)
(2.9967 -0.28285 0)
(2.99893 -0.28105 0)
(3.0011 -0.281528 0)
(3.00132 -0.278155 0)
(3.00213 -0.275259 0)
(3.00137 -0.272896 0)
(3.00251 -0.26735 0)
(3.00188 -0.268807 0)
(3.00361 -0.261944 0)
(3.01699 -0.275172 0)
(3.01579 -0.27901 0)
(3.01242 -0.278679 0)
(3.00936 -0.279424 0)
(3.00825 -0.277673 0)
(3.00779 -0.275513 0)
(3.00823 -0.274587 0)
(3.00852 -0.270243 0)
(3.00927 -0.272492 0)
(3.00958 -0.267027 0)
(3.00801 -0.277134 0)
(3.00797 -0.28071 0)
(3.01159 -0.279983 0)
(3.01399 -0.280471 0)
(3.01584 -0.278483 0)
(3.01592 -0.276 0)
(3.01673 -0.274976 0)
(3.01608 -0.270128 0)
(3.01735 -0.272419 0)
(3.0164 -0.266227 0)
(3.02893 -0.275792 0)
(3.0291 -0.279365 0)
(3.02568 -0.27889 0)
(3.02361 -0.279705 0)
(3.02225 -0.277847 0)
(3.02243 -0.276191 0)
(3.02254 -0.275059 0)
(3.02304 -0.271699 0)
(3.02354 -0.273369 0)
(3.02349 -0.2691 0)
(3.01888 -0.276357 0)
(3.02043 -0.282294 0)
(3.02473 -0.283053 0)
(3.02936 -0.284427 0)
(3.03107 -0.282307 0)
(3.03255 -0.28059 0)
(3.03194 -0.278935 0)
(3.03242 -0.275604 0)
(3.03196 -0.276687 0)
(3.03267 -0.272489 0)
(3.02597 -0.27802 0)
(3.02841 -0.278483 0)
(3.03326 -0.276574 0)
(3.03818 -0.277479 0)
(3.04008 -0.276317 0)
(3.04173 -0.276444 0)
(3.04124 -0.275724 0)
(3.04187 -0.2744 0)
(3.04141 -0.275116 0)
(3.04228 -0.272954 0)
(3.04842 -0.280752 0)
(3.04975 -0.283526 0)
(3.04718 -0.282795 0)
(3.0465 -0.2841 0)
(3.04586 -0.282534 0)
(3.04779 -0.282309 0)
(3.04814 -0.280963 0)
(3.05063 -0.279338 0)
(3.05054 -0.279515 0)
(3.05284 -0.277069 0)
(3.04061 -0.286164 0)
(3.04253 -0.288669 0)
(3.04807 -0.288583 0)
(3.05261 -0.289539 0)
(3.05606 -0.28839 0)
(3.05826 -0.287914 0)
(3.06011 -0.286653 0)
(3.06164 -0.28511 0)
(3.06313 -0.284747 0)
(3.06461 -0.282687 0)
(3.0631 -0.296303 0)
(3.06516 -0.298251 0)
(3.06489 -0.297365 0)
(3.06465 -0.297305 0)
(3.06662 -0.29518 0)
(3.06854 -0.293453 0)
(3.07176 -0.291547 0)
(3.07366 -0.288736 0)
(3.07672 -0.288393 0)
(3.07785 -0.28493 0)
(3.05408 -0.303904 0)
(3.05839 -0.308709 0)
(3.06657 -0.309969 0)
(3.07364 -0.310842 0)
(3.07932 -0.30897 0)
(3.08288 -0.3075 0)
(3.08625 -0.305135 0)
(3.0883 -0.302909 0)
(3.09155 -0.301377 0)
(3.09326 -0.298738 0)
(3.05931 -0.3208 0)
(3.06632 -0.322251 0)
(3.07611 -0.32102 0)
(3.08638 -0.320571 0)
(3.09307 -0.3179 0)
(3.09877 -0.315944 0)
(3.10192 -0.313121 0)
(3.10537 -0.310284 0)
(3.1083 -0.308464 0)
(3.11145 -0.305047 0)
(3.06613 -0.336036 0)
(3.07473 -0.338078 0)
(3.08668 -0.337081 0)
(3.09825 -0.337853 0)
(3.10672 -0.335229 0)
(3.11348 -0.334947 0)
(3.11787 -0.331046 0)
(3.12225 -0.330013 0)
(3.12582 -0.325365 0)
(3.13019 -0.324081 0)
(3.06989 -0.360835 0)
(3.0817 -0.361489 0)
(3.09465 -0.36053 0)
(3.10981 -0.360129 0)
(3.1188 -0.357895 0)
(3.12987 -0.35612 0)
(3.13411 -0.352676 0)
(3.14303 -0.349441 0)
(3.14497 -0.345208 0)
(3.1538 -0.340803 0)
(3.07539 -0.389248 0)
(3.08839 -0.389821 0)
(3.10229 -0.389477 0)
(3.11828 -0.388744 0)
(3.13055 -0.386764 0)
(3.14305 -0.385603 0)
(3.15231 -0.382497 0)
(3.16215 -0.381526 0)
(3.17043 -0.377201 0)
(3.17858 -0.376568 0)
(3.07346 -0.438308 0)
(3.09087 -0.437166 0)
(3.10948 -0.432327 0)
(3.12808 -0.425656 0)
(3.14073 -0.415818 0)
(3.15246 -0.406247 0)
(3.15954 -0.394247 0)
(3.16811 -0.384155 0)
(3.174 -0.371675 0)
(3.18257 -0.362162 0)
(3.07152 -0.505532 0)
(3.10278 -0.510096 0)
(3.1348 -0.513151 0)
(3.16653 -0.513622 0)
(3.18781 -0.512827 0)
(3.20704 -0.51228 0)
(3.21718 -0.509119 0)
(3.22881 -0.508408 0)
(3.23417 -0.502224 0)
(3.24266 -0.501396 0)
(3.00054 -0.569354 0)
(3.03297 -0.534445 0)
(3.07065 -0.49978 0)
(3.09484 -0.456893 0)
(3.11776 -0.427078 0)
(3.1279 -0.392997 0)
(3.14459 -0.372114 0)
(3.15135 -0.344412 0)
(3.16957 -0.32925 0)
(3.17608 -0.305565 0)
(3.14693 -0.849727 0)
(3.24381 -0.837215 0)
(3.30817 -0.823473 0)
(3.31182 -0.809087 0)
(3.31358 -0.798303 0)
(3.28879 -0.785544 0)
(3.29013 -0.771957 0)
(3.26466 -0.7569 0)
(3.27176 -0.739165 0)
(3.24291 -0.723747 0)
(2.9446 -0.691409 0)
(3.06805 -0.462944 0)
(3.10993 -0.336585 0)
(3.10349 -0.245183 0)
(3.11391 -0.207361 0)
(3.10756 -0.147203 0)
(3.12833 -0.131991 0)
(3.1177 -0.0812471 0)
(3.13601 -0.0888513 0)
(3.11164 -0.04541 0)
(3.94005 -1.78172 0)
(3.81543 -1.57191 0)
(3.38776 -1.40191 0)
(3.06355 -1.28663 0)
(2.88199 -1.17669 0)
(2.74053 -1.09353 0)
(2.62281 -0.99925 0)
(2.4786 -0.940209 0)
(2.36591 -0.864667 0)
(2.21858 -0.835106 0)
(3.00133 -0.297119 0)
(3.01506 -0.330549 0)
(2.99785 -0.379177 0)
(2.97044 -0.475693 0)
(2.96132 -0.593056 0)
(2.91387 -0.730694 0)
(2.8031 -0.957263 0)
(2.60712 -1.26418 0)
(2.287 -1.53153 0)
(1.87083 -1.66484 0)
(1.43634 -1.65475 0)
(1.04654 -1.53734 0)
(0.732003 -1.3553 0)
(0.496904 -1.14568 0)
(0.330261 -0.935269 0)
(0.217082 -0.738752 0)
(0.143303 -0.561152 0)
(0.0962682 -0.400324 0)
(0.069187 -0.252445 0)
(0.0532618 -0.0948913 0)
(3.01427 -0.300881 0)
(3.01519 -0.329948 0)
(2.97809 -0.362984 0)
(2.96898 -0.462376 0)
(2.92884 -0.575484 0)
(2.80929 -0.679676 0)
(2.67538 -0.854924 0)
(2.49517 -1.08366 0)
(2.21187 -1.26358 0)
(1.86123 -1.35042 0)
(1.50286 -1.35146 0)
(1.17217 -1.28256 0)
(0.887294 -1.1615 0)
(0.65704 -1.00835 0)
(0.478873 -0.842492 0)
(0.345138 -0.678147 0)
(0.248781 -0.52266 0)
(0.181411 -0.37694 0)
(0.140375 -0.239568 0)
(0.115202 -0.0906045 0)
(3.02605 -0.301454 0)
(3.00006 -0.317054 0)
(2.98409 -0.357587 0)
(2.97926 -0.453963 0)
(2.89268 -0.533256 0)
(2.78993 -0.62899 0)
(2.69298 -0.819107 0)
(2.4946 -1.063 0)
(2.18153 -1.26553 0)
(1.81815 -1.36835 0)
(1.45433 -1.36353 0)
(1.12545 -1.27402 0)
(0.851399 -1.13307 0)
(0.639021 -0.969776 0)
(0.48324 -0.803249 0)
(0.370264 -0.64365 0)
(0.28831 -0.495147 0)
(0.228864 -0.357084 0)
(0.19221 -0.227469 0)
(0.17053 -0.0863229 0)
(3.02905 -0.296948 0)
(3.0013 -0.312643 0)
(2.99724 -0.353441 0)
(2.97072 -0.423717 0)
(2.87596 -0.495672 0)
(2.75731 -0.597999 0)
(2.60033 -0.746228 0)
(2.37238 -0.89933 0)
(2.10072 -1.01676 0)
(1.81969 -1.08292 0)
(1.53649 -1.09736 0)
(1.25844 -1.06253 0)
(0.998997 -0.98245 0)
(0.770806 -0.867534 0)
(0.586198 -0.734816 0)
(0.448175 -0.597686 0)
(0.350418 -0.46398 0)
(0.282624 -0.336507 0)
(0.242597 -0.215972 0)
(0.220873 -0.0827116 0)
(3.03458 -0.296544 0)
(3.01309 -0.30581 0)
(3.00748 -0.343755 0)
(2.96296 -0.404482 0)
(2.85167 -0.451828 0)
(2.73595 -0.523154 0)
(2.61449 -0.664664 0)
(2.41458 -0.854293 0)
(2.12217 -1.02232 0)
(1.79115 -1.11173 0)
(1.46874 -1.1092 0)
(1.18177 -1.03755 0)
(0.947655 -0.929045 0)
(0.762194 -0.805659 0)
(0.611842 -0.678356 0)
(0.490735 -0.552668 0)
(0.397881 -0.431063 0)
(0.329938 -0.314313 0)
(0.288651 -0.203695 0)
(0.266306 -0.0789699 0)
(3.04349 -0.289091 0)
(3.0269 -0.301619 0)
(3.01614 -0.32958 0)
(2.95332 -0.357184 0)
(2.84998 -0.401698 0)
(2.74424 -0.495949 0)
(2.55892 -0.610932 0)
(2.28277 -0.709922 0)
(2.01358 -0.794633 0)
(1.78463 -0.857486 0)
(1.56211 -0.885066 0)
(1.31883 -0.871383 0)
(1.06881 -0.814216 0)
(0.848129 -0.725638 0)
(0.673751 -0.619824 0)
(0.541716 -0.508537 0)
(0.444282 -0.398427 0)
(0.373932 -0.291797 0)
(0.330887 -0.191026 0)
(0.307279 -0.0750626 0)
(3.05071 -0.290575 0)
(3.04772 -0.297304 0)
(3.03313 -0.310906 0)
(2.94328 -0.332011 0)
(2.83724 -0.369909 0)
(2.73654 -0.418312 0)
(2.56751 -0.495826 0)
(2.327 -0.632692 0)
(2.05256 -0.79345 0)
(1.75899 -0.891146 0)
(1.47469 -0.891281 0)
(1.23393 -0.829361 0)
(1.03419 -0.745995 0)
(0.858906 -0.655387 0)
(0.706694 -0.560488 0)
(0.581601 -0.462647 0)
(0.484987 -0.364621 0)
(0.413714 -0.268492 0)
(0.36922 -0.17771 0)
(0.344071 -0.0708384 0)
(3.07045 -0.288447 0)
(3.07162 -0.295149 0)
(3.02438 -0.287284 0)
(2.94303 -0.280884 0)
(2.87562 -0.31691 0)
(2.74682 -0.376289 0)
(2.50793 -0.439616 0)
(2.26045 -0.519812 0)
(2.05526 -0.60431 0)
(1.85595 -0.667274 0)
(1.62391 -0.701014 0)
(1.36253 -0.695912 0)
(1.11535 -0.653598 0)
(0.910267 -0.585483 0)
(0.747321 -0.504201 0)
(0.619506 -0.417959 0)
(0.521859 -0.33084 0)
(0.449605 -0.244784 0)
(0.403759 -0.163787 0)
(0.37694 -0.0662358 0)
(3.09232 -0.294362 0)
(3.08027 -0.281971 0)
(3.0362 -0.25027 0)
(2.98593 -0.260661 0)
(2.87536 -0.29458 0)
(2.69197 -0.287971 0)
(2.51793 -0.307357 0)
(2.36005 -0.430115 0)
(2.12541 -0.591161 0)
(1.81678 -0.679076 0)
(1.5296 -0.674775 0)
(1.29916 -0.630843 0)
(1.10252 -0.575813 0)
(0.927029 -0.514878 0)
(0.77565 -0.446552 0)
(0.651312 -0.372733 0)
(0.55423 -0.296723 0)
(0.481537 -0.220677 0)
(0.434569 -0.149256 0)
(0.406095 -0.0612167 0)
(3.11154 -0.29658 0)
(3.09725 -0.274511 0)
(3.05918 -0.244241 0)
(3.01934 -0.219346 0)
(2.8989 -0.206368 0)
(2.67656 -0.235322 0)
(2.4775 -0.314219 0)
(2.33745 -0.389579 0)
(2.17578 -0.430708 0)
(1.94726 -0.466153 0)
(1.66557 -0.503407 0)
(1.38611 -0.51456 0)
(1.14963 -0.492805 0)
(0.958304 -0.448071 0)
(0.803699 -0.39123 0)
(0.679526 -0.328277 0)
(0.582624 -0.262663 0)
(0.509652 -0.196321 0)
(0.461749 -0.134171 0)
(0.431716 -0.0557695 0)
(3.13036 -0.303517 0)
(3.10631 -0.268481 0)
(3.11904 -0.207446 0)
(3.07091 -0.177372 0)
(2.86212 -0.147015 0)
(2.63795 -0.113657 0)
(2.50654 -0.158868 0)
(2.34775 -0.27962 0)
(2.07524 -0.39424 0)
(1.77752 -0.445827 0)
(1.5315 -0.44958 0)
(1.32622 -0.43676 0)
(1.13943 -0.414707 0)
(0.970396 -0.380823 0)
(0.824095 -0.335955 0)
(0.70289 -0.284053 0)
(0.606928 -0.228646 0)
(0.534005 -0.171791 0)
(0.485393 -0.118593 0)
(0.453955 -0.0499036 0)
(3.15076 -0.300048 0)
(3.15775 -0.272945 0)
(3.1479 -0.233719 0)
(3.08095 -0.130735 0)
(2.9132 -0.0532992 0)
(2.69206 -0.109757 0)
(2.46089 -0.216258 0)
(2.23598 -0.247318 0)
(2.02479 -0.242923 0)
(1.81082 -0.274693 0)
(1.58541 -0.320993 0)
(1.36259 -0.345108 0)
(1.16142 -0.340985 0)
(0.988058 -0.317575 0)
(0.842376 -0.282528 0)
(0.722579 -0.240562 0)
(0.627441 -0.194839 0)
(0.55472 -0.147187 0)
(0.505603 -0.102597 0)
(0.472946 -0.0436548 0)
(3.16016 -0.318813 0)
(3.20262 -0.259829 0)
(3.22188 -0.140541 0)
(3.04471 -0.0571495 0)
(2.90252 0.0147357 0)
(2.79757 0.0709328 0)
(2.48501 0.0369881 0)
(2.08308 -0.0783806 0)
(1.80041 -0.191448 0)
(1.62284 -0.251557 0)
(1.47406 -0.273001 0)
(1.3167 -0.277175 0)
(1.15169 -0.271565 0)
(0.9943 -0.255519 0)
(0.855088 -0.229963 0)
(0.738086 -0.197646 0)
(0.644183 -0.161282 0)
(0.571885 -0.122582 0)
(0.522475 -0.0862678 0)
(0.488803 -0.0370827 0)
(3.21617 -0.346979 0)
(3.20335 -0.330457 0)
(3.26558 -0.18319 0)
(3.19004 -0.0131897 0)
(2.93546 0.0324755 0)
(2.67766 0.041402 0)
(2.49793 0.0543946 0)
(2.35643 0.00841798 0)
(2.14959 -0.0855184 0)
(1.87495 -0.162485 0)
(1.60196 -0.196493 0)
(1.36651 -0.206914 0)
(1.17001 -0.20563 0)
(1.00477 -0.195989 0)
(0.865673 -0.178779 0)
(0.750175 -0.155457 0)
(0.657379 -0.128056 0)
(0.585614 -0.0980484 0)
(0.536098 -0.0696921 0)
(0.501632 -0.0302538 0)
(3.21766 -0.302306 0)
(3.25448 -0.248704 0)
(3.29163 -0.0846001 0)
(3.23844 0.0941549 0)
(2.99401 0.221656 0)
(2.66288 0.250758 0)
(2.43129 0.176939 0)
(2.25169 0.0771167 0)
(2.02838 0.0202717 0)
(1.78026 -0.0168358 0)
(1.54877 -0.0642313 0)
(1.34379 -0.10577 0)
(1.16374 -0.129038 0)
(1.00658 -0.134516 0)
(0.871617 -0.12792 0)
(0.758502 -0.11383 0)
(0.66707 -0.0951821 0)
(0.595994 -0.0736451 0)
(0.546554 -0.0529578 0)
(0.511526 -0.0232311 0)
(3.25757 -0.453045 0)
(3.28455 -0.420959 0)
(3.40666 -0.182111 0)
(3.24994 0.0986095 0)
(2.92377 0.236588 0)
(2.66294 0.241415 0)
(2.40445 0.203345 0)
(2.08489 0.15542 0)
(1.81273 0.0890012 0)
(1.62346 0.0193641 0)
(1.46644 -0.0305686 0)
(1.3091 -0.05728 0)
(1.15156 -0.0719119 0)
(1.00426 -0.0790491 0)
(0.873958 -0.0791018 0)
(0.763367 -0.0730998 0)
(0.673396 -0.0627515 0)
(0.603121 -0.0494333 0)
(0.553919 -0.0361519 0)
(0.518568 -0.0160761 0)
(3.27823 -0.255097 0)
(3.28289 -0.258124 0)
(3.4236 -0.0136433 0)
(3.30732 0.306706 0)
(2.97469 0.442695 0)
(2.71427 0.451013 0)
(2.53713 0.419572 0)
(2.38174 0.333582 0)
(2.1794 0.220834 0)
(1.89818 0.128353 0)
(1.60372 0.0675117 0)
(1.35691 0.0260546 0)
(1.16237 -0.00287598 0)
(1.00515 -0.0211841 0)
(0.874306 -0.0305036 0)
(0.76516 -0.032945 0)
(0.676507 -0.0307436 0)
(0.607087 -0.0254516 0)
(0.558264 -0.0193571 0)
(0.522826 -0.00884995 0)
(3.28426 -0.627855 0)
(3.18611 -0.555124 0)
(3.23261 -0.171943 0)
(3.22902 0.293111 0)
(2.78221 0.476335 0)
(2.34656 0.420399 0)
(2.16138 0.346021 0)
(2.06652 0.299873 0)
(1.91187 0.27354 0)
(1.69465 0.238097 0)
(1.48052 0.179564 0)
(1.29628 0.115616 0)
(1.13599 0.0665058 0)
(0.993941 0.0353415 0)
(0.869484 0.0169257 0)
(0.76338 0.00643011 0)
(0.676394 0.000780153 0)
(0.607952 -0.00174309 0)
(0.559646 -0.00265035 0)
(0.524358 -0.00161114 0)
(3.19075 -0.19912 0)
(2.86244 -0.219201 0)
(2.678 0.00460221 0)
(2.94607 0.455843 0)
(2.82225 0.730179 0)
(2.46013 0.658304 0)
(2.13405 0.515915 0)
(1.87135 0.420655 0)
(1.67626 0.36369 0)
(1.52632 0.3025 0)
(1.39259 0.232147 0)
(1.25609 0.168337 0)
(1.11658 0.12018 0)
(0.982981 0.0862083 0)
(0.862547 0.0622327 0)
(0.758758 0.0448165 0)
(0.673265 0.0317474 0)
(0.605807 0.0216372 0)
(0.558124 0.013879 0)
(0.52321 0.00557941 0)
(1.78017 -0.551462 0)
(1.10395 -0.314932 0)
(0.775936 -0.132754 0)
(1.66284 0.269869 0)
(2.15099 0.68085 0)
(2.18145 0.700557 0)
(2.03983 0.607422 0)
(1.8211 0.504292 0)
(1.63752 0.425605 0)
(1.49921 0.354751 0)
(1.37208 0.285415 0)
(1.23821 0.224068 0)
(1.10143 0.174903 0)
(0.970941 0.136812 0)
(0.853143 0.106874 0)
(0.751289 0.0825987 0)
(0.667185 0.062255 0)
(0.600711 0.0447038 0)
(0.553744 0.030167 0)
(0.519417 0.0126692 0)
(0.626369 -0.0294106 0)
(-0.0872368 -0.0142497 0)
(-0.598741 -0.178847 0)
(0.809712 0.0368706 0)
(1.6214 0.570229 0)
(1.88798 0.67018 0)
(1.90858 0.635884 0)
(1.77455 0.548833 0)
(1.62605 0.465536 0)
(1.49388 0.389614 0)
(1.36333 0.319659 0)
(1.22707 0.258969 0)
(1.09058 0.209078 0)
(0.961516 0.168527 0)
(0.845175 0.134969 0)
(0.744481 0.106446 0)
(0.66127 0.081547 0)
(0.595469 0.0592956 0)
(0.549054 0.0404512 0)
(0.515267 0.0171153 0)
(0.389562 -0.243185 0)
(-0.413609 0.0131749 0)
(-1.21404 -0.23892 0)
(0.468415 -0.105445 0)
(1.37926 0.505897 0)
(1.7454 0.646896 0)
(1.84269 0.642346 0)
(1.75149 0.565107 0)
(1.6212 0.481804 0)
(1.49192 0.404723 0)
(1.35948 0.334934 0)
(1.22201 0.274566 0)
(1.08561 0.224251 0)
(0.957156 0.182548 0)
(0.841445 0.147373 0)
(0.741253 0.116967 0)
(0.65843 0.0900631 0)
(0.592923 0.0657336 0)
(0.546754 0.0449965 0)
(0.513216 0.0190658 0)
(0.196693 -0.0990535 0)
(-0.757226 0.148525 0)
(-1.6462 -0.281643 0)
(0.126696 -0.261597 0)
(1.13422 0.427403 0)
(1.59368 0.612416 0)
(1.77009 0.640591 0)
(1.72551 0.576599 0)
(1.61545 0.496216 0)
(1.48952 0.41961 0)
(1.35533 0.350429 0)
(1.21674 0.290269 0)
(1.08049 0.239387 0)
(0.952642 0.196486 0)
(0.837539 0.159698 0)
(0.737825 0.127424 0)
(0.655374 0.0985324 0)
(0.590154 0.072134 0)
(0.544233 0.0495143 0)
(0.510956 0.020997 0)
(0.0598731 -0.129437 0)
(-1.02242 0.241131 0)
(-1.75013 -0.328887 0)
(-0.396343 -0.428211 0)
(0.887307 0.334188 0)
(1.43553 0.567174 0)
(1.69193 0.630511 0)
(1.69618 0.583489 0)
(1.60777 0.509062 0)
(1.48593 0.434414 0)
(1.35052 0.366103 0)
(1.21117 0.306015 0)
(1.07519 0.254467 0)
(0.947972 0.210348 0)
(0.833453 0.171959 0)
(0.734193 0.137833 0)
(0.652099 0.106965 0)
(0.58716 0.0785051 0)
(0.541488 0.0540023 0)
(0.508484 0.0229114 0)
(-0.0512195 -0.0267228 0)
(-1.20285 0.338744 0)
(-1.64162 -0.347132 0)
(-1.14743 -0.573091 0)
(0.659552 0.2197 0)
(1.27489 0.513137 0)
(1.60952 0.612883 0)
(1.66319 0.586224 0)
(1.59727 0.520446 0)
(1.48051 0.449036 0)
(1.34479 0.381846 0)
(1.20522 0.32176 0)
(1.0697 0.269486 0)
(0.943142 0.22414 0)
(0.829184 0.184163 0)
(0.730354 0.148198 0)
(0.648602 0.115362 0)
(0.583938 0.0848475 0)
(0.538518 0.058459 0)
(0.505799 0.024808 0)
(-0.110755 0.0228764 0)
(-1.29428 0.427137 0)
(-1.54711 -0.325647 0)
(-1.76933 -0.693616 0)
(0.485761 0.0666976 0)
(1.11819 0.452697 0)
(1.52431 0.588358 0)
(1.62634 0.585016 0)
(1.58325 0.530287 0)
(1.47279 0.463324 0)
(1.33795 0.397563 0)
(1.19882 0.337464 0)
(1.06402 0.284433 0)
(0.938149 0.237864 0)
(0.82473 0.196313 0)
(0.726304 0.158521 0)
(0.644879 0.123724 0)
(0.580487 0.0911606 0)
(0.535322 0.0628836 0)
(0.502902 0.0266853 0)
(-0.135062 0.118438 0)
(-1.32364 0.505563 0)
(-1.4557 -0.285011 0)
(-1.90641 -0.810408 0)
(0.326968 -0.1082 0)
(0.970898 0.387953 0)
(1.43756 0.557357 0)
(1.58534 0.579793 0)
(1.5651 0.538371 0)
(1.46242 0.477091 0)
(1.32988 0.413138 0)
(1.19196 0.353073 0)
(1.05813 0.299291 0)
(0.932992 0.251515 0)
(0.820089 0.208409 0)
(0.722043 0.168803 0)
(0.640931 0.132053 0)
(0.576806 0.0974442 0)
(0.5319 0.0672753 0)
(0.499791 0.0285423 0)
(-0.121052 0.198381 0)
(-1.29051 0.572437 0)
(-1.23557 -0.249139 0)
(-1.65878 -0.911202 0)
(0.0972193 -0.268927 0)
(0.83202 0.318801 0)
(1.35019 0.520508 0)
(1.54055 0.570857 0)
(1.54286 0.544723 0)
(1.44937 0.490219 0)
(1.32058 0.428453 0)
(1.18465 0.368526 0)
(1.05204 0.31404 0)
(0.927671 0.265094 0)
(0.81526 0.220455 0)
(0.71757 0.179046 0)
(0.636757 0.140348 0)
(0.572895 0.103698 0)
(0.528253 0.0716332 0)
(0.496466 0.030378 0)
(-0.0872272 0.259285 0)
(-1.19708 0.633662 0)
(-0.891428 -0.225836 0)
(-1.31798 -0.972327 0)
(-0.195319 -0.402642 0)
(0.702225 0.242041 0)
(1.26202 0.47818 0)
(1.49067 0.558062 0)
(1.51561 0.549028 0)
(1.43334 0.502454 0)
(1.31001 0.443365 0)
(1.17689 0.383764 0)
(1.04577 0.328667 0)
(0.92219 0.278601 0)
(0.810244 0.232455 0)
(0.712884 0.189253 0)
(0.632357 0.148612 0)
(0.568754 0.109922 0)
(0.524379 0.0759566 0)
(0.492927 0.0321915 0)
(0.0074226 0.353261 0)
(-1.04131 0.664569 0)
(-0.50222 -0.211786 0)
(-0.973121 -0.988565 0)
(-0.434055 -0.509376 0)
(0.582293 0.155951 0)
(1.17531 0.432073 0)
(1.43878 0.542538 0)
(1.48548 0.551635 0)
(1.41531 0.513692 0)
(1.29851 0.45771 0)
(1.16879 0.398704 0)
(1.03933 0.343145 0)
(0.916547 0.292031 0)
(0.805037 0.244408 0)
(0.707987 0.199426 0)
(0.627733 0.156845 0)
(0.564385 0.116119 0)
(0.52028 0.0802442 0)
(0.489172 0.0339828 0)
(0.0298287 0.341327 0)
(-0.765694 0.725559 0)
(0.170498 -0.244545 0)
(-0.340439 -0.953182 0)
(-0.57955 -0.638149 0)
(0.406016 -0.00407651 0)
(1.02304 0.346747 0)
(1.33754 0.509303 0)
(1.42435 0.551608 0)
(1.37974 0.530395 0)
(1.27725 0.480793 0)
(1.15461 0.423292 0)
(1.02831 0.367196 0)
(0.906898 0.314441 0)
(0.796067 0.264396 0)
(0.699475 0.216455 0)
(0.619636 0.170623 0)
(0.556698 0.126486 0)
(0.513044 0.087361 0)
(0.482525 0.0369453 0)
(1.30796 0.460767 0)
(0.0444406 0.616001 0)
(1.07562 -0.284485 0)
(0.716376 -0.786684 0)
(-0.175202 -0.661394 0)
(0.248253 -0.2087 0)
(0.838797 0.220952 0)
(1.18721 0.452283 0)
(1.32388 0.541452 0)
(1.32062 0.546145 0)
(1.24372 0.508483 0)
(1.13354 0.45548 0)
(1.01224 0.399985 0)
(0.892604 0.345512 0)
(0.782464 0.292266 0)
(0.686337 0.240227 0)
(0.606998 0.189808 0)
(0.54461 0.14089 0)
(0.501617 0.0971112 0)
(0.471989 0.0409509 0)
(2.47134 0.998346 0)
(1.13635 0.755414 0)
(1.78684 -0.374647 0)
(1.39383 -0.659764 0)
(0.726674 -0.512712 0)
(0.326944 -0.285617 0)
(0.72416 0.0973328 0)
(1.06987 0.380204 0)
(1.24099 0.515563 0)
(1.27099 0.551283 0)
(1.2146 0.530874 0)
(1.11403 0.485526 0)
(0.996304 0.432014 0)
(0.877705 0.376324 0)
(0.76787 0.320013 0)
(0.672012 0.263882 0)
(0.593088 0.208846 0)
(0.531224 0.155125 0)
(0.488919 0.106629 0)
(0.460239 0.0447859 0)
(3.13506 1.07398 0)
(2.24231 0.849224 0)
(2.61624 -0.29711 0)
(1.89171 -0.544146 0)
(1.42111 -0.367698 0)
(0.746416 -0.215931 0)
(0.719036 0.0266572 0)
(0.988458 0.318739 0)
(1.16869 0.491173 0)
(1.22329 0.554474 0)
(1.18593 0.550663 0)
(1.09486 0.513923 0)
(0.980273 0.4634 0)
(0.862192 0.406974 0)
(0.75229 0.347709 0)
(0.656499 0.28746 0)
(0.577902 0.227759 0)
(0.516536 0.1692 0)
(0.47494 0.11591 0)
(0.447259 0.0484431 0)
(3.35452 1.09596 0)
(3.0182 0.908555 0)
(3.12593 -0.205623 0)
(2.40449 -0.396141 0)
(1.98391 -0.206969 0)
(1.33311 -0.0821068 0)
(0.919903 0.0315725 0)
(0.994562 0.260557 0)
(1.14483 0.451207 0)
(1.20386 0.545708 0)
(1.17109 0.565274 0)
(1.0809 0.540948 0)
(0.965484 0.494666 0)
(0.846347 0.437732 0)
(0.735764 0.37547 0)
(0.639792 0.311009 0)
(0.561428 0.246564 0)
(0.500534 0.183118 0)
(0.459669 0.124946 0)
(0.43303 0.0519162 0)
(3.3225 1.01819 0)
(3.4322 0.91222 0)
(3.42068 -0.0761444 0)
(2.67482 -0.280278 0)
(2.32507 -0.0827363 0)
(1.79929 0.0653712 0)
(1.21259 0.117978 0)
(1.05306 0.261978 0)
(1.12754 0.440395 0)
(1.17913 0.549896 0)
(1.15234 0.583753 0)
(1.06578 0.568562 0)
(0.950294 0.526097 0)
(0.82983 0.468701 0)
(0.718213 0.403366 0)
(0.621856 0.334567 0)
(0.543645 0.265274 0)
(0.483204 0.19688 0)
(0.44309 0.133728 0)
(0.417527 0.0552015 0)
(3.22056 0.909923 0)
(3.57564 0.870092 0)
(3.53955 0.0526961 0)
(2.87153 -0.154306 0)
(2.53907 0.0271696 0)
(2.12388 0.218801 0)