x,y,z,p
0,0,0,0.000145315
0,0.1,0,0.0003125
0,0.2,0,0.000479684
0,0.3,0,0.000675523
0,0.4,0,0.000900015
0,0.5,0,0.00112451
0,0.6,0,0.0013474
0,0.7,0,0.00157029
0,0.8,0,0.00179199
0,0.9,0,0.00201249
0,1,0,0.002233
0,1.1,0,0.00245035
0,1.2,0,0.0026677
0,1.3,0,0.00288308
0,1.4,0,0.00309649
0,1.5,0,0.00330991
0,1.6,0,0.00351862
0,1.7,0,0.00372732
0,1.8,0,0.00393328
0,1.9,0,0.0041365
0,2,0,0.00433971
0,2.1,0,0.00453664
0,2.2,0,0.00473358
0,2.3,0,0.00492698
0,2.4,0,0.00511684
0,2.5,0,0.0053067
0,2.6,0,0.0054887
0,2.7,0,0.0056707
0,2.8,0,0.00584838
0,2.9,0,0.00602173
0,3,0,0.00619508
0,3.1,0,0.00635901
0,3.2,0,0.00652294
0,3.3,0,0.00668177
0,3.4,0,0.00683552
0,3.5,0,0.00698926
0,3.6,0,0.00713209
0,3.7,0,0.00727492
0,3.8,0,0.00741195
0,3.9,0,0.00754317
0,4,0,0.00767439
0,4.1,0,0.00779335
0,4.2,0,0.00791231
0,4.3,0,0.00802484
0,4.4,0,0.00813093
0,4.5,0,0.00823703
0,4.6,0,0.00832973
0,4.7,0,0.00842243
0,4.8,0,0.00850651
0,4.9,0,0.00858196
0,5,0,0.0086574
0,5.1,0,0.00872774
0,5.2,0,0.00879809
0,5.3,0,0.0088525
0,5.4,0,0.00890692
0,5.5,0,0.00894954
0,5.6,0,0.00899215
0,5.7,0,0.00902287
0,5.8,0,0.00905357
0,5.9,0,0.00907231
0,6,0,0.00909104
0,6.1,0,0.00909778
0,6.2,0,0.00910452
0,6.3,0,0.00909928
0,6.4,0,0.00909405
0,6.5,0,0.00907693
0,6.6,0,0.00905981
0,6.7,0,0.0090309
0,6.8,0,0.00900199
0,6.9,0,0.00895681
0,7,0,0.00891162
0,7.1,0,0.00886062
0,7.2,0,0.00880962
0,7.3,0,0.00875579
0,7.4,0,0.0086859
0,7.5,0,0.00861601
0,7.6,0,0.00854161
0,7.7,0,0.00845667
0,7.8,0,0.00837174
0,7.9,0,0.00828035
0,8,0,0.00818109
0,8.1,0,0.00808182
0,8.2,0,0.00797444
0,8.3,0,0.00786163
0,8.4,0,0.00774884
0,8.5,0,0.00762653
0,8.6,0,0.00750105
0,8.7,0,0.00737558
0,8.8,0,0.0072395
0,8.9,0,0.00710225
0,9,0,0.00696446
0,9.1,0,0.00681636
0,9.2,0,0.00666826
0,9.3,0,0.00651817
0,9.4,0,0.00636015
0,9.5,0,0.00620214
0,9.6,0,0.00604098
0,9.7,0,0.00587398
0,9.8,0,0.00570697
0,9.9,0,0.00553594
0,10,0,0.00536088
0,10.1,0,0.00518582
0,10.2,0,0.0050061
0,10.3,0,0.00482387
0,10.4,0,0.00464164
0,10.5,0,0.00445438
0,10.6,0,0.00426586
0,10.7,0,0.00407735
0,10.8,0,0.00388366
0,10.9,0,0.0036897
0,11,0,0.00349528
0,11.1,0,0.00329671
0,11.2,0,0.00309813
0,11.3,0,0.0028986
0,11.4,0,0.00269621
0,11.5,0,0.00249381
0,11.6,0,0.0022902
0,11.7,0,0.00208476
0,11.8,0,0.00187932
0,11.9,0,0.00167263
0,12,0,0.00146491
0,12.1,0,0.00125719
0,12.2,0,0.0010484
0,12.3,0,0.000839161
0,12.4,0,0.000629918
0,12.5,0,0.000465879
0,12.6,0,0.000309817
0,12.7,0,0.000153754
0.1,0,0,0.000113023
0.1,0.1,0,0.000280328
0.1,0.2,0,0.000450797
0.1,0.3,0,0.000675891
0.1,0.4,0,0.000900349
0.1,0.5,0,0.00112584
0.1,0.6,0,0.00134795
0.1,0.7,0,0.00157099
0.1,0.8,0,0.00179288
0.1,0.9,0,0.00201326
0.1,1,0,0.00223561
0.1,1.1,0,0.00245133
0.1,1.2,0,0.00266891
0.1,1.3,0,0.00288448
0.1,1.4,0,0.00309769
0.1,1.5,0,0.00331377
0.1,1.6,0,0.00352003
0.1,1.7,0,0.00372904
0.1,1.8,0,0.0039352
0.1,1.9,0,0.00413813
0.1,2,0,0.0043448
0.1,2.1,0,0.0045385
0.1,2.2,0,0.00473582
0.1,2.3,0,0.00492941
0.1,2.4,0,0.00511891
0.1,2.5,0,0.005313
0.1,2.6,0,0.00549099
0.1,2.7,0,0.00567345
0.1,2.8,0,0.00585133
0.1,2.9,0,0.00602424
0.1,3,0,0.00620257
0.1,3.1,0,0.00636173
0.1,3.2,0,0.0065262
0.1,3.3,0,0.00668522
0.1,3.4,0,0.00683845
0.1,3.5,0,0.00699791
0.1,3.6,0,0.00713522
0.1,3.7,0,0.00727866
0.1,3.8,0,0.00741585
0.1,3.9,0,0.00754649
0.1,4,0,0.00768413
0.1,4.1,0,0.00779684
0.1,4.2,0,0.00791648
0.1,4.3,0,0.00802915
0.1,4.4,0,0.00813459
0.1,4.5,0,0.00824773
0.1,4.6,0,0.00833352
0.1,4.7,0,0.00842695
0.1,4.8,0,0.00851284
0.1,4.9,0,0.00858775
0.1,5,0,0.00866881
0.1,5.1,0,0.00873221
0.1,5.2,0,0.00880973
0.1,5.3,0,0.00885511
0.1,5.4,0,0.00891873
0.1,5.5,0,0.00895217
0.1,5.6,0,0.00900409
0.1,5.7,0,0.00902552
0.1,5.8,0,0.00906559
0.1,5.9,0,0.00907498
0.1,6,0,0.00910308
0.1,6.1,0,0.00910045
0.1,6.2,0,0.00911652
0.1,6.3,0,0.00910193
0.1,6.4,0,0.00910598
0.1,6.5,0,0.00907956
0.1,6.6,0,0.0090716
0.1,6.7,0,0.0090335
0.1,6.8,0,0.00901362
0.1,6.9,0,0.00896144
0.1,7,0,0.008923
0.1,7.1,0,0.00886771
0.1,7.2,0,0.00881672
0.1,7.3,0,0.00876539
0.1,7.4,0,0.00869077
0.1,7.5,0,0.00862088
0.1,7.6,0,0.00854939
0.1,7.7,0,0.00846133
0.1,7.8,0,0.00837711
0.1,7.9,0,0.00828641
0.1,8,0,0.00818551
0.1,8.1,0,0.00808811
0.1,8.2,0,0.00797887
0.1,8.3,0,0.00786579
0.1,8.4,0,0.00775587
0.1,8.5,0,0.0076304
0.1,8.6,0,0.00750493
0.1,8.7,0,0.00738317
0.1,8.8,0,0.00724309
0.1,8.9,0,0.00710584
0.1,9,0,0.00697178
0.1,9.1,0,0.00681965
0.1,9.2,0,0.00667155
0.1,9.3,0,0.00652393
0.1,9.4,0,0.00636315
0.1,9.5,0,0.00620513
0.1,9.6,0,0.00604533
0.1,9.7,0,0.00587667
0.1,9.8,0,0.00571032
0.1,9.9,0,0.00553906
0.1,10,0,0.00536329
0.1,10.1,0,0.00518946
0.1,10.2,0,0.00500823
0.1,10.3,0,0.004826
0.1,10.4,0,0.00464542
0.1,10.5,0,0.00445624
0.1,10.6,0,0.00426772
0.1,10.7,0,0.00408112
0.1,10.8,0,0.00388525
0.1,10.9,0,0.00369129
0.1,11,0,0.00349831
0.1,11.1,0,0.00329804
0.1,11.2,0,0.00309946
0.1,11.3,0,0.00290071
0.1,11.4,0,0.00269729
0.1,11.5,0,0.00249496
0.1,11.6,0,0.00229155
0.1,11.7,0,0.0020856
0.1,11.8,0,0.0018804
0.1,11.9,0,0.00167337
0.1,12,0,0.00146551
0.1,12.1,0,0.00125806
0.1,12.2,0,0.00104876
0.1,12.3,0,0.000839522
0.1,12.4,0,0.000630433
0.1,12.5,0,0.000431837
0.1,12.6,0,0.000275775
0.1,12.7,0,0.000119587
0.2,0,0,8.07305e-05
0.2,0.1,0,0.000248132
0.2,0.2,0,0.000451475
0.2,0.3,0,0.000676569
0.2,0.4,0,0.000900883
0.2,0.5,0,0.00112717
0.2,0.6,0,0.00134866
0.2,0.7,0,0.00157296
0.2,0.8,0,0.00179485
0.2,0.9,0,0.0020144
0.2,1,0,0.00223822
0.2,1.1,0,0.00245264
0.2,1.2,0,0.00267214
0.2,1.3,0,0.00288772
0.2,1.4,0,0.00309943
0.2,1.5,0,0.00331763
0.2,1.6,0,0.00352194
0.2,1.7,0,0.00373352
0.2,1.8,0,0.00393968
0.2,1.9,0,0.00414046
0.2,2,0,0.00434989
0.2,2.1,0,0.004541
0.2,2.2,0,0.00474151
0.2,2.3,0,0.00493511
0.2,2.4,0,0.00512183
0.2,2.5,0,0.0053193
0.2,2.6,0,0.00549409
0.2,2.7,0,0.00568035
0.2,2.8,0,0.00585822
0.2,2.9,0,0.00602775
0.2,3,0,0.00621006
0.2,3.1,0,0.00636541
0.2,3.2,0,0.00653427
0.2,3.3,0,0.00669329
0.2,3.4,0,0.00684253
0.2,3.5,0,0.00700656
0.2,3.6,0,0.00713945
0.2,3.7,0,0.00728786
0.2,3.8,0,0.00742506
0.2,3.9,0,0.00755109
0.2,4,0,0.00769387
0.2,4.1,0,0.00780159
0.2,4.2,0,0.00792672
0.2,4.3,0,0.00803939
0.2,4.4,0,0.00813965
0.2,4.5,0,0.00825844
0.2,4.6,0,0.00833869
0.2,4.7,0,0.00843806
0.2,4.8,0,0.00852394
0.2,4.9,0,0.00859467
0.2,5,0,0.00868021
0.2,5.1,0,0.00873668
0.2,5.2,0,0.00882137
0.2,5.3,0,0.00885772
0.2,5.4,0,0.00893055
0.2,5.5,0,0.00895481
0.2,5.6,0,0.00901603
0.2,5.7,0,0.00902818
0.2,5.8,0,0.0090776
0.2,5.9,0,0.00907764
0.2,6,0,0.00911512
0.2,6.1,0,0.00910311
0.2,6.2,0,0.00912853
0.2,6.3,0,0.00910459
0.2,6.4,0,0.00911791
0.2,6.5,0,0.00908219
0.2,6.6,0,0.0090834
0.2,6.7,0,0.00903611
0.2,6.8,0,0.00902525
0.2,6.9,0,0.00896607
0.2,7,0,0.00893438
0.2,7.1,0,0.00887662
0.2,7.2,0,0.00882642
0.2,7.3,0,0.00877644
0.2,7.4,0,0.00869678
0.2,7.5,0,0.00863088
0.2,7.6,0,0.00855999
0.2,7.7,0,0.00846599
0.2,7.8,0,0.00838718
0.2,7.9,0,0.00829648
0.2,8,0,0.00818992
0.2,8.1,0,0.00809762
0.2,8.2,0,0.00798838
0.2,8.3,0,0.00787007
0.2,8.4,0,0.00776478
0.2,8.5,0,0.00763838
0.2,8.6,0,0.00750996
0.2,8.7,0,0.00739147
0.2,8.8,0,0.0072494
0.2,8.9,0,0.00711146
0.2,9,0,0.00697945
0.2,9.1,0,0.00682443
0.2,9.2,0,0.0066776
0.2,9.3,0,0.00653097
0.2,9.4,0,0.00636656
0.2,9.5,0,0.00621144
0.2,9.6,0,0.00605174
0.2,9.7,0,0.00587937
0.2,9.8,0,0.0057161
0.2,9.9,0,0.00554484
0.2,10,0,0.0053657
0.2,10.1,0,0.00519461
0.2,10.2,0,0.0050133
0.2,10.3,0,0.00482838
0.2,10.4,0,0.00464996
0.2,10.5,0,0.00446007
0.2,10.6,0,0.00427029
0.2,10.7,0,0.00408506
0.2,10.8,0,0.00388802
0.2,10.9,0,0.0036939
0.2,11,0,0.00350167
0.2,11.1,0,0.0032999
0.2,11.2,0,0.00310197
0.2,11.3,0,0.00290348
0.2,11.4,0,0.00269842
0.2,11.5,0,0.00249717
0.2,11.6,0,0.00229376
0.2,11.7,0,0.00208645
0.2,11.8,0,0.00188206
0.2,11.9,0,0.00167503
0.2,12,0,0.00146611
0.2,12.1,0,0.00125917
0.2,12.2,0,0.0010498
0.2,12.3,0,0.00083992
0.2,12.4,0,0.000630996
0.2,12.5,0,0.000420561
0.2,12.6,0,0.00024168
0.2,12.7,0,8.5419e-05
0.3,0,0,4.84383e-05
0.3,0.1,0,0.000225694
0.3,0.2,0,0.000452152
0.3,0.3,0,0.000677246
0.3,0.4,0,0.000902318
0.3,0.5,0,0.0011285
0.3,0.6,0,0.00135042
0.3,0.7,0,0.00157493
0.3,0.8,0,0.00179683
0.3,0.9,0,0.00201737
0.3,1,0,0.00224082
0.3,1.1,0,0.00245592
0.3,1.2,0,0.00267538
0.3,1.3,0,0.00289096
0.3,1.4,0,0.0031039
0.3,1.5,0,0.00332149
0.3,1.6,0,0.00352672
0.3,1.7,0,0.003738
0.3,1.8,0,0.00394416
0.3,1.9,0,0.0041464
0.3,2,0,0.00435498
0.3,2.1,0,0.00454724
0.3,2.2,0,0.00474721
0.3,2.3,0,0.00494081
0.3,2.4,0,0.00512922
0.3,2.5,0,0.0053256
0.3,2.6,0,0.00550177
0.3,2.7,0,0.00568725
0.3,2.8,0,0.00586512
0.3,2.9,0,0.00603655
0.3,3,0,0.00621755
0.3,3.1,0,0.0063745
0.3,3.2,0,0.00654234
0.3,3.3,0,0.00670137
0.3,3.4,0,0.00685272
0.3,3.5,0,0.00701521
0.3,3.6,0,0.00714993
0.3,3.7,0,0.00729707
0.3,3.8,0,0.00743427
0.3,3.9,0,0.0075626
0.3,4,0,0.00770362
0.3,4.1,0,0.00781335
0.3,4.2,0,0.00793697
0.3,4.3,0,0.00804964
0.3,4.4,0,0.00815233
0.3,4.5,0,0.00826914
0.3,4.6,0,0.00835159
0.3,4.7,0,0.00844917
0.3,4.8,0,0.00853505
0.3,4.9,0,0.00860767
0.3,5,0,0.00869162
0.3,5.1,0,0.00875173
0.3,5.2,0,0.00883302
0.3,5.3,0,0.00887401
0.3,5.4,0,0.00894236
0.3,5.5,0,0.00897131
0.3,5.6,0,0.00902797
0.3,5.7,0,0.00904481
0.3,5.8,0,0.00908962
0.3,5.9,0,0.00909435
0.3,6,0,0.00912715
0.3,6.1,0,0.00911981
0.3,6.2,0,0.00914054
0.3,6.3,0,0.00912121
0.3,6.4,0,0.00912983
0.3,6.5,0,0.00909867
0.3,6.6,0,0.0090952
0.3,6.7,0,0.00905238
0.3,6.8,0,0.00903688
0.3,6.9,0,0.00898102
0.3,7,0,0.00894577
0.3,7.1,0,0.00888831
0.3,7.2,0,0.00883748
0.3,7.3,0,0.0087875
0.3,7.4,0,0.00870965
0.3,7.5,0,0.00864148
0.3,7.6,0,0.00857059
0.3,7.7,0,0.00847927
0.3,7.8,0,0.00839726
0.3,7.9,0,0.00830656
0.3,8,0,0.00820238
0.3,8.1,0,0.00810713
0.3,8.2,0,0.00799788
0.3,8.3,0,0.00788151
0.3,8.4,0,0.00777368
0.3,8.5,0,0.00764729
0.3,8.6,0,0.00751945
0.3,8.7,0,0.00739976
0.3,8.8,0,0.00725769
0.3,8.9,0,0.00711913
0.3,9,0,0.00698712
0.3,9.1,0,0.00683269
0.3,9.2,0,0.00668463
0.3,9.3,0,0.00653801
0.3,9.4,0,0.00637495
0.3,9.5,0,0.00621785
0.3,9.6,0,0.00605814
0.3,9.7,0,0.00588723
0.3,9.8,0,0.00572188
0.3,9.9,0,0.00555062
0.3,10,0,0.00537262
0.3,10.1,0,0.00519977
0.3,10.2,0,0.00501846
0.3,10.3,0,0.00483412
0.3,10.4,0,0.00465451
0.3,10.5,0,0.00446461
0.3,10.6,0,0.00427465
0.3,10.7,0,0.004089
0.3,10.8,0,0.00389196
0.3,10.9,0,0.00369725
0.3,11,0,0.00350502
0.3,11.1,0,0.0033036
0.3,11.2,0,0.00310475
0.3,11.3,0,0.00290626
0.3,11.4,0,0.00270173
0.3,11.5,0,0.00249938
0.3,11.6,0,0.00229597
0.3,11.7,0,0.00208895
0.3,11.8,0,0.00188372
0.3,11.9,0,0.00167669
0.3,12,0,0.00146778
0.3,12.1,0,0.00126028
0.3,12.2,0,0.00105091
0.3,12.3,0,0.00084072
0.3,12.4,0,0.000631559
0.3,12.5,0,0.000421124
0.3,12.6,0,0.000210244
0.3,12.7,0,5.12514e-05
0.4,0,0,1.61461e-05
0.4,0.1,0,0.000226251
0.4,0.2,0,0.000452781
0.4,0.3,0,0.000678323
0.4,0.4,0,0.000903994
0.4,0.5,0,0.00112984
0.4,0.6,0,0.00135317
0.4,0.7,0,0.00157722
0.4,0.8,0,0.00179954
0.4,0.9,0,0.00202118
0.4,1,0,0.00224343
0.4,1.1,0,0.00246079
0.4,1.2,0,0.00267927
0.4,1.3,0,0.00289526
0.4,1.4,0,0.00310979
0.4,1.5,0,0.00332535
0.4,1.6,0,0.00353364
0.4,1.7,0,0.00374346
0.4,1.8,0,0.00395002
0.4,1.9,0,0.00415433
0.4,2,0,0.00436007
0.4,2.1,0,0.00455617
0.4,2.2,0,0.0047542
0.4,2.3,0,0.00494819
0.4,2.4,0,0.00513914
0.4,2.5,0,0.0053319
0.4,2.6,0,0.00551267
0.4,2.7,0,0.00569575
0.4,2.8,0,0.00587401
0.4,2.9,0,0.00604842
0.4,3,0,0.00622504
0.4,3.1,0,0.00638734
0.4,3.2,0,0.00655232
0.4,3.3,0,0.00671173
0.4,3.4,0,0.00686651
0.4,3.5,0,0.00702386
0.4,3.6,0,0.00716465
0.4,3.7,0,0.00730849
0.4,3.8,0,0.00744604
0.4,3.9,0,0.00757823
0.4,4,0,0.00771336
0.4,4.1,0,0.00782985
0.4,4.2,0,0.00794971
0.4,4.3,0,0.0080627
0.4,4.4,0,0.00816963
0.4,4.5,0,0.00827985
0.4,4.6,0,0.00836961
0.4,4.7,0,0.00846304
0.4,4.8,0,0.0085484
0.4,4.9,0,0.00862438
0.4,5,0,0.00870302
0.4,5.1,0,0.00877031
0.4,5.2,0,0.00884466
0.4,5.3,0,0.00889486
0.4,5.4,0,0.00895418
0.4,5.5,0,0.00899242
0.4,5.6,0,0.00903991
0.4,5.7,0,0.00906611
0.4,5.8,0,0.00910163
0.4,5.9,0,0.00911573
0.4,6,0,0.00913919
0.4,6.1,0,0.00914119
0.4,6.2,0,0.00915254
0.4,6.3,0,0.00914249
0.4,6.4,0,0.00914176
0.4,6.5,0,0.00911977
0.4,6.6,0,0.009107
0.4,6.7,0,0.0090732
0.4,6.8,0,0.00904851
0.4,6.9,0,0.0089994
0.4,7,0,0.00895715
0.4,7.1,0,0.00890366
0.4,7.2,0,0.00885215
0.4,7.3,0,0.00879856
0.4,7.4,0,0.00872644
0.4,7.5,0,0.00865582
0.4,7.6,0,0.00858119
0.4,7.7,0,0.00849528
0.4,7.8,0,0.00840952
0.4,7.9,0,0.0083177
0.4,8,0,0.00821754
0.4,8.1,0,0.00811738
0.4,8.2,0,0.00800952
0.4,8.3,0,0.00789577
0.4,8.4,0,0.00778259
0.4,8.5,0,0.00765923
0.4,8.6,0,0.00753278
0.4,8.7,0,0.00740805
0.4,8.8,0,0.00726975
0.4,8.9,0,0.00713151
0.4,9,0,0.00699479
0.4,9.1,0,0.00684411
0.4,9.2,0,0.00669501
0.4,9.3,0,0.00654504
0.4,9.4,0,0.0063854
0.4,9.5,0,0.00622639
0.4,9.6,0,0.00606471
0.4,9.7,0,0.00589672
0.4,9.8,0,0.00572873
0.4,9.9,0,0.00555719
0.4,10,0,0.00538115
0.4,10.1,0,0.0052051
0.4,10.2,0,0.00502488
0.4,10.3,0,0.00484169
0.4,10.4,0,0.00465905
0.4,10.5,0,0.00447075
0.4,10.6,0,0.00428128
0.4,10.7,0,0.00409294
0.4,10.8,0,0.00389766
0.4,10.9,0,0.00370277
0.4,11,0,0.00350837
0.4,11.1,0,0.00330839
0.4,11.2,0,0.0031089
0.4,11.3,0,0.00290903
0.4,11.4,0,0.00270563
0.4,11.5,0,0.00250235
0.4,11.6,0,0.00229829
0.4,11.7,0,0.00209198
0.4,11.8,0,0.00188566
0.4,11.9,0,0.00167853
0.4,12,0,0.00146995
0.4,12.1,0,0.00126139
0.4,12.2,0,0.00105214
0.4,12.3,0,0.000842033
0.4,12.4,0,0.000632122
0.4,12.5,0,0.000421581
0.4,12.6,0,0.000210681
0.4,12.7,0,1.70838e-05
0.5,0,0,0
0.5,0.1,0,0.000226943
0.5,0.2,0,0.000453473
0.5,0.3,0,0.000680341
0.5,0.4,0,0.000906011
0.5,0.5,0,0.00113252
0.5,0.6,0,0.00135648
0.5,0.7,0,0.00158053
0.5,0.8,0,0.00180412
0.5,0.9,0,0.00202577
0.5,1,0,0.0022487
0.5,1.1,0,0.00246663
0.5,1.2,0,0.00268511
0.5,1.3,0,0.00290236
0.5,1.4,0,0.00311689
0.5,1.5,0,0.00333322
0.5,1.6,0,0.00354198
0.5,1.7,0,0.0037518
0.5,1.8,0,0.00395959
0.5,1.9,0,0.0041639
0.5,2,0,0.00437054
0.5,2.1,0,0.00456696
0.5,2.2,0,0.00476499
0.5,2.3,0,0.00496019
0.5,2.4,0,0.00515114
0.5,2.5,0,0.00534496
0.5,2.6,0,0.00552587
0.5,2.7,0,0.00570894
0.5,2.8,0,0.0058884
0.5,2.9,0,0.00606281
0.5,3,0,0.00624067
0.5,3.1,0,0.00640291
0.5,3.2,0,0.00656789
0.5,3.3,0,0.00672846
0.5,3.4,0,0.00688324
0.5,3.5,0,0.00704196
0.5,3.6,0,0.00718252
0.5,3.7,0,0.00732635
0.5,3.8,0,0.00746501
0.5,3.9,0,0.00759719
0.5,4,0,0.00773374
0.5,4.1,0,0.00784985
0.5,4.2,0,0.00796971
0.5,4.3,0,0.00808367
0.5,4.4,0,0.0081906
0.5,4.5,0,0.00830219
0.5,4.6,0,0.00839146
0.5,4.7,0,0.00848488
0.5,4.8,0,0.00857098
0.5,4.9,0,0.00864697
0.5,5,0,0.00872683
0.5,5.1,0,0.00879341
0.5,5.2,0,0.00886895
0.5,5.3,0,0.00891834
0.5,5.4,0,0.00897881
0.5,5.5,0,0.0090162
0.5,5.6,0,0.0090648
0.5,5.7,0,0.00909009
0.5,5.8,0,0.00912666
0.5,5.9,0,0.00913981
0.5,6,0,0.00916427
0.5,6.1,0,0.00916526
0.5,6.2,0,0.00917756
0.5,6.3,0,0.00916645
0.5,6.4,0,0.00916661
0.5,6.5,0,0.00914352
0.5,6.6,0,0.00913159
0.5,6.7,0,0.00909665
0.5,6.8,0,0.00907274
0.5,6.9,0,0.00902246
0.5,7,0,0.00898088
0.5,7.1,0,0.0089262
0.5,7.2,0,0.00887469
0.5,7.3,0,0.00882094
0.5,7.4,0,0.00874813
0.5,7.5,0,0.00867752
0.5,7.6,0,0.00860196
0.5,7.7,0,0.00851598
0.5,7.8,0,0.00843022
0.5,7.9,0,0.0083373
0.5,8,0,0.00823714
0.5,8.1,0,0.00813697
0.5,8.2,0,0.00802794
0.5,8.3,0,0.0079142
0.5,8.4,0,0.00780104
0.5,8.5,0,0.00767643
0.5,8.6,0,0.00754999
0.5,8.7,0,0.00742525
0.5,8.8,0,0.00728571
0.5,8.9,0,0.00714747
0.5,9,0,0.00701045
0.5,9.1,0,0.00685882
0.5,9.2,0,0.00670972
0.5,9.3,0,0.00655887
0.5,9.4,0,0.00639884
0.5,9.5,0,0.00623983
0.5,9.6,0,0.00607689
0.5,9.7,0,0.0059089
0.5,9.8,0,0.00574091
0.5,9.9,0,0.00556812
0.5,10,0,0.00539208
0.5,10.1,0,0.00521603
0.5,10.2,0,0.00503458
0.5,10.3,0,0.00485138
0.5,10.4,0,0.00466856
0.5,10.5,0,0.00447923
0.5,10.6,0,0.00428976
0.5,10.7,0,0.00410099
0.5,10.8,0,0.00390494
0.5,10.9,0,0.00371005
0.5,11,0,0.00351492
0.5,11.1,0,0.00331451
0.5,11.2,0,0.00311502
0.5,11.3,0,0.00291414
0.5,11.4,0,0.00271061
0.5,11.5,0,0.00250733
0.5,11.6,0,0.00230215
0.5,11.7,0,0.00209584
0.5,11.8,0,0.00188953
0.5,11.9,0,0.0016813
0.5,12,0,0.00147272
0.5,12.1,0,0.00126413
0.5,12.2,0,0.00105382
0.5,12.3,0,0.000843709
0.5,12.4,0,0.000633509
0.5,12.5,0,0.000422156
0.5,12.6,0,0.000211256
0.5,12.7,0,0
0.6,0,0,0
0.6,0.1,0,0.00022777
0.6,0.2,0,0.000455032
0.6,0.3,0,0.000682513
0.6,0.4,0,0.000908372
0.6,0.5,0,0.00113654
0.6,0.6,0,0.00136036
0.6,0.7,0,0.00158567
0.6,0.8,0,0.00180985
0.6,0.9,0,0.00203112
0.6,1,0,0.00225664
0.6,1.1,0,0.00247347
0.6,1.2,0,0.00269379
0.6,1.3,0,0.00291162
0.6,1.4,0,0.0031252
0.6,1.5,0,0.00334509
0.6,1.6,0,0.00355174
0.6,1.7,0,0.00376401
0.6,1.8,0,0.00397238
0.6,1.9,0,0.00417511
0.6,2,0,0.00438638
0.6,2.1,0,0.00457961
0.6,2.2,0,0.00478075
0.6,2.3,0,0.00497652
0.6,2.4,0,0.00516521
0.6,2.5,0,0.00536479
0.6,2.6,0,0.00554136
0.6,2.7,0,0.00572823
0.6,2.8,0,0.00590824
0.6,2.9,0,0.00607972
0.6,3,0,0.00626444
0.6,3.1,0,0.0064212
0.6,3.2,0,0.00659062
0.6,3.3,0,0.00675174
0.6,3.4,0,0.0069029
0.6,3.5,0,0.00706951
0.6,3.6,0,0.00720353
0.6,3.7,0,0.00735236
0.6,3.8,0,0.00749153
0.6,3.9,0,0.00761949
0.6,4,0,0.00776475
0.6,4.1,0,0.00787337
0.6,4.2,0,0.00799867
0.6,4.3,0,0.00811308
0.6,4.4,0,0.00821525
0.6,4.5,0,0.00833617
0.6,4.6,0,0.00841712
0.6,4.7,0,0.00851628
0.6,4.8,0,0.00860349
0.6,4.9,0,0.00867542
0.6,5,0,0.00876303
0.6,5.1,0,0.00882102
0.6,5.2,0,0.00890587
0.6,5.3,0,0.00894445
0.6,5.4,0,0.00901627
0.6,5.5,0,0.00904264
0.6,5.6,0,0.00910263
0.6,5.7,0,0.00911675
0.6,5.8,0,0.00916472
0.6,5.9,0,0.00916657
0.6,6,0,0.00920239
0.6,6.1,0,0.00919202
0.6,6.2,0,0.00921559
0.6,6.3,0,0.00919309
0.6,6.4,0,0.00920439
0.6,6.5,0,0.00916992
0.6,6.6,0,0.00916896
0.6,6.7,0,0.00912272
0.6,6.8,0,0.00910956
0.6,6.9,0,0.00905022
0.6,7,0,0.00901694
0.6,7.1,0,0.00895594
0.6,7.2,0,0.00890525
0.6,7.3,0,0.00885588
0.6,7.4,0,0.00877474
0.6,7.5,0,0.00870684
0.6,7.6,0,0.00863544
0.6,7.7,0,0.00854136
0.6,7.8,0,0.00845968
0.6,7.9,0,0.0083675
0.6,8,0,0.00826117
0.6,8.1,0,0.00816621
0.6,8.2,0,0.00805464
0.6,8.3,0,0.00793679
0.6,8.4,0,0.00782914
0.6,8.5,0,0.00769974
0.6,8.6,0,0.00757108
0.6,8.7,0,0.00745134
0.6,8.8,0,0.00730578
0.6,8.9,0,0.00716702
0.6,9,0,0.00703448
0.6,9.1,0,0.00687681
0.6,9.2,0,0.00672865
0.6,9.3,0,0.00658082
0.6,9.4,0,0.00641527
0.6,9.5,0,0.00625789
0.6,9.6,0,0.0060965
0.6,9.7,0,0.00592378
0.6,9.8,0,0.00575789
0.6,9.9,0,0.00558465
0.6,10,0,0.00540541
0.6,10.1,0,0.00523173
0.6,10.2,0,0.00504829
0.6,10.3,0,0.0048632
0.6,10.4,0,0.00468244
0.6,10.5,0,0.00449039
0.6,10.6,0,0.00430008
0.6,10.7,0,0.00411298
0.6,10.8,0,0.00391381
0.6,10.9,0,0.00371902
0.6,11,0,0.00352508
0.6,11.1,0,0.00332196
0.6,11.2,0,0.00312277
0.6,11.3,0,0.00292253
0.6,11.4,0,0.00271667
0.6,11.5,0,0.00251372
0.6,11.6,0,0.00230856
0.6,11.7,0,0.00210054
0.6,11.8,0,0.00189446
0.6,11.9,0,0.0016857
0.6,12,0,0.00147609
0.6,12.1,0,0.00126748
0.6,12.2,0,0.00105637
0.6,12.3,0,0.000845748
0.6,12.4,0,0.000635201
0.6,12.5,0,0.000423023
0.6,12.6,0,0.000211968
0.6,12.7,0,0
0.7,0,0,0
0.7,0.1,0,0.000228018
0.7,0.2,0,0.000457079
0.7,0.3,0,0.00068456
0.7,0.4,0,0.000911898
0.7,0.5,0,0.00114057
0.7,0.6,0,0.00136434
0.7,0.7,0,0.00159165
0.7,0.8,0,0.00181584
0.7,0.9,0,0.00203829
0.7,1,0,0.00226458
0.7,1.1,0,0.00248107
0.7,1.2,0,0.00270369
0.7,1.3,0,0.00292152
0.7,1.4,0,0.003136
0.7,1.5,0,0.00335696
0.7,1.6,0,0.00356297
0.7,1.7,0,0.00377787
0.7,1.8,0,0.00398624
0.7,1.9,0,0.00418957
0.7,2,0,0.00440222
0.7,2.1,0,0.00459449
0.7,2.2,0,0.00479859
0.7,2.3,0,0.00499436
0.7,2.4,0,0.00518332
0.7,2.5,0,0.00538462
0.7,2.6,0,0.00555989
0.7,2.7,0,0.00575004
0.7,2.8,0,0.00593006
0.7,2.9,0,0.00610143
0.7,3,0,0.00628821
0.7,3.1,0,0.00644333
0.7,3.2,0,0.00661631
0.7,3.3,0,0.00677743
0.7,3.4,0,0.00692809
0.7,3.5,0,0.00709706
0.7,3.6,0,0.00722911
0.7,3.7,0,0.00738169
0.7,3.8,0,0.00752086
0.7,3.9,0,0.00764789
0.7,4,0,0.00779577
0.7,4.1,0,0.00790213
0.7,4.2,0,0.00803124
0.7,4.3,0,0.00814565
0.7,4.4,0,0.00824643
0.7,4.5,0,0.00837016
0.7,4.6,0,0.00844861
0.7,4.7,0,0.0085515
0.7,4.8,0,0.00863871
0.7,4.9,0,0.0087093
0.7,5,0,0.00879924
0.7,5.1,0,0.00885311
0.7,5.2,0,0.0089428
0.7,5.3,0,0.0089761
0.7,5.4,0,0.00905372
0.7,5.5,0,0.00907468
0.7,5.6,0,0.00914046
0.7,5.7,0,0.00914905
0.7,5.8,0,0.00920277
0.7,5.9,0,0.009199
0.7,6,0,0.0092405
0.7,6.1,0,0.00922444
0.7,6.2,0,0.00925361
0.7,6.3,0,0.00922536
0.7,6.4,0,0.00924216
0.7,6.5,0,0.00920192
0.7,6.6,0,0.00920634
0.7,6.7,0,0.0091543
0.7,6.8,0,0.00914639
0.7,6.9,0,0.00908232
0.7,7,0,0.009053
0.7,7.1,0,0.0089915
0.7,7.2,0,0.00894018
0.7,7.3,0,0.00889081
0.7,7.4,0,0.00880704
0.7,7.5,0,0.00874032
0.7,7.6,0,0.00866893
0.7,7.7,0,0.00857071
0.7,7.8,0,0.00849151
0.7,7.9,0,0.00839933
0.7,8,0,0.00828858
0.7,8.1,0,0.00819624
0.7,8.2,0,0.00808467
0.7,8.3,0,0.00796228
0.7,8.4,0,0.00785724
0.7,8.5,0,0.00772784
0.7,8.6,0,0.00759598
0.7,8.7,0,0.00747743
0.7,8.8,0,0.00733187
0.7,8.9,0,0.00719105
0.7,9,0,0.00705851
0.7,9.1,0,0.00689989
0.7,9.2,0,0.0067506
0.7,9.3,0,0.00660277
0.7,9.4,0,0.00643504
0.7,9.5,0,0.00627776
0.7,9.6,0,0.00611638
0.7,9.7,0,0.00594089
0.7,9.8,0,0.00577571
0.7,9.9,0,0.00560248
0.7,10,0,0.00542026
0.7,10.1,0,0.00524755
0.7,10.2,0,0.00506412
0.7,10.3,0,0.00487626
0.7,10.4,0,0.00469632
0.7,10.5,0,0.00450427
0.7,10.6,0,0.00431181
0.7,10.7,0,0.00412497
0.7,10.8,0,0.0039258
0.7,10.9,0,0.00372919
0.7,11,0,0.00353525
0.7,11.1,0,0.00333148
0.7,11.2,0,0.00313116
0.7,11.3,0,0.00293092
0.7,11.4,0,0.00272396
0.7,11.5,0,0.0025204
0.7,11.6,0,0.00231524
0.7,11.7,0,0.00210588
0.7,11.8,0,0.00189946
0.7,11.9,0,0.00169069
0.7,12,0,0.00147953
0.7,12.1,0,0.00127082
0.7,12.2,0,0.00105972
0.7,12.3,0,0.000847551
0.7,12.4,0,0.000636894
0.7,12.5,0,0.000424715
0.7,12.6,0,0.000212025
0.7,12.7,0,0
0.8,0,0,0
0.8,0.1,0,0.000228994
0.8,0.2,0,0.000459126
0.8,0.3,0,0.000686607
0.8,0.4,0,0.000915674
0.8,0.5,0,0.0011446
0.8,0.6,0,0.00137005
0.8,0.7,0,0.00159764
0.8,0.8,0,0.00182182
0.8,0.9,0,0.00204673
0.8,1,0,0.00227252
0.8,1.1,0,0.00249147
0.8,1.2,0,0.00271359
0.8,1.3,0,0.00293142
0.8,1.4,0,0.00314915
0.8,1.5,0,0.00336883
0.8,1.6,0,0.00357812
0.8,1.7,0,0.00379172
0.8,1.8,0,0.00400009
0.8,1.9,0,0.00420752
0.8,2,0,0.00441807
0.8,2.1,0,0.00461449
0.8,2.2,0,0.00481643
0.8,2.3,0,0.0050122
0.8,2.4,0,0.00520616
0.8,2.5,0,0.00540446
0.8,2.6,0,0.00558478
0.8,2.7,0,0.00577186
0.8,2.8,0,0.00595187
0.8,2.9,0,0.00612913
0.8,3,0,0.00631198
0.8,3.1,0,0.00647302
0.8,3.2,0,0.006642
0.8,3.3,0,0.00680312
0.8,3.4,0,0.00696046
0.8,3.5,0,0.00712461
0.8,3.6,0,0.00726333
0.8,3.7,0,0.00741103
0.8,3.8,0,0.00755019
0.8,3.9,0,0.00768453
0.8,4,0,0.00782679
0.8,4.1,0,0.0079404
0.8,4.2,0,0.00806381
0.8,4.3,0,0.00817823
0.8,4.4,0,0.00828675
0.8,4.5,0,0.00840414
0.8,4.6,0,0.00849024
0.8,4.7,0,0.00858672
0.8,4.8,0,0.00867393
0.8,4.9,0,0.00875092
0.8,5,0,0.00883545
0.8,5.1,0,0.00889863
0.8,5.2,0,0.00897972
0.8,5.3,0,0.00902437
0.8,5.4,0,0.00909118
0.8,5.5,0,0.00912353
0.8,5.6,0,0.00917829
0.8,5.7,0,0.00919827
0.8,5.8,0,0.00924082
0.8,5.9,0,0.00924841
0.8,6,0,0.00927862
0.8,6.1,0,0.00927382
0.8,6.2,0,0.00929164
0.8,6.3,0,0.00927452
0.8,6.4,0,0.00927994
0.8,6.5,0,0.00925066
0.8,6.6,0,0.00924371
0.8,6.7,0,0.00920243
0.8,6.8,0,0.00918321
0.8,6.9,0,0.00912745
0.8,7,0,0.00908906
0.8,7.1,0,0.00903057
0.8,7.2,0,0.00897728
0.8,7.3,0,0.00892574
0.8,7.4,0,0.00884759
0.8,7.5,0,0.00877468
0.8,7.6,0,0.00870241
0.8,7.7,0,0.00861065
0.8,7.8,0,0.00852335
0.8,7.9,0,0.00843117
0.8,8,0,0.00832642
0.8,8.1,0,0.00822627
0.8,8.2,0,0.0081147
0.8,8.3,0,0.00799763
0.8,8.4,0,0.00788534
0.8,8.5,0,0.00775686
0.8,8.6,0,0.00762724
0.8,8.7,0,0.00750352
0.8,8.8,0,0.00735984
0.8,8.9,0,0.00721835
0.8,9,0,0.00708254
0.8,9.1,0,0.00692652
0.8,9.2,0,0.00677413
0.8,9.3,0,0.00662471
0.8,9.4,0,0.00646007
0.8,9.5,0,0.00629778
0.8,9.6,0,0.00613625
0.8,9.7,0,0.00596371
0.8,9.8,0,0.00579354
0.8,9.9,0,0.0056203
0.8,10,0,0.00544057
0.8,10.1,0,0.00526337
0.8,10.2,0,0.00508
0.8,10.3,0,0.00489372
0.8,10.4,0,0.00471019
0.8,10.5,0,0.00451858
0.8,10.6,0,0.00432613
0.8,10.7,0,0.00413695
0.8,10.8,0,0.00393843
0.8,10.9,0,0.00374066
0.8,11,0,0.00354541
0.8,11.1,0,0.00334233
0.8,11.2,0,0.00314005
0.8,11.3,0,0.00293931
0.8,11.4,0,0.00273295
0.8,11.5,0,0.00252707
0.8,11.6,0,0.00232191
0.8,11.7,0,0.00211284
0.8,11.8,0,0.00190445
0.8,11.9,0,0.00169569
0.8,12,0,0.0014845
0.8,12.1,0,0.00127416
0.8,12.2,0,0.00106302
0.8,12.3,0,0.000850307
0.8,12.4,0,0.000638586
0.8,12.5,0,0.000426164
0.8,12.6,0,0.000212592
0.8,12.7,0,0
0.9,0,0,0
0.9,0.1,0,0.000230215
0.9,0.2,0,0.000460429
0.9,0.3,0,0.000690153
0.9,0.4,0,0.000919388
0.9,0.5,0,0.00114862
0.9,0.6,0,0.00137619
0.9,0.7,0,0.00160376
0.9,0.8,0,0.00183013
0.9,0.9,0,0.00205529
0.9,1,0,0.00228046
0.9,1.1,0,0.00250247
0.9,1.2,0,0.00272448
0.9,1.3,0,0.00294453
0.9,1.4,0,0.00316262
0.9,1.5,0,0.00338071
0.9,1.6,0,0.00359409
0.9,1.7,0,0.00380748
0.9,1.8,0,0.00401812
0.9,1.9,0,0.00422601
0.9,2,0,0.00443391
0.9,2.1,0,0.00463553
0.9,2.2,0,0.00483714
0.9,2.3,0,0.00503522
0.9,2.4,0,0.00522975
0.9,2.5,0,0.00542429
0.9,2.6,0,0.00561093
0.9,2.7,0,0.00579757
0.9,2.8,0,0.00597987
0.9,2.9,0,0.00615781
0.9,3,0,0.00633575
0.9,3.1,0,0.00650419
0.9,3.2,0,0.00667262
0.9,3.3,0,0.0068359
0.9,3.4,0,0.00699403
0.9,3.5,0,0.00715216
0.9,3.6,0,0.00729921
0.9,3.7,0,0.00744625
0.9,3.8,0,0.00758738
0.9,3.9,0,0.00772259
0.9,4,0,0.0078578
0.9,4.1,0,0.00798047
0.9,4.2,0,0.00810314
0.9,4.3,0,0.0082192
0.9,4.4,0,0.00832866
0.9,4.5,0,0.00843812
0.9,4.6,0,0.00853377
0.9,4.7,0,0.00862942
0.9,4.8,0,0.00871613
0.9,4.9,0,0.00879389
0.9,5,0,0.00887166
0.9,5.1,0,0.00894415
0.9,5.2,0,0.00901665
0.9,5.3,0,0.00907264
0.9,5.4,0,0.00912863
0.9,5.5,0,0.00917238
0.9,5.6,0,0.00921612
0.9,5.7,0,0.0092475
0.9,5.8,0,0.00927888
0.9,5.9,0,0.00929781
0.9,6,0,0.00931674
0.9,6.1,0,0.0093232
0.9,6.2,0,0.00932966
0.9,6.3,0,0.00932369
0.9,6.4,0,0.00931772
0.9,6.5,0,0.0092994
0.9,6.6,0,0.00928108
0.9,6.7,0,0.00925056
0.9,6.8,0,0.00922004
0.9,6.9,0,0.00917258
0.9,7,0,0.00912512
0.9,7.1,0,0.00907183
0.9,7.2,0,0.00901854
0.9,7.3,0,0.0089623
0.9,7.4,0,0.0088894
0.9,7.5,0,0.0088165
0.9,7.6,0,0.00873896
0.9,7.7,0,0.00865059
0.9,7.8,0,0.00856223
0.9,7.9,0,0.00846727
0.9,8,0,0.00836425
0.9,8.1,0,0.00826123
0.9,8.2,0,0.00814995
0.9,8.3,0,0.00803317
0.9,8.4,0,0.00791638
0.9,8.5,0,0.00778996
0.9,8.6,0,0.00766034
0.9,8.7,0,0.00753071
0.9,8.8,0,0.00739041
0.9,8.9,0,0.00724891
0.9,9,0,0.00710688
0.9,9.1,0,0.00695449
0.9,9.2,0,0.00680211
0.9,9.3,0,0.00664775
0.9,9.4,0,0.00648546
0.9,9.5,0,0.00632317
0.9,9.6,0,0.00615775
0.9,9.7,0,0.00598653
0.9,9.8,0,0.00581531
0.9,9.9,0,0.00564009
0.9,10,0,0.00546089
0.9,10.1,0,0.00528168
0.9,10.2,0,0.00509788
0.9,10.3,0,0.00491161
0.9,10.4,0,0.00472533
0.9,10.5,0,0.00453412
0.9,10.6,0,0.00434167
0.9,10.7,0,0.00414922
0.9,10.8,0,0.00395171
0.9,10.9,0,0.00375394
0.9,11,0,0.00355572
0.9,11.1,0,0.00335344
0.9,11.2,0,0.00315116
0.9,11.3,0,0.00294795
0.9,11.4,0,0.00274195
0.9,11.5,0,0.00253595
0.9,11.6,0,0.00232877
0.9,11.7,0,0.00211981
0.9,11.8,0,0.00191085
0.9,11.9,0,0.00170066
0.9,12,0,0.00148947
0.9,12.1,0,0.00127828
0.9,12.2,0,0.00106602
0.9,12.3,0,0.000853303
0.9,12.4,0,0.000640588
0.9,12.5,0,0.000427144
0.9,12.6,0,0.000213572
0.9,12.7,0,0
1,0,0,0
1,0.1,0,0.0002318
1,0.2,0,0.000462203
1,0.3,0,0.000694494
1,0.4,0,0.000923825
1,0.5,0,0.00115547
1,0.6,0,0.00138346
1,0.7,0,0.00161132
1,0.8,0,0.00184024
1,0.9,0,0.0020654
1,1,0,0.00229398
1,1.1,0,0.00251544
1,1.2,0,0.00273785
1,1.3,0,0.0029605
1,1.4,0,0.00317849
1,1.5,0,0.00340096
1,1.6,0,0.00361289
1,1.7,0,0.00382676
1,1.8,0,0.00404006
1,1.9,0,0.00424777
1,2,0,0.00446097
1,2.1,0,0.00466027
1,2.2,0,0.00486247
1,2.3,0,0.00506325
1,2.4,0,0.00525751
1,2.5,0,0.00545822
1,2.6,0,0.00564169
1,2.7,0,0.00582899
1,2.8,0,0.00601397
1,2.9,0,0.00619155
1,3,0,0.00637651
1,3.1,0,0.00654086
1,3.2,0,0.00671004
1,3.3,0,0.00687588
1,3.4,0,0.00703355
1,3.5,0,0.0071995
1,3.6,0,0.00734146
1,3.7,0,0.00748932
1,3.8,0,0.00763277
1,3.9,0,0.00776742
1,4,0,0.0079112
1,4.1,0,0.00802771
1,4.2,0,0.00815126
1,4.3,0,0.0082693
1,4.4,0,0.00837809
1,4.5,0,0.00849673
1,4.6,0,0.00858514
1,4.7,0,0.00868173
1,4.8,0,0.00877172
1,4.9,0,0.00884891
1,5,0,0.00893421
1,5.1,0,0.00899894
1,5.2,0,0.00908048
1,5.3,0,0.00912632
1,5.4,0,0.0091934
1,5.5,0,0.0092267
1,5.6,0,0.00928157
1,5.7,0,0.00930225
1,5.8,0,0.00934472
1,5.9,0,0.00935276
1,6,0,0.0093827
1,6.1,0,0.00937813
1,6.2,0,0.00939545
1,6.3,0,0.00937836
1,6.4,0,0.00938305
1,6.5,0,0.0093536
1,6.6,0,0.00934569
1,6.7,0,0.00930408
1,6.8,0,0.00928365
1,6.9,0,0.00922738
1,7,0,0.00918736
1,7.1,0,0.00912789
1,7.2,0,0.0090746
1,7.3,0,0.00902054
1,7.4,0,0.00894125
1,7.5,0,0.00886835
1,7.6,0,0.00879274
1,7.7,0,0.00870008
1,7.8,0,0.00861241
1,7.9,0,0.0085164
1,8,0,0.00841109
1,8.1,0,0.00830981
1,8.2,0,0.00819432
1,8.3,0,0.00807714
1,8.4,0,0.0079629
1,8.5,0,0.00783089
1,8.6,0,0.00770127
1,8.7,0,0.00757479
1,8.8,0,0.00742818
1,8.9,0,0.00728669
1,9,0,0.00714743
1,9.1,0,0.00698906
1,9.2,0,0.00683668
1,9.3,0,0.00668327
1,9.4,0,0.00651681
1,9.5,0,0.00635452
1,9.6,0,0.00618847
1,9.7,0,0.0060147
1,9.8,0,0.00584394
1,9.9,0,0.00566628
1,10,0,0.00548596
1,10.1,0,0.00530756
1,10.2,0,0.00511995
1,10.3,0,0.00493368
1,10.4,0,0.00474841
1,10.5,0,0.00455329
1,10.6,0,0.00436084
1,10.7,0,0.00416944
1,10.8,0,0.0039681
1,10.9,0,0.00377033
1,11,0,0.00357235
1,11.1,0,0.00336714
1,11.2,0,0.00316486
1,11.3,0,0.00296092
1,11.4,0,0.00275307
1,11.5,0,0.00254707
1,11.6,0,0.00233835
1,11.7,0,0.00212842
1,11.8,0,0.0019194
1,11.9,0,0.00170712
1,12,0,0.00149563
1,12.1,0,0.00128416
1,12.2,0,0.00106976
1,12.3,0,0.000857042
1,12.4,0,0.000643644
1,12.5,0,0.000428467
1,12.6,0,0.000214895
1,12.7,0,0
1.1,0,0,0
1.1,0.1,0,0.000233068
1.1,0.2,0,0.000465676
1.1,0.3,0,0.000697967
1.1,0.4,0,0.000928744
1.1,0.5,0,0.00116231
1.1,0.6,0,0.00139064
1.1,0.7,0,0.0016215
1.1,0.8,0,0.00185042
1.1,0.9,0,0.00207619
1.1,1,0,0.0023075
1.1,1.1,0,0.00252852
1.1,1.2,0,0.00275472
1.1,1.3,0,0.00297738
1.1,1.4,0,0.00319523
1.1,1.5,0,0.0034212
1.1,1.6,0,0.00363198
1.1,1.7,0,0.0038504
1.1,1.8,0,0.0040637
1.1,1.9,0,0.00427059
1.1,2,0,0.00448803
1.1,2.1,0,0.00468548
1.1,2.2,0,0.00489296
1.1,2.3,0,0.00509375
1.1,2.4,0,0.0052865
1.1,2.5,0,0.00549216
1.1,2.6,0,0.00567308
1.1,2.7,0,0.00586636
1.1,2.8,0,0.00605133
1.1,2.9,0,0.00622669
1.1,3,0,0.00641727
1.1,3.1,0,0.00657835
1.1,3.2,0,0.00675413
1.1,3.3,0,0.00691997
1.1,3.4,0,0.00707464
1.1,3.5,0,0.00724683
1.1,3.6,0,0.00738472
1.1,3.7,0,0.00753977
1.1,3.8,0,0.00768322
1.1,3.9,0,0.00781397
1.1,4,0,0.0079646
1.1,4.1,0,0.00807618
1.1,4.2,0,0.0082074
1.1,4.3,0,0.00832543
1.1,4.4,0,0.00842935
1.1,4.5,0,0.00855534
1.1,4.6,0,0.00863795
1.1,4.7,0,0.00874252
1.1,4.8,0,0.00883251
1.1,4.9,0,0.00890543
1.1,5,0,0.00899675
1.1,5.1,0,0.00905372