x,y,z,p
0,0,0,0.000205927
0,0.1,0,0.000331063
0,0.2,0,0.0004562
0,0.3,0,0.000581336
0,0.4,0,0.000706473
0,0.5,0,0.000836197
0,0.6,0,0.0010011
0,0.7,0,0.00116599
0,0.8,0,0.00133089
0,0.9,0,0.00149579
0,1,0,0.00165979
0,1.1,0,0.00182081
0,1.2,0,0.00198183
0,1.3,0,0.00214285
0,1.4,0,0.00230387
0,1.5,0,0.00246372
0,1.6,0,0.00262137
0,1.7,0,0.00277902
0,1.8,0,0.00293667
0,1.9,0,0.00309432
0,2,0,0.0032499
0,2.1,0,0.00340307
0,2.2,0,0.00355625
0,2.3,0,0.00370942
0,2.4,0,0.00386259
0,2.5,0,0.00401181
0,2.6,0,0.00415814
0,2.7,0,0.00430446
0,2.8,0,0.00445079
0,2.9,0,0.00459712
0,3,0,0.00473741
0,3.1,0,0.00487502
0,3.2,0,0.00501262
0,3.3,0,0.00515023
0,3.4,0,0.00528784
0,3.5,0,0.00541679
0,3.6,0,0.00554368
0,3.7,0,0.00567057
0,3.8,0,0.00579746
0,3.9,0,0.00592434
0,4,0,0.00603936
0,4.1,0,0.00615339
0,4.2,0,0.00626742
0,4.3,0,0.00638145
0,4.4,0,0.0064949
0,4.5,0,0.00659383
0,4.6,0,0.00669277
0,4.7,0,0.0067917
0,4.8,0,0.00689064
0,4.9,0,0.00698689
0,5,0,0.0070684
0,5.1,0,0.00714992
0,5.2,0,0.00723143
0,5.3,0,0.00731295
0,5.4,0,0.00738914
0,5.5,0,0.00745087
0,5.6,0,0.0075126
0,5.7,0,0.00757433
0,5.8,0,0.00763606
0,5.9,0,0.0076893
0,6,0,0.00772896
0,6.1,0,0.00776861
0,6.2,0,0.00780827
0,6.3,0,0.00784793
0,6.4,0,0.0078756
0,6.5,0,0.00789128
0,6.6,0,0.00790697
0,6.7,0,0.00792265
0,6.8,0,0.00793834
0,6.9,0,0.00793827
0,7,0,0.00792836
0,7.1,0,0.00791844
0,7.2,0,0.00790853
0,7.3,0,0.00789861
0,7.4,0,0.00786927
0,7.5,0,0.00783277
0,7.6,0,0.00779627
0,7.7,0,0.00775977
0,7.8,0,0.00772328
0,7.9,0,0.00766422
0,8,0,0.00760107
0,8.1,0,0.00753792
0,8.2,0,0.00747476
0,8.3,0,0.00741161
0,8.4,0,0.00732314
0,8.5,0,0.00723366
0,8.6,0,0.00714418
0,8.7,0,0.0070547
0,8.8,0,0.00696326
0,8.9,0,0.00684841
0,9,0,0.00673355
0,9.1,0,0.0066187
0,9.2,0,0.00650384
0,9.3,0,0.00638444
0,9.4,0,0.00624595
0,9.5,0,0.00610746
0,9.6,0,0.00596897
0,9.7,0,0.00583048
0,9.8,0,0.00568544
0,9.9,0,0.00552565
0,10,0,0.00536587
0,10.1,0,0.00520609
0,10.2,0,0.0050463
0,10.3,0,0.00487871
0,10.4,0,0.00470046
0,10.5,0,0.00452222
0,10.6,0,0.00434397
0,10.7,0,0.00416573
0,10.8,0,0.00397931
0,10.9,0,0.00378588
0,11,0,0.00359246
0,11.1,0,0.00339903
0,11.2,0,0.00320561
0,11.3,0,0.00300433
0,11.4,0,0.0027989
0,11.5,0,0.00259347
0,11.6,0,0.00238804
0,11.7,0,0.0021826
0,11.8,0,0.0019693
0,11.9,0,0.00175364
0,12,0,0.00153798
0,12.1,0,0.00132232
0,12.2,0,0.00110666
0,12.3,0,0.000935315
0,12.4,0,0.000769754
0,12.5,0,0.000604193
0,12.6,0,0.000438631
0,12.7,0,0.00027307
0.1,0,0,0.000164741
0.1,0.1,0,0.000330096
0.1,0.2,0,0.000455232
0.1,0.3,0,0.000580369
0.1,0.4,0,0.000705505
0.1,0.5,0,0.000834779
0.1,0.6,0,0.000999985
0.1,0.7,0,0.00116488
0.1,0.8,0,0.00132978
0.1,0.9,0,0.00149468
0.1,1,0,0.00165909
0.1,1.1,0,0.00182136
0.1,1.2,0,0.00198238
0.1,1.3,0,0.00214339
0.1,1.4,0,0.00230441
0.1,1.5,0,0.00246485
0.1,1.6,0,0.00262353
0.1,1.7,0,0.00278118
0.1,1.8,0,0.00293883
0.1,1.9,0,0.00309648
0.1,2,0,0.00325245
0.1,2.1,0,0.00340606
0.1,2.2,0,0.00355923
0.1,2.3,0,0.0037124
0.1,2.4,0,0.00386557
0.1,2.5,0,0.00401536
0.1,2.6,0,0.00416208
0.1,2.7,0,0.0043084
0.1,2.8,0,0.00445473
0.1,2.9,0,0.00460106
0.1,3,0,0.00474214
0.1,3.1,0,0.00488008
0.1,3.2,0,0.00501769
0.1,3.3,0,0.00515529
0.1,3.4,0,0.0052929
0.1,3.5,0,0.00542289
0.1,3.6,0,0.00555
0.1,3.7,0,0.00567688
0.1,3.8,0,0.00580377
0.1,3.9,0,0.00593066
0.1,4,0,0.00604695
0.1,4.1,0,0.00616105
0.1,4.2,0,0.00627508
0.1,4.3,0,0.00638911
0.1,4.4,0,0.00650261
0.1,4.5,0,0.0066028
0.1,4.6,0,0.00670174
0.1,4.7,0,0.00680067
0.1,4.8,0,0.00689961
0.1,4.9,0,0.00699605
0.1,5,0,0.00707855
0.1,5.1,0,0.00716006
0.1,5.2,0,0.00724157
0.1,5.3,0,0.00732309
0.1,5.4,0,0.00739954
0.1,5.5,0,0.00746197
0.1,5.6,0,0.0075237
0.1,5.7,0,0.00758543
0.1,5.8,0,0.00764717
0.1,5.9,0,0.0077007
0.1,6,0,0.0077408
0.1,6.1,0,0.00778045
0.1,6.2,0,0.00782011
0.1,6.3,0,0.00785977
0.1,6.4,0,0.00788771
0.1,6.5,0,0.00790365
0.1,6.6,0,0.00791933
0.1,6.7,0,0.00793502
0.1,6.8,0,0.0079507
0.1,6.9,0,0.00795083
0.1,7,0,0.00794103
0.1,7.1,0,0.00793112
0.1,7.2,0,0.0079212
0.1,7.3,0,0.00791129
0.1,7.4,0,0.00788201
0.1,7.5,0,0.00784554
0.1,7.6,0,0.00780904
0.1,7.7,0,0.00777254
0.1,7.8,0,0.00773604
0.1,7.9,0,0.00767682
0.1,8,0,0.00761364
0.1,8.1,0,0.00755049
0.1,8.2,0,0.00748733
0.1,8.3,0,0.00742418
0.1,8.4,0,0.00733525
0.1,8.5,0,0.00724577
0.1,8.6,0,0.00715628
0.1,8.7,0,0.0070668
0.1,8.8,0,0.00697531
0.1,8.9,0,0.00685978
0.1,9,0,0.00674493
0.1,9.1,0,0.00663007
0.1,9.2,0,0.00651521
0.1,9.3,0,0.0063956
0.1,9.4,0,0.00625624
0.1,9.5,0,0.00611775
0.1,9.6,0,0.00597926
0.1,9.7,0,0.00584077
0.1,9.8,0,0.00569528
0.1,9.9,0,0.00553453
0.1,10,0,0.00537474
0.1,10.1,0,0.00521496
0.1,10.2,0,0.00505518
0.1,10.3,0,0.00488684
0.1,10.4,0,0.00470763
0.1,10.5,0,0.00452939
0.1,10.6,0,0.00435114
0.1,10.7,0,0.0041729
0.1,10.8,0,0.00398542
0.1,10.9,0,0.00379113
0.1,11,0,0.0035977
0.1,11.1,0,0.00340428
0.1,11.2,0,0.00321085
0.1,11.3,0,0.00300814
0.1,11.4,0,0.002802
0.1,11.5,0,0.00259656
0.1,11.6,0,0.00239113
0.1,11.7,0,0.0021857
0.1,11.8,0,0.0019724
0.1,11.9,0,0.00175674
0.1,12,0,0.00154108
0.1,12.1,0,0.00132541
0.1,12.2,0,0.00110915
0.1,12.3,0,0.000937423
0.1,12.4,0,0.000771861
0.1,12.5,0,0.0006063
0.1,12.6,0,0.000440738
0.1,12.7,0,0.000218456
0.2,0,0,0.000123556
0.2,0.1,0,0.000289207
0.2,0.2,0,0.000454265
0.2,0.3,0,0.000579402
0.2,0.4,0,0.000704538
0.2,0.5,0,0.00083332
0.2,0.6,0,0.000998572
0.2,0.7,0,0.00116377
0.2,0.8,0,0.00132867
0.2,0.9,0,0.00149357
0.2,1,0,0.00165801
0.2,1.1,0,0.00182069
0.2,1.2,0,0.00198292
0.2,1.3,0,0.00214394
0.2,1.4,0,0.00230496
0.2,1.5,0,0.0024654
0.2,1.6,0,0.0026247
0.2,1.7,0,0.00278334
0.2,1.8,0,0.00294099
0.2,1.9,0,0.00309864
0.2,2,0,0.00325462
0.2,2.1,0,0.00340863
0.2,2.2,0,0.00356221
0.2,2.3,0,0.00371538
0.2,2.4,0,0.00386856
0.2,2.5,0,0.00401834
0.2,2.6,0,0.00416565
0.2,2.7,0,0.00431235
0.2,2.8,0,0.00445867
0.2,2.9,0,0.004605
0.2,3,0,0.00474608
0.2,3.1,0,0.00488484
0.2,3.2,0,0.00502275
0.2,3.3,0,0.00516036
0.2,3.4,0,0.00529796
0.2,3.5,0,0.00542795
0.2,3.6,0,0.00555612
0.2,3.7,0,0.0056832
0.2,3.8,0,0.00581009
0.2,3.9,0,0.00593698
0.2,4,0,0.00605326
0.2,4.1,0,0.00616867
0.2,4.2,0,0.00628274
0.2,4.3,0,0.00639677
0.2,4.4,0,0.00651027
0.2,4.5,0,0.00661055
0.2,4.6,0,0.00671071
0.2,4.7,0,0.00680964
0.2,4.8,0,0.00690858
0.2,4.9,0,0.00700502
0.2,5,0,0.00708773
0.2,5.1,0,0.0071702
0.2,5.2,0,0.00725171
0.2,5.3,0,0.00733323
0.2,5.4,0,0.00740968
0.2,5.5,0,0.0074724
0.2,5.6,0,0.00753481
0.2,5.7,0,0.00759654
0.2,5.8,0,0.00765827
0.2,5.9,0,0.0077118
0.2,6,0,0.00775221
0.2,6.1,0,0.00779229
0.2,6.2,0,0.00783195
0.2,6.3,0,0.00787161
0.2,6.4,0,0.00789955
0.2,6.5,0,0.00791577
0.2,6.6,0,0.0079317
0.2,6.7,0,0.00794738
0.2,6.8,0,0.00796307
0.2,6.9,0,0.0079632
0.2,7,0,0.0079536
0.2,7.1,0,0.0079438
0.2,7.2,0,0.00793388
0.2,7.3,0,0.00792397
0.2,7.4,0,0.00789469
0.2,7.5,0,0.00785828
0.2,7.6,0,0.0078218
0.2,7.7,0,0.0077853
0.2,7.8,0,0.0077488
0.2,7.9,0,0.00768958
0.2,8,0,0.00762623
0.2,8.1,0,0.00756306
0.2,8.2,0,0.00749991
0.2,8.3,0,0.00743675
0.2,8.4,0,0.00734783
0.2,8.5,0,0.00725787
0.2,8.6,0,0.00716839
0.2,8.7,0,0.00707891
0.2,8.8,0,0.00698742
0.2,8.9,0,0.00687181
0.2,9,0,0.0067563
0.2,9.1,0,0.00664144
0.2,9.2,0,0.00652659
0.2,9.3,0,0.00640697
0.2,9.4,0,0.00626738
0.2,9.5,0,0.00612805
0.2,9.6,0,0.00598956
0.2,9.7,0,0.00585107
0.2,9.8,0,0.00570558
0.2,9.9,0,0.00554434
0.2,10,0,0.00538361
0.2,10.1,0,0.00522383
0.2,10.2,0,0.00506405
0.2,10.3,0,0.00489572
0.2,10.4,0,0.00471573
0.2,10.5,0,0.00453656
0.2,10.6,0,0.00435831
0.2,10.7,0,0.00418007
0.2,10.8,0,0.00399259
0.2,10.9,0,0.00379719
0.2,11,0,0.00360295
0.2,11.1,0,0.00340952
0.2,11.2,0,0.0032161
0.2,11.3,0,0.00301338
0.2,11.4,0,0.00280575
0.2,11.5,0,0.00259966
0.2,11.6,0,0.00239423
0.2,11.7,0,0.00218879
0.2,11.8,0,0.00197549
0.2,11.9,0,0.00175983
0.2,12,0,0.00154417
0.2,12.1,0,0.00132792
0.2,12.2,0,0.00111155
0.2,12.3,0,0.00093953
0.2,12.4,0,0.000773968
0.2,12.5,0,0.000608407
0.2,12.6,0,0.000387647
0.2,12.7,0,0.000163842
0.3,0,0,8.23706e-05
0.3,0.1,0,0.000248022
0.3,0.2,0,0.000413673
0.3,0.3,0,0.000578434
0.3,0.4,0,0.000703571
0.3,0.5,0,0.000831861
0.3,0.6,0,0.000997113
0.3,0.7,0,0.00116237
0.3,0.8,0,0.00132756
0.3,0.9,0,0.00149246
0.3,1,0,0.00165693
0.3,1.1,0,0.00181961
0.3,1.2,0,0.00198228
0.3,1.3,0,0.00214449
0.3,1.4,0,0.0023055
0.3,1.5,0,0.00246596
0.3,1.6,0,0.00262525
0.3,1.7,0,0.00278455
0.3,1.8,0,0.00294316
0.3,1.9,0,0.00310081
0.3,2,0,0.00325678
0.3,2.1,0,0.00341079
0.3,2.2,0,0.0035648
0.3,2.3,0,0.00371837
0.3,2.4,0,0.00387154
0.3,2.5,0,0.00402133
0.3,2.6,0,0.00416863
0.3,2.7,0,0.00431594
0.3,2.8,0,0.00446262
0.3,2.9,0,0.00460894
0.3,3,0,0.00475003
0.3,3.1,0,0.00488878
0.3,3.2,0,0.00502753
0.3,3.3,0,0.00516542
0.3,3.4,0,0.00530302
0.3,3.5,0,0.00543301
0.3,3.6,0,0.00556118
0.3,3.7,0,0.00568936
0.3,3.8,0,0.0058164
0.3,3.9,0,0.00594329
0.3,4,0,0.00605958
0.3,4.1,0,0.00617498
0.3,4.2,0,0.00629039
0.3,4.3,0,0.00640443
0.3,4.4,0,0.00651793
0.3,4.5,0,0.00661821
0.3,4.6,0,0.00671848
0.3,4.7,0,0.00681861
0.3,4.8,0,0.00691755
0.3,4.9,0,0.00701399
0.3,5,0,0.0070967
0.3,5.1,0,0.00717941
0.3,5.2,0,0.00726186
0.3,5.3,0,0.00734337
0.3,5.4,0,0.00741982
0.3,5.5,0,0.00748254
0.3,5.6,0,0.00754526
0.3,5.7,0,0.00760764
0.3,5.8,0,0.00766938
0.3,5.9,0,0.00772291
0.3,6,0,0.00776332
0.3,6.1,0,0.00780372
0.3,6.2,0,0.00784379
0.3,6.3,0,0.00788345
0.3,6.4,0,0.00791139
0.3,6.5,0,0.00792761
0.3,6.6,0,0.00794383
0.3,6.7,0,0.00795975
0.3,6.8,0,0.00797543
0.3,6.9,0,0.00797556
0.3,7,0,0.00796597
0.3,7.1,0,0.00795637
0.3,7.2,0,0.00794656
0.3,7.3,0,0.00793665
0.3,7.4,0,0.00790737
0.3,7.5,0,0.00787095
0.3,7.6,0,0.00783454
0.3,7.7,0,0.00779806
0.3,7.8,0,0.00776156
0.3,7.9,0,0.00770234
0.3,8,0,0.007639
0.3,8.1,0,0.00757565
0.3,8.2,0,0.00751248
0.3,8.3,0,0.00744932
0.3,8.4,0,0.0073604
0.3,8.5,0,0.00727044
0.3,8.6,0,0.0071805
0.3,8.7,0,0.00709102
0.3,8.8,0,0.00699953
0.3,8.9,0,0.00688392
0.3,9,0,0.00676831
0.3,9.1,0,0.00665282
0.3,9.2,0,0.00653796
0.3,9.3,0,0.00641835
0.3,9.4,0,0.00627875
0.3,9.5,0,0.00613916
0.3,9.6,0,0.00599986
0.3,9.7,0,0.00586137
0.3,9.8,0,0.00571588
0.3,9.9,0,0.00555464
0.3,10,0,0.0053934
0.3,10.1,0,0.0052327
0.3,10.2,0,0.00507292
0.3,10.3,0,0.00490459
0.3,10.4,0,0.0047246
0.3,10.5,0,0.00454461
0.3,10.6,0,0.00436549
0.3,10.7,0,0.00418724
0.3,10.8,0,0.00399976
0.3,10.9,0,0.00380436
0.3,11,0,0.00360896
0.3,11.1,0,0.00341477
0.3,11.2,0,0.00322134
0.3,11.3,0,0.00301863
0.3,11.4,0,0.002811
0.3,11.5,0,0.00260336
0.3,11.6,0,0.00239732
0.3,11.7,0,0.00219189
0.3,11.8,0,0.00197859
0.3,11.9,0,0.00176293
0.3,12,0,0.00154669
0.3,12.1,0,0.00133033
0.3,12.2,0,0.00111396
0.3,12.3,0,0.000941637
0.3,12.4,0,0.000776076
0.3,12.5,0,0.000556839
0.3,12.6,0,0.000333033
0.3,12.7,0,0.000109228
0.4,0,0,4.11853e-05
0.4,0.1,0,0.000206836
0.4,0.2,0,0.000372487
0.4,0.3,0,0.000538138
0.4,0.4,0,0.000702604
0.4,0.5,0,0.000830402
0.4,0.6,0,0.000995654
0.4,0.7,0,0.00116091
0.4,0.8,0,0.00132616
0.4,0.9,0,0.00149135
0.4,1,0,0.00165585
0.4,1.1,0,0.00181852
0.4,1.2,0,0.0019812
0.4,1.3,0,0.00214388
0.4,1.4,0,0.00230605
0.4,1.5,0,0.00246652
0.4,1.6,0,0.00262581
0.4,1.7,0,0.0027851
0.4,1.8,0,0.0029444
0.4,1.9,0,0.00310297
0.4,2,0,0.00325894
0.4,2.1,0,0.00341295
0.4,2.2,0,0.00356696
0.4,2.3,0,0.00372098
0.4,2.4,0,0.00387452
0.4,2.5,0,0.00402431
0.4,2.6,0,0.00417162
0.4,2.7,0,0.00431893
0.4,2.8,0,0.00446623
0.4,2.9,0,0.00461288
0.4,3,0,0.00475397
0.4,3.1,0,0.00489272
0.4,3.2,0,0.00503148
0.4,3.3,0,0.00517023
0.4,3.4,0,0.00530809
0.4,3.5,0,0.00543807
0.4,3.6,0,0.00556625
0.4,3.7,0,0.00569442
0.4,3.8,0,0.00582259
0.4,3.9,0,0.00594961
0.4,4,0,0.00606589
0.4,4.1,0,0.0061813
0.4,4.2,0,0.00629671
0.4,4.3,0,0.00641209
0.4,4.4,0,0.00652559
0.4,4.5,0,0.00662587
0.4,4.6,0,0.00672614
0.4,4.7,0,0.00682642
0.4,4.8,0,0.00692652
0.4,4.9,0,0.00702296
0.4,5,0,0.00710567
0.4,5.1,0,0.00718838
0.4,5.2,0,0.00727109
0.4,5.3,0,0.00735351
0.4,5.4,0,0.00742996
0.4,5.5,0,0.00749268
0.4,5.6,0,0.0075554
0.4,5.7,0,0.00761812
0.4,5.8,0,0.00768048
0.4,5.9,0,0.00773401
0.4,6,0,0.00777442
0.4,6.1,0,0.00781483
0.4,6.2,0,0.00785524
0.4,6.3,0,0.00789529
0.4,6.4,0,0.00792323
0.4,6.5,0,0.00793945
0.4,6.6,0,0.00795567
0.4,6.7,0,0.00797189
0.4,6.8,0,0.0079878
0.4,6.9,0,0.00798792
0.4,7,0,0.00797833
0.4,7.1,0,0.00796874
0.4,7.2,0,0.00795914
0.4,7.3,0,0.00794932
0.4,7.4,0,0.00792004
0.4,7.5,0,0.00788363
0.4,7.6,0,0.00784722
0.4,7.7,0,0.00781081
0.4,7.8,0,0.00777432
0.4,7.9,0,0.00771511
0.4,8,0,0.00765176
0.4,8.1,0,0.00758841
0.4,8.2,0,0.00752506
0.4,8.3,0,0.0074619
0.4,8.4,0,0.00737297
0.4,8.5,0,0.00728301
0.4,8.6,0,0.00719305
0.4,8.7,0,0.00710312
0.4,8.8,0,0.00701163
0.4,8.9,0,0.00689603
0.4,9,0,0.00678042
0.4,9.1,0,0.00666481
0.4,9.2,0,0.00654933
0.4,9.3,0,0.00642972
0.4,9.4,0,0.00629013
0.4,9.5,0,0.00615054
0.4,9.6,0,0.00601094
0.4,9.7,0,0.00587166
0.4,9.8,0,0.00572617
0.4,9.9,0,0.00556493
0.4,10,0,0.00540369
0.4,10.1,0,0.00524245
0.4,10.2,0,0.00508179
0.4,10.3,0,0.00491346
0.4,10.4,0,0.00473347
0.4,10.5,0,0.00455349
0.4,10.6,0,0.0043735
0.4,10.7,0,0.00419441
0.4,10.8,0,0.00400693
0.4,10.9,0,0.00381153
0.4,11,0,0.00361614
0.4,11.1,0,0.00342074
0.4,11.2,0,0.00322658
0.4,11.3,0,0.00302387
0.4,11.4,0,0.00281624
0.4,11.5,0,0.00260861
0.4,11.6,0,0.00240098
0.4,11.7,0,0.00219498
0.4,11.8,0,0.00198168
0.4,11.9,0,0.00176546
0.4,12,0,0.0015491
0.4,12.1,0,0.00133273
0.4,12.2,0,0.00111637
0.4,12.3,0,0.000943744
0.4,12.4,0,0.00072603
0.4,12.5,0,0.000502225
0.4,12.6,0,0.000278419
0.4,12.7,0,5.46139e-05
0.5,0,0,0
0.5,0.1,0,0.000165802
0.5,0.2,0,0.000331605
0.5,0.3,0,0.000497407
0.5,0.4,0,0.00066321
0.5,0.5,0,0.000828985
0.5,0.6,0,0.00099422
0.5,0.7,0,0.00115946
0.5,0.8,0,0.0013247
0.5,0.9,0,0.00148995
0.5,1,0,0.00165477
0.5,1.1,0,0.00181744
0.5,1.2,0,0.00198012
0.5,1.3,0,0.0021428
0.5,1.4,0,0.00230547
0.5,1.5,0,0.00246707
0.5,1.6,0,0.00262637
0.5,1.7,0,0.00278566
0.5,1.8,0,0.00294495
0.5,1.9,0,0.00310425
0.5,2,0,0.0032611
0.5,2.1,0,0.00341511
0.5,2.2,0,0.00356913
0.5,2.3,0,0.00372314
0.5,2.4,0,0.00387715
0.5,2.5,0,0.0040273
0.5,2.6,0,0.0041746
0.5,2.7,0,0.00432191
0.5,2.8,0,0.00446922
0.5,2.9,0,0.00461652
0.5,3,0,0.00475791
0.5,3.1,0,0.00489666
0.5,3.2,0,0.00503542
0.5,3.3,0,0.00517417
0.5,3.4,0,0.00531293
0.5,3.5,0,0.00544313
0.5,3.6,0,0.00557131
0.5,3.7,0,0.00569948
0.5,3.8,0,0.00582765
0.5,3.9,0,0.00595582
0.5,4,0,0.00607221
0.5,4.1,0,0.00618762
0.5,4.2,0,0.00630302
0.5,4.3,0,0.00641843
0.5,4.4,0,0.00653325
0.5,4.5,0,0.00663353
0.5,4.6,0,0.0067338
0.5,4.7,0,0.00683408
0.5,4.8,0,0.00693435
0.5,4.9,0,0.00703193
0.5,5,0,0.00711464
0.5,5.1,0,0.00719735
0.5,5.2,0,0.00728006
0.5,5.3,0,0.00736278
0.5,5.4,0,0.00744011
0.5,5.5,0,0.00750282
0.5,5.6,0,0.00756554
0.5,5.7,0,0.00762826
0.5,5.8,0,0.00769098
0.5,5.9,0,0.00774512
0.5,6,0,0.00778553
0.5,6.1,0,0.00782593
0.5,6.2,0,0.00786634
0.5,6.3,0,0.00790675
0.5,6.4,0,0.00793507
0.5,6.5,0,0.00795129
0.5,6.6,0,0.00796751
0.5,6.7,0,0.00798373
0.5,6.8,0,0.00799995
0.5,6.9,0,0.00800029
0.5,7,0,0.00799069
0.5,7.1,0,0.0079811
0.5,7.2,0,0.00797151
0.5,7.3,0,0.00796191
0.5,7.4,0,0.00793272
0.5,7.5,0,0.00789631
0.5,7.6,0,0.0078599
0.5,7.7,0,0.00782348
0.5,7.8,0,0.00778707
0.5,7.9,0,0.00772787
0.5,8,0,0.00766452
0.5,8.1,0,0.00760117
0.5,8.2,0,0.00753782
0.5,8.3,0,0.00747448
0.5,8.4,0,0.00738554
0.5,8.5,0,0.00729558
0.5,8.6,0,0.00720563
0.5,8.7,0,0.00711567
0.5,8.8,0,0.00702374
0.5,8.9,0,0.00690813
0.5,9,0,0.00679253
0.5,9.1,0,0.00667692
0.5,9.2,0,0.00656131
0.5,9.3,0,0.0064411
0.5,9.4,0,0.0063015
0.5,9.5,0,0.00616191
0.5,9.6,0,0.00602232
0.5,9.7,0,0.00588272
0.5,9.8,0,0.00573647
0.5,9.9,0,0.00557523
0.5,10,0,0.00541399
0.5,10.1,0,0.00525275
0.5,10.2,0,0.00509151
0.5,10.3,0,0.00492233
0.5,10.4,0,0.00474235
0.5,10.5,0,0.00456236
0.5,10.6,0,0.00438237
0.5,10.7,0,0.00420239
0.5,10.8,0,0.0040141
0.5,10.9,0,0.0038187
0.5,11,0,0.00362331
0.5,11.1,0,0.00342791
0.5,11.2,0,0.00323251
0.5,11.3,0,0.00302911
0.5,11.4,0,0.00282148
0.5,11.5,0,0.00261385
0.5,11.6,0,0.00240622
0.5,11.7,0,0.00219859
0.5,11.8,0,0.00198425
0.5,11.9,0,0.00176791
0.5,12,0,0.00155156
0.5,12.1,0,0.00133521
0.5,12.2,0,0.00111887
0.5,12.3,0,0.000895894
0.5,12.4,0,0.00067192
0.5,12.5,0,0.000447947
0.5,12.6,0,0.000223973
0.5,12.7,0,0
0.6,0,0,0
0.6,0.1,0,0.000166529
0.6,0.2,0,0.000332331
0.6,0.3,0,0.000498134
0.6,0.4,0,0.000663936
0.6,0.5,0,0.00082972
0.6,0.6,0,0.000995136
0.6,0.7,0,0.00116037
0.6,0.8,0,0.00132561
0.6,0.9,0,0.00149084
0.6,1,0,0.00165622
0.6,1.1,0,0.00182167
0.6,1.2,0,0.00198435
0.6,1.3,0,0.00214704
0.6,1.4,0,0.00230972
0.6,1.5,0,0.00247231
0.6,1.6,0,0.00263362
0.6,1.7,0,0.00279293
0.6,1.8,0,0.00295223
0.6,1.9,0,0.00311154
0.6,2,0,0.00326939
0.6,2.1,0,0.00342451
0.6,2.2,0,0.00357852
0.6,2.3,0,0.00373253
0.6,2.4,0,0.00388654
0.6,2.5,0,0.00403833
0.6,2.6,0,0.00418678
0.6,2.7,0,0.00433408
0.6,2.8,0,0.00448139
0.6,2.9,0,0.0046287
0.6,3,0,0.00477227
0.6,3.1,0,0.00491192
0.6,3.2,0,0.00505067
0.6,3.3,0,0.00518943
0.6,3.4,0,0.00532818
0.6,3.5,0,0.00546116
0.6,3.6,0,0.00558991
0.6,3.7,0,0.00571808
0.6,3.8,0,0.00584625
0.6,3.9,0,0.00597442
0.6,4,0,0.00609418
0.6,4.1,0,0.00620978
0.6,4.2,0,0.00632518
0.6,4.3,0,0.00644059
0.6,4.4,0,0.00655555
0.6,4.5,0,0.0066593
0.6,4.6,0,0.00675958
0.6,4.7,0,0.00685986
0.6,4.8,0,0.00696013
0.6,4.9,0,0.00705826
0.6,5,0,0.00714395
0.6,5.1,0,0.00722666
0.6,5.2,0,0.00730937
0.6,5.3,0,0.00739208
0.6,5.4,0,0.00747031
0.6,5.5,0,0.00753538
0.6,5.6,0,0.0075981
0.6,5.7,0,0.00766082
0.6,5.8,0,0.00772354
0.6,5.9,0,0.00777876
0.6,6,0,0.00782085
0.6,6.1,0,0.00786126
0.6,6.2,0,0.00790166
0.6,6.3,0,0.00794207
0.6,6.4,0,0.00797147
0.6,6.5,0,0.00798872
0.6,6.6,0,0.00800494
0.6,6.7,0,0.00802117
0.6,6.8,0,0.00803739
0.6,6.9,0,0.00803856
0.6,7,0,0.00802946
0.6,7.1,0,0.00801986
0.6,7.2,0,0.00801027
0.6,7.3,0,0.00800068
0.6,7.4,0,0.00797181
0.6,7.5,0,0.0079355
0.6,7.6,0,0.00789909
0.6,7.7,0,0.00786268
0.6,7.8,0,0.00782627
0.6,7.9,0,0.0077666
0.6,8,0,0.00770318
0.6,8.1,0,0.00763983
0.6,8.2,0,0.00757649
0.6,8.3,0,0.00751314
0.6,8.4,0,0.00742273
0.6,8.5,0,0.00733275
0.6,8.6,0,0.00724279
0.6,8.7,0,0.00715284
0.6,8.8,0,0.00706071
0.6,8.9,0,0.00694284
0.6,9,0,0.00682724
0.6,9.1,0,0.00671163
0.6,9.2,0,0.00659603
0.6,9.3,0,0.00647514
0.6,9.4,0,0.00633281
0.6,9.5,0,0.00619322
0.6,9.6,0,0.00605362
0.6,9.7,0,0.00591403
0.6,9.8,0,0.00576643
0.6,9.9,0,0.00560225
0.6,10,0,0.00544101
0.6,10.1,0,0.00527976
0.6,10.2,0,0.00511852
0.6,10.3,0,0.00494726
0.6,10.4,0,0.00476453
0.6,10.5,0,0.00458454
0.6,10.6,0,0.00440455
0.6,10.7,0,0.00422456
0.6,10.8,0,0.00403274
0.6,10.9,0,0.00383452
0.6,11,0,0.00363913
0.6,11.1,0,0.00344373
0.6,11.2,0,0.00324833
0.6,11.3,0,0.00304485
0.6,11.4,0,0.00283722
0.6,11.5,0,0.00262959
0.6,11.6,0,0.00242196
0.6,11.7,0,0.0022092
0.6,11.8,0,0.00199326
0.6,11.9,0,0.00177691
0.6,12,0,0.00156057
0.6,12.1,0,0.00134422
0.6,12.2,0,0.0011217
0.6,12.3,0,0.000897768
0.6,12.4,0,0.000673795
0.6,12.5,0,0.000449821
0.6,12.6,0,0.000225848
0.6,12.7,0,0
0.7,0,0,0
0.7,0.1,0,0.000166534
0.7,0.2,0,0.000333057
0.7,0.3,0,0.00049886
0.7,0.4,0,0.000664662
0.7,0.5,0,0.000830448
0.7,0.6,0,0.000995874
0.7,0.7,0,0.00116129
0.7,0.8,0,0.00132652
0.7,0.9,0,0.00149176
0.7,1,0,0.00165712
0.7,1.1,0,0.00182332
0.7,1.2,0,0.00198866
0.7,1.3,0,0.00215135
0.7,1.4,0,0.00231403
0.7,1.5,0,0.00247662
0.7,1.6,0,0.00263901
0.7,1.7,0,0.00280023
0.7,1.8,0,0.00295954
0.7,1.9,0,0.00311885
0.7,2,0,0.0032767
0.7,2.1,0,0.00343284
0.7,2.2,0,0.00358791
0.7,2.3,0,0.00374192
0.7,2.4,0,0.00389593
0.7,2.5,0,0.00404772
0.7,2.6,0,0.00419788
0.7,2.7,0,0.00434626
0.7,2.8,0,0.00449356
0.7,2.9,0,0.00464087
0.7,3,0,0.00478444
0.7,3.1,0,0.00492635
0.7,3.2,0,0.00506592
0.7,3.3,0,0.00520468
0.7,3.4,0,0.00534343
0.7,3.5,0,0.00547641
0.7,3.6,0,0.00560801
0.7,3.7,0,0.00573668
0.7,3.8,0,0.00586485
0.7,3.9,0,0.00599303
0.7,4,0,0.00611278
0.7,4.1,0,0.00623183
0.7,4.2,0,0.00634734
0.7,4.3,0,0.00646275
0.7,4.4,0,0.00657772
0.7,4.5,0,0.00668169
0.7,4.6,0,0.00678536
0.7,4.7,0,0.00688563
0.7,4.8,0,0.00698591
0.7,4.9,0,0.00708404
0.7,5,0,0.00717036
0.7,5.1,0,0.00725597
0.7,5.2,0,0.00733868
0.7,5.3,0,0.00742139
0.7,5.4,0,0.00749962
0.7,5.5,0,0.00756566
0.7,5.6,0,0.00763065
0.7,5.7,0,0.00769337
0.7,5.8,0,0.00775609
0.7,5.9,0,0.00781132
0.7,6,0,0.00785456
0.7,6.1,0,0.00789658
0.7,6.2,0,0.00793699
0.7,6.3,0,0.00797739
0.7,6.4,0,0.00800679
0.7,6.5,0,0.00802518
0.7,6.6,0,0.00804238
0.7,6.7,0,0.0080586
0.7,6.8,0,0.00807482
0.7,6.9,0,0.008076
0.7,7,0,0.00806776
0.7,7.1,0,0.00805863
0.7,7.2,0,0.00804903
0.7,7.3,0,0.00803944
0.7,7.4,0,0.00801057
0.7,7.5,0,0.0079746
0.7,7.6,0,0.00793829
0.7,7.7,0,0.00790187
0.7,7.8,0,0.00786546
0.7,7.9,0,0.0078058
0.7,8,0,0.0077419
0.7,8.1,0,0.0076785
0.7,8.2,0,0.00761515
0.7,8.3,0,0.0075518
0.7,8.4,0,0.0074614
0.7,8.5,0,0.00736992
0.7,8.6,0,0.00727996
0.7,8.7,0,0.00719001
0.7,8.8,0,0.00709788
0.7,8.9,0,0.00697976
0.7,9,0,0.00686195
0.7,9.1,0,0.00674634
0.7,9.2,0,0.00663074
0.7,9.3,0,0.00650985
0.7,9.4,0,0.00636677
0.7,9.5,0,0.00622452
0.7,9.6,0,0.00608493
0.7,9.7,0,0.00594534
0.7,9.8,0,0.00579773
0.7,9.9,0,0.0056321
0.7,10,0,0.00546802
0.7,10.1,0,0.00530678
0.7,10.2,0,0.00514554
0.7,10.3,0,0.00497427
0.7,10.4,0,0.00478933
0.7,10.5,0,0.00460672
0.7,10.6,0,0.00442673
0.7,10.7,0,0.00424674
0.7,10.8,0,0.00405491
0.7,10.9,0,0.00385294
0.7,11,0,0.00365495
0.7,11.1,0,0.00345955
0.7,11.2,0,0.00326415
0.7,11.3,0,0.00306059
0.7,11.4,0,0.00285296
0.7,11.5,0,0.00264532
0.7,11.6,0,0.0024327
0.7,11.7,0,0.00221822
0.7,11.8,0,0.00200227
0.7,11.9,0,0.00178592
0.7,12,0,0.00156958
0.7,12.1,0,0.00134721
0.7,12.2,0,0.00112358
0.7,12.3,0,0.000899643
0.7,12.4,0,0.000675669
0.7,12.5,0,0.000451696
0.7,12.6,0,0.000225886
0.7,12.7,0,0
0.8,0,0,0
0.8,0.1,0,0.000166534
0.8,0.2,0,0.000333068
0.8,0.3,0,0.000499586
0.8,0.4,0,0.000665389
0.8,0.5,0,0.000831177
0.8,0.6,0,0.000996603
0.8,0.7,0,0.00116203
0.8,0.8,0,0.00132744
0.8,0.9,0,0.00149267
0.8,1,0,0.00165802
0.8,1.1,0,0.00182422
0.8,1.2,0,0.00199043
0.8,1.3,0,0.00215566
0.8,1.4,0,0.00231834
0.8,1.5,0,0.00248094
0.8,1.6,0,0.00264332
0.8,1.7,0,0.00280571
0.8,1.8,0,0.00296684
0.8,1.9,0,0.00312615
0.8,2,0,0.003284
0.8,2.1,0,0.00344015
0.8,2.2,0,0.0035963
0.8,2.3,0,0.00375131
0.8,2.4,0,0.00390533
0.8,2.5,0,0.00405711
0.8,2.6,0,0.00420727
0.8,2.7,0,0.00435742
0.8,2.8,0,0.00450574
0.8,2.9,0,0.00465304
0.8,3,0,0.00479661
0.8,3.1,0,0.00493852
0.8,3.2,0,0.00508042
0.8,3.3,0,0.00521993
0.8,3.4,0,0.00535868
0.8,3.5,0,0.00549166
0.8,3.6,0,0.00562326
0.8,3.7,0,0.00575486
0.8,3.8,0,0.00588346
0.8,3.9,0,0.00601163
0.8,4,0,0.00613138
0.8,4.1,0,0.00625043
0.8,4.2,0,0.00636948
0.8,4.3,0,0.00648491
0.8,4.4,0,0.00659988
0.8,4.5,0,0.00670386
0.8,4.6,0,0.00680783
0.8,4.7,0,0.00691141
0.8,4.8,0,0.00701169
0.8,4.9,0,0.00710982
0.8,5,0,0.00719614
0.8,5.1,0,0.00728247
0.8,5.2,0,0.00736799
0.8,5.3,0,0.0074507
0.8,5.4,0,0.00752892
0.8,5.5,0,0.00759497
0.8,5.6,0,0.00766101
0.8,5.7,0,0.00772593
0.8,5.8,0,0.00778865
0.8,5.9,0,0.00784387
0.8,6,0,0.00788711
0.8,6.1,0,0.00793035
0.8,6.2,0,0.00797231
0.8,6.3,0,0.00801272
0.8,6.4,0,0.00804211
0.8,6.5,0,0.0080605
0.8,6.6,0,0.00807888
0.8,6.7,0,0.00809604
0.8,6.8,0,0.00811226
0.8,6.9,0,0.00811343
0.8,7,0,0.0081052
0.8,7.1,0,0.00809696
0.8,7.2,0,0.0080878
0.8,7.3,0,0.0080782
0.8,7.4,0,0.00804934
0.8,7.5,0,0.00801336
0.8,7.6,0,0.00797739
0.8,7.7,0,0.00794107
0.8,7.8,0,0.00790466
0.8,7.9,0,0.00784499
0.8,8,0,0.0077811
0.8,8.1,0,0.00771721
0.8,8.2,0,0.00765381
0.8,8.3,0,0.00759046
0.8,8.4,0,0.00750006
0.8,8.5,0,0.00740857
0.8,8.6,0,0.00731713
0.8,8.7,0,0.00722717
0.8,8.8,0,0.00713505
0.8,8.9,0,0.00701693
0.8,9,0,0.00689881
0.8,9.1,0,0.00678106
0.8,9.2,0,0.00666545
0.8,9.3,0,0.00654456
0.8,9.4,0,0.00640148
0.8,9.5,0,0.0062584
0.8,9.6,0,0.00611624
0.8,9.7,0,0.00597664
0.8,9.8,0,0.00582904
0.8,9.9,0,0.00566341
0.8,10,0,0.00549778
0.8,10.1,0,0.0053338
0.8,10.2,0,0.00517256
0.8,10.3,0,0.00500129
0.8,10.4,0,0.00481635
0.8,10.5,0,0.00463141
0.8,10.6,0,0.00444891
0.8,10.7,0,0.00426892
0.8,10.8,0,0.00407709
0.8,10.9,0,0.00387511
0.8,11,0,0.00367313
0.8,11.1,0,0.00347537
0.8,11.2,0,0.00327997
0.8,11.3,0,0.00307632
0.8,11.4,0,0.00286869
0.8,11.5,0,0.00265621
0.8,11.6,0,0.00244173
0.8,11.7,0,0.00222725
0.8,11.8,0,0.00201128
0.8,11.9,0,0.00179493
0.8,12,0,0.00157272
0.8,12.1,0,0.00134909
0.8,12.2,0,0.00112546
0.8,12.3,0,0.000901517
0.8,12.4,0,0.000677544
0.8,12.5,0,0.000451772
0.8,12.6,0,0.000225886
0.8,12.7,0,0
0.9,0,0,0
0.9,0.1,0,0.000166534
0.9,0.2,0,0.000333068
0.9,0.3,0,0.000499602
0.9,0.4,0,0.000666115
0.9,0.5,0,0.000831905
0.9,0.6,0,0.000997331
0.9,0.7,0,0.00116276
0.9,0.8,0,0.00132818
0.9,0.9,0,0.00149359
0.9,1,0,0.00165892
0.9,1.1,0,0.00182512
0.9,1.2,0,0.00199132
0.9,1.3,0,0.00215753
0.9,1.4,0,0.00232265
0.9,1.5,0,0.00248525
0.9,1.6,0,0.00264763
0.9,1.7,0,0.00281002
0.9,1.8,0,0.0029724
0.9,1.9,0,0.00313345
0.9,2,0,0.0032913
0.9,2.1,0,0.00344745
0.9,2.2,0,0.0036036
0.9,2.3,0,0.00375975
0.9,2.4,0,0.00391472
0.9,2.5,0,0.0040665
0.9,2.6,0,0.00421666
0.9,2.7,0,0.00436681
0.9,2.8,0,0.00451697
0.9,2.9,0,0.00466522
0.9,3,0,0.00480878
0.9,3.1,0,0.00495069
0.9,3.2,0,0.0050926
0.9,3.3,0,0.0052345
0.9,3.4,0,0.00537394
0.9,3.5,0,0.00550691
0.9,3.6,0,0.00563851
0.9,3.7,0,0.00577011
0.9,3.8,0,0.00590171
0.9,3.9,0,0.00603023
0.9,4,0,0.00614998
0.9,4.1,0,0.00626903
0.9,4.2,0,0.00638808
0.9,4.3,0,0.00650707
0.9,4.4,0,0.00662204
0.9,4.5,0,0.00672602
0.9,4.6,0,0.00682999
0.9,4.7,0,0.00693397
0.9,4.8,0,0.00703747
0.9,4.9,0,0.0071356
0.9,5,0,0.00722192
0.9,5.1,0,0.00730825
0.9,5.2,0,0.00739457
0.9,5.3,0,0.00748001
0.9,5.4,0,0.00755823
0.9,5.5,0,0.00762428
0.9,5.6,0,0.00769032
0.9,5.7,0,0.00775636
0.9,5.8,0,0.0078212
0.9,5.9,0,0.00787643
0.9,6,0,0.00791967
0.9,6.1,0,0.00796291
0.9,6.2,0,0.00800615
0.9,6.3,0,0.00804804
0.9,6.4,0,0.00807743
0.9,6.5,0,0.00809582
0.9,6.6,0,0.0081142
0.9,6.7,0,0.00813259
0.9,6.8,0,0.00814969
0.9,6.9,0,0.00815087
0.9,7,0,0.00814263
0.9,7.1,0,0.0081344
0.9,7.2,0,0.00812617
0.9,7.3,0,0.00811697
0.9,7.4,0,0.0080881
0.9,7.5,0,0.00805213
0.9,7.6,0,0.00801616
0.9,7.7,0,0.00798018
0.9,7.8,0,0.00794385
0.9,7.9,0,0.00788419
0.9,8,0,0.00782029
0.9,8.1,0,0.0077564
0.9,8.2,0,0.00769251
0.9,8.3,0,0.00762913
0.9,8.4,0,0.00753872
0.9,8.5,0,0.00744723
0.9,8.6,0,0.00735575
0.9,8.7,0,0.00726434
0.9,8.8,0,0.00717222
0.9,8.9,0,0.0070541
0.9,9,0,0.00693598
0.9,9.1,0,0.00681786
0.9,9.2,0,0.00670016
0.9,9.3,0,0.00657927
0.9,9.4,0,0.00643619
0.9,9.5,0,0.00629312
0.9,9.6,0,0.00615004
0.9,9.7,0,0.00600795
0.9,9.8,0,0.00586035
0.9,9.9,0,0.00569471
0.9,10,0,0.00552908
0.9,10.1,0,0.00536345
0.9,10.2,0,0.00519958
0.9,10.3,0,0.00502831
0.9,10.4,0,0.00484337
0.9,10.5,0,0.00465843
0.9,10.6,0,0.00447349
0.9,10.7,0,0.0042911
0.9,10.8,0,0.00409927
0.9,10.9,0,0.00389729
0.9,11,0,0.00369531
0.9,11.1,0,0.00349333
0.9,11.2,0,0.00329579
0.9,11.3,0,0.00309206
0.9,11.4,0,0.00287972
0.9,11.5,0,0.00266524
0.9,11.6,0,0.00245076
0.9,11.7,0,0.00223628
0.9,11.8,0,0.00202029
0.9,11.9,0,0.00179823
0.9,12,0,0.0015746
0.9,12.1,0,0.00135097
0.9,12.2,0,0.00112734
0.9,12.3,0,0.000903391
0.9,12.4,0,0.000677659
0.9,12.5,0,0.000451772
0.9,12.6,0,0.000225886
0.9,12.7,0,0
1,0,0,0
1,0.1,0,0.000166534
1,0.2,0,0.000333068
1,0.3,0,0.000499602
1,0.4,0,0.000666136
1,0.5,0,0.000832633
1,0.6,0,0.000998059
1,0.7,0,0.00116349
1,0.8,0,0.00132891
1,0.9,0,0.00149434
1,1,0,0.00165982
1,1.1,0,0.00182602
1,1.2,0,0.00199222
1,1.3,0,0.00215843
1,1.4,0,0.00232463
1,1.5,0,0.00248956
1,1.6,0,0.00265195
1,1.7,0,0.00281433
1,1.8,0,0.00297672
1,1.9,0,0.0031391
1,2,0,0.00329861
1,2.1,0,0.00345476
1,2.2,0,0.00361091
1,2.3,0,0.00376706
1,2.4,0,0.0039232
1,2.5,0,0.00407589
1,2.6,0,0.00422605
1,2.7,0,0.0043762
1,2.8,0,0.00452636
1,2.9,0,0.00467651
1,3,0,0.00482096
1,3.1,0,0.00496286
1,3.2,0,0.00510477
1,3.3,0,0.00524668
1,3.4,0,0.00538858
1,3.5,0,0.00552217
1,3.6,0,0.00565377
1,3.7,0,0.00578537
1,3.8,0,0.00591697
1,3.9,0,0.00604857
1,4,0,0.00616858
1,4.1,0,0.00628763
1,4.2,0,0.00640668
1,4.3,0,0.00652573
1,4.4,0,0.0066442
1,4.5,0,0.00674818
1,4.6,0,0.00685216
1,4.7,0,0.00695613
1,4.8,0,0.00706011
1,4.9,0,0.00716137
1,5,0,0.0072477
1,5.1,0,0.00733402
1,5.2,0,0.00742035
1,5.3,0,0.00750668
1,5.4,0,0.00758754
1,5.5,0,0.00765358
1,5.6,0,0.00771963
1,5.7,0,0.00778567
1,5.8,0,0.00785171
1,5.9,0,0.00790899
1,6,0,0.00795222
1,6.1,0,0.00799546
1,6.2,0,0.0080387
1,6.3,0,0.00808194
1,6.4,0,0.00811276
1,6.5,0,0.00813114
1,6.6,0,0.00814953
1,6.7,0,0.00816791
1,6.8,0,0.0081863
1,6.9,0,0.0081883
1,7,0,0.00818007
1,7.1,0,0.00817183
1,7.2,0,0.0081636
1,7.3,0,0.00815537
1,7.4,0,0.00812686
1,7.5,0,0.00809089
1,7.6,0,0.00805492
1,7.7,0,0.00801895
1,7.8,0,0.00798298
1,7.9,0,0.00792338
1,8,0,0.00785949
1,8.1,0,0.00779559
1,8.2,0,0.0077317
1,8.3,0,0.00766781
1,8.4,0,0.00757738
1,8.5,0,0.0074859
1,8.6,0,0.00739441
1,8.7,0,0.00730292
1,8.8,0,0.00720939
1,8.9,0,0.00709127
1,9,0,0.00697315
1,9.1,0,0.00685503
1,9.2,0,0.0067369
1,9.3,0,0.00661398
1,9.4,0,0.00647091
1,9.5,0,0.00632783
1,9.6,0,0.00618475
1,9.7,0,0.00604167
1,9.8,0,0.00589165
1,9.9,0,0.00572602
1,10,0,0.00556039
1,10.1,0,0.00539476
1,10.2,0,0.00522913
1,10.3,0,0.00505533
1,10.4,0,0.00487039
1,10.5,0,0.00468545
1,10.6,0,0.00450051
1,10.7,0,0.00431557
1,10.8,0,0.00412145
1,10.9,0,0.00391947
1,11,0,0.00371749
1,11.1,0,0.00351551
1,11.2,0,0.00331353
1,11.3,0,0.00310322
1,11.4,0,0.00288875
1,11.5,0,0.00267427
1,11.6,0,0.00245979
1,11.7,0,0.00224531
1,11.8,0,0.00202375
1,11.9,0,0.00180011
1,12,0,0.00157648
1,12.1,0,0.00135285
1,12.2,0,0.00112922
1,12.3,0,0.000903545
1,12.4,0,0.000677659
1,12.5,0,0.000451772
1,12.6,0,0.000225886
1,12.7,0,0
1.1,0,0,0
1.1,0.1,0,0.000166534
1.1,0.2,0,0.000333068
1.1,0.3,0,0.000499602
1.1,0.4,0,0.000666162
1.1,0.5,0,0.000834492
1.1,0.6,0,0.00100396
1.1,0.7,0,0.00116936
1.1,0.8,0,0.00133475
1.1,0.9,0,0.00150015
1.1,1,0,0.00166583
1.1,1.1,0,0.00183428
1.1,1.2,0,0.00200043
1.1,1.3,0,0.00216659
1.1,1.4,0,0.00233274
1.1,1.5,0,0.00249846
1.1,1.6,0,0.00266229
1.1,1.7,0,0.00282476
1.1,1.8,0,0.00298723
1.1,1.9,0,0.00314971
1.1,2,0,0.00331163
1.1,2.1,0,0.00347041
1.1,2.2,0,0.00362656
1.1,2.3,0,0.00378271
1.1,2.4,0,0.00393886
1.1,2.5,0,0.00409414
1.1,2.6,0,0.00424609
1.1,2.7,0,0.00439624
1.1,2.8,0,0.0045464
1.1,2.9,0,0.00469655
1.1,3,0,0.00484466
1.1,3.1,0,0.00498807
1.1,3.2,0,0.00512998
1.1,3.3,0,0.00527189
1.1,3.4,0,0.00541379
1.1,3.5,0,0.00555211
1.1,3.6,0,0.0056847
1.1,3.7,0,0.0058163
1.1,3.8,0,0.0059479
1.1,3.9,0,0.0060795
1.1,4,0,0.00620519
1.1,4.1,0,0.00632457
1.1,4.2,0,0.00644362
1.1,4.3,0,0.00656267
1.1,4.4,0,0.00668138
1.1,4.5,0,0.0067913
1.1,4.6,0,0.00689528
1.1,4.7,0,0.00699925
1.1,4.8,0,0.00710323
1.1,4.9,0,0.00720546
1.1,5,0,0.00729699