/*--------------------------------*- C++ -*----------------------------------*\
| =========                 |                                                 |
| \\      /  F ield         | OpenFOAM: The Open Source CFD Toolbox           |
|  \\    /   O peration     | Version:  v1806                                 |
|   \\  /    A nd           | Web:      www.OpenFOAM.com                      |
|    \\/     M anipulation  |                                                 |
\*---------------------------------------------------------------------------*/
FoamFile
{
    version     2.0;
    format      ascii;
    class       volScalarField;
    location    "7";
    object      p;
}
// * * * * * * * * * * * * * * * * * * * * * * * * * * * * * * * * * * * * * //

dimensions      [0 2 -2 0 0 0 0];


internalField   nonuniform List<scalar> 
2400
(
0.08605
0.0846535
0.0871592
0.0820583
0.0843097
0.078936
0.080902
0.075652
0.0738278
0.0693031
0.0650731
0.0613401
0.0538695
0.0503409
0.0408431
0.0364592
0.0268971
0.0203751
0.0111184
0.00487909
0.257548
0.25519
0.25978
0.248233
0.251051
0.239589
0.241127
0.227856
0.220965
0.208668
0.195622
0.18417
0.16354
0.151021
0.126025
0.108761
0.084004
0.0615741
0.0356723
0.0150737
0.430341
0.428954
0.430083
0.416864
0.416904
0.402933
0.399203
0.381096
0.367939
0.349199
0.327858
0.307651
0.27678
0.252642
0.215382
0.182054
0.143708
0.103138
0.0609432
0.0239373
0.603897
0.605631
0.600599
0.58898
0.584401
0.569162
0.558208
0.535295
0.517303
0.491698
0.463728
0.433456
0.39355
0.356815
0.30858
0.257688
0.206007
0.145538
0.0853464
0.0302098
0.777673
0.786156
0.772798
0.766829
0.754925
0.740604
0.721426
0.694758
0.672262
0.639821
0.605838
0.565029
0.51584
0.464797
0.406692
0.336279
0.272204
0.189468
0.110844
0.033816
0.951573
0.970514
0.94933
0.950342
0.928863
0.920505
0.891892
0.865927
0.837803
0.799005
0.758705
0.707599
0.648073
0.581102
0.511721
0.419782
0.343727
0.235428
0.13978
0.0364241
1.12613
1.15825
1.13201
1.13709
1.10714
1.10746
1.06967
1.05261
1.01082
0.973888
0.921664
0.863606
0.791972
0.709336
0.625512
0.509925
0.419841
0.283138
0.17065
0.0366667
1.30465
1.34813
1.32088
1.32437
1.2905
1.29628
1.25277
1.2466
1.18906
1.16285
1.08877
1.03484
0.943654
0.850706
0.747214
0.60795
0.497099
0.331556
0.197999
0.029948
1.4896
1.53753
1.51216
1.51126
1.4772
1.48489
1.43947
1.44096
1.37334
1.35758
1.26332
1.21844
1.10009
1.00901
0.876453
0.717685
0.578343
0.384675
0.219579
0.0151482
1.68047
1.72396
1.70015
1.69755
1.66462
1.67469
1.63028
1.63635
1.56591
1.55757
1.45132
1.41405
1.27034
1.18468
1.01579
0.849277
0.671244
0.443976
0.238083
-0.00816433
1.87109
1.90691
1.88224
1.88256
1.8528
1.86649
1.82468
1.83428
1.76564
1.76323
1.65052
1.62276
1.46122
1.38217
1.17976
1.00676
0.780708
0.510265
0.254974
-0.050785
2.06091
2.08643
2.06204
2.06653
2.04637
2.0587
2.02238
2.03063
1.96623
1.96841
1.85255
1.84169
1.66591
1.606
1.37052
1.19939
0.914905
0.594814
0.271602
-0.116046
2.25575
2.26218
2.24798
2.25222
2.25117
2.25311
2.23119
2.22416
2.16976
2.16792
2.0544
2.06427
1.87694
1.84749
1.57312
1.43167
1.07163
0.728295
0.290466
-0.198723
2.46006
2.43559
2.43964
2.44474
2.46303
2.45621
2.45487
2.43659
2.40441
2.38955
2.29622
2.29411
2.11228
2.08917
1.78146
1.6785
1.22807
0.930332
0.31216
-0.28692
2.66458
2.60919
2.64081
2.64046
2.68333
2.66525
2.69508
2.67318
2.6826
2.66474
2.61946
2.5715
2.44469
2.34023
2.04573
1.90445
1.38188
1.15705
0.316754
-0.307708
2.85436
2.79257
2.83493
2.83931
2.89475
2.8836
2.93937
2.93017
2.98694
2.96133
2.99614
2.90045
2.86414
2.66943
2.46829
2.15444
1.60394
1.3078
0.265243
-0.253552
3.02683
2.98546
3.018
3.03978
3.09448
3.11186
3.17604
3.1959
3.27574
3.26403
3.35899
3.24673
3.34326
3.07547
3.05952
2.594
2.17045
1.42495
0.235835
-0.42672
3.18757
3.17384
3.19494
3.23214
3.28723
3.33572
3.40266
3.45786
3.54285
3.57702
3.67924
3.63932
3.75654
3.57334
3.6744
3.16671
3.09384
1.91647
0.878676
-0.952229
3.34965
3.34243
3.36695
3.41016
3.47413
3.54058
3.61854
3.70171
3.79611
3.8845
3.98024
4.05928
4.12741
4.15723
4.16707
3.91904
3.89856
2.80854
2.17582
-1.00481
3.50486
3.49189
3.52892
3.57388
3.65076
3.72622
3.82467
3.92572
4.04538
4.16931
4.29714
4.43695
4.5476
4.67158
4.72184
4.72536
4.6417
4.1688
3.68866
0.881137
-0.00470234
-0.0076526
-0.0178639
-0.0208174
-0.0269795
-0.0287806
-0.0320183
-0.033525
-0.0305701
-0.0309508
-0.0125024
-0.0248662
-0.0534137
-0.0622764
-0.0798101
-0.086791
-0.0947042
-0.0993282
-0.0931393
-0.0961048
-0.0226886
-0.0483522
-0.0950088
-0.108186
-0.136622
-0.145512
-0.159014
-0.168983
-0.161013
-0.168028
-0.0380138
-0.080597
-0.147017
-0.162215
-0.201743
-0.20899
-0.228559
-0.240154
-0.230124
-0.243107
-0.0576032
-0.126345
-0.212253
-0.232205
-0.281177
-0.284152
-0.307708
-0.314246
-0.30296
-0.32345
-0.0776071
-0.185544
-0.28991
-0.326208
-0.378893
-0.377115
-0.400233
-0.391964
-0.382067
-0.408791
-0.0950045
-0.256811
-0.372509
-0.443787
-0.49794
-0.491858
-0.506694
-0.469182
-0.467164
-0.499068
-0.118992
-0.342081
-0.449798
-0.575454
-0.627883
-0.624414
-0.625035
-0.543476
-0.552264
-0.583373
-0.165381
-0.450323
-0.538696
-0.716096
-0.749826
-0.760924
-0.732719
-0.60476
-0.625241
-0.63494
-0.241428
-0.592188
-0.683334
-0.887361
-0.880387
-0.896441
-0.792866
-0.618004
-0.645283
-0.597437
-0.354076
-0.769191
-0.91384
-1.14437
-1.09562
-1.04171
-0.795997
-0.557181
-0.563692
-0.428184
-0.519648
-0.995757
-1.24671
-1.51864
-1.45954
-1.24748
-0.803296
-0.427976
-0.348548
-0.151613
-0.743147
-1.33083
-1.71195
-2.03341
-1.98985
-1.57015
-0.86899
-0.277016
-0.0215215
0.184835
-1.03099
-1.8465
-2.39609
-2.78094
-2.69227
-2.01968
-1.06308
-0.20534
0.291111
0.520643
-1.43509
-2.59444
-3.45502
-3.97925
-3.79167
-2.60213
-1.09711
-0.0660619
0.538636
0.696625
-2.06463
-3.72147
-5.08532
-5.9957
-5.76154
-4.31919
-1.91109
-0.0365629
0.786163
0.81739
-3.01375
-5.35875
-7.55285
-8.84751
-8.19609
-5.8546
-2.76027
-0.720759
0.266851
0.479243
-4.39229
-6.73228
-10.8297
-12.1457
-11.2736
-8.19229
-3.58441
-0.511145
0.356909
1.1767
-5.98137
-6.22598
-9.68933
-11.9631
-10.9706
-8.30662
-3.95635
-1.07012
-0.0223544
0.726734
-4.62028
-5.3353
-8.73517
-9.74501
-8.94472
-6.53855
-2.68885
-0.0790142
-0.0687237
0.823117
-0.0329547
-0.0426392
-0.0518734
-0.0939315
-0.0980121
-0.0478927
0.000990899
0.0745436
0.170437
0.212544
0.203505
0.1761
0.143864
0.112596
0.0854045
0.0634293
0.0461482
0.0321615
0.0203976
0.0074744
-0.099343
-0.151921
-0.206282
-0.321714
-0.323526
-0.173776
0.0116357
0.235142
0.442937
0.549474
0.54201
0.477364
0.392003
0.308238
0.235876
0.177029
0.129897
0.0908681
0.0572894
0.0207229
-0.176361
-0.284644
-0.395521
-0.593062
-0.568374
-0.302534
0.0138016
0.350541
0.664356
0.834188
0.835578
0.742711
0.614539
0.486398
0.37408
0.281662
0.206954
0.144566
0.0903259
0.0322256
-0.258086
-0.445366
-0.623756
-0.89795
-0.836321
-0.443441
0.00209783
0.458076
0.856455
1.06525
1.06718
0.95501
0.798255
0.639072
0.49647
0.376523
0.277597
0.193783
0.120086
0.0423537
-0.348226
-0.642258
-0.906518
-1.2743
-1.14685
-0.600674
-0.0123795
0.548998
1.00762
1.25822
1.27644
1.14986
0.96395
0.775095
0.605101
0.461361
0.341366
0.238349
0.146714
0.0512513
-0.445603
-0.883463
-1.24982
-1.71617
-1.49493
-0.772921
-0.0380285
0.629981
1.15243
1.42321
1.43267
1.29653
1.099
0.89238
0.701991
0.537964
0.39915
0.278678
0.170527
0.0590757
-0.558243
-1.18828
-1.68016
-2.27184
-1.90615
-0.968173
-0.0667968
0.705173
1.26023
1.56473
1.58732
1.43796
1.21984
0.993753
0.786171
0.605756
0.450917
0.314935
0.191759
0.0659551
-0.689728
-1.57431
-2.21728
-2.96082
-2.3806
-1.1859
-0.10562
0.777989
1.40986
1.68813
1.69556
1.54278
1.31909
1.08201
0.860804
0.666171
0.497236
0.347416
0.210645
0.0720016
-0.853433
-2.05654
-2.87949
-3.82459
-2.9393
-1.43309
-0.148116
0.839908
1.49539
1.79489
1.80746
1.64161
1.40452
1.15636
0.924988
0.719226
0.538376
0.376373
0.227397
0.077313
-1.03466
-2.6157
-3.67758
-4.88495
-3.59469
-1.71029
-0.199448
0.909247
1.6098
1.8925
1.89157
1.71842
1.47558
1.22069
0.981013
0.765853
0.574775
0.40208
0.242213
0.0819758
-1.16787
-3.17198
-4.5336
-6.10073
-4.34384
-2.02042
-0.256061
0.977926
1.70484
1.99651
1.96726
1.78293
1.53315
1.27373
1.02869
0.806389
0.606781
0.424792
0.255273
0.0860659
-1.11036
-3.45003
-5.24286
-7.29764
-5.15219
-2.36502
-0.314713
1.04145
1.7815
2.05148
2.01972
1.83372
1.58131
1.31881
1.06954
0.841518
0.634781
0.444765
0.266743
0.0896491
-0.834839
-3.36781
-5.65599
-8.15939
-5.98047
-2.73051
-0.381322
1.09896
1.87262
2.13839
2.079
1.87586
1.61888
1.35514
1.10377
0.87166
0.659118
0.462235
0.276776
0.09278
-0.510129
-3.12353
-5.90811
-8.68519
-6.74162
-3.09731
-0.458601
1.16188
1.94625
2.17453
2.09678
1.90418
1.64802
1.38477
1.13242
0.897368
0.680139
0.477432
0.285512
0.0955026
-0.373862
-3.01477
-6.19593
-9.23799
-7.406
-3.43354
-0.532949
1.21003
2.00149
2.21989
2.14952
1.92688
1.66998
1.40806
1.15594
0.919071
0.698161
0.490566
0.293075
0.0978545
-0.307205
-2.9379
-6.42673
-9.88001
-7.96925
-3.72074
-0.60516
1.24542
2.04742
2.24479
2.15757
1.93936
1.68505
1.42596
1.17504
0.937219
0.713487
0.501835
0.299582
0.0998721
-0.357135
-2.76023
-6.46431
-10.2169
-8.3942
-3.93584
-0.660513
1.27865
2.07866
2.25862
2.16332
1.94582
1.69473
1.43923
1.19025
0.952211
0.726393
0.511422
0.305136
0.101589
-0.360165
-2.55614
-6.34368
-10.3215
-8.6148
-4.04277
-0.680494
1.31103
2.09838
2.26327
2.16077
1.94561
1.6997
1.44859
1.2021
0.964422
0.737136
0.519492
0.309831
0.103038
-0.451249
-2.41007
-6.131
-10.218
-8.59372
-4.01832
-0.65444
1.34734
2.10851
2.25838
2.15226
1.94129
1.70106
1.45472
1.21109
0.974195
0.745951
0.526195
0.31375
0.104244
-0.117416
-2.20588
-5.74868
-9.82462
-8.31943
-3.85982
-0.580001
1.38853
2.11022
2.24684
2.13954
1.93374
1.69962
1.45824
1.21764
0.981833
0.753045
0.531665
0.316966
0.105233
-0.0393783
-1.9743
-5.18894
-9.07953
-7.72957
-3.55252
-0.448523
1.43712
2.106
2.22941
2.12268
1.92311
1.69579
1.45985
1.2226
0.98818
0.759153
0.536451
0.319799
0.106105
-0.257101
-1.66003
-4.46887
-7.96441
-6.77131
-3.06731
-0.261733
1.49112
2.09619
2.20757
2.103
1.91022
1.68986
1.45946
1.22564
0.992797
0.763856
0.540223
0.322053
0.106799
-0.26243
-1.34011
-3.64602
-6.71982
-5.71445
-2.55441
-0.068392
1.53678
2.08441
2.18642
2.0844
1.89765
1.68346
1.45767
1.22682
0.99546
0.766829
0.542689
0.323547
0.10726
-0.1681
-1.00883
-2.93673
-5.64391
-4.81661
-2.12762
0.0958101
1.56954
2.07283
2.16815
2.06853
1.88663
1.67725
1.45498
1.22653
0.996439
0.76824
0.543954
0.324337
0.107506
-0.0690857
-0.689544
-2.32256
-4.84203
-4.17943
-1.84478
0.214844
1.58596
2.0622
2.15408
2.05659
1.87806
1.67182
1.45193
1.22506
0.995901
0.768201
0.544087
0.324457
0.107548
0.0710294
-0.389394
-1.87353
-4.32838
-3.82782
-1.7046
0.273477
1.58564
2.05268
2.1451
2.04937
1.87256
1.66766
1.44875
1.22257
0.99399
0.766784
0.543127
0.323925
0.107391
0.224247
-0.105292
-1.53927
-4.09279
-3.72561
-1.70299
0.268026
1.56827
2.0443
2.14167
2.04738
1.87048
1.66498
1.44553
1.21913
0.990698
0.763985
0.541067
0.322739
0.107032
0.389294
0.158061
-1.29674
-4.11554
-3.86833
-1.83544
0.195501
1.53288
2.03673
2.14386
2.05073
1.87188
1.66382
1.44227
1.21467
0.985971
0.759753
0.53787
0.320876
0.106464
0.5536
0.417438
-1.1491
-4.39797
-4.27535
-2.11715
0.0439953
1.47378
2.02885
2.1513
2.05928
1.87659
1.66394
1.43875
1.20901
0.979654
0.753976
0.53346
0.318292
0.105674
0.748456
0.740335
-1.10782
-4.97662
-4.96604
-2.55331
-0.181763
1.39097
2.01884
2.16329
2.07249
1.88416
1.66491
1.43459
1.20183
0.971503
0.746482
0.527722
0.314924
0.104639
0.835776
1.05455
-1.18342
-5.744
-5.82224
-3.03361
-0.424222
1.30025
2.00722
2.17689
2.08759
1.89271
1.66589
1.42978
1.19367
0.962286
0.738053
0.521277
0.311144
0.103472
1.04765
1.11843
-1.36293
-6.51999
-6.64433
-3.46802
-0.63902
1.21605
1.99498
2.18979
2.10229
1.9007
1.66624
1.42433
1.18493
0.9526
0.729274
0.514592
0.307228
0.102261
1.35404
1.08304
-1.67246
-7.31885
-7.45118
-3.86173
-0.83109
1.13432
1.98053
2.20215
2.11737
1.90841
1.66548
1.41722
1.17429
0.941086
0.718954
0.506776
0.302657
0.100843
1.36623
0.935674
-2.075
-8.03399
-8.12184
-4.15451
-0.982232
1.06017
1.96336
2.21184
2.13132
1.91489
1.66289
1.4079
1.16135
0.927464
0.706901
0.497705
0.297363
0.099196
1.34342
0.742067
-2.52761
-8.58549
-8.59005
-4.34045
-1.08313
0.99435
1.94083
2.21649
2.14214
1.91835
1.65748
1.3957
1.14563
0.911407
0.692893
0.487237
0.291265
0.0972936
1.17527
0.532889
-2.95339
-8.92359
-8.8288
-4.42609
-1.13866
0.933291
1.9097
2.21178
2.14957
1.91827
1.64837
1.37989
1.12662
0.892548
0.676684
0.475215
0.284277
0.0951076
0.882209
0.243249
-3.29845
-8.99765
-8.82455
-4.40665
-1.15804
0.868698
1.86667
2.19584
2.14047
1.9107
1.63395
1.35958
1.10372
0.870485
0.658005
0.461466
0.276299
0.0926074
0.620872
-0.0792843
-3.55786
-8.87641
-8.6282
-4.28861
-1.15213
0.802678
1.80443
2.17052
2.13496
1.8975
1.61362
1.33384
1.07626
0.844769
0.636563
0.445805
0.267223
0.0897611
0.35037
-0.350586
-3.75454
-8.64192
-8.27207
-4.08088
-1.12192
0.735735
1.73382
2.11445
2.0859
1.87109
1.58486
1.30172
1.04359
0.814942
0.612048
0.428031
0.256932
0.086531
0.099552
-0.577774
-3.86857
-8.19264
-7.7468
-3.80791
-1.05973
0.668152
1.65501
2.06941
2.06698
1.83879
1.54713
1.26163
1.00475
0.780458
0.584125
0.407932
0.245297
0.0828724
-0.136499
-0.809202
-3.89197
-7.40858
-7.04831
-3.4844
-0.982508
0.614321
1.56433
1.98099
2.00042
1.78764
1.4987
1.21342
0.959279
0.740849
0.552457
0.385286
0.232177
0.0787325
-0.313604
-0.96075
-3.85936
-6.63826
-6.26299
-3.11912
-0.896628
0.564606
1.47598
1.91152
1.93382
1.72368
1.43631
1.15394
0.905708
0.695448
0.516674
0.359861
0.217422
0.0740516
-0.392499
-0.919192
-3.70868
-6.13762
-5.43281
-2.7306
-0.794336
0.514888
1.3903
1.81737
1.84003
1.63695
1.35829
1.08384
0.84395
0.643857
0.476444
0.331427
0.200871
0.0687626
-0.385421
-0.780466
-3.34836
-5.83905
-4.58993
-2.32736
-0.684434
0.469274
1.26749
1.69183
1.7368
1.54123
1.26522
0.999525
0.771885
0.585215
0.431367
0.299743
0.182353
0.0627904
-0.324537
-0.712659
-2.77544
-5.29236
-3.76007
-1.9169
-0.572294
0.419144
1.16221
1.55511
1.58601
1.40201
1.14752
0.900894
0.69004
0.519407
0.381186
0.264591
0.161687
0.0560513
-0.23197
-0.684577
-2.11756
-4.28951
-2.94603
-1.51763
-0.457285
0.371924
1.01739
1.3839
1.42638
1.25609
1.01368
0.785419
0.595545
0.445182
0.325422
0.225729
0.138675
0.0484503
-0.140979
-0.574081
-1.46275
-3.07388
-2.16371
-1.13104
-0.343938
0.314061
0.870774
1.18229
1.2058
1.05151
0.844369
0.649799
0.489061
0.362961
0.264086
0.183024
0.113125
0.03988
-0.0792508
-0.396476
-0.893094
-1.9951
-1.45801
-0.781441
-0.238623
0.251119
0.6446
0.928747
0.952551
0.826126
0.654546
0.496134
0.368741
0.27125
0.196478
0.13616
0.0847856
0.0302117
-0.0414801
-0.202649
-0.433683
-1.04818
-0.805462
-0.441644
-0.143398
0.166149
0.450111
0.619668
0.624643
0.534753
0.419391
0.315286
0.232697
0.170274
0.123001
0.0852926
0.0535426
0.0193232
-0.0143737
-0.0601561
-0.100677
-0.259339
-0.229674
-0.113669
-0.039644
0.0489012
0.170683
0.241446
0.237479
0.199187
0.155068
0.115647
0.0842165
0.060808
0.0435119
0.03005
0.0189631
0.00692651
-6.03545
-2.13253
-4.93698
-6.98896
-10.028
-9.68038
-7.13325
-4.25606
-1.45036
0.677015
-1.61018
-2.35029
-4.97188
-8.59274
-11.8547
-11.2396
-8.15647
-4.87883
-1.9827
0.440098
-2.60745
-3.68893
-6.26219
-10.3691
-13.7834
-13.0157
-9.52555
-5.13789
-2.20425
0.239326
-2.27723
-3.85696
-6.64791
-10.2461
-12.9661
-12.2645
-8.77972
-4.77595
-2.04747
-0.175571
-1.72558
-3.22715
-5.31493
-7.87117
-9.69405
-9.3355
-7.12222
-3.88775
-1.51496
-0.0443287
-1.30653
-2.51869
-3.94629
-5.54538
-6.6243
-6.52048
-5.03945
-2.84718
-1.17283
-0.0860802
-0.998084
-1.91808
-2.9335
-3.89444
-4.51073
-4.50084
-3.65492
-2.23878
-0.997762
-0.112439
-0.774217
-1.48007
-2.24032
-2.85512
-3.18255
-3.19992
-2.67314
-1.65174
-0.791365
-0.148881
-0.604504
-1.14041
-1.72425
-2.13963
-2.31499
-2.33221
-2.01247
-1.35046
-0.742107
-0.264849
-0.467158
-0.878315
-1.33471
-1.6359
-1.73782
-1.74715
-1.57189
-1.11176
-0.676003
-0.336198
-0.358034
-0.682099
-1.04553
-1.2626
-1.33687
-1.32795
-1.23604
-0.92785
-0.619001
-0.386855
-0.272518
-0.535426
-0.822089
-0.974532
-1.0476
-1.01655
-0.977966
-0.781535
-0.567901
-0.419547
-0.203914
-0.422307
-0.639475
-0.753262
-0.82815
-0.786753
-0.778367
-0.653451
-0.514052
-0.427004
-0.149526
-0.331495
-0.495884
-0.585643
-0.657988
-0.61808
-0.621656
-0.545528
-0.452837
-0.404135
-0.111885
-0.264437
-0.392807
-0.462147
-0.526236
-0.490456
-0.500358
-0.460789
-0.385315
-0.362756
-0.0915377
-0.221331
-0.319385
-0.365363
-0.419452
-0.390431
-0.403467
-0.385457
-0.314936
-0.307398
-0.0830415
-0.183319
-0.255172
-0.280473
-0.320541
-0.304127
-0.313881
-0.303939
-0.23886
-0.235763
-0.0718245
-0.136768
-0.183772
-0.199149
-0.226818
-0.219639
-0.220087
-0.214118
-0.163339
-0.155811
-0.0506826
-0.0805484
-0.107745
-0.117105
-0.134766
-0.132189
-0.124038
-0.123766
-0.0913241
-0.0845843
-0.0188566
-0.0256169
-0.033806
-0.0379296
-0.0460819
-0.0412748
-0.0384571
-0.039933
-0.029495
-0.0260339
3.45624
3.44495
3.48055
3.52651
3.59716
3.67033
3.76476
3.86103
3.97786
4.08864
4.22169
4.32225
4.45319
4.50384
4.59151
4.47691
4.4826
3.59348
3.24475
-0.774506
3.31037
3.29876
3.32531
3.36797
3.42788
3.49246
3.56464
3.6471
3.73127
3.82425
3.91057
3.97901
4.05436
4.03122
4.09073
3.76693
3.79654
2.64455
2.20902
0.103237
3.14539
3.14137
3.16111
3.19797
3.25004
3.29985
3.35962
3.41493
3.48424
3.53899
3.60835
3.61482
3.69157
3.5374
3.63673
3.13128
3.11624
2.06633
1.28245
0.311229
2.98266
2.96679
2.987
3.017
3.06669
3.09466
3.15405
3.1689
3.24577
3.23278
3.32117
3.23565
3.32726
3.08538
3.12438
2.63115
2.3511
1.70908
0.74511
0.315149
2.81787
2.77752
2.80412
2.8259
2.87242
2.88326
2.93796
2.92658
2.99747
2.94213
3.01562
2.88937
2.91813
2.69096
2.56707
2.25693
1.83289
1.52343
0.585637
0.161799
2.64416
2.59005
2.61583
2.63033
2.66538
2.67219
2.7052
2.69549
2.72559
2.67787
2.68585
2.58831
2.52361
2.36847
2.16835
1.98789
1.54302
1.32492
0.483675
-0.0276415
2.4595
2.41229
2.42668
2.43597
2.45351
2.46201
2.46779
2.46895
2.45798
2.42976
2.39101
2.32393
2.21673
2.11924
1.89319
1.76125
1.3312
1.09072
0.407674
-0.131187
2.26465
2.24382
2.24556
2.24622
2.24842
2.25491
2.24193
2.24698
2.21011
2.20495
2.1337
2.0979
1.96841
1.89374
1.66195
1.52552
1.14246
0.864353
0.348658
-0.144899
2.06583
2.07329
2.07015
2.06188
2.05264
2.05707
2.02961
2.04009
1.98731
1.99456
1.90703
1.88013
1.74498
1.66332
1.45001
1.29254
0.978746
0.68832
0.299366
-0.110682
1.86895
1.90023
1.88715
1.88172
1.86137
1.87007
1.83395
1.84559
1.78532
1.78769
1.69985
1.66102
1.53803
1.43854
1.26215
1.08618
0.83752
0.57343
0.259842
-0.0735675
1.67949
1.72324
1.70339
1.70258
1.67612
1.6864
1.64933
1.65263
1.59586
1.5814
1.50492
1.44876
1.34617
1.23387
1.0905
0.914439
0.713418
0.488225
0.228938
-0.0454716
1.49778
1.5418
1.52276
1.52131
1.49475
1.49997
1.46743
1.45932
1.41076
1.38122
1.31708
1.25178
1.1656
1.05261
0.932346
0.773023
0.60456
0.414251
0.205926
-0.0265986
1.3199
1.35761
1.34397
1.33791
1.31415
1.31293
1.28465
1.26977
1.22728
1.1923
1.13561
1.07129
0.995758
0.892524
0.789262
0.651784
0.509745
0.348021
0.185154
-0.0135826
1.14027
1.17375
1.16391
1.15471
1.13361
1.12941
1.10264
1.08697
1.04652
1.01407
0.962055
0.904099
0.837515
0.746335
0.660552
0.542561
0.427946
0.289154
0.162626
-0.00476344
0.959018
0.992022
0.982052
0.972356
0.95398
0.949052
0.923853
0.909588
0.871539
0.844256
0.79731
0.74562
0.69022
0.609705
0.543172
0.44231
0.354321
0.234162
0.137929
-9.00465e-05
0.778328
0.81205
0.799452
0.790759
0.775596
0.770388
0.749334
0.735388
0.703508
0.67947
0.641032
0.594643
0.552282
0.483003
0.434088
0.348342
0.284572
0.182358
0.110159
-0.0013732
0.601279
0.632002
0.618737
0.609688
0.598585
0.592333
0.578503
0.563647
0.541184
0.519259
0.490651
0.452798
0.421542
0.365883
0.331297
0.261159
0.215818
0.135573
0.0789185
-0.00640894
0.427183
0.451203
0.440387
0.430972
0.423657
0.416522
0.410277
0.396059
0.38175
0.364917
0.344693
0.318167
0.296998
0.255789
0.232627
0.180713
0.149288
0.0922569
0.0484801
-0.0108607
0.255592
0.269679
0.264525
0.255573
0.25233
0.245695
0.244434
0.233873
0.226178
0.215356
0.203845
0.189043
0.175778
0.151097
0.137265
0.105647
0.0858475
0.0531862
0.0223436
-0.00931222
0.0853356
0.0892864
0.0883417
0.0846043
0.0839342
0.0807015
0.0814963
0.0766001
0.0746944
0.0710263
0.0670721
0.0628652
0.0578277
0.0499527
0.044959
0.0346848
0.0274066
0.0167526
0.00526764
-0.00338997
3.63988
3.64631
3.68656
3.73877
3.8195
3.91042
4.02674
4.14926
4.30196
4.454
4.6397
4.81006
5.01987
5.17799
5.39761
5.4755
5.63037
5.53136
5.62124
3.96871
3.75518
3.78764
3.82792
3.89242
3.97238
4.08354
4.20935
4.36384
4.53432
4.73038
4.94493
5.17624
5.42654
5.68063
5.9542
6.19372
6.45055
6.59409
6.6698
6.6903
3.86254
3.88463
3.93143
4.00359
4.09524
4.2139
4.35507
4.52574
4.7173
4.94176
5.18191
5.46249
5.74479
6.08041
6.38446
6.75333
7.02419
7.32788
7.49154
7.47326
3.93901
3.95002
4.0001
4.07417
4.17784
4.30054
4.45668
4.63324
4.84695
5.08149
5.35459
5.64864
5.97912
6.32481
6.6977
7.06018
7.42831
7.74282
7.98456
8.14332
3.95876
3.98773
4.03711
4.11292
4.21511
4.34488
4.50227
4.68859
4.90547
5.15276
5.43216
5.74048
6.07907
6.44074
6.82323
7.20834
7.58341
7.91024
8.16362
8.29257
3.95427
3.98181
4.03125
4.10761
4.20851
4.33874
4.49388
4.68112
4.89492
5.14281
5.41799
5.72719
6.06085
6.42297
6.79618
7.17924
7.54456
7.86233
8.12989
8.25055
3.9212
3.93564
3.98433
4.05712
4.15904
4.28118
4.43399
4.60946
4.8188
5.05018
5.31814
5.60468
5.93012
6.26253
6.62697
6.97486
7.32453
7.63461
7.83483
7.9895
3.83831
3.85953
3.90359
3.97367
4.06561
4.18192
4.32041
4.48656
4.67376
4.89128
5.12457
5.39326
5.66572
5.97867
6.2757
6.60402
6.89018
7.13116
7.37712
7.16932
3.72247
3.75099
3.78958
3.85349
3.93253
4.04001
4.16173
4.3118
4.47414
4.6647
4.86462
5.09089
5.31609
5.56423
5.79009
6.01594
6.19144
6.28147
6.24468
6.19495
3.59314
3.60356
3.64075
3.69426
3.76908
3.85723
3.96854
4.08657
4.23206
4.37241
4.55067
4.69726
4.89391
5.02227
5.20511
5.25533
5.3674
5.15988
5.46085
2.47428
)
;

boundaryField
{
    inlet
    {
        type            zeroGradient;
    }
    outlet
    {
        type            fixedValue;
        value           uniform 0;
    }
    upAndBottom
    {
        type            empty;
    }
    obstacle
    {
        type            zeroGradient;
    }
}


// ************************************************************************* //
