/*--------------------------------*- C++ -*----------------------------------*\
| =========                 |                                                 |
| \\      /  F ield         | OpenFOAM: The Open Source CFD Toolbox           |
|  \\    /   O peration     | Version:  v1806                                 |
|   \\  /    A nd           | Web:      www.OpenFOAM.com                      |
|    \\/     M anipulation  |                                                 |
\*---------------------------------------------------------------------------*/
FoamFile
{
    version     2.0;
    format      ascii;
    class       volScalarField;
    location    "14";
    object      p;
}
// * * * * * * * * * * * * * * * * * * * * * * * * * * * * * * * * * * * * * //

dimensions      [0 2 -2 0 0 0 0];


internalField   nonuniform List<scalar> 
2400
(
0.0106586
0.0106265
0.010573
0.0105135
0.0104427
0.0103654
0.0101951
0.00999569
0.0097494
0.00942129
0.00902446
0.00855605
0.00801554
0.00739616
0.00671028
0.00562583
0.00334168
-0.000136504
-0.00303275
0.00383086
0.0319701
0.0318667
0.0317411
0.0315784
0.0313782
0.0311175
0.0306512
0.0300855
0.0293192
0.0283676
0.0272002
0.0258053
0.0240807
0.0220926
0.0198441
0.0177209
0.0166251
0.0164171
0.0155053
0.00481576
0.0533222
0.0531559
0.0529552
0.0527155
0.0524144
0.0520172
0.0512755
0.0503553
0.0491247
0.0475704
0.0456378
0.0433163
0.0404736
0.0372449
0.0335521
0.0291076
0.0233034
0.0162814
0.00989536
0.0138735
0.0747244
0.0744909
0.0742589
0.0739921
0.0736401
0.0731351
0.0721778
0.0709513
0.0693176
0.067228
0.0646061
0.0613364
0.0572619
0.0524985
0.047191
0.0416924
0.0368661
0.0324825
0.0273732
0.0124926
0.0959457
0.0958693
0.0956408
0.0954411
0.0950804
0.0945836
0.0934411
0.0920227
0.090023
0.0875531
0.0842672
0.0801793
0.0749262
0.0687925
0.0615862
0.0533069
0.043909
0.0340228
0.025366
0.0263304
0.117542
0.117267
0.117031
0.11699
0.116787
0.116388
0.115181
0.11363
0.111432
0.108684
0.104878
0.0999918
0.093624
0.0860942
0.0771568
0.0667828
0.0549204
0.0422429
0.030645
0.0285432
0.139123
0.138617
0.138444
0.138716
0.138831
0.138643
0.137453
0.135898
0.133713
0.130861
0.126689
0.121074
0.113655
0.104735
0.0941917
0.0822753
0.0698946
0.0571892
0.0431694
0.0195278
0.16033
0.159856
0.159878
0.160722
0.16123
0.161399
0.16025
0.158991
0.15701
0.154381
0.149962
0.143854
0.135509
0.125402
0.113013
0.0979876
0.0797007
0.0584423
0.0365259
0.0249846
0.181442
0.180819
0.181327
0.182977
0.183979
0.184543
0.183571
0.182956
0.181559
0.179459
0.175129
0.168698
0.159554
0.147954
0.133385
0.116034
0.0967373
0.075658
0.052177
0.0185477
0.201692
0.201402
0.202909
0.205566
0.206922
0.207973
0.207265
0.207988
0.207394
0.206493
0.20245
0.196343
0.186725
0.173984
0.156984
0.135614
0.109909
0.0800642
0.048237
0.0242508
0.220729
0.221584
0.224873
0.228293
0.229877
0.231281
0.231338
0.234066
0.234698
0.235673
0.232402
0.22735
0.217778
0.204048
0.184716
0.159184
0.12826
0.092689
0.055417
0.0241433
0.237671
0.241687
0.247335
0.250764
0.252255
0.254149
0.255782
0.261237
0.263319
0.267264
0.265035
0.262729
0.253403
0.240246
0.21906
0.18979
0.153192
0.108732
0.0604716
0.015762
0.252107
0.262626
0.269564
0.272155
0.273161
0.276434
0.280756
0.289332
0.293329
0.301109
0.300391
0.303112
0.294327
0.284797
0.261354
0.230397
0.186025
0.1291
0.0640927
-0.000743942
0.265337
0.284285
0.289399
0.291855
0.291794
0.299069
0.305454
0.318176
0.323544
0.337026
0.337798
0.349055
0.340094
0.340322
0.312276
0.28572
0.229712
0.162739
0.0779375
-0.022333
0.277184
0.304819
0.305661
0.309587
0.307964
0.321682
0.327758
0.346832
0.351432
0.374075
0.374781
0.399485
0.388232
0.407296
0.370579
0.364429
0.282604
0.213588
0.0841989
-0.0291085
0.291584
0.319519
0.319373
0.324183
0.324372
0.341341
0.349449
0.372774
0.381128
0.410105
0.414595
0.451429
0.441989
0.482762
0.439014
0.469201
0.353959
0.328679
0.108424
-0.108127
0.303648
0.328041
0.326386
0.334213
0.336667
0.357238
0.36691
0.393775
0.404637
0.439868
0.449123
0.496184
0.491264
0.552828
0.507924
0.579299
0.430551
0.469918
0.137181
0.0764067
0.327231
0.326319
0.330964
0.336225
0.351108
0.364131
0.388732
0.405228
0.436401
0.459246
0.496972
0.53257
0.567808
0.615617
0.640033
0.69324
0.622843
0.642219
0.1307
-0.118572
0.343058
0.324301
0.333221
0.342241
0.364451
0.377183
0.40419
0.42321
0.45839
0.489906
0.533362
0.58356
0.633978
0.702497
0.751509
0.838259
0.800795
0.954798
0.433131
0.88974
0.355881
0.308734
0.339131
0.339292
0.378961
0.368537
0.421529
0.410744
0.485568
0.472643
0.579749
0.561745
0.726081
0.689381
0.957314
0.853278
1.24143
0.844932
1.00273
-2.36931
0.026063
0.0259097
0.0152142
0.00591222
0.000920578
-0.000559381
-0.000436978
8.0899e-06
0.000242528
0.000240541
-0.020053
-0.0208309
-0.0107599
-0.00205706
0.00229098
0.003068
0.00218444
0.00100604
0.000117516
-0.000367733
0.0348395
0.0336025
0.0211739
0.010128
0.00358288
0.000751271
-0.000148044
-0.000451557
-0.000788863
-0.00131154
-0.01416
-0.0154953
-0.00612295
0.00143601
0.0044839
0.00414747
0.00232537
0.000367159
-0.00110989
-0.00202327
0.0395169
0.0339779
0.0168611
0.00231776
-0.00607676
-0.0091042
-0.00907758
-0.00813175
-0.00751293
-0.00765349
0.039808
0.0334553
0.0156079
0.000445553
-0.00853516
-0.0121137
-0.0126263
-0.0121419
-0.0119145
-0.0123372
-0.0133709
-0.0172819
-0.0101936
-0.00468704
-0.00361364
-0.00577796
-0.00933811
-0.0128126
-0.0156328
-0.0176263
0.0370519
0.0314629
0.0142538
-0.00126435
-0.0119298
-0.0184359
-0.0225599
-0.0254864
-0.0280027
-0.0301908
-0.0218911
-0.0290947
-0.0251359
-0.0225863
-0.0243453
-0.0291288
-0.0349688
-0.0401953
-0.0441935
-0.0466946
0.0231296
0.0106857
-0.0136718
-0.0349199
-0.0495182
-0.0581329
-0.0635143
-0.0676197
-0.0719094
-0.0764868
0.00996215
-0.00870732
-0.0400188
-0.0672547
-0.0854672
-0.0947678
-0.0978073
-0.0974306
-0.0959695
-0.0943311
-0.00801168
-0.0310114
-0.0675297
-0.101462
-0.127981
-0.146878
-0.160471
-0.170894
-0.1801
-0.188475
-0.0301298
-0.0561181
-0.0940112
-0.125995
-0.147355
-0.158667
-0.163124
-0.164022
-0.163802
-0.163496
-0.092469
-0.138032
-0.198425
-0.255145
-0.30143
-0.336701
-0.362544
-0.381503
-0.395329
-0.405198
-0.0809239
-0.117341
-0.167125
-0.211413
-0.243908
-0.265466
-0.279413
-0.290588
-0.301346
-0.313265
-0.305402
-0.41981
-0.548641
-0.657424
-0.735185
-0.784044
-0.809452
-0.821111
-0.822321
-0.817292
-0.0858804
-0.181355
-0.281066
-0.359914
-0.416152
-0.457742
-0.495286
-0.534878
-0.579192
-0.628054
-1.22495
-1.61592
-1.83446
-1.88905
-1.8527
-1.79487
-1.73442
-1.68023
-1.62524
-1.57225
-0.275526
-0.597704
-0.726157
-0.783093
-0.849522
-0.937375
-1.04106
-1.14787
-1.24988
-1.34505
-7.20581
-6.9143
-5.3428
-4.25366
-3.6685
-3.35506
-3.1022
-2.86562
-2.64036
-2.43765
-0.000537546
-0.00126254
0.000336975
0.00113422
-0.00182859
-0.00527881
-0.00597367
-0.0084791
-0.0111411
-0.014052
-0.0140545
-0.0131077
-0.00979579
-0.00708539
-0.00408153
-0.00167856
-0.000710853
0.000533883
0.000261782
0.00154308
-0.00180272
-0.00345856
0.000360404
0.00343345
-0.00465822
-0.0154932
-0.0186807
-0.0255068
-0.0340955
-0.0415482
-0.0427249
-0.0393145
-0.0317366
-0.0215004
-0.0123761
-0.00560452
-0.00180423
0.00111051
0.00144145
0.00197437
-0.00363895
-0.00604148
0.00119761
0.00713034
-0.00728767
-0.0265312
-0.0317527
-0.04239
-0.0573921
-0.0700598
-0.0731014
-0.0686718
-0.0541687
-0.0363875
-0.0202335
-0.00875971
-0.00268596
0.00288564
-0.000282083
0.00189539
-0.00586948
-0.00856547
0.0028942
0.0122568
-0.00887295
-0.0377321
-0.0455719
-0.0592236
-0.0810936
-0.100013
-0.105596
-0.098642
-0.0783056
-0.0513228
-0.0278029
-0.0115737
-0.00150467
0.000732091
-0.000898845
0.00234354
-0.0107242
-0.0123142
0.00530428
0.019422
-0.0100299
-0.0494937
-0.0598676
-0.0766746
-0.10574
-0.131854
-0.141195
-0.132697
-0.103333
-0.066635
-0.0348608
-0.0129605
-0.0023778
0.00766573
0.00626946
0.00259234
-0.0172078
-0.0151028
0.00870332
0.0286091
-0.0114086
-0.0620527
-0.0734226
-0.09379
-0.131579
-0.166331
-0.181213
-0.169726
-0.131846
-0.0822227
-0.0412993
-0.0139676
0.00196083
0.00352655
0.00196159
0.00367486
-0.0268205
-0.0209202
0.026102
0.0513823
-0.00961966
-0.0775273
-0.0868478
-0.107924
-0.157008
-0.203964
-0.226069
-0.212437
-0.160622
-0.0977196
-0.0460161
-0.0121221
0.00392113
0.0144961
0.0128246
0.00414796
-0.0402484
-0.032347
0.00891712
0.0560644
-0.0120146
-0.0951237
-0.105553
-0.131203
-0.187257
-0.247451
-0.280411
-0.262504
-0.195393
-0.114298
-0.0507602
-0.0105868
0.0100457
0.0104155
0.00843732
0.00545227
-0.0563534
-0.0228676
0.0724137
0.111715
-0.00805646
-0.116983
-0.111639
-0.136627
-0.216296
-0.297138
-0.343251
-0.320996
-0.232236
-0.130142
-0.0513076
-0.00282969
0.0178022
0.0266902
0.0173691
0.00605684
-0.0999946
-0.0802186
0.0157565
0.118879
-0.019403
-0.155516
-0.140712
-0.177803
-0.254719
-0.35894
-0.424078
-0.402496
-0.277899
-0.147508
-0.052021
0.00349563
0.0266154
0.0277715
0.0172476
0.00767686
-0.0929862
-0.0301471
0.13549
0.20398
-0.0179516
-0.192047
-0.13904
-0.156593
-0.292121
-0.432679
-0.518934
-0.483568
-0.32735
-0.162871
-0.044876
0.0194354
0.0391845
0.0399249
0.025677
0.00882925
-0.226397
-0.16626
0.0655164
0.239142
-0.0499409
-0.275075
-0.195006
-0.188802
-0.338226
-0.525721
-0.640324
-0.59726
-0.387196
-0.178641
-0.0370033
0.0341464
0.0530422
0.0463674
0.0284831
0.0103856
-0.168509
-0.100545
0.23263
0.341896
-0.0714142
-0.373733
-0.194023
-0.163367
-0.38208
-0.637787
-0.78452
-0.722583
-0.453889
-0.190069
-0.0169884
0.0627069
0.0727206
0.0614017
0.036724
0.011708
-0.433985
-0.299693
0.155622
0.382101
-0.154007
-0.552229
-0.258677
-0.163791
-0.419548
-0.778947
-0.987284
-0.895357
-0.530794
-0.195719
0.0079286
0.0935836
0.0960856
0.0728193
0.0417553
0.0135496
-0.374034
-0.273176
0.374073
0.461377
-0.298858
-0.815992
-0.293976
-0.0434305
-0.41493
-0.925321
-1.20186
-1.08849
-0.619886
-0.1982
0.0460955
0.13993
0.124992
0.0908484
0.0475555
0.0130006
-0.751477
-0.587122
0.159292
0.243343
-0.528662
-1.11627
-0.351478
0.0239864
-0.43623
-1.10804
-1.45241
-1.27496
-0.68429
-0.182535
0.0946162
0.192228
0.158203
0.1094
0.0528023
0.0137815
-0.872259
-0.880957
0.0853528
0.443443
-0.684388
-1.22893
-0.307878
0.163438
-0.458139
-1.25854
-1.64015
-1.43399
-0.745197
-0.171918
0.141907
0.241973
0.188117
0.127929
0.0517888
0.0078752
-1.24276
-1.25791
-0.311673
-0.2731
-0.890228
-1.17108
-0.224601
0.22893
-0.502069
-1.42538
-1.81142
-1.54444
-0.772701
-0.145431
0.199371
0.297711
0.224642
0.151722
0.0540567
0.00324116
-1.78479
-2.1781
-0.669868
-0.178032
-0.743258
-0.965388
-0.161742
0.215051
-0.566299
-1.50359
-1.87068
-1.60694
-0.812754
-0.149478
0.231647
0.340354
0.258279
0.172845
0.0472212
-0.00784516
-1.57373
-2.93563
-0.209686
0.199814
-0.525048
-0.68617
-0.0900796
0.146959
-0.629343
-1.55397
-1.86389
-1.61272
-0.859718
-0.188971
0.198222
0.327849
0.279028
0.189533
0.0399052
-0.0163016
-2.9885
-3.61965
-0.383802
0.0116356
-0.412383
-0.46675
-0.0702325
0.092901
-0.640645
-1.55579
-1.87502
-1.64644
-0.957679
-0.279768
0.109853
0.269608
0.270264
0.194773
0.0511038
-0.013508
-3.39795
-3.95081
-0.45935
-0.0371608
-0.361148
-0.369531
-0.054697
0.0799315
-0.637512
-1.54398
-1.87225
-1.66324
-1.00947
-0.328364
0.0530682
0.238078
0.262763
0.196111
0.0572761
-0.0113627
-3.7037
-3.78544
-0.497216
-0.121952
-0.317683
-0.273421
-0.0335922
0.0689018
-0.62908
-1.52529
-1.86686
-1.68292
-1.06956
-0.38536
0.00239594
0.203171
0.252669
0.19676
0.0641546
-0.00832129
-3.73817
-2.97909
-0.546534
-0.21799
-0.276914
-0.179828
-0.0132422
0.0617874
-0.612888
-1.49642
-1.85972
-1.70776
-1.13704
-0.449966
-0.0494911
0.166703
0.240645
0.196682
0.071231
-0.00447944
-3.84601
-2.23003
-0.626757
-0.328357
-0.240225
-0.090945
0.00592211
0.057984
-0.589565
-1.45705
-1.85065
-1.73913
-1.21
-0.52053
-0.0999764
0.130489
0.227454
0.195925
0.0780905
-5.639e-06
-3.92124
-1.67576
-0.711067
-0.444572
-0.202965
-0.00789266
0.0237053
0.0567083
-0.557543
-1.4057
-1.83922
-1.77723
-1.28719
-0.594841
-0.147554
0.0958918
0.213771
0.194575
0.0844374
0.00490736
-3.93822
-1.16769
-0.772208
-0.567833
-0.165187
0.0683425
0.0399759
0.0565898
-0.517735
-1.34181
-1.82558
-1.82203
-1.36811
-0.670325
-0.191662
0.0637314
0.200143
0.192753
0.0901147
0.0100969
-3.90709
-0.692222
-0.794527
-0.67601
-0.121899
0.136828
0.0542826
0.0569447
-0.470809
-1.26395
-1.81018
-1.87213
-1.45355
-0.744747
-0.232348
0.0344397
0.186944
0.190583
0.0950848
0.0154495
-3.93847
-0.287269
-0.758928
-0.755431
-0.0706347
0.199305
0.0669182
0.0570473
-0.416435
-1.17181
-1.79296
-1.92703
-1.54427
-0.817325
-0.269908
0.00838377
0.174445
0.188225
0.0994006
0.0208855
-4.02705
-0.000764513
-0.657372
-0.786739
-0.0161775
0.246266
0.076339
0.0562384
-0.351843
-1.0722
-1.77588
-1.98538
-1.64031
-0.88862
-0.304843
-0.0142128
0.162919
0.185919
0.1033
0.0263373
-3.21881
0.316571
-0.44031
-0.761453
0.062874
0.349008
0.0903999
0.0468051
-0.229812
-0.828751
-1.74306
-2.08989
-1.80509
-1.00846
-0.360479
-0.0473557
0.14551
0.182437
0.109769
0.0354463
-2.27978
0.169911
-0.279331
-0.573584
0.165204
0.336485
0.0914114
0.0227229
-0.051416
-0.490525
-1.68024
-2.2632
-2.02905
-1.17812
-0.434206
-0.0835302
0.126128
0.17865
0.119684
0.0491003
-1.80134
0.0733477
-0.238701
-0.326013
0.339307
0.51278
0.108011
-0.0130041
0.0839576
-0.247486
-1.63552
-2.44799
-2.23216
-1.33228
-0.502776
-0.112281
0.110691
0.175962
0.130609
0.0608713
-1.24409
0.0301209
-0.227981
-0.257525
0.289596
0.447971
0.0976933
-0.0700317
0.179226
-0.0803139
-1.63677
-2.6025
-2.37616
-1.44051
-0.560032
-0.13532
0.0975585
0.173844
0.142036
0.0707792
-1.21092
-0.0906571
-0.249335
-0.117393
0.361951
0.39866
0.0616411
-0.110751
0.226953
-0.0113922
-1.66573
-2.6997
-2.43643
-1.49268
-0.600472
-0.153235
0.0858025
0.171196
0.152374
0.078565
-0.824917
-0.0418497
-0.177784
-0.0667521
0.43035
0.583114
0.0865666
-0.141606
0.247784
-0.00176866
-1.68861
-2.72511
-2.41201
-1.48848
-0.620323
-0.166063
0.0749043
0.167966
0.16045
0.0837363
-0.820444
-0.102343
-0.141846
-0.00551887
0.421455
0.469219
0.0548659
-0.189992
0.232142
-0.0257865
-1.67897
-2.6702
-2.31407
-1.43442
-0.61862
-0.172873
0.0652676
0.16356
0.165634
0.0869501
-0.531338
-0.0720198
-0.0967344
0.0230753
0.443862
0.503251
0.0181818
-0.249423
0.202301
-0.0506267
-1.61805
-2.53356
-2.15632
-1.34102
-0.597401
-0.173819
0.0573684
0.159303
0.167947
0.0877778
-0.531769
-0.0807942
-0.0697051
0.0611448
0.409506
0.463679
-0.0403464
-0.316118
0.158813
-0.0671874
-1.49966
-2.32438
-1.95303
-1.22019
-0.560562
-0.16894
0.0514964
0.154251
0.168361
0.0880495
-0.383321
-0.065328
-0.0429288
0.086962
0.387955
0.427477
-0.0756478
-0.348525
0.109683
-0.074105
-1.33471
-2.0619
-1.72247
-1.08502
-0.51318
-0.159625
0.0479397
0.150311
0.166449
0.0870955
-0.320588
-0.0686491
-0.0271257
0.104314
0.330013
0.391403
-0.0739532
-0.334223
0.0607709
-0.0814074
-1.14588
-1.77
-1.48062
-0.945219
-0.460175
-0.146367
0.0460119
0.145594
0.164496
0.0863246
-0.254658
-0.0704701
-0.0152814
0.103958
0.301138
0.364117
-0.0364125
-0.277871
0.0204558
-0.0908346
-0.952806
-1.44026
-1.24355
-0.809058
-0.405354
-0.131604
0.0457144
0.141998
0.1594
0.0846756
-0.204042
-0.0715257
-0.00676895
0.0927937
0.240955
0.325896
0.00491663
-0.211478
-0.00816934
-0.0986529
-0.773036
-1.16567
-1.02373
-0.681314
-0.351004
-0.114935
0.0454358
0.137225
0.156916
0.0832356
-0.162498
-0.0654221
-0.00463461
0.0769319
0.21691
0.282533
0.035631
-0.153015
-0.0251503
-0.100086
-0.614006
-0.923288
-0.825965
-0.562971
-0.298312
-0.0988138
0.0461069
0.131784
0.148177
0.0810158
-0.126937
-0.0558356
-0.00364072
0.0650249
0.183321
0.233069
0.0501666
-0.108898
-0.0324734
-0.0951201
-0.478291
-0.713568
-0.651658
-0.455738
-0.247402
-0.0816679
0.0449835
0.125285
0.147818
0.0777851
-0.0975141
-0.0444215
-0.00326802
0.0541983
0.14774
0.185115
0.051599
-0.0771377
-0.0331937
-0.0845231
-0.363493
-0.53728
-0.498715
-0.357054
-0.198857
-0.0660354
0.0440086
0.114458
0.134115
0.073309
-0.0713421
-0.0328658
-0.00336853
0.0437713
0.113209
0.140428
0.0445814
-0.0536883
-0.0288845
-0.0697688
-0.265002
-0.387166
-0.365633
-0.267599
-0.151548
-0.0496694
0.0390968
0.103493
0.120448
0.0645936
-0.0485835
-0.0226044
-0.00221092
0.0329314
0.0789813
0.0984698
0.0339198
-0.0354121
-0.0214628
-0.0515439
-0.179688
-0.259434
-0.246951
-0.184518
-0.107123
-0.0350172
0.0333992
0.0812413
0.0980228
0.0558274
-0.0277794
-0.0130941
-0.00205901
0.0208553
0.0473131
0.0582255
0.0206498
-0.0198168
-0.0127936
-0.0322383
-0.102477
-0.146019
-0.140319
-0.106409
-0.0619172
-0.0214449
0.0214535
0.0590622
0.0682455
0.0365381
-0.00956582
-0.00360987
0.00031285
0.00557938
0.0147536
0.0200538
0.00712713
-0.00688284
-0.00344263
-0.010858
-0.0346695
-0.0464353
-0.0436674
-0.0346934
-0.0185552
-0.00585804
0.00649793
0.0193587
0.0315639
0.0179664
-8.19571
-7.27789
-5.341
-4.25058
-3.8555
-3.68653
-3.52712
-3.41291
-3.33044
-3.34613
-1.3829
-1.78247
-1.80761
-1.80265
-1.85019
-1.95191
-2.06342
-2.15885
-2.22416
-2.25714
-1.70656
-2.29305
-2.5235
-2.50953
-2.44165
-2.38507
-2.34821
-2.31601
-2.27603
-2.21337
-0.773588
-1.0381
-1.16919
-1.19934
-1.19714
-1.19895
-1.21157
-1.23196
-1.25075
-1.26305
-0.505686
-0.737202
-0.939902
-1.08854
-1.18636
-1.24736
-1.2865
-1.31048
-1.32067
-1.31605
-0.385094
-0.527107
-0.665617
-0.76354
-0.81957
-0.84333
-0.850381
-0.849689
-0.847427
-0.842845
-0.312028
-0.394191
-0.483755
-0.559248
-0.618683
-0.663314
-0.698888
-0.72811
-0.752531
-0.771031
-0.289928
-0.344681
-0.391701
-0.43698
-0.480495
-0.517842
-0.546971
-0.564648
-0.571528
-0.567205
-0.210815
-0.25419
-0.302976
-0.34449
-0.378992
-0.4064
-0.429007
-0.44619
-0.460898
-0.47232
-0.200337
-0.231979
-0.254982
-0.277186
-0.30019
-0.321327
-0.340136
-0.355074
-0.366054
-0.371623
-0.133705
-0.160657
-0.193621
-0.220596
-0.241466
-0.257847
-0.271824
-0.283144
-0.292106
-0.29795
-0.138754
-0.157662
-0.168406
-0.180059
-0.193433
-0.206243
-0.217417
-0.226331
-0.233117
-0.23777
-0.0771619
-0.0958024
-0.123268
-0.145864
-0.161567
-0.171717
-0.178615
-0.183916
-0.188274
-0.191963
-0.0574582
-0.0723416
-0.0964438
-0.116409
-0.129732
-0.137922
-0.143084
-0.147065
-0.150436
-0.153621
-0.0784207
-0.0868771
-0.0877137
-0.0909691
-0.0969874
-0.103706
-0.109429
-0.114002
-0.117304
-0.119867
-0.0311895
-0.0396905
-0.05513
-0.0672326
-0.0748271
-0.0800779
-0.084101
-0.0876285
-0.0904716
-0.0928786
-0.0522798
-0.0563213
-0.0529024
-0.0520835
-0.054457
-0.05824
-0.0617476
-0.0647256
-0.0669542
-0.0687234
-0.00788985
-0.0128579
-0.024869
-0.033756
-0.0383957
-0.0409877
-0.0427908
-0.044488
-0.0459319
-0.0471693
-0.0308801
-0.0316917
-0.0252657
-0.0216027
-0.0213885
-0.0228686
-0.0244638
-0.0258244
-0.0268019
-0.027579
0.00986637
0.00792259
-0.00023385
-0.00563404
-0.00752944
-0.00796889
-0.00812973
-0.00840612
-0.00874805
-0.00910729
0.341738
0.28103
0.320605
0.318494
0.361554
0.348068
0.405177
0.396176
0.475065
0.468043
0.577065
0.572588
0.73119
0.722712
0.973747
0.913725
1.34177
0.9539
1.44155
-2.44407
0.333937
0.281816
0.310067
0.314452
0.347509
0.344587
0.386263
0.392202
0.448233
0.464314
0.536064
0.569319
0.659907
0.716241
0.818571
0.876985
0.918359
0.877471
0.307906
0.335699
0.321723
0.280835
0.298776
0.305223
0.330605
0.334138
0.364117
0.376982
0.41761
0.440603
0.490906
0.529461
0.586873
0.642239
0.697606
0.747786
0.723247
0.748316
0.234222
0.312132
0.301333
0.282985
0.28652
0.2977
0.309683
0.325728
0.339503
0.364529
0.386085
0.421825
0.44767
0.499318
0.519984
0.590801
0.577709
0.66629
0.531286
0.623306
0.0745567
0.0819743
0.280934
0.281629
0.279632
0.289323
0.294919
0.314627
0.322202
0.351772
0.362383
0.404485
0.415067
0.473026
0.472147
0.54593
0.50482
0.587373
0.425884
0.500136
0.0333322
-0.0304081
0.261166
0.277197
0.271352
0.280855
0.280099
0.303158
0.305213
0.337891
0.339998
0.385178
0.383472
0.442167
0.424532
0.495236
0.434949
0.503542
0.345623
0.371479
0.0259898
-0.121139
0.243541
0.268657
0.261328
0.270183
0.265598
0.28975
0.28858
0.321512
0.319027
0.36222
0.354869
0.406808
0.384117
0.439361
0.379915
0.419848
0.287365
0.26267
0.024544
-0.159621
0.226832
0.256245
0.249017
0.257178
0.250727
0.274103
0.271499
0.302481
0.297794
0.335912
0.326544
0.36811
0.346217
0.381581
0.332409
0.340011
0.241147
0.179517
0.0212925
-0.148109
0.210748
0.240565
0.23469
0.241964
0.235307
0.256096
0.25381
0.280583
0.276389
0.306647
0.29887
0.327544
0.310531
0.326139
0.289716
0.272414
0.200746
0.123858
0.00496655
-0.130967
0.195143
0.222274
0.218617
0.224779
0.219105
0.236006
0.235082
0.256287
0.254177
0.275625
0.271269
0.287124
0.276385
0.275879
0.250103
0.21894
0.16445
0.0934531
0.000525748
-0.107804
0.179716
0.202164
0.200831
0.205976
0.201965
0.214517
0.215126
0.230528
0.230988
0.244401
0.243451
0.249222
0.243024
0.232877
0.212788
0.178936
0.132386
0.0712539
-0.00824439
-0.091995
0.164185
0.180989
0.181437
0.185757
0.183794
0.192309
0.194223
0.204207
0.20686
0.214048
0.21539
0.214857
0.210425
0.19665
0.178287
0.147277
0.10617
0.0565557
-0.00403121
-0.0748614
0.147842
0.159759
0.160815
0.164459
0.164331
0.169949
0.172555
0.178438
0.181822
0.185326
0.187145
0.184028
0.179112
0.165737
0.147871
0.121239
0.0849412
0.0420421
-0.0103212
-0.0594447
0.130231
0.138747
0.139856
0.142506
0.143622
0.147555
0.150374
0.153533
0.156393
0.15815
0.159334
0.155871
0.150064
0.138194
0.121387
0.0987745
0.0682398
0.0323938
-0.00978316
-0.047632
0.111585
0.117734
0.118892
0.120342
0.12206
0.124961
0.127827
0.129352
0.13124
0.132009
0.132488
0.129316
0.123379
0.11296
0.0983081
0.0792037
0.0550471
0.0273721
-0.00232142
-0.0389263
0.0920826
0.0965802
0.0978393
0.0983482
0.0999371
0.102251
0.10492
0.105693
0.106512
0.106748
0.106666
0.10408
0.098631
0.089826
0.0777133
0.0622557
0.043183
0.0199563
-0.00724866
-0.0323207
0.0720618
0.075268
0.0765336
0.0764964
0.0776272
0.0794777
0.0817548
0.0822559
0.0822733
0.082208
0.0818172
0.0798847
0.0753787
0.068319
0.058821
0.0467587
0.0323833
0.0158555
-0.00137066
-0.0233043
0.0517028
0.0538521
0.0549259
0.0546909
0.0553209
0.056729
0.0584599
0.0588229
0.0584714
0.0582494
0.057811
0.0564681
0.0532021
0.0479894
0.041182
0.0325817
0.0225022
0.00984311
-0.00517911
-0.0170414
0.0311114
0.032322
0.033061
0.0328557
0.0331319
0.0340009
0.0350847
0.0353539
0.0349662
0.0347545
0.0344243
0.033675
0.0316535
0.0284825
0.0243575
0.019149
0.0132963
0.00685107
0.000693209
-0.00948293
0.0104919
0.0108015
0.0110182
0.0109664
0.0109897
0.0113812
0.0116742
0.011783
0.0116281
0.0115571
0.0114235
0.0111557
0.0105703
0.00941421
0.00807887
0.00632057
0.0044476
0.00155031
-0.00279883
-0.00413855
0.360938
0.297929
0.345709
0.333279
0.38825
0.360531
0.436156
0.40329
0.51045
0.467709
0.623746
0.567908
0.807235
0.731562
1.12743
1.02634
1.80244
1.53078
3.07863
1.42426
0.36141
0.295995
0.346635
0.332754
0.389965
0.360357
0.439346
0.404682
0.516306
0.472162
0.634452
0.578789
0.8269
0.758607
1.16785
1.10332
1.83698
1.83308
3.19569
2.70454
0.361963
0.293569
0.346978
0.331614
0.391174
0.359584
0.441808
0.405153
0.521047
0.47487
0.643038
0.585939
0.843091
0.777354
1.20629
1.16001
1.9825
2.01385
3.52796
3.55057
0.361641
0.291328
0.346613
0.330526
0.391426
0.358882
0.442886
0.405667
0.523596
0.477476
0.647793
0.592441
0.851523
0.793478
1.22133
1.20549
1.98437
2.16901
3.61833
3.95815
0.360494
0.289178
0.345477
0.329147
0.390715
0.357911
0.442531
0.405663
0.524016
0.478934
0.649238
0.59601
0.854767
0.800947
1.23095
1.22267
2.02818
2.22255
3.69574
4.21813
0.358524
0.287105
0.343541
0.327497
0.388898
0.356591
0.440679
0.405031
0.522206
0.4792
0.647104
0.596982
0.851593
0.801899
1.22572
1.22045
2.01715
2.20828
3.70671
4.17279
0.355829
0.285137
0.340831
0.325622
0.386029
0.354929
0.437319
0.403736
0.518166
0.478216
0.641379
0.595282
0.841914
0.795941
1.20506
1.1974
1.96645
2.13219
3.63063
3.90357
0.352633
0.283342
0.337417
0.323621
0.382173
0.353003
0.432527
0.401843
0.512054
0.476031
0.632567
0.590991
0.827523
0.78314
1.1797
1.15026
1.9288
1.95202
3.55409
3.39665
0.349333
0.28182
0.333389
0.321645
0.377424
0.351009
0.426369
0.399678
0.503847
0.473287
0.620273
0.58556
0.805972
0.767034
1.13314
1.09199
1.78901
1.74457
3.23153
2.4304
0.346394
0.280791
0.328857
0.31988
0.37191
0.34916
0.41904
0.397487
0.49385
0.470218
0.605119
0.579119
0.7796
0.747326
1.07835
1.01922
1.67916
1.4266
3.08339
0.932676
)
;

boundaryField
{
    inlet
    {
        type            zeroGradient;
    }
    outlet
    {
        type            fixedValue;
        value           uniform 0;
    }
    upAndBottom
    {
        type            empty;
    }
    obstacle
    {
        type            zeroGradient;
    }
}


// ************************************************************************* //
