x,y,z,U_0,U_1,U_2
0,0,0,0.299999,-0.00011061,0
0,0.1,0,0.299999,-6.6366e-05,0
0,0.2,0,0.3,-2.2122e-05,0
0,0.3,0,0.3,0,0
0,0.4,0,0.3,0,0
0,0.5,0,0.3,0,0
0,0.6,0,0.3,0,0
0,0.7,0,0.3,0,0
0,0.8,0,0.3,0,0
0,0.9,0,0.3,0,0
0,1,0,0.3,0,0
0,1.1,0,0.3,0,0
0,1.2,0,0.3,0,0
0,1.3,0,0.3,0,0
0,1.4,0,0.3,0,0
0,1.5,0,0.3,0,0
0,1.6,0,0.3,0,0
0,1.7,0,0.3,0,0
0,1.8,0,0.3,0,0
0,1.9,0,0.3,0,0
0,2,0,0.3,0,0
0,2.1,0,0.3,0,0
0,2.2,0,0.3,0,0
0,2.3,0,0.3,0,0
0,2.4,0,0.3,0,0
0,2.5,0,0.3,0,0
0,2.6,0,0.3,0,0
0,2.7,0,0.3,0,0
0,2.8,0,0.3,0,0
0,2.9,0,0.3,0,0
0,3,0,0.3,0,0
0,3.1,0,0.3,0,0
0,3.2,0,0.3,0,0
0,3.3,0,0.3,0,0
0,3.4,0,0.3,0,0
0,3.5,0,0.3,0,0
0,3.6,0,0.3,0,0
0,3.7,0,0.3,0,0
0,3.8,0,0.3,0,0
0,3.9,0,0.3,0,0
0,4,0,0.3,0,0
0,4.1,0,0.3,0,0
0,4.2,0,0.3,0,0
0,4.3,0,0.3,0,0
0,4.4,0,0.3,0,0
0,4.5,0,0.3,0,0
0,4.6,0,0.3,0,0
0,4.7,0,0.3,0,0
0,4.8,0,0.3,0,0
0,4.9,0,0.3,0,0
0,5,0,0.3,0,0
0,5.1,0,0.3,0,0
0,5.2,0,0.3,0,0
0,5.3,0,0.3,0,0
0,5.4,0,0.3,0,0
0,5.5,0,0.3,0,0
0,5.6,0,0.3,0,0
0,5.7,0,0.3,0,0
0,5.8,0,0.3,0,0
0,5.9,0,0.3,0,0
0,6,0,0.3,0,0
0,6.1,0,0.3,0,0
0,6.2,0,0.3,0,0
0,6.3,0,0.3,0,0
0,6.4,0,0.3,0,0
0,6.5,0,0.3,0,0
0,6.6,0,0.3,0,0
0,6.7,0,0.3,0,0
0,6.8,0,0.3,0,0
0,6.9,0,0.3,0,0
0,7,0,0.3,0,0
0,7.1,0,0.3,0,0
0,7.2,0,0.3,0,0
0,7.3,0,0.3,0,0
0,7.4,0,0.3,0,0
0,7.5,0,0.3,0,0
0,7.6,0,0.3,0,0
0,7.7,0,0.3,0,0
0,7.8,0,0.3,0,0
0,7.9,0,0.3,0,0
0,8,0,0.3,0,0
0,8.1,0,0.3,0,0
0,8.2,0,0.3,0,0
0,8.3,0,0.3,0,0
0,8.4,0,0.3,0,0
0,8.5,0,0.3,0,0
0,8.6,0,0.3,0,0
0,8.7,0,0.3,0,0
0,8.8,0,0.3,0,0
0,8.9,0,0.3,0,0
0,9,0,0.3,0,0
0,9.1,0,0.3,0,0
0,9.2,0,0.3,0,0
0,9.3,0,0.3,0,0
0,9.4,0,0.3,0,0
0,9.5,0,0.3,0,0
0,9.6,0,0.3,0,0
0,9.7,0,0.3,0,0
0,9.8,0,0.3,0,0
0,9.9,0,0.3,0,0
0,10,0,0.3,0,0
0,10.1,0,0.3,0,0
0,10.2,0,0.3,0,0
0,10.3,0,0.3,0,0
0,10.4,0,0.3,0,0
0,10.5,0,0.3,0,0
0,10.6,0,0.3,0,0
0,10.7,0,0.3,0,0
0,10.8,0,0.3,0,0
0,10.9,0,0.3,0,0
0,11,0,0.3,0,0
0,11.1,0,0.3,0,0
0,11.2,0,0.3,0,0
0,11.3,0,0.3,0,0
0,11.4,0,0.3,0,0
0,11.5,0,0.3,0,0
0,11.6,0,0.3,0,0
0,11.7,0,0.3,0,0
0,11.8,0,0.3,0,0
0,11.9,0,0.3,0,0
0,12,0,0.3,0,0
0,12.1,0,0.3,0,0
0,12.2,0,0.3,0,0
0,12.3,0,0.3,0,0
0,12.4,0,0.3,1.32413e-05,0
0,12.5,0,0.3,5.10735e-05,0
0,12.6,0,0.3,8.89058e-05,0
0,12.7,0,0.3,0.000126738,0
0.1,0,0,0.299998,-0.000187115,0
0.1,0.1,0,0.299998,-0.000122763,0
0.1,0.2,0,0.299999,-7.85186e-05,0
0.1,0.3,0,0.299998,-7.26874e-05,0
0.1,0.4,0,0.299998,-7.26874e-05,0
0.1,0.5,0,0.299999,-9.29002e-05,0
0.1,0.6,0,0.299998,-7.13618e-05,0
0.1,0.7,0,0.299998,-7.13618e-05,0
0.1,0.8,0,0.299997,-6.94686e-05,0
0.1,0.9,0,0.299997,-6.94686e-05,0
0.1,1,0,0.299998,-9.10176e-05,0
0.1,1.1,0,0.299996,-6.70957e-05,0
0.1,1.2,0,0.299996,-6.70957e-05,0
0.1,1.3,0,0.299995,-6.43597e-05,0
0.1,1.4,0,0.299995,-6.43597e-05,0
0.1,1.5,0,0.299997,-8.78374e-05,0
0.1,1.6,0,0.299994,-6.13972e-05,0
0.1,1.7,0,0.299994,-6.13972e-05,0
0.1,1.8,0,0.299993,-5.8368e-05,0
0.1,1.9,0,0.299993,-5.8368e-05,0
0.1,2,0,0.299997,-8.32715e-05,0
0.1,2.1,0,0.299992,-5.54505e-05,0
0.1,2.2,0,0.299992,-5.54505e-05,0
0.1,2.3,0,0.299991,-5.28311e-05,0
0.1,2.4,0,0.299991,-5.28311e-05,0
0.1,2.5,0,0.299997,-7.71959e-05,0
0.1,2.6,0,0.299991,-5.06858e-05,0
0.1,2.7,0,0.299991,-5.06858e-05,0
0.1,2.8,0,0.299992,-4.91489e-05,0
0.1,2.9,0,0.299992,-4.91489e-05,0
0.1,3,0,0.299997,-6.94708e-05,0
0.1,3.1,0,0.299995,-4.82708e-05,0
0.1,3.2,0,0.299995,-4.82708e-05,0
0.1,3.3,0,0.3,-4.79763e-05,0
0.1,3.4,0,0.3,-4.79763e-05,0
0.1,3.5,0,0.299997,-6.00548e-05,0
0.1,3.6,0,0.300009,-4.80351e-05,0
0.1,3.7,0,0.300009,-4.80351e-05,0
0.1,3.8,0,0.300021,-4.80637e-05,0
0.1,3.9,0,0.300021,-4.80637e-05,0
0.1,4,0,0.299994,-4.91953e-05,0
0.1,4.1,0,0.300036,-4.75588e-05,0
0.1,4.2,0,0.300036,-4.75588e-05,0
0.1,4.3,0,0.300054,-4.59963e-05,0
0.1,4.4,0,0.300054,-4.59963e-05,0
0.1,4.5,0,0.29999,-3.73945e-05,0
0.1,4.6,0,0.300072,-4.31006e-05,0
0.1,4.7,0,0.300072,-4.31006e-05,0
0.1,4.8,0,0.300088,-3.86508e-05,0
0.1,4.9,0,0.300088,-3.86508e-05,0
0.1,5,0,0.299986,-2.64483e-05,0
0.1,5.1,0,0.299985,-2.37279e-05,0
0.1,5.2,0,0.299984,-2.18751e-05,0
0.1,5.3,0,0.299984,-2.00375e-05,0
0.1,5.4,0,0.299984,-1.81905e-05,0
0.1,5.5,0,0.299984,-1.63388e-05,0
0.1,5.6,0,0.299984,-1.44858e-05,0
0.1,5.7,0,0.299984,-1.26364e-05,0
0.1,5.8,0,0.299984,-1.07986e-05,0
0.1,5.9,0,0.299985,-8.9409e-06,0
0.1,6,0,0.299986,-5.68865e-06,0
0.1,6.1,0,0.300085,1.46491e-05,0
0.1,6.2,0,0.300085,1.46491e-05,0
0.1,6.3,0,0.300054,1.03925e-05,0
0.1,6.4,0,0.300063,1.66648e-05,0
0.1,6.5,0,0.300063,1.66648e-05,0
0.1,6.6,0,0.300063,1.66648e-05,0
0.1,6.7,0,0.30002,1.46691e-05,0
0.1,6.8,0,0.300041,1.76767e-05,0
0.1,6.9,0,0.300041,1.76767e-05,0
0.1,7,0,0.299998,1.89798e-05,0
0.1,7.1,0,0.300022,1.74958e-05,0
0.1,7.2,0,0.300022,1.74958e-05,0
0.1,7.3,0,0.300016,1.96889e-05,0
0.1,7.4,0,0.300009,1.764e-05,0
0.1,7.5,0,0.300009,1.764e-05,0
0.1,7.6,0,0.300009,1.764e-05,0
0.1,7.7,0,0.299998,2.71909e-05,0
0.1,7.8,0,0.300001,1.90744e-05,0
0.1,7.9,0,0.300001,1.90744e-05,0
0.1,8,0,0.299996,3.7297e-05,0
0.1,8.1,0,0.299997,2.22202e-05,0
0.1,8.2,0,0.299997,2.22202e-05,0
0.1,8.3,0,0.299997,2.54716e-05,0
0.1,8.4,0,0.299996,2.70047e-05,0
0.1,8.5,0,0.299996,2.70047e-05,0
0.1,8.6,0,0.299996,2.70047e-05,0
0.1,8.7,0,0.299995,4.54969e-05,0
0.1,8.8,0,0.299995,3.30369e-05,0
0.1,8.9,0,0.299995,3.30369e-05,0
0.1,9,0,0.299995,5.10253e-05,0
0.1,9.1,0,0.299996,3.98083e-05,0
0.1,9.2,0,0.299996,3.98083e-05,0
0.1,9.3,0,0.299996,4.04991e-05,0
0.1,9.4,0,0.299996,4.73125e-05,0
0.1,9.5,0,0.299996,4.68314e-05,0
0.1,9.6,0,0.299996,4.68314e-05,0
0.1,9.7,0,0.299995,6.31727e-05,0
0.1,9.8,0,0.299997,5.37022e-05,0
0.1,9.9,0,0.299997,5.37022e-05,0
0.1,10,0,0.299996,6.41455e-05,0
0.1,10.1,0,0.299998,6.01185e-05,0
0.1,10.2,0,0.299998,6.01185e-05,0
0.1,10.3,0,0.299998,6.01185e-05,0
0.1,10.4,0,0.299998,6.69153e-05,0
0.1,10.5,0,0.299998,6.58742e-05,0
0.1,10.6,0,0.299998,6.58742e-05,0
0.1,10.7,0,0.299997,7.58026e-05,0
0.1,10.8,0,0.299998,7.08465e-05,0
0.1,10.9,0,0.299998,7.08465e-05,0
0.1,11,0,0.299998,7.53037e-05,0
0.1,11.1,0,0.299999,7.49763e-05,0
0.1,11.2,0,0.299999,7.49763e-05,0
0.1,11.3,0,0.299999,7.49763e-05,0
0.1,11.4,0,0.299999,7.89973e-05,0
0.1,11.5,0,0.299999,7.82505e-05,0
0.1,11.6,0,0.299999,7.82505e-05,0
0.1,11.7,0,0.299998,8.29846e-05,0
0.1,11.8,0,0.3,8.06794e-05,0
0.1,11.9,0,0.3,8.06794e-05,0
0.1,12,0,0.299999,8.22439e-05,0
0.1,12.1,0,0.3,8.22806e-05,0
0.1,12.2,0,0.3,8.22806e-05,0
0.1,12.3,0,0.3,8.22806e-05,0
0.1,12.4,0,0.3,8.3755e-05,0
0.1,12.5,0,0.3,0.000114673,0
0.1,12.6,0,0.3,0.000152505,0
0.1,12.7,0,0.3,0.000192629,0
0.2,0,0,0.299998,-0.00026362,0
0.2,0.1,0,0.299998,-0.000179159,0
0.2,0.2,0,0.299998,-0.000160795,0
0.2,0.3,0,0.299998,-0.000159851,0
0.2,0.4,0,0.299997,-0.000145375,0
0.2,0.5,0,0.299998,-0.0001858,0
0.2,0.6,0,0.299995,-0.000142724,0
0.2,0.7,0,0.299996,-0.000157253,0
0.2,0.8,0,0.299994,-0.000154792,0
0.2,0.9,0,0.299993,-0.000138937,0
0.2,1,0,0.299995,-0.000182035,0
0.2,1.1,0,0.299991,-0.000134191,0
0.2,1.2,0,0.299993,-0.00014994,0
0.2,1.3,0,0.299991,-0.000146384,0
0.2,1.4,0,0.29999,-0.000128719,0
0.2,1.5,0,0.299994,-0.000175675,0
0.2,1.6,0,0.299988,-0.000122794,0
0.2,1.7,0,0.29999,-0.000139831,0
0.2,1.8,0,0.299989,-0.000135893,0
0.2,1.9,0,0.299986,-0.000116736,0
0.2,2,0,0.299993,-0.000166543,0
0.2,2.1,0,0.299984,-0.000110901,0
0.2,2.2,0,0.299987,-0.000128388,0
0.2,2.3,0,0.299986,-0.000124982,0
0.2,2.4,0,0.299983,-0.000105662,0
0.2,2.5,0,0.299993,-0.000154392,0
0.2,2.6,0,0.299983,-0.000101372,0
0.2,2.7,0,0.299987,-0.000117374,0
0.2,2.8,0,0.299988,-0.000115376,0
0.2,2.9,0,0.299985,-9.82978e-05,0
0.2,3,0,0.299994,-0.000138942,0
0.2,3.1,0,0.29999,-9.65415e-05,0
0.2,3.2,0,0.299992,-0.000108229,0
0.2,3.3,0,0.299998,-0.000107847,0
0.2,3.4,0,0.300001,-9.59526e-05,0
0.2,3.5,0,0.299993,-0.00012011,0
0.2,3.6,0,0.300017,-9.60702e-05,0
0.2,3.7,0,0.300008,-0.000100788,0
0.2,3.8,0,0.300024,-0.000100825,0
0.2,3.9,0,0.300042,-9.61274e-05,0
0.2,4,0,0.299989,-9.83906e-05,0
0.2,4.1,0,0.300073,-9.51175e-05,0
0.2,4.2,0,0.300042,-9.21964e-05,0
0.2,4.3,0,0.300065,-9.01652e-05,0
0.2,4.4,0,0.300108,-9.19926e-05,0
0.2,4.5,0,0.29998,-7.47891e-05,0
0.2,4.6,0,0.300143,-8.62012e-05,0
0.2,4.7,0,0.300085,-7.79486e-05,0
0.2,4.8,0,0.300106,-7.21638e-05,0
0.2,4.9,0,0.300176,-7.73015e-05,0
0.2,5,0,0.299972,-5.28967e-05,0
0.2,5.1,0,0.29997,-4.74557e-05,0
0.2,5.2,0,0.299969,-4.37503e-05,0
0.2,5.3,0,0.299968,-4.00751e-05,0
0.2,5.4,0,0.299967,-3.6381e-05,0
0.2,5.5,0,0.299967,-3.26777e-05,0
0.2,5.6,0,0.299967,-2.89716e-05,0
0.2,5.7,0,0.299968,-2.52727e-05,0
0.2,5.8,0,0.299969,-2.15972e-05,0
0.2,5.9,0,0.29997,-1.78818e-05,0
0.2,6,0,0.299972,-1.13773e-05,0
0.2,6.1,0,0.300165,2.80841e-05,0
0.2,6.2,0,0.30017,2.92983e-05,0
0.2,6.3,0,0.300043,1.17767e-05,0
0.2,6.4,0,0.300071,2.20402e-05,0
0.2,6.5,0,0.300127,3.33297e-05,0
0.2,6.6,0,0.300081,2.93602e-05,0
0.2,6.7,0,0.300011,2.51489e-05,0
0.2,6.8,0,0.300082,3.53535e-05,0
0.2,6.9,0,0.300082,3.53535e-05,0
0.2,7,0,0.299992,3.80995e-05,0
0.2,7.1,0,0.30004,3.52462e-05,0
0.2,7.2,0,0.300044,3.49917e-05,0
0.2,7.3,0,0.300011,4.69804e-05,0
0.2,7.4,0,0.300006,4.33469e-05,0
0.2,7.5,0,0.300017,3.52799e-05,0
0.2,7.6,0,0.30001,4.46484e-05,0
0.2,7.7,0,0.299993,6.20278e-05,0
0.2,7.8,0,0.300002,3.81487e-05,0
0.2,7.9,0,0.300002,3.81487e-05,0
0.2,8,0,0.299991,7.89809e-05,0
0.2,8.1,0,0.299993,4.93789e-05,0
0.2,8.2,0,0.299994,4.44404e-05,0
0.2,8.3,0,0.299991,7.33207e-05,0
0.2,8.4,0,0.299991,7.34537e-05,0
0.2,8.5,0,0.299991,5.40094e-05,0
0.2,8.6,0,0.299991,6.58274e-05,0
0.2,8.7,0,0.299989,9.88952e-05,0
0.2,8.8,0,0.299991,6.60738e-05,0
0.2,8.9,0,0.299991,6.60738e-05,0
0.2,9,0,0.299989,0.000109435,0
0.2,9.1,0,0.299991,8.61411e-05,0
0.2,9.2,0,0.299992,7.96166e-05,0
0.2,9.3,0,0.299991,0.000103448,0
0.2,9.4,0,0.299991,0.000110262,0
0.2,9.5,0,0.299993,9.36628e-05,0
0.2,9.6,0,0.299992,0.000100758,0
0.2,9.7,0,0.29999,0.000130233,0
0.2,9.8,0,0.299994,0.000107404,0
0.2,9.9,0,0.299994,0.000107404,0
0.2,10,0,0.299991,0.000134913,0
0.2,10.1,0,0.299994,0.000125005,0
0.2,10.2,0,0.299995,0.000120237,0
0.2,10.3,0,0.299993,0.000133261,0
0.2,10.4,0,0.299994,0.000140996,0
0.2,10.5,0,0.299996,0.000131748,0
0.2,10.6,0,0.299996,0.00013457,0
0.2,10.7,0,0.299993,0.000152798,0
0.2,10.8,0,0.299997,0.000141693,0
0.2,10.9,0,0.299997,0.000141693,0
0.2,11,0,0.299995,0.000154806,0
0.2,11.1,0,0.299997,0.000152418,0
0.2,11.2,0,0.299998,0.000149953,0
0.2,11.3,0,0.299997,0.000155478,0
0.2,11.4,0,0.299997,0.000160584,0
0.2,11.5,0,0.299999,0.000156501,0
0.2,11.6,0,0.299999,0.000157282,0
0.2,11.7,0,0.299996,0.000166217,0
0.2,11.8,0,0.299999,0.000161359,0
0.2,11.9,0,0.299999,0.000161359,0
0.2,12,0,0.299998,0.000166667,0
0.2,12.1,0,0.299999,0.000165936,0
0.2,12.2,0,0.299999,0.000164561,0
0.2,12.3,0,0.299999,0.000166678,0
0.2,12.4,0,0.299999,0.000168901,0
0.2,12.5,0,0.3,0.000178273,0
0.2,12.6,0,0.3,0.000216242,0
0.2,12.7,0,0.299999,0.000258521,0
0.3,0,0,0.299998,-0.000340126,0
0.3,0.1,0,0.299997,-0.000243599,0
0.3,0.2,0,0.299998,-0.000254162,0
0.3,0.3,0,0.299997,-0.000253218,0
0.3,0.4,0,0.299996,-0.000226147,0
0.3,0.5,0,0.299996,-0.000278701,0
0.3,0.6,0,0.299993,-0.000222701,0
0.3,0.7,0,0.299994,-0.000249371,0
0.3,0.8,0,0.299993,-0.00024691,0
0.3,0.9,0,0.29999,-0.000217025,0
0.3,1,0,0.299993,-0.000273053,0
0.3,1.1,0,0.299988,-0.000210856,0
0.3,1.2,0,0.29999,-0.000239535,0
0.3,1.3,0,0.299989,-0.000235978,0
0.3,1.4,0,0.299985,-0.00020247,0
0.3,1.5,0,0.299991,-0.000263512,0
0.3,1.6,0,0.299983,-0.000194768,0
0.3,1.7,0,0.299987,-0.000225565,0
0.3,1.8,0,0.299985,-0.000221627,0
0.3,1.9,0,0.29998,-0.000185065,0
0.3,2,0,0.29999,-0.000249815,0
0.3,2.1,0,0.299978,-0.00017748,0
0.3,2.2,0,0.299984,-0.000208819,0
0.3,2.3,0,0.299983,-0.000205414,0
0.3,2.4,0,0.299976,-0.000168239,0
0.3,2.5,0,0.29999,-0.000231588,0
0.3,2.6,0,0.299976,-0.000162662,0
0.3,2.7,0,0.299984,-0.000190921,0
0.3,2.8,0,0.299985,-0.000188923,0
0.3,2.9,0,0.299979,-0.000155576,0
0.3,3,0,0.299991,-0.000208412,0
0.3,3.1,0,0.299986,-0.000153292,0
0.3,3.2,0,0.299988,-0.000173197,0
0.3,3.3,0,0.299995,-0.000172814,0
0.3,3.4,0,0.299999,-0.00014876,0
0.3,3.5,0,0.29999,-0.000180164,0
0.3,3.6,0,0.300021,-0.000148913,0
0.3,3.7,0,0.300004,-0.000155563,0
0.3,3.8,0,0.30002,-0.0001556,0
0.3,3.9,0,0.300052,-0.000144644,0
0.3,4,0,0.299983,-0.000147586,0
0.3,4.1,0,0.300092,-0.000143331,0
0.3,4.2,0,0.300034,-0.000135582,0
0.3,4.3,0,0.300057,-0.000133551,0
0.3,4.4,0,0.300136,-0.000134548,0
0.3,4.5,0,0.29997,-0.000112184,0
0.3,4.6,0,0.300182,-0.000127019,0
0.3,4.7,0,0.300072,-0.00010926,0
0.3,4.8,0,0.300094,-0.000103475,0
0.3,4.9,0,0.300223,-0.000111071,0
0.3,5,0,0.299958,-7.9345e-05,0
0.3,5.1,0,0.299955,-7.11836e-05,0
0.3,5.2,0,0.299953,-6.56254e-05,0
0.3,5.3,0,0.299952,-6.01126e-05,0
0.3,5.4,0,0.299951,-5.45715e-05,0
0.3,5.5,0,0.299951,-4.90165e-05,0
0.3,5.6,0,0.299951,-4.34573e-05,0
0.3,5.7,0,0.299952,-3.79091e-05,0
0.3,5.8,0,0.299953,-3.23958e-05,0
0.3,5.9,0,0.299955,-2.68227e-05,0
0.3,6,0,0.299958,-1.7066e-05,0
0.3,6.1,0,0.300151,2.23954e-05,0
0.3,6.2,0,0.300219,3.88988e-05,0
0.3,6.3,0,0.300031,1.31609e-05,0
0.3,6.4,0,0.30006,2.34245e-05,0
0.3,6.5,0,0.30019,4.99945e-05,0
0.3,6.6,0,0.300072,3.984e-05,0
0.3,6.7,0,0.300003,3.56287e-05,0
0.3,6.8,0,0.300099,4.95929e-05,0
0.3,6.9,0,0.300077,5.44194e-05,0
0.3,7,0,0.299985,5.72193e-05,0
0.3,7.1,0,0.300033,5.4366e-05,0
0.3,7.2,0,0.300059,5.52654e-05,0
0.3,7.3,0,0.300006,7.42719e-05,0
0.3,7.4,0,0.3,7.06383e-05,0
0.3,7.5,0,0.300026,5.29199e-05,0
0.3,7.6,0,0.300005,7.94853e-05,0
0.3,7.7,0,0.299988,9.68647e-05,0
0.3,7.8,0,0.299999,6.62807e-05,0
0.3,7.9,0,0.299998,7.67956e-05,0
0.3,8,0,0.299986,0.000120665,0
0.3,8.1,0,0.299988,9.10629e-05,0
0.3,8.2,0,0.29999,7.14421e-05,0
0.3,8.3,0,0.299986,0.00012117,0
0.3,8.4,0,0.299985,0.000121303,0
0.3,8.5,0,0.299987,8.1014e-05,0
0.3,8.6,0,0.299985,0.000119226,0
0.3,8.7,0,0.299984,0.000152294,0
0.3,8.8,0,0.299986,0.000112786,0
0.3,8.9,0,0.299985,0.000118614,0
0.3,9,0,0.299984,0.000167845,0
0.3,9.1,0,0.299986,0.000144551,0
0.3,9.2,0,0.299988,0.000121497,0
0.3,9.3,0,0.299985,0.000166398,0
0.3,9.4,0,0.299985,0.000173211,0
0.3,9.5,0,0.299989,0.000141938,0
0.3,9.6,0,0.299987,0.000167819,0
0.3,9.7,0,0.299985,0.000197294,0
0.3,9.8,0,0.299989,0.000171374,0
0.3,9.9,0,0.29999,0.000172569,0
0.3,10,0,0.299986,0.000205682,0
0.3,10.1,0,0.299989,0.000195773,0
0.3,10.2,0,0.299993,0.000180355,0
0.3,10.3,0,0.299989,0.000207342,0
0.3,10.4,0,0.299989,0.000215077,0
0.3,10.5,0,0.299994,0.000199154,0
0.3,10.6,0,0.299992,0.000211566,0
0.3,10.7,0,0.299989,0.000229794,0
0.3,10.8,0,0.299994,0.000217863,0
0.3,10.9,0,0.299995,0.000217513,0
0.3,11,0,0.299992,0.000234309,0
0.3,11.1,0,0.299994,0.000231921,0
0.3,11.2,0,0.299997,0.000224929,0
0.3,11.3,0,0.299994,0.000237064,0
0.3,11.4,0,0.299994,0.00024217,0
0.3,11.5,0,0.299998,0.000235697,0
0.3,11.6,0,0.299997,0.000240514,0
0.3,11.7,0,0.299995,0.000249449,0
0.3,11.8,0,0.299998,0.000244496,0
0.3,11.9,0,0.299999,0.000243826,0
0.3,12,0,0.299997,0.00025109,0
0.3,12.1,0,0.299998,0.000250359,0
0.3,12.2,0,0.299999,0.000246842,0
0.3,12.3,0,0.299999,0.000251824,0
0.3,12.4,0,0.299999,0.000254047,0
0.3,12.5,0,0.3,0.000250073,0
0.3,12.6,0,0.3,0.000282133,0
0.3,12.7,0,0.299999,0.000324412,0
0.4,0,0,0.299998,-0.000416631,0
0.4,0.1,0,0.299997,-0.000323802,0
0.4,0.2,0,0.299997,-0.000347529,0
0.4,0.3,0,0.299996,-0.000346585,0
0.4,0.4,0,0.299994,-0.000321115,0
0.4,0.5,0,0.299995,-0.000371601,0
0.4,0.6,0,0.299992,-0.000317677,0
0.4,0.7,0,0.299992,-0.000341489,0
0.4,0.8,0,0.299991,-0.000339028,0
0.4,0.9,0,0.299988,-0.000310308,0
0.4,1,0,0.299991,-0.00036407,0
0.4,1.1,0,0.299986,-0.000304123,0
0.4,1.2,0,0.299987,-0.000329129,0
0.4,1.3,0,0.299986,-0.000325572,0
0.4,1.4,0,0.299982,-0.000292831,0
0.4,1.5,0,0.299988,-0.00035135,0
0.4,1.6,0,0.29998,-0.000285039,0
0.4,1.7,0,0.299983,-0.0003113,0
0.4,1.8,0,0.299982,-0.000307362,0
0.4,1.9,0,0.299977,-0.000271074,0
0.4,2,0,0.299987,-0.000333086,0
0.4,2.1,0,0.299975,-0.000263249,0
0.4,2.2,0,0.29998,-0.000289251,0
0.4,2.3,0,0.29998,-0.000285845,0
0.4,2.4,0,0.299973,-0.000248195,0
0.4,2.5,0,0.299987,-0.000308784,0
0.4,2.6,0,0.299974,-0.000242144,0
0.4,2.7,0,0.29998,-0.000264467,0
0.4,2.8,0,0.299982,-0.000262469,0
0.4,2.9,0,0.299976,-0.000227486,0
0.4,3,0,0.299988,-0.000277883,0
0.4,3.1,0,0.299983,-0.000224433,0
0.4,3.2,0,0.299986,-0.000238164,0
0.4,3.3,0,0.299992,-0.000237782,0
0.4,3.4,0,0.299996,-0.000210514,0
0.4,3.5,0,0.299986,-0.000240219,0
0.4,3.6,0,0.300016,-0.000209642,0
0.4,3.7,0,0.3,-0.000210338,0
0.4,3.8,0,0.300016,-0.000210376,0
0.4,3.9,0,0.300044,-0.00019451,0
0.4,4,0,0.299978,-0.000196781,0
0.4,4.1,0,0.300082,-0.000192109,0
0.4,4.2,0,0.300027,-0.000178968,0
0.4,4.3,0,0.30005,-0.000176937,0
0.4,4.4,0,0.30012,-0.000171682,0
0.4,4.5,0,0.299961,-0.000149578,0
0.4,4.6,0,0.300164,-0.000163235,0
0.4,4.7,0,0.30006,-0.000140571,0
0.4,4.8,0,0.300081,-0.000134786,0
0.4,4.9,0,0.300199,-0.000136786,0
0.4,5,0,0.299943,-0.000105793,0
0.4,5.1,0,0.29994,-9.49114e-05,0
0.4,5.2,0,0.299938,-8.75006e-05,0
0.4,5.3,0,0.299936,-8.01501e-05,0
0.4,5.4,0,0.299935,-7.2762e-05,0
0.4,5.5,0,0.299934,-6.53553e-05,0
0.4,5.6,0,0.299935,-5.79431e-05,0
0.4,5.7,0,0.299936,-5.05455e-05,0
0.4,5.8,0,0.299938,-4.31944e-05,0
0.4,5.9,0,0.29994,-3.57636e-05,0
0.4,6,0,0.299944,-2.27546e-05,0
0.4,6.1,0,0.300137,1.67068e-05,0
0.4,6.2,0,0.300195,3.78546e-05,0
0.4,6.3,0,0.300019,1.45451e-05,0
0.4,6.4,0,0.300048,2.48087e-05,0
0.4,6.5,0,0.300143,5.01189e-05,0
0.4,6.6,0,0.300063,5.03198e-05,0
0.4,6.7,0,0.299994,4.61084e-05,0
0.4,6.8,0,0.300089,6.0105e-05,0
0.4,6.9,0,0.300071,7.35392e-05,0
0.4,7,0,0.299979,7.63391e-05,0
0.4,7.1,0,0.300027,7.34857e-05,0
0.4,7.2,0,0.300047,8.29083e-05,0
0.4,7.3,0,0.3,0.000101563,0
0.4,7.4,0,0.299995,9.79298e-05,0
0.4,7.5,0,0.300014,8.95982e-05,0
0.4,7.6,0,0.3,0.000114322,0
0.4,7.7,0,0.299984,0.000131702,0
0.4,7.8,0,0.299995,0.000101118,0
0.4,7.9,0,0.299993,0.00011848,0
0.4,8,0,0.299981,0.000162349,0
0.4,8.1,0,0.299984,0.000132747,0
0.4,8.2,0,0.299985,0.000125392,0
0.4,8.3,0,0.299981,0.000169019,0
0.4,8.4,0,0.29998,0.000169152,0
0.4,8.5,0,0.299981,0.000142101,0
0.4,8.6,0,0.29998,0.000172624,0
0.4,8.7,0,0.299979,0.000205692,0
0.4,8.8,0,0.29998,0.000166185,0
0.4,8.9,0,0.29998,0.000177024,0
0.4,9,0,0.299978,0.000226255,0
0.4,9.1,0,0.29998,0.000202961,0
0.4,9.2,0,0.299982,0.000192082,0
0.4,9.3,0,0.29998,0.000229347,0
0.4,9.4,0,0.29998,0.000236161,0
0.4,9.5,0,0.299983,0.00021319,0
0.4,9.6,0,0.299982,0.000234879,0
0.4,9.7,0,0.29998,0.000264354,0
0.4,9.8,0,0.299984,0.000238435,0
0.4,9.9,0,0.299985,0.000243337,0
0.4,10,0,0.299982,0.00027645,0
0.4,10.1,0,0.299985,0.000266541,0
0.4,10.2,0,0.299987,0.000259736,0
0.4,10.3,0,0.299985,0.000281423,0
0.4,10.4,0,0.299985,0.000289157,0
0.4,10.5,0,0.299989,0.00027672,0
0.4,10.6,0,0.299989,0.000288562,0
0.4,10.7,0,0.299986,0.00030679,0
0.4,10.8,0,0.29999,0.000294858,0
0.4,10.9,0,0.299991,0.000297016,0
0.4,11,0,0.299988,0.000313811,0
0.4,11.1,0,0.299991,0.000311423,0
0.4,11.2,0,0.299994,0.000308561,0
0.4,11.3,0,0.299992,0.000318651,0
0.4,11.4,0,0.299992,0.000323757,0
0.4,11.5,0,0.299995,0.000318362,0
0.4,11.6,0,0.299995,0.000323746,0
0.4,11.7,0,0.299993,0.000332681,0
0.4,11.8,0,0.299996,0.000327728,0
0.4,11.9,0,0.299997,0.000328306,0
0.4,12,0,0.299996,0.000335513,0
0.4,12.1,0,0.299996,0.000334782,0
0.4,12.2,0,0.299998,0.000332913,0
0.4,12.3,0,0.299998,0.00033697,0
0.4,12.4,0,0.299998,0.000339193,0
0.4,12.5,0,0.299999,0.000335492,0
0.4,12.6,0,0.299999,0.000348024,0
0.4,12.7,0,0.299999,0.000390303,0
0.5,0,0,0.299998,-0.000493136,0
0.5,0.1,0,0.299997,-0.000437277,0
0.5,0.2,0,0.299996,-0.000440896,0
0.5,0.3,0,0.299996,-0.000439952,0
0.5,0.4,0,0.299994,-0.000434695,0
0.5,0.5,0,0.299994,-0.000464501,0
0.5,0.6,0,0.299991,-0.000431333,0
0.5,0.7,0,0.29999,-0.000433607,0
0.5,0.8,0,0.299989,-0.000431146,0
0.5,0.9,0,0.299987,-0.000423975,0
0.5,1,0,0.299988,-0.000455088,0
0.5,1.1,0,0.299985,-0.000417639,0
0.5,1.2,0,0.299984,-0.000418723,0
0.5,1.3,0,0.299983,-0.000415166,0
0.5,1.4,0,0.299982,-0.000405903,0
0.5,1.5,0,0.299985,-0.000439187,0
0.5,1.6,0,0.29998,-0.000397214,0
0.5,1.7,0,0.29998,-0.000397034,0
0.5,1.8,0,0.299979,-0.000393096,0
0.5,1.9,0,0.299978,-0.000381712,0
0.5,2,0,0.299983,-0.000416358,0
0.5,2.1,0,0.299976,-0.000371502,0
0.5,2.2,0,0.299977,-0.000369682,0
0.5,2.3,0,0.299976,-0.000366277,0
0.5,2.4,0,0.299975,-0.000352991,0
0.5,2.5,0,0.299983,-0.000385979,0
0.5,2.6,0,0.299976,-0.0003422,0
0.5,2.7,0,0.299977,-0.000338014,0
0.5,2.8,0,0.299978,-0.000336016,0
0.5,2.9,0,0.299978,-0.000321354,0
0.5,3,0,0.299985,-0.000347354,0
0.5,3.1,0,0.299982,-0.0003106,0
0.5,3.2,0,0.299982,-0.000303132,0
0.5,3.3,0,0.299989,-0.000302749,0
0.5,3.4,0,0.299989,-0.00028756,0
0.5,3.5,0,0.299983,-0.000300274,0
0.5,3.6,0,0.3,-0.000276437,0
0.5,3.7,0,0.299996,-0.000265113,0
0.5,3.8,0,0.300012,-0.000265151,0
0.5,3.9,0,0.300013,-0.000250417,0
0.5,4,0,0.299972,-0.000245977,0
0.5,4.1,0,0.300033,-0.000237131,0
0.5,4.2,0,0.300019,-0.000222353,0
0.5,4.3,0,0.300042,-0.000220322,0
0.5,4.4,0,0.300049,-0.000206466,0
0.5,4.5,0,0.299951,-0.000186973,0
0.5,4.6,0,0.30007,-0.00018884,0
0.5,4.7,0,0.300048,-0.000171882,0
0.5,4.8,0,0.300069,-0.000166097,0
0.5,4.9,0,0.300085,-0.000155894,0
0.5,5,0,0.299929,-0.000132242,0
0.5,5.1,0,0.299924,-0.000118639,0
0.5,5.2,0,0.299922,-0.000109376,0
0.5,5.3,0,0.29992,-0.000100188,0
0.5,5.4,0,0.299918,-9.09524e-05,0
0.5,5.5,0,0.299918,-8.16942e-05,0
0.5,5.6,0,0.299918,-7.24289e-05,0
0.5,5.7,0,0.29992,-6.31818e-05,0
0.5,5.8,0,0.299922,-5.3993e-05,0
0.5,5.9,0,0.299925,-4.47045e-05,0
0.5,6,0,0.29993,-2.84433e-05,0
0.5,6.1,0,0.30008,5.1776e-06,0
0.5,6.2,0,0.300085,1.89011e-05,0
0.5,6.3,0,0.300008,1.59293e-05,0
0.5,6.4,0,0.300037,2.61929e-05,0
0.5,6.5,0,0.300059,4.53181e-05,0
0.5,6.6,0,0.300054,6.07996e-05,0
0.5,6.7,0,0.299985,5.65882e-05,0
0.5,6.8,0,0.300033,7.20278e-05,0
0.5,6.9,0,0.300037,8.87919e-05,0
0.5,7,0,0.299972,9.54588e-05,0
0.5,7.1,0,0.300011,9.59682e-05,0
0.5,7.2,0,0.300013,0.000111824,0
0.5,7.3,0,0.299995,0.000128855,0
0.5,7.4,0,0.29999,0.000125221,0
0.5,7.5,0,0.299995,0.000134087,0
0.5,7.6,0,0.299995,0.000149159,0
0.5,7.7,0,0.299979,0.000166539,0
0.5,7.8,0,0.299984,0.000156877,0
0.5,7.9,0,0.299984,0.000170162,0
0.5,8,0,0.299977,0.000204033,0
0.5,8.1,0,0.299978,0.000180742,0
0.5,8.2,0,0.299978,0.000192705,0
0.5,8.3,0,0.299976,0.000216868,0
0.5,8.4,0,0.299975,0.000217001,0
0.5,8.5,0,0.299975,0.000216344,0
0.5,8.6,0,0.299975,0.000227111,0
0.5,8.7,0,0.299973,0.00025909,0
0.5,8.8,0,0.299974,0.000240601,0
0.5,8.9,0,0.299974,0.000250325,0
0.5,9,0,0.299973,0.000284665,0
0.5,9.1,0,0.299975,0.000264825,0
0.5,9.2,0,0.299975,0.000273633,0
0.5,9.3,0,0.299974,0.000292297,0
0.5,9.4,0,0.299975,0.00029911,0
0.5,9.5,0,0.299976,0.000296368,0
0.5,9.6,0,0.299976,0.000304345,0
0.5,9.7,0,0.299975,0.000331415,0
0.5,9.8,0,0.299978,0.000317977,0
0.5,9.9,0,0.299978,0.00032517,0
0.5,10,0,0.299977,0.000347218,0
0.5,10.1,0,0.29998,0.000338039,0
0.5,10.2,0,0.299981,0.000344466,0
0.5,10.3,0,0.299981,0.000355504,0
0.5,10.4,0,0.299981,0.000363238,0
0.5,10.5,0,0.299983,0.000361922,0
0.5,10.6,0,0.299984,0.000367579,0
0.5,10.7,0,0.299982,0.000383786,0
0.5,10.8,0,0.299985,0.000377345,0
0.5,10.9,0,0.299986,0.000382209,0
0.5,11,0,0.299985,0.000393314,0
0.5,11.1,0,0.299988,0.000390926,0
0.5,11.2,0,0.299989,0.000394674,0
0.5,11.3,0,0.299989,0.000400237,0
0.5,11.4,0,0.299989,0.000405343,0
0.5,11.5,0,0.299991,0.00040493,0
0.5,11.6,0,0.299992,0.000408124,0
0.5,11.7,0,0.299991,0.000415914,0
0.5,11.8,0,0.299993,0.000412972,0
0.5,11.9,0,0.299995,0.000415282,0
0.5,12,0,0.299994,0.000419936,0
0.5,12.1,0,0.299995,0.000419205,0
0.5,12.2,0,0.299996,0.000420201,0
0.5,12.3,0,0.299997,0.000422116,0
0.5,12.4,0,0.299997,0.000424338,0
0.5,12.5,0,0.299998,0.00042293,0
0.5,12.6,0,0.299999,0.000423402,0
0.5,12.7,0,0.299998,0.000456194,0
0.6,0,0,0.299998,-0.000569641,0
0.6,0.1,0,0.299997,-0.000550753,0
0.6,0.2,0,0.299996,-0.00055035,0
0.6,0.3,0,0.299995,-0.000549489,0
0.6,0.4,0,0.299994,-0.000548275,0
0.6,0.5,0,0.299993,-0.000557401,0
0.6,0.6,0,0.299991,-0.000544989,0
0.6,0.7,0,0.299989,-0.000542955,0
0.6,0.8,0,0.299988,-0.000540503,0
0.6,0.9,0,0.299987,-0.000537642,0
0.6,1,0,0.299986,-0.000546105,0
0.6,1.1,0,0.299984,-0.000531155,0
0.6,1.2,0,0.299983,-0.000527455,0
0.6,1.3,0,0.299982,-0.000523542,0
0.6,1.4,0,0.299982,-0.000518975,0
0.6,1.5,0,0.299982,-0.000527024,0
0.6,1.6,0,0.29998,-0.000509388,0
0.6,1.7,0,0.299979,-0.000503921,0
0.6,1.8,0,0.299979,-0.000498754,0
0.6,1.9,0,0.299978,-0.00049235,0
0.6,2,0,0.29998,-0.000499629,0
0.6,2.1,0,0.299978,-0.000479754,0
0.6,2.2,0,0.299977,-0.00047237,0
0.6,2.3,0,0.299977,-0.0004662,0
0.6,2.4,0,0.299977,-0.000457788,0
0.6,2.5,0,0.29998,-0.000463175,0
0.6,2.6,0,0.299978,-0.000442257,0
0.6,2.7,0,0.299978,-0.000432769,0
0.6,2.8,0,0.299979,-0.00042582,0
0.6,2.9,0,0.29998,-0.000415223,0
0.6,3,0,0.299982,-0.000416825,0
0.6,3.1,0,0.299981,-0.000396768,0
0.6,3.2,0,0.299981,-0.00038506,0
0.6,3.3,0,0.299983,-0.00037738,0
0.6,3.4,0,0.299982,-0.000364606,0
0.6,3.5,0,0.29998,-0.000360329,0
0.6,3.6,0,0.299984,-0.000343232,0
0.6,3.7,0,0.299982,-0.000329504,0
0.6,3.8,0,0.299986,-0.000320831,0
0.6,3.9,0,0.299982,-0.000306324,0
0.6,4,0,0.299966,-0.000295172,0
0.6,4.1,0,0.299983,-0.000282153,0
0.6,4.2,0,0.299978,-0.000267048,0
0.6,4.3,0,0.299984,-0.000256827,0
0.6,4.4,0,0.299978,-0.00024125,0
0.6,4.5,0,0.299941,-0.000224367,0
0.6,4.6,0,0.299977,-0.000214445,0
0.6,4.7,0,0.29997,-0.000198628,0
0.6,4.8,0,0.299975,-0.000187646,0
0.6,4.9,0,0.29997,-0.000175003,0
0.6,5,0,0.299915,-0.00015869,0
0.6,5.1,0,0.299909,-0.000142367,0
0.6,5.2,0,0.299906,-0.000131251,0
0.6,5.3,0,0.299904,-0.000120225,0
0.6,5.4,0,0.299902,-0.000109143,0
0.6,5.5,0,0.299902,-9.8033e-05,0
0.6,5.6,0,0.299902,-8.69147e-05,0
0.6,5.7,0,0.299904,-7.58182e-05,0
0.6,5.8,0,0.299906,-6.47916e-05,0
0.6,5.9,0,0.29991,-5.36454e-05,0
0.6,6,0,0.299916,-3.41319e-05,0
0.6,6.1,0,0.299969,-1.3776e-05,0
0.6,6.2,0,0.299974,-5.25149e-08,0
0.6,6.3,0,0.299979,1.3671e-05,0
0.6,6.4,0,0.29997,2.28691e-05,0
0.6,6.5,0,0.299976,4.05172e-05,0
0.6,6.6,0,0.299981,5.81654e-05,0
0.6,6.7,0,0.299973,6.71865e-05,0
0.6,6.8,0,0.299977,8.39506e-05,0
0.6,6.9,0,0.299981,0.000100715,0
0.6,7,0,0.299966,0.000114579,0
0.6,7.1,0,0.299977,0.000124884,0
0.6,7.2,0,0.299979,0.000140739,0
0.6,7.3,0,0.299982,0.000156595,0
0.6,7.4,0,0.299976,0.000163935,0
0.6,7.5,0,0.299977,0.000178575,0
0.6,7.6,0,0.299977,0.000193215,0
0.6,7.7,0,0.299974,0.000201375,0
0.6,7.8,0,0.299974,0.000214323,0
0.6,7.9,0,0.299974,0.000227609,0
0.6,8,0,0.299972,0.000245717,0
0.6,8.1,0,0.299971,0.000248055,0
0.6,8.2,0,0.299971,0.000260017,0
0.6,8.3,0,0.29997,0.00027198,0
0.6,8.4,0,0.299969,0.00027982,0
0.6,8.5,0,0.299969,0.000290587,0
0.6,8.6,0,0.299968,0.000301354,0
0.6,8.7,0,0.299968,0.000312488,0
0.6,8.8,0,0.299968,0.000319372,0
0.6,8.9,0,0.299968,0.000329097,0
0.6,9,0,0.299967,0.000343075,0
0.6,9.1,0,0.299968,0.000346376,0
0.6,9.2,0,0.299968,0.000355184,0
0.6,9.3,0,0.299968,0.000363992,0
0.6,9.4,0,0.299969,0.00037157,0
0.6,9.5,0,0.299969,0.000379547,0
0.6,9.6,0,0.29997,0.000387524,0
0.6,9.7,0,0.29997,0.000398475,0
0.6,9.8,0,0.299971,0.000402103,0
0.6,9.9,0,0.299972,0.000409297,0
0.6,10,0,0.299972,0.000417986,0
0.6,10.1,0,0.299973,0.000422769,0
0.6,10.2,0,0.299974,0.000429197,0
0.6,10.3,0,0.299975,0.000435624,0
0.6,10.4,0,0.299976,0.000441469,0
0.6,10.5,0,0.299977,0.000447125,0
0.6,10.6,0,0.299978,0.000452781,0
0.6,10.7,0,0.299978,0.000460781,0
0.6,10.8,0,0.29998,0.000462997,0
0.6,10.9,0,0.299981,0.000467861,0
0.6,11,0,0.299982,0.000472816,0
0.6,11.1,0,0.299983,0.000476743,0
0.6,11.2,0,0.299984,0.000480786,0
0.6,11.3,0,0.299986,0.00048483,0
0.6,11.4,0,0.299986,0.000488305,0
0.6,11.5,0,0.299988,0.000491499,0
0.6,11.6,0,0.299989,0.000494692,0
0.6,11.7,0,0.299989,0.000499146,0
0.6,11.8,0,0.299991,0.000499948,0
0.6,11.9,0,0.299992,0.000502258,0
0.6,12,0,0.299993,0.000504568,0
0.6,12.1,0,0.299994,0.000506087,0
0.6,12.2,0,0.299995,0.00050749,0
0.6,12.3,0,0.299996,0.000508892,0
0.6,12.4,0,0.299997,0.000509895,0
0.6,12.5,0,0.299997,0.000510367,0
0.6,12.6,0,0.299998,0.00051084,0
0.6,12.7,0,0.299998,0.000522085,0
0.7,0,0,0.299997,-0.000654275,0
0.7,0.1,0,0.299997,-0.000664384,0
0.7,0.2,0,0.299996,-0.00066398,0
0.7,0.3,0,0.299995,-0.000663225,0
0.7,0.4,0,0.299993,-0.000662012,0
0.7,0.5,0,0.29999,-0.000649672,0
0.7,0.6,0,0.29999,-0.000658804,0
0.7,0.7,0,0.299989,-0.00065677,0
0.7,0.8,0,0.299987,-0.000654329,0
0.7,0.9,0,0.299986,-0.000651468,0
0.7,1,0,0.299982,-0.000635946,0
0.7,1.1,0,0.299984,-0.000644835,0
0.7,1.2,0,0.299983,-0.000641134,0
0.7,1.3,0,0.299982,-0.000636784,0
0.7,1.4,0,0.299981,-0.000632216,0
0.7,1.5,0,0.299976,-0.000612924,0
0.7,1.6,0,0.29998,-0.000621739,0
0.7,1.7,0,0.299979,-0.000616272,0
0.7,1.8,0,0.299979,-0.000609576,0
0.7,1.9,0,0.299979,-0.000603172,0
0.7,2,0,0.299972,-0.000580171,0
0.7,2.1,0,0.299979,-0.0005882,0
0.7,2.2,0,0.299979,-0.000580816,0
0.7,2.3,0,0.299979,-0.000571199,0
0.7,2.4,0,0.299979,-0.000562787,0
0.7,2.5,0,0.299971,-0.000537092,0
0.7,2.6,0,0.29998,-0.000542524,0
0.7,2.7,0,0.299981,-0.000533036,0
0.7,2.8,0,0.299981,-0.000519904,0
0.7,2.9,0,0.299981,-0.000509307,0
0.7,3,0,0.299972,-0.000483047,0
0.7,3.1,0,0.29998,-0.000483147,0
0.7,3.2,0,0.29998,-0.000471439,0
0.7,3.3,0,0.299977,-0.000454623,0
0.7,3.4,0,0.299976,-0.00044185,0
0.7,3.5,0,0.299969,-0.000417992,0
0.7,3.6,0,0.299968,-0.000410196,0
0.7,3.7,0,0.299966,-0.000396468,0
0.7,3.8,0,0.299956,-0.000376868,0
0.7,3.9,0,0.299952,-0.000362361,0
0.7,4,0,0.299955,-0.000343545,0
0.7,4.1,0,0.299934,-0.000327275,0
0.7,4.2,0,0.299929,-0.00031217,0
0.7,4.3,0,0.299913,-0.000291693,0
0.7,4.4,0,0.299907,-0.000276116,0
0.7,4.5,0,0.29993,-0.000262771,0
0.7,4.6,0,0.299883,-0.00024006,0
0.7,4.7,0,0.299876,-0.000224243,0
0.7,4.8,0,0.29986,-0.000205524,0
0.7,4.9,0,0.299855,-0.000192881,0
0.7,5,0,0.299904,-0.000187204,0
0.7,5.1,0,0.299898,-0.000167756,0
0.7,5.2,0,0.299895,-0.00015429,0
0.7,5.3,0,0.299893,-0.000140894,0
0.7,5.4,0,0.299891,-0.000127433,0
0.7,5.5,0,0.299891,-0.000113938,0
0.7,5.6,0,0.299891,-0.000100429,0
0.7,5.7,0,0.299893,-8.69415e-05,0
0.7,5.8,0,0.299895,-7.35223e-05,0
0.7,5.9,0,0.299898,-5.99746e-05,0
0.7,6,0,0.299905,-3.67773e-05,0
0.7,6.1,0,0.299858,-3.50212e-05,0
0.7,6.2,0,0.299862,-2.12978e-05,0
0.7,6.3,0,0.299867,-7.57431e-06,0
0.7,6.4,0,0.299887,1.83372e-05,0
0.7,6.5,0,0.299892,3.59854e-05,0
0.7,6.6,0,0.299898,5.36335e-05,0
0.7,6.7,0,0.299917,7.9296e-05,0
0.7,6.8,0,0.299921,9.60601e-05,0
0.7,6.9,0,0.299926,0.000112824,0