x,y,z,U_0,U_1,U_2
0,0,0,2.95366,-0.0395127,6.4625e-13
0,0.1,0,2.96315,-0.0314235,5.13947e-13
0,0.2,0,2.97263,-0.0233343,3.81644e-13
0,0.3,0,2.98212,-0.015245,2.49341e-13
0,0.4,0,2.99161,-0.00715584,1.17037e-13
0,0.5,0,3,-1.7568e-18,-3.93641e-28
0,0.6,0,3,-2.10817e-18,-4.72369e-28
0,0.7,0,3,-2.45953e-18,-5.51098e-28
0,0.8,0,3,-2.81089e-18,-6.29826e-28
0,0.9,0,3,-3.16225e-18,-7.08554e-28
0,1,0,3,-3.51361e-18,-7.87282e-28
0,1.1,0,3,-3.86497e-18,-8.66011e-28
0,1.2,0,3,-4.21633e-18,-9.44739e-28
0,1.3,0,3,-4.56769e-18,-1.02347e-27
0,1.4,0,3,-4.91905e-18,-1.1022e-27
0,1.5,0,3,-4.95444e-18,-1.30454e-27
0,1.6,0,3,-5.28473e-18,-1.39151e-27
0,1.7,0,3,-5.61503e-18,-1.47848e-27
0,1.8,0,3,-5.94533e-18,-1.56545e-27
0,1.9,0,3,-6.27562e-18,-1.65242e-27
0,2,0,3,-6.31872e-18,-3.52332e-27
0,2.1,0,3,-6.63465e-18,-3.69949e-27
0,2.2,0,3,-6.95059e-18,-3.87566e-27
0,2.3,0,3,-7.26652e-18,-4.05182e-27
0,2.4,0,3,-7.58246e-18,-4.22799e-27
0,2.5,0,3,-7.62247e-18,-7.21289e-27
0,2.6,0,3,-7.92737e-18,-7.50141e-27
0,2.7,0,3,-8.23227e-18,-7.78992e-27
0,2.8,0,3,-8.53717e-18,-8.07844e-27
0,2.9,0,3,-8.84207e-18,-8.36695e-27
0,3,0,3,-9.02217e-18,-1.0827e-26
0,3.1,0,3,-9.32291e-18,-1.11879e-26
0,3.2,0,3,-9.62365e-18,-1.15488e-26
0,3.3,0,3,-9.92438e-18,-1.19097e-26
0,3.4,0,3,-1.02251e-17,-1.22706e-26
0,3.5,0,3,-9.79662e-18,-1.4048e-26
0,3.6,0,3,-1.00765e-17,-1.44493e-26
0,3.7,0,3,-1.03564e-17,-1.48507e-26
0,3.8,0,3,-1.06363e-17,-1.52521e-26
0,3.9,0,3,-1.09162e-17,-1.56534e-26
0,4,0,3,-8.931e-18,-1.93368e-26
0,4.1,0,3,-9.15428e-18,-1.98202e-26
0,4.2,0,3,-9.37755e-18,-2.03036e-26
0,4.3,0,3,-9.60083e-18,-2.07871e-26
0,4.4,0,3,-6.57105e-18,-2.51616e-26
0,4.5,0,3,-6.7204e-18,-2.57334e-26
0,4.6,0,3,-6.86974e-18,-2.63053e-26
0,4.7,0,3,-7.01908e-18,-2.68772e-26
0,4.8,0,3,-7.16842e-18,-2.7449e-26
0,4.9,0,3,-4.14087e-18,-2.91769e-26
0,5,0,3,-4.22538e-18,-2.97724e-26
0,5.1,0,3,-4.30989e-18,-3.03678e-26
0,5.2,0,3,-4.39439e-18,-3.09633e-26
0,5.3,0,3,-4.4789e-18,-3.15587e-26
0,5.4,0,3,-1.94472e-18,-3.0979e-26
0,5.5,0,3,-1.98073e-18,-3.15527e-26
0,5.6,0,3,-2.01675e-18,-3.21264e-26
0,5.7,0,3,-2.05276e-18,-3.27001e-26
0,5.8,0,3,-2.08877e-18,-3.32738e-26
0,5.9,0,3,2.66093e-19,-3.18879e-26
0,6,0,3,2.70603e-19,-3.24284e-26
0,6.1,0,3,2.75113e-19,-3.29689e-26
0,6.2,0,3,2.79623e-19,-3.35094e-26
0,6.3,0,3,2.84133e-19,-3.40498e-26
0,6.4,0,3,2.0443e-18,-3.33153e-26
0,6.5,0,3,2.07624e-18,-3.38358e-26
0,6.6,0,3,2.10818e-18,-3.43564e-26
0,6.7,0,3,2.14012e-18,-3.48769e-26
0,6.8,0,3,2.17207e-18,-3.53975e-26
0,6.9,0,3,4.87518e-18,-3.55728e-26
0,7,0,3,4.94583e-18,-3.60883e-26
0,7.1,0,3,5.01649e-18,-3.66039e-26
0,7.2,0,3,5.08714e-18,-3.71194e-26
0,7.3,0,3,5.1578e-18,-3.7635e-26
0,7.4,0,3,6.58076e-18,-3.88592e-26
0,7.5,0,3,6.66969e-18,-3.93844e-26
0,7.6,0,3,6.75862e-18,-3.99095e-26
0,7.7,0,3,6.84754e-18,-4.04346e-26
0,7.8,0,3,6.93647e-18,-4.09597e-26
0,7.9,0,3,6.79883e-18,-4.04491e-26
0,8,0,3,6.88489e-18,-4.09611e-26
0,8.1,0,3,6.97095e-18,-4.14731e-26
0,8.2,0,3,7.05702e-18,-4.19851e-26
0,8.3,0,3,7.14308e-18,-4.24971e-26
0,8.4,0,3,7.80499e-18,-4.00839e-26
0,8.5,0,3,7.8979e-18,-4.05611e-26
0,8.6,0,3,7.99082e-18,-4.10383e-26
0,8.7,0,3,8.08374e-18,-4.15155e-26
0,8.8,0,3,9.82247e-18,-4.08984e-26
0,8.9,0,3,9.93409e-18,-4.13631e-26
0,9,0,3,1.00457e-17,-4.18279e-26
0,9.1,0,3,1.01573e-17,-4.22926e-26
0,9.2,0,3,1.02689e-17,-4.27574e-26
0,9.3,0,3,1.46424e-17,-4.70096e-26
0,9.4,0,3,1.47998e-17,-4.75151e-26
0,9.5,0,3,1.49573e-17,-4.80206e-26
0,9.6,0,3,1.51147e-17,-4.8526e-26
0,9.7,0,3,1.52722e-17,-4.90315e-26
0,9.8,0,3,1.92147e-17,-5.449e-26
0,9.9,0,3,1.94107e-17,-5.5046e-26
0,10,0,3,1.96068e-17,-5.5602e-26
0,10.1,0,3,1.98029e-17,-5.6158e-26
0,10.2,0,3,1.99989e-17,-5.67141e-26
0,10.3,0,3,2.43711e-17,-5.91959e-26
0,10.4,0,3,2.46077e-17,-5.97706e-26
0,10.5,0,3,2.48443e-17,-6.03453e-26
0,10.6,0,3,2.50809e-17,-6.092e-26
0,10.7,0,3,2.53175e-17,-6.14948e-26
0,10.8,0,3,3.05272e-17,-5.73879e-26
0,10.9,0,3,3.08099e-17,-5.79193e-26
0,11,0,3,3.10925e-17,-5.84507e-26
0,11.1,0,3,3.13752e-17,-5.8982e-26
0,11.2,0,3,3.16578e-17,-5.95134e-26
0,11.3,0,3,3.42312e-17,-4.99043e-26
0,11.4,0,3,3.45342e-17,-5.0346e-26
0,11.5,0,3,3.48371e-17,-5.07876e-26
0,11.6,0,3,3.514e-17,-5.12292e-26
0,11.7,0,3,3.5443e-17,-5.16709e-26
0,11.8,0,3,3.61389e-17,-3.81848e-26
0,11.9,0,3,3.64452e-17,-3.85084e-26
0,12,0,3,3.67514e-17,-3.8832e-26
0,12.1,0,3,3.70577e-17,-3.91556e-26
0,12.2,0,3,3.7364e-17,-3.94792e-26
0,12.3,0,3.002,0.00215709,-1.77883e-12
0,12.4,0,3.00427,0.00459554,-3.78969e-12
0,12.5,0,3.00653,0.00703399,-5.80055e-12
0,12.6,0,3.00879,0.00947244,-7.8114e-12
0,12.7,0,3.01106,0.0119109,-9.82226e-12
0.1,0,0,2.96275,-0.0434319,-2.53e-13
0.1,0.1,0,2.96241,-0.044368,-1.73209e-12
0.1,0.2,0,2.97189,-0.0362788,-1.86439e-12
0.1,0.3,0,2.98138,-0.0281896,-1.9967e-12
0.1,0.4,0,2.99087,-0.0201004,-2.129e-12
0.1,0.5,0,2.99925,-0.0129859,-2.33527e-12
0.1,0.6,0,2.99893,-0.0134953,-3.02385e-12
0.1,0.7,0,2.99893,-0.0134953,-3.02385e-12
0.1,0.8,0,2.99893,-0.0134953,-3.02385e-12
0.1,0.9,0,2.99893,-0.0134953,-3.02385e-12
0.1,1,0,2.99893,-0.0134953,-3.02385e-12
0.1,1.1,0,2.99893,-0.0134953,-3.02385e-12
0.1,1.2,0,2.99893,-0.0134953,-3.02385e-12
0.1,1.3,0,2.99893,-0.0134953,-3.02385e-12
0.1,1.4,0,2.99912,-0.0132248,-3.12968e-12
0.1,1.5,0,2.9995,-0.0126862,-3.34038e-12
0.1,1.6,0,2.9995,-0.0126862,-3.34038e-12
0.1,1.7,0,2.9995,-0.0126862,-3.34038e-12
0.1,1.8,0,2.9995,-0.0126862,-3.34038e-12
0.1,1.9,0,2.99953,-0.0124359,-4.89551e-12
0.1,2,0,2.99956,-0.0121347,-6.76631e-12
0.1,2.1,0,2.99956,-0.0121347,-6.76631e-12
0.1,2.2,0,2.99956,-0.0121347,-6.76631e-12
0.1,2.3,0,2.99956,-0.0121347,-6.76631e-12
0.1,2.4,0,2.99902,-0.0118919,-9.23781e-12
0.1,2.5,0,2.99863,-0.0117108,-1.10815e-11
0.1,2.6,0,2.99863,-0.0117108,-1.10815e-11
0.1,2.7,0,2.99863,-0.0117108,-1.10815e-11
0.1,2.8,0,2.99863,-0.0117108,-1.10815e-11
0.1,2.9,0,2.9981,-0.0116005,-1.30001e-11
0.1,3,0,2.99787,-0.011551,-1.38617e-11
0.1,3.1,0,2.99787,-0.011551,-1.38617e-11
0.1,3.2,0,2.99787,-0.011551,-1.38617e-11
0.1,3.3,0,2.99787,-0.011551,-1.38617e-11
0.1,3.4,0,2.99772,-0.0109054,-1.51156e-11
0.1,3.5,0,2.99768,-0.0107507,-1.54161e-11
0.1,3.6,0,2.99768,-0.0107507,-1.54161e-11
0.1,3.7,0,2.99768,-0.0107507,-1.54161e-11
0.1,3.8,0,2.99768,-0.0107507,-1.54161e-11
0.1,3.9,0,2.99797,-0.00874292,-1.83252e-11
0.1,4,0,2.998,-0.0085757,-1.85675e-11
0.1,4.1,0,2.998,-0.0085757,-1.85675e-11
0.1,4.2,0,2.998,-0.0085757,-1.85675e-11
0.1,4.3,0,2.99802,-0.00848937,-1.86708e-11
0.1,4.4,0,2.99879,-0.00573603,-2.19642e-11
0.1,4.5,0,2.99879,-0.00573603,-2.19642e-11
0.1,4.6,0,2.99879,-0.00573603,-2.19642e-11
0.1,4.7,0,2.99879,-0.00573603,-2.19642e-11
0.1,4.8,0,2.99899,-0.00537053,-2.20972e-11
0.1,4.9,0,3.00017,-0.00324582,-2.28703e-11
0.1,5,0,3.00017,-0.00324582,-2.28703e-11
0.1,5.1,0,3.00017,-0.00324582,-2.28703e-11
0.1,5.2,0,3.00017,-0.00324582,-2.28703e-11
0.1,5.3,0,3.00073,-0.00275564,-2.26504e-11
0.1,5.4,0,3.0023,-0.00138322,-2.20345e-11
0.1,5.5,0,3.0023,-0.00138322,-2.20345e-11
0.1,5.6,0,3.0023,-0.00138322,-2.20345e-11
0.1,5.7,0,3.0023,-0.00138322,-2.20345e-11
0.1,5.8,0,3.0018,-0.000792407,-2.15503e-11
0.1,5.9,0,3.00097,0.000173225,-2.07589e-11
0.1,6,0,3.00097,0.000173225,-2.07589e-11
0.1,6.1,0,3.00097,0.000173225,-2.07589e-11
0.1,6.2,0,3.00097,0.000173225,-2.07589e-11
0.1,6.3,0,3.00006,0.000695864,-2.03793e-11
0.1,6.4,0,2.99914,0.00122685,-1.99937e-11
0.1,6.5,0,2.99914,0.00122685,-1.99937e-11
0.1,6.6,0,2.99914,0.00122685,-1.99937e-11
0.1,6.7,0,2.99914,0.00122685,-1.99937e-11
0.1,6.8,0,2.99934,0.00213759,-1.9876e-11
0.1,6.9,0,2.99948,0.00271375,-1.98015e-11
0.1,7,0,2.99948,0.00271375,-1.98015e-11
0.1,7.1,0,2.99948,0.00271375,-1.98015e-11
0.1,7.2,0,2.99948,0.00271375,-1.98015e-11
0.1,7.3,0,2.99889,0.00322545,-2.00697e-11
0.1,7.4,0,2.99868,0.00341565,-2.01693e-11
0.1,7.5,0,2.99868,0.00341565,-2.01693e-11
0.1,7.6,0,2.99868,0.00341565,-2.01693e-11
0.1,7.7,0,2.99868,0.00341565,-2.01693e-11
0.1,7.8,0,2.99952,0.0033225,-1.97435e-11
0.1,7.9,0,2.99968,0.00330549,-1.96658e-11
0.1,8,0,2.99968,0.00330549,-1.96658e-11
0.1,8.1,0,2.99968,0.00330549,-1.96658e-11
0.1,8.2,0,2.99968,0.00330549,-1.96658e-11
0.1,8.3,0,3.00092,0.00355884,-1.83788e-11
0.1,8.4,0,3.00097,0.0035688,-1.83282e-11
0.1,8.5,0,3.00097,0.0035688,-1.83282e-11
0.1,8.6,0,3.00097,0.0035688,-1.83282e-11
0.1,8.7,0,3.00095,0.00361822,-1.82953e-11
0.1,8.8,0,3.00078,0.00428713,-1.78506e-11
0.1,8.9,0,3.00078,0.00428713,-1.78506e-11
0.1,9,0,3.00078,0.00428713,-1.78506e-11
0.1,9.1,0,3.00078,0.00428713,-1.78506e-11
0.1,9.2,0,3.00072,0.00461366,-1.81408e-11
0.1,9.3,0,3.00042,0.00604725,-1.94148e-11
0.1,9.4,0,3.00042,0.00604725,-1.94148e-11
0.1,9.5,0,3.00042,0.00604725,-1.94148e-11
0.1,9.6,0,3.00042,0.00604725,-1.94148e-11
0.1,9.7,0,3.00013,0.0064958,-2.00017e-11
0.1,9.8,0,2.99944,0.00753071,-2.1356e-11
0.1,9.9,0,2.99944,0.00753071,-2.1356e-11
0.1,10,0,2.99944,0.00753071,-2.1356e-11
0.1,10.1,0,2.99944,0.00753071,-2.1356e-11
0.1,10.2,0,2.99916,0.0081837,-2.16571e-11
0.1,10.3,0,2.99879,0.00908797,-2.20741e-11
0.1,10.4,0,2.99879,0.00908797,-2.20741e-11
0.1,10.5,0,2.99879,0.00908797,-2.20741e-11
0.1,10.6,0,2.99879,0.00908797,-2.20741e-11
0.1,10.7,0,2.99895,0.0100365,-2.11812e-11
0.1,10.8,0,2.99908,0.0108566,-2.04092e-11
0.1,10.9,0,2.99908,0.0108566,-2.04092e-11
0.1,11,0,2.99908,0.0108566,-2.04092e-11
0.1,11.1,0,2.99908,0.0108566,-2.04092e-11
0.1,11.2,0,2.99939,0.0113651,-1.81581e-11
0.1,11.3,0,2.99955,0.0116352,-1.69625e-11
0.1,11.4,0,2.99955,0.0116352,-1.69625e-11
0.1,11.5,0,2.99955,0.0116352,-1.69625e-11
0.1,11.6,0,2.99955,0.0116352,-1.69625e-11
0.1,11.7,0,2.99967,0.0117336,-1.34743e-11
0.1,11.8,0,2.99971,0.0117631,-1.24291e-11
0.1,11.9,0,2.99971,0.0117631,-1.24291e-11
0.1,12,0,2.99971,0.0117631,-1.24291e-11
0.1,12.1,0,2.99971,0.0117631,-1.24291e-11
0.1,12.2,0,2.99975,0.0117927,-6.80056e-12
0.1,12.3,0,3.00177,0.0139601,-7.8534e-12
0.1,12.4,0,3.00403,0.0163986,-9.86426e-12
0.1,12.5,0,3.00629,0.018837,-1.18751e-11
0.1,12.6,0,3.00856,0.0212755,-1.3886e-11
0.1,12.7,0,3.00868,0.02137,-1.05537e-11
0.2,0,0,2.97184,-0.0473511,-1.15225e-12
0.2,0.1,0,2.97134,-0.0484318,-2.65291e-12
0.2,0.2,0,2.97115,-0.0492234,-4.11043e-12
0.2,0.3,0,2.98064,-0.0411342,-4.24273e-12
0.2,0.4,0,2.99013,-0.033045,-4.37504e-12
0.2,0.5,0,2.99854,-0.0259044,-4.57932e-12
0.2,0.6,0,2.99818,-0.0264892,-5.36985e-12
0.2,0.7,0,2.99786,-0.0269906,-6.04769e-12
0.2,0.8,0,2.99786,-0.0269906,-6.04769e-12
0.2,0.9,0,2.99786,-0.0269906,-6.04769e-12
0.2,1,0,2.99786,-0.0269906,-6.04769e-12
0.2,1.1,0,2.99786,-0.0269906,-6.04769e-12
0.2,1.2,0,2.99786,-0.0269906,-6.04769e-12
0.2,1.3,0,2.99805,-0.0267337,-6.14822e-12
0.2,1.4,0,2.99862,-0.025913,-6.46928e-12
0.2,1.5,0,2.99901,-0.0253724,-6.68076e-12
0.2,1.6,0,2.99901,-0.0253724,-6.68076e-12
0.2,1.7,0,2.99901,-0.0253724,-6.68076e-12
0.2,1.8,0,2.99903,-0.0251293,-8.19106e-12
0.2,1.9,0,2.99909,-0.0245712,-1.16576e-11
0.2,2,0,2.99912,-0.0242693,-1.35326e-11
0.2,2.1,0,2.99912,-0.0242693,-1.35326e-11
0.2,2.2,0,2.99912,-0.0242693,-1.35326e-11
0.2,2.3,0,2.99859,-0.0240308,-1.59606e-11
0.2,2.4,0,2.99765,-0.0236026,-2.03199e-11
0.2,2.5,0,2.99725,-0.0234215,-2.2163e-11
0.2,2.6,0,2.99725,-0.0234215,-2.2163e-11
0.2,2.7,0,2.99725,-0.0234215,-2.2163e-11
0.2,2.8,0,2.99673,-0.0233126,-2.40581e-11
0.2,2.9,0,2.99597,-0.0231514,-2.68635e-11
0.2,3,0,2.99573,-0.023102,-2.77235e-11
0.2,3.1,0,2.99573,-0.023102,-2.77235e-11
0.2,3.2,0,2.99573,-0.023102,-2.77235e-11
0.2,3.3,0,2.99558,-0.0224631,-2.89643e-11
0.2,3.4,0,2.9954,-0.0216556,-3.05327e-11
0.2,3.5,0,2.99536,-0.0215014,-3.08322e-11
0.2,3.6,0,2.99536,-0.0215014,-3.08322e-11
0.2,3.7,0,2.99536,-0.0215014,-3.08322e-11
0.2,3.8,0,2.99565,-0.0195118,-3.3715e-11
0.2,3.9,0,2.99597,-0.017317,-3.68951e-11
0.2,4,0,2.996,-0.0171514,-3.7135e-11
0.2,4.1,0,2.996,-0.0171514,-3.7135e-11
0.2,4.2,0,2.99601,-0.017089,-3.72097e-11
0.2,4.3,0,2.99681,-0.0142233,-4.06375e-11
0.2,4.4,0,2.99757,-0.0114721,-4.39283e-11
0.2,4.5,0,2.99757,-0.0114721,-4.39283e-11
0.2,4.6,0,2.99757,-0.0114721,-4.39283e-11
0.2,4.7,0,2.99776,-0.0111277,-4.40536e-11
0.2,4.8,0,2.99916,-0.00861444,-4.49682e-11
0.2,4.9,0,3.00035,-0.00649165,-4.57407e-11
0.2,5,0,3.00035,-0.00649165,-4.57407e-11
0.2,5.1,0,3.00035,-0.00649165,-4.57407e-11
0.2,5.2,0,3.00089,-0.00601743,-4.55279e-11
0.2,5.3,0,3.00304,-0.0041374,-4.46842e-11
0.2,5.4,0,3.00461,-0.00276645,-4.4069e-11
0.2,5.5,0,3.00461,-0.00276645,-4.4069e-11
0.2,5.6,0,3.00461,-0.00276645,-4.4069e-11
0.2,5.7,0,3.00411,-0.00218911,-4.35958e-11
0.2,5.8,0,3.00276,-0.00061794,-4.23081e-11
0.2,5.9,0,3.00194,0.00034645,-4.15177e-11
0.2,6,0,3.00194,0.00034645,-4.15177e-11
0.2,6.1,0,3.00194,0.00034645,-4.15177e-11
0.2,6.2,0,3.00104,0.000859873,-4.11449e-11
0.2,6.3,0,2.99919,0.00192358,-4.03723e-11
0.2,6.4,0,2.99827,0.00245371,-3.99873e-11
0.2,6.5,0,2.99827,0.00245371,-3.99873e-11
0.2,6.6,0,2.99827,0.00245371,-3.99873e-11
0.2,6.7,0,2.99848,0.00335132,-3.98713e-11
0.2,6.8,0,2.99882,0.00485261,-3.96773e-11
0.2,6.9,0,2.99895,0.00542751,-3.9603e-11
0.2,7,0,2.99895,0.00542751,-3.9603e-11
0.2,7.1,0,2.99895,0.00542751,-3.9603e-11
0.2,7.2,0,2.99838,0.00593296,-3.98679e-11
0.2,7.3,0,2.99757,0.00664172,-4.02393e-11
0.2,7.4,0,2.99736,0.0068313,-4.03387e-11
0.2,7.5,0,2.99736,0.0068313,-4.03387e-11
0.2,7.6,0,2.99736,0.0068313,-4.03387e-11
0.2,7.7,0,2.99819,0.00673914,-3.99174e-11
0.2,7.8,0,2.9992,0.00662789,-3.94088e-11
0.2,7.9,0,2.99936,0.00661099,-3.93315e-11
0.2,8,0,2.99936,0.00661099,-3.93315e-11
0.2,8.1,0,2.99936,0.00661099,-3.93315e-11
0.2,8.2,0,3.00058,0.00686197,-3.80565e-11
0.2,8.3,0,3.00189,0.00712791,-3.67056e-11
0.2,8.4,0,3.00193,0.0071376,-3.66564e-11
0.2,8.5,0,3.00193,0.0071376,-3.66564e-11
0.2,8.6,0,3.00192,0.00718062,-3.66278e-11
0.2,8.7,0,3.00173,0.00790619,-3.61454e-11
0.2,8.8,0,3.00156,0.00857427,-3.57012e-11
0.2,8.9,0,3.00156,0.00857427,-3.57012e-11
0.2,9,0,3.00156,0.00857427,-3.57012e-11
0.2,9.1,0,3.0015,0.00888541,-3.59777e-11
0.2,9.2,0,3.00114,0.0106634,-3.75577e-11
0.2,9.3,0,3.00085,0.0120945,-3.88296e-11
0.2,9.4,0,3.00085,0.0120945,-3.88296e-11
0.2,9.5,0,3.00085,0.0120945,-3.88296e-11
0.2,9.6,0,3.00056,0.0125305,-3.94001e-11
0.2,9.7,0,2.99956,0.0140291,-4.13611e-11
0.2,9.8,0,2.99887,0.0150614,-4.2712e-11
0.2,9.9,0,2.99887,0.0150614,-4.2712e-11
0.2,10,0,2.99887,0.0150614,-4.2712e-11
0.2,10.1,0,2.99861,0.0157017,-4.30072e-11
0.2,10.2,0,2.99795,0.0172752,-4.37329e-11
0.2,10.3,0,2.99757,0.0181759,-4.41482e-11
0.2,10.4,0,2.99757,0.0181759,-4.41482e-11
0.2,10.5,0,2.99757,0.0181759,-4.41482e-11
0.2,10.6,0,2.99773,0.0191101,-4.32689e-11
0.2,10.7,0,2.99803,0.0208983,-4.15855e-11
0.2,10.8,0,2.99817,0.0217131,-4.08184e-11
0.2,10.9,0,2.99817,0.0217131,-4.08184e-11
0.2,11,0,2.99817,0.0217131,-4.08184e-11
0.2,11.1,0,2.99847,0.0222147,-3.85982e-11
0.2,11.2,0,2.99893,0.0230031,-3.51081e-11
0.2,11.3,0,2.99909,0.0232704,-3.39249e-11
0.2,11.4,0,2.99909,0.0232704,-3.39249e-11
0.2,11.5,0,2.99909,0.0232704,-3.39249e-11
0.2,11.6,0,2.99921,0.0233673,-3.04906e-11
0.2,11.7,0,2.99938,0.0234972,-2.58861e-11
0.2,11.8,0,2.99941,0.0235262,-2.48581e-11
0.2,11.9,0,2.99941,0.0235262,-2.48581e-11
0.2,12,0,2.99941,0.0235262,-2.48581e-11
0.2,12.1,0,2.99946,0.0235552,-1.93418e-11
0.2,12.2,0,2.99951,0.0235892,-1.28523e-11
0.2,12.3,0,3.00153,0.0257632,-1.3928e-11
0.2,12.4,0,3.0038,0.0282016,-1.59388e-11
0.2,12.5,0,3.00606,0.0306401,-1.79497e-11
0.2,12.6,0,3.00623,0.0307887,-1.47407e-11
0.2,12.7,0,3.00631,0.0308292,-1.12851e-11
0.3,0,0,2.98094,-0.0512703,-2.0515e-12
0.3,0.1,0,2.98043,-0.052351,-3.55216e-12
0.3,0.2,0,2.97993,-0.0534316,-5.05281e-12
0.3,0.3,0,2.9799,-0.0540788,-6.48877e-12
0.3,0.4,0,2.98939,-0.0459895,-6.62108e-12
0.3,0.5,0,2.99783,-0.0388228,-6.82338e-12
0.3,0.6,0,2.99746,-0.0394076,-7.6139e-12
0.3,0.7,0,2.9971,-0.0399924,-8.40442e-12
0.3,0.8,0,2.9968,-0.0404859,-9.07154e-12
0.3,0.9,0,2.9968,-0.0404859,-9.07154e-12
0.3,1,0,2.9968,-0.0404859,-9.07154e-12
0.3,1.1,0,2.9968,-0.0404859,-9.07154e-12
0.3,1.2,0,2.99697,-0.0402425,-9.16676e-12
0.3,1.3,0,2.99755,-0.0394219,-9.48782e-12
0.3,1.4,0,2.99813,-0.0386012,-9.80888e-12
0.3,1.5,0,2.99851,-0.0380587,-1.00211e-11
0.3,1.6,0,2.99851,-0.0380587,-1.00211e-11
0.3,1.7,0,2.99853,-0.0378227,-1.14866e-11
0.3,1.8,0,2.99859,-0.0372646,-1.49532e-11
0.3,1.9,0,2.99864,-0.0367065,-1.84197e-11
0.3,2,0,2.99867,-0.036404,-2.02989e-11
0.3,2.1,0,2.99867,-0.036404,-2.02989e-11
0.3,2.2,0,2.99816,-0.0361698,-2.26835e-11
0.3,2.3,0,2.99722,-0.0357415,-2.70428e-11
0.3,2.4,0,2.99628,-0.0353133,-3.14021e-11
0.3,2.5,0,2.99588,-0.0351323,-3.32445e-11
0.3,2.6,0,2.99588,-0.0351323,-3.32445e-11
0.3,2.7,0,2.99537,-0.0350247,-3.51161e-11
0.3,2.8,0,2.9946,-0.0348635,-3.79215e-11
0.3,2.9,0,2.99383,-0.0347023,-4.07268e-11
0.3,3,0,2.9936,-0.0346529,-4.15852e-11
0.3,3.1,0,2.9936,-0.0346529,-4.15852e-11
0.3,3.2,0,2.99345,-0.0340208,-4.2813e-11
0.3,3.3,0,2.99327,-0.0332133,-4.43815e-11
0.3,3.4,0,2.99308,-0.0324058,-4.59499e-11
0.3,3.5,0,2.99304,-0.0322522,-4.62483e-11
0.3,3.6,0,2.99304,-0.0322522,-4.62483e-11
0.3,3.7,0,2.99333,-0.0302807,-4.91047e-11
0.3,3.8,0,2.99365,-0.0280859,-5.22848e-11
0.3,3.9,0,2.99397,-0.0258911,-5.54649e-11
0.3,4,0,2.99399,-0.0257271,-5.57025e-11
0.3,4.1,0,2.994,-0.0256886,-5.57486e-11
0.3,4.2,0,2.9948,-0.0228229,-5.91764e-11
0.3,4.3,0,2.99559,-0.0199572,-6.26042e-11
0.3,4.4,0,2.99636,-0.0172081,-6.58925e-11
0.3,4.5,0,2.99636,-0.0172081,-6.58925e-11
0.3,4.6,0,2.99654,-0.0168849,-6.60101e-11
0.3,4.7,0,2.99794,-0.0143716,-6.69247e-11
0.3,4.8,0,2.99934,-0.0118584,-6.78393e-11
0.3,4.9,0,3.00052,-0.00973747,-6.8611e-11
0.3,5,0,3.00052,-0.00973747,-6.8611e-11
0.3,5.1,0,3.00105,-0.00927923,-6.84054e-11
0.3,5.2,0,3.0032,-0.0073992,-6.75617e-11
0.3,5.3,0,3.00535,-0.00551917,-6.67181e-11
0.3,5.4,0,3.00691,-0.00414967,-6.61035e-11
0.3,5.5,0,3.00691,-0.00414967,-6.61035e-11
0.3,5.6,0,3.00643,-0.00358581,-6.56414e-11
0.3,5.7,0,3.00508,-0.00201464,-6.43537e-11
0.3,5.8,0,3.00373,-0.000443473,-6.3066e-11
0.3,5.9,0,3.0029,0.000519675,-6.22766e-11
0.3,6,0,3.0029,0.000519675,-6.22766e-11
0.3,6.1,0,3.00203,0.00102388,-6.19104e-11
0.3,6.2,0,3.00018,0.00208759,-6.11379e-11
0.3,6.3,0,2.99833,0.0031513,-6.03654e-11
0.3,6.4,0,2.99741,0.00368056,-5.9981e-11
0.3,6.5,0,2.99741,0.00368056,-5.9981e-11
0.3,6.6,0,2.99761,0.00456505,-5.98667e-11
0.3,6.7,0,2.99795,0.00606633,-5.96727e-11
0.3,6.8,0,2.9983,0.00756762,-5.94786e-11
0.3,6.9,0,2.99843,0.00814126,-5.94045e-11
0.3,7,0,2.99843,0.00814126,-5.94045e-11
0.3,7.1,0,2.99786,0.00864046,-5.96661e-11
0.3,7.2,0,2.99706,0.00934922,-6.00375e-11
0.3,7.3,0,2.99625,0.010058,-6.0409e-11
0.3,7.4,0,2.99604,0.0102469,-6.0508e-11
0.3,7.5,0,2.99604,0.0102469,-6.0508e-11
0.3,7.6,0,2.99686,0.0101558,-6.00912e-11
0.3,7.7,0,2.99787,0.0100445,-5.95827e-11
0.3,7.8,0,2.99888,0.00993328,-5.90741e-11
0.3,7.9,0,2.99904,0.00991648,-5.89973e-11
0.3,8,0,2.99904,0.00991648,-5.89973e-11
0.3,8.1,0,3.00025,0.0101651,-5.77343e-11
0.3,8.2,0,3.00155,0.010431,-5.63833e-11
0.3,8.3,0,3.00285,0.010697,-5.50324e-11
0.3,8.4,0,3.0029,0.0107064,-5.49846e-11
0.3,8.5,0,3.00289,0.010743,-5.49602e-11
0.3,8.6,0,3.0027,0.0114686,-5.44778e-11
0.3,8.7,0,3.00252,0.0121942,-5.39954e-11
0.3,8.8,0,3.00234,0.0128614,-5.35517e-11
0.3,8.9,0,3.00234,0.0128614,-5.35517e-11
0.3,9,0,3.00228,0.0131572,-5.38146e-11
0.3,9.1,0,3.00192,0.0149351,-5.53946e-11
0.3,9.2,0,3.00156,0.0167131,-5.69747e-11
0.3,9.3,0,3.00127,0.0181418,-5.82444e-11
0.3,9.4,0,3.00127,0.0181418,-5.82444e-11
0.3,9.5,0,3.00099,0.0185651,-5.87984e-11
0.3,9.6,0,2.99999,0.0200638,-6.07595e-11
0.3,9.7,0,2.999,0.0215624,-6.27206e-11
0.3,9.8,0,2.99831,0.0225921,-6.4068e-11
0.3,9.9,0,2.99831,0.0225921,-6.4068e-11
0.3,10,0,2.99805,0.0232196,-6.43573e-11
0.3,10.1,0,2.99739,0.0247932,-6.5083e-11
0.3,10.2,0,2.99673,0.0263668,-6.58086e-11
0.3,10.3,0,2.99636,0.0272639,-6.62224e-11
0.3,10.4,0,2.99636,0.0272639,-6.62224e-11
0.3,10.5,0,2.99652,0.0281836,-6.53565e-11
0.3,10.6,0,2.99682,0.0299718,-6.36731e-11
0.3,10.7,0,2.99712,0.03176,-6.19898e-11
0.3,10.8,0,2.99725,0.0325697,-6.12276e-11
0.3,10.9,0,2.99725,0.0325697,-6.12276e-11
0.3,11,0,2.99755,0.0330642,-5.90383e-11
0.3,11.1,0,2.99801,0.0338527,-5.55482e-11
0.3,11.2,0,2.99848,0.0346411,-5.20581e-11
0.3,11.3,0,2.99864,0.0349055,-5.08874e-11
0.3,11.4,0,2.99864,0.0349055,-5.08874e-11
0.3,11.5,0,2.99876,0.0350009,-4.75068e-11
0.3,11.6,0,2.99892,0.0351309,-4.29023e-11
0.3,11.7,0,2.99908,0.0352608,-3.82978e-11
0.3,11.8,0,2.99912,0.0352893,-3.72872e-11
0.3,11.9,0,2.99912,0.0352893,-3.72872e-11
0.3,12,0,2.99916,0.0353177,-3.1883e-11
0.3,12.1,0,2.99922,0.0353518,-2.53936e-11
0.3,12.2,0,2.99927,0.0353858,-1.89041e-11
0.3,12.3,0,3.0013,0.0375662,-2.00025e-11
0.3,12.4,0,3.00356,0.0400046,-2.20134e-11
0.3,12.5,0,3.00378,0.0402074,-1.89278e-11
0.3,12.6,0,3.00386,0.0402479,-1.54721e-11
0.3,12.7,0,3.00393,0.0402883,-1.20165e-11
0.4,0,0,2.99003,-0.0551895,-2.95075e-12
0.4,0.1,0,2.98952,-0.0562702,-4.45141e-12
0.4,0.2,0,2.98902,-0.0573509,-5.95206e-12
0.4,0.3,0,2.98852,-0.0584315,-7.45272e-12
0.4,0.4,0,2.98865,-0.0589341,-8.86711e-12
0.4,0.5,0,2.99712,-0.0517413,-9.06744e-12
0.4,0.6,0,2.99675,-0.0523261,-9.85796e-12
0.4,0.7,0,2.99639,-0.0529108,-1.06485e-11
0.4,0.8,0,2.99603,-0.0534956,-1.1439e-11
0.4,0.9,0,2.99573,-0.0539812,-1.20954e-11
0.4,1,0,2.99573,-0.0539812,-1.20954e-11
0.4,1.1,0,2.99589,-0.0537514,-1.21853e-11
0.4,1.2,0,2.99647,-0.0529307,-1.25064e-11
0.4,1.3,0,2.99705,-0.0521101,-1.28274e-11
0.4,1.4,0,2.99763,-0.0512894,-1.31485e-11
0.4,1.5,0,2.99801,-0.0507449,-1.33615e-11
0.4,1.6,0,2.99803,-0.0505162,-1.47822e-11
0.4,1.7,0,2.99809,-0.0499581,-1.82487e-11
0.4,1.8,0,2.99815,-0.0494,-2.17153e-11
0.4,1.9,0,2.9982,-0.0488419,-2.51819e-11
0.4,2,0,2.99823,-0.0485387,-2.70652e-11
0.4,2.1,0,2.99773,-0.0483087,-2.94063e-11
0.4,2.2,0,2.99679,-0.0478805,-3.37656e-11
0.4,2.3,0,2.99584,-0.0474522,-3.81249e-11
0.4,2.4,0,2.9949,-0.047024,-4.24842e-11
0.4,2.5,0,2.9945,-0.046843,-4.4326e-11
0.4,2.6,0,2.994,-0.0467368,-4.6174e-11
0.4,2.7,0,2.99323,-0.0465756,-4.89794e-11
0.4,2.8,0,2.99247,-0.0464144,-5.17848e-11
0.4,2.9,0,2.9917,-0.0462531,-5.45902e-11
0.4,3,0,2.99147,-0.0462039,-5.54469e-11
0.4,3.1,0,2.99132,-0.0455784,-5.66618e-11
0.4,3.2,0,2.99113,-0.0447709,-5.82302e-11
0.4,3.3,0,2.99095,-0.0439634,-5.97987e-11
0.4,3.4,0,2.99076,-0.0431559,-6.13671e-11
0.4,3.5,0,2.99072,-0.0430029,-6.16643e-11
0.4,3.6,0,2.99101,-0.0410496,-6.44945e-11
0.4,3.7,0,2.99133,-0.0388548,-6.76746e-11
0.4,3.8,0,2.99165,-0.03666,-7.08547e-11
0.4,3.9,0,2.99197,-0.0344652,-7.40347e-11
0.4,4,0,2.992,-0.0342881,-7.42876e-11
0.4,4.1,0,2.99279,-0.0314225,-7.77153e-11
0.4,4.2,0,2.99358,-0.0285568,-8.11431e-11
0.4,4.3,0,2.99438,-0.0256911,-8.45709e-11
0.4,4.4,0,2.99514,-0.0229441,-8.78566e-11
0.4,4.5,0,2.99531,-0.0226421,-8.79665e-11
0.4,4.6,0,2.99671,-0.0201288,-8.88811e-11
0.4,4.7,0,2.99811,-0.0176155,-8.97957e-11
0.4,4.8,0,2.99952,-0.0151023,-9.07103e-11
0.4,4.9,0,3.0007,-0.0129833,-9.14814e-11
0.4,5,0,3.0012,-0.012541,-9.12829e-11
0.4,5.1,0,3.00335,-0.010661,-9.04393e-11
0.4,5.2,0,3.0055,-0.00878097,-8.95956e-11
0.4,5.3,0,3.00765,-0.00690094,-8.87519e-11
0.4,5.4,0,3.00922,-0.00553289,-8.8138e-11
0.4,5.5,0,3.00874,-0.00498252,-8.76869e-11
0.4,5.6,0,3.00739,-0.00341135,-8.63992e-11
0.4,5.7,0,3.00605,-0.00184018,-8.51115e-11
0.4,5.8,0,3.0047,-0.000269006,-8.38238e-11
0.4,5.9,0,3.00387,0.000692901,-8.30355e-11
0.4,6,0,3.00301,0.00118789,-8.2676e-11
0.4,6.1,0,3.00116,0.0022516,-8.19035e-11
0.4,6.2,0,2.99931,0.00331531,-8.1131e-11
0.4,6.3,0,2.99747,0.00437902,-8.03584e-11
0.4,6.4,0,2.99655,0.00490742,-7.99747e-11
0.4,6.5,0,2.99675,0.00577878,-7.98621e-11
0.4,6.6,0,2.99709,0.00728006,-7.9668e-11
0.4,6.7,0,2.99743,0.00878135,-7.9474e-11
0.4,6.8,0,2.99777,0.0102826,-7.92799e-11
0.4,6.9,0,2.9979,0.010855,-7.92059e-11
0.4,7,0,2.99734,0.011348,-7.94643e-11
0.4,7.1,0,2.99654,0.0120567,-7.98358e-11
0.4,7.2,0,2.99573,0.0127655,-8.02072e-11
0.4,7.3,0,2.99493,0.0134743,-8.05787e-11
0.4,7.4,0,2.99471,0.0136626,-8.06774e-11
0.4,7.5,0,2.99553,0.0135724,-8.02651e-11
0.4,7.6,0,2.99654,0.0134612,-7.97565e-11
0.4,7.7,0,2.99755,0.0133499,-7.92479e-11
0.4,7.8,0,2.99856,0.0132387,-7.87394e-11
0.4,7.9,0,2.99872,0.013222,-7.8663e-11
0.4,8,0,2.99992,0.0134682,-7.7412e-11
0.4,8.1,0,3.00122,0.0137342,-7.60611e-11
0.4,8.2,0,3.00252,0.0140001,-7.47102e-11
0.4,8.3,0,3.00382,0.014266,-7.33592e-11
0.4,8.4,0,3.00386,0.0143054,-7.32927e-11
0.4,8.5,0,3.00367,0.015031,-7.28103e-11
0.4,8.6,0,3.00348,0.0157566,-7.23278e-11
0.4,8.7,0,3.0033,0.0164821,-7.18454e-11
0.4,8.8,0,3.00313,0.0171485,-7.14023e-11
0.4,8.9,0,3.00307,0.0174289,-7.16515e-11
0.4,9,0,3.00271,0.0192069,-7.32315e-11
0.4,9.1,0,3.00235,0.0209849,-7.48116e-11
0.4,9.2,0,3.00198,0.0227628,-7.63917e-11
0.4,9.3,0,3.00169,0.024189,-7.76592e-11
0.4,9.4,0,3.00142,0.0245998,-7.81967e-11
0.4,9.5,0,3.00042,0.0260985,-8.01578e-11
0.4,9.6,0,2.99943,0.0275971,-8.21189e-11
0.4,9.7,0,2.99843,0.0290958,-8.408e-11
0.4,9.8,0,2.99775,0.0301228,-8.5424e-11
0.4,9.9,0,2.99749,0.0307376,-8.57074e-11
0.4,10,0,2.99683,0.0323111,-8.64331e-11
0.4,10.1,0,2.99618,0.0338847,-8.71588e-11
0.4,10.2,0,2.99552,0.0354583,-8.78844e-11
0.4,10.3,0,2.99515,0.0363519,-8.82965e-11
0.4,10.4,0,2.9953,0.0372572,-8.74442e-11
0.4,10.5,0,2.9956,0.0390454,-8.57608e-11
0.4,10.6,0,2.9959,0.0408336,-8.40774e-11
0.4,10.7,0,2.9962,0.0426218,-8.2394e-11
0.4,10.8,0,2.99634,0.0434262,-8.16368e-11
0.4,10.9,0,2.99663,0.0439138,-7.94785e-11
0.4,11,0,2.99709,0.0447022,-7.59883e-11
0.4,11.1,0,2.99756,0.0454907,-7.24982e-11
0.4,11.2,0,2.99803,0.0462791,-6.90081e-11
0.4,11.3,0,2.99818,0.0465407,-6.78499e-11
0.4,11.4,0,2.9983,0.0466346,-6.4523e-11
0.4,11.5,0,2.99846,0.0467645,-5.99185e-11
0.4,11.6,0,2.99863,0.0468945,-5.53141e-11
0.4,11.7,0,2.99879,0.0470244,-5.07096e-11
0.4,11.8,0,2.99882,0.0470524,-4.97162e-11
0.4,11.9,0,2.99887,0.0470802,-4.44243e-11
0.4,12,0,2.99892,0.0471143,-3.79348e-11
0.4,12.1,0,2.99898,0.0471484,-3.14454e-11
0.4,12.2,0,2.99903,0.0471824,-2.49559e-11
0.4,12.3,0,3.00106,0.0493692,-2.60771e-11
0.4,12.4,0,3.00133,0.0496261,-2.31149e-11
0.4,12.5,0,3.00141,0.0496666,-1.96592e-11
0.4,12.6,0,3.00148,0.049707,-1.62035e-11
0.4,12.7,0,3.00156,0.0497475,-1.27479e-11
0.5,0,0,2.99912,-0.0591087,-3.85e-12
0.5,0.1,0,2.99858,-0.0602134,-5.35468e-12
0.5,0.2,0,2.99805,-0.0613181,-6.85936e-12
0.5,0.3,0,2.99751,-0.0624227,-8.36404e-12
0.5,0.4,0,2.99698,-0.0635274,-9.86872e-12
0.5,0.5,0,2.99642,-0.0645845,-1.13225e-11
0.5,0.6,0,2.99606,-0.0651562,-1.21149e-11
0.5,0.7,0,2.9957,-0.065728,-1.29073e-11
0.5,0.8,0,2.99534,-0.0662998,-1.36998e-11
0.5,0.9,0,2.99498,-0.0668716,-1.44922e-11
0.5,1,0,2.99483,-0.0671293,-1.51788e-11
0.5,1.1,0,2.99541,-0.066294,-1.5497e-11
0.5,1.2,0,2.99599,-0.0654588,-1.58153e-11
0.5,1.3,0,2.99657,-0.0646235,-1.61335e-11
0.5,1.4,0,2.99715,-0.0637882,-1.64518e-11
0.5,1.5,0,2.99749,-0.0630063,-1.77768e-11
0.5,1.6,0,2.99754,-0.0624426,-2.12351e-11
0.5,1.7,0,2.9976,-0.0618789,-2.46934e-11
0.5,1.8,0,2.99765,-0.0613152,-2.81516e-11
0.5,1.9,0,2.99771,-0.0607515,-3.16099e-11
0.5,2,0,2.99731,-0.0602492,-3.54775e-11
0.5,2.1,0,2.99637,-0.0598203,-3.98347e-11
0.5,2.2,0,2.99543,-0.0593914,-4.41919e-11
0.5,2.3,0,2.99448,-0.0589625,-4.8549e-11
0.5,2.4,0,2.99354,-0.0585336,-5.29062e-11
0.5,2.5,0,2.99282,-0.0581798,-5.62957e-11
0.5,2.6,0,2.99205,-0.0580197,-5.91052e-11
0.5,2.7,0,2.99129,-0.0578597,-6.19148e-11
0.5,2.8,0,2.99052,-0.0576997,-6.47244e-11
0.5,2.9,0,2.98975,-0.0575397,-6.75339e-11
0.5,3,0,2.9894,-0.0568908,-6.9478e-11
0.5,3.1,0,2.98922,-0.0560837,-7.10483e-11
0.5,3.2,0,2.98903,-0.0552766,-7.26185e-11
0.5,3.3,0,2.98884,-0.0544695,-7.41887e-11
0.5,3.4,0,2.98865,-0.0536624,-7.57589e-11
0.5,3.5,0,2.98874,-0.051707,-7.86865e-11
0.5,3.6,0,2.98906,-0.0495123,-8.18682e-11
0.5,3.7,0,2.98938,-0.0473177,-8.50498e-11
0.5,3.8,0,2.9897,-0.045123,-8.82315e-11
0.5,3.9,0,2.99002,-0.0429284,-9.14132e-11
0.5,4,0,2.99068,-0.0401751,-9.47615e-11
0.5,4.1,0,2.99147,-0.0373092,-9.81913e-11
0.5,4.2,0,2.99227,-0.0344433,-1.01621e-10
0.5,4.3,0,2.99306,-0.0315775,-1.05051e-10
0.5,4.4,0,2.99384,-0.0287444,-1.08241e-10
0.5,4.5,0,2.99524,-0.0262306,-1.09158e-10
0.5,4.6,0,2.99665,-0.0237169,-1.10075e-10
0.5,4.7,0,2.99805,-0.0212032,-1.10992e-10
0.5,4.8,0,2.99945,-0.0186894,-1.11909e-10
0.5,4.9,0,3.00086,-0.0162283,-1.12396e-10
0.5,5,0,3.00301,-0.0143476,-1.11555e-10
0.5,5.1,0,3.00516,-0.012467,-1.10713e-10
0.5,5.2,0,3.00731,-0.0105863,-1.09872e-10
0.5,5.3,0,3.00946,-0.00870571,-1.09031e-10
0.5,5.4,0,3.01053,-0.00677661,-1.08035e-10
0.5,5.5,0,3.00918,-0.00520485,-1.0675e-10
0.5,5.6,0,3.00784,-0.0036331,-1.05465e-10
0.5,5.7,0,3.00649,-0.00206134,-1.0418e-10
0.5,5.8,0,3.00514,-0.000489583,-1.02895e-10
0.5,5.9,0,3.00376,0.00111094,-1.01955e-10
0.5,6,0,3.00192,0.00217501,-1.01185e-10
0.5,6.1,0,3.00007,0.00323908,-1.00414e-10
0.5,6.2,0,2.99822,0.00430314,-9.96441e-11
0.5,6.3,0,2.99637,0.00536721,-9.88738e-11
0.5,6.4,0,2.99571,0.00677683,-9.85147e-11
0.5,6.5,0,2.99605,0.00827843,-9.83227e-11
0.5,6.6,0,2.9964,0.00978003,-9.81306e-11
0.5,6.7,0,2.99674,0.0112816,-9.79385e-11
0.5,6.8,0,2.99708,0.0127832,-9.77464e-11
0.5,6.9,0,2.99668,0.0139275,-9.80097e-11
0.5,7,0,2.99587,0.0146364,-9.83828e-11
0.5,7.1,0,2.99507,0.0153453,-9.87559e-11
0.5,7.2,0,2.99426,0.0160543,-9.9129e-11
0.5,7.3,0,2.99346,0.0167632,-9.95021e-11
0.5,7.4,0,2.99418,0.0169629,-9.94023e-11
0.5,7.5,0,2.99519,0.0168516,-9.88948e-11
0.5,7.6,0,2.9962,0.0167404,-9.83872e-11
0.5,7.7,0,2.99721,0.0166292,-9.78797e-11
0.5,7.8,0,2.99822,0.016518,-9.73722e-11
0.5,7.9,0,2.99948,0.0168163,-9.62855e-11
0.5,8,0,3.00078,0.0170822,-9.49349e-11
0.5,8.1,0,3.00208,0.0173482,-9.35843e-11
0.5,8.2,0,3.00338,0.0176141,-9.22337e-11
0.5,8.3,0,3.00461,0.0180201,-9.09176e-11
0.5,8.4,0,3.0044,0.0188736,-9.04412e-11
0.5,8.5,0,3.00422,0.0195992,-8.99586e-11
0.5,8.6,0,3.00403,0.0203248,-8.9476e-11
0.5,8.7,0,3.00384,0.0210505,-8.89934e-11
0.5,8.8,0,3.00359,0.0220891,-8.87516e-11
0.5,8.9,0,3.00323,0.0238673,-9.03313e-11
0.5,9,0,3.00287,0.0256455,-9.1911e-11
0.5,9.1,0,3.00251,0.0274237,-9.34907e-11
0.5,9.2,0,3.00215,0.0292019,-9.50704e-11
0.5,9.3,0,3.00165,0.0310104,-9.66368e-11
0.5,9.4,0,3.00066,0.0325087,-9.85988e-11
0.5,9.5,0,2.99966,0.034007,-1.00561e-10
0.5,9.6,0,2.99866,0.0355053,-1.02523e-10
0.5,9.7,0,2.99767,0.0370036,-1.04485e-10
0.5,9.8,0,2.99685,0.0385924,-1.05924e-10
0.5,9.9,0,2.99619,0.0401636,-1.06658e-10
0.5,10,0,2.99553,0.0417348,-1.07391e-10
0.5,10.1,0,2.99488,0.043306,-1.08125e-10