/*--------------------------------*- C++ -*----------------------------------*\
| =========                 |                                                 |
| \\      /  F ield         | OpenFOAM: The Open Source CFD Toolbox           |
|  \\    /   O peration     | Version:  v1806                                 |
|   \\  /    A nd           | Web:      www.OpenFOAM.com                      |
|    \\/     M anipulation  |                                                 |
\*---------------------------------------------------------------------------*/
FoamFile
{
    version     2.0;
    format      ascii;
    class       surfaceScalarField;
    location    "220";
    object      phi;
}
// * * * * * * * * * * * * * * * * * * * * * * * * * * * * * * * * * * * * * //

dimensions      [0 3 -1 0 0 0 0];
oriented        oriented;


internalField   nonuniform List<scalar> 
8600
(
0.0927545
-0.0680244
-0.0853404
0.0606103
0.0817733
-0.0720463
0.0830275
0.0666362
-0.0733203
0.0884573
0.0541309
-0.0750229
0.0875281
0.0452064
-0.0770493
0.0859738
0.0388749
-0.0789415
0.085273
0.0342026
-0.0804627
0.085135
0.0306818
-0.0816321
0.0851529
0.0280384
-0.082537
0.0851803
0.0260798
-0.0832408
0.0851994
0.0246417
-0.0837818
0.0852199
0.0235805
-0.0841886
0.0852498
0.0227815
-0.0844872
0.0852861
0.0221644
-0.0847022
0.0853194
0.0216792
-0.0848556
0.0853408
0.0212996
-0.0849666
0.0853463
0.0210118
-0.0850468
0.0853345
0.0208087
-0.0851003
0.0853035
0.0206843
-0.0851229
0.0852473
-0.0851041
0.085163
0.0208138
-0.0647535
-0.0240847
0.017337
-0.0685696
0.0168075
-0.0727907
0.0184277
-0.0766432
0.0202878
-0.0789093
0.0216379
-0.0802916
0.0224241
-0.0812489
0.0227859
-0.0819939
0.0228406
-0.0825917
0.0226694
-0.0830695
0.0223421
-0.0834545
0.0219256
-0.0837721
0.02148
-0.0840416
0.0210531
-0.0842754
0.0206773
-0.0844798
0.0203684
-0.0846578
0.0201321
-0.0848105
0.0199686
-0.0849367
0.0198752
-0.0850295
-0.0850706
0.0245391
-0.0712827
-0.0180099
0.0296207
-0.0736512
0.0321938
-0.0753638
0.0319203
-0.0763696
0.0303627
-0.0773517
0.0284449
-0.0783739
0.0265774
-0.0793813
0.024901
-0.0803175
0.0234614
-0.0811521
0.0222726
-0.0818807
0.0213266
-0.0825085
0.0205972
-0.0830427
0.0200474
-0.0834917
0.0196372
-0.0838652
0.0193324
-0.084175
0.0191078
-0.0844332
0.0189479
-0.0846506
0.0188447
-0.0848335
0.0187937
-0.0849785
-0.0850643
0.0111868
-0.073229
-0.00924044
0.0117255
-0.0741899
0.0117571
-0.0753954
0.0122181
-0.0768306
0.0131638
-0.0782974
0.0143164
-0.0795265
0.0153828
-0.0804477
0.0162563
-0.0811909
0.016917
-0.0818128
0.0173778
-0.0823415
0.0176634
-0.082794
0.0178053
-0.0831847
0.0178403
-0.0835267
0.017806
-0.0838309
0.0177363
-0.0841053
0.0176583
-0.0843551
0.0175908
-0.0845831
0.0175461
-0.0847887
0.0175309
-0.0849634
-0.0850791
0.0094048
-0.0766498
-0.00598402
0.0126164
-0.0774015
0.0153373
-0.0781162
0.0172248
-0.0787182
0.0181567
-0.0792293
0.0183858
-0.0797557
0.0182674
-0.0803294
0.017982
-0.0809055
0.0176324
-0.0814632
0.0172798
-0.0819889
0.0169613
-0.0824756
0.0166966
-0.08292
0.0164913
-0.0833215
0.0163417
-0.0836812
0.0162387
-0.0840023
0.0161726
-0.0842891
0.0161357
-0.0845462
0.016123
-0.0847761
0.0161324
-0.0849728
-0.0851083
0.00662628
-0.0779182
-0.00535791
0.00746519
-0.0782404
0.00803998
-0.078691
0.00858699
-0.0792652
0.00927313
-0.0799155
0.0100923
-0.0805749
0.0109447
-0.0811818
0.0117439
-0.0817047
0.0124457
-0.082165
0.0130328
-0.082576
0.0135032
-0.0829459
0.013864
-0.0832808
0.0141288
-0.0835863
0.014315
-0.0838674
0.0144415
-0.0841288
0.0145265
-0.0843741
0.0145856
-0.0846053
0.0146309
-0.0848214
0.0146717
-0.0850135
-0.0851509
0.00474555
-0.079844
-0.00281978
0.00666337
-0.0801583
0.00843818
-0.0804658
0.00994112
-0.0807681
0.0110826
-0.081057
0.0118511
-0.0813433
0.0123208
-0.0816515
0.0126014
-0.0819852
0.0127639
-0.0823276
0.0128559
-0.0826679
0.0129092
-0.0829992
0.0129453
-0.0833169
0.0129773
-0.0836183
0.0130117
-0.0839018
0.0130502
-0.0841673
0.0130917
-0.0844156
0.0131341
-0.0846477
0.013176
-0.0848633
0.0132175
-0.085055
-0.085194
0.00433382
-0.0807089
-0.00346885
0.00501274
-0.0808372
0.00559247
-0.0810455
0.0061336
-0.0813092
0.00669766
-0.0816211
0.00731328
-0.0819589
0.00796062
-0.0822988
0.00859674
-0.0826213
0.00918984
-0.0829206
0.00972153
-0.0831996
0.0101831
-0.0834608
0.0105724
-0.0837062
0.010892
-0.0839379
0.0111478
-0.0841577
0.0113482
-0.0843676
0.0115021
-0.0845694
0.0116183
-0.0847639
0.0117048
-0.0849499
0.0117689
-0.0851191
-0.0852442
0.00284947
-0.0818883
-0.00167007
0.00405935
-0.0820471
0.00520859
-0.0821948
0.00625098
-0.0823516
0.00714194
-0.082512
0.00785962
-0.0826766
0.00841142
-0.0828506
0.00883006
-0.08304
0.00915169
-0.0832423
0.00940352
-0.0834515
0.00960551
-0.0836628
0.00977205
-0.0838728
0.00991309
-0.0840789
0.0100349
-0.0842795
0.0101409
-0.0844737
0.0102325
-0.084661
0.0103098
-0.0848412
0.0103729
-0.0850131
0.0104236
-0.0851698
-0.0852866
0.00295569
-0.0825153
-0.00232877
0.0034798
-0.0825712
0.00396211
-0.0826771
0.00442113
-0.0828106
0.00487869
-0.0829696
0.0053496
-0.0831475
0.00583341
-0.0833344
0.00631518
-0.0835218
0.00677662
-0.0837037
0.00720447
-0.0838793
0.00759036
-0.0840487
0.00792991
-0.0842123
0.00822176
-0.0843707
0.00846686
-0.0845246
0.0086678
-0.0846746
0.00882822
-0.0848214
0.00895218
-0.0849652
0.00904395
-0.0851048
0.00910832
-0.0852341
-0.0853318
0.00187826
-0.0832765
-0.00111706
0.00267027
-0.0833632
0.00343248
-0.0834393
0.00414447
-0.0835226
0.00478614
-0.0836112
0.00534287
-0.0837043
0.00581184
-0.0838034
0.00620063
-0.0839105
0.00652335
-0.0840264
0.00679328
-0.0841492
0.00702114
-0.0842765
0.00721513
-0.0844063
0.00738124
-0.0845369
0.00752359
-0.084667
0.00764472
-0.0847957
0.00774597
-0.0849226
0.00782796
-0.0850472
0.00789129
-0.0851682
0.00793784
-0.0852807
-0.0853666
0.00203705
-0.0837346
-0.00157895
0.00243316
-0.0837593
0.00280782
-0.083814
0.00316843
-0.0838833
0.00352292
-0.0839657
0.00387797
-0.0840593
0.00423471
-0.0841602
0.00458838
-0.0842642
0.00493049
-0.0843685
0.00525292
-0.0844717
0.00554958
-0.0845732
0.00581646
-0.0846732
0.00605127
-0.0847717
0.00625313
-0.0848688
0.00642227
-0.0849649
0.00655968
-0.08506
0.00666684
-0.0851543
0.00674571
-0.085247
0.00679921
-0.0853342
-0.0854016
0.00127645
-0.0842358
-0.00077519
0.00180062
-0.0842835
0.00230944
-0.0843228
0.00279213
-0.0843659
0.00323897
-0.0844126
0.00364177
-0.0844621
0.00399674
-0.0845151
0.00430504
-0.0845725
0.00457124
-0.0846347
0.00480117
-0.0847016
0.00500009
-0.0847721
0.00517226
-0.0848454
0.00532095
-0.0849204
0.00544848
-0.0849964
0.00555639
-0.0850728
0.00564553
-0.0851492
0.00571638
-0.0852252
0.00576945
-0.0853001
0.00580634
-0.0853711
-0.0854267
0.00138089
-0.0845603
-0.00105645
0.0016673
-0.0845699
0.00194105
-0.0845965
0.00220581
-0.0846307
0.00246466
-0.0846714
0.00272042
-0.0847179
0.00297392
-0.0847686
0.00322332
-0.0848219
0.00346488
-0.0848763
0.00369416
-0.0849309
0.00390729
-0.0849853
0.00410132
-0.0850394
0.0042742
-0.0850932
0.0044247
-0.0851469
0.00455225
-0.0852003
0.00465676
-0.0852537
0.00473855
-0.085307
0.00479832
-0.0853599
0.00483765
-0.0854104
-0.0854507
0.000843126
-0.0848837
-0.000519645
0.00118212
-0.0849089
0.00151318
-0.0849276
0.00183008
-0.0849476
0.0021277
-0.084969
0.00240155
-0.0849917
0.00264882
-0.0850159
0.00286898
-0.0850421
0.00306334
-0.0850707
0.00323418
-0.0851017
0.00338393
-0.085135
0.00351471
-0.0851702
0.00362821
-0.0852067
0.00372567
-0.0852443
0.00380794
-0.0852826
0.0038755
-0.0853213
0.00392862
-0.0853601
0.0039676
-0.0853988
0.00399347
-0.0854363
-0.0854667
0.00088309
-0.0850958
-0.000671061
0.00107193
-0.0850977
0.00125302
-0.0851087
0.00142843
-0.085123
0.00159948
-0.0851401
0.00176743
-0.0851597
0.00193273
-0.0851812
0.00209466
-0.085204
0.00225146
-0.0852275
0.00240085
-0.0852511
0.00254056
-0.0852747
0.00266867
-0.0852983
0.00278368
-0.0853217
0.00288453
-0.0853452
0.00297056
-0.0853686
0.00304138
-0.0853921
0.00309685
-0.0854156
0.00313709
-0.0854391
0.00316278
-0.085462
-0.0854811
0.00049429
-0.0852856
-0.000304418
0.000694199
-0.0852976
0.000890362
-0.0853048
0.0010792
-0.0853118
0.00125802
-0.0853189
0.00142437
-0.085326
0.00157646
-0.0853333
0.00171354
-0.0853411
0.00183583
-0.0853497
0.00194415
-0.0853594
0.00203957
-0.0853701
0.00212313
-0.0853818
0.0021957
-0.0853943
0.00225794
-0.0854074
0.00231033
-0.085421
0.00235317
-0.0854349
0.00238661
-0.085449
0.00241078
-0.0854633
0.00242616
-0.0854773
-0.0854895
0.000479699
-0.0853977
-0.000367649
0.000577554
-0.0853955
0.000671545
-0.0853988
0.000762988
-0.0854033
0.000852469
-0.0854084
0.00094052
-0.0854141
0.00102739
-0.0854202
0.00111279
-0.0854265
0.00119591
-0.0854329
0.00127561
-0.0854391
0.00135068
-0.0854452
0.00141999
-0.0854511
0.00148262
-0.0854569
0.00153786
-0.0854627
0.00158519
-0.0854683
0.00162428
-0.085474
0.00165493
-0.0854797
0.00167704
-0.0854854
0.00169074
-0.085491
-0.0854962
0.000179325
-0.0854772
-9.97976e-05
0.000267661
-0.0854838
0.000355313
-0.0854865
0.000439864
-0.0854878
0.000519814
-0.0854883
0.000593895
-0.0854881
0.000661178
-0.0854874
0.000721244
-0.0854866
0.000774165
-0.0854858
0.000820363
-0.0854853
0.000860439
-0.0854853
0.00089501
-0.0854857
0.000924627
-0.0854866
0.000949735
-0.0854878
0.000970663
-0.0854893
0.000987636
-0.085491
0.00100079
-0.0854928
0.00101021
-0.0854948
0.001016
-0.0854968
-0.0854988
0.000118188
-9.54058e-05
0.000134384
0.000147904
0.000160068
0.000171725
0.000183581
0.000196132
0.000209568
0.000223786
0.000238468
0.000253183
0.000267473
0.000280913
0.000293145
0.000303883
0.000312913
0.000320088
0.000325305
0.000328485
-0.0697861
-0.00926181
0.079048
-0.0609422
-0.00884396
-0.0524033
-0.00853884
-0.0441075
-0.00829586
-0.0360109
-0.00809663
-0.0280765
-0.00793439
-0.0202699
-0.00780655
-0.0125578
-0.00771216
-0.00490685
-0.0076509
0.00271592
-0.00762277
0.0103439
-0.00762794
0.0180106
-0.00766675
0.0257503
-0.00773974
0.033598
-0.00784768
0.0415897
-0.00799171
0.0497635
-0.00817372
0.0581608
-0.00839729
0.0668312
-0.00867043
0.0758439
-0.00901269
-0.00949649
-0.0169898
-0.0107883
0.0185163
-0.0151808
-0.0106529
-0.0131978
-0.0105218
-0.0110925
-0.0104012
-0.00889454
-0.0102946
-0.00662438
-0.0102045
-0.00429857
-0.0101324
-0.00193185
-0.0100789
0.000461809
-0.0100446
0.0028687
-0.0100297
0.00527516
-0.0100344
0.00766736
-0.010059
0.0100312
-0.0101036
0.012352
-0.0101685
0.0146142
-0.0102539
0.0168005
-0.0103599
0.0188895
-0.0104863
0.0208513
-0.0106323
0.022635
-0.0107964
-0.0109462
-0.013282
-0.0120768
0.0145705
-0.0119001
-0.0120348
-0.0104224
-0.0119995
-0.00885314
-0.0119704
-0.007201
-0.0119468
-0.00547733
-0.0119282
-0.00369527
-0.0119144
-0.00186893
-0.0119052
-1.29458e-05
-0.0119005
0.00185771
-0.0119003
0.00372785
-0.0119045
0.00558205
-0.0119132
0.00740459
-0.0119261
0.00917952
-0.0119434
0.0108907
-0.0119651
0.0125218
-0.0119911
0.0140574
-0.0120219
0.0154832
-0.0120581
0.0167873
-0.0121005
-0.0121687
-0.00484811
-0.0127743
0.00554554
-0.00413111
-0.0127518
-0.00340008
-0.0127306
-0.00265936
-0.0127111
-0.00191224
-0.0126939
-0.00116104
-0.0126794
-0.000407422
-0.012668
0.000347473
-0.0126601
0.00110283
-0.0126559
0.00185806
-0.0126555
0.00261272
-0.0126592
0.00336645
-0.0126669
0.00411893
-0.0126786
0.00486976
-0.0126943
0.00561842
-0.0127137
0.00636401
-0.0127367
0.00710507
-0.012763
0.0078391
-0.0127921
0.00856232
-0.0128237
-0.0128469
-0.0042936
-0.013279
0.00479836
-0.00377687
-0.0132685
-0.00324771
-0.0132597
-0.00270629
-0.0132525
-0.00215338
-0.0132468
-0.0015903
-0.0132425
-0.00101888
-0.0132395
-0.000441368
-0.0132376
0.000139677
-0.0132369
0.000721447
-0.0132373
0.00130098
-0.0132387
0.00187526
-0.0132412
0.00244126
-0.0132446
0.00299611
-0.0132491
0.0035371
-0.0132547
0.00406184
-0.0132614
0.00456833
-0.0132695
0.00505513
-0.0132789
0.00552118
-0.0132898
-0.0133097
-0.00230167
-0.0136674
0.00269006
-0.00190833
-0.0136619
-0.00151121
-0.0136568
-0.00111132
-0.0136524
-0.000709468
-0.0136487
-0.000306269
-0.0136457
9.78192e-05
-0.0136435
0.000502499
-0.0136423
0.000907597
-0.013642
0.00131304
-0.0136428
0.00171881
-0.0136445
0.00212493
-0.0136473
0.00253141
-0.0136511
0.00293822
-0.0136559
0.00334525
-0.0136617
0.00375227
-0.0136685
0.00415891
-0.0136761
0.00456455
-0.0136845
0.00496847
-0.0136937
-0.0136991
-0.00198965
-0.0139204
0.00224259
-0.00173524
-0.0139163
-0.00147926
-0.0139128
-0.00122174
-0.0139099
-0.000962775
-0.0139076
-0.000702584
-0.0139059
-0.000441481
-0.0139047
-0.000179865
-0.0139039
8.17903e-05
-0.0139037
0.000342958
-0.0139039
0.000603074
-0.0139046
0.000861558
-0.0139058
0.00111784
-0.0139074
0.00137136
-0.0139094
0.00162162
-0.013912
0.00186819
-0.013915
0.00211071
-0.0139186
0.00234897
-0.0139228
0.00258278
-0.0139275
-0.0139361
-0.00136423
-0.014167
0.00161082
-0.00111536
-0.0141652
-0.000864581
-0.0141636
-0.000612242
-0.0141623
-0.00035865
-0.0141612
-0.000104066
-0.0141605
0.000151285
-0.01416
0.00040722
-0.0141599
0.000663584
-0.0141601
0.000920248
-0.0141606
0.0011771
-0.0141615
0.00143403
-0.0141627
0.00169094
-0.0141643
0.00194769
-0.0141662
0.00220416
-0.0141685
0.00246015
-0.014171
0.00271545
-0.0141739
0.00296977
-0.0141771
0.0032228
-0.0141805
-0.0141822
-0.0011394
-0.0143178
0.00129024
-0.000988691
-0.0143159
-0.00083807
-0.0143142
-0.00068751
-0.0143128
-0.000537011
-0.0143117
-0.000386597
-0.0143109
-0.000236312
-0.0143103
-8.62233e-05
-0.01431
6.35876e-05
-0.0143099
0.000213025
-0.01431
0.000361984
-0.0143104
0.000510357
-0.0143111
0.00065804
-0.014312
0.000804933
-0.0143131
0.00095095
-0.0143145
0.00109602
-0.0143161
0.00124011
-0.014318
0.0013832
-0.0143202
0.0015253
-0.0143226
-0.0143269
-0.000890996
-0.0144831
0.00105632
-0.000724437
-0.0144824
-0.00055681
-0.0144818
-0.000388272
-0.0144814
-0.000218972
-0.014481
-4.90457e-05
-0.0144808
0.000121377
-0.0144807
0.000292178
-0.0144808
0.000463245
-0.0144809
0.000634471
-0.0144813
0.000805754
-0.0144817
0.000976994
-0.0144823
0.00114809
-0.014483
0.00131892
-0.0144839
0.00148939
-0.0144849
0.00165937
-0.0144861
0.00182872
-0.0144874
0.00199728
-0.0144887
0.00216488
-0.0144902
-0.0144908
-0.000727728
-0.0145824
0.000827041
-0.000628704
-0.0145814
-0.000529943
-0.0145806
-0.000431421
-0.0145799
-0.000333124
-0.0145793
-0.000235038
-0.0145789
-0.00013716
-0.0145786
-3.94864e-05
-0.0145784
5.79784e-05
-0.0145784
0.000155229
-0.0145785
0.000252257
-0.0145787
0.000349056
-0.0145791
0.000445618
-0.0145796
0.000541939
-0.0145802
0.000638018
-0.014581
0.000733858
-0.0145819
0.000829473
-0.014583
0.00092489
-0.0145842
0.00102013
-0.0145855
-0.0145878
-0.000603786
-0.0146951
0.000716471
-0.000490409
-0.0146948
-0.000376424
-0.0146946
-0.000261913
-0.0146944
-0.000146955
-0.0146943
-3.16291e-05
-0.0146942
8.39887e-05
-0.0146942
0.000199824
-0.0146943
0.000315806
-0.0146944
0.00043186
-0.0146946
0.000547918
-0.0146948
0.000663908
-0.0146951
0.000779758
-0.0146955
0.000895395
-0.0146959
0.00101074
-0.0146964
0.00112573
-0.0146969
0.00124027
-0.0146975
0.00135426
-0.0146982
0.00146763
-0.0146989
-0.0146991
-0.000483661
-0.0147627
0.000551265
-0.000416275
-0.0147622
-0.000349092
-0.0147618
-0.000282095
-0.0147614
-0.000215271
-0.0147611
-0.000148606
-0.0147609
-8.20878e-05
-0.0147607
-1.57062e-05
-0.0147606
5.05498e-05
-0.0147606
0.00011669
-0.0147607
0.000182724
-0.0147608
0.000248662
-0.014761
0.000314514
-0.0147613
0.000380291
-0.0147617
0.000446005
-0.0147621
0.00051167
-0.0147626
0.000577302
-0.0147631
0.000642926
-0.0147638
0.000708559
-0.0147645
-0.0147657
-0.000406828
-0.0148386
0.000482666
-0.000330596
-0.0148384
-0.000254014
-0.0148383
-0.00017713
-0.0148383
-9.99889e-05
-0.0148382
-2.26354e-05
-0.0148382
5.48847e-05
-0.0148382
0.000132526
-0.0148383
0.000210245
-0.0148384
0.000287995
-0.0148384
0.000365732
-0.0148386
0.000443412
-0.0148387
0.000520988
-0.0148389
0.000598416
-0.0148391
0.000675648
-0.0148393
0.000752638
-0.0148396
0.000829337
-0.0148398
0.000905693
-0.0148401
0.000981655
-0.0148405
-0.0148405
-0.000315628
-0.0148833
0.000360372
-0.000271023
-0.014883
-0.000226549
-0.0148828
-0.000182195
-0.0148826
-0.000137951
-0.0148825
-9.38088e-05
-0.0148824
-4.97576e-05
-0.0148823
-5.78808e-06
-0.0148823
3.81094e-05
-0.0148823
8.19443e-05
-0.0148823
0.000125727
-0.0148824
0.000169466
-0.0148825
0.000213172
-0.0148826
0.000256855
-0.0148828
0.000300526
-0.014883
0.000344196
-0.0148832
0.000387875
-0.0148835
0.00043158
-0.0148838
0.000475322
-0.0148842
-0.0148848
-0.000258476
-0.0149316
0.000306755
-0.000209971
-0.0149315
-0.000161266
-0.0149315
-0.000112388
-0.0149315
-6.33616e-05
-0.0149315
-1.42142e-05
-0.0149315
3.50278e-05
-0.0149315
8.43378e-05
-0.0149316
0.000133689
-0.0149316
0.000183054
-0.0149316
0.000232407
-0.0149317
0.000281719
-0.0149318
0.000330965
-0.0149318
0.000380116
-0.0149319
0.000429145
-0.014932
0.000478024
-0.0149321
0.000526726
-0.0149322
0.000575219
-0.0149323
0.000623474
-0.0149325
-0.0149324
-0.000185774
-0.0149578
0.000211982
-0.000159652
-0.0149577
-0.00013361
-0.0149576
-0.000107641
-0.0149575
-8.1738e-05
-0.0149574
-5.5894e-05
-0.0149574
-3.01016e-05
-0.0149573
-4.35328e-06
-0.0149573
2.13585e-05
-0.0149573
4.70415e-05
-0.0149573
7.27037e-05
-0.0149574
9.83532e-05
-0.0149574
0.000123998
-0.0149575
0.000149647
-0.0149576
0.000175308
-0.0149577
0.00020099
-0.0149578
0.000226702
-0.0149579
0.000252456
-0.0149581
0.000278259
-0.0149583
-0.0149586
-0.000137092
-0.0149839
0.000163241
-0.000110816
-0.0149839
-8.44278e-05
-0.014984
-5.79399e-05
-0.014984
-3.13665e-05
-0.014984
-4.72164e-06
-0.014984
2.19807e-05
-0.014984
4.87262e-05
-0.0149841
7.55007e-05
-0.0149841
0.00010229
-0.0149841
0.00012908
-0.0149842
0.000155856
-0.0149842
0.000182604
-0.0149842
0.000209309
-0.0149843
0.000235959
-0.0149843
0.00026254
-0.0149844
0.000289036
-0.0149844
0.000315434
-0.0149845
0.000341721
-0.0149845
-0.0149845
-7.56094e-05
-0.0149935
8.51469e-05
-6.61351e-05
-0.0149934
-5.67191e-05
-0.0149934
-4.73564e-05
-0.0149933
-3.8042e-05
-0.0149933
-2.87704e-05
-0.0149933
-1.95364e-05
-0.0149933
-1.03345e-05
-0.0149933
-1.15891e-06
-0.0149933
7.99586e-06
-0.0149933
1.71355e-05
-0.0149933
2.62658e-05
-0.0149933
3.53924e-05
-0.0149934
4.45208e-05
-0.0149934
5.36564e-05
-0.0149935
6.28043e-05
-0.0149935
7.19696e-05
-0.0149936
8.11577e-05
-0.0149937
9.03721e-05
-0.0149938
-0.0149939
-2.95035e-05
3.60305e-05
-2.29229e-05
-1.62968e-05
-9.6324e-06
-2.93748e-06
3.77998e-06
1.05118e-05
1.72498e-05
2.39854e-05
3.07102e-05
3.74155e-05
4.40926e-05
5.07329e-05
5.73277e-05
6.38685e-05
7.03471e-05
7.67555e-05
8.30856e-05
8.93307e-05
-0.0622738
-0.0130227
0.015162
0.0601346
-0.0645293
-0.0129821
0.0152376
-0.0669284
-0.0129316
0.0153307
-0.0694488
-0.0128858
0.0154062
-0.0720607
-0.0128439
0.0154557
-0.0747261
-0.0128044
0.0154698
-0.0773989
-0.0127652
0.015438
-0.0800247
-0.0127233
0.0153491
-0.0825413
-0.012675
0.0151916
-0.0848796
-0.0126155
0.0149538
-0.0869643
-0.012539
0.0146237
-0.0887149
-0.012439
0.0141896
-0.0900462
-0.0123078
0.0136391
-0.0908688
-0.0121371
0.0129597
-0.0910885
-0.011918
0.0121377
-0.0906046
-0.0116413
0.0111575
-0.0893056
-0.0112985
0.00999946
-0.0870622
-0.0108817
0.00863835
-0.0837198
-0.0103833
0.00704085
-0.00979328
0.00512141
-0.01446
-0.013088
0.0145253
-0.014459
-0.0129832
-0.0145204
-0.0128702
-0.0146557
-0.0127504
-0.0148741
-0.0126255
-0.0151812
-0.0124973
-0.0155785
-0.0123678
-0.0160626
-0.0122392
-0.0166242
-0.0121134
-0.0172478
-0.0119918
-0.0179112
-0.0118756
-0.018585
-0.0117652
-0.0192325
-0.0116603
-0.0198099
-0.0115597
-0.0202662
-0.0114617
-0.0205435
-0.011364
-0.0205781
-0.0112638
-0.0203019
-0.011158
-0.0196418
-0.0110433
-0.0109188
-0.0299358
-0.0132885
0.0301362
-0.0296679
-0.013251
-0.0293262
-0.013212
-0.0289069
-0.0131697
-0.0284086
-0.0131238
-0.0278318
-0.0130741
-0.0271792
-0.0130204
-0.0264561
-0.0129624
-0.0256692
-0.0129003
-0.024827
-0.012834
-0.0239385
-0.0127641
-0.0230126
-0.0126911
-0.0220572
-0.0126157
-0.021078
-0.012539
-0.0200775
-0.0124622
-0.0190547
-0.0123868
-0.0180045
-0.0123141
-0.0169169
-0.0122455
-0.0157777
-0.0121825
-0.0121261
-0.0111774
-0.0133442
0.011233
-0.0111213
-0.013307
-0.0110661
-0.0132672
-0.0110068
-0.013229
-0.0109382
-0.0131924
-0.0108547
-0.0131576
-0.0107503
-0.0131247
-0.0106191
-0.0130937
-0.0104549
-0.0130644
-0.0102521
-0.0130368
-0.0100056
-0.0130107
-0.00971094
-0.0129857
-0.00936507
-0.0129615
-0.00896607
-0.012938
-0.00851359
-0.0129147
-0.00800886
-0.0128915
-0.00745475
-0.0128682
-0.00685558
-0.0128447
-0.00621699
-0.0128211
-0.0127975
-0.013363
-0.0137064
0.0137252
-0.0129865
-0.0136835
-0.0125912
-0.0136625
-0.0121796
-0.0136406
-0.011754
-0.013618
-0.011317
-0.0135946
-0.010871
-0.0135707
-0.0104184
-0.0135463
-0.00996135
-0.0135215
-0.00950151
-0.0134967
-0.00904027
-0.0134719
-0.00857846
-0.0134475
-0.00811639
-0.0134236
-0.00765378
-0.0134006
-0.00718988
-0.0133786
-0.00672344
-0.013358
-0.00625288
-0.0133388
-0.0057764
-0.0133212
-0.00529214
-0.0133053
-0.0132913
-0.00781218
-0.0138555
0.00796124
-0.00765265
-0.013843
-0.00748613
-0.013829
-0.00731109
-0.0138156
-0.00712606
-0.013803
-0.00692964
-0.013791
-0.00672055
-0.0137798
-0.00649766
-0.0137692
-0.00626007
-0.0137591
-0.00600712
-0.0137496
-0.00573843
-0.0137406
-0.00545393
-0.013732
-0.00515384
-0.0137237
-0.00483868
-0.0137158
-0.00450924
-0.0137081
-0.00416657
-0.0137006
-0.00381191
-0.0136934
-0.00344662
-0.0136865
-0.00307218
-0.0136798
-0.0136734
-0.00702961
-0.0141009
0.007275
-0.00678391
-0.0140887
-0.00653474
-0.0140782
-0.00628287
-0.0140675
-0.00602902
-0.0140568
-0.00577393
-0.0140461
-0.00551822
-0.0140355
-0.00526248
-0.0140249
-0.00500714
-0.0140145
-0.00475255
-0.0140042
-0.00449893
-0.0139942
-0.00424635
-0.0139845
-0.0039948
-0.0139753
-0.00374414
-0.0139664
-0.00349413
-0.0139581
-0.00324449
-0.0139503
-0.00299488
-0.013943
-0.00274492
-0.0139364
-0.00249426
-0.0139304
-0.0139251
-0.00539929
-0.0142438
0.00554222
-0.00524926
-0.0142388
-0.00509462
-0.0142328
-0.004935
-0.0142271
-0.00477007
-0.0142218
-0.00459953
-0.0142167
-0.00442313
-0.0142119
-0.0042407
-0.0142073
-0.0040521
-0.0142031
-0.0038573
-0.014199
-0.00365634
-0.0141952
-0.00344933
-0.0141916
-0.00323647
-0.0141881
-0.00301802
-0.0141849
-0.0027943
-0.0141818
-0.00256568
-0.0141789
-0.00233258
-0.0141761
-0.00209544
-0.0141736
-0.0018547
-0.0141712
-0.014169
-0.00425772
-0.0144047
0.00441856
-0.00409827
-0.0143982
-0.00393836
-0.0143927
-0.00377822
-0.0143873
-0.00361809
-0.0143819
-0.00345818
-0.0143766
-0.00329867
-0.0143714
-0.00313972
-0.0143663
-0.00298147
-0.0143613
-0.00282399
-0.0143565
-0.00266736
-0.0143518
-0.00251158
-0.0143473
-0.00235665
-0.0143431
-0.00220252
-0.014339
-0.00204914
-0.0143352
-0.00189641
-0.0143316
-0.00174426
-0.0143283
-0.00159258
-0.0143253
-0.00144127
-0.0143225
-0.01432
-0.00376917
-0.0145188
0.00388334
-0.00365089
-0.0145165
-0.00352998
-0.0145136
-0.00340634
-0.0145109
-0.0032799
-0.0145083
-0.00315059
-0.0145059
-0.00301837
-0.0145036
-0.00288322
-0.0145014
-0.00274514
-0.0144994
-0.00260416
-0.0144975
-0.00246033
-0.0144956
-0.00231373
-0.0144939
-0.00216444
-0.0144923
-0.0020126
-0.0144908
-0.00185834
-0.0144894
-0.0017018
-0.0144881
-0.00154316
-0.0144869
-0.00138258
-0.0144858
-0.00122024
-0.0144848
-0.0144839
-0.00279824
-0.0146271
0.0029065
-0.00269111
-0.0146236
-0.00258404
-0.0146207
-0.00247714
-0.0146178
-0.00237049
-0.014615
-0.00226416
-0.0146122
-0.00215822
-0.0146095
-0.00205273
-0.0146069
-0.00194773
-0.0146044
-0.00184326
-0.0146019
-0.00173934
-0.0145996
-0.00163597
-0.0145973
-0.00153315
-0.0145952
-0.00143087
-0.0145931
-0.00132911
-0.0145912
-0.00122784
-0.0145894
-0.00112704
-0.0145877
-0.00102666
-0.0145862
-0.000926674
-0.0145848
-0.0145836
-0.00263159
-0.0147124
0.00271692
-0.00254392
-0.0147113
-0.00245475
-0.0147099
-0.00236404
-0.0147085
-0.00227179
-0.0147072
-0.00217799
-0.014706
-0.00208264
-0.0147049
-0.00198574
-0.0147038
-0.00188731
-0.0147028
-0.00178737
-0.0147019
-0.00168596
-0.014701
-0.00158312
-0.0147001
-0.0014789
-0.0146994
-0.00137337
-0.0146987
-0.00126658
-0.014698
-0.00115861
-0.0146974
-0.00104953
-0.0146968
-0.000939428
-0.0146963
-0.00082838
-0.0146959
-0.0146955
-0.00189019
-0.0147859
0.00196365
-0.00181744
-0.014784
-0.00174481
-0.0147825
-0.00167234
-0.014781
-0.00160006
-0.0147795
-0.00152802
-0.0147781
-0.00145623
-0.0147767
-0.00138473
-0.0147753
-0.00131352
-0.014774
-0.00124264
-0.0147728
-0.00117208
-0.0147715
-0.00110185
-0.0147704
-0.00103195
-0.0147693
-0.00096238
-0.0147682
-0.00089313
-0.0147672
-0.000824191
-0.0147663
-0.00075555
-0.0147655
-0.000687193
-0.0147647
-0.000619103
-0.014764
-0.0147633
-0.0017982
-0.0148464
0.00185873
-0.00173631
-0.0148459
-0.00167356
-0.0148453
-0.00160992
-0.0148446
-0.00154541
-0.014844
-0.00148002
-0.0148435
-0.00141377
-0.0148429
-0.00134665
-0.0148424
-0.00127869
-0.014842
-0.0012099
-0.0148415
-0.0011403
-0.0148411
-0.00106992
-0.0148408
-0.000998785
-0.0148404
-0.000926925
-0.0148401
-0.000854376
-0.0148398
-0.000781175
-0.0148395
-0.000707361
-0.0148393
-0.000632977
-0.0148391
-0.000558063
-0.0148389
-0.0148387
-0.00124348
-0.0148947
0.00129179
-0.0011956
-0.0148938
-0.00114782
-0.014893
-0.00110014
-0.0148923
-0.00105258
-0.0148916
-0.00100518
-0.0148909
-0.000957922
-0.0148902
-0.000910837
-0.0148895
-0.000863931
-0.0148889
-0.00081721
-0.0148883
-0.00077068
-0.0148877
-0.000724343
-0.0148871
-0.000678201
-0.0148865
-0.000632253
-0.014886
-0.000586495
-0.0148855
-0.000540923
-0.0148851
-0.000495532
-0.0148847
-0.000450315
-0.0148843
-0.000405264
-0.0148839
-0.0148836
-0.00115322
-0.0149343
0.00119281
-0.00111285
-0.0149342
-0.00107197
-0.0149339
-0.00103059
-0.0149337
-0.000988703
-0.0149335
-0.000946319
-0.0149333
-0.000903442
-0.0149331
-0.000860079
-0.0149329
-0.000816238
-0.0149327
-0.000771932
-0.0149326
-0.000727171
-0.0149324
-0.000681971
-0.0149323
-0.000636348
-0.0149322
-0.000590318
-0.0149321
-0.000543902
-0.014932
-0.000497118
-0.0149319
-0.000449988
-0.0149318
-0.000402536
-0.0149317
-0.000354783
-0.0149317
-0.0149316
-0.00073077
-0.0149628
0.000759289
-0.000702526
-0.0149624
-0.000674356
-0.0149621
-0.000646271
-0.0149618
-0.000618277
-0.0149615
-0.000590383
-0.0149612
-0.000562595
-0.0149609
-0.000534918
-0.0149606
-0.000507356
-0.0149603
-0.000479914
-0.01496
-0.000452592
-0.0149597
-0.000425392
-0.0149595
-0.000398313
-0.0149593
-0.000371356
-0.014959
-0.000344517
-0.0149588
-0.000317794
-0.0149586
-0.000291184
-0.0149584
-0.000264681
-0.0149582
-0.000238283
-0.0149581
-0.0149579
-0.000621906
-0.0149843
0.000643407
-0.000599975
-0.0149843
-0.00057778
-0.0149843
-0.000555321
-0.0149842
-0.000532599
-0.0149842
-0.000509615
-0.0149841
-0.000486371
-0.0149841
-0.000462871
-0.0149841
-0.000439118
-0.014984
-0.000415117
-0.014984
-0.000390876
-0.014984
-0.000366399
-0.014984
-0.000341696
-0.014984
-0.000316775
-0.0149839
-0.000291645
-0.0149839
-0.000266317
-0.0149839
-0.000240801
-0.0149839
-0.000215108
-0.0149839
-0.000189251
-0.0149839
-0.0149839
-0.000282077
-0.0149957
0.000293394
-0.000270951
-0.0149955
-0.000259895
-0.0149953
-0.000248916
-0.0149952
-0.000238016
-0.0149951
-0.000227201
-0.014995
-0.000216473
-0.0149948
-0.000205835
-0.0149947
-0.000195288
-0.0149946
-0.000184832
-0.0149945
-0.00017447
-0.0149944
-0.000164199
-0.0149942
-0.00015402
-0.0149941
-0.000143931
-0.014994
-0.00013393
-0.0149939
-0.000124015
-0.0149938
-0.000114182
-0.0149938
-0.000104429
-0.0149937
-9.47524e-05
-0.0149936
-0.0149935
-0.000142264
0.000146611
-0.000137735
-0.000133079
-0.000128294
-0.000123381
-0.00011834
-0.000113172
-0.000107881
-0.000102467
-9.6935e-05
-9.12872e-05
-8.55278e-05
-7.96613e-05
-7.36921e-05
-6.76255e-05
-6.14667e-05
-5.52217e-05
-4.88963e-05
-4.2497e-05
-0.0178447
-0.00329645
0.0211411
-0.0150013
-0.00284338
-0.0125389
-0.00246236
-0.0104052
-0.00213374
-0.00855916
-0.00184603
-0.00696742
-0.00159175
-0.0056018
-0.00136562
-0.00443804
-0.00116375
-0.00345483
-0.000983212
-0.00263311
-0.000821722
-0.00195561
-0.000677502
-0.00140647
-0.000549136
-0.000970971
-0.000435502
-0.000635253
-0.000335718
-0.000386138
-0.000249115
-0.000210918
-0.00017522
-9.71698e-05
-0.000113748
-3.25578e-05
-6.4612e-05
-4.58882e-06
-2.7969e-05
-4.58882e-06
-0.00988312
-0.00409947
0.0106861
-0.00899784
-0.00372867
-0.00808438
-0.00337582
-0.00717612
-0.003042
-0.00629518
-0.00272697
-0.00545646
-0.00243046
-0.00466991
-0.00215217
-0.00394194
-0.00189172
-0.00327642
-0.00164873
-0.00267535
-0.00142279
-0.00213934
-0.00121351
-0.00166795
-0.00102053
-0.00125996
-0.000843488
-0.000913597
-0.000682083
-0.000626674
-0.000536038
-0.000396777
-0.000405118
-0.000221395
-0.000289129
-9.80807e-05
-0.000187926
-2.46432e-05
-0.000101407
-2.9232e-05
-0.00732791
-0.0047221
0.00795054
-0.00669823
-0.00435835
-0.0060688
-0.00400525
-0.00544755
-0.00366325
-0.00484143
-0.00333309
-0.00425651
-0.00301538
-0.00369801
-0.00271067
-0.00317031
-0.00241942
-0.00267702
-0.00214203
-0.00222101
-0.0018788
-0.00180455
-0.00162998
-0.00142931
-0.00139576
-0.00109653
-0.00117627
-0.000807037
-0.000971576
-0.000561378
-0.000781697
-0.00035989
-0.000606606
-0.000202792
-0.000446228
-9.02764e-05
-0.000300442
-2.26014e-05
-0.000169082
-5.18334e-05
-0.00564264
-0.00528403
0.00620456
-0.00509601
-0.00490497
-0.0045683
-0.00453296
-0.00406205
-0.0041695
-0.00357957
-0.00381558
-0.00312286
-0.00347208
-0.0026937
-0.00313983
-0.00229359
-0.00281953
-0.00192379
-0.00251182
-0.00158533
-0.00221726
-0.00127901
-0.0019363
-0.00100541
-0.00166937
-0.000764899
-0.00141678
-0.000557669
-0.00117881
-0.000383706
-0.00095566
-0.000242822
-0.000747489
-0.000134657
-0.000554394
-5.86743e-05
-0.000376424
-1.41719e-05
-0.000213584
-6.60053e-05
-0.00524435
-0.00582278
0.00578311
-0.00472627
-0.00542306
-0.00422985
-0.00502939
-0.00375658
-0.00464277
-0.00330784
-0.00426432
-0.00288485
-0.00389508
-0.00248868
-0.003536
-0.00212024
-0.00318797
-0.00178029
-0.00285177
-0.00146945
-0.0025281
-0.00118817
-0.00221758
-0.000936771
-0.00192076
-0.000715438
-0.00163811
-0.000524228
-0.00137002
-0.000363086
-0.0011168
-0.00023185
-0.000878725
-0.000130267
-0.000655978
-5.79954e-05
-0.000448695
-1.46248e-05
-0.000256955
-8.06302e-05
-0.00510585
-0.0063649
0.00564796