/*--------------------------------*- C++ -*----------------------------------*\
| =========                 |                                                 |
| \\      /  F ield         | OpenFOAM: The Open Source CFD Toolbox           |
|  \\    /   O peration     | Version:  v1806                                 |
|   \\  /    A nd           | Web:      www.OpenFOAM.com                      |
|    \\/     M anipulation  |                                                 |
\*---------------------------------------------------------------------------*/
FoamFile
{
    version     2.0;
    format      ascii;
    class       volVectorField;
    location    "2";
    object      U;
}
// * * * * * * * * * * * * * * * * * * * * * * * * * * * * * * * * * * * * * //

dimensions      [0 1 -1 0 0 0 0];


internalField   nonuniform List<vector> 
24000
(
(2.71583 0.0329408 0.0848857)
(2.45452 0.047042 0.0941348)
(2.11019 0.0436023 0.0773626)
(1.77545 0.0375838 0.061694)
(1.51436 0.0299248 0.0436806)
(1.33061 0.022279 0.026272)
(1.20602 0.0166237 0.0140277)
(1.12158 0.0131308 0.00703229)
(1.06335 0.0108248 0.00351554)
(1.02384 0.00847005 0.00201687)
(0.996936 0.00602035 0.0016552)
(0.980212 0.00365968 0.00144626)
(0.970144 0.00166434 0.00131692)
(0.966538 -2.18684e-05 0.00120819)
(0.967269 -0.00135638 0.00125679)
(0.972953 -0.00273168 0.0014791)
(0.981133 -0.00418441 0.00195816)
(0.991522 -0.00574952 0.00253653)
(1.00118 -0.00662326 0.00294078)
(1.00996 -0.00663373 0.00295976)
(2.76998 0.041368 0.0857199)
(2.56339 0.0606603 0.0981023)
(2.30302 0.0569264 0.0794949)
(2.04213 0.0496459 0.0658087)
(1.82465 0.0402832 0.0510358)
(1.65989 0.0295912 0.0350644)
(1.5402 0.0200871 0.0222538)
(1.45647 0.0126075 0.0134585)
(1.39912 0.00691069 0.00793454)
(1.36331 0.00168635 0.00495248)
(1.34132 -0.0034848 0.00375588)
(1.33132 -0.00900308 0.00304544)
(1.32864 -0.0137768 0.00235346)
(1.33391 -0.0179193 0.00163137)
(1.34368 -0.0203787 0.00123335)
(1.35911 -0.0218617 0.00122912)
(1.37638 -0.02262 0.00173085)
(1.39563 -0.0242321 0.00240877)
(1.41285 -0.0253651 0.00304849)
(1.42876 -0.0257427 0.00333072)
(2.76952 0.0160214 0.0856945)
(2.55234 0.029188 0.0982441)
(2.29411 0.0302979 0.0787219)
(2.0434 0.027008 0.0646008)
(1.83649 0.0215758 0.0503283)
(1.68091 0.0138015 0.0347783)
(1.56816 0.00538616 0.0222468)
(1.48987 -0.00344127 0.0135178)
(1.43689 -0.0111528 0.0079087)
(1.40503 -0.0185462 0.00454844)
(1.38658 -0.0256756 0.00286326)
(1.38029 -0.0334883 0.00172052)
(1.38131 -0.0399668 0.000997577)
(1.39036 -0.0458506 0.000420358)
(1.40395 -0.0492637 0.000127233)
(1.42312 -0.0512746 -5.48445e-05)
(1.44464 -0.0514545 -5.60244e-06)
(1.46883 -0.0520278 0.00010356)
(1.49137 -0.051307 0.000333298)
(1.51241 -0.0495489 0.00041714)
(2.7691 0.0116803 0.0858414)
(2.54249 0.0226218 0.098805)
(2.27816 0.0242285 0.0791461)
(2.02561 0.0204825 0.0646537)
(1.81889 0.0142096 0.0502714)
(1.66505 0.00533095 0.0346246)
(1.55455 -0.0035701 0.0220663)
(1.47849 -0.0139061 0.0133772)
(1.42752 -0.0232069 0.00777861)
(1.39763 -0.0329388 0.00440811)
(1.38091 -0.0419396 0.00262594)
(1.37648 -0.051787 0.00137474)
(1.3793 -0.0595886 0.000582571)
(1.39058 -0.0673514 -4.25035e-05)
(1.40652 -0.0722057 -0.000294982)
(1.42841 -0.0757969 -0.000506656)
(1.45262 -0.0762245 -0.00066071)
(1.47978 -0.0756332 -0.000867715)
(1.50542 -0.0717762 -0.00085915)
(1.52966 -0.0660364 -0.000853606)
(2.76875 0.00691015 0.0859884)
(2.53593 0.0108542 0.0990637)
(2.26769 0.0107739 0.0793591)
(2.01306 0.00655322 0.0646389)
(1.80536 0.000417936 0.0501132)
(1.65175 -0.00908818 0.034266)
(1.54184 -0.0178226 0.0216589)
(1.46696 -0.029516 0.012803)
(1.41697 -0.0395478 0.00720885)
(1.38802 -0.0511768 0.00389177)
(1.37203 -0.0613439 0.0021658)
(1.36872 -0.0733351 0.000982015)
(1.37265 -0.0823092 0.000212182)
(1.38579 -0.0921924 -0.000437191)
(1.40359 -0.0980959 -0.000693702)
(1.42789 -0.102981 -0.000884394)
(1.45431 -0.103233 -0.00104262)
(1.48424 -0.101592 -0.00125713)
(1.51269 -0.094907 -0.00122369)
(1.54055 -0.0857666 -0.00127998)
(2.76822 0.00497418 0.0862001)
(2.53157 0.00320288 0.0991104)
(2.26149 0.00257857 0.0795539)
(2.0047 -0.00265638 0.0648168)
(1.79479 -0.00857054 0.0503499)
(1.6401 -0.0195746 0.0343142)
(1.5294 -0.0279625 0.0218692)
(1.45423 -0.0422138 0.0128968)
(1.40424 -0.0526347 0.00733214)
(1.37532 -0.0673295 0.00396202)
(1.35989 -0.0785015 0.00220066)
(1.35736 -0.0937575 0.00104249)
(1.36253 -0.103816 0.000239637)
(1.37742 -0.116811 -0.000368715)
(1.39723 -0.123724 -0.000641887)
(1.42439 -0.13072 -0.000773648)
(1.45388 -0.131013 -0.00100151)
(1.48758 -0.128879 -0.00120994)
(1.51975 -0.119681 -0.00119155)
(1.55215 -0.107156 -0.00138052)
(2.76711 0.00448277 0.086552)
(2.5277 -0.00411092 0.0988654)
(2.25663 -0.00467893 0.079778)
(1.99836 -0.0132449 0.064938)
(1.78585 -0.0182956 0.0505791)
(1.63045 -0.0323682 0.0340652)
(1.51878 -0.0390046 0.0218951)
(1.44296 -0.0573125 0.0126789)
(1.39294 -0.0663398 0.00729574)
(1.36322 -0.085746 0.00377042)
(1.3487 -0.0962286 0.00203638)
(1.34609 -0.116589 0.000895703)
(1.35319 -0.126523 6.06173e-05)
(1.36918 -0.144433 -0.000376021)
(1.39162 -0.151635 -0.000761972)
(1.4219 -0.162276 -0.000737232)
(1.45535 -0.162188 -0.00115153)
(1.49363 -0.160287 -0.00119871)
(1.53047 -0.148804 -0.00117606)
(1.56877 -0.132781 -0.00149661)
(2.7649 0.00506545 0.0870747)
(2.52471 -0.0109825 0.0981227)
(2.25215 -0.00925345 0.0801437)
(1.99446 -0.0232262 0.0647851)
(1.77755 -0.0248142 0.0509519)
(1.62293 -0.0446815 0.0335065)
(1.50875 -0.0468004 0.0221363)
(1.43227 -0.0726326 0.0122834)
(1.3819 -0.0769323 0.00745473)
(1.35024 -0.104996 0.00341314)
(1.33754 -0.111336 0.0019806)
(1.33315 -0.141109 0.000603431)
(1.34406 -0.147624 -0.000163112)
(1.3591 -0.174706 -0.000344017)
(1.38614 -0.179821 -0.000979529)
(1.41873 -0.197767 -0.000563279)
(1.45795 -0.195638 -0.00145097)
(1.50129 -0.1963 -0.00096039)
(1.54454 -0.182701 -0.00115398)
(1.59052 -0.162867 -0.00159323)
(2.76117 0.00605181 0.0877422)
(2.52331 -0.0173298 0.0967375)
(2.24671 -0.0112963 0.0808857)
(1.99352 -0.0332649 0.0642951)
(1.76842 -0.0280515 0.0515387)
(1.61842 -0.0576049 0.0324849)
(1.49787 -0.0509264 0.0226243)
(1.42342 -0.0894242 0.0113357)
(1.37064 -0.083389 0.00777123)
(1.33756 -0.126371 0.00233541)
(1.32703 -0.122373 0.00205041)
(1.3191 -0.168869 -0.000495557)
(1.33672 -0.165073 -0.000463398)
(1.34685 -0.209652 -0.000915629)
(1.38329 -0.20649 -0.00156852)
(1.41472 -0.239818 -0.000660859)
(1.46412 -0.230356 -0.0024884)
(1.51131 -0.239926 -0.000559266)
(1.56432 -0.222769 -0.00160232)
(1.61968 -0.198939 -0.00181473)
(2.756 0.00661239 0.0884618)
(2.52446 -0.0229131 0.0947467)
(2.23972 -0.010785 0.082052)
(1.99611 -0.042265 0.0635413)
(1.75742 -0.0278189 0.0522995)
(1.61814 -0.0700643 0.0310196)
(1.48458 -0.0505881 0.0233637)
(1.41832 -0.106757 0.00967656)
(1.35769 -0.0841656 0.00835752)
(1.32691 -0.149265 0.0002165)
(1.31636 -0.127026 0.00252399)
(1.30444 -0.199738 -0.00296857)
(1.33114 -0.175389 -0.000419354)
(1.33074 -0.250403 -0.00299823)
(1.38458 -0.227056 -0.00222685)
(1.4061 -0.290636 -0.0018484)
(1.47555 -0.261804 -0.004431)
(1.52011 -0.295191 0.000168146)
(1.59048 -0.267729 -0.00308972)
(1.65495 -0.242871 -0.00180431)
(2.75021 0.00595905 0.0890064)
(2.52824 -0.0270632 0.0930372)
(2.23235 -0.00871107 0.0831405)
(2.00124 -0.0486048 0.0628031)
(1.74489 -0.0253395 0.0531487)
(1.62105 -0.080111 0.0296004)
(1.46836 -0.0466294 0.0242368)
(1.41624 -0.122456 0.00772282)
(1.34171 -0.0792601 0.00912325)
(1.31742 -0.171887 -0.0026108)
(1.3039 -0.124253 0.00342045)
(1.28745 -0.232308 -0.00689474)
(1.32562 -0.176075 0.000223302)
(1.30736 -0.297334 -0.00723957)
(1.38877 -0.236538 -0.00244133)
(1.38509 -0.352886 -0.00533131)
(1.49125 -0.283998 -0.00703684)
(1.51647 -0.369505 0.000993947)
(1.62131 -0.312721 -0.00656518)
(1.68748 -0.301267 -0.000147834)
(2.74562 0.00356364 0.0891894)
(2.53334 -0.0289185 0.0922028)
(2.22721 -0.00636148 0.083807)
(2.0055 -0.0516594 0.0625775)
(1.73358 -0.0222951 0.0539222)
(1.6222 -0.0868384 0.0290166)
(1.4516 -0.0408019 0.0251316)
(1.41103 -0.135302 0.00661353)
(1.32337 -0.069925 0.0099092)
(1.30252 -0.192978 -0.00468787)
(1.28821 -0.114457 0.00443181)
(1.2613 -0.264598 -0.0105474)
(1.31618 -0.167013 0.00149428)
(1.26937 -0.349058 -0.0124076)
(1.39035 -0.231016 -0.00167747)
(1.34095 -0.42887 -0.0107597)
(1.50597 -0.290866 -0.00893059)
(1.48358 -0.471764 0.00214919)
(1.65177 -0.350418 -0.0113872)
(1.69787 -0.38961 0.00625232)
(2.74454 -0.000152533 0.0888284)
(2.53764 -0.0295696 0.0926623)
(2.2273 -0.00412697 0.0840959)
(2.00413 -0.052712 0.0633114)
(1.72686 -0.0196967 0.054572)
(1.61543 -0.0918428 0.0300678)
(1.43694 -0.0349324 0.0260997)
(1.3965 -0.14652 0.00750181)
(1.30161 -0.0586934 0.0109741)
(1.27785 -0.213757 -0.00415651)
(1.26434 -0.0999588 0.00587534)
(1.22327 -0.2976 -0.0114665)
(1.29557 -0.151293 0.00356278)
(1.21576 -0.405331 -0.0153941)
(1.38078 -0.211249 -5.02722e-05)
(1.27439 -0.521613 -0.0149637)
(1.51394 -0.276483 -0.00988185)
(1.41788 -0.612848 0.00463289)
(1.68338 -0.374994 -0.0152245)
(1.67029 -0.534736 0.0215372)
(2.74824 -0.00392878 0.0877928)
(2.54041 -0.030463 0.0945439)
(2.23347 -0.00275101 0.0842828)
(1.99627 -0.0540263 0.0648932)
(1.72359 -0.0189648 0.0552489)
(1.60176 -0.0970957 0.0324274)
(1.42139 -0.0330605 0.0275164)
(1.37732 -0.157072 0.0102851)
(1.26962 -0.052489 0.0131302)
(1.2534 -0.234795 -0.000682949)
(1.21951 -0.0879144 0.00907654)
(1.18966 -0.334312 -0.00799467)
(1.2482 -0.134899 0.0079838)
(1.16932 -0.470132 -0.012948)
(1.34782 -0.183577 0.00387488)
(1.21506 -0.637858 -0.0141219)
(1.51174 -0.237504 -0.0105411)
(1.35179 -0.805374 0.00785404)
(1.7335 -0.374005 -0.0187652)
(1.61084 -0.769733 0.0495229)
(2.75624 -0.00675268 0.0862494)
(2.54254 -0.0301231 0.096634)
(2.24399 -0.00523786 0.0846591)
(1.98558 -0.0557332 0.0667383)
(1.72032 -0.0229318 0.0557174)
(1.58728 -0.101532 0.0347413)
(1.40367 -0.0404594 0.0285677)
(1.36168 -0.165093 0.0135953)
(1.22845 -0.0610501 0.0152405)
(1.23982 -0.252274 0.00421225)
(1.15006 -0.0935227 0.0127127)
(1.17986 -0.370616 -0.000796795)
(1.15614 -0.134464 0.0166019)
(1.16085 -0.544402 -0.00689635)
(1.2621 -0.160109 0.0178731)
(1.20257 -0.785302 -0.00948998)
(1.48074 -0.176647 -0.00309131)
(1.33884 -1.06411 0.00799044)
(1.80117 -0.313566 -0.0262115)
(1.54739 -1.13127 0.0805917)
(2.769 -0.00949925 0.0846462)
(2.54007 -0.024188 0.0973458)
(2.25871 -0.0136286 0.0851302)
(1.9706 -0.0538164 0.0682457)
(1.72313 -0.032777 0.054926)
(1.56936 -0.100837 0.0356101)
(1.39697 -0.0575172 0.0278615)
(1.3426 -0.163779 0.0147879)
(1.20097 -0.0888414 0.015469)
(1.22362 -0.253479 0.00619612)
(1.08876 -0.133089 0.0134175)
(1.17255 -0.381413 0.00316138)
(1.04598 -0.187982 0.0209672)
(1.17309 -0.58558 -0.00136325)
(1.09359 -0.20527 0.0434927)
(1.23576 -0.93272 -0.01163)
(1.3297 -0.118834 0.051883)
(1.39471 -1.41576 0.00258614)
(1.81548 -0.165457 -0.0264688)
(1.53118 -1.67287 0.0841576)
(2.78808 -0.0108019 0.0833148)
(2.52552 -0.0138013 0.0982646)
(2.28321 -0.022168 0.0842548)
(1.93813 -0.0453542 0.0694434)
(1.7506 -0.0462661 0.0518144)
(1.52708 -0.0873423 0.0356011)
(1.42875 -0.0791192 0.0250575)
(1.28915 -0.144983 0.0137469)
(1.23053 -0.127403 0.0130739)
(1.16018 -0.227815 0.00366136)
(1.10641 -0.197593 0.0104986)
(1.10021 -0.349114 0.000117693)
(1.03346 -0.299126 0.0140132)
(1.10544 -0.547664 -0.00160973)
(1.01587 -0.40826 0.0339814)
(1.21264 -0.931209 -0.00644849)
(1.11506 -0.31338 0.115291)
(1.46253 -1.76136 -0.0150259)
(1.62264 0.0668504 0.099663)
(1.62339 -2.53076 0.0274808)
(2.80723 -0.00942653 0.0828086)
(2.50391 -0.00569495 0.0997514)
(2.31191 -0.0232929 0.0826989)
(1.88944 -0.0342866 0.0706487)
(1.80182 -0.0531029 0.0483848)
(1.45163 -0.0651949 0.0365825)
(1.50454 -0.0936413 0.020355)
(1.18147 -0.113288 0.0148012)
(1.33434 -0.157561 0.00652582)
(1.01794 -0.183851 0.00570863)
(1.23702 -0.255543 0.00362125)
(0.919991 -0.293769 0.0046454)
(1.18278 -0.412022 0.00622253)
(0.888897 -0.476726 0.010722)
(1.16912 -0.667091 0.0126759)
(0.976775 -0.806454 0.0232711)
(1.22769 -0.998133 0.0507998)
(1.29732 -1.75302 0.00642425)
(1.31068 -0.214211 0.256529)
(1.76926 -3.65034 -0.0728545)
(2.81713 -0.00370972 0.0825908)
(2.49286 -0.0083581 0.101934)
(2.32637 -0.0153206 0.081626)
(1.85443 -0.0341721 0.0736817)
(1.83539 -0.0410323 0.0470079)
(1.38578 -0.0614816 0.0401682)
(1.56372 -0.0806464 0.0171435)
(1.07543 -0.105038 0.0199408)
(1.43037 -0.14851 0.000967201)
(0.868371 -0.174343 0.0132971)
(1.37332 -0.25998 -0.00452341)
(0.732727 -0.293535 0.0153251)
(1.34428 -0.450959 -0.00195482)
(0.670464 -0.502696 0.0258332)
(1.30863 -0.792752 0.0100769)
(0.677628 -0.864134 0.0424571)
(1.30173 -1.42356 0.016684)
(0.774617 -1.5378 0.0434562)
(1.42436 -1.95935 0.062754)
(1.75189 -4.49349 -0.272509)
(2.80679 0.00620831 0.0822608)
(2.51018 -0.0224865 0.103997)
(2.30254 -0.00336453 0.0813371)
(1.87192 -0.0506803 0.0773325)
(1.79548 -0.0153228 0.0468226)
(1.40512 -0.0894756 0.0452854)
(1.50369 -0.0383134 0.0157925)
(1.09621 -0.146929 0.0269823)
(1.35192 -0.0863122 -0.00288559)
(0.888468 -0.236992 0.0221551)
(1.27378 -0.179035 -0.0125543)
(0.742325 -0.381566 0.0242308)
(1.21266 -0.354524 -0.0184287)
(0.629637 -0.615205 0.0268323)
(1.11903 -0.680546 -0.0196127)
(0.48942 -1.00954 0.0165146)
(0.969517 -1.29846 -0.0163322)
(0.240315 -1.78534 -0.022455)
(0.921577 -2.76206 -0.164881)
(1.30474 -4.12341 -0.553342)
(2.94055 0.0340829 0.122657)
(2.99523 0.0536617 0.147664)
(2.95973 0.0543316 0.129965)
(2.85864 0.0529508 0.116604)
(2.7396 0.0503383 0.097596)
(2.62308 0.0461706 0.0738834)
(2.51496 0.0409101 0.0530054)
(2.41782 0.0354951 0.0377807)
(2.33005 0.0313774 0.0270507)
(2.25458 0.0280174 0.0193373)
(2.18988 0.0242247 0.0146666)
(2.13989 0.0193151 0.0117189)
(2.10046 0.0143857 0.00998742)
(2.07353 0.0103815 0.00853857)
(2.05397 0.00829332 0.00682867)
(2.04442 0.00709023 0.00473882)
(2.04021 0.00582705 0.00340467)
(2.04389 0.00268241 0.00368585)
(2.05137 -0.00130427 0.00515783)
(2.06394 -0.00563952 0.00694118)
(2.9996 0.0427567 0.123398)
(3.11741 0.0688079 0.151782)
(3.17882 0.0711314 0.133535)
(3.18401 0.0697225 0.121478)
(3.15897 0.0666068 0.107459)
(3.12509 0.0614485 0.0880394)
(3.08775 0.0554545 0.0691724)
(3.0536 0.0476569 0.054132)
(3.0193 0.0393476 0.0425984)
(2.99232 0.0316797 0.0331904)
(2.96831 0.0260687 0.0264761)
(2.95502 0.0188622 0.0218442)
(2.94649 0.0105527 0.0188819)
(2.94745 1.17456e-05 0.0166727)
(2.95166 -0.00864086 0.0143449)
(2.96546 -0.0143526 0.0113086)
(2.98354 -0.0145741 0.00837633)
(3.00956 -0.0146178 0.00669678)
(3.03683 -0.0161548 0.00681169)
(3.06799 -0.0204564 0.00788574)
(2.99979 0.0164329 0.123165)
(3.10753 0.0325482 0.151761)
(3.16951 0.0379245 0.132624)
(3.18405 0.0379974 0.11917)
(3.17051 0.0367841 0.105578)
(3.14972 0.0330561 0.0868272)
(3.12618 0.0286955 0.0684122)
(3.10636 0.020879 0.0533939)
(3.0864 0.0118147 0.04182)
(3.07311 0.00230828 0.0326809)
(3.06199 -0.00457973 0.026249)
(3.06041 -0.0146869 0.0212271)
(3.06388 -0.0248221 0.017433)
(3.07557 -0.0378795 0.0141848)
(3.08997 -0.0487126 0.0118181)
(3.11154 -0.0575269 0.00973532)
(3.13735 -0.0594246 0.00790489)
(3.17172 -0.0605288 0.00610292)
(3.2093 -0.0615902 0.00497156)
(3.25096 -0.0651378 0.00397689)
(2.99979 0.0121065 0.123284)
(3.09882 0.0251129 0.152523)
(3.15455 0.0301493 0.133338)
(3.16647 0.0292464 0.119271)
(3.15134 0.0272334 0.105549)
(3.13033 0.0208154 0.0865923)
(3.10728 0.0152944 0.0679843)
(3.08871 0.00555554 0.0528978)
(3.07035 -0.00478146 0.0411691)
(3.05924 -0.0170998 0.03201)
(3.0503 -0.0266531 0.0255568)
(3.05141 -0.0409196 0.0202833)
(3.05742 -0.0527185 0.0163659)
(3.07173 -0.0677871 0.0130381)
(3.08936 -0.0802143 0.0105733)
(3.11501 -0.0927117 0.00841271)
(3.14541 -0.098283 0.00663043)
(3.18388 -0.103106 0.00465424)
(3.22574 -0.104714 0.0031957)
(3.27108 -0.106857 0.00180321)
(2.99978 0.00756298 0.123512)
(3.09285 0.01235 0.15289)
(3.14474 0.0142218 0.133749)
(3.15428 0.0111833 0.119402)
(3.13702 0.00872844 0.10553)
(3.11533 -0.000552744 0.0861342)
(3.09092 -0.00612762 0.0674785)
(3.07196 -0.0182593 0.0520121)
(3.05357 -0.0295044 0.0400651)
(3.04311 -0.0445643 0.0309777)
(3.03399 -0.0556884 0.0245062)
(3.03578 -0.0739873 0.0192313)
(3.04192 -0.0870056 0.0154379)
(3.05756 -0.10505 0.0120894)
(3.07705 -0.119455 0.00951095)
(3.10608 -0.135598 0.00728003)
(3.1395 -0.143382 0.0055771)
(3.1806 -0.150773 0.0037405)
(3.22444 -0.152321 0.00246375)
(3.27286 -0.153793 0.000949237)
(2.99953 0.00644983 0.124001)
(3.08848 0.00388305 0.152822)
(3.13896 0.00479182 0.134048)
(3.14637 -0.000785516 0.11985)
(3.12656 -0.00270947 0.106074)
(3.10343 -0.0159506 0.0863552)
(3.0768 -0.0202068 0.0679584)
(3.05615 -0.0365503 0.0523879)
(3.03653 -0.0478442 0.0403313)
(3.02503 -0.0669125 0.0313647)
(3.01484 -0.0792761 0.0246441)
(3.01654 -0.103216 0.0193561)
(3.02247 -0.117216 0.0155251)
(3.03899 -0.139765 0.0122296)
(3.05949 -0.156448 0.00960501)
(3.0915 -0.17725 0.00740071)
(3.1282 -0.187335 0.00561393)
(3.17267 -0.197882 0.00385144)
(3.21952 -0.200184 0.00267582)
(3.27277 -0.201967 0.000823343)
(2.99843 0.00794413 0.124981)
(3.08434 -0.00518113 0.15201)
(3.13441 -0.00252718 0.134416)
(3.14004 -0.0143006 0.120126)
(3.11802 -0.0139022 0.106603)
(3.09349 -0.0342627 0.0861102)
(3.06539 -0.0342155 0.0680754)
(3.04251 -0.058299 0.0522006)
(3.0226 -0.0667335 0.0401376)
(3.00867 -0.092572 0.031407)
(2.99834 -0.103671 0.0242147)
(2.99878 -0.135602 0.0191716)
(3.00541 -0.148662 0.0150984)
(3.02199 -0.178004 0.0122189)
(3.04357 -0.196471 0.00935083)
(3.07872 -0.223921 0.00724897)
(3.11933 -0.235753 0.00521611)
(3.16751 -0.249498 0.00382964)
(3.21769 -0.253321 0.00292748)
(3.27802 -0.256023 0.000593168)
(2.99527 0.012482 0.126652)
(3.08149 -0.0162497 0.149911)
(3.12981 -0.00513042 0.135161)
(3.13596 -0.0288261 0.119569)
(3.11064 -0.0198859 0.107365)
(3.08538 -0.0532415 0.0851136)
(3.05624 -0.0421666 0.0683477)
(3.02934 -0.0810947 0.0516185)
(3.01127 -0.0798537 0.0399781)
(2.99143 -0.119132 0.0314244)
(2.98359 -0.122981 0.0236421)
(2.9793 -0.169352 0.0191022)
(2.98989 -0.176465 0.0142107)
(3.00333 -0.217844 0.0125274)
(3.02775 -0.235459 0.0087229)
(3.06523 -0.27377 0.00725907)
(3.11103 -0.285366 0.00461142)
(3.16258 -0.30361 0.00425606)
(3.21721 -0.311324 0.00343411)
(3.28772 -0.315915 0.000299815)
(2.98856 0.0201943 0.129083)
(3.0821 -0.0308133 0.146138)
(3.12305 -0.00180396 0.136926)
(3.13568 -0.046918 0.117714)
(3.10234 -0.0192087 0.1087)
(3.08032 -0.0761125 0.0827781)
(3.04821 -0.0424288 0.069104)
(3.01672 -0.108765 0.0498354)
(3.00316 -0.0852621 0.0399187)
(2.97278 -0.150577 0.0304111)
(2.9728 -0.13488 0.0227106)
(2.95718 -0.208941 0.0182532)
(2.97938 -0.198052 0.012298)
(2.98118 -0.263235 0.012809)
(3.01585 -0.271714 0.00656797)
(3.05099 -0.330783 0.00723189)
(3.10619 -0.335556 0.0027393)
(3.15929 -0.363006 0.00496874)
(3.22083 -0.377714 0.00329894)
(3.30462 -0.384602 -0.000473318)
(2.97752 0.0305075 0.132033)
(3.08844 -0.0491909 0.140824)
(3.11243 0.0078898 0.139896)
(3.1415 -0.0689379 0.114434)
(3.09083 -0.0102365 0.110797)
(3.08085 -0.104014 0.0787259)
(3.03938 -0.032163 0.0707607)
(3.00606 -0.143345 0.0460579)
(2.99832 -0.0792975 0.0405306)
(2.95194 -0.189543 0.027471)
(2.96794 -0.134718 0.0220409)
(2.92942 -0.258383 0.0157402)
(2.977 -0.207198 0.00993789)
(2.94909 -0.319306 0.0126817)
(3.01215 -0.299657 0.00232223)
(3.02874 -0.399405 0.00774773)
(3.10497 -0.381564 -0.00100267)
(3.15224 -0.431921 0.00722449)
(3.22733 -0.45312 0.00178754)
(3.32338 -0.46359 -0.000524524)
(2.96356 0.0419569 0.134752)
(3.09991 -0.069853 0.135601)
(3.0994 0.0221602 0.14321)
(3.15271 -0.0931053 0.110519)
(3.07641 0.00631656 0.113602)
(3.08598 -0.136164 0.07403)
(3.02897 -0.0104663 0.0734532)
(2.99545 -0.185478 0.0407982)
(2.99658 -0.0594381 0.0422789)
(2.9237 -0.238172 0.0228819)
(2.97056 -0.119011 0.0223343)
(2.8874 -0.321612 0.0113281)
(2.98385 -0.197751 0.00845065)
(2.89456 -0.394046 0.011468)
(3.01927 -0.31197 -0.00339338)
(2.97998 -0.487023 0.00974168)
(3.10454 -0.417486 -0.00672978)
(3.12345 -0.522244 0.0133546)
(3.22977 -0.534147 -0.00236146)
(3.32644 -0.55665 0.00359407)
(2.95178 0.0527185 0.136309)
(3.11055 -0.0904075 0.132099)
(3.09033 0.0384475 0.145962)
(3.16144 -0.117027 0.107879)
(3.06511 0.0279734 0.116564)
(3.08696 -0.170737 0.0711677)
(3.02019 0.0214119 0.0769468)
(2.97651 -0.234634 0.0366955)
(2.99812 -0.0250831 0.0451678)
(2.8775 -0.297429 0.0190633)
(2.98082 -0.0866864 0.0237284)
(2.81711 -0.399328 0.00736076)
(2.99728 -0.166552 0.00911797)
(2.80071 -0.49425 0.0100908)
(3.03424 -0.300036 -0.00840484)
(2.87833 -0.601561 0.0149621)
(3.10096 -0.438249 -0.0139333)
(3.04386 -0.648974 0.025748)
(3.21681 -0.610477 -0.00932153)
(3.28643 -0.672403 0.0189123)
(2.94999 0.0622934 0.13567)
(3.11193 -0.110368 0.131937)
(3.09329 0.0547668 0.147747)
(3.15763 -0.139109 0.108479)
(3.0631 0.0513786 0.119273)
(3.0764 -0.205104 0.0727279)
(3.01213 0.0592584 0.0813338)
(2.94959 -0.287506 0.0366388)
(2.99294 0.0218991 0.050146)
(2.81895 -0.365992 0.0183227)
(2.98714 -0.0389582 0.0273597)
(2.72353 -0.488419 0.00632831)
(3.00886 -0.11621 0.0122325)
(2.67275 -0.618894 0.00997228)
(3.05031 -0.258847 -0.0108854)
(2.72251 -0.749714 0.023525)
(3.10217 -0.437956 -0.0229123)
(2.90153 -0.821882 0.0451797)
(3.19561 -0.67134 -0.0159701)
(3.19723 -0.828234 0.0506342)
(2.96259 0.0705611 0.132444)
(3.10406 -0.12808 0.135111)
(3.10696 0.067829 0.149294)
(3.146 -0.156302 0.112096)
(3.06271 0.0698146 0.122352)
(3.06573 -0.232092 0.0777086)
(2.9896 0.0919259 0.087803)
(2.93865 -0.33416 0.0398812)
(2.95397 0.0727783 0.0594921)
(2.78853 -0.436834 0.0193224)
(2.95494 0.0204901 0.0369767)
(2.65728 -0.583357 0.00639821)
(2.99177 -0.0515227 0.0204501)
(2.56636 -0.757689 0.00820764)
(3.05736 -0.19125 -0.00890521)
(2.56757 -0.9317 0.0288297)
(3.13037 -0.407483 -0.0358443)
(2.7284 -1.03921 0.0670335)
(3.21244 -0.710645 -0.0265811)
(3.09302 -1.03524 0.0973525)
(2.98866 0.0745058 0.127557)
(3.09567 -0.135625 0.138507)
(3.12096 0.071781 0.151054)
(3.1402 -0.162276 0.116284)
(3.05171 0.0753596 0.125748)
(3.0655 -0.242628 0.082491)
(2.9463 0.105891 0.0949953)
(2.95471 -0.360278 0.0430634)
(2.86732 0.109114 0.0723794)
(2.81453 -0.491839 0.0185234)
(2.84552 0.0796065 0.0554162)
(2.67195 -0.669318 0.000219102)
(2.89117 0.0238676 0.0426423)
(2.5507 -0.897197 -0.00606835)
(3.00938 -0.0976278 0.00964923)
(2.48961 -1.14049 0.0137827)
(3.17399 -0.338619 -0.046739)
(2.57483 -1.30212 0.0764393)
(3.31054 -0.724823 -0.0563741)
(2.98083 -1.27269 0.151475)
(3.03341 0.065782 0.122473)
(3.07577 -0.118842 0.139832)
(3.14501 0.0599514 0.15113)
(3.12355 -0.151325 0.118379)
(3.05004 0.0644462 0.126639)
(3.04919 -0.230638 0.083281)
(2.9172 0.088697 0.0985728)
(2.95683 -0.346051 0.0417653)
(2.77367 0.0992849 0.0833637)
(2.85231 -0.492742 0.0129703)
(2.66921 0.0947504 0.0787113)
(2.73796 -0.697804 -0.0133348)
(2.65046 0.076641 0.0844187)
(2.62699 -0.990564 -0.0366154)
(2.76878 0.0146355 0.0778016)
(2.5264 -1.35917 -0.0399934)
(3.08164 -0.210185 0.00110884)
(2.49362 -1.65543 0.0421009)
(3.44404 -0.719069 -0.102632)
(2.79909 -1.52689 0.206803)
(3.11168 0.0474462 0.117283)
(3.00593 -0.0803874 0.143886)
(3.22601 0.0345862 0.14448)
(3.03503 -0.12042 0.122411)
(3.13053 0.0347676 0.119425)
(2.94916 -0.191118 0.082322)
(2.99225 0.0405168 0.0925749)
(2.85722 -0.28304 0.0396001)
(2.80952 0.0290506 0.0804213)
(2.77579 -0.41372 0.00801859)
(2.61331 0.0159898 0.083987)
(2.70294 -0.614738 -0.0212581)
(2.43566 0.0160184 0.108838)
(2.65951 -0.942836 -0.0583809)
(2.34322 0.0587652 0.162446)
(2.63624 -1.47207 -0.103826)
(2.58788 0.0563175 0.200635)
(2.58963 -2.10162 -0.0513237)
(3.38958 -0.629704 -0.0156799)
(2.60551 -1.99159 0.211024)
(3.20446 0.0308875 0.113331)
(2.88938 -0.0434044 0.151838)
(3.3667 0.0127834 0.134836)
(2.86041 -0.0803759 0.130329)
(3.323 -0.000736289 0.106263)
(2.72892 -0.132713 0.0894313)
(3.23096 -0.019309 0.0726183)
(2.59454 -0.193766 0.0501384)
(3.09784 -0.0674415 0.0520666)
(2.47148 -0.286543 0.0240919)
(2.93923 -0.134209 0.0475155)
(2.37826 -0.43742 0.00685755)
(2.74252 -0.223964 0.064808)
(2.37625 -0.7065 -0.010785)
(2.4837 -0.284844 0.132249)
(2.53413 -1.27419 -0.0560409)
(2.27075 -0.0986157 0.322783)
(2.81484 -2.4411 -0.12738)
(2.75066 0.0554925 0.489517)
(2.72754 -3.03538 0.0643375)
(3.24553 0.0363845 0.108557)
(2.82198 -0.0423619 0.164308)
(3.46686 0.0207781 0.126873)
(2.72799 -0.0746988 0.14632)
(3.49666 0.00208656 0.0938792)
(2.52217 -0.113092 0.111535)
(3.49463 -0.0315567 0.0477957)
(2.29876 -0.153133 0.0821782)
(3.478 -0.0993261 0.0107683)
(2.08087 -0.220008 0.0708033)
(3.45293 -0.206365 -0.0175201)
(1.91321 -0.325058 0.0765859)
(3.39968 -0.401837 -0.0332028)
(1.87013 -0.493665 0.0941985)
(3.28054 -0.734715 -0.0108976)
(2.02951 -0.862158 0.105972)
(3.03052 -1.12896 0.127725)
(2.49924 -1.98136 0.0113441)
(2.58353 -0.717948 0.665011)
(3.16124 -4.48703 -0.39402)
(3.1554 0.0562386 0.106521)
(2.93142 -0.0730974 0.17352)
(3.36832 0.0543269 0.12385)
(2.84737 -0.115754 0.159504)
(3.39035 0.0548478 0.0899985)
(2.65086 -0.167757 0.12851)
(3.39097 0.0402205 0.0399643)
(2.42553 -0.223336 0.104106)
(3.40286 -0.00389028 -0.00549287)
(2.19971 -0.310031 0.0979075)
(3.42887 -0.0905149 -0.050335)
(2.0153 -0.442874 0.107419)
(3.45522 -0.267911 -0.0972187)
(1.88796 -0.646598 0.131052)
(3.45385 -0.61425 -0.138584)
(1.75317 -0.964035 0.165644)
(3.34412 -1.30358 -0.154964)
(1.5391 -1.56858 0.17788)
(2.7902 -2.41327 -0.0624344)
(2.81638 -4.5659 -1.04496)
(2.94253 0.0337747 0.0636835)
(3.02018 0.0529641 0.0930645)
(3.05943 0.0543608 0.0864654)
(3.05612 0.0533038 0.0841271)
(3.0311 0.0519124 0.0771562)
(2.99618 0.0497183 0.0635957)
(2.95309 0.0467642 0.0495797)
(2.9055 0.0423282 0.0390996)
(2.85362 0.0375732 0.0319516)
(2.80433 0.0339089 0.0260144)
(2.75555 0.0316259 0.0210979)
(2.71308 0.028547 0.0170435)
(2.67444 0.0237843 0.0146885)
(2.6464 0.0178033 0.0135579)
(2.62422 0.0134946 0.0122568)
(2.61131 0.0118104 0.00945512)
(2.60049 0.0126046 0.00591819)
(2.59455 0.0123619 0.0036557)
(2.5906 0.0102512 0.0035905)
(2.59294 0.0058997 0.00503931)
(3.00119 0.0423921 0.063575)
(3.14342 0.0679179 0.0943474)
(3.27706 0.0712789 0.0901025)
(3.3787 0.07039 0.0868872)
(3.45175 0.0689715 0.0829982)
(3.50998 0.0655497 0.0734884)
(3.55339 0.0622324 0.0619226)
(3.59015 0.0574256 0.0518035)
(3.61463 0.0512583 0.0445211)
(3.63778 0.0431016 0.0385972)
(3.6545 0.0374828 0.0337119)
(3.67477 0.0317394 0.0291353)
(3.6929 0.0269129 0.0255812)
(3.71625 0.0190229 0.023492)
(3.73767 0.010339 0.0223234)
(3.76502 0.000659902 0.020294)
(3.79343 -0.00429374 0.0167925)
(3.8281 -0.0052267 0.0129329)
(3.86204 -0.00402713 0.0106428)
(3.89986 -0.00362239 0.00973736)
(3.00128 0.0163146 0.0631944)
(3.13394 0.0324233 0.0941568)
(3.26789 0.0387312 0.0897102)
(3.37747 0.0389765 0.0849349)
(3.46108 0.038933 0.0810445)
(3.53103 0.0359996 0.0719555)
(3.58779 0.0338653 0.0608367)
(3.63905 0.0289294 0.050778)
(3.67966 0.0229031 0.0429309)
(3.71839 0.0130608 0.0368246)
(3.75159 0.0069579 0.0326892)
(3.78602 -0.00155657 0.0290153)
(3.82004 -0.00838293 0.0254892)
(3.85818 -0.0186616 0.0220375)
(3.89554 -0.0281339 0.0194951)
(3.93518 -0.0400169 0.0175691)
(3.97534 -0.0471028 0.0157942)
(4.02063 -0.0505974 0.0135518)
(4.06776 -0.0501705 0.0116502)
(4.11787 -0.050895 0.00962826)
(3.00127 0.0121314 0.0631137)
(3.12559 0.0251774 0.0945579)
(3.25366 0.0311762 0.0900616)
(3.36115 0.0301134 0.0847931)
(3.44367 0.0297486 0.0807776)
(3.51313 0.0238703 0.0715084)
(3.57001 0.020382 0.0602296)
(3.62185 0.0129383 0.0500774)
(3.6635 0.00599665 0.0419839)
(3.70381 -0.00654643 0.0356918)
(3.73902 -0.0141372 0.0315787)
(3.77505 -0.0269389 0.0277113)
(3.81165 -0.0365222 0.0241698)
(3.85225 -0.0494967 0.0206817)
(3.89266 -0.059504 0.0180797)
(3.93516 -0.0737423 0.0157512)
(3.97967 -0.0836059 0.0137537)
(4.02902 -0.0915121 0.0115147)
(4.08038 -0.0931992 0.00969494)
(4.13366 -0.0963778 0.00768026)
(3.00129 0.00776466 0.0632111)
(3.11988 0.0123088 0.094769)
(3.24418 0.0152386 0.0903294)
(3.34994 0.0113567 0.0848991)
(3.43053 0.0111075 0.0807692)
(3.49924 0.00160674 0.0711397)
(3.55508 -0.00210343 0.0598096)
(3.60601 -0.0122499 0.049347)
(3.64645 -0.020006 0.0409791)
(3.68712 -0.0359067 0.0347394)
(3.72212 -0.044015 0.0305923)
(3.758 -0.0609037 0.026678)
(3.79446 -0.0725251 0.0231835)
(3.83567 -0.0888608 0.0196546)
(3.87662 -0.0998268 0.0169538)
(3.92051 -0.117476 0.014456)
(3.96818 -0.129948 0.0124508)
(4.02136 -0.140814 0.0103888)
(4.0747 -0.142686 0.00887319)
(4.12952 -0.147995 0.00677127)
(3.00132 0.00709418 0.0636086)
(3.11546 0.00357297 0.0945999)
(3.23849 0.00596883 0.0905231)
(3.34295 -0.00140835 0.0853514)
(3.42115 6.33728e-05 0.081193)
(3.48867 -0.0146817 0.0713529)
(3.54326 -0.0168311 0.0601658)
(3.59262 -0.0310289 0.0497477)
(3.63106 -0.0388487 0.0412035)
(3.67131 -0.0594044 0.0352105)
(3.70519 -0.0672637 0.0308251)
(3.73998 -0.0898054 0.026853)
(3.77586 -0.103596 0.0232567)
(3.81788 -0.124252 0.0197732)
(3.85872 -0.135899 0.0171483)
(3.90303 -0.158403 0.0146248)
(3.95377 -0.174695 0.0124423)
(4.01161 -0.188624 0.0104156)
(4.0666 -0.190273 0.00918848)
(4.12337 -0.199279 0.006727)
(3.00101 0.00972443 0.0645219)
(3.11056 -0.00629829 0.093701)
(3.23419 -0.000912976 0.0907624)
(3.3372 -0.0162665 0.0856969)
(3.41341 -0.0102087 0.0815827)
(3.47944 -0.0346074 0.0712042)
(3.53378 -0.0313929 0.0601424)
(3.58077 -0.0530906 0.0497265)
(3.6179 -0.0584348 0.0408817)
(3.65708 -0.0864858 0.0355265)
(3.69036 -0.0914005 0.0304707)
(3.72294 -0.121698 0.0267915)
(3.75874 -0.136583 0.0228072)
(3.80204 -0.162834 0.0197875)
(3.84245 -0.173785 0.0171305)
(3.88629 -0.203602 0.0145441)
(3.94114 -0.225491 0.0119417)
(4.00532 -0.241315 0.0102121)
(4.06095 -0.241119 0.00974712)
(4.12 -0.255594 0.00674192)
(2.99962 0.0169404 0.0662078)
(3.10541 -0.0195887 0.0915097)
(3.23081 -0.00238068 0.0913151)
(3.33244 -0.033451 0.0851338)
(3.40724 -0.0144933 0.0821685)
(3.47069 -0.0565474 0.0703161)
(3.52698 -0.0394977 0.0600258)
(3.56881 -0.0760434 0.0494301)
(3.60681 -0.072346 0.0402094)
(3.64261 -0.114557 0.0360556)
(3.67728 -0.109954 0.0296898)
(3.70429 -0.153738 0.0270335)
(3.74221 -0.166845 0.0216615)
(3.78622 -0.202023 0.0202147)
(3.82618 -0.208625 0.016818)