x,y,z,U_0,U_1,U_2
0,0,0,0.3,-0.0008288,0
0,0.1,0,0.3,-0.00049728,0
0,0.2,0,0.3,-0.00016576,0
0,0.3,0,0.3,0,0
0,0.4,0,0.3,0,0
0,0.5,0,0.3,0,0
0,0.6,0,0.3,0,0
0,0.7,0,0.3,0,0
0,0.8,0,0.3,0,0
0,0.9,0,0.3,0,0
0,1,0,0.3,0,0
0,1.1,0,0.3,0,0
0,1.2,0,0.3,0,0
0,1.3,0,0.3,0,0
0,1.4,0,0.3,0,0
0,1.5,0,0.3,0,0
0,1.6,0,0.3,0,0
0,1.7,0,0.3,0,0
0,1.8,0,0.3,0,0
0,1.9,0,0.3,0,0
0,2,0,0.3,0,0
0,2.1,0,0.3,0,0
0,2.2,0,0.3,0,0
0,2.3,0,0.3,0,0
0,2.4,0,0.3,0,0
0,2.5,0,0.3,0,0
0,2.6,0,0.3,0,0
0,2.7,0,0.3,0,0
0,2.8,0,0.3,0,0
0,2.9,0,0.3,0,0
0,3,0,0.3,0,0
0,3.1,0,0.3,0,0
0,3.2,0,0.3,0,0
0,3.3,0,0.3,0,0
0,3.4,0,0.3,0,0
0,3.5,0,0.3,5.64156e-19,0
0,3.6,0,0.3,0,0
0,3.7,0,0.3,0,0
0,3.8,0,0.3,0,0
0,3.9,0,0.3,0,0
0,4,0,0.3,4.8643e-19,0
0,4.1,0,0.3,0,0
0,4.2,0,0.3,0,0
0,4.3,0,0.3,0,0
0,4.4,0,0.3,0,0
0,4.5,0,0.3,0,0
0,4.6,0,0.3,0,0
0,4.7,0,0.3,0,0
0,4.8,0,0.3,0,0
0,4.9,0,0.3,0,0
0,5,0,0.3,0,0
0,5.1,0,0.3,0,0
0,5.2,0,0.3,0,0
0,5.3,0,0.3,0,0
0,5.4,0,0.3,0,0
0,5.5,0,0.3,0,0
0,5.6,0,0.3,1.36495e-19,0
0,5.7,0,0.3,0,0
0,5.8,0,0.3,0,0
0,5.9,0,0.3,0,0
0,6,0,0.3,0,0
0,6.1,0,0.3,0,0
0,6.2,0,0.3,-1.65951e-20,0
0,6.3,0,0.3,0,0
0,6.4,0,0.3,-6.72876e-20,0
0,6.5,0,0.3,0,0
0,6.6,0,0.3,-1.17148e-19,0
0,6.7,0,0.3,0,0
0,6.8,0,0.3,0,0
0,6.9,0,0.3,0,0
0,7,0,0.3,0,0
0,7.1,0,0.3,0,0
0,7.2,0,0.3,0,0
0,7.3,0,0.3,0,0
0,7.4,0,0.3,0,0
0,7.5,0,0.3,0,0
0,7.6,0,0.3,0,0
0,7.7,0,0.3,0,0
0,7.8,0,0.3,0,0
0,7.9,0,0.3,0,0
0,8,0,0.3,0,0
0,8.1,0,0.3,0,0
0,8.2,0,0.3,0,0
0,8.3,0,0.3,0,0
0,8.4,0,0.3,0,0
0,8.5,0,0.3,0,0
0,8.6,0,0.3,0,0
0,8.7,0,0.3,0,0
0,8.8,0,0.3,0,0
0,8.9,0,0.3,0,0
0,9,0,0.3,0,0
0,9.1,0,0.3,0,0
0,9.2,0,0.3,0,0
0,9.3,0,0.3,0,0
0,9.4,0,0.3,0,0
0,9.5,0,0.3,0,0
0,9.6,0,0.3,0,0
0,9.7,0,0.3,0,0
0,9.8,0,0.3,0,0
0,9.9,0,0.3,0,0
0,10,0,0.3,0,0
0,10.1,0,0.3,0,0
0,10.2,0,0.3,0,0
0,10.3,0,0.3,0,0
0,10.4,0,0.3,0,0
0,10.5,0,0.3,0,0
0,10.6,0,0.3,0,0
0,10.7,0,0.3,0,0
0,10.8,0,0.3,0,0
0,10.9,0,0.3,0,0
0,11,0,0.3,0,0
0,11.1,0,0.3,0,0
0,11.2,0,0.3,0,0
0,11.3,0,0.3,0,0
0,11.4,0,0.3,0,0
0,11.5,0,0.3,0,0
0,11.6,0,0.3,0,0
0,11.7,0,0.3,0,0
0,11.8,0,0.3,0,0
0,11.9,0,0.3,0,0
0,12,0,0.3,0,0
0,12.1,0,0.3,0,0
0,12.2,0,0.3,0,0
0,12.3,0,0.3,0,0
0,12.4,0,0.3,0,0
0,12.5,0,0.3,0.000220348,0
0,12.6,0,0.3,0.000479582,0
0,12.7,0,0.3,0.000738815,0
0.1,0,0,0.299999,-0.00155338,0
0.1,0.1,0,0.3,-0.00122087,0
0.1,0.2,0,0.3,-0.000960463,0
0.1,0.3,0,0.299999,-0.000959363,0
0.1,0.4,0,0.299999,-0.000958817,0
0.1,0.5,0,0.299998,-0.000958379,0
0.1,0.6,0,0.299999,-0.000955611,0
0.1,0.7,0,0.299999,-0.000955289,0
0.1,0.8,0,0.299999,-0.000951813,0
0.1,0.9,0,0.299999,-0.000950646,0
0.1,1,0,0.299995,-0.00094896,0
0.1,1.1,0,0.299999,-0.000943749,0
0.1,1.2,0,0.299997,-0.000943052,0
0.1,1.3,0,0.299997,-0.000936688,0
0.1,1.4,0,0.299999,-0.000934657,0
0.1,1.5,0,0.299992,-0.00093165,0
0.1,1.6,0,0.299998,-0.00092308,0
0.1,1.7,0,0.299996,-0.000921941,0
0.1,1.8,0,0.299996,-0.000911869,0
0.1,1.9,0,0.299998,-0.000908691,0
0.1,2,0,0.299987,-0.000903939,0
0.1,2.1,0,0.299998,-0.000891131,0
0.1,2.2,0,0.299994,-0.000889351,0
0.1,2.3,0,0.299994,-0.000874591,0
0.1,2.4,0,0.299998,-0.000870046,0
0.1,2.5,0,0.299982,-0.00086262,0
0.1,2.6,0,0.299998,-0.000845051,0
0.1,2.7,0,0.299992,-0.000842268,0
0.1,2.8,0,0.299993,-0.000821761,0
0.1,2.9,0,0.299999,-0.000815754,0
0.1,3,0,0.299975,-0.000804261,0
0.1,3.1,0,0.3,-0.000781749,0
0.1,3.2,0,0.299991,-0.000777544,0
0.1,3.3,0,0.299992,-0.000750184,0
0.1,3.4,0,0.300001,-0.000742663,0
0.1,3.5,0,0.299966,-0.000725924,0
0.1,3.6,0,0.300002,-0.000698194,0
0.1,3.7,0,0.29999,-0.000692337,0
0.1,3.8,0,0.29999,-0.000657333,0
0.1,3.9,0,0.300002,-0.000648189,0
0.1,4,0,0.299958,-0.00062591,0
0.1,4.1,0,0.300002,-0.000592697,0
0.1,4.2,0,0.299987,-0.0005852,0
0.1,4.3,0,0.299986,-0.000542678,0
0.1,4.4,0,0.300001,-0.000531951,0
0.1,4.5,0,0.29995,-0.00050427,0
0.1,4.6,0,0.299999,-0.000466406,0
0.1,4.7,0,0.299983,-0.000457289,0
0.1,4.8,0,0.299982,-0.000408467,0
0.1,4.9,0,0.299997,-0.000396662,0
0.1,5,0,0.299944,-0.000367127,0
0.1,5.1,0,0.299995,-0.000330525,0
0.1,5.2,0,0.299942,-0.000302843,0
0.1,5.3,0,0.299994,-0.000269135,0
0.1,5.4,0,0.299941,-0.000239993,0
0.1,5.5,0,0.299994,-0.000206102,0
0.1,5.6,0,0.29994,-0.000175634,0
0.1,5.7,0,0.299993,-0.000141943,0
0.1,5.8,0,0.299939,-0.000110284,0
0.1,5.9,0,0.299993,-7.70886e-05,0
0.1,6,0,0.299939,-4.44463e-05,0
0.1,6.1,0,0.299993,-1.20032e-05,0
0.1,6.2,0,0.299939,2.13536e-05,0
0.1,6.3,0,0.299993,5.2801e-05,0
0.1,6.4,0,0.29994,8.65818e-05,0
0.1,6.5,0,0.299994,0.000116845,0
0.1,6.6,0,0.299941,0.000150739,0
0.1,6.7,0,0.299995,0.000179742,0
0.1,6.8,0,0.299943,0.000213303,0
0.1,6.9,0,0.299996,0.000240929,0
0.1,7,0,0.299945,0.000279486,0
0.1,7.1,0,0.299997,0.000311439,0
0.1,7.2,0,0.299997,0.000311439,0
0.1,7.3,0,0.299957,0.000361258,0
0.1,7.4,0,0.299999,0.000389372,0
0.1,7.5,0,0.299993,0.00039517,0
0.1,7.6,0,0.29997,0.000442065,0
0.1,7.7,0,0.300001,0.000461572,0
0.1,7.8,0,0.299986,0.000474019,0
0.1,7.9,0,0.299981,0.000514959,0
0.1,8,0,0.300002,0.000527131,0
0.1,8.1,0,0.299981,0.000544911,0
0.1,8.2,0,0.299991,0.000579355,0
0.1,8.3,0,0.300002,0.000585526,0
0.1,8.4,0,0.299977,0.000607294,0
0.1,8.5,0,0.299998,0.000635074,0
0.1,8.6,0,0.300001,0.000636629,0
0.1,8.7,0,0.299974,0.000661103,0
0.1,8.8,0,0.299999,0.000680634,0
0.1,8.9,0,0.299999,0.000680634,0
0.1,9,0,0.299977,0.000705869,0
0.1,9.1,0,0.299999,0.000717954,0
0.1,9.2,0,0.299999,0.000718323,0
0.1,9.3,0,0.299984,0.000741482,0
0.1,9.4,0,0.299998,0.000749131,0
0.1,9.5,0,0.299995,0.000752701,0
0.1,9.6,0,0.29999,0.000770229,0
0.1,9.7,0,0.299998,0.000774743,0
0.1,9.8,0,0.299994,0.000780335,0
0.1,9.9,0,0.299994,0.000793008,0
0.1,10,0,0.299998,0.000795383,0
0.1,10.1,0,0.299994,0.000801952,0
0.1,10.2,0,0.299997,0.000810703,0
0.1,10.3,0,0.299998,0.000811663,0
0.1,10.4,0,0.299994,0.000818365,0
0.1,10.5,0,0.299999,0.000824125,0
0.1,10.6,0,0.299999,0.000824189,0
0.1,10.7,0,0.299995,0.000830427,0
0.1,10.8,0,0.299999,0.000833571,0
0.1,10.9,0,0.299999,0.000833571,0
0.1,11,0,0.299996,0.000838639,0
0.1,11.1,0,0.299999,0.000840394,0
0.1,11.2,0,0.299999,0.000840662,0
0.1,11.3,0,0.299998,0.00084422,0
0.1,11.4,0,0.299999,0.000845194,0
0.1,11.5,0,0.299999,0.000845804,0
0.1,11.6,0,0.299999,0.000847972,0
0.1,11.7,0,0.3,0.000848451,0
0.1,11.8,0,0.299999,0.000849131,0
0.1,11.9,0,0.3,0.000850357,0
0.1,12,0,0.3,0.000850543,0
0.1,12.1,0,0.3,0.000851146,0
0.1,12.2,0,0.3,0.000851738,0
0.1,12.3,0,0.3,0.000851777,0
0.1,12.4,0,0.3,0.000852223,0
0.1,12.5,0,0.3,0.000861601,0
0.1,12.6,0,0.3,0.00112083,0
0.1,12.7,0,0.3,0.00138031,0
0.2,0,0,0.299999,-0.00227797,0
0.2,0.1,0,0.3,-0.00194505,0
0.2,0.2,0,0.299999,-0.0019211,0
0.2,0.3,0,0.299998,-0.00192,0
0.2,0.4,0,0.299998,-0.00191737,0
0.2,0.5,0,0.299995,-0.00191676,0
0.2,0.6,0,0.299998,-0.00191288,0
0.2,0.7,0,0.299995,-0.00190983,0
0.2,0.8,0,0.299995,-0.00190635,0
0.2,0.9,0,0.299996,-0.00190028,0
0.2,1,0,0.29999,-0.00189792,0
0.2,1.1,0,0.299996,-0.00189062,0
0.2,1.2,0,0.299991,-0.00188448,0
0.2,1.3,0,0.299991,-0.00187812,0
0.2,1.4,0,0.299994,-0.00186751,0
0.2,1.5,0,0.299984,-0.0018633,0
0.2,1.6,0,0.299993,-0.0018513,0
0.2,1.7,0,0.299986,-0.00184122,0
0.2,1.8,0,0.299986,-0.00183115,0
0.2,1.9,0,0.29999,-0.00181453,0
0.2,2,0,0.299975,-0.00180788,0
0.2,2.1,0,0.299989,-0.00178995,0
0.2,2.2,0,0.299979,-0.00177455,0
0.2,2.3,0,0.299979,-0.00175979,0
0.2,2.4,0,0.299986,-0.00173564,0
0.2,2.5,0,0.299963,-0.00172524,0
0.2,2.6,0,0.299987,-0.00170064,0
0.2,2.7,0,0.299971,-0.00167804,0
0.2,2.8,0,0.299971,-0.00165754,0
0.2,2.9,0,0.299983,-0.00162461,0
0.2,3,0,0.299949,-0.00160852,0
0.2,3.1,0,0.299985,-0.001577,0
0.2,3.2,0,0.299962,-0.00154528,0
0.2,3.3,0,0.299962,-0.00151792,0
0.2,3.4,0,0.299981,-0.00147528,0
0.2,3.5,0,0.299932,-0.00145185,0
0.2,3.6,0,0.299982,-0.00141303,0
0.2,3.7,0,0.299952,-0.00137101,0
0.2,3.8,0,0.299952,-0.001336,0
0.2,3.9,0,0.299978,-0.00128301,0
0.2,4,0,0.299915,-0.00125182,0
0.2,4.1,0,0.299977,-0.00120532,0
0.2,4.2,0,0.299941,-0.00115291,0
0.2,4.3,0,0.29994,-0.00111039,0
0.2,4.4,0,0.299971,-0.00104729,0
0.2,4.5,0,0.2999,-0.00100854,0
0.2,4.6,0,0.299968,-0.000955531,0
0.2,4.7,0,0.29993,-0.000893303,0
0.2,4.8,0,0.299929,-0.000844482,0
0.2,4.9,0,0.299963,-0.000775602,0
0.2,5,0,0.299888,-0.000734253,0
0.2,5.1,0,0.299965,-0.00066328,0
0.2,5.2,0,0.299885,-0.000605686,0
0.2,5.3,0,0.299962,-0.000539411,0
0.2,5.4,0,0.299882,-0.000479986,0
0.2,5.5,0,0.299961,-0.00041306,0
0.2,5.6,0,0.29988,-0.000351269,0
0.2,5.7,0,0.29996,-0.000284394,0
0.2,5.8,0,0.299879,-0.000220568,0
0.2,5.9,0,0.299958,-0.000154315,0
0.2,6,0,0.299878,-8.88926e-05,0
0.2,6.1,0,0.299958,-2.3778e-05,0
0.2,6.2,0,0.299879,4.27072e-05,0
0.2,6.3,0,0.29996,0.000106185,0
0.2,6.4,0,0.29988,0.000173164,0
0.2,6.5,0,0.299961,0.000234598,0
0.2,6.6,0,0.299882,0.000301478,0
0.2,6.7,0,0.299963,0.000360623,0
0.2,6.8,0,0.299885,0.000426605,0
0.2,6.9,0,0.299966,0.00048459,0
0.2,7,0,0.299889,0.000558973,0
0.2,7.1,0,0.299954,0.000598213,0
0.2,7.2,0,0.299947,0.000664441,0
0.2,7.3,0,0.299905,0.000716167,0
0.2,7.4,0,0.299968,0.00075849,0
0.2,7.5,0,0.299944,0.000825856,0
0.2,7.6,0,0.299921,0.000872751,0
0.2,7.7,0,0.299978,0.000914382,0
0.2,7.8,0,0.299942,0.000973943,0
0.2,7.9,0,0.299937,0.00101488,0
0.2,8,0,0.299982,0.0010581,0
0.2,8.1,0,0.299942,0.00110699,0
0.2,8.2,0,0.299952,0.00114143,0
0.2,8.3,0,0.299985,0.00118483,0
0.2,8.4,0,0.299943,0.00122423,0
0.2,8.5,0,0.299964,0.00125201,0
0.2,8.6,0,0.299982,0.00129137,0
0.2,8.7,0,0.299945,0.00132563,0
0.2,8.8,0,0.299973,0.00134686,0
0.2,8.9,0,0.299979,0.00138164,0
0.2,9,0,0.299952,0.00141095,0
0.2,9.1,0,0.299981,0.00142676,0
0.2,9.2,0,0.299978,0.00145731,0
0.2,9.3,0,0.299964,0.00148047,0
0.2,9.4,0,0.299987,0.00149293,0
0.2,9.5,0,0.299979,0.00151953,0
0.2,9.6,0,0.299974,0.00153705,0
0.2,9.7,0,0.29999,0.00154906,0
0.2,9.8,0,0.299981,0.00156957,0
0.2,9.9,0,0.299981,0.00158224,0
0.2,10,0,0.299992,0.00159374,0
0.2,10.1,0,0.299983,0.00160886,0
0.2,10.2,0,0.299987,0.00161761,0
0.2,10.3,0,0.299993,0.001628,0
0.2,10.4,0,0.299986,0.00163891,0
0.2,10.5,0,0.299991,0.00164467,0
0.2,10.6,0,0.299994,0.0016531,0
0.2,10.7,0,0.299989,0.00166126,0
0.2,10.8,0,0.299994,0.00166486,0
0.2,10.9,0,0.299995,0.00167146,0
0.2,11,0,0.299992,0.00167703,0
0.2,11.1,0,0.299997,0.00167949,0
0.2,11.2,0,0.299996,0.00168445,0
0.2,11.3,0,0.299995,0.00168801,0
0.2,11.4,0,0.299998,0.00168982,0
0.2,11.5,0,0.299997,0.00169331,0
0.2,11.6,0,0.299997,0.00169548,0
0.2,11.7,0,0.299999,0.00169697,0
0.2,11.8,0,0.299998,0.0016991,0
0.2,11.9,0,0.299998,0.00170033,0
0.2,12,0,0.3,0.00170142,0
0.2,12.1,0,0.299999,0.00170264,0
0.2,12.2,0,0.299999,0.00170324,0
0.2,12.3,0,0.3,0.00170388,0
0.2,12.4,0,0.299999,0.00170455,0
0.2,12.5,0,0.3,0.00170467,0
0.2,12.6,0,0.3,0.00176227,0
0.2,12.7,0,0.3,0.0020218,0
0.3,0,0,0.299998,-0.00300255,0
0.3,0.1,0,0.299998,-0.00288298,0
0.3,0.2,0,0.299997,-0.00288193,0
0.3,0.3,0,0.299997,-0.00288054,0
0.3,0.4,0,0.299995,-0.00287739,0
0.3,0.5,0,0.299993,-0.00287514,0
0.3,0.6,0,0.299993,-0.00287029,0
0.3,0.7,0,0.299991,-0.00286492,0
0.3,0.8,0,0.299991,-0.00286055,0
0.3,0.9,0,0.299989,-0.00285274,0
0.3,1,0,0.299986,-0.00284688,0
0.3,1.1,0,0.299986,-0.0028375,0
0.3,1.2,0,0.299984,-0.00282695,0
0.3,1.3,0,0.299983,-0.00281894,0
0.3,1.4,0,0.299981,-0.00280525,0
0.3,1.5,0,0.299976,-0.00279495,0
0.3,1.6,0,0.299977,-0.00277954,0
0.3,1.7,0,0.299974,-0.00276222,0
0.3,1.8,0,0.299973,-0.00274949,0
0.3,1.9,0,0.29997,-0.002728,0
0.3,2,0,0.299962,-0.00271182,0
0.3,2.1,0,0.299965,-0.00268855,0
0.3,2.2,0,0.299961,-0.00266231,0
0.3,2.3,0,0.29996,-0.0026435,0
0.3,2.4,0,0.299956,-0.00261189,0
0.3,2.5,0,0.299945,-0.00258786,0
0.3,2.6,0,0.29995,-0.00255492,0
0.3,2.7,0,0.299946,-0.00251733,0
0.3,2.8,0,0.299945,-0.00249101,0
0.3,2.9,0,0.299939,-0.00244689,0
0.3,3,0,0.299924,-0.00241278,0
0.3,3.1,0,0.299933,-0.00236865,0
0.3,3.2,0,0.299927,-0.00231751,0
0.3,3.3,0,0.299926,-0.0022823,0
0.3,3.4,0,0.29992,-0.00222377,0
0.3,3.5,0,0.299899,-0.00217777,0
0.3,3.6,0,0.299912,-0.00212138,0
0.3,3.7,0,0.299906,-0.00205522,0
0.3,3.8,0,0.299905,-0.00201022,0
0.3,3.9,0,0.299899,-0.00193635,0
0.3,4,0,0.299873,-0.00187773,0
0.3,4.1,0,0.299891,-0.00180874,0
0.3,4.2,0,0.299886,-0.00172726,0
0.3,4.3,0,0.299884,-0.00167256,0
0.3,4.4,0,0.299879,-0.00158374,0
0.3,4.5,0,0.29985,-0.00151281,0
0.3,4.6,0,0.299872,-0.00143245,0
0.3,4.7,0,0.299867,-0.00133689,0
0.3,4.8,0,0.299865,-0.00127459,0
0.3,4.9,0,0.299861,-0.00117815,0
0.3,5,0,0.299833,-0.00110138,0
0.3,5.1,0,0.299856,-0.00100272,0
0.3,5.2,0,0.299827,-0.00090853,0
0.3,5.3,0,0.299851,-0.000813113,0
0.3,5.4,0,0.299823,-0.00071998,0
0.3,5.5,0,0.299848,-0.000622586,0
0.3,5.6,0,0.29982,-0.000526903,0
0.3,5.7,0,0.299846,-0.00042837,0
0.3,5.8,0,0.299818,-0.000330852,0
0.3,5.9,0,0.299844,-0.000231957,0
0.3,6,0,0.299817,-0.000133339,0
0.3,6.1,0,0.299844,-3.48674e-05,0
0.3,6.2,0,0.299818,6.40609e-05,0
0.3,6.3,0,0.299846,0.00016132,0
0.3,6.4,0,0.29982,0.000259746,0
0.3,6.5,0,0.299848,0.000355073,0
0.3,6.6,0,0.299823,0.000452217,0
0.3,6.7,0,0.299852,0.000544923,0
0.3,6.8,0,0.299828,0.000639908,0
0.3,6.9,0,0.299857,0.000736451,0
0.3,7,0,0.299834,0.000838459,0
0.3,7.1,0,0.299862,0.000909349,0
0.3,7.2,0,0.299866,0.00100197,0
0.3,7.3,0,0.299852,0.00107108,0
0.3,7.4,0,0.299872,0.00115109,0
0.3,7.5,0,0.299877,0.00124415,0
0.3,7.6,0,0.299873,0.00130344,0
0.3,7.7,0,0.299884,0.00138342,0
0.3,7.8,0,0.29989,0.00146845,0
0.3,7.9,0,0.299891,0.00151665,0
0.3,8,0,0.299897,0.00159298,0
0.3,8.1,0,0.299902,0.00166907,0
0.3,8.2,0,0.299904,0.00171095,0
0.3,8.3,0,0.29991,0.00177832,0
0.3,8.4,0,0.299908,0.00184117,0
0.3,8.5,0,0.299917,0.0018807,0
0.3,8.6,0,0.299923,0.00193914,0
0.3,8.7,0,0.299916,0.00199016,0
0.3,8.8,0,0.299929,0.00202618,0
0.3,8.9,0,0.299935,0.00207598,0
0.3,9,0,0.299928,0.00211602,0
0.3,9.1,0,0.299942,0.00214845,0
0.3,9.2,0,0.299947,0.00219009,0
0.3,9.3,0,0.299944,0.00221946,0
0.3,9.4,0,0.299953,0.00224915,0
0.3,9.5,0,0.299957,0.00228333,0
0.3,9.6,0,0.299957,0.00230388,0
0.3,9.7,0,0.299962,0.00233038,0
0.3,9.8,0,0.299966,0.00235789,0
0.3,9.9,0,0.299967,0.00237278,0
0.3,10,0,0.299971,0.00239449,0
0.3,10.1,0,0.299973,0.00241576,0
0.3,10.2,0,0.299975,0.00242716,0
0.3,10.3,0,0.299978,0.00244391,0
0.3,10.4,0,0.299979,0.00245946,0
0.3,10.5,0,0.299981,0.00246843,0
0.3,10.6,0,0.299984,0.00248106,0
0.3,10.7,0,0.299983,0.0024921,0
0.3,10.8,0,0.299986,0.00249891,0
0.3,10.9,0,0.299988,0.00250819,0
0.3,11,0,0.299988,0.00251543,0
0.3,11.1,0,0.299991,0.00252077,0
0.3,11.2,0,0.299992,0.0025274,0
0.3,11.3,0,0.299992,0.0025318,0
0.3,11.4,0,0.299994,0.00253592,0
0.3,11.5,0,0.299995,0.00254049,0
0.3,11.6,0,0.299995,0.00254299,0
0.3,11.7,0,0.299996,0.002546,0
0.3,11.8,0,0.299997,0.00254902,0
0.3,11.9,0,0.299997,0.00255047,0
0.3,12,0,0.299998,0.00255234,0
0.3,12.1,0,0.299998,0.00255414,0
0.3,12.2,0,0.299999,0.00255493,0
0.3,12.3,0,0.299999,0.00255594,0
0.3,12.4,0,0.299999,0.00255687,0
0.3,12.5,0,0.299999,0.00255712,0
0.3,12.6,0,0.3,0.00255744,0
0.3,12.7,0,0.3,0.0026633,0
0.4,0,0,0.299997,-0.0038469,0
0.4,0.1,0,0.299997,-0.00384536,0
0.4,0.2,0,0.299996,-0.00384431,0
0.4,0.3,0,0.299994,-0.0038415,0
0.4,0.4,0,0.299992,-0.00383834,0
0.4,0.5,0,0.299989,-0.0038349,0
0.4,0.6,0,0.299988,-0.00382842,0
0.4,0.7,0,0.299986,-0.00382305,0
0.4,0.8,0,0.299983,-0.00381431,0
0.4,0.9,0,0.299982,-0.00380651,0
0.4,1,0,0.299977,-0.00379742,0
0.4,1.1,0,0.299976,-0.00378518,0
0.4,1.2,0,0.299974,-0.00377463,0
0.4,1.3,0,0.29997,-0.00375857,0
0.4,1.4,0,0.299968,-0.00374488,0
0.4,1.5,0,0.29996,-0.00372849,0
0.4,1.6,0,0.29996,-0.00370878,0
0.4,1.7,0,0.299957,-0.00369146,0
0.4,1.8,0,0.299952,-0.00366561,0
0.4,1.9,0,0.299949,-0.00364413,0
0.4,2,0,0.299939,-0.00361797,0
0.4,2.1,0,0.29994,-0.00358836,0
0.4,2.2,0,0.299936,-0.00356212,0
0.4,2.3,0,0.299929,-0.0035233,0
0.4,2.4,0,0.299925,-0.00349169,0
0.4,2.5,0,0.299911,-0.00345307,0
0.4,2.6,0,0.299912,-0.0034105,0
0.4,2.7,0,0.299908,-0.00337292,0
0.4,2.8,0,0.299899,-0.00331772,0
0.4,2.9,0,0.299894,-0.0032736,0
0.4,3,0,0.299877,-0.0032201,0
0.4,3.1,0,0.299878,-0.00316148,0
0.4,3.2,0,0.299872,-0.00311034,0
0.4,3.3,0,0.299862,-0.00303599,0
0.4,3.4,0,0.299856,-0.00297746,0
0.4,3.5,0,0.299837,-0.00290721,0
0.4,3.6,0,0.299839,-0.00283053,0
0.4,3.7,0,0.299833,-0.00276437,0
0.4,3.8,0,0.299822,-0.00266936,0
0.4,3.9,0,0.299816,-0.0025955,0
0.4,4,0,0.299796,-0.00250728,0
0.4,4.1,0,0.299801,-0.00241235,0
0.4,4.2,0,0.299795,-0.00233087,0
0.4,4.3,0,0.299787,-0.00221513,0
0.4,4.4,0,0.299781,-0.00212631,0
0.4,4.5,0,0.299758,-0.00202035,0
0.4,4.6,0,0.299769,-0.0019086,0
0.4,4.7,0,0.299765,-0.00181304,0
0.4,4.8,0,0.299758,-0.00167943,0
0.4,4.9,0,0.299755,-0.00158298,0
0.4,5,0,0.299728,-0.00147093,0
0.4,5.1,0,0.299747,-0.00133985,0
0.4,5.2,0,0.299718,-0.00121333,0
0.4,5.3,0,0.29974,-0.0010877,0
0.4,5.4,0,0.299711,-0.000961479,0
0.4,5.5,0,0.299735,-0.000832732,0
0.4,5.6,0,0.299706,-0.000703541,0
0.4,5.7,0,0.299732,-0.000572716,0
0.4,5.8,0,0.299702,-0.000441596,0
0.4,5.9,0,0.29973,-0.000309716,0
0.4,6,0,0.299701,-0.000177681,0
0.4,6.1,0,0.29973,-4.58022e-05,0
0.4,6.2,0,0.299702,8.60803e-05,0
0.4,6.3,0,0.299732,0.000216871,0
0.4,6.4,0,0.299706,0.000347533,0
0.4,6.5,0,0.299735,0.000476203,0
0.4,6.6,0,0.299712,0.000604657,0
0.4,6.7,0,0.299741,0.000730162,0
0.4,6.8,0,0.29972,0.000855348,0
0.4,6.9,0,0.299748,0.000983752,0
0.4,7,0,0.29973,0.00112058,0
0.4,7.1,0,0.299756,0.00122887,0
0.4,7.2,0,0.29976,0.00132149,0
0.4,7.3,0,0.299753,0.00144435,0
0.4,7.4,0,0.299771,0.00155039,0
0.4,7.5,0,0.299776,0.00164345,0
0.4,7.6,0,0.29978,0.00176587,0
0.4,7.7,0,0.29979,0.00185591,0
0.4,7.8,0,0.299796,0.00194094,0
0.4,7.9,0,0.299806,0.00205514,0
0.4,8,0,0.299812,0.00213147,0
0.4,8.1,0,0.299818,0.00220804,0
0.4,8.2,0,0.299829,0.00230811,0
0.4,8.3,0,0.299835,0.00237548,0
0.4,8.4,0,0.299838,0.00244737,0
0.4,8.5,0,0.299853,0.00252914,0
0.4,8.6,0,0.299859,0.00258758,0
0.4,8.7,0,0.29986,0.00265332,0
0.4,8.8,0,0.299876,0.0027186,0
0.4,8.9,0,0.299882,0.00276839,0
0.4,9,0,0.299883,0.00282684,0
0.4,9.1,0,0.299898,0.00287775,0
0.4,9.2,0,0.299904,0.0029194,0
0.4,9.3,0,0.299908,0.00297003,0
0.4,9.4,0,0.299918,0.00300872,0
0.4,9.5,0,0.299923,0.0030429,0
0.4,9.6,0,0.29993,0.00308572,0
0.4,9.7,0,0.299935,0.00311424,0
0.4,9.8,0,0.299939,0.00314175,0
0.4,9.9,0,0.299946,0.00317572,0
0.4,10,0,0.29995,0.00319743,0
0.4,10.1,0,0.299953,0.00321956,0
0.4,10.2,0,0.299959,0.00324479,0
0.4,10.3,0,0.299962,0.00326154,0
0.4,10.4,0,0.299964,0.00327953,0
0.4,10.5,0,0.299969,0.00329713,0
0.4,10.6,0,0.299972,0.00330977,0
0.4,10.7,0,0.299972,0.00332408,0
0.4,10.8,0,0.299978,0.00333578,0
0.4,10.9,0,0.29998,0.00334507,0
0.4,11,0,0.299981,0.00335589,0
0.4,11.1,0,0.299985,0.00336351,0
0.4,11.2,0,0.299986,0.00337013,0
0.4,11.3,0,0.299988,0.00337786,0
0.4,11.4,0,0.29999,0.00338275,0
0.4,11.5,0,0.299991,0.00338732,0
0.4,11.6,0,0.299992,0.00339254,0
0.4,11.7,0,0.299993,0.00339557,0
0.4,11.8,0,0.299994,0.00339859,0
0.4,11.9,0,0.299996,0.00340179,0
0.4,12,0,0.299996,0.00340367,0
0.4,12.1,0,0.299997,0.00340564,0
0.4,12.2,0,0.299998,0.00340728,0
0.4,12.3,0,0.299998,0.00340829,0
0.4,12.4,0,0.299999,0.00340945,0
0.4,12.5,0,0.299999,0.00340995,0
0.4,12.6,0,0.299999,0.00341027,0
0.4,12.7,0,0.299999,0.0034107,0
0.5,0,0,0.299995,-0.00481103,0
0.5,0.1,0,0.299996,-0.00480858,0
0.5,0.2,0,0.299993,-0.00480762,0
0.5,0.3,0,0.299991,-0.00480453,0
0.5,0.4,0,0.299989,-0.0048,0
0.5,0.5,0,0.299983,-0.00479604,0
0.5,0.6,0,0.299983,-0.0047876,0
0.5,0.7,0,0.299978,-0.00478081,0
0.5,0.8,0,0.299975,-0.00477122,0
0.5,0.9,0,0.299974,-0.00476092,0
0.5,1,0,0.299964,-0.00474955,0
0.5,1.1,0,0.299966,-0.00473424,0
0.5,1.2,0,0.299958,-0.00472029,0
0.5,1.3,0,0.299954,-0.00470264,0
0.5,1.4,0,0.299954,-0.00468516,0
0.5,1.5,0,0.299938,-0.00466391,0
0.5,1.6,0,0.299943,-0.00463988,0
0.5,1.7,0,0.299932,-0.00461629,0
0.5,1.8,0,0.299926,-0.00458785,0
0.5,1.9,0,0.299927,-0.00456091,0
0.5,2,0,0.299904,-0.00452634,0
0.5,2.1,0,0.299913,-0.00449065,0
0.5,2.2,0,0.299897,-0.00445443,0
0.5,2.3,0,0.299889,-0.00441165,0
0.5,2.4,0,0.299892,-0.00437212,0
0.5,2.5,0,0.299861,-0.00432086,0
0.5,2.6,0,0.299873,-0.00426932,0
0.5,2.7,0,0.299853,-0.0042176,0
0.5,2.8,0,0.299842,-0.00415667,0
0.5,2.9,0,0.299846,-0.00410087,0
0.5,3,0,0.299808,-0.00403047,0
0.5,3.1,0,0.299822,-0.00395839,0
0.5,3.2,0,0.299798,-0.00388889,0
0.5,3.3,0,0.299786,-0.00380673,0
0.5,3.4,0,0.299789,-0.0037315,0
0.5,3.5,0,0.299748,-0.00364015,0
0.5,3.6,0,0.299763,-0.00354454,0
0.5,3.7,0,0.299737,-0.00345551,0
0.5,3.8,0,0.299725,-0.00335049,0
0.5,3.9,0,0.29973,-0.00325452,0
0.5,4,0,0.299684,-0.00314048,0
0.5,4.1,0,0.299708,-0.00302134,0
0.5,4.2,0,0.299678,-0.00291193,0
0.5,4.3,0,0.299668,-0.00278395,0
0.5,4.4,0,0.29968,-0.002668,0
0.5,4.5,0,0.299623,-0.00253116,0
0.5,4.6,0,0.299664,-0.00239026,0
0.5,4.7,0,0.299628,-0.00226217,0
0.5,4.8,0,0.299621,-0.00211351,0
0.5,4.9,0,0.299643,-0.00198306,0
0.5,5,0,0.299574,-0.00184289,0
0.5,5.1,0,0.299637,-0.00167465,0
0.5,5.2,0,0.299558,-0.00152008,0
0.5,5.3,0,0.299629,-0.00136318,0
0.5,5.4,0,0.299546,-0.00120449,0
0.5,5.5,0,0.299622,-0.0010435,0
0.5,5.6,0,0.299537,-0.000881183,0
0.5,5.7,0,0.299618,-0.000717434,0
0.5,5.8,0,0.299532,-0.000552798,0
0.5,5.9,0,0.299615,-0.000387591,0
0.5,6,0,0.29953,-0.000221918,0
0.5,6.1,0,0.299615,-5.65824e-05,0
0.5,6.2,0,0.299532,0.000108765,0
0.5,6.3,0,0.299618,0.00027284,0
0.5,6.4,0,0.299538,0.000436527,0
0.5,6.5,0,0.299622,0.000597987,0
0.5,6.6,0,0.299548,0.0007588,0
0.5,6.7,0,0.29963,0.00091634,0
0.5,6.8,0,0.29956,0.00107293,0
0.5,6.9,0,0.299638,0.00122649,0
0.5,7,0,0.299578,0.00140533,0
0.5,7.1,0,0.299638,0.00153643,0
0.5,7.2,0,0.299637,0.00165819,0
0.5,7.3,0,0.299611,0.00180561,0
0.5,7.4,0,0.299666,0.00194917,0
0.5,7.5,0,0.299656,0.00206853,0
0.5,7.6,0,0.29965,0.00220369,0
0.5,7.7,0,0.299696,0.00233186,0
0.5,7.8,0,0.299683,0.00244287,0
0.5,7.9,0,0.299691,0.00256442,0
0.5,8,0,0.299726,0.0026736,0
0.5,8.1,0,0.299714,0.00277769,0
0.5,8.2,0,0.299732,0.00288514,0
0.5,8.3,0,0.29976,0.0029763,0
0.5,8.4,0,0.299748,0.00307161,0
0.5,8.5,0,0.299774,0.00316508,0
0.5,8.6,0,0.299793,0.00324251,0
0.5,8.7,0,0.299782,0.00332468,0
0.5,8.8,0,0.299813,0.00340479,0
0.5,8.9,0,0.299825,0.00346942,0
0.5,9,0,0.299817,0.00353822,0
0.5,9.1,0,0.299851,0.00360581,0
0.5,9.2,0,0.299855,0.00365825,0
0.5,9.3,0,0.299853,0.0037148,0
0.5,9.4,0,0.299883,0.00377071,0
0.5,9.5,0,0.299881,0.00381213,0
0.5,9.6,0,0.299885,0.00385782,0
0.5,9.7,0,0.299908,0.00390064,0
0.5,9.8,0,0.299905,0.00393491,0
0.5,9.9,0,0.299912,0.00397102,0
0.5,10,0,0.299929,0.00400256,0
0.5,10.1,0,0.299925,0.00403077,0
0.5,10.2,0,0.299935,0.00405846,0
0.5,10.3,0,0.299946,0.00408114,0
0.5,10.4,0,0.299943,0.00410386,0
0.5,10.5,0,0.299953,0.0041243,0
0.5,10.6,0,0.299959,0.0041408,0
0.5,10.7,0,0.299957,0.00415814,0
0.5,10.8,0,0.299967,0.00417253,0
0.5,10.9,0,0.29997,0.00418432,0
0.5,11,0,0.29997,0.00419695,0
0.5,11.1,0,0.299978,0.0042068,0
0.5,11.2,0,0.299979,0.00421511,0
0.5,11.3,0,0.29998,0.00422377,0
0.5,11.4,0,0.299986,0.00423029,0
0.5,11.5,0,0.299986,0.00423609,0
0.5,11.6,0,0.299987,0.00424169,0
0.5,11.7,0,0.299991,0.00424568,0
0.5,11.8,0,0.299991,0.00424975,0
0.5,11.9,0,0.299993,0.0042531,0
0.5,12,0,0.299994,0.00425538,0
0.5,12.1,0,0.299995,0.00425809,0
0.5,12.2,0,0.299996,0.0042598,0
0.5,12.3,0,0.299997,0.00426099,0
0.5,12.4,0,0.299998,0.00426256,0
0.5,12.5,0,0.299999,0.00426304,0
0.5,12.6,0,0.299999,0.00426342,0
0.5,12.7,0,0.299999,0.00426403,0
0.6,0,0,0.299993,-0.00577515,0
0.6,0.1,0,0.299993,-0.0057728,0
0.6,0.2,0,0.29999,-0.00577098,0
0.6,0.3,0,0.299987,-0.00576789,0
0.6,0.4,0,0.299983,-0.0057618,0
0.6,0.5,0,0.299977,-0.00575718,0
0.6,0.6,0,0.299975,-0.00574814,0
0.6,0.7,0,0.299968,-0.00573827,0
0.6,0.8,0,0.299965,-0.00572868,0
0.6,0.9,0,0.29996,-0.00571417,0
0.6,1,0,0.29995,-0.00570168,0
0.6,1.1,0,0.29995,-0.00568484,0
0.6,1.2,0,0.29994,-0.00566517,0
0.6,1.3,0,0.299936,-0.00564752,0
0.6,1.4,0,0.29993,-0.0056222,0
0.6,1.5,0,0.299916,-0.00559933,0
0.6,1.6,0,0.299916,-0.0055724,0
0.6,1.7,0,0.299904,-0.00553967,0
0.6,1.8,0,0.299898,-0.00551123,0
0.6,1.9,0,0.299889,-0.00547154,0
0.6,2,0,0.29987,-0.00543471,0
0.6,2.1,0,0.299872,-0.00539436,0
0.6,2.2,0,0.299855,-0.00534441,0
0.6,2.3,0,0.299847,-0.00530163,0
0.6,2.4,0,0.299837,-0.00524317,0
0.6,2.5,0,0.299811,-0.00518866,0
0.6,2.6,0,0.299815,-0.00513054,0
0.6,2.7,0,0.299794,-0.00505899,0
0.6,2.8,0,0.299783,-0.00499806,0
0.6,2.9,0,0.299772,-0.00491614,0
0.6,3,0,0.299739,-0.00484084,0
0.6,3.1,0,0.299743,-0.00476033,0
0.6,3.2,0,0.299719,-0.00466322,0
0.6,3.3,0,0.299707,-0.00458107,0
0.6,3.4,0,0.299694,-0.00447162,0
0.6,3.5,0,0.299658,-0.00437309,0
0.6,3.6,0,0.299663,-0.0042671,0
0.6,3.7,0,0.299637,-0.00414145,0
0.6,3.8,0,0.299625,-0.00403643,0
0.6,3.9,0,0.299611,-0.00389734,0
0.6,4,0,0.299572,-0.00377368,0
0.6,4.1,0,0.299583,-0.00364192,0
0.6,4.2,0,0.299555,-0.00348667,0
0.6,4.3,0,0.299545,-0.00335869,0
0.6,4.4,0,0.299536,-0.00319066,0
0.6,4.5,0,0.299489,-0.00304197,0
0.6,4.6,0,0.299512,-0.00288642,0
0.6,4.7,0,0.299484,-0.00270397,0
0.6,4.8,0,0.299476,-0.00255531,0
0.6,4.9,0,0.299475,-0.00237047,0
0.6,5,0,0.299421,-0.00221486,0
0.6,5.1,0,0.299457,-0.00201629,0
0.6,5.2,0,0.299398,-0.00182684,0
0.6,5.3,0,0.299441,-0.00163776,0
0.6,5.4,0,0.299381,-0.00144749,0
0.6,5.5,0,0.299429,-0.0012536,0
0.6,5.6,0,0.299369,-0.00105882,0
0.6,5.7,0,0.29942,-0.000861708,0
0.6,5.8,0,0.299361,-0.000664,0
0.6,5.9,0,0.299416,-0.000465233,0
0.6,6,0,0.299358,-0.000266156,0
0.6,6.1,0,0.299416,-6.73565e-05,0
0.6,6.2,0,0.299362,0.000131451,0
0.6,6.3,0,0.299421,0.000328615,0
0.6,6.4,0,0.29937,0.000525521,0
0.6,6.5,0,0.29943,0.000719447,0
0.6,6.6,0,0.299383,0.000912942,0
0.6,6.7,0,0.299443,0.00110204,0
0.6,6.8,0,0.299401,0.00129051,0
0.6,6.9,0,0.29946,0.00148187,0
0.6,7,0,0.299426,0.00169009,0
0.6,7.1,0,0.299477,0.00183149,0
0.6,7.2,0,0.299493,0.00201808,0
0.6,7.3,0,0.299469,0.00216688,0
0.6,7.4,0,0.299513,0.00232505,0
0.6,7.5,0,0.299527,0.00250636,0
0.6,7.6,0,0.29952,0.00264151,0
0.6,7.7,0,0.299556,0.00279216,0
0.6,7.8,0,0.299566,0.00295033,0
0.6,7.9,0,0.299574,0.00307188,0
0.6,8,0,0.299604,0.00321227,0
0.6,8.1,0,0.299611,0.00334733,0
0.6,8.2,0,0.299629,0.00345478,0
0.6,8.3,0,0.299655,0.00358304,0
0.6,8.4,0,0.299657,0.00369585,0
0.6,8.5,0,0.299683,0.00378932,0
0.6,8.6,0,0.299706,0.00390412,0
0.6,8.7,0,0.299704,0.00399605,0
0.6,8.8,0,0.299734,0.00407779,0
0.6,8.9,0,0.299755,0.00417672,0
0.6,9,0,0.299751,0.0042496,0
0.6,9.1,0,0.299782,0.00432074,0
0.6,9.2,0,0.2998,0.00440302,0
0.6,9.3,0,0.299799,0.00445957,0
0.6,9.4,0,0.299824,0.00452005,0
0.6,9.5,0,0.299837,0.00458424,0
0.6,9.6,0,0.299841,0.00462993,0
0.6,9.7,0,0.299861,0.00468002,0
0.6,9.8,0,0.299869,0.00472894,0
0.6,9.9,0,0.299877,0.00476505,0
0.6,10,0,0.299893,0.0048055,0
0.6,10.1,0,0.299898,0.00484198,0
0.6,10.2,0,0.299908,0.00486967,0
0.6,10.3,0,0.29992,0.00490155,0
0.6,10.4,0,0.299922,0.00492818,0
0.6,10.5,0,0.299932,0.00494863,0
0.6,10.6,0,0.299941,0.00497315,0
0.6,10.7,0,0.299942,0.0049922,0
0.6,10.8,0,0.299951,0.00500708,0
0.6,10.9,0,0.299959,0.00502496,0
0.6,11,0,0.299959,0.005038,0
0.6,11.1,0,0.299967,0.00504864,0
0.6,11.2,0,0.299972,0.00506102,0
0.6,11.3,0,0.299973,0.00506969,0
0.6,11.4,0,0.299978,0.00507712,0
0.6,11.5,0,0.299981,0.00508524,0
0.6,11.6,0,0.299982,0.00509085,0
0.6,11.7,0,0.299986,0.00509584,0
0.6,11.8,0,0.299988,0.00510097,0
0.6,11.9,0,0.299989,0.00510431,0
0.6,12,0,0.299992,0.00510746,0
0.6,12.1,0,0.299993,0.00511054,0
0.6,12.2,0,0.299994,0.00511225,0
0.6,12.3,0,0.299996,0.00511401,0
0.6,12.4,0,0.299997,0.00511567,0
0.6,12.5,0,0.299998,0.00511616,0
0.6,12.6,0,0.299998,0.00511674,0
0.6,12.7,0,0.299998,0.00511734,0
0.7,0,0,0.299991,-0.00673927,0
0.7,0.1,0,0.299989,-0.00673716,0
0.7,0.2,0,0.299986,-0.00673504,0
0.7,0.3,0,0.299982,-0.00673085,0
0.7,0.4,0,0.299977,-0.00672459,0
0.7,0.5,0,0.299971,-0.00671832,0
0.7,0.6,0,0.299965,-0.00670779,0
0.7,0.7,0,0.299958,-0.00669726,0
0.7,0.8,0,0.299952,-0.00668436,0
0.7,0.9,0,0.299944,-0.00666908,0
0.7,1,0,0.299937,-0.00665381,0
0.7,1.1,0,0.299929,-0.00663312,0
0.7,1.2,0,0.299921,-0.00661244,0
0.7,1.3,0,0.299912,-0.00658862,0
0.7,1.4,0,0.299903,-0.00656168,0
0.7,1.5,0,0.299893,-0.00653474,0
0.7,1.6,0,0.299882,-0.00650057,0
0.7,1.7,0,0.299871,-0.0064664,0
0.7,1.8,0,0.29986,-0.00642806,0
0.7,1.9,0,0.299847,-0.00638557,0
0.7,2,0,0.299835,-0.00634308,0
0.7,2.1,0,0.299821,-0.00629109,0
0.7,2.2,0,0.299807,-0.00623911,0
0.7,2.3,0,0.299792,-0.00618179,0
0.7,2.4,0,0.299776,-0.00611912,0
0.7,2.5,0,0.299761,-0.00605646,0
0.7,2.6,0,0.299743,-0.00598191,0
0.7,2.7,0,0.299726,-0.00590737,0
0.7,2.8,0,0.299708,-0.00582632,0
0.7,2.9,0,0.299689,-0.00573876,0
0.7,3,0,0.299671,-0.00565121,0
0.7,3.1,0,0.29965,-0.00554962,0
0.7,3.2,0,0.299631,-0.00544803,0
0.7,3.3,0,0.29961,-0.00533899,0
0.7,3.4,0,0.299589,-0.00522251,0
0.7,3.5,0,0.299569,-0.00510604,0
0.7,3.6,0,0.299547,-0.00497408,0
0.7,3.7,0,0.299526,-0.00484211,0
0.7,3.8,0,0.299504,-0.00470228,0
0.7,3.9,0,0.299482,-0.00455458,0
0.7,4,0,0.29946,-0.00440687,0
0.7,4.1,0,0.299439,-0.00424356,0
0.7,4.2,0,0.299417,-0.00408025,0
0.7,4.3,0,0.299396,-0.00390943,0
0.7,4.4,0,0.299375,-0.0037311,0
0.7,4.5,0,0.299355,-0.00355278,0
0.7,4.6,0,0.299335,-0.00336061,0
0.7,4.7,0,0.299316,-0.00316845,0
0.7,4.8,0,0.299299,-0.00297525,0
0.7,4.9,0,0.299283,-0.00278104,0
0.7,5,0,0.299267,-0.00258682,0
0.7,5.1,0,0.299253,-0.00236021,0
0.7,5.2,0,0.299238,-0.00213359,0
0.7,5.3,0,0.299227,-0.00191205,0
0.7,5.4,0,0.299216,-0.0016905,0
0.7,5.5,0,0.299208,-0.00146348,0
0.7,5.6,0,0.2992,-0.00123647,0
0.7,5.7,0,0.299195,-0.00100583,0
0.7,5.8,0,0.299191,-0.000775202,0
0.7,5.9,0,0.299189,-0.000542798,0
0.7,6,0,0.299187,-0.000310393,0
0.7,6.1,0,0.299189,-7.81286e-05,0
0.7,6.2,0,0.299191,0.000154136,0
0.7,6.3,0,0.299197,0.000384326,0
0.7,6.4,0,0.299202,0.000614515,0
0.7,6.5,0,0.29921,0.0008408,0
0.7,6.6,0,0.299219,0.00106708,0
0.7,6.7,0,0.299231,0.00128758,0
0.7,6.8,0,0.299242,0.00150808,0
0.7,6.9,0,0.299258,0.00174146,0
0.7,7,0,0.299274,0.00197484,0
0.7,7.1,0,0.29929,0.00216143,0
0.7,7.2,0,0.299305,0.00234801,0
0.7,7.3,0,0.299322,0.00253467,0
0.7,7.4,0,0.299342,0.00272175,0
0.7,7.5,0,0.299362,0.00290883,0
0.7,7.6,0,0.299382,0.00309095,0
0.7,7.7,0,0.299404,0.00326149,0
0.7,7.8,0,0.299425,0.00343203,0
0.7,7.9,0,0.299447,0.00359454,0
0.7,8,0,0.29947,0.00374725,0
0.7,8.1,0,0.299492,0.00389995,0
0.7,8.2,0,0.299514,0.00404168,0
0.7,8.3,0,0.299536,0.0041761,0
0.7,8.4,0,0.299558,0.00431051,0
0.7,8.5,0,0.29958,0.00443136,0
0.7,8.6,0,0.299602,0.00454768,0
0.7,8.7,0,0.299623,0.004664,0
0.7,8.8,0,0.299644,0.00476468,0