x,y,z,p
0,0,0,5.21045e-05
0,0.1,0,0.000112048
0,0.2,0,0.000171991
0,0.3,0,0.000242201
0,0.4,0,0.000322678
0,0.5,0,0.000403155
0,0.6,0,0.000483022
0,0.7,0,0.000562889
0,0.8,0,0.0006423
0,0.9,0,0.000721254
0,1,0,0.000800208
0,1.1,0,0.000877949
0,1.2,0,0.000955688
0,1.3,0,0.00103267
0,1.4,0,0.0011089
0,1.5,0,0.00118512
0,1.6,0,0.00125952
0,1.7,0,0.00133393
0,1.8,0,0.00140727
0,1.9,0,0.00147954
0,2,0,0.00155182
0,2.1,0,0.00162166
0,2.2,0,0.0016915
0,2.3,0,0.00175996
0,2.4,0,0.00182706
0,2.5,0,0.00189415
0,2.6,0,0.00195819
0,2.7,0,0.00202224
0,2.8,0,0.00208461
0,2.9,0,0.0021453
0,3,0,0.00220599
0,3.1,0,0.00226304
0,3.2,0,0.00232008
0,3.3,0,0.00237516
0,3.4,0,0.00242827
0,3.5,0,0.00248138
0,3.6,0,0.00253027
0,3.7,0,0.00257916
0,3.8,0,0.00262581
0,3.9,0,0.00267022
0,4,0,0.00271463
0,4.1,0,0.00275431
0,4.2,0,0.00279398
0,4.3,0,0.00283117
0,4.4,0,0.00286588
0,4.5,0,0.00290058
0,4.6,0,0.0029301
0,4.7,0,0.00295962
0,4.8,0,0.00298494
0,4.9,0,0.00300607
0,5,0,0.0030272
0,5.1,0,0.00305562
0,5.2,0,0.00307389
0,5.3,0,0.00308995
0,5.4,0,0.00310384
0,5.5,0,0.00311553
0,5.6,0,0.00312503
0,5.7,0,0.00313236
0,5.8,0,0.0031375
0,5.9,0,0.00314044
0,6,0,0.00314081
0,6.1,0,0.0031369
0,6.2,0,0.00313299
0,6.3,0,0.00312908
0,6.4,0,0.00312058
0,6.5,0,0.00310961
0,6.6,0,0.00309864
0,6.7,0,0.00308564
0,6.8,0,0.00306791
0,6.9,0,0.00305018
0,7,0,0.00303244
0,7.1,0,0.00300869
0,7.2,0,0.00298463
0,7.3,0,0.00296056
0,7.4,0,0.00293296
0,7.5,0,0.002903
0,7.6,0,0.00287304
0,7.7,0,0.00284172
0,7.8,0,0.00280632
0,7.9,0,0.00277093
0,8,0,0.00273553
0,8.1,0,0.00269567
0,8.2,0,0.00265532
0,8.3,0,0.00261497
0,8.4,0,0.00257217
0,8.5,0,0.00252735
0,8.6,0,0.00248253
0,8.7,0,0.00243692
0,8.8,0,0.00238812
0,8.9,0,0.00233932
0,9,0,0.00229052
0,9.1,0,0.00223874
0,9.2,0,0.00218644
0,9.3,0,0.00213413
0,9.4,0,0.0020803
0,9.5,0,0.00202495
0,9.6,0,0.0019696
0,9.7,0,0.00191386
0,9.8,0,0.0018559
0,9.9,0,0.00179794
0,10,0,0.00173998
0,10.1,0,0.00168025
0,10.2,0,0.00162008
0,10.3,0,0.00155991
0,10.4,0,0.00149892
0,10.5,0,0.00143691
0,10.6,0,0.00137491
0,10.7,0,0.00131275
0,10.8,0,0.00124924
0,10.9,0,0.00118574
0,11,0,0.00112223
0,11.1,0,0.00105783
0,11.2,0,0.000993134
0,11.3,0,0.000928435
0,11.4,0,0.000863369
0,11.5,0,0.000797752
0,11.6,0,0.000732135
0,11.7,0,0.000666484
0,11.8,0,0.000600199
0,11.9,0,0.000533914
0,12,0,0.000467629
0,12.1,0,0.000401039
0,12.2,0,0.000334319
0,12.3,0,0.000267599
0,12.4,0,0.00020678
0,12.5,0,0.000156919
0,12.6,0,0.000107058
0,12.7,0,5.71974e-05
0.1,0,0,4.05257e-05
0.1,0.1,0,0.000100514
0.1,0.2,0,0.000161637
0.1,0.3,0,0.000242342
0.1,0.4,0,0.000322805
0.1,0.5,0,0.000403678
0.1,0.6,0,0.000483234
0.1,0.7,0,0.000563158
0.1,0.8,0,0.000642644
0.1,0.9,0,0.00072155
0.1,1,0,0.000801248
0.1,1.1,0,0.000878328
0.1,1.2,0,0.00095616
0.1,1.3,0,0.00103322
0.1,1.4,0,0.00110936
0.1,1.5,0,0.00118669
0.1,1.6,0,0.00126007
0.1,1.7,0,0.0013346
0.1,1.8,0,0.00140802
0.1,1.9,0,0.00148018
0.1,2,0,0.00155391
0.1,2.1,0,0.00162238
0.1,2.2,0,0.00169238
0.1,2.3,0,0.00176092
0.1,2.4,0,0.00182786
0.1,2.5,0,0.00189672
0.1,2.6,0,0.00195909
0.1,2.7,0,0.00202332
0.1,2.8,0,0.00208576
0.1,2.9,0,0.00214627
0.1,3,0,0.00220898
0.1,3.1,0,0.00226409
0.1,3.2,0,0.00232135
0.1,3.3,0,0.00237649
0.1,3.4,0,0.0024294
0.1,3.5,0,0.00248466
0.1,3.6,0,0.00253148
0.1,3.7,0,0.00258059
0.1,3.8,0,0.0026273
0.1,3.9,0,0.0026715
0.1,4,0,0.00271809
0.1,4.1,0,0.00275565
0.1,4.2,0,0.00279555
0.1,4.3,0,0.0028328
0.1,4.4,0,0.00286729
0.1,4.5,0,0.00290416
0.1,4.6,0,0.00293157
0.1,4.7,0,0.0029613
0.1,4.8,0,0.00298818
0.1,4.9,0,0.00300927
0.1,5,0,0.00303084
0.1,5.1,0,0.00305925
0.1,5.2,0,0.00307752
0.1,5.3,0,0.00309361
0.1,5.4,0,0.0031075
0.1,5.5,0,0.0031192
0.1,5.6,0,0.00312871
0.1,5.7,0,0.00313602
0.1,5.8,0,0.00314115
0.1,5.9,0,0.00314408
0.1,6,0,0.0031445
0.1,6.1,0,0.00313956
0.1,6.2,0,0.00313565
0.1,6.3,0,0.00313228
0.1,6.4,0,0.00312332
0.1,6.5,0,0.00311221
0.1,6.6,0,0.0031013
0.1,6.7,0,0.00308878
0.1,6.8,0,0.00307035
0.1,6.9,0,0.00305261
0.1,7,0,0.00303591
0.1,7.1,0,0.00301097
0.1,7.2,0,0.0029869
0.1,7.3,0,0.00296337
0.1,7.4,0,0.00293533
0.1,7.5,0,0.00290511
0.1,7.6,0,0.00287515
0.1,7.7,0,0.00284454
0.1,7.8,0,0.00280826
0.1,7.9,0,0.00277286
0.1,8,0,0.00273844
0.1,8.1,0,0.00269743
0.1,8.2,0,0.00265708
0.1,8.3,0,0.00261714
0.1,8.4,0,0.00257406
0.1,8.5,0,0.00252892
0.1,8.6,0,0.0024841
0.1,8.7,0,0.00243913
0.1,8.8,0,0.00238951
0.1,8.9,0,0.00234071
0.1,9,0,0.00229257
0.1,9.1,0,0.00223996
0.1,9.2,0,0.00218765
0.1,9.3,0,0.00213558
0.1,9.4,0,0.00208164
0.1,9.5,0,0.002026
0.1,9.6,0,0.00197065
0.1,9.7,0,0.00191535
0.1,9.8,0,0.00185679
0.1,9.9,0,0.00179883
0.1,10,0,0.00174122
0.1,10.1,0,0.001681
0.1,10.2,0,0.00162083
0.1,10.3,0,0.00156076
0.1,10.4,0,0.00149974
0.1,10.5,0,0.00143753
0.1,10.6,0,0.00137552
0.1,10.7,0,0.00131361
0.1,10.8,0,0.00124974
0.1,10.9,0,0.00118624
0.1,11,0,0.00112289
0.1,11.1,0,0.00105822
0.1,11.2,0,0.000993524
0.1,11.3,0,0.000928858
0.1,11.4,0,0.000863785
0.1,11.5,0,0.000798045
0.1,11.6,0,0.000732428
0.1,11.7,0,0.000666876
0.1,11.8,0,0.000600403
0.1,11.9,0,0.000534118
0.1,12,0,0.000467869
0.1,12.1,0,0.000401167
0.1,12.2,0,0.000334439
0.1,12.3,0,0.00026772
0.1,12.4,0,0.000200893
0.1,12.5,0,0.000144249
0.1,12.6,0,9.43879e-05
0.1,12.7,0,4.44869e-05
0.2,0,0,2.89469e-05
0.2,0.1,0,8.89707e-05
0.2,0.2,0,0.000161902
0.2,0.3,0,0.000242607
0.2,0.4,0,0.000323011
0.2,0.5,0,0.000404201
0.2,0.6,0,0.000483508
0.2,0.7,0,0.000563938
0.2,0.8,0,0.000643424
0.2,0.9,0,0.000721994
0.2,1,0,0.000802288
0.2,1.1,0,0.000878839
0.2,1.2,0,0.000957462
0.2,1.3,0,0.00103452
0.2,1.4,0,0.00111004
0.2,1.5,0,0.00118825
0.2,1.6,0,0.00126083
0.2,1.7,0,0.00133643
0.2,1.8,0,0.00140985
0.2,1.9,0,0.0014811
0.2,2,0,0.00155599
0.2,2.1,0,0.00162337
0.2,2.2,0,0.00169472
0.2,2.3,0,0.00176326
0.2,2.4,0,0.00182902
0.2,2.5,0,0.0018993
0.2,2.6,0,0.00196031
0.2,2.7,0,0.00202611
0.2,2.8,0,0.00208855
0.2,2.9,0,0.00214764
0.2,3,0,0.00221196
0.2,3.1,0,0.00226553
0.2,3.2,0,0.0023245
0.2,3.3,0,0.00237964
0.2,3.4,0,0.00243096
0.2,3.5,0,0.00248794
0.2,3.6,0,0.0025331
0.2,3.7,0,0.00258397
0.2,3.8,0,0.00263069
0.2,3.9,0,0.00267322
0.2,4,0,0.00272156
0.2,4.1,0,0.00275743
0.2,4.2,0,0.00279907
0.2,4.3,0,0.00283632
0.2,4.4,0,0.00286914
0.2,4.5,0,0.00290773
0.2,4.6,0,0.00293346
0.2,4.7,0,0.00296494
0.2,4.8,0,0.00299182
0.2,4.9,0,0.00301255
0.2,5,0,0.00303448
0.2,5.1,0,0.00306287
0.2,5.2,0,0.00308116
0.2,5.3,0,0.00309726
0.2,5.4,0,0.00311117
0.2,5.5,0,0.00312288
0.2,5.6,0,0.00313238
0.2,5.7,0,0.00313969
0.2,5.8,0,0.0031448
0.2,5.9,0,0.00314772
0.2,6,0,0.00314819
0.2,6.1,0,0.00314289
0.2,6.2,0,0.0031385
0.2,6.3,0,0.00313597
0.2,6.4,0,0.00312701
0.2,6.5,0,0.00311481
0.2,6.6,0,0.0031049
0.2,6.7,0,0.00309238
0.2,6.8,0,0.00307308
0.2,6.9,0,0.0030557
0.2,7,0,0.00303944
0.2,7.1,0,0.00301416
0.2,7.2,0,0.00298932
0.2,7.3,0,0.00296681
0.2,7.4,0,0.00293876
0.2,7.5,0,0.00290722
0.2,7.6,0,0.00287841
0.2,7.7,0,0.00284781
0.2,7.8,0,0.00281062
0.2,7.9,0,0.00277538
0.2,8,0,0.0027415
0.2,8.1,0,0.00270022
0.2,8.2,0,0.00265889
0.2,8.3,0,0.00261994
0.2,8.4,0,0.00257686
0.2,8.5,0,0.00253049
0.2,8.6,0,0.00248654
0.2,8.7,0,0.00244164
0.2,8.8,0,0.00239134
0.2,8.9,0,0.00234248
0.2,9,0,0.00229478
0.2,9.1,0,0.00224203
0.2,9.2,0,0.00218887
0.2,9.3,0,0.0021375
0.2,9.4,0,0.00208356
0.2,9.5,0,0.00202705
0.2,9.6,0,0.00197221
0.2,9.7,0,0.00191698
0.2,9.8,0,0.00185802
0.2,9.9,0,0.00179991
0.2,10,0,0.0017426
0.2,10.1,0,0.00168233
0.2,10.2,0,0.00162158
0.2,10.3,0,0.0015619
0.2,10.4,0,0.00150087
0.2,10.5,0,0.00143817
0.2,10.6,0,0.00137638
0.2,10.7,0,0.00131453
0.2,10.8,0,0.00125046
0.2,10.9,0,0.00118681
0.2,11,0,0.00112362
0.2,11.1,0,0.00105895
0.2,11.2,0,0.000993914
0.2,11.3,0,0.000929417
0.2,11.4,0,0.000864344
0.2,11.5,0,0.00079837
0.2,11.6,0,0.000732802
0.2,11.7,0,0.000667281
0.2,11.8,0,0.000600726
0.2,11.9,0,0.000534337
0.2,12,0,0.000468133
0.2,12.1,0,0.000401432
0.2,12.2,0,0.000334558
0.2,12.3,0,0.000267852
0.2,12.4,0,0.000201024
0.2,12.5,0,0.000133967
0.2,12.6,0,8.16911e-05
0.2,12.7,0,3.17764e-05
0.3,0,0,1.73682e-05
0.3,0.1,0,8.09317e-05
0.3,0.2,0,0.000162167
0.3,0.3,0,0.000242872
0.3,0.4,0,0.000323575
0.3,0.5,0,0.000404724
0.3,0.6,0,0.000484202
0.3,0.7,0,0.000564719
0.3,0.8,0,0.000644204
0.3,0.9,0,0.000723179
0.3,1,0,0.000803328
0.3,1.1,0,0.000880156
0.3,1.2,0,0.000958764
0.3,1.3,0,0.00103582
0.3,1.4,0,0.00111186
0.3,1.5,0,0.00118982
0.3,1.6,0,0.00126277
0.3,1.7,0,0.00133826
0.3,1.8,0,0.00141168
0.3,1.9,0,0.00148355
0.3,2,0,0.00155808
0.3,2.1,0,0.00162594
0.3,2.2,0,0.00169705
0.3,2.3,0,0.00176559
0.3,2.4,0,0.00183205
0.3,2.5,0,0.00190187
0.3,2.6,0,0.00196346
0.3,2.7,0,0.0020289
0.3,2.8,0,0.00209134
0.3,2.9,0,0.00215118
0.3,3,0,0.00221495
0.3,3.1,0,0.00226915
0.3,3.2,0,0.00232765
0.3,3.3,0,0.0023828
0.3,3.4,0,0.00243485
0.3,3.5,0,0.00249123
0.3,3.6,0,0.00253704
0.3,3.7,0,0.00258736
0.3,3.8,0,0.00263408
0.3,3.9,0,0.00267732
0.3,4,0,0.00272502
0.3,4.1,0,0.00276154
0.3,4.2,0,0.00280259
0.3,4.3,0,0.00283984
0.3,4.4,0,0.00287335
0.3,4.5,0,0.00291131
0.3,4.6,0,0.00293768
0.3,4.7,0,0.00296859
0.3,4.8,0,0.00299547
0.3,4.9,0,0.00301632
0.3,5,0,0.00303812
0.3,5.1,0,0.0030665
0.3,5.2,0,0.0030848
0.3,5.3,0,0.00310092
0.3,5.4,0,0.00311484
0.3,5.5,0,0.00312655
0.3,5.6,0,0.00313605
0.3,5.7,0,0.00314335
0.3,5.8,0,0.00314845
0.3,5.9,0,0.00315136
0.3,6,0,0.00315188
0.3,6.1,0,0.00314659
0.3,6.2,0,0.00314251
0.3,6.3,0,0.00313965
0.3,6.4,0,0.00313069
0.3,6.5,0,0.00311898
0.3,6.6,0,0.0031085
0.3,6.7,0,0.00309598
0.3,6.8,0,0.00307695
0.3,6.9,0,0.00305923
0.3,7,0,0.00304298
0.3,7.1,0,0.0030177
0.3,7.2,0,0.00299323
0.3,7.3,0,0.00297024
0.3,7.4,0,0.0029422
0.3,7.5,0,0.00291121
0.3,7.6,0,0.00288169
0.3,7.7,0,0.00285109
0.3,7.8,0,0.00281409
0.3,7.9,0,0.00277844
0.3,8,0,0.00274456
0.3,8.1,0,0.00270327
0.3,8.2,0,0.00266227
0.3,8.3,0,0.00262274
0.3,8.4,0,0.00257966
0.3,8.5,0,0.00253374
0.3,8.6,0,0.00248906
0.3,8.7,0,0.00244415
0.3,8.8,0,0.00239394
0.3,8.9,0,0.00234474
0.3,9,0,0.002297
0.3,9.1,0,0.00224425
0.3,9.2,0,0.00219129
0.3,9.3,0,0.00213942
0.3,9.4,0,0.00208548
0.3,9.5,0,0.00202926
0.3,9.6,0,0.00197384
0.3,9.7,0,0.00191862
0.3,9.8,0,0.00185968
0.3,9.9,0,0.00180137
0.3,10,0,0.00174397
0.3,10.1,0,0.0016837
0.3,10.2,0,0.00162305
0.3,10.3,0,0.00156303
0.3,10.4,0,0.00150201
0.3,10.5,0,0.00143944
0.3,10.6,0,0.0013773
0.3,10.7,0,0.00131546
0.3,10.8,0,0.00125138
0.3,10.9,0,0.00118762
0.3,11,0,0.00112434
0.3,11.1,0,0.00105968
0.3,11.2,0,0.000994668
0.3,11.3,0,0.000929976
0.3,11.4,0,0.000864903
0.3,11.5,0,0.000798972
0.3,11.6,0,0.000733208
0.3,11.7,0,0.000667687
0.3,11.8,0,0.000601131
0.3,11.9,0,0.000534651
0.3,12,0,0.000468398
0.3,12.1,0,0.000401696
0.3,12.2,0,0.000334791
0.3,12.3,0,0.000267983
0.3,12.4,0,0.000201156
0.3,12.5,0,0.000134086
0.3,12.6,0,6.89806e-05
0.3,12.7,0,1.90658e-05
0.4,0,0,5.78939e-06
0.4,0.1,0,8.11518e-05
0.4,0.2,0,0.000162414
0.4,0.3,0,0.000243295
0.4,0.4,0,0.000324236
0.4,0.5,0,0.000405247
0.4,0.6,0,0.000485293
0.4,0.7,0,0.000565623
0.4,0.8,0,0.000645282
0.4,0.9,0,0.000724703
0.4,1,0,0.000804367
0.4,1.1,0,0.000882118
0.4,1.2,0,0.000960329
0.4,1.3,0,0.00103756
0.4,1.4,0,0.00111426
0.4,1.5,0,0.00119138
0.4,1.6,0,0.00126562
0.4,1.7,0,0.0013405
0.4,1.8,0,0.00141409
0.4,1.9,0,0.00148683
0.4,2,0,0.00156017
0.4,2.1,0,0.00162965
0.4,2.2,0,0.00169994
0.4,2.3,0,0.00176864
0.4,2.4,0,0.00183616
0.4,2.5,0,0.00190445
0.4,2.6,0,0.00196793
0.4,2.7,0,0.00203237
0.4,2.8,0,0.00209494
0.4,2.9,0,0.00215598
0.4,3,0,0.00221793
0.4,3.1,0,0.00227423
0.4,3.2,0,0.00233157
0.4,3.3,0,0.00238681
0.4,3.4,0,0.00244016
0.4,3.5,0,0.00249451
0.4,3.6,0,0.0025425
0.4,3.7,0,0.00259158
0.4,3.8,0,0.00263834
0.4,3.9,0,0.00268289
0.4,4,0,0.00272849
0.4,4.1,0,0.00276718
0.4,4.2,0,0.00280696
0.4,4.3,0,0.00284423
0.4,4.4,0,0.00287903
0.4,4.5,0,0.00291489
0.4,4.6,0,0.00294344
0.4,4.7,0,0.00297307
0.4,4.8,0,0.00299928
0.4,4.9,0,0.00302041
0.4,5,0,0.00304175
0.4,5.1,0,0.00307012
0.4,5.2,0,0.00308844
0.4,5.3,0,0.00310458
0.4,5.4,0,0.0031185
0.4,5.5,0,0.00313022
0.4,5.6,0,0.00313973
0.4,5.7,0,0.00314702
0.4,5.8,0,0.0031521
0.4,5.9,0,0.003155
0.4,6,0,0.00315558
0.4,6.1,0,0.00315114
0.4,6.2,0,0.00314723
0.4,6.3,0,0.00314334
0.4,6.4,0,0.00313475
0.4,6.5,0,0.00312367
0.4,6.6,0,0.00311258
0.4,6.7,0,0.00309958
0.4,6.8,0,0.00308165
0.4,6.9,0,0.00306383
0.4,7,0,0.00304652
0.4,7.1,0,0.00302213
0.4,7.2,0,0.00299793
0.4,7.3,0,0.00297372
0.4,7.4,0,0.00294599
0.4,7.5,0,0.00291581
0.4,7.6,0,0.00288563
0.4,7.7,0,0.00285436
0.4,7.8,0,0.00281849
0.4,7.9,0,0.00278281
0.4,8,0,0.00274761
0.4,8.1,0,0.00270707
0.4,8.2,0,0.00266638
0.4,8.3,0,0.00262568
0.4,8.4,0,0.00258268
0.4,8.5,0,0.00253748
0.4,8.6,0,0.00249228
0.4,8.7,0,0.00244667
0.4,8.8,0,0.00239728
0.4,8.9,0,0.00234808
0.4,9,0,0.00229921
0.4,9.1,0,0.00224691
0.4,9.2,0,0.00219421
0.4,9.3,0,0.00214151
0.4,9.4,0,0.0020875
0.4,9.5,0,0.00203177
0.4,9.6,0,0.00197604
0.4,9.7,0,0.00192026
0.4,9.8,0,0.0018618
0.4,9.9,0,0.00180349
0.4,10,0,0.00174534
0.4,10.1,0,0.0016853
0.4,10.2,0,0.00162481
0.4,10.3,0,0.00156432
0.4,10.4,0,0.00150318
0.4,10.5,0,0.00144088
0.4,10.6,0,0.00137859
0.4,10.7,0,0.00131638
0.4,10.8,0,0.00125253
0.4,10.9,0,0.00118877
0.4,11,0,0.00112507
0.4,11.1,0,0.0010605
0.4,11.2,0,0.000995567
0.4,11.3,0,0.000930639
0.4,11.4,0,0.000865466
0.4,11.5,0,0.000799643
0.4,11.6,0,0.000733819
0.4,11.7,0,0.000668092
0.4,11.8,0,0.000601592
0.4,11.9,0,0.000535117
0.4,12,0,0.000468662
0.4,12.1,0,0.000401966
0.4,12.2,0,0.000335068
0.4,12.3,0,0.000268169
0.4,12.4,0,0.000201287
0.4,12.5,0,0.000134177
0.4,12.6,0,6.70657e-05
0.4,12.7,0,6.35527e-06
0.5,0,0,0
0.5,0.1,0,8.1422e-05
0.5,0.2,0,0.000162684
0.5,0.3,0,0.000244084
0.5,0.4,0,0.000325025
0.5,0.5,0,0.000406277
0.5,0.6,0,0.000486595
0.5,0.7,0,0.000566926
0.5,0.8,0,0.000647101
0.5,0.9,0,0.000726522
0.5,1,0,0.000806416
0.5,1.1,0,0.000884458
0.5,1.2,0,0.00096267
0.5,1.3,0,0.00104043
0.5,1.4,0,0.00111713
0.5,1.5,0,0.00119447
0.5,1.6,0,0.00126902
0.5,1.7,0,0.00134389
0.5,1.8,0,0.001418
0.5,1.9,0,0.00149075
0.5,2,0,0.00156431
0.5,2.1,0,0.00163408
0.5,2.2,0,0.00170437
0.5,2.3,0,0.00177356
0.5,2.4,0,0.00184108
0.5,2.5,0,0.00190962
0.5,2.6,0,0.00197331
0.5,2.7,0,0.00203775
0.5,2.8,0,0.00210074
0.5,2.9,0,0.00216178
0.5,3,0,0.00222409
0.5,3.1,0,0.00228038
0.5,3.2,0,0.00233772
0.5,3.3,0,0.00239326
0.5,3.4,0,0.00244661
0.5,3.5,0,0.00250153
0.5,3.6,0,0.00254919
0.5,3.7,0,0.00259827
0.5,3.8,0,0.0026452
0.5,3.9,0,0.00268975
0.5,4,0,0.00273621
0.5,4.1,0,0.00277417
0.5,4.2,0,0.00281395
0.5,4.3,0,0.00285132
0.5,4.4,0,0.00288613
0.5,4.5,0,0.00292315
0.5,4.6,0,0.00295065
0.5,4.7,0,0.00298028
0.5,4.8,0,0.00300663
0.5,4.9,0,0.00302776
0.5,5,0,0.00305039
0.5,5.1,0,0.00307884
0.5,5.2,0,0.0030972
0.5,5.3,0,0.00311337
0.5,5.4,0,0.00312732
0.5,5.5,0,0.00313904
0.5,5.6,0,0.00314854
0.5,5.7,0,0.00315581
0.5,5.8,0,0.00316086
0.5,5.9,0,0.00316371
0.5,6,0,0.0031642
0.5,6.1,0,0.00315864
0.5,6.2,0,0.00315472
0.5,6.3,0,0.00315089
0.5,6.4,0,0.003142
0.5,6.5,0,0.00313091
0.5,6.6,0,0.00311983
0.5,6.7,0,0.00310691
0.5,6.8,0,0.0030888
0.5,6.9,0,0.00307098
0.5,7,0,0.00305418
0.5,7.1,0,0.00302913
0.5,7.2,0,0.00300493
0.5,7.3,0,0.00298072
0.5,7.4,0,0.00295272
0.5,7.5,0,0.00292255
0.5,7.6,0,0.00289237
0.5,7.7,0,0.00286087
0.5,7.8,0,0.00282485
0.5,7.9,0,0.00278917
0.5,8,0,0.0027539
0.5,8.1,0,0.00271295
0.5,8.2,0,0.00267225
0.5,8.3,0,0.00263156
0.5,8.4,0,0.00258801
0.5,8.5,0,0.0025428
0.5,8.6,0,0.0024976
0.5,8.7,0,0.00245154
0.5,8.8,0,0.00240201
0.5,8.9,0,0.00235281
0.5,9,0,0.00230376
0.5,9.1,0,0.00225104
0.5,9.2,0,0.00219834
0.5,9.3,0,0.00214564
0.5,9.4,0,0.00209104
0.5,9.5,0,0.00203531
0.5,9.6,0,0.00197958
0.5,9.7,0,0.00192342
0.5,9.8,0,0.0018648
0.5,9.9,0,0.00180649
0.5,10,0,0.00174823
0.5,10.1,0,0.00168779
0.5,10.2,0,0.0016273
0.5,10.3,0,0.00156681
0.5,10.4,0,0.00150522
0.5,10.5,0,0.00144293
0.5,10.6,0,0.00138063
0.5,10.7,0,0.00131817
0.5,10.8,0,0.00125417
0.5,10.9,0,0.00119041
0.5,11,0,0.00112666
0.5,11.1,0,0.00106177
0.5,11.2,0,0.000996846
0.5,11.3,0,0.000931918
0.5,11.4,0,0.000866423
0.5,11.5,0,0.0008006
0.5,11.6,0,0.000734776
0.5,11.7,0,0.000668887
0.5,11.8,0,0.000602256
0.5,11.9,0,0.000535782
0.5,12,0,0.000469301
0.5,12.1,0,0.000402359
0.5,12.2,0,0.000335461
0.5,12.3,0,0.000268562
0.5,12.4,0,0.000201428
0.5,12.5,0,0.00013431
0.5,12.6,0,6.71988e-05
0.5,12.7,0,0
0.6,0,0,0
0.6,0.1,0,8.17423e-05
0.6,0.2,0,0.00016328
0.6,0.3,0,0.000244919
0.6,0.4,0,0.000325942
0.6,0.5,0,0.000407816
0.6,0.6,0,0.000488109
0.6,0.7,0,0.000568909
0.6,0.8,0,0.000649323
0.6,0.9,0,0.000728634
0.6,1,0,0.000809475
0.6,1.1,0,0.000887176
0.6,1.2,0,0.000966055
0.6,1.3,0,0.00104406
0.6,1.4,0,0.00112046
0.6,1.5,0,0.00119908
0.6,1.6,0,0.00127296
0.6,1.7,0,0.00134871
0.6,1.8,0,0.00142307
0.6,1.9,0,0.0014953
0.6,2,0,0.0015705
0.6,2.1,0,0.00163923
0.6,2.2,0,0.00171062
0.6,2.3,0,0.00178004
0.6,2.4,0,0.00184681
0.6,2.5,0,0.0019174
0.6,2.6,0,0.00197959
0.6,2.7,0,0.00204539
0.6,2.8,0,0.00210858
0.6,2.9,0,0.00216856
0.6,3,0,0.0022334
0.6,3.1,0,0.0022876
0.6,3.2,0,0.00234664
0.6,3.3,0,0.00240233
0.6,3.4,0,0.00245421
0.6,3.5,0,0.00251227
0.6,3.6,0,0.0025571
0.6,3.7,0,0.00260826
0.6,3.8,0,0.0026553
0.6,3.9,0,0.00269791
0.6,4,0,0.00274819
0.6,4.1,0,0.00278252
0.6,4.2,0,0.00282479
0.6,4.3,0,0.00286222
0.6,4.4,0,0.00289463
0.6,4.5,0,0.00293609
0.6,4.6,0,0.00295932
0.6,4.7,0,0.00299175
0.6,4.8,0,0.00301887
0.6,4.9,0,0.00303837
0.6,5,0,0.00306402
0.6,5.1,0,0.00309264
0.6,5.2,0,0.00311108
0.6,5.3,0,0.0031273
0.6,5.4,0,0.00314127
0.6,5.5,0,0.003153
0.6,5.6,0,0.00316249
0.6,5.7,0,0.00316972
0.6,5.8,0,0.00317472
0.6,5.9,0,0.00317749
0.6,6,0,0.00317775
0.6,6.1,0,0.00316941
0.6,6.2,0,0.00316498
0.6,6.3,0,0.00316401
0.6,6.4,0,0.00315389
0.6,6.5,0,0.00314073
0.6,6.6,0,0.0031312
0.6,6.7,0,0.0031195
0.6,6.8,0,0.0030984
0.6,6.9,0,0.00308079
0.6,7,0,0.00306613
0.6,7.1,0,0.00303903
0.6,7.2,0,0.00301423
0.6,7.3,0,0.00299185
0.6,7.4,0,0.00296321
0.6,7.5,0,0.00293142
0.6,7.6,0,0.00290197
0.6,7.7,0,0.00287122
0.6,7.8,0,0.00283317
0.6,7.9,0,0.00279751
0.6,8,0,0.00276334
0.6,8.1,0,0.00272113
0.6,8.2,0,0.00267991
0.6,8.3,0,0.00263997
0.6,8.4,0,0.00259613
0.6,8.5,0,0.00254971
0.6,8.6,0,0.00250478
0.6,8.7,0,0.0024591
0.6,8.8,0,0.00240813
0.6,8.9,0,0.00235893
0.6,9,0,0.00231038
0.6,9.1,0,0.00225684
0.6,9.2,0,0.00220368
0.6,9.3,0,0.0021513
0.6,9.4,0,0.00209658
0.6,9.5,0,0.0020399
0.6,9.6,0,0.00198428
0.6,9.7,0,0.00192831
0.6,9.8,0,0.00186868
0.6,9.9,0,0.00181037
0.6,10,0,0.00175234
0.6,10.1,0,0.0016914
0.6,10.2,0,0.00163053
0.6,10.3,0,0.00157018
0.6,10.4,0,0.00150855
0.6,10.5,0,0.00144558
0.6,10.6,0,0.00138332
0.6,10.7,0,0.00132094
0.6,10.8,0,0.00125631
0.6,10.9,0,0.00119254
0.6,11,0,0.00112886
0.6,11.1,0,0.0010637
0.6,11.2,0,0.000998506
0.6,11.3,0,0.000933596
0.6,11.4,0,0.000868093
0.6,11.5,0,0.000801842
0.6,11.6,0,0.000736015
0.6,11.7,0,0.00067011
0.6,11.8,0,0.000603152
0.6,11.9,0,0.000536645
0.6,12,0,0.0004701
0.6,12.1,0,0.000403031
0.6,12.2,0,0.000335971
0.6,12.3,0,0.000269002
0.6,12.4,0,0.000201826
0.6,12.5,0,0.000134485
0.6,12.6,0,6.73463e-05
0.6,12.7,0,0
0.7,0,0,0
0.7,0.1,0,8.18384e-05
0.7,0.2,0,0.00016406
0.7,0.3,0,0.000245699
0.7,0.4,0,0.000327295
0.7,0.5,0,0.000409355
0.7,0.6,0,0.00048964
0.7,0.7,0,0.000571204
0.7,0.8,0,0.000651619
0.7,0.9,0,0.000731409
0.7,1,0,0.000812534
0.7,1.1,0,0.000890133
0.7,1.2,0,0.000969886
0.7,1.3,0,0.00104789
0.7,1.4,0,0.00112468
0.7,1.5,0,0.00120369
0.7,1.6,0,0.00127737
0.7,1.7,0,0.00135411
0.7,1.8,0,0.00142846
0.7,1.9,0,0.001501
0.7,2,0,0.00157669
0.7,2.1,0,0.00164511
0.7,2.2,0,0.00171761
0.7,2.3,0,0.00178703
0.7,2.4,0,0.00185397
0.7,2.5,0,0.00192518
0.7,2.6,0,0.00198692
0.7,2.7,0,0.00205395
0.7,2.8,0,0.00211714
0.7,2.9,0,0.00217711
0.7,3,0,0.00224272
0.7,3.1,0,0.00229629
0.7,3.2,0,0.00235669
0.7,3.3,0,0.00241238
0.7,3.4,0,0.00246401
0.7,3.5,0,0.00252302
0.7,3.6,0,0.00256699
0.7,3.7,0,0.00261965
0.7,3.8,0,0.00266669
0.7,3.9,0,0.00270874
0.7,4,0,0.00276016
0.7,4.1,0,0.00279341
0.7,4.2,0,0.00283729
0.7,4.3,0,0.00287472
0.7,4.4,0,0.00290624
0.7,4.5,0,0.00294903
0.7,4.6,0,0.00297099
0.7,4.7,0,0.00300507
0.7,4.8,0,0.0030322
0.7,4.9,0,0.00305109
0.7,5,0,0.00307764
0.7,5.1,0,0.00310643
0.7,5.2,0,0.00312496
0.7,5.3,0,0.00314122
0.7,5.4,0,0.00315523
0.7,5.5,0,0.00316697
0.7,5.6,0,0.00317644
0.7,5.7,0,0.00318364
0.7,5.8,0,0.00318858
0.7,5.9,0,0.00319126
0.7,6,0,0.00319131
0.7,6.1,0,0.00318297
0.7,6.2,0,0.00317721
0.7,6.3,0,0.00317714
0.7,6.4,0,0.00316702
0.7,6.5,0,0.00315208
0.7,6.6,0,0.00314378
0.7,6.7,0,0.00313208
0.7,6.8,0,0.00311025
0.7,6.9,0,0.00309274
0.7,7,0,0.00307808
0.7,7.1,0,0.00305098
0.7,7.2,0,0.00302471
0.7,7.3,0,0.00300305
0.7,7.4,0,0.00297441
0.7,7.5,0,0.00294134
0.7,7.6,0,0.00291233
0.7,7.7,0,0.00288158
0.7,7.8,0,0.00284316
0.7,7.9,0,0.00280696
0.7,8,0,0.00277279
0.7,8.1,0,0.00273058
0.7,8.2,0,0.00268803
0.7,8.3,0,0.00264848
0.7,8.4,0,0.00260464
0.7,8.5,0,0.00255734
0.7,8.6,0,0.00251234
0.7,8.7,0,0.00246666
0.7,8.8,0,0.00241553
0.7,8.9,0,0.00236553
0.7,9,0,0.00231701
0.7,9.1,0,0.00226347
0.7,9.2,0,0.00220923
0.7,9.3,0,0.00215704
0.7,9.4,0,0.00210231
0.7,9.5,0,0.00204505
0.7,9.6,0,0.00198918
0.7,9.7,0,0.0019332
0.7,9.8,0,0.00187353
0.7,9.9,0,0.00181446
0.7,10,0,0.00175646
0.7,10.1,0,0.00169552
0.7,10.2,0,0.00163391
0.7,10.3,0,0.00157359
0.7,10.4,0,0.00151196
0.7,10.5,0,0.00144865
0.7,10.6,0,0.00138609
0.7,10.7,0,0.00132371
0.7,10.8,0,0.00125908
0.7,10.9,0,0.00119472
0.7,11,0,0.00113106
0.7,11.1,0,0.0010659
0.7,11.2,0,0.00100026
0.7,11.3,0,0.000935283
0.7,11.4,0,0.00086978
0.7,11.5,0,0.00080336
0.7,11.6,0,0.000737238
0.7,11.7,0,0.000671334
0.7,11.8,0,0.000604376
0.7,11.9,0,0.00053746
0.7,12,0,0.000470899
0.7,12.1,0,0.00040383
0.7,12.2,0,0.000336512
0.7,12.3,0,0.000269399
0.7,12.4,0,0.000202223
0.7,12.5,0,0.000134813
0.7,12.6,0,6.73463e-05
0.7,12.7,0,0
0.8,0,0,0
0.8,0.1,0,8.22062e-05
0.8,0.2,0,0.00016484
0.8,0.3,0,0.000246479
0.8,0.4,0,0.000328724
0.8,0.5,0,0.000410894
0.8,0.6,0,0.000491805
0.8,0.7,0,0.0005735
0.8,0.8,0,0.000653914
0.8,0.9,0,0.000734614
0.8,1,0,0.000815593
0.8,1.1,0,0.000894081
0.8,1.2,0,0.000973717
0.8,1.3,0,0.00105172
0.8,1.4,0,0.0011297
0.8,1.5,0,0.0012083
0.8,1.6,0,0.00128315
0.8,1.7,0,0.00135951
0.8,1.8,0,0.00143386
0.8,1.9,0,0.00150787
0.8,2,0,0.00158288
0.8,2.1,0,0.00165277
0.8,2.2,0,0.00172459
0.8,2.3,0,0.00179402
0.8,2.4,0,0.00186275
0.8,2.5,0,0.00193295
0.8,2.6,0,0.00199652
0.8,2.7,0,0.00206251
0.8,2.8,0,0.0021257
0.8,2.9,0,0.00218785
0.8,3,0,0.00225204
0.8,3.1,0,0.00230787
0.8,3.2,0,0.00236674
0.8,3.3,0,0.00242243
0.8,3.4,0,0.00247671
0.8,3.5,0,0.00253376
0.8,3.6,0,0.00258052
0.8,3.7,0,0.00263105
0.8,3.8,0,0.00267808
0.8,3.9,0,0.0027233
0.8,4,0,0.00277214
0.8,4.1,0,0.00280871
0.8,4.2,0,0.00284979
0.8,4.3,0,0.00288722
0.8,4.4,0,0.00292238
0.8,4.5,0,0.00296198
0.8,4.6,0,0.00298765
0.8,4.7,0,0.0030184
0.8,4.8,0,0.00304552
0.8,4.9,0,0.00306689
0.8,5,0,0.00309127
0.8,5.1,0,0.00312023
0.8,5.2,0,0.00313884
0.8,5.3,0,0.00315515
0.8,5.4,0,0.00316918
0.8,5.5,0,0.00318093
0.8,5.6,0,0.00319039
0.8,5.7,0,0.00319756
0.8,5.8,0,0.00320244
0.8,5.9,0,0.00320504
0.8,6,0,0.00320487
0.8,6.1,0,0.00319751
0.8,6.2,0,0.00319302
0.8,6.3,0,0.00319027
0.8,6.4,0,0.00318015
0.8,6.5,0,0.00316799
0.8,6.6,0,0.00315637
0.8,6.7,0,0.00314467
0.8,6.8,0,0.00312459
0.8,6.9,0,0.00310592
0.8,7,0,0.00309003
0.8,7.1,0,0.00306345
0.8,7.2,0,0.00303823
0.8,7.3,0,0.00301424
0.8,7.4,0,0.0029856
0.8,7.5,0,0.00295401
0.8,7.6,0,0.0029227
0.8,7.7,0,0.00289193
0.8,7.8,0,0.00285428
0.8,7.9,0,0.00281738
0.8,8,0,0.00278224
0.8,8.1,0,0.0027402
0.8,8.2,0,0.00269824
0.8,8.3,0,0.00265699
0.8,8.4,0,0.00261315
0.8,8.5,0,0.0025665
0.8,8.6,0,0.00252002
0.8,8.7,0,0.00247422
0.8,8.8,0,0.00242339
0.8,8.9,0,0.00237294
0.8,9,0,0.00232364
0.8,9.1,0,0.00227015
0.8,9.2,0,0.00221625
0.8,9.3,0,0.00216277
0.8,9.4,0,0.00210805
0.8,9.5,0,0.00205109
0.8,9.6,0,0.00199423
0.8,9.7,0,0.0019381
0.8,9.8,0,0.00187855
0.8,9.9,0,0.0018192
0.8,10,0,0.00176058
0.8,10.1,0,0.00169965
0.8,10.2,0,0.00163821
0.8,10.3,0,0.001577
0.8,10.4,0,0.00151537
0.8,10.5,0,0.00145217
0.8,10.6,0,0.00138902
0.8,10.7,0,0.00132648
0.8,10.8,0,0.00126189
0.8,10.9,0,0.00119736
0.8,11,0,0.00113326
0.8,11.1,0,0.0010681
0.8,11.2,0,0.00100248
0.8,11.3,0,0.00093697
0.8,11.4,0,0.000871467
0.8,11.5,0,0.00080503
0.8,11.6,0,0.000738585
0.8,11.7,0,0.000672558
0.8,11.8,0,0.000605573
0.8,11.9,0,0.000538528
0.8,12,0,0.000471697
0.8,12.1,0,0.000404628
0.8,12.2,0,0.000337198
0.8,12.3,0,0.000269797
0.8,12.4,0,0.00020262
0.8,12.5,0,0.000135068
0.8,12.6,0,6.74227e-05
0.8,12.7,0,0
0.9,0,0,0
0.9,0.1,0,8.2666e-05
0.9,0.2,0,0.000165332
0.9,0.3,0,0.000247819
0.9,0.4,0,0.000330126
0.9,0.5,0,0.000412433
0.9,0.6,0,0.000494126
0.9,0.7,0,0.000575818
0.9,0.8,0,0.000657062
0.9,0.9,0,0.000737856
0.9,1,0,0.000818651
0.9,1.1,0,0.000898252
0.9,1.2,0,0.000977853
0.9,1.3,0,0.00105671
0.9,1.4,0,0.00113481
0.9,1.5,0,0.00121291
0.9,1.6,0,0.00128921
0.9,1.7,0,0.0013655
0.9,1.8,0,0.00144074
0.9,1.9,0,0.0015149
0.9,2,0,0.00158907
0.9,2.1,0,0.00166079
0.9,2.2,0,0.00173251
0.9,2.3,0,0.00180284
0.9,2.4,0,0.00187179
0.9,2.5,0,0.00194073
0.9,2.6,0,0.00200657
0.9,2.7,0,0.00207241
0.9,2.8,0,0.00213654
0.9,2.9,0,0.00219895
0.9,3,0,0.00226136
0.9,3.1,0,0.00232002
0.9,3.2,0,0.00237868
0.9,3.3,0,0.00243531
0.9,3.4,0,0.00248991
0.9,3.5,0,0.00254451
0.9,3.6,0,0.00259475
0.9,3.7,0,0.00264499
0.9,3.8,0,0.00269291
0.9,3.9,0,0.00273851
0.9,4,0,0.00278412
0.9,4.1,0,0.00282483
0.9,4.2,0,0.00286555
0.9,4.3,0,0.00290371
0.9,4.4,0,0.00293931
0.9,4.5,0,0.00297492
0.9,4.6,0,0.00300524
0.9,4.7,0,0.00303556
0.9,4.8,0,0.00306156
0.9,4.9,0,0.00308323
0.9,5,0,0.0031049
0.9,5.1,0,0.00313403
0.9,5.2,0,0.00315272
0.9,5.3,0,0.00316908
0.9,5.4,0,0.00318314
0.9,5.5,0,0.0031949
0.9,5.6,0,0.00320434
0.9,5.7,0,0.00321147
0.9,5.8,0,0.0032163
0.9,5.9,0,0.00321881
0.9,6,0,0.00321842
0.9,6.1,0,0.00321393
0.9,6.2,0,0.00320944
0.9,6.3,0,0.00320495
0.9,6.4,0,0.0031957
0.9,6.5,0,0.00318389
0.9,6.6,0,0.00317208
0.9,6.7,0,0.0031582
0.9,6.8,0,0.00313953
0.9,6.9,0,0.00312085
0.9,7,0,0.00310217
0.9,7.1,0,0.00307729
0.9,7.2,0,0.00305207
0.9,7.3,0,0.00302686
0.9,7.4,0,0.00299799
0.9,7.5,0,0.00296668
0.9,7.6,0,0.00293537
0.9,7.7,0,0.00290267
0.9,7.8,0,0.00286577
0.9,7.9,0,0.00282887
0.9,8,0,0.00279197
0.9,8.1,0,0.00275051
0.9,8.2,0,0.00270855
0.9,8.3,0,0.00266659
0.9,8.4,0,0.00262214
0.9,8.5,0,0.00257566
0.9,8.6,0,0.00252918
0.9,8.7,0,0.00248191
0.9,8.8,0,0.00243146
0.9,8.9,0,0.00238101
0.9,9,0,0.00233055
0.9,9.1,0,0.00227717
0.9,9.2,0,0.00222327
0.9,9.3,0,0.00216937
0.9,9.4,0,0.00211399
0.9,9.5,0,0.00205713
0.9,9.6,0,0.00200027
0.9,9.7,0,0.00194304
0.9,9.8,0,0.00188368
0.9,9.9,0,0.00182432
0.9,10,0,0.00176497
0.9,10.1,0,0.00170394
0.9,10.2,0,0.0016425
0.9,10.3,0,0.00158106
0.9,10.4,0,0.00151885
0.9,10.5,0,0.0014557
0.9,10.6,0,0.00139255
0.9,10.7,0,0.00132926
0.9,10.8,0,0.00126473
0.9,10.9,0,0.0012002
0.9,11,0,0.00113567
0.9,11.1,0,0.00107033
0.9,11.2,0,0.00100471
0.9,11.3,0,0.000939092
0.9,11.4,0,0.000873144
0.9,11.5,0,0.000806698
0.9,11.6,0,0.000740252
0.9,11.7,0,0.000673777
0.9,11.8,0,0.000606732
0.9,11.9,0,0.000539686
0.9,12,0,0.000472641
0.9,12.1,0,0.000405321
0.9,12.2,0,0.000337884
0.9,12.3,0,0.000270446
0.9,12.4,0,0.000202936
0.9,12.5,0,0.00013529
0.9,12.6,0,6.76452e-05
0.9,12.7,0,0
1,0,0,0
1,0.1,0,8.32591e-05
1,0.2,0,0.000165997
1,0.3,0,0.00024945
1,0.4,0,0.000331793
1,0.5,0,0.000415026
1,0.6,0,0.000496864
1,0.7,0,0.000578671
1,0.8,0,0.000660889
1,0.9,0,0.000741678
1,1,0,0.000823825
1,1.1,0,0.00090317
1,1.2,0,0.000982929
1,1.3,0,0.00106278
1,1.4,0,0.00114084
1,1.5,0,0.00122074
1,1.6,0,0.00129637
1,1.7,0,0.00137287
1,1.8,0,0.00144913
1,1.9,0,0.00152321
1,2,0,0.00159964
1,2.1,0,0.00167027
1,2.2,0,0.00174223
1,2.3,0,0.00181363
1,2.4,0,0.00188245
1,2.5,0,0.00195408
1,2.6,0,0.00201844
1,2.7,0,0.00208457
1,2.8,0,0.00214979
1,2.9,0,0.00221204
1,3,0,0.00227746
1,3.1,0,0.00233434
1,3.2,0,0.00239331
1,3.3,0,0.00245104
1,3.4,0,0.00250545
1,3.5,0,0.0025632
1,3.6,0,0.00261147
1,3.7,0,0.00266203
1,3.8,0,0.00271097
1,3.9,0,0.00275637
1,4,0,0.00280506
1,4.1,0,0.00284374
1,4.2,0,0.00288475
1,4.3,0,0.00292374
1,4.4,0,0.00295914
1,4.5,0,0.0029976
1,4.6,0,0.0030258
1,4.7,0,0.0030564
1,4.8,0,0.00308456
1,4.9,0,0.0031062
1,5,0,0.00312856
1,5.1,0,0.00315783
1,5.2,0,0.0031766
1,5.3,0,0.00319303
1,5.4,0,0.00320713
1,5.5,0,0.0032189
1,5.6,0,0.00322833
1,5.7,0,0.00323542
1,5.8,0,0.00324018
1,5.9,0,0.00324261
1,6,0,0.00324207
1,6.1,0,0.00323606
1,6.2,0,0.00323157
1,6.3,0,0.00322761
1,6.4,0,0.00321706
1,6.5,0,0.00320499
1,6.6,0,0.00319325
1,6.7,0,0.00317949
1,6.8,0,0.00315948
1,6.9,0,0.0031408
1,7,0,0.00312305
1,7.1,0,0.00309584
1,7.2,0,0.00307063
1,7.3,0,0.00304585
1,7.4,0,0.0030155
1,7.5,0,0.00298371
1,7.6,0,0.0029524
1,7.7,0,0.00291975
1,7.8,0,0.00288122
1,7.9,0,0.00284432
1,8,0,0.00280809
1,8.1,0,0.00276438
1,8.2,0,0.00272242
1,8.3,0,0.00268072
1,8.4,0,0.00263503
1,8.5,0,0.00258798
1,8.6,0,0.0025415
1,8.7,0,0.0024942
1,8.8,0,0.00244228
1,8.9,0,0.00239183
1,9,0,0.00234168
1,9.1,0,0.00228656
1,9.2,0,0.00223266
1,9.3,0,0.00217884
1,9.4,0,0.00212257
1,9.5,0,0.00206519
1,9.6,0,0.00200833
1,9.7,0,0.00195097
1,9.8,0,0.00189051
1,9.9,0,0.00183115
1,10,0,0.00177184
1,10.1,0,0.00170964
1,10.2,0,0.0016482
1,10.3,0,0.00158676
1,10.4,0,0.00152393
1,10.5,0,0.00146038
1,10.6,0,0.00139723
1,10.7,0,0.00133376
1,10.8,0,0.00126849
1,10.9,0,0.00120396
1,11,0,0.00113936
1,11.1,0,0.00107326
1,11.2,0,0.00100764
1,11.3,0,0.000941999
1,11.4,0,0.000875616
1,11.5,0,0.000808893
1,11.6,0,0.000742447
1,11.7,0,0.000675767
1,11.8,0,0.000608256
1,11.9,0,0.000541211
1,12,0,0.000474043
1,12.1,0,0.00040625
1,12.2,0,0.000338788
1,12.3,0,0.000271319
1,12.4,0,0.00020343
1,12.5,0,0.000135604
1,12.6,0,6.79587e-05
1,12.7,0,0
1.1,0,0,0
1.1,0.1,0,8.37336e-05
1.1,0.2,0,0.000167308
1.1,0.3,0,0.000250761
1.1,0.4,0,0.000333645
1.1,0.5,0,0.000417619
1.1,0.6,0,0.000499574
1.1,0.7,0,0.000582546
1.1,0.8,0,0.000664764
1.1,0.9,0,0.00074577
1.1,1,0,0.000828999
1.1,1.1,0,0.000908139
1.1,1.2,0,0.00098942
1.1,1.3,0,0.00106927
1.1,1.4,0,0.00114723
1.1,1.5,0,0.00122857
1.1,1.6,0,0.00130366
1.1,1.7,0,0.00138206
1.1,1.8,0,0.00145832
1.1,1.9,0,0.00153197
1.1,2,0,0.00161021
1.1,2.1,0,0.00167996
1.1,2.2,0,0.00175419
1.1,2.3,0,0.00182559
1.1,2.4,0,0.00189365
1.1,2.5,0,0.00196744
1.1,2.6,0,0.00203061
1.1,2.7,0,0.00209931
1.1,2.8,0,0.00216453
1.1,2.9,0,0.00222573
1.1,3,0,0.00229357
1.1,3.1,0,0.00234901
1.1,3.2,0,0.00241074
1.1,3.3,0,0.00246846
1.1,3.4,0,0.00252162
1.1,3.5,0,0.00258189
1.1,3.6,0,0.00262859
1.1,3.7,0,0.0026819
1.1,3.8,0,0.00273084
1.1,3.9,0,0.00277485
1.1,4,0,0.002826
1.1,4.1,0,0.00286305