/*--------------------------------*- C++ -*----------------------------------*\
| =========                 |                                                 |
| \\      /  F ield         | OpenFOAM: The Open Source CFD Toolbox           |
|  \\    /   O peration     | Version:  v1806                                 |
|   \\  /    A nd           | Web:      www.OpenFOAM.com                      |
|    \\/     M anipulation  |                                                 |
\*---------------------------------------------------------------------------*/
FoamFile
{
    version     2.0;
    format      ascii;
    class       volVectorField;
    location    "310";
    object      U;
}
// * * * * * * * * * * * * * * * * * * * * * * * * * * * * * * * * * * * * * //

dimensions      [0 1 -1 0 0 0 0];


internalField   nonuniform List<vector> 
5052
(
(0.138462 -0.0903273 -0.00165246)
(0.138423 -0.0903154 -2.43689e-07)
(0.138423 -0.0903154 2.43689e-07)
(0.138462 -0.0903273 0.00165246)
(0.101588 -0.0916741 -0.00155559)
(0.101611 -0.0916523 -9.40385e-09)
(0.101611 -0.0916523 9.40406e-09)
(0.101588 -0.0916741 0.00155559)
(0.0983801 -0.0717486 -0.00173262)
(0.0983391 -0.071762 -3.2912e-07)
(0.0983391 -0.071762 3.2912e-07)
(0.0983801 -0.0717486 0.00173262)
(-0.016293 -0.011581 0.000266849)
(-0.0163077 -0.0115886 -1.16863e-08)
(-0.0163077 -0.0115886 1.16889e-08)
(-0.016293 -0.011581 -0.000266849)
(0.0404408 -0.0284115 0.000266259)
(0.0404547 -0.0283934 5.72983e-08)
(0.0404547 -0.0283934 -5.72967e-08)
(0.0404408 -0.0284115 -0.000266259)
(0.0120758 -0.0135981 0.000263304)
(0.0120819 -0.0135702 5.13414e-08)
(0.0120819 -0.0135702 -5.13384e-08)
(0.0120758 -0.0135981 -0.000263304)
(0.219899 0.163754 -0.000659391)
(0.219941 0.163768 1.63784e-07)
(0.219941 0.163768 -1.63786e-07)
(0.219899 0.163754 0.000659391)
(0.204798 0.173893 -0.000593063)
(0.20485 0.173897 1.64925e-07)
(0.20485 0.173897 -1.64928e-07)
(0.204798 0.173893 0.000593063)
(0.18407 0.158026 -0.00093946)
(0.184059 0.158102 8.01436e-08)
(0.184059 0.158102 -8.0145e-08)
(0.18407 0.158026 0.00093946)
(0.196906 0.155787 -0.000897256)
(0.196907 0.1558 2.73228e-08)
(0.196907 0.1558 -2.73228e-08)
(0.196906 0.155787 0.000897256)
(0.217345 0.144623 -0.000827952)
(0.217373 0.144658 4.88989e-08)
(0.217373 0.144658 -4.89001e-08)
(0.217345 0.144623 0.000827952)
(-0.0254694 -0.0228435 0.000222798)
(-0.0254714 -0.0228473 -2.86218e-08)
(-0.0254714 -0.0228473 2.86208e-08)
(-0.0254694 -0.0228435 -0.000222798)
(-0.0271313 -0.0147816 0.000220379)
(-0.0271314 -0.0147789 2.22036e-08)
(-0.0271314 -0.0147789 -2.22005e-08)
(-0.0271313 -0.0147816 -0.000220379)
(0.18024 -0.150386 -0.00104513)
(0.1803 -0.150384 4.96878e-08)
(0.1803 -0.150384 -4.96878e-08)
(0.18024 -0.150386 0.00104513)
(0.148126 -0.142127 -0.00111603)
(0.148163 -0.142175 3.2732e-07)
(0.148163 -0.142175 -3.2732e-07)
(0.148126 -0.142127 0.00111603)
(0.167501 -0.146884 -0.000931116)
(0.167541 -0.146883 1.60757e-07)
(0.167541 -0.146883 -1.60757e-07)
(0.167501 -0.146884 0.000931116)
(-0.0144064 -0.0356806 0.00026397)
(-0.0144073 -0.0356882 3.89699e-08)
(-0.0144073 -0.0356882 -3.89688e-08)
(-0.0144064 -0.0356806 -0.00026397)
(-0.016177 -0.0306095 0.000265473)
(-0.0161818 -0.0306136 4.26071e-08)
(-0.0161818 -0.0306136 -4.26057e-08)
(-0.016177 -0.0306095 -0.000265473)
(-0.0151208 -0.0356251 0.000255037)
(-0.0151304 -0.0356449 -1.71844e-09)
(-0.0151304 -0.0356449 1.71961e-09)
(-0.0151208 -0.0356251 -0.000255037)
(0.236581 -0.189836 -0.000246125)
(0.236622 -0.189855 1.32585e-08)
(0.236622 -0.189855 -1.32582e-08)
(0.236581 -0.189836 0.000246125)
(0.198134 -0.178065 -0.000278271)
(0.198201 -0.178054 1.05481e-07)
(0.198201 -0.178054 -1.05481e-07)
(0.198134 -0.178065 0.000278271)
(0.206295 -0.181247 -1.68797e-05)
(0.206327 -0.181322 3.39586e-07)
(0.206327 -0.181322 -3.39585e-07)
(0.206295 -0.181247 1.68797e-05)
(-0.0168341 0.0084126 0.000215347)
(-0.0168366 0.00841166 -2.16271e-08)
(-0.0168366 0.00841166 2.16271e-08)
(-0.0168341 0.0084126 -0.000215347)
(-0.0142218 0.00526272 0.000218437)
(-0.0142284 0.00525729 4.22949e-08)
(-0.0142284 0.0052573 -4.22998e-08)
(-0.0142218 0.00526272 -0.000218437)
(-0.0178686 0.0116798 0.000222583)
(-0.0178725 0.0116802 2.41061e-08)
(-0.0178725 0.0116802 -2.4109e-08)
(-0.0178686 0.0116798 -0.000222583)
(-0.070829 -0.0141742 0.000265928)
(-0.0708211 -0.0141598 -8.18336e-08)
(-0.0708211 -0.0141598 8.18364e-08)
(-0.070829 -0.0141742 -0.000265928)
(-0.0717702 -0.00825526 0.000270952)
(-0.071757 -0.00824218 6.00777e-08)
(-0.071757 -0.00824218 -6.00787e-08)
(-0.0717702 -0.00825526 -0.000270952)
(-0.0572277 -0.0110731 0.000246961)
(-0.0572412 -0.0110697 1.94418e-09)
(-0.0572412 -0.0110697 -1.9439e-09)
(-0.0572277 -0.0110731 -0.000246961)
(-0.0521281 -0.0180802 0.00025561)
(-0.0521391 -0.0180656 9.55744e-08)
(-0.0521391 -0.0180656 -9.5575e-08)
(-0.0521281 -0.0180802 -0.00025561)
(0.213624 -0.18188 -0.000580395)
(0.213593 -0.181852 -6.65255e-08)
(0.213593 -0.181852 6.65253e-08)
(0.213624 -0.18188 0.000580395)
(0.209123 -0.183491 -0.00046123)
(0.209059 -0.183491 -4.02413e-07)
(0.209059 -0.183491 4.02413e-07)
(0.209123 -0.183491 0.00046123)
(0.141877 0.0400616 -0.00178486)
(0.14191 0.0400688 -2.70726e-08)
(0.14191 0.0400688 2.70729e-08)
(0.141877 0.0400616 0.00178486)
(0.113278 0.080876 -0.00189523)
(0.113288 0.080912 -2.44978e-08)
(0.113288 0.080912 2.44982e-08)
(0.113278 0.080876 0.00189523)
(0.126679 -0.00395145 -0.0018701)
(0.126666 -0.0040088 -2.45598e-07)
(0.126666 -0.0040088 2.45598e-07)
(0.126679 -0.00395145 0.0018701)
(0.0842749 -0.000623505 -0.00201663)
(0.0842789 -0.000669459 1.68544e-08)
(0.0842789 -0.000669459 -1.68545e-08)
(0.0842749 -0.000623505 0.00201663)
(0.193489 -0.00846666 -0.0014636)
(0.193461 -0.00848742 -2.67173e-07)
(0.193461 -0.00848742 2.67174e-07)
(0.193489 -0.00846666 0.0014636)
(0.214854 0.0131449 -0.00127537)
(0.21485 0.0131117 -3.40882e-08)
(0.21485 0.0131117 3.40886e-08)
(0.214854 0.0131449 0.00127537)
(0.212777 -0.0109999 -0.00129897)
(0.212782 -0.0109535 4.4837e-08)
(0.212782 -0.0109535 -4.48369e-08)
(0.212777 -0.0109999 0.00129897)
(0.171428 -0.0302843 -0.00160969)
(0.171492 -0.0302645 1.01768e-07)
(0.171492 -0.0302645 -1.01768e-07)
(0.171428 -0.0302843 0.00160969)
(0.150925 -0.0429565 -0.00171342)
(0.150974 -0.0429599 2.39722e-07)
(0.150974 -0.0429599 -2.39722e-07)
(0.150925 -0.0429565 0.00171342)
(0.225968 -0.00588593 -0.00118644)
(0.225958 -0.00588311 -2.49176e-07)
(0.225958 -0.00588311 2.49176e-07)
(0.225968 -0.00588593 0.00118644)
(0.235277 0.00284263 -0.00108962)
(0.235244 0.00284062 -1.00053e-07)
(0.235244 0.00284062 1.00053e-07)
(0.235277 0.00284263 0.00108962)
(0.248539 0.00316633 -0.000976279)
(0.248526 0.0031703 -1.35654e-07)
(0.248526 0.0031703 1.35654e-07)
(0.248539 0.00316633 0.000976279)
(0.23899 -0.0133602 -0.00106139)
(0.238964 -0.0133375 -2.02577e-07)
(0.238964 -0.0133375 2.02577e-07)
(0.23899 -0.0133602 0.00106139)
(0.249249 -0.00323399 -0.000967559)
(0.249232 -0.00323846 -2.0362e-07)
(0.249232 -0.00323846 2.0362e-07)
(0.249249 -0.00323399 0.000967559)
(0.233128 0.00658022 -0.00112713)
(0.233107 0.00659517 -3.06919e-07)
(0.233107 0.00659517 3.0692e-07)
(0.233128 0.00658022 0.00112713)
(0.246545 0.013547 -0.000984615)
(0.246518 0.0135374 -1.65613e-07)
(0.246518 0.0135374 1.65613e-07)
(0.246545 0.013547 0.000984615)
(0.19451 0.00795692 -0.00145519)
(0.194474 0.00795849 -3.25029e-07)
(0.194474 0.00795849 3.25029e-07)
(0.19451 0.00795692 0.00145519)
(0.122772 -0.0540691 -0.0018008)
(0.122759 -0.0540625 5.105e-08)
(0.122759 -0.0540625 -5.10498e-08)
(0.122772 -0.0540691 0.0018008)
(0.166812 -0.0643316 -0.00159208)
(0.166784 -0.0643227 -2.0261e-07)
(0.166784 -0.0643227 2.0261e-07)
(0.166812 -0.0643316 0.00159208)
(0.179496 -0.0515648 -0.00151327)
(0.179505 -0.0515526 8.64874e-09)
(0.179505 -0.0515526 -8.64864e-09)
(0.179496 -0.0515648 0.00151327)
(0.19972 -0.0339225 -0.00138879)
(0.199728 -0.0339237 -8.1292e-08)
(0.199728 -0.0339237 8.12921e-08)
(0.19972 -0.0339225 0.00138879)
(0.215425 -0.0273214 -0.00125883)
(0.215408 -0.0273031 -2.07646e-07)
(0.215408 -0.0273031 2.07646e-07)
(0.215425 -0.0273214 0.00125883)
(0.229517 -0.022757 -0.00114182)
(0.22951 -0.0227928 -9.38012e-08)
(0.22951 -0.0227928 9.38012e-08)
(0.229517 -0.022757 0.00114182)
(0.240659 -0.0202963 -0.0010391)
(0.240633 -0.0203025 -2.63777e-07)
(0.240633 -0.0203025 2.63777e-07)
(0.240659 -0.0202963 0.0010391)
(0.250699 -0.0158686 -0.000940921)
(0.250685 -0.0158939 -5.46642e-08)
(0.250685 -0.0158939 5.46641e-08)
(0.250699 -0.0158686 0.000940921)
(0.259739 -0.015494 -0.000854301)
(0.259719 -0.0154985 -2.41683e-07)
(0.259719 -0.0154985 2.41682e-07)
(0.259739 -0.015494 0.000854301)
(0.257948 -0.0105118 -0.000876219)
(0.257923 -0.0104853 -1.85692e-07)
(0.257923 -0.0104853 1.85692e-07)
(0.257948 -0.0105118 0.000876219)
(0.257583 0.000544381 -0.000879548)
(0.257578 0.00054427 -3.82326e-09)
(0.257578 0.00054427 3.82308e-09)
(0.257583 0.000544381 0.000879548)
(0.257774 0.00820365 -0.000877992)
(0.257764 0.00819797 -1.50573e-07)
(0.257764 0.00819797 1.50572e-07)
(0.257774 0.00820365 0.000877992)
(0.168902 0.0274704 -0.00162234)
(0.168953 0.0274245 -3.13848e-09)
(0.168953 0.0274245 3.13886e-09)
(0.168902 0.0274704 0.00162234)
(0.169409 -0.104445 -0.00144281)
(0.16936 -0.104457 -6.30827e-08)
(0.16936 -0.104457 6.3083e-08)
(0.169409 -0.104445 0.00144281)
(0.182006 -0.0806839 -0.00141938)
(0.182044 -0.0806987 1.26973e-07)
(0.182044 -0.0806987 -1.26973e-07)
(0.182006 -0.0806839 0.00141938)
(0.19273 -0.0669863 -0.00137351)
(0.192764 -0.0669733 -1.84773e-08)
(0.192764 -0.0669733 1.84774e-08)
(0.19273 -0.0669863 0.00137351)
(0.208791 -0.0498691 -0.00128253)
(0.208784 -0.0498917 -1.79745e-07)
(0.208784 -0.0498917 1.79745e-07)
(0.208791 -0.0498691 0.00128253)
(0.221964 -0.0417811 -0.00117589)
(0.221945 -0.0418045 -1.97975e-07)
(0.221945 -0.0418045 1.97975e-07)
(0.221964 -0.0417811 0.00117589)
(0.234539 -0.0345296 -0.00107626)
(0.234525 -0.0345566 -1.58477e-07)
(0.234525 -0.0345566 1.58477e-07)
(0.234539 -0.0345296 0.00107626)
(0.244316 -0.0300022 -0.000984297)
(0.2443 -0.030029 -1.46742e-07)
(0.2443 -0.030029 1.46742e-07)
(0.244316 -0.0300022 0.000984297)
(0.253928 -0.0251411 -0.000895484)
(0.25392 -0.0251464 -9.30007e-08)
(0.25392 -0.0251464 9.30006e-08)
(0.253928 -0.0251411 0.000895484)
(0.261664 -0.0218483 -0.000818409)
(0.26165 -0.0218685 -1.33208e-07)
(0.26165 -0.0218685 1.33208e-07)
(0.261664 -0.0218483 0.000818409)
(0.269006 -0.0188016 -0.000741111)
(0.268991 -0.0187977 -8.71233e-08)
(0.268991 -0.0187977 8.71234e-08)
(0.269006 -0.0188016 0.000741111)
(0.267383 -0.0115951 -0.000770231)
(0.267361 -0.0116101 -7.37861e-08)
(0.267361 -0.0116101 7.37861e-08)
(0.267383 -0.0115951 0.000770231)
(0.266485 -0.00344279 -0.000791076)
(0.266465 -0.0034656 -1.52935e-07)
(0.266465 -0.0034656 1.52935e-07)
(0.266485 -0.00344279 0.000791076)
(0.26611 0.00219413 -0.000797121)
(0.266098 0.00219052 -1.53235e-07)
(0.266098 0.00219052 1.53235e-07)
(0.26611 0.00219413 0.000797121)
(0.265907 0.00956246 -0.000790019)
(0.265883 0.00956774 -1.68595e-07)
(0.265883 0.00956774 1.68595e-07)
(0.265907 0.00956246 0.000790019)
(0.26654 0.0160543 -0.000770769)
(0.26652 0.0160613 -1.51917e-07)
(0.26652 0.0160613 1.51917e-07)
(0.26654 0.0160543 0.000770769)
(0.258714 0.0169388 -0.000858768)
(0.258703 0.01695 -1.0463e-07)
(0.258703 0.01695 1.0463e-07)
(0.258714 0.0169388 0.000858768)
(0.247525 0.0212761 -0.000959929)
(0.247516 0.0212704 -1.199e-07)
(0.247516 0.0212704 1.199e-07)
(0.247525 0.0212761 0.000959929)
(0.237888 0.0222548 -0.00106853)
(0.237883 0.0222926 -7.07309e-08)
(0.237883 0.0222926 7.0731e-08)
(0.237888 0.0222548 0.00106853)
(0.220075 0.0284661 -0.00119676)
(0.220052 0.0284568 -1.86922e-07)
(0.220052 0.0284568 1.86922e-07)
(0.220075 0.0284661 0.00119676)
(0.207894 0.032095 -0.00133068)
(0.207858 0.0321138 -3.09257e-07)
(0.207858 0.0321137 3.09257e-07)
(0.207894 0.032095 0.00133068)
(0.177407 0.0525414 -0.00147709)
(0.177391 0.0525531 -2.57346e-07)
(0.177391 0.0525531 2.57346e-07)
(0.177407 0.0525414 0.00147709)
(0.171921 0.06811 -0.00157196)
(0.172007 0.0681447 1.53709e-08)
(0.172007 0.0681447 -1.5371e-08)
(0.171921 0.06811 0.00157196)
(0.201161 0.061744 -0.00128787)
(0.201167 0.0617627 -3.12507e-08)
(0.201167 0.0617627 3.1251e-08)
(0.201161 0.061744 0.00128787)
(0.195674 0.0780023 -0.00129875)
(0.195683 0.078019 2.2621e-09)
(0.195683 0.078019 -2.26172e-09)
(0.195674 0.0780023 0.00129875)
(0.217031 0.0485322 -0.0012149)
(0.217035 0.048531 -1.16531e-07)
(0.217035 0.048531 1.16531e-07)
(0.217031 0.0485322 0.0012149)
(0.227048 0.0421434 -0.00111101)
(0.227042 0.0421336 -1.29479e-07)
(0.227042 0.0421336 1.29479e-07)
(0.227048 0.0421434 0.00111101)
(0.241774 0.0343746 -0.0010079)
(0.241766 0.034371 -1.50434e-07)
(0.241766 0.034371 1.50435e-07)
(0.241774 0.0343746 0.0010079)
(0.250306 0.0306901 -0.000908869)
(0.250296 0.0306862 -1.08632e-07)
(0.250296 0.0306862 1.08632e-07)
(0.250306 0.0306901 0.000908869)
(0.260865 0.0253265 -0.000819955)
(0.260851 0.0253275 -1.4758e-07)
(0.260851 0.0253275 1.4758e-07)
(0.260865 0.0253265 0.000819955)
(0.26789 0.0224549 -0.000737538)
(0.267869 0.0224623 -1.38664e-07)
(0.267869 0.0224623 1.38664e-07)
(0.26789 0.0224549 0.000737538)
(0.155987 -0.119099 -0.0013931)
(0.15597 -0.11905 -2.89633e-07)
(0.15597 -0.11905 2.89633e-07)
(0.155987 -0.119099 0.0013931)
(0.158106 -0.133692 -0.00127588)
(0.158145 -0.133736 5.09753e-08)
(0.158145 -0.133736 -5.09752e-08)
(0.158106 -0.133692 0.00127588)
(0.182811 -0.1404 -0.00114808)
(0.182858 -0.140417 9.26086e-08)
(0.182858 -0.140417 -9.26086e-08)
(0.182811 -0.1404 0.00114808)
(0.183413 -0.125699 -0.00121547)
(0.183418 -0.125675 -2.72048e-07)
(0.183418 -0.125675 2.72048e-07)
(0.183413 -0.125699 0.00121547)
(0.190875 -0.110279 -0.00125025)
(0.19081 -0.110253 -4.03179e-07)
(0.19081 -0.110253 4.03179e-07)
(0.190875 -0.110279 0.00125025)
(0.197571 -0.0917657 -0.00124684)
(0.197582 -0.0917482 -5.01582e-08)
(0.197582 -0.0917482 5.01583e-08)
(0.197571 -0.0917657 0.00124684)
(0.207252 -0.0775117 -0.00122218)
(0.207268 -0.0775236 -7.46728e-08)
(0.207268 -0.0775236 7.46728e-08)
(0.207252 -0.0775117 0.00122218)
(0.218793 -0.0620889 -0.00115815)
(0.218781 -0.0621268 -1.05196e-07)
(0.218781 -0.0621268 1.05196e-07)
(0.218793 -0.0620889 0.00115815)
(0.229722 -0.0532234 -0.00107836)
(0.229712 -0.0532551 -1.17919e-07)
(0.229712 -0.0532551 1.17919e-07)
(0.229722 -0.0532234 0.00107836)
(0.240199 -0.0448472 -0.000995583)
(0.240191 -0.0448797 -7.19998e-08)
(0.240191 -0.0448797 7.19998e-08)
(0.240199 -0.0448472 0.000995583)
(0.248873 -0.0389976 -0.000916989)
(0.248872 -0.0390083 -5.93371e-08)
(0.248872 -0.0390083 5.93371e-08)
(0.248873 -0.0389976 0.000916989)
(0.25718 -0.0331862 -0.00084146)
(0.257178 -0.0331864 -6.91202e-08)
(0.257178 -0.0331864 6.91203e-08)
(0.25718 -0.0331862 0.00084146)
(0.264216 -0.0291503 -0.000770464)
(0.264205 -0.0291542 -1.15647e-07)
(0.264205 -0.0291542 1.15647e-07)
(0.264216 -0.0291503 0.000770464)
(0.271118 -0.0246017 -0.000701312)
(0.271103 -0.0245998 -1.10842e-07)
(0.271103 -0.0245998 1.10842e-07)
(0.271118 -0.0246017 0.000701312)
(0.276853 -0.021626 -0.000638442)
(0.276837 -0.0216346 -1.05361e-07)
(0.276837 -0.0216346 1.05361e-07)
(0.276853 -0.021626 0.000638442)
(0.275377 -0.0163249 -0.000674181)
(0.275363 -0.016339 -1.14007e-07)
(0.275363 -0.016339 1.14007e-07)
(0.275377 -0.0163249 0.000674181)
(0.274163 -0.0111968 -0.000701585)
(0.27415 -0.0111969 -1.59264e-07)
(0.27415 -0.0111969 1.59264e-07)
(0.274163 -0.0111968 0.000701585)
(0.273129 -0.0060601 -0.000717423)
(0.273111 -0.00604474 -1.20627e-07)
(0.273111 -0.00604474 1.20627e-07)
(0.273129 -0.0060601 0.000717423)
(0.272818 0.000883041 -0.000721075)
(0.272799 0.000885168 -8.42502e-08)
(0.272799 0.000885168 8.42503e-08)
(0.272818 0.000883041 0.000721075)
(0.273216 0.00693153 -0.000714109)
(0.273198 0.00693157 -1.30418e-07)
(0.273198 0.00693157 1.30419e-07)
(0.273216 0.00693153 0.000714109)
(0.273968 0.0132637 -0.000695244)
(0.27395 0.0132705 -1.06089e-07)
(0.27395 0.0132705 1.06089e-07)
(0.273968 0.0132637 0.000695244)
(0.275129 0.0194392 -0.000666202)
(0.275112 0.0194421 -1.12003e-07)
(0.275112 0.0194421 1.12003e-07)
(0.275129 0.0194392 0.000666202)
(0.207827 0.0825565 -0.00117976)
(0.207843 0.0825459 -1.39138e-07)
(0.207843 0.0825459 1.39138e-07)
(0.207827 0.0825565 0.00117976)
(-0.0146328 0.000860573 0.000204491)
(-0.0146347 0.000868867 -2.16934e-08)
(-0.0146347 0.000868867 2.1681e-08)
(-0.0146328 0.000860573 -0.000204491)
(-0.00704742 -0.00238976 0.000196894)
(-0.00704713 -0.00239112 -2.46975e-08)
(-0.00704713 -0.00239112 2.47074e-08)
(-0.00704742 -0.00238976 -0.000196894)
(-0.0212793 -0.00690351 0.000212396)
(-0.0212884 -0.00690357 -2.25845e-08)
(-0.0212884 -0.00690357 2.25737e-08)
(-0.0212793 -0.00690351 -0.000212396)
(-0.0196564 -0.013442 0.000215948)
(-0.0196632 -0.0134313 3.90969e-09)
(-0.0196632 -0.0134313 -3.90563e-09)
(-0.0196564 -0.013442 -0.000215948)
(-0.0106782 -0.0111687 0.000218163)
(-0.0106766 -0.0111681 4.45212e-08)
(-0.0106766 -0.0111681 -4.45487e-08)
(-0.0106782 -0.0111687 -0.000218163)
(-0.0277945 -0.00727055 0.000216511)
(-0.0277959 -0.00727686 -1.32548e-08)
(-0.0277959 -0.00727686 1.32891e-08)
(-0.0277945 -0.00727055 -0.000216511)
(-0.034064 -0.0155609 0.000226555)
(-0.0340742 -0.0155637 2.48717e-08)
(-0.0340742 -0.0155637 -2.48882e-08)
(-0.034064 -0.0155609 -0.000226555)
(-0.0352704 -0.00776818 0.000222153)
(-0.0352771 -0.00777631 -1.186e-08)
(-0.0352771 -0.00777631 1.18594e-08)
(-0.0352704 -0.00776818 -0.000222153)
(-0.0415791 -0.0163161 0.000235052)
(-0.0415764 -0.0163198 -1.90214e-08)
(-0.0415764 -0.0163198 1.90182e-08)
(-0.0415791 -0.0163161 -0.000235052)
(-0.0439726 -0.00864889 0.000230133)
(-0.0439739 -0.00865718 -3.27239e-08)
(-0.0439739 -0.00865718 3.27213e-08)
(-0.0439726 -0.00864889 -0.000230133)
(-0.0207063 0.00219498 0.000213572)
(-0.0207077 0.0022022 2.54496e-08)
(-0.0207077 0.0022022 -2.5404e-08)
(-0.0207063 0.00219498 -0.000213572)
(-0.00849919 0.00503121 0.000213419)
(-0.0084989 0.00503475 2.44403e-08)
(-0.0084989 0.00503475 -2.44354e-08)
(-0.00849919 0.00503121 -0.000213419)
(-0.0163107 -0.0219121 0.000210791)
(-0.0163056 -0.0219182 -6.54958e-08)
(-0.0163056 -0.0219182 6.55132e-08)
(-0.0163107 -0.0219121 -0.000210791)
(-0.0321735 -0.0245614 0.000231735)
(-0.0321851 -0.0245636 -1.98173e-08)
(-0.0321851 -0.0245636 1.98087e-08)
(-0.0321735 -0.0245614 -0.000231735)
(-0.0398967 -0.0252777 0.000240128)
(-0.0398984 -0.0252813 -5.72574e-08)
(-0.0398984 -0.0252813 5.72573e-08)
(-0.0398967 -0.0252777 -0.000240128)
(-0.0480818 -0.0238905 0.000249507)
(-0.0480816 -0.0238829 -2.43492e-08)
(-0.0480816 -0.0238829 2.435e-08)
(-0.0480818 -0.0238905 -0.000249507)
(-0.0562475 -0.0242567 0.000259903)
(-0.0562494 -0.0242559 -9.43782e-08)
(-0.0562494 -0.0242559 9.43808e-08)
(-0.0562475 -0.0242567 -0.000259903)
(-0.065417 -0.0207996 0.000276969)
(-0.0653989 -0.0208157 1.04258e-08)
(-0.0653989 -0.0208157 -1.04216e-08)
(-0.065417 -0.0207996 -0.000276969)
(0.225941 0.0588828 -0.0010982)
(0.225921 0.0589024 -2.04897e-07)
(0.225921 0.0589024 2.04897e-07)
(0.225941 0.0588828 0.0010982)
(0.234305 0.0549681 -0.00100923)
(0.234293 0.0549486 -2.05705e-07)
(0.234293 0.0549486 2.05705e-07)
(0.234305 0.0549681 0.00100923)
(0.247015 0.0436956 -0.000925469)
(0.247002 0.0436947 -1.53674e-07)
(0.247002 0.0436947 1.53674e-07)
(0.247015 0.0436956 0.000925469)
(0.254202 0.0397869 -0.000842236)
(0.254192 0.0397666 -1.51089e-07)
(0.254192 0.0397666 1.51089e-07)
(0.254202 0.0397869 0.000842236)
(0.263854 0.0327223 -0.000763231)
(0.263833 0.0327259 -1.71469e-07)
(0.263833 0.0327259 1.71469e-07)
(0.263854 0.0327223 0.000763231)
(0.269965 0.0291597 -0.000690846)
(0.269944 0.0291585 -1.43356e-07)
(0.269944 0.0291585 1.43356e-07)
(0.269965 0.0291597 0.000690846)
(0.276757 0.0249695 -0.0006261)
(0.276738 0.0249738 -1.18945e-07)
(0.276738 0.0249738 1.18945e-07)
(0.276757 0.0249695 0.0006261)
(0.18578 -0.168517 -0.000756413)
(0.18578 -0.168542 9.2579e-08)
(0.18578 -0.168542 -9.25793e-08)
(0.18578 -0.168517 0.000756413)
(0.200211 -0.16247 -0.000882242)
(0.200256 -0.162509 1.79932e-07)
(0.200256 -0.162509 -1.79932e-07)
(0.200211 -0.16247 0.000882242)
(0.200037 -0.146669 -0.000977539)
(0.200092 -0.146701 2.10575e-07)
(0.200092 -0.146701 -2.10575e-07)
(0.200037 -0.146669 0.000977539)
(0.202207 -0.130218 -0.00104502)
(0.202223 -0.130238 -8.64758e-08)
(0.202223 -0.130238 8.6476e-08)
(0.202207 -0.130218 0.00104502)
(0.207578 -0.115135 -0.00107538)
(0.207547 -0.115134 -2.34847e-07)
(0.207547 -0.115134 2.34847e-07)
(0.207578 -0.115135 0.00107538)
(0.212496 -0.0994105 -0.0010865)
(0.212498 -0.0993839 -1.60746e-07)
(0.212498 -0.0993839 1.60746e-07)
(0.212496 -0.0994105 0.0010865)
(0.220546 -0.0857853 -0.00107191)
(0.220534 -0.0857958 -1.40857e-07)
(0.220534 -0.0857958 1.40857e-07)
(0.220546 -0.0857853 0.00107191)
(0.228598 -0.0724824 -0.00103051)
(0.228582 -0.0724978 -1.2131e-07)
(0.228582 -0.0724978 1.2131e-07)
(0.228598 -0.0724824 0.00103051)
(0.237826 -0.0627261 -0.000970984)
(0.237811 -0.0627503 -1.01186e-07)
(0.237811 -0.0627503 1.01186e-07)
(0.237826 -0.0627261 0.000970984)
(0.246062 -0.0538496 -0.000906386)
(0.246066 -0.0538648 2.69945e-08)
(0.246066 -0.0538648 -2.69945e-08)
(0.246062 -0.0538496 0.000906386)
(0.25369 -0.0471181 -0.000841)
(0.253704 -0.0471159 -2.3932e-09)
(0.253704 -0.0471159 2.3933e-09)
(0.25369 -0.0471181 0.000841)
(0.260883 -0.0404658 -0.000775756)
(0.260881 -0.0404632 -7.56533e-08)
(0.260881 -0.0404632 7.56534e-08)
(0.260883 -0.0404658 0.000775756)
(0.26743 -0.0351975 -0.000712204)
(0.267416 -0.0351981 -1.33752e-07)
(0.267416 -0.0351981 1.33752e-07)
(0.26743 -0.0351975 0.000712204)
(0.273341 -0.030223 -0.000652702)
(0.273323 -0.0302269 -1.23635e-07)
(0.273323 -0.0302269 1.23635e-07)
(0.273341 -0.030223 0.000652702)
(0.27872 -0.0262288 -0.000595146)
(0.278703 -0.0262371 -1.05712e-07)
(0.278703 -0.0262371 1.05712e-07)
(0.27872 -0.0262288 0.000595146)
(0.283344 -0.0224358 -0.000543666)
(0.283329 -0.0224389 -6.94605e-08)
(0.283329 -0.0224389 6.94606e-08)
(0.283344 -0.0224358 0.000543666)
(0.28198 -0.0182361 -0.000582939)
(0.281964 -0.0182368 -8.03151e-08)
(0.281964 -0.0182368 8.03153e-08)
(0.28198 -0.0182361 0.000582939)
(0.280691 -0.0136684 -0.000614994)
(0.280674 -0.0136675 -7.2358e-08)
(0.280674 -0.0136675 7.23581e-08)
(0.280691 -0.0136684 0.000614994)
(0.27966 -0.00851178 -0.000638891)
(0.279641 -0.00852304 -6.06313e-08)
(0.279641 -0.00852304 6.06315e-08)
(0.27966 -0.00851178 0.000638891)
(0.27916 -0.00297823 -0.000653394)
(0.279147 -0.00299466 -9.22131e-08)
(0.279147 -0.00299466 9.22133e-08)
(0.27916 -0.00297823 0.000653394)
(0.278971 0.00190049 -0.000656973)
(0.27896 0.00189928 -1.02607e-07)
(0.27896 0.00189928 1.02607e-07)
(0.278971 0.00190049 0.000656973)
(0.27901 0.00726598 -0.000649429)
(0.278994 0.00727216 -1.02834e-07)
(0.278994 0.00727216 1.02834e-07)
(0.27901 0.00726598 0.000649429)
(0.279491 0.0123039 -0.000631977)
(0.279476 0.0123108 -1.02061e-07)
(0.279476 0.0123108 1.02061e-07)
(0.279491 0.0123039 0.000631977)
(0.280327 0.0171317 -0.000604551)
(0.28031 0.0171397 -9.05994e-08)
(0.28031 0.0171397 9.05995e-08)
(0.280327 0.0171317 0.000604551)
(0.281501 0.0218251 -0.000568172)
(0.281484 0.0218279 -8.59017e-08)
(0.281484 0.0218279 8.59018e-08)
(0.281501 0.0218251 0.000568172)
(0.145384 0.115745 -0.00149179)
(0.14539 0.115769 2.32534e-07)
(0.14539 0.115769 -2.32535e-07)
(0.145384 0.115745 0.00149179)
(0.18988 0.103588 -0.00123694)
(0.189928 0.103546 -2.41126e-08)
(0.189928 0.103546 2.41126e-08)
(0.18988 0.103588 0.00123694)
(-0.0217898 0.00840256 0.000217792)
(-0.0217891 0.00840879 -6.45367e-09)
(-0.0217891 0.00840879 6.45432e-09)
(-0.0217898 0.00840256 -0.000217792)
(-0.00517129 -0.0196702 0.000213005)
(-0.00516496 -0.0196706 -2.02649e-08)
(-0.00516496 -0.0196706 2.02932e-08)
(-0.00517129 -0.0196702 -0.000213005)
(-0.0282227 0.00127314 0.000216616)
(-0.0282302 0.0012747 -2.89724e-09)
(-0.0282302 0.0012747 2.90226e-09)
(-0.0282227 0.00127314 -0.000216616)
(-0.035195 0.000712207 0.000221681)
(-0.0352033 0.000712364 2.98624e-09)
(-0.0352033 0.000712364 -2.99152e-09)
(-0.035195 0.000712207 -0.000221681)
(-0.0439776 -0.000457809 0.000229062)
(-0.0439698 -0.000457649 -5.29679e-08)
(-0.0439698 -0.000457649 5.29641e-08)
(-0.0439776 -0.000457809 -0.000229062)
(-0.0569435 -0.00220107 0.000245963)
(-0.0569599 -0.00220988 8.01856e-08)
(-0.0569599 -0.00220988 -8.01858e-08)
(-0.0569435 -0.00220107 -0.000245963)
(-0.0625271 -0.00214188 0.000245689)
(-0.0625243 -0.00214919 -1.02287e-07)
(-0.0625243 -0.00214919 1.02287e-07)
(-0.0625271 -0.00214188 -0.000245689)
(-0.0679389 0.000620438 0.000266681)
(-0.0679336 0.000616157 2.12994e-08)
(-0.0679336 0.000616157 -2.12994e-08)
(-0.0679389 0.000620438 -0.000266681)
(-0.0764381 -0.00111873 0.000276848)
(-0.0764406 -0.00111102 -4.44924e-08)
(-0.0764406 -0.00111102 4.4491e-08)
(-0.0764381 -0.00111873 -0.000276848)
(-0.0838555 -0.00895971 0.000282489)
(-0.0838592 -0.00895824 -3.67006e-08)
(-0.0838592 -0.00895824 3.67014e-08)
(-0.0838555 -0.00895971 -0.000282489)
(-0.0809292 -0.0161956 0.000292226)
(-0.0809195 -0.0162053 -3.44596e-08)
(-0.0809195 -0.0162053 3.44612e-08)
(-0.0809292 -0.0161956 -0.000292226)
(-0.0715717 -0.0225501 0.000307193)
(-0.0715727 -0.0225648 -1.17873e-08)
(-0.0715727 -0.0225648 1.17889e-08)
(-0.0715717 -0.0225501 -0.000307193)
(-0.0207426 -0.0323627 0.000240576)
(-0.0207394 -0.0323882 6.09983e-08)
(-0.0207394 -0.0323882 -6.10109e-08)
(-0.0207426 -0.0323627 -0.000240576)
(-0.00913106 0.00681739 0.000214929)
(-0.0091346 0.00681917 -1.67536e-08)
(-0.0091346 0.00681917 1.6754e-08)
(-0.00913106 0.00681739 -0.000214929)
(-0.013108 0.00799002 0.000214887)
(-0.0131096 0.00799207 -2.3225e-08)
(-0.0131096 0.00799206 2.32317e-08)
(-0.013108 0.00799002 -0.000214887)
(-0.0257078 -0.0337709 0.000246995)
(-0.0257163 -0.0337688 3.61454e-08)
(-0.0257163 -0.0337688 -3.61448e-08)
(-0.0257078 -0.0337709 -0.000246995)
(-0.0318482 -0.0344356 0.000257983)
(-0.0318424 -0.0344421 1.7173e-08)
(-0.0318424 -0.0344421 -1.717e-08)
(-0.0318482 -0.0344356 -0.000257983)
(-0.038487 -0.0343662 0.000274394)
(-0.0384897 -0.0343714 7.26121e-08)
(-0.0384897 -0.0343714 -7.2612e-08)
(-0.038487 -0.0343662 -0.000274394)
(-0.0454494 -0.0337058 0.000290564)
(-0.0454582 -0.0337174 1.53687e-08)
(-0.0454582 -0.0337174 -1.53694e-08)
(-0.0454494 -0.0337058 -0.000290564)
(-0.052578 -0.0306865 0.000310043)
(-0.0525759 -0.0306889 2.55572e-08)
(-0.0525759 -0.0306889 -2.55571e-08)
(-0.052578 -0.0306865 -0.000310043)
(-0.0573099 -0.0276122 0.000330972)
(-0.0573114 -0.0276232 5.74614e-09)
(-0.0573114 -0.0276232 -5.74734e-09)
(-0.0573099 -0.0276122 -0.000330972)
(-0.0139112 -0.0335 0.000251186)
(-0.0138993 -0.0334907 4.31508e-08)
(-0.0138993 -0.0334907 -4.31563e-08)
(-0.0139112 -0.0335 -0.000251186)
(-0.0819781 -0.00204886 0.000286868)
(-0.0819661 -0.00204822 -3.83008e-09)
(-0.0819661 -0.00204822 3.82952e-09)
(-0.0819781 -0.00204886 -0.000286868)
(-0.0904997 -0.00817935 0.000295216)
(-0.0904928 -0.0081775 8.1286e-09)
(-0.0904928 -0.0081775 -8.1285e-09)
(-0.0904997 -0.00817935 -0.000295216)
(-0.0884235 -0.0144842 0.000310278)
(-0.0884179 -0.0144853 -1.70965e-08)
(-0.0884179 -0.0144853 1.70963e-08)
(-0.0884235 -0.0144842 -0.000310278)
(-0.0767706 -0.0197081 0.000331057)
(-0.0767652 -0.0197182 -3.0994e-09)
(-0.0767652 -0.0197182 3.09856e-09)
(-0.0767706 -0.0197081 -0.000331057)
(-0.059343 -0.0229691 0.00035521)
(-0.0593384 -0.0229775 1.63131e-08)
(-0.0593384 -0.0229775 -1.63152e-08)
(-0.059343 -0.0229691 -0.00035521)
(-0.0268361 0.00816066 0.000221191)
(-0.0268383 0.00816552 -1.05033e-09)
(-0.0268383 0.00816552 1.04585e-09)
(-0.0268361 0.00816066 -0.000221191)
(-0.03255 0.00779591 0.000225953)
(-0.0325533 0.00779531 -6.03216e-09)
(-0.0325533 0.00779531 6.02496e-09)
(-0.03255 0.00779591 -0.000225953)
(-0.039313 0.00733013 0.000233389)
(-0.0393066 0.00733646 -1.834e-08)
(-0.0393066 0.00733646 1.83333e-08)
(-0.039313 0.00733013 -0.000233389)
(-0.0467922 0.00658496 0.000243708)
(-0.0467926 0.00657289 9.574e-09)
(-0.0467926 0.00657289 -9.57785e-09)
(-0.0467922 0.00658496 -0.000243708)
(-0.0526679 0.00724027 0.000253895)
(-0.0526749 0.00725268 6.59919e-09)
(-0.0526749 0.00725268 -6.60186e-09)
(-0.0526679 0.00724027 -0.000253895)
(-0.0573341 0.00613656 0.000265022)
(-0.0573332 0.00613386 -4.24367e-09)
(-0.0573332 0.00613386 4.24131e-09)
(-0.0573341 0.00613656 -0.000265022)
(-0.0620972 0.00484457 0.000276651)
(-0.0620946 0.00485642 -7.08882e-09)
(-0.0620946 0.00485642 7.08654e-09)
(-0.0620972 0.00484457 -0.000276651)
(-0.0657629 0.00249415 0.000285196)
(-0.065757 0.00249861 2.86376e-09)
(-0.065757 0.00249861 -2.86662e-09)
(-0.0657629 0.00249415 -0.000285196)
(-0.0211712 0.0114609 0.000225371)
(-0.0211787 0.0114568 3.41151e-08)
(-0.0211787 0.0114568 -3.41177e-08)
(-0.0211712 0.0114609 -0.000225371)
(-0.0149916 0.0109744 0.000223804)
(-0.0149977 0.0109773 3.52158e-08)
(-0.0149977 0.0109773 -3.5216e-08)
(-0.0149916 0.0109744 -0.000223804)
(-0.0107229 0.00916955 0.000223959)
(-0.0107246 0.00917315 3.59109e-08)
(-0.0107246 0.00917315 -3.59157e-08)
(-0.0107229 0.00916955 -0.000223959)
(-0.0175477 0.0127203 0.000227897)
(-0.0175507 0.0127196 -9.25167e-09)
(-0.0175507 0.0127196 9.2494e-09)
(-0.0175477 0.0127203 -0.000227897)
(-0.0196121 0.0131081 0.000225474)
(-0.0196113 0.0131079 -2.27555e-08)
(-0.0196113 0.0131079 2.27519e-08)
(-0.0196121 0.0131081 -0.000225474)
(-0.0211251 0.0127835 0.0002254)
(-0.0211249 0.0127848 -3.63444e-10)
(-0.0211249 0.0127848 3.62795e-10)
(-0.0211251 0.0127835 -0.0002254)
(-0.0223193 0.0125663 0.000223652)
(-0.0223222 0.012565 -2.45455e-08)
(-0.0223222 0.012565 2.45444e-08)
(-0.0223193 0.0125663 -0.000223652)
(-0.0246717 0.0120888 0.000226364)
(-0.0246698 0.0120914 1.12087e-08)
(-0.0246698 0.0120914 -1.12119e-08)
(-0.0246717 0.0120888 -0.000226364)
(-0.0281902 0.0122434 0.000230406)
(-0.0281945 0.0122456 -1.01962e-08)
(-0.0281945 0.0122456 1.01904e-08)
(-0.0281902 0.0122434 -0.000230406)
(-0.0320133 0.0123296 0.000237109)
(-0.0320109 0.0123349 -8.78477e-09)
(-0.0320109 0.0123349 8.77782e-09)
(-0.0320133 0.0123296 -0.000237109)