/*--------------------------------*- C++ -*----------------------------------*\
| =========                 |                                                 |
| \\      /  F ield         | OpenFOAM: The Open Source CFD Toolbox           |
|  \\    /   O peration     | Version:  v1806                                 |
|   \\  /    A nd           | Web:      www.OpenFOAM.com                      |
|    \\/     M anipulation  |                                                 |
\*---------------------------------------------------------------------------*/
FoamFile
{
    version     2.0;
    format      ascii;
    class       volScalarField;
    location    "11";
    object      p;
}
// * * * * * * * * * * * * * * * * * * * * * * * * * * * * * * * * * * * * * //

dimensions      [0 2 -2 0 0 0 0];


internalField   nonuniform List<scalar> 
2400
(
0.00162572
0.00172224
0.00186878
0.00217353
0.00268161
0.00304188
0.00287017
0.00421537
0.00500378
0.00581891
0.00640402
0.00764209
0.00956911
0.0110478
0.0113456
0.0122235
0.0139393
0.0144801
0.0132964
0.013325
0.0049057
0.00532096
0.00569116
0.00662033
0.00732529
0.00855053
0.0106451
0.0124176
0.0141685
0.0167438
0.0195982
0.0244109
0.0283633
0.0311727
0.0331151
0.0371548
0.0418324
0.0428123
0.0431829
0.0412382
0.00818121
0.00880752
0.00946796
0.0107915
0.0121827
0.0143566
0.0168176
0.0205497
0.0235862
0.0281942
0.0324744
0.0393626
0.0461768
0.051848
0.0558295
0.0617614
0.0680814
0.0692944
0.0665225
0.0651468
0.011385
0.012287
0.013244
0.0149811
0.0167458
0.0197723
0.0233221
0.0285869
0.0325519
0.0392514
0.04534
0.0550282
0.063852
0.0720895
0.0781304
0.0864382
0.0940391
0.0957566
0.0976214
0.0902187
0.0145425
0.0155996
0.0168265
0.0191053
0.0212391
0.0252827
0.0294282
0.0360401
0.0413729
0.0502954
0.0577264
0.0701317
0.0809476
0.0926795
0.100446
0.11182
0.118567
0.121618
0.114711
0.120785
0.0175726
0.0187936
0.0202809
0.0230833
0.0255565
0.030602
0.0355154
0.0434029
0.0497637
0.0607483
0.0699199
0.08495
0.0980583
0.112646
0.123055
0.136376
0.145599
0.147348
0.140985
0.13953
0.0205341
0.0218029
0.0234929
0.0268895
0.0296849
0.0357917
0.0414477
0.0503724
0.0579172
0.0711798
0.0811182
0.0997048
0.113927
0.133216
0.144876
0.162528
0.172146
0.174831
0.173484
0.152046
0.023381
0.0246877
0.0265687
0.030433
0.0336158
0.0406245
0.0470744
0.0572519
0.0658081
0.0811194
0.0921685
0.114151
0.129504
0.153667
0.166405
0.190135
0.197484
0.204569
0.189078
0.170446
0.0261272
0.0274257
0.0294889
0.0337417
0.0373619
0.0451127
0.0523435
0.0635968
0.0731812
0.0908085
0.102819
0.127694
0.145065
0.17403
0.188242
0.217331
0.22561
0.235881
0.222271
0.190888
0.0287586
0.0299097
0.0321859
0.0368342
0.0409261
0.0492489
0.0571357
0.0695819
0.0801014
0.0997797
0.11302
0.141296
0.159621
0.193944
0.209114
0.247799
0.250774
0.27175
0.239882
0.219112
0.0312451
0.0320599
0.0346072
0.0395762
0.0441696
0.0530657
0.0616938
0.0748506
0.0865707
0.108178
0.123139
0.153433
0.174292
0.213392
0.230727
0.276388
0.279999
0.311908
0.264477
0.250299
0.033661
0.0338931
0.0367137
0.0419069
0.0471921
0.056431
0.0659125
0.079671
0.0926702
0.115454
0.132676
0.165158
0.188699
0.231487
0.2525
0.306638
0.310807
0.353926
0.29568
0.282872
0.0358937
0.0354189
0.0385795
0.0439077
0.0499397
0.0592042
0.069853
0.0838038
0.0982421
0.121654
0.139984
0.175322
0.2022
0.249396
0.273863
0.335732
0.343516
0.402312
0.324632
0.327783
0.0380847
0.0364746
0.0403319
0.0454207
0.0526886
0.0612868
0.0734693
0.0869145
0.104189
0.127136
0.149134
0.18369
0.216794
0.265171
0.298935
0.36471
0.380477
0.45368
0.36185
0.387892
0.0399828
0.0372277
0.0417081
0.0467471
0.0548987
0.062962
0.0764067
0.0894389
0.107974
0.131486
0.156381
0.191027
0.227194
0.278679
0.318051
0.392034
0.420356
0.505929
0.411002
0.458003
0.041783
0.0374214
0.0431093
0.0472422
0.057388
0.0637057
0.0798765
0.0905163
0.113901
0.133026
0.165944
0.195748
0.242853
0.289412
0.346885
0.41475
0.474803
0.56012
0.480912
0.568662
0.0431843
0.0374802
0.0440403
0.0478141
0.0589671
0.0642607
0.0821127
0.0915317
0.117022
0.135088
0.171923
0.20014
0.252649
0.300233
0.365319
0.436437
0.512352
0.618667
0.556668
0.707992
0.0442991
0.0370172
0.0448663
0.0476801
0.0604683
0.0640332
0.0843556
0.0911949
0.121564
0.134719
0.180046
0.200209
0.269432
0.30013
0.402798
0.445275
0.599737
0.652173
0.709982
0.675262
0.0449784
0.0363716
0.0452869
0.0472789
0.0615784
0.0633899
0.086009
0.0905346
0.124223
0.133964
0.18486
0.200461
0.278304
0.303018
0.424978
0.460884
0.653199
0.729948
0.922412
1.17805
0.0450841
0.0357835
0.0452292
0.0467081
0.0614117
0.0626749
0.0860614
0.0906974
0.125091
0.133422
0.186892
0.201541
0.28444
0.304942
0.444448
0.467057
0.73687
0.718758
1.16214
-0.0692868
0.063015
0.0541025
0.032021
0.0182285
0.0137692
0.0138777
0.0149939
0.0158607
0.0163818
0.0166693
-0.00693461
0.00183921
0.0239127
0.037849
0.0425224
0.0424159
0.0411696
0.0402916
0.0400076
0.0401529
0.115005
0.105217
0.0812748
0.065827
0.0600639
0.0595844
0.060703
0.0617392
0.062356
0.0627461
0.0419416
0.0499146
0.0700078
0.0821583
0.085911
0.0853789
0.0839887
0.0832535
0.0834129
0.0841756
0.154063
0.139353
0.109373
0.0897564
0.0825479
0.0837238
0.0880141
0.092045
0.0945538
0.0954961
0.170435
0.154635
0.124468
0.1048
0.0973986
0.0982327
0.102127
0.105799
0.108009
0.108701
0.0979441
0.104109
0.121768
0.131433
0.132714
0.129728
0.125989
0.123104
0.12135
0.120422
0.20612
0.193811
0.167021
0.147531
0.136944
0.131709
0.128624
0.12609
0.123657
0.12137
0.12584
0.129033
0.143103
0.149121
0.146661
0.140254
0.133558
0.128126
0.124142
0.121232
0.224219
0.204487
0.169663
0.143755
0.129284
0.122928
0.120172
0.118009
0.115186
0.11152
0.235232
0.209016
0.165016
0.131502
0.112832
0.105754
0.104043
0.102966
0.100424
0.0960848
0.241865
0.209744
0.160705
0.123209
0.101392
0.0918338
0.0881818
0.0855285
0.0815371
0.0756931
0.246742
0.205909
0.149882
0.106892
0.080574
0.0671499
0.0601806
0.0547584
0.0485976
0.0411311
0.244265
0.191163
0.127429
0.079724
0.0502317
0.0336063
0.0224396
0.0119839
0.000519644
-0.0119731
0.209384
0.142142
0.0753102
0.0308304
0.00831888
-0.000854544
-0.00569788
-0.0112741
-0.0192242
-0.029566
0.12617
0.0201417
-0.0730768
-0.133539
-0.164409
-0.178422
-0.186712
-0.194777
-0.204108
-0.214397
0.161024
0.056585
-0.0199944
-0.0605984
-0.0753779
-0.0807368
-0.0871038
-0.0979704
-0.113539
-0.132575
-0.422212
-0.591963
-0.676715
-0.679906
-0.642201
-0.598153
-0.561607
-0.534528
-0.515281
-0.500774
-0.0735582
-0.239322
-0.307362
-0.305047
-0.286307
-0.274969
-0.277056
-0.289734
-0.310883
-0.335954
-2.27103
-2.27187
-1.82728
-1.42211
-1.13859
-0.963156
-0.835275
-0.723766
-0.615579
-0.512389
0.0161932
0.0166099
0.0182162
0.0205494
0.0234437
0.0265765
0.0301132
0.0336723
0.0376051
0.0414051
0.045737
0.0488291
0.0517078
0.0524101
0.0541579
0.0530126
0.0541431
0.0504014
0.04441
0.0235625
0.0414073
0.0444887
0.0486837
0.054092
0.0607682
0.0683523
0.0770844
0.0861945
0.0956385
0.105255
0.115612
0.12418
0.12918
0.128708
0.123975
0.114471
0.101712
0.0828667
0.0594027
0.0246483
0.0643189
0.0685427
0.0743579
0.0821387
0.0919386
0.102846
0.115138
0.129028
0.144523
0.159618
0.173108
0.182639
0.187923
0.188156
0.18384
0.173921
0.156337
0.129894
0.0908049
0.0348073
0.0852448
0.0889179
0.0953487
0.104234
0.115873
0.129711
0.144981
0.160655
0.177949
0.196015
0.211841
0.220232
0.220218
0.212361
0.199345
0.180385
0.156644
0.123877
0.0833427
0.0317027
0.0971624
0.101767
0.108623
0.117812
0.12961
0.144423
0.16272
0.18279
0.202754
0.221226
0.238176
0.249916
0.254128
0.250458
0.239162
0.219981
0.190716
0.150124
0.0979451
0.0348918
0.10906
0.111996
0.117978
0.12747
0.140699
0.156876
0.176301
0.198165
0.220012
0.237766
0.249208
0.252642
0.24992
0.240933
0.226534
0.204999
0.176321
0.139052
0.0927159
0.0342274
0.118081
0.117898
0.12182
0.129803
0.142634
0.15983
0.179919
0.199974
0.219348
0.236523
0.252362
0.265311
0.272648
0.271889
0.260838
0.238026
0.202348
0.154147
0.0988104
0.0337964
0.11745
0.115611
0.118251
0.125904
0.138608
0.155495
0.177044
0.200933
0.222528
0.2386
0.248829
0.25209
0.250724
0.2442
0.23185
0.211458
0.183543
0.145543
0.0959357
0.034933
0.114718
0.109382
0.109932
0.117016
0.130664
0.148673
0.168395
0.187333
0.205776
0.223016
0.240233
0.256371
0.268277
0.272139
0.264193
0.240989
0.202211
0.152797
0.0967262
0.0324907
0.102582
0.0946217
0.0931743
0.0990026
0.111643
0.129495
0.15256
0.177394
0.198619
0.215585
0.227729
0.234753
0.237316
0.234408
0.225154
0.20777
0.183149
0.144679
0.0952345
0.034064
0.0844665
0.0732224
0.0699495
0.0758428
0.0896465
0.107888
0.129239
0.151922
0.174331
0.196056
0.218972
0.238965
0.252769
0.257821
0.25134
0.229177
0.191738
0.145027
0.0914405
0.0305495
0.0598645
0.0441583
0.038413
0.0435238
0.0577616
0.0788375
0.106135
0.134203
0.158288
0.178064
0.195618
0.20863
0.215223
0.214524
0.207121
0.192083
0.170034
0.134489
0.088166
0.0311317
0.0216776
0.00348073
-0.00168609
0.00552647
0.0216367
0.0456148
0.077506
0.109819
0.137423
0.16427
0.19339
0.217787
0.231695
0.233985
0.225863
0.205657
0.173561
0.132474
0.084089
0.0283516
-0.0391403
-0.0647479
-0.0743038
-0.0678641
-0.0490385
-0.0174726
0.025686
0.0664934
0.0958762
0.119943
0.145913
0.170688
0.187922
0.195404
0.193617
0.181466
0.159843
0.126117
0.0820422
0.0286676
-0.056959
-0.0852181
-0.0972805
-0.0953359
-0.0798529
-0.0424745
0.0072054
0.0463799
0.0698012
0.0942246
0.12745
0.163852
0.191154
0.204738
0.204325
0.19022
0.164193
0.127199
0.0816312
0.0278065
-0.234684
-0.247871
-0.246243
-0.23443
-0.206146
-0.140993
-0.0612473
-0.00650067
0.0151871
0.0322862
0.0658601
0.105508
0.140788
0.165134
0.178978
0.178839
0.162172
0.128559
0.0837084
0.0289272
-0.180441
-0.235002
-0.272537
-0.298276
-0.271928
-0.173095
-0.0779053
-0.031112
-0.0247325
-0.0194445
0.013024
0.0618071
0.115106
0.156266
0.178437
0.178244
0.160867
0.127788
0.0831827
0.0285543
-0.467581
-0.445108
-0.467028
-0.500419
-0.445764
-0.268702
-0.102534
-0.0339564
-0.0615384
-0.087691
-0.065828
0.00216675
0.0777418
0.132701
0.160417
0.166008
0.154315
0.124614
0.0820444
0.0290754
-0.411394
-0.510814
-0.663873
-0.772478
-0.644361
-0.342802
-0.124109
-0.0663076
-0.127116
-0.201972
-0.202615
-0.116125
0.00335855
0.104897
0.1616
0.174531
0.16035
0.127377
0.0827123
0.0290389
-0.290932
-0.400118
-0.793179
-1.05375
-0.890635
-0.346649
0.0396564
0.0944464
-0.113803
-0.308016
-0.36372
-0.26028
-0.0909115
0.0586702
0.145355
0.173039
0.163266
0.129943
0.0834961
0.0290258
-0.739234
-0.600587
-0.937769
-1.23914
-1.00487
-0.446984
-0.0396841
0.0362526
-0.138871
-0.330741
-0.394447
-0.293611
-0.117533
0.0432126
0.140913
0.175049
0.166505
0.132626
0.0848999
0.0294424
-0.632485
-0.588457
-0.900107
-1.17027
-0.994911
-0.476902
-0.0843946
0.00467514
-0.148176
-0.326777
-0.388357
-0.292193
-0.118515
0.0421666
0.141286
0.176763
0.168217
0.133961
0.0855988
0.029649
-0.691579
-0.618633
-0.8748
-1.12224
-0.966942
-0.515894
-0.159044
-0.0572617
-0.168921
-0.319376
-0.370229
-0.276851
-0.109399
0.0471461
0.144475
0.179615
0.170373
0.135502
0.0863911
0.029907
-0.671988
-0.623006
-0.821354
-1.01664
-0.923479
-0.565393
-0.258299
-0.140329
-0.20003
-0.307677
-0.333807
-0.2492
-0.0911047
0.0576624
0.150397
0.183681
0.173052
0.137288
0.0873137
0.0302282
-0.679409
-0.630057
-0.763443
-0.919379
-0.878012
-0.625285
-0.376228
-0.242726
-0.241342
-0.294447
-0.295169
-0.210852
-0.0642825
0.0734073
0.159053
0.189023
0.176315
0.139345
0.0883755
0.0306052
-0.71229
-0.632035
-0.701055
-0.816251
-0.839587
-0.695199
-0.506994
-0.358707
-0.291556
-0.281228
-0.249684
-0.163462
-0.0298791
0.0940739
0.170461
0.195687
0.180194
0.141673
0.0895673
0.0310298
-0.685097
-0.631398
-0.63976
-0.727743
-0.811743
-0.772415
-0.647682
-0.481174
-0.347849
-0.268546
-0.200039
-0.109381
0.0106824
0.119081
0.184454
0.203609
0.184661
0.144251
0.0908748
0.0314937
-0.773396
-0.635513
-0.581061
-0.650612
-0.794188
-0.852039
-0.783858
-0.601868
-0.405067
-0.25725
-0.148611
-0.0515848
0.0556414
0.14751
0.200629
0.212609
0.189642
0.147043
0.0922797
0.031985
-0.690282
-0.614875
-0.52271
-0.586305
-0.784702
-0.928989
-0.908391
-0.712317
-0.458271
-0.24675
-0.0973723
0.00765168
0.1032
0.178226
0.218403
0.22241
0.195016
0.149996
0.093754
0.0324874
-0.880937
-0.647771
-0.478183
-0.534345
-0.780134
-0.997761
-1.0134
-0.80526
-0.503099
-0.235545
-0.0477623
0.0662725
0.151577
0.210037
0.237141
0.232718
0.200663
0.153055
0.0952705
0.0329832
-0.448759
-0.464998
-0.380996
-0.474893
-0.779995
-1.08914
-1.14915
-0.924267
-0.555998
-0.210693
0.0325039
0.1611
0.23168
0.263012
0.268777
0.250087
0.210222
0.158213
0.0978615
0.0338058
-0.610576
-0.594814
-0.414907
-0.408254
-0.760132
-1.13145
-1.21785
-0.94089
-0.520397
-0.131677
0.14267
0.278711
0.329332
0.330141
0.310278
0.27344
0.22338
0.165328
0.101355
0.0347998
-0.600976
-0.503397
-0.426121
-0.483451
-0.750968
-1.02137
-1.04812
-0.798445
-0.401164
-0.0234439
0.244065
0.372362
0.404624
0.382511
0.344175
0.29339
0.23513
0.171773
0.104534
0.0356165
-0.438832
-0.440009
-0.430037
-0.461386
-0.619911
-0.809485
-0.834366
-0.610916
-0.254717
0.0769315
0.313587
0.430695
0.453219
0.418629
0.368807
0.30876
0.244884
0.177406
0.107445
0.0363413
-0.448633
-0.435613
-0.425843
-0.433532
-0.520772
-0.630316
-0.615425
-0.417161
-0.133065
0.144877
0.350216
0.454201
0.470816
0.4348
0.381943
0.318438
0.251988
0.182014
0.110076
0.0370581
-0.362915
-0.367194
-0.371762
-0.37702
-0.417269
-0.46626
-0.433114
-0.270966
-0.0434481
0.179005
0.354706
0.454469
0.474929
0.442153
0.388138
0.323987
0.256999
0.185811
0.112494
0.0377507
-0.301481
-0.314996
-0.324484
-0.32365
-0.330409
-0.344294
-0.304397
-0.169067
0.0149983
0.196503
0.344929
0.435176
0.457634
0.431445
0.384419
0.324862
0.259906
0.188936
0.11491
0.0385809
-0.248886
-0.26643
-0.275984
-0.270064
-0.259905
-0.253377
-0.209088
-0.0941831
0.0568295
0.20296
0.323939
0.405635
0.437883
0.425597
0.383747
0.325959
0.262638
0.192106
0.117448
0.0393669
-0.201161
-0.219759
-0.227656
-0.219775
-0.201307
-0.181722
-0.135555
-0.0376698
0.0865529
0.205046
0.304837
0.378241
0.41241
0.405568
0.371841
0.322678
0.264183
0.195381
0.120573
0.0405821
-0.158784
-0.176876
-0.182995
-0.174753
-0.152892
-0.125281
-0.0788149
0.00392963
0.106979
0.205523
0.287408
0.348253
0.38292
0.389841
0.369393
0.325339
0.267691
0.199201
0.123579
0.041422
-0.121846
-0.13921
-0.144162
-0.135871
-0.112506
-0.0808973
-0.0363313
0.0348831
0.122819
0.204952
0.270586
0.322167
0.357754
0.369136
0.353498
0.316897
0.266743
0.201905
0.127204
0.0430918
-0.0905725
-0.106577
-0.110561
-0.102318
-0.0793741
-0.0471038
-0.00420422
0.0579231
0.131682
0.200421
0.256255
0.299764
0.330813
0.346796
0.34416
0.318473
0.271316
0.206199
0.13038
0.0438085
-0.0667712
-0.0799852
-0.0825308
-0.0745626
-0.0531205
-0.0213983
0.0191106
0.072946
0.136295
0.19581
0.242302
0.277118
0.305331
0.324154
0.325331
0.303851
0.263548
0.20493
0.132255
0.045484
-0.0462119
-0.0576574
-0.0595832
-0.0522908
-0.0328085
-0.00327296
0.033771
0.0808691
0.135465
0.186392
0.226223
0.255982
0.280174
0.298538
0.306762
0.297333
0.264795
0.208075
0.134854
0.0460707
-0.0289104
-0.0391437
-0.0407081
-0.0342975
-0.0170048
0.00961196
0.0425586
0.0831193
0.129847
0.173759
0.207755
0.231977
0.252421
0.2705
0.281241
0.27455
0.247004
0.197926
0.131571
0.0466138
-0.0178657
-0.0254055
-0.0263666
-0.0208572
-0.0062068
0.0166456
0.045228
0.0797737
0.118875
0.155673
0.184898
0.20586
0.223008
0.238792
0.251985
0.254351
0.237307
0.195745
0.131899
0.0471789
-0.00993274
-0.0153139
-0.0156601
-0.0110903
0.00068851
0.0194146
0.0428075
0.0705611
0.10231
0.132764
0.15694
0.173501
0.18699
0.20066
0.214202
0.218031
0.205222
0.170934
0.118721
0.0444172
-0.004838
-0.00846397
-0.00841463
-0.00483983
0.00413576
0.0183344
0.0359127
0.0567076
0.0805449
0.103369
0.122285
0.135925
0.14659
0.156702
0.168893
0.177079
0.174357
0.152975
0.111383
0.0435048
-0.00205686
-0.00397202
-0.00364949
-0.00129657
0.00436401
0.0133405
0.02448
0.0376255
0.0529118
0.0676909
0.080069
0.0884244
0.0948787
0.101427
0.111114
0.11776
0.117237
0.102237
0.0776962
0.0313407
0.000260299
-0.000759673
-0.00058126
0.000267984
0.00233975
0.00559795
0.00955699
0.0142991
0.0200874
0.0255215
0.0303426
0.0337592
0.0366082
0.0384528
0.042614
0.0455871
0.0496958
0.0469705
0.0437436
0.0221792
-3.06305
-2.84398
-2.09711
-1.5633
-1.25657
-1.08204
-0.938381
-0.812931
-0.702198
-0.614452
-0.858548
-1.00325
-0.948278
-0.81776
-0.709132
-0.636687
-0.598069
-0.576066
-0.567306
-0.565128
-0.92975
-1.14089
-1.18211
-1.09517
-0.979931
-0.881908
-0.809416
-0.757644
-0.718004
-0.68398
-0.454024
-0.600987
-0.641762
-0.605283
-0.549266
-0.503193
-0.473045
-0.456842
-0.448627
-0.444698
-0.217233
-0.368529
-0.456622
-0.482899
-0.477528
-0.465926
-0.457774
-0.454801
-0.454967
-0.455992
-0.0895685
-0.223842
-0.315697
-0.358514
-0.366573
-0.361258
-0.355103
-0.35235
-0.352943
-0.355589
-0.000701418
-0.114162
-0.201379
-0.249143
-0.265467
-0.267499
-0.267186
-0.269413
-0.27492
-0.282904
0.061404
-0.0336496
-0.115464
-0.165666
-0.188126
-0.196162
-0.200644
-0.206643
-0.215222
-0.225702
0.100331
0.0211075
-0.0551878
-0.105751
-0.131629
-0.143022
-0.149735
-0.156965
-0.166139
-0.176904
0.122259
0.0565289
-0.0138666
-0.0628383
-0.0896373
-0.102098
-0.109152
-0.116125
-0.124815
-0.13513
0.132185
0.0777741
0.0134441
-0.0326587
-0.0585137
-0.070413
-0.0766359
-0.0825141
-0.0900966
-0.0994729
0.132304
0.0871017
0.028543
-0.0138886
-0.0373901
-0.0475137
-0.0521701
-0.0565462
-0.062617
-0.0704727
0.127592
0.0894503
0.0368116
-0.00143269
-0.0223256
-0.0309882
-0.0347474
-0.0383521
-0.0436032
-0.0504754
0.111683
0.0846984
0.0457655
0.0168903
-0.000508972
-0.00987437
-0.0155629
-0.02049
-0.025954
-0.0321121
0.0478581
0.0414049
0.0397754
0.0319705
0.020767
0.0100462
0.00132182
-0.00554006
-0.0112741
-0.0164139
0.0896666
0.0751301
0.0508028
0.033148
0.0218575
0.0137299
0.00701231
0.00115888
-0.00399648
-0.00853281
0.0209436
0.0207995
0.0272174
0.0270391
0.0215288
0.0149185
0.00908729
0.00428559
0.00029384
-0.00304134
0.0637065
0.0531385
0.0334813
0.0209745
0.0149414
0.0113602
0.00823557
0.00518841
0.0023974
4.34537e-05
-0.00732045
-0.0035651
0.00790788
0.0128312
0.0120048
0.00930881
0.0066286
0.00437496
0.00245621
0.000782401
0.0332213
0.0262398
0.012665
0.00579555
0.00412691
0.00378926
0.00333315
0.00271993
0.002184
0.0018387
0.0434108
0.0312555
0.0421057
0.041792
0.0577675
0.0562046
0.0810752
0.0821351
0.118782
0.121792
0.178528
0.185
0.274438
0.283802
0.434922
0.437769
0.737063
0.682144
1.3321
-0.332701
0.0427279
0.0299289
0.0409286
0.0404922
0.0562922
0.0547512
0.0790868
0.0799856
0.11573
0.119406
0.173782
0.181144
0.266421
0.279532
0.416684
0.431369
0.673698
0.673255
0.926474
0.783746
0.0417243
0.0286714
0.0395358
0.039142
0.0545486
0.0532663
0.0766668
0.0776159
0.112145
0.116678
0.168164
0.176158
0.257444
0.272359
0.3974
0.415833
0.620701
0.626567
0.792762
0.796207
0.0405106
0.0273983
0.0379975
0.0376714
0.0525654
0.0517057
0.0737916
0.0751672
0.107756
0.113508
0.160247
0.171299
0.243842
0.264651
0.368325
0.40413
0.54646
0.602077
0.62174
0.749856
0.0390561
0.0261094
0.0363202
0.0361054
0.0503561
0.0499822
0.070506
0.0724781
0.102667
0.109547
0.151608
0.165479
0.229928
0.255514
0.342917
0.391212
0.494641
0.576513
0.520293
0.714456
0.0373863
0.0248083
0.0345012
0.0344672
0.0479016
0.0480635
0.0667201
0.0696056
0.096743
0.10504
0.141789
0.159543
0.214129
0.246723
0.315425
0.376844
0.446157
0.546131
0.439333
0.638611
0.0355225
0.0234874
0.0325467
0.032745
0.0451893
0.0459026
0.0624591
0.0665071
0.0902224
0.100132
0.131617
0.153523
0.198684
0.237476
0.291167
0.359949
0.404223
0.510065
0.377004
0.548002
0.0334846
0.0221376
0.0304564
0.0309286
0.0422164
0.043476
0.0578158
0.0632311
0.0832694
0.0950929
0.12136
0.147335
0.183675
0.227027
0.268048
0.34055
0.364729
0.470595
0.325417
0.46678
0.0312886
0.0207504
0.0282366
0.0289968
0.0390089
0.0408207
0.0528997
0.0598074
0.0761899
0.0900163
0.111296
0.140504
0.169617
0.215066
0.245491
0.318863
0.32764
0.429445
0.283864
0.394911
0.0289467
0.0193127
0.0259023
0.0269484
0.035606
0.0379774
0.0478754
0.0562597
0.0691601
0.0847727
0.101709
0.132612
0.155906
0.201612
0.223073
0.295178
0.292953
0.387917
0.249665
0.332033
0.0264728
0.0178163
0.0234685
0.0247861
0.0320819
0.0349975
0.0428559
0.0525626
0.0623227
0.0791594
0.0923633
0.123714
0.141943
0.186723
0.20069
0.270215
0.260299
0.347034
0.220516
0.277475
0.0238825
0.0162495
0.0209669
0.0225247
0.0284974
0.0319188
0.0379482
0.0486028
0.055707
0.0730404
0.083068
0.113743
0.127816
0.170494
0.178567
0.244068
0.229964
0.306603
0.195381
0.230754
0.0211952
0.0146048
0.0184253
0.0201792
0.0249247
0.0287332
0.0331999
0.0443133
0.0492183
0.0663214
0.0736379
0.102829
0.113415
0.153172
0.156667
0.217287
0.200802
0.267723
0.171246
0.192232
0.0184337
0.0128833
0.0158802
0.0177506
0.0213971
0.0254333
0.0286143
0.0396262
0.0427525
0.0590115
0.0639531
0.091094
0.0987219
0.134967
0.135034
0.190007
0.172862
0.229568
0.149866
0.153294
0.0156168
0.0110793
0.0133518
0.0152538
0.0179489
0.0219567
0.0241422
0.0345412
0.0362916
0.0510755
0.0542179
0.0786339
0.0839467
0.1159
0.113802
0.161863
0.146563
0.191641
0.130888
0.118852
0.0127803
0.00920323
0.0108597
0.0126483
0.0145928
0.0183603
0.0197411
0.0290073
0.0297567
0.042662
0.0442972
0.0654983
0.0689314
0.0962233
0.092715
0.133472
0.11999
0.155364
0.108582
0.0896209
0.00990955
0.00724687
0.00840671
0.00999689
0.0112768
0.0144809
0.0154035
0.0231636
0.0232039
0.0336892
0.0344566
0.0519206
0.0539006
0.0759456
0.0716675
0.104633
0.0936283
0.120146
0.0859363
0.0705535
0.00708706
0.00522902
0.00597884
0.00718508
0.00811608
0.0105512
0.0109843
0.0168349
0.0165939
0.024531
0.0241694
0.0375284
0.0386071
0.0550688
0.0510483
0.0753164
0.0672141
0.0855226
0.0620023
0.0479301
0.00421105
0.00314198
0.00359602
0.00441088
0.0048144
0.00628164
0.00667489
0.0104027
0.009955
0.0147277
0.0151102
0.02306
0.0234065
0.0334891
0.0302183
0.0455433
0.0407469
0.0516565
0.0384747
0.0296691
0.00145527
0.00104937
0.00114158
0.00136408
0.00197277
0.00219775
0.00195731
0.00337821
0.00350397
0.00518942
0.00198907
0.00737196
0.00774582
0.0116368
0.0102736
0.0152103
0.0135011
0.0173114
0.0129155
0.00873854
0.0449463
0.0352759
0.0452457
0.0458921
0.0615894
0.0614666
0.0863098
0.0882961
0.125806
0.130854
0.18874
0.195685
0.288582
0.297735
0.456553
0.455817
0.787772
0.740024
1.77249
1.00475
0.0448565
0.0350679
0.0451574
0.0455819
0.0614661
0.0610369
0.0861267
0.0885749
0.125713
0.130253
0.188624
0.19574
0.288904
0.297736
0.458521
0.458221
0.798152
0.756969
1.814
1.38724
0.0447592
0.0348366
0.0450172
0.0452603
0.0612964
0.060603
0.0859633
0.0877931
0.125493
0.129518
0.188518
0.194675
0.289082
0.296428
0.460197
0.456033
0.809488
0.76611
1.94196
1.66558
0.0446567
0.0345635
0.0448394
0.0449178
0.0610773
0.0601507
0.0856616
0.0871851
0.125175
0.128756
0.18818
0.193765
0.288877
0.295318
0.460907
0.455712
0.816029
0.774742
1.9694
1.81381
0.0445432
0.0342502
0.0446237
0.0445533
0.0608072
0.0596753
0.085314
0.0865714
0.124746
0.127965
0.187633
0.192803
0.288279
0.294076
0.46072
0.454242
0.818549
0.774295
2.00114
1.87629
0.0444161
0.0338987
0.0443679
0.0441687
0.0604888
0.0591843
0.0848943
0.0859415
0.124202
0.127123
0.186873
0.191776
0.287269
0.292709
0.459471
0.452399
0.81658
0.769877
1.99504
1.83119
0.0442747
0.0335092
0.0440719
0.0437658
0.0601252
0.0586764
0.084404
0.0852961
0.123534
0.126227
0.185902
0.190684
0.285844
0.291222
0.457194
0.450146
0.810468
0.759632
1.96304
1.68507
0.0441189
0.03308
0.0437386
0.0433453
0.059717
0.0581517
0.083845
0.0846284
0.122747
0.12528
0.184724
0.189524
0.284029
0.289622
0.453977
0.447435
0.800822
0.743605
1.90611
1.43674
0.0439512
0.0326085
0.04337
0.0429084
0.059264
0.0576076
0.083226
0.0839299
0.121842
0.1243
0.183341
0.188281
0.281852
0.287962
0.449785
0.444633
0.786403
0.726388
1.80323
1.07096
0.0437701
0.0321041
0.0429511
0.0424691
0.0587547
0.0570614
0.0825342
0.0832205
0.120811
0.12332
0.181933
0.186973
0.279366
0.286246
0.44495
0.441454
0.770954
0.705046
1.69482
0.587348
)
;

boundaryField
{
    inlet
    {
        type            zeroGradient;
    }
    outlet
    {
        type            fixedValue;
        value           uniform 0;
    }
    upAndBottom
    {
        type            empty;
    }
    obstacle
    {
        type            zeroGradient;
    }
}


// ************************************************************************* //
