/*--------------------------------*- C++ -*----------------------------------*\
| =========                 |                                                 |
| \\      /  F ield         | OpenFOAM: The Open Source CFD Toolbox           |
|  \\    /   O peration     | Version:  v1806                                 |
|   \\  /    A nd           | Web:      www.OpenFOAM.com                      |
|    \\/     M anipulation  |                                                 |
\*---------------------------------------------------------------------------*/
FoamFile
{
    version     2.0;
    format      ascii;
    class       volScalarField;
    location    "160";
    object      p;
}
// * * * * * * * * * * * * * * * * * * * * * * * * * * * * * * * * * * * * * //

dimensions      [0 2 -2 0 0 0 0];


internalField   nonuniform List<scalar> 
2400
(
0.000283682
0.000283122
0.000281888
0.000279906
0.000277047
0.000273127
0.000267916
0.000261156
0.000252569
0.000241879
0.00022882
0.000213161
0.000194732
0.000173441
0.000149306
0.000122473
9.32281e-05
6.20211e-05
2.94246e-05
-4.00868e-06
0.000851681
0.000850124
0.000846697
0.000841155
0.000833118
0.000822045
0.000807267
0.000788024
0.0007635
0.000732867
0.000695326
0.000650176
0.000596879
0.000535133
0.000464944
0.000386694
0.000301175
0.000209618
0.000113631
1.51901e-05
0.00142145
0.00141905
0.00141377
0.00140517
0.00139262
0.0013752
0.00135178
0.00132107
0.00128168
0.00123216
0.00117113
0.00109733
0.00100974
0.000907752
0.000791263
0.000660803
0.000517615
0.000363726
0.000201903
3.56547e-05
0.00199396
0.00199095
0.00198428
0.00197336
0.00195726
0.00193465
0.00190393
0.00186322
0.00181046
0.00174354
0.00166033
0.0015589
0.00143763
0.00129544
0.00113197
0.000947793
0.000744545
0.000525059
0.000293318
5.4386e-05
0.00256992
0.0025666
0.0025592
0.00254697
0.00252866
0.00250253
0.00246641
0.00241778
0.00235387
0.00227171
0.00216833
0.00204092
0.00188704
0.00170494
0.00149379
0.00125402
0.000987559
0.000698017
0.000390692
7.25014e-05
0.00314963
0.0031464
0.00313914
0.00312692
0.00310817
0.00308068
0.00304169
0.00298797
0.00291586
0.00282146
0.00270072
0.00254972
0.00236492
0.00214356
0.00188405
0.0015864
0.00125263
0.000887104
0.000496572
9.01972e-05
0.00373297
0.00373032
0.00372425
0.00371368
0.0036967
0.0036706
0.00363195
0.00357673
0.00350031
0.00339767
0.00326341
0.00309221
0.00287902
0.00261968
0.00231134
0.00195321
0.00154708
0.00109793
0.000614141
0.000107587
0.00431919
0.00431773
0.00431412
0.00430717
0.00429462
0.00427324
0.0042389
0.00418673
0.00411098
0.0040053
0.00386269
0.00367603
0.00343825
0.00314322
0.00278615
0.00236486
0.00188033
0.00133794
0.000747815
0.000125129
0.00490691
0.0049073
0.00490763
0.0049066
0.00490162
0.00488893
0.0048637
0.00482015
0.00475131
0.00464932
0.00450521
0.00430968
0.00405289
0.00372609
0.00332146
0.00283464
0.00226477
0.00161723
0.000903798
0.000143737
0.00549392
0.00549693
0.00550284
0.00551034
0.0055165
0.00551712
0.00550667
0.00547847
0.00542424
0.00533448
0.00519785
0.00500246
0.00473475
0.00438259
0.00393343
0.00337979
0.00271696
0.00194976
0.00109095
0.000164927
0.00607711
0.00608357
0.00609687
0.00611574
0.00613703
0.00615616
0.006167
0.0061621
0.0061318
0.00606496
0.00594742
0.00576437
0.0054973
0.00512989
0.00464225
0.00402283
0.0032592
0.00235537
0.00132233
0.000191334
0.00665242
0.0066632
0.00668577
0.00671903
0.00675971
0.00680302
0.00684245
0.00686994
0.00687462
0.00684375
0.0067601
0.00660565
0.00635548
0.00598837
0.00547308
0.00479339
0.00392169
0.00286271
0.00161742
0.000228319
0.00721481
0.00723075
0.00726447
0.00731514
0.00737958
0.00745301
0.00752885
0.00759879
0.00765114
0.00767182
0.00764057
0.00753594
0.00732526
0.00698163
0.00645715
0.00573062
0.0047456
0.00351342
0.00200402
0.000286766
0.0077582
0.00778009
0.0078267
0.00789762
0.00799001
0.00809941
0.00821967
0.0083427
0.00845671
0.00854679
0.00859041
0.00856259
0.00842239
0.00813569
0.00763279
0.00688613
0.00578903
0.00437002
0.00251952
0.000384433
0.00827567
0.00830414
0.00836508
0.00845866
0.00858266
0.00873331
0.00890556
0.00909215
0.00928243
0.00946134
0.00960606
0.0096879
0.00965976
0.00947639
0.00904505
0.008325
0.00713732
0.00553251
0.00322328
0.000548488
0.00875951
0.00879498
0.00887121
0.0089891
0.0091474
0.00934342
0.00957398
0.00983339
0.0101139
0.0104012
0.0106758
0.0109052
0.0110425
0.0110246
0.0107435
0.0101213
0.00891043
0.00715547
0.0042501
0.00086567
0.00920156
0.00924413
0.00933596
0.00947879
0.00967261
0.00991622
0.0102091
0.010548
0.0109299
0.0113432
0.0117758
0.0121934
0.0125599
0.0127875
0.0127761
0.0123552
0.011261
0.00941372
0.00589231
0.00169039
0.00959354
0.00964295
0.00974984
0.0099169
0.0101455
0.0104364
0.0107921
0.0112129
0.0117022
0.0122533
0.0128664
0.0135103
0.0141723
0.014743
0.015166
0.0151186
0.0144058
0.0124523
0.00849169
0.00332272
0.00992746
0.00998297
0.0101035
0.0102926
0.010553
0.0108875
0.0113021
0.0118014
0.0123957
0.0130863
0.0138887
0.0147843
0.0157935
0.0168122
0.0178576
0.018477
0.0186659
0.0166693
0.0124134
0.00291986
0.0101963
0.0102565
0.0103882
0.0105956
0.0108824
0.0112533
0.0117179
0.0122847
0.0129711
0.0137877
0.0147659
0.0159087
0.0172749
0.0188097
0.0206228
0.0223241
0.0241557
0.0233778
0.0206318
-0.00548726
-3.50963e-05
-6.21369e-05
-8.73941e-05
-0.000111108
-0.000133213
-0.000153487
-0.000171632
-0.000187769
-0.000201729
-0.000214291
-7.34168e-05
-0.000150655
-0.000225141
-0.000295784
-0.000361727
-0.000422196
-0.000476509
-0.000524267
-0.000564922
-0.000598583
-0.000114531
-0.000245889
-0.000372719
-0.00049303
-0.000605233
-0.00070794
-0.000800043
-0.00088077
-0.000949669
-0.00100694
-0.000162232
-0.000351856
-0.000534793
-0.000708152
-0.000869604
-0.00101704
-0.00114889
-0.00126394
-0.00136182
-0.00144221
-0.000216788
-0.000470232
-0.00071464
-0.000945916
-0.0011608
-0.00135631
-0.00153037
-0.00168128
-0.00180877
-0.0019122
-0.000280496
-0.000605595
-0.000918897
-0.0012147
-0.00148853
-0.00173638
-0.00195562
-0.00214407
-0.00230181
-0.00242792
-0.000356385
-0.000763746
-0.00115586
-0.00152484
-0.00186466
-0.00217004
-0.00243783
-0.00266548
-0.00285364
-0.00300129
-0.000448084
-0.000951972
-0.00143612
-0.0018896
-0.00230423
-0.00267329
-0.0029932
-0.00326134
-0.00347928
-0.00364618
-0.000560238
-0.00117996
-0.00177391
-0.00232665
-0.00282703
-0.0032667
-0.00364214
-0.00395114
-0.00419684
-0.00437894
-0.000699173
-0.00146118
-0.002189
-0.00286018
-0.0034594
-0.003977
-0.0044105
-0.00475911
-0.00502829
-0.00521894
-0.000873913
-0.00181549
-0.00271021
-0.00352428
-0.00423701
-0.00483905
-0.00533106
-0.00571523
-0.0060002
-0.00618908
-0.00109714
-0.00227352
-0.00338183
-0.00436889
-0.00520924
-0.0058989
-0.00644551
-0.00685649
-0.0071443
-0.00731596
-0.001386
-0.00288351
-0.00427285
-0.00546812
-0.00644579
-0.0072191
-0.0078085
-0.00822949
-0.00849872
-0.00863025
-0.00176995
-0.00372503
-0.00548685
-0.00692494
-0.00803987
-0.00888222
-0.00949096
-0.00989321
-0.01011
-0.0101684
-0.00233392
-0.00495596
-0.00718231
-0.00887051
-0.0101004
-0.0109809
-0.0115685
-0.0119074
-0.012024
-0.0119675
-0.00335108
-0.00695928
-0.00966617
-0.011513
-0.0127725
-0.0136123
-0.0140951
-0.014296
-0.0142489
-0.0140343
-0.00539642
-0.0104777
-0.0135137
-0.0152603
-0.0163131
-0.0168896
-0.0170797
-0.0170049
-0.0167027
-0.0162866
-0.00888513
-0.0157369
-0.0188603
-0.0202443
-0.0207479
-0.0207056
-0.0203214
-0.0197829
-0.0191326
-0.0184985
-0.0145034
-0.0211883
-0.0240712
-0.0249215
-0.0244366
-0.023426
-0.0223845
-0.0214792
-0.0206745
-0.0200041
-0.0455466
-0.0331735
-0.0309203
-0.0299669
-0.0280374
-0.0258966
-0.0240366
-0.0225621
-0.0214886
-0.0209236
-0.000231848
-0.000219723
-0.000191856
-0.000157452
-0.000110985
-6.35931e-05
-1.48339e-05
1.01999e-05
1.78561e-05
-1.51808e-05
9.18332e-06
1.60832e-05
9.05927e-05
0.000130831
0.000195152
0.000165471
-3.34589e-06
-5.09895e-05
-8.4653e-05
-3.88178e-05
-0.000673969
-0.000643576
-0.000559203
-0.000459008
-0.000331867
-0.000188763
-4.55939e-05
3.99393e-05
6.32431e-05
8.08007e-06
2.11768e-05
5.85486e-05
0.000241633
0.000379958
0.000534133
0.0004554
0.000185774
-5.1423e-05
-0.000219093
-0.000118709
-0.00113327
-0.0010769
-0.000932789
-0.000765172
-0.000555676
-0.000313382
-7.25147e-05
7.70705e-05
0.000114073
2.59007e-05
2.40422e-05
9.64274e-05
0.000387558
0.000626809
0.000875654
0.000763329
0.000364528
-8.13516e-05
-0.000388199
-0.000217052
-0.00161897
-0.0015268
-0.00131816
-0.00107967
-0.000784145
-0.000437833
-9.29141e-05
0.000122866
0.000168427
3.72147e-05
1.81269e-05
0.000125158
0.000531495
0.000878012
0.00123278
0.00108167
0.000528907
-0.000140236
-0.00059733
-0.000334799
-0.00213848
-0.00199601
-0.00171651
-0.00140347
-0.00101856
-0.000561651
-0.000104158
0.000181359
0.000228887
4.31374e-05
-9.53907e-07
0.000141325
0.000671137
0.00113548
0.00160718
0.0014127
0.000687308
-0.000227119
-0.000848033
-0.000472616
-0.00270052
-0.00248731
-0.00212947
-0.0017383
-0.00126054
-0.000684515
-0.000103153
0.000257355
0.00029839
4.1864e-05
-3.89294e-05
0.000139847
0.000802956
0.00140031
0.00200344
0.00176309
0.000842787
-0.000341625
-0.00113786
-0.000629136
-0.00331443
-0.00300342
-0.0025589
-0.00208605
-0.00151197
-0.000806341
-8.6544e-05
0.000355957
0.00037953
3.05792e-05
-0.000101874
0.00011425
0.000922478
0.00167319
0.00242556
0.00213642
0.000998657
-0.000477271
-0.00145737
-0.00079977
-0.00399031
-0.00354658
-0.00300643
-0.00244853
-0.00177516
-0.000927608
-5.08015e-05
0.000482902
0.000475097
6.28996e-06
-0.000196904
5.72145e-05
0.00102455
0.00195309
0.00287361
0.00253314
0.00115997
-0.00062173
-0.00179093
-0.000977239
-0.004739
-0.00411838
-0.00347346
-0.00282754
-0.00205268
-0.00104913
8.96569e-06
0.000644583
0.000588341
-3.4089e-05
-0.000332265
-3.97058e-05
0.00110138
0.00223693
0.00334231
0.00294925
0.00133127
-0.000759447
-0.00211881
-0.00115248
-0.00557191
-0.00471931
-0.00396107
-0.00322496
-0.00234899
-0.00117229
9.61462e-05
0.000847635
0.000723175
-9.29837e-05
-0.000515591
-0.000187769
0.00114538
0.00252124
0.00381878
0.00337401
0.00151376
-0.000875199
-0.00242001
-0.00131579
-0.00650074
-0.00534832
-0.00446966
-0.00364238
-0.00266941
-0.00129958
0.000213239
0.00109828
0.000884315
-0.000170013
-0.000750926
-0.000394338
0.00114668
0.00278339
0.00428114
0.00378828
0.00170268
-0.000957783
-0.00267534
-0.00146661
-0.0075369
-0.00600186
-0.00499799
-0.0040802
-0.00302014
-0.0014351
0.000360055
0.00139973
0.00107698
-0.000259834
-0.00103496
-0.000662286
0.0010951
0.00300954
0.00469921
0.00416406
0.00188638
-0.00100224
-0.00286887
-0.00158034
-0.0086903
-0.00667228
-0.0055417
-0.00453595
-0.00340757
-0.00158481
0.000530713
0.00174773
0.00130516
-0.000348937
-0.00135293
-0.000985467
0.000982672
0.00317649
0.00503508
0.0044659
0.00204712
-0.00100969
-0.00298904
-0.00165777
-0.00996706
-0.00734521
-0.00608976
-0.00500615
-0.00383436
-0.00175674
0.000708762
0.00212531
0.0015659
-0.000415115
-0.00167534
-0.00134602
0.000807103
0.00325848
0.00524798
0.0046542
0.00216331
-0.000985035
-0.00302709
-0.00169295
-0.0113645
-0.0079957
-0.00661772
-0.00545953
-0.00429313
-0.00195973
0.000862742
0.0024934
0.00184058
-0.000434072
-0.00195843
-0.00171154
0.000575791
0.00323273
0.00528672
0.00469116
0.00221329
-0.000933925
-0.00297593
-0.00168075
-0.0128549
-0.00858343
-0.00708922
-0.00585535
-0.00475806
-0.00219776
0.000945949
0.00280382
0.00208746
-0.000393766
-0.00215549
-0.00203761
0.00030798
0.00308682
0.00512863
0.0045481
0.00217925
-0.000860332
-0.0028297
-0.0016172
-0.0143466
-0.00905597
-0.00744921
-0.00613319
-0.00517574
-0.00245849
0.000905066
0.00291149
0.00223587
-0.000305904
-0.00223005
-0.00227351
3.59399e-05
0.0028234
0.00476139
0.00421009
0.00205045
-0.000765279
-0.0025847
-0.00150021
-0.0157019
-0.00939553
-0.00768653
-0.00624445
-0.00546826
-0.00270616
0.000709328
0.00276672
0.00220095
-0.000202321
-0.00215908
-0.00236713
-0.000197241
0.00245923
0.00418952
0.00367974
0.00182544
-0.00064763
-0.00224086
-0.00133044
-0.016655
-0.00966701
-0.00783746
-0.0061887
-0.00555168
-0.00287607
0.000369123
0.00232745
0.00191756
-0.000121441
-0.00193025
-0.00226753
-0.000343751
0.00202457
0.00343801
0.00298083
0.00151485
-0.000506296
-0.00180414
-0.00111244
-0.0172577
-0.00993505
-0.00799577
-0.00599737
-0.00536742
-0.002893
-6.9994e-05
0.00160522
0.00138335
-7.90543e-05
-0.00153848
-0.00193732
-0.000361891
0.0015592
0.00255369
0.00215873
0.00114517
-0.000340529
-0.00128991
-0.0008559
-0.0174177
-0.0101026
-0.00813762
-0.00577158
-0.00504376
-0.0027745
-0.000409237
0.000953376
0.000871895
-6.44032e-05
-0.00114612
-0.00154295
-0.000274793
0.00123409
0.0018783
0.00152965
0.000869995
-0.000206143
-0.000887853
-0.000660101
-0.0172481
-0.0102302
-0.00823841
-0.0056404
-0.00481366
-0.00267369
-0.000598876
0.000560791
0.000559204
-6.01257e-05
-0.00089939
-0.00127732
-0.000201153
0.00105323
0.00148747
0.00116916
0.000711394
-0.000125618
-0.000650459
-0.000544175
-0.0171098
-0.0103793
-0.00835383
-0.00550366
-0.00454281
-0.00254192
-0.000780996
0.000157188
0.000235268
-5.53816e-05
-0.000630497
-0.000973312
-0.000103821
0.000879093
0.00109704
0.0008114
0.000553705
-4.1195e-05
-0.000407448
-0.000424282
-0.0170373
-0.0105351
-0.00847973
-0.00535753
-0.00423987
-0.00238441
-0.000955747
-0.00024979
-9.17024e-05
-4.634e-05
-0.000340868
-0.000636028
1.57414e-05
0.000712057
0.000710201
0.00045863
0.000399276
4.70123e-05
-0.00016064
-0.000301716
-0.0170122
-0.0106965
-0.00861143
-0.00520318
-0.00391333
-0.00220735
-0.00112236
-0.000651683
-0.000412833
-3.01455e-05
-3.32121e-05
-0.00027032
0.000155141
0.000552764
0.000330504
0.00011462
0.000250265
0.000138738
8.81511e-05
-0.000177624
-0.0170305
-0.0108587
-0.00874257
-0.00504274
-0.00357208
-0.00201804
-0.00128005
-0.00104009
-0.000719369
-4.28933e-06
0.000289113
0.000118361
0.000311243
0.000401914
-3.82762e-05
-0.00021667
0.000108683
0.000233631
0.000337065
-5.30507e-05
-0.017087
-0.011019
-0.00886594
-0.00487821
-0.00322605
-0.00182463
-0.00142854
-0.00140748
-0.00100351
3.31875e-05
0.000622085
0.000523532
0.000480327
0.000259953
-0.000392662
-0.000531676
-2.35753e-05
0.000331181
0.000584297
7.09559e-05
-0.0171804
-0.0111641
-0.00897392
-0.0047117
-0.00288527
-0.00163535
-0.00156782
-0.00174747
-0.00125875
8.35504e-05
0.00096111
0.000937807
0.000658186
0.000127108
-0.000729576
-0.000827237
-0.000144784
0.000430793
0.000828166
0.000193342
-0.0173205
-0.0112842
-0.00905824
-0.00454627
-0.00255888
-0.00145872
-0.00169838
-0.00205452
-0.00147906
0.0001483
0.0013023
0.00135403
0.000840451
3.24732e-06
-0.00104615
-0.00110069
-0.000253713
0.000532548
0.00106662
0.00031345
-0.0175477
-0.0114034
-0.00911064
-0.00438739
-0.00225495
-0.00130606
-0.00182432
-0.00232425
-0.00165771
0.000230452
0.00164407
0.00176757
0.00102333
-0.000113349
-0.00133956
-0.00135026
-0.000350054
0.000638037
0.00129599
0.000431716
-0.0174769
-0.0117704
-0.00914836
-0.0040643
-0.00165999
-0.00104474
-0.00209965
-0.00282902
-0.00195436
0.000444604
0.00237743
0.00264859
0.00141256
-0.00035654
-0.0019255
-0.00184021
-0.000530704
0.000873337
0.00177083
0.000682395
-0.0163496
-0.0114284
-0.00873203
-0.00370379
-0.00116933
-0.000918031
-0.00238099
-0.00316891
-0.00202103
0.000833424
0.00328104
0.00372783
0.00186566
-0.000627172
-0.00254938
-0.00230003
-0.000641623
0.00120719
0.00240263
0.000988873
-0.0149147
-0.010782
-0.00801044
-0.00353572
-0.00113277
-0.00108293
-0.00251358
-0.00311387
-0.00176262
0.00119637
0.00381384
0.00430439
0.00207768
-0.00082549
-0.00288575
-0.00245873
-0.00059024
0.00149604
0.00287761
0.00121256
-0.0126887
-0.0096676
-0.00719947
-0.00350876
-0.00136694
-0.00131569
-0.00246159
-0.00278797
-0.00136956
0.00143151
0.00394102
0.00438652
0.0020425
-0.00094248
-0.00295025
-0.00236955
-0.000421355
0.00170995
0.00317017
0.00134794
-0.0107789
-0.00857243
-0.00643685
-0.0034937
-0.00163642
-0.00148434
-0.00225176
-0.00233232
-0.000973744
0.00150257
0.00373079
0.00409605
0.00184589
-0.000952586
-0.0027773
-0.00209919
-0.000191101
0.00182993
0.00327633
0.00139663
-0.00901715
-0.00747179
-0.00572536
-0.00341538
-0.00182592
-0.00155864
-0.00197871
-0.00187883
-0.000644589
0.00144031
0.00331805
0.00360922
0.00159623
-0.00084359
-0.00241788
-0.00171759
4.71934e-05
0.00184799
0.00320894
0.00136857
-0.00751035
-0.00648674
-0.00508716
-0.00327366
-0.00192014
-0.00155995
-0.0017119
-0.0014929
-0.00040601
0.00130379
0.00280836
0.00306483
0.00136371
-0.000641646
-0.0019498
-0.001296
0.000254089
0.00177203
0.00299444
0.00127935
-0.00624668
-0.00561141
-0.00450426
-0.00307535
-0.00192725
-0.00151416
-0.00147787
-0.0011896
-0.000247363
0.00113879
0.00232663
0.00254718
0.0011754
-0.000404892
-0.00146177
-0.000896924
0.000406456
0.00162592
0.00268375
0.00115
-0.00518645
-0.00483283
-0.00396943
-0.00284099
-0.00187028
-0.00143802
-0.00128115
-0.000960572
-0.000147904
0.000970568
0.00190215
0.002093
0.0010236
-0.000188017
-0.00102417
-0.000561256
0.000497132
0.00144013
0.00232475
0.00100142
-0.00429842
-0.00414188
-0.00347852
-0.00258623
-0.00176815
-0.00134167
-0.0011152
-0.000785275
-8.86333e-05
0.000812655
0.00154233
0.00170981
0.000894587
-1.88537e-05
-0.000670834
-0.000306569
0.000531911
0.0012405
0.00195584
0.000850371
-0.00355385
-0.0035293
-0.00302734
-0.0023218
-0.00163516
-0.0012317
-0.000971016
-0.00064997
-5.71814e-05
0.000671192
0.00124487
0.00139056
0.000779127
9.62816e-05
-0.000407055
-0.000129683
0.000526794
0.00104747
0.00160399
0.000708658
-0.00292694
-0.00298556
-0.00261172
-0.00205505
-0.00148185
-0.00111254
-0.000842659
-0.000542674
-3.98977e-05
0.000547293
0.00100029
0.00112518
0.000672385
0.000163654
-0.000220955
-1.63828e-05
0.000493328
0.000873578
0.00128642
0.000582936
-0.00239573
-0.00250161
-0.00222777
-0.00179075
-0.00131587
-0.000987417
-0.00072586
-0.000454212
-3.15199e-05
0.000440429
0.000799028
0.000904322
0.00057312
0.000194896
-9.5895e-05
4.9593e-05
0.0004424
0.000721275
0.00101148
0.000475063
-0.00194178
-0.00206895
-0.00187186
-0.00153172
-0.00114263
-0.000858626
-0.00061731
-0.000378574
-2.7562e-05
0.000349249
0.000632682
0.000719867
0.000480766
0.000200324
-1.69988e-05
8.31646e-05
0.000382722
0.000589065
0.000780665
0.000383441
-0.00154963
-0.00167964
-0.00154043
-0.00127942
-0.000965857
-0.000727785
-0.000514636
-0.000311526
-2.51869e-05
0.000271902
0.000494039
0.00056478
0.000394508
0.000187915
2.79923e-05
9.52543e-05
0.000319872
0.000473647
0.00059123
0.00030498
-0.00120631
-0.00132628
-0.00123006
-0.00103433
-0.000787986
-0.000596001
-0.000416181
-0.000250096
-2.28143e-05
0.000206358
0.000377029
0.00043308
0.0003135
0.00016356
4.85975e-05
9.30988e-05
0.000256915
0.000371544
0.00043784
0.000236778
-0.000900927
-0.00100201
-0.000937377
-0.000796238
-0.000610536
-0.000463955
-0.000320739
-0.000192245
-1.95433e-05
0.000150483
0.000276488
0.000319491
0.000237037
0.000131656
5.19398e-05
8.15135e-05
0.000195614
0.000279664
0.000313705
0.000176707
-0.000624083
-0.000700459
-0.000659115
-0.000564606
-0.000434502
-0.000332284
-0.000227251
-0.000136786
-1.48707e-05
0.000102215
0.000187996
0.000219008
0.000163549
9.58136e-05
4.34678e-05
6.34671e-05
0.000137206
0.000196333
0.000211296
0.000122324
-0.000367639
-0.000416062
-0.000392169
-0.000338913
-0.000260463
-0.000202292
-0.000135242
-8.2927e-05
-9.33584e-06
5.99943e-05
0.000107589
0.000128366
8.99232e-05
5.68476e-05
2.75093e-05
4.08881e-05
8.02772e-05
0.000120593
0.000126883
7.05802e-05
-0.000125614
-0.000142792
-0.000132479
-0.000117026
-8.75432e-05
-7.35568e-05
-4.56e-05
-2.88248e-05
-4.34676e-06
2.14567e-05
3.25612e-05
4.49875e-05
1.78631e-05
1.4391e-05
6.71452e-06
1.54771e-05
2.36278e-05
4.26413e-05
5.54262e-05
2.38429e-05
-0.040774
-0.0291561
-0.0248418
-0.0250603
-0.0249726
-0.0244092
-0.0236083
-0.0227171
-0.0218551
-0.0211594
-0.0035858
-0.0102025
-0.0147415
-0.0179835
-0.0198768
-0.020583
-0.0205429
-0.0201567
-0.0195897
-0.0189739
-0.00449222
-0.00959952
-0.0126095
-0.0144455
-0.0156998
-0.0165126
-0.0169166
-0.0170028
-0.0168353
-0.016513
-0.00189164
-0.00497092
-0.00739204
-0.00924338
-0.0106961
-0.0118122
-0.0125911
-0.0130605
-0.0132537
-0.013243
-0.000812315
-0.00299525
-0.00498088
-0.00663321
-0.00795731
-0.00899522
-0.00977312
-0.0103154
-0.0106435
-0.0107955
-0.0004754
-0.0020657
-0.00355809
-0.00485909
-0.00594792
-0.00683869
-0.00754739
-0.00808588
-0.00846402
-0.00869776
-0.000259287
-0.00143447
-0.0025553
-0.00357232
-0.00446342
-0.00522419
-0.00585661
-0.00636344
-0.00674943
-0.00702183
-9.63546e-05
-0.000994586
-0.0018625
-0.00267143
-0.00340261
-0.0040456
-0.00459615
-0.00505293
-0.00541809
-0.00569444
1.48324e-05
-0.000692229
-0.00137977
-0.00202928
-0.00262706
-0.00316355
-0.00363336
-0.00403365
-0.00436467
-0.00462713
8.65785e-05
-0.00047905
-0.00103019
-0.00155472
-0.00204333
-0.0024887
-0.00288585
-0.00323154
-0.00352472
-0.0037652
0.000131641
-0.000324886
-0.000770214
-0.00119627
-0.00159665
-0.00196591
-0.00229975
-0.00259518
-0.00285047
-0.0030652
0.000157126
-0.0002132
-0.000574792
-0.000922065
-0.00125043
-0.00155584
-0.00183478
-0.00208474
-0.0023038
-0.00249166
0.000167123
-0.000133469
-0.000427151
-0.000709942
-0.000978484
-0.00122977
-0.00146102
-0.00167027
-0.00185563
-0.00201705
0.000164749
-7.80029e-05
-0.000315233
-0.000544067
-0.000762032
-0.000966917
-0.00115652
-0.00132942
-0.0014838
-0.00161995
0.000152594
-4.10204e-05
-0.000230234
-0.000412972
-0.000587409
-0.000751938
-0.000904833
-0.0010451
-0.00117107
-0.00128333
0.000132809
-1.81053e-05
-0.000165567
-0.000308094
-0.000444353
-0.000573197
-0.000693292
-0.000803993
-0.000903808
-0.000993556
0.000107292
-5.66307e-06
-0.000116015
-0.000222725
-0.000324835
-0.00042156
-0.000511898
-0.000595504
-0.000671069
-0.000739596
7.77336e-05
-5.61268e-07
-7.71015e-05
-0.000151163
-0.000222065
-0.000289315
-0.000352185
-0.000410572
-0.000463373
-0.00051182
4.44929e-05
-1.43681e-06
-4.63364e-05
-8.97863e-05
-0.000131401
-0.000170939
-0.000207915
-0.000242368
-0.00027333
-0.000301976
8.23253e-06
-7.83038e-06
-2.30224e-05
-3.75437e-05
-5.14287e-05
-6.46738e-05
-7.70343e-05
-8.8792e-05
-9.93589e-05
-0.000109909
0.0104052
0.0104649
0.0105944
0.0107978
0.011079
0.0114427
0.0118976
0.012452
0.0131213
0.0139156
0.0148606
0.0159574
0.0172459
0.0186626
0.0202535
0.0215875
0.0226774
0.0206904
0.0155199
-0.00909381
0.0101368
0.010189
0.0103015
0.0104774
0.0107189
0.0110281
0.011409
0.0118641
0.0123992
0.0130122
0.0137073
0.0144616
0.015268
0.0160314
0.0167073
0.0169802
0.0167279
0.0152765
0.0122758
0.00732563
0.0097589
0.00980182
0.00989382
0.0100368
0.0102312
0.0104764
0.0107721
0.0111159
0.0115052
0.0119302
0.0123794
0.0128226
0.0132257
0.0135101
0.0135888
0.0133005
0.01244
0.0108081
0.00755563
0.00303895
0.00929117
0.00932413
0.00939446
0.00950293
0.00964839
0.0098282
0.0100389
0.0102747
0.0105276
0.0107841
0.0110249
0.0112204
0.0113276
0.0112895
0.0110148
0.0104219
0.00931412
0.00764847
0.00501227
0.00182554
0.00875425
0.00877755
0.00882696
0.00890237
0.00900153
0.00912056
0.00925406
0.00939458
0.00953154
0.00965051
0.00973055
0.00974546
0.00965579
0.00942065
0.00897176
0.00826474
0.00718869
0.005748
0.00381149
0.00154736
0.00816824
0.00818282
0.00821344
0.00825939
0.00831785
0.00838437
0.00845281
0.00851519
0.00856063
0.00857543
0.00854069
0.00843474
0.0082274
0.00789038
0.00738029
0.00667035
0.00570842
0.00449503
0.00299447
0.00126308
0.00755128
0.00755846
0.00757324
0.00759452
0.00761934
0.00764324
0.00766016
0.00766248
0.00764027
0.00758158
0.00747107
0.007292
0.00702319
0.00664454
0.00613012
0.00546255
0.0046189
0.00359789
0.0023975
0.00104824
0.00691877
0.00692004
0.00692221
0.006924
0.00692261
0.00691393
0.00689248
0.00685151
0.00678263
0.00667606
0.00652013
0.00630226
0.00600782
0.0056229
0.00513242
0.00452594
0.00379455
0.00293974
0.00197
0.000909051
0.00628305
0.00627987
0.0062726
0.00625991
0.00623934
0.00620733
0.00615921
0.00608935
0.00599098
0.0058565
0.00567718
0.00544381
0.00514651
0.00477615
0.00432427
0.00378547
0.00315738
0.00244376
0.00165454
0.000807704
0.00565343
0.00564714
0.0056333
0.00561064
0.0055771
0.00552974
0.00546478
0.00537769
0.00526323
0.0051156
0.00492843
0.00469521
0.00440946
0.00406551
0.00365883
0.00318719
0.00265109
0.00205502
0.00140772
0.000722586
0.00503645
0.00502821
0.00501026
0.00498147
0.00494017
0.00488404
0.00481013
0.0047149
0.00459439
0.00444428
0.00426006
0.00403728
0.00377181
0.0034603
0.00310056
0.00269213
0.00223668
0.0017386
0.00120513
0.000646451
0.00443625
0.00442701
0.00440699
0.00437521
0.00433036
0.00427069
0.00419393
0.00409742
0.00397821
0.00383318
0.00365922
0.00345338
0.00321313
0.00293663
0.00262302
0.00227278
0.001888
0.00147263
0.00103257
0.000575642
0.00385497
0.00384549
0.00382503
0.00379275
0.00374767
0.00368847
0.00361348
0.00352072
0.00340807
0.00327336
0.00311446
0.00292952
0.00271703
0.00247611
0.00220667
0.00190965
0.00158714
0.00124256
0.000880648
0.000507395
0.00329317
0.00328405
0.00326443
0.00323357
0.00319075
0.00313503
0.0030652
0.00297985
0.00287747
0.00275659
0.00261582
0.00245401
0.00227037
0.00206458
0.00183696
0.00158859
0.0013214
0.00103826
0.000742917
0.000439935
0.00275022
0.00274191
0.00272405
0.00269604
0.00265734
0.00260732
0.00254511
0.00246974
0.00238019
0.00227545
0.00215468
0.00201719
0.00186262
0.001691
0.00150282
0.00129914
0.00108163
0.000852629
0.000615045
0.000372353
0.00222451
0.00221734
0.00220193
0.0021778
0.00214458
0.00210185
0.00204901
0.00198543
0.0019104
0.0018233
0.0017236
0.00161096
0.00148526
0.00134668
0.00119575
0.00103344
0.000861112
0.000680597
0.000494126
0.000304291
0.00171373
0.00170792
0.00169545
0.00167595
0.00164919
0.00161487
0.00157263
0.00152205
0.00146268
0.00139413
0.00131612
0.00122849
0.00113124
0.00102462
0.000909107
0.000785487
0.000654832
0.000518519
0.000378197
0.000235738
0.00121505
0.00121076
0.00120157
0.00118723
0.00116758
0.00114246
0.00111165
0.00107488
0.0010319
0.000982483
0.000926478
0.000863831
0.000794609
0.000719027
0.000637471
0.000550513
0.00045892
0.00036365
0.000265843
0.000166804
0.000725323
0.000722667
0.000716977
0.000708118
0.000696019
0.000680597
0.000661734
0.000639291
0.000613131
0.000583146
0.000549271
0.000511499
0.000469897
0.000424616
0.000375905
0.000324119
0.00026972
0.000213266
0.000155405
9.68872e-05
0.000241119
0.000240174
0.000238165
0.000235058
0.000230836
0.000225475
0.000218937
0.00021118
0.000202161
0.00019185
0.000180228
0.000167298
0.000153086
0.000137647
0.000121072
0.000103486
8.50526e-05
6.59714e-05
4.64503e-05
2.66082e-05
0.0103356
0.0103972
0.0105348
0.0107514
0.0110515
0.0114405
0.0119309
0.0125322
0.0132679
0.0141506
0.0152279
0.0165078
0.0180923
0.0199476
0.0223073
0.0249085
0.0283622
0.0311429
0.035979
0.0275724
0.0104031
0.0104654
0.0106057
0.0108265
0.0111327
0.0115303
0.0120327
0.0126501
0.0134089
0.0143233
0.0154472
0.0167947
0.0184837
0.0205039
0.0231299
0.0262076
0.0304109
0.0347858
0.0408196
0.0405277
0.0104584
0.0105212
0.0106635
0.0108875
0.0111983
0.0116023
0.0121137
0.0127436
0.0135198
0.0144587
0.0156181
0.017019
0.0187886
0.0209428
0.0237763
0.02724
0.0319917
0.0374824
0.044349
0.0482376
0.0105013
0.0105646
0.0107082
0.0109343
0.0112481
0.0116564
0.0121739
0.012812
0.0135998
0.0145554
0.0157388
0.0171763
0.0190012
0.021249
0.0242268
0.02796
0.0330833
0.0393033
0.046758
0.0526992
0.0105319
0.0105954
0.0107396
0.0109667
0.011282
0.0116924
0.0122127
0.0128549
0.0136484
0.0146121
0.0158073
0.0172631
0.0191157
0.0214113
0.0244637
0.0283383
0.0336579
0.0402581
0.0480188
0.0548662
0.0105501
0.0106135
0.0107577
0.0109847
0.0112998
0.0117099
0.01223
0.0128719
0.013665
0.0146281
0.0158226
0.0172774
0.0191287
0.0214234
0.0244763
0.0283583
0.0336949
0.0403415
0.048143
0.055116
0.0105558
0.0106191
0.0107625
0.0109882
0.0113015
0.0117092
0.0122258
0.012863
0.0136495
0.0146035
0.0157846
0.0172192
0.01904
0.0212849
0.0242637
0.0280177
0.0331904
0.0395485
0.0471251
0.0534878
0.0105493
0.010612
0.010754
0.0109774
0.0112873
0.0116903
0.0122004
0.0128286
0.0136027
0.0145391
0.0156947
0.0170907
0.0188534
0.0210017
0.0238344
0.0273282
0.0321594
0.0378814
0.0449479
0.049705
0.0105305
0.0105926
0.0107324
0.0109524
0.0112574
0.0116535
0.0121541
0.0127694
0.0135253
0.0144362
0.015555
0.0168956
0.0185744
0.0205839
0.0232028
0.0263097
0.0306153
0.0353267
0.0416614
0.0430583
0.0104993
0.0105608
0.0106978
0.0109133
0.0112118
0.011599
0.0120871
0.0126855
0.0134177
0.0142961
0.0153668
0.016638
0.0182079
0.0200449
0.0223801
0.0249833
0.0285048
0.0316664
0.0371063
0.0319614
)
;

boundaryField
{
    inlet
    {
        type            zeroGradient;
    }
    outlet
    {
        type            fixedValue;
        value           uniform 0;
    }
    upAndBottom
    {
        type            empty;
    }
    obstacle
    {
        type            zeroGradient;
    }
}


// ************************************************************************* //
