x,y,z,p
0,0,0,9.64977e-05
0,0.1,0,0.000210104
0,0.2,0,0.00032371
0,0.3,0,0.000456421
0,0.4,0,0.000608238
0,0.5,0,0.000760054
0,0.6,0,0.000911092
0,0.7,0,0.00106213
0,0.8,0,0.00121257
0,0.9,0,0.00136242
0,1,0,0.00151227
0,1.1,0,0.00166051
0,1.2,0,0.00180874
0,1.3,0,0.00195593
0,1.4,0,0.00210207
0,1.5,0,0.00224822
0,1.6,0,0.00239176
0,1.7,0,0.00253531
0,1.8,0,0.00267728
0,1.9,0,0.00281767
0,2,0,0.00295806
0,2.1,0,0.00309467
0,2.2,0,0.00323129
0,2.3,0,0.00336569
0,2.4,0,0.00349787
0,2.5,0,0.00363006
0,2.6,0,0.0037571
0,2.7,0,0.00388415
0,2.8,0,0.00400825
0,2.9,0,0.0041294
0,3,0,0.00425055
0,3.1,0,0.00436503
0,3.2,0,0.00447951
0,3.3,0,0.00459026
0,3.4,0,0.00469727
0,3.5,0,0.00480428
0,3.6,0,0.00490302
0,3.7,0,0.00500176
0,3.8,0,0.00509597
0,3.9,0,0.00518565
0,4,0,0.00527534
0,4.1,0,0.00535523
0,4.2,0,0.00543512
0,4.3,0,0.00550977
0,4.4,0,0.00557919
0,4.5,0,0.0056486
0,4.6,0,0.00570694
0,4.7,0,0.00576528
0,4.8,0,0.00581492
0,4.9,0,0.00585584
0,5,0,0.00589676
0,5.1,0,0.0059504
0,5.2,0,0.00598414
0,5.3,0,0.00601298
0,5.4,0,0.00603694
0,5.5,0,0.00605599
0,5.6,0,0.00607016
0,5.7,0,0.00607943
0,5.8,0,0.00608384
0,5.9,0,0.00608335
0,6,0,0.00607347
0,6.1,0,0.00605926
0,6.2,0,0.00604504
0,6.3,0,0.00603082
0,6.4,0,0.00600602
0,6.5,0,0.00597552
0,6.6,0,0.00594501
0,6.7,0,0.00591029
0,6.8,0,0.00586572
0,6.9,0,0.00582116
0,7,0,0.00577659
0,7.1,0,0.00571987
0,7.2,0,0.0056625
0,7.3,0,0.00560514
0,7.4,0,0.00554094
0,7.5,0,0.00547218
0,7.6,0,0.00540343
0,7.7,0,0.00533219
0,7.8,0,0.00525351
0,7.9,0,0.00517484
0,8,0,0.00509616
0,8.1,0,0.00500989
0,8.2,0,0.00492277
0,8.3,0,0.00483566
0,8.4,0,0.00474468
0,8.5,0,0.00465055
0,8.6,0,0.00455642
0,8.7,0,0.00446116
0,8.8,0,0.00436134
0,8.9,0,0.00426152
0,9,0,0.0041617
0,9.1,0,0.00405806
0,9.2,0,0.00395374
0,9.3,0,0.00384943
0,9.4,0,0.00374339
0,9.5,0,0.00363562
0,9.6,0,0.00352786
0,9.7,0,0.0034197
0,9.8,0,0.00330937
0,9.9,0,0.00319904
0,10,0,0.0030887
0,10.1,0,0.00297689
0,10.2,0,0.00286472
0,10.3,0,0.00275254
0,10.4,0,0.0026398
0,10.5,0,0.00252635
0,10.6,0,0.00241291
0,10.7,0,0.00229939
0,10.8,0,0.00218512
0,10.9,0,0.00207085
0,11,0,0.00195659
0,11.1,0,0.00184194
0,11.2,0,0.00172717
0,11.3,0,0.00161241
0,11.4,0,0.00149753
0,11.5,0,0.00138248
0,11.6,0,0.00126743
0,11.7,0,0.00115237
0,11.8,0,0.00103718
0,11.9,0,0.000921987
0,12,0,0.000806797
0,12.1,0,0.000691565
0,12.2,0,0.000576315
0,12.3,0,0.000461065
0,12.4,0,0.000355918
0,12.5,0,0.000269533
0,12.6,0,0.000183148
0,12.7,0,9.67634e-05
0.1,0,0,6.89269e-05
0.1,0.1,0,0.000182604
0.1,0.2,0,0.000304533
0.1,0.3,0,0.000456638
0.1,0.4,0,0.000608444
0.1,0.5,0,0.000760536
0.1,0.6,0,0.000911442
0.1,0.7,0,0.00106259
0.1,0.8,0,0.00121314
0.1,0.9,0,0.00136292
0.1,1,0,0.00151327
0.1,1.1,0,0.00166117
0.1,1.2,0,0.00180959
0.1,1.3,0,0.0019569
0.1,1.4,0,0.0021029
0.1,1.5,0,0.00224983
0.1,1.6,0,0.00239279
0.1,1.7,0,0.00253662
0.1,1.8,0,0.00267873
0.1,1.9,0,0.0028189
0.1,2,0,0.0029604
0.1,2.1,0,0.00309613
0.1,2.2,0,0.00323314
0.1,2.3,0,0.00336771
0.1,2.4,0,0.00349958
0.1,2.5,0,0.00363327
0.1,2.6,0,0.00375907
0.1,2.7,0,0.00388663
0.1,2.8,0,0.00401092
0.1,2.9,0,0.00413164
0.1,3,0,0.0042547
0.1,3.1,0,0.00436756
0.1,3.2,0,0.00448267
0.1,3.3,0,0.00459362
0.1,3.4,0,0.00470008
0.1,3.5,0,0.0048094
0.1,3.6,0,0.00490611
0.1,3.7,0,0.0050056
0.1,3.8,0,0.0051
0.1,3.9,0,0.00518902
0.1,4,0,0.00528135
0.1,4.1,0,0.00535886
0.1,4.2,0,0.00543958
0.1,4.3,0,0.0055144
0.1,4.4,0,0.00558305
0.1,4.5,0,0.00565532
0.1,4.6,0,0.00571098
0.1,4.7,0,0.00577021
0.1,4.8,0,0.00582289
0.1,4.9,0,0.00586424
0.1,5,0,0.00590384
0.1,5.1,0,0.00595751
0.1,5.2,0,0.00599127
0.1,5.3,0,0.00602013
0.1,5.4,0,0.0060441
0.1,5.5,0,0.00606316
0.1,5.6,0,0.00607732
0.1,5.7,0,0.00608658
0.1,5.8,0,0.00609096
0.1,5.9,0,0.00609045
0.1,6,0,0.00608055
0.1,6.1,0,0.00606783
0.1,6.2,0,0.00605361
0.1,6.3,0,0.00603833
0.1,6.4,0,0.006013
0.1,6.5,0,0.00598253
0.1,6.6,0,0.00595188
0.1,6.7,0,0.00591675
0.1,6.8,0,0.00587217
0.1,6.9,0,0.0058276
0.1,7,0,0.00578255
0.1,7.1,0,0.00572567
0.1,7.2,0,0.0056683
0.1,7.3,0,0.00561065
0.1,7.4,0,0.00554612
0.1,7.5,0,0.00547729
0.1,7.6,0,0.00540843
0.1,7.7,0,0.00533676
0.1,7.8,0,0.0052579
0.1,7.9,0,0.00517923
0.1,8,0,0.00510015
0.1,8.1,0,0.00501359
0.1,8.2,0,0.00492646
0.1,8.3,0,0.00483913
0.1,8.4,0,0.00474781
0.1,8.5,0,0.00465358
0.1,8.6,0,0.00455939
0.1,8.7,0,0.00446376
0.1,8.8,0,0.00436376
0.1,8.9,0,0.00426394
0.1,9,0,0.00416383
0.1,9.1,0,0.00405996
0.1,9.2,0,0.00395562
0.1,9.3,0,0.00385117
0.1,9.4,0,0.00374489
0.1,9.5,0,0.00363704
0.1,9.6,0,0.00352925
0.1,9.7,0,0.00342086
0.1,9.8,0,0.00331041
0.1,9.9,0,0.00320007
0.1,10,0,0.00308958
0.1,10.1,0,0.00297764
0.1,10.2,0,0.00286544
0.1,10.3,0,0.0027532
0.1,10.4,0,0.00264032
0.1,10.5,0,0.00252684
0.1,10.6,0,0.00241339
0.1,10.7,0,0.00229974
0.1,10.8,0,0.00218543
0.1,10.9,0,0.00207116
0.1,11,0,0.00195682
0.1,11.1,0,0.00184213
0.1,11.2,0,0.00172735
0.1,11.3,0,0.00161256
0.1,11.4,0,0.00149763
0.1,11.5,0,0.00138257
0.1,11.6,0,0.00126752
0.1,11.7,0,0.00115242
0.1,11.8,0,0.00103722
0.1,11.9,0,0.000922029
0.1,12,0,0.000806823
0.1,12.1,0,0.000691581
0.1,12.2,0,0.00057633
0.1,12.3,0,0.000461077
0.1,12.4,0,0.000345813
0.1,12.5,0,0.00024189
0.1,12.6,0,0.000155505
0.1,12.7,0,6.91167e-05
0.2,0,0,4.13562e-05
0.2,0.1,0,0.000155062
0.2,0.2,0,0.000304775
0.2,0.3,0,0.00045688
0.2,0.4,0,0.000608816
0.2,0.5,0,0.000761018
0.2,0.6,0,0.000911871
0.2,0.7,0,0.00106332
0.2,0.8,0,0.00121387
0.2,0.9,0,0.00136372
0.2,1,0,0.00151427
0.2,1.1,0,0.00166203
0.2,1.2,0,0.00181088
0.2,1.3,0,0.00195819
0.2,1.4,0,0.0021042
0.2,1.5,0,0.00225144
0.2,1.6,0,0.00239416
0.2,1.7,0,0.00253858
0.2,1.8,0,0.00268069
0.2,1.9,0,0.0028208
0.2,2,0,0.00296275
0.2,2.1,0,0.00309812
0.2,2.2,0,0.0032359
0.2,2.3,0,0.00337047
0.2,2.4,0,0.00350218
0.2,2.5,0,0.00363647
0.2,2.6,0,0.00376178
0.2,2.7,0,0.0038903
0.2,2.8,0,0.00401459
0.2,2.9,0,0.00413503
0.2,3,0,0.00425886
0.2,3.1,0,0.00437106
0.2,3.2,0,0.00448732
0.2,3.3,0,0.00459826
0.2,3.4,0,0.00470428
0.2,3.5,0,0.00481453
0.2,3.6,0,0.00491043
0.2,3.7,0,0.00501118
0.2,3.8,0,0.00510559
0.2,3.9,0,0.00519398
0.2,4,0,0.00528737
0.2,4.1,0,0.00536392
0.2,4.2,0,0.00544598
0.2,4.3,0,0.00552079
0.2,4.4,0,0.00558863
0.2,4.5,0,0.00566205
0.2,4.6,0,0.00571663
0.2,4.7,0,0.00577719
0.2,4.8,0,0.00582987
0.2,4.9,0,0.00587185
0.2,5,0,0.00591092
0.2,5.1,0,0.00596461
0.2,5.2,0,0.0059984
0.2,5.3,0,0.00602728
0.2,5.4,0,0.00605126
0.2,5.5,0,0.00607033
0.2,5.6,0,0.00608448
0.2,5.7,0,0.00609372
0.2,5.8,0,0.00609808
0.2,5.9,0,0.00609755
0.2,6,0,0.00608764
0.2,6.1,0,0.00607498
0.2,6.2,0,0.0060612
0.2,6.3,0,0.00604523
0.2,6.4,0,0.0060199
0.2,6.5,0,0.00598939
0.2,6.6,0,0.00595835
0.2,6.7,0,0.00592322
0.2,6.8,0,0.00587863
0.2,6.9,0,0.00583358
0.2,7,0,0.00578848
0.2,7.1,0,0.0057316
0.2,7.2,0,0.00567384
0.2,7.3,0,0.00561596
0.2,7.4,0,0.00555143
0.2,7.5,0,0.00548238
0.2,7.6,0,0.00541306
0.2,7.7,0,0.00534139
0.2,7.8,0,0.00526246
0.2,7.9,0,0.00518324
0.2,8,0,0.0051041
0.2,8.1,0,0.00501754
0.2,8.2,0,0.00492995
0.2,8.3,0,0.0048424
0.2,8.4,0,0.00475109
0.2,8.5,0,0.00465665
0.2,8.6,0,0.00456204
0.2,8.7,0,0.00446641
0.2,8.8,0,0.00436635
0.2,8.9,0,0.00426609
0.2,9,0,0.00416592
0.2,9.1,0,0.00406204
0.2,9.2,0,0.00395739
0.2,9.3,0,0.00385276
0.2,9.4,0,0.00374648
0.2,9.5,0,0.00363852
0.2,9.6,0,0.00353042
0.2,9.7,0,0.00342203
0.2,9.8,0,0.00331155
0.2,9.9,0,0.00320096
0.2,10,0,0.00309041
0.2,10.1,0,0.00297847
0.2,10.2,0,0.00286612
0.2,10.3,0,0.00275377
0.2,10.4,0,0.00264089
0.2,10.5,0,0.00252736
0.2,10.6,0,0.00241375
0.2,10.7,0,0.00230011
0.2,10.8,0,0.00218578
0.2,10.9,0,0.0020714
0.2,11,0,0.00195704
0.2,11.1,0,0.00184234
0.2,11.2,0,0.00172751
0.2,11.3,0,0.00161267
0.2,11.4,0,0.00149774
0.2,11.5,0,0.00138267
0.2,11.6,0,0.00126757
0.2,11.7,0,0.00115247
0.2,11.8,0,0.00103727
0.2,11.9,0,0.000922055
0.2,12,0,0.000806841
0.2,12.1,0,0.0006916
0.2,12.2,0,0.000576343
0.2,12.3,0,0.000461082
0.2,12.4,0,0.000345818
0.2,12.5,0,0.000230547
0.2,12.6,0,0.000127859
0.2,12.7,0,4.147e-05
0.3,0,0,1.37854e-05
0.3,0.1,0,0.000152459
0.3,0.2,0,0.000305003
0.3,0.3,0,0.000457177
0.3,0.4,0,0.00060933
0.3,0.5,0,0.000761499
0.3,0.6,0,0.000912696
0.3,0.7,0,0.00106408
0.3,0.8,0,0.0012147
0.3,0.9,0,0.00136493
0.3,1,0,0.00151527
0.3,1.1,0,0.0016636
0.3,1.2,0,0.00181224
0.3,1.3,0,0.00195963
0.3,1.4,0,0.00210622
0.3,1.5,0,0.00225305
0.3,1.6,0,0.00239662
0.3,1.7,0,0.00254066
0.3,1.8,0,0.00268288
0.3,1.9,0,0.0028238
0.3,2,0,0.00296509
0.3,2.1,0,0.00310164
0.3,2.2,0,0.00323884
0.3,2.3,0,0.00337353
0.3,2.4,0,0.00350634
0.3,2.5,0,0.00363968
0.3,2.6,0,0.00376652
0.3,2.7,0,0.00389422
0.3,2.8,0,0.00401864
0.3,2.9,0,0.00414047
0.3,3,0,0.00426301
0.3,3.1,0,0.00437712
0.3,3.2,0,0.00449228
0.3,3.3,0,0.00460337
0.3,3.4,0,0.00471105
0.3,3.5,0,0.00481965
0.3,3.6,0,0.00491779
0.3,3.7,0,0.00501717
0.3,3.8,0,0.0051117
0.3,3.9,0,0.00520199
0.3,4,0,0.00529338
0.3,4.1,0,0.00537242
0.3,4.2,0,0.00545285
0.3,4.3,0,0.00552776
0.3,4.4,0,0.00559763
0.3,4.5,0,0.00566877
0.3,4.6,0,0.005726
0.3,4.7,0,0.00578471
0.3,4.8,0,0.00583659
0.3,4.9,0,0.00587765
0.3,5,0,0.005918
0.3,5.1,0,0.00597172
0.3,5.2,0,0.00600552
0.3,5.3,0,0.00603443
0.3,5.4,0,0.00605842
0.3,5.5,0,0.00607749
0.3,5.6,0,0.00609164
0.3,5.7,0,0.00610087
0.3,5.8,0,0.0061052
0.3,5.9,0,0.00610464
0.3,6,0,0.00609472
0.3,6.1,0,0.00608115
0.3,6.2,0,0.00606674
0.3,6.3,0,0.00605213
0.3,6.4,0,0.0060267
0.3,6.5,0,0.00599575
0.3,6.6,0,0.0059648
0.3,6.7,0,0.00592969
0.3,6.8,0,0.00588466
0.3,6.9,0,0.00583953
0.3,7,0,0.00579441
0.3,7.1,0,0.00573729
0.3,7.2,0,0.00567927
0.3,7.3,0,0.00562127
0.3,7.4,0,0.00555667
0.3,7.5,0,0.00548721
0.3,7.6,0,0.00541775
0.3,7.7,0,0.00534603
0.3,7.8,0,0.00526674
0.3,7.9,0,0.00518734
0.3,8,0,0.00510804
0.3,8.1,0,0.0050213
0.3,8.2,0,0.00493349
0.3,8.3,0,0.00484568
0.3,8.4,0,0.00475434
0.3,8.5,0,0.00465955
0.3,8.6,0,0.00456477
0.3,8.7,0,0.00446905
0.3,8.8,0,0.00436874
0.3,8.9,0,0.00426833
0.3,9,0,0.004168
0.3,9.1,0,0.00406402
0.3,9.2,0,0.00395919
0.3,9.3,0,0.00385436
0.3,9.4,0,0.00374807
0.3,9.5,0,0.00363987
0.3,9.6,0,0.00353167
0.3,9.7,0,0.00342321
0.3,9.8,0,0.00331259
0.3,9.9,0,0.0032019
0.3,10,0,0.00309125
0.3,10.1,0,0.00297925
0.3,10.2,0,0.0028668
0.3,10.3,0,0.00275434
0.3,10.4,0,0.00264146
0.3,10.5,0,0.0025278
0.3,10.6,0,0.00241415
0.3,10.7,0,0.00230047
0.3,10.8,0,0.00218608
0.3,10.9,0,0.00207166
0.3,11,0,0.00195725
0.3,11.1,0,0.00184254
0.3,11.2,0,0.00172766
0.3,11.3,0,0.00161279
0.3,11.4,0,0.00149786
0.3,11.5,0,0.00138275
0.3,11.6,0,0.00126763
0.3,11.7,0,0.00115252
0.3,11.8,0,0.00103731
0.3,11.9,0,0.000922083
0.3,12,0,0.00080686
0.3,12.1,0,0.000691616
0.3,12.2,0,0.000576352
0.3,12.3,0,0.000461087
0.3,12.4,0,0.000345823
0.3,12.5,0,0.000230549
0.3,12.6,0,0.000115274
0.3,12.7,0,1.38233e-05
0.4,0,0,0
0.4,0.1,0,0.000152705
0.4,0.2,0,0.000305249
0.4,0.3,0,0.000457899
0.4,0.4,0,0.000610051
0.4,0.5,0,0.000762477
0.4,0.6,0,0.000913901
0.4,0.7,0,0.00106529
0.4,0.8,0,0.00121642
0.4,0.9,0,0.00136665
0.4,1,0,0.0015173
0.4,1.1,0,0.00166587
0.4,1.2,0,0.00181451
0.4,1.3,0,0.00196252
0.4,1.4,0,0.00210911
0.4,1.5,0,0.00225632
0.4,1.6,0,0.00240017
0.4,1.7,0,0.00254421
0.4,1.8,0,0.00268717
0.4,1.9,0,0.00282809
0.4,2,0,0.00296987
0.4,2.1,0,0.00310673
0.4,2.2,0,0.00324393
0.4,2.3,0,0.00337949
0.4,2.4,0,0.00351229
0.4,2.5,0,0.00364622
0.4,2.6,0,0.00377339
0.4,2.7,0,0.00390108
0.4,2.8,0,0.00402647
0.4,2.9,0,0.00414829
0.4,3,0,0.00427153
0.4,3.1,0,0.00438592
0.4,3.2,0,0.00450108
0.4,3.3,0,0.00461314
0.4,3.4,0,0.00472082
0.4,3.5,0,0.00483023
0.4,3.6,0,0.00492851
0.4,3.7,0,0.00502789
0.4,3.8,0,0.00512332
0.4,3.9,0,0.0052136
0.4,4,0,0.00530591
0.4,4.1,0,0.00538486
0.4,4.2,0,0.00546529
0.4,4.3,0,0.00554092
0.4,4.4,0,0.00561079
0.4,4.5,0,0.00568291
0.4,4.6,0,0.00573976
0.4,4.7,0,0.00579846
0.4,4.8,0,0.00585076
0.4,4.9,0,0.00589182
0.4,5,0,0.00593309
0.4,5.1,0,0.00598697
0.4,5.2,0,0.00602087
0.4,5.3,0,0.00604983
0.4,5.4,0,0.00607387
0.4,5.5,0,0.00609295
0.4,5.6,0,0.00610707
0.4,5.7,0,0.00611625
0.4,5.8,0,0.0061205
0.4,5.9,0,0.00611984
0.4,6,0,0.00610973
0.4,6.1,0,0.00609532
0.4,6.2,0,0.00608091
0.4,6.3,0,0.00606638
0.4,6.4,0,0.00604013
0.4,6.5,0,0.00600918
0.4,6.6,0,0.00597823
0.4,6.7,0,0.00594253
0.4,6.8,0,0.00589711
0.4,6.9,0,0.00585198
0.4,7,0,0.00580671
0.4,7.1,0,0.00574856
0.4,7.2,0,0.00569054
0.4,7.3,0,0.00563248
0.4,7.4,0,0.00556663
0.4,7.5,0,0.00549717
0.4,7.6,0,0.00542771
0.4,7.7,0,0.00535504
0.4,7.8,0,0.00527531
0.4,7.9,0,0.00519592
0.4,8,0,0.00511621
0.4,8.1,0,0.0050285
0.4,8.2,0,0.00494069
0.4,8.3,0,0.00485285
0.4,8.4,0,0.00476023
0.4,8.5,0,0.00466545
0.4,8.6,0,0.00457066
0.4,8.7,0,0.00447415
0.4,8.8,0,0.00437344
0.4,8.9,0,0.00427303
0.4,9,0,0.00417238
0.4,9.1,0,0.00406765
0.4,9.2,0,0.00396282
0.4,9.3,0,0.00385799
0.4,9.4,0,0.0037508
0.4,9.5,0,0.00364259
0.4,9.6,0,0.00353439
0.4,9.7,0,0.00342546
0.4,9.8,0,0.00331456
0.4,9.9,0,0.00320387
0.4,10,0,0.00309305
0.4,10.1,0,0.00298062
0.4,10.2,0,0.00286816
0.4,10.3,0,0.0027557
0.4,10.4,0,0.00264237
0.4,10.5,0,0.0025287
0.4,10.6,0,0.00241505
0.4,10.7,0,0.00230115
0.4,10.8,0,0.00218663
0.4,10.9,0,0.00207221
0.4,11,0,0.00195774
0.4,11.1,0,0.00184284
0.4,11.2,0,0.00172797
0.4,11.3,0,0.0016131
0.4,11.4,0,0.00149802
0.4,11.5,0,0.00138289
0.4,11.6,0,0.00126778
0.4,11.7,0,0.00115262
0.4,11.8,0,0.00103737
0.4,11.9,0,0.000922142
0.4,12,0,0.000806909
0.4,12.1,0,0.000691633
0.4,12.2,0,0.000576368
0.4,12.3,0,0.000461104
0.4,12.4,0,0.000345826
0.4,12.5,0,0.000230551
0.4,12.6,0,0.000115277
0.4,12.7,0,0
0.5,0,0,0
0.5,0.1,0,0.000152996
0.5,0.2,0,0.000305906
0.5,0.3,0,0.000458676
0.5,0.4,0,0.000611031
0.5,0.5,0,0.00076395
0.5,0.6,0,0.000915442
0.5,0.7,0,0.00106739
0.5,0.8,0,0.00121865
0.5,0.9,0,0.00136894
0.5,1,0,0.00152036
0.5,1.1,0,0.0016688
0.5,1.2,0,0.00181826
0.5,1.3,0,0.00196642
0.5,1.4,0,0.00211294
0.5,1.5,0,0.00226126
0.5,1.6,0,0.00240478
0.5,1.7,0,0.00254994
0.5,1.8,0,0.00269309
0.5,1.9,0,0.00283377
0.5,2,0,0.00297707
0.5,2.1,0,0.00311333
0.5,2.2,0,0.00325203
0.5,2.3,0,0.00338781
0.5,2.4,0,0.00352016
0.5,2.5,0,0.00365609
0.5,2.6,0,0.00378232
0.5,2.7,0,0.00391193
0.5,2.8,0,0.00403755
0.5,2.9,0,0.00415863
0.5,3,0,0.00428442
0.5,3.1,0,0.00439739
0.5,3.2,0,0.00451491
0.5,3.3,0,0.00462722
0.5,3.4,0,0.00473376
0.5,3.5,0,0.00484626
0.5,3.6,0,0.00494256
0.5,3.7,0,0.00504472
0.5,3.8,0,0.00514038
0.5,3.9,0,0.00522901
0.5,4,0,0.00532495
0.5,4.1,0,0.00540125
0.5,4.2,0,0.00548481
0.5,4.3,0,0.00556063
0.5,4.4,0,0.00562828
0.5,4.5,0,0.00570445
0.5,4.6,0,0.00575797
0.5,4.7,0,0.00582002
0.5,4.8,0,0.0058733
0.5,4.9,0,0.00591455
0.5,5,0,0.0059562
0.5,5.1,0,0.00601037
0.5,5.2,0,0.00604442
0.5,5.3,0,0.0060735
0.5,5.4,0,0.00609759
0.5,5.5,0,0.00611668
0.5,5.6,0,0.00613077
0.5,5.7,0,0.00613986
0.5,5.8,0,0.00614399
0.5,5.9,0,0.00614315
0.5,6,0,0.00613266
0.5,6.1,0,0.00611825
0.5,6.2,0,0.00610376
0.5,6.3,0,0.00608838
0.5,6.4,0,0.00606186
0.5,6.5,0,0.00602969
0.5,6.6,0,0.00599872
0.5,6.7,0,0.00596301
0.5,6.8,0,0.00591628
0.5,6.9,0,0.0058708
0.5,7,0,0.00582534
0.5,7.1,0,0.00576644
0.5,7.2,0,0.00570763
0.5,7.3,0,0.00564904
0.5,7.4,0,0.005583
0.5,7.5,0,0.00551224
0.5,7.6,0,0.00544228
0.5,7.7,0,0.00536941
0.5,7.8,0,0.00528855
0.5,7.9,0,0.00520861
0.5,8,0,0.00512839
0.5,8.1,0,0.00504011
0.5,8.2,0,0.00495156
0.5,8.3,0,0.00486292
0.5,8.4,0,0.00477022
0.5,8.5,0,0.00467434
0.5,8.6,0,0.00457904
0.5,8.7,0,0.00448227
0.5,8.8,0,0.00438078
0.5,8.9,0,0.0042799
0.5,9,0,0.00417875
0.5,9.1,0,0.00407368
0.5,9.2,0,0.0039683
0.5,9.3,0,0.00386286
0.5,9.4,0,0.00375563
0.5,9.5,0,0.00364671
0.5,9.6,0,0.00353817
0.5,9.7,0,0.00342903
0.5,9.8,0,0.00331771
0.5,9.9,0,0.00320673
0.5,10,0,0.00309557
0.5,10.1,0,0.00298299
0.5,10.2,0,0.00287022
0.5,10.3,0,0.00275743
0.5,10.4,0,0.00264407
0.5,10.5,0,0.00253005
0.5,10.6,0,0.00241624
0.5,10.7,0,0.00230223
0.5,10.8,0,0.00218754
0.5,10.9,0,0.002073
0.5,11,0,0.00195837
0.5,11.1,0,0.00184342
0.5,11.2,0,0.00172843
0.5,11.3,0,0.00161344
0.5,11.4,0,0.00149834
0.5,11.5,0,0.00138312
0.5,11.6,0,0.00126796
0.5,11.7,0,0.00115275
0.5,11.8,0,0.00103748
0.5,11.9,0,0.000922223
0.5,12,0,0.000806953
0.5,12.1,0,0.000691672
0.5,12.2,0,0.000576393
0.5,12.3,0,0.000461115
0.5,12.4,0,0.000345834
0.5,12.5,0,0.000230556
0.5,12.6,0,0.000115279
0.5,12.7,0,0
0.6,0,0,0
0.6,0.1,0,0.000153163
0.6,0.2,0,0.000306646
0.6,0.3,0,0.000459416
0.6,0.4,0,0.00061243
0.6,0.5,0,0.000765424
0.6,0.6,0,0.000917191
0.6,0.7,0,0.00106963
0.6,0.8,0,0.00122089
0.6,0.9,0,0.00137201
0.6,1,0,0.00152342
0.6,1.1,0,0.00167228
0.6,1.2,0,0.00182221
0.6,1.3,0,0.00197038
0.6,1.4,0,0.00211798
0.6,1.5,0,0.0022662
0.6,1.6,0,0.0024103
0.6,1.7,0,0.00255596
0.6,1.8,0,0.00269911
0.6,1.9,0,0.00284118
0.6,2,0,0.00298427
0.6,2.1,0,0.00312132
0.6,2.2,0,0.00326052
0.6,2.3,0,0.0033963
0.6,2.4,0,0.00353038
0.6,2.5,0,0.00366597
0.6,2.6,0,0.0037932
0.6,2.7,0,0.00392327
0.6,2.8,0,0.0040489
0.6,2.9,0,0.00417203
0.6,3,0,0.0042973
0.6,3.1,0,0.00441153
0.6,3.2,0,0.00452937
0.6,3.3,0,0.00464168
0.6,3.4,0,0.00475054
0.6,3.5,0,0.0048623
0.6,3.6,0,0.00496009
0.6,3.7,0,0.0050623
0.6,3.8,0,0.00515796
0.6,3.9,0,0.00524909
0.6,4,0,0.00534399
0.6,4.1,0,0.005422
0.6,4.2,0,0.00550519
0.6,4.3,0,0.00558101
0.6,4.4,0,0.00565115
0.6,4.5,0,0.00572599
0.6,4.6,0,0.00578137
0.6,4.7,0,0.00584251
0.6,4.8,0,0.00589579
0.6,4.9,0,0.00593758
0.6,5,0,0.00597931
0.6,5.1,0,0.00603377
0.6,5.2,0,0.00606798
0.6,5.3,0,0.00609716
0.6,5.4,0,0.00612132
0.6,5.5,0,0.00614042
0.6,5.6,0,0.00615447
0.6,5.7,0,0.00616348
0.6,5.8,0,0.00616747
0.6,5.9,0,0.00616645
0.6,6,0,0.00615559
0.6,6.1,0,0.00614114
0.6,6.2,0,0.00612576
0.6,6.3,0,0.00611037
0.6,6.4,0,0.00608386
0.6,6.5,0,0.00605133
0.6,6.6,0,0.0060192
0.6,6.7,0,0.0059835
0.6,6.8,0,0.00593665
0.6,6.9,0,0.00588958
0.6,7,0,0.00584397
0.6,7.1,0,0.00578507
0.6,7.2,0,0.00572489
0.6,7.3,0,0.00566559
0.6,7.4,0,0.00559955
0.6,7.5,0,0.00552807
0.6,7.6,0,0.00545664
0.6,7.7,0,0.00538378
0.6,7.8,0,0.00530268
0.6,7.9,0,0.00522099
0.6,8,0,0.00514056
0.6,8.1,0,0.00505228
0.6,8.2,0,0.00496231
0.6,8.3,0,0.00487299
0.6,8.4,0,0.00478029
0.6,8.5,0,0.00468379
0.6,8.6,0,0.00458716
0.6,8.7,0,0.00449039
0.6,8.8,0,0.00438872
0.6,8.9,0,0.00428648
0.6,9,0,0.00418512
0.6,9.1,0,0.00408005
0.6,9.2,0,0.0039737
0.6,9.3,0,0.00386771
0.6,9.4,0,0.00376048
0.6,9.5,0,0.0036512
0.6,9.6,0,0.00354174
0.6,9.7,0,0.0034326
0.6,9.8,0,0.00332119
0.6,9.9,0,0.00320941
0.6,10,0,0.0030981
0.6,10.1,0,0.00298551
0.6,10.2,0,0.00287225
0.6,10.3,0,0.00275913
0.6,10.4,0,0.00264577
0.6,10.5,0,0.00253161
0.6,10.6,0,0.00241732
0.6,10.7,0,0.0023033
0.6,10.8,0,0.00218859
0.6,10.9,0,0.0020737
0.6,11,0,0.00195899
0.6,11.1,0,0.00184405
0.6,11.2,0,0.00172889
0.6,11.3,0,0.00161376
0.6,11.4,0,0.00149867
0.6,11.5,0,0.00138341
0.6,11.6,0,0.0012681
0.6,11.7,0,0.00115289
0.6,11.8,0,0.00103761
0.6,11.9,0,0.000922286
0.6,12,0,0.000806997
0.6,12.1,0,0.000691716
0.6,12.2,0,0.000576419
0.6,12.3,0,0.000461122
0.6,12.4,0,0.000345842
0.6,12.5,0,0.000230562
0.6,12.6,0,0.000115279
0.6,12.7,0,0
0.7,0,0,0
0.7,0.1,0,0.00015358
0.7,0.2,0,0.00030716
0.7,0.3,0,0.00046054
0.7,0.4,0,0.000613719
0.7,0.5,0,0.000766897
0.7,0.6,0,0.000919354
0.7,0.7,0,0.00107181
0.7,0.8,0,0.00122373
0.7,0.9,0,0.0013751
0.7,1,0,0.00152647
0.7,1.1,0,0.00167637
0.7,1.2,0,0.00182626
0.7,1.3,0,0.0019752
0.7,1.4,0,0.00212317
0.7,1.5,0,0.00227114
0.7,1.6,0,0.00241669
0.7,1.7,0,0.00256224
0.7,1.8,0,0.00270631
0.7,1.9,0,0.00284889
0.7,2,0,0.00299147
0.7,2.1,0,0.00313048
0.7,2.2,0,0.00326948
0.7,2.3,0,0.00340635
0.7,2.4,0,0.0035411
0.7,2.5,0,0.00367584
0.7,2.6,0,0.0038056
0.7,2.7,0,0.00393536
0.7,2.8,0,0.00406222
0.7,2.9,0,0.0041862
0.7,3,0,0.00431018
0.7,3.1,0,0.00442755
0.7,3.2,0,0.00454492
0.7,3.3,0,0.00465855
0.7,3.4,0,0.00476844
0.7,3.5,0,0.00487834
0.7,3.6,0,0.00497988
0.7,3.7,0,0.00508143
0.7,3.8,0,0.00517837
0.7,3.9,0,0.0052707
0.7,4,0,0.00536304
0.7,4.1,0,0.00544534
0.7,4.2,0,0.00552764
0.7,4.3,0,0.00560453
0.7,4.4,0,0.00567603
0.7,4.5,0,0.00574753
0.7,4.6,0,0.00580756
0.7,4.7,0,0.00586759
0.7,4.8,0,0.00591857
0.7,4.9,0,0.0059605
0.7,5,0,0.00600242
0.7,5.1,0,0.00605717
0.7,5.2,0,0.00609153
0.7,5.3,0,0.00612082
0.7,5.4,0,0.00614504
0.7,5.5,0,0.00616416
0.7,5.6,0,0.00617817
0.7,5.7,0,0.00618709
0.7,5.8,0,0.00619095
0.7,5.9,0,0.00618975
0.7,6,0,0.00617853
0.7,6.1,0,0.00616314
0.7,6.2,0,0.00614776
0.7,6.3,0,0.00613237
0.7,6.4,0,0.00610584
0.7,6.5,0,0.00607331
0.7,6.6,0,0.00604077
0.7,6.7,0,0.00600388
0.7,6.8,0,0.00595682
0.7,6.9,0,0.00590975
0.7,7,0,0.00586269
0.7,7.1,0,0.00580316
0.7,7.2,0,0.00574297
0.7,7.3,0,0.00568279
0.7,7.4,0,0.00561567
0.7,7.5,0,0.00554392
0.7,7.6,0,0.00547217
0.7,7.7,0,0.00539794
0.7,7.8,0,0.00531626
0.7,7.9,0,0.00523457
0.7,8,0,0.00515289
0.7,8.1,0,0.0050637
0.7,8.2,0,0.00497369
0.7,8.3,0,0.00488367
0.7,8.4,0,0.00478991
0.7,8.5,0,0.00469309
0.7,8.6,0,0.00459626
0.7,8.7,0,0.00449836
0.7,8.8,0,0.00439612
0.7,8.9,0,0.00429388
0.7,9,0,0.00419165
0.7,9.1,0,0.00408586
0.7,9.2,0,0.00397944
0.7,9.3,0,0.00387303
0.7,9.4,0,0.00376505
0.7,9.5,0,0.00365551
0.7,9.6,0,0.00354597
0.7,9.7,0,0.0034361
0.7,9.8,0,0.00332431
0.7,9.9,0,0.00321253
0.7,10,0,0.00310075
0.7,10.1,0,0.00298774
0.7,10.2,0,0.00287442
0.7,10.3,0,0.0027611
0.7,10.4,0,0.00264734
0.7,10.5,0,0.00253303
0.7,10.6,0,0.00241872
0.7,10.7,0,0.00230436
0.7,10.8,0,0.00218947
0.7,10.9,0,0.00207458
0.7,11,0,0.00195969
0.7,11.1,0,0.00184457
0.7,11.2,0,0.00172938
0.7,11.3,0,0.00161419
0.7,11.4,0,0.00149895
0.7,11.5,0,0.00138365
0.7,11.6,0,0.00126834
0.7,11.7,0,0.00115303
0.7,11.8,0,0.00103771
0.7,11.9,0,0.000922382
0.7,12,0,0.000807057
0.7,12.1,0,0.000691748
0.7,12.2,0,0.000576446
0.7,12.3,0,0.000461143
0.7,12.4,0,0.000345848
0.7,12.5,0,0.000230565
0.7,12.6,0,0.000115283
0.7,12.7,0,0
0.8,0,0,0
0.8,0.1,0,0.000154178
0.8,0.2,0,0.000307949
0.8,0.3,0,0.000462087
0.8,0.4,0,0.0006154
0.8,0.5,0,0.000769358
0.8,0.6,0,0.000922156
0.8,0.7,0,0.0010749
0.8,0.8,0,0.00122765
0.8,0.9,0,0.0013791
0.8,1,0,0.00153161
0.8,1.1,0,0.00168167
0.8,1.2,0,0.00183197
0.8,1.3,0,0.0019819
0.8,1.4,0,0.0021299
0.8,1.5,0,0.00227947
0.8,1.6,0,0.002425
0.8,1.7,0,0.00257111
0.8,1.8,0,0.00271639
0.8,1.9,0,0.00285893
0.8,2,0,0.00300369
0.8,2.1,0,0.00314242
0.8,2.2,0,0.00328217
0.8,2.3,0,0.00342049
0.8,2.4,0,0.00355511
0.8,2.5,0,0.00369269
0.8,2.6,0,0.00382183
0.8,2.7,0,0.00395255
0.8,2.8,0,0.00408106
0.8,2.9,0,0.00420479
0.8,3,0,0.0043323
0.8,3.1,0,0.00444859
0.8,3.2,0,0.00456712
0.8,3.3,0,0.0046825
0.8,3.4,0,0.004792
0.8,3.5,0,0.00490602
0.8,3.6,0,0.00500594
0.8,3.7,0,0.0051088
0.8,3.8,0,0.00520744
0.8,3.9,0,0.0052992
0.8,4,0,0.00539609
0.8,4.1,0,0.00547612
0.8,4.2,0,0.00555982
0.8,4.3,0,0.00563817
0.8,4.4,0,0.00570889
0.8,4.5,0,0.00578508
0.8,4.6,0,0.00584217
0.8,4.7,0,0.0059036
0.8,4.8,0,0.00595861
0.8,4.9,0,0.00600086
0.8,5,0,0.00604282
0.8,5.1,0,0.00609809
0.8,5.2,0,0.00613273
0.8,5.3,0,0.00616223
0.8,5.4,0,0.00618655
0.8,5.5,0,0.00620569
0.8,5.6,0,0.00621963
0.8,5.7,0,0.0062284
0.8,5.8,0,0.00623201
0.8,5.9,0,0.00623048
0.8,6,0,0.00621857
0.8,6.1,0,0.00620343
0.8,6.2,0,0.00618804
0.8,6.3,0,0.00617142
0.8,6.4,0,0.00614294
0.8,6.5,0,0.00610982
0.8,6.6,0,0.00607704
0.8,6.7,0,0.00603879
0.8,6.8,0,0.00599026
0.8,6.9,0,0.0059432
0.8,7,0,0.005895
0.8,7.1,0,0.0058331
0.8,7.2,0,0.0057729
0.8,7.3,0,0.00571191
0.8,7.4,0,0.00564271
0.8,7.5,0,0.00557006
0.8,7.6,0,0.005498
0.8,7.7,0,0.005422
0.8,7.8,0,0.00533856
0.8,7.9,0,0.00525688
0.8,8,0,0.00517386
0.8,8.1,0,0.00508242
0.8,8.2,0,0.00499227
0.8,8.3,0,0.00490149
0.8,8.4,0,0.00480588
0.8,8.5,0,0.00470819
0.8,8.6,0,0.00461115
0.8,8.7,0,0.00451172
0.8,8.8,0,0.00440808
0.8,8.9,0,0.00430584
0.8,9,0,0.00420256
0.8,9.1,0,0.00409522
0.8,9.2,0,0.00398863
0.8,9.3,0,0.0038817
0.8,9.4,0,0.00377249
0.8,9.5,0,0.00366234
0.8,9.6,0,0.0035527
0.8,9.7,0,0.00344185
0.8,9.8,0,0.00332921
0.8,9.9,0,0.00321742
0.8,10,0,0.00310505
0.8,10.1,0,0.00299121
0.8,10.2,0,0.00287776
0.8,10.3,0,0.00276419
0.8,10.4,0,0.0026498
0.8,10.5,0,0.00253518
0.8,10.6,0,0.00242084
0.8,10.7,0,0.00230601
0.8,10.8,0,0.00219074
0.8,10.9,0,0.00207585
0.8,11,0,0.00196072
0.8,11.1,0,0.0018453
0.8,11.2,0,0.00173005
0.8,11.3,0,0.00161478
0.8,11.4,0,0.00149934
0.8,11.5,0,0.00138393
0.8,11.6,0,0.00126863
0.8,11.7,0,0.00115319
0.8,11.8,0,0.00103779
0.8,11.9,0,0.000922462
0.8,12,0,0.000807101
0.8,12.1,0,0.000691755
0.8,12.2,0,0.000576446
0.8,12.3,0,0.000461139
0.8,12.4,0,0.000345838
0.8,12.5,0,0.000230558
0.8,12.6,0,0.000115276
0.8,12.7,0,0
0.9,0,0,0
0.9,0.1,0,0.000154417
0.9,0.2,0,0.000309181
0.9,0.3,0,0.00046332
0.9,0.4,0,0.000617549
0.9,0.5,0,0.000771819
0.9,0.6,0,0.000924753
0.9,0.7,0,0.00107864
0.9,0.8,0,0.00123139
0.9,0.9,0,0.00138378
0.9,1,0,0.00153674
0.9,1.1,0,0.00168687
0.9,1.2,0,0.00183862
0.9,1.3,0,0.00198856
0.9,1.4,0,0.00213759
0.9,1.5,0,0.0022878
0.9,1.6,0,0.00243332
0.9,1.7,0,0.00258129
0.9,1.8,0,0.00272657
0.9,1.9,0,0.00287028
0.9,2,0,0.00301591
0.9,2.1,0,0.00315453
0.9,2.2,0,0.00329661
0.9,2.3,0,0.00343493
0.9,2.4,0,0.00357082
0.9,2.5,0,0.00370954
0.9,2.6,0,0.00383844
0.9,2.7,0,0.00397196
0.9,2.8,0,0.00410048
0.9,2.9,0,0.0042255
0.9,3,0,0.00435441
0.9,3.1,0,0.00447028
0.9,3.2,0,0.00459201
0.9,3.3,0,0.00470739
0.9,3.4,0,0.00481803
0.9,3.5,0,0.00493371
0.9,3.6,0,0.00503297
0.9,3.7,0,0.00513923
0.9,3.8,0,0.00523788
0.9,3.9,0,0.00533043
0.9,4,0,0.00542913
0.9,4.1,0,0.00550827
0.9,4.2,0,0.00559527
0.9,4.3,0,0.00567362
0.9,4.4,0,0.00574456
0.9,4.5,0,0.00582264
0.9,4.6,0,0.00587854
0.9,4.7,0,0.00594288
0.9,4.8,0,0.00599789
0.9,4.9,0,0.00604125
0.9,5,0,0.00608322
0.9,5.1,0,0.006139
0.9,5.2,0,0.00617394
0.9,5.3,0,0.00620363
0.9,5.4,0,0.00622806
0.9,5.5,0,0.00624722
0.9,5.6,0,0.0062611
0.9,5.7,0,0.0062697
0.9,5.8,0,0.00627307
0.9,5.9,0,0.0062712
0.9,6,0,0.00625862
0.9,6.1,0,0.00624348
0.9,6.2,0,0.00622718
0.9,6.3,0,0.00620975
0.9,6.4,0,0.00618126
0.9,6.5,0,0.00614662
0.9,6.6,0,0.00611262
0.9,6.7,0,0.00607438
0.9,6.8,0,0.00602508
0.9,6.9,0,0.00597557
0.9,7,0,0.00592726
0.9,7.1,0,0.00586535
0.9,7.2,0,0.00580208
0.9,7.3,0,0.00574046
0.9,7.4,0,0.00567125
0.9,7.5,0,0.00559674
0.9,7.6,0,0.00552267
0.9,7.7,0,0.00544667
0.9,7.8,0,0.00536251
0.9,7.9,0,0.00527792
0.9,8,0,0.00519467
0.9,8.1,0,0.00510324
0.9,8.2,0,0.00501019
0.9,8.3,0,0.00491862
0.9,8.4,0,0.00482301
0.9,8.5,0,0.00472391
0.9,8.6,0,0.00462489
0.9,8.7,0,0.00452546
0.9,8.8,0,0.00442136
0.9,8.9,0,0.00431681
0.9,9,0,0.00421328
0.9,9.1,0,0.00410594
0.9,9.2,0,0.00399746
0.9,9.3,0,0.0038898
0.9,9.4,0,0.00378059
0.9,9.5,0,0.00366967
0.9,9.6,0,0.00355862
0.9,9.7,0,0.00344777
0.9,9.8,0,0.00333492
0.9,9.9,0,0.00322175
0.9,10,0,0.00310918
0.9,10.1,0,0.00299535
0.9,10.2,0,0.00288097
0.9,10.3,0,0.00276694
0.9,10.4,0,0.00265255
0.9,10.5,0,0.00253761
0.9,10.6,0,0.00242254
0.9,10.7,0,0.00230771
0.9,10.8,0,0.00219237
0.9,10.9,0,0.0020769
0.9,11,0,0.00196167
0.9,11.1,0,0.00184625
0.9,11.2,0,0.0017307
0.9,11.3,0,0.00161524
0.9,11.4,0,0.0014998
0.9,11.5,0,0.00138431
0.9,11.6,0,0.00126879
0.9,11.7,0,0.00115336
0.9,11.8,0,0.00103794
0.9,11.9,0,0.000922508
0.9,12,0,0.000807128
0.9,12.1,0,0.000691782
0.9,12.2,0,0.000576448
0.9,12.3,0,0.000461128
0.9,12.4,0,0.000345826
0.9,12.5,0,0.000230548
0.9,12.6,0,0.000115275
0.9,12.7,0,0
1,0,0,0
1,0.1,0,0.000154988
1,0.2,0,0.000310294
1,0.3,0,0.000464708
1,0.4,0,0.000619606
1,0.5,0,0.000774279
1,0.6,0,0.000928063
1,0.7,0,0.00108232
1,0.8,0,0.00123537
1,0.9,0,0.00138868
1,1,0,0.00154188
1,1.1,0,0.00169322
1,1.2,0,0.00184524
1,1.3,0,0.00199553
1,1.4,0,0.00214585
1,1.5,0,0.00229613
1,1.6,0,0.00244333
1,1.7,0,0.00259147
1,1.8,0,0.00273719
1,1.9,0,0.00288262
1,2,0,0.00302812
1,2.1,0,0.00316899
1,2.2,0,0.00331111
1,2.3,0,0.00344994
1,2.4,0,0.00358806
1,2.5,0,0.00372639
1,2.6,0,0.00385815
1,2.7,0,0.00399151
1,2.8,0,0.0041206
1,2.9,0,0.00424836
1,3,0,0.00437652
1,3.1,0,0.00449586
1,3.2,0,0.00461711
1,3.3,0,0.00473311
1,3.4,0,0.00484692
1,3.5,0,0.00496139
1,3.6,0,0.0050646
1,3.7,0,0.00516999
1,3.8,0,0.00526922
1,3.9,0,0.00536522
1,4,0,0.00546218
1,4.1,0,0.00554551
1,4.2,0,0.00563117
1,4.3,0,0.00571
1,4.4,0,0.00578445
1,4.5,0,0.00586019
1,4.6,0,0.0059203
1,4.7,0,0.00598274
1,4.8,0,0.00603717
1,4.9,0,0.00608067
1,5,0,0.00612362
1,5.1,0,0.00617992
1,5.2,0,0.00621514
1,5.3,0,0.00624503
1,5.4,0,0.00626957
1,5.5,0,0.00628875
1,5.6,0,0.00630256
1,5.7,0,0.00631101
1,5.8,0,0.00631413
1,5.9,0,0.00631192
1,6,0,0.00629866
1,6.1,0,0.00628246
1,6.2,0,0.00626528
1,6.3,0,0.00624807
1,6.4,0,0.00621943
1,6.5,0,0.00618402
1,6.6,0,0.00614862
1,6.7,0,0.00610996
1,6.8,0,0.00605964
1,6.9,0,0.0060091
1,7,0,0.00595951
1,7.1,0,0.00589693
1,7.2,0,0.00583287
1,7.3,0,0.00576901
1,7.4,0,0.00569961
1,7.5,0,0.00562382
1,7.6,0,0.00554802
1,7.7,0,0.00547134
1,7.8,0,0.00538598
1,7.9,0,0.00530027
1,8,0,0.00521548
1,8.1,0,0.00512341
1,8.2,0,0.00502955
1,8.3,0,0.00493575
1,8.4,0,0.00484004
1,8.5,0,0.00473967
1,8.6,0,0.00463931
1,8.7,0,0.0045392
1,8.8,0,0.00443417
1,8.9,0,0.00432878
1,9,0,0.00422399
1,9.1,0,0.00411623
1,9.2,0,0.00400709
1,9.3,0,0.00389794
1,9.4,0,0.00378868
1,9.5,0,0.00367685
1,9.6,0,0.00356503
1,9.7,0,0.00345368
1,9.8,0,0.0033403
1,9.9,0,0.00322666
1,10,0,0.00311332
1,10.1,0,0.00299929
1,10.2,0,0.00288452
1,10.3,0,0.00276974
1,10.4,0,0.0026553
1,10.5,0,0.00253991
1,10.6,0,0.00242451
1,10.7,0,0.00230941
1,10.8,0,0.00219387
1,10.9,0,0.0020782
1,11,0,0.00196263
1,11.1,0,0.00184715
1,11.2,0,0.00173144
1,11.3,0,0.00161573
1,11.4,0,0.00150026
1,11.5,0,0.00138465
1,11.6,0,0.00126904
1,11.7,0,0.00115352
1,11.8,0,0.00103808
1,11.9,0,0.000922609
1,12,0,0.000807154
1,12.1,0,0.000691806
1,12.2,0,0.000576464
1,12.3,0,0.000461121
1,12.4,0,0.000345815
1,12.5,0,0.000230543
1,12.6,0,0.000115273
1,12.7,0,0
1.1,0,0,0
1.1,0.1,0,0.000155734
1.1,0.2,0,0.00031104
1.1,0.3,0,0.000466901
1.1,0.4,0,0.000621799
1.1,0.5,0,0.000777167
1.1,0.6,0,0.000931745
1.1,0.7,0,0.001086
1.1,0.8,0,0.00124064
1.1,0.9,0,0.00139396
1.1,1,0,0.00154793
1.1,1.1,0,0.00170024
1.1,1.2,0,0.00185226
1.1,1.3,0,0.00200447
1.1,1.4,0,0.00215479
1.1,1.5,0,0.00230599
1.1,1.6,0,0.0024544
1.1,1.7,0,0.00260254
1.1,1.8,0,0.00275061
1.1,1.9,0,0.00289604
1.1,2,0,0.00304268
1.1,2.1,0,0.00318501
1.1,2.2,0,0.00332713
1.1,2.3,0,0.00346878
1.1,2.4,0,0.0036069
1.1,2.5,0,0.00374659
1.1,2.6,0,0.00388003
1.1,2.7,0,0.00401338
1.1,2.8,0,0.0041457
1.1,2.9,0,0.00427345
1.1,3,0,0.00440318
1.1,3.1,0,0.0045243
1.1,3.2,0,0.00464556
1.1,3.3,0,0.00476497
1.1,3.4,0,0.00487877
1.1,3.5,0,0.00499496
1.1,3.6,0,0.00509984
1.1,3.7,0,0.00520523
1.1,3.8,0,0.00530773
1.1,3.9,0,0.00540373
1.1,4,0,0.00550246
1.1,4.1,0,0.00558708
1.1,4.2,0,0.00567274
1.1,4.3,0,0.00575431
1.1,4.4,0,0.00582875
1.1,4.5,0,0.00590614
1.1,4.6,0,0.00596693
1.1,4.7,0,0.00602938
1.1,4.8,0,0.0060856
1.1,4.9,0,0.0061291
1.1,5,0,0.00617317