x,y,z,p
0,0,0,4.30841e-06
0,0.1,0,7.32416e-06
0,0.2,0,1.03399e-05
0,0.3,0,1.33557e-05
0,0.4,0,1.69738e-05
0,0.5,0,2.11943e-05
0,0.6,0,2.54148e-05
0,0.7,0,2.96353e-05
0,0.8,0,3.38198e-05
0,0.9,0,3.80044e-05
0,1,0,4.2189e-05
0,1.1,0,4.63445e-05
0,1.2,0,5.0471e-05
0,1.3,0,5.45974e-05
0,1.4,0,5.87239e-05
0,1.5,0,6.27715e-05
0,1.6,0,6.68191e-05
0,1.7,0,7.08667e-05
0,1.8,0,7.48641e-05
0,1.9,0,7.88112e-05
0,2,0,8.27583e-05
0,2.1,0,8.67054e-05
0,2.2,0,9.05286e-05
0,2.3,0,9.43518e-05
0,2.4,0,9.8175e-05
0,2.5,0,0.000101924
0,2.6,0,0.000105598
0,2.7,0,0.000109272
0,2.8,0,0.000112946
0,2.9,0,0.000116443
0,3,0,0.000119941
0,3.1,0,0.000123439
0,3.2,0,0.000126834
0,3.3,0,0.000130125
0,3.4,0,0.000133418
0,3.5,0,0.00013671
0,3.6,0,0.000139764
0,3.7,0,0.000142818
0,3.8,0,0.000145872
0,3.9,0,0.00014879
0,4,0,0.000151572
0,4.1,0,0.000154354
0,4.2,0,0.000157135
0,4.3,0,0.000159608
0,4.4,0,0.000162081
0,4.5,0,0.000164554
0,4.6,0,0.000166854
0,4.7,0,0.000168982
0,4.8,0,0.00017111
0,4.9,0,0.000173238
0,5,0,0.000174985
0,5.1,0,0.000176732
0,5.2,0,0.000178479
0,5.3,0,0.000180018
0,5.4,0,0.000181348
0,5.5,0,0.000182679
0,5.6,0,0.000184009
0,5.7,0,0.000184883
0,5.8,0,0.000185758
0,5.9,0,0.000186632
0,6,0,0.00018727
0,6.1,0,0.00018767
0,6.2,0,0.000188071
0,6.3,0,0.000188472
0,6.4,0,0.000188298
0,6.5,0,0.000188124
0,6.6,0,0.000187949
0,6.7,0,0.000187618
0,6.8,0,0.00018713
0,6.9,0,0.000186642
0,7,0,0.000186153
0,7.1,0,0.000184906
0,7.2,0,0.000183879
0,7.3,0,0.000182743
0,7.4,0,0.000181542
0,7.5,0,0.000180271
0,7.6,0,0.000178923
0,7.7,0,0.000177503
0,7.8,0,0.000176012
0,7.9,0,0.000174424
0,8,0,0.000172076
0,8.1,0,0.000170435
0,8.2,0,0.000168794
0,8.3,0,0.000166865
0,8.4,0,0.000164781
0,8.5,0,0.000162617
0,8.6,0,0.000160267
0,8.7,0,0.000157917
0,8.8,0,0.000155319
0,8.9,0,0.000152709
0,9,0,0.000149957
0,9.1,0,0.00014711
0,9.2,0,0.000144207
0,9.3,0,0.000141139
0,9.4,0,0.00013807
0,9.5,0,0.000134814
0,9.6,0,0.000131537
0,9.7,0,0.000128154
0,9.8,0,0.000124684
0,9.9,0,0.000121178
0,10,0,0.000117528
0,10.1,0,0.000113878
0,10.2,0,0.000110085
0,10.3,0,0.000106268
0,10.4,0,0.000102373
0,10.5,0,9.8401e-05
0,10.6,0,9.44078e-05
0,10.7,0,9.02941e-05
0,10.8,0,8.61804e-05
0,10.9,0,8.1964e-05
0,11,0,7.77218e-05
0,11.1,0,7.3428e-05
0,11.2,0,6.90712e-05
0,11.3,0,6.47042e-05
0,11.4,0,6.02469e-05
0,11.5,0,5.57895e-05
0,11.6,0,5.12681e-05
0,11.7,0,4.67253e-05
0,11.8,0,4.21548e-05
0,11.9,0,3.75429e-05
0,12,0,3.29283e-05
0,12.1,0,2.82637e-05
0,12.2,0,2.35991e-05
0,12.3,0,1.89053e-05
0,12.4,0,1.4199e-05
0,12.5,0,9.96785e-06
0,12.6,0,6.61908e-06
0,12.7,0,3.27031e-06
0.1,0,0,3.89809e-06
0.1,0.1,0,6.91854e-06
0.1,0.2,0,9.93429e-06
0.1,0.3,0,1.295e-05
0.1,0.4,0,1.69778e-05
0.1,0.5,0,2.11983e-05
0.1,0.6,0,2.54188e-05
0.1,0.7,0,2.98705e-05
0.1,0.8,0,3.38278e-05
0.1,0.9,0,3.80123e-05
0.1,1,0,4.21969e-05
0.1,1.1,0,4.63559e-05
0.1,1.2,0,5.04824e-05
0.1,1.3,0,5.46089e-05
0.1,1.4,0,5.91416e-05
0.1,1.5,0,6.27864e-05
0.1,1.6,0,6.6834e-05
0.1,1.7,0,7.08816e-05
0.1,1.8,0,7.48827e-05
0.1,1.9,0,7.88298e-05
0.1,2,0,8.2777e-05
0.1,2.1,0,8.72146e-05
0.1,2.2,0,9.05513e-05
0.1,2.3,0,9.43745e-05
0.1,2.4,0,9.81976e-05
0.1,2.5,0,0.000101951
0.1,2.6,0,0.000105625
0.1,2.7,0,0.000109299
0.1,2.8,0,0.000113428
0.1,2.9,0,0.000116475
0.1,3,0,0.000119973
0.1,3.1,0,0.00012347
0.1,3.2,0,0.00012687
0.1,3.3,0,0.000130162
0.1,3.4,0,0.000133454
0.1,3.5,0,0.00013704
0.1,3.6,0,0.000139806
0.1,3.7,0,0.00014286
0.1,3.8,0,0.000145915
0.1,3.9,0,0.000148839
0.1,4,0,0.000151621
0.1,4.1,0,0.000154402
0.1,4.2,0,0.000157212
0.1,4.3,0,0.000159663
0.1,4.4,0,0.000162136
0.1,4.5,0,0.000164609
0.1,4.6,0,0.000166915
0.1,4.7,0,0.000169043
0.1,4.8,0,0.00017117
0.1,4.9,0,0.000173009
0.1,5,0,0.000175051
0.1,5.1,0,0.000176798
0.1,5.2,0,0.000178545
0.1,5.3,0,0.00018009
0.1,5.4,0,0.000181421
0.1,5.5,0,0.000182751
0.1,5.6,0,0.000183501
0.1,5.7,0,0.000184963
0.1,5.8,0,0.000185837
0.1,5.9,0,0.000186712
0.1,6,0,0.000187348
0.1,6.1,0,0.000187749
0.1,6.2,0,0.00018815
0.1,6.3,0,0.000187796
0.1,6.4,0,0.00018841
0.1,6.5,0,0.000188236
0.1,6.6,0,0.000188062
0.1,6.7,0,0.00018761
0.1,6.8,0,0.000187122
0.1,6.9,0,0.000186633
0.1,7,0,0.000185494
0.1,7.1,0,0.000184227
0.1,7.2,0,0.000183211
0.1,7.3,0,0.00018209
0.1,7.4,0,0.000180898
0.1,7.5,0,0.000179631
0.1,7.6,0,0.000178283
0.1,7.7,0,0.000176859
0.1,7.8,0,0.00017536
0.1,7.9,0,0.000173765
0.1,8,0,0.000171421
0.1,8.1,0,0.000170506
0.1,8.2,0,0.000168865
0.1,8.3,0,0.000166894
0.1,8.4,0,0.000164809
0.1,8.5,0,0.000162647
0.1,8.6,0,0.000160297
0.1,8.7,0,0.000157379
0.1,8.8,0,0.000155347
0.1,8.9,0,0.000152737
0.1,9,0,0.000149983
0.1,9.1,0,0.000147135
0.1,9.2,0,0.000144231
0.1,9.3,0,0.000141163
0.1,9.4,0,0.000137702
0.1,9.5,0,0.000134837
0.1,9.6,0,0.00013156
0.1,9.7,0,0.000128175
0.1,9.8,0,0.000124705
0.1,9.9,0,0.000121128
0.1,10,0,0.000117547
0.1,10.1,0,0.000113692
0.1,10.2,0,0.000110103
0.1,10.3,0,0.000106286
0.1,10.4,0,0.00010239
0.1,10.5,0,9.84176e-05
0.1,10.6,0,9.42456e-05
0.1,10.7,0,9.03092e-05
0.1,10.8,0,8.61433e-05
0.1,10.9,0,8.19776e-05
0.1,11,0,7.77355e-05
0.1,11.1,0,7.34401e-05
0.1,11.2,0,6.90832e-05
0.1,11.3,0,6.45029e-05
0.1,11.4,0,6.02573e-05
0.1,11.5,0,5.57999e-05
0.1,11.6,0,5.12768e-05
0.1,11.7,0,4.6734e-05
0.1,11.8,0,4.21616e-05
0.1,11.9,0,3.75497e-05
0.1,12,0,3.27768e-05
0.1,12.1,0,2.82687e-05
0.1,12.2,0,2.36041e-05
0.1,12.3,0,1.89097e-05
0.1,12.4,0,1.42034e-05
0.1,12.5,0,9.65966e-06
0.1,12.6,0,6.31089e-06
0.1,12.7,0,2.95885e-06
0.2,0,0,3.48776e-06
0.2,0.1,0,6.51292e-06
0.2,0.2,0,9.52867e-06
0.2,0.3,0,1.28074e-05
0.2,0.4,0,1.704e-05
0.2,0.5,0,2.12023e-05
0.2,0.6,0,2.54228e-05
0.2,0.7,0,3.01057e-05
0.2,0.8,0,3.38357e-05
0.2,0.9,0,3.80203e-05
0.2,1,0,4.23687e-05
0.2,1.1,0,4.65295e-05
0.2,1.2,0,5.04938e-05
0.2,1.3,0,5.46203e-05
0.2,1.4,0,5.95594e-05
0.2,1.5,0,6.28012e-05
0.2,1.6,0,6.68488e-05
0.2,1.7,0,7.11275e-05
0.2,1.8,0,7.51305e-05
0.2,1.9,0,7.88485e-05
0.2,2,0,8.27956e-05
0.2,2.1,0,8.77238e-05
0.2,2.2,0,9.0574e-05
0.2,2.3,0,9.43972e-05
0.2,2.4,0,9.84648e-05
0.2,2.5,0,0.00010222
0.2,2.6,0,0.000105652
0.2,2.7,0,0.000109326
0.2,2.8,0,0.00011391
0.2,2.9,0,0.000116507
0.2,3,0,0.000120004
0.2,3.1,0,0.000123697
0.2,3.2,0,0.0001271
0.2,3.3,0,0.000130199
0.2,3.4,0,0.000133491
0.2,3.5,0,0.000137371
0.2,3.6,0,0.000139849
0.2,3.7,0,0.000142903
0.2,3.8,0,0.000146043
0.2,3.9,0,0.00014897
0.2,4,0,0.000151669
0.2,4.1,0,0.000154451
0.2,4.2,0,0.000157288
0.2,4.3,0,0.000159717
0.2,4.4,0,0.00016219
0.2,4.5,0,0.000164599
0.2,4.6,0,0.000166908
0.2,4.7,0,0.000169103
0.2,4.8,0,0.000171231
0.2,4.9,0,0.00017278
0.2,5,0,0.000175117
0.2,5.1,0,0.000176864
0.2,5.2,0,0.00017839
0.2,5.3,0,0.000179938
0.2,5.4,0,0.000181493
0.2,5.5,0,0.000182824
0.2,5.6,0,0.000182992
0.2,5.7,0,0.000185042
0.2,5.8,0,0.000185917
0.2,5.9,0,0.000186446
0.2,6,0,0.000187083
0.2,6.1,0,0.000187828
0.2,6.2,0,0.000188228
0.2,6.3,0,0.00018712
0.2,6.4,0,0.000188523
0.2,6.5,0,0.000188349
0.2,6.6,0,0.000187785
0.2,6.7,0,0.000187272
0.2,6.8,0,0.000187114
0.2,6.9,0,0.000186625
0.2,7,0,0.000184836
0.2,7.1,0,0.000183548
0.2,7.2,0,0.000182543
0.2,7.3,0,0.000181437
0.2,7.4,0,0.000180254
0.2,7.5,0,0.000178991
0.2,7.6,0,0.000177644
0.2,7.7,0,0.000176216
0.2,7.8,0,0.000174708
0.2,7.9,0,0.000173105
0.2,8,0,0.000170765
0.2,8.1,0,0.000170576
0.2,8.2,0,0.000168617
0.2,8.3,0,0.000166923
0.2,8.4,0,0.000164838
0.2,8.5,0,0.000162206
0.2,8.6,0,0.000160328
0.2,8.7,0,0.000156679
0.2,8.8,0,0.000155375
0.2,8.9,0,0.000152609
0.2,9,0,0.000150008
0.2,9.1,0,0.000147161
0.2,9.2,0,0.000143618
0.2,9.3,0,0.000141187
0.2,9.4,0,0.000137019
0.2,9.5,0,0.000134859
0.2,9.6,0,0.000131582
0.2,9.7,0,0.000128196
0.2,9.8,0,0.000124726
0.2,9.9,0,0.000120492
0.2,10,0,0.000117567
0.2,10.1,0,0.000113089
0.2,10.2,0,0.000110121
0.2,10.3,0,0.000106304
0.2,10.4,0,0.000102406
0.2,10.5,0,9.84341e-05
0.2,10.6,0,9.37233e-05
0.2,10.7,0,9.03244e-05
0.2,10.8,0,8.56674e-05
0.2,10.9,0,8.19912e-05
0.2,11,0,7.77491e-05
0.2,11.1,0,7.34522e-05
0.2,11.2,0,6.90953e-05
0.2,11.3,0,6.41305e-05
0.2,11.4,0,6.02677e-05
0.2,11.5,0,5.55221e-05
0.2,11.6,0,5.12854e-05
0.2,11.7,0,4.67427e-05
0.2,11.8,0,4.21122e-05
0.2,11.9,0,3.75564e-05
0.2,12,0,3.25802e-05
0.2,12.1,0,2.82737e-05
0.2,12.2,0,2.35173e-05
0.2,12.3,0,1.8914e-05
0.2,12.4,0,1.42077e-05
0.2,12.5,0,9.45576e-06
0.2,12.6,0,6.0027e-06
0.2,12.7,0,2.64739e-06
0.3,0,0,3.07744e-06
0.3,0.1,0,6.1073e-06
0.3,0.2,0,9.12305e-06
0.3,0.3,0,1.29278e-05
0.3,0.4,0,1.71604e-05
0.3,0.5,0,2.12064e-05
0.3,0.6,0,2.54269e-05
0.3,0.7,0,3.0341e-05
0.3,0.8,0,3.38436e-05
0.3,0.9,0,3.80282e-05
0.3,1,0,4.27043e-05
0.3,1.1,0,4.68651e-05
0.3,1.2,0,5.05053e-05
0.3,1.3,0,5.46317e-05
0.3,1.4,0,5.99771e-05
0.3,1.5,0,6.28161e-05
0.3,1.6,0,6.68637e-05
0.3,1.7,0,7.16044e-05
0.3,1.8,0,7.56075e-05
0.3,1.9,0,7.88671e-05
0.3,2,0,8.28142e-05
0.3,2.1,0,8.8233e-05
0.3,2.2,0,9.05967e-05
0.3,2.3,0,9.44199e-05
0.3,2.4,0,9.89763e-05
0.3,2.5,0,0.000102731
0.3,2.6,0,0.000105679
0.3,2.7,0,0.000109353
0.3,2.8,0,0.000114393
0.3,2.9,0,0.000116538
0.3,3,0,0.000120036
0.3,3.1,0,0.000124119
0.3,3.2,0,0.000127521
0.3,3.3,0,0.000130236
0.3,3.4,0,0.000133528
0.3,3.5,0,0.000137702
0.3,3.6,0,0.000139891
0.3,3.7,0,0.000142945
0.3,3.8,0,0.000146257
0.3,3.9,0,0.000149184
0.3,4,0,0.000151717
0.3,4.1,0,0.000154499
0.3,4.2,0,0.000157364
0.3,4.3,0,0.000159772
0.3,4.4,0,0.000162245
0.3,4.5,0,0.000164524
0.3,4.6,0,0.000166834
0.3,4.7,0,0.000169164
0.3,4.8,0,0.000171292
0.3,4.9,0,0.000172551
0.3,5,0,0.000175184
0.3,5.1,0,0.000176931
0.3,5.2,0,0.000178013
0.3,5.3,0,0.000179561
0.3,5.4,0,0.000181566
0.3,5.5,0,0.000182896
0.3,5.6,0,0.000182484
0.3,5.7,0,0.000185122
0.3,5.8,0,0.000185996
0.3,5.9,0,0.000185836
0.3,6,0,0.000186473
0.3,6.1,0,0.000187906
0.3,6.2,0,0.000188307
0.3,6.3,0,0.000186445
0.3,6.4,0,0.000188636
0.3,6.5,0,0.000188462
0.3,6.6,0,0.000187117
0.3,6.7,0,0.000186605
0.3,6.8,0,0.000187105
0.3,6.9,0,0.000186617
0.3,7,0,0.000184177
0.3,7.1,0,0.000182868
0.3,7.2,0,0.000181876
0.3,7.3,0,0.000180784
0.3,7.4,0,0.00017961
0.3,7.5,0,0.000178351
0.3,7.6,0,0.000177004
0.3,7.7,0,0.000175572
0.3,7.8,0,0.000174057
0.3,7.9,0,0.000172446
0.3,8,0,0.00017011
0.3,8.1,0,0.000170647
0.3,8.2,0,0.000167957
0.3,8.3,0,0.000166886
0.3,8.4,0,0.000164867
0.3,8.5,0,0.000161521
0.3,8.6,0,0.000160358
0.3,8.7,0,0.000155978
0.3,8.8,0,0.000155402
0.3,8.9,0,0.000151905
0.3,9,0,0.000149801
0.3,9.1,0,0.000147186
0.3,9.2,0,0.000142921
0.3,9.3,0,0.000141211
0.3,9.4,0,0.000136335
0.3,9.5,0,0.000134881
0.3,9.6,0,0.000130927
0.3,9.7,0,0.000127846
0.3,9.8,0,0.000124747
0.3,9.9,0,0.000119857
0.3,10,0,0.000117586
0.3,10.1,0,0.000112487
0.3,10.2,0,0.000110139
0.3,10.3,0,0.000105875
0.3,10.4,0,0.000101977
0.3,10.5,0,9.84507e-05
0.3,10.6,0,9.3201e-05
0.3,10.7,0,9.03395e-05
0.3,10.8,0,8.51915e-05
0.3,10.9,0,8.20049e-05
0.3,11,0,7.75243e-05
0.3,11.1,0,7.3031e-05
0.3,11.2,0,6.91073e-05
0.3,11.3,0,6.37581e-05
0.3,11.4,0,6.02781e-05
0.3,11.5,0,5.5206e-05
0.3,11.6,0,5.12941e-05
0.3,11.7,0,4.66665e-05
0.3,11.8,0,4.18549e-05
0.3,11.9,0,3.75632e-05
0.3,12,0,3.23837e-05
0.3,12.1,0,2.82787e-05
0.3,12.2,0,2.33831e-05
0.3,12.3,0,1.89184e-05
0.3,12.4,0,1.42051e-05
0.3,12.5,0,9.38668e-06
0.3,12.6,0,5.69452e-06
0.3,12.7,0,2.33593e-06
0.4,0,0,2.66711e-06
0.4,0.1,0,5.69698e-06
0.4,0.2,0,8.71743e-06
0.4,0.3,0,1.30482e-05
0.4,0.4,0,1.72809e-05
0.4,0.5,0,2.12104e-05
0.4,0.6,0,2.56621e-05
0.4,0.7,0,3.05762e-05
0.4,0.8,0,3.40789e-05
0.4,0.9,0,3.80361e-05
0.4,1,0,4.304e-05
0.4,1.1,0,4.72007e-05
0.4,1.2,0,5.05167e-05
0.4,1.3,0,5.50495e-05
0.4,1.4,0,6.03949e-05
0.4,1.5,0,6.32338e-05
0.4,1.6,0,6.68785e-05
0.4,1.7,0,7.20814e-05
0.4,1.8,0,7.60844e-05
0.4,1.9,0,7.88857e-05
0.4,2,0,8.33234e-05
0.4,2.1,0,8.87421e-05
0.4,2.2,0,9.11059e-05
0.4,2.3,0,9.44425e-05
0.4,2.4,0,9.94878e-05
0.4,2.5,0,0.000103243
0.4,2.6,0,0.000105706
0.4,2.7,0,0.000109835
0.4,2.8,0,0.000114875
0.4,2.9,0,0.000117021
0.4,3,0,0.000120068
0.4,3.1,0,0.00012454
0.4,3.2,0,0.000127943
0.4,3.3,0,0.000130273
0.4,3.4,0,0.000133859
0.4,3.5,0,0.000138033
0.4,3.6,0,0.000140222
0.4,3.7,0,0.000142988
0.4,3.8,0,0.00014647
0.4,3.9,0,0.000149398
0.4,4,0,0.000151766
0.4,4.1,0,0.000154575
0.4,4.2,0,0.00015744
0.4,4.3,0,0.000159848
0.4,4.4,0,0.000162299
0.4,4.5,0,0.00016445
0.4,4.6,0,0.000166759
0.4,4.7,0,0.000169224
0.4,4.8,0,0.000171063
0.4,4.9,0,0.000172322
0.4,5,0,0.000174955
0.4,5.1,0,0.000176997
0.4,5.2,0,0.000177635
0.4,5.3,0,0.000179184
0.4,5.4,0,0.000181639
0.4,5.5,0,0.000182388
0.4,5.6,0,0.000181975
0.4,5.7,0,0.000184613
0.4,5.8,0,0.000186075
0.4,5.9,0,0.000185226
0.4,6,0,0.000185862
0.4,6.1,0,0.000187985
0.4,6.2,0,0.000187631
0.4,6.3,0,0.000185769
0.4,6.4,0,0.000187961
0.4,6.5,0,0.000188575
0.4,6.6,0,0.00018645
0.4,6.7,0,0.000185937
0.4,6.8,0,0.000187097
0.4,6.9,0,0.000185958
0.4,7,0,0.000183518
0.4,7.1,0,0.000182189
0.4,7.2,0,0.000181208
0.4,7.3,0,0.000180131
0.4,7.4,0,0.000178965
0.4,7.5,0,0.000177711
0.4,7.6,0,0.000176365
0.4,7.7,0,0.000174929
0.4,7.8,0,0.000173405
0.4,7.9,0,0.000171786
0.4,8,0,0.000169455
0.4,8.1,0,0.000170717
0.4,8.2,0,0.000167296
0.4,8.3,0,0.000166225
0.4,8.4,0,0.000164273
0.4,8.5,0,0.000160836
0.4,8.6,0,0.000160389
0.4,8.7,0,0.000155277
0.4,8.8,0,0.00015543
0.4,8.9,0,0.000151201
0.4,9,0,0.000149097
0.4,9.1,0,0.000146743
0.4,9.2,0,0.000142223
0.4,9.3,0,0.000141235
0.4,9.4,0,0.000135652
0.4,9.5,0,0.000134904
0.4,9.6,0,0.000130264
0.4,9.7,0,0.000127184
0.4,9.8,0,0.000124488
0.4,9.9,0,0.000119222
0.4,10,0,0.000117605
0.4,10.1,0,0.000111884
0.4,10.2,0,0.000110032
0.4,10.3,0,0.000105311
0.4,10.4,0,0.000101413
0.4,10.5,0,9.83584e-05
0.4,10.6,0,9.26786e-05
0.4,10.7,0,9.03546e-05
0.4,10.8,0,8.47157e-05
0.4,10.9,0,8.18102e-05
0.4,11,0,7.70985e-05
0.4,11.1,0,7.26053e-05
0.4,11.2,0,6.91194e-05
0.4,11.3,0,6.33858e-05
0.4,11.4,0,6.02886e-05
0.4,11.5,0,5.48899e-05
0.4,11.6,0,5.10921e-05
0.4,11.7,0,4.64092e-05
0.4,11.8,0,4.15977e-05
0.4,11.9,0,3.757e-05
0.4,12,0,3.21871e-05
0.4,12.1,0,2.82836e-05
0.4,12.2,0,2.32488e-05
0.4,12.3,0,1.88019e-05
0.4,12.4,0,1.4136e-05
0.4,12.5,0,9.31759e-06
0.4,12.6,0,5.38633e-06
0.4,12.7,0,2.02448e-06
0.5,0,0,2.25679e-06
0.5,0.1,0,5.28665e-06
0.5,0.2,0,8.57482e-06
0.5,0.3,0,1.31686e-05
0.5,0.4,0,1.74013e-05
0.5,0.5,0,2.12727e-05
0.5,0.6,0,2.58974e-05
0.5,0.7,0,3.08115e-05
0.5,0.8,0,3.43141e-05
0.5,0.9,0,3.82079e-05
0.5,1,0,4.33756e-05
0.5,1.1,0,4.75364e-05
0.5,1.2,0,5.06902e-05
0.5,1.3,0,5.54672e-05
0.5,1.4,0,6.08126e-05
0.5,1.5,0,6.36516e-05
0.5,1.6,0,6.71244e-05
0.5,1.7,0,7.25583e-05
0.5,1.8,0,7.65614e-05
0.5,1.9,0,7.91335e-05
0.5,2,0,8.38326e-05
0.5,2.1,0,8.92513e-05
0.5,2.2,0,9.1615e-05
0.5,2.3,0,9.47096e-05
0.5,2.4,0,9.99993e-05
0.5,2.5,0,0.000103754
0.5,2.6,0,0.000105975
0.5,2.7,0,0.000110318
0.5,2.8,0,0.000115358
0.5,2.9,0,0.000117503
0.5,3,0,0.000120294
0.5,3.1,0,0.000124962
0.5,3.2,0,0.000128365
0.5,3.3,0,0.000130502
0.5,3.4,0,0.00013419
0.5,3.5,0,0.000138364
0.5,3.6,0,0.000140553
0.5,3.7,0,0.000143116
0.5,3.8,0,0.000146684
0.5,3.9,0,0.000149611
0.5,4,0,0.000151897
0.5,4.1,0,0.000154651
0.5,4.2,0,0.000157516
0.5,4.3,0,0.000159924
0.5,4.4,0,0.000162289
0.5,4.5,0,0.000164375
0.5,4.6,0,0.000166685
0.5,4.7,0,0.000169217
0.5,4.8,0,0.000170834
0.5,4.9,0,0.000172093
0.5,5,0,0.000174726
0.5,5.1,0,0.000176841
0.5,5.2,0,0.000177258
0.5,5.3,0,0.000178806
0.5,5.4,0,0.000181486
0.5,5.5,0,0.000181879
0.5,5.6,0,0.000181467
0.5,5.7,0,0.000184105
0.5,5.8,0,0.00018581
0.5,5.9,0,0.000184616
0.5,6,0,0.000185252
0.5,6.1,0,0.000187719
0.5,6.2,0,0.000186955
0.5,6.3,0,0.000185093
0.5,6.4,0,0.000187285
0.5,6.5,0,0.000188298
0.5,6.6,0,0.000185782
0.5,6.7,0,0.000185269
0.5,6.8,0,0.000186759
0.5,6.9,0,0.0001853
0.5,7,0,0.00018286
0.5,7.1,0,0.000181509
0.5,7.2,0,0.000180541
0.5,7.3,0,0.000179477
0.5,7.4,0,0.000178321
0.5,7.5,0,0.000177071
0.5,7.6,0,0.000175725
0.5,7.7,0,0.000174285
0.5,7.8,0,0.000172753
0.5,7.9,0,0.000171127
0.5,8,0,0.000168799
0.5,8.1,0,0.000170401
0.5,8.2,0,0.000166636
0.5,8.3,0,0.000165565
0.5,8.4,0,0.000163588
0.5,8.5,0,0.000160151
0.5,8.6,0,0.000160194
0.5,8.7,0,0.000154577
0.5,8.8,0,0.000154907
0.5,8.9,0,0.000150498
0.5,9,0,0.000148393
0.5,9.1,0,0.000146045
0.5,9.2,0,0.000141525
0.5,9.3,0,0.000141199
0.5,9.4,0,0.000134968
0.5,9.5,0,0.000134235
0.5,9.6,0,0.000129602
0.5,9.7,0,0.000126521
0.5,9.8,0,0.000123853
0.5,9.9,0,0.000118586
0.5,10,0,0.000117625
0.5,10.1,0,0.000111282
0.5,10.2,0,0.000109429
0.5,10.3,0,0.000104746
0.5,10.4,0,0.000100848
0.5,10.5,0,9.7836e-05
0.5,10.6,0,9.21563e-05
0.5,10.7,0,9.03698e-05
0.5,10.8,0,8.42398e-05
0.5,10.9,0,8.13343e-05
0.5,11,0,7.66728e-05
0.5,11.1,0,7.21795e-05
0.5,11.2,0,6.87552e-05
0.5,11.3,0,6.30134e-05
0.5,11.4,0,6.02664e-05
0.5,11.5,0,5.45738e-05
0.5,11.6,0,5.0776e-05
0.5,11.7,0,4.61519e-05
0.5,11.8,0,4.13404e-05
0.5,11.9,0,3.74232e-05
0.5,12,0,3.19906e-05
0.5,12.1,0,2.82265e-05
0.5,12.2,0,2.31146e-05
0.5,12.3,0,1.86676e-05
0.5,12.4,0,1.40669e-05
0.5,12.5,0,9.2485e-06
0.5,12.6,0,5.0764e-06
0.5,12.7,0,1.71302e-06
0.6,0,0,1.84646e-06
0.6,0.1,0,4.87633e-06
0.6,0.2,0,8.69523e-06
0.6,0.3,0,1.32891e-05
0.6,0.4,0,1.75217e-05
0.6,0.5,0,2.13931e-05
0.6,0.6,0,2.61326e-05
0.6,0.7,0,3.10467e-05
0.6,0.8,0,3.45494e-05
0.6,0.9,0,3.85436e-05
0.6,1,0,4.37113e-05
0.6,1.1,0,4.7872e-05
0.6,1.2,0,5.10259e-05
0.6,1.3,0,5.5885e-05
0.6,1.4,0,6.12304e-05
0.6,1.5,0,6.40693e-05
0.6,1.6,0,6.76014e-05
0.6,1.7,0,7.30353e-05
0.6,1.8,0,7.70383e-05
0.6,1.9,0,7.96105e-05
0.6,2,0,8.43417e-05
0.6,2.1,0,8.97605e-05
0.6,2.2,0,9.21242e-05
0.6,2.3,0,9.52212e-05
0.6,2.4,0,0.000100511
0.6,2.5,0,0.000104266
0.6,2.6,0,0.000106487
0.6,2.7,0,0.0001108
0.6,2.8,0,0.00011584
0.6,2.9,0,0.000117986
0.6,3,0,0.000120716
0.6,3.1,0,0.000125384
0.6,3.2,0,0.000128786
0.6,3.3,0,0.000130924
0.6,3.4,0,0.000134521
0.6,3.5,0,0.000138695
0.6,3.6,0,0.000140884
0.6,3.7,0,0.000143329
0.6,3.8,0,0.000146898
0.6,3.9,0,0.000149825
0.6,4,0,0.000152111
0.6,4.1,0,0.000154728
0.6,4.2,0,0.000157592
0.6,4.3,0,0.00016
0.6,4.4,0,0.000162215
0.6,4.5,0,0.000164301
0.6,4.6,0,0.00016661
0.6,4.7,0,0.000169143
0.6,4.8,0,0.000170605
0.6,4.9,0,0.000171865
0.6,5,0,0.000174497
0.6,5.1,0,0.000176464
0.6,5.2,0,0.000176881
0.6,5.3,0,0.000178429
0.6,5.4,0,0.000181109
0.6,5.5,0,0.000181371
0.6,5.6,0,0.000180958
0.6,5.7,0,0.000183596
0.6,5.8,0,0.0001852
0.6,5.9,0,0.000184006
0.6,6,0,0.000184642
0.6,6.1,0,0.000187109
0.6,6.2,0,0.00018628
0.6,6.3,0,0.000184418
0.6,6.4,0,0.000186609
0.6,6.5,0,0.00018763
0.6,6.6,0,0.000185114
0.6,6.7,0,0.000184601
0.6,6.8,0,0.000186092
0.6,6.9,0,0.000184641
0.6,7,0,0.000182201
0.6,7.1,0,0.00018083
0.6,7.2,0,0.000179873
0.6,7.3,0,0.000178824
0.6,7.4,0,0.000177677
0.6,7.5,0,0.000176431
0.6,7.6,0,0.000175085
0.6,7.7,0,0.000173642
0.6,7.8,0,0.000172101
0.6,7.9,0,0.000170467
0.6,8,0,0.000168144
0.6,8.1,0,0.000169746
0.6,8.2,0,0.000165976
0.6,8.3,0,0.000164905
0.6,8.4,0,0.000162903
0.6,8.5,0,0.000159466
0.6,8.6,0,0.000159356
0.6,8.7,0,0.000153876
0.6,8.8,0,0.000154207
0.6,8.9,0,0.000149794
0.6,9,0,0.00014769
0.6,9.1,0,0.000145348
0.6,9.2,0,0.000140828
0.6,9.3,0,0.000140216
0.6,9.4,0,0.000134284
0.6,9.5,0,0.000133552
0.6,9.6,0,0.000128939
0.6,9.7,0,0.000125858
0.6,9.8,0,0.000123218
0.6,9.9,0,0.000117951
0.6,10,0,0.00011669
0.6,10.1,0,0.000110679
0.6,10.2,0,0.000108827
0.6,10.3,0,0.000104181
0.6,10.4,0,0.000100283
0.6,10.5,0,9.73137e-05
0.6,10.6,0,9.1634e-05
0.6,10.7,0,8.96083e-05
0.6,10.8,0,8.37639e-05
0.6,10.9,0,8.08584e-05
0.6,11,0,7.6247e-05
0.6,11.1,0,7.17537e-05
0.6,11.2,0,6.83828e-05
0.6,11.3,0,6.2641e-05
0.6,11.4,0,5.97586e-05
0.6,11.5,0,5.42578e-05
0.6,11.6,0,5.04599e-05
0.6,11.7,0,4.58946e-05
0.6,11.8,0,4.10831e-05
0.6,11.9,0,3.72267e-05
0.6,12,0,3.17941e-05
0.6,12.1,0,2.80033e-05
0.6,12.2,0,2.29804e-05
0.6,12.3,0,1.85334e-05
0.6,12.4,0,1.39978e-05
0.6,12.5,0,9.17942e-06
0.6,12.6,0,4.76494e-06
0.6,12.7,0,1.40156e-06
0.7,0,0,1.43614e-06
0.7,0.1,0,4.466e-06
0.7,0.2,0,8.81093e-06
0.7,0.3,0,1.34095e-05
0.7,0.4,0,1.76421e-05
0.7,0.5,0,2.17447e-05
0.7,0.6,0,2.63679e-05
0.7,0.7,0,3.1282e-05
0.7,0.8,0,3.47846e-05
0.7,0.9,0,3.91065e-05
0.7,1,0,4.40469e-05
0.7,1.1,0,4.82077e-05
0.7,1.2,0,5.17678e-05
0.7,1.3,0,5.63027e-05
0.7,1.4,0,6.16481e-05
0.7,1.5,0,6.44871e-05
0.7,1.6,0,6.84812e-05
0.7,1.7,0,7.35123e-05
0.7,1.8,0,7.75153e-05
0.7,1.9,0,8.0578e-05
0.7,2,0,8.48509e-05
0.7,2.1,0,9.02696e-05
0.7,2.2,0,9.26334e-05
0.7,2.3,0,9.62192e-05
0.7,2.4,0,0.000101022
0.7,2.5,0,0.000104777
0.7,2.6,0,0.000107453
0.7,2.7,0,0.000111282
0.7,2.8,0,0.000116322
0.7,2.9,0,0.000118468
0.7,3,0,0.000121589
0.7,3.1,0,0.000125806
0.7,3.2,0,0.000129208
0.7,3.3,0,0.00013164
0.7,3.4,0,0.000134852
0.7,3.5,0,0.000139026
0.7,3.6,0,0.000141215
0.7,3.7,0,0.000143832
0.7,3.8,0,0.000147112
0.7,3.9,0,0.000150039
0.7,4,0,0.000152352
0.7,4.1,0,0.000154804
0.7,4.2,0,0.000157668
0.7,4.3,0,0.000160076
0.7,4.4,0,0.000162162
0.7,4.5,0,0.000164227
0.7,4.6,0,0.000166536
0.7,4.7,0,0.000168779
0.7,4.8,0,0.000170376
0.7,4.9,0,0.000171636
0.7,5,0,0.000174268
0.7,5.1,0,0.000175792
0.7,5.2,0,0.000176504
0.7,5.3,0,0.000178052
0.7,5.4,0,0.000180151
0.7,5.5,0,0.000180863
0.7,5.6,0,0.00018045
0.7,5.7,0,0.000183088
0.7,5.8,0,0.000184002
0.7,5.9,0,0.000183396
0.7,6,0,0.000184032
0.7,6.1,0,0.000185744
0.7,6.2,0,0.000185604
0.7,6.3,0,0.000183742
0.7,6.4,0,0.000185934
0.7,6.5,0,0.000186174
0.7,6.6,0,0.000184447
0.7,6.7,0,0.000183934
0.7,6.8,0,0.000184773
0.7,6.9,0,0.000183982
0.7,7,0,0.000181542
0.7,7.1,0,0.00018015
0.7,7.2,0,0.000179206
0.7,7.3,0,0.000178171
0.7,7.4,0,0.000177033
0.7,7.5,0,0.000175791
0.7,7.6,0,0.000174446
0.7,7.7,0,0.000172998
0.7,7.8,0,0.00017145
0.7,7.9,0,0.000169807
0.7,8,0,0.000167489
0.7,8.1,0,0.000168384
0.7,8.2,0,0.000165316
0.7,8.3,0,0.000164245
0.7,8.4,0,0.000162218
0.7,8.5,0,0.000158781
0.7,8.6,0,0.00015794
0.7,8.7,0,0.000153176
0.7,8.8,0,0.000152962
0.7,8.9,0,0.00014909
0.7,9,0,0.000146986
0.7,9.1,0,0.00014465
0.7,9.2,0,0.00014013
0.7,9.3,0,0.00013881
0.7,9.4,0,0.000133601
0.7,9.5,0,0.000132511
0.7,9.6,0,0.000128277
0.7,9.7,0,0.000125196
0.7,9.8,0,0.000122531
0.7,9.9,0,0.000117316
0.7,10,0,0.000115433
0.7,10.1,0,0.000110077
0.7,10.2,0,0.000108051
0.7,10.3,0,0.000103617
0.7,10.4,0,9.97187e-05
0.7,10.5,0,9.66182e-05
0.7,10.6,0,9.11116e-05
0.7,10.7,0,8.8595e-05
0.7,10.8,0,8.3288e-05
0.7,10.9,0,8.03498e-05
0.7,11,0,7.58212e-05
0.7,11.1,0,7.1328e-05
0.7,11.2,0,6.77822e-05
0.7,11.3,0,6.22686e-05
0.7,11.4,0,5.90597e-05
0.7,11.5,0,5.39417e-05
0.7,11.6,0,5.01439e-05
0.7,11.7,0,4.56374e-05
0.7,11.8,0,4.08258e-05
0.7,11.9,0,3.68335e-05
0.7,12,0,3.15975e-05
0.7,12.1,0,2.76675e-05
0.7,12.2,0,2.28462e-05
0.7,12.3,0,1.83992e-05
0.7,12.4,0,1.39287e-05
0.7,12.5,0,9.11033e-06
0.7,12.6,0,4.68496e-06
0.7,12.7,0,1.0901e-06
0.8,0,0,1.02581e-06
0.8,0.1,0,4.31869e-06
0.8,0.2,0,8.92663e-06
0.8,0.3,0,1.35299e-05
0.8,0.4,0,1.77625e-05
0.8,0.5,0,2.20963e-05
0.8,0.6,0,2.66613e-05
0.8,0.7,0,3.15172e-05
0.8,0.8,0,3.51837e-05
0.8,0.9,0,3.96695e-05
0.8,1,0,4.43825e-05
0.8,1.1,0,4.85433e-05
0.8,1.2,0,5.25098e-05
0.8,1.3,0,5.68826e-05
0.8,1.4,0,6.20659e-05
0.8,1.5,0,6.51359e-05
0.8,1.6,0,6.93611e-05
0.8,1.7,0,7.39892e-05
0.8,1.8,0,7.79923e-05
0.8,1.9,0,8.15455e-05
0.8,2,0,8.55892e-05
0.8,2.1,0,9.07788e-05
0.8,2.2,0,9.3387e-05
0.8,2.3,0,9.72172e-05
0.8,2.4,0,0.000101534
0.8,2.5,0,0.000105289
0.8,2.6,0,0.00010842
0.8,2.7,0,0.000112007
0.8,2.8,0,0.000116805
0.8,2.9,0,0.000119145
0.8,3,0,0.000122461
0.8,3.1,0,0.000126227
0.8,3.2,0,0.00012963
0.8,3.3,0,0.000132355
0.8,3.4,0,0.000135375
0.8,3.5,0,0.000139357
0.8,3.6,0,0.000141631
0.8,3.7,0,0.000144334
0.8,3.8,0,0.000147326
0.8,3.9,0,0.000150253
0.8,4,0,0.000152594
0.8,4.1,0,0.000154963
0.8,4.2,0,0.000157745
0.8,4.3,0,0.000160088
0.8,4.4,0,0.000162109
0.8,4.5,0,0.000164152
0.8,4.6,0,0.000166462
0.8,4.7,0,0.000168415
0.8,4.8,0,0.00017008
0.8,4.9,0,0.000171407
0.8,5,0,0.000173818
0.8,5.1,0,0.00017512
0.8,5.2,0,0.000176126
0.8,5.3,0,0.000177675
0.8,5.4,0,0.000179192
0.8,5.5,0,0.000180129
0.8,5.6,0,0.000179941
0.8,5.7,0,0.000182234
0.8,5.8,0,0.000182804
0.8,5.9,0,0.000182786
0.8,6,0,0.000183422
0.8,6.1,0,0.00018438
0.8,6.2,0,0.000184584
0.8,6.3,0,0.000183066
0.8,6.4,0,0.000184868
0.8,6.5,0,0.000184718
0.8,6.6,0,0.000183779
0.8,6.7,0,0.000183266
0.8,6.8,0,0.000183455
0.8,6.9,0,0.000182994
0.8,7,0,0.000180884
0.8,7.1,0,0.000179471
0.8,7.2,0,0.000178538
0.8,7.3,0,0.000177518
0.8,7.4,0,0.000176389
0.8,7.5,0,0.000175151
0.8,7.6,0,0.000173806
0.8,7.7,0,0.000172355
0.8,7.8,0,0.000170798
0.8,7.9,0,0.000169148
0.8,8,0,0.000166833
0.8,8.1,0,0.000166998
0.8,8.2,0,0.000164656
0.8,8.3,0,0.000163297
0.8,8.4,0,0.000161101
0.8,8.5,0,0.000158096
0.8,8.6,0,0.000156524
0.8,8.7,0,0.000152475
0.8,8.8,0,0.00015153
0.8,8.9,0,0.000148386
0.8,9,0,0.000146151
0.8,9.1,0,0.000143332
0.8,9.2,0,0.000139432
0.8,9.3,0,0.000137405
0.8,9.4,0,0.000132917
0.8,9.5,0,0.000131142
0.8,9.6,0,0.000127614
0.8,9.7,0,0.000124533
0.8,9.8,0,0.000121213
0.8,9.9,0,0.00011668
0.8,10,0,0.000114176
0.8,10.1,0,0.000109474
0.8,10.2,0,0.000106865
0.8,10.3,0,0.000103052
0.8,10.4,0,9.9154e-05
0.8,10.5,0,9.55146e-05
0.8,10.6,0,9.05893e-05
0.8,10.7,0,8.75816e-05
0.8,10.8,0,8.28121e-05
0.8,10.9,0,7.94345e-05
0.8,11,0,7.53955e-05
0.8,11.1,0,7.09022e-05
0.8,11.2,0,6.6972e-05
0.8,11.3,0,6.18963e-05
0.8,11.4,0,5.83608e-05
0.8,11.5,0,5.36256e-05
0.8,11.6,0,4.96014e-05
0.8,11.7,0,4.53214e-05
0.8,11.8,0,4.05686e-05
0.8,11.9,0,3.63729e-05
0.8,12,0,3.1401e-05
0.8,12.1,0,2.73318e-05
0.8,12.2,0,2.27119e-05
0.8,12.3,0,1.82189e-05
0.8,12.4,0,1.38036e-05
0.8,12.5,0,9.04125e-06
0.8,12.6,0,4.6126e-06
0.8,12.7,0,7.78644e-07
0.9,0,0,6.15488e-07
0.9,0.1,0,4.43439e-06
0.9,0.2,0,9.04233e-06
0.9,0.3,0,1.36503e-05
0.9,0.4,0,1.78829e-05
0.9,0.5,0,2.24479e-05
0.9,0.6,0,2.70129e-05
0.9,0.7,0,3.17525e-05
0.9,0.8,0,3.57467e-05
0.9,0.9,0,4.02324e-05
0.9,1,0,4.47182e-05
0.9,1.1,0,4.8879e-05
0.9,1.2,0,5.32517e-05
0.9,1.3,0,5.76245e-05
0.9,1.4,0,6.24836e-05
0.9,1.5,0,6.60157e-05
0.9,1.6,0,7.02409e-05
0.9,1.7,0,7.44662e-05
0.9,1.8,0,7.84692e-05
0.9,1.9,0,8.2513e-05
0.9,2,0,8.65567e-05
0.9,2.1,0,9.1288e-05
0.9,2.2,0,9.4385e-05
0.9,2.3,0,9.82152e-05
0.9,2.4,0,0.000102045
0.9,2.5,0,0.000105801
0.9,2.6,0,0.000109387
0.9,2.7,0,0.000112974
0.9,2.8,0,0.000117287
0.9,2.9,0,0.000120018
0.9,3,0,0.000123333
0.9,3.1,0,0.000126649
0.9,3.2,0,0.000130051
0.9,3.3,0,0.000133071
0.9,3.4,0,0.000136091
0.9,3.5,0,0.000139688
0.9,3.6,0,0.000142133
0.9,3.7,0,0.000144836
0.9,3.8,0,0.000147539
0.9,3.9,0,0.000150466
0.9,4,0,0.000152835
0.9,4.1,0,0.000155204
0.9,4.2,0,0.000157821
0.9,4.3,0,0.000160035
0.9,4.4,0,0.000162057
0.9,4.5,0,0.000164078
0.9,4.6,0,0.000166387
0.9,4.7,0,0.000168052
0.9,4.8,0,0.000169716
0.9,4.9,0,0.000171178
0.9,5,0,0.000173145
0.9,5.1,0,0.000174447
0.9,5.2,0,0.000175749
0.9,5.3,0,0.000177298
0.9,5.4,0,0.000178234
0.9,5.5,0,0.000179171
0.9,5.6,0,0.000179433
0.9,5.7,0,0.000181037
0.9,5.8,0,0.000181606
0.9,5.9,0,0.000182176
0.9,6,0,0.000182812
0.9,6.1,0,0.000183016
0.9,6.2,0,0.00018322
0.9,6.3,0,0.000182391
0.9,6.4,0,0.000183412
0.9,6.5,0,0.000183261
0.9,6.6,0,0.000183111
0.9,6.7,0,0.000182598
0.9,6.8,0,0.000182137
0.9,6.9,0,0.000181676
0.9,7,0,0.000180225
0.9,7.1,0,0.000178791
0.9,7.2,0,0.000177871
0.9,7.3,0,0.000176865
0.9,7.4,0,0.000175745
0.9,7.5,0,0.000174511
0.9,7.6,0,0.000173166
0.9,7.7,0,0.000171711
0.9,7.8,0,0.000170146
0.9,7.9,0,0.000168488
0.9,8,0,0.000166178
0.9,8.1,0,0.000165612
0.9,8.2,0,0.00016395
0.9,8.3,0,0.000161923
0.9,8.4,0,0.000159727
0.9,8.5,0,0.000157411
0.9,8.6,0,0.000155108
0.9,8.7,0,0.000151774
0.9,8.8,0,0.000150098
0.9,8.9,0,0.000147473
0.9,9,0,0.000144724
0.9,9.1,0,0.000141905
0.9,9.2,0,0.000138735
0.9,9.3,0,0.000136
0.9,9.4,0,0.000132233
0.9,9.5,0,0.000129773
0.9,9.6,0,0.000126591
0.9,9.7,0,0.000123242
0.9,9.8,0,0.000119894
0.9,9.9,0,0.000116045
0.9,10,0,0.000112919
0.9,10.1,0,0.000108872
0.9,10.2,0,0.00010568
0.9,10.3,0,0.000102032
0.9,10.4,0,9.81938e-05
0.9,10.5,0,9.4411e-05
0.9,10.6,0,9.0067e-05
0.9,10.7,0,8.65683e-05
0.9,10.8,0,8.23362e-05
0.9,10.9,0,7.85192e-05
0.9,11,0,7.4501e-05
0.9,11.1,0,7.02801e-05
0.9,11.2,0,6.61618e-05
0.9,11.3,0,6.15239e-05
0.9,11.4,0,5.7662e-05
0.9,11.5,0,5.33096e-05
0.9,11.6,0,4.90194e-05
0.9,11.7,0,4.47393e-05
0.9,11.8,0,4.02529e-05
0.9,11.9,0,3.59123e-05
0.9,12,0,3.12045e-05
0.9,12.1,0,2.6996e-05
0.9,12.2,0,2.25777e-05
0.9,12.3,0,1.80112e-05
0.9,12.4,0,1.35959e-05
0.9,12.5,0,8.97195e-06
0.9,12.6,0,4.54024e-06
0.9,12.7,0,4.67187e-07
1,0,0,2.05163e-07
1,0.1,0,4.55009e-06
1,0.2,0,9.15803e-06
1,0.3,0,1.3766e-05
1,0.4,0,1.82345e-05
1,0.5,0,2.27995e-05
1,0.6,0,2.73645e-05
1,0.7,0,3.19877e-05
1,0.8,0,3.63096e-05
1,0.9,0,4.07954e-05
1,1,0,4.52811e-05
1,1.1,0,4.96209e-05
1,1.2,0,5.39937e-05
1,1.3,0,5.83665e-05
1,1.4,0,6.29014e-05
1,1.5,0,6.68956e-05
1,1.6,0,7.11208e-05
1,1.7,0,7.5346e-05
1,1.8,0,7.94367e-05
1,1.9,0,8.34805e-05
1,2,0,8.75242e-05
1,2.1,0,9.17972e-05
1,2.2,0,9.5383e-05
1,2.3,0,9.92132e-05
1,2.4,0,0.000103043
1,2.5,0,0.000106767
1,2.6,0,0.000110354
1,2.7,0,0.000113941
1,2.8,0,0.00011777
1,2.9,0,0.00012089
1,3,0,0.000124206
1,3.1,0,0.000127521
1,3.2,0,0.000130767
1,3.3,0,0.000133787
1,3.4,0,0.000136806
1,3.5,0,0.000140019
1,3.6,0,0.000142636
1,3.7,0,0.000145339
1,3.8,0,0.000148042
1,3.9,0,0.000150708
1,4,0,0.000153077
1,4.1,0,0.000155445
1,4.2,0,0.000157897
1,4.3,0,0.000159983
1,4.4,0,0.000162004
1,4.5,0,0.000164025
1,4.6,0,0.000166023
1,4.7,0,0.000167688
1,4.8,0,0.000169352
1,4.9,0,0.000170949
1,5,0,0.000172473
1,5.1,0,0.000173775
1,5.2,0,0.000175077
1,5.3,0,0.000176339
1,5.4,0,0.000177276
1,5.5,0,0.000178213
1,5.6,0,0.000178924
1,5.7,0,0.000179839
1,5.8,0,0.000180408
1,5.9,0,0.000180978
1,6,0,0.000181448
1,6.1,0,0.000181652
1,6.2,0,0.000181855
1,6.3,0,0.000181715
1,6.4,0,0.000181955
1,6.5,0,0.000181805
1,6.6,0,0.000181655
1,6.7,0,0.00018128
1,6.8,0,0.000180819
1,6.9,0,0.000180357
1,7,0,0.000179566
1,7.1,0,0.000178112
1,7.2,0,0.000177203
1,7.3,0,0.000176212
1,7.4,0,0.000175101
1,7.5,0,0.000173871
1,7.6,0,0.000172527
1,7.7,0,0.000171068
1,7.8,0,0.000169494
1,7.9,0,0.000167829
1,8,0,0.000165523
1,8.1,0,0.000164226
1,8.2,0,0.000162564
1,8.3,0,0.000160549
1,8.4,0,0.000158354
1,8.5,0,0.000156112
1,8.6,0,0.000153692
1,8.7,0,0.000151074
1,8.8,0,0.000148666
1,8.9,0,0.000146041
1,9,0,0.000143297
1,9.1,0,0.000140478
1,9.2,0,0.000137601
1,9.3,0,0.000134594
1,9.4,0,0.00013155
1,9.5,0,0.000128405
1,9.6,0,0.000125222
1,9.7,0,0.000121923
1,9.8,0,0.000118575
1,9.9,0,0.000115165
1,10,0,0.000111661
1,10.1,0,0.000108158
1,10.2,0,0.000104495
1,10.3,0,0.000100847
1,10.4,0,9.70902e-05
1,10.5,0,9.33074e-05
1,10.6,0,8.94611e-05
1,10.7,0,8.55549e-05
1,10.8,0,8.16488e-05
1,10.9,0,7.76039e-05
1,11,0,7.35857e-05