/*--------------------------------*- C++ -*----------------------------------*\
| =========                 |                                                 |
| \\      /  F ield         | OpenFOAM: The Open Source CFD Toolbox           |
|  \\    /   O peration     | Version:  v1806                                 |
|   \\  /    A nd           | Web:      www.OpenFOAM.com                      |
|    \\/     M anipulation  |                                                 |
\*---------------------------------------------------------------------------*/
FoamFile
{
    version     2.0;
    format      ascii;
    class       volVectorField;
    location    "470";
    object      U;
}
// * * * * * * * * * * * * * * * * * * * * * * * * * * * * * * * * * * * * * //

dimensions      [0 1 -1 0 0 0 0];


internalField   nonuniform List<vector> 
4400
(
(0.256676 0.271864 0)
(0.300999 0.187113 0)
(0.314521 0.137175 0)
(0.321822 0.105942 0)
(0.325736 0.0860745 0)
(0.32713 0.0733799 0)
(0.327022 0.0645618 0)
(0.32608 0.0577782 0)
(0.32465 0.0522776 0)
(0.322922 0.04773 0)
(0.32101 0.0439354 0)
(0.318985 0.0407509 0)
(0.316895 0.0380729 0)
(0.314774 0.035826 0)
(0.312643 0.0339543 0)
(0.310514 0.0324155 0)
(0.308394 0.0311783 0)
(0.306294 0.0302211 0)
(0.304268 0.0295086 0)
(0.302591 0.0289552 0)
(0.26337 0.143794 0)
(0.28608 0.103251 0)
(0.300086 0.0925867 0)
(0.31121 0.0857544 0)
(0.317046 0.077644 0)
(0.319692 0.0694963 0)
(0.320782 0.0622635 0)
(0.320915 0.0561389 0)
(0.320369 0.0510074 0)
(0.319349 0.0467036 0)
(0.318008 0.0430817 0)
(0.316456 0.0400247 0)
(0.314767 0.0374434 0)
(0.312993 0.0352712 0)
(0.311167 0.0334582 0)
(0.309312 0.0319667 0)
(0.307443 0.0307683 0)
(0.305576 0.0298434 0)
(0.303761 0.0291585 0)
(0.302249 0.0286413 0)
(0.233488 0.111594 0)
(0.26593 0.108351 0)
(0.287621 0.0985636 0)
(0.300528 0.0861165 0)
(0.308172 0.0749333 0)
(0.312679 0.06609 0)
(0.315144 0.0592116 0)
(0.316252 0.0536704 0)
(0.31645 0.0490492 0)
(0.316031 0.0451283 0)
(0.31519 0.041783 0)
(0.314062 0.0389277 0)
(0.31274 0.0364969 0)
(0.311288 0.0344394 0)
(0.309751 0.0327155 0)
(0.308158 0.0312938 0)
(0.306531 0.030151 0)
(0.304889 0.0292699 0)
(0.303282 0.0286212 0)
(0.301932 0.0281431 0)
(0.25067 0.0762381 0)
(0.27177 0.0753873 0)
(0.285487 0.0718475 0)
(0.295675 0.0681664 0)
(0.302985 0.0640421 0)
(0.30777 0.059472 0)
(0.310688 0.0548391 0)
(0.312305 0.0504876 0)
(0.313003 0.0465727 0)
(0.313043 0.0431227 0)
(0.312611 0.040114 0)
(0.311846 0.0375082 0)
(0.310848 0.0352664 0)
(0.309688 0.0333543 0)
(0.308416 0.0317431 0)
(0.307068 0.0304097 0)
(0.305669 0.0293359 0)
(0.304242 0.0285085 0)
(0.302834 0.027902 0)
(0.301642 0.0274655 0)
(0.250393 0.058755 0)
(0.266859 0.0648702 0)
(0.280968 0.0659072 0)
(0.29149 0.0634103 0)
(0.298806 0.0593131 0)
(0.303758 0.0549294 0)
(0.306996 0.0508152 0)
(0.308977 0.0470949 0)
(0.310035 0.0437583 0)
(0.310417 0.0407791 0)
(0.310306 0.0381361 0)
(0.30984 0.0358111 0)
(0.309117 0.0337853 0)
(0.308212 0.0320407 0)
(0.307178 0.0305602 0)
(0.306053 0.029329 0)
(0.304866 0.0283349 0)
(0.30364 0.0275686 0)
(0.30242 0.0270093 0)
(0.301381 0.0266156 0)
(0.261739 0.0450564 0)
(0.27328 0.0502867 0)
(0.282862 0.0521502 0)
(0.290585 0.0519715 0)
(0.296636 0.050601 0)
(0.30113 0.0484839 0)
(0.304278 0.0459515 0)
(0.306346 0.0432776 0)
(0.307577 0.040652 0)
(0.308174 0.0381827 0)
(0.308293 0.0359219 0)
(0.308058 0.0338906 0)
(0.307561 0.0320939 0)
(0.306873 0.030529 0)
(0.306047 0.02919 0)
(0.305123 0.02807 0)
(0.304128 0.0271625 0)
(0.303088 0.0264624 0)
(0.302044 0.0259534 0)
(0.301147 0.0256024 0)
(0.266477 0.0359195 0)
(0.274679 0.0418767 0)
(0.282729 0.0450623 0)
(0.28967 0.0459399 0)
(0.295157 0.0452573 0)
(0.299273 0.043691 0)
(0.30224 0.0417127 0)
(0.304276 0.0395933 0)
(0.305574 0.0374764 0)
(0.306294 0.0354422 0)
(0.306569 0.0335389 0)
(0.306504 0.0317957 0)
(0.306186 0.0302294 0)
(0.305678 0.0288485 0)
(0.30503 0.0276559 0)
(0.304281 0.0266516 0)
(0.303459 0.0258346 0)
(0.302588 0.0252034 0)
(0.301705 0.024746 0)
(0.300941 0.024437 0)
(0.273528 0.0290828 0)
(0.279525 0.0340652 0)
(0.285307 0.0371333 0)
(0.290436 0.038574 0)
(0.294758 0.0388387 0)
(0.298218 0.038286 0)
(0.300845 0.0371901 0)
(0.302731 0.0357723 0)
(0.303996 0.0342019 0)
(0.304757 0.0325976 0)
(0.30512 0.0310375 0)
(0.305174 0.029571 0)
(0.30499 0.0282286 0)
(0.304627 0.0270286 0)
(0.304129 0.0259817 0)
(0.303531 0.0250936 0)
(0.302861 0.0243679 0)
(0.302141 0.023806 0)
(0.301404 0.0234002 0)
(0.300762 0.0231314 0)
(0.277983 0.023806 0)
(0.28229 0.0284489 0)
(0.286805 0.0316123 0)
(0.291035 0.0333804 0)
(0.294678 0.0340328 0)
(0.297634 0.0338803 0)
(0.299919 0.0331948 0)
(0.301605 0.0321843 0)
(0.302777 0.0309971 0)
(0.303523 0.0297362 0)
(0.303925 0.028473 0)
(0.304053 0.0272574 0)
(0.303966 0.026124 0)
(0.303716 0.0250963 0)
(0.30334 0.02419 0)
(0.302871 0.0234152 0)
(0.302333 0.0227788 0)
(0.301746 0.0222851 0)
(0.30114 0.0219295 0)
(0.300607 0.0216986 0)
(0.282658 0.019757 0)
(0.285836 0.0236566 0)
(0.289151 0.0265025 0)
(0.292298 0.0283081 0)
(0.295103 0.0292423 0)
(0.297472 0.029497 0)
(0.299374 0.0292469 0)
(0.300823 0.0286449 0)
(0.301864 0.027819 0)
(0.302555 0.02687 0)
(0.302956 0.0258738 0)
(0.303122 0.0248852 0)
(0.303102 0.0239433 0)
(0.302937 0.0230758 0)
(0.30266 0.0223018 0)
(0.302298 0.0216347 0)
(0.301872 0.0210838 0)
(0.301402 0.0206553 0)
(0.300911 0.0203476 0)
(0.300476 0.0201517 0)
(0.286108 0.0163898 0)
(0.288418 0.0198307 0)
(0.290923 0.0224494 0)
(0.293385 0.02423 0)
(0.295624 0.02527 0)
(0.29754 0.0257071 0)
(0.2991 0.0256848 0)
(0.30031 0.0253329 0)
(0.301201 0.0247597 0)
(0.301811 0.0240516 0)
(0.302184 0.0232755 0)
(0.302362 0.0224823 0)
(0.302383 0.0217103 0)
(0.30228 0.0209879 0)
(0.30208 0.0203358 0)
(0.301806 0.0197689 0)
(0.301475 0.0192981 0)
(0.301105 0.0189309 0)
(0.300715 0.018668 0)
(0.300366 0.018504 0)
(0.28932 0.0136843 0)
(0.291005 0.0165733 0)
(0.292833 0.0188586 0)
(0.294643 0.0205037 0)
(0.296321 0.021563 0)
(0.297794 0.0221256 0)
(0.299023 0.0222883 0)
(0.299999 0.022146 0)
(0.300734 0.0217852 0)
(0.30125 0.0212798 0)
(0.301579 0.0206908 0)
(0.30175 0.0200662 0)
(0.301793 0.0194433 0)
(0.301733 0.0188502 0)
(0.301593 0.0183082 0)
(0.301389 0.0178329 0)
(0.301138 0.0174359 0)
(0.300853 0.0171254 0)
(0.300549 0.0169038 0)
(0.300275 0.0167683 0)
(0.291842 0.0113349 0)
(0.29305 0.0138094 0)
(0.294384 0.015809 0)
(0.295732 0.0173008 0)
(0.297001 0.0183151 0)
(0.298126 0.0189121 0)
(0.299074 0.0191647 0)
(0.299837 0.0191479 0)
(0.30042 0.0189318 0)
(0.300839 0.0185778 0)
(0.301113 0.0181373 0)
(0.301265 0.0176525 0)
(0.301316 0.017157 0)
(0.301285 0.016677 0)
(0.301188 0.016233 0)
(0.301041 0.0158401 0)
(0.300855 0.0155101 0)
(0.300641 0.0152513 0)
(0.300411 0.0150672 0)
(0.3002 0.0149569 0)
(0.29405 0.00935152 0)
(0.294897 0.0113987 0)
(0.295834 0.0130917 0)
(0.296786 0.0143939 0)
(0.297691 0.01532 0)
(0.298507 0.015909 0)
(0.299206 0.0162113 0)
(0.299777 0.0162817 0)
(0.30022 0.0161741 0)
(0.300544 0.0159384 0)
(0.300761 0.0156178 0)
(0.300887 0.0152488 0)
(0.300936 0.0148614 0)
(0.300922 0.0144794 0)
(0.300858 0.0141215 0)
(0.300755 0.0138021 0)
(0.300622 0.0135323 0)
(0.300466 0.0133201 0)
(0.300298 0.0131696 0)
(0.300141 0.0130814 0)
(0.295803 0.00757184 0)
(0.296376 0.00926162 0)
(0.297017 0.010676 0)
(0.297676 0.0117858 0)
(0.298308 0.0125983 0)
(0.298881 0.0131394 0)
(0.299376 0.0134453 0)
(0.299783 0.0135575 0)
(0.300103 0.0135179 0)
(0.300339 0.0133661 0)
(0.3005 0.0131373 0)
(0.300596 0.0128616 0)
(0.300638 0.0125643 0)
(0.300634 0.012266 0)
(0.300593 0.0119831 0)
(0.300523 0.0117287 0)
(0.300432 0.0115126 0)
(0.300324 0.0113421 0)
(0.300206 0.0112216 0)
(0.300095 0.0111526 0)
(0.297255 0.00599567 0)
(0.29762 0.0073344 0)
(0.298029 0.00847108 0)
(0.298451 0.00937851 0)
(0.298858 0.0100587 0)
(0.299231 0.0105281 0)
(0.299556 0.0108117 0)
(0.299826 0.0109394 0)
(0.30004 0.0109423 0)
(0.3002 0.0108508 0)
(0.300311 0.0106925 0)
(0.300378 0.0104919 0)
(0.300409 0.0102697 0)
(0.300409 0.0100428 0)
(0.300385 0.00982529 0)
(0.300341 0.00962807 0)
(0.300281 0.00945974 0)
(0.300211 0.00932663 0)
(0.300134 0.00923288 0)
(0.300059 0.00918047 0)
(0.298362 0.00453473 0)
(0.298575 0.00555913 0)
(0.298816 0.00643495 0)
(0.299065 0.00714156 0)
(0.299306 0.00767936 0)
(0.299528 0.00805905 0)
(0.299722 0.00829785 0)
(0.299884 0.00841697 0)
(0.300012 0.00843918 0)
(0.300109 0.00838691 0)
(0.300177 0.00828101 0)
(0.300219 0.00814005 0)
(0.300238 0.00798002 0)
(0.30024 0.00781426 0)
(0.300226 0.00765371 0)
(0.300201 0.00750717 0)
(0.300166 0.00738155 0)
(0.300125 0.00728201 0)
(0.300079 0.00721215 0)
(0.300034 0.00717403 0)
(0.29919 0.00318009 0)
(0.299293 0.0038983 0)
(0.299411 0.00451748 0)
(0.299533 0.00502127 0)
(0.299651 0.00540911 0)
(0.299761 0.00568752 0)
(0.299857 0.00586755 0)
(0.299938 0.00596317 0)
(0.300003 0.00598966 0)
(0.300051 0.00596239 0)
(0.300086 0.00589585 0)
(0.300107 0.00580313 0)
(0.300117 0.0056956 0)
(0.300119 0.00558285 0)
(0.300112 0.00547275 0)
(0.3001 0.0053717 0)
(0.300082 0.00528477 0)
(0.300062 0.00521576 0)
(0.300039 0.0051675 0)
(0.300016 0.00514178 0)
(0.299722 0.00188148 0)
(0.299756 0.00231111 0)
(0.299796 0.00268142 0)
(0.299838 0.00298374 0)
(0.299879 0.00321793 0)
(0.299917 0.00338757 0)
(0.29995 0.00349891 0)
(0.299978 0.00355995 0)
(0.3 0.0035796 0)
(0.300017 0.00356685 0)
(0.300029 0.00353026 0)
(0.300037 0.00347758 0)
(0.30004 0.00341562 0)
(0.300041 0.0033501 0)
(0.300038 0.00328579 0)
(0.300034 0.00322654 0)
(0.300028 0.00317544 0)
(0.300021 0.00313483 0)
(0.300013 0.00310651 0)
(0.300005 0.00309171 0)
(0.299987 0.000630395 0)
(0.299988 0.000767843 0)
(0.29999 0.000889957 0)
(0.299992 0.000990411 0)
(0.299994 0.00106855 0)
(0.299996 0.00112542 0)
(0.299998 0.00116302 0)
(0.299999 0.00118393 0)
(0.3 0.00119106 0)
(0.300001 0.00118737 0)
(0.300001 0.00117567 0)
(0.300002 0.00115855 0)
(0.300002 0.00113826 0)
(0.300002 0.00111673 0)
(0.300002 0.00109555 0)
(0.300002 0.001076 0)
(0.300001 0.00105912 0)
(0.300001 0.00104569 0)
(0.300001 0.00103635 0)
(0.3 0.00103151 0)
(0.099078 -0.148143 0)
(0.0776124 -0.123922 0)
(0.0649046 -0.101585 0)
(0.0562936 -0.0816113 0)
(0.0500445 -0.0633755 0)
(0.0454104 -0.0464033 0)
(0.042019 -0.0303798 0)
(0.0396625 -0.0150467 0)
(0.0382181 -0.000170523 0)
(0.0376151 0.0144656 0)
(0.0378202 0.0290682 0)
(0.0388313 0.0438405 0)
(0.0406761 0.0589907 0)
(0.0434151 0.074739 0)
(0.0471509 0.0913252 0)
(0.0520506 0.109016 0)
(0.0584072 0.12814 0)
(0.0668185 0.149211 0)
(0.0787704 0.172875 0)
(0.0988902 0.197963 0)
(0.167133 -0.0877468 0)
(0.154387 -0.0782435 0)
(0.143243 -0.0673272 0)
(0.133894 -0.0556823 0)
(0.126277 -0.0435946 0)
(0.120262 -0.0312035 0)
(0.115709 -0.0186017 0)
(0.112501 -0.00585362 0)
(0.110546 0.00699602 0)
(0.109785 0.0199155 0)
(0.110191 0.0328798 0)
(0.111769 0.0458661 0)
(0.114557 0.0588496 0)
(0.118636 0.0717995 0)
(0.12413 0.0846718 0)
(0.131225 0.0973953 0)
(0.140196 0.109872 0)
(0.151452 0.122099 0)
(0.165643 0.134289 0)
(0.183819 0.14491 0)
(0.189304 -0.0516324 0)
(0.184327 -0.0459803 0)
(0.179929 -0.0394824 0)
(0.176115 -0.0322757 0)
(0.172893 -0.0245002 0)
(0.170279 -0.0162761 0)
(0.16829 -0.00770529 0)
(0.166943 0.00112575 0)
(0.166251 0.010142 0)
(0.166223 0.0192771 0)
(0.166868 0.0284696 0)
(0.168189 0.0376606 0)
(0.170192 0.0467897 0)
(0.172877 0.055792 0)
(0.176242 0.0645933 0)
(0.180286 0.073104 0)
(0.185011 0.0812178 0)
(0.190434 0.0888283 0)
(0.196654 0.0957961 0)
(0.20396 0.101555 0)
(0.215952 -0.0302535 0)
(0.212776 -0.025948 0)
(0.209854 -0.0213192 0)
(0.207258 -0.0164028 0)
(0.205044 -0.0112362 0)
(0.203253 -0.0058582 0)
(0.201913 -0.000308447 0)
(0.201045 0.00537246 0)
(0.200666 0.011143 0)
(0.200787 0.0169611 0)
(0.201417 0.0227839 0)
(0.202561 0.0285681 0)
(0.204226 0.0342694 0)
(0.206414 0.0398433 0)
(0.209127 0.0452439 0)
(0.212367 0.0504237 0)
(0.216132 0.0553373 0)
(0.220425 0.0599543 0)
(0.225253 0.0642364 0)
(0.230646 0.0679311 0)
(0.231451 -0.0194941 0)
(0.229824 -0.016292 0)
(0.228385 -0.0128838 0)
(0.227151 -0.00928619 0)
(0.226136 -0.00552077 0)
(0.225354 -0.00161227 0)
(0.224816 0.00241248 0)
(0.224531 0.00652519 0)
(0.224506 0.0106965 0)
(0.224747 0.0148965 0)
(0.225255 0.0190946 0)
(0.22603 0.0232597 0)
(0.227069 0.0273599 0)
(0.228367 0.0313629 0)
(0.229914 0.0352355 0)
(0.2317 0.0389433 0)
(0.233711 0.0424518 0)
(0.235934 0.0457279 0)
(0.238359 0.0487371 0)
(0.240983 0.0514088 0)
(0.246335 -0.0126994 0)
(0.245306 -0.01017 0)
(0.244393 -0.00754417 0)
(0.243611 -0.00483225 0)
(0.242974 -0.00204574 0)
(0.242496 0.000802803 0)
(0.242187 0.00369989 0)
(0.242056 0.00663117 0)
(0.242109 0.00958162 0)
(0.242351 0.0125357 0)
(0.242784 0.0154776 0)
(0.24341 0.0183912 0)
(0.244226 0.0212605 0)
(0.245229 0.02407 0)
(0.246415 0.0268043 0)
(0.247776 0.0294486 0)
(0.249304 0.0319897 0)
(0.250986 0.0344193 0)
(0.252814 0.036729 0)
(0.254774 0.038867 0)
(0.256484 -0.00856702 0)
(0.255876 -0.00658959 0)
(0.255356 -0.00455009 0)
(0.254929 -0.00245483 0)
(0.254601 -0.000311143 0)
(0.254374 0.00187263 0)
(0.254253 0.00408734 0)
(0.254239 0.00632316 0)
(0.254335 0.00856972 0)
(0.254541 0.0108162 0)
(0.254858 0.0130516 0)
(0.255284 0.0152646 0)
(0.255818 0.017444 0)
(0.256458 0.0195784 0)
(0.257199 0.021657 0)
(0.258037 0.0236688 0)
(0.258967 0.0256037 0)
(0.259985 0.0274525 0)
(0.261087 0.0292072 0)
(0.262269 0.0308542 0)
(0.265605 -0.00603051 0)
(0.265221 -0.00443401 0)
(0.264897 -0.00280415 0)
(0.264635 -0.00114548 0)
(0.264441 0.000537145 0)
(0.264317 0.00223856 0)
(0.264267 0.00395335 0)
(0.264292 0.00567587 0)
(0.264395 0.00740031 0)
(0.264577 0.00912078 0)
(0.264837 0.0108313 0)
(0.265176 0.0125259 0)
(0.265592 0.0141988 0)
(0.266083 0.0158442 0)
(0.266648 0.0174565 0)
(0.267283 0.0190306 0)
(0.267984 0.0205614 0)
(0.268747 0.022046 0)
(0.269568 0.0234814 0)
(0.270442 0.0248499 0)
(0.272367 -0.00425216 0)
(0.272119 -0.00296382 0)
(0.271916 -0.00165399 0)
(0.271758 -0.000325651 0)
(0.271647 0.00101792 0)
(0.271586 0.0023732 0)
(0.271573 0.00373642 0)
(0.271611 0.00510366 0)
(0.2717 0.00647081 0)
(0.271839 0.00783368 0)
(0.27203 0.00918802 0)
(0.27227 0.0105295 0)
(0.27256 0.011854 0)
(0.272898 0.0131572 0)
(0.273283 0.014435 0)
(0.273714 0.0156836 0)
(0.274189 0.0168993 0)
(0.274706 0.0180789 0)
(0.275263 0.0192199 0)
(0.27586 0.020317 0)
(0.278304 -0.00315967 0)
(0.278147 -0.00210087 0)
(0.278021 -0.0010292 0)
(0.277927 5.31756e-05 0)
(0.277866 0.00114396 0)
(0.277839 0.00224078 0)
(0.277847 0.00334118 0)
(0.277891 0.00444265 0)
(0.277971 0.00554266 0)
(0.278087 0.00663862 0)
(0.278239 0.00772797 0)
(0.278427 0.00880816 0)
(0.27865 0.00987667 0)
(0.278908 0.0109311 0)
(0.279199 0.0119689 0)
(0.279523 0.0129879 0)
(0.279877 0.0139858 0)
(0.280261 0.0149612 0)
(0.280673 0.0159127 0)
(0.28111 0.0168329 0)
(0.282926 -0.00232063 0)
(0.28282 -0.00145109 0)
(0.282736 -0.000573232 0)
(0.282676 0.000311432 0)
(0.282639 0.00120128 0)
(0.282627 0.00209463 0)
(0.28264 0.00298972 0)
(0.282677 0.00388476 0)
(0.282739 0.0047779 0)
(0.282826 0.00566728 0)
(0.282938 0.00655103 0)
(0.283074 0.00742727 0)
(0.283235 0.00829416 0)
(0.283419 0.00914989 0)
(0.283627 0.00999269 0)
(0.283857 0.0108208 0)
(0.284109 0.0116327 0)
(0.284383 0.012427 0)
(0.284677 0.0132026 0)
(0.284992 0.0139569 0)
(0.286925 -0.00178507 0)
(0.286858 -0.00106536 0)
(0.286806 -0.000340245 0)
(0.286772 0.000389134 0)
(0.286753 0.00112161 0)
(0.286752 0.00185598 0)
(0.286768 0.00259102 0)
(0.286802 0.00332549 0)
(0.286853 0.00405814 0)
(0.286922 0.00478771 0)
(0.287008 0.00551294 0)
(0.287112 0.0062326 0)
(0.287232 0.00694545 0)
(0.28737 0.00765028 0)
(0.287523 0.00834592 0)
(0.287693 0.00903118 0)
(0.287877 0.00970498 0)
(0.288077 0.0103665 0)
(0.28829 0.0110152 0)
(0.288517 0.0116474 0)
(0.290111 -0.00135072 0)
(0.290065 -0.000758608 0)
(0.290031 -0.000162984 0)
(0.290008 0.000435323 0)
(0.289997 0.00103546 0)
(0.289998 0.00163654 0)
(0.290011 0.00223768 0)
(0.290037 0.00283796 0)
(0.290075 0.00343645 0)
(0.290125 0.00403224 0)
(0.290187 0.00462438 0)
(0.290261 0.00521197 0)
(0.290348 0.0057941 0)
(0.290445 0.00636986 0)
(0.290555 0.00693838 0)
(0.290675 0.00749881 0)
(0.290807 0.00805032 0)
(0.290949 0.00859228 0)
(0.291102 0.00912421 0)
(0.291265 0.00964448 0)
(0.292814 -0.00105335 0)
(0.292785 -0.000567792 0)
(0.292765 -7.98533e-05 0)
(0.292752 0.000409849 0)
(0.292748 0.000900682 0)
(0.292751 0.001392 0)
(0.292763 0.00188315 0)
(0.292784 0.00237348 0)
(0.292812 0.00286231 0)
(0.292849 0.00334899 0)
(0.292895 0.00383286 0)
(0.292948 0.00431325 0)
(0.29301 0.00478952 0)
(0.293079 0.00526103 0)
(0.293156 0.00572716 0)
(0.293241 0.00618726 0)
(0.293333 0.00664074 0)
(0.293432 0.00708721 0)
(0.293539 0.00752633 0)
(0.293651 0.00795626 0)
(0.294961 -0.000802355 0)
(0.294942 -0.0004109 0)
(0.294929 -1.78922e-05 0)
(0.294921 0.000376212 0)
(0.294918 0.000770943 0)
(0.294921 0.00116583 0)
(0.294929 0.00156038 0)
(0.294943 0.00195411 0)
(0.294963 0.00234654 0)
(0.294988 0.00273716 0)
(0.295019 0.0031255 0)
(0.295055 0.00351107 0)
(0.295097 0.00389338 0)
(0.295144 0.00427197 0)
(0.295196 0.00464638 0)
(0.295253 0.00501613 0)
(0.295315 0.00538079 0)
(0.295383 0.00574004 0)
(0.295455 0.00609367 0)
(0.295531 0.00644066 0)
(0.296714 -0.000613759 0)
(0.296703 -0.000304928 0)
(0.296696 4.9719e-06 0)
(0.296692 0.000315602 0)
(0.296691 0.000626619 0)
(0.296694 0.000937675 0)
(0.2967 0.00124842 0)
(0.296709 0.00155849 0)
(0.296723 0.00186754 0)
(0.296739 0.00217522 0)
(0.296759 0.00248116 0)
(0.296783 0.00278502 0)
(0.296809 0.00308645 0)
(0.296839 0.00338511 0)
(0.296873 0.00368065 0)
(0.296909 0.00397275 0)
(0.296948 0.00426107 0)
(0.296991 0.0045454 0)
(0.297036 0.00482564 0)
(0.297084 0.0051007 0)
(0.298047 -0.000447474 0)
(0.298041 -0.000214436 0)
(0.298036 1.92845e-05 0)
(0.298034 0.000253445 0)
(0.298033 0.000487801 0)
(0.298035 0.000722104 0)
(0.298038 0.000956103 0)
(0.298044 0.00118955 0)
(0.298052 0.00142218 0)
(0.298061 0.00165376 0)
(0.298073 0.00188403 0)
(0.298086 0.00211274 0)
(0.298102 0.00233965 0)
(0.298119 0.00256451 0)
(0.298139 0.00278708 0)
(0.29816 0.00300712 0)
(0.298183 0.0032244 0)
(0.298207 0.00343878 0)
(0.298234 0.00365021 0)
(0.298262 0.00385796 0)
(0.299037 -0.000308789 0)
(0.299034 -0.000145594 0)
(0.299032 1.80437e-05 0)
(0.299031 0.000181962 0)
(0.299031 0.000345995 0)
(0.299032 0.000509976 0)
(0.299034 0.000673738 0)
(0.299037 0.000837111 0)
(0.299041 0.000999927 0)
(0.299046 0.00116202 0)
(0.299051 0.00132321 0)
(0.299058 0.00148335 0)
(0.299066 0.00164226 0)
(0.299074 0.00179978 0)
(0.299083 0.00195574 0)
(0.299093 0.00210999 0)
(0.299104 0.00226236 0)
(0.299116 0.00241277 0)
(0.299129 0.00256119 0)
(0.299142 0.00270693 0)
(0.299682 -0.00017945 0)
(0.299681 -8.29758e-05 0)
(0.29968 1.37324e-05 0)
(0.29968 0.000110581 0)
(0.299679 0.000207474 0)
(0.29968 0.000304314 0)
(0.29968 0.000401004 0)
(0.299681 0.000497446 0)
(0.299682 0.000593542 0)
(0.299683 0.000689196 0)
(0.299685 0.000784309 0)
(0.299687 0.000878785 0)
(0.299689 0.000972531 0)
(0.299692 0.00106545 0)
(0.299694 0.00115746 0)
(0.299697 0.00124845 0)
(0.2997 0.00133833 0)
(0.299704 0.00142706 0)
(0.299707 0.00151468 0)
(0.29971 0.00160094 0)
(0.299989 -5.99198e-05 0)
(0.299989 -2.77364e-05 0)
(0.299989 4.53104e-06 0)
(0.299989 3.68502e-05 0)
(0.299989 6.91947e-05 0)
(0.29999 0.000101535 0)
(0.29999 0.000133841 0)
(0.29999 0.000166083 0)
(0.29999 0.000198233 0)
(0.29999 0.000230263 0)
(0.29999 0.000262145 0)
(0.29999 0.000293854 0)
(0.29999 0.000325365 0)
(0.29999 0.000356657 0)
(0.29999 0.000387709 0)
(0.299989 0.000418498 0)
(0.299989 0.000449014 0)
(0.299989 0.000479322 0)
(0.299989 0.000509537 0)
(0.299989 0.000539113 0)
(0.279952 -0.091639 0)
(0.278454 -0.0943478 0)
(0.277026 -0.0974572 0)
(0.275744 -0.101075 0)
(0.274695 -0.105291 0)
(0.273958 -0.110178 0)
(0.273584 -0.115791 0)
(0.273567 -0.122155 0)
(0.273816 -0.129247 0)
(0.274123 -0.136982 0)
(0.274135 -0.145198 0)
(0.273349 -0.153647 0)
(0.271112 -0.16199 0)
(0.266649 -0.169796 0)
(0.259103 -0.176541 0)
(0.247572 -0.181645 0)
(0.231161 -0.184573 0)
(0.209011 -0.184872 0)
(0.180265 -0.181477 0)
(0.143918 -0.170906 0)
(0.274805 -0.072248 0)
(0.272493 -0.0727184 0)
(0.269837 -0.0732102 0)
(0.266834 -0.0736883 0)
(0.263487 -0.0741919 0)
(0.259809 -0.0747763 0)
(0.255834 -0.0755058 0)
(0.251621 -0.076455 0)
(0.247251 -0.0777027 0)
(0.242816 -0.0793219 0)
(0.238406 -0.0813655 0)
(0.234082 -0.0838491 0)
(0.229837 -0.0867314 0)
(0.22557 -0.0898946 0)
(0.221058 -0.0931282 0)
(0.215951 -0.0961197 0)
(0.2098 -0.0984478 0)
(0.202099 -0.0995421 0)
(0.19237 -0.0986122 0)
(0.180448 -0.0947722 0)
(0.272799 -0.0713482 0)
(0.2713 -0.0720723 0)
(0.269688 -0.0727455 0)
(0.267935 -0.0733683 0)
(0.265999 -0.0739081 0)
(0.263829 -0.0743304 0)
(0.261365 -0.0746035 0)
(0.258546 -0.0746988 0)
(0.255314 -0.0745929 0)
(0.251619 -0.0742699 0)
(0.247426 -0.0737231 0)
(0.242727 -0.0729537 0)
(0.237542 -0.0719671 0)
(0.231922 -0.0707668 0)
(0.225948 -0.0693447 0)
(0.219728 -0.0676694 0)
(0.213379 -0.0656724 0)
(0.207025 -0.0632357 0)
(0.20079 -0.060192 0)
(0.194825 -0.0563634 0)
(0.268929 -0.0544883 0)
(0.266886 -0.0544676 0)
(0.264769 -0.054452 0)
(0.262587 -0.0544168 0)
(0.260348 -0.0543598 0)
(0.258063 -0.0542742 0)
(0.255744 -0.0541463 0)
(0.253395 -0.0539558 0)
(0.25102 -0.0536764 0)
(0.248613 -0.0532756 0)
(0.246164 -0.0527155 0)
(0.243654 -0.0519545 0)
(0.241058 -0.050949 0)
(0.238351 -0.0496566 0)
(0.235508 -0.0480385 0)
(0.232512 -0.0460617 0)
(0.229362 -0.043701 0)
(0.226076 -0.0409398 0)
(0.222695 -0.0377719 0)
(0.219291 -0.0342037 0)
(0.27224 -0.0488884 0)
(0.270823 -0.0484784 0)
(0.269311 -0.0479828 0)
(0.267703 -0.0474056 0)
(0.265994 -0.0467402 0)
(0.264181 -0.0459806 0)
(0.262263 -0.0451225 0)
(0.260242 -0.0441627 0)
(0.258122 -0.0430981 0)
(0.255913 -0.0419255 0)
(0.253628 -0.0406412 0)
(0.251284 -0.0392399 0)
(0.248903 -0.0377141 0)
(0.246507 -0.036054 0)
(0.244122 -0.034247 0)
(0.241774 -0.0322784 0)
(0.239489 -0.0301321 0)
(0.237291 -0.0277919 0)
(0.235204 -0.0252442 0)
(0.233251 -0.0224794 0)
(0.273003 -0.039185 0)
(0.271705 -0.0387005 0)
(0.270393 -0.0381707 0)
(0.269067 -0.0375866 0)
(0.267729 -0.0369415 0)
(0.266381 -0.0362283 0)
(0.265025 -0.0354389 0)
(0.263661 -0.0345652 0)
(0.26229 -0.0335985 0)
(0.260913 -0.0325306 0)
(0.259531 -0.0313535 0)
(0.258144 -0.03006 0)
(0.256754 -0.0286442 0)
(0.255364 -0.0271013 0)
(0.25398 -0.0254284 0)
(0.252607 -0.0236239 0)
(0.251256 -0.0216883 0)
(0.249939 -0.0196236 0)
(0.248668 -0.0174335 0)
(0.247461 -0.0151232 0)
(0.276723 -0.0334883 0)
(0.275749 -0.0328339 0)
(0.274745 -0.0321233 0)
(0.273714 -0.031359 0)
(0.272657 -0.0305391 0)
(0.271576 -0.0296619 0)
(0.270477 -0.0287257 0)
(0.269361 -0.0277292 0)
(0.268236 -0.026671 0)
(0.267106 -0.0255494 0)
(0.265979 -0.0243626 0)
(0.264861 -0.023109 0)
(0.263759 -0.0217865 0)
(0.262682 -0.0203933 0)
(0.261638 -0.0189275 0)
(0.260634 -0.0173877 0)
(0.259678 -0.0157727 0)
(0.258778 -0.0140822 0)
(0.257941 -0.0123166 0)
(0.257174 -0.0104773 0)
(0.279347 -0.0276514 0)
(0.27857 -0.0270347 0)
(0.27779 -0.0263775 0)
(0.277011 -0.0256792 0)
(0.276232 -0.0249372 0)
(0.275455 -0.0241489 0)
(0.274683 -0.0233123 0)
(0.273916 -0.0224254 0)
(0.273156 -0.0214864 0)
(0.272406 -0.0204939 0)
(0.271668 -0.0194468 0)
(0.270943 -0.0183442 0)
(0.270235 -0.0171859 0)
(0.269546 -0.015972 0)
(0.268881 -0.0147031 0)
(0.268243 -0.0133804 0)
(0.267635 -0.0120053 0)
(0.267063 -0.0105801 0)
(0.26653 -0.00910716 0)
(0.266043 -0.0075895 0)
(0.282685 -0.0233479 0)
(0.282093 -0.0227192 0)
(0.281496 -0.0220555 0)
(0.280895 -0.0213589 0)
(0.280292 -0.0206285 0)
(0.27969 -0.0198637 0)
(0.279089 -0.0190642 0)
(0.278492 -0.0182298 0)
(0.277902 -0.0173602 0)
(0.277321 -0.0164552 0)
(0.276752 -0.015515 0)
(0.276198 -0.0145393 0)
(0.275662 -0.0135285 0)
(0.275147 -0.0124827 0)
(0.274656 -0.0114025 0)
(0.274191 -0.0102885 0)
(0.273756 -0.00914162 0)
(0.273354 -0.00796294 0)
(0.272987 -0.00675393 0)
(0.272657 -0.00551632 0)
(0.28548 -0.0195442 0)
(0.28503 -0.0189762 0)
(0.284582 -0.0183813 0)
(0.284138 -0.0177608 0)
(0.283698 -0.0171138 0)
(0.283264 -0.0164397 0)
(0.282836 -0.0157381 0)
(0.282416 -0.0150088 0)
(0.282005 -0.0142516 0)
(0.281604 -0.0134666 0)
(0.281215 -0.0126539 0)
(0.280839 -0.0118139 0)
(0.280478 -0.010947 0)
(0.280132 -0.0100539 0)
(0.279805 -0.00913547 0)
(0.279496 -0.00819264 0)
(0.279209 -0.0072266 0)
(0.278945 -0.00623871 0)
(0.278704 -0.00523046 0)
(0.278491 -0.00420351 0)
(0.288244 -0.0164501 0)
(0.287905 -0.015925 0)
(0.287568 -0.0153786 0)
(0.287232 -0.0148125 0)
(0.2869 -0.0142262 0)
(0.286573 -0.0136198 0)
(0.28625 -0.0129933 0)
(0.285933 -0.0123468 0)
(0.285624 -0.0116807 0)
(0.285324 -0.010995 0)
(0.285033 -0.0102902 0)
(0.284753 -0.00956675 0)
(0.284485 -0.00882501 0)
(0.284231 -0.00806559 0)
(0.283991 -0.00728912 0)
(0.283768 -0.00649634 0)
(0.283561 -0.0056881 0)
(0.283373 -0.00486531 0)
(0.283203 -0.00402903 0)
(0.283054 -0.00318039 0)
(0.290631 -0.0137903 0)
(0.290382 -0.013329 0)
(0.290135 -0.0128511 0)
(0.289893 -0.0123578 0)
(0.289654 -0.0118489 0)
(0.28942 -0.0113244 0)
(0.289191 -0.0107842 0)
(0.288968 -0.0102286 0)
(0.288752 -0.00965774 0)
(0.288542 -0.00907191 0)
(0.288341 -0.00847144 0)
(0.288149 -0.00785675 0)
(0.287966 -0.00722829 0)
(0.287793 -0.00658663 0)
(0.287631 -0.00593236 0)
(0.28748 -0.00526618 0)
(0.287342 -0.00458884 0)
(0.287217 -0.00390115 0)
(0.287105 -0.00320399 0)
(0.287008 -0.0024983 0)
(0.292784 -0.0115076 0)
(0.292602 -0.0111023 0)
(0.292422 -0.0106842 0)
(0.292245 -0.0102543 0)
(0.292071 -0.00981256 0)
(0.291901 -0.009359 0)
(0.291734 -0.0088938 0)
(0.291572 -0.00841719 0)
(0.291415 -0.00792943 0)
(0.291264 -0.00743081 0)
(0.291118 -0.00692165 0)
(0.290979 -0.00640232 0)
(0.290848 -0.00587322 0)
(0.290724 -0.0053348 0)
(0.290608 -0.00478754 0)
(0.290501 -0.00423197 0)
(0.290403 -0.00366865 0)
(0.290314 -0.0030982 0)
(0.290236 -0.00252126 0)
(0.290168 -0.00193853 0)
(0.294622 -0.00951536 0)
(0.294495 -0.00917051 0)
(0.294369 -0.00881567 0)
(0.294247 -0.00845176 0)
(0.294126 -0.00807873 0)
(0.294009 -0.00769659 0)
(0.293895 -0.00730552 0)
(0.293784 -0.00690569 0)
(0.293677 -0.00649735 0)
(0.293575 -0.00608073 0)
(0.293477 -0.00565611 0)
(0.293384 -0.00522381 0)
(0.293296 -0.00478416 0)
(0.293213 -0.00433753 0)
(0.293136 -0.00388434 0)
(0.293066 -0.003425 0)
(0.293002 -0.00295999 0)
(0.292944 -0.00248979 0)
(0.292893 -0.00201492 0)
(0.29285 -0.00153592 0)
(0.296188 -0.00773687 0)
(0.296101 -0.00744812 0)
(0.296016 -0.00715176 0)
(0.295932 -0.00684855 0)
(0.29585 -0.00653845 0)
(0.29577 -0.00622151 0)
(0.295692 -0.00589789 0)
(0.295617 -0.00556778 0)
(0.295544 -0.00523139 0)
(0.295474 -0.00488892 0)
(0.295408 -0.00454062 0)
(0.295345 -0.00418673 0)
(0.295285 -0.00382754 0)
(0.295229 -0.00346334 0)
(0.295177 -0.00309445 0)
(0.29513 -0.00272119 0)
(0.295086 -0.00234392 0)
(0.295048 -0.001963 0)
(0.295014 -0.00157883 0)
(0.294985 -0.00119181 0)
(0.297473 -0.00613517 0)
(0.297418 -0.00590234 0)
(0.297364 -0.00566371 0)
(0.297311 -0.00541996 0)
(0.29726 -0.00517106 0)
(0.29721 -0.00491704 0)
(0.297161 -0.00465801 0)
(0.297114 -0.00439414 0)
(0.297069 -0.00412558 0)
(0.297026 -0.0038525 0)
(0.296985 -0.00357509 0)
(0.296946 -0.00329355 0)
(0.296909 -0.00300809 0)
(0.296875 -0.00271895 0)
(0.296844 -0.00242636 0)
(0.296815 -0.00213059 0)
(0.296788 -0.0018319 0)
(0.296765 -0.00153057 0)
(0.296745 -0.0012269 0)
(0.296728 -0.000921191 0)
(0.298491 -0.00465257 0)
(0.298459 -0.0044731 0)
(0.298427 -0.00428942 0)
(0.298396 -0.00410207 0)
(0.298366 -0.003911 0)
(0.298337 -0.00371626 0)
(0.298309 -0.00351793 0)
(0.298281 -0.00331616 0)
(0.298255 -0.00311105 0)
(0.29823 -0.00290274 0)
(0.298205 -0.00269138 0)
(0.298183 -0.00247711 0)
(0.298161 -0.0022601 0)
(0.298141 -0.00204052 0)
(0.298123 -0.00181854 0)
(0.298106 -0.00159436 0)
(0.29809 -0.00136816 0)
(0.298077 -0.00114016 0)
(0.298065 -0.000910566 0)
(0.298055 -0.000679595 0)
(0.299247 -0.00326598 0)
(0.299232 -0.00313912 0)
(0.299216 -0.00300928 0)
(0.299202 -0.00287694 0)
(0.299187 -0.00274208 0)
(0.299173 -0.0026047 0)
(0.29916 -0.00246488 0)
(0.299147 -0.00232272 0)
(0.299134 -0.0021783 0)
(0.299122 -0.00203171 0)
(0.299111 -0.00188305 0)
(0.2991 -0.00173243 0)
(0.29909 -0.00157995 0)
(0.29908 -0.00142575 0)
(0.299072 -0.00126993 0)
(0.299064 -0.00111263 0)
(0.299057 -0.000953982 0)
(0.29905 -0.000794128 0)
(0.299045 -0.00063321 0)
(0.29904 -0.00047138 0)
(0.299748 -0.0019346 0)
(0.299744 -0.00185883 0)
(0.299739 -0.00178147 0)
(0.299735 -0.00170269 0)
(0.299731 -0.00162242 0)
(0.299727 -0.00154069 0)
(0.299722 -0.00145754 0)
(0.299718 -0.00137304 0)
(0.299714 -0.00128722 0)
(0.29971 -0.00120016 0)
(0.299707 -0.00111191 0)
(0.299703 -0.00102253 0)
(0.2997 -0.000932087 0)
(0.299697 -0.000840658 0)
(0.299694 -0.000748312 0)
(0.299691 -0.000655125 0)
(0.299689 -0.000561177 0)
(0.299686 -0.00046655 0)
(0.299685 -0.000371329 0)
(0.299683 -0.000275598 0)
(0.299989 -0.000648932 0)
(0.299989 -0.00062303 0)
(0.29999 -0.000596449 0)
(0.29999 -0.000569628 0)
(0.29999 -0.000542463 0)
(0.29999 -0.00051489 0)
(0.29999 -0.000486907 0)
(0.29999 -0.000458524 0)
(0.29999 -0.00042975 0)
(0.29999 -0.000400596 0)
(0.29999 -0.000371073 0)
(0.29999 -0.000341199 0)
(0.29999 -0.00031099 0)
(0.29999 -0.000280466 0)
(0.29999 -0.000249648 0)
(0.29999 -0.000218559 0)
(0.29999 -0.000187222 0)
(0.29999 -0.000155663 0)
(0.299989 -0.000123907 0)
(0.299989 -9.19839e-05 0)
(0.0661947 -0.104906 0)
(0.0421822 -0.0805885 0)
(0.0286509 -0.0608518 0)
(0.0202027 -0.0461622 0)
(0.0145425 -0.0348759 0)
(0.010568 -0.0259875 0)
(0.00768483 -0.0189645 0)
(0.00554286 -0.0134427 0)
(0.00392282 -0.0091393 0)
(0.00268115 -0.0058333 0)
(0.0017204 -0.00334992 0)
(0.000972658 -0.0015475 0)
(0.000390093 -0.000308394 0)
(-6.04935e-05 0.000466176 0)
(-0.000400698 0.000866106 0)
(-0.000639253 0.00097675 0)
(-0.0007719 0.000864274 0)
(-0.000788647 0.000600092 0)
(-0.000658261 0.000289893 0)
(-0.000321384 6.91114e-05 0)
(0.116161 -0.11667 0)
(0.0911474 -0.101884 0)
(0.072772 -0.0865597 0)
(0.0587006 -0.0726856 0)
(0.0475609 -0.0602465 0)
(0.0385418 -0.0492076 0)
(0.0311222 -0.0395637 0)
(0.0249473 -0.0312626 0)