x,y,z,p
0,0,0,2.32622e-05
0,0.1,0,4.16734e-05
0,0.2,0,6.00847e-05
0,0.3,0,7.8496e-05
0,0.4,0,0.00010015
0,0.5,0,0.000125046
0,0.6,0,0.000149942
0,0.7,0,0.000174838
0,0.8,0,0.000199418
0,0.9,0,0.000223998
0,1,0,0.000248578
0,1.1,0,0.000272921
0,1.2,0,0.000297028
0,1.3,0,0.000321135
0,1.4,0,0.000345243
0,1.5,0,0.000368724
0,1.6,0,0.000392206
0,1.7,0,0.000415688
0,1.8,0,0.000438782
0,1.9,0,0.000461489
0,2,0,0.000484196
0,2.1,0,0.000506903
0,2.2,0,0.000528687
0,2.3,0,0.000550472
0,2.4,0,0.000572257
0,2.5,0,0.00059351
0,2.6,0,0.000614231
0,2.7,0,0.000634952
0,2.8,0,0.000655674
0,2.9,0,0.000675195
0,3,0,0.000694716
0,3.1,0,0.000714237
0,3.2,0,0.000733094
0,3.3,0,0.000751285
0,3.4,0,0.000769476
0,3.5,0,0.000787668
0,3.6,0,0.000804404
0,3.7,0,0.000821141
0,3.8,0,0.000837878
0,3.9,0,0.000853828
0,4,0,0.000868991
0,4.1,0,0.000884155
0,4.2,0,0.000899318
0,4.3,0,0.000912792
0,4.4,0,0.000926266
0,4.5,0,0.00093974
0,4.6,0,0.000952312
0,4.7,0,0.000963981
0,4.8,0,0.00097565
0,4.9,0,0.000987319
0,5,0,0.000997064
0,5.1,0,0.00100681
0,5.2,0,0.00101655
0,5.3,0,0.00102527
0,5.4,0,0.00103297
0,5.5,0,0.00104066
0,5.6,0,0.00104835
0,5.7,0,0.00105386
0,5.8,0,0.00105937
0,5.9,0,0.00106487
0,6,0,0.00106922
0,6.1,0,0.00107241
0,6.2,0,0.00107559
0,6.3,0,0.00107878
0,6.4,0,0.00107942
0,6.5,0,0.00108006
0,6.6,0,0.0010807
0,6.7,0,0.00108036
0,6.8,0,0.00107904
0,6.9,0,0.00107773
0,7,0,0.00107641
0,7.1,0,0.00107133
0,7.2,0,0.00106716
0,7.3,0,0.00106232
0,7.4,0,0.00105684
0,7.5,0,0.00105072
0,7.6,0,0.00104394
0,7.7,0,0.00103651
0,7.8,0,0.00102844
0,7.9,0,0.00101969
0,8,0,0.00100694
0,8.1,0,0.000997721
0,8.2,0,0.000988501
0,8.3,0,0.000977407
0,8.4,0,0.000965304
0,8.5,0,0.000952728
0,8.6,0,0.000939052
0,8.7,0,0.000925375
0,8.8,0,0.000910272
0,8.9,0,0.000895093
0,9,0,0.000879068
0,9.1,0,0.000862478
0,9.2,0,0.000845554
0,9.3,0,0.000827632
0,9.4,0,0.00080971
0,9.5,0,0.000790661
0,9.6,0,0.000771487
0,9.7,0,0.000751668
0,9.8,0,0.000731322
0,9.9,0,0.000710759
0,10,0,0.000689324
0,10.1,0,0.000667889
0,10.2,0,0.000645599
0,10.3,0,0.000623159
0,10.4,0,0.000600257
0,10.5,0,0.000576895
0,10.6,0,0.000553407
0,10.7,0,0.00052921
0,10.8,0,0.000505012
0,10.9,0,0.000480216
0,11,0,0.000455271
0,11.1,0,0.00043003
0,11.2,0,0.000404427
0,11.3,0,0.000378766
0,11.4,0,0.000352595
0,11.5,0,0.000326424
0,11.6,0,0.000299897
0,11.7,0,0.00027325
0,11.8,0,0.00024645
0,11.9,0,0.000219421
0,12,0,0.000192377
0,12.1,0,0.000165058
0,12.2,0,0.000137739
0,12.3,0,0.000110285
0,12.4,0,8.27732e-05
0,12.5,0,5.78251e-05
0,12.6,0,3.76378e-05
0,12.7,0,1.74505e-05
0.1,0,0,1.96834e-05
0.1,0.1,0,3.81179e-05
0.1,0.2,0,5.65292e-05
0.1,0.3,0,7.52059e-05
0.1,0.4,0,0.00010022
0.1,0.5,0,0.00012511
0.1,0.6,0,0.000150006
0.1,0.7,0,0.000175158
0.1,0.8,0,0.000199524
0.1,0.9,0,0.000224104
0.1,1,0,0.000248711
0.1,1.1,0,0.000273093
0.1,1.2,0,0.000297176
0.1,1.3,0,0.000321283
0.1,1.4,0,0.000345891
0.1,1.5,0,0.000368913
0.1,1.6,0,0.000392395
0.1,1.7,0,0.000415922
0.1,1.8,0,0.000439053
0.1,1.9,0,0.000461718
0.1,2,0,0.000484424
0.1,2.1,0,0.000507893
0.1,2.2,0,0.000528955
0.1,2.3,0,0.00055074
0.1,2.4,0,0.000572588
0.1,2.5,0,0.000593876
0.1,2.6,0,0.000614536
0.1,2.7,0,0.000635257
0.1,2.8,0,0.000656993
0.1,2.9,0,0.000675536
0.1,3,0,0.000695057
0.1,3.1,0,0.000714658
0.1,3.2,0,0.000733546
0.1,3.3,0,0.00075166
0.1,3.4,0,0.000769851
0.1,3.5,0,0.000789243
0.1,3.6,0,0.000804812
0.1,3.7,0,0.000821549
0.1,3.8,0,0.000838375
0.1,3.9,0,0.000854354
0.1,4,0,0.000869431
0.1,4.1,0,0.000884594
0.1,4.2,0,0.000900986
0.1,4.3,0,0.000913262
0.1,4.4,0,0.000926736
0.1,4.5,0,0.000940293
0.1,4.6,0,0.000952894
0.1,4.7,0,0.000964482
0.1,4.8,0,0.000976151
0.1,4.9,0,0.000988842
0.1,5,0,0.000997598
0.1,5.1,0,0.00100734
0.1,5.2,0,0.00101715
0.1,5.3,0,0.0010259
0.1,5.4,0,0.00103354
0.1,5.5,0,0.00104123
0.1,5.6,0,0.00104952
0.1,5.7,0,0.00105447
0.1,5.8,0,0.00105998
0.1,5.9,0,0.00106551
0.1,6,0,0.00106988
0.1,6.1,0,0.00107304
0.1,6.2,0,0.00107623
0.1,6.3,0,0.00107957
0.1,6.4,0,0.00108015
0.1,6.5,0,0.00108079
0.1,6.6,0,0.00108143
0.1,6.7,0,0.00108071
0.1,6.8,0,0.00107936
0.1,6.9,0,0.00107804
0.1,7,0,0.00107714
0.1,7.1,0,0.001072
0.1,7.2,0,0.00106785
0.1,7.3,0,0.00106303
0.1,7.4,0,0.00105756
0.1,7.5,0,0.00105144
0.1,7.6,0,0.00104466
0.1,7.7,0,0.00103722
0.1,7.8,0,0.00102913
0.1,7.9,0,0.00102037
0.1,8,0,0.00100763
0.1,8.1,0,0.000998476
0.1,8.2,0,0.000989254
0.1,8.3,0,0.000977695
0.1,8.4,0,0.000965592
0.1,8.5,0,0.000953075
0.1,8.6,0,0.000939332
0.1,8.7,0,0.000926004
0.1,8.8,0,0.000910534
0.1,8.9,0,0.000895356
0.1,9,0,0.000879316
0.1,9.1,0,0.000862726
0.1,9.2,0,0.000845959
0.1,9.3,0,0.000827866
0.1,9.4,0,0.000810392
0.1,9.5,0,0.00079088
0.1,9.6,0,0.000771706
0.1,9.7,0,0.000751872
0.1,9.8,0,0.000731526
0.1,9.9,0,0.000711297
0.1,10,0,0.000689513
0.1,10.1,0,0.000668558
0.1,10.2,0,0.000645774
0.1,10.3,0,0.000623333
0.1,10.4,0,0.000600416
0.1,10.5,0,0.000577054
0.1,10.6,0,0.000554067
0.1,10.7,0,0.000529353
0.1,10.8,0,0.000505537
0.1,10.9,0,0.000480343
0.1,11,0,0.000455398
0.1,11.1,0,0.000430141
0.1,11.2,0,0.000404537
0.1,11.3,0,0.000379419
0.1,11.4,0,0.00035269
0.1,11.5,0,0.000326725
0.1,11.6,0,0.000299974
0.1,11.7,0,0.000273328
0.1,11.8,0,0.000246511
0.1,11.9,0,0.000219481
0.1,12,0,0.000192813
0.1,12.1,0,0.000165101
0.1,12.2,0,0.000137833
0.1,12.3,0,0.000110311
0.1,12.4,0,8.2799e-05
0.1,12.5,0,5.52421e-05
0.1,12.6,0,3.49638e-05
0.1,12.7,0,1.47658e-05
0.2,0,0,1.61046e-05
0.2,0.1,0,3.4559e-05
0.2,0.2,0,5.29736e-05
0.2,0.3,0,7.53666e-05
0.2,0.4,0,0.000100381
0.2,0.5,0,0.000125173
0.2,0.6,0,0.000150106
0.2,0.7,0,0.000175479
0.2,0.8,0,0.000199662
0.2,0.9,0,0.000224211
0.2,1,0,0.000249194
0.2,1.1,0,0.000273576
0.2,1.2,0,0.000297324
0.2,1.3,0,0.000321503
0.2,1.4,0,0.00034654
0.2,1.5,0,0.000369167
0.2,1.6,0,0.000392584
0.2,1.7,0,0.00041674
0.2,1.8,0,0.000439872
0.2,1.9,0,0.000461946
0.2,2,0,0.000484762
0.2,2.1,0,0.000508883
0.2,2.2,0,0.000529326
0.2,2.3,0,0.000551008
0.2,2.4,0,0.000573748
0.2,2.5,0,0.000595036
0.2,2.6,0,0.000614841
0.2,2.7,0,0.000635707
0.2,2.8,0,0.000658313
0.2,2.9,0,0.000676017
0.2,3,0,0.000695398
0.2,3.1,0,0.000716121
0.2,3.2,0,0.000735009
0.2,3.3,0,0.000752035
0.2,3.4,0,0.000770398
0.2,3.5,0,0.000790819
0.2,3.6,0,0.000805387
0.2,3.7,0,0.000821957
0.2,3.8,0,0.000840023
0.2,3.9,0,0.000856002
0.2,4,0,0.00086987
0.2,4.1,0,0.000885209
0.2,4.2,0,0.000902655
0.2,4.3,0,0.000913904
0.2,4.4,0,0.000927207
0.2,4.5,0,0.00094192
0.2,4.6,0,0.000954521
0.2,4.7,0,0.000964984
0.2,4.8,0,0.000976799
0.2,4.9,0,0.000990364
0.2,5,0,0.000998274
0.2,5.1,0,0.00100788
0.2,5.2,0,0.00101851
0.2,5.3,0,0.00102726
0.2,5.4,0,0.0010341
0.2,5.5,0,0.00104188
0.2,5.6,0,0.00105068
0.2,5.7,0,0.00105516
0.2,5.8,0,0.00106058
0.2,5.9,0,0.00106647
0.2,6,0,0.00107084
0.2,6.1,0,0.00107368
0.2,6.2,0,0.00107689
0.2,6.3,0,0.00108036
0.2,6.4,0,0.00108089
0.2,6.5,0,0.00108152
0.2,6.6,0,0.00108218
0.2,6.7,0,0.00108146
0.2,6.8,0,0.00107968
0.2,6.9,0,0.00107842
0.2,7,0,0.00107787
0.2,7.1,0,0.00107268
0.2,7.2,0,0.00106854
0.2,7.3,0,0.00106375
0.2,7.4,0,0.00105829
0.2,7.5,0,0.00105217
0.2,7.6,0,0.00104538
0.2,7.7,0,0.00103793
0.2,7.8,0,0.00102982
0.2,7.9,0,0.00102105
0.2,8,0,0.00100832
0.2,8.1,0,0.00099923
0.2,8.2,0,0.000989951
0.2,8.3,0,0.000978066
0.2,8.4,0,0.000965904
0.2,8.5,0,0.000953748
0.2,8.6,0,0.000939613
0.2,8.7,0,0.000926689
0.2,8.8,0,0.000910797
0.2,8.9,0,0.000896035
0.2,9,0,0.000879727
0.2,9.1,0,0.000862973
0.2,9.2,0,0.000846747
0.2,9.3,0,0.0008281
0.2,9.4,0,0.000811245
0.2,9.5,0,0.000791099
0.2,9.6,0,0.000772451
0.2,9.7,0,0.000752417
0.2,9.8,0,0.000731731
0.2,9.9,0,0.000712267
0.2,10,0,0.000689702
0.2,10.1,0,0.000669568
0.2,10.2,0,0.000645948
0.2,10.3,0,0.000624035
0.2,10.4,0,0.000601112
0.2,10.5,0,0.000577213
0.2,10.6,0,0.000555093
0.2,10.7,0,0.000529496
0.2,10.8,0,0.000506536
0.2,10.9,0,0.000480471
0.2,11,0,0.000455917
0.2,11.1,0,0.000430882
0.2,11.2,0,0.000404648
0.2,11.3,0,0.000380286
0.2,11.4,0,0.000352784
0.2,11.5,0,0.000327489
0.2,11.6,0,0.000300052
0.2,11.7,0,0.000273597
0.2,11.8,0,0.00024709
0.2,11.9,0,0.000219542
0.2,12,0,0.000193312
0.2,12.1,0,0.000165145
0.2,12.2,0,0.000138177
0.2,12.3,0,0.000110357
0.2,12.4,0,8.28552e-05
0.2,12.5,0,5.54177e-05
0.2,12.6,0,3.22899e-05
0.2,12.7,0,1.20811e-05
0.3,0,0,1.25258e-05
0.3,0.1,0,3.09802e-05
0.3,0.2,0,5.02144e-05
0.3,0.3,0,7.55273e-05
0.3,0.4,0,0.000100542
0.3,0.5,0,0.000125258
0.3,0.6,0,0.000150427
0.3,0.7,0,0.000175799
0.3,0.8,0,0.000199982
0.3,0.9,0,0.000224398
0.3,1,0,0.000249676
0.3,1.1,0,0.000274058
0.3,1.2,0,0.000297544
0.3,1.3,0,0.000322152
0.3,1.4,0,0.000347189
0.3,1.5,0,0.000369816
0.3,1.6,0,0.000392907
0.3,1.7,0,0.000417559
0.3,1.8,0,0.000440691
0.3,1.9,0,0.000462302
0.3,2,0,0.000485752
0.3,2.1,0,0.000509873
0.3,2.2,0,0.000530316
0.3,2.3,0,0.000551466
0.3,2.4,0,0.000574908
0.3,2.5,0,0.000596195
0.3,2.6,0,0.00061533
0.3,2.7,0,0.000637027
0.3,2.8,0,0.000659633
0.3,2.9,0,0.000677337
0.3,3,0,0.000695979
0.3,3.1,0,0.000717583
0.3,3.2,0,0.000736471
0.3,3.3,0,0.000752643
0.3,3.4,0,0.000771974
0.3,3.5,0,0.000792395
0.3,3.6,0,0.000806963
0.3,3.7,0,0.000822631
0.3,3.8,0,0.000841671
0.3,3.9,0,0.000857651
0.3,4,0,0.000870568
0.3,4.1,0,0.000886877
0.3,4.2,0,0.000904323
0.3,4.3,0,0.000915572
0.3,4.4,0,0.000927925
0.3,4.5,0,0.000943547
0.3,4.6,0,0.000956148
0.3,4.7,0,0.000965727
0.3,4.8,0,0.000978321
0.3,4.9,0,0.000991887
0.3,5,0,0.000999797
0.3,5.1,0,0.00100859
0.3,5.2,0,0.00101987
0.3,5.3,0,0.00102862
0.3,5.4,0,0.00103484
0.3,5.5,0,0.00104305
0.3,5.6,0,0.00105185
0.3,5.7,0,0.00105632
0.3,5.8,0,0.00106127
0.3,5.9,0,0.00106743
0.3,6,0,0.0010718
0.3,6.1,0,0.00107439
0.3,6.2,0,0.00107768
0.3,6.3,0,0.00108115
0.3,6.4,0,0.00108168
0.3,6.5,0,0.00108226
0.3,6.6,0,0.00108293
0.3,6.7,0,0.00108221
0.3,6.8,0,0.00108009
0.3,6.9,0,0.00107915
0.3,7,0,0.0010786
0.3,7.1,0,0.00107335
0.3,7.2,0,0.00106923
0.3,7.3,0,0.00106446
0.3,7.4,0,0.00105901
0.3,7.5,0,0.00105289
0.3,7.6,0,0.0010461
0.3,7.7,0,0.00103864
0.3,7.8,0,0.00103052
0.3,7.9,0,0.00102172
0.3,8,0,0.00100901
0.3,8.1,0,0.00099997
0.3,8.2,0,0.000990648
0.3,8.3,0,0.000978763
0.3,8.4,0,0.000966577
0.3,8.5,0,0.000954421
0.3,8.6,0,0.000939932
0.3,8.7,0,0.000927374
0.3,8.8,0,0.000911217
0.3,8.9,0,0.000896763
0.3,9,0,0.000880455
0.3,9.1,0,0.000863721
0.3,9.2,0,0.000847534
0.3,9.3,0,0.000828333
0.3,9.4,0,0.000812097
0.3,9.5,0,0.000791642
0.3,9.6,0,0.000773367
0.3,9.7,0,0.000753333
0.3,9.8,0,0.000732538
0.3,9.9,0,0.000713237
0.3,10,0,0.000689892
0.3,10.1,0,0.000670577
0.3,10.2,0,0.000646664
0.3,10.3,0,0.000625064
0.3,10.4,0,0.000602141
0.3,10.5,0,0.000577934
0.3,10.6,0,0.00055612
0.3,10.7,0,0.000529639
0.3,10.8,0,0.000507534
0.3,10.9,0,0.000481284
0.3,11,0,0.000456862
0.3,11.1,0,0.000431827
0.3,11.2,0,0.000405145
0.3,11.3,0,0.000381152
0.3,11.4,0,0.000352878
0.3,11.5,0,0.000328253
0.3,11.6,0,0.000300765
0.3,11.7,0,0.000274238
0.3,11.8,0,0.000247731
0.3,11.9,0,0.000219766
0.3,12,0,0.000193811
0.3,12.1,0,0.000165233
0.3,12.2,0,0.00013852
0.3,12.3,0,0.0001107
0.3,12.4,0,8.30308e-05
0.3,12.5,0,5.55933e-05
0.3,12.6,0,2.96135e-05
0.3,12.7,0,9.39641e-06
0.4,0,0,8.94699e-06
0.4,0.1,0,2.74014e-05
0.4,0.2,0,5.03684e-05
0.4,0.3,0,7.5688e-05
0.4,0.4,0,0.000100702
0.4,0.5,0,0.000125492
0.4,0.6,0,0.000150747
0.4,0.7,0,0.00017612
0.4,0.8,0,0.000200303
0.4,0.9,0,0.000224942
0.4,1,0,0.000250159
0.4,1.1,0,0.000274541
0.4,1.2,0,0.00029817
0.4,1.3,0,0.0003228
0.4,1.4,0,0.000347837
0.4,1.5,0,0.000370465
0.4,1.6,0,0.000393857
0.4,1.7,0,0.000418378
0.4,1.8,0,0.000441509
0.4,1.9,0,0.000463338
0.4,2,0,0.000486743
0.4,2.1,0,0.000510864
0.4,2.2,0,0.000531307
0.4,2.3,0,0.000552832
0.4,2.4,0,0.000576067
0.4,2.5,0,0.000597355
0.4,2.6,0,0.000616779
0.4,2.7,0,0.000638347
0.4,2.8,0,0.000660953
0.4,2.9,0,0.000678656
0.4,3,0,0.000697721
0.4,3.1,0,0.000719045
0.4,3.2,0,0.000737933
0.4,3.3,0,0.000754449
0.4,3.4,0,0.00077355
0.4,3.5,0,0.000793971
0.4,3.6,0,0.000808539
0.4,3.7,0,0.000824613
0.4,3.8,0,0.00084332
0.4,3.9,0,0.000859299
0.4,4,0,0.000872568
0.4,4.1,0,0.000888546
0.4,4.2,0,0.000905991
0.4,4.3,0,0.00091724
0.4,4.4,0,0.000929894
0.4,4.5,0,0.000945175
0.4,4.6,0,0.000957775
0.4,4.7,0,0.000967646
0.4,4.8,0,0.000979844
0.4,4.9,0,0.00099341
0.4,5,0,0.00100132
0.4,5.1,0,0.00101023
0.4,5.2,0,0.00102123
0.4,5.3,0,0.00102998
0.4,5.4,0,0.00103638
0.4,5.5,0,0.00104421
0.4,5.6,0,0.00105301
0.4,5.7,0,0.00105749
0.4,5.8,0,0.00106239
0.4,5.9,0,0.00106839
0.4,6,0,0.00107276
0.4,6.1,0,0.0010754
0.4,6.2,0,0.00107847
0.4,6.3,0,0.00108194
0.4,6.4,0,0.00108247
0.4,6.5,0,0.00108303
0.4,6.6,0,0.00108368
0.4,6.7,0,0.00108296
0.4,6.8,0,0.00108096
0.4,6.9,0,0.00107988
0.4,7,0,0.00107933
0.4,7.1,0,0.00107403
0.4,7.2,0,0.00106993
0.4,7.3,0,0.00106517
0.4,7.4,0,0.00105974
0.4,7.5,0,0.00105362
0.4,7.6,0,0.00104683
0.4,7.7,0,0.00103935
0.4,7.8,0,0.00103121
0.4,7.9,0,0.0010224
0.4,8,0,0.0010097
0.4,8.1,0,0.00100065
0.4,8.2,0,0.000991344
0.4,8.3,0,0.000979459
0.4,8.4,0,0.00096725
0.4,8.5,0,0.000955094
0.4,8.6,0,0.000940776
0.4,8.7,0,0.000928059
0.4,8.8,0,0.000911961
0.4,8.9,0,0.000897491
0.4,9,0,0.000881184
0.4,9.1,0,0.000864508
0.4,9.2,0,0.000848322
0.4,9.3,0,0.00082946
0.4,9.4,0,0.00081295
0.4,9.5,0,0.000792495
0.4,9.6,0,0.000774283
0.4,9.7,0,0.000754249
0.4,9.8,0,0.000733508
0.4,9.9,0,0.000714207
0.4,10,0,0.000691284
0.4,10.1,0,0.000671586
0.4,10.2,0,0.000647674
0.4,10.3,0,0.000626093
0.4,10.4,0,0.00060317
0.4,10.5,0,0.000578961
0.4,10.6,0,0.000557146
0.4,10.7,0,0.000531088
0.4,10.8,0,0.000508532
0.4,10.9,0,0.000482282
0.4,11,0,0.000457807
0.4,11.1,0,0.000432772
0.4,11.2,0,0.000406011
0.4,11.3,0,0.000382018
0.4,11.4,0,0.000354075
0.4,11.5,0,0.000329018
0.4,11.6,0,0.000301529
0.4,11.7,0,0.000274878
0.4,11.8,0,0.000248371
0.4,11.9,0,0.00022034
0.4,12,0,0.000194311
0.4,12.1,0,0.000165853
0.4,12.2,0,0.000138864
0.4,12.3,0,0.000111044
0.4,12.4,0,8.32064e-05
0.4,12.5,0,5.57689e-05
0.4,12.6,0,2.76866e-05
0.4,12.7,0,6.71172e-06
0.5,0,0,5.36819e-06
0.5,0.1,0,2.51498e-05
0.5,0.2,0,5.05059e-05
0.5,0.3,0,7.58487e-05
0.5,0.4,0,0.000100863
0.5,0.5,0,0.000125909
0.5,0.6,0,0.000151102
0.5,0.7,0,0.00017644
0.5,0.8,0,0.000200757
0.5,0.9,0,0.000225638
0.5,1,0,0.000250641
0.5,1.1,0,0.000275023
0.5,1.2,0,0.000299153
0.5,1.3,0,0.000323569
0.5,1.4,0,0.000348486
0.5,1.5,0,0.000371339
0.5,1.6,0,0.000395136
0.5,1.7,0,0.000419197
0.5,1.8,0,0.000442328
0.5,1.9,0,0.000464918
0.5,2,0,0.000487944
0.5,2.1,0,0.000511854
0.5,2.2,0,0.000532615
0.5,2.3,0,0.000554715
0.5,2.4,0,0.000577227
0.5,2.5,0,0.000598514
0.5,2.6,0,0.000618953
0.5,2.7,0,0.000639972
0.5,2.8,0,0.000662273
0.5,2.9,0,0.000680377
0.5,3,0,0.000700163
0.5,3.1,0,0.000720508
0.5,3.2,0,0.000739396
0.5,3.3,0,0.000757112
0.5,3.4,0,0.000775514
0.5,3.5,0,0.000795547
0.5,3.6,0,0.000810558
0.5,3.7,0,0.000827429
0.5,3.8,0,0.000844968
0.5,3.9,0,0.000860947
0.5,4,0,0.000875445
0.5,4.1,0,0.000890646
0.5,4.2,0,0.00090766
0.5,4.3,0,0.000919322
0.5,4.4,0,0.00093272
0.5,4.5,0,0.000946802
0.5,4.6,0,0.000959403
0.5,4.7,0,0.000970294
0.5,4.8,0,0.000981769
0.5,4.9,0,0.000994932
0.5,5,0,0.00100314
0.5,5.1,0,0.00101258
0.5,5.2,0,0.00102259
0.5,5.3,0,0.00103134
0.5,5.4,0,0.00103833
0.5,5.5,0,0.00104566
0.5,5.6,0,0.00105417
0.5,5.7,0,0.00105877
0.5,5.8,0,0.0010639
0.5,5.9,0,0.00106935
0.5,6,0,0.00107372
0.5,6.1,0,0.00107651
0.5,6.2,0,0.00107938
0.5,6.3,0,0.00108273
0.5,6.4,0,0.00108327
0.5,6.5,0,0.00108384
0.5,6.6,0,0.00108443
0.5,6.7,0,0.00108371
0.5,6.8,0,0.00108212
0.5,6.9,0,0.00108077
0.5,7,0,0.00108006
0.5,7.1,0,0.0010747
0.5,7.2,0,0.00107062
0.5,7.3,0,0.00106588
0.5,7.4,0,0.00106046
0.5,7.5,0,0.00105435
0.5,7.6,0,0.00104755
0.5,7.7,0,0.00104007
0.5,7.8,0,0.0010319
0.5,7.9,0,0.00102308
0.5,8,0,0.00101039
0.5,8.1,0,0.00100128
0.5,8.2,0,0.000992041
0.5,8.3,0,0.000980271
0.5,8.4,0,0.000968101
0.5,8.5,0,0.000955767
0.5,8.6,0,0.000941853
0.5,8.7,0,0.000928744
0.5,8.8,0,0.000913112
0.5,8.9,0,0.000898219
0.5,9,0,0.000881998
0.5,9.1,0,0.000865572
0.5,9.2,0,0.00084911
0.5,9.3,0,0.000830867
0.5,9.4,0,0.000813803
0.5,9.5,0,0.000794037
0.5,9.6,0,0.000775199
0.5,9.7,0,0.000755181
0.5,9.8,0,0.000734985
0.5,9.9,0,0.000715177
0.5,10,0,0.000693075
0.5,10.1,0,0.000672596
0.5,10.2,0,0.000649411
0.5,10.3,0,0.000627123
0.5,10.4,0,0.0006042
0.5,10.5,0,0.000580728
0.5,10.6,0,0.000558172
0.5,10.7,0,0.000532969
0.5,10.8,0,0.000509531
0.5,10.9,0,0.000483863
0.5,11,0,0.00045877
0.5,11.1,0,0.000433717
0.5,11.2,0,0.000407703
0.5,11.3,0,0.000382885
0.5,11.4,0,0.000355611
0.5,11.5,0,0.000329782
0.5,11.6,0,0.000302616
0.5,11.7,0,0.000275628
0.5,11.8,0,0.000249012
0.5,11.9,0,0.000221419
0.5,12,0,0.00019481
0.5,12.1,0,0.000166652
0.5,12.2,0,0.000139207
0.5,12.3,0,0.000111452
0.5,12.4,0,8.34766e-05
0.5,12.5,0,5.59445e-05
0.5,12.6,0,2.78515e-05
0.5,12.7,0,4.02703e-06
0.6,0,0,1.7894e-06
0.6,0.1,0,2.52873e-05
0.6,0.2,0,5.06434e-05
0.6,0.3,0,7.59994e-05
0.6,0.4,0,0.000101134
0.6,0.5,0,0.000126327
0.6,0.6,0,0.00015152
0.6,0.7,0,0.000176761
0.6,0.8,0,0.000201454
0.6,0.9,0,0.000226335
0.6,1,0,0.000251216
0.6,1.1,0,0.00027572
0.6,1.2,0,0.000300136
0.6,1.3,0,0.000324552
0.6,1.4,0,0.000349135
0.6,1.5,0,0.000372617
0.6,1.6,0,0.000396415
0.6,1.7,0,0.000420212
0.6,1.8,0,0.000443473
0.6,1.9,0,0.000466498
0.6,2,0,0.000489524
0.6,2.1,0,0.000512844
0.6,2.2,0,0.000534498
0.6,2.3,0,0.000556597
0.6,2.4,0,0.000578696
0.6,2.5,0,0.000600109
0.6,2.6,0,0.000621128
0.6,2.7,0,0.000642147
0.6,2.8,0,0.000663593
0.6,2.9,0,0.000682818
0.6,3,0,0.000702604
0.6,3.1,0,0.00072239
0.6,3.2,0,0.000741373
0.6,3.3,0,0.000759775
0.6,3.4,0,0.000778177
0.6,3.5,0,0.000797123
0.6,3.6,0,0.000813374
0.6,3.7,0,0.000830246
0.6,3.8,0,0.000847117
0.6,3.9,0,0.000863122
0.6,4,0,0.000878323
0.6,4.1,0,0.000893523
0.6,4.2,0,0.000909328
0.6,4.3,0,0.000922147
0.6,4.4,0,0.000935545
0.6,4.5,0,0.000948943
0.6,4.6,0,0.000961467
0.6,4.7,0,0.000972942
0.6,4.8,0,0.000984417
0.6,4.9,0,0.000996455
0.6,5,0,0.00100549
0.6,5.1,0,0.00101493
0.6,5.2,0,0.00102438
0.6,5.3,0,0.00103296
0.6,5.4,0,0.00104029
0.6,5.5,0,0.00104761
0.6,5.6,0,0.00105534
0.6,5.7,0,0.00106029
0.6,5.8,0,0.00106542
0.6,5.9,0,0.00107055
0.6,6,0,0.00107475
0.6,6.1,0,0.00107762
0.6,6.2,0,0.00108049
0.6,6.3,0,0.00108352
0.6,6.4,0,0.00108408
0.6,6.5,0,0.00108464
0.6,6.6,0,0.00108521
0.6,6.7,0,0.00108464
0.6,6.8,0,0.00108328
0.6,6.9,0,0.00108193
0.6,7,0,0.00108079
0.6,7.1,0,0.00107538
0.6,7.2,0,0.00107131
0.6,7.3,0,0.0010666
0.6,7.4,0,0.00106118
0.6,7.5,0,0.00105507
0.6,7.6,0,0.00104827
0.6,7.7,0,0.00104078
0.6,7.8,0,0.0010326
0.6,7.9,0,0.00102376
0.6,8,0,0.00101109
0.6,8.1,0,0.00100191
0.6,8.2,0,0.000992708
0.6,8.3,0,0.000981352
0.6,8.4,0,0.000969183
0.6,8.5,0,0.000956574
0.6,8.6,0,0.00094293
0.6,8.7,0,0.000929429
0.6,8.8,0,0.000914262
0.6,8.9,0,0.000899204
0.6,9,0,0.000883266
0.6,9.1,0,0.00086684
0.6,9.2,0,0.000850016
0.6,9.3,0,0.000832274
0.6,9.4,0,0.000814656
0.6,9.5,0,0.000795586
0.6,9.6,0,0.000776586
0.6,9.7,0,0.000756863
0.6,9.8,0,0.000736667
0.6,9.9,0,0.000716191
0.6,10,0,0.000694865
0.6,10.1,0,0.000673605
0.6,10.2,0,0.000651275
0.6,10.3,0,0.000628889
0.6,10.4,0,0.000605995
0.6,10.5,0,0.000582624
0.6,10.6,0,0.000559198
0.6,10.7,0,0.000534851
0.6,10.8,0,0.000510576
0.6,10.9,0,0.00048568
0.6,11,0,0.000460587
0.6,11.1,0,0.000435224
0.6,11.2,0,0.000409403
0.6,11.3,0,0.000383751
0.6,11.4,0,0.000357147
0.6,11.5,0,0.000330694
0.6,11.6,0,0.000303944
0.6,11.7,0,0.000276956
0.6,11.8,0,0.000249918
0.6,11.9,0,0.000222498
0.6,12,0,0.000195309
0.6,12.1,0,0.000167451
0.6,12.2,0,0.000139701
0.6,12.3,0,0.000111946
0.6,12.4,0,8.39698e-05
0.6,12.5,0,5.61151e-05
0.6,12.6,0,2.80163e-05
0.6,12.7,0,1.34234e-06
0.7,0,0,0
0.7,0.1,0,2.54493e-05
0.7,0.2,0,5.08054e-05
0.7,0.3,0,7.61614e-05
0.7,0.4,0,0.000101615
0.7,0.5,0,0.000126808
0.7,0.6,0,0.000152
0.7,0.7,0,0.000177349
0.7,0.8,0,0.000202255
0.7,0.9,0,0.000227136
0.7,1,0,0.000252017
0.7,1.1,0,0.00027685
0.7,1.2,0,0.000301265
0.7,1.3,0,0.000325681
0.7,1.4,0,0.000350309
0.7,1.5,0,0.000374083
0.7,1.6,0,0.000397881
0.7,1.7,0,0.000421678
0.7,1.8,0,0.000445282
0.7,1.9,0,0.000468307
0.7,2,0,0.000491333
0.7,2.1,0,0.00051461
0.7,2.2,0,0.00053665
0.7,2.3,0,0.000558749
0.7,2.4,0,0.000580848
0.7,2.5,0,0.000602595
0.7,2.6,0,0.000623614
0.7,2.7,0,0.000644632
0.7,2.8,0,0.000665929
0.7,2.9,0,0.000685612
0.7,3,0,0.000705398
0.7,3.1,0,0.000725183
0.7,3.2,0,0.000744428
0.7,3.3,0,0.000762831
0.7,3.4,0,0.000781233
0.7,3.5,0,0.000799961
0.7,3.6,0,0.000816622
0.7,3.7,0,0.000833493
0.7,3.8,0,0.000850365
0.7,3.9,0,0.000866468
0.7,4,0,0.000881669
0.7,4.1,0,0.000896869
0.7,4.2,0,0.000912531
0.7,4.3,0,0.000925475
0.7,4.4,0,0.000938873
0.7,4.5,0,0.00095227
0.7,4.6,0,0.000964649
0.7,4.7,0,0.000976124
0.7,4.8,0,0.000987599
0.7,4.9,0,0.000999831
0.7,5,0,0.0010084
0.7,5.1,0,0.00101784
0.7,5.2,0,0.00102729
0.7,5.3,0,0.0010355
0.7,5.4,0,0.00104282
0.7,5.5,0,0.00105015
0.7,5.6,0,0.00105871
0.7,5.7,0,0.00106241
0.7,5.8,0,0.00106754
0.7,5.9,0,0.00107266
0.7,6,0,0.00107648
0.7,6.1,0,0.00107935
0.7,6.2,0,0.00108222
0.7,6.3,0,0.00108684
0.7,6.4,0,0.00108551
0.7,6.5,0,0.00108608
0.7,6.6,0,0.00108664
0.7,6.7,0,0.0010862
0.7,6.8,0,0.00108485
0.7,6.9,0,0.00108349
0.7,7,0,0.00108423
0.7,7.1,0,0.00107888
0.7,7.2,0,0.00107484
0.7,7.3,0,0.00107014
0.7,7.4,0,0.00106474
0.7,7.5,0,0.00105863
0.7,7.6,0,0.00105182
0.7,7.7,0,0.00104431
0.7,7.8,0,0.0010361
0.7,7.9,0,0.00102723
0.7,8,0,0.00101451
0.7,8.1,0,0.00100334
0.7,8.2,0,0.00099414
0.7,8.3,0,0.000982707
0.7,8.4,0,0.000970538
0.7,8.5,0,0.000957911
0.7,8.6,0,0.000944268
0.7,8.7,0,0.000932089
0.7,8.8,0,0.000915665
0.7,8.9,0,0.000900606
0.7,9,0,0.000884777
0.7,9.1,0,0.000868351
0.7,9.2,0,0.000851655
0.7,9.3,0,0.000833913
0.7,9.4,0,0.000816866
0.7,9.5,0,0.000797358
0.7,9.6,0,0.000778358
0.7,9.7,0,0.000758755
0.7,9.8,0,0.000738559
0.7,9.9,0,0.000718179
0.7,10,0,0.000696853
0.7,10.1,0,0.000675692
0.7,10.2,0,0.000653324
0.7,10.3,0,0.000630938
0.7,10.4,0,0.000608062
0.7,10.5,0,0.000584692
0.7,10.6,0,0.000561271
0.7,10.7,0,0.000536888
0.7,10.8,0,0.000512614
0.7,10.9,0,0.000487636
0.7,11,0,0.000462543
0.7,11.1,0,0.000437048
0.7,11.2,0,0.000411227
0.7,11.3,0,0.000385383
0.7,11.4,0,0.000358789
0.7,11.5,0,0.000332335
0.7,11.6,0,0.000305358
0.7,11.7,0,0.00027837
0.7,11.8,0,0.000251066
0.7,11.9,0,0.000223646
0.7,12,0,0.000196164
0.7,12.1,0,0.0001683
0.7,12.2,0,0.00014055
0.7,12.3,0,0.00011247
0.7,12.4,0,8.44942e-05
0.7,12.5,0,5.6293e-05
0.7,12.6,0,2.81943e-05
0.7,12.7,0,0
0.8,0,0,0
0.8,0.1,0,2.56358e-05
0.8,0.2,0,5.09919e-05
0.8,0.3,0,7.64883e-05
0.8,0.4,0,0.000102095
0.8,0.5,0,0.000127352
0.8,0.6,0,0.000152545
0.8,0.7,0,0.000178205
0.8,0.8,0,0.000203161
0.8,0.9,0,0.000228042
0.8,1,0,0.000253135
0.8,1.1,0,0.000278126
0.8,1.2,0,0.00030254
0.8,1.3,0,0.000326956
0.8,1.4,0,0.00035201
0.8,1.5,0,0.000375736
0.8,1.6,0,0.000399534
0.8,1.7,0,0.000423599
0.8,1.8,0,0.000447368
0.8,1.9,0,0.000470345
0.8,2,0,0.00049337
0.8,2.1,0,0.00051715
0.8,2.2,0,0.000539072
0.8,2.3,0,0.000561171
0.8,2.4,0,0.000583573
0.8,2.5,0,0.00060548
0.8,2.6,0,0.000626411
0.8,2.7,0,0.00064743
0.8,2.8,0,0.000669282
0.8,2.9,0,0.000688758
0.8,3,0,0.000708544
0.8,3.1,0,0.000728668
0.8,3.2,0,0.000748042
0.8,3.3,0,0.000766279
0.8,3.4,0,0.000784681
0.8,3.5,0,0.000804062
0.8,3.6,0,0.000820301
0.8,3.7,0,0.000837173
0.8,3.8,0,0.000854477
0.8,3.9,0,0.000870637
0.8,4,0,0.000885482
0.8,4.1,0,0.000900683
0.8,4.2,0,0.000917269
0.8,4.3,0,0.000929305
0.8,4.4,0,0.000942703
0.8,4.5,0,0.000956771
0.8,4.6,0,0.0009691
0.8,4.7,0,0.000979838
0.8,4.8,0,0.000991313
0.8,4.9,0,0.00100506
0.8,5,0,0.00101187
0.8,5.1,0,0.00102131
0.8,5.2,0,0.00103187
0.8,5.3,0,0.00103993
0.8,5.4,0,0.00104594
0.8,5.5,0,0.00105327
0.8,5.6,0,0.00106428
0.8,5.7,0,0.00106513
0.8,5.8,0,0.00107025
0.8,5.9,0,0.00107709
0.8,6,0,0.00108074
0.8,6.1,0,0.00108169
0.8,6.2,0,0.00108456
0.8,6.3,0,0.00109267
0.8,6.4,0,0.00108758
0.8,6.5,0,0.00108814
0.8,6.6,0,0.00109093
0.8,6.7,0,0.00109046
0.8,6.8,0,0.00108682
0.8,6.9,0,0.00108547
0.8,7,0,0.0010904
0.8,7.1,0,0.0010852
0.8,7.2,0,0.0010812
0.8,7.3,0,0.00107652
0.8,7.4,0,0.00107112
0.8,7.5,0,0.00106501
0.8,7.6,0,0.00105818
0.8,7.7,0,0.00105065
0.8,7.8,0,0.00104241
0.8,7.9,0,0.00103349
0.8,8,0,0.00102066
0.8,8.1,0,0.00100558
0.8,8.2,0,0.000998371
0.8,8.3,0,0.000984335
0.8,8.4,0,0.000972165
0.8,8.5,0,0.000962341
0.8,8.6,0,0.000945865
0.8,8.7,0,0.000937737
0.8,8.8,0,0.000917318
0.8,8.9,0,0.000903754
0.8,9,0,0.000886531
0.8,9.1,0,0.000870105
0.8,9.2,0,0.000856239
0.8,9.3,0,0.000835786
0.8,9.4,0,0.000821847
0.8,9.5,0,0.000799351
0.8,9.6,0,0.000781046
0.8,9.7,0,0.000760857
0.8,9.8,0,0.000740661
0.8,9.9,0,0.000722486
0.8,10,0,0.00069904
0.8,10.1,0,0.000679811
0.8,10.2,0,0.000655558
0.8,10.3,0,0.000633355
0.8,10.4,0,0.000610483
0.8,10.5,0,0.00058693
0.8,10.6,0,0.00056473
0.8,10.7,0,0.000539082
0.8,10.8,0,0.000515673
0.8,10.9,0,0.000489732
0.8,11,0,0.000464639
0.8,11.1,0,0.000439198
0.8,11.2,0,0.000413174
0.8,11.3,0,0.000387758
0.8,11.4,0,0.000360537
0.8,11.5,0,0.000334283
0.8,11.6,0,0.00030686
0.8,11.7,0,0.000279872
0.8,11.8,0,0.000252437
0.8,11.9,0,0.000224863
0.8,12,0,0.000197379
0.8,12.1,0,0.0001692
0.8,12.2,0,0.000141395
0.8,12.3,0,0.000113026
0.8,12.4,0,8.505e-05
0.8,12.5,0,5.66037e-05
0.8,12.6,0,2.83853e-05
0.8,12.7,0,0
0.9,0,0,0
0.9,0.1,0,2.57025e-05
0.9,0.2,0,5.11784e-05
0.9,0.3,0,7.69204e-05
0.9,0.4,0,0.000102527
0.9,0.5,0,0.000127896
0.9,0.6,0,0.000153289
0.9,0.7,0,0.000179061
0.9,0.8,0,0.000204035
0.9,0.9,0,0.000228948
0.9,1,0,0.000254413
0.9,1.1,0,0.000279404
0.9,1.2,0,0.000303815
0.9,1.3,0,0.000328504
0.9,1.4,0,0.00035371
0.9,1.5,0,0.00037742
0.9,1.6,0,0.000401187
0.9,1.7,0,0.000425721
0.9,1.8,0,0.00044949
0.9,1.9,0,0.000472382
0.9,2,0,0.000495731
0.9,2.1,0,0.00051969
0.9,2.2,0,0.00054157
0.9,2.3,0,0.000563594
0.9,2.4,0,0.000586525
0.9,2.5,0,0.000608432
0.9,2.6,0,0.000629208
0.9,2.7,0,0.000650584
0.9,2.8,0,0.000672635
0.9,2.9,0,0.000692037
0.9,3,0,0.00071169
0.9,3.1,0,0.000732405
0.9,3.2,0,0.00075178
0.9,3.3,0,0.000769727
0.9,3.4,0,0.000788549
0.9,3.5,0,0.000808162
0.9,3.6,0,0.000824252
0.9,3.7,0,0.000840852
0.9,3.8,0,0.000858912
0.9,3.9,0,0.000875073
0.9,4,0,0.000889296
0.9,4.1,0,0.000905091
0.9,4.2,0,0.000922007
0.9,4.3,0,0.000933719
0.9,4.4,0,0.000946533
0.9,4.5,0,0.000961774
0.9,4.6,0,0.000974103
0.9,4.7,0,0.000983552
0.9,4.8,0,0.000996001
0.9,4.9,0,0.00101029
0.9,5,0,0.00101647
0.9,5.1,0,0.00102478
0.9,5.2,0,0.00103729
0.9,5.3,0,0.00104535
0.9,5.4,0,0.00104906
0.9,5.5,0,0.00105797
0.9,5.6,0,0.00106986
0.9,5.7,0,0.00106968
0.9,5.8,0,0.00107297
0.9,5.9,0,0.00108281
0.9,6,0,0.00108645
0.9,6.1,0,0.00108403
0.9,6.2,0,0.00108915
0.9,6.3,0,0.00109851
0.9,6.4,0,0.00109207
0.9,6.5,0,0.0010902
0.9,6.6,0,0.0010969
0.9,6.7,0,0.00109642
0.9,6.8,0,0.0010888
0.9,6.9,0,0.00109014
0.9,7,0,0.00109657
0.9,7.1,0,0.00109153
0.9,7.2,0,0.00108756
0.9,7.3,0,0.00108289
0.9,7.4,0,0.0010775
0.9,7.5,0,0.00107138
0.9,7.6,0,0.00106455
0.9,7.7,0,0.001057
0.9,7.8,0,0.00104873
0.9,7.9,0,0.00103976
0.9,8,0,0.00102682
0.9,8.1,0,0.00100781
0.9,8.2,0,0.00100436
0.9,8.3,0,0.000989026
0.9,8.4,0,0.000976159
0.9,8.5,0,0.000968166
0.9,8.6,0,0.000947462
0.9,8.7,0,0.000943385
0.9,8.8,0,0.000918972
0.9,8.9,0,0.000909202
0.9,9,0,0.00089139
0.9,9.1,0,0.000873336
0.9,9.2,0,0.000861466
0.9,9.3,0,0.000837658
0.9,9.4,0,0.000826828
0.9,9.5,0,0.000801377
0.9,9.6,0,0.00078576
0.9,9.7,0,0.000765515
0.9,9.8,0,0.000743431
0.9,9.9,0,0.000726912
0.9,10,0,0.000701226
0.9,10.1,0,0.000683931
0.9,10.2,0,0.000658074
0.9,10.3,0,0.000637152
0.9,10.4,0,0.00061428
0.9,10.5,0,0.00058935
0.9,10.6,0,0.000568189
0.9,10.7,0,0.000541275
0.9,10.8,0,0.000518782
0.9,10.9,0,0.000492119
0.9,11,0,0.000467371
0.9,11.1,0,0.000441945
0.9,11.2,0,0.000415125
0.9,11.3,0,0.000390132
0.9,11.4,0,0.000362284
0.9,11.5,0,0.000336277
0.9,11.6,0,0.000308572
0.9,11.7,0,0.000281463
0.9,11.8,0,0.000254044
0.9,11.9,0,0.00022608
0.9,12,0,0.000198594
0.9,12.1,0,0.000170099
0.9,12.2,0,0.000142213
0.9,12.3,0,0.00011373
0.9,12.4,0,8.55076e-05
0.9,12.5,0,5.70196e-05
0.9,12.6,0,2.85764e-05
0.9,12.7,0,0
1,0,0,0
1,0.1,0,2.57025e-05
1,0.2,0,5.15404e-05
1,0.3,0,7.73525e-05
1,0.4,0,0.000102959
1,0.5,0,0.00012836
1,0.6,0,0.000154145
1,0.7,0,0.000179916
1,0.8,0,0.00020489
1,0.9,0,0.00023012
1,1,0,0.000255692
1,1.1,0,0.000280682
1,1.2,0,0.000305092
1,1.3,0,0.000330205
1,1.4,0,0.000355411
1,1.5,0,0.00037912
1,1.6,0,0.000403175
1,1.7,0,0.000427843
1,1.8,0,0.000451612
1,1.9,0,0.00047448
1,2,0,0.000498271
1,2.1,0,0.00052223
1,2.2,0,0.000544111
1,2.3,0,0.000566395
1,2.4,0,0.000589477
1,2.5,0,0.000611384
1,2.6,0,0.000632116
1,2.7,0,0.000653937
1,2.8,0,0.000675988
1,2.9,0,0.00069539
1,3,0,0.000715258
1,3.1,0,0.000736143
1,3.2,0,0.000755517
1,3.3,0,0.000773382
1,3.4,0,0.000792649
1,3.5,0,0.000812263
1,3.6,0,0.000828352
1,3.7,0,0.000845072
1,3.8,0,0.000863348
1,3.9,0,0.000879509
1,4,0,0.000893555
1,4.1,0,0.000909829
1,4.2,0,0.000926745
1,4.3,0,0.000938457
1,4.4,0,0.000951201
1,4.5,0,0.000966777
1,4.6,0,0.000979106
1,4.7,0,0.000988187
1,4.8,0,0.00100123
1,4.9,0,0.00101552
1,5,0,0.0010217
1,5.1,0,0.00102964
1,5.2,0,0.00104271
1,5.3,0,0.00105077
1,5.4,0,0.00105382
1,5.5,0,0.00106354
1,5.6,0,0.00107544
1,5.7,0,0.00107526
1,5.8,0,0.00107783
1,5.9,0,0.00108852
1,6,0,0.00109217
1,6.1,0,0.00108878
1,6.2,0,0.00109498
1,6.3,0,0.00110434
1,6.4,0,0.0010979
1,6.5,0,0.00109505
1,6.6,0,0.00110286
1,6.7,0,0.00110238
1,6.8,0,0.00109362
1,6.9,0,0.0010963
1,7,0,0.00110273
1,7.1,0,0.00109786
1,7.2,0,0.00109393
1,7.3,0,0.00108927
1,7.4,0,0.00108388
1,7.5,0,0.00107776
1,7.6,0,0.00107092
1,7.7,0,0.00106334
1,7.8,0,0.00105504
1,7.9,0,0.00104602
1,8,0,0.00103297
1,8.1,0,0.00101292
1,8.2,0,0.00101035
1,8.3,0,0.000995017
1,8.4,0,0.000981983
1,8.5,0,0.00097399
1,8.6,0,0.000951473
1,8.7,0,0.000949033
1,8.8,0,0.00092411
1,8.9,0,0.000914651
1,9,0,0.000896839
1,9.1,0,0.000878562
1,9.2,0,0.000866692
1,9.3,0,0.000841095
1,9.4,0,0.000831809
1,9.5,0,0.000806358
1,9.6,0,0.000790474
1,9.7,0,0.000770229
1,9.8,0,0.000747857
1,9.9,0,0.000731338
1,10,0,0.000704435
1,10.1,0,0.000688051
1,10.2,0,0.000662193
1,10.3,0,0.000640949
1,10.4,0,0.000618077
1,10.5,0,0.000592809
1,10.6,0,0.000571648
1,10.7,0,0.000544038
1,10.8,0,0.00052189
1,10.9,0,0.000495227
1,11,0,0.000470118
1,11.1,0,0.000444691
1,11.2,0,0.000417499
1,11.3,0,0.000392507
1,11.4,0,0.000364329
1,11.5,0,0.000338271
1,11.6,0,0.000310566
1,11.7,0,0.00028307
1,11.8,0,0.000255652
1,11.9,0,0.000227295
1,12,0,0.000199809
1,12.1,0,0.000171186
1,12.2,0,0.000143032
1,12.3,0,0.000114548
1,12.4,0,8.59236e-05
1,12.5,0,5.74355e-05
1,12.6,0,2.86272e-05
1,12.7,0,0
1.1,0,0,0
1.1,0.1,0,2.57025e-05
1.1,0.2,0,5.18259e-05
1.1,0.3,0,7.77846e-05