/*--------------------------------*- C++ -*----------------------------------*\
| =========                 |                                                 |
| \\      /  F ield         | OpenFOAM: The Open Source CFD Toolbox           |
|  \\    /   O peration     | Version:  v1806                                 |
|   \\  /    A nd           | Web:      www.OpenFOAM.com                      |
|    \\/     M anipulation  |                                                 |
\*---------------------------------------------------------------------------*/
FoamFile
{
    version     2.0;
    format      ascii;
    class       surfaceScalarField;
    location    "14";
    object      phi;
}
// * * * * * * * * * * * * * * * * * * * * * * * * * * * * * * * * * * * * * //

dimensions      [0 3 -1 0 0 0 0];
oriented        oriented;


internalField   nonuniform List<scalar> 
8600
(
0.874764
-0.884115
-0.923994
0.933344
0.718338
-0.775989
0.932415
0.558524
-0.766532
0.926346
0.461594
-0.789957
0.886888
0.378822
-0.79891
0.881682
0.316276
-0.810731
0.873277
0.266867
-0.820577
0.869987
0.228147
-0.829343
0.868063
0.19852
-0.837015
0.866643
0.176756
-0.84339
0.865154
0.161715
-0.848475
0.863516
0.152087
-0.852382
0.86201
0.146364
-0.855309
0.861031
0.142559
-0.85658
0.860386
0.139583
-0.856769
0.859745
0.137309
-0.856669
0.858943
0.135732
-0.8565
0.858078
0.134729
-0.856096
0.857099
0.13426
-0.855515
0.855983
-0.854886
0.854874
0.0285099
-0.742357
-0.170268
0.00298164
-0.750461
0.0183616
-0.781912
0.0467814
-0.818377
0.073965
-0.826094
0.0958898
-0.832656
0.113515
-0.838202
0.127086
-0.842915
0.136822
-0.846751
0.142975
-0.849543
0.145853
-0.851353
0.145812
-0.852341
0.143239
-0.852735
0.139583
-0.852924
0.136206
-0.853392
0.133437
-0.8539
0.131118
-0.854181
0.129265
-0.854243
0.127861
-0.85411
-0.85429
0.373255
-0.81246
-0.303151
0.398739
-0.775945
0.401119
-0.784292
0.366262
-0.78352
0.327801
-0.787633
0.289077
-0.793932
0.252699
-0.801825
0.220482
-0.810697
0.19304
-0.819309
0.170681
-0.827183
0.153419
-0.834091
0.140972
-0.839894
0.132774
-0.844537
0.127973
-0.848124
0.125167
-0.850585
0.123038
-0.851772
0.12121
-0.852353
0.119846
-0.852879
0.118948
-0.853212
-0.853806
-0.0173977
-0.783653
-0.0114091
-0.0378834
-0.75546
-0.0470711
-0.775104
-0.0286394
-0.801952
-0.00325164
-0.813021
0.0235683
-0.820752
0.0485409
-0.826797
0.0699843
-0.832141
0.087673
-0.836998
0.101638
-0.841149
0.111796
-0.844249
0.118168
-0.846265
0.121134
-0.847503
0.12127
-0.84826
0.119578
-0.848894
0.117577
-0.849771
0.116141
-0.850918
0.115211
-0.851948
0.114742
-0.852744
-0.853626
0.190383
-0.824412
-0.149624
0.235825
-0.800901
0.266832
-0.806111
0.268777
-0.803896
0.255549
-0.799793
0.236108
-0.801311
0.214595
-0.805285
0.193288
-0.810834
0.173394
-0.817104
0.155585
-0.82334
0.140468
-0.829132
0.128606
-0.834404
0.120258
-0.839155
0.115269
-0.84327
0.113027
-0.846652
0.112349
-0.849092
0.112267
-0.850835
0.112376
-0.852058
0.112866
-0.853234
-0.854355
-0.0285394
-0.809941
0.0140683
-0.0428255
-0.786615
-0.0559443
-0.792992
-0.0533958
-0.806445
-0.0355545
-0.817634
-0.0133418
-0.823524
0.00934189
-0.827968
0.0305868
-0.832079
0.0495775
-0.836095
0.06601
-0.839772
0.0796476
-0.842769
0.0902023
-0.844959
0.0974726
-0.846425
0.101633
-0.847431
0.103221
-0.848241
0.103295
-0.849166
0.102847
-0.850388
0.102606
-0.851816
0.102426
-0.853054
-0.854233
0.120046
-0.838126
-0.0918608
0.155403
-0.821973
0.185691
-0.823281
0.20173
-0.822483
0.199651
-0.815555
0.190073
-0.813946
0.177332
-0.815227
0.16325
-0.817997
0.148844
-0.821689
0.134918
-0.825845
0.122244
-0.830096
0.111508
-0.834223
0.103185
-0.838102
0.0974036
-0.841649
0.0939201
-0.844757
0.0920656
-0.847311
0.0908762
-0.849198
0.0898362
-0.850776
0.0887886
-0.852006
-0.853447
-0.030404
-0.826124
0.0184021
-0.0426399
-0.809737
-0.0549373
-0.810984
-0.0593325
-0.818088
-0.0494357
-0.825452
-0.0329804
-0.830401
-0.0146144
-0.833593
0.00388638
-0.836498
0.0214527
-0.839255
0.0374097
-0.841802
0.0512385
-0.843925
0.0625812
-0.845566
0.0712765
-0.846797
0.0773604
-0.847733
0.0811256
-0.848522
0.0831092
-0.849295
0.0842191
-0.850308
0.0850009
-0.851558
0.0859392
-0.852945
-0.854221
0.0855328
-0.847878
-0.0637785
0.112587
-0.836791
0.137878
-0.836275
0.154614
-0.834824
0.159199
-0.830037
0.154537
-0.825739
0.146572
-0.825629
0.136699
-0.826625
0.125907
-0.828463
0.115039
-0.830934
0.104937
-0.833823
0.0962826
-0.836911
0.0895473
-0.840062
0.0849585
-0.843144
0.0824968
-0.846061
0.0818828
-0.848681
0.0823573
-0.850783
0.0831471
-0.852348
0.0838255
-0.853623
-0.854625
-0.0290189
-0.836904
0.0180446
-0.0400851
-0.825725
-0.0509253
-0.825435
-0.0565161
-0.829233
-0.0535266
-0.833026
-0.0412648
-0.838001
-0.0263952
-0.840498
-0.01019
-0.84283
0.00608777
-0.844741
0.0214056
-0.846252
0.0350593
-0.847477
0.0466712
-0.848523
0.0559666
-0.849357
0.0628174
-0.849995
0.0672135
-0.850457
0.0693746
-0.850842
0.0698826
-0.851291
0.0696286
-0.852094
0.0690403
-0.853035
-0.854153
0.0647851
-0.854494
-0.0471957
0.0861534
-0.847093
0.106632
-0.845913
0.121676
-0.844276
0.129484
-0.840835
0.127137
-0.835654
0.121167
-0.834528
0.112945
-0.834609
0.10362
-0.835416
0.0940331
-0.836665
0.0847654
-0.838209
0.0762529
-0.84001
0.0689379
-0.842042
0.0631865
-0.844244
0.0592037
-0.846474
0.0569638
-0.848602
0.0561534
-0.85048
0.0560182
-0.851958
0.0560754
-0.853092
-0.854133
-0.0278366
-0.84393
0.0172734
-0.0384408
-0.836489
-0.0483993
-0.835955
-0.0546902
-0.837985
-0.0555702
-0.839955
-0.0473689
-0.843856
-0.0359885
-0.845908
-0.0229556
-0.847642
-0.00944404
-0.848928
0.00365537
-0.849764
0.0157713
-0.850325
0.0265315
-0.85077
0.0356286
-0.85114
0.0427822
-0.851397
0.0479192
-0.851611
0.05113
-0.851813
0.0527906
-0.852141
0.0534734
-0.852641
0.0537911
-0.85341
-0.854354
0.0511535
-0.858724
-0.0363599
0.0686528
-0.853988
0.0854263
-0.852728
0.098686
-0.851245
0.107089
-0.848358
0.106405
-0.843172
0.101647
-0.84115
0.0947627
-0.840757
0.0869512
-0.841116
0.0789572
-0.84177
0.0712695
-0.842638
0.0642543
-0.843755
0.0582541
-0.845139
0.0536292
-0.846772
0.0505443
-0.848526
0.0489774
-0.850246
0.0486103
-0.851774
0.0489624
-0.852993
0.0494571
-0.853904
-0.854638
-0.0253585
-0.848844
0.0154788
-0.0352328
-0.844114
-0.0442794
-0.843682
-0.0506597
-0.844865
-0.0530561
-0.845961
-0.0473641
-0.848864
-0.0382509
-0.850263
-0.0277474
-0.851261
-0.0167277
-0.852136
-0.00567642
-0.852821
0.00492258
-0.853237
0.0145828
-0.853415
0.0229018
-0.853458
0.0295549
-0.853426
0.0343739
-0.853345
0.0374168
-0.853289
0.0389824
-0.853339
0.0395494
-0.85356
0.039639
-0.853994
-0.854522
0.0408927
-0.861373
-0.0283637
0.055417
-0.858638
0.0692571
-0.857522
0.0806411
-0.856249
0.0885151
-0.853835
0.0888198
-0.849169
0.0848583
-0.846301
0.078882
-0.845284
0.0718561
-0.84511
0.0643904
-0.845356
0.0570003
-0.845847
0.0501024
-0.846518
0.044009
-0.847365
0.0389801
-0.848397
0.0352525
-0.849617
0.0328882
-0.850925
0.0318034
-0.852254
0.0316689
-0.853426
0.0320899
-0.854415
-0.854963
-0.0250198
-0.851594
0.0152401
-0.034672
-0.848986
-0.0435022
-0.848691
-0.0503249
-0.849426
-0.0538582
-0.850302
-0.0510118
-0.852015
-0.0441018
-0.853211
-0.0358901
-0.853496
-0.0271314
-0.853869
-0.0181658
-0.854321
-0.00930567
-0.854707
-0.000879996
-0.854943
0.00680126
-0.855046
0.0134757
-0.855071
0.0188676
-0.855009
0.0228753
-0.854932
0.0254965
-0.854876
0.0270118
-0.854941
0.027669
-0.855072
-0.855152
0.033289
-0.862407
-0.022476
0.0456997
-0.861397
0.057536
-0.860528
0.067338
-0.859228
0.0741088
-0.857073
0.0748688
-0.852775
0.0720225
-0.850365
0.0674396
-0.848913
0.061755
-0.848184
0.0554519
-0.848018
0.0489653
-0.84822
0.0426515
-0.848629
0.0367823
-0.849177
0.0315866
-0.849875
0.0273005
-0.850723
0.0240836
-0.851715
0.0219446
-0.852737
0.0206082
-0.853605
0.019603
-0.854067
-0.854539
-0.0230673
-0.852921
0.0135818
-0.0324224
-0.852042
-0.0409343
-0.852016
-0.0477718
-0.85239
-0.0519442
-0.852901
-0.050632
-0.854087
-0.0451048
-0.855892
-0.0383854
-0.855633
-0.0312122
-0.855357
-0.02399
-0.85524
-0.0169475
-0.855263
-0.0102354
-0.855342
-0.00401048
-0.855402
0.00149276
-0.855379
0.00603994
-0.85527
0.00942489
-0.8551
0.0116405
-0.854952
0.0128774
-0.854842
0.01366
-0.85485
-0.854983
0.0262899
-0.862281
-0.0169297
0.0370293
-0.862781
0.0473168
-0.862303
0.055884
-0.860958
0.0619574
-0.858974
0.0637547
-0.855885
0.0603482
-0.852486
0.0553018
-0.850586
0.0494255
-0.849481
0.0430706
-0.848885
0.0365182
-0.84871
0.0300942
-0.848918
0.0241554
-0.849463
0.0190273
-0.850251
0.0149662
-0.851209
0.012121
-0.852255
0.010428
-0.853259
0.00965601
-0.85407
0.00944005
-0.854634
-0.854947
-0.0231898
0.0159086
-0.030971
-0.0382744
-0.044232
-0.048206
-0.0490906
-0.0465763
-0.0421625
-0.0366436
-0.0305289
-0.0242392
-0.0181567
-0.0126197
-0.00787028
-0.00407943
-0.00133462
0.000406116
0.00133643
0.00170279
-0.732847
-0.113572
0.846419
-0.625062
-0.107785
-0.527021
-0.0980409
-0.434294
-0.0927278
-0.3473
-0.0869933
-0.264124
-0.0831765
-0.184128
-0.0799961
-0.106367
-0.0777608
-0.030086
-0.0762808
0.0454359
-0.0755219
0.12089
-0.0754544
0.196961
-0.0760704
0.274354
-0.0773936
0.353745
-0.0793908
0.436105
-0.0823597
0.521853
-0.085748
0.612934
-0.0910815
0.708761
-0.0958264
0.813572
-0.104811
-0.110422
-0.0894981
-0.116199
0.0921252
-0.0858345
-0.111449
-0.0764973
-0.107378
-0.0657026
-0.103522
-0.0522179
-0.100478
-0.0374296
-0.0979648
-0.0213793
-0.0960463
-0.00449731
-0.0946428
0.012949
-0.0937271
0.0307022
-0.0932751
0.0485232
-0.0932753
0.0661811
-0.0937282
0.0834328
-0.0946454
0.100099
-0.0960567
0.115717
-0.0979775
0.130498
-0.100529
0.143038
-0.103622
0.154883
-0.107671
0.162159
-0.112088
-0.118531
-0.188872
-0.130442
0.203115
-0.170499
-0.129821
-0.149366
-0.128511
-0.125805
-0.127084
-0.100622
-0.125661
-0.0741657
-0.124421
-0.0467975
-0.123414
-0.018761
-0.122679
0.00974449
-0.122233
0.0385535
-0.122084
0.0675192
-0.122241
0.0965008
-0.12271
0.125354
-0.123498
0.153912
-0.124614
0.182004
-0.12607
0.209335
-0.127859
0.235719
-0.130006
0.260484
-0.132436
0.283494
-0.135097
-0.138189
0.00834336
-0.130459
-0.00832674
0.00798752
-0.129466
0.00780605
-0.12833
0.00790067
-0.127178
0.00836443
-0.126124
0.00916093
-0.125218
0.0102398
-0.124493
0.0115273
-0.123967
0.0129416
-0.123647
0.0143967
-0.123539
0.0158038
-0.123648
0.0170722
-0.123978
0.0181107
-0.124537
0.0188283
-0.125332
0.0191303
-0.126372
0.0189388
-0.127668
0.0181495
-0.129217
0.0167346
-0.131021
0.0146701
-0.133033
-0.134927
-0.0720918
-0.138736
0.0803685
-0.062843
-0.138714
-0.0527244
-0.138448
-0.0418621
-0.138041
-0.0304001
-0.137586
-0.0184577
-0.13716
-0.00613968
-0.136811
0.00646236
-0.136569
0.0192656
-0.13645
0.0321918
-0.136466
0.0451651
-0.136621
0.0581089
-0.136922
0.070944
-0.137372
0.0835856
-0.137974
0.0959408
-0.138728
0.107903
-0.139629
0.119353
-0.140668
0.130147
-0.141815
0.140149
-0.143034
-0.144403
0.0169178
-0.138001
-0.0176524
0.015848
-0.137645
0.0145829
-0.137183
0.013229
-0.136687
0.0118536
-0.136211
0.0104874
-0.135794
0.00913805
-0.135462
0.0077996
-0.13523
0.00645843
-0.135109
0.00509689
-0.135104
0.00369535
-0.13522
0.00223331
-0.13546
0.000690304
-0.135829
-0.000953237
-0.13633
-0.00271471
-0.136966
-0.00460701
-0.137737
-0.00663791
-0.138637
-0.00880849
-0.139645
-0.0111358
-0.140707
-0.14147
-0.0374741
-0.143376
0.042849
-0.0316842
-0.143435
-0.0254951
-0.143372
-0.0189581
-0.143224
-0.012136
-0.143033
-0.00508864
-0.142841
0.00213029
-0.142681
0.00947312
-0.142573
0.0168964
-0.142532
0.0243591
-0.142567
0.031821
-0.142682
0.0392417
-0.142881
0.0465789
-0.143166
0.0537881
-0.143539
0.0608207
-0.143999
0.0676239
-0.14454
0.0741415
-0.145154
0.0803175
-0.145821
0.0861028
-0.146492
-0.147228
0.014184
-0.142425
-0.0151349
0.0130006
-0.142251
0.0116391
-0.142011
0.0101572
-0.141742
0.00860155
-0.141477
0.00700312
-0.141243
0.0053795
-0.141057
0.00373846
-0.140932
0.00208163
-0.140875
0.000407068
-0.140892
-0.00128902
-0.140986
-0.00301117
-0.141159
-0.00476389
-0.141414
-0.00655099
-0.141752
-0.00837488
-0.142175
-0.0102363
-0.142679
-0.0121347
-0.143256
-0.0140707
-0.143885
-0.0160397
-0.144523
-0.144866
-0.023314
-0.146187
0.0270758
-0.019315
-0.14625
-0.0150786
-0.146247
-0.0106287
-0.146192
-0.00600022
-0.146106
-0.00123101
-0.146012
0.00364321
-0.145932
0.00859002
-0.145879
0.01358
-0.145865
0.0185857
-0.145898
0.0235808
-0.145981
0.028539
-0.146117
0.0334334
-0.146308
0.0382358
-0.146555
0.0429163
-0.146855
0.0474437
-0.147206
0.0517862
-0.147598
0.0559123
-0.148011
0.0597863
-0.148397
-0.148858
0.0107689
-0.14527
-0.0116856
0.00968857
-0.14517
0.00846895
-0.145028
0.00714205
-0.144865
0.00573881
-0.144703
0.00428413
-0.144558
0.0027956
-0.144443
0.00128425
-0.144368
-0.000243729
-0.144337
-0.00178541
-0.144356
-0.00333975
-0.144426
-0.00490664
-0.14455
-0.00648619
-0.144728
-0.00807823
-0.144963
-0.00968195
-0.145252
-0.0112957
-0.145593
-0.0129166
-0.145977
-0.0145374
-0.14639
-0.016134
-0.146801
-0.146947
-0.0158806
-0.148027
0.0186369
-0.0129668
-0.148084
-0.00989126
-0.148103
-0.0066658
-0.14809
-0.0033118
-0.148057
0.000145189
-0.148015
0.00367925
-0.147977
0.00726597
-0.147954
0.0108829
-0.147954
0.0145092
-0.147982
0.0181251
-0.148042
0.0217113
-0.148136
0.0252483
-0.148265
0.028716
-0.14843
0.0320936
-0.148629
0.0353594
-0.148858
0.0384907
-0.149109
0.0414623
-0.149362
0.0442428
-0.149581
-0.1499
0.00833868
-0.147154
-0.00921109
0.00734708
-0.147092
0.00624755
-0.147004
0.00505852
-0.146901
0.00380043
-0.146798
0.002492
-0.146706
0.00114833
-0.146633
-0.000219561
-0.146586
-0.00160416
-0.14657
-0.00300063
-0.146586
-0.00440592
-0.146637
-0.005818
-0.146724
-0.00723528
-0.146848
-0.00865617
-0.147009
-0.0100787
-0.147207
-0.0114996
-0.147437
-0.0129129
-0.147695
-0.014306
-0.147969
-0.0156494
-0.148238
-0.148276
-0.0113297
-0.149242
0.0134171
-0.00912869
-0.149293
-0.00680897
-0.149323
-0.00437642
-0.149334
-0.00184474
-0.14933
0.000768097
-0.149319
0.00344262
-0.149308
0.00615964
-0.149303
0.00890105
-0.149311
0.0116499
-0.149335
0.0143903
-0.149377
0.0171067
-0.14944
0.0197838
-0.149525
0.0224063
-0.149632
0.024958
-0.149758
0.0274221
-0.149902
0.0297798
-0.150053
0.0320101
-0.150199
0.0340866
-0.150315
-0.150549
0.00628627
-0.148479
-0.00704867
0.00543349
-0.14844
0.00449561
-0.148385
0.00348375
-0.148322
0.00241177
-0.148258
0.0012937
-0.148201
0.000141909
-0.148156
-0.0010336
-0.148128
-0.0022253
-0.148119
-0.00342775
-0.148132
-0.00463707
-0.148168
-0.0058504
-0.148227
-0.00706537
-0.14831
-0.00827962
-0.148417
-0.00949017
-0.148548
-0.0106923
-0.148699
-0.0118776
-0.148868
-0.0130311
-0.149045
-0.0141249
-0.149221
-0.149196
-0.0082874
-0.15007
0.00987807
-0.00660971
-0.150118
-0.00484004
-0.150155
-0.00298144
-0.150181
-0.00104306
-0.150197
0.000962008
-0.150206
0.00301883
-0.150213
0.00511207
-0.150221
0.00722688
-0.150234
0.00934919
-0.150255
0.0114657
-0.150285
0.0135637
-0.150325
0.0156305
-0.150377
0.0176536
-0.150441
0.0196196
-0.150514
0.0215139
-0.150594
0.0233201
-0.150674
0.0250195
-0.150745
0.0265903
-0.150792
-0.150969
0.00532424
-0.149305
-0.00608859
0.00448927
-0.149283
0.00358592
-0.149252
0.00262102
-0.149216
0.00160408
-0.14918
0.000545464
-0.149147
-0.00054495
-0.149123
-0.00165861
-0.149108
-0.00278856
-0.149104
-0.00392938
-0.149114
-0.00507688
-0.149137
-0.00622773
-0.149174
-0.00737899
-0.149226
-0.00852761
-0.149292
-0.00966965
-0.149372
-0.0107992
-0.149464
-0.0119067
-0.149566
-0.0129775
-0.149674
-0.013988
-0.149781
-0.149717
-0.00603134
-0.150527
0.00725295
-0.00474128
-0.150573
-0.00337812
-0.150615
-0.00194316
-0.150651
-0.000442589
-0.15068
0.00111394
-0.150704
0.00271482
-0.150723
0.00434767
-0.15074
0.00600016
-0.150757
0.00766039
-0.150774
0.00931704
-0.150794
0.0109592
-0.150816
0.0125762
-0.150843
0.0141572
-0.150873
0.0156907
-0.150905
0.017164
-0.150938
0.018563
-0.150965
0.019872
-0.150983
0.0210736
-0.150983
-0.151119
0.00421331
-0.149839
-0.00490164
0.00346965
-0.149829
0.00267157
-0.149817
0.00182354
-0.149803
0.000932368
-0.149789
5.98434e-06
-0.149778
-0.000947644
-0.14977
-0.00192118
-0.149767
-0.0029083
-0.14977
-0.00390376
-0.149779
-0.00490328
-0.149794
-0.00590323
-0.149817
-0.00690025
-0.149846
-0.00789076
-0.149882
-0.00887009
-0.149926
-0.00983158
-0.149976
-0.0107656
-0.150031
-0.0116588
-0.15009
-0.0124932
-0.150148
-0.150031
-0.00451453
-0.15072
0.00539621
-0.00357698
-0.150767
-0.00257944
-0.150814
-0.00152232
-0.15086
-0.000409961
-0.150901
0.000750407
-0.150938
0.00194972
-0.150969
0.00317804
-0.150995
0.00442527
-0.151017
0.00568159
-0.151035
0.00693756
-0.15105
0.00818411
-0.151063
0.00941225
-0.151074
0.0106128
-0.151083
0.011776
-0.151089
0.0128911
-0.151091
0.0139462
-0.151087
0.014929
-0.151072
0.0158256
-0.151045
-0.151135
0.00317721
-0.00389766
0.00241018
0.00159577
0.000735948
-0.0001654
-0.00110327
-0.00207234
-0.00306755
-0.00408445
-0.00511941
-0.00616954
-0.00723258
-0.00830661
-0.0093896
-0.0104788
-0.01157
-0.0126565
-0.0137288
-0.0147738
-0.434551
-0.132704
0.146295
0.420961
-0.448518
-0.132369
0.146336
-0.462733
-0.132201
0.146416
-0.477642
-0.131894
0.146803
-0.494052
-0.131391
0.147802
-0.513004
-0.130628
0.14958
-0.535646
-0.12959
0.152232
-0.563054
-0.128283
0.155691
-0.596038
-0.126736
0.15972
-0.634953
-0.124999
0.163915
-0.679498
-0.123194
0.167738
-0.728482
-0.121586
0.17057
-0.77958
-0.120654
0.171753
-0.829186
-0.121044
0.170649
-0.872518
-0.12332
0.166653
-0.903916
-0.127773
0.159171
-0.919407
-0.132077
0.147568
-0.916521
-0.133958
0.131072
-0.893596
-0.131321
0.108396
-0.122672
0.0754959
-0.0668164
-0.136792
0.0709037
-0.0622569
-0.136929
-0.0571903
-0.137268
-0.0513575
-0.137727
-0.0446138
-0.138135
-0.0369592
-0.138283
-0.028626
-0.137923
-0.0201124
-0.136796
-0.0122079
-0.13464
-0.00597635
-0.131231
-0.00223893
-0.126931
-0.00178656
-0.122038
-0.00525926
-0.117182
-0.0130023
-0.113301
-0.024979
-0.111343
-0.0409815
-0.111771
-0.0589216
-0.114137
-0.0758006
-0.117079
-0.0881608
-0.118961
-0.118708
-0.306157
-0.134209
0.303574
-0.308838
-0.134248
-0.311792
-0.134313
-0.315103
-0.134416
-0.318715
-0.134523
-0.322385
-0.134612
-0.325796
-0.134512
-0.328461
-0.134131
-0.329636
-0.133465
-0.328312
-0.132555
-0.323739
-0.131504
-0.315314
-0.130463
-0.302905
-0.129591
-0.287205
-0.129
-0.26983
-0.128719
-0.252895
-0.128706
-0.238112
-0.128919
-0.225831
-0.12936
-0.214839
-0.129953
-0.130432
0.00474013
-0.137183
-0.00176557
0.00761621
-0.137124
0.0103835
-0.137081
0.0129504
-0.136983
0.0151691
-0.136742
0.0168274
-0.136271
0.0178107
-0.135495
0.0180589
-0.134379
0.0175405
-0.132947
0.0162869
-0.131301
0.014414
-0.129631
0.0121303
-0.12818
0.00973336
-0.127195
0.00758313
-0.12685
0.00604919
-0.127185
0.0054161
-0.128073
0.00573447
-0.129238
0.00669562
-0.130321
0.00772801
-0.130986
-0.13103
-0.196421
-0.139012
0.198249
-0.194447
-0.139099
-0.192305
-0.139222
-0.189969
-0.13932
-0.187351
-0.139359
-0.184312
-0.13931
-0.180661
-0.139146
-0.17618
-0.13886
-0.170664
-0.138463
-0.163971
-0.137994
-0.156092
-0.13751
-0.147196
-0.137076
-0.13764
-0.136751
-0.127916
-0.136574
-0.118538
-0.136563
-0.109887
-0.136724
-0.102073
-0.137051
-0.0948781
-0.137516
-0.0878259
-0.138038
-0.138488
0.0204129
-0.14014
-0.0192841
0.0214837
-0.140169
0.0223732
-0.140112
0.0230567
-0.140003
0.0235005
-0.139803
0.0236713
-0.139481
0.023545
-0.13902
0.0231166
-0.138432
0.0224089
-0.137756
0.0214788
-0.137064
0.0204182
-0.136449
0.0193484
-0.136006
0.0184063
-0.135809
0.0177208
-0.135888
0.0173787
-0.136221
0.017384
-0.136729
0.0176278
-0.137295
0.0179017
-0.13779
0.0179671
-0.138103
-0.138173
-0.128928
-0.142653
0.13144
-0.126437
-0.14266
-0.123786
-0.142763
-0.120946
-0.142842
-0.117868
-0.142881
-0.114485
-0.142864
-0.11072
-0.142785
-0.106508
-0.142644
-0.101808
-0.142456
-0.0966273
-0.142244
-0.091036
-0.14204
-0.0851665
-0.141875
-0.079199
-0.141776
-0.0733266
-0.141761
-0.0677095
-0.141838
-0.062429
-0.142009
-0.0574594
-0.142265
-0.0526705
-0.142579
-0.0478667
-0.142907
-0.143191
0.0219104
-0.143091
-0.0214717
0.0224109
-0.143161
0.0227694
-0.143121
0.0229749
-0.143048
0.0230127
-0.142919
0.0228705
-0.142722
0.0225436
-0.142458
0.0220393
-0.14214
0.0213812
-0.141798
0.0206103
-0.141473
0.0197837
-0.141214
0.0189687
-0.14106
0.0182326
-0.14104
0.0176282
-0.141156
0.0171773
-0.141387
0.0168568
-0.141689
0.0165957
-0.142004
0.0162891
-0.142272
0.0158281
-0.142446
-0.142497
-0.0901131
-0.145379
0.0924004
-0.0879376
-0.145336
-0.0856473
-0.145412
-0.0832214
-0.145474
-0.0806301
-0.14551
-0.0778389
-0.145513
-0.0748155
-0.145481
-0.0715384
-0.145417
-0.068006
-0.14533
-0.0642442
-0.145235
-0.0603088
-0.145149
-0.0562809
-0.145088
-0.0522551
-0.145066
-0.0483201
-0.145091
-0.0445388
-0.145169
-0.0409305
-0.145297
-0.0374645
-0.14547
-0.034066
-0.145671
-0.0306357
-0.145876
-0.146057
0.0199649
-0.145461
-0.0198826
0.0201708
-0.145542
0.0202691
-0.14551
0.0202522
-0.145457
0.0201123
-0.14537
0.0198444
-0.145246
0.0194492
-0.145086
0.0189354
-0.144903
0.0183221
-0.144717
0.0176382
-0.144551
0.0169209
-0.144432
0.016211
-0.144378
0.0155457
-0.144401
0.014951
-0.144497
0.0144326
-0.14465
0.0139712
-0.144836
0.0135235
-0.145022
0.0130306
-0.145178
0.0124329
-0.145279
-0.14531
-0.0656497
-0.147351
0.06754
-0.0639057
-0.147286
-0.062072
-0.147344
-0.0601343
-0.147395
-0.0580746
-0.14743
-0.0558751
-0.147445
-0.0535223
-0.147439
-0.0510119
-0.147413
-0.048353
-0.147375
-0.045571
-0.147333
-0.0427066
-0.147296
-0.0398114
-0.147274
-0.0369397
-0.147273
-0.0341375
-0.147299
-0.0314328
-0.147355
-0.0288278
-0.147441
-0.0262975
-0.147552
-0.0237946
-0.147681
-0.0212602
-0.147813
-0.147933
0.0187822
-0.147187
-0.0189468
0.0187676
-0.147271
0.0186691
-0.147245
0.0184808
-0.147206
0.0181985
-0.147148
0.0178207
-0.147067
0.0173505
-0.146968
0.0167965
-0.146859
0.016174
-0.146753
0.0155045
-0.146664
0.0148135
-0.146605
0.0141277
-0.146588
0.0134699
-0.146615
0.0128544
-0.146683
0.012282
-0.146782
0.0117385
-0.146897
0.0111957
-0.14701
0.010617
-0.147102
0.00996525
-0.147161
-0.147179
-0.0491956
-0.148727
0.0507359
-0.0478165
-0.148651
-0.0463673
-0.148694
-0.0448377
-0.148736
-0.0432165
-0.148769
-0.041494
-0.14879
-0.0396651
-0.148797
-0.0377316
-0.148793
-0.0357045
-0.14878
-0.0336048
-0.148763
-0.0314618
-0.148748
-0.0293099
-0.14874
-0.0271824
-0.148742
-0.0251057
-0.14876
-0.0230932
-0.148795
-0.0211422
-0.148848
-0.0192336
-0.148918
-0.0173354
-0.149
-0.0154091
-0.149088
-0.149171
0.016128
-0.14846
-0.0163949
0.016022
-0.148545
0.0158511
-0.148523
0.0156105
-0.148495
0.0152973
-0.148456
0.0149116
-0.148404
0.0144574
-0.148343
0.0139428
-0.148278
0.01338
-0.148217
0.0127853
-0.148169
0.0121772
-0.14814
0.0115738
-0.148136
0.0109897
-0.148158
0.0104332
-0.148203
0.00990328
-0.148265
0.00938911
-0.148334
0.0088711
-0.1484
0.00832444
-0.148454
0.00772387
-0.148487
-0.148496
-0.0370973
-0.149692
0.0383294
-0.0360281
-0.149614
-0.0349019
-0.149649
-0.0337116
-0.149686
-0.0324501
-0.149717
-0.0311128
-0.149741
-0.0296989
-0.149757
-0.028213
-0.149764
-0.0266662
-0.149764
-0.0250756
-0.149759
-0.023463
-0.149753
-0.0218517
-0.149747
-0.0202633
-0.149747
-0.0187132
-0.149754
-0.0172075
-0.149771
-0.0157417
-0.1498
-0.0143005
-0.149841
-0.0128607
-0.149894
-0.0113954
-0.149952
-0.150013
0.0163641
-0.149275
-0.0167813
0.0161063
-0.149356
0.0157975
-0.149341
0.0154341
-0.149322
0.0150144
-0.149298
0.0145395
-0.149267
0.0140135
-0.149231
0.0134437
-0.149194
0.0128402
-0.149161
0.0122155
-0.149135
0.011583
-0.14912
0.0109552
-0.14912
0.0103417
-0.149133
0.00974712
-0.149159
0.00916953
-0.149193
0.00860036
-0.149231
0.00802526
-0.149266
0.0074265
-0.149295
0.00678601
-0.149312
-0.149316
-0.0281074
-0.150266
0.029098
-0.0272743
-0.150189
-0.0263968
-0.150218
-0.0254699
-0.150249
-0.0244888
-0.150279
-0.0234511
-0.150304
-0.0223576
-0.150325
-0.0212132
-0.150339
-0.0200275
-0.150346
-0.0188138
-0.150348
-0.0175882
-0.150346
-0.0163674
-0.15034
-0.0151659
-0.150335
-0.0139932
-0.150332
-0.0128524
-0.150334
-0.0117386
-0.150345
-0.0106401
-0.150365
-0.00953952
-0.150395
-0.00841696
-0.150435
-0.15048
0.0145149
-0.149809
-0.0149717
0.0142365
-0.149911
0.013917
-0.149899
0.0135533
-0.149885
0.0131441
-0.149869
0.0126908
-0.149851
0.0121976
-0.149831
0.0116707
-0.149812
0.0111185
-0.149794
0.0105507
-0.149781
0.0099772
-0.149772
0.00940713
-0.14977
0.00884695
-0.149775
0.00829935
-0.149784
0.00776239
-0.149797
0.00722936
-0.149811
0.00668964
-0.149825
0.00613027
-0.149836
0.00553803
-0.149842
-0.149843
-0.0202737
-0.150582
0.0210474
-0.0196712
-0.150513
-0.0190373
-0.150533
-0.0183683
-0.150554
-0.0176602
-0.150578
-0.0169115
-0.1506
-0.0161234
-0.150619
-0.0153004
-0.150635
-0.0144502
-0.150644
-0.0135834
-0.150647
-0.0127116
-0.150644
-0.0118468
-0.150635
-0.0109985
-0.150623
-0.0101726
-0.15061
-0.00936989
-0.1506
-0.00858574
-0.150596
-0.00781041
-0.150601
-0.00703047
-0.150616
-0.00623069
-0.150642
-0.150678
0.0154646
-0.016047
0.0149514
0.0144189
0.0138644
0.0132869
0.0126871
0.0120678
0.0114331
0.0107888
0.0101413
0.00949725
0.00886204
0.00823918
0.0076293
0.00702962
0.00643399
0.00583349
0.00521755
0.00457543
-0.116766
-0.0497421
0.166508
-0.0776122
-0.0391537
-0.0474593
-0.0301529
-0.0246498
-0.0228094
-0.00778361
-0.0168662
0.00435221
-0.0121358
0.0127598
-0.00840759
0.0182493
-0.00548955
0.0214657
-0.0032164
0.0229124
-0.00144666
0.0229893
-7.68682e-05
0.0219205
0.00106875
0.019948
0.00197253
0.0172631
0.00268493
0.0140482
0.00321481
0.0105132
0.00353506
0.0069267
0.00358648
0.00364334
0.00328336
0.00112844
0.0025149
0.00112844
-0.0320339
-0.0651085
0.0474002
-0.0190282
-0.0521594
-0.00820643
-0.0409747
0.00028484
-0.0313007
0.00648156
-0.0230629
0.0105395
-0.0161938
0.0127395
-0.0106076
0.0134353
-0.00618537
0.0130038
-0.00278493
0.0118158
-0.000258625
0.0101426
0.00159635
0.00833133
0.00288002
0.0065712
0.00373265
0.00498958
0.00426656
0.00364456
0.00455983
0.00253237
0.00464726
0.00161123
0.00450761
0.000845505
0.00404909
0.000263243
0.00309716
0.00139168
-0.0864023
-0.0799088
0.101203
-0.0715067
-0.0670549
-0.0571841
-0.0552973
-0.0440019
-0.0444829
-0.0323351
-0.0347298
-0.0223879
-0.0261409
-0.0142305
-0.018765
-0.00782116
-0.0125947
-0.00303277
-0.00757331
0.000313157
-0.00360456
0.00246774
-0.000558228
0.00366146
0.0016863
0.00409764
0.00329648
0.00396583
0.00439837
0.00343147
0.00509419
0.00264091
0.00543781
0.0017369
0.00541163
0.000876601
0.00490939
0.000239256
0.00373451
0.00163094
-0.0540449
-0.0917054
0.0658416
-0.0425653
-0.0785346
-0.0319564
-0.0659062
-0.0224313
-0.054008
-0.014111
-0.0430501
-0.00706441
-0.0331875
-0.00132255
-0.0245069
0.00311818
-0.0170354
0.00629816
-0.0107533
0.00829968
-0.00560607
0.00925995
-0.0015185
0.00928473
0.00166151
0.0085499
0.00403131
0.00727371
0.00567456
0.00567461
0.00669329
0.00397273
0.00713969
0.0023837
0.00700066
0.00110411
0.00618898
0.000283963
0.00455466
0.0019149
-0.0951463
-0.104764
0.108205
-0.0819849
-0.091696
-0.0693573
-0.0785338
-0.0576749
-0.0656904
-0.0471686
-0.0535564
-0.0379366
-0.0424195
-0.0299818
-0.0324617
-0.0232486
-0.0237687
-0.017653
-0.0163489
-0.0131053
-0.0101538
-0.00952787
-0.00509595
-0.0068121
-0.00105425
-0.00475769
0.00197689
-0.00325911
0.00417598
-0.00221364
0.00564783
-0.00149652
0.00642257
-0.000982345
0.00648648
-0.000570848
0.00577748
-0.000219934
0.00420375
0.00169497
-0.0781963
-0.116896
0.0903286
-0.0658875
-0.104005
-0.0539738
-0.0904474
-0.0428613
-0.0768029
-0.0328685
-0.0635492
-0.0241991
-0.0510889
-0.0169376
-0.0397232
-0.011065
-0.0296412
-0.00648714
-0.0209268
-0.00306238
-0.0135785
-0.000622324
-0.00753601
0.00103319
-0.00270977
0.00196765
0.00104244
0.00225019
0.00389343
0.00209277
0.00580524
0.00167091
0.00684443
0.00113892
0.00701847
0.000622969
0.00629343
0.000214756
0.00461196
0.00190972
-0.108304
-0.12911
0.120517
-0.0953138
-0.116995
-0.0821058
-0.103655
-0.0692154
-0.0896933
-0.057104
-0.0756606
-0.0461224
-0.0620705
-0.0364916
-0.049354
-0.0283041
-0.0378287
-0.0215434
-0.0276874
-0.016115
-0.0190069
-0.0118794
-0.0117716
-0.00868786
-0.0059013
-0.00637529
-0.00127013
-0.00459748
0.00211562
-0.00322504
0.0044328
-0.00216549
0.00578488
-0.00133968
0.00619266
-0.000699262
0.00565302
-0.000235005
0.0041477
0.00167472
-0.102265
-0.14003
0.113186
-0.0903044
-0.128955
-0.0777294
-0.11623
-0.0650678
-0.102355
-0.0528504
-0.0878779
-0.0415422
-0.0733787
-0.0314932
-0.0594031
-0.0229137
-0.0464082
-0.0158746
-0.0347265
-0.0103267
-0.0245548
-0.00613151
-0.0159668
-0.00309114
-0.00894167
-0.00095833
-0.00340294
0.00038464
0.000772654
0.00100506
0.00381238
0.00114049
0.00564945
0.000965264
0.00636788
0.000623863
0.00599442
0.000247447
0.00452412
0.00192217
-0.125324
-0.149979
0.135273
-0.113747
-0.140532
-0.100919
-0.129059
-0.0873869
-0.115887
-0.0737525
-0.101512
-0.0605987
-0.0865326
-0.0484256
-0.0715761
-0.0376016
-0.0572321
-0.0283401
-0.043988
-0.0207053
-0.0321897
-0.01464
-0.0220321
-0.0100064
-0.0135753
-0.00663098
-0.00677832
-0.00432844
-0.00152989
-0.00270091
0.00218485
-0.00158649
0.00453503
-0.000859374
0.00564077
-0.000406084
0.00554113
-0.000135009
0.00425304
0.00178716
-0.126431
-0.1581
0.134552
-0.116437
-0.150526
-0.104765
-0.140731
-0.0918606
-0.128791
-0.0782947
-0.115078
-0.0647033
-0.100124
-0.0517092
-0.0845703
-0.0398446
-0.0690967
-0.0294918
-0.0543407
-0.0208545
-0.0408269
-0.013964
-0.0289227
-0.00871102
-0.0188283
-0.00488984
-0.0105995
-0.00222684
-0.00419288
-0.000529248
0.000487256
0.000311815
0.00369397
0.000574865
0.00537772
0.000476564
0.00563943
0.000212808
0.0045168
0.00199996
-0.145289
-0.164398
0.151587
-0.136704
-0.159111
-0.125946
-0.151489
-0.113335
-0.141402
-0.0993696
-0.129043
-0.0846867
-0.114807
-0.0699905
-0.0992665
-0.055969
-0.0831182
-0.0432067
-0.0671031
-0.0321172
-0.0519165
-0.0229123
-0.0381275
-0.0156133
-0.0261272
-0.0100948
-0.0161181
-0.00614638
-0.00814127
-0.00353657
-0.00212256
-0.00184329
0.00200069
-0.000832854
0.00436728
-0.000305813
0.00511239
-7.63922e-05
0.00428738
0.00192357
-0.149843
-0.168527
0.153972
-0.14343
-0.165523
-0.134629
-0.160291
-0.12354
-0.152491
-0.110485
-0.142098
-0.0959926
-0.1293
-0.0807516
-0.114508
-0.06554
-0.0983297
-0.051125
-0.0815181
-0.038159
-0.0648825