/*--------------------------------*- C++ -*----------------------------------*\
| =========                 |                                                 |
| \\      /  F ield         | OpenFOAM: The Open Source CFD Toolbox           |
|  \\    /   O peration     | Version:  v1806                                 |
|   \\  /    A nd           | Web:      www.OpenFOAM.com                      |
|    \\/     M anipulation  |                                                 |
\*---------------------------------------------------------------------------*/
FoamFile
{
    version     2.0;
    format      ascii;
    class       surfaceScalarField;
    location    "430";
    object      phi;
}
// * * * * * * * * * * * * * * * * * * * * * * * * * * * * * * * * * * * * * //

dimensions      [0 3 -1 0 0 0 0];
oriented        oriented;


internalField   nonuniform List<scalar> 
4680
(
0.0825007
-8.75339e-05
0.0825027
-0.000262761
0.0825062
-0.000437653
0.0825113
-0.000611143
0.0825181
-0.000782558
0.0825267
-0.000951256
0.0825372
-0.00111662
0.0825496
-0.00127803
0.0825642
-0.00143491
0.0825809
-0.00158666
0.0825998
-0.00173274
0.082621
-0.00187264
0.0826444
-0.00200581
0.0826701
-0.00213194
0.0826981
-0.00225027
0.0827283
-0.00236139
0.0827606
-0.00246265
0.0827954
-0.0025599
0.0828318
-0.00263766
-0.00273399
0.0828692
0.0825017
-8.92161e-05
0.0825067
-0.000267803
0.0825151
-0.000446036
0.0825268
-0.000622884
0.082542
-0.000797683
0.0825605
-0.000969795
0.0825825
-0.0011386
0.0826079
-0.00130347
0.0826368
-0.0014638
0.0826692
-0.001619
0.0827049
-0.00176849
0.082744
-0.00191172
0.0827863
-0.00204812
0.0828317
-0.00217736
0.08288
-0.00229857
0.0829311
-0.00241246
0.0829844
-0.00251591
0.0830402
-0.0026157
0.0830963
-0.00269378
-0.00279546
0.0831578
0.0825027
-9.19517e-05
0.0825109
-0.000276013
0.0825246
-0.00045972
0.0825438
-0.000642041
0.0825684
-0.000822314
0.0825985
-0.000999897
0.0826341
-0.00117415
0.0826751
-0.00134445
0.0827214
-0.00151016
0.0827731
-0.00167064
0.0828298
-0.00182527
0.0828916
-0.00197348
0.0829581
-0.0021146
0.083029
-0.0022483
0.083104
-0.00237352
0.0831827
-0.00249116
0.0832642
-0.00259742
0.0833491
-0.00270057
0.083434
-0.00277873
-0.00288632
0.0835249
0.0825038
-9.57663e-05
0.0825153
-0.000287461
0.0825344
-0.000478811
0.0825611
-0.000668779
0.0825955
-0.000856703
0.0826375
-0.00104193
0.0826872
-0.00122382
0.0827444
-0.00140171
0.0828092
-0.00157492
0.0828813
-0.00174278
0.0829607
-0.00190459
0.0830469
-0.00205972
0.0831397
-0.00220739
0.0832386
-0.00234724
0.0833431
-0.00247796
0.0834526
-0.00260071
0.0835659
-0.00271067
0.0836836
-0.00281829
0.0838009
-0.002896
-0.00301177
0.0839263
0.0825049
-0.000100671
0.0825196
-0.000302176
0.0825442
-0.000503354
0.0825786
-0.000703172
0.0826228
-0.000900978
0.082677
-0.00109612
0.0827411
-0.00128793
0.0828151
-0.00147573
0.082899
-0.00165878
0.0829926
-0.00183635
0.0830957
-0.00200767
0.0832079
-0.00217199
0.0833289
-0.0023284
0.0834582
-0.00247647
0.0835947
-0.00261454
0.0837382
-0.00274415
0.0838865
-0.00285903
0.0840409
-0.00297262
0.0841944
-0.00304953
-0.00317636
0.084359
0.082506
-0.00010666
0.082524
-0.000320138
0.0825539
-0.000533317
0.0825959
-0.000745203
0.0826501
-0.000955166
0.0827166
-0.00116257
0.0827954
-0.00136673
0.0828866
-0.00156694
0.0829902
-0.00176242
0.0831062
-0.00195236
0.0832344
-0.00213585
0.0833745
-0.00231207
0.083526
-0.00247986
0.0836882
-0.00263873
0.0838602
-0.00278653
0.0840414
-0.0029253
0.0842291
-0.00304674
0.0844249
-0.00316841
0.0846196
-0.00324427
-0.00338586
0.0848291
0.082507
-0.000113697
0.0825281
-0.000341236
0.0825633
-0.000568525
0.0826128
-0.000794656
0.0826767
-0.00101906
0.0827552
-0.00124113
0.0828487
-0.0014602
0.0829573
-0.00167555
0.0830813
-0.00188634
0.0832206
-0.00209168
0.0833752
-0.00229052
0.0835451
-0.00248189
0.0837296
-0.00266435
0.0839282
-0.00283733
0.0841396
-0.00299796
0.0843633
-0.00314896
0.0845958
-0.00327929
0.0848394
-0.00341198
0.0850818
-0.0034867
-0.00364804
0.085344
0.082508
-0.000121695
0.082532
-0.000365201
0.082572
-0.000608533
0.0826283
-0.000850955
0.0827012
-0.00109201
0.0827913
-0.00133117
0.0828989
-0.00156782
0.0830246
-0.00180124
0.0831688
-0.00203056
0.0833319
-0.0022548
0.0835141
-0.00247276
0.0837155
-0.00268329
0.0839358
-0.00288459
0.0841744
-0.00307597
0.0844301
-0.0032536
0.0847022
-0.00342108
0.0849865
-0.00356361
0.0852861
-0.00371154
0.0855848
-0.00378539
-0.0039734
0.0859101
0.0825088
-0.000130482
0.0825351
-0.000391511
0.082579
-0.000652471
0.082641
-0.00091294
0.0827217
-0.00117264
0.0828217
-0.0014312
0.082942
-0.00168811
0.0830834
-0.0019427
0.083247
-0.00219412
0.0834335
-0.00244132
0.0836437
-0.00268293
0.083878
-0.0029176
0.0841365
-0.00314308
0.0844191
-0.00335854
0.0847243
-0.00355882
0.0850519
-0.00374875
0.0853966
-0.00390831
0.0857628
-0.0040777
0.086129
-0.00415161
-0.00437609
0.0865317
0.0825093
-0.000139754
0.082537
-0.000419258
0.0825834
-0.000698832
0.082649
-0.000978571
0.0827349
-0.00125848
0.0828421
-0.00153845
0.0829721
-0.00181815
0.0831265
-0.00209708
0.0833069
-0.00237445
0.0835148
-0.00264922
0.0837517
-0.00291986
0.084019
-0.00318487
0.0843173
-0.0034414
0.0846472
-0.00368852
0.0850077
-0.00391926
0.0853991
-0.00414013
0.0858146
-0.00432387
0.0862609
-0.00452402
0.0867095
-0.00460015
-0.00487537
0.0872088
0.0825093
-0.000149021
0.082537
-0.000446962
0.0825833
-0.000745198
0.0826493
-0.00104456
0.0827363
-0.00134547
0.0828461
-0.00164821
0.0829807
-0.00195281
0.0831427
-0.00225905
0.0833346
-0.00256633
0.0835591
-0.00287376
0.083819
-0.00317975
0.0841168
-0.00348269
0.0844546
-0.0037791
0.084834
-0.004068
0.0852548
-0.00434002
0.0857187
-0.00460402
0.0862175
-0.00482268
0.0867612
-0.00506775
0.0873116
-0.00515049
-0.00549793
0.0879341
0.0825085
-0.000157551
0.082534
-0.000472409
0.0825767
-0.000787942
0.0826381
-0.00110592
0.08272
-0.00142737
0.0828249
-0.00175315
0.0829559
-0.00208382
0.0831166
-0.00241968
0.0833108
-0.00276057
0.083543
-0.00310594
0.0838176
-0.00345435
0.0841392
-0.00380432
0.0845118
-0.00415173
0.0849397
-0.00449584
0.0854237
-0.00482408
0.0859686
-0.00514886
0.0865645
-0.00541858
0.0872273
-0.00573058
0.087905
-0.00582822
-0.00628156
0.0886886
0.0825068
-0.000164317
0.0825269
-0.000492518
0.0825609
-0.000821974
0.0826106
-0.00115557
0.0826784
-0.00149518
0.0827676
-0.00184243
0.0828825
-0.00219871
0.0830279
-0.0025651
0.0832096
-0.00294221
0.0834339
-0.00333027
0.083708
-0.00372838
0.0840393
-0.00413564
0.0844351
-0.00454755
0.0849035
-0.00496422
0.0854485
-0.00536906
0.0860797
-0.00578008
0.0867864
-0.00612525
0.087595
-0.00653918
0.0884334
-0.00666662
-0.00728117
0.089433
0.0825037
-0.000167973
0.0825144
-0.000503268
0.082533
-0.000840598
0.0825616
-0.00118411
0.0826031
-0.00153669
0.0826617
-0.00190103
0.0827426
-0.00227965
0.0828524
-0.00267485
0.0829987
-0.0030885
0.0831905
-0.00352214
0.0834383
-0.00397611
0.0837536
-0.00445096
0.0841485
-0.0049425
0.0846372
-0.00545292
0.0852293
-0.00596112
0.0859435
-0.00649428
0.0867695
-0.00695128
0.087754
-0.00752367
0.0887943
-0.00770692
-0.00857928
0.0900924
0.0824989
-0.000166891
0.0824955
-0.000499802
0.0824905
-0.000835667
0.0824863
-0.00117991
0.0824862
-0.00153657
0.0824948
-0.0019096
0.0825181
-0.00230297
0.0825639
-0.00272069
0.082642
-0.00316658
0.0827643
-0.00364443
0.082945
-0.00415683
0.0832011
-0.004707
0.0835513
-0.00529274
0.0840186
-0.00592022
0.0846223
-0.00656486
0.0853959
-0.00726783
0.0863342
-0.00788958
0.0875195
-0.00870894
0.0888047
-0.00899216
-0.0103019
0.0905273
0.0824924
-0.000159304
0.0824695
-0.000476859
0.0824321
-0.000798273
0.0823822
-0.00113006
0.082323
-0.00147735
0.0822588
-0.00184543
0.0821958
-0.0022399
0.0821419
-0.00266685
0.0821081
-0.00313273
0.0821083
-0.00364461
0.0821605
-0.00420912
0.0822878
-0.0048343
0.0825178
-0.00552273
0.0828849
-0.00628726
0.0834254
-0.00710542
0.0841933
-0.00803564
0.0852042
-0.00890049
0.0865877
-0.0100925
0.0881521
-0.0105566
-0.0126185
0.0904688
0.0824843
-0.000143601
0.0824371
-0.000429657
0.082359
-0.000720201
0.0822513
-0.00102234
0.0821159
-0.00134197
0.0819559
-0.00168543
0.0817758
-0.0020598
0.0815822
-0.00247325
0.0813847
-0.00293518
0.0811967
-0.00345665
0.0810374
-0.00404976
0.0809327
-0.00472965
0.0809187
-0.00550868
0.0810423
-0.00641093
0.0813653
-0.00742836
0.081967
-0.00863734
0.0829282
-0.00986179
0.0844224
-0.0115866
0.0863051
-0.0124393
-0.0157
0.0893866
0.0824752
-0.000118797
0.0824008
-0.000355249
0.0822768
-0.00059621
0.082103
-0.000848562
0.0818793
-0.00111821
0.0816056
-0.00141175
0.0812828
-0.00173698
0.080913
-0.00210344
0.0805006
-0.00252282
0.0800538
-0.00300981
0.0795864
-0.00358236
0.0791207
-0.00426395
0.0786922
-0.00508027
0.0783521
-0.00607077
0.0781803
-0.00725653
0.0782737
-0.00873078
0.0788137
-0.0104018
0.0800339
-0.0128068
0.0822019
-0.0146073
-0.0196848
0.0861867
0.0824663
-8.50722e-05
0.0823652
-0.000254147
0.0821958
-0.000426879
0.0819562
-0.000608913
0.0816428
-0.000804822
0.0812512
-0.00102011
0.080776
-0.00126177
0.0802113
-0.00153875
0.0795511
-0.00186268
0.0787906
-0.00224933
0.0779279
-0.00271963
0.0769678
-0.00330379
0.0759283
-0.00404082
0.0748503
-0.00499273
0.0738185
-0.00622477
0.0729406
-0.00785293
0.0724543
-0.00991547
0.0726718
-0.0130242
0.0744905
-0.0164261
-0.0232579
0.0780636
0.0824595
-4.45879e-05
0.0823368
-0.000131387
0.0821313
-0.000221446
0.0818387
-0.000316282
0.0814517
-0.000417879
0.080961
-0.000529373
0.0803539
-0.000654647
0.079614
-0.00079885
0.0787203
-0.000968956
0.0776464
-0.00117548
0.0763604
-0.00143358
0.0748255
-0.0017689
0.073004
-0.0022193
0.0708686
-0.00285733
0.0684298
-0.00378598
0.0658099
-0.00523308
0.0633559
-0.00746144
0.0615314
-0.0111997
0.0611954
-0.0160901
0.0568607
-0.0189232
0.0831199
-0.022489
0.0834911
-0.0259904
0.0838403
-0.0258695
0.0841785
-0.0226529
0.0845029
-0.0196128
0.0847907
-0.0158238
0.0850573
-0.0118967
0.0852915
-0.00731205
0.0854893
-0.00281494
0.00196906
0.0856342
0.0834296
-0.0227608
0.0839435
-0.0265043
0.0843249
-0.0262509
0.0846533
-0.0229813
0.0849717
-0.0199312
0.085241
-0.016093
0.0854858
-0.0121415
0.0856857
-0.00751199
0.085846
-0.00297525
0.00187934
0.0859358
0.0838595
-0.0230955
0.0845635
-0.0272083
0.0850074
-0.0266948
0.0853551
-0.023329
0.0856895
-0.0202656
0.0859532
-0.0163567
0.0861875
-0.0123758
0.086361
-0.00768547
0.0864823
-0.00309659
0.00186135
0.0865003
0.0843451
-0.0235142
0.0852576
-0.0281209
0.0857788
-0.027216
0.0861681
-0.0237182
0.0865356
-0.0206332
0.0868099
-0.0166309
0.0870506
-0.0126166
0.0872132
-0.00784809
0.087309
-0.00319236
0.00190735
0.087263
0.0848709
-0.0240262
0.0860064
-0.0292564
0.086606
-0.0278156
0.0870489
-0.0241611
0.0874587
-0.0210431
0.0877533
-0.0169256
0.0880125
-0.0128758
0.0881765
-0.00801211
0.08826
-0.00327576
0.0020071
0.0881602
0.0854398
-0.0246368
0.0868118
-0.0306284
0.0874842
-0.0284879
0.0879874
-0.0246643
0.0884423
-0.021498
0.0887605
-0.0172437
0.089043
-0.0131583
0.0892135
-0.00818261
0.0892909
-0.00335319
0.00215654
0.0891415
0.0860595
-0.0253523
0.0876818
-0.0322507
0.0884179
-0.0292241
0.0889853
-0.0252317
0.0894831
-0.0219957
0.0898215
-0.0175822
0.0901241
-0.0134609
0.0902968
-0.00835529
0.0903651
-0.00342143
0.00236068
0.0901609
0.0867395
-0.0261817
0.0886253
-0.0341365
0.0894139
-0.0300127
0.0900466
-0.0258644
0.090578
-0.0225271
0.090924
-0.0179283
0.0912312
-0.0137681
0.0913887
-0.00851275
0.0914323
-0.00346507
0.00263474
0.0911583
0.0874899
-0.0271399
0.0896518
-0.0362984
0.0904779
-0.0308388
0.0911705
-0.026557
0.0917117
-0.0230683
0.0920344
-0.018251
0.0923102
-0.0140439
0.0924155
-0.00861809
0.0924038
-0.00345337
0.0030042
0.0920344
0.0883222
-0.0282533
0.0907696
-0.0387458
0.0916095
-0.0316787
0.0923386
-0.0272862
0.0928349
-0.0235645
0.0930702
-0.0184862
0.0932459
-0.0142196
0.093235
-0.00860725
0.0931203
-0.00333862
0.00350175
0.0926227
0.0892519
-0.0295711
0.0919824
-0.0414763
0.0927862
-0.0324825
0.0934857
-0.0279857
0.0938243
-0.0239031
0.0938555
-0.0185174
0.0938182
-0.0141822
0.0935964
-0.00838552
0.0933182
-0.00306042
0.00415805
0.0926619
0.0902996
-0.0311821
0.0932699
-0.0444466
0.0939231
-0.0331357
0.0944414
-0.028504
0.0944178
-0.0238795
0.0940614
-0.0181611
0.0936528
-0.0137736
0.0931041
-0.00783684
0.0926062
-0.00256247
0.00498428
0.0917799
0.0914815
-0.0332306
0.0945329
-0.047498
0.094787
-0.0333898
0.0948333
-0.0285503
0.0941317
-0.0231779
0.0931485
-0.0171779
0.0921892
-0.0128143
0.0912092
-0.00685679
0.0904731
-0.00182637
0.00594652
0.0895108
0.0927607
-0.0358989
0.0954693
-0.0502067
0.0948586
-0.0327792
0.0939558
-0.0276474
0.0921962
-0.0214183
0.0903531
-0.0153348
0.0887067
-0.0111679
0.0872642
-0.00541431
0.0863535
-0.000915707
0.00694021
0.0853599
0.0939064
-0.039278
0.0953586
-0.0516588
0.0931656
-0.0305861
0.0907192
-0.025201
0.0875819
-0.018281
0.084783
-0.012536
0.0824583
-0.00884314
0.0806709
-0.00362697
0.0797622
-6.95394e-06
0.00778223
0.0789202
0.0941867
-0.0429959
0.0927888
-0.050261
0.0881962
-0.0259935
0.0837409
-0.0207458
0.0792255
-0.0137656
0.0756775
-0.00898795
0.072926
-0.00609164
0.071109
-0.00180998
0.0704534
0.0006486
0.00823995
0.0699957
0.091845
-0.0454542
0.0854941
-0.0439101
0.0781074
-0.0186068
0.0717733
-0.0144117
0.0664955
-0.00848779
0.0627973
-0.00528977
0.0601152
-0.00340945
0.0587007
-0.000395479
0.058515
0.000834238
0.00810333
0.0586516
0.0835325
-0.0428001
0.0707064
-0.031084
0.0615071
-0.00940748
0.0545127
-0.00741723
0.0497395
-0.00371462
0.0467103
-0.0022606
0.0446545
-0.00135364
0.0439778
0.000281266
0.0442516
0.000560402
0.00717742
0.0451775
0.0642738
-0.0290103
0.0465727
-0.0133829
0.0388053
-0.00164011
0.0333441
-0.00195598
0.0303833
-0.000753819
0.0286082
-0.000485533
0.0275004
-0.00024588
0.0275265
0.000255183
0.027943
0.000143952
0.00494708
0.0301733
0.0278504
0.0144676
0.0128274
0.0108715
0.0101176
0.00963211
0.00938623
0.00964142
0.00978537
0.0147324
0.0856863
0.00217149
0.0857256
0.0029057
0.0857572
0.00355428
0.0857822
0.00410819
0.0858024
0.00456542
0.0858189
0.00493086
0.0858331
0.00521458
0.0858456
0.00542637
0.0858574
0.00557725
0.0858687
0.0056763
0.0858803
0.00573466
0.0858919
0.00576004
0.0859043
0.0057627
0.0859169
0.00574749
0.0859306
0.00572384
0.0859444
0.00569341
0.0859595
0.00566548
0.0859742
0.00563805
0.0859908
0.0056205
0.00560729
0.0859546
0.00215265
0.0859633
0.00289703
0.0859642
0.00355337
0.085961
0.00411139
0.0859567
0.00456968
0.085953
0.0049346
0.0859507
0.00521689
0.0859501
0.00542693
0.0859519
0.00557552
0.0859557
0.00567246
0.0859619
0.00572841
0.0859699
0.00575205
0.0859801
0.00575253
0.0859914
0.00573615
0.0860047
0.00571052
0.0860185
0.00567963
0.0860341
0.00564991
0.0860492
0.00562291
0.0860657
0.00560401
0.00559305
0.0864801
0.00217285
0.0864458
0.00293131
0.0864024
0.00359681
0.0863562
0.00415758
0.0863124
0.00461348
0.0862734
0.00497361
0.0862403
0.00524996
0.0862135
0.00545377
0.0861933
0.00559572
0.0861791
0.00568659
0.0861709
0.00573663
0.0861675
0.00575551
0.0861688
0.00575124
0.0861733
0.00573158
0.0861816
0.00570223
0.0861917
0.00566952
0.0862047
0.00563698
0.0862178
0.00560976
0.0862327
0.00558914
0.00557937
0.0872044
0.00223146
0.0871257
0.00300993
0.0870349
0.00368761
0.0869417
0.00425084
0.0868532
0.00470196
0.0867729
0.00505393
0.0867023
0.00532059
0.086642
0.00551405
0.0865925
0.00564523
0.0865531
0.005726
0.0865232
0.00576645
0.0865015
0.00577721
0.0864875
0.00576524
0.0864795
0.00573965
0.0864773
0.00570442
0.0864788
0.00566795
0.0864846
0.00563121
0.086492
0.00560238
0.0865018
0.00557934
0.00556995
0.0880655
0.00232617
0.0879437
0.00313172
0.0878061
0.00382523
0.0876662
0.00439069
0.0875332
0.00483495
0.0874111
0.00517606
0.0873017
0.00542997
0.0872062
0.00560954
0.087125
0.00572643
0.0870575
0.00579354
0.0870027
0.00582124
0.0869592
0.00582074
0.086926
0.00579845
0.0869013
0.00576428
0.0868846
0.00572115
0.0868738
0.00567878
0.0868685
0.00563646
0.0868666
0.00560433
0.0868677
0.0055782
0.00556807
0.0890107
0.00245697
0.0888447
0.0032977
0.0886596
0.00401038
0.0884735
0.00457677
0.0882968
0.00501162
0.0881338
0.00533908
0.0879865
0.0055773
0.0878564
0.00573958
0.0877439
0.00583899
0.0876481
0.00588927
0.0875678
0.00590157
0.0875015
0.00588703
0.0874477
0.00585228
0.0874049
0.00580713
0.0873715
0.00575447
0.0873462
0.00570414
0.0873275
0.00565514
0.0873138
0.005618
0.0873038
0.00558822
0.00557613
0.0899895
0.00262837
0.0897738
0.00351342
0.0895371
0.00424705
0.0893028
0.0048111
0.0890815
0.0052329
0.0888773
0.00554331
0.0886923
0.00576233
0.0885284
0.00590347
0.0883852
0.00598215
0.0882621
0.00601244
0.0881567
0.00600694
0.088068
0.00597573
0.0879935
0.00592674
0.0879323
0.0058684
0.0878818
0.00580495
0.0878412
0.00574474
0.0878081
0.00568822
0.0877816
0.00564445
0.0877592
0.0056106
0.00559539
0.0909362
0.00285047
0.0906599
0.00378964
0.0903642
0.00454276
0.090077
0.00509836
0.0898078
0.0055021
0.0895602
0.00579091
0.0893364
0.0059861
0.0891385
0.00610138
0.088965
0.00615566
0.0888149
0.0061625
0.0886851
0.00613677
0.0885746
0.00608617
0.08848
0.00602136
0.0884009
0.00594755
0.0883335
0.00587237
0.0882779
0.00580029
0.0882304
0.0057357
0.0881913
0.0056836
0.0881565
0.00564539
0.00562588
0.0917453
0.00313953
0.0913932
0.00414173
0.0910288
0.00490719
0.0906824
0.00544474
0.0903607
0.00582381
0.0900668
0.00608485
0.0898029
0.00624994
0.0895707
0.00633355
0.0893672
0.0063592
0.089191
0.00633867
0.0890377
0.00629009
0.0889068
0.00621711
0.0887932
0.00613495
0.0886975
0.00604323
0.0886143
0.00595557
0.0885452
0.00586941
0.0884844
0.00579646
0.088434
0.00573403
0.088388
0.00569135
0.00566607
0.0922443
0.00351798
0.0917992
0.00458686
0.0913575
0.00534885
0.0909471
0.0058551
0.0905697
0.00620126
0.0902285
0.00642602
0.0899256
0.00655284
0.0896612
0.00659796
0.0894302
0.00659022
0.0892308
0.00653801
0.0890572
0.00646377
0.0889091
0.00636522
0.0887797
0.00626432
0.0886709
0.00615203
0.088575
0.00605142
0.0884958
0.00594863
0.0884249
0.00586733
0.0883669
0.00579208
0.0883132
0.0057451
0.00571204
0.0921679
0.00401203
0.0916167
0.00513804
0.0910962
0.00586931
0.0906228
0.00632852
0.0901923
0.00663172
0.0898096
0.00680872
0.0894752
0.0068873
0.0891865
0.00688664
0.0889362
0.00684052
0.0887219
0.00675228
0.088536
0.00664966
0.0883788
0.00652249
0.0882414
0.00640173
0.0881271
0.00626625
0.0880259
0.00615263
0.0879442
0.00603039
0.0878702
0.00594134
0.0878121
0.00585016
0.0877577
0.0057995
0.00575594
0.0911465
0.00464548
0.0904906
0.0057939
0.0899044
0.00645558
0.0893803
0.00685258
0.0889121
0.00709998
0.0885061
0.00721467
0.088159
0.00723437
0.0878645
0.00718116
0.087613
0.00709204
0.0874012
0.0069641
0.0872199
0.00683095
0.0870695
0.00667289
0.0869394
0.00653177
0.0868347
0.00637102
0.0867423
0.00624501
0.0866721
0.00610059
0.0866083
0.00600513
0.086564
0.00589444
0.0865221
0.00584142
0.00578396
0.0887252
0.00543113
0.0879946
0.00652442
0.0873769
0.00707332
0.0868322
0.00739729
0.0863608
0.00757139
0.085968
0.00760747
0.0856433
0.00755908
0.085376
0.0074484
0.0851551
0.00731294
0.0849759
0.00714333
0.0848281
0.00697873
0.0847119
0.00678915
0.0846155
0.00662815
0.0845452
0.00644131
0.0844858
0.00630439
0.0844506
0.00613579
0.0844195
0.00603628
0.0844115
0.00590244
0.0844035
0.00584944
0.00577419
0.0844317
0.00635933
0.0836951
0.00726097
0.0831023
0.00766616
0.0825888
0.00791074
0.0821732
0.00798699
0.0818507
0.00792999
0.0816017
0.00780809
0.0814123
0.00763784
0.0812703
0.00745488
0.0811693
0.00724435
0.0810987
0.00704929
0.0810578
0.00683005
0.081035
0.00665098
0.0810368
0.00643951
0.081047
0.00629418
0.0810816
0.00610119
0.0811168
0.0060011
0.0811779
0.00584135
0.0812352
0.00579206
0.0056953
0.0778895
0.00738996
0.0772502
0.00790033
0.076749
0.00816736
0.0763446
0.00831512
0.0760682
0.0082634
0.0758927
0.00810547
0.0757919
0.00790888
0.0757496
0.00768013
0.0757529
0.0074516
0.0757928
0.00720442
0.0758596
0.00698254
0.0759508
0.00673888
0.0760561
0.0065456
0.0761814
0.00631428
0.076311
0.00616459
0.076462
0.00595018
0.0766087
0.0058544
0.0767817
0.00566833
0.0769456
0.00562816
0.00550738
0.0689288
0.00845687
0.0685145
0.00831462
0.0681624
0.00851948
0.0679753
0.00850225
0.0679443
0.00829434
0.0680139
0.00803588
0.0681558
0.007767
0.068351
0.00748497
0.0685849
0.00721767
0.0688461
0.00694317
0.0691261
0.00670257
0.0694203
0.00644466
0.0697212
0.00624469
0.0700323
0.00600326
0.0703409
0.00585596
0.0706631
0.00562799
0.070974
0.00554351
0.0713075
0.00533479
0.0716242
0.00531144
0.00516647
0.0576269
0.00948158
0.0575615
0.00838001
0.0574518
0.0086292
0.0576474
0.00830665
0.0580012
0.00794059
0.058446
0.00759105
0.0589523
0.00726071
0.0594961
0.00694113
0.0600615
0.00665226
0.0606357
0.00636901
0.0612122
0.00612607
0.0617852
0.00587164
0.0623511
0.0056788
0.0629109
0.00544348
0.0634571
0.00530979
0.064003
0.00508203
0.0645275
0.00501902
0.0650661
0.00479623
0.0655768
0.0048007
0.00463382
0.0443217
0.0103374
0.0447612
0.00794042
0.0451544
0.00823602
0.046
0.00746106
0.0469245
0.00701612
0.0479064
0.00660915
0.0489111
0.00625602
0.049914
0.00593826
0.0509027
0.00566348
0.0518676
0.00540417
0.0528068
0.00518684
0.0537157
0.00496279
0.054596
0.00479847
0.0554475
0.00459201
0.0562693
0.00448792
0.0570717
0.00427965
0.0578395
0.00425127
0.0586083
0.00402739
0.0593347
0.00407428
0.00388824
0.0298712
0.0106395
0.0312274
0.00658421
0.0326349
0.00682853
0.0344023
0.00569367
0.0360692
0.00534923
0.0377108
0.00496758
0.0392903
0.00467649
0.0408018
0.00442675
0.042246
0.00421931
0.0436218
0.00402835
0.0449357
0.00387295
0.0461865
0.00371202
0.0473833
0.00360163
0.0485248
0.0034505
0.0496196
0.0033931
0.0506716
0.00322768
0.0516775
0.00324538
0.0526664
0.00303844
0.0535977
0.00314296
0.0029372
0.0166635
0.00870853
0.0194654
0.00378227
0.0222412
0.00405268
0.024929
0.00300595
0.0273208
0.00295738
0.0295748
0.00271358
0.0316584
0.00259287
0.0336057
0.00247943
0.035432
0.00239307
0.0371469
0.00231342
0.0387669
0.00225299
0.0402927
0.00218622
0.0417447
0.00214958
0.0431138
0.00208142
0.0444294
0.00207756
0.0456697
0.00198731
0.0468735
0.00204155
0.0480179
0.00189411
0.0491193
0.0020415
0.00183579
0.00207339
0.00663514
0.00272687
0.00312879
0.00343466
0.00334489
0.0039528
0.00248782
0.00444962
0.00246055
0.00489265
0.00227055
0.00530229
0.00218324
0.00568136
0.00210036
0.00603546
0.00203897
0.00636625
0.00198263
0.00667832
0.00194092
0.00697039
0.00189415
0.00724965
0.00187032
0.0075092
0.00182187
0.00776367
0.00182309
0.00799427
0.00175671
0.00823235
0.00180347
0.00843539
0.00169108
0.00866476
0.00181213
0.00165295
0.00183449
0.00480065
0.00252554
0.00243774
0.0032773
0.00259314
0.0038088
0.00195631
0.00431902
0.00195034
0.00477039
0.00181918
0.00518747
0.00176616
0.00557262
0.00171521
0.00593202
0.00167957
0.00626742
0.00164723
0.00658364
0.0016247
0.00687937
0.00159841
0.00716207
0.00158761
0.00742456
0.00155939
0.00768207
0.00156557
0.00791491
0.00152387
0.00815602
0.00156236
0.00836033
0.00148677
0.00859309
0.00157937
0.00146968
0.00164723
0.00315342
0.00237646
0.0017085
0.00315484
0.00181476
0.00369867
0.00141248
0.00421798
0.00143102
0.00467566
0.00136151
0.00509809
0.00134372
0.00548765
0.00132565
0.00585085
0.00131637
0.00618958
0.0013085
0.00650876
0.00130552
0.00680713
0.00130004
0.00709226
0.00130249
0.0073569
0.00129474
0.0076165
0.00130598
0.0078511
0.00128927
0.00809412
0.00131934
0.0082998
0.00128109
0.00853418
0.00134499
0.00128482
0.00152102
0.0016324
0.00227532
0.000954195
0.00307085
0.00101923
0.00362255
0.000860786
0.00414755
0.000906027
0.0046091
0.00089996
0.00503481
0.000918012
0.00542703
0.000933425
0.00579252
0.000950883
0.00613322
0.000967797
0.00645416
0.000984587
0.00675409
0.00100011
0.00704065
0.00101593
0.00730658
0.00102881
0.00756741
0.00104514
0.00780306
0.00105362
0.00804723
0.00107517
0.00825371
0.00107461
0.00848909
0.00110961
0.00109899
0.00145655
0.00017585
0.00222311
0.000187642
0.00302629
0.000216046
0.00358117
0.000305908
0.0041083
0.000378892
0.00457124
0.000437018
0.00499809
0.000491163
0.0053912
0.000540316
0.00575741
0.00058467
0.00609873
0.000626478
0.00642019
0.000663128
0.0067206
0.000699701
0.00700758
0.000728954
0.00727389
0.000762502
0.0075351
0.000783931
0.00777106
0.000817651
0.00801561
0.000830627
0.00822233
0.000867887
0.00845804
0.000873899
0.000912782
0.0014544
-0.00127855
0.00222034
-0.000578297
0.00302168
-0.000585294
0.0035749
-0.000247318
0.00410059
-0.000146797
0.0045624
-2.47874e-05
0.00498823
6.53256e-05
0.00538042
0.000148126
0.00574579
0.000219303
0.00608634
0.000285926
0.00640709
0.000342381
0.00670686
0.000399935
0.00699324
0.000442572
0.00725903
0.000496711
0.00751974
0.000523216
0.00775529
0.0005821
0.00799944
0.00058648
0.00820582
0.000661512
0.00844123
0.000638481
0.00072683
0.00151465
-0.0027932
0.00226708
-0.00133073
0.00305706
-0.00137527
0.00360381
-0.000794074
0.00412448
-0.000667467
0.00458263
-0.000482939
0.00500531
-0.000357353
0.00539479
-0.000241346
0.00575774
-0.00014365
0.00609614
-5.24787e-05
0.00641494
2.35822e-05
0.00671297
0.00010191
0.00699773
0.000157805
0.0072621
0.000232344
0.00752145
0.000263864
0.00775585
0.000347701
0.00799882
0.00034351
0.00820428
0.000456056
0.00843875
0.000404005
0.000541759
0.00163696
-0.00443016
0.00236298
-0.00205674
0.00313199
-0.00214428
0.00366763
-0.00132971
0.00417978
-0.00117961
0.00463181
-0.000934974
0.00504922
-0.000774758
0.0054342
-0.000626326
0.00579319
-0.000502639
0.00612808
-0.000387375
0.00644371
-0.000292044
0.0067389
-0.000193278
0.00702104
-0.000124341
0.00728309
-2.97044e-05
0.00754022
6.73678e-06
0.00777274
0.000115179
0.00801376
0.00010249
0.00821773
0.000252086
0.00845062
0.00017112
0.000358187
0.00182086
-0.00625103
0.00250716
-0.00274304
0.0032456
-0.00288272
0.00376574
-0.00184986
0.00426602
-0.00167989
0.00470956
-0.00137852
0.00511964
-0.00118483
0.0054984
-0.00100509
0.00585191
-0.000856151
0.00618196
-0.000717428
0.00649322
-0.000603299
0.0067845
-0.00048456
0.00706304
-0.000402876
0.00732189
-0.000288555
0.00757595
-0.000247321
0.00780587
-0.000114749
0.00804419
-0.000135822
0.00824611
5.01598e-05
0.00847676
-5.95302e-05
0.000176723
0.00205627
-0.00830729
0.00270465
-0.00339142
0.00339419
-0.00357226
0.00389818
-0.00235384
0.00438228
-0.002164
0.0048154
-0.00181164
0.00521608
-0.0015855
0.00558698
-0.00137599
0.00593354
-0.00120271
0.00625747
-0.00104136
0.00656317
-0.000909005
0.00684953
-0.000770923
0.00712345
-0.000676789
0.00737833
-0.00054344
0.00762835
-0.000497338
0.00785523
-0.000341628
0.00808968
-0.000370275
0.00828973
-0.000149888
0.00851624
-0.000286037
-3.94307e-06
0.0213862
-0.0103511
-0.0193424
0.0244141
-0.00641929
0.0273949
-0.0065531
0.0304142
-0.00537307
0.0331285
-0.00487837
0.0357032
-0.00438628
0.0380953
-0.00397767
0.0403359
-0.00361659
0.042441
-0.00330775
0.0444216
-0.00302203
0.0462953
-0.00278265
0.0480644
-0.00254004
0.0497496
-0.00236196
0.0513443
-0.00213814
0.0528762
-0.00202926
0.0543292
-0.0017946
0.0557357
-0.00177677
0.0570844
-0.00149865
0.0583808
-0.00158238
-0.00129856
0.0415588
-0.00929455
-0.0426153
0.0425582
-0.00741867
0.0435855
-0.0075804
0.0451573
-0.00694488
0.0467034
-0.00642451
0.0482626
-0.00594546
0.0497958
-0.00551086
0.051286
-0.00510674
0.0527263
-0.00474806
0.0541125
-0.00440828
0.0554469
-0.00411699
0.0567289
-0.00382206
0.0579618
-0.0035949
0.0591507
-0.00332701
0.0602919
-0.00317043
0.0614062
-0.00290891
0.0624653
-0.00283587
0.0635323
-0.00256563
0.0645262
-0.00257633
-0.00234043
0.0627983
-0.00790907
-0.0641838
0.0627476
-0.00736794
0.0625905
-0.00742328
0.0628898
-0.00724422
0.0633746
-0.00690928
0.0639684
-0.00653928
0.0646323
-0.0061747
0.0653377
-0.00581217
0.0660651
-0.00547546
0.0668003
-0.00514348
0.0675357
-0.00485237
0.0682662
-0.0045526
0.0689864
-0.00431513
0.0697009
-0.00404148
0.070397
-0.00386648
0.0710975
-0.00360948
0.0717678
-0.00350616
0.0724659
-0.00326371
0.0731215
-0.00323195
-0.00304249
0.0809843
-0.00639199
-0.0825014
0.0803481
-0.00673172
0.0797683
-0.00684349
0.0794026
-0.00687858
0.0792327
-0.00673937
0.0791929
-0.00649947
0.0792465
-0.00622834
0.0793702
-0.00593589
0.0795467
-0.00565189
0.0797627
-0.00535951
0.0800075
-0.00509719
0.0802766
-0.00482174
0.0805598
-0.00459829
0.0808628
-0.00434448
0.081168
-0.00417169
0.0814984
-0.00393987
0.0818185
-0.00382622
0.0821776
-0.00362283
0.0825167
-0.0035711
-0.00342796
0.0949732
-0.00495606
-0.0964092
0.0940228
-0.00578131
0.0932587
-0.00607935
0.092598
-0.00621786
0.0920843
-0.00622572
0.0916963
-0.00611147
0.0914031
-0.00593509
0.0911849
-0.00571768
0.0910265
-0.00549353
0.0909186
-0.00525156
0.0908493
-0.00502792
0.0908169
-0.00478928
0.0908082
-0.00458966
0.0908314
-0.00436764
0.0908662
-0.00420653
0.0909353
-0.00400898
0.0910048
-0.00389575
0.091116
-0.00373394
0.0912198
-0.00367494
-0.00357413
0.104525
-0.00374324
-0.105738
0.103501
-0.00475722
0.102656
-0.00523508
0.101906
-0.0054673
0.101255
-0.00557533
0.100712
-0.00556781
0.100257
-0.00548074
0.0998768
-0.00533707
0.0995554
-0.00517221
0.0992867
-0.00498281
0.0990585
-0.00479972
0.0988707
-0.00460153
0.0987095
-0.00442844
0.0985831
-0.00424121
0.0984719
-0.00409538
0.0983953
-0.00393236
0.0983246
-0.00382505
0.0982906
-0.00369995
0.0982563
-0.00364067
-0.00357331
0.110101
-0.00280297
-0.111042
0.109171
-0.00382738
0.10836
-0.00442347
0.107637
-0.00474419
0.106985
-0.00492372
0.106414
-0.00499707
0.105921
-0.00498701
0.105495
-0.00491117
0.105124
-0.00480146
0.104804
-0.00466237
0.104522
-0.00451844
0.104281
-0.00435979
0.104066
-0.00421345
0.103884
-0.00405942
0.103719
-0.00393041
0.103584
-0.00379781
0.103459
-0.00369959
0.103362
-0.00360327
0.103269
-0.00354755
-0.00350351
0.112659
-0.00211285
-0.113349
0.111902
-0.00307094
0.111197
-0.00371853
0.11056
-0.0041072
0.109979
-0.0043422
0.109456
-0.00447424
0.108994
-0.00452486
0.10859
-0.00450729
0.108235
-0.0044466
0.107926
-0.0043528
0.107652
-0.00424498
0.107415
-0.00412245
0.107203
-0.00400194
0.107021
-0.00387746
0.106857
-0.00376585
0.106717
-0.00365837
0.106589
-0.00357102
0.106481
-0.00349582
0.106379
-0.00344565
-0.00341628
0.113247
-0.00162017
-0.113739
0.112667
-0.00249131
0.112093
-0.00314434
0.111561
-0.00357548
0.111072
-0.00385343
0.110627
-0.00402871
0.110227
-0.00412528
0.109875
-0.00415515
0.109565
-0.00413656
0.109294
-0.00408215
0.109056