/*--------------------------------*- C++ -*----------------------------------*\
| =========                 |                                                 |
| \\      /  F ield         | OpenFOAM: The Open Source CFD Toolbox           |
|  \\    /   O peration     | Version:  v1806                                 |
|   \\  /    A nd           | Web:      www.OpenFOAM.com                      |
|    \\/     M anipulation  |                                                 |
\*---------------------------------------------------------------------------*/
FoamFile
{
    version     2.0;
    format      ascii;
    class       volScalarField;
    location    "40";
    object      p;
}
// * * * * * * * * * * * * * * * * * * * * * * * * * * * * * * * * * * * * * //

dimensions      [0 2 -2 0 0 0 0];


internalField   nonuniform List<scalar> 
5228
(
0.00418681
0.00418737
0.00418737
0.00418681
0.00451849
0.00451873
0.00451873
0.00451849
0.00447513
0.00447569
0.00447569
0.00447513
0.00478359
0.00478258
0.00478258
0.00478359
0.00650459
0.00650709
0.00650709
0.00650459
0.00602771
0.00602752
0.00602752
0.00602771
0.00549023
0.0054885
0.0054885
0.00549023
0.00574304
0.00574053
0.00574053
0.00574304
0.00710529
0.00710958
0.00710958
0.00710529
0.00734026
0.00734204
0.00734204
0.00734025
0.00641707
0.00641785
0.00641785
0.00641707
0.00746199
0.00745724
0.00745724
0.00746199
0.00680638
0.00680153
0.00680153
0.00680638
0.00842973
0.00843621
0.00843621
0.00842974
0.00799531
0.0079931
0.0079931
0.00799531
0.00793322
0.00793348
0.00793348
0.00793322
0.00573386
0.00573363
0.00573363
0.00573386
0.00572515
0.00572766
0.00572766
0.00572515
0.00604182
0.00604384
0.00604384
0.00604182
0.00671668
0.00671369
0.00671369
0.00671668
0.00685204
0.00685597
0.00685597
0.00685203
0.00775646
0.00775802
0.00775802
0.00775646
0.00816882
0.00816855
0.00816855
0.00816882
0.0279656
0.0279801
0.0279801
0.0279656
0.0321919
0.0322282
0.0322282
0.0321919
0.00467512
0.00467351
0.00467351
0.00467512
0.00510124
0.00509996
0.00509996
0.00510124
0.00515789
0.00515946
0.00515946
0.00515789
0.0160001
0.015997
0.015997
0.0160001
0.0147496
0.0147547
0.0147547
0.0147496
0.0248207
0.024835
0.024835
0.0248207
0.0221835
0.0221894
0.0221894
0.0221835
0.0200008
0.0200076
0.0200076
0.0200008
0.0180873
0.018099
0.018099
0.0180873
0.0163436
0.0163514
0.0163514
0.0163436
0.0149164
0.0149215
0.0149215
0.0149164
0.0135902
0.0135946
0.0135946
0.0135902
0.0134636
0.0134668
0.0134668
0.0134636
0.0362619
0.0362787
0.0362787
0.0362619
0.0279512
0.0279494
0.0279494
0.0279512
0.027067
0.0270663
0.0270663
0.027067
0.0253607
0.0253585
0.0253585
0.0253607
0.0235417
0.0235438
0.0235438
0.0235417
0.0215519
0.0215553
0.0215553
0.0215519
0.0196244
0.0196319
0.0196319
0.0196244
0.0178552
0.0178592
0.0178592
0.0178552
0.0162959
0.0163038
0.0163038
0.0162959
0.0148333
0.014837
0.014837
0.0148333
0.013527
0.0135339
0.0135339
0.013527
0.0122484
0.0122547
0.0122547
0.0122484
0.0123796
0.0123856
0.0123855
0.0123796
0.0123087
0.012315
0.012315
0.0123087
0.0120835
0.0120901
0.0120901
0.0120835
0.0132478
0.0132527
0.0132527
0.0132478
0.0145297
0.0145334
0.0145334
0.0145297
0.0159295
0.0159304
0.0159304
0.0159295
0.0177585
0.0177664
0.0177664
0.0177585
0.019469
0.0194694
0.0194694
0.019469
0.0211761
0.0211752
0.0211752
0.0211761
0.0231415
0.0231449
0.0231449
0.0231415
0.02499
0.0249909
0.0249909
0.02499
0.0269537
0.026958
0.026958
0.0269537
0.0285835
0.0285875
0.0285875
0.0285835
0.0261045
0.0261103
0.0261103
0.0261045
0.0225337
0.0225257
0.0225257
0.0225337
0.0246268
0.0246378
0.0246378
0.0246268
0.0246494
0.0246588
0.0246588
0.0246494
0.0236289
0.0236377
0.0236377
0.0236289
0.0221898
0.0222004
0.0222004
0.0221898
0.0205194
0.0205308
0.0205308
0.0205194
0.0188212
0.0188315
0.0188315
0.0188212
0.0172387
0.0172435
0.0172435
0.0172387
0.0158257
0.0158304
0.0158304
0.0158257
0.0144763
0.0144818
0.0144818
0.0144763
0.013171
0.0131778
0.0131778
0.013171
0.0119497
0.0119547
0.0119547
0.0119497
0.0108342
0.0108393
0.0108393
0.0108342
0.0111049
0.0111106
0.0111106
0.0111049
0.0112544
0.0112594
0.0112594
0.0112544
0.0112174
0.0112209
0.0112209
0.0112174
0.0110407
0.011045
0.011045
0.0110407
0.0107501
0.010755
0.010755
0.0107501
0.0117584
0.0117644
0.0117644
0.0117584
0.0129377
0.0129432
0.0129432
0.0129377
0.0142046
0.0142043
0.0142043
0.0142045
0.0156383
0.0156406
0.0156406
0.0156383
0.0170484
0.0170474
0.0170474
0.0170484
0.0186196
0.0186243
0.0186243
0.0186196
0.0203191
0.0203248
0.0203248
0.0203191
0.0220623
0.0220736
0.0220736
0.0220623
0.0238049
0.0238197
0.0238197
0.0238049
0.0253628
0.0253808
0.0253808
0.0253628
0.0262521
0.0262677
0.0262677
0.0262521
0.0297428
0.0297566
0.0297566
0.0297428
0.025678
0.0256759
0.0256759
0.025678
0.0208451
0.0208234
0.0208234
0.0208451
0.016701
0.0166711
0.0166711
0.016701
0.00391497
0.00391471
0.00391471
0.00391497
0.0038441
0.00384495
0.00384495
0.0038441
0.00524567
0.00524747
0.00524747
0.00524567
0.00482735
0.00482474
0.00482474
0.00482735
0.00485865
0.00485773
0.00485773
0.00485865
0.00527692
0.00527851
0.00527851
0.00527692
0.0053159
0.00531688
0.00531688
0.0053159
0.00488486
0.00488428
0.00488428
0.00488486
0.0044672
0.00446663
0.00446663
0.0044672
0.00405572
0.0040567
0.0040567
0.00405572
0.00348817
0.00348829
0.00348829
0.00348817
0.00351044
0.00351012
0.00351012
0.00351044
0.0035585
0.00355823
0.00355823
0.0035585
0.00414351
0.00414334
0.00414334
0.00414351
0.00379503
0.0037952
0.0037952
0.00379503
0.00342262
0.00342245
0.00342245
0.00342262
0.00710502
0.00710356
0.00710356
0.00710502
0.00762796
0.0076293
0.0076293
0.00762796
0.00788746
0.00788904
0.00788905
0.00788746
0.00796931
0.00796886
0.00796886
0.00796932
0.00766176
0.00766049
0.00766049
0.00766176
0.00716745
0.00716721
0.00716721
0.00716745
0.00655762
0.00655645
0.00655645
0.00655762
0.00594137
0.00593948
0.00593948
0.00594137
0.0054546
0.00545516
0.00545516
0.0054546
0.00496163
0.00496079
0.00496079
0.00496163
0.00449541
0.00449523
0.00449523
0.00449541
0.00402751
0.00402675
0.00402675
0.00402751
0.00358275
0.00358279
0.00358279
0.00358275
0.00305922
0.0030592
0.0030592
0.00305922
0.00310681
0.00310694
0.00310694
0.00310681
0.0031235
0.00312338
0.00312339
0.00312351
0.00314337
0.00314347
0.00314347
0.00314337
0.00314177
0.00314164
0.00314164
0.00314177
0.00539829
0.00539706
0.00539706
0.00539829
0.00521786
0.00521913
0.00521913
0.00521786
0.004892
0.00489168
0.00489168
0.004892
0.00450688
0.00450665
0.00450665
0.00450688
0.00413497
0.0041351
0.0041351
0.00413497
0.00376066
0.00376098
0.00376098
0.00376066
0.00338053
0.00338088
0.00338088
0.00338053
0.00300566
0.00300589
0.00300589
0.00300566
0.00767821
0.00767702
0.00767702
0.00767821
0.0083185
0.00831661
0.00831661
0.0083185
0.00947638
0.00947499
0.00947499
0.00947638
0.0114854
0.0114845
0.0114845
0.0114854
0.0145572
0.0145784
0.0145784
0.0145572
0.017056
0.0170548
0.0170548
0.017056
0.0206
0.0205934
0.0205934
0.0206
0.0219373
0.0219355
0.0219355
0.0219373
0.0220106
0.0220124
0.0220124
0.0220106
0.0214372
0.0214385
0.0214385
0.0214372
0.0203805
0.0203849
0.0203849
0.0203805
0.0190344
0.0190397
0.0190397
0.0190344
0.0176178
0.0176217
0.0176217
0.0176178
0.0162435
0.0162415
0.0162415
0.0162435
0.0149487
0.014949
0.014949
0.0149487
0.0136561
0.0136562
0.0136562
0.0136561
0.0124373
0.0124416
0.0124416
0.0124373
0.0113067
0.0113114
0.0113114
0.0113067
0.0103226
0.0103273
0.0103273
0.0103226
0.00611807
0.00611847
0.00611846
0.00611806
0.00569166
0.005691
0.005691
0.00569166
0.00533553
0.00533613
0.00533613
0.00533553
0.00492022
0.00491998
0.00491998
0.00492022
0.00448565
0.00448544
0.00448544
0.00448565
0.00407207
0.00407208
0.00407208
0.00407207
0.00367792
0.00367801
0.00367801
0.00367792
0.00330072
0.00330097
0.00330097
0.00330072
0.00291589
0.00291604
0.00291604
0.00291589
0.00255954
0.00255965
0.00255965
0.00255954
0.00264736
0.00264749
0.00264749
0.00264736
0.00270601
0.00270607
0.00270607
0.00270601
0.00275141
0.00275157
0.00275157
0.00275141
0.0027622
0.00276211
0.00276211
0.0027622
0.0027594
0.00275941
0.00275941
0.0027594
0.00273793
0.00273793
0.00273793
0.00273793
0.00268976
0.00268981
0.00268981
0.00268976
0.00309469
0.0030947
0.0030947
0.00309469
0.00352804
0.00352797
0.00352797
0.00352805
0.00399589
0.00399601
0.00399601
0.00399589
0.00448531
0.00448521
0.00448521
0.00448531
0.0049996
0.00499933
0.00499933
0.0049996
0.0055381
0.00553782
0.00553782
0.0055381
0.00610547
0.006104
0.006104
0.00610547
0.00674589
0.00674576
0.00674576
0.00674589
0.00736615
0.00736556
0.00736556
0.00736615
0.00794393
0.0079436
0.0079436
0.00794393
0.00840696
0.00840776
0.00840776
0.00840696
0.00861255
0.00861214
0.00861214
0.00861255
0.00871493
0.00871559
0.00871559
0.00871493
0.0087064
0.00871534
0.00871534
0.0087064
0.00803748
0.00803007
0.00803007
0.00803748
0.00884822
0.00884593
0.00884593
0.00884822
0.0106156
0.0106209
0.0106209
0.0106156
0.0133527
0.0133432
0.0133432
0.0133527
0.0180765
0.0180621
0.0180621
0.0180765
0.020456
0.0204485
0.0204485
0.020456
0.0211597
0.0211562
0.0211562
0.0211597
0.0210869
0.0210885
0.0210885
0.0210869
0.0202727
0.0202791
0.0202791
0.0202727
0.019084
0.0190917
0.0190917
0.019084
0.0177175
0.0177243
0.0177243
0.0177175
0.0163668
0.0163703
0.0163703
0.0163669
0.0150753
0.0150795
0.0150795
0.0150753
0.0138056
0.0138109
0.0138109
0.0138056
0.0126029
0.0126077
0.0126077
0.0126029
0.0114717
0.0114754
0.0114754
0.0114717
0.0104078
0.0104122
0.0104122
0.0104078
0.00943549
0.00943926
0.00943926
0.00943549
0.00983358
0.0098378
0.0098378
0.00983358
0.0101107
0.0101155
0.0101155
0.0101107
0.0102656
0.0102699
0.0102699
0.0102656
0.0102717
0.010276
0.010276
0.0102717
0.0101205
0.0101251
0.0101251
0.0101205
0.00984394
0.00984796
0.00984796
0.00984394
0.00943138
0.0094352
0.0094352
0.00943138
0.00222924
0.0022293
0.0022293
0.00222924
0.00231215
0.0023122
0.0023122
0.00231215
0.00237045
0.00237045
0.00237045
0.00237045
0.0024111
0.00241115
0.00241115
0.0024111
0.00242138
0.00242136
0.00242136
0.00242138
0.00240152
0.00240147
0.00240147
0.00240152
0.0023715
0.00237151
0.00237151
0.0023715
0.00232385
0.00232391
0.00232391
0.00232385
0.00224956
0.00224953
0.00224953
0.00224956
0.00261257
0.00261254
0.00261254
0.00261257
0.0030085
0.00300847
0.00300847
0.0030085
0.00344223
0.00344211
0.00344211
0.00344223
0.00391692
0.00391676
0.00391676
0.00391692
0.00442138
0.00442133
0.00442133
0.00442138
0.00495787
0.0049576
0.0049576
0.00495786
0.00553769
0.00553713
0.00553713
0.00553769
0.00615325
0.00615175
0.00615175
0.00615325
0.0068133
0.00681212
0.00681212
0.0068133
0.00749194
0.00749081
0.00749081
0.00749195
0.00814976
0.00814854
0.00814854
0.00814976
0.00873911
0.00873873
0.00873873
0.00873911
0.00909539
0.00909563
0.00909563
0.00909539
0.00925898
0.0092586
0.0092586
0.00925897
0.00935716
0.00935573
0.00935573
0.00935715
0.00959693
0.00959234
0.00959234
0.00959694
0.0102422
0.0102265
0.0102264
0.0102422
0.0118455
0.0118335
0.0118335
0.0118455
0.0140025
0.0140041
0.0140041
0.0140025
0.016213
0.0162128
0.0162128
0.016213
0.0179981
0.0179992
0.0179992
0.0179981
0.0187749
0.0187778
0.0187778
0.0187749
0.0188937
0.0189001
0.0189001
0.0188937
0.0183985
0.0184048
0.0184048
0.0183985
0.0175245
0.017531
0.017531
0.0175245
0.0164218
0.0164281
0.0164281
0.0164218
0.0152498
0.0152544
0.0152544
0.0152498
0.0141023
0.0141062
0.0141062
0.0141023
0.0129671
0.0129704
0.0129704
0.0129671
0.0118654
0.0118691
0.0118691
0.0118654
0.0108219
0.0108252
0.0108252
0.0108219
0.0098496
0.00985354
0.00985354
0.0098496
0.00891662
0.00892015
0.00892015
0.00891662
0.00811721
0.00812034
0.00812034
0.00811721
0.00860077
0.00860405
0.00860406
0.00860077
0.00898372
0.0089873
0.0089873
0.00898372
0.00925123
0.0092549
0.0092549
0.00925123
0.00939634
0.00939979
0.00939979
0.00939634
0.00940381
0.0094071
0.0094071
0.00940381
0.0092721
0.00927539
0.00927539
0.0092721
0.00901854
0.00902197
0.00902197
0.00901854
0.00863858
0.0086422
0.0086422
0.00863858
0.00813225
0.00813593
0.00813593
0.00813225
0.00888509
0.00888811
0.00888811
0.00888509
0.00973804
0.00974166
0.00974166
0.00973804
0.0106814
0.0106849
0.0106849
0.0106814
0.0117548
0.0117588
0.0117588
0.0117548
0.0128835
0.0128849
0.0128849
0.0128835
0.0140353
0.0140364
0.0140364
0.0140353
0.015214
0.0152148
0.0152148
0.015214
0.0164182
0.0164218
0.0164218
0.0164182
0.017599
0.0176049
0.0176049
0.017599
0.0186462
0.0186545
0.0186545
0.0186462
0.0193994
0.0194063
0.0194063
0.0193994
0.0196895
0.0196952
0.0196952
0.0196895
0.0194254
0.0194324
0.0194324
0.0194254
0.0183105
0.0183195
0.0183195
0.0183105
0.0163658
0.0163734
0.0163734
0.0163658
0.0140995
0.0140963
0.0140963
0.0140995
0.0119084
0.0119
0.0119
0.0119084
0.0102798
0.0102795
0.0102795
0.0102798
0.00899266
0.00898412
0.00898412
0.00899266
0.00871651
0.00872048
0.00872048
0.00871651
0.00649152
0.00649154
0.00649154
0.00649151
0.00593536
0.00593552
0.00593552
0.00593535
0.00543871
0.00543927
0.00543927
0.00543871
0.00493152
0.00493145
0.00493145
0.00493152
0.00444124
0.00444113
0.00444113
0.00444124
0.00398561
0.00398534
0.00398534
0.00398561
0.00356934
0.00356933
0.00356933
0.00356934
0.00317672
0.00317695
0.00317695
0.00317671
0.0028013
0.00280148
0.00280148
0.0028013
0.00244405
0.00244417
0.00244417
0.00244405
0.00212601
0.00212611
0.00212611
0.00212601
0.00214138
0.00214138
0.00214138
0.00214138
0.00249365
0.00249366
0.00249366
0.00249365
0.00287819
0.0028782
0.0028782
0.00287819
0.0033013
0.00330116
0.00330116
0.0033013
0.00376825
0.00376783
0.00376783
0.00376825
0.00427788
0.00427761
0.00427761
0.00427788
0.00483178
0.00483166
0.00483166
0.00483178
0.00543586
0.00543532
0.00543532
0.00543586
0.00609501
0.00609382
0.00609382
0.00609501
0.00679962
0.00679877
0.00679877
0.00679962
0.00755573
0.00755529
0.00755529
0.00755573
0.00831843
0.0083185
0.0083185
0.00831844
0.00902094
0.00902196
0.00902196
0.00902094
0.00961998
0.00962211
0.00962211
0.00961998
0.0100887
0.0100927
0.0100927
0.0100887
0.0104325
0.0104383
0.0104383
0.0104325
0.0107251
0.0107302
0.0107302
0.0107251
0.0112029
0.0112004
0.0112004
0.0112029
0.0121908
0.0121815
0.0121815
0.0121908
0.0136117
0.0136038
0.0136038
0.0136117
0.0149896
0.0149852
0.0149852
0.0149896
0.0161619
0.0161619
0.0161619
0.0161619
0.0167974
0.0168006
0.0168006
0.0167974
0.0169426
0.0169491
0.0169491
0.0169426
0.0166064
0.016611
0.016611
0.0166064
0.0159283
0.015933
0.015933
0.0159283
0.0150208
0.0150248
0.0150248
0.0150208
0.0140183
0.0140217
0.0140217
0.0140183
0.0129895
0.012993
0.012993
0.0129895
0.0119619
0.0119648
0.0119648
0.0119619
0.0109698
0.0109731
0.0109731
0.0109698
0.0100142
0.0100177
0.0100177
0.0100142
0.00910794
0.0091112
0.0091112
0.00910794
0.00829447
0.00829738
0.00829738
0.00829447
0.00753424
0.00753768
0.00753768
0.00753424
0.00686795
0.00687047
0.00687047
0.00686795
0.00742512
0.00742744
0.00742744
0.00742512
0.00789035
0.00789236
0.00789236
0.00789035
0.00825012
0.00825198
0.00825198
0.00825012
0.00849773
0.00850017
0.00850017
0.00849773
0.00862748
0.00863016
0.00863016
0.00862748
0.00863675
0.00863936
0.00863936
0.00863675
0.00852584
0.00852847
0.00852847
0.00852584
0.00828859
0.00829126
0.00829126
0.00828859
0.00793087
0.0079338
0.0079338
0.00793087
0.00745113
0.00745443
0.00745443
0.00745113
0.00688552
0.00688841
0.00688841
0.00688552
0.00751295
0.00751612
0.00751612
0.00751295
0.00822613
0.00822862
0.00822862
0.00822613
0.00902629
0.00902885
0.00902885
0.00902629
0.00990372
0.00990627
0.00990627
0.00990372
0.0108799
0.010883
0.010883
0.0108799
0.0119039
0.0119055
0.0119055
0.0119039
0.012952
0.0129531
0.0129531
0.012952
0.0140155
0.0140165
0.0140165
0.0140155
0.0150783
0.0150801
0.0150801
0.0150783
0.0160563
0.0160599
0.0160599
0.0160563
0.0168954
0.0169026
0.0169026
0.0168954
0.017454
0.0174618
0.0174618
0.017454
0.0176127
0.0176171
0.0176171
0.0176127
0.0172635
0.0172678
0.0172678
0.0172635
0.0164617
0.0164665
0.0164665
0.0164617
0.0151373
0.0151353
0.0151353
0.0151373
0.0135316
0.0135256
0.0135256
0.0135316
0.0120428
0.0120385
0.0120385
0.0120428
0.0108795
0.0108827
0.0108828
0.0108795
0.0100162
0.0100177
0.0100177
0.0100162
0.00947246
0.00947622
0.00947622
0.00947246
0.00894688
0.00894809
0.00894808
0.00894688
0.00840159
0.00839957
0.00839956
0.00840159
0.00790367
0.00790536
0.00790536
0.00790367
0.00733906
0.00734142
0.00734142
0.00733906
0.00666027
0.00666018
0.00666018
0.00666027
0.00603959
0.00603986
0.00603986
0.00603959
0.00545298
0.00545313
0.00545313
0.00545298
0.00489305
0.0048931
0.0048931
0.00489305
0.00435536
0.00435539
0.00435539
0.00435536
0.00386312
0.00386325
0.00386325
0.00386312
0.00342973
0.00343009
0.00343009
0.00342973
0.00303118
0.00303165
0.00303165
0.00303118
0.00265589
0.00265627
0.00265627
0.00265589
0.00231357
0.0023139
0.0023139
0.00231357
0.00200319
0.00200337
0.00200337
0.00200319
0.00171357
0.00171362
0.00171362
0.00171357
0.00182822
0.00182823
0.00182823
0.00182822
0.00192234
0.00192232
0.00192232
0.00192234
0.00199496
0.00199494
0.00199494
0.00199496
0.00204761
0.00204755
0.00204755
0.00204761
0.00208168
0.00208168
0.00208168
0.00208168
0.00209032
0.00209027
0.00209027
0.00209032
0.00207496
0.00207499
0.00207499
0.00207496
0.00204126
0.00204126
0.00204126
0.00204126
0.00198943
0.00198938
0.00198938
0.00198943
0.00191476
0.0019147
0.0019147
0.00191476
0.00181531
0.00181529
0.00181529
0.00181531
0.00631553
0.00631614
0.00631614
0.00631553
0.00684589
0.00684617
0.00684617
0.00684589
0.00728424
0.00728471
0.00728471
0.00728424
0.00761905
0.00761987
0.00761987
0.00761905
0.00784514
0.00784627
0.00784627
0.00784514
0.00796324
0.00796453
0.00796453
0.00796324
0.00797172
0.00797298
0.00797298
0.00797172
0.00786724
0.00786841
0.00786841
0.00786724
0.00765266
0.00765418
0.00765418
0.00765266
0.00731855
0.00732068
0.00732068
0.00731855
0.00687488
0.00687724
0.00687724
0.00687488
0.00634636
0.00634857
0.00634857
0.00634636
0.00572946
0.00573189
0.00573189
0.00572946
0.00622738
0.00623046
0.00623046
0.00622738
0.00680943
0.00681225
0.00681225
0.00680943
0.00746556
0.00746697
0.00746697
0.00746556
0.00818724
0.00818827
0.00818827
0.00818725
0.00898892
0.00899038
0.00899038
0.00898892
0.00986652
0.0098685
0.0098685
0.00986652
0.0107866
0.0107882
0.0107882
0.0107866
0.0117224
0.0117237
0.0117237
0.0117224
0.0126691
0.0126709
0.0126709
0.0126691
0.013604
0.0136072
0.0136072
0.013604
0.0144648
0.01447
0.01447
0.0144648
0.0151625
0.0151701
0.0151701
0.0151625
0.0156284
0.0156372
0.0156372
0.0156284
0.0157133
0.0157201
0.0157201
0.0157133
0.0154059
0.0154127
0.0154127
0.0154059
0.0148232
0.0148298
0.0148298
0.0148232
0.0139219
0.0139228
0.0139228
0.0139219
0.0128563
0.0128547
0.0128547
0.0128563
0.0118449
0.011844
0.011844
0.0118449
0.0110485
0.011051
0.011051
0.0110485
0.0103949
0.0103959
0.0103959
0.0103949
0.0098479
0.00985001
0.00985001
0.0098479
0.00930887
0.00931127
0.00931127
0.00930886
0.00872231
0.00872356
0.00872356
0.00872231
0.00810058
0.00810182
0.00810182
0.00810058
0.00742296
0.00742414
0.00742414
0.00742295
0.00668279
0.00668288
0.00668288
0.00668279
0.00598205
0.00598231
0.00598231
0.00598205
0.00533635
0.00533698
0.00533698
0.00533635
0.00473651
0.00473711
0.00473711
0.00473651
0.00418567
0.00418618
0.00418618
0.00418567
0.00368233
0.0036827
0.0036827
0.00368233
0.00323455
0.003235
0.003235
0.00323455
0.00283409
0.00283466
0.00283466
0.00283409
0.00247477
0.0024752
0.0024752
0.00247477
0.00214621
0.00214649
0.00214649
0.00214621
0.00184811
0.00184828
0.00184828
0.00184811
0.00157492
0.001575
0.001575
0.00157492
0.00132367
0.00132369
0.00132369
0.00132367
0.00144714
0.00144712
0.00144712
0.00144714
0.00154817
0.00154813
0.00154813
0.00154817
0.00163054
0.00163049
0.00163049
0.00163054
0.00169412
0.00169408
0.00169408
0.00169412
0.00173919
0.00173914
0.00173914
0.00173919
0.00176558
0.00176556
0.00176556
0.00176558
0.00177302
0.00177298
0.00177298
0.00177302
0.00176114
0.00176111
0.00176111
0.00176114
0.00173165
0.00173163
0.00173163
0.00173165
0.00168107
0.00168101
0.00168101
0.00168107
0.00161118
0.00161113
0.00161113
0.00161118
0.00151739
0.0015173
0.0015173
0.00151739
0.00140198
0.00140189
0.00140189
0.00140198
0.00168239
0.0016823
0.0016823
0.00168239
0.00198774
0.0019877
0.0019877
0.00198774
0.00232233
0.00232235
0.00232235
0.00232233
0.0026891
0.00268916
0.00268916
0.0026891
0.00309384
0.00309378
0.00309378
0.00309384
0.00354393
0.00354364
0.00354364
0.00354393
0.00404637
0.00404603
0.00404603
0.00404637
0.00459878
0.0045985
0.0045985
0.00459877
0.00520501
0.00520433
0.00520433
0.00520501
0.00588011
0.00587891
0.00587891
0.00588011
0.00661877
0.00661795
0.00661795
0.00661877
0.00740103
0.00740041
0.00740041
0.00740103
0.00820773
0.00820732
0.00820732
0.00820773
0.00896743
0.00896747
0.00896747
0.00896743
0.00964947
0.00964933
0.00964933
0.00964947
0.010221
0.0102215
0.0102215
0.010221
0.0106589
0.0106604
0.0106604
0.010659
0.0110176
0.0110195
0.0110195
0.0110176
0.0114153
0.0114147
0.0114147
0.0114153
0.0120299
0.0120259
0.0120259
0.0120299
0.0128969
0.012891
0.012891
0.0128969
0.0138622
0.0138584
0.0138584
0.0138622
0.0146749
0.0146758
0.0146758
0.0146749
0.0151276
0.0151324
0.0151324
0.0151276
0.0151889
0.0151975
0.0151975
0.0151889
0.0148973
0.0149052
0.0149052
0.0148973
0.0143242
0.0143321
0.0143321
0.0143242
0.0135264
0.0135331
0.0135331
0.0135264
0.0126455
0.0126502
0.0126502
0.0126455
0.0117377
0.0117409
0.0117409
0.0117377
0.0108247
0.0108274
0.0108274
0.0108247
0.00992502
0.00992778
0.00992778
0.00992501
0.00905929
0.00906195
0.00906195
0.00905929
0.00824763
0.00825003
0.00825003
0.00824763
0.00749993
0.00750275
0.00750275
0.00749993
0.00683043
0.00683402
0.00683402
0.00683043
0.00622473
0.00622747
0.00622747
0.00622473
0.00571032
0.00571129
0.00571129
0.00571032
0.0050197
0.00502282
0.00502282
0.0050197
0.00547462
0.00547771
0.00547771
0.00547462
0.00600368
0.00600592
0.00600592
0.00600368
0.00658551
0.00658635
0.00658635
0.00658551
0.00723132
0.00723148
0.00723148
0.00723132
0.00794423
0.00794475
0.00794475
0.00794423
0.0087206
0.00872212
0.00872212
0.0087206
0.00953332
0.00953537
0.00953537
0.00953331
0.0103642
0.0103665
0.0103665
0.0103642
0.011208
0.0112106
0.0112106
0.011208
0.0120393
0.0120422
0.0120422
0.0120393
0.0127995
0.0128024
0.0128024
0.0127995
0.0133967
0.0133991
0.0133991
0.0133967
0.0137785
0.0137813
0.0137813
0.0137785
0.0138415
0.0138438
0.0138438
0.0138415
0.0136337
0.0136371
0.0136371
0.0136337
0.013222
0.0132253
0.0132253
0.013222
0.0126495
0.0126486
0.0126486
0.0126495
0.0119481
0.0119448
0.0119448
0.0119481
0.0112537
0.0112507
0.0112507
0.0112537
0.0106989
0.0106994
0.0106994
0.0106989
0.0102095
0.0102107
0.0102107
0.0102095
0.00972996
0.0097326
0.0097326
0.00972996
0.00920643
0.00920944
0.00920944
0.00920643
0.00860428
0.00860657
0.00860657
0.00860428
0.00792302
0.00792413
0.00792413
0.00792302
0.00718446
0.0071848
0.0071848
0.00718446
0.00643448
0.00643442
0.00643442
0.00643448
0.00570339
0.0057035
0.0057035
0.00570339
0.00504095
0.00504129
0.00504129
0.00504095
0.00443544
0.00443573
0.00443573
0.00443544
0.00388604
0.00388624
0.00388624
0.00388604
0.00339534
0.0033955
0.0033955
0.00339535
0.00296016
0.00296051
0.00296051
0.00296016
0.0025785
0.0025789
0.0025789
0.0025785
0.00223743
0.00223778
0.00223778
0.00223743
0.00193286
0.0019331
0.0019331
0.00193286
0.00165814
0.00165828
0.00165828
0.00165814
0.00141053
0.00141061
0.00141061
0.00141053
0.00118084
0.00118085
0.00118085
0.00118083
0.000970682
0.00097063
0.00097063
0.000970682
0.00109248
0.00109243
0.00109243
0.00109248
0.00120043
0.00120035
0.00120035
0.00120043
0.00128445
0.00128435
0.00128435
0.00128445
0.00135399
0.00135391
0.00135391
0.00135399
0.0014067
0.00140663
0.00140663
0.0014067
0.00144361
0.00144359
0.00144359
0.00144361
0.00146449
0.00146446
0.00146446
0.00146449
0.00147014
0.00147011
0.00147011
0.00147014
0.00146032
0.00146028
0.00146028
0.00146032
0.00143453
0.00143452
0.00143452
0.00143453
0.00139063
0.00139058
0.00139058
0.00139063
0.00132969
0.00132965
0.00132965
0.00132969
0.00124845
0.00124838
0.00124838
0.00124844
0.0011473
0.0011472
0.0011472
0.0011473
0.00102886
0.00102873
0.00102873
0.00102886
0.00126009
0.00126
0.00126
0.00126009
0.00151343
0.00151335
0.00151335
0.00151343
0.00179153
0.00179147
0.00179147
0.00179153
0.00209675
0.00209675
0.00209675
0.00209675
0.00243514
0.00243518
0.00243518
0.00243514
0.00281383
0.00281386
0.00281386
0.00281383
0.00323949
0.00323941
0.00323941
0.00323949
0.00371804
0.00371795
0.00371795
0.00371804
0.00424929
0.00424926
0.00424926
0.00424929
0.00484115
0.00484066
0.00484066
0.00484115
0.00550072
0.00549952
0.00549952
0.00550072
0.00623496
0.006234
0.00623401
0.00623496
0.0070072
0.00700627
0.00700627
0.0070072
0.00780946
0.00780867
0.00780867
0.00780946
0.00859939
0.00859944
0.00859944
0.00859939
0.00930764
0.00930837
0.00930837
0.00930764
0.00990796
0.00990928
0.00990928
0.00990796
0.0103605
0.0103617
0.0103617
0.0103605
0.0107088
0.010709
0.010709
0.0107088
0.0110354
0.0110342
0.0110342
0.0110354
0.0114481
0.011445
0.011445
0.0114481
0.0119868
0.0119817
0.0119817
0.0119869
0.0126089
0.0126031
0.0126031
0.0126089
0.0131172
0.0131132
0.0131132
0.0131172
0.0133958
0.0133938
0.0133938
0.0133958
0.0134117
0.0134124
0.0134124
0.0134117
0.0131496
0.0131522
0.0131522
0.0131496
0.0126385
0.0126424
0.0126424
0.0126385
0.0119376
0.011942
0.011942
0.0119376
0.0111522
0.0111561
0.0111561
0.0111522
0.0103433
0.0103466
0.0103466
0.0103433
0.00953731
0.00954018
0.00954018
0.00953731
0.00874231
0.00874454
0.00874453
0.00874231
0.00797761
0.00797889
0.00797889
0.0079776
0.00726134
0.00726273
0.00726273
0.00726134
0.0065934
0.0065956
0.0065956
0.0065934
0.00600375
0.00600675
0.00600675
0.00600375
0.00548046
0.0054839
0.0054839
0.00548046
0.00501348
0.00501579
0.00501579
0.00501349
0.00463209
0.00463171
0.00463171
0.00463209
0.00528888
0.00528776
0.00528776
0.00528888
0.00586892
0.00586778
0.00586778
0.00586892
0.00636799
0.00636698
0.00636698
0.00636799
0.00677257
0.00677192
0.00677192
0.00677257
0.00708271
0.00708279
0.00708279
0.00708271
0.00729472
0.00729529
0.00729529
0.00729472
0.0074043
0.0074051
0.0074051
0.0074043
0.00741042
0.00741109
0.00741109
0.00741042
0.00731154
0.00731211
0.00731211
0.00731154
0.00710756
0.00710813
0.00710813
0.00710756
0.00679835
0.00679894
0.00679894
0.00679834
0.00638948
0.00639009
0.00639009
0.00638948
0.00590026
0.00590088
0.00590088
0.00590026
0.00532494
0.0053263
0.0053263
0.00532494
0.00464032
0.0046428
0.0046428
0.00464032
0.000776991
0.000776932
0.000776932
0.000776991
0.000878369
0.000878319
0.000878319
0.000878369
0.000965104
0.00096512
0.00096512
0.000965104
0.00103426
0.0010342
0.0010342
0.00103426
0.00108979
0.00108977
0.00108977
0.00108979
0.00113168
0.00113165
0.00113165
0.00113168
0.0011608
0.00116077
0.00116077
0.0011608
0.00117747
0.00117744
0.00117744
0.00117747
0.00118167
0.00118165
0.00118165
0.00118167
0.00117312
0.00117309
0.00117309
0.00117312
0.00115143
0.00115141
0.00115141
0.00115143
0.00111566
0.00111565
0.00111565
0.00111566
0.00106466
0.00106461
0.00106461
0.00106466
0.00099817
0.000998095
0.000998095
0.00099817
0.000914503
0.000914397
0.000914397
0.000914503
0.000817844
0.000817721
0.000817721
0.000817844
0.000703715
0.000703557
0.000703558
0.000703716
0.000889366
0.000889266
0.000889267
0.000889366
0.00108962
0.00108952
0.00108952
0.00108962
0.00130985
0.00130981
0.00130981
0.00130985
0.00155023
0.00155021
0.00155021
0.00155023
0.00181808
0.0018181
0.0018181
0.00181808
0.00211872
0.00211875
0.00211875
0.00211872
0.00245856
0.00245859
0.00245859
0.00245856
0.00284397
0.00284396
0.00284396
0.00284397
0.00328116
0.00328117
0.00328117
0.00328116
0.00377376
0.00377385
0.00377385
0.00377376
0.00432461
0.00432437
0.00432437
0.00432461
0.0049465
0.00494576
0.00494576
0.0049465
0.00562836
0.00562766
0.00562767
0.00562836
0.00635871
0.006358
0.006358
0.00635871
0.00711987
0.00711932
0.00711932
0.00711987
0.00787821
0.00787821
0.00787821
0.00787821
0.00857058
0.00857148
0.00857147
0.00857058
0.00915415
0.00915631
0.00915631
0.00915415
0.0096011
0.00960378
0.00960378
0.0096011
0.00992642
0.00992843
0.00992842
0.00992642
0.0102086
0.0102102
0.0102102
0.0102086
0.0105213
0.0105224
0.0105224
0.0105213
0.0109112
0.0109121
0.0109121
0.0109112
0.0113346
0.0113367
0.0113367
0.0113346
0.0116523
0.0116567
0.0116567
0.0116523
0.0117967
0.011803
0.011803
0.0117967
0.0117185
0.0117278
0.0117278
0.0117185
0.011388
0.0113978
0.0113978
0.011388
0.0108789
0.0108873
0.0108873
0.0108789
0.0102401
0.0102463
0.0102463
0.0102401
0.00953719
0.00954134
0.00954134
0.00953719
0.00882435
0.0088273
0.0088273
0.00882435
0.00812591
0.00812796
0.00812796
0.00812591
0.00744384
0.00744519
0.00744519
0.00744384
0.00678401
0.00678463
0.00678463
0.00678401
0.00615935
0.00616009
0.00616009
0.00615935
0.00559127
0.00559269
0.00559269
0.00559126
0.00507919
0.00508233
0.00508233
0.00507919
0.0046271
0.00463101
0.00463101
0.0046271
0.00423358
0.00423639
0.00423639
0.00423359
0.00390879
0.00390889
0.00390889
0.00390879
0.00365453
0.00365242
0.00365242
0.00365453
0.00433658
0.00433422
0.00433422
0.00433658
0.00495741
0.00495515
0.00495515
0.00495741
0.00550647
0.00550431
0.00550431
0.00550647
0.00597309
0.00597137
0.00597137
0.00597309
0.00635376
0.00635261
0.00635261
0.00635376
0.00664444
0.00664387
0.00664387
0.00664444
0.00684266
0.00684243
0.00684243
0.00684266
0.00694482
0.00694471
0.00694471
0.00694481
0.00694972
0.00694957
0.00694957
0.00694972
0.00685563
0.00685532
0.00685532
0.00685563
0.00666327
0.00666262
0.00666262
0.00666327
0.00637589
0.00637497
0.00637497
0.00637589
0.00599888
0.00599779
0.00599779
0.00599888
0.00553231
0.00553199
0.00553199
0.00553231
0.00497782
0.00497866
0.00497866
0.00497782
0.00435871
0.00435981
0.00435981
0.00435871
0.00365303
0.00365542
0.00365542
0.00365303
0.0039216
0.00392407
0.00392407
0.0039216
0.00425237
0.00425443
0.00425443
0.00425237
0.00463685
0.00463863
0.00463863
0.00463684
0.0050821
0.00508382
0.00508382
0.0050821
0.00558976
0.0055906
0.0055906
0.00558976
0.00615142
0.00615138
0.00615138
0.00615142
0.00677344
0.00677366
0.00677366
0.00677344
0.0074475
0.00744852
0.00744852
0.0074475
0.00814935
0.00815083