/*--------------------------------*- C++ -*----------------------------------*\
| =========                 |                                                 |
| \\      /  F ield         | OpenFOAM: The Open Source CFD Toolbox           |
|  \\    /   O peration     | Version:  v1806                                 |
|   \\  /    A nd           | Web:      www.OpenFOAM.com                      |
|    \\/     M anipulation  |                                                 |
\*---------------------------------------------------------------------------*/
FoamFile
{
    version     2.0;
    format      ascii;
    class       volVectorField;
    location    "260";
    object      U;
}
// * * * * * * * * * * * * * * * * * * * * * * * * * * * * * * * * * * * * * //

dimensions      [0 1 -1 0 0 0 0];


internalField   nonuniform List<vector> 
2400
(
(0.3 -0.00078291 0)
(0.299997 -0.00235301 0)
(0.29999 -0.00393383 0)
(0.29998 -0.00553218 0)
(0.299965 -0.00715272 0)
(0.299946 -0.008799 0)
(0.299925 -0.0104708 0)
(0.299904 -0.012166 0)
(0.299884 -0.0138772 0)
(0.29987 -0.0155939 0)
(0.299865 -0.0172981 0)
(0.299876 -0.0189676 0)
(0.29991 -0.0205714 0)
(0.299973 -0.0220741 0)
(0.300074 -0.0234311 0)
(0.300222 -0.0245974 0)
(0.30042 -0.0255207 0)
(0.300678 -0.0261572 0)
(0.30099 -0.0264588 0)
(0.301372 -0.0264018 0)
(0.3 -0.000781082 0)
(0.299992 -0.00234754 0)
(0.299977 -0.0039246 0)
(0.299956 -0.00551946 0)
(0.299928 -0.00713689 0)
(0.299896 -0.00878117 0)
(0.299863 -0.0104523 0)
(0.299833 -0.0121491 0)
(0.299809 -0.0138647 0)
(0.2998 -0.0155897 0)
(0.299811 -0.0173068 0)
(0.299854 -0.0189953 0)
(0.299936 -0.0206244 0)
(0.30007 -0.0221599 0)
(0.300266 -0.0235567 0)
(0.300535 -0.0247694 0)
(0.30088 -0.0257434 0)
(0.301306 -0.0264314 0)
(0.301808 -0.0267831 0)
(0.302377 -0.026763 0)
(0.299999 -0.000777363 0)
(0.299987 -0.00233662 0)
(0.299962 -0.00390676 0)
(0.299926 -0.00549581 0)
(0.299881 -0.00710867 0)
(0.299831 -0.00875089 0)
(0.299779 -0.0104226 0)
(0.299732 -0.0121246 0)
(0.299698 -0.0138499 0)
(0.299687 -0.0155918 0)
(0.299709 -0.0173329 0)
(0.29978 -0.0190549 0)
(0.299913 -0.0207263 0)
(0.300125 -0.0223144 0)
(0.30043 -0.0237717 0)
(0.300841 -0.0250524 0)
(0.301364 -0.0260958 0)
(0.302003 -0.0268532 0)
(0.302744 -0.0272621 0)
(0.30357 -0.0272955 0)
(0.299999 -0.000771644 0)
(0.299981 -0.00231989 0)
(0.299946 -0.00387961 0)
(0.299894 -0.00546018 0)
(0.299829 -0.00706649 0)
(0.299756 -0.00870614 0)
(0.299681 -0.0103791 0)
(0.299612 -0.0120892 0)
(0.299561 -0.013829 0)
(0.29954 -0.0155958 0)
(0.299565 -0.0173713 0)
(0.299655 -0.0191413 0)
(0.299831 -0.0208724 0)
(0.300114 -0.0225346 0)
(0.300524 -0.024076 0)
(0.30108 -0.02545 0)
(0.301788 -0.0265878 0)
(0.302652 -0.0274363 0)
(0.303653 -0.0279202 0)
(0.30477 -0.0280061 0)
(0.299999 -0.000763776 0)
(0.299975 -0.00229692 0)
(0.299928 -0.00384221 0)
(0.299858 -0.00541104 0)
(0.29977 -0.0070079 0)
(0.299671 -0.00864361 0)
(0.299568 -0.0103172 0)
(0.299471 -0.0120374 0)
(0.299394 -0.0137951 0)
(0.299355 -0.0155943 0)
(0.299372 -0.0174135 0)
(0.299472 -0.0192467 0)
(0.299679 -0.0210552 0)
(0.300023 -0.0228154 0)
(0.30053 -0.0244676 0)
(0.301225 -0.025966 0)
(0.302119 -0.0272298 0)
(0.303219 -0.0281992 0)
(0.304498 -0.0287818 0)
(0.305931 -0.0289347 0)
(0.299999 -0.000753532 0)
(0.299968 -0.00226705 0)
(0.299907 -0.00379333 0)
(0.299818 -0.00534659 0)
(0.299704 -0.0069303 0)
(0.299575 -0.00855996 0)
(0.299437 -0.0102323 0)
(0.299305 -0.0119639 0)
(0.299194 -0.0137411 0)
(0.299125 -0.0155796 0)
(0.299122 -0.0174505 0)
(0.299216 -0.0193623 0)
(0.29944 -0.0212653 0)
(0.29983 -0.02315 0)
(0.300423 -0.0249413 0)
(0.301251 -0.0266003 0)
(0.302332 -0.0280264 0)
(0.303677 -0.0291542 0)
(0.305256 -0.0298661 0)
(0.307037 -0.0301087 0)
(0.299998 -0.000740645 0)
(0.29996 -0.00222951 0)
(0.299884 -0.00373155 0)
(0.299773 -0.00526482 0)
(0.29963 -0.00683068 0)
(0.299465 -0.00845143 0)
(0.299286 -0.0101193 0)
(0.299111 -0.0118624 0)
(0.298954 -0.0136589 0)
(0.298842 -0.0155428 0)
(0.298803 -0.0174707 0)
(0.298874 -0.0194772 0)
(0.299096 -0.0214897 0)
(0.299513 -0.0235287 0)
(0.300177 -0.0254881 0)
(0.301126 -0.0273511 0)
(0.302395 -0.0289815 0)
(0.303997 -0.030315 0)
(0.305903 -0.0311956 0)
(0.308074 -0.0315568 0)
(0.299998 -0.000724819 0)
(0.299952 -0.00218343 0)
(0.299859 -0.00365528 0)
(0.299722 -0.00516345 0)
(0.299545 -0.00670568 0)
(0.29934 -0.00831373 0)
(0.299112 -0.00997191 0)
(0.298884 -0.011726 0)
(0.298669 -0.0135383 0)
(0.298499 -0.0154735 0)
(0.298405 -0.0174594 0)
(0.29843 -0.0195783 0)
(0.298627 -0.0217109 0)
(0.299046 -0.0239395 0)
(0.29976 -0.0260942 0)
(0.300814 -0.028216 0)
(0.302268 -0.0300979 0)
(0.304139 -0.031699 0)
(0.306406 -0.0327995 0)
(0.309023 -0.0333182 0)
(0.299997 -0.000705758 0)
(0.299942 -0.00212788 0)
(0.29983 -0.00356286 0)
(0.299666 -0.00504003 0)
(0.299451 -0.00655166 0)
(0.299199 -0.00814211 0)
(0.298914 -0.0097834 0)
(0.298622 -0.0115464 0)
(0.298334 -0.0133677 0)
(0.298088 -0.0153592 0)
(0.297916 -0.0173987 0)
(0.29787 -0.0196495 0)
(0.298012 -0.0219053 0)
(0.298401 -0.0243677 0)
(0.299138 -0.026738 0)
(0.300269 -0.0291923 0)
(0.301905 -0.0313741 0)
(0.304051 -0.0333299 0)
(0.306725 -0.0347149 0)
(0.309859 -0.0354461 0)
(0.299997 -0.000683179 0)
(0.299932 -0.00206191 0)
(0.299799 -0.00345265 0)
(0.299605 -0.00489199 0)
(0.299346 -0.00636489 0)
(0.299042 -0.0079315 0)
(0.298691 -0.00954651 0)
(0.298324 -0.0113147 0)
(0.297946 -0.013134 0)
(0.297607 -0.0151856 0)
(0.297329 -0.0172669 0)
(0.297182 -0.0196718 0)
(0.297231 -0.0220418 0)
(0.297548 -0.0247953 0)
(0.298271 -0.0273858 0)
(0.299438 -0.0302776 0)
(0.301248 -0.032798 0)
(0.303667 -0.0352401 0)
(0.306806 -0.0369868 0)
(0.310547 -0.0380134 0)
(0.299996 -0.000656839 0)
(0.299921 -0.00198456 0)
(0.299766 -0.00332311 0)
(0.299538 -0.00471674 0)
(0.299232 -0.00614181 0)
(0.29887 -0.00767659 0)
(0.298444 -0.00925398 0)
(0.297991 -0.0110211 0)
(0.297506 -0.0128235 0)
(0.297052 -0.0149365 0)
(0.296638 -0.0170395 0)
(0.296356 -0.0196223 0)
(0.296264 -0.0220807 0)
(0.296459 -0.0252 0)
(0.297115 -0.0279859 0)
(0.298258 -0.0314712 0)
(0.300227 -0.0343355 0)
(0.302891 -0.0374794 0)
(0.306581 -0.0396641 0)
(0.311033 -0.0411234 0)
(0.299996 -0.000626554 0)
(0.299909 -0.00189493 0)
(0.29973 -0.00317299 0)
(0.299467 -0.00451179 0)
(0.299111 -0.0058793 0)
(0.298684 -0.00737199 0)
(0.298175 -0.00889909 0)
(0.297625 -0.0106549 0)
(0.297014 -0.0124223 0)
(0.296425 -0.014593 0)
(0.295839 -0.0166898 0)
(0.295386 -0.0194725 0)
(0.295093 -0.0219746 0)
(0.295109 -0.0255523 0)
(0.295618 -0.0284648 0)
(0.296657 -0.032774 0)
(0.298753 -0.0359117 0)
(0.301591 -0.0401272 0)
(0.305962 -0.0427786 0)
(0.311231 -0.0449302 0)
(0.299996 -0.000592213 0)
(0.299896 -0.00179227 0)
(0.299694 -0.00300135 0)
(0.299391 -0.00427494 0)
(0.298983 -0.00557496 0)
(0.298487 -0.00701248 0)
(0.297889 -0.00847629 0)
(0.297229 -0.0102048 0)
(0.296479 -0.0119184 0)
(0.295731 -0.0141325 0)
(0.294937 -0.0161925 0)
(0.294273 -0.0191844 0)
(0.293703 -0.0216726 0)
(0.293479 -0.0258069 0)
(0.293721 -0.0287289 0)
(0.29457 -0.0341809 0)
(0.296702 -0.0373916 0)
(0.299595 -0.0433102 0)
(0.304839 -0.0462973 0)
(0.310976 -0.0496762 0)
(0.299996 -0.000553772 0)
(0.299883 -0.00167603 0)
(0.299658 -0.00280772 0)
(0.299312 -0.00400446 0)
(0.298854 -0.00522727 0)
(0.29828 -0.00659343 0)
(0.297594 -0.00798159 0)
(0.296808 -0.00965937 0)
(0.295914 -0.0113021 0)
(0.294974 -0.0135293 0)
(0.293948 -0.0155257 0)
(0.293018 -0.0187066 0)
(0.292096 -0.0211277 0)
(0.29156 -0.0258876 0)
(0.29136 -0.028679 0)
(0.291948 -0.0356563 0)
(0.293886 -0.0385768 0)
(0.296724 -0.047211 0)
(0.303042 -0.0500563 0)
(0.309942 -0.0557717 0)
(0.299997 -0.000511244 0)
(0.299868 -0.00154601 0)
(0.299623 -0.00259205 0)
(0.299232 -0.00369946 0)
(0.298728 -0.00483564 0)
(0.298067 -0.00611154 0)
(0.2973 -0.00741277 0)
(0.296366 -0.00900854 0)
(0.295338 -0.0105673 0)
(0.294159 -0.0127556 0)
(0.292907 -0.0146743 0)
(0.29162 -0.0179715 0)
(0.290307 -0.0203054 0)
(0.289324 -0.0256635 0)
(0.288503 -0.0282375 0)
(0.288748 -0.0370714 0)
(0.290032 -0.0392526 0)
(0.292883 -0.0520324 0)
(0.300176 -0.0536785 0)
(0.307579 -0.0640105 0)
(0.299999 -0.000464702 0)
(0.299853 -0.00140247 0)
(0.299591 -0.00235473 0)
(0.29915 -0.00336017 0)
(0.298609 -0.0044004 0)
(0.297851 -0.00556568 0)
(0.29702 -0.00676909 0)
(0.295912 -0.00824576 0)
(0.29478 -0.00971017 0)
(0.293296 -0.0117874 0)
(0.291867 -0.0136279 0)
(0.290069 -0.016904 0)
(0.288432 -0.0191849 0)
(0.286703 -0.0249346 0)
(0.285231 -0.0273746 0)
(0.284812 -0.0380887 0)
(0.284897 -0.039319 0)
(0.288073 -0.0578322 0)
(0.295209 -0.0564877 0)
(0.30343 -0.0759435 0)
(0.300001 -0.000414292 0)
(0.299837 -0.00124613 0)
(0.299564 -0.00209666 0)
(0.299071 -0.00298818 0)
(0.298501 -0.00392279 0)
(0.29764 -0.00495763 0)
(0.296765 -0.00605098 0)
(0.295459 -0.00737058 0)
(0.294265 -0.0087276 0)
(0.292403 -0.0106126 0)
(0.290895 -0.0123748 0)
(0.288374 -0.0154438 0)
(0.28662 -0.0177421 0)
(0.283589 -0.0234684 0)
(0.281835 -0.0260895 0)
(0.279663 -0.0380481 0)
(0.278693 -0.038964 0)
(0.281831 -0.0640464 0)
(0.286293 -0.0578176 0)
(0.298265 -0.0937974 0)
(0.300003 -0.000360297 0)
(0.299823 -0.00107813 0)
(0.29954 -0.00181943 0)
(0.298998 -0.00258623 0)
(0.298408 -0.00340541 0)
(0.297444 -0.00429195 0)
(0.29654 -0.00526092 0)
(0.29503 -0.0063893 0)
(0.293809 -0.00761788 0)
(0.291527 -0.00923639 0)
(0.290029 -0.0108968 0)
(0.286606 -0.0135752 0)
(0.284997 -0.0159169 0)
(0.279992 -0.0211132 0)
(0.278724 -0.0242825 0)
(0.272603 -0.0361328 0)
(0.272509 -0.038481 0)
(0.271715 -0.0687701 0)
(0.27327 -0.0585842 0)
(0.294547 -0.120489 0)
(0.300006 -0.000303383 0)
(0.29981 -0.000899751 0)
(0.299521 -0.00152586 0)
(0.298935 -0.00215789 0)
(0.298329 -0.00285372 0)
(0.297276 -0.00357473 0)
(0.29635 -0.00440707 0)
(0.294657 -0.00531193 0)
(0.293416 -0.0063895 0)
(0.290747 -0.00767567 0)
(0.289268 -0.00918736 0)
(0.284957 -0.0113265 0)
(0.283541 -0.013621 0)
(0.276299 -0.0178849 0)
(0.275937 -0.0215971 0)
(0.263793 -0.0319313 0)
(0.267227 -0.0374519 0)
(0.253039 -0.068577 0)
(0.263254 -0.0644312 0)
(0.289009 -0.165493 0)
(0.300008 -0.000244604 0)
(0.2998 -0.000713195 0)
(0.299507 -0.00121965 0)
(0.298886 -0.00170844 0)
(0.298268 -0.00227494 0)
(0.297145 -0.00281519 0)
(0.296197 -0.00350222 0)
(0.294367 -0.00415345 0)
(0.293089 -0.00506383 0)
(0.290143 -0.00595528 0)
(0.288593 -0.00727504 0)
(0.283676 -0.00874599 0)
(0.282122 -0.0108378 0)
(0.273322 -0.0139113 0)
(0.27282 -0.0175858 0)
(0.255574 -0.0258183 0)
(0.260527 -0.0332707 0)
(0.225706 -0.0620972 0)
(0.255564 -0.076691 0)
(0.250601 -0.228896 0)
(0.30167 -0.0261055 0)
(0.301801 -0.0259411 0)
(0.301926 -0.0257469 0)
(0.30205 -0.0255243 0)
(0.302177 -0.0252734 0)
(0.302308 -0.0249944 0)
(0.302441 -0.0246876 0)
(0.302574 -0.0243542 0)
(0.30271 -0.0239932 0)
(0.302839 -0.023614 0)
(0.30277 -0.0265091 0)
(0.302945 -0.0263662 0)
(0.303122 -0.0261913 0)
(0.3033 -0.0259837 0)
(0.303479 -0.0257443 0)
(0.303658 -0.0254741 0)
(0.303836 -0.0251738 0)
(0.304014 -0.0248449 0)
(0.30419 -0.0244857 0)
(0.304361 -0.0241093 0)
(0.304138 -0.0270438 0)
(0.304391 -0.0268966 0)
(0.304643 -0.0267154 0)
(0.304894 -0.0265012 0)
(0.305143 -0.0262547 0)
(0.30539 -0.0259763 0)
(0.305634 -0.0256668 0)
(0.305874 -0.0253277 0)
(0.30611 -0.0249569 0)
(0.306335 -0.0245692 0)
(0.305537 -0.0277634 0)
(0.305876 -0.0276179 0)
(0.306211 -0.0274363 0)
(0.306543 -0.0272195 0)
(0.306872 -0.0269678 0)
(0.307197 -0.0266817 0)
(0.307518 -0.0263617 0)
(0.307832 -0.0260098 0)
(0.308139 -0.0256229 0)
(0.308432 -0.0252205 0)
(0.306915 -0.0287054 0)
(0.30735 -0.028562 0)
(0.307778 -0.0283783 0)
(0.3082 -0.0281551 0)
(0.308619 -0.027893 0)
(0.309033 -0.0275927 0)
(0.30944 -0.0272548 0)
(0.309837 -0.0268817 0)
(0.310224 -0.0264692 0)
(0.310591 -0.0260434 0)
(0.308266 -0.0298938 0)
(0.308807 -0.029751 0)
(0.30934 -0.0295624 0)
(0.309865 -0.0293291 0)
(0.310385 -0.0290518 0)
(0.310897 -0.0287314 0)
(0.3114 -0.0283685 0)
(0.311889 -0.0279665 0)
(0.312365 -0.0275191 0)
(0.312816 -0.0270626 0)
(0.309582 -0.0313591 0)
(0.310247 -0.0312165 0)
(0.310899 -0.0310207 0)
(0.311541 -0.0307732 0)
(0.312175 -0.030475 0)
(0.3128 -0.0301271 0)
(0.313411 -0.0297306 0)
(0.314004 -0.0292899 0)
(0.31458 -0.028796 0)
(0.315124 -0.0282996 0)
(0.310858 -0.0331433 0)
(0.311667 -0.0330006 0)
(0.312458 -0.0327949 0)
(0.313237 -0.032528 0)
(0.314005 -0.0322013 0)
(0.314759 -0.0318165 0)
(0.315495 -0.0313748 0)
(0.316207 -0.0308827 0)
(0.316895 -0.0303272 0)
(0.317545 -0.0297796 0)
(0.312085 -0.035303 0)
(0.313066 -0.0351605 0)
(0.314025 -0.0349411 0)
(0.314966 -0.0346475 0)
(0.315892 -0.0342817 0)
(0.316799 -0.0338465 0)
(0.31768 -0.033344 0)
(0.31853 -0.0327832 0)
(0.319346 -0.0321461 0)
(0.320115 -0.0315318 0)
(0.313249 -0.0379166 0)
(0.314443 -0.0377748 0)
(0.315608 -0.0375362 0)
(0.316748 -0.0372045 0)
(0.317866 -0.0367837 0)
(0.318956 -0.0362783 0)
(0.320009 -0.0356917 0)
(0.321019 -0.0350375 0)
(0.321982 -0.0342907 0)
(0.322886 -0.033588 0)
(0.314335 -0.0410964 0)
(0.315799 -0.0409556 0)
(0.317227 -0.0406876 0)
(0.318618 -0.0402992 0)
(0.319974 -0.0397977 0)
(0.321288 -0.0391912 0)
(0.322548 -0.0384858 0)
(0.323746 -0.0377009 0)
(0.324876 -0.0368042 0)
(0.32593 -0.0359797 0)
(0.315318 -0.0450116 0)
(0.317145 -0.0448685 0)
(0.318922 -0.0445499 0)
(0.32064 -0.0440708 0)
(0.322299 -0.0434457 0)
(0.32389 -0.0426888 0)
(0.3254 -0.0418102 0)
(0.32682 -0.0408382 0)
(0.328142 -0.0397325 0)
(0.329359 -0.0387344 0)
(0.316173 -0.0499273 0)
(0.318518 -0.0497664 0)
(0.32078 -0.0493511 0)
(0.322933 -0.0487178 0)
(0.324984 -0.0478953 0)
(0.326925 -0.0469063 0)
(0.328745 -0.0457677 0)
(0.330427 -0.0445204 0)
(0.331967 -0.0431176 0)
(0.33335 -0.0418647 0)
(0.316886 -0.0562674 0)
(0.320034 -0.0560408 0)
(0.323003 -0.0554371 0)
(0.325754 -0.054539 0)
(0.328323 -0.0533953 0)
(0.330716 -0.0520394 0)
(0.332916 -0.0504988 0)
(0.334899 -0.048832 0)
(0.336666 -0.046993 0)
(0.338187 -0.0453489 0)
(0.317608 -0.0647385 0)
(0.322082 -0.0642995 0)
(0.3261 -0.0633181 0)
(0.329674 -0.0619595 0)
(0.332923 -0.0602883 0)
(0.335874 -0.0583406 0)
(0.338492 -0.0561592 0)
(0.340738 -0.0538268 0)
(0.342624 -0.0513162 0)
(0.344108 -0.0490315 0)
(0.319275 -0.0766059 0)
(0.325876 -0.07556 0)
(0.331259 -0.0737339 0)
(0.335731 -0.0714457 0)
(0.339627 -0.0687734 0)
(0.342984 -0.0657507 0)
(0.345725 -0.0624457 0)
(0.347791 -0.0589687 0)
(0.349236 -0.0553532 0)
(0.350017 -0.0519418 0)
(0.324108 -0.0936953 0)
(0.333513 -0.0913259 0)
(0.339813 -0.0877191 0)
(0.34419 -0.0834227 0)
(0.347506 -0.0786022 0)
(0.349874 -0.0733745 0)
(0.351197 -0.0678991 0)
(0.351429 -0.0623223 0)
(0.350769 -0.0567967 0)
(0.349094 -0.0513592 0)
(0.330869 -0.114966 0)
(0.341406 -0.109319 0)
(0.345568 -0.102273 0)
(0.346223 -0.0943053 0)
(0.34512 -0.0856865 0)
(0.342629 -0.076802 0)
(0.338824 -0.0680063 0)
(0.333841 -0.0594928 0)
(0.328186 -0.0514544 0)
(0.32129 -0.0434985 0)
(0.320873 -0.127101 0)
(0.321758 -0.109936 0)
(0.313681 -0.0952829 0)
(0.302959 -0.0815995 0)
(0.291367 -0.0683698 0)
(0.279015 -0.0559239 0)
(0.266265 -0.0445402 0)
(0.253704 -0.0342813 0)
(0.241919 -0.0250563 0)
(0.230084 -0.016629 0)
(0.24782 -0.14015 0)
(0.202093 -0.103464 0)
(0.157559 -0.0734128 0)
(0.128003 -0.0491569 0)
(0.107529 -0.0303079 0)
(0.0919422 -0.0165552 0)
(0.0803489 -0.00700874 0)
(0.0722836 -0.000529203 0)
(0.0668547 0.0038819 0)
(0.0633883 0.00679363 0)
(0.303544 -0.0214926 0)
(0.304599 -0.0163499 0)
(0.305387 -0.0110706 0)
(0.306067 -0.00587957 0)
(0.306183 -0.00157222 0)
(0.306144 0.00112987 0)
(0.30588 0.00233622 0)
(0.305963 0.00230118 0)
(0.306526 0.00337984 0)
(0.306773 0.0046415 0)
(0.307341 0.00681878 0)
(0.307234 0.00897397 0)
(0.306463 0.00858907 0)
(0.306069 0.00727448 0)
(0.304872 0.00403388 0)
(0.305677 0.000247039 0)
(0.30621 0.000753077 0)
(0.306829 -0.000611514 0)
(0.308468 0.00377224 0)
(0.307788 0.00602094 0)
(0.305244 -0.021915 0)
(0.306255 -0.0166365 0)
(0.306845 -0.0112808 0)
(0.307208 -0.00597688 0)
(0.306951 -0.00155435 0)
(0.306532 0.00119912 0)
(0.306026 0.00236668 0)
(0.306105 0.00219024 0)
(0.306782 0.00323638 0)
(0.307107 0.00451703 0)
(0.307625 0.00675435 0)
(0.307317 0.00909973 0)
(0.306358 0.00878448 0)
(0.305819 0.00752662 0)
(0.304536 0.00410835 0)
(0.305661 -3.97559e-05 0)
(0.306425 0.000484038 0)
(0.307265 -0.00107476 0)
(0.309016 0.00357955 0)
(0.307964 0.00613011 0)
(0.307478 -0.0223056 0)
(0.308587 -0.0168717 0)
(0.309066 -0.0114 0)
(0.309113 -0.00594223 0)
(0.308395 -0.00139134 0)
(0.307415 0.0013911 0)
(0.306491 0.00243886 0)
(0.306518 0.00206366 0)
(0.307356 0.00306397 0)
(0.307812 0.00438714 0)
(0.308284 0.00675888 0)
(0.307634 0.00932682 0)
(0.306322 0.00906651 0)
(0.305465 0.00782285 0)
(0.304003 0.00408109 0)
(0.305648 -0.000314031 0)
(0.306773 0.000217212 0)
(0.307996 -0.00141378 0)
(0.309982 0.00351454 0)
(0.308317 0.00633764 0)
(0.309897 -0.0227919 0)
(0.31117 -0.0171071 0)
(0.311617 -0.0114517 0)
(0.311403 -0.00578495 0)
(0.310244 -0.00107001 0)
(0.308638 0.00173512 0)
(0.307217 0.00258203 0)
(0.307167 0.00192861 0)
(0.308218 0.00285332 0)
(0.308863 0.00425419 0)
(0.309319 0.00684354 0)
(0.308237 0.00965706 0)
(0.306444 0.00945136 0)
(0.305114 0.00818435 0)
(0.303358 0.00400144 0)
(0.305633 -0.000766152 0)
(0.307202 -0.000196233 0)
(0.308941 -0.00191092 0)
(0.311302 0.00350028 0)
(0.308837 0.00664013 0)
(0.312416 -0.0233776 0)
(0.31386 -0.0173714 0)
(0.314313 -0.01147 0)
(0.313873 -0.00553021 0)
(0.31229 -0.00059551 0)
(0.31002 0.00224272 0)
(0.308062 0.00280311 0)
(0.307941 0.00176818 0)
(0.30928 0.00257685 0)
(0.310192 0.00409279 0)
(0.310678 0.00699918 0)
(0.309112 0.0101195 0)
(0.306744 0.00999153 0)
(0.304797 0.00867287 0)
(0.30265 0.00386724 0)
(0.305598 -0.00136888 0)
(0.307683 -0.000768866 0)
(0.310036 -0.00254274 0)
(0.312889 0.00354779 0)
(0.309478 0.00706963 0)
(0.315034 -0.0240679 0)
(0.316628 -0.0176734 0)
(0.317101 -0.0114618 0)
(0.316442 -0.00518046 0)
(0.314423 3.89246e-05 0)
(0.311428 0.0029245 0)
(0.308897 0.00310275 0)
(0.308718 0.00156616 0)
(0.310444 0.00220763 0)
(0.311724 0.00388118 0)
(0.312289 0.00722639 0)
(0.310206 0.0107377 0)
(0.307182 0.0107258 0)
(0.304481 0.00932 0)
(0.301879 0.00368317 0)
(0.305492 -0.00213342 0)
(0.308162 -0.00152115 0)
(0.311198 -0.00333633 0)
(0.314631 0.00366681 0)
(0.310157 0.0076465 0)
(0.317776 -0.0248611 0)
(0.319475 -0.0180167 0)
(0.319976 -0.0114262 0)
(0.319096 -0.00472926 0)
(0.316599 0.000850328 0)
(0.312779 0.003797 0)
(0.309625 0.00348359 0)
(0.309397 0.0013054 0)
(0.311625 0.00171504 0)
(0.313391 0.00359891 0)
(0.314076 0.00752598 0)
(0.311443 0.0115271 0)
(0.307679 0.0116839 0)
(0.304092 0.0101482 0)
(0.301004 0.00345953 0)
(0.305216 -0.00306433 0)
(0.308536 -0.00247639 0)
(0.312294 -0.00431175 0)
(0.316365 0.00386571 0)
(0.310744 0.00838138 0)
(0.320674 -0.0257519 0)
(0.322412 -0.018405 0)
(0.322957 -0.0113622 0)
(0.32185 -0.00416609 0)
(0.3188 0.00186458 0)
(0.314018 0.0048847 0)
(0.310171 0.00395137 0)
(0.30989 0.000968925 0)
(0.312737 0.00106478 0)
(0.315118 0.0032249 0)
(0.315949 0.00789909 0)
(0.312729 0.0125036 0)
(0.308121 0.0128974 0)
(0.303532 0.0111774 0)
(0.299948 0.00321015 0)
(0.304612 -0.00415305 0)
(0.308622 -0.00365126 0)
(0.313099 -0.00547733 0)
(0.317848 0.00415067 0)
(0.311049 0.00927812 0)
(0.323765 -0.0267309 0)
(0.325453 -0.0188443 0)
(0.326067 -0.0112687 0)
(0.324725 -0.0034761 0)
(0.321007 0.00311848 0)
(0.315092 0.00621985 0)
(0.310461 0.00451769 0)
(0.310096 0.000541581 0)
(0.313662 0.00022023 0)
(0.316781 0.002739 0)
(0.317772 0.00834993 0)
(0.313924 0.013688 0)
(0.308356 0.0143991 0)
(0.302684 0.0124225 0)
(0.298588 0.00296161 0)
(0.303439 -0.00537062 0)
(0.308125 -0.00505048 0)
(0.313256 -0.00683388 0)
(0.318726 0.00452024 0)
(0.310811 0.0103297 0)
(0.327101 -0.0277837 0)
(0.328618 -0.0193426 0)
(0.32933 -0.0111425 0)
(0.327729 -0.00263793 0)
(0.323173 0.00466153 0)
(0.315917 0.00784231 0)
(0.310394 0.00520173 0)
(0.309852 1.05217e-05 0)
(0.314173 -0.000848194 0)
(0.318121 0.00212415 0)
(0.319295 0.00888309 0)
(0.3148 0.015102 0)
(0.308168 0.0162165 0)
(0.301398 0.0138946 0)
(0.296727 0.0027645 0)
(0.301355 -0.00665689 0)
(0.306598 -0.00665824 0)
(0.312249 -0.00837518 0)
(0.31853 0.00495515 0)
(0.309699 0.0115111 0)
(0.330757 -0.0288905 0)
(0.331936 -0.019907 0)
(0.33274 -0.010972 0)
(0.330801 -0.00161866 0)
(0.325164 0.00655835 0)
(0.316337 0.00980032 0)
(0.309781 0.00603656 0)
(0.308859 -0.000602853 0)
(0.313828 -0.00214787 0)
(0.318635 0.00136502 0)
(0.320063 0.0094926 0)
(0.314977 0.0167559 0)
(0.307251 0.0183595 0)
(0.299469 0.0156019 0)
(0.294062 0.00270191 0)
(0.297892 -0.00791058 0)
(0.303441 -0.00842988 0)
(0.309419 -0.0100914 0)
(0.316687 0.00540627 0)
(0.307326 0.0127727 0)
(0.334851 -0.0300243 0)
(0.335408 -0.0205318 0)
(0.336155 -0.0107267 0)
(0.333675 -0.000354343 0)
(0.326647 0.0088907 0)
(0.31603 0.0121514 0)
(0.308256 0.00708562 0)
(0.306546 -0.0012241 0)
(0.311813 -0.00364868 0)
(0.317434 0.00045556 0)
(0.319317 0.010143 0)
(0.313865 0.0186261 0)
(0.305193 0.0208048 0)
(0.296594 0.0175531 0)
(0.290143 0.00289827 0)
(0.292477 -0.00898647 0)
(0.297948 -0.0102909 0)
(0.304046 -0.0119815 0)
(0.312605 0.0057805 0)
(0.303297 0.014036 0)
(0.339558 -0.0311389 0)
(0.338842 -0.0211614 0)
(0.339025 -0.0103256 0)
(0.335606 0.00122968 0)
(0.326892 0.0117378 0)
(0.31436 0.0149551 0)
(0.305113 0.00846003 0)
(0.301919 -0.00170394 0)
(0.306829 -0.00526808 0)
(0.313173 -0.00062689 0)
(0.31595 0.0107455 0)
(0.310659 0.0206237 0)
(0.301477 0.0234778 0)
(0.292347 0.0197645 0)
(0.284384 0.00351718 0)
(0.284505 -0.00971062 0)
(0.289446 -0.0121492 0)
(0.295528 -0.0140676 0)
(0.305805 0.00593491 0)
(0.29729 0.0151964 0)
(0.344964 -0.032126 0)
(0.34137 -0.0215936 0)
(0.33983 -0.00957595 0)
(0.334904 0.00322216 0)
(0.324477 0.0151422 0)
(0.310173 0.018256 0)
(0.299118 0.010323 0)
(0.293439 -0.00179837 0)
(0.297101 -0.00687125 0)
(0.304153 -0.00195697 0)
(0.308622 0.0111203 0)
(0.304426 0.0225612 0)
(0.295529 0.0262426 0)
(0.286179 0.0222642 0)
(0.276142 0.00473621 0)
(0.273511 -0.00992214 0)
(0.277533 -0.0139232 0)
(0.283621 -0.0164045 0)
(0.296097 0.00569143 0)
(0.289144 0.0161376 0)
(0.350348 -0.0326223 0)
(0.340393 -0.0213081 0)
(0.335234 -0.00813322 0)
(0.328376 0.0056803 0)
(0.317006 0.0190317 0)
(0.301603 0.0220494 0)
(0.288392 0.0128844 0)
(0.279149 -0.00122078 0)
(0.280758 -0.00831384 0)
(0.288776 -0.003682 0)
(0.296115 0.0109656 0)
(0.294346 0.024139 0)
(0.286822 0.0289107 0)
(0.277481 0.0250882 0)
(0.264903 0.00669948 0)
(0.259397 -0.00953153 0)
(0.262334 -0.0155806 0)
(0.268648 -0.0190779 0)
(0.283704 0.00487296 0)
(0.278938 0.0167557 0)
(0.35216 -0.0314108 0)
(0.329987 -0.0192707 0)
(0.319367 -0.00559315 0)
(0.311175 0.00844395 0)
(0.301165 0.0230802 0)
(0.286144 0.0262151 0)
(0.270641 0.0163383 0)
(0.257255 0.00023263 0)
(0.256686 -0.00956322 0)
(0.266347 -0.00604709 0)
(0.277916 0.00987974 0)
(0.280053 0.0249822 0)
(0.27501 0.0312792 0)
(0.265756 0.0282606 0)
(0.250546 0.00944132 0)
(0.242661 -0.00857455 0)
(0.244678 -0.0171637 0)
(0.251567 -0.0221798 0)
(0.269271 0.0033575 0)
(0.266999 0.0169885 0)
(0.340291 -0.0260783 0)
(0.299882 -0.014088 0)
(0.28467 -0.00185387 0)
(0.278152 0.0108519 0)
(0.273755 0.0265728 0)
(0.261349 0.0304357 0)
(0.244038 0.0206909 0)
(0.227299 0.00257084 0)
(0.225649 -0.0108236 0)
(0.237897 -0.00937395 0)
(0.254725 0.00745955 0)
(0.26189 0.0247482 0)
(0.260057 0.0331944 0)
(0.250848 0.0317519 0)
(0.233599 0.0128155 0)
(0.224497 -0.00723607 0)
(0.22605 -0.0187734 0)
(0.233801 -0.0257554 0)
(0.253718 0.00113977 0)
(0.25386 0.0168346 0)
(0.295567 -0.0149141 0)
(0.238774 -0.00588244 0)
(0.226789 0.0018004 0)
(0.227832 0.0114957 0)
(0.234021 0.0284479 0)
(0.226373 0.0341979 0)
(0.208816 0.0255427 0)
(0.191467 0.00530077 0)
(0.190922 -0.0125225 0)
(0.206357 -0.0139368 0)
(0.228467 0.00347841 0)
(0.240871 0.023274 0)
(0.242298 0.0346028 0)
(0.233192 0.0354232 0)
(0.215362 0.0164619 0)
(0.206669 -0.00583244 0)
(0.208322 -0.0205217 0)
(0.216917 -0.0297384 0)
(0.238022 -0.00167502 0)
(0.240181 0.0163498 0)
(0.199951 0.00567361 0)
(0.148236 0.00381305 0)
(0.153673 0.00268573 0)
(0.166811 0.00870003 0)
(0.185653 0.0278517 0)
(0.183594 0.0370074 0)
(0.168606 0.0300263 0)
(0.154933 0.00744109 0)
(0.157693 -0.0151239 0)
(0.175726 -0.0197477 0)
(0.201688 -0.00194052 0)
(0.218395 0.0206798 0)
(0.222514 0.0355413 0)
(0.213973 0.0390002 0)
(0.197771 0.019867 0)
(0.191179 -0.00470511 0)
(0.193365 -0.0224576 0)
(0.202307 -0.0339148 0)
(0.223071 -0.00483912 0)
(0.226715 0.0156234 0)
(0.079685 0.0141906 0)
(0.0574629 0.00478429 0)
(0.0846208 -0.00241435 0)
(0.106879 0.00192582 0)
(0.135659 0.0248528 0)
(0.138889 0.0385413 0)
(0.130188 0.0331391 0)
(0.124344 0.00808132 0)
(0.131347 -0.0186617 0)
(0.149901 -0.0263429 0)
(0.176895 -0.00830342 0)
(0.196057 0.0173342 0)
(0.202073 0.036071 0)
(0.195113 0.0421168 0)
(0.183026 0.0225208 0)
(0.179828 -0.00407545 0)
(0.182714 -0.0244352 0)
(0.191071 -0.0379486 0)
(0.209656 -0.00802556 0)
(0.214285 0.0147607 0)
(0.0404197 0.0075943 0)
(0.0165913 0.00279852 0)
(0.0497629 -0.00797083 0)
(0.0727242 -0.00386751 0)
(0.105069 0.0213654 0)
(0.112048 0.0383269 0)
(0.109986 0.0337109 0)
(0.111053 0.00734026 0)
(0.12058 -0.021292 0)
(0.137402 -0.0307478 0)
(0.162529 -0.0128472 0)
(0.181822 0.0147404 0)
(0.188769 0.0360143 0)
(0.183888 0.0435899 0)
(0.176081 0.023548 0)
(0.175658 -0.00411909 0)
(0.178963 -0.0255907 0)
(0.186126 -0.0403664 0)
(0.201889 -0.0101241 0)
(0.206925 0.0141857 0)
(0.0226757 0.00520305 0)
(-0.00131066 0.00206164 0)
(0.033797 -0.0111695 0)
(0.0559466 -0.00711654 0)
(0.0893295 0.0191103 0)
(0.0983946 0.0378445 0)
(0.100499 0.0335395 0)
(0.105686 0.00657782 0)
(0.116524 -0.0228004 0)
(0.13193 -0.0330737 0)
(0.155319 -0.0153328 0)
(0.174234 0.0132453 0)
(0.181597 0.0358592 0)
(0.178105 0.0442007 0)
(0.172997 0.0238828 0)
(0.174204 -0.00430379 0)
(0.177732 -0.0261991 0)
(0.184058 -0.0415979 0)
(0.197931 -0.0112453 0)
(0.203114 0.0138801 0)
(0.00975608 0.00485551 0)
(-0.0138569 0.0013273 0)
(0.0220838 -0.01436 0)
(0.042331 -0.0103128 0)
(0.0757936 0.0166812 0)
(0.0868635 0.0369925 0)
(0.0933783 0.0328697 0)
(0.102673 0.00550528 0)
(0.114615 -0.0242852 0)
(0.128218 -0.035185 0)
(0.149245 -0.0176667 0)
(0.167336 0.0117634 0)
(0.175001 0.035589 0)
(0.17308 0.0445604 0)
(0.170861 0.0239602 0)
(0.173693 -0.00460777 0)
(0.177409 -0.0267607 0)
(0.182763 -0.0426628 0)
(0.194503 -0.0122648 0)
(0.199748 0.0135788 0)
(0.00148297 0.00575826 0)
(-0.0211527 0.000511959 0)
(0.0148596 -0.0174529 0)
(0.0322662 -0.0133673 0)
(0.0648968 0.0141595 0)
(0.077837 0.0357726 0)
(0.0888436 0.0317153 0)
(0.102053 0.00415033 0)
(0.114843 -0.0257127 0)
(0.126328 -0.0370361 0)
(0.144441 -0.019794 0)
(0.161275 0.0103278 0)
(0.16913 0.0352092 0)
(0.168929 0.0446565 0)
(0.169713 0.0237796 0)
(0.174116 -0.00501272 0)
(0.177976 -0.0272708 0)
(0.182247 -0.043541 0)
(0.191649 -0.0131621 0)
(0.196875 0.0132771 0)
(-0.0023629 0.0072656 0)
(-0.0232797 -0.000398995 0)
(0.012291 -0.0203448 0)
(0.0260861 -0.016168 0)
(0.0570205 0.0116047 0)
(0.0716237 0.0341953 0)
(0.0870181 0.0300944 0)
(0.103786 0.00254376 0)
(0.117139 -0.0270504 0)
(0.126282 -0.0385799 0)
(0.141028 -0.0216598 0)
(0.156195 0.00896976 0)
(0.164126 0.0347191 0)
(0.16575 0.0444783 0)
(0.169572 0.023342 0)
(0.175449 -0.00551301 0)
(0.1794 -0.0277201 0)
(0.182509 -0.0442159 0)
(0.189412 -0.0139223 0)
(0.194538 0.0129804 0)
(-0.00189375 0.00883155 0)
(-0.020309 -0.00139619 0)
(0.014453 -0.0229696 0)
(0.0240468 -0.0186251 0)
(0.0524754 0.00907528 0)
(0.0684447 0.0322856 0)
(0.0879274 0.0280416 0)
(0.107758 0.000724255 0)
(0.121384 -0.0282714 0)
(0.128058 -0.0397819 0)
(0.1391 -0.0232181 0)
(0.152233 0.00771803 0)
(0.160123 0.0341197 0)
(0.163624 0.0440212 0)
(0.170434 0.0226541 0)
(0.177647 -0.00610078 0)
(0.181634 -0.028101 0)
(0.183536 -0.044676 0)
(0.187827 -0.0145332 0)
(0.192775 0.0126943 0)
(0.00297165 0.00994183 0)
(-0.0123153 -0.00248191 0)
(0.0213008 -0.0252773 0)
(0.0263006 -0.020668 0)
(0.0514866 0.00663462 0)
(0.0684279 0.0300859 0)
(0.0915075 0.0256107 0)
(0.1138 -0.00125973 0)
(0.127415 -0.0293557 0)
(0.131588 -0.0406228 0)
(0.138726 -0.0244341 0)
(0.149511 0.00659823 0)
(0.157241 0.0334161 0)
(0.16261 0.0432887 0)
(0.172278 0.0217299 0)
(0.180655 -0.00676437 0)
(0.18462 -0.0284087 0)
(0.185306 -0.0449155 0)
(0.186921 -0.0149852 0)
(0.191618 0.0124228 0)
(0.0125176 0.0100766 0)
(0.000619754 -0.00365807 0)
(0.0326619 -0.0272159 0)
(0.0328689 -0.0222393 0)
(0.0541796 0.00435015 0)
(0.0716103 0.0276593 0)
(0.0976209 0.0228741 0)
(0.121699 -0.00335392 0)
(0.135027 -0.0302903 0)
(0.136756 -0.0410981 0)
(0.13993 -0.025287 0)
(0.148128 0.00563026 0)
(0.155583 0.0326177 0)
(0.162747 0.0422941 0)
(0.175063 0.0205907 0)
(0.184405 -0.00748907 0)
(0.18829 -0.0286417 0)
(0.187784 -0.0449335 0)
(0.186712 -0.0152723 0)
(0.191088 0.012169 0)
(0.0271711 0.00851185 0)
(0.0184008 -0.00486064 0)
(0.0482263 -0.0287447 0)
(0.0436207 -0.0233021 0)
(0.0605683 0.00228928 0)
(0.0779465 0.0250859 0)
(0.106074 0.0199201 0)
(0.131213 -0.0055017 0)
(0.143991 -0.0310645 0)
(0.143405 -0.0412123 0)
(0.142696 -0.0257659 0)
(0.148157 0.00482911 0)
(0.15523 0.0317371 0)
(0.164055 0.04106 0)
(0.178736 0.0192646 0)
(0.188823 -0.00825802 0)
(0.192567 -0.028799 0)
(0.190922 -0.0447323 0)
(0.187208 -0.0153914 0)
(0.191201 0.0119354 0)
(0.0473326 0.0042775 0)
(0.0409141 -0.0061843 0)
(0.0675411 -0.0298483 0)
(0.0582601 -0.0238669 0)
(0.0705418 0.000502045 0)
(0.0873202 0.0224135 0)
(0.116637 0.0168258 0)
(0.142082 -0.00764381 0)
(0.154054 -0.0316551 0)
(0.151339 -0.0409626 0)
(0.146956 -0.0258509 0)
(0.149633 0.00422687 0)
(0.156243 0.0307899 0)
(0.166538 0.0396062 0)
(0.183237 0.0177779 0)
(0.193829 -0.00906078 0)
(0.197369 -0.0288693 0)
(0.194664 -0.0443108 0)
(0.188403 -0.0153398 0)
(0.191963 0.0117328 0)
(0.103137 -0.0053445 0)
(0.0998322 -0.0111261 0)
(0.116477 -0.0313613 0)
(0.0975532 -0.0240981 0)
(0.0994874 -0.00284346 0)
(0.113927 0.0163162 0)
(0.143674 0.00984125 0)
(0.168099 -0.0122046 0)
(0.177776 -0.0324904 0)
(0.170911 -0.039628 0)
(0.159228 -0.0251195 0)
(0.15597 0.00349867 0)
(0.161481 0.0286301 0)
(0.174484 0.0359521 0)
(0.194684 0.0142101 0)
(0.205815 -0.0108959 0)
(0.208769 -0.0287884 0)