/*--------------------------------*- C++ -*----------------------------------*\
| =========                 |                                                 |
| \\      /  F ield         | OpenFOAM: The Open Source CFD Toolbox           |
|  \\    /   O peration     | Version:  v1806                                 |
|   \\  /    A nd           | Web:      www.OpenFOAM.com                      |
|    \\/     M anipulation  |                                                 |
\*---------------------------------------------------------------------------*/
FoamFile
{
    version     2.0;
    format      ascii;
    class       surfaceScalarField;
    location    "90";
    object      phi;
}
// * * * * * * * * * * * * * * * * * * * * * * * * * * * * * * * * * * * * * //

dimensions      [0 3 -1 0 0 0 0];
oriented        oriented;


internalField   nonuniform List<scalar> 
8600
(
0.0487854
-0.0629749
-0.0432626
0.0574521
0.0431282
-0.0754294
0.0810866
0.0349428
-0.0812274
0.0894128
0.0283877
-0.085222
0.0917771
0.0237074
-0.0876944
0.0923747
0.0203999
-0.0890909
0.0923984
0.0180239
-0.0897681
0.0921441
0.0162664
-0.0899928
0.0917503
0.0149296
-0.0899526
0.0912894
0.0138905
-0.0897594
0.0907986
0.0130691
-0.089476
0.0902974
0.0124116
-0.0891385
0.0897961
0.0118806
-0.0887691
0.0893
0.0114503
-0.0883814
0.0888117
0.0111022
-0.0879838
0.088332
0.0108229
-0.0875813
0.0878606
0.0106029
-0.0871765
0.0873964
0.0104353
-0.086771
0.0869386
0.0103146
-0.0863716
0.0864924
-0.086026
0.086104
0.0291636
-0.0611369
-0.0310016
0.0250664
-0.0713322
0.0221873
-0.0783483
0.0202013
-0.083236
0.0185747
-0.0860678
0.0171067
-0.0876229
0.0158039
-0.0884653
0.0146922
-0.0888811
0.0137635
-0.0890239
0.0129918
-0.0889878
0.0123498
-0.088834
0.0118145
-0.0886032
0.0113676
-0.0883223
0.0109954
-0.0880092
0.0106873
-0.0876757
0.0104356
-0.0873296
0.0102345
-0.0869754
0.01008
-0.0866165
0.00996922
-0.0862608
-0.0859494
0.0239721
-0.0639833
-0.0211257
0.0244852
-0.0718453
0.0234772
-0.0773403
0.0214613
-0.0812201
0.0193039
-0.0839103
0.017413
-0.0857321
0.0158629
-0.0869152
0.0146097
-0.087628
0.0135925
-0.0880067
0.0127605
-0.0881558
0.0120757
-0.0881493
0.0115099
-0.0880374
0.0110418
-0.0878542
0.0106555
-0.0876229
0.0103389
-0.0873592
0.0100831
-0.0870738
0.00988146
-0.0867737
0.00972918
-0.0864642
0.0096221
-0.0861537
-0.0858798
0.0171624
-0.0670315
-0.0141142
0.0177379
-0.0724208
0.0173051
-0.0769075
0.0165476
-0.0804627
0.0157241
-0.0830868
0.0148826
-0.0848906
0.0140482
-0.0860808
0.0132601
-0.0868398
0.0125458
-0.0872924
0.0119157
-0.0875256
0.0113683
-0.0876019
0.0108978
-0.0875668
0.0104967
-0.0874531
0.0101581
-0.0872842
0.00987583
-0.0870769
0.00964488
-0.0868428
0.00946134
-0.0865902
0.00932222
-0.0863251
0.00922474
-0.0860562
-0.0858178
0.0135521
-0.070261
-0.0103225
0.0151686
-0.0740373
0.0157262
-0.077465
0.0155396
-0.0802761
0.0149176
-0.0824648
0.0141296
-0.0841026
0.0133317
-0.085283
0.0125893
-0.0860974
0.0119233
-0.0866264
0.0113364
-0.0869388
0.0108251
-0.0870906
0.0103836
-0.0871253
0.0100057
-0.0870752
0.00968572
-0.0869642
0.00941858
-0.0868098
0.00920013
-0.0866244
0.00902705
-0.0864171
0.00889677
-0.0861948
0.00880684
-0.0859663
-0.0857622
0.0103805
-0.0729421
-0.00769947
0.0118952
-0.075552
0.0125652
-0.0781351
0.0127124
-0.0804233
0.0125622
-0.0823146
0.0122441
-0.0837845
0.0118331
-0.0848719
0.0113806
-0.085645
0.0109243
-0.0861701
0.0104886
-0.086503
0.0100869
-0.0866889
0.00972566
-0.0867641
0.00940718
-0.0867567
0.00913149
-0.0866885
0.00889761
-0.0865759
0.00870419
-0.086431
0.0085499
-0.0862628
0.00843357
-0.0860785
0.00835374
-0.0858865
-0.0857137
0.00830183
-0.0752955
-0.00594843
0.00989606
-0.0771463
0.0108355
-0.0790745
0.0112632
-0.0808509
0.0113211
-0.0823726
0.0111466
-0.0836101
0.0108464
-0.0845717
0.0104895
-0.0852881
0.0101171
-0.0857977
0.00975299
-0.0861389
0.00941079
-0.0863467
0.00909801
-0.0864513
0.00881851
-0.0864772
0.00857398
-0.086444
0.0083649
-0.0863668
0.00819111
-0.0862572
0.0080522
-0.0861239
0.00794769
-0.085974
0.00787663
-0.0858154
-0.0856716
0.00665353
-0.0772249
-0.00472411
0.00805133
-0.0785441
0.00895583
-0.079979
0.00946728
-0.0813624
0.00969103
-0.0825963
0.0097143
-0.0836333
0.00960473
-0.0844621
0.009412
-0.0850953
0.00917299
-0.0855587
0.00891454
-0.0858804
0.00865524
-0.0860874
0.00840734
-0.0862034
0.00817859
-0.0862485
0.00797374
-0.0862392
0.00779561
-0.0861887
0.00764581
-0.0861074
0.00752524
-0.0860033
0.00743435
-0.0858831
0.00737289
-0.085754
-0.0856359
0.00543337
-0.0788708
-0.00378741
0.0067123
-0.079823
0.00762032
-0.080887
0.0082013
-0.0819434
0.00851645
-0.0829115
0.00863148
-0.0837484
0.00860741
-0.0844381
0.00849392
-0.0849819
0.00832724
-0.085392
0.00813301
-0.0856862
0.00792919
-0.0858836
0.00772819
-0.0860024
0.00753844
-0.0860587
0.0073656
-0.0860663
0.0072134
-0.0860365
0.00708429
-0.0859782
0.00697984
-0.0858989
0.00690107
-0.0858043
0.00684814
-0.085701
-0.0856057
0.0044667
-0.0802331
-0.00310444
0.00556639
-0.0809227
0.00638969
-0.0817103
0.00695933
-0.082513
0.00731625
-0.0832684
0.00750518
-0.0839373
0.00756766
-0.0845005
0.00753975
-0.084954
0.0074511
-0.0853033
0.00732493
-0.08556
0.00717895
-0.0857376
0.00702632
-0.0858498
0.00687656
-0.085909
0.00673645
-0.0859262
0.00661072
-0.0859107
0.00650267
-0.0858702
0.00641457
-0.0858108
0.00634795
-0.0857377
0.00630341
-0.0856565
-0.0855808
0.00369424
-0.081387
-0.00254038
0.004657
-0.0818855
0.00540995
-0.0824632
0.00596038
-0.0830635
0.00633119
-0.0836392
0.00655291
-0.084159
0.00665804
-0.0846057
0.00667685
-0.0849728
0.00663522
-0.0852617
0.00655396
-0.0854788
0.00644918
-0.0856329
0.0063332
-0.0857338
0.00621525
-0.085791
0.00610217
-0.0858131
0.00599895
-0.0858075
0.0059092
-0.0857804
0.00583549
-0.0857371
0.00577963
-0.0856818
0.00574247
-0.0856193
-0.0855604
0.00306345
-0.0823457
-0.00210467
0.0038816
-0.0827036
0.00454186
-0.0831235
0.00504473
-0.0835663
0.00540377
-0.0839982
0.00563947
-0.0843947
0.00577458
-0.0847408
0.00583138
-0.0850296
0.00583009
-0.0852604
0.00578816
-0.0854368
0.00571991
-0.0855646
0.00563675
-0.0856507
0.00554757
-0.0857019
0.00545918
-0.0857247
0.00537668
-0.085725
0.00530388
-0.0857076
0.00524355
-0.0856767
0.00519766
-0.0856359
0.00516727
-0.0855889
-0.085544
0.00253164
-0.083149
-0.00172835
0.00322938
-0.0834013
0.00380585
-0.0837
0.00425821
-0.0840187
0.00459351
-0.0843335
0.00482516
-0.0846264
0.00496984
-0.0848855
0.00504499
-0.0851047
0.00506709
-0.0852825
0.00505071
-0.0854204
0.00500821
-0.0855221
0.00494964
-0.0855921
0.00488306
-0.0856353
0.00481476
-0.0856564
0.00474959
-0.0856598
0.00469124
-0.0856493
0.00464246
-0.085628
0.00460524
-0.0855987
0.00458069
-0.0855644
-0.0855311
0.00207949
-0.0838092
-0.00141933
0.00266065
-0.0839825
0.00314991
-0.0841892
0.00354303
-0.0844118
0.00384343
-0.0846339
0.00405983
-0.0848428
0.00420389
-0.0850295
0.00428842
-0.0851892
0.00432607
-0.0853202
0.00432854
-0.0854229
0.00430608
-0.0854996
0.00426736
-0.0855534
0.00421952
-0.0855874
0.00416825
-0.0856052
0.00411802
-0.0856096
0.00407228
-0.0856035
0.00403367
-0.0855894
0.00400407
-0.0855691
0.00398464
-0.0855449
-0.0855212
0.00168149
-0.0843473
-0.00114338
0.00216001
-0.084461
0.00256825
-0.0845975
0.00290192
-0.0847455
0.00316236
-0.0848944
0.00335513
-0.0850355
0.00348848
-0.0851629
0.00357201
-0.0852728
0.00361553
-0.0853637
0.00362838
-0.0854358
0.0036189
-0.0854902
0.00359431
-0.0855288
0.00356064
-0.0855538
0.00352282
-0.0855673
0.00348476
-0.0855716
0.00344955
-0.0855683
0.00341952
-0.0855593
0.00339641
-0.085546
0.00338131
-0.0855298
-0.0855136
0.0013281
-0.0847722
-0.000903245
0.0017089
-0.0848418
0.00203741
-0.084926
0.00230962
-0.0850177
0.00252571
-0.0851105
0.00268915
-0.085199
0.00280562
-0.0852793
0.00288202
-0.0853492
0.00292565
-0.0854073
0.00294364
-0.0854537
0.00294254
-0.0854891
0.00292814
-0.0855144
0.00290538
-0.085531
0.00287834
-0.0855403
0.00285034
-0.0855435
0.00282397
-0.085542
0.00280127
-0.0855366
0.00278372
-0.0855285
0.0027723
-0.0855184
-0.0855081
0.00100424
-0.0850949
-0.000681525
0.00129527
-0.0851328
0.00154814
-0.0851788
0.00175959
-0.0852291
0.00192938
-0.0852803
0.00205965
-0.0853292
0.00215426
-0.0853739
0.00221807
-0.085413
0.00225642
-0.0854457
0.00227458
-0.0854719
0.00227749
-0.085492
0.00226957
-0.0855065
0.00225465
-0.0855161
0.00223591
-0.0855216
0.00221598
-0.0855236
0.00219693
-0.0855229
0.00218038
-0.0855201
0.00216755
-0.0855156
0.00215922
-0.0855101
-0.0855043
0.000703703
-0.0853209
-0.000477722
0.000908565
-0.0853377
0.00108744
-0.0853577
0.00123802
-0.0853797
0.00135993
-0.0854022
0.00145443
-0.0854237
0.00152399
-0.0854435
0.00157181
-0.0854608
0.00160148
-0.0854753
0.00161661
-0.085487
0.00162064
-0.085496
0.00161668
-0.0855025
0.00160744
-0.0855069
0.00159522
-0.0855093
0.00158192
-0.0855103
0.00156904
-0.08551
0.00155778
-0.0855088
0.00154901
-0.0855069
0.00154335
-0.0855044
-0.0855018
0.000417665
-0.0854563
-0.000282249
0.000539761
-0.0854598
0.000646628
-0.0854646
0.000736899
-0.08547
0.000810299
-0.0854756
0.000867489
-0.0854809
0.000909847
-0.0854859
0.000939222
-0.0854902
0.000957697
-0.0854938
0.000967402
-0.0854967
0.000970374
-0.085499
0.000968468
-0.0855006
0.000963313
-0.0855017
0.000956291
-0.0855023
0.000948549
-0.0855026
0.000941013
-0.0855025
0.0009344
-0.0855022
0.000929244
-0.0855017
0.000925912
-0.0855011
-0.0855004
0.000139496
-9.57799e-05
0.000179705
0.000215126
0.000245135
0.000269575
0.000288641
0.000302783
0.000312608
0.000318803
0.000322074
0.000323096
0.000322488
0.000320792
0.000318471
0.000315906
0.000313404
0.000311205
0.00030949
0.000308392
-0.0380508
-0.00650402
0.0445548
-0.0323323
-0.00571848
-0.0272005
-0.00513177
-0.0225305
-0.00467005
-0.018228
-0.00430252
-0.0142154
-0.00401254
-0.010426
-0.0037894
-0.00680118
-0.00362483
-0.00328816
-0.00351302
0.000161979
-0.00345014
0.00359609
-0.00343412
0.00706055
-0.00346446
0.0106029
-0.00354234
0.0142737
-0.00367077
0.0181288
-0.00385511
0.0222328
-0.004104
0.0266643
-0.0044315
0.0315256
-0.00486131
0.0369666
-0.00544107
-0.0062959
-0.0257707
-0.00871542
0.0279821
-0.023214
-0.00827521
-0.0204618
-0.00788398
-0.0175818
-0.00755002
-0.0146136
-0.0072708
-0.0115831
-0.007043
-0.00850896
-0.00686353
-0.00540396
-0.00672983
-0.00227703
-0.00663994
0.000865382
-0.00659256
0.0040183
-0.00658703
0.00717718
-0.00662334
0.010337
-0.00670218
0.0134912
-0.00682498
0.0166303
-0.00699413
0.0197395
-0.00721323
0.0227956
-0.00748761
0.0257595
-0.00782526
0.0285583
-0.00823977
-0.00873921
-0.0174685
-0.010059
0.0188121
-0.0159099
-0.00983383
-0.0141651
-0.00962875
-0.0122703
-0.00944482
-0.010257
-0.00928407
-0.00815192
-0.00914809
-0.00597732
-0.00903813
-0.00375203
-0.00895513
-0.0014922
-0.00889977
0.00078776
-0.00887252
0.00307446
-0.00887373
0.00535476
-0.00890365
0.00761502
-0.00896244
0.00984024
-0.00905021
0.0120131
-0.00916702
0.0141128
-0.00931286
0.0161129
-0.00948773
0.0179795
-0.00969189
0.0196663
-0.0099266
-0.0101986
-0.0112961
-0.0111122
0.0123493
-0.0101609
-0.010969
-0.00895329
-0.0108364
-0.00768025
-0.0107179
-0.00634962
-0.0106147
-0.00496976
-0.010528
-0.00354949
-0.0104584
-0.00209799
-0.0104066
-0.000624735
-0.010373
0.000860646
-0.0103579
0.00234835
-0.0103614
0.00382843
-0.0103837
0.00529075
-0.0104248
0.00672499
-0.0104845
0.00812061
-0.0105626
0.00946683
-0.0106591
0.0107525
-0.0107734
0.011966
-0.0109054
0.0130943
-0.0110549
-0.0112185
-0.00831417
-0.0118949
0.00909682
-0.00747629
-0.0118069
-0.00658493
-0.0117278
-0.00564545
-0.0116573
-0.00466393
-0.0115962
-0.00364693
-0.011545
-0.0026013
-0.011504
-0.00153404
-0.0114739
-0.000452216
-0.0114549
0.000637057
-0.0114472
0.00172661
-0.011451
0.00280921
-0.0114663
0.00387758
-0.0114931
0.00492432
-0.0115312
0.00594194
-0.0115803
0.00692278
-0.0116399
0.00785906
-0.0117097
0.00874273
-0.0117891
0.00956528
-0.0118774
-0.0119757
-0.00601665
-0.0125248
0.00664658
-0.00535752
-0.012466
-0.00467295
-0.0124123
-0.00396552
-0.0123648
-0.00323808
-0.0123237
-0.00249368
-0.0122894
-0.00173558
-0.0122621
-0.000967229
-0.0122422
-0.00019224
-0.0122298
0.000585653
-0.0122251
0.00136263
-0.012228
0.00213485
-0.0122385
0.00289845
-0.0122567
0.00364965
-0.0122824
0.00438476
-0.0123154
0.00510024
-0.0123554
0.00579273
-0.0124022
0.00645908
-0.0124554
0.00709637
-0.0125147
-0.0125788
-0.00462613
-0.0130152
0.00511655
-0.00411651
-0.0129756
-0.00358833
-0.0129405
-0.00304343
-0.0129097
-0.00248386
-0.0128832
-0.00191185
-0.0128614
-0.00132984
-0.0128441
-0.000740347
-0.0128317
-0.000146008
-0.0128242
0.000450487
-0.0128216
0.00104641
-0.0128239
0.00163902
-0.0128311
0.00222558
-0.0128433
0.00280341
-0.0128602
0.00336987
-0.0128818
0.00392241
-0.0129079
0.00445861
-0.0129384
0.00497618
-0.012973
0.00547293
-0.0130115
-0.0130543
-0.00359274
-0.0134171
0.00399464
-0.00317871
-0.0133896
-0.00275427
-0.0133649
-0.00232065
-0.0133433
-0.00187913
-0.0133248
-0.00143103
-0.0133094
-0.000977751
-0.0132974
-0.000520707
-0.0132888
-6.13669e-05
-0.0132835
0.000398775
-0.0132817
0.000858215
-0.0132833
0.00131545
-0.0132884
0.00176898
-0.0132968
0.00221737
-0.0133086
0.00265919
-0.0133236
0.0030931
-0.0133419
0.00351781
-0.0133631
0.0039321
-0.0133873
0.00433486
-0.0134142
-0.0134436
-0.00285451
-0.0137404
0.00317783
-0.00252321
-0.0137209
-0.00218433
-0.0137038
-0.0018387
-0.0136889
-0.00148722
-0.0136762
-0.00113082
-0.0136658
-0.000770503
-0.0136577
-0.000407311
-0.013652
-4.23083e-05
-0.0136485
0.000323418
-0.0136474
0.00068877
-0.0136487
0.00105265
-0.0136523
0.00141397
-0.0136581
0.00177167
-0.0136663
0.0021247
-0.0136767
0.00247208
-0.0136892
0.00281284
-0.0137039
0.0031461
-0.0137205
0.00347103
-0.0137391
-0.01376
-0.00230538
-0.0140088
0.00257372
-0.00203137
-0.0139949
-0.00175253
-0.0139827
-0.00146945
-0.013972
-0.00118277
-0.0139629
-0.000893123
-0.0139555
-0.000601152
-0.0139497
-0.000307521
-0.0139456
-1.29011e-05
-0.0139431
0.000282034
-0.0139424
0.000576607
-0.0139433
0.000870146
-0.0139458
0.00116199
-0.01395
0.00145147
-0.0139558
0.00173797
-0.0139632
0.00202086
-0.0139721
0.00229955
-0.0139826
0.00257346
-0.0139944
0.00284205
-0.0140077
-0.0140223
-0.00187023
-0.0142289
0.00209033
-0.00164632
-0.0142189
-0.00141887
-0.0142101
-0.00118831
-0.0142026
-0.000955053
-0.0141962
-0.000719571
-0.014191
-0.000482331
-0.014187
-0.000243814
-0.0141841
-4.51199e-06
-0.0141824
0.000235078
-0.014182
0.000474457
-0.0141826
0.000713126
-0.0141845
0.000950593
-0.0141875
0.00118637
-0.0141916
0.00141998
-0.0141968
0.00165098
-0.0142031
0.0018789
-0.0142105
0.00210334
-0.0142189
0.0023239
-0.0142283
-0.0142388
-0.00153528
-0.0144122
0.00171857
-0.0013491
-0.014405
-0.00116046
-0.0143988
-0.000969658
-0.0143934
-0.000777033
-0.0143888
-0.000582911
-0.0143851
-0.000387625
-0.0143822
-0.000191511
-0.0143802
5.09102e-06
-0.014379
0.000201842
-0.0143787
0.000398401
-0.0143792
0.000594431
-0.0143805
0.000789598
-0.0143826
0.000983571
-0.0143855
0.00117603
-0.0143893
0.00136665
-0.0143937
0.00155514
-0.014399
0.00174118
-0.0144049
0.0019245
-0.0144116
-0.014419
-0.00125258
-0.014563
0.00140337
-0.0010998
-0.0145578
-0.000945182
-0.0145534
-0.000788964
-0.0145496
-0.00063138
-0.0145464
-0.000472672
-0.0145438
-0.000313084
-0.0145418
-0.000152866
-0.0145404
7.73064e-06
-0.0145396
0.000168452
-0.0145394
0.000329046
-0.0145398
0.00048926
-0.0145407
0.000648844
-0.0145422
0.00080755
-0.0145442
0.000965137
-0.0145468
0.00112137
-0.01455
0.00127602
-0.0145536
0.00142886
-0.0145578
0.00157968
-0.0145624
-0.0145677
-0.00102351
-0.0146871
0.00114765
-0.000897797
-0.0146835
-0.000770747
-0.0146804
-0.000642533
-0.0146778
-0.000513335
-0.0146756
-0.000383336
-0.0146738
-0.000252716
-0.0146725
-0.000121659
-0.0146715
9.65044e-06
-0.014671
0.000141029
-0.0146708
0.000272294
-0.0146711
0.000403264
-0.0146717
0.000533757
-0.0146727
0.000663598
-0.0146741
0.000792611
-0.0146759
0.000920625
-0.014678
0.00104747
-0.0146805
0.00117299
-0.0146833
0.00129701
-0.0146865
-0.01469
-0.000821972
-0.0147874
0.000922296
-0.000720564
-0.0147849
-0.000618184
-0.0147828
-0.000514958
-0.014781
-0.000411018
-0.0147795
-0.000306494
-0.0147783
-0.00020152
-0.0147774
-9.62313e-05
-0.0147768
9.23756e-06
-0.0147764
0.000114751
-0.0147763
0.000220174
-0.0147765
0.000325372
-0.0147769
0.000430213
-0.0147775
0.000534564
-0.0147784
0.000638297
-0.0147796
0.000741284
-0.014781
0.000843402
-0.0147826
0.000944531
-0.0147844
0.00104455
-0.0147865
-0.0147888
-0.000648415
-0.014867
0.000727984
-0.000568047
-0.0148653
-0.000486996
-0.0148639
-0.000405354
-0.0148627
-0.000323215
-0.0148617
-0.000240674
-0.0148609
-0.000157828
-0.0148603
-7.47734e-05
-0.0148598
8.39206e-06
-0.0148596
9.15712e-05
-0.0148595
0.000174667
-0.0148596
0.000257584
-0.0148598
0.000340226
-0.0148602
0.000422499
-0.0148607
0.00050431
-0.0148614
0.000585566
-0.0148622
0.000666178
-0.0148632
0.000746057
-0.0148643
0.000825118
-0.0148655
-0.0148669
-0.000487281
-0.014927
0.000547342
-0.000426683
-0.0149259
-0.000365599
-0.0149249
-0.000304094
-0.0149242
-0.000242236
-0.0149235
-0.000180092
-0.014923
-0.000117733
-0.0149226
-5.52274e-05
-0.0149223
7.35523e-06
-0.0149222
6.99459e-05
-0.0149221
0.000132476
-0.0149221
0.000194878
-0.0149222
0.000257084
-0.0149224
0.000319026
-0.0149227
0.00038064
-0.014923
0.000441859
-0.0149234
0.000502619
-0.0149239
0.000562856
-0.0149245
0.000622508
-0.0149252
-0.0149259
-0.000337862
-0.0149686
0.000379379
-0.00029586
-0.0149679
-0.000253445
-0.0149674
-0.000210677
-0.0149669
-0.000167616
-0.0149666
-0.000124321
-0.0149663
-8.08474e-05
-0.0149661
-3.72491e-05
-0.0149659
6.42182e-06
-0.0149658
5.01149e-05
-0.0149658
9.37806e-05
-0.0149658
0.000137371
-0.0149658
0.000180838
-0.0149659
0.000224135
-0.014966
0.000267215
-0.0149661
0.000310033
-0.0149663
0.000352542
-0.0149665
0.000394696
-0.0149667
0.000436447
-0.0149669
-0.0149672
-0.000195203
-0.0149923
0.000218962
-0.00017108
-0.014992
-0.000146588
-0.0149919
-0.000121793
-0.0149917
-9.67499e-05
-0.0149916
-7.1509e-05
-0.0149916
-4.61148e-05
-0.0149915
-2.06083e-05
-0.0149915
4.97305e-06
-0.0149914
3.05939e-05
-0.0149914
5.62209e-05
-0.0149914
8.18222e-05
-0.0149914
0.000107367
-0.0149914
0.000132826
-0.0149914
0.00015817
-0.0149914
0.00018337
-0.0149915
0.0002084
-0.0149915
0.000233232
-0.0149915
0.000257834
-0.0149915
-0.0149916
-6.4994e-05
7.26702e-05
-5.70126e-05
-4.88651e-05
-4.05918e-05
-3.22219e-05
-2.37771e-05
-1.52747e-05
-6.72904e-06
1.84764e-06
1.04444e-05
1.90515e-05
2.76598e-05
3.62615e-05
4.48492e-05
5.34171e-05
6.19602e-05
7.04749e-05
7.89597e-05
8.74158e-05
-0.0902215
-0.0183034
0.0159698
0.0925551
-0.0879559
-0.0181991
0.0159335
-0.085766
-0.018086
0.0158961
-0.0836506
-0.0179637
0.0158482
-0.0816051
-0.01783
0.0157845
-0.0796204
-0.0176824
0.0156977
-0.077683
-0.0175172
0.0155798
-0.0757741
-0.0173294
0.0154206
-0.0738701
-0.0171124
0.0152084
-0.0719434
-0.0168576
0.0149308
-0.0699633
-0.0165543
0.0145741
-0.0678973
-0.0161899
0.0141239
-0.0657126
-0.0157497
0.013565
-0.0633778
-0.0152166
0.0128819
-0.0608639
-0.0145726
0.0120587
-0.0581442
-0.0137997
0.0110801
-0.0551906
-0.0128844
0.00993075
-0.051965
-0.0118171
0.00859145
-0.0484259
-0.0105788
0.00703967
-0.00912177
0.00525072
-0.075137
-0.0210516
0.0778853
-0.0724221
-0.0209139
-0.0697512
-0.0207569
-0.067134
-0.0205809
-0.0645799
-0.0203841
-0.0620976
-0.0201648
-0.0596938
-0.019921
-0.0573729
-0.0196504
-0.0551349
-0.0193504
-0.0529748
-0.0190177
-0.0508802
-0.0186489
-0.0488308
-0.0182394
-0.0467962
-0.0177842
-0.0447351
-0.0172777
-0.0425936
-0.0167141
-0.040305
-0.0160883
-0.0377934
-0.0153959
-0.0349786
-0.0146319
-0.0317659
-0.0137914
-0.0129056
-0.0763229
-0.0239973
0.0792685
-0.0733708
-0.023866
-0.0704112
-0.0237164
-0.0674464
-0.0235457
-0.0644788
-0.0233517
-0.0615114
-0.0231321
-0.0585478
-0.0228846
-0.0555915
-0.0226066
-0.0526461
-0.0222958
-0.0497142
-0.0219496
-0.0467969
-0.0215662
-0.0438923
-0.0211439
-0.0409947
-0.0206818
-0.0380923
-0.0201802
-0.0351655
-0.0196409
-0.0321866
-0.0190673
-0.0291177
-0.0184648
-0.0259082
-0.0178414
-0.0224901
-0.0172095
-0.0165836
-0.0714944
-0.0268615
0.0743586
-0.0686327
-0.0267277
-0.06577
-0.0265792
-0.0629038
-0.0264119
-0.0600315
-0.0262241
-0.0571496
-0.026014
-0.0542544
-0.0257798
-0.0513414
-0.0255196
-0.0484056
-0.0252316
-0.0454411
-0.0249141
-0.0424414
-0.0245659
-0.0393991
-0.0241862
-0.036306
-0.023775
-0.0331528
-0.0233335
-0.0299293
-0.0228643
-0.0266247
-0.0223718
-0.0232271
-0.0218625
-0.0197235
-0.021345
-0.0161029
-0.0208301
-0.0203373
-0.0700459
-0.0298838
0.0730682
-0.067019
-0.0297547
-0.063988
-0.0296101
-0.0609533
-0.0294465
-0.0579149
-0.0292625
-0.0548722
-0.0290567
-0.0518241
-0.028828
-0.0487685
-0.0285752
-0.0457025
-0.0282976
-0.0426218
-0.0279948
-0.0395208
-0.0276669
-0.0363922
-0.0273148
-0.033227
-0.0269401
-0.0300149
-0.0265456
-0.0267441
-0.0261351
-0.0234021
-0.0257139
-0.0199761
-0.0252885
-0.0164543
-0.0248668
-0.0128269
-0.0244575
-0.0240673
-0.0685055
-0.0328851
0.0715068
-0.0654945
-0.0327656
-0.0624701
-0.0326346
-0.0594305
-0.0324861
-0.0563742
-0.0323188
-0.0532995
-0.0321314
-0.0502047
-0.0319228
-0.0470877
-0.0316922
-0.043946
-0.0314392
-0.0407769
-0.0311639
-0.0375771
-0.0308668
-0.0343426
-0.0305493
-0.0310691
-0.0302136
-0.0277518
-0.0298628
-0.0243856
-0.0295013
-0.0209651
-0.0291343
-0.0174854
-0.0287682
-0.0139418
-0.0284104
-0.0103309
-0.0280683
-0.0277517
-0.0670627
-0.0359076
0.0700852
-0.0640288
-0.0357996
-0.0609836
-0.0356798
-0.0579259
-0.0355438
-0.0548543
-0.0353904
-0.051767
-0.0352187
-0.0486619
-0.0350279
-0.0455365
-0.0348176
-0.0423879
-0.0345878
-0.0392129
-0.0343389
-0.0360077
-0.034072
-0.0327683
-0.0337887
-0.0294904
-0.0334914
-0.0261695
-0.0331838
-0.0228009
-0.0328699
-0.0193803
-0.032555
-0.0159035
-0.0322449
-0.0123678
-0.0319462
-0.00877115
-0.0316649
-0.0314063
-0.0661735
-0.0389367
0.0692025
-0.0631302
-0.0388428
-0.0600714
-0.0387386
-0.0569957
-0.0386195
-0.0539019
-0.0384842
-0.0507885
-0.0383321
-0.0476539
-0.0381625
-0.0444963
-0.0379752
-0.0413137
-0.0377704
-0.038104
-0.0375486
-0.0348649
-0.0373111
-0.0315939
-0.0370597
-0.0282882
-0.0367971
-0.0249453
-0.0365267
-0.0215626
-0.0362525
-0.018138
-0.0359796
-0.0146696
-0.0357133
-0.0111565
-0.0354593
-0.00759837
-0.0352231
-0.03501
-0.0650949
-0.0419528
0.0681111
-0.0620637
-0.041874
-0.0590177
-0.0417846
-0.0559551
-0.0416821
-0.0528743
-0.041565
-0.0497736
-0.0414328
-0.046651
-0.041285
-0.0435048
-0.0411215
-0.0403328
-0.0409424
-0.0371328
-0.0407486
-0.0339027
-0.0405412
-0.0306403
-0.0403221
-0.0273434
-0.040094
-0.0240101
-0.03986
-0.0206386
-0.0396241
-0.0172273
-0.0393909
-0.0137754
-0.0391652
-0.0102824
-0.0389523
-0.00674903
-0.0387565
-0.0385812
-0.0643405
-0.0449692
0.0673569
-0.0613073
-0.0449073
-0.0582583
-0.0448336
-0.0551922
-0.0447481
-0.0521077
-0.0446495
-0.0490031
-0.0445374
-0.0458768
-0.0444113
-0.0427271
-0.0442712
-0.0395523
-0.0441173
-0.0363505
-0.0439504
-0.0331201
-0.0437716
-0.0298594
-0.0435828
-0.026567
-0.0433864
-0.0232415
-0.0431855
-0.019882
-0.0429836
-0.0164878
-0.042785
-0.0130591
-0.042594
-0.00959637
-0.042415
-0.00610073
-0.0422521
-0.0421082
-0.0634914
-0.047972
0.0664942
-0.0604723
-0.0479263
-0.0574385
-0.0478674
-0.0543883
-0.0477984
-0.0513197
-0.0477181
-0.0482311
-0.0476259
-0.0451208
-0.0475216
-0.0419869
-0.047405
-0.0388279
-0.0472764
-0.0356419
-0.0471363
-0.0324276
-0.0469859
-0.0291834
-0.0468269
-0.0259083
-0.0466616
-0.0226012
-0.0464925
-0.0192617
-0.0463232
-0.0158895
-0.0461571
-0.0124851
-0.0459984
-0.00904918
-0.0458509
-0.00558341
-0.0457179
-0.0456013
-0.0627909
-0.0509698
0.0657887
-0.0597756
-0.0509417
-0.0567458
-0.0508972
-0.0537007
-0.0508435
-0.0506384
-0.0507804
-0.0475574
-0.0507069
-0.044456
-0.050623
-0.0413325
-0.0505285
-0.0381853
-0.0504236
-0.0350126
-0.050309
-0.031813
-0.0501855
-0.0285852
-0.0500547
-0.0253282
-0.0499185
-0.0220414
-0.0497793
-0.0187246
-0.04964
-0.0153781
-0.0495037
-0.0120026
-0.0493739
-0.00859963
-0.0492539
-0.00517087
-0.0491467
-0.0490536
-0.0620635
-0.0539598
0.0650535
-0.0590574
-0.0539478
-0.0560383
-0.0539163
-0.0530057
-0.0538761
-0.0499574
-0.0538287
-0.0468918
-0.0537725
-0.0438071
-0.0537078
-0.0407012
-0.0536344
-0.0375724
-0.0535524
-0.0344192
-0.0534622
-0.0312401
-0.0533647
-0.028034
-0.0532609
-0.0248
-0.0531525
-0.0215378
-0.0530415
-0.0182472
-0.0529305
-0.0149288
-0.0528221
-0.0115835
-0.0527192
-0.00821279
-0.0526247
-0.00481856
-0.0525409
-0.0524688
-0.0614028
-0.0569454
0.0643884
-0.0584006
-0.05695
-0.0553867
-0.0569302
-0.0523613
-0.0569014
-0.049322
-0.0568681
-0.0462668
-0.0568276
-0.043194
-0.0567806
-0.0401019
-0.0567265
-0.036989
-0.0566653
-0.0338537
-0.0565975
-0.0306949
-0.0565235
-0.0275113
-0.0564445
-0.0243022
-0.0563616
-0.021067
-0.0562767
-0.0178059
-0.0561916
-0.0145194
-0.0561086
-0.0112085
-0.0560301
-0.00787488
-0.0559583
-0.00452051
-0.0558953
-0.0558417
-0.0607432
-0.0599285
0.0637263
-0.0577462
-0.0599469
-0.0547379
-0.0599386
-0.0517186
-0.0599208
-0.0486865
-0.0599001
-0.0456409
-0.0598733
-0.0425804
-0.059841
-0.0395038
-0.0598031
-0.0364092
-0.0597599
-0.033295
-0.0597116
-0.0301598
-0.0596588
-0.0270021
-0.0596021
-0.0238212
-0.0595426
-0.0206165
-0.0594814
-0.0173879
-0.0594202
-0.0141359
-0.0593606
-0.0108616
-0.0593044
-0.00756654
-0.0592534
-0.00425271
-0.0592091
-0.0591721
-0.0601177
-0.062909
0.0630982
-0.0571192
-0.0629454
-0.054109
-0.0629488
-0.0510906
-0.0629391
-0.0480644
-0.0629263
-0.0450288
-0.0629089
-0.0419818
-0.062888
-0.0389213
-0.0628637
-0.0358452
-0.062836
-0.0327518
-0.062805
-0.0296396
-0.0627709
-0.0265076
-0.0627342
-0.0233548
-0.0626954
-0.0201808
-0.0626554
-0.0169856
-0.0626154
-0.0137697
-0.0625764
-0.0105342
-0.0625398
-0.00728077
-0.0625068
-0.00401136
-0.0624785
-0.0624554
-0.0595012
-0.0658913
0.0624835
-0.0565028
-0.0659437
-0.053501
-0.0659506
-0.0504941
-0.0659461
-0.0474795
-0.0659409
-0.0444545
-0.0659339
-0.0414177
-0.0659248
-0.038368
-0.0659134
-0.0353044
-0.0658996
-0.032226
-0.0658835
-0.0291318
-0.0658651
-0.026021
-0.0658449
-0.0228931
-0.0658233
-0.0197478
-0.0658007
-0.0165852
-0.065778
-0.0134059
-0.0657558
-0.0102108
-0.0657349
-0.00700148
-0.0657162
-0.00377971
-0.0657003
-0.0656878
-0.0589068
-0.0688585
0.061874
-0.0559286
-0.068922
-0.052939
-0.0689402
-0.0499326
-0.0689525
-0.046913
-0.0689604
-0.0438829
-0.068964
-0.0408434
-0.0689642
-0.037795
-0.0689618
-0.0347373
-0.0689573
-0.0316696
-0.0689511
-0.0285912
-0.0689435
-0.0255015
-0.0689347
-0.0224
-0.0689248
-0.0192864
-0.0689143
-0.0161609
-0.0689035
-0.0130238
-0.0688928
-0.00987597
-0.0688827
-0.00671837
-0.0688738
-0.00355225
-0.0688664
-0.0688607
-0.0582962
-0.0718184
0.0612561
-0.0552792
-0.0719389
-0.052245
-0.0719744
-0.0492089
-0.0719887
-0.0461751
-0.0719942
-0.0431429
-0.0719962
-0.0401107
-0.0719965
-0.0370767
-0.0719958
-0.0340395
-0.0719944
-0.030998
-0.0719926
-0.0279512
-0.0719904
-0.0248981
-0.0719878
-0.021838
-0.0719849
-0.0187705
-0.0719818
-0.0156954
-0.0719786
-0.0126128
-0.0719754
-0.00952314
-0.0719724
-0.00642708
-0.0719698
-0.00332549
-0.071968
-0.0719672
-0.0574247
0.0606063
-0.0543636
-0.051338
-0.0483267
-0.0453209
-0.0423171
-0.0393135
-0.0363093
-0.0333038
-0.0302964
-0.0272868
-0.0242746
-0.0212594
-0.0182412
-0.0152198
-0.0121952
-0.00916764
-0.00613748
-0.00310546
-0.0813877
-0.00950838
0.0908961
-0.0721358
-0.009252
-0.0635009
-0.00863487
-0.0554653
-0.00803556
-0.0480218
-0.00744351
-0.0411577
-0.00686415
-0.0348576
-0.00630009
-0.0291055
-0.00575209
-0.0238867
-0.00521879
-0.0191897
-0.00469699
-0.0150085
-0.00418117
-0.0113406
-0.0036679
-0.0081775
-0.00316314
-0.00552252
-0.00265498
-0.00338455
-0.00213798
-0.00177231
-0.00161224
-0.000685675
-0.00108664
-9.90408e-05
-0.000586634
6.89791e-05
-0.00016802
6.89792e-05
-0.0801825
-0.0196178
0.0902919
-0.0711746
-0.0182599
-0.0628708
-0.0169387
-0.0552212
-0.0156851
-0.0481732
-0.0144915
-0.0416821
-0.0133552
-0.035711
-0.0122712
-0.0302299
-0.0112331
-0.0252152
-0.0102335
-0.020649
-0.00926324
-0.0165187
-0.00831139
-0.0128204
-0.00736621
-0.00956765
-0.00641591
-0.00677347
-0.00544916
-0.00445339
-0.00445806
-0.00262276
-0.00344286
-0.0012909
-0.0024185
-0.000450009
-0.00142753
-5.73678e-05
-0.000560661
1.16114e-05
-0.0520548
-0.0262992
0.0587362
-0.0458816
-0.0244331
-0.0401808
-0.0226395
-0.0349417
-0.0209242
-0.0301441
-0.0192891
-0.0257648
-0.0177346
-0.0217786
-0.0162574
-0.0181611
-0.0148506
-0.0148901
-0.0135045
-0.0119471
-0.0122063
-0.00932054
-0.0109379
-0.00700689
-0.00967986
-0.00500993
-0.00841287
-0.00333787
-0.00712122
-0.00200337
-0.00579255
-0.00101281
-0.00443342
-0.000365241
-0.00306607
-3.59927e-05
-0.00175678
4.16123e-05
-0.000638265
5.32238e-05
-0.0327532
-0.0322111
0.0386651
-0.0273795
-0.0298068
-0.0225827
-0.0274364
-0.0183674
-0.0251394
-0.0147152
-0.0229413
-0.0115899
-0.0208599
-0.00894137
-0.0189059
-0.00672505
-0.017067
-0.00487923
-0.0153503
-0.00335878
-0.0137267
-0.00212375
-0.012173
-0.00114348
-0.0106601
-0.000396318
-0.00916003
0.000130507
-0.00764804
0.000450861
-0.00611291
0.000572783
-0.00455534
0.000522285
-0.00301557
0.000347463
-0.00158195
0.000131
-0.000421803
0.000184224
-0.0207027
-0.0374131
0.0259047
-0.0159114
-0.0345981
-0.0116223
-0.0317255
-0.00789726
-0.0288644
-0.0047633
-0.0260753
-0.00221739
-0.0234058
-0.000242557
-0.0208807
0.00122472
-0.0185342
0.00222912
-0.0163547
0.00284105
-0.0143387
0.00312741
-0.0124593
0.00315062
-0.0106833
0.00296522
-0.00897463
0.00261878
-0.0073016
0.00215194
-0.00564607
0.00161086
-0.00401427
0.00104782
-0.00245252
0.000532274
-0.00106641
0.000156408
-4.59375e-05
0.000340632
-0.0184904
-0.0414528
0.02253
-0.0144812
-0.0386073
-0.0106445
-0.0355621
-0.00710967
-0.0323993
-0.00398571
-0.0291993
-0.00135362
-0.0260379
0.000756487
-0.0229908
0.00232523
-0.020103
0.00337795
-0.0174074
0.00395459
-0.0149153
0.00412316
-0.0126279
0.00395794
-0.0105181
0.00353786
-0.00855456
0.00294234
-0.00670608
0.00224992
-0.00495365
0.00153953
-0.00330388
0.000891143
-0.00180414
0.000383684
-0.000558952
7.5814e-05
0.000261932
0.000416446
-0.0176761
-0.0436445
0.0198678
-0.0152297
-0.0410537
-0.0126306
-0.0381613
-0.00999602
-0.0350338
-0.00744627
-0.031749