x,y,z,U_0,U_1,U_2
0,0,0,0.3,-0.000646958,0
0,0.1,0,0.3,-0.000388175,0
0,0.2,0,0.3,-0.000129392,0
0,0.3,0,0.3,0,0
0,0.4,0,0.3,0,0
0,0.5,0,0.3,-2.97758e-19,0
0,0.6,0,0.3,0,0
0,0.7,0,0.3,0,0
0,0.8,0,0.3,0,0
0,0.9,0,0.3,0,0
0,1,0,0.3,0,0
0,1.1,0,0.3,0,0
0,1.2,0,0.3,0,0
0,1.3,0,0.3,0,0
0,1.4,0,0.3,0,0
0,1.5,0,0.3,0,0
0,1.6,0,0.3,0,0
0,1.7,0,0.3,0,0
0,1.8,0,0.3,0,0
0,1.9,0,0.3,0,0
0,2,0,0.3,0,0
0,2.1,0,0.3,0,0
0,2.2,0,0.3,0,0
0,2.3,0,0.3,0,0
0,2.4,0,0.3,0,0
0,2.5,0,0.3,0,0
0,2.6,0,0.3,0,0
0,2.7,0,0.3,0,0
0,2.8,0,0.3,0,0
0,2.9,0,0.3,0,0
0,3,0,0.3,0,0
0,3.1,0,0.3,0,0
0,3.2,0,0.3,0,0
0,3.3,0,0.3,0,0
0,3.4,0,0.3,0,0
0,3.5,0,0.3,0,0
0,3.6,0,0.3,0,0
0,3.7,0,0.3,0,0
0,3.8,0,0.3,0,0
0,3.9,0,0.3,0,0
0,4,0,0.3,0,0
0,4.1,0,0.3,0,0
0,4.2,0,0.3,0,0
0,4.3,0,0.3,0,0
0,4.4,0,0.3,0,0
0,4.5,0,0.3,0,0
0,4.6,0,0.3,0,0
0,4.7,0,0.3,0,0
0,4.8,0,0.3,0,0
0,4.9,0,0.3,0,0
0,5,0,0.3,-9.93903e-20,0
0,5.1,0,0.3,0,0
0,5.2,0,0.3,0,0
0,5.3,0,0.3,0,0
0,5.4,0,0.3,-6.65048e-20,0
0,5.5,0,0.3,0,0
0,5.6,0,0.3,0,0
0,5.7,0,0.3,0,0
0,5.8,0,0.3,-3.35811e-20,0
0,5.9,0,0.3,0,0
0,6,0,0.3,0,0
0,6.1,0,0.3,0,0
0,6.2,0,0.3,-3.2663e-22,0
0,6.3,0,0.3,0,0
0,6.4,0,0.3,1.62032e-20,0
0,6.5,0,0.3,0,0
0,6.6,0,0.3,0,0
0,6.7,0,0.3,0,0
0,6.8,0,0.3,0,0
0,6.9,0,0.3,0,0
0,7,0,0.3,0,0
0,7.1,0,0.3,0,0
0,7.2,0,0.3,0,0
0,7.3,0,0.3,0,0
0,7.4,0,0.3,0,0
0,7.5,0,0.3,0,0
0,7.6,0,0.3,0,0
0,7.7,0,0.3,0,0
0,7.8,0,0.3,0,0
0,7.9,0,0.3,0,0
0,8,0,0.3,0,0
0,8.1,0,0.3,0,0
0,8.2,0,0.3,0,0
0,8.3,0,0.3,0,0
0,8.4,0,0.3,0,0
0,8.5,0,0.3,0,0
0,8.6,0,0.3,0,0
0,8.7,0,0.3,0,0
0,8.8,0,0.3,0,0
0,8.9,0,0.3,0,0
0,9,0,0.3,0,0
0,9.1,0,0.3,0,0
0,9.2,0,0.3,0,0
0,9.3,0,0.3,0,0
0,9.4,0,0.3,0,0
0,9.5,0,0.3,0,0
0,9.6,0,0.3,0,0
0,9.7,0,0.3,0,0
0,9.8,0,0.3,0,0
0,9.9,0,0.3,0,0
0,10,0,0.3,0,0
0,10.1,0,0.3,0,0
0,10.2,0,0.3,0,0
0,10.3,0,0.3,0,0
0,10.4,0,0.3,0,0
0,10.5,0,0.3,0,0
0,10.6,0,0.3,0,0
0,10.7,0,0.3,0,0
0,10.8,0,0.3,0,0
0,10.9,0,0.3,0,0
0,11,0,0.3,0,0
0,11.1,0,0.3,0,0
0,11.2,0,0.3,0,0
0,11.3,0,0.3,0,0
0,11.4,0,0.3,0,0
0,11.5,0,0.3,0,0
0,11.6,0,0.3,0,0
0,11.7,0,0.3,0,0
0,11.8,0,0.3,0,0
0,11.9,0,0.3,0,0
0,12,0,0.3,0,0
0,12.1,0,0.3,0,0
0,12.2,0,0.3,0,0
0,12.3,0,0.3,0,0
0,12.4,0,0.3,0,0
0,12.5,0,0.3,0.000180889,0
0,12.6,0,0.3,0.000393699,0
0,12.7,0,0.3,0.00060651,0
0.1,0,0,0.299999,-0.00110296,0
0.1,0.1,0,0.299999,-0.000837837,0
0.1,0.2,0,0.299999,-0.000593971,0
0.1,0.3,0,0.299999,-0.000591882,0
0.1,0.4,0,0.299999,-0.000591111,0
0.1,0.5,0,0.299996,-0.000595992,0
0.1,0.6,0,0.299999,-0.000586551,0
0.1,0.7,0,0.299998,-0.000587025,0
0.1,0.8,0,0.299998,-0.000580936,0
0.1,0.9,0,0.299998,-0.000579787,0
0.1,1,0,0.299992,-0.000584692,0
0.1,1.1,0,0.299998,-0.000570911,0
0.1,1.2,0,0.299997,-0.000571438,0
0.1,1.3,0,0.299997,-0.000561622,0
0.1,1.4,0,0.299997,-0.000560004,0
0.1,1.5,0,0.299989,-0.000565709,0
0.1,1.6,0,0.299997,-0.000547156,0
0.1,1.7,0,0.299996,-0.00054776,0
0.1,1.8,0,0.299997,-0.00053452,0
0.1,1.9,0,0.299998,-0.000532444,0
0.1,2,0,0.299985,-0.000538592,0
0.1,2.1,0,0.299999,-0.000515942,0
0.1,2.2,0,0.299997,-0.000516529,0
0.1,2.3,0,0.299999,-0.000500093,0
0.1,2.4,0,0.300001,-0.00049768,0
0.1,2.5,0,0.299981,-0.000502801,0
0.1,2.6,0,0.300004,-0.000477631,0
0.1,2.7,0,0.300002,-0.000478021,0
0.1,2.8,0,0.300006,-0.000458269,0
0.1,2.9,0,0.300009,-0.000455684,0
0.1,3,0,0.299976,-0.000457989,0
0.1,3.1,0,0.300014,-0.000431676,0
0.1,3.2,0,0.30001,-0.000431731,0
0.1,3.3,0,0.300015,-0.000408105,0
0.1,3.4,0,0.30002,-0.000405426,0
0.1,3.5,0,0.29997,-0.000404291,0
0.1,3.6,0,0.300025,-0.000376831,0
0.1,3.7,0,0.30002,-0.000376577,0
0.1,3.8,0,0.300023,-0.000348779,0
0.1,3.9,0,0.300029,-0.000345945,0
0.1,4,0,0.299966,-0.000342311,0
0.1,4.1,0,0.300031,-0.000313013,0
0.1,4.2,0,0.300024,-0.000312557,0
0.1,4.3,0,0.300024,-0.000281441,0
0.1,4.4,0,0.300031,-0.00027844,0
0.1,4.5,0,0.299963,-0.000272828,0
0.1,4.6,0,0.300028,-0.000242732,0
0.1,4.7,0,0.300021,-0.000242019,0
0.1,4.8,0,0.300018,-0.000209224,0
0.1,4.9,0,0.300024,-0.000206292,0
0.1,5,0,0.299961,-0.00019894,0
0.1,5.1,0,0.300021,-0.00017262,0
0.1,5.2,0,0.299961,-0.00016541,0
0.1,5.3,0,0.300018,-0.000141985,0
0.1,5.4,0,0.299961,-0.000133116,0
0.1,5.5,0,0.300015,-0.000111192,0
0.1,5.6,0,0.299961,-0.000100332,0
0.1,5.7,0,0.300013,-8.03596e-05,0
0.1,5.8,0,0.299961,-6.72159e-05,0
0.1,5.9,0,0.300012,-4.9476e-05,0
0.1,6,0,0.299961,-3.39306e-05,0
0.1,6.1,0,0.300012,-1.85423e-05,0
0.1,6.2,0,0.299961,-6.53783e-07,0
0.1,6.3,0,0.300014,1.24183e-05,0
0.1,6.4,0,0.299961,3.24323e-05,0
0.1,6.5,0,0.300016,4.33967e-05,0
0.1,6.6,0,0.299961,6.51685e-05,0
0.1,6.7,0,0.300018,7.44209e-05,0
0.1,6.8,0,0.299961,9.7407e-05,0
0.1,6.9,0,0.300021,0.00010531,0
0.1,7,0,0.299961,0.000132149,0
0.1,7.1,0,0.300025,0.000141601,0
0.1,7.2,0,0.300025,0.000141601,0
0.1,7.3,0,0.299977,0.000175113,0
0.1,7.4,0,0.300028,0.000182719,0
0.1,7.5,0,0.300028,0.000182719,0
0.1,7.6,0,0.299995,0.000218603,0
0.1,7.7,0,0.30003,0.000222788,0
0.1,7.8,0,0.300021,0.000227003,0
0.1,7.9,0,0.30001,0.000259297,0
0.1,8,0,0.300028,0.000261118,0
0.1,8.1,0,0.300006,0.000272678,0
0.1,8.2,0,0.300021,0.000296825,0
0.1,8.3,0,0.300024,0.000297066,0
0.1,8.4,0,0.299991,0.0003156,0
0.1,8.5,0,0.300019,0.000330296,0
0.1,8.6,0,0.300019,0.000330296,0
0.1,8.7,0,0.29998,0.000355529,0
0.1,8.8,0,0.300012,0.000360776,0
0.1,8.9,0,0.300012,0.000360776,0
0.1,9,0,0.299978,0.000389984,0
0.1,9.1,0,0.300007,0.000388688,0
0.1,9.2,0,0.300007,0.000388688,0
0.1,9.3,0,0.299986,0.000416223,0
0.1,9.4,0,0.300003,0.000414272,0
0.1,9.5,0,0.300003,0.000414272,0
0.1,9.6,0,0.299991,0.000439336,0
0.1,9.7,0,0.3,0.000437704,0
0.1,9.8,0,0.299996,0.000442998,0
0.1,9.9,0,0.299995,0.000459856,0
0.1,10,0,0.299999,0.000459058,0
0.1,10.1,0,0.299993,0.000469202,0
0.1,10.2,0,0.299998,0.000478307,0
0.1,10.3,0,0.299998,0.000478307,0
0.1,10.4,0,0.29999,0.000491888,0
0.1,10.5,0,0.299997,0.000495404,0
0.1,10.6,0,0.299997,0.000495404,0
0.1,10.7,0,0.299989,0.000510937,0
0.1,10.8,0,0.299998,0.000510289,0
0.1,10.9,0,0.299998,0.000510289,0
0.1,11,0,0.299992,0.000524013,0
0.1,11.1,0,0.299998,0.000522933,0
0.1,11.2,0,0.299998,0.000522933,0
0.1,11.3,0,0.299995,0.000533824,0
0.1,11.4,0,0.299999,0.00053336,0
0.1,11.5,0,0.299998,0.000533821,0
0.1,11.6,0,0.299997,0.000541798,0
0.1,11.7,0,0.299999,0.000541613,0
0.1,11.8,0,0.299998,0.00054354,0
0.1,11.9,0,0.299999,0.000547819,0
0.1,12,0,0.299999,0.000547751,0
0.1,12.1,0,0.299998,0.000550323,0
0.1,12.2,0,0.3,0.000551809,0
0.1,12.3,0,0.3,0.000551809,0
0.1,12.4,0,0.299999,0.000554439,0
0.1,12.5,0,0.3,0.000599944,0
0.1,12.6,0,0.3,0.000812755,0
0.1,12.7,0,0.299999,0.00102786,0
0.2,0,0,0.299998,-0.00155897,0
0.2,0.1,0,0.299999,-0.00128877,0
0.2,0.2,0,0.299997,-0.0011928,0
0.2,0.3,0,0.299997,-0.00119071,0
0.2,0.4,0,0.299998,-0.0011832,0
0.2,0.5,0,0.299992,-0.00119198,0
0.2,0.6,0,0.299997,-0.00117499,0
0.2,0.7,0,0.299993,-0.00117831,0
0.2,0.8,0,0.299992,-0.00117222,0
0.2,0.9,0,0.299995,-0.00116055,0
0.2,1,0,0.299985,-0.00116938,0
0.2,1.1,0,0.299994,-0.00114458,0
0.2,1.2,0,0.299988,-0.00114762,0
0.2,1.3,0,0.299987,-0.00113781,0
0.2,1.4,0,0.299993,-0.00112115,0
0.2,1.5,0,0.299977,-0.00113142,0
0.2,1.6,0,0.299993,-0.00109802,0
0.2,1.7,0,0.299983,-0.00110096,0
0.2,1.8,0,0.299984,-0.00108772,0
0.2,1.9,0,0.299993,-0.00106612,0
0.2,2,0,0.29997,-0.00107718,0
0.2,2.1,0,0.299995,-0.00103641,0
0.2,2.2,0,0.29998,-0.00103834,0
0.2,2.3,0,0.299982,-0.0010219,0
0.2,2.4,0,0.299999,-0.000996384,0
0.2,2.5,0,0.299961,-0.0010056,0
0.2,2.6,0,0.300004,-0.000960296,0
0.2,2.7,0,0.29998,-0.000959548,0
0.2,2.8,0,0.299984,-0.000939796,0
0.2,2.9,0,0.300011,-0.00091183,0
0.2,3,0,0.299951,-0.000915978,0
0.2,3.1,0,0.300021,-0.000868615,0
0.2,3.2,0,0.299983,-0.000863952,0
0.2,3.3,0,0.299988,-0.000840326,0
0.2,3.4,0,0.30003,-0.000810625,0
0.2,3.5,0,0.299941,-0.000808583,0
0.2,3.6,0,0.30004,-0.000759153,0
0.2,3.7,0,0.299987,-0.000750866,0
0.2,3.8,0,0.299991,-0.000723068,0
0.2,3.9,0,0.300045,-0.000691163,0
0.2,4,0,0.299931,-0.000684622,0
0.2,4.1,0,0.300049,-0.000631885,0
0.2,4.2,0,0.299988,-0.000621011,0
0.2,4.3,0,0.299988,-0.000589895,0
0.2,4.4,0,0.300048,-0.000555757,0
0.2,4.5,0,0.299925,-0.000545656,0
0.2,4.6,0,0.300043,-0.000491483,0
0.2,4.7,0,0.299983,-0.000477624,0
0.2,4.8,0,0.29998,-0.000444828,0
0.2,4.9,0,0.300036,-0.000411114,0
0.2,5,0,0.299923,-0.000397879,0
0.2,5.1,0,0.300042,-0.00034524,0
0.2,5.2,0,0.299922,-0.000330819,0
0.2,5.3,0,0.300036,-0.000283971,0
0.2,5.4,0,0.299922,-0.000266232,0
0.2,5.5,0,0.30003,-0.000222384,0
0.2,5.6,0,0.299922,-0.000200665,0
0.2,5.7,0,0.300027,-0.000160719,0
0.2,5.8,0,0.299922,-0.000134432,0
0.2,5.9,0,0.300025,-9.8952e-05,0
0.2,6,0,0.299922,-6.78612e-05,0
0.2,6.1,0,0.300025,-3.70846e-05,0
0.2,6.2,0,0.299922,-1.30757e-06,0
0.2,6.3,0,0.300028,2.48365e-05,0
0.2,6.4,0,0.299922,6.48645e-05,0
0.2,6.5,0,0.300031,8.67934e-05,0
0.2,6.6,0,0.299922,0.000130337,0
0.2,6.7,0,0.300036,0.000148842,0
0.2,6.8,0,0.299922,0.000194814,0
0.2,6.9,0,0.300043,0.00021062,0
0.2,7,0,0.299922,0.000264298,0
0.2,7.1,0,0.300023,0.000279223,0
0.2,7.2,0,0.300008,0.000303697,0
0.2,7.3,0,0.299939,0.000347865,0
0.2,7.4,0,0.300045,0.000363601,0
0.2,7.5,0,0.299998,0.000394175,0
0.2,7.6,0,0.299957,0.000433441,0
0.2,7.7,0,0.30006,0.000445575,0
0.2,7.8,0,0.299986,0.000481832,0
0.2,7.9,0,0.299974,0.000514126,0
0.2,8,0,0.300057,0.000522236,0
0.2,8.1,0,0.299973,0.000565174,0
0.2,8.2,0,0.299988,0.000589321,0
0.2,8.3,0,0.300047,0.000594937,0
0.2,8.4,0,0.299961,0.000643286,0
0.2,8.5,0,0.299997,0.000658464,0
0.2,8.6,0,0.300025,0.000668477,0
0.2,8.7,0,0.299952,0.000715788,0
0.2,8.8,0,0.300002,0.000721254,0
0.2,8.9,0,0.300006,0.000736212,0
0.2,9,0,0.299953,0.000780078,0
0.2,9.1,0,0.300003,0.000777857,0
0.2,9.2,0,0.299993,0.000798329,0
0.2,9.3,0,0.299964,0.000833348,0
0.2,9.4,0,0.300004,0.000828843,0
0.2,9.5,0,0.299984,0.000854911,0
0.2,9.6,0,0.299972,0.000880688,0
0.2,9.7,0,0.3,0.000875409,0
0.2,9.8,0,0.299979,0.000905847,0
0.2,9.9,0,0.299978,0.000922704,0
0.2,10,0,0.299997,0.000918116,0
0.2,10.1,0,0.299977,0.000950936,0
0.2,10.2,0,0.299983,0.00095995,0
0.2,10.3,0,0.299994,0.000958703,0
0.2,10.4,0,0.299977,0.000990044,0
0.2,10.5,0,0.299987,0.000992836,0
0.2,10.6,0,0.299992,0.000996578,0
0.2,10.7,0,0.299978,0.00102321,0
0.2,10.8,0,0.299991,0.00102157,0
0.2,10.9,0,0.299991,0.00102864,0
0.2,11,0,0.299982,0.00104823,0
0.2,11.1,0,0.299994,0.0010462,0
0.2,11.2,0,0.299992,0.001055,0
0.2,11.3,0,0.299987,0.00106795,0
0.2,11.4,0,0.299997,0.00106674,0
0.2,11.5,0,0.299992,0.00107594,0
0.2,11.6,0,0.299991,0.00108391,0
0.2,11.7,0,0.299997,0.00108323,0
0.2,11.8,0,0.299993,0.00109181,0
0.2,11.9,0,0.299994,0.00109609,0
0.2,12,0,0.299998,0.0010955,0
0.2,12.1,0,0.299995,0.00110296,0
0.2,12.2,0,0.299997,0.00110436,0
0.2,12.3,0,0.299999,0.00110425,0
0.2,12.4,0,0.299997,0.00110969,0
0.2,12.5,0,0.299999,0.0011086,0
0.2,12.6,0,0.3,0.00123278,0
0.2,12.7,0,0.299998,0.00144921,0
0.3,0,0,0.299997,-0.00201498,0
0.3,0.1,0,0.299997,-0.00178952,0
0.3,0.2,0,0.299995,-0.00179162,0
0.3,0.3,0,0.299995,-0.00178953,0
0.3,0.4,0,0.299993,-0.0017815,0
0.3,0.5,0,0.299988,-0.00178797,0
0.3,0.6,0,0.299992,-0.0017724,0
0.3,0.7,0,0.299987,-0.00176959,0
0.3,0.8,0,0.299986,-0.00176351,0
0.3,0.9,0,0.299987,-0.0017487,0
0.3,1,0,0.299978,-0.00175407,0
0.3,1.1,0,0.299985,-0.00173085,0
0.3,1.2,0,0.299978,-0.00172381,0
0.3,1.3,0,0.299978,-0.00171399,0
0.3,1.4,0,0.29998,-0.00169171,0
0.3,1.5,0,0.299966,-0.00169713,0
0.3,1.6,0,0.299979,-0.00166555,0
0.3,1.7,0,0.29997,-0.00165416,0
0.3,1.8,0,0.29997,-0.00164092,0
0.3,1.9,0,0.299975,-0.00161094,0
0.3,2,0,0.299955,-0.00161578,0
0.3,2.1,0,0.299975,-0.00157677,0
0.3,2.2,0,0.299963,-0.00156015,0
0.3,2.3,0,0.299965,-0.00154371,0
0.3,2.4,0,0.299974,-0.00150642,0
0.3,2.5,0,0.299942,-0.0015084,0
0.3,2.6,0,0.299977,-0.00146427,0
0.3,2.7,0,0.299958,-0.00144108,0
0.3,2.8,0,0.299962,-0.00142132,0
0.3,2.9,0,0.299978,-0.00137757,0
0.3,3,0,0.299927,-0.00137397,0
0.3,3.1,0,0.299984,-0.00132677,0
0.3,3.2,0,0.299956,-0.00129617,0
0.3,3.3,0,0.299961,-0.00127255,0
0.3,3.4,0,0.299986,-0.00122295,0
0.3,3.5,0,0.299911,-0.00121287,0
0.3,3.6,0,0.299993,-0.00116268,0
0.3,3.7,0,0.299955,-0.00112515,0
0.3,3.8,0,0.299958,-0.00109736,0
0.3,3.9,0,0.299992,-0.00104198,0
0.3,4,0,0.299897,-0.00102693,0
0.3,4.1,0,0.299994,-0.000972829,0
0.3,4.2,0,0.299952,-0.000929466,0
0.3,4.3,0,0.299952,-0.00089835,0
0.3,4.4,0,0.29999,-0.000837589,0
0.3,4.5,0,0.299888,-0.000818484,0
0.3,4.6,0,0.299986,-0.000762173,0
0.3,4.7,0,0.299945,-0.000713229,0
0.3,4.8,0,0.299942,-0.000680433,0
0.3,4.9,0,0.299979,-0.000618848,0
0.3,5,0,0.299884,-0.000596819,0
0.3,5.1,0,0.299973,-0.000532192,0
0.3,5.2,0,0.299883,-0.000496229,0
0.3,5.3,0,0.299968,-0.000436872,0
0.3,5.4,0,0.299883,-0.000399348,0
0.3,5.5,0,0.299964,-0.000341874,0
0.3,5.6,0,0.299883,-0.000300997,0
0.3,5.7,0,0.299961,-0.0002462,0
0.3,5.8,0,0.299883,-0.000201648,0
0.3,5.9,0,0.29996,-0.000150074,0
0.3,6,0,0.299883,-0.000101792,0
0.3,6.1,0,0.29996,-5.37518e-05,0
0.3,6.2,0,0.299883,-1.96135e-06,0
0.3,6.3,0,0.299962,4.24613e-05,0
0.3,6.4,0,0.299883,9.72968e-05,0
0.3,6.5,0,0.299965,0.000138296,0
0.3,6.6,0,0.299882,0.000195506,0
0.3,6.7,0,0.299969,0.000233563,0
0.3,6.8,0,0.299883,0.000292221,0
0.3,6.9,0,0.299974,0.000330132,0
0.3,7,0,0.299883,0.000396447,0
0.3,7.1,0,0.299979,0.000413831,0
0.3,7.2,0,0.29997,0.000476449,0
0.3,7.3,0,0.299901,0.000520617,0
0.3,7.4,0,0.299986,0.000546496,0
0.3,7.5,0,0.299961,0.000609013,0
0.3,7.6,0,0.29992,0.000648279,0
0.3,7.7,0,0.29999,0.000678538,0
0.3,7.8,0,0.29995,0.000736661,0
0.3,7.9,0,0.299939,0.000768955,0
0.3,8,0,0.299991,0.000803657,0
0.3,8.1,0,0.29994,0.00085767,0
0.3,8.2,0,0.299955,0.000881817,0
0.3,8.3,0,0.29999,0.000920459,0
0.3,8.4,0,0.299931,0.000970973,0
0.3,8.5,0,0.299967,0.00098615,0
0.3,8.6,0,0.299986,0.00102812,0
0.3,8.7,0,0.299925,0.00107605,0
0.3,8.8,0,0.299974,0.00108151,0
0.3,8.9,0,0.299982,0.00112631,0
0.3,9,0,0.299929,0.00117017,0
0.3,9.1,0,0.299974,0.00117244,0
0.3,9.2,0,0.299971,0.00121545,0
0.3,9.3,0,0.299942,0.00125047,0
0.3,9.4,0,0.299973,0.00125666,0
0.3,9.5,0,0.299965,0.00129626,0
0.3,9.6,0,0.299952,0.00132204,0
0.3,9.7,0,0.299972,0.00133216,0
0.3,9.8,0,0.299962,0.0013687,0
0.3,9.9,0,0.299961,0.00138555,0
0.3,10,0,0.299974,0.00139926,0
0.3,10.1,0,0.299962,0.00143267,0
0.3,10.2,0,0.299968,0.00144168,0
0.3,10.3,0,0.299976,0.00145821,0
0.3,10.4,0,0.299964,0.0014882,0
0.3,10.5,0,0.299974,0.00149099,0
0.3,10.6,0,0.299979,0.00150928,0
0.3,10.7,0,0.299967,0.00153547,0
0.3,10.8,0,0.29998,0.00153384,0
0.3,10.9,0,0.299982,0.00155286,0
0.3,11,0,0.299973,0.00157244,0
0.3,11.1,0,0.299983,0.00157307,0
0.3,11.2,0,0.299984,0.00158913,0
0.3,11.3,0,0.299979,0.00160208,0
0.3,11.4,0,0.299987,0.00160501,0
0.3,11.5,0,0.299986,0.00161805,0
0.3,11.6,0,0.299985,0.00162603,0
0.3,11.7,0,0.29999,0.00162996,0
0.3,11.8,0,0.299988,0.00164008,0
0.3,11.9,0,0.299989,0.00164435,0
0.3,12,0,0.299993,0.00164817,0
0.3,12.1,0,0.299992,0.0016556,0
0.3,12.2,0,0.299994,0.001657,0
0.3,12.3,0,0.299997,0.00165977,0
0.3,12.4,0,0.299996,0.00166495,0
0.3,12.5,0,0.299997,0.00166386,0
0.3,12.6,0,0.299999,0.00166488,0
0.3,12.7,0,0.299998,0.00187056,0
0.4,0,0,0.299996,-0.00247099,0
0.4,0.1,0,0.299995,-0.00239469,0
0.4,0.2,0,0.299993,-0.00239298,0
0.4,0.3,0,0.299992,-0.00239031,0
0.4,0.4,0,0.299989,-0.00238521,0
0.4,0.5,0,0.299985,-0.00238397,0
0.4,0.6,0,0.299984,-0.00237313,0
0.4,0.7,0,0.29998,-0.00236466,0
0.4,0.8,0,0.299979,-0.00235675,0
0.4,0.9,0,0.299975,-0.00234489,0
0.4,1,0,0.29997,-0.00233877,0
0.4,1.1,0,0.29997,-0.00232082,0
0.4,1.2,0,0.299967,-0.0023055,0
0.4,1.3,0,0.299965,-0.00229246,0
0.4,1.4,0,0.299962,-0.0022736,0
0.4,1.5,0,0.299955,-0.00226284,0
0.4,1.6,0,0.299957,-0.0022373,0
0.4,1.7,0,0.299953,-0.00221479,0
0.4,1.8,0,0.299952,-0.00219659,0
0.4,1.9,0,0.299949,-0.00217029,0
0.4,2,0,0.29994,-0.00215437,0
0.4,2.1,0,0.299944,-0.00212123,0
0.4,2.2,0,0.29994,-0.00209102,0
0.4,2.3,0,0.29994,-0.00206757,0
0.4,2.4,0,0.299936,-0.00203335,0
0.4,2.5,0,0.299923,-0.0020112,0
0.4,2.6,0,0.299931,-0.00197096,0
0.4,2.7,0,0.299927,-0.00193267,0
0.4,2.8,0,0.299927,-0.00190377,0
0.4,2.9,0,0.299923,-0.0018614,0
0.4,3,0,0.299903,-0.00183196,0
0.4,3.1,0,0.299919,-0.0017853,0
0.4,3.2,0,0.299914,-0.00173892,0
0.4,3.3,0,0.299915,-0.00170431,0
0.4,3.4,0,0.29991,-0.00165404,0
0.4,3.5,0,0.299881,-0.00161717,0
0.4,3.6,0,0.299906,-0.00156443,0
0.4,3.7,0,0.299901,-0.00151043,0
0.4,3.8,0,0.299901,-0.00147019,0
0.4,3.9,0,0.299897,-0.00141263,0
0.4,4,0,0.299862,-0.00136924,0
0.4,4.1,0,0.299893,-0.00131058,0
0.4,4.2,0,0.29989,-0.00124964,0
0.4,4.3,0,0.299888,-0.00120456,0
0.4,4.4,0,0.299886,-0.00114043,0
0.4,4.5,0,0.29985,-0.00109131,0
0.4,4.6,0,0.299882,-0.00102787,0
0.4,4.7,0,0.299881,-0.000960872,0
0.4,4.8,0,0.299878,-0.000913097,0
0.4,4.9,0,0.299878,-0.000847099,0
0.4,5,0,0.299846,-0.000795758,0
0.4,5.1,0,0.299875,-0.000723921,0
0.4,5.2,0,0.299845,-0.000661638,0
0.4,5.3,0,0.299873,-0.000593412,0
0.4,5.4,0,0.299844,-0.000532464,0
0.4,5.5,0,0.299871,-0.00046413,0
0.4,5.6,0,0.299844,-0.000401329,0
0.4,5.7,0,0.29987,-0.000333389,0
0.4,5.8,0,0.299844,-0.000268864,0
0.4,5.9,0,0.299869,-0.000201744,0
0.4,6,0,0.299844,-0.000135722,0
0.4,6.1,0,0.299869,-6.97939e-05,0
0.4,6.2,0,0.299844,-2.61513e-06,0
0.4,6.3,0,0.29987,6.18215e-05,0
0.4,6.4,0,0.299843,0.000129729,0
0.4,6.5,0,0.299871,0.0001925,0
0.4,6.6,0,0.299843,0.000260674,0
0.4,6.7,0,0.299872,0.000321718,0
0.4,6.8,0,0.299844,0.000389628,0
0.4,6.9,0,0.299874,0.000454378,0
0.4,7,0,0.299844,0.000528596,0
0.4,7.1,0,0.299877,0.000577131,0
0.4,7.2,0,0.299878,0.000641241,0
0.4,7.3,0,0.299862,0.000693369,0
0.4,7.4,0,0.299882,0.000751368,0
0.4,7.5,0,0.299883,0.000817819,0
0.4,7.6,0,0.299883,0.000863117,0
0.4,7.7,0,0.299887,0.000925417,0
0.4,7.8,0,0.29989,0.000988561,0
0.4,7.9,0,0.29989,0.00103039,0
0.4,8,0,0.299894,0.00108986,0
0.4,8.1,0,0.299898,0.00114934,0
0.4,8.2,0,0.299898,0.00118801,0
0.4,8.3,0,0.299902,0.00124358,0
0.4,8.4,0,0.2999,0.00129866,0
0.4,8.5,0,0.299905,0.00133434,0
0.4,8.6,0,0.29991,0.00138577,0
0.4,8.7,0,0.299898,0.00143631,0
0.4,8.8,0,0.299913,0.00146878,0
0.4,8.9,0,0.299917,0.00151588,0
0.4,9,0,0.299904,0.00156027,0
0.4,9.1,0,0.299921,0.00159097,0
0.4,9.2,0,0.299925,0.00163365,0
0.4,9.3,0,0.299921,0.0016676,0
0.4,9.4,0,0.299928,0.00170086,0
0.4,9.5,0,0.299932,0.00173912,0
0.4,9.6,0,0.299932,0.00176472,0
0.4,9.7,0,0.299936,0.00179866,0
0.4,9.8,0,0.299939,0.0018326,0
0.4,9.9,0,0.29994,0.00185497,0
0.4,10,0,0.299943,0.00188478,0
0.4,10.1,0,0.299946,0.0019146,0
0.4,10.2,0,0.299947,0.00193387,0
0.4,10.3,0,0.29995,0.0019598,0
0.4,10.4,0,0.299951,0.00198636,0
0.4,10.5,0,0.299954,0.00200202,0
0.4,10.6,0,0.299957,0.0020243,0
0.4,10.7,0,0.299956,0.00204774,0
0.4,10.8,0,0.299961,0.00206003,0
0.4,10.9,0,0.299964,0.00207889,0
0.4,11,0,0.299963,0.00209666,0
0.4,11.1,0,0.299968,0.00210848,0
0.4,11.2,0,0.299971,0.00212413,0
0.4,11.3,0,0.299971,0.00213621,0
0.4,11.4,0,0.299974,0.0021479,0
0.4,11.5,0,0.299977,0.00216051,0
0.4,11.6,0,0.299978,0.00216902,0
0.4,11.7,0,0.29998,0.00217873,0
0.4,11.8,0,0.299983,0.00218845,0
0.4,11.9,0,0.299984,0.00219442,0
0.4,12,0,0.299986,0.00220132,0
0.4,12.1,0,0.299989,0.00220823,0
0.4,12.2,0,0.29999,0.00221172,0
0.4,12.3,0,0.299992,0.00221585,0
0.4,12.4,0,0.299994,0.0022202,0
0.4,12.5,0,0.299995,0.00222105,0
0.4,12.6,0,0.299996,0.00222243,0
0.4,12.7,0,0.299997,0.00229191,0
0.5,0,0,0.299993,-0.00300135,0
0.5,0.1,0,0.299993,-0.00300081,0
0.5,0.2,0,0.299991,-0.0029991,0
0.5,0.3,0,0.299987,-0.00299495,0
0.5,0.4,0,0.299984,-0.00298985,0
0.5,0.5,0,0.299977,-0.00298211,0
0.5,0.6,0,0.299975,-0.00297479,0
0.5,0.7,0,0.299972,-0.00296632,0
0.5,0.8,0,0.299967,-0.00295389,0
0.5,0.9,0,0.299964,-0.00294202,0
0.5,1,0,0.299956,-0.00292508,0
0.5,1.1,0,0.299956,-0.00291175,0
0.5,1.2,0,0.299952,-0.00289644,0
0.5,1.3,0,0.299947,-0.00287535,0
0.5,1.4,0,0.299944,-0.00285649,0
0.5,1.5,0,0.299934,-0.00282951,0
0.5,1.6,0,0.299935,-0.00281009,0
0.5,1.7,0,0.299932,-0.00278758,0
0.5,1.8,0,0.299926,-0.00275701,0
0.5,1.9,0,0.299923,-0.00273071,0
0.5,2,0,0.299911,-0.00269328,0
0.5,2.1,0,0.299913,-0.00266679,0
0.5,2.2,0,0.299909,-0.00263658,0
0.5,2.3,0,0.299902,-0.00259563,0
0.5,2.4,0,0.299898,-0.00256141,0
0.5,2.5,0,0.299887,-0.00251396,0
0.5,2.6,0,0.299886,-0.0024788,0
0.5,2.7,0,0.299882,-0.0024405,0
0.5,2.8,0,0.299873,-0.00238873,0
0.5,2.9,0,0.299868,-0.00234636,0
0.5,3,0,0.29986,-0.00228997,0
0.5,3.1,0,0.299853,-0.00224494,0
0.5,3.2,0,0.299849,-0.00219855,0
0.5,3.3,0,0.299838,-0.00213646,0
0.5,3.4,0,0.299833,-0.00208619,0
0.5,3.5,0,0.299831,-0.00202172,0
0.5,3.6,0,0.299818,-0.00196719,0
0.5,3.7,0,0.299814,-0.00191319,0
0.5,3.8,0,0.299805,-0.00184181,0
0.5,3.9,0,0.299801,-0.00178425,0
0.5,4,0,0.299805,-0.00171184,0
0.5,4.1,0,0.299791,-0.00164925,0
0.5,4.2,0,0.299788,-0.00158831,0
0.5,4.3,0,0.299784,-0.00150826,0
0.5,4.4,0,0.299781,-0.00144413,0
0.5,4.5,0,0.299787,-0.00136425,0
0.5,4.6,0,0.299778,-0.00129432,0
0.5,4.7,0,0.299777,-0.00122731,0
0.5,4.8,0,0.299777,-0.00114005,0
0.5,4.9,0,0.299776,-0.00107405,0
0.5,5,0,0.299777,-0.000994712,0
0.5,5.1,0,0.299776,-0.000914131,0
0.5,5.2,0,0.299774,-0.000826997,0
0.5,5.3,0,0.299777,-0.000750235,0
0.5,5.4,0,0.299773,-0.000665485,0
0.5,5.5,0,0.299778,-0.000586594,0
0.5,5.6,0,0.299771,-0.000501568,0
0.5,5.7,0,0.299779,-0.000420703,0
0.5,5.8,0,0.299771,-0.000336027,0
0.5,5.9,0,0.299779,-0.000253459,0
0.5,6,0,0.29977,-0.000169658,0
0.5,6.1,0,0.299779,-8.57838e-05,0
0.5,6.2,0,0.29977,-3.32597e-06,0
0.5,6.3,0,0.299778,8.13203e-05,0
0.5,6.4,0,0.299771,0.000162085,0
0.5,6.5,0,0.299777,0.000246915,0
0.5,6.6,0,0.299772,0.000325803,0
0.5,6.7,0,0.299776,0.000410159,0
0.5,6.8,0,0.299774,0.000487085,0
0.5,6.9,0,0.299775,0.000575833,0
0.5,7,0,0.299776,0.000660894,0
0.5,7.1,0,0.299774,0.000737977,0
0.5,7.2,0,0.299775,0.000802087,0
0.5,7.3,0,0.299779,0.00088189,0
0.5,7.4,0,0.299777,0.000957211,0
0.5,7.5,0,0.299779,0.00102366,0
0.5,7.6,0,0.299782,0.00110938,0
0.5,7.7,0,0.299784,0.00117342,0
0.5,7.8,0,0.299787,0.00123656,0
0.5,7.9,0,0.299793,0.0013178,0
0.5,8,0,0.299797,0.00137727,0
0.5,8.1,0,0.299801,0.00143675,0
0.5,8.2,0,0.29981,0.0015124,0
0.5,8.3,0,0.299814,0.00156797,0
0.5,8.4,0,0.29982,0.00162375,0
0.5,8.5,0,0.299829,0.00169333,0
0.5,8.6,0,0.299833,0.00174476,0
0.5,8.7,0,0.299841,0.00179606,0
0.5,8.8,0,0.299848,0.00185975,0
0.5,8.9,0,0.299853,0.00190686,0
0.5,9,0,0.299859,0.00195483,0
0.5,9.1,0,0.299867,0.00201092,0
0.5,9.2,0,0.299872,0.00205359,0
0.5,9.3,0,0.299878,0.00210258,0
0.5,9.4,0,0.299884,0.00214646,0
0.5,9.5,0,0.299888,0.00218471,0
0.5,9.6,0,0.299895,0.00223255,0
0.5,9.7,0,0.299899,0.00226649,0
0.5,9.8,0,0.299902,0.00230044,0
0.5,9.9,0,0.299909,0.00234176,0
0.5,10,0,0.299912,0.00237158,0
0.5,10.1,0,0.299915,0.0024014,0
0.5,10.2,0,0.299921,0.00243664,0
0.5,10.3,0,0.299924,0.00246257,0
0.5,10.4,0,0.299925,0.00248769,0
0.5,10.5,0,0.299932,0.00251816,0
0.5,10.6,0,0.299935,0.00254044,0
0.5,10.7,0,0.299934,0.0025615,0
0.5,10.8,0,0.299943,0.00258727,0
0.5,10.9,0,0.299946,0.00260614,0
0.5,11,0,0.299946,0.00262562,0
0.5,11.1,0,0.299952,0.00264487,0
0.5,11.2,0,0.299955,0.00266053,0
0.5,11.3,0,0.299959,0.00267831,0
0.5,11.4,0,0.299962,0.00269172,0
0.5,11.5,0,0.299965,0.00270433,0
0.5,11.6,0,0.299968,0.00271869,0
0.5,11.7,0,0.299971,0.0027284,0
0.5,11.8,0,0.299973,0.00273812,0
0.5,11.9,0,0.299977,0.00274846,0
0.5,12,0,0.299979,0.00275536,0
0.5,12.1,0,0.299982,0.0027623,0
0.5,12.2,0,0.299986,0.00276867,0
0.5,12.3,0,0.299988,0.0027728,0
0.5,12.4,0,0.29999,0.0027773,0
0.5,12.5,0,0.299994,0.00277947,0
0.5,12.6,0,0.299995,0.00278085,0
0.5,12.7,0,0.299995,0.00278266,0
0.6,0,0,0.29999,-0.00360607,0
0.6,0.1,0,0.299992,-0.00360788,0
0.6,0.2,0,0.299988,-0.00360407,0
0.6,0.3,0,0.299982,-0.00359931,0
0.6,0.4,0,0.299979,-0.00359542,0
0.6,0.5,0,0.299967,-0.0035824,0
0.6,0.6,0,0.299967,-0.0035774,0
0.6,0.7,0,0.299959,-0.00356442,0
0.6,0.8,0,0.299953,-0.00355018,0
0.6,0.9,0,0.299953,-0.0035401,0
0.6,1,0,0.299935,-0.00351303,0
0.6,1.1,0,0.299941,-0.00350365,0
0.6,1.2,0,0.299931,-0.00348047,0
0.6,1.3,0,0.299924,-0.00345618,0
0.6,1.4,0,0.299926,-0.00344038,0
0.6,1.5,0,0.299902,-0.00339714,0
0.6,1.6,0,0.299913,-0.00338391,0
0.6,1.7,0,0.299901,-0.00334977,0
0.6,1.8,0,0.299894,-0.00331427,0
0.6,1.9,0,0.299897,-0.0032922,0
0.6,2,0,0.299869,-0.00323251,0
0.6,2.1,0,0.299881,-0.00321345,0
0.6,2.2,0,0.299868,-0.00316844,0
0.6,2.3,0,0.299858,-0.0031205,0
0.6,2.4,0,0.29986,-0.0030906,0
0.6,2.5,0,0.299834,-0.00301669,0
0.6,2.6,0,0.299841,-0.00298777,0
0.6,2.7,0,0.299829,-0.00293294,0
0.6,2.8,0,0.299816,-0.00287202,0
0.6,2.9,0,0.299813,-0.00283245,0
0.6,3,0,0.299797,-0.002748,0
0.6,3.1,0,0.299788,-0.00270567,0
0.6,3.2,0,0.299782,-0.00264236,0
0.6,3.3,0,0.299767,-0.00256926,0
0.6,3.4,0,0.299756,-0.0025194,0
0.6,3.5,0,0.29976,-0.00242655,0
0.6,3.6,0,0.299731,-0.00237097,0
0.6,3.7,0,0.299734,-0.00229966,0
0.6,3.8,0,0.299722,-0.0022158,0
0.6,3.9,0,0.299705,-0.00215683,0
0.6,4,0,0.299726,-0.00205472,0
0.6,4.1,0,0.299688,-0.00198883,0
0.6,4.2,0,0.299696,-0.00190945,0
0.6,4.3,0,0.299691,-0.00181539,0
0.6,4.4,0,0.299677,-0.00174868,0
0.6,4.5,0,0.299698,-0.00163729,0
0.6,4.6,0,0.299674,-0.0015615,0
0.6,4.7,0,0.299678,-0.00147562,0
0.6,4.8,0,0.29968,-0.00137174,0
0.6,4.9,0,0.299675,-0.0012997,0
0.6,5,0,0.299679,-0.00119368,0
0.6,5.1,0,0.299678,-0.00110282,0
0.6,5.2,0,0.299673,-0.000992305,0
0.6,5.3,0,0.299682,-0.000907341,0
0.6,5.4,0,0.299668,-0.000798411,0
0.6,5.5,0,0.299685,-0.000709266,0
0.6,5.6,0,0.299665,-0.000601713,0
0.6,5.7,0,0.299687,-0.000508142,0
0.6,5.8,0,0.299663,-0.000403137,0
0.6,5.9,0,0.299688,-0.000305217,0
0.6,6,0,0.299662,-0.0002036,0
0.6,6.1,0,0.299688,-0.000101722,0
0.6,6.2,0,0.299663,-4.09385e-06,0
0.6,6.3,0,0.299686,0.000100958,0
0.6,6.4,0,0.299665,0.000194365,0
0.6,6.5,0,0.299683,0.000301541,0
0.6,6.6,0,0.299668,0.000390893,0
0.6,6.7,0,0.299679,0.000498887,0
0.6,6.8,0,0.299672,0.000584591,0
0.6,6.9,0,0.299676,0.000694499,0
0.6,7,0,0.299678,0.000793341,0
0.6,7.1,0,0.299672,0.000896369,0
0.6,7.2,0,0.299674,0.000962803,0
0.6,7.3,0,0.299685,0.001055,0
0.6,7.4,0,0.299673,0.00116403,0
0.6,7.5,0,0.299681,0.00123377,0
0.6,7.6,0,0.299694,0.00132454,0
0.6,7.7,0,0.299681,0.00142254,0
0.6,7.8,0,0.299697,0.00148949,0
0.6,7.9,0,0.299708,0.00157999,0
0.6,8,0,0.299699,0.00166588,0
0.6,8.1,0,0.29972,0.00172894,0
0.6,8.2,0,0.299727,0.00181987,0
0.6,8.3,0,0.299726,0.00189363,0
0.6,8.4,0,0.299747,0.00195144,0
0.6,8.5,0,0.299753,0.00204336,0
0.6,8.6,0,0.299757,0.0021051,0
0.6,8.7,0,0.299772,0.00215599,0
0.6,8.8,0,0.299784,0.00224955,0
0.6,8.9,0,0.299788,0.00229922,0
0.6,9,0,0.299795,0.00234433,0
0.6,9.1,0,0.299814,0.00243227,0
0.6,9.2,0,0.299817,0.00247379,0
0.6,9.3,0,0.29982,0.00251907,0
0.6,9.4,0,0.29984,0.00259344,0
0.6,9.5,0,0.29984,0.00262884,0
0.6,9.6,0,0.299843,0.00267498,0
0.6,9.7,0,0.299862,0.00273567,0
0.6,9.8,0,0.299858,0.00276517,0
0.6,9.9,0,0.299866,0.00281196,0
0.6,10,0,0.299881,0.00285965,0
0.6,10.1,0,0.299874,0.00288415,0
0.6,10.2,0,0.299888,0.00293042,0
0.6,10.3,0,0.299898,0.00296654,0
0.6,10.4,0,0.299889,0.00298727,0
0.6,10.5,0,0.299907,0.00303123,0
0.6,10.6,0,0.299913,0.00305769,0
0.6,10.7,0,0.299903,0.00307585,0
0.6,10.8,0,0.299924,0.00311556,0
0.6,10.9,0,0.299927,0.00313431,0
0.6,11,0,0.29992,0.00315248,0
0.6,11.1,0,0.299937,0.00318226,0
0.6,11.2,0,0.299938,0.00319785,0
0.6,11.3,0,0.299937,0.00321552,0
0.6,11.4,0,0.29995,0.00323647,0
0.6,11.5,0,0.29995,0.0032495,0
0.6,11.6,0,0.299953,0.00326486,0
0.6,11.7,0,0.299961,0.00327897,0
0.6,11.8,0,0.299961,0.00328971,0
0.6,11.9,0,0.299967,0.00330145,0
0.6,12,0,0.299972,0.00331028,0
0.6,12.1,0,0.299974,0.0033187,0
0.6,12.2,0,0.29998,0.00332593,0
0.6,12.3,0,0.299984,0.00333062,0
0.6,12.4,0,0.299986,0.00333648,0
0.6,12.5,0,0.299992,0.00333875,0
0.6,12.6,0,0.299994,0.00334015,0
0.6,12.7,0,0.299992,0.00334281,0
0.7,0,0,0.299986,-0.00421079,0
0.7,0.1,0,0.299989,-0.00421331,0
0.7,0.2,0,0.299982,-0.00420763,0
0.7,0.3,0,0.299976,-0.00420288,0
0.7,0.4,0,0.29997,-0.00419729,0
0.7,0.5,0,0.299956,-0.00418269,0
0.7,0.6,0,0.299957,-0.00417839,0
0.7,0.7,0,0.299944,-0.00415952,0
0.7,0.8,0,0.299938,-0.00414528,0
0.7,0.9,0,0.299935,-0.00413109,0
0.7,1,0,0.299914,-0.00410097,0
0.7,1.1,0,0.299922,-0.00409278,0
0.7,1.2,0,0.299905,-0.00405927,0
0.7,1.3,0,0.299898,-0.00403497,0
0.7,1.4,0,0.299898,-0.00401289,0
0.7,1.5,0,0.299871,-0.00396477,0
0.7,1.6,0,0.299885,-0.0039534,0
0.7,1.7,0,0.299864,-0.00390421,0
0.7,1.8,0,0.299857,-0.00386871,0
0.7,1.9,0,0.299859,-0.00383811,0
0.7,2,0,0.299827,-0.00377174,0
0.7,2.1,0,0.299842,-0.00375491,0
0.7,2.2,0,0.29982,-0.00369043,0
0.7,2.3,0,0.299811,-0.00364249,0
0.7,2.4,0,0.299812,-0.00360126,0
0.7,2.5,0,0.299781,-0.00351941,0
0.7,2.6,0,0.29979,-0.00349236,0
0.7,2.7,0,0.299771,-0.00341436,0
0.7,2.8,0,0.299758,-0.00335343,0
0.7,2.9,0,0.299753,-0.0032989,0
0.7,3,0,0.299735,-0.00320603,0
0.7,3.1,0,0.299725,-0.00316452,0
0.7,3.2,0,0.299716,-0.00307488,0
0.7,3.3,0,0.2997,-0.00300178,0
0.7,3.4,0,0.299684,-0.00293273,0
0.7,3.5,0,0.299689,-0.00283137,0
0.7,3.6,0,0.299655,-0.00277548,0
0.7,3.7,0,0.299659,-0.00267458,0
0.7,3.8,0,0.299647,-0.00259072,0
0.7,3.9,0,0.299621,-0.00250863,0
0.7,4,0,0.299646,-0.00239761,0
0.7,4.1,0,0.299602,-0.00233072,0
0.7,4.2,0,0.299612,-0.00221829,0
0.7,4.3,0,0.299607,-0.00212423,0
0.7,4.4,0,0.299583,-0.00203118,0
0.7,4.5,0,0.299609,-0.00191033,0
0.7,4.6,0,0.29958,-0.00183279,0
0.7,4.7,0,0.299584,-0.00171134,0
0.7,4.8,0,0.299586,-0.00160746,0
0.7,4.9,0,0.299576,-0.00150668,0
0.7,5,0,0.29958,-0.00139265,0
0.7,5.1,0,0.299579,-0.00128824,0
0.7,5.2,0,0.299571,-0.00115761,0
0.7,5.3,0,0.299582,-0.00106045,0
0.7,5.4,0,0.299564,-0.000931337,0
0.7,5.5,0,0.299586,-0.000828869,0
0.7,5.6,0,0.299559,-0.000701858,0
0.7,5.7,0,0.299588,-0.000593675,0
0.7,5.8,0,0.299556,-0.000470247,0
0.7,5.9,0,0.299589,-0.000356358,0
0.7,6,0,0.299555,-0.000237541,0
0.7,6.1,0,0.299589,-0.000118368,0
0.7,6.2,0,0.299556,-4.86173e-06,0
0.7,6.3,0,0.299587,0.000118655,0
0.7,6.4,0,0.299559,0.000226645,0
0.7,6.5,0,0.299583,0.000353197,0
0.7,6.6,0,0.299564,0.000455982,0
0.7,6.7,0,0.29958,0.0005839,0
0.7,6.8,0,0.299571,0.000682098,0
0.7,6.9,0,0.299576,0.00081132,0
0.7,7,0,0.29958,0.000925788,0
0.7,7.1,0,0.299573,0.00103086,0
0.7,7.2,0,0.299581,0.00113591,0
0.7,7.3,0,0.299592,0.00122811,0
0.7,7.4,0,0.299576,0.00134778,0
0.7,7.5,0,0.299593,0.00144893,0
0.7,7.6,0,0.299607,0.0015397,0
0.7,7.7,0,0.299586,0.00165679,0
0.7,7.8,0,0.299615,0.00174464,0
0.7,7.9,0,0.299625,0.00183514,0
0.7,8,0,0.299611,0.00194864,0
0.7,8.1,0,0.299643,0.00202168,0