/*--------------------------------*- C++ -*----------------------------------*\
| =========                 |                                                 |
| \\      /  F ield         | OpenFOAM: The Open Source CFD Toolbox           |
|  \\    /   O peration     | Version:  v1806                                 |
|   \\  /    A nd           | Web:      www.OpenFOAM.com                      |
|    \\/     M anipulation  |                                                 |
\*---------------------------------------------------------------------------*/
FoamFile
{
    version     2.0;
    format      ascii;
    class       surfaceScalarField;
    location    "6";
    object      phi;
}
// * * * * * * * * * * * * * * * * * * * * * * * * * * * * * * * * * * * * * //

dimensions      [0 3 -1 0 0 0 0];
oriented        oriented;


internalField   nonuniform List<scalar> 
4680
(
0.750356
-0.00908551
0.749745
-0.0227138
0.750471
-0.0356643
0.749944
-0.0521406
0.75044
-0.0645587
0.750869
-0.0852834
0.75003
-0.0888543
0.752307
-0.115929
0.749987
-0.113654
0.753032
-0.142014
0.752585
-0.14561
0.753533
-0.161515
0.755629
-0.172901
0.755731
-0.176381
0.758435
-0.198346
0.759989
-0.195951
0.763557
-0.215677
0.765249
-0.206484
0.770583
-0.226162
-0.218245
0.772185
0.750879
-0.00996464
0.749308
-0.0211427
0.751133
-0.037489
0.749976
-0.0509841
0.751114
-0.0656967
0.752079
-0.0862482
0.750305
-0.0870807
0.75524
-0.120864
0.750854
-0.109268
0.75658
-0.14774
0.756203
-0.145234
0.758255
-0.163567
0.76191
-0.176556
0.76271
-0.177181
0.768177
-0.203814
0.769623
-0.197397
0.777733
-0.223786
0.77886
-0.207611
0.78953
-0.236832
-0.219185
0.790469
0.751124
-0.0110883
0.748921
-0.0189396
0.751723
-0.0402916
0.749829
-0.0490903
0.751864
-0.0677315
0.752634
-0.0870177
0.750905
-0.0853518
0.756777
-0.126737
0.752464
-0.104954
0.758869
-0.154145
0.758354
-0.144719
0.762002
-0.167215
0.765585
-0.180139
0.767023
-0.178618
0.774765
-0.211556
0.774507
-0.19714
0.785409
-0.234688
0.785887
-0.208089
0.798833
-0.249779
-0.219634
0.799282
0.751158
-0.0122459
0.748573
-0.0163551
0.75223
-0.0439489
0.74943
-0.0462896
0.752581
-0.0708831
0.752662
-0.0870988
0.751695
-0.0843848
0.757759
-0.1328
0.753887
-0.101083
0.76103
-0.161287
0.760033
-0.143722
0.765533
-0.172715
0.768995
-0.183601
0.77161
-0.181233
0.781455
-0.221401
0.780296
-0.195981
0.794427
-0.248819
0.79451
-0.208172
0.810732
-0.266001
-0.220215
0.811313
0.750524
-0.0127698
0.748676
-0.0145069
0.7521
-0.0473736
0.749476
-0.0436653
0.752866
-0.0742729
0.75228
-0.0865131
0.752937
-0.0850418
0.757293
-0.137156
0.755996
-0.0997854
0.761975
-0.167267
0.761695
-0.143442
0.768412
-0.179432
0.771133
-0.186322
0.776318
-0.186418
0.786795
-0.231877
0.785011
-0.194197
0.802574
-0.266381
0.801872
-0.207471
0.820292
-0.284421
-0.221034
0.821111
0.748971
-0.011741
0.749711
-0.0152466
0.750775
-0.0484374
0.750481
-0.0433715
0.752099
-0.0758911
0.751961
-0.0863748
0.754335
-0.087416
0.755567
-0.138388
0.758581
-0.1028
0.761561
-0.170246
0.763696
-0.145577
0.769998
-0.185734
0.772635
-0.188959
0.780928
-0.194711
0.789892
-0.240842
0.789672
-0.193977
0.809282
-0.285991
0.808336
-0.206526
0.828469
-0.304554
-0.222834
0.830269
0.746874
-0.00861533
0.75132
-0.0196918
0.748057
-0.0451752
0.75251
-0.0478238
0.75014
-0.0735214
0.752183
-0.0884181
0.755278
-0.0905107
0.753541
-0.136651
0.760744
-0.110003
0.760145
-0.169647
0.765822
-0.151254
0.769851
-0.189764
0.773956
-0.193064
0.784683
-0.205438
0.789464
-0.245623
0.795327
-0.19984
0.813026
-0.30369
0.813308
-0.206807
0.834182
-0.325428
-0.22708
0.838428
0.745071
-0.00368616
0.752719
-0.0273403
0.74508
-0.0375357
0.754607
-0.057351
0.747664
-0.0665781
0.752942
-0.0936966
0.754618
-0.0921862
0.752541
-0.134574
0.760715
-0.118177
0.758819
-0.16775
0.766427
-0.158862
0.768384
-0.191722
0.774763
-0.199443
0.786233
-0.216909
0.786075
-0.245464
0.80293
-0.216695
0.811725
-0.312485
0.81879
-0.213872
0.837874
-0.344512
-0.236523
0.847317
0.744131
0.0021825
0.752628
-0.035837
0.743235
-0.0281427
0.754818
-0.0689345
0.745598
-0.0573576
0.75359
-0.101688
0.751893
-0.0904898
0.753333
-0.136014
0.757645
-0.122488
0.759023
-0.169129
0.76357
-0.163408
0.767456
-0.195608
0.773501
-0.205488
0.7849
-0.228307
0.783291
-0.243856
0.81022
-0.243624
0.806339
-0.308604
0.829327
-0.23686
0.840795
-0.35598
-0.255312
0.859584
0.744119
0.00806379
0.750839
-0.0425577
0.742896
-0.0201988
0.752202
-0.0782412
0.744343
-0.0494988
0.753285
-0.11063
0.747846
-0.0850504
0.754563
-0.142731
0.753142
-0.121067
0.759153
-0.175139
0.758497
-0.162753
0.768128
-0.205239
0.768998
-0.206357
0.782453
-0.241762
0.7832
-0.244603
0.811839
-0.272263
0.803065
-0.299829
0.841465
-0.27526
0.842803
-0.357319
-0.288106
0.875597
0.744752
0.0133121
0.74937
-0.0471763
0.743311
-0.0141395
0.749195
-0.0841255
0.743341
-0.043644
0.751965
-0.119254
0.744017
-0.0771022
0.754289
-0.153004
0.748057
-0.114835
0.758166
-0.185249
0.752251
-0.156838
0.768021
-0.221008
0.761469
-0.199805
0.781491
-0.261785
0.781225
-0.244337
0.80656
-0.297599
0.804714
-0.297984
0.844714
-0.31526
0.845097
-0.357702
-0.32781
0.884801
0.745983
0.0173295
0.750897
-0.0520902
0.744358
-0.00760058
0.749609
-0.0893774
0.742915
-0.0369497
0.75108
-0.127419
0.742136
-0.0681588
0.752614
-0.163482
0.743663
-0.105884
0.756443
-0.198029
0.747027
-0.147422
0.76567
-0.239651
0.754421
-0.188555
0.781083
-0.288447
0.7738
-0.237054
0.802282
-0.32608
0.806054
-0.301756
0.838084
-0.347289
0.849665
-0.369284
-0.360432
0.882288
0.748699
0.0186307
0.753496
-0.0568876
0.747379
-0.00148317
0.7518
-0.0937991
0.745429
-0.0305781
0.750631
-0.132622
0.743726
-0.061253
0.751775
-0.171531
0.742276
-0.0963857
0.756658
-0.21241
0.7455
-0.136264
0.764518
-0.258669
0.753962
-0.177999
0.780201
-0.314686
0.769488
-0.226341
0.80501
-0.361602
0.800799
-0.297545
0.837923
-0.384413
0.855066
-0.386426
-0.381197
0.87583
0.75271
0.0159204
0.751548
-0.0557257
0.753138
-0.0030729
0.750239
-0.0909003
0.752287
-0.0326261
0.74835
-0.128685
0.749792
-0.0626941
0.750251
-0.17199
0.747437
-0.0935723
0.758157
-0.223131
0.747537
-0.125644
0.76816
-0.279291
0.757203
-0.167043
0.779761
-0.337244
0.774599
-0.221178
0.806348
-0.393351
0.797174
-0.288372
0.849728
-0.436966
0.847935
-0.384634
-0.41681
0.883548
0.754811
0.0111092
0.74732
-0.0482346
0.757813
-0.0135653
0.745846
-0.0789333
0.757103
-0.0438832
0.744495
-0.116077
0.754396
-0.0725955
0.745256
-0.16285
0.752914
-0.101231
0.75058
-0.220797
0.753257
-0.128321
0.763449
-0.289483
0.755469
-0.159063
0.778385
-0.36016
0.77372
-0.216513
0.798021
-0.417652
0.799169
-0.28952
0.847261
-0.485058
0.83272
-0.370092
-0.490717
0.906627
0.754227
0.00688244
0.744794
-0.0388019
0.756473
-0.0252442
0.743493
-0.0659536
0.755789
-0.0561794
0.741346
-0.101633
0.753415
-0.0846643
0.737403
-0.146838
0.751537
-0.115365
0.734151
-0.203411
0.751065
-0.145235
0.737911
-0.276329
0.752794
-0.173946
0.756381
-0.363748
0.754397
-0.214528
0.784211
-0.447466
0.783593
-0.288903
0.820444
-0.521909
0.827069
-0.376717
-0.571998
0.90835
0.753802
0.00308076
0.745823
-0.0308231
0.75155
-0.0309715
0.744464
-0.0588678
0.747611
-0.0593256
0.740193
-0.0942152
0.742879
-0.0873504
0.731806
-0.135765
0.738463
-0.122022
0.719875
-0.184823
0.737837
-0.163197
0.708382
-0.246874
0.740909
-0.206473
0.71058
-0.333418
0.742379
-0.246328
0.748891
-0.453978
0.744072
-0.284084
0.803354
-0.58119
0.81009
-0.383454
-0.643511
0.881603
0.754395
-0.00131458
0.74812
-0.0245477
0.747437
-0.0302888
0.744494
-0.0559244
0.739623
-0.0544544
0.737483
-0.0920751
0.73077
-0.0806377
0.726481
-0.131476
0.720347
-0.115888
0.711638
-0.176113
0.71106
-0.16262
0.6935
-0.229314
0.710369
-0.223342
0.676906
-0.299955
0.722468
-0.29189
0.684566
-0.416076
0.740509
-0.340027
0.774259
-0.61494
0.774085
-0.383279
-0.775923
0.906497
0.75314
-0.00445431
0.74867
-0.0200784
0.746369
-0.027987
0.740992
-0.0505477
0.738078
-0.0515403
0.72922
-0.0832177
0.727025
-0.0784422
0.7145
-0.118951
0.711055
-0.112443
0.69821
-0.163268
0.689372
-0.153782
0.680826
-0.220768
0.665774
-0.20829
0.659014
-0.293194
0.65674
-0.289616
0.633141
-0.392478
0.701873
-0.408759
0.659733
-0.572801
0.786829
-0.510375
-0.936549
0.947455
0.751176
-0.00563015
0.747748
-0.016651
0.74702
-0.027259
0.738343
-0.0418699
0.738902
-0.0520996
0.722556
-0.0668722
0.725577
-0.0814632
0.702144
-0.0955179
0.705061
-0.11536
0.677063
-0.135271
0.676014
-0.152732
0.648753
-0.193508
0.637717
-0.197254
0.620694
-0.276172
0.593239
-0.262161
0.585744
-0.384982
0.567568
-0.390583
0.525654
-0.530887
0.678094
-0.662814
0.680202
-0.938657
0.780466
-0.287249
0.784225
-0.262996
0.791934
-0.282676
0.797287
-0.262785
0.805834
-0.272959
0.811992
-0.253152
0.819613
-0.236313
0.82424
-0.218964
0.827998
-0.203464
-0.19004
0.832493
0.805499
-0.302278
0.810408
-0.267904
0.822828
-0.295096
0.82898
-0.268937
0.842874
-0.286854
0.851363
-0.261641
0.861213
-0.246163
0.868495
-0.226246
0.873587
-0.208557
-0.195426
0.878973
0.816741
-0.319736
0.821282
-0.272446
0.836431
-0.310246
0.842936
-0.275441
0.858123
-0.302041
0.867747
-0.271264
0.877323
-0.255738
0.885615
-0.234539
0.89272
-0.215661
-0.201809
0.899103
0.833865
-0.342288
0.837709
-0.27629
0.857408
-0.329944
0.866731
-0.284764
0.88508
-0.320391
0.89686
-0.283044
0.908143
-0.267021
0.918541
-0.244937
0.928195
-0.225315
-0.21012
0.936505
0.847915
-0.369093
0.850747
-0.279122
0.874269
-0.353466
0.885167
-0.295662
0.906416
-0.34164
0.920066
-0.296694
0.932282
-0.279237
0.944543
-0.257199
0.957515
-0.238287
-0.220504
0.9679
0.860428
-0.399252
0.86331
-0.282003
0.890951
-0.381107
0.904325
-0.309036
0.928182
-0.365497
0.944728
-0.31324
0.961004
-0.295513
0.976911
-0.273106
0.993958
-0.255334
-0.232455
1.00591
0.868828
-0.429651
0.874609
-0.287784
0.905481
-0.411979
0.920996
-0.32455
0.947231
-0.391732
0.9683
-0.334309
0.991548
-0.318761
1.01432
-0.295883
1.03539
-0.276404
-0.243732
1.04667
0.873849
-0.456183
0.886621
-0.300556
0.919155
-0.444514
0.93744
-0.342836
0.967737
-0.422029
0.995268
-0.361841
1.03026
-0.353748
1.06151
-0.32714
1.08662
-0.301512
-0.250246
1.09313
0.878573
-0.475172
0.90193
-0.323912
0.934515
-0.477099
0.957067
-0.365387
0.995213
-0.460175
1.02882
-0.395451
1.07915
-0.404071
1.11954
-0.367532
1.14914
-0.331116
-0.246938
1.14584
0.883308
-0.482883
0.92129
-0.361894
0.950774
-0.506582
0.978928
-0.393541
1.02767
-0.508915
1.065
-0.432785
1.13625
-0.475324
1.18592
-0.417198
1.22194
-0.367135
-0.228692
1.20369
0.885686
-0.483768
0.94235
-0.418558
0.959872
-0.524104
0.994706
-0.428376
1.04831
-0.562522
1.09438
-0.478847
1.19314
-0.574089
1.25425
-0.478312
1.29962
-0.412498
-0.19151
1.26244
0.89427
-0.49575
0.956013
-0.480301
0.950751
-0.518843
1.00015
-0.477771
1.04864
-0.61102
1.12209
-0.552291
1.24433
-0.696336
1.3154
-0.549375
1.36349
-0.460596
-0.131588
1.30357
0.914854
-0.534774
0.95156
-0.517007
0.932964
-0.500247
0.997997
-0.542804
1.04131
-0.654336
1.15059
-0.66157
1.25776
-0.803506
1.32212
-0.613732
1.35555
-0.494029
-0.0517767
1.27574
0.93136
-0.582586
0.921166
-0.506812
0.922158
-0.501239
0.988183
-0.60883
1.01064
-0.67679
1.08735
-0.738285
1.12693
-0.843079
1.17645
-0.663258
1.17048
-0.48806
0.0257855
1.09292
0.91244
-0.588399
0.898811
-0.493183
0.938603
-0.541031
0.942188
-0.612414
0.865448
-0.600051
0.80649
-0.679327
0.785461
-0.82205
0.823498
-0.701295
0.781443
-0.446005
0.0803455
0.726883
0.88747
-0.567519
0.94191
-0.547624
0.954223
-0.553344
0.797568
-0.455759
0.550541
-0.353024
0.398475
-0.527262
0.360086
-0.78366
0.322495
-0.663704
0.263145
-0.386654
0.0976522
0.245838
0.933678
-0.619594
1.02449
-0.638432
0.87224
-0.401098
0.535535
-0.119054
0.250522
-0.0680113
0.118661
-0.3954
-0.0168195
-0.64818
-0.150381
-0.530142
-0.193105
-0.34393
0.0981626
-0.193616
1.03141
-0.744505
0.966259
-0.573283
0.613728
-0.0485672
0.323203
0.171471
0.130061
0.125131
-0.0697801
-0.195559
-0.271618
-0.446342
-0.389686
-0.412075
-0.453651
-0.279965
0.0419515
-0.39744
0.941509
-0.73856
0.577971
-0.209744
0.240213
0.289191
0.219582
0.192102
0.165027
0.179685
0.02878
-0.0593119
-0.173016
-0.244546
-0.360538
-0.224552
-0.434048
-0.206455
-0.0564522
-0.335644
-0.0583582
-0.268103
0.021088
0.21319
0.392876
0.333564
0.0890178
-0.135535
-0.34199
-0.398442
0.837178
-0.379288
0.856048
-0.302746
0.853395
-0.21725
0.843931
-0.0472464
0.867742
0.0877312
0.867307
-0.131411
0.769128
-0.665369
0.597545
-1.16789
0.415495
-1.41044
0.265343
-1.395
0.160664
-1.23121
0.0954617
-1.01905
0.0571225
-0.814727
0.0349397
-0.639244
0.0220526
-0.494528
0.0144756
-0.375678
0.00995795
-0.276638
0.00727117
-0.191539
0.0057477
-0.115499
-0.0411764
0.876653
-0.376969
0.895769
-0.321862
0.894922
-0.216403
0.882323
-0.0346465
0.880124
0.0899301
0.83606
-0.087348
0.724854
-0.554163
0.576962
-1.02
0.426633
-1.26011
0.296407
-1.26477
0.196958
-1.13176
0.128119
-0.950216
0.0833045
-0.769913
0.0548767
-0.610816
0.0369513
-0.476602
0.0256384
-0.364366
0.0184924
-0.269492
0.0140619
-0.187109
0.011518
-0.112956
-0.0403001
0.890109
-0.367974
0.912734
-0.344486
0.9158
-0.21947
0.889053
-0.00789952
0.861384
0.117599
0.818527
-0.0444908
0.724911
-0.460546
0.579284
-0.874374
0.421445
-1.10227
0.288515
-1.13184
0.192681
-1.03593
0.129043
-0.886578
0.0880244
-0.728894
0.0615328
-0.584325
0.0441718
-0.459241
0.0326654
-0.352859
0.0250439
-0.26187
0.0201618
-0.182227
0.0173876
-0.110181
-0.0393857
0.920608
-0.352078
0.946309
-0.370187
0.947354
-0.220516
0.915647
0.0238076
0.877029
0.156217
0.807648
0.0248909
0.69353
-0.346429
0.560425
-0.741269
0.431346
-0.97319
0.315935
-1.01643
0.221633
-0.941624
0.152124
-0.817068
0.104761
-0.681531
0.0737481
-0.553312
0.0535685
-0.439061
0.0403345
-0.339625
0.0316405
-0.253176
0.0261262
-0.176712
0.0230935
-0.107149
-0.038434
0.940276
-0.324453
0.971162
-0.401073
0.980087
-0.229441
0.9357
0.0681952
0.869856
0.22206
0.792205
0.102543
0.68984
-0.244064
0.557101
-0.60853
0.418925
-0.835014
0.30269
-0.900197
0.216675
-0.855609
0.155562
-0.755955
0.112407
-0.638377
0.0822759
-0.523181
0.0615339
-0.418319
0.0474084
-0.3255
0.0379302
-0.243698
0.0318699
-0.170652
0.0285745
-0.103853
-0.0374236
0.966972
-0.285515
1.00516
-0.439265
1.01324
-0.237517
0.958461
0.122973
0.88117
0.299351
0.785665
0.198048
0.669769
-0.128168
0.548704
-0.487465
0.432821
-0.719132
0.326217
-0.793592
0.23676
-0.766153
0.169777
-0.688971
0.123075
-0.591675
0.0911117
-0.491217
0.069182
-0.39639
0.0541316
-0.310449
0.043937
-0.233504
0.0373772
-0.164092
0.0338148
-0.100291
-0.036335
0.991642
-0.230487
1.03363
-0.481252
1.04859
-0.252474
0.983997
0.187563
0.887256
0.396092
0.782062
0.303242
0.665018
-0.0111232
0.536274
-0.358722
0.412697
-0.595554
0.311279
-0.692173
0.233654
-0.688529
0.174539
-0.629856
0.130506
-0.547641
0.0987052
-0.459417
0.0761876
-0.373872
0.0604377
-0.294699
0.0496376
-0.222703
0.0426314
-0.157086
0.0388054
-0.0964649
-0.0351534
1.02131
-0.158662
1.06458
-0.524522
1.08368
-0.271579
1.01142
0.259825
0.891176
0.516338
0.767108
0.427309
0.649066
0.106919
0.536599
-0.246254
0.428018
-0.486974
0.327751
-0.591906
0.244973
-0.60575
0.182816
-0.5677
0.137905
-0.502731
0.105681
-0.427192
0.0826475
-0.350839
0.0663311
-0.278383
0.0550207
-0.211393
0.0476201
-0.149686
0.0435396
-0.0923844
-0.0338689
1.05541
-0.068235
1.09935
-0.568462
1.10871
-0.280935
1.02684
0.341687
0.904862
0.63832
0.770727
0.561444
0.636132
0.241513
0.51083
-0.120952
0.402506
-0.378649
0.314392
-0.503792
0.243291
-0.53465
0.186875
-0.511283
0.143779
-0.459635
0.111831
-0.395243
0.088541
-0.32755
0.0718056
-0.261648
0.0600772
-0.199665
0.0523334
-0.141942
0.048012
-0.088063
-0.0324777
1.09885
0.0366118
1.13983
-0.609446
1.13945
-0.280554
1.03922
0.441912
0.892061
0.785483
0.759841
0.693664
0.642691
0.358663
0.526822
-0.00508358
0.417808
-0.269635
0.323258
-0.409243
0.248344
-0.459736
0.191551
-0.45449
0.148995
-0.41708
0.117294
-0.363543
0.0938932
-0.304148
0.0768633
-0.244618
0.0648018
-0.187603
0.0567644
-0.133904
0.052219
-0.0835176
-0.0309819
1.14114
0.157906
1.1879
-0.656207
1.15579
-0.24844
1.03658
0.561125
0.89579
0.926269
0.739657
0.849797
0.589825
0.508496
0.475959
0.108782
0.38624
-0.179916
0.310471
-0.333474
0.24622
-0.395484
0.193978
-0.402248
0.153167
-0.376269
0.122056
-0.332431
0.0987157
-0.280808
0.0815081
-0.22741
0.069192
-0.175287
0.0609082
-0.12562
0.0561579
-0.0787673
-0.0293871
1.16209
0.299385
1.19839
-0.692504
1.15967
-0.209718
1.02515
0.695644
0.859497
1.09192
0.700869
1.00843
0.586892
0.622473
0.49051
0.205164
0.396074
-0.0854794
0.313125
-0.250525
0.247281
-0.329641
0.196204
-0.351171
0.15664
-0.336705
0.126187
-0.301979
0.103032
-0.257653
0.0857478
-0.210126
0.0732478
-0.162787
0.0647619
-0.117135
0.059827
-0.0738325
-0.0276991
1.12122
0.453902
1.14396
-0.715236
1.11996
-0.185722
0.974487
0.841118
0.809018
1.25739
0.669318
1.14812
0.558352
0.733439
0.456977
0.306538
0.371543
-4.52513e-05
0.301573
-0.180555
0.244
-0.272067
0.196954
-0.304125
0.159296
-0.299047
0.129711
-0.272393
0.106864
-0.234806
0.089592
-0.192854
0.0769714
-0.150166
0.0683245
-0.108488
0.0632259
-0.0687339
-0.0259246
0.956349
0.590474
0.980224
-0.739111
1.01693
-0.222433
0.904897
0.953157
0.766587
1.3957
0.636018
1.27869
0.52824
0.841217
0.438567
0.396211
0.361865
0.0766567
0.296364
-0.115054
0.241776
-0.217479
0.197274
-0.259623
0.161337
-0.26311
0.132687
-0.243744
0.110237
-0.212356
0.0930528
-0.175669
0.080367
-0.137481
0.0715962
-0.0997168
0.0663546
-0.0634923
-0.0240705
0.635221
0.682136
0.74206
-0.845951
0.86115
-0.341522
0.788054
1.02625
0.68401
1.49974
0.573196
1.38951
0.484924
0.929489
0.411399
0.469736
0.34436
0.143696
0.286386
-0.0570804
0.237599
-0.168692
0.19668
-0.218704
0.162752
-0.229183
0.135152
-0.216144
0.113179
-0.190383
0.0961437
-0.158634
0.08344
-0.124777
0.0745786
-0.0908554
0.0692141
-0.0581278
-0.0221441
0.277735
0.650239
0.532564
-1.10078
0.676556
-0.485514
0.636529
1.06628
0.568627
1.56765
0.493813
1.46432
0.437745
0.985557
0.381561
0.525919
0.32573
0.199527
0.276334
-0.00768396
0.233133
-0.125491
0.195608
-0.181178
0.16367
-0.197246
0.137162
-0.189635
0.115717
-0.168937
0.0988794
-0.141797
0.0861971
-0.112095
0.0772743
-0.0819327
0.071806
-0.0526596
-0.020153
-0.0019235
0.458546
0.385171
-1.48787
0.478678
-0.579021
0.479912
1.06505
0.444995
1.60256
0.41172
1.4976
0.387087
1.01019
0.347938
0.565069
0.30559
0.241875
0.265543
0.0323623
0.228109
-0.0880571
0.194058
-0.147127
0.164148
-0.167335
0.138761
-0.164248
0.117879
-0.148056
0.101275
-0.125193
0.0886457
-0.0994651
0.0796865
-0.0729734
0.0741323
-0.0471054
-0.0181047
0.0575897
0.00351675
0.20586
-1.63614
0.268288
-0.64145
0.300449
1.03288
0.309295
1.59372
0.328162
1.47873
0.332624
1.00573
0.312764
0.584929
0.285327
0.269313
0.254617
0.0630718
0.22284
-0.05628
0.192184
-0.116471
0.16427
-0.139422
0.139998
-0.139975
0.119694
-0.127752
0.103347
-0.108846
0.090794
-0.0869121
0.0818189
-0.0639983
0.0761954
-0.0414819
-0.0160068
0.119824
-0.451951
0.020308
-1.53663
0.0615242
-0.682666
0.129401
0.965008
0.18074
1.54238
0.247021
1.41245
0.27593
0.976818
0.277579
0.58328
0.265413
0.281479
0.243827
0.0846571
0.217479
-0.0299312
0.190086
-0.0890785
0.164105
-0.113441
0.14092
-0.11679
0.12119
-0.108022
0.10511
-0.0927659
0.09265
-0.0744519
0.0836758
-0.0550241
0.0779979
-0.0358041
-0.0138668
0.0133316
-0.863725
-0.14209
-1.38121
-0.142205
-0.682551
-0.0283348
0.851137
0.063058
1.45098
0.16524
1.31027
0.220159
0.9219
0.245001
0.558438
0.247066
0.279414
0.233697
0.0980261
0.212274
-0.00850837
0.187893
-0.0646969
0.163721
-0.0892691
0.14157
-0.0946387
0.122392
-0.0888445
0.106579
-0.0769526
0.0942208
-0.0620942
0.0852602
-0.0460634
0.0795418
-0.0300857
-0.0116919
-0.0269014
-0.836824
-0.288032
-1.12008
-0.380174
-0.590409
-0.232276
0.70324
-0.0716321
1.29034
0.0967357
1.1419
0.200586
0.818049
0.257113
0.501911
0.274883
0.261644
0.268114
0.104796
0.248207
0.0113981
0.222569
-0.0390583
0.195752
-0.0624524
0.170435
-0.0693219
0.148102
-0.0665115
0.129464
-0.0583141
0.114773
-0.0474035
0.104049
-0.0353398
0.0971488
-0.0231852
-0.00904478
-0.146303
-0.69052
-0.385269
-0.88111
-0.519025
-0.456654
-0.395435
0.579651
-0.187378
1.08228
0.0152529
0.939269
0.149769
0.683533
0.225261
0.426419
0.255142
0.231764
0.25647
0.103467
0.241818
0.02605
0.21955
-0.0167893
0.194793
-0.037696
0.170688
-0.0452167
0.149018
-0.0448417
0.130716
-0.0400118
0.116173
-0.0328608
0.105493
-0.0246592
0.098569
-0.0162616
-0.00636919
-0.160031
-0.530489
-0.423944
-0.617198
-0.590628
-0.28997
-0.478252
0.467276
-0.250634
0.854664
-0.0344729
0.723108
0.114539
0.534521
0.200878
0.34008
0.239323
0.193319
0.24688
0.0959098
0.23644
0.03649
0.216876
0.00277442
0.193784
-0.0146041
0.170668
-0.0221003
0.149549
-0.0237235
0.131532
-0.0219947
0.117123
-0.0184513
0.106489
-0.0140257
0.0995583
-0.00933047
-0.00367634
-0.186681
-0.343808
-0.444295
-0.359583
-0.598761
-0.135504
-0.505351
0.373865
-0.277449
0.626762
-0.0631938
0.508853
0.0907767
0.38055
0.183236
0.247621
0.227522
0.149033
0.239574
0.083857
0.232251
0.0438131
0.214656
0.0203695
0.192806
0.00724582
0.170428
0.000278049
0.149726
-0.00302219
0.131931
-0.00419932
0.117632
-0.00415226
0.107045
-0.00343901
0.10012
-0.00240531
-0.000976888
-0.217664
-0.126145
-0.429871
-0.147376
-0.589112
0.0237378
-0.504883
0.289636
-0.287453
0.409332
-0.0795541
0.300953
0.0756697
0.225327
0.171663
0.151627
0.219686
0.10101
0.234659
0.0688842
0.229339
0.049133
0.213017
0.0366921
0.191932
0.0283303
0.170003
0.0222075
0.14957
0.0174104
0.131925
0.013446
0.117709
0.0100639
0.107165
0.00710445
0.100258
0.00450193
0.00171893
-0.203064
0.0769194
-0.417984
0.0675434
-0.579345
0.185099
-0.502863
0.213154
-0.290481
0.196951
-0.0893265
0.0997984
0.0674487
0.0685515
0.165669
0.0534069
0.215784
0.0508955
0.232218
0.0524502
0.2278
0.0535508
0.211992
0.0525
0.191192
0.0491304
0.169429
0.0439704
0.149099
0.0377405
0.131523
0.0310212
0.117358
0.0242291
0.106852
0.0176104
0.0999738
0.0113804
0.00440121
-0.200179
0.277098
-0.415516
0.282881
-0.579268
0.348851
-0.508884
0.142771
-0.296589
-0.0153447
-0.0944993
-0.102291
0.0651761
-0.0911238
0.165073
-0.0464905
0.215837
0.000132169
0.232305
0.0359824
0.227676
0.0581794
0.211611
0.0685655
0.1906
0.0701406
0.168706
0.0658652
0.148313
0.058133
0.130728
0.0486063
0.116582
0.0383753
0.106107
0.0280847
0.0992683
0.0182195
0.00706022
-0.182407
0.459506
-0.411572
0.512046
-0.594932
0.53221
-0.530662
0.078501
-0.305384
-0.240623
-0.0959654
-0.311709
0.068841
-0.25593
0.169931
-0.14758
0.219904
-0.0498412
0.234949
0.0209372
0.228978
0.0641506
0.211871
0.0856723
0.190151
0.0918612
0.167825
0.0881906
0.147208
0.0787506
0.129535
0.0662788
0.115378
0.0525329
0.10493
0.0385321
0.0981415
0.0250081
0.00968627
-0.242138
0.701644
-0.409021
0.678928
-0.613807
0.736996
-0.555933
0.0206264
-0.31657
-0.479986
-0.0911776
-0.537101
0.0791013
-0.426209
0.180618
-0.249097
0.228111
-0.0973344
0.240174
0.00887389
0.23168
0.0726453
0.212735
0.104617
0.189807
0.114789
0.166762
0.111236
0.145767
0.0997452
0.127936
0.0841097
0.113741
0.066728
0.103318
0.0489549
0.096592
0.0317344
0.0122696
-0.17846
0.880104
-0.406455
0.906923
-0.604974
0.935515
-0.545129
-0.0392184
-0.309524
-0.715591
-0.073458
-0.773167
0.0978698
-0.597537
0.197683
-0.34891
0.240577
-0.140228
0.247951
0.00149963
0.235713
0.0848839
0.214136
0.126194
0.189515
0.13941
0.165474
0.135277
0.143967
0.121252
0.125916
0.102161
0.111664
0.0809801
0.101268
0.0593511
0.0946181
0.0383845
0.0148002
-0.0922059
1.08909
-0.116784
-0.293972
1.10869
-0.418408
1.05995
-0.352547
-0.105079
-0.194688
-0.87345
-0.025228
-0.942628
0.0991375
-0.721902
0.171944
-0.421717
0.200256
-0.16854
0.201388
0.000367614
0.188277
0.0979951
0.168983
0.145487
0.148202
0.160191
0.128518
0.154962
0.11124
0.13853
0.096917
0.116484
0.0857074
0.0921898
0.0775883
0.0674702
0.0724433
0.0435294
0.0167382
-0.105189
1.21227
-0.0179826
-0.260814
1.26431
-0.329133
1.12827
-0.23247
-0.201742
-0.107241
-0.998679
0.0306703
-1.08054
0.131151
-0.822383
0.191846
-0.482411
0.212911
-0.189606
0.20879
0.00448914
0.191954
0.114831
0.170204
0.167237
0.147915
0.18248
0.127386
0.175491
0.109687
0.156229
0.0951861
0.130984
0.0839356
0.10344
0.0758434
0.0755625
0.0707631
0.0486096
0.0186327
-0.0754684
1.25318
0.0345578
-0.196237
1.38508
-0.21018
1.14221
-0.0956192
-0.316302
0.00172724
-1.09603
0.106345
-1.18516
0.176639
-0.892677
0.217573
-0.523345
0.228039
-0.200072
0.217277
0.0152519
0.196046
0.136061
0.171487
0.191796
0.147512
0.206454
0.126062
0.196941
0.107905
0.174386
0.093221
0.145669
0.0819348
0.114727
0.0738786
0.0836186
0.0688731
0.0536152
0.0204786
0.0327547
1.23808
-0.0176557
-0.0980173
1.51585
-0.0543461
1.09854
0.0588706
-0.429519
0.12349
-1.16064
0.192361
-1.25403
0.232565
-0.932881
0.249165
-0.539945
0.245625
-0.196531
0.226725
0.0341521
0.200429
0.162357
0.17274
0.219485
0.146942
0.232252
0.124511
0.219373
0.105878
0.193018
0.0910125
0.160535
0.0797011
0.126038
0.071693
0.0916267
0.0667729
0.0585353
0.0222708
0.0481767
1.12744
0.0624622
0.0325321
1.5315
0.135413
0.99566
0.227236
-0.521342
0.260945
-1.19435
0.285023
-1.27811
0.293836
-0.941694
0.285246
-0.531356
0.26537
-0.176655
0.236939
0.062583
0.204966
0.194329
0.17388
0.250571
0.146152
0.25998
0.122695
0.242829
0.103583
0.21213
0.0885484
0.17557
0.0772286
0.137358
0.069284
0.0995713
0.0644611
0.0633583
0.0240041
-0.0170727
1.00772
0.136795
0.17692
1.33751
0.338946
0.833634
0.404502
-0.586898
0.401796
-1.19165
0.38043
-1.25674
0.356579
-0.917843
0.323417
-0.498194
0.286507
-0.139745
0.247637
0.101454
0.209479
0.232487
0.174801
0.285249
0.145071
0.289711
0.120574
0.267326
0.100996
0.231708
0.0858164
0.19075
0.0745116
0.148663
0.0666493
0.107434
0.0619364
0.0680711
0.0256734
0.0235536
0.951123
0.0330397
0.287626
1.07343
0.529722
0.591538
0.570021
-0.627197
0.530402
-1.15203
0.469918
-1.19626
0.416887
-0.864813
0.361767
-0.443073
0.308199
-0.0861773
0.258596
0.151057
0.213893
0.27719
0.175424
0.323718
0.143629
0.321506
0.118103
0.292852
0.0980933
0.251717
0.0828039
0.206039
0.0715444
0.159922
0.0637869
0.115191
0.0591979
0.0726602
0.0272736
0.234193
0.922522
-0.205591
0.459329
0.848297
0.713035
0.337832
0.721982
-0.636145
0.644954
-1.075
0.550569
-1.10187
0.471157
-0.7854
0.396913
-0.36883
0.328249
-0.0175129
0.268231
0.211074
0.217505
0.327916
0.175501
0.365722
0.141732
0.355275
0.115235
0.319349
0.0948489
0.272103
0.0794989
0.221389
0.0683223
0.171099
0.0606955
0.122818
0.0562447
0.077111
0.0287998
0.580965
0.87801
-0.536454
0.737968
0.691295
0.90092
0.17488
0.855661
-0.590886
0.741944
-0.961283
0.622573
-0.9825
0.521071
-0.683899
0.433517
-0.281276
0.352076
0.063929
0.280376
0.282774
0.221484
0.386809
0.175179
0.412026
0.139338
0.391116
0.111928
0.346759
0.0912391
0.292792
0.0758898
0.236738
0.0648411
0.182147
0.0573744
0.130285
0.0530768
0.0814086
0.0302474
0.902054
0.835509
-0.859553
1.00798
0.585366
1.05738
0.125484
0.957414
-0.49092
0.82044
-0.824309
0.688309
-0.850369
0.562073
-0.557663
0.448648
-0.167851
0.357495
0.155083
0.283471
0.356798
0.222461
0.447819
0.173749
0.460738
0.136291
0.428575
0.10813
0.37492
0.0872397
0.313682
0.0719663
0.252012
0.0610977
0.193016
0.0538238
0.137559
0.0496943
0.085538
0.031612
1.08924
0.810981
-1.06471
1.15546
0.519147
1.13022
0.150728
1.00527
-0.365974
0.864739
-0.683777
0.736493
-0.722123
0.623693
-0.444863
0.507855
-0.0520131
0.394617
0.268321
0.298924
0.452491
0.225874
0.520869
0.172064
0.514547
0.132639
0.468001
0.103808
0.403751
0.08283
0.33466
0.0677199
0.267122
0.0570907
0.203645
0.050045
0.144604
0.0460982
0.0894848
0.0328892
1.14205
0.804816
-1.13588
1.18717
0.474028
1.13634
0.201553
1.01057
-0.240198
0.884411
-0.557623
0.756297
-0.59401
0.622946
-0.311512
0.496898
0.0740348
0.385415
0.379804
0.294485
0.543421
0.223071
0.592283
0.168479
0.569139
0.128102
0.508377
0.0988987
0.432955
0.0779882
0.35557
0.0631436
0.281966
0.0528199
0.213969
0.0460408
0.151383
0.04229
0.0932356
0.0340767
1.12698
0.806472
-1.12863
1.15038
0.45063
1.10598
0.245953
1.00866
-0.142878
0.892886
-0.441853
0.774166
-0.47529
0.656123
-0.193468
0.534897
0.19526
0.415903
0.498797
0.309595
0.649729
0.225703
0.676175
0.165213
0.62963
0.122942
0.550648
0.0934021
0.462495
0.0727014
0.376271
0.0582337
0.296434
0.0482878
0.223915
0.0418153
0.157856
0.0382721
0.0967788
0.0351764
1.08528
0.810119
-1.08893
1.09163
0.444281
1.05834
0.279242
0.98512
-0.0696581
0.899543
-0.356276
0.800329
-0.376076
0.679121
-0.0722599
0.540452
0.333929
0.406335
0.632914
0.297509
0.758556
0.216951
0.756733
0.158342
0.688238
0.116476
0.592513
0.0872067
0.491764
0.0669487
0.396529
0.0529882
0.310395
0.0434987
0.233404
0.0373744
0.16398
0.0340477
0.100106
0.0361941
1.04083
0.810661
-1.04137
1.03834
0.446775
1.02009
0.297489
0.965811
-0.0153782
0.893076
-0.28354
0.804809
-0.28781
0.690567
0.0419821
0.558171
0.466326
0.428355
0.76273
0.312733
0.874178
0.220199
0.849267
0.154129
0.754309
0.109855
0.636787
0.0804617
0.521158
0.0607428
0.416248
0.0474117
0.323726
0.0384601
0.242356
0.0327263
0.169714
0.0296212
0.103211
0.0371394
0.990178
0.806111
-0.985628
0.984905
0.452048
0.981996
0.300398
0.943483
0.0231346
0.882058
-0.222116
0.809087
-0.214838
0.710401
0.140668
0.572345
0.604381
0.420745
0.914331
0.293668
1.00126
0.203175
0.939759
0.141895
0.815589
0.100519
0.678163
0.072679
0.548997
0.05401
0.434917
0.0415017
0.336234
0.0331814
0.250676
0.027881
0.175014
0.0249981
0.106093
0.0380252
0.952593
0.795124
-0.941606
0.952204
0.452437
0.952949
0.299654
0.91936
0.0567231
0.881905
-0.184661
0.826776
-0.15971
0.718752
0.248692
0.575973
0.74716
0.432579
1.05772
0.306423
1.12741
0.207551
1.03863
0.138423
0.884717
0.0935086
0.723078
0.0650881
0.577418
0.0470054
0.453
0.0353097
0.34793
0.027681
0.258305
0.0228519
0.179844
0.0201859
0.108759
0.0388683
0.903533
0.782618
-0.891027
0.90794
0.448031
0.915723
0.29187
0.888096
0.0843505
0.858421
-0.154986
0.827737
-0.129025
0.747274
0.329156
0.598644
0.89579
0.426468
1.2299
0.281729
1.27215
0.181454
1.13891
0.118083
0.948088
0.0789154
0.762246
0.0544637
0.60187
0.0388392
0.468624
0.0286452
0.358124
0.021942
0.265008
0.0176525
0.184133
0.0151998
0.111212
0.0396853
0.881711
0.769765
-0.868859
0.888038
0.441704
0.893835
0.286073
0.870957
0.107228
0.868586
-0.152615
0.8512
-0.111639