/*--------------------------------*- C++ -*----------------------------------*\
| =========                 |                                                 |
| \\      /  F ield         | OpenFOAM: The Open Source CFD Toolbox           |
|  \\    /   O peration     | Version:  v1806                                 |
|   \\  /    A nd           | Web:      www.OpenFOAM.com                      |
|    \\/     M anipulation  |                                                 |
\*---------------------------------------------------------------------------*/
FoamFile
{
    version     2.0;
    format      ascii;
    class       volVectorField;
    location    "260";
    object      U;
}
// * * * * * * * * * * * * * * * * * * * * * * * * * * * * * * * * * * * * * //

dimensions      [0 1 -1 0 0 0 0];


internalField   nonuniform List<vector> 
2400
(
(0.300076 5.46633e-05 0)
(0.299901 -0.00176569 0)
(0.30009 -0.00130398 0)
(0.299812 -0.00373161 0)
(0.300054 -0.00296301 0)
(0.299636 -0.00632988 0)
(0.299944 -0.00521185 0)
(0.299322 -0.00994736 0)
(0.299715 -0.00849579 0)
(0.2988 -0.0151608 0)
(0.299284 -0.013421 0)
(0.297966 -0.0226132 0)
(0.298532 -0.0208099 0)
(0.296683 -0.0329662 0)
(0.297287 -0.0315558 0)
(0.294853 -0.0461727 0)
(0.295437 -0.0460531 0)
(0.292749 -0.0601674 0)
(0.293207 -0.0624461 0)
(0.291748 -0.0697977 0)
(0.300076 5.62887e-05 0)
(0.2999 -0.00176029 0)
(0.300065 -0.00129514 0)
(0.299773 -0.00371782 0)
(0.299977 -0.00294 0)
(0.299536 -0.00630329 0)
(0.299787 -0.00516479 0)
(0.299122 -0.0099036 0)
(0.299435 -0.00840744 0)
(0.298444 -0.0150932 0)
(0.298822 -0.0132607 0)
(0.297369 -0.0225186 0)
(0.297814 -0.0205275 0)
(0.295735 -0.0328513 0)
(0.296266 -0.031086 0)
(0.293465 -0.0460784 0)
(0.294241 -0.0453967 0)
(0.291037 -0.060163 0)
(0.29239 -0.0619361 0)
(0.290598 -0.0698845 0)
(0.300076 5.57416e-05 0)
(0.299904 -0.00174706 0)
(0.300033 -0.00128285 0)
(0.299728 -0.00369005 0)
(0.299872 -0.002908 0)
(0.299406 -0.00625617 0)
(0.299566 -0.00509992 0)
(0.298855 -0.00983258 0)
(0.29904 -0.00828586 0)
(0.297962 -0.0149937 0)
(0.298175 -0.0130411 0)
(0.29656 -0.0223956 0)
(0.296828 -0.020146 0)
(0.294473 -0.0327373 0)
(0.294901 -0.0304701 0)
(0.291679 -0.0460762 0)
(0.292681 -0.044574 0)
(0.288922 -0.060437 0)
(0.291305 -0.0613659 0)
(0.289122 -0.0703334 0)
(0.300074 5.24548e-05 0)
(0.29991 -0.0017243 0)
(0.299998 -0.0012686 0)
(0.299685 -0.0036463 0)
(0.299757 -0.00286936 0)
(0.299274 -0.00618632 0)
(0.299319 -0.00502086 0)
(0.298573 -0.0097322 0)
(0.298595 -0.00813647 0)
(0.297444 -0.0148606 0)
(0.297449 -0.0127698 0)
(0.295689 -0.0222434 0)
(0.295736 -0.0196758 0)
(0.293112 -0.0326215 0)
(0.293411 -0.02972 0)
(0.289759 -0.0461548 0)
(0.290989 -0.0435855 0)
(0.286645 -0.0609654 0)
(0.290115 -0.0606992 0)
(0.287419 -0.0711392 0)
(0.300072 4.64427e-05 0)
(0.299917 -0.00169185 0)
(0.299963 -0.0012526 0)
(0.299645 -0.00358544 0)
(0.299638 -0.00282354 0)
(0.299146 -0.00609079 0)
(0.299061 -0.00492625 0)
(0.298297 -0.00959667 0)
(0.298127 -0.00795719 0)
(0.296931 -0.014684 0)
(0.296684 -0.0124439 0)
(0.294819 -0.022046 0)
(0.29459 -0.0191143 0)
(0.291739 -0.0324795 0)
(0.291864 -0.0288346 0)
(0.28779 -0.0462787 0)
(0.289236 -0.0424309 0)
(0.284252 -0.0617157 0)
(0.288863 -0.0599208 0)
(0.285492 -0.0723374 0)
(0.300072 3.75181e-05 0)
(0.299923 -0.00164955 0)
(0.29993 -0.00123534 0)
(0.299606 -0.00350669 0)
(0.299519 -0.00277131 0)
(0.299023 -0.00596737 0)
(0.2988 -0.00481769 0)
(0.298032 -0.0094213 0)
(0.297645 -0.00775159 0)
(0.296443 -0.0144551 0)
(0.29589 -0.0120701 0)
(0.293987 -0.0217902 0)
(0.293396 -0.0184715 0)
(0.290408 -0.0322933 0)
(0.290258 -0.0278253 0)
(0.28582 -0.0464259 0)
(0.287432 -0.0411178 0)
(0.281741 -0.0626708 0)
(0.287565 -0.0590184 0)
(0.283318 -0.073984 0)
(0.300078 2.55794e-05 0)
(0.299923 -0.00159723 0)
(0.299902 -0.00121743 0)
(0.299562 -0.0034094 0)
(0.299408 -0.00271416 0)
(0.298899 -0.00581434 0)
(0.298543 -0.00469849 0)
(0.297776 -0.00920194 0)
(0.297159 -0.00752641 0)
(0.295982 -0.0141654 0)
(0.295071 -0.0116604 0)
(0.293212 -0.0214616 0)
(0.292141 -0.0177633 0)
(0.289162 -0.0320449 0)
(0.288554 -0.0267055 0)
(0.283905 -0.0465797 0)
(0.285542 -0.0396444 0)
(0.279108 -0.0638189 0)
(0.286246 -0.0579732 0)
(0.280857 -0.0761424 0)
(0.300093 1.06219e-05 0)
(0.299912 -0.00153498 0)
(0.299887 -0.00119931 0)
(0.299505 -0.00329329 0)
(0.299311 -0.00265346 0)
(0.298765 -0.00563033 0)
(0.298302 -0.00457202 0)
(0.297519 -0.00893461 0)
(0.296684 -0.00728907 0)
(0.29554 -0.0138051 0)
(0.294239 -0.0112295 0)
(0.292497 -0.0210413 0)
(0.290817 -0.0170102 0)
(0.288031 -0.0317092 0)
(0.286693 -0.0254929 0)
(0.282122 -0.0467217 0)
(0.283471 -0.0380011 0)
(0.276392 -0.0651604 0)
(0.284929 -0.0567559 0)
(0.278016 -0.0788701 0)
(0.300121 -6.72384e-06 0)
(0.299883 -0.00146318 0)
(0.299892 -0.00118093 0)
(0.299428 -0.00315865 0)
(0.299242 -0.00258997 0)
(0.298608 -0.00541484 0)
(0.298097 -0.0044409 0)
(0.29724 -0.00861633 0)
(0.296245 -0.00704629 0)
(0.295091 -0.0133648 0)
(0.293424 -0.0107933 0)
(0.291815 -0.0205056 0)
(0.28944 -0.0162397 0)
(0.287018 -0.0312485 0)
(0.284626 -0.0242166 0)
(0.280556 -0.0468221 0)
(0.281057 -0.0361798 0)
(0.273724 -0.0667161 0)
(0.283586 -0.0553088 0)
(0.27463 -0.0822139 0)
(0.300166 -2.57015e-05 0)
(0.299831 -0.00138282 0)
(0.299922 -0.00116168 0)
(0.29932 -0.00300666 0)
(0.299213 -0.00252345 0)
(0.29841 -0.00516874 0)
(0.297948 -0.00430612 0)
(0.296913 -0.00824626 0)
(0.29588 -0.00680247 0)
(0.294594 -0.0128381 0)
(0.292682 -0.0103649 0)
(0.291109 -0.0198304 0)
(0.288071 -0.0154848 0)
(0.286066 -0.0306077 0)
(0.282353 -0.0229234 0)
(0.279244 -0.0468235 0)
(0.278091 -0.0341938 0)
(0.271349 -0.0685256 0)
(0.282024 -0.0535227 0)
(0.270506 -0.0862406 0)
(0.300231 -4.54547e-05 0)
(0.299751 -0.00129552 0)
(0.299984 -0.0011403 0)
(0.299172 -0.00283951 0)
(0.299234 -0.00245244 0)
(0.298158 -0.00489482 0)
(0.297878 -0.00416646 0)
(0.29651 -0.0078269 0)
(0.29563 -0.00655807 0)
(0.293996 -0.0122237 0)
(0.292089 -0.00995134 0)
(0.290291 -0.0189989 0)
(0.286829 -0.0147776 0)
(0.285049 -0.0297172 0)
(0.27998 -0.0216798 0)
(0.278104 -0.046619 0)
(0.274412 -0.0321054 0)
(0.26957 -0.070616 0)
(0.279756 -0.0512346 0)
(0.265616 -0.0911219 0)
(0.300316 -6.45099e-05 0)
(0.299641 -0.00120329 0)
(0.30008 -0.00111491 0)
(0.298982 -0.00266039 0)
(0.299313 -0.00237424 0)
(0.297842 -0.00459779 0)
(0.297903 -0.00401818 0)
(0.296011 -0.00736471 0)
(0.295533 -0.00630853 0)
(0.293251 -0.0115284 0)
(0.291726 -0.00954972 0)
(0.289259 -0.0180083 0)
(0.285876 -0.0141333 0)
(0.283773 -0.0285187 0)
(0.277754 -0.0205647 0)
(0.276867 -0.0460319 0)
(0.270063 -0.0300525 0)
(0.268539 -0.0729232 0)
(0.275957 -0.0482781 0)
(0.260448 -0.0972656 0)
(0.300419 -8.13771e-05 0)
(0.299505 -0.0011084 0)
(0.300208 -0.00108332 0)
(0.298751 -0.00247309 0)
(0.299448 -0.00228535 0)
(0.297464 -0.00428387 0)
(0.298026 -0.0038555 0)
(0.295409 -0.00686972 0)
(0.295605 -0.00604435 0)
(0.292333 -0.0107672 0)
(0.291651 -0.00914592 0)
(0.287931 -0.0168755 0)
(0.285377 -0.0135389 0)
(0.282026 -0.026993 0)
(0.276043 -0.0196424 0)
(0.275071 -0.0448312 0)
(0.265466 -0.0282471 0)
(0.267955 -0.075179 0)
(0.269672 -0.044615 0)
(0.256321 -0.105431 0)
(0.300534 -9.47085e-05 0)
(0.299349 -0.00101302 0)
(0.300359 -0.00104345 0)
(0.298492 -0.00228141 0)
(0.299628 -0.00218213 0)
(0.297038 -0.00395981 0)
(0.298233 -0.00367177 0)
(0.294724 -0.00635399 0)
(0.295833 -0.00575287 0)
(0.291257 -0.00996162 0)
(0.29187 -0.00871601 0)
(0.286288 -0.0156358 0)
(0.285427 -0.0129538 0)
(0.279653 -0.025176 0)
(0.275232 -0.0189038 0)
(0.272188 -0.0428474 0)
(0.261488 -0.0269214 0)
(0.26681 -0.0768229 0)
(0.260405 -0.0405398 0)
(0.25522 -0.116736 0)
(0.300654 -0.000103547 0)
(0.299185 -0.000918826 0)
(0.300521 -0.000993843 0)
(0.298221 -0.00208849 0)
(0.299832 -0.00206182 0)
(0.296592 -0.00363152 0)
(0.29849 -0.00346125 0)
(0.293997 -0.00582903 0)
(0.296169 -0.00542158 0)
(0.290084 -0.00913498 0)
(0.29232 -0.00823187 0)
(0.284403 -0.014337 0)
(0.285987 -0.0123158 0)
(0.276665 -0.0231562 0)
(0.275527 -0.0182324 0)
(0.267851 -0.0401027 0)
(0.259221 -0.0262167 0)
(0.263471 -0.0770158 0)
(0.249004 -0.0368574 0)
(0.258633 -0.132364 0)
(0.300769 -0.000107517 0)
(0.299027 -0.000826693 0)
(0.300677 -0.000934047 0)
(0.297961 -0.00189612 0)
(0.300033 -0.00192334 0)
(0.296162 -0.00330275 0)
(0.298753 -0.00322098 0)
(0.29329 -0.00530304 0)
(0.296534 -0.00504214 0)
(0.288917 -0.00830621 0)
(0.292868 -0.00766992 0)
(0.282448 -0.0130254 0)
(0.286853 -0.0115588 0)
(0.273302 -0.0210471 0)
(0.276762 -0.0174525 0)
(0.262107 -0.0368029 0)
(0.259406 -0.0260412 0)
(0.2563 -0.074944 0)
(0.238327 -0.0348629 0)
(0.26554 -0.152474 0)
(0.30087 -0.000106862 0)
(0.298888 -0.000736552 0)
(0.300813 -0.000864886 0)
(0.297733 -0.00170442 0)
(0.300204 -0.00176786 0)
(0.295786 -0.00297427 0)
(0.298973 -0.00295217 0)
(0.292669 -0.00477862 0)
(0.29684 -0.00461394 0)
(0.28788 -0.00748399 0)
(0.293348 -0.00702053 0)
(0.280659 -0.0117302 0)
(0.287701 -0.0106365 0)
(0.270016 -0.0189492 0)
(0.278355 -0.0163832 0)
(0.255621 -0.0332622 0)
(0.261739 -0.0259106 0)
(0.244675 -0.0704944 0)
(0.232634 -0.0358941 0)
(0.271028 -0.174694 0)
(0.300952 -0.00010244 0)
(0.298777 -0.000647145 0)
(0.300916 -0.000788675 0)
(0.297554 -0.00151158 0)
(0.300324 -0.00159923 0)
(0.295493 -0.00264329 0)
(0.299113 -0.00266093 0)
(0.292187 -0.00425164 0)
(0.297017 -0.00414613 0)
(0.28708 -0.00666319 0)
(0.29361 -0.00629465 0)
(0.279265 -0.0104513 0)
(0.288192 -0.00954656 0)
(0.267341 -0.0169051 0)
(0.279489 -0.0149101 0)
(0.249635 -0.029772 0)
(0.264562 -0.0250516 0)
(0.229995 -0.0645442 0)
(0.234402 -0.0403613 0)
(0.26703 -0.194744 0)
(0.30101 -9.58457e-05 0)
(0.2987 -0.000556227 0)
(0.30098 -0.000708849 0)
(0.297433 -0.00131436 0)
(0.300385 -0.00142324 0)
(0.295296 -0.00230445 0)
(0.299156 -0.00235706 0)
(0.291872 -0.00371285 0)
(0.297026 -0.0036556 0)
(0.286571 -0.00582725 0)
(0.293572 -0.00552175 0)
(0.278405 -0.00915941 0)
(0.288107 -0.00833678 0)
(0.265681 -0.0148754 0)
(0.279468 -0.0130622 0)
(0.245508 -0.0264033 0)
(0.265431 -0.0229766 0)
(0.216032 -0.0581175 0)
(0.239178 -0.0465508 0)
(0.244728 -0.207281 0)
(0.301046 -8.79035e-05 0)
(0.298655 -0.000464373 0)
(0.301009 -0.000625549 0)
(0.297365 -0.00111315 0)
(0.30039 -0.00124148 0)
(0.29519 -0.00195739 0)
(0.299108 -0.00204488 0)
(0.291713 -0.0031592 0)
(0.29688 -0.00315306 0)
(0.286343 -0.00496574 0)
(0.293245 -0.00472802 0)
(0.278074 -0.00782406 0)
(0.287434 -0.00707256 0)
(0.265116 -0.0127758 0)
(0.278075 -0.0109932 0)
(0.243949 -0.0229711 0)
(0.262573 -0.0197397 0)
(0.207615 -0.0515877 0)
(0.235104 -0.0500143 0)
(0.197017 -0.199732 0)
(0.291913 -0.0724754 0)
(0.292405 -0.0726928 0)
(0.292898 -0.0720171 0)
(0.293361 -0.0710486 0)
(0.293846 -0.0698616 0)
(0.29434 -0.0684968 0)
(0.294789 -0.067086 0)
(0.295175 -0.0657723 0)
(0.295504 -0.0646165 0)
(0.295789 -0.0636431 0)
(0.291722 -0.0726894 0)
(0.292824 -0.072952 0)
(0.293577 -0.0723304 0)
(0.294146 -0.0713838 0)
(0.294709 -0.07018 0)
(0.295237 -0.0687826 0)
(0.295651 -0.0673347 0)
(0.295962 -0.0659861 0)
(0.296206 -0.0647984 0)
(0.296419 -0.0637995 0)
(0.291396 -0.0731901 0)
(0.293172 -0.0733748 0)
(0.29422 -0.0727328 0)
(0.294934 -0.0717537 0)
(0.295603 -0.0704805 0)
(0.29618 -0.0690084 0)
(0.296572 -0.0675005 0)
(0.296826 -0.0661124 0)
(0.297006 -0.0648978 0)
(0.297173 -0.0638945 0)
(0.291076 -0.0739714 0)
(0.293549 -0.0739726 0)
(0.294874 -0.0732573 0)
(0.295737 -0.0722031 0)
(0.296518 -0.0708154 0)
(0.297147 -0.0692323 0)
(0.297525 -0.0676462 0)
(0.297749 -0.0662145 0)
(0.2979 -0.0649787 0)
(0.298063 -0.0639778 0)
(0.290832 -0.0750452 0)
(0.294008 -0.0747605 0)
(0.295559 -0.0739185 0)
(0.29657 -0.0727369 0)
(0.297478 -0.071187 0)
(0.298172 -0.0694629 0)
(0.298571 -0.0677892 0)
(0.298813 -0.0663156 0)
(0.298982 -0.065064 0)
(0.299171 -0.0640678 0)
(0.290714 -0.0764137 0)
(0.294566 -0.0757458 0)
(0.296278 -0.07472 0)
(0.297449 -0.073354 0)
(0.29853 -0.0716011 0)
(0.299345 -0.0697192 0)
(0.299832 -0.0679578 0)
(0.300151 -0.0664425 0)
(0.300366 -0.0651692 0)
(0.300546 -0.0641578 0)
(0.290737 -0.0780593 0)
(0.295212 -0.0769392 0)
(0.297038 -0.0756742 0)
(0.298442 -0.0740718 0)
(0.299807 -0.072089 0)
(0.300845 -0.0700438 0)
(0.301499 -0.0681903 0)
(0.301907 -0.066611 0)
(0.302096 -0.065274 0)
(0.302071 -0.0641799 0)
(0.290885 -0.0799645 0)
(0.295935 -0.0783671 0)
(0.29793 -0.0768236 0)
(0.29975 -0.074946 0)
(0.301576 -0.0727137 0)
(0.302936 -0.0704879 0)
(0.30375 -0.0684989 0)
(0.30409 -0.066775 0)
(0.303949 -0.0652648 0)
(0.30325 -0.0639525 0)
(0.291166 -0.0821494 0)
(0.296835 -0.0801017 0)
(0.299239 -0.0782699 0)
(0.301767 -0.0760759 0)
(0.304203 -0.0735418 0)
(0.305828 -0.0710532 0)
(0.306526 -0.0687952 0)
(0.306303 -0.0667505 0)
(0.30516 -0.0648693 0)
(0.302973 -0.063136 0)
(0.29175 -0.0847225 0)
(0.298286 -0.0823127 0)
(0.301529 -0.0801811 0)
(0.305006 -0.0775555 0)
(0.30792 -0.0745522 0)
(0.309331 -0.0715829 0)
(0.309142 -0.0687881 0)
(0.307381 -0.0661389 0)
(0.30415 -0.0636174 0)
(0.299366 -0.0612346 0)
(0.293187 -0.0879468 0)
(0.301039 -0.0852815 0)
(0.305494 -0.0827102 0)
(0.309719 -0.0793294 0)
(0.312317 -0.0754771 0)
(0.312334 -0.0716276 0)
(0.309859 -0.0679027 0)
(0.305125 -0.0643064 0)
(0.298441 -0.0608796 0)
(0.289905 -0.0576798 0)
(0.296517 -0.0922388 0)
(0.306002 -0.0892726 0)
(0.311393 -0.085766 0)
(0.315161 -0.0809596 0)
(0.315647 -0.0756335 0)
(0.312301 -0.0703691 0)
(0.305654 -0.0652979 0)
(0.296348 -0.060481 0)
(0.284975 -0.0560217 0)
(0.271939 -0.0520149 0)
(0.302978 -0.0979711 0)
(0.313413 -0.0941919 0)
(0.318008 -0.0886694 0)
(0.318716 -0.0814079 0)
(0.314323 -0.0738669 0)
(0.305187 -0.0667077 0)
(0.292534 -0.060058 0)
(0.277513 -0.0540041 0)
(0.260981 -0.048678 0)
(0.243645 -0.0441514 0)
(0.312996 -0.105044 0)
(0.321468 -0.0991334 0)
(0.321599 -0.0898726 0)
(0.315454 -0.0790285 0)
(0.303081 -0.0687569 0)
(0.286151 -0.0595951 0)
(0.266632 -0.0515771 0)
(0.246049 -0.0447117 0)
(0.225318 -0.0390767 0)
(0.205214 -0.0346011 0)
(0.324651 -0.112382 0)
(0.325064 -0.102084 0)
(0.315659 -0.0870057 0)
(0.298739 -0.0719686 0)
(0.276286 -0.0591552 0)
(0.251307 -0.0485995 0)
(0.226121 -0.0400694 0)
(0.202116 -0.0333212 0)
(0.179833 -0.0282486 0)
(0.159647 -0.0245122 0)
(0.332442 -0.117339 0)
(0.315741 -0.0999533 0)
(0.292182 -0.0774921 0)
(0.262288 -0.059023 0)
(0.230549 -0.0449962 0)
(0.200381 -0.0345732 0)
(0.173382 -0.0269861 0)
(0.149943 -0.0215392 0)
(0.129732 -0.0178518 0)
(0.112339 -0.0153395 0)
(0.32723 -0.115165 0)
(0.283374 -0.0891216 0)
(0.244646 -0.0598631 0)
(0.203801 -0.0408205 0)
(0.168291 -0.0281673 0)
(0.139163 -0.0200401 0)
(0.115867 -0.0148535 0)
(0.0972117 -0.0114955 0)
(0.0820083 -0.00947498 0)
(0.0692053 -0.00823502 0)
(0.297481 -0.0996945 0)
(0.219691 -0.066739 0)
(0.172797 -0.0353796 0)
(0.129703 -0.0209161 0)
(0.100229 -0.0126687 0)
(0.0790505 -0.00840651 0)
(0.0636209 -0.00602594 0)
(0.0519009 -0.00459503 0)
(0.0426606 -0.00387552 0)
(0.0346684 -0.0035989 0)
(0.231328 -0.0659014 0)
(0.124687 -0.0340556 0)
(0.0885547 -0.00995754 0)
(0.0572735 -0.0053638 0)
(0.0421053 -0.00260056 0)
(0.0316407 -0.00173212 0)
(0.0245169 -0.00123008 0)
(0.0192055 -0.000921147 0)
(0.0151304 -0.00087857 0)
(0.0110707 -0.00100016 0)
(0.114288 -0.0336637 0)
(0.0192659 -0.00840534 0)
(0.0174786 0.000869433 0)
(0.00707561 4.28898e-05 0)
(0.00545573 0.00030151 0)
(0.00339563 0.000130587 0)
(0.0022151 9.7529e-05 0)
(0.00128372 8.6436e-05 0)
(0.000745843 1.29596e-07 0)
(-0.000500535 -0.000411472 0)
(0.29597 -0.0631039 0)
(0.296061 -0.0628447 0)
(0.296147 -0.0626062 0)
(0.296231 -0.0623877 0)
(0.296314 -0.062188 0)
(0.296398 -0.0620061 0)
(0.296482 -0.061841 0)
(0.296566 -0.0616915 0)
(0.296651 -0.0615566 0)
(0.296735 -0.0614351 0)
(0.296821 -0.0613263 0)
(0.296906 -0.0612288 0)
(0.296991 -0.0611423 0)
(0.297075 -0.0610649 0)
(0.297158 -0.060998 0)
(0.297237 -0.0609375 0)
(0.297314 -0.0608889 0)
(0.297386 -0.0608422 0)
(0.297445 -0.0608137 0)
(0.297515 -0.0607775 0)
(0.296555 -0.0632551 0)
(0.296626 -0.0629971 0)
(0.2967 -0.0627604 0)
(0.296775 -0.0625432 0)
(0.296851 -0.0623447 0)
(0.296929 -0.062164 0)
(0.297009 -0.0620003 0)
(0.297091 -0.0618522 0)
(0.297173 -0.0617187 0)
(0.297256 -0.0615982 0)
(0.297339 -0.0614898 0)
(0.297421 -0.0613918 0)
(0.297501 -0.0613039 0)
(0.297575 -0.0612233 0)
(0.297648 -0.0611522 0)
(0.297707 -0.0610835 0)
(0.297767 -0.0610279 0)
(0.297801 -0.0609639 0)
(0.29784 -0.060928 0)
(0.297841 -0.0608539 0)
(0.297289 -0.0633516 0)
(0.297353 -0.0630934 0)
(0.297421 -0.0628574 0)
(0.297492 -0.0626421 0)
(0.297566 -0.0624463 0)
(0.297641 -0.0622686 0)
(0.297717 -0.0621075 0)
(0.297794 -0.0619614 0)
(0.29787 -0.0618288 0)
(0.297943 -0.0617078 0)
(0.298013 -0.061597 0)
(0.298075 -0.0614943 0)
(0.298131 -0.0613995 0)
(0.298171 -0.0613083 0)
(0.298205 -0.0612247 0)
(0.298209 -0.0611373 0)
(0.298217 -0.0610641 0)
(0.298157 -0.0609684 0)
(0.298148 -0.0609146 0)
(0.297976 -0.0607853 0)
(0.298176 -0.0634409 0)
(0.298238 -0.0631867 0)
(0.298304 -0.062955 0)
(0.298371 -0.0627437 0)
(0.298437 -0.062551 0)
(0.298501 -0.0623749 0)
(0.298561 -0.0622135 0)
(0.298615 -0.0620646 0)
(0.298661 -0.0619263 0)
(0.298694 -0.0617963 0)
(0.298714 -0.061673 0)
(0.298715 -0.0615535 0)
(0.298697 -0.0614378 0)
(0.298647 -0.0613203 0)
(0.298581 -0.061207 0)
(0.298456 -0.0610812 0)
(0.298343 -0.060971 0)
(0.298094 -0.0608186 0)
(0.297973 -0.0607296 0)
(0.297479 -0.0605064 0)
(0.299271 -0.063533 0)
(0.299321 -0.0632793 0)
(0.299367 -0.0630465 0)
(0.299407 -0.0628318 0)
(0.299436 -0.0626328 0)
(0.29945 -0.062447 0)
(0.299448 -0.0622718 0)
(0.299425 -0.0621048 0)
(0.299377 -0.0619434 0)
(0.2993 -0.0617851 0)
(0.299191 -0.0616279 0)
(0.299041 -0.0614686 0)
(0.298855 -0.0613072 0)
(0.298611 -0.0611371 0)
(0.298337 -0.0609663 0)
(0.297963 -0.0607728 0)
(0.297614 -0.0605959 0)
(0.297032 -0.060353 0)
(0.296703 -0.0602026 0)
(0.295675 -0.0598372 0)
(0.300556 -0.0635997 0)
(0.300543 -0.0633309 0)
(0.30051 -0.0630792 0)
(0.300452 -0.062841 0)
(0.300362 -0.0626134 0)
(0.300236 -0.0623933 0)
(0.300069 -0.0621778 0)
(0.299857 -0.0619639 0)
(0.299596 -0.061749 0)
(0.299278 -0.0615302 0)
(0.298903 -0.0613054 0)
(0.298459 -0.0610715 0)
(0.297952 -0.0608286 0)
(0.297357 -0.0605698 0)
(0.296714 -0.0603041 0)
(0.295925 -0.0600066 0)
(0.295177 -0.0597257 0)
(0.294081 -0.0593555 0)
(0.293408 -0.0591109 0)
(0.291596 -0.0585557 0)
(0.301785 -0.0635396 0)
(0.30159 -0.0632229 0)
(0.301346 -0.0629174 0)
(0.301046 -0.062619 0)
(0.300684 -0.0623241 0)
(0.300253 -0.0620296 0)
(0.299749 -0.0617323 0)
(0.299167 -0.0614291 0)
(0.298504 -0.0611175 0)
(0.297754 -0.0607948 0)
(0.296914 -0.0604591 0)
(0.295975 -0.0601078 0)
(0.294947 -0.059741 0)
(0.2938 -0.059353 0)
(0.292586 -0.0589523 0)
(0.291188 -0.0585149 0)
(0.289847 -0.058092 0)
(0.288048 -0.0575653 0)
(0.286871 -0.0571928 0)
(0.28404 -0.0564171 0)
(0.302282 -0.063132 0)
(0.301694 -0.0627158 0)
(0.301018 -0.0623044 0)
(0.300249 -0.0618935 0)
(0.299378 -0.0614793 0)
(0.298403 -0.0610586 0)
(0.29732 -0.0606285 0)
(0.296127 -0.0601863 0)
(0.29482 -0.0597298 0)
(0.293397 -0.059257 0)
(0.291858 -0.0587667 0)
(0.290198 -0.0582573 0)
(0.288426 -0.0577289 0)
(0.286518 -0.0571784 0)
(0.284531 -0.0566119 0)
(0.282344 -0.0560115 0)
(0.28023 -0.0554212 0)
(0.277587 -0.0547301 0)
(0.275755 -0.0542054 0)
(0.271767 -0.053216 0)
(0.30075 -0.0620102 0)
(0.299468 -0.0614319 0)
(0.298062 -0.0608548 0)
(0.296526 -0.0602743 0)
(0.294858 -0.0596869 0)
(0.293055 -0.0590897 0)
(0.29112 -0.0584803 0)
(0.289052 -0.0578567 0)
(0.286853 -0.0572173 0)
(0.284525 -0.0565615 0)
(0.282071 -0.0558886 0)
(0.279491 -0.0551988 0)
(0.276798 -0.0544922 0)
(0.273977 -0.0537688 0)
(0.271079 -0.0530315 0)
(0.268003 -0.0522722 0)
(0.26501 -0.0515181 0)
(0.2615 -0.0506886 0)
(0.25892 -0.0500112 0)
(0.253825 -0.0488693 0)
(0.295207 -0.0596868 0)
(0.292895 -0.0588931 0)
(0.290438 -0.0581032 0)
(0.287837 -0.0573127 0)
(0.285094 -0.0565181 0)
(0.282211 -0.0557171 0)
(0.279196 -0.0549079 0)
(0.276054 -0.0540891 0)
(0.272792 -0.0532602 0)
(0.269417 -0.0524216 0)
(0.265935 -0.0515737 0)
(0.262355 -0.050718 0)
(0.258689 -0.0498553 0)
(0.254935 -0.0489878 0)
(0.251134 -0.048116 0)
(0.247217 -0.0472408 0)
(0.243394 -0.0463703 0)
(0.23916 -0.0454669 0)
(0.235864 -0.0446747 0)
(0.229959 -0.0434974 0)
(0.283217 -0.0556607 0)
(0.279604 -0.054637 0)
(0.275866 -0.0536296 0)
(0.272009 -0.0526329 0)
(0.268039 -0.0516439 0)
(0.263965 -0.0506603 0)
(0.2598 -0.0496805 0)
(0.255554 -0.0487037 0)
(0.251238 -0.0477301 0)
(0.246863 -0.0467607 0)
(0.24244 -0.0457968 0)
(0.23798 -0.0448406 0)
(0.233497 -0.0438934 0)
(0.228996 -0.0429583 0)
(0.224504 -0.0420348 0)
(0.21999 -0.041128 0)
(0.215587 -0.0402329 0)
(0.210949 -0.0393494 0)
(0.207134 -0.0385242 0)
(0.200932 -0.0374588 0)
(0.262496 -0.049607 0)
(0.257524 -0.0484088 0)
(0.252502 -0.0472489 0)
(0.24744 -0.04612 0)
(0.242344 -0.0450183 0)
(0.237228 -0.0439411 0)
(0.232108 -0.0428861 0)
(0.226995 -0.041852 0)
(0.221901 -0.040839 0)
(0.216837 -0.0398479 0)
(0.211814 -0.03888 0)
(0.20684 -0.0379368 0)
(0.201927 -0.0370197 0)
(0.197081 -0.0361307 0)
(0.192314 -0.0352694 0)
(0.18762 -0.0344399 0)
(0.183057 -0.0336339 0)
(0.178447 -0.0328682 0)
(0.174459 -0.0321183 0)
(0.168552 -0.0312915 0)
(0.231875 -0.0416115 0)
(0.225828 -0.0403807 0)
(0.219868 -0.0392157 0)
(0.213994 -0.0381064 0)
(0.208209 -0.037047 0)
(0.202525 -0.0360321 0)
(0.196955 -0.035057 0)
(0.191504 -0.0341189 0)
(0.186179 -0.0332162 0)
(0.180983 -0.0323484 0)
(0.175917 -0.031515 0)
(0.170984 -0.0307163 0)
(0.166185 -0.0299523 0)
(0.16152 -0.0292235 0)
(0.156989 -0.0285294 0)
(0.152588 -0.0278717 0)
(0.148334 -0.0272455 0)
(0.144161 -0.0266654 0)
(0.140386 -0.0260837 0)
(0.135246 -0.0255488 0)
(0.192308 -0.0323419 0)
(0.185854 -0.0312922 0)
(0.179657 -0.030333 0)
(0.173693 -0.0294495 0)
(0.167951 -0.0286305 0)
(0.162435 -0.0278649 0)
(0.157141 -0.0271435 0)
(0.152062 -0.0264601 0)
(0.147187 -0.0258104 0)
(0.142505 -0.0251913 0)
(0.138004 -0.0246011 0)
(0.133674 -0.0240385 0)
(0.129504 -0.0235033 0)
(0.125486 -0.0229958 0)
(0.12161 -0.0225166 0)
(0.117871 -0.0220673 0)
(0.114266 -0.0216484 0)
(0.110787 -0.0212668 0)
(0.107511 -0.0208884 0)
(0.10335 -0.0206115 0)
(0.147316 -0.0230014 0)
(0.141357 -0.0223653 0)
(0.135813 -0.0218307 0)
(0.130617 -0.0213726 0)
(0.125739 -0.0209683 0)
(0.121158 -0.0205976 0)
(0.116847 -0.0202462 0)
(0.112775 -0.0199052 0)
(0.108912 -0.0195693 0)
(0.105232 -0.0192363 0)
(0.101713 -0.0189059 0)
(0.0983366 -0.0185797 0)
(0.0950862 -0.0182602 0)
(0.0919497 -0.0179511 0)
(0.0889178 -0.0176566 0)
(0.0859834 -0.0173817 0)
(0.0831443 -0.0171319 0)
(0.0804135 -0.0169107 0)
(0.0777394 -0.0167059 0)
(0.0745172 -0.016598 0)
(0.1022 -0.0149655 0)
(0.0975591 -0.014927 0)
(0.0934361 -0.0149713 0)
(0.0896997 -0.0150514 0)
(0.0862841 -0.0151277 0)
(0.0831382 -0.0151735 0)
(0.0802083 -0.0151757 0)
(0.0774462 -0.015131 0)
(0.0748137 -0.0150418 0)
(0.0722819 -0.0149141 0)
(0.0698296 -0.0147557 0)
(0.0674416 -0.0145755 0)
(0.0651075 -0.0143828 0)
(0.062821 -0.0141868 0)
(0.0605788 -0.0139967 0)
(0.0583797 -0.0138218 0)
(0.0562295 -0.0136709 0)
(0.0541445 -0.0135483 0)
(0.0520257 -0.0134519 0)
(0.0495519 -0.0134156 0)
(0.0621839 -0.00926507 0)
(0.059331 -0.00992176 0)
(0.0570064 -0.0105764 0)
(0.0549942 -0.011154 0)
(0.0531928 -0.0116096 0)
(0.0515274 -0.0119296 0)
(0.0499351 -0.0121217 0)
(0.0483721 -0.0122034 0)
(0.0468118 -0.0121957 0)
(0.0452398 -0.0121191 0)
(0.0436496 -0.0119931 0)
(0.04204 -0.0118349 0)
(0.0404132 -0.0116599 0)
(0.0387737 -0.0114819 0)
(0.0371269 -0.0113133 0)
(0.0354791 -0.0111658 0)
(0.0338431 -0.0110493 0)
(0.0322356 -0.0109694 0)
(0.0305552 -0.0109202 0)
(0.0286016 -0.0108772 0)
(0.0308162 -0.00623312 0)
(0.0297565 -0.00758938 0)
(0.0291137 -0.00873698 0)
(0.0285958 -0.00960329 0)
(0.028091 -0.0101866 0)
(0.0275309 -0.0105244 0)
(0.0268746 -0.0106683 0)
(0.0261069 -0.010668 0)
(0.0252295 -0.0105652 0)
(0.024252 -0.010394 0)
(0.0231876 -0.0101814 0)
(0.0220505 -0.00994876 0)
(0.020855 -0.00971319 0)
(0.0196142 -0.00948906 0)
(0.0183398 -0.00928873 0)
(0.017042 -0.00912279 0)
(0.0157351 -0.00899979 0)
(0.0144383 -0.00892606 0)
(0.0130847 -0.00889533 0)
(0.0114442 -0.00882033 0)
(0.00960836 -0.00538661 0)
(0.00986516 -0.00740723 0)
(0.0103328 -0.00882579 0)
(0.010681 -0.00967434 0)
(0.0108338 -0.0100845 0)
(0.0107682 -0.0101831 0)
(0.010488 -0.0100771 0)
(0.0100174 -0.00984362 0)
(0.0093865 -0.00953649 0)
(0.00862505 -0.00919327 0)
(0.00775978 -0.00884007 0)
(0.00681376 -0.00849538 0)
(0.00580633 -0.0081729 0)
(0.00475341 -0.00788345 0)
(0.00366753 -0.00763598 0)
(0.00255827 -0.00743797 0)
(0.0014349 -0.00729426 0)
(0.000309468 -0.0072057 0)
(-0.00081365 -0.00717367 0)
(-0.00227765 -0.00719574 0)
(-0.00128647 -0.00681323 0)
(-0.000814774 -0.00891494 0)
(-0.000156596 -0.0100064 0)
(0.000204901 -0.0103934 0)
(0.000253691 -0.0103388 0)
(3.4451e-05 -0.0100296 0)
(-0.000408816 -0.0095857 0)
(-0.00102409 -0.00908181 0)
(-0.0017687 -0.00856374 0)
(-0.00260887 -0.0080591 0)
(-0.00351767 -0.00758456 0)
(-0.00447419 -0.00715041 0)
(-0.00546256 -0.00676354 0)
(-0.00647109 -0.00642903 0)
(-0.0074919 -0.00615104 0)
(-0.00851902 -0.00593298 0)
(-0.00954317 -0.00577585 0)
(-0.0105627 -0.0056755 0)
(-0.0116549 -0.005639 0)
(-0.0129062 -0.00573329 0)
(-0.000896753 -0.00487051 0)
(-0.00208584 -0.00853689 0)
(-0.00293782 -0.00983546 0)
(-0.00373189 -0.0100592 0)
(-0.00456954 -0.0097662 0)
(-0.00547742 -0.00924008 0)
(-0.00645164 -0.00862314 0)
(-0.0074749 -0.00799073 0)
(-0.00852892 -0.00738251 0)
(-0.00959812 -0.00681824 0)
(-0.0106703 -0.00630724 0)
(-0.0117365 -0.00585369 0)
(-0.0127908 -0.00545947 0)
(-0.0138302 -0.00512556 0)
(-0.0148542 -0.0048526 0)
(-0.0158624 -0.00464087 0)
(-0.0168498 -0.00448893 0)
(-0.0178269 -0.00439288 0)
(-0.0188949 -0.00435695 0)
(-0.0200366 -0.00439531 0)
(-0.000539904 -0.00353584 0)
(-0.00192483 -0.00692305 0)
(-0.00365639 -0.00830074 0)
(-0.00533624 -0.00859238 0)
(-0.0069447 -0.00833048 0)
(-0.00849062 -0.00781635 0)
(-0.00997543 -0.0072103 0)
(-0.0113986 -0.00659509 0)
(-0.0127599 -0.00601159 0)
(-0.0140602 -0.00547829 0)
(-0.0153014 -0.0050024 0)
(-0.0164863 -0.00458584 0)
(-0.0176191 -0.00422847 0)
(-0.018705 -0.00392943 0)
(-0.0197504 -0.00368768 0)
(-0.0207606 -0.00350185 0)
(-0.0217352 -0.00336921 0)
(-0.0226935 -0.00328588 0)
(-0.0237411 -0.00325218 0)
(-0.0248188 -0.00326456 0)
(-0.00035936 -0.00228583 0)
(-0.00172996 -0.00485187 0)
(-0.00386025 -0.00602423 0)
(-0.00607658 -0.00633526 0)
(-0.00823382 -0.00617248 0)
(-0.0102768 -0.00578102 0)
(-0.0121815 -0.0053013 0)
(-0.0139444 -0.00480853 0)
(-0.015572 -0.00434022 0)
(-0.0170754 -0.00391328 0)
(-0.0184668 -0.00353413 0)
(-0.019759 -0.00320434 0)
(-0.0209644 -0.00292349 0)
(-0.0220956 -0.00269051 0)
(-0.023165 -0.00250402 0)
(-0.0241827 -0.00236223 0)
(-0.0251526 -0.00226219 0)
(-0.0261 -0.00220019 0)
(-0.0271308 -0.00217448 0)
(-0.0281633 -0.00217798 0)
(-0.000283232 -0.00121137 0)
(-0.00162202 -0.00268353 0)
(-0.00391059 -0.00340212 0)
(-0.00640189 -0.00361743 0)
(-0.00887856 -0.00353962 0)
(-0.0112328 -0.00331296 0)
(-0.0134124 -0.00302502 0)
(-0.0154037 -0.00272449 0)
(-0.0172133 -0.00243638 0)
(-0.0188563 -0.00217237 0)
(-0.0203512 -0.0019373 0)
(-0.0217168 -0.00173285 0)
(-0.0229716 -0.00155934 0)
(-0.024133 -0.00141656 0)
(-0.0252179 -0.00130391 0)
(-0.0262398 -0.00122018 0)
(-0.0272055 -0.00116318 0)
(-0.0281441 -0.00113 0)
(-0.0291604 -0.00111799 0)
(-0.0301618 -0.00112024 0)
(-0.000257174 -0.000209745 0)
(-0.00157341 -0.000490621 0)
(-0.00390112 -0.000634101 0)
(-0.00648645 -0.000677883 0)
(-0.00908501 -0.000660144 0)
(-0.0115648 -0.000609121 0)
(-0.0138586 -0.000542646 0)
(-0.0159458 -0.000470899 0)
(-0.0178314 -0.000399383 0)
(-0.0195316 -0.000331154 0)
(-0.0210672 -0.000268196 0)
(-0.0224597 -0.000212117 0)
(-0.0237302 -0.00016436 0)
(-0.0248987 -0.000126144 0)
(-0.025984 -9.82527e-05 0)
(-0.0270014 -8.07758e-05 0)
(-0.0279593 -7.29361e-05 0)
(-0.028888 -7.31192e-05 0)
(-0.029891 -7.84875e-05 0)
(-0.0308726 -8.32951e-05 0)
(-0.000259179 0.00077112 0)
(-0.0015603 0.00168885 0)
(-0.00384592 0.0021432 0)
(-0.00637823 0.00229016 0)
(-0.00892083 0.00225739 0)
(-0.011347 0.00213364 0)
(-0.0135922 0.00197394 0)
(-0.0156368 0.00180954 0)
(-0.0174851 0.0016564 0)
(-0.0191528 0.00152122 0)
(-0.0206599 0.00140544 0)
(-0.0220274 0.00130774 0)
(-0.0232759 0.00122557 0)
(-0.0244248 0.00115618 0)
(-0.025493 0.00109722 0)
(-0.0264952 0.00104709 0)
(-0.0274398 0.00100489 0)
(-0.0283564 0.000970738 0)
(-0.029347 0.00094733 0)
(-0.0303189 0.0009391 0)
(-0.000288382 0.00176193 0)
(-0.00157443 0.003813 0)
(-0.00372462 0.00480302 0)
(-0.00604968 0.00510459 0)
(-0.00835558 0.00501135 0)
(-0.010549 0.0047208 0)
(-0.0125844 0.00435213 0)
(-0.0144494 0.00397184 0)
(-0.0161493 0.00361383 0)
(-0.0176969 0.00329297 0)
(-0.0191083 0.00301362 0)
(-0.0204005 0.00277477 0)
(-0.0215905 0.00257312 0)
(-0.0226945 0.00240471 0)
(-0.0237287 0.00226592 0)
(-0.0247059 0.00215388 0)
(-0.0256326 0.00206622 0)
(-0.0265355 0.00200156 0)
(-0.027515 0.00196268 0)
(-0.0284874 0.00195311 0)
(-0.00035634 0.00281015 0)
(-0.00160687 0.00582154 0)
(-0.00346426 0.00718847 0)
(-0.00538279 0.00756088 0)
(-0.00725001 0.00738984 0)
(-0.00902808 0.00695701 0)
(-0.0106995 0.00642392 0)
(-0.0122601 0.00587795 0)
(-0.0137129 0.00536321 0)
(-0.0150644 0.00489928 0)
(-0.0163232 0.00449243 0)
(-0.0174986 0.00414223 0)
(-0.0186008 0.00384527 0)
(-0.0196404 0.00359726 0)
(-0.0206286 0.00339411 0)
(-0.0215748 0.00323238 0)
(-0.0224821 0.00310877 0)
(-0.0233721 0.00302069 0)
(-0.0243429 0.00297164 0)
(-0.0253283 0.00296604 0)
(-0.000459412 0.00397176 0)
(-0.00158609 0.00757186 0)
(-0.00284925 0.00905792 0)
(-0.00408628 0.00940615 0)
(-0.00529461 0.00916832 0)
(-0.00648859 0.00865691 0)
(-0.00766938 0.00804189 0)
(-0.00883131 0.00741341 0)
(-0.00996757 0.00681738 0)
(-0.0110725 0.00627517 0)
(-0.0121427 0.00579475 0)
(-0.0131769 0.00537719 0)
(-0.0141759 0.00502035 0)
(-0.0151427 0.00472094 0)
(-0.0160823 0.00447565 0)
(-0.0169988 0.00428152 0)
(-0.0178915 0.00413521 0)
(-0.0187743 0.00403331 0)
(-0.019741 0.00398096 0)
(-0.0207566 0.00398797 0)
(-0.000359872 0.0047547 0)
(-0.0010645 0.00853039 0)