x,y,z,p
0,0,0,0.000183488
0,0.1,0,0.000403734
0,0.2,0,0.00062398
0,0.3,0,0.00088104
0,0.4,0,0.00117492
0,0.5,0,0.00146879
0,0.6,0,0.00176311
0,0.7,0,0.00205742
0,0.8,0,0.00235204
0,0.9,0,0.00264696
0,1,0,0.00294188
0,1.1,0,0.0032375
0,1.2,0,0.00353311
0,1.3,0,0.00382908
0,1.4,0,0.0041254
0,1.5,0,0.00442171
0,1.6,0,0.00471864
0,1.7,0,0.00501556
0,1.8,0,0.00531266
0,1.9,0,0.00560995
0,2,0,0.00590724
0,2.1,0,0.00620448
0,2.2,0,0.00650173
0,2.3,0,0.00679865
0,2.4,0,0.00709524
0,2.5,0,0.00739184
0,2.6,0,0.00768695
0,2.7,0,0.00798206
0,2.8,0,0.00827587
0,2.9,0,0.00856838
0,3,0,0.00886089
0,3.1,0,0.00914938
0,3.2,0,0.00943788
0,3.3,0,0.00972348
0,3.4,0,0.0100062
0,3.5,0,0.0102889
0,3.6,0,0.0105638
0,3.7,0,0.0108386
0,3.8,0,0.0111083
0,3.9,0,0.0113728
0,4,0,0.0116373
0,4.1,0,0.0118886
0,4.2,0,0.0121398
0,4.3,0,0.0123829
0,4.4,0,0.0126177
0,4.5,0,0.0128526
0,4.6,0,0.0130676
0,4.7,0,0.0132826
0,4.8,0,0.0134686
0,4.9,0,0.0136256
0,5,0,0.0137826
0,5.1,0,0.014045
0,5.2,0,0.0142072
0,5.3,0,0.0143576
0,5.4,0,0.0144954
0,5.5,0,0.0146202
0,5.6,0,0.0147316
0,5.7,0,0.0148292
0,5.8,0,0.0149124
0,5.9,0,0.014981
0,6,0,0.0150347
0,6.1,0,0.0150731
0,6.2,0,0.0150961
0,6.3,0,0.0151035
0,6.4,0,0.0150953
0,6.5,0,0.0150714
0,6.6,0,0.0150317
0,6.7,0,0.0149766
0,6.8,0,0.014906
0,6.9,0,0.0148203
0,7,0,0.0146566
0,7.1,0,0.0145501
0,7.2,0,0.0144437
0,7.3,0,0.0143284
0,7.4,0,0.0141632
0,7.5,0,0.013998
0,7.6,0,0.0138229
0,7.7,0,0.0136247
0,7.8,0,0.0134264
0,7.9,0,0.0132156
0,8,0,0.0129895
0,8.1,0,0.0127634
0,8.2,0,0.0125237
0,8.3,0,0.012275
0,8.4,0,0.0120263
0,8.5,0,0.0117646
0,8.6,0,0.0114985
0,8.7,0,0.0112325
0,8.8,0,0.0109553
0,8.9,0,0.0106768
0,9,0,0.0103979
0,9.1,0,0.0101112
0,9.2,0,0.00982449
0,9.3,0,0.00953689
0,9.4,0,0.00924563
0,9.5,0,0.00895437
0,9.6,0,0.00866253
0,9.7,0,0.00836963
0,9.8,0,0.00807673
0,9.9,0,0.00778413
0,10,0,0.00749182
0,10.1,0,0.00719951
0,10.2,0,0.00690862
0,10.3,0,0.00661851
0,10.4,0,0.00632839
0,10.5,0,0.00604086
0,10.6,0,0.00575398
0,10.7,0,0.00546709
0,10.8,0,0.0051838
0,10.9,0,0.0049007
0,11,0,0.00461799
0,11.1,0,0.00433882
0,11.2,0,0.00405966
0,11.3,0,0.00378143
0,11.4,0,0.00350602
0,11.5,0,0.00323061
0,11.6,0,0.00295653
0,11.7,0,0.00268444
0,11.8,0,0.00241235
0,11.9,0,0.00214173
0,12,0,0.00187232
0,12.1,0,0.00160291
0,12.2,0,0.00133482
0,12.3,0,0.0010673
0,12.4,0,0.00079977
0,12.5,0,0.000589419
0,12.6,0,0.000389158
0,12.7,0,0.000188897
0.1,0,0,0.000110092
0.1,0.1,0,0.000330278
0.1,0.2,0,0.0005872
0.1,0.3,0,0.000880902
0.1,0.4,0,0.00117474
0.1,0.5,0,0.0014686
0.1,0.6,0,0.00176284
0.1,0.7,0,0.00205716
0.1,0.8,0,0.00235174
0.1,0.9,0,0.00264662
0.1,1,0,0.00294157
0.1,1.1,0,0.00323714
0.1,1.2,0,0.00353277
0.1,1.3,0,0.00382875
0.1,1.4,0,0.00412505
0.1,1.5,0,0.00442144
0.1,1.6,0,0.00471838
0.1,1.7,0,0.00501534
0.1,1.8,0,0.00531252
0.1,1.9,0,0.00560985
0.1,2,0,0.00590723
0.1,2.1,0,0.00620463
0.1,2.2,0,0.00650192
0.1,2.3,0,0.00679902
0.1,2.4,0,0.00709574
0.1,2.5,0,0.00739244
0.1,2.6,0,0.00768794
0.1,2.7,0,0.00798309
0.1,2.8,0,0.00827721
0.1,2.9,0,0.00856999
0.1,3,0,0.00886256
0.1,3.1,0,0.00915179
0.1,3.2,0,0.00944028
0.1,3.3,0,0.00972638
0.1,3.4,0,0.0100096
0.1,3.5,0,0.0102922
0.1,3.6,0,0.0105683
0.1,3.7,0,0.010843
0.1,3.8,0,0.0111134
0.1,3.9,0,0.0113787
0.1,4,0,0.0116429
0.1,4.1,0,0.0118959
0.1,4.2,0,0.012147
0.1,4.3,0,0.0123909
0.1,4.4,0,0.0126268
0.1,4.5,0,0.012861
0.1,4.6,0,0.0130784
0.1,4.7,0,0.013293
0.1,4.8,0,0.0134972
0.1,4.9,0,0.0136728
0.1,5,0,0.0137934
0.1,5.1,0,0.0140564
0.1,5.2,0,0.014219
0.1,5.3,0,0.0143698
0.1,5.4,0,0.0145081
0.1,5.5,0,0.0146334
0.1,5.6,0,0.0147452
0.1,5.7,0,0.0148432
0.1,5.8,0,0.0149267
0.1,5.9,0,0.0149956
0.1,6,0,0.0150496
0.1,6.1,0,0.0150882
0.1,6.2,0,0.0151113
0.1,6.3,0,0.0151188
0.1,6.4,0,0.0151106
0.1,6.5,0,0.0150867
0.1,6.6,0,0.015047
0.1,6.7,0,0.0149917
0.1,6.8,0,0.014921
0.1,6.9,0,0.0148352
0.1,7,0,0.0146713
0.1,7.1,0,0.0145929
0.1,7.2,0,0.0144821
0.1,7.3,0,0.0143432
0.1,7.4,0,0.0141835
0.1,7.5,0,0.0140152
0.1,7.6,0,0.0138366
0.1,7.7,0,0.0136421
0.1,7.8,0,0.0134402
0.1,7.9,0,0.0132276
0.1,8,0,0.0130039
0.1,8.1,0,0.0127738
0.1,8.2,0,0.0125336
0.1,8.3,0,0.0122863
0.1,8.4,0,0.0120338
0.1,8.5,0,0.0117723
0.1,8.6,0,0.0115068
0.1,8.7,0,0.0112374
0.1,8.8,0,0.0109608
0.1,8.9,0,0.0106821
0.1,9,0,0.0104009
0.1,9.1,0,0.0101147
0.1,9.2,0,0.00982747
0.1,9.3,0,0.00953854
0.1,9.4,0,0.0092473
0.1,9.5,0,0.00895556
0.1,9.6,0,0.00866298
0.1,9.7,0,0.00836984
0.1,9.8,0,0.00807666
0.1,9.9,0,0.00778358
0.1,10,0,0.00749094
0.1,10.1,0,0.00719863
0.1,10.2,0,0.00690732
0.1,10.3,0,0.00661689
0.1,10.4,0,0.00632707
0.1,10.5,0,0.00603904
0.1,10.6,0,0.00575196
0.1,10.7,0,0.0054656
0.1,10.8,0,0.00518168
0.1,10.9,0,0.0048986
0.1,11,0,0.00461641
0.1,11.1,0,0.00433661
0.1,11.2,0,0.00405769
0.1,11.3,0,0.00377986
0.1,11.4,0,0.00350397
0.1,11.5,0,0.00322893
0.1,11.6,0,0.0029551
0.1,11.7,0,0.00268271
0.1,11.8,0,0.00241105
0.1,11.9,0,0.00214057
0.1,12,0,0.001871
0.1,12.1,0,0.00160204
0.1,12.2,0,0.00133404
0.1,12.3,0,0.00106647
0.1,12.4,0,0.000799334
0.1,12.5,0,0.000532766
0.1,12.6,0,0.000313341
0.1,12.7,0,0.000113338
0.2,0,0,3.66975e-05
0.2,0.1,0,0.000293559
0.2,0.2,0,0.000587097
0.2,0.3,0,0.000880799
0.2,0.4,0,0.00117458
0.2,0.5,0,0.0014684
0.2,0.6,0,0.00176265
0.2,0.7,0,0.00205689
0.2,0.8,0,0.00235148
0.2,0.9,0,0.00264635
0.2,1,0,0.00294127
0.2,1.1,0,0.00323685
0.2,1.2,0,0.00353246
0.2,1.3,0,0.00382844
0.2,1.4,0,0.00412479
0.2,1.5,0,0.00442116
0.2,1.6,0,0.00471814
0.2,1.7,0,0.00501516
0.2,1.8,0,0.00531235
0.2,1.9,0,0.0056098
0.2,2,0,0.00590722
0.2,2.1,0,0.00620467
0.2,2.2,0,0.00650217
0.2,2.3,0,0.00679927
0.2,2.4,0,0.00709622
0.2,2.5,0,0.00739304
0.2,2.6,0,0.00768858
0.2,2.7,0,0.00798415
0.2,2.8,0,0.00827828
0.2,2.9,0,0.00857139
0.2,3,0,0.00886422
0.2,3.1,0,0.00915346
0.2,3.2,0,0.00944269
0.2,3.3,0,0.00972878
0.2,3.4,0,0.0100124
0.2,3.5,0,0.0102955
0.2,3.6,0,0.0105715
0.2,3.7,0,0.0108474
0.2,3.8,0,0.0111178
0.2,3.9,0,0.0113835
0.2,4,0,0.0116484
0.2,4.1,0,0.0119013
0.2,4.2,0,0.0121539
0.2,4.3,0,0.0123978
0.2,4.4,0,0.0126341
0.2,4.5,0,0.0128694
0.2,4.6,0,0.0130863
0.2,4.7,0,0.0133028
0.2,4.8,0,0.013507
0.2,4.9,0,0.0136649
0.2,5,0,0.0138042
0.2,5.1,0,0.0140677
0.2,5.2,0,0.0142309
0.2,5.3,0,0.0143821
0.2,5.4,0,0.0145208
0.2,5.5,0,0.0146466
0.2,5.6,0,0.0147588
0.2,5.7,0,0.0148571
0.2,5.8,0,0.014941
0.2,5.9,0,0.0150102
0.2,6,0,0.0150644
0.2,6.1,0,0.0151033
0.2,6.2,0,0.0151265
0.2,6.3,0,0.0151341
0.2,6.4,0,0.0151259
0.2,6.5,0,0.015102
0.2,6.6,0,0.0150623
0.2,6.7,0,0.0150069
0.2,6.8,0,0.014936
0.2,6.9,0,0.01485
0.2,7,0,0.014686
0.2,7.1,0,0.0145953
0.2,7.2,0,0.0144882
0.2,7.3,0,0.0143572
0.2,7.4,0,0.0141935
0.2,7.5,0,0.0140269
0.2,7.6,0,0.013849
0.2,7.7,0,0.0136507
0.2,7.8,0,0.0134507
0.2,7.9,0,0.013238
0.2,8,0,0.0130108
0.2,8.1,0,0.0127822
0.2,8.2,0,0.0125419
0.2,8.3,0,0.0122915
0.2,8.4,0,0.0120402
0.2,8.5,0,0.0117781
0.2,8.6,0,0.0115105
0.2,8.7,0,0.0112421
0.2,8.8,0,0.0109646
0.2,8.9,0,0.0106847
0.2,9,0,0.0104039
0.2,9.1,0,0.0101169
0.2,9.2,0,0.009829
0.2,9.3,0,0.00954018
0.2,9.4,0,0.00924832
0.2,9.5,0,0.0089561
0.2,9.6,0,0.00866352
0.2,9.7,0,0.00836999
0.2,9.8,0,0.00807637
0.2,9.9,0,0.00778329
0.2,10,0,0.00749046
0.2,10.1,0,0.00719775
0.2,10.2,0,0.00690647
0.2,10.3,0,0.00661602
0.2,10.4,0,0.0063258
0.2,10.5,0,0.0060379
0.2,10.6,0,0.00575084
0.2,10.7,0,0.00546414
0.2,10.8,0,0.00518046
0.2,10.9,0,0.00489732
0.2,11,0,0.0046149
0.2,11.1,0,0.00433547
0.2,11.2,0,0.00405637
0.2,11.3,0,0.00377842
0.2,11.4,0,0.00350294
0.2,11.5,0,0.00322769
0.2,11.6,0,0.00295384
0.2,11.7,0,0.00268186
0.2,11.8,0,0.00241003
0.2,11.9,0,0.00213955
0.2,12,0,0.0018704
0.2,12.1,0,0.00160132
0.2,12.2,0,0.00133337
0.2,12.3,0,0.00106614
0.2,12.4,0,0.000798957
0.2,12.5,0,0.000532461
0.2,12.6,0,0.000266251
0.2,12.7,0,3.77795e-05
0.3,0,0,0
0.3,0.1,0,0.00029345
0.3,0.2,0,0.000586987
0.3,0.3,0,0.000880495
0.3,0.4,0,0.00117428
0.3,0.5,0,0.001468
0.3,0.6,0,0.00176218
0.3,0.7,0,0.00205643
0.3,0.8,0,0.00235089
0.3,0.9,0,0.00264577
0.3,1,0,0.00294062
0.3,1.1,0,0.00323621
0.3,1.2,0,0.00353182
0.3,1.3,0,0.00382782
0.3,1.4,0,0.00412418
0.3,1.5,0,0.00442058
0.3,1.6,0,0.00471766
0.3,1.7,0,0.00501468
0.3,1.8,0,0.00531212
0.3,1.9,0,0.00560958
0.3,2,0,0.00590718
0.3,2.1,0,0.00620486
0.3,2.2,0,0.00650236
0.3,2.3,0,0.00680006
0.3,2.4,0,0.00709701
0.3,2.5,0,0.00739424
0.3,2.6,0,0.00769018
0.3,2.7,0,0.00798576
0.3,2.8,0,0.00828094
0.3,2.9,0,0.00857405
0.3,3,0,0.00886763
0.3,3.1,0,0.00915746
0.3,3.2,0,0.00944669
0.3,3.3,0,0.00973442
0.3,3.4,0,0.010018
0.3,3.5,0,0.0103024
0.3,3.6,0,0.0105791
0.3,3.7,0,0.010855
0.3,3.8,0,0.0111276
0.3,3.9,0,0.0113933
0.3,4,0,0.01166
0.3,4.1,0,0.0119137
0.3,4.2,0,0.0121663
0.3,4.3,0,0.0124131
0.3,4.4,0,0.0126494
0.3,4.5,0,0.0128868
0.3,4.6,0,0.0131046
0.3,4.7,0,0.0133211
0.3,4.8,0,0.0135282
0.3,4.9,0,0.0136861
0.3,5,0,0.0138272
0.3,5.1,0,0.0140925
0.3,5.2,0,0.0142567
0.3,5.3,0,0.0144091
0.3,5.4,0,0.0145489
0.3,5.5,0,0.0146757
0.3,5.6,0,0.0147889
0.3,5.7,0,0.0148881
0.3,5.8,0,0.0149728
0.3,5.9,0,0.0150427
0.3,6,0,0.0150974
0.3,6.1,0,0.0151367
0.3,6.2,0,0.0151603
0.3,6.3,0,0.0151681
0.3,6.4,0,0.0151599
0.3,6.5,0,0.0151359
0.3,6.6,0,0.015096
0.3,6.7,0,0.0150403
0.3,6.8,0,0.0149689
0.3,6.9,0,0.0148824
0.3,7,0,0.0147174
0.3,7.1,0,0.0146247
0.3,7.2,0,0.0145177
0.3,7.3,0,0.0143858
0.3,7.4,0,0.0142201
0.3,7.5,0,0.0140534
0.3,7.6,0,0.0138732
0.3,7.7,0,0.0136736
0.3,7.8,0,0.0134735
0.3,7.9,0,0.0132575
0.3,8,0,0.0130296
0.3,8.1,0,0.0128007
0.3,8.2,0,0.0125567
0.3,8.3,0,0.0123062
0.3,8.4,0,0.0120542
0.3,8.5,0,0.0117891
0.3,8.6,0,0.0115215
0.3,8.7,0,0.0112518
0.3,8.8,0,0.0109721
0.3,8.9,0,0.0106922
0.3,9,0,0.0104099
0.3,9.1,0,0.0101214
0.3,9.2,0,0.00983352
0.3,9.3,0,0.00954306
0.3,9.4,0,0.00925038
0.3,9.5,0,0.00895816
0.3,9.6,0,0.00866402
0.3,9.7,0,0.00837012
0.3,9.8,0,0.00807641
0.3,9.9,0,0.00778209
0.3,10,0,0.00748918
0.3,10.1,0,0.00719623
0.3,10.2,0,0.00690422
0.3,10.3,0,0.00661377
0.3,10.4,0,0.00632329
0.3,10.5,0,0.00603509
0.3,10.6,0,0.00574803
0.3,10.7,0,0.00546109
0.3,10.8,0,0.00517742
0.3,10.9,0,0.00489428
0.3,11,0,0.00461177
0.3,11.1,0,0.00433247
0.3,11.2,0,0.00405337
0.3,11.3,0,0.00377554
0.3,11.4,0,0.0035002
0.3,11.5,0,0.00322495
0.3,11.6,0,0.00295143
0.3,11.7,0,0.00267955
0.3,11.8,0,0.00240776
0.3,11.9,0,0.00213779
0.3,12,0,0.00186864
0.3,12.1,0,0.00159969
0.3,12.2,0,0.00133226
0.3,12.3,0,0.00106503
0.3,12.4,0,0.000798087
0.3,12.5,0,0.000532066
0.3,12.6,0,0.000265856
0.3,12.7,0,0
0.4,0,0,0
0.4,0.1,0,0.000293362
0.4,0.2,0,0.000586656
0.4,0.3,0,0.000880163
0.4,0.4,0,0.00117373
0.4,0.5,0,0.00146738
0.4,0.6,0,0.0017615
0.4,0.7,0,0.00205558
0.4,0.8,0,0.00235005
0.4,0.9,0,0.00264481
0.4,1,0,0.00293963
0.4,1.1,0,0.0032352
0.4,1.2,0,0.0035308
0.4,1.3,0,0.0038268
0.4,1.4,0,0.00412323
0.4,1.5,0,0.00441967
0.4,1.6,0,0.00471682
0.4,1.7,0,0.00501408
0.4,1.8,0,0.00531152
0.4,1.9,0,0.00560935
0.4,2,0,0.0059071
0.4,2.1,0,0.00620496
0.4,2.2,0,0.00650306
0.4,2.3,0,0.00680076
0.4,2.4,0,0.00709853
0.4,2.5,0,0.00739605
0.4,2.6,0,0.00769235
0.4,2.7,0,0.00798903
0.4,2.8,0,0.00828422
0.4,2.9,0,0.00857873
0.4,3,0,0.00887278
0.4,3.1,0,0.00916319
0.4,3.2,0,0.00945418
0.4,3.3,0,0.0097419
0.4,3.4,0,0.0100277
0.4,3.5,0,0.0103127
0.4,3.6,0,0.0105903
0.4,3.7,0,0.0108686
0.4,3.8,0,0.0111412
0.4,3.9,0,0.0114099
0.4,4,0,0.0116774
0.4,4.1,0,0.0119323
0.4,4.2,0,0.0121881
0.4,4.3,0,0.0124348
0.4,4.4,0,0.0126747
0.4,4.5,0,0.0129132
0.4,4.6,0,0.0131323
0.4,4.7,0,0.0133524
0.4,4.8,0,0.0135595
0.4,4.9,0,0.0137382
0.4,5,0,0.0138625
0.4,5.1,0,0.0141305
0.4,5.2,0,0.0142967
0.4,5.3,0,0.0144508
0.4,5.4,0,0.0145924
0.4,5.5,0,0.0147208
0.4,5.6,0,0.0148355
0.4,5.7,0,0.014936
0.4,5.8,0,0.015022
0.4,5.9,0,0.0150929
0.4,6,0,0.0151485
0.4,6.1,0,0.0151885
0.4,6.2,0,0.0152126
0.4,6.3,0,0.0152207
0.4,6.4,0,0.0152126
0.4,6.5,0,0.0151884
0.4,6.6,0,0.0151481
0.4,6.7,0,0.0150918
0.4,6.8,0,0.0150198
0.4,6.9,0,0.0149322
0.4,7,0,0.0147654
0.4,7.1,0,0.0146837
0.4,7.2,0,0.0145701
0.4,7.3,0,0.0144303
0.4,7.4,0,0.0142658
0.4,7.5,0,0.0140934
0.4,7.6,0,0.0139122
0.4,7.7,0,0.0137124
0.4,7.8,0,0.0135064
0.4,7.9,0,0.0132903
0.4,8,0,0.0130609
0.4,8.1,0,0.0128271
0.4,8.2,0,0.0125831
0.4,8.3,0,0.01233
0.4,8.4,0,0.0120743
0.4,8.5,0,0.0118091
0.4,8.6,0,0.0115381
0.4,8.7,0,0.0112662
0.4,8.8,0,0.0109861
0.4,8.9,0,0.0107028
0.4,9,0,0.0104192
0.4,9.1,0,0.0101301
0.4,9.2,0,0.00983913
0.4,9.3,0,0.00954808
0.4,9.4,0,0.0092545
0.4,9.5,0,0.00895989
0.4,9.6,0,0.00866561
0.4,9.7,0,0.00837054
0.4,9.8,0,0.00807539
0.4,9.9,0,0.00778107
0.4,10,0,0.00748695
0.4,10.1,0,0.00719336
0.4,10.2,0,0.00690127
0.4,10.3,0,0.00660982
0.4,10.4,0,0.00631923
0.4,10.5,0,0.00603085
0.4,10.6,0,0.00574324
0.4,10.7,0,0.00545642
0.4,10.8,0,0.00517252
0.4,10.9,0,0.00488931
0.4,11,0,0.00460697
0.4,11.1,0,0.00432744
0.4,11.2,0,0.0040487
0.4,11.3,0,0.00377098
0.4,11.4,0,0.00349556
0.4,11.5,0,0.00322092
0.4,11.6,0,0.00294743
0.4,11.7,0,0.00267568
0.4,11.8,0,0.00240455
0.4,11.9,0,0.00213457
0.4,12,0,0.00186582
0.4,12.1,0,0.00159743
0.4,12.2,0,0.00133003
0.4,12.3,0,0.00106345
0.4,12.4,0,0.000796898
0.4,12.5,0,0.000530994
0.4,12.6,0,0.000265588
0.4,12.7,0,0
0.5,0,0,0
0.5,0.1,0,0.000293206
0.5,0.2,0,0.000586412
0.5,0.3,0,0.000879764
0.5,0.4,0,0.00117326
0.5,0.5,0,0.00146676
0.5,0.6,0,0.00176078
0.5,0.7,0,0.0020548
0.5,0.8,0,0.00234917
0.5,0.9,0,0.00264391
0.5,1,0,0.00293864
0.5,1.1,0,0.00323422
0.5,1.2,0,0.0035298
0.5,1.3,0,0.00382582
0.5,1.4,0,0.0041223
0.5,1.5,0,0.00441877
0.5,1.6,0,0.00471609
0.5,1.7,0,0.00501341
0.5,1.8,0,0.00531106
0.5,1.9,0,0.00560904
0.5,2,0,0.00590701
0.5,2.1,0,0.0062053
0.5,2.2,0,0.00650359
0.5,2.3,0,0.00680176
0.5,2.4,0,0.00709981
0.5,2.5,0,0.00739786
0.5,2.6,0,0.00769491
0.5,2.7,0,0.00799195
0.5,2.8,0,0.00828796
0.5,2.9,0,0.00858295
0.5,3,0,0.00887793
0.5,3.1,0,0.0091695
0.5,3.2,0,0.00946107
0.5,3.3,0,0.00975008
0.5,3.4,0,0.0100365
0.5,3.5,0,0.010323
0.5,3.6,0,0.0106022
0.5,3.7,0,0.0108814
0.5,3.8,0,0.0111558
0.5,3.9,0,0.0114253
0.5,4,0,0.0116949
0.5,4.1,0,0.0119518
0.5,4.2,0,0.0122087
0.5,4.3,0,0.0124577
0.5,4.4,0,0.0126987
0.5,4.5,0,0.0129397
0.5,4.6,0,0.0131611
0.5,4.7,0,0.0133824
0.5,4.8,0,0.0135741
0.5,4.9,0,0.0137359
0.5,5,0,0.0138978
0.5,5.1,0,0.0141686
0.5,5.2,0,0.0143366
0.5,5.3,0,0.0144926
0.5,5.4,0,0.0146358
0.5,5.5,0,0.0147658
0.5,5.6,0,0.014882
0.5,5.7,0,0.014984
0.5,5.8,0,0.0150711
0.5,5.9,0,0.0151431
0.5,6,0,0.0151996
0.5,6.1,0,0.0152403
0.5,6.2,0,0.0152649
0.5,6.3,0,0.0152733
0.5,6.4,0,0.0152653
0.5,6.5,0,0.0152409
0.5,6.6,0,0.0152003
0.5,6.7,0,0.0151434
0.5,6.8,0,0.0150706
0.5,6.9,0,0.014982
0.5,7,0,0.0148134
0.5,7.1,0,0.0147033
0.5,7.2,0,0.0145931
0.5,7.3,0,0.0144738
0.5,7.4,0,0.0143023
0.5,7.5,0,0.0141309
0.5,7.6,0,0.0139493
0.5,7.7,0,0.0137439
0.5,7.8,0,0.0135386
0.5,7.9,0,0.0133205
0.5,8,0,0.013087
0.5,8.1,0,0.0128534
0.5,8.2,0,0.0126064
0.5,8.3,0,0.0123505
0.5,8.4,0,0.0120946
0.5,8.5,0,0.0118261
0.5,8.6,0,0.0115534
0.5,8.7,0,0.0112807
0.5,8.8,0,0.0109975
0.5,8.9,0,0.0107131
0.5,9,0,0.0104284
0.5,9.1,0,0.0101367
0.5,9.2,0,0.0098451
0.5,9.3,0,0.00955274
0.5,9.4,0,0.00925752
0.5,9.5,0,0.00896229
0.5,9.6,0,0.00866681
0.5,9.7,0,0.00837089
0.5,9.8,0,0.00807497
0.5,9.9,0,0.00777978
0.5,10,0,0.00748532
0.5,10.1,0,0.00719086
0.5,10.2,0,0.00689833
0.5,10.3,0,0.00660684
0.5,10.4,0,0.00631535
0.5,10.5,0,0.00602698
0.5,10.6,0,0.00573938
0.5,10.7,0,0.00545178
0.5,10.8,0,0.00516831
0.5,10.9,0,0.00488505
0.5,11,0,0.00460222
0.5,11.1,0,0.00432334
0.5,11.2,0,0.00404446
0.5,11.3,0,0.00376661
0.5,11.4,0,0.00349184
0.5,11.5,0,0.00321707
0.5,11.6,0,0.00294373
0.5,11.7,0,0.00267254
0.5,11.8,0,0.00240136
0.5,11.9,0,0.00213175
0.5,12,0,0.00186344
0.5,12.1,0,0.00159513
0.5,12.2,0,0.00132824
0.5,12.3,0,0.00106195
0.5,12.4,0,0.000795668
0.5,12.5,0,0.000530334
0.5,12.6,0,0.000265167
0.5,12.7,0,0
0.6,0,0,0
0.6,0.1,0,0.000292878
0.6,0.2,0,0.00058595
0.6,0.3,0,0.000879027
0.6,0.4,0,0.00117238
0.6,0.5,0,0.00146564
0.6,0.6,0,0.00175943
0.6,0.7,0,0.00205336
0.6,0.8,0,0.00234756
0.6,0.9,0,0.00264221
0.6,1,0,0.00293683
0.6,1.1,0,0.00323234
0.6,1.2,0,0.00352792
0.6,1.3,0,0.00382396
0.6,1.4,0,0.00412046
0.6,1.5,0,0.00441706
0.6,1.6,0,0.00471458
0.6,1.7,0,0.00501204
0.6,1.8,0,0.00531003
0.6,1.9,0,0.00560819
0.6,2,0,0.00590667
0.6,2.1,0,0.00620555
0.6,2.2,0,0.0065042
0.6,2.3,0,0.00680317
0.6,2.4,0,0.00710164
0.6,2.5,0,0.00740073
0.6,2.6,0,0.00769892
0.6,2.7,0,0.00799665
0.6,2.8,0,0.00829408
0.6,2.9,0,0.00858982
0.6,3,0,0.00888654
0.6,3.1,0,0.00917999
0.6,3.2,0,0.00947263
0.6,3.3,0,0.00976387
0.6,3.4,0,0.0100515
0.6,3.5,0,0.0103405
0.6,3.6,0,0.0106225
0.6,3.7,0,0.0109033
0.6,3.8,0,0.0111807
0.6,3.9,0,0.0114519
0.6,4,0,0.0117249
0.6,4.1,0,0.0119855
0.6,4.2,0,0.0122444
0.6,4.3,0,0.0124973
0.6,4.4,0,0.0127403
0.6,4.5,0,0.0129855
0.6,4.6,0,0.0132113
0.6,4.7,0,0.0134349
0.6,4.8,0,0.013649
0.6,4.9,0,0.0138312
0.6,5,0,0.0139596
0.6,5.1,0,0.0142358
0.6,5.2,0,0.0144072
0.6,5.3,0,0.0145665
0.6,5.4,0,0.0147129
0.6,5.5,0,0.0148458
0.6,5.6,0,0.0149648
0.6,5.7,0,0.0150693
0.6,5.8,0,0.0151587
0.6,5.9,0,0.0152327
0.6,6,0,0.0152908
0.6,6.1,0,0.0153327
0.6,6.2,0,0.0153583
0.6,6.3,0,0.0153671
0.6,6.4,0,0.0153593
0.6,6.5,0,0.0153347
0.6,6.6,0,0.0152934
0.6,6.7,0,0.0152354
0.6,6.8,0,0.0151611
0.6,6.9,0,0.0150707
0.6,7,0,0.0148984
0.6,7.1,0,0.0148133
0.6,7.2,0,0.0146977
0.6,7.3,0,0.0145521
0.6,7.4,0,0.0143807
0.6,7.5,0,0.0142054
0.6,7.6,0,0.0140173
0.6,7.7,0,0.0138109
0.6,7.8,0,0.0136005
0.6,7.9,0,0.0133768
0.6,8,0,0.0131418
0.6,8.1,0,0.0129024
0.6,8.2,0,0.0126506
0.6,8.3,0,0.0123932
0.6,8.4,0,0.0121311
0.6,8.5,0,0.0118586
0.6,8.6,0,0.0115845
0.6,8.7,0,0.0113059
0.6,8.8,0,0.0110193
0.6,8.9,0,0.0107333
0.6,9,0,0.0104439
0.6,9.1,0,0.0101493
0.6,9.2,0,0.0098562
0.6,9.3,0,0.00956042
0.6,9.4,0,0.00926276
0.6,9.5,0,0.00896624
0.6,9.6,0,0.00866828
0.6,9.7,0,0.0083706
0.6,9.8,0,0.00807358
0.6,9.9,0,0.00777662
0.6,10,0,0.00748099
0.6,10.1,0,0.00718578
0.6,10.2,0,0.00689199
0.6,10.3,0,0.0065998
0.6,10.4,0,0.00630801
0.6,10.5,0,0.00601873
0.6,10.6,0,0.0057308
0.6,10.7,0,0.00544337
0.6,10.8,0,0.00515925
0.6,10.9,0,0.00487598
0.6,11,0,0.0045936
0.6,11.1,0,0.00431436
0.6,11.2,0,0.00403577
0.6,11.3,0,0.0037585
0.6,11.4,0,0.00348367
0.6,11.5,0,0.00320941
0.6,11.6,0,0.00293672
0.6,11.7,0,0.00266568
0.6,11.8,0,0.00239521
0.6,11.9,0,0.0021263
0.6,12,0,0.00185823
0.6,12.1,0,0.00159082
0.6,12.2,0,0.00132467
0.6,12.3,0,0.00105866
0.6,12.4,0,0.00079342
0.6,12.5,0,0.000528887
0.6,12.6,0,0.000264091
0.6,12.7,0,0
0.7,0,0,0
0.7,0.1,0,0.000292744
0.7,0.2,0,0.000585354
0.7,0.3,0,0.00087843
0.7,0.4,0,0.00117141
0.7,0.5,0,0.00146453
0.7,0.6,0,0.00175822
0.7,0.7,0,0.00205182
0.7,0.8,0,0.00234602
0.7,0.9,0,0.00264048
0.7,1,0,0.00293502
0.7,1.1,0,0.00323053
0.7,1.2,0,0.00352603
0.7,1.3,0,0.00382208
0.7,1.4,0,0.00411872
0.7,1.5,0,0.00441535
0.7,1.6,0,0.00471301
0.7,1.7,0,0.00501082
0.7,1.8,0,0.0053088
0.7,1.9,0,0.00560765
0.7,2,0,0.00590632
0.7,2.1,0,0.00620557
0.7,2.2,0,0.00650519
0.7,2.3,0,0.00680415
0.7,2.4,0,0.00710408
0.7,2.5,0,0.00740359
0.7,2.6,0,0.00770247
0.7,2.7,0,0.00800202
0.7,2.8,0,0.00829946
0.7,2.9,0,0.00859767
0.7,3,0,0.00889514
0.7,3.1,0,0.00918966
0.7,3.2,0,0.00948526
0.7,3.3,0,0.0097765
0.7,3.4,0,0.0100679
0.7,3.5,0,0.0103581
0.7,3.6,0,0.0106416
0.7,3.7,0,0.0109266
0.7,3.8,0,0.0112041
0.7,3.9,0,0.0114803
0.7,4,0,0.011755
0.7,4.1,0,0.0120175
0.7,4.2,0,0.012282
0.7,4.3,0,0.0125349
0.7,4.4,0,0.0127842
0.7,4.5,0,0.0130314
0.7,4.6,0,0.0132594
0.7,4.7,0,0.0134895
0.7,4.8,0,0.0137036
0.7,4.9,0,0.0138727
0.7,5,0,0.0140215
0.7,5.1,0,0.014303
0.7,5.2,0,0.0144779
0.7,5.3,0,0.0146404
0.7,5.4,0,0.01479
0.7,5.5,0,0.0149259
0.7,5.6,0,0.0150476
0.7,5.7,0,0.0151546
0.7,5.8,0,0.0152463
0.7,5.9,0,0.0153222
0.7,6,0,0.0153819
0.7,6.1,0,0.0154252
0.7,6.2,0,0.0154516
0.7,6.3,0,0.0154611
0.7,6.4,0,0.0154533
0.7,6.5,0,0.0154285
0.7,6.6,0,0.0153865
0.7,6.7,0,0.0153275
0.7,6.8,0,0.0152517
0.7,6.9,0,0.0151594
0.7,7,0,0.0149834
0.7,7.1,0,0.014885
0.7,7.2,0,0.0147689
0.7,7.3,0,0.0146303
0.7,7.4,0,0.0144539
0.7,7.5,0,0.0142737
0.7,7.6,0,0.0140856
0.7,7.7,0,0.0138728
0.7,7.8,0,0.0136578
0.7,7.9,0,0.0134341
0.7,8,0,0.0131914
0.7,8.1,0,0.0129482
0.7,8.2,0,0.0126962
0.7,8.3,0,0.0124306
0.7,8.4,0,0.0121658
0.7,8.5,0,0.0118923
0.7,8.6,0,0.0116107
0.7,8.7,0,0.0113304
0.7,8.8,0,0.0110423
0.7,8.9,0,0.0107501
0.7,9,0,0.0104595
0.7,9.1,0,0.0101632
0.7,9.2,0,0.00986506
0.7,9.3,0,0.00956861
0.7,9.4,0,0.00926914
0.7,9.5,0,0.0089687
0.7,9.6,0,0.00867053
0.7,9.7,0,0.00837104
0.7,9.8,0,0.00807133
0.7,9.9,0,0.00777437
0.7,10,0,0.0074772
0.7,10.1,0,0.00718037
0.7,10.2,0,0.00688655
0.7,10.3,0,0.00659331
0.7,10.4,0,0.0063006
0.7,10.5,0,0.00601136
0.7,10.6,0,0.00572289
0.7,10.7,0,0.00543495
0.7,10.8,0,0.00515104
0.7,10.9,0,0.00486762
0.7,11,0,0.00458501
0.7,11.1,0,0.00430619
0.7,11.2,0,0.00402774
0.7,11.3,0,0.0037504
0.7,11.4,0,0.00347621
0.7,11.5,0,0.00320233
0.7,11.6,0,0.00292963
0.7,11.7,0,0.0026595
0.7,11.8,0,0.00238953
0.7,11.9,0,0.00212062
0.7,12,0,0.00185377
0.7,12.1,0,0.00158683
0.7,12.2,0,0.00132082
0.7,12.3,0,0.0010562
0.7,12.4,0,0.000791331
0.7,12.5,0,0.0005271
0.7,12.6,0,0.000263765
0.7,12.7,0,0
0.8,0,0,0
0.8,0.1,0,0.000292356
0.8,0.2,0,0.000584966
0.8,0.3,0,0.000877346
0.8,0.4,0,0.00117032
0.8,0.5,0,0.00146312
0.8,0.6,0,0.00175654
0.8,0.7,0,0.00205014
0.8,0.8,0,0.00234389
0.8,0.9,0,0.00263835
0.8,1,0,0.00293272
0.8,1.1,0,0.00322815
0.8,1.2,0,0.00352366
0.8,1.3,0,0.00381973
0.8,1.4,0,0.00411638
0.8,1.5,0,0.00441309
0.8,1.6,0,0.00471103
0.8,1.7,0,0.00500883
0.8,1.8,0,0.0053076
0.8,1.9,0,0.00560645
0.8,2,0,0.00590562
0.8,2.1,0,0.00620566
0.8,2.2,0,0.00650528
0.8,2.3,0,0.00680615
0.8,2.4,0,0.00710608
0.8,2.5,0,0.00740669
0.8,2.6,0,0.00770708
0.8,2.7,0,0.00800663
0.8,2.8,0,0.00830751
0.8,2.9,0,0.00860573
0.8,3,0,0.00890512
0.8,3.1,0,0.00920209
0.8,3.2,0,0.00949769
0.8,3.3,0,0.0097943
0.8,3.4,0,0.0100857
0.8,3.5,0,0.0103788
0.8,3.6,0,0.0106659
0.8,3.7,0,0.0109509
0.8,3.8,0,0.0112361
0.8,3.9,0,0.0115123
0.8,4,0,0.011791
0.8,4.1,0,0.0120582
0.8,4.2,0,0.0123226
0.8,4.3,0,0.0125853
0.8,4.4,0,0.0128345
0.8,4.5,0,0.0130868
0.8,4.6,0,0.0133202
0.8,4.7,0,0.0135503
0.8,4.8,0,0.0137753
0.8,4.9,0,0.0139444
0.8,5,0,0.0140965
0.8,5.1,0,0.0143845
0.8,5.2,0,0.0145636
0.8,5.3,0,0.0147302
0.8,5.4,0,0.0148837
0.8,5.5,0,0.0150233
0.8,5.6,0,0.0151486
0.8,5.7,0,0.0152587
0.8,5.8,0,0.0153532
0.8,5.9,0,0.0154316
0.8,6,0,0.0154934
0.8,6.1,0,0.0155382
0.8,6.2,0,0.0155659
0.8,6.3,0,0.015576
0.8,6.4,0,0.0155684
0.8,6.5,0,0.0155433
0.8,6.6,0,0.0155005
0.8,6.7,0,0.0154401
0.8,6.8,0,0.0153625
0.8,6.9,0,0.015268
0.8,7,0,0.0150875
0.8,7.1,0,0.014986
0.8,7.2,0,0.01487
0.8,7.3,0,0.0147245
0.8,7.4,0,0.0145437
0.8,7.5,0,0.0143636
0.8,7.6,0,0.0141655
0.8,7.7,0,0.0139495
0.8,7.8,0,0.0137342
0.8,7.9,0,0.0134981
0.8,8,0,0.013254
0.8,8.1,0,0.0130087
0.8,8.2,0,0.0127448
0.8,8.3,0,0.0124792
0.8,8.4,0,0.0122106
0.8,8.5,0,0.0119277
0.8,8.6,0,0.0116461
0.8,8.7,0,0.0113607
0.8,8.8,0,0.011066
0.8,8.9,0,0.0107738
0.8,9,0,0.0104774
0.8,9.1,0,0.010177
0.8,9.2,0,0.00987878
0.8,9.3,0,0.00957657
0.8,9.4,0,0.0092747
0.8,9.5,0,0.00897426
0.8,9.6,0,0.00867088
0.8,9.7,0,0.00837031
0.8,9.8,0,0.00807028
0.8,9.9,0,0.0077693
0.8,10,0,0.00747189
0.8,10.1,0,0.00717437
0.8,10.2,0,0.0068782
0.8,10.3,0,0.00658496
0.8,10.4,0,0.00629153
0.8,10.5,0,0.00600128
0.8,10.6,0,0.0057128
0.8,10.7,0,0.00542442
0.8,10.8,0,0.00514032
0.8,10.9,0,0.00485691
0.8,11,0,0.00457434
0.8,11.1,0,0.00429575
0.8,11.2,0,0.0040173
0.8,11.3,0,0.0037406
0.8,11.4,0,0.00346675
0.8,11.5,0,0.00319286
0.8,11.6,0,0.00292145
0.8,11.7,0,0.00265157
0.8,11.8,0,0.00238179
0.8,11.9,0,0.00211459
0.8,12,0,0.00184777
0.8,12.1,0,0.00158134
0.8,12.2,0,0.00131705
0.8,12.3,0,0.00105243
0.8,12.4,0,0.000788445
0.8,12.5,0,0.000525764
0.8,12.6,0,0.00026243
0.8,12.7,0,0
0.9,0,0,0
0.9,0.1,0,0.000292102
0.9,0.2,0,0.000584065
0.9,0.3,0,0.000876445
0.9,0.4,0,0.00116881
0.9,0.5,0,0.00146142
0.9,0.6,0,0.00175466
0.9,0.7,0,0.00204779
0.9,0.8,0,0.00234154
0.9,0.9,0,0.00263565
0.9,1,0,0.00292991
0.9,1.1,0,0.00322529
0.9,1.2,0,0.00352067
0.9,1.3,0,0.00381674
0.9,1.4,0,0.0041135
0.9,1.5,0,0.00441028
0.9,1.6,0,0.00470834
0.9,1.7,0,0.00500664
0.9,1.8,0,0.00530541
0.9,1.9,0,0.00560509
0.9,2,0,0.00590458
0.9,2.1,0,0.00620504
0.9,2.2,0,0.00650605
0.9,2.3,0,0.00680691
0.9,2.4,0,0.00710874
0.9,2.5,0,0.00741004
0.9,2.6,0,0.00771125
0.9,2.7,0,0.00801346
0.9,2.8,0,0.00831434
0.9,2.9,0,0.0086159
0.9,3,0,0.00891647
0.9,3.1,0,0.00921481
0.9,3.2,0,0.00951472
0.9,3.3,0,0.00981134
0.9,3.4,0,0.0101078
0.9,3.5,0,0.0104028
0.9,3.6,0,0.0106919
0.9,3.7,0,0.0109832
0.9,3.8,0,0.0112683
0.9,3.9,0,0.0115518
0.9,4,0,0.0118329
0.9,4.1,0,0.0121028
0.9,4.2,0,0.0123755
0.9,4.3,0,0.0126381
0.9,4.4,0,0.0128964
0.9,4.5,0,0.0131517
0.9,4.6,0,0.0133883
0.9,4.7,0,0.0136279
0.9,4.8,0,0.0138529
0.9,4.9,0,0.0140495
0.9,5,0,0.0141846
0.9,5.1,0,0.0144804
0.9,5.2,0,0.0146644
0.9,5.3,0,0.0148359
0.9,5.4,0,0.0149941
0.9,5.5,0,0.0151382
0.9,5.6,0,0.0152676
0.9,5.7,0,0.0153815
0.9,5.8,0,0.0154795
0.9,5.9,0,0.0155608
0.9,6,0,0.0156251
0.9,6.1,0,0.0156719
0.9,6.2,0,0.015701
0.9,6.3,0,0.0157119
0.9,6.4,0,0.0157046
0.9,6.5,0,0.0156791
0.9,6.6,0,0.0156353
0.9,6.7,0,0.0155735
0.9,6.8,0,0.0154937
0.9,6.9,0,0.0153965
0.9,7,0,0.0152106
0.9,7.1,0,0.0151202
0.9,7.2,0,0.0149929
0.9,7.3,0,0.0148379
0.9,7.4,0,0.0146561
0.9,7.5,0,0.0144636
0.9,7.6,0,0.014264
0.9,7.7,0,0.0140438
0.9,7.8,0,0.0138162
0.9,7.9,0,0.0135801
0.9,8,0,0.0133289
0.9,8.1,0,0.0130737
0.9,8.2,0,0.0128097
0.9,8.3,0,0.0125348
0.9,8.4,0,0.0122593
0.9,8.5,0,0.0119755
0.9,8.6,0,0.0116842
0.9,8.7,0,0.0113946
0.9,8.8,0,0.0110983
0.9,8.9,0,0.0107972
0.9,9,0,0.0104984
0.9,9.1,0,0.0101958
0.9,9.2,0,0.00989024
0.9,9.3,0,0.00958689
0.9,9.4,0,0.00928238
0.9,9.5,0,0.00897642
0.9,9.6,0,0.00867276
0.9,9.7,0,0.00836922
0.9,9.8,0,0.00806586
0.9,9.9,0,0.00776488
0.9,10,0,0.00746466
0.9,10.1,0,0.00716557
0.9,10.2,0,0.00686925
0.9,10.3,0,0.00657389
0.9,10.4,0,0.00628005
0.9,10.5,0,0.0059895
0.9,10.6,0,0.00569997
0.9,10.7,0,0.00541167
0.9,10.8,0,0.00512729
0.9,10.9,0,0.00484383
0.9,11,0,0.00456149
0.9,11.1,0,0.00428274
0.9,11.2,0,0.00400509
0.9,11.3,0,0.00372857
0.9,11.4,0,0.00345493
0.9,11.5,0,0.00318235
0.9,11.6,0,0.00291098
0.9,11.7,0,0.00264184
0.9,11.8,0,0.00237343
0.9,11.9,0,0.00210623
0.9,12,0,0.00184073
0.9,12.1,0,0.00157549
0.9,12.2,0,0.00131132
0.9,12.3,0,0.0010485
0.9,12.4,0,0.000785394
0.9,12.5,0,0.000523019
0.9,12.6,0,0.000261748
0.9,12.7,0,0
1,0,0,0
1,0.1,0,0.000291709
1,0.2,0,0.000583417
1,0.3,0,0.000875362
1,0.4,0,0.00116754
1,0.5,0,0.00145973
1,0.6,0,0.00175267
1,0.7,0,0.00204562
1,0.8,0,0.0023391
1,0.9,0,0.0026331
1,1,0,0.00292711
1,1.1,0,0.00322243
1,1.2,0,0.00351775
1,1.3,0,0.00381383
1,1.4,0,0.00411065
1,1.5,0,0.00440747
1,1.6,0,0.00470589
1,1.7,0,0.00500432
1,1.8,0,0.00530353
1,1.9,0,0.00560354
1,2,0,0.00590354
1,2.1,0,0.00620497
1,2.2,0,0.0065064
1,2.3,0,0.00680837
1,2.4,0,0.00711088
1,2.5,0,0.00741339
1,2.6,0,0.00771643
1,2.7,0,0.00801946
1,2.8,0,0.00832235
1,2.9,0,0.00862508
1,3,0,0.00892781
1,3.1,0,0.0092291
1,3.2,0,0.00953038
1,3.3,0,0.00983017
1,3.4,0,0.0101285
1,3.5,0,0.0104268
1,3.6,0,0.0107201
1,3.7,0,0.0110134
1,3.8,0,0.011303
1,3.9,0,0.0115889
1,4,0,0.0118748
1,4.1,0,0.0121502
1,4.2,0,0.0124256
1,4.3,0,0.012694
1,4.4,0,0.0129552
1,4.5,0,0.0132165
1,4.6,0,0.0134594
1,4.7,0,0.0137023
1,4.8,0,0.0139135
1,4.9,0,0.0140931
1,5,0,0.0142727
1,5.1,0,0.0145762
1,5.2,0,0.0147653
1,5.3,0,0.0149416
1,5.4,0,0.0151045
1,5.5,0,0.0152531
1,5.6,0,0.0153866
1,5.7,0,0.0155044
1,5.8,0,0.0156057
1,5.9,0,0.01569
1,6,0,0.0157568
1,6.1,0,0.0158056
1,6.2,0,0.0158361
1,6.3,0,0.0158479
1,6.4,0,0.0158408
1,6.5,0,0.0158149
1,6.6,0,0.0157702
1,6.7,0,0.0157068
1,6.8,0,0.0156249
1,6.9,0,0.015525
1,7,0,0.0153338
1,7.1,0,0.0152091
1,7.2,0,0.0150845
1,7.3,0,0.0149495
1,7.4,0,0.0147564
1,7.5,0,0.0145632
1,7.6,0,0.0143592
1,7.7,0,0.0141296
1,7.8,0,0.0139
1,7.9,0,0.0136574
1,8,0,0.013399
1,8.1,0,0.0131405
1,8.2,0,0.0128692
1,8.3,0,0.0125893
1,8.4,0,0.0123093
1,8.5,0,0.0120184
1,8.6,0,0.0117237
1,8.7,0,0.011429
1,8.8,0,0.0111264
1,8.9,0,0.0108229
1,9,0,0.0105192
1,9.1,0,0.0102117
1,9.2,0,0.00990411
1,9.3,0,0.0095965
1,9.4,0,0.00928865
1,9.5,0,0.0089808
1,9.6,0,0.00867381
1,9.7,0,0.00836842
1,9.8,0,0.00806302
1,9.9,0,0.00775979
1,10,0,0.00745873
1,10.1,0,0.00715766
1,10.2,0,0.00686015
1,10.3,0,0.00656454
1,10.4,0,0.00626894
1,10.5,0,0.00597815
1,10.6,0,0.00568857
1,10.7,0,0.00539898
1,10.8,0,0.00511517
1,10.9,0,0.00483166
1,11,0,0.00454874
1,11.1,0,0.00427101
1,11.2,0,0.00399329
1,11.3,0,0.00371687
1,11.4,0,0.00344435
1,11.5,0,0.00317183
1,11.6,0,0.00290107
1,11.7,0,0.00263297
1,11.8,0,0.00236487
1,11.9,0,0.00209868
1,12,0,0.00183405
1,12.1,0,0.00156943
1,12.2,0,0.00130653
1,12.3,0,0.00104436
1,12.4,0,0.0007822
1,12.5,0,0.000521316
1,12.6,0,0.000260658
1,12.7,0,0
1.1,0,0,0
1.1,0.1,0,0.000290983
1.1,0.2,0,0.000582421
1.1,0.3,0,0.00087379
1.1,0.4,0,0.00116567
1.1,0.5,0,0.00145733
1.1,0.6,0,0.00174976
1.1,0.7,0,0.00204248
1.1,0.8,0,0.00233555
1.1,0.9,0,0.00262936
1.1,1,0,0.00292305
1.1,1.1,0,0.00321815
1.1,1.2,0,0.0035134
1.1,1.3,0,0.0038094
1.1,1.4,0,0.00410622
1.1,1.5,0,0.00440312
1.1,1.6,0,0.00470182
1.1,1.7,0,0.00500042
1.1,1.8,0,0.00530012
1.1,1.9,0,0.00560044
1.1,2,0,0.00590114
1.1,2.1,0,0.0062036
1.1,2.2,0,0.00650559
1.1,2.3,0,0.00680887
1.1,2.4,0,0.00711215
1.1,2.5,0,0.00741626
1.1,2.6,0,0.00772141
1.1,2.7,0,0.00802554
1.1,2.8,0,0.00833092
1.1,2.9,0,0.00863505
1.1,3,0,0.00894063
1.1,3.1,0,0.0092455
1.1,3.2,0,0.00954858
1.1,3.3,0,0.00985241
1.1,3.4,0,0.010153
1.1,3.5,0,0.0104557
1.1,3.6,0,0.0107544
1.1,3.7,0,0.0110504
1.1,3.8,0,0.0113458
1.1,3.9,0,0.0116349
1.1,4,0,0.011927
1.1,4.1,0,0.0122098
1.1,4.2,0,0.0124887
1.1,4.3,0,0.0127647
1.1,4.4,0,0.0130302
1.1,4.5,0,0.0132991
1.1,4.6,0,0.0135511
1.1,4.7,0,0.013798
1.1,4.8,0,0.0140381
1.1,4.9,0,0.0142426
1.1,5,0,0.0143865
1.1,5.1,0,0.0147006
1.1,5.2,0,0.0148966
1.1,5.3,0,0.0150797
1.1,5.4,0,0.0152491
1.1,5.5,0,0.0154039
1.1,5.6,0,0.0155432
1.1,5.7,0,0.0156663
1.1,5.8,0,0.0157725
1.1,5.9,0,0.0158611
1.1,6,0,0.0159314
1.1,6.1,0,0.0159831
1.1,6.2,0,0.0160156
1.1,6.3,0,0.0160286
1.1,6.4,0,0.016022
1.1,6.5,0,0.0159956
1.1,6.6,0,0.0159496
1.1,6.7,0,0.015884
1.1,6.8,0,0.0157992
1.1,6.9,0,0.0156955
1.1,7,0,0.015497
1.1,7.1,0,0.0153997
1.1,7.2,0,0.0152674
1.1,7.3,0,0.0150987
1.1,7.4,0,0.0149025
1.1,7.5,0,0.0147028
1.1,7.6,0,0.0144866
1.1,7.7,0,0.0142526
1.1,7.8,0,0.0140144
1.1,7.9,0,0.0137607
1.1,8,0,0.0134977
1.1,8.1,0,0.0132292
1.1,8.2,0,0.012948
1.1,8.3,0,0.0126641
1.1,8.4,0,0.0123735
1.1,8.5,0,0.0120741
1.1,8.6,0,0.0117762
1.1,8.7,0,0.0114715