/*--------------------------------*- C++ -*----------------------------------*\
| =========                 |                                                 |
| \\      /  F ield         | OpenFOAM: The Open Source CFD Toolbox           |
|  \\    /   O peration     | Version:  v1806                                 |
|   \\  /    A nd           | Web:      www.OpenFOAM.com                      |
|    \\/     M anipulation  |                                                 |
\*---------------------------------------------------------------------------*/
FoamFile
{
    version     2.0;
    format      ascii;
    class       surfaceScalarField;
    location    "250";
    object      phi;
}
// * * * * * * * * * * * * * * * * * * * * * * * * * * * * * * * * * * * * * //

dimensions      [0 3 -1 0 0 0 0];
oriented        oriented;


internalField   nonuniform List<scalar> 
4680
(
0.0749986
-0.000182576
0.0749958
-0.00154428
0.0749872
-0.00174422
0.0749771
-0.00346544
0.0749557
-0.00355384
0.0749351
-0.0058602
0.0748936
-0.00586362
0.0748586
-0.00902939
0.0747856
-0.00898869
0.074732
-0.0133389
0.07461
-0.0133293
0.0745346
-0.0191699
0.0743421
-0.0193295
0.0742472
-0.0267568
0.0739725
-0.0273382
0.0738748
-0.0357621
0.0735675
-0.0371541
0.0735055
-0.0445997
0.0733521
-0.0470212
-0.050461
0.0733888
0.0749982
-0.000180751
0.0749907
-0.00153677
0.0749767
-0.00173025
0.0749583
-0.00344707
0.0749269
-0.00352242
0.0748949
-0.00582825
0.0748359
-0.00580459
0.0747874
-0.00898089
0.0746841
-0.00888537
0.074618
-0.0132729
0.0744441
-0.0131553
0.0743672
-0.019093
0.074088
-0.0190503
0.0740272
-0.0266959
0.0736201
-0.0269311
0.0736363
-0.0357784
0.0731737
-0.0366914
0.0733338
-0.0447599
0.0731295
-0.0468169
-0.0507016
0.0733701
0.0749981
-0.000178854
0.0749844
-0.0015231
0.0749642
-0.00170996
0.0749342
-0.00341709
0.0748896
-0.00347788
0.0748411
-0.00577967
0.074759
-0.00572251
0.0746898
-0.00891169
0.074548
-0.00874355
0.0744605
-0.0131855
0.0742244
-0.0129192
0.0741351
-0.0190036
0.0737614
-0.0186766
0.0737202
-0.0266547
0.0731849
-0.0263959
0.0732971
-0.0358906
0.0727005
-0.0360947
0.0730744
-0.0451339
0.072838
-0.0465804
-0.0511756
0.073312
0.0749983
-0.000177155
0.074978
-0.00150283
0.0749517
-0.0016836
0.0749086
-0.00337402
0.0748509
-0.00342015
0.0747826
-0.00571138
0.0746774
-0.00561736
0.0745822
-0.00881649
0.0744028
-0.0085641
0.0742854
-0.0130681
0.0739907
-0.0126245
0.0738758
-0.0188887
0.0734163
-0.0182172
0.0733756
-0.026614
0.0727277
-0.025748
0.0729129
-0.0360757
0.0721963
-0.0353782
0.0727762
-0.0457137
0.0724997
-0.046304
-0.0519175
0.0732416
0.0749988
-0.00017592
0.0749715
-0.00147557
0.0749398
-0.00165186
0.0748826
-0.00331686
0.0748128
-0.00335034
0.0747226
-0.00562119
0.0745964
-0.00549112
0.074471
-0.00869115
0.0742576
-0.00835065
0.0741033
-0.0129138
0.0737562
-0.0122774
0.0736046
-0.0187372
0.0730688
-0.0176814
0.0730128
-0.0265579
0.0722628
-0.024998
0.0725024
-0.0363153
0.071669
-0.0345448
0.0724515
-0.0464962
0.072114
-0.0459664
-0.0529739
0.0731705
0.0749995
-0.000175392
0.0749648
-0.00144092
0.0749286
-0.00161559
0.0748564
-0.00324475
0.0747762
-0.00327012
0.0746621
-0.00550708
0.0745179
-0.00534693
0.0743584
-0.00853161
0.0741163
-0.00810853
0.0739178
-0.0127154
0.0735264
-0.0118859
0.0733268
-0.0185376
0.0727246
-0.0170792
0.0726376
-0.026471
0.0717933
-0.0241537
0.0720704
-0.0365924
0.0711178
-0.0335921
0.0721003
-0.0474788
0.0716761
-0.0455422
-0.0544033
0.0731055
0.0750004
-0.000175744
0.074958
-0.00139859
0.074918
-0.00157559
0.0748302
-0.00315696
0.0747414
-0.00318126
0.0746014
-0.00536716
0.0744429
-0.00518839
0.0742449
-0.00833356
0.0739806
-0.00784427
0.0737297
-0.0124645
0.0733041
-0.0114603
0.0730428
-0.0182764
0.0723866
-0.016423
0.0722507
-0.0263351
0.0713197
-0.0232227
0.0716179
-0.0368906
0.0705381
-0.0325124
0.0717194
-0.0486601
0.071182
-0.0450048
-0.0562714
0.0730501
0.0750013
-0.000177004
0.0749512
-0.0013485
0.074908
-0.00153246
0.0748041
-0.00305304
0.0747081
-0.00308529
0.0745409
-0.00519994
0.0743715
-0.00501893
0.0741308
-0.00809289
0.0738515
-0.00756501
0.0735389
-0.0121518
0.0730912
-0.0110126
0.0727514
-0.0179366
0.0720572
-0.0157289
0.0718485
-0.0261263
0.0708429
-0.0222171
0.0711429
-0.0371907
0.0699235
-0.031293
0.0713079
-0.0500444
0.0706279
-0.0443248
-0.0586439
0.0730004
0.075002
-0.000178983
0.0749444
-0.00129089
0.0748983
-0.00148641
0.0747784
-0.00293315
0.0746763
-0.00298315
0.0744812
-0.00500482
0.0743033
-0.00484109
0.0740171
-0.0078067
0.0737293
-0.00727712
0.0733455
-0.0117681
0.0728891
-0.0105561
0.0724501
-0.0174975
0.0717398
-0.0150186
0.0714241
-0.0258106
0.0703666
-0.0211597
0.070638
-0.0374621
0.0692677
-0.0299226
0.0708718
-0.0516485
0.0700021
-0.0434552
-0.0615836
0.0729419
0.0750022
-0.000181226
0.0749378
-0.00122645
0.0748886
-0.00143717
0.0747536
-0.00279819
0.0746453
-0.00287486
0.0744231
-0.00478257
0.0742378
-0.00465587
0.0739055
-0.00747432
0.0736126
-0.00698423
0.0731513
-0.0113069
0.0726987
-0.0101035
0.072137
-0.0169358
0.0714372
-0.0143188
0.0709673
-0.0253407
0.069898
-0.0200904
0.0700846
-0.0376486
0.068571
-0.0284091
0.0704207
-0.0534983
0.0692711
-0.0423055
-0.0651732
0.0728606
0.0750018
-0.00018303
0.0749317
-0.0011563
0.0748784
-0.00138392
0.0747302
-0.00264994
0.0746147
-0.00275939
0.0743677
-0.00453561
0.074174
-0.00446214
0.0737979
-0.00709824
0.0734998
-0.00668612
0.0729607
-0.0107678
0.0725171
-0.00965994
0.0718145
-0.0162332
0.0711519
-0.0136562
0.0704678
-0.0246566
0.0694458
-0.0190685
0.0694485
-0.0376513
0.0678491
-0.0268096
0.0699503
-0.0555995
0.0683703
-0.0407255
-0.0695891
0.0727862
0.0750005
-0.000183531
0.0749261
-0.00108189
0.0748676
-0.00132543
0.0747086
-0.00249091
0.0745839
-0.00263476
0.0743163
-0.00426799
0.0741108
-0.00425666
0.0736971
-0.00668446
0.0733888
-0.00637787
0.0727787
-0.0101577
0.072339
-0.00922015
0.0714957
-0.0153899
0.0708831
-0.0130436
0.069918
-0.0236916
0.0690155
-0.0181659
0.0686849
-0.0373207
0.0671352
-0.0252599
0.0694035
-0.0578678
0.0672269
-0.0385489
-0.0752315
0.0728693
0.0749983
-0.000181859
0.0749212
-0.00100475
0.0748561
-0.00126035
0.0746891
-0.00232395
0.0745529
-0.00249849
0.0742697
-0.0039848
0.0740477
-0.00403471
0.0736051
-0.00624182
0.0732778
-0.00605053
0.0726111
-0.00949101
0.0721595
-0.00876857
0.0711931
-0.0144236
0.0706112
-0.0124616
0.069354
-0.0224344
0.0686084
-0.0174203
0.0677533
-0.0364655
0.0664653
-0.0239719
0.0686326
-0.0600351
0.0658331
-0.0357494
-0.0828297
0.0734314
0.0749955
-0.000177335
0.0749169
-0.000926216
0.0748442
-0.00118757
0.0746719
-0.00215171
0.0745218
-0.00234835
0.0742281
-0.00369111
0.0739849
-0.00379146
0.0735232
-0.00578017
0.073166
-0.00569333
0.0724617
-0.00878674
0.071975
-0.00828187
0.0709199
-0.0133685
0.0703233
-0.011865
0.068819
-0.0209301
0.0682092
-0.0168104
0.0666218
-0.0348781
0.0658484
-0.0231985
0.067405
-0.0615918
0.0643481
-0.0326925
-0.0933342
0.0748526
0.0749923
-0.000169657
0.0749132
-0.000847107
0.0748323
-0.00110668
0.0746566
-0.00197604
0.0744915
-0.0021832
0.0741912
-0.00339083
0.0739234
-0.00352362
0.073451
-0.00530784
0.073055
-0.00529724
0.0723317
-0.00806347
0.0717858
-0.00773594
0.0706841
-0.0122668
0.0700118
-0.0111927
0.0683457
-0.019264
0.0677335
-0.0161982
0.0654915
-0.0326362
0.0652417
-0.0229487
0.0655091
-0.0618592
0.0631249
-0.0303082
-0.107394
0.0771843
0.0749893
-0.000158999
0.0749098
-0.000767541
0.0748213
-0.00101818
0.0746428
-0.00179755
0.0744631
-0.00200356
0.0741579
-0.00308563
0.0738653
-0.00323099
0.0733867
-0.00482923
0.0729482
-0.00485869
0.0722179
-0.00733325
0.0715971
-0.00711508
0.0704836
-0.0111533
0.0696794
-0.0103886
0.0679522
-0.0175368
0.0671637
-0.0154097
0.0645058
-0.0299783
0.064603
-0.0230458
0.062917
-0.0601733
0.0625372
-0.0299283
-0.124455
0.0795984
0.074987
-0.000145991
0.0749064
-0.000686955
0.0748118
-0.000923542
0.0746298
-0.00161554
0.074438
-0.00181182
0.0741271
-0.00277468
0.0738132
-0.00291708
0.0733276
-0.00434367
0.0728507
-0.00438175
0.0721149
-0.00659752
0.0714194
-0.00641952
0.0703075
-0.0100414
0.0693451
-0.00942617
0.0676263
-0.0158181
0.0665082
-0.0142916
0.0637199
-0.02719
0.063539
-0.022865
0.0597198
-0.0563541
0.0626222
-0.0328307
-0.141909
0.0800766
0.0749855
-0.000131529
0.074903
-0.000604375
0.0748043
-0.000824845
0.0746172
-0.00142846
0.0744171
-0.00161172
0.0740977
-0.00245527
0.073769
-0.00258839
0.0732714
-0.00384613
0.0727672
-0.00387753
0.072017
-0.00584729
0.0712646
-0.00566713
0.0701407
-0.00891751
0.0690395
-0.00832496
0.0673296
-0.0141082
0.0658286
-0.0127906
0.0630862
-0.0244476
0.0620072
-0.0217859
0.0572747
-0.0516216
0.0627159
-0.0382719
-0.154884
0.0756904
0.074985
-0.000116508
0.0748994
-0.000518801
0.0747989
-0.000724383
0.0746049
-0.00123444
0.0744007
-0.00140753
0.0740693
-0.00212388
0.0737338
-0.00225283
0.0732171
-0.00332948
0.0727006
-0.00336105
0.0719208
-0.00506742
0.0711412
-0.00488757
0.0699723
-0.00774859
0.0687918
-0.00714449
0.0670205
-0.0123368
0.0652288
-0.0109989
0.0624539
-0.0216727
0.0602057
-0.0195377
0.0553945
-0.0468104
0.0612216
-0.044099
-0.15705
0.0633877
0.0749844
-0.000100932
0.0748971
-0.000431436
0.0747944
-0.000621749
0.0745945
-0.0010345
0.0743869
-0.00119999
0.0740444
-0.00178134
0.0737048
-0.0019132
0.073168
-0.00279272
0.0726473
-0.00284031
0.0718308
-0.00425095
0.0710457
-0.00410246
0.0698063
-0.00650923
0.0686064
-0.00594453
0.0666884
-0.0104189
0.0647769
-0.00908734
0.0616903
-0.0185862
0.0585702
-0.0164176
0.0531403
-0.0413805
0.0532505
-0.0442092
0.0400932
-0.143893
0.0734887
-0.0346577
0.0736251
-0.0346865
0.0737845
-0.0341903
0.0739522
-0.0334621
0.0741174
-0.0325932
0.0742734
-0.0316209
0.0744164
-0.0306094
0.0745451
-0.0296288
0.0746589
-0.0287159
-0.0278875
0.0747626
0.0736035
-0.0348912
0.0738219
-0.0349049
0.0740331
-0.0344016
0.0742375
-0.0336665
0.0744202
-0.0327759
0.0745747
-0.0317753
0.0747033
-0.030738
0.0748117
-0.0297372
0.0749043
-0.0288085
-0.0279696
0.0749863
0.0736906
-0.0352698
0.0740058
-0.0352201
0.0742848
-0.0346805
0.0745366
-0.0339183
0.0747442
-0.0329834
0.0749028
-0.0319339
0.0750222
-0.0308574
0.0751151
-0.0298301
0.0751901
-0.0288835
-0.0280352
0.0752557
0.0737706
-0.0357988
0.0741875
-0.035637
0.0745411
-0.0350341
0.0748428
-0.03422
0.0750746
-0.0332152
0.0752373
-0.0320967
0.0753498
-0.0309698
0.0754311
-0.0299114
0.0754938
-0.0289462
-0.0280904
0.075549
0.0738562
-0.0364845
0.0743773
-0.0361581
0.0748098
-0.0354666
0.0751617
-0.0345719
0.0754162
-0.0334697
0.0755843
-0.0322648
0.0756947
-0.0310802
0.075771
-0.0299878
0.0758278
-0.0290029
-0.0281383
0.0758757
0.0739542
-0.0373332
0.0745812
-0.0367852
0.0750961
-0.0359814
0.0754991
-0.0349749
0.0757791
-0.0337497
0.07596
-0.0324457
0.0760783
-0.0311985
0.0761578
-0.0300673
0.0762106
-0.0290557
-0.0281709
0.0762431
0.0740636
-0.0383467
0.0748009
-0.0375224
0.0754062
-0.0365867
0.0758692
-0.035438
0.0761877
-0.0340681
0.0763971
-0.0326551
0.0765345
-0.0313359
0.0766162
-0.030149
0.0766475
-0.029087
-0.0281513
0.076628
0.0741663
-0.0395127
0.0750403
-0.0383964
0.0757611
-0.0373075
0.0763099
-0.0359867
0.0766915
-0.0344498
0.0769442
-0.0329078
0.077094
-0.0314857
0.0771435
-0.0301984
0.0770903
-0.0290338
-0.0279904
0.0769293
0.074264
-0.0408348
0.0753282
-0.0394606
0.0762199
-0.0381992
0.0768968
-0.0366637
0.0773601
-0.0349131
0.0776375
-0.0331852
0.0777368
-0.031585
0.077649
-0.0301107
0.0773722
-0.028757
-0.0275263
0.0769082
0.0744033
-0.0423774
0.075754
-0.0408114
0.0768985
-0.0393437
0.0777282
-0.0374934
0.0782305
-0.0354154
0.0784219
-0.0333766
0.0783011
-0.0314641
0.077866
-0.0296757
0.0771355
-0.0280265
-0.0265286
0.0761377
0.0747052
-0.0442964
0.0764913
-0.0425975
0.0779348
-0.0407872
0.0788347
-0.0383933
0.0791857
-0.0357663
0.0790232
-0.0332141
0.0783725
-0.0308134
0.0772736
-0.0285767
0.0757938
-0.0265467
-0.0247427
0.074008
0.0754115
-0.0468387
0.0777396
-0.0449255
0.079345
-0.0423927
0.0799947
-0.039043
0.0797783
-0.0355499
0.0788159
-0.0322517
0.0772138
-0.0292113
0.0750921
-0.026455
0.0725892
-0.0240438
-0.0219851
0.0698315
0.0767943
-0.0502016
0.0795029
-0.047634
0.0807543
-0.0436442
0.0805077
-0.0387964
0.0790952
-0.0341374
0.0767896
-0.0299461
0.0738282
-0.0262499
0.0704274
-0.0230543
0.0667923
-0.0204087
-0.0182679
0.0630751
0.0788449
-0.054194
0.08122
-0.0500091
0.0811217
-0.0435459
0.0790877
-0.0367624
0.0758036
-0.0308533
0.0717309
-0.0258734
0.0672377
-0.0217567
0.0626024
-0.0184189
0.0580435
-0.0158498
-0.0138979
0.0536735
0.0808057
-0.0578154
0.081475
-0.0506783
0.078699
-0.0407699
0.0740511
-0.0321145
0.0685178
-0.02532
0.0626932
-0.0200489
0.056984
-0.0160475
0.0516185
-0.0130534
0.0467198
-0.0109511
-0.00945688
0.0422787
0.0808615
-0.0590786
0.0780273
-0.047844
0.0714194
-0.034162
0.0639461
-0.0246411
0.0565247
-0.0178986
0.0496986
-0.0132227
0.0436914
-0.0100403
0.0385088
-0.00787082
0.0340681
-0.00651042
-0.00559709
0.0302083
0.0763528
-0.0553549
0.0683919
-0.0398831
0.0579144
-0.0236845
0.0486009
-0.0153276
0.0406911
-0.00998881
0.0343213
-0.00685297
0.0292537
-0.00497262
0.0251852
-0.0038023
0.0218417
-0.00316698
-0.00275295
0.0189976
0.06451
-0.0441745
0.0512368
-0.0266099
0.0389225
-0.0113701
0.0301995
-0.00660472
0.0238824
-0.00367164
0.0194327
-0.00240329
0.016159
-0.00169898
0.0136433
-0.00128656
0.0115999
-0.00112358
-0.00101266
0.00985961
0.043798
-0.0245848
0.0279788
-0.0107907
0.0184501
-0.00184146
0.0130825
-0.0012371
0.00985695
-0.000446088
0.00778854
-0.000334873
0.00631977
-0.000230211
0.00520514
-0.000171936
0.00427067
-0.00018911
-0.000206415
0.00346442
0.0155083
0.00471765
0.00287618
0.00163908
0.001193
0.000858123
0.000627912
0.000455977
0.000266867
6.04518e-05
0.0748164
-0.0150213
0.0748657
-0.0148096
0.074914
-0.014612
0.0749607
-0.0144261
0.0750061
-0.0142516
0.0750504
-0.0140873
0.0750936
-0.0139328
0.0751359
-0.0137864
0.0751771
-0.0136488
0.075217
-0.0135173
0.0752553
-0.0133947
0.0752917
-0.0132759
0.0753258
-0.0131677
0.0753569
-0.0130597
0.075385
-0.0129672
0.0754083
-0.0128679
0.0754281
-0.0127949
0.0754406
-0.0127007
0.0754503
-0.0126555
-0.0125571
0.0750286
-0.0150635
0.07507
-0.014851
0.0751106
-0.0146525
0.0751507
-0.0144662
0.0751905
-0.0142914
0.0752299
-0.0141267
0.0752687
-0.0139715
0.0753064
-0.0138242
0.0753428
-0.0136852
0.075377
-0.0135516
0.0754088
-0.0134264
0.0754368
-0.0133039
0.0754612
-0.013192
0.0754797
-0.0130782
0.0754936
-0.012981
0.0754988
-0.0128731
0.0754991
-0.0127952
0.0754864
-0.012688
0.0754701
-0.0126393
-0.0125222
0.0752904
-0.0150982
0.0753251
-0.0148857
0.0753597
-0.0146871
0.0753946
-0.014501
0.0754293
-0.0143262
0.0754635
-0.0141609
0.0754964
-0.0140045
0.0755273
-0.013855
0.075555
-0.0137129
0.0755784
-0.013575
0.0755966
-0.0134446
0.0756079
-0.0133152
0.0756118
-0.013196
0.0756058
-0.0130722
0.0755909
-0.0129662
0.0755622
-0.0128443
0.0755245
-0.0127576
0.0754672
-0.0126308
0.0754037
-0.0125757
-0.0124303
0.0755786
-0.0151278
0.0756081
-0.0149152
0.0756375
-0.0147166
0.0756665
-0.01453
0.0756941
-0.0143538
0.0757192
-0.014186
0.0757405
-0.0140258
0.0757564
-0.0138708
0.0757652
-0.0137217
0.0757652
-0.013575
0.0757548
-0.0134342
0.0757321
-0.0132925
0.075696
-0.0131599
0.075644
-0.0130202
0.0755767
-0.0128989
0.0754891
-0.0127567
0.0753863
-0.0126548
0.0752566
-0.0125011
0.0751161
-0.0124351
-0.0122517
0.0758994
-0.0151515
0.0759213
-0.0149372
0.0759407
-0.014736
0.0759564
-0.0145456
0.0759666
-0.014364
0.0759695
-0.0141888
0.0759627
-0.014019
0.0759442
-0.0138523
0.0759116
-0.0136891
0.0758629
-0.0135263
0.075796
-0.0133672
0.075709
-0.0132056
0.0756005
-0.0130513
0.0754685
-0.0128883
0.0753129
-0.0127433
0.0751303
-0.0125741
0.0749247
-0.0124492
0.0746859
-0.0122623
0.0744304
-0.0121796
-0.0119501
0.0762516
-0.01516
0.0762528
-0.0149383
0.076245
-0.0147282
0.0762261
-0.0145267
0.0761936
-0.0143315
0.0761449
-0.0141402
0.0760772
-0.0139513
0.0759881
-0.0137632
0.0758749
-0.0135759
0.0757358
-0.0133873
0.0755686
-0.0132
0.0753723
-0.0130093
0.075145
-0.0128241
0.0748869
-0.0126301
0.0745966
-0.012453
0.0742739
-0.0122514
0.0739206
-0.0120959
0.073531
-0.0118727
0.0731189
-0.0117675
-0.0114887
0.0765932
-0.0151252
0.0765401
-0.0148853
0.0764665
-0.0146545
0.0763698
-0.01443
0.0762472
-0.0142089
0.076096
-0.013989
0.0759135
-0.0137689
0.0756977
-0.0135474
0.0754466
-0.0133247
0.0751591
-0.0130998
0.0748337
-0.0128747
0.0744712
-0.0126468
0.0740701
-0.0124229
0.0736328
-0.0121929
0.0731575
-0.0119777
0.0726485
-0.0117424
0.0721039
-0.0115513
0.0715262
-0.011295
0.0709215
-0.0111627
-0.0108406
0.0767933
-0.0149891
0.0766229
-0.0147149
0.0764163
-0.014448
0.0761716
-0.0141853
0.0758866
-0.0139239
0.0755596
-0.013662
0.0751892
-0.0133985
0.0747748
-0.013133
0.0743159
-0.0128658
0.0738132
-0.0125971
0.0732671
-0.0123286
0.0726802
-0.0120599
0.0720525
-0.0117952
0.0713891
-0.0115295
0.0706882
-0.0112767
0.0699585
-0.0110127
0.0691945
-0.0107872
0.0684081
-0.0105086
0.0675942
-0.0103489
-0.00999997
0.0765774
-0.0146583
0.0761948
-0.0143323
0.0757605
-0.0140137
0.0752747
-0.0136995
0.0747374
-0.0133865
0.074149
-0.0130736
0.0735107
-0.0127601
0.072824
-0.0124464
0.0720911
-0.0121329
0.0713152
-0.0118212
0.070499
-0.0115123
0.0696469
-0.0112079
0.0687614
-0.0109097
0.067849
-0.0106171
0.0669091
-0.0103368
0.0659528
-0.0100565
0.0649722
-0.00980666
0.0639872
-0.00952357
0.0629801
-0.00934183
-0.00899196
0.0754917
-0.0140123
0.0747828
-0.0136234
0.0740152
-0.0132461
0.0731922
-0.0128764
0.0723169
-0.0125113
0.0713932
-0.0121499
0.070425
-0.011792
0.0694169
-0.0114382
0.0683736
-0.0110896
0.0673004
-0.010748
0.0662024
-0.0104143
0.0650853
-0.0100907
0.0639529
-0.00977733
0.062812
-0.00947621
0.061663
-0.00918781
0.0605167
-0.00891009
0.0593643
-0.00865431
0.0582286
-0.00838783
0.0570824
-0.00819563
-0.00787384
0.0729296
-0.0129339
0.071795
-0.0124888
0.0706127
-0.0120639
0.0693894
-0.0116531
0.0681318
-0.0112536
0.0668463
-0.0108644
0.0655393
-0.010485
0.0642171
-0.0101161
0.0628862
-0.00975865
0.0615523
-0.00941414
0.060221
-0.00908305
0.0588973
-0.00876703
0.0575852
-0.00846519
0.0562889
-0.00817994
0.0550094
-0.00790831
0.0537532
-0.0076539
0.0525129
-0.00741404
0.0513074
-0.00718227
0.0501062
-0.0069944
-0.00672391
0.0682597
-0.0113621
0.0666657
-0.0108947
0.0650608
-0.010459
0.0634536
-0.0100459
0.0618521
-0.00965208
0.060263
-0.00927533
0.0586925
-0.00891442
0.0571457
-0.00856936
0.0556275
-0.00824042
0.0541415
-0.00792814
0.0526907
-0.00763224
0.0512769
-0.00735327
0.0499015
-0.00708977
0.0485648
-0.00684325
0.0472663
-0.00660981
0.0460069
-0.00639447
0.0447809
-0.00618813
0.043599
-0.0060003
0.0424342
-0.00582962
-0.00562058
0.0610644
-0.00935144
0.0590956
-0.00892594
0.0571782
-0.00854163
0.0553186
-0.00818629
0.0535211
-0.00785458
0.0517878
-0.00754207
0.0501196
-0.00724618
0.0485162
-0.006966
0.0469768
-0.00670102
0.0454997
-0.00645097
0.0440826
-0.00621513
0.0427226
-0.00599332
0.0414171
-0.00578421
0.0401622
-0.00558844
0.0389554
-0.00540295
0.0377927
-0.00523181
0.0366705
-0.00506589
0.0355904
-0.0049202
0.0345342
-0.00477346
-0.00462172
0.0514297
-0.00710761
0.0493111
-0.00680729
0.047318
-0.0065486
0.0454479
-0.00631615
0.0436938
-0.0061005
0.0420466
-0.00589483
0.0404967
-0.00569628
0.039035
-0.00550438
0.0376533
-0.00531928
0.0363437
-0.00514135
0.0350993
-0.00497075
0.0339138
-0.00480776
0.0327815
-0.00465199
0.031697
-0.00450392
0.0306561
-0.00436205
0.0296534
-0.00422904
0.0286865
-0.00409905
0.0277519
-0.00398557
0.0268415
-0.00386304
-0.00375501
0.0401274
-0.00495626
0.0381793
-0.00485923
0.0364176
-0.00478691
0.0348206
-0.00471914
0.0333624
-0.00464231
0.0320188
-0.00455123
0.0307699
-0.00444731
0.0295997
-0.0043342
0.028496
-0.00421559
0.0274493
-0.00409461
0.026452
-0.00397352
0.0254982
-0.0038539
0.0245826
-0.00373647
0.0237007
-0.00362194
0.0228487
-0.00351007
0.0220222
-0.00340255
0.0212204
-0.00329726
0.0204387
-0.00320384
0.019678
-0.00310241
-0.00302219
0.0284844
-0.00323233
0.027012
-0.00338685
0.0257446
-0.00351957
0.0246315
-0.003606
0.0236269
-0.00363767
0.0226976
-0.003622
0.0218221
-0.0035718
0.0209868
-0.00349884
0.0201833
-0.00341217
0.0194069
-0.00331814
0.0186541
-0.00322076
0.0179225
-0.00312229
0.0172098
-0.00302377
0.0165137
-0.0029258
0.0158322
-0.00282862
0.0151632
-0.00273353
0.0145072
-0.00264122
0.013862
-0.00255865
0.0132352
-0.00247559
-0.00241056
0.0179203
-0.00215505
0.0170965
-0.0025631
0.0164337
-0.0028567
0.0158513
-0.00302366
0.0152988
-0.00308515
0.0147512
-0.00307438
0.014199
-0.00301959
0.0136407
-0.00294053
0.0130782
-0.00284974
0.0125146
-0.00275451
0.0119523
-0.00265844
0.0113929
-0.00256289
0.0108371
-0.00246796
0.0102848
-0.00237351
0.00973588
-0.00227972
0.00919027
-0.00218792
0.00864968
-0.00210063
0.00811531
-0.00202429
0.00759937
-0.00195965
-0.00190456
0.00946803
-0.00176347
0.00927351
-0.00236859
0.00913087
-0.00271405
0.0089541
-0.00284689
0.00871477
-0.00284582
0.00841345
-0.00277306
0.00806133
-0.00266747
0.00767181
-0.00255101
0.00725679
-0.00243472
0.00682547
-0.00232319
0.00638424
-0.0022172
0.00593703
-0.00211568
0.00548605
-0.00201698
0.00503242
-0.00191988
0.00457711
-0.00182441
0.00412159
-0.0017324
0.00366848
-0.00164752
0.00322002
-0.00157582
0.00278609
-0.00152573
-0.00150379
0.00358629
-0.00188533
0.00381067
-0.00259297
0.00394645
-0.00284983
0.00394416
-0.00284461
0.0038181
-0.00271975
0.00359804
-0.002553
0.00331238
-0.00238181
0.00298379
-0.00222241
0.00262848
-0.00207942
0.00225733
-0.00195204
0.00187708
-0.00183695
0.00149152
-0.00173013
0.00110266
-0.00162812
0.000711666
-0.00152889
0.000319766
-0.00143251
-7.10231e-05
-0.00134161
-0.000456939
-0.0012616
-0.00083555
-0.00119721
-0.00121091
-0.00115037
-0.00117777
0.000273247
-0.00209813
0.000548404
-0.00286812
0.000637355
-0.00293878
0.000555561
-0.00276282
0.000353363
-0.00251756
7.47244e-05
-0.00227436
-0.000248539
-0.00205855
-0.000595761
-0.00187519
-0.000953802
-0.00172138
-0.00131505
-0.00159079
-0.00167559
-0.00147641
-0.00203376
-0.00137196
-0.00238903
-0.00127284
-0.00274109
-0.00117683
-0.0030891
-0.00108449
-0.0034314
-0.000999304
-0.0037661
-0.000926904
-0.00409093
-0.000872387
-0.00439771
-0.00084358
-0.000864092
-0.000322696
-0.00177543
-0.000552667
-0.00263815
-0.000798804
-0.00269264
-0.00108409
-0.00247753
-0.00139848
-0.00220317
-0.00172615
-0.0019467
-0.00205507
-0.00172962
-0.00237778
-0.00155249
-0.00269055
-0.00140861
-0.00299211
-0.00128922
-0.00328267
-0.00118585
-0.00356318
-0.00109145
-0.00383474
-0.00100129
-0.0040981
-0.000913465
-0.00435341
-0.000829181
-0.0046002
-0.000752514
-0.00483788
-0.000689228
-0.00506601
-0.000644257
-0.00528495
-0.000624642
-0.000641787
-0.00044783
-0.0013276
-0.000980691
-0.00210529
-0.00149883
-0.00217451
-0.00199152
-0.00198484
-0.00245425
-0.00174043
-0.00288502
-0.00151593
-0.00328399
-0.00133065
-0.00365297
-0.00118351
-0.00399477
-0.0010668
-0.00431266
-0.000971335
-0.00460991
-0.000888598
-0.00488951
-0.000811848
-0.00515394
-0.000736862
-0.00540496
-0.000662442
-0.00564364
-0.000590505
-0.00587056
-0.000525596
-0.0060864
-0.000473382
-0.00629227
-0.000438386
-0.00649099
-0.000425924
-0.00043938
-0.00048258
-0.000845023
-0.00119195
-0.00139592
-0.0019112
-0.00145526
-0.00257244
-0.0013236
-0.00316166
-0.0011512
-0.00368261
-0.000994987
-0.00414392
-0.000869339
-0.00455479
-0.00077264
-0.00492357
-0.000698031
-0.00525733
-0.000637572
-0.00556192
-0.000584005
-0.00584204
-0.000531735
-0.00610131
-0.000477583
-0.00634249
-0.000421268
-0.00656759
-0.000365408
-0.00677834
-0.000314843
-0.0069767
-0.000275017
-0.00716508
-0.00025001
-0.00734781
-0.000243197
-0.000252873
-0.000490834
-0.00035419
-0.00129323
-0.00059352
-0.00213401
-0.000614483
-0.00290545
-0.000552162
-0.003581
-0.000475657
-0.004165
-0.000410988
-0.00467058
-0.000363755
-0.00511158
-0.000331635
-0.00549999
-0.000309627
-0.00584542
-0.00029214
-0.00615539
-0.000274034
-0.00643568
-0.000251444
-0.00669073
-0.000222533
-0.006924
-0.000187998
-0.00713836
-0.000151052
-0.00733654
-0.000116658
-0.00752158
-8.99793e-05
-0.00769691
-7.46806e-05
-0.00786775
-7.23569e-05
-7.87317e-05
-0.000490056
0.000135866
-0.00132568
0.000242103
-0.0022152
0.000275037
-0.00303346
0.000266103
-0.00374693
0.000237808
-0.00435921
0.000201291
-0.00488496
0.000161994
-0.00533987
0.000123275
-0.00573739
8.78905e-05
-0.00608811
5.85817e-05
-0.0064001
3.79615e-05
-0.00667947
2.79275e-05
-0.00693092
2.89135e-05
-0.00715825
3.93341e-05
-0.00736488
5.55729e-05
-0.00755425
7.27159e-05
-0.00773015
8.5919e-05
-0.0078967
9.18686e-05
-0.0080595
9.04411e-05
8.70774e-05
-0.000484531
0.000620397
-0.00130224
0.00105981
-0.00217198
0.00114478
-0.00297297
0.0010671
-0.00367306
0.000937893
-0.00427568
0.000803916
-0.00479482
0.00068113
-0.00524539
0.000573841
-0.00564009
0.000482593
-0.00598884
0.000407329
-0.00629907
0.000348194
-0.00657636
0.000305217
-0.00682504
0.000277593
-0.00704878
0.00026308
-0.00725111
0.000257901
-0.00743578
0.000257386
-0.00760694
0.000257083
-0.00776904
0.000253962
-0.00792771
0.000249116
0.000248809
-0.000471706
0.0010921
-0.00121807
0.00180618
-0.00199879
0.00192549
-0.00271854
0.00178685
-0.00335428
0.00157364
-0.00390961
0.00135924
-0.00439554
0.00116706
-0.00482364
0.00100195
-0.00520375
0.0008627
-0.00554347
0.000747051
-0.00584847
0.000653192
-0.00612295
0.0005797
-0.00637025
0.000524888
-0.00659336
0.00048619
-0.00679542
0.00045996
-0.00698002
0.000441989
-0.00715128
0.000428344
-0.00731358
0.000416262
-0.00747233
0.000407865
0.000410954
-0.000438979
0.00153108
-0.00104757
0.00241477
-0.00166536
0.00254328
-0.00224181
0.0023633
-0.00276636
0.00209819
-0.00324073
0.00183361
-0.00367005
0.00159638
-0.00405994
0.00139184
-0.00441539
0.00121815
-0.00474032
0.00107198
-0.00503763
0.000950499
-0.00530944
0.000851515
-0.00555752
0.00077297
-0.0057837
0.000712367
-0.00599024
0.000666506
-0.00618011
0.000631857
-0.00635696
0.000605194
-0.00652477
0.000584071
-0.00668833
0.000571421
0.000578216
-0.000353485
0.00188457
-0.000724861
0.00278615
-0.00110526
0.00292368
-0.00148524
0.00274328
-0.00186268
0.00247563
-0.00223173
0.00220266
-0.00258801
0.00195266
-0.00292895
0.00173278
-0.00325321
0.00154241
-0.00356007
0.00137884
-0.00384903
0.00123945
-0.00411964
0.00112213
-0.00437173
0.00102506
-0.00460557
0.000946208
-0.00482219
0.000883126
-0.0050235
0.000833164
-0.00521228
0.000793975
-0.00539186
0.00076365
-0.00556588
0.000745444
0.00075532
-6.01436e-05
0.00194471
-0.000112127
0.00283813
-0.000194093
0.00300564
-0.000352136
0.00290132
-0.000569411
0.0026929
-0.000825599
0.00245885
-0.00110432
0.00223138
-0.00139386
0.00202232
-0.0016862
0.00183475
-0.00197578
0.00166842
-0.00225854
0.00152222
-0.00253144
0.00139503
-0.00279219
0.00128581
-0.0030394
0.00119342
-0.00327263
0.00111636
-0.0034925
0.00105303
-0.00370061
0.00100208
-0.00389937
0.000962411
-0.00409027
0.000936345
0.000948477
0.00148819
0.00157136
-0.00111484
0.00197816
0.00234816
0.00227621
0.00270759
0.00236246
0.00281508
0.00227983
0.00277553
0.00207626
0.00266241
0.00179003
0.00251762
0.00144933
0.00236302
0.00107441
0.00220966
0.000679877
0.00206295
0.00027652
0.00192557
-0.000127428
0.00179898
-0.000525649
0.00168403
-0.000913442
0.00158121
-0.00128773
0.00149065
-0.00164711
0.0014124
-0.00199181
0.00134679
-0.00232357
0.00129417
-0.00264183
0.0012546
0.00125381
0.00754878
0.0016115
-0.00758893
0.00772075
0.0021762
0.00787359
0.00255475
0.00792009
0.00276858
0.00784281
0.0028528
0.00765547
0.00284975
0.00738009
0.002793
0.00703819
0.00270492
0.00664814
0.00259972
0.00622477
0.00248631
0.00577995
0.00237039
0.00532321
0.00225572
0.00486228
0.00214496
0.00440337
0.00204012
0.0039513
0.00194272
0.0035095
0.0018542
0.00308027
0.00177602
0.0026635
0.00171093
0.00226033
0.00165778
0.00161485
0.0176157
0.00248005
-0.0184843
0.0170367
0.00275522
0.0166063
0.00298512
0.0162265
0.00314846
0.0158397
0.00323958
0.0154214
0.00326808
0.0149652
0.00324919
0.0144734
0.00319665
0.0139521
0.00312108
0.013408
0.00303041
0.0128479
0.00293044
0.0122782
0.00282549
0.0117043
0.00271883
0.0111312
0.00261318
0.0105634
0.0025106
0.0100041
0.00241343
0.00945712
0.00232304
0.00892367
0.00224438
0.00841389
0.00216755
0.0021131
0.0311874
0.00420985
-0.0329172
0.0297431
0.00419946
0.0285225
0.00420578
0.0274633
0.00420759
0.0265109
0.00419198
0.0256259
0.00415314
0.0247828
0.00409224
0.0239663
0.00401317
0.0231673
0.00392007
0.022381
0.00381668
0.0216052
0.00370623
0.0208392
0.00359151
0.0200833
0.00347472
0.0193384
0.00335814
0.0186059
0.00324308
0.0178869
0.00313242
0.0171846
0.00302534
0.0164983
0.00293074
0.0158353
0.00283046
0.00275455
0.0465651
0.00650879
-0.048864
0.044488
0.00627657
0.0426123
0.00608141
0.0409146
0.00590531
0.0393666
0.00574003
0.0379408
0.00557888
0.0366144
0.00541865
0.0353689
0.00525872
0.0341896
0.00509938
0.0330651
0.0049412
0.0319866
0.00478468
0.0309474
0.00463067
0.0299427
0.0044795
0.0289683
0.00433254
0.0280221
0.00418924
0.0271014
0.00405313
0.0262072
0.00391953
0.0253365
0.0038014
0.02449
0.00367704
0.0035643
0.0612019
0.00888016
-0.0635733
0.0589525
0.00852603
0.0568256
0.00820828
0.054819
0.00791192
0.0529272
0.00763178
0.0511421
0.00736402
0.0494547
0.00710607
0.0478562
0.00685715
0.0463385
0.00661713
0.0448934
0.00638626
0.0435138
0.00616433
0.0421927
0.00595173
0.0409245
0.0057477
0.0397035
0.00555353
0.0385259
0.00536683
0.037387
0.00519203
0.0362848
0.00502176
0.0352182
0.00486798
0.0341756
0.00471962
0.00455385
0.0729046
0.0108847
-0.0749091
0.0709262
0.0105044
0.0689839
0.0101506
0.067083
0.00981279
0.0652283
0.00948647
0.0634229
0.00916942
0.0616687
0.00886028
0.0599669
0.00855894
0.0583182
0.00826585
0.0567224
0.00798209
0.0551787
0.00770801
0.0536856
0.00744488
0.0522412
0.00719203
0.0508432
0.00695154
0.0494892
0.00672084
0.0481774
0.00650388
0.0469026
0.00629653
0.0456717
0.00609886
0.0444603
0.00593099
0.00570249
0.0807969
0.0123179
-0.0822301
0.0793295
0.0119718
0.077838
0.0116421
0.0763283
0.0113225
0.0748062
0.0110086
0.0732774
0.0106982
0.0717471
0.0103906
0.0702202
0.0100858
0.0687018
0.00978429
0.0671962
0.00948767
0.0657075
0.00919672
0.064239
0.00891335
0.0627933
0.0086378
0.0613728
0.00837202
0.0599774
0.00811618
0.0586117
0.00786958
0.0572681
0.0076402
0.0559633
0.00740359
0.0546662
0.00722809
0.00694293
0.0852503