x,y,z,U_0,U_1,U_2
0,0,0,0.299983,-0.000296282,0
0,0.1,0,0.29999,-0.000177769,0
0,0.2,0,0.299997,-5.92564e-05,0
0,0.3,0,0.3,0,0
0,0.4,0,0.3,0,0
0,0.5,0,0.3,0,0
0,0.6,0,0.3,0,0
0,0.7,0,0.3,0,0
0,0.8,0,0.3,0,0
0,0.9,0,0.3,0,0
0,1,0,0.3,0,0
0,1.1,0,0.3,0,0
0,1.2,0,0.3,0,0
0,1.3,0,0.3,0,0
0,1.4,0,0.3,0,0
0,1.5,0,0.3,0,0
0,1.6,0,0.3,0,0
0,1.7,0,0.3,0,0
0,1.8,0,0.3,0,0
0,1.9,0,0.3,0,0
0,2,0,0.3,0,0
0,2.1,0,0.3,0,0
0,2.2,0,0.3,0,0
0,2.3,0,0.3,0,0
0,2.4,0,0.3,0,0
0,2.5,0,0.3,0,0
0,2.6,0,0.3,0,0
0,2.7,0,0.3,0,0
0,2.8,0,0.3,0,0
0,2.9,0,0.3,0,0
0,3,0,0.3,0,0
0,3.1,0,0.3,0,0
0,3.2,0,0.3,0,0
0,3.3,0,0.3,0,0
0,3.4,0,0.3,0,0
0,3.5,0,0.3,0,0
0,3.6,0,0.3,0,0
0,3.7,0,0.3,0,0
0,3.8,0,0.3,0,0
0,3.9,0,0.3,0,0
0,4,0,0.3,0,0
0,4.1,0,0.3,0,0
0,4.2,0,0.3,0,0
0,4.3,0,0.3,0,0
0,4.4,0,0.3,0,0
0,4.5,0,0.3,0,0
0,4.6,0,0.3,0,0
0,4.7,0,0.3,0,0
0,4.8,0,0.3,0,0
0,4.9,0,0.3,0,0
0,5,0,0.3,0,0
0,5.1,0,0.3,0,0
0,5.2,0,0.3,0,0
0,5.3,0,0.3,0,0
0,5.4,0,0.3,0,0
0,5.5,0,0.3,0,0
0,5.6,0,0.3,0,0
0,5.7,0,0.3,0,0
0,5.8,0,0.3,0,0
0,5.9,0,0.3,0,0
0,6,0,0.3,0,0
0,6.1,0,0.3,0,0
0,6.2,0,0.3,0,0
0,6.3,0,0.3,0,0
0,6.4,0,0.3,0,0
0,6.5,0,0.3,0,0
0,6.6,0,0.3,0,0
0,6.7,0,0.3,0,0
0,6.8,0,0.3,0,0
0,6.9,0,0.3,0,0
0,7,0,0.3,0,0
0,7.1,0,0.3,0,0
0,7.2,0,0.3,0,0
0,7.3,0,0.3,0,0
0,7.4,0,0.3,0,0
0,7.5,0,0.3,0,0
0,7.6,0,0.3,0,0
0,7.7,0,0.3,0,0
0,7.8,0,0.3,0,0
0,7.9,0,0.3,0,0
0,8,0,0.3,0,0
0,8.1,0,0.3,0,0
0,8.2,0,0.3,0,0
0,8.3,0,0.3,0,0
0,8.4,0,0.3,0,0
0,8.5,0,0.3,0,0
0,8.6,0,0.3,0,0
0,8.7,0,0.3,0,0
0,8.8,0,0.3,0,0
0,8.9,0,0.3,0,0
0,9,0,0.3,0,0
0,9.1,0,0.3,0,0
0,9.2,0,0.3,0,0
0,9.3,0,0.3,0,0
0,9.4,0,0.3,0,0
0,9.5,0,0.3,0,0
0,9.6,0,0.3,0,0
0,9.7,0,0.3,0,0
0,9.8,0,0.3,0,0
0,9.9,0,0.3,0,0
0,10,0,0.3,0,0
0,10.1,0,0.3,0,0
0,10.2,0,0.3,0,0
0,10.3,0,0.3,0,0
0,10.4,0,0.3,0,0
0,10.5,0,0.3,0,0
0,10.6,0,0.3,0,0
0,10.7,0,0.3,0,0
0,10.8,0,0.3,0,0
0,10.9,0,0.3,0,0
0,11,0,0.3,0,0
0,11.1,0,0.3,0,0
0,11.2,0,0.3,0,0
0,11.3,0,0.3,0,0
0,11.4,0,0.3,0,0
0,11.5,0,0.3,0,0
0,11.6,0,0.3,0,0
0,11.7,0,0.3,0,0
0,11.8,0,0.3,0,0
0,11.9,0,0.3,0,0
0,12,0,0.3,0,0
0,12.1,0,0.3,0,0
0,12.2,0,0.3,0,0
0,12.3,0,0.3,0,0
0,12.4,0,0.299998,3.11007e-05,0
0,12.5,0,0.299994,0.00011996,0
0,12.6,0,0.299989,0.000208819,0
0,12.7,0,0.299984,0.000297679,0
0.1,0,0,0.299988,-0.0004162,0
0.1,0.1,0,0.299982,-0.000313086,0
0.1,0.2,0,0.299989,-0.000194573,0
0.1,0.3,0,0.29999,-0.000175899,0
0.1,0.4,0,0.29999,-0.000175899,0
0.1,0.5,0,0.3,-0.000160865,0
0.1,0.6,0,0.29999,-0.000176426,0
0.1,0.7,0,0.29999,-0.000176426,0
0.1,0.8,0,0.29999,-0.000175808,0
0.1,0.9,0,0.29999,-0.000175808,0
0.1,1,0,0.299998,-0.000159626,0
0.1,1.1,0,0.29999,-0.000174274,0
0.1,1.2,0,0.29999,-0.000174274,0
0.1,1.3,0,0.299991,-0.000171888,0
0.1,1.4,0,0.299991,-0.000171888,0
0.1,1.5,0,0.299995,-0.000155258,0
0.1,1.6,0,0.299991,-0.000168621,0
0.1,1.7,0,0.299991,-0.000168621,0
0.1,1.8,0,0.299991,-0.000164499,0
0.1,1.9,0,0.299991,-0.000164499,0
0.1,2,0,0.299992,-0.000147805,0
0.1,2.1,0,0.299991,-0.000159576,0
0.1,2.2,0,0.299991,-0.000159576,0
0.1,2.3,0,0.299991,-0.000153902,0
0.1,2.4,0,0.299991,-0.000153902,0
0.1,2.5,0,0.29999,-0.000137561,0
0.1,2.6,0,0.299991,-0.000147529,0
0.1,2.7,0,0.299991,-0.000147529,0
0.1,2.8,0,0.299992,-0.000140502,0
0.1,2.9,0,0.299992,-0.000140502,0
0.1,3,0,0.299988,-0.000124822,0
0.1,3.1,0,0.299992,-0.000132869,0
0.1,3.2,0,0.299992,-0.000132869,0
0.1,3.3,0,0.299992,-0.000124672,0
0.1,3.4,0,0.299992,-0.000124672,0
0.1,3.5,0,0.299987,-0.000109893,0
0.1,3.6,0,0.299992,-0.000115954,0
0.1,3.7,0,0.299992,-0.000115954,0
0.1,3.8,0,0.299992,-0.000106758,0
0.1,3.9,0,0.299992,-0.000106758,0
0.1,4,0,0.299985,-9.30944e-05,0
0.1,4.1,0,0.299992,-9.71283e-05,0
0.1,4.2,0,0.299992,-9.71283e-05,0
0.1,4.3,0,0.299992,-8.71149e-05,0
0.1,4.4,0,0.299992,-8.71149e-05,0
0.1,4.5,0,0.299984,-7.47636e-05,0
0.1,4.6,0,0.299992,-7.67835e-05,0
0.1,4.7,0,0.299992,-7.67835e-05,0
0.1,4.8,0,0.299992,-6.61984e-05,0
0.1,4.9,0,0.299992,-6.61984e-05,0
0.1,5,0,0.299983,-5.6727e-05,0
0.1,5.1,0,0.299983,-5.12057e-05,0
0.1,5.2,0,0.299983,-4.71168e-05,0
0.1,5.3,0,0.299983,-4.29993e-05,0
0.1,5.4,0,0.299983,-3.88573e-05,0
0.1,5.5,0,0.299983,-3.46919e-05,0
0.1,5.6,0,0.299983,-3.0505e-05,0
0.1,5.7,0,0.299982,-2.62988e-05,0
0.1,5.8,0,0.299982,-2.20738e-05,0
0.1,5.9,0,0.299982,-1.78325e-05,0
0.1,6,0,0.299982,-1.11715e-05,0
0.1,6.1,0,0.299992,-7.1896e-06,0
0.1,6.2,0,0.299992,-7.1896e-06,0
0.1,6.3,0,0.29999,-5.51593e-06,0
0.1,6.4,0,0.299992,8.03216e-06,0
0.1,6.5,0,0.299992,8.03216e-06,0
0.1,6.6,0,0.299992,8.03216e-06,0
0.1,6.7,0,0.299989,2.04271e-05,0
0.1,6.8,0,0.299992,2.32819e-05,0
0.1,6.9,0,0.299992,2.32819e-05,0
0.1,7,0,0.299984,2.7944e-05,0
0.1,7.1,0,0.299993,3.83941e-05,0
0.1,7.2,0,0.299993,3.83941e-05,0
0.1,7.3,0,0.299992,3.87987e-05,0
0.1,7.4,0,0.299993,5.32453e-05,0
0.1,7.5,0,0.299993,5.32453e-05,0
0.1,7.6,0,0.299993,5.32453e-05,0
0.1,7.7,0,0.299988,6.24231e-05,0
0.1,7.8,0,0.299993,6.77216e-05,0
0.1,7.9,0,0.299993,6.77216e-05,0
0.1,8,0,0.299986,6.84751e-05,0
0.1,8.1,0,0.299993,8.17141e-05,0
0.1,8.2,0,0.299993,8.17141e-05,0
0.1,8.3,0,0.299993,8.17141e-05,0
0.1,8.4,0,0.299993,9.51181e-05,0
0.1,8.5,0,0.299993,9.51181e-05,0
0.1,8.6,0,0.299993,9.51181e-05,0
0.1,8.7,0,0.299989,9.96725e-05,0
0.1,8.8,0,0.299993,0.000107831,0
0.1,8.9,0,0.299993,0.000107831,0
0.1,9,0,0.299988,0.000105437,0
0.1,9.1,0,0.299993,0.000119751,0
0.1,9.2,0,0.299993,0.000119751,0
0.1,9.3,0,0.299993,0.000119751,0
0.1,9.4,0,0.299992,0.000130781,0
0.1,9.5,0,0.299992,0.000130781,0
0.1,9.6,0,0.299992,0.000130781,0
0.1,9.7,0,0.29999,0.000129702,0
0.1,9.8,0,0.299992,0.000140819,0
0.1,9.9,0,0.299992,0.000140819,0
0.1,10,0,0.299991,0.000136275,0
0.1,10.1,0,0.299992,0.000149761,0
0.1,10.2,0,0.299992,0.000149761,0
0.1,10.3,0,0.299992,0.000149761,0
0.1,10.4,0,0.299992,0.000157503,0
0.1,10.5,0,0.299992,0.000157503,0
0.1,10.6,0,0.299992,0.000157503,0
0.1,10.7,0,0.299992,0.000150287,0
0.1,10.8,0,0.299992,0.000163927,0
0.1,10.9,0,0.299992,0.000163927,0
0.1,11,0,0.299993,0.000158426,0
0.1,11.1,0,0.299991,0.0001689,0
0.1,11.2,0,0.299991,0.0001689,0
0.1,11.3,0,0.299991,0.0001689,0
0.1,11.4,0,0.299991,0.000170585,0
0.1,11.5,0,0.299991,0.000172382,0
0.1,11.6,0,0.299991,0.000172382,0
0.1,11.7,0,0.299997,0.000159468,0
0.1,11.8,0,0.29999,0.000174395,0
0.1,11.9,0,0.29999,0.000174395,0
0.1,12,0,0.299993,0.000169229,0
0.1,12.1,0,0.29999,0.000174555,0
0.1,12.2,0,0.29999,0.000174555,0
0.1,12.3,0,0.29999,0.000174555,0
0.1,12.4,0,0.299993,0.000170124,0
0.1,12.5,0,0.299986,0.000253738,0
0.1,12.6,0,0.299982,0.000342597,0
0.1,12.7,0,0.299988,0.000415164,0
0.2,0,0,0.299992,-0.000536117,0
0.2,0.1,0,0.299975,-0.000448402,0
0.2,0.2,0,0.299986,-0.000342271,0
0.2,0.3,0,0.299986,-0.000343888,0
0.2,0.4,0,0.29998,-0.000351797,0
0.2,0.5,0,0.300001,-0.000321731,0
0.2,0.6,0,0.299979,-0.000352852,0
0.2,0.7,0,0.299984,-0.000344968,0
0.2,0.8,0,0.299984,-0.00034404,0
0.2,0.9,0,0.29998,-0.000351615,0
0.2,1,0,0.299995,-0.000319252,0
0.2,1.1,0,0.29998,-0.000348547,0
0.2,1.2,0,0.299983,-0.000340331,0
0.2,1.3,0,0.299984,-0.000336752,0
0.2,1.4,0,0.299981,-0.000343776,0
0.2,1.5,0,0.29999,-0.000310516,0
0.2,1.6,0,0.299982,-0.000337242,0
0.2,1.7,0,0.299983,-0.000328881,0
0.2,1.8,0,0.299984,-0.000322698,0
0.2,1.9,0,0.299982,-0.000328998,0
0.2,2,0,0.299985,-0.000295609,0
0.2,2.1,0,0.299982,-0.000319151,0
0.2,2.2,0,0.299982,-0.00031087,0
0.2,2.3,0,0.299983,-0.00030236,0
0.2,2.4,0,0.299983,-0.000307805,0
0.2,2.5,0,0.29998,-0.000275122,0
0.2,2.6,0,0.299983,-0.000295057,0
0.2,2.7,0,0.299982,-0.000287035,0
0.2,2.8,0,0.299982,-0.000276495,0
0.2,2.9,0,0.299983,-0.000281004,0
0.2,3,0,0.299977,-0.000249643,0
0.2,3.1,0,0.299983,-0.000265738,0
0.2,3.2,0,0.299981,-0.000258109,0
0.2,3.3,0,0.299981,-0.000245814,0
0.2,3.4,0,0.299983,-0.000249345,0
0.2,3.5,0,0.299973,-0.000219786,0
0.2,3.6,0,0.299983,-0.000231908,0
0.2,3.7,0,0.29998,-0.000224785,0
0.2,3.8,0,0.299981,-0.00021099,0
0.2,3.9,0,0.299984,-0.000213516,0
0.2,4,0,0.29997,-0.000186189,0
0.2,4.1,0,0.299984,-0.000194257,0
0.2,4.2,0,0.29998,-0.000187741,0
0.2,4.3,0,0.29998,-0.000172721,0
0.2,4.4,0,0.299984,-0.00017423,0
0.2,4.5,0,0.299968,-0.000149527,0
0.2,4.6,0,0.299984,-0.000153567,0
0.2,4.7,0,0.29998,-0.000147747,0
0.2,4.8,0,0.29998,-0.00013187,0
0.2,4.9,0,0.299984,-0.000132397,0
0.2,5,0,0.299966,-0.000113454,0
0.2,5.1,0,0.299966,-0.000102411,0
0.2,5.2,0,0.299966,-9.42335e-05,0
0.2,5.3,0,0.299966,-8.59986e-05,0
0.2,5.4,0,0.299965,-7.77147e-05,0
0.2,5.5,0,0.299965,-6.93837e-05,0
0.2,5.6,0,0.299965,-6.101e-05,0
0.2,5.7,0,0.299965,-5.25975e-05,0
0.2,5.8,0,0.299965,-4.41475e-05,0
0.2,5.9,0,0.299965,-3.5665e-05,0
0.2,6,0,0.299965,-2.23431e-05,0
0.2,6.1,0,0.299985,-1.43792e-05,0
0.2,6.2,0,0.299985,-1.43792e-05,0
0.2,6.3,0,0.299972,-4.97202e-06,0
0.2,6.4,0,0.299979,1.19849e-05,0
0.2,6.5,0,0.299985,1.60643e-05,0
0.2,6.6,0,0.29998,1.89019e-05,0
0.2,6.7,0,0.299971,3.5015e-05,0
0.2,6.8,0,0.299985,4.65637e-05,0
0.2,6.9,0,0.299985,4.65637e-05,0
0.2,7,0,0.299966,5.64757e-05,0
0.2,7.1,0,0.299985,7.67883e-05,0
0.2,7.2,0,0.299985,7.67883e-05,0
0.2,7.3,0,0.299974,8.10656e-05,0
0.2,7.4,0,0.299979,9.92809e-05,0
0.2,7.5,0,0.299985,0.000106491,0
0.2,7.6,0,0.299982,0.000107274,0
0.2,7.7,0,0.299972,0.000118111,0
0.2,7.8,0,0.299985,0.000135443,0
0.2,7.9,0,0.299985,0.000135443,0
0.2,8,0,0.29997,0.000137168,0
0.2,8.1,0,0.299985,0.000163428,0
0.2,8.2,0,0.299985,0.000163428,0
0.2,8.3,0,0.299977,0.0001629,0
0.2,8.4,0,0.299979,0.000179524,0
0.2,8.5,0,0.299985,0.000190236,0
0.2,8.6,0,0.299984,0.000189806,0
0.2,8.7,0,0.299974,0.00019273,0
0.2,8.8,0,0.299985,0.000215662,0
0.2,8.9,0,0.299985,0.000215662,0
0.2,9,0,0.299975,0.000209664,0
0.2,9.1,0,0.299984,0.000237997,0
0.2,9.2,0,0.299985,0.000239503,0
0.2,9.3,0,0.29998,0.000234965,0
0.2,9.4,0,0.29998,0.000247311,0
0.2,9.5,0,0.299985,0.000261562,0
0.2,9.6,0,0.299984,0.000260912,0
0.2,9.7,0,0.299978,0.000253784,0
0.2,9.8,0,0.299985,0.000281637,0
0.2,9.9,0,0.299985,0.000281637,0
0.2,10,0,0.29998,0.000268867,0
0.2,10.1,0,0.299984,0.000295935,0
0.2,10.2,0,0.299985,0.000299523,0
0.2,10.3,0,0.299984,0.000292052,0
0.2,10.4,0,0.299983,0.000297676,0
0.2,10.5,0,0.299984,0.000315006,0
0.2,10.6,0,0.299984,0.000315006,0
0.2,10.7,0,0.299985,0.00029664,0
0.2,10.8,0,0.299983,0.000327854,0
0.2,10.9,0,0.299983,0.000327854,0
0.2,11,0,0.299987,0.00030986,0
0.2,11.1,0,0.299983,0.000332195,0
0.2,11.2,0,0.299982,0.0003378,0
0.2,11.3,0,0.299986,0.00032879,0
0.2,11.4,0,0.299987,0.000325765,0
0.2,11.5,0,0.299981,0.000344764,0
0.2,11.6,0,0.299981,0.000344764,0
0.2,11.7,0,0.299995,0.000317054,0
0.2,11.8,0,0.29998,0.000348791,0
0.2,11.9,0,0.29998,0.000348791,0
0.2,12,0,0.299993,0.000327889,0
0.2,12.1,0,0.299984,0.000342231,0
0.2,12.2,0,0.29998,0.00034911,0
0.2,12.3,0,0.299986,0.000340099,0
0.2,12.4,0,0.299994,0.000328138,0
0.2,12.5,0,0.299979,0.000387515,0
0.2,12.6,0,0.299974,0.000476374,0
0.2,12.7,0,0.299992,0.000532649,0
0.3,0,0,0.299997,-0.000656035,0
0.3,0.1,0,0.299967,-0.000583718,0
0.3,0.2,0,0.299988,-0.00050235,0
0.3,0.3,0,0.299987,-0.000503967,0
0.3,0.4,0,0.29997,-0.000527696,0
0.3,0.5,0,0.300001,-0.000482596,0
0.3,0.6,0,0.299969,-0.000529278,0
0.3,0.7,0,0.299983,-0.000505625,0
0.3,0.8,0,0.299983,-0.000504697,0
0.3,0.9,0,0.29997,-0.000527423,0
0.3,1,0,0.299993,-0.000478878,0
0.3,1.1,0,0.29997,-0.000522821,0
0.3,1.2,0,0.29998,-0.000498171,0
0.3,1.3,0,0.29998,-0.000494593,0
0.3,1.4,0,0.299972,-0.000515664,0
0.3,1.5,0,0.299985,-0.000465774,0
0.3,1.6,0,0.299973,-0.000505863,0
0.3,1.7,0,0.299977,-0.000480779,0
0.3,1.8,0,0.299977,-0.000474596,0
0.3,1.9,0,0.299974,-0.000493498,0
0.3,2,0,0.299977,-0.000443414,0
0.3,2.1,0,0.299974,-0.000478727,0
0.3,2.2,0,0.299974,-0.000453884,0
0.3,2.3,0,0.299974,-0.000445374,0
0.3,2.4,0,0.299974,-0.000461707,0
0.3,2.5,0,0.299971,-0.000412684,0
0.3,2.6,0,0.299974,-0.000442586,0
0.3,2.7,0,0.299971,-0.00041852,0
0.3,2.8,0,0.299971,-0.00040798,0
0.3,2.9,0,0.299975,-0.000421506,0
0.3,3,0,0.299965,-0.000374465,0
0.3,3.1,0,0.299975,-0.000398607,0
0.3,3.2,0,0.299969,-0.000375721,0
0.3,3.3,0,0.299969,-0.000363425,0
0.3,3.4,0,0.299975,-0.000374017,0
0.3,3.5,0,0.29996,-0.000329679,0
0.3,3.6,0,0.299975,-0.000347862,0
0.3,3.7,0,0.299966,-0.000326492,0
0.3,3.8,0,0.299967,-0.000312697,0
0.3,3.9,0,0.299976,-0.000320274,0
0.3,4,0,0.299956,-0.000279283,0
0.3,4.1,0,0.299976,-0.000291385,0
0.3,4.2,0,0.299965,-0.000271839,0
0.3,4.3,0,0.299965,-0.000256819,0
0.3,4.4,0,0.299976,-0.000261345,0
0.3,4.5,0,0.299952,-0.000224291,0
0.3,4.6,0,0.299976,-0.00023035,0
0.3,4.7,0,0.299963,-0.000212892,0
0.3,4.8,0,0.299963,-0.000197014,0
0.3,4.9,0,0.299976,-0.000198595,0
0.3,5,0,0.29995,-0.000170181,0
0.3,5.1,0,0.299949,-0.000153617,0
0.3,5.2,0,0.299949,-0.00014135,0
0.3,5.3,0,0.299949,-0.000128998,0
0.3,5.4,0,0.299948,-0.000116572,0
0.3,5.5,0,0.299948,-0.000104076,0
0.3,5.6,0,0.299948,-9.1515e-05,0
0.3,5.7,0,0.299947,-7.88963e-05,0
0.3,5.8,0,0.299947,-6.62213e-05,0
0.3,5.9,0,0.299947,-5.34974e-05,0
0.3,6,0,0.299947,-3.35146e-05,0
0.3,6.1,0,0.299969,-2.45998e-05,0
0.3,6.2,0,0.299977,-2.15688e-05,0
0.3,6.3,0,0.299955,-4.4281e-06,0
0.3,6.4,0,0.299961,1.25288e-05,0
0.3,6.5,0,0.299977,2.40965e-05,0
0.3,6.6,0,0.299962,3.34897e-05,0
0.3,6.7,0,0.299954,4.96028e-05,0
0.3,6.8,0,0.299976,6.9067e-05,0
0.3,6.9,0,0.29997,7.32541e-05,0
0.3,7,0,0.299948,8.50073e-05,0
0.3,7.1,0,0.299969,0.000106571,0
0.3,7.2,0,0.299978,0.000115182,0
0.3,7.3,0,0.299957,0.000123332,0
0.3,7.4,0,0.299961,0.000141548,0
0.3,7.5,0,0.299978,0.000159736,0
0.3,7.6,0,0.299965,0.000162962,0
0.3,7.7,0,0.299955,0.000173799,0
0.3,7.8,0,0.299976,0.00020074,0
0.3,7.9,0,0.299973,0.000203686,0
0.3,8,0,0.299953,0.00020586,0
0.3,8.1,0,0.299969,0.000232315,0
0.3,8.2,0,0.299978,0.000245142,0
0.3,8.3,0,0.299962,0.000244081,0
0.3,8.4,0,0.299963,0.000260705,0
0.3,8.5,0,0.299978,0.000285354,0
0.3,8.6,0,0.299969,0.000282863,0
0.3,8.7,0,0.299959,0.000285788,0
0.3,8.8,0,0.299975,0.000318862,0
0.3,8.9,0,0.299975,0.00032196,0
0.3,9,0,0.299961,0.000313891,0
0.3,9.1,0,0.299971,0.000342224,0
0.3,9.2,0,0.299978,0.000359254,0
0.3,9.3,0,0.299968,0.000349563,0
0.3,9.4,0,0.299967,0.000361909,0
0.3,9.5,0,0.299977,0.000392342,0
0.3,9.6,0,0.299973,0.000384993,0
0.3,9.7,0,0.299966,0.000377865,0
0.3,9.8,0,0.299975,0.000415337,0
0.3,9.9,0,0.299976,0.000419877,0
0.3,10,0,0.29997,0.000401459,0
0.3,10.1,0,0.299974,0.000428527,0
0.3,10.2,0,0.299977,0.000449284,0
0.3,10.3,0,0.299975,0.000432095,0
0.3,10.4,0,0.299974,0.000437719,0
0.3,10.5,0,0.299976,0.000472509,0
0.3,10.6,0,0.299977,0.000461525,0
0.3,10.7,0,0.299978,0.000442992,0
0.3,10.8,0,0.299976,0.000482338,0
0.3,10.9,0,0.299976,0.000489264,0
0.3,11,0,0.299981,0.000461294,0
0.3,11.1,0,0.299978,0.000483629,0
0.3,11.2,0,0.299974,0.0005067,0
0.3,11.3,0,0.299981,0.00048397,0
0.3,11.4,0,0.299983,0.000480944,0
0.3,11.5,0,0.299972,0.000517146,0
0.3,11.6,0,0.299978,0.000504227,0
0.3,11.7,0,0.299992,0.00047464,0
0.3,11.8,0,0.299975,0.000512273,0
0.3,11.9,0,0.299971,0.000521777,0
0.3,12,0,0.299992,0.00048655,0
0.3,12.1,0,0.299984,0.000500891,0
0.3,12.2,0,0.29997,0.000523666,0
0.3,12.3,0,0.299987,0.000498114,0
0.3,12.4,0,0.299995,0.000486153,0
0.3,12.5,0,0.299972,0.000521293,0
0.3,12.6,0,0.299976,0.00059775,0
0.3,12.7,0,0.299996,0.000650134,0
0.4,0,0,0.300001,-0.000775952,0
0.4,0.1,0,0.299972,-0.000703636,0
0.4,0.2,0,0.299989,-0.00066243,0
0.4,0.3,0,0.299989,-0.000664047,0
0.4,0.4,0,0.29997,-0.000688561,0
0.4,0.5,0,0.300001,-0.000643461,0
0.4,0.6,0,0.299969,-0.000690144,0
0.4,0.7,0,0.299982,-0.000666281,0
0.4,0.8,0,0.299982,-0.000665354,0
0.4,0.9,0,0.299967,-0.000687049,0
0.4,1,0,0.299991,-0.000638505,0
0.4,1.1,0,0.299968,-0.000682447,0
0.4,1.2,0,0.299976,-0.000656012,0
0.4,1.3,0,0.299977,-0.000652433,0
0.4,1.4,0,0.299967,-0.000670922,0
0.4,1.5,0,0.29998,-0.000621032,0
0.4,1.6,0,0.299968,-0.000661121,0
0.4,1.7,0,0.299971,-0.000632678,0
0.4,1.8,0,0.299971,-0.000626495,0
0.4,1.9,0,0.299966,-0.000641302,0
0.4,2,0,0.29997,-0.000591219,0
0.4,2.1,0,0.299966,-0.000626532,0
0.4,2.2,0,0.299965,-0.000596898,0
0.4,2.3,0,0.299965,-0.000588388,0
0.4,2.4,0,0.299965,-0.000599268,0
0.4,2.5,0,0.299961,-0.000550245,0
0.4,2.6,0,0.299965,-0.000580147,0
0.4,2.7,0,0.29996,-0.000550004,0
0.4,2.8,0,0.299961,-0.000539464,0
0.4,2.9,0,0.299963,-0.000546328,0
0.4,3,0,0.299953,-0.000499287,0
0.4,3.1,0,0.299963,-0.000523429,0
0.4,3.2,0,0.299956,-0.000493332,0
0.4,3.3,0,0.299956,-0.000481037,0
0.4,3.4,0,0.299962,-0.00048391,0
0.4,3.5,0,0.299946,-0.000439572,0
0.4,3.6,0,0.299962,-0.000457755,0
0.4,3.7,0,0.299952,-0.000428199,0
0.4,3.8,0,0.299953,-0.000414404,0
0.4,3.9,0,0.299961,-0.000413368,0
0.4,4,0,0.299941,-0.000372378,0
0.4,4.1,0,0.299961,-0.000384479,0
0.4,4.2,0,0.299949,-0.000355936,0
0.4,4.3,0,0.299949,-0.000340916,0
0.4,4.4,0,0.29996,-0.000336108,0
0.4,4.5,0,0.299936,-0.000299055,0
0.4,4.6,0,0.29996,-0.000305114,0
0.4,4.7,0,0.299947,-0.000278036,0
0.4,4.8,0,0.299947,-0.000262158,0
0.4,4.9,0,0.299959,-0.000255322,0
0.4,5,0,0.299933,-0.000226908,0
0.4,5.1,0,0.299932,-0.000204823,0
0.4,5.2,0,0.299932,-0.000188467,0
0.4,5.3,0,0.299931,-0.000171997,0
0.4,5.4,0,0.299931,-0.000155429,0
0.4,5.5,0,0.299931,-0.000138767,0
0.4,5.6,0,0.29993,-0.00012202,0
0.4,5.7,0,0.29993,-0.000105195,0
0.4,5.8,0,0.299929,-8.8295e-05,0
0.4,5.9,0,0.299929,-7.13299e-05,0
0.4,6,0,0.299929,-4.46861e-05,0
0.4,6.1,0,0.299951,-3.57714e-05,0
0.4,6.2,0,0.299959,-2.1198e-05,0
0.4,6.3,0,0.299937,-3.88419e-06,0
0.4,6.4,0,0.299944,1.30727e-05,0
0.4,6.5,0,0.299964,3.11095e-05,0
0.4,6.6,0,0.299945,4.80775e-05,0
0.4,6.7,0,0.299936,6.41906e-05,0
0.4,6.8,0,0.299958,8.36549e-05,0
0.4,6.9,0,0.299953,0.000101786,0
0.4,7,0,0.299931,0.000113539,0
0.4,7.1,0,0.299951,0.000135103,0
0.4,7.2,0,0.299962,0.000156929,0
0.4,7.3,0,0.29994,0.000165599,0
0.4,7.4,0,0.299944,0.000183815,0
0.4,7.5,0,0.299965,0.000208594,0
0.4,7.6,0,0.299949,0.00021865,0
0.4,7.7,0,0.299938,0.000229486,0
0.4,7.8,0,0.299959,0.000256428,0
0.4,7.9,0,0.299957,0.000272379,0
0.4,8,0,0.299937,0.000274553,0
0.4,8.1,0,0.299953,0.000301008,0
0.4,8.2,0,0.299964,0.000326455,0
0.4,8.3,0,0.299946,0.000325263,0
0.4,8.4,0,0.299948,0.000341887,0
0.4,8.5,0,0.299966,0.000373088,0
0.4,8.6,0,0.299954,0.000375921,0
0.4,8.7,0,0.299944,0.000378845,0
0.4,8.8,0,0.299961,0.00041192,0
0.4,8.9,0,0.299961,0.000426186,0
0.4,9,0,0.299947,0.000418118,0
0.4,9.1,0,0.299957,0.00044645,0
0.4,9.2,0,0.299967,0.000475698,0
0.4,9.3,0,0.299955,0.00046416,0
0.4,9.4,0,0.299955,0.000476507,0
0.4,9.5,0,0.299966,0.000512737,0
0.4,9.6,0,0.299961,0.000509075,0
0.4,9.7,0,0.299955,0.000501947,0
0.4,9.8,0,0.299964,0.000539418,0
0.4,9.9,0,0.299966,0.000552469,0
0.4,10,0,0.29996,0.000534051,0
0.4,10.1,0,0.299963,0.000561119,0
0.4,10.2,0,0.299968,0.000593896,0
0.4,10.3,0,0.299966,0.000572138,0
0.4,10.4,0,0.299965,0.000577761,0
0.4,10.5,0,0.299967,0.000616851,0
0.4,10.6,0,0.299969,0.000607877,0
0.4,10.7,0,0.29997,0.000589344,0
0.4,10.8,0,0.299968,0.000628691,0
0.4,10.9,0,0.29997,0.000640698,0
0.4,11,0,0.299976,0.000612728,0
0.4,11.1,0,0.299972,0.000635063,0
0.4,11.2,0,0.299967,0.000668432,0
0.4,11.3,0,0.299977,0.00063915,0
0.4,11.4,0,0.299979,0.000636124,0
0.4,11.5,0,0.299967,0.000674636,0
0.4,11.6,0,0.299976,0.000661813,0
0.4,11.7,0,0.29999,0.000632226,0
0.4,11.8,0,0.299973,0.000669859,0
0.4,11.9,0,0.299971,0.000680438,0
0.4,12,0,0.299992,0.00064521,0
0.4,12.1,0,0.299983,0.000659552,0
0.4,12.2,0,0.299966,0.000690076,0
0.4,12.3,0,0.299989,0.000656129,0
0.4,12.4,0,0.299996,0.000644167,0
0.4,12.5,0,0.299973,0.000678765,0
0.4,12.6,0,0.29998,0.000715235,0
0.4,12.7,0,0.300001,0.000767619,0
0.5,0,0,0.300006,-0.00089587,0
0.5,0.1,0,0.299981,-0.000835935,0
0.5,0.2,0,0.299991,-0.000822509,0
0.5,0.3,0,0.299991,-0.000824126,0
0.5,0.4,0,0.299976,-0.000841517,0
0.5,0.5,0,0.300002,-0.000804326,0
0.5,0.6,0,0.299974,-0.000843124,0
0.5,0.7,0,0.299981,-0.000826938,0
0.5,0.8,0,0.299981,-0.000826011,0
0.5,0.9,0,0.29997,-0.0008391,0
0.5,1,0,0.299989,-0.000798131,0
0.5,1.1,0,0.299969,-0.000833857,0
0.5,1.2,0,0.299972,-0.000813852,0
0.5,1.3,0,0.299973,-0.000810274,0
0.5,1.4,0,0.299965,-0.000819156,0
0.5,1.5,0,0.299975,-0.00077629,0
0.5,1.6,0,0.299964,-0.000808018,0
0.5,1.7,0,0.299964,-0.000784576,0
0.5,1.8,0,0.299965,-0.000778393,0
0.5,1.9,0,0.29996,-0.000782807,0
0.5,2,0,0.299962,-0.000739024,0
0.5,2.1,0,0.299958,-0.000766056,0
0.5,2.2,0,0.299956,-0.000739912,0
0.5,2.3,0,0.299957,-0.000731402,0
0.5,2.4,0,0.299955,-0.000731385,0
0.5,2.5,0,0.299951,-0.000687806,0
0.5,2.6,0,0.299954,-0.000709686,0
0.5,2.7,0,0.299949,-0.000681489,0
0.5,2.8,0,0.29995,-0.000670949,0
0.5,2.9,0,0.29995,-0.000666641,0
0.5,3,0,0.299941,-0.000624109,0
0.5,3.1,0,0.29995,-0.000640622,0
0.5,3.2,0,0.299943,-0.000610943,0
0.5,3.3,0,0.299943,-0.000598648,0
0.5,3.4,0,0.299946,-0.000590272,0
0.5,3.5,0,0.299933,-0.000549465,0
0.5,3.6,0,0.299945,-0.000560525,0
0.5,3.7,0,0.299938,-0.000529906,0
0.5,3.8,0,0.299938,-0.000516111,0
0.5,3.9,0,0.299943,-0.000503937,0
0.5,4,0,0.299926,-0.000465472,0
0.5,4.1,0,0.299943,-0.000471058,0
0.5,4.2,0,0.299934,-0.000440034,0
0.5,4.3,0,0.299934,-0.000425014,0
0.5,4.4,0,0.29994,-0.000409363,0
0.5,4.5,0,0.29992,-0.000373818,0
0.5,4.6,0,0.29994,-0.000374058,0
0.5,4.7,0,0.29993,-0.00034318,0
0.5,4.8,0,0.29993,-0.000327302,0
0.5,4.9,0,0.299938,-0.000311522,0
0.5,5,0,0.299916,-0.000283635,0
0.5,5.1,0,0.299915,-0.000256029,0
0.5,5.2,0,0.299915,-0.000235584,0
0.5,5.3,0,0.299914,-0.000214997,0
0.5,5.4,0,0.299914,-0.000194287,0
0.5,5.5,0,0.299913,-0.000173459,0
0.5,5.6,0,0.299913,-0.000152525,0
0.5,5.7,0,0.299912,-0.000131494,0
0.5,5.8,0,0.299912,-0.000110369,0
0.5,5.9,0,0.299911,-8.91624e-05,0
0.5,6,0,0.299911,-5.58576e-05,0
0.5,6.1,0,0.299934,-4.69429e-05,0
0.5,6.2,0,0.299936,-2.27342e-05,0
0.5,6.3,0,0.299919,-3.34028e-06,0
0.5,6.4,0,0.299926,1.36166e-05,0
0.5,6.5,0,0.299936,3.82091e-05,0
0.5,6.6,0,0.299927,6.26654e-05,0
0.5,6.7,0,0.299918,7.87785e-05,0
0.5,6.8,0,0.299936,0.000100397,0
0.5,6.9,0,0.299935,0.000130317,0
0.5,7,0,0.299913,0.000142071,0
0.5,7.1,0,0.299934,0.000163634,0
0.5,7.2,0,0.299938,0.00019294,0
0.5,7.3,0,0.299923,0.000207866,0
0.5,7.4,0,0.299927,0.000226081,0
0.5,7.5,0,0.299939,0.000253303,0
0.5,7.6,0,0.299932,0.000274338,0
0.5,7.7,0,0.299921,0.000285174,0
0.5,7.8,0,0.29994,0.000312405,0
0.5,7.9,0,0.299941,0.000341071,0
0.5,8,0,0.299921,0.000343245,0
0.5,8.1,0,0.299937,0.0003697,0
0.5,8.2,0,0.299942,0.000397919,0
0.5,8.3,0,0.299931,0.000406444,0
0.5,8.4,0,0.299932,0.000423068,0
0.5,8.5,0,0.299943,0.000452271,0
0.5,8.6,0,0.299939,0.000468979,0
0.5,8.7,0,0.29993,0.000471903,0
0.5,8.8,0,0.299945,0.000504305,0
0.5,8.9,0,0.299947,0.000529311,0
0.5,9,0,0.299933,0.000522344,0
0.5,9.1,0,0.299943,0.000550677,0
0.5,9.2,0,0.299949,0.000576973,0
0.5,9.3,0,0.299942,0.000578758,0
0.5,9.4,0,0.299942,0.000591105,0
0.5,9.5,0,0.29995,0.000621586,0
0.5,9.6,0,0.299949,0.000633156,0
0.5,9.7,0,0.299943,0.000626029,0
0.5,9.8,0,0.299952,0.000662886,0
0.5,9.9,0,0.299955,0.000681939,0
0.5,10,0,0.299949,0.000666643,0
0.5,10.1,0,0.299953,0.000693711,0
0.5,10.2,0,0.299957,0.000717282,0
0.5,10.3,0,0.299957,0.00071218,0
0.5,10.4,0,0.299956,0.000717804,0
0.5,10.5,0,0.299959,0.000748573,0
0.5,10.6,0,0.299962,0.00075423,0
0.5,10.7,0,0.299963,0.000735697,0
0.5,10.8,0,0.299961,0.000775043,0
0.5,10.9,0,0.299964,0.000786886,0
0.5,11,0,0.29997,0.000764161,0
0.5,11.1,0,0.299966,0.000786496,0
0.5,11.2,0,0.299966,0.000806146,0
0.5,11.3,0,0.299973,0.000794329,0
0.5,11.4,0,0.299975,0.000791304,0
0.5,11.5,0,0.299968,0.000820431,0
0.5,11.6,0,0.299974,0.000819399,0
0.5,11.7,0,0.299988,0.000789812,0
0.5,11.8,0,0.299971,0.000827445,0
0.5,11.9,0,0.299973,0.000832199,0
0.5,12,0,0.299991,0.000803871,0
0.5,12.1,0,0.299983,0.000818212,0
0.5,12.2,0,0.299976,0.000832196,0
0.5,12.3,0,0.29999,0.000814143,0
0.5,12.4,0,0.299997,0.000802182,0
0.5,12.5,0,0.29998,0.000828268,0
0.5,12.6,0,0.299984,0.000832721,0
0.5,12.7,0,0.300005,0.000885105,0
0.6,0,0,0.30001,-0.00101579,0
0.6,0.1,0,0.299994,-0.000980616,0
0.6,0.2,0,0.299993,-0.000982589,0
0.6,0.3,0,0.299992,-0.000984206,0
0.6,0.4,0,0.299988,-0.000986563,0
0.6,0.5,0,0.300002,-0.000965192,0
0.6,0.6,0,0.299984,-0.00098822,0
0.6,0.7,0,0.29998,-0.000987595,0
0.6,0.8,0,0.29998,-0.000986668,0
0.6,0.9,0,0.299976,-0.000983575,0
0.6,1,0,0.299986,-0.000957757,0
0.6,1.1,0,0.299973,-0.00097705,0
0.6,1.2,0,0.299969,-0.000971693,0
0.6,1.3,0,0.29997,-0.000968114,0
0.6,1.4,0,0.299965,-0.000960367,0
0.6,1.5,0,0.29997,-0.000931548,0
0.6,1.6,0,0.299962,-0.000946553,0
0.6,1.7,0,0.299958,-0.000936474,0
0.6,1.8,0,0.299958,-0.000930291,0
0.6,1.9,0,0.299955,-0.00091801,0
0.6,2,0,0.299955,-0.000886828,0
0.6,2.1,0,0.299951,-0.000897298,0
0.6,2.2,0,0.299948,-0.000882926,0
0.6,2.3,0,0.299948,-0.000874416,0
0.6,2.4,0,0.299945,-0.000858058,0
0.6,2.5,0,0.299941,-0.000825367,0
0.6,2.6,0,0.299942,-0.000831203,0
0.6,2.7,0,0.299939,-0.000812973,0
0.6,2.8,0,0.299939,-0.000802433,0
0.6,2.9,0,0.299936,-0.000782445,0
0.6,3,0,0.29993,-0.00074893,0
0.6,3.1,0,0.299933,-0.000750186,0
0.6,3.2,0,0.299931,-0.000728555,0
0.6,3.3,0,0.299931,-0.000716259,0
0.6,3.4,0,0.299928,-0.000693104,0
0.6,3.5,0,0.299919,-0.000659358,0
0.6,3.6,0,0.299926,-0.000656171,0
0.6,3.7,0,0.299924,-0.000631613,0
0.6,3.8,0,0.299924,-0.000617818,0
0.6,3.9,0,0.299922,-0.000591981,0
0.6,4,0,0.299911,-0.000558567,0
0.6,4.1,0,0.29992,-0.000551122,0
0.6,4.2,0,0.299919,-0.000524131,0
0.6,4.3,0,0.299919,-0.000509111,0
0.6,4.4,0,0.299917,-0.00048111,0
0.6,4.5,0,0.299904,-0.000448582,0
0.6,4.6,0,0.299915,-0.000437182,0
0.6,4.7,0,0.299914,-0.000408324,0
0.6,4.8,0,0.299914,-0.000392447,0
0.6,4.9,0,0.299913,-0.000367195,0
0.6,5,0,0.299899,-0.000340362,0
0.6,5.1,0,0.299898,-0.000307234,0
0.6,5.2,0,0.299898,-0.000282701,0
0.6,5.3,0,0.299897,-0.000257996,0
0.6,5.4,0,0.299896,-0.000233144,0
0.6,5.5,0,0.299896,-0.000208151,0
0.6,5.6,0,0.299895,-0.00018303,0
0.6,5.7,0,0.299895,-0.000157793,0
0.6,5.8,0,0.299894,-0.000132443,0
0.6,5.9,0,0.299894,-0.000106995,0
0.6,6,0,0.299894,-6.70292e-05,0
0.6,6.1,0,0.299909,-5.24008e-05,0
0.6,6.2,0,0.299909,-2.61722e-05,0
0.6,6.3,0,0.299901,-2.79636e-06,0
0.6,6.4,0,0.299908,1.41606e-05,0
0.6,6.5,0,0.299909,4.53087e-05,0
0.6,6.6,0,0.299909,7.67503e-05,0
0.6,6.7,0,0.2999,9.33663e-05,0
0.6,6.8,0,0.299909,0.000120235,0
0.6,6.9,0,0.299909,0.000151453,0
0.6,7,0,0.299896,0.000170602,0
0.6,7.1,0,0.29991,0.000194594,0
0.6,7.2,0,0.299911,0.000225344,0
0.6,7.3,0,0.299906,0.000250133,0
0.6,7.4,0,0.29991,0.000268348,0
0.6,7.5,0,0.299912,0.000298012,0
0.6,7.6,0,0.299913,0.000328059,0
0.6,7.7,0,0.299905,0.000340862,0
0.6,7.8,0,0.299914,0.000369064,0
0.6,7.9,0,0.299915,0.000398179,0
0.6,8,0,0.299905,0.000411937,0
0.6,8.1,0,0.299916,0.000438118,0
0.6,8.2,0,0.299918,0.000466079,0
0.6,8.3,0,0.299915,0.000487626,0
0.6,8.4,0,0.299917,0.00050425,0
0.6,8.5,0,0.299921,0.000531392,0
0.6,8.6,0,0.299922,0.00055798,0
0.6,8.7,0,0.299915,0.000564961,0
0.6,8.8,0,0.299924,0.000593759,0
0.6,8.9,0,0.299926,0.000618764,0
0.6,9,0,0.29992,0.000626571,0
0.6,9.1,0,0.299927,0.000652827,0
0.6,9.2,0,0.299929,0.000676046,0
0.6,9.3,0,0.299929,0.000693356,0
0.6,9.4,0,0.299929,0.000705702,0
0.6,9.5,0,0.299933,0.000729484,0
0.6,9.6,0,0.299936,0.000750717,0
0.6,9.7,0,0.299932,0.00075011,0
0.6,9.8,0,0.299937,0.000778741,0
0.6,9.9,0,0.29994,0.000797793,0
0.6,10,0,0.299939,0.000799235,0
0.6,10.1,0,0.299942,0.000823474,0
0.6,10.2,0,0.299945,0.000840155,0
0.6,10.3,0,0.299948,0.000852223,0
0.6,10.4,0,0.299947,0.000857847,0
0.6,10.5,0,0.29995,0.000877465,0
0.6,10.6,0,0.299954,0.000891591,0
0.6,10.7,0,0.299955,0.000882049,0
0.6,10.8,0,0.299956,0.000909368,0
0.6,10.9,0,0.29996,0.000920744,0
0.6,11,0,0.299964,0.000915595,0
0.6,11.1,0,0.299961,0.000935473,0
0.6,11.2,0,0.299965,0.00094386,0
0.6,11.3,0,0.299969,0.000949509,0
0.6,11.4,0,0.299971,0.000946484,0
0.6,11.5,0,0.299971,0.000960815,0
0.6,11.6,0,0.299975,0.000966202,0
0.6,11.7,0,0.299986,0.000947399,0
0.6,11.8,0,0.299977,0.000971645,0
0.6,11.9,0,0.29998,0.00097405,0
0.6,12,0,0.299991,0.000962531,0
0.6,12.1,0,0.299983,0.000975762,0
0.6,12.2,0,0.299987,0.000974316,0
0.6,12.3,0,0.299991,0.000972158,0
0.6,12.4,0,0.299999,0.000960196,0
0.6,12.5,0,0.299992,0.00096999,0
0.6,12.6,0,0.299994,0.000968112,0
0.6,12.7,0,0.300009,0.00100259,0
0.7,0,0,0.300015,-0.0011357,0
0.7,0.1,0,0.300008,-0.0011253,0
0.7,0.2,0,0.300006,-0.00112727,0
0.7,0.3,0,0.300004,-0.00112925,0
0.7,0.4,0,0.3,-0.00113161,0
0.7,0.5,0,0.300002,-0.00112606,0
0.7,0.6,0,0.299994,-0.00113332,0
0.7,0.7,0,0.29999,-0.00113269,0
0.7,0.8,0,0.299987,-0.00113114,0
0.7,0.9,0,0.299983,-0.00112805,0
0.7,1,0,0.299984,-0.00111738,0
0.7,1.1,0,0.299977,-0.00112024,0
0.7,1.2,0,0.299973,-0.00111489,0
0.7,1.3,0,0.29997,-0.00110932,0
0.7,1.4,0,0.299966,-0.00110158,0
0.7,1.5,0,0.299965,-0.00108681,0
0.7,1.6,0,0.29996,-0.00108509,0
0.7,1.7,0,0.299956,-0.00107501,0
0.7,1.8,0,0.299953,-0.0010655,0
0.7,1.9,0,0.29995,-0.00105321,0
0.7,2,0,0.299947,-0.00103463,0
0.7,2.1,0,0.299943,-0.00102854,0
0.7,2.2,0,0.29994,-0.00101417,0
0.7,2.3,0,0.299938,-0.00100109,0
0.7,2.4,0,0.299935,-0.00098473,0
0.7,2.5,0,0.299931,-0.000962928,0
0.7,2.6,0,0.29993,-0.00095272,0
0.7,2.7,0,0.299927,-0.00093449,0
0.7,2.8,0,0.299925,-0.000918238,0
0.7,2.9,0,0.299922,-0.000898249,0
0.7,3,0,0.299918,-0.000873752,0
0.7,3.1,0,0.299917,-0.00085975,0
0.7,3.2,0,0.299915,-0.000838119,0
0.7,3.3,0,0.299913,-0.000819091,0
0.7,3.4,0,0.29991,-0.000795936,0
0.7,3.5,0,0.299906,-0.000769251,0
0.7,3.6,0,0.299906,-0.000751816,0
0.7,3.7,0,0.299904,-0.000727259,0
0.7,3.8,0,0.299903,-0.000705862,0
0.7,3.9,0,0.299901,-0.000680024,0
0.7,4,0,0.299896,-0.000651661,0
0.7,4.1,0,0.299898,-0.000631186,0
0.7,4.2,0,0.299896,-0.000604195,0
0.7,4.3,0,0.299895,-0.000580858,0
0.7,4.4,0,0.299894,-0.000552856,0
0.7,4.5,0,0.299888,-0.000523345,0
0.7,4.6,0,0.299891,-0.000500307,0
0.7,4.7,0,0.29989,-0.000471449,0
0.7,4.8,0,0.299889,-0.000448119,0
0.7,4.9,0,0.299888,-0.000422868,0
0.7,5,0,0.299883,-0.000397089,0
0.7,5.1,0,0.299881,-0.00035844,0
0.7,5.2,0,0.299881,-0.000329817,0
0.7,5.3,0,0.29988,-0.000300995,0
0.7,5.4,0,0.299879,-0.000272001,0
0.7,5.5,0,0.299878,-0.000242843,0
0.7,5.6,0,0.299878,-0.000213535,0
0.7,5.7,0,0.299877,-0.000184091,0
0.7,5.8,0,0.299877,-0.000154516,0
0.7,5.9,0,0.299876,-0.000124827,0
0.7,6,0,0.299876,-7.82007e-05,0
0.7,6.1,0,0.299881,-5.58389e-05,0
0.7,6.2,0,0.299881,-2.96103e-05,0
0.7,6.3,0,0.299881,-3.38165e-06,0
0.7,6.4,0,0.299881,2.09666e-05,0
0.7,6.5,0,0.299881,5.24082e-05,0
0.7,6.6,0,0.299881,8.38499e-05,0
0.7,6.7,0,0.299881,0.000108855,0