x,y,z,U_0,U_1,U_2
0,0,0,0.299993,-0.00170458,0
0,0.1,0,0.299995,-0.00121755,0
0,0.2,0,0.299997,-0.000730533,0
0,0.3,0,0.299999,-0.000243511,0
0,0.4,0,0.3,0,0
0,0.5,0,0.3,0,0
0,0.6,0,0.3,0,0
0,0.7,0,0.3,-6.5178e-19,0
0,0.8,0,0.3,0,0
0,0.9,0,0.3,0,0
0,1,0,0.3,0,0
0,1.1,0,0.3,0,0
0,1.2,0,0.3,0,0
0,1.3,0,0.3,0,0
0,1.4,0,0.3,-6.12947e-19,0
0,1.5,0,0.3,0,0
0,1.6,0,0.3,0,0
0,1.7,0,0.3,0,0
0,1.8,0,0.3,0,0
0,1.9,0,0.3,0,0
0,2,0,0.3,0,0
0,2.1,0,0.3,0,0
0,2.2,0,0.3,0,0
0,2.3,0,0.3,0,0
0,2.4,0,0.3,0,0
0,2.5,0,0.3,0,0
0,2.6,0,0.3,0,0
0,2.7,0,0.3,0,0
0,2.8,0,0.3,-4.79699e-19,0
0,2.9,0,0.3,0,0
0,3,0,0.3,0,0
0,3.1,0,0.3,0,0
0,3.2,0,0.3,0,0
0,3.3,0,0.3,0,0
0,3.4,0,0.3,0,0
0,3.5,0,0.3,0,0
0,3.6,0,0.3,0,0
0,3.7,0,0.3,0,0
0,3.8,0,0.3,0,0
0,3.9,0,0.3,0,0
0,4,0,0.3,0,0
0,4.1,0,0.3,0,0
0,4.2,0,0.3,0,0
0,4.3,0,0.3,0,0
0,4.4,0,0.3,0,0
0,4.5,0,0.3,0,0
0,4.6,0,0.3,0,0
0,4.7,0,0.3,0,0
0,4.8,0,0.3,0,0
0,4.9,0,0.3,0,0
0,5,0,0.3,0,0
0,5.1,0,0.3,0,0
0,5.2,0,0.3,0,0
0,5.3,0,0.3,0,0
0,5.4,0,0.3,0,0
0,5.5,0,0.3,0,0
0,5.6,0,0.3,0,0
0,5.7,0,0.3,0,0
0,5.8,0,0.3,0,0
0,5.9,0,0.3,0,0
0,6,0,0.3,0,0
0,6.1,0,0.3,0,0
0,6.2,0,0.3,0,0
0,6.3,0,0.3,0,0
0,6.4,0,0.3,0,0
0,6.5,0,0.3,0,0
0,6.6,0,0.3,0,0
0,6.7,0,0.3,0,0
0,6.8,0,0.3,0,0
0,6.9,0,0.3,0,0
0,7,0,0.3,0,0
0,7.1,0,0.3,0,0
0,7.2,0,0.3,0,0
0,7.3,0,0.3,0,0
0,7.4,0,0.3,0,0
0,7.5,0,0.3,0,0
0,7.6,0,0.3,1.73161e-19,0
0,7.7,0,0.3,0,0
0,7.8,0,0.3,0,0
0,7.9,0,0.3,2.16136e-19,0
0,8,0,0.3,0,0
0,8.1,0,0.3,0,0
0,8.2,0,0.3,0,0
0,8.3,0,0.3,0,0
0,8.4,0,0.3,0,0
0,8.5,0,0.3,0,0
0,8.6,0,0.3,0,0
0,8.7,0,0.3,0,0
0,8.8,0,0.3,0,0
0,8.9,0,0.3,0,0
0,9,0,0.3,0,0
0,9.1,0,0.3,0,0
0,9.2,0,0.3,0,0
0,9.3,0,0.3,0,0
0,9.4,0,0.3,0,0
0,9.5,0,0.3,0,0
0,9.6,0,0.3,0,0
0,9.7,0,0.3,0,0
0,9.8,0,0.3,0,0
0,9.9,0,0.3,0,0
0,10,0,0.3,0,0
0,10.1,0,0.3,0,0
0,10.2,0,0.3,0,0
0,10.3,0,0.3,0,0
0,10.4,0,0.3,0,0
0,10.5,0,0.3,0,0
0,10.6,0,0.3,0,0
0,10.7,0,0.3,0,0
0,10.8,0,0.3,0,0
0,10.9,0,0.3,0,0
0,11,0,0.3,0,0
0,11.1,0,0.3,0,0
0,11.2,0,0.3,0,0
0,11.3,0,0.3,0,0
0,11.4,0,0.3,0,0
0,11.5,0,0.3,0,0
0,11.6,0,0.3,0,0
0,11.7,0,0.3,0,0
0,11.8,0,0.3,0,0
0,11.9,0,0.3,0,0
0,12,0,0.3,0,0
0,12.1,0,0.3,0,0
0,12.2,0,0.3,0,0
0,12.3,0,0.3,0,0
0,12.4,0,0.3,0,0
0,12.5,0,0.299999,0.000253128,0
0,12.6,0,0.299996,0.000976352,0
0,12.7,0,0.299992,0.00169957,0
0.1,0,0,0.299963,-0.00266021,0
0.1,0.1,0,0.29999,-0.00238047,0
0.1,0.2,0,0.299992,-0.00189345,0
0.1,0.3,0,0.299983,-0.00146457,0
0.1,0.4,0,0.299982,-0.0014192,0
0.1,0.5,0,0.299993,-0.00147114,0
0.1,0.6,0,0.299993,-0.00147114,0
0.1,0.7,0,0.299955,-0.0013046,0
0.1,0.8,0,0.299988,-0.00140329,0
0.1,0.9,0,0.299988,-0.00140329,0
0.1,1,0,0.299975,-0.00135647,0
0.1,1.1,0,0.299977,-0.00131191,0
0.1,1.2,0,0.299991,-0.00133396,0
0.1,1.3,0,0.299991,-0.00133396,0
0.1,1.4,0,0.299951,-0.00122688,0
0.1,1.5,0,0.299995,-0.00126241,0
0.1,1.6,0,0.299995,-0.00126241,0
0.1,1.7,0,0.299978,-0.00122983,0
0.1,1.8,0,0.299979,-0.00118004,0
0.1,1.9,0,0.299996,-0.00118496,0
0.1,2,0,0.299996,-0.00118496,0
0.1,2.1,0,0.299945,-0.00110725,0
0.1,2.2,0,0.299996,-0.00110388,0
0.1,2.3,0,0.299996,-0.00110388,0
0.1,2.4,0,0.299977,-0.00107987,0
0.1,2.5,0,0.299977,-0.00102637,0
0.1,2.6,0,0.299996,-0.00102065,0
0.1,2.7,0,0.299996,-0.00102065,0
0.1,2.8,0,0.299941,-0.000960166,0
0.1,2.9,0,0.299997,-0.000934289,0
0.1,3,0,0.299997,-0.000934289,0
0.1,3.1,0,0.299976,-0.000914547,0
0.1,3.2,0,0.299976,-0.000857718,0
0.1,3.3,0,0.299997,-0.000845889,0
0.1,3.4,0,0.299997,-0.000845889,0
0.1,3.5,0,0.299938,-0.000793896,0
0.1,3.6,0,0.299997,-0.000755396,0
0.1,3.7,0,0.299997,-0.000755396,0
0.1,3.8,0,0.299976,-0.000737578,0
0.1,3.9,0,0.299976,-0.000678287,0
0.1,4,0,0.299997,-0.000663164,0
0.1,4.1,0,0.299997,-0.000663164,0
0.1,4.2,0,0.299936,-0.000614352,0
0.1,4.3,0,0.299997,-0.000569373,0
0.1,4.4,0,0.299997,-0.000569373,0
0.1,4.5,0,0.299975,-0.000552039,0
0.1,4.6,0,0.299975,-0.000490831,0
0.1,4.7,0,0.299997,-0.00047416,0
0.1,4.8,0,0.299997,-0.00047416,0
0.1,4.9,0,0.299935,-0.000425313,0
0.1,5,0,0.299997,-0.000377652,0
0.1,5.1,0,0.299997,-0.000377652,0
0.1,5.2,0,0.299974,-0.000359944,0
0.1,5.3,0,0.299974,-0.000297116,0
0.1,5.4,0,0.299997,-0.00027992,0
0.1,5.5,0,0.299997,-0.00027992,0
0.1,5.6,0,0.299933,-0.000229389,0
0.1,5.7,0,0.299997,-0.000181028,0
0.1,5.8,0,0.299997,-0.000181028,0
0.1,5.9,0,0.299974,-0.000162654,0
0.1,6,0,0.299975,-9.83751e-05,0
0.1,6.1,0,0.299998,-8.10382e-05,0
0.1,6.2,0,0.299998,-8.10382e-05,0
0.1,6.3,0,0.299932,-2.90271e-05,0
0.1,6.4,0,0.3,1.99107e-05,0
0.1,6.5,0,0.3,1.99107e-05,0
0.1,6.6,0,0.299975,3.85043e-05,0
0.1,6.7,0,0.299977,0.000103019,0
0.1,6.8,0,0.300001,0.000120268,0
0.1,6.9,0,0.300001,0.000120268,0
0.1,7,0,0.299932,0.000155894,0
0.1,7.1,0,0.299933,0.000202278,0
0.1,7.2,0,0.299933,0.000231234,0
0.1,7.3,0,0.299933,0.000260131,0
0.1,7.4,0,0.299933,0.000288989,0
0.1,7.5,0,0.299933,0.000317815,0
0.1,7.6,0,0.299933,0.000346599,0
0.1,7.7,0,0.299933,0.000375327,0
0.1,7.8,0,0.299933,0.000403998,0
0.1,7.9,0,0.299933,0.000432617,0
0.1,8,0,0.299933,0.00047052,0
0.1,8.1,0,0.300005,0.000495187,0
0.1,8.2,0,0.299981,0.000505876,0
0.1,8.3,0,0.300004,0.000561,0
0.1,8.4,0,0.300004,0.000561,0
0.1,8.5,0,0.299974,0.000612685,0
0.1,8.6,0,0.300004,0.000627053,0
0.1,8.7,0,0.299941,0.000655141,0
0.1,8.8,0,0.300004,0.000692902,0
0.1,8.9,0,0.299987,0.000699688,0
0.1,9,0,0.300003,0.0007582,0
0.1,9.1,0,0.300003,0.0007582,0
0.1,9.2,0,0.299968,0.00080278,0
0.1,9.3,0,0.300003,0.000822747,0
0.1,9.4,0,0.299949,0.000841177,0
0.1,9.5,0,0.300002,0.000886369,0
0.1,9.6,0,0.299993,0.00088894,0
0.1,9.7,0,0.300002,0.000948902,0
0.1,9.8,0,0.300002,0.000948902,0
0.1,9.9,0,0.299963,0.000980727,0
0.1,10,0,0.300002,0.00101021,0
0.1,10.1,0,0.299958,0.00101551,0
0.1,10.2,0,0.300001,0.00107014,0
0.1,10.3,0,0.299999,0.00107015,0
0.1,10.4,0,0.299998,0.00112608,0
0.1,10.5,0,0.300001,0.00112856,0
0.1,10.6,0,0.299959,0.00113875,0
0.1,10.7,0,0.3,0.00118531,0
0.1,10.8,0,0.299966,0.00117361,0
0.1,10.9,0,0.299999,0.00124026,0
0.1,11,0,0.299999,0.00124026,0
0.1,11.1,0,0.299991,0.00128159,0
0.1,11.2,0,0.299998,0.00129325,0
0.1,11.3,0,0.299958,0.00126585,0
0.1,11.4,0,0.299997,0.0013441,0
0.1,11.5,0,0.299973,0.00131115,0
0.1,11.6,0,0.299996,0.0013929,0
0.1,11.7,0,0.299996,0.0013929,0
0.1,11.8,0,0.299985,0.00140906,0
0.1,11.9,0,0.299995,0.00143954,0
0.1,12,0,0.29996,0.00134654,0
0.1,12.1,0,0.299995,0.00148276,0
0.1,12.2,0,0.29998,0.00142538,0
0.1,12.3,0,0.299995,0.00152366,0
0.1,12.4,0,0.299995,0.00152366,0
0.1,12.5,0,0.299984,0.00149451,0
0.1,12.6,0,0.29999,0.00216039,0
0.1,12.7,0,0.299964,0.0026839,0
0.2,0,0,0.299933,-0.00361585,0
0.2,0.1,0,0.299968,-0.00339533,0
0.2,0.2,0,0.299985,-0.00306799,0
0.2,0.3,0,0.299945,-0.0027903,0
0.2,0.4,0,0.299944,-0.00274493,0
0.2,0.5,0,0.299984,-0.00293189,0
0.2,0.6,0,0.299959,-0.00282332,0
0.2,0.7,0,0.299909,-0.00260921,0
0.2,0.8,0,0.299952,-0.00273609,0
0.2,0.9,0,0.299973,-0.00279722,0
0.2,1,0,0.299928,-0.00262868,0
0.2,1.1,0,0.29993,-0.00258411,0
0.2,1.2,0,0.299979,-0.00266352,0
0.2,1.3,0,0.299953,-0.00259144,0
0.2,1.4,0,0.299901,-0.00245375,0
0.2,1.5,0,0.299958,-0.00249944,0
0.2,1.6,0,0.299986,-0.00251831,0
0.2,1.7,0,0.299925,-0.00240103,0
0.2,1.8,0,0.299926,-0.00235123,0
0.2,1.9,0,0.299989,-0.00236893,0
0.2,2,0,0.299956,-0.00231441,0
0.2,2.1,0,0.29989,-0.00221451,0
0.2,2.2,0,0.299955,-0.00221017,0
0.2,2.3,0,0.299987,-0.00220297,0
0.2,2.4,0,0.29992,-0.00211653,0
0.2,2.5,0,0.29992,-0.00206302,0
0.2,2.6,0,0.299989,-0.00204245,0
0.2,2.7,0,0.299954,-0.0019981,0
0.2,2.8,0,0.299883,-0.00192033,0
0.2,2.9,0,0.299954,-0.00188706,0
0.2,3,0,0.29999,-0.00186463,0
0.2,3.1,0,0.299916,-0.00179356,0
0.2,3.2,0,0.299916,-0.00173673,0
0.2,3.3,0,0.29999,-0.00169414,0
0.2,3.4,0,0.299952,-0.00165464,0
0.2,3.5,0,0.299877,-0.00158779,0
0.2,3.6,0,0.299953,-0.00153829,0
0.2,3.7,0,0.29999,-0.00150723,0
0.2,3.8,0,0.299913,-0.00144309,0
0.2,3.9,0,0.299913,-0.00138379,0
0.2,4,0,0.29999,-0.00132935,0
0.2,4.1,0,0.29995,-0.00129146,0
0.2,4.2,0,0.299873,-0.0012287,0
0.2,4.3,0,0.29995,-0.00117087,0
0.2,4.4,0,0.299989,-0.00113528,0
0.2,4.5,0,0.29991,-0.00107288,0
0.2,4.6,0,0.29991,-0.00101167,0
0.2,4.7,0,0.299989,-0.000951654,0
0.2,4.8,0,0.299949,-0.000913429,0
0.2,4.9,0,0.299869,-0.000850625,0
0.2,5,0,0.299949,-0.000789347,0
0.2,5.1,0,0.299989,-0.000751762,0
0.2,5.2,0,0.299908,-0.000688014,0
0.2,5.3,0,0.299908,-0.000625186,0
0.2,5.4,0,0.299989,-0.000563278,0
0.2,5.5,0,0.299948,-0.000523746,0
0.2,5.6,0,0.299866,-0.000458778,0
0.2,5.7,0,0.299949,-0.000396599,0
0.2,5.8,0,0.29999,-0.00035838,0
0.2,5.9,0,0.299907,-0.000292236,0
0.2,6,0,0.299907,-0.000227957,0
0.2,6.1,0,0.299992,-0.000165544,0
0.2,6.2,0,0.299949,-0.000124926,0
0.2,6.3,0,0.299864,-5.80542e-05,0
0.2,6.4,0,0.299951,4.86578e-06,0
0.2,6.5,0,0.299994,4.35401e-05,0
0.2,6.6,0,0.299907,0.000110477,0
0.2,6.7,0,0.299908,0.000174992,0
0.2,6.8,0,0.299998,0.000237085,0
0.2,6.9,0,0.299953,0.000265983,0
0.2,7,0,0.299864,0.000311788,0
0.2,7.1,0,0.299865,0.000404556,0
0.2,7.2,0,0.299866,0.000462468,0
0.2,7.3,0,0.299866,0.000520261,0
0.2,7.4,0,0.299866,0.000577978,0
0.2,7.5,0,0.299866,0.00063563,0
0.2,7.6,0,0.299866,0.000693197,0
0.2,7.7,0,0.299867,0.000750653,0
0.2,7.8,0,0.299867,0.000807996,0
0.2,7.9,0,0.299867,0.000865234,0
0.2,8,0,0.299867,0.00094104,0
0.2,8.1,0,0.300004,0.000988274,0
0.2,8.2,0,0.299915,0.00103348,0
0.2,8.3,0,0.299955,0.00109677,0
0.2,8.4,0,0.299962,0.0011433,0
0.2,8.5,0,0.299908,0.00120597,0
0.2,8.6,0,0.300008,0.00125411,0
0.2,8.7,0,0.299875,0.00131326,0
0.2,8.8,0,0.299995,0.00137951,0
0.2,8.9,0,0.299922,0.00142159,0
0.2,9,0,0.299948,0.0014855,0
0.2,9.1,0,0.299968,0.0015312,0
0.2,9.2,0,0.299903,0.00158722,0
0.2,9.3,0,0.300005,0.00164549,0
0.2,9.4,0,0.299886,0.00168672,0
0.2,9.5,0,0.299986,0.00176145,0
0.2,9.6,0,0.299931,0.0017939,0
0.2,9.7,0,0.299943,0.0018562,0
0.2,9.8,0,0.299974,0.00190414,0
0.2,9.9,0,0.299901,0.00194316,0
0.2,10,0,0.300004,0.00202042,0
0.2,10.1,0,0.299898,0.00203316,0
0.2,10.2,0,0.29998,0.00212074,0
0.2,10.3,0,0.29994,0.00214044,0
0.2,10.4,0,0.29994,0.00219636,0
0.2,10.5,0,0.29998,0.00225392,0
0.2,10.6,0,0.299902,0.00225874,0
0.2,10.7,0,0.3,0.00237061,0
0.2,10.8,0,0.299911,0.00233997,0
0.2,10.9,0,0.299973,0.00244592,0
0.2,11,0,0.299949,0.00245088,0
0.2,11.1,0,0.299938,0.00249055,0
0.2,11.2,0,0.299983,0.00257379,0
0.2,11.3,0,0.299907,0.00251316,0
0.2,11.4,0,0.299995,0.0026882,0
0.2,11.5,0,0.299924,0.00259203,0
0.2,11.6,0,0.299967,0.00272264,0
0.2,11.7,0,0.299956,0.00271466,0
0.2,11.8,0,0.299939,0.00271837,0
0.2,11.9,0,0.299983,0.00285966,0
0.2,12,0,0.299916,0.00267866,0
0.2,12.1,0,0.299989,0.00296551,0
0.2,12.2,0,0.299941,0.00277329,0
0.2,12.3,0,0.299967,0.00293141,0
0.2,12.4,0,0.299968,0.00292213,0
0.2,12.5,0,0.299951,0.00285242,0
0.2,12.6,0,0.299983,0.00332744,0
0.2,12.7,0,0.299936,0.00366823,0
0.3,0,0,0.299903,-0.00457149,0
0.3,0.1,0,0.299937,-0.00435097,0
0.3,0.2,0,0.299937,-0.00430489,0
0.3,0.3,0,0.299907,-0.00411602,0
0.3,0.4,0,0.299907,-0.00407065,0
0.3,0.5,0,0.29993,-0.00418624,0
0.3,0.6,0,0.299914,-0.00412793,0
0.3,0.7,0,0.299864,-0.00391381,0
0.3,0.8,0,0.299907,-0.0040407,0
0.3,0.9,0,0.299912,-0.00402713,0
0.3,1,0,0.299881,-0.00390088,0
0.3,1.1,0,0.299883,-0.00385631,0
0.3,1.2,0,0.299914,-0.00388982,0
0.3,1.3,0,0.299904,-0.00381831,0
0.3,1.4,0,0.299852,-0.00368063,0
0.3,1.5,0,0.299909,-0.00372632,0
0.3,1.6,0,0.299915,-0.00367427,0
0.3,1.7,0,0.299873,-0.00357222,0
0.3,1.8,0,0.299874,-0.00352243,0
0.3,1.9,0,0.299914,-0.00350682,0
0.3,2,0,0.2999,-0.00342166,0
0.3,2.1,0,0.299835,-0.00332176,0
0.3,2.2,0,0.2999,-0.00331743,0
0.3,2.3,0,0.299909,-0.00324107,0
0.3,2.4,0,0.299863,-0.00315319,0
0.3,2.5,0,0.299863,-0.00309968,0
0.3,2.6,0,0.299909,-0.00305318,0
0.3,2.7,0,0.299895,-0.00295827,0
0.3,2.8,0,0.299824,-0.0028805,0
0.3,2.9,0,0.299895,-0.00284723,0
0.3,3,0,0.299906,-0.00275473,0
0.3,3.1,0,0.299856,-0.00267257,0
0.3,3.2,0,0.299856,-0.00261574,0
0.3,3.3,0,0.299904,-0.00255087,0
0.3,3.4,0,0.299891,-0.00244854,0
0.3,3.5,0,0.299816,-0.00238169,0
0.3,3.6,0,0.299891,-0.00233219,0
0.3,3.7,0,0.299902,-0.00222924,0
0.3,3.8,0,0.299851,-0.00214859,0
0.3,3.9,0,0.29985,-0.0020893,0
0.3,4,0,0.299901,-0.00201394,0
0.3,4.1,0,0.299887,-0.00190581,0
0.3,4.2,0,0.299809,-0.00184305,0
0.3,4.3,0,0.299887,-0.00178523,0
0.3,4.4,0,0.299899,-0.00167539,0
0.3,4.5,0,0.299846,-0.00159371,0
0.3,4.6,0,0.299846,-0.00153251,0
0.3,4.7,0,0.299898,-0.00145156,0
0.3,4.8,0,0.299884,-0.00133874,0
0.3,4.9,0,0.299804,-0.00127594,0
0.3,5,0,0.299884,-0.00121466,0
0.3,5.1,0,0.299896,-0.00110026,0
0.3,5.2,0,0.299842,-0.00101608,0
0.3,5.3,0,0.299842,-0.000953256,0
0.3,5.4,0,0.299896,-0.000869692,0
0.3,5.5,0,0.299882,-0.000753135,0
0.3,5.6,0,0.2998,-0.000688167,0
0.3,5.7,0,0.299882,-0.000625988,0
0.3,5.8,0,0.299895,-0.000508688,0
0.3,5.9,0,0.29984,-0.000421817,0
0.3,6,0,0.29984,-0.000357538,0
0.3,6.1,0,0.299896,-0.000272835,0
0.3,6.2,0,0.299882,-0.000153953,0
0.3,6.3,0,0.299797,-8.70813e-05,0
0.3,6.4,0,0.299883,-2.41613e-05,0
0.3,6.5,0,0.299897,9.45396e-05,0
0.3,6.6,0,0.299839,0.00018245,0
0.3,6.7,0,0.29984,0.000246965,0
0.3,6.8,0,0.2999,0.000324327,0
0.3,6.9,0,0.299886,0.000421877,0
0.3,7,0,0.299797,0.000467682,0
0.3,7.1,0,0.299798,0.000606833,0
0.3,7.2,0,0.299798,0.000693702,0
0.3,7.3,0,0.299799,0.000780392,0
0.3,7.4,0,0.299799,0.000866967,0
0.3,7.5,0,0.299799,0.000953445,0
0.3,7.6,0,0.299799,0.0010398,0
0.3,7.7,0,0.2998,0.00112598,0
0.3,7.8,0,0.2998,0.00121199,0
0.3,7.9,0,0.2998,0.00129785,0
0.3,8,0,0.2998,0.00141156,0
0.3,8.1,0,0.299907,0.00147224,0
0.3,8.2,0,0.299848,0.00156108,0
0.3,8.3,0,0.299889,0.00162437,0
0.3,8.4,0,0.299896,0.00173659,0
0.3,8.5,0,0.299842,0.00179926,0
0.3,8.6,0,0.299907,0.00189465,0
0.3,8.7,0,0.299809,0.00197137,0
0.3,8.8,0,0.299907,0.00204688,0
0.3,8.9,0,0.299857,0.00214348,0
0.3,9,0,0.299883,0.0022074,0
0.3,9.1,0,0.299904,0.00231564,0
0.3,9.2,0,0.299839,0.00237167,0
0.3,9.3,0,0.299908,0.00246538,0
0.3,9.4,0,0.299822,0.00253226,0
0.3,9.5,0,0.299908,0.00261114,0
0.3,9.6,0,0.299868,0.00269886,0
0.3,9.7,0,0.29988,0.00276116,0
0.3,9.8,0,0.29991,0.00286516,0
0.3,9.9,0,0.29984,0.00290558,0
0.3,10,0,0.299912,0.00300301,0
0.3,10.1,0,0.299838,0.00305081,0
0.3,10.2,0,0.299912,0.00313841,0
0.3,10.3,0,0.299882,0.00321073,0
0.3,10.4,0,0.299881,0.00326665,0
0.3,10.5,0,0.299916,0.00336647,0
0.3,10.6,0,0.299846,0.00337873,0
0.3,10.7,0,0.299916,0.0034905,0
0.3,10.8,0,0.299856,0.00350632,0
0.3,10.9,0,0.299916,0.00361128,0
0.3,11,0,0.299895,0.00365983,0
0.3,11.1,0,0.299885,0.0036995,0
0.3,11.2,0,0.29992,0.00380227,0
0.3,11.3,0,0.299856,0.00376048,0
0.3,11.4,0,0.299921,0.00390748,0
0.3,11.5,0,0.299875,0.00387291,0
0.3,11.6,0,0.299918,0.00400352,0
0.3,11.7,0,0.299909,0.00402397,0
0.3,11.8,0,0.299892,0.00402768,0
0.3,11.9,0,0.299926,0.00415021,0
0.3,12,0,0.299872,0.00401077,0
0.3,12.1,0,0.299928,0.00423037,0
0.3,12.2,0,0.299901,0.0041212,0
0.3,12.3,0,0.299927,0.00427932,0
0.3,12.4,0,0.299935,0.00428004,0
0.3,12.5,0,0.299917,0.00421034,0
0.3,12.6,0,0.299943,0.0043839,0
0.3,12.7,0,0.299907,0.00465256,0
0.4,0,0,0.299873,-0.00552712,0
0.4,0.1,0,0.299881,-0.00543452,0
0.4,0.2,0,0.299873,-0.00542333,0
0.4,0.3,0,0.299866,-0.00541214,0
0.4,0.4,0,0.299863,-0.00537259,0
0.4,0.5,0,0.299854,-0.00534543,0
0.4,0.6,0,0.299844,-0.00531828,0
0.4,0.7,0,0.299818,-0.00521841,0
0.4,0.8,0,0.299834,-0.0052423,0
0.4,0.9,0,0.299831,-0.00520064,0
0.4,1,0,0.299829,-0.00515898,0
0.4,1.1,0,0.29983,-0.00511321,0
0.4,1.2,0,0.299827,-0.00505494,0
0.4,1.3,0,0.299824,-0.00499666,0
0.4,1.4,0,0.299803,-0.0049075,0
0.4,1.5,0,0.299822,-0.00488152,0
0.4,1.6,0,0.299818,-0.00480993,0
0.4,1.7,0,0.299814,-0.00473834,0
0.4,1.8,0,0.299814,-0.00468252,0
0.4,1.9,0,0.299811,-0.00460031,0
0.4,2,0,0.299807,-0.0045181,0
0.4,2.1,0,0.29978,-0.00442901,0
0.4,2.2,0,0.299804,-0.00437186,0
0.4,2.3,0,0.299801,-0.00428109,0
0.4,2.4,0,0.299799,-0.00419032,0
0.4,2.5,0,0.299799,-0.00412769,0
0.4,2.6,0,0.299796,-0.00402935,0
0.4,2.7,0,0.299794,-0.00393101,0
0.4,2.8,0,0.299765,-0.00384066,0
0.4,2.9,0,0.299792,-0.00376396,0
0.4,3,0,0.29979,-0.00365962,0
0.4,3.1,0,0.299788,-0.00355528,0
0.4,3.2,0,0.299787,-0.00348732,0
0.4,3.3,0,0.299786,-0.00337789,0
0.4,3.4,0,0.299784,-0.00326846,0
0.4,3.5,0,0.299754,-0.00317558,0
0.4,3.6,0,0.299783,-0.00308689,0
0.4,3.7,0,0.299781,-0.00297324,0
0.4,3.8,0,0.299779,-0.0028596,0
0.4,3.9,0,0.299779,-0.00278784,0
0.4,4,0,0.299778,-0.00267064,0
0.4,4.1,0,0.299776,-0.00255344,0
0.4,4.2,0,0.299745,-0.00245741,0
0.4,4.3,0,0.299775,-0.00236144,0
0.4,4.4,0,0.299774,-0.00224121,0
0.4,4.5,0,0.299772,-0.00212098,0
0.4,4.6,0,0.299772,-0.00204637,0
0.4,4.7,0,0.299771,-0.00192355,0
0.4,4.8,0,0.29977,-0.00180073,0
0.4,4.9,0,0.299738,-0.00170125,0
0.4,5,0,0.299769,-0.00160102,0
0.4,5.1,0,0.299768,-0.00147599,0
0.4,5.2,0,0.299767,-0.00135096,0
0.4,5.3,0,0.299767,-0.00127411,0
0.4,5.4,0,0.299766,-0.00114723,0
0.4,5.5,0,0.299765,-0.00102036,0
0.4,5.6,0,0.299733,-0.000917556,0
0.4,5.7,0,0.299765,-0.000814955,0
0.4,5.8,0,0.299764,-0.000686631,0
0.4,5.9,0,0.299763,-0.000558307,0
0.4,6,0,0.299763,-0.00047969,0
0.4,6.1,0,0.299763,-0.000350405,0
0.4,6.2,0,0.299762,-0.000221121,0
0.4,6.3,0,0.299729,-0.000116108,0
0.4,6.4,0,0.299762,-1.22824e-05,0
0.4,6.5,0,0.299762,0.000117575,0
0.4,6.6,0,0.299762,0.000247432,0
0.4,6.7,0,0.299763,0.000324028,0
0.4,6.8,0,0.299763,0.000431926,0
0.4,6.9,0,0.299763,0.000539825,0
0.4,7,0,0.299729,0.000623576,0
0.4,7.1,0,0.29973,0.000809111,0
0.4,7.2,0,0.299731,0.000924936,0
0.4,7.3,0,0.299732,0.00104052,0
0.4,7.4,0,0.299732,0.00115596,0
0.4,7.5,0,0.299732,0.00127126,0
0.4,7.6,0,0.299733,0.00138639,0
0.4,7.7,0,0.299733,0.00150131,0
0.4,7.8,0,0.299733,0.00161599,0
0.4,7.9,0,0.299734,0.00173047,0
0.4,8,0,0.299734,0.00188208,0
0.4,8.1,0,0.299769,0.00197518,0
0.4,8.2,0,0.299769,0.00208448,0
0.4,8.3,0,0.299769,0.00217602,0
0.4,8.4,0,0.29977,0.0023018,0
0.4,8.5,0,0.29977,0.00239487,0
0.4,8.6,0,0.299771,0.002519,0
0.4,8.7,0,0.299743,0.00262949,0
0.4,8.8,0,0.299772,0.00273399,0
0.4,8.9,0,0.299773,0.00285613,0
0.4,9,0,0.299774,0.00294633,0
0.4,9.1,0,0.299775,0.0030661,0
0.4,9.2,0,0.299774,0.00315611,0
0.4,9.3,0,0.299777,0.00327262,0
0.4,9.4,0,0.299758,0.0033778,0
0.4,9.5,0,0.29978,0.00347527,0
0.4,9.6,0,0.299782,0.00358905,0
0.4,9.7,0,0.299782,0.0036736,0
0.4,9.8,0,0.299785,0.00378365,0
0.4,9.9,0,0.299778,0.00386801,0
0.4,10,0,0.299788,0.00397288,0
0.4,10.1,0,0.299778,0.00406845,0
0.4,10.2,0,0.299792,0.0041562,0
0.4,10.3,0,0.299795,0.004257,0
0.4,10.4,0,0.299796,0.00433302,0
0.4,10.5,0,0.299799,0.00442819,0
0.4,10.6,0,0.299789,0.00449872,0
0.4,10.7,0,0.299804,0.00459153,0
0.4,10.8,0,0.2998,0.00467267,0
0.4,10.9,0,0.299808,0.00474633,0
0.4,11,0,0.299812,0.00482791,0
0.4,11.1,0,0.299814,0.00489184,0
0.4,11.2,0,0.299818,0.0049653,0
0.4,11.3,0,0.299805,0.00500779,0
0.4,11.4,0,0.299823,0.00509157,0
0.4,11.5,0,0.299827,0.00515379,0
0.4,11.6,0,0.299829,0.00520615,0
0.4,11.7,0,0.299834,0.00526058,0
0.4,11.8,0,0.299835,0.00530841,0
0.4,11.9,0,0.299841,0.00535209,0
0.4,12,0,0.299828,0.00534289,0
0.4,12.1,0,0.29985,0.00542765,0
0.4,12.2,0,0.299859,0.0054579,0
0.4,12.3,0,0.299864,0.00548793,0
0.4,12.4,0,0.299876,0.00550708,0
0.4,12.5,0,0.29988,0.00553426,0
0.4,12.6,0,0.299887,0.00554211,0
0.4,12.7,0,0.299879,0.00563689,0
0.5,0,0,0.299865,-0.00644783,0
0.5,0.1,0,0.299824,-0.00656168,0
0.5,0.2,0,0.299816,-0.00655048,0
0.5,0.3,0,0.299808,-0.00653929,0
0.5,0.4,0,0.299782,-0.00653549,0
0.5,0.5,0,0.299772,-0.00650833,0
0.5,0.6,0,0.299763,-0.00648118,0
0.5,0.7,0,0.299782,-0.00634646,0
0.5,0.8,0,0.299752,-0.00642338,0
0.5,0.9,0,0.299749,-0.00638172,0
0.5,1,0,0.299747,-0.00634006,0
0.5,1.1,0,0.299744,-0.00628368,0
0.5,1.2,0,0.299741,-0.0062254,0
0.5,1.3,0,0.299738,-0.00616713,0
0.5,1.4,0,0.299737,-0.00599379,0
0.5,1.5,0,0.299726,-0.00602218,0
0.5,1.6,0,0.299722,-0.00595059,0
0.5,1.7,0,0.299718,-0.00587899,0
0.5,1.8,0,0.29971,-0.00577926,0
0.5,1.9,0,0.299707,-0.00569705,0
0.5,2,0,0.299703,-0.00561485,0
0.5,2.1,0,0.299693,-0.00542501,0
0.5,2.2,0,0.299696,-0.00541528,0
0.5,2.3,0,0.299693,-0.00532452,0
0.5,2.4,0,0.299691,-0.00523375,0
0.5,2.5,0,0.299687,-0.00510635,0
0.5,2.6,0,0.299684,-0.00500801,0
0.5,2.7,0,0.299682,-0.00490966,0
0.5,2.8,0,0.299664,-0.00471272,0
0.5,2.9,0,0.299676,-0.00467102,0
0.5,3,0,0.299674,-0.00456668,0
0.5,3.1,0,0.299672,-0.00446234,0
0.5,3.2,0,0.299669,-0.00431613,0
0.5,3.3,0,0.299667,-0.00420669,0
0.5,3.4,0,0.299666,-0.00409726,0
0.5,3.5,0,0.299643,-0.00390138,0
0.5,3.6,0,0.299661,-0.00383238,0
0.5,3.7,0,0.299659,-0.00371874,0
0.5,3.8,0,0.299658,-0.0036051,0
0.5,3.9,0,0.299656,-0.00344581,0
0.5,4,0,0.299654,-0.00332861,0
0.5,4.1,0,0.299653,-0.00321141,0
0.5,4.2,0,0.299627,-0.00302166,0
0.5,4.3,0,0.299649,-0.00292834,0
0.5,4.4,0,0.299648,-0.00280811,0
0.5,4.5,0,0.299647,-0.00268787,0
0.5,4.6,0,0.299645,-0.00251929,0
0.5,4.7,0,0.299644,-0.00239647,0
0.5,4.8,0,0.299643,-0.00227365,0
0.5,4.9,0,0.299616,-0.0020933,0
0.5,5,0,0.299641,-0.00197753,0
0.5,5.1,0,0.29964,-0.0018525,0
0.5,5.2,0,0.299639,-0.00172748,0
0.5,5.3,0,0.299637,-0.0015523,0
0.5,5.4,0,0.299636,-0.00142542,0
0.5,5.5,0,0.299635,-0.00129855,0
0.5,5.6,0,0.299606,-0.00112997,0
0.5,5.7,0,0.299633,-0.000993372,0
0.5,5.8,0,0.299632,-0.000865049,0
0.5,5.9,0,0.299632,-0.000736725,0
0.5,6,0,0.29963,-0.000557533,0
0.5,6.1,0,0.299629,-0.000428248,0
0.5,6.2,0,0.299629,-0.000298964,0
0.5,6.3,0,0.299599,-0.000144117,0
0.5,6.4,0,0.299627,1.05798e-05,0
0.5,6.5,0,0.299626,0.000140437,0
0.5,6.6,0,0.299626,0.000270294,0
0.5,6.7,0,0.299625,0.000448879,0
0.5,6.8,0,0.299625,0.000556777,0
0.5,6.9,0,0.299626,0.000664676,0
0.5,7,0,0.299599,0.000766345,0
0.5,7.1,0,0.299601,0.000994694,0
0.5,7.2,0,0.299601,0.00113714,0
0.5,7.3,0,0.299602,0.00127929,0
0.5,7.4,0,0.299603,0.00142124,0
0.5,7.5,0,0.299603,0.00156302,0
0.5,7.6,0,0.299603,0.00170458,0
0.5,7.7,0,0.299604,0.00184584,0
0.5,7.8,0,0.299605,0.0019868,0
0.5,7.9,0,0.299605,0.00212747,0
0.5,8,0,0.299606,0.00231381,0
0.5,8.1,0,0.299631,0.00246912,0
0.5,8.2,0,0.299631,0.00257842,0
0.5,8.3,0,0.299632,0.00273629,0
0.5,8.4,0,0.299633,0.00286208,0
0.5,8.5,0,0.299634,0.00301969,0
0.5,8.6,0,0.299635,0.00314383,0
0.5,8.7,0,0.299617,0.00323697,0
0.5,8.8,0,0.299638,0.00342167,0
0.5,8.9,0,0.299639,0.00354381,0
0.5,9,0,0.299641,0.00369514,0
0.5,9.1,0,0.299642,0.00381491,0
0.5,9.2,0,0.299644,0.00396028,0
0.5,9.3,0,0.299647,0.00408064,0
0.5,9.4,0,0.299637,0.00416374,0
0.5,9.5,0,0.299651,0.00434031,0
0.5,9.6,0,0.299653,0.00445409,0
0.5,9.7,0,0.299656,0.00459313,0
0.5,9.8,0,0.299659,0.00470318,0
0.5,9.9,0,0.299659,0.00481668,0
0.5,10,0,0.299665,0.00494395,0
0.5,10.1,0,0.299663,0.00501915,0
0.5,10.2,0,0.299672,0.00517537,0
0.5,10.3,0,0.299675,0.00527617,0
0.5,10.4,0,0.29968,0.00539631,0
0.5,10.5,0,0.299683,0.00549148,0
0.5,10.6,0,0.299685,0.00556182,0
0.5,10.7,0,0.299691,0.00569434,0
0.5,10.8,0,0.299694,0.00576243,0
0.5,10.9,0,0.299701,0.00588337,0
0.5,11,0,0.299705,0.00596495,0
0.5,11.1,0,0.299711,0.00605712,0
0.5,11.2,0,0.299715,0.00613057,0
0.5,11.3,0,0.299725,0.00614607,0
0.5,11.4,0,0.299726,0.0062782,0
0.5,11.5,0,0.299731,0.00633803,0
0.5,11.6,0,0.299738,0.00640603,0
0.5,11.7,0,0.299742,0.00646047,0
0.5,11.8,0,0.29975,0.00651331,0
0.5,11.9,0,0.299755,0.00655698,0
0.5,12,0,0.299782,0.00650731,0
0.5,12.1,0,0.299771,0.00662892,0
0.5,12.2,0,0.299779,0.00665917,0
0.5,12.3,0,0.299796,0.0066719,0
0.5,12.4,0,0.299808,0.00669105,0
0.5,12.5,0,0.299827,0.00669656,0
0.5,12.6,0,0.299834,0.00670441,0
0.5,12.7,0,0.299875,0.00659071,0
0.6,0,0,0.29988,-0.0073336,0
0.6,0.1,0,0.299787,-0.00764394,0
0.6,0.2,0,0.299765,-0.00768634,0
0.6,0.3,0,0.299801,-0.00748591,0
0.6,0.4,0,0.29977,-0.0074865,0
0.6,0.5,0,0.299687,-0.00767494,0
0.6,0.6,0,0.29969,-0.00760169,0
0.6,0.7,0,0.299756,-0.00729796,0
0.6,0.8,0,0.299681,-0.00756122,0
0.6,0.9,0,0.299667,-0.00757038,0
0.6,1,0,0.299689,-0.00733015,0
0.6,1.1,0,0.299685,-0.00727193,0
0.6,1.2,0,0.299656,-0.00740122,0
0.6,1.3,0,0.299654,-0.00729364,0
0.6,1.4,0,0.299656,-0.00693949,0
0.6,1.5,0,0.299633,-0.00712499,0
0.6,1.6,0,0.299625,-0.00709625,0
0.6,1.7,0,0.299616,-0.00683207,0
0.6,1.8,0,0.299607,-0.00672581,0
0.6,1.9,0,0.299602,-0.00679705,0
0.6,2,0,0.299596,-0.00666872,0
0.6,2.1,0,0.299575,-0.00630975,0
0.6,2.2,0,0.299586,-0.00642738,0
0.6,2.3,0,0.299585,-0.00637135,0
0.6,2.4,0,0.299562,-0.0061017,0
0.6,2.5,0,0.299558,-0.00596492,0
0.6,2.6,0,0.299573,-0.00598916,0
0.6,2.7,0,0.299564,-0.00584855,0
0.6,2.8,0,0.299521,-0.00549667,0
0.6,2.9,0,0.299554,-0.00555341,0
0.6,3,0,0.299558,-0.00547592,0
0.6,3.1,0,0.299525,-0.00521232,0
0.6,3.2,0,0.299521,-0.00505487,0
0.6,3.3,0,0.299548,-0.00503729,0
0.6,3.4,0,0.299538,-0.0048908,0
0.6,3.5,0,0.299483,-0.00455908,0
0.6,3.6,0,0.299531,-0.00456023,0
0.6,3.7,0,0.299538,-0.00446572,0
0.6,3.8,0,0.299498,-0.00421557,0
0.6,3.9,0,0.299495,-0.00404375,0
0.6,4,0,0.299531,-0.00398786,0
0.6,4.1,0,0.299519,-0.00383957,0
0.6,4.2,0,0.299456,-0.00353582,0
0.6,4.3,0,0.299514,-0.00348478,0
0.6,4.4,0,0.299523,-0.00337608,0
0.6,4.5,0,0.299478,-0.00314418,0
0.6,4.6,0,0.299476,-0.00296215,0
0.6,4.7,0,0.299517,-0.00287032,0
0.6,4.8,0,0.299505,-0.00272285,0
0.6,4.9,0,0.299435,-0.00245209,0
0.6,5,0,0.299501,-0.00235087,0
0.6,5.1,0,0.299511,-0.00222981,0
0.6,5.2,0,0.299463,-0.00201957,0
0.6,5.3,0,0.299461,-0.00183032,0
0.6,5.4,0,0.299507,-0.00170427,0
0.6,5.5,0,0.299493,-0.00155952,0
0.6,5.6,0,0.299419,-0.0013254,0
0.6,5.7,0,0.299489,-0.00117581,0
0.6,5.8,0,0.299501,-0.00104394,0
0.6,5.9,0,0.29945,-0.000858038,0
0.6,6,0,0.299449,-0.00066445,0
0.6,6.1,0,0.299496,-0.000506364,0
0.6,6.2,0,0.299483,-0.000366124,0
0.6,6.3,0,0.299408,-0.000171107,0
0.6,6.4,0,0.299479,2.26235e-05,0
0.6,6.5,0,0.299491,0.000163126,0
0.6,6.6,0,0.299442,0.000323648,0
0.6,6.7,0,0.29944,0.000519291,0
0.6,6.8,0,0.299487,0.00069888,0
0.6,6.9,0,0.299476,0.000804109,0
0.6,7,0,0.299406,0.000895988,0
0.6,7.1,0,0.299408,0.00116358,0
0.6,7.2,0,0.299409,0.00133033,0
0.6,7.3,0,0.29941,0.00149669,0
0.6,7.4,0,0.29941,0.00166283,0
0.6,7.5,0,0.299411,0.00182873,0
0.6,7.6,0,0.299412,0.00199434,0
0.6,7.7,0,0.299413,0.00215958,0
0.6,7.8,0,0.299414,0.00232441,0
0.6,7.9,0,0.299415,0.00248885,0
0.6,8,0,0.299417,0.00270675,0
0.6,8.1,0,0.299493,0.00295406,0
0.6,8.2,0,0.299452,0.00302657,0
0.6,8.3,0,0.299482,0.0032663,0
0.6,8.4,0,0.299488,0.0034123,0
0.6,8.5,0,0.299453,0.00352462,0
0.6,8.6,0,0.299498,0.00376913,0
0.6,8.7,0,0.299436,0.00378561,0
0.6,8.8,0,0.299503,0.00410992,0
0.6,8.9,0,0.299473,0.00416768,0
0.6,9,0,0.299492,0.00439233,0
0.6,9.1,0,0.299507,0.00455808,0
0.6,9.2,0,0.299471,0.00461101,0
0.6,9.3,0,0.299516,0.00488944,0
0.6,9.4,0,0.299469,0.00486267,0
0.6,9.5,0,0.299523,0.00520625,0
0.6,9.6,0,0.299504,0.00524276,0
0.6,9.7,0,0.299514,0.00543521,0
0.6,9.8,0,0.299532,0.00562376,0
0.6,9.9,0,0.299504,0.00560495,0
0.6,10,0,0.299542,0.00591623,0
0.6,10.1,0,0.299516,0.00584787,0
0.6,10.2,0,0.299552,0.00619591,0
0.6,10.3,0,0.299545,0.00621275,0
0.6,10.4,0,0.299552,0.00635316,0
0.6,10.5,0,0.299566,0.00655633,0
0.6,10.6,0,0.299557,0.00646079,0
0.6,10.7,0,0.299579,0.00679892,0
0.6,10.8,0,0.299578,0.00669016,0
0.6,10.9,0,0.299593,0.0070224,0
0.6,11,0,0.299599,0.00702013,0
0.6,11.1,0,0.299608,0.00708668,0
0.6,11.2,0,0.299612,0.0072981,0
0.6,11.3,0,0.299637,0.00711531,0
0.6,11.4,0,0.299629,0.00746737,0
0.6,11.5,0,0.29966,0.00731841,0
0.6,11.6,0,0.299647,0.00759435,0
0.6,11.7,0,0.299664,0.00758615,0
0.6,11.8,0,0.299688,0.00755663,0
0.6,11.9,0,0.299669,0.00776489,0
0.6,12,0,0.29975,0.00748659,0
0.6,12.1,0,0.29969,0.00783419,0
0.6,12.2,0,0.299762,0.00764309,0
0.6,12.3,0,0.299736,0.00782262,0
0.6,12.4,0,0.299759,0.0078141,0
0.6,12.5,0,0.299826,0.00767519,0
0.6,12.6,0,0.299784,0.0078708,0
0.6,12.7,0,0.299895,0.00751402,0
0.7,0,0,0.299896,-0.00821937,0
0.7,0.1,0,0.299803,-0.00852971,0
0.7,0.2,0,0.299744,-0.00869604,0
0.7,0.3,0,0.299802,-0.00840098,0
0.7,0.4,0,0.29977,-0.00840158,0
0.7,0.5,0,0.29965,-0.00869782,0
0.7,0.6,0,0.299663,-0.00855319,0
0.7,0.7,0,0.299729,-0.00824946,0
0.7,0.8,0,0.299654,-0.00851271,0
0.7,0.9,0,0.2996,-0.00862665,0
0.7,1,0,0.299634,-0.00828713,0
0.7,1.1,0,0.299631,-0.00822892,0
0.7,1.2,0,0.299589,-0.008452,0
0.7,1.3,0,0.299573,-0.00823933,0
0.7,1.4,0,0.299574,-0.00788518,0
0.7,1.5,0,0.299551,-0.00807069,0
0.7,1.6,0,0.299525,-0.00811351,0
0.7,1.7,0,0.299514,-0.00775304,0
0.7,1.8,0,0.299505,-0.00764678,0
0.7,1.9,0,0.299499,-0.00779475,0
0.7,2,0,0.299478,-0.00755346,0
0.7,2.1,0,0.299457,-0.00719449,0
0.7,2.2,0,0.299467,-0.00731212,0
0.7,2.3,0,0.299464,-0.00729892,0
0.7,2.4,0,0.299431,-0.00693984,0
0.7,2.5,0,0.299426,-0.00680306,0
0.7,2.6,0,0.299449,-0.00688858,0
0.7,2.7,0,0.29942,-0.00663251,0
0.7,2.8,0,0.299378,-0.00628063,0
0.7,2.9,0,0.29941,-0.00633736,0
0.7,3,0,0.299421,-0.00627898,0
0.7,3.1,0,0.299372,-0.00593576,0
0.7,3.2,0,0.299369,-0.00577831,0
0.7,3.3,0,0.29941,-0.00580665,0
0.7,3.4,0,0.299378,-0.0055485,0
0.7,3.5,0,0.299323,-0.00521678,0
0.7,3.6,0,0.299371,-0.00521793,0
0.7,3.7,0,0.299391,-0.0051217,0
0.7,3.8,0,0.299332,-0.00480329,0
0.7,3.9,0,0.299329,-0.00463147,0
0.7,4,0,0.299383,-0.00460624,0
0.7,4.1,0,0.299347,-0.00435373,0
0.7,4.2,0,0.299284,-0.00404998,0
0.7,4.3,0,0.299342,-0.00399894,0
0.7,4.4,0,0.299368,-0.00386961,0
0.7,4.5,0,0.299302,-0.00358188,0
0.7,4.6,0,0.2993,-0.00339985,0
0.7,4.7,0,0.299362,-0.00332352,0
0.7,4.8,0,0.299325,-0.00308164,0
0.7,4.9,0,0.299255,-0.00281088,0
0.7,5,0,0.299321,-0.00270965,0
0.7,5.1,0,0.299351,-0.0025503,0
0.7,5.2,0,0.299279,-0.00229745,0
0.7,5.3,0,0.299277,-0.00210821,0
0.7,5.4,0,0.299346,-0.00198256,0
0.7,5.5,0,0.299307,-0.00175495,0
0.7,5.6,0,0.299232,-0.00152083,0
0.7,5.7,0,0.299303,-0.00137124,0
0.7,5.8,0,0.299336,-0.00118445,0
0.7,5.9,0,0.299261,-0.000969756,0
0.7,6,0,0.299259,-0.000776167,0
0.7,6.1,0,0.299331,-0.000603681,0
0.7,6.2,0,0.299292,-0.000393115,0
0.7,6.3,0,0.299217,-0.000198098,0
0.7,6.4,0,0.299288,-4.36683e-06,0
0.7,6.5,0,0.299323,0.000206258,0
0.7,6.6,0,0.29925,0.000382112,0
0.7,6.7,0,0.299248,0.000577756,0
0.7,6.8,0,0.299318,0.00079319,0
0.7,6.9,0,0.299284,0.000933752,0
0.7,7,0,0.299214,0.00102563,0
0.7,7.1,0,0.299216,0.00133247,0
0.7,7.2,0,0.299217,0.00152351,0
0.7,7.3,0,0.299217,0.0017141,0
0.7,7.4,0,0.299218,0.00190441,0
0.7,7.5,0,0.299219,0.00209444,0
0.7,7.6,0,0.29922,0.00228411,0
0.7,7.7,0,0.299222,0.00247331,0
0.7,7.8,0,0.299223,0.00266201,0
0.7,7.9,0,0.299225,0.00285024,0
0.7,8,0,0.299228,0.0030997,0
0.7,8.1,0,0.299325,0.00338518,0
0.7,8.2,0,0.299265,0.00346717,0
0.7,8.3,0,0.299295,0.00370691,0
0.7,8.4,0,0.299303,0.00390755,0
0.7,8.5,0,0.299269,0.00401987,0