x,y,z,p
0,0,0,0.000254566
0,0.1,0,0.0005604
0,0.2,0,0.000866234
0,0.3,0,0.00122365
0,0.4,0,0.00163266
0,0.5,0,0.00204167
0,0.6,0,0.00245324
0,0.7,0,0.00286481
0,0.8,0,0.0032782
0,0.9,0,0.0036934
0,1,0,0.0041086
0,1.1,0,0.00452829
0,1.2,0,0.00494799
0,1.3,0,0.00537023
0,1.4,0,0.00579501
0,1.5,0,0.0062198
0,1.6,0,0.00664994
0,1.7,0,0.00708009
0,1.8,0,0.00751286
0,1.9,0,0.00794824
0,2,0,0.00838362
0,2.1,0,0.00882364
0,2.2,0,0.00926365
0,2.3,0,0.00970542
0,2.4,0,0.0101489
0,2.5,0,0.0105924
0,2.6,0,0.0110377
0,2.7,0,0.0114829
0,2.8,0,0.0119277
0,2.9,0,0.0123721
0,3,0,0.0128165
0,3.1,0,0.0132569
0,3.2,0,0.0136972
0,3.3,0,0.0141335
0,3.4,0,0.0145658
0,3.5,0,0.0149982
0,3.6,0,0.0154176
0,3.7,0,0.015837
0,3.8,0,0.0162472
0,3.9,0,0.0166483
0,4,0,0.0170493
0,4.1,0,0.0174259
0,4.2,0,0.0178025
0,4.3,0,0.0181636
0,4.4,0,0.0185092
0,4.5,0,0.0188548
0,4.6,0,0.0191629
0,4.7,0,0.0194711
0,4.8,0,0.0197515
0,4.9,0,0.0200043
0,5,0,0.020257
0,5.1,0,0.0204913
0,5.2,0,0.0207256
0,5.3,0,0.0209023
0,5.4,0,0.0210791
0,5.5,0,0.0212099
0,5.6,0,0.0213407
0,5.7,0,0.0214238
0,5.8,0,0.0215068
0,5.9,0,0.0215408
0,6,0,0.0215748
0,6.1,0,0.0215595
0,6.2,0,0.0215442
0,6.3,0,0.02148
0,6.4,0,0.0214159
0,6.5,0,0.0213042
0,6.6,0,0.0211925
0,6.7,0,0.0210354
0,6.8,0,0.0208783
0,6.9,0,0.0206565
0,7,0,0.0204346
0,7.1,0,0.020204
0,7.2,0,0.0199734
0,7.3,0,0.0197333
0,7.4,0,0.0194396
0,7.5,0,0.0191459
0,7.6,0,0.0188404
0,7.7,0,0.0185077
0,7.8,0,0.0181749
0,7.9,0,0.0178286
0,8,0,0.0174656
0,8.1,0,0.0171026
0,8.2,0,0.0167266
0,8.3,0,0.0163418
0,8.4,0,0.0159571
0,8.5,0,0.0155617
0,8.6,0,0.0151629
0,8.7,0,0.014764
0,8.8,0,0.0143584
0,8.9,0,0.013952
0,9,0,0.0135456
0,9.1,0,0.0131373
0,9.2,0,0.012729
0,9.3,0,0.0123211
0,9.4,0,0.0119152
0,9.5,0,0.0115092
0,9.6,0,0.0111052
0,9.7,0,0.0107049
0,9.8,0,0.0103045
0,9.9,0,0.0099081
0,10,0,0.00951559
0,10.1,0,0.00912308
0,10.2,0,0.00873654
0,10.3,0,0.00835321
0,10.4,0,0.00796989
0,10.5,0,0.00759438
0,10.6,0,0.00722083
0,10.7,0,0.00684727
0,10.8,0,0.00648297
0,10.9,0,0.00611916
0,11,0,0.00575627
0,11.1,0,0.00540167
0,11.2,0,0.00504706
0,11.3,0,0.00469453
0,11.4,0,0.00434819
0,11.5,0,0.00400185
0,11.6,0,0.00365831
0,11.7,0,0.00331897
0,11.8,0,0.00297964
0,11.9,0,0.00264332
0,12,0,0.00230949
0,12.1,0,0.00197565
0,12.2,0,0.00164448
0,12.3,0,0.00131445
0,12.4,0,0.000984428
0,12.5,0,0.000725381
0,12.6,0,0.00047886
0,12.7,0,0.000232339
0.1,0,0,0.00015274
0.1,0.1,0,0.000458219
0.1,0.2,0,0.000814852
0.1,0.3,0,0.00122287
0.1,0.4,0,0.00163167
0.1,0.5,0,0.00204056
0.1,0.6,0,0.00245167
0.1,0.7,0,0.00286324
0.1,0.8,0,0.00327638
0.1,0.9,0,0.00369134
0.1,1,0,0.00410666
0.1,1.1,0,0.00452586
0.1,1.2,0,0.00494567
0.1,1.3,0,0.00536779
0.1,1.4,0,0.00579235
0.1,1.5,0,0.00621746
0.1,1.6,0,0.00664724
0.1,1.7,0,0.00707759
0.1,1.8,0,0.00751044
0.1,1.9,0,0.00794571
0.1,2,0,0.00838158
0.1,2.1,0,0.00882154
0.1,2.2,0,0.00926182
0.1,2.3,0,0.00970393
0.1,2.4,0,0.0101475
0.1,2.5,0,0.0105916
0.1,2.6,0,0.0110374
0.1,2.7,0,0.0114829
0.1,2.8,0,0.0119284
0.1,2.9,0,0.0123732
0.1,3,0,0.0128181
0.1,3.1,0,0.0132598
0.1,3.2,0,0.0137003
0.1,3.3,0,0.0141378
0.1,3.4,0,0.014571
0.1,3.5,0,0.0150035
0.1,3.6,0,0.0154253
0.1,3.7,0,0.0158447
0.1,3.8,0,0.0162564
0.1,3.9,0,0.0166589
0.1,4,0,0.0170596
0.1,4.1,0,0.0174397
0.1,4.2,0,0.0178159
0.1,4.3,0,0.0181787
0.1,4.4,0,0.0185263
0.1,4.5,0,0.0188708
0.1,4.6,0,0.0191834
0.1,4.7,0,0.0194906
0.1,4.8,0,0.0197783
0.1,4.9,0,0.0200392
0.1,5,0,0.0202781
0.1,5.1,0,0.0205195
0.1,5.2,0,0.0207484
0.1,5.3,0,0.0209202
0.1,5.4,0,0.0211033
0.1,5.5,0,0.0212287
0.1,5.6,0,0.021366
0.1,5.7,0,0.0214432
0.1,5.8,0,0.0215327
0.1,5.9,0,0.0215606
0.1,6,0,0.021601
0.1,6.1,0,0.0215793
0.1,6.2,0,0.0215701
0.1,6.3,0,0.0214994
0.1,6.4,0,0.021441
0.1,6.5,0,0.0213228
0.1,6.6,0,0.0212165
0.1,6.7,0,0.0210531
0.1,6.8,0,0.0209008
0.1,6.9,0,0.0206906
0.1,7,0,0.0204552
0.1,7.1,0,0.0202479
0.1,7.2,0,0.0200131
0.1,7.3,0,0.0197521
0.1,7.4,0,0.0194644
0.1,7.5,0,0.0191667
0.1,7.6,0,0.0188563
0.1,7.7,0,0.0185274
0.1,7.8,0,0.0181902
0.1,7.9,0,0.0178412
0.1,8,0,0.0174803
0.1,8.1,0,0.017113
0.1,8.2,0,0.0167357
0.1,8.3,0,0.0163519
0.1,8.4,0,0.0159633
0.1,8.5,0,0.0155675
0.1,8.6,0,0.0151687
0.1,8.7,0,0.014767
0.1,8.8,0,0.0143609
0.1,8.9,0,0.0139542
0.1,9,0,0.0135462
0.1,9.1,0,0.0131371
0.1,9.2,0,0.0127285
0.1,9.3,0,0.0123199
0.1,9.4,0,0.0119127
0.1,9.5,0,0.0115069
0.1,9.6,0,0.0111025
0.1,9.7,0,0.0107009
0.1,9.8,0,0.0103011
0.1,9.9,0,0.00990421
0.1,10,0,0.00951062
0.1,10.1,0,0.00911911
0.1,10.2,0,0.00873189
0.1,10.3,0,0.00834772
0.1,10.4,0,0.00796585
0.1,10.5,0,0.00758931
0.1,10.6,0,0.00721534
0.1,10.7,0,0.00684348
0.1,10.8,0,0.0064778
0.1,10.9,0,0.00611411
0.1,11,0,0.00575264
0.1,11.1,0,0.00539669
0.1,11.2,0,0.00504268
0.1,11.3,0,0.00469112
0.1,11.4,0,0.0043438
0.1,11.5,0,0.00399829
0.1,11.6,0,0.00365534
0.1,11.7,0,0.00331538
0.1,11.8,0,0.00297697
0.1,11.9,0,0.00264096
0.1,12,0,0.00230681
0.1,12.1,0,0.00197389
0.1,12.2,0,0.0016429
0.1,12.3,0,0.00131279
0.1,12.4,0,0.000983558
0.1,12.5,0,0.000655452
0.1,12.6,0,0.000385402
0.1,12.7,0,0.000139404
0.2,0,0,5.09132e-05
0.2,0.1,0,0.000407192
0.2,0.2,0,0.00081427
0.2,0.3,0,0.00122228
0.2,0.4,0,0.00163077
0.2,0.5,0,0.00203946
0.2,0.6,0,0.00245057
0.2,0.7,0,0.00286168
0.2,0.8,0,0.00327482
0.2,0.9,0,0.00368965
0.2,1,0,0.00410472
0.2,1.1,0,0.00452404
0.2,1.2,0,0.00494346
0.2,1.3,0,0.00536559
0.2,1.4,0,0.00579024
0.2,1.5,0,0.00621513
0.2,1.6,0,0.00664511
0.2,1.7,0,0.0070753
0.2,1.8,0,0.00750815
0.2,1.9,0,0.00794378
0.2,2,0,0.00837953
0.2,2.1,0,0.00881976
0.2,2.2,0,0.00926026
0.2,2.3,0,0.00970237
0.2,2.4,0,0.0101466
0.2,2.5,0,0.0105908
0.2,2.6,0,0.0110368
0.2,2.7,0,0.0114831
0.2,2.8,0,0.0119286
0.2,2.9,0,0.0123744
0.2,3,0,0.0128197
0.2,3.1,0,0.0132616
0.2,3.2,0,0.0137037
0.2,3.3,0,0.0141411
0.2,3.4,0,0.0145754
0.2,3.5,0,0.0150089
0.2,3.6,0,0.0154307
0.2,3.7,0,0.0158524
0.2,3.8,0,0.0162641
0.2,3.9,0,0.0166677
0.2,4,0,0.0170699
0.2,4.1,0,0.0174496
0.2,4.2,0,0.017829
0.2,4.3,0,0.0181918
0.2,4.4,0,0.0185402
0.2,4.5,0,0.0188867
0.2,4.6,0,0.0191984
0.2,4.7,0,0.0195093
0.2,4.8,0,0.019797
0.2,4.9,0,0.0200521
0.2,5,0,0.0202991
0.2,5.1,0,0.0205383
0.2,5.2,0,0.0207713
0.2,5.3,0,0.0209466
0.2,5.4,0,0.0211275
0.2,5.5,0,0.0212564
0.2,5.6,0,0.0213913
0.2,5.7,0,0.0214719
0.2,5.8,0,0.0215587
0.2,5.9,0,0.0215897
0.2,6,0,0.0216271
0.2,6.1,0,0.0216084
0.2,6.2,0,0.0215959
0.2,6.3,0,0.0215279
0.2,6.4,0,0.0214661
0.2,6.5,0,0.0213504
0.2,6.6,0,0.0212405
0.2,6.7,0,0.0210791
0.2,6.8,0,0.0209234
0.2,6.9,0,0.0207058
0.2,7,0,0.0204757
0.2,7.1,0,0.0202574
0.2,7.2,0,0.0200244
0.2,7.3,0,0.01977
0.2,7.4,0,0.0194771
0.2,7.5,0,0.0191805
0.2,7.6,0,0.0188709
0.2,7.7,0,0.0185372
0.2,7.8,0,0.0182015
0.2,7.9,0,0.0178524
0.2,8,0,0.0174874
0.2,8.1,0,0.0171211
0.2,8.2,0,0.0167436
0.2,8.3,0,0.0163564
0.2,8.4,0,0.0159685
0.2,8.5,0,0.0155721
0.2,8.6,0,0.015171
0.2,8.7,0,0.0147696
0.2,8.8,0,0.0143631
0.2,8.9,0,0.0139549
0.2,9,0,0.0135468
0.2,9.1,0,0.0131374
0.2,9.2,0,0.0127276
0.2,9.3,0,0.0123188
0.2,9.4,0,0.0119118
0.2,9.5,0,0.0115048
0.2,9.6,0,0.0111003
0.2,9.7,0,0.010699
0.2,9.8,0,0.010298
0.2,9.9,0,0.00990117
0.2,10,0,0.00950815
0.2,10.1,0,0.00911558
0.2,10.2,0,0.00872849
0.2,10.3,0,0.00834498
0.2,10.4,0,0.00796211
0.2,10.5,0,0.00758597
0.2,10.6,0,0.00721244
0.2,10.7,0,0.00683977
0.2,10.8,0,0.00647475
0.2,10.9,0,0.00611113
0.2,11,0,0.00574915
0.2,11.1,0,0.00539409
0.2,11.2,0,0.0050398
0.2,11.3,0,0.004688
0.2,11.4,0,0.0043416
0.2,11.5,0,0.00399568
0.2,11.6,0,0.0036527
0.2,11.7,0,0.00331363
0.2,11.8,0,0.00297489
0.2,11.9,0,0.00263889
0.2,12,0,0.00230559
0.2,12.1,0,0.00197245
0.2,12.2,0,0.00164157
0.2,12.3,0,0.00131215
0.2,12.4,0,0.000982809
0.2,12.5,0,0.000654849
0.2,12.6,0,0.000327463
0.2,12.7,0,4.64679e-05
0.3,0,0,0
0.3,0.1,0,0.000406577
0.3,0.2,0,0.000813655
0.3,0.3,0,0.00122057
0.3,0.4,0,0.00162905
0.3,0.5,0,0.00203715
0.3,0.6,0,0.00244786
0.3,0.7,0,0.00285897
0.3,0.8,0,0.00327127
0.3,0.9,0,0.0036861
0.3,1,0,0.00410067
0.3,1.1,0,0.00451983
0.3,1.2,0,0.00493926
0.3,1.3,0,0.00536097
0.3,1.4,0,0.00578563
0.3,1.5,0,0.00621023
0.3,1.6,0,0.00664039
0.3,1.7,0,0.00707058
0.3,1.8,0,0.0075037
0.3,1.9,0,0.00793933
0.3,2,0,0.00837519
0.3,2.1,0,0.00881601
0.3,2.2,0,0.00925651
0.3,2.3,0,0.00969985
0.3,2.4,0,0.0101441
0.3,2.5,0,0.010589
0.3,2.6,0,0.0110361
0.3,2.7,0,0.0114823
0.3,2.8,0,0.0119303
0.3,2.9,0,0.0123761
0.3,3,0,0.0128229
0.3,3.1,0,0.0132663
0.3,3.2,0,0.0137084
0.3,3.3,0,0.0141496
0.3,3.4,0,0.014584
0.3,3.5,0,0.0150199
0.3,3.6,0,0.0154436
0.3,3.7,0,0.0158653
0.3,3.8,0,0.016282
0.3,3.9,0,0.0166857
0.3,4,0,0.0170913
0.3,4.1,0,0.017473
0.3,4.2,0,0.0178523
0.3,4.3,0,0.0182208
0.3,4.4,0,0.0185693
0.3,4.5,0,0.0189198
0.3,4.6,0,0.0192331
0.3,4.7,0,0.019544
0.3,4.8,0,0.019837
0.3,4.9,0,0.0200921
0.3,5,0,0.0203429
0.3,5.1,0,0.0205824
0.3,5.2,0,0.020819
0.3,5.3,0,0.0209938
0.3,5.4,0,0.0211782
0.3,5.5,0,0.0213062
0.3,5.6,0,0.0214442
0.3,5.7,0,0.0215234
0.3,5.8,0,0.0216129
0.3,5.9,0,0.021642
0.3,6,0,0.0216817
0.3,6.1,0,0.0216606
0.3,6.2,0,0.0216499
0.3,6.3,0,0.0215791
0.3,6.4,0,0.0215186
0.3,6.5,0,0.0213997
0.3,6.6,0,0.0212906
0.3,6.7,0,0.0211258
0.3,6.8,0,0.0209704
0.3,6.9,0,0.0207493
0.3,7,0,0.0205185
0.3,7.1,0,0.0202963
0.3,7.2,0,0.0200633
0.3,7.3,0,0.0198058
0.3,7.4,0,0.0195096
0.3,7.5,0,0.019213
0.3,7.6,0,0.0188988
0.3,7.7,0,0.018563
0.3,7.8,0,0.0182271
0.3,7.9,0,0.0178724
0.3,8,0,0.0175065
0.3,8.1,0,0.0171395
0.3,8.2,0,0.0167567
0.3,8.3,0,0.0163694
0.3,8.4,0,0.0159802
0.3,8.5,0,0.0155797
0.3,8.6,0,0.0151787
0.3,8.7,0,0.0147755
0.3,8.8,0,0.0143661
0.3,8.9,0,0.013958
0.3,9,0,0.0135478
0.3,9.1,0,0.0131368
0.3,9.2,0,0.012727
0.3,9.3,0,0.0123162
0.3,9.4,0,0.0119083
0.3,9.5,0,0.0115013
0.3,9.6,0,0.0110951
0.3,9.7,0,0.0106936
0.3,9.8,0,0.0102925
0.3,9.9,0,0.0098945
0.3,10,0,0.00950144
0.3,10.1,0,0.00910862
0.3,10.2,0,0.0087211
0.3,10.3,0,0.00833759
0.3,10.4,0,0.00795446
0.3,10.5,0,0.00757842
0.3,10.6,0,0.00720489
0.3,10.7,0,0.00683206
0.3,10.8,0,0.00646747
0.3,10.9,0,0.00610385
0.3,11,0,0.00574199
0.3,11.1,0,0.00538741
0.3,11.2,0,0.00503312
0.3,11.3,0,0.0046818
0.3,11.4,0,0.00433578
0.3,11.5,0,0.00398987
0.3,11.6,0,0.00364773
0.3,11.7,0,0.00330888
0.3,11.8,0,0.00297024
0.3,11.9,0,0.00263533
0.3,12,0,0.00230205
0.3,12.1,0,0.00196918
0.3,12.2,0,0.00163936
0.3,12.3,0,0.00130994
0.3,12.4,0,0.000981083
0.3,12.5,0,0.000654061
0.3,12.6,0,0.000326674
0.3,12.7,0,0
0.4,0,0,0
0.4,0.1,0,0.000406077
0.4,0.2,0,0.000811806
0.4,0.3,0,0.00121872
0.4,0.4,0,0.00162593
0.4,0.5,0,0.00203364
0.4,0.6,0,0.00244395
0.4,0.7,0,0.002854
0.4,0.8,0,0.0032663
0.4,0.9,0,0.00368018
0.4,1,0,0.00409449
0.4,1.1,0,0.00451339
0.4,1.2,0,0.00493222
0.4,1.3,0,0.00535394
0.4,1.4,0,0.00577822
0.4,1.5,0,0.00620277
0.4,1.6,0,0.0066329
0.4,1.7,0,0.00706322
0.4,1.8,0,0.00749634
0.4,1.9,0,0.00793247
0.4,2,0,0.00836858
0.4,2.1,0,0.00880972
0.4,2.2,0,0.00925138
0.4,2.3,0,0.00969472
0.4,2.4,0,0.0101407
0.4,2.5,0,0.0105862
0.4,2.6,0,0.011034
0.4,2.7,0,0.0114828
0.4,2.8,0,0.0119308
0.4,2.9,0,0.0123798
0.4,3,0,0.0128278
0.4,3.1,0,0.0132725
0.4,3.2,0,0.0137187
0.4,3.3,0,0.0141598
0.4,3.4,0,0.0145991
0.4,3.5,0,0.0150366
0.4,3.6,0,0.0154622
0.4,3.7,0,0.0158895
0.4,3.8,0,0.0163061
0.4,3.9,0,0.0167161
0.4,4,0,0.0171236
0.4,4.1,0,0.0175077
0.4,4.2,0,0.0178935
0.4,4.3,0,0.018262
0.4,4.4,0,0.0186175
0.4,4.5,0,0.01897
0.4,4.6,0,0.0192858
0.4,4.7,0,0.0196029
0.4,4.8,0,0.019896
0.4,4.9,0,0.0201631
0.4,5,0,0.0204095
0.4,5.1,0,0.0206534
0.4,5.2,0,0.0208915
0.4,5.3,0,0.0210639
0.4,5.4,0,0.0212553
0.4,5.5,0,0.0213799
0.4,5.6,0,0.0215247
0.4,5.7,0,0.0215997
0.4,5.8,0,0.0216954
0.4,5.9,0,0.0217195
0.4,6,0,0.0217648
0.4,6.1,0,0.021738
0.4,6.2,0,0.0217322
0.4,6.3,0,0.021655
0.4,6.4,0,0.0215985
0.4,6.5,0,0.0214728
0.4,6.6,0,0.0213669
0.4,6.7,0,0.021195
0.4,6.8,0,0.0210418
0.4,6.9,0,0.0208224
0.4,7,0,0.0205836
0.4,7.1,0,0.0203695
0.4,7.2,0,0.020127
0.4,7.3,0,0.019862
0.4,7.4,0,0.0195663
0.4,7.5,0,0.0192601
0.4,7.6,0,0.0189445
0.4,7.7,0,0.0186071
0.4,7.8,0,0.0182623
0.4,7.9,0,0.0179076
0.4,8,0,0.0175383
0.4,8.1,0,0.0171646
0.4,8.2,0,0.0167818
0.4,8.3,0,0.0163898
0.4,8.4,0,0.0159962
0.4,8.5,0,0.0155954
0.4,8.6,0,0.0151893
0.4,8.7,0,0.0147837
0.4,8.8,0,0.0143735
0.4,8.9,0,0.0139609
0.4,9,0,0.0135495
0.4,9.1,0,0.0131373
0.4,9.2,0,0.0127241
0.4,9.3,0,0.0123128
0.4,9.4,0,0.0119034
0.4,9.5,0,0.0114942
0.4,9.6,0,0.011088
0.4,9.7,0,0.0106847
0.4,9.8,0,0.0102828
0.4,9.9,0,0.00988479
0.4,10,0,0.00949018
0.4,10.1,0,0.00909739
0.4,10.2,0,0.00870975
0.4,10.3,0,0.00832519
0.4,10.4,0,0.00794261
0.4,10.5,0,0.00756627
0.4,10.6,0,0.00719249
0.4,10.7,0,0.00682032
0.4,10.8,0,0.00645537
0.4,10.9,0,0.00609229
0.4,11,0,0.00573095
0.4,11.1,0,0.00537602
0.4,11.2,0,0.00502295
0.4,11.3,0,0.00467193
0.4,11.4,0,0.00432587
0.4,11.5,0,0.00398148
0.4,11.6,0,0.00363939
0.4,11.7,0,0.00330094
0.4,11.8,0,0.00296371
0.4,11.9,0,0.00262879
0.4,12,0,0.00229639
0.4,12.1,0,0.00196465
0.4,12.2,0,0.00163491
0.4,12.3,0,0.00130679
0.4,12.4,0,0.000978724
0.4,12.5,0,0.000651932
0.4,12.6,0,0.000326138
0.4,12.7,0,0
0.5,0,0,0
0.5,0.1,0,0.000405229
0.5,0.2,0,0.000810458
0.5,0.3,0,0.00121648
0.5,0.4,0,0.00162331
0.5,0.5,0,0.00203013
0.5,0.6,0,0.00243978
0.5,0.7,0,0.00284943
0.5,0.8,0,0.00326107
0.5,0.9,0,0.0036747
0.5,1,0,0.00408832
0.5,1.1,0,0.00450689
0.5,1.2,0,0.00492545
0.5,1.3,0,0.00534685
0.5,1.4,0,0.00577108
0.5,1.5,0,0.0061953
0.5,1.6,0,0.00662559
0.5,1.7,0,0.00705589
0.5,1.8,0,0.00748922
0.5,1.9,0,0.00792559
0.5,2,0,0.00836196
0.5,2.1,0,0.00880395
0.5,2.2,0,0.00924594
0.5,2.3,0,0.00969023
0.5,2.4,0,0.0101368
0.5,2.5,0,0.0105834
0.5,2.6,0,0.011033
0.5,2.7,0,0.0114825
0.5,2.8,0,0.0119324
0.5,2.9,0,0.0123825
0.5,3,0,0.0128326
0.5,3.1,0,0.0132801
0.5,3.2,0,0.0137275
0.5,3.3,0,0.0141717
0.5,3.4,0,0.0146125
0.5,3.5,0,0.0150533
0.5,3.6,0,0.0154825
0.5,3.7,0,0.0159117
0.5,3.8,0,0.0163322
0.5,3.9,0,0.0167441
0.5,4,0,0.017156
0.5,4.1,0,0.0175441
0.5,4.2,0,0.0179323
0.5,4.3,0,0.0183051
0.5,4.4,0,0.0186627
0.5,4.5,0,0.0190201
0.5,4.6,0,0.0193398
0.5,4.7,0,0.0196594
0.5,4.8,0,0.0199506
0.5,4.9,0,0.0202134
0.5,5,0,0.0204761
0.5,5.1,0,0.02072
0.5,5.2,0,0.020964
0.5,5.3,0,0.0211481
0.5,5.4,0,0.0213323
0.5,5.5,0,0.0214687
0.5,5.6,0,0.0216051
0.5,5.7,0,0.0216915
0.5,5.8,0,0.0217779
0.5,5.9,0,0.0218129
0.5,6,0,0.0218479
0.5,6.1,0,0.0218311
0.5,6.2,0,0.0218144
0.5,6.3,0,0.0217464
0.5,6.4,0,0.0216785
0.5,6.5,0,0.0215608
0.5,6.6,0,0.0214432
0.5,6.7,0,0.0212783
0.5,6.8,0,0.0211133
0.5,6.9,0,0.020881
0.5,7,0,0.0206487
0.5,7.1,0,0.0204079
0.5,7.2,0,0.0201672
0.5,7.3,0,0.0199167
0.5,7.4,0,0.0196109
0.5,7.5,0,0.0193051
0.5,7.6,0,0.0189876
0.5,7.7,0,0.0186426
0.5,7.8,0,0.0182977
0.5,7.9,0,0.0179394
0.5,8,0,0.0175648
0.5,8.1,0,0.0171903
0.5,8.2,0,0.0168033
0.5,8.3,0,0.016408
0.5,8.4,0,0.0160128
0.5,8.5,0,0.015608
0.5,8.6,0,0.0152001
0.5,8.7,0,0.0147921
0.5,8.8,0,0.0143788
0.5,8.9,0,0.013965
0.5,9,0,0.0135511
0.5,9.1,0,0.0131369
0.5,9.2,0,0.0127227
0.5,9.3,0,0.0123093
0.5,9.4,0,0.0118989
0.5,9.5,0,0.0114886
0.5,9.6,0,0.0110808
0.5,9.7,0,0.0106774
0.5,9.8,0,0.0102741
0.5,9.9,0,0.00987534
0.5,10,0,0.00948108
0.5,10.1,0,0.00908681
0.5,10.2,0,0.00869918
0.5,10.3,0,0.00831512
0.5,10.4,0,0.00793106
0.5,10.5,0,0.0075555
0.5,10.6,0,0.00718207
0.5,10.7,0,0.00680863
0.5,10.8,0,0.00644511
0.5,10.9,0,0.0060821
0.5,11,0,0.00572007
0.5,11.1,0,0.00536682
0.5,11.2,0,0.00501356
0.5,11.3,0,0.00466248
0.5,11.4,0,0.00431791
0.5,11.5,0,0.00397334
0.5,11.6,0,0.00363169
0.5,11.7,0,0.00329444
0.5,11.8,0,0.00295719
0.5,11.9,0,0.00262309
0.5,12,0,0.00229157
0.5,12.1,0,0.00196005
0.5,12.2,0,0.00163133
0.5,12.3,0,0.00130381
0.5,12.4,0,0.000976282
0.5,12.5,0,0.000650634
0.5,12.6,0,0.000325317
0.5,12.7,0,0
0.6,0,0,0
0.6,0.1,0,0.00040341
0.6,0.2,0,0.000807914
0.6,0.3,0,0.00121243
0.6,0.4,0,0.00161847
0.6,0.5,0,0.00202391
0.6,0.6,0,0.00243218
0.6,0.7,0,0.00284122
0.6,0.8,0,0.00325166
0.6,0.9,0,0.0036647
0.6,1,0,0.00407732
0.6,1.1,0,0.00449501
0.6,1.2,0,0.00491322
0.6,1.3,0,0.00533401
0.6,1.4,0,0.00575798
0.6,1.5,0,0.00618188
0.6,1.6,0,0.00661211
0.6,1.7,0,0.00704248
0.6,1.8,0,0.00747612
0.6,1.9,0,0.00791273
0.6,2,0,0.00834982
0.6,2.1,0,0.00879292
0.6,2.2,0,0.0092356
0.6,2.3,0,0.0096815
0.6,2.4,0,0.010129
0.6,2.5,0,0.0105778
0.6,2.6,0,0.01103
0.6,2.7,0,0.011481
0.6,2.8,0,0.0119342
0.6,2.9,0,0.012386
0.6,3,0,0.0128401
0.6,3.1,0,0.013292
0.6,3.2,0,0.013742
0.6,3.3,0,0.0141913
0.6,3.4,0,0.0146348
0.6,3.5,0,0.0150814
0.6,3.6,0,0.015517
0.6,3.7,0,0.0159495
0.6,3.8,0,0.016377
0.6,3.9,0,0.0167925
0.6,4,0,0.0172117
0.6,4.1,0,0.0176077
0.6,4.2,0,0.0179997
0.6,4.3,0,0.0183805
0.6,4.4,0,0.0187421
0.6,4.5,0,0.0191075
0.6,4.6,0,0.0194352
0.6,4.7,0,0.0197587
0.6,4.8,0,0.0200634
0.6,4.9,0,0.0203359
0.6,5,0,0.020593
0.6,5.1,0,0.020845
0.6,5.2,0,0.0210915
0.6,5.3,0,0.0212696
0.6,5.4,0,0.0214682
0.6,5.5,0,0.0215968
0.6,5.6,0,0.0217471
0.6,5.7,0,0.0218241
0.6,5.8,0,0.0219236
0.6,5.9,0,0.0219477
0.6,6,0,0.0219947
0.6,6.1,0,0.0219657
0.6,6.2,0,0.0219596
0.6,6.3,0,0.0218783
0.6,6.4,0,0.0218195
0.6,6.5,0,0.0216878
0.6,6.6,0,0.0215776
0.6,6.7,0,0.0213982
0.6,6.8,0,0.021239
0.6,6.9,0,0.0210108
0.6,7,0,0.0207628
0.6,7.1,0,0.0205384
0.6,7.2,0,0.0202911
0.6,7.3,0,0.0200142
0.6,7.4,0,0.0197057
0.6,7.5,0,0.019394
0.6,7.6,0,0.0190657
0.6,7.7,0,0.0187173
0.6,7.8,0,0.0183651
0.6,7.9,0,0.0179979
0.6,8,0,0.0176199
0.6,8.1,0,0.0172375
0.6,8.2,0,0.0168431
0.6,8.3,0,0.016445
0.6,8.4,0,0.016042
0.6,8.5,0,0.0156311
0.6,8.6,0,0.0152209
0.6,8.7,0,0.0148061
0.6,8.8,0,0.0143877
0.6,8.9,0,0.0139717
0.6,9,0,0.0135529
0.6,9.1,0,0.0131344
0.6,9.2,0,0.0127186
0.6,9.3,0,0.0123018
0.6,9.4,0,0.011888
0.6,9.5,0,0.0114767
0.6,9.6,0,0.0110665
0.6,9.7,0,0.0106607
0.6,9.8,0,0.0102569
0.6,9.9,0,0.00985658
0.6,10,0,0.00946077
0.6,10.1,0,0.00906666
0.6,10.2,0,0.00867793
0.6,10.3,0,0.00829299
0.6,10.4,0,0.00790981
0.6,10.5,0,0.00753346
0.6,10.6,0,0.00715974
0.6,10.7,0,0.00678777
0.6,10.8,0,0.00642366
0.6,10.9,0,0.00606096
0.6,11,0,0.00570056
0.6,11.1,0,0.00534708
0.6,11.2,0,0.00499463
0.6,11.3,0,0.00464514
0.6,11.4,0,0.00430076
0.6,11.5,0,0.00395737
0.6,11.6,0,0.00361727
0.6,11.7,0,0.00328045
0.6,11.8,0,0.00294472
0.6,11.9,0,0.00261214
0.6,12,0,0.00228117
0.6,12.1,0,0.00195147
0.6,12.2,0,0.00162427
0.6,12.3,0,0.00129729
0.6,12.4,0,0.000971848
0.6,12.5,0,0.000647769
0.6,12.6,0,0.000323179
0.6,12.7,0,0
0.7,0,0,0
0.7,0.1,0,0.000402685
0.7,0.2,0,0.000804646
0.7,0.3,0,0.00120916
0.7,0.4,0,0.00161303
0.7,0.5,0,0.00201769
0.7,0.6,0,0.00242534
0.7,0.7,0,0.00283238
0.7,0.8,0,0.00324283
0.7,0.9,0,0.00365428
0.7,1,0,0.00406632
0.7,1.1,0,0.00448365
0.7,1.2,0,0.00490064
0.7,1.3,0,0.00532142
0.7,1.4,0,0.00574482
0.7,1.5,0,0.00616846
0.7,1.6,0,0.00659877
0.7,1.7,0,0.00702914
0.7,1.8,0,0.00746279
0.7,1.9,0,0.00790035
0.7,2,0,0.00833768
0.7,2.1,0,0.00878148
0.7,2.2,0,0.00922596
0.7,2.3,0,0.00967186
0.7,2.4,0,0.0101224
0.7,2.5,0,0.0105721
0.7,2.6,0,0.0110258
0.7,2.7,0,0.011481
0.7,2.8,0,0.0119342
0.7,2.9,0,0.0123917
0.7,3,0,0.0128476
0.7,3.1,0,0.013302
0.7,3.2,0,0.0137588
0.7,3.3,0,0.0142081
0.7,3.4,0,0.0146602
0.7,3.5,0,0.0151095
0.7,3.6,0,0.0155485
0.7,3.7,0,0.0159907
0.7,3.8,0,0.0164182
0.7,3.9,0,0.0168446
0.7,4,0,0.0172675
0.7,4.1,0,0.0176673
0.7,4.2,0,0.0180711
0.7,4.3,0,0.0184519
0.7,4.4,0,0.0188254
0.7,4.5,0,0.0191949
0.7,4.6,0,0.0195264
0.7,4.7,0,0.0198617
0.7,4.8,0,0.0201665
0.7,4.9,0,0.020443
0.7,5,0,0.0207098
0.7,5.1,0,0.0209659
0.7,5.2,0,0.0212191
0.7,5.3,0,0.0214065
0.7,5.4,0,0.0216041
0.7,5.5,0,0.0217412
0.7,5.6,0,0.0218891
0.7,5.7,0,0.0219735
0.7,5.8,0,0.0220693
0.7,5.9,0,0.0220997
0.7,6,0,0.0221415
0.7,6.1,0,0.0221174
0.7,6.2,0,0.0221048
0.7,6.3,0,0.0220271
0.7,6.4,0,0.0219605
0.7,6.5,0,0.0218309
0.7,6.6,0,0.0217121
0.7,6.7,0,0.0215333
0.7,6.8,0,0.0213647
0.7,6.9,0,0.0211257
0.7,7,0,0.0208768
0.7,7.1,0,0.0206393
0.7,7.2,0,0.0203845
0.7,7.3,0,0.0201122
0.7,7.4,0,0.0197958
0.7,7.5,0,0.0194738
0.7,7.6,0,0.0191452
0.7,7.7,0,0.0187871
0.7,7.8,0,0.0184258
0.7,7.9,0,0.0180586
0.7,8,0,0.0176698
0.7,8.1,0,0.0172805
0.7,8.2,0,0.0168859
0.7,8.3,0,0.0164766
0.7,8.4,0,0.0160691
0.7,8.5,0,0.015657
0.7,8.6,0,0.015237
0.7,8.7,0,0.0148194
0.7,8.8,0,0.0143994
0.7,8.9,0,0.0139757
0.7,9,0,0.013555
0.7,9.1,0,0.0131348
0.7,9.2,0,0.0127129
0.7,9.3,0,0.012295
0.7,9.4,0,0.0118798
0.7,9.5,0,0.0114638
0.7,9.6,0,0.0110533
0.7,9.7,0,0.0106463
0.7,9.8,0,0.0102394
0.7,9.9,0,0.00983903
0.7,10,0,0.00944253
0.7,10.1,0,0.00904658
0.7,10.2,0,0.00865792
0.7,10.3,0,0.008273
0.7,10.4,0,0.00788874
0.7,10.5,0,0.00751272
0.7,10.6,0,0.00713954
0.7,10.7,0,0.00676698
0.7,10.8,0,0.00640356
0.7,10.9,0,0.0060417
0.7,11,0,0.00568107
0.7,11.1,0,0.00532869
0.7,11.2,0,0.00497728
0.7,11.3,0,0.00462776
0.7,11.4,0,0.00428488
0.7,11.5,0,0.0039427
0.7,11.6,0,0.0036026
0.7,11.7,0,0.00326778
0.7,11.8,0,0.00293326
0.7,11.9,0,0.00260067
0.7,12,0,0.00227221
0.7,12.1,0,0.00194355
0.7,12.2,0,0.00161661
0.7,12.3,0,0.00129243
0.7,12.4,0,0.00096773
0.7,12.5,0,0.000644249
0.7,12.6,0,0.000322545
0.7,12.7,0,0
0.8,0,0,0
0.8,0.1,0,0.000400588
0.8,0.2,0,0.000802549
0.8,0.3,0,0.00120325
0.8,0.4,0,0.00160712
0.8,0.5,0,0.00200999
0.8,0.6,0,0.00241599
0.8,0.7,0,0.00282303
0.8,0.8,0,0.00323047
0.8,0.9,0,0.00364193
0.8,1,0,0.00405262
0.8,1.1,0,0.00446892
0.8,1.2,0,0.00488591
0.8,1.3,0,0.00530512
0.8,1.4,0,0.00572852
0.8,1.5,0,0.00615162
0.8,1.6,0,0.0065819
0.8,1.7,0,0.00701228
0.8,1.8,0,0.00744659
0.8,1.9,0,0.00788415
0.8,2,0,0.00832215
0.8,2.1,0,0.0087674
0.8,2.2,0,0.00921188
0.8,2.3,0,0.00966161
0.8,2.4,0,0.0101122
0.8,2.5,0,0.0105642
0.8,2.6,0,0.0110213
0.8,2.7,0,0.0114766
0.8,2.8,0,0.0119376
0.8,2.9,0,0.0123951
0.8,3,0,0.0128554
0.8,3.1,0,0.0133156
0.8,3.2,0,0.0137725
0.8,3.3,0,0.0142343
0.8,3.4,0,0.0146864
0.8,3.5,0,0.0151426
0.8,3.6,0,0.0155896
0.8,3.7,0,0.0160318
0.8,3.8,0,0.0164763
0.8,3.9,0,0.0169027
0.8,4,0,0.0173344
0.8,4.1,0,0.017744
0.8,4.2,0,0.0181478
0.8,4.3,0,0.0185482
0.8,4.4,0,0.0189217
0.8,4.5,0,0.0193009
0.8,4.6,0,0.0196425
0.8,4.7,0,0.0199778
0.8,4.8,0,0.0203014
0.8,4.9,0,0.0205779
0.8,5,0,0.0208525
0.8,5.1,0,0.0211159
0.8,5.2,0,0.0213753
0.8,5.3,0,0.021568
0.8,5.4,0,0.0217707
0.8,5.5,0,0.0219118
0.8,5.6,0,0.0220634
0.8,5.7,0,0.0221503
0.8,5.8,0,0.0222483
0.8,5.9,0,0.0222794
0.8,6,0,0.0223219
0.8,6.1,0,0.0222969
0.8,6.2,0,0.0222832
0.8,6.3,0,0.0222029
0.8,6.4,0,0.0221337
0.8,6.5,0,0.0220001
0.8,6.6,0,0.021877
0.8,6.7,0,0.0216929
0.8,6.8,0,0.0215187
0.8,6.9,0,0.0212732
0.8,7,0,0.0210161
0.8,7.1,0,0.0207698
0.8,7.2,0,0.020515
0.8,7.3,0,0.0202286
0.8,7.4,0,0.0199039
0.8,7.5,0,0.0195818
0.8,7.6,0,0.0192354
0.8,7.7,0,0.0188719
0.8,7.8,0,0.0185102
0.8,7.9,0,0.0181231
0.8,8,0,0.017732
0.8,8.1,0,0.0173395
0.8,8.2,0,0.0169273
0.8,8.3,0,0.0165181
0.8,8.4,0,0.016105
0.8,8.5,0,0.0156802
0.8,8.6,0,0.0152602
0.8,8.7,0,0.0148358
0.8,8.8,0,0.0144074
0.8,8.9,0,0.0139837
0.8,9,0,0.0135558
0.8,9.1,0,0.0131306
0.8,9.2,0,0.0127087
0.8,9.3,0,0.0122843
0.8,9.4,0,0.0118665
0.8,9.5,0,0.0114505
0.8,9.6,0,0.0110346
0.8,9.7,0,0.0106266
0.8,9.8,0,0.0102194
0.8,9.9,0,0.00981546
0.8,10,0,0.00941876
0.8,10.1,0,0.00902229
0.8,10.2,0,0.00863217
0.8,10.3,0,0.00824725
0.8,10.4,0,0.00786271
0.8,10.5,0,0.00748668
0.8,10.6,0,0.00711349
0.8,10.7,0,0.00674123
0.8,10.8,0,0.0063786
0.8,10.9,0,0.00601674
0.8,11,0,0.00565725
0.8,11.1,0,0.0053059
0.8,11.2,0,0.00495449
0.8,11.3,0,0.00460708
0.8,11.4,0,0.00426511
0.8,11.5,0,0.00392293
0.8,11.6,0,0.00358594
0.8,11.7,0,0.00325169
0.8,11.8,0,0.00291759
0.8,11.9,0,0.00258867
0.8,12,0,0.00226028
0.8,12.1,0,0.00193267
0.8,12.2,0,0.00160919
0.8,12.3,0,0.00128501
0.8,12.4,0,0.000962068
0.8,12.5,0,0.000641632
0.8,12.6,0,0.000319928
0.8,12.7,0,0
0.9,0,0,0
0.9,0.1,0,0.000399214
0.9,0.2,0,0.000797745
0.9,0.3,0,0.00119845
0.9,0.4,0,0.00159895
0.9,0.5,0,0.00200081
0.9,0.6,0,0.00240577
0.9,0.7,0,0.00280993
0.9,0.8,0,0.00321738
0.9,0.9,0,0.00362631
0.9,1,0,0.00403624
0.9,1.1,0,0.00445186
0.9,1.2,0,0.00486706
0.9,1.3,0,0.00528627
0.9,1.4,0,0.00570854
0.9,1.5,0,0.00613136
0.9,1.6,0,0.00656154
0.9,1.7,0,0.0069919
0.9,1.8,0,0.00742621
0.9,1.9,0,0.0078648
0.9,2,0,0.00830322
0.9,2.1,0,0.00874923
0.9,2.2,0,0.00919626
0.9,2.3,0,0.009646
0.9,2.4,0,0.0101006
0.9,2.5,0,0.0105541
0.9,2.6,0,0.0110131
0.9,2.7,0,0.0114743
0.9,2.8,0,0.0119353
0.9,2.9,0,0.0124007
0.9,3,0,0.0128637
0.9,3.1,0,0.0133272
0.9,3.2,0,0.0137941
0.9,3.3,0,0.014256
0.9,3.4,0,0.0147202
0.9,3.5,0,0.0151804
0.9,3.6,0,0.0156322
0.9,3.7,0,0.0160886
0.9,3.8,0,0.0165331
0.9,3.9,0,0.0169755
0.9,4,0,0.0174125
0.9,4.1,0,0.017828
0.9,4.2,0,0.0182488
0.9,4.3,0,0.0186492
0.9,4.4,0,0.0190408
0.9,4.5,0,0.0194256
0.9,4.6,0,0.0197734
0.9,4.7,0,0.0201258
0.9,4.8,0,0.0204494
0.9,4.9,0,0.0207485
0.9,5,0,0.0210212
0.9,5.1,0,0.0212946
0.9,5.2,0,0.0215601
0.9,5.3,0,0.0217541
0.9,5.4,0,0.021968
0.9,5.5,0,0.0221084
0.9,5.6,0,0.0222701
0.9,5.7,0,0.0223542
0.9,5.8,0,0.0224605
0.9,5.9,0,0.0224869
0.9,6,0,0.0225358
0.9,6.1,0,0.0225041
0.9,6.2,0,0.0224948
0.9,6.3,0,0.0224059
0.9,6.4,0,0.022339
0.9,6.5,0,0.0221951
0.9,6.6,0,0.0220723
0.9,6.7,0,0.0218767
0.9,6.8,0,0.0217008
0.9,6.9,0,0.0214523
0.9,7,0,0.0211807
0.9,7.1,0,0.0209409
0.9,7.2,0,0.0206657
0.9,7.3,0,0.0203693
0.9,7.4,0,0.0200408
0.9,7.5,0,0.0196973
0.9,7.6,0,0.0193485
0.9,7.7,0,0.0189766
0.9,7.8,0,0.0185958
0.9,7.9,0,0.0182086
0.9,8,0,0.0178055
0.9,8.1,0,0.017399
0.9,8.2,0,0.0169866
0.9,8.3,0,0.0165634
0.9,8.4,0,0.0161414
0.9,8.5,0,0.0157151
0.9,8.6,0,0.0152816
0.9,8.7,0,0.0148524
0.9,8.8,0,0.0144216
0.9,8.9,0,0.0139868
0.9,9,0,0.0135563
0.9,9.1,0,0.0131282
0.9,9.2,0,0.0126979
0.9,9.3,0,0.0122724
0.9,9.4,0,0.0118512
0.9,9.5,0,0.0114298
0.9,9.6,0,0.0110137
0.9,9.7,0,0.0106024
0.9,9.8,0,0.0101926
0.9,9.9,0,0.00978865
0.9,10,0,0.0093892
0.9,10.1,0,0.00899215
0.9,10.2,0,0.00860187
0.9,10.3,0,0.00821542
0.9,10.4,0,0.00783142
0.9,10.5,0,0.00745511
0.9,10.6,0,0.00708198
0.9,10.7,0,0.00671058
0.9,10.8,0,0.00634776
0.9,10.9,0,0.00598739
0.9,11,0,0.00562866
0.9,11.1,0,0.00527738
0.9,11.2,0,0.0049286
0.9,11.3,0,0.00458167
0.9,11.4,0,0.00424048
0.9,11.5,0,0.00390148
0.9,11.6,0,0.00356457
0.9,11.7,0,0.00323206
0.9,11.8,0,0.00290093
0.9,11.9,0,0.002572
0.9,12,0,0.00224638
0.9,12.1,0,0.00192118
0.9,12.2,0,0.00159795
0.9,12.3,0,0.00127733
0.9,12.4,0,0.000956119
0.9,12.5,0,0.000636272
0.9,12.6,0,0.000318588
0.9,12.7,0,0
1,0,0,0
1,0.1,0,0.000397158
1,0.2,0,0.000794315
1,0.3,0,0.00119264
1,0.4,0,0.00159213
1,0.5,0,0.00199162
1,0.6,0,0.00239475
1,0.7,0,0.00279788
1,0.8,0,0.00320352
1,0.9,0,0.00361169
1,1,0,0.00401985
1,1.1,0,0.00443437
1,1.2,0,0.00484889
1,1.3,0,0.00526713
1,1.4,0,0.00568911
1,1.5,0,0.00611109
1,1.6,0,0.00654136
1,1.7,0,0.00697162
1,1.8,0,0.00740626
1,1.9,0,0.00784528
1,2,0,0.0082843
1,2.1,0,0.00873209
1,2.2,0,0.00917989
1,2.3,0,0.00963181
1,2.4,0,0.0100879
1,2.5,0,0.0105439
1,2.6,0,0.011007
1,2.7,0,0.0114701
1,2.8,0,0.0119357
1,2.9,0,0.0124038
1,3,0,0.012872
1,3.1,0,0.0133422
1,3.2,0,0.0138124
1,3.3,0,0.0142817
1,3.4,0,0.01475
1,3.5,0,0.0152183
1,3.6,0,0.0156795
1,3.7,0,0.0161407
1,3.8,0,0.0165951
1,3.9,0,0.0170428
1,4,0,0.0174905
1,4.1,0,0.0179172
1,4.2,0,0.0183439
1,4.3,0,0.0187559
1,4.4,0,0.0191531
1,4.5,0,0.0195504
1,4.6,0,0.019909
1,4.7,0,0.0202676
1,4.8,0,0.0205955
1,4.9,0,0.0208927
1,5,0,0.0211899
1,5.1,0,0.0214674
1,5.2,0,0.021745
1,5.3,0,0.0219551
1,5.4,0,0.0221654
1,5.5,0,0.022321
1,5.6,0,0.0224767
1,5.7,0,0.0225748
1,5.8,0,0.0226728
1,5.9,0,0.0227113
1,6,0,0.0227498
1,6.1,0,0.0227281
1,6.2,0,0.0227064
1,6.3,0,0.0226253
1,6.4,0,0.0225442
1,6.5,0,0.0224059
1,6.6,0,0.0222676
1,6.7,0,0.0220752
1,6.8,0,0.0218829
1,6.9,0,0.0216141
1,7,0,0.0213454
1,7.1,0,0.0210695
1,7.2,0,0.0207937
1,7.3,0,0.0205073
1,7.4,0,0.020161
1,7.5,0,0.0198147
1,7.6,0,0.0194567
1,7.7,0,0.0190712
1,7.8,0,0.0186856
1,7.9,0,0.0182878
1,8,0,0.0178749
1,8.1,0,0.0174621
1,8.2,0,0.0170391
1,8.3,0,0.0166095
1,8.4,0,0.0161799
1,8.5,0,0.0157445
1,8.6,0,0.0153072
1,8.7,0,0.0148698
1,8.8,0,0.014432
1,8.9,0,0.0139942
1,9,0,0.0135566
1,9.1,0,0.0131238
1,9.2,0,0.012691
1,9.3,0,0.01226
1,9.4,0,0.0118361
1,9.5,0,0.0114123
1,9.6,0,0.0109925
1,9.7,0,0.0105801
1,9.8,0,0.0101678
1,9.9,0,0.00976188
1,10,0,0.00936247
1,10.1,0,0.00896306
1,10.2,0,0.00857241
1,10.3,0,0.00818648
1,10.4,0,0.00780055
1,10.5,0,0.00742526
1,10.6,0,0.00705263
1,10.7,0,0.00667999
1,10.8,0,0.00631931
1,10.9,0,0.00595925
1,11,0,0.00560034
1,11.1,0,0.00525172
1,11.2,0,0.0049031
1,11.3,0,0.00455697
1,11.4,0,0.00421834
1,11.5,0,0.0038797
1,11.6,0,0.00354439
1,11.7,0,0.00321406
1,11.8,0,0.00288373
1,11.9,0,0.00255696
1,12,0,0.00223308
1,12.1,0,0.00190921
1,12.2,0,0.00158853
1,12.3,0,0.0012692
1,12.4,0,0.000949883
1,12.5,0,0.000632972
1,12.6,0,0.000316486
1,12.7,0,0
1.1,0,0,0
1.1,0.1,0,0.000393359
1.1,0.2,0,0.000789165
1.1,0.3,0,0.00118452
1.1,0.4,0,0.00158239
1.1,0.5,0,0.00197915
1.1,0.6,0,0.0023794
1.1,0.7,0,0.00278126
1.1,0.8,0,0.00318441
1.1,0.9,0,0.00359133
1.1,1,0,0.00399735
1.1,1.1,0,0.00440991
1.1,1.2,0,0.00482361
1.1,1.3,0,0.00524041
1.1,1.4,0,0.00566174
1.1,1.5,0,0.00608274
1.1,1.6,0,0.00651255
1.1,1.7,0,0.00694273
1.1,1.8,0,0.00737757
1.1,1.9,0,0.00781688
1.1,2,0,0.00825671
1.1,2.1,0,0.00870629
1.1,2.2,0,0.00915508
1.1,2.3,0,0.0096096
1.1,2.4,0,0.0100673
1.1,2.5,0,0.0105267
1.1,2.6,0,0.0109946
1.1,2.7,0,0.0114602
1.1,2.8,0,0.0119316
1.1,2.9,0,0.0124031
1.1,3,0,0.0128779
1.1,3.1,0,0.0133569
1.1,3.2,0,0.0138313
1.1,3.3,0,0.0143102
1.1,3.4,0,0.014784
1.1,3.5,0,0.0152625
1.1,3.6,0,0.0157368
1.1,3.7,0,0.0162039
1.1,3.8,0,0.0166719
1.1,3.9,0,0.0171271
1.1,4,0,0.0175882
1.1,4.1,0,0.0180315
1.1,4.2,0,0.0184653
1.1,4.3,0,0.0188933
1.1,4.4,0,0.0192993
1.1,4.5,0,0.0197113
1.1,4.6,0,0.0200878
1.1,4.7,0,0.0204535
1.1,4.8,0,0.0208039
1.1,4.9,0,0.0211165
1.1,5,0,0.0214114
1.1,5.1,0,0.0217058
1.1,5.2,0,0.0219889
1.1,5.3,0,0.0221983
1.1,5.4,0,0.0224268
1.1,5.5,0,0.0225787
1.1,5.6,0,0.0227512
1.1,5.7,0,0.0228424
1.1,5.8,0,0.0229552
1.1,5.9,0,0.0229839
1.1,6,0,0.0230346
1.1,6.1,0,0.0230002
1.1,6.2,0,0.0229879
1.1,6.3,0,0.0228916
1.1,6.4,0,0.0228169
1.1,6.5,0,0.0226614
1.1,6.6,0,0.0225264
1.1,6.7,0,0.0223154
1.1,6.8,0,0.0221234
1.1,6.9,0,0.0218566
1.1,7,0,0.0215615
1.1,7.1,0,0.0212999
1.1,7.2,0,0.0210135
1.1,7.3,0,0.0206889
1.1,7.4,0,0.020333
1.1,7.5,0,0.0199765
1.1,7.6,0,0.0195986
1.1,7.7,0,0.0192033
1.1,7.8,0,0.0188053
1.1,7.9,0,0.0183903
1.1,8,0,0.017969
1.1,8.1,0,0.0175426
1.1,8.2,0,0.0171052
1.1,8.3,0,0.0166691
1.1,8.4,0,0.0162261
1.1,8.5,0,0.0157788
1.1,8.6,0,0.0153367
1.1,8.7,0,0.0148876
1.1,8.8,0,0.01444
1.1,8.9,0,0.0139983
1.1,9,0,0.0135521
1.1,9.1,0,0.0131113
1.1,9.2,0,0.0126758
1.1,9.3,0,0.0122389
1.1,9.4,0,0.011809
1.1,9.5,0,0.0113835
1.1,9.6,0,0.0109598
1.1,9.7,0,0.0105436
1.1,9.8,0,0.0101304