/*--------------------------------*- C++ -*----------------------------------*\
| =========                 |                                                 |
| \\      /  F ield         | OpenFOAM: The Open Source CFD Toolbox           |
|  \\    /   O peration     | Version:  v1806                                 |
|   \\  /    A nd           | Web:      www.OpenFOAM.com                      |
|    \\/     M anipulation  |                                                 |
\*---------------------------------------------------------------------------*/
FoamFile
{
    version     2.0;
    format      ascii;
    class       surfaceScalarField;
    location    "1";
    object      phi;
}
// * * * * * * * * * * * * * * * * * * * * * * * * * * * * * * * * * * * * * //

dimensions      [0 3 -1 0 0 0 0];
oriented        oriented;


internalField   nonuniform List<scalar> 
13505
(
-3.94615e-08
0.0847829
-0.092453
-0.131359
0.139029
-1.07315e-10
0.0847799
-0.0924542
-0.131355
0.139029
3.98704e-08
0.0847799
-0.0924542
-0.131355
0.139029
0.084783
-0.0924529
-0.13136
0.139029
-2.02629e-08
-0.192728
0.0348497
0.157878
-1.18465e-10
-0.192727
0.034844
0.157883
2.07308e-08
-0.192727
0.034844
0.157883
-0.192728
0.0348497
0.157878
-8.07959e-08
-0.107945
-2.64962e-10
-0.107947
8.10379e-08
-0.107947
-0.107945
-4.30605e-09
-0.0160482
0.0184326
0.0252792
-0.0276636
-3.39728e-11
-0.0160482
0.0184338
0.0252791
-0.0276647
4.39084e-09
-0.0160482
0.0184338
0.0252791
-0.0276647
-0.0160482
0.0184326
0.0252792
-0.0276636
-3.09187e-08
0.0653972
-0.0752
0.0201364
-0.0103335
-2.8391e-11
0.0654
-0.0752025
0.0201358
-0.0103334
3.10288e-08
0.0654
-0.0752025
0.0201358
-0.0103334
0.0653971
-0.0752
0.0201364
-0.0103335
-2.00154e-08
0.0391474
0.0102015
-3.6509e-11
0.0391497
0.0102022
2.01159e-08
0.0391497
0.0102022
0.0391474
0.0102015
-1.83679e-08
0.0354165
-0.141914
-0.0764587
0.182956
-2.31891e-11
0.0354121
-0.141916
-0.076457
0.182961
1.85346e-08
0.035412
-0.141916
-0.076457
0.182961
0.0354165
-0.141914
-0.0764587
0.182956
-4.64709e-08
-0.168576
0.181156
0.0228367
3.71433e-11
-0.168582
0.181158
0.0228355
4.68859e-08
-0.168582
0.181158
0.0228355
-0.168576
0.181156
0.0228367
1.59234e-09
0.0204031
-0.178358
-0.0106215
-9.40763e-11
0.0203959
-0.178353
-0.0106244
-1.45922e-09
0.0203959
-0.178353
-0.0106244
0.0204031
-0.178358
-0.0106214
-1.20263e-08
0.0731693
-0.19468
-8.7494e-11
0.0731662
-0.194686
1.22122e-08
0.0731662
-0.194686
0.0731692
-0.19468
-8.59677e-09
-0.150427
0.147137
-1.70996e-11
-0.150429
0.147138
8.80717e-09
-0.150429
0.147138
-0.150427
0.147137
-3.70916e-09
0.000942805
-0.00535192
0.00799012
-0.003581
-1.10424e-11
0.000942773
-0.00535196
0.00799035
-0.00358117
3.69459e-09
0.000942773
-0.00535196
0.00799036
-0.00358117
0.000942801
-0.00535192
0.00799012
-0.003581
-4.45236e-09
-0.00631975
-0.00041145
0.00767401
-1.95072e-11
-0.00632004
-0.000411272
0.00767408
4.40786e-09
-0.00632004
-0.000411272
0.00767408
-0.00631976
-0.000411453
0.00767402
-1.13699e-08
-0.0552761
0.0657952
-0.109417
0.0988981
-9.33745e-11
-0.0552716
0.0657906
-0.109416
0.0988972
1.14246e-08
-0.0552716
0.0657906
-0.109416
0.0988972
-0.0552761
0.0657952
-0.109417
0.0988982
-9.73197e-09
0.109128
-0.150354
-0.0140501
-9.72148e-11
0.109132
-0.150359
-0.0140448
9.79925e-09
0.109132
-0.150359
-0.0140448
0.109128
-0.150354
-0.0140501
-2.43599e-08
0.151571
0.0233524
-8.99089e-11
0.151574
0.0233483
2.43886e-08
0.151574
0.0233483
0.151571
0.0233524
-2.28839e-09
-0.0129599
-0.00243483
0.0137221
0.00167264
-2.38839e-11
-0.0129602
-0.00243513
0.0137227
0.00167267
2.31525e-09
-0.0129602
-0.00243513
0.0137227
0.00167267
-0.0129599
-0.00243483
0.0137221
0.00167264
-3.96807e-09
0.0087841
-0.00896722
-0.0127768
-2.74102e-11
0.00878481
-0.00896669
-0.0127784
3.97872e-09
0.00878481
-0.00896669
-0.0127784
0.0087841
-0.00896722
-0.0127768
-4.12858e-09
0.0113098
-0.00496053
-2.85505e-11
0.0113101
-0.00496043
4.13155e-09
0.0113101
-0.00496044
0.0113098
-0.00496053
-1.22081e-08
-0.0669829
0.0501227
-0.0814964
0.0983566
-3.86862e-12
-0.0669803
0.0501215
-0.0814978
0.0983566
1.22745e-08
-0.0669803
0.0501215
-0.0814978
0.0983566
-0.0669829
0.0501227
-0.0814964
0.0983566
-1.09924e-09
0.0993497
-0.141858
-0.0244749
4.20985e-11
0.0993534
-0.141861
-0.024473
1.09505e-09
0.0993534
-0.141861
-0.024473
0.0993497
-0.141858
-0.0244749
-1.67585e-08
0.132689
0.0167836
5.88874e-11
0.132694
0.0167808
1.68211e-08
0.132694
0.0167808
0.132689
0.0167836
-3.13357e-09
0.000155337
-0.00294253
0.00927248
-0.00648528
-3.53408e-11
0.000155105
-0.00294254
0.00927269
-0.00648526
3.03881e-09
0.000155105
-0.00294254
0.0092727
-0.00648526
0.000155338
-0.00294254
0.00927249
-0.00648529
-4.09289e-09
0.00933102
-0.00295866
-0.00621701
-3.19215e-11
0.00933136
-0.00295922
-0.00621704
4.02535e-09
0.00933136
-0.00295922
-0.00621705
0.00933103
-0.00295867
-0.00621702
-5.25635e-09
0.00819751
-0.00895172
-0.00218831
-3.66376e-11
0.00819746
-0.00895182
-0.00218818
5.18155e-09
0.00819746
-0.00895182
-0.00218818
0.00819752
-0.00895174
-0.00218831
-6.26346e-09
0.0026332
-0.00483819
-0.00358862
0.00579362
-2.63357e-11
0.00263344
-0.00483831
-0.00358884
0.00579371
6.19063e-09
0.00263344
-0.00483831
-0.00358884
0.00579371
0.0026332
-0.00483819
-0.00358862
0.00579362
-4.08821e-09
-0.00468471
0.00219882
0.0051191
-1.59329e-11
-0.00468468
0.00219888
0.00511923
4.04409e-09
-0.00468468
0.00219888
0.00511923
-0.00468472
0.00219882
0.0051191
-3.66089e-09
-0.00305348
-0.00569718
0.00391249
-1.41129e-11
-0.00305364
-0.00569713
0.00391246
3.60598e-09
-0.00305364
-0.00569713
0.00391246
-0.00305348
-0.00569719
0.00391249
-3.0163e-09
-0.00577261
-0.00241445
0.00513358
-7.04894e-12
-0.00577265
-0.00241467
0.00513368
3.01192e-09
-0.00577265
-0.00241467
0.00513368
-0.00577262
-0.00241445
0.00513359
-6.07551e-08
0.164686
-0.168246
-0.102154
0.105715
-1.69824e-10
0.164689
-0.168249
-0.102155
0.105715
6.07242e-08
0.164689
-0.168249
-0.102155
0.105715
0.164686
-0.168246
-0.102154
0.105715
-4.12784e-08
0.0697289
-0.0469008
-5.9714e-11
0.0697299
-0.0469022
4.13954e-08
0.0697299
-0.0469022
0.0697289
-0.0469009
-1.08137e-08
0.17616
0.00429804
-0.173345
-0.00711233
-1.05829e-10
0.176156
0.00430403
-0.173342
-0.00711796
1.10234e-08
0.176155
0.004304
-0.173342
-0.00711794
0.17616
0.00429796
-0.173345
-0.00711225
-3.59253e-08
-0.0101442
0.0572155
0.129088
-1.1509e-10
-0.0101459
0.0572174
0.129084
3.61988e-08
-0.010146
0.0572175
0.129084
-0.0101443
0.0572155
0.129088
-3.35544e-08
0.118063
0.035667
-0.149431
-1.02296e-10
0.118068
0.035669
-0.149433
3.37267e-08
0.118068
0.035669
-0.149433
0.118063
0.035667
-0.149432
-5.4945e-08
0.0391465
0.0687719
-1.27227e-10
0.0391491
0.0687732
5.54121e-08
0.039149
0.0687732
0.0391464
0.0687719
-7.66978e-08
-0.270312
0.249484
0.0116143
0.00921457
2.01715e-11
-0.270309
0.249487
0.0116126
0.00920973
7.70636e-08
-0.270309
0.249487
0.0116125
0.00920974
-0.270312
0.249484
0.0116142
0.00921463
-1.33745e-07
-0.0209177
-0.319679
0.270998
0.0695986
2.22547e-11
-0.02092
-0.319677
0.270992
0.0696044
1.33621e-07
-0.0209198
-0.319677
0.270992
0.0696043
-0.0209175
-0.319679
0.270998
0.0695984
-1.28548e-07
-0.350716
0.0594858
1.15362e-11
-0.350716
0.0594875
1.28887e-07
-0.350716
0.0594875
-0.350716
0.0594859
-4.44827e-08
0.172023
0.00420139
0.0732594
-1.37065e-11
0.17202
0.00420476
0.0732613
4.46639e-08
0.17202
0.00420475
0.0732613
0.172023
0.0042014
0.0732594
2.85793e-11
0.139449
0.0682413
-9.99206e-11
0.13945
0.0682397
3.62468e-10
0.13945
0.0682397
0.139449
0.0682413
-8.74025e-08
-0.184711
-0.245415
0.0794105
-3.8061e-11
-0.184705
-0.245416
0.079404
8.74473e-08
-0.184705
-0.245416
0.079404
-0.184711
-0.245415
0.0794105
-2.2645e-08
-0.246939
-0.0743966
0.136624
-3.54611e-11
-0.246931
-0.0743959
0.136622
2.26947e-08
-0.246931
-0.0743959
0.136622
-0.246939
-0.0743964
0.136624
-7.66802e-08
0.0785135
0.0422672
-0.367719
-6.33547e-11
0.0785161
0.0422683
-0.367715
7.64401e-08
0.078516
0.0422684
-0.367715
0.0785133
0.0422674
-0.367719
-6.88652e-08
-0.367511
0.0476997
-3.15519e-10
-0.367515
0.0477033
6.85839e-08
-0.367515
0.0477033
-0.367511
0.0476999
-5.83635e-08
0.0974046
-0.386402
-2.48561e-10
0.0973997
-0.386399
5.77699e-08
0.0973997
-0.386399
0.0974045
-0.386402
-4.31447e-08
-0.287121
0.104067
6.34089e-11
-0.287111
0.104056
4.33014e-08
-0.287111
0.104056
-0.287121
0.104066
-4.19069e-08
-0.337486
0.0926323
-1.24775e-10
-0.337476
0.0926326
4.17267e-08
-0.337476
0.0926326
-0.337486
0.0926324
-3.75304e-08
0.256673
0.0259395
-4.61369e-11
0.256675
0.0259303
3.764e-08
0.256675
0.0259302
0.256673
0.0259394
-3.98734e-08
0.0861421
-1.84998e-10
0.0861445
4.03697e-08
0.0861445
0.0861421
-2.23782e-08
-0.157525
0.0944073
-8.07409e-11
-0.157521
0.0944065
2.27245e-08
-0.157521
0.0944065
-0.157525
0.0944072
-3.14796e-08
-0.218801
0.0654767
7.84451e-12
-0.218793
0.0654765
3.19416e-08
-0.218793
0.0654764
-0.218801
0.0654766
-4.55254e-08
-0.272203
0.0626169
1.74061e-11
-0.272197
0.0626132
4.59769e-08
-0.272197
0.0626132
-0.272203
0.0626168
-5.98361e-08
-0.291182
0.0784653
-8.78708e-12
-0.291175
0.0784655
6.00557e-08
-0.291175
0.0784655
-0.291182
0.0784653
-9.08923e-08
-0.299326
0.0875539
-2.78415e-11
-0.299327
0.0875564
9.09355e-08
-0.299327
0.0875564
-0.299325
0.0875538
-4.07228e-08
-0.340076
0.0884503
-1.90709e-10
-0.34007
0.0884459
4.04972e-08
-0.34007
0.0884459
-0.340076
0.0884504
-7.83942e-08
-0.310598
0.0679269
-2.96489e-10
-0.310597
0.0679266
7.77191e-08
-0.310597
0.0679266
-0.310598
0.0679269
-5.88257e-08
-0.0269683
0.125975
-0.409605
3.21818e-10
-0.0269672
0.125969
-0.409599
5.81781e-08
-0.0269671
0.125969
-0.409599
-0.0269682
0.125975
-0.409605
-6.48444e-08
-0.00786861
-0.405502
8.93293e-10
-0.00787084
-0.405495
6.45302e-08
-0.00787073
-0.405495
-0.00786845
-0.405502
-5.09694e-08
0.0308742
-0.406462
9.64262e-10
0.0308681
-0.406454
5.10205e-08
0.0308682
-0.406454
0.0308744
-0.406462
-5.37191e-08
-0.401798
0.0951856
1.10343e-09
-0.401789
0.0951813
5.37696e-08
-0.401789
0.0951814
-0.401798
0.0951859
-8.17918e-08
0.00715584
0.076172
-9.3658e-11
0.00716083
0.076172
8.18237e-08
0.00716083
0.076172
0.00715582
0.0761721
-8.15576e-08
-0.160772
0.200075
0.0997272
-8.96133e-11
-0.160774
0.200076
0.099726
8.1827e-08
-0.160774
0.200076
0.099726
-0.160772
0.200075
0.0997272
-6.66638e-09
-0.177387
0.111022
-4.90198e-11
-0.177388
0.111021
6.9008e-09
-0.177388
0.111021
-0.177387
0.111022
-2.73801e-08
-0.210545
0.0986343
5.44015e-11
-0.210544
0.0986324
2.7806e-08
-0.210544
0.0986324
-0.210545
0.0986343
-3.02245e-08
-0.247414
0.099486
2.67e-11
-0.247413
0.0994821
3.05299e-08
-0.247413
0.099482
-0.247414
0.0994859
-7.95682e-08
-0.278308
0.10936
-1.32323e-11
-0.27831
0.109362
7.96535e-08
-0.27831
0.109362
-0.278308
0.10936
-6.97079e-08
-0.305787
0.115032
-8.55002e-11
-0.305793
0.11504
6.96158e-08
-0.305793
0.11504
-0.305787
0.115032
-7.62827e-08
-0.328545
0.111209
-1.12523e-10
-0.328552
0.111204
7.58962e-08
-0.328552
0.111204
-0.328545
0.111209
-8.05502e-08
-0.382999
0.122381
-2.61699e-10
-0.383006
0.122381
7.98423e-08
-0.383006
0.122381
-0.382999
0.122381
-1.04578e-07
-0.391683
0.134658
-1.25309e-10
-0.391689
0.134653
1.03748e-07
-0.391689
0.134653
-0.391683
0.134658
-1.09656e-07
-0.100352
0.149148
-0.440478
-2.85558e-10
-0.100357
0.14915
-0.440482
1.09107e-07
-0.100357
0.14915
-0.440482
-0.100353
0.149148
-0.440478
-1.24896e-07
-0.0547521
-0.455205
-3.30744e-10
-0.0547512
-0.455205
1.24827e-07
-0.0547514
-0.455205
-0.0547522
-0.455205
-1.15394e-07
-0.0034933
-0.456761
-6.92813e-10
-0.00349577
-0.456751
1.15819e-07
-0.00349584
-0.456751
-0.00349332
-0.456761
-1.35117e-07
0.0473659
-0.457321
2.43896e-10
0.0473655
-0.457315
1.35831e-07
0.0473655
-0.457316
0.0473659
-0.457321
-1.36394e-07
0.0997889
-0.454221
5.90631e-10
0.0997955
-0.454219
1.37115e-07
0.0997957
-0.454219
0.0997891
-0.454221
-1.13494e-07
0.38627
0.159953
-0.446434
4.24992e-10
0.386278
0.159956
-0.446438
1.13663e-07
0.386278
0.159956
-0.446438
0.38627
0.159953
-0.446433
-7.41629e-08
0.355727
0.125729
1.1001e-09
0.355733
0.125726
7.45505e-08
0.355733
0.125726
0.355727
0.125729
-6.10986e-08
0.322288
0.126071
-3.04276e-10
0.322295
0.126071
6.10227e-08
0.322295
0.126071
0.322288
0.126071
-9.90589e-08
0.311269
0.115086
2.85049e-11
0.311271
0.115081
9.89906e-08
0.31127
0.115081
0.311269
0.115086
-9.83043e-08
0.287334
0.0935331
1.18756e-10
0.28734
0.0935343
9.84504e-08
0.28734
0.0935343
0.287334
0.093533
-1.05903e-07
0.24367
0.0696041
-5.60989e-11
0.243667
0.069604
1.06212e-07
0.243667
0.069604
0.24367
0.0696041
-3.97434e-08
0.21306
0.0377654
5.34233e-11
0.213069
0.0377583
4.02006e-08
0.213069
0.0377583
0.21306
0.0377653
-6.22271e-08
-0.00104848
0.206996
-8.85401e-11
-0.00104551
0.206997
6.2568e-08
-0.00104551
0.206997
-0.00104844
0.206996
-1.67316e-08
0.197794
-0.250884
0.0908555
-1.46245e-11
0.197801
-0.250897
0.0908541
1.70376e-08
0.197801
-0.250897
0.0908541
0.197794
-0.250884
0.0908554
-1.0988e-08
-0.10637
0.303115
-7.21184e-11
-0.106371
0.303126
1.13476e-08
-0.106371
0.303126
-0.10637
0.303115
-2.80618e-08
-0.2774
0.0961199
-6.91646e-11
-0.277413
0.0961199
2.83844e-08
-0.277413
0.0961198
-0.277399
0.0961198
-7.13805e-08
-0.303736
0.119869
1.78293e-10
-0.303744
0.119865
7.16966e-08
-0.303744
0.119865
-0.303736
0.119869
-7.71499e-08
-0.336709
0.14806
5.75302e-10
-0.336718
0.148055
7.74126e-08
-0.336718
0.148055
-0.33671
0.14806
-8.92413e-08
-0.367155
0.156517
6.66491e-11
-0.367162
0.156514
8.89245e-08
-0.367162
0.156514
-0.367155
0.156517
-1.0101e-07
-0.397314
0.155888
2.98753e-10
-0.397321
0.155885
1.00651e-07
-0.397321
0.155885
-0.397314
0.155888
-1.21419e-07
-0.441449
0.204088
3.38512e-10
-0.441455
0.20409
1.21385e-07
-0.441455
0.20409
-0.441449
0.204088
-6.23316e-08
0.17372
0.0612047
-1.12998e-10
0.17372
0.0612006
6.252e-08
0.17372
0.0612006
0.17372
0.0612046
-2.1385e-08
0.049471
-0.0261053
-1.22965e-10
0.0494706
-0.0261098
2.15402e-08
0.0494705
-0.0261098
0.0494709
-0.0261053
-2.99631e-08
-0.143358
0.0834113
-1.12714e-10
-0.143355
0.0834095
3.00812e-08
-0.143355
0.0834095
-0.143358
0.0834113
-2.43841e-08
-0.17819
0.0960373
-1.11389e-10
-0.178188
0.0960334
2.45838e-08
-0.178188
0.0960334
-0.17819
0.0960373
-6.97541e-08
-0.185687
0.107224
-9.88958e-11
-0.185689
0.107227
6.99046e-08
-0.185689
0.107227
-0.185687
0.107224
-5.38013e-08
-0.19196
0.117295
-1.9278e-12
-0.19196
0.117292
5.40211e-08
-0.19196
0.117292
-0.19196
0.117295
-2.55686e-08
-0.215605
0.122279
7.29353e-11
-0.215608
0.12228
2.58283e-08
-0.215608
0.12228
-0.215605
0.122279
-3.34041e-08
-0.242685
0.126566
5.19709e-11
-0.242694
0.126569
3.35879e-08
-0.242695
0.126568
-0.242685
0.126566
-3.44799e-08
-0.26893
0.135605
4.4776e-11
-0.268941
0.135608
3.44868e-08
-0.268941
0.135608
-0.26893
0.135605
-3.27985e-08
-0.302725
0.148827
5.0356e-11
-0.302736
0.148835
3.26473e-08
-0.302736
0.148835
-0.302725
0.148827
-4.75628e-08
-0.335564
0.144049
9.51424e-11
-0.335576
0.144044
4.72005e-08
-0.335576
0.144044
-0.335564
0.144049
-8.90402e-08
-0.364765
0.151581
-6.27799e-11
-0.36477
0.151575
8.84226e-08
-0.36477
0.151575
-0.364764
0.151581
-1.07287e-07
-0.384867
0.15476
1.73458e-11
-0.384872
0.154754
1.0677e-07
-0.384871
0.154754
-0.384866
0.15476
-1.23487e-07
-0.433719
0.198001
-1.16076e-11
-0.433723
0.198001
1.23004e-07
-0.433723
0.198001
-0.433719
0.198001
-1.14666e-07
-0.15628
0.207135
-0.484573
-9.70853e-11
-0.156279
0.207135
-0.48458
1.13815e-07
-0.156279
0.207135
-0.48458
-0.156281
0.207135
-0.484573
-1.19167e-07
-0.100053
-0.496705
-2.80641e-10
-0.10005
-0.496711
1.18234e-07
-0.100049
-0.496711
-0.100053
-0.496705
-8.74829e-08
-0.0494262
-0.505832
-1.04879e-09
-0.0494235
-0.505831
8.68583e-08
-0.0494235
-0.505831
-0.0494261
-0.505832
-9.20394e-08
0.00268118
-0.508868
-1.47628e-09
0.00267878
-0.508853
9.15951e-08
0.00267886
-0.508853
0.00268132
-0.508868
-1.06114e-07
0.0562465
-0.510886
-1.18771e-09
0.0562439
-0.510881
1.05619e-07
0.056244
-0.510881
0.0562467
-0.510887
-1.30953e-07
0.107939
-0.505913
-1.05803e-09
0.107939
-0.505915
1.30391e-07
0.107939
-0.505915
0.10794
-0.505913
-1.22638e-07
0.163406
-0.5019
-1.43045e-09
0.163406
-0.501905
1.21285e-07
0.163406
-0.501905
0.163406
-0.5019
-1.19292e-07
0.208016
-0.486059
-1.01529e-09
0.208015
-0.486064
1.1879e-07
0.208016
-0.486064
0.208016
-0.486059
-2.93044e-08
-0.214026
0.198512
5.33575e-11
-0.214027
0.198511
2.96977e-08
-0.214027
0.198511
-0.214026
0.198512
-5.11541e-09
-0.00397284
0.00742175
0.00588211
-3.08708e-11
-0.00397276
0.00742192
0.0058822
5.05859e-09
-0.00397277
0.00742193
0.0058822
-0.00397284
0.00742176
0.00588211
-3.57043e-09
0.00621979
-0.00667268
-0.00351995
-2.72991e-11
0.00621987
-0.00667265
-0.00351999
3.50451e-09
0.00621987
-0.00667265
-0.00351999
0.0062198
-0.00667269
-0.00351995
-3.38512e-09
0.00142186
0.00817502
-0.00226257
-0.00733431
-2.211e-11
0.00142221
0.00817523
-0.00226265
-0.0073348
3.33819e-09
0.00142221
0.00817523
-0.00226265
-0.0073348
0.00142186
0.00817502
-0.00226257
-0.00733431
-2.6563e-09
-0.00598959
0.0010917
-1.71792e-11
-0.0059896
0.00109177
2.63709e-09
-0.0059896
0.00109177
-0.00598959
0.0010917
-5.44613e-09
-0.00122199
0.0014522
-1.18177e-11
-0.00122234
0.00145261
5.4601e-09
-0.00122234
0.00145261
-0.00122199
0.0014522
-5.11357e-09
0.00775179
1.1784e-05
-2.47358e-11
0.00775199
1.19664e-05
5.05534e-09
0.00775199
1.19659e-05
0.0077518
1.1781e-05
-2.7145e-09
0.000561933
0.0072581
-0.000146016
-1.06823e-11
0.0005619
0.00725816
-0.000145988
2.69632e-09
0.0005619
0.00725816
-0.000145988
0.00056193
0.0072581
-0.000146013
-2.86248e-09
0.00719979
0.00111394
-6.41476e-12
0.00719991
0.00111397
2.84397e-09
0.00719992
0.00111397
0.00719979
0.00111393
-4.20721e-09
0.000988214
0.000497273
-4.39138e-12
0.000988099
0.000497409
4.20986e-09
0.000988099
0.000497409
0.000988212
0.000497275
-4.38055e-09
0.00249082
-2.63554e-12
0.00249088
4.38356e-09
0.00249088
0.00249082
-4.98646e-09
-0.00323481
0.008394
-3.80568e-11
-0.00323466
0.00839393
4.89427e-09
-0.00323466
0.00839393
-0.00323481
0.00839401
-6.08032e-09
-0.00751714
-0.0021142
-2.53209e-11
-0.00751749
-0.00211438
6.03394e-09
-0.00751749
-0.00211438
-0.00751715
-0.0021142
-2.1191e-09
-0.00635176
0.00209154
-1.2227e-11
-0.00635157
0.00209138
2.11496e-09
-0.00635157
0.00209138
-0.00635176
0.00209155
-2.79065e-09
0.00884203
-0.000997924
-7.77179e-12
0.00884251
-0.000998149
2.81038e-09
0.00884251
-0.000998149
0.00884203
-0.000997922
-3.96231e-09
0.00941185
-7.25453e-05
-1.78134e-12
0.00941231
-7.23981e-05
3.98906e-09
0.00941232
-7.23978e-05
0.00941185
-7.25424e-05
-3.73698e-09
0.00677368
0.000223728
7.64771e-13
0.00677388
0.000223762
3.76263e-09
0.00677388
0.000223762
0.00677368
0.00022373
-4.85e-09
0.0104026
0.00150465
-7.03598e-13
0.010403
0.00150451
4.85972e-09
0.010403
0.00150451
0.0104026
0.00150465
-6.60661e-09
0.00674335
7.06502e-05
-1.0051e-11
0.00674345
7.07425e-05
6.6054e-09
0.00674345
7.07425e-05
0.00674335
7.06518e-05
-7.14266e-08
-0.269683
0.151777
5.86984e-11
-0.269686
0.151778
7.17611e-08
-0.269686
0.151778
-0.269683
0.151777
-7.46709e-08
-0.309191
0.159378
1.56451e-10
-0.309198
0.159377
7.50811e-08
-0.309198
0.159377
-0.309191
0.159378
-9.19679e-08
-0.332567
0.171435
4.1288e-12
-0.332576
0.171433
9.23243e-08
-0.332576
0.171433
-0.332567
0.171436
-9.64186e-08
-0.36472
0.18867
-8.60016e-10
-0.364727
0.188664
9.61048e-08
-0.364727
0.188664
-0.36472
0.18867
-1.264e-07
-0.416988
0.208156
3.54624e-11
-0.416996
0.208154
1.26169e-07
-0.416996
0.208154
-0.416988
0.208156
-1.37596e-07
-0.440079
0.227179
9.68483e-10
-0.440086
0.22718
1.37271e-07
-0.440086
0.22718
-0.440079
0.22718
-1.38576e-07
-0.480876
0.248813
-6.48604e-10
-0.480884
0.248814
1.37845e-07
-0.480884
0.248814
-0.480875
0.248813
8.09057e-09
-0.0653492
0.048674
-1.15062e-10
-0.0653513
0.0486771
-8.04224e-09
-0.0653513
0.0486771
-0.0653492
0.048674
6.6495e-10
-0.0967563
0.130305
-1.15846e-10
-0.0967592
0.130305
-5.43987e-10
-0.0967592
0.130305
-0.0967563
0.130305
-8.32689e-09
-0.133087
0.119742
-1.33039e-10
-0.13309
0.11974
8.41578e-09
-0.13309
0.11974
-0.133087
0.119742
-3.45169e-08
-0.156533
0.119483
-1.22692e-10
-0.156539
0.119483
3.46601e-08
-0.156539
0.119483
-0.156533
0.119483
-3.96639e-08
-0.173581
0.124271
-6.97127e-11
-0.173587
0.124275
3.98014e-08
-0.173587
0.124275
-0.173581
0.124271
-5.59469e-08
-0.190599
0.134313
6.17754e-11
-0.190606
0.134311
5.61706e-08
-0.190606
0.134311
-0.190599
0.134313
-4.98395e-08
-0.217361
0.149041
1.37388e-10
-0.217369
0.149043
5.00342e-08
-0.217369
0.149043
-0.217361
0.149041
-4.20607e-08
-0.233416
0.142621
8.87323e-11
-0.233414
0.142614
4.21436e-08
-0.233414
0.142614
-0.233416
0.142621
-6.01703e-08
-0.262854
0.165043
8.02588e-11
-0.262857
0.165051
6.01711e-08
-0.262857
0.165051
-0.262854
0.165043
-1.88837e-08
-0.290057
0.176029
2.24813e-10
-0.290051
0.176029
1.89105e-08
-0.290051
0.176029
-0.290057
0.176029
-2.87161e-08
-0.322537
0.17653
3.61721e-10
-0.322532
0.176525
2.86758e-08
-0.322532
0.176525
-0.322537
0.17653
-7.96085e-08
-0.355985
0.185028
1.88107e-10
-0.355976
0.185019
7.92635e-08
-0.355976
0.185019
-0.355985
0.185028
-1.3312e-07
-0.40726
0.206036
1.95551e-10
-0.407263
0.20604
1.32835e-07
-0.407263
0.20604
-0.40726
0.206036
-1.40528e-07
-0.420138
0.210879
3.25844e-10
-0.420143
0.210881
1.40348e-07
-0.420143
0.210881
-0.420138
0.210879
-1.24237e-07
-0.478528
0.265524
2.39581e-10
-0.478537
0.265529
1.238e-07
-0.478537
0.265529
-0.478528
0.265524
-1.43341e-07
-0.209309
-0.531868
0.262649
7.42947e-10
-0.209308
-0.531882
0.262653
1.42805e-07
-0.209308
-0.531882
0.262653
-0.209309
-0.531868
0.262649
-1.33586e-07
-0.155847
-0.538034
1.18819e-09
-0.155849
-0.538039
1.32638e-07
-0.155849
-0.538039
-0.155847
-0.538034
-1.33889e-07
-0.104243
-0.54831
1.92569e-09
-0.104244
-0.548316
1.32447e-07
-0.104244
-0.548316
-0.104242
-0.54831
-1.26003e-07
-0.0478263
-0.562248
3.30161e-09
-0.0478284
-0.562247
1.24541e-07
-0.0478282
-0.562247
-0.047826
-0.562248
-1.25986e-07
0.00787133
-0.564566
3.84251e-09
0.00787347
-0.564555
1.24797e-07
0.00787354
-0.564555
0.00787152
-0.564566
-1.28293e-07
0.0564797
-0.559495
3.5214e-09
0.0564818
-0.559489
1.2701e-07
0.0564817
-0.559489
0.0564796
-0.559495
-1.42766e-07
0.107774
-0.557208
3.02665e-09
0.107776
-0.557209
1.41139e-07
0.107776
-0.557209
0.107774
-0.557208
-1.48571e-07
0.159958
-0.554084
1.8525e-09
0.159959
-0.554089
1.46757e-07
0.159959
-0.554089
0.159958
-0.554084
-1.38421e-07
0.215184
-0.541285
1.63665e-09
0.215185
-0.54129
1.37263e-07
0.215185
-0.54129
0.215184
-0.541285
-1.52333e-07
0.266088
-0.531779
5.52861e-10
0.26609
-0.53179
1.50869e-07
0.26609
-0.53179
0.266088
-0.531779
5.77212e-09
0.0399574
0.224254
-1.63514e-10
0.0399519
0.224262
-5.37415e-09
0.039952
0.224262
0.0399574
0.224254
-4.7321e-08
0.239364
0.103709
-1.96056e-10
0.23937
0.103708
4.76876e-08
0.23937
0.103708
0.239364
0.103709
-6.66624e-09
0.0100782
-0.00404051
-2.76309e-11
0.0100783
-0.00404028
6.58875e-09
0.0100783
-0.00404028
0.0100782
-0.00404051
-5.82586e-09
-4.50237e-06
-0.00756925
-2.82165e-11
-4.3969e-06
-0.00756952
5.80467e-09
-4.39667e-06
-0.00756952
-4.49649e-06
-0.00756925
-4.39886e-09
0.00880744
-0.000401652
-1.17635e-11
0.00880776
-0.000401871
4.35077e-09
0.00880776
-0.000401871
0.00880745
-0.000401654
-4.31323e-09
0.00829207
0.00162931
-1.48764e-12
0.00829224
0.00162949
4.29496e-09
0.00829225
0.00162949
0.00829208
0.00162931
-7.02387e-09
0.00806556
0.00271734
1.82489e-12
0.00806555
0.00271756
7.01854e-09
0.00806556
0.00271756
0.00806557
0.00271734
-5.09569e-09
0.0105712
0.0014069
-9.71695e-12
0.0105714
0.00140659
5.0635e-09
0.0105714
0.00140659
0.0105712
0.0014069
-5.01884e-09
0.00585782
2.86261e-05
-5.56579e-12
0.00585813
2.86095e-05
5.01452e-09
0.00585813
2.86094e-05
0.00585782
2.86251e-05
-3.73516e-09
0.0067332
0.00132345
-9.19049e-12
0.00673365
0.00132335
3.71675e-09
0.00673365
0.00132335
0.0067332
0.00132345
-3.59418e-09
-0.000408265
0.00579728
0.00134419
-1.44139e-11
-0.000408132
0.00579761
0.00134417
3.55122e-09
-0.000408132
0.00579761
0.00134417
-0.000408265
0.00579728
0.00134419
-2.34671e-09
-0.000966241
0.00567708
-1.63165e-11
-0.000966171
0.00567727
2.31956e-09
-0.000966171
0.00567727
-0.000966241
0.00567708
-4.00261e-09
-0.00104534
0.00587272
-1.47136e-11
-0.00104538
0.00587291
3.98349e-09
-0.00104538
0.00587291
-0.00104533
0.00587272
-2.76228e-09
-0.00028096
0.00597897
-5.19458e-12
-0.00028119
0.00597926
2.76042e-09
-0.000281189
0.00597926
-0.000280959
0.00597898
-3.82554e-09
0.00852978
-0.0100192
-8.4172e-12
0.00852964
-0.0100194
3.84982e-09
0.00852964
-0.0100194
0.00852979
-0.0100192
-3.9789e-09
0.00518376
-0.00998341
-0.00271748
-2.30817e-11
0.00518384
-0.00998372
-0.00271762
3.92181e-09
0.00518384
-0.00998372
-0.00271762
0.00518377
-0.00998343
-0.00271748
-4.2629e-09
-0.00751853
-2.21279e-11
-0.00751847
4.2712e-09
-0.00751847
-0.00751854
-3.72625e-09
0.0091559
-0.00162404
-9.1633e-12
0.00915583
-0.00162434
3.76431e-09
0.00915583
-0.00162434
0.0091559
-0.00162403
-4.50364e-09
0.00890817
0.000175189
-4.28788e-12
0.00890821
0.000175209
4.5365e-09
0.00890821
0.00017521
0.00890817
0.000175192
-2.68501e-09
0.00812253
0.00100937
-9.91726e-13
0.00812271
0.00100927
2.71354e-09
0.00812271
0.00100927
0.00812253
0.00100937
-5.13583e-09
0.00824904
0.00137814
-1.54109e-12
0.00824895
0.00137826
5.15437e-09
0.00824895
0.00137826
0.00824904
0.00137814
-3.62133e-09
0.00719328
0.00112642
-1.74662e-12
0.00719338
0.00112631
3.63161e-09
0.00719338
0.00112631
0.00719328
0.00112642
-4.33198e-09
0.00602225
0.000890072
-2.5033e-13
0.00602234
0.00088985
4.33591e-09
0.00602234
0.00088985
0.00602225
0.000890074
-7.90832e-09
0.00208195
-0.0121057
-2.19711e-11
0.00208227
-0.0121061
7.94564e-09
0.00208227
-0.0121061
0.00208196
-0.0121057
-3.86766e-09
-0.000709141
0.00106912
0.0054373
-1.83014e-11
-0.000709046
0.00106912
0.00543754
3.817e-09
-0.000709046
0.00106912
0.00543754
-0.000709141
0.00106912
0.00543731
-3.99935e-09
-0.000426877
0.00539482
-1.40968e-11
-0.000426783
0.005395
3.97558e-09
-0.000426783
0.005395
-0.000426876
0.00539482
-3.34912e-09
-0.000118275
0.00556412
-7.25325e-12
-0.000118326
0.00556445
3.33569e-09
-0.000118326
0.00556445
-0.000118274
0.00556412
-4.33986e-09
0.000231926
0.00562878
-1.98509e-12
0.000231954
0.00562897
4.33065e-09
0.000231954
0.00562897
0.000231927
0.00562878
-3.40118e-09
0.00540747
0.000846712
-2.40095e-12
0.00540759
0.000846699
3.39567e-09
0.00540759
0.000846699
0.00540747
0.000846713
-5.94889e-09
0.00937943
0.000297111
-1.04942e-11
0.00937953
0.000296905
5.91227e-09
0.00937953
0.000296905
0.00937943
0.000297111
-4.15446e-09
0.00892765
0.00208109
-1.95014e-12
0.00892792
0.00208109
4.13947e-09
0.00892792
0.00208109
0.00892766
0.00208109
-5.53252e-09
0.0089978
0.00264719
6.26918e-12
0.00899813
0.00264735
5.5274e-09
0.00899813
0.00264735
0.00899781
0.00264719
-6.18759e-09
0.00842397
0.00198074
5.73418e-12
0.00842404
0.00198068
6.18355e-09
0.00842404
0.00198068
0.00842397
0.00198074
-3.66505e-09
0.00674977
0.00170282
9.0044e-12
0.00675009
0.00170255
3.67415e-09
0.00675009
0.00170255
0.00674978
0.00170282
-5.16245e-09
0.00609968
0.00197354
5.27939e-12
0.00609983
0.0019736
5.16573e-09
0.00609984
0.0019736
0.00609969
0.00197354
-2.67022e-09
0.005816
0.00162788
-1.83733e-12
0.00581625
0.00162775
2.66146e-09
0.00581626
0.00162775
0.005816
0.00162788
-3.98105e-09
0.00163915
0.00524597
-5.44646e-12
0.00163919
0.00524618
3.96752e-09
0.00163919
0.00524618
0.00163915
0.00524598
-4.06973e-09
-0.00363356
0.00779056
-2.11237e-11
-0.00363348
0.00779066
4.04003e-09
-0.00363349
0.00779066
-0.00363356
0.00779057
-5.33817e-09
-0.00829637
-0.00817388
-3.72082e-11
-0.00829639
-0.0081739
5.31776e-09
-0.00829639
-0.00817391
-0.00829639
-0.00817388
-7.14948e-09
-0.0140119
-0.00426787
-1.26763e-11
-0.0140123
-0.00426784
7.09404e-09
-0.0140123
-0.00426783
-0.0140119
-0.00426788
-7.36356e-09
0.0127334
-0.0128016
-0.00810568
-5.86859e-11
0.0127333
-0.0128013
-0.00810587
7.30182e-09
0.0127333
-0.0128013
-0.00810587
0.0127334
-0.0128016
-0.00810566
-4.39412e-09
0.0135303
-0.00298526
-4.94858e-11
0.0135306
-0.00298554
4.36621e-09
0.0135306
-0.00298554
0.0135303
-0.00298526
-5.90157e-09
0.0100486
-0.000151886
-2.30431e-11
0.010049
-0.000151843
5.87703e-09
0.010049
-0.000151844
0.0100487
-0.000151881
-5.01781e-09
0.0131445
0.00469474
-1.25793e-11
0.0131449
0.00469475
4.97683e-09
0.0131449
0.00469476
0.0131445
0.00469474
-7.87793e-09
0.0103958
0.00304579
-8.03534e-12
0.0103959
0.00304589
7.86206e-09
0.0103959
0.00304589
0.0103958
0.00304579
-4.97112e-09
0.00974812
0.00272878
2.0521e-12
0.00974857
0.0027284
4.96054e-09
0.00974857
0.0027284
0.00974812
0.00272878
-6.46991e-09
0.00911379
0.00328153
8.40812e-12
0.00911419
0.00328172
6.46698e-09
0.00911419
0.00328172
0.0091138
0.00328153
-4.78597e-09
0.00788661
0.00320793
1.53099e-11
0.00788689
0.00320798
4.79611e-09
0.00788689
0.00320798
0.00788661
0.00320793
-5.55809e-09
0.00680945
0.00277998
1.99325e-11
0.00680958
0.00277985
5.58172e-09
0.00680959
0.00277985
0.00680946
0.00277999
-4.38699e-09
0.00629797
0.00248503
2.00544e-11
0.00629814
0.00248504
4.41133e-09
0.00629814
0.00248504
0.00629797
0.00248503
-3.74395e-09
0.0055546
0.00237125
1.38799e-11
0.0055547
0.00237119
3.76052e-09
0.0055547
0.00237119
0.00555461
0.00237125
-3.4386e-09
0.00504748
0.00214627
5.31718e-12
0.00504764
0.00214625
3.4424e-09
0.00504764
0.00214625
0.00504748
0.00214627
-2.79386e-09
-0.00144411
0.00186212
0.00462947
-9.30313e-12
-0.00144405
0.00186207
0.00462962
2.76062e-09
-0.00144405
0.00186207
0.00462962
-0.00144411
0.00186212
0.00462947
-2.69878e-09
-0.00105258
0.00485445
-7.30534e-12
-0.00105251
0.00485464
2.68306e-09
-0.00105251
0.00485464
-0.00105258
0.00485446
-2.86809e-09
-0.000625293
0.00501002
-9.67115e-12
-0.000625198
0.00501022
2.84931e-09
-0.000625198
0.00501022
-0.000625292
0.00501002
-2.43508e-09
-0.000281773
0.0050513
-4.99133e-12
-0.00028173
0.00505153
2.42258e-09
-0.00028173
0.00505153
-0.000281772
0.0050513
-2.90513e-09
8.53485e-05
0.005197
-3.52086e-12
8.53686e-05
0.00519735
2.89415e-09
8.53686e-05
0.00519735
8.5349e-05
0.005197
-2.35807e-09
0.000561038
0.00515309
-3.20686e-12
0.000560956
0.00515338
2.34505e-09
0.000560957
0.00515338
0.000561038
0.00515309
-2.79125e-09
0.000933113
0.00503539