x,y,z,U_0,U_1,U_2
0,0,0,0.299997,-0.000371948,-2.48558e-14
0,0.1,0,0.299997,-0.000295801,-1.97672e-14
0,0.2,0,0.299998,-0.000219655,-1.46786e-14
0,0.3,0,0.299999,-0.000143508,-9.59003e-15
0,0.4,0,0.299999,-6.73607e-05,-4.50144e-15
0,0.5,0,0.3,-3.7843e-20,-5.20526e-30
0,0.6,0,0.3,-4.54116e-20,-6.24632e-30
0,0.7,0,0.3,-5.29802e-20,-7.28737e-30
0,0.8,0,0.3,-6.05488e-20,-8.32842e-30
0,0.9,0,0.3,-6.81174e-20,-9.36948e-30
0,1,0,0.3,-7.5686e-20,-1.04105e-29
0,1.1,0,0.3,-8.32546e-20,-1.14516e-29
0,1.2,0,0.3,-9.08232e-20,-1.24926e-29
0,1.3,0,0.3,-9.83918e-20,-1.35337e-29
0,1.4,0,0.3,-1.0596e-19,-1.45747e-29
0,1.5,0,0.3,-1.0917e-19,-2.14778e-29
0,1.6,0,0.3,-1.16448e-19,-2.29096e-29
0,1.7,0,0.3,-1.23726e-19,-2.43415e-29
0,1.8,0,0.3,-1.31004e-19,-2.57734e-29
0,1.9,0,0.3,-1.38282e-19,-2.72052e-29
0,2,0,0.3,-1.38298e-19,-3.51468e-29
0,2.1,0,0.3,-1.45213e-19,-3.69042e-29
0,2.2,0,0.3,-1.52128e-19,-3.86615e-29
0,2.3,0,0.3,-1.59043e-19,-4.04189e-29
0,2.4,0,0.3,-1.65958e-19,-4.21762e-29
0,2.5,0,0.3,-1.61357e-19,-4.71894e-29
0,2.6,0,0.3,-1.67811e-19,-4.9077e-29
0,2.7,0,0.3,-1.74266e-19,-5.09646e-29
0,2.8,0,0.3,-1.8072e-19,-5.28522e-29
0,2.9,0,0.3,-1.87174e-19,-5.47398e-29
0,3,0,0.3,-1.76876e-19,-5.66279e-29
0,3.1,0,0.3,-1.82772e-19,-5.85155e-29
0,3.2,0,0.3,-1.88668e-19,-6.04031e-29
0,3.3,0,0.3,-1.94563e-19,-6.22906e-29
0,3.4,0,0.3,-2.00459e-19,-6.41782e-29
0,3.5,0,0.3,-1.83599e-19,-6.8344e-29
0,3.6,0,0.3,-1.88845e-19,-7.02967e-29
0,3.7,0,0.3,-1.94091e-19,-7.22493e-29
0,3.8,0,0.3,-1.99337e-19,-7.4202e-29
0,3.9,0,0.3,-2.04582e-19,-7.61547e-29
0,4,0,0.3,-1.80495e-19,-8.33146e-29
0,4.1,0,0.3,-1.85007e-19,-8.53974e-29
0,4.2,0,0.3,-1.89519e-19,-8.74803e-29
0,4.3,0,0.3,-1.94032e-19,-8.95631e-29
0,4.4,0,0.3,-1.63351e-19,-9.73739e-29
0,4.5,0,0.3,-1.67064e-19,-9.95869e-29
0,4.6,0,0.3,-1.70776e-19,-1.018e-28
0,4.7,0,0.3,-1.74489e-19,-1.04013e-28
0,4.8,0,0.3,-1.78201e-19,-1.06226e-28
0,4.9,0,0.3,-1.39875e-19,-1.08439e-28
0,5,0,0.3,-1.42729e-19,-1.10652e-28
0,5.1,0,0.3,-1.45584e-19,-1.12865e-28
0,5.2,0,0.3,-1.48438e-19,-1.15078e-28
0,5.3,0,0.3,-1.51293e-19,-1.17291e-28
0,5.4,0,0.3,-1.05386e-19,-1.22316e-28
0,5.5,0,0.3,-1.07338e-19,-1.24581e-28
0,5.6,0,0.3,-1.0929e-19,-1.26846e-28
0,5.7,0,0.3,-1.11241e-19,-1.29112e-28
0,5.8,0,0.3,-1.13193e-19,-1.31377e-28
0,5.9,0,0.3,-6.01259e-20,-1.40554e-28
0,6,0,0.3,-6.1145e-20,-1.42937e-28
0,6.1,0,0.3,-6.21641e-20,-1.45319e-28
0,6.2,0,0.3,-6.31832e-20,-1.47701e-28
0,6.3,0,0.3,-6.42023e-20,-1.50083e-28
0,6.4,0,0.3,-4.53835e-21,-1.61214e-28
0,6.5,0,0.3,-4.60926e-21,-1.63733e-28
0,6.6,0,0.3,-4.68018e-21,-1.66252e-28
0,6.7,0,0.3,-4.75109e-21,-1.68771e-28
0,6.8,0,0.3,-4.822e-21,-1.7129e-28
0,6.9,0,0.3,6.07316e-20,-1.88629e-28
0,7,0,0.3,6.16117e-20,-1.91363e-28
0,7.1,0,0.3,6.24919e-20,-1.94097e-28
0,7.2,0,0.3,6.33721e-20,-1.96831e-28
0,7.3,0,0.3,6.42522e-20,-1.99564e-28
0,7.4,0,0.3,1.34776e-19,-2.1723e-28
0,7.5,0,0.3,1.36597e-19,-2.20165e-28
0,7.6,0,0.3,1.38419e-19,-2.23101e-28
0,7.7,0,0.3,1.4024e-19,-2.26036e-28
0,7.8,0,0.3,1.42061e-19,-2.28972e-28
0,7.9,0,0.3,2.16244e-19,-2.36535e-28
0,8,0,0.3,2.18981e-19,-2.39529e-28
0,8.1,0,0.3,2.21718e-19,-2.42523e-28
0,8.2,0,0.3,2.24456e-19,-2.45518e-28
0,8.3,0,0.3,2.27193e-19,-2.48512e-28
0,8.4,0,0.3,3.03533e-19,-2.56973e-28
0,8.5,0,0.3,3.07146e-19,-2.60033e-28
0,8.6,0,0.3,3.1076e-19,-2.63092e-28
0,8.7,0,0.3,3.14373e-19,-2.66151e-28
0,8.8,0,0.3,3.89944e-19,-2.63482e-28
0,8.9,0,0.3,3.94375e-19,-2.66476e-28
0,9,0,0.3,3.98806e-19,-2.69471e-28
0,9.1,0,0.3,4.03237e-19,-2.72465e-28
0,9.2,0,0.3,4.07668e-19,-2.75459e-28
0,9.3,0,0.3,4.8206e-19,-2.724e-28
0,9.4,0,0.3,4.87243e-19,-2.75329e-28
0,9.5,0,0.3,4.92427e-19,-2.78258e-28
0,9.6,0,0.3,4.9761e-19,-2.81187e-28
0,9.7,0,0.3,5.02794e-19,-2.84116e-28
0,9.8,0,0.3,5.7458e-19,-2.93439e-28
0,9.9,0,0.3,5.80444e-19,-2.96433e-28
0,10,0,0.3,5.86307e-19,-2.99428e-28
0,10.1,0,0.3,5.9217e-19,-3.02422e-28
0,10.2,0,0.3,5.98033e-19,-3.05416e-28
0,10.3,0,0.3,6.6422e-19,-2.88218e-28
0,10.4,0,0.3,6.70669e-19,-2.91016e-28
0,10.5,0,0.3,6.77117e-19,-2.93815e-28
0,10.6,0,0.3,6.83566e-19,-2.96613e-28
0,10.7,0,0.3,6.90015e-19,-2.99411e-28
0,10.8,0,0.3,7.55529e-19,-2.55801e-28
0,10.9,0,0.3,7.62525e-19,-2.5817e-28
0,11,0,0.3,7.6952e-19,-2.60539e-28
0,11.1,0,0.3,7.76516e-19,-2.62907e-28
0,11.2,0,0.3,7.83512e-19,-2.65276e-28
0,11.3,0,0.3,8.8121e-19,-1.66921e-28
0,11.4,0,0.3,8.89008e-19,-1.68398e-28
0,11.5,0,0.3,8.96806e-19,-1.69875e-28
0,11.6,0,0.3,9.04605e-19,-1.71353e-28
0,11.7,0,0.3,9.12403e-19,-1.7283e-28
0,11.8,0,0.3,9.20201e-19,-1.74307e-28
0,11.9,0,0.3,9.28e-19,-1.75784e-28
0,12,0,0.3,9.35798e-19,-1.77261e-28
0,12.1,0,0.3,9.43596e-19,-1.78738e-28
0,12.2,0,0.3,9.51394e-19,-1.80216e-28
0,12.3,0,0.3,6.71145e-05,-6.78481e-15
0,12.4,0,0.3,0.000142983,-1.44546e-14
0,12.5,0,0.3,0.000218852,-2.21244e-14
0,12.6,0,0.3,0.00029472,-2.97942e-14
0,12.7,0,0.3,0.000370589,-3.7464e-14
0.1,0,0,0.299996,-0.000600947,-2.98846e-14
0.1,0.1,0,0.299995,-0.000595405,-3.97497e-14
0.1,0.2,0,0.299996,-0.000519258,-3.46611e-14
0.1,0.3,0,0.299996,-0.000443111,-2.95725e-14
0.1,0.4,0,0.299997,-0.000366964,-2.4484e-14
0.1,0.5,0,0.299998,-0.000298899,-2.24773e-14
0.1,0.6,0,0.299996,-0.0002907,-3.99854e-14
0.1,0.7,0,0.299996,-0.0002907,-3.99854e-14
0.1,0.8,0,0.299996,-0.0002907,-3.99854e-14
0.1,0.9,0,0.299996,-0.0002907,-3.99854e-14
0.1,1,0,0.299996,-0.0002907,-3.99854e-14
0.1,1.1,0,0.299996,-0.0002907,-3.99854e-14
0.1,1.2,0,0.299996,-0.0002907,-3.99854e-14
0.1,1.3,0,0.299996,-0.0002907,-3.99854e-14
0.1,1.4,0,0.299996,-0.000287008,-4.49494e-14
0.1,1.5,0,0.299994,-0.000279538,-5.49955e-14
0.1,1.6,0,0.299994,-0.000279538,-5.49955e-14
0.1,1.7,0,0.299994,-0.000279538,-5.49955e-14
0.1,1.8,0,0.299994,-0.000279538,-5.49955e-14
0.1,1.9,0,0.299993,-0.000273279,-6.06065e-14
0.1,2,0,0.299992,-0.000265592,-6.74971e-14
0.1,2.1,0,0.299992,-0.000265592,-6.74971e-14
0.1,2.2,0,0.299992,-0.000265592,-6.74971e-14
0.1,2.3,0,0.299992,-0.000265592,-6.74971e-14
0.1,2.4,0,0.299991,-0.000255562,-7.0333e-14
0.1,2.5,0,0.29999,-0.0002479,-7.24993e-14
0.1,2.6,0,0.29999,-0.0002479,-7.24993e-14
0.1,2.7,0,0.29999,-0.0002479,-7.24993e-14
0.1,2.8,0,0.29999,-0.0002479,-7.24993e-14
0.1,2.9,0,0.299988,-0.000233207,-7.24998e-14
0.1,3,0,0.299988,-0.000226452,-7.25e-14
0.1,3.1,0,0.299988,-0.000226452,-7.25e-14
0.1,3.2,0,0.299988,-0.000226452,-7.25e-14
0.1,3.3,0,0.299988,-0.000226452,-7.25e-14
0.1,3.4,0,0.299986,-0.000206396,-7.45079e-14
0.1,3.5,0,0.299986,-0.00020148,-7.5e-14
0.1,3.6,0,0.299986,-0.00020148,-7.5e-14
0.1,3.7,0,0.299986,-0.00020148,-7.5e-14
0.1,3.8,0,0.299986,-0.00020148,-7.5e-14
0.1,3.9,0,0.299984,-0.000175532,-7.96063e-14
0.1,4,0,0.299984,-0.000173314,-8e-14
0.1,4.1,0,0.299984,-0.000173314,-8e-14
0.1,4.2,0,0.299984,-0.000173314,-8e-14
0.1,4.3,0,0.299984,-0.00017283,-8.00787e-14
0.1,4.4,0,0.299983,-0.000142593,-8.5e-14
0.1,4.5,0,0.299983,-0.000142593,-8.5e-14
0.1,4.6,0,0.299983,-0.000142593,-8.5e-14
0.1,4.7,0,0.299983,-0.000142593,-8.5e-14
0.1,4.8,0,0.299983,-0.000138182,-8.5e-14
0.1,4.9,0,0.299982,-0.000109641,-8.5e-14
0.1,5,0,0.299982,-0.000109641,-8.5e-14
0.1,5.1,0,0.299982,-0.000109641,-8.5e-14
0.1,5.2,0,0.299982,-0.000109641,-8.5e-14
0.1,5.3,0,0.299981,-0.000100902,-8.55039e-14
0.1,5.4,0,0.299981,-7.49583e-05,-8.7e-14
0.1,5.5,0,0.299981,-7.49583e-05,-8.7e-14
0.1,5.6,0,0.299981,-7.49583e-05,-8.7e-14
0.1,5.7,0,0.299981,-7.49583e-05,-8.7e-14
0.1,5.8,0,0.29998,-6.17033e-05,-8.86654e-14
0.1,5.9,0,0.29998,-3.91416e-05,-9.15e-14
0.1,6,0,0.29998,-3.91416e-05,-9.15e-14
0.1,6.1,0,0.29998,-3.91416e-05,-9.15e-14
0.1,6.2,0,0.29998,-3.91416e-05,-9.15e-14
0.1,6.3,0,0.29998,-2.13628e-05,-9.4063e-14
0.1,6.4,0,0.29998,-2.72362e-06,-9.675e-14
0.1,6.5,0,0.29998,-2.72362e-06,-9.675e-14
0.1,6.6,0,0.29998,-2.72362e-06,-9.675e-14
0.1,6.7,0,0.29998,-2.72362e-06,-9.675e-14
0.1,6.8,0,0.29998,1.94243e-05,-1.01752e-13
0.1,6.9,0,0.29998,3.38061e-05,-1.05e-13
0.1,7,0,0.29998,3.38061e-05,-1.05e-13
0.1,7.1,0,0.29998,3.38061e-05,-1.05e-13
0.1,7.2,0,0.29998,3.38061e-05,-1.05e-13
0.1,7.3,0,0.29998,5.99916e-05,-1.10614e-13
0.1,7.4,0,0.299981,6.99536e-05,-1.1275e-13
0.1,7.5,0,0.299981,6.99536e-05,-1.1275e-13
0.1,7.6,0,0.299981,6.99536e-05,-1.1275e-13
0.1,7.7,0,0.299981,6.99536e-05,-1.1275e-13
0.1,7.8,0,0.299981,9.95943e-05,-1.14646e-13
0.1,7.9,0,0.299981,0.000105135,-1.15e-13
0.1,8,0,0.299981,0.000105135,-1.15e-13
0.1,8.1,0,0.299981,0.000105135,-1.15e-13
0.1,8.2,0,0.299981,0.000105135,-1.15e-13
0.1,8.3,0,0.299982,0.000137464,-1.17402e-13
0.1,8.4,0,0.299983,0.000138789,-1.175e-13
0.1,8.5,0,0.299983,0.000138789,-1.175e-13
0.1,8.6,0,0.299983,0.000138789,-1.175e-13
0.1,8.7,0,0.299983,0.00014052,-1.17362e-13
0.1,8.8,0,0.299984,0.000170196,-1.15e-13
0.1,8.9,0,0.299984,0.000170196,-1.15e-13
0.1,9,0,0.299984,0.000170196,-1.15e-13
0.1,9.1,0,0.299984,0.000170196,-1.15e-13
0.1,9.2,0,0.299984,0.000175201,-1.14567e-13
0.1,9.3,0,0.299986,0.000199089,-1.125e-13
0.1,9.4,0,0.299986,0.000199089,-1.125e-13
0.1,9.5,0,0.299986,0.000199089,-1.125e-13
0.1,9.6,0,0.299986,0.000199089,-1.125e-13
0.1,9.7,0,0.299987,0.000206694,-1.1323e-13
0.1,9.8,0,0.299988,0.000225192,-1.15006e-13
0.1,9.9,0,0.299988,0.000225192,-1.15006e-13
0.1,10,0,0.299988,0.000225192,-1.15006e-13
0.1,10.1,0,0.299988,0.000225192,-1.15006e-13
0.1,10.2,0,0.299989,0.000234403,-1.11923e-13
0.1,10.3,0,0.299991,0.000247687,-1.07476e-13
0.1,10.4,0,0.299991,0.000247687,-1.07476e-13
0.1,10.5,0,0.299991,0.000247687,-1.07476e-13
0.1,10.6,0,0.299991,0.000247687,-1.07476e-13
0.1,10.7,0,0.299993,0.000258814,-9.8734e-14
0.1,10.8,0,0.299994,0.000268693,-9.09721e-14
0.1,10.9,0,0.299994,0.000268693,-9.09721e-14
0.1,11,0,0.299994,0.000268693,-9.09721e-14
0.1,11.1,0,0.299994,0.000268693,-9.09721e-14
0.1,11.2,0,0.299995,0.000279901,-7.99156e-14
0.1,11.3,0,0.299996,0.000294738,-6.28103e-14
0.1,11.4,0,0.299996,0.000299523,-5.67364e-14
0.1,11.5,0,0.299996,0.000299523,-5.67364e-14
0.1,11.6,0,0.299996,0.000299523,-5.67364e-14
0.1,11.7,0,0.299996,0.000299523,-5.67364e-14
0.1,11.8,0,0.299996,0.000299523,-5.67364e-14
0.1,11.9,0,0.299996,0.000299523,-5.67364e-14
0.1,12,0,0.299996,0.000299523,-5.67364e-14
0.1,12.1,0,0.299996,0.000299523,-5.67364e-14
0.1,12.2,0,0.299997,0.000302592,-3.31469e-14
0.1,12.3,0,0.299997,0.000369855,-3.67575e-14
0.1,12.4,0,0.299997,0.000445724,-4.44273e-14
0.1,12.5,0,0.299997,0.000521593,-5.20971e-14
0.1,12.6,0,0.299997,0.000597461,-5.97669e-14
0.1,12.7,0,0.299998,0.00060044,-4.40988e-14
0.2,0,0,0.299995,-0.000829946,-3.49135e-14
0.2,0.1,0,0.299994,-0.000826297,-4.51796e-14
0.2,0.2,0,0.299994,-0.000818862,-5.46436e-14
0.2,0.3,0,0.299994,-0.000742715,-4.95551e-14
0.2,0.4,0,0.299995,-0.000666568,-4.44665e-14
0.2,0.5,0,0.299995,-0.000598896,-4.26098e-14
0.2,0.6,0,0.299994,-0.000589379,-6.29317e-14
0.2,0.7,0,0.299992,-0.0005814,-7.99709e-14
0.2,0.8,0,0.299992,-0.0005814,-7.99709e-14
0.2,0.9,0,0.299992,-0.0005814,-7.99709e-14
0.2,1,0,0.299992,-0.0005814,-7.99709e-14
0.2,1.1,0,0.299992,-0.0005814,-7.99709e-14
0.2,1.2,0,0.299992,-0.0005814,-7.99709e-14
0.2,1.3,0,0.299992,-0.000577972,-8.45803e-14
0.2,1.4,0,0.29999,-0.000566546,-9.9945e-14
0.2,1.5,0,0.299988,-0.000559075,-1.09991e-13
0.2,1.6,0,0.299988,-0.000559075,-1.09991e-13
0.2,1.7,0,0.299988,-0.000559075,-1.09991e-13
0.2,1.8,0,0.299988,-0.000553146,-1.15307e-13
0.2,1.9,0,0.299985,-0.000538871,-1.28104e-13
0.2,2,0,0.299984,-0.000531184,-1.34994e-13
0.2,2.1,0,0.299984,-0.000531184,-1.34994e-13
0.2,2.2,0,0.299984,-0.000531184,-1.34994e-13
0.2,2.3,0,0.299983,-0.000521572,-1.37712e-13
0.2,2.4,0,0.299981,-0.000503462,-1.42832e-13
0.2,2.5,0,0.29998,-0.0004958,-1.44999e-13
0.2,2.6,0,0.29998,-0.0004958,-1.44999e-13
0.2,2.7,0,0.29998,-0.0004958,-1.44999e-13
0.2,2.8,0,0.299978,-0.000481614,-1.44999e-13
0.2,2.9,0,0.299976,-0.00045966,-1.45e-13
0.2,3,0,0.299975,-0.000452904,-1.45e-13
0.2,3.1,0,0.299975,-0.000452904,-1.45e-13
0.2,3.2,0,0.299975,-0.000452904,-1.45e-13
0.2,3.3,0,0.299974,-0.000433438,-1.46949e-13
0.2,3.4,0,0.299972,-0.000407876,-1.49508e-13
0.2,3.5,0,0.299972,-0.000402961,-1.5e-13
0.2,3.6,0,0.299972,-0.000402961,-1.5e-13
0.2,3.7,0,0.299972,-0.000402961,-1.5e-13
0.2,3.8,0,0.29997,-0.000377677,-1.54488e-13
0.2,3.9,0,0.299969,-0.000348846,-1.59606e-13
0.2,4,0,0.299968,-0.000346628,-1.6e-13
0.2,4.1,0,0.299968,-0.000346628,-1.6e-13
0.2,4.2,0,0.299968,-0.000346628,-1.6e-13
0.2,4.3,0,0.299967,-0.000315423,-1.65079e-13
0.2,4.4,0,0.299966,-0.000285187,-1.7e-13
0.2,4.5,0,0.299966,-0.000285187,-1.7e-13
0.2,4.6,0,0.299966,-0.000285187,-1.7e-13
0.2,4.7,0,0.299966,-0.000281554,-1.7e-13
0.2,4.8,0,0.299964,-0.000247823,-1.7e-13
0.2,4.9,0,0.299963,-0.000219281,-1.7e-13
0.2,5,0,0.299963,-0.000219281,-1.7e-13
0.2,5.1,0,0.299963,-0.000219281,-1.7e-13
0.2,5.2,0,0.299963,-0.000211362,-1.70457e-13
0.2,5.3,0,0.299962,-0.00017586,-1.72504e-13
0.2,5.4,0,0.299961,-0.000149917,-1.74e-13
0.2,5.5,0,0.299961,-0.000149917,-1.74e-13
0.2,5.6,0,0.299961,-0.000149917,-1.74e-13
0.2,5.7,0,0.299961,-0.000137508,-1.75559e-13
0.2,5.8,0,0.299961,-0.000100845,-1.80165e-13
0.2,5.9,0,0.29996,-7.82833e-05,-1.83e-13
0.2,6,0,0.29996,-7.82833e-05,-1.83e-13
0.2,6.1,0,0.29996,-7.82833e-05,-1.83e-13
0.2,6.2,0,0.29996,-6.13647e-05,-1.85439e-13
0.2,6.3,0,0.29996,-2.40864e-05,-1.90813e-13
0.2,6.4,0,0.29996,-5.44725e-06,-1.935e-13
0.2,6.5,0,0.29996,-5.44725e-06,-1.935e-13
0.2,6.6,0,0.29996,-5.44725e-06,-1.935e-13
0.2,6.7,0,0.29996,1.58378e-05,-1.98307e-13
0.2,6.8,0,0.29996,5.32303e-05,-2.06752e-13
0.2,6.9,0,0.29996,6.76121e-05,-2.1e-13
0.2,7,0,0.29996,6.76121e-05,-2.1e-13
0.2,7.1,0,0.29996,6.76121e-05,-2.1e-13
0.2,7.2,0,0.299961,9.29438e-05,-2.15431e-13
0.2,7.3,0,0.299961,0.000129945,-2.23364e-13
0.2,7.4,0,0.299961,0.000139907,-2.255e-13
0.2,7.5,0,0.299961,0.000139907,-2.255e-13
0.2,7.6,0,0.299961,0.000139907,-2.255e-13
0.2,7.7,0,0.299962,0.000168717,-2.27343e-13
0.2,7.8,0,0.299963,0.000204729,-2.29646e-13
0.2,7.9,0,0.299963,0.000210269,-2.3e-13
0.2,8,0,0.299963,0.000210269,-2.3e-13
0.2,8.1,0,0.299963,0.000210269,-2.3e-13
0.2,8.2,0,0.299964,0.000241804,-2.32343e-13
0.2,8.3,0,0.299965,0.000276253,-2.34902e-13
0.2,8.4,0,0.299965,0.000277578,-2.35e-13
0.2,8.5,0,0.299965,0.000277578,-2.35e-13
0.2,8.6,0,0.299965,0.000278567,-2.34921e-13
0.2,8.7,0,0.299967,0.000310716,-2.32362e-13
0.2,8.8,0,0.299968,0.000340391,-2.3e-13
0.2,8.9,0,0.299968,0.000340391,-2.3e-13
0.2,9,0,0.299968,0.000340391,-2.3e-13
0.2,9.1,0,0.299968,0.000344714,-2.29626e-13
0.2,9.2,0,0.29997,0.00037429,-2.27067e-13
0.2,9.3,0,0.299972,0.000398178,-2.25e-13
0.2,9.4,0,0.299972,0.000398178,-2.25e-13
0.2,9.5,0,0.299972,0.000398178,-2.25e-13
0.2,9.6,0,0.299972,0.000405166,-2.25671e-13
0.2,9.7,0,0.299975,0.000431886,-2.28236e-13
0.2,9.8,0,0.299976,0.000450385,-2.30012e-13
0.2,9.9,0,0.299976,0.000450385,-2.30012e-13
0.2,10,0,0.299976,0.000450385,-2.30012e-13
0.2,10.1,0,0.299977,0.000459064,-2.27107e-13
0.2,10.2,0,0.299981,0.00048209,-2.194e-13
0.2,10.3,0,0.299982,0.000495375,-2.14953e-13
0.2,10.4,0,0.299982,0.000495375,-2.14953e-13
0.2,10.5,0,0.299982,0.000495375,-2.14953e-13
0.2,10.6,0,0.299984,0.000506003,-2.06602e-13
0.2,10.7,0,0.299987,0.000527593,-1.89639e-13
0.2,10.8,0,0.299988,0.000537386,-1.81944e-13
0.2,10.9,0,0.299988,0.000537386,-1.81944e-13
0.2,11,0,0.299988,0.000537386,-1.81944e-13
0.2,11.1,0,0.29999,0.000548449,-1.71031e-13
0.2,11.2,0,0.299991,0.000565813,-1.53902e-13
0.2,11.3,0,0.299992,0.000580673,-1.36797e-13
0.2,11.4,0,0.299992,0.000594137,-1.19704e-13
0.2,11.5,0,0.299991,0.000599046,-1.13473e-13
0.2,11.6,0,0.299991,0.000599046,-1.13473e-13
0.2,11.7,0,0.299991,0.000599046,-1.13473e-13
0.2,11.8,0,0.299991,0.000599046,-1.13473e-13
0.2,11.9,0,0.299991,0.000599046,-1.13473e-13
0.2,12,0,0.299991,0.000599046,-1.13473e-13
0.2,12.1,0,0.299992,0.000602135,-8.97285e-14
0.2,12.2,0,0.299993,0.000605582,-6.32372e-14
0.2,12.3,0,0.299994,0.000672596,-6.67303e-14
0.2,12.4,0,0.299994,0.000748465,-7.44001e-14
0.2,12.5,0,0.299994,0.000824334,-8.20699e-14
0.2,12.6,0,0.299995,0.000828,-6.66217e-14
0.2,12.7,0,0.299997,0.000830292,-5.07336e-14
0.3,0,0,0.299994,-0.00105894,-3.99423e-14
0.3,0.1,0,0.299994,-0.0010553,-5.02084e-14
0.3,0.2,0,0.299993,-0.00105165,-6.04746e-14
0.3,0.3,0,0.299992,-0.00104232,-6.95376e-14
0.3,0.4,0,0.299993,-0.000966172,-6.4449e-14
0.3,0.5,0,0.299993,-0.000898893,-6.27423e-14
0.3,0.6,0,0.299992,-0.000889376,-8.30642e-14
0.3,0.7,0,0.29999,-0.000879859,-1.03386e-13
0.3,0.8,0,0.299988,-0.000872099,-1.19956e-13
0.3,0.9,0,0.299988,-0.000872099,-1.19956e-13
0.3,1,0,0.299988,-0.000872099,-1.19956e-13
0.3,1.1,0,0.299988,-0.000872099,-1.19956e-13
0.3,1.2,0,0.299988,-0.000868935,-1.24211e-13
0.3,1.3,0,0.299986,-0.000857509,-1.39576e-13
0.3,1.4,0,0.299984,-0.000846084,-1.54941e-13
0.3,1.5,0,0.299983,-0.000838613,-1.64987e-13
0.3,1.6,0,0.299983,-0.000838613,-1.64987e-13
0.3,1.7,0,0.299982,-0.000833013,-1.70007e-13
0.3,1.8,0,0.299979,-0.000818738,-1.82804e-13
0.3,1.9,0,0.299977,-0.000804463,-1.95601e-13
0.3,2,0,0.299976,-0.000796777,-2.02491e-13
0.3,2.1,0,0.299976,-0.000796777,-2.02491e-13
0.3,2.2,0,0.299975,-0.000787582,-2.05091e-13
0.3,2.3,0,0.299973,-0.000769472,-2.10211e-13
0.3,2.4,0,0.29997,-0.000751362,-2.15332e-13
0.3,2.5,0,0.299969,-0.000743701,-2.17498e-13
0.3,2.6,0,0.299969,-0.000743701,-2.17498e-13
0.3,2.7,0,0.299968,-0.000730021,-2.17498e-13
0.3,2.8,0,0.299966,-0.000708066,-2.17499e-13
0.3,2.9,0,0.299964,-0.000686112,-2.175e-13
0.3,3,0,0.299963,-0.000679356,-2.175e-13
0.3,3.1,0,0.299963,-0.000679356,-2.175e-13
0.3,3.2,0,0.299962,-0.00066048,-2.1939e-13
0.3,3.3,0,0.29996,-0.000634918,-2.21949e-13
0.3,3.4,0,0.299958,-0.000609356,-2.24508e-13
0.3,3.5,0,0.299957,-0.000604441,-2.25e-13
0.3,3.6,0,0.299957,-0.000604441,-2.25e-13
0.3,3.7,0,0.299956,-0.000579823,-2.2937e-13
0.3,3.8,0,0.299954,-0.000550991,-2.34488e-13
0.3,3.9,0,0.299953,-0.00052216,-2.39606e-13
0.3,4,0,0.299953,-0.000519942,-2.4e-13
0.3,4.1,0,0.299953,-0.000519942,-2.4e-13
0.3,4.2,0,0.299951,-0.000489463,-2.44961e-13
0.3,4.3,0,0.29995,-0.000458017,-2.50079e-13
0.3,4.4,0,0.299949,-0.00042778,-2.55e-13
0.3,4.5,0,0.299949,-0.00042778,-2.55e-13
0.3,4.6,0,0.299948,-0.000424926,-2.55e-13
0.3,4.7,0,0.299947,-0.000391195,-2.55e-13
0.3,4.8,0,0.299946,-0.000357464,-2.55e-13
0.3,4.9,0,0.299945,-0.000328922,-2.55e-13
0.3,5,0,0.299945,-0.000328922,-2.55e-13
0.3,5.1,0,0.299945,-0.000321822,-2.55409e-13
0.3,5.2,0,0.299944,-0.00028632,-2.57457e-13
0.3,5.3,0,0.299943,-0.000250818,-2.59504e-13
0.3,5.4,0,0.299942,-0.000224875,-2.61e-13
0.3,5.5,0,0.299942,-0.000224875,-2.61e-13
0.3,5.6,0,0.299942,-0.000213312,-2.62453e-13
0.3,5.7,0,0.299941,-0.000176649,-2.67059e-13
0.3,5.8,0,0.299941,-0.000139987,-2.71665e-13
0.3,5.9,0,0.29994,-0.000117425,-2.745e-13
0.3,6,0,0.29994,-0.000117425,-2.745e-13
0.3,6.1,0,0.29994,-0.000101367,-2.76815e-13
0.3,6.2,0,0.29994,-6.40883e-05,-2.82189e-13
0.3,6.3,0,0.29994,-2.681e-05,-2.87563e-13
0.3,6.4,0,0.29994,-8.17087e-06,-2.9025e-13
0.3,6.5,0,0.29994,-8.17087e-06,-2.9025e-13
0.3,6.6,0,0.29994,1.22512e-05,-2.94862e-13
0.3,6.7,0,0.29994,4.96438e-05,-3.03307e-13
0.3,6.8,0,0.29994,8.70364e-05,-3.11752e-13
0.3,6.9,0,0.29994,0.000101418,-3.15e-13
0.3,7,0,0.29994,0.000101418,-3.15e-13
0.3,7.1,0,0.299941,0.000125896,-3.20248e-13
0.3,7.2,0,0.299941,0.000162897,-3.28181e-13
0.3,7.3,0,0.299942,0.000199899,-3.36114e-13
0.3,7.4,0,0.299942,0.000209861,-3.3825e-13
0.3,7.5,0,0.299942,0.000209861,-3.3825e-13
0.3,7.6,0,0.299942,0.000237839,-3.40039e-13
0.3,7.7,0,0.299943,0.000273851,-3.42343e-13
0.3,7.8,0,0.299944,0.000309863,-3.44646e-13
0.3,7.9,0,0.299944,0.000315404,-3.45e-13
0.3,8,0,0.299944,0.000315404,-3.45e-13
0.3,8.1,0,0.299945,0.000346143,-3.47283e-13
0.3,8.2,0,0.299946,0.000380593,-3.49843e-13
0.3,8.3,0,0.299947,0.000415042,-3.52402e-13
0.3,8.4,0,0.299948,0.000416367,-3.525e-13
0.3,8.5,0,0.299948,0.000416614,-3.5248e-13
0.3,8.6,0,0.299949,0.000448763,-3.49921e-13
0.3,8.7,0,0.299951,0.000480911,-3.47362e-13
0.3,8.8,0,0.299952,0.000510587,-3.45e-13
0.3,8.9,0,0.299952,0.000510587,-3.45e-13
0.3,9,0,0.299953,0.000514227,-3.44685e-13
0.3,9.1,0,0.299954,0.000543803,-3.42126e-13
0.3,9.2,0,0.299956,0.000573379,-3.39567e-13
0.3,9.3,0,0.299958,0.000597267,-3.375e-13
0.3,9.4,0,0.299958,0.000597267,-3.375e-13
0.3,9.5,0,0.299958,0.000603638,-3.38112e-13
0.3,9.6,0,0.29996,0.000630359,-3.40677e-13
0.3,9.7,0,0.299963,0.000657079,-3.43242e-13
0.3,9.8,0,0.299964,0.000675577,-3.45018e-13
0.3,9.9,0,0.299964,0.000675577,-3.45018e-13
0.3,10,0,0.299965,0.000683725,-3.42291e-13
0.3,10.1,0,0.299969,0.000706751,-3.34584e-13
0.3,10.2,0,0.299972,0.000729778,-3.26876e-13
0.3,10.3,0,0.299974,0.000743062,-3.22429e-13
0.3,10.4,0,0.299974,0.000743062,-3.22429e-13
0.3,10.5,0,0.299975,0.000753192,-3.1447e-13
0.3,10.6,0,0.299978,0.000774782,-2.97507e-13
0.3,10.7,0,0.299981,0.000796371,-2.80544e-13
0.3,10.8,0,0.299983,0.000806079,-2.72916e-13
0.3,10.9,0,0.299983,0.000806079,-2.72916e-13
0.3,11,0,0.299984,0.000816998,-2.62146e-13
0.3,11.1,0,0.299985,0.000834361,-2.45017e-13
0.3,11.2,0,0.299987,0.000851724,-2.27888e-13
0.3,11.3,0,0.299988,0.000866607,-2.10783e-13
0.3,11.4,0,0.299987,0.000880072,-1.9369e-13
0.3,11.5,0,0.299987,0.000893536,-1.76597e-13
0.3,11.6,0,0.299987,0.000898568,-1.70209e-13
0.3,11.7,0,0.299987,0.000898568,-1.70209e-13
0.3,11.8,0,0.299987,0.000898568,-1.70209e-13
0.3,11.9,0,0.299987,0.000898568,-1.70209e-13
0.3,12,0,0.299988,0.000901678,-1.4631e-13
0.3,12.1,0,0.299989,0.000905125,-1.19819e-13
0.3,12.2,0,0.29999,0.000908572,-9.33274e-14
0.3,12.3,0,0.29999,0.000975337,-9.6703e-14
0.3,12.4,0,0.29999,0.00105121,-1.04373e-13
0.3,12.5,0,0.299992,0.00105556,-8.91447e-14
0.3,12.6,0,0.299993,0.00105785,-7.32565e-14
0.3,12.7,0,0.299995,0.00106014,-5.73684e-14
0.4,0,0,0.299994,-0.00128794,-4.49712e-14
0.4,0.1,0,0.299993,-0.00128429,-5.52373e-14
0.4,0.2,0,0.299992,-0.00128065,-6.55034e-14
0.4,0.3,0,0.299991,-0.001277,-7.57695e-14
0.4,0.4,0,0.299991,-0.00126578,-8.44315e-14
0.4,0.5,0,0.299991,-0.00119889,-8.28748e-14
0.4,0.6,0,0.299989,-0.00118937,-1.03197e-13
0.4,0.7,0,0.299988,-0.00117986,-1.23519e-13
0.4,0.8,0,0.299986,-0.00117034,-1.43841e-13
0.4,0.9,0,0.299985,-0.0011628,-1.59942e-13
0.4,1,0,0.299985,-0.0011628,-1.59942e-13
0.4,1.1,0,0.299984,-0.0011599,-1.63842e-13
0.4,1.2,0,0.299982,-0.00114847,-1.79207e-13
0.4,1.3,0,0.29998,-0.00113705,-1.94571e-13
0.4,1.4,0,0.299978,-0.00112562,-2.09936e-13
0.4,1.5,0,0.299977,-0.00111815,-2.19982e-13
0.4,1.6,0,0.299976,-0.00111288,-2.24707e-13
0.4,1.7,0,0.299974,-0.0010986,-2.37504e-13
0.4,1.8,0,0.299971,-0.00108433,-2.50301e-13
0.4,1.9,0,0.299969,-0.00107006,-2.63098e-13
0.4,2,0,0.299968,-0.00106237,-2.69988e-13
0.4,2.1,0,0.299967,-0.00105359,-2.7247e-13
0.4,2.2,0,0.299965,-0.00103548,-2.7759e-13
0.4,2.3,0,0.299962,-0.00101737,-2.82711e-13
0.4,2.4,0,0.29996,-0.000999263,-2.87831e-13
0.4,2.5,0,0.299959,-0.000991601,-2.89997e-13
0.4,2.6,0,0.299958,-0.000978428,-2.89998e-13
0.4,2.7,0,0.299956,-0.000956473,-2.89998e-13
0.4,2.8,0,0.299954,-0.000934519,-2.89999e-13
0.4,2.9,0,0.299952,-0.000912564,-2.9e-13
0.4,3,0,0.299951,-0.000905809,-2.9e-13
0.4,3.1,0,0.29995,-0.000887522,-2.91831e-13
0.4,3.2,0,0.299948,-0.00086196,-2.9439e-13
0.4,3.3,0,0.299946,-0.000836399,-2.96949e-13
0.4,3.4,0,0.299944,-0.000810837,-2.99508e-13
0.4,3.5,0,0.299943,-0.000805921,-3e-13
0.4,3.6,0,0.299942,-0.000781969,-3.04252e-13
0.4,3.7,0,0.29994,-0.000753137,-3.0937e-13
0.4,3.8,0,0.299939,-0.000724305,-3.14488e-13
0.4,3.9,0,0.299937,-0.000695474,-3.19606e-13
0.4,4,0,0.299937,-0.000693256,-3.2e-13
0.4,4.1,0,0.299936,-0.000663503,-3.24843e-13
0.4,4.2,0,0.299934,-0.000632056,-3.29961e-13
0.4,4.3,0,0.299933,-0.00060061,-3.35079e-13
0.4,4.4,0,0.299931,-0.000570373,-3.4e-13
0.4,4.5,0,0.299931,-0.000568297,-3.4e-13
0.4,4.6,0,0.29993,-0.000534566,-3.4e-13
0.4,4.7,0,0.299929,-0.000500835,-3.4e-13
0.4,4.8,0,0.299928,-0.000467104,-3.4e-13
0.4,4.9,0,0.299927,-0.000438563,-3.4e-13
0.4,5,0,0.299926,-0.000432282,-3.40362e-13
0.4,5.1,0,0.299925,-0.00039678,-3.42409e-13
0.4,5.2,0,0.299924,-0.000361278,-3.44457e-13
0.4,5.3,0,0.299924,-0.000325777,-3.46504e-13
0.4,5.4,0,0.299923,-0.000299833,-3.48e-13
0.4,5.5,0,0.299923,-0.000289116,-3.49346e-13
0.4,5.6,0,0.299922,-0.000252454,-3.53953e-13
0.4,5.7,0,0.299921,-0.000215791,-3.58559e-13
0.4,5.8,0,0.299921,-0.000179128,-3.63165e-13
0.4,5.9,0,0.29992,-0.000156567,-3.66e-13
0.4,6,0,0.29992,-0.000141368,-3.68191e-13
0.4,6.1,0,0.29992,-0.00010409,-3.73565e-13
0.4,6.2,0,0.29992,-6.68119e-05,-3.78939e-13
0.4,6.3,0,0.29992,-2.95336e-05,-3.84313e-13
0.4,6.4,0,0.29992,-1.08945e-05,-3.87e-13
0.4,6.5,0,0.29992,8.6647e-06,-3.91417e-13
0.4,6.6,0,0.29992,4.60573e-05,-3.99862e-13
0.4,6.7,0,0.29992,8.34499e-05,-4.08307e-13
0.4,6.8,0,0.299921,0.000120842,-4.16752e-13
0.4,6.9,0,0.299921,0.000135224,-4.2e-13
0.4,7,0,0.299921,0.000158848,-4.25065e-13
0.4,7.1,0,0.299921,0.00019585,-4.32998e-13
0.4,7.2,0,0.299922,0.000232851,-4.40931e-13
0.4,7.3,0,0.299922,0.000269852,-4.48864e-13
0.4,7.4,0,0.299922,0.000279814,-4.51e-13
0.4,7.5,0,0.299923,0.000306962,-4.52736e-13
0.4,7.6,0,0.299924,0.000342974,-4.55039e-13
0.4,7.7,0,0.299925,0.000378986,-4.57343e-13
0.4,7.8,0,0.299925,0.000414998,-4.59646e-13
0.4,7.9,0,0.299925,0.000420538,-4.6e-13
0.4,8,0,0.299926,0.000450483,-4.62224e-13
0.4,8.1,0,0.299928,0.000484932,-4.64783e-13
0.4,8.2,0,0.299929,0.000519382,-4.67343e-13
0.4,8.3,0,0.29993,0.000553831,-4.69902e-13
0.4,8.4,0,0.29993,0.000555156,-4.7e-13
0.4,8.5,0,0.299932,0.00058681,-4.6748e-13
0.4,8.6,0,0.299933,0.000618958,-4.64921e-13
0.4,8.7,0,0.299935,0.000651107,-4.62362e-13
0.4,8.8,0,0.299936,0.000680782,-4.6e-13
0.4,8.9,0,0.299937,0.00068374,-4.59744e-13
0.4,9,0,0.299938,0.000713316,-4.57185e-13
0.4,9.1,0,0.29994,0.000742892,-4.54626e-13
0.4,9.2,0,0.299942,0.000772467,-4.52067e-13
0.4,9.3,0,0.299943,0.000796356,-4.5e-13
0.4,9.4,0,0.299944,0.000802111,-4.50553e-13
0.4,9.5,0,0.299946,0.000828831,-4.53118e-13
0.4,9.6,0,0.299948,0.000855551,-4.55683e-13
0.4,9.7,0,0.299951,0.000882271,-4.58248e-13
0.4,9.8,0,0.299952,0.00090077,-4.60024e-13
0.4,9.9,0,0.299953,0.000908386,-4.57475e-13
0.4,10,0,0.299957,0.000931412,-4.49768e-13
0.4,10.1,0,0.29996,0.000954439,-4.4206e-13
0.4,10.2,0,0.299963,0.000977465,-4.34352e-13
0.4,10.3,0,0.299965,0.000990749,-4.29906e-13
0.4,10.4,0,0.299966,0.00100038,-4.22338e-13
0.4,10.5,0,0.299969,0.00102197,-4.05375e-13
0.4,10.6,0,0.299972,0.00104356,-3.88412e-13
0.4,10.7,0,0.299976,0.00106515,-3.71449e-13
0.4,10.8,0,0.299977,0.00107477,-3.63889e-13
0.4,10.9,0,0.299978,0.00108555,-3.53261e-13
0.4,11,0,0.29998,0.00110291,-3.36132e-13
0.4,11.1,0,0.299981,0.00112027,-3.19004e-13
0.4,11.2,0,0.299983,0.00113764,-3.01875e-13
0.4,11.3,0,0.299983,0.00115254,-2.84769e-13
0.4,11.4,0,0.299983,0.00116601,-2.67676e-13
0.4,11.5,0,0.299983,0.00117947,-2.50584e-13
0.4,11.6,0,0.299983,0.00119294,-2.33491e-13
0.4,11.7,0,0.299983,0.00119809,-2.26946e-13
0.4,11.8,0,0.299983,0.00119809,-2.26946e-13
0.4,11.9,0,0.299984,0.00120122,-2.02892e-13
0.4,12,0,0.299985,0.00120467,-1.764e-13
0.4,12.1,0,0.299986,0.00120812,-1.49909e-13
0.4,12.2,0,0.299987,0.00121156,-1.23418e-13
0.4,12.3,0,0.299987,0.00127808,-1.26676e-13
0.4,12.4,0,0.299989,0.00128312,-1.11668e-13
0.4,12.5,0,0.29999,0.00128541,-9.57795e-14
0.4,12.6,0,0.299992,0.0012877,-7.98913e-14
0.4,12.7,0,0.299993,0.00129,-6.40032e-14
0.5,0,0,0.299993,-0.00151694,-5e-14
0.5,0.1,0,0.299992,-0.00151352,-6.02409e-14
0.5,0.2,0,0.299991,-0.00151009,-7.04817e-14
0.5,0.3,0,0.299991,-0.00150666,-8.07226e-14
0.5,0.4,0,0.29999,-0.00150324,-9.09634e-14
0.5,0.5,0,0.299989,-0.00149885,-1.02616e-13
0.5,0.6,0,0.299987,-0.00148934,-1.2302e-13
0.5,0.7,0,0.299985,-0.00147983,-1.43424e-13
0.5,0.8,0,0.299984,-0.00147032,-1.63828e-13
0.5,0.9,0,0.299982,-0.00146081,-1.84232e-13
0.5,1,0,0.29998,-0.00145086,-2.03473e-13
0.5,1.1,0,0.299978,-0.00143944,-2.18838e-13
0.5,1.2,0,0.299976,-0.00142801,-2.34202e-13
0.5,1.3,0,0.299974,-0.00141658,-2.49567e-13
0.5,1.4,0,0.299973,-0.00140516,-2.64932e-13
0.5,1.5,0,0.29997,-0.00139275,-2.79407e-13
0.5,1.6,0,0.299968,-0.00137847,-2.92204e-13
0.5,1.7,0,0.299966,-0.0013642,-3.05001e-13
0.5,1.8,0,0.299963,-0.00134992,-3.17798e-13
0.5,1.9,0,0.299961,-0.00133565,-3.30595e-13
0.5,2,0,0.299959,-0.0013196,-3.39849e-13
0.5,2.1,0,0.299957,-0.00130149,-3.44969e-13
0.5,2.2,0,0.299954,-0.00128338,-3.5009e-13
0.5,2.3,0,0.299952,-0.00126527,-3.5521e-13
0.5,2.4,0,0.29995,-0.00124716,-3.6033e-13
0.5,2.5,0,0.299948,-0.00122683,-3.62497e-13
0.5,2.6,0,0.299946,-0.00120488,-3.62498e-13
0.5,2.7,0,0.299944,-0.00118293,-3.62498e-13
0.5,2.8,0,0.299941,-0.00116097,-3.62499e-13
0.5,2.9,0,0.299939,-0.00113902,-3.625e-13
0.5,3,0,0.299937,-0.00111456,-3.64272e-13
0.5,3.1,0,0.299935,-0.001089,-3.66831e-13
0.5,3.2,0,0.299933,-0.00106344,-3.6939e-13
0.5,3.3,0,0.299931,-0.00103788,-3.71949e-13
0.5,3.4,0,0.299929,-0.00101232,-3.74508e-13
0.5,3.5,0,0.299928,-0.000984114,-3.79134e-13
0.5,3.6,0,0.299926,-0.000955283,-3.84252e-13
0.5,3.7,0,0.299925,-0.000926451,-3.8937e-13
0.5,3.8,0,0.299923,-0.000897619,-3.94488e-13
0.5,3.9,0,0.299921,-0.000868788,-3.99606e-13
0.5,4,0,0.29992,-0.000837542,-4.04724e-13
0.5,4.1,0,0.299918,-0.000806096,-4.09843e-13
0.5,4.2,0,0.299917,-0.00077465,-4.14961e-13
0.5,4.3,0,0.299916,-0.000743203,-4.20079e-13
0.5,4.4,0,0.299914,-0.000711669,-4.25e-13
0.5,4.5,0,0.299913,-0.000677938,-4.25e-13
0.5,4.6,0,0.299912,-0.000644207,-4.25e-13
0.5,4.7,0,0.299911,-0.000610476,-4.25e-13
0.5,4.8,0,0.299909,-0.000576745,-4.25e-13
0.5,4.9,0,0.299908,-0.000542742,-4.25315e-13
0.5,5,0,0.299907,-0.00050724,-4.27362e-13
0.5,5.1,0,0.299906,-0.000471738,-4.29409e-13
0.5,5.2,0,0.299905,-0.000436237,-4.31457e-13
0.5,5.3,0,0.299904,-0.000400735,-4.33504e-13
0.5,5.4,0,0.299903,-0.000364921,-4.3624e-13
0.5,5.5,0,0.299903,-0.000328258,-4.40846e-13
0.5,5.6,0,0.299902,-0.000291595,-4.45453e-13
0.5,5.7,0,0.299901,-0.000254933,-4.50059e-13
0.5,5.8,0,0.299901,-0.00021827,-4.54665e-13
0.5,5.9,0,0.2999,-0.00018137,-4.59567e-13
0.5,6,0,0.2999,-0.000144092,-4.64941e-13
0.5,6.1,0,0.2999,-0.000106814,-4.70315e-13
0.5,6.2,0,0.2999,-6.95355e-05,-4.75689e-13
0.5,6.3,0,0.2999,-3.22573e-05,-4.81063e-13
0.5,6.4,0,0.2999,5.07817e-06,-4.87972e-13
0.5,6.5,0,0.2999,4.24708e-05,-4.96417e-13
0.5,6.6,0,0.2999,7.98633e-05,-5.04862e-13
0.5,6.7,0,0.2999,0.000117256,-5.13307e-13
0.5,6.8,0,0.299901,0.000154649,-5.21752e-13
0.5,6.9,0,0.299901,0.0001918,-5.29882e-13
0.5,7,0,0.299901,0.000228802,-5.37815e-13