/*--------------------------------*- C++ -*----------------------------------*\
| =========                 |                                                 |
| \\      /  F ield         | OpenFOAM: The Open Source CFD Toolbox           |
|  \\    /   O peration     | Version:  v1806                                 |
|   \\  /    A nd           | Web:      www.OpenFOAM.com                      |
|    \\/     M anipulation  |                                                 |
\*---------------------------------------------------------------------------*/
FoamFile
{
    version     2.0;
    format      ascii;
    class       volScalarField;
    location    "410";
    object      p;
}
// * * * * * * * * * * * * * * * * * * * * * * * * * * * * * * * * * * * * * //

dimensions      [0 2 -2 0 0 0 0];


internalField   nonuniform List<scalar> 
2400
(
0.000140342
0.000143154
0.000147908
0.000156021
0.000165836
0.000179581
0.000193782
0.000212892
0.000229923
0.000253191
0.000269178
0.000292866
0.000300118
0.000315919
0.00030264
0.000295998
0.000250892
0.000204414
0.000128159
4.02397e-05
0.000420433
0.000428695
0.00044248
0.000466455
0.000495108
0.000535819
0.000577298
0.000634046
0.000683725
0.000753024
0.00079955
0.000870513
0.000891426
0.000939825
0.000900485
0.000883766
0.000750231
0.000616712
0.000390223
0.000132642
0.000698981
0.000712419
0.000735223
0.000774641
0.000822135
0.000889133
0.000958144
0.00105159
0.00113477
0.00124896
0.00132794
0.00144528
0.00148301
0.00156463
0.00150225
0.00147976
0.00125622
0.00104317
0.000657231
0.000230845
0.000974939
0.000993269
0.00102526
0.00107981
0.00114641
0.00123914
0.0013363
0.00146574
0.00158376
0.00174223
0.00185612
0.00202007
0.00207816
0.00219578
0.00211281
0.00209245
0.00177371
0.00149336
0.000929598
0.000336171
0.0012473
0.0012702
0.0013116
0.00138092
0.00146694
0.00158482
0.00171082
0.00187563
0.00203003
0.00223248
0.00238425
0.00259576
0.0026787
0.00283646
0.00273643
0.00272868
0.0023082
0.00197803
0.0012084
0.000454468
0.00151508
0.00154218
0.00159319
0.00167692
0.00178266
0.00192505
0.00208072
0.00228025
0.00247292
0.00271916
0.00291262
0.0031729
0.00328687
0.00348933
0.00337837
0.00339472
0.00286679
0.00250874
0.00149454
0.000595375
0.00177726
0.00180815
0.00186902
0.00196671
0.00209253
0.00225875
0.00244499
0.00267858
0.00291178
0.0032016
0.00344148
0.00375174
0.00390502
0.00415639
0.00404444
0.00409581
0.00345819
0.00309705
0.00178919
0.00077306
0.00203287
0.00206713
0.00213804
0.00224924
0.00239547
0.00258477
0.00280258
0.00306949
0.00334578
0.00367892
0.00397092
0.00433209
0.00453529
0.00483883
0.00474075
0.00483591
0.00409312
0.00375384
0.00209549
0.00100682
0.00228092
0.00231812
0.00239924
0.00252346
0.00269038
0.00290199
0.00315232
0.00345176
0.00377393
0.00414998
0.00450067
0.00491335
0.00517956
0.00553717
0.00547358
0.00561741
0.0047846
0.00448842
0.00242096
0.0013205
0.00252042
0.00256019
0.00265158
0.00278833
0.00297609
0.00320922
0.00349293
0.00382407
0.0041949
0.00461342
0.00503004
0.00549461
0.00583939
0.00625146
0.00624936
0.00644094
0.00554753
0.00530684
0.00278077
0.00174022
0.00275041
0.00279241
0.00289405
0.00304282
0.00325141
0.00350529
0.00382296
0.004185
0.00460704
0.00506765
0.00555771
0.00607469
0.00651583
0.00698192
0.00707514
0.00730593
0.00639821
0.00620833
0.00320004
0.00229189
0.00296993
0.00301391
0.00312561
0.00328593
0.00351511
0.00378901
0.00414085
0.00453304
0.00500828
0.00551072
0.00608137
0.00665194
0.00720883
0.00772957
0.0079593
0.00821306
0.00735582
0.00718038
0.00371077
0.00299887
0.00317803
0.00322382
0.00334527
0.00351669
0.00376592
0.0040592
0.00444486
0.00486668
0.00539615
0.00594047
0.00659759
0.00722349
0.00791612
0.00849567
0.00891111
0.0091697
0.00844869
0.00819873
0.00434316
0.00386862
0.00337381
0.00342131
0.00355205
0.00373412
0.00400259
0.00431468
0.00473321
0.00518432
0.00576779
0.00635472
0.0071018
0.00778587
0.00863163
0.00927763
0.00993647
0.0101956
0.00972421
0.00924755
0.00512709
0.00485047
0.00355638
0.00360557
0.00374503
0.00393729
0.00422389
0.00455421
0.00500405
0.00548426
0.00612012
0.00675103
0.00758835
0.00833585
0.0093458
0.010069
0.0110291
0.011312
0.0112487
0.0103572
0.00613307
0.00571609
0.00372494
0.00377584
0.00392333
0.00412525
0.00442865
0.00477656
0.00525564
0.00576464
0.00645005
0.00712648
0.00805114
0.00886933
0.0100456
0.0108659
0.0121687
0.0125067
0.013077
0.0116588
0.00759966
0.00592145
0.00387871
0.00393137
0.00408614
0.00429712
0.00461579
0.00498045
0.00548629
0.00602345
0.00675459
0.00747764
0.00848414
0.0093807
0.010717
0.0116627
0.0133191
0.0137786
0.0151811
0.0133388
0.0100782
0.00490469
0.00401703
0.00407149
0.00423273
0.00445203
0.00478431
0.00516464
0.00569444
0.00625858
0.00703091
0.00780059
0.00888153
0.00986255
0.0113466
0.0124483
0.0144414
0.0151354
0.0174758
0.0154227
0.0142366
0.00264027
0.00413926
0.0041956
0.00436245
0.00458918
0.00493329
0.00532793
0.00587868
0.0064679
0.00727641
0.00809104
0.00923796
0.0103056
0.0119219
0.0132041
0.0155003
0.0165664
0.019804
0.0180306
0.020139
0.000222342
0.00424491
0.00430304
0.00447485
0.00470769
0.00506216
0.0054689
0.0060381
0.00664885
0.00748937
0.00834378
0.00954946
0.0106981
0.0124328
0.0139016
0.0164669
0.0180148
0.0220107
0.0214091
0.0275907
0.00278228
-4.45181e-05
-0.000125293
-0.000192352
-0.000236512
-0.000261948
-0.000275158
-0.000278887
-0.000274965
-0.000265966
-0.000254342
-0.000117776
-0.000357617
-0.000556085
-0.000686902
-0.000763228
-0.000803621
-0.000815813
-0.000805321
-0.000779892
-0.000746756
-0.000193022
-0.000603187
-0.000936906
-0.00115432
-0.00128145
-0.00134816
-0.00136667
-0.00134709
-0.00130297
-0.00124634
-0.000275714
-0.000873882
-0.00134655
-0.00164835
-0.00182475
-0.00191563
-0.00193686
-0.00190443
-0.0018385
-0.00175592
-0.000370661
-0.00118109
-0.00179501
-0.00217696
-0.00239987
-0.00251108
-0.00252953
-0.00247895
-0.00238703
-0.00227531
-0.00048659
-0.00153917
-0.00229362
-0.0027498
-0.00301531
-0.00314079
-0.00314865
-0.003073
-0.00294973
-0.00280485
-0.000639148
-0.00196541
-0.00285433
-0.00337797
-0.00368077
-0.00381141
-0.00379822
-0.00368892
-0.00352775
-0.00334479
-0.000854371
-0.00248043
-0.00348968
-0.00407436
-0.0044071
-0.00452984
-0.00448223
-0.00432899
-0.004122
-0.00389495
-0.0011706
-0.00310908
-0.00421454
-0.00485449
-0.00520636
-0.00530318
-0.00520471
-0.00499533
-0.00473284
-0.00445424
-0.00163707
-0.00388068
-0.00504982
-0.00573832
-0.00609202
-0.00613877
-0.0059696
-0.00568928
-0.00535911
-0.00501942
-0.0023164
-0.00482411
-0.00602749
-0.00675291
-0.00707931
-0.00704354
-0.00677937
-0.00640947
-0.00599597
-0.00558285
-0.00329853
-0.00596431
-0.00719456
-0.00793363
-0.00818336
-0.008021
-0.00763127
-0.00714777
-0.00663124
-0.00612956
-0.00469629
-0.00734799
-0.00861395
-0.00931741
-0.00941087
-0.00906378
-0.00850974
-0.00788302
-0.00724164
-0.00663539
-0.00665951
-0.00906266
-0.010358
-0.0109201
-0.0107436
-0.0101396
-0.00937627
-0.00857625
-0.00779257
-0.00706998
-0.00942308
-0.0112367
-0.012486
-0.0127028
-0.0121116
-0.0111765
-0.0101657
-0.00917554
-0.00824775
-0.00740841
-0.0133974
-0.0139505
-0.0150026
-0.0145147
-0.0133774
-0.0120698
-0.0108055
-0.00963913
-0.00858841
-0.00764508
-0.0189587
-0.0171077
-0.0177569
-0.0160838
-0.0143862
-0.0127364
-0.0112617
-0.00995999
-0.00882014
-0.00779626
-0.0260424
-0.0200071
-0.0202924
-0.0171545
-0.0150849
-0.0131679
-0.0115482
-0.0101607
-0.00896713
-0.00789971
-0.0343062
-0.021723
-0.0220727
-0.0176831
-0.0155226
-0.0134068
-0.0117105
-0.0102767
-0.00905
-0.00795941
-0.048545
-0.0232262
-0.0237162
-0.0180129
-0.0158062
-0.013527
-0.0117985
-0.0103348
-0.0090957
-0.00811642
-0.000242092
-0.000230023
-0.000218058
-0.000206449
-0.000194975
-0.000183479
-0.000171587
-0.000159343
-0.000146519
-0.000133426
-0.000119855
-0.000106349
-9.25923e-05
-7.93354e-05
-6.59804e-05
-5.34693e-05
-4.07857e-05
-2.91037e-05
-1.69392e-05
-5.76084e-06
-0.000711292
-0.000676208
-0.000641669
-0.000608118
-0.000574948
-0.000541588
-0.000507038
-0.000471314
-0.000433863
-0.000395464
-0.000355629
-0.000315843
-0.000275284
-0.000236113
-0.000196581
-0.000159576
-0.000121883
-8.73958e-05
-5.11406e-05
-1.85291e-05
-0.00118618
-0.00112699
-0.00106908
-0.00101306
-0.000957824
-0.000902249
-0.000844708
-0.00078513
-0.000722698
-0.000658597
-0.000592156
-0.000525735
-0.000458122
-0.000392811
-0.000326981
-0.000265449
-0.000202732
-0.000145661
-8.52821e-05
-3.16094e-05
-0.00166926
-0.0015847
-0.00150264
-0.00142374
-0.00134617
-0.00126807
-0.00118713
-0.00110317
-0.00101516
-0.000924671
-0.00083094
-0.000737208
-0.000641946
-0.000550004
-0.000457486
-0.000371235
-0.000283292
-0.000203796
-0.000119112
-4.49714e-05
-0.00215987
-0.00204848
-0.00194156
-0.00183958
-0.00173965
-0.00163885
-0.00153419
-0.00142535
-0.00131113
-0.00119351
-0.00107172
-0.000949902
-0.000826327
-0.000707202
-0.000587599
-0.000476451
-0.000363141
-0.000261473
-0.00015243
-5.86622e-05
-0.00265781
-0.00251789
-0.00238544
-0.00226037
-0.00213817
-0.00201458
-0.00188587
-0.00175159
-0.00161044
-0.00146479
-0.00131404
-0.00116321
-0.00101059
-0.000863658
-0.000716609
-0.000580398
-0.000441728
-0.00031823
-0.000184994
-7.25911e-05
-0.00316272
-0.00299229
-0.00283372
-0.00268572
-0.00254146
-0.00239498
-0.00224182
-0.00208139
-0.00191244
-0.00173768
-0.00155693
-0.00137606
-0.00119361
-0.00101821
-0.000843466
-0.000682078
-0.000518297
-0.000373398
-0.000216465
-8.65032e-05
-0.00367363
-0.00347033
-0.00328508
-0.00311447
-0.00294837
-0.00277878
-0.00260064
-0.00241324
-0.00221543
-0.00201036
-0.00179849
-0.00158652
-0.00137354
-0.00116911
-0.000966631
-0.000780104
-0.000591822
-0.000426067
-0.000246397
-9.99424e-05
-0.00418824
-0.00394913
-0.00373668
-0.00354387
-0.00335605
-0.00316301
-0.00295923
-0.0027439
-0.00251615
-0.0022796
-0.0020356
-0.00179163
-0.00154767
-0.00131393
-0.00108408
-0.000872742
-0.000661056
-0.000475145
-0.00027428
-0.000112256
-0.00470151
-0.00442287
-0.00418281
-0.0039683
-0.00375878
-0.00354187
-0.00331184
-0.00306779
-0.00280924
-0.00254038
-0.00226369
-0.00198738
-0.00171254
-0.00144974
-0.00119345
-0.000958112
-0.000724686
-0.000519541
-0.00029964
-0.00012269
-0.00520341
-0.00488097
-0.00461342
-0.00437799
-0.0041469
-0.00390605
-0.00364966
-0.00337672
-0.00308725
-0.00278615
-0.00247712
-0.00216903
-0.00186428
-0.00157353
-0.00129246
-0.00103456
-0.000781616
-0.000558444
-0.000322178
-0.000130581
-0.00567673
-0.00530672
-0.0050133
-0.00475855
-0.00450683
-0.00424302
-0.00396134
-0.00366061
-0.00334148
-0.00300961
-0.00266997
-0.002332
-0.00199947
-0.00168287
-0.00137941
-0.00110111
-0.000831301
-0.000591621
-0.000341922
-0.000135612
-0.00609672
-0.00567838
-0.0053637
-0.0050929
-0.00482318
-0.00453927
-0.00423518
-0.00390956
-0.00356383
-0.00320443
-0.00283751
-0.00247296
-0.00211592
-0.0017766
-0.00145372
-0.00115729
-0.000873844
-0.000619461
-0.000359247
-0.000137941
-0.00643619
-0.00597525
-0.0056479
-0.00536643
-0.0050836
-0.00478448
-0.00446262
-0.0041167
-0.00374911
-0.00336693
-0.00297742
-0.00259066
-0.00221322
-0.00185502
-0.00151628
-0.00120513
-0.000910513
-0.000643303
-0.000374948
-0.00013823
-0.00667723
-0.00618769
-0.005859
-0.00557355
-0.00528382
-0.00497524
-0.00464097
-0.00428014
-0.00389629
-0.00349662
-0.00308983
-0.00268621
-0.00229311
-0.00192016
-0.00156908
-0.00124621
-0.000942887
-0.000664757
-0.000389893
-0.000137359
-0.00681997
-0.00632104
-0.00600187
-0.00571858
-0.00542762
-0.00511451
-0.00477264
-0.0044022
-0.00400679
-0.0035962
-0.00317789
-0.00276251
-0.0023584
-0.00197485
-0.00161476
-0.00128298
-0.000972881
-0.000685527
-0.000404826
-0.000136122
-0.00688336
-0.00639526
-0.00609171
-0.00581377
-0.00552466
-0.00520978
-0.00486358
-0.00448723
-0.00408704
-0.00367009
-0.00324529
-0.00282323
-0.00241263
-0.0020224
-0.00165622
-0.00131786
-0.00100222
-0.000706882
-0.000420101
-0.000134906
-0.00689897
-0.00643427
-0.00614518
-0.00587175
-0.00558452
-0.00526887
-0.00492103
-0.00454321
-0.00414126
-0.00372273
-0.00329641
-0.00287242
-0.00245946
-0.00206595
-0.00169605
-0.00135276
-0.00103212
-0.000729372
-0.000435689
-0.000133535
-0.00689073
-0.00644754
-0.00616966
-0.0058989
-0.00561306
-0.00529753
-0.00495039
-0.00457413
-0.00417464
-0.00375904
-0.00333569
-0.00291396
-0.00250221
-0.00210821
-0.00173628
-0.00138895
-0.00106316
-0.00075283
-0.000451309
-0.000131647
-0.00690404
-0.00642732
-0.0061632
-0.00589662
-0.00561392
-0.00530076
-0.00495683
-0.00458584
-0.00419256
-0.0037838
-0.00336723
-0.00295127
-0.00254359
-0.00215117
-0.00177823
-0.00142703
-0.00109533
-0.000776469
-0.000466903
-0.000128723
-0.00676148
-0.00633883
-0.00612197
-0.00586905
-0.00559377
-0.00528591
-0.0049479
-0.00458419
-0.00419922
-0.00379941
-0.00339164
-0.00298334
-0.00258125
-0.00219152
-0.00181805
-0.00146303
-0.00112494
-0.00079694
-0.000481197
-0.000124211
-0.00648851
-0.00625233
-0.0060683
-0.00583315
-0.00556659
-0.00526517
-0.00493389
-0.00457776
-0.00420161
-0.00381123
-0.0034127
-0.00301244
-0.00261623
-0.00222939
-0.00185541
-0.00149645
-0.00115163
-0.000814581
-0.000493277
-0.000119042
-0.00628623
-0.00617321
-0.00601133
-0.00579291
-0.00553551
-0.00524088
-0.00491682
-0.00456909
-0.00420258
-0.00382254
-0.00343418
-0.00304276
-0.00265303
-0.00226931
-0.0018946
-0.00153108
-0.00117846
-0.000832108
-0.000500759
-0.000120927
-0.00615156
-0.00610876
-0.00596274
-0.00575603
-0.00550613
-0.00521661
-0.00489983
-0.00456049
-0.00420383
-0.00383453
-0.00345679
-0.00307465
-0.00269166
-0.0023111
-0.00193538
-0.0015667
-0.00120533
-0.000848827
-0.000507587
-0.000120618
-0.00608325
-0.00607051
-0.00593094
-0.00572868
-0.00548001
-0.00519651
-0.00488537
-0.00455371
-0.0042066
-0.00384795
-0.00348088
-0.00310811
-0.00273187
-0.00235436
-0.00197741
-0.00160302
-0.00123221
-0.000864803
-0.000513685
-0.000119822
-0.0060856
-0.00606355
-0.00592073
-0.00571465
-0.00546504
-0.00518201
-0.00487469
-0.00454964
-0.00421141
-0.00386301
-0.00350632
-0.00314271
-0.00277305
-0.00239848
-0.00202003
-0.00163967
-0.00125904
-0.000880249
-0.000519087
-0.000119261
-0.00615871
-0.0060874
-0.00593158
-0.00571348
-0.00545813
-0.00517309
-0.00486787
-0.00454827
-0.00421808
-0.00387928
-0.00353249
-0.00317765
-0.00281423
-0.00244247
-0.00206241
-0.00167608
-0.00128566
-0.00089538
-0.000524128
-0.000118951
-0.00629937
-0.00613482
-0.00595811
-0.00572141
-0.00545701
-0.00516824
-0.00486382
-0.00454872
-0.00422574
-0.00389583
-0.00355828
-0.00321171
-0.0028542
-0.00248507
-0.00210345
-0.00171147
-0.0013117
-0.000910302
-0.000529338
-0.000118537
-0.00651112
-0.00619315
-0.00599192
-0.00573218
-0.00545761
-0.00516467
-0.00486059
-0.00454941
-0.004233
-0.00391126
-0.00358223
-0.00324333
-0.00289134
-0.00252475
-0.0021418
-0.00174486
-0.00133662
-0.000925053
-0.000534734
-0.000118774
-0.00680371
-0.00625954
-0.00601981
-0.00573941
-0.00545552
-0.00515938
-0.00485597
-0.00454861
-0.00423829
-0.00392404
-0.00360274
-0.00327077
-0.002924
-0.00255995
-0.00217606
-0.00177508
-0.00135952
-0.000940556
-0.000537167
-0.000126515
-0.00689965
-0.00633256
-0.00603552
-0.00573825
-0.00544576
-0.00514787
-0.00484635
-0.00454383
-0.00424051
-0.00393456
-0.00362175
-0.00329737
-0.00295638
-0.00259526
-0.00221087
-0.00180636
-0.00138402
-0.000958195
-0.000542173
-0.000137922
-0.00684265
-0.00632057
-0.00600735
-0.00570748
-0.00541306
-0.00511748
-0.00482089
-0.0045252
-0.00423002
-0.00393294
-0.00362876
-0.00331225
-0.00297709
-0.00261975
-0.002236
-0.00183027
-0.00140373
-0.000974154
-0.000550304
-0.000151331
-0.00683845
-0.00628767
-0.00595437
-0.00565266
-0.00535882
-0.00506754
-0.00477744
-0.00448928
-0.00420194
-0.00391278
-0.00361592
-0.00330611
-0.0029761
-0.00262305
-0.00224152
-0.00183789
-0.00141132
-0.000983481
-0.000557772
-0.000164752
-0.00678779
-0.00622947
-0.00587594
-0.00557221
-0.00527994
-0.00499345
-0.00471042
-0.00443015
-0.00415043
-0.00386855
-0.00357812
-0.00327458
-0.00294933
-0.00260159
-0.00222429
-0.00182634
-0.00140408
-0.000983464
-0.000561079
-0.000176785
-0.00666525
-0.006123
-0.00575669
-0.00545317
-0.00516545
-0.00488551
-0.0046107
-0.00433929
-0.00406777
-0.0037935
-0.00350967
-0.00321263
-0.00289339
-0.00255272
-0.00218239
-0.00179394
-0.00138049
-0.000972115
-0.000557517
-0.00018597
-0.00644109
-0.00593858
-0.00557507
-0.0052778
-0.00500005
-0.00473071
-0.00446681
-0.00420644
-0.00394503
-0.00368011
-0.00340453
-0.00311595
-0.00280509
-0.00247459
-0.00211496
-0.00174018
-0.0013402
-0.000948654
-0.000546114
-0.000191307
-0.00611359
-0.00566664
-0.00532149
-0.00503743
-0.00477498
-0.00452091
-0.00427147
-0.00402507
-0.00377653
-0.00352374
-0.00325933
-0.00298236
-0.00268327
-0.00236662
-0.00202165
-0.0016654
-0.00128387
-0.000913306
-0.000527169
-0.000192193
-0.00570498
-0.00531775
-0.00500138
-0.00473604
-0.00449243
-0.0042571
-0.00402516
-0.00379537
-0.00356244
-0.0033247
-0.00307473
-0.00281287
-0.00252951
-0.00223084
-0.00190529
-0.00157116
-0.00121186
-0.00086674
-0.000501541
-0.000188308
-0.00524767
-0.00491637
-0.00463282
-0.00438916
-0.00416557
-0.00395018
-0.00373721
-0.00352557
-0.00331008
-0.00308964
-0.0028569
-0.00261321
-0.00234912
-0.00207193
-0.00176964
-0.00146123
-0.00112862
-0.000810645
-0.000470332
-0.000179818
-0.00476781
-0.00448605
-0.00423554
-0.00401473
-0.00381116
-0.00361549
-0.00342165
-0.00322859
-0.00303137
-0.00282943
-0.00261568
-0.00239217
-0.00214981
-0.00189645
-0.00162013
-0.00133959
-0.00103618
-0.000746929
-0.000434767
-0.000167438
-0.00428152
-0.00404308
-0.00382426
-0.00362665
-0.00344291
-0.00326638
-0.00309134
-0.00291676
-0.00273802
-0.00255503
-0.00236118
-0.00215886
-0.00193961
-0.00171126
-0.00146238
-0.00121061
-0.000937887
-0.000677921
-0.000396049
-0.000152271
-0.0037973
-0.00359693
-0.003408
-0.00323355
-0.00306961
-0.00291187
-0.00275533
-0.00259905
-0.00243886
-0.00227494
-0.00210137
-0.00192063
-0.00172507
-0.00152205
-0.00130113
-0.00107814
-0.000836595
-0.000605808
-0.000355283
-0.000135519
-0.00331925
-0.00315258
-0.0029917
-0.00284015
-0.00269611
-0.00255707
-0.00241893
-0.00228092
-0.00213934
-0.00199457
-0.00184144
-0.00168234
-0.00151059
-0.00133274
-0.00113967
-0.000944976
-0.000734398
-0.00053235
-0.000313375
-0.000118195
-0.00284928
-0.00271261
-0.00257793
-0.00244885
-0.00232478
-0.0022045
-0.00208481
-0.00196515
-0.00184231
-0.00171678
-0.00158419
-0.00144668
-0.00129861
-0.00114558
-0.000979922
-0.000812859
-0.00063261
-0.000458767
-0.000270983
-0.000100972
-0.00238827
-0.00227836
-0.00216812
-0.00206088
-0.00195673
-0.00185528
-0.00175415
-0.00165294
-0.001549
-0.00144281
-0.0013308
-0.00121479
-0.0010902
-0.00096158
-0.000822761
-0.000682653
-0.000531931
-0.000385777
-0.000228544
-8.41875e-05
-0.00193646
-0.00185055
-0.00176309
-0.00167694
-0.00159251
-0.00150989
-0.00142736
-0.00134469
-0.00125975
-0.00117297
-0.00108155
-0.000986945
-0.000885569
-0.00078098
-0.000668407
-0.000554651
-0.000432636
-0.000313715
-0.000186309
-6.79399e-05
-0.00149371
-0.00142948
-0.00136328
-0.00129743
-0.00123241
-0.00116851
-0.00110456
-0.00104044
-0.000974526
-0.000907169
-0.000836267
-0.000762942
-0.000684503
-0.000603596
-0.000516706
-0.000428786
-0.000334726
-0.000242639
-0.000144376
-5.21875e-05
-0.00105967
-0.00101522
-0.000968996
-0.000922674
-0.000876666
-0.000831299
-0.00078581
-0.000740158
-0.0006932
-0.000645202
-0.000594688
-0.000542467
-0.000486657
-0.0004291
-0.000367372
-0.000304845
-0.000238075
-0.000172469
-0.000102725
-3.68144e-05
-0.00063435
-0.000608216
-0.000580875
-0.000553343
-0.000525882
-0.000498743
-0.000471477
-0.000444098
-0.000415898
-0.000387074
-0.000356714
-0.000325347
-0.000291816
-0.000257256
-0.000220201
-0.00018266
-0.000142609
-0.000103161
-6.13652e-05
-2.16856e-05
-0.000215929
-0.000206991
-0.000197564
-0.000188081
-0.000178627
-0.000169302
-0.000159936
-0.000150552
-0.000140885
-0.000131028
-0.000120641
-0.000109938
-9.84937e-05
-8.67311e-05
-7.41283e-05
-6.1385e-05
-4.78306e-05
-3.44621e-05
-2.03827e-05
-6.83889e-06
-0.0467707
-0.0226674
-0.0235585
-0.0177983
-0.015576
-0.0133229
-0.0116275
-0.010208
-0.00901606
-0.00807373
-0.030115
-0.020827
-0.0213001
-0.0173347
-0.0151865
-0.0131672
-0.0115134
-0.0101272
-0.00894617
-0.00788406
-0.021744
-0.0184724
-0.0189932
-0.0165489
-0.0145821
-0.0128091
-0.011282
-0.00996607
-0.00882948
-0.00780716
-0.0148472
-0.0148799
-0.0158097
-0.0149571
-0.0136014
-0.0121811
-0.0108616
-0.0096724
-0.00861344
-0.00765698
-0.0097936
-0.0116054
-0.0128355
-0.0129474
-0.0122624
-0.0112691
-0.0102249
-0.0092183
-0.00828111
-0.00742779
-0.00644092
-0.00904761
-0.0103939
-0.010955
-0.0107728
-0.0101669
-0.00940369
-0.00860639
-0.00782382
-0.00709426
-0.00420031
-0.00710821
-0.00845727
-0.00919485
-0.00932884
-0.0090218
-0.00849691
-0.00789133
-0.00726412
-0.00666073
-0.00269668
-0.00557854
-0.00692334
-0.00771262
-0.00802366
-0.00792776
-0.00758912
-0.00714091
-0.0066488
-0.00615826
-0.00171127
-0.00434878
-0.00569485
-0.00648387
-0.00687743
-0.00692129
-0.00672353
-0.00639977
-0.00601798
-0.00562211
-0.00108224
-0.00337502
-0.00469178
-0.00545664
-0.00587847
-0.00600815
-0.00591427
-0.00568813
-0.00539496
-0.00507695
-0.000692875
-0.00262221
-0.00385666
-0.00458407
-0.00500516
-0.00518262
-0.00516237
-0.00501211
-0.00479011
-0.00453614
-0.000461485
-0.00204255
-0.00315342
-0.00383292
-0.00423711
-0.00443579
-0.0044645
-0.00437189
-0.00420688
-0.00400583
-0.000322777
-0.00159396
-0.00255969
-0.00317999
-0.00355675
-0.0037582
-0.00381613
-0.00376564
-0.00364578
-0.00348847
-0.000233774
-0.00124325
-0.00205793
-0.00260768
-0.00294878
-0.00314032
-0.0032123
-0.0031909
-0.00310612
-0.00298485
-0.000171587
-0.000964248
-0.00163118
-0.00210151
-0.00240011
-0.00257299
-0.0026478
-0.00264489
-0.0025867
-0.00249492
-0.000125252
-0.000736213
-0.00126351
-0.00164915
-0.00189961
-0.00204766
-0.00211725
-0.00212453
-0.00208593
-0.0020182
-8.93921e-05
-0.000543546
-0.000940902
-0.00123971
-0.00143775
-0.00155656
-0.00161527
-0.00162651
-0.00160195
-0.00155382
-6.10395e-05
-0.000375067
-0.000651501
-0.000863439
-0.00100614
-0.0010926
-0.00113663
-0.00114739
-0.00113267
-0.00110073
-3.81287e-05
-0.000222932
-0.000385776
-0.000512011
-0.000597804
-0.00065003
-0.000677024
-0.000684384
-0.00067655
-0.000658286
-1.67842e-05
-7.90752e-05
-0.000133756
-0.000176208
-0.000205019
-0.000222412
-0.000231252
-0.000233491
-0.000230602
-0.000224156
0.00440752
0.00446711
0.00463896
0.00487598
0.00523148
0.00564398
0.00621259
0.00683013
0.00766646
0.00852823
0.00972284
0.0108793
0.0125925
0.0140694
0.0165999
0.0181474
0.0221011
0.0214171
0.0272553
0.00244849
0.00432604
0.00438388
0.00455028
0.00478117
0.00512536
0.00552522
0.006073
0.00666722
0.00746642
0.00828399
0.00940916
0.0104747
0.0120469
0.0133156
0.0155248
0.0165511
0.0195653
0.0178051
0.0189248
0.0017374
0.00422271
0.00427886
0.00443907
0.0046621
0.0049932
0.00537769
0.00590165
0.00646818
0.00722511
0.00799236
0.00903894
0.0100078
0.0114208
0.0124945
0.0143347
0.0149991
0.0169206
0.0151151
0.0129177
0.00470191
0.00409828
0.00415293
0.00430591
0.00452003
0.00483586
0.00520345
0.00569996
0.00623682
0.00694539
0.007661
0.00861862
0.00949551
0.0107304
0.0116441
0.0130798
0.013544
0.0144308
0.0129735
0.00927936
0.0063905
0.00395367
0.0040069
0.00415174
0.00435612
0.00465476
0.00500429
0.0054702
0.00597627
0.00663147
0.00729607
0.008157
0.00895028
0.0099966
0.0107857
0.011821
0.0121854
0.0122831
0.0113434
0.00726178
0.00645375
0.00378986
0.00384172
0.00397763
0.00417158
0.00445143
0.00478202
0.00521486
0.00568958
0.00628791
0.00690297
0.00766348
0.00838134
0.00924122
0.00993002
0.0106173
0.0109193
0.0105222
0.0100129
0.00598237
0.00549549
0.00360794
0.00365838
0.00378475
0.00396768
0.00422751
0.00453845
0.00493653
0.00537955
0.00591943
0.00648629
0.00714747
0.00779546
0.00848446
0.00908418
0.0094986
0.00976887
0.00908206
0.00878578
0.00502911
0.00434045
0.00340907
0.00345797
0.00357433
0.00374573
0.00398474
0.00427535
0.00463791
0.00504881
0.00553068
0.00604994
0.00661745
0.00719832
0.00773987
0.00826051
0.00847319
0.00870945
0.00787346
0.00761664
0.00428487
0.00332999
0.00319446
0.00324157
0.00334769
0.00350705
0.00372488
0.00399443
0.00432161
0.00469977
0.00512584
0.0055976
0.00607995
0.00659639
0.00701572
0.00746319
0.00753341
0.00771728
0.00683377
0.00652391
0.00369805
0.00253182
0.00296536
0.00301033
0.00310615
0.00325299
0.00344967
0.00369743
0.00399003
0.00433485
0.0047084
0.00513291
0.00553977
0.0059941
0.00631505
0.00669177
0.0066674
0.00678529
0.00592644
0.00553647
0.00322196
0.00193572
0.00272303
0.00276541
0.00285106
0.00298492
0.00316076
0.00338605
0.00364534
0.00395634
0.00428122
0.0046589
0.00500002
0.00539431
0.00563802
0.00594624
0.00586488
0.00591402
0.00512643
0.00466573
0.00281367
0.00150559
0.0024687
0.00250805
0.00258375
0.00270423
0.00285972
0.00306199
0.00328944
0.00356636
0.00384652
0.00417807
0.00446252
0.00479923
0.00498349
0.00522735
0.00511739
0.00510438
0.00441258
0.00390793
0.0024438
0.00119817
0.00220365
0.0022395
0.00230552
0.00241233
0.00254803
0.00272686
0.00292398
0.00316681
0.00340598
0.00369251
0.0039282
0.00421055
0.00434974
0.00453557
0.00441714
0.00435486
0.00376652
0.00325062
0.00209751
0.000972909
0.00192912
0.00196106
0.00201769
0.00211059
0.00222707
0.00238221
0.00255042
0.0027594
0.00296088
0.00320387
0.00339743
0.00362933
0.00373458
0.00387046
0.00375666
0.00366118
0.0031733
0.00267784
0.00176954
0.00079795
0.00164635
0.00167402
0.00172153
0.00180037
0.00189816
0.00202949
0.00217002
0.0023456
0.00251214
0.00271341
0.00287011
0.00305598
0.00313551
0.00323044
0.00312895
0.00301702
0.00262154
0.00217274
0.00145905
0.000651458
0.00135661
0.0013797
0.00141832
0.00148301
0.00156254
0.00167005
0.00178391
0.00192667
0.00206046
0.00222194
0.0023458
0.00249024
0.00254976
0.00261284
0.00252762
0.00241471
0.00210259
0.00171927
0.00116561
0.000520346
0.00106114
0.0010794
0.00110933
0.00115981
0.00122144
0.00130516
0.00139312
0.00150365
0.00160633
0.00172991
0.00182381
0.00193118
0.00197448
0.00201406
0.00194685
0.0018459
0.00160945
0.00130333
0.000887676
0.000397621
0.000761182
0.000774446
0.000795823
0.000832066
0.000876047
0.000936031
0.000998639
0.00107746
0.00115017
0.00123749
0.00130337
0.00137743
0.00140683
0.00142991
0.00138133
0.00130219
0.00113589
0.000913484
0.000622756
0.000279465
0.000458004
0.000466101
0.000479031
0.000500969
0.000527496
0.000563726
0.000601384
0.000648822
0.000692367
0.000744578
0.000783739
0.000827249
0.000844253
0.000855976
0.000826306
0.000775745
0.000676272
0.000540857
0.000367757
0.000163912
0.000152907
0.000155651
0.000160106
0.00016751
0.000176567
0.00018877
0.000201597
0.000217528
0.000232345
0.000249794
0.0002631
0.000277462
0.00028321
0.000286636
0.000276537
0.000258803
0.0002251
0.000178806
0.000120241
5.1503e-05
0.00432489
0.00438409
0.00456025
0.00479672
0.00515985
0.00557435
0.0061589
0.0067838
0.00765091
0.00853255
0.00978697
0.0109948
0.0128276
0.014447
0.0172316
0.0192386
0.0237756
0.0250049
0.0336723
0.0208068
0.00438484
0.00444514
0.00462406
0.00486363
0.00523251
0.00565339
0.00624821
0.00688467
0.00776965
0.00867353
0.00996119
0.0112176
0.013119
0.0148635
0.0178077
0.0202038
0.0251321
0.0278811
0.0366509
0.0332765
0.00443363
0.00449487
0.00467572
0.00491795
0.00529095
0.00571716
0.00631934
0.00696538
0.00786323
0.00878549
0.0100973
0.011394
0.0133464
0.0151957
0.0182619
0.0209849
0.026211
0.0301205
0.039107
0.0407321
0.00447119
0.00453307
0.00471526
0.00495937
0.00533521
0.00576515
0.00637233
0.00702503
0.00793154
0.00886658
0.0101946
0.0115196
0.0135063
0.0154304
0.0185795
0.0215374
0.0269569
0.0316674
0.0407073
0.0450338
0.00449741
0.00455968
0.00474257
0.00498778
0.00536515
0.00579718
0.00640696
0.00706326
0.00797415
0.0089159
0.0102521
0.0115917
0.0135957
0.0155588
0.0187501
0.0218307
0.027348
0.0324651
0.0415316
0.0470022
0.00451225
0.00457464
0.0047576
0.00500313
0.00538069
0.00581317
0.00642311
0.00707992
0.00799082
0.00893307
0.010269
0.0116091
0.0136127
0.0155767
0.018768
0.0218512
0.0273725
0.0325009
0.0415859
0.0470966
0.00451569
0.00457796
0.00476034
0.0050054
0.00538183
0.00581312
0.00642077
0.00707497
0.00798153
0.00891808
0.0102454
0.0115719
0.0135573
0.0154839
0.018633
0.0215984
0.0270295
0.0317732
0.0408681
0.0453207
0.00450777
0.00456962
0.00475084
0.00499464
0.00536866
0.0057971
0.0064001
0.00704866
0.0079466
0.00887143
0.010182
0.0114815
0.0134313
0.0152851
0.0183504
0.0210863
0.0263287
0.0302919
0.0393608
0.0412341
0.00448858
0.00454969
0.00472914
0.00497095
0.00534129
0.00576532
0.0063613
0.00700136
0.00788645
0.00879407
0.0100798
0.0113405
0.0132378
0.0149893
0.0179305
0.0203454
0.0252896
0.0281131
0.036975
0.0339679
0.00445813
0.0045184
0.00469515
0.0049347
0.00529957
0.00571841
0.00630418
0.00693419
0.00780091
0.00868822
0.00993914
0.0111539
0.0129795
0.0146102
0.0173868
0.0194203
0.0239677
0.0252786
0.0341545
0.0217333
)
;

boundaryField
{
    inlet
    {
        type            zeroGradient;
    }
    outlet
    {
        type            fixedValue;
        value           uniform 0;
    }
    upAndBottom
    {
        type            empty;
    }
    obstacle
    {
        type            zeroGradient;
    }
}


// ************************************************************************* //
