/*--------------------------------*- C++ -*----------------------------------*\
| =========                 |                                                 |
| \\      /  F ield         | OpenFOAM: The Open Source CFD Toolbox           |
|  \\    /   O peration     | Version:  v1806                                 |
|   \\  /    A nd           | Web:      www.OpenFOAM.com                      |
|    \\/     M anipulation  |                                                 |
\*---------------------------------------------------------------------------*/
FoamFile
{
    version     2.0;
    format      ascii;
    class       surfaceScalarField;
    location    "330";
    object      phi;
}
// * * * * * * * * * * * * * * * * * * * * * * * * * * * * * * * * * * * * * //

dimensions      [0 3 -1 0 0 0 0];
oriented        oriented;


internalField   nonuniform List<scalar> 
13443
(
-1.2486e-07
0.0585389
-0.0500372
0.00913382
-0.0176354
-4.65754e-13
0.0585303
-0.0500274
0.00913506
-0.0176381
1.2486e-07
0.0585303
-0.0500274
0.00913506
-0.0176381
0.0585389
-0.0500372
0.00913382
-0.0176354
-3.14205e-08
0.0552173
-0.00342226
0.0067439
-4.41255e-13
0.0552108
-0.00342231
0.00674171
3.14203e-08
0.0552108
-0.00342231
0.00674171
0.0552173
-0.00342226
0.0067439
-8.90077e-08
-0.00410892
-0.0540889
0.00816072
-1.42834e-13
-0.00410555
-0.0540805
0.00815855
8.9008e-08
-0.00410555
-0.0540805
0.00815855
-0.00410892
-0.0540889
0.00816072
-2.37312e-08
0.00589387
-0.0545899
0.0445871
-1.33174e-13
0.00589141
-0.0545872
0.0445902
2.37314e-08
0.00589141
-0.0545872
0.0445902
0.00589387
-0.0545899
0.0445871
-1.05358e-07
0.0406227
-0.0444683
0.000728231
0.00311752
-6.89075e-13
0.0406279
-0.0444738
0.000729244
0.00311657
1.05356e-07
0.0406279
-0.0444738
0.000729244
0.00311657
0.0406227
-0.0444683
0.000728231
0.00311752
-6.07925e-08
0.02287
0.0187889
-0.00103613
1.72953e-12
0.022874
0.0187868
-0.00103289
6.07961e-08
0.022874
0.0187868
-0.00103289
0.02287
0.0187889
-0.00103613
-1.12677e-07
0.0143681
-0.0194906
-0.0167733
0.021896
-1.42261e-12
0.0143691
-0.0194895
-0.016776
0.0218963
1.12674e-07
0.0143691
-0.0194895
-0.016776
0.0218963
0.0143681
-0.0194906
-0.0167733
0.021896
-1.39118e-08
-0.00413698
0.011913
0.00659205
-2.99026e-12
-0.00413637
0.0119096
0.00659585
1.39012e-08
-0.00413637
0.0119096
0.00659585
-0.00413699
0.011913
0.00659205
2.01804e-08
0.0125247
-0.00949555
-0.0225198
2.10107e-12
0.0125272
-0.00949961
-0.022517
-2.01761e-08
0.0125272
-0.00949961
-0.022517
0.0125247
-0.00949555
-0.0225198
-4.47517e-09
0.00487747
-0.00100082
-0.00387664
1.44202e-12
0.00487702
-0.00100073
-0.0038763
4.4767e-09
0.00487702
-0.00100073
-0.0038763
0.00487747
-0.00100082
-0.00387664
-2.87136e-09
0.00103867
0.0038388
2.27121e-12
0.00103966
0.00383736
2.86994e-09
0.00103966
0.00383736
0.00103867
0.0038388
-5.27432e-09
0.00459554
-0.000912855
-0.00368268
-5.12206e-13
0.00459342
-0.000911997
-0.00368143
5.27813e-09
0.00459342
-0.000911997
-0.00368143
0.00459554
-0.000912855
-0.00368268
-3.41499e-08
0.000918523
0.00367705
-3.57184e-13
0.000917345
0.00367604
3.41494e-08
0.000917345
0.00367604
0.000918523
0.00367705
-7.0603e-09
-0.00830799
-0.00170644
0.00910158
1.23325e-12
-0.00830586
-0.0017067
0.00910056
7.06356e-09
-0.00830586
-0.0017067
0.00910056
-0.00830799
-0.00170644
0.00910158
-2.90256e-08
-0.00364317
-0.00531167
0.00699023
0.00196464
-9.45689e-13
-0.00364193
-0.00531188
0.00698919
0.00196459
2.9022e-08
-0.00364193
-0.00531188
0.00698919
0.00196459
-0.00364317
-0.00531167
0.00699023
0.00196464
-1.18273e-08
-0.00597526
-0.00463757
0.00696968
-6.18262e-13
-0.00597348
-0.00463706
0.00696859
1.18227e-08
-0.00597348
-0.00463706
0.00696859
-0.00597526
-0.00463757
0.00696968
-9.90402e-09
0.00456669
-0.00590694
-0.00463501
-2.0445e-12
0.00456769
-0.00590541
-0.00463578
9.90355e-09
0.00456769
-0.00590541
-0.00463578
0.00456669
-0.00590694
-0.00463501
-9.4204e-09
0.00262625
-0.00337123
-1.56492e-12
0.00262561
-0.00336981
9.42241e-09
0.00262561
-0.00336981
0.00262625
-0.00337123
-7.97449e-09
-0.00157787
-0.00568984
0.00694166
0.000326055
-1.15691e-12
-0.0015773
-0.00568839
0.00694027
0.000325418
7.97541e-09
-0.0015773
-0.00568839
0.00694027
0.000325418
-0.00157787
-0.00568984
0.00694166
0.000326055
-1.85838e-08
-0.00246411
0.00787648
-3.05716e-14
-0.00246342
0.00787529
1.85818e-08
-0.00246342
0.00787529
-0.00246411
0.00787648
-3.04262e-08
0.00758263
0.00122492
-0.00418478
-0.00462274
-4.26911e-12
0.00758057
0.00122528
-0.00418509
-0.00462078
3.04248e-08
0.00758057
0.00122528
-0.00418509
-0.00462078
0.00758263
0.00122492
-0.00418478
-0.00462274
7.36516e-09
0.00119727
0.00647233
-8.69695e-05
1.73642e-12
0.00119641
0.00647186
-8.76908e-05
-7.36877e-09
0.00119641
0.00647186
-8.76908e-05
0.00119727
0.00647233
-8.69696e-05
-2.65771e-08
-0.00548726
-0.000943132
0.00762769
4.23774e-12
-0.00548696
-0.00094252
0.00762586
2.6575e-08
-0.00548696
-0.00094252
0.00762586
-0.00548726
-0.000943132
0.00762769
-1.01109e-08
0.00247386
-0.00140219
-0.00107165
-1.7339e-12
0.00247394
-0.00140143
-0.00107252
1.0106e-08
0.00247394
-0.00140143
-0.00107252
0.00247386
-0.00140219
-0.00107165
-2.48471e-08
0.0036988
-2.48106e-12
0.00369919
2.48451e-08
0.00369919
0.0036988
-1.07083e-08
-0.00244801
0.00442914
0.000645131
-4.52489e-12
-0.00244737
0.00442777
0.000645203
1.07111e-08
-0.00244737
0.00442777
0.000645203
-0.00244801
0.00442914
0.000645131
-3.71997e-10
-0.0027251
-0.0010032
0.00128029
-2.20902e-12
-0.002726
-0.00100218
0.00128082
3.73185e-10
-0.002726
-0.00100218
0.00128082
-0.0027251
-0.0010032
0.00128029
-1.45466e-08
-0.0137445
-0.00708946
0.0150719
0.00576209
-1.62789e-12
-0.0137407
-0.00708868
0.0150705
0.0057588
1.45438e-08
-0.0137407
-0.00708868
0.0150705
0.0057588
-0.0137445
-0.00708946
0.0150719
0.00576209
-1.79766e-08
-0.00995324
-0.0171803
0.0133891
9.15483e-12
-0.00995324
-0.0171753
0.0133879
1.79919e-08
-0.00995324
-0.0171753
0.0133879
-0.00995324
-0.0171803
0.0133891
-4.15179e-08
0.0476617
-0.00717433
-0.051396
0.0109086
-2.01194e-13
0.0476482
-0.00717394
-0.0513886
0.0109143
4.15166e-08
0.0476482
-0.00717394
-0.0513886
0.0109143
0.0476617
-0.00717433
-0.051396
0.0109086
-7.20591e-08
-0.00697347
0.037329
0.0173062
-1.16046e-13
-0.00697709
0.0373172
0.017308
7.20574e-08
-0.00697709
0.0373172
0.017308
-0.00697347
0.037329
0.0173062
-4.13571e-09
-0.0231417
-0.0384541
0.0558571
0.00573868
-2.90608e-13
-0.0231516
-0.038445
0.0558526
0.00574405
4.13523e-09
-0.0231516
-0.038445
0.0558526
0.00574405
-0.0231417
-0.0384541
0.0558571
0.00573868
-2.41484e-08
-0.0305596
-0.0332077
0.0406256
8.36584e-13
-0.0305667
-0.0332014
0.0406165
2.41439e-08
-0.0305667
-0.0332014
0.0406165
-0.0305596
-0.0332077
0.0406256
-1.16958e-07
0.017892
-0.0153205
3.62923e-12
0.0178939
-0.0153201
1.16972e-07
0.0178939
-0.0153201
0.017892
-0.0153205
1.2669e-08
0.00666554
-4.62832e-11
0.00666882
-1.27674e-08
0.00666882
0.00666554
-1.29173e-08
0.000703962
-2.66672e-12
0.00070395
1.29215e-08
0.00070395
0.000703962
-2.56752e-08
-0.00436597
-0.00173033
-2.65819e-12
-0.00436534
-0.0017305
2.56809e-08
-0.00436534
-0.0017305
-0.00436597
-0.00173033
-1.94351e-08
0.0501269
0.00183029
0.00326005
-4.45248e-13
0.0501251
0.00183003
0.00325571
1.94348e-08
0.0501251
0.00183003
0.00325571
0.0501269
0.00183029
0.00326005
-4.72643e-08
0.0043201
0.00133854
3.96397e-13
0.00432033
0.00133085
4.72659e-08
0.00432033
0.00133085
0.0043201
0.00133854
1.26508e-09
-0.00842381
0.0217983
8.44503e-12
-0.00842714
0.0218015
-1.24613e-09
-0.00842714
0.0218015
-0.00842381
0.0217983
5.23613e-09
-0.00592323
-7.80996e-05
0.00163536
-3.0337e-12
-0.00592227
-7.83516e-05
0.00163529
-5.23336e-09
-0.00592227
-7.83516e-05
0.00163529
-0.00592323
-7.80997e-05
0.00163536
-9.95031e-08
0.0222031
-0.0259338
-5.95979e-12
0.0222016
-0.0259319
9.94922e-08
0.0222016
-0.0259319
0.0222031
-0.0259338
-2.44028e-08
-0.0079386
-0.000674138
0.00268953
-1.82765e-12
-0.00793934
-0.000672852
0.00268989
2.43988e-08
-0.00793934
-0.000672852
0.00268989
-0.0079386
-0.000674138
0.00268953
-1.25754e-08
-0.0105218
-0.000535624
0.00311888
-1.80325e-12
-0.0105222
-0.000535833
0.0031187
1.25701e-08
-0.0105222
-0.000535833
0.0031187
-0.0105218
-0.000535624
0.00311888
-1.09297e-08
-0.0121198
-0.000909281
0.00250719
-2.76473e-12
-0.0121199
-0.00090949
0.00250715
1.09266e-08
-0.0121199
-0.00090949
0.00250715
-0.0121198
-0.000909281
0.00250719
-9.30631e-09
-0.0135924
-0.000895414
0.0023681
-3.35844e-12
-0.0135925
-0.000895686
0.00236829
9.30253e-09
-0.0135925
-0.000895686
0.00236829
-0.0135924
-0.000895414
0.0023681
-6.36077e-09
-0.0141519
-0.000678757
0.00123821
-2.75523e-12
-0.014152
-0.00067909
0.00123856
6.35637e-09
-0.014152
-0.00067909
0.00123856
-0.0141519
-0.000678757
0.00123821
-3.56496e-09
-0.0154786
0.000686992
0.000639707
-1.73653e-12
-0.0154789
0.000686736
0.000640212
3.55986e-09
-0.0154789
0.000686736
0.000640212
-0.0154786
0.000686992
0.000639707
-2.07517e-09
0.000765997
0.000891413
-0.017136
-6.34333e-13
0.000766468
0.000890804
-0.0171362
2.06886e-09
0.000766468
0.000890804
-0.0171362
0.000765997
0.000891413
-0.017136
-2.29663e-09
0.0155321
0.00117492
-0.015941
-6.36062e-13
0.0155324
0.00117491
-0.0159409
2.29233e-09
0.0155324
0.00117491
-0.0159409
0.0155321
0.00117492
-0.015941
-2.49008e-09
0.0155068
0.000712305
-1.27052e-12
0.0155068
0.000712334
2.48821e-09
0.0155068
0.000712334
0.0155068
0.000712305
-5.7032e-09
0.0140974
0.000730618
-1.52432e-12
0.0140974
0.000730351
5.70205e-09
0.0140974
0.000730351
0.0140974
0.000730618
-1.12851e-08
0.011939
0.00126302
-1.46147e-12
0.0119386
0.00126303
1.12836e-08
0.0119386
0.00126303
0.011939
0.00126302
-1.45824e-08
0.0100422
0.000987594
-5.39484e-13
0.0100414
0.000987718
1.458e-08
0.0100414
0.000987718
0.0100422
0.000987594
-1.61254e-08
0.00785469
0.00165186
-1.70102e-13
0.00785351
0.00165206
1.61216e-08
0.00785351
0.00165206
0.00785469
0.00165186
-1.39633e-08
0.00582944
0.00135113
-1.93324e-14
0.00582956
0.00135109
1.39606e-08
0.00582956
0.00135109
0.00582944
0.00135113
-3.35478e-08
0.00403626
0.00171511
2.69527e-13
0.00403585
0.00171532
3.35465e-08
0.00403585
0.00171532
0.00403626
0.00171511
-1.54113e-08
0.00166005
0.00137303
-9.71464e-13
0.00166017
0.00137348
1.54084e-08
0.00166017
0.00137348
0.00166005
0.00137303
-6.70198e-09
-0.0060019
-3.01212e-12
-0.00600062
6.70555e-09
-0.00600062
-0.0060019
3.89755e-09
-0.00392693
-1.60966e-13
-0.00392636
-3.89913e-09
-0.00392636
-0.00392693
5.26823e-09
-0.00583651
0.00362468
-3.40813e-12
-0.00583705
0.00362602
-5.26614e-09
-0.00583705
0.00362602
-0.00583651
0.00362468
-1.695e-08
-0.0080752
0.00358984
-2.68914e-12
-0.00807543
0.00358946
1.69519e-08
-0.00807543
0.00358946
-0.0080752
0.00358984
-1.22965e-08
-0.00994285
0.00351952
-2.96612e-12
-0.00994277
0.00351939
1.22978e-08
-0.00994277
0.00351939
-0.00994285
0.00351952
-1.39277e-08
-0.0120612
0.00310598
-2.98414e-12
-0.012061
0.00310593
1.39286e-08
-0.012061
0.00310593
-0.0120612
0.00310598
-9.77484e-09
-0.0132311
0.00243286
-1.99771e-12
-0.0132312
0.00243325
9.77537e-09
-0.0132312
0.00243325
-0.0132311
0.00243286
-7.7363e-09
-0.0147161
0.00221569
-7.4062e-13
-0.0147164
0.00221556
7.73699e-09
-0.0147164
0.00221556
-0.0147161
0.00221569
-3.19199e-09
-0.0154678
0.00146399
3.77831e-13
-0.0154681
0.00146403
3.19205e-09
-0.0154681
0.00146403
-0.0154678
0.00146399
-1.52337e-09
-0.0154497
0.0011568
1.25063e-12
-0.0154499
0.0011567
1.52255e-09
-0.0154499
0.0011567
-0.0154497
0.0011568
-2.35457e-08
0.034228
-0.0287982
6.74261e-13
0.0342246
-0.028799
2.35435e-08
0.0342246
-0.028799
0.034228
-0.0287982
-2.08267e-08
-0.00789707
0.00458472
-2.81304e-12
-0.00789707
0.00458632
2.08252e-08
-0.00789707
0.00458632
-0.00789707
0.00458472
-1.06034e-08
-0.00930089
0.00452271
-1.81875e-12
-0.00930077
0.00452239
1.05997e-08
-0.00930077
0.00452239
-0.00930089
0.00452271
-1.10702e-08
-0.0112375
0.00444378
-2.01253e-12
-0.0112378
0.00444415
1.10688e-08
-0.0112378
0.00444415
-0.0112375
0.00444378
-7.40449e-09
-0.0123887
0.00351937
-2.0623e-12
-0.0123895
0.00351998
7.40388e-09
-0.0123895
0.00351998
-0.0123887
0.00351937
-4.20227e-09
-0.0135961
0.00244555
-1.20012e-12
-0.0135967
0.00244578
4.20132e-09
-0.0135967
0.00244578
-0.0135961
0.00244555
7.30383e-10
-0.0144016
0.00144521
-3.7276e-13
-0.0144022
0.0014457
-7.31599e-10
-0.0144022
0.0014457
-0.0144016
0.00144521
-1.23077e-09
-0.0152707
0.00176052
3.48367e-13
-0.015271
0.0017596
1.22848e-09
-0.015271
0.0017596
-0.0152707
0.00176052
3.59593e-09
-0.00105786
0.00106201
-0.0152748
8.40277e-13
-0.00105728
0.00106135
-0.0152751
-3.60134e-09
-0.00105728
0.00106135
-0.0152751
-0.00105786
0.00106201
-0.0152748
2.82405e-09
-0.00127932
-0.0169145
6.86646e-13
-0.00127886
-0.0169146
-2.82731e-09
-0.00127886
-0.0169146
-0.00127932
-0.0169145
5.98852e-09
-0.000324044
-0.0168963
1.13544e-12
-0.000323741
-0.016896
-5.99043e-09
-0.000323741
-0.016896
-0.000324044
-0.0168963
8.82306e-09
-6.93493e-05
-0.0157044
1.87159e-12
-6.95869e-05
-0.0157041
-8.82371e-09
-6.95869e-05
-0.0157041
-6.93493e-05
-0.0157044
2.07812e-08
-0.0423354
0.0153654
-1.31246e-12
-0.0423298
0.015365
-2.07869e-08
-0.0423298
0.015365
-0.0423354
0.0153654
-5.92844e-08
-0.0485805
9.46852e-13
-0.0485777
5.9284e-08
-0.0485777
-0.0485805
-2.05976e-08
-0.0514348
5.51591e-13
-0.0514314
2.05988e-08
-0.0514314
-0.0514348
-2.01198e-08
-0.0543416
0.00473721
-3.97589e-13
-0.0543367
0.00473533
2.01196e-08
-0.0543367
0.00473533
-0.0543416
0.00473721
-5.82668e-08
-0.0647544
0.00699053
-3.80168e-13
-0.0647476
0.00698852
5.82667e-08
-0.0647476
0.00698852
-0.0647544
0.00699053
-1.53857e-07
-0.0455927
0.00779021
-0.0269518
-3.03206e-13
-0.045588
0.00779232
-0.0269521
1.53858e-07
-0.045588
0.00779232
-0.0269521
-0.0455927
0.00779021
-0.0269518
-7.62825e-08
-0.0558891
0.0161903
5.27951e-14
-0.055881
0.0161843
7.62828e-08
-0.055881
0.0161843
-0.0558891
0.0161903
-8.61887e-08
-0.0046082
0.008141
-0.0594218
-3.93218e-14
-0.00460742
0.00814509
-0.0594187
8.61888e-08
-0.00460742
0.00814509
-0.0594187
-0.0046082
0.008141
-0.0594218
-8.36694e-08
0.000571533
-0.0597695
8.14941e-15
0.000573572
-0.0597683
8.36694e-08
0.000573572
-0.0597683
0.000571533
-0.0597695
-9.82318e-08
0.00598215
-0.0594994
-3.42204e-14
0.00598683
-0.0594938
9.82319e-08
0.00598683
-0.0594938
0.00598215
-0.0594994
-6.87702e-08
0.0556892
0.0102713
-0.0599783
-6.5938e-14
0.0556902
0.0102715
-0.059975
6.87703e-08
0.0556902
0.0102715
-0.059975
0.0556892
0.0102713
-0.0599783
-9.41019e-08
0.055978
0.00787196
-1.42696e-13
0.0559758
0.00787281
9.4102e-08
0.0559758
0.00787281
0.055978
0.00787196
-4.6175e-08
0.0557351
0.00937682
-3.38765e-13
0.0557347
0.00937615
4.61754e-08
0.0557347
0.00937615
0.0557351
0.00937682
-8.92136e-08
0.0533478
0.00913129
-5.92157e-13
0.0533481
0.00912825
8.9214e-08
0.0533481
0.00912825
0.0533478
0.00913129
-1.13444e-07
0.0495589
0.00704909
-5.4043e-13
0.0495545
0.00704917
1.13444e-07
0.0495545
0.00704917
0.0495589
0.00704909
-6.00367e-08
0.0432013
0.00769618
2.79641e-13
0.0431964
0.00768886
6.00357e-08
0.0431964
0.00768886
0.0432013
0.00769618
-7.8494e-08
0.0398329
0.00648601
-4.42622e-12
0.0398285
0.00648439
7.84776e-08
0.0398285
0.00648439
0.0398329
0.00648601
-3.22493e-08
0.0242997
0.00710941
-2.82223e-11
0.0242933
0.00710803
3.21802e-08
0.0242933
0.00710803
0.0242997
0.00710941
-2.07139e-08
0.0135972
-0.00647782
8.78985e-12
0.0135994
-0.0064814
2.07236e-08
0.0135994
-0.0064814
0.0135972
-0.00647782
-4.16717e-08
0.0179722
-0.0260862
0.0215032
-2.9036e-12
0.017977
-0.0260935
0.0215043
4.16667e-08
0.017977
-0.0260935
0.0215043
0.0179722
-0.0260862
0.0215032
-6.20931e-08
0.0250981
0.00794605
1.52658e-11
0.0250975
0.00794997
6.2129e-08
0.0250975
0.00794997
0.0250981
0.00794605
-1.49255e-08
-0.0120342
0.0184319
0.00551536
8.84269e-12
-0.0120369
0.0184315
0.00551501
1.49427e-08
-0.0120369
0.0184315
0.00551501
-0.0120342
0.0184319
0.00551536
5.32045e-09
-0.00410462
0.0139664
-3.0793e-12
-0.00410662
0.013966
-5.32181e-09
-0.00410662
0.013966
-0.00410462
0.0139664
-2.37808e-08
-0.00533969
0.00434165
-1.90614e-12
-0.00533811
0.00434332
2.3792e-08
-0.00533811
0.00434332
-0.00533969
0.00434165
-3.30671e-08
-0.00734461
0.00559479
-2.89343e-12
-0.00734388
0.0055952
3.30731e-08
-0.00734388
0.0055952
-0.00734461
0.00559479
-1.45943e-08
-0.00920364
0.00537856
-2.9559e-12
-0.00920333
0.00537881
1.4599e-08
-0.00920333
0.00537881
-0.00920364
0.00537856
-1.507e-08
-0.0112548
0.0051572
-2.27724e-12
-0.0112547
0.00515728
1.50728e-08
-0.0112547
0.00515728
-0.0112548
0.0051572
-7.05801e-09
-0.0127154
0.00389345
-8.3061e-13
-0.0127152
0.0038938
7.05958e-09
-0.0127152
0.0038938
-0.0127154
0.00389345
-7.00387e-09
-0.0136465
0.00314682
8.17436e-13
-0.0136469
0.00314722
7.00491e-09
-0.0136469
0.00314722
-0.0136465
0.00314682
-1.66597e-09
-0.0140455
0.00186291
2.22254e-12
-0.0140459
0.00186299
1.66678e-09
-0.0140459
0.00186299
-0.0140455
0.00186291
-8.34117e-10
-0.0138148
0.000926107
2.77656e-12
-0.0138155
0.000926335
8.34686e-10
-0.0138155
0.000926335
-0.0138148
0.000926107
6.1173e-09
-0.0135469
-0.000337237
2.87862e-12
-0.0135476
-0.000337496
-6.11715e-09
-0.0135476
-0.000337496
-0.0135469
-0.000337237
-1.47225e-08
-0.0310477
0.0185586
-3.43295e-11
-0.0310435
0.0185494
1.46331e-08
-0.0310435
0.0185494
-0.0310477
0.0185586
-2.08815e-08
-0.0387154
0.0147772
5.1648e-12
-0.0387104
0.0147748
2.08272e-08
-0.0387104
0.0147748
-0.0387154
0.0147772
-1.84791e-08
-0.0456983
0.0134689
2.22023e-11
-0.0456951
0.0134691
1.84857e-08
-0.0456951
0.0134691
-0.0456983
0.0134689
-1.12261e-07
-0.0497825
0.0117805
6.74218e-12
-0.0497848
0.0117785
1.1227e-07
-0.0497848
0.0117785
-0.0497825
0.0117805
-1.50956e-07
-0.0541802
0.0114469
-1.04427e-12
-0.0541836
0.0114479
1.50958e-07
-0.0541836
0.0114479
-0.0541802
0.0114469
-1.2616e-07
-0.0562947
0.0112459
-1.23694e-12
-0.0563005
0.011245
1.26161e-07
-0.0563005
0.011245
-0.0562947
0.0112459
-8.9673e-08
-0.0571217
0.0102039
-5.80029e-13
-0.0571282
0.0102037
8.96736e-08
-0.0571282
0.0102037
-0.0571217
0.0102039
-7.66078e-08
-0.0599319
0.0106823
-2.44319e-13
-0.0599372
0.0106818
7.66079e-08
-0.0599372
0.0106818
-0.0599319
0.0106823
-6.14628e-08
-0.0602654
0.0106048
-8.60013e-14
-0.0602693
0.0106035
6.14628e-08
-0.0602693
0.0106035
-0.0602654
0.0106048
1.47855e-08
0.0203532
0.00977012
-5.385e-14
0.0203544
0.00976356
-1.47855e-08
0.0203544
0.00976356
0.0203532
0.00977012
-7.25814e-08
0.0238963
7.82367e-13
0.0238831
7.25792e-08
0.0238831
0.0238963
-8.61778e-08
-0.0559777
0.00931907
-1.25843e-13
-0.0559776
0.00932422
8.61779e-08
-0.0559776
0.00932422
-0.0559777
0.00931907
-1.00297e-07
-0.0579237
0.00893655
1.12385e-13
-0.0579275
0.00893829
1.00298e-07
-0.0579275
0.00893829
-0.0579237
0.00893655
-5.80758e-08
-0.0606586
0.0105253
9.99909e-14
-0.0606596
0.0105244
5.80762e-08
-0.0606596
0.0105244
-0.0606586
0.0105253
-9.24353e-08
-0.0550902
0.0106219
-3.17463e-14
-0.0550958
0.0106204
9.24358e-08
-0.0550958
0.0106204
-0.0550902
0.0106219
-5.81014e-08
-0.0599419
0.0129928
-7.01045e-14
-0.0599414
0.0129906
5.81015e-08
-0.0599414
0.0129906
-0.0599419
0.0129928
-7.27612e-08
-0.00715891
0.00945888
-0.0622418
-4.27825e-14
-0.00715628
0.00945738
-0.0622426
7.27613e-08
-0.00715628
0.00945738
-0.0622426
-0.00715891
0.00945888
-0.0622418
-7.2339e-08
-0.00388553
-0.0626951
-7.42787e-16
-0.00388254
-0.0626925
7.23391e-08
-0.00388254
-0.0626925
-0.00388553
-0.0626951
-5.48141e-08
0.00055863
-0.0642136
-4.30049e-15
0.00055748
-0.0642083
5.48141e-08
0.00055748
-0.0642083
0.00055863
-0.0642136
-7.07726e-08
0.00430399
-0.0632447
-3.41938e-14
0.00430312
-0.0632395
7.07726e-08
0.00430312
-0.0632395
0.00430399
-0.0632447
-5.9407e-08
0.00795374
-0.0636279
-3.32143e-14
0.00795291
-0.0636248
5.94069e-08
0.00795291
-0.0636248
0.00795374
-0.0636279
-5.18539e-08
0.00962014
-0.0619318
-1.76878e-14
0.00961925
-0.0619356
5.18538e-08
0.00961925
-0.0619356
0.00962014
-0.0619318
-1.02465e-07
-0.0204525
0.00709661
-6.10433e-13
-0.0204359
0.00708831
1.02472e-07
-0.0204359
0.00708831
-0.0204525
0.00709661
-6.7309e-08
-0.0295089
1.81296e-12
-0.0294984
6.7313e-08
-0.0294984
-0.0295089
-7.67222e-09
-0.00642039
0.00637011
-1.14957e-12
-0.00641912
0.00636965
7.67054e-09
-0.00641912
0.00636965
-0.00642039
0.00637011
-1.11764e-08
-0.00827724
0.00637957
-1.14147e-12
-0.00827671
0.00637997
1.11748e-08
-0.00827671
0.00637997
-0.00827724
0.00637957
-8.65421e-09
-0.00964083
0.00580738
-1.13446e-12
-0.00964014
0.00580756
8.65429e-09
-0.00964014
0.00580756
-0.00964083
0.00580738
-2.01747e-09
-0.010935
0.0048135
-5.95786e-13
-0.0109338
0.00481368
2.01772e-09
-0.0109338
0.00481368
-0.010935
0.0048135
-4.03585e-09
-0.0126722
0.00418279
6.09291e-13
-0.0126708
0.00418271
4.03552e-09
-0.0126708
0.00418271
-0.0126722
0.00418279
3.68629e-09
-0.0137732
0.0025462
1.49755e-12
-0.0137715
0.00254644
-3.68669e-09
-0.0137715
0.00254644
-0.0137732
0.0025462
-5.19501e-09
-0.0134644
0.00145178
1.69966e-12
-0.0134641
0.00145218
5.19413e-09
-0.0134641
0.00145218
-0.0134644
0.00145178
-6.43977e-10
-0.0131932
0.000790791
1.48104e-12
-0.0131938
0.000791071
6.41237e-10
-0.0131938
0.000791071
-0.0131932
0.000790791
8.0066e-09
0.000111346
-0.00166768
-0.0116369
1.28451e-12
0.000111023
-0.00166782
-0.011637
-8.01258e-09
0.000111023
-0.00166782
-0.011637
0.000111346
-0.00166768
-0.0116369
5.73186e-09
-0.000596362
-0.0145671
1.13545e-12
-0.0005963
-0.0145677
-5.73487e-09
-0.0005963
-0.0145677
-0.000596362
-0.0145671
7.45044e-09
-0.00101324
-0.0164976
1.37978e-12
-0.00101357
-0.0164973
-7.45213e-09
-0.00101357
-0.0164973
-0.00101324
-0.0164976
8.37027e-09
-0.000888486
-0.0170211
1.82495e-12
-0.000888811
-0.0170207
-8.37135e-09
-0.000888811
-0.0170207
-0.000888486
-0.0170211
8.26113e-09
-0.00114183
-0.015451
2.25142e-12
-0.00114221
-0.0154507
-8.26184e-09
-0.00114221
-0.0154507
-0.00114183
-0.015451
6.80758e-09
-0.00170286
-0.0129859
2.7478e-12
-0.00170292
-0.0129869
-6.80815e-09
-0.00170292
-0.0129869
-0.00170286
-0.0129859
-3.87307e-08
0.0141005
0.0202192
-8.45868e-13
0.0141018
0.0202187
3.87302e-08
0.0141018
0.0202187
0.0141005
0.0202192
-7.70806e-08
0.0255516
0.00698081
-2.28927e-12
0.0255473
0.0069859
7.70802e-08
0.0255473
0.0069859
0.0255516
0.00698081
6.7246e-09
-0.00585513
0.00470951
1.00894e-12
-0.00585449
0.00471085
-6.72228e-09
-0.00585449
0.00471085
-0.00585513
0.00470951
-1.4814e-08
-0.00662891
0.0063686
6.58875e-13
-0.00662966
0.00637035
1.48157e-08
-0.00662966
0.00637035
-0.00662891
0.0063686
-6.87955e-09
-0.00792314
0.00667279
2.51172e-13
-0.00792345
0.0066726
6.88204e-09
-0.00792345
0.0066726
-0.00792314
0.00667279
-9.57087e-09
-0.00915747
0.00639154
1.34028e-13
-0.00915755
0.00639138
9.57293e-09
-0.00915755
0.00639138
-0.00915747
0.00639154
-3.96007e-09
-0.0104288
0.0051648
8.47259e-13
-0.0104287
0.00516495
3.96137e-09
-0.0104287
0.00516495
-0.0104288
0.0051648
-2.80786e-09
-0.0109626
0.00368064
2.01126e-12
-0.0109626
0.00368112
2.80826e-09
-0.0109626
0.00368112
-0.0109626
0.00368064
-7.75653e-10
-0.0114483
0.00234854
2.72743e-12
-0.0114484
0.00234878
7.75649e-10
-0.0114484
0.00234878
-0.0114483
0.00234854
1.85763e-09
-0.0111995
0.000677326
3.26831e-12
-0.0111999
0.000677854
-1.85733e-09
-0.0111999
0.000677854
-0.0111995
0.000677326
6.08153e-09
-0.0105212
-0.00101549
3.07785e-12
-0.0105217
-0.00101568
-6.08081e-09
-0.0105217
-0.00101568
-0.0105212
-0.00101549
7.27916e-09
-0.00944148
-0.00278263
2.51659e-12
-0.00944178
-0.00278287
-7.27899e-09
-0.00944178
-0.00278287
-0.00944148
-0.00278263
-3.25438e-08
-0.0351829
0.0242327
6.8285e-12
-0.0351809
0.0242319
3.25261e-08
-0.0351809
0.0242319
-0.0351829
0.0242327
-6.33483e-08
-0.0414956
0.02109
1.21819e-11
-0.0414905
0.0210844
6.33244e-08
-0.0414905
0.0210844
-0.0414956
0.02109
-7.16349e-08
-0.046276
0.0182493
9.54997e-12
-0.0462684
0.0182469
7.16275e-08
-0.0462684
0.0182469
-0.046276
0.0182493
-1.41807e-07
-0.0505581
0.0160628
1.85918e-12
-0.0505598
0.0160697
1.41806e-07
-0.0505598
0.0160697
-0.0505581
0.0160628
-1.33868e-07
-0.0541838
0.0150727
-1.38831e-12
-0.0541877
0.0150757
1.33868e-07
-0.0541877
0.0150757
-0.0541838
0.0150727
-9.55103e-08
-0.0573279
0.0143901
-1.07482e-12
-0.0573331
0.0143903
9.5511e-08
-0.0573331
0.0143903
-0.0573279
0.0143901
-8.34063e-08
-0.0603195
0.0131956
-5.17667e-13
-0.0603255
0.013196
8.34067e-08
-0.0603255
0.013196
-0.0603195
0.0131956
-7.61541e-08
-0.0608239
0.0111868
-1.95715e-13
-0.0608306
0.0111869
7.61542e-08
-0.0608306
0.0111869
-0.0608239
0.0111868
-5.78651e-08
-0.0616984
0.0114794
-6.98325e-14
-0.0617052
0.0114781
5.7865e-08
-0.0617052
0.0114781
-0.0616984
0.0114794
-4.58218e-08
-0.0629742
0.010896
-3.56829e-14
-0.0629804
0.0108944
4.58216e-08
-0.0629804
0.0108944
-0.0629742
0.010896
-2.34171e-08
-0.0288233
0.0195153
0.0295272
5.62295e-13
-0.0288172
0.0195063
0.0295296
2.34149e-08
-0.0288172
0.0195063
0.0295296
-0.0288233
0.0195153
0.0295272
-9.35627e-08
-0.0416193
0.0225662
2.4822e-13
-0.0416131
0.0225593
9.35613e-08
-0.0416131
0.0225593
-0.0416193
0.0225662
-1.37887e-07
-0.0406025
0.0228796
7.72659e-13
-0.0406079
0.0228778
1.37887e-07
-0.0406079
0.0228778
-0.0406025
0.0228796
-4.70973e-08
-0.0461089
0.0228126
3.60439e-13
-0.0461125
0.0228126
4.70977e-08
-0.0461125
0.0228126
-0.0461089
0.0228126
-3.10656e-08
0.0378514
0.00721556
-3.00654e-13
0.0378446
0.00720887
3.10649e-08
0.0378446
0.00720887
0.0378514
0.00721556
-1.66954e-08
-0.0528858
0.0176855
-6.65506e-14
-0.0528874
0.0176891
1.66955e-08
-0.0528874
0.0176891
-0.0528858
0.0176855
-4.84037e-08
-0.0563087
0.012742
1.20304e-13
-0.0563158
0.0127526
4.84041e-08
-0.0563158
0.0127526
-0.0563087
0.012742
-7.89684e-08
-0.0579566
0.0105846
2.07408e-13
-0.0579638
0.0105862
7.89687e-08
-0.0579638
0.0105862
-0.0579566
0.0105846
-7.32299e-08
-0.0599988
0.0125676
1.2712e-13
-0.0600044
0.0125649
7.32302e-08
-0.0600044
0.0125649
-0.0599988
0.0125676
-7.02481e-08
-0.0621112
0.0127343
-3.47214e-15
-0.0621165
0.0127324
7.02484e-08
-0.0621165
0.0127324
-0.0621112
0.0127343
-6.56547e-08
-0.0605235
0.0114052
-1.15817e-14
-0.0605299
0.0114039
6.56548e-08
-0.0605299
0.0114039
-0.0605235
0.0114052
-5.77243e-08
-0.0632619
0.0121973
1.2836e-14
-0.0632671
0.0121946
5.77243e-08
-0.0632671
0.0121946
-0.0632619
0.0121973
-5.17716e-08
-0.0079928
0.0090571
-0.0643262
-3.9154e-15
-0.00799216
0.00905491
-0.0643299
5.17716e-08
-0.00799216
0.00905491
-0.0643299
-0.0079928
0.0090571
-0.0643262
-6.09737e-08
-0.0049871
-0.0652474
1.75509e-15
-0.00498753
-0.0652473
6.09737e-08
-0.00498753
-0.0652473
-0.0049871
-0.0652474
-6.49041e-08
-0.00233684
-0.0653453
4.33903e-15
-0.00233688
-0.0653432
6.49041e-08
-0.00233688
-0.0653432
-0.00233684
-0.0653453
-6.32349e-08
-3.16552e-05
-0.0665187
1.48494e-15
-3.06211e-05
-0.0665147
6.32347e-08
-3.06211e-05
-0.0665147
-3.16552e-05
-0.0665187
-5.80463e-08
0.00326507
-0.0665414
-2.36576e-14
0.00326632
-0.0665365
5.80461e-08
0.00326632
-0.0665365
0.00326507
-0.0665414
-5.35152e-08
0.00457912
-0.0649419
-3.95625e-14
0.00458068
-0.0649392
5.3515e-08
0.00458068
-0.0649392
0.00457912
-0.0649419
-4.18427e-08
0.00757756
-0.0649302
-4.40349e-14
0.00757709
-0.0649321
4.18425e-08
0.00757709
-0.0649321
0.00757756
-0.0649302
-3.78229e-08
0.00963498
-0.0650316
-5.11582e-14
0.00963333
-0.0650367
3.78227e-08
0.00963333
-0.0650367
0.00963498
-0.0650316
-1.14305e-08
-0.00552394
0.0072565
-1.1631e-12
-0.0055233
0.00725588
1.14291e-08
-0.0055233
0.00725588
-0.00552394
0.0072565
-1.04037e-08
-0.00723073
0.00808636
-1.11197e-12
-0.00722922
0.00808588
1.04034e-08
-0.00722922
0.00808588
-0.00723073
0.00808636
-5.58526e-09
-0.00832963
0.00690629
-6.74036e-13
-0.00832922
0.00690756
5.58676e-09
-0.00832922
0.00690756
-0.00832963
0.00690629
-4.65434e-09
-0.00943973
0.0059236
5.44469e-13
-0.00943921
0.00592366
4.6555e-09
-0.00943921
0.00592366
-0.00943973
0.0059236
-3.02372e-09
-0.0099192
0.00466226
1.97057e-12
-0.0099189
0.0046624
3.02388e-09
-0.0099189
0.0046624
-0.0099192
0.00466226
5.33613e-09
-0.0104195
0.00304651
2.96381e-12
-0.0104188
0.00304631
-5.33615e-09
-0.0104188
0.00304631
-0.0104195
0.00304651
-9.1172e-10
-0.0104762
0.00150842
2.76654e-12
-0.0104759
0.0015093
9.1126e-10
-0.0104759
0.0015093
-0.0104762
0.00150842
2.03774e-09
-0.00929482
-0.000390549
1.93975e-12
-0.00929514
-0.000389675
-2.03874e-09
-0.00929514
-0.000389675
-0.00929482
-0.000390549
9.91645e-09
-0.0081956
-0.00276691
1.17409e-12
-0.00819579
-0.00276715
-9.91936e-09
-0.00819579
-0.00276715
-0.0081956
-0.00276691
8.22223e-09
0.00345747
-0.00656934
-0.00508373
9.01913e-13
0.00345713
-0.00656984
-0.00508308
-8.22784e-09
0.00345713
-0.00656984
-0.00508308
0.00345747
-0.00656934
-0.00508373
1.20368e-08
0.001894
-0.0100734
1.07633e-13
0.00189389
-0.0100738
-1.20398e-08
0.00189389
-0.0100738
0.001894
-0.0100734
1.15915e-08
0.000654387
-0.0133275
8.02407e-13
0.000653969
-0.0133278
-1.15927e-08
0.000653969
-0.0133278
0.000654387
-0.0133275
1.06246e-08
-0.00018352
-0.0156597
1.32316e-12
-0.000183716
-0.0156596
-1.06249e-08
-0.000183716
-0.0156596
-0.00018352
-0.0156597
1.01766e-08
-0.000974654
-0.01623
2.22637e-12
-0.000974661
-0.0162298
-1.01763e-08
-0.000974661
-0.0162298
-0.000974654
-0.01623
8.18743e-09
-0.00173445
-0.0146913
2.47017e-12
-0.00173351
-0.0146918
-8.18702e-09
-0.00173351
-0.0146918
-0.00173445
-0.0146913
8.79307e-09
-0.00342707
-0.0112933
2.71264e-12
-0.00342618
-0.0112942
-8.79299e-09
-0.00342618
-0.0112942
-0.00342707
-0.0112933
1.04964e-08
-0.00492426
-0.0079443
2.73342e-12
-0.00492354
-0.00794441
-1.04967e-08
-0.00492354
-0.00794441
-0.00492426
-0.0079443
1.33974e-08
0.00614016
-0.00463338
-0.00643106
2.46601e-12
0.00614069
-0.00463343
-0.00643079
-1.34e-08
0.00614069
-0.00463343
-0.00643079
0.00614016
-0.00463338
-0.00643106
9.30233e-09
0.00728278
-0.00392527
1.84933e-12
0.00728268
-0.00392485
-9.30175e-09
0.00728268
-0.00392485
0.00728278
-0.00392527
6.32172e-09
0.00791403
-0.00164674
2.06032e-12
0.00791392
-0.00164691
-6.32051e-09
0.00791392
-0.00164691
0.00791403
-0.00164674
2.50186e-09
0.0081443
0.00044706
2.23571e-12
0.00814437
0.00044741
-2.50045e-09
0.00814437
0.00044741
0.0081443
0.00044706
-2.32979e-10
0.0080981
0.00239473
2.81955e-12
0.00809818
0.00239497
2.3505e-10
0.00809818
0.00239497
0.0080981
0.00239473
-1.09579e-09
0.00750939
0.00426935
3.33061e-12
0.00750913
0.00427016