/*--------------------------------*- C++ -*----------------------------------*\
| =========                 |                                                 |
| \\      /  F ield         | OpenFOAM: The Open Source CFD Toolbox           |
|  \\    /   O peration     | Version:  v1806                                 |
|   \\  /    A nd           | Web:      www.OpenFOAM.com                      |
|    \\/     M anipulation  |                                                 |
\*---------------------------------------------------------------------------*/
FoamFile
{
    version     2.0;
    format      ascii;
    class       volVectorField;
    location    "470";
    object      U;
}
// * * * * * * * * * * * * * * * * * * * * * * * * * * * * * * * * * * * * * //

dimensions      [0 1 -1 0 0 0 0];


internalField   nonuniform List<vector> 
2400
(
(0.299999 -0.00131762 0)
(0.299991 -0.00400951 0)
(0.299967 -0.00668772 0)
(0.299931 -0.00949704 0)
(0.299874 -0.0123179 0)
(0.299798 -0.0153477 0)
(0.299703 -0.0183947 0)
(0.299584 -0.0217144 0)
(0.299453 -0.0250315 0)
(0.299295 -0.0286468 0)
(0.299143 -0.0322082 0)
(0.298973 -0.0360132 0)
(0.298842 -0.0396761 0)
(0.298723 -0.0434016 0)
(0.298692 -0.0468513 0)
(0.298734 -0.0500455 0)
(0.298917 -0.0527693 0)
(0.299255 -0.0548668 0)
(0.299773 -0.0562469 0)
(0.30049 -0.0567477 0)
(0.299998 -0.00131247 0)
(0.299976 -0.00399788 0)
(0.299927 -0.0066621 0)
(0.299857 -0.00946542 0)
(0.299757 -0.0122666 0)
(0.299633 -0.0152935 0)
(0.299483 -0.0183141 0)
(0.299309 -0.0216391 0)
(0.299122 -0.0249236 0)
(0.298914 -0.0285603 0)
(0.298729 -0.0320888 0)
(0.298537 -0.0359409 0)
(0.298428 -0.0395864 0)
(0.298353 -0.0433911 0)
(0.298443 -0.0468667 0)
(0.298646 -0.0501698 0)
(0.299084 -0.0529879 0)
(0.299735 -0.0552122 0)
(0.300632 -0.056735 0)
(0.301774 -0.0573578 0)
(0.299997 -0.00130233 0)
(0.299961 -0.00397477 0)
(0.299882 -0.00661462 0)
(0.299771 -0.00940892 0)
(0.299614 -0.0121796 0)
(0.299428 -0.0152063 0)
(0.299203 -0.0181882 0)
(0.298955 -0.0215309 0)
(0.298691 -0.0247688 0)
(0.298412 -0.0284555 0)
(0.298173 -0.0319356 0)
(0.29794 -0.0358854 0)
(0.297844 -0.0395002 0)
(0.297799 -0.0434562 0)
(0.298019 -0.046955 0)
(0.298382 -0.0504431 0)
(0.299106 -0.0533707 0)
(0.300095 -0.0557648 0)
(0.301424 -0.0574501 0)
(0.303058 -0.0581814 0)
(0.299995 -0.0012873 0)
(0.299946 -0.00393993 0)
(0.299835 -0.00654506 0)
(0.299682 -0.00932679 0)
(0.299464 -0.012056 0)
(0.299211 -0.0150846 0)
(0.298905 -0.018015 0)
(0.298573 -0.0213881 0)
(0.298221 -0.0245627 0)
(0.297859 -0.0283298 0)
(0.297552 -0.0317392 0)
(0.29726 -0.0358444 0)
(0.297162 -0.0394001 0)
(0.297126 -0.0435974 0)
(0.297471 -0.0470926 0)
(0.297967 -0.0508717 0)
(0.298989 -0.0539046 0)
(0.300303 -0.0565449 0)
(0.302093 -0.0584202 0)
(0.304247 -0.0592708 0)
(0.299994 -0.00126758 0)
(0.299931 -0.00389306 0)
(0.299788 -0.00645326 0)
(0.29959 -0.00921737 0)
(0.29931 -0.0118938 0)
(0.298987 -0.0149244 0)
(0.298594 -0.0177893 0)
(0.298174 -0.0212031 0)
(0.297724 -0.0242953 0)
(0.297268 -0.0281734 0)
(0.296878 -0.0314826 0)
(0.296512 -0.035809 0)
(0.296394 -0.0392599 0)
(0.296337 -0.0438132 0)
(0.296797 -0.0472458 0)
(0.297386 -0.0514703 0)
(0.298725 -0.0545652 0)
(0.300335 -0.0575825 0)
(0.30263 -0.0596616 0)
(0.305329 -0.0606604 0)
(0.299994 -0.00124336 0)
(0.299915 -0.00383356 0)
(0.29974 -0.00633916 0)
(0.299497 -0.0090791 0)
(0.299153 -0.0116921 0)
(0.298757 -0.0147222 0)
(0.298273 -0.0175085 0)
(0.297758 -0.0209705 0)
(0.297199 -0.0239606 0)
(0.296639 -0.027979 0)
(0.296149 -0.0311533 0)
(0.295688 -0.0357733 0)
(0.295527 -0.039056 0)
(0.295417 -0.0441077 0)
(0.295978 -0.0473761 0)
(0.29661 -0.0522646 0)
(0.298291 -0.0553112 0)
(0.300145 -0.0589226 0)
(0.303024 -0.0611727 0)
(0.306283 -0.0623844 0)
(0.299994 -0.00121481 0)
(0.299898 -0.00376067 0)
(0.299692 -0.0062028 0)
(0.2994 -0.0089103 0)
(0.298993 -0.0114505 0)
(0.298517 -0.0144747 0)
(0.29794 -0.0171709 0)
(0.297321 -0.0206841 0)
(0.296645 -0.0235539 0)
(0.295966 -0.0277373 0)
(0.295355 -0.0307402 0)
(0.294777 -0.0357275 0)
(0.294545 -0.0387641 0)
(0.294344 -0.0444813 0)
(0.294986 -0.0474378 0)
(0.295598 -0.0532854 0)
(0.297656 -0.0560804 0)
(0.299675 -0.0606371 0)
(0.303264 -0.0629287 0)
(0.30707 -0.0645049 0)
(0.299995 -0.00118215 0)
(0.29988 -0.00367357 0)
(0.299645 -0.00604433 0)
(0.299299 -0.00870902 0)
(0.29883 -0.011169 0)
(0.298267 -0.0141776 0)
(0.297595 -0.0167755 0)
(0.296859 -0.0203357 0)
(0.296059 -0.0230717 0)
(0.295241 -0.0274347 0)
(0.294491 -0.030234 0)
(0.293768 -0.0356547 0)
(0.293429 -0.0383618 0)
(0.293098 -0.0449254 0)
(0.293788 -0.0473829 0)
(0.294309 -0.0545631 0)
(0.296782 -0.056793 0)
(0.29885 -0.0628275 0)
(0.303335 -0.0648707 0)
(0.30763 -0.0671366 0)
(0.299998 -0.00114552 0)
(0.29986 -0.00357143 0)
(0.2996 -0.0058639 0)
(0.299191 -0.00847319 0)
(0.298667 -0.0108473 0)
(0.298003 -0.0138262 0)
(0.297242 -0.0163217 0)
(0.296368 -0.0199151 0)
(0.295444 -0.0225118 0)
(0.294458 -0.0270526 0)
(0.293553 -0.0296285 0)
(0.29265 -0.0355278 0)
(0.292164 -0.0378327 0)
(0.291659 -0.0454173 0)
(0.292347 -0.047168 0)
(0.292702 -0.0561166 0)
(0.295619 -0.0573589 0)
(0.297584 -0.0656149 0)
(0.303222 -0.0669027 0)
(0.307869 -0.0704709 0)
(0.300003 -0.00110501 0)
(0.299836 -0.00345356 0)
(0.299558 -0.00566161 0)
(0.299077 -0.00820082 0)
(0.298505 -0.0104857 0)
(0.297723 -0.0134152 0)
(0.296885 -0.0158092 0)
(0.295843 -0.0194104 0)
(0.294806 -0.0218738 0)
(0.293608 -0.0265669 0)
(0.292545 -0.0289224 0)
(0.291408 -0.0353074 0)
(0.290739 -0.03717 0)
(0.29001 -0.0459139 0)
(0.29062 -0.0467623 0)
(0.290745 -0.0579438 0)
(0.294106 -0.0576882 0)
(0.295772 -0.0691192 0)
(0.302906 -0.0689015 0)
(0.307656 -0.0747836 0)
(0.30001 -0.00106055 0)
(0.299808 -0.00331957 0)
(0.29952 -0.00543735 0)
(0.298953 -0.0078904 0)
(0.298349 -0.0100837 0)
(0.297423 -0.0129401 0)
(0.296532 -0.0152378 0)
(0.295276 -0.0188094 0)
(0.294157 -0.0211581 0)
(0.292674 -0.0259494 0)
(0.291483 -0.0281187 0)
(0.290019 -0.0349393 0)
(0.289154 -0.03638 0)
(0.288129 -0.0463422 0)
(0.288557 -0.0461585 0)
(0.288428 -0.060012 0)
(0.292143 -0.0577007 0)
(0.293316 -0.073446 0)
(0.302384 -0.0707277 0)
(0.306774 -0.0804106 0)
(0.30002 -0.0010119 0)
(0.299776 -0.00316949 0)
(0.299487 -0.00519067 0)
(0.29882 -0.00754134 0)
(0.298202 -0.00964037 0)
(0.297102 -0.0123977 0)
(0.29619 -0.0146059 0)
(0.294662 -0.0181017 0)
(0.293516 -0.0203644 0)
(0.291641 -0.0251706 0)
(0.2904 -0.0272232 0)
(0.288443 -0.0343539 0)
(0.287443 -0.0354833 0)
(0.285962 -0.0465851 0)
(0.286123 -0.0453874 0)
(0.285755 -0.0622362 0)
(0.289549 -0.0573442 0)
(0.290206 -0.0787101 0)
(0.301636 -0.0722153 0)
(0.304828 -0.0876869 0)
(0.300032 -0.000958664 0)
(0.299741 -0.00300385 0)
(0.29946 -0.00492074 0)
(0.298678 -0.00715416 0)
(0.298065 -0.00915385 0)
(0.296761 -0.0117874 0)
(0.295867 -0.0139098 0)
(0.293998 -0.0172815 0)
(0.292903 -0.0194877 0)
(0.290492 -0.024207 0)
(0.28934 -0.0262379 0)
(0.286625 -0.0334755 0)
(0.285688 -0.0345111 0)
(0.283387 -0.0464668 0)
(0.283367 -0.0445342 0)
(0.282653 -0.0644179 0)
(0.286065 -0.0566493 0)
(0.286663 -0.0850598 0)
(0.300398 -0.0731191 0)
(0.30126 -0.0969424 0)
(0.300045 -0.000900435 0)
(0.299703 -0.00282353 0)
(0.299435 -0.00462658 0)
(0.298532 -0.00673046 0)
(0.297937 -0.00862137 0)
(0.296407 -0.0111113 0)
(0.295563 -0.0131428 0)
(0.293293 -0.0163498 0)
(0.292326 -0.0185152 0)
(0.289227 -0.02305 0)
(0.288344 -0.0251486 0)
(0.284519 -0.0322483 0)
(0.284007 -0.0334841 0)
(0.280215 -0.0457687 0)
(0.280495 -0.0437396 0)
(0.278786 -0.0661427 0)
(0.281561 -0.0558462 0)
(0.283027 -0.0925463 0)
(0.297728 -0.0730691 0)
(0.295937 -0.108884 0)
(0.300058 -0.00083696 0)
(0.299666 -0.00262953 0)
(0.299411 -0.00430748 0)
(0.29839 -0.00627235 0)
(0.297813 -0.00804039 0)
(0.296055 -0.0103735 0)
(0.295268 -0.0122969 0)
(0.292575 -0.0153139 0)
(0.291774 -0.0174256 0)
(0.287885 -0.0217098 0)
(0.287416 -0.0239117 0)
(0.282139 -0.0306675 0)
(0.28249 -0.0323612 0)
(0.276287 -0.0443368 0)
(0.277849 -0.0431368 0)
(0.273456 -0.0667346 0)
(0.276485 -0.0554885 0)
(0.278968 -0.100633 0)
(0.291929 -0.0718326 0)
(0.290616 -0.125353 0)
(0.300067 -0.000768345 0)
(0.299635 -0.00242258 0)
(0.299383 -0.00396362 0)
(0.298259 -0.00578172 0)
(0.297684 -0.00740993 0)
(0.295724 -0.0095778 0)
(0.294967 -0.0113659 0)
(0.291884 -0.0141824 0)
(0.291213 -0.0161968 0)
(0.286548 -0.0202082 0)
(0.286488 -0.0224615 0)
(0.279618 -0.0287813 0)
(0.281075 -0.0309949 0)
(0.271661 -0.0421999 0)
(0.275651 -0.0426436 0)
(0.265956 -0.0655904 0)
(0.27201 -0.0563469 0)
(0.272303 -0.107608 0)
(0.282122 -0.0702667 0)
(0.289318 -0.149684 0)
(0.300071 -0.000695136 0)
(0.299612 -0.002203 0)
(0.299348 -0.00359644 0)
(0.298149 -0.00525961 0)
(0.297544 -0.00673181 0)
(0.295436 -0.00872627 0)
(0.294643 -0.0103498 0)
(0.291271 -0.01296 0)
(0.290597 -0.0148176 0)
(0.285331 -0.0185607 0)
(0.285446 -0.0207426 0)
(0.277217 -0.0266496 0)
(0.279489 -0.0291793 0)
(0.266803 -0.0395459 0)
(0.273554 -0.0417498 0)
(0.256405 -0.0627826 0)
(0.268961 -0.0587293 0)
(0.25934 -0.110758 0)
(0.271118 -0.0715394 0)
(0.293362 -0.184147 0)
(0.30007 -0.000618255 0)
(0.2996 -0.00197073 0)
(0.299304 -0.00320859 0)
(0.298064 -0.00470626 0)
(0.29739 -0.00601091 0)
(0.295203 -0.00781855 0)
(0.294289 -0.0092558 0)
(0.290768 -0.0116443 0)
(0.289904 -0.0132953 0)
(0.284331 -0.0167625 0)
(0.284194 -0.0187442 0)
(0.275213 -0.0242818 0)
(0.277388 -0.0267844 0)
(0.262505 -0.0365259 0)
(0.27052 -0.0397599 0)
(0.246366 -0.0589941 0)
(0.265919 -0.0611077 0)
(0.238543 -0.108718 0)
(0.264581 -0.0811977 0)
(0.293007 -0.223711 0)
(0.300065 -0.00053886 0)
(0.299596 -0.00172568 0)
(0.299253 -0.00280359 0)
(0.298004 -0.0041219 0)
(0.297228 -0.00525424 0)
(0.295026 -0.00685369 0)
(0.293917 -0.00809676 0)
(0.290385 -0.0102292 0)
(0.289152 -0.0116534 0)
(0.283579 -0.0147917 0)
(0.282745 -0.0165068 0)
(0.273744 -0.0216182 0)
(0.274645 -0.0238457 0)
(0.259384 -0.0330506 0)
(0.265582 -0.0363609 0)
(0.23836 -0.0546651 0)
(0.25889 -0.0605244 0)
(0.214388 -0.103174 0)
(0.260461 -0.10126 0)
(0.267828 -0.255055 0)
(0.300056 -0.000457871 0)
(0.2996 -0.00146891 0)
(0.299201 -0.00238463 0)
(0.297964 -0.00350888 0)
(0.297071 -0.00446819 0)
(0.294897 -0.00583485 0)
(0.293555 -0.00688488 0)
(0.290102 -0.00871621 0)
(0.288404 -0.00991657 0)
(0.283036 -0.0126379 0)
(0.281237 -0.0140862 0)
(0.27273 -0.018595 0)
(0.271544 -0.0205014 0)
(0.2574 -0.0288606 0)
(0.258956 -0.031822 0)
(0.233615 -0.0491631 0)
(0.244923 -0.0556871 0)
(0.1958 -0.0957811 0)
(0.238984 -0.119785 0)
(0.196758 -0.256271 0)
(0.30143 -0.0563248 0)
(0.302602 -0.0547869 0)
(0.303888 -0.0522472 0)
(0.305193 -0.0489382 0)
(0.306455 -0.0451189 0)
(0.307636 -0.0409945 0)
(0.30872 -0.0367074 0)
(0.309691 -0.0323752 0)
(0.310553 -0.0280798 0)
(0.311302 -0.0238772 0)
(0.303163 -0.0570552 0)
(0.304772 -0.0555933 0)
(0.306403 -0.0530713 0)
(0.307917 -0.0497406 0)
(0.309261 -0.0458726 0)
(0.310428 -0.0416803 0)
(0.31143 -0.0373159 0)
(0.312267 -0.0329063 0)
(0.312964 -0.0285373 0)
(0.313532 -0.024269 0)
(0.304975 -0.0579773 0)
(0.307127 -0.0565311 0)
(0.30921 -0.0539454 0)
(0.311033 -0.0505206 0)
(0.312557 -0.0465494 0)
(0.313804 -0.0422504 0)
(0.314806 -0.0377854 0)
(0.315581 -0.0332876 0)
(0.316173 -0.0288439 0)
(0.316606 -0.024512 0)
(0.30673 -0.0591764 0)
(0.309484 -0.0577018 0)
(0.312059 -0.0549855 0)
(0.314215 -0.0514055 0)
(0.31594 -0.0472776 0)
(0.317289 -0.0428259 0)
(0.318317 -0.0382242 0)
(0.319059 -0.0336124 0)
(0.319579 -0.029076 0)
(0.319915 -0.0246698 0)
(0.308426 -0.0607017 0)
(0.311854 -0.0591439 0)
(0.314954 -0.0562249 0)
(0.317446 -0.0524282 0)
(0.319371 -0.0480887 0)
(0.320819 -0.043438 0)
(0.321866 -0.038666 0)
(0.322572 -0.0339178 0)
(0.323026 -0.0292736 0)
(0.323273 -0.0247838 0)
(0.310069 -0.0625936 0)
(0.314268 -0.0608724 0)
(0.317923 -0.0576688 0)
(0.320749 -0.0535884 0)
(0.322865 -0.0489759 0)
(0.324398 -0.0440771 0)
(0.325451 -0.0391031 0)
(0.32611 -0.0341982 0)
(0.326488 -0.029434 0)
(0.326641 -0.0248536 0)
(0.311672 -0.0649022 0)
(0.316769 -0.0629015 0)
(0.320998 -0.0593248 0)
(0.324148 -0.0548863 0)
(0.326447 -0.0499316 0)
(0.328052 -0.0447338 0)
(0.329093 -0.0395274 0)
(0.32969 -0.0344468 0)
(0.329976 -0.0295502 0)
(0.330012 -0.0248717 0)
(0.313269 -0.067685 0)
(0.319404 -0.0652414 0)
(0.32421 -0.0612031 0)
(0.327679 -0.0563224 0)
(0.330159 -0.0509486 0)
(0.331824 -0.0454004 0)
(0.332833 -0.0399324 0)
(0.333339 -0.0346542 0)
(0.333486 -0.0296091 0)
(0.333345 -0.0248201 0)
(0.314921 -0.0709977 0)
(0.322218 -0.0679003 0)
(0.327593 -0.0633193 0)
(0.331406 -0.0578995 0)
(0.334084 -0.0520222 0)
(0.335789 -0.0460697 0)
(0.336713 -0.0403041 0)
(0.337038 -0.0347946 0)
(0.336921 -0.0295735 0)
(0.33645 -0.0246506 0)
(0.316719 -0.0748753 0)
(0.325262 -0.070906 0)
(0.331232 -0.0657095 0)
(0.335477 -0.0596283 0)
(0.338362 -0.0531474 0)
(0.340013 -0.0467182 0)
(0.340671 -0.0405938 0)
(0.340568 -0.0347914 0)
(0.339889 -0.0293474 0)
(0.338768 -0.0242528 0)
(0.318773 -0.0793037 0)
(0.328651 -0.0743643 0)
(0.335365 -0.068459 0)
(0.34015 -0.0615229 0)
(0.343092 -0.0542846 0)
(0.344334 -0.0472505 0)
(0.344242 -0.0406523 0)
(0.343155 -0.0344558 0)
(0.34134 -0.0287259 0)
(0.339022 -0.0234176 0)
(0.321301 -0.0842523 0)
(0.332742 -0.0785389 0)
(0.340454 -0.0716858 0)
(0.345598 -0.0635257 0)
(0.347914 -0.0552501 0)
(0.347825 -0.0473781 0)
(0.345975 -0.0401268 0)
(0.342931 -0.0334171 0)
(0.33911 -0.0273584 0)
(0.33487 -0.0218283 0)
(0.325013 -0.0899603 0)
(0.338274 -0.0838295 0)
(0.346827 -0.0753261 0)
(0.351136 -0.0652742 0)
(0.351089 -0.0554937 0)
(0.347916 -0.046461 0)
(0.342726 -0.0383829 0)
(0.336451 -0.0311143 0)
(0.329662 -0.0247889 0)
(0.322853 -0.0191319 0)
(0.331657 -0.0971238 0)
(0.345819 -0.0904499 0)
(0.353297 -0.0786293 0)
(0.353698 -0.065707 0)
(0.348271 -0.053883 0)
(0.339614 -0.0434664 0)
(0.329354 -0.0345913 0)
(0.318812 -0.0269559 0)
(0.308545 -0.0206444 0)
(0.299116 -0.0151284 0)
(0.343424 -0.106431 0)
(0.353329 -0.0976035 0)
(0.354861 -0.0795321 0)
(0.346294 -0.0628772 0)
(0.331963 -0.0488286 0)
(0.315847 -0.037287 0)
(0.299766 -0.028121 0)
(0.285154 -0.0207085 0)
(0.272149 -0.0149797 0)
(0.261219 -0.0100493 0)
(0.359198 -0.117314 0)
(0.352401 -0.102233 0)
(0.341221 -0.0745463 0)
(0.318273 -0.0544963 0)
(0.293342 -0.0390271 0)
(0.270256 -0.0275235 0)
(0.250159 -0.0192249 0)
(0.233894 -0.0130289 0)
(0.22064 -0.00864609 0)
(0.210539 -0.00476999 0)
(0.36912 -0.125249 0)
(0.327166 -0.0986347 0)
(0.299032 -0.0602257 0)
(0.259723 -0.0395466 0)
(0.227984 -0.024852 0)
(0.202891 -0.0155975 0)
(0.183858 -0.00976915 0)
(0.17023 -0.0057995 0)
(0.160104 -0.00328112 0)
(0.153181 -0.000564688 0)
(0.353466 -0.118206 0)
(0.259664 -0.0796593 0)
(0.220184 -0.0357553 0)
(0.171496 -0.0204454 0)
(0.144418 -0.0100139 0)
(0.125463 -0.00535603 0)
(0.113218 -0.00280627 0)
(0.105578 -0.00115001 0)
(0.100492 -0.000200562 0)
(0.0974096 0.00182085 0)
(0.288863 -0.0803494 0)
(0.142705 -0.0426691 0)
(0.115695 -0.00664455 0)
(0.075976 -0.00445424 0)
(0.0656053 -0.000644131 0)
(0.0570068 -0.000322072 0)
(0.0528834 0.000134006 0)
(0.050872 0.000443264 0)
(0.0499964 0.000656635 0)
(0.0495811 0.00251919 0)
(0.153419 -0.0497515 0)
(0.00557932 -0.0120051 0)
(0.0238428 0.00369456 0)
(0.00810742 0.000254264 0)
(0.0116728 0.000853064 0)
(0.0103606 0.000324234 0)
(0.0108714 0.000313888 0)
(0.0114498 0.000281769 0)
(0.0123434 0.000329638 0)
(0.0128405 0.00115848 0)
(0.312007 -0.0194966 0)
(0.312635 -0.0149937 0)
(0.313169 -0.0107091 0)
(0.3136 -0.00661363 0)
(0.313961 -0.00275884 0)
(0.314228 0.00090435 0)
(0.314434 0.00426449 0)
(0.314567 0.00740997 0)
(0.314653 0.0101736 0)
(0.314677 0.0126871 0)
(0.31466 0.014727 0)
(0.314604 0.0164902 0)
(0.314515 0.0177299 0)
(0.314423 0.0186963 0)
(0.314304 0.0191868 0)
(0.314222 0.0194283 0)
(0.314114 0.0193883 0)
(0.314077 0.0190799 0)
(0.314015 0.0188663 0)
(0.31403 0.0181842 0)
(0.314037 -0.0198239 0)
(0.314452 -0.0152611 0)
(0.314782 -0.010926 0)
(0.315017 -0.00678887 0)
(0.315192 -0.00290073 0)
(0.315283 0.000791221 0)
(0.315325 0.00419405 0)
(0.31529 0.00737686 0)
(0.315219 0.0101683 0)
(0.315091 0.0127039 0)
(0.314937 0.0147591 0)
(0.314757 0.0165343 0)
(0.314564 0.017779 0)
(0.314386 0.0187481 0)
(0.314203 0.019234 0)
(0.31408 0.0194697 0)
(0.31395 0.0194191 0)
(0.313913 0.0190992 0)
(0.313855 0.0188756 0)
(0.313895 0.0181801 0)
(0.316948 -0.0200106 0)
(0.317171 -0.0153997 0)
(0.317304 -0.0110231 0)
(0.317334 -0.00684833 0)
(0.317303 -0.00292242 0)
(0.317178 0.000808945 0)
(0.317001 0.0042361 0)
(0.316736 0.00744121 0)
(0.316434 0.0102532 0)
(0.31607 0.0128064 0)
(0.315693 0.0148723 0)
(0.315295 0.0166538 0)
(0.314909 0.0178945 0)
(0.314559 0.0188562 0)
(0.314239 0.0193242 0)
(0.31401 0.0195415 0)
(0.313809 0.0194657 0)
(0.313738 0.0191232 0)
(0.313663 0.0188791 0)
(0.313719 0.0181675 0)
(0.320137 -0.0201046 0)
(0.320216 -0.0154415 0)
(0.320198 -0.0110215 0)
(0.320066 -0.00680771 0)
(0.319865 -0.00284306 0)
(0.319548 0.00092393 0)
(0.319167 0.00438352 0)
(0.318673 0.00761646 0)
(0.318134 0.010452 0)
(0.317512 0.0130225 0)
(0.316879 0.0150958 0)
(0.316219 0.0168765 0)
(0.315592 0.0181026 0)
(0.315013 0.0190436 0)
(0.314502 0.0194774 0)
(0.314113 0.0196597 0)
(0.313795 0.0195411 0)
(0.313647 0.0191621 0)
(0.31353 0.0188856 0)
(0.313573 0.0181529 0)
(0.32339 -0.0201479 0)
(0.323346 -0.0154283 0)
(0.323201 -0.0109608 0)
(0.322933 -0.00670366 0)
(0.322588 -0.00269408 0)
(0.322105 0.00111528 0)
(0.321542 0.0046183 0)
(0.320837 0.00788922 0)
(0.320074 0.0107576 0)
(0.3192 0.0133513 0)
(0.318312 0.0154349 0)
(0.317379 0.0172134 0)
(0.316494 0.0184191 0)
(0.315661 0.0193295 0)
(0.31493 0.0197146 0)
(0.314348 0.0198455 0)
(0.313884 0.0196658 0)
(0.313626 0.0192327 0)
(0.313448 0.0189102 0)
(0.313449 0.018145 0)
(0.326647 -0.0201427 0)
(0.326472 -0.0153647 0)
(0.326196 -0.0108477 0)
(0.325786 -0.00654336 0)
(0.325293 -0.00248204 0)
(0.324641 0.00137829 0)
(0.323896 0.00493467 0)
(0.322984 0.00825274 0)
(0.322001 0.0111639 0)
(0.320881 0.0137881 0)
(0.319739 0.0158881 0)
(0.318536 0.0176659 0)
(0.31739 0.0188488 0)
(0.316298 0.0197213 0)
(0.315337 0.0200456 0)
(0.314548 0.0201097 0)
(0.313925 0.0198509 0)
(0.31354 0.0193447 0)
(0.313291 0.0189615 0)
(0.313232 0.0181492 0)
(0.329876 -0.0200801 0)
(0.329531 -0.0152417 0)
(0.329079 -0.0106724 0)
(0.328485 -0.00631668 0)
(0.327801 -0.00219719 0)
(0.326942 0.00172074 0)
(0.325982 0.00533804 0)
(0.32484 0.00870989 0)
(0.32362 0.0116722 0)
(0.322246 0.0143327 0)
(0.320846 0.0164548 0)
(0.319376 0.018233 0)
(0.317967 0.0193918 0)
(0.31662 0.0202197 0)
(0.315427 0.0204727 0)
(0.314433 0.0204549 0)
(0.313645 0.0201 0)
(0.313133 0.0195008 0)
(0.312809 0.0190423 0)
(0.312692 0.0181665 0)
(0.332985 -0.0199371 0)
(0.332369 -0.0150333 0)
(0.331638 -0.0104072 0)
(0.330763 -0.0059954 0)
(0.329795 -0.00181335 0)
(0.328655 0.00216492 0)
(0.327414 0.00584605 0)
(0.325999 0.00927352 0)
(0.324508 0.0122911 0)
(0.322868 0.0149897 0)
(0.321199 0.0171369 0)
(0.319468 0.0189145 0)
(0.317798 0.0200472 0)
(0.31621 0.020823 0)
(0.314786 0.0209946 0)
(0.313603 0.0208797 0)
(0.31265 0.0204123 0)
(0.312027 0.0196994 0)
(0.311628 0.019151 0)
(0.311473 0.0181939 0)
(0.335681 -0.0196578 0)
(0.334592 -0.0146814 0)
(0.333393 -0.00999502 0)
(0.332067 -0.00552533 0)
(0.330673 -0.00128242 0)
(0.329138 0.00274856 0)
(0.327534 0.00648649 0)
(0.325798 0.00996256 0)
(0.324006 0.0130318 0)
(0.322101 0.0157634 0)
(0.320168 0.0179342 0)
(0.318203 0.0197063 0)
(0.316289 0.0208098 0)
(0.314499 0.0215248 0)
(0.312861 0.0216057 0)
(0.311525 0.0213784 0)
(0.310416 0.0207826 0)
(0.309717 0.0199347 0)
(0.309247 0.0192816 0)
(0.309099 0.0182225 0)
(0.337242 -0.0191272 0)
(0.33534 -0.0140781 0)
(0.333382 -0.00933794 0)
(0.331376 -0.00482576 0)
(0.329377 -0.000529436 0)
(0.327333 0.00352268 0)
(0.325298 0.00729013 0)
(0.323225 0.0107919 0)
(0.321145 0.0138963 0)
(0.319022 0.0166466 0)
(0.316876 0.0188337 0)
(0.314756 0.0205917 0)
(0.312657 0.021662 0)
(0.310746 0.0223073 0)
(0.308939 0.02229 0)
(0.307525 0.0219364 0)
(0.306285 0.0211982 0)
(0.30558 0.0201941 0)
(0.305048 0.0194217 0)
(0.304986 0.0182366 0)
(0.336211 -0.0181523 0)
(0.333036 -0.0130594 0)
(0.329979 -0.00830513 0)
(0.327062 -0.00379462 0)
(0.324317 0.000488823 0)
(0.321701 0.00451213 0)
(0.31925 0.00826344 0)
(0.316914 0.0117501 0)
(0.314649 0.0148582 0)
(0.312449 0.0176033 0)
(0.310229 0.0197937 0)
(0.308113 0.0215272 0)
(0.305958 0.022562 0)
(0.304073 0.0231315 0)
(0.302193 0.0230136 0)
(0.300825 0.0225237 0)
(0.299509 0.0216335 0)
(0.298906 0.020454 0)
(0.298334 0.019549 0)
(0.298481 0.0182105 0)
(0.330166 -0.016477 0)
(0.325274 -0.0114383 0)
(0.32087 -0.00676865 0)
(0.316936 -0.00235725 0)
(0.313461 0.00179445 0)
(0.310388 0.00570274 0)
(0.307698 0.00936403 0)
(0.305322 0.0127746 0)
(0.303121 0.0158409 0)
(0.301108 0.0185506 0)
(0.299067 0.0207293 0)
(0.297211 0.022431 0)
(0.295216 0.0234336 0)
(0.293578 0.023929 0)
(0.291782 0.0237172 0)
(0.290639 0.0230896 0)
(0.289337 0.0220453 0)
(0.288993 0.0206768 0)
(0.288417 0.0196287 0)
(0.288945 0.0181061 0)
(0.315855 -0.0138712 0)
(0.309101 -0.0090951 0)
(0.303438 -0.00468721 0)
(0.29871 -0.000541962 0)
(0.294824 0.00333316 0)
(0.291669 0.00699828 0)
(0.289144 0.010468 0)
(0.287137 0.0137291 0)
(0.285401 0.0167033 0)
(0.283961 0.01935 0)
(0.282457 0.0215071 0)
(0.281196 0.02318 0)
(0.279652 0.0241649 0)
(0.278537 0.0246016 0)
(0.27703 0.024316 0)
(0.276333 0.0235625 0)
(0.275169 0.0223728 0)
(0.275272 0.0208109 0)
(0.274742 0.0196123 0)
(0.275867 0.017872 0)
(0.290068 -0.0103037 0)
(0.281963 -0.00611565 0)
(0.275716 -0.00221712 0)
(0.270896 0.00143494 0)
(0.267289 0.00487099 0)
(0.264704 0.00816995 0)
(0.262946 0.0113539 0)
(0.26184 0.0144039 0)
(0.26106 0.0172484 0)
(0.26062 0.0198207 0)
(0.260048 0.0219613 0)
(0.259728 0.0236262 0)
(0.258943 0.0246234 0)
(0.258626 0.0250347 0)
(0.257635 0.0247107 0)
(0.257601 0.0238594 0)
(0.256714 0.0225446 0)
(0.257459 0.020796 0)
(0.257035 0.0194421 0)
(0.258997 0.0174467 0)
(0.251355 -0.00614215 0)
(0.243249 -0.00291762 0)
(0.237713 0.000215702 0)
(0.233908 0.00318095 0)
(0.231512 0.00605789 0)
(0.23025 0.00891005 0)
(0.229874 0.0117541 0)
(0.230159 0.0145673 0)
(0.230751 0.0172749 0)
(0.231647 0.0197875 0)
(0.232317 0.0219362 0)
(0.233187 0.0236337 0)
(0.23341 0.0246872 0)
(0.234088 0.0251235 0)
(0.233806 0.0248089 0)
(0.2346 0.0239025 0)
(0.234122 0.0224918 0)
(0.23567 0.0205735 0)
(0.235415 0.0190577 0)
(0.238447 0.0167643 0)
(0.201839 -0.00224326 0)
(0.195597 -0.000265332 0)
(0.192305 0.00198167 0)
(0.19061 0.00420629 0)
(0.190198 0.00650999 0)
(0.190782 0.00892451 0)
(0.192139 0.0114479 0)
(0.194042 0.0140521 0)
(0.196174 0.0166522 0)
(0.19851 0.0191439 0)
(0.200536 0.0213403 0)
(0.202666 0.0231224 0)
(0.20401 0.0242822 0)
(0.205748 0.0248024 0)
(0.206293 0.0245489 0)
(0.207981 0.0236378 0)
(0.208021 0.0221616 0)
(0.210463 0.0200967 0)
(0.210452 0.0184034 0)
(0.214748 0.0157638 0)
(0.1474 0.000412794 0)
(0.144638 0.00111562 0)
(0.144645 0.00255403 0)
(0.145546 0.00415228 0)
(0.147309 0.00601452 0)
(0.14974 0.00809656 0)
(0.152726 0.0103809 0)
(0.156092 0.0128391 0)
(0.159605 0.0153813 0)
(0.163215 0.0178968 0)
(0.166476 0.0201805 0)
(0.169737 0.0220939 0)
(0.172159 0.0234031 0)
(0.174877 0.0240607 0)
(0.17628 0.023912 0)
(0.178824 0.023043 0)
(0.179467 0.0215244 0)
(0.182809 0.0193352 0)
(0.183136 0.0174324 0)
(0.188815 0.0143984 0)
(0.0954462 0.00125357 0)
(0.0968319 0.000839741 0)
(0.100119 0.00177982 0)
(0.103182 0.00304539 0)
(0.106597 0.004688 0)
(0.110335 0.00657386 0)
(0.114443 0.00870668 0)
(0.118813 0.011074 0)
(0.123296 0.013595 0)
(0.127817 0.0161609 0)
(0.13202 0.0185541 0)
(0.136146 0.0206243 0)
(0.139478 0.0221074 0)
(0.142996 0.0229364 0)
(0.145217 0.0229188 0)
(0.148506 0.022123 0)
(0.14982 0.0205719 0)
(0.153998 0.0182718 0)
(0.154784 0.0161097 0)
(0.161853 0.0126475 0)
(0.052173 0.000259196 0)
(0.0570742 -0.000989112 0)
(0.0624311 -2.62176e-06 0)
(0.0664511 0.0012828 0)
(0.0705424 0.00289629 0)
(0.0747802 0.00467491 0)
(0.079336 0.00670041 0)
(0.0841417 0.00899319 0)
(0.0891023 0.0114965 0)
(0.0941103 0.0141078 0)
(0.0988966 0.0166059 0)
(0.103579 0.0188291 0)
(0.107599 0.0204865 0)
(0.111707 0.0214932 0)
(0.114668 0.0216112 0)
(0.118569 0.0208967 0)
(0.120606 0.0193092 0)
(0.125514 0.016897 0)
(0.126888 0.0144186 0)
(0.135219 0.0105258 0)
(0.0216518 -0.0027558 0)
(0.0274598 -0.00368693 0)
(0.0329106 -0.00208153 0)
(0.0364703 -0.000564189 0)
(0.0402579 0.00106359 0)
(0.0442489 0.00273401 0)
(0.0486614 0.00463524 0)
(0.0534117 0.00682649 0)
(0.0584186 0.00928221 0)
(0.0635482 0.0119051 0)
(0.0685912 0.014478 0)
(0.0735634 0.0168236 0)
(0.0780527 0.0186326 0)
(0.0825775 0.0197963 0)
(0.0861866 0.0200328 0)
(0.0905939 0.0193871 0)
(0.0933786 0.0177464 0)
(0.0989074 0.0152141 0)
(0.100955 0.012367 0)
(0.110294 0.00809515 0)
(0.00784267 -0.00659719 0)
(0.00974569 -0.0055955 0)
(0.0133461 -0.00348539 0)
(0.0155147 -0.00184046 0)
(0.0184294 -0.000315962 0)
(0.0217684 0.00117564 0)
(0.0257115 0.00290459 0)
(0.0301228 0.00495286 0)
(0.0349104 0.0073178 0)
(0.0399244 0.00990441 0)
(0.0449874 0.0124995 0)
(0.050054 0.0149123 0)
(0.0548158 0.0168178 0)
(0.0596146 0.0180897 0)
(0.0637336 0.0183982 0)
(0.0685376 0.0178014 0)
(0.0719849 0.0160808 0)
(0.0779837 0.0134586 0)
(0.0806351 0.0102302 0)
(0.0905852 0.00574387 0)
(0.00108677 -0.00834508 0)
(-0.000716523 -0.00610616 0)
(0.000263168 -0.00409392 0)
(0.000924226 -0.002533 0)
(0.00288272 -0.00124917 0)
(0.00551803 5.01733e-06 0)
(0.00893789 0.0015269 0)
(0.0129463 0.00340695 0)
(0.0174383 0.00565261 0)
(0.0222559 0.00816919 0)
(0.0272418 0.010745 0)
(0.0323183 0.0131785 0)
(0.0372474 0.0151318 0)
(0.0422476 0.0164667 0)
(0.0467765 0.0168066 0)
(0.05191 0.0162396 0)
(0.0559271 0.0144247 0)
(0.0622868 0.0117472 0)
(0.0654376 0.00816205 0)
(0.0757099 0.00360252 0)
(-0.00254278 -0.00720847 0)
(-0.0075428 -0.00543197 0)
(-0.00912322 -0.00397622 0)
(-0.00986497 -0.00278669 0)
(-0.00884214 -0.00188793 0)
(-0.00689017 -0.000942535 0)
(-0.00399652 0.000317013 0)
(-0.000409589 0.00199323 0)
(0.00375548 0.00408408 0)
(0.00834028 0.00649416 0)
(0.0132042 0.00901193 0)
(0.0182552 0.0114253 0)
(0.0233088 0.0133869 0)
(0.0284909 0.0147459 0)
(0.033397 0.0150875 0)
(0.0388454 0.0145289 0)
(0.0434025 0.0126118 0)
(0.0500644 0.00989718 0)
(0.0536472 0.00598047 0)
(0.0640319 0.00143679 0)
(-0.00443037 -0.00470307 0)
(-0.0116908 -0.00389895 0)
(-0.0152054 -0.00321558 0)
(-0.0170239 -0.00267596 0)
(-0.0167457 -0.00226549 0)
(-0.0153566 -0.00169006 0)
(-0.0129139 -0.000731157 0)
(-0.00970198 0.000705422 0)
(-0.00584189 0.00261165 0)
(-0.00148169 0.00488235 0)
(0.00325506 0.00730556 0)
(0.00827504 0.00965905 0)
(0.0134353 0.0115889 0)
(0.0187938 0.0129329 0)
(0.0240516 0.013248 0)
(0.0298025 0.0126763 0)
(0.0348603 0.0106597 0)
(0.0417664 0.00793089 0)
(0.0456988 0.00373451 0)
(0.0560181 -0.000724162 0)
(-0.00524739 -0.00151956 0)
(-0.0136657 -0.00179729 0)
(-0.0182065 -0.00204783 0)
(-0.0206329 -0.00231038 0)
(-0.0208077 -0.00245472 0)
(-0.0197923 -0.00228733 0)
(-0.017677 -0.00164801 0)
(-0.014754 -0.000473423 0)
(-0.0111386 0.00122286 0)
(-0.00696462 0.00332724 0)
(-0.00233334 0.00562163 0)
(0.00266846 0.00788053 0)
(0.00793361 0.00973924 0)
(0.0134679 0.0110319 0)
(0.0190547 0.0112942 0)
(0.0250915 0.0106927 0)
(0.0306041 0.00858495 0)
(0.0377 0.00587536 0)
(0.0418999 0.00146749 0)
(0.0520176 -0.00285029 0)
(-0.00525031 0.00188787 0)
(-0.0136721 0.000506825 0)
(-0.0182091 -0.000730299 0)
(-0.0207069 -0.00183435 0)
(-0.0209987 -0.00254829 0)
(-0.0201381 -0.00279538 0)
(-0.0182011 -0.00248262 0)
(-0.0154614 -0.00157271 0)
(-0.0120143 -0.000103067 0)
(-0.00797299 0.00181499 0)
(-0.0034119 0.00395216 0)
(0.00159172 0.00608513 0)
(0.00696514 0.00783738 0)
(0.0126711 0.00904713 0)
(0.0185622 0.00923316 0)
(0.0248588 0.00859078 0)
(0.0307745 0.0064052 0)
(0.038011 0.00375327 0)
(0.0424095 -0.000796487 0)
(0.0522238 -0.00491982 0)
(-0.00440352 0.00507235 0)
(-0.0116629 0.00260531 0)
(-0.0151722 0.000465861 0)
(-0.0172118 -0.00140162 0)
(-0.0172893 -0.00264305 0)
(-0.0163682 -0.00327838 0)
(-0.0144631 -0.0032787 0)
(-0.0118026 -0.0026285 0)
(-0.00844852 -0.00138794 0)
(-0.00448713 0.000328178 0)
(3.77339e-05 0.00228843 0)
(0.0050584 0.00426765 0)
(0.0105398 0.00588382 0)
(0.0164012 0.00698514 0)
(0.0225639 0.00707507 0)
(0.0290791 0.00638616 0)
(0.0353382 0.00413887 0)
(0.042664 0.00158364 0)
(0.0472115 -0.00302802 0)
(0.0566553 -0.00692286 0)
(-0.00236582 0.00756339 0)
(-0.0073375 0.00412846 0)
(-0.00892869 0.00128317 0)
(-0.0100603 -0.00115441 0)
(-0.0096489 -0.00282806 0)
(-0.00848951 -0.00379397 0)
(-0.0064981 -0.00407586 0)
(-0.00383455 -0.0036697 0)
(-0.000517629 -0.00265221 0)
(0.00339935 -0.00114282 0)
(0.00790835 0.000622145 0)
(0.0129446 0.00242838 0)
(0.0185203 0.00388406 0)
(0.0245011 0.00485731 0)
(0.0308882 0.00483541 0)
(0.037561 0.00409956 0)
(0.0440906 0.00180623 0)
(0.0514496 -0.000625458 0)
(0.0561048 -0.0051997 0)
(0.0651337 -0.00884955 0)
(0.00166759 0.00862562 0)
(-8.52959e-05 0.00479353 0)
(0.000825222 0.00149257 0)
(0.000896363 -0.00119405 0)
(0.00196351 -0.00317 0)
(0.0034679 -0.00438367 0)
(0.00561052 -0.00490084 0)
(0.00831672 -0.00471355 0)
(0.0116188 -0.00390907 0)
(0.0154939 -0.00260334 0)
(0.0199801 -0.00104344 0)
(0.0250052 0.0005749 0)
(0.0306387 0.00185178 0)
(0.0366767 0.0026826 0)
(0.0432204 0.00253751 0)
(0.0499663 0.00175861 0)
(0.0566713 -0.000572598 0)
(0.0639938 -0.00285349 0)
(0.0687167 -0.00730687 0)
(0.0772977 -0.0106907 0)
(0.0093064 0.00644756 0)
(0.0111585 0.00428677 0)
(0.0145474 0.00103662 0)
(0.0158883 -0.00158382 0)
(0.0176028 -0.0036973 0)
(0.019458 -0.00506864 0)
(0.0217409 -0.00576519 0)
(0.0244689 -0.00576474 0)
(0.0277295 -0.00515862 0)
(0.0315238 -0.00405285 0)
(0.035944 -0.00269979 0)
(0.0408948 -0.00127845 0)
(0.0465218 -0.000192767 0)
(0.0525242 0.000487397 0)
(0.0591315 0.000210636 0)
(0.0658388 -0.000607072 0)
(0.0726034 -0.00296404 0)
(0.0797957 -0.0050742 0)
(0.0845264 -0.0093323 0)
(0.0926305 -0.0124467 0)
(0.0262798 0.0017991 0)
(0.0318132 0.00224163 0)
(0.03677 -0.000207252 0)
(0.0392678 -0.00248728 0)
(0.0415244 -0.00455137 0)
(0.0436486 -0.00600865 0)
(0.0459776 -0.00685237 0)
(0.0486186 -0.00703631 0)
(0.051727 -0.00664983 0)