/*--------------------------------*- C++ -*----------------------------------*\
| =========                 |                                                 |
| \\      /  F ield         | OpenFOAM: The Open Source CFD Toolbox           |
|  \\    /   O peration     | Version:  v1806                                 |
|   \\  /    A nd           | Web:      www.OpenFOAM.com                      |
|    \\/     M anipulation  |                                                 |
\*---------------------------------------------------------------------------*/
FoamFile
{
    version     2.0;
    format      ascii;
    class       volScalarField;
    location    "20";
    object      p;
}
// * * * * * * * * * * * * * * * * * * * * * * * * * * * * * * * * * * * * * //

dimensions      [0 2 -2 0 0 0 0];


internalField   nonuniform List<scalar> 
2400
(
0.000693217
0.000624692
0.000775939
0.00126493
0.00176582
0.00209417
0.00223579
0.00220714
0.00202711
0.00175496
0.00145853
0.00118259
0.000946286
0.000752385
0.000596581
0.000472539
0.000374024
0.000295756
0.000233154
0.000183313
0.00197551
0.0020129
0.00250537
0.00329754
0.00416556
0.004887
0.00528623
0.0053065
0.00499041
0.00445288
0.00382056
0.00318773
0.00261041
0.00211232
0.00169683
0.00135689
0.00108153
0.000859609
0.000680136
0.000535569
0.00323006
0.00332887
0.00396687
0.00507526
0.00643793
0.0076413
0.00829953
0.00831407
0.00780132
0.00696719
0.00600518
0.00504583
0.00416412
0.00339391
0.00274294
0.00220411
0.00176347
0.00140568
0.00111456
0.000879054
0.00443154
0.00458099
0.00537202
0.00671291
0.00832922
0.00977722
0.0106197
0.010705
0.0101378
0.00913951
0.00794537
0.00672882
0.00559317
0.00458781
0.00372793
0.00300889
0.00241586
0.00193106
0.00153432
0.001212
0.00557925
0.00577295
0.00665967
0.00815167
0.00999824
0.01173
0.0127522
0.0128644
0.0122157
0.011068
0.00968302
0.00825455
0.00690415
0.00569474
0.00464953
0.00376772
0.00303496
0.00243232
0.00193643
0.00153206
0.00666181
0.0068855
0.00785241
0.00947475
0.011477
0.0133594
0.0145027
0.0146751
0.0140045
0.0127613
0.0112313
0.00963123
0.00810051
0.00671501
0.00550631
0.00447833
0.00361828
0.00290706
0.00231873
0.00183746
0.00767534
0.00792334
0.00894848
0.0106525
0.0127713
0.0148048
0.016057
0.0162635
0.0155669
0.0142501
0.0126072
0.0108682
0.00918646
0.00764961
0.00629742
0.00513901
0.00416379
0.00335334
0.00267945
0.00212676
0.00861448
0.00887924
0.00995255
0.0117218
0.0139172
0.0160426
0.0173758
0.017625
0.0169226
0.0155551
0.0138253
0.011974
0.0101662
0.00849986
0.00702248
0.00574848
0.00466986
0.00376952
0.00301705
0.00239874
0.00947632
0.00975418
0.0108618
0.0126744
0.0149274
0.0171313
0.0185258
0.0188036
0.0180978
0.0166945
0.014898
0.0129565
0.0110439
0.0092673
0.00768143
0.00630581
0.00513518
0.00415425
0.00333022
0.00265246
0.0102583
0.0105442
0.0116797
0.0135257
0.0158147
0.0180683
0.0195091
0.0198148
0.0191118
0.0176839
0.0158366
0.0138227
0.0118234
0.00995361
0.00827445
0.00681032
0.00555868
0.00450647
0.0036179
0.00288723
0.0109579
0.0112491
0.0124072
0.0142747
0.0165871
0.0188782
0.0203531
0.0206799
0.0199809
0.0185364
0.0166504
0.0145789
0.0125084
0.0105604
0.00880186
0.00726158
0.00593953
0.00482532
0.00387926
0.00310272
0.0115738
0.0118681
0.0130441
0.0149265
0.0172531
0.0195685
0.0210677
0.0214119
0.0207182
0.0192629
0.0173478
0.0152306
0.0131022
0.0110893
0.00926406
0.00765926
0.00627708
0.00511021
0.00411369
0.00329901
0.0121048
0.0124005
0.0135918
0.0154832
0.0178172
0.0201488
0.0216652
0.0220229
0.0213346
0.0198724
0.0179355
0.0157825
0.0136076
0.0115418
0.00966145
0.00800314
0.0065708
0.00536074
0.00432079
0.00347662
0.0125498
0.0128459
0.0140509
0.0159468
0.0182841
0.0206259
0.0221538
0.0225219
0.0218387
0.0203722
0.0184194
0.0162388
0.0140272
0.0119191
0.0099944
0.00829304
0.00682021
0.00557666
0.00450037
0.00363674
0.0129081
0.0132043
0.0144219
0.0163187
0.0186569
0.0210049
0.0225403
0.0229162
0.0222373
0.0207684
0.018804
0.0166027
0.014363
0.0122223
0.0102632
0.00852873
0.00702485
0.0057578
0.00465262
0.00378134
0.0131789
0.0134757
0.0147055
0.0165998
0.018938
0.0212897
0.0228296
0.0232112
0.0225358
0.0210654
0.0190929
0.0168768
0.0146167
0.0124522
0.010468
0.00870995
0.0071842
0.00590393
0.00477807
0.00391334
0.0133615
0.0136602
0.0149022
0.0167908
0.0191293
0.0214833
0.0230253
0.0234108
0.0227379
0.0212666
0.0192888
0.017063
0.0147894
0.0126093
0.0106088
0.00883632
0.00729755
0.00601464
0.00487766
0.00403699
0.0134552
0.0137579
0.0150121
0.0168923
0.0192322
0.0215878
0.0231302
0.023518
0.0228463
0.0213743
0.0193936
0.0171626
0.014882
0.0126941
0.0106855
0.00890733
0.00736395
0.00608909
0.00495272
0.00416124
0.0134602
0.0137697
0.0150343
0.0169044
0.0192474
0.0216039
0.0231453
0.0235341
0.0228622
0.0213895
0.0194081
0.0171762
0.0148947
0.0127064
0.0106978
0.00892238
0.00738228
0.00612552
0.00500385
0.0042969
0.0133692
0.0137021
0.0149696
0.0168258
0.019178
0.0215329
0.0230706
0.0234588
0.0227856
0.0213122
0.0193321
0.0171037
0.0148275
0.0126462
0.0106452
0.00888077
0.00735031
0.00612045
0.00502944
0.00441685
0.00016396
0.000160202
0.000156128
0.00015203
0.000147983
0.000143975
0.000140004
0.000136078
0.000132164
0.000128065
0.000467708
0.000455025
0.000442767
0.000430841
0.000419205
0.000407849
0.000396767
0.000385949
0.000375407
0.000365225
0.000770558
0.000750347
0.000730519
0.000711078
0.000692026
0.000673355
0.000655056
0.000637118
0.00061953
0.000602275
0.00106259
0.00103468
0.00100735
0.000980571
0.000954349
0.000928667
0.000903511
0.000878869
0.00085473
0.000831094
0.00134384
0.0013087
0.00127426
0.00124051
0.00120743
0.00117501
0.00114324
0.0011121
0.00108158
0.00105167
0.00161213
0.00157007
0.00152885
0.00148844
0.00144882
0.00140998
0.00137191
0.00133458
0.00129799
0.00126212
0.00186618
0.00181756
0.00176993
0.00172322
0.0016774
0.00163247
0.0015884
0.00154519
0.00150282
0.00146127
0.00210465
0.00204984
0.00199617
0.0019435
0.00189183
0.00184113
0.0017914
0.00174262
0.00169477
0.00164785
0.00232646
0.0022658
0.00220645
0.00214819
0.00209099
0.00203486
0.00197978
0.00192573
0.00187271
0.00182071
0.00253065
0.00246446
0.00239977
0.00233625
0.00227385
0.00221259
0.00215247
0.00209346
0.00203556
0.00197876
0.00271645
0.00264499
0.00257529
0.00250681
0.00243949
0.00237338
0.00230849
0.00224478
0.00218227
0.00212093
0.00288328
0.00280673
0.00273227
0.00265908
0.00258708
0.00251634
0.00244688
0.00237869
0.00231177
0.00224611
0.00303072
0.00294916
0.00287012
0.00279237
0.00271581
0.00264056
0.00256667
0.00249412
0.00242293
0.00235309
0.00315872
0.00307205
0.00298848
0.00290618
0.00282505
0.00274526
0.00266689
0.00258996
0.00251449
0.00244046
0.00326744
0.00317526
0.00308694
0.00299985
0.00291383
0.00282919
0.00274605
0.00266446
0.00258448
0.00250609
0.00335833
0.00326003
0.00316646
0.00307399
0.00298245
0.00289228
0.00280369
0.00271675
0.00263155
0.00254798
0.00343233
0.00332635
0.00322598
0.00312647
0.00302764
0.00293013
0.00283424
0.00274015
0.00264795
0.0025576
0.00349736
0.00338193
0.00327311
0.00316512
0.00305779
0.00295187
0.00284771
0.00274532
0.00264405
0.00254333
0.00356065
0.00342834
0.00330321
0.00318007
0.00305775
0.00293615
0.00281505
0.00269459
0.00257384
0.00244842
0.00364059
0.00348422
0.0033372
0.00320122
0.0030724
0.00294795
0.00282616
0.0027063
0.00258576
0.00244186
0.000120035
0.000110449
0.000101664
9.3401e-05
8.56151e-05
7.82615e-05
7.12982e-05
6.46898e-05
5.84044e-05
5.24121e-05
4.66838e-05
4.11909e-05
3.59049e-05
3.07975e-05
2.58398e-05
2.10032e-05
1.62587e-05
1.15734e-05
6.90364e-06
2.24849e-06
0.000346758
0.000320383
0.000295275
0.000271494
0.000248971
0.000227627
0.000207381
0.00018815
0.000169852
0.000152405
0.000135727
0.000119735
0.000104349
8.94855e-05
7.50611e-05
6.09914e-05
4.71911e-05
3.35652e-05
2.00011e-05
6.51605e-06
0.000570596
0.000526837
0.000485491
0.000446373
0.000409333
0.000374231
0.000340929
0.000309293
0.000279188
0.000250481
0.000223037
0.000196724
0.000171408
0.000146954
0.000123227
0.00010009
7.74075e-05
5.50281e-05
3.27793e-05
1.06874e-05
0.000787702
0.000727426
0.000670387
0.00061639
0.000565241
0.000516754
0.000470746
0.000427033
0.000385432
0.00034576
0.000307833
0.000271469
0.000236485
0.000202695
0.000169916
0.000137964
0.000106653
7.57841e-05
4.51272e-05
1.47149e-05
0.00099675
0.000920493
0.000848313
0.000779961
0.000715201
0.000653803
0.000595539
0.00054018
0.000487496
0.000437257
0.000389232
0.000343189
0.000298898
0.000256127
0.000214646
0.000174224
0.000134633
9.5628e-05
5.69229e-05
1.85561e-05
0.00119625
0.0011047
0.00101802
0.000935915
0.000858114
0.00078435
0.000714356
0.000647857
0.000584581
0.00052425
0.000466587
0.000411315
0.000358155
0.000306832
0.00025707
0.000208597
0.000161143
0.000114419
6.80855e-05
2.21864e-05
0.00138494
0.00127884
0.00117833
0.00108313
0.000992923
0.000907408
0.000826279
0.000749222
0.000675919
0.000606048
0.000539285
0.000475307
0.000413791
0.000354416
0.000296866
0.000240825
0.000185988
0.000132021
7.85373e-05
2.55817e-05
0.00156161
0.0014417
0.00132811
0.00122052
0.0011186
0.00102201
0.000930412
0.000843452
0.000760764
0.000681981
0.000606731
0.000534646
0.000465357
0.000398502
0.000333721
0.000270662
0.00020898
0.000148306
8.8203e-05
2.87189e-05
0.00172511
0.00159217
0.00146625
0.00134702
0.00123412
0.00112721
0.00102588
0.000929746
0.000838393
0.000751403
0.000668357
0.000588838
0.000512433
0.000438735
0.000367346
0.000297876
0.000229947
0.000163152
9.70129e-05
3.15767e-05
0.00187433
0.00172913
0.00159165
0.00146156
0.0013385
0.00122206
0.00111182
0.00100732
0.000908108
0.000813699
0.000723626
0.00063742
0.000554623
0.000474786
0.000397473
0.000322257
0.000248729
0.000176451
0.000104904
3.4136e-05
0.00200814
0.00185142
0.00170316
0.00156305
0.00143068
0.00130561
0.00118736
0.00107541
0.00096923
0.000868279
0.00077203
0.000679962
0.00059157
0.000506361
0.000423863
0.000343617
0.000265187
0.000188106
0.000111821
3.63808e-05
0.00212537
0.00195782
0.00179957
0.0016503
0.00150957
0.00137687
0.00125163
0.00113325
0.00102111
0.00091459
0.000813108
0.000716082
0.000622957
0.000533204
0.000446314
0.000361802
0.000279206
0.000198039
0.00011772
3.82984e-05
0.00222468
0.00204691
0.00187947
0.001722
0.00157399
0.0014348
0.00130374
0.00118009
0.00106312
0.000952128
0.000846451
0.00074545
0.000648526
0.000555111
0.000464668
0.000376691
0.0002907
0.000206191
0.000122568
3.98803e-05
0.00230439
0.0021169
0.00194113
0.0017766
0.00162259
0.00147829
0.00134279
0.00121521
0.0010947
0.00098046
0.000871729
0.000767819
0.000668089
0.000571941
0.000478822
0.000388209
0.000299616
0.00021253
0.000126348
4.11222e-05
0.00236212
0.00216538
0.00198235
0.00181218
0.00165384
0.00150613
0.00136787
0.00123797
0.00111541
0.00099927
0.000888729
0.000783046
0.000681553
0.000583639
0.00048874
0.000396337
0.000305943
0.000217049
0.000129058
4.20243e-05
0.00239448
0.00218885
0.00200004
0.00182634
0.00166596
0.00151711
0.00137821
0.00124788
0.00112496
0.00100843
0.000897404
0.000791137
0.000688952
0.000590246
0.00049447
0.000401116
0.000309715
0.000219775
0.000130712
4.25914e-05
0.00239281
0.00218082
0.00198991
0.00181626
0.00165719
0.0015102
0.00137326
0.00124474
0.00112335
0.00100803
0.000897916
0.000792272
0.000690463
0.000591926
0.000496149
0.000402661
0.000311021
0.000220768
0.000131347
4.28324e-05
0.00235627
0.0021381
0.0019481
0.00177907
0.00162598
0.00148486
0.00135309
0.00122891
0.00111106
0.00099859
0.00089073
0.000786855
0.000686422
0.000588948
0.000493989
0.00040113
0.000309976
0.000220106
0.000131002
4.2754e-05
0.00221124
0.00202352
0.00185735
0.00170785
0.00157023
0.00144099
0.00131842
0.0012014
0.00108913
0.000981047
0.00087666
0.000775565
0.000677383
0.000581758
0.000488343
0.000396795
0.000306779
0.000217924
0.000129758
4.2371e-05
0.00207022
0.00190191
0.00174726
0.00161838
0.00149933
0.00138492
0.00127369
0.00116537
0.00105986
0.000957092
0.00085696
0.000759335
0.000664044
0.000570875
0.000479592
0.000389932
0.000301625
0.000214358
0.000127729
4.1671e-05
0.00141576
0.00167447
0.00160672
0.00153517
0.00144149
0.00134214
0.00124045
0.00113868
0.00103794
0.000938823
0.000841621
0.000746431
0.000653225
0.00056189
0.000472254
0.000384101
0.000297198
0.000211264
0.00012613
4.05714e-05
0.00137918
0.00160694
0.00155643
0.00150263
0.00141744
0.00132383
0.00122588
0.00112677
0.00102802
0.000930465
0.000834542
0.000740434
0.000648169
0.000557671
0.000468794
0.000381344
0.000295101
0.000209783
0.000125341
4.01626e-05
0.00137462
0.00156079
0.0015187
0.00147462
0.00139545
0.0013064
0.00121163
0.00111489
0.00101797
0.000921907
0.000827229
0.000734194
0.000642878
0.000553235
0.000465144
0.000378426
0.000292877
0.000208209
0.000124453
3.9836e-05
0.00136296
0.00152403
0.00148794
0.00144972
0.00137509
0.00128971
0.00119766
0.00110303
0.00100782
0.00091316
0.000819691
0.00072772
0.000637358
0.000548588
0.000461307
0.00037535
0.000290526
0.000206549
0.000123491
3.95118e-05
0.00134985
0.00149514
0.00146264
0.00142779
0.00135641
0.00127384
0.00118404
0.00109125
0.000997576
0.000904246
0.000811946
0.000721023
0.000631618
0.000543736
0.000457287
0.000372119
0.000288051
0.000204801
0.000122466
3.9177e-05
0.00133739
0.001474
0.00144263
0.00140898
0.00133956
0.00125891
0.00117084
0.0010796
0.000987292
0.000895193
0.000804011
0.000714117
0.00062567
0.000538687
0.00045309
0.000368738
0.000285455
0.000202968
0.000121379
3.88353e-05
0.00132534
0.00146022
0.00142772
0.00139326
0.00132455
0.00124494
0.0011581
0.0010681
0.000976987
0.000886018
0.000795901
0.000707013
0.00061952
0.000533446
0.000448722
0.00036521
0.000282741
0.000201052
0.000120231
3.84869e-05
0.00131373
0.00145361
0.00141776
0.00138052
0.00131133
0.00123193
0.00114583
0.00105677
0.000966673
0.000876731
0.000787625
0.000699719
0.000613176
0.000528021
0.000444186
0.000361538
0.000279912
0.000199054
0.000119023
3.81285e-05
0.00129881
0.00145409
0.00141309
0.00137064
0.00129982
0.00121982
0.001134
0.0010456
0.00095635
0.000867337
0.000779187
0.000692239
0.000606641
0.000522413
0.000439486
0.000357726
0.000276968
0.000196977
0.000117752
3.77686e-05
0.00127633
0.00146317
0.00141515
0.00136349
0.00128985
0.00120852
0.00112255
0.00103455
0.000945993
0.000857819
0.000770578
0.000684567
0.000599913
0.000516622
0.000434621
0.000353773
0.000273912
0.00019482
0.000116396
3.74634e-05
0.00153723
0.00150998
0.0014286
0.00135501
0.00127493
0.00119052
0.00110376
0.0010161
0.000928502
0.000841618
0.00075584
0.000671377
0.000588306
0.000506608
0.00042619
0.000346913
0.000268604
0.000191062
0.000113995
3.70575e-05
0.00163631
0.0015415
0.00144032
0.00134759
0.00125719
0.00116751
0.00107854
0.000990511
0.00090367
0.000818215
0.000734271
0.000651882
0.000571021
0.000491604
0.000413503
0.000336552
0.000260568
0.000185342
0.000110531
3.60278e-05
0.00169381
0.00156219
0.00144332
0.00133708
0.00123821
0.00114379
0.00105261
0.000964067
0.00087782
0.000793685
0.000711528
0.000631221
0.000552625
0.000475584
0.000399919
0.000325435
0.000251931
0.000179184
0.000106843
3.484e-05
0.00170997
0.00156291
0.00143414
0.00131964
0.00121504
0.00111727
0.00102456
0.000935818
0.000850335
0.000767631
0.000687357
0.000609235
0.000533022
0.000458487
0.000385403
0.000313543
0.000242683
0.000172586
0.000102896
3.35534e-05
0.00169676
0.00154524
0.00141223
0.00129367
0.00118605
0.00108657
0.000993328
0.00090501
0.000820688
0.00073969
0.000661513
0.000585763
0.000512105
0.000440247
0.000369915
0.000300851
0.000232809
0.000165541
9.86807e-05
3.21699e-05
0.00166127
0.00151107
0.0013779
0.00125858
0.00115035
0.00105082
0.000958178
0.000871057
0.000788437
0.000709542
0.000633772
0.000560648
0.000489769
0.000420793
0.000353409
0.000287331
0.000222294
0.000158038
9.41918e-05
3.06915e-05
0.00160772
0.00146221
0.00133185
0.00121435
0.00110757
0.00100954
0.000918634
0.000833547
0.000753252
0.000676936
0.000603947
0.000533756
0.000465921
0.000400062
0.000335843
0.000272955
0.000211121
0.000150068
8.94252e-05
2.91208e-05
0.00153911
0.00140041
0.00127502
0.00116133
0.0010577
0.000962545
0.00087445
0.000792236
0.000714919
0.000641695
0.000571901
0.000504987
0.000440489
0.000378005
0.000317183
0.000257703
0.000199276
0.000141625
8.43778e-05
2.74592e-05
0.00145776
0.00132726
0.0012084
0.00110004
0.00100096
0.000909859
0.000825562
0.000747018
0.000673326
0.00060372
0.000537553
0.000474277
0.000413425
0.000354589
0.000297409
0.000241561
0.000186752
0.000132704
7.90485e-05
2.57079e-05
0.00136546
0.00124412
0.00113294
0.00103111
0.000937693
0.000851666
0.000772039
0.000697905
0.000628454
0.00056298
0.000500872
0.000441603
0.000384713
0.000329803
0.000276514
0.000224526
0.000173548
0.000123305
7.34382e-05
2.38681e-05
0.00126366
0.00115218
0.00104954
0.000955176
0.000868348
0.000788246
0.000714054
0.000644995
0.000580359
0.000519508
0.000461879
0.000406975
0.000354362
0.000303655
0.000254507
0.000206606
0.000159671
0.000113434
6.75503e-05
2.19414e-05
0.00115356
0.00105247
0.000959059
0.000872888
0.000793399
0.000719943
0.000651848
0.00058846
0.000529162
0.00047339
0.000420635
0.000370444
0.000322411
0.000276176
0.000231411
0.00018782
0.000145135
0.000103101
6.13911e-05
1.99301e-05
0.00103616
0.000945904
0.00086225
0.000784876
0.000713346
0.000647142
0.000585716
0.000528521
0.000475031
0.000424755
0.000377243
0.000332088
0.000288923
0.000247416
0.000207267
0.0001682
0.000129965
9.23221e-05
5.49697e-05
1.78369e-05
0.000912369
0.000833293
0.000759839
0.000691754
0.000628698
0.000570258
0.000515991
0.000465445
0.000418178
0.000373772
0.000331837
0.000292016
0.000253985
0.000217447
0.000182131
0.000147788
0.00011419
8.11183e-05
4.82982e-05
1.56653e-05
0.000782965
0.000715387
0.000652503
0.000594118
0.000539965
0.000489721
0.000443031
0.000399527
0.000358847
0.000320641
0.000284581
0.000250363
0.000217706
0.000186355
0.000156072
0.000126637
9.785e-05
6.95158e-05
4.13912e-05
1.34193e-05
0.000648685
0.000592881
0.000540885
0.000492545
0.000447658
0.000405973
0.000367212
0.000331086
0.000297305
0.000265586
0.000235662
0.000207281
0.000180213
0.000154243
0.00012917
0.00010481
8.09903e-05
5.75451e-05
3.42656e-05
1.11036e-05
0.000510215
0.000466431
0.000425597
0.000387597
0.000352279
0.000319457
0.000288922
0.000260457
0.000233838
0.000208849
0.000185283
0.000162943
0.000141647
0.000121224
0.000101517
8.23758e-05
6.3662e-05
4.52405e-05
2.69407e-05
8.72351e-06
0.000368299
0.000336785
0.000307349
0.000279931
0.000254429
0.000230714
0.000208643
0.000188062
0.000168816
0.000150751
0.00013372
0.000117581
0.000102203
8.74625e-05
7.3244e-05
5.94377e-05
4.59414e-05
3.26544e-05
1.94471e-05
6.28896e-06
0.000224054
0.00020506
0.00018719
0.000170516
0.000154992
0.000140545
0.000127091
0.00011454
0.0001028
9.17814e-05
8.13954e-05
7.15578e-05
6.21887e-05
5.3213e-05
4.45595e-05
3.61608e-05
2.79534e-05
1.98745e-05
1.18394e-05
3.82257e-06
7.78341e-05
7.10185e-05
6.48369e-05
5.90684e-05
5.36947e-05
4.86868e-05
4.40152e-05
3.96517e-05
3.55677e-05
3.17346e-05
2.81237e-05
2.47072e-05
2.14578e-05
1.83495e-05
1.53575e-05
1.2458e-05
9.62918e-06
6.84933e-06
4.08571e-06
1.32008e-06
0.00262696
0.0024638
0.00235598
0.0022609
0.00217226
0.00208834
0.00200665
0.0019247
0.00183846
0.00173877
0.00273683
0.00258666
0.00246841
0.00235861
0.00225473
0.0021569
0.00206401
0.00197479
0.00188707
0.00179815
0.00270106
0.00256777
0.00245892
0.00235593
0.00225739
0.0021641
0.0020757
0.00199161
0.00191126
0.00183352
0.00264603
0.00252982
0.00243127
0.00233592
0.00224342
0.00215502
0.00207079
0.00199053
0.00191406
0.00184091
0.00256787
0.00246431
0.00237432
0.00228648
0.00220071
0.00211816
0.00203906
0.00196331
0.00189087
0.00182148
0.00247115
0.00237812
0.0022957
0.0022149
0.00213569
0.00205905
0.00198518
0.00191409
0.00184575
0.00178001
0.00235916
0.0022751
0.00219944
0.0021251
0.00205206
0.00198111
0.00191243
0.00184603
0.00178193
0.00172001
0.00223407
0.00215791
0.00208843
0.0020201
0.00195289
0.00188741
0.00182383
0.00176215
0.00170239
0.00164447
0.00209759
0.00202857
0.0019649
0.00190226
0.00184061
0.00178044
0.00172187
0.0016649
0.00160956
0.00155579
0.00195104
0.00188863
0.00183053
0.00177337
0.0017171
0.00166211
0.00160849
0.00155624
0.00150538
0.00145586
0.00179545
0.0017393
0.00168663
0.00163482
0.00158382
0.00153393
0.00148523
0.00143771
0.00139138
0.00134621
0.00163168
0.00158156
0.00153425
0.00148771
0.00144193
0.00139711
0.00135332
0.00131054
0.0012688
0.00122807
0.00146046
0.00141621
0.00137425
0.00133298
0.00129239
0.00125264
0.00121377
0.00117579
0.0011387
0.00110247
0.00128244
0.001244
0.0012074
0.00117141
0.00113603
0.00110138
0.00106748
0.00103434
0.00100195
0.000970313
0.00109824
0.00106558
0.00103439
0.00100374
0.00097361
0.000944097
0.00091522
0.000886978
0.000859369
0.000832388
0.000908464
0.00088161
0.000855899
0.000830638
0.000805817
0.000781504
0.000757711
0.000734438
0.000711682
0.000689438
0.000713731
0.000692724
0.000672573
0.00065278
0.000633338
0.000614294
0.000595659
0.000577428
0.000559599
0.000542167
0.000514691
0.000499615
0.000485139
0.00047091
0.000456929
0.000443229
0.000429816
0.000416685
0.000403833
0.000391265
0.000312041
0.000302681
0.000293807
0.000285154
0.000276684
0.000268409
0.000260332
0.000252454
0.000244797
0.000237431
0.000109361
0.000106822
0.000104025
0.00010116
9.83085e-05
9.54736e-05
9.26537e-05
8.9858e-05
8.70471e-05
8.39881e-05
0.0123188
0.0126572
0.0139402
0.0157579
0.0181185
0.0204586
0.0219777
0.0223501
0.0216628
0.0201926
0.0182415
0.016069
0.0138711
0.0117836
0.00988179
0.00821932
0.00677361
0.00563584
0.00455537
0.00406996
0.0120096
0.012338
0.0136182
0.0154354
0.0177881
0.0201208
0.0216321
0.0219986
0.0213082
0.0198411
0.0179013
0.0157483
0.0135763
0.0115186
0.0096482
0.00801492
0.00659539
0.00547121
0.00438461
0.00382001
0.0116616
0.0119792
0.0132569
0.0150696
0.0174148
0.0197377
0.021238
0.0215962
0.0209025
0.0194398
0.0175139
0.015384
0.0132424
0.0112193
0.00938487
0.0077854
0.00639593
0.00529023
0.00421476
0.00361679
0.0112744
0.0115828
0.0128548
0.014661
0.0169967
0.0193059
0.0207918
0.0211402
0.0204432
0.0189865
0.0170777
0.0149751
0.0128687
0.0108853
0.00909193
0.00753092
0.00617636
0.00509381
0.00404253
0.00342857
0.0108486
0.0111489
0.0124115
0.014209
0.0165323
0.0188229
0.0202907
0.0206274
0.0199271
0.0184786
0.0165905
0.0145201
0.0124545
0.0105163
0.00876935
0.00725179
0.00593721
0.00488281
0.00386527
0.00324584
0.0103849
0.0106772
0.011927
0.0137127
0.0160196
0.0182862
0.0197315
0.0200541
0.019351
0.0179133
0.0160502
0.0140176
0.0119987
0.0101119
0.00841711
0.00694829
0.00567885
0.00465773
0.00368114
0.00306483
0.0098838
0.0101677
0.0114012
0.0131712
0.0154565
0.0176926
0.0191102
0.0194162
0.0187109
0.0172872
0.0154545
0.0134658
0.0115005
0.00967166
0.00803514
0.00662067
0.00540159
0.00441887
0.0034888
0.00288311
0.0093458
0.00962081
0.0108338
0.0125831
0.0148405
0.0170382
0.0184219
0.0187089
0.0180024
0.0165968
0.0148005
0.0128631
0.0109588
0.0091951
0.00762343
0.00626915
0.00510569
0.00416646
0.00328734
0.00269902
0.00877166
0.00903676
0.0102246
0.0119471
0.0141685
0.0163183
0.0176611
0.0179263
0.0172204
0.0158379
0.0140853
0.0122075
0.0103725
0.00868177
0.00718192
0.00589396
0.00479144
0.00390071
0.00307621
0.0025114
0.00816222
0.00841601
0.00957319
0.0112616
0.0134368
0.0155272
0.0168212
0.017062
0.016359
0.0150059
0.0133055
0.0114967
0.00974046
0.0081312
0.00671062
0.00549533
0.00445913
0.00362183
0.00285517
0.00231945
0.00751848
0.00775907
0.00887919
0.0105245
0.0126411
0.0146583
0.0158943
0.0161081
0.0154116
0.0140956
0.0124576
0.0107287
0.00906144
0.00754294
0.00620953
0.00507357
0.00410909
0.00333009
0.00262416
0.00212264
0.00684164
0.00706662
0.00814215
0.00973332
0.0117758
0.0137039
0.0148715
0.015056
0.0143706
0.0131013
0.0115375
0.00990085
0.00833423
0.00691656
0.00567873
0.00462898
0.00374171
0.00302578
0.00238331
0.00192062
0.00613309
0.0063395
0.00736144
0.00888509
0.0108348
0.0126542
0.0137413
0.0138948
0.0132271
0.0120163
0.010541
0.00901072
0.00755756
0.00625167
0.00511835
0.00416195
0.00335743
0.00270928
0.0021329
0.00171324
0.0053945
0.00557872
0.00653631
0.00797594
0.00980965
0.0114988
0.0124933
0.0126139
0.0119718
0.0108336
0.00946322
0.00805557
0.00673018
0.00554795
0.00452861
0.00367295
0.00295679
0.00238102
0.0018733
0.00150046
0.00462778
0.0047857
0.00566562
0.00700126
0.00869193
0.0102217
0.0111068
0.0111958
0.010592
0.0095448
0.0082991
0.00703258
0.00585086
0.00480516
0.00390981
0.00316254
0.00254039
0.00204151
0.001605
0.00128238
0.00383507
0.00396167
0.00474832
0.00595432
0.00746689
0.00881384
0.00957829
0.00963354
0.00907843
0.00814169
0.00704323
0.00593885
0.00491843
0.00402318
0.00326239
0.00263137
0.00210893
0.00169132
0.00132854
0.00105922
0.00301944
0.00310796
0.00378032
0.00482981
0.00612444
0.00723809
0.00785592
0.00788595
0.00740665
0.00661152
0.00568909
0.00477133
0.00393182
0.00320205
0.00258694
0.00208025
0.00166324
0.00133117
0.0010446
0.000831284
0.00218421
0.00223113
0.00276407
0.0036083
0.00464245
0.00551733
0.00598622
0.00598551
0.00558712
0.00495294
0.00423295
0.00352752
0.00289017
0.00234208
0.00188444
0.0015104
0.00120456
0.000962094
0.000754132
0.000599153
0.00133212
0.00132588
0.00169538
0.00230909
0.00298068
0.00350555
0.00378625
0.00378349
0.00352915
0.00312112
0.0026559
0.00220084
0.00179251
0.0014447
0.00115712
0.000924088
0.000734888
0.000585649
0.000458439
0.000363634
0.000467185
0.00039568
0.000518075
0.00086836
0.00124169
0.00147959
0.00157667
0.00154388
0.00140505
0.00120872
0.00100033
0.000808459
0.000645065
0.000511712
0.000405018
0.000320637
0.000253319
0.000200864
0.000156725
0.000123973
0.0132607
0.0135899
0.0148775
0.0167119
0.0190775
0.0214353
0.0229679
0.0233525
0.0226765
0.0212024
0.0192244
0.017001
0.0147321
0.0125604
0.0105689
0.00881766
0.0072945
0.00609045
0.00502889
0.0046545
0.0132041
0.0135365
0.0148272
0.0166554
0.0190248
0.0213825
0.0229138
0.0232973
0.0226202
0.0211459
0.019169
0.0169483
0.0146832
0.0125163
0.0105298
0.00878467
0.00726578
0.00607175
0.00502044
0.00466266
0.0131402
0.0134778
0.0147682
0.0165929
0.0189641
0.0213208
0.0228513
0.0232341
0.022556
0.0210816
0.0191063
0.0168886
0.0146279
0.0124664
0.0104855
0.00874676
0.00723308
0.00604741
0.00500333
0.00465375
0.01307
0.0134113
0.0147015
0.0165234
0.0188958
0.0212513
0.0227811
0.023163
0.022484
0.0210096
0.0190359
0.0168217
0.0145659
0.0124104
0.010436
0.00870404
0.00719607
0.0060181
0.00497866
0.00463778
0.0129935
0.0133371
0.0146273
0.0164467
0.0188198
0.0211741
0.022703
0.023084
0.0224039
0.0209296
0.0189579
0.0167476
0.0144973
0.0123485
0.0103811
0.00865654
0.00715472
0.00598396
0.00494671
0.00461196
0.0129106
0.0132552
0.0145456
0.0163628
0.0187362
0.0210892
0.0226171
0.022997
0.0223158
0.0208417
0.0188722
0.0166662
0.0144221
0.0122805
0.0103209
0.00860423
0.00710904
0.00594495
0.00490754
0.00457517
0.0128212
0.0131657
0.0144563
0.0162718
0.0186448
0.0209964
0.0225231
0.0229018
0.0222195
0.0207457
0.0187787
0.0165775
0.0143401
0.0122065
0.0102554
0.00854714
0.00705908
0.00590113
0.00486123
0.00452781
0.0127254
0.0130686
0.0143596
0.0161736
0.0185457
0.0208956
0.022421
0.0227984
0.0221149
0.0206416
0.0186774
0.0164815
0.0142514
0.0121265
0.0101845
0.00848527
0.00700487
0.0058526
0.00480785
0.00447155
0.0126233
0.0129639
0.0142552
0.0160682
0.0184388
0.0207868
0.0223106
0.0226866
0.022002
0.0205293
0.0185682
0.016378
0.0141559
0.0120403
0.0101083
0.00841863
0.0069465
0.0057994
0.00474714
0.00440656
0.0125142
0.0128527
0.0141427
0.0159562
0.0183239
0.0206695
0.0221917
0.0225663
0.0218806
0.0204086
0.0184511
0.0162672
0.0140537
0.0119482
0.0100269
0.00834716
0.00688422
0.00574122
0.00467868
0.00431593
)
;

boundaryField
{
    inlet
    {
        type            zeroGradient;
    }
    outlet
    {
        type            fixedValue;
        value           uniform 0;
    }
    upAndBottom
    {
        type            empty;
    }
    obstacle
    {
        type            zeroGradient;
    }
}


// ************************************************************************* //
