/*--------------------------------*- C++ -*----------------------------------*\
| =========                 |                                                 |
| \\      /  F ield         | OpenFOAM: The Open Source CFD Toolbox           |
|  \\    /   O peration     | Version:  v1806                                 |
|   \\  /    A nd           | Web:      www.OpenFOAM.com                      |
|    \\/     M anipulation  |                                                 |
\*---------------------------------------------------------------------------*/
FoamFile
{
    version     2.0;
    format      ascii;
    class       surfaceScalarField;
    location    "8";
    object      phi;
}
// * * * * * * * * * * * * * * * * * * * * * * * * * * * * * * * * * * * * * //

dimensions      [0 3 -1 0 0 0 0];
oriented        oriented;


internalField   nonuniform List<scalar> 
4680
(
0.749743
-0.00891992
0.750575
-0.00393556
0.751609
0.00985405
0.749454
-0.0367516
0.747002
-0.0675619
0.749503
-0.0345439
0.752923
0.0136895
0.751807
-0.0643004
0.745189
-0.140834
0.744873
-0.154369
0.748744
-0.065632
0.752947
-0.104282
0.748876
-0.206294
0.741282
-0.315578
0.73656
-0.320146
0.735246
-0.332643
0.730743
-0.403254
0.720293
-0.536368
0.702827
-0.639632
-0.732618
0.681993
0.749869
-0.00878929
0.750318
-0.00438434
0.751466
0.00870622
0.749353
-0.034639
0.746677
-0.0648858
0.748895
-0.0367614
0.751592
0.010992
0.751473
-0.0641812
0.744604
-0.133964
0.743785
-0.153551
0.745075
-0.0669217
0.749346
-0.108554
0.744542
-0.20149
0.73714
-0.308176
0.728126
-0.311133
0.724964
-0.329481
0.716557
-0.394847
0.705299
-0.525109
0.684103
-0.618436
-0.700468
0.651952
0.749881
-0.00866989
0.749901
-0.00440426
0.751144
0.00746293
0.749188
-0.0326834
0.747003
-0.0627008
0.748273
-0.0380312
0.750247
0.00901766
0.750668
-0.0646015
0.743831
-0.127127
0.742742
-0.152462
0.742116
-0.0662959
0.746317
-0.112755
0.740743
-0.195916
0.733311
-0.300744
0.723223
-0.301045
0.720715
-0.326973
0.712344
-0.386476
0.703491
-0.516256
0.686364
-0.60131
-0.682384
0.668281
0.749687
-0.00835649
0.749779
-0.0044969
0.750974
0.00626837
0.749043
-0.0307526
0.747116
-0.0607736
0.747714
-0.0386289
0.749423
0.007308
0.750005
-0.065183
0.742852
-0.119975
0.741297
-0.150907
0.739041
-0.0640395
0.743399
-0.117113
0.737111
-0.189628
0.729958
-0.293591
0.718655
-0.289741
0.714735
-0.323054
0.703969
-0.37571
0.693147
-0.505435
0.670309
-0.578472
-0.650656
0.638581
0.749668
-0.00802416
0.749779
-0.00460821
0.750766
0.00528166
0.749098
-0.0290847
0.747318
-0.0589934
0.747157
-0.038468
0.748667
0.00579744
0.748867
-0.0653833
0.741643
-0.11275
0.739998
-0.149262
0.73659
-0.0606316
0.740766
-0.121289
0.73333
-0.182191
0.726367
-0.286628
0.713876
-0.27725
0.709344
-0.318522
0.697648
-0.364014
0.688532
-0.496319
0.669467
-0.559406
-0.634909
0.653719
0.749741
-0.0077656
0.749874
-0.00474114
0.750741
0.00441516
0.7491
-0.0274442
0.747114
-0.0570071
0.746514
-0.0378679
0.74799
0.00432184
0.747597
-0.0649903
0.740691
-0.105844
0.738613
-0.147185
0.734248
-0.0562663
0.738595
-0.125636
0.729807
-0.173403
0.723034
-0.279855
0.709314
-0.263531
0.704181
-0.313388
0.691787
-0.351619
0.681992
-0.486525
0.657808
-0.535222
-0.605655
0.628554
0.749987
-0.0077526
0.749884
-0.00463805
0.750604
0.00369511
0.748977
-0.0258173
0.746778
-0.0548082
0.745904
-0.0369941
0.74727
0.00295624
0.74644
-0.0641607
0.739947
-0.0993507
0.737118
-0.144356
0.732666
-0.0518149
0.736344
-0.129313
0.725761
-0.162819
0.719906
-0.274001
0.704971
-0.248595
0.699783
-0.308201
0.685718
-0.337554
0.675974
-0.476781
0.653797
-0.513045
-0.593156
0.641298
0.750176
-0.00792903
0.749603
-0.00406491
0.750538
0.0027605
0.748675
-0.0239548
0.746367
-0.0524994
0.745425
-0.0360526
0.74673
0.00165126
0.745474
-0.0629044
0.739343
-0.0932202
0.735782
-0.140795
0.731095
-0.0471276
0.733554
-0.131772
0.722386
-0.151652
0.717183
-0.268798
0.700234
-0.231645
0.695086
-0.303054
0.680444
-0.322912
0.67106
-0.467396
0.646253
-0.488238
-0.571167
0.624264
0.750105
-0.00803411
0.749267
-0.00322705
0.750502
0.00152612
0.74831
-0.0217633
0.746324
-0.0505139
0.745032
-0.0347605
0.746321
0.000363065
0.744706
-0.0612896
0.738714
-0.087228
0.733927
-0.136008
0.729542
-0.0427431
0.731097
-0.133327
0.719218
-0.139773
0.713987
-0.263566
0.69569
-0.213349
0.691594
-0.298957
0.674467
-0.305785
0.664315
-0.457244
0.640356
-0.46428
-0.561215
0.630405
0.749816
-0.00785055
0.749122
-0.00253294
0.750511
0.000137344
0.748197
-0.0194496
0.746493
-0.0488098
0.744509
-0.0327764
0.746066
-0.00119417
0.743565
-0.0587884
0.737854
-0.0815163
0.732261
-0.130415
0.728517
-0.0389993
0.728328
-0.133138
0.716432
-0.127877
0.711348
-0.258482
0.691365
-0.193366
0.687335
-0.294928
0.668394
-0.286844
0.660124
-0.448975
0.635261
-0.439417
-0.551438
0.625484
0.749627
-0.00747791
0.749355
-0.00226079
0.750461
-0.000967998
0.74829
-0.0172786
0.746474
-0.0469941
0.743769
-0.0300713
0.745639
-0.00306448
0.742151
-0.0552999
0.737468
-0.0768337
0.730698
-0.123646
0.727719
-0.0360203
0.725858
-0.131277
0.714075
-0.116095
0.707813
-0.25222
0.68723
-0.172782
0.68457
-0.292268
0.662524
-0.264798
0.653826
-0.440277
0.628237
-0.413827
-0.547232
0.62403
0.749772
-0.00724978
0.749571
-0.00205969
0.750089
-0.00148653
0.748367
-0.0155558
0.746035
-0.0446627
0.743145
-0.0271815
0.74537
-0.00528908
0.740922
-0.050852
0.737431
-0.0733427
0.728994
-0.115209
0.72714
-0.0341662
0.722799
-0.126935
0.711741
-0.105036
0.704691
-0.24517
0.683985
-0.152075
0.680476
-0.28876
0.655608
-0.23993
0.650217
-0.434886
0.623141
-0.386751
-0.545611
0.621521
0.749883
-0.00713317
0.749317
-0.00149322
0.749618
-0.00178741
0.748368
-0.0143059
0.745574
-0.0418689
0.743131
-0.0247381
0.745099
-0.00725776
0.739952
-0.0457046
0.737316
-0.0707065
0.726895
-0.104788
0.726668
-0.0339393
0.719893
-0.12016
0.710544
-0.095688
0.700433
-0.235059
0.680406
-0.132049
0.677146
-0.2855
0.650045
-0.212829
0.645141
-0.429982
0.61418
-0.355789
-0.551591
0.62016
0.749539
-0.00667167
0.749091
-0.00104568
0.749521
-0.00221787
0.748354
-0.0131384
0.745429
-0.038944
0.743249
-0.022558
0.744325
-0.00833371
0.73928
-0.0406598
0.736847
-0.0682732
0.725273
-0.0932142
0.726568
-0.0352347
0.716552
-0.110144
0.709816
-0.0889523
0.695934
-0.221176
0.678236
-0.11435
0.672109
-0.279373
0.643111
-0.18383
0.641685
-0.428557
0.606421
-0.320525
-0.565045
0.619875
0.749192
-0.00586405
0.749478
-0.001331
0.749369
-0.00210908
0.748256
-0.012026
0.745273
-0.0359609
0.742986
-0.0202703
0.74354
-0.00888849
0.739104
-0.0362236
0.735897
-0.0650659
0.724337
-0.0816547
0.726135
-0.037032
0.713681
-0.0976897
0.709579
-0.0848503
0.690538
-0.202135
0.677538
-0.101351
0.666467
-0.268302
0.638207
-0.15557
0.636466
-0.426815
0.594208
-0.278267
-0.592983
0.622145
0.749214
-0.0050785
0.749697
-0.00181316
0.748868
-0.00128087
0.748365
-0.0115224
0.744843
-0.0324391
0.742848
-0.0182749
0.743039
-0.00907977
0.738918
-0.0321029
0.734649
-0.0607969
0.724203
-0.0712087
0.724922
-0.0377512
0.711475
-0.0842424
0.709417
-0.0827922
0.685617
-0.178336
0.67818
-0.0939138
0.656966
-0.247088
0.633487
-0.132092
0.630821
-0.424149
0.58305
-0.230497
-0.6401
0.630167
0.74916
-0.00423839
0.749469
-0.00212269
0.748736
-0.000547112
0.7485
-0.0112866
0.744315
-0.0282541
0.743095
-0.0170554
0.742343
-0.00832727
0.738664
-0.0284235
0.733569
-0.0557028
0.724137
-0.0617758
0.723245
-0.0368598
0.710967
-0.0719639
0.707969
-0.0797949
0.681531
-0.151898
0.678603
-0.0909853
0.648553
-0.217037
0.634207
-0.117746
0.617445
-0.407387
0.568962
-0.182013
-0.722337
0.651199
0.749047
-0.00328559
0.749446
-0.00252137
0.748843
5.61749e-05
0.748315
-0.0107588
0.744159
-0.0240984
0.743152
-0.0160482
0.741505
-0.00667999
0.738786
-0.0257053
0.732528
-0.0494445
0.724092
-0.0533397
0.721376
-0.0341442
0.710976
-0.0615641
0.705196
-0.0740146
0.680798
-0.1275
0.677332
-0.0875191
0.640109
-0.179815
0.636419
-0.114056
0.592308
-0.363276
0.556857
-0.146563
-0.848622
0.683142
0.749134
-0.00242008
0.749436
-0.00282276
0.748811
0.000680642
0.748141
-0.0100887
0.744245
-0.0202017
0.742798
-0.0146019
0.741382
-0.00526394
0.738608
-0.0229307
0.731522
-0.0423587
0.724113
-0.0459312
0.720165
-0.0301955
0.711158
-0.0525569
0.701248
-0.0641054
0.682321
-0.108573
0.672403
-0.0776006
0.64058
-0.147992
0.631705
-0.105181
0.572869
-0.30444
0.55884
-0.132534
-0.9712
0.681419
0.749187
-0.00160697
0.749329
-0.00296524
0.748826
0.00118364
0.748084
-0.00934618
0.744255
-0.0163725
0.742432
-0.0127791
0.741513
-0.0043449
0.737882
-0.0193004
0.731663
-0.0361395
0.723401
-0.0376691
0.719536
-0.0263308
0.71053
-0.04355
0.700045
-0.0536211
0.682945
-0.0914722
0.666451
-0.0611063
0.644797
-0.126338
0.62347
-0.0838536
0.572328
-0.253298
0.599137
-0.159343
0.735013
-1.10708
0.673838
-0.102489
0.668522
-0.105621
0.663754
-0.107818
0.659155
-0.109727
0.654398
-0.111581
0.649395
-0.113218
0.644178
-0.115039
0.638719
-0.116691
0.632992
-0.118505
-0.120387
0.62741
0.652668
-0.103206
0.650268
-0.103221
0.646774
-0.104324
0.64241
-0.105364
0.637718
-0.106889
0.632924
-0.108424
0.628052
-0.110167
0.623076
-0.111715
0.618051
-0.11348
-0.114853
0.612517
0.659633
-0.094558
0.653713
-0.0973006
0.648695
-0.0993061
0.644449
-0.101118
0.640306
-0.102746
0.63588
-0.103999
0.631173
-0.10546
0.626196
-0.106738
0.620957
-0.108241
-0.10977
0.615874
0.639426
-0.095403
0.637434
-0.0953079
0.634314
-0.0961862
0.630208
-0.0970122
0.625739
-0.0982767
0.621243
-0.0995029
0.616717
-0.100933
0.612127
-0.102148
0.60751
-0.103624
-0.104753
0.602493
0.645875
-0.0875588
0.640584
-0.0900173
0.636221
-0.0918236
0.632611
-0.093402
0.629057
-0.0947223
0.625255
-0.0957011
0.621222
-0.0969004
0.617
-0.0979256
0.612557
-0.099181
-0.100342
0.608147
0.629605
-0.0886095
0.628092
-0.0885047
0.625458
-0.0891888
0.62183
-0.0897741
0.617916
-0.0908086
0.614001
-0.091786
0.610052
-0.0929519
0.606036
-0.0939095
0.601941
-0.0950862
-0.0959342
0.597533
0.634687
-0.0819984
0.630689
-0.0845068
0.627491
-0.0859902
0.624711
-0.0869942
0.621789
-0.0878866
0.618646
-0.0886429
0.615281
-0.0895874
0.611724
-0.0903524
0.607916
-0.0912786
-0.0920719
0.604054
0.625428
-0.0831626
0.623593
-0.0826716
0.620843
-0.0832405
0.617757
-0.0839077
0.61457
-0.0846997
0.611278
-0.0853506
0.607803
-0.0861131
0.604165
-0.0867144
0.600367
-0.0874806
-0.08794
0.596235
0.627767
-0.080525
0.625289
-0.0801939
0.623038
-0.0809886
0.620676
-0.0815463
0.618093
-0.0821164
0.615328
-0.0825854
0.612359
-0.0831442
0.609191
-0.0835464
0.60575
-0.0840396
-0.0843844
0.602194
0.623607
-0.0786486
0.621447
-0.0780334
0.619049
-0.0785912
0.616472
-0.0789694
0.613714
-0.079358
0.610759
-0.0796305
0.607591
-0.079976
0.604217
-0.0801728
0.600635
-0.080457
-0.0805568
0.596807
0.622762
-0.0773806
0.621335
-0.0766063
0.619674
-0.0769303
0.617776
-0.0770709
0.615688
-0.0772701
0.613384
-0.0773262
0.610879
-0.0774716
0.608147
-0.0774401
0.60519
-0.0775001
-0.0773427
0.601976
0.620541
-0.0764013
0.619229
-0.0752943
0.617678
-0.0753792
0.615817
-0.0752097
0.613744
-0.0751974
0.611401
-0.0749832
0.608878
-0.0749485
0.6061
-0.0746625
0.603151
-0.0745509
-0.0741498
0.599958
0.619932
-0.0761729
0.619452
-0.074815
0.618681
-0.0746078
0.617519
-0.0740474
0.61618
-0.0738586
0.614549
-0.073352
0.612827
-0.0732265
0.610847
-0.0726831
0.608828
-0.0725316
-0.0717984
0.606477
0.620491
-0.0767888
0.620636
-0.0749604
0.62033
-0.0743013
0.619489
-0.073207
0.618456
-0.0728258
0.617048
-0.0719435
0.615609
-0.0717871
0.613828
-0.0709021
0.612096
-0.0707999
-0.0699677
0.610265
0.624096
-0.0787391
0.625428
-0.0762924
0.626249
-0.075123
0.626466
-0.0734235
0.626311
-0.0726709
0.625724
-0.071357
0.625138
-0.0712011
0.624143
-0.0699064
0.623235
-0.0698927
-0.0687846
0.622052
0.632913
-0.0814849
0.634558
-0.0779376
0.635458
-0.0760227
0.635736
-0.0737015
0.635873
-0.0728081
0.635528
-0.071012
0.63515
-0.0708235
0.634286
-0.0690421
0.633618
-0.0692241
-0.0667858
0.631619
0.651004
-0.0812902
0.651331
-0.0782642
0.650519
-0.0752114
0.649375
-0.0725577
0.647906
-0.0713391
0.64636
-0.0694655
0.64453
-0.0689933
0.642528
-0.0670401
0.640311
-0.0670073
-0.0651181
0.638643
0.685409
-0.0835575
0.681059
-0.0739139
0.674406
-0.0685582
0.667319
-0.0654714
0.659651
-0.063671
0.651945
-0.0617592
0.643637
-0.0606856
0.635594
-0.0589973
0.627347
-0.0587604
-0.0565498
0.618779
0.671315
-0.0734535
0.659858
-0.0624571
0.646911
-0.0556115
0.633336
-0.0518959
0.618382
-0.0487174
0.602982
-0.0463585
0.586369
-0.0440732
0.57066
-0.0432879
0.553736
-0.0418368
-0.0433414
0.540528
0.661559
0.599102
0.54349
0.491595
0.442877
0.396519
0.352446
0.309158
0.267321
0.223979
0.59709
-0.596852
0.562147
-0.644002
0.520754
-0.675693
0.473647
-0.693908
0.42438
-0.709815
0.374923
-0.717472
0.325051
-0.706555
0.275238
-0.677907
0.22757
-0.637934
0.184401
-0.591164
0.147199
-0.539948
0.116331
-0.48603
0.0913524
-0.431031
0.0714259
-0.376289
0.0556566
-0.322651
0.0432897
-0.270333
0.0337291
-0.21906
0.0267173
-0.167511
0.0222886
-0.115166
-0.050714
0.584971
-0.569306
0.553265
-0.612297
0.515802
-0.63823
0.473572
-0.651678
0.429934
-0.666177
0.386555
-0.674093
0.34277
-0.662771
0.298381
-0.633517
0.254874
-0.594428
0.214278
-0.550568
0.178041
-0.503711
0.146831
-0.45482
0.120659
-0.40486
0.0990556
-0.354686
0.0813369
-0.304932
0.0668754
-0.255871
0.0552252
-0.20741
0.0463037
-0.158589
0.0407464
-0.109608
-0.0487253
0.588558
-0.54199
0.556641
-0.580379
0.518488
-0.600078
0.475336
-0.608525
0.430768
-0.621609
0.386278
-0.629604
0.341204
-0.617696
0.295673
-0.587986
0.251636
-0.550391
0.211449
-0.510381
0.176485
-0.468746
0.147042
-0.425377
0.122847
-0.380665
0.103347
-0.335185
0.0878342
-0.28942
0.0755946
-0.243632
0.0660855
-0.197901
0.0590701
-0.151574
0.0554129
-0.105951
-0.0477738
0.577847
-0.517344
0.54898
-0.551513
0.514376
-0.565474
0.476066
-0.570215
0.437477
-0.58302
0.399284
-0.591411
0.35992
-0.578332
0.31882
-0.546887
0.277409
-0.508979
0.237917
-0.470889
0.202114
-0.432943
0.170841
-0.394104
0.144245
-0.354069
0.122163
-0.313103
0.1043
-0.271557
0.0902702
-0.229602
0.0797219
-0.187352
0.0723368
-0.144189
0.068986
-0.1026
-0.0472167
0.584348
-0.493545
0.554645
-0.521809
0.518378
-0.529207
0.478459
-0.530295
0.438432
-0.542994
0.3984
-0.551379
0.356722
-0.536654
0.313727
-0.503891
0.271937
-0.46719
0.233872
-0.432824
0.20081
-0.399882
0.172855
-0.366149
0.149494
-0.330708
0.130088
-0.293697
0.114116
-0.255585
0.101244
-0.21673
0.0913582
-0.177467
0.0843192
-0.13715
0.0811978
-0.0994791
-0.0468324
0.574947
-0.470959
0.546879
-0.493741
0.513771
-0.496099
0.479392
-0.495917
0.446156
-0.509757
0.412612
-0.517835
0.376079
-0.50012
0.336123
-0.463935
0.294961
-0.426028
0.255529
-0.393392
0.219937
-0.364289
0.189182
-0.335395
0.16346
-0.304986
0.142453
-0.27269
0.125614
-0.238745
0.112395
-0.203511
0.102467
-0.167539
0.0954662
-0.130149
0.0923055
-0.0963184
-0.0464367
0.5823
-0.449205
0.553216
-0.464657
0.518304
-0.461188
0.482369
-0.459982
0.447435
-0.474823
0.411045
-0.481445
0.371061
-0.460136
0.328904
-0.421779
0.288191
-0.385315
0.251694
-0.356895
0.220141
-0.332736
0.193173
-0.308426
0.170239
-0.282053
0.150948
-0.253399
0.135038
-0.222835
0.122288
-0.190761
0.112609
-0.15786
0.105703
-0.123244
0.102413
-0.093028
-0.0459246
0.574161
-0.42713
0.546415
-0.436912
0.515551
-0.430324
0.485994
-0.430424
0.457751
-0.446581
0.426801
-0.450494
0.390205
-0.423541
0.348872
-0.380446
0.30639
-0.342833
0.266667
-0.317172
0.23205
-0.298119
0.203078
-0.279453
0.17925
-0.258225
0.159782
-0.233932
0.144008
-0.207061
0.131462
-0.178214
0.121949
-0.148347
0.115107
-0.116402
0.111629
-0.0895497
-0.045232
0.581599
-0.406535
0.554138
-0.409451
0.522616
-0.398802
0.491654
-0.399463
0.460311
-0.415237
0.424254
-0.414438
0.382573
-0.38186
0.339264
-0.337136
0.298944
-0.302512
0.263557
-0.281785
0.233171
-0.267734
0.207266
-0.253548
0.185347
-0.236306
0.167004
-0.215589
0.151901
-0.191958
0.139759
-0.166071
0.130476
-0.139064
0.123714
-0.10964
0.120034
-0.08587
-0.0443259
0.575443
-0.385171
0.549832
-0.38384
0.523188
-0.372157
0.498571
-0.374846
0.472486
-0.389151
0.439596
-0.381549
0.398678
-0.340942
0.353334
-0.291792
0.309314
-0.258492
0.270785
-0.243257
0.238846
-0.235795
0.21274
-0.227442
0.191294
-0.21486
0.173585
-0.19788
0.159037
-0.17741
0.147294
-0.154328
0.138249
-0.13002
0.131577
-0.102968
0.127701
-0.0819939
-0.0431927
0.58385
-0.367045
0.561144
-0.361134
0.53546
-0.346474
0.508507
-0.347893
0.475754
-0.356398
0.433713
-0.339507
0.386205
-0.293434
0.340506
-0.246093
0.300585
-0.218571
0.26702
-0.209692
0.238984
-0.207759
0.215493
-0.203951
0.195742
-0.195109
0.179152
-0.181289
0.16535
-0.163608
0.154086
-0.143065
0.14531
-0.121243
0.138747
-0.0964049
0.134692
-0.0779396
-0.0418322
0.582869
-0.349955
0.563585
-0.341849
0.541934
-0.324824
0.517891
-0.32385
0.486151
-0.324658
0.443383
-0.296739
0.393166
-0.243217
0.343548
-0.196475
0.300973
-0.175996
0.266937
-0.175656
0.239904
-0.180725
0.217889
-0.181936
0.19951
-0.17673
0.183995
-0.165775
0.170963
-0.150575
0.160207
-0.132309
0.151713
-0.11275
0.145273
-0.0899642
0.141063
-0.0737297
-0.0402518
0.594803
-0.338282
0.579272
-0.326319
0.556406
-0.301957
0.524982
-0.292426
0.480512
-0.280189
0.425429
-0.241656
0.37065
-0.188438
0.324512
-0.150337
0.288526
-0.140011
0.260514
-0.147644
0.237846
-0.158057
0.21876
-0.16285
0.202325
-0.160295
0.188105
-0.151555
0.175926
-0.138397
0.165711
-0.122093
0.157512
-0.104552
0.151205
-0.0836565
0.146862
-0.0693875
-0.0384636
0.601959
-0.329975
0.587853
-0.312214
0.56225
-0.276354
0.525854
-0.25603
0.476445
-0.23078
0.417143
-0.182355
0.358938
-0.130232
0.312194
-0.103593
0.278721
-0.106537
0.25453
-0.123453
0.235417
-0.138944
0.219066
-0.146499
0.204564
-0.145793
0.191656
-0.138647
0.180342
-0.127083
0.170669
-0.11242
0.162763
-0.0966457
0.156591
-0.0774848
0.152137
-0.0649329
-0.0364815
0.618949
-0.326871
0.603048
-0.296314
0.566613
-0.239919
0.512358
-0.201774
0.444118
-0.16254
0.375106
-0.113343
0.320486
-0.0756126
0.28428
-0.0673869
0.261536
-0.0837932
0.245399
-0.107316
0.231622
-0.125167
0.218659
-0.133536
0.206298
-0.133432
0.19475
-0.127099
0.184295
-0.116628
0.175149
-0.103274
0.16752
-0.0890169
0.161479
-0.0714429
0.156927
-0.060381
-0.0343194
0.628646
-0.323898
0.604159
-0.271826
0.551881
-0.187641
0.482735
-0.132628
0.405063
-0.0848681
0.333584
-0.0418635
0.283916
-0.0259448
0.257766
-0.0412373
0.245145
-0.0711723
0.236615
-0.098786
0.2279
-0.116451
0.21816
-0.123796
0.207825
-0.123098
0.197549
-0.116823
0.187886
-0.106965
0.17922
-0.0946078
0.171837
-0.0816341
0.165909
-0.0655148
0.161269
-0.055741
-0.0319898
0.627612
-0.312868
0.586234
-0.230448
0.508538
-0.109946
0.414233
-0.0383231
0.324839
0.00452595
0.26169
0.021286
0.232618
0.00312686
0.226584
-0.0352027
0.228002
-0.0725908
0.228094
-0.0988776
0.224514
-0.112872
0.217836
-0.117118
0.209344
-0.114606
0.200188
-0.107666
0.191207
-0.0979838
0.182944
-0.0863453
0.175761
-0.0744507
0.169921
-0.0596747
0.165196
-0.051016
-0.029503
0.574481
-0.268569
0.506648
-0.162615
0.412178
-0.0154753
0.305766
0.0680883
0.221093
0.0891993
0.183939
0.0584402
0.185111
0.00195495
0.200624
-0.0507159
0.214668
-0.0866348
0.221897
-0.106106
0.222428
-0.113403
0.21816
-0.11285
0.211099
-0.107545
0.202803
-0.0993703
0.194339
-0.0895192
0.186378
-0.0783841
0.179333
-0.0674064
0.173546
-0.0538878
0.168735
-0.0462044
-0.0268668
0.448174
-0.176215
0.367126
-0.0815674
0.265866
0.085785
0.162955
0.170999
0.112615
0.13954
0.120206
0.0508494
0.152483
-0.0303222
0.18465
-0.0828834
0.207302
-0.109287
0.219148
-0.117952
0.222258
-0.116513
0.219469
-0.110061
0.213277
-0.101353
0.205501
-0.0915946
0.197347
-0.0813653
0.189563
-0.0706007
0.182587
-0.0604297
0.176811
-0.0481125
0.171908
-0.0413011
-0.0240848
0.104757
-0.0569927
0.0741
-0.0509106
0.0313827
0.128502
0.00669068
0.195691
0.032461
0.113769
0.0853926
-0.00208219
0.139033
-0.0839631
0.180646
-0.124496
0.207259
-0.135899
0.220717
-0.13141
0.224493
-0.12029
0.222016
-0.107584
0.216002
-0.0953387
0.208348
-0.0839403
0.200271
-0.0732892
0.192534
-0.0628631
0.185544
-0.0534402
0.17974
-0.042308
0.174732
-0.0362928
-0.0211559
0.00293093
-0.0599236
-0.0091908
-0.0387888
-0.0216745
0.140986
-0.017682
0.191699
0.00562549
0.0904618
0.0337673
-0.030224
0.05811
-0.108306
0.0753011
-0.141687
0.0854931
-0.146091
0.0902318
-0.136149
0.0912289
-0.121287
0.0899135
-0.106268
0.087329
-0.0927543
0.0841788
-0.0807901
0.0809013
-0.0700117
0.077788
-0.0597498
0.0749595
-0.0506116
0.0726351
-0.0399837
0.0705756
-0.0342333
-0.0199535
-0.00699027
-0.0529334
-0.0244912
-0.0212879
-0.0351764
0.151671
-0.0234678
0.17999
0.00608655
0.0609074
0.0369405
-0.061078
0.061838
-0.133203
0.0784735
-0.158323
0.0877879
-0.155406
0.091764
-0.140125
0.0922488
-0.121771
0.0906387
-0.104658
0.0878994
-0.090015
0.0846708
-0.0775615
0.0813524
-0.0666933
0.0782159
-0.0566132
0.0753682
-0.047764
0.0730307
-0.0376463
0.0709498
-0.0321523
-0.0187325
-0.0145938
-0.0383396
-0.0341883
-0.00169341
-0.0420654
0.159548
-0.0234408
0.161366
0.0104782
0.0269884
0.0425909
-0.0931907
0.0670288
-0.157641
0.08251
-0.173804
0.0905961
-0.163492
0.0935916
-0.14312
0.0934272
-0.121607
0.0914412
-0.102672
0.0885022
-0.0870759
0.085171
-0.0742303
0.0817985
-0.0633208
0.0786304
-0.0534452
0.0757602
-0.0448937
0.0734052
-0.0352912
0.0713048
-0.030052
-0.017492
-0.0184894
-0.0198502
-0.0386928
0.01851
-0.0424661
0.163322
-0.0178607
0.13676
0.0184205
-0.00929284
0.0504154
-0.125186
0.0734894
-0.180715
0.0872714
-0.187586
0.0938199
-0.17004
0.0956547
-0.144955
0.0947328
-0.120685
0.0923065
-0.100246
0.0891308
-0.0839002
0.0856761
-0.0707756
0.0822375
-0.0598822
0.0790311
-0.0502388
0.076134
-0.0419967
0.0737596
-0.0329168
0.0716385
-0.0279309
-0.0162326
-0.0196871
-0.000163094
-0.0382522
0.0370751
-0.0367448
0.161814
-0.00711847
0.107134
0.0295971
-0.0460084
0.0602124
-0.155801
0.0810083
-0.201511
0.0925597
-0.199137
0.0973142
-0.174795
0.0978677
-0.145509
0.0961226
-0.11894
0.0932154
-0.0973387
0.0897772
-0.080462
0.0861829
-0.0671813
0.0826681
-0.0563674
0.0794172
-0.0469879
0.0764894
-0.0390689
0.0740938
-0.0305212
0.0719507
-0.0257878
-0.0149552
-0.018857
0.0186939
-0.0331717
0.0513897
-0.0253012
0.153944
0.00801002
0.0738226
0.0437988
-0.0817972
0.07176
-0.183762
0.0893791
-0.21913
0.0981938
-0.207952
0.10094
-0.177541
0.100142
-0.144711
0.0975495
-0.116347
0.094146
-0.0939352
0.090432
-0.076748
0.0866875
-0.0634367
0.0830887
-0.0527687
0.079788
-0.0436872
0.0768261
-0.036107
0.0744076
-0.0281027
0.0722414
-0.0236216
-0.0136605
-0.0144551
0.0331491
-0.023234
0.0601686
-0.00847938
0.139189
0.0269737
0.0383695
0.0606106
-0.115434
0.0846986
-0.20785
0.0983409
-0.232772
0.10399
-0.213602
0.104568
-0.178118
0.102395
-0.142538
0.0989674
-0.11292
0.0950759
-0.0900436
0.0910854
-0.0727576
0.0871857
-0.059537
0.0834976
-0.0490806
0.0801429
-0.0403325
0.0771438
-0.0331079
0.0747009
-0.0256598
0.0725105
-0.0214311
-0.0123496
-0.00914201
0.0422911
-0.00970584
0.0607325
0.0132048
0.116279
0.04938
0.00219439
0.0793715
-0.145426
0.0984975
-0.226976
0.107559
-0.241834
0.109753
-0.215796
0.108078
-0.176443
0.104553
-0.139013
0.100335
-0.108703
0.0959845
-0.0856929
0.0917281
-0.0685012
0.0876737
-0.0554826
0.0838933
-0.0453001
0.0804812
-0.0369204
0.0774424
-0.0300691
0.0749737
-0.0231911
0.072758
-0.0192154
-0.0110232
0.0025672
0.0397239
0.00993381
0.0533658
0.0396237
0.0865886
0.0744639
-0.0326458
0.0992305
-0.170192
0.112538
-0.240284
0.116666
-0.245961
0.115287
-0.214417
0.111367
-0.172524
0.106557
-0.134202
0.101619
-0.103765
0.0968543
-0.0809278
0.0923518
-0.0639987
0.0881478
-0.0512786
0.0842741
-0.0414265
0.0808023
-0.0334486
0.0777216
-0.0269884
0.075226
-0.0206956
0.0729839
-0.0169733
-0.00968289
0.0231346
0.0165893
0.0358638
0.0406366
0.0703119
0.0521405
0.100964
-0.0632982
0.119079
-0.188307
0.126367
-0.247572
0.125463
-0.245057
0.12053
-0.209483
0.114427
-0.166422
0.108408
-0.128182
0.102819
-0.0981763
0.0976842
-0.0757933
0.0929571
-0.0592715
0.0886092
-0.0469308
0.0846426
-0.0374598
0.0811065
-0.0299124
0.0779847
-0.0238667
0.0754546
-0.0181655
0.0731931
-0.0147117
-0.00832269
0.549811
0.0934485
-0.626671
0.501674
0.0887738
0.516026
0.0377885
0.538934
-0.0862055
0.53886
-0.188233
0.515604
-0.224316
0.47706
-0.206514
0.436826
-0.169249
0.402485
-0.13208
0.374917
-0.100614
0.352296
-0.075555
0.332855
-0.0563523
0.315586
-0.042003
0.300045
-0.0313893
0.286089
-0.023504
0.273762
-0.0175859
0.262998
-0.0131021
0.254256
-0.00942402
0.24657
-0.00702539
-0.00360522
0.800201
0.120339
-0.827091
0.782034
0.10694
0.764211
0.0556121
0.728019
-0.0500141
0.666912
-0.127126
0.58982
-0.147224
0.514779
-0.131473
0.455362
-0.109833
0.4131
-0.0898181
0.382853
-0.0703666
0.359099
-0.0518012
0.338688
-0.0359416
0.320374
-0.0236888
0.303829
-0.014845
0.289022
-0.00869674
0.276041
-0.00460478
0.264779
-0.00183997
0.255707
-0.000351691
0.247746
0.000934987
0.00123201
0.81516
0.143312
-0.838134
0.797294
0.124807
0.769664
0.0832421
0.712962
0.00668755
0.634583
-0.048747
0.558481
-0.0711216
0.500676
-0.0736681
0.458482
-0.0676379
0.424674
-0.0560103
0.395315
-0.0410075
0.369215
-0.0257012
0.345986
-0.0127126
0.325365
-0.00306812
0.307174
0.00334607
0.291226
0.00725134
0.277465
0.00915575
0.265667
0.0099586
0.256249
0.00906596
0.24804
0.00914364
0.00616677
0.789685
0.162725
-0.809098
0.771223
0.143269
0.746643
0.107821
0.702653
0.0506777
0.647927
0.00597923
0.593029
-0.0162234
0.541678
-0.0223174
0.493749
-0.0197086
0.4499
-0.0121618
0.411559
-0.00266593
0.379132
0.00672579
0.351967
0.014452
0.328981
0.0199184
0.309262
0.0230644
0.292286
0.0242274
0.277812
0.02363
0.265526
0.0222443
0.255783
0.0188096
0.247382
0.0175445
0.0111494
0.814013
0.171261
-0.822549
0.803601
0.153681
0.780651
0.130771
0.736402
0.0949272
0.677003
0.0653777
0.612482
0.0482978
0.551287
0.0388774
0.497665
0.0339141
0.452333
0.0331704
0.414235
0.0354313
0.381984
0.0389772
0.354342
0.042094
0.330481
0.0437793
0.309853
0.0436923
0.292092
0.0419883
0.277005
0.0387173
0.264295
0.0349549
0.254262
0.0288426
0.245726
0.0260804
0.0161234
0.773049
0.197053
-0.798841
0.742413
0.184317
0.706474
0.16671
0.662513
0.138888
0.615595
0.112295
0.570723
0.0931703
0.528824
0.0807761
0.488744
0.0739943
0.450711
0.0712037
0.415397
0.0707445
0.383486
0.0708888
0.355223
0.0703565
0.330492
0.0685108
0.309031
0.065153
0.290576
0.0604428
0.274952
0.0543421
0.261884
0.0480221
0.251612
0.0391152
0.243011
0.0346807
0.0210216
0.752079
0.221088
-0.776115
0.727445
0.208952
0.702002
0.192152
0.67089
0.17
0.633219
0.149966
0.590196
0.136193
0.543883
0.127089
0.498272
0.119605
0.455781
0.113695
0.417588
0.108937
0.383936
0.104541
0.354522
0.0997707
0.328902
0.0941307
0.306706
0.0873487
0.287658
0.0794911
0.271575
0.0704249
0.258223
0.0613744
0.247766
0.0495725
0.23918
0.043266
0.0257675
0.773521
0.242863
-0.795296
0.742359
0.240114
0.703139
0.231372
0.657664
0.215476
0.610514
0.197116
0.565971
0.180736
0.524865
0.168195
0.485639
0.158831
0.448212
0.151122
0.413043
0.144106
0.380645
0.13694
0.351389
0.129026
0.325435
0.120085
0.302758
0.110026
0.283251
0.0989973
0.266799
0.0868777
0.253235
0.0749382
0.242651
0.060156
0.234167
0.0517501
0.0302827
0.765793
0.259636
-0.782566
0.744582
0.261325
0.717464
0.25849
0.683566
0.249374
0.642791
0.237891
0.595696
0.227832
0.545479
0.218411
0.496969
0.207342
0.452561
0.19553
0.412966
0.183701
0.378053
0.171853
0.347403
0.159676
0.32059
0.146897
0.297304
0.133313
0.277346
0.118955
0.260569
0.103655
0.246851
0.0886556
0.236196
0.0708117
0.227902
0.0600437
0.0344911
0.76131
0.280103
-0.781776
0.734782
0.287853
0.698847
0.294425
0.652762
0.295459
0.601698
0.288955
0.552988
0.276541
0.510487
0.260912
0.472296
0.245533
0.436443
0.231383
0.402281
0.217864
0.370066
0.204067
0.340351
0.189392
0.313607
0.173642
0.290073
0.156846
0.269819
0.139209
0.252801
0.120673
0.238993
0.102463
0.228319
0.0814854
0.220308
0.0680548
0.038319
0.729185
0.311204
-0.760287
0.700081
0.316957
0.671641
0.322865
0.64224
0.32486
0.610268
0.320926
0.573845
0.312965
0.531756
0.303001
0.486671
0.290618
0.442548
0.275506
0.401869
0.258543
0.365549
0.240387
0.333574
0.221367
0.305626
0.201589
0.281407
0.181066
0.260732
0.159884
0.243463
0.137942
0.229592
0.116335
0.218942
0.0921357
0.211302
0.0756941
0.0416984
0.744174
0.342977
-0.775947
0.706704
0.354427
0.665498
0.364071
0.621483
0.368876
0.575728
0.366681
0.530409
0.358284
0.488561
0.344849
0.451146
0.328032
0.416496
0.310156
0.383469
0.29157
0.351832
0.272024
0.32206
0.25114
0.294827
0.228822
0.270659
0.205234
0.249838
0.180705
0.232431
0.15535
0.21855
0.130216
0.207969
0.102717
0.200789
0.082874
0.0445698
0.730552
0.379646
-0.767222
0.691943
0.393036
0.655537
0.400477
0.622123
0.40229
0.589379
0.399425
0.554779
0.392884
0.516398
0.38323
0.473841
0.370589
0.429609
0.354388
0.386961
0.334217
0.3481
0.310885
0.313869
0.285371
0.284231
0.25846
0.258853
0.230612
0.237431
0.202127
0.219742
0.173038
0.205813
0.144145
0.195312
0.113218
0.18866
0.0895263
0.0468934
0.762231
0.409123
-0.791707
0.722181
0.433086
0.67488
0.447778
0.62409
0.453079
0.572664
0.450851
0.522369
0.443179
0.474629
0.43097
0.431066
0.414153
0.39236
0.393094
0.357491
0.369087
0.325453
0.342923
0.295722
0.315101
0.268407
0.285775
0.243942
0.255077
0.222763
0.223307
0.205102
0.190699
0.191219
0.158028
0.180843
0.123594
0.174776
0.0955928
0.0486558
0.748277
0.437799
-0.776954
0.714766
0.466597
0.675449
0.487096
0.633057
0.495471
0.589676
0.494232
0.545787
0.487069
0.501395
0.475362
0.456586
0.458961
0.411675
0.438004
0.36773
0.413033
0.32644
0.384213
0.289296
0.352245
0.257061
0.318009
0.229798
0.28234
0.207212
0.245893
0.188926
0.208984
0.174831
0.172123
0.164492
0.133934
0.158987
0.101098
0.0498983
0.76964
0.468145
-0.799986
0.733863
0.502374
0.689163
0.531795
0.635586
0.549049
0.577069
0.552749
0.518376
0.545763
0.462871
0.530867
0.411994
0.509838
0.366223
0.483775
0.325888
0.453369
0.290652
0.419448
0.25974
0.383156
0.232444
0.345306
0.208375
0.306409
0.187497
0.266771
0.169976
0.226506
0.156171
0.185928
0.146009
0.144096
0.141038
0.106069
0.0507223
0.748686
0.503269
-0.78381
0.710496
0.540564
0.668703
0.573588
0.623588
0.594164
0.575922
0.600414
0.527125
0.59456
0.47832
0.579671
0.430218
0.55794
0.38358
0.530413