x,y,z,U_0,U_1,U_2
0,0,0,0.3,-0.000658455,0
0,0.1,0,0.3,-0.000395073,0
0,0.2,0,0.3,-0.000131691,0
0,0.3,0,0.3,0,0
0,0.4,0,0.3,0,0
0,0.5,0,0.3,0,0
0,0.6,0,0.3,0,0
0,0.7,0,0.3,0,0
0,0.8,0,0.3,0,0
0,0.9,0,0.3,0,0
0,1,0,0.3,0,0
0,1.1,0,0.3,0,0
0,1.2,0,0.3,0,0
0,1.3,0,0.3,0,0
0,1.4,0,0.3,0,0
0,1.5,0,0.3,0,0
0,1.6,0,0.3,0,0
0,1.7,0,0.3,0,0
0,1.8,0,0.3,0,0
0,1.9,0,0.3,0,0
0,2,0,0.3,0,0
0,2.1,0,0.3,0,0
0,2.2,0,0.3,0,0
0,2.3,0,0.3,0,0
0,2.4,0,0.3,0,0
0,2.5,0,0.3,0,0
0,2.6,0,0.3,0,0
0,2.7,0,0.3,0,0
0,2.8,0,0.3,0,0
0,2.9,0,0.3,0,0
0,3,0,0.3,0,0
0,3.1,0,0.3,0,0
0,3.2,0,0.3,0,0
0,3.3,0,0.3,0,0
0,3.4,0,0.3,0,0
0,3.5,0,0.3,0,0
0,3.6,0,0.3,0,0
0,3.7,0,0.3,0,0
0,3.8,0,0.3,0,0
0,3.9,0,0.3,0,0
0,4,0,0.3,0,0
0,4.1,0,0.3,0,0
0,4.2,0,0.3,0,0
0,4.3,0,0.3,0,0
0,4.4,0,0.3,0,0
0,4.5,0,0.3,0,0
0,4.6,0,0.3,0,0
0,4.7,0,0.3,0,0
0,4.8,0,0.3,0,0
0,4.9,0,0.3,0,0
0,5,0,0.3,0,0
0,5.1,0,0.3,0,0
0,5.2,0,0.3,0,0
0,5.3,0,0.3,0,0
0,5.4,0,0.3,0,0
0,5.5,0,0.3,0,0
0,5.6,0,0.3,0,0
0,5.7,0,0.3,0,0
0,5.8,0,0.3,0,0
0,5.9,0,0.3,0,0
0,6,0,0.3,0,0
0,6.1,0,0.3,0,0
0,6.2,0,0.3,0,0
0,6.3,0,0.3,0,0
0,6.4,0,0.3,0,0
0,6.5,0,0.3,0,0
0,6.6,0,0.3,0,0
0,6.7,0,0.3,0,0
0,6.8,0,0.3,0,0
0,6.9,0,0.3,0,0
0,7,0,0.3,0,0
0,7.1,0,0.3,0,0
0,7.2,0,0.3,0,0
0,7.3,0,0.3,0,0
0,7.4,0,0.3,0,0
0,7.5,0,0.3,0,0
0,7.6,0,0.3,0,0
0,7.7,0,0.3,0,0
0,7.8,0,0.3,0,0
0,7.9,0,0.3,0,0
0,8,0,0.3,0,0
0,8.1,0,0.3,0,0
0,8.2,0,0.3,0,0
0,8.3,0,0.3,0,0
0,8.4,0,0.3,0,0
0,8.5,0,0.3,0,0
0,8.6,0,0.3,0,0
0,8.7,0,0.3,0,0
0,8.8,0,0.3,0,0
0,8.9,0,0.3,0,0
0,9,0,0.3,0,0
0,9.1,0,0.3,0,0
0,9.2,0,0.3,0,0
0,9.3,0,0.3,0,0
0,9.4,0,0.3,0,0
0,9.5,0,0.3,0,0
0,9.6,0,0.3,0,0
0,9.7,0,0.3,0,0
0,9.8,0,0.3,0,0
0,9.9,0,0.3,0,0
0,10,0,0.3,0,0
0,10.1,0,0.3,0,0
0,10.2,0,0.3,0,0
0,10.3,0,0.3,0,0
0,10.4,0,0.3,0,0
0,10.5,0,0.3,0,0
0,10.6,0,0.3,0,0
0,10.7,0,0.3,0,0
0,10.8,0,0.3,0,0
0,10.9,0,0.3,0,0
0,11,0,0.3,0,0
0,11.1,0,0.3,0,0
0,11.2,0,0.3,0,0
0,11.3,0,0.3,0,0
0,11.4,0,0.3,0,0
0,11.5,0,0.3,0,0
0,11.6,0,0.3,0,0
0,11.7,0,0.3,0,0
0,11.8,0,0.3,0,0
0,11.9,0,0.3,0,0
0,12,0,0.3,0,0
0,12.1,0,0.3,0,0
0,12.2,0,0.3,0,0
0,12.3,0,0.3,0,0
0,12.4,0,0.3,0,0
0,12.5,0,0.3,0.000184406,0
0,12.6,0,0.3,0.000401355,0
0,12.7,0,0.3,0.000618304,0
0.1,0,0,0.3,-0.00144906,0
0.1,0.1,0,0.3,-0.00118522,0
0.1,0.2,0,0.3,-0.0010539,0
0.1,0.3,0,0.3,-0.00105418,0
0.1,0.4,0,0.3,-0.00105408,0
0.1,0.5,0,0.300001,-0.0010551,0
0.1,0.6,0,0.3,-0.00105512,0
0.1,0.7,0,0.3,-0.00105572,0
0.1,0.8,0,0.3,-0.00105641,0
0.1,0.9,0,0.3,-0.00105649,0
0.1,1,0,0.300001,-0.00105779,0
0.1,1.1,0,0.3,-0.00105796,0
0.1,1.2,0,0.3,-0.0010586,0
0.1,1.3,0,0.3,-0.00105925,0
0.1,1.4,0,0.3,-0.00105926,0
0.1,1.5,0,0.300001,-0.00106033,0
0.1,1.6,0,0.3,-0.00106002,0
0.1,1.7,0,0.3,-0.00106035,0
0.1,1.8,0,0.3,-0.00106023,0
0.1,1.9,0,0.3,-0.00105978,0
0.1,2,0,0.299999,-0.00105975,0
0.1,2.1,0,0.3,-0.00105798,0
0.1,2.2,0,0.299999,-0.00105747,0
0.1,2.3,0,0.299999,-0.00105546,0
0.1,2.4,0,0.299999,-0.00105397,0
0.1,2.5,0,0.299996,-0.00105156,0
0.1,2.6,0,0.299999,-0.00104694,0
0.1,2.7,0,0.299997,-0.00104484,0
0.1,2.8,0,0.299996,-0.00103937,0
0.1,2.9,0,0.299998,-0.00103601,0
0.1,3,0,0.299992,-0.00102953,0
0.1,3.1,0,0.299998,-0.00102016,0
0.1,3.2,0,0.299994,-0.00101551,0
0.1,3.3,0,0.299993,-0.00100456,0
0.1,3.4,0,0.299998,-0.000998272,0
0.1,3.5,0,0.299985,-0.000985557,0
0.1,3.6,0,0.299997,-0.000969168,0
0.1,3.7,0,0.299988,-0.000960793,0
0.1,3.8,0,0.299988,-0.000942017,0
0.1,3.9,0,0.299996,-0.000931616,0
0.1,4,0,0.299975,-0.000910203,0
0.1,4.1,0,0.299994,-0.000884456,0
0.1,4.2,0,0.299982,-0.000871088,0
0.1,4.3,0,0.299981,-0.000842169,0
0.1,4.4,0,0.299994,-0.000826616,0
0.1,4.5,0,0.299963,-0.000794,0
0.1,4.6,0,0.299992,-0.000757714,0
0.1,4.7,0,0.299974,-0.000738405,0
0.1,4.8,0,0.299974,-0.000699642,0
0.1,4.9,0,0.299991,-0.000680189,0
0.1,5,0,0.299952,-0.000651174,0
0.1,5.1,0,0.299949,-0.000594929,0
0.1,5.2,0,0.299947,-0.000554453,0
0.1,5.3,0,0.299944,-0.000512233,0
0.1,5.4,0,0.299942,-0.000468272,0
0.1,5.5,0,0.29994,-0.000422648,0
0.1,5.6,0,0.299938,-0.00037546,0
0.1,5.7,0,0.299937,-0.000326822,0
0.1,5.8,0,0.299935,-0.000276869,0
0.1,5.9,0,0.299934,-0.000225751,0
0.1,6,0,0.299932,-0.000173634,0
0.1,6.1,0,0.299932,-0.000120698,0
0.1,6.2,0,0.299931,-6.71315e-05,0
0.1,6.3,0,0.299931,-1.31343e-05,0
0.1,6.4,0,0.29993,4.10888e-05,0
0.1,6.5,0,0.29993,9.533e-05,0
0.1,6.6,0,0.299931,0.000149382,0
0.1,6.7,0,0.299931,0.000203043,0
0.1,6.8,0,0.299932,0.000256114,0
0.1,6.9,0,0.299933,0.000308477,0
0.1,7,0,0.299934,0.000388271,0
0.1,7.1,0,0.299981,0.000428108,0
0.1,7.2,0,0.299975,0.000449584,0
0.1,7.3,0,0.299944,0.000504628,0
0.1,7.4,0,0.299989,0.000560368,0
0.1,7.5,0,0.299972,0.000583458,0
0.1,7.6,0,0.299956,0.000635025,0
0.1,7.7,0,0.29999,0.000676559,0
0.1,7.8,0,0.299971,0.000703676,0
0.1,7.9,0,0.299968,0.000747698,0
0.1,8,0,0.299992,0.000776438,0
0.1,8.1,0,0.299972,0.000804912,0
0.1,8.2,0,0.299978,0.000840539,0
0.1,8.3,0,0.299994,0.000858752,0
0.1,8.4,0,0.299975,0.00088626,0
0.1,8.5,0,0.299986,0.000913564,0
0.1,8.6,0,0.299995,0.000924692,0
0.1,8.7,0,0.299979,0.000948385,0
0.1,8.8,0,0.299993,0.000967938,0
0.1,8.9,0,0.299995,0.00097578,0
0.1,9,0,0.299985,0.000992723,0
0.1,9.1,0,0.299997,0.00100565,0
0.1,9.2,0,0.299995,0.00101072,0
0.1,9.3,0,0.299991,0.00102146,0
0.1,9.4,0,0.299998,0.00102872,0
0.1,9.5,0,0.299997,0.00103205,0
0.1,9.6,0,0.299996,0.0010377,0
0.1,9.7,0,0.299999,0.00104049,0
0.1,9.8,0,0.299999,0.00104246,0
0.1,9.9,0,0.299999,0.00104414,0
0.1,10,0,0.3,0.00104432,0
0.1,10.1,0,0.300001,0.00104454,0
0.1,10.2,0,0.300001,0.00104329,0
0.1,10.3,0,0.300001,0.00104228,0
0.1,10.4,0,0.300003,0.0010407,0
0.1,10.5,0,0.300002,0.00103745,0
0.1,10.6,0,0.300001,0.00103595,0
0.1,10.7,0,0.300004,0.00103305,0
0.1,10.8,0,0.300001,0.00102859,0
0.1,10.9,0,0.300002,0.00102688,0
0.1,11,0,0.300004,0.00102323,0
0.1,11.1,0,0.300001,0.00101835,0
0.1,11.2,0,0.300002,0.00101674,0
0.1,11.3,0,0.300004,0.00101283,0
0.1,11.4,0,0.300001,0.00100858,0
0.1,11.5,0,0.300002,0.00100679,0
0.1,11.6,0,0.300003,0.00100307,0
0.1,11.7,0,0.300001,0.00099988,0
0.1,11.8,0,0.300002,0.000998007,0
0.1,11.9,0,0.300002,0.000994824,0
0.1,12,0,0.300001,0.00099272,0
0.1,12.1,0,0.300002,0.000991165,0
0.1,12.2,0,0.300001,0.000988786,0
0.1,12.3,0,0.3,0.00098764,0
0.1,12.4,0,0.300001,0.00098682,0
0.1,12.5,0,0.3,0.00098542,0
0.1,12.6,0,0.3,0.00113906,0
0.1,12.7,0,0.300001,0.00135633,0
0.2,0,0,0.3,-0.00223967,0
0.2,0.1,0,0.3,-0.00210789,0
0.2,0.2,0,0.3,-0.00210818,0
0.2,0.3,0,0.3,-0.00210846,0
0.2,0.4,0,0.300001,-0.00210927,0
0.2,0.5,0,0.300001,-0.00211019,0
0.2,0.6,0,0.300001,-0.00211082,0
0.2,0.7,0,0.300001,-0.00211205,0
0.2,0.8,0,0.300001,-0.00211273,0
0.2,0.9,0,0.300001,-0.0021142,0
0.2,1,0,0.300002,-0.00211558,0
0.2,1.1,0,0.300001,-0.00211638,0
0.2,1.2,0,0.300001,-0.00211783,0
0.2,1.3,0,0.300001,-0.00211848,0
0.2,1.4,0,0.300001,-0.00211958,0
0.2,1.5,0,0.300001,-0.00212066,0
0.2,1.6,0,0.300001,-0.00212067,0
0.2,1.7,0,0.3,-0.00212101,0
0.2,1.8,0,0.3,-0.00212089,0
0.2,1.9,0,0.299999,-0.00211997,0
0.2,2,0,0.299999,-0.00211949,0
0.2,2.1,0,0.299998,-0.00211721,0
0.2,2.2,0,0.299997,-0.00211442,0
0.2,2.3,0,0.299997,-0.00211241,0
0.2,2.4,0,0.299995,-0.00210702,0
0.2,2.5,0,0.299993,-0.00210313,0
0.2,2.6,0,0.299993,-0.0020964,0
0.2,2.7,0,0.299991,-0.00208758,0
0.2,2.8,0,0.299991,-0.00208211,0
0.2,2.9,0,0.299988,-0.0020689,0
0.2,3,0,0.299983,-0.00205905,0
0.2,3.1,0,0.299985,-0.00204503,0
0.2,3.2,0,0.299982,-0.00202636,0
0.2,3.3,0,0.299982,-0.00201542,0
0.2,3.4,0,0.299978,-0.00199012,0
0.2,3.5,0,0.299969,-0.00197111,0
0.2,3.6,0,0.299973,-0.00194635,0
0.2,3.7,0,0.299968,-0.00191321,0
0.2,3.8,0,0.299968,-0.00189444,0
0.2,3.9,0,0.299963,-0.00185222,0
0.2,4,0,0.299949,-0.00182041,0
0.2,4.1,0,0.299956,-0.00178129,0
0.2,4.2,0,0.29995,-0.00172881,0
0.2,4.3,0,0.29995,-0.00169989,0
0.2,4.4,0,0.299944,-0.00163617,0
0.2,4.5,0,0.299925,-0.001588,0
0.2,4.6,0,0.299937,-0.00153241,0
0.2,4.7,0,0.29993,-0.0014575,0
0.2,4.8,0,0.29993,-0.00141874,0
0.2,4.9,0,0.299925,-0.00135082,0
0.2,5,0,0.299903,-0.00130235,0
0.2,5.1,0,0.299897,-0.00118986,0
0.2,5.2,0,0.299893,-0.00110891,0
0.2,5.3,0,0.299889,-0.00102447,0
0.2,5.4,0,0.299885,-0.000936544,0
0.2,5.5,0,0.299881,-0.000845296,0
0.2,5.6,0,0.299877,-0.000750919,0
0.2,5.7,0,0.299874,-0.000653644,0
0.2,5.8,0,0.29987,-0.000553738,0
0.2,5.9,0,0.299868,-0.000451503,0
0.2,6,0,0.299865,-0.000347269,0
0.2,6.1,0,0.299863,-0.000241396,0
0.2,6.2,0,0.299862,-0.000134263,0
0.2,6.3,0,0.299861,-2.62686e-05,0
0.2,6.4,0,0.299861,8.21777e-05,0
0.2,6.5,0,0.299861,0.00019066,0
0.2,6.6,0,0.299861,0.000298764,0
0.2,6.7,0,0.299862,0.000406086,0
0.2,6.8,0,0.299864,0.000512229,0
0.2,6.9,0,0.299865,0.000616953,0
0.2,7,0,0.299867,0.000776542,0
0.2,7.1,0,0.299896,0.000839953,0
0.2,7.2,0,0.299899,0.000934612,0
0.2,7.3,0,0.299881,0.00100081,0
0.2,7.4,0,0.299904,0.00108755,0
0.2,7.5,0,0.29991,0.00119633,0
0.2,7.6,0,0.2999,0.00125522,0
0.2,7.7,0,0.299917,0.00133821,0
0.2,7.8,0,0.299923,0.00143263,0
0.2,7.9,0,0.29992,0.00147665,0
0.2,8,0,0.299931,0.00155216,0
0.2,8.1,0,0.299932,0.00162521,0
0.2,8.2,0,0.299938,0.00166177,0
0.2,8.3,0,0.299946,0.0017264,0
0.2,8.4,0,0.299944,0.00178025,0
0.2,8.5,0,0.299953,0.00181182,0
0.2,8.6,0,0.29996,0.00186161,0
0.2,8.7,0,0.299956,0.00189914,0
0.2,8.8,0,0.299966,0.00192435,0
0.2,8.9,0,0.299972,0.0019606,0
0.2,9,0,0.299969,0.0019848,0
0.2,9.1,0,0.299977,0.00200324,0
0.2,9.2,0,0.299982,0.00202766,0
0.2,9.3,0,0.299981,0.00204137,0
0.2,9.4,0,0.299987,0.00205338,0
0.2,9.5,0,0.299991,0.0020679,0
0.2,9.6,0,0.299991,0.00207418,0
0.2,9.7,0,0.299994,0.0020801,0
0.2,9.8,0,0.299997,0.00208645,0
0.2,9.9,0,0.299998,0.00208813,0
0.2,10,0,0.3,0.00208868,0
0.2,10.1,0,0.300002,0.00208918,0
0.2,10.2,0,0.300003,0.0020878,0
0.2,10.3,0,0.300004,0.00208405,0
0.2,10.4,0,0.300006,0.00208107,0
0.2,10.5,0,0.300006,0.00207715,0
0.2,10.6,0,0.300006,0.0020706,0
0.2,10.7,0,0.300008,0.00206595,0
0.2,10.8,0,0.300007,0.00206016,0
0.2,10.9,0,0.300007,0.0020521,0
0.2,11,0,0.300009,0.00204695,0
0.2,11.1,0,0.300007,0.00204015,0
0.2,11.2,0,0.300007,0.00203164,0
0.2,11.3,0,0.300009,0.00202685,0
0.2,11.4,0,0.300007,0.00201982,0
0.2,11.5,0,0.300007,0.00201172,0
0.2,11.6,0,0.300007,0.00200785,0
0.2,11.7,0,0.300006,0.0020013,0
0.2,11.8,0,0.300006,0.00199479,0
0.2,11.9,0,0.300006,0.00199161,0
0.2,12,0,0.300005,0.00198623,0
0.2,12.1,0,0.300004,0.00198178,0
0.2,12.2,0,0.300003,0.00197929,0
0.2,12.3,0,0.300003,0.00197586,0
0.2,12.4,0,0.300002,0.00197352,0
0.2,12.5,0,0.300002,0.0019722,0
0.2,12.6,0,0.300001,0.00197102,0
0.2,12.7,0,0.300002,0.00209436,0
0.3,0,0,0.300001,-0.0031623,0
0.3,0.1,0,0.300001,-0.00316235,0
0.3,0.2,0,0.300001,-0.00316264,0
0.3,0.3,0,0.300001,-0.0031635,0
0.3,0.4,0,0.300001,-0.00316432,0
0.3,0.5,0,0.300002,-0.00316568,0
0.3,0.6,0,0.300002,-0.00316695,0
0.3,0.7,0,0.300002,-0.00316818,0
0.3,0.8,0,0.300003,-0.0031703,0
0.3,0.9,0,0.300003,-0.00317176,0
0.3,1,0,0.300003,-0.00317394,0
0.3,1.1,0,0.300003,-0.00317552,0
0.3,1.2,0,0.300003,-0.00317697,0
0.3,1.3,0,0.300002,-0.00317904,0
0.3,1.4,0,0.300002,-0.00318014,0
0.3,1.5,0,0.300002,-0.00318184,0
0.3,1.6,0,0.300001,-0.00318214,0
0.3,1.7,0,0.300001,-0.00318248,0
0.3,1.8,0,0.3,-0.00318229,0
0.3,1.9,0,0.299999,-0.00318137,0
0.3,2,0,0.299997,-0.00318053,0
0.3,2.1,0,0.299996,-0.00317702,0
0.3,2.2,0,0.299995,-0.00317423,0
0.3,2.3,0,0.299992,-0.00316845,0
0.3,2.4,0,0.29999,-0.00316306,0
0.3,2.5,0,0.299986,-0.00315659,0
0.3,2.6,0,0.299985,-0.00314571,0
0.3,2.7,0,0.299983,-0.00313689,0
0.3,2.8,0,0.299978,-0.00312082,0
0.3,2.9,0,0.299976,-0.00310761,0
0.3,3,0,0.299968,-0.00309127,0
0.3,3.1,0,0.299968,-0.00306827,0
0.3,3.2,0,0.299964,-0.00304959,0
0.3,3.3,0,0.299958,-0.00301716,0
0.3,3.4,0,0.299954,-0.00299187,0
0.3,3.5,0,0.299941,-0.00296027,0
0.3,3.6,0,0.299941,-0.00291939,0
0.3,3.7,0,0.299936,-0.00288625,0
0.3,3.8,0,0.299927,-0.00283028,0
0.3,3.9,0,0.299922,-0.00278807,0
0.3,4,0,0.299902,-0.00273511,0
0.3,4.1,0,0.299906,-0.00267018,0
0.3,4.2,0,0.2999,-0.0026177,0
0.3,4.3,0,0.299888,-0.00253081,0
0.3,4.4,0,0.299882,-0.00246709,0
0.3,4.5,0,0.299855,-0.00238713,0
0.3,4.6,0,0.299863,-0.00229316,0
0.3,4.7,0,0.299857,-0.00221825,0
0.3,4.8,0,0.299845,-0.00209647,0
0.3,4.9,0,0.29984,-0.00202855,0
0.3,5,0,0.299811,-0.00195816,0
0.3,5.1,0,0.299799,-0.00178931,0
0.3,5.2,0,0.29979,-0.00166793,0
0.3,5.3,0,0.299781,-0.00154118,0
0.3,5.4,0,0.299773,-0.00140913,0
0.3,5.5,0,0.299765,-0.00127202,0
0.3,5.6,0,0.299757,-0.00113016,0
0.3,5.7,0,0.299751,-0.000983893,0
0.3,5.8,0,0.299744,-0.000833638,0
0.3,5.9,0,0.299739,-0.000679851,0
0.3,6,0,0.299734,-0.000523035,0
0.3,6.1,0,0.29973,-0.000363734,0
0.3,6.2,0,0.299728,-0.000202527,0
0.3,6.3,0,0.299726,-4.00175e-05,0
0.3,6.4,0,0.299725,0.00012317,0
0.3,6.5,0,0.299725,0.0002864,0
0.3,6.6,0,0.299727,0.000449039,0
0.3,6.7,0,0.299729,0.000610462,0
0.3,6.8,0,0.299732,0.000770051,0
0.3,6.9,0,0.299736,0.000927375,0
0.3,7,0,0.299742,0.0011673,0
0.3,7.1,0,0.299776,0.00126788,0
0.3,7.2,0,0.299779,0.00136254,0
0.3,7.3,0,0.299766,0.00151733,0
0.3,7.4,0,0.299795,0.0016503,0
0.3,7.5,0,0.299801,0.00175908,0
0.3,7.6,0,0.299801,0.00190984,0
0.3,7.7,0,0.299822,0.0020193,0
0.3,7.8,0,0.299829,0.00211559,0
0.3,7.9,0,0.299839,0.00224844,0
0.3,8,0,0.299852,0.0023339,0
0.3,8.1,0,0.299855,0.00242015,0
0.3,8.2,0,0.299874,0.00252606,0
0.3,8.3,0,0.299882,0.00259069,0
0.3,8.4,0,0.299884,0.00266432,0
0.3,8.5,0,0.299904,0.00274098,0
0.3,8.6,0,0.299911,0.00279078,0
0.3,8.7,0,0.299912,0.00285034,0
0.3,8.8,0,0.299931,0.00290194,0
0.3,8.9,0,0.299937,0.00293819,0
0.3,9,0,0.29994,0.00298276,0
0.3,9.1,0,0.299954,0.00301463,0
0.3,9.2,0,0.299959,0.00303905,0
0.3,9.3,0,0.299965,0.00306837,0
0.3,9.4,0,0.299974,0.00308612,0
0.3,9.5,0,0.299978,0.00310064,0
0.3,9.6,0,0.299984,0.00311651,0
0.3,9.7,0,0.299989,0.00312403,0
0.3,9.8,0,0.299993,0.00313073,0
0.3,9.9,0,0.299998,0.0031353,0
0.3,10,0,0.300001,0.00313591,0
0.3,10.1,0,0.300004,0.00313623,0
0.3,10.2,0,0.300007,0.00313251,0
0.3,10.3,0,0.300009,0.00312876,0
0.3,10.4,0,0.300012,0.00312402,0
0.3,10.5,0,0.300013,0.0031154,0
0.3,10.6,0,0.300014,0.00310885,0
0.3,10.7,0,0.300016,0.00310042,0
0.3,10.8,0,0.300015,0.00308958,0
0.3,10.9,0,0.300016,0.00308152,0
0.3,11,0,0.300018,0.00307063,0
0.3,11.1,0,0.300016,0.00305972,0
0.3,11.2,0,0.300016,0.00305121,0
0.3,11.3,0,0.300017,0.00303932,0
0.3,11.4,0,0.300016,0.0030296,0
0.3,11.5,0,0.300015,0.0030215,0
0.3,11.6,0,0.300015,0.00301001,0
0.3,11.7,0,0.300013,0.0030022,0
0.3,11.8,0,0.300013,0.00299486,0
0.3,11.9,0,0.300011,0.00298536,0
0.3,12,0,0.30001,0.00297986,0
0.3,12.1,0,0.300009,0.00297398,0
0.3,12.2,0,0.300007,0.00296774,0
0.3,12.3,0,0.300006,0.0029643,0
0.3,12.4,0,0.300005,0.0029606,0
0.3,12.5,0,0.300003,0.00295792,0
0.3,12.6,0,0.300003,0.00295673,0
0.3,12.7,0,0.300003,0.0029559,0
0.4,0,0,0.300001,-0.00421694,0
0.4,0.1,0,0.300001,-0.00421676,0
0.4,0.2,0,0.300002,-0.0042176,0
0.4,0.3,0,0.300002,-0.00421847,0
0.4,0.4,0,0.300003,-0.00421967,0
0.4,0.5,0,0.300004,-0.00422157,0
0.4,0.6,0,0.300003,-0.00422288,0
0.4,0.7,0,0.300004,-0.00422545,0
0.4,0.8,0,0.300005,-0.00422757,0
0.4,0.9,0,0.300005,-0.00422998,0
0.4,1,0,0.300006,-0.00423287,0
0.4,1.1,0,0.300005,-0.0042346,0
0.4,1.2,0,0.300005,-0.00423759,0
0.4,1.3,0,0.300004,-0.00423967,0
0.4,1.4,0,0.300003,-0.00424157,0
0.4,1.5,0,0.300003,-0.00424389,0
0.4,1.6,0,0.300003,-0.00424414,0
0.4,1.7,0,0.300001,-0.00424526,0
0.4,1.8,0,0.3,-0.00424508,0
0.4,1.9,0,0.299998,-0.00424363,0
0.4,2,0,0.299995,-0.00424287,0
0.4,2.1,0,0.299994,-0.00423865,0
0.4,2.2,0,0.299989,-0.00423433,0
0.4,2.3,0,0.299987,-0.00422855,0
0.4,2.4,0,0.299983,-0.00421951,0
0.4,2.5,0,0.299977,-0.00421196,0
0.4,2.6,0,0.299977,-0.00419902,0
0.4,2.7,0,0.299968,-0.00418418,0
0.4,2.8,0,0.299963,-0.00416811,0
0.4,2.9,0,0.299958,-0.00414564,0
0.4,3,0,0.299946,-0.00412617,0
0.4,3.1,0,0.299948,-0.00409884,0
0.4,3.2,0,0.299933,-0.00406671,0
0.4,3.3,0,0.299926,-0.00403428,0
0.4,3.4,0,0.299921,-0.00399092,0
0.4,3.5,0,0.299899,-0.00395302,0
0.4,3.6,0,0.299904,-0.0039044,0
0.4,3.7,0,0.299882,-0.00384679,0
0.4,3.8,0,0.299873,-0.00379083,0
0.4,3.9,0,0.299867,-0.00371801,0
0.4,4,0,0.299834,-0.00365431,0
0.4,4.1,0,0.299846,-0.00357694,0
0.4,4.2,0,0.299815,-0.00348517,0
0.4,4.3,0,0.299803,-0.00339827,0
0.4,4.4,0,0.2998,-0.00328759,0
0.4,4.5,0,0.299753,-0.00319139,0
0.4,4.6,0,0.299775,-0.00307835,0
0.4,4.7,0,0.299736,-0.00294743,0
0.4,4.8,0,0.299724,-0.00282565,0
0.4,4.9,0,0.299729,-0.00269146,0
0.4,5,0,0.299676,-0.0026186,0
0.4,5.1,0,0.299653,-0.0023933,0
0.4,5.2,0,0.299637,-0.00223153,0
0.4,5.3,0,0.299622,-0.00206239,0
0.4,5.4,0,0.299607,-0.00188603,0
0.4,5.5,0,0.299593,-0.00170282,0
0.4,5.6,0,0.29958,-0.00151317,0
0.4,5.7,0,0.299568,-0.00131757,0
0.4,5.8,0,0.299557,-0.00111657,0
0.4,5.9,0,0.299548,-0.000910797,0
0.4,6,0,0.299539,-0.000700933,0
0.4,6.1,0,0.299533,-0.000487714,0
0.4,6.2,0,0.299528,-0.000271923,0
0.4,6.3,0,0.299526,-5.4381e-05,0
0.4,6.4,0,0.299524,0.000164065,0
0.4,6.5,0,0.299525,0.000382551,0
0.4,6.6,0,0.299527,0.000600207,0
0.4,6.7,0,0.299531,0.000816172,0
0.4,6.8,0,0.299537,0.00102958,0
0.4,6.9,0,0.299544,0.00123974,0
0.4,7,0,0.299557,0.00156055,0
0.4,7.1,0,0.299615,0.00166559,0
0.4,7.2,0,0.29962,0.00184211,0
0.4,7.3,0,0.299595,0.00202114,0
0.4,7.4,0,0.299655,0.00218807,0
0.4,7.5,0,0.299654,0.0023824,0
0.4,7.6,0,0.299649,0.00254008,0
0.4,7.7,0,0.299702,0.00269463,0
0.4,7.8,0,0.299699,0.00285566,0
0.4,7.9,0,0.299709,0.00298852,0
0.4,8,0,0.299754,0.00312418,0
0.4,8.1,0,0.299749,0.00325186,0
0.4,8.2,0,0.299769,0.00335885,0
0.4,8.3,0,0.299806,0.00347266,0
0.4,8.4,0,0.2998,0.00356937,0
0.4,8.5,0,0.299826,0.00365113,0
0.4,8.6,0,0.299856,0.00374079,0
0.4,8.7,0,0.29985,0.00381137,0
0.4,8.8,0,0.299877,0.00386987,0
0.4,8.9,0,0.299897,0.00393398,0
0.4,9,0,0.299897,0.00398402,0
0.4,9.1,0,0.29992,0.00402277,0
0.4,9.2,0,0.299933,0.00406484,0
0.4,9.3,0,0.299938,0.00409622,0
0.4,9.4,0,0.299954,0.00411976,0
0.4,9.5,0,0.299964,0.00414339,0
0.4,9.6,0,0.29997,0.00415964,0
0.4,9.7,0,0.299982,0.0041707,0
0.4,9.8,0,0.299989,0.00418013,0
0.4,9.9,0,0.299994,0.0041847,0
0.4,10,0,0.300002,0.00418553,0
0.4,10.1,0,0.300007,0.00418514,0
0.4,10.2,0,0.300011,0.00418127,0
0.4,10.3,0,0.300015,0.00417421,0
0.4,10.4,0,0.30002,0.00416765,0
0.4,10.5,0,0.300021,0.00415818,0
0.4,10.6,0,0.300024,0.0041459,0
0.4,10.7,0,0.300028,0.00413572,0
0.4,10.8,0,0.300026,0.0041231,0
0.4,10.9,0,0.300028,0.00410824,0
0.4,11,0,0.300031,0.00409603,0
0.4,11.1,0,0.300027,0.0040824,0
0.4,11.2,0,0.300029,0.00406703,0
0.4,11.3,0,0.30003,0.00405444,0
0.4,11.4,0,0.300026,0.00404089,0
0.4,11.5,0,0.300027,0.00402703,0
0.4,11.6,0,0.300027,0.00401544,0
0.4,11.7,0,0.300023,0.00400307,0
0.4,11.8,0,0.300022,0.00399194,0
0.4,11.9,0,0.30002,0.00398243,0
0.4,12,0,0.300016,0.00397238,0
0.4,12.1,0,0.300016,0.00396462,0
0.4,12.2,0,0.300013,0.00395799,0
0.4,12.3,0,0.30001,0.00395121,0
0.4,12.4,0,0.300009,0.00394711,0
0.4,12.5,0,0.300007,0.0039439,0
0.4,12.6,0,0.300005,0.00394153,0
0.4,12.7,0,0.300005,0.00394096,0
0.5,0,0,0.300002,-0.00527157,0
0.5,0.1,0,0.300003,-0.00527219,0
0.5,0.2,0,0.300003,-0.00527281,0
0.5,0.3,0,0.300004,-0.00527398,0
0.5,0.4,0,0.300005,-0.00527572,0
0.5,0.5,0,0.300006,-0.00527746,0
0.5,0.6,0,0.300006,-0.00528007,0
0.5,0.7,0,0.300007,-0.00528268,0
0.5,0.8,0,0.300007,-0.00528555,0
0.5,0.9,0,0.300008,-0.00528867,0
0.5,1,0,0.300008,-0.0052918,0
0.5,1.1,0,0.300008,-0.00529494,0
0.5,1.2,0,0.300007,-0.00529808,0
0.5,1.3,0,0.300007,-0.00530091,0
0.5,1.4,0,0.300006,-0.00530342,0
0.5,1.5,0,0.300005,-0.00530594,0
0.5,1.6,0,0.300003,-0.00530701,0
0.5,1.7,0,0.300001,-0.00530809,0
0.5,1.8,0,0.299999,-0.00530794,0
0.5,1.9,0,0.299996,-0.00530657,0
0.5,2,0,0.299993,-0.00530521,0
0.5,2.1,0,0.299989,-0.00530018,0
0.5,2.2,0,0.299984,-0.00529515,0
0.5,2.3,0,0.299979,-0.00528758,0
0.5,2.4,0,0.299973,-0.00527745,0
0.5,2.5,0,0.299967,-0.00526733,0
0.5,2.6,0,0.299959,-0.00525043,0
0.5,2.7,0,0.299952,-0.00523352,0
0.5,2.8,0,0.299943,-0.00521227,0
0.5,2.9,0,0.299933,-0.00518667,0
0.5,3,0,0.299923,-0.00516107,0
0.5,3.1,0,0.299911,-0.00512461,0
0.5,3.2,0,0.299899,-0.00508816,0
0.5,3.3,0,0.299886,-0.0050451,0
0.5,3.4,0,0.299871,-0.00499543,0
0.5,3.5,0,0.299857,-0.00494577,0
0.5,3.6,0,0.29984,-0.00488042,0
0.5,3.7,0,0.299823,-0.00481507,0
0.5,3.8,0,0.299804,-0.00474062,0
0.5,3.9,0,0.299785,-0.00465706,0
0.5,4,0,0.299765,-0.00457351,0
0.5,4.1,0,0.299743,-0.00446929,0
0.5,4.2,0,0.299721,-0.00436507,0
0.5,4.3,0,0.299698,-0.0042495,0
0.5,4.4,0,0.299675,-0.00412258,0
0.5,4.5,0,0.299651,-0.00399565,0
0.5,4.6,0,0.299627,-0.00384567,0
0.5,4.7,0,0.299602,-0.00369568,0
0.5,4.8,0,0.29958,-0.00355236,0
0.5,4.9,0,0.299561,-0.0034157,0
0.5,5,0,0.299542,-0.00327904,0
0.5,5.1,0,0.299507,-0.00299728,0
0.5,5.2,0,0.299484,-0.00279512,0
0.5,5.3,0,0.299463,-0.00258359,0
0.5,5.4,0,0.299441,-0.00236294,0
0.5,5.5,0,0.299421,-0.00213362,0
0.5,5.6,0,0.299402,-0.00189619,0
0.5,5.7,0,0.299385,-0.00165124,0
0.5,5.8,0,0.29937,-0.0013995,0
0.5,5.9,0,0.299356,-0.00114174,0
0.5,6,0,0.299345,-0.000878831,0
0.5,6.1,0,0.299335,-0.000611693,0
0.5,6.2,0,0.299329,-0.000341319,0
0.5,6.3,0,0.299325,-6.87445e-05,0
0.5,6.4,0,0.299323,0.000204961,0
0.5,6.5,0,0.299324,0.000478702,0
0.5,6.6,0,0.299328,0.000751375,0
0.5,6.7,0,0.299334,0.00102188,0
0.5,6.8,0,0.299342,0.00128911,0
0.5,6.9,0,0.299353,0.00155211,0
0.5,7,0,0.299373,0.0019538,0
0.5,7.1,0,0.299387,0.00214545,0
0.5,7.2,0,0.299401,0.0023371,0
0.5,7.3,0,0.299417,0.00253296,0
0.5,7.4,0,0.29944,0.00275264,0
0.5,7.5,0,0.299464,0.00297231,0
0.5,7.6,0,0.299488,0.00318361,0
0.5,7.7,0,0.299515,0.00337536,0
0.5,7.8,0,0.299542,0.00356711,0
0.5,7.9,0,0.299569,0.0037448,0
0.5,8,0,0.299597,0.00390531,0
0.5,8.1,0,0.299625,0.00406582,0
0.5,8.2,0,0.299653,0.00420741,0
0.5,8.3,0,0.29968,0.00433639,0
0.5,8.4,0,0.299708,0.00446536,0
0.5,8.5,0,0.299734,0.00457178,0
0.5,8.6,0,0.299759,0.00467067,0
0.5,8.7,0,0.299785,0.00476956,0
0.5,8.8,0,0.299808,0.00484384,0
0.5,8.9,0,0.299831,0.00491538,0
0.5,9,0,0.299853,0.00498572,0
0.5,9.1,0,0.299873,0.00503347,0
0.5,9.2,0,0.299892,0.00508122,0
0.5,9.3,0,0.299911,0.005125,0
0.5,9.4,0,0.299926,0.00515292,0
0.5,9.5,0,0.299942,0.00518084,0
0.5,9.6,0,0.299957,0.00520322,0
0.5,9.7,0,0.299969,0.00521533,0
0.5,9.8,0,0.299981,0.00522744,0
0.5,9.9,0,0.299992,0.00523356,0
0.5,10,0,0.300001,0.00523369,0
0.5,10.1,0,0.30001,0.00523382,0
0.5,10.2,0,0.300017,0.00522842,0
0.5,10.3,0,0.300023,0.00522004,0
0.5,10.4,0,0.300029,0.00521166,0
0.5,10.5,0,0.300033,0.00519891,0
0.5,10.6,0,0.300037,0.00518506,0
0.5,10.7,0,0.30004,0.00517121,0
0.5,10.8,0,0.300042,0.00515461,0
0.5,10.9,0,0.300043,0.00513787,0
0.5,11,0,0.300045,0.00512104,0
0.5,11.1,0,0.300045,0.00510352,0
0.5,11.2,0,0.300044,0.005086,0
0.5,11.3,0,0.300044,0.0050687,0
0.5,11.4,0,0.300042,0.0050521,0
0.5,11.5,0,0.300041,0.0050355,0
0.5,11.6,0,0.300039,0.0050198,0
0.5,11.7,0,0.300036,0.00500545,0
0.5,11.8,0,0.300034,0.00499111,0
0.5,11.9,0,0.300031,0.00497857,0
0.5,12,0,0.300027,0.0049675,0
0.5,12.1,0,0.300024,0.00495644,0
0.5,12.2,0,0.30002,0.00494818,0
0.5,12.3,0,0.300017,0.00494112,0
0.5,12.4,0,0.300013,0.00493407,0
0.5,12.5,0,0.300011,0.00493092,0
0.5,12.6,0,0.300009,0.00492847,0
0.5,12.7,0,0.300007,0.00492602,0
0.6,0,0,0.300003,-0.00632627,0
0.6,0.1,0,0.300003,-0.00632639,0
0.6,0.2,0,0.300004,-0.00632746,0
0.6,0.3,0,0.300006,-0.00632906,0
0.6,0.4,0,0.300007,-0.00633076,0
0.6,0.5,0,0.300009,-0.00633372,0
0.6,0.6,0,0.300009,-0.00633654,0
0.6,0.7,0,0.30001,-0.0063399,0
0.6,0.8,0,0.300011,-0.00634373,0
0.6,0.9,0,0.300011,-0.00634706,0
0.6,1,0,0.300012,-0.00635186,0
0.6,1.1,0,0.300011,-0.00635554,0
0.6,1.2,0,0.300011,-0.00635954,0
0.6,1.3,0,0.30001,-0.00636349,0
0.6,1.4,0,0.300009,-0.00636626,0
0.6,1.5,0,0.300008,-0.00637041,0
0.6,1.6,0,0.300005,-0.00637178,0
0.6,1.7,0,0.300003,-0.00637352,0
0.6,1.8,0,0.299999,-0.00637396,0
0.6,1.9,0,0.299995,-0.00637252,0
0.6,2,0,0.29999,-0.0063719,0
0.6,2.1,0,0.299985,-0.00636602,0
0.6,2.2,0,0.299978,-0.00636093,0
0.6,2.3,0,0.299971,-0.00635234,0
0.6,2.4,0,0.299965,-0.00634127,0
0.6,2.5,0,0.299952,-0.00632977,0
0.6,2.6,0,0.299945,-0.00630951,0
0.6,2.7,0,0.299932,-0.00629108,0
0.6,2.8,0,0.299919,-0.00626566,0
0.6,2.9,0,0.299909,-0.00623742,0
0.6,3,0,0.299887,-0.00620658,0
0.6,3.1,0,0.299877,-0.00616237,0
0.6,3.2,0,0.299857,-0.00612192,0
0.6,3.3,0,0.299837,-0.00606945,0
0.6,3.4,0,0.299824,-0.00601437,0
0.6,3.5,0,0.299788,-0.00595334,0
0.6,3.6,0,0.299778,-0.00587339,0
0.6,3.7,0,0.299747,-0.00580033,0
0.6,3.8,0,0.299719,-0.00570865,0
0.6,3.9,0,0.299704,-0.00561558,0
0.6,4,0,0.299651,-0.00551178,0
0.6,4.1,0,0.299643,-0.00538349,0
0.6,4.2,0,0.2996,-0.00526635,0
0.6,4.3,0,0.299566,-0.00512296,0
0.6,4.4,0,0.299551,-0.00498113,0
0.6,4.5,0,0.29948,-0.00482222,0
0.6,4.6,0,0.299478,-0.00463556,0
0.6,4.7,0,0.299427,-0.00446685,0
0.6,4.8,0,0.29939,-0.00426609,0
0.6,4.9,0,0.299383,-0.00409071,0
0.6,5,0,0.299313,-0.00396278,0
0.6,5.1,0,0.299259,-0.00362363,0
0.6,5.2,0,0.299224,-0.00338019,0
0.6,5.3,0,0.29919,-0.00312531,0
0.6,5.4,0,0.299158,-0.00285927,0
0.6,5.5,0,0.299127,-0.00258263,0
0.6,5.6,0,0.299098,-0.00229602,0
0.6,5.7,0,0.299072,-0.0020002,0
0.6,5.8,0,0.299048,-0.00169601,0
0.6,5.9,0,0.299027,-0.0013844,0
0.6,6,0,0.29901,-0.00106643,0
0.6,6.1,0,0.298996,-0.000743236,0
0.6,6.2,0,0.298986,-0.000416019,0
0.6,6.3,0,0.29898,-8.60553e-05,0
0.6,6.4,0,0.298977,0.00024534,0
0.6,6.5,0,0.298979,0.000576821,0
0.6,6.6,0,0.298985,0.000907028,0
0.6,6.7,0,0.298994,0.00123461,0
0.6,6.8,0,0.299008,0.0015582,0
0.6,6.9,0,0.299024,0.00187661,0
0.6,7,0,0.299057,0.00236276,0
0.6,7.1,0,0.29913,0.00254589,0
0.6,7.2,0,0.299141,0.00276787,0
0.6,7.3,0,0.299134,0.00306536,0
0.6,7.4,0,0.299221,0.00334604,0
0.6,7.5,0,0.299229,0.00358867,0
0.6,7.6,0,0.299248,0.00385299,0
0.6,7.7,0,0.299325,0.00409095,0
0.6,7.8,0,0.299337,0.00430812,0
0.6,7.9,0,0.299374,0.00453035,0
0.6,8,0,0.29944,0.00472281,0
0.6,8.1,0,0.299454,0.00490887,0
0.6,8.2,0,0.299502,0.00508659,0
0.6,8.3,0,0.299555,0.00523566,0
0.6,8.4,0,0.299571,0.00538809,0
0.6,8.5,0,0.299624,0.00552246,0
0.6,8.6,0,0.299665,0.00563322,0
0.6,8.7,0,0.299682,0.00575102,0
0.6,8.8,0,0.299733,0.00584565,0
0.6,8.9,0,0.299763,0.00592448,0
0.6,9,0,0.299783,0.00600736,0
0.6,9.1,0,0.299827,0.00606868,0
0.6,9.2,0,0.299849,0.00612008,0
0.6,9.3,0,0.29987,0.00617112,0
0.6,9.4,0,0.299902,0.00620637,0
0.6,9.5,0,0.299919,0.00623572,0
0.6,9.6,0,0.299939,0.00626111,0
0.6,9.7,0,0.29996,0.00627572,0
0.6,9.8,0,0.299975,0.00628769,0
0.6,9.9,0,0.29999,0.00629352,0
0.6,10,0,0.300004,0.00629341,0
0.6,10.1,0,0.300016,0.00629164,0
0.6,10.2,0,0.300026,0.0062835,0
0.6,10.3,0,0.300034,0.0062737,0
0.6,10.4,0,0.300044,0.00626178,0
0.6,10.5,0,0.300049,0.0062446,0
0.6,10.6,0,0.300053,0.00622878,0
0.6,10.7,0,0.300061,0.00621048,0
0.6,10.8,0,0.300061,0.00618839,0
0.6,10.9,0,0.300063,0.00616949,0
0.6,11,0,0.300067,0.00614795,0
0.6,11.1,0,0.300063,0.00612453,0
0.6,11.2,0,0.300064,0.00610509,0
0.6,11.3,0,0.300065,0.00608314,0
0.6,11.4,0,0.30006,0.0060614,0
0.6,11.5,0,0.30006,0.00604283,0
0.6,11.6,0,0.300057,0.00602283,0
0.6,11.7,0,0.300051,0.00600459,0
0.6,11.8,0,0.300049,0.00598835,0
0.6,11.9,0,0.300045,0.0059721,0
0.6,12,0,0.300039,0.00595839,0
0.6,12.1,0,0.300036,0.00594591,0
0.6,12.2,0,0.300029,0.00593472,0
0.6,12.3,0,0.300024,0.00592614,0
0.6,12.4,0,0.30002,0.00591852,0
0.6,12.5,0,0.300013,0.00591323,0
0.6,12.6,0,0.30001,0.00591021,0
0.6,12.7,0,0.300011,0.00590872,0
0.7,0,0,0.300004,-0.00738096,0
0.7,0.1,0,0.300005,-0.00738154,0
0.7,0.2,0,0.300006,-0.00738258,0
0.7,0.3,0,0.300007,-0.00738417,0
0.7,0.4,0,0.30001,-0.00738706,0
0.7,0.5,0,0.300011,-0.00738998,0
0.7,0.6,0,0.300013,-0.00739355,0
0.7,0.7,0,0.300014,-0.00739786,0
0.7,0.8,0,0.300015,-0.00740169,0
0.7,0.9,0,0.300016,-0.00740691,0
0.7,1,0,0.300017,-0.00741192,0
0.7,1.1,0,0.300016,-0.00741646,0
0.7,1.2,0,0.300015,-0.00742188,0
0.7,1.3,0,0.300015,-0.00742582,0
0.7,1.4,0,0.300012,-0.00743048,0
0.7,1.5,0,0.300011,-0.00743488,0
0.7,1.6,0,0.300007,-0.00743691,0
0.7,1.7,0,0.300003,-0.0074396,0
0.7,1.8,0,0.3,-0.00744005,0
0.7,1.9,0,0.299993,-0.00743929,0
0.7,2,0,0.299987,-0.0074386,0
0.7,2.1,0,0.29998,-0.00743266,0
0.7,2.2,0,0.29997,-0.00742665,0
0.7,2.3,0,0.299962,-0.00741806,0
0.7,2.4,0,0.29995,-0.00740466,0
0.7,2.5,0,0.299937,-0.00739222,0
0.7,2.6,0,0.299924,-0.00737043,0
0.7,2.7,0,0.299907,-0.00734712,0
0.7,2.8,0,0.299894,-0.0073217,0
0.7,2.9,0,0.299872,-0.00728558,0
0.7,3,0,0.29985,-0.0072521,0
0.7,3.1,0,0.299832,-0.0072039,0
0.7,3.2,0,0.299805,-0.0071517,0
0.7,3.3,0,0.299785,-0.00709923,0
0.7,3.4,0,0.299753,-0.00702736,0
0.7,3.5,0,0.299718,-0.00696091,0
0.7,3.6,0,0.299694,-0.00687325,0
0.7,3.7,0,0.299656,-0.00677787,0
0.7,3.8,0,0.299629,-0.00668619,0
0.7,3.9,0,0.299585,-0.00656337,0
0.7,4,0,0.299536,-0.00645006,0
0.7,4.1,0,0.299508,-0.00630885,0
0.7,4.2,0,0.299459,-0.00615471,0
0.7,4.3,0,0.299424,-0.00601131,0
0.7,4.4,0,0.299371,-0.0058226,0
0.7,4.5,0,0.299309,-0.00564879,0
0.7,4.6,0,0.29928,-0.00544341,0
0.7,4.7,0,0.299224,-0.0052193,0
0.7,4.8,0,0.299187,-0.00501854,0
0.7,4.9,0,0.299142,-0.00481317,0
0.7,5,0,0.299084,-0.00464652,0
0.7,5.1,0,0.299012,-0.00424997,0
0.7,5.2,0,0.298964,-0.00396525,0
0.7,5.3,0,0.298918,-0.00366702,0
0.7,5.4,0,0.298874,-0.0033556,0
0.7,5.5,0,0.298833,-0.00303163,0
0.7,5.6,0,0.298794,-0.00269586,0
0.7,5.7,0,0.298758,-0.00234915,0
0.7,5.8,0,0.298727,-0.00199251,0
0.7,5.9,0,0.298699,-0.00162706,0
0.7,6,0,0.298675,-0.00125404,0
0.7,6.1,0,0.298657,-0.000874778,0
0.7,6.2,0,0.298643,-0.000490719,0
0.7,6.3,0,0.298635,-0.000103366,0
0.7,6.4,0,0.298631,0.00028572,0
0.7,6.5,0,0.298634,0.00067494,0
0.7,6.6,0,0.298642,0.00106268,0
0.7,6.7,0,0.298655,0.00144733,0
0.7,6.8,0,0.298673,0.00182728,0
0.7,6.9,0,0.298696,0.00220112,0
0.7,7,0,0.298742,0.00277173,0
0.7,7.1,0,0.298798,0.0030016,0
0.7,7.2,0,0.298833,0.00329341,0
0.7,7.3,0,0.298842,0.00358852,0
0.7,7.4,0,0.298909,0.00390007,0
0.7,7.5,0,0.298963,0.00423353,0
0.7,7.6,0,0.29899,0.00450586,0
0.7,7.7,0,0.299058,0.00478408,0
0.7,7.8,0,0.299117,0.00507284,0
0.7,7.9,0,0.299155,0.00529507,0
0.7,8,0,0.299221,0.00553225,0
0.7,8.1,0,0.299275,0.00576571,0
0.7,8.2,0,0.299323,0.00594423,0
0.7,8.3,0,0.299385,0.00613677,0
0.7,8.4,0,0.299431,0.00631741,0
0.7,8.5,0,0.299483,0.00645518,0
0.7,8.6,0,0.29954,0.00660147,0
0.7,8.7,0,0.299579,0.00673437,0
0.7,8.8,0,0.299629,0.00683312,0
0.7,8.9,0,0.29968,0.00693764,0
0.7,9,0,0.299712,0.00702831,0
0.7,9.1,0,0.299756,0.00709306,0
0.7,9.2,0,0.299799,0.00716152,0
0.7,9.3,0,0.299826,0.00721569,0
0.7,9.4,0,0.299861,0.00725324,0