x,y,z,U_0,U_1,U_2
0,0,0,0.3,-0.00070784,0
0,0.1,0,0.3,-0.000424704,0
0,0.2,0,0.3,-0.000141568,0
0,0.3,0,0.3,0,0
0,0.4,0,0.3,0,0
0,0.5,0,0.3,0,0
0,0.6,0,0.3,0,0
0,0.7,0,0.3,0,0
0,0.8,0,0.3,0,0
0,0.9,0,0.3,0,0
0,1,0,0.3,0,0
0,1.1,0,0.3,0,0
0,1.2,0,0.3,0,0
0,1.3,0,0.3,0,0
0,1.4,0,0.3,0,0
0,1.5,0,0.3,0,0
0,1.6,0,0.3,0,0
0,1.7,0,0.3,0,0
0,1.8,0,0.3,0,0
0,1.9,0,0.3,0,0
0,2,0,0.3,0,0
0,2.1,0,0.3,0,0
0,2.2,0,0.3,0,0
0,2.3,0,0.3,0,0
0,2.4,0,0.3,0,0
0,2.5,0,0.3,0,0
0,2.6,0,0.3,0,0
0,2.7,0,0.3,0,0
0,2.8,0,0.3,0,0
0,2.9,0,0.3,0,0
0,3,0,0.3,0,0
0,3.1,0,0.3,0,0
0,3.2,0,0.3,0,0
0,3.3,0,0.3,0,0
0,3.4,0,0.3,0,0
0,3.5,0,0.3,0,0
0,3.6,0,0.3,0,0
0,3.7,0,0.3,0,0
0,3.8,0,0.3,0,0
0,3.9,0,0.3,0,0
0,4,0,0.3,0,0
0,4.1,0,0.3,0,0
0,4.2,0,0.3,0,0
0,4.3,0,0.3,0,0
0,4.4,0,0.3,0,0
0,4.5,0,0.3,0,0
0,4.6,0,0.3,0,0
0,4.7,0,0.3,0,0
0,4.8,0,0.3,0,0
0,4.9,0,0.3,0,0
0,5,0,0.3,0,0
0,5.1,0,0.3,0,0
0,5.2,0,0.3,0,0
0,5.3,0,0.3,0,0
0,5.4,0,0.3,0,0
0,5.5,0,0.3,0,0
0,5.6,0,0.3,0,0
0,5.7,0,0.3,0,0
0,5.8,0,0.3,0,0
0,5.9,0,0.3,0,0
0,6,0,0.3,0,0
0,6.1,0,0.3,0,0
0,6.2,0,0.3,0,0
0,6.3,0,0.3,0,0
0,6.4,0,0.3,0,0
0,6.5,0,0.3,0,0
0,6.6,0,0.3,0,0
0,6.7,0,0.3,0,0
0,6.8,0,0.3,0,0
0,6.9,0,0.3,0,0
0,7,0,0.3,0,0
0,7.1,0,0.3,0,0
0,7.2,0,0.3,0,0
0,7.3,0,0.3,0,0
0,7.4,0,0.3,0,0
0,7.5,0,0.3,0,0
0,7.6,0,0.3,0,0
0,7.7,0,0.3,0,0
0,7.8,0,0.3,0,0
0,7.9,0,0.3,0,0
0,8,0,0.3,0,0
0,8.1,0,0.3,0,0
0,8.2,0,0.3,0,0
0,8.3,0,0.3,0,0
0,8.4,0,0.3,0,0
0,8.5,0,0.3,0,0
0,8.6,0,0.3,0,0
0,8.7,0,0.3,0,0
0,8.8,0,0.3,0,0
0,8.9,0,0.3,0,0
0,9,0,0.3,0,0
0,9.1,0,0.3,0,0
0,9.2,0,0.3,0,0
0,9.3,0,0.3,0,0
0,9.4,0,0.3,0,0
0,9.5,0,0.3,0,0
0,9.6,0,0.3,0,0
0,9.7,0,0.3,0,0
0,9.8,0,0.3,0,0
0,9.9,0,0.3,0,0
0,10,0,0.3,0,0
0,10.1,0,0.3,0,0
0,10.2,0,0.3,0,0
0,10.3,0,0.3,0,0
0,10.4,0,0.3,0,0
0,10.5,0,0.3,0,0
0,10.6,0,0.3,0,0
0,10.7,0,0.3,0,0
0,10.8,0,0.3,0,0
0,10.9,0,0.3,0,0
0,11,0,0.3,0,0
0,11.1,0,0.3,0,0
0,11.2,0,0.3,0,0
0,11.3,0,0.3,0,0
0,11.4,0,0.3,0,0
0,11.5,0,0.3,0,0
0,11.6,0,0.3,0,0
0,11.7,0,0.3,0,0
0,11.8,0,0.3,0,0
0,11.9,0,0.3,0,0
0,12,0,0.3,0,0
0,12.1,0,0.3,0,0
0,12.2,0,0.3,0,0
0,12.3,0,0.3,0,0
0,12.4,0,0.3,0,0
0,12.5,0,0.3,0.000202742,0
0,12.6,0,0.3,0.000441261,0
0,12.7,0,0.3,0.000679781,0
0.1,0,0,0.3,-0.00155892,0
0.1,0.1,0,0.3,-0.00127411,0
0.1,0.2,0,0.3,-0.00113344,0
0.1,0.3,0,0.3,-0.00113357,0
0.1,0.4,0,0.3,-0.00113279,0
0.1,0.5,0,0.3,-0.0011347,0
0.1,0.6,0,0.3,-0.00113322,0
0.1,0.7,0,0.3,-0.00113419,0
0.1,0.8,0,0.3,-0.00113443,0
0.1,0.9,0,0.3,-0.0011337,0
0.1,1,0,0.3,-0.00113557,0
0.1,1.1,0,0.3,-0.00113399,0
0.1,1.2,0,0.3,-0.00113483,0
0.1,1.3,0,0.3,-0.00113475,0
0.1,1.4,0,0.3,-0.00113383,0
0.1,1.5,0,0.3,-0.00113515,0
0.1,1.6,0,0.3,-0.00113286,0
0.1,1.7,0,0.299999,-0.00113322,0
0.1,1.8,0,0.299999,-0.00113211,0
0.1,1.9,0,0.3,-0.00113062,0
0.1,2,0,0.299998,-0.00113051,0
0.1,2.1,0,0.299999,-0.00112655,0
0.1,2.2,0,0.299998,-0.00112592,0
0.1,2.3,0,0.299998,-0.00112265,0
0.1,2.4,0,0.299999,-0.00112002,0
0.1,2.5,0,0.299995,-0.00111723,0
0.1,2.6,0,0.299999,-0.00111024,0
0.1,2.7,0,0.299996,-0.00110786,0
0.1,2.8,0,0.299996,-0.00110091,0
0.1,2.9,0,0.299998,-0.00109632,0
0.1,3,0,0.29999,-0.00108914,0
0.1,3.1,0,0.299998,-0.00107728,0
0.1,3.2,0,0.299992,-0.0010722,0
0.1,3.3,0,0.299992,-0.00105956,0
0.1,3.4,0,0.299997,-0.001052,0
0.1,3.5,0,0.299982,-0.00103829,0
0.1,3.6,0,0.299996,-0.00101934,0
0.1,3.7,0,0.299987,-0.00101039,0
0.1,3.8,0,0.299987,-0.000989767,0
0.1,3.9,0,0.299995,-0.00097808,0
0.1,4,0,0.299973,-0.00095541,0
0.1,4.1,0,0.299994,-0.000927088,0
0.1,4.2,0,0.299981,-0.000913041,0
0.1,4.3,0,0.29998,-0.000882161,0
0.1,4.4,0,0.299993,-0.000865328,0
0.1,4.5,0,0.29996,-0.000831269,0
0.1,4.6,0,0.299992,-0.00079246,0
0.1,4.7,0,0.299973,-0.000772399,0
0.1,4.8,0,0.299973,-0.00073168,0
0.1,4.9,0,0.299991,-0.000711022,0
0.1,5,0,0.299949,-0.000681167,0
0.1,5.1,0,0.299947,-0.000622498,0
0.1,5.2,0,0.299945,-0.000580404,0
0.1,5.3,0,0.299943,-0.000536573,0
0.1,5.4,0,0.29994,-0.000491006,0
0.1,5.5,0,0.299938,-0.000443785,0
0.1,5.6,0,0.299936,-0.000395005,0
0.1,5.7,0,0.299935,-0.000344781,0
0.1,5.8,0,0.299933,-0.00029325,0
0.1,5.9,0,0.299932,-0.000240558,0
0.1,6,0,0.299931,-0.000186872,0
0.1,6.1,0,0.29993,-0.000132369,0
0.1,6.2,0,0.299929,-7.72383e-05,0
0.1,6.3,0,0.299929,-2.16761e-05,0
0.1,6.4,0,0.299928,3.41152e-05,0
0.1,6.5,0,0.299929,8.99301e-05,0
0.1,6.6,0,0.299929,0.000145564,0
0.1,6.7,0,0.299929,0.00020082,0
0.1,6.8,0,0.29993,0.000255502,0
0.1,6.9,0,0.29993,0.000309494,0
0.1,7,0,0.299931,0.000391922,0
0.1,7.1,0,0.299981,0.000432918,0
0.1,7.2,0,0.299974,0.000455222,0
0.1,7.3,0,0.299942,0.000512516,0
0.1,7.4,0,0.299988,0.000570224,0
0.1,7.5,0,0.29997,0.000594427,0
0.1,7.6,0,0.299954,0.000648388,0
0.1,7.7,0,0.29999,0.000691662,0
0.1,7.8,0,0.299969,0.000720396,0
0.1,7.9,0,0.299966,0.000766902,0
0.1,8,0,0.299991,0.00079714,0
0.1,8.1,0,0.29997,0.000827794,0
0.1,8.2,0,0.299976,0.000865958,0
0.1,8.3,0,0.299993,0.000885392,0
0.1,8.4,0,0.299972,0.000915696,0
0.1,8.5,0,0.299985,0.000945529,0
0.1,8.6,0,0.299994,0.000957696,0
0.1,8.7,0,0.299976,0.000984706,0
0.1,8.8,0,0.299991,0.00100671,0
0.1,8.9,0,0.299993,0.00101577,0
0.1,9,0,0.299982,0.00103611,0
0.1,9.1,0,0.299996,0.00105137,0
0.1,9.2,0,0.299994,0.00105786,0
0.1,9.3,0,0.299989,0.00107189,0
0.1,9.4,0,0.299998,0.00108128,0
0.1,9.5,0,0.299996,0.00108636,0
0.1,9.6,0,0.299994,0.00109509,0
0.1,9.7,0,0.299999,0.00109957,0
0.1,9.8,0,0.299997,0.00110381,0
0.1,9.9,0,0.299997,0.00110825,0
0.1,10,0,0.299999,0.0011097,0
0.1,10.1,0,0.299999,0.00111267,0
0.1,10.2,0,0.299999,0.00111378,0
0.1,10.3,0,0.3,0.00111363,0
0.1,10.4,0,0.3,0.0011152,0
0.1,10.5,0,0.3,0.00111383,0
0.1,10.6,0,0.3,0.00111313,0
0.1,10.7,0,0.300002,0.00111339,0
0.1,10.8,0,0.300001,0.00111025,0
0.1,10.9,0,0.300001,0.00110949,0
0.1,11,0,0.300003,0.00110859,0
0.1,11.1,0,0.300001,0.00110463,0
0.1,11.2,0,0.300002,0.00110411,0
0.1,11.3,0,0.300003,0.00110239,0
0.1,11.4,0,0.300001,0.00109867,0
0.1,11.5,0,0.300002,0.00109819,0
0.1,11.6,0,0.300002,0.00109604,0
0.1,11.7,0,0.300001,0.00109305,0
0.1,11.8,0,0.300002,0.00109266,0
0.1,11.9,0,0.300002,0.0010904,0
0.1,12,0,0.300001,0.00108825,0
0.1,12.1,0,0.300001,0.00108823,0
0.1,12.2,0,0.300001,0.0010861,0
0.1,12.3,0,0.3,0.00108476,0
0.1,12.4,0,0.300001,0.00108543,0
0.1,12.5,0,0.3,0.00108358,0
0.1,12.6,0,0.3,0.00125247,0
0.1,12.7,0,0.3,0.00149246,0
0.2,0,0,0.3,-0.00240999,0
0.2,0.1,0,0.3,-0.00226765,0
0.2,0.2,0,0.3,-0.00226779,0
0.2,0.3,0,0.3,-0.00226791,0
0.2,0.4,0,0.3,-0.00226826,0
0.2,0.5,0,0.3,-0.00226939,0
0.2,0.6,0,0.3,-0.00226889,0
0.2,0.7,0,0.3,-0.00226936,0
0.2,0.8,0,0.3,-0.00226959,0
0.2,0.9,0,0.3,-0.00227,0
0.2,1,0,0.3,-0.00227115,0
0.2,1.1,0,0.3,-0.00227041,0
0.2,1.2,0,0.3,-0.00227051,0
0.2,1.3,0,0.3,-0.00227043,0
0.2,1.4,0,0.3,-0.0022699,0
0.2,1.5,0,0.299999,-0.0022703,0
0.2,1.6,0,0.299999,-0.00226837,0
0.2,1.7,0,0.299999,-0.00226682,0
0.2,1.8,0,0.299999,-0.0022657,0
0.2,1.9,0,0.299998,-0.00226261,0
0.2,2,0,0.299996,-0.00226101,0
0.2,2.1,0,0.299996,-0.00225643,0
0.2,2.2,0,0.299994,-0.00225121,0
0.2,2.3,0,0.299995,-0.00224794,0
0.2,2.4,0,0.299993,-0.00223988,0
0.2,2.5,0,0.29999,-0.00223445,0
0.2,2.6,0,0.299991,-0.00222509,0
0.2,2.7,0,0.299989,-0.00221336,0
0.2,2.8,0,0.299988,-0.00220639,0
0.2,2.9,0,0.299985,-0.00219004,0
0.2,3,0,0.29998,-0.00217827,0
0.2,3.1,0,0.299982,-0.00216134,0
0.2,3.2,0,0.299979,-0.00213932,0
0.2,3.3,0,0.299978,-0.00212668,0
0.2,3.4,0,0.299974,-0.00209785,0
0.2,3.5,0,0.299965,-0.00207658,0
0.2,3.6,0,0.299969,-0.00204868,0
0.2,3.7,0,0.299965,-0.00201185,0
0.2,3.8,0,0.299964,-0.00199122,0
0.2,3.9,0,0.299959,-0.00194518,0
0.2,4,0,0.299945,-0.00191082,0
0.2,4.1,0,0.299953,-0.00186845,0
0.2,4.2,0,0.299947,-0.00181203,0
0.2,4.3,0,0.299946,-0.00178115,0
0.2,4.4,0,0.29994,-0.00171343,0
0.2,4.5,0,0.299921,-0.00166254,0
0.2,4.6,0,0.299933,-0.00160367,0
0.2,4.7,0,0.299927,-0.00152474,0
0.2,4.8,0,0.299927,-0.00148402,0
0.2,4.9,0,0.299922,-0.00141285,0
0.2,5,0,0.299899,-0.00136233,0
0.2,5.1,0,0.299893,-0.001245,0
0.2,5.2,0,0.299889,-0.00116081,0
0.2,5.3,0,0.299885,-0.00107315,0
0.2,5.4,0,0.299881,-0.000982012,0
0.2,5.5,0,0.299877,-0.00088757,0
0.2,5.6,0,0.299873,-0.000790009,0
0.2,5.7,0,0.299869,-0.000689562,0
0.2,5.8,0,0.299866,-0.000586499,0
0.2,5.9,0,0.299864,-0.000481115,0
0.2,6,0,0.299861,-0.000373744,0
0.2,6.1,0,0.29986,-0.000264739,0
0.2,6.2,0,0.299858,-0.000154477,0
0.2,6.3,0,0.299857,-4.33521e-05,0
0.2,6.4,0,0.299857,6.82304e-05,0
0.2,6.5,0,0.299857,0.00017986,0
0.2,6.6,0,0.299857,0.000291129,0
0.2,6.7,0,0.299858,0.00040164,0
0.2,6.8,0,0.29986,0.000511003,0
0.2,6.9,0,0.299861,0.000618988,0
0.2,7,0,0.299863,0.000783844,0
0.2,7.1,0,0.299892,0.000849401,0
0.2,7.2,0,0.299895,0.000947515,0
0.2,7.3,0,0.299877,0.00101629,0
0.2,7.4,0,0.2999,0.00110648,0
0.2,7.5,0,0.299905,0.00121978,0
0.2,7.6,0,0.299896,0.00128132,0
0.2,7.7,0,0.299912,0.00136839,0
0.2,7.8,0,0.299918,0.00146758,0
0.2,7.9,0,0.299915,0.00151408,0
0.2,8,0,0.299926,0.00159436,0
0.2,8.1,0,0.299927,0.00167216,0
0.2,8.2,0,0.299933,0.00171134,0
0.2,8.3,0,0.299941,0.00178138,0
0.2,8.4,0,0.299938,0.0018399,0
0.2,8.5,0,0.299948,0.0018746,0
0.2,8.6,0,0.299954,0.00193004,0
0.2,8.7,0,0.29995,0.00197211,0
0.2,8.8,0,0.299961,0.00200092,0
0.2,8.9,0,0.299967,0.00204297,0
0.2,9,0,0.299962,0.00207146,0
0.2,9.1,0,0.299972,0.00209394,0
0.2,9.2,0,0.299977,0.00212423,0
0.2,9.3,0,0.299976,0.00214177,0
0.2,9.4,0,0.299982,0.0021583,0
0.2,9.5,0,0.299987,0.00217867,0
0.2,9.6,0,0.299986,0.00218819,0
0.2,9.7,0,0.29999,0.00219903,0
0.2,9.8,0,0.299993,0.00221093,0
0.2,9.9,0,0.299993,0.00221538,0
0.2,10,0,0.299995,0.00222113,0
0.2,10.1,0,0.299997,0.00222665,0
0.2,10.2,0,0.299998,0.00222789,0
0.2,10.3,0,0.3,0.00222925,0
0.2,10.4,0,0.300001,0.00223073,0
0.2,10.5,0,0.300001,0.00222942,0
0.2,10.6,0,0.300002,0.00222755,0
0.2,10.7,0,0.300004,0.00222679,0
0.2,10.8,0,0.300004,0.00222344,0
0.2,10.9,0,0.300004,0.00221957,0
0.2,11,0,0.300005,0.00221757,0
0.2,11.1,0,0.300005,0.00221313,0
0.2,11.2,0,0.300005,0.00220826,0
0.2,11.3,0,0.300006,0.00220581,0
0.2,11.4,0,0.300005,0.00220104,0
0.2,11.5,0,0.300005,0.00219597,0
0.2,11.6,0,0.300005,0.0021937,0
0.2,11.7,0,0.300004,0.00218918,0
0.2,11.8,0,0.300004,0.00218506,0
0.2,11.9,0,0.300004,0.0021828,0
0.2,12,0,0.300003,0.00217913,0
0.2,12.1,0,0.300003,0.00217645,0
0.2,12.2,0,0.300002,0.0021744,0
0.2,12.3,0,0.300002,0.00217204,0
0.2,12.4,0,0.300001,0.00217095,0
0.2,12.5,0,0.300001,0.00216952,0
0.2,12.6,0,0.300001,0.0021687,0
0.2,12.7,0,0.300001,0.00230514,0
0.3,0,0,0.3,-0.00340426,0
0.3,0.1,0,0.3,-0.00340353,0
0.3,0.2,0,0.3,-0.00340366,0
0.3,0.3,0,0.300001,-0.00340406,0
0.3,0.4,0,0.300001,-0.00340441,0
0.3,0.5,0,0.300001,-0.00340577,0
0.3,0.6,0,0.300001,-0.0034055,0
0.3,0.7,0,0.300001,-0.00340597,0
0.3,0.8,0,0.300001,-0.00340672,0
0.3,0.9,0,0.300001,-0.00340713,0
0.3,1,0,0.300001,-0.00340854,0
0.3,1.1,0,0.300001,-0.00340789,0
0.3,1.2,0,0.3,-0.00340799,0
0.3,1.3,0,0.3,-0.00340782,0
0.3,1.4,0,0.299999,-0.0034073,0
0.3,1.5,0,0.299998,-0.00340752,0
0.3,1.6,0,0.299998,-0.00340489,0
0.3,1.7,0,0.299997,-0.00340333,0
0.3,1.8,0,0.299996,-0.00340009,0
0.3,1.9,0,0.299995,-0.003397,0
0.3,2,0,0.299992,-0.00339396,0
0.3,2.1,0,0.299992,-0.0033869,0
0.3,2.2,0,0.29999,-0.00338168,0
0.3,2.3,0,0.299987,-0.00337205,0
0.3,2.4,0,0.299985,-0.00336399,0
0.3,2.5,0,0.29998,-0.00335463,0
0.3,2.6,0,0.29998,-0.00333963,0
0.3,2.7,0,0.299977,-0.00332789,0
0.3,2.8,0,0.299973,-0.00330726,0
0.3,2.9,0,0.29997,-0.00329091,0
0.3,3,0,0.299961,-0.00327105,0
0.3,3.1,0,0.299961,-0.00324342,0
0.3,3.2,0,0.299958,-0.0032214,0
0.3,3.3,0,0.299951,-0.00318378,0
0.3,3.4,0,0.299947,-0.00315495,0
0.3,3.5,0,0.299933,-0.00311929,0
0.3,3.6,0,0.299934,-0.00307339,0
0.3,3.7,0,0.29993,-0.00303656,0
0.3,3.8,0,0.29992,-0.00297491,0
0.3,3.9,0,0.299915,-0.00292887,0
0.3,4,0,0.299894,-0.00287142,0
0.3,4.1,0,0.299898,-0.00280123,0
0.3,4.2,0,0.299892,-0.00274482,0
0.3,4.3,0,0.299881,-0.00265193,0
0.3,4.4,0,0.299875,-0.0025842,0
0.3,4.5,0,0.299847,-0.00249947,0
0.3,4.6,0,0.299856,-0.00240018,0
0.3,4.7,0,0.29985,-0.00232125,0
0.3,4.8,0,0.299838,-0.00219338,0
0.3,4.9,0,0.299833,-0.0021222,0
0.3,5,0,0.299803,-0.00204848,0
0.3,5.1,0,0.29979,-0.00187233,0
0.3,5.2,0,0.299782,-0.00174608,0
0.3,5.3,0,0.299774,-0.00161447,0
0.3,5.4,0,0.299765,-0.00147758,0
0.3,5.5,0,0.299757,-0.00133565,0
0.3,5.6,0,0.299749,-0.00118899,0
0.3,5.7,0,0.299742,-0.00103795,0
0.3,5.8,0,0.299736,-0.000882939,0
0.3,5.9,0,0.299731,-0.000724409,0
0.3,6,0,0.299726,-0.000562866,0
0.3,6.1,0,0.299723,-0.000398849,0
0.3,6.2,0,0.29972,-0.000232929,0
0.3,6.3,0,0.299718,-6.57061e-05,0
0.3,6.4,0,0.299718,0.000102203,0
0.3,6.5,0,0.299718,0.000270173,0
0.3,6.6,0,0.299719,0.000437576,0
0.3,6.7,0,0.299721,0.000603799,0
0.3,6.8,0,0.299724,0.000768234,0
0.3,6.9,0,0.299727,0.000930461,0
0.3,7,0,0.299733,0.0011783,0
0.3,7.1,0,0.299768,0.00128254,0
0.3,7.2,0,0.299771,0.00138065,0
0.3,7.3,0,0.299757,0.00154119,0
0.3,7.4,0,0.299787,0.00167955,0
0.3,7.5,0,0.299793,0.00179285,0
0.3,7.6,0,0.299792,0.00195033,0
0.3,7.7,0,0.299813,0.00206517,0
0.3,7.8,0,0.29982,0.00216633,0
0.3,7.9,0,0.299829,0.00230668,0
0.3,8,0,0.299842,0.00239751,0
0.3,8.1,0,0.299845,0.00248941,0
0.3,8.2,0,0.299865,0.00260312,0
0.3,8.3,0,0.299872,0.00267316,0
0.3,8.4,0,0.299873,0.00275326,0
0.3,8.5,0,0.299894,0.00283765,0
0.3,8.6,0,0.2999,0.00289308,0
0.3,8.7,0,0.2999,0.00295996,0
0.3,8.8,0,0.29992,0.00301902,0
0.3,8.9,0,0.299926,0.00306108,0
0.3,9,0,0.299927,0.00311367,0
0.3,9.1,0,0.299943,0.00315263,0
0.3,9.2,0,0.299949,0.00318292,0
0.3,9.3,0,0.299953,0.0032207,0
0.3,9.4,0,0.299963,0.00324514,0
0.3,9.5,0,0.299967,0.0032655,0
0.3,9.6,0,0.299973,0.00329006,0
0.3,9.7,0,0.299979,0.00330376,0
0.3,9.8,0,0.299982,0.00331641,0
0.3,9.9,0,0.299988,0.00332942,0
0.3,10,0,0.299991,0.00333562,0
0.3,10.1,0,0.299993,0.00334218,0
0.3,10.2,0,0.299997,0.00334599,0
0.3,10.3,0,0.299999,0.00334734,0
0.3,10.4,0,0.300002,0.00334898,0
0.3,10.5,0,0.300004,0.0033467,0
0.3,10.6,0,0.300005,0.00334484,0
0.3,10.7,0,0.300007,0.00334277,0
0.3,10.8,0,0.300008,0.00333703,0
0.3,10.9,0,0.300009,0.00333316,0
0.3,11,0,0.30001,0.0033282,0
0.3,11.1,0,0.30001,0.00332138,0
0.3,11.2,0,0.30001,0.00331651,0
0.3,11.3,0,0.300011,0.00330982,0
0.3,11.4,0,0.30001,0.00330335,0
0.3,11.5,0,0.30001,0.00329829,0
0.3,11.6,0,0.30001,0.00329112,0
0.3,11.7,0,0.300009,0.00328577,0
0.3,11.8,0,0.300009,0.0032811,0
0.3,11.9,0,0.300008,0.00327459,0
0.3,12,0,0.300007,0.00327084,0
0.3,12.1,0,0.300007,0.0032672,0
0.3,12.2,0,0.300005,0.00326256,0
0.3,12.3,0,0.300004,0.0032602,0
0.3,12.4,0,0.300003,0.00325819,0
0.3,12.5,0,0.300002,0.00325578,0
0.3,12.6,0,0.300002,0.00325496,0
0.3,12.7,0,0.300002,0.00325512,0
0.4,0,0,0.3,-0.00454173,0
0.4,0.1,0,0.3,-0.00454014,0
0.4,0.2,0,0.300001,-0.0045413,0
0.4,0.3,0,0.300001,-0.00454169,0
0.4,0.4,0,0.300001,-0.00454148,0
0.4,0.5,0,0.300002,-0.00454383,0
0.4,0.6,0,0.300001,-0.00454283,0
0.4,0.7,0,0.300001,-0.00454462,0
0.4,0.8,0,0.300002,-0.00454537,0
0.4,0.9,0,0.300001,-0.00454534,0
0.4,1,0,0.300001,-0.00454776,0
0.4,1.1,0,0.300001,-0.00454635,0
0.4,1.2,0,0.3,-0.00454752,0
0.4,1.3,0,0.3,-0.00454736,0
0.4,1.4,0,0.299998,-0.00454584,0
0.4,1.5,0,0.299997,-0.0045468,0
0.4,1.6,0,0.299997,-0.0045431,0
0.4,1.7,0,0.299994,-0.0045414,0
0.4,1.8,0,0.299993,-0.00453815,0
0.4,1.9,0,0.299991,-0.00453234,0
0.4,2,0,0.299987,-0.00452934,0
0.4,2.1,0,0.299987,-0.00452044,0
0.4,2.2,0,0.299981,-0.00451232,0
0.4,2.3,0,0.299978,-0.00450269,0
0.4,2.4,0,0.299975,-0.00448842,0
0.4,2.5,0,0.299967,-0.00447777,0
0.4,2.6,0,0.299967,-0.0044595,0
0.4,2.7,0,0.299958,-0.00443994,0
0.4,2.8,0,0.299953,-0.00441931,0
0.4,2.9,0,0.299949,-0.00439082,0
0.4,3,0,0.299934,-0.00436746,0
0.4,3.1,0,0.299937,-0.00433422,0
0.4,3.2,0,0.299921,-0.00429656,0
0.4,3.3,0,0.299914,-0.00425894,0
0.4,3.4,0,0.299909,-0.00420892,0
0.4,3.5,0,0.299886,-0.00416643,0
0.4,3.6,0,0.299893,-0.00411147,0
0.4,3.7,0,0.29987,-0.00404766,0
0.4,3.8,0,0.29986,-0.00398601,0
0.4,3.9,0,0.299855,-0.00390605,0
0.4,4,0,0.29982,-0.0038372,0
0.4,4.1,0,0.299834,-0.00375325,0
0.4,4.2,0,0.299802,-0.00365478,0
0.4,4.3,0,0.29979,-0.00356189,0
0.4,4.4,0,0.299788,-0.0034438,0
0.4,4.5,0,0.299739,-0.00334206,0
0.4,4.6,0,0.299763,-0.00322242,0
0.4,4.7,0,0.299723,-0.00308453,0
0.4,4.8,0,0.299711,-0.00295665,0
0.4,4.9,0,0.299717,-0.00281588,0
0.4,5,0,0.299662,-0.00273961,0
0.4,5.1,0,0.299639,-0.00250452,0
0.4,5.2,0,0.299623,-0.00233621,0
0.4,5.3,0,0.299608,-0.00216056,0
0.4,5.4,0,0.299593,-0.00197771,0
0.4,5.5,0,0.299579,-0.00178804,0
0.4,5.6,0,0.299566,-0.00159195,0
0.4,5.7,0,0.299554,-0.00138994,0
0.4,5.8,0,0.299543,-0.00118257,0
0.4,5.9,0,0.299534,-0.000970438,0
0.4,6,0,0.299526,-0.00075424,0
0.4,6.1,0,0.299519,-0.000534699,0
0.4,6.2,0,0.299515,-0.000312595,0
0.4,6.3,0,0.299512,-8.8738e-05,0
0.4,6.4,0,0.299511,0.000136034,0
0.4,6.5,0,0.299511,0.000360868,0
0.4,6.6,0,0.299513,0.000584905,0
0.4,6.7,0,0.299517,0.000807297,0
0.4,6.8,0,0.299523,0.00102719,0
0.4,6.9,0,0.29953,0.00124391,0
0.4,7,0,0.299542,0.0015753,0
0.4,7.1,0,0.299602,0.00168416,0
0.4,7.2,0,0.299606,0.00186713,0
0.4,7.3,0,0.299579,0.00205282,0
0.4,7.4,0,0.299641,0.00222635,0
0.4,7.5,0,0.299639,0.00242897,0
0.4,7.6,0,0.299633,0.00259372,0
0.4,7.7,0,0.299687,0.00275562,0
0.4,7.8,0,0.299683,0.0029252,0
0.4,7.9,0,0.299692,0.00306555,0
0.4,8,0,0.299738,0.00320945,0
0.4,8.1,0,0.299731,0.00334594,0
0.4,8.2,0,0.299752,0.0034608,0
0.4,8.3,0,0.29979,0.00358377,0
0.4,8.4,0,0.299781,0.00368949,0
0.4,8.5,0,0.299808,0.00377938,0
0.4,8.6,0,0.299838,0.00387903,0
0.4,8.7,0,0.29983,0.0039588,0
0.4,8.8,0,0.299858,0.00402553,0
0.4,8.9,0,0.299878,0.00410012,0
0.4,9,0,0.299876,0.00415958,0
0.4,9.1,0,0.299901,0.00420652,0
0.4,9.2,0,0.299914,0.00425941,0
0.4,9.3,0,0.299917,0.00430012,0
0.4,9.4,0,0.299937,0.00433199,0
0.4,9.5,0,0.299945,0.00436639,0
0.4,9.6,0,0.299951,0.00439162,0
0.4,9.7,0,0.299964,0.00441133,0
0.4,9.8,0,0.29997,0.00443094,0
0.4,9.9,0,0.299976,0.00444395,0
0.4,10,0,0.299985,0.00445354,0
0.4,10.1,0,0.299989,0.00446262,0
0.4,10.2,0,0.299994,0.00446641,0
0.4,10.3,0,0.3,0.00446803,0
0.4,10.4,0,0.300003,0.00447012,0
0.4,10.5,0,0.300006,0.00446736,0
0.4,10.6,0,0.30001,0.00446333,0
0.4,10.7,0,0.300013,0.00446106,0
0.4,10.8,0,0.300013,0.00445404,0
0.4,10.9,0,0.300015,0.00444677,0
0.4,11,0,0.300018,0.00444148,0
0.4,11.1,0,0.300016,0.00443247,0
0.4,11.2,0,0.300018,0.00442396,0
0.4,11.3,0,0.300019,0.00441707,0
0.4,11.4,0,0.300017,0.00440749,0
0.4,11.5,0,0.300017,0.00439941,0
0.4,11.6,0,0.300018,0.00439221,0
0.4,11.7,0,0.300015,0.00438314,0
0.4,11.8,0,0.300015,0.00437665,0
0.4,11.9,0,0.300014,0.00437014,0
0.4,12,0,0.300012,0.00436256,0
0.4,12.1,0,0.300011,0.00435835,0
0.4,12.2,0,0.300009,0.00435328,0
0.4,12.3,0,0.300007,0.00434804,0
0.4,12.4,0,0.300006,0.00434648,0
0.4,12.5,0,0.300004,0.00434335,0
0.4,12.6,0,0.300003,0.00434151,0
0.4,12.7,0,0.300003,0.0043424,0
0.5,0,0,0.300001,-0.0056792,0
0.5,0.1,0,0.300001,-0.0056795,0
0.5,0.2,0,0.300001,-0.00567979,0
0.5,0.3,0,0.300001,-0.00568032,0
0.5,0.4,0,0.300002,-0.00568111,0
0.5,0.5,0,0.300002,-0.0056819,0
0.5,0.6,0,0.300002,-0.00568295,0
0.5,0.7,0,0.300002,-0.005684,0
0.5,0.8,0,0.300002,-0.00568502,0
0.5,0.9,0,0.300002,-0.005686,0
0.5,1,0,0.300002,-0.00568698,0
0.5,1.1,0,0.300001,-0.0056874,0
0.5,1.2,0,0.3,-0.00568781,0
0.5,1.3,0,0.299999,-0.00568763,0
0.5,1.4,0,0.299998,-0.00568686,0
0.5,1.5,0,0.299996,-0.00568608,0
0.5,1.6,0,0.299994,-0.0056833,0
0.5,1.7,0,0.299991,-0.00568052,0
0.5,1.8,0,0.299988,-0.00567625,0
0.5,1.9,0,0.299985,-0.00567048,0
0.5,2,0,0.299981,-0.00566472,0
0.5,2.1,0,0.299976,-0.00565476,0
0.5,2.2,0,0.299971,-0.0056448,0
0.5,2.3,0,0.299966,-0.00563204,0
0.5,2.4,0,0.299959,-0.00561648,0
0.5,2.5,0,0.299953,-0.00560091,0
0.5,2.6,0,0.299945,-0.00557809,0
0.5,2.7,0,0.299937,-0.00555526,0
0.5,2.8,0,0.299927,-0.00552785,0
0.5,2.9,0,0.299917,-0.00549586,0
0.5,3,0,0.299907,-0.00546387,0
0.5,3.1,0,0.299894,-0.0054206,0
0.5,3.2,0,0.299882,-0.00537734,0
0.5,3.3,0,0.299868,-0.00532728,0
0.5,3.4,0,0.299853,-0.00527043,0
0.5,3.5,0,0.299839,-0.00521357,0
0.5,3.6,0,0.299821,-0.0051407,0
0.5,3.7,0,0.299804,-0.00506782,0
0.5,3.8,0,0.299785,-0.00498571,0
0.5,3.9,0,0.299765,-0.00489435,0
0.5,4,0,0.299745,-0.00480299,0
0.5,4.1,0,0.299723,-0.00469075,0
0.5,4.2,0,0.299701,-0.00457851,0
0.5,4.3,0,0.299678,-0.00445484,0
0.5,4.4,0,0.299655,-0.00431974,0
0.5,4.5,0,0.299631,-0.00418464,0
0.5,4.6,0,0.299606,-0.0040264,0
0.5,4.7,0,0.299582,-0.00386815,0
0.5,4.8,0,0.29956,-0.00371737,0
0.5,4.9,0,0.299541,-0.00357406,0
0.5,5,0,0.299521,-0.00343074,0
0.5,5.1,0,0.299487,-0.0031367,0
0.5,5.2,0,0.299464,-0.00292634,0
0.5,5.3,0,0.299443,-0.00270664,0
0.5,5.4,0,0.299422,-0.00247784,0
0.5,5.5,0,0.299401,-0.00224042,0
0.5,5.6,0,0.299382,-0.00199491,0
0.5,5.7,0,0.299365,-0.00174194,0
0.5,5.8,0,0.29935,-0.0014822,0
0.5,5.9,0,0.299337,-0.00121647,0
0.5,6,0,0.299325,-0.000945613,0
0.5,6.1,0,0.299316,-0.00067055,0
0.5,6.2,0,0.29931,-0.000392261,0
0.5,6.3,0,0.299305,-0.00011177,0
0.5,6.4,0,0.299304,0.000169865,0
0.5,6.5,0,0.299305,0.000451563,0
0.5,6.6,0,0.299308,0.000732234,0
0.5,6.7,0,0.299314,0.0010108,0
0.5,6.8,0,0.299322,0.00128615,0
0.5,6.9,0,0.299332,0.00155736,0
0.5,7,0,0.299351,0.0019723,0
0.5,7.1,0,0.299365,0.00217096,0
0.5,7.2,0,0.29938,0.00236963,0
0.5,7.3,0,0.299395,0.00257283,0
0.5,7.4,0,0.299418,0.00280171,0
0.5,7.5,0,0.299441,0.00303059,0
0.5,7.6,0,0.299464,0.00325126,0
0.5,7.7,0,0.299491,0.00345278,0
0.5,7.8,0,0.299517,0.0036543,0
0.5,7.9,0,0.299544,0.00384204,0
0.5,8,0,0.299571,0.00401295,0
0.5,8.1,0,0.299599,0.00418385,0
0.5,8.2,0,0.299626,0.00433619,0
0.5,8.3,0,0.299653,0.00447614,0
0.5,8.4,0,0.29968,0.0046161,0
0.5,8.5,0,0.299705,0.00473386,0
0.5,8.6,0,0.299731,0.00484422,0
0.5,8.7,0,0.299756,0.00495458,0
0.5,8.8,0,0.299779,0.00504063,0
0.5,8.9,0,0.299801,0.00512397,0
0.5,9,0,0.299823,0.00520613,0
0.5,9.1,0,0.299843,0.00526582,0
0.5,9.2,0,0.299862,0.00532551,0
0.5,9.3,0,0.299881,0.00538122,0
0.5,9.4,0,0.299897,0.00542101,0
0.5,9.5,0,0.299913,0.00546079,0
0.5,9.6,0,0.299928,0.00549494,0
0.5,9.7,0,0.29994,0.00551862,0
0.5,9.8,0,0.299953,0.0055423,0
0.5,9.9,0,0.299964,0.00555974,0
0.5,10,0,0.299973,0.00557093,0
0.5,10.1,0,0.299983,0.00558212,0
0.5,10.2,0,0.29999,0.00558733,0
0.5,10.3,0,0.299997,0.00558931,0
0.5,10.4,0,0.300004,0.00559128,0
0.5,10.5,0,0.300009,0.00558819,0
0.5,10.6,0,0.300014,0.00558383,0
0.5,10.7,0,0.300018,0.00557946,0
0.5,10.8,0,0.300021,0.00557139,0
0.5,10.9,0,0.300023,0.00556311,0
0.5,11,0,0.300025,0.00555465,0
0.5,11.1,0,0.300026,0.00554448,0
0.5,11.2,0,0.300027,0.0055343,0
0.5,11.3,0,0.300027,0.00552406,0
0.5,11.4,0,0.300027,0.0055136,0
0.5,11.5,0,0.300026,0.00550315,0
0.5,11.6,0,0.300026,0.00549309,0
0.5,11.7,0,0.300024,0.00548361,0
0.5,11.8,0,0.300023,0.00547414,0
0.5,11.9,0,0.300021,0.00546573,0
0.5,12,0,0.300019,0.00545821,0
0.5,12.1,0,0.300017,0.00545069,0
0.5,12.2,0,0.300014,0.00544502,0
0.5,12.3,0,0.300012,0.00544015,0
0.5,12.4,0,0.300009,0.00543527,0
0.5,12.5,0,0.300008,0.00543309,0
0.5,12.6,0,0.300006,0.00543139,0
0.5,12.7,0,0.300005,0.00542968,0
0.6,0,0,0.300001,-0.00681975,0
0.6,0.1,0,0.300001,-0.00681826,0
0.6,0.2,0,0.300002,-0.00681956,0
0.6,0.3,0,0.300002,-0.00682033,0
0.6,0.4,0,0.300003,-0.00682034,0
0.6,0.5,0,0.300004,-0.00682329,0
0.6,0.6,0,0.300004,-0.00682294,0
0.6,0.7,0,0.300004,-0.00682513,0
0.6,0.8,0,0.300004,-0.00682662,0
0.6,0.9,0,0.300004,-0.00682694,0
0.6,1,0,0.300003,-0.00683021,0
0.6,1.1,0,0.300002,-0.00682928,0
0.6,1.2,0,0.300001,-0.00683079,0
0.6,1.3,0,0.299999,-0.00683095,0
0.6,1.4,0,0.299998,-0.00682942,0
0.6,1.5,0,0.299995,-0.00683054,0
0.6,1.6,0,0.299992,-0.00682594,0
0.6,1.7,0,0.299988,-0.00682387,0
0.6,1.8,0,0.299984,-0.00681912,0
0.6,1.9,0,0.29998,-0.00681217,0
0.6,2,0,0.299972,-0.00680706,0
0.6,2.1,0,0.299967,-0.00679392,0
0.6,2.2,0,0.29996,-0.00678377,0
0.6,2.3,0,0.299952,-0.00676864,0
0.6,2.4,0,0.299946,-0.00675091,0
0.6,2.5,0,0.299931,-0.00673353,0
0.6,2.6,0,0.299924,-0.00670483,0
0.6,2.7,0,0.29991,-0.00668016,0
0.6,2.8,0,0.299897,-0.00664698,0
0.6,2.9,0,0.299888,-0.00661106,0
0.6,3,0,0.299862,-0.00657304,0
0.6,3.1,0,0.299853,-0.00651937,0
0.6,3.2,0,0.299831,-0.00647163,0
0.6,3.3,0,0.299811,-0.00641033,0
0.6,3.4,0,0.2998,-0.00634671,0
0.6,3.5,0,0.29976,-0.00627736,0
0.6,3.6,0,0.299752,-0.00618718,0
0.6,3.7,0,0.299719,-0.00610594,0
0.6,3.8,0,0.299691,-0.00600459,0
0.6,3.9,0,0.299677,-0.00590236,0
0.6,4,0,0.299621,-0.00578933,0
0.6,4.1,0,0.299615,-0.00565029,0
0.6,4.2,0,0.299571,-0.00552436,0
0.6,4.3,0,0.299537,-0.00537072,0
0.6,4.4,0,0.299523,-0.00521936,0
0.6,4.5,0,0.29945,-0.00505066,0
0.6,4.6,0,0.29945,-0.004853,0
0.6,4.7,0,0.299397,-0.00467522,0
0.6,4.8,0,0.29936,-0.00446399,0
0.6,4.9,0,0.299354,-0.00427976,0
0.6,5,0,0.299282,-0.00414606,0
0.6,5.1,0,0.299229,-0.00379201,0
0.6,5.2,0,0.299194,-0.00353863,0
0.6,5.3,0,0.29916,-0.00327384,0
0.6,5.4,0,0.299128,-0.00299793,0
0.6,5.5,0,0.299097,-0.00271147,0
0.6,5.6,0,0.299068,-0.00241509,0
0.6,5.7,0,0.299042,-0.00210954,0
0.6,5.8,0,0.299019,-0.00179567,0
0.6,5.9,0,0.298998,-0.00147443,0
0.6,6,0,0.298981,-0.00114686,0
0.6,6.1,0,0.298967,-0.000814085,0
0.6,6.2,0,0.298957,-0.000477312,0
0.6,6.3,0,0.29895,-0.000137796,0
0.6,6.4,0,0.298948,0.000203163,0
0.6,6.5,0,0.29895,0.000544237,0
0.6,6.6,0,0.298955,0.000884085,0
0.6,6.7,0,0.298964,0.00122137,0
0.6,6.8,0,0.298977,0.00155476,0
0.6,6.9,0,0.298993,0.00188308,0
0.6,7,0,0.299025,0.00238517,0
0.6,7.1,0,0.2991,0.00257453,0
0.6,7.2,0,0.299111,0.00280466,0
0.6,7.3,0,0.299101,0.00311347,0
0.6,7.4,0,0.299189,0.00340532,0
0.6,7.5,0,0.299196,0.00365834,0
0.6,7.6,0,0.299213,0.00393456,0
0.6,7.7,0,0.299291,0.00418408,0
0.6,7.8,0,0.299301,0.00441275,0
0.6,7.9,0,0.299337,0.00464766,0
0.6,8,0,0.299404,0.0048521,0
0.6,8.1,0,0.299415,0.00505086,0
0.6,8.2,0,0.299463,0.00524205,0
0.6,8.3,0,0.299517,0.00540343,0
0.6,8.4,0,0.29953,0.00556979,0
0.6,8.5,0,0.299583,0.00571827,0
0.6,8.6,0,0.299624,0.00584164,0
0.6,8.7,0,0.299639,0.0059744,0
0.6,8.8,0,0.299692,0.00608354,0
0.6,8.9,0,0.299721,0.0061755,0
0.6,9,0,0.299739,0.00627374,0
0.6,9.1,0,0.299785,0.00634968,0
0.6,9.2,0,0.299806,0.00641451,0
0.6,9.3,0,0.299826,0.00648095,0
0.6,9.4,0,0.299861,0.00653052,0
0.6,9.5,0,0.299877,0.00657355,0
0.6,9.6,0,0.299896,0.00661398,0
0.6,9.7,0,0.29992,0.00664214,0
0.6,9.8,0,0.299933,0.00666802,0
0.6,9.9,0,0.299949,0.00668815,0
0.6,10,0,0.299965,0.00670059,0
0.6,10.1,0,0.299976,0.00671268,0
0.6,10.2,0,0.299988,0.00671775,0
0.6,10.3,0,0.299997,0.00671932,0
0.6,10.4,0,0.300007,0.00672095,0
0.6,10.5,0,0.300015,0.00671555,0
0.6,10.6,0,0.30002,0.00671012,0
0.6,10.7,0,0.300027,0.00670451,0
0.6,10.8,0,0.30003,0.00669251,0
0.6,10.9,0,0.300033,0.00668308,0
0.6,11,0,0.300038,0.00667269,0
0.6,11.1,0,0.300037,0.00665776,0
0.6,11.2,0,0.300039,0.00664678,0
0.6,11.3,0,0.30004,0.00663411,0
0.6,11.4,0,0.300038,0.00661923,0
0.6,11.5,0,0.300039,0.00660811,0
0.6,11.6,0,0.300038,0.00659537,0
0.6,11.7,0,0.300034,0.00658233,0
0.6,11.8,0,0.300034,0.0065724,0
0.6,11.9,0,0.300031,0.00656128,0
0.6,12,0,0.300027,0.00655116,0
0.6,12.1,0,0.300025,0.00654371,0
0.6,12.2,0,0.300021,0.00653544,0
0.6,12.3,0,0.300017,0.00652892,0
0.6,12.4,0,0.300014,0.00652494,0
0.6,12.5,0,0.300009,0.00652032,0
0.6,12.6,0,0.300007,0.00651802,0
0.6,12.7,0,0.300008,0.0065183,0
0.7,0,0,0.300002,-0.0079603,0
0.7,0.1,0,0.300002,-0.00795982,0
0.7,0.2,0,0.300003,-0.00796034,0
0.7,0.3,0,0.300003,-0.0079611,0
0.7,0.4,0,0.300004,-0.00796251,0
0.7,0.5,0,0.300005,-0.00796468,0
0.7,0.6,0,0.300005,-0.00796547,0
0.7,0.7,0,0.300005,-0.0079674,0
0.7,0.8,0,0.300005,-0.00796889,0
0.7,0.9,0,0.300005,-0.00797083,0
0.7,1,0,0.300005,-0.00797344,0
0.7,1.1,0,0.300003,-0.0079736,0
0.7,1.2,0,0.300001,-0.00797485,0
0.7,1.3,0,0.3,-0.00797501,0
0.7,1.4,0,0.299996,-0.00797464,0
0.7,1.5,0,0.299993,-0.00797501,0
0.7,1.6,0,0.299989,-0.00797111,0
0.7,1.7,0,0.299984,-0.00796792,0
0.7,1.8,0,0.299979,-0.00796317,0
0.7,1.9,0,0.299972,-0.00795569,0
0.7,2,0,0.299964,-0.0079494,0
0.7,2.1,0,0.299956,-0.00793606,0
0.7,2.2,0,0.299945,-0.00792253,0
0.7,2.3,0,0.299937,-0.0079074,0
0.7,2.4,0,0.299923,-0.00788569,0
0.7,2.5,0,0.299908,-0.00786614,0
0.7,2.6,0,0.299896,-0.00783561,0
0.7,2.7,0,0.299878,-0.00780323,0
0.7,2.8,0,0.299864,-0.00777005,0
0.7,2.9,0,0.299841,-0.00772416,0
0.7,3,0,0.299817,-0.00768221,0
0.7,3.1,0,0.299799,-0.00762407,0
0.7,3.2,0,0.299771,-0.00756145,0
0.7,3.3,0,0.299751,-0.00750015,0
0.7,3.4,0,0.299718,-0.00741727,0
0.7,3.5,0,0.299682,-0.00734115,0
0.7,3.6,0,0.299658,-0.00724261,0
0.7,3.7,0,0.299619,-0.0071357,0
0.7,3.8,0,0.299591,-0.00703435,0
0.7,3.9,0,0.299547,-0.00689957,0
0.7,4,0,0.299497,-0.00677567,0
0.7,4.1,0,0.299469,-0.00662293,0
0.7,4.2,0,0.29942,-0.0064565,0
0.7,4.3,0,0.299385,-0.00630287,0
0.7,4.4,0,0.299332,-0.00610164,0
0.7,4.5,0,0.299268,-0.00591668,0
0.7,4.6,0,0.29924,-0.00569948,0
0.7,4.7,0,0.299185,-0.00546276,0
0.7,4.8,0,0.299147,-0.00525153,0
0.7,4.9,0,0.299102,-0.00503599,0
0.7,5,0,0.299044,-0.00486138,0
0.7,5.1,0,0.298971,-0.00444733,0
0.7,5.2,0,0.298923,-0.00415092,0
0.7,5.3,0,0.298878,-0.00384104,0
0.7,5.4,0,0.298834,-0.00351803,0
0.7,5.5,0,0.298793,-0.00318252,0
0.7,5.6,0,0.298754,-0.00283527,0
0.7,5.7,0,0.298718,-0.00247714,0
0.7,5.8,0,0.298687,-0.00210914,0
0.7,5.9,0,0.298659,-0.00173238,0
0.7,6,0,0.298636,-0.0013481,0
0.7,6.1,0,0.298617,-0.000957619,0
0.7,6.2,0,0.298604,-0.000562364,0
0.7,6.3,0,0.298595,-0.000163823,0
0.7,6.4,0,0.298592,0.000236461,0
0.7,6.5,0,0.298595,0.000636911,0
0.7,6.6,0,0.298602,0.00103594,0
0.7,6.7,0,0.298614,0.00143195,0
0.7,6.8,0,0.298632,0.00182337,0
0.7,6.9,0,0.298655,0.0022088,0
0.7,7,0,0.298699,0.00279804,0
0.7,7.1,0,0.298756,0.00303599,0
0.7,7.2,0,0.29879,0.00333837,0
0.7,7.3,0,0.298798,0.00364457,0
0.7,7.4,0,0.298866,0.00396888,0
0.7,7.5,0,0.298918,0.00431623,0
0.7,7.6,0,0.298944,0.00460072,0
0.7,7.7,0,0.299011,0.00489297,0
0.7,7.8,0,0.299069,0.0051965,0
0.7,7.9,0,0.299106,0.00543142,0
0.7,8,0,0.29917,0.00568404,0
0.7,8.1,0,0.299223,0.00593292,0
0.7,8.2,0,0.29927,0.00612501,0
0.7,8.3,0,0.299331,0.0063343,0
0.7,8.4,0,0.299376,0.0065309,0
0.7,8.5,0,0.299428,0.00668341,0
0.7,8.6,0,0.299484,0.00684723,0
0.7,8.7,0,0.299521,0.00699645,0
0.7,8.8,0,0.299572,0.0071109,0
0.7,8.9,0,0.299622,0.00723349,0
0.7,9,0,0.299653,0.00734053,0
0.7,9.1,0,0.299698,0.00742167,0
0.7,9.2,0,0.299741,0.00750842,0
0.7,9.3,0,0.299767,0.0075786,0
0.7,9.4,0,0.299803,0.00763296,0
0.7,9.5,0,0.299838,0.00768978,0
0.7,9.6,0,0.299859,0.00773105,0
0.7,9.7,0,0.299887,0.00776307,0
0.7,9.8,0,0.299914,0.00779545,0
0.7,9.9,0,0.29993,0.00781558,0