/*--------------------------------*- C++ -*----------------------------------*\
| =========                 |                                                 |
| \\      /  F ield         | OpenFOAM: The Open Source CFD Toolbox           |
|  \\    /   O peration     | Version:  v1806                                 |
|   \\  /    A nd           | Web:      www.OpenFOAM.com                      |
|    \\/     M anipulation  |                                                 |
\*---------------------------------------------------------------------------*/
FoamFile
{
    version     2.0;
    format      ascii;
    class       volVectorField;
    location    "480";
    object      U;
}
// * * * * * * * * * * * * * * * * * * * * * * * * * * * * * * * * * * * * * //

dimensions      [0 1 -1 0 0 0 0];


internalField   nonuniform List<vector> 
2400
(
(0.3 -0.000537848 0)
(0.300001 -0.00161415 0)
(0.300003 -0.00268982 0)
(0.300006 -0.0037634 0)
(0.300012 -0.00483277 0)
(0.30002 -0.00589491 0)
(0.300031 -0.00694569 0)
(0.300047 -0.00797977 0)
(0.30007 -0.00899041 0)
(0.300099 -0.00996951 0)
(0.300138 -0.0109074 0)
(0.300187 -0.0117931 0)
(0.300248 -0.0126144 0)
(0.300323 -0.0133588 0)
(0.300414 -0.0140127 0)
(0.300521 -0.0145639 0)
(0.300644 -0.0149997 0)
(0.300784 -0.0153109 0)
(0.300939 -0.0154878 0)
(0.301118 -0.0155265 0)
(0.3 -0.000538548 0)
(0.300002 -0.00161634 0)
(0.300007 -0.00269388 0)
(0.300015 -0.00376997 0)
(0.300027 -0.00484277 0)
(0.300044 -0.00590954 0)
(0.300068 -0.00696641 0)
(0.300101 -0.00800833 0)
(0.300146 -0.00902878 0)
(0.300205 -0.0100198 0)
(0.300281 -0.0109719 0)
(0.300376 -0.0118742 0)
(0.300493 -0.0127142 0)
(0.300633 -0.013479 0)
(0.300799 -0.0141549 0)
(0.30099 -0.0147284 0)
(0.301205 -0.0151866 0)
(0.301444 -0.0155177 0)
(0.301704 -0.0157131 0)
(0.301978 -0.0157645 0)
(0.3 -0.000539833 0)
(0.300004 -0.00162036 0)
(0.300011 -0.00270127 0)
(0.300022 -0.00378186 0)
(0.30004 -0.00486077 0)
(0.300065 -0.00593572 0)
(0.300102 -0.00700327 0)
(0.300153 -0.00805874 0)
(0.300223 -0.00909591 0)
(0.300314 -0.010107 0)
(0.300431 -0.0110825 0)
(0.300578 -0.0120114 0)
(0.300759 -0.0128807 0)
(0.300976 -0.0136768 0)
(0.301231 -0.0143847 0)
(0.301525 -0.0149902 0)
(0.301855 -0.0154777 0)
(0.30222 -0.0158358 0)
(0.302612 -0.0160512 0)
(0.303023 -0.0161207 0)
(0.3 -0.000541452 0)
(0.300004 -0.00162546 0)
(0.300012 -0.00271078 0)
(0.300026 -0.00379745 0)
(0.300047 -0.00488478 0)
(0.300079 -0.00597119 0)
(0.300125 -0.00705384 0)
(0.30019 -0.00812861 0)
(0.30028 -0.00918967 0)
(0.3004 -0.0102296 0)
(0.300556 -0.0112387 0)
(0.300753 -0.0122057 0)
(0.300997 -0.0131169 0)
(0.301292 -0.0139578 0)
(0.30164 -0.0147113 0)
(0.302042 -0.0153616 0)
(0.302495 -0.0158905 0)
(0.302996 -0.0162843 0)
(0.303534 -0.0165265 0)
(0.304101 -0.0166107 0)
(0.3 -0.000543034 0)
(0.300004 -0.00163053 0)
(0.300011 -0.00272058 0)
(0.300024 -0.0038142 0)
(0.300046 -0.00491163 0)
(0.300079 -0.00601224 0)
(0.30013 -0.00711398 0)
(0.300205 -0.00821358 0)
(0.30031 -0.00930576 0)
(0.300454 -0.0103835 0)
(0.300642 -0.0114372 0)
(0.300885 -0.0124553 0)
(0.301188 -0.013423 0)
(0.301559 -0.0143245 0)
(0.301999 -0.0151404 0)
(0.302513 -0.0158523 0)
(0.303095 -0.016438 0)
(0.303742 -0.0168805 0)
(0.304439 -0.0171589 0)
(0.305177 -0.0172637 0)
(0.3 -0.000544097 0)
(0.300002 -0.00163413 0)
(0.300007 -0.00272826 0)
(0.300016 -0.00382877 0)
(0.300034 -0.00493706 0)
(0.300064 -0.00605375 0)
(0.300114 -0.00717787 0)
(0.30019 -0.00830729 0)
(0.300303 -0.00943747 0)
(0.300462 -0.0105623 0)
(0.300676 -0.011672 0)
(0.300957 -0.0127551 0)
(0.301314 -0.0137955 0)
(0.301756 -0.014776 0)
(0.302289 -0.0156738 0)
(0.302917 -0.0164673 0)
(0.303635 -0.0171289 0)
(0.30444 -0.0176375 0)
(0.305313 -0.017965 0)
(0.30624 -0.0180992 0)
(0.3 -0.000544032 0)
(0.299999 -0.00163445 0)
(0.299999 -0.0027308 0)
(0.3 -0.00383692 0)
(0.300008 -0.00495561 0)
(0.300028 -0.00608915 0)
(0.300069 -0.00723785 0)
(0.300139 -0.00840123 0)
(0.300249 -0.00957574 0)
(0.300412 -0.0107565 0)
(0.300641 -0.0119341 0)
(0.300951 -0.0130973 0)
(0.301353 -0.0142286 0)
(0.301862 -0.0153092 0)
(0.302485 -0.0163123 0)
(0.30323 -0.0172124 0)
(0.304093 -0.0179743 0)
(0.30507 -0.0185715 0)
(0.306139 -0.0189655 0)
(0.307282 -0.0191403 0)
(0.3 -0.000542105 0)
(0.299995 -0.0016293 0)
(0.299986 -0.00272451 0)
(0.299975 -0.00383351 0)
(0.299967 -0.00496059 0)
(0.299968 -0.00611027 0)
(0.29999 -0.00728428 0)
(0.300041 -0.00848459 0)
(0.300137 -0.00970872 0)
(0.300291 -0.0109542 0)
(0.300521 -0.0122115 0)
(0.300845 -0.0134712 0)
(0.301281 -0.0147136 0)
(0.301847 -0.0159193 0)
(0.302556 -0.0170559 0)
(0.303419 -0.0180938 0)
(0.304436 -0.0189874 0)
(0.305604 -0.0197032 0)
(0.306896 -0.0201879 0)
(0.308291 -0.0204195 0)
(0.3 -0.000537459 0)
(0.299988 -0.00161615 0)
(0.299967 -0.00270507 0)
(0.299938 -0.00381247 0)
(0.299906 -0.00494402 0)
(0.29988 -0.00610732 0)
(0.299871 -0.00730534 0)
(0.299891 -0.0085439 0)
(0.299955 -0.00982126 0)
(0.300083 -0.0111392 0)
(0.300296 -0.0124879 0)
(0.300616 -0.0138615 0)
(0.301069 -0.0152374 0)
(0.301678 -0.0165977 0)
(0.302463 -0.0179021 0)
(0.303445 -0.0191176 0)
(0.304626 -0.0201842 0)
(0.306005 -0.0210595 0)
(0.307555 -0.0216686 0)
(0.309248 -0.0219812 0)
(0.299999 -0.000529129 0)
(0.29998 -0.00159216 0)
(0.299942 -0.00266761 0)
(0.299889 -0.00376692 0)
(0.299825 -0.00489665 0)
(0.299761 -0.00606886 0)
(0.299706 -0.00728687 0)
(0.299678 -0.00856284 0)
(0.299692 -0.00989426 0)
(0.299773 -0.0112914 0)
(0.299944 -0.0127412 0)
(0.300236 -0.0142475 0)
(0.300681 -0.0157806 0)
(0.301311 -0.0173306 0)
(0.302159 -0.0188437 0)
(0.303253 -0.0202885 0)
(0.304606 -0.021582 0)
(0.306222 -0.0226735 0)
(0.308074 -0.0234552 0)
(0.310127 -0.0238848 0)
(0.299999 -0.000516068 0)
(0.299969 -0.00155427 0)
(0.299911 -0.00260676 0)
(0.299827 -0.00368928 0)
(0.299722 -0.00480807 0)
(0.299606 -0.00598196 0)
(0.299492 -0.00721232 0)
(0.299396 -0.00852217 0)
(0.299337 -0.00990412 0)
(0.299343 -0.0113851 0)
(0.299443 -0.0129419 0)
(0.299674 -0.0146011 0)
(0.300077 -0.0163138 0)
(0.300698 -0.0180965 0)
(0.301583 -0.0198652 0)
(0.302775 -0.0216077 0)
(0.304303 -0.0231986 0)
(0.306184 -0.0245867 0)
(0.308391 -0.0256103 0)
(0.310889 -0.0262117 0)
(0.299998 -0.000497198 0)
(0.299956 -0.0014993 0)
(0.299873 -0.00251691 0)
(0.299751 -0.00357157 0)
(0.299595 -0.00466705 0)
(0.299415 -0.00583248 0)
(0.299224 -0.00706286 0)
(0.299039 -0.00839986 0)
(0.298881 -0.00982226 0)
(0.29878 -0.0113894 0)
(0.29877 -0.0130508 0)
(0.298896 -0.0148848 0)
(0.299214 -0.0167932 0)
(0.299776 -0.0188634 0)
(0.30066 -0.0209348 0)
(0.301918 -0.0230712 0)
(0.30362 -0.0250468 0)
(0.305788 -0.0268528 0)
(0.308423 -0.0282188 0)
(0.311478 -0.0290766 0)
(0.299998 -0.000471479 0)
(0.299941 -0.00142414 0)
(0.299828 -0.00239248 0)
(0.299662 -0.00340573 0)
(0.299445 -0.00446198 0)
(0.299189 -0.00560556 0)
(0.298902 -0.006818 0)
(0.298606 -0.00817145 0)
(0.298318 -0.00961514 0)
(0.298072 -0.0112676 0)
(0.297907 -0.0130174 0)
(0.297873 -0.0150507 0)
(0.298042 -0.017153 0)
(0.298478 -0.0195859 0)
(0.299299 -0.0219915 0)
(0.300563 -0.0246677 0)
(0.302422 -0.0271187 0)
(0.304887 -0.0295429 0)
(0.308044 -0.0313934 0)
(0.311809 -0.0326534 0)
(0.299997 -0.000438013 0)
(0.299924 -0.00132586 0)
(0.299779 -0.00222842 0)
(0.299561 -0.00318405 0)
(0.299275 -0.00418182 0)
(0.298929 -0.00528628 0)
(0.298531 -0.00645682 0)
(0.298099 -0.00781067 0)
(0.297649 -0.00924548 0)
(0.297217 -0.0109772 0)
(0.296841 -0.0127793 0)
(0.296579 -0.0150385 0)
(0.296517 -0.0172984 0)
(0.29673 -0.0202007 0)
(0.297395 -0.022924 0)
(0.298557 -0.0263806 0)
(0.300532 -0.0293483 0)
(0.303252 -0.0327582 0)
(0.307067 -0.0352536 0)
(0.311746 -0.0372098 0)
(0.299997 -0.000396163 0)
(0.299905 -0.00120195 0)
(0.299725 -0.00202073 0)
(0.299451 -0.0028997 0)
(0.29909 -0.00381727 0)
(0.298642 -0.00486038 0)
(0.298119 -0.00596019 0)
(0.297526 -0.00729006 0)
(0.296887 -0.00867557 0)
(0.296221 -0.010469 0)
(0.295577 -0.0122655 0)
(0.295002 -0.0147707 0)
(0.294606 -0.0171052 0)
(0.294462 -0.0206144 0)
(0.294826 -0.0235452 0)
(0.295718 -0.0281873 0)
(0.297708 -0.0315499 0)
(0.300538 -0.0366835 0)
(0.305213 -0.0398222 0)
(0.311001 -0.0431201 0)
(0.299997 -0.000345655 0)
(0.299885 -0.00105057 0)
(0.299671 -0.00176715 0)
(0.299335 -0.00254738 0)
(0.298898 -0.00336231 0)
(0.298335 -0.00431537 0)
(0.297683 -0.00531382 0)
(0.296902 -0.00658194 0)
(0.296059 -0.00787318 0)
(0.2951 -0.0096857 0)
(0.294146 -0.0114067 0)
(0.293145 -0.0141413 0)
(0.292308 -0.0164335 0)
(0.291616 -0.0206731 0)
(0.291465 -0.0235921 0)
(0.29184 -0.03 0)
(0.293597 -0.0333392 0)
(0.29632 -0.0417032 0)
(0.302078 -0.0449314 0)
(0.308955 -0.0511754 0)
(0.299998 -0.000286619 0)
(0.299864 -0.000870907 0)
(0.299619 -0.00146756 0)
(0.299215 -0.0021243 0)
(0.298711 -0.00281535 0)
(0.298019 -0.00364244 0)
(0.29725 -0.00451122 0)
(0.296246 -0.00566147 0)
(0.295214 -0.00681853 0)
(0.293881 -0.00856336 0)
(0.292626 -0.0101509 0)
(0.291021 -0.0130022 0)
(0.289712 -0.0151623 0)
(0.288134 -0.0200911 0)
(0.287289 -0.0228018 0)
(0.286659 -0.0314617 0)
(0.287673 -0.0341392 0)
(0.290018 -0.0481177 0)
(0.296742 -0.0499755 0)
(0.304859 -0.0643007 0)
(0.3 -0.000219581 0)
(0.299842 -0.000663654 0)
(0.299574 -0.00112422 0)
(0.299099 -0.00163148 0)
(0.298542 -0.0021797 0)
(0.297709 -0.00283951 0)
(0.296852 -0.00355477 0)
(0.295588 -0.00451379 0)
(0.29442 -0.00550746 0)
(0.292608 -0.00704607 0)
(0.291151 -0.00847268 0)
(0.288661 -0.0111794 0)
(0.287054 -0.0132141 0)
(0.28391 -0.0184019 0)
(0.282609 -0.0210231 0)
(0.279659 -0.031617 0)
(0.27984 -0.0336371 0)
(0.280362 -0.0549903 0)
(0.286201 -0.0529298 0)
(0.298255 -0.0859695 0)
(0.300003 -0.000145415 0)
(0.299821 -0.000431038 0)
(0.299538 -0.000741905 0)
(0.298993 -0.0010745 0)
(0.2984 -0.0014641 0)
(0.297427 -0.00191413 0)
(0.296516 -0.00245621 0)
(0.294975 -0.00314331 0)
(0.293741 -0.00395004 0)
(0.291373 -0.00511446 0)
(0.289865 -0.00636332 0)
(0.286201 -0.00855165 0)
(0.284653 -0.0105202 0)
(0.278956 -0.0151141 0)
(0.278138 -0.0181141 0)
(0.269879 -0.0288961 0)
(0.271769 -0.0321386 0)
(0.264373 -0.0595487 0)
(0.269813 -0.0534584 0)
(0.283277 -0.113054 0)
(0.300006 -6.69254e-05 0)
(0.299804 -0.000176516 0)
(0.299511 -0.000329597 0)
(0.298909 -0.000462673 0)
(0.298293 -0.000686488 0)
(0.297203 -0.000881746 0)
(0.296256 -0.00124527 0)
(0.294484 -0.00157232 0)
(0.293205 -0.00218901 0)
(0.290356 -0.00279577 0)
(0.288814 -0.00385844 0)
(0.284061 -0.00512948 0)
(0.282588 -0.00698289 0)
(0.27411 -0.010082 0)
(0.274023 -0.0133537 0)
(0.257847 -0.0223893 0)
(0.264405 -0.0280089 0)
(0.235819 -0.0607298 0)
(0.270937 -0.065355 0)
(0.26828 -0.210988 0)
(0.301255 -0.0154552 0)
(0.301313 -0.0154114 0)
(0.301366 -0.0153565 0)
(0.301417 -0.0152911 0)
(0.30147 -0.0152151 0)
(0.301524 -0.0151288 0)
(0.301578 -0.015032 0)
(0.301632 -0.0149251 0)
(0.301686 -0.0148081 0)
(0.30174 -0.0146821 0)
(0.302157 -0.0157116 0)
(0.302236 -0.0156773 0)
(0.302317 -0.0156312 0)
(0.302399 -0.0155728 0)
(0.30248 -0.0155025 0)
(0.302562 -0.0154205 0)
(0.302643 -0.0153269 0)
(0.302724 -0.0152222 0)
(0.302804 -0.0151062 0)
(0.302886 -0.0149806 0)
(0.303296 -0.0160631 0)
(0.303418 -0.0160243 0)
(0.303539 -0.0159729 0)
(0.303659 -0.0159093 0)
(0.303778 -0.0158336 0)
(0.303897 -0.0157461 0)
(0.304014 -0.0156468 0)
(0.30413 -0.0155361 0)
(0.304243 -0.015414 0)
(0.304356 -0.0152815 0)
(0.304478 -0.0165548 0)
(0.304644 -0.016516 0)
(0.304808 -0.0164639 0)
(0.30497 -0.0163987 0)
(0.305132 -0.0163204 0)
(0.305292 -0.0162292 0)
(0.305451 -0.0161252 0)
(0.305607 -0.0160087 0)
(0.30576 -0.0158797 0)
(0.305913 -0.0157394 0)
(0.305666 -0.0172098 0)
(0.305882 -0.0171704 0)
(0.306095 -0.017116 0)
(0.306306 -0.0170467 0)
(0.306516 -0.0169627 0)
(0.306723 -0.0168641 0)
(0.306928 -0.0167512 0)
(0.30713 -0.0166243 0)
(0.307328 -0.0164836 0)
(0.307524 -0.0163303 0)
(0.306857 -0.0180468 0)
(0.30713 -0.0180059 0)
(0.307398 -0.0179478 0)
(0.307664 -0.0178726 0)
(0.307928 -0.0177807 0)
(0.308189 -0.0176722 0)
(0.308446 -0.0175473 0)
(0.308699 -0.0174066 0)
(0.308947 -0.01725 0)
(0.309191 -0.0170794 0)
(0.308048 -0.0190904 0)
(0.308385 -0.0190475 0)
(0.308718 -0.0189845 0)
(0.309046 -0.0189016 0)
(0.309372 -0.0187991 0)
(0.309695 -0.0186772 0)
(0.310012 -0.0185363 0)
(0.310324 -0.0183769 0)
(0.310629 -0.0181989 0)
(0.310929 -0.0180055 0)
(0.309231 -0.0203741 0)
(0.309646 -0.0203292 0)
(0.310054 -0.0202599 0)
(0.310457 -0.020167 0)
(0.310856 -0.0200507 0)
(0.311251 -0.0199112 0)
(0.311639 -0.019749 0)
(0.312021 -0.0195649 0)
(0.312392 -0.0193584 0)
(0.312756 -0.0191353 0)
(0.3104 -0.0219439 0)
(0.310908 -0.0218968 0)
(0.311407 -0.02182 0)
(0.3119 -0.0217142 0)
(0.312387 -0.0215797 0)
(0.312869 -0.021417 0)
(0.313343 -0.0212266 0)
(0.313806 -0.0210097 0)
(0.314258 -0.0207652 0)
(0.314696 -0.0205039 0)
(0.311541 -0.0238618 0)
(0.312165 -0.023813 0)
(0.312777 -0.0237269 0)
(0.31338 -0.0236044 0)
(0.313977 -0.023446 0)
(0.314566 -0.0232524 0)
(0.315143 -0.0230242 0)
(0.315707 -0.0227637 0)
(0.316256 -0.0224677 0)
(0.316783 -0.0221574 0)
(0.312636 -0.0262133 0)
(0.313407 -0.0261642 0)
(0.314163 -0.0260665 0)
(0.314906 -0.0259218 0)
(0.31564 -0.025731 0)
(0.316363 -0.0254952 0)
(0.317071 -0.0252155 0)
(0.31776 -0.0248956 0)
(0.318427 -0.024529 0)
(0.319064 -0.0241552 0)
(0.313658 -0.0291199 0)
(0.314623 -0.0290728 0)
(0.315567 -0.0289606 0)
(0.316493 -0.0287852 0)
(0.317405 -0.0285485 0)
(0.318301 -0.0282528 0)
(0.319175 -0.0278997 0)
(0.32002 -0.0274961 0)
(0.320836 -0.0270297 0)
(0.321605 -0.0265715 0)
(0.31457 -0.0327641 0)
(0.315797 -0.032721 0)
(0.316997 -0.032587 0)
(0.318172 -0.032366 0)
(0.319323 -0.0320616 0)
(0.320448 -0.0316779 0)
(0.321537 -0.031218 0)
(0.322583 -0.0306937 0)
(0.323585 -0.030083 0)
(0.324517 -0.0295082 0)
(0.315328 -0.0374345 0)
(0.316928 -0.0373925 0)
(0.318488 -0.0372122 0)
(0.320005 -0.0369058 0)
(0.321483 -0.0364842 0)
(0.322915 -0.035957 0)
(0.32429 -0.0353297 0)
(0.325597 -0.034623 0)
(0.326835 -0.0337993 0)
(0.327967 -0.0330589 0)
(0.315875 -0.0435927 0)
(0.318078 -0.0435633 0)
(0.320198 -0.0433027 0)
(0.322213 -0.0428417 0)
(0.324136 -0.0422062 0)
(0.32597 -0.0414171 0)
(0.327707 -0.0404878 0)
(0.329333 -0.0394555 0)
(0.330847 -0.0382692 0)
(0.332213 -0.03723 0)
(0.316031 -0.0519799 0)
(0.319283 -0.0519114 0)
(0.322359 -0.0515058 0)
(0.325186 -0.0508391 0)
(0.327804 -0.0499417 0)
(0.330232 -0.0488292 0)
(0.332459 -0.0475146 0)
(0.33446 -0.0460542 0)
(0.336242 -0.0443751 0)
(0.337732 -0.0429233 0)
(0.316313 -0.0644615 0)
(0.321189 -0.0634912 0)
(0.325356 -0.0619508 0)
(0.328968 -0.0601328 0)
(0.332248 -0.0581032 0)
(0.335233 -0.0558657 0)
(0.337865 -0.0534343 0)
(0.340079 -0.0508801 0)
(0.341887 -0.048141 0)
(0.343249 -0.0456879 0)
(0.321093 -0.0872838 0)
(0.329112 -0.0860402 0)
(0.333937 -0.0837868 0)
(0.336923 -0.0808193 0)
(0.339143 -0.077209 0)
(0.340826 -0.0730583 0)
(0.341889 -0.0685155 0)
(0.342236 -0.0637502 0)
(0.342026 -0.0588171 0)
(0.340966 -0.0541252 0)
(0.313894 -0.093191 0)
(0.321346 -0.0839022 0)
(0.323298 -0.0766976 0)
(0.32299 -0.0705214 0)
(0.321674 -0.0645003 0)
(0.319314 -0.0584542 0)
(0.31583 -0.0524231 0)
(0.311307 -0.0464255 0)
(0.306226 -0.0404547 0)
(0.299835 -0.0344019 0)
(0.289509 -0.157563 0)
(0.261943 -0.133739 0)
(0.226823 -0.11287 0)
(0.200322 -0.0942317 0)
(0.180339 -0.0771767 0)
(0.163354 -0.0617055 0)
(0.148555 -0.0479251 0)
(0.136144 -0.0358094 0)
(0.125845 -0.0252596 0)
(0.116883 -0.0164323 0)
(0.301985 -0.0140036 0)
(0.302531 -0.0121436 0)
(0.302933 -0.00980931 0)
(0.303261 -0.00755207 0)
(0.303531 -0.0052593 0)
(0.303584 -0.00344492 0)
(0.303667 -0.00213843 0)
(0.303619 -0.00122848 0)
(0.303647 -0.00104639 0)
(0.303933 -0.000481399 0)
(0.303954 -3.44349e-05 0)
(0.304312 0.000604159 0)
(0.304221 0.00157304 0)
(0.304157 0.00146269 0)
(0.303989 0.00169494 0)
(0.303525 0.000439657 0)
(0.3037 -0.00072926 0)
(0.303669 -0.00141602 0)
(0.304114 -0.00263113 0)
(0.304761 -0.00114545 0)
(0.303253 -0.0142833 0)
(0.303884 -0.0123686 0)
(0.304247 -0.00996596 0)
(0.304462 -0.00766836 0)
(0.304559 -0.00531147 0)
(0.304388 -0.00345229 0)
(0.304262 -0.00212677 0)
(0.304025 -0.00121672 0)
(0.303976 -0.0011206 0)
(0.304279 -0.000574184 0)
(0.304311 -0.000155844 0)
(0.304714 0.000530232 0)
(0.304513 0.001613 0)
(0.304338 0.00152726 0)
(0.304058 0.00186108 0)
(0.303439 0.000529854 0)
(0.303702 -0.0007775 0)
(0.303728 -0.0015275 0)
(0.304393 -0.00293899 0)
(0.305254 -0.00134684 0)
(0.304869 -0.0145692 0)
(0.305689 -0.0125753 0)
(0.306086 -0.0100729 0)
(0.306236 -0.00770427 0)
(0.306178 -0.00525541 0)
(0.305748 -0.00334742 0)
(0.305361 -0.00200766 0)
(0.30485 -0.00114006 0)
(0.304685 -0.0011699 0)
(0.305032 -0.000643253 0)
(0.305058 -0.000226418 0)
(0.30553 0.000516366 0)
(0.305159 0.00172604 0)
(0.30481 0.00165718 0)
(0.304322 0.00208106 0)
(0.303412 0.000602993 0)
(0.303805 -0.000870367 0)
(0.303877 -0.00170043 0)
(0.30491 -0.00330397 0)
(0.306086 -0.00154558 0)
(0.306607 -0.0149781 0)
(0.307658 -0.0128343 0)
(0.30812 -0.010178 0)
(0.308237 -0.00769743 0)
(0.308056 -0.00511576 0)
(0.307373 -0.00313683 0)
(0.30672 -0.00177386 0)
(0.305904 -0.000983524 0)
(0.305623 -0.00119925 0)
(0.306051 -0.000721798 0)
(0.306091 -0.000339928 0)
(0.306694 0.000518883 0)
(0.306121 0.00191018 0)
(0.305563 0.00186913 0)
(0.304804 0.00241578 0)
(0.303479 0.000723091 0)
(0.304022 -0.000994379 0)
(0.304112 -0.00194729 0)
(0.30561 -0.00382186 0)
(0.307191 -0.0018279 0)
(0.308417 -0.0154991 0)
(0.30972 -0.0131477 0)
(0.310254 -0.0102916 0)
(0.310345 -0.0076625 0)
(0.310051 -0.00490235 0)
(0.309107 -0.00282415 0)
(0.308174 -0.00142319 0)
(0.307018 -0.000749675 0)
(0.306632 -0.00123132 0)
(0.307199 -0.000831401 0)
(0.3073 -0.000487194 0)
(0.308103 0.000539378 0)
(0.307314 0.00217797 0)
(0.306529 0.0021869 0)
(0.305445 0.0029092 0)
(0.303581 0.000901879 0)
(0.3043 -0.00115507 0)
(0.304381 -0.00229324 0)
(0.30644 -0.00454209 0)
(0.308526 -0.00220351 0)
(0.31031 -0.016148 0)
(0.311874 -0.0135197 0)
(0.312473 -0.0104163 0)
(0.312535 -0.00760004 0)
(0.312126 -0.0046103 0)
(0.310895 -0.00239938 0)
(0.309639 -0.000941404 0)
(0.30809 -0.000435473 0)
(0.307607 -0.00127801 0)
(0.308379 -0.00099222 0)
(0.308608 -0.000700362 0)
(0.309691 0.000567497 0)
(0.308672 0.00253363 0)
(0.307641 0.00262773 0)
(0.306167 0.00359271 0)
(0.303631 0.001155 0)
(0.304555 -0.00135037 0)
(0.304605 -0.00275359 0)
(0.307348 -0.00549925 0)
(0.310046 -0.00268771 0)
(0.312308 -0.016933 0)
(0.314133 -0.0139476 0)
(0.314785 -0.0105517 0)
(0.314813 -0.00750709 0)
(0.314278 -0.00422996 0)
(0.312724 -0.00184447 0)
(0.311077 -0.000301647 0)
(0.309055 -2.85052e-05 0)
(0.308476 -0.00135265 0)
(0.309528 -0.00123546 0)
(0.309983 -0.00101164 0)
(0.31143 0.00059408 0)
(0.310166 0.00298116 0)
(0.308853 0.00321362 0)
(0.306905 0.004507 0)
(0.303539 0.00150201 0)
(0.304696 -0.00157776 0)
(0.304691 -0.00335332 0)
(0.308278 -0.00674456 0)
(0.311708 -0.00330038 0)
(0.31444 -0.0178623 0)
(0.316512 -0.0144274 0)
(0.317199 -0.0106987 0)
(0.317191 -0.0073809 0)
(0.31652 -0.00374903 0)
(0.314599 -0.00113353 0)
(0.312461 0.000526586 0)
(0.30986 0.000481281 0)
(0.30918 -0.00147087 0)
(0.310601 -0.00160098 0)
(0.311418 -0.00146091 0)
(0.313323 0.000609643 0)
(0.311798 0.00352858 0)
(0.31014 0.00397877 0)
(0.307605 0.00570325 0)
(0.303225 0.00196788 0)
(0.304636 -0.00183109 0)
(0.30454 -0.00412878 0)
(0.309168 -0.00833881 0)
(0.313451 -0.00405924 0)
(0.316748 -0.0189416 0)
(0.319026 -0.0149534 0)
(0.319722 -0.0108605 0)
(0.319687 -0.0072198 0)
(0.318875 -0.00315313 0)
(0.316529 -0.000231463 0)
(0.31376 0.00158832 0)
(0.310451 0.00111202 0)
(0.309651 -0.00164948 0)
(0.31155 -0.00214213 0)
(0.312919 -0.00209868 0)
(0.315384 0.000603636 0)
(0.313592 0.00418923 0)
(0.31148 0.00497214 0)
(0.308218 0.00724194 0)
(0.302622 0.00258454 0)
(0.304282 -0.00209513 0)
(0.304032 -0.00512352 0)
(0.309912 -0.0103467 0)
(0.31516 -0.00497767 0)
(0.319282 -0.0201708 0)
(0.321687 -0.0155173 0)
(0.322357 -0.0110424 0)
(0.322321 -0.00702581 0)
(0.321376 -0.00242554 0)
(0.31853 0.000910816 0)
(0.314936 0.00294802 0)
(0.310762 0.00189625 0)
(0.309802 -0.00190564 0)
(0.312309 -0.00292921 0)
(0.314481 -0.00298859 0)
(0.317615 0.000561586 0)
(0.31557 0.00498362 0)
(0.312825 0.00626049 0)
(0.30868 0.00918946 0)
(0.301663 0.00339388 0)
(0.303526 -0.00233876 0)
(0.30301 -0.00637871 0)
(0.31028 -0.0128238 0)
(0.316578 -0.00606073 0)
(0.322108 -0.0215403 0)
(0.324501 -0.0161077 0)
(0.325099 -0.0112546 0)
(0.325114 -0.00680537 0)
(0.324068 -0.00155017 0)
(0.32061 0.00235595 0)
(0.315931 0.00468104 0)
(0.310711 0.00287204 0)
(0.30951 -0.00225526 0)
(0.312766 -0.00404961 0)
(0.316029 -0.00420606 0)
(0.319952 0.000463567 0)
(0.317696 0.00594306 0)
(0.314052 0.00792864 0)
(0.308888 0.0116111 0)
(0.30027 0.00444869 0)
(0.302209 -0.00250367 0)
(0.301228 -0.00790712 0)
(0.309796 -0.0157931 0)
(0.317196 -0.00730221 0)
(0.325317 -0.0230261 0)
(0.327478 -0.0167038 0)
(0.327936 -0.0115115 0)
(0.328085 -0.00658079 0)
(0.326997 -0.000498813 0)
(0.322748 0.00419896 0)
(0.316643 0.00688568 0)
(0.310175 0.00409167 0)
(0.308584 -0.00270561 0)
(0.312683 -0.00559755 0)
(0.317289 -0.00583257 0)
(0.322138 0.000281044 0)
(0.31976 0.0071089 0)
(0.31489 0.0100697 0)
(0.308663 0.0145555 0)
(0.298313 0.00581719 0)
(0.300066 -0.00248337 0)
(0.298265 -0.00963619 0)
(0.307585 -0.0192075 0)
(0.316137 -0.00869071 0)
(0.329025 -0.024595 0)
(0.330627 -0.0172747 0)
(0.330823 -0.0118177 0)
(0.331198 -0.00638908 0)
(0.33014 0.00077876 0)
(0.324802 0.00657002 0)
(0.316862 0.00967841 0)
(0.308938 0.00562931 0)
(0.30668 -0.00322749 0)
(0.311508 -0.00763594 0)
(0.317511 -0.00794334 0)
(0.323475 -3.17662e-05 0)
(0.321161 0.00851455 0)
(0.314812 0.0127542 0)
(0.307685 0.0180307 0)
(0.295533 0.00759093 0)
(0.296626 -0.00209856 0)
(0.293422 -0.0113308 0)
(0.302322 -0.0229017 0)
(0.312167 -0.0102159 0)
(0.333407 -0.0261669 0)
(0.333953 -0.0177679 0)
(0.333575 -0.0121349 0)
(0.334147 -0.00623662 0)
(0.333144 0.00234847 0)
(0.326288 0.0096286 0)
(0.316126 0.0131957 0)
(0.306543 0.00760174 0)
(0.303077 -0.00368986 0)
(0.308005 -0.0101007 0)
(0.315035 -0.0105649 0)
(0.322435 -0.00057296 0)
(0.320606 0.0101115 0)
(0.312915 0.0159513 0)
(0.305406 0.0219787 0)
(0.291421 0.00989594 0)
(0.291124 -0.00108796 0)
(0.285687 -0.0125542 0)
(0.2925 -0.0265887 0)
(0.303984 -0.0118942 0)
(0.338661 -0.0276219 0)
(0.337208 -0.018086 0)
(0.335398 -0.0123931 0)
(0.335661 -0.00609708 0)
(0.334636 0.00435061 0)
(0.325903 0.0135667 0)
(0.313424 0.0175649 0)
(0.301957 0.0102067 0)
(0.296255 -0.00372229 0)
(0.299787 -0.0126492 0)
(0.306933 -0.013635 0)
(0.316378 -0.00152044 0)
(0.315942 0.0116843 0)
(0.307904 0.0194196 0)
(0.300956 0.0262556 0)
(0.285119 0.0129074 0)
(0.282522 0.000893613 0)
(0.27399 -0.0127568 0)
(0.277168 -0.0299701 0)
(0.29088 -0.013813 0)
(0.344528 -0.0292954 0)
(0.338818 -0.018077 0)
(0.333472 -0.0122403 0)
(0.331988 -0.00608032 0)
(0.330936 0.00664998 0)
(0.320691 0.0182515 0)
(0.306664 0.0227286 0)
(0.293009 0.0137172 0)
(0.283385 -0.00269224 0)
(0.283259 -0.014595 0)
(0.289468 -0.0170477 0)
(0.302034 -0.00327745 0)
(0.304575 0.0127093 0)
(0.298353 0.0226094 0)
(0.293177 0.0306338 0)
(0.275492 0.0168114 0)
(0.26983 0.0042164 0)
(0.257895 -0.011532 0)
(0.256974 -0.0329339 0)
(0.273477 -0.0161349 0)
(0.348633 -0.0273549 0)
(0.333117 -0.0148516 0)
(0.320133 -0.00944239 0)
(0.31446 -0.00489388 0)
(0.314626 0.00965442 0)
(0.305435 0.0234333 0)
(0.292192 0.0285899 0)
(0.275872 0.0186704 0)
(0.260529 0.000227293 0)
(0.255096 -0.0152442 0)
(0.260275 -0.0208055 0)
(0.277452 -0.00651281 0)
(0.284975 0.0122888 0)
(0.283411 0.0247121 0)
(0.280891 0.0348499 0)
(0.261577 0.0216767 0)
(0.252847 0.00895285 0)
(0.238568 -0.00895028 0)
(0.23476 -0.0356853 0)
(0.253919 -0.0190189 0)
(0.33661 -0.0266141 0)
(0.303253 -0.0105758 0)
(0.279739 -0.00579898 0)
(0.269382 -0.00434131 0)
(0.275356 0.0113373 0)
(0.273347 0.0272488 0)
(0.264863 0.0343073 0)
(0.245713 0.0254131 0)
(0.225012 0.00558823 0)
(0.216004 -0.0146524 0)
(0.221936 -0.0254058 0)
(0.244642 -0.0119327 0)
(0.258456 0.0094823 0)
(0.263495 0.0250444 0)
(0.26343 0.0387206 0)
(0.24339 0.0272382 0)
(0.233026 0.0144893 0)
(0.219249 -0.00582657 0)
(0.214852 -0.0385817 0)
(0.235138 -0.022451 0)
(0.280218 -0.00845777 0)
(0.224685 0.0058499 0)
(0.197988 0.00502989 0)
(0.191284 -0.00321542 0)
(0.211717 0.00996924 0)
(0.223134 0.0276795 0)
(0.221785 0.0390476 0)
(0.201416 0.0332569 0)
(0.180951 0.0120416 0)
(0.174296 -0.0144499 0)
(0.183083 -0.0317893 0)
(0.209702 -0.0198469 0)
(0.228923 0.00402366 0)
(0.240032 0.023559 0)
(0.24121 0.0421798 0)
(0.222741 0.0327508 0)
(0.213667 0.0195883 0)
(0.204318 -0.00326175 0)
(0.201338 -0.0416142 0)
(0.219798 -0.0260867 0)
(0.11587 0.0131372 0)
(0.0864942 0.0171694 0)
(0.0908543 0.00722386 0)
(0.101256 -0.0110321 0)
(0.139136 0.000852195 0)
(0.162877 0.0236862 0)
(0.167726 0.0427423 0)
(0.152238 0.0400308 0)
(0.141793 0.0160447 0)
(0.143256 -0.0163913 0)
(0.1541 -0.039633 0)
(0.17947 -0.0293462 0)
(0.200661 -0.00321602 0)
(0.215026 0.021117 0)
(0.216506 0.0452562 0)
(0.20343 0.0370944 0)
(0.198965 0.022842 0)
(0.197319 -0.00215734 0)
(0.196601 -0.0442213 0)
(0.209828 -0.0293381 0)
(0.0553395 0.00638751 0)
(0.0279165 0.0162156 0)
(0.0468525 0.00288234 0)
(0.0604824 -0.0188735 0)
(0.100933 -0.00782419 0)
(0.128006 0.0192662 0)
(0.137037 0.0432167 0)
(0.12942 0.0417154 0)
(0.129071 0.0159062 0)
(0.136618 -0.0183157 0)
(0.14661 -0.0437699 0)
(0.16654 -0.0348245 0)
(0.18586 -0.00779014 0)
(0.200291 0.0191484 0)
(0.202291 0.0462439 0)
(0.194967 0.0382769 0)
(0.194598 0.0229235 0)
(0.198635 -0.00252473 0)
(0.199483 -0.0453002 0)
(0.207678 -0.0306846 0)
(0.0334896 0.00231895 0)
(0.00712661 0.0162786 0)
(0.0316406 0.000922698 0)
(0.0459631 -0.0221093 0)
(0.0860481 -0.0116511 0)
(0.113698 0.0171431 0)
(0.124477 0.0430212 0)
(0.120866 0.0419124 0)
(0.125315 0.0153033 0)
(0.135582 -0.0193724 0)
(0.145077 -0.0453899 0)
(0.162053 -0.036961 0)
(0.179993 -0.0096794 0)
(0.194099 0.0182357 0)
(0.19635 0.0464856 0)
(0.191822 0.0385483 0)
(0.193353 0.022618 0)
(0.199883 -0.00288982 0)
(0.201418 -0.0457461 0)
(0.207305 -0.0311281 0)
(0.0170687 0.00106709 0)
(-0.00830612 0.0161979 0)
(0.0210845 -0.00137494 0)
(0.0353289 -0.0252459 0)
(0.0736276 -0.0154238 0)
(0.10096 0.0149034 0)
(0.113367 0.0424488 0)
(0.11419 0.041562 0)
(0.123561 0.0142403 0)
(0.136418 -0.0205597 0)
(0.145276 -0.0467914 0)
(0.158868 -0.0388171 0)
(0.174934 -0.011439 0)
(0.188378 0.017321 0)
(0.1909 0.0465329 0)
(0.189361 0.0385467 0)
(0.192827 0.0220334 0)
(0.201751 -0.00343674 0)
(0.20396 -0.0461079 0)
(0.207506 -0.0314367 0)
(0.00589508 0.00144224 0)
(-0.0183588 0.0157559 0)
(0.0153547 -0.00393841 0)
(0.0288043 -0.0282389 0)
(0.0640422 -0.0190292 0)
(0.0901739 0.0126122 0)
(0.104068 0.0415261 0)
(0.109622 0.0406715 0)
(0.123831 0.0127623 0)
(0.139022 -0.0218419 0)
(0.147118 -0.0479522 0)
(0.157023 -0.0403599 0)
(0.17078 -0.0130342 0)
(0.183246 0.0164356 0)
(0.186053 0.0463899 0)
(0.187645 0.0382615 0)
(0.193024 0.0212057 0)
(0.204187 -0.00414818 0)
(0.20705 -0.0463712 0)
(0.208264 -0.0316186 0)
(-0.000398879 0.00268975 0)
(-0.0230651 0.0149636 0)
(0.0144888 -0.0066626 0)
(0.0265392 -0.030965 0)
(0.0576311 -0.0223393 0)
(0.081704 0.0103302 0)
(0.0969013 0.0402525 0)
(0.107319 0.0392413 0)
(0.126073 0.0108942 0)
(0.143245 -0.0231974 0)
(0.150491 -0.0488498 0)
(0.156541 -0.041548 0)
(0.167625 -0.0144199 0)
(0.178822 0.0155969 0)
(0.181919 0.0460508 0)
(0.186721 0.0376899 0)
(0.193937 0.0201467 0)
(0.207135 -0.00501273 0)
(0.210624 -0.0465386 0)
(0.209556 -0.0316742 0)
(-0.00215191 0.00426758 0)
(-0.0225047 0.0138421 0)
(0.0184073 -0.00948657 0)
(0.0285906 -0.0333292 0)
(0.054674 -0.0252468 0)
(0.075877 0.00811554 0)
(0.0921412 0.0386325 0)
(0.107359 0.0372883 0)
(0.130173 0.00867657 0)
(0.148905 -0.024602 0)
(0.155255 -0.0494733 0)
(0.157416 -0.0423549 0)
(0.165549 -0.0155602 0)
(0.17522 0.0148188 0)
(0.1786 0.0455114 0)
(0.18662 0.0368354 0)
(0.195547 0.0188715 0)
(0.210535 -0.00601682 0)
(0.214612 -0.0466139 0)
(0.211354 -0.031606 0)
(0.000452934 0.00563933 0)
(-0.0167903 0.0123964 0)
(0.0269107 -0.0123548 0)
(0.0349011 -0.0352689 0)
(0.0553599 -0.0276657 0)
(0.0729649 0.00602631 0)
(0.0899956 0.036689 0)
(0.10974 0.0348545 0)
(0.135971 0.00616691 0)
(0.155802 -0.0260296 0)
(0.161249 -0.0498239 0)
(0.159617 -0.0427691 0)
(0.164616 -0.0164288 0)
(0.172546 0.0141148 0)
(0.176191 0.0447732 0)
(0.18736 0.0357089 0)
(0.197825 0.017403 0)
(0.214327 -0.00714389 0)
(0.218946 -0.0466015 0)
(0.213623 -0.0314189 0)
(0.00742937 0.00625822 0)
(-0.00603577 0.010636 0)
(0.0396956 -0.0152024 0)
(0.0452805 -0.0367432 0)
(0.0597572 -0.0295322 0)
(0.0731657 0.00412025 0)
(0.0905987 0.0344638 0)
(0.114388 0.0320045 0)
(0.143277 0.00343348 0)
(0.163722 -0.0274552 0)
(0.168288 -0.0499123 0)
(0.163076 -0.0427925 0)
(0.164865 -0.0170103 0)
(0.170895 0.013497 0)
(0.17477 0.0438436 0)
(0.188946 0.0343286 0)
(0.200735 0.0157706 0)
(0.21845 -0.00837632 0)
(0.223557 -0.0465065 0)
(0.216321 -0.0311183 0)
(0.0189555 0.00554861 0)
(0.00966153 0.00857039 0)
(0.0563613 -0.0179682 0)
(0.0594 -0.0377294 0)
(0.0677899 -0.0308021 0)
(0.0765848 0.00245157 0)
(0.0940069 0.0320154 0)
(0.121171 0.0288208 0)
(0.151882 0.000551704 0)
(0.172449 -0.0288526 0)
(0.176178 -0.0497545 0)
(0.167695 -0.0424369 0)
(0.166307 -0.0172972 0)
(0.170342 0.012975 0)
(0.174403 0.0427351 0)
(0.191371 0.0327196 0)
(0.204236 0.0140076 0)
(0.222847 -0.00969344 0)
(0.228375 -0.046335 0)
(0.219402 -0.0307127 0)
(0.0352596 0.00284248 0)
(0.0302341 0.00613517 0)
(0.0764259 -0.0205828 0)
(0.0768004 -0.0382293 0)
(0.0792254 -0.0314314 0)
(0.0832161 0.00105995 0)
(0.100198 0.0294052 0)
(0.129916 0.0253841 0)
(0.161577 -0.002403 0)
(0.181773 -0.0301862 0)
(0.184715 -0.049364 0)
(0.173347 -0.0417224 0)
(0.168921 -0.0172713 0)
(0.170938 0.0125596 0)
(0.175135 0.0414682 0)
(0.194616 0.0309044 0)
(0.208286 0.0121385 0)
(0.227465 -0.0110597 0)
(0.233338 -0.0460935 0)
(0.222817 -0.030229 0)
(0.0706306 -0.00466989 0)
(0.0727877 0.000985291 0)
(0.114822 -0.0245615 0)
(0.110483 -0.0382968 0)
(0.103432 -0.0313566 0)
(0.0994766 -0.000788365 0)
(0.115063 0.0248336 0)
(0.14752 0.0192901 0)
(0.179301 -0.00737606 0)
(0.198064 -0.0322541 0)
(0.19976 -0.0483498 0)