/*--------------------------------*- C++ -*----------------------------------*\
| =========                 |                                                 |
| \\      /  F ield         | OpenFOAM: The Open Source CFD Toolbox           |
|  \\    /   O peration     | Version:  v1806                                 |
|   \\  /    A nd           | Web:      www.OpenFOAM.com                      |
|    \\/     M anipulation  |                                                 |
\*---------------------------------------------------------------------------*/
FoamFile
{
    version     2.0;
    format      ascii;
    class       volScalarField;
    location    "13";
    object      p;
}
// * * * * * * * * * * * * * * * * * * * * * * * * * * * * * * * * * * * * * //

dimensions      [0 2 -2 0 0 0 0];


internalField   nonuniform List<scalar> 
2400
(
0.00675558
0.00703169
0.0077276
0.00797312
0.00817521
0.00834323
0.0086586
0.00942152
0.00981339
0.0104827
0.0106569
0.0111276
0.0112225
0.0107677
0.0101932
0.0090175
0.0073161
0.00466104
-8.94533e-05
-0.00203768
0.0201799
0.0210341
0.0231906
0.0239626
0.0244526
0.024918
0.0259661
0.0282683
0.0293037
0.031512
0.0321979
0.0332905
0.0335653
0.032543
0.030915
0.02696
0.0217634
0.0157136
0.00888576
-0.00265102
0.0332105
0.0352682
0.0387624
0.0397491
0.0406016
0.0413324
0.0432969
0.0469598
0.0489198
0.052577
0.0536972
0.0557786
0.0561991
0.0546638
0.0519804
0.0455443
0.0369416
0.0252043
0.00868406
-0.00581918
0.0456441
0.0497673
0.0543704
0.055353
0.0565068
0.0575025
0.0606656
0.0655173
0.068576
0.0737013
0.0754263
0.0786479
0.0790968
0.0775258
0.073825
0.0649064
0.0529745
0.037241
0.0184178
-0.0066419
0.0573774
0.06472
0.0698749
0.0706744
0.0719417
0.0734738
0.0780584
0.0839151
0.0883726
0.0948759
0.0973633
0.102033
0.10251
0.101422
0.0966183
0.0856373
0.0707627
0.0486507
0.0175006
-0.0113539
0.0685805
0.0801377
0.0849424
0.0856434
0.0866833
0.0894273
0.0953482
0.10227
0.108242
0.116016
0.119665
0.125979
0.126656
0.126524
0.120802
0.10768
0.0904799
0.0638215
0.0312394
-0.0169745
0.0788585
0.0960087
0.0991885
0.100317
0.10054
0.105751
0.112029
0.12092
0.127543
0.137512
0.141921
0.150993
0.151372
0.153817
0.146203
0.132813
0.111732
0.0793365
0.0389082
-0.0186737
0.0894246
0.111466
0.112612
0.114544
0.113843
0.122133
0.128024
0.139762
0.146099
0.159427
0.163974
0.177091
0.176701
0.183427
0.173033
0.161575
0.134807
0.0953185
0.0416592
-0.0182588
0.0999069
0.1262
0.125198
0.128235
0.126668
0.138272
0.143349
0.158503
0.163846
0.181709
0.18548
0.204309
0.202409
0.215681
0.201497
0.194403
0.16057
0.117908
0.0600701
-0.0196134
0.11035
0.139981
0.136832
0.141302
0.138998
0.154016
0.15798
0.176929
0.180767
0.204161
0.206069
0.232692
0.227632
0.25126
0.230712
0.234535
0.188152
0.146821
0.0692942
-0.0243573
0.120994
0.152213
0.147599
0.153303
0.150972
0.168708
0.172163
0.194374
0.197418
0.225839
0.226468
0.261022
0.252947
0.289146
0.260896
0.281848
0.217682
0.189423
0.0875487
-0.0250312
0.131865
0.162623
0.157309
0.164073
0.162476
0.182158
0.185858
0.210618
0.213955
0.246453
0.247091
0.288565
0.278952
0.327693
0.292731
0.33497
0.249928
0.24614
0.0977872
-0.0264118
0.143258
0.170748
0.165842
0.173342
0.173506
0.194009
0.199032
0.225158
0.230271
0.265555
0.268336
0.31472
0.306468
0.36528
0.32733
0.391217
0.285975
0.317166
0.110245
0.00286087
0.155801
0.176286
0.173054
0.180891
0.184189
0.20396
0.211753
0.237579
0.246797
0.282666
0.290872
0.338971
0.336384
0.401223
0.365911
0.448829
0.326975
0.402446
0.116401
0.0542545
0.170005
0.179365
0.178869
0.186853
0.19442
0.211917
0.223684
0.24752
0.262503
0.296899
0.312622
0.360121
0.367676
0.434388
0.408984
0.504496
0.377018
0.49447
0.125296
0.155164
0.186487
0.180509
0.184503
0.192038
0.205358
0.218212
0.236168
0.254831
0.279022
0.307685
0.336528
0.377944
0.402808
0.464192
0.464584
0.556431
0.454857
0.589364
0.154864
0.297233
0.20236
0.180079
0.191903
0.198006
0.217767
0.22373
0.248546
0.261332
0.294104
0.316546
0.356031
0.392951
0.436135
0.489719
0.524472
0.605186
0.535618
0.679571
0.202596
0.422551
0.21637
0.17897
0.202102
0.203104
0.232326
0.227389
0.266411
0.26518
0.318579
0.320361
0.391808
0.399106
0.490845
0.509396
0.61429
0.658962
0.706159
0.770012
0.430205
0.615408
0.225343
0.179535
0.21008
0.208405
0.242775
0.233123
0.27926
0.273254
0.335939
0.332255
0.417512
0.419127
0.535286
0.550248
0.70038
0.747765
0.857162
0.897935
0.530127
0.823789
0.231051
0.179929
0.216571
0.211137
0.251096
0.235739
0.28998
0.27585
0.350802
0.33501
0.440288
0.421602
0.57561
0.550757
0.791533
0.741182
1.15232
0.887311
1.46416
-1.83277
0.0211154
0.0177558
0.00535956
-0.00278634
-0.00569398
-0.0062361
-0.00628358
-0.00657627
-0.0069831
-0.00751247
-0.0340575
-0.0333148
-0.0227831
-0.0163959
-0.0152026
-0.0166226
-0.0185464
-0.0203256
-0.02177
-0.0231451
0.0116793
0.00521372
-0.0113204
-0.0230501
-0.0287128
-0.0312925
-0.0329893
-0.0348704
-0.0369073
-0.0391667
-0.0474417
-0.0499759
-0.0423747
-0.0385358
-0.039557
-0.0429357
-0.0467116
-0.05032
-0.0535159
-0.0565608
-0.00243834
-0.0121344
-0.03159
-0.0457687
-0.053887
-0.058989
-0.0632885
-0.0678142
-0.0724457
-0.0771316
-0.0675753
-0.0710399
-0.0616135
-0.0567253
-0.0588002
-0.0658999
-0.0749185
-0.0837589
-0.0912065
-0.0972538
-0.0755925
-0.0820037
-0.0756761
-0.0733968
-0.0776066
-0.0865061
-0.0971527
-0.10751
-0.116376
-0.123734
-0.0309262
-0.0484053
-0.075194
-0.0959369
-0.109994
-0.120531
-0.129897
-0.139121
-0.148043
-0.156563
-0.0955088
-0.110648
-0.115225
-0.122809
-0.134478
-0.147652
-0.160447
-0.172256
-0.182806
-0.192294
-0.0577993
-0.0826869
-0.117278
-0.146101
-0.167926
-0.185444
-0.200753
-0.214688
-0.227249
-0.238486
-0.122656
-0.147438
-0.163741
-0.183408
-0.206445
-0.229276
-0.249735
-0.267244
-0.282054
-0.294494
-0.0907492
-0.12972
-0.181098
-0.226695
-0.263713
-0.293151
-0.316884
-0.335952
-0.351444
-0.36396
-0.157919
-0.210417
-0.255272
-0.299034
-0.339965
-0.375434
-0.404473
-0.427007
-0.444238
-0.456648
-0.146478
-0.239191
-0.333782
-0.406523
-0.456061
-0.489987
-0.51602
-0.539506
-0.561936
-0.582674
-0.20792
-0.365789
-0.503256
-0.591627
-0.632766
-0.646175
-0.649451
-0.653048
-0.65976
-0.669565
-0.330384
-0.559355
-0.740426
-0.859655
-0.926233
-0.964977
-0.990059
-1.00993
-1.02438
-1.03383
-0.582954
-0.821955
-0.923251
-0.92502
-0.900846
-0.887825
-0.892223
-0.911241
-0.93627
-0.962667
-1.5556
-2.03683
-2.18395
-2.11379
-2.00066
-1.9072
-1.83867
-1.78689
-1.73883
-1.68933
-1.14974
-1.48846
-1.44799
-1.35193
-1.31934
-1.34443
-1.39873
-1.44452
-1.47512
-1.48996
-7.01793
-6.37656
-4.68974
-3.60604
-3.11831
-2.83504
-2.60878
-2.39623
-2.21688
-2.06068
-0.00909048
-0.0108622
-0.00858103
-0.00343261
-0.00248944
-0.00279517
0.0013057
0.00503301
-0.00019797
-0.0136999
-0.0202673
-0.0153522
-0.0116404
9.45549e-05
0.0147252
0.0279441
0.0351247
0.0340362
0.0304939
0.0109812
-0.0277595
-0.0336642
-0.0252652
-0.00886643
-0.00807947
-0.00945556
0.00458618
0.0155827
-0.000847427
-0.0400706
-0.062468
-0.0591106
-0.0361849
0.00208868
0.0408164
0.070866
0.0895243
0.0874306
0.0732932
0.0261624
-0.0476035
-0.0565406
-0.0417778
-0.015105
-0.0136507
-0.0151334
0.00821928
0.0269796
-0.000102515
-0.069805
-0.110186
-0.102432
-0.0613076
0.000613817
0.0614861
0.107553
0.135491
0.13328
0.10945
0.0413021
-0.0689127
-0.0809442
-0.0585318
-0.0206383
-0.0195512
-0.0214692
0.0132702
0.0408206
0.00187065
-0.10349
-0.163687
-0.151676
-0.0895437
-0.00243055
0.0795426
0.140272
0.17512
0.171775
0.136515
0.0487589
-0.0932276
-0.107259
-0.0749361
-0.0258873
-0.0266534
-0.0280622
0.0203776
0.0580196
0.00600392
-0.143276
-0.227284
-0.208227
-0.120966
-0.00681915
0.0942324
0.16679
0.208348
0.202487
0.156251
0.0585349
-0.119209
-0.13549
-0.0909453
-0.0299406
-0.0346428
-0.0357461
0.0301231
0.0803598
0.0122421
-0.192219
-0.303885
-0.272947
-0.156492
-0.0142166
0.104703
0.190094
0.235986
0.229218
0.173281
0.0614991
-0.15051
-0.16752
-0.106725
-0.0327578
-0.0446718
-0.0456522
0.0424381
0.109292
0.019661
-0.254495
-0.39877
-0.35001
-0.197152
-0.0247314
0.112855
0.209775
0.260728
0.24713
0.182106
0.0673176
-0.187357
-0.203523
-0.121974
-0.0335936
-0.0568407
-0.0585804
0.0574239
0.14692
0.0265623
-0.33581
-0.518283
-0.441521
-0.245005
-0.039092
0.118118
0.225003
0.279055
0.264285
0.190411
0.0672935
-0.229274
-0.243336
-0.135256
-0.0319817
-0.0719118
-0.0762362
0.0745025
0.195859
0.0288053
-0.444851
-0.670691
-0.551197
-0.300329
-0.0584602
0.119454
0.23895
0.295622
0.270774
0.19105
0.069509
-0.2809
-0.290075
-0.144509
-0.0270264
-0.0929457
-0.0996668
0.0852746
0.25873
0.019786
-0.592623
-0.860202
-0.684195
-0.367307
-0.0833267
0.118259
0.244844
0.305619
0.277655
0.190973
0.0669997
-0.341872
-0.345769
-0.149592
-0.0123665
-0.119686
-0.132687
0.107645
0.343139
-0.00624591
-0.792828
-1.10592
-0.844034
-0.446203
-0.114534
0.113908
0.256569
0.312641
0.274077
0.184936
0.065658
-0.412918
-0.412571
-0.160151
0.00174571
-0.16137
-0.178595
0.125365
0.453798
-0.044143
-1.04722
-1.41219
-1.03738
-0.541072
-0.15183
0.105199
0.255984
0.313144
0.269489
0.177015
0.0609845
-0.501411
-0.469256
-0.11332
0.0467628
-0.214472
-0.246947
0.165009
0.605928
-0.0681289
-1.33633
-1.76475
-1.26051
-0.65263
-0.196701
0.0929455
0.253876
0.308747
0.256774
0.165242
0.0567215
-0.646167
-0.617765
-0.149764
0.0780905
-0.300927
-0.355146
0.202426
0.784771
-0.0461878
-1.60713
-2.13305
-1.50593
-0.776957
-0.244044
0.0783832
0.245337
0.297527
0.241198
0.151041
0.0506538
-0.717166
-0.698286
-0.122169
0.108559
-0.408674
-0.514219
0.243108
0.993174
0.0279289
-1.80304
-2.44359
-1.74357
-0.902887
-0.293866
0.0587489
0.230978
0.280838
0.221218
0.134956
0.0449075
-1.01865
-0.964928
-0.138647
0.0799087
-0.569933
-0.734909
0.219046
1.02372
0.0969709
-1.91301
-2.70134
-1.94837
-1.01647
-0.341402
0.0376028
0.211791
0.25938
0.198577
0.117461
0.0384963
-1.06602
-1.19342
-0.112367
0.226537
-0.677092
-0.993358
0.141352
1.09394
0.132933
-1.94797
-2.78374
-2.0784
-1.09731
-0.382733
0.0126541
0.184596
0.23084
0.171513
0.0981943
0.0321606
-1.44492
-1.4954
-0.163053
0.133967
-0.780423
-1.17578
-0.0198909
0.72034
-0.0866881
-1.94152
-2.7059
-2.09607
-1.12834
-0.417584
-0.0177033
0.1491
0.195511
0.140745
0.0771286
0.0252054
-1.58488
-1.90158
-0.288499
0.733709
-0.621517
-1.24826
-0.292832
0.129915
-0.523204
-1.9005
-2.45091
-1.98374
-1.10772
-0.447645
-0.0522137
0.108076
0.154104
0.106263
0.0540751
0.0179704
-1.64828
-2.10269
-0.580383
0.799973
-0.783473
-1.23062
-0.520477
-0.543108
-1.12665
-1.82738
-2.05403
-1.745
-1.04308
-0.467078
-0.0865303
0.0632873
0.107068
0.0686557
0.0291695
0.0104673
-2.06544
-2.20328
-1.47903
0.35957
-0.957891
-1.16954
-0.725664
-0.967035
-1.46713
-1.72405
-1.74034
-1.54799
-0.978937
-0.47278
-0.109247
0.0298216
0.0715891
0.0418364
0.0123604
0.00607624
-2.11518
-2.07414
-1.87619
0.134148
-1.03376
-1.08177
-0.830723
-1.15657
-1.63696
-1.65571
-1.56357
-1.43473
-0.939973
-0.473905
-0.121484
0.010465
0.0510884
0.0268898
0.00319684
0.0037201
-2.2432
-1.915
-2.17625
-0.178626
-1.07916
-0.965492
-0.908644
-1.31382
-1.77958
-1.57875
-1.39427
-1.3195
-0.897979
-0.471921
-0.132794
-0.00897283
0.0304384
0.0124591
-0.00533552
0.00161113
-2.33531
-1.68213
-2.4087
-0.512293
-1.09236
-0.827622
-0.961323
-1.44803
-1.88619
-1.48742
-1.23185
-1.19892
-0.851651
-0.466538
-0.143445
-0.0286985
0.00971839
-0.00112923
-0.0130505
-0.000220941
-2.42001
-1.38444
-2.57421
-0.856771
-1.07015
-0.676481
-0.998287
-1.55662
-1.95803
-1.38459
-1.07312
-1.07003
-0.800344
-0.458091
-0.153922
-0.0488274
-0.0108852
-0.0137759
-0.0198217
-0.00174452
-2.48768
-1.02962
-2.65685
-1.19735
-1.02051
-0.518391
-1.02218
-1.6406
-1.99463
-1.27473
-0.914723
-0.932732
-0.74363
-0.446923
-0.164633
-0.069327
-0.0312035
-0.0254165
-0.0255914
-0.00295494
-2.54092
-0.637101
-2.65549
-1.51681
-0.955316
-0.343819
-1.02632
-1.70301
-2.00254
-1.16586
-0.755572
-0.784008
-0.681137
-0.433381
-0.175944
-0.0901475
-0.051109
-0.0360318
-0.030371
-0.0038803
-2.57155
-0.267987
-2.5736
-1.79697
-0.884476
-0.179395
-1.00753
-1.75086
-1.98922
-1.06314
-0.5984
-0.62871
-0.612652
-0.417808
-0.18829
-0.111256
-0.0704949
-0.0456197
-0.0341667
-0.00457144
-2.6175
0.0737142
-2.44309
-2.01113
-0.802254
0.0129997
-0.966694
-1.7888
-1.95951
-0.962347
-0.442089
-0.470887
-0.538578
-0.401236
-0.202159
-0.132588
-0.089253
-0.0542175
-0.0369043
-0.00504703
-2.87039
0.264674
-2.27199
-2.11919
-0.673915
0.131636
-0.916555
-1.83004
-1.91465
-0.845857
-0.272843
-0.316468
-0.461364
-0.384728
-0.217674
-0.153986
-0.107276
-0.0620443
-0.0385897
-0.0052734
-1.69548
0.544152
-1.88526
-2.16604
-0.281242
0.581357
-0.784709
-1.92351
-1.78081
-0.549077
0.135705
0.0295234
-0.287588
-0.353174
-0.256781
-0.200218
-0.14476
-0.0780321
-0.0409146
-0.00524742
-0.898191
0.0657501
-1.65801
-2.01484
-0.0832007
0.797998
-0.579206
-2.02068
-1.82593
-0.514895
0.312711
0.369021
-0.106301
-0.351333
-0.32952
-0.259072
-0.182493
-0.0920045
-0.0400542
-0.00488592
-1.11633
-0.132227
-1.35445
-1.4007
0.0545471
0.600988
-0.54098
-1.86711
-1.43707
-0.199289
0.467927
0.302094
-0.129882
-0.399581
-0.384889
-0.28413
-0.188298
-0.0889465
-0.0309927
-0.00209716
-0.363487
-0.0519183
-0.878113
-0.978985
0.0309609
0.450054
-0.304202
-1.26648
-1.06153
-0.14371
0.494866
0.35602
-0.124458
-0.402845
-0.390143
-0.275746
-0.171038
-0.0756995
-0.0195804
0.00121237
-0.74704
-0.2064
-0.730702
-0.777925
-0.0316865
0.2533
-0.258134
-0.953622
-0.765
-0.122174
0.212768
0.159562
-0.145833
-0.35653
-0.336933
-0.238626
-0.141973
-0.0544011
-0.000280306
0.00858339
-0.287858
-0.125934
-0.462886
-0.513926
-0.0437621
0.156867
-0.171038
-0.629646
-0.535725
-0.0757821
0.281358
0.162297
-0.097623
-0.271341
-0.261633
-0.193611
-0.111458
-0.0414546
0.00192151
0.00933668
-0.422738
-0.214208
-0.425549
-0.476161
-0.13078
0.0579935
-0.150417
-0.480144
-0.391628
-0.0695259
0.120157
0.0834191
-0.0919518
-0.216303
-0.215121
-0.15362
-0.0834522
-0.0257595
0.00661201
0.00854329
-0.250121
-0.161042
-0.281906
-0.31962
-0.101134
0.0155994
-0.123595
-0.332512
-0.285624
-0.0593712
0.113807
0.0667839
-0.0637796
-0.157949
-0.160598
-0.115472
-0.0559202
-0.0108099
0.0103908
0.0105672
-0.230603
-0.17805
-0.254396
-0.299094
-0.16139
-0.0383271
-0.119264
-0.273587
-0.232402
-0.0624575
0.0553511
0.0331196
-0.057819
-0.12525
-0.127651
-0.0909821
-0.0421029
-0.00278811
0.0139988
0.00950426
-0.181631
-0.155362
-0.191996
-0.221273
-0.12692
-0.0462114
-0.100516
-0.200947
-0.173614
-0.0509279
0.0352151
0.0176156
-0.0456223
-0.0931306
-0.0926851
-0.0635869
-0.0221016
0.00624141
0.0148676
0.0109221
-0.145677
-0.139618
-0.160046
-0.190857
-0.142315
-0.0689917
-0.0954699
-0.170144
-0.148709
-0.0588832
0.0104649
0.00179448
-0.0408368
-0.0727384
-0.0721758
-0.0501849
-0.0196908
0.0103397
0.0212615
0.0116083
-0.116913
-0.121895
-0.132989
-0.157124
-0.123031
-0.0672619
-0.0814577
-0.132859
-0.116988
-0.049881
0.000156743
-0.00543009
-0.0341629
-0.0564186
-0.0538175
-0.0328002
-0.00310724
0.0161935
0.0172825
0.0120061
-0.0935577
-0.105004
-0.110623
-0.128521
-0.111894
-0.0685014
-0.0725068
-0.110497
-0.0988389
-0.0482991
-0.00894152
-0.0118761
-0.0302455
-0.0426913
-0.0389171
-0.0239489
-0.00310479
0.0180644
0.02724
0.0143375
-0.0739489
-0.0879089
-0.0909348
-0.104978
-0.0977822
-0.0640785
-0.0621033
-0.0890865
-0.0806332
-0.0429756
-0.0129217
-0.0134949
-0.0245053
-0.0340991
-0.029334
-0.0143615
0.00623441
0.0205063
0.019049
0.0138522
-0.0590288
-0.0722506
-0.074413
-0.0851529
-0.0831704
-0.0570994
-0.0515735
-0.0716466
-0.0658358
-0.0371903
-0.0139323
-0.0140298
-0.0209357
-0.0248936
-0.0196931
-0.00806191
0.00658744
0.0221456
0.0295209
0.0164875
-0.0455686
-0.057463
-0.0594533
-0.0672806
-0.0678661
-0.0484866
-0.0420126
-0.0565861
-0.0522792
-0.0310122
-0.0135615
-0.0132996
-0.0163237
-0.0191323
-0.0138785
-0.00328899
0.0109508
0.0212234
0.0217636
0.0158758
-0.032853
-0.0433176
-0.0450774
-0.0504554
-0.0523007
-0.0386589
-0.0323421
-0.0425158
-0.0396766
-0.0245356
-0.0116409
-0.0108852
-0.0122798
-0.013723
-0.0088921
3.70141e-05
0.0105964
0.0221991
0.0253092
0.0157746
-0.0231869
-0.030692
-0.0317677
-0.0352355
-0.037378
-0.0282324
-0.0228584
-0.0298682
-0.0280992
-0.0177052
-0.00864521
-0.00852416
-0.00870254
-0.00902846
-0.00460491
0.00159135
0.0104775
0.0180353
0.0201818
0.0167279
-0.013541
-0.0181055
-0.0187987
-0.0208909
-0.0222562
-0.016905
-0.0136583
-0.0178197
-0.0165617
-0.0107272
-0.00546491
-0.00549708
-0.00476936
-0.00523279
-0.00239945
0.00200223
0.00832549
0.01511
0.0153338
0.0105629
-0.00450037
-0.0060193
-0.00605088
-0.00693529
-0.00754622
-0.00558454
-0.0044357
-0.006051
-0.00544378
-0.00352375
-0.00189583
-0.00195443
-0.00146125
-0.00188187
-0.000551699
0.00100024
0.00354893
0.0066193
0.0108276
0.00811996
-5.64375
-5.45937
-4.25026
-3.40703
-2.94246
-2.72713
-2.55173
-2.41118
-2.2792
-2.19265
-0.237087
-0.524874
-0.624196
-0.651829
-0.67758
-0.720068
-0.772889
-0.82558
-0.865432
-0.888502
-1.04929
-1.39506
-1.57291
-1.60181
-1.56543
-1.51656
-1.47332
-1.43498
-1.39761
-1.35367
-0.0192506
-0.136682
-0.231655
-0.289631
-0.316677
-0.327598
-0.333867
-0.340013
-0.346228
-0.351579
-0.152954
-0.286211
-0.421888
-0.526005
-0.597075
-0.64133
-0.670415
-0.690839
-0.70703
-0.718733
-0.0358643
-0.086553
-0.148062
-0.196633
-0.228717
-0.246713
-0.256207
-0.261426
-0.265239
-0.268413
-0.0860017
-0.119768
-0.141169
-0.165524
-0.195244
-0.227679
-0.260676
-0.291207
-0.318679
-0.341769
-0.0056134
-0.0394459
-0.0872313
-0.128174
-0.158757
-0.180216
-0.195245
-0.206072
-0.214487
-0.220939
0.00682303
-0.0198697
-0.060743
-0.0949189
-0.118979
-0.134839
-0.146585
-0.157021
-0.168117
-0.179664
-0.0550464
-0.0692434
-0.0693069
-0.0723066
-0.0809558
-0.0930273
-0.106138
-0.118644
-0.13019
-0.140458
0.0216344
0.00655594
-0.0221874
-0.046446
-0.0635143
-0.0755213
-0.0852507
-0.094177
-0.102944
-0.111385
-0.0446174
-0.0527935
-0.0469793
-0.0443535
-0.0478207
-0.055373
-0.0643752
-0.0731251
-0.0811069
-0.0881694
0.0316879
0.0217635
-0.00262718
-0.0232676
-0.0370845
-0.0459732
-0.0525599
-0.0584182
-0.0642112
-0.0699643
-0.0378773
-0.0419067
-0.032313
-0.0265162
-0.0271149
-0.0318977
-0.0382069
-0.0443629
-0.0497729
-0.0543716
0.0349619
0.0237872
-0.00212131
-0.0227882
-0.0346064
-0.0394288
-0.0407624
-0.0414054
-0.0427917
-0.0453121
0.0360871
0.026329
0.00154496
-0.0182156
-0.0291397
-0.0330419
-0.033416
-0.0331519
-0.0336852
-0.0354476
-0.0341662
-0.0347522
-0.021958
-0.0130839
-0.0106155
-0.0123825
-0.0157113
-0.0190484
-0.021774
-0.0238933
0.0371345
0.0332877
0.0150582
0.000196508
-0.00817393
-0.0118993
-0.013488
-0.0145682
-0.0157728
-0.0172415
-0.0345768
-0.0339586
-0.0196857
-0.00881177
-0.00420555
-0.00403178
-0.00565853
-0.00750658
-0.0089667
-0.00998588
0.0334366
0.0309891
0.0155469
0.00367176
-0.00196033
-0.00338417
-0.00317793
-0.00282009
-0.0027698
-0.00302316
0.239584
0.192328
0.223938
0.224073
0.258204
0.250498
0.296048
0.293083
0.356703
0.355758
0.446095
0.445779
0.581283
0.577843
0.796377
0.761382
1.13443
0.873952
1.23496
-1.61028
0.236602
0.196489
0.220431
0.225058
0.252054
0.2522
0.286068
0.295177
0.340242
0.359682
0.417578
0.45331
0.527475
0.587999
0.675749
0.762078
0.849238
0.970507
0.704221
1.06431
0.226959
0.201077
0.21511
0.221344
0.241348
0.24721
0.272338
0.286482
0.320512
0.344214
0.387888
0.425485
0.480773
0.534995
0.600497
0.657447
0.700967
0.712405
0.432287
0.252664
0.207758
0.209451
0.210813
0.220614
0.228341
0.245555
0.256977
0.283539
0.299387
0.337994
0.357131
0.411115
0.42914
0.5023
0.502356
0.590799
0.518843
0.597692
0.294121
0.297394
0.197013
0.209396
0.208376
0.216643
0.22032
0.2397
0.248193
0.276095
0.287945
0.325911
0.340736
0.388008
0.400837
0.456195
0.451208
0.506972
0.439327
0.468364
0.235066
0.137856
0.184286
0.206776
0.203008
0.211714
0.2106
0.232278
0.235953
0.26547
0.269998
0.308519
0.313057
0.359243
0.35849
0.407237
0.388862
0.426608
0.362027
0.351673
0.189037
0.0576401
0.174899
0.199719
0.196598
0.204062
0.202088
0.221707
0.225448
0.251036
0.256355
0.286394
0.292206
0.325177
0.326814
0.356129
0.342981
0.353369
0.305032
0.26819
0.167588
0.0435999
0.165513
0.18966
0.187909
0.194314
0.192131
0.208653
0.212369
0.233757
0.238795
0.262185
0.268348
0.290373
0.293902
0.307722
0.299053
0.291549
0.254011
0.205973
0.126239
0.0403897
0.156587
0.176847
0.17739
0.182532
0.181397
0.193617
0.198497
0.214478
0.221192
0.237109
0.244758
0.257169
0.262029
0.265408
0.258062
0.243305
0.210581
0.16626
0.100919
0.0345896
0.147677
0.162065
0.165008
0.169185
0.169636
0.177623
0.18341
0.194434
0.202595
0.212411
0.220827
0.226536
0.230906
0.22887
0.220564
0.204384
0.176149
0.140823
0.0928085
0.0246112
0.137863
0.146944
0.150678
0.154714
0.156429
0.161715
0.16718
0.174899
0.182723
0.189256
0.196219
0.198954
0.200779
0.197356
0.187699
0.172661
0.146785
0.112261
0.0656313
0.0208608
0.127115
0.132067
0.135353
0.13921
0.141879
0.145783
0.150432
0.155847
0.16237
0.16704
0.172008
0.173264
0.173102
0.169034
0.158995
0.14487
0.122926
0.0966168
0.0645431
0.0184094
0.114441
0.117445
0.119833
0.123205
0.126195
0.129443
0.133262
0.137155
0.14211
0.145602
0.148768
0.149232
0.147679
0.143421
0.133886
0.121143
0.101674
0.0756732
0.0428577
0.0165084
0.101199
0.102607
0.104266
0.106932
0.109902
0.112587
0.115808
0.118566
0.122243
0.124723
0.126673
0.126443
0.1244
0.119856
0.111274
0.0996917
0.0843979
0.0666175
0.0469159
0.0139787
0.086489
0.0875623
0.0887183
0.0907484
0.0932521
0.0954888
0.0980605
0.100164
0.102664
0.104545
0.10547
0.104943
0.1026
0.0983876
0.0908638
0.0808479
0.0668573
0.0495858
0.0299375
0.0204589
0.0708918
0.0721749
0.0730814
0.0745686
0.0764388
0.0782356
0.0802112
0.0818392
0.0834448
0.0848664
0.0851244
0.0844653
0.0821549
0.078426
0.0721375
0.0640081
0.0525048
0.0386726
0.0229393
0.0181519
0.0558162
0.056367
0.0570643
0.0580996
0.0595453
0.0608135
0.0624019
0.0635011
0.0645972
0.0655159
0.0656199
0.0647513
0.0629292
0.059597
0.0547985
0.0485985
0.0412721
0.0338762
0.0267902
0.00776983
0.0400475
0.0403912
0.0408473
0.0415483
0.0425373
0.0434578
0.0445718
0.0453146
0.0459554
0.0465629
0.046492
0.0458117
0.0443807
0.0419612
0.0386422
0.0344057
0.0281276
0.019116
0.00777749
0.00610413
0.0240981
0.0242833
0.0245462
0.0249739
0.0255361
0.0260712
0.0267536
0.0271605
0.027494
0.0278508
0.0277753
0.0272881
0.0264098
0.024907
0.0228708
0.0203608
0.0174118
0.0155172
0.01442
0.00353936
0.00804321
0.00812306
0.00820339
0.00829439
0.0085055
0.00871062
0.00892366
0.00906557
0.00916682
0.00922761
0.00920434
0.00911014
0.00880002
0.00820933
0.00763197
0.00686123
0.0053577
0.00192027
-0.00282816
0.00120136
0.233802
0.180472
0.220903
0.212025
0.256301
0.23658
0.296698
0.276368
0.360124
0.335428
0.454843
0.421952
0.601783
0.554828
0.851595
0.771932
1.36155
1.12701
2.76903
0.879264
0.235252
0.181242
0.222989
0.212942
0.258785
0.237612
0.299886
0.277555
0.364612
0.337066
0.46187
0.424588
0.614672
0.56151
0.881024
0.799839
1.43462
1.3008
2.92463
2.06246
0.236725
0.18206
0.224769
0.213932
0.260902
0.238721
0.302604
0.278922
0.368442
0.338877
0.467844
0.427408
0.625629
0.567852
0.90644
0.823751
1.53148
1.42119
3.17026
2.85533
0.238062
0.182868
0.226242
0.214919
0.262631
0.239837
0.304768
0.280366
0.371418
0.340783
0.472305
0.430368
0.633447
0.574
0.922722
0.844229
1.55443
1.52939
3.24466
3.29824
0.239122
0.183672
0.227367
0.215867
0.263909
0.24091
0.306295
0.281774
0.373455
0.342569
0.475238
0.43292
0.63844
0.578383
0.93326
0.856416
1.59307
1.57654
3.29704
3.54031
0.239861
0.184471
0.228111
0.216751
0.264701
0.241907
0.307138
0.283071
0.374483
0.344155
0.476514
0.434966
0.640274
0.581
0.936012
0.860383
1.59455
1.58481
3.29022
3.56816
0.240287
0.185282
0.228471
0.217565
0.265
0.242812
0.307278
0.284222
0.374447
0.3455
0.476074
0.43647
0.638886
0.581882
0.931235
0.856268
1.56758
1.55305
3.23296
3.36916
0.240442
0.186124
0.22846
0.218348
0.264818
0.243679
0.306725
0.285209
0.373386
0.346467
0.473992
0.436984
0.634662
0.579928
0.921278
0.841647
1.55291
1.45992
3.15267
3.01643
0.240448
0.186977
0.228119
0.219123
0.264198
0.244566
0.305519
0.286273
0.37131
0.347753
0.470162
0.43806
0.626614
0.578507
0.900139
0.823836
1.46268
1.35821
2.90727
2.32317
0.240609
0.187742
0.227485
0.219685
0.263267
0.245056
0.303904
0.286568
0.368745
0.347752
0.46582
0.436892
0.618455
0.572724
0.881058
0.79613
1.42212
1.18586
2.79102
1.29822
)
;

boundaryField
{
    inlet
    {
        type            zeroGradient;
    }
    outlet
    {
        type            fixedValue;
        value           uniform 0;
    }
    upAndBottom
    {
        type            empty;
    }
    obstacle
    {
        type            zeroGradient;
    }
}


// ************************************************************************* //
