x,y,z,p
0,0,0,0.000227152
0,0.1,0,0.000500112
0,0.2,0,0.000773072
0,0.3,0,0.00109218
0,0.4,0,0.00145743
0,0.5,0,0.00182268
0,0.6,0,0.00219065
0,0.7,0,0.00255863
0,0.8,0,0.00292855
0,0.9,0,0.00330041
0,1,0,0.00367227
0,1.1,0,0.00404896
0,1.2,0,0.00442565
0,1.3,0,0.00480512
0,1.4,0,0.00518735
0,1.5,0,0.00556958
0,1.6,0,0.00595772
0,1.7,0,0.00634587
0,1.8,0,0.00673697
0,1.9,0,0.00713103
0,2,0,0.00752508
0,2.1,0,0.00792457
0,2.2,0,0.00832406
0,2.3,0,0.00872576
0,2.4,0,0.00912966
0,2.5,0,0.00953357
0,2.6,0,0.00994024
0,2.7,0,0.0103469
0,2.8,0,0.0107538
0,2.9,0,0.0111609
0,3,0,0.011568
0,3.1,0,0.0119723
0,3.2,0,0.0123767
0,3.3,0,0.0127778
0,3.4,0,0.0131756
0,3.5,0,0.0135735
0,3.6,0,0.0139601
0,3.7,0,0.0143466
0,3.8,0,0.0147249
0,3.9,0,0.0150949
0,4,0,0.0154649
0,4.1,0,0.0158123
0,4.2,0,0.0161598
0,4.3,0,0.0164928
0,4.4,0,0.0168114
0,4.5,0,0.0171299
0,4.6,0,0.0174132
0,4.7,0,0.0176964
0,4.8,0,0.0179537
0,4.9,0,0.0181849
0,5,0,0.0184161
0,5.1,0,0.0186287
0,5.2,0,0.0188413
0,5.3,0,0.0189997
0,5.4,0,0.0191581
0,5.5,0,0.0192728
0,5.6,0,0.0193875
0,5.7,0,0.0194565
0,5.8,0,0.0195256
0,5.9,0,0.0195481
0,6,0,0.0195705
0,6.1,0,0.0195459
0,6.2,0,0.0195213
0,6.3,0,0.0194505
0,6.4,0,0.0193796
0,6.5,0,0.0192639
0,6.6,0,0.0191482
0,6.7,0,0.0189897
0,6.8,0,0.0188312
0,6.9,0,0.0186111
0,7,0,0.0183909
0,7.1,0,0.018165
0,7.2,0,0.017939
0,7.3,0,0.0177042
0,7.4,0,0.0174195
0,7.5,0,0.0171347
0,7.6,0,0.0168395
0,7.7,0,0.0165199
0,7.8,0,0.0162004
0,7.9,0,0.0158691
0,8,0,0.0155235
0,8.1,0,0.0151779
0,8.2,0,0.0148217
0,8.3,0,0.0144584
0,8.4,0,0.0140952
0,8.5,0,0.0137243
0,8.6,0,0.0133509
0,8.7,0,0.0129774
0,8.8,0,0.0126007
0,8.9,0,0.0122235
0,9,0,0.0118465
0,9.1,0,0.0114709
0,9.2,0,0.0110954
0,9.3,0,0.010721
0,9.4,0,0.0103511
0,9.5,0,0.00998116
0,9.6,0,0.00961426
0,9.7,0,0.00925293
0,9.8,0,0.0088916
0,9.9,0,0.00853553
0,10,0,0.00818472
0,10.1,0,0.00783391
0,10.2,0,0.00749061
0,10.3,0,0.00715134
0,10.4,0,0.00681208
0,10.5,0,0.00648228
0,10.6,0,0.00615485
0,10.7,0,0.00582742
0,10.8,0,0.00551092
0,10.9,0,0.005195
0,11,0,0.00488014
0,11.1,0,0.0045749
0,11.2,0,0.00426966
0,11.3,0,0.00396679
0,11.4,0,0.00367101
0,11.5,0,0.00337523
0,11.6,0,0.00308262
0,11.7,0,0.00279479
0,11.8,0,0.00250695
0,11.9,0,0.00222251
0,12,0,0.00194087
0,12.1,0,0.00165922
0,12.2,0,0.00138056
0,12.3,0,0.00110319
0,12.4,0,0.000825807
0,12.5,0,0.000608407
0,12.6,0,0.000401592
0,12.7,0,0.000194776
0.1,0,0,0.000136291
0.1,0.1,0,0.000408874
0.1,0.2,0,0.000727144
0.1,0.3,0,0.00109134
0.1,0.4,0,0.00145638
0.1,0.5,0,0.0018215
0.1,0.6,0,0.00218898
0.1,0.7,0,0.00255695
0.1,0.8,0,0.00292661
0.1,0.9,0,0.0032982
0.1,1,0,0.00367018
0.1,1.1,0,0.00404633
0.1,1.2,0,0.00442314
0.1,1.3,0,0.00480246
0.1,1.4,0,0.00518443
0.1,1.5,0,0.00556701
0.1,1.6,0,0.00595472
0.1,1.7,0,0.00634308
0.1,1.8,0,0.00673423
0.1,1.9,0,0.00712813
0.1,2,0,0.00752269
0.1,2.1,0,0.00792203
0.1,2.2,0,0.00832181
0.1,2.3,0,0.00872384
0.1,2.4,0,0.00912779
0.1,2.5,0,0.0095323
0.1,2.6,0,0.00993935
0.1,2.7,0,0.0103463
0.1,2.8,0,0.0107539
0.1,2.9,0,0.0111613
0.1,3,0,0.011569
0.1,3.1,0,0.0119746
0.1,3.2,0,0.0123792
0.1,3.3,0,0.0127813
0.1,3.4,0,0.01318
0.1,3.5,0,0.0135781
0.1,3.6,0,0.0139669
0.1,3.7,0,0.0143536
0.1,3.8,0,0.0147333
0.1,3.9,0,0.0151047
0.1,4,0,0.0154744
0.1,4.1,0,0.0158251
0.1,4.2,0,0.0161723
0.1,4.3,0,0.0165069
0.1,4.4,0,0.0168274
0.1,4.5,0,0.0171449
0.1,4.6,0,0.0174325
0.1,4.7,0,0.0177149
0.1,4.8,0,0.0179789
0.1,4.9,0,0.0182176
0.1,5,0,0.0184361
0.1,5.1,0,0.018655
0.1,5.2,0,0.0188631
0.1,5.3,0,0.0190167
0.1,5.4,0,0.0191812
0.1,5.5,0,0.0192907
0.1,5.6,0,0.0194116
0.1,5.7,0,0.0194751
0.1,5.8,0,0.0195504
0.1,5.9,0,0.0195669
0.1,6,0,0.0195953
0.1,6.1,0,0.0195646
0.1,6.2,0,0.0195459
0.1,6.3,0,0.0194688
0.1,6.4,0,0.0194034
0.1,6.5,0,0.0192815
0.1,6.6,0,0.0191707
0.1,6.7,0,0.0190063
0.1,6.8,0,0.0188523
0.1,6.9,0,0.0186438
0.1,7,0,0.0184099
0.1,7.1,0,0.0182064
0.1,7.2,0,0.0179764
0.1,7.3,0,0.0177213
0.1,7.4,0,0.0174419
0.1,7.5,0,0.0171535
0.1,7.6,0,0.0168536
0.1,7.7,0,0.0165372
0.1,7.8,0,0.0162137
0.1,7.9,0,0.0158798
0.1,8,0,0.0155359
0.1,8.1,0,0.0151865
0.1,8.2,0,0.0148289
0.1,8.3,0,0.0144662
0.1,8.4,0,0.0140997
0.1,8.5,0,0.0137281
0.1,8.6,0,0.0133546
0.1,8.7,0,0.0129789
0.1,8.8,0,0.0126013
0.1,8.9,0,0.0122238
0.1,9,0,0.0118457
0.1,9.1,0,0.0114688
0.1,9.2,0,0.0110932
0.1,9.3,0,0.0107184
0.1,9.4,0,0.0103469
0.1,9.5,0,0.00997734
0.1,9.6,0,0.00961023
0.1,9.7,0,0.00924734
0.1,9.8,0,0.00888688
0.1,9.9,0,0.00853046
0.1,10,0,0.00817832
0.1,10.1,0,0.00782889
0.1,10.2,0,0.00748486
0.1,10.3,0,0.00714458
0.1,10.4,0,0.00680718
0.1,10.5,0,0.00647621
0.1,10.6,0,0.0061483
0.1,10.7,0,0.00582295
0.1,10.8,0,0.00550487
0.1,10.9,0,0.0051891
0.1,11,0,0.00487595
0.1,11.1,0,0.00456917
0.1,11.2,0,0.00426463
0.1,11.3,0,0.0039629
0.1,11.4,0,0.00366601
0.1,11.5,0,0.00337118
0.1,11.6,0,0.00307926
0.1,11.7,0,0.00279073
0.1,11.8,0,0.00250394
0.1,11.9,0,0.00221986
0.1,12,0,0.00193787
0.1,12.1,0,0.00165725
0.1,12.2,0,0.0013788
0.1,12.3,0,0.00110133
0.1,12.4,0,0.000824836
0.1,12.5,0,0.000549603
0.1,12.6,0,0.000323092
0.1,12.7,0,0.000116866
0.2,0,0,4.54304e-05
0.2,0.1,0,0.000363323
0.2,0.2,0,0.000726526
0.2,0.3,0,0.00109072
0.2,0.4,0,0.00145542
0.2,0.5,0,0.00182033
0.2,0.6,0,0.0021878
0.2,0.7,0,0.00255529
0.2,0.8,0,0.00292494
0.2,0.9,0,0.00329638
0.2,1,0,0.0036681
0.2,1.1,0,0.00404436
0.2,1.2,0,0.00442075
0.2,1.3,0,0.00480007
0.2,1.4,0,0.00518212
0.2,1.5,0,0.00556444
0.2,1.6,0,0.00595236
0.2,1.7,0,0.0063405
0.2,1.8,0,0.00673165
0.2,1.9,0,0.0071259
0.2,2,0,0.00752031
0.2,2.1,0,0.00791993
0.2,2.2,0,0.00831985
0.2,2.3,0,0.00872188
0.2,2.4,0,0.00912647
0.2,2.5,0,0.00953102
0.2,2.6,0,0.00993839
0.2,2.7,0,0.0103461
0.2,2.8,0,0.0107536
0.2,2.9,0,0.011162
0.2,3,0,0.01157
0.2,3.1,0,0.0119758
0.2,3.2,0,0.0123819
0.2,3.3,0,0.012784
0.2,3.4,0,0.0131838
0.2,3.5,0,0.0135828
0.2,3.6,0,0.0139716
0.2,3.7,0,0.0143605
0.2,3.8,0,0.0147402
0.2,3.9,0,0.0151128
0.2,4,0,0.0154839
0.2,4.1,0,0.0158344
0.2,4.2,0,0.0161845
0.2,4.3,0,0.0165192
0.2,4.4,0,0.0168405
0.2,4.5,0,0.01716
0.2,4.6,0,0.0174467
0.2,4.7,0,0.0177326
0.2,4.8,0,0.0179966
0.2,4.9,0,0.0182301
0.2,5,0,0.0184561
0.2,5.1,0,0.0186732
0.2,5.2,0,0.0188848
0.2,5.3,0,0.0190419
0.2,5.4,0,0.0192044
0.2,5.5,0,0.0193172
0.2,5.6,0,0.0194357
0.2,5.7,0,0.0195024
0.2,5.8,0,0.0195751
0.2,5.9,0,0.0195946
0.2,6,0,0.0196201
0.2,6.1,0,0.0195923
0.2,6.2,0,0.0195704
0.2,6.3,0,0.0194959
0.2,6.4,0,0.0194272
0.2,6.5,0,0.0193074
0.2,6.6,0,0.0191933
0.2,6.7,0,0.0190307
0.2,6.8,0,0.0188733
0.2,6.9,0,0.0186575
0.2,7,0,0.018429
0.2,7.1,0,0.0182148
0.2,7.2,0,0.0179864
0.2,7.3,0,0.0177376
0.2,7.4,0,0.0174534
0.2,7.5,0,0.0171658
0.2,7.6,0,0.0168666
0.2,7.7,0,0.0165459
0.2,7.8,0,0.0162234
0.2,7.9,0,0.0158895
0.2,8,0,0.0155417
0.2,8.1,0,0.015193
0.2,8.2,0,0.0148353
0.2,8.3,0,0.0144695
0.2,8.4,0,0.0141034
0.2,8.5,0,0.0137313
0.2,8.6,0,0.0133558
0.2,8.7,0,0.0129802
0.2,8.8,0,0.0126022
0.2,8.9,0,0.0122234
0.2,9,0,0.011845
0.2,9.1,0,0.0114681
0.2,9.2,0,0.0110912
0.2,9.3,0,0.0107162
0.2,9.4,0,0.010345
0.2,9.5,0,0.00997415
0.2,9.6,0,0.00960691
0.2,9.7,0,0.00924466
0.2,9.8,0,0.00888285
0.2,9.9,0,0.00852642
0.2,10,0,0.00817516
0.2,10.1,0,0.00782448
0.2,10.2,0,0.00748061
0.2,10.3,0,0.00714126
0.2,10.4,0,0.00680268
0.2,10.5,0,0.00647219
0.2,10.6,0,0.00614488
0.2,10.7,0,0.00581859
0.2,10.8,0,0.00550129
0.2,10.9,0,0.00518565
0.2,11,0,0.00487191
0.2,11.1,0,0.00456617
0.2,11.2,0,0.00426134
0.2,11.3,0,0.00395933
0.2,11.4,0,0.0036635
0.2,11.5,0,0.00336823
0.2,11.6,0,0.00307627
0.2,11.7,0,0.00278876
0.2,11.8,0,0.00250161
0.2,11.9,0,0.00221754
0.2,12,0,0.0019365
0.2,12.1,0,0.00165565
0.2,12.2,0,0.00137731
0.2,12.3,0,0.00110061
0.2,12.4,0,0.000824
0.2,12.5,0,0.000548932
0.2,12.6,0,0.000274507
0.2,12.7,0,3.89552e-05
0.3,0,0,0
0.3,0.1,0,0.000362672
0.3,0.2,0,0.000725875
0.3,0.3,0,0.0010889
0.3,0.4,0,0.0014536
0.3,0.5,0,0.00181788
0.3,0.6,0,0.00218493
0.3,0.7,0,0.00255241
0.3,0.8,0,0.00292114
0.3,0.9,0,0.00329258
0.3,1,0,0.00366374
0.3,1.1,0,0.00403982
0.3,1.2,0,0.00441621
0.3,1.3,0,0.00479503
0.3,1.4,0,0.00517709
0.3,1.5,0,0.00555905
0.3,1.6,0,0.00594712
0.3,1.7,0,0.00633526
0.3,1.8,0,0.00672658
0.3,1.9,0,0.00712082
0.3,2,0,0.00751527
0.3,2.1,0,0.00791546
0.3,2.2,0,0.00831538
0.3,2.3,0,0.00871851
0.3,2.4,0,0.0091231
0.3,2.5,0,0.00952828
0.3,2.6,0,0.00993667
0.3,2.7,0,0.0103443
0.3,2.8,0,0.0107542
0.3,2.9,0,0.0111626
0.3,3,0,0.0115721
0.3,3.1,0,0.0119794
0.3,3.2,0,0.0123854
0.3,3.3,0,0.0127912
0.3,3.4,0,0.013191
0.3,3.5,0,0.0135924
0.3,3.6,0,0.0139831
0.3,3.7,0,0.014372
0.3,3.8,0,0.0147566
0.3,3.9,0,0.0151291
0.3,4,0,0.0155036
0.3,4.1,0,0.015856
0.3,4.2,0,0.0162062
0.3,4.3,0,0.0165464
0.3,4.4,0,0.0168678
0.3,4.5,0,0.0171911
0.3,4.6,0,0.0174794
0.3,4.7,0,0.0177653
0.3,4.8,0,0.0180345
0.3,4.9,0,0.018268
0.3,5,0,0.0184977
0.3,5.1,0,0.0187152
0.3,5.2,0,0.0189303
0.3,5.3,0,0.019087
0.3,5.4,0,0.0192527
0.3,5.5,0,0.0193646
0.3,5.6,0,0.0194862
0.3,5.7,0,0.0195515
0.3,5.8,0,0.0196267
0.3,5.9,0,0.0196444
0.3,6,0,0.0196721
0.3,6.1,0,0.0196419
0.3,6.2,0,0.0196217
0.3,6.3,0,0.0195443
0.3,6.4,0,0.0194768
0.3,6.5,0,0.019354
0.3,6.6,0,0.0192405
0.3,6.7,0,0.0190745
0.3,6.8,0,0.0189173
0.3,6.9,0,0.018698
0.3,7,0,0.0184686
0.3,7.1,0,0.0182506
0.3,7.2,0,0.0180222
0.3,7.3,0,0.0177702
0.3,7.4,0,0.0174828
0.3,7.5,0,0.0171951
0.3,7.6,0,0.0168913
0.3,7.7,0,0.0165685
0.3,7.8,0,0.0162459
0.3,7.9,0,0.0159063
0.3,8,0,0.0155578
0.3,8.1,0,0.0152082
0.3,8.2,0,0.0148453
0.3,8.3,0,0.0144796
0.3,8.4,0,0.0141121
0.3,8.5,0,0.0137361
0.3,8.6,0,0.0133605
0.3,8.7,0,0.0129831
0.3,8.8,0,0.0126026
0.3,8.9,0,0.0122237
0.3,9,0,0.0118433
0.3,9.1,0,0.011465
0.3,9.2,0,0.0110881
0.3,9.3,0,0.0107111
0.3,9.4,0,0.0103393
0.3,9.5,0,0.00996839
0.3,9.6,0,0.00959958
0.3,9.7,0,0.00923712
0.3,9.8,0,0.0088752
0.3,9.9,0,0.00851784
0.3,10,0,0.00816656
0.3,10.1,0,0.00781565
0.3,10.2,0,0.00747157
0.3,10.3,0,0.00713222
0.3,10.4,0,0.00679341
0.3,10.5,0,0.00646322
0.3,10.6,0,0.00613591
0.3,10.7,0,0.00580951
0.3,10.8,0,0.0054928
0.3,10.9,0,0.00517717
0.3,11,0,0.00486363
0.3,11.1,0,0.00455849
0.3,11.2,0,0.00425366
0.3,11.3,0,0.00395227
0.3,11.4,0,0.00365689
0.3,11.5,0,0.00336162
0.3,11.6,0,0.00307067
0.3,11.7,0,0.00278341
0.3,11.8,0,0.00249637
0.3,11.9,0,0.00221355
0.3,12,0,0.00193254
0.3,12.1,0,0.00165199
0.3,12.2,0,0.00137485
0.3,12.3,0,0.00109815
0.3,12.4,0,0.000822075
0.3,12.5,0,0.000548051
0.3,12.6,0,0.000273626
0.3,12.7,0,0
0.4,0,0,0
0.4,0.1,0,0.000362141
0.4,0.2,0,0.000723917
0.4,0.3,0,0.00108695
0.4,0.4,0,0.00145028
0.4,0.5,0,0.00181415
0.4,0.6,0,0.00218077
0.4,0.7,0,0.00254711
0.4,0.8,0,0.00291584
0.4,0.9,0,0.00328624
0.4,1,0,0.00365711
0.4,1.1,0,0.0040329
0.4,1.2,0,0.00440858
0.4,1.3,0,0.00478741
0.4,1.4,0,0.00516898
0.4,1.5,0,0.00555085
0.4,1.6,0,0.00593885
0.4,1.7,0,0.006327
0.4,1.8,0,0.00671832
0.4,1.9,0,0.00711294
0.4,2,0,0.00750759
0.4,2.1,0,0.00790805
0.4,2.2,0,0.00830901
0.4,2.3,0,0.00871214
0.4,2.4,0,0.0091183
0.4,2.5,0,0.00952408
0.4,2.6,0,0.00993317
0.4,2.7,0,0.0103432
0.4,2.8,0,0.0107531
0.4,2.9,0,0.0111646
0.4,3,0,0.0115751
0.4,3.1,0,0.0119837
0.4,3.2,0,0.0123937
0.4,3.3,0,0.0127995
0.4,3.4,0,0.013204
0.4,3.5,0,0.0136069
0.4,3.6,0,0.0139995
0.4,3.7,0,0.0143937
0.4,3.8,0,0.0147783
0.4,3.9,0,0.015157
0.4,4,0,0.0155334
0.4,4.1,0,0.0158882
0.4,4.2,0,0.0162447
0.4,4.3,0,0.0165849
0.4,4.4,0,0.016913
0.4,4.5,0,0.0172384
0.4,4.6,0,0.0175291
0.4,4.7,0,0.0178212
0.4,4.8,0,0.0180904
0.4,4.9,0,0.0183352
0.4,5,0,0.0185611
0.4,5.1,0,0.0187826
0.4,5.2,0,0.0189994
0.4,5.3,0,0.0191538
0.4,5.4,0,0.0193262
0.4,5.5,0,0.019435
0.4,5.6,0,0.0195629
0.4,5.7,0,0.0196243
0.4,5.8,0,0.0197054
0.4,5.9,0,0.0197182
0.4,6,0,0.0197512
0.4,6.1,0,0.0197154
0.4,6.2,0,0.0196997
0.4,6.3,0,0.0196163
0.4,6.4,0,0.0195524
0.4,6.5,0,0.019423
0.4,6.6,0,0.0193123
0.4,6.7,0,0.0191394
0.4,6.8,0,0.0189841
0.4,6.9,0,0.0187666
0.4,7,0,0.018529
0.4,7.1,0,0.0183187
0.4,7.2,0,0.0180808
0.4,7.3,0,0.0178215
0.4,7.4,0,0.0175342
0.4,7.5,0,0.0172372
0.4,7.6,0,0.0169321
0.4,7.7,0,0.0166074
0.4,7.8,0,0.0162762
0.4,7.9,0,0.0159366
0.4,8,0,0.0155844
0.4,8.1,0,0.0152286
0.4,8.2,0,0.0148656
0.4,8.3,0,0.0144949
0.4,8.4,0,0.0141235
0.4,8.5,0,0.013747
0.4,8.6,0,0.0133664
0.4,8.7,0,0.0129868
0.4,8.8,0,0.0126054
0.4,8.9,0,0.0122223
0.4,9,0,0.0118409
0.4,9.1,0,0.0114612
0.4,9.2,0,0.0110812
0.4,9.3,0,0.0107039
0.4,9.4,0,0.0103304
0.4,9.5,0,0.00995777
0.4,9.6,0,0.00958892
0.4,9.7,0,0.00922473
0.4,9.8,0,0.00886233
0.4,9.9,0,0.00850498
0.4,10,0,0.00815219
0.4,10.1,0,0.00780163
0.4,10.2,0,0.00745742
0.4,10.3,0,0.00711713
0.4,10.4,0,0.00677914
0.4,10.5,0,0.00644864
0.4,10.6,0,0.00612126
0.4,10.7,0,0.0057957
0.4,10.8,0,0.00547861
0.4,10.9,0,0.00516376
0.4,11,0,0.00485086
0.4,11.1,0,0.00454537
0.4,11.2,0,0.00424203
0.4,11.3,0,0.00394099
0.4,11.4,0,0.00364561
0.4,11.5,0,0.00335213
0.4,11.6,0,0.00306123
0.4,11.7,0,0.00277445
0.4,11.8,0,0.00248904
0.4,11.9,0,0.00220621
0.4,12,0,0.0019262
0.4,12.1,0,0.00164693
0.4,12.2,0,0.00136987
0.4,12.3,0,0.00109464
0.4,12.4,0,0.000819447
0.4,12.5,0,0.000545676
0.4,12.6,0,0.000273024
0.4,12.7,0,0
0.5,0,0,0
0.5,0.1,0,0.000361245
0.5,0.2,0,0.00072249
0.5,0.3,0,0.00108457
0.5,0.4,0,0.0014475
0.5,0.5,0,0.00181043
0.5,0.6,0,0.00217633
0.5,0.7,0,0.00254224
0.5,0.8,0,0.00291025
0.5,0.9,0,0.00328036
0.5,1,0,0.00365048
0.5,1.1,0,0.00402587
0.5,1.2,0,0.00440125
0.5,1.3,0,0.00477969
0.5,1.4,0,0.00516117
0.5,1.5,0,0.00554264
0.5,1.6,0,0.00593073
0.5,1.7,0,0.00631881
0.5,1.8,0,0.00671027
0.5,1.9,0,0.00710509
0.5,2,0,0.00749991
0.5,2.1,0,0.00790114
0.5,2.2,0,0.00830237
0.5,2.3,0,0.00870636
0.5,2.4,0,0.00911312
0.5,2.5,0,0.00951987
0.5,2.6,0,0.00993064
0.5,2.7,0,0.0103414
0.5,2.8,0,0.0107531
0.5,2.9,0,0.0111656
0.5,3,0,0.0115781
0.5,3.1,0,0.0119894
0.5,3.2,0,0.0124006
0.5,3.3,0,0.0128093
0.5,3.4,0,0.0132153
0.5,3.5,0,0.0136214
0.5,3.6,0,0.0140175
0.5,3.7,0,0.0144136
0.5,3.8,0,0.014802
0.5,3.9,0,0.0151826
0.5,4,0,0.0155632
0.5,4.1,0,0.015922
0.5,4.2,0,0.0162808
0.5,4.3,0,0.0166253
0.5,4.4,0,0.0169555
0.5,4.5,0,0.0172856
0.5,4.6,0,0.0175802
0.5,4.7,0,0.0178747
0.5,4.8,0,0.0181424
0.5,4.9,0,0.0183834
0.5,5,0,0.0186244
0.5,5.1,0,0.0188465
0.5,5.2,0,0.0190685
0.5,5.3,0,0.0192341
0.5,5.4,0,0.0193997
0.5,5.5,0,0.0195197
0.5,5.6,0,0.0196397
0.5,5.7,0,0.0197119
0.5,5.8,0,0.019784
0.5,5.9,0,0.0198071
0.5,6,0,0.0198303
0.5,6.1,0,0.019804
0.5,6.2,0,0.0197778
0.5,6.3,0,0.0197029
0.5,6.4,0,0.0196279
0.5,6.5,0,0.019506
0.5,6.6,0,0.019384
0.5,6.7,0,0.0192175
0.5,6.8,0,0.019051
0.5,6.9,0,0.0188202
0.5,7,0,0.0185893
0.5,7.1,0,0.018353
0.5,7.2,0,0.0181168
0.5,7.3,0,0.0178714
0.5,7.4,0,0.0175746
0.5,7.5,0,0.0172777
0.5,7.6,0,0.0169704
0.5,7.7,0,0.0166386
0.5,7.8,0,0.0163069
0.5,7.9,0,0.0159638
0.5,8,0,0.0156067
0.5,8.1,0,0.0152496
0.5,8.2,0,0.0148826
0.5,8.3,0,0.014509
0.5,8.4,0,0.0141354
0.5,8.5,0,0.0137553
0.5,8.6,0,0.0133731
0.5,8.7,0,0.0129908
0.5,8.8,0,0.0126068
0.5,8.9,0,0.0122225
0.5,9,0,0.0118383
0.5,9.1,0,0.0114572
0.5,9.2,0,0.0110762
0.5,9.3,0,0.0106965
0.5,9.4,0,0.0103226
0.5,9.5,0,0.00994877
0.5,9.6,0,0.00957839
0.5,9.7,0,0.00921451
0.5,9.8,0,0.00885063
0.5,9.9,0,0.00849261
0.5,10,0,0.00814047
0.5,10.1,0,0.00778832
0.5,10.2,0,0.00744435
0.5,10.3,0,0.00710477
0.5,10.4,0,0.0067652
0.5,10.5,0,0.00643576
0.5,10.6,0,0.00610886
0.5,10.7,0,0.00578195
0.5,10.8,0,0.00546662
0.5,10.9,0,0.0051519
0.5,11,0,0.00483829
0.5,11.1,0,0.00453478
0.5,11.2,0,0.00423126
0.5,11.3,0,0.00393021
0.5,11.4,0,0.00363655
0.5,11.5,0,0.0033429
0.5,11.6,0,0.00305254
0.5,11.7,0,0.00276712
0.5,11.8,0,0.0024817
0.5,11.9,0,0.0021998
0.5,12,0,0.00192079
0.5,12.1,0,0.00164178
0.5,12.2,0,0.00136587
0.5,12.3,0,0.0010913
0.5,12.4,0,0.000816725
0.5,12.5,0,0.000544238
0.5,12.6,0,0.000272119
0.5,12.7,0,0
0.6,0,0,0
0.6,0.1,0,0.000359322
0.6,0.2,0,0.000719802
0.6,0.3,0,0.00108029
0.6,0.4,0,0.00144238
0.6,0.5,0,0.00180383
0.6,0.6,0,0.00216826
0.6,0.7,0,0.0025335
0.6,0.8,0,0.00290021
0.6,0.9,0,0.0032697
0.6,1,0,0.00363869
0.6,1.1,0,0.00401309
0.6,1.2,0,0.00438806
0.6,1.3,0,0.00476576
0.6,1.4,0,0.00514692
0.6,1.5,0,0.00552795
0.6,1.6,0,0.00591583
0.6,1.7,0,0.00630392
0.6,1.8,0,0.00669555
0.6,1.9,0,0.00709054
0.6,2,0,0.00748593
0.6,2.1,0,0.00788812
0.6,2.2,0,0.00828996
0.6,2.3,0,0.00869541
0.6,2.4,0,0.009103
0.6,2.5,0,0.00951176
0.6,2.6,0,0.00992501
0.6,2.7,0,0.0103372
0.6,2.8,0,0.010752
0.6,2.9,0,0.0111662
0.6,3,0,0.0115825
0.6,3.1,0,0.011998
0.6,3.2,0,0.0124116
0.6,3.3,0,0.0128253
0.6,3.4,0,0.013234
0.6,3.5,0,0.0136457
0.6,3.6,0,0.014048
0.6,3.7,0,0.0144474
0.6,3.8,0,0.0148426
0.6,3.9,0,0.0152267
0.6,4,0,0.0156145
0.6,4.1,0,0.015981
0.6,4.2,0,0.0163436
0.6,4.3,0,0.0166959
0.6,4.4,0,0.01703
0.6,4.5,0,0.017368
0.6,4.6,0,0.0176704
0.6,4.7,0,0.0179687
0.6,4.8,0,0.0182493
0.6,4.9,0,0.0184994
0.6,5,0,0.0187356
0.6,5.1,0,0.0189651
0.6,5.2,0,0.0191902
0.6,5.3,0,0.01935
0.6,5.4,0,0.0195295
0.6,5.5,0,0.0196419
0.6,5.6,0,0.0197753
0.6,5.7,0,0.0198384
0.6,5.8,0,0.019923
0.6,5.9,0,0.0199356
0.6,6,0,0.0199701
0.6,6.1,0,0.019932
0.6,6.2,0,0.0199158
0.6,6.3,0,0.0198279
0.6,6.4,0,0.0197615
0.6,6.5,0,0.0196258
0.6,6.6,0,0.0195107
0.6,6.7,0,0.0193301
0.6,6.8,0,0.0191686
0.6,6.9,0,0.0189421
0.6,7,0,0.0186951
0.6,7.1,0,0.0184744
0.6,7.2,0,0.0182317
0.6,7.3,0,0.0179604
0.6,7.4,0,0.0176602
0.6,7.5,0,0.0173576
0.6,7.6,0,0.0170398
0.6,7.7,0,0.0167041
0.6,7.8,0,0.0163655
0.6,7.9,0,0.0160134
0.6,8,0,0.0156526
0.6,8.1,0,0.0152881
0.6,8.2,0,0.0149138
0.6,8.3,0,0.0145371
0.6,8.4,0,0.0141563
0.6,8.5,0,0.01377
0.6,8.6,0,0.0133854
0.6,8.7,0,0.012997
0.6,8.8,0,0.0126077
0.6,8.9,0,0.0122213
0.6,9,0,0.0118328
0.6,9.1,0,0.0114472
0.6,9.2,0,0.0110648
0.6,9.3,0,0.0106823
0.6,9.4,0,0.0103048
0.6,9.5,0,0.00993028
0.6,9.6,0,0.00955797
0.6,9.7,0,0.00919162
0.6,9.8,0,0.00882765
0.6,9.9,0,0.00846836
0.6,10,0,0.00811466
0.6,10.1,0,0.00776312
0.6,10.2,0,0.00741827
0.6,10.3,0,0.00707783
0.6,10.4,0,0.00673962
0.6,10.5,0,0.00640955
0.6,10.6,0,0.00608243
0.6,10.7,0,0.00575747
0.6,10.8,0,0.00544166
0.6,10.9,0,0.00512736
0.6,11,0,0.00481579
0.6,11.1,0,0.00451216
0.6,11.2,0,0.0042096
0.6,11.3,0,0.00391047
0.6,11.4,0,0.00361711
0.6,11.5,0,0.00332482
0.6,11.6,0,0.00303626
0.6,11.7,0,0.00275139
0.6,11.8,0,0.0024677
0.6,11.9,0,0.00218754
0.6,12,0,0.00190917
0.6,12.1,0,0.0016322
0.6,12.2,0,0.00135801
0.6,12.3,0,0.00108405
0.6,12.4,0,0.00081179
0.6,12.5,0,0.000541041
0.6,12.6,0,0.000269731
0.6,12.7,0,0
0.7,0,0,0
0.7,0.1,0,0.000358557
0.7,0.2,0,0.000716349
0.7,0.3,0,0.00107684
0.7,0.4,0,0.00143662
0.7,0.5,0,0.00179724
0.7,0.6,0,0.002161
0.7,0.7,0,0.00252409
0.7,0.8,0,0.00289081
0.7,0.9,0,0.00325853
0.7,1,0,0.0036269
0.7,1.1,0,0.00400088
0.7,1.2,0,0.00437445
0.7,1.3,0,0.00475215
0.7,1.4,0,0.00513254
0.7,1.5,0,0.00551325
0.7,1.6,0,0.00590114
0.7,1.7,0,0.00628904
0.7,1.8,0,0.00668067
0.7,1.9,0,0.00707639
0.7,2,0,0.00747195
0.7,2.1,0,0.00787475
0.7,2.2,0,0.00827817
0.7,2.3,0,0.00868361
0.7,2.4,0,0.00909404
0.7,2.5,0,0.00950364
0.7,2.6,0,0.00991832
0.7,2.7,0,0.0103344
0.7,2.8,0,0.0107492
0.7,2.9,0,0.0111688
0.7,3,0,0.0115868
0.7,3.1,0,0.0120047
0.7,3.2,0,0.012425
0.7,3.3,0,0.0128387
0.7,3.4,0,0.0132557
0.7,3.5,0,0.0136701
0.7,3.6,0,0.0140757
0.7,3.7,0,0.0144845
0.7,3.8,0,0.0148797
0.7,3.9,0,0.0152745
0.7,4,0,0.0156658
0.7,4.1,0,0.0160361
0.7,4.2,0,0.0164102
0.7,4.3,0,0.0167625
0.7,4.4,0,0.0171084
0.7,4.5,0,0.0174503
0.7,4.6,0,0.0177565
0.7,4.7,0,0.0180664
0.7,4.8,0,0.018347
0.7,4.9,0,0.0186015
0.7,5,0,0.0188469
0.7,5.1,0,0.0190805
0.7,5.2,0,0.0193119
0.7,5.3,0,0.0194806
0.7,5.4,0,0.0196592
0.7,5.5,0,0.0197798
0.7,5.6,0,0.0199109
0.7,5.7,0,0.0199811
0.7,5.8,0,0.0200621
0.7,5.9,0,0.0200805
0.7,6,0,0.0201099
0.7,6.1,0,0.0200764
0.7,6.2,0,0.0200537
0.7,6.3,0,0.019969
0.7,6.4,0,0.019895
0.7,6.5,0,0.019761
0.7,6.6,0,0.0196373
0.7,6.7,0,0.019457
0.7,6.8,0,0.0192863
0.7,6.9,0,0.0190487
0.7,7,0,0.0188008
0.7,7.1,0,0.0185673
0.7,7.2,0,0.0183168
0.7,7.3,0,0.0180499
0.7,7.4,0,0.0177421
0.7,7.5,0,0.0174289
0.7,7.6,0,0.0171106
0.7,7.7,0,0.0167656
0.7,7.8,0,0.0164176
0.7,7.9,0,0.0160656
0.7,8,0,0.0156943
0.7,8.1,0,0.0153227
0.7,8.2,0,0.0149481
0.7,8.3,0,0.0145607
0.7,8.4,0,0.0141752
0.7,8.5,0,0.0137878
0.7,8.6,0,0.0133939
0.7,8.7,0,0.0130025
0.7,8.8,0,0.0126118
0.7,8.9,0,0.012218
0.7,9,0,0.0118276
0.7,9.1,0,0.0114407
0.7,9.2,0,0.0110524
0.7,9.3,0,0.0106688
0.7,9.4,0,0.0102903
0.7,9.5,0,0.00991125
0.7,9.6,0,0.00953863
0.7,9.7,0,0.00917152
0.7,9.8,0,0.0088046
0.7,9.9,0,0.00844531
0.7,10,0,0.00809145
0.7,10.1,0,0.00773818
0.7,10.2,0,0.00739345
0.7,10.3,0,0.00705356
0.7,10.4,0,0.00671433
0.7,10.5,0,0.00638471
0.7,10.6,0,0.00605859
0.7,10.7,0,0.00573308
0.7,10.8,0,0.00541813
0.7,10.9,0,0.00510507
0.7,11,0,0.0047933
0.7,11.1,0,0.00449097
0.7,11.2,0,0.00418979
0.7,11.3,0,0.00389064
0.7,11.4,0,0.00359904
0.7,11.5,0,0.00330824
0.7,11.6,0,0.0030197
0.7,11.7,0,0.0027371
0.7,11.8,0,0.00245483
0.7,11.9,0,0.00217467
0.7,12,0,0.00189913
0.7,12.1,0,0.00162335
0.7,12.2,0,0.00134946
0.7,12.3,0,0.00107863
0.7,12.4,0,0.000807206
0.7,12.5,0,0.000537126
0.7,12.6,0,0.000269028
0.7,12.7,0,0
0.8,0,0,0
0.8,0.1,0,0.000356345
0.8,0.2,0,0.000714137
0.8,0.3,0,0.0010706
0.8,0.4,0,0.00143038
0.8,0.5,0,0.00178909
0.8,0.6,0,0.00215108
0.8,0.7,0,0.00251417
0.8,0.8,0,0.00287763
0.8,0.9,0,0.00324536
0.8,1,0,0.00361225
0.8,1.1,0,0.00398506
0.8,1.2,0,0.00435863
0.8,1.3,0,0.00473446
0.8,1.4,0,0.00511485
0.8,1.5,0,0.00549486
0.8,1.6,0,0.00588257
0.8,1.7,0,0.00627047
0.8,1.8,0,0.00666241
0.8,1.9,0,0.00705814
0.8,2,0,0.00745419
0.8,2.1,0,0.00785825
0.8,2.2,0,0.00826167
0.8,2.3,0,0.00867056
0.8,2.4,0,0.00908099
0.8,2.5,0,0.00949274
0.8,2.6,0,0.00991064
0.8,2.7,0,0.0103267
0.8,2.8,0,0.010749
0.8,2.9,0,0.0111686
0.8,3,0,0.0115909
0.8,3.1,0,0.0120144
0.8,3.2,0,0.0124347
0.8,3.3,0,0.0128605
0.8,3.4,0,0.0132775
0.8,3.5,0,0.0136985
0.8,3.6,0,0.014112
0.8,3.7,0,0.0145208
0.8,3.8,0,0.0149326
0.8,3.9,0,0.0153274
0.8,4,0,0.0157274
0.8,4.1,0,0.0161072
0.8,4.2,0,0.0164813
0.8,4.3,0,0.0168529
0.8,4.4,0,0.0171988
0.8,4.5,0,0.0175503
0.8,4.6,0,0.0178663
0.8,4.7,0,0.0181762
0.8,4.8,0,0.0184753
0.8,4.9,0,0.0187298
0.8,5,0,0.0189829
0.8,5.1,0,0.0192236
0.8,5.2,0,0.019461
0.8,5.3,0,0.0196349
0.8,5.4,0,0.0198184
0.8,5.5,0,0.0199428
0.8,5.6,0,0.0200775
0.8,5.7,0,0.0201499
0.8,5.8,0,0.020233
0.8,5.9,0,0.020252
0.8,6,0,0.0202819
0.8,6.1,0,0.0202473
0.8,6.2,0,0.0202234
0.8,6.3,0,0.0201359
0.8,6.4,0,0.020059
0.8,6.5,0,0.0199209
0.8,6.6,0,0.0197927
0.8,6.7,0,0.0196069
0.8,6.8,0,0.0194304
0.8,6.9,0,0.0191862
0.8,7,0,0.0189301
0.8,7.1,0,0.0186876
0.8,7.2,0,0.0184371
0.8,7.3,0,0.0181559
0.8,7.4,0,0.0178397
0.8,7.5,0,0.0175265
0.8,7.6,0,0.0171903
0.8,7.7,0,0.0168399
0.8,7.8,0,0.0164915
0.8,7.9,0,0.0161197
0.8,8,0,0.0157461
0.8,8.1,0,0.0153713
0.8,8.2,0,0.0149793
0.8,8.3,0,0.014592
0.8,8.4,0,0.0142011
0.8,8.5,0,0.0138013
0.8,8.6,0,0.0134073
0.8,8.7,0,0.0130094
0.8,8.8,0,0.0126105
0.8,8.9,0,0.0122168
0.8,9,0,0.0118195
0.8,9.1,0,0.011428
0.8,9.2,0,0.0110397
0.8,9.3,0,0.01065
0.8,9.4,0,0.0102691
0.8,9.5,0,0.00989009
0.8,9.6,0,0.00951271
0.8,9.7,0,0.0091447
0.8,9.8,0,0.00877753
0.8,9.9,0,0.00841539
0.8,10,0,0.00806139
0.8,10.1,0,0.00770775
0.8,10.2,0,0.00736218
0.8,10.3,0,0.00702229
0.8,10.4,0,0.00668304
0.8,10.5,0,0.00635392
0.8,10.6,0,0.00602781
0.8,10.7,0,0.00570293
0.8,10.8,0,0.00538917
0.8,10.9,0,0.00507611
0.8,11,0,0.0047659
0.8,11.1,0,0.00446489
0.8,11.2,0,0.00416371
0.8,11.3,0,0.00386715
0.8,11.4,0,0.00357664
0.8,11.5,0,0.00328584
0.8,11.6,0,0.00300094
0.8,11.7,0,0.00271901
0.8,11.8,0,0.00243724
0.8,11.9,0,0.00216125
0.8,12,0,0.0018858
0.8,12.1,0,0.0016112
0.8,12.2,0,0.0013412
0.8,12.3,0,0.00107037
0.8,12.4,0,0.000800909
0.8,12.5,0,0.000534217
0.8,12.6,0,0.00026612
0.8,12.7,0,0
0.9,0,0,0
0.9,0.1,0,0.000354898
0.9,0.2,0,0.000709072
0.9,0.3,0,0.00106553
0.9,0.4,0,0.00142175
0.9,0.5,0,0.00177938
0.9,0.6,0,0.00214026
0.9,0.7,0,0.00250027
0.9,0.8,0,0.00286373
0.9,0.9,0,0.00322871
0.9,1,0,0.00359475
0.9,1.1,0,0.0039668
0.9,1.2,0,0.00433833
0.9,1.3,0,0.00471417
0.9,1.4,0,0.00509316
0.9,1.5,0,0.00547279
0.9,1.6,0,0.0058603
0.9,1.7,0,0.00624789
0.9,1.8,0,0.00663984
0.9,1.9,0,0.00703627
0.9,2,0,0.00743265
0.9,2.1,0,0.00783736
0.9,2.2,0,0.008243
0.9,2.3,0,0.00865189
0.9,2.4,0,0.00906599
0.9,2.5,0,0.00947907
0.9,2.6,0,0.00989876
0.9,2.7,0,0.0103205
0.9,2.8,0,0.0107427
0.9,2.9,0,0.0111699
0.9,3,0,0.0115947
0.9,3.1,0,0.0120214
0.9,3.2,0,0.0124514
0.9,3.3,0,0.0128772
0.9,3.4,0,0.0133061
0.9,3.5,0,0.013731
0.9,3.6,0,0.0141491
0.9,3.7,0,0.0145718
0.9,3.8,0,0.0149835
0.9,3.9,0,0.015394
0.9,4,0,0.0157992
0.9,4.1,0,0.0161847
0.9,4.2,0,0.0165756
0.9,4.3,0,0.0169472
0.9,4.4,0,0.0173108
0.9,4.5,0,0.0176679
0.9,4.6,0,0.01799
0.9,4.7,0,0.0183167
0.9,4.8,0,0.0186158
0.9,4.9,0,0.018892
0.9,5,0,0.0191436
0.9,5.1,0,0.0193938
0.9,5.2,0,0.0196375
0.9,5.3,0,0.0198127
0.9,5.4,0,0.0200071
0.9,5.5,0,0.0201308
0.9,5.6,0,0.0202751
0.9,5.7,0,0.0203448
0.9,5.8,0,0.0204358
0.9,5.9,0,0.0204501
0.9,6,0,0.020486
0.9,6.1,0,0.0204446
0.9,6.2,0,0.0204247
0.9,6.3,0,0.0203286
0.9,6.4,0,0.0202536
0.9,6.5,0,0.0201052
0.9,6.6,0,0.0199769
0.9,6.7,0,0.0197797
0.9,6.8,0,0.0196011
0.9,6.9,0,0.0193539
0.9,7,0,0.0190828
0.9,7.1,0,0.0188464
0.9,7.2,0,0.0185755
0.9,7.3,0,0.0182844
0.9,7.4,0,0.017964
0.9,7.5,0,0.0176295
0.9,7.6,0,0.017291
0.9,7.7,0,0.0169319
0.9,7.8,0,0.0165646
0.9,7.9,0,0.0161928
0.9,8,0,0.0158071
0.9,8.1,0,0.0154187
0.9,8.2,0,0.0150264
0.9,8.3,0,0.014625
0.9,8.4,0,0.0142257
0.9,8.5,0,0.0138244
0.9,8.6,0,0.0134172
0.9,8.7,0,0.0130148
0.9,8.8,0,0.0126135
0.9,8.9,0,0.0122091
0.9,9,0,0.0118095
0.9,9.1,0,0.011415
0.9,9.2,0,0.011019
0.9,9.3,0,0.0106284
0.9,9.4,0,0.0102442
0.9,9.5,0,0.00986059
0.9,9.6,0,0.00948305
0.9,9.7,0,0.00911187
0.9,9.8,0,0.00874284
0.9,9.9,0,0.0083807
0.9,10,0,0.00802431
0.9,10.1,0,0.00767066
0.9,10.2,0,0.00732494
0.9,10.3,0,0.00698402
0.9,10.4,0,0.00664572
0.9,10.5,0,0.00631636
0.9,10.6,0,0.00599087
0.9,10.7,0,0.00566715
0.9,10.8,0,0.00535327
0.9,10.9,0,0.0050423
0.9,11,0,0.00473302
0.9,11.1,0,0.0044322
0.9,11.2,0,0.00413425
0.9,11.3,0,0.00383826
0.9,11.4,0,0.00354874
0.9,11.5,0,0.00326166
0.9,11.6,0,0.00297686
0.9,11.7,0,0.00269697
0.9,11.8,0,0.00241857
0.9,11.9,0,0.00214259
0.9,12,0,0.00187029
0.9,12.1,0,0.0015984
0.9,12.2,0,0.00132868
0.9,12.3,0,0.00106185
0.9,12.4,0,0.0007943
0.9,12.5,0,0.000528261
0.9,12.6,0,0.000264628
0.9,12.7,0,0
1,0,0,0
1,0.1,0,0.000352727
1,0.2,0,0.000705454
1,0.3,0,0.00105939
1,0.4,0,0.00141453
1,0.5,0,0.00176968
1,0.6,0,0.00212857
1,0.7,0,0.00248747
1,0.8,0,0.00284899
1,0.9,0,0.00321312
1,1,0,0.00357726
1,1.1,0,0.00394803
1,1.2,0,0.0043188
1,1.3,0,0.00469349
1,1.4,0,0.00507211
1,1.5,0,0.00545072
1,1.6,0,0.00583811
1,1.7,0,0.00622551
1,1.8,0,0.00661759
1,1.9,0,0.00701435
1,2,0,0.00741111
1,2.1,0,0.0078174
1,2.2,0,0.00822368
1,2.3,0,0.00863454
1,2.4,0,0.00904997
1,2.5,0,0.0094654
1,2.6,0,0.00988891
1,2.7,0,0.0103124
1,2.8,0,0.010739
1,2.9,0,0.0111688
1,3,0,0.0115985
1,3.1,0,0.0120317
1,3.2,0,0.0124649
1,3.3,0,0.0128979
1,3.4,0,0.0133307
1,3.5,0,0.0137635
1,3.6,0,0.0141908
1,3.7,0,0.0146181
1,3.8,0,0.0150396
1,3.9,0,0.0154553
1,4,0,0.0158709
1,4.1,0,0.0162675
1,4.2,0,0.0166641
1,4.3,0,0.017047
1,4.4,0,0.0174163
1,4.5,0,0.0177855
1,4.6,0,0.0181183
1,4.7,0,0.0184511
1,4.8,0,0.0187549
1,4.9,0,0.0190296
1,5,0,0.0193044
1,5.1,0,0.0195592
1,5.2,0,0.0198141
1,5.3,0,0.0200049
1,5.4,0,0.0201958
1,5.5,0,0.0203342
1,5.6,0,0.0204727
1,5.7,0,0.0205557
1,5.8,0,0.0206387
1,5.9,0,0.0206644
1,6,0,0.0206901
1,6.1,0,0.0206581
1,6.2,0,0.020626
1,6.3,0,0.0205371
1,6.4,0,0.0204481
1,6.5,0,0.0203046
1,6.6,0,0.0201611
1,6.7,0,0.0199664
1,6.8,0,0.0197717
1,6.9,0,0.0195036
1,7,0,0.0192356
1,7.1,0,0.0189638
1,7.2,0,0.018692
1,7.3,0,0.0184103
1,7.4,0,0.0180727
1,7.5,0,0.0177351
1,7.6,0,0.017387
1,7.7,0,0.0170147
1,7.8,0,0.0166425
1,7.9,0,0.0162599
1,8,0,0.0158648
1,8.1,0,0.0154697
1,8.2,0,0.0150673
1,8.3,0,0.0146599
1,8.4,0,0.0142525
1,8.5,0,0.0138426
1,8.6,0,0.0134318
1,8.7,0,0.013021
1,8.8,0,0.0126134
1,8.9,0,0.0122062
1,9,0,0.0117994
1,9.1,0,0.0114009
1,9.2,0,0.0110024
1,9.3,0,0.0106065
1,9.4,0,0.0102203
1,9.5,0,0.00983423
1,9.6,0,0.00945322
1,9.7,0,0.00908167
1,9.8,0,0.00871012
1,9.9,0,0.00834639
1,10,0,0.00799048
1,10.1,0,0.00763457
1,10.2,0,0.00728895
1,10.3,0,0.00694887
1,10.4,0,0.00660878
1,10.5,0,0.00628095
1,10.6,0,0.00595618
1,10.7,0,0.00563141
1,10.8,0,0.00532019
1,10.9,0,0.00500968
1,11,0,0.00470046
1,11.1,0,0.00440278
1,11.2,0,0.0041051
1,11.3,0,0.00381019
1,11.4,0,0.00352361
1,11.5,0,0.00323703
1,11.6,0,0.00295412
1,11.7,0,0.0026767
1,11.8,0,0.00239928
1,11.9,0,0.00212575
1,12,0,0.0018554
1,12.1,0,0.00158505
1,12.2,0,0.00131817
1,12.3,0,0.00105277
1,12.4,0,0.000787366
1,12.5,0,0.000524601
1,12.6,0,0.000262301
1,12.7,0,0
1.1,0,0,0
1.1,0.1,0,0.000348743
1.1,0.2,0,0.000700048
1.1,0.3,0,0.00105086
1.1,0.4,0,0.0014043
1.1,0.5,0,0.00175654
1.1,0.6,0,0.00211239
1.1,0.7,0,0.00246994
1.1,0.8,0,0.00282876
1.1,0.9,0,0.00319156
1.1,1,0,0.00355335
1.1,1.1,0,0.00392196
1.1,1.2,0,0.0042918
1.1,1.3,0,0.00466481
1.1,1.4,0,0.00504266
1.1,1.5,0,0.00542007
1.1,1.6,0,0.00580675
1.1,1.7,0,0.00619394
1.1,1.8,0,0.00658596
1.1,1.9,0,0.00698286
1.1,2,0,0.00738018
1.1,2.1,0,0.00778795
1.1,2.2,0,0.0081951
1.1,2.3,0,0.00860826
1.1,2.4,0,0.00902514
1.1,2.5,0,0.00944365
1.1,2.6,0,0.0098717
1.1,2.7,0,0.0102975
1.1,2.8,0,0.0107297
1.1,2.9,0,0.0111626
1.1,3,0,0.0115987
1.1,3.1,0,0.0120403
1.1,3.2,0,0.0124776
1.1,3.3,0,0.0129199
1.1,3.4,0,0.013358
1.1,3.5,0,0.0138008
1.1,3.6,0,0.0142408
1.1,3.7,0,0.014674
1.1,3.8,0,0.0151087
1.1,3.9,0,0.0155316
1.1,4,0,0.0159605
1.1,4.1,0,0.0163733
1.1,4.2,0,0.016777
1.1,4.3,0,0.0171757
1.1,4.4,0,0.0175535
1.1,4.5,0,0.0179373
1.1,4.6,0,0.0182877
1.1,4.7,0,0.0186275
1.1,4.8,0,0.0189529
1.1,4.9,0,0.0192423
1.1,5,0,0.0195158
1.1,5.1,0,0.0197865
1.1,5.2,0,0.0200475
1.1,5.3,0,0.0202376
1.1,5.4,0,0.0204463
1.1,5.5,0,0.0205809
1.1,5.6,0,0.0207357
1.1,5.7,0,0.0208119
1.1,5.8,0,0.0209091
1.1,5.9,0,0.020925
1.1,6,0,0.0209624
1.1,6.1,0,0.0209177
1.1,6.2,0,0.0208944
1.1,6.3,0,0.0207904
1.1,6.4,0,0.0207071
1.1,6.5,0,0.0205465
1.1,6.6,0,0.0204056
1.1,6.7,0,0.0201925
1.1,6.8,0,0.0199973
1.1,6.9,0,0.0197314
1.1,7,0,0.0194364
1.1,7.1,0,0.0191777
1.1,7.2,0,0.0188954
1.1,7.3,0,0.018576
1.1,7.4,0,0.0182279
1.1,7.5,0,0.0178803
1.1,7.6,0,0.0175126
1.1,7.7,0,0.01713
1.1,7.8,0,0.0167456
1.1,7.9,0,0.016346
1.1,8,0,0.0159421
1.1,8.1,0,0.015534
1.1,8.2,0,0.0151172
1.1,8.3,0,0.0147032
1.1,8.4,0,0.0142831
1.1,8.5,0,0.0138613
1.1,8.6,0,0.0134457
1.1,8.7,0,0.013024
1.1,8.8,0,0.0126067
1.1,8.9,0,0.0121957
1.1,9,0,0.0117812
1.1,9.1,0,0.0113748
1.1,9.2,0,0.0109739
1.1,9.3,0,0.0105728
1.1,9.4,0,0.0101808
1.1,9.5,0,0.00979343