/*--------------------------------*- C++ -*----------------------------------*\
| =========                 |                                                 |
| \\      /  F ield         | OpenFOAM: The Open Source CFD Toolbox           |
|  \\    /   O peration     | Version:  v1806                                 |
|   \\  /    A nd           | Web:      www.OpenFOAM.com                      |
|    \\/     M anipulation  |                                                 |
\*---------------------------------------------------------------------------*/
FoamFile
{
    version     2.0;
    format      ascii;
    class       surfaceScalarField;
    location    "220";
    object      phi;
}
// * * * * * * * * * * * * * * * * * * * * * * * * * * * * * * * * * * * * * //

dimensions      [0 3 -1 0 0 0 0];
oriented        oriented;


internalField   nonuniform List<scalar> 
8600
(
0.0515671
-0.0710517
-0.0488377
0.0683223
0.0422392
-0.0805581
0.089886
0.0317346
-0.0846287
0.0951333
0.024624
-0.0878442
0.0949548
0.020208
-0.0897512
0.0941672
0.0173055
-0.0906753
0.0935777
0.0152816
-0.0910245
0.0930484
0.0137881
-0.0910361
0.0925296
0.0126278
-0.0908516
0.0920119
0.0116916
-0.090553
0.0914892
0.0109188
-0.0901845
0.0909573
0.0102734
-0.0897712
0.0904166
0.00973232
-0.089329
0.0898701
0.00927987
-0.0888687
0.0893212
0.00890476
-0.0883975
0.0887726
0.00859872
-0.08792
0.088226
0.00835558
-0.0874392
0.0876823
0.00817029
-0.0869583
0.0871435
0.00803798
-0.0864891
0.0866214
-0.0860957
0.0861826
0.028273
-0.0656823
-0.0336425
0.0232971
-0.0755822
0.0208221
-0.0821537
0.0190813
-0.0861033
0.0174531
-0.088123
0.015909
-0.0891311
0.0145092
-0.0896247
0.0132932
-0.0898201
0.0122602
-0.0898187
0.0113886
-0.0896814
0.0106535
-0.0894493
0.0100332
-0.0891509
0.00951079
-0.0888066
0.00907299
-0.0884309
0.00870981
-0.0880343
0.00841371
-0.0876239
0.00817897
-0.0872045
0.00800131
-0.0867806
0.00787663
-0.0863644
-0.0860116
0.0250349
-0.0675031
-0.023214
0.0246192
-0.0751665
0.0225198
-0.0800543
0.0198243
-0.0834078
0.017399
-0.0856978
0.0154689
-0.087201
0.0139646
-0.0881205
0.0127689
-0.0886243
0.0117931
-0.0888428
0.0109801
-0.0888685
0.0102946
-0.0887638
0.00971353
-0.0885699
0.00922149
-0.0883146
0.0088073
-0.0880168
0.00846265
-0.0876897
0.00818126
-0.0873425
0.0079584
-0.0869816
0.00779045
-0.0866126
0.00767331
-0.0862472
-0.0859352
0.0174091
-0.0695542
-0.0153581
0.0172382
-0.0749956
0.0164826
-0.0792987
0.0156233
-0.0825485
0.0147245
-0.084799
0.013784
-0.0862605
0.0128485
-0.0871849
0.0119682
-0.0877441
0.0111723
-0.0880469
0.0104693
-0.0881656
0.00985678
-0.0881512
0.0093276
-0.0880407
0.00887416
-0.0878611
0.00848953
-0.0876321
0.00816792
-0.0873681
0.00790465
-0.0870792
0.0076961
-0.086773
0.00753931
-0.0864559
0.00743092
-0.0861388
-0.0858663
0.0141433
-0.0723127
-0.0113848
0.0152651
-0.0761173
0.0153433
-0.0793769
0.0147444
-0.0819496
0.0138396
-0.0838943
0.0128903
-0.0853112
0.0120063
-0.0863009
0.0112153
-0.0869531
0.0105154
-0.0873469
0.00989834
-0.0875486
0.00935644
-0.0876093
0.00888331
-0.0875676
0.00847376
-0.0874516
0.00812343
-0.0872818
0.00782865
-0.0870733
0.00758639
-0.086837
0.00739419
-0.0865808
0.00724997
-0.0863116
0.00715109
-0.08604
-0.0858048
0.0107874
-0.0745589
-0.00854118
0.0118667
-0.0771966
0.0122031
-0.0797133
0.0121233
-0.0818698
0.0118142
-0.0835851
0.0113684
-0.0848654
0.0108474
-0.08578
0.0103011
-0.0864068
0.00976555
-0.0868114
0.00926243
-0.0870454
0.00880286
-0.0871497
0.00839144
-0.0871562
0.00802929
-0.0870894
0.00771591
-0.0869684
0.0074501
-0.0868075
0.00723052
-0.0866174
0.00705591
-0.0864062
0.00692505
-0.0861808
0.00683599
-0.0859509
-0.0857504
0.00871962
-0.0766143
-0.0066642
0.0100089
-0.0784859
0.0106542
-0.0803586
0.0108149
-0.0820305
0.0106546
-0.0834249
0.010318
-0.0845288
0.00990112
-0.085363
0.00945885
-0.0859645
0.00902094
-0.0863735
0.0086036
-0.0866281
0.00821595
-0.0867621
0.00786322
-0.0868034
0.00754831
-0.0867745
0.00727265
-0.0866928
0.0070368
-0.0865716
0.00684081
-0.0864214
0.00668447
-0.0862499
0.00656736
-0.0860637
0.0064882
-0.0858717
-0.0857031
0.00700795
-0.0782776
-0.00534469
0.00813649
-0.0796144
0.00879973
-0.0810218
0.00911031
-0.082341
0.00917043
-0.083485
0.00906056
-0.0844189
0.00884061
-0.0851431
0.00855544
-0.0856794
0.00823896
-0.086057
0.00791546
-0.0863046
0.00760124
-0.0864479
0.00730673
-0.0865089
0.00703836
-0.0865061
0.00680001
-0.0864544
0.00659396
-0.0863656
0.00642154
-0.086249
0.00628348
-0.0861118
0.00618007
-0.0859603
0.0061106
-0.0858023
-0.0856623
0.00575575
-0.0797187
-0.00431469
0.00682602
-0.0806847
0.00753194
-0.0817278
0.00792609
-0.0827352
0.00807731
-0.0836362
0.00805548
-0.0843971
0.0079212
-0.0850088
0.00771936
-0.0854775
0.00748109
-0.0858187
0.00722792
-0.0860514
0.00697475
-0.0861947
0.00673193
-0.0862661
0.00650659
-0.0862808
0.0063036
-0.0862514
0.00612624
-0.0861882
0.00597671
-0.0860994
0.00585647
-0.0859916
0.00576636
-0.0858702
0.00570618
-0.0857421
-0.0856276
0.00475147
-0.080901
-0.00356909
0.00566993
-0.0816031
0.00632148
-0.0823793
0.00673625
-0.08315
0.00695776
-0.0838577
0.00703022
-0.0844696
0.00699348
-0.0849721
0.00688163
-0.0853657
0.00672204
-0.0856591
0.00653598
-0.0858654
0.00633948
-0.0859982
0.00614424
-0.0860709
0.00595863
-0.0860952
0.00578855
-0.0860813
0.00563814
-0.0860378
0.00551028
-0.0859716
0.00540695
-0.0858883
0.00532946
-0.0857927
0.005278
-0.0856906
-0.0855986
0.00394368
-0.0819108
-0.00293388
0.00475952
-0.082419
0.00536873
-0.0829885
0.00578387
-0.0835651
0.00603193
-0.0841058
0.00614585
-0.0845835
0.00615864
-0.0849849
0.00609955
-0.0853066
0.00599259
-0.0855522
0.00585646
-0.0857292
0.0057055
-0.0858472
0.00555057
-0.085916
0.00539986
-0.0859445
0.0052594
-0.0859409
0.00513364
-0.0859121
0.00502581
-0.0858638
0.00493823
-0.0858007
0.00487247
-0.0857269
0.00482904
-0.0856472
-0.0855745
0.00328238
-0.0827451
-0.00244815
0.0039747
-0.0831113
0.00451287
-0.0835267
0.00490149
-0.0839537
0.00515664
-0.0843609
0.00529986
-0.0847267
0.00535394
-0.0850389
0.00534058
-0.0852932
0.00527911
-0.0854907
0.00518587
-0.085636
0.00507406
-0.0857354
0.00495408
-0.085796
0.00483397
-0.0858244
0.00471983
-0.0858267
0.00461625
-0.0858085
0.0045266
-0.0857741
0.0044534
-0.0857275
0.00439835
-0.0856719
0.00436219
-0.085611
-0.085555
0.00271854
-0.0834477
-0.00201591
0.00331329
-0.0837061
0.00378818
-0.0840016
0.00414357
-0.0843091
0.00438901
-0.0846064
0.00453953
-0.0848772
0.00461251
-0.0851119
0.00462531
-0.085306
0.00459376
-0.0854592
0.00453158
-0.0855738
0.00445014
-0.085654
0.00435864
-0.0857045
0.00426436
-0.0857301
0.00417299
-0.0857354
0.00408894
-0.0857244
0.00401552
-0.0857007
0.00395522
-0.0856672
0.00390981
-0.0856264
0.00388015
-0.0855814
-0.0855393
0.00223919
-0.0840228
-0.00166408
0.00273409
-0.084201
0.00313862
-0.0844061
0.00345093
-0.0846214
0.0036762
-0.0848316
0.00382425
-0.0850253
0.00390722
-0.0851949
0.00393793
-0.0853367
0.00392872
-0.08545
0.00389076
-0.0855358
0.00383371
-0.0855969
0.00376563
-0.0856364
0.00369307
-0.0856575
0.00362123
-0.0856635
0.00355418
-0.0856574
0.00349504
-0.0856416
0.0034462
-0.0856183
0.00340935
-0.0855896
0.00338542
-0.0855575
-0.085527
0.00181289
-0.0844933
-0.00134238
0.00222214
-0.0846102
0.00256166
-0.0847456
0.00282909
-0.0848889
0.00302735
-0.0850299
0.00316304
-0.085161
0.00324503
-0.0852769
0.00328307
-0.0853748
0.00328685
-0.0854537
0.00326531
-0.0855143
0.00322633
-0.085558
0.00317666
-0.0855867
0.00312185
-0.0856027
0.00306643
-0.0856081
0.00301397
-0.0856049
0.00296728
-0.0855949
0.00292851
-0.0855795
0.00289921
-0.0855603
0.00288028
-0.0855385
-0.0855175
0.00143453
-0.0848637
-0.00106413
0.00175995
-0.0849356
0.00203369
-0.0850194
0.00225314
-0.0851083
0.00241956
-0.0851963
0.00253722
-0.0852786
0.00261225
-0.0853519
0.0026517
-0.0854142
0.00266281
-0.0854648
0.00265249
-0.085504
0.00262702
-0.0855325
0.00259182
-0.0855515
0.00255151
-0.0855624
0.00250985
-0.0855665
0.00246989
-0.0855649
0.002434
-0.085559
0.00240404
-0.0855496
0.00238136
-0.0855376
0.0023668
-0.085524
-0.0855105
0.00108521
-0.0851459
-0.000803002
0.00133467
-0.0851851
0.00154615
-0.0852309
0.00171748
-0.0852796
0.0018493
-0.0853281
0.00194439
-0.0853737
0.00200701
-0.0854145
0.00204221
-0.0854494
0.00205531
-0.0854779
0.00205145
-0.0855001
0.00203536
-0.0855164
0.00201122
-0.0855274
0.00198258
-0.0855338
0.00195242
-0.0855363
0.00192314
-0.0855357
0.00189664
-0.0855325
0.00187443
-0.0855274
0.00185758
-0.0855208
0.00184683
-0.0855132
-0.0855056
0.000761226
-0.0853431
-0.00056402
0.000936737
-0.0853606
0.00108649
-0.0853806
0.00120885
-0.085402
0.00130403
-0.0854233
0.00137373
-0.0854434
0.00142066
-0.0854615
0.00144819
-0.0854769
0.00145988
-0.0854896
0.00145929
-0.0854995
0.00144972
-0.0855068
0.00143413
-0.0855118
0.00141505
-0.0855147
0.00139463
-0.0855159
0.00137462
-0.0855156
0.00135641
-0.0855143
0.00134108
-0.085512
0.00132944
-0.0855092
0.00132204
-0.0855058
-0.0855023
0.000451521
-0.0854618
-0.000332812
0.000556457
-0.0854655
0.000646149
-0.0854703
0.000719698
-0.0854755
0.000777209
-0.0854808
0.000819617
-0.0854858
0.000848475
-0.0854903
0.000865721
-0.0854942
0.00087345
-0.0854974
0.000873754
-0.0854998
0.000868591
-0.0855017
0.000859724
-0.0855029
0.00084868
-0.0855036
0.000836751
-0.0855039
0.000825003
-0.0855039
0.000814285
-0.0855036
0.000805251
-0.085503
0.000798382
-0.0855023
0.000794014
-0.0855014
-0.0855005
0.000150831
-0.000112663
0.000185294
0.000214991
0.000239446
0.000258619
0.000272791
0.000282465
0.000288275
0.000290914
0.000291071
0.000289399
0.000286486
0.00028284
0.000278894
0.000275001
0.000271444
0.000268444
0.000266162
0.000264721
-0.0384675
-0.0070326
0.0455001
-0.0323543
-0.00611321
-0.0268972
-0.0054571
-0.0219444
-0.00495273
-0.0173878
-0.00455662
-0.0131404
-0.0042474
-0.00912836
-0.00401204
-0.00528736
-0.003841
-0.00155955
-0.00372781
0.00210876
-0.00366831
0.00576908
-0.00366032
0.00947253
-0.00370345
0.0132717
-0.00379915
0.0172226
-0.00395089
0.0213873
-0.00416471
0.0258374
-0.00445015
0.0306591
-0.0048217
0.0359644
-0.0053053
0.0419188
-0.00595438
-0.00691884
-0.0239982
-0.00909573
0.0260613
-0.0214785
-0.00863291
-0.0187122
-0.00822339
-0.0157913
-0.00787367
-0.0127658
-0.00758212
-0.00966762
-0.00734557
-0.00651878
-0.00716088
-0.00333445
-0.00702533
-0.000125414
-0.00693684
0.00310031
-0.00689403
0.0063362
-0.0068962
0.00957612
-0.00694337
0.0128133
-0.00703628
0.0160389
-0.00717652
0.0192409
-0.00736669
0.0224015
-0.0076108
0.0254945
-0.00791474
0.0284767
-0.00828747
0.0312669
-0.00874454
-0.00929443
-0.0152946
-0.0103519
0.0165508
-0.0137983
-0.0101292
-0.0120966
-0.00992505
-0.0102279
-0.00974242
-0.00822647
-0.00958354
-0.00612181
-0.00945023
-0.00393873
-0.00934397
-0.00169819
-0.00926587
0.000581715
-0.00921675
0.00288491
-0.00919722
0.0051964
-0.0092077
0.0075015
-0.00924847
0.00978495
-0.00931974
0.01203
-0.00942159
0.0142174
-0.00955405
0.0163237
-0.00971706
0.0183195
-0.00991056
0.020167
-0.010135
0.0218146
-0.0103922
-0.0106938
-0.0091492
-0.0113432
0.0101404
-0.00807155
-0.0112068
-0.00691502
-0.0110816
-0.00568784
-0.0109696
-0.00439873
-0.0108727
-0.00305688
-0.0107921
-0.00167201
-0.0107288
-0.000254174
-0.0106837
0.00118627
-0.0106572
0.00263878
-0.0106497
0.00409264
-0.0106616
0.00553696
-0.0106928
0.00696074
-0.0107435
0.00835276
-0.0108136
0.00970168
-0.010903
0.0109959
-0.0110113
0.0122237
-0.0111383
0.0133724
-0.0112836
0.0144275
-0.0114473
-0.0116244
-0.00641967
-0.0120816
0.00715811
-0.00562233
-0.0120042
-0.00476994
-0.011934
-0.00386775
-0.0118718
-0.00292199
-0.0118184
-0.00193948
-0.0117746
-0.000927422
-0.0117409
0.000106756
-0.0117179
0.00115549
-0.0117059
0.00221111
-0.0117054
0.00326586
-0.0117163
0.00431191
-0.0117388
0.00534131
-0.0117729
0.00634598
-0.0118183
0.00731767
-0.0118747
0.00824797
-0.0119416
0.00912827
-0.0120186
0.0099497
-0.0121051
0.0107028
-0.0122004
-0.0123064
-0.00431908
-0.0126764
0.00491387
-0.0036972
-0.0126261
-0.00305047
-0.0125807
-0.00238141
-0.0125408
-0.00169282
-0.012507
-0.000987785
-0.0124796
-0.000269623
-0.0124591
0.00045811
-0.0124456
0.00119169
-0.0124395
0.00192724
-0.0124409
0.00266082
-0.0124499
0.00338843
-0.0124665
0.00410611
-0.0124906
0.00480995
-0.0125221
0.00549619
-0.0125609
0.00616122
-0.0126067
0.00680167
-0.0126591
0.00741435
-0.0127178
0.00799634
-0.0127824
-0.0128513
-0.00318424
-0.0131396
0.00364742
-0.00270215
-0.0131082
-0.00220257
-0.0130803
-0.00168725
-0.0130562
-0.0011582
-0.0130361
-0.000617657
-0.0130202
-6.80485e-05
-0.0130087
0.000488044
-0.0130017
0.00104792
-0.0129994
0.00160882
-0.0130018
0.00216789
-0.013009
0.00272229
-0.0130209
0.00326917
-0.0130375
0.00380572
-0.0130587
0.00432918
-0.0130844
0.0048369
-0.0131144
0.00532634
-0.0131485
0.00579512
-0.0131865
0.00624099
-0.0132283
-0.0132745
-0.00232947
-0.0135182
0.00270813
-0.00194062
-0.013497
-0.00154263
-0.0134783
-0.0011366
-0.0134622
-0.000723737
-0.0134489
-0.000305316
-0.0134386
0.000117326
-0.0134313
0.000542795
-0.0134272
0.000969652
-0.0134262
0.00139643
-0.0134286
0.00182164
-0.0134342
0.0022438
-0.013443
0.00266145
-0.0134551
0.00307316
-0.0134704
0.00347754
-0.0134888
0.00387329
-0.0135101
0.00425915
-0.0135344
0.00463395
-0.0135613
0.0049966
-0.0135909
-0.0136226
-0.00178603
-0.0138224
0.00209023
-0.00147467
-0.0138084
-0.00115683
-0.0137961
-0.000833302
-0.0137857
-0.000504923
-0.0137773
-0.000172607
-0.0137709
0.000162674
-0.0137666
0.000499904
-0.0137644
0.000838031
-0.0137644
0.00117598
-0.0137665
0.00151266
-0.0137708
0.00184698
-0.0137773
0.00217785
-0.013786
0.00250423
-0.0137968
0.00282507
-0.0138096
0.00313939
-0.0138244
0.00344627
-0.0138412
0.00374483
-0.0138599
0.00403427
-0.0138804
-0.013903
-0.00137828
-0.0140744
0.00163023
-0.00112198
-0.0140647
-0.000861839
-0.0140562
-0.000598397
-0.0140492
-0.000332221
-0.0140435
-6.38972e-05
-0.0140392
0.000205966
-0.0140365
0.000476747
-0.0140352
0.000747813
-0.0140354
0.00101852
-0.0140372
0.00128824
-0.0140406
0.00155631
-0.0140454
0.00182212
-0.0140518
0.00208504
-0.0140597
0.00234448
-0.014069
0.00259984
-0.0140798
0.00285056
-0.014092
0.00309611
-0.0141055
0.00333597
-0.0141202
-0.0141361
-0.00108668
-0.0142805
0.00129283
-0.000877425
-0.0142739
-0.000665442
-0.0142682
-0.00045111
-0.0142635
-0.000234835
-0.0142598
-1.70438e-05
-0.014257
0.000201819
-0.0142553
0.000421297
-0.0142547
0.000640922
-0.0142551
0.000860218
-0.0142565
0.00107871
-0.014259
0.00129592
-0.0142626
0.00151138
-0.0142673
0.00172462
-0.0142729
0.00193519
-0.0142796
0.00214266
-0.0142873
0.00234661
-0.0142959
0.00254666
-0.0143055
0.00274242
-0.014316
-0.0143276
-0.000862908
-0.014452
0.00103436
-0.000689408
-0.0144474
-0.000514126
-0.0144435
-0.000337342
-0.0144403
-0.000159345
-0.0144378
1.95689e-05
-0.0144359
0.000199096
-0.0144348
0.000378927
-0.0144345
0.000558751
-0.0144349
0.000738254
-0.014436
0.000917121
-0.0144379
0.00109504
-0.0144405
0.0012717
-0.0144439
0.0014468
-0.014448
0.00162004
-0.0144528
0.00179113
-0.0144584
0.00195978
-0.0144646
0.00212571
-0.0144714
0.00228867
-0.0144789
-0.0144871
-0.000689018
-0.0145927
0.000829694
-0.000546869
-0.0145896
-0.000403442
-0.0145869
-0.000258942
-0.0145848
-0.000113579
-0.0145831
3.24267e-05
-0.0145819
0.000178851
-0.0145813
0.000325464
-0.0145811
0.000472034
-0.0145815
0.000618327
-0.0145823
0.000764107
-0.0145837
0.000909141
-0.0145856
0.0010532
-0.014588
0.00119605
-0.0145909
0.00133747
-0.0145943
0.00147724
-0.0145981
0.00161516
-0.0146025
0.00175101
-0.0146073
0.00188462
-0.0146125
-0.0146184
-0.000549815
-0.0147084
0.000665515
-0.000433085
-0.0147063
-0.000315471
-0.0147046
-0.000197126
-0.0147031
-7.82064e-05
-0.014702
4.11296e-05
-0.0147013
0.00016072
-0.0147009
0.000280401
-0.0147008
0.000400007
-0.0147011
0.000519374
-0.0147017
0.000638334
-0.0147027
0.000756724
-0.014704
0.000874379
-0.0147056
0.000991138
-0.0147076
0.00110684
-0.01471
0.00122133
-0.0147126
0.00133446
-0.0147156
0.00144607
-0.0147189
0.00155603
-0.0147225
-0.0147264
-0.000434428
-0.0148015
0.000527525
-0.000340589
-0.0148001
-0.000246115
-0.014799
-0.000151119
-0.0147981
-5.57153e-05
-0.0147974
3.9978e-05
-0.014797
0.000135841
-0.0147967
0.000231753
-0.0147967
0.000327591
-0.0147969
0.000423231
-0.0147973
0.000518552
-0.014798
0.000613429
-0.0147989
0.000707741
-0.0147999
0.000801369
-0.0148013
0.000894193
-0.0148028
0.000986098
-0.0148045
0.00107697
-0.0148065
0.00116671
-0.0148086
0.00125519
-0.014811
-0.0148136
-0.000336907
-0.014875
0.000410496
-0.000262792
-0.0148743
-0.000188231
-0.0148736
-0.000113306
-0.014873
-3.81028e-05
-0.0148726
3.72935e-05
-0.0148724
0.000112796
-0.0148722
0.000188316
-0.0148722
0.000263767
-0.0148724
0.000339059
-0.0148726
0.000414105
-0.014873
0.000488815
-0.0148736
0.000563103
-0.0148742
0.000636882
-0.014875
0.000710066
-0.014876
0.000782571
-0.014877
0.000854315
-0.0148782
0.000925215
-0.0148795
0.000995195
-0.014881
-0.0148825
-0.00025121
-0.0149305
0.000306655
-0.000195398
-0.0149301
-0.000139275
-0.0149297
-8.29018e-05
-0.0149294
-2.63368e-05
-0.0149292
3.03585e-05
-0.0149291
8.71222e-05
-0.014929
0.000143892
-0.014929
0.000200605
-0.0149291
0.000257199
-0.0149292
0.00031361
-0.0149294
0.000369776
-0.0149297
0.000425635
-0.0149301
0.000481124
-0.0149305
0.000536184
-0.014931
0.000590754
-0.0149316
0.000644775
-0.0149322
0.00069819
-0.014933
0.000750943
-0.0149337
-0.0149346
-0.000174268
-0.0149694
0.000213152
-0.000135141
-0.0149692
-9.5811e-05
-0.014969
-5.63174e-05
-0.0149689
-1.67007e-05
-0.0149688
2.29981e-05
-0.0149688
6.27376e-05
-0.0149687
0.000102476
-0.0149687
0.000142171
-0.0149688
0.000181782
-0.0149688
0.000221265
-0.0149689
0.00026058
-0.014969
0.000299684
-0.0149692
0.000338536
-0.0149694
0.000377095
-0.0149696
0.000415321
-0.0149698
0.000453171
-0.0149701
0.000490605
-0.0149704
0.00052758
-0.0149707
-0.014971
-0.000102564
-0.0149923
0.000125515
-7.94752e-05
-0.0149923
-5.62717e-05
-0.0149922
-3.29762e-05
-0.0149922
-9.61201e-06
-0.0149922
1.37971e-05
-0.0149922
3.72272e-05
-0.0149922
6.06539e-05
-0.0149922
8.40531e-05
-0.0149922
0.0001074
-0.0149922
0.000130671
-0.0149922
0.000153842
-0.0149922
0.000176888
-0.0149922
0.000199786
-0.0149923
0.000222512
-0.0149923
0.000245043
-0.0149924
0.000267356
-0.0149924
0.000289428
-0.0149925
0.000311232
-0.0149925
-0.0149926
-3.40333e-05
4.17055e-05
-2.63151e-05
-1.85575e-05
-1.07679e-05
-2.95367e-06
4.87807e-06
1.272e-05
2.05649e-05
2.84057e-05
3.62355e-05
4.40476e-05
5.18355e-05
5.95935e-05
6.7316e-05
7.49985e-05
8.26372e-05
9.02294e-05
9.77738e-05
0.000105271
-0.024886
-0.0144632
0.0153603
0.0239889
-0.0258829
-0.0143797
0.0153766
-0.0270301
-0.0142791
0.0154263
-0.0283464
-0.0141755
0.0154918
-0.0298465
-0.0140717
0.0155718
-0.0315383
-0.0139704
0.0156622
-0.0334195
-0.0138737
0.0157549
-0.0354742
-0.0137821
0.0158367
-0.03767
-0.0136933
0.0158892
-0.0399562
-0.0136021
0.0158883
-0.0422633
-0.0134984
0.0158055
-0.044504
-0.0133677
0.0156084
-0.0465761
-0.01319
0.0152622
-0.0483667
-0.0129407
0.0147313
-0.0497555
-0.012591
0.0139798
-0.0506161
-0.0121095
0.0129701
-0.0508108
-0.0114655
0.0116602
-0.050178
-0.0106304
0.00999764
-0.0485193
-0.00957109
0.00791241
-0.00824512
0.00522585
-0.0179609
-0.014265
0.0177627
-0.0181721
-0.0141684
-0.0183873
-0.0140639
-0.0186186
-0.0139442
-0.0188821
-0.0138082
-0.0191974
-0.0136551
-0.0195867
-0.0134845
-0.020072
-0.0132967
-0.0206727
-0.0130927
-0.021401
-0.0128738
-0.0222577
-0.0126417
-0.0232283
-0.0123972
-0.0242784
-0.01214
-0.0253513
-0.0118678
-0.026366
-0.0115762
-0.0272169
-0.0112586
-0.0277757
-0.0109067
-0.0278946
-0.0105116
-0.0273985
-0.0100671
-0.00958228
-0.0191253
-0.013962
0.0188223
-0.0194146
-0.0138791
-0.0196911
-0.0137874
-0.0199456
-0.0136897
-0.0201691
-0.0135847
-0.0203531
-0.0134711
-0.0204902
-0.0133474
-0.0205749
-0.0132119
-0.0206045
-0.013063
-0.020579
-0.0128994
-0.0205005
-0.0127201
-0.0203728
-0.0125249
-0.0201987
-0.0123141
-0.0199776
-0.012089
-0.0197022
-0.0118516
-0.0193563
-0.0116045
-0.0189121
-0.0113508
-0.0183296
-0.0110941
-0.0175581
-0.0108386
-0.0105896
-0.0141165
-0.0138715
0.014026
-0.0142127
-0.0137828
-0.0143104
-0.0136897
-0.0144082
-0.0135919
-0.0145033
-0.0134896
-0.0145914
-0.013383
-0.0146665
-0.0132723
-0.0147207
-0.0131578
-0.0147444
-0.0130394
-0.0147266
-0.0129172
-0.0146557
-0.012791
-0.0145199
-0.0126607
-0.0143079
-0.012526
-0.0140102
-0.0123867
-0.0136188
-0.012243
-0.0131282
-0.0120951
-0.012535
-0.011944
-0.0118381
-0.011791
-0.0110387
-0.0116381
-0.0114879
-0.012915
-0.0139043
0.0129478
-0.0128618
-0.0138361
-0.0127878
-0.0137636
-0.0126921
-0.0136876
-0.0125737
-0.013608
-0.0124319
-0.0135248
-0.0122663
-0.0134379
-0.0120765
-0.0133476
-0.011862
-0.0132539
-0.011622
-0.0131572
-0.0113551
-0.013058
-0.011059
-0.0129567
-0.0107309
-0.0128541
-0.0103667
-0.0127509
-0.00996177
-0.0126479
-0.00951103
-0.0125458
-0.00900933
-0.0124457
-0.00845202
-0.0123483
-0.00783558
-0.0122545
-0.0121653
-0.0103191
-0.0139599
0.0103747
-0.0102533
-0.0139019
-0.0101749
-0.013842
-0.0100817
-0.0137808
-0.00997145
-0.0137183
-0.00984167
-0.0136546
-0.00968985
-0.0135897
-0.00951348
-0.0135239
-0.00931013
-0.0134572
-0.00907757
-0.0133898
-0.00881382
-0.0133217
-0.0085173
-0.0132533
-0.00818681
-0.0131846
-0.00782164
-0.0131161
-0.00742149
-0.013048
-0.00698652
-0.0129808
-0.00651724
-0.012915
-0.00601454
-0.012851
-0.00547959
-0.0127895
-0.0127311
-0.00882264
-0.0140762
0.00893896
-0.00869358
-0.014031
-0.00855116
-0.0139845
-0.00839511
-0.0139369
-0.0082251
-0.0138883
-0.0080408
-0.0138389
-0.00784183
-0.0137887
-0.00762773
-0.013738
-0.007398
-0.0136869
-0.00715203
-0.0136357
-0.00688914
-0.0135846
-0.00660857
-0.0135338
-0.00630954
-0.0134837
-0.00599126
-0.0134344
-0.00565298
-0.0133863
-0.0052941
-0.0133397
-0.00491416
-0.0132949
-0.00451296
-0.0132522
-0.00409058
-0.0132119
-0.0131742
-0.00731633
-0.0141891
0.00742915
-0.00719355
-0.0141538
-0.00706023
-0.0141178
-0.00691562
-0.0140815
-0.00675897
-0.0140449
-0.00658961
-0.0140082
-0.00640689
-0.0139714
-0.00621027
-0.0139346
-0.00599927
-0.013898
-0.00577351
-0.0138615
-0.00553275
-0.0138254
-0.00527684
-0.0137897
-0.00500577
-0.0137547
-0.00471966
-0.0137205
-0.00441875
-0.0136872
-0.00410337
-0.0136551
-0.003774
-0.0136243
-0.00343121
-0.013595
-0.00307567
-0.0135674
-0.0135418
-0.0061588
-0.0143139
0.00628366
-0.00602596
-0.0142866
-0.00588469
-0.014259
-0.00573485
-0.0142313
-0.00557631
-0.0142035
-0.00540893
-0.0141756
-0.00523259
-0.0141478
-0.00504716
-0.0141201
-0.00485251
-0.0140926
-0.00464853
-0.0140655
-0.0044351
-0.0140388
-0.00421214
-0.0140127
-0.00397961
-0.0139873
-0.00373749
-0.0139626
-0.00348581
-0.0139389
-0.00322468
-0.0139162
-0.00295427
-0.0138947
-0.00267482
-0.0138744
-0.00238666
-0.0138556
-0.0138382
-0.00517757
-0.014429
0.0052927
-0.00505568
-0.0144085
-0.00492699
-0.0143877
-0.00479129
-0.014367
-0.00464841
-0.0143464
-0.00449819
-0.0143258
-0.00434052
-0.0143054
-0.00417531
-0.0142853
-0.00400251
-0.0142654
-0.00382212
-0.0142459
-0.00363416
-0.0142268
-0.00343873
-0.0142081
-0.00323594
-0.01419
-0.00302597
-0.0141726
-0.00280903
-0.0141558
-0.00258538
-0.0141399
-0.00235531
-0.0141247
-0.00211918
-0.0141106
-0.00187734
-0.0140974
-0.0140853
-0.00434495
-0.0145385
0.00445436
-0.00423054
-0.0145229
-0.00411091
-0.0145074
-0.00398604
-0.0144919
-0.00385588
-0.0144765
-0.00372043
-0.0144613
-0.00357969
-0.0144462
-0.00343365
-0.0144313
-0.00328233
-0.0144167
-0.00312577
-0.0144024
-0.00296401
-0.0143885
-0.00279713
-0.014375
-0.0026252
-0.014362
-0.00244834
-0.0143495
-0.00226667
-0.0143375
-0.00208036
-0.0143262
-0.00188959
-0.0143155
-0.00169458
-0.0143056
-0.00149557
-0.0142964
-0.014288
-0.00365296
-0.0146359
0.00375043
-0.00355128
-0.0146246
-0.00344543
-0.0146132
-0.00333537
-0.0146019
-0.00322109
-0.0145908
-0.00310259
-0.0145798
-0.00297985
-0.0145689
-0.00285292
-0.0145583
-0.00272183
-0.0145478
-0.00258663
-0.0145376
-0.0024474
-0.0145277
-0.00230423
-0.0145182
-0.00215724
-0.014509
-0.00200655
-0.0145001
-0.00185232
-0.0144917
-0.0016947
-0.0144838
-0.00153389
-0.0144763
-0.00137009
-0.0144694
-0.0012035
-0.014463
-0.0144572
-0.00304105
-0.0147226
0.00312772
-0.00295128
-0.0147143
-0.00285832
-0.0147062
-0.00276218
-0.0146981
-0.00266288
-0.0146901
-0.00256044
-0.0146822
-0.00245488
-0.0146745
-0.00234625
-0.0146669
-0.00223459
-0.0146595
-0.00211996
-0.0146523
-0.00200242
-0.0146453
-0.00188205
-0.0146385
-0.00175893
-0.0146321
-0.00163316
-0.0146259
-0.00150485
-0.01462
-0.00137411
-0.0146145
-0.00124108
-0.0146094
-0.00110589
-0.0146046
-0.000968711
-0.0146002
-0.0145962
-0.00251886
-0.014797
0.00259326
-0.0024419
-0.0147913
-0.00236242
-0.0147856
-0.00228045
-0.0147801
-0.00219599
-0.0147745
-0.00210908
-0.0147691
-0.00201973
-0.0147638
-0.00192799
-0.0147586
-0.00183391
-0.0147536
-0.00173754
-0.0147486
-0.00163893
-0.0147439
-0.00153817
-0.0147393
-0.00143533
-0.0147349
-0.0013305
-0.0147307
-0.00122377
-0.0147268
-0.00111524
-0.014723
-0.00100503
-0.0147196
-0.000893257
-0.0147163
-0.000780041
-0.0147134
-0.0147107
-0.00204428
-0.0148597
0.00210697
-0.00197972
-0.0148559
-0.00191326
-0.0148521
-0.00184491
-0.0148484
-0.0017747
-0.0148448
-0.00170266
-0.0148412
-0.00162881
-0.0148377
-0.0015532
-0.0148342
-0.00147585
-0.0148309
-0.00139682
-0.0148277
-0.00131615
-0.0148246
-0.00123391
-0.0148216
-0.00115015
-0.0148187
-0.00106494
-0.014816
-0.000978346
-0.0148134
-0.000890449
-0.0148109
-0.000801329
-0.0148087
-0.000711073
-0.0148066
-0.000619773
-0.0148047
-0.014803
-0.00162267
-0.0149105
0.00167349
-0.00157037
-0.0149082
-0.00151662
-0.0149059
-0.00146143
-0.0149036
-0.00140483
-0.0149014
-0.00134684
-0.0148992
-0.00128748
-0.014897
-0.00122679
-0.0148949
-0.00116479
-0.0148929
-0.00110154
-0.0148909
-0.00103706
-0.014889
-0.000971399
-0.0148872
-0.000904615
-0.0148855
-0.000836758
-0.0148838
-0.000767884
-0.0148822
-0.000698053
-0.0148808
-0.00062733
-0.0148794
-0.000555782
-0.0148781
-0.00048348
-0.014877
-0.014876
-0.00122876
-0.0149498
0.00126806
-0.00118843
-0.0149485
-0.00114705
-0.0149472
-0.00110464
-0.014946
-0.00106121
-0.0149448
-0.00101679
-0.0149436
-0.000971389
-0.0149424
-0.00092504
-0.0149413
-0.000877767
-0.0149402
-0.000829598
-0.0149391
-0.000780563
-0.0149381
-0.000730697
-0.0149371
-0.000680035
-0.0149361
-0.000628616
-0.0149352
-0.000576481
-0.0149344
-0.000523672
-0.0149336
-0.000470236
-0.0149328
-0.000416221
-0.0149322
-0.000361677
-0.0149315
-0.014931
-0.000863268
-0.0149776
0.000891113
-0.000834663
-0.0149771
-0.00080533
-0.0149766
-0.000775285
-0.014976
-0.00074454
-0.0149755
-0.000713112
-0.014975
-0.000681016
-0.0149745
-0.00064827
-0.014974
-0.000614894
-0.0149736
-0.000580907
-0.0149731
-0.000546331
-0.0149726
-0.000511192
-0.0149722
-0.000475513
-0.0149718
-0.000439323
-0.0149714
-0.00040265
-0.0149711
-0.000365524
-0.0149707
-0.000327978
-0.0149704
-0.000290044
-0.0149701
-0.000251757
-0.0149698
-0.0149696
-0.000510752
-0.0149943
0.000527407
-0.000493715
-0.0149941
-0.000476253
-0.014994
-0.000458378
-0.0149939
-0.000440098
-0.0149938
-0.000421423
-0.0149937
-0.000402363
-0.0149936
-0.000382929
-0.0149935
-0.000363131
-0.0149933
-0.000342982
-0.0149932
-0.000322496
-0.0149931
-0.000301685
-0.014993
-0.000280566
-0.0149929
-0.000259153
-0.0149928
-0.000237464
-0.0149927
-0.000215516
-0.0149927
-0.000193327
-0.0149926
-0.000170918
-0.0149925
-0.000148307
-0.0149924
-0.0149924
-0.00017125
0.000176952
-0.000165398
-0.000159435
-0.000153359
-0.000147166
-0.000140858
-0.000134434
-0.000127895
-0.000121242
-0.00011448
-0.00010761
-0.000100637
-9.35641e-05
-8.63966e-05
-7.91394e-05
-7.17978e-05
-6.43775e-05
-5.68846e-05
-4.93253e-05
-0.018217
-0.00455063
0.0227676
-0.0145645
-0.0036525
-0.0115843
-0.00298022
-0.00913559
-0.0024487
-0.00712028
-0.00201531
-0.00546502
-0.00165526
-0.00411261
-0.00135241
-0.00301706
-0.00109555
-0.00214046
-0.000876596
-0.00145095
-0.000689514
-0.00092123
-0.00052972
-0.000527538
-0.000393692
-0.00024879
-0.000278748
-6.58682e-05
-0.000182922
3.9058e-05
-0.000104926
8.331e-05
-4.4252e-05
8.56426e-05
-2.33272e-06
5.83487e-05
2.72938e-05
2.22491e-05
3.60996e-05
2.2249e-05
-0.0151475
-0.00603308
0.01663
-0.0135057
-0.00529435
-0.011852
-0.00463388
-0.0102588
-0.0040419
-0.00876507
-0.00350907
-0.00739168
-0.00302865
-0.00614876
-0.00259533
-0.0050396
-0.00220471
-0.004063
-0.00185319
-0.00321475
-0.00153777
-0.00248853
-0.00125594
-0.0018766
-0.00100562
-0.00137025
-0.000785103
-0.000960164
-0.000593003
-0.000636803
-0.000428287
-0.000390793
-0.000290262
-0.000214567
-0.000178558
-9.41997e-05
-9.30738e-05
-2.39465e-05
-3.41535e-05
-1.69743e-06
-0.0119762
-0.00699795
0.0129411
-0.0109216
-0.00634898
-0.00982492
-0.00573058
-0.00872423
-0.00514259
-0.00764791
-0.00458539
-0.00661703
-0.00405953
-0.00564685
-0.00356551
-0.00474793
-0.00310363
-0.0039271
-0.00267402
-0.0031882
-0.00227666
-0.00253271
-0.00191143
-0.00196023
-0.00157811
-0.0014689
-0.00127643
-0.00105579
-0.00100611
-0.000717214
-0.000766861
-0.000449087
-0.000558389
-0.000247206
-0.000380439
-0.000107487
-0.000232793
-2.63839e-05
-0.000115257
-2.80814e-05
-0.00958531
-0.00781706
0.0104044
-0.00874267
-0.00719162
-0.00789441
-0.00657884
-0.00705461
-0.00598239
-0.00623521
-0.00540479
-0.00544635
-0.0048484
-0.0046965
-0.00431536
-0.0039926
-0.00380753
-0.00334008
-0.00332654
-0.00274303
-0.00287372
-0.00220425
-0.00245021
-0.00172544
-0.00205692
-0.0013073
-0.00169457
-0.000949705
-0.0013637
-0.000651849
-0.00106472
-0.000412367
-0.000797871
-0.00022949
-0.000563316
-0.000101177
-0.000361106
-2.52224e-05
-0.000191212
-5.33038e-05
-0.00862477
-0.00857961
0.00938731
-0.00785812
-0.00795827
-0.00709549
-0.00734147
-0.00634555
-0.00673233
-0.00561628
-0.00613405
-0.00491488
-0.0055498
-0.00424769
-0.00498255
-0.0036201
-0.00443512
-0.00303657
-0.00391006
-0.00250064
-0.00340965
-0.00201495
-0.0029359
-0.00158131
-0.00249056
-0.00120081
-0.00207508
-0.00087384
-0.00169067
-0.000600264
-0.00133829
-0.000379456
-0.00101868
-0.000210416
-0.000732356
-9.18666e-05
-0.000479655
-2.23438e-05
-0.000260735
-7.56476e-05
-0.0081318
-0.00932242
0.00887462
-0.00739195
-0.00869812
-0.00666224
-0.00807118
-0.00594932
-0.00744524
-0.00525948