/*--------------------------------*- C++ -*----------------------------------*\
| =========                 |                                                 |
| \\      /  F ield         | OpenFOAM: The Open Source CFD Toolbox           |
|  \\    /   O peration     | Version:  v1806                                 |
|   \\  /    A nd           | Web:      www.OpenFOAM.com                      |
|    \\/     M anipulation  |                                                 |
\*---------------------------------------------------------------------------*/
FoamFile
{
    version     2.0;
    format      ascii;
    class       surfaceScalarField;
    location    "5";
    object      phi;
}
// * * * * * * * * * * * * * * * * * * * * * * * * * * * * * * * * * * * * * //

dimensions      [0 3 -1 0 0 0 0];
oriented        oriented;


internalField   nonuniform List<scalar> 
8600
(
0.653245
-0.800652
-0.697531
0.844938
0.565991
-0.819024
0.906278
0.418608
-0.835303
0.982686
0.315987
-0.87207
0.974692
0.258844
-0.898875
0.956018
0.226593
-0.916279
0.948531
0.203801
-0.929578
0.952369
0.184105
-0.933253
0.952949
0.168034
-0.932992
0.949063
0.155073
-0.929657
0.942618
0.144358
-0.924208
0.934923
0.135112
-0.917664
0.92691
0.127437
-0.91088
0.918554
0.121465
-0.904038
0.91001
0.117025
-0.897217
0.901657
0.113555
-0.890323
0.893793
0.111026
-0.883405
0.885934
0.109177
-0.876495
0.878344
0.10787
-0.870023
0.87133
-0.861642
0.862103
0.225584
-0.661534
-0.364701
0.198931
-0.792372
0.225775
-0.862146
0.238703
-0.884998
0.2323
-0.892473
0.216972
-0.900951
0.196336
-0.908942
0.178633
-0.91555
0.163747
-0.918105
0.150683
-0.916594
0.139684
-0.913208
0.130777
-0.908757
0.12354
-0.903643
0.117481
-0.897979
0.112357
-0.892093
0.108108
-0.886074
0.10473
-0.880027
0.102089
-0.873854
0.100149
-0.868083
-0.860736
0.402986
-0.720728
-0.343792
0.406296
-0.795681
0.353533
-0.809383
0.291678
-0.823144
0.240677
-0.841471
0.20626
-0.866534
0.185091
-0.887773
0.169512
-0.899972
0.155921
-0.904514
0.144656
-0.905329
0.13529
-0.903843
0.127397
-0.900864
0.120577
-0.896822
0.114698
-0.8921
0.109798
-0.887193
0.105744
-0.88202
0.102341
-0.876624
0.0996961
-0.871209
0.0974353
-0.865822
-0.859398
0.157009
-0.701156
-0.176581
0.131586
-0.770258
0.142065
-0.819862
0.161607
-0.842686
0.17606
-0.855924
0.1784
-0.868873
0.171326
-0.880699
0.160173
-0.888819
0.149592
-0.893932
0.140412
-0.896149
0.132427
-0.895858
0.125469
-0.893906
0.119437
-0.89079
0.114382
-0.887045
0.110135
-0.882945
0.106518
-0.878404
0.103514
-0.87362
0.101222
-0.868918
0.0994982
-0.864098
-0.858455
0.256252
-0.746983
-0.210425
0.284861
-0.798867
0.27206
-0.807061
0.241436
-0.812062
0.208737
-0.823226
0.182423
-0.842559
0.164075
-0.862351
0.152288
-0.877032
0.143164
-0.884809
0.134851
-0.887835
0.127385
-0.888393
0.120944
-0.887465
0.115459
-0.885306
0.110966
-0.882551
0.107124
-0.879103
0.103975
-0.875255
0.101767
-0.871412
0.100365
-0.867515
0.0996276
-0.863361
-0.858314
0.108286
-0.746415
-0.108854
0.0954512
-0.786032
0.0981365
-0.809746
0.112552
-0.826477
0.129416
-0.840089
0.140392
-0.853535
0.143106
-0.865065
0.138594
-0.87252
0.130961
-0.877176
0.123399
-0.880273
0.116552
-0.881545
0.110377
-0.88129
0.105154
-0.880083
0.100716
-0.878113
0.0969524
-0.875339
0.0940162
-0.872318
0.0918549
-0.869251
0.0901539
-0.865814
0.0890766
-0.862283
-0.858073
0.174271
-0.780194
-0.140492
0.198845
-0.810606
0.204902
-0.815804
0.192752
-0.814327
0.173877
-0.821215
0.155187
-0.834845
0.139731
-0.849609
0.128837
-0.861626
0.121281
-0.86962
0.114691
-0.873683
0.108709
-0.875563
0.103379
-0.875961
0.0986083
-0.875311
0.0942453
-0.87375
0.0906042
-0.871698
0.0876915
-0.869406
0.085107
-0.866667
0.08288
-0.863587
0.0812463
-0.86065
-0.857335
0.0744687
-0.781502
-0.0731607
0.068226
-0.804363
0.0675646
-0.815142
0.0790202
-0.825782
0.0934581
-0.835653
0.105681
-0.847068
0.112525
-0.856453
0.113609
-0.86271
0.110471
-0.866482
0.105976
-0.869188
0.101566
-0.871153
0.0973787
-0.871774
0.0933698
-0.871303
0.0897878
-0.870168
0.0868518
-0.868762
0.0842516
-0.866806
0.0819893
-0.864404
0.0803613
-0.861959
0.0791912
-0.85948
-0.856699
0.122875
-0.80657
-0.0978069
0.142771
-0.82426
0.154652
-0.827023
0.150915
-0.822046
0.140708
-0.825446
0.12808
-0.83444
0.116655
-0.845029
0.108338
-0.854393
0.102909
-0.861053
0.0989735
-0.865252
0.0951239
-0.867303
0.0914436
-0.868094
0.0880892
-0.867948
0.0852733
-0.867352
0.0826465
-0.866136
0.0802859
-0.864445
0.0786432
-0.862762
0.0776564
-0.860973
0.0769434
-0.858767
-0.856337
0.05098
-0.807004
-0.050546
0.0468617
-0.820141
0.0450314
-0.825192
0.0537999
-0.830814
0.0665065
-0.838153
0.0787148
-0.846648
0.0874799
-0.853794
0.0913362
-0.858249
0.0912825
-0.860999
0.0887728
-0.862742
0.0856944
-0.864225
0.0827564
-0.865156
0.0801661
-0.865358
0.0777873
-0.864973
0.0755147
-0.863863
0.0738044
-0.862735
0.0725646
-0.861522
0.0715035
-0.859911
0.0708075
-0.858071
-0.856141
0.0898774
-0.826622
-0.0702586
0.106723
-0.836987
0.118744
-0.837213
0.119595
-0.831665
0.113238
-0.831796
0.103886
-0.837296
0.0943351
-0.844243
0.0869711
-0.850885
0.0821329
-0.856161
0.0790372
-0.859647
0.0765782
-0.861766
0.0741021
-0.862679
0.0717462
-0.863002
0.0694218
-0.862649
0.0675701
-0.862011
0.0661627
-0.861327
0.0647274
-0.860087
0.0635012
-0.858685
0.0629009
-0.85747
-0.856041
0.0332891
-0.825558
-0.0343535
0.0291454
-0.832843
0.0266173
-0.834685
0.0320122
-0.83706
0.0428127
-0.842596
0.0538806
-0.848364
0.062912
-0.853274
0.0684713
-0.856445
0.0702966
-0.857986
0.0697235
-0.859074
0.0678361
-0.859879
0.0656949
-0.860538
0.0635203
-0.860827
0.0614686
-0.860597
0.0598206
-0.860363
0.0581821
-0.859689
0.056722
-0.858627
0.05579
-0.857753
0.0551833
-0.856864
-0.855719
0.0665737
-0.841153
-0.0509786
0.0804275
-0.846697
0.0909404
-0.845198
0.0943057
-0.840426
0.0900773
-0.838368
0.0829503
-0.841237
0.0753241
-0.845648
0.0689112
-0.850032
0.064748
-0.853823
0.0622286
-0.856554
0.0604124
-0.858063
0.0588966
-0.859022
0.0573318
-0.859262
0.0558935
-0.859159
0.054439
-0.858909
0.0530454
-0.858295
0.0521172
-0.857698
0.051435
-0.857071
0.0507789
-0.856208
-0.855341
0.0195474
-0.838659
-0.022041
0.0153028
-0.842452
0.0129109
-0.842806
0.0167073
-0.844222
0.0259346
-0.847595
0.0359265
-0.851229
0.0444879
-0.854209
0.050306
-0.85585
0.0531407
-0.856658
0.0535299
-0.856943
0.0529379
-0.85747
0.0519154
-0.858
0.0507555
-0.858103
0.0497493
-0.858153
0.0487399
-0.857899
0.0479495
-0.857505
0.0473336
-0.857082
0.0468227
-0.85656
0.0465738
-0.855959
-0.855327
0.0497059
-0.851393
-0.0369719
0.0610708
-0.853817
0.0699984
-0.851734
0.0733295
-0.847553
0.0704684
-0.844734
0.0646873
-0.845447
0.0579585
-0.847481
0.0521992
-0.85009
0.0481297
-0.852588
0.0458946
-0.854708
0.0446128
-0.856189
0.0432715
-0.856659
0.042135
-0.856966
0.0411089
-0.857127
0.0401585
-0.856949
0.0393338
-0.85668
0.0386527
-0.856401
0.0382833
-0.856191
0.0381401
-0.855816
-0.85532
0.00781994
-0.847325
-0.0118878
0.00284886
-0.848846
-7.24753e-05
-0.848812
0.0023563
-0.849982
0.00956421
-0.851942
0.0179409
-0.853824
0.0256272
-0.855167
0.0312896
-0.855753
0.0345084
-0.855807
0.0356984
-0.855898
0.0353313
-0.855822
0.0345788
-0.855906
0.0338193
-0.856207
0.0328498
-0.856157
0.0319291
-0.856028
0.0312253
-0.855976
0.0307725
-0.855948
0.0303046
-0.855723
0.029825
-0.855336
-0.855079
0.0355826
-0.857273
-0.0256348
0.0445981
-0.857862
0.051451
-0.855665
0.0533727
-0.851903
0.0507559
-0.849325
0.0455092
-0.848577
0.0395143
-0.849172
0.0342942
-0.850533
0.0308538
-0.852367
0.0288722
-0.853917
0.0278696
-0.854819
0.0274553
-0.855492
0.0268568
-0.855608
0.0262352
-0.855536
0.0258242
-0.855617
0.0255508
-0.855703
0.0251653
-0.855563
0.0246537
-0.855211
0.024407
-0.855089
-0.85504
-0.00190556
-0.852346
-0.0030218
-0.00702644
-0.852741
-0.0100146
-0.852677
-0.00879805
-0.85312
-0.00321121
-0.854912
0.00359574
-0.855384
0.0099372
-0.855513
0.0150011
-0.855597
0.0181237
-0.85549
0.0194484
-0.855241
0.0198445
-0.855215
0.0195798
-0.855227
0.0191155
-0.855144
0.0188855
-0.855306
0.0186899
-0.855422
0.0183173
-0.85533
0.0178847
-0.85513
0.0177665
-0.855093
0.0178668
-0.85519
-0.855102
0.0231152
-0.860344
-0.0151167
0.0302164
-0.859842
0.0354892
-0.85795
0.0373421
-0.854973
0.0341097
-0.85168
0.0286254
-0.8499
0.0229655
-0.849854
0.0181459
-0.850777
0.0147616
-0.852105
0.0129596
-0.853439
0.012108
-0.854363
0.0116191
-0.854738
0.0114312
-0.854956
0.0112233
-0.855098
0.0108689
-0.855067
0.0105232
-0.854984
0.0104028
-0.85501
0.0104165
-0.855107
0.0103066
-0.85508
-0.85501
-0.0115954
0.00625097
-0.0164374
-0.0193874
-0.0193602
-0.0160399
-0.0109401
-0.00579359
-0.00157068
0.00132409
0.00288477
0.00352132
0.00378322
0.00382735
0.00372964
0.00366215
0.0036778
0.00366781
0.00356111
0.00348119
-0.244801
-0.0600788
0.304879
-0.187978
-0.0568227
-0.13718
-0.0507978
-0.0899626
-0.0472177
-0.0457296
-0.044233
-0.00347896
-0.0422506
0.0374518
-0.0409308
0.0775924
-0.0401405
0.117427
-0.0398344
0.157415
-0.0399877
0.198076
-0.0406619
0.239881
-0.041805
0.28391
-0.0440281
0.329909
-0.0459994
0.379626
-0.0497173
0.431736
-0.05211
0.490463
-0.0587266
0.551574
-0.0611115
0.624365
-0.0727911
-0.0731659
-0.0681692
-0.0766638
0.0847542
-0.051472
-0.0735199
-0.0310009
-0.0712689
-0.00881816
-0.0694004
0.0149643
-0.0680154
0.0397525
-0.0670389
0.0652477
-0.066426
0.0912533
-0.0661461
0.117601
-0.0661819
0.14414
-0.0665273
0.170651
-0.0671729
0.196993
-0.0681466
0.222373
-0.0694078
0.247462
-0.0710883
0.270732
-0.0729876
0.294133
-0.0755116
0.313635
-0.0782284
0.334248
-0.0817246
0.347401
-0.0859439
-0.0904659
-0.0614795
-0.0921688
0.0769845
-0.0437352
-0.0912641
-0.0247708
-0.0902333
-0.00485296
-0.0893183
0.0157047
-0.0885731
0.0367112
-0.0880454
0.0580476
-0.0877624
0.0796445
-0.087743
0.101463
-0.0879999
0.123477
-0.0885417
0.145681
-0.089377
0.16804
-0.0905057
0.190575
-0.0919432
0.213162
-0.0936745
0.235889
-0.0957151
0.258476
-0.0980981
0.280922
-0.100675
0.303069
-0.103872
0.323919
-0.106794
-0.110339
-0.0040261
-0.102401
0.0142581
0.00636415
-0.101654
0.0171745
-0.101044
0.0284228
-0.100566
0.0400764
-0.100227
0.0520572
-0.100026
0.064259
-0.0999641
0.0765547
-0.100039
0.088803
-0.100248
0.100853
-0.100592
0.112545
-0.101069
0.123721
-0.101682
0.134209
-0.102431
0.14386
-0.103326
0.152519
-0.104373
0.159995
-0.105574
0.166292
-0.106971
0.170948
-0.108528
0.174476
-0.110322
-0.112444
-0.0142707
-0.112102
0.0239723
-0.0040087
-0.111916
0.00669442
-0.111747
0.017747
-0.111619
0.029077
-0.111557
0.0406277
-0.111577
0.0523563
-0.111693
0.064232
-0.111914
0.0762332
-0.112249
0.088344
-0.112703
0.100553
-0.113278
0.112847
-0.113976
0.125215
-0.114799
0.137634
-0.115745
0.15007
-0.11681
0.162499
-0.118003
0.17481
-0.119282
0.187039
-0.120756
0.198814
-0.122098
-0.124056
0.0109449
-0.118827
-0.00422052
0.0176322
-0.118604
0.0243172
-0.118432
0.0310165
-0.118318
0.037725
-0.118265
0.0444213
-0.118273
0.0510695
-0.118341
0.0576235
-0.118468
0.064029
-0.118655
0.0702267
-0.1189
0.0761544
-0.119205
0.0817501
-0.119572
0.0869526
-0.120001
0.0917061
-0.120498
0.0959638
-0.121068
0.099674
-0.121713
0.102844
-0.122452
0.105356
-0.123268
0.107499
-0.124241
-0.125411
-0.000856472
-0.125229
0.00725863
0.00576953
-0.12523
0.0125897
-0.125252
0.0195707
-0.125299
0.026684
-0.125379
0.0339076
-0.125497
0.0412258
-0.125659
0.0486279
-0.125871
0.0561066
-0.126134
0.0636568
-0.12645
0.0712737
-0.126822
0.0789518
-0.12725
0.0866831
-0.127733
0.0944554
-0.128271
0.10225
-0.128862
0.110046
-0.129509
0.117798
-0.130204
0.125498
-0.130968
0.133013
-0.131756
-0.13289
0.0128425
-0.129707
-0.00836418
0.0172462
-0.129633
0.0215778
-0.129584
0.0258405
-0.129562
0.0300329
-0.129571
0.0341464
-0.12961
0.0381674
-0.12968
0.0420772
-0.12978
0.0458547
-0.129911
0.0494768
-0.130073
0.05292
-0.130266
0.0561616
-0.130491
0.0591806
-0.130752
0.0619596
-0.13105
0.0644857
-0.131388
0.0667497
-0.131773
0.0687562
-0.132211
0.0704965
-0.132709
0.0720468
-0.133307
-0.134004
0.00271988
-0.134106
0.00167891
0.00723823
-0.134152
0.0118665
-0.134212
0.0165907
-0.134286
0.0213976
-0.134378
0.026276
-0.134489
0.0312176
-0.134622
0.0362159
-0.134779
0.0412659
-0.134961
0.0463632
-0.13517
0.0515029
-0.135405
0.0566792
-0.135668
0.061884
-0.135957
0.0671066
-0.136272
0.0723325
-0.136614
0.0775433
-0.136984
0.0827141
-0.137381
0.0878214
-0.137816
0.0928167
-0.138302
-0.138994
0.0113124
-0.137137
-0.00828122
0.0142709
-0.13711
0.0171544
-0.137095
0.0199627
-0.137095
0.0226948
-0.13711
0.0253476
-0.137142
0.0279159
-0.13719
0.0303923
-0.137255
0.0327686
-0.137337
0.035036
-0.137437
0.0371859
-0.137555
0.0392106
-0.137692
0.041104
-0.13785
0.0428621
-0.13803
0.0444835
-0.138236
0.0459703
-0.13847
0.0473287
-0.13874
0.0485662
-0.139053
0.0496965
-0.139432
-0.139844
0.00318628
-0.140255
-6.83916e-05
0.00638061
-0.140305
0.00964829
-0.140363
0.0129832
-0.14043
0.0163783
-0.140505
0.019827
-0.14059
0.0233235
-0.140686
0.0268628
-0.140794
0.0304405
-0.140915
0.0340519
-0.141049
0.037692
-0.141195
0.0413549
-0.141355
0.0450333
-0.141528
0.0487177
-0.141715
0.0523967
-0.141915
0.0560562
-0.14213
0.0596792
-0.142363
0.0632468
-0.142621
0.0667361
-0.142922
-0.143366
0.00891149
-0.142309
-0.00685774
0.0109034
-0.142297
0.0128304
-0.14229
0.0146916
-0.142291
0.0164864
-0.1423
0.018214
-0.142318
0.0198726
-0.142345
0.0214598
-0.142382
0.022973
-0.142428
0.0244091
-0.142485
0.0257658
-0.142552
0.0270413
-0.142631
0.0282348
-0.142722
0.029347
-0.142827
0.03038
-0.142948
0.0313381
-0.143088
0.0322268
-0.143251
0.033051
-0.143445
0.0338116
-0.143682
-0.143908
0.00292326
-0.144521
-0.00071072
0.00519135
-0.144565
0.00751427
-0.144613
0.00988908
-0.144666
0.0123117
-0.144722
0.0147776
-0.144784
0.0172825
-0.14485
0.0198221
-0.144921
0.0223923
-0.144998
0.0249888
-0.145081
0.0276068
-0.14517
0.0302407
-0.145265
0.0328842
-0.145365
0.0355295
-0.145472
0.0381676
-0.145586
0.0407878
-0.145708
0.0433784
-0.145842
0.0459269
-0.145994
0.0484184
-0.146174
-0.146468
0.0067248
-0.145861
-0.00538498
0.00801367
-0.145854
0.00924901
-0.145848
0.0104299
-0.145846
0.0115562
-0.145849
0.0126281
-0.145856
0.0136455
-0.145867
0.0146083
-0.145884
0.0155162
-0.145906
0.0163692
-0.145934
0.0171673
-0.145968
0.0179112
-0.146009
0.0186025
-0.146057
0.0192432
-0.146113
0.0198365
-0.146179
0.0203864
-0.146258
0.0208964
-0.146352
0.021368
-0.146465
0.0218006
-0.146606
-0.146709
0.00198368
-0.147439
-0.000406176
0.00360437
-0.147474
0.00526852
-0.147512
0.00697473
-0.147553
0.00872047
-0.147594
0.0105026
-0.147638
0.0123179
-0.147683
0.0141627
-0.147729
0.0160335
-0.147777
0.0179265
-0.147827
0.0198374
-0.147879
0.0217614
-0.147933
0.0236932
-0.147988
0.0256265
-0.148046
0.0275544
-0.148107
0.029469
-0.148173
0.0313621
-0.148245
0.0332261
-0.148329
0.0350495
-0.14843
-0.148631
0.00475722
-0.148216
-0.00397997
0.00549372
-0.148211
0.00618745
-0.148206
0.00683768
-0.148203
0.00744448
-0.148201
0.00800835
-0.148202
0.00852999
-0.148204
0.00901012
-0.148209
0.00944958
-0.148217
0.00984935
-0.148227
0.0102106
-0.14824
0.010535
-0.148257
0.0108245
-0.148278
0.0110814
-0.148303
0.0113086
-0.148334
0.0115089
-0.148373
0.011684
-0.14842
0.0118326
-0.148478
0.011954
-0.148551
-0.148565
0.00143599
-0.149241
-0.000411324
0.00249614
-0.149271
0.00359257
-0.149303
0.00472481
-0.149335
0.00589144
-0.149368
0.00709046
-0.149401
0.00831948
-0.149433
0.00957593
-0.149466
0.010857
-0.149498
0.0121598
-0.14953
0.013481
-0.149561
0.014817
-0.149593
0.0161638
-0.149625
0.0175168
-0.149656
0.0188713
-0.149689
0.0202221
-0.149724
0.0215647
-0.149763
0.0228952
-0.149809
0.0242061
-0.149862
-0.149993
0.00270322
-0.149558
-0.00238537
0.00298729
-0.149555
0.0032362
-0.149552
0.00344958
-0.149549
0.00362783
-0.149546
0.00377183
-0.149545
0.0038828
-0.149544
0.00396217
-0.149545
0.00401157
-0.149547
0.00403284
-0.149551
0.00402807
-0.149557
0.00399964
-0.149565
0.0039502
-0.149575
0.00388262
-0.149589
0.0037998
-0.149606
0.00370421
-0.149628
0.00359695
-0.149655
0.00347659
-0.149688
0.00334243
-0.149728
-0.149673
0.000277416
-0.150128
0.000291991
0.000876859
-0.150154
0.00150703
-0.150182
0.00216757
-0.150209
0.00285733
-0.150236
0.00357452
-0.150262
0.00431697
-0.150287
0.0050822
-0.15031
0.00586752
-0.150332
0.00667002
-0.150353
0.00748662
-0.150373
0.008314
-0.150392
0.00914869
-0.15041
0.00998716
-0.150427
0.010826
-0.150445
0.0116622
-0.150464
0.0124938
-0.150487
0.0133202
-0.150515
0.0141384
-0.150546
-0.150651
0.000784724
-0.000912559
0.000630321
0.000448594
0.000239525
3.64027e-06
-0.000258161
-0.000544758
-0.000854916
-0.00118736
-0.00154082
-0.00191409
-0.00230606
-0.00271584
-0.00314301
-0.0035879
-0.00405213
-0.00453906
-0.00505375
-0.00559984
-0.278111
-0.11095
0.108216
0.280845
-0.27551
-0.108958
0.106357
-0.272721
-0.107041
0.104252
-0.269889
-0.105003
0.102171
-0.267323
-0.102804
0.100239
-0.265437
-0.100456
0.0985699
-0.264734
-0.0979861
0.0972825
-0.265752
-0.09546
0.096478
-0.268988
-0.0929711
0.0962078
-0.274805
-0.0906318
0.0964485
-0.283329
-0.0885543
0.0970781
-0.294366
-0.0868283
0.097865
-0.307326
-0.0855014
0.0984621
-0.321172
-0.0845642
0.0984102
-0.334403
-0.0839252
0.0971564
-0.345077
-0.0833637
0.0940367
-0.350821
-0.0824488
0.0881934
-0.348721
-0.0804845
0.0783848
-0.335276
-0.0761651
0.0627199
-0.067527
0.0371302
-0.22239
-0.114327
0.225767
-0.218125
-0.113222
-0.213164
-0.112003
-0.207361
-0.110806
-0.200563
-0.109602
-0.192672
-0.108347
-0.183671
-0.106987
-0.173669
-0.105462
-0.162922
-0.103718
-0.151835
-0.101718
-0.140932
-0.0994576
-0.130786
-0.0969742
-0.121935
-0.0943526
-0.114808
-0.0916912
-0.109746
-0.0889869
-0.106424
-0.0866863
-0.104074
-0.084799
-0.10145
-0.0831078
-0.0963259
-0.0812896
-0.0790987
-0.200051
-0.11691
0.202634
-0.197852
-0.115421
-0.195833
-0.114021
-0.194011
-0.112628
-0.192348
-0.111266
-0.190742
-0.109953
-0.189023
-0.108705
-0.186956
-0.107529
-0.184251
-0.106423
-0.180593
-0.105376
-0.175688
-0.104363
-0.169308
-0.103354
-0.161351
-0.102309
-0.151845
-0.101198
-0.140842
-0.0999891
-0.128916
-0.098613
-0.116586
-0.0971282
-0.104049
-0.0956451
-0.091042
-0.0942966
-0.0931562
-0.145647
-0.121568
0.150305
-0.140317
-0.120752
-0.134486
-0.119852
-0.128215
-0.1189
-0.121604
-0.117876
-0.114783
-0.116774
-0.107896
-0.115591
-0.101088
-0.114337
-0.094482
-0.11303
-0.0881583
-0.111699
-0.0821132
-0.110408
-0.0762535
-0.109214
-0.0704152
-0.108148
-0.0643876
-0.107225
-0.0579356
-0.106441
-0.0507839
-0.105765
-0.0427621
-0.10515
-0.0338651
-0.104542
-0.0242714
-0.10389
-0.10317
-0.141932
-0.124315
0.14468
-0.139204
-0.123479
-0.136381
-0.122675
-0.133377
-0.121904
-0.130087
-0.121166
-0.126399
-0.120462
-0.122201
-0.119789
-0.117394
-0.119144
-0.111904
-0.11852
-0.105693
-0.117911
-0.098798
-0.117303
-0.0913316
-0.11668
-0.0834408
-0.116038
-0.0752846
-0.115382
-0.0670026
-0.114723
-0.0586803
-0.114087
-0.050325
-0.113505
-0.0418569
-0.11301
-0.0331283
-0.112619
-0.112326
-0.0962895
-0.128575
0.100549
-0.0917822
-0.127986
-0.0870925
-0.127365
-0.0822867
-0.12671
-0.0774285
-0.126025
-0.0725745
-0.125316
-0.0677675
-0.124596
-0.0630263
-0.123885
-0.0583435
-0.123203
-0.0536865
-0.122568
-0.0489951
-0.121995
-0.0441836
-0.121492
-0.0391626
-0.121059
-0.0338522
-0.120692
-0.0281973
-0.120378
-0.0221821
-0.120102
-0.0158409
-0.119847
-0.00925505
-0.119596
-0.00253365
-0.11934
-0.11908
-0.100409
-0.131318
0.103152
-0.0975292
-0.130866
-0.0944723
-0.130422
-0.0911855
-0.129997
-0.0876197
-0.129591
-0.0837338
-0.129202
-0.0795005
-0.12883
-0.0749176
-0.128468
-0.070007
-0.128113
-0.0648119
-0.127763
-0.059392
-0.127415
-0.053815
-0.127069
-0.0481463
-0.126728
-0.0424384
-0.1264
-0.0367222
-0.126094
-0.0310002
-0.125824
-0.0252465
-0.1256
-0.0194112
-0.125431
-0.0134334
-0.125318
-0.125254
-0.0653618
-0.134705
0.0687491
-0.0619022
-0.134326
-0.0583896
-0.133935
-0.0548543
-0.133532
-0.0513202
-0.133125
-0.0478022
-0.13272
-0.0443042
-0.132327
-0.040816
-0.131956
-0.037315
-0.131614
-0.0337698
-0.131308
-0.0301435
-0.131041
-0.026399
-0.130813
-0.0225052
-0.130622
-0.0184429
-0.130462
-0.0142102
-0.130327
-0.00982488
-0.130209
-0.00532367
-0.130101
-0.000756911
-0.129998
0.00382119
-0.129896
-0.129798
-0.0715477
-0.137133
0.0739759
-0.0689839
-0.13689
-0.0662674
-0.136651
-0.0633775
-0.136422
-0.0603007
-0.136201
-0.0570324
-0.135988
-0.0535781
-0.135782
-0.0499542
-0.13558
-0.0461859
-0.135383
-0.0423051
-0.135189
-0.0383466
-0.134999
-0.0343436
-0.134816
-0.0303233
-0.134642
-0.0263031
-0.134482
-0.0222877
-0.134342
-0.0182689
-0.134228
-0.0142267
-0.134144
-0.0101332
-0.134092
-0.00595872
-0.134071
-0.134077
-0.045038
-0.139692
0.0475968
-0.0424595
-0.139468
-0.0398727
-0.139238
-0.0372886
-0.139006
-0.0347128
-0.138777
-0.0321454
-0.138556
-0.0295801
-0.138347
-0.0270052
-0.138155
-0.0244046
-0.137983
-0.0217596
-0.137834
-0.0190519
-0.137707
-0.0162659
-0.137602
-0.0133915
-0.137517
-0.0104269
-0.137447
-0.0073799
-0.13739
-0.00426774
-0.13734
-0.00111586
-0.137296
0.00204563
-0.137253
0.0051865
-0.137212
-0.137172
-0.0518638
-0.141721
0.0538931
-0.04974
-0.141592
-0.0475089
-0.141469
-0.0451655
-0.14135
-0.0427092
-0.141233
-0.0401448
-0.14112
-0.0374823
-0.141009
-0.0347365
-0.140901
-0.0319258
-0.140794
-0.0290698
-0.14069
-0.0261879
-0.140589
-0.0232968
-0.140493
-0.020408
-0.140405
-0.0175271
-0.140328
-0.0146524
-0.140264
-0.0117752
-0.140217
-0.00888157
-0.140189
-0.00595415
-0.14018
-0.00297559
-0.14019
-0.140216
-0.0311457
-0.143599
0.0330238
-0.0292613
-0.143477
-0.0273826
-0.143348
-0.0255125
-0.14322
-0.0236508
-0.143095
-0.0217938
-0.142977
-0.019935
-0.142868
-0.0180654
-0.14277
-0.0161747
-0.142685
-0.0142519
-0.142612
-0.0122878
-0.142553
-0.0102756
-0.142505
-0.00821262
-0.142468
-0.00610141
-0.142439
-0.00394993
-0.142416
-0.00177132
-0.142396
0.000417356
-0.142378
0.00259703
-0.14236
0.00474912
-0.142342
-0.142325
-0.0365825
-0.145132
0.0381151
-0.0349884
-0.145071
-0.0333197
-0.145016
-0.0315764
-0.144963
-0.0297618
-0.14491
-0.0278819
-0.144857
-0.0259457
-0.144804
-0.0239645
-0.144752
-0.0219504
-0.144699
-0.0199159
-0.144647
-0.017872
-0.144597
-0.0158276
-0.14455
-0.0137877
-0.144508
-0.0117538
-0.144473
-0.00972262
-0.144447
-0.00768716
-0.144431
-0.00563739
-0.144428
-0.00356175
-0.144436
-0.00144886
-0.144455
-0.144484
-0.0207639
-0.146477
0.0221094
-0.0194175
-0.146417
-0.0180842
-0.14635
-0.0167639
-0.146283
-0.0154546
-0.146219
-0.0141522
-0.14616
-0.0128511
-0.146106
-0.0115445
-0.146058
-0.0102253
-0.146018
-0.008887
-0.145985
-0.00752426
-0.14596
-0.006134
-0.14594
-0.00471599
-0.145926
-0.00327331
-0.145916
-0.0018124
-0.145908
-0.00034273
-0.145901
0.00112408
-0.145895
0.00257546
-0.145887
0.00399924
-0.145879
-0.14587
-0.0261446
-0.147601
0.0272684
-0.0249835
-0.147578
-0.0237707
-0.147562
-0.0225076
-0.147546
-0.0211977
-0.147529
-0.0198465
-0.147511
-0.018461
-0.147491
-0.0170493
-0.14747
-0.0156197
-0.147448
-0.0141802
-0.147425
-0.0127375
-0.147402
-0.0112964
-0.147381
-0.00985931
-0.147363
-0.00842581
-0.147349
-0.00699273
-0.147341
-0.00555443
-0.147339
-0.00410347
-0.147345
-0.00263156
-0.147359
-0.00113062
-0.14738
-0.147407
-0.0120137
-0.14844
0.0128524
-0.0111726
-0.148419
-0.0103438
-0.148391
-0.00952619
-0.148364
-0.00871778
-0.148337
-0.00791514
-0.148313
-0.00711398
-0.148292
-0.00630956
-0.148274
-0.00549719
-0.14826
-0.00467277
-0.148249
-0.00383331
-0.148242
-0.00297748
-0.148237
-0.00210591
-0.148235
-0.00122149
-0.148234
-0.000329242
-0.148233
0.000563942
-0.148233
0.00144989
-0.148231
0.00231991
-0.148229
0.00316568
-0.148226
-0.148221
-0.0164414
-0.149157
0.017158
-0.015703
-0.149158
-0.0149302
-0.149164
-0.014125
-0.149169
-0.01329
-0.149172
-0.0124295
-0.149174
-0.0115486
-0.149173
-0.0106528
-0.14917
-0.00974765
-0.149165
-0.0088382
-0.149159
-0.00792848
-0.149152
-0.00702105
-0.149145
-0.0061167
-0.149139
-0.0052143
-0.149136
-0.00431083
-0.149137
-0.00340167
-0.149142
-0.00248101
-0.149152
-0.00154257
-0.149168
-0.000580217
-0.149188
-0.149213
-0.00540191
-0.149603
0.00584816
-0.0049534
-0.149606
-0.00451929
-0.149598
-0.00409806
-0.14959
-0.00368766
-0.149583
-0.00328528
-0.149576
-0.00288761
-0.149571
-0.00249114
-0.149567
-0.00209252
-0.149564
-0.00168898
-0.149562
-0.00127864
-0.149562
-0.000860826
-0.149562
-0.000436335
-0.149564
-7.48164e-06
-0.149565
0.000421951
-0.149566
0.000846958
-0.149567
0.00126172
-0.149567
0.00166014
-0.149566
0.00203637
-0.149564
-0.149562
-0.00880066
-0.149938
0.00913565
-0.00845842
-0.149948
-0.00809272
-0.149964
-0.00770505
-0.149978
-0.00729747
-0.14999
-0.00687287
-0.150001
-0.00643478
-0.150009
-0.00598695
-0.150014
-0.00553305
-0.150018
-0.00507623
-0.150019
-0.00461888
-0.150019
-0.00416226
-0.150019
-0.00370636
-0.150019
-0.00324982
-0.150021
-0.00278995
-0.150026
-0.00232298
-0.150034
-0.0018444
-0.150045
-0.00134937
-0.150061
-0.000833241
-0.15008
-0.150103
0.00128242
-0.00122027
0.00133395
0.00137005
0.00139211
0.0014017
0.00140088
0.00139202
0.00137761
0.00135993
0.00134087
0.00132165
0.00130262
0.00128321
0.00126181
0.00123588
0.00120211
0.00115671
0.00109572
0.00101541
-0.0906325
-0.0215598
0.112192
-0.0629666
-0.0276659
-0.0500856
-0.012881
-0.034607
-0.0154785
-0.0246688
-0.00993822
-0.0152165
-0.00945227
-0.00820711
-0.00700944
-0.00278286
-0.00542425
0.00102068
-0.00380354
0.00339981
-0.00237913
0.00456867
-0.00116886
0.00482784
-0.000259165
0.0044776
0.000350234
0.00378195
0.000695654
0.00294009
0.000841859
0.00208345
0.000856644
0.00128929
0.000794154
0.000614718
0.000674574
0.000143942
0.000470776
0.000143942
-0.114953
-0.04613
0.139523
-0.0943107
-0.0483082
-0.0750974
-0.0320943
-0.0577107
-0.0328652
-0.0432149
-0.024434
-0.02999
-0.0226772
-0.0190692
-0.0179303
-0.00997485
-0.0145186
-0.00293748
-0.0108409
0.00213159
-0.00744821
0.00537262
-0.00440989
0.00701034
-0.00189689
0.00740414
-4.35606e-05
0.00687419
0.00122561
0.00577008
0.00194597
0.00437554
0.00225118
0.00291146
0.00225823
0.00155755
0.00202849
0.000499817
0.00152851
0.000643759
-0.115251
-0.06525
0.134371
-0.101101
-0.0624588
-0.0832947
-0.0499001
-0.0687462
-0.0474137
-0.0537205
-0.0394598
-0.0406002
-0.0357974
-0.0286527
-0.0298778
-0.0182992
-0.0248721
-0.00971607
-0.019424
-0.00300254
-0.0141617
0.00184839
-0.00926081
0.00494554
-0.00499404
0.00647841
-0.00157643
0.00677858
0.000925439
0.00615738
0.00256716
0.00494871
0.00345985
0.0034496
0.00375734
0.00192741
0.00355069
0.000655835
0.00280008
0.00129959
-0.114641
-0.0781943
0.127586
-0.103378
-0.0737225
-0.0890545
-0.0642233
-0.0765246
-0.0599437
-0.0628059
-0.0531784
-0.0503732
-0.0482301
-0.0383007
-0.0419503
-0.0274158
-0.0357569
-0.0178602
-0.0289797
-0.009911
-0.0221109
-0.00372489
-0.0154469
0.000686775
-0.0094057
0.00343606
-0.00432571
0.00475518
-0.000393682
0.00493265
0.0023897
0.00428847
0.00410403
0.00314356
0.00490225
0.00181219
0.00488206
0.000625595
0.00398668
0.00192519
-0.111704
-0.0866117
0.120121
-0.103312
-0.0821142
-0.092579
-0.0749565
-0.0820467
-0.070476
-0.0704193
-0.0648058
-0.0590066
-0.0596429
-0.0474852
-0.0534716
-0.0365038
-0.0467384
-0.0263401
-0.0391433
-0.0174161
-0.031035
-0.0100477
-0.0228153
-0.00440721
-0.0150462
-0.000490697
-0.00824222
0.00185875
-0.00274313
0.00291125
0.0013372
0.0029689
0.00404637
0.00235796
0.00551319
0.00141281
0.00582722
0.000489399
0.00491008
0.00241459
-0.107274
-0.0918767
0.112539
-0.101262
-0.0881268
-0.0936071
-0.0826114
-0.0853059
-0.0787772
-0.0759376
-0.074174
-0.0660455
-0.069535
-0.0555978
-0.0639194
-0.0450191
-0.0573171
-0.0346587
-0.0495037
-0.0250205
-0.0406733
-0.0165904
-0.0312454
-0.00974702
-0.0218896
-0.00465827
-0.013331
-0.00126158
-0.00613981
0.000674624
-0.000599005
0.00145378
0.00326721
0.00142335
0.00554362
0.000926673
0.0063239
0.000325744
0.00551101
0.00274033
-0.102123
-0.095279
0.105525
-0.0980514
-0.0921983
-0.0926785
-0.0879842
-0.0865246
-0.0849311
-0.0793117
-0.0813869
-0.071234
-0.0776126
-0.0622596
-0.0728938
-0.0525998
-0.0669768
-0.0425426
-0.059561
-0.0325695
-0.0506463
-0.023273
-0.0405419
-0.0152455
-0.029917
-0.00890571
-0.0196708
-0.00437886
-0.0106667
-0.00151072
-0.00346715
1.62492e-05
0.00174024
0.000553134
0.00500674
0.000489567
0.00638747
0.000188509
0.00581207
0.00292884
-0.0969751
-0.0975318
0.0992278
-0.0942098
-0.0949636
-0.090515
-0.091679
-0.0861215
-0.0893247
-0.0808014
-0.0867071
-0.0745512
-0.0838628
-0.0672524
-0.0801926
-0.0589227
-0.0753066
-0.0496884
-0.0687953
-0.0398929
-0.0604418
-0.0301008
-0.050334
-0.0210339
-0.038984
-0.013382
-0.0273226
-0.00756916
-0.0164795
-0.00363253
-0.00740378
-0.001305
-0.000587291
-0.000177637
0.00387938
0.000158673
0.00605116
0.000100668
0.00587008
0.00302951
-0.0920972
-0.0991298
0.0936953
-0.0902056
-0.0968552
-0.0876591
-0.0942256
-0.0846075
-0.0923763
-0.0808175
-0.090497
-0.0762008
-0.0884795
-0.070563
-0.0858304
-0.0637718
-0.0820978
-0.0557729
-0.0767942
-0.0466974
-0.0695173
-0.0369421
-0.0600892
-0.0271945
-0.0487316
-0.0183197
-0.0361975
-0.0110869
-0.0237123
-0.00587242
-0.0126182
-0.00257626
-0.00388345
-0.000803154
0.00210627
-7.44793e-05
0.00532248
6.03858e-05
0.00573521
0.00308989
-0.0876582
-0.100372
0.0889001
-0.0862867
-0.0982267
-0.0845113
-0.096001
-0.0824099
-0.0944776
-0.0797902
-0.0931167
-0.0765149
-0.0917548
-0.0723623
-0.089983
-0.0671103
-0.0873498
-0.0605635
-0.083341
-0.0526432
-0.0774376
-0.0434995
-0.069233
-0.0336206
-0.0586104
-0.0238517
-0.0459664
-0.0152131
-0.0323509
-0.00851431
-0.019317
-0.00401331
-0.00838444
-0.00143704
-0.000470002
-0.000262806
0.00414825
5.01137e-05
0.00542229
0.00314001
-0.0836858
-0.101425
0.0847388
-0.082611
-0.0993014
-0.0813156
-0.0972964
-0.0798593
-0.0959339
-0.078084
-0.0948921
-0.0758478
-0.093991
-0.0729269
-0.0929039
-0.0690657
-0.0912111
-0.0639898
-0.0884168
-0.0574667
-0.0839608
-0.0494074
-0.0772922
-0.0400118
-0.068006
-0.029903
-0.0560753
-0.020125
-0.0421289
-0.0118541
-0.0275879
-0.00587351
-0.014365
-0.00224272
-0.00410079
-0.00048566
0.00239119
4.86517e-05
0.00488798
0.00318866
-0.0801642
-0.102394
0.0811331
-0.0792404
-0.100225
-0.0782273
-0.0983094
-0.0771797
-0.0969816
-0.0759854
-0.0960864
-0.0745129
-0.0954635
-0.0725586
-0.0948582
-0.0698664
-0.0939032
-0.0661369
-0.0921462
-0.0610556
-0.0890421