/*--------------------------------*- C++ -*----------------------------------*\
| =========                 |                                                 |
| \\      /  F ield         | OpenFOAM: The Open Source CFD Toolbox           |
|  \\    /   O peration     | Version:  v1806                                 |
|   \\  /    A nd           | Web:      www.OpenFOAM.com                      |
|    \\/     M anipulation  |                                                 |
\*---------------------------------------------------------------------------*/
FoamFile
{
    version     2.0;
    format      ascii;
    class       volVectorField;
    location    "260";
    object      U;
}
// * * * * * * * * * * * * * * * * * * * * * * * * * * * * * * * * * * * * * //

dimensions      [0 1 -1 0 0 0 0];


internalField   nonuniform List<vector> 
5220
(
(-0.0395633 -0.0147261 0.000155026)
(-0.0395765 -0.0147421 -4.99178e-08)
(-0.0395765 -0.0147421 4.99418e-08)
(-0.0395633 -0.0147261 -0.000155026)
(-0.0345329 -0.0190174 0.000159049)
(-0.0345334 -0.019023 2.1682e-09)
(-0.0345334 -0.019023 -2.09893e-09)
(-0.0345329 -0.0190174 -0.000159049)
(-0.0490202 -0.0218584 0.000168149)
(-0.0490219 -0.0218536 -2.28772e-08)
(-0.0490219 -0.0218536 2.29015e-08)
(-0.0490202 -0.0218584 -0.000168149)
(-0.0217162 -0.024053 0.000144735)
(-0.0217074 -0.0240541 -5.39953e-08)
(-0.0217074 -0.0240541 5.39776e-08)
(-0.0217162 -0.024053 -0.000144735)
(-0.0226241 -0.0221529 0.000146218)
(-0.0226177 -0.0221501 -4.71015e-08)
(-0.0226177 -0.0221501 4.70896e-08)
(-0.0226241 -0.0221529 -0.000146218)
(-0.0229565 -0.0238856 0.000147559)
(-0.0229501 -0.023889 -4.69236e-08)
(-0.0229501 -0.023889 4.69199e-08)
(-0.0229565 -0.0238856 -0.000147559)
(-0.022523 -0.025613 0.000146243)
(-0.0225155 -0.0256182 -4.79827e-08)
(-0.0225155 -0.0256182 4.79795e-08)
(-0.022523 -0.025613 -0.000146243)
(-0.0212739 -0.0265388 0.000146386)
(-0.0212629 -0.0265416 -3.17011e-08)
(-0.0212629 -0.0265416 3.16888e-08)
(-0.0212739 -0.0265388 -0.000146386)
(-0.0257239 -0.0295246 0.000149889)
(-0.0257172 -0.0295316 -4.43273e-08)
(-0.0257172 -0.0295316 4.43044e-08)
(-0.0257239 -0.0295246 -0.000149889)
(-0.0263244 -0.0257666 0.000149527)
(-0.0263239 -0.0257652 -5.59833e-08)
(-0.0263239 -0.0257652 5.59939e-08)
(-0.0263244 -0.0257666 -0.000149527)
(-0.0237301 -0.0275904 0.00014766)
(-0.0237247 -0.0275966 -5.09287e-08)
(-0.0237247 -0.0275966 5.09299e-08)
(-0.0237301 -0.0275904 -0.00014766)
(-0.0454024 -0.0293809 0.00016349)
(-0.0454012 -0.0293843 -3.90215e-08)
(-0.0454012 -0.0293843 3.90369e-08)
(-0.0454024 -0.0293809 -0.00016349)
(0.194809 0.0202503 -0.00165037)
(0.19484 0.02025 1.51593e-07)
(0.19484 0.02025 -1.51582e-07)
(0.194809 0.0202503 0.00165037)
(0.175131 0.0097116 -0.00179736)
(0.175182 0.00973507 2.60096e-07)
(0.175182 0.00973507 -2.60091e-07)
(0.175131 0.0097116 0.00179736)
(0.2918 0.198639 0.000325077)
(0.291795 0.198593 3.80674e-08)
(0.291795 0.198593 -3.80558e-08)
(0.2918 0.198639 -0.000325077)
(0.291445 0.215239 9.78579e-05)
(0.291456 0.215163 -1.35124e-07)
(0.291456 0.215163 1.35116e-07)
(0.291445 0.215239 -9.78578e-05)
(-0.049391 0.000774942 0.000196401)
(-0.0493832 0.000788078 1.67216e-08)
(-0.0493832 0.000788078 -1.67351e-08)
(-0.049391 0.000774942 -0.000196401)
(-0.0528155 -0.0128531 0.000179487)
(-0.0528099 -0.0128495 -1.00705e-08)
(-0.0528099 -0.0128495 1.00591e-08)
(-0.0528155 -0.0128531 -0.000179486)
(-0.0413571 -0.005237 0.000164137)
(-0.0413289 -0.00523387 -1.20872e-07)
(-0.0413289 -0.00523387 1.20796e-07)
(-0.0413571 -0.005237 -0.000164137)
(0.138362 0.0213563 -0.0019681)
(0.138318 0.0213695 4.38588e-08)
(0.138318 0.0213695 -4.38534e-08)
(0.138362 0.0213563 0.0019681)
(0.14376 0.0453381 -0.00191616)
(0.143718 0.0453629 7.80654e-08)
(0.143718 0.0453629 -7.80585e-08)
(0.14376 0.0453381 0.00191616)
(0.113807 0.0348625 -0.00210605)
(0.113793 0.0349066 -6.40114e-08)
(0.113793 0.0349066 6.40142e-08)
(0.113807 0.0348625 0.00210605)
(-0.00622372 0.0138099 0.000274972)
(-0.00620516 0.0138239 -3.4206e-08)
(-0.00620516 0.0138239 3.42226e-08)
(-0.00622372 0.0138099 -0.000274972)
(-0.012034 0.0116756 0.000270183)
(-0.0120124 0.0116667 -4.33024e-08)
(-0.0120124 0.0116667 4.33048e-08)
(-0.012034 0.0116756 -0.000270183)
(-0.0102186 0.00720865 0.000266772)
(-0.0101947 0.00719978 -1.38097e-07)
(-0.0101947 0.00719978 1.38217e-07)
(-0.0102186 0.00720865 -0.000266772)
(-0.0308642 -0.0264001 0.000151436)
(-0.0308606 -0.0264021 -4.61655e-08)
(-0.0308606 -0.0264021 4.61649e-08)
(-0.0308642 -0.0264001 -0.000151436)
(-0.0114263 -0.0382277 0.000162292)
(-0.0114205 -0.0382324 -2.30612e-08)
(-0.0114205 -0.0382324 2.30009e-08)
(-0.0114263 -0.0382277 -0.000162292)
(-0.0182103 -0.0391692 0.000162873)
(-0.0182041 -0.0391758 -2.12232e-08)
(-0.0182041 -0.0391758 2.11903e-08)
(-0.0182103 -0.0391692 -0.000162873)
(-0.0377061 -0.0272922 0.00015478)
(-0.0377074 -0.0272853 -5.46599e-08)
(-0.0377074 -0.0272853 5.46232e-08)
(-0.0377061 -0.0272922 -0.00015478)
(-0.0438494 -0.0422349 0.000183349)
(-0.0438482 -0.0422521 -4.79538e-08)
(-0.0438482 -0.0422521 4.79791e-08)
(-0.0438494 -0.0422349 -0.000183349)
(-0.0472859 -0.0453415 0.000205368)
(-0.0472743 -0.0453522 -2.66139e-08)
(-0.0472743 -0.0453522 2.66271e-08)
(-0.0472859 -0.0453415 -0.000205368)
(-0.054179 -0.0365112 0.00018054)
(-0.0541751 -0.0365218 -6.85475e-08)
(-0.0541751 -0.0365218 6.85656e-08)
(-0.054179 -0.0365112 -0.00018054)
(-0.0614786 -0.0412441 0.000202947)
(-0.0614661 -0.041253 -4.25093e-08)
(-0.0614661 -0.041253 4.25068e-08)
(-0.0614786 -0.0412441 -0.000202947)
(-0.0228918 -0.0217633 0.000149925)
(-0.0228868 -0.0217636 -2.64605e-08)
(-0.0228868 -0.0217636 2.64646e-08)
(-0.0228918 -0.0217633 -0.000149925)
(-0.0275585 -0.0205391 0.000151113)
(-0.0275541 -0.0205339 -6.57693e-08)
(-0.0275541 -0.0205339 6.5822e-08)
(-0.0275585 -0.0205391 -0.000151113)
(-0.0239521 -0.0250967 0.000148519)
(-0.0239487 -0.0250993 -4.47576e-08)
(-0.0239487 -0.0250993 4.47379e-08)
(-0.0239521 -0.0250967 -0.000148519)
(-0.0222859 -0.0223286 0.000148712)
(-0.0222795 -0.0223248 -6.19463e-08)
(-0.0222795 -0.0223248 6.19284e-08)
(-0.0222859 -0.0223286 -0.000148712)
(-0.0195226 -0.0191382 0.000149398)
(-0.0195212 -0.0191356 -5.37639e-08)
(-0.0195212 -0.0191356 5.37561e-08)
(-0.0195226 -0.0191382 -0.000149398)
(-0.0384557 -0.0378761 0.000169724)
(-0.0384556 -0.0378853 -8.99301e-09)
(-0.0384556 -0.0378853 8.9989e-09)
(-0.0384557 -0.0378761 -0.000169724)
(-0.0333111 -0.0346298 0.000159787)
(-0.0333042 -0.0346347 -4.08332e-08)
(-0.0333042 -0.0346347 4.07829e-08)
(-0.0333111 -0.0346298 -0.000159787)
(-0.0289012 -0.0318924 0.000153724)
(-0.028896 -0.0318964 -3.80285e-08)
(-0.028896 -0.0318964 3.79576e-08)
(-0.0289012 -0.0318924 -0.000153724)
(-0.0677555 -0.0440491 0.000227183)
(-0.0677448 -0.0440595 -4.17448e-08)
(-0.0677448 -0.0440595 4.17543e-08)
(-0.0677555 -0.0440491 -0.000227183)
(-0.0501506 -0.046226 0.000229664)
(-0.0501398 -0.046238 -2.9395e-08)
(-0.0501398 -0.046238 2.93913e-08)
(-0.0501506 -0.046226 -0.000229664)
(-0.0716235 -0.0443429 0.000250972)
(-0.0716083 -0.0443525 -2.96454e-08)
(-0.0716083 -0.0443525 2.96388e-08)
(-0.0716235 -0.0443429 -0.000250972)
(-0.0507546 -0.0442402 0.000254616)
(-0.0507384 -0.0442489 -1.94495e-08)
(-0.0507384 -0.0442489 1.94087e-08)
(-0.0507546 -0.0442402 -0.000254616)
(-0.0189771 -0.0178062 0.000146389)
(-0.0189676 -0.0178061 -6.86779e-08)
(-0.0189676 -0.0178061 6.86636e-08)
(-0.0189771 -0.0178062 -0.000146389)
(-0.0217211 -0.0155664 0.000148699)
(-0.0217228 -0.0155597 -3.71087e-08)
(-0.0217228 -0.0155597 3.71207e-08)
(-0.0217211 -0.0155664 -0.000148699)
(-0.061774 -0.0286466 0.000184108)
(-0.0617749 -0.0286491 -7.65744e-08)
(-0.0617749 -0.0286491 7.65753e-08)
(-0.061774 -0.0286466 -0.000184108)
(-0.0724403 -0.0341834 0.000205225)
(-0.0724291 -0.0341873 -4.65082e-08)
(-0.0724291 -0.0341873 4.6469e-08)
(-0.0724403 -0.0341834 -0.000205225)
(-0.0820882 -0.0385384 0.000227839)
(-0.0820801 -0.0385463 -4.82909e-08)
(-0.0820801 -0.0385463 4.8275e-08)
(-0.0820882 -0.0385384 -0.000227839)
(-0.0891033 -0.0414781 0.000249719)
(-0.0890906 -0.0414867 -3.47135e-08)
(-0.0890906 -0.0414867 3.47183e-08)
(-0.0891033 -0.0414781 -0.000249719)
(-0.0930928 -0.0421794 0.000265564)
(-0.0930832 -0.0421889 -2.13819e-08)
(-0.0930832 -0.0421889 2.13711e-08)
(-0.0930928 -0.0421794 -0.000265564)
(-0.0727203 -0.0418221 0.000269878)
(-0.0727077 -0.0418318 -1.25703e-08)
(-0.0727077 -0.0418318 1.25129e-08)
(-0.0727203 -0.0418221 -0.000269878)
(-0.0494826 -0.0391477 0.000275274)
(-0.0494701 -0.0391541 -2.48302e-11)
(-0.0494701 -0.0391541 2.05506e-11)
(-0.0494826 -0.0391477 -0.000275274)
(-0.0318316 -0.0463682 0.000208206)
(-0.0318219 -0.046376 -2.24543e-08)
(-0.0318219 -0.046376 2.2463e-08)
(-0.0318316 -0.0463682 -0.000208206)
(-0.0309226 -0.0449721 0.000188017)
(-0.0309175 -0.0449869 -2.57648e-08)
(-0.0309175 -0.0449869 2.57824e-08)
(-0.0309226 -0.0449721 -0.000188017)
(-0.0165888 -0.0156591 0.000151059)
(-0.0165852 -0.0156552 -5.29765e-08)
(-0.0165852 -0.0156552 5.29749e-08)
(-0.0165888 -0.0156591 -0.000151059)
(-0.0168184 -0.0163339 0.000147645)
(-0.0168186 -0.0163314 -6.35259e-08)
(-0.0168186 -0.0163314 6.35138e-08)
(-0.0168184 -0.0163339 -0.000147645)
(-0.0126365 -0.0116599 0.000148047)
(-0.0126322 -0.011655 -4.88707e-08)
(-0.0126322 -0.011655 4.88721e-08)
(-0.0126365 -0.0116599 -0.000148047)
(-0.0111552 -0.0107315 0.000149106)
(-0.0111552 -0.0107277 -4.23276e-08)
(-0.0111552 -0.0107277 4.23204e-08)
(-0.0111552 -0.0107315 -0.000149106)
(-0.0143912 -0.0138135 0.000149482)
(-0.0143914 -0.013809 -6.01529e-08)
(-0.0143914 -0.013809 6.01539e-08)
(-0.0143912 -0.0138135 -0.000149482)
(-0.00989384 -0.0095301 0.000150584)
(-0.00989186 -0.00952519 -4.59139e-08)
(-0.00989186 -0.00952519 4.59159e-08)
(-0.00989384 -0.0095301 -0.000150584)
(-0.0137283 -0.0127974 0.000151222)
(-0.0137234 -0.0127914 -6.4814e-08)
(-0.0137234 -0.0127914 6.48047e-08)
(-0.0137283 -0.0127974 -0.000151222)
(-0.00930328 -0.00878451 0.00015209)
(-0.00929708 -0.00877599 -5.31385e-08)
(-0.00929708 -0.00877599 5.31356e-08)
(-0.00930328 -0.00878451 -0.00015209)
(-0.0224416 -0.0217626 0.00014835)
(-0.022434 -0.0217669 -5.69666e-08)
(-0.022434 -0.0217669 5.6981e-08)
(-0.0224416 -0.0217626 -0.00014835)
(-0.0211816 -0.0192706 0.000149703)
(-0.0211758 -0.0192742 -6.42573e-08)
(-0.0211758 -0.0192742 6.42659e-08)
(-0.0211816 -0.0192706 -0.000149703)
(-0.0189721 -0.016283 0.000151569)
(-0.0189677 -0.0162847 -7.24955e-08)
(-0.0189677 -0.0162847 7.2492e-08)
(-0.0189721 -0.016283 -0.000151569)
(-0.0153715 -0.0132492 0.000154147)
(-0.0153691 -0.0132571 -7.9332e-08)
(-0.0153691 -0.0132571 7.93241e-08)
(-0.0153715 -0.0132492 -0.000154147)
(-0.0103755 -0.00940631 0.000154171)
(-0.0103746 -0.00941074 -8.9071e-08)
(-0.0103746 -0.00941074 8.90683e-08)
(-0.0103755 -0.00940631 -0.000154171)
(-0.0216963 -0.0290573 0.000148214)
(-0.0216892 -0.0290631 -2.7752e-08)
(-0.0216892 -0.0290631 2.77604e-08)
(-0.0216963 -0.0290573 -0.000148214)
(-0.0224899 -0.0318632 0.000150772)
(-0.0224883 -0.0318694 -1.90124e-08)
(-0.0224883 -0.0318694 1.89921e-08)
(-0.0224899 -0.0318632 -0.000150772)
(-0.0240703 -0.0350443 0.000154604)
(-0.0240693 -0.03505 -3.82964e-08)
(-0.0240693 -0.03505 3.82614e-08)
(-0.0240703 -0.0350443 -0.000154604)
(-0.0284714 -0.0417838 0.000172826)
(-0.0284677 -0.0417891 -3.1046e-08)
(-0.0284677 -0.0417891 3.10608e-08)
(-0.0284714 -0.0417838 -0.000172826)
(-0.0259022 -0.0383267 0.000161804)
(-0.0258966 -0.038334 -3.38822e-08)
(-0.0258966 -0.038334 3.38916e-08)
(-0.0259022 -0.0383267 -0.000161804)
(-0.0136031 -0.0103974 0.000149219)
(-0.0136005 -0.010394 -2.90134e-08)
(-0.0136005 -0.010394 2.89895e-08)
(-0.0136031 -0.0103974 -0.000149219)
(-0.0312625 -0.0455552 0.00023234)
(-0.0312521 -0.0455654 -1.57164e-08)
(-0.0312521 -0.0455654 1.56903e-08)
(-0.0312625 -0.0455552 -0.00023234)
(-0.0293857 -0.0415794 0.000256336)
(-0.0293725 -0.0415844 -1.18712e-08)
(-0.0293725 -0.0415844 1.17953e-08)
(-0.0293857 -0.0415794 -0.000256336)
(-0.026328 -0.0345395 0.000276857)
(-0.0263176 -0.0345391 3.94909e-09)
(-0.0263176 -0.0345391 -3.94734e-09)
(-0.026328 -0.0345395 -0.000276857)
(-0.025106 -0.0117608 0.000150886)
(-0.0250983 -0.0117625 -6.69321e-08)
(-0.0250983 -0.0117625 6.69128e-08)
(-0.025106 -0.0117608 -0.000150886)
(-0.065774 -0.0180876 0.000193205)
(-0.0657796 -0.0180821 -7.44944e-08)
(-0.0657796 -0.0180821 7.44991e-08)
(-0.065774 -0.0180876 -0.000193205)
(-0.0777479 -0.0236215 0.000214093)
(-0.0777396 -0.0236216 -3.79124e-08)
(-0.0777396 -0.0236216 3.78684e-08)
(-0.0777479 -0.0236215 -0.000214093)
(-0.0897059 -0.0298299 0.000236306)
(-0.0897028 -0.0298345 -5.04019e-08)
(-0.0897028 -0.0298345 5.03964e-08)
(-0.0897059 -0.0298299 -0.000236306)
(-0.0992709 -0.0354175 0.000256727)
(-0.099261 -0.0354227 -4.34108e-08)
(-0.099261 -0.0354227 4.34279e-08)
(-0.0992709 -0.0354175 -0.000256727)
(-0.105884 -0.0396221 0.000269734)
(-0.105879 -0.0396266 -3.0632e-08)
(-0.105879 -0.0396266 3.06178e-08)
(-0.105884 -0.0396221 -0.000269734)
(-0.108591 -0.0417552 0.000269992)
(-0.108591 -0.0417648 -1.22316e-08)
(-0.108591 -0.0417648 1.22053e-08)
(-0.108591 -0.0417552 -0.000269992)
(-0.0930631 -0.0402478 0.000270716)
(-0.0930602 -0.0402584 3.25352e-09)
(-0.0930602 -0.0402584 -3.28924e-09)
(-0.0930631 -0.0402478 -0.000270716)
(-0.0704935 -0.0363493 0.000278981)
(-0.0704905 -0.036355 1.45362e-08)
(-0.0704905 -0.036355 -1.45972e-08)
(-0.0704935 -0.0363493 -0.000278981)
(-0.0456422 -0.030945 0.000286602)
(-0.0456398 -0.0309454 1.70591e-08)
(-0.0456398 -0.0309454 -1.69844e-08)
(-0.0456422 -0.030945 -0.000286602)
(-0.0219148 -0.0248075 0.000289092)
(-0.0219101 -0.0248023 1.50764e-08)
(-0.0219101 -0.0248023 -1.51825e-08)
(-0.0219148 -0.0248075 -0.000289092)
(-0.0179606 -0.044541 0.000190492)
(-0.0179566 -0.044551 -1.43557e-08)
(-0.0179566 -0.044551 1.43519e-08)
(-0.0179606 -0.044541 -0.000190492)
(-0.0165712 -0.0447515 0.000209248)
(-0.0165639 -0.0447589 -2.18568e-08)
(-0.0165639 -0.0447589 2.18737e-08)
(-0.0165712 -0.0447515 -0.000209248)
(-0.0231075 -0.0201812 0.000147799)
(-0.0231017 -0.0201766 -5.3459e-08)
(-0.0231017 -0.0201766 5.34483e-08)
(-0.0231075 -0.0201812 -0.000147799)
(-0.0229735 -0.0179444 0.000150164)
(-0.0229689 -0.0179361 -4.58605e-08)
(-0.0229689 -0.0179361 4.58567e-08)
(-0.0229735 -0.0179444 -0.000150164)
(-0.0217623 -0.01531 0.000153533)
(-0.0217587 -0.0152929 -4.55136e-08)
(-0.0217587 -0.0152929 4.5512e-08)
(-0.0217623 -0.01531 -0.000153533)
(-0.0184412 -0.0126681 0.000158995)
(-0.0184373 -0.0126552 -2.13482e-08)
(-0.0184373 -0.0126552 2.13469e-08)
(-0.0184412 -0.0126681 -0.000158995)
(-0.012459 -0.00892266 0.000161595)
(-0.0124478 -0.0089079 -2.55427e-08)
(-0.0124478 -0.0089079 2.55446e-08)
(-0.012459 -0.00892266 -0.000161595)
(-0.0204945 -0.0230216 0.000143632)
(-0.0204855 -0.0230225 -4.76509e-08)
(-0.0204855 -0.0230225 4.76391e-08)
(-0.0204945 -0.0230216 -0.000143632)
(-0.0219077 -0.0204851 0.000143943)
(-0.0218962 -0.0204836 -6.18087e-08)
(-0.0218962 -0.0204836 6.18057e-08)
(-0.0219077 -0.0204851 -0.000143943)
(0.122555 -0.00318548 -0.00212107)
(0.122533 -0.00319815 1.72779e-08)
(0.122533 -0.00319815 -1.72732e-08)
(0.122555 -0.00318548 0.00212107)
(0.153467 -0.000852864 -0.00195669)
(0.153508 -0.000814834 2.00437e-07)
(0.153508 -0.000814834 -2.0044e-07)
(0.153467 -0.000852864 0.00195669)
(0.167879 0.0406159 -0.00180552)
(0.167921 0.0406186 3.87944e-07)
(0.167921 0.0406186 -3.87942e-07)
(0.167879 0.0406159 0.00180552)
(-0.0193378 -0.0257134 0.000144326)
(-0.0193303 -0.0257105 -4.82668e-08)
(-0.0193303 -0.0257105 4.82431e-08)
(-0.0193378 -0.0257134 -0.000144326)
(-0.0183165 -0.0356644 0.000154293)
(-0.0183112 -0.0356709 -3.33234e-08)
(-0.0183112 -0.0356709 3.32574e-08)
(-0.0183165 -0.0356644 -0.000154293)
(-0.018624 -0.0287017 0.000146061)
(-0.018617 -0.0287008 -4.1847e-08)
(-0.018617 -0.0287008 4.1821e-08)
(-0.018624 -0.0287017 -0.000146061)
(-0.0184271 -0.032178 0.000149418)
(-0.018423 -0.0321783 -3.40799e-08)
(-0.018423 -0.0321783 3.40342e-08)
(-0.0184271 -0.032178 -0.000149418)
(-0.0136115 -0.0423066 0.000231723)
(-0.0136029 -0.0423137 -8.79757e-09)
(-0.0136029 -0.0423137 8.75576e-09)
(-0.0136115 -0.0423066 -0.000231723)
(-0.00977729 -0.0367329 0.000253486)
(-0.00976961 -0.0367347 -1.06848e-08)
(-0.00976961 -0.0367347 1.05573e-08)
(-0.00977729 -0.0367329 -0.000253486)
(-0.00564856 -0.0285551 0.000272289)
(-0.00564234 -0.0285514 -5.21964e-09)
(-0.00564234 -0.0285514 5.24198e-09)
(-0.00564856 -0.0285551 -0.000272289)
(-0.00116581 -0.0182431 0.000284177)
(-0.00116044 -0.0182343 1.29314e-09)
(-0.00116044 -0.0182343 -1.1685e-09)
(-0.00116581 -0.0182431 -0.000284177)
(-0.0183346 -0.0423354 0.000174699)
(-0.0183302 -0.0423434 -2.21679e-08)
(-0.0183302 -0.0423434 2.21397e-08)
(-0.0183346 -0.0423354 -0.000174699)
(-0.00693611 -0.0419062 0.000189152)
(-0.00693246 -0.0419145 -1.31924e-08)
(-0.00693246 -0.0419145 1.31998e-08)
(-0.00693611 -0.0419062 -0.000189152)
(-0.00307223 -0.0409457 0.0002072)
(-0.00306639 -0.0409549 -1.19015e-08)
(-0.00306639 -0.0409549 1.19082e-08)
(-0.00307223 -0.0409457 -0.0002072)
(-0.106598 -0.0411546 0.00025466)
(-0.106607 -0.0411628 1.5933e-09)
(-0.106607 -0.0411628 -1.54575e-09)
(-0.106598 -0.0411546 -0.00025466)
(-0.0886559 -0.0354211 0.00026173)
(-0.088666 -0.0354273 1.65321e-08)
(-0.088666 -0.0354273 -1.64287e-08)
(-0.0886559 -0.0354211 -0.00026173)
(-0.0644777 -0.0281918 0.000275413)
(-0.0644873 -0.0281919 1.44503e-08)
(-0.0644873 -0.0281919 -1.45614e-08)
(-0.0644777 -0.0281918 -0.000275413)
(-0.0391794 -0.0204149 0.000286186)
(-0.039187 -0.0204134 1.0842e-08)
(-0.039187 -0.0204134 -1.08159e-08)
(-0.0391794 -0.0204149 -0.000286186)
(-0.0150451 -0.0130583 0.000291091)
(-0.015047 -0.0130544 1.32499e-08)
(-0.015047 -0.0130544 -1.3284e-08)
(-0.0150451 -0.0130583 -0.000291091)
(0.0053522 -0.00594434 0.000287568)
(0.0053552 -0.00593878 4.98612e-09)
(0.0053552 -0.00593878 -4.8388e-09)
(0.0053522 -0.00594434 -0.000287568)
(-0.0627608 -0.00432208 0.00021114)
(-0.0627718 -0.00431557 -4.97022e-08)
(-0.0627718 -0.00431557 4.96877e-08)
(-0.0627608 -0.00432208 -0.00021114)
(-0.0751034 -0.010918 0.000233891)
(-0.0751012 -0.0109123 -2.99379e-08)
(-0.0751012 -0.0109123 2.98745e-08)
(-0.0751034 -0.010918 -0.000233891)
(-0.0876383 -0.0186504 0.000256638)
(-0.0876383 -0.0186439 -5.32596e-08)
(-0.0876383 -0.0186439 5.32396e-08)
(-0.0876383 -0.0186504 -0.000256638)
(-0.0986811 -0.0268786 0.000276467)
(-0.0986718 -0.0268683 -5.67383e-08)
(-0.0986718 -0.0268683 5.67515e-08)
(-0.0986811 -0.0268786 -0.000276467)
(-0.106826 -0.0341885 0.000287384)
(-0.106824 -0.0341771 -2.94458e-08)
(-0.106824 -0.0341771 2.94252e-08)
(-0.106826 -0.0341885 -0.000287384)
(-0.111903 -0.0403654 0.000283267)
(-0.111905 -0.0403628 -2.04305e-08)
(-0.111905 -0.0403628 2.03733e-08)
(-0.111903 -0.0403654 -0.000283267)
(-0.112497 -0.0442326 0.000261703)
(-0.112507 -0.0442294 -3.11263e-09)
(-0.112507 -0.0442294 3.15492e-09)
(-0.112497 -0.0442326 -0.000261703)
(-0.0293778 -0.00429682 0.000156879)
(-0.0293845 -0.00429533 -1.38569e-08)
(-0.0293845 -0.00429533 1.38432e-08)
(-0.0293778 -0.00429682 -0.000156879)
(-0.0139623 -0.00634435 0.000151302)
(-0.0139579 -0.00634474 -3.50643e-08)
(-0.0139579 -0.00634474 3.49702e-08)
(-0.0139623 -0.00634435 -0.000151302)
(-0.0233864 -0.0184442 0.000145894)
(-0.0233745 -0.0184441 -7.34175e-08)
(-0.0233745 -0.0184441 7.3413e-08)
(-0.0233864 -0.0184442 -0.000145894)
(-0.0243752 -0.0169748 0.000148647)
(-0.0243593 -0.0169805 -8.80228e-08)
(-0.0243593 -0.0169805 8.80184e-08)
(-0.0243752 -0.0169748 -0.000148647)
(-0.0246566 -0.0157388 0.000150999)
(-0.0246454 -0.0157415 -1.35446e-07)
(-0.0246454 -0.0157415 1.35444e-07)
(-0.0246566 -0.0157388 -0.000150999)
(-0.0227497 -0.0154447 0.000155819)
(-0.0227432 -0.0154585 -1.24371e-07)
(-0.0227432 -0.0154585 1.24367e-07)
(-0.0227497 -0.0154447 -0.000155819)
(-0.0179783 -0.0129325 0.000154685)
(-0.0179714 -0.0129391 -1.70194e-07)
(-0.0179714 -0.0129391 1.70191e-07)
(-0.0179783 -0.0129325 -0.000154685)
(-0.0129142 -0.0350354 0.000153687)
(-0.0129078 -0.0350403 -2.36828e-08)
(-0.0129078 -0.0350403 2.36155e-08)
(-0.0129142 -0.0350354 -0.000153687)
(-0.00961721 -0.0407748 0.000174365)
(-0.00961223 -0.0407819 -1.45617e-08)
(-0.00961223 -0.0407819 1.45469e-08)
(-0.00961721 -0.0407748 -0.000174365)
(0.00143863 -0.0373509 0.000227189)
(0.00144266 -0.0373581 -3.37074e-09)
(0.00144266 -0.0373581 3.34709e-09)
(0.00143863 -0.0373509 -0.000227189)
(0.00690569 -0.0305944 0.000245807)
(0.00690724 -0.030599 -1.2367e-08)
(0.00690724 -0.030599 1.23071e-08)
(0.00690569 -0.0305944 -0.000245807)
(0.0120403 -0.0215573 0.000262405)
(0.0120411 -0.0215599 -1.24688e-08)
(0.0120411 -0.0215599 1.24671e-08)
(0.0120403 -0.0215573 -0.000262405)
(0.0164955 -0.0108826 0.000272579)
(0.0165017 -0.0108819 -2.09358e-08)
(0.0165017 -0.0108819 2.08667e-08)
(0.0164955 -0.0108826 -0.000272579)
(0.0203948 0.000328374 0.00027718)
(0.0204025 0.000338209 6.00015e-09)
(0.0204025 0.000338209 -6.44091e-09)
(0.0203948 0.000328374 -0.00027718)
(-0.0141164 -0.0313589 0.000147495)
(-0.0141093 -0.0313599 -3.40909e-08)
(-0.0141093 -0.0313599 3.40377e-08)
(-0.0141164 -0.0313589 -0.000147494)
(-0.0153568 -0.0276853 0.000143555)
(-0.0153485 -0.0276852 -4.00734e-08)
(-0.0153485 -0.0276852 4.00465e-08)
(-0.0153568 -0.0276853 -0.000143555)
(-0.0168716 -0.0241452 0.000141357)
(-0.0168639 -0.0241424 -4.97845e-08)
(-0.0168639 -0.0241424 4.9787e-08)
(-0.0168716 -0.0241452 -0.000141357)
(-0.0186136 -0.0213346 0.000140915)
(-0.0186056 -0.0213332 -5.00167e-08)
(-0.0186056 -0.0213332 5.00286e-08)
(-0.0186136 -0.0213346 -0.000140915)
(-0.0205308 -0.0185339 0.000141638)
(-0.0205212 -0.018531 -5.82072e-08)
(-0.0205212 -0.018531 5.82099e-08)
(-0.0205308 -0.0185339 -0.000141638)
(-0.0228009 -0.0162581 0.000144502)
(-0.0227953 -0.0162535 -6.01468e-08)
(-0.0227953 -0.0162535 6.01455e-08)
(-0.0228009 -0.0162581 -0.000144502)
(-0.0252246 -0.0143726 0.000150421)
(-0.0252183 -0.0143669 -3.90618e-08)
(-0.0252183 -0.0143669 3.90558e-08)
(-0.0252246 -0.0143726 -0.000150421)
(-0.0278269 -0.0124754 0.000159109)
(-0.0278311 -0.0124575 -4.20089e-08)
(-0.0278311 -0.0124575 4.20045e-08)
(-0.0278269 -0.0124754 -0.000159109)
(-0.0281256 -0.0113312 0.000176803)
(-0.0281272 -0.0113199 4.08904e-08)
(-0.0281272 -0.0113199 -4.08955e-08)
(-0.0281256 -0.0113312 -0.000176803)
(-0.0241998 -0.00700862 0.000188255)
(-0.0241847 -0.00698497 -9.22214e-10)
(-0.0241847 -0.00698497 9.18854e-10)
(-0.0241998 -0.00700862 -0.000188255)
(-0.0154723 0.00172213 0.000160614)
(-0.0154712 0.00171883 -2.1298e-08)
(-0.0154712 0.00171883 2.11073e-08)
(-0.0154723 0.00172213 -0.000160614)
(-0.0305841 0.00679586 0.000166847)
(-0.0305809 0.00680715 -7.96141e-08)
(-0.0305809 0.00680715 7.96437e-08)
(-0.0305841 0.00679586 -0.000166847)
(0.12856 -0.0407302 -0.00204899)
(0.128585 -0.0407433 2.75354e-07)
(0.128585 -0.0407433 -2.75349e-07)
(0.12856 -0.0407302 0.00204899)
(0.15538 -0.0261916 -0.00192612)
(0.155439 -0.0261665 2.03048e-07)
(0.155439 -0.0261665 -2.03051e-07)
(0.15538 -0.0261916 0.00192612)
(0.176938 -0.0154753 -0.00177744)
(0.176974 -0.0154533 1.62079e-07)
(0.176974 -0.0154533 -1.62081e-07)
(0.176938 -0.0154753 0.00177744)
(0.198607 -0.00974165 -0.00162457)
(0.198654 -0.0097123 1.80702e-07)
(0.198654 -0.0097123 -1.80705e-07)
(0.198607 -0.00974165 0.00162457)
(0.216152 -0.00698557 -0.00148205)
(0.216167 -0.00696721 -2.538e-08)
(0.216167 -0.00696721 2.53808e-08)
(0.216152 -0.00698557 0.00148205)
(0.215523 0.00943342 -0.0014893)
(0.215542 0.00948767 1.05097e-07)
(0.215542 0.00948767 -1.05093e-07)
(0.215523 0.00943342 0.0014893)
(-0.038038 0.0135127 0.00020843)
(-0.0380294 0.0135093 2.57691e-09)
(-0.0380294 0.0135093 -2.6117e-09)
(-0.038038 0.0135127 -0.00020843)
(-0.0521109 0.00905592 0.000232314)
(-0.0521171 0.00906518 -4.6091e-08)
(-0.0521171 0.00906518 4.60316e-08)
(-0.0521109 0.00905592 -0.000232314)
(-0.0636262 0.00179617 0.000261273)
(-0.0636243 0.0018066 -2.70129e-08)
(-0.0636243 0.0018066 2.69872e-08)
(-0.0636262 0.00179617 -0.000261273)
(-0.0753912 -0.00703655 0.00028729)
(-0.0753866 -0.00701854 -4.65858e-08)
(-0.0753866 -0.00701854 4.65995e-08)
(-0.0753912 -0.00703655 -0.00028729)
(-0.0854608 -0.0168697 0.000308101)
(-0.0854478 -0.0168469 -3.57157e-08)
(-0.0854478 -0.0168469 3.57516e-08)
(-0.0854608 -0.0168697 -0.000308101)
(-0.0932074 -0.0266383 0.000318379)
(-0.0932072 -0.0266161 4.01998e-09)
(-0.0932072 -0.0266161 -4.04412e-09)
(-0.0932074 -0.0266383 -0.000318379)
(-0.0991787 -0.0361377 0.000311225)
(-0.0991823 -0.0361253 -9.53772e-09)
(-0.0991823 -0.0361253 9.48325e-09)
(-0.0991787 -0.0361377 -0.000311225)
(-0.101146 -0.043712 0.000285274)
(-0.101153 -0.0437022 1.57817e-08)
(-0.101153 -0.0437022 -1.57533e-08)
(-0.101146 -0.043712 -0.000285274)
(-0.0996509 -0.0494035 0.000239756)
(-0.0996663 -0.0493979 1.51957e-09)
(-0.0996663 -0.0493979 -1.46561e-09)
(-0.0996509 -0.0494035 -0.000239756)
(-0.108886 -0.0456281 0.000222381)
(-0.108902 -0.0456297 -2.33478e-08)
(-0.108902 -0.0456297 2.3456e-08)
(-0.108886 -0.0456281 -0.000222381)
(-0.100144 -0.0377511 0.000223719)
(-0.100157 -0.0377611 -1.78547e-08)
(-0.100157 -0.0377611 1.80069e-08)
(-0.100144 -0.0377511 -0.000223719)
(-0.0802258 -0.0280333 0.000238744)
(-0.0802419 -0.0280398 -4.52279e-09)
(-0.0802419 -0.0280398 4.46551e-09)
(-0.0802258 -0.0280333 -0.000238744)
(-0.0551782 -0.0179975 0.000259411)
(-0.0551915 -0.0179992 2.90164e-09)
(-0.0551915 -0.0179992 -2.90136e-09)
(-0.0551782 -0.0179975 -0.000259411)
(-0.0298146 -0.0083673 0.000275037)
(-0.0298258 -0.00836781 6.88051e-10)
(-0.0298258 -0.00836781 -9.69099e-10)
(-0.0298146 -0.0083673 -0.000275037)
(-0.00614747 -0.000143737 0.000283631)
(-0.00615225 -0.000142911 2.68876e-09)
(-0.00615225 -0.000142911 -2.69498e-09)
(-0.00614747 -0.000143737 -0.000283631)
(0.0139242 0.00687012 0.000281821)
(0.0139218 0.00687285 -1.05037e-09)
(0.0139218 0.00687285 1.29699e-09)
(0.0139242 0.00687012 -0.000281821)
(0.0891187 0.00229254 -0.00226356)
(0.0891274 0.00225657 -3.80795e-08)
(0.0891274 0.00225657 3.80792e-08)
(0.0891187 0.00229254 0.00226356)
(0.0980532 -0.0515622 -0.00216861)
(0.0980911 -0.0515531 2.12688e-07)
(0.0980911 -0.0515531 -2.12688e-07)
(0.0980532 -0.0515622 0.00216861)
(0.0290172 0.0117639 0.000274464)
(0.0290157 0.0117737 4.98534e-09)
(0.0290157 0.0117737 -5.19742e-09)
(0.0290172 0.0117639 -0.000274464)
(0.0491594 0.0145421 -0.00237088)
(0.0491907 0.0145318 1.0082e-07)
(0.0491907 0.0145318 -1.00826e-07)
(0.0491594 0.0145421 0.00237088)
(0.143658 0.061468 -0.00190017)
(0.143646 0.0614344 1.12308e-07)
(0.143646 0.0614344 -1.12307e-07)
(0.143658 0.061468 0.00190017)
(0.0977428 0.0578975 -0.00212734)
(0.0977537 0.0579146 2.89512e-07)
(0.0977537 0.0579146 -2.8952e-07)
(0.0977428 0.0578975 0.00212734)
(0.218427 0.0304387 -0.00143502)
(0.218448 0.0304584 2.29746e-07)
(0.218448 0.0304584 -2.29742e-07)
(0.218427 0.0304387 0.00143502)
(0.200817 0.0352734 -0.0015875)
(0.200816 0.0352957 4.00475e-09)
(0.200816 0.0352957 -4.00096e-09)
(0.200817 0.0352734 0.0015875)
(0.181012 0.0514717 -0.0017073)
(0.181069 0.0514672 2.46073e-07)
(0.181069 0.0514672 -2.46075e-07)
(0.181012 0.0514717 0.0017073)
(0.172106 0.065745 -0.0017434)
(0.172111 0.0656967 8.95778e-08)
(0.172111 0.0656967 -8.95793e-08)
(0.172106 0.065745 0.0017434)
(0.155017 0.0962291 -0.00173965)
(0.154997 0.0962695 -9.70015e-08)
(0.154997 0.0962695 9.69993e-08)
(0.155017 0.0962291 0.00173965)
(0.116666 0.104894 -0.00189462)
(0.116665 0.104919 1.10982e-08)
(0.116665 0.104919 -1.11067e-08)
(0.116666 0.104894 0.00189462)
(0.232356 -0.00575547 -0.00133853)
(0.232363 -0.00574528 2.17272e-08)
(0.232363 -0.00574528 -2.17257e-08)
(0.232356 -0.00575547 0.00133853)
(0.231555 0.0105785 -0.0013439)
(0.231575 0.0105805 5.90501e-08)
(0.231575 0.0105805 -5.90506e-08)
(0.231555 0.0105785 0.0013439)
(0.234426 0.0240046 -0.00130699)
(0.23446 0.0240161 1.20981e-07)
(0.23446 0.0240161 -1.2099e-07)
(0.234426 0.0240046 0.00130699)
(0.137254 -0.0690794 -0.00193728)
(0.137232 -0.0690963 1.57036e-07)
(0.137232 -0.0690963 -1.57039e-07)
(0.137254 -0.0690794 0.00193728)
(0.163384 -0.0510599 -0.0018437)
(0.16344 -0.051053 1.81658e-07)
(0.16344 -0.051053 -1.81664e-07)
(0.163384 -0.0510599 0.0018437)
(0.181846 -0.0385377 -0.00171622)
(0.181898 -0.0385341 2.14359e-07)
(0.181898 -0.0385341 -2.14364e-07)
(0.181846 -0.0385377 0.00171622)
(0.202767 -0.0293808 -0.0015776)
(0.202808 -0.0293576 2.15844e-08)
(0.202808 -0.0293576 -2.15904e-08)
(0.202767 -0.0293808 0.0015776)
(0.219203 -0.0241066 -0.00143708)
(0.219209 -0.0241011 -1.36358e-08)
(0.219209 -0.0241011 1.36316e-08)
(0.219203 -0.0241066 0.00143708)
(0.234979 -0.019925 -0.00130439)
(0.234987 -0.0199051 -5.66102e-08)
(0.234987 -0.0199051 5.66088e-08)
(0.234979 -0.019925 0.00130439)
(0.116696 -0.0884094 -0.00203049)
(0.116685 -0.0884006 -1.42325e-07)
(0.116685 -0.0884006 1.42326e-07)
(0.116696 -0.0884094 0.00203049)
(0.0588679 -0.0604233 -0.00221745)
(0.058879 -0.060418 2.9159e-07)
(0.058879 -0.060418 -2.91608e-07)
(0.0588679 -0.0604233 0.00221745)
(0.0907004 0.0920504 -0.00208781)
(0.0906791 0.0920862 -9.36712e-08)
(0.0906791 0.0920862 9.36556e-08)
(0.0907004 0.0920504 0.00208781)
(0.15305 0.122451 -0.00159375)
(0.153031 0.122516 5.15346e-07)
(0.153031 0.122516 -5.15346e-07)
(0.15305 0.122451 0.00159375)
(0.170911 0.112074 -0.00156708)
(0.170973 0.112161 5.16399e-07)
(0.170973 0.112161 -5.16395e-07)
(0.170911 0.112074 0.00156708)
(0.173751 0.103597 -0.00158771)
(0.173762 0.103648 2.92126e-07)
(0.173762 0.103648 -2.9213e-07)
(0.173751 0.103597 0.00158771)
(0.185903 0.0826855 -0.00157899)
(0.185938 0.0827035 2.99193e-07)
(0.185938 0.0827035 -2.99197e-07)
(0.185903 0.0826855 0.00157899)
(0.195587 0.0713744 -0.00153526)
(0.195619 0.0713818 2.01031e-07)
(0.195619 0.0713818 -2.01038e-07)
(0.195587 0.0713744 0.00153526)
(0.212494 0.0539099 -0.00144334)
(0.212503 0.0539221 1.516e-07)
(0.212503 0.0539221 -1.51606e-07)
(0.212494 0.0539099 0.00144334)
(0.225494 0.0464711 -0.00133849)
(0.225528 0.0464564 1.88885e-07)
(0.225528 0.0464564 -1.8889e-07)
(0.225494 0.0464711 0.00133849)
(0.238879 0.0375676 -0.00123379)
(0.238906 0.0375734 1.35939e-07)