x,y,z,p
0,0,0,0.0199322
0,0.1,0,0.0438577
0,0.2,0,0.0677831
0,0.3,0,0.0956974
0,0.4,0,0.127601
0,0.5,0,0.159504
0,0.6,0,0.191399
0,0.7,0,0.223293
0,0.8,0,0.255173
0,0.9,0,0.287038
0,1,0,0.318903
0,1.1,0,0.350711
0,1.2,0,0.38252
0,1.3,0,0.414293
0,1.4,0,0.446031
0,1.5,0,0.477769
0,1.6,0,0.509403
0,1.7,0,0.541037
0,1.8,0,0.572586
0,1.9,0,0.60405
0,2,0,0.635513
0,2.1,0,0.666732
0,2.2,0,0.69795
0,2.3,0,0.72899
0,2.4,0,0.759854
0,2.5,0,0.790718
0,2.6,0,0.821057
0,2.7,0,0.851395
0,2.8,0,0.881339
0,2.9,0,0.910887
0,3,0,0.940435
0,3.1,0,0.96888
0,3.2,0,0.997324
0,3.3,0,1.02512
0,3.4,0,1.05226
0,3.5,0,1.0794
0,3.6,0,1.10522
0,3.7,0,1.13104
0,3.8,0,1.15628
0,3.9,0,1.18094
0,4,0,1.20559
0,4.1,0,1.2293
0,4.2,0,1.25301
0,4.3,0,1.2764
0,4.4,0,1.29946
0,4.5,0,1.32252
0,4.6,0,1.34478
0,4.7,0,1.36703
0,4.8,0,1.38642
0,4.9,0,1.40294
0,5,0,1.41946
0,5.1,0,1.44631
0,5.2,0,1.46266
0,5.3,0,1.4777
0,5.4,0,1.49113
0,5.5,0,1.50278
0,5.6,0,1.51267
0,5.7,0,1.52102
0,5.8,0,1.5281
0,5.9,0,1.53411
0,6,0,1.53904
0,6.1,0,1.54276
0,6.2,0,1.54509
0,6.3,0,1.54588
0,6.4,0,1.54502
0,6.5,0,1.5425
0,6.6,0,1.53834
0,6.7,0,1.53263
0,6.8,0,1.52553
0,6.9,0,1.51736
0,7,0,1.50284
0,7.1,0,1.49317
0,7.2,0,1.4835
0,7.3,0,1.47285
0,7.4,0,1.45662
0,7.5,0,1.44039
0,7.6,0,1.42266
0,7.7,0,1.40144
0,7.8,0,1.38022
0,7.9,0,1.35741
0,8,0,1.33267
0,8.1,0,1.30792
0,8.2,0,1.28246
0,8.3,0,1.25651
0,8.4,0,1.23057
0,8.5,0,1.20461
0,8.6,0,1.17865
0,8.7,0,1.15269
0,8.8,0,1.12658
0,8.9,0,1.10045
0,9,0,1.0743
0,9.1,0,1.04774
0,9.2,0,1.02117
0,9.3,0,0.994489
0,9.4,0,0.967344
0,9.5,0,0.940199
0,9.6,0,0.912818
0,9.7,0,0.884997
0,9.8,0,0.857176
0,9.9,0,0.829
0,10,0,0.80047
0,10.1,0,0.77194
0,10.2,0,0.742991
0,10.3,0,0.713816
0,10.4,0,0.684641
0,10.5,0,0.65508
0,10.6,0,0.625424
0,10.7,0,0.595767
0,10.8,0,0.565879
0,10.9,0,0.535978
0,11,0,0.506074
0,11.1,0,0.476129
0,11.2,0,0.446185
0,11.3,0,0.416257
0,11.4,0,0.386379
0,11.5,0,0.3565
0,11.6,0,0.326656
0,11.7,0,0.296864
0,11.8,0,0.267071
0,11.9,0,0.237318
0,12,0,0.207597
0,12.1,0,0.177876
0,12.2,0,0.148202
0,12.3,0,0.118548
0,12.4,0,0.0888946
0,12.5,0,0.0655324
0,12.6,0,0.0432806
0,12.7,0,0.0210288
0.1,0,0,0.0119593
0.1,0.1,0,0.0358781
0.1,0.2,0,0.063796
0.1,0.3,0,0.095701
0.1,0.4,0,0.127602
0.1,0.5,0,0.159517
0.1,0.6,0,0.191406
0.1,0.7,0,0.223306
0.1,0.8,0,0.255194
0.1,0.9,0,0.287061
0.1,1,0,0.318935
0.1,1.1,0,0.350745
0.1,1.2,0,0.382562
0.1,1.3,0,0.414337
0.1,1.4,0,0.446067
0.1,1.5,0,0.477841
0.1,1.6,0,0.509471
0.1,1.7,0,0.541121
0.1,1.8,0,0.572688
0.1,1.9,0,0.604152
0.1,2,0,0.635656
0.1,2.1,0,0.666875
0.1,2.2,0,0.69812
0.1,2.3,0,0.729195
0.1,2.4,0,0.760065
0.1,2.5,0,0.790997
0.1,2.6,0,0.821371
0.1,2.7,0,0.851766
0.1,2.8,0,0.88179
0.1,2.9,0,0.911363
0.1,3,0,0.941166
0.1,3.1,0,0.969506
0.1,3.2,0,0.998304
0.1,3.3,0,1.02612
0.1,3.4,0,1.05294
0.1,3.5,0,1.08171
0.1,3.6,0,1.10586
0.1,3.7,0,1.13313
0.1,3.8,0,1.15831
0.1,3.9,0,1.18146
0.1,4,0,1.2102
0.1,4.1,0,1.22973
0.1,4.2,0,1.25569
0.1,4.3,0,1.27898
0.1,4.4,0,1.29969
0.1,4.5,0,1.32654
0.1,4.6,0,1.34536
0.1,4.7,0,1.36823
0.1,4.8,0,1.3899
0.1,4.9,0,1.40809
0.1,5,0,1.41894
0.1,5.1,0,1.44407
0.1,5.2,0,1.45947
0.1,5.3,0,1.47365
0.1,5.4,0,1.48636
0.1,5.5,0,1.49744
0.1,5.6,0,1.5069
0.1,5.7,0,1.51488
0.1,5.8,0,1.52163
0.1,5.9,0,1.52732
0.1,6,0,1.53194
0.1,6.1,0,1.53537
0.1,6.2,0,1.53745
0.1,6.3,0,1.53803
0.1,6.4,0,1.53703
0.1,6.5,0,1.53441
0.1,6.6,0,1.53019
0.1,6.7,0,1.52443
0.1,6.8,0,1.51725
0.1,6.9,0,1.50887
0.1,7,0,1.49387
0.1,7.1,0,1.49599
0.1,7.2,0,1.48449
0.1,7.3,0,1.46524
0.1,7.4,0,1.45962
0.1,7.5,0,1.43921
0.1,7.6,0,1.41759
0.1,7.7,0,1.40412
0.1,7.8,0,1.37942
0.1,7.9,0,1.3555
0.1,8,0,1.33401
0.1,8.1,0,1.30872
0.1,8.2,0,1.28271
0.1,8.3,0,1.25654
0.1,8.4,0,1.23371
0.1,8.5,0,1.20598
0.1,8.6,0,1.17885
0.1,8.7,0,1.15806
0.1,8.8,0,1.12797
0.1,8.9,0,1.10164
0.1,9,0,1.0802
0.1,9.1,0,1.04851
0.1,9.2,0,1.02294
0.1,9.3,0,0.998849
0.1,9.4,0,0.967697
0.1,9.5,0,0.941991
0.1,9.6,0,0.915511
0.1,9.7,0,0.885415
0.1,9.8,0,0.858607
0.1,9.9,0,0.830419
0.1,10,0,0.800861
0.1,10.1,0,0.772835
0.1,10.2,0,0.743669
0.1,10.3,0,0.714161
0.1,10.4,0,0.685074
0.1,10.5,0,0.655358
0.1,10.6,0,0.625622
0.1,10.7,0,0.595907
0.1,10.8,0,0.565964
0.1,10.9,0,0.536043
0.1,11,0,0.506096
0.1,11.1,0,0.476106
0.1,11.2,0,0.446164
0.1,11.3,0,0.416236
0.1,11.4,0,0.386328
0.1,11.5,0,0.356455
0.1,11.6,0,0.326613
0.1,11.7,0,0.296817
0.1,11.8,0,0.267022
0.1,11.9,0,0.237275
0.1,12,0,0.207563
0.1,12.1,0,0.17784
0.1,12.2,0,0.148163
0.1,12.3,0,0.118507
0.1,12.4,0,0.0888733
0.1,12.5,0,0.0592673
0.1,12.6,0,0.0348823
0.1,12.7,0,0.0126173
0.2,0,0,0.00398645
0.2,0.1,0,0.0318977
0.2,0.2,0,0.0638014
0.2,0.3,0,0.0957064
0.2,0.4,0,0.127617
0.2,0.5,0,0.159529
0.2,0.6,0,0.191424
0.2,0.7,0,0.223325
0.2,0.8,0,0.255213
0.2,0.9,0,0.287091
0.2,1,0,0.318967
0.2,1.1,0,0.350786
0.2,1.2,0,0.382613
0.2,1.3,0,0.414387
0.2,1.4,0,0.446147
0.2,1.5,0,0.477914
0.2,1.6,0,0.50956
0.2,1.7,0,0.541222
0.2,1.8,0,0.572789
0.2,1.9,0,0.604294
0.2,2,0,0.635799
0.2,2.1,0,0.667045
0.2,2.2,0,0.698318
0.2,2.3,0,0.729393
0.2,2.4,0,0.760338
0.2,2.5,0,0.791276
0.2,2.6,0,0.821707
0.2,2.7,0,0.852194
0.2,2.8,0,0.882218
0.2,2.9,0,0.91207
0.2,3,0,0.941898
0.2,3.1,0,0.97059
0.2,3.2,0,0.999636
0.2,3.3,0,1.02745
0.2,3.4,0,1.05557
0.2,3.5,0,1.08401
0.2,3.6,0,1.10962
0.2,3.7,0,1.13666
0.2,3.8,0,1.16184
0.2,3.9,0,1.18757
0.2,4,0,1.2148
0.2,4.1,0,1.23659
0.2,4.2,0,1.26063
0.2,4.3,0,1.28392
0.2,4.4,0,1.30606
0.2,4.5,0,1.33055
0.2,4.6,0,1.34999
0.2,4.7,0,1.37004
0.2,4.8,0,1.39172
0.2,4.9,0,1.4059
0.2,5,0,1.41842
0.2,5.1,0,1.44183
0.2,5.2,0,1.45627
0.2,5.3,0,1.4696
0.2,5.4,0,1.48159
0.2,5.5,0,1.49211
0.2,5.6,0,1.50112
0.2,5.7,0,1.50874
0.2,5.8,0,1.51516
0.2,5.9,0,1.52053
0.2,6,0,1.52484
0.2,6.1,0,1.52798
0.2,6.2,0,1.5298
0.2,6.3,0,1.53019
0.2,6.4,0,1.52904
0.2,6.5,0,1.52632
0.2,6.6,0,1.52204
0.2,6.7,0,1.51623
0.2,6.8,0,1.50897
0.2,6.9,0,1.50038
0.2,7,0,1.48491
0.2,7.1,0,1.48186
0.2,7.2,0,1.47197
0.2,7.3,0,1.45602
0.2,7.4,0,1.445
0.2,7.5,0,1.42998
0.2,7.6,0,1.40976
0.2,7.7,0,1.39346
0.2,7.8,0,1.37539
0.2,7.9,0,1.35146
0.2,8,0,1.33079
0.2,8.1,0,1.30922
0.2,8.2,0,1.28332
0.2,8.3,0,1.26045
0.2,8.4,0,1.23772
0.2,8.5,0,1.21092
0.2,8.6,0,1.18661
0.2,8.7,0,1.16395
0.2,8.8,0,1.13558
0.2,8.9,0,1.10969
0.2,9,0,1.08635
0.2,9.1,0,1.05672
0.2,9.2,0,1.02933
0.2,9.3,0,1.00406
0.2,9.4,0,0.974504
0.2,9.5,0,0.946034
0.2,9.6,0,0.919213
0.2,9.7,0,0.889746
0.2,9.8,0,0.860828
0.2,9.9,0,0.832641
0.2,10,0,0.803098
0.2,10.1,0,0.773954
0.2,10.2,0,0.744795
0.2,10.3,0,0.715035
0.2,10.4,0,0.685525
0.2,10.5,0,0.655796
0.2,10.6,0,0.625863
0.2,10.7,0,0.596044
0.2,10.8,0,0.566085
0.2,10.9,0,0.536088
0.2,11,0,0.506122
0.2,11.1,0,0.476138
0.2,11.2,0,0.446159
0.2,11.3,0,0.416222
0.2,11.4,0,0.386317
0.2,11.5,0,0.356414
0.2,11.6,0,0.326572
0.2,11.7,0,0.296771
0.2,11.8,0,0.26697
0.2,11.9,0,0.237223
0.2,12,0,0.207516
0.2,12.1,0,0.177804
0.2,12.2,0,0.148129
0.2,12.3,0,0.118491
0.2,12.4,0,0.0888551
0.2,12.5,0,0.0592454
0.2,12.6,0,0.029631
0.2,12.7,0,0.00420575
0.3,0,0,0
0.3,0.1,0,0.0318975
0.3,0.2,0,0.0638012
0.3,0.3,0,0.0957284
0.3,0.4,0,0.127639
0.3,0.5,0,0.159543
0.3,0.6,0,0.191452
0.3,0.7,0,0.223353
0.3,0.8,0,0.25526
0.3,0.9,0,0.287138
0.3,1,0,0.319003
0.3,1.1,0,0.350866
0.3,1.2,0,0.382693
0.3,1.3,0,0.41451
0.3,1.4,0,0.44627
0.3,1.5,0,0.478027
0.3,1.6,0,0.509727
0.3,1.7,0,0.541389
0.3,1.8,0,0.573025
0.3,1.9,0,0.604531
0.3,2,0,0.636032
0.3,2.1,0,0.667381
0.3,2.2,0,0.698654
0.3,2.3,0,0.72985
0.3,2.4,0,0.760795
0.3,2.5,0,0.791746
0.3,2.6,0,0.822366
0.3,2.7,0,0.852853
0.3,2.8,0,0.883268
0.3,2.9,0,0.91312
0.3,3,0,0.943037
0.3,3.1,0,0.972466
0.3,3.2,0,1.00151
0.3,3.3,0,1.03091
0.3,3.4,0,1.05902
0.3,3.5,0,1.08702
0.3,3.6,0,1.11539
0.3,3.7,0,1.14244
0.3,3.8,0,1.17019
0.3,3.9,0,1.19592
0.3,4,0,1.22008
0.3,4.1,0,1.24665
0.3,4.2,0,1.27069
0.3,4.3,0,1.29361
0.3,4.4,0,1.31574
0.3,4.5,0,1.33531
0.3,4.6,0,1.35634
0.3,4.7,0,1.3764
0.3,4.8,0,1.39261
0.3,4.9,0,1.4068
0.3,5,0,1.41947
0.3,5.1,0,1.44195
0.3,5.2,0,1.45592
0.3,5.3,0,1.46881
0.3,5.4,0,1.48046
0.3,5.5,0,1.49072
0.3,5.6,0,1.49957
0.3,5.7,0,1.50707
0.3,5.8,0,1.51339
0.3,5.9,0,1.51863
0.3,6,0,1.52279
0.3,6.1,0,1.52577
0.3,6.2,0,1.52744
0.3,6.3,0,1.52767
0.3,6.4,0,1.52638
0.3,6.5,0,1.52353
0.3,6.6,0,1.51911
0.3,6.7,0,1.51312
0.3,6.8,0,1.50561
0.3,6.9,0,1.49662
0.3,7,0,1.48012
0.3,7.1,0,1.46345
0.3,7.2,0,1.45356
0.3,7.3,0,1.44693
0.3,7.4,0,1.42654
0.3,7.5,0,1.41152
0.3,7.6,0,1.40041
0.3,7.7,0,1.38058
0.3,7.8,0,1.36285
0.3,7.9,0,1.34826
0.3,8,0,1.32751
0.3,8.1,0,1.30716
0.3,8.2,0,1.2886
0.3,8.3,0,1.26574
0.3,8.4,0,1.2423
0.3,8.5,0,1.22168
0.3,8.6,0,1.19737
0.3,8.7,0,1.17061
0.3,8.8,0,1.14837
0.3,8.9,0,1.12248
0.3,9,0,1.09296
0.3,9.1,0,1.06854
0.3,9.2,0,1.04115
0.3,9.3,0,1.0107
0.3,9.4,0,0.983539
0.3,9.5,0,0.955069
0.3,9.6,0,0.924298
0.3,9.7,0,0.895517
0.3,9.8,0,0.866204
0.3,9.9,0,0.835686
0.3,10,0,0.806213
0.3,10.1,0,0.776392
0.3,10.2,0,0.746154
0.3,10.3,0,0.716394
0.3,10.4,0,0.686375
0.3,10.5,0,0.656244
0.3,10.6,0,0.626311
0.3,10.7,0,0.596228
0.3,10.8,0,0.566186
0.3,10.9,0,0.536188
0.3,11,0,0.50611
0.3,11.1,0,0.476145
0.3,11.2,0,0.446165
0.3,11.3,0,0.416151
0.3,11.4,0,0.386258
0.3,11.5,0,0.356355
0.3,11.6,0,0.326466
0.3,11.7,0,0.296666
0.3,11.8,0,0.266864
0.3,11.9,0,0.237123
0.3,12,0,0.207415
0.3,12.1,0,0.177712
0.3,12.2,0,0.148085
0.3,12.3,0,0.118447
0.3,12.4,0,0.0888073
0.3,12.5,0,0.059217
0.3,12.6,0,0.0296026
0.3,12.7,0,0
0.4,0,0,0
0.4,0.1,0,0.0318912
0.4,0.2,0,0.0638178
0.4,0.3,0,0.095745
0.4,0.4,0,0.12766
0.4,0.5,0,0.159558
0.4,0.6,0,0.191475
0.4,0.7,0,0.223371
0.4,0.8,0,0.255278
0.4,0.9,0,0.287192
0.4,1,0,0.319043
0.4,1.1,0,0.350942
0.4,1.2,0,0.382785
0.4,1.3,0,0.414602
0.4,1.4,0,0.446426
0.4,1.5,0,0.478181
0.4,1.6,0,0.509918
0.4,1.7,0,0.541613
0.4,1.8,0,0.573249
0.4,1.9,0,0.604858
0.4,2,0,0.636355
0.4,2.1,0,0.667779
0.4,2.2,0,0.699113
0.4,2.3,0,0.73031
0.4,2.4,0,0.761449
0.4,2.5,0,0.792407
0.4,2.6,0,0.82316
0.4,2.7,0,0.853836
0.4,2.8,0,0.884251
0.4,2.9,0,0.914603
0.4,3,0,0.944584
0.4,3.1,0,0.974398
0.4,3.2,0,1.00398
0.4,3.3,0,1.03338
0.4,3.4,0,1.06284
0.4,3.5,0,1.09072
0.4,3.6,0,1.12042
0.4,3.7,0,1.14742
0.4,3.8,0,1.17518
0.4,3.9,0,1.20345
0.4,4,0,1.22604
0.4,4.1,0,1.25513
0.4,4.2,0,1.27694
0.4,4.3,0,1.29985
0.4,4.4,0,1.32383
0.4,4.5,0,1.34083
0.4,4.6,0,1.36284
0.4,4.7,0,1.38019
0.4,4.8,0,1.3964
0.4,4.9,0,1.41093
0.4,5,0,1.42208
0.4,5.1,0,1.44446
0.4,5.2,0,1.4584
0.4,5.3,0,1.47128
0.4,5.4,0,1.48296
0.4,5.5,0,1.4933
0.4,5.6,0,1.50225
0.4,5.7,0,1.50988
0.4,5.8,0,1.51631
0.4,5.9,0,1.52163
0.4,6,0,1.52581
0.4,6.1,0,1.52876
0.4,6.2,0,1.53036
0.4,6.3,0,1.53049
0.4,6.4,0,1.52907
0.4,6.5,0,1.52604
0.4,6.6,0,1.52139
0.4,6.7,0,1.5151
0.4,6.8,0,1.50716
0.4,6.9,0,1.49758
0.4,7,0,1.47951
0.4,7.1,0,1.45773
0.4,7.2,0,1.44836
0.4,7.3,0,1.44465
0.4,7.4,0,1.41697
0.4,7.5,0,1.40696
0.4,7.6,0,1.39743
0.4,7.7,0,1.37364
0.4,7.8,0,1.36101
0.4,7.9,0,1.34642
0.4,8,0,1.32655
0.4,8.1,0,1.30823
0.4,8.2,0,1.2898
0.4,8.3,0,1.27051
0.4,8.4,0,1.24633
0.4,8.5,0,1.22692
0.4,8.6,0,1.20582
0.4,8.7,0,1.17632
0.4,8.8,0,1.1564
0.4,8.9,0,1.13111
0.4,9,0,1.09904
0.4,9.1,0,1.07735
0.4,9.2,0,1.04806
0.4,9.3,0,1.01619
0.4,9.4,0,0.990972
0.4,9.5,0,0.959721
0.4,9.6,0,0.928585
0.4,9.7,0,0.900418
0.4,9.8,0,0.869072
0.4,9.9,0,0.838554
0.4,10,0,0.808888
0.4,10.1,0,0.777994
0.4,10.2,0,0.747749
0.4,10.3,0,0.717537
0.4,10.4,0,0.687073
0.4,10.5,0,0.656903
0.4,10.6,0,0.62663
0.4,10.7,0,0.596408
0.4,10.8,0,0.566343
0.4,10.9,0,0.536178
0.4,11,0,0.50605
0.4,11.1,0,0.476101
0.4,11.2,0,0.446035
0.4,11.3,0,0.416002
0.4,11.4,0,0.386123
0.4,11.5,0,0.356181
0.4,11.6,0,0.32629
0.4,11.7,0,0.296498
0.4,11.8,0,0.266696
0.4,11.9,0,0.236954
0.4,12,0,0.207271
0.4,12.1,0,0.17758
0.4,12.2,0,0.14796
0.4,12.3,0,0.118368
0.4,12.4,0,0.0887275
0.4,12.5,0,0.059151
0.4,12.6,0,0.0295938
0.4,12.7,0,0
0.5,0,0,0
0.5,0.1,0,0.0319203
0.5,0.2,0,0.0638406
0.5,0.3,0,0.0957552
0.5,0.4,0,0.127664
0.5,0.5,0,0.159573
0.5,0.6,0,0.191477
0.5,0.7,0,0.223381
0.5,0.8,0,0.255283
0.5,0.9,0,0.287183
0.5,1,0,0.319083
0.5,1.1,0,0.350962
0.5,1.2,0,0.382841
0.5,1.3,0,0.414691
0.5,1.4,0,0.446513
0.5,1.5,0,0.478334
0.5,1.6,0,0.510067
0.5,1.7,0,0.5418
0.5,1.8,0,0.573469
0.5,1.9,0,0.605073
0.5,2,0,0.636678
0.5,2.1,0,0.668087
0.5,2.2,0,0.699497
0.5,2.3,0,0.730775
0.5,2.4,0,0.761921
0.5,2.5,0,0.793067
0.5,2.6,0,0.823876
0.5,2.7,0,0.854685
0.5,2.8,0,0.885298
0.5,2.9,0,0.915715
0.5,3,0,0.946132
0.5,3.1,0,0.976102
0.5,3.2,0,1.00607
0.5,3.3,0,1.03573
0.5,3.4,0,1.06507
0.5,3.5,0,1.09442
0.5,3.6,0,1.12275
0.5,3.7,0,1.15108
0.5,3.8,0,1.1786
0.5,3.9,0,1.2053
0.5,4,0,1.23199
0.5,4.1,0,1.25633
0.5,4.2,0,1.28066
0.5,4.3,0,1.30353
0.5,4.4,0,1.32494
0.5,4.5,0,1.34635
0.5,4.6,0,1.36468
0.5,4.7,0,1.383
0.5,4.8,0,1.39867
0.5,4.9,0,1.41168
0.5,5,0,1.42468
0.5,5.1,0,1.44695
0.5,5.2,0,1.46088
0.5,5.3,0,1.47375
0.5,5.4,0,1.48547
0.5,5.5,0,1.49588
0.5,5.6,0,1.50494
0.5,5.7,0,1.51269
0.5,5.8,0,1.51924
0.5,5.9,0,1.52463
0.5,6,0,1.52883
0.5,6.1,0,1.53175
0.5,6.2,0,1.53328
0.5,6.3,0,1.5333
0.5,6.4,0,1.53175
0.5,6.5,0,1.52855
0.5,6.6,0,1.52368
0.5,6.7,0,1.51708
0.5,6.8,0,1.50872
0.5,6.9,0,1.49854
0.5,7,0,1.47891
0.5,7.1,0,1.46755
0.5,7.2,0,1.45619
0.5,7.3,0,1.44419
0.5,7.4,0,1.42856
0.5,7.5,0,1.41292
0.5,7.6,0,1.39691
0.5,7.7,0,1.38002
0.5,7.8,0,1.36314
0.5,7.9,0,1.34566
0.5,8,0,1.32744
0.5,8.1,0,1.30923
0.5,8.2,0,1.28979
0.5,8.3,0,1.26953
0.5,8.4,0,1.24927
0.5,8.5,0,1.22706
0.5,8.6,0,1.20421
0.5,8.7,0,1.18136
0.5,8.8,0,1.15606
0.5,8.9,0,1.13048
0.5,9,0,1.1048
0.5,9.1,0,1.07689
0.5,9.2,0,1.04898
0.5,9.3,0,1.02075
0.5,9.4,0,0.991234
0.5,9.5,0,0.961713
0.5,9.6,0,0.931898
0.5,9.7,0,0.901534
0.5,9.8,0,0.871171
0.5,9.9,0,0.840686
0.5,10,0,0.810078
0.5,10.1,0,0.77947
0.5,10.2,0,0.748897
0.5,10.3,0,0.718343
0.5,10.4,0,0.687789
0.5,10.5,0,0.657369
0.5,10.6,0,0.626983
0.5,10.7,0,0.596596
0.5,10.8,0,0.566379
0.5,10.9,0,0.536172
0.5,11,0,0.505979
0.5,11.1,0,0.475921
0.5,11.2,0,0.445864
0.5,11.3,0,0.415839
0.5,11.4,0,0.385912
0.5,11.5,0,0.355986
0.5,11.6,0,0.326112
0.5,11.7,0,0.296317
0.5,11.8,0,0.266522
0.5,11.9,0,0.236793
0.5,12,0,0.207118
0.5,12.1,0,0.177443
0.5,12.2,0,0.147826
0.5,12.3,0,0.118233
0.5,12.4,0,0.0886404
0.5,12.5,0,0.0590888
0.5,12.6,0,0.0295444
0.5,12.7,0,0
0.6,0,0,0
0.6,0.1,0,0.0319606
0.6,0.2,0,0.0638654
0.6,0.3,0,0.0957675
0.6,0.4,0,0.127679
0.6,0.5,0,0.159578
0.6,0.6,0,0.191478
0.6,0.7,0,0.223387
0.6,0.8,0,0.255288
0.6,0.9,0,0.287181
0.6,1,0,0.319116
0.6,1.1,0,0.351016
0.6,1.2,0,0.382907
0.6,1.3,0,0.414814
0.6,1.4,0,0.44668
0.6,1.5,0,0.478482
0.6,1.6,0,0.510313
0.6,1.7,0,0.542047
0.6,1.8,0,0.57378
0.6,1.9,0,0.605448
0.6,2,0,0.637068
0.6,2.1,0,0.668627
0.6,2.2,0,0.700066
0.6,2.3,0,0.731458
0.6,2.4,0,0.762689
0.6,2.5,0,0.793959
0.6,2.6,0,0.82497
0.6,2.7,0,0.855877
0.6,2.8,0,0.886702
0.6,2.9,0,0.917233
0.6,3,0,0.947938
0.6,3.1,0,0.978293
0.6,3.2,0,1.00835
0.6,3.3,0,1.03841
0.6,3.4,0,1.06807
0.6,3.5,0,1.09725
0.6,3.6,0,1.12635
0.6,3.7,0,1.15446
0.6,3.8,0,1.1821
0.6,3.9,0,1.20915
0.6,4,0,1.23543
0.6,4.1,0,1.26025
0.6,4.2,0,1.28456
0.6,4.3,0,1.30758
0.6,4.4,0,1.32916
0.6,4.5,0,1.35094
0.6,4.6,0,1.36957
0.6,4.7,0,1.38824
0.6,4.8,0,1.40562
0.6,4.9,0,1.42
0.6,5,0,1.43135
0.6,5.1,0,1.45461
0.6,5.2,0,1.46912
0.6,5.3,0,1.48257
0.6,5.4,0,1.49482
0.6,5.5,0,1.50574
0.6,5.6,0,1.51525
0.6,5.7,0,1.5234
0.6,5.8,0,1.5303
0.6,5.9,0,1.53599
0.6,6,0,1.54045
0.6,6.1,0,1.54357
0.6,6.2,0,1.54523
0.6,6.3,0,1.54532
0.6,6.4,0,1.54376
0.6,6.5,0,1.54049
0.6,6.6,0,1.53549
0.6,6.7,0,1.52872
0.6,6.8,0,1.52019
0.6,6.9,0,1.50991
0.6,7,0,1.49022
0.6,7.1,0,1.48588
0.6,7.2,0,1.47327
0.6,7.3,0,1.45509
0.6,7.4,0,1.44187
0.6,7.5,0,1.42435
0.6,7.6,0,1.4051
0.6,7.7,0,1.38752
0.6,7.8,0,1.36964
0.6,7.9,0,1.35013
0.6,8,0,1.33024
0.6,8.1,0,1.31238
0.6,8.2,0,1.29231
0.6,8.3,0,1.27133
0.6,8.4,0,1.25138
0.6,8.5,0,1.22865
0.6,8.6,0,1.20549
0.6,8.7,0,1.18287
0.6,8.8,0,1.15725
0.6,8.9,0,1.13159
0.6,9,0,1.10596
0.6,9.1,0,1.07814
0.6,9.2,0,1.05017
0.6,9.3,0,1.0219
0.6,9.4,0,0.992904
0.6,9.5,0,0.963092
0.6,9.6,0,0.933087
0.6,9.7,0,0.903164
0.6,9.8,0,0.872371
0.6,9.9,0,0.841712
0.6,10,0,0.811312
0.6,10.1,0,0.780253
0.6,10.2,0,0.749513
0.6,10.3,0,0.718982
0.6,10.4,0,0.688115
0.6,10.5,0,0.657553
0.6,10.6,0,0.627121
0.6,10.7,0,0.596581
0.6,10.8,0,0.566222
0.6,10.9,0,0.535978
0.6,11,0,0.505744
0.6,11.1,0,0.475593
0.6,11.2,0,0.445536
0.6,11.3,0,0.41551
0.6,11.4,0,0.385551
0.6,11.5,0,0.355646
0.6,11.6,0,0.325792
0.6,11.7,0,0.295988
0.6,11.8,0,0.266235
0.6,11.9,0,0.236525
0.6,12,0,0.206841
0.6,12.1,0,0.177232
0.6,12.2,0,0.147632
0.6,12.3,0,0.118035
0.6,12.4,0,0.0885232
0.6,12.5,0,0.0589846
0.6,12.6,0,0.0294533
0.6,12.7,0,0
0.7,0,0,0
0.7,0.1,0,0.0319451
0.7,0.2,0,0.0638747
0.7,0.3,0,0.0957768
0.7,0.4,0,0.127682
0.7,0.5,0,0.159583
0.7,0.6,0,0.191489
0.7,0.7,0,0.2234
0.7,0.8,0,0.255301
0.7,0.9,0,0.287222
0.7,1,0,0.31915
0.7,1.1,0,0.351062
0.7,1.2,0,0.382986
0.7,1.3,0,0.414893
0.7,1.4,0,0.446783
0.7,1.5,0,0.47863
0.7,1.6,0,0.510462
0.7,1.7,0,0.542295
0.7,1.8,0,0.574028
0.7,1.9,0,0.605775
0.7,2,0,0.637458
0.7,2.1,0,0.669047
0.7,2.2,0,0.700665
0.7,2.3,0,0.732057
0.7,2.4,0,0.763496
0.7,2.5,0,0.794852
0.7,2.6,0,0.82596
0.7,2.7,0,0.857166
0.7,2.8,0,0.887991
0.7,2.9,0,0.918924
0.7,3,0,0.949744
0.7,3.1,0,0.980183
0.7,3.2,0,1.01071
0.7,3.3,0,1.04077
0.7,3.4,0,1.07058
0.7,3.5,0,1.10008
0.7,3.6,0,1.12896
0.7,3.7,0,1.15762
0.7,3.8,0,1.18526
0.7,3.9,0,1.21224
0.7,4,0,1.23887
0.7,4.1,0,1.26367
0.7,4.2,0,1.28844
0.7,4.3,0,1.31145
0.7,4.4,0,1.33357
0.7,4.5,0,1.35552
0.7,4.6,0,1.3745
0.7,4.7,0,1.39381
0.7,4.8,0,1.41119
0.7,4.9,0,1.42529
0.7,5,0,1.43802
0.7,5.1,0,1.46227
0.7,5.2,0,1.47736
0.7,5.3,0,1.49138
0.7,5.4,0,1.50418
0.7,5.5,0,1.5156
0.7,5.6,0,1.52556
0.7,5.7,0,1.53411
0.7,5.8,0,1.54136
0.7,5.9,0,1.54736
0.7,6,0,1.55207
0.7,6.1,0,1.55539
0.7,6.2,0,1.55718
0.7,6.3,0,1.55733
0.7,6.4,0,1.55577
0.7,6.5,0,1.55243
0.7,6.6,0,1.54729
0.7,6.7,0,1.54037
0.7,6.8,0,1.53167
0.7,6.9,0,1.52129
0.7,7,0,1.50152
0.7,7.1,0,1.49388
0.7,7.2,0,1.48183
0.7,7.3,0,1.46562
0.7,7.4,0,1.44994
0.7,7.5,0,1.43247
0.7,7.6,0,1.41354
0.7,7.7,0,1.3946
0.7,7.8,0,1.37521
0.7,7.9,0,1.3557
0.7,8,0,1.33547
0.7,8.1,0,1.31571
0.7,8.2,0,1.29565
0.7,8.3,0,1.2744
0.7,8.4,0,1.25358
0.7,8.5,0,1.23089
0.7,8.6,0,1.20746
0.7,8.7,0,1.18442
0.7,8.8,0,1.15881
0.7,8.9,0,1.1329
0.7,9,0,1.10713
0.7,9.1,0,1.0792
0.7,9.2,0,1.05118
0.7,9.3,0,1.02292
0.7,9.4,0,0.993592
0.7,9.5,0,0.964041
0.7,9.6,0,0.93408
0.7,9.7,0,0.903751
0.7,9.8,0,0.873236
0.7,9.9,0,0.842577
0.7,10,0,0.811763
0.7,10.1,0,0.780837
0.7,10.2,0,0.75007
0.7,10.3,0,0.719231
0.7,10.4,0,0.688375
0.7,10.5,0,0.657778
0.7,10.6,0,0.627143
0.7,10.7,0,0.596558
0.7,10.8,0,0.566185
0.7,10.9,0,0.535799
0.7,11,0,0.505518
0.7,11.1,0,0.475373
0.7,11.2,0,0.445233
0.7,11.3,0,0.41519
0.7,11.4,0,0.385254
0.7,11.5,0,0.355331
0.7,11.6,0,0.325475
0.7,11.7,0,0.29572
0.7,11.8,0,0.265976
0.7,11.9,0,0.236266
0.7,12,0,0.206651
0.7,12.1,0,0.177043
0.7,12.2,0,0.147454
0.7,12.3,0,0.117934
0.7,12.4,0,0.0884182
0.7,12.5,0,0.0589051
0.7,12.6,0,0.0294528
0.7,12.7,0,0
0.8,0,0,0
0.8,0.1,0,0.0319445
0.8,0.2,0,0.0638741
0.8,0.3,0,0.0957704
0.8,0.4,0,0.127675
0.8,0.5,0,0.1596
0.8,0.6,0,0.191505
0.8,0.7,0,0.223416
0.8,0.8,0,0.255339
0.8,0.9,0,0.28726
0.8,1,0,0.31923
0.8,1.1,0,0.351125
0.8,1.2,0,0.38305
0.8,1.3,0,0.414981
0.8,1.4,0,0.446871
0.8,1.5,0,0.478835
0.8,1.6,0,0.510641
0.8,1.7,0,0.542474
0.8,1.8,0,0.574349
0.8,1.9,0,0.606095
0.8,2,0,0.637969
0.8,2.1,0,0.669568
0.8,2.2,0,0.701186
0.8,2.3,0,0.732886
0.8,2.4,0,0.764326
0.8,2.5,0,0.795946
0.8,2.6,0,0.827176
0.8,2.7,0,0.858382
0.8,2.8,0,0.889714
0.8,2.9,0,0.920647
0.8,3,0,0.951749
0.8,3.1,0,0.982422
0.8,3.2,0,1.01295
0.8,3.3,0,1.04341
0.8,3.4,0,1.07322
0.8,3.5,0,1.10291
0.8,3.6,0,1.13205
0.8,3.7,0,1.16071
0.8,3.8,0,1.18898
0.8,3.9,0,1.21596
0.8,4,0,1.24238
0.8,4.1,0,1.26829
0.8,4.2,0,1.29306
0.8,4.3,0,1.31711
0.8,4.4,0,1.33923
0.8,4.5,0,1.36078
0.8,4.6,0,1.38115
0.8,4.7,0,1.40046
0.8,4.8,0,1.41892
0.8,4.9,0,1.43303
0.8,5,0,1.44614
0.8,5.1,0,1.4714
0.8,5.2,0,1.48711
0.8,5.3,0,1.50174
0.8,5.4,0,1.51512
0.8,5.5,0,1.52707
0.8,5.6,0,1.5375
0.8,5.7,0,1.54647
0.8,5.8,0,1.55408
0.8,5.9,0,1.5604
0.8,6,0,1.5654
0.8,6.1,0,1.56895
0.8,6.2,0,1.57091
0.8,6.3,0,1.57116
0.8,6.4,0,1.56964
0.8,6.5,0,1.56629
0.8,6.6,0,1.5611
0.8,6.7,0,1.55408
0.8,6.8,0,1.54528
0.8,6.9,0,1.53482
0.8,7,0,1.515
0.8,7.1,0,1.50108
0.8,7.2,0,1.48904
0.8,7.3,0,1.47688
0.8,7.4,0,1.45709
0.8,7.5,0,1.43963
0.8,7.6,0,1.42236
0.8,7.7,0,1.4018
0.8,7.8,0,1.38243
0.8,7.9,0,1.36224
0.8,8,0,1.34175
0.8,8.1,0,1.32151
0.8,8.2,0,1.30043
0.8,8.3,0,1.27918
0.8,8.4,0,1.25726
0.8,8.5,0,1.23481
0.8,8.6,0,1.21138
0.8,8.7,0,1.18643
0.8,8.8,0,1.1618
0.8,8.9,0,1.13589
0.8,9,0,1.10811
0.8,9.1,0,1.08118
0.8,9.2,0,1.05316
0.8,9.3,0,1.02366
0.8,9.4,0,0.994644
0.8,9.5,0,0.965093
0.8,9.6,0,0.934621
0.8,9.7,0,0.904336
0.8,9.8,0,0.8738
0.8,9.9,0,0.842882
0.8,10,0,0.812052
0.8,10.1,0,0.781128
0.8,10.2,0,0.75018
0.8,10.3,0,0.719342
0.8,10.4,0,0.688474
0.8,10.5,0,0.657723
0.8,10.6,0,0.627089
0.8,10.7,0,0.596455
0.8,10.8,0,0.565975
0.8,10.9,0,0.53559
0.8,11,0,0.505246
0.8,11.1,0,0.475024
0.8,11.2,0,0.444884
0.8,11.3,0,0.414837
0.8,11.4,0,0.384869
0.8,11.5,0,0.354945
0.8,11.6,0,0.32514
0.8,11.7,0,0.295382
0.8,11.8,0,0.265649
0.8,11.9,0,0.236032
0.8,12,0,0.20642
0.8,12.1,0,0.176824
0.8,12.2,0,0.147313
0.8,12.3,0,0.117794
0.8,12.4,0,0.0883034
0.8,12.5,0,0.0588723
0.8,12.6,0,0.0294201
0.8,12.7,0,0
0.9,0,0,0
0.9,0.1,0,0.0319594
0.9,0.2,0,0.0638651
0.9,0.3,0,0.0957614
0.9,0.4,0,0.127684
0.9,0.5,0,0.159629
0.9,0.6,0,0.191527
0.9,0.7,0,0.223494
0.9,0.8,0,0.255417
0.9,0.9,0,0.287339
0.9,1,0,0.319357
0.9,1.1,0,0.351223
0.9,1.2,0,0.383224
0.9,1.3,0,0.415155
0.9,1.4,0,0.447061
0.9,1.5,0,0.479098
0.9,1.6,0,0.510876
0.9,1.7,0,0.542888
0.9,1.8,0,0.574763
0.9,1.9,0,0.6066
0.9,2,0,0.638601
0.9,2.1,0,0.670181
0.9,2.2,0,0.702112
0.9,2.3,0,0.733812
0.9,2.4,0,0.765442
0.9,2.5,0,0.797243
0.9,2.6,0,0.828496
0.9,2.7,0,0.860132
0.9,2.8,0,0.891463
0.9,2.9,0,0.922683
0.9,3,0,0.953953
0.9,3.1,0,0.984776
0.9,3.2,0,1.01551
0.9,3.3,0,1.04597
0.9,3.4,0,1.07618
0.9,3.5,0,1.10575
0.9,3.6,0,1.13537
0.9,3.7,0,1.16383
0.9,3.8,0,1.19209
0.9,3.9,0,1.22009
0.9,4,0,1.24597
0.9,4.1,0,1.27301
0.9,4.2,0,1.29753
0.9,4.3,0,1.32158
0.9,4.4,0,1.34573
0.9,4.5,0,1.3667
0.9,4.6,0,1.38813
0.9,4.7,0,1.40836
0.9,4.8,0,1.42682
0.9,4.9,0,1.44358
0.9,5,0,1.45569
0.9,5.1,0,1.48199
0.9,5.2,0,1.49836
0.9,5.3,0,1.51366
0.9,5.4,0,1.52765
0.9,5.5,0,1.54016
0.9,5.6,0,1.55108
0.9,5.7,0,1.56047
0.9,5.8,0,1.56846
0.9,5.9,0,1.57513
0.9,6,0,1.58043
0.9,6.1,0,1.58424
0.9,6.2,0,1.5864
0.9,6.3,0,1.5868
0.9,6.4,0,1.58538
0.9,6.5,0,1.58208
0.9,6.6,0,1.5769
0.9,6.7,0,1.56986
0.9,6.8,0,1.56102
0.9,6.9,0,1.55052
0.9,7,0,1.53064
0.9,7.1,0,1.51531
0.9,7.2,0,1.50323
0.9,7.3,0,1.49183
0.9,7.4,0,1.46887
0.9,7.5,0,1.45193
0.9,7.6,0,1.43513
0.9,7.7,0,1.41167
0.9,7.8,0,1.3918
0.9,7.9,0,1.37161
0.9,8,0,1.34876
0.9,8.1,0,1.3275
0.9,8.2,0,1.30642
0.9,8.3,0,1.28405
0.9,8.4,0,1.26069
0.9,8.5,0,1.23855
0.9,8.6,0,1.21477
0.9,8.7,0,1.18809
0.9,8.8,0,1.16424
0.9,8.9,0,1.13775
0.9,9,0,1.10872
0.9,9.1,0,1.08281
0.9,9.2,0,1.05385
0.9,9.3,0,1.02376
0.9,9.4,0,0.995562
0.9,9.5,0,0.965166
0.9,9.6,0,0.934567
0.9,9.7,0,0.904785
0.9,9.8,0,0.873781
0.9,9.9,0,0.842863
0.9,10,0,0.812231
0.9,10.1,0,0.781131
0.9,10.2,0,0.750185
0.9,10.3,0,0.719318
0.9,10.4,0,0.6884
0.9,10.5,0,0.657625
0.9,10.6,0,0.626897
0.9,10.7,0,0.596264
0.9,10.8,0,0.56573
0.9,10.9,0,0.535284
0.9,11,0,0.504961
0.9,11.1,0,0.474647
0.9,11.2,0,0.444525
0.9,11.3,0,0.414501
0.9,11.4,0,0.384451
0.9,11.5,0,0.354597
0.9,11.6,0,0.324795
0.9,11.7,0,0.295003
0.9,11.8,0,0.265339
0.9,11.9,0,0.235722
0.9,12,0,0.20615
0.9,12.1,0,0.176599
0.9,12.2,0,0.147093
0.9,12.3,0,0.117647
0.9,12.4,0,0.0881974
0.9,12.5,0,0.0587766
0.9,12.6,0,0.0293958
0.9,12.7,0,0
1,0,0,0
1,0.1,0,0.0319206
1,0.2,0,0.0638412
1,0.3,0,0.0957728
1,0.4,0,0.127716
1,0.5,0,0.159658
1,0.6,0,0.191618
1,0.7,0,0.223579
1,0.8,0,0.255544
1,0.9,0,0.287514
1,1,0,0.319485
1,1.1,0,0.351456
1,1.2,0,0.383427
1,1.3,0,0.415402
1,1.4,0,0.447381
1,1.5,0,0.47936
1,1.6,0,0.511345
1,1.7,0,0.54333
1,1.8,0,0.575305
1,1.9,0,0.607269
1,2,0,0.639232
1,2.1,0,0.671145
1,2.2,0,0.703057
1,2.3,0,0.734918
1,2.4,0,0.766729
1,2.5,0,0.79854
1,2.6,0,0.830199
1,2.7,0,0.861858
1,2.8,0,0.893382
1,2.9,0,0.92477
1,3,0,0.956158
1,3.1,0,0.987043
1,3.2,0,1.01793
1,3.3,0,1.04841
1,3.4,0,1.0785
1,3.5,0,1.10859
1,3.6,0,1.13752
1,3.7,0,1.16646
1,3.8,0,1.19465
1,3.9,0,1.2221
1,4,0,1.24955
1,4.1,0,1.27521
1,4.2,0,1.30086
1,4.3,0,1.32548
1,4.4,0,1.34905
1,4.5,0,1.37262
1,4.6,0,1.39391
1,4.7,0,1.41521
1,4.8,0,1.43373
1,4.9,0,1.44949
1,5,0,1.46525
1,5.1,0,1.49258
1,5.2,0,1.50962
1,5.3,0,1.52557
1,5.4,0,1.54018
1,5.5,0,1.55324
1,5.6,0,1.56465
1,5.7,0,1.57447
1,5.8,0,1.58285
1,5.9,0,1.58986
1,6,0,1.59547
1,6.1,0,1.59953
1,6.2,0,1.60189
1,6.3,0,1.60245
1,6.4,0,1.60112
1,6.5,0,1.59787
1,6.6,0,1.5927
1,6.7,0,1.58564
1,6.8,0,1.57677
1,6.9,0,1.56621
1,7,0,1.54628
1,7.1,0,1.53363
1,7.2,0,1.52098
1,7.3,0,1.50731
1,7.4,0,1.48794
1,7.5,0,1.46857
1,7.6,0,1.44829
1,7.7,0,1.42591
1,7.8,0,1.40352
1,7.9,0,1.3808
1,8,0,1.35765
1,8.1,0,1.33451
1,8.2,0,1.31116
1,8.3,0,1.28766
1,8.4,0,1.26417
1,8.5,0,1.23956
1,8.6,0,1.21457
1,8.7,0,1.18958
1,8.8,0,1.16294
1,8.9,0,1.13611
1,9,0,1.1092
1,9.1,0,1.08073
1,9.2,0,1.05226
1,9.3,0,1.02355
1,9.4,0,0.993861
1,9.5,0,0.964173
1,9.6,0,0.93422
1,9.7,0,0.903773
1,9.8,0,0.873327
1,9.9,0,0.842686
1,10,0,0.811851
1,10.1,0,0.781017
1,10.2,0,0.750136
1,10.3,0,0.71923
1,10.4,0,0.688324
1,10.5,0,0.657553
1,10.6,0,0.626816
1,10.7,0,0.596079
1,10.8,0,0.565597
1,10.9,0,0.535128
1,11,0,0.504688
1,11.1,0,0.474504
1,11.2,0,0.444319
1,11.3,0,0.414198
1,11.4,0,0.384268
1,11.5,0,0.354337
1,11.6,0,0.324492
1,11.7,0,0.294777
1,11.8,0,0.265062
1,11.9,0,0.235444
1,12,0,0.205907
1,12.1,0,0.17637
1,12.2,0,0.146918
1,12.3,0,0.117502
1,12.4,0,0.0880863
1,12.5,0,0.0587185
1,12.6,0,0.0293593
1,12.7,0,0
1.1,0,0,0
1.1,0.1,0,0.0318582
1.1,0.2,0,0.063808
1.1,0.3,0,0.0957765
1.1,0.4,0,0.127727
1.1,0.5,0,0.15967
1.1,0.6,0,0.191696
1.1,0.7,0,0.223634
1.1,0.8,0,0.255646
1.1,0.9,0,0.287684
1.1,1,0,0.319565
1.1,1.1,0,0.351693
1.1,1.2,0,0.383632
1.1,1.3,0,0.415638
1.1,1.4,0,0.447681
1.1,1.5,0,0.479677
1.1,1.6,0,0.511823
1.1,1.7,0,0.543823
1.1,1.8,0,0.575909
1.1,1.9,0,0.607971
1.1,2,0,0.639989
1.1,2.1,0,0.672177
1.1,2.2,0,0.704112
1.1,2.3,0,0.736169
1.1,2.4,0,0.768151
1.1,2.5,0,0.800013
1.1,2.6,0,0.83207
1.1,2.7,0,0.863752
1.1,2.8,0,0.89557
1.1,2.9,0,0.92723
1.1,3,0,0.958517
1.1,3.1,0,0.989942
1.1,3.2,0,1.0208
1.1,3.3,0,1.05148
1.1,3.4,0,1.08178
1.1,3.5,0,1.11207
1.1,3.6,0,1.14102
1.1,3.7,0,1.17039
1.1,3.8,0,1.19865
1.1,3.9,0,1.22573
1.1,4,0,1.25518
1.1,4.1,0,1.27937
1.1,4.2,0,1.30653
1.1,4.3,0,1.33182
1.1,4.4,0,1.35456
1.1,4.5,0,1.3815
1.1,4.6,0,1.40205
1.1,4.7,0,1.42461
1.1,4.8,0,1.44638
1.1,4.9,0,1.46411
1.1,5,0,1.47718
1.1,5.1,0,1.5052
1.1,5.2,0,1.52271
1.1,5.3,0,1.53916
1.1,5.4,0,1.55428
1.1,5.5,0,1.56784
1.1,5.6,0,1.5797
1.1,5.7,0,1.58994
1.1,5.8,0,1.5987
1.1,5.9,0,1.60606
1.1,6,0,1.61199
1.1,6.1,0,1.61633
1.1,6.2,0,1.61891
1.1,6.3,0,1.6196
1.1,6.4,0,1.61832
1.1,6.5,0,1.61503
1.1,6.6,0,1.60974
1.1,6.7,0,1.60246
1.1,6.8,0,1.59329
1.1,6.9,0,1.58236
1.1,7,0,1.56173
1.1,7.1,0,1.56125
1.1,7.2,0,1.54649
1.1,7.3,0,1.52289
1.1,7.4,0,1.5117
1.1,7.5,0,1.48808
1.1,7.6,0,1.46201
1.1,7.7,0,1.44233
1.1,7.8,0,1.41704
1.1,7.9,0,1.39067
1.1,8,0,1.36609
1.1,8.1,0,1.34305
1.1,8.2,0,1.3178
1.1,8.3,0,1.29254
1.1,8.4,0,1.27029
1.1,8.5,0,1.243
1.1,8.6,0,1.21654
1.1,8.7,0,1.19397
1.1,8.8,0,1.16389
1.1,8.9,0,1.13658
1.1,9,0,1.11203
1.1,9.1,0,1.08037
1.1,9.2,0,1.05228
1.1,9.3,0,1.02476
1.1,9.4,0,0.993272
1.1,9.5,0,0.964079
1.1,9.6,0,0.934488
1.1,9.7,0,0.903379
1.1,9.8,0,0.873131
1.1,9.9,0,0.842614
1.1,10,0,0.811738
1.1,10.1,0,0.78077
1.1,10.2,0,0.749895
1.1,10.3,0,0.719038
1.1,10.4,0,0.687936
1.1,10.5,0,0.657177
1.1,10.6,0,0.62645
1.1,10.7,0,0.595565
1.1,10.8,0,0.565133
1.1,10.9,0,0.534648
1.1,11,0,0.504113
1.1,11.1,0,0.474045
1.1,11.2,0,0.443812
1.1,11.3,0,0.413624
1.1,11.4,0,0.383822
1.1,11.5,0,0.353831
1.1,11.6,0,0.32396
1.1,11.7,0,0.294321
1.1,11.8,0,0.264588
1.1,11.9,0,0.234991
1.1,12,0,0.205488
1.1,12.1,0,0.175991
1.1,12.2,0,0.146627
1.1,12.3,0,0.117257
1.1,12.4,0,0.0878814
1.1,12.5,0,0.0586159
1.1,12.6,0,0.029298
1.1,12.7,0,0
1.2,0,0,0
1.2,0.1,0,0.0318874
1.2,0.2,0,0.0638039
1.2,0.3,0,0.0957724
1.2,0.4,0,0.127731
1.2,0.5,0,0.159681
1.2,0.6,0,0.191685
1.2,0.7,0,0.223667
1.2,0.8,0,0.255679
1.2,0.9,0,0.287696
1.2,1,0,0.319645
1.2,1.1,0,0.351741
1.2,1.2,0,0.383804
1.2,1.3,0,0.41581
1.2,1.4,0,0.447934
1.2,1.5,0,0.479995
1.2,1.6,0,0.512155
1.2,1.7,0,0.544329
1.2,1.8,0,0.576416
1.2,1.9,0,0.60863
1.2,2,0,0.640747
1.2,2.1,0,0.672957
1.2,2.2,0,0.705191
1.2,2.3,0,0.737247
1.2,2.4,0,0.769453
1.2,2.5,0,0.801486
1.2,2.6,0,0.833566
1.2,2.7,0,0.865669
1.2,2.8,0,0.897487
1.2,2.9,0,0.929318
1.2,3,0,0.960877
1.2,3.1,0,0.992279
1.2,3.2,0,1.02366
1.2,3.3,0,1.05434
1.2,3.4,0,1.08505
1.2,3.5,0,1.11555
1.2,3.6,0,1.14494
1.2,3.7,0,1.17476
1.2,3.8,0,1.20302
1.2,3.9,0,1.23173
1.2,4,0,1.26081
1.2,4.1,0,1.2865
1.2,4.2,0,1.31369
1.2,4.3,0,1.33898
1.2,4.4,0,1.36426
1.2,4.5,0,1.39037
1.2,4.6,0,1.41219
1.2,4.7,0,1.43528
1.2,4.8,0,1.45705
1.2,4.9,0,1.47407
1.2,5,0,1.48912
1.2,5.1,0,1.51783
1.2,5.2,0,1.53581
1.2,5.3,0,1.55275
1.2,5.4,0,1.56838
1.2,5.5,0,1.58243
1.2,5.6,0,1.59475
1.2,5.7,0,1.60541
1.2,5.8,0,1.61455
1.2,5.9,0,1.62226
1.2,6,0,1.62852
1.2,6.1,0,1.63313
1.2,6.2,0,1.63592
1.2,6.3,0,1.63675
1.2,6.4,0,1.63553
1.2,6.5,0,1.6322
1.2,6.6,0,1.62678
1.2,6.7,0,1.61928
1.2,6.8,0,1.60981
1.2,6.9,0,1.5985
1.2,7,0,1.57719
1.2,7.1,0,1.57105
1.2,7.2,0,1.55741
1.2,7.3,0,1.53722
1.2,7.4,0,1.52051
1.2,7.5,0,1.49975
1.2,7.6,0,1.47476
1.2,7.7,0,1.452
1.2,7.8,0,1.42785
1.2,7.9,0,1.40147
1.2,8,0,1.37638
1.2,8.1,0,1.35165
1.2,8.2,0,1.32643
1.2,8.3,0,1.30108
1.2,8.4,0,1.27676
1.2,8.5,0,1.24991
1.2,8.6,0,1.2233
1.2,8.7,0,1.19859
1.2,8.8,0,1.16939
1.2,8.9,0,1.14112
1.2,9,0,1.11502
1.2,9.1,0,1.0843
1.2,9.2,0,1.05461
1.2,9.3,0,1.02635
1.2,9.4,0,0.995384
1.2,9.5,0,0.964793
1.2,9.6,0,0.935049
1.2,9.7,0,0.904007
1.2,9.8,0,0.873092
1.2,9.9,0,0.842574
1.2,10,0,0.811518
1.2,10.1,0,0.780464
1.2,10.2,0,0.749572
1.2,10.3,0,0.718558
1.2,10.4,0,0.687506
1.2,10.5,0,0.656713
1.2,10.6,0,0.625896
1.2,10.7,0,0.595043
1.2,10.8,0,0.564567
1.2,10.9,0,0.534041
1.2,11,0,0.503527
1.2,11.1,0,0.473386
1.2,11.2,0,0.443181
1.2,11.3,0,0.413014
1.2,11.4,0,0.383152
1.2,11.5,0,0.353254
1.2,11.6,0,0.323387
1.2,11.7,0,0.293753
1.2,11.8,0,0.264102
1.2,11.9,0,0.234505
1.2,12,0,0.205073
1.2,12.1,0,0.175626