x,y,z,U_0,U_1,U_2
0,0,0,0.3,-0.000229491,0
0,0.1,0,0.3,-0.000137694,0
0,0.2,0,0.3,-4.58982e-05,0
0,0.3,0,0.3,0,0
0,0.4,0,0.3,0,0
0,0.5,0,0.3,-1.10933e-19,0
0,0.6,0,0.3,0,0
0,0.7,0,0.3,0,0
0,0.8,0,0.3,0,0
0,0.9,0,0.3,0,0
0,1,0,0.3,0,0
0,1.1,0,0.3,0,0
0,1.2,0,0.3,0,0
0,1.3,0,0.3,0,0
0,1.4,0,0.3,0,0
0,1.5,0,0.3,0,0
0,1.6,0,0.3,0,0
0,1.7,0,0.3,0,0
0,1.8,0,0.3,0,0
0,1.9,0,0.3,0,0
0,2,0,0.3,0,0
0,2.1,0,0.3,0,0
0,2.2,0,0.3,0,0
0,2.3,0,0.3,0,0
0,2.4,0,0.3,0,0
0,2.5,0,0.3,0,0
0,2.6,0,0.3,0,0
0,2.7,0,0.3,0,0
0,2.8,0,0.3,0,0
0,2.9,0,0.3,0,0
0,3,0,0.3,-8.13582e-20,0
0,3.1,0,0.3,0,0
0,3.2,0,0.3,0,0
0,3.3,0,0.3,0,0
0,3.4,0,0.3,0,0
0,3.5,0,0.3,0,0
0,3.6,0,0.3,0,0
0,3.7,0,0.3,0,0
0,3.8,0,0.3,0,0
0,3.9,0,0.3,0,0
0,4,0,0.3,-5.80587e-20,0
0,4.1,0,0.3,0,0
0,4.2,0,0.3,0,0
0,4.3,0,0.3,0,0
0,4.4,0,0.3,0,0
0,4.5,0,0.3,0,0
0,4.6,0,0.3,0,0
0,4.7,0,0.3,0,0
0,4.8,0,0.3,0,0
0,4.9,0,0.3,0,0
0,5,0,0.3,0,0
0,5.1,0,0.3,0,0
0,5.2,0,0.3,0,0
0,5.3,0,0.3,0,0
0,5.4,0,0.3,0,0
0,5.5,0,0.3,0,0
0,5.6,0,0.3,0,0
0,5.7,0,0.3,0,0
0,5.8,0,0.3,0,0
0,5.9,0,0.3,0,0
0,6,0,0.3,0,0
0,6.1,0,0.3,0,0
0,6.2,0,0.3,0,0
0,6.3,0,0.3,0,0
0,6.4,0,0.3,0,0
0,6.5,0,0.3,0,0
0,6.6,0,0.3,0,0
0,6.7,0,0.3,0,0
0,6.8,0,0.3,0,0
0,6.9,0,0.3,0,0
0,7,0,0.3,0,0
0,7.1,0,0.3,0,0
0,7.2,0,0.3,0,0
0,7.3,0,0.3,0,0
0,7.4,0,0.3,0,0
0,7.5,0,0.3,0,0
0,7.6,0,0.3,0,0
0,7.7,0,0.3,0,0
0,7.8,0,0.3,0,0
0,7.9,0,0.3,0,0
0,8,0,0.3,0,0
0,8.1,0,0.3,0,0
0,8.2,0,0.3,0,0
0,8.3,0,0.3,0,0
0,8.4,0,0.3,0,0
0,8.5,0,0.3,0,0
0,8.6,0,0.3,0,0
0,8.7,0,0.3,0,0
0,8.8,0,0.3,0,0
0,8.9,0,0.3,0,0
0,9,0,0.3,0,0
0,9.1,0,0.3,0,0
0,9.2,0,0.3,0,0
0,9.3,0,0.3,0,0
0,9.4,0,0.3,0,0
0,9.5,0,0.3,0,0
0,9.6,0,0.3,0,0
0,9.7,0,0.3,0,0
0,9.8,0,0.3,0,0
0,9.9,0,0.3,0,0
0,10,0,0.3,0,0
0,10.1,0,0.3,0,0
0,10.2,0,0.3,0,0
0,10.3,0,0.3,0,0
0,10.4,0,0.3,0,0
0,10.5,0,0.3,0,0
0,10.6,0,0.3,0,0
0,10.7,0,0.3,0,0
0,10.8,0,0.3,0,0
0,10.9,0,0.3,0,0
0,11,0,0.3,0,0
0,11.1,0,0.3,0,0
0,11.2,0,0.3,0,0
0,11.3,0,0.3,0,0
0,11.4,0,0.3,0,0
0,11.5,0,0.3,0,0
0,11.6,0,0.3,0,0
0,11.7,0,0.3,0,0
0,11.8,0,0.3,0,0
0,11.9,0,0.3,0,0
0,12,0,0.3,0,0
0,12.1,0,0.3,0,0
0,12.2,0,0.3,0,0
0,12.3,0,0.3,0,0
0,12.4,0,0.3,2.24797e-05,0
0,12.5,0,0.3,8.67074e-05,0
0,12.6,0,0.3,0.000150935,0
0,12.7,0,0.3,0.000215163,0
0.1,0,0,0.299999,-0.000370859,0
0.1,0.1,0,0.299999,-0.000271817,0
0.1,0.2,0,0.3,-0.000180021,0
0.1,0.3,0,0.299999,-0.000174825,0
0.1,0.4,0,0.299999,-0.000174825,0
0.1,0.5,0,0.299998,-0.000181672,0
0.1,0.6,0,0.299999,-0.000172849,0
0.1,0.7,0,0.299999,-0.000172849,0
0.1,0.8,0,0.299999,-0.00016994,0
0.1,0.9,0,0.299999,-0.00016994,0
0.1,1,0,0.299996,-0.000177464,0
0.1,1.1,0,0.299998,-0.000166163,0
0.1,1.2,0,0.299998,-0.000166163,0
0.1,1.3,0,0.299997,-0.000161598,0
0.1,1.4,0,0.299997,-0.000161598,0
0.1,1.5,0,0.299995,-0.000170519,0
0.1,1.6,0,0.299997,-0.000156344,0
0.1,1.7,0,0.299997,-0.000156344,0
0.1,1.8,0,0.299996,-0.000150524,0
0.1,1.9,0,0.299996,-0.000150524,0
0.1,2,0,0.299994,-0.000160846,0
0.1,2.1,0,0.299996,-0.000144288,0
0.1,2.2,0,0.299996,-0.000144288,0
0.1,2.3,0,0.299996,-0.000137804,0
0.1,2.4,0,0.299996,-0.000137804,0
0.1,2.5,0,0.299993,-0.00014843,0
0.1,2.6,0,0.299996,-0.000131241,0
0.1,2.7,0,0.299996,-0.000131241,0
0.1,2.8,0,0.299996,-0.000124745,0
0.1,2.9,0,0.299996,-0.000124745,0
0.1,3,0,0.299992,-0.000133238,0
0.1,3.1,0,0.299998,-0.0001184,0
0.1,3.2,0,0.299998,-0.0001184,0
0.1,3.3,0,0.300002,-0.000112187,0
0.1,3.4,0,0.300002,-0.000112187,0
0.1,3.5,0,0.299991,-0.000115336,0
0.1,3.6,0,0.300007,-0.00010597,0
0.1,3.7,0,0.300007,-0.00010597,0
0.1,3.8,0,0.300015,-9.94953e-05,0
0.1,3.9,0,0.300015,-9.94953e-05,0
0.1,4,0,0.299988,-9.50811e-05,0
0.1,4.1,0,0.300024,-9.24309e-05,0
0.1,4.2,0,0.300024,-9.24309e-05,0
0.1,4.3,0,0.300035,-8.44444e-05,0
0.1,4.4,0,0.300035,-8.44444e-05,0
0.1,4.5,0,0.299985,-7.30725e-05,0
0.1,4.6,0,0.300045,-7.54338e-05,0
0.1,4.7,0,0.300045,-7.54338e-05,0
0.1,4.8,0,0.300053,-6.52695e-05,0
0.1,4.9,0,0.300053,-6.52695e-05,0
0.1,5,0,0.299982,-5.20206e-05,0
0.1,5.1,0,0.299982,-4.61514e-05,0
0.1,5.2,0,0.299981,-4.19529e-05,0
0.1,5.3,0,0.299981,-3.77586e-05,0
0.1,5.4,0,0.299981,-3.35476e-05,0
0.1,5.5,0,0.299981,-2.93255e-05,0
0.1,5.6,0,0.299981,-2.50979e-05,0
0.1,5.7,0,0.299981,-2.08717e-05,0
0.1,5.8,0,0.299981,-1.66563e-05,0
0.1,5.9,0,0.299982,-1.24232e-05,0
0.1,6,0,0.299982,-5.5239e-06,0
0.1,6.1,0,0.300048,1.35847e-05,0
0.1,6.2,0,0.300048,1.35847e-05,0
0.1,6.3,0,0.300021,1.10514e-05,0
0.1,6.4,0,0.300036,2.42595e-05,0
0.1,6.5,0,0.300036,2.42595e-05,0
0.1,6.6,0,0.300036,2.42595e-05,0
0.1,6.7,0,0.300004,2.89651e-05,0
0.1,6.8,0,0.300023,3.44144e-05,0
0.1,6.9,0,0.300023,3.44144e-05,0
0.1,7,0,0.299991,3.86412e-05,0
0.1,7.1,0,0.300012,4.38407e-05,0
0.1,7.2,0,0.300012,4.38407e-05,0
0.1,7.3,0,0.300004,4.71908e-05,0
0.1,7.4,0,0.300004,5.33804e-05,0
0.1,7.5,0,0.300004,5.33771e-05,0
0.1,7.6,0,0.300004,5.33771e-05,0
0.1,7.7,0,0.299994,6.57405e-05,0
0.1,7.8,0,0.3,6.35236e-05,0
0.1,7.9,0,0.3,6.35236e-05,0
0.1,8,0,0.299992,7.72847e-05,0
0.1,8.1,0,0.299998,7.43487e-05,0
0.1,8.2,0,0.299998,7.43487e-05,0
0.1,8.3,0,0.299996,7.88833e-05,0
0.1,8.4,0,0.299997,8.61986e-05,0
0.1,8.5,0,0.299997,8.56065e-05,0
0.1,8.6,0,0.299997,8.56065e-05,0
0.1,8.7,0,0.299993,0.00010065,0
0.1,8.8,0,0.299997,9.68953e-05,0
0.1,8.9,0,0.299997,9.68953e-05,0
0.1,9,0,0.299993,0.000108547,0
0.1,9.1,0,0.299998,0.000107806,0
0.1,9.2,0,0.299998,0.000107806,0
0.1,9.3,0,0.299997,0.000110231,0
0.1,9.4,0,0.299997,0.000118605,0
0.1,9.5,0,0.299998,0.000118007,0
0.1,9.6,0,0.299998,0.000118007,0
0.1,9.7,0,0.299994,0.000128934,0
0.1,9.8,0,0.299999,0.000127272,0
0.1,9.9,0,0.299999,0.000127272,0
0.1,10,0,0.299995,0.000133641,0
0.1,10.1,0,0.299999,0.000135472,0
0.1,10.2,0,0.299999,0.000135472,0
0.1,10.3,0,0.299998,0.00013622,0
0.1,10.4,0,0.299998,0.000142719,0
0.1,10.5,0,0.299999,0.000142556,0
0.1,10.6,0,0.299999,0.000142556,0
0.1,10.7,0,0.299996,0.000148712,0
0.1,10.8,0,0.299999,0.000148525,0
0.1,10.9,0,0.299999,0.000148525,0
0.1,11,0,0.299997,0.000151436,0
0.1,11.1,0,0.3,0.000153409,0
0.1,11.2,0,0.3,0.000153409,0
0.1,11.3,0,0.3,0.000153468,0
0.1,11.4,0,0.299999,0.000157277,0
0.1,11.5,0,0.3,0.000157253,0
0.1,11.6,0,0.3,0.000157253,0
0.1,11.7,0,0.299998,0.000160308,0
0.1,11.8,0,0.3,0.0001601,0
0.1,11.9,0,0.3,0.0001601,0
0.1,12,0,0.299999,0.000161306,0
0.1,12.1,0,0.3,0.000161978,0
0.1,12.2,0,0.3,0.000161978,0
0.1,12.3,0,0.3,0.000161978,0
0.1,12.4,0,0.3,0.000163277,0
0.1,12.5,0,0.3,0.000210497,0
0.1,12.6,0,0.3,0.000274725,0
0.1,12.7,0,0.3,0.000340249,0
0.2,0,0,0.299998,-0.000512227,0
0.2,0.1,0,0.299999,-0.000405939,0
0.2,0.2,0,0.299999,-0.000357895,0
0.2,0.3,0,0.299998,-0.00035677,0
0.2,0.4,0,0.299999,-0.00034965,0
0.2,0.5,0,0.299996,-0.000363343,0
0.2,0.6,0,0.299998,-0.000345699,0
0.2,0.7,0,0.299996,-0.000352056,0
0.2,0.8,0,0.299996,-0.000348855,0
0.2,0.9,0,0.299997,-0.00033988,0
0.2,1,0,0.299993,-0.000354929,0
0.2,1.1,0,0.299996,-0.000332327,0
0.2,1.2,0,0.299994,-0.000339679,0
0.2,1.3,0,0.299993,-0.000334657,0
0.2,1.4,0,0.299995,-0.000323196,0
0.2,1.5,0,0.29999,-0.000341038,0
0.2,1.6,0,0.299994,-0.000312688,0
0.2,1.7,0,0.299991,-0.0003214,0
0.2,1.8,0,0.299991,-0.000314998,0
0.2,1.9,0,0.299993,-0.000301048,0
0.2,2,0,0.299987,-0.000321693,0
0.2,2.1,0,0.299992,-0.000288576,0
0.2,2.2,0,0.299989,-0.000298202,0
0.2,2.3,0,0.299989,-0.000291069,0
0.2,2.4,0,0.299991,-0.000275608,0
0.2,2.5,0,0.299985,-0.00029686,0
0.2,2.6,0,0.299991,-0.000262483,0
0.2,2.7,0,0.299988,-0.000271429,0
0.2,2.8,0,0.299989,-0.000264283,0
0.2,2.9,0,0.299993,-0.000249491,0
0.2,3,0,0.299984,-0.000266476,0
0.2,3.1,0,0.299996,-0.000236799,0
0.2,3.2,0,0.29999,-0.000242391,0
0.2,3.3,0,0.299994,-0.000235557,0
0.2,3.4,0,0.300004,-0.000224374,0
0.2,3.5,0,0.299981,-0.000230673,0
0.2,3.6,0,0.300015,-0.00021194,0
0.2,3.7,0,0.299999,-0.000211486,0
0.2,3.8,0,0.300007,-0.000204364,0
0.2,3.9,0,0.30003,-0.000198991,0
0.2,4,0,0.299977,-0.000190162,0
0.2,4.1,0,0.300049,-0.000184862,0
0.2,4.2,0,0.300015,-0.000177511,0
0.2,4.3,0,0.300026,-0.000168726,0
0.2,4.4,0,0.300069,-0.000168889,0
0.2,4.5,0,0.29997,-0.000146145,0
0.2,4.6,0,0.300089,-0.000150868,0
0.2,4.7,0,0.300034,-0.000138439,0
0.2,4.8,0,0.300044,-0.000127258,0
0.2,4.9,0,0.300107,-0.000130539,0
0.2,5,0,0.299964,-0.000104041,0
0.2,5.1,0,0.299963,-9.23028e-05,0
0.2,5.2,0,0.299962,-8.39058e-05,0
0.2,5.3,0,0.299962,-7.55173e-05,0
0.2,5.4,0,0.299962,-6.70952e-05,0
0.2,5.5,0,0.299962,-5.8651e-05,0
0.2,5.6,0,0.299962,-5.01958e-05,0
0.2,5.7,0,0.299962,-4.17435e-05,0
0.2,5.8,0,0.299963,-3.33127e-05,0
0.2,5.9,0,0.299963,-2.48464e-05,0
0.2,6,0,0.299965,-1.10478e-05,0
0.2,6.1,0,0.300073,2.03245e-05,0
0.2,6.2,0,0.300097,2.71693e-05,0
0.2,6.3,0,0.300005,1.86807e-05,0
0.2,6.4,0,0.300023,3.30058e-05,0
0.2,6.5,0,0.300071,4.8519e-05,0
0.2,6.6,0,0.300029,4.80227e-05,0
0.2,6.7,0,0.29999,5.26413e-05,0
0.2,6.8,0,0.300045,6.88287e-05,0
0.2,6.9,0,0.300035,7.01002e-05,0
0.2,7,0,0.299978,7.76605e-05,0
0.2,7.1,0,0.300013,8.55586e-05,0
0.2,7.2,0,0.300024,8.76815e-05,0
0.2,7.3,0,0.299993,0.00010079,0
0.2,7.4,0,0.299993,0.00010698,0
0.2,7.5,0,0.300009,0.000106754,0
0.2,7.6,0,0.299997,0.000117444,0
0.2,7.7,0,0.299984,0.000133024,0
0.2,7.8,0,0.3,0.000127047,0
0.2,7.9,0,0.299998,0.000130242,0
0.2,8,0,0.299982,0.000157272,0
0.2,8.1,0,0.299992,0.000151643,0
0.2,8.2,0,0.299996,0.000148697,0
0.2,8.3,0,0.299986,0.000170593,0
0.2,8.4,0,0.299987,0.000177908,0
0.2,8.5,0,0.299995,0.000171213,0
0.2,8.6,0,0.29999,0.000182801,0
0.2,8.7,0,0.299984,0.000203135,0
0.2,8.8,0,0.299995,0.000193957,0
0.2,8.9,0,0.299994,0.000195521,0
0.2,9,0,0.299984,0.000220901,0
0.2,9.1,0,0.299992,0.000218362,0
0.2,9.2,0,0.299996,0.000215612,0
0.2,9.3,0,0.299989,0.000231577,0
0.2,9.4,0,0.299989,0.000239951,0
0.2,9.5,0,0.299996,0.000236015,0
0.2,9.6,0,0.299993,0.000242948,0
0.2,9.7,0,0.299987,0.000258412,0
0.2,9.8,0,0.299996,0.000254791,0
0.2,9.9,0,0.299997,0.000254827,0
0.2,10,0,0.299989,0.000270397,0
0.2,10.1,0,0.299994,0.000271826,0
0.2,10.2,0,0.299998,0.000270945,0
0.2,10.3,0,0.299993,0.0002794,0
0.2,10.4,0,0.299992,0.000285899,0
0.2,10.5,0,0.299998,0.000285113,0
0.2,10.6,0,0.299996,0.000288348,0
0.2,10.7,0,0.299991,0.000297461,0
0.2,10.8,0,0.299998,0.000297094,0
0.2,10.9,0,0.299999,0.00029705,0
0.2,11,0,0.299994,0.000304898,0
0.2,11.1,0,0.299997,0.00030686,0
0.2,11.2,0,0.299999,0.000306819,0
0.2,11.3,0,0.299997,0.000310789,0
0.2,11.4,0,0.299996,0.000314598,0
0.2,11.5,0,0.299999,0.000314507,0
0.2,11.6,0,0.299998,0.00031586,0
0.2,11.7,0,0.299996,0.000320634,0
0.2,11.8,0,0.299999,0.000320263,0
0.2,11.9,0,0.299999,0.000320201,0
0.2,12,0,0.299998,0.000323784,0
0.2,12.1,0,0.299999,0.000324381,0
0.2,12.2,0,0.3,0.000323956,0
0.2,12.3,0,0.299999,0.00032563,0
0.2,12.4,0,0.299999,0.00032705,0
0.2,12.5,0,0.3,0.000334287,0
0.2,12.6,0,0.3,0.000398979,0
0.2,12.7,0,0.299999,0.000465335,0
0.3,0,0,0.299998,-0.000653595,0
0.3,0.1,0,0.299999,-0.000545858,0
0.3,0.2,0,0.299998,-0.00054063,0
0.3,0.3,0,0.299997,-0.000539505,0
0.3,0.4,0,0.299997,-0.000529952,0
0.3,0.5,0,0.299994,-0.000545015,0
0.3,0.6,0,0.299996,-0.000525606,0
0.3,0.7,0,0.299994,-0.000531969,0
0.3,0.8,0,0.299993,-0.000528768,0
0.3,0.9,0,0.299994,-0.000515839,0
0.3,1,0,0.299989,-0.000532393,0
0.3,1.1,0,0.299992,-0.000507531,0
0.3,1.2,0,0.299989,-0.000514011,0
0.3,1.3,0,0.299989,-0.00050899,0
0.3,1.4,0,0.29999,-0.000491931,0
0.3,1.5,0,0.299984,-0.000511557,0
0.3,1.6,0,0.299989,-0.000480372,0
0.3,1.7,0,0.299986,-0.000487425,0
0.3,1.8,0,0.299985,-0.000481023,0
0.3,1.9,0,0.299987,-0.00045983,0
0.3,2,0,0.29998,-0.000482539,0
0.3,2.1,0,0.299986,-0.000446111,0
0.3,2.2,0,0.299982,-0.000453185,0
0.3,2.3,0,0.299982,-0.000446053,0
0.3,2.4,0,0.299985,-0.000421913,0
0.3,2.5,0,0.299978,-0.000445289,0
0.3,2.6,0,0.299985,-0.000407475,0
0.3,2.7,0,0.299981,-0.00041261,0
0.3,2.8,0,0.299981,-0.000405464,0
0.3,2.9,0,0.299985,-0.000381031,0
0.3,3,0,0.299976,-0.000399714,0
0.3,3.1,0,0.299989,-0.00036707,0
0.3,3.2,0,0.299982,-0.000367003,0
0.3,3.3,0,0.299986,-0.000360169,0
0.3,3.4,0,0.299997,-0.00033908,0
0.3,3.5,0,0.299972,-0.000346009,0
0.3,3.6,0,0.300009,-0.000325403,0
0.3,3.7,0,0.299988,-0.000316953,0
0.3,3.8,0,0.299997,-0.000309831,0
0.3,3.9,0,0.300023,-0.000294955,0
0.3,4,0,0.299965,-0.000285243,0
0.3,4.1,0,0.300044,-0.000279413,0
0.3,4.2,0,0.300002,-0.000261774,0
0.3,4.3,0,0.300013,-0.000252989,0
0.3,4.4,0,0.300064,-0.000244236,0
0.3,4.5,0,0.299955,-0.000219218,0
0.3,4.6,0,0.300087,-0.000224412,0
0.3,4.7,0,0.300018,-0.000200063,0
0.3,4.8,0,0.300027,-0.000188882,0
0.3,4.9,0,0.300103,-0.000185209,0
0.3,5,0,0.299947,-0.000156062,0
0.3,5.1,0,0.299945,-0.000138454,0
0.3,5.2,0,0.299944,-0.000125859,0
0.3,5.3,0,0.299943,-0.000113276,0
0.3,5.4,0,0.299942,-0.000100643,0
0.3,5.5,0,0.299942,-8.79765e-05,0
0.3,5.6,0,0.299943,-7.52937e-05,0
0.3,5.7,0,0.299943,-6.26152e-05,0
0.3,5.8,0,0.299944,-4.9969e-05,0
0.3,5.9,0,0.299945,-3.72696e-05,0
0.3,6,0,0.299947,-1.65717e-05,0
0.3,6.1,0,0.300056,1.48005e-05,0
0.3,6.2,0,0.300095,3.60875e-05,0
0.3,6.3,0,0.299989,2.63101e-05,0
0.3,6.4,0,0.300007,4.06351e-05,0
0.3,6.5,0,0.300082,6.78165e-05,0
0.3,6.6,0,0.300015,7.16989e-05,0
0.3,6.7,0,0.299976,7.63175e-05,0
0.3,6.8,0,0.300036,9.39474e-05,0
0.3,6.9,0,0.300023,0.000109119,0
0.3,7,0,0.299966,0.00011668,0
0.3,7.1,0,0.300001,0.000124578,0
0.3,7.2,0,0.30002,0.000138368,0
0.3,7.3,0,0.299982,0.00015439,0
0.3,7.4,0,0.299982,0.000160579,0
0.3,7.5,0,0.300005,0.000161979,0
0.3,7.6,0,0.299987,0.000184727,0
0.3,7.7,0,0.299973,0.000200308,0
0.3,7.8,0,0.29999,0.000194135,0
0.3,7.9,0,0.299988,0.00021023,0
0.3,8,0,0.299972,0.00023726,0
0.3,8.1,0,0.299982,0.000231631,0
0.3,8.2,0,0.299989,0.000233799,0
0.3,8.3,0,0.299977,0.000262302,0
0.3,8.4,0,0.299978,0.000269618,0
0.3,8.5,0,0.299989,0.000260354,0
0.3,8.6,0,0.299981,0.000285287,0
0.3,8.7,0,0.299975,0.00030562,0
0.3,8.8,0,0.299986,0.000296443,0
0.3,8.9,0,0.299986,0.000307875,0
0.3,9,0,0.299976,0.000333256,0
0.3,9.1,0,0.299983,0.000330716,0
0.3,9.2,0,0.29999,0.000330694,0
0.3,9.3,0,0.299981,0.000352923,0
0.3,9.4,0,0.299981,0.000361297,0
0.3,9.5,0,0.299991,0.000355816,0
0.3,9.6,0,0.299986,0.000372426,0
0.3,9.7,0,0.29998,0.00038789,0
0.3,9.8,0,0.299989,0.000384269,0
0.3,9.9,0,0.299991,0.000391582,0
0.3,10,0,0.299983,0.000407152,0
0.3,10.1,0,0.299988,0.000408581,0
0.3,10.2,0,0.299994,0.000409983,0
0.3,10.3,0,0.299987,0.000422579,0
0.3,10.4,0,0.299987,0.000429078,0
0.3,10.5,0,0.299994,0.000428055,0
0.3,10.6,0,0.299991,0.000437096,0
0.3,10.7,0,0.299987,0.00044621,0
0.3,10.8,0,0.299993,0.000445842,0
0.3,10.9,0,0.299995,0.000450255,0
0.3,11,0,0.29999,0.00045836,0
0.3,11.1,0,0.299993,0.000460322,0
0.3,11.2,0,0.299997,0.000461695,0
0.3,11.3,0,0.299994,0.00046811,0
0.3,11.4,0,0.299993,0.000471919,0
0.3,11.5,0,0.299997,0.000471808,0
0.3,11.6,0,0.299996,0.000476186,0
0.3,11.7,0,0.299993,0.000480961,0
0.3,11.8,0,0.299996,0.00048059,0
0.3,11.9,0,0.299998,0.000482359,0
0.3,12,0,0.299996,0.000486261,0
0.3,12.1,0,0.299997,0.000486858,0
0.3,12.2,0,0.299999,0.000486561,0
0.3,12.3,0,0.299999,0.000489403,0
0.3,12.4,0,0.299998,0.000490822,0
0.3,12.5,0,0.299999,0.000489407,0
0.3,12.6,0,0.299999,0.000524066,0
0.3,12.7,0,0.299999,0.000590421,0
0.4,0,0,0.299997,-0.000794964,0
0.4,0.1,0,0.299998,-0.000721256,0
0.4,0.2,0,0.299997,-0.000723366,0
0.4,0.3,0,0.299996,-0.000722241,0
0.4,0.4,0,0.299995,-0.000717161,0
0.4,0.5,0,0.299992,-0.000726686,0
0.4,0.6,0,0.299993,-0.000712222,0
0.4,0.7,0,0.299991,-0.000711881,0
0.4,0.8,0,0.29999,-0.000708681,0
0.4,0.9,0,0.299989,-0.000700285,0
0.4,1,0,0.299985,-0.000709857,0
0.4,1.1,0,0.299987,-0.000690713,0
0.4,1.2,0,0.299985,-0.000688344,0
0.4,1.3,0,0.299984,-0.000683322,0
0.4,1.4,0,0.299984,-0.000671364,0
0.4,1.5,0,0.299979,-0.000682077,0
0.4,1.6,0,0.299982,-0.000657668,0
0.4,1.7,0,0.29998,-0.000653449,0
0.4,1.8,0,0.299979,-0.000647047,0
0.4,1.9,0,0.299979,-0.000631527,0
0.4,2,0,0.299974,-0.000643386,0
0.4,2.1,0,0.299977,-0.000614444,0
0.4,2.2,0,0.299975,-0.000608168,0
0.4,2.3,0,0.299975,-0.000601036,0
0.4,2.4,0,0.299975,-0.000582368,0
0.4,2.5,0,0.299971,-0.000593719,0
0.4,2.6,0,0.299975,-0.000562863,0
0.4,2.7,0,0.299973,-0.000553791,0
0.4,2.8,0,0.299974,-0.000546645,0
0.4,2.9,0,0.299974,-0.000525774,0
0.4,3,0,0.299967,-0.000532953,0
0.4,3.1,0,0.299977,-0.000504657,0
0.4,3.2,0,0.299973,-0.000491616,0
0.4,3.3,0,0.299977,-0.000484782,0
0.4,3.4,0,0.29998,-0.000463114,0
0.4,3.5,0,0.299963,-0.000461345,0
0.4,3.6,0,0.299987,-0.000440386,0
0.4,3.7,0,0.299978,-0.000422419,0
0.4,3.8,0,0.299986,-0.000415297,0
0.4,3.9,0,0.299994,-0.000394215,0
0.4,4,0,0.299953,-0.000380325,0
0.4,4.1,0,0.300006,-0.000368777,0
0.4,4.2,0,0.299989,-0.000346037,0
0.4,4.3,0,0.3,-0.000337252,0
0.4,4.4,0,0.300016,-0.000317181,0
0.4,4.5,0,0.299941,-0.00029229,0
0.4,4.6,0,0.300029,-0.000287818,0
0.4,4.7,0,0.300001,-0.000261687,0
0.4,4.8,0,0.300011,-0.000250506,0
0.4,4.9,0,0.300037,-0.000234678,0
0.4,5,0,0.299929,-0.000208082,0
0.4,5.1,0,0.299926,-0.000184606,0
0.4,5.2,0,0.299925,-0.000167812,0
0.4,5.3,0,0.299924,-0.000151035,0
0.4,5.4,0,0.299923,-0.00013419,0
0.4,5.5,0,0.299923,-0.000117302,0
0.4,5.6,0,0.299923,-0.000100392,0
0.4,5.7,0,0.299924,-8.3487e-05,0
0.4,5.8,0,0.299925,-6.66253e-05,0
0.4,5.9,0,0.299927,-4.96928e-05,0
0.4,6,0,0.29993,-2.20956e-05,0
0.4,6.1,0,0.300029,8.43223e-06,0
0.4,6.2,0,0.300032,3.00271e-05,0
0.4,6.3,0,0.299973,3.39394e-05,0
0.4,6.4,0,0.299992,4.82644e-05,0
0.4,6.5,0,0.300016,7.48625e-05,0
0.4,6.6,0,0.300001,9.53751e-05,0
0.4,6.7,0,0.299962,9.99937e-05,0
0.4,6.8,0,0.3,0.000120545,0
0.4,6.9,0,0.300003,0.000145735,0
0.4,7,0,0.299954,0.000155699,0
0.4,7.1,0,0.299987,0.00016418,0
0.4,7.2,0,0.299989,0.000188117,0
0.4,7.3,0,0.299971,0.000207989,0
0.4,7.4,0,0.299971,0.000214179,0
0.4,7.5,0,0.29998,0.000229485,0
0.4,7.6,0,0.299977,0.000252011,0
0.4,7.7,0,0.299963,0.000267592,0
0.4,7.8,0,0.299974,0.000270511,0
0.4,7.9,0,0.299975,0.000291368,0
0.4,8,0,0.299962,0.000317248,0
0.4,8.1,0,0.299972,0.000311619,0
0.4,8.2,0,0.299972,0.000330475,0
0.4,8.3,0,0.299967,0.000354012,0
0.4,8.4,0,0.299968,0.000361327,0
0.4,8.5,0,0.299973,0.000368942,0
0.4,8.6,0,0.299972,0.000387772,0
0.4,8.7,0,0.299966,0.000408105,0
0.4,8.8,0,0.299974,0.000406196,0
0.4,8.9,0,0.299975,0.000422399,0
0.4,9,0,0.299967,0.00044561,0
0.4,9.1,0,0.299975,0.00044307,0
0.4,9.2,0,0.299976,0.000456418,0
0.4,9.3,0,0.299973,0.00047427,0
0.4,9.4,0,0.299974,0.000482644,0
0.4,9.5,0,0.299978,0.000488204,0
0.4,9.6,0,0.299979,0.000501903,0
0.4,9.7,0,0.299973,0.000517367,0
0.4,9.8,0,0.29998,0.000517426,0
0.4,9.9,0,0.299982,0.000529375,0
0.4,10,0,0.299976,0.000543907,0
0.4,10.1,0,0.299982,0.000545336,0
0.4,10.2,0,0.299984,0.000554445,0
0.4,10.3,0,0.299982,0.000565759,0
0.4,10.4,0,0.299981,0.000572258,0
0.4,10.5,0,0.299985,0.000576688,0
0.4,10.6,0,0.299987,0.000585845,0
0.4,10.7,0,0.299982,0.000594959,0
0.4,10.8,0,0.299987,0.000596102,0
0.4,10.9,0,0.299989,0.00060384,0
0.4,11,0,0.299986,0.000611823,0
0.4,11.1,0,0.299989,0.000613784,0
0.4,11.2,0,0.299991,0.000619068,0
0.4,11.3,0,0.29999,0.000625431,0
0.4,11.4,0,0.29999,0.00062924,0
0.4,11.5,0,0.299992,0.000631583,0
0.4,11.6,0,0.299994,0.000636517,0
0.4,11.7,0,0.299991,0.000641287,0
0.4,11.8,0,0.299994,0.000641448,0
0.4,11.9,0,0.299995,0.000644979,0
0.4,12,0,0.299995,0.000648738,0
0.4,12.1,0,0.299996,0.000649335,0
0.4,12.2,0,0.299997,0.000650832,0
0.4,12.3,0,0.299998,0.000653175,0
0.4,12.4,0,0.299997,0.000654595,0
0.4,12.5,0,0.299998,0.000654108,0
0.4,12.6,0,0.299999,0.000654821,0
0.4,12.7,0,0.299998,0.000715508,0
0.5,0,0,0.299997,-0.000936332,0
0.5,0.1,0,0.299996,-0.000911237,0
0.5,0.2,0,0.299995,-0.000910449,0
0.5,0.3,0,0.299994,-0.000909084,0
0.5,0.4,0,0.299993,-0.000906743,0
0.5,0.5,0,0.29999,-0.000908358,0
0.5,0.6,0,0.299989,-0.000900957,0
0.5,0.7,0,0.299987,-0.000897087,0
0.5,0.8,0,0.299986,-0.000893108,0
0.5,0.9,0,0.299984,-0.000887722,0
0.5,1,0,0.299982,-0.000887321,0
0.5,1.1,0,0.299981,-0.000876347,0
0.5,1.2,0,0.299979,-0.000869457,0
0.5,1.3,0,0.299978,-0.000863007,0
0.5,1.4,0,0.299976,-0.000854618,0
0.5,1.5,0,0.299974,-0.000852596,0
0.5,1.6,0,0.299974,-0.000837867,0
0.5,1.7,0,0.299972,-0.000827979,0
0.5,1.8,0,0.299971,-0.000819265,0
0.5,1.9,0,0.29997,-0.000807874,0
0.5,2,0,0.299967,-0.000804232,0
0.5,2.1,0,0.299968,-0.000785986,0
0.5,2.2,0,0.299967,-0.000773087,0
0.5,2.3,0,0.299966,-0.000762395,0
0.5,2.4,0,0.299965,-0.000747977,0
0.5,2.5,0,0.299963,-0.000742149,0
0.5,2.6,0,0.299964,-0.000721232,0
0.5,2.7,0,0.299963,-0.000705285,0
0.5,2.8,0,0.299963,-0.000692922,0
0.5,2.9,0,0.299962,-0.000675447,0
0.5,3,0,0.299959,-0.000666191,0
0.5,3.1,0,0.299962,-0.000644108,0
0.5,3.2,0,0.299961,-0.000625131,0
0.5,3.3,0,0.299962,-0.000611284,0
0.5,3.4,0,0.29996,-0.000590876,0
0.5,3.5,0,0.299953,-0.000576681,0
0.5,3.6,0,0.29996,-0.000555219,0
0.5,3.7,0,0.299958,-0.000533505,0
0.5,3.8,0,0.29996,-0.000518115,0
0.5,3.9,0,0.299957,-0.000495267,0
0.5,4,0,0.299942,-0.000475406,0
0.5,4.1,0,0.299957,-0.00045569,0
0.5,4.2,0,0.299954,-0.00043189,0
0.5,4.3,0,0.299957,-0.000414692,0
0.5,4.4,0,0.299953,-0.000390072,0
0.5,4.5,0,0.299926,-0.000365363,0
0.5,4.6,0,0.299953,-0.000347081,0
0.5,4.7,0,0.299949,-0.000321894,0
0.5,4.8,0,0.299952,-0.000304181,0
0.5,4.9,0,0.299949,-0.000283053,0
0.5,5,0,0.299911,-0.000260103,0
0.5,5.1,0,0.299908,-0.000230757,0
0.5,5.2,0,0.299906,-0.000209765,0
0.5,5.3,0,0.299905,-0.000188793,0
0.5,5.4,0,0.299904,-0.000167738,0
0.5,5.5,0,0.299904,-0.000146628,0
0.5,5.6,0,0.299904,-0.00012549,0
0.5,5.7,0,0.299905,-0.000104359,0
0.5,5.8,0,0.299907,-8.32817e-05,0
0.5,5.9,0,0.299909,-6.21161e-05,0
0.5,6,0,0.299912,-2.76195e-05,0
0.5,6.1,0,0.299947,-3.04701e-06,0
0.5,6.2,0,0.29995,1.85478e-05,0
0.5,6.3,0,0.299953,4.01427e-05,0
0.5,6.4,0,0.299948,5.55629e-05,0
0.5,6.5,0,0.299951,8.19085e-05,0
0.5,6.6,0,0.299954,0.000108254,0
0.5,6.7,0,0.299948,0.00012367,0
0.5,6.8,0,0.299951,0.000148826,0
0.5,6.9,0,0.299954,0.000174016,0
0.5,7,0,0.299941,0.000194718,0
0.5,7.1,0,0.299952,0.000212958,0
0.5,7.2,0,0.299954,0.000236895,0
0.5,7.3,0,0.299956,0.000260833,0
0.5,7.4,0,0.299953,0.000274524,0
0.5,7.5,0,0.299954,0.000296991,0
0.5,7.6,0,0.299955,0.000319458,0
0.5,7.7,0,0.299952,0.000334876,0
0.5,7.8,0,0.299954,0.000354259,0
0.5,7.9,0,0.299955,0.000375116,0
0.5,8,0,0.299952,0.000397236,0
0.5,8.1,0,0.299954,0.000408578,0
0.5,8.2,0,0.299955,0.000427823,0
0.5,8.3,0,0.299956,0.000447068,0
0.5,8.4,0,0.299956,0.000459838,0
0.5,8.5,0,0.299957,0.00047753,0
0.5,8.6,0,0.299957,0.000495221,0
0.5,8.7,0,0.299957,0.00051059,0
0.5,8.8,0,0.299959,0.00052414,0
0.5,8.9,0,0.29996,0.000540343,0
0.5,9,0,0.299959,0.000557964,0
0.5,9.1,0,0.299961,0.00056755,0
0.5,9.2,0,0.299962,0.000582312,0
0.5,9.3,0,0.299963,0.000597075,0
0.5,9.4,0,0.299964,0.00060767,0
0.5,9.5,0,0.299965,0.000621021,0
0.5,9.6,0,0.299966,0.000634371,0
0.5,9.7,0,0.299966,0.000646845,0
0.5,9.8,0,0.299968,0.000656387,0
0.5,9.9,0,0.29997,0.000668336,0
0.5,10,0,0.29997,0.000680663,0
0.5,10.1,0,0.299972,0.000688361,0
0.5,10.2,0,0.299973,0.000698908,0
0.5,10.3,0,0.299974,0.000709455,0
0.5,10.4,0,0.299975,0.000716916,0
0.5,10.5,0,0.299976,0.00072606,0
0.5,10.6,0,0.299978,0.000735203,0
0.5,10.7,0,0.299977,0.000743707,0
0.5,10.8,0,0.29998,0.000749788,0
0.5,10.9,0,0.299981,0.000757526,0
0.5,11,0,0.299982,0.000765285,0
0.5,11.1,0,0.299983,0.000770107,0
0.5,11.2,0,0.299984,0.000776442,0
0.5,11.3,0,0.299986,0.000782778,0
0.5,11.4,0,0.299986,0.000787042,0
0.5,11.5,0,0.299988,0.000791977,0
0.5,11.6,0,0.299989,0.000796911,0
0.5,11.7,0,0.299989,0.000801614,0
0.5,11.8,0,0.299991,0.000804151,0
0.5,11.9,0,0.299992,0.000807682,0
0.5,12,0,0.299993,0.000811215,0
0.5,12.1,0,0.299994,0.000812977,0
0.5,12.2,0,0.299995,0.000815104,0
0.5,12.3,0,0.299996,0.00081723,0
0.5,12.4,0,0.299997,0.000818464,0
0.5,12.5,0,0.299997,0.000819177,0
0.5,12.6,0,0.299998,0.00081989,0
0.5,12.7,0,0.299998,0.000840594,0
0.6,0,0,0.299996,-0.00110037,0
0.6,0.1,0,0.299995,-0.00110158,0
0.6,0.2,0,0.299994,-0.00110079,0
0.6,0.3,0,0.299992,-0.00109901,0
0.6,0.4,0,0.29999,-0.00109667,0
0.6,0.5,0,0.299987,-0.00109163,0
0.6,0.6,0,0.299986,-0.00109004,0
0.6,0.7,0,0.299984,-0.00108617,0
0.6,0.8,0,0.299981,-0.00108089,0
0.6,0.9,0,0.299979,-0.0010755,0
0.6,1,0,0.299975,-0.00106598,0
0.6,1.1,0,0.299975,-0.00106232,0
0.6,1.2,0,0.299973,-0.00105543,0
0.6,1.3,0,0.299971,-0.0010466,0
0.6,1.4,0,0.299969,-0.00103821,0
0.6,1.5,0,0.299964,-0.00102371,0
0.6,1.6,0,0.299966,-0.00101841,0
0.6,1.7,0,0.299964,-0.00100852,0
0.6,1.8,0,0.299962,-0.000995954,0
0.6,1.9,0,0.299961,-0.000984563,0
0.6,2,0,0.299955,-0.000964969,0
0.6,2.1,0,0.299959,-0.000957871,0
0.6,2.2,0,0.299958,-0.000944972,0
0.6,2.3,0,0.299956,-0.000928351,0
0.6,2.4,0,0.299955,-0.000913933,0
0.6,2.5,0,0.299948,-0.000889848,0
0.6,2.6,0,0.299953,-0.000879949,0
0.6,2.7,0,0.299953,-0.000864002,0
0.6,2.8,0,0.299951,-0.000842942,0
0.6,2.9,0,0.29995,-0.000825467,0
0.6,3,0,0.299941,-0.00079846,0
0.6,3.1,0,0.299947,-0.000783895,0
0.6,3.2,0,0.299946,-0.000764919,0
0.6,3.3,0,0.299942,-0.000739359,0
0.6,3.4,0,0.29994,-0.000718952,0
0.6,3.5,0,0.299934,-0.000691447,0
0.6,3.6,0,0.299933,-0.000670332,0
0.6,3.7,0,0.299931,-0.000648618,0
0.6,3.8,0,0.299924,-0.000619402,0
0.6,3.9,0,0.299921,-0.000596555,0
0.6,4,0,0.299921,-0.000570888,0
0.6,4.1,0,0.299908,-0.000542801,0
0.6,4.2,0,0.299905,-0.000519001,0
0.6,4.3,0,0.299894,-0.000487757,0
0.6,4.4,0,0.299891,-0.000463138,0
0.6,4.5,0,0.299904,-0.000440051,0
0.6,4.6,0,0.299876,-0.000406427,0
0.6,4.7,0,0.299873,-0.00038124,0
0.6,4.8,0,0.299863,-0.000350628,0
0.6,4.9,0,0.299861,-0.0003295,0
0.6,5,0,0.299889,-0.000314398,0
0.6,5.1,0,0.299886,-0.00027878,0
0.6,5.2,0,0.299884,-0.000253124,0
0.6,5.3,0,0.299883,-0.000227462,0
0.6,5.4,0,0.299882,-0.000201703,0
0.6,5.5,0,0.299881,-0.000175879,0
0.6,5.6,0,0.299882,-0.000150022,0
0.6,5.7,0,0.299883,-0.00012417,0
0.6,5.8,0,0.299884,-9.83712e-05,0
0.6,5.9,0,0.299886,-7.24865e-05,0
0.6,6,0,0.29989,-3.06913e-05,0
0.6,6.1,0,0.299865,-1.77747e-05,0
0.6,6.2,0,0.299868,3.82019e-06,0
0.6,6.3,0,0.29987,2.5415e-05,0
0.6,6.4,0,0.299882,6.29637e-05,0
0.6,6.5,0,0.299885,8.93093e-05,0
0.6,6.6,0,0.299889,0.000115655,0
0.6,6.7,0,0.2999,0.000152234,0
0.6,6.8,0,0.299903,0.000177456,0
0.6,6.9,0,0.299905,0.000202646,0
0.6,7,0,0.299915,0.000231655,0
0.6,7.1,0,0.299917,0.00026215,0
0.6,7.2,0,0.299919,0.000286087,0
0.6,7.3,0,0.299921,0.000310025,0
0.6,7.4,0,0.299927,0.000342513,0
0.6,7.5,0,0.299928,0.000364979,0
0.6,7.6,0,0.299929,0.000387446,0
0.6,7.7,0,0.299932,0.000415833,0
0.6,7.8,0,0.299934,0.000438505,0
0.6,7.9,0,0.299934,0.000459362,0
0.6,8,0,0.299932,0.000477717,0
0.6,8.1,0,0.299937,0.000506411,0
0.6,8.2,0,0.299938,0.000525656,0
0.6,8.3,0,0.299938,0.0005449,0
0.6,8.4,0,0.29994,0.000568889,0
0.6,8.5,0,0.29994,0.00058658,0
0.6,8.6,0,0.299941,0.000604271,0
0.6,8.7,0,0.299941,0.000623322,0
0.6,8.8,0,0.299944,0.000642528,0
0.6,8.9,0,0.299945,0.000658731,0
0.6,9,0,0.299943,0.00067325,0
0.6,9.1,0,0.299947,0.000693877,0
0.6,9.2,0,0.299948,0.00070864,0
0.6,9.3,0,0.299949,0.000723402,0
0.6,9.4,0,0.299951,0.000740914,0
0.6,9.5,0,0.299952,0.000754264,0
0.6,9.6,0,0.299953,0.000767615,0
0.6,9.7,0,0.299953,0.000781592,0
0.6,9.8,0,0.299956,0.000795775,0
0.6,9.9,0,0.299958,0.000807723,0
0.6,10,0,0.299958,0.000819512,0
0.6,10.1,0,0.299961,0.00083325,0
0.6,10.2,0,0.299962,0.000843797,0
0.6,10.3,0,0.299964,0.000854344,0
0.6,10.4,0,0.299966,0.000866716,0
0.6,10.5,0,0.299967,0.00087586,0
0.6,10.6,0,0.299968,0.000885003,0
0.6,10.7,0,0.299969,0.000895172,0
0.6,10.8,0,0.299972,0.000903902,0
0.6,10.9,0,0.299973,0.00091164,0
0.6,11,0,0.299974,0.000919552,0
0.6,11.1,0,0.299976,0.000927908,0
0.6,11.2,0,0.299978,0.000934243,0
0.6,11.3,0,0.299979,0.000940578,0
0.6,11.4,0,0.299981,0.000947863,0
0.6,11.5,0,0.299983,0.000952797,0
0.6,11.6,0,0.299984,0.000957732,0
0.6,11.7,0,0.299985,0.000963728,0
0.6,11.8,0,0.299987,0.000967283,0
0.6,11.9,0,0.299988,0.000970814,0
0.6,12,0,0.29999,0.000974361,0
0.6,12.1,0,0.299992,0.000977675,0
0.6,12.2,0,0.299993,0.000979802,0
0.6,12.3,0,0.299994,0.000981929,0
0.6,12.4,0,0.299996,0.000983967,0
0.6,12.5,0,0.299996,0.00098468,0
0.6,12.6,0,0.299997,0.000985393,0
0.6,12.7,0,0.299997,0.000986883,0
0.7,0,0,0.299994,-0.00128707,0
0.7,0.1,0,0.299995,-0.00129227,0
0.7,0.2,0,0.299993,-0.0012897,0
0.7,0.3,0,0.29999,-0.00128767,0
0.7,0.4,0,0.299988,-0.00128695,0
0.7,0.5,0,0.299982,-0.00127651,0
0.7,0.6,0,0.299982,-0.00127947,0
0.7,0.7,0,0.299979,-0.00127293,0
0.7,0.8,0,0.299975,-0.00126686,0
0.7,0.9,0,0.299975,-0.00126362,0
0.7,1,0,0.299965,-0.00124584,0
0.7,1.1,0,0.299969,-0.00124864,0
0.7,1.2,0,0.299965,-0.00123769,0
0.7,1.3,0,0.299961,-0.00122743,0
0.7,1.4,0,0.299962,-0.00122215,0
0.7,1.5,0,0.299949,-0.00119543,0
0.7,1.6,0,0.299958,-0.00119929,0
0.7,1.7,0,0.299953,-0.00118366,0
0.7,1.8,0,0.29995,-0.00116878,0
0.7,1.9,0,0.299952,-0.00116159,0
0.7,2,0,0.299935,-0.0011256,0
0.7,2.1,0,0.299949,-0.0011301,0
0.7,2.2,0,0.299943,-0.00110994,0
0.7,2.3,0,0.299942,-0.00108977,0
0.7,2.4,0,0.299945,-0.00108024,0
0.7,2.5,0,0.299924,-0.00103682,0
0.7,2.6,0,0.299943,-0.00103901,0
0.7,2.7,0,0.299936,-0.00101518,0
0.7,2.8,0,0.299933,-0.000988901,0
0.7,2.9,0,0.299938,-0.000975834,0
0.7,3,0,0.299914,-0.000929762,0
0.7,3.1,0,0.299932,-0.000924019,0
0.7,3.2,0,0.299925,-0.000898154,0
0.7,3.3,0,0.299919,-0.000865554,0
0.7,3.4,0,0.299921,-0.000847341,0
0.7,3.5,0,0.299904,-0.000805643,0
0.7,3.6,0,0.299907,-0.000785725,0
0.7,3.7,0,0.299903,-0.000759932,0
0.7,3.8,0,0.299889,-0.000722394,0
0.7,3.9,0,0.299884,-0.000698077,0
0.7,4,0,0.299891,-0.000666773,0
0.7,4.1,0,0.299859,-0.00063011,0
0.7,4.2,0,0.299864,-0.000605885,0
0.7,4.3,0,0.299845,-0.0005662,0
0.7,4.4,0,0.299828,-0.000536379,0
0.7,4.5,0,0.299876,-0.000516355,0
0.7,4.6,0,0.2998,-0.000465856,0
0.7,4.7,0,0.299816,-0.000443308,0
0.7,4.8,0,0.299799,-0.000403749,0
0.7,4.9,0,0.299772,-0.000374019,0
0.7,5,0,0.299863,-0.000370967,0
0.7,5.1,0,0.29986,-0.000328675,0
0.7,5.2,0,0.299858,-0.000297889,0
0.7,5.3,0,0.299857,-0.000267041,0
0.7,5.4,0,0.299856,-0.000236086,0
0.7,5.5,0,0.299856,-0.000205057,0
0.7,5.6,0,0.299856,-0.000173988,0
0.7,5.7,0,0.299857,-0.00014292,0
0.7,5.8,0,0.299858,-0.000111894,0
0.7,5.9,0,0.29986,-8.08042e-05,0
0.7,6,0,0.299863,-3.1311e-05,0
0.7,6.1,0,0.299782,-3.57507e-05,0
0.7,6.2,0,0.299785,-1.41559e-05,0
0.7,6.3,0,0.299838,3.46107e-05,0
0.7,6.4,0,0.299833,7.22911e-05,0
0.7,6.5,0,0.29982,9.70649e-05,0
0.7,6.6,0,0.299836,0.000129378,0
0.7,6.7,0,0.29987,0.000177004,0
0.7,6.8,0,0.299854,0.000206435,0
0.7,6.9,0,0.299857,0.000231625,0
0.7,7,0,0.299883,0.000269773,0