/*--------------------------------*- C++ -*----------------------------------*\
| =========                 |                                                 |
| \\      /  F ield         | OpenFOAM: The Open Source CFD Toolbox           |
|  \\    /   O peration     | Version:  v1806                                 |
|   \\  /    A nd           | Web:      www.OpenFOAM.com                      |
|    \\/     M anipulation  |                                                 |
\*---------------------------------------------------------------------------*/
FoamFile
{
    version     2.0;
    format      ascii;
    class       volVectorField;
    location    "310";
    object      U;
}
// * * * * * * * * * * * * * * * * * * * * * * * * * * * * * * * * * * * * * //

dimensions      [0 1 -1 0 0 0 0];


internalField   nonuniform List<vector> 
2400
(
(0.300002 0.00010592 0)
(0.299992 -0.000448469 0)
(0.299995 -0.000190332 0)
(0.299975 -0.000872765 0)
(0.299974 -0.000584618 0)
(0.299934 -0.00142872 0)
(0.29993 -0.00119506 0)
(0.299862 -0.00232583 0)
(0.299841 -0.00221457 0)
(0.299732 -0.00363077 0)
(0.299699 -0.0038412 0)
(0.299533 -0.00576353 0)
(0.299453 -0.00646734 0)
(0.299225 -0.00883051 0)
(0.299112 -0.0103309 0)
(0.298834 -0.0132534 0)
(0.298673 -0.015545 0)
(0.298439 -0.0184978 0)
(0.298343 -0.0210493 0)
(0.298308 -0.0232944 0)
(0.299998 0.000109352 0)
(0.299988 -0.000451738 0)
(0.299984 -0.000180405 0)
(0.29996 -0.000874533 0)
(0.299943 -0.000567008 0)
(0.299894 -0.00143006 0)
(0.299868 -0.00116599 0)
(0.29978 -0.00232374 0)
(0.299728 -0.00216649 0)
(0.299585 -0.0036259 0)
(0.299511 -0.00376911 0)
(0.299287 -0.00574878 0)
(0.299159 -0.00636141 0)
(0.298847 -0.00880942 0)
(0.298698 -0.0102015 0)
(0.298327 -0.013222 0)
(0.298183 -0.0154272 0)
(0.297925 -0.0184831 0)
(0.297956 -0.0210291 0)
(0.298081 -0.023332 0)
(0.299995 0.000114889 0)
(0.299985 -0.000456179 0)
(0.29997 -0.000164477 0)
(0.299942 -0.000876892 0)
(0.299905 -0.000538817 0)
(0.299842 -0.00143182 0)
(0.299787 -0.00111953 0)
(0.299672 -0.0023218 0)
(0.299579 -0.00209149 0)
(0.299385 -0.00362127 0)
(0.299259 -0.00365627 0)
(0.298951 -0.00573473 0)
(0.29876 -0.00619975 0)
(0.298326 -0.00879334 0)
(0.298125 -0.0100068 0)
(0.297616 -0.0132111 0)
(0.297481 -0.0152662 0)
(0.297162 -0.018523 0)
(0.297344 -0.0210439 0)
(0.297645 -0.0234586 0)
(0.299992 0.000122523 0)
(0.299982 -0.000461884 0)
(0.299956 -0.000142212 0)
(0.299923 -0.000879604 0)
(0.299866 -0.000499474 0)
(0.299787 -0.00143362 0)
(0.299703 -0.001055 0)
(0.299556 -0.00231957 0)
(0.299421 -0.00198815 0)
(0.29917 -0.00361601 0)
(0.298987 -0.00350109 0)
(0.298585 -0.00572094 0)
(0.298326 -0.00597873 0)
(0.297753 -0.00878256 0)
(0.297491 -0.00974137 0)
(0.296818 -0.0132242 0)
(0.296689 -0.0150513 0)
(0.296271 -0.018626 0)
(0.296623 -0.0210854 0)
(0.297088 -0.023685 0)
(0.299989 0.00013181 0)
(0.29998 -0.000468264 0)
(0.299944 -0.000114146 0)
(0.299905 -0.00088173 0)
(0.299828 -0.000449528 0)
(0.299733 -0.00143396 0)
(0.29962 -0.000972781 0)
(0.29944 -0.00231436 0)
(0.299263 -0.00185638 0)
(0.298954 -0.00360625 0)
(0.298714 -0.0033025 0)
(0.298214 -0.00570149 0)
(0.297882 -0.00569476 0)
(0.297163 -0.00877038 0)
(0.296835 -0.00939615 0)
(0.295975 -0.0132555 0)
(0.295853 -0.0147636 0)
(0.295292 -0.0187952 0)
(0.295843 -0.0211328 0)
(0.296446 -0.0240233 0)
(0.299987 0.000142097 0)
(0.299979 -0.000474349 0)
(0.299933 -8.14624e-05 0)
(0.299887 -0.000882034 0)
(0.299793 -0.000390644 0)
(0.29968 -0.00143099 0)
(0.299541 -0.000875005 0)
(0.299328 -0.00230359 0)
(0.29911 -0.0016989 0)
(0.298742 -0.00358845 0)
(0.298444 -0.00306308 0)
(0.297847 -0.00567183 0)
(0.29744 -0.00534913 0)
(0.296569 -0.00875178 0)
(0.29617 -0.00896673 0)
(0.295104 -0.0133027 0)
(0.294985 -0.0143882 0)
(0.294232 -0.0190401 0)
(0.29502 -0.0211654 0)
(0.295718 -0.0244965 0)
(0.299985 0.00015265 0)
(0.29998 -0.000479068 0)
(0.299923 -4.55522e-05 0)
(0.29987 -0.000879173 0)
(0.299759 -0.000324823 0)
(0.29963 -0.00142285 0)
(0.299465 -0.000764422 0)
(0.299219 -0.00228477 0)
(0.298962 -0.00151929 0)
(0.298537 -0.00355931 0)
(0.298182 -0.00278682 0)
(0.297488 -0.00562793 0)
(0.297004 -0.00494478 0)
(0.295978 -0.00872196 0)
(0.295499 -0.00845084 0)
(0.294207 -0.013363 0)
(0.294088 -0.013911 0)
(0.293084 -0.01937 0)
(0.294153 -0.0211605 0)
(0.294884 -0.0251355 0)
(0.299983 0.000162642 0)
(0.299982 -0.000481232 0)
(0.299914 -7.9658e-06 0)
(0.299856 -0.000871682 0)
(0.299727 -0.0002543 0)
(0.299585 -0.00140751 0)
(0.299392 -0.000644121 0)
(0.299117 -0.00225522 0)
(0.298821 -0.00132164 0)
(0.298341 -0.00351527 0)
(0.297929 -0.00247843 0)
(0.29714 -0.00556506 0)
(0.296576 -0.00448571 0)
(0.295394 -0.00867465 0)
(0.294824 -0.00784735 0)
(0.293287 -0.0134305 0)
(0.293154 -0.0133177 0)
(0.291838 -0.0197916 0)
(0.293234 -0.0210921 0)
(0.293906 -0.0259798 0)
(0.299979 0.000171161 0)
(0.299989 -0.000479565 0)
(0.299904 2.96718e-05 0)
(0.299847 -0.000857896 0)
(0.299694 -0.000181553 0)
(0.299546 -0.0013827 0)
(0.299322 -0.000517564 0)
(0.299025 -0.00221192 0)
(0.298684 -0.0011106 0)
(0.298159 -0.00345224 0)
(0.297684 -0.00214352 0)
(0.296807 -0.00547757 0)
(0.296159 -0.00397725 0)
(0.29482 -0.00860158 0)
(0.294147 -0.00715682 0)
(0.292347 -0.013495 0)
(0.292176 -0.0125948 0)
(0.290484 -0.0203079 0)
(0.292246 -0.0209309 0)
(0.292739 -0.0270816 0)
(0.299971 0.000177188 0)
(0.300004 -0.000472604 0)
(0.299889 6.53968e-05 0)
(0.299846 -0.000836005 0)
(0.299657 -0.000109405 0)
(0.299518 -0.00134589 0)
(0.299248 -0.000388692 0)
(0.298948 -0.00215144 0)
(0.298549 -0.000891543 0)
(0.297996 -0.00336553 0)
(0.297446 -0.00178875 0)
(0.296497 -0.00535876 0)
(0.295749 -0.00342638 0)
(0.294263 -0.00849237 0)
(0.293466 -0.00638212 0)
(0.291391 -0.0135415 0)
(0.291148 -0.0117301 0)
(0.289014 -0.0209164 0)
(0.291167 -0.0206429 0)
(0.291325 -0.0285097 0)
(0.299957 0.000179571 0)
(0.300028 -0.000458656 0)
(0.299866 9.68691e-05 0)
(0.299859 -0.000803905 0)
(0.29961 -4.1183e-05 0)
(0.299511 -0.00129414 0)
(0.299165 -0.00026216 0)
(0.298897 -0.00206972 0)
(0.298404 -0.000670823 0)
(0.297866 -0.0032495 0)
(0.297202 -0.00142226 0)
(0.296225 -0.00520068 0)
(0.295339 -0.00284206 0)
(0.293739 -0.00833454 0)
(0.292777 -0.00552889 0)
(0.290431 -0.0135502 0)
(0.290058 -0.0107134 0)
(0.287421 -0.0216063 0)
(0.289964 -0.0201882 0)
(0.2896 -0.0303589 0)
(0.299935 0.000177065 0)
(0.300066 -0.000435906 0)
(0.299831 0.000121626 0)
(0.299891 -0.000759092 0)
(0.299546 1.94781e-05 0)
(0.299531 -0.00122361 0)
(0.29906 -0.000143731 0)
(0.298886 -0.00196146 0)
(0.298234 -0.000456558 0)
(0.297791 -0.00309683 0)
(0.29693 -0.00105449 0)
(0.29602 -0.00499322 0)
(0.294902 -0.00223606 0)
(0.293283 -0.00811319 0)
(0.292055 -0.00460605 0)
(0.289497 -0.0134966 0)
(0.28889 -0.00953572 0)
(0.285708 -0.0223569 0)
(0.288598 -0.019517 0)
(0.287489 -0.0327595 0)
(0.299906 0.00016839 0)
(0.300117 -0.000402507 0)
(0.299783 0.000137091 0)
(0.299945 -0.000698763 0)
(0.299462 6.83864e-05 0)
(0.299587 -0.00112962 0)
(0.298922 -4.08312e-05 0)
(0.298931 -0.00181964 0)
(0.298017 -0.000259956 0)
(0.297799 -0.00289701 0)
(0.296597 -0.000700716 0)
(0.29593 -0.00472174 0)
(0.294387 -0.00162556 0)
(0.292963 -0.00780864 0)
(0.291236 -0.00362731 0)
(0.288668 -0.0133528 0)
(0.287583 -0.00819113 0)
(0.283914 -0.0231356 0)
(0.287018 -0.0185675 0)
(0.284896 -0.035859 0)
(0.299872 0.000152422 0)
(0.300177 -0.000356815 0)
(0.299724 0.000140858 0)
(0.300016 -0.000620241 0)
(0.299358 0.000101359 0)
(0.299677 -0.00100791 0)
(0.298751 4.01667e-05 0)
(0.299038 -0.00163556 0)
(0.297742 -9.43217e-05 0)
(0.297912 -0.00263505 0)
(0.296165 -0.000384137 0)
(0.296006 -0.00436256 0)
(0.293718 -0.00104109 0)
(0.292881 -0.00738826 0)
(0.290197 -0.00261758 0)
(0.288106 -0.0130817 0)
(0.285975 -0.00668107 0)
(0.282195 -0.023904 0)
(0.2851 -0.017266 0)
(0.281697 -0.0397915 0)
(0.299843 0.000128576 0)
(0.300232 -0.000297833 0)
(0.299668 0.000131179 0)
(0.300088 -0.000521645 0)
(0.299251 0.000115134 0)
(0.299781 -0.000854904 0)
(0.298563 9.31852e-05 0)
(0.299186 -0.00140217 0)
(0.297422 2.91424e-05 0)
(0.298119 -0.00229472 0)
(0.295632 -0.000130445 0)
(0.296271 -0.00388164 0)
(0.292842 -0.000535034 0)
(0.293135 -0.00679087 0)
(0.288767 -0.00163728 0)
(0.28805 -0.0126089 0)
(0.283722 -0.00502386 0)
(0.280946 -0.0246414 0)
(0.282458 -0.0154891 0)
(0.277877 -0.0448742 0)
(0.299832 9.73514e-05 0)
(0.300264 -0.000225938 0)
(0.299635 0.0001078 0)
(0.300135 -0.000402932 0)
(0.299174 0.000108422 0)
(0.299861 -0.000669227 0)
(0.298406 0.000113849 0)
(0.299321 -0.00111597 0)
(0.297123 0.000102472 0)
(0.298348 -0.00186554 0)
(0.295076 4.28896e-05 0)
(0.296649 -0.00324599 0)
(0.291815 -0.000161645 0)
(0.293707 -0.00593069 0)
(0.286871 -0.000818326 0)
(0.288683 -0.0117535 0)
(0.280342 -0.0033056 0)
(0.280836 -0.0252898 0)
(0.277972 -0.0130336 0)
(0.274098 -0.0519743 0)
(0.299851 6.06584e-05 0)
(0.300253 -0.000143469 0)
(0.299646 7.26949e-05 0)
(0.300123 -0.000267228 0)
(0.299165 8.34508e-05 0)
(0.299861 -0.000454724 0)
(0.298351 0.000103958 0)
(0.299353 -0.000779866 0)
(0.296962 0.000124017 0)
(0.298456 -0.00134801 0)
(0.294687 0.000129068 0)
(0.296916 -0.0024447 0)
(0.290922 6.08876e-05 0)
(0.294291 -0.00474117 0)
(0.284827 -0.000268633 0)
(0.289777 -0.0102608 0)
(0.275691 -0.00179017 0)
(0.282314 -0.0253911 0)
(0.26948 -0.00989187 0)
(0.272741 -0.0622663 0)
(0.299904 2.16372e-05 0)
(0.300187 -5.48791e-05 0)
(0.299717 3.0129e-05 0)
(0.300032 -0.000120764 0)
(0.299257 4.46304e-05 0)
(0.299739 -0.000222555 0)
(0.298458 7.14875e-05 0)
(0.299197 -0.00040928 0)
(0.297065 0.000104674 0)
(0.298274 -0.000761477 0)
(0.294715 0.000135361 0)
(0.296749 -0.00149723 0)
(0.290659 0.000119927 0)
(0.294269 -0.00321304 0)
(0.283577 -8.57613e-05 0)
(0.290265 -0.00793495 0)
(0.271067 -0.000961597 0)
(0.284158 -0.0237979 0)
(0.255246 -0.00622526 0)
(0.277441 -0.0759487 0)
(0.299985 -1.35326e-05 0)
(0.300074 3.14997e-05 0)
(0.299838 -9.50922e-06 0)
(0.299867 2.54283e-05 0)
(0.299443 1.60268e-05 0)
(0.299496 1.39849e-05 0)
(0.298737 4.70825e-05 0)
(0.298834 -3.15757e-05 0)
(0.297476 9.09028e-05 0)
(0.297726 -0.000157592 0)
(0.295306 0.000139983 0)
(0.29592 -0.000501612 0)
(0.291442 0.000148431 0)
(0.293016 -0.00148106 0)
(0.284303 -2.73488e-05 0)
(0.288478 -0.00474101 0)
(0.269788 -0.00100954 0)
(0.282327 -0.0187296 0)
(0.240084 -0.00556928 0)
(0.286933 -0.093326 0)
(0.300071 -4.66323e-05 0)
(0.299945 0.000119678 0)
(0.299978 -5.4121e-05 0)
(0.299678 0.000172419 0)
(0.299673 -2.69739e-05 0)
(0.299198 0.000247668 0)
(0.299108 1.14558e-05 0)
(0.298358 0.000346946 0)
(0.298081 6.51252e-05 0)
(0.296948 0.000456074 0)
(0.296299 0.000127114 0)
(0.294602 0.000534281 0)
(0.293109 0.000145957 0)
(0.290671 0.000349292 0)
(0.28716 -5.25804e-05 0)
(0.283836 -0.00114229 0)
(0.274458 -0.00112598 0)
(0.271318 -0.0112833 0)
(0.240281 -0.00567009 0)
(0.281572 -0.126816 0)
(0.298365 -0.0240601 0)
(0.298376 -0.0241853 0)
(0.298386 -0.0243029 0)
(0.298397 -0.0244132 0)
(0.298409 -0.0245164 0)
(0.298421 -0.0246125 0)
(0.298433 -0.0247016 0)
(0.298446 -0.0247837 0)
(0.298459 -0.0248591 0)
(0.298471 -0.024928 0)
(0.298262 -0.0241192 0)
(0.298294 -0.0242481 0)
(0.298325 -0.024369 0)
(0.298356 -0.0244823 0)
(0.298386 -0.0245881 0)
(0.298417 -0.0246864 0)
(0.298448 -0.0247773 0)
(0.298479 -0.0248609 0)
(0.29851 -0.0249372 0)
(0.298541 -0.0250067 0)
(0.297986 -0.0242645 0)
(0.298046 -0.0243958 0)
(0.298105 -0.0245181 0)
(0.298162 -0.0246321 0)
(0.298218 -0.0247377 0)
(0.298275 -0.0248351 0)
(0.298332 -0.0249244 0)
(0.298387 -0.0250058 0)
(0.298442 -0.0250796 0)
(0.298495 -0.0251459 0)
(0.297613 -0.0245116 0)
(0.297706 -0.024645 0)
(0.297796 -0.0247682 0)
(0.297883 -0.0248817 0)
(0.29797 -0.024986 0)
(0.298056 -0.025081 0)
(0.298141 -0.0251671 0)
(0.298225 -0.0252443 0)
(0.298307 -0.0253129 0)
(0.298386 -0.0253732 0)
(0.297191 -0.0248742 0)
(0.297323 -0.0250093 0)
(0.29745 -0.0251321 0)
(0.297572 -0.0252437 0)
(0.297693 -0.0253445 0)
(0.297813 -0.0254348 0)
(0.297931 -0.0255147 0)
(0.298047 -0.0255844 0)
(0.298159 -0.0256444 0)
(0.298269 -0.0256951 0)
(0.296742 -0.0253739 0)
(0.296922 -0.0255095 0)
(0.297094 -0.0256299 0)
(0.297258 -0.025737 0)
(0.297419 -0.0258315 0)
(0.297578 -0.0259136 0)
(0.297734 -0.0259836 0)
(0.297887 -0.0260417 0)
(0.298035 -0.0260886 0)
(0.298178 -0.0261247 0)
(0.296277 -0.0260384 0)
(0.296521 -0.0261725 0)
(0.296748 -0.0262871 0)
(0.296961 -0.0263857 0)
(0.297168 -0.0264696 0)
(0.297374 -0.0265389 0)
(0.297575 -0.0265937 0)
(0.297771 -0.0266347 0)
(0.29796 -0.0266624 0)
(0.298142 -0.0266777 0)
(0.295805 -0.0269032 0)
(0.296134 -0.0270323 0)
(0.296429 -0.0271361 0)
(0.2967 -0.0272207 0)
(0.296963 -0.0272879 0)
(0.297223 -0.0273378 0)
(0.297478 -0.0273704 0)
(0.297726 -0.0273865 0)
(0.297963 -0.027387 0)
(0.298191 -0.027373 0)
(0.295337 -0.0280137 0)
(0.29578 -0.0281322 0)
(0.296162 -0.0282181 0)
(0.296502 -0.0282808 0)
(0.296831 -0.0283229 0)
(0.297157 -0.0283442 0)
(0.297476 -0.0283449 0)
(0.297784 -0.0283257 0)
(0.298079 -0.0282882 0)
(0.29836 -0.0282337 0)
(0.294892 -0.0294272 0)
(0.295487 -0.0295271 0)
(0.295978 -0.0295848 0)
(0.296402 -0.0296145 0)
(0.29681 -0.0296198 0)
(0.297215 -0.0296 0)
(0.297611 -0.0295553 0)
(0.297992 -0.029487 0)
(0.298354 -0.0293968 0)
(0.298696 -0.0292868 0)
(0.294498 -0.0312176 0)
(0.295297 -0.0312862 0)
(0.295925 -0.031301 0)
(0.296449 -0.0312821 0)
(0.296951 -0.0312342 0)
(0.297452 -0.031156 0)
(0.297942 -0.0310477 0)
(0.298409 -0.0309112 0)
(0.29885 -0.0307488 0)
(0.299265 -0.0305633 0)
(0.294204 -0.033481 0)
(0.29527 -0.0334987 0)
(0.296067 -0.0334488 0)
(0.296711 -0.033359 0)
(0.297327 -0.0332347 0)
(0.297944 -0.0330741 0)
(0.298546 -0.0328771 0)
(0.299117 -0.0326464 0)
(0.299652 -0.0323854 0)
(0.300152 -0.0320978 0)
(0.294078 -0.0363317 0)
(0.295491 -0.0362723 0)
(0.296498 -0.0361293 0)
(0.297287 -0.0359392 0)
(0.298042 -0.0357081 0)
(0.298803 -0.0354332 0)
(0.299544 -0.0351145 0)
(0.300242 -0.0347558 0)
(0.300891 -0.0343616 0)
(0.301493 -0.0339369 0)
(0.294241 -0.0398994 0)
(0.296111 -0.0397346 0)
(0.297386 -0.0394657 0)
(0.298362 -0.0391395 0)
(0.299301 -0.0387631 0)
(0.300253 -0.0383331 0)
(0.301178 -0.0378503 0)
(0.302044 -0.0373198 0)
(0.302844 -0.0367476 0)
(0.30358 -0.0361406 0)
(0.295054 -0.0444596 0)
(0.297544 -0.0441542 0)
(0.299195 -0.0437208 0)
(0.300445 -0.0432147 0)
(0.301649 -0.0426431 0)
(0.302868 -0.0420021 0)
(0.304046 -0.0412937 0)
(0.30514 -0.0405257 0)
(0.306141 -0.0397069 0)
(0.307051 -0.0388471 0)
(0.29756 -0.0505096 0)
(0.300863 -0.0499684 0)
(0.303017 -0.0492852 0)
(0.304645 -0.0485239 0)
(0.306208 -0.0476856 0)
(0.30777 -0.0467601 0)
(0.309249 -0.045747 0)
(0.310588 -0.0446546 0)
(0.311775 -0.043493 0)
(0.312809 -0.0422758 0)
(0.303682 -0.058779 0)
(0.307778 -0.0577516 0)
(0.310271 -0.0565106 0)
(0.312059 -0.0551721 0)
(0.313744 -0.0537486 0)
(0.315389 -0.0522262 0)
(0.316878 -0.050602 0)
(0.318132 -0.048886 0)
(0.319139 -0.0470911 0)
(0.319905 -0.0452406 0)
(0.313258 -0.0694571 0)
(0.31762 -0.0678465 0)
(0.319528 -0.0659618 0)
(0.32025 -0.0638699 0)
(0.320695 -0.0615711 0)
(0.321006 -0.0590728 0)
(0.321049 -0.0563968 0)
(0.320734 -0.0535656 0)
(0.320058 -0.0505875 0)
(0.319034 -0.0474949 0)
(0.308711 -0.0698067 0)
(0.309515 -0.0656322 0)
(0.30738 -0.0619578 0)
(0.304065 -0.0585368 0)
(0.300503 -0.0551409 0)
(0.296776 -0.0517127 0)
(0.292788 -0.0482599 0)
(0.288553 -0.0447849 0)
(0.284167 -0.0412637 0)
(0.279527 -0.0376891 0)
(0.241018 -0.0714966 0)
(0.225502 -0.0623054 0)
(0.206934 -0.0542108 0)
(0.190496 -0.0469933 0)
(0.176484 -0.0404391 0)
(0.164011 -0.0344994 0)
(0.152658 -0.0291701 0)
(0.142388 -0.0243957 0)
(0.133096 -0.0199087 0)
(0.124599 -0.0144672 0)
(0.29849 -0.0250138 0)
(0.298514 -0.0251043 0)
(0.298539 -0.0251772 0)
(0.298564 -0.025234 0)
(0.298589 -0.0252761 0)
(0.298613 -0.0253053 0)
(0.298637 -0.0253232 0)
(0.298659 -0.0253314 0)
(0.29868 -0.0253317 0)
(0.2987 -0.0253255 0)
(0.298719 -0.0253145 0)
(0.298736 -0.0253002 0)
(0.298752 -0.0252839 0)
(0.298766 -0.0252669 0)
(0.298779 -0.0252504 0)
(0.29879 -0.0252353 0)
(0.2988 -0.0252224 0)
(0.298809 -0.0252128 0)
(0.298815 -0.0252061 0)
(0.298823 -0.0252049 0)
(0.298582 -0.0250925 0)
(0.298632 -0.025182 0)
(0.29868 -0.0252532 0)
(0.298725 -0.0253076 0)
(0.298767 -0.0253469 0)
(0.298805 -0.0253728 0)
(0.298839 -0.0253869 0)
(0.298869 -0.025391 0)
(0.298895 -0.0253868 0)
(0.298917 -0.025376 0)
(0.298936 -0.0253604 0)
(0.29895 -0.0253413 0)
(0.298962 -0.0253204 0)
(0.298969 -0.0252988 0)
(0.298974 -0.0252779 0)
(0.298976 -0.0252587 0)
(0.298976 -0.0252422 0)
(0.298973 -0.0252289 0)
(0.29897 -0.0252198 0)
(0.298962 -0.0252145 0)
(0.298567 -0.0252269 0)
(0.298653 -0.0253091 0)
(0.298733 -0.0253718 0)
(0.298808 -0.0254167 0)
(0.298876 -0.0254457 0)
(0.298936 -0.0254606 0)
(0.298989 -0.0254635 0)
(0.299034 -0.0254562 0)
(0.299072 -0.0254407 0)
(0.299103 -0.0254189 0)
(0.299127 -0.0253926 0)
(0.299143 -0.0253634 0)
(0.299154 -0.025333 0)
(0.299158 -0.0253029 0)
(0.299158 -0.0252743 0)
(0.299152 -0.0252483 0)
(0.299144 -0.0252262 0)
(0.299129 -0.0252083 0)
(0.299119 -0.025196 0)
(0.299092 -0.0251885 0)
(0.298492 -0.025445 0)
(0.29862 -0.0255133 0)
(0.298738 -0.0255605 0)
(0.298846 -0.0255885 0)
(0.298943 -0.0255997 0)
(0.299029 -0.0255962 0)
(0.299103 -0.0255804 0)
(0.299166 -0.0255544 0)
(0.299217 -0.0255205 0)
(0.299258 -0.0254809 0)
(0.299287 -0.0254375 0)
(0.299306 -0.0253923 0)
(0.299316 -0.0253471 0)
(0.299317 -0.0253034 0)
(0.299311 -0.0252628 0)
(0.299297 -0.0252263 0)
(0.29928 -0.0251955 0)
(0.299252 -0.0251706 0)
(0.299232 -0.0251536 0)
(0.299185 -0.0251423 0)
(0.298414 -0.0257521 0)
(0.298587 -0.0257989 0)
(0.298746 -0.0258224 0)
(0.298891 -0.0258252 0)
(0.29902 -0.0258099 0)
(0.299133 -0.0257793 0)
(0.299229 -0.0257361 0)
(0.299309 -0.025683 0)
(0.299373 -0.0256225 0)
(0.299422 -0.0255572 0)
(0.299455 -0.0254894 0)
(0.299475 -0.0254212 0)
(0.299482 -0.0253548 0)
(0.299477 -0.0252919 0)
(0.299462 -0.0252343 0)
(0.299435 -0.0251832 0)
(0.299405 -0.0251403 0)
(0.29936 -0.0251054 0)
(0.299329 -0.0250817 0)
(0.299254 -0.0250653 0)
(0.298368 -0.0261599 0)
(0.298592 -0.0261757 0)
(0.298797 -0.0261654 0)
(0.298981 -0.0261325 0)
(0.299144 -0.0260802 0)
(0.299285 -0.0260119 0)
(0.299403 -0.0259309 0)
(0.2995 -0.0258405 0)
(0.299575 -0.0257438 0)
(0.299629 -0.0256437 0)
(0.299664 -0.0255429 0)
(0.29968 -0.025444 0)
(0.299679 -0.0253494 0)
(0.299663 -0.0252609 0)
(0.299634 -0.0251808 0)
(0.29959 -0.0251101 0)
(0.299542 -0.0250513 0)
(0.299472 -0.0250033 0)
(0.299425 -0.024971 0)
(0.299313 -0.0249477 0)
(0.298383 -0.0266819 0)
(0.298665 -0.0266542 0)
(0.29892 -0.0265973 0)
(0.299148 -0.0265156 0)
(0.299347 -0.0264131 0)
(0.299516 -0.0262943 0)
(0.299656 -0.026163 0)
(0.299767 -0.0260233 0)
(0.29985 -0.0258789 0)
(0.299906 -0.0257333 0)
(0.299938 -0.0255897 0)
(0.299945 -0.025451 0)
(0.299931 -0.02532 0)
(0.299897 -0.0251988 0)
(0.299847 -0.0250899 0)
(0.299778 -0.0249944 0)
(0.299705 -0.0249151 0)
(0.299602 -0.0248506 0)
(0.299533 -0.0248072 0)
(0.299372 -0.0247752 0)
(0.29849 -0.0273342 0)
(0.298837 -0.027247 0)
(0.29915 -0.0271271 0)
(0.299425 -0.0269801 0)
(0.299661 -0.0268112 0)
(0.299859 -0.0266258 0)
(0.300018 -0.026429 0)
(0.300141 -0.0262255 0)
(0.300227 -0.0260198 0)
(0.30028 -0.025816 0)
(0.300301 -0.025618 0)
(0.300292 -0.0254291 0)
(0.300257 -0.0252524 0)
(0.300196 -0.0250903 0)
(0.300117 -0.0249456 0)
(0.300013 -0.0248193 0)
(0.299907 -0.0247149 0)
(0.29976 -0.0246299 0)
(0.299662 -0.0245729 0)
(0.299437 -0.02453 0)
(0.298726 -0.028136 0)
(0.299148 -0.0279684 0)
(0.299524 -0.0277644 0)
(0.299849 -0.0275311 0)
(0.300124 -0.0272753 0)
(0.300349 -0.0270036 0)
(0.300525 -0.0267225 0)
(0.300653 -0.0264376 0)
(0.300737 -0.0261544 0)
(0.300778 -0.0258778 0)
(0.30078 -0.025612 0)
(0.300745 -0.025361 0)
(0.300679 -0.0251281 0)
(0.300581 -0.0249161 0)
(0.300462 -0.0247279 0)
(0.300311 -0.0245644 0)
(0.300161 -0.0244298 0)
(0.299958 -0.0243202 0)
(0.299821 -0.0242468 0)
(0.299514 -0.0241908 0)
(0.299141 -0.0291091 0)
(0.299648 -0.0288338 0)
(0.300092 -0.0285185 0)
(0.300471 -0.0281721 0)
(0.300784 -0.0278036 0)
(0.301033 -0.0274213 0)
(0.301219 -0.027033 0)
(0.301346 -0.0266458 0)
(0.301418 -0.0262661 0)
(0.301436 -0.0258994 0)
(0.301408 -0.0255508 0)
(0.301335 -0.0252244 0)
(0.301224 -0.024924 0)
(0.301076 -0.0246523 0)
(0.300903 -0.0244126 0)
(0.300693 -0.0242053 0)
(0.300486 -0.0240352 0)
(0.300212 -0.0238971 0)
(0.300028 -0.0238047 0)
(0.29962 -0.0237336 0)
(0.2998 -0.0302776 0)
(0.300402 -0.0298588 0)
(0.30092 -0.0293967 0)
(0.301353 -0.0289032 0)
(0.301702 -0.0283897 0)
(0.301968 -0.0278668 0)
(0.302157 -0.027344 0)
(0.302272 -0.0268298 0)
(0.302318 -0.0263315 0)
(0.302301 -0.0258556 0)
(0.302228 -0.0254075 0)
(0.302101 -0.0249917 0)
(0.301931 -0.024612 0)
(0.301718 -0.0242709 0)
(0.301478 -0.0239719 0)
(0.301193 -0.0237145 0)
(0.300916 -0.0235043 0)
(0.300556 -0.0233338 0)
(0.300315 -0.0232202 0)
(0.299784 -0.0231319 0)
(0.300791 -0.0316672 0)
(0.3015 -0.0310583 0)
(0.302098 -0.0304043 0)
(0.302587 -0.0297208 0)
(0.302967 -0.0290224 0)
(0.303243 -0.0283224 0)
(0.303422 -0.0276326 0)
(0.303511 -0.0269628 0)
(0.303518 -0.0263214 0)
(0.303449 -0.0257154 0)
(0.303314 -0.0251504 0)
(0.303118 -0.0246308 0)
(0.302872 -0.0241604 0)
(0.302576 -0.0237409 0)
(0.302252 -0.0233756 0)
(0.301876 -0.0230625 0)
(0.301514 -0.0228083 0)
(0.301048 -0.0226019 0)
(0.300738 -0.0224653 0)
(0.300056 -0.0223567 0)
(0.302258 -0.033313 0)
(0.303092 -0.0324536 0)
(0.303783 -0.0315501 0)
(0.30433 -0.0306231 0)
(0.304738 -0.0296914 0)
(0.305015 -0.0287712 0)
(0.305172 -0.0278765 0)
(0.305219 -0.0270184 0)
(0.305167 -0.026206 0)
(0.305025 -0.0254467 0)
(0.304805 -0.024746 0)
(0.304514 -0.0241075 0)
(0.304167 -0.0235344 0)
(0.303762 -0.023027 0)
(0.303327 -0.0225883 0)
(0.30283 -0.0222136 0)
(0.302357 -0.0219113 0)
(0.301748 -0.0216634 0)
(0.301348 -0.0215015 0)
(0.300459 -0.0213639 0)
(0.304508 -0.0352596 0)
(0.305499 -0.0340692 0)
(0.306298 -0.0328398 0)
(0.306906 -0.0315998 0)
(0.307332 -0.0303736 0)
(0.307589 -0.0291806 0)
(0.307694 -0.0280359 0)
(0.30766 -0.0269511 0)
(0.307503 -0.0259352 0)
(0.307236 -0.024995 0)
(0.306874 -0.0241354 0)
(0.306427 -0.0233588 0)
(0.305913 -0.0226672 0)
(0.305328 -0.0220585 0)
(0.304711 -0.0215353 0)
(0.304013 -0.0210882 0)
(0.303356 -0.0207292 0)
(0.302509 -0.020428 0)
(0.301959 -0.0202343 0)
(0.300721 -0.0200477 0)
(0.308182 -0.0376129 0)
(0.309344 -0.0359694 0)
(0.310225 -0.0342947 0)
(0.310831 -0.0326303 0)
(0.311185 -0.0310104 0)
(0.31131 -0.0294593 0)
(0.311233 -0.0279926 0)
(0.310975 -0.0266208 0)
(0.310557 -0.0253513 0)
(0.309998 -0.0241886 0)
(0.309317 -0.0231352 0)
(0.308529 -0.0221908 0)
(0.307659 -0.0213551 0)
(0.3067 -0.0206228 0)
(0.305706 -0.0199953 0)
(0.304603 -0.0194575 0)
(0.303572 -0.0190254 0)
(0.302264 -0.0186509 0)
(0.301413 -0.018412 0)
(0.299517 -0.0181437 0)
(0.314037 -0.0405234 0)
(0.315164 -0.0382062 0)
(0.315847 -0.035877 0)
(0.316107 -0.0335963 0)
(0.315993 -0.0314083 0)
(0.31556 -0.0293418 0)
(0.314858 -0.0274145 0)
(0.313925 -0.0256374 0)
(0.312793 -0.0240163 0)
(0.31149 -0.0225521 0)
(0.310048 -0.0212423 0)
(0.308484 -0.0200812 0)
(0.306833 -0.0190632 0)
(0.305087 -0.0181786 0)
(0.303316 -0.0174241 0)
(0.30142 -0.01678 0)
(0.299651 -0.0162605 0)
(0.297505 -0.0158046 0)
(0.29607 -0.0155094 0)
(0.29304 -0.0151416 0)
(0.320626 -0.042601 0)
(0.320775 -0.0392279 0)
(0.320224 -0.0359693 0)
(0.319076 -0.0328823 0)
(0.317443 -0.0299846 0)
(0.315429 -0.0272845 0)
(0.313116 -0.0247925 0)
(0.310567 -0.0225225 0)
(0.307836 -0.0204822 0)
(0.30497 -0.0186704 0)
(0.30201 -0.0170784 0)
(0.298983 -0.0156939 0)
(0.295924 -0.0145028 0)
(0.292831 -0.0134903 0)
(0.289772 -0.0126424 0)
(0.286643 -0.0119406 0)
(0.283719 -0.0113804 0)
(0.280418 -0.0109174 0)
(0.27808 -0.0106076 0)
(0.273654 -0.0102527 0)
(0.317167 -0.0429892 0)
(0.313734 -0.0375054 0)
(0.309563 -0.0325852 0)
(0.304967 -0.0282662 0)
(0.300129 -0.0244724 0)
(0.295145 -0.0211169 0)
(0.29007 -0.0181518 0)
(0.284949 -0.0155509 0)
(0.279843 -0.0132887 0)
(0.274806 -0.0113368 0)
(0.269882 -0.00966684 0)
(0.265091 -0.00825347 0)
(0.260452 -0.00707264 0)
(0.255963 -0.00610409 0)
(0.251654 -0.00532498 0)
(0.24746 -0.00472143 0)
(0.243545 -0.00426512 0)
(0.239493 -0.00395434 0)
(0.236386 -0.00374513 0)
(0.231326 -0.00363581 0)
(0.272875 -0.0323107 0)
(0.262734 -0.0258745 0)
(0.252407 -0.0198843 0)
(0.242744 -0.0145968 0)
(0.23399 -0.0101253 0)
(0.226102 -0.00646378 0)
(0.218915 -0.00353689 0)
(0.212323 -0.00123468 0)
(0.206284 0.000550911 0)
(0.200764 0.00191264 0)
(0.195718 0.00292663 0)
(0.191092 0.00365462 0)
(0.186843 0.00414684 0)
(0.182927 0.00444231 0)
(0.179314 0.00457322 0)
(0.175962 0.00455907 0)
(0.172883 0.00442557 0)
(0.169942 0.00416081 0)
(0.167501 0.0038351 0)
(0.164166 0.00325927 0)
(0.118222 0.00221289 0)
(0.112793 0.00590584 0)
(0.109225 0.00732572 0)
(0.10558 0.00791113 0)
(0.102225 0.00825982 0)
(0.0994585 0.00851884 0)
(0.0972965 0.0087152 0)
(0.0956455 0.00886438 0)
(0.0944034 0.00896663 0)
(0.0934802 0.009013 0)
(0.0927999 0.00899568 0)
(0.0922995 0.00891161 0)
(0.0919282 0.00876105 0)
(0.0916461 0.00854462 0)
(0.0914223 0.00826163 0)
(0.0912312 0.00790687 0)
(0.0910594 0.00747191 0)
(0.0908828 0.00693759 0)
(0.0907314 0.00629835 0)
(0.0904158 0.0055115 0)
(0.0180305 -0.00797383 0)
(0.022328 -0.00430553 0)
(0.0326008 9.29758e-05 0)
(0.0367789 0.00287944 0)
(0.038956 0.00464 0)
(0.0402698 0.00570616 0)
(0.0412428 0.00633346 0)
(0.0421572 0.00670318 0)
(0.0431304 0.00692041 0)
(0.0441961 0.00703862 0)
(0.0453486 0.00708313 0)
(0.0465649 0.00706599 0)
(0.0478164 0.00699326 0)
(0.0490744 0.0068675 0)
(0.0503122 0.00668833 0)
(0.0515039 0.00645085 0)
(0.0526286 0.00614464 0)
(0.0536564 0.00575296 0)
(0.0545697 0.00525457 0)
(0.0555433 0.00462517 0)
(0.00213084 -0.017399 0)
(0.00259173 -0.00984191 0)
(0.00961734 -0.00336668 0)
(0.0133702 0.000865817 0)
(0.0162024 0.00342496 0)
(0.0184157 0.00482979 0)
(0.0203031 0.0055666 0)
(0.0220782 0.00594132 0)
(0.0238444 0.00612269 0)
(0.0256415 0.00619726 0)
(0.0274737 0.00620638 0)
(0.0293274 0.00616862 0)
(0.0311808 0.00609177 0)
(0.0330093 0.00597818 0)
(0.034788 0.00582663 0)
(0.0364911 0.00563164 0)
(0.0380948 0.00538217 0)
(0.0395635 0.00506172 0)
(0.040857 0.004645 0)
(0.0422629 0.00410489 0)
(-0.0030499 -0.0151513 0)
(-0.00700502 -0.0108153 0)
(-0.00509661 -0.00526279 0)
(-0.0032003 -0.00080574 0)
(-0.000851348 0.00202122 0)
(0.00151367 0.00359146 0)
(0.0038475 0.00440505 0)
(0.00617037 0.0047989 0)
(0.00850089 0.0049705 0)
(0.0108458 0.005027 0)
(0.013199 0.00502219 0)
(0.0155454 0.00498113 0)
(0.0178651 0.00491448 0)
(0.0201356 0.00482567 0)
(0.022333 0.00471405 0)
(0.0244313 0.00457496 0)
(0.026404 0.00439867 0)
(0.0282078 0.0041701 0)
(0.0297842 0.00386274 0)
(0.0314923 0.00345777 0)
(-0.00454274 -0.010599 0)
(-0.0114712 -0.0091227 0)
(-0.0137756 -0.00525158 0)
(-0.0139015 -0.00162851 0)
(-0.0124567 0.000803356 0)
(-0.0103244 0.0022241 0)
(-0.00787014 0.00298075 0)
(-0.0052649 0.00334945 0)
(-0.00258991 0.00350822 0)
(0.000113434 0.00356022 0)
(0.00281788 0.00356012 0)
(0.00550039 0.00353458 0)
(0.00813897 0.00349546 0)
(0.0107115 0.00344711 0)
(0.0131946 0.0033901 0)
(0.0155619 0.00332181 0)
(0.0177848 0.00323561 0)
(0.0198127 0.00311978 0)
(0.0215744 0.00295091 0)
(0.0234716 0.00271173 0)
(-0.00480223 -0.00554804 0)
(-0.0131505 -0.00572241 0)
(-0.0179619 -0.00380261 0)
(-0.0195719 -0.0016465 0)
(-0.0189385 -5.05427e-05 0)
(-0.0171459 0.000946894 0)
(-0.0147547 0.00150026 0)
(-0.0120658 0.00177464 0)
(-0.00923901 0.00189342 0)
(-0.00635867 0.00193485 0)
(-0.00347364 0.00194298 0)
(-0.000616467 0.0019402 0)
(0.00218751 0.00193679 0)
(0.00491565 0.00193706 0)
(0.00754492 0.0019427 0)
(0.0100491 0.00195379 0)
(0.0123986 0.00196811 0)
(0.0145381 0.00197884 0)
(0.0163895 0.00196815 0)
(0.0183735 0.00191383 0)
(-0.00460417 -0.000420206 0)
(-0.0130575 -0.00153315 0)
(-0.0185321 -0.0016271 0)
(-0.0207313 -0.0011633 0)
(-0.0205439 -0.000613785 0)
(-0.0190278 -0.000194821 0)
(-0.0167816 5.84648e-05 0)
(-0.014154 0.000185216 0)
(-0.0113425 0.000238348 0)
(-0.00845658 0.000259362 0)
(-0.00555936 0.00027402 0)
(-0.00269038 0.000295904 0)
(0.000122449 0.000331358 0)
(0.00285619 0.000383501 0)
(0.00548856 0.000454849 0)
(0.00799435 0.000548419 0)
(0.0103446 0.000667072 0)
(0.0124835 0.000809756 0)
(0.0143318 0.000965286 0)
(0.0163053 0.00110523 0)
(-0.00400334 0.00441843 0)
(-0.0113391 0.0024014 0)
(-0.0157136 0.000513523 0)
(-0.0175593 -0.000584378 0)
(-0.0173807 -0.0010548 0)
(-0.0160141 -0.00122807 0)
(-0.0139513 -0.00130016 0)
(-0.0115031 -0.00134197 0)
(-0.00885995 -0.00136736 0)
(-0.00613376 -0.00137305 0)
(-0.00339121 -0.00135415 0)
(-0.000673878 -0.00130805 0)
(0.00198984 -0.00123373 0)
(0.00457767 -0.00113003 0)
(0.00706875 -0.00099403 0)
(0.00943992 -0.00081995 0)
(0.0116647 -0.000599806 0)
(0.0136908 -0.000328595 0)
(0.0154451 -1.03565e-05 0)
(0.0173121 0.000320497 0)
(-0.00247721 0.00851012 0)
(-0.00740593 0.00514648 0)
(-0.00913023 0.00191213 0)
(-0.00990281 -0.000293805 0)
(-0.00940801 -0.00152457 0)
(-0.00810508 -0.00217513 0)
(-0.00627665 -0.00253097 0)
(-0.00412873 -0.00272998 0)
(-0.00180728 -0.00283288 0)
(0.000593367 -0.00286713 0)
(0.00301364 -0.00284657 0)
(0.00541518 -0.00277917 0)
(0.00777158 -0.00266945 0)
(0.0100623 -0.00251851 0)
(0.0122684 -0.00232339 0)
(0.0143698 -0.00207608 0)
(0.0163436 -0.0017641 0)
(0.0181451 -0.00137665 0)
(0.0197133 -0.000910667 0)
(0.0213769 -0.000405409 0)
(0.00161094 0.0104399 0)
(0.000248082 0.00600366 0)
(0.00211562 0.00206292 0)
(0.00268 -0.000494842 0)
(0.00354277 -0.00206183 0)
(0.00472776 -0.00300223 0)
(0.00620677 -0.00356307 0)
(0.00790483 -0.00388841 0)
(0.00973772 -0.00405925 0)
(0.0116406 -0.00412204 0)
(0.0135682 -0.00410418 0)
(0.0154894 -0.00402206 0)
(0.0173816 -0.00388484 0)
(0.0192264 -0.00369571 0)
(0.0210074 -0.00345196 0)
(0.0227071 -0.00314411 0)
(0.0243076 -0.00275637 0)
(0.0257737 -0.00227293 0)
(0.0270615 -0.00168458 0)
(0.0284196 -0.00103267 0)
(0.0128389 0.00543313 0)
(0.0148014 0.00411514 0)
(0.0193606 0.00115391 0)
(0.0208166 -0.00103576 0)
(0.0216679 -0.00259827 0)
(0.0224782 -0.00365479 0)
(0.0234048 -0.00433077 0)
(0.0244618 -0.00473945 0)