/*--------------------------------*- C++ -*----------------------------------*\
| =========                 |                                                 |
| \\      /  F ield         | OpenFOAM: The Open Source CFD Toolbox           |
|  \\    /   O peration     | Version:  v1806                                 |
|   \\  /    A nd           | Web:      www.OpenFOAM.com                      |
|    \\/     M anipulation  |                                                 |
\*---------------------------------------------------------------------------*/
FoamFile
{
    version     2.0;
    format      ascii;
    class       volVectorField;
    location    "360";
    object      U;
}
// * * * * * * * * * * * * * * * * * * * * * * * * * * * * * * * * * * * * * //

dimensions      [0 1 -1 0 0 0 0];


internalField   nonuniform List<vector> 
4400
(
(0.207435 0.236171 0)
(0.2751 0.192418 0)
(0.300016 0.157266 0)
(0.311323 0.126567 0)
(0.318278 0.102612 0)
(0.322306 0.0855337 0)
(0.323838 0.0733523 0)
(0.32368 0.0643523 0)
(0.322569 0.0575171 0)
(0.320977 0.0522172 0)
(0.319155 0.0480354 0)
(0.317231 0.0446903 0)
(0.31527 0.0419889 0)
(0.313307 0.0397969 0)
(0.311359 0.0380186 0)
(0.309436 0.0365851 0)
(0.307537 0.0354472 0)
(0.305667 0.0345721 0)
(0.303861 0.0339238 0)
(0.302351 0.0334085 0)
(0.234601 0.137767 0)
(0.268393 0.110514 0)
(0.289114 0.0943421 0)
(0.304348 0.0846617 0)
(0.312954 0.0767232 0)
(0.316967 0.0694762 0)
(0.318575 0.0629987 0)
(0.318917 0.057412 0)
(0.318503 0.0527021 0)
(0.317595 0.0487685 0)
(0.316363 0.0454866 0)
(0.314923 0.0427434 0)
(0.31336 0.0404483 0)
(0.311728 0.0385317 0)
(0.310063 0.0369407 0)
(0.308385 0.0356351 0)
(0.306706 0.0345856 0)
(0.305036 0.0337722 0)
(0.303413 0.033164 0)
(0.302046 0.0326971 0)
(0.218309 0.0995617 0)
(0.251626 0.103142 0)
(0.276144 0.100358 0)
(0.291919 0.0921596 0)
(0.301785 0.0818282 0)
(0.308023 0.0722822 0)
(0.311758 0.0643866 0)
(0.313681 0.0579903 0)
(0.314359 0.0527887 0)
(0.314229 0.0485316 0)
(0.313585 0.0450281 0)
(0.312617 0.0421326 0)
(0.311443 0.0397351 0)
(0.31014 0.0377524 0)
(0.308758 0.0361218 0)
(0.30733 0.034796 0)
(0.305875 0.03374 0)
(0.304409 0.0329295 0)
(0.302972 0.032333 0)
(0.301749 0.0318905 0)
(0.238529 0.0689947 0)
(0.26119 0.0734988 0)
(0.277439 0.0718307 0)
(0.289715 0.0682181 0)
(0.298489 0.0642433 0)
(0.304275 0.0601282 0)
(0.307876 0.0560069 0)
(0.309972 0.0520704 0)
(0.311019 0.0484649 0)
(0.311323 0.0452585 0)
(0.311102 0.0424594 0)
(0.310513 0.0400443 0)
(0.309671 0.037979 0)
(0.30866 0.0362288 0)
(0.307536 0.0347627 0)
(0.306338 0.0335546 0)
(0.305093 0.0325839 0)
(0.303822 0.0318353 0)
(0.302563 0.0312846 0)
(0.301485 0.0308859 0)
(0.243752 0.05196 0)
(0.259367 0.0606586 0)
(0.273736 0.0643322 0)
(0.285264 0.0641488 0)
(0.293781 0.0614334 0)
(0.299808 0.0575771 0)
(0.30391 0.0535363 0)
(0.306536 0.0497424 0)
(0.308051 0.0463271 0)
(0.308755 0.0433113 0)
(0.308883 0.0406797 0)
(0.308604 0.0384041 0)
(0.308043 0.0364527 0)
(0.307285 0.0347954 0)
(0.306391 0.0334052 0)
(0.305405 0.0322593 0)
(0.304357 0.0313396 0)
(0.30327 0.0306326 0)
(0.302182 0.0301168 0)
(0.301243 0.0297532 0)
(0.255912 0.0397003 0)
(0.267286 0.0470865 0)
(0.277509 0.05056 0)
(0.286063 0.0513272 0)
(0.292879 0.0505862 0)
(0.298016 0.048986 0)
(0.301686 0.0468977 0)
(0.304179 0.044588 0)
(0.305755 0.0422488 0)
(0.30663 0.0400052 0)
(0.306975 0.0379298 0)
(0.306925 0.036058 0)
(0.306587 0.0344027 0)
(0.306041 0.0329641 0)
(0.305348 0.0317368 0)
(0.30455 0.0307128 0)
(0.30368 0.0298843 0)
(0.302764 0.0292449 0)
(0.301836 0.0287793 0)
(0.301029 0.0284579 0)
(0.262742 0.0312723 0)
(0.27044 0.038576 0)
(0.278382 0.0430988 0)
(0.285587 0.0452168 0)
(0.291579 0.0455173 0)
(0.296269 0.0446099 0)
(0.299763 0.0430265 0)
(0.302239 0.0411436 0)
(0.303886 0.0391857 0)
(0.30488 0.037277 0)
(0.305371 0.0354858 0)
(0.305484 0.0338491 0)
(0.305315 0.032385 0)
(0.304939 0.0311007 0)
(0.304413 0.0299968 0)
(0.303779 0.0290708 0)
(0.303068 0.0283196 0)
(0.302305 0.0277395 0)
(0.301524 0.0273191 0)
(0.30084 0.0270354 0)
(0.270413 0.0252102 0)
(0.276101 0.0312486 0)
(0.281956 0.0353052 0)
(0.287357 0.0375548 0)
(0.292019 0.0384609 0)
(0.295831 0.038428 0)
(0.298792 0.0377583 0)
(0.30098 0.036686 0)
(0.302509 0.0353932 0)
(0.303496 0.0340125 0)
(0.304049 0.0326354 0)
(0.304263 0.0313222 0)
(0.304218 0.0301106 0)
(0.303976 0.0290232 0)
(0.303588 0.0280728 0)
(0.303093 0.027266 0)
(0.302521 0.0266062 0)
(0.301896 0.0260946 0)
(0.301249 0.0257245 0)
(0.300677 0.0254797 0)
(0.275805 0.0204796 0)
(0.279794 0.0258911 0)
(0.28418 0.0298385 0)
(0.288462 0.0323578 0)
(0.292301 0.0336709 0)
(0.295531 0.034052 0)
(0.298109 0.0337732 0)
(0.300066 0.0330675 0)
(0.301475 0.0321133 0)
(0.302421 0.0310377 0)
(0.30299 0.0299281 0)
(0.30326 0.0288438 0)
(0.303296 0.0278243 0)
(0.303152 0.0268959 0)
(0.302874 0.0260753 0)
(0.302495 0.0253729 0)
(0.302042 0.0247953 0)
(0.301537 0.0243465 0)
(0.301008 0.0240228 0)
(0.300536 0.0238131 0)
(0.280918 0.0169548 0)
(0.283863 0.0214465 0)
(0.287119 0.0248993 0)
(0.290332 0.0272727 0)
(0.293274 0.0287093 0)
(0.295819 0.0293968 0)
(0.29791 0.029514 0)
(0.299548 0.0292195 0)
(0.300765 0.0286479 0)
(0.301614 0.0279088 0)
(0.302155 0.0270862 0)
(0.302442 0.0262426 0)
(0.302528 0.0254228 0)
(0.302456 0.0246582 0)
(0.302263 0.0239706 0)
(0.301978 0.0233747 0)
(0.301626 0.0228807 0)
(0.301225 0.0224951 0)
(0.3008 0.0222176 0)
(0.300418 0.0220411 0)
(0.284853 0.0139967 0)
(0.286964 0.0178999 0)
(0.289368 0.0210045 0)
(0.291822 0.0232674 0)
(0.294132 0.0247568 0)
(0.296174 0.0255898 0)
(0.297885 0.0259018 0)
(0.29925 0.025826 0)
(0.300286 0.0254793 0)
(0.301027 0.024958 0)
(0.301516 0.0243374 0)
(0.301795 0.0236752 0)
(0.301904 0.023014 0)
(0.301879 0.0223854 0)
(0.30175 0.0218121 0)
(0.30154 0.0213101 0)
(0.301271 0.0208911 0)
(0.300959 0.0205629 0)
(0.300624 0.0203272 0)
(0.300319 0.0201804 0)
(0.288357 0.0116758 0)
(0.289893 0.0149216 0)
(0.291654 0.0175892 0)
(0.293465 0.0196158 0)
(0.295194 0.021035 0)
(0.296748 0.0219242 0)
(0.298076 0.0223757 0)
(0.299159 0.0224838 0)
(0.299999 0.0223367 0)
(0.300615 0.0220123 0)
(0.301035 0.0215756 0)
(0.301287 0.0210792 0)
(0.301402 0.020564 0)
(0.301406 0.0200612 0)
(0.301324 0.0195942 0)
(0.301174 0.01918 0)
(0.300973 0.0188314 0)
(0.300735 0.018557 0)
(0.300476 0.0183604 0)
(0.300238 0.0182403 0)
(0.291154 0.00964219 0)
(0.292245 0.0124022 0)
(0.293512 0.0147092 0)
(0.294842 0.0165152 0)
(0.296134 0.0178338 0)
(0.297314 0.0187121 0)
(0.298336 0.0192157 0)
(0.29918 0.0194176 0)
(0.299845 0.0193889 0)
(0.300341 0.0191942 0)
(0.300685 0.0188888 0)
(0.3009 0.0185183 0)
(0.301008 0.0181193 0)
(0.301027 0.0177205 0)
(0.300976 0.0173438 0)
(0.300872 0.0170059 0)
(0.300725 0.0167193 0)
(0.300549 0.0164928 0)
(0.300354 0.0163309 0)
(0.300173 0.0162339 0)
(0.293552 0.00795531 0)
(0.294314 0.0102226 0)
(0.295205 0.0121573 0)
(0.296146 0.0137093 0)
(0.297067 0.0148802 0)
(0.297917 0.0156995 0)
(0.298664 0.0162121 0)
(0.299289 0.0164701 0)
(0.299789 0.016527 0)
(0.300168 0.0164334 0)
(0.300437 0.0162345 0)
(0.300609 0.0159691 0)
(0.300701 0.0156692 0)
(0.300726 0.0153605 0)
(0.300697 0.0150633 0)
(0.300626 0.0147932 0)
(0.300523 0.0145621 0)
(0.300396 0.0143787 0)
(0.300255 0.0142479 0)
(0.300121 0.0141711 0)
(0.295466 0.00642981 0)
(0.29598 0.00829438 0)
(0.296584 0.00990017 0)
(0.297228 0.0112099 0)
(0.297867 0.0122209 0)
(0.298462 0.0129511 0)
(0.298989 0.0134314 0)
(0.299435 0.0137003 0)
(0.299794 0.0137989 0)
(0.300069 0.0137672 0)
(0.300267 0.0136418 0)
(0.300397 0.0134544 0)
(0.300469 0.0132321 0)
(0.300492 0.0129968 0)
(0.300477 0.0127662 0)
(0.300431 0.0125541 0)
(0.300361 0.0123713 0)
(0.300274 0.0122256 0)
(0.300175 0.0121218 0)
(0.300081 0.0120624 0)
(0.297035 0.00509391 0)
(0.297361 0.00656394 0)
(0.297748 0.00784687 0)
(0.298161 0.00890854 0)
(0.298572 0.00974328 0)
(0.298958 0.0103615 0)
(0.299302 0.0107841 0)
(0.299596 0.0110383 0)
(0.299835 0.0111541 0)
(0.30002 0.0111618 0)
(0.300154 0.0110896 0)
(0.300244 0.0109629 0)
(0.300295 0.0108034 0)
(0.300314 0.0106293 0)
(0.300307 0.0104556 0)
(0.300278 0.0102938 0)
(0.300234 0.0101533 0)
(0.300177 0.0100408 0)
(0.300113 0.00996093 0)
(0.30005 0.00991619 0)
(0.298235 0.00384826 0)
(0.298425 0.00497134 0)
(0.298651 0.00595633 0)
(0.298893 0.00677852 0)
(0.299135 0.00743297 0)
(0.299364 0.00792579 0)
(0.299569 0.00827086 0)
(0.299745 0.00848726 0)
(0.299889 0.0085967 0)
(0.300001 0.00862139 0)
(0.300083 0.00858252 0)
(0.300138 0.00849928 0)
(0.30017 0.00838843 0)
(0.300183 0.00826412 0)
(0.300179 0.00813797 0)
(0.300163 0.00801933 0)
(0.300137 0.00791557 0)
(0.300104 0.00783223 0)
(0.300066 0.00777324 0)
(0.300028 0.00774096 0)
(0.299127 0.00270043 0)
(0.299219 0.00348532 0)
(0.299329 0.00417925 0)
(0.299448 0.00476279 0)
(0.299567 0.00523158 0)
(0.29968 0.00558897 0)
(0.299782 0.00584368 0)
(0.299869 0.00600812 0)
(0.299941 0.00609675 0)
(0.299997 0.0061246 0)
(0.300039 0.00610629 0)
(0.300067 0.00605521 0)
(0.300083 0.00598323 0)
(0.30009 0.00590046 0)
(0.300088 0.00581525 0)
(0.300081 0.00573439 0)
(0.300068 0.00566326 0)
(0.300052 0.00560595 0)
(0.300033 0.00556551 0)
(0.300013 0.00554389 0)
(0.299701 0.00159598 0)
(0.299731 0.00206547 0)
(0.299768 0.00247994 0)
(0.299809 0.00282933 0)
(0.29985 0.00311144 0)
(0.299889 0.00332797 0)
(0.299924 0.00348376 0)
(0.299954 0.00358586 0)
(0.299979 0.00364264 0)
(0.299999 0.0036629 0)
(0.300013 0.00365521 0)
(0.300023 0.00362753 0)
(0.300028 0.00358692 0)
(0.300031 0.00353944 0)
(0.30003 0.00349012 0)
(0.300028 0.00344304 0)
(0.300023 0.00340146 0)
(0.300018 0.0033679 0)
(0.300011 0.00334428 0)
(0.300004 0.0033319 0)
(0.299986 0.000536605 0)
(0.299987 0.000686557 0)
(0.299989 0.00082303 0)
(0.299991 0.000938949 0)
(0.299993 0.00103289 0)
(0.299995 0.00110527 0)
(0.299996 0.00115761 0)
(0.299998 0.00119216 0)
(0.299999 0.00121167 0)
(0.3 0.00121899 0)
(0.300001 0.00121697 0)
(0.300001 0.00120822 0)
(0.300001 0.00119509 0)
(0.300002 0.00117961 0)
(0.300002 0.00116344 0)
(0.300001 0.00114797 0)
(0.300001 0.00113428 0)
(0.300001 0.00112322 0)
(0.300001 0.00111544 0)
(0.3 0.00111141 0)
(0.100492 -0.170369 0)
(0.0798915 -0.145389 0)
(0.0673889 -0.122184 0)
(0.0585745 -0.101461 0)
(0.0519201 -0.0826464 0)
(0.0467889 -0.0652659 0)
(0.0428602 -0.048996 0)
(0.0399464 -0.0335711 0)
(0.0379294 -0.0187541 0)
(0.0367351 -0.00432821 0)
(0.0363222 0.00990922 0)
(0.0366783 0.0241543 0)
(0.0378199 0.0386034 0)
(0.039796 0.0534608 0)
(0.0426989 0.0689447 0)
(0.0466885 0.0852962 0)
(0.0520515 0.102815 0)
(0.0593594 0.12197 0)
(0.0699246 0.143318 0)
(0.0872909 0.165965 0)
(0.174802 -0.105098 0)
(0.160371 -0.0958429 0)
(0.147787 -0.0852119 0)
(0.137216 -0.0738488 0)
(0.128537 -0.0620188 0)
(0.12157 -0.049858 0)
(0.116136 -0.0374628 0)
(0.112085 -0.0249036 0)
(0.1093 -0.0122297 0)
(0.1077 0.000524549 0)
(0.107238 0.0133336 0)
(0.1079 0.0261764 0)
(0.109703 0.0390328 0)
(0.112703 0.0518789 0)
(0.116997 0.0646814 0)
(0.122736 0.0773848 0)
(0.13015 0.0899129 0)
(0.139584 0.102243 0)
(0.15159 0.114415 0)
(0.167043 0.125182 0)
(0.191485 -0.0677765 0)
(0.186229 -0.0623288 0)
(0.181479 -0.0559732 0)
(0.17724 -0.0488666 0)
(0.173531 -0.0411632 0)
(0.17038 -0.0329929 0)
(0.167817 -0.0244632 0)
(0.165863 -0.015664 0)
(0.164538 -0.00667137 0)
(0.163856 0.00244835 0)
(0.163826 0.0116355 0)
(0.164457 0.0208337 0)
(0.165753 0.0299867 0)
(0.167719 0.039035 0)
(0.170355 0.0479119 0)
(0.173664 0.0565377 0)
(0.177644 0.0648188 0)
(0.182305 0.0726599 0)
(0.187692 0.0799343 0)
(0.193947 0.0861708 0)
(0.219512 -0.0416547 0)
(0.215661 -0.0375357 0)
(0.212071 -0.0330817 0)
(0.20882 -0.0283222 0)
(0.205962 -0.02329 0)
(0.203535 -0.01802 0)
(0.201566 -0.0125491 0)
(0.200072 -0.00691604 0)
(0.199066 -0.00116054 0)
(0.198556 0.00467669 0)
(0.198547 0.0105544 0)
(0.199042 0.0164308 0)
(0.200044 0.0222635 0)
(0.201553 0.0280096 0)
(0.203571 0.0336252 0)
(0.206096 0.0390649 0)
(0.209127 0.0442849 0)
(0.212665 0.0492525 0)
(0.21672 0.0539298 0)
(0.221313 0.058121 0)
(0.232549 -0.0297715 0)
(0.230641 -0.0266985 0)
(0.228905 -0.0233917 0)
(0.227359 -0.0198695 0)
(0.226015 -0.016155 0)
(0.22489 -0.0122739 0)
(0.223997 -0.00825416 0)
(0.223346 -0.00412425 0)
(0.222947 8.65447e-05 0)
(0.222808 0.00434867 0)
(0.222934 0.00863234 0)
(0.223326 0.0129076 0)
(0.223983 0.0171441 0)
(0.224902 0.0213114 0)
(0.226078 0.0253784 0)
(0.227501 0.0293134 0)
(0.229159 0.0330845 0)
(0.23104 0.0366615 0)
(0.233134 0.0400127 0)
(0.235432 0.0430739 0)
(0.247972 -0.0204494 0)
(0.246598 -0.0179954 0)
(0.245333 -0.0154332 0)
(0.244197 -0.0127716 0)
(0.243205 -0.0100211 0)
(0.24237 -0.00719285 0)
(0.241703 -0.00429937 0)
(0.241214 -0.0013541 0)
(0.24091 0.0016287 0)
(0.240796 0.00463408 0)
(0.240875 0.00764659 0)
(0.241148 0.0106505 0)
(0.241614 0.01363 0)
(0.242272 0.0165693 0)
(0.243116 0.0194529 0)
(0.244142 0.0222658 0)
(0.245342 0.024994 0)
(0.246707 0.0276278 0)
(0.248227 0.0301575 0)
(0.249893 0.0325386 0)
(0.257047 -0.0153293 0)
(0.256248 -0.0134139 0)
(0.255533 -0.0114217 0)
(0.254907 -0.00935911 0)
(0.254374 -0.00723342 0)
(0.25394 -0.00505296 0)
(0.253609 -0.0028269 0)
(0.253383 -0.000565031 0)
(0.253266 0.00172231 0)
(0.253259 0.0040244 0)
(0.253364 0.00633027 0)
(0.25358 0.00862878 0)
(0.253907 0.0109088 0)
(0.254343 0.0131592 0)
(0.254886 0.015369 0)
(0.255532 0.0175276 0)
(0.256277 0.0196246 0)
(0.257117 0.0216508 0)
(0.258047 0.0235982 0)
(0.259064 0.025453 0)
(0.266381 -0.0113641 0)
(0.265809 -0.00979926 0)
(0.265293 -0.00819301 0)
(0.264838 -0.00654949 0)
(0.264449 -0.00487322 0)
(0.264129 -0.00316905 0)
(0.263883 -0.00144211 0)
(0.263713 0.000302188 0)
(0.263621 0.0020582 0)
(0.26361 0.00382013 0)
(0.263679 0.00558205 0)
(0.26383 0.00733798 0)
(0.264061 0.00908195 0)
(0.264372 0.0108081 0)
(0.264761 0.0125106 0)
(0.265226 0.0141838 0)
(0.265763 0.0158226 0)
(0.266368 0.0174232 0)
(0.267039 0.018982 0)
(0.267772 0.0204833 0)
(0.272674 -0.00882949 0)
(0.272308 -0.00757008 0)
(0.271985 -0.00628108 0)
(0.271706 -0.00496537 0)
(0.271474 -0.00362614 0)
(0.271289 -0.00226686 0)
(0.271154 -0.000891265 0)
(0.271069 0.00049672 0)
(0.271035 0.00189299 0)
(0.271052 0.00329331 0)
(0.271122 0.00469336 0)
(0.271243 0.0060888 0)
(0.271416 0.00747527 0)
(0.27164 0.00884846 0)
(0.271914 0.0102041 0)
(0.272236 0.0115382 0)
(0.272606 0.0128467 0)
(0.273021 0.0141262 0)
(0.273481 0.0153739 0)
(0.273984 0.0165846 0)
(0.278688 -0.00686821 0)
(0.278427 -0.00582434 0)
(0.278195 -0.00476247 0)
(0.277994 -0.00368467 0)
(0.277825 -0.00259313 0)
(0.277691 -0.00149015 0)
(0.277592 -0.000378118 0)
(0.277528 0.000740498 0)
(0.277502 0.00186317 0)
(0.277513 0.00298732 0)
(0.277561 0.00411035 0)
(0.277647 0.00522965 0)
(0.27777 0.00634261 0)
(0.27793 0.00744667 0)
(0.278126 0.00853929 0)
(0.278358 0.00961798 0)
(0.278624 0.0106804 0)
(0.278923 0.0117248 0)
(0.279253 0.0127495 0)
(0.279614 0.0137477 0)
(0.283098 -0.00546735 0)
(0.282922 -0.00461203 0)
(0.282768 -0.00374372 0)
(0.282637 -0.0028639 0)
(0.28253 -0.00197414 0)
(0.282447 -0.00107611 0)
(0.282389 -0.000171547 0)
(0.282355 0.000737735 0)
(0.282347 0.00164987 0)
(0.282365 0.00256297 0)
(0.282408 0.00347509 0)
(0.282477 0.00438429 0)
(0.282571 0.00528865 0)
(0.282691 0.00618625 0)
(0.282835 0.00707521 0)
(0.283003 0.00795367 0)
(0.283196 0.00881985 0)
(0.283411 0.00967224 0)
(0.28365 0.0105096 0)
(0.28391 0.0113294 0)
(0.287118 -0.00436198 0)
(0.286994 -0.00365016 0)
(0.286885 -0.00292972 0)
(0.286792 -0.00220178 0)
(0.286716 -0.00146747 0)
(0.286656 -0.000727972 0)
(0.286615 1.54928e-05 0)
(0.28659 0.000761686 0)
(0.286584 0.00150934 0)
(0.286596 0.00225719 0)
(0.286626 0.00300394 0)
(0.286675 0.0037483 0)
(0.286741 0.00448899 0)
(0.286826 0.00522475 0)
(0.286928 0.00595431 0)
(0.287048 0.00667642 0)
(0.287184 0.00738989 0)
(0.287337 0.00809384 0)
(0.287506 0.00878745 0)
(0.28769 0.0094674 0)
(0.290204 -0.00350526 0)
(0.29012 -0.00292062 0)
(0.290046 -0.00232971 0)
(0.289985 -0.00173333 0)
(0.289935 -0.00113233 0)
(0.289898 -0.000527564 0)
(0.289872 8.00555e-05 0)
(0.289859 0.000689611 0)
(0.289859 0.00130016 0)
(0.289871 0.00191075 0)
(0.289896 0.00252043 0)
(0.289934 0.00312821 0)
(0.289984 0.00373316 0)
(0.290046 0.0043343 0)
(0.290121 0.00493071 0)
(0.290208 0.00552143 0)
(0.290307 0.00610558 0)
(0.290417 0.0066824 0)
(0.290539 0.0072513 0)
(0.290672 0.00781083 0)
(0.292908 -0.0028047 0)
(0.292851 -0.00232364 0)
(0.292801 -0.0018382 0)
(0.292758 -0.00134899 0)
(0.292724 -0.000856637 0)
(0.292698 -0.000361781 0)
(0.292681 0.000134924 0)
(0.292672 0.000632813 0)
(0.292671 0.00113121 0)
(0.292679 0.00162944 0)
(0.292696 0.00212681 0)
(0.292721 0.00262265 0)
(0.292755 0.00311626 0)
(0.292798 0.00360699 0)
(0.292849 0.00409415 0)
(0.292908 0.00457707 0)
(0.292975 0.00505511 0)
(0.293051 0.00552778 0)
(0.293133 0.0059947 0)
(0.293224 0.00645414 0)
(0.295006 -0.00222485 0)
(0.294968 -0.0018375 0)
(0.294936 -0.00144695 0)
(0.294909 -0.00105367 0)
(0.294887 -0.000658102 0)
(0.294871 -0.000260728 0)
(0.294861 0.000137968 0)
(0.294856 0.00053749 0)
(0.294857 0.000937339 0)
(0.294864 0.00133701 0)
(0.294877 0.00173599 0)
(0.294895 0.00213377 0)
(0.294919 0.00252985 0)
(0.294949 0.00292371 0)
(0.294984 0.00331486 0)
(0.295025 0.00370281 0)
(0.295071 0.00408705 0)
(0.295123 0.00446721 0)
(0.29518 0.00484302 0)
(0.295242 0.00521359 0)
(0.296755 -0.00172794 0)
(0.296731 -0.00142168 0)
(0.296711 -0.00111317 0)
(0.296694 -0.000802731 0)
(0.29668 -0.000490717 0)
(0.29667 -0.00017747 0)
(0.296663 0.000136654 0)
(0.29666 0.000451297 0)
(0.296661 0.000766096 0)
(0.296665 0.00108069 0)
(0.296672 0.0013947 0)
(0.296684 0.00170777 0)
(0.296698 0.00201954 0)
(0.296716 0.00232964 0)
(0.296738 0.00263771 0)
(0.296763 0.00294338 0)
(0.296792 0.0032463 0)
(0.296823 0.00354624 0)
(0.296858 0.00384302 0)
(0.296897 0.00413566 0)
(0.298063 -0.00129136 0)
(0.298049 -0.0010605 0)
(0.298038 -0.000828057 0)
(0.298028 -0.00059426 0)
(0.298021 -0.000359356 0)
(0.298015 -0.000123593 0)
(0.298012 0.000112777 0)
(0.298011 0.000349498 0)
(0.298011 0.000586312 0)
(0.298014 0.000822958 0)
(0.298019 0.00105917 0)
(0.298026 0.0012947 0)
(0.298035 0.00152928 0)
(0.298046 0.00176265 0)
(0.298059 0.00199455 0)
(0.298074 0.00222472 0)
(0.29809 0.00245291 0)
(0.298109 0.00267894 0)
(0.29813 0.00290272 0)
(0.298153 0.00312364 0)
(0.299049 -0.000896373 0)
(0.299043 -0.000734458 0)
(0.299037 -0.000571501 0)
(0.299033 -0.000407662 0)
(0.299029 -0.000243106 0)
(0.299026 -7.80005e-05 0)
(0.299024 8.74851e-05 0)
(0.299024 0.000253179 0)
(0.299024 0.000418909 0)
(0.299025 0.0005845 0)
(0.299027 0.000749778 0)
(0.29903 0.000914569 0)
(0.299034 0.0010787 0)
(0.299039 0.001242 0)
(0.299045 0.00140429 0)
(0.299052 0.00156539 0)
(0.29906 0.00172514 0)
(0.299068 0.00188342 0)
(0.299078 0.00204019 0)
(0.299088 0.00219483 0)
(0.299683 -0.000528192 0)
(0.299681 -0.00043259 0)
(0.299679 -0.000336393 0)
(0.299678 -0.000239693 0)
(0.299676 -0.000142585 0)
(0.299675 -4.51673e-05 0)
(0.299675 5.24631e-05 0)
(0.299675 0.000150206 0)
(0.299675 0.000247961 0)
(0.299675 0.000345627 0)
(0.299676 0.000443102 0)
(0.299677 0.000540286 0)
(0.299678 0.000637078 0)
(0.29968 0.000733377 0)
(0.299681 0.000829086 0)
(0.299683 0.0009241 0)
(0.299685 0.00101831 0)
(0.299688 0.00111166 0)
(0.29969 0.00120417 0)
(0.299692 0.00129571 0)
(0.299991 -0.000175249 0)
(0.299991 -0.000143295 0)
(0.299991 -0.000111142 0)
(0.299991 -7.8821e-05 0)
(0.299991 -4.63587e-05 0)
(0.29999 -1.37856e-05 0)
(0.29999 1.88686e-05 0)
(0.29999 5.15741e-05 0)
(0.29999 8.43013e-05 0)
(0.29999 0.000117021 0)
(0.29999 0.000149705 0)
(0.29999 0.000182327 0)
(0.29999 0.00021486 0)
(0.29999 0.000247282 0)
(0.299989 0.00027957 0)
(0.299989 0.0003117 0)
(0.299989 0.00034366 0)
(0.299989 0.000375511 0)
(0.299989 0.000407374 0)
(0.299988 0.00043873 0)
(0.294587 -0.100441 0)
(0.29343 -0.104319 0)
(0.292454 -0.108709 0)
(0.291747 -0.11375 0)
(0.291398 -0.119521 0)
(0.291459 -0.126066 0)
(0.291921 -0.133391 0)
(0.292677 -0.141456 0)
(0.2935 -0.150158 0)
(0.294028 -0.159322 0)
(0.293765 -0.168697 0)
(0.292096 -0.177962 0)
(0.288327 -0.186731 0)
(0.281719 -0.19457 0)
(0.271535 -0.200991 0)
(0.257072 -0.205488 0)
(0.23769 -0.20766 0)
(0.212821 -0.207339 0)
(0.181952 -0.203904 0)
(0.144584 -0.193863 0)
(0.287299 -0.0737348 0)
(0.284945 -0.0745698 0)
(0.282191 -0.0754692 0)
(0.279055 -0.0764007 0)
(0.275563 -0.0774308 0)
(0.271764 -0.0786427 0)
(0.26773 -0.0801253 0)
(0.263562 -0.0819711 0)
(0.259371 -0.084266 0)
(0.255264 -0.0870749 0)
(0.251313 -0.090424 0)
(0.247522 -0.0942837 0)
(0.24379 -0.0985516 0)
(0.239894 -0.103039 0)
(0.235484 -0.107465 0)
(0.230117 -0.111456 0)
(0.223304 -0.114547 0)
(0.214562 -0.116159 0)
(0.203477 -0.115542 0)
(0.18993 -0.111911 0)
(0.283179 -0.0785284 0)
(0.281793 -0.0797689 0)
(0.280231 -0.0809447 0)
(0.278452 -0.0820547 0)
(0.276397 -0.0830581 0)
(0.273998 -0.0839161 0)
(0.271182 -0.0845969 0)
(0.267883 -0.0850765 0)
(0.264047 -0.0853409 0)
(0.25964 -0.0853874 0)
(0.254659 -0.0852245 0)
(0.249137 -0.0848681 0)
(0.243138 -0.0843346 0)
(0.23676 -0.0836308 0)
(0.230123 -0.082742 0)
(0.223355 -0.0816199 0)
(0.216579 -0.0801727 0)
(0.209901 -0.0782551 0)
(0.203417 -0.075672 0)
(0.197235 -0.0722214 0)
(0.27646 -0.0584816 0)
(0.274391 -0.0588986 0)
(0.272266 -0.0593454 0)
(0.270096 -0.0597927 0)
(0.267889 -0.0602357 0)
(0.265655 -0.0606622 0)
(0.263401 -0.0610505 0)
(0.261123 -0.061371 0)
(0.25881 -0.061587 0)
(0.256442 -0.0616561 0)
(0.253988 -0.0615316 0)
(0.251411 -0.0611657 0)
(0.248669 -0.0605122 0)
(0.245724 -0.0595296 0)
(0.242548 -0.0581836 0)
(0.239127 -0.0564486 0)
(0.235467 -0.0543077 0)
(0.231601 -0.0517528 0)
(0.227592 -0.0487841 0)
(0.223526 -0.0454119 0)
(0.278406 -0.0538429 0)
(0.276903 -0.0536926 0)
(0.275266 -0.0534564 0)
(0.273492 -0.0531373 0)
(0.271581 -0.0527305 0)
(0.269531 -0.0522325 0)
(0.267347 -0.0516417 0)
(0.265034 -0.0509568 0)
(0.262605 -0.0501764 0)
(0.260077 -0.049298 0)
(0.25747 -0.0483169 0)
(0.254808 -0.0472255 0)
(0.252119 -0.0460125 0)
(0.249429 -0.0446631 0)
(0.246764 -0.0431588 0)
(0.244151 -0.0414788 0)
(0.24161 -0.0396015 0)
(0.239162 -0.0375061 0)
(0.236825 -0.0351756 0)
(0.234615 -0.0325987 0)
(0.277799 -0.0432615 0)
(0.276477 -0.0430411 0)
(0.27514 -0.0427743 0)
(0.273787 -0.0424518 0)
(0.272417 -0.0420644 0)
(0.271031 -0.0416024 0)
(0.269626 -0.0410554 0)
(0.268199 -0.0404133 0)
(0.266748 -0.0396658 0)
(0.26527 -0.0388036 0)
(0.263762 -0.0378181 0)
(0.262224 -0.0367025 0)
(0.260655 -0.0354511 0)
(0.259059 -0.0340602 0)
(0.257441 -0.032528 0)
(0.25581 -0.0308541 0)
(0.254178 -0.0290398 0)
(0.25256 -0.0270879 0)
(0.250973 -0.0250021 0)
(0.249437 -0.0227873 0)
(0.280377 -0.0371883 0)
(0.279316 -0.0367071 0)
(0.278211 -0.0361718 0)
(0.277066 -0.0355829 0)
(0.275884 -0.0349388 0)
(0.274668 -0.0342381 0)
(0.273423 -0.0334791 0)
(0.272155 -0.0326603 0)
(0.270872 -0.0317793 0)
(0.26958 -0.0308339 0)
(0.268287 -0.0298212 0)
(0.267001 -0.0287379 0)
(0.265731 -0.0275807 0)
(0.264485 -0.0263461 0)
(0.26327 -0.0250308 0)
(0.262094 -0.0236316 0)
(0.260965 -0.0221463 0)
(0.259889 -0.0205732 0)
(0.258874 -0.0189119 0)
(0.257924 -0.0171632 0)
(0.282317 -0.0309642 0)
(0.281504 -0.0304988 0)
(0.280684 -0.0299892 0)
(0.279858 -0.0294355 0)
(0.279027 -0.0288344 0)
(0.278191 -0.0281824 0)
(0.277352 -0.0274769 0)
(0.27651 -0.0267155 0)
(0.275666 -0.025896 0)
(0.274822 -0.0250166 0)
(0.273979 -0.0240762 0)
(0.273141 -0.0230738 0)
(0.272308 -0.0220091 0)
(0.271486 -0.0208824 0)
(0.270677 -0.0196941 0)
(0.269886 -0.0184454 0)
(0.269118 -0.0171379 0)
(0.268378 -0.0157734 0)
(0.267671 -0.0143544 0)
(0.267004 -0.0128836 0)
(0.284882 -0.0261661 0)
(0.284229 -0.0256516 0)
(0.283566 -0.0251023 0)
(0.282895 -0.0245187 0)
(0.282217 -0.0239001 0)
(0.281534 -0.0232457 0)
(0.280849 -0.0225548 0)
(0.280165 -0.0218268 0)
(0.279484 -0.0210612 0)
(0.278809 -0.0202574 0)
(0.278143 -0.0194148 0)
(0.27749 -0.0185328 0)
(0.276852 -0.0176112 0)
(0.276234 -0.0166496 0)
(0.275637 -0.0156481 0)
(0.275064 -0.0146067 0)
(0.27452 -0.013526 0)
(0.274006 -0.0124067 0)
(0.273526 -0.0112498 0)
(0.273081 -0.0100568 0)
(0.28726 -0.0220578 0)
(0.286778 -0.0215816 0)
(0.286295 -0.0210757 0)
(0.285811 -0.0205419 0)
(0.285328 -0.0199791 0)
(0.284846 -0.0193862 0)
(0.284366 -0.0187628 0)
(0.28389 -0.0181083 0)
(0.283419 -0.0174225 0)
(0.282954 -0.0167052 0)
(0.282496 -0.0159564 0)
(0.282046 -0.0151764 0)
(0.281607 -0.0143654 0)
(0.28118 -0.0135242 0)
(0.280767 -0.0126533 0)
(0.28037 -0.0117537 0)
(0.27999 -0.0108265 0)
(0.27963 -0.00987285 0)
(0.279292 -0.00889422 0)
(0.278977 -0.00789211 0)
(0.289542 -0.0185598 0)
(0.289165 -0.0181083 0)
(0.288787 -0.0176347 0)
(0.288409 -0.01714 0)
(0.288032 -0.0166235 0)
(0.287657 -0.0160852 0)
(0.287284 -0.015525 0)
(0.286916 -0.0149427 0)
(0.286553 -0.0143384 0)
(0.286197 -0.0137122 0)
(0.285849 -0.0130641 0)
(0.28551 -0.0123944 0)
(0.285182 -0.0117032 0)
(0.284866 -0.0109911 0)
(0.284564 -0.0102583 0)
(0.284276 -0.00950545 0)
(0.284004 -0.0087332 0)
(0.283749 -0.00794232 0)
(0.283512 -0.00713369 0)
(0.283295 -0.00630832 0)
(0.291652 -0.0156311 0)
(0.29138 -0.0152276 0)
(0.291109 -0.0148057 0)
(0.290839 -0.0143667 0)
(0.290571 -0.0139105 0)
(0.290306 -0.0134366 0)
(0.290044 -0.0129451 0)
(0.289786 -0.012436 0)
(0.289532 -0.0119093 0)
(0.289283 -0.0113654 0)
(0.289041 -0.0108044 0)
(0.288805 -0.0102267 0)
(0.288577 -0.00963258 0)
(0.288357 -0.00902258 0)
(0.288146 -0.00839724 0)
(0.287945 -0.00775715 0)
(0.287755 -0.00710302 0)
(0.287576 -0.00643558 0)
(0.28741 -0.00575567 0)
(0.287257 -0.00506415 0)
(0.293509 -0.0130358 0)
(0.293305 -0.0126775 0)
(0.293102 -0.0123055 0)
(0.2929 -0.0119205 0)
(0.2927 -0.0115224 0)
(0.292503 -0.0111111 0)
(0.292308 -0.0106867 0)
(0.292117 -0.0102493 0)
(0.29193 -0.00979911 0)
(0.291747 -0.00933628 0)
(0.29157 -0.00886103 0)
(0.291398 -0.00837363 0)
(0.291233 -0.00787438 0)
(0.291074 -0.00736363 0)
(0.290923 -0.00684176 0)
(0.29078 -0.00630923 0)
(0.290646 -0.00576651 0)
(0.29052 -0.00521415 0)
(0.290405 -0.00465273 0)
(0.290299 -0.00408287 0)
(0.295161 -0.0108086 0)
(0.29502 -0.0105004 0)
(0.29488 -0.010181 0)
(0.294742 -0.00985133 0)
(0.294605 -0.00951138 0)
(0.29447 -0.00916106 0)
(0.294337 -0.00880046 0)
(0.294207 -0.00842971 0)
(0.29408 -0.00804899 0)
(0.293956 -0.00765847 0)
(0.293836 -0.00725839 0)
(0.293719 -0.006849 0)
(0.293607 -0.0064306 0)
(0.2935 -0.0060035 0)
(0.293397 -0.00556807 0)
(0.2933 -0.00512471 0)
(0.293209 -0.00467383 0)
(0.293124 -0.00421589 0)
(0.293045 -0.00375138 0)
(0.292973 -0.0032808 0)
(0.296547 -0.00878228 0)
(0.296448 -0.0085228 0)
(0.296351 -0.00825497 0)
(0.296255 -0.00797943 0)
(0.29616 -0.00769612 0)
(0.296066 -0.00740503 0)
(0.295974 -0.00710626 0)
(0.295885 -0.00679994 0)
(0.295797 -0.00648622 0)
(0.295712 -0.00616526 0)
(0.295629 -0.00583725 0)
(0.29555 -0.00550238 0)
(0.295473 -0.00516089 0)
(0.295401 -0.00481303 0)
(0.295331 -0.00445906 0)
(0.295266 -0.00409927 0)
(0.295205 -0.00373398 0)
(0.295148 -0.00336353 0)
(0.295096 -0.00298827 0)
(0.295048 -0.00260858 0)
(0.297713 -0.00697511 0)
(0.297651 -0.00676448 0)
(0.297591 -0.00654726 0)
(0.297531 -0.0063242 0)
(0.297471 -0.00609525 0)
(0.297413 -0.00586037 0)
(0.297356 -0.00561966 0)
(0.2973 -0.00537324 0)
(0.297246 -0.00512123 0)
(0.297193 -0.00486377 0)
(0.297142 -0.00460102 0)
(0.297093 -0.00433315 0)
(0.297045 -0.00406035 0)
(0.297 -0.00378281 0)
(0.296957 -0.00350077 0)
(0.296917 -0.00321445 0)
(0.296879 -0.0029241 0)
(0.296843 -0.00263 0)
(0.296811 -0.0023324 0)
(0.296781 -0.00203162 0)
(0.298627 -0.00528574 0)
(0.29859 -0.00512295 0)
(0.298554 -0.00495545 0)
(0.298518 -0.00478377 0)
(0.298483 -0.00460784 0)
(0.298448 -0.00442766 0)
(0.298415 -0.0042433 0)
(0.298382 -0.00405486 0)
(0.298349 -0.00386243 0)
(0.298318 -0.00366612 0)
(0.298288 -0.00346606 0)
(0.298259 -0.00326235 0)
(0.298231 -0.00305514 0)
(0.298205 -0.00284459 0)
(0.29818 -0.00263084 0)
(0.298156 -0.00241406 0)
(0.298134 -0.00219443 0)
(0.298114 -0.00197215 0)
(0.298095 -0.0017474 0)
(0.298078 -0.0015204 0)
(0.299317 -0.00371438 0)
(0.2993 -0.00359888 0)
(0.299282 -0.00347995 0)
(0.299266 -0.00335816 0)
(0.299249 -0.00323345 0)
(0.299233 -0.00310582 0)
(0.299217 -0.00297532 0)
(0.299201 -0.00284202 0)
(0.299186 -0.002706 0)
(0.299171 -0.00256734 0)
(0.299157 -0.00242611 0)
(0.299143 -0.00228241 0)
(0.29913 -0.00213634 0)
(0.299117 -0.001988 0)
(0.299105 -0.00183751 0)
(0.299094 -0.00168498 0)
(0.299084 -0.00153054 0)
(0.299074 -0.00137432 0)
(0.299065 -0.00121645 0)
(0.299057 -0.00105709 0)
(0.299769 -0.00219876 0)
(0.299764 -0.00212974 0)
(0.299759 -0.00205888 0)
(0.299754 -0.00198639 0)
(0.299749 -0.00191221 0)
(0.299743 -0.00183633 0)
(0.299738 -0.00175879 0)
(0.299733 -0.00167964 0)
(0.299728 -0.00159891 0)
(0.299723 -0.00151666 0)
(0.299719 -0.00143294 0)
(0.299714 -0.00134779 0)
(0.29971 -0.00126128 0)
(0.299705 -0.00117346 0)
(0.299701 -0.00108441 0)
(0.299698 -0.00099419 0)
(0.299694 -0.000902871 0)
(0.299691 -0.000810531 0)
(0.299688 -0.000717249 0)
(0.299685 -0.000623108 0)
(0.299991 -0.000737287 0)
(0.299991 -0.000713664 0)
(0.299991 -0.000689256 0)
(0.299992 -0.000664515 0)
(0.299992 -0.000639342 0)
(0.299992 -0.000613672 0)
(0.299992 -0.000587502 0)
(0.299992 -0.000560839 0)
(0.299992 -0.000533689 0)
(0.299992 -0.000506062 0)
(0.299992 -0.000477968 0)
(0.299992 -0.000449421 0)
(0.299991 -0.000420436 0)
(0.299991 -0.000391032 0)
(0.299991 -0.000361226 0)
(0.299991 -0.000331041 0)
(0.299991 -0.000300499 0)
(0.299991 -0.000269622 0)
(0.299991 -0.000238437 0)
(0.299991 -0.00020697 0)
(0.0649904 -0.0755963 0)
(0.0482417 -0.0608775 0)
(0.0368047 -0.0480763 0)
(0.0284911 -0.0378338 0)
(0.0221795 -0.0295218 0)
(0.0172488 -0.0226955 0)
(0.0133229 -0.0171083 0)
(0.0101573 -0.0125775 0)
(0.00758433 -0.00894676 0)
(0.00548448 -0.00608313 0)
(0.00376983 -0.00387364 0)
(0.00237483 -0.00222086 0)
(0.00125073 -0.00103898 0)
(0.000362492 -0.000250767 0)
(-0.000312784 0.00021414 0)
(-0.00078636 0.00042397 0)
(-0.00105684 0.000444161 0)
(-0.0011101 0.000334979 0)
(-0.000917974 0.000169217 0)
(-0.000430506 4.1512e-05 0)
(0.105263 -0.0612044 0)
(0.0893334 -0.0549947 0)
(0.0757586 -0.0482809 0)
(0.0641103 -0.0418726 0)
(0.0540479 -0.0358819 0)
(0.0453174 -0.0303518 0)