/*--------------------------------*- C++ -*----------------------------------*\
| =========                 |                                                 |
| \\      /  F ield         | OpenFOAM: The Open Source CFD Toolbox           |
|  \\    /   O peration     | Version:  v1806                                 |
|   \\  /    A nd           | Web:      www.OpenFOAM.com                      |
|    \\/     M anipulation  |                                                 |
\*---------------------------------------------------------------------------*/
FoamFile
{
    version     2.0;
    format      ascii;
    class       volScalarField;
    location    "490";
    object      p;
}
// * * * * * * * * * * * * * * * * * * * * * * * * * * * * * * * * * * * * * //

dimensions      [0 2 -2 0 0 0 0];


internalField   nonuniform List<scalar> 
5004
(
-0.00408139
-0.0040826
-0.0040826
-0.00408139
-0.00412184
-0.00412155
-0.00412155
-0.00412184
-0.00411251
-0.00411198
-0.00411198
-0.00411251
-0.00407829
-0.00407807
-0.00407807
-0.00407829
-0.00403956
-0.00403917
-0.00403917
-0.00403956
-0.00422259
-0.00422338
-0.00422338
-0.00422259
-0.00420017
-0.00420071
-0.00420071
-0.00420017
-0.00420661
-0.00420825
-0.00420825
-0.00420661
0.0210557
0.0210513
0.0210513
0.0210557
0.0216865
0.0216809
0.0216809
0.0216865
0.0220331
0.0220349
0.0220349
0.0220331
-0.00403387
-0.00403384
-0.00403384
-0.00403387
-0.00414929
-0.00414806
-0.00414806
-0.00414929
0.0156199
0.0156141
0.0156141
0.0156199
0.0174542
0.0174506
0.0174506
0.0174542
0.0136378
0.0136309
0.0136309
0.0136378
0.0338767
0.0338988
0.0338988
0.0338767
0.0390746
0.0390919
0.0390919
0.0390746
-0.00438305
-0.00438079
-0.00438079
-0.00438305
-0.00452409
-0.00452562
-0.00452562
-0.00452409
-0.00459992
-0.00459836
-0.00459836
-0.00459992
-0.00442257
-0.00441633
-0.00441633
-0.00442257
0.0176641
0.017672
0.017672
0.0176641
-0.00649777
-0.00650541
-0.00650541
-0.00649777
-0.00464857
-0.00464571
-0.00464571
-0.00464857
-0.0045399
-0.00453828
-0.00453828
-0.0045399
-0.00462349
-0.00462457
-0.00462457
-0.00462349
-0.00440781
-0.0044052
-0.0044052
-0.00440781
-0.00416806
-0.00416589
-0.00416589
-0.00416806
-0.00492113
-0.00492373
-0.00492373
-0.00492113
-0.00469866
-0.00469362
-0.00469362
-0.00469866
-0.00520727
-0.00519995
-0.00519995
-0.00520727
0.0211765
0.0211796
0.0211796
0.0211765
0.0235202
0.0234899
0.0234899
0.0235202
0.0259291
0.0259545
0.0259545
0.0259291
0.021602
0.0215978
0.0215978
0.021602
0.0196192
0.0196381
0.0196381
0.0196192
-0.004461
-0.00446298
-0.00446298
-0.004461
-0.00482573
-0.00482953
-0.00482953
-0.00482573
-0.011741
-0.0117943
-0.0117943
-0.011741
0.0246981
0.0247124
0.0247124
0.0246981
-0.00610527
-0.00610472
-0.00610472
-0.00610527
-0.0067889
-0.00678327
-0.00678327
-0.0067889
-0.00751185
-0.00750593
-0.00750593
-0.00751185
-0.0083055
-0.00829935
-0.00829935
-0.0083055
-0.00917317
-0.00916528
-0.00916528
-0.00917317
-0.0102498
-0.0102406
-0.0102406
-0.0102498
-0.0117232
-0.0117156
-0.0117156
-0.0117232
-0.0134253
-0.0134144
-0.0134144
-0.0134253
-0.0159555
-0.0159458
-0.0159458
-0.0159555
-0.0183567
-0.0183417
-0.0183417
-0.0183567
-0.0218532
-0.0219022
-0.0219022
-0.0218532
-0.0167815
-0.0167427
-0.0167427
-0.0167815
-0.0205325
-0.0205681
-0.0205681
-0.0205325
-0.00223054
-0.00222655
-0.00222655
-0.00223054
0.0130714
0.0131079
0.0131079
0.0130714
0.0163575
0.0163474
0.0163474
0.0163575
0.0192248
0.0192394
0.0192394
0.0192248
0.0179375
0.0179314
0.0179314
0.0179375
-0.00432606
-0.00432656
-0.00432656
-0.00432606
0.018977
0.0189812
0.0189812
0.018977
0.0250895
0.0250972
0.0250972
0.0250895
0.0272734
0.0272682
0.0272682
0.0272734
-0.00557063
-0.00557817
-0.00557817
-0.00557063
-0.00474425
-0.004739
-0.004739
-0.00474425
-0.00470775
-0.00471214
-0.00471214
-0.00470775
-0.00450159
-0.00449929
-0.00449929
-0.00450159
-0.00444023
-0.00444492
-0.00444492
-0.00444023
-0.00414146
-0.00413997
-0.00413998
-0.00414146
-0.00421875
-0.00421716
-0.00421716
-0.00421875
-0.00409978
-0.00409838
-0.00409838
-0.00409978
-0.00410283
-0.00410059
-0.00410059
-0.00410283
0.0171266
0.0171393
0.0171393
0.0171266
0.0160412
0.0160484
0.0160484
0.0160412
0.028487
0.0284845
0.0284845
0.028487
0.0346209
0.0346641
0.0346641
0.0346209
0.0365889
0.0365758
0.0365758
0.0365889
0.0499144
0.0499671
0.0499671
0.0499144
0.0145486
0.0145544
0.0145544
0.0145486
0.0191244
0.0191229
0.0191229
0.0191244
0.0168305
0.0168345
0.0168345
0.0168305
0.0166266
0.0166294
0.0166294
0.0166266
0.0158546
0.015858
0.015858
0.0158546
0.0146571
0.014662
0.014662
0.0146571
0.0133355
0.0133354
0.0133354
0.0133355
0.0255293
0.0255306
0.0255306
0.0255293
-0.00432296
-0.00432339
-0.00432339
-0.00432296
0.0144526
0.0144592
0.0144592
0.0144526
0.0144685
0.0144686
0.0144686
0.0144685
0.0142466
0.014259
0.014259
0.0142466
0.0120955
0.0120952
0.0120952
0.0120955
0.00694972
0.00692419
0.00692419
0.00694972
-2.59595e-05
-3.12315e-05
-3.12314e-05
-2.59595e-05
-0.0149285
-0.0149981
-0.0149981
-0.0149285
-0.0144113
-0.0143927
-0.0143927
-0.0144113
-0.0165516
-0.0165917
-0.0165917
-0.0165516
-0.0158692
-0.0158619
-0.0158619
-0.0158692
-0.0145231
-0.0145151
-0.0145151
-0.0145231
-0.0126968
-0.0126899
-0.0126899
-0.0126968
-0.0112382
-0.0112344
-0.0112344
-0.0112382
-0.00988294
-0.00987708
-0.00987708
-0.00988294
-0.00875395
-0.00874582
-0.00874582
-0.00875395
-0.00792901
-0.00792599
-0.00792599
-0.00792901
-0.00718063
-0.00717586
-0.00717586
-0.00718063
-0.00652013
-0.00651636
-0.00651636
-0.00652013
-0.00590596
-0.005903
-0.005903
-0.00590596
-0.00533006
-0.00532242
-0.00532242
-0.00533006
-0.00547628
-0.005487
-0.005487
-0.00547628
-0.00442484
-0.00441468
-0.00441468
-0.00442484
-0.0044557
-0.00445755
-0.00445755
-0.0044557
-0.00457892
-0.00458458
-0.00458458
-0.00457892
-0.00438516
-0.00438151
-0.00438151
-0.00438516
-0.00422529
-0.00422559
-0.00422559
-0.00422529
-0.00399911
-0.00399894
-0.00399894
-0.00399911
-0.00373842
-0.00374105
-0.00374105
-0.00373842
-0.00388564
-0.00388785
-0.00388785
-0.00388564
-0.00398436
-0.00398561
-0.00398561
-0.00398436
-0.00412595
-0.00412841
-0.00412841
-0.00412595
-0.00408247
-0.0040839
-0.0040839
-0.00408247
-0.00407296
-0.00407442
-0.00407442
-0.00407296
-0.00418083
-0.00417905
-0.00417905
-0.00418083
-0.00452733
-0.00452984
-0.00452984
-0.00452733
-0.00439391
-0.00439184
-0.00439184
-0.00439391
-0.0044035
-0.00440272
-0.00440272
-0.0044035
-0.00436611
-0.0043666
-0.0043666
-0.00436611
0.0299564
0.0299657
0.0299657
0.0299564
0.0340487
0.0340397
0.0340397
0.0340487
0.0129625
0.0129638
0.0129638
0.0129625
0.0382485
0.0382298
0.0382298
0.0382485
0.0120477
0.0120436
0.0120436
0.0120477
0.0434847
0.0434699
0.0434699
0.0434847
-0.00423094
-0.00423164
-0.00423164
-0.00423094
-0.00430485
-0.00430442
-0.00430442
-0.00430485
-0.00437296
-0.00437476
-0.00437476
-0.00437296
-0.00431133
-0.00431145
-0.00431145
-0.00431133
-0.0041908
-0.00418922
-0.00418922
-0.0041908
-0.00409531
-0.0040958
-0.0040958
-0.00409531
0.0453866
0.0454191
0.0454191
0.0453866
0.0292842
0.0292823
0.0292823
0.0292842
0.0253402
0.0253516
0.0253516
0.0253402
0.0217446
0.0217428
0.0217428
0.0217446
0.0189463
0.0189502
0.0189502
0.0189463
0.0165448
0.0165475
0.0165475
0.0165448
0.0145864
0.0145902
0.0145902
0.0145864
0.0148445
0.0148474
0.0148474
0.0148445
0.0147335
0.014739
0.014739
0.0147335
0.0142312
0.0142348
0.0142348
0.0142312
0.0133705
0.0133772
0.0133772
0.0133705
0.0123397
0.0123458
0.0123458
0.0123397
0.0112457
0.0112513
0.0112513
0.0112457
0.010099
0.0101046
0.0101046
0.010099
0.0107305
0.0107275
0.0107275
0.0107305
0.0114326
0.0114317
0.0114317
0.0114326
0.0118521
0.0118487
0.0118487
0.0118521
0.0119875
0.0119915
0.0119915
0.0119875
0.0116746
0.0116815
0.0116815
0.0116746
0.0106842
0.0106903
0.0106903
0.0106842
0.00895691
0.00896097
0.00896097
0.00895691
0.00455962
0.00453604
0.00453604
0.00455962
0.000375079
0.000386148
0.000386148
0.000375079
-0.0084445
-0.00848467
-0.00848467
-0.0084445
-0.0099554
-0.00992428
-0.00992428
-0.0099554
-0.0115501
-0.0115474
-0.0115474
-0.0115501
-0.0120992
-0.0120889
-0.0120889
-0.0120992
-0.0115529
-0.0115389
-0.0115389
-0.0115529
-0.0105567
-0.0105453
-0.0105453
-0.0105567
-0.00966256
-0.00965416
-0.00965416
-0.00966256
-0.00880285
-0.00879512
-0.00879512
-0.00880285
-0.00799115
-0.00798205
-0.00798205
-0.00799115
-0.00733606
-0.00733292
-0.00733292
-0.00733606
-0.00668126
-0.00667465
-0.00667465
-0.00668126
-0.00615878
-0.00615649
-0.00615649
-0.00615878
-0.00561642
-0.00561081
-0.00561081
-0.00561642
-0.00519952
-0.00519573
-0.00519573
-0.00519952
-0.0048438
-0.00484264
-0.00484264
-0.0048438
-0.00458083
-0.00458388
-0.00458388
-0.00458083
-0.00437777
-0.00437613
-0.00437613
-0.00437777
-0.00433979
-0.00434486
-0.00434486
-0.00433979
-0.00418679
-0.0041864
-0.0041864
-0.00418679
-0.0040138
-0.00401544
-0.00401544
-0.0040138
-0.00375239
-0.0037506
-0.0037506
-0.00375239
-0.00351204
-0.00351489
-0.00351489
-0.00351204
-0.00317731
-0.00317819
-0.00317819
-0.00317731
-0.00339319
-0.00339312
-0.00339312
-0.00339319
-0.00354726
-0.00354712
-0.00354712
-0.00354726
-0.00367453
-0.00367495
-0.00367495
-0.00367453
-0.00375419
-0.00375407
-0.00375407
-0.00375419
-0.00379518
-0.00379468
-0.00379468
-0.00379518
-0.00384947
-0.00384919
-0.00384919
-0.00384947
-0.00392258
-0.00392206
-0.00392206
-0.00392258
-0.00404165
-0.00404089
-0.00404089
-0.00404165
-0.00416308
-0.00416289
-0.00416289
-0.00416308
-0.00422758
-0.00422644
-0.00422644
-0.00422758
-0.00428256
-0.00428257
-0.00428257
-0.00428256
-0.0042837
-0.00428349
-0.00428349
-0.0042837
-0.00423407
-0.00423336
-0.00423336
-0.00423407
-0.00417489
-0.0041744
-0.0041744
-0.00417489
-0.00400992
-0.0040092
-0.0040092
-0.00400992
-0.00403538
-0.00403599
-0.00403599
-0.00403538
-0.00281621
-0.00281558
-0.00281558
-0.00281621
-0.00302897
-0.00302912
-0.00302912
-0.00302897
-0.00318914
-0.00318951
-0.00318951
-0.00318914
-0.00331101
-0.00331089
-0.00331089
-0.00331101
-0.00341892
-0.00341974
-0.00341974
-0.00341892
-0.00348509
-0.00348524
-0.00348524
-0.00348509
-0.00358222
-0.00358236
-0.00358236
-0.00358222
-0.00370879
-0.00370887
-0.00370887
-0.00370879
-0.00388221
-0.00388201
-0.00388201
-0.00388221
0.00898049
0.00898445
0.00898445
0.00898049
0.00950234
0.00950114
0.00950114
0.00950234
0.00989745
0.00989459
0.00989459
0.00989745
0.0100144
0.0100151
0.0100151
0.0100144
0.00979292
0.00979531
0.00979531
0.00979292
0.00936104
0.00937062
0.00937062
0.00936104
0.00824313
0.00824042
0.00824042
0.00824313
0.00680858
0.00681481
0.00681481
0.00680858
0.00333887
0.00331237
0.00331237
0.00333887
0.00038335
0.00039149
0.000391491
0.00038335
-0.00482091
-0.00486461
-0.00486461
-0.00482091
-0.0072183
-0.00721077
-0.00721077
-0.0072183
-0.00860878
-0.0086009
-0.0086009
-0.00860878
-0.00916287
-0.00916167
-0.00916167
-0.00916287
-0.00925911
-0.00925876
-0.00925876
-0.00925911
-0.00892197
-0.00891984
-0.00891984
-0.00892197
-0.00837169
-0.00836668
-0.00836668
-0.00837169
-0.00777489
-0.00776886
-0.00776886
-0.00777489
-0.00715339
-0.00714654
-0.00714654
-0.00715339
-0.00660155
-0.00659796
-0.00659796
-0.00660155
-0.00607574
-0.00607087
-0.00607087
-0.00607574
-0.0056299
-0.00562839
-0.00562839
-0.0056299
-0.00520525
-0.00520238
-0.00520238
-0.00520525
-0.00483326
-0.0048313
-0.0048313
-0.00483326
-0.00453426
-0.00453635
-0.00453635
-0.00453426
-0.00432184
-0.00432571
-0.00432571
-0.00432184
-0.00408629
-0.004083
-0.004083
-0.00408629
-0.00395897
-0.00396153
-0.00396153
-0.00395897
-0.00382431
-0.00382664
-0.00382664
-0.00382431
-0.0036491
-0.0036495
-0.0036495
-0.0036491
-0.00342083
-0.00341914
-0.00341914
-0.00342083
-0.00319584
-0.00319762
-0.00319762
-0.00319584
-0.00289998
-0.00290042
-0.00290042
-0.00289998
-0.00256508
-0.00256428
-0.00256428
-0.00256508
0.0357987
0.0357975
0.0357975
0.0357987
0.0334257
0.0334269
0.0334269
0.0334257
0.0129754
0.0129787
0.0129787
0.0129754
0.0132191
0.0132226
0.0132226
0.0132191
0.0131568
0.0131599
0.0131599
0.0131568
0.012811
0.012812
0.012812
0.012811
0.0121796
0.0121816
0.0121816
0.0121796
0.0113519
0.0113546
0.0113546
0.0113519
0.0104139
0.0104177
0.0104177
0.0104139
0.00942964
0.00943381
0.00943381
0.00942964
0.00844294
0.00844637
0.00844637
0.00844294
0.0297696
0.0297736
0.0297736
0.0297696
0.0266163
0.0266199
0.0266199
0.0266163
0.0235572
0.0235591
0.0235591
0.0235572
0.0206389
0.0206401
0.0206401
0.0206389
0.0180887
0.0180895
0.0180895
0.0180887
0.015942
0.015941
0.015941
0.015942
0.0140963
0.0140988
0.0140988
0.0140963
0.0124593
0.0124626
0.0124626
0.0124593
0.0233778
0.023412
0.023412
0.0233778
0.0282852
0.0283092
0.0283092
0.0282852
0.0272938
0.0273039
0.0273039
0.0272938
0.0257475
0.025754
0.025754
0.0257475
0.0235664
0.0235674
0.0235674
0.0235664
0.021275
0.0212747
0.0212747
0.021275
0.0189397
0.0189397
0.0189397
0.0189397
0.0167879
0.0167889
0.0167889
0.0167879
0.0148751
0.0148751
0.0148751
0.0148751
0.0131879
0.0131911
0.0131911
0.0131879
0.0117163
0.0117187
0.0117187
0.0117163
0.0104775
0.0104784
0.0104784
0.0104775
0.0111593
0.0111604
0.0111604
0.0111593
0.0116451
0.0116455
0.0116455
0.0116451
0.0118779
0.011879
0.011879
0.0118779
0.0118792
0.0118815
0.0118815
0.0118792
0.0116358
0.0116375
0.0116375
0.0116358
0.0111648
0.0111667
0.0111667
0.0111648
0.0105177
0.0105206
0.0105206
0.0105177
0.00972512
0.00972986
0.00972986
0.00972512
0.00886368
0.00886849
0.00886849
0.00886368
0.00797459
0.00797855
0.00797855
0.00797459
0.00707016
0.00707333
0.00707333
0.00707016
0.00747799
0.00748028
0.00748028
0.00747799
0.00784326
0.00784418
0.00784418
0.00784326
0.00815792
0.00816016
0.00816016
0.00815792
0.00829595
0.00829891
0.00829891
0.00829595
0.00836762
0.00837297
0.00837297
0.00836762
0.0079774
0.00797383
0.00797383
0.0079774
0.0074414
0.00744797
0.00744797
0.0074414
0.00635269
0.00634568
0.00634568
0.00635269
0.00503113
0.00503542
0.00503542
0.00503113
0.00256147
0.00253956
0.00253956
0.00256147
0.000248528
0.000252467
0.000252467
0.000248528
-0.00292039
-0.00294675
-0.00294675
-0.00292039
-0.00510488
-0.00511143
-0.00511143
-0.00510488
-0.00635712
-0.00634909
-0.00634909
-0.00635712
-0.00700581
-0.00699916
-0.00699916
-0.00700581
-0.00724772
-0.00724615
-0.00724615
-0.00724772
-0.00724894
-0.0072451
-0.0072451
-0.00724894
-0.0069747
-0.00696559
-0.00696559
-0.0069747
-0.00658563
-0.00657543
-0.00657543
-0.00658563
-0.00614237
-0.00613333
-0.00613333
-0.00614237
-0.00571233
-0.00570712
-0.00570712
-0.00571233
-0.00531534
-0.00531198
-0.00531198
-0.00531534
-0.00496265
-0.00496139
-0.00496139
-0.00496265
-0.00463594
-0.00463474
-0.00463474
-0.00463594
-0.00433842
-0.00433731
-0.00433731
-0.00433842
-0.00408659
-0.00408766
-0.00408766
-0.00408659
-0.00387644
-0.00387784
-0.00387784
-0.00387644
-0.00369218
-0.00369109
-0.00369109
-0.00369218
-0.00353885
-0.00353955
-0.00353955
-0.00353885
-0.0033993
-0.00340166
-0.00340166
-0.0033993
-0.00324212
-0.00324336
-0.00324336
-0.00324212
-0.00304676
-0.00304627
-0.00304627
-0.00304676
-0.00283357
-0.00283584
-0.00283584
-0.00283357
-0.00259088
-0.00259172
-0.00259172
-0.00259088
-0.00228357
-0.00228061
-0.00228061
-0.00228357
-0.00222031
-0.00221863
-0.00221863
-0.00222031
-0.00243068
-0.00242946
-0.00242946
-0.00243068
-0.00263634
-0.0026372
-0.0026372
-0.00263634
-0.00280067
-0.00280242
-0.00280242
-0.00280067
-0.00292161
-0.00292271
-0.00292271
-0.00292161
-0.00303746
-0.00303846
-0.00303846
-0.00303746
-0.00313612
-0.00313686
-0.00313686
-0.00313612
-0.00327033
-0.00327079
-0.00327079
-0.00327033
-0.0034402
-0.00344002
-0.00344002
-0.0034402
-0.003669
-0.00366907
-0.00366907
-0.003669
-0.00389983
-0.00389944
-0.00389944
-0.00389983
-0.00410513
-0.00410613
-0.00410613
-0.00410513
-0.00421608
-0.00421571
-0.00421571
-0.00421608
-0.00429011
-0.00428985
-0.00428985
-0.00429011
-0.00432346
-0.00432304
-0.00432304
-0.00432346
-0.00432959
-0.00432955
-0.00432955
-0.00432959
-0.00431768
-0.004318
-0.004318
-0.00431768
-0.00427986
-0.00428002
-0.00428002
-0.00427986
-0.00423667
-0.00423654
-0.00423654
-0.00423667
-0.00400625
-0.00400659
-0.00400659
-0.00400625
-0.00197223
-0.00196952
-0.00196952
-0.00197223
-0.00417417
-0.00417418
-0.00417418
-0.00417417
-0.00412517
-0.00412453
-0.00412453
-0.00412517
-0.00432722
-0.00432827
-0.00432827
-0.00432722
-0.00440932
-0.00440916
-0.00440916
-0.00440932
-0.00445017
-0.00445018
-0.00445018
-0.00445017
-0.00444933
-0.0044491
-0.0044491
-0.00444933
-0.00442528
-0.00442488
-0.00442488
-0.00442528
-0.00439818
-0.00439819
-0.00439819
-0.00439818
-0.00435724
-0.00435768
-0.00435768
-0.00435724
-0.00430123
-0.004301
-0.004301
-0.00430123
-0.00428427
-0.00428518
-0.00428518
-0.00428427
-0.00425026
-0.00424996
-0.00424996
-0.00425026
-0.00429059
-0.00429195
-0.00429195
-0.00429059
-0.00423857
-0.00424064
-0.00424064
-0.00423857
-0.00428395
-0.00428419
-0.00428419
-0.00428395
-0.00167079
-0.00166999
-0.00166999
-0.00167079
-0.00187918
-0.00187874
-0.00187874
-0.00187918
-0.00204737
-0.00204672
-0.00204672
-0.00204737
-0.00219964
-0.00219855
-0.00219855
-0.00219964
-0.00234448
-0.00234416
-0.00234416
-0.00234448
-0.00247316
-0.00247336
-0.00247336
-0.00247316
-0.00259269
-0.00259301
-0.00259301
-0.00259269
-0.00272494
-0.00272517
-0.00272517
-0.00272494
-0.0028994
-0.00289956
-0.00289956
-0.0028994
-0.00312527
-0.00312527
-0.00312527
-0.00312527
-0.00339738
-0.00339743
-0.00339743
-0.00339738
-0.0036753
-0.00367542
-0.00367542
-0.0036753
-0.00395055
-0.00395134
-0.00395134
-0.00395055
0.00613141
0.00613368
0.00613368
0.00613141
0.0064293
0.00643178
0.00643178
0.0064293
0.00663988
0.00664083
0.00664083
0.00663988
0.00681426
0.00681828
0.00681828
0.00681426
0.0068568
0.00685969
0.00685969
0.0068568
0.00681103
0.00681571
0.00681571
0.00681103
0.00642621
0.00642205
0.00642205
0.00642621
0.00587482
0.00587872
0.00587872
0.00587482
0.0048728
0.0048676
0.0048676
0.0048728
0.00375429
0.00376011
0.00376011
0.00375429
0.00202677
0.00201354
0.00201354
0.00202677
0.000220627
0.000220028
0.000220028
0.000220627
-0.00179175
-0.00180647
-0.00180647
-0.00179175
-0.00351267
-0.00352231
-0.00352231
-0.00351267
-0.00466351
-0.00465836
-0.00465836
-0.00466351
-0.0052826
-0.00527334
-0.00527334
-0.0052826
-0.00560096
-0.00559615
-0.00559615
-0.00560096
-0.00571273
-0.00570954
-0.00570954
-0.00571273
-0.00564651
-0.00564007
-0.00564007
-0.00564651
-0.00543741
-0.00542874
-0.00542874
-0.00543741
-0.00515014
-0.00514225
-0.00514225
-0.00515014
-0.00484494
-0.00484027
-0.00484027
-0.00484494
-0.00454571
-0.00454346
-0.00454346
-0.00454571
-0.00426557
-0.00426494
-0.00426494
-0.00426557
-0.00400768
-0.00400789
-0.00400789
-0.00400768
-0.00377423
-0.00377479
-0.00377479
-0.00377423
-0.00356659
-0.00356669
-0.00356669
-0.00356659
-0.00338181
-0.00338185
-0.00338185
-0.00338181
-0.00321986
-0.00321936
-0.00321936
-0.00321986
-0.00307256
-0.00307237
-0.00307237
-0.00307256
-0.00292595
-0.0029274
-0.0029274
-0.00292595
-0.00277645
-0.00277874
-0.00277874
-0.00277645
-0.00260787
-0.00260906
-0.00260906
-0.00260787
-0.00241735
-0.0024179
-0.0024179
-0.00241735
-0.00220676
-0.00220602
-0.00220602
-0.00220676
-0.00197538
-0.00197319
-0.00197319
-0.00197538
-0.00171596
-0.00171334
-0.00171334
-0.00171596
-0.00145508
-0.00145374
-0.00145374
-0.00145508
0.00945553
0.00945464
0.00945464
0.00945553
0.0101076
0.0101069
0.0101069
0.0101076
0.010562
0.0105616
0.0105616
0.010562
0.0107966
0.010797
0.010797
0.0107966
0.0108162
0.0108171
0.0108171
0.0108162
0.0106398
0.0106402
0.0106402
0.0106398
0.0102729
0.0102722
0.0102722
0.0102729
0.0097461
0.00974525
0.00974525
0.0097461
0.00908557
0.00908596
0.00908596
0.00908557
0.00833679
0.00833817
0.00833817
0.00833679
0.00753479
0.0075365
0.0075365
0.00753479
0.00670196
0.00670356
0.00670356
0.00670196
0.00584596
0.00584738
0.00584738
0.00584596
0.0190286
0.0190449
0.0190449
0.0190286
0.0220917
0.0221155
0.0221155
0.0220917
0.0220618
0.0220782
0.0220782
0.0220618
0.0215666
0.0215754
0.0215754
0.0215666
0.0202469
0.0202466
0.0202466
0.0202469
0.0185902
0.018591
0.018591
0.0185902
0.0167898
0.0167893
0.0167893
0.0167898
0.0150461
0.0150471
0.0150471
0.0150461
0.0134345
0.0134364
0.0134364
0.0134345
0.0119686
0.0119718
0.0119718
0.0119686
0.010663
0.0106646
0.0106646
0.010663
0.00956564
0.00956698
0.00956698
0.00956564
0.00861678
0.00861571
0.00861571
0.00861678
0.0123049
0.0122989
0.0122989
0.0123049
0.000931686
0.000915259
0.000915259
0.000931686
-0.00651776
-0.00650808
-0.00650808
-0.00651776
-0.00438606
-0.00438575
-0.00438575
-0.00438606
-0.00411163
-0.00411266
-0.00411266
-0.00411163
-0.00431141
-0.00431088
-0.00431088
-0.00431141
-0.00449913
-0.00450015
-0.00450015
-0.00449913
-0.00459147
-0.0045917
-0.0045917
-0.00459147
-0.00461019
-0.00461047
-0.00461047
-0.00461019
-0.00457237
-0.00457231
-0.00457231
-0.00457237
-0.00453513
-0.00453546
-0.00453546
-0.00453513
-0.00447093
-0.00447098
-0.00447098
-0.00447093
-0.00442634
-0.00442733
-0.00442733
-0.00442634
-0.00433979
-0.00433943
-0.00433943
-0.00433979
-0.00430758
-0.00430855
-0.00430855
-0.00430758
-0.00422966
-0.00422829
-0.00422829
-0.00422966
-0.00430655
-0.00430789
-0.00430789
-0.00430655
-0.00421722
-0.00421425
-0.00421425
-0.00421722
0.00234269
0.00234723
0.00234723
0.00234269
0.00893563
0.00891172
0.00891172
0.00893563
0.0145035
0.0145103
0.0145103
0.0145035
0.0168761
0.0168932
0.0168932
0.0168761
0.0175328
0.0175488
0.0175488
0.0175328
0.0175109
0.0175198
0.0175198
0.0175109
0.0168037
0.0168054
0.0168054
0.0168037
0.0157029
0.0157034
0.0157034
0.0157029
0.0143782
0.0143776
0.0143776
0.0143782
0.0130123
0.0130128
0.0130128
0.0130123
0.0116882
0.0116892
0.0116892
0.0116882
0.0104727
0.0104744
0.0104744
0.0104727
0.00939388
0.00939495
0.00939495
0.00939388
0.00843957
0.00844095
0.00844095
0.00843957
0.00761303
0.00761233
0.00761233
0.00761303
0.00694263
0.00693998
0.00693998
0.00694263
0.00785788
0.0078551
0.0078551
0.00785788
0.00862841
0.00862618
0.00862618
0.00862841
0.00923687
0.00923488
0.00923488
0.00923687
0.00966304
0.00966227
0.00966227
0.00966304
0.00990085
0.00990074
0.00990074
0.00990085
0.00995025
0.0099507
0.0099507
0.00995025
0.0098256
0.00982607
0.00982607
0.0098256
0.00953875
0.00953889
0.00953889
0.00953875
0.0091049
0.00910493
0.00910493
0.0091049
0.00854756
0.00854747
0.00854747
0.00854756
0.00789559
0.00789531
0.00789531
0.00789559
0.0071696
0.00716938
0.00716938
0.0071696
0.00639858
0.00639811
0.00639811
0.00639858
0.00559636
0.00559574
0.00559574
0.00559636
0.00476757
0.00476728
0.00476728
0.00476757
0.00496899
0.00497098
0.00497098
0.00496899
0.00517276
0.0051747
0.0051747
0.00517276
0.00537109
0.00537336
0.00537336
0.00537109
0.00549083
0.00549183
0.00549183
0.00549083
0.00557797
0.00558192
0.00558192
0.00557797
0.00554831
0.00555036
0.00555036
0.00554831
0.00542793
0.005432
0.005432
0.00542793
0.00508631
0.00508454
0.00508454
0.00508631
0.00457524
0.00457791
0.00457791
0.00457524
0.00376706
0.00376451
0.00376451
0.00376706
0.00282586
0.00283022
0.00283022
0.00282586
0.00158729
0.00158134
0.00158134
0.00158729
0.000271547
0.00026634
0.00026634
0.000271547
-0.00113536
-0.00114637
-0.00114637
-0.00113536
-0.00241465
-0.00242485
-0.00242485
-0.00241465
-0.00337536
-0.00337684
-0.00337684
-0.00337536
-0.0039734
-0.00396708
-0.00396708
-0.0039734
-0.00428966
-0.00428373
-0.00428373
-0.00428966
-0.00445504
-0.00445141
-0.00445141
-0.00445504
-0.00447215
-0.00446735
-0.00446735
-0.00447215
-0.00437645
-0.00437044
-0.00437044
-0.00437645
-0.00420958
-0.00420354
-0.00420354
-0.00420958
-0.00400078
-0.00399666
-0.00399666
-0.00400078
-0.00377969
-0.00377761
-0.00377761
-0.00377969
-0.0035582
-0.00355772
-0.00355772
-0.0035582
-0.00335663
-0.00335747
-0.00335747
-0.00335663
-0.00317951
-0.00318028
-0.00318028
-0.00317951
-0.00300939
-0.00300875
-0.00300875
-0.00300939
-0.00285037
-0.00284927
-0.00284927
-0.00285037
-0.00270469
-0.00270381
-0.00270381
-0.00270469
-0.00256831
-0.00256838
-0.00256838
-0.00256831
-0.00243707
-0.00243838
-0.00243838
-0.00243707
-0.00230573
-0.00230772
-0.00230772
-0.00230573
-0.00216359
-0.00216475
-0.00216475
-0.00216359
-0.00200735
-0.00200765
-0.00200765
-0.00200735
-0.00183384
-0.00183354
-0.00183354
-0.00183383
-0.00164851
-0.00164729
-0.00164729
-0.00164851
-0.00144374
-0.00144174
-0.00144174
-0.00144374
-0.00123297
-0.00123141
-0.00123141
-0.00123297
-0.00102083
-0.00101953
-0.00101953
-0.00102083
-0.00119695
-0.00119611
-0.00119611
-0.00119695
-0.00137255
-0.00137213
-0.00137213
-0.00137255
-0.00153185
-0.00153124
-0.00153124
-0.00153185
-0.0016636
-0.00166327
-0.00166327
-0.0016636
-0.0017823
-0.00178239
-0.00178239
-0.0017823
-0.00189038
-0.00189025
-0.00189025
-0.00189038
-0.00200191
-0.00200187
-0.00200187
-0.00200191
-0.00212594
-0.0021261
-0.0021261
-0.00212594
-0.00227962
-0.00227986
-0.00227986
-0.00227962
-0.00248952
-0.00248978
-0.00248978
-0.00248952
-0.00276637
-0.00276671
-0.00276671
-0.00276637
-0.0030839
-0.00308429
-0.00308429
-0.0030839
-0.00339181
-0.00339244
-0.00339244
-0.00339181
-0.003648
-0.00364847
-0.00364847
-0.003648
-0.00378239
-0.00378265
-0.00378265
-0.00378239
-0.00376199
-0.00376266
-0.00376266
-0.00376199
-0.00411421
-0.00411567
-0.00411567
-0.00411421
-0.00434905
-0.00434833
-0.00434833
-0.00434905
-0.00454629
-0.00454729
-0.00454729
-0.00454629
-0.00463877
-0.00463912
-0.00463912
-0.00463877
-0.00465952
-0.00465976
-0.00465976
-0.00465952
-0.00462239
-0.00462178
-0.00462178
-0.00462239
-0.00457032
-0.00457043
-0.00457043
-0.00457032
-0.00448809
-0.00448726
-0.00448726
-0.00448809
-0.00441842
-0.0044184
-0.0044184
-0.00441842
-0.00433193
-0.00433071
-0.00433071
-0.00433193
-0.00428673
-0.00428761
-0.00428761
-0.00428673
-0.00421076
-0.00420967
-0.00420967
-0.00421076
-0.00431904
-0.00432294
-0.00432294
-0.00431904
-0.00434452
-0.00434379
-0.00434379
-0.00434452
-0.00480579
-0.00480863
-0.00480863
-0.00480579
-0.00485718
-0.00486556
-0.00486556
-0.00485718
-0.00443484
-0.004428
-0.004428
-0.00443484
-0.00502978
-0.00502436
-0.00502436
-0.00502978
-0.00664095
-0.00664657
-0.00664657
-0.00664095
-0.00693916
-0.00695742
-0.00695742
-0.00693916
-0.00599778
-0.00598554
-0.00598554
-0.00599778
0.00392112
0.00392115
0.00392115
0.00392112
0.00406874
0.00407131
0.00407131
0.00406874
0.00421278
0.00421496
0.00421496
0.00421278
0.00433797
0.00434
0.00434
0.00433797
0.00440395
0.00440465
0.00440465
0.00440395
0.00443034
0.00443318
0.00443318
0.00443034
0.0043665
0.00436805
0.00436805
0.0043665
0.00421877
0.00422228
0.00422228
0.00421877
0.00392615
0.00392655
0.00392655
0.00392615
0.00349578
0.00349747
0.00349747
0.00349578
0.00287263
0.00287108
0.00287108
0.00287263
0.00212585
0.00212686
0.00212686
0.00212585
0.00123674
0.00123325
0.00123325
0.00123674
0.000262472
0.000255735
0.000255735
0.000262472
-0.000742141
-0.000751261
-0.000751261
-0.000742141
-0.00166998
-0.00167844
-0.00167844
-0.00166998
-0.00241364
-0.00241681
-0.00241681
-0.00241364
-0.00292758
-0.00292414
-0.00292414
-0.00292758
-0.0032335
-0.00322767
-0.00322767
-0.0032335
-0.00339769
-0.00339298
-0.00339298
-0.00339769
-0.00344835
-0.00344407
-0.00344407
-0.00344835
-0.00341374
-0.00340944
-0.00340944
-0.00341374
-0.00331559
-0.00331135
-0.00331135
-0.00331559
-0.00318061
-0.00317742
-0.00317742
-0.00318061
-0.00302747
-0.00302564
-0.00302564
-0.00302747
-0.00286548
-0.00286491
-0.00286491
-0.00286548
-0.00271268
-0.00271303
-0.00271303
-0.00271268
-0.0025725
-0.00257249
-0.00257249
-0.0025725
-0.00243773
-0.00243686
-0.00243686
-0.00243773
-0.00230962
-0.00230851
-0.00230851
-0.00230962
-0.00218628
-0.00218558
-0.00218558
-0.00218628
-0.00207192
-0.00207233
-0.00207233
-0.00207192
-0.00196302
-0.0019642
-0.0019642
-0.00196302
-0.00185429
-0.0018557
-0.0018557
-0.00185429
-0.00173795
-0.00173869
-0.00173869
-0.00173795
-0.00160949
-0.00160966
-0.00160966
-0.00160949
-0.00147331
-0.00147314
-0.00147314
-0.00147331
-0.0013257
-0.00132508
-0.00132508
-0.0013257
-0.00116966
-0.00116846
-0.00116846
-0.00116966
-0.00100525
-0.00100389
-0.00100389
-0.00100525
-0.000834494
-0.000833164
-0.000833164
-0.000834494
-0.000670341
-0.000669573
-0.000669573
-0.000670341
-0.000816302
-0.000815809
-0.000815809
-0.000816302
-0.00095578
-0.000955727
-0.000955727
-0.00095578
-0.00108815
-0.00108818
-0.00108818
-0.00108815
-0.00120131
-0.0012014
-0.0012014
-0.00120131
-0.00129071
-0.00129068
-0.00129068
-0.00129071
-0.00136749
-0.00136735
-0.00136735
-0.00136749
-0.0014417
-0.00144145
-0.00144145
-0.0014417
-0.00153091
-0.00153071
-0.00153071
-0.00153091
-0.00164626
-0.00164614
-0.00164614
-0.00164626
-0.00180989
-0.00180993
-0.00180993
-0.00180989
-0.00204439
-0.00204468
-0.00204468
-0.00204439
-0.00235323
-0.00235389
-0.00235389
-0.00235323
-0.00269696
-0.00269752
-0.00269752
-0.00269696
-0.00300719
-0.00300732
-0.00300732
-0.00300719
-0.00323292
-0.00323297
-0.00323297
-0.00323292
-0.00334501
-0.00334539
-0.00334539
-0.00334501
-0.00329246
-0.00329296
-0.00329296
-0.00329246
-0.00918759
-0.00919915
-0.00919915
-0.00918759
-0.010988
-0.0109877
-0.0109877
-0.010988
-0.0129618
-0.0129666
-0.0129666
-0.0129618
-0.0127739
-0.0127778
-0.0127778
-0.0127739
-0.00893381
-0.00893442
-0.00893442
-0.00893381
-0.00324634
-0.00325562
-0.00325562
-0.00324634
0.002334
0.00233041
0.00233041
0.002334
0.0068207
0.00682124
0.00682124
0.0068207
0.0104776
0.0104783
0.0104783
0.0104776
0.0126347
0.0126479
0.0126479
0.0126347
0.0135304
0.0135428
0.0135428
0.0135304
0.0137906
0.0138004
0.0138004
0.0137906
0.0134536
0.0134572
0.0134572
0.0134536
0.012743
0.0127451
0.0127451
0.012743
0.0118031
0.0118031
0.0118031
0.0118031
0.0107909
0.0107906
0.0107906
0.0107909
0.00977353
0.00977266
0.00977266
0.00977353
0.00881342
0.00881349
0.00881349
0.00881342
0.00792551
0.00792661
0.00792661
0.00792551
0.00714358
0.00714516
0.00714516
0.00714358
0.00645464
0.00645421
0.00645421
0.00645464
0.00589752
0.00589529
0.00589529
0.00589752
0.00543463
0.0054319
0.0054319
0.00543463
0.00639759
0.00639427
0.00639427
0.00639759
0.00725183
0.00724834
0.00724834
0.00725183
0.00797001
0.007967
0.007967
0.00797001
0.00853641
0.00853433
0.00853433
0.00853641
0.00894013
0.00893899
0.00893899
0.00894013
0.00917872
0.00917818
0.00917818