/*--------------------------------*- C++ -*----------------------------------*\
| =========                 |                                                 |
| \\      /  F ield         | OpenFOAM: The Open Source CFD Toolbox           |
|  \\    /   O peration     | Version:  v1806                                 |
|   \\  /    A nd           | Web:      www.OpenFOAM.com                      |
|    \\/     M anipulation  |                                                 |
\*---------------------------------------------------------------------------*/
FoamFile
{
    version     2.0;
    format      ascii;
    class       volVectorField;
    location    "140";
    object      U;
}
// * * * * * * * * * * * * * * * * * * * * * * * * * * * * * * * * * * * * * //

dimensions      [0 1 -1 0 0 0 0];


internalField   nonuniform List<vector> 
4400
(
(0.21792 0.241982 0)
(0.280894 0.190817 0)
(0.301697 0.151016 0)
(0.310954 0.119417 0)
(0.316876 0.0964904 0)
(0.320173 0.080935 0)
(0.321234 0.0702102 0)
(0.320921 0.062454 0)
(0.31991 0.0566406 0)
(0.318557 0.0521619 0)
(0.31703 0.0486273 0)
(0.315407 0.0457819 0)
(0.313733 0.0434591 0)
(0.312034 0.0415479 0)
(0.310326 0.0399734 0)
(0.308619 0.0386844 0)
(0.306917 0.0376459 0)
(0.305224 0.0368363 0)
(0.303572 0.0362292 0)
(0.30217 0.0357462 0)
(0.239798 0.136671 0)
(0.271246 0.105811 0)
(0.290233 0.0909038 0)
(0.303989 0.0825789 0)
(0.311386 0.0754926 0)
(0.314732 0.06889 0)
(0.316134 0.0629778 0)
(0.316511 0.0578871 0)
(0.316235 0.0535886 0)
(0.315516 0.0499791 0)
(0.314501 0.046945 0)
(0.313292 0.044389 0)
(0.311961 0.0422347 0)
(0.310553 0.0404243 0)
(0.309099 0.0389132 0)
(0.307617 0.0376677 0)
(0.306118 0.0366625 0)
(0.304614 0.0358803 0)
(0.303137 0.0352948 0)
(0.301876 0.0348483 0)
(0.22101 0.100085 0)
(0.254065 0.10262 0)
(0.277591 0.0984524 0)
(0.2922 0.0892744 0)
(0.301215 0.0788642 0)
(0.306872 0.0698284 0)
(0.310214 0.0626269 0)
(0.311929 0.056922 0)
(0.312565 0.052344 0)
(0.312509 0.0486219 0)
(0.312007 0.0455621 0)
(0.311212 0.0430252 0)
(0.310224 0.040911 0)
(0.309106 0.039148 0)
(0.307903 0.0376844 0)
(0.306643 0.036483 0)
(0.305346 0.0355174 0)
(0.304028 0.0347697 0)
(0.302724 0.0342155 0)
(0.3016 0.0338038 0)
(0.240617 0.0687959 0)
(0.262685 0.0720916 0)
(0.278114 0.0700743 0)
(0.289653 0.0667374 0)
(0.297801 0.063165 0)
(0.303152 0.0594276 0)
(0.306513 0.0556597 0)
(0.308509 0.0520623 0)
(0.309549 0.0487747 0)
(0.309908 0.0458536 0)
(0.309784 0.043301 0)
(0.30932 0.0410931 0)
(0.308619 0.0391986 0)
(0.307755 0.037587 0)
(0.306779 0.0362315 0)
(0.305725 0.0351099 0)
(0.304618 0.034205 0)
(0.303478 0.0335042 0)
(0.302339 0.0329873 0)
(0.301353 0.0326139 0)
(0.244758 0.0518799 0)
(0.260356 0.0601529 0)
(0.274444 0.0634203 0)
(0.285511 0.0628955 0)
(0.293552 0.0600633 0)
(0.299192 0.0563488 0)
(0.303013 0.0526123 0)
(0.305463 0.0491812 0)
(0.306899 0.0461295 0)
(0.307604 0.0434509 0)
(0.307786 0.0411176 0)
(0.307597 0.039097 0)
(0.307144 0.0373581 0)
(0.306505 0.0358736 0)
(0.305734 0.0346211 0)
(0.304869 0.0335825 0)
(0.303939 0.0327439 0)
(0.302967 0.0320954 0)
(0.301985 0.0316201 0)
(0.301129 0.0312848 0)
(0.256789 0.0395531 0)
(0.268 0.0465279 0)
(0.277885 0.049756 0)
(0.286078 0.0505016 0)
(0.292566 0.049876 0)
(0.297433 0.0484519 0)
(0.300917 0.04657 0)
(0.303299 0.0444819 0)
(0.304827 0.0423668 0)
(0.3057 0.0403389 0)
(0.306079 0.0384622 0)
(0.306091 0.0367677 0)
(0.305834 0.035266 0)
(0.30538 0.0339575 0)
(0.304785 0.0328376 0)
(0.304088 0.0319002 0)
(0.303318 0.0311392 0)
(0.3025 0.0305497 0)
(0.301665 0.0301193 0)
(0.300932 0.0298226 0)
(0.263227 0.0311451 0)
(0.270883 0.0382452 0)
(0.278695 0.0425977 0)
(0.285696 0.0445941 0)
(0.291453 0.0448533 0)
(0.295921 0.0440042 0)
(0.299235 0.0425636 0)
(0.301586 0.0408738 0)
(0.303162 0.0391285 0)
(0.304133 0.0374315 0)
(0.304639 0.0358391 0)
(0.304794 0.0343816 0)
(0.304686 0.033074 0)
(0.304383 0.0319226 0)
(0.303936 0.0309289 0)
(0.303385 0.0300919 0)
(0.302758 0.0294098 0)
(0.302079 0.0288809 0)
(0.301378 0.0284964 0)
(0.300759 0.028237 0)
(0.27081 0.0250957 0)
(0.276432 0.0309677 0)
(0.282142 0.0349054 0)
(0.287366 0.0371133 0)
(0.291855 0.0380494 0)
(0.295513 0.0380974 0)
(0.298351 0.0375426 0)
(0.300454 0.0366076 0)
(0.301932 0.035464 0)
(0.302901 0.0342349 0)
(0.303461 0.0330044 0)
(0.303704 0.0318273 0)
(0.303702 0.0307381 0)
(0.303516 0.0297579 0)
(0.303191 0.0288985 0)
(0.302763 0.0281668 0)
(0.302261 0.0275666 0)
(0.301705 0.0270998 0)
(0.301126 0.0267613 0)
(0.300609 0.0265377 0)
(0.276046 0.020379 0)
(0.280002 0.0256916 0)
(0.284317 0.0295592 0)
(0.288495 0.0320293 0)
(0.292213 0.0333334 0)
(0.295322 0.0337514 0)
(0.297795 0.0335515 0)
(0.299672 0.0329558 0)
(0.301029 0.0321296 0)
(0.301951 0.0311885 0)
(0.30252 0.0302114 0)
(0.302807 0.0292515 0)
(0.302876 0.0283451 0)
(0.302775 0.0275162 0)
(0.302547 0.0267806 0)
(0.302222 0.0261486 0)
(0.301825 0.0256271 0)
(0.301378 0.0252204 0)
(0.300906 0.0249265 0)
(0.300482 0.0247361 0)
(0.281105 0.0168726 0)
(0.284016 0.0212893 0)
(0.287203 0.0246866 0)
(0.290328 0.027036 0)
(0.293179 0.0284835 0)
(0.295637 0.0292131 0)
(0.297655 0.0293972 0)
(0.299236 0.0291878 0)
(0.300416 0.0287133 0)
(0.301247 0.0280769 0)
(0.301784 0.0273573 0)
(0.302084 0.0266124 0)
(0.302193 0.0258841 0)
(0.302153 0.0252015 0)
(0.301998 0.0245852 0)
(0.301757 0.0240493 0)
(0.30145 0.0236036 0)
(0.301096 0.0232548 0)
(0.300718 0.0230032 0)
(0.300374 0.0228433 0)
(0.284971 0.0139266 0)
(0.287061 0.0177812 0)
(0.289425 0.0208482 0)
(0.291825 0.0230912 0)
(0.294072 0.0245826 0)
(0.296048 0.0254418 0)
(0.2977 0.0258027 0)
(0.299018 0.0257941 0)
(0.300021 0.0255274 0)
(0.300743 0.0250926 0)
(0.301227 0.0245602 0)
(0.301513 0.0239835 0)
(0.30164 0.0234024 0)
(0.301639 0.022846 0)
(0.301539 0.0223358 0)
(0.301363 0.0218871 0)
(0.30113 0.0215113 0)
(0.300856 0.021216 0)
(0.300558 0.0210035 0)
(0.300285 0.0208711 0)
(0.288445 0.01162 0)
(0.289962 0.0148302 0)
(0.291689 0.0174721 0)
(0.293457 0.0194883 0)
(0.295137 0.0209151 0)
(0.296645 0.0218297 0)
(0.297932 0.0223223 0)
(0.298981 0.0224842 0)
(0.299797 0.0224 0)
(0.3004 0.0221438 0)
(0.300815 0.0217772 0)
(0.301072 0.0213497 0)
(0.301199 0.0208998 0)
(0.301221 0.0204567 0)
(0.30116 0.0200424 0)
(0.301036 0.0196733 0)
(0.300862 0.0193614 0)
(0.300654 0.0191152 0)
(0.300425 0.0189384 0)
(0.300212 0.0188304 0)
(0.29121 0.00959595 0)
(0.292289 0.012332 0)
(0.293535 0.0146218 0)
(0.294837 0.0164206 0)
(0.296096 0.0177444 0)
(0.297242 0.0186414 0)
(0.298233 0.0191766 0)
(0.299051 0.019421 0)
(0.299697 0.0194431 0)
(0.300181 0.0193044 0)
(0.300521 0.0190571 0)
(0.300739 0.0187442 0)
(0.300854 0.0184002 0)
(0.300886 0.0180519 0)
(0.300852 0.0177202 0)
(0.300767 0.0174208 0)
(0.300641 0.0171657 0)
(0.300487 0.0169635 0)
(0.300315 0.0168185 0)
(0.300154 0.0167317 0)
(0.293591 0.00791896 0)
(0.294344 0.0101691 0)
(0.295219 0.0120923 0)
(0.296138 0.0136409 0)
(0.297036 0.0148181 0)
(0.297863 0.0156539 0)
(0.298588 0.0161924 0)
(0.299196 0.0164845 0)
(0.299682 0.0165815 0)
(0.300053 0.0165322 0)
(0.300318 0.0163795 0)
(0.300493 0.0161602 0)
(0.30059 0.0159046 0)
(0.300623 0.015637 0)
(0.300606 0.0153767 0)
(0.300549 0.0151384 0)
(0.300461 0.0149335 0)
(0.300351 0.0147702 0)
(0.300226 0.0146534 0)
(0.300107 0.014585 0)
(0.29549 0.00640068 0)
(0.295998 0.00825364 0)
(0.296592 0.00985173 0)
(0.297223 0.0111595 0)
(0.297846 0.0121757 0)
(0.298426 0.0129186 0)
(0.298938 0.013419 0)
(0.299371 0.0137144 0)
(0.299721 0.0138447 0)
(0.29999 0.0138482 0)
(0.300185 0.0137596 0)
(0.300316 0.0136094 0)
(0.300391 0.013423 0)
(0.300421 0.0132211 0)
(0.300413 0.0130206 0)
(0.300377 0.0128346 0)
(0.300318 0.0126732 0)
(0.300242 0.0125441 0)
(0.300155 0.0124519 0)
(0.300072 0.012399 0)
(0.297051 0.00507169 0)
(0.297373 0.00653361 0)
(0.297753 0.00781149 0)
(0.298157 0.00887253 0)
(0.298558 0.00971193 0)
(0.298934 0.0103405 0)
(0.299269 0.0107788 0)
(0.299554 0.0110535 0)
(0.299787 0.0111936 0)
(0.299968 0.0112283 0)
(0.300101 0.0111845 0)
(0.300191 0.0110864 0)
(0.300245 0.0109547 0)
(0.300267 0.0108068 0)
(0.300265 0.0106566 0)
(0.300243 0.0105153 0)
(0.300205 0.0103918 0)
(0.300157 0.0102924 0)
(0.3001 0.0102216 0)
(0.300045 0.0101819 0)
(0.298244 0.00383154 0)
(0.298432 0.00494919 0)
(0.298653 0.00593086 0)
(0.298891 0.00675285 0)
(0.299127 0.00741083 0)
(0.29935 0.00791123 0)
(0.29955 0.00826784 0)
(0.299721 0.00849932 0)
(0.299861 0.00862673 0)
(0.299971 0.00867144 0)
(0.300052 0.00865374 0)
(0.300107 0.00859195 0)
(0.30014 0.008502 0)
(0.300155 0.00839735 0)
(0.300155 0.00828904 0)
(0.300142 0.00818593 0)
(0.300121 0.00809504 0)
(0.300092 0.00802165 0)
(0.300059 0.00796952 0)
(0.300025 0.00794098 0)
(0.299131 0.00268892 0)
(0.299222 0.00347025 0)
(0.29933 0.0041621 0)
(0.299447 0.00474568 0)
(0.299563 0.00521704 0)
(0.299673 0.00557974 0)
(0.299772 0.00584242 0)
(0.299857 0.00601722 0)
(0.299927 0.00611815 0)
(0.299982 0.00615972 0)
(0.300023 0.00615593 0)
(0.300051 0.0061196 0)
(0.300068 0.00606204 0)
(0.300076 0.00599286 0)
(0.300076 0.00592002 0)
(0.30007 0.00584997 0)
(0.30006 0.00578781 0)
(0.300046 0.00573744 0)
(0.300029 0.00570177 0)
(0.300012 0.00568268 0)
(0.299702 0.00158909 0)
(0.299732 0.00205656 0)
(0.299768 0.00246982 0)
(0.299808 0.00281922 0)
(0.299848 0.00310279 0)
(0.299887 0.00332236 0)
(0.299921 0.00348274 0)
(0.29995 0.00359084 0)
(0.299974 0.00365478 0)
(0.299993 0.00368303 0)
(0.300008 0.00368385 0)
(0.300017 0.00366483 0)
(0.300023 0.00363269 0)
(0.300026 0.00359322 0)
(0.300026 0.0035512 0)
(0.300024 0.0035105 0)
(0.30002 0.00347423 0)
(0.300016 0.00344478 0)
(0.30001 0.00342397 0)
(0.300004 0.00341305 0)
(0.299986 0.000534293 0)
(0.299987 0.000683572 0)
(0.299989 0.00081963 0)
(0.299991 0.000935533 0)
(0.299993 0.00102994 0)
(0.299994 0.0011033 0)
(0.299996 0.00115712 0)
(0.299998 0.00119363 0)
(0.299999 0.00121546 0)
(0.3 0.00122539 0)
(0.3 0.00122614 0)
(0.300001 0.00122022 0)
(0.300001 0.00120986 0)
(0.300001 0.00119699 0)
(0.300001 0.00118322 0)
(0.300001 0.00116984 0)
(0.300001 0.00115789 0)
(0.300001 0.00114818 0)
(0.300001 0.00114133 0)
(0.3 0.00113777 0)
(0.100326 -0.168513 0)
(0.0797536 -0.143578 0)
(0.06728 -0.120418 0)
(0.0585099 -0.099727 0)
(0.0519103 -0.0809269 0)
(0.0468406 -0.0635424 0)
(0.0429784 -0.0472502 0)
(0.0401362 -0.0317844 0)
(0.0381968 -0.0169071 0)
(0.0370875 -0.00240038 0)
(0.0367689 0.0119405 0)
(0.0372309 0.0263139 0)
(0.0384924 0.0409196 0)
(0.0406054 0.0559658 0)
(0.0436656 0.0716759 0)
(0.0478372 0.0882974 0)
(0.0534144 0.106138 0)
(0.0609869 0.125679 0)
(0.0719266 0.147496 0)
(0.0900227 0.17064 0)
(0.174324 -0.103559 0)
(0.160037 -0.0942711 0)
(0.147584 -0.0836081 0)
(0.137131 -0.0722132 0)
(0.128562 -0.060352 0)
(0.121699 -0.0481609 0)
(0.11637 -0.035736 0)
(0.112425 -0.0231478 0)
(0.109752 -0.0104455 0)
(0.108272 0.00233624 0)
(0.107941 0.0151712 0)
(0.108748 0.0280374 0)
(0.110715 0.040913 0)
(0.113901 0.0537726 0)
(0.118409 0.0665799 0)
(0.124401 0.0792755 0)
(0.132111 0.0917779 0)
(0.1419 0.104069 0)
(0.154331 0.116216 0)
(0.170292 0.12689 0)
(0.191454 -0.066483 0)
(0.186251 -0.0610044 0)
(0.181561 -0.054623 0)
(0.177387 -0.0474942 0)
(0.17375 -0.0397711 0)
(0.170676 -0.0315831 0)
(0.168193 -0.0230372 0)
(0.166324 -0.0142232 0)
(0.165087 -0.00521757 0)
(0.164496 0.00391334 0)
(0.164561 0.0131093 0)
(0.16529 0.0223132 0)
(0.166686 0.0314679 0)
(0.168755 0.0405125 0)
(0.171496 0.0493787 0)
(0.174911 0.0579842 0)
(0.179001 0.0662326 0)
(0.183776 0.0740259 0)
(0.189297 0.0812344 0)
(0.195732 0.0873682 0)
(0.219461 -0.0407986 0)
(0.215678 -0.0366646 0)
(0.212159 -0.0321979 0)
(0.208979 -0.0274286 0)
(0.206193 -0.0223899 0)
(0.203841 -0.0171171 0)
(0.201948 -0.0116475 0)
(0.200532 -0.00602016 0)
(0.199607 -0.000275218 0)
(0.199181 0.00554629 0)
(0.199259 0.0114027 0)
(0.199846 0.0172517 0)
(0.200943 0.0230507 0)
(0.202553 0.0287562 0)
(0.204674 0.0343237 0)
(0.207308 0.0397074 0)
(0.210452 0.0448632 0)
(0.214106 0.0497586 0)
(0.21828 0.0543552 0)
(0.222994 0.0584443 0)
(0.232644 -0.0290704 0)
(0.230774 -0.0259889 0)
(0.229079 -0.0226764 0)
(0.227574 -0.0191514 0)
(0.226274 -0.0154368 0)
(0.225193 -0.0115587 0)
(0.224345 -0.00754488 0)
(0.22374 -0.00342408 0)
(0.223388 0.000774246 0)
(0.223296 0.00502028 0)
(0.223468 0.00928393 0)
(0.223906 0.0135349 0)
(0.224608 0.0177425 0)
(0.225572 0.0218757 0)
(0.22679 0.0259029 0)
(0.228252 0.0297919 0)
(0.229949 0.0335102 0)
(0.231866 0.0370271 0)
(0.233994 0.0403102 0)
(0.236326 0.0432946 0)
(0.248037 -0.0199904 0)
(0.2467 -0.0175363 0)
(0.245474 -0.0149757 0)
(0.244377 -0.0123179 0)
(0.243424 -0.00957322 0)
(0.242629 -0.00675315 0)
(0.242003 -0.00387027 0)
(0.241555 -0.000938143 0)
(0.241292 0.00202886 0)
(0.241219 0.00501569 0)
(0.241339 0.00800685 0)
(0.241653 0.0109866 0)
(0.242161 0.013939 0)
(0.242858 0.0168483 0)
(0.243742 0.0196992 0)
(0.244806 0.0224766 0)
(0.246042 0.0251666 0)
(0.247441 0.0277598 0)
(0.248992 0.0302468 0)
(0.250686 0.032581 0)
(0.257144 -0.0149693 0)
(0.256368 -0.0130545 0)
(0.255676 -0.0110648 0)
(0.255073 -0.00900629 0)
(0.254564 -0.00688651 0)
(0.254153 -0.00471382 0)
(0.253845 -0.00249741 0)
(0.253642 -0.000247157 0)
(0.253547 0.00202655 0)
(0.253562 0.00431294 0)
(0.253688 0.00660098 0)
(0.253925 0.00887947 0)
(0.254271 0.0111372 0)
(0.254725 0.0133631 0)
(0.255285 0.015546 0)
(0.255946 0.0176754 0)
(0.256705 0.0197408 0)
(0.257557 0.0217332 0)
(0.258497 0.0236443 0)
(0.259524 0.0254609 0)
(0.266452 -0.0111301 0)
(0.2659 -0.00956858 0)
(0.265404 -0.00796673 0)
(0.264969 -0.00632877 0)
(0.2646 -0.00465924 0)
(0.2643 -0.00296301 0)
(0.264074 -0.00124525 0)
(0.263923 0.000488615 0)
(0.263851 0.00223295 0)
(0.263858 0.00398194 0)
(0.263945 0.00572968 0)
(0.264114 0.00747023 0)
(0.264362 0.00919764 0)
(0.264688 0.0109061 0)
(0.265092 0.0125898 0)
(0.26557 0.0142433 0)
(0.266118 0.0158614 0)
(0.266735 0.0174406 0)
(0.267414 0.0189772 0)
(0.268153 0.0204551 0)
(0.272743 -0.00865259 0)
(0.272389 -0.00739584 0)
(0.272078 -0.00611043 0)
(0.271812 -0.00479927 0)
(0.271591 -0.00346555 0)
(0.271418 -0.00211277 0)
(0.271295 -0.000744653 0)
(0.271221 0.000634856 0)
(0.271197 0.00202165 0)
(0.271225 0.00341151 0)
(0.271305 0.00480012 0)
(0.271435 0.00618314 0)
(0.271616 0.00755623 0)
(0.271848 0.00891512 0)
(0.272128 0.0102556 0)
(0.272457 0.0115736 0)
(0.272831 0.0128652 0)
(0.273251 0.0141272 0)
(0.273714 0.0153566 0)
(0.27422 0.0165485 0)
(0.278737 -0.00675458 0)
(0.278486 -0.00571373 0)
(0.278264 -0.00465549 0)
(0.278074 -0.00358194 0)
(0.277915 -0.00249527 0)
(0.277791 -0.00139778 0)
(0.277701 -0.00029185 0)
(0.277647 0.00082006 0)
(0.277629 0.00193543 0)
(0.277648 0.00305171 0)
(0.277705 0.00416631 0)
(0.277798 0.00527665 0)
(0.277928 0.00638015 0)
(0.278094 0.00747429 0)
(0.278296 0.00855655 0)
(0.278533 0.00962448 0)
(0.278802 0.0106758 0)
(0.279104 0.0117088 0)
(0.279437 0.0127219 0)
(0.279799 0.0137081 0)
(0.283139 -0.00538465 0)
(0.282969 -0.00453162 0)
(0.282822 -0.0036661 0)
(0.282697 -0.00278958 0)
(0.282596 -0.00190361 0)
(0.282519 -0.00100988 0)
(0.282466 -0.000110098 0)
(0.282439 0.000793916 0)
(0.282436 0.00170031 0)
(0.282458 0.0026072 0)
(0.282506 0.00351267 0)
(0.282579 0.0044148 0)
(0.282677 0.00531168 0)
(0.282799 0.00620141 0)
(0.282946 0.00708216 0)
(0.283117 0.00795208 0)
(0.283311 0.00880944 0)
(0.283528 0.00965276 0)
(0.283768 0.0104809 0)
(0.284028 0.0112912 0)
(0.287147 -0.00431006 0)
(0.287028 -0.00360028 0)
(0.286924 -0.00288223 0)
(0.286836 -0.002157 0)
(0.286765 -0.00142574 0)
(0.28671 -0.000689602 0)
(0.286673 5.01942e-05 0)
(0.286653 0.00079242 0)
(0.286651 0.00153582 0)
(0.286666 0.00227914 0)
(0.2867 0.00302111 0)
(0.286752 0.00376044 0)
(0.286821 0.00449588 0)
(0.286908 0.00522619 0)
(0.287013 0.00595011 0)
(0.287134 0.00666643 0)
(0.287272 0.00737398 0)
(0.287426 0.00807189 0)
(0.287595 0.00875939 0)
(0.287779 0.0094331 0)
(0.290226 -0.0034691 0)
(0.290145 -0.00288599 0)
(0.290075 -0.00229687 0)
(0.290017 -0.00170255 0)
(0.28997 -0.00110386 0)
(0.289935 -0.000501671 0)
(0.289912 0.000103136 0)
(0.289902 0.000709641 0)
(0.289904 0.00131691 0)
(0.289919 0.00192401 0)
(0.289946 0.00252999 0)
(0.289985 0.00313389 0)
(0.290037 0.00373477 0)
(0.290101 0.00433168 0)
(0.290177 0.00492372 0)
(0.290264 0.00550996 0)
(0.290364 0.00608952 0)
(0.290475 0.00666166 0)
(0.290596 0.00722582 0)
(0.290729 0.00778058 0)
(0.292923 -0.00278282 0)
(0.292868 -0.002303 0)
(0.29282 -0.00181898 0)
(0.292781 -0.00133137 0)
(0.292749 -0.000840789 0)
(0.292725 -0.000347867 0)
(0.292709 0.000146745 0)
(0.292702 0.00064239 0)
(0.292703 0.0011384 0)
(0.292713 0.00163411 0)
(0.292731 0.00212884 0)
(0.292758 0.00262192 0)
(0.292793 0.00311268 0)
(0.292837 0.00360046 0)
(0.292888 0.00408459 0)
(0.292948 0.00456443 0)
(0.293016 0.00503933 0)
(0.293091 0.00550883 0)
(0.293174 0.00597255 0)
(0.293265 0.00642875 0)
(0.295016 -0.00221033 0)
(0.29498 -0.00182389 0)
(0.294949 -0.00143441 0)
(0.294924 -0.00104231 0)
(0.294903 -0.000648069 0)
(0.294889 -0.000252148 0)
(0.29488 0.000144973 0)
(0.294876 0.000542805 0)
(0.294878 0.000940852 0)
(0.294886 0.00133862 0)
(0.294899 0.0017356 0)
(0.294918 0.00213129 0)
(0.294943 0.0025252 0)
(0.294973 0.00291684 0)
(0.295009 0.0033057 0)
(0.29505 0.00369131 0)
(0.295097 0.00407318 0)
(0.295148 0.00445094 0)
(0.295205 0.00482433 0)
(0.295267 0.00519249 0)
(0.296761 -0.00171952 0)
(0.296739 -0.00141396 0)
(0.296719 -0.00110625 0)
(0.296703 -0.000796704 0)
(0.296691 -0.000485668 0)
(0.296681 -0.000173485 0)
(0.296676 0.000139495 0)
(0.296673 0.000452919 0)
(0.296674 0.000766429 0)
(0.296679 0.00107966 0)
(0.296687 0.00139227 0)
(0.296699 0.00170387 0)
(0.296714 0.00201413 0)
(0.296732 0.00232267 0)
(0.296754 0.00262916 0)
(0.29678 0.00293322 0)
(0.296808 0.00323451 0)
(0.29684 0.00353281 0)
(0.296875 0.00382795 0)
(0.296913 0.00411894 0)
(0.298067 -0.00128596 0)
(0.298054 -0.00105561 0)
(0.298043 -0.000823734 0)
(0.298034 -0.00059058 0)
(0.298027 -0.000356384 0)
(0.298022 -0.000121391 0)
(0.298019 0.00011415 0)
(0.298018 0.000349986 0)
(0.298019 0.000585863 0)
(0.298022 0.000821525 0)
(0.298027 0.00105671 0)
(0.298034 0.00129118 0)
(0.298043 0.00152465 0)
(0.298055 0.00175689 0)
(0.298068 0.00198764 0)
(0.298083 0.00221664 0)
(0.2981 0.00244365 0)
(0.298118 0.00266848 0)
(0.298139 0.00289108 0)
(0.298162 0.00311082 0)
(0.299051 -0.000893328 0)
(0.299045 -0.000731769 0)
(0.29904 -0.000569211 0)
(0.299035 -0.000405814 0)
(0.299032 -0.000241741 0)
(0.299029 -7.71576e-05 0)
(0.299028 8.77698e-05 0)
(0.299027 0.000252872 0)
(0.299028 0.000417977 0)
(0.299029 0.000582916 0)
(0.299031 0.000747516 0)
(0.299035 0.000911606 0)
(0.299039 0.00107502 0)
(0.299044 0.00123758 0)
(0.29905 0.00139912 0)
(0.299057 0.00155946 0)
(0.299065 0.00171844 0)
(0.299073 0.00187595 0)
(0.299083 0.00203195 0)
(0.299093 0.00218583 0)
(0.299684 -0.000526367 0)
(0.299682 -0.000430977 0)
(0.29968 -0.000335019 0)
(0.299678 -0.000238583 0)
(0.299677 -0.000141765 0)
(0.299677 -4.4659e-05 0)
(0.299676 5.26369e-05 0)
(0.299676 0.000150025 0)
(0.299676 0.000247406 0)
(0.299676 0.00034468 0)
(0.299677 0.000441748 0)
(0.299678 0.00053851 0)
(0.299679 0.000634869 0)
(0.299681 0.000730725 0)
(0.299683 0.000825982 0)
(0.299685 0.000920539 0)
(0.299687 0.00101429 0)
(0.299689 0.00110717 0)
(0.299691 0.00119923 0)
(0.299694 0.00129031 0)
(0.299991 -0.000174611 0)
(0.299991 -0.000142737 0)
(0.299991 -0.00011067 0)
(0.299991 -7.84421e-05 0)
(0.299991 -4.60808e-05 0)
(0.299991 -1.36159e-05 0)
(0.29999 1.89233e-05 0)
(0.29999 5.15074e-05 0)
(0.29999 8.41073e-05 0)
(0.29999 0.000116694 0)
(0.29999 0.000149241 0)
(0.29999 0.000181721 0)
(0.29999 0.000214109 0)
(0.29999 0.000246381 0)
(0.29999 0.000278518 0)
(0.299989 0.000310494 0)
(0.299989 0.000342299 0)
(0.299989 0.000373993 0)
(0.299989 0.000405698 0)
(0.299988 0.000436897 0)
(0.293417 -0.10005 0)
(0.292255 -0.103864 0)
(0.291267 -0.108182 0)
(0.290543 -0.113143 0)
(0.290168 -0.118825 0)
(0.290195 -0.12527 0)
(0.290613 -0.132485 0)
(0.291319 -0.140432 0)
(0.292092 -0.149008 0)
(0.292576 -0.158042 0)
(0.292283 -0.167289 0)
(0.290607 -0.176429 0)
(0.286859 -0.185085 0)
(0.280308 -0.192824 0)
(0.270217 -0.199164 0)
(0.255884 -0.203599 0)
(0.236665 -0.205729 0)
(0.211986 -0.205378 0)
(0.18133 -0.201931 0)
(0.144187 -0.191919 0)
(0.286298 -0.0735494 0)
(0.283951 -0.0743536 0)
(0.281209 -0.0752209 0)
(0.27809 -0.0761194 0)
(0.274619 -0.0771142 0)
(0.27084 -0.0782866 0)
(0.266827 -0.0797239 0)
(0.262674 -0.0815165 0)
(0.258492 -0.0837488 0)
(0.254384 -0.0864846 0)
(0.250422 -0.0897497 0)
(0.24661 -0.0935154 0)
(0.242853 -0.0976811 0)
(0.238935 -0.102061 0)
(0.234514 -0.106378 0)
(0.229155 -0.110262 0)
(0.222377 -0.113254 0)
(0.213704 -0.114779 0)
(0.20272 -0.114091 0)
(0.189304 -0.110408 0)
(0.282367 -0.0781005 0)
(0.280979 -0.0792969 0)
(0.279418 -0.0804286 0)
(0.277643 -0.0814948 0)
(0.275597 -0.0824553 0)
(0.273213 -0.0832717 0)
(0.27042 -0.0839126 0)
(0.267152 -0.0843539 0)
(0.263356 -0.0845811 0)
(0.258999 -0.0845911 0)
(0.254075 -0.0843911 0)
(0.248614 -0.0839959 0)
(0.24268 -0.0834209 0)
(0.236366 -0.0826723 0)
(0.229791 -0.0817349 0)
(0.223081 -0.0805615 0)
(0.216358 -0.0790613 0)
(0.209728 -0.0770914 0)
(0.20329 -0.0744592 0)
(0.197154 -0.070965 0)
(0.275874 -0.0582559 0)
(0.273817 -0.0586398 0)
(0.271705 -0.0590516 0)
(0.269545 -0.0594625 0)
(0.267349 -0.0598675 0)
(0.265125 -0.0602548 0)
(0.262879 -0.060603 0)
(0.260609 -0.0608829 0)
(0.258304 -0.0610587 0)
(0.255946 -0.0610884 0)
(0.253503 -0.0609263 0)
(0.250941 -0.0605249 0)
(0.24822 -0.0598384 0)
(0.245303 -0.0588256 0)
(0.242161 -0.0574521 0)
(0.238781 -0.0556919 0)
(0.235169 -0.0535281 0)
(0.231359 -0.0509518 0)
(0.227409 -0.0479634 0)
(0.223407 -0.0445728 0)
(0.277924 -0.0535664 0)
(0.276434 -0.0533932 0)
(0.274811 -0.0531345 0)
(0.273055 -0.0527931 0)
(0.271164 -0.0523641 0)
(0.269138 -0.0518442 0)
(0.266979 -0.0512312 0)
(0.264694 -0.050524 0)
(0.262295 -0.0497209 0)
(0.259799 -0.0488194 0)
(0.257224 -0.0478146 0)
(0.254596 -0.0466991 0)
(0.25194 -0.045462 0)
(0.249283 -0.0440886 0)
(0.246652 -0.042561 0)
(0.244071 -0.0408588 0)
(0.241564 -0.0389607 0)
(0.23915 -0.0368466 0)
(0.236847 -0.0344996 0)
(0.234673 -0.0319088 0)
(0.277445 -0.0430725 0)
(0.276133 -0.042831 0)
(0.274806 -0.0425431 0)
(0.273463 -0.0421997 0)
(0.272105 -0.0417918 0)
(0.270731 -0.0413097 0)
(0.269338 -0.0407434 0)
(0.267924 -0.0400828 0)
(0.266488 -0.0393178 0)
(0.265026 -0.0384393 0)
(0.263537 -0.0374388 0)
(0.262019 -0.0363093 0)
(0.260472 -0.0350454 0)
(0.258901 -0.0336433 0)
(0.257309 -0.0321011 0)
(0.255707 -0.0304186 0)
(0.254105 -0.0285969 0)
(0.25252 -0.0266388 0)
(0.250967 -0.0245482 0)
(0.249466 -0.02233 0)
(0.280104 -0.0370269 0)
(0.279054 -0.0365315 0)
(0.277962 -0.0359823 0)
(0.276831 -0.0353797 0)
(0.275663 -0.0347222 0)
(0.274463 -0.0340082 0)
(0.273235 -0.0332362 0)
(0.271985 -0.0324044 0)
(0.27072 -0.031511 0)
(0.269447 -0.0305534 0)
(0.268173 -0.0295288 0)
(0.266907 -0.0284343 0)
(0.265657 -0.0272666 0)
(0.264431 -0.0260222 0)
(0.263237 -0.024698 0)
(0.262082 -0.023291 0)
(0.260974 -0.021799 0)
(0.25992 -0.0202205 0)
(0.258926 -0.0185553 0)
(0.257999 -0.0168041 0)
(0.282108 -0.0308461 0)
(0.281303 -0.0303689 0)
(0.280492 -0.0298478 0)
(0.279675 -0.029283 0)
(0.278854 -0.0286713 0)
(0.278028 -0.0280092 0)
(0.2772 -0.0272943 0)
(0.276369 -0.026524 0)
(0.275537 -0.0256963 0)
(0.274706 -0.0248095 0)
(0.273877 -0.0238623 0)
(0.273052 -0.022854 0)
(0.272235 -0.0217843 0)
(0.271429 -0.0206532 0)
(0.270636 -0.0194615 0)
(0.269863 -0.0182103 0)
(0.269112 -0.0169011 0)
(0.26839 -0.0155359 0)
(0.267703 -0.0141171 0)
(0.267055 -0.0126474 0)
(0.284726 -0.0260799 0)
(0.284082 -0.0255567 0)
(0.283428 -0.024999 0)
(0.282766 -0.0244073 0)
(0.282097 -0.0237809 0)
(0.281425 -0.0231189 0)
(0.28075 -0.0224209 0)
(0.280076 -0.0216861 0)
(0.279406 -0.0209141 0)
(0.278742 -0.0201043 0)
(0.278088 -0.0192562 0)
(0.277447 -0.0183693 0)
(0.276821 -0.0174433 0)
(0.276215 -0.016478 0)
(0.27563 -0.0154734 0)
(0.27507 -0.0144297 0)
(0.274538 -0.0133474 0)
(0.274037 -0.0122272 0)
(0.273569 -0.0110703 0)
(0.273137 -0.00987814 0)
(0.28714 -0.0219968 0)
(0.286664 -0.0215138 0)
(0.286187 -0.0210015 0)
(0.28571 -0.0204616 0)
(0.285233 -0.019893 0)
(0.284758 -0.0192948 0)
(0.284286 -0.0186664 0)
(0.283818 -0.0180074 0)
(0.283355 -0.0173175 0)
(0.282897 -0.0165965 0)
(0.282448 -0.0158446 0)
(0.282007 -0.015062 0)
(0.281577 -0.0142489 0)
(0.28116 -0.013406 0)
(0.280756 -0.0125341 0)
(0.280368 -0.011634 0)
(0.279999 -0.0107068 0)
(0.279649 -0.00975381 0)
(0.27932 -0.00877638 0)
(0.279016 -0.00777608 0)
(0.289455 -0.0185201 0)
(0.289083 -0.0180634 0)
(0.28871 -0.0175848 0)
(0.288338 -0.0170853 0)
(0.287967 -0.0165644 0)
(0.287597 -0.0160219 0)
(0.287231 -0.0154577 0)
(0.286869 -0.0148718 0)
(0.286513 -0.0142642 0)
(0.286163 -0.013635 0)
(0.285822 -0.0129843 0)
(0.28549 -0.0123124 0)
(0.285168 -0.0116194 0)
(0.284859 -0.0109058 0)
(0.284564 -0.010172 0)
(0.284283 -0.00941859 0)
(0.284018 -0.00864623 0)
(0.28377 -0.00785569 0)
(0.28354 -0.00704788 0)
(0.283329 -0.00622382 0)
(0.291586 -0.0156055 0)
(0.291318 -0.0151981 0)
(0.29105 -0.0147724 0)
(0.290785 -0.0143299 0)
(0.290521 -0.0138704 0)
(0.29026 -0.0133935 0)
(0.290002 -0.0128992 0)
(0.289749 -0.0123876 0)
(0.289499 -0.0118588 0)
(0.289256 -0.011313 0)
(0.289018 -0.0107504 0)
(0.288787 -0.0101714 0)
(0.288564 -0.00957636 0)
(0.288349 -0.00896573 0)
(0.288143 -0.00834008 0)
(0.287948 -0.00770003 0)
(0.287763 -0.00704626 0)
(0.28759 -0.00637952 0)
(0.287429 -0.00570065 0)
(0.287281 -0.00501051 0)
(0.293462 -0.0130216 0)
(0.293261 -0.0126602 0)
(0.293061 -0.0122852 0)
(0.292862 -0.0118974 0)
(0.292666 -0.0114967 0)
(0.292472 -0.011083 0)
(0.292281 -0.0106564 0)
(0.292093 -0.010217 0)
(0.291909 -0.00976508 0)
(0.29173 -0.0093007 0)
(0.291556 -0.00882413 0)
(0.291388 -0.00833565 0)
(0.291226 -0.00783556 0)
(0.291072 -0.00732422 0)
(0.290924 -0.00680203 0)
(0.290785 -0.00626943 0)
(0.290654 -0.0057269 0)
(0.290532 -0.005175 0)
(0.29042 -0.0046143 0)
(0.290318 -0.00404544 0)
(0.295128 -0.0108012 0)
(0.294989 -0.0104906 0)
(0.294851 -0.0101689 0)
(0.294715 -0.00983722 0)
(0.29458 -0.00949535 0)
(0.294447 -0.00914328 0)
(0.294317 -0.00878111 0)
(0.294189 -0.00840896 0)
(0.294064 -0.00802701 0)
(0.293943 -0.00763546 0)
(0.293825 -0.00723452 0)
(0.293711 -0.00682447 0)
(0.293602 -0.00640559 0)
(0.293497 -0.00597821 0)
(0.293397 -0.00554269 0)
(0.293303 -0.00509943 0)
(0.293214 -0.00464885 0)
(0.293131 -0.0041914 0)
(0.293055 -0.00372757 0)
(0.292986 -0.00325786 0)
(0.296524 -0.00877962 0)
(0.296428 -0.00851828 0)
(0.296332 -0.0082487 0)
(0.296237 -0.00797155 0)
(0.296144 -0.00768674 0)
(0.296052 -0.00739427 0)
(0.295962 -0.00709425 0)
(0.295873 -0.00678683 0)
(0.295788 -0.00647213 0)
(0.295704 -0.00615033 0)
(0.295623 -0.00582162 0)
(0.295545 -0.00548621 0)
(0.295471 -0.00514431 0)
(0.2954 -0.00479618 0)
(0.295332 -0.0044421 0)
(0.295269 -0.00408235 0)
(0.295209 -0.00371725 0)
(0.295154 -0.00334713 0)
(0.295103 -0.00297235 0)
(0.295057 -0.00259329 0)
(0.297699 -0.00697462 0)
(0.297638 -0.00676262 0)
(0.297578 -0.00654412 0)
(0.297519 -0.00631988 0)
(0.297461 -0.00608984 0)
(0.297404 -0.00585398 0)
(0.297348 -0.00561239 0)
(0.297293 -0.00536519 0)
(0.29724 -0.00511251 0)
(0.297188 -0.00485448 0)
(0.297138 -0.00459127 0)
(0.29709 -0.00432305 0)
(0.297044 -0.00405 0)
(0.296999 -0.00377234 0)
(0.296958 -0.00349027 0)
(0.296918 -0.00320403 0)
(0.296881 -0.00291388 0)
(0.296847 -0.00262007 0)
(0.296815 -0.00232287 0)
(0.296787 -0.00202259 0)
(0.298619 -0.0052863 0)
(0.298582 -0.0051225 0)
(0.298547 -0.00495406 0)
(0.298512 -0.00478152 0)
(0.298477 -0.00460479 0)
(0.298443 -0.00442389 0)
(0.29841 -0.00423888 0)
(0.298378 -0.00404986 0)
(0.298346 -0.00385693 0)
(0.298316 -0.0036602 0)
(0.298286 -0.00345979 0)
(0.298258 -0.00325582 0)
(0.298231 -0.00304843 0)
(0.298205 -0.00283776 0)
(0.29818 -0.00262398 0)
(0.298157 -0.00240725 0)
(0.298136 -0.00218776 0)
(0.298116 -0.00196568 0)
(0.298098 -0.00174121 0)
(0.298081 -0.00151457 0)
(0.299313 -0.00371488 0)
(0.299296 -0.00359871 0)
(0.299279 -0.00347917 0)
(0.299262 -0.00335681 0)
(0.299246 -0.00323159 0)
(0.29923 -0.00310349 0)
(0.299214 -0.00297258 0)
(0.299199 -0.00283892 0)
(0.299184 -0.00270259 0)
(0.29917 -0.00256366 0)
(0.299156 -0.00242223 0)
(0.299142 -0.00227838 0)
(0.299129 -0.00213221 0)
(0.299117 -0.00198383 0)
(0.299106 -0.00183335 0)
(0.299095 -0.00168088 0)
(0.299084 -0.00152655 0)
(0.299075 -0.00137049 0)
(0.299066 -0.00121284 0)
(0.299058 -0.00105374 0)
(0.299768 -0.00219893 0)
(0.299763 -0.00212953 0)
(0.299758 -0.00205832 0)
(0.299753 -0.00198551 0)
(0.299748 -0.00191103 0)
(0.299743 -0.00183488 0)
(0.299738 -0.0017571 0)
(0.299733 -0.00167774 0)
(0.299728 -0.00159684 0)
(0.299723 -0.00151444 0)
(0.299718 -0.0014306 0)
(0.299714 -0.00134537 0)
(0.29971 -0.0012588 0)
(0.299705 -0.00117096 0)
(0.299702 -0.00108192 0)
(0.299698 -0.000991731 0)
(0.299695 -0.00090048 0)
(0.299691 -0.000808238 0)
(0.299689 -0.000715083 0)
(0.299686 -0.000621098 0)
(0.299991 -0.000737165 0)
(0.299991 -0.000713417 0)
(0.299991 -0.000688896 0)
(0.299992 -0.000664054 0)
(0.299992 -0.000638789 0)
(0.299992 -0.000613037 0)
(0.299992 -0.000586796 0)
(0.299992 -0.000560071 0)
(0.299992 -0.000532871 0)
(0.299992 -0.000505204 0)
(0.299992 -0.00047708 0)
(0.299992 -0.000448513 0)
(0.299991 -0.000419519 0)
(0.299991 -0.000390116 0)
(0.299991 -0.000360321 0)
(0.299991 -0.000330157 0)
(0.299991 -0.000299646 0)
(0.299991 -0.00026881 0)
(0.299991 -0.000237675 0)
(0.299991 -0.000206267 0)
(0.0638847 -0.0728253 0)
(0.0472154 -0.0585304 0)
(0.0358575 -0.0461184 0)
(0.0276328 -0.0362182 0)
(0.021417 -0.0282045 0)
(0.0165839 -0.0216366 0)
(0.0127534 -0.0162716 0)
(0.00967829 -0.0119295 0)
(0.00718928 -0.00845706 0)
(0.00516579 -0.00572403 0)
(0.0035195 -0.00362018 0)
(0.00218472 -0.00205073 0)
(0.00111278 -0.000932517 0)
(0.000268788 -0.000190927 0)
(-0.000370007 0.00024232 0)
(-0.00081467 0.000432935 0)
(-0.00106385 0.000442936 0)
(-0.00110382 0.000330343 0)
(-0.000906748 0.000165789 0)
(-0.000423371 4.04759e-05 0)
(0.101759 -0.0591993 0)
(0.0863031 -0.053223 0)
(0.0731237 -0.0467332 0)
(0.0618168 -0.0405311 0)
(0.0520565 -0.0347306 0)