/*--------------------------------*- C++ -*----------------------------------*\
| =========                 |                                                 |
| \\      /  F ield         | OpenFOAM: The Open Source CFD Toolbox           |
|  \\    /   O peration     | Version:  v1806                                 |
|   \\  /    A nd           | Web:      www.OpenFOAM.com                      |
|    \\/     M anipulation  |                                                 |
\*---------------------------------------------------------------------------*/
FoamFile
{
    version     2.0;
    format      ascii;
    class       volVectorField;
    location    "3";
    object      U;
}
// * * * * * * * * * * * * * * * * * * * * * * * * * * * * * * * * * * * * * //

dimensions      [0 1 -1 0 0 0 0];


internalField   nonuniform List<vector> 
5028
(
(2.26812 -0.032303 0.0115107)
(2.26805 -0.0324029 1.7168e-07)
(2.26805 -0.0324028 -1.70055e-07)
(2.26812 -0.032303 -0.0115107)
(2.11263 -0.0193471 0.0127538)
(2.11254 -0.0193546 4.16156e-07)
(2.11254 -0.0193545 -4.17005e-07)
(2.11263 -0.0193465 -0.0127538)
(2.42902 -0.0851027 0.0104152)
(2.42894 -0.0850817 2.62906e-07)
(2.42894 -0.0850815 -2.62279e-07)
(2.42902 -0.0851024 -0.0104152)
(2.43554 0.0417403 0.0102795)
(2.43553 0.0417786 -5.98912e-09)
(2.43553 0.0417785 5.67122e-09)
(2.43554 0.0417404 -0.0102795)
(1.50678 -0.0322419 0.0154069)
(1.50679 -0.032224 2.31837e-07)
(1.50679 -0.0322241 -2.31671e-07)
(1.50678 -0.0322422 -0.0154069)
(1.33393 -0.0186959 0.0158748)
(1.334 -0.0186357 -1.04958e-08)
(1.334 -0.0186356 1.07394e-08)
(1.33393 -0.0186951 -0.0158748)
(0.884785 0.253805 0.0169627)
(0.884747 0.253838 1.11681e-07)
(0.884747 0.253838 -1.12295e-07)
(0.884786 0.253805 -0.0169627)
(0.53644 0.219765 0.0175642)
(0.536428 0.219761 2.41381e-08)
(0.536428 0.219761 -2.47143e-08)
(0.536441 0.219765 -0.0175642)
(0.935574 0.123034 0.0169208)
(0.935623 0.122991 8.42716e-08)
(0.935623 0.12299 -8.50674e-08)
(0.935575 0.123034 -0.0169208)
(0.257504 -0.188005 0.00110728)
(0.257523 -0.188004 3.33551e-08)
(0.257523 -0.188004 -3.31654e-08)
(0.257504 -0.188005 -0.00110728)
(0.341094 -0.240204 0.000997988)
(0.34112 -0.24021 5.22478e-09)
(0.34112 -0.24021 -4.99697e-09)
(0.341094 -0.240204 -0.000997988)
(0.265102 0.186795 0.00114776)
(0.26511 0.186795 5.34671e-08)
(0.26511 0.186795 -5.32431e-08)
(0.265102 0.186795 -0.00114776)
(0.38565 0.206873 0.00104496)
(0.385659 0.20688 6.39489e-08)
(0.385659 0.20688 -6.37263e-08)
(0.38565 0.206873 -0.00104496)
(0.251663 0.173963 0.00146312)
(0.251705 0.173978 4.52547e-08)
(0.251705 0.173978 -4.50438e-08)
(0.251663 0.173963 -0.00146312)
(0.0849128 0.0553967 0.00108796)
(0.0849145 0.055394 2.77703e-08)
(0.0849145 0.055394 -2.76363e-08)
(0.0849128 0.0553968 -0.00108796)
(0.0949525 0.0346889 0.00104864)
(0.0949506 0.0346899 4.73857e-08)
(0.0949506 0.0346899 -4.72574e-08)
(0.0949525 0.0346889 -0.00104864)
(0.0811907 0.0281786 0.0010247)
(0.0811931 0.0281785 4.31445e-08)
(0.0811931 0.0281785 -4.30228e-08)
(0.0811907 0.0281786 -0.0010247)
(0.0648695 0.0388496 0.00105514)
(0.0648747 0.0388493 3.58305e-08)
(0.0648747 0.0388493 -3.57024e-08)
(0.0648695 0.0388497 -0.00105514)
(0.0812381 0.124341 0.00120348)
(0.0812552 0.124348 5.38294e-08)
(0.0812552 0.124348 -5.36531e-08)
(0.0812381 0.124341 -0.00120348)
(0.118498 0.0751501 0.00114391)
(0.118507 0.0751465 3.15173e-08)
(0.118507 0.0751465 -3.13649e-08)
(0.118498 0.0751501 -0.00114391)
(0.066839 -0.0640285 0.00111542)
(0.0668421 -0.0640264 5.37395e-08)
(0.0668421 -0.0640264 -5.36609e-08)
(0.066839 -0.0640284 -0.00111542)
(0.0835693 -0.104583 0.0011559)
(0.0835841 -0.104591 2.98878e-08)
(0.0835841 -0.104591 -2.98067e-08)
(0.0835693 -0.104583 -0.0011559)
(0.13589 -0.0681998 0.00112703)
(0.135889 -0.0681926 1.88235e-08)
(0.135889 -0.0681926 -1.87621e-08)
(0.13589 -0.0681997 -0.00112704)
(0.010738 -0.0320561 0.00107084)
(0.0107357 -0.0320548 3.35467e-08)
(0.0107357 -0.0320548 -3.34359e-08)
(0.010738 -0.032056 -0.00107084)
(0.0131064 -0.0612148 0.00108601)
(0.0130987 -0.0612196 3.41909e-08)
(0.0130987 -0.0612197 -3.40821e-08)
(0.0131064 -0.0612147 -0.00108601)
(0.041832 0.0448144 0.00109215)
(0.0418381 0.044817 4.96273e-08)
(0.0418381 0.044817 -4.94952e-08)
(0.041832 0.0448145 -0.00109215)
(0.0395363 0.0112084 0.0010616)
(0.0395419 0.0112087 3.92004e-08)
(0.0395419 0.0112087 -3.90836e-08)
(0.0395363 0.0112084 -0.0010616)
(0.466047 -0.380022 0.0169915)
(0.465995 -0.380005 6.68523e-08)
(0.465995 -0.380005 -6.72738e-08)
(0.466047 -0.380022 -0.0169915)
(0.697613 -0.493648 0.016645)
(0.697599 -0.493678 -6.0265e-08)
(0.697599 -0.493678 6.03871e-08)
(0.697613 -0.493648 -0.016645)
(1.74959 0.498967 0.0137875)
(1.74973 0.498967 9.28968e-08)
(1.74973 0.498967 -9.3371e-08)
(1.74959 0.498968 -0.0137875)
(1.65426 0.482788 0.0144654)
(1.65427 0.482836 1.47403e-07)
(1.65428 0.482836 -1.47524e-07)
(1.65427 0.482788 -0.0144654)
(0.884653 -1.69751 0.0110176)
(0.884662 -1.6975 1.93414e-08)
(0.884662 -1.6975 -1.91563e-08)
(0.884653 -1.69751 -0.0110176)
(1.00741 -1.28118 0.0111137)
(1.00744 -1.28124 -2.26314e-07)
(1.00744 -1.28124 2.26186e-07)
(1.00741 -1.28118 -0.0111137)
(0.681783 -0.0913252 0.0172647)
(0.681832 -0.0913381 4.27516e-08)
(0.681832 -0.0913381 -4.30414e-08)
(0.681783 -0.0913251 -0.0172647)
(0.465033 -0.175772 0.0175603)
(0.465092 -0.175749 3.18114e-08)
(0.465092 -0.175749 -3.3242e-08)
(0.465033 -0.175773 -0.0175603)
(0.0516912 0.0770933 0.00113074)
(0.0516938 0.0770975 4.79493e-08)
(0.0516938 0.0770975 -4.78043e-08)
(0.0516912 0.0770933 -0.00113074)
(0.0608952 0.0170331 0.00102613)
(0.0608945 0.0170288 2.19193e-08)
(0.0608945 0.0170288 -2.18029e-08)
(0.0608952 0.0170331 -0.00102613)
(1.94016 -0.0102897 0.0136994)
(1.94016 -0.0102621 2.14246e-07)
(1.94016 -0.0102619 -2.14332e-07)
(1.94016 -0.0102892 -0.0136994)
(1.75784 0.0204356 0.0145008)
(1.75783 0.0204598 3.95714e-08)
(1.75783 0.0204597 -3.86979e-08)
(1.75784 0.020435 -0.0145008)
(1.14995 -0.101585 0.0162683)
(1.14993 -0.10156 6.00674e-08)
(1.14993 -0.10156 -6.0705e-08)
(1.14995 -0.101584 -0.0162683)
(0.0619848 0.00916563 0.00101033)
(0.0619865 0.00916616 3.71646e-08)
(0.0619865 0.00916616 -3.70564e-08)
(0.0619848 0.00916567 -0.00101033)
(1.20574 0.20746 0.0162284)
(1.20568 0.207486 1.3035e-07)
(1.20568 0.207486 -1.31686e-07)
(1.20574 0.207459 -0.0162284)
(0.0810104 0.00672942 0.000940406)
(0.0810139 0.0067281 2.32844e-08)
(0.0810139 0.0067281 -2.31861e-08)
(0.0810104 0.00672945 -0.000940406)
(0.0825753 0.00422543 0.000879777)
(0.0825765 0.00422727 3.1137e-08)
(0.0825765 0.00422727 -3.10513e-08)
(0.0825753 0.00422545 -0.000879777)
(0.084644 0.00187937 0.00081407)
(0.0846503 0.00187988 2.15108e-08)
(0.0846503 0.00187988 -2.14382e-08)
(0.084644 0.00187939 -0.00081407)
(0.0833769 -0.00151053 0.000748062)
(0.0833791 -0.00151005 2.23904e-08)
(0.0833791 -0.00151005 -2.23287e-08)
(0.0833769 -0.00151051 -0.000748062)
(0.0808539 -0.00242378 0.0006793)
(0.0808568 -0.00242316 1.89004e-08)
(0.0808568 -0.00242316 -1.88463e-08)
(0.0808539 -0.00242377 -0.0006793)
(0.0766943 -0.00172084 0.000609388)
(0.0766965 -0.00172124 1.67674e-08)
(0.0766965 -0.00172124 -1.6718e-08)
(0.0766943 -0.00172082 -0.000609388)
(0.0716212 -0.00199922 0.000542208)
(0.0716244 -0.00199847 1.46747e-08)
(0.0716244 -0.00199847 -1.46292e-08)
(0.0716212 -0.00199921 -0.000542208)
(0.0714786 0.00305099 0.000543516)
(0.0714817 0.00305098 1.3628e-08)
(0.0714817 0.00305098 -1.35898e-08)
(0.0714786 0.003051 -0.000543516)
(0.0763643 0.00230738 0.000610605)
(0.0763659 0.00230748 1.64336e-08)
(0.0763659 0.00230748 -1.63917e-08)
(0.0763643 0.00230739 -0.000610605)
(0.0805739 0.00229152 0.000677327)
(0.080576 0.00229149 1.6776e-08)
(0.080576 0.00229149 -1.67317e-08)
(0.0805739 0.00229153 -0.000677327)
(0.084011 0.00162421 0.000745637)
(0.0840148 0.00162482 1.98732e-08)
(0.0840148 0.00162482 -1.98221e-08)
(0.084011 0.00162423 -0.000745637)
(0.0852022 0.000145183 0.000815815)
(0.0852068 0.000144449 2.25008e-08)
(0.0852068 0.000144448 -2.2439e-08)
(0.0852022 0.000145204 -0.000815815)
(0.0828466 -0.00138788 0.000883926)
(0.08285 -0.00138621 2.63932e-08)
(0.08285 -0.00138621 -2.63196e-08)
(0.0828466 -0.00138786 -0.000883926)
(0.0759969 -0.00380443 0.000950471)
(0.0760005 -0.00380748 2.88232e-08)
(0.0760005 -0.00380748 -2.87395e-08)
(0.0759969 -0.0038044 -0.000950471)
(0.0625083 -0.00503272 0.00101082)
(0.0625148 -0.005031 3.18079e-08)
(0.0625148 -0.005031 -3.1709e-08)
(0.0625083 -0.00503268 -0.00101082)
(0.0405058 -0.00877252 0.00105724)
(0.0405077 -0.0087728 3.96492e-08)
(0.0405077 -0.0087728 -3.95444e-08)
(0.0405058 -0.00877247 -0.00105724)
(0.0749564 0.00938749 0.00099831)
(0.0749613 0.00939191 4.05503e-08)
(0.0749613 0.00939191 -4.04384e-08)
(0.0749564 0.00938752 -0.000998311)
(0.0490005 -0.0359688 0.00106989)
(0.0490006 -0.0359727 3.09073e-08)
(0.0490006 -0.0359727 -3.08088e-08)
(0.0490005 -0.0359688 -0.00106989)
(0.0684331 -0.0205282 0.00102124)
(0.0684395 -0.0205265 3.45293e-08)
(0.0684395 -0.0205265 -3.44457e-08)
(0.0684331 -0.0205281 -0.00102124)
(0.0794533 -0.010303 0.000957622)
(0.0794578 -0.0103017 2.71116e-08)
(0.0794578 -0.0103017 -2.70358e-08)
(0.0794533 -0.010303 -0.000957622)
(0.0850607 -0.00385583 0.000888154)
(0.0850636 -0.00385582 2.80383e-08)
(0.0850636 -0.00385582 -2.79753e-08)
(0.0850606 -0.0038558 -0.000888154)
(0.0864754 0.000638449 0.000816118)
(0.0864804 0.000639175 2.32586e-08)
(0.0864804 0.000639174 -2.32102e-08)
(0.0864754 0.000638469 -0.000816118)
(0.084777 0.00300921 0.000745464)
(0.0847799 0.00300997 2.13811e-08)
(0.0847799 0.00300997 -2.13431e-08)
(0.084777 0.00300923 -0.000745464)
(0.0814017 0.00493116 0.0006761)
(0.081404 0.00493089 1.88382e-08)
(0.081404 0.00493089 -1.88057e-08)
(0.0814017 0.00493117 -0.0006761)
(0.0769173 0.00615874 0.000608605)
(0.0769195 0.00615894 1.63543e-08)
(0.0769195 0.00615894 -1.63234e-08)
(0.0769173 0.00615875 -0.000608605)
(0.0716288 0.0066047 0.000542483)
(0.0716313 0.00660423 1.46853e-08)
(0.0716313 0.00660423 -1.46561e-08)
(0.0716288 0.00660471 -0.000542483)
(1.10646 0.453533 0.0158509)
(1.10639 0.453569 1.12901e-07)
(1.10639 0.453569 -1.13137e-07)
(1.10646 0.453532 -0.0158509)
(0.0839503 0.00967068 0.000941797)
(0.0839575 0.00967276 2.50213e-08)
(0.0839575 0.00967276 -2.49161e-08)
(0.0839503 0.00967071 -0.000941797)
(0.085924 0.00321513 0.000879306)
(0.0859258 0.00321376 3.05091e-08)
(0.0859258 0.00321376 -3.04151e-08)
(0.085924 0.00321515 -0.000879306)
(0.0865959 -0.000520864 0.000812827)
(0.0866019 -0.000521251 2.27348e-08)
(0.0866019 -0.000521251 -2.26519e-08)
(0.0865959 -0.000520846 -0.000812827)
(0.0845921 -0.00131435 0.000745606)
(0.0845951 -0.00131666 2.11273e-08)
(0.0845951 -0.00131666 -2.10558e-08)
(0.0845921 -0.00131433 -0.000745606)
(0.0813147 -0.00347382 0.00067499)
(0.0813175 -0.0034742 1.80148e-08)
(0.0813175 -0.0034742 -1.79509e-08)
(0.0813147 -0.0034738 -0.00067499)
(0.0767855 -0.0050244 0.000604829)
(0.0767871 -0.00502437 1.59333e-08)
(0.0767871 -0.00502437 -1.58742e-08)
(0.0767855 -0.00502439 -0.000604829)
(0.0712662 -0.0055778 0.000539739)
(0.0712682 -0.00557645 1.47738e-08)
(0.0712682 -0.00557645 -1.47207e-08)
(0.0712662 -0.00557779 -0.000539739)
(0.0661274 -0.00663688 0.000479475)
(0.0661301 -0.0066355 1.2644e-08)
(0.0661301 -0.0066355 -1.25992e-08)
(0.0661274 -0.00663687 -0.000479475)
(0.0663319 -0.00209582 0.000480257)
(0.0663346 -0.00209489 1.15397e-08)
(0.0663346 -0.00209489 -1.15007e-08)
(0.0663319 -0.00209581 -0.000480257)
(0.0661912 0.00327594 0.000479854)
(0.0661935 0.00327517 1.1195e-08)
(0.0661935 0.00327517 -1.11606e-08)
(0.0661912 0.00327594 -0.000479854)
(0.0663677 0.00706976 0.00047855)
(0.0663702 0.00706896 1.24949e-08)
(0.0663702 0.00706896 -1.24651e-08)
(0.0663677 0.00706976 -0.00047855)
(1.31623 0.322526 0.0152989)
(1.31621 0.322473 -1.54404e-07)
(1.31621 0.322472 1.54659e-07)
(1.31623 0.322524 -0.0152989)
(1.57856 0.219724 0.0146449)
(1.57854 0.2197 4.85225e-08)
(1.57854 0.2197 -4.7905e-08)
(1.57856 0.219725 -0.0146449)
(1.7109 0.219415 0.013823)
(1.71083 0.219383 -4.07424e-09)
(1.71083 0.219384 5.09621e-09)
(1.7109 0.219416 -0.0138231)
(1.95406 0.169115 0.0128855)
(1.95407 0.16904 -3.99493e-08)
(1.95407 0.169041 4.10028e-08)
(1.95406 0.169115 -0.0128855)
(2.13592 0.130631 0.0119434)
(2.13596 0.130627 -3.45227e-07)
(2.13596 0.130627 3.46361e-07)
(2.13592 0.13063 -0.0119434)
(2.31775 0.0795666 0.0112081)
(2.31769 0.0795248 4.57317e-07)
(2.31769 0.0795248 -4.56182e-07)
(2.31775 0.0795667 -0.0112081)
(2.43697 0.128029 0.0101748)
(2.43688 0.127967 2.69595e-07)
(2.43688 0.127967 -2.69416e-07)
(2.43697 0.128029 -0.0101748)
(2.54811 0.0926109 0.00932949)
(2.54812 0.0926161 1.31068e-07)
(2.54812 0.0926162 -1.31514e-07)
(2.54811 0.0926109 -0.00932949)
(2.50264 0.0446585 0.00947647)
(2.50258 0.0447175 2.65506e-07)
(2.50258 0.0447175 -2.65764e-07)
(2.50264 0.0446586 -0.00947647)
(2.49872 -0.0233303 0.00948977)
(2.4987 -0.0234539 1.97306e-07)
(2.4987 -0.0234538 -1.98413e-07)
(2.49872 -0.0233301 -0.00948977)
(2.52207 -0.106054 0.00935858)
(2.52205 -0.106051 9.81285e-08)
(2.52205 -0.106051 -9.9322e-08)
(2.52207 -0.106054 -0.00935858)
(2.45348 -0.11213 0.0102432)
(2.45342 -0.112113 2.06594e-07)
(2.45342 -0.112113 -2.05325e-07)
(2.45348 -0.112129 -0.0102432)
(2.30237 -0.118947 0.0111196)
(2.30237 -0.118927 3.21342e-08)
(2.30237 -0.118927 -3.09829e-08)
(2.30237 -0.118948 -0.0111196)
(2.13738 -0.144545 0.0120565)
(2.13729 -0.144524 2.11487e-07)
(2.13729 -0.144525 -2.11547e-07)
(2.13738 -0.144545 -0.0120565)
(1.9121 -0.176215 0.0130276)
(1.91205 -0.176163 1.80279e-07)
(1.91205 -0.176163 -1.80023e-07)
(1.9121 -0.176215 -0.0130276)
(1.70809 -0.257779 0.0139909)
(1.70805 -0.257695 -4.66052e-08)
(1.70805 -0.257695 4.71664e-08)
(1.70809 -0.25778 -0.0139909)
(1.43302 -0.216129 0.0149586)
(1.43299 -0.216109 -4.28521e-08)
(1.43299 -0.216109 4.31301e-08)
(1.43302 -0.21613 -0.0149586)
(1.25032 -0.370934 0.0157558)
(1.25027 -0.370917 -5.77289e-08)
(1.25027 -0.370917 5.75724e-08)
(1.25032 -0.370935 -0.0157558)
(0.932615 -0.427991 0.016247)
(0.93258 -0.427974 -8.61784e-09)
(0.93258 -0.427974 8.8108e-09)
(0.932615 -0.427991 -0.016247)
(0.756612 -0.708756 0.0154256)
(0.75663 -0.708781 1.94902e-08)
(0.75663 -0.708781 -2.01757e-08)
(0.756611 -0.708756 -0.0154256)
(0.487854 -0.980327 0.0158804)
(0.487867 -0.980265 1.71888e-07)
(0.487867 -0.980265 -1.72196e-07)
(0.487853 -0.980327 -0.0158804)
(0.528041 0.484137 0.0168341)
(0.528044 0.484114 7.83081e-08)
(0.528044 0.484114 -7.83001e-08)
(0.528041 0.484137 -0.0168341)
(0.770882 0.62253 0.0163452)
(0.770955 0.622551 -1.84851e-07)
(0.770955 0.622551 1.8475e-07)
(0.770882 0.62253 -0.0163452)
(0.0796803 -0.0369981 0.00103627)
(0.0796879 -0.0370067 3.00214e-08)
(0.0796879 -0.0370067 -2.99441e-08)
(0.0796803 -0.0369981 -0.00103627)
(0.0903517 -0.0192038 0.000967363)
(0.0903536 -0.0192013 2.83062e-08)
(0.0903536 -0.0192013 -2.82419e-08)
(0.0903517 -0.0192037 -0.000967363)
(0.0928157 -0.00817986 0.000892359)
(0.0928185 -0.00818415 2.31073e-08)
(0.0928186 -0.00818415 -2.3057e-08)
(0.0928156 -0.00817983 -0.000892359)
(0.0918839 0.000391677 0.000815415)
(0.0918891 0.00039133 1.9795e-08)
(0.0918891 0.00039133 -1.97573e-08)
(0.0918839 0.000391699 -0.000815415)
(0.088341 0.00628791 0.00074158)
(0.0883439 0.00628887 1.72491e-08)
(0.0883439 0.00628887 -1.72207e-08)
(0.0883409 0.00628793 -0.00074158)
(0.083441 0.00938059 0.000670526)
(0.0834424 0.00938076 1.57648e-08)
(0.0834424 0.00938076 -1.57403e-08)
(0.0834409 0.0093806 -0.000670526)
(0.0780367 0.0111045 0.000601423)
(0.0780381 0.0111039 1.49856e-08)
(0.0780381 0.0111039 -1.49621e-08)
(0.0780367 0.0111045 -0.000601423)
(0.0720071 0.0119888 0.000534623)
(0.0720093 0.0119879 1.36546e-08)
(0.0720093 0.0119879 -1.36294e-08)
(0.0720071 0.0119888 -0.000534623)
(0.0661206 0.011956 0.000471186)
(0.066123 0.0119556 1.1869e-08)
(0.066123 0.0119556 -1.18402e-08)
(0.0661206 0.011956 -0.000471187)
(1.08478 -0.714191 0.015441)
(1.08485 -0.714148 1.85996e-07)
(1.08485 -0.714148 -1.87502e-07)
(1.08478 -0.714191 -0.015441)
(1.27099 -0.585081 0.0150187)
(1.27103 -0.585062 6.31486e-08)
(1.27103 -0.585062 -6.44299e-08)
(1.27099 -0.585081 -0.0150187)
(1.57853 -0.513739 0.0144988)
(1.57865 -0.513696 1.10143e-07)
(1.57865 -0.513696 -1.10836e-07)
(1.57853 -0.513739 -0.0144988)
(1.78511 -0.498931 0.0138394)
(1.78523 -0.498924 5.38317e-08)
(1.78523 -0.498924 -5.4201e-08)
(1.78511 -0.498931 -0.0138394)
(2.00955 -0.48326 0.0130376)
(2.0096 -0.483308 3.00765e-07)
(2.0096 -0.483307 -3.00729e-07)
(2.00955 -0.48326 -0.0130376)
(2.17302 -0.460692 0.012129)
(2.17299 -0.460717 3.26621e-07)
(2.17299 -0.460717 -3.26287e-07)
(2.17302 -0.460691 -0.012129)
(2.28463 -0.397981 0.0111359)
(2.28459 -0.397973 2.68681e-07)
(2.28459 -0.397973 -2.67344e-07)
(2.28463 -0.397981 -0.0111359)
(2.38525 -0.290063 0.0101313)
(2.38518 -0.290123 2.46931e-07)
(2.38518 -0.290123 -2.45095e-07)
(2.38525 -0.290062 -0.0101313)
(2.48254 -0.200108 0.00923275)
(2.48248 -0.200122 2.63225e-07)
(2.48248 -0.200123 -2.63039e-07)
(2.48254 -0.200108 -0.00923275)
(0.978829 0.676738 0.0154456)
(0.978866 0.676707 6.10453e-08)
(0.978866 0.676707 -6.11011e-08)
(0.978829 0.676738 -0.0154456)
(1.22115 0.563825 0.0151375)
(1.22123 0.563744 2.03632e-07)
(1.22123 0.563744 -2.03565e-07)
(1.22115 0.563824 -0.0151375)
(2.06092 0.474516 0.0130456)
(2.06096 0.474524 2.21487e-07)
(2.06096 0.474524 -2.2187e-07)
(2.06092 0.474516 -0.0130456)
(2.12881 0.46545 0.012152)
(2.12879 0.465462 2.6288e-07)
(2.12879 0.465462 -2.63388e-07)
(2.12881 0.46545 -0.012152)
(2.3185 0.394393 0.0111874)
(2.31846 0.39447 2.48089e-07)
(2.31846 0.39447 -2.47953e-07)
(2.3185 0.394394 -0.0111874)
(2.35192 0.277291 0.010172)
(2.35183 0.277266 2.68131e-07)
(2.35183 0.277266 -2.67587e-07)
(2.35192 0.277291 -0.010172)
(2.50017 0.213171 0.00920618)
(2.50013 0.213244 2.43646e-07)
(2.50013 0.213244 -2.44077e-07)
(2.50017 0.213171 -0.00920618)
(2.58056 0.165929 0.00841507)
(2.58042 0.16596 4.25266e-07)
(2.58042 0.16596 -4.25433e-07)
(2.58056 0.165929 -0.00841507)
(2.59556 0.135533 0.00857446)
(2.59545 0.135484 3.48457e-07)
(2.59545 0.135484 -3.48111e-07)
(2.59556 0.135533 -0.00857446)
(2.60255 0.0355797 0.00869289)
(2.60247 0.0356119 3.47647e-07)
(2.60247 0.035612 -3.47415e-07)
(2.60255 0.0355799 -0.00869289)
(2.60175 -0.0422612 0.0087075)
(2.60161 -0.0422141 4.69121e-07)
(2.60161 -0.042214 -4.68979e-07)
(2.60175 -0.0422614 -0.0087075)
(2.60443 -0.118664 0.00861175)
(2.60438 -0.118675 3.0161e-07)
(2.60438 -0.118675 -3.01702e-07)
(2.60443 -0.118664 -0.00861175)
(2.59637 -0.17873 0.0084304)
(2.59625 -0.178812 3.97459e-07)
(2.59625 -0.178813 -3.97408e-07)
(2.59637 -0.178731 -0.0084304)
(0.746551 -0.9449 0.0136355)
(0.746475 -0.944929 2.58677e-07)
(0.746475 -0.944929 -2.59691e-07)
(0.746551 -0.9449 -0.0136355)
(0.898367 -1.1792 0.0135432)
(0.898331 -1.17922 -9.7922e-08)
(0.898331 -1.17922 9.73648e-08)
(0.898367 -1.1792 -0.0135432)
(0.0916693 0.0147519 0.000958217)
(0.0916764 0.0147532 2.55528e-08)
(0.0916764 0.0147532 -2.54372e-08)
(0.0916693 0.0147519 -0.000958217)
(0.0928724 0.00653573 0.000891286)
(0.0928746 0.00653415 3.10491e-08)
(0.0928746 0.00653415 -3.0944e-08)
(0.0928724 0.00653575 -0.000891286)
(0.0924398 1.44984e-06 0.000817696)
(0.0924471 -3.42795e-07 2.23199e-08)
(0.0924471 -3.43527e-07 -2.2227e-08)
(0.0924398 1.46703e-06 -0.000817696)
(0.0888266 -0.00633385 0.000743183)
(0.0888292 -0.00633422 1.89836e-08)
(0.0888292 -0.00633422 -1.89028e-08)
(0.0888266 -0.00633384 -0.000743183)
(0.083357 -0.00965381 0.000669263)
(0.0833576 -0.00965344 1.82953e-08)
(0.0833576 -0.00965344 -1.82249e-08)
(0.083357 -0.0096538 -0.000669263)
(0.0776281 -0.0112505 0.000599337)
(0.0776286 -0.0112495 1.69135e-08)
(0.0776286 -0.0112495 -1.68499e-08)
(0.0776281 -0.0112505 -0.000599337)
(0.0716781 -0.0116755 0.000535023)
(0.0716802 -0.0116734 1.6387e-08)
(0.0716802 -0.0116734 -1.63303e-08)
(0.0716781 -0.0116755 -0.000535023)
(0.0658304 -0.0113813 0.000474266)
(0.0658341 -0.0113803 1.32505e-08)
(0.0658341 -0.0113803 -1.32033e-08)
(0.0658304 -0.0113813 -0.000474266)
(0.0607748 -0.0110664 0.000416698)
(0.0607776 -0.0110659 1.1176e-08)
(0.0607776 -0.0110659 -1.11368e-08)
(0.0607748 -0.0110664 -0.000416698)
(0.0611306 -0.00682626 0.000422053)
(0.0611333 -0.00682591 1.09212e-08)
(0.0611333 -0.00682591 -1.08842e-08)
(0.0611306 -0.00682625 -0.000422053)
(0.06105 -0.00201418 0.000423136)
(0.0610516 -0.00201382 1.0776e-08)
(0.0610516 -0.00201382 -1.07401e-08)
(0.06105 -0.00201417 -0.000423136)
(0.0611146 0.00260615 0.000422237)
(0.0611164 0.00260581 1.03899e-08)
(0.0611164 0.00260581 -1.03552e-08)
(0.0611146 0.00260615 -0.000422237)
(0.0611097 0.00706603 0.000419511)
(0.0611122 0.00706574 1.0928e-08)
(0.0611122 0.00706574 -1.08952e-08)
(0.0611097 0.00706603 -0.000419511)
(0.0605177 0.0116063 0.000412169)
(0.0605201 0.0116062 1.04472e-08)
(0.0605201 0.0116062 -1.04152e-08)
(0.0605177 0.0116063 -0.000412169)
(0.782863 0.78493 0.0151372)
(0.782841 0.785009 -6.67118e-09)
(0.782841 0.785009 6.67414e-09)
(0.782862 0.784931 -0.0151372)
(0.454515 1.01963 0.0156481)
(0.454495 1.01958 1.59852e-07)
(0.454495 1.01958 -1.60035e-07)
(0.454515 1.01963 -0.0156481)
(0.0982622 -0.0496931 0.00108106)
(0.0982658 -0.0496867 5.18618e-08)
(0.0982658 -0.0496867 -5.18114e-08)
(0.0982622 -0.0496931 -0.00108106)
(0.110176 -0.0222894 0.000981401)
(0.110185 -0.0222884 2.41524e-08)
(0.110185 -0.0222884 -2.41042e-08)
(0.110176 -0.0222893 -0.000981401)
(0.103238 -0.00449913 0.000902549)
(0.103239 -0.00449698 3.65886e-08)
(0.103239 -0.00449698 -3.65553e-08)
(0.103238 -0.0044991 -0.000902549)
(0.0993506 0.0056847 0.000818154)
(0.0993606 0.00568643 2.24929e-08)
(0.0993606 0.00568643 -2.24715e-08)
(0.0993506 0.00568472 -0.000818154)
(0.092908 0.0119161 0.000738726)
(0.0929114 0.0119184 1.96855e-08)
(0.0929114 0.0119184 -1.96701e-08)
(0.092908 0.0119161 -0.000738726)
(0.0863387 0.0155751 0.000663965)
(0.0863396 0.0155755 1.81299e-08)
(0.0863396 0.0155755 -1.81141e-08)
(0.0863387 0.0155751 -0.000663965)
(0.0793985 0.0173547 0.000591667)
(0.0793998 0.0173543 1.67252e-08)
(0.0793998 0.0173543 -1.6706e-08)
(0.0793985 0.0173547 -0.000591667)
(0.0724111 0.0175623 0.000523788)
(0.0724138 0.0175613 1.51071e-08)
(0.0724138 0.0175613 -1.50835e-08)
(0.0724111 0.0175623 -0.000523788)
(0.0658786 0.017328 0.000460517)
(0.0658819 0.0173273 1.25125e-08)
(0.0658819 0.0173273 -1.24852e-08)
(0.0658786 0.017328 -0.000460517)
(0.0598237 0.0167955 0.000402267)
(0.0598265 0.0167953 1.07407e-08)
(0.0598265 0.0167953 -1.07108e-08)
(0.0598236 0.0167955 -0.000402267)
(1.19823 -0.868892 0.0138398)
(1.19828 -0.868923 3.81054e-08)
(1.19828 -0.868923 -3.88429e-08)
(1.19823 -0.868892 -0.0138398)
(1.32205 -0.867015 0.0136202)
(1.32201 -0.867066 -2.18427e-07)
(1.32201 -0.867067 2.17743e-07)
(1.32205 -0.867015 -0.0136202)
(1.5599 -0.723127 0.0132723)
(1.55989 -0.723138 -1.39599e-07)
(1.55989 -0.723138 1.3911e-07)
(1.5599 -0.723127 -0.0132723)
(1.72574 -0.64159 0.0125419)
(1.72561 -0.641597 1.8747e-08)
(1.72561 -0.641597 -1.85636e-08)
(1.72574 -0.64159 -0.0125419)
(1.94035 -0.49363 0.0117692)
(1.94022 -0.493642 2.11693e-07)
(1.94022 -0.493643 -2.11268e-07)
(1.94035 -0.49363 -0.0117692)
(2.14853 -0.35441 0.010945)
(2.14842 -0.354392 2.12947e-07)
(2.14842 -0.354392 -2.12345e-07)
(2.14853 -0.354411 -0.010945)
(2.36825 -0.259602 0.0101582)
(2.36819 -0.259605 2.41207e-07)
(2.36819 -0.259605 -2.39845e-07)
(2.36824 -0.259604 -0.0101582)
(2.5348 -0.250089 0.00935165)
(2.53474 -0.250098 1.7422e-07)
(2.53474 -0.250097 -1.73052e-07)
(2.53479 -0.250089 -0.00935165)
(2.60913 -0.275243 0.00865872)
(2.60912 -0.275233 1.04974e-07)
(2.60912 -0.275233 -1.04948e-07)
(2.60913 -0.275242 -0.00865872)
(2.62585 -0.285044 0.00801109)
(2.62581 -0.285038 2.09625e-07)
(2.62581 -0.285038 -2.09261e-07)
(2.62585 -0.285043 -0.00801109)
(0.853665 1.196 0.0132481)
(0.853709 1.19601 -2.4236e-07)
(0.853709 1.19601 2.42829e-07)
(0.853665 1.196 -0.0132481)
(1.15198 0.857659 0.0140374)
(1.15202 0.857675 6.19013e-08)
(1.15202 0.857675 -6.10125e-08)
(1.15198 0.857659 -0.0140374)
(1.33911 0.810659 0.0138388)
(1.33902 0.810704 -3.86803e-08)
(1.33902 0.810703 3.93582e-08)
(1.33911 0.810659 -0.0138388)
(1.59537 0.724246 0.0131973)
(1.59532 0.724352 -1.25579e-07)
(1.59532 0.724352 1.25493e-07)
(1.59538 0.724246 -0.0131973)
(0.765443 1.07115 0.0130988)
(0.765349 1.07117 2.11013e-07)
(0.765349 1.07117 -2.10778e-07)
(0.765443 1.07115 -0.0130988)
(1.71745 0.624685 0.0125172)
(1.71739 0.624696 -2.22535e-07)
(1.71739 0.624696 2.22243e-07)
(1.71745 0.624686 -0.0125172)
(1.96509 0.491387 0.011705)
(1.96501 0.491411 3.85749e-08)
(1.96501 0.491411 -3.8459e-08)
(1.96509 0.491388 -0.011705)
(2.14232 0.354655 0.0108956)
(2.14222 0.354611 2.21689e-07)
(2.14222 0.354611 -2.21426e-07)
(2.14232 0.354656 -0.0108956)
(2.391 0.251764 0.01012)
(2.39093 0.251757 3.0695e-07)
(2.39093 0.251757 -3.06717e-07)
(2.391 0.251764 -0.01012)
(2.51773 0.235682 0.009331)
(2.51768 0.235668 1.49338e-07)
(2.51768 0.235668 -1.49103e-07)
(2.51773 0.235681 -0.009331)
(2.6209 0.275929 0.00866237)
(2.62088 0.275918 1.7003e-07)
(2.62088 0.275918 -1.70034e-07)
(2.6209 0.275928 -0.00866237)
(2.62113 0.286667 0.00797805)
(2.62108 0.286646 2.45732e-07)
(2.62108 0.286646 -2.45514e-07)
(2.62113 0.286667 -0.00797805)
(2.68603 0.275939 0.00738277)
(2.68598 0.275914 2.9125e-07)
(2.68598 0.275914 -2.91053e-07)
(2.68603 0.275939 -0.00738277)
(2.70359 0.198862 0.00768743)
(2.70345 0.198894 4.83673e-07)
(2.70345 0.198894 -4.83705e-07)
(2.70359 0.198863 -0.00768743)
(2.67445 0.108407 0.0079015)
(2.67436 0.108416 3.93951e-07)
(2.67436 0.108416 -3.93819e-07)
(2.67445 0.108407 -0.0079015)
(2.66062 0.0376456 0.00802887)
(2.66047 0.0376513 5.11739e-07)
(2.66047 0.0376512 -5.11478e-07)
(2.66062 0.0376454 -0.00802887)
(2.67152 -0.0314532 0.00800923)
(2.67138 -0.0315269 4.82636e-07)
(2.67138 -0.031527 -4.82196e-07)
(2.67152 -0.0314534 -0.00800923)
(2.66974 -0.118899 0.00790778)
(2.6696 -0.118884 4.16265e-07)
(2.6696 -0.118884 -4.16005e-07)
(2.66974 -0.118899 -0.00790778)
(2.68742 -0.188378 0.00770499)
(2.68728 -0.188391 4.60744e-07)
(2.68728 -0.188391 -4.60621e-07)
(2.68742 -0.188378 -0.00770499)
(2.67798 -0.273686 0.00737781)
(2.67793 -0.273655 2.46306e-07)
(2.67793 -0.273655 -2.46079e-07)
(2.67798 -0.273686 -0.00737781)
(0.102047 0.0195242 0.000982345)
(0.102056 0.0195216 2.77057e-08)
(0.102056 0.0195216 -2.75805e-08)
(0.102047 0.0195243 -0.000982345)
(0.102033 0.00494406 0.000905243)
(0.102038 0.00494244 2.99367e-08)
(0.102038 0.00494244 -2.98215e-08)
(0.102033 0.00494408 -0.000905244)
(0.0981739 -0.00487142 0.000823778)
(0.0981783 -0.00487358 2.2082e-08)
(0.0981783 -0.00487359 -2.19762e-08)
(0.0981739 -0.00487141 -0.000823778)
(0.0924567 -0.0104505 0.000744279)
(0.0924577 -0.01045 2.14413e-08)
(0.0924577 -0.01045 -2.13501e-08)
(0.0924567 -0.0104505 -0.000744279)
(0.0861152 -0.0139665 0.000667591)
(0.0861169 -0.0139664 1.80376e-08)
(0.0861169 -0.0139664 -1.79596e-08)
(0.0861152 -0.0139665 -0.000667591)
(0.0795775 -0.0162245 0.000595077)
(0.0795774 -0.0162239 1.7073e-08)
(0.0795774 -0.0162239 -1.70047e-08)
(0.0795775 -0.0162245 -0.000595077)
(0.0728832 -0.017164 0.000527815)
(0.0728852 -0.0171638 1.73063e-08)
(0.0728852 -0.0171638 -1.72481e-08)
(0.0728832 -0.017164 -0.000527815)
(0.0662026 -0.0169033 0.000464983)
(0.0662068 -0.0169032 1.35236e-08)
(0.0662068 -0.0169032 -1.34761e-08)
(0.0662026 -0.0169033 -0.000464983)
(0.0603769 -0.0164084 0.000405821)
(0.0603799 -0.0164088 1.15741e-08)
(0.0603799 -0.0164088 -1.15348e-08)
(0.0603769 -0.0164084 -0.000405821)
(0.0546075 -0.0150255 0.000351658)
(0.0546104 -0.0150252 9.84738e-09)
(0.0546104 -0.0150252 -9.8119e-09)
(0.0546075 -0.0150255 -0.000351658)
(0.0556559 -0.0107781 0.000362157)
(0.0556585 -0.0107774 9.709e-09)
(0.0556585 -0.0107774 -9.67388e-09)
(0.0556559 -0.0107781 -0.000362157)
(0.0562436 -0.0062848 0.000368022)
(0.0562464 -0.00628461 8.94544e-09)
(0.0562464 -0.00628461 -8.9097e-09)
(0.0562436 -0.0062848 -0.000368022)
(0.0562872 -0.0019932 0.000370499)
(0.0562894 -0.00199327 9.42161e-09)
(0.0562894 -0.00199327 -9.386e-09)
(0.0562872 -0.0019932 -0.000370499)
(0.0563621 0.00216552 0.000369713)
(0.0563644 0.00216567 8.94323e-09)
(0.0563644 0.00216567 -8.90757e-09)
(0.0563621 0.00216552 -0.000369713)
(0.0560422 0.00667194 0.000366307)
(0.0560451 0.0066719 8.98566e-09)
(0.0560451 0.0066719 -8.9509e-09)
(0.0560422 0.00667194 -0.000366307)
(0.0553114 0.0109301 0.000358802)
(0.055314 0.01093 8.82283e-09)
(0.055314 0.01093 -8.78888e-09)
(0.0553114 0.0109301 -0.000358802)
(0.0543926 0.0158111 0.000348383)
(0.0543954 0.015811 9.02134e-09)
(0.0543954 0.015811 -8.98954e-09)
(0.0543926 0.0158111 -0.000348383)
(0.0528392 0.0203468 0.000334564)
(0.0528418 0.020347 8.86605e-09)
(0.0528418 0.020347 -8.83726e-09)
(0.0528392 0.0203468 -0.000334564)
(0.0583548 0.0220747 0.000386846)
(0.0583578 0.0220749 1.04738e-08)
(0.0583578 0.0220749 -1.04458e-08)
(0.0583548 0.0220747 -0.000386846)
(0.0649358 0.0235427 0.000443908)
(0.064939 0.0235426 1.2218e-08)
(0.064939 0.0235426 -1.21913e-08)
(0.0649358 0.0235427 -0.000443908)
(0.0722526 0.0244299 0.000506496)
(0.0722545 0.0244302 1.43062e-08)
(0.0722545 0.0244302 -1.42831e-08)
(0.0722525 0.0244299 -0.000506496)
(0.080163 0.0240377 0.000575331)
(0.0801631 0.024038 1.48606e-08)
(0.0801631 0.024038 -1.48427e-08)
(0.080163 0.0240377 -0.000575331)
(0.0888681 0.0226453 0.000649015)
(0.088867 0.0226451 1.38814e-08)
(0.088867 0.0226451 -1.38679e-08)
(0.0888681 0.0226453 -0.000649015)
(0.0975294 0.0191231 0.000728675)
(0.0975308 0.0191227 1.11289e-08)
(0.0975308 0.0191227 -1.11166e-08)
(0.0975294 0.0191231 -0.000728675)
(0.105752 0.0115807 0.000813017)
(0.105757 0.0115789 1.27658e-08)
(0.105757 0.0115789 -1.27525e-08)
(0.105752 0.0115807 -0.000813017)
(0.113259 0.000320188 0.000900175)
(0.11326 0.000319403 1.49602e-08)
(0.11326 0.000319404 -1.4944e-08)
(0.113259 0.000320212 -0.000900175)
(0.1205 -0.0167159 0.000986366)
(0.120502 -0.0167187 1.72004e-08)
(0.120502 -0.0167187 -1.71666e-08)
(0.1205 -0.0167159 -0.000986366)
(0.128637 -0.0347801 0.00106672)
(0.128643 -0.0347901 2.89106e-08)
(0.128643 -0.0347901 -2.88689e-08)
(0.128637 -0.03478 -0.00106672)