/*--------------------------------*- C++ -*----------------------------------*\
| =========                 |                                                 |
| \\      /  F ield         | OpenFOAM: The Open Source CFD Toolbox           |
|  \\    /   O peration     | Version:  v1806                                 |
|   \\  /    A nd           | Web:      www.OpenFOAM.com                      |
|    \\/     M anipulation  |                                                 |
\*---------------------------------------------------------------------------*/
FoamFile
{
    version     2.0;
    format      ascii;
    class       volScalarField;
    location    "190";
    object      p;
}
// * * * * * * * * * * * * * * * * * * * * * * * * * * * * * * * * * * * * * //

dimensions      [0 2 -2 0 0 0 0];


internalField   nonuniform List<scalar> 
4400
(
-0.00856977
0.00469787
0.00390113
0.00241498
0.00189806
0.00167215
0.00148924
0.00133381
0.00120016
0.00107772
0.000960825
0.000847859
0.000738322
0.000631756
0.000527728
0.000425901
0.000326075
0.000228101
0.000130726
3.40914e-05
0.0193968
0.0135202
0.00921885
0.00650747
0.00502072
0.00409491
0.00341189
0.00287644
0.00244853
0.00209752
0.00180008
0.00154071
0.00130929
0.00109888
0.000904424
0.00072221
0.000549466
0.000383974
0.000222851
6.53747e-05
0.0242471
0.0178046
0.0133501
0.0101109
0.00784296
0.00627108
0.0051349
0.00427401
0.00359786
0.00305
0.00259269
0.00220066
0.00185682
0.00154922
0.00126914
0.0010101
0.000767116
0.000536183
0.000313083
9.60985e-05
0.0263731
0.0202022
0.0155878
0.012186
0.00971682
0.00790739
0.00654038
0.0054723
0.00461512
0.00391138
0.00332064
0.00281389
0.00237026
0.00197461
0.0016157
0.00128494
0.000975687
0.000682502
0.000400083
0.000125749
0.0251754
0.0205324
0.0166671
0.0135674
0.0111209
0.00920262
0.00768966
0.00647829
0.00549012
0.00466842
0.00397196
0.00337047
0.00284162
0.00236873
0.00193911
0.00154292
0.00117237
0.000820989
0.00048268
0.000153938
0.0238626
0.0203414
0.0170793
0.0142831
0.0119723
0.0100881
0.00854838
0.00727762
0.00621533
0.00531495
0.00454069
0.00386482
0.00326589
0.00272724
0.0022358
0.00178118
0.00135498
0.000950109
0.000559943
0.000180358
0.0222343
0.0195818
0.0169593
0.0145738
0.0124883
0.0107037
0.00918932
0.00790304
0.00680348
0.0058546
0.00502654
0.00429507
0.00364069
0.00304772
0.00250354
0.00199782
0.001522
0.00106874
0.000631182
0.000204769
0.0207997
0.0187608
0.0166256
0.0145829
0.0127222
0.0110719
0.00962702
0.00836628
0.00726339
0.00629301
0.00543249
0.00466231
0.00396594
0.00332951
0.00274141
0.00219186
0.00167256
0.00117621
0.000695952
0.000227011
0.0194618
0.0178668
0.0161332
0.0144078
0.0127742
0.0112726
0.0099162
0.00870125
0.00761506
0.0066417
0.00576505
0.00497011
0.00424348
0.00357336
0.00294955
0.00236315
0.00180636
0.0012722
0.000754034
0.000247
0.0183175
0.0170398
0.0156097
0.0141386
0.0127019
0.0113433
0.0100834
0.00892805
0.00787356
0.00691156
0.00603173
0.00522343
0.00447641
0.00378116
0.00312903
0.00251221
0.00192364
0.00135679
0.000805414
0.000264722
0.0173116
0.0162683
0.0150758
0.0138173
0.0125548
0.0113291
0.0101647
0.00907323
0.00805769
0.00711561
0.00624147
0.00542834
0.00466882
0.00395558
0.00328156
0.00264011
0.002025
0.0014303
0.000850248
0.000280221
0.0164596
0.0155882
0.0145764
0.0134861
0.0123679
0.0112587
0.010183
0.00915524
0.00818212
0.00726524
0.00640284
0.00559112
0.00482522
0.00409979
0.00340931
0.0027483
0.00211139
0.0014933
0.000888822
0.000293589
0.0157304
0.0149892
0.0141177
0.0131629
0.0121653
0.0111569
0.0101608
0.00919266
0.0082615
0.00737175
0.0065244
0.00571817
0.00495031
0.0042172
0.00351471
0.00283846
0.00218392
0.0015465
0.000921521
0.000304948
0.0151222
0.0144784
0.0137141
0.0128654
0.0119653
0.0110409
0.0101138
0.00919919
0.00830744
0.00744465
0.00661378
0.00581545
0.00504865
0.00431122
0.00360027
0.00291238
0.00224383
0.00159067
0.000948783
0.000314443
0.0146177
0.0140478
0.0133661
0.012601
0.0117792
0.0109241
0.010055
0.00918684
0.00833026
0.00749251
0.00667789
0.00588845
0.00512451
0.00438513
0.00366842
0.00297184
0.00229238
0.00162666
0.000971076
0.000322227
0.0142121
0.0136972
0.0130777
0.0123765
0.0116158
0.0108159
0.00999414
0.00916458
0.00833804
0.00752231
0.00672259
0.00594194
0.00518171
0.00444189
0.00372144
0.00301853
0.00233075
0.00165524
0.000988852
0.000328453
0.0138962
0.0134217
0.0128484
0.0121951
0.0114809
0.0107235
0.00993866
0.00913977
0.00833749
0.00753991
0.00675283
0.00598
0.00522351
0.00448407
0.00376129
0.00305391
0.00236
0.00167713
0.00100251
0.000333254
0.0136668
0.0132206
0.0126796
0.0120602
0.011379
0.0106521
0.00989411
0.0091178
0.0083336
0.00754975
0.0067724
0.00600578
0.00525248
0.0045137
0.00378952
0.00307912
0.00238094
0.00169285
0.00101237
0.000336735
0.01352
0.0130918
0.012571
0.0119728
0.0113124
0.0106049
0.00986412
0.00910231
0.00832982
0.00755494
0.006784
0.00602153
0.00527043
0.00453222
0.00380727
0.00309503
0.00239418
0.00170283
0.00101864
0.000338964
0.0134531
0.0130323
0.0125206
0.0119321
0.0112813
0.0105827
0.00984983
0.00909477
0.00832774
0.00755707
0.00678917
0.00602867
0.00527863
0.00454071
0.00381544
0.00310236
0.0024003
0.00170744
0.00102155
0.000339999
0.0341553
0.0413244
0.0465149
0.0504721
0.0534998
0.055758
0.0573686
0.0584217
0.0589777
0.059073
0.0587238
0.0579272
0.0566619
0.0548862
0.0525342
0.0495098
0.0456855
0.040897
0.0348149
0.0265741
0.0425577
0.0449526
0.0469132
0.0485317
0.0498544
0.0508975
0.0516702
0.0521797
0.0524308
0.0524261
0.0521662
0.0516501
0.0508749
0.0498363
0.0485271
0.0469364
0.0450582
0.0429161
0.040486
0.0371373
0.0373818
0.0389079
0.0402926
0.041506
0.0425328
0.0433639
0.0439931
0.0444162
0.0446307
0.0446346
0.0444266
0.044005
0.0433688
0.0425167
0.0414477
0.0401619
0.0386631
0.0369636
0.0350586
0.0328432
0.0347388
0.0355675
0.0363134
0.0369651
0.0375138
0.0379524
0.0382758
0.0384798
0.0385613
0.0385184
0.0383496
0.0380544
0.0376329
0.0370861
0.0364153
0.0356232
0.0347147
0.033699
0.0325732
0.0312795
0.0306587
0.0311831
0.0316559
0.0320693
0.0324166
0.0326921
0.0328909
0.0330093
0.0330445
0.0329946
0.0328586
0.0326365
0.0323291
0.0319381
0.0314664
0.0309177
0.0302972
0.0296118
0.0288674
0.0280617
0.0279484
0.0282752
0.0285636
0.0288102
0.0290117
0.0291655
0.0292691
0.0293208
0.0293192
0.0292633
0.0291528
0.0289877
0.0287686
0.0284968
0.0281736
0.0278014
0.0273831
0.0269231
0.0264231
0.0258724
0.0251848
0.0253995
0.0255868
0.0257446
0.025871
0.0259643
0.026023
0.026046
0.0260326
0.0259821
0.0258945
0.0257698
0.0256087
0.025412
0.0251809
0.0249169
0.0246221
0.0242987
0.0239491
0.0235739
0.0231688
0.0233137
0.0234377
0.0235395
0.0236182
0.023673
0.0237031
0.0237079
0.023687
0.0236402
0.0235675
0.023469
0.023345
0.0231961
0.023023
0.0228264
0.0226076
0.0223682
0.0221089
0.021826
0.0213041
0.0214044
0.0214889
0.0215569
0.0216077
0.021641
0.0216562
0.021653
0.0216311
0.0215906
0.0215314
0.0214535
0.0213574
0.0212432
0.0211115
0.0209629
0.020798
0.0206176
0.0204227
0.0202132
0.0198632
0.0199352
0.0199947
0.0200412
0.0200745
0.0200942
0.0201
0.0200918
0.0200695
0.0200331
0.0199825
0.0199179
0.0198393
0.0197471
0.0196415
0.0195229
0.0193917
0.0192485
0.0190937
0.0189256
0.0185822
0.0186348
0.0186776
0.0187101
0.0187322
0.0187438
0.0187446
0.0187346
0.0187137
0.0186818
0.0186391
0.0185856
0.0185213
0.0184465
0.0183614
0.0182661
0.018161
0.0180464
0.0179227
0.0177896
0.01756
0.0175999
0.0176316
0.017655
0.0176699
0.0176762
0.0176738
0.0176626
0.0176427
0.017614
0.0175766
0.0175304
0.0174756
0.0174123
0.0173406
0.0172607
0.0171728
0.0170771
0.0169739
0.0168622
0.0166756
0.0167065
0.0167305
0.0167476
0.0167578
0.0167608
0.0167568
0.0167455
0.0167272
0.0167016
0.0166689
0.0166291
0.0165822
0.0165284
0.0164677
0.0164002
0.0163261
0.0162455
0.0161587
0.0160654
0.0159647
0.0159893
0.0160081
0.016021
0.016028
0.0160289
0.0160237
0.0160125
0.0159953
0.0159719
0.0159425
0.0159071
0.0158657
0.0158184
0.0157652
0.0157063
0.0156417
0.0155717
0.0154962
0.0154148
0.0153699
0.0153901
0.0154052
0.0154151
0.0154199
0.0154195
0.0154139
0.0154031
0.015387
0.0153657
0.0153392
0.0153075
0.0152707
0.0152287
0.0151817
0.0151297
0.0150728
0.0150111
0.0149447
0.0148734
0.0149032
0.0149203
0.0149329
0.0149408
0.0149442
0.0149429
0.014937
0.0149264
0.0149112
0.0148913
0.0148669
0.0148378
0.0148041
0.0147659
0.0147232
0.014676
0.0146245
0.0145687
0.0145086
0.014444
0.0145371
0.014552
0.0145627
0.0145693
0.0145718
0.01457
0.014564
0.0145537
0.0145393
0.0145207
0.0144978
0.0144708
0.0144397
0.0144044
0.0143651
0.0143217
0.0142743
0.0142229
0.0141678
0.0141086
0.0142759
0.0142894
0.014299
0.0143047
0.0143064
0.0143043
0.0142982
0.0142882
0.0142743
0.0142564
0.0142347
0.014209
0.0141795
0.0141461
0.0141089
0.0140679
0.0140232
0.0139748
0.0139228
0.013867
0.0141035
0.0141161
0.014125
0.0141302
0.0141316
0.0141293
0.0141233
0.0141135
0.0141
0.0140827
0.0140618
0.0140371
0.0140088
0.0139768
0.0139412
0.013902
0.0138593
0.013813
0.0137634
0.0137102
0.0140329
0.0140451
0.0140537
0.0140587
0.0140599
0.0140576
0.0140515
0.0140417
0.0140283
0.0140112
0.0139905
0.0139661
0.0139381
0.0139065
0.0138713
0.0138326
0.0137903
0.0137446
0.0136955
0.0136427
0.0121469
0.0125488
0.0129394
0.013321
0.0136908
0.0140384
0.0143504
0.0146117
0.0148076
0.0149272
0.014968
0.0149415
0.0148799
0.0148463
0.014945
0.0153124
0.016067
0.0173193
0.0195871
0.0246364
0.0140178
0.0143465
0.0147423
0.015187
0.015686
0.0162514
0.0168967
0.0176372
0.0184907
0.0194763
0.0206136
0.0219207
0.0234131
0.0251029
0.0269973
0.0290982
0.0314056
0.0339356
0.0367272
0.0397286
0.0171725
0.0177191
0.0182804
0.0188701
0.0194922
0.020149
0.0208442
0.0215817
0.0223664
0.023203
0.0240974
0.0250556
0.026085
0.0271936
0.0283895
0.0296801
0.0310702
0.0325604
0.0341399
0.0357704
0.0181517
0.0186802
0.0192492
0.0198511
0.0204872
0.0211599
0.0218708
0.0226207
0.0234101
0.0242387
0.0251053
0.0260078
0.0269433
0.0279073
0.0288939
0.0298959
0.030904
0.0319074
0.0328921
0.0338416
0.0187945
0.0192783
0.0197748
0.0202871
0.0208158
0.0213604
0.0219211
0.0224974
0.0230892
0.0236958
0.0243163
0.0249494
0.0255933
0.0262457
0.0269033
0.0275621
0.028217
0.0288618
0.0294893
0.0300911
0.0187498
0.0191768
0.0196149
0.0200634
0.0205219
0.0209898
0.0214662
0.0219502
0.0224403
0.0229351
0.0234326
0.0239309
0.0244273
0.0249193
0.0254037
0.0258772
0.0263362
0.0267769
0.0271952
0.0275871
0.0183911
0.0187458
0.0191039
0.0194657
0.0198308
0.0201984
0.0205676
0.0209378
0.0213078
0.0216766
0.0220429
0.0224054
0.0227623
0.0231121
0.0234528
0.0237824
0.0240988
0.0243996
0.0246825
0.024945
0.0178717
0.0181736
0.0184756
0.0187784
0.0190814
0.0193839
0.0196852
0.0199842
0.0202803
0.0205723
0.0208592
0.0211399
0.0214131
0.0216776
0.021932
0.0221749
0.0224051
0.0226209
0.0228211
0.0230042
0.0172391
0.0174874
0.0177341
0.0179795
0.018223
0.0184641
0.0187021
0.0189365
0.0191665
0.0193916
0.0196108
0.0198236
0.020029
0.0202262
0.0204144
0.0205926
0.0207601
0.0209158
0.021059
0.0211887
0.0166119
0.0168226
0.0170303
0.0172355
0.0174379
0.017637
0.0178324
0.0180234
0.0182096
0.0183905
0.0185655
0.018734
0.0188955
0.0190494
0.019195
0.0193318
0.0194591
0.0195765
0.0196834
0.0197791
0.0159836
0.0161598
0.0163329
0.016503
0.0166698
0.016833
0.0169921
0.0171468
0.0172968
0.0174417
0.0175809
0.0177143
0.0178413
0.0179616
0.0180748
0.0181804
0.0182781
0.0183674
0.0184481
0.0185198
0.0154116
0.0155634
0.0157115
0.0158564
0.0159979
0.0161357
0.0162694
0.0163988
0.0165236
0.0166435
0.0167583
0.0168676
0.0169712
0.0170687
0.01716
0.0172446
0.0173224
0.0173931
0.0174564
0.0175121
0.0148847
0.0150153
0.0151424
0.0152663
0.0153867
0.0155035
0.0156164
0.0157253
0.0158298
0.0159299
0.0160252
0.0161156
0.0162009
0.0162809
0.0163553
0.016424
0.0164868
0.0165436
0.0165941
0.0166381
0.0144274
0.0145427
0.0146544
0.014763
0.0148682
0.0149699
0.0150678
0.015162
0.0152521
0.015338
0.0154196
0.0154966
0.0155691
0.0156367
0.0156994
0.0157571
0.0158095
0.0158566
0.0158982
0.0159343
0.0140312
0.0141337
0.014233
0.0143292
0.0144221
0.0145117
0.0145978
0.0146802
0.0147589
0.0148338
0.0149046
0.0149713
0.0150339
0.0150921
0.0151458
0.015195
0.0152396
0.0152795
0.0153145
0.0153447
0.0137057
0.0137992
0.0138894
0.0139766
0.0140607
0.0141416
0.0142191
0.0142933
0.0143638
0.0144308
0.014494
0.0145534
0.0146089
0.0146604
0.0147079
0.0147512
0.0147903
0.0148251
0.0148556
0.0148816
0.0134456
0.0135319
0.0136152
0.0136956
0.0137729
0.0138472
0.0139183
0.013986
0.0140505
0.0141115
0.014169
0.0142229
0.0142732
0.0143198
0.0143626
0.0144016
0.0144367
0.0144678
0.0144949
0.014518
0.0132547
0.0133364
0.013415
0.0134908
0.0135637
0.0136335
0.0137003
0.0137639
0.0138242
0.0138813
0.013935
0.0139853
0.0140322
0.0140755
0.0141152
0.0141513
0.0141838
0.0142125
0.0142374
0.0142586
0.0131296
0.0132078
0.0132831
0.0133558
0.0134255
0.0134923
0.0135562
0.0136169
0.0136746
0.013729
0.0137802
0.0138282
0.0138727
0.0139139
0.0139516
0.0139859
0.0140166
0.0140438
0.0140673
0.0140872
0.0130754
0.0131528
0.0132272
0.0132988
0.0133675
0.0134333
0.0134962
0.0135559
0.0136126
0.0136661
0.0137164
0.0137634
0.0138072
0.0138475
0.0138845
0.013918
0.0139481
0.0139746
0.0139977
0.0140171
0.00566323
0.00796363
0.00908319
0.00980479
0.0102879
0.0105753
0.0107179
0.0107617
0.0107397
0.0106753
0.0105856
0.0104837
0.0103793
0.0102797
0.0101905
0.0101167
0.010061
0.0100217
0.0100073
0.01002
0.00680027
0.0077598
0.00829054
0.00867697
0.00897157
0.0091814
0.00932135
0.00940802
0.00945474
0.00947181
0.00946742
0.00944807
0.00941882
0.00938353
0.00934486
0.00930439
0.00926385
0.00922794
0.00919006
0.0091477
0.00722545
0.00778309
0.00819426
0.0085122
0.00875523
0.00893168
0.00905148
0.00912517
0.00916237
0.0091714
0.00915937
0.0091322
0.00909471
0.0090507
0.00900308
0.00895406
0.00890533
0.00885747
0.00880832
0.00875718
0.00734322
0.00764113
0.00787778
0.00806581
0.00821115
0.00831775
0.0083903
0.00843395
0.00845376
0.00845445
0.00844027
0.00841494
0.00838164
0.00834301
0.00830117
0.00825785
0.00821454
0.00817183
0.00812743
0.00807953
0.00709524
0.00727968
0.00743679
0.00756518
0.00766612
0.00774152
0.00779364
0.00782514
0.00783886
0.0078377
0.00782445
0.00780173
0.0077719
0.00773702
0.00769885
0.00765889
0.0076185
0.00757823
0.00753626
0.00749166
0.00669761
0.00681698
0.00692019
0.00700338
0.00706712
0.00711286
0.00714213
0.00715661
0.00715819
0.00714885
0.00713055
0.00710518
0.00707449
0.00704006
0.00700324
0.00696527
0.00692727
0.00688973
0.0068508
0.0068093
0.00617319
0.00625445
0.0063268
0.00638406
0.00642638
0.00645499
0.00647099
0.00647552
0.00646993
0.00645565
0.00643419
0.00640698
0.00637544
0.00634081
0.00630423
0.00626673
0.00622932
0.00619236
0.00615406
0.00611334
0.00559033
0.00564473
0.00569415
0.00573134
0.00575633
0.00577027
0.00577402
0.00576849
0.00575473
0.00573392
0.0057073
0.0056761
0.00564148
0.00560456
0.00556631
0.00552765
0.00548951
0.00545218
0.00541384
0.00537335
0.00495595
0.0049885
0.00501949
0.0050404
0.0050511
0.00505271
0.00504591
0.00503138
0.00501
0.00498276
0.00495071
0.00491493
0.00487646
0.00483629
0.00479532
0.00475441
0.00471442
0.00467563
0.00463615
0.00459486
0.00429258
0.00430436
0.00431694
0.00432112
0.00431675
0.00430488
0.00428609
0.00426091
0.00423008
0.00419448
0.00415504
0.00411273
0.00406852
0.00402332
0.00397798
0.00393334
0.00389022
0.0038489
0.00380743
0.00376462
0.00360767
0.00359667
0.00358815
0.00357281
0.00355055
0.0035224
0.00348884
0.00345032
0.00340747
0.00336105
0.00331188
0.00326083
0.00320879
0.0031566
0.00310507
0.003055
0.00300722
0.00296198
0.00291724
0.00287179
0.0029171
0.00287764
0.00284119
0.00279949
0.00275268
0.00270177
0.00264724
0.00258955
0.00252923
0.00246696
0.00240345
0.00233946
0.00227579
0.00221321
0.00215246
0.00209433
0.00203966
0.00198869
0.00193923
0.00188987
0.00224698
0.00217101
0.00209673
0.00201887
0.00193798
0.00185513
0.00177094
0.00168596
0.00160073
0.00151584
0.00143186
0.00134941
0.0012691
0.00119157
0.00111742
0.00104738
0.000982266
0.000922271
0.000864986
0.000809071
0.001625
0.00149731
0.00136726
0.00123504
0.00110181
0.000968799
0.000837076
0.000707584
0.000581131
0.0004584
0.000339976
0.000226374
0.000118083
1.55832e-05
-8.06187e-05
-0.000169878
-0.000251327
-0.00032472
-0.000392888
-0.000457912
0.00113843
0.000948093
0.000747161
0.000544172
0.000341322
0.000140191
-5.7259e-05
-0.000249183
-0.000434076
-0.0006108
-0.000778571
-0.000936915
-0.00108559
-0.0012245
-0.00135358
-0.00147254
-0.00158078
-0.00167836
-0.0017686
-0.00185256
0.000829757
0.000544871
0.000237143
-7.62768e-05
-0.000392683
-0.000709937
-0.00102456
-0.00133287
-0.00163147
-0.00191745
-0.00218841
-0.00244261
-0.00267893
-0.00289676
-0.00309575
-0.00327541
-0.00343461
-0.00357265
-0.00369372
-0.00380251
0.00101137
0.000657712
0.000261835
-0.000150154
-0.000574667
-0.00100907
-0.00144822
-0.00188604
-0.00231627
-0.0027329
-0.0031306
-0.00350514
-0.00385383
-0.00417562
-0.00447095
-0.00474104
-0.00498706
-0.00521131
-0.00542052
-0.00561226
0.00151546
0.00101357
0.000451846
-0.000148074
-0.000786899
-0.00146419
-0.00217568
-0.00291464
-0.00367234
-0.0044382
-0.0052002
-0.00594558
-0.00666185
-0.00733781
-0.00796459
-0.00853554
-0.00904484
-0.00948894
-0.00987719
-0.0102207
0.00371894
0.00337903
0.00295434
0.00246643
0.0019149
0.00129628
0.000609862
-0.00014219
-0.00095482
-0.00181974
-0.00272538
-0.00365732
-0.00459957
-0.00553656
-0.00645505
-0.00734414
-0.00819788
-0.00904178
-0.00998457
-0.0110956
0.00533251
0.00474389
0.00409318
0.00334462
0.00247759
0.00147409
0.000314262
-0.00102262
-0.00255691
-0.00430734
-0.00628967
-0.00851507
-0.0109889
-0.0137092
-0.0166634
-0.0198202
-0.0231343
-0.026618
-0.0304566
-0.0345655
0.000229073
0.000700643
0.00117633
0.00165632
0.00214196
0.00263412
0.00313361
0.00364118
0.00415753
0.00468329
0.00521904
0.00576529
0.00632258
0.00689163
0.00747371
0.00807145
0.00869136
0.0093506
0.0100908
0.0110456
0.000244261
0.000744874
0.00125005
0.00176034
0.0022775
0.00280296
0.00333822
0.00388496
0.00444508
0.00502081
0.00561493
0.00623101
0.00687384
0.00755003
0.00826868
0.00904192
0.00988602
0.0108269
0.0119187
0.0132225
0.000258715
0.000786945
0.00132009
0.00185908
0.002406
0.00296281
0.00353162
0.00411488
0.00471551
0.00533705
0.00598405
0.00666242
0.00738016
0.00814842
0.00898322
0.00990843
0.010961
0.0121967
0.0136893
0.015562
0.000272264
0.000826346
0.00138559
0.00195124
0.00252569
0.00311128
0.00371062
0.00432675
0.00496331
0.00562482
0.00631697
0.00704712
0.00782499
0.00866358
0.00958054
0.0106001
0.0117563
0.0130982
0.0147051
0.0166955
0.000284763
0.000862653
0.00144582
0.00203578
0.00263511
0.00324645
0.00387273
0.00451736
0.00518443
0.00587896
0.00660724
0.00737726
0.00819943
0.00908748
0.0100597
0.0111408
0.0123634
0.0137708
0.0154182
0.0173739
0.000296101
0.000895545
0.00150024
0.00211192
0.00273324
0.00336701
0.00401629
0.00468467
0.00537639
0.00609657
0.00685151
0.00764904
0.00849901
0.00941388
0.0104094
0.0115055
0.0127273
0.0141072
0.0156856
0.0175021
0.00030621
0.000924822
0.00154854
0.00217921
0.0028195
0.00347223
0.00414049
0.0048278
0.00553831
0.00627691
0.0070495
0.00786325
0.00872693
0.00965124
0.0106492
0.0117362
0.0129303
0.0142517
0.0157183
0.0173355
0.00031506
0.000950409
0.0015906
0.00223752
0.00289377
0.00356206
0.00424534
0.00494695
0.0056707
0.00642102
0.00720308
0.00802295
0.00888775
0.00980576
0.0107863
0.0118399
0.0129776
0.0142098
0.0155417
0.0169662
0.000322666
0.000972351
0.00162652
0.00228704
0.00295634
0.00363694
0.00433158
0.00504325
0.0057753
0.00653152
0.00731619
0.00813415
0.00899084
0.00989216
0.0108443
0.0118534
0.0129244
0.0140594
0.0152534
0.016489
0.000329076
0.000990797
0.00165658
0.00232819
0.00300785
0.00369782
0.00440052
0.00511854
0.00585467
0.00661196
0.00739372
0.0082035
0.00904499
0.00992184
0.0108373
0.0117939
0.012792
0.0138289
0.0148948
0.0159705
0.00033437
0.00100599
0.0016812
0.00236163
0.00304922
0.00374598
0.00445393
0.0051752
0.005912
0.00666665
0.00744148
0.00823882
0.00906082
0.00990922
0.010785
0.0116876
0.0126144
0.0135591
0.0145094
0.015445
0.000338649
0.00101823
0.00170091
0.00238814
0.0030816
0.00378294
0.00449382
0.0052159
0.00595082
0.00670013
0.00746529
0.0082475
0.00904758
0.00986567
0.0107009
0.0115507
0.0124105
0.0132724
0.0141235
0.0149452
0.000342031
0.00102787
0.00171632
0.00240863
0.0031062
0.00381036
0.00452239
0.00524348
0.00597471
0.006717
0.00747098
0.00823692
0.00901453
0.0098027
0.0105992
0.0114002
0.0121997
0.0129891
0.0137557
0.0144825
0.00034464
0.00103527
0.00172805
0.00242403
0.00312432
0.00382994
0.00454181
0.0052607
0.00598719
0.0067216
0.0074639
0.00821355
0.00896938
0.00972936
0.0104903
0.0112475
0.0119945
0.0127224
0.0134195
0.014071
0.000346603
0.00104081
0.00173675
0.00243526
0.0031372
0.00384331
0.00455417
0.00527019
0.00599152
0.00671796
0.00744892
0.00818325
0.0089191
0.00965375
0.0103834
0.0111028
0.0118053
0.0124822
0.0131227
0.0137135
0.000348038
0.00104484
0.001743
0.00244319
0.00314602
0.00385199
0.00456141
0.00527437
0.00599063
0.00670961
0.00743026
0.00815095
0.00886932
0.00958218
0.0102853
0.0109733
0.0116393
0.0122753
0.0128712
0.0134154
0.000349054
0.00104768
0.00174735
0.00244858
0.00315182
0.00385734
0.00456523
0.00527531
0.00598708
0.00669962
0.00741154
0.00812084
0.00882483
0.00951999
0.0102018
0.0108648
0.0115023
0.0121064
0.0126681
0.013177
0.00034974
0.00104958
0.00175023
0.00245209
0.00315547
0.00386048
0.00456703
0.00527477
0.00598296
0.00669048
0.00739567
0.0080963
0.00878942
0.00947131
0.0101373
0.0107819
0.0113986
0.0119797
0.0125167
0.0130005
0.00035016
0.00105073
0.00175196
0.00245417
0.00315758
0.00386219
0.00456781
0.00527396
0.00597976
0.00668395
0.00738471
0.00807966
0.0087657
0.00943898
0.0100948
0.0107276
0.0113309
0.0118973
0.0124187
0.0128862
0.000350348
0.00105125
0.00175274
0.0024551
0.0031585
0.00386291
0.00456809
0.00527347
0.00597814
0.00668076
0.00737944
0.00807172
0.00875445
0.00942371
0.0100748
0.0107021
0.0112993
0.011859
0.0123734
0.0128342
-0.00012334
-0.000304845
-0.000501932
-0.000705846
-0.000917992
-0.00113916
-0.00137142
-0.00161631
-0.00187571
-0.00215164
-0.00244645
-0.00276252
-0.00310149
-0.00346362
-0.00384466
-0.00422609
-0.00450003
-0.0043168
-0.00329197
-0.00684786
-9.39651e-05
-0.000249759
-0.000404659
-0.000566621
-0.000732971
-0.000904445
-0.00108088
-0.00126218
-0.0014474
-0.00163479
-0.00182103
-0.00200013
-0.0021621
-0.00229083
-0.00235854
-0.00229365
-0.00192081
-0.000934669
0.000590656
0.00201695
-7.52528e-05
-0.000190119
-0.000306927
-0.000426457
-0.000547588
-0.000669841
-0.000791935
-0.000911994
-0.00102694
-0.00113194
-0.00121941
-0.0012775
-0.00128814
-0.0012233
-0.00103474
-0.000629036
0.000145923
0.00140766
0.00306478
0.00513266
-5.67103e-05
-0.000131751
-0.000209489
-0.000287625
-0.000364773
-0.000439696
-0.000510304
-0.000573487
-0.000624658
-0.00065704
-0.000660648
-0.000620969
-0.000517106
-0.000317816
2.79945e-05
0.000604232
0.00151484
0.00281017
0.00444238
0.00628887
-3.74971e-05
-7.48911e-05
-0.000113833
-0.000151817
-0.000186806
-0.000217093
-0.000240037
-0.000251845
-0.00024712
-0.000218167
-0.000154091
-3.9629e-05
0.000146582
0.000435339
0.000872275
0.00151912
0.00243354
0.00362817
0.00504157
0.00648144
-1.85902e-05
-1.95132e-05
-2.0918e-05
-2.03204e-05
-1.5421e-05
-4.23686e-06
1.60871e-05
4.95374e-05
0.000101632
0.000179986
0.000295008
0.000460778
0.000696406
0.00102831
0.00149257
0.00213196
0.00297898
0.00402826
0.00520388
0.00630987
-1.5609e-07
3.41702e-05
6.88497e-05
0.000106212
0.000148587
0.000197969
0.000257133
0.000329854
0.000421237
0.000538148
0.000689721
0.000887988
0.00114875
0.0014926
0.00194497
0.00253191
0.00326843
0.00414045
0.00507924
0.00592501
1.76713e-05
8.60631e-05
0.000155348
0.000227639
0.000305119
0.00038958
0.000483455
0.000589978
0.000713413
0.000859349
0.00103502
0.0012497
0.00151517
0.00184603
0.00225886
0.00276855
0.00338041
0.0040779
0.00480505
0.00543872
3.49418e-05
0.000136246
0.000238779
0.000344325
0.000454802
0.000571638
0.000696739
0.000832572
0.000982307
0.00114999
0.00134072
0.0015608
0.00181796
0.00212107
0.00247904
0.00289818
0.00337811
0.0039049
0.0044384
0.00488515
5.17129e-05
0.000184941
0.000319571
0.000456983
0.000598745
0.000745822
0.000899467
0.00106124
0.00123307
0.0014173
0.00161674
0.00183472
0.00207505
0.00234163
0.00263735
0.00296251
0.00331349
0.00367939
0.00403076
0.00429556
6.80981e-05
0.000232484
0.000398338
0.000566596
0.000738433
0.000914307
0.00109477
0.00128043
0.00147194
0.00166993
0.001875
0.0020876
0.00230788
0.0025352
0.00276723
0.00299941
0.00322593
0.00343796
0.00361069
0.00368675
8.42196e-05
0.000279257
0.000475777
0.000674264
0.000875501
0.00107944
0.00128595
0.00149471
0.00170515
0.00191627
0.00212657
0.00233381
0.00253478
0.00272479
0.00289689
0.00304222
0.00315233
0.0032171
0.00320896
0.00308147
0.000100208
0.000325655
0.000552596
0.000781097
0.00101158
0.00124357
0.0014763
0.00170864
0.00193891
0.00216467
0.00238253
0.00258783
0.00277429
0.00293339
0.00305377
0.00312214
0.00312603
0.00305004
0.00285695
0.00250803
0.000116178
0.000372025
0.000629419
0.00088807
0.00114813
0.00140875
0.0016687
0.00192618
0.00217861
0.00242237
0.00265245
0.00286212
0.00304237
0.0031812
0.00326303
0.00326965
0.00318251
0.00297649
0.00259825
0.00200751
0.000132217
0.000418628
0.000706716
0.000995924
0.00128623
0.00157658
0.00186542
0.00215053
0.0024287
0.00269545
0.00294458
0.00316771
0.00335353
0.00348698
0.00354847
0.00351448
0.00335838
0.00304127
0.00248847
0.00165236
0.000148371
0.000465603
0.000784736
0.00110506
0.00142651
0.00174797
0.00206782
0.00238364
0.00269199
0.00298795
0.00326471
0.00351284
0.00371944
0.00386701
0.00393244
0.0038868
0.00369406
0.00329929
0.00260488
0.0015423
0.000164637
0.000512942
0.000863469
0.00121549
0.001569
0.00192305
0.00227613
0.00262597
0.0029693
0.00330137
0.00361543
0.00390198
0.00414764
0.00433375
0.0044348
0.004417
0.00423502
0.00381899
0.00305261
0.00184581
0.000180963
0.00056048
0.000942633
0.00132678
0.00171315
0.00210106
0.00248938
0.0028763
0.00325914
0.00363389
0.00399477
0.00433345
0.00463786
0.00489051
0.00506632
0.00512943
0.0050276
0.00468017
0.00396143
0.00270456
0.000197244
0.00060791
0.00102169
0.00143815
0.00185781
0.00228045
0.00270548
0.00313182
0.0035577
0.00398043
0.00439598
0.00479838
0.00517886
0.00552443
0.00581554
0.00602179
0.0060931
0.00594393
0.00544013
0.00446649
0.000213339
0.000654803
0.00109989
0.00154844
0.00200138
0.00245902
0.00292142
0.00338841
0.0038594
0.0043333
0.00480833
0.00528167
0.00574912
0.00620454
0.00663881
0.00703707
0.007371
0.00758166
0.00754605
0.00692778
-0.000228985
-0.000509145
-0.000888007
-0.00123625
-0.00162835
-0.00203474
-0.00247845
-0.00295864
-0.0034877
-0.00407501
-0.00473354
-0.00548209
-0.00633163
-0.00732225
-0.00841274
-0.00972955
-0.0109837
-0.0127592
-0.0138643
-0.0161584
-0.000228983
-0.000498363
-0.000874806
-0.00121578
-0.00160238
-0.00200169
-0.00243828
-0.00291054
-0.0034312
-0.00400968
-0.00465937
-0.00540025
-0.00624448
-0.00723763
-0.00834053
-0.00970281
-0.0110162
-0.0129189
-0.0140609
-0.0164216
-0.00022818
-0.000487729
-0.000860932
-0.0011948
-0.00157556
-0.00196769
-0.00239688
-0.00286092
-0.00337279
-0.00394192
-0.00458208
-0.00531421
-0.00615184
-0.00714518
-0.00825818
-0.00966059
-0.0110306
-0.0130536
-0.0142328
-0.0166107
-0.000227008
-0.000477328
-0.000846636
-0.00117347
-0.00154805
-0.00193286
-0.00235436
-0.0028099
-0.00331256
-0.00387182
-0.00450172
-0.00522402
-0.00605362
-0.00704468
-0.00816491
-0.00960121
-0.0110221
-0.0131598
-0.0143933
-0.0168234
-0.000225479
-0.000467055
-0.000831901
-0.00115175
-0.00151985
-0.00189721
-0.00231073
-0.00275747
-0.00325053
-0.00379936
-0.00441826
-0.00512957
-0.0059496
-0.00693568
-0.0080599
-0.00952361
-0.0109896
-0.0132354
-0.0145348
-0.0170503
-0.000223638
-0.000456863
-0.00081674
-0.00112965
-0.00149097
-0.00186073
-0.00226601
-0.00270366
-0.00318671
-0.00372456
-0.00433168
-0.00503082
-0.0058396
-0.00681783
-0.0079424
-0.0094266
-0.0109312
-0.013278
-0.0146512
-0.0172753
-0.000221532
-0.000446715
-0.000801173
-0.00110717
-0.00146143
-0.00182346
-0.00222023
-0.0026485
-0.00312113
-0.00364745
-0.00424199
-0.00492773
-0.00572351
-0.00669085
-0.00781176
-0.00930906
-0.0108451
-0.0132853
-0.0147381
-0.0174912
-0.000219203
-0.000436584
-0.000785215
-0.00108432
-0.00143126
-0.00178542
-0.00217341
-0.00259202
-0.00305383
-0.00356807
-0.00414923
-0.00482033
-0.00560125
-0.00655452
-0.00766743
-0.00916993
-0.0107295
-0.0132549
-0.0147902
-0.0176931
-0.000216687
-0.000426448
-0.00076888
-0.00106111
-0.00140048
-0.00174662
-0.00212559
-0.00253426
-0.00298485
-0.00348646
-0.00405344
-0.00470863
-0.00547279
-0.00640867
-0.00750895
-0.00900825
-0.0105826
-0.0131836
-0.0148009
-0.0178754
-0.000214017
-0.000416288
-0.00075218
-0.00103755
-0.00136911
-0.0017071
-0.00207681
-0.00247526
-0.00291426
-0.00340268
-0.00395469
-0.00459271
-0.00533813
-0.00625325
-0.007336
-0.00882316
-0.0104026
-0.0130683
-0.0147622
-0.018033
-0.000211227
-0.000406091
-0.000735126
-0.00101366
-0.00133717
-0.00166688
-0.0020271
-0.00241507
-0.00284209
-0.00331682
-0.00385304
-0.00447264
-0.00519736
-0.00608827
-0.00714837
-0.00861393
-0.0101878
-0.0129055
-0.0146642
-0.018161
-0.00020835
-0.000395847
-0.000717726
-0.000989456
-0.00130469
-0.00162598
-0.00197651
-0.00235373
-0.00276843
-0.00322893
-0.00374861
-0.00434856
-0.0050506
-0.00591384
-0.00694598
-0.00837999
-0.00993694
-0.0126915
-0.0144949
-0.0182558
-0.000205407
-0.000385555
-0.000699983
-0.000964945
-0.0012717
-0.00158445
-0.00192506
-0.0022913
-0.00269332
-0.00313912
-0.0036415
-0.00422061
-0.00489802
-0.00573014
-0.00672888
-0.00812088
-0.00964869
-0.0124219
-0.0142408
-0.0183161
-0.00020239
-0.000375229
-0.000681903
-0.000940148
-0.00123821
-0.0015423
-0.00187281
-0.00222783
-0.00261686
-0.00304748
-0.00353184
-0.00408896
-0.00473983
-0.00553745
-0.00649723
-0.0078363
-0.00932184
-0.0120909
-0.0138853
-0.0183413
-0.000199304
-0.000364875
-0.000663491
-0.000915078
-0.00120426
-0.00149957
-0.0018198
-0.00216338
-0.0025391
-0.00295409
-0.00341976
-0.00395381
-0.00457629
-0.00533615
-0.00625144
-0.00752635
-0.00895572
-0.0116925
-0.0134097
-0.0183271
-0.000196365
-0.000354408
-0.00064477
-0.000889756