x,y,z,p
0,0,0,0.0461847
0,0.1,0,0.101695
0,0.2,0,0.157206
0,0.3,0,0.222076
0,0.4,0,0.296305
0,0.5,0,0.370533
0,0.6,0,0.445119
0,0.7,0,0.519705
0,0.8,0,0.594468
0,0.9,0,0.669408
0,1,0,0.744348
0,1.1,0,0.819512
0,1.2,0,0.894675
0,1.3,0,0.96991
0,1.4,0,1.04521
0,1.5,0,1.12052
0,1.6,0,1.19613
0,1.7,0,1.27174
0,1.8,0,1.34772
0,1.9,0,1.42406
0,2,0,1.5004
0,2.1,0,1.57789
0,2.2,0,1.65537
0,2.3,0,1.73346
0,2.4,0,1.81218
0,2.5,0,1.89089
0,2.6,0,1.97071
0,2.7,0,2.05054
0,2.8,0,2.13101
0,2.9,0,2.21213
0,3,0,2.29326
0,3.1,0,2.3762
0,3.2,0,2.45914
0,3.3,0,2.54253
0,3.4,0,2.62638
0,3.5,0,2.71023
0,3.6,0,2.79177
0,3.7,0,2.8733
0,3.8,0,2.95237
0,3.9,0,3.02897
0,4,0,3.10556
0,4.1,0,3.17683
0,4.2,0,3.24809
0,4.3,0,3.31793
0,4.4,0,3.38636
0,4.5,0,3.45477
0,4.6,0,3.52188
0,4.7,0,3.58899
0,4.8,0,3.6537
0,4.9,0,3.71599
0,5,0,3.77828
0,5.1,0,3.82382
0,5.2,0,3.86935
0,5.3,0,3.91489
0,5.4,0,3.9548
0,5.5,0,3.99472
0,5.6,0,4.03463
0,5.7,0,4.06875
0,5.8,0,4.10287
0,5.9,0,4.13698
0,6,0,4.15773
0,6.1,0,4.17847
0,6.2,0,4.19921
0,6.3,0,4.20519
0,6.4,0,4.21116
0,6.5,0,4.21714
0,6.6,0,4.21292
0,6.7,0,4.20871
0,6.8,0,4.20449
0,6.9,0,4.18711
0,7,0,4.16972
0,7.1,0,4.15234
0,7.2,0,4.12009
0,7.3,0,4.08783
0,7.4,0,4.05558
0,7.5,0,4.01416
0,7.6,0,3.97275
0,7.7,0,3.93133
0,7.8,0,3.88643
0,7.9,0,3.84153
0,8,0,3.79663
0,8.1,0,3.73695
0,8.2,0,3.67727
0,8.3,0,3.61315
0,8.4,0,3.54663
0,8.5,0,3.47889
0,8.6,0,3.40828
0,8.7,0,3.33767
0,8.8,0,3.26642
0,8.9,0,3.19514
0,9,0,3.121
0,9.1,0,3.04495
0,9.2,0,2.96712
0,9.3,0,2.88394
0,9.4,0,2.80077
0,9.5,0,2.71325
0,9.6,0,2.62525
0,9.7,0,2.53698
0,9.8,0,2.4485
0,9.9,0,2.36042
0,10,0,2.27397
0,10.1,0,2.18752
0,10.2,0,2.10223
0,10.3,0,2.01714
0,10.4,0,1.93207
0,10.5,0,1.84702
0,10.6,0,1.76196
0,10.7,0,1.67681
0,10.8,0,1.59166
0,10.9,0,1.50687
0,11,0,1.42218
0,11.1,0,1.3378
0,11.2,0,1.25382
0,11.3,0,1.16988
0,11.4,0,1.08636
0,11.5,0,1.00283
0,11.6,0,0.919368
0,11.7,0,0.835919
0,11.8,0,0.75242
0,11.9,0,0.668843
0,12,0,0.585264
0,12.1,0,0.501618
0,12.2,0,0.417973
0,12.3,0,0.334346
0,12.4,0,0.250728
0,12.5,0,0.174451
0,12.6,0,0.111807
0,12.7,0,0.0491625
0.1,0,0,0.0277108
0.1,0.1,0,0.0831325
0.1,0.2,0,0.147902
0.1,0.3,0,0.221976
0.1,0.4,0,0.296149
0.1,0.5,0,0.370397
0.1,0.6,0,0.444918
0.1,0.7,0,0.519493
0.1,0.8,0,0.59428
0.1,0.9,0,0.669255
0.1,1,0,0.744145
0.1,1.1,0,0.819441
0.1,1.2,0,0.894705
0.1,1.3,0,0.96994
0.1,1.4,0,1.04514
0.1,1.5,0,1.12152
0.1,1.6,0,1.1959
0.1,1.7,0,1.27284
0.1,1.8,0,1.34868
0.1,1.9,0,1.42357
0.1,2,0,1.50444
0.1,2.1,0,1.57724
0.1,2.2,0,1.65761
0.1,2.3,0,1.73573
0.1,2.4,0,1.81159
0.1,2.5,0,1.89605
0.1,2.6,0,1.97019
0.1,2.7,0,2.05217
0.1,2.8,0,2.13251
0.1,2.9,0,2.21135
0.1,3,0,2.29403
0.1,3.1,0,2.37516
0.1,3.2,0,2.45676
0.1,3.3,0,2.54074
0.1,3.4,0,2.62651
0.1,3.5,0,2.70194
0.1,3.6,0,2.79395
0.1,3.7,0,2.86921
0.1,3.8,0,2.94856
0.1,3.9,0,3.03172
0.1,4,0,3.09703
0.1,4.1,0,3.17941
0.1,4.2,0,3.24721
0.1,4.3,0,3.31589
0.1,4.4,0,3.38662
0.1,4.5,0,3.45304
0.1,4.6,0,3.52293
0.1,4.7,0,3.58844
0.1,4.8,0,3.6545
0.1,4.9,0,3.71976
0.1,5,0,3.77738
0.1,5.1,0,3.82752
0.1,5.2,0,3.8739
0.1,5.3,0,3.91903
0.1,5.4,0,3.95726
0.1,5.5,0,3.99759
0.1,5.6,0,4.04127
0.1,5.7,0,4.07389
0.1,5.8,0,4.10767
0.1,5.9,0,4.14158
0.1,6,0,4.16783
0.1,6.1,0,4.1885
0.1,6.2,0,4.20337
0.1,6.3,0,4.2113
0.1,6.4,0,4.21751
0.1,6.5,0,4.22271
0.1,6.6,0,4.21862
0.1,6.7,0,4.21425
0.1,6.8,0,4.20911
0.1,6.9,0,4.19627
0.1,7,0,4.17876
0.1,7.1,0,4.1562
0.1,7.2,0,4.1272
0.1,7.3,0,4.09522
0.1,7.4,0,4.06108
0.1,7.5,0,4.01777
0.1,7.6,0,3.97633
0.1,7.7,0,3.9367
0.1,7.8,0,3.88812
0.1,7.9,0,3.8425
0.1,8,0,3.79768
0.1,8.1,0,3.73911
0.1,8.2,0,3.67612
0.1,8.3,0,3.61514
0.1,8.4,0,3.54873
0.1,8.5,0,3.47587
0.1,8.6,0,3.40786
0.1,8.7,0,3.33204
0.1,8.8,0,3.26747
0.1,8.9,0,3.18977
0.1,9,0,3.11954
0.1,9.1,0,3.04501
0.1,9.2,0,2.95823
0.1,9.3,0,2.8872
0.1,9.4,0,2.79003
0.1,9.5,0,2.71396
0.1,9.6,0,2.62163
0.1,9.7,0,2.53312
0.1,9.8,0,2.44732
0.1,9.9,0,2.35772
0.1,10,0,2.2729
0.1,10.1,0,2.18775
0.1,10.2,0,2.10209
0.1,10.3,0,2.01822
0.1,10.4,0,1.93335
0.1,10.5,0,1.84752
0.1,10.6,0,1.76496
0.1,10.7,0,1.67674
0.1,10.8,0,1.59467
0.1,10.9,0,1.50714
0.1,11,0,1.42335
0.1,11.1,0,1.33938
0.1,11.2,0,1.25361
0.1,11.3,0,1.1719
0.1,11.4,0,1.08623
0.1,11.5,0,1.00367
0.1,11.6,0,0.919651
0.1,11.7,0,0.836109
0.1,11.8,0,0.752695
0.1,11.9,0,0.66891
0.1,12,0,0.585339
0.1,12.1,0,0.501617
0.1,12.2,0,0.417963
0.1,12.3,0,0.334324
0.1,12.4,0,0.250712
0.1,12.5,0,0.167122
0.1,12.6,0,0.0921164
0.1,12.7,0,0.0294975
0.2,0,0,0.00923694
0.2,0.1,0,0.073918
0.2,0.2,0,0.147858
0.2,0.3,0,0.221932
0.2,0.4,0,0.296068
0.2,0.5,0,0.37026
0.2,0.6,0,0.44477
0.2,0.7,0,0.519269
0.2,0.8,0,0.594056
0.2,0.9,0,0.669017
0.2,1,0,0.743942
0.2,1.1,0,0.819339
0.2,1.2,0,0.894837
0.2,1.3,0,0.970071
0.2,1.4,0,1.04624
0.2,1.5,0,1.12251
0.2,1.6,0,1.19822
0.2,1.7,0,1.27526
0.2,1.8,0,1.35111
0.2,1.9,0,1.42906
0.2,2,0,1.50847
0.2,2.1,0,1.58416
0.2,2.2,0,1.66275
0.2,2.3,0,1.74087
0.2,2.4,0,1.81961
0.2,2.5,0,1.90122
0.2,2.6,0,1.97751
0.2,2.7,0,2.05595
0.2,2.8,0,2.13629
0.2,2.9,0,2.21441
0.2,3,0,2.29481
0.2,3.1,0,2.3746
0.2,3.2,0,2.45305
0.2,3.3,0,2.53703
0.2,3.4,0,2.6163
0.2,3.5,0,2.69366
0.2,3.6,0,2.77938
0.2,3.7,0,2.85883
0.2,3.8,0,2.93818
0.2,3.9,0,3.01662
0.2,4,0,3.0885
0.2,4.1,0,3.16742
0.2,4.2,0,3.24287
0.2,4.3,0,3.31155
0.2,4.4,0,3.38258
0.2,4.5,0,3.45131
0.2,4.6,0,3.51959
0.2,4.7,0,3.58627
0.2,4.8,0,3.65234
0.2,4.9,0,3.71589
0.2,5,0,3.77648
0.2,5.1,0,3.82646
0.2,5.2,0,3.8762
0.2,5.3,0,3.92317
0.2,5.4,0,3.96291
0.2,5.5,0,4.0049
0.2,5.6,0,4.0479
0.2,5.7,0,4.08044
0.2,5.8,0,4.11286
0.2,5.9,0,4.14617
0.2,6,0,4.17007
0.2,6.1,0,4.19045
0.2,6.2,0,4.20752
0.2,6.3,0,4.21514
0.2,6.4,0,4.2223
0.2,6.5,0,4.22827
0.2,6.6,0,4.22382
0.2,6.7,0,4.21881
0.2,6.8,0,4.21373
0.2,6.9,0,4.19882
0.2,7,0,4.1808
0.2,7.1,0,4.16006
0.2,7.2,0,4.13031
0.2,7.3,0,4.09942
0.2,7.4,0,4.06658
0.2,7.5,0,4.02399
0.2,7.6,0,3.98246
0.2,7.7,0,3.94207
0.2,7.8,0,3.89352
0.2,7.9,0,3.84502
0.2,8,0,3.79873
0.2,8.1,0,3.73725
0.2,8.2,0,3.673
0.2,8.3,0,3.61039
0.2,8.4,0,3.54268
0.2,8.5,0,3.47163
0.2,8.6,0,3.40023
0.2,8.7,0,3.32612
0.2,8.8,0,3.25592
0.2,8.9,0,3.17966
0.2,9,0,3.1071
0.2,9.1,0,3.02768
0.2,9.2,0,2.94495
0.2,9.3,0,2.86637
0.2,9.4,0,2.77762
0.2,9.5,0,2.69724
0.2,9.6,0,2.61349
0.2,9.7,0,2.52479
0.2,9.8,0,2.44162
0.2,9.9,0,2.35459
0.2,10,0,2.27153
0.2,10.1,0,2.18823
0.2,10.2,0,2.10368
0.2,10.3,0,2.02079
0.2,10.4,0,1.936
0.2,10.5,0,1.85207
0.2,10.6,0,1.76856
0.2,10.7,0,1.68234
0.2,10.8,0,1.5985
0.2,10.9,0,1.51227
0.2,11,0,1.42702
0.2,11.1,0,1.3427
0.2,11.2,0,1.25755
0.2,11.3,0,1.17417
0.2,11.4,0,1.08898
0.2,11.5,0,1.00486
0.2,11.6,0,0.920951
0.2,11.7,0,0.836697
0.2,11.8,0,0.753127
0.2,11.9,0,0.669176
0.2,12,0,0.585419
0.2,12.1,0,0.50168
0.2,12.2,0,0.417949
0.2,12.3,0,0.334318
0.2,12.4,0,0.250718
0.2,12.5,0,0.167125
0.2,12.6,0,0.0835538
0.2,12.7,0,0.00983251
0.3,0,0,0
0.3,0.1,0,0.0739158
0.3,0.2,0,0.147856
0.3,0.3,0,0.221758
0.3,0.4,0,0.295894
0.3,0.5,0,0.369837
0.3,0.6,0,0.444397
0.3,0.7,0,0.518896
0.3,0.8,0,0.593536
0.3,0.9,0,0.668496
0.3,1,0,0.74338
0.3,1.1,0,0.819048
0.3,1.2,0,0.894546
0.3,1.3,0,0.970887
0.3,1.4,0,1.04706
0.3,1.5,0,1.12337
0.3,1.6,0,1.20139
0.3,1.7,0,1.27843
0.3,1.8,0,1.35763
0.3,1.9,0,1.43558
0.3,2,0,1.51218
0.3,2.1,0,1.59377
0.3,2.2,0,1.67235
0.3,2.3,0,1.75181
0.3,2.4,0,1.83055
0.3,2.5,0,1.90577
0.3,2.6,0,1.98722
0.3,2.7,0,2.06566
0.3,2.8,0,2.14169
0.3,2.9,0,2.21981
0.3,3,0,2.29579
0.3,3.1,0,2.3723
0.3,3.2,0,2.45075
0.3,3.3,0,2.52448
0.3,3.4,0,2.60376
0.3,3.5,0,2.688
0.3,3.6,0,2.75879
0.3,3.7,0,2.83823
0.3,3.8,0,2.91727
0.3,3.9,0,2.99571
0.3,4,0,3.08381
0.3,4.1,0,3.1542
0.3,4.2,0,3.22966
0.3,4.3,0,3.30739
0.3,4.4,0,3.37842
0.3,4.5,0,3.45256
0.3,4.6,0,3.51683
0.3,4.7,0,3.58351
0.3,4.8,0,3.64645
0.3,4.9,0,3.71001
0.3,5,0,3.77924
0.3,5.1,0,3.82875
0.3,5.2,0,3.87848
0.3,5.3,0,3.93087
0.3,5.4,0,3.97718
0.3,5.5,0,4.01917
0.3,5.6,0,4.05877
0.3,5.7,0,4.09271
0.3,5.8,0,4.12512
0.3,5.9,0,4.15577
0.3,6,0,4.17618
0.3,6.1,0,4.19656
0.3,6.2,0,4.21686
0.3,6.3,0,4.22566
0.3,6.4,0,4.23282
0.3,6.5,0,4.23903
0.3,6.6,0,4.23556
0.3,6.7,0,4.23055
0.3,6.8,0,4.22357
0.3,6.9,0,4.20556
0.3,7,0,4.18754
0.3,7.1,0,4.16904
0.3,7.2,0,4.139
0.3,7.3,0,4.10812
0.3,7.4,0,4.0768
0.3,7.5,0,4.0373
0.3,7.6,0,3.99577
0.3,7.7,0,3.95153
0.3,7.8,0,3.90169
0.3,7.9,0,3.8532
0.3,8,0,3.80368
0.3,8.1,0,3.73333
0.3,8.2,0,3.67028
0.3,8.3,0,3.60185
0.3,8.4,0,3.53414
0.3,8.5,0,3.46601
0.3,8.6,0,3.39181
0.3,8.7,0,3.32309
0.3,8.8,0,3.24067
0.3,8.9,0,3.16583
0.3,9,0,3.08188
0.3,9.1,0,3.00246
0.3,9.2,0,2.92624
0.3,9.3,0,2.83846
0.3,9.4,0,2.76512
0.3,9.5,0,2.67552
0.3,9.6,0,2.59244
0.3,9.7,0,2.51398
0.3,9.8,0,2.43081
0.3,9.9,0,2.35231
0.3,10,0,2.2698
0.3,10.1,0,2.18787
0.3,10.2,0,2.10731
0.3,10.3,0,2.02443
0.3,10.4,0,1.94255
0.3,10.5,0,1.85861
0.3,10.6,0,1.77315
0.3,10.7,0,1.69016
0.3,10.8,0,1.60377
0.3,10.9,0,1.5198
0.3,11,0,1.43456
0.3,11.1,0,1.34833
0.3,11.2,0,1.2633
0.3,11.3,0,1.1765
0.3,11.4,0,1.09233
0.3,11.5,0,1.0071
0.3,11.6,0,0.922348
0.3,11.7,0,0.838095
0.3,11.8,0,0.753428
0.3,11.9,0,0.669503
0.3,12,0,0.5852
0.3,12.1,0,0.501673
0.3,12.2,0,0.417831
0.3,12.3,0,0.33427
0.3,12.4,0,0.25067
0.3,12.5,0,0.167122
0.3,12.6,0,0.083616
0.3,12.7,0,0
0.4,0,0,0
0.4,0.1,0,0.0738911
0.4,0.2,0,0.1475
0.4,0.3,0,0.221402
0.4,0.4,0,0.295379
0.4,0.5,0,0.369129
0.4,0.6,0,0.443749
0.4,0.7,0,0.517939
0.4,0.8,0,0.592578
0.4,0.9,0,0.667651
0.4,1,0,0.742458
0.4,1.1,0,0.818297
0.4,1.2,0,0.894167
0.4,1.3,0,0.970508
0.4,1.4,0,1.04764
0.4,1.5,0,1.1241
0.4,1.6,0,1.20309
0.4,1.7,0,1.28057
0.4,1.8,0,1.35977
0.4,1.9,0,1.44032
0.4,2,0,1.51556
0.4,2.1,0,1.60016
0.4,2.2,0,1.67639
0.4,2.3,0,1.75585
0.4,2.4,0,1.83802
0.4,2.5,0,1.9097
0.4,2.6,0,1.99417
0.4,2.7,0,2.0687
0.4,2.8,0,2.14474
0.4,2.9,0,2.22315
0.4,3,0,2.29698
0.4,3.1,0,2.37155
0.4,3.2,0,2.44934
0.4,3.3,0,2.52307
0.4,3.4,0,2.59575
0.4,3.5,0,2.68496
0.4,3.6,0,2.7471
0.4,3.7,0,2.83563
0.4,3.8,0,2.91466
0.4,3.9,0,2.98521
0.4,4,0,3.08296
0.4,4.1,0,3.14829
0.4,4.2,0,3.23147
0.4,4.3,0,3.30921
0.4,4.4,0,3.37955
0.4,4.5,0,3.4568
0.4,4.6,0,3.51865
0.4,4.7,0,3.58847
0.4,4.8,0,3.65141
0.4,4.9,0,3.71075
0.4,5,0,3.78565
0.4,5.1,0,3.83501
0.4,5.2,0,3.88798
0.4,5.3,0,3.94213
0.4,5.4,0,3.99131
0.4,5.5,0,4.03587
0.4,5.6,0,4.07388
0.4,5.7,0,4.10882
0.4,5.8,0,4.14091
0.4,5.9,0,4.17038
0.4,6,0,4.19081
0.4,6.1,0,4.21113
0.4,6.2,0,4.23139
0.4,6.3,0,4.24129
0.4,6.4,0,4.24939
0.4,6.5,0,4.25498
0.4,6.6,0,4.25253
0.4,6.7,0,4.24694
0.4,6.8,0,4.23864
0.4,6.9,0,4.22063
0.4,7,0,4.20198
0.4,7.1,0,4.18316
0.4,7.2,0,4.15368
0.4,7.3,0,4.12334
0.4,7.4,0,4.09174
0.4,7.5,0,4.05358
0.4,7.6,0,4.01113
0.4,7.7,0,3.96508
0.4,7.8,0,3.91435
0.4,7.9,0,3.86272
0.4,8,0,3.81253
0.4,8.1,0,3.73567
0.4,8.2,0,3.67503
0.4,8.3,0,3.60465
0.4,8.4,0,3.535
0.4,8.5,0,3.46891
0.4,8.6,0,3.38903
0.4,8.7,0,3.32423
0.4,8.8,0,3.23451
0.4,8.9,0,3.16454
0.4,9,0,3.07751
0.4,9.1,0,2.99318
0.4,9.2,0,2.92304
0.4,9.3,0,2.82306
0.4,9.4,0,2.76086
0.4,9.5,0,2.66333
0.4,9.6,0,2.58837
0.4,9.7,0,2.5093
0.4,9.8,0,2.42546
0.4,9.9,0,2.35011
0.4,10,0,2.2684
0.4,10.1,0,2.18799
0.4,10.2,0,2.10902
0.4,10.3,0,2.02618
0.4,10.4,0,1.9444
0.4,10.5,0,1.86302
0.4,10.6,0,1.77572
0.4,10.7,0,1.69559
0.4,10.8,0,1.60668
0.4,10.9,0,1.52435
0.4,11,0,1.43762
0.4,11.1,0,1.35098
0.4,11.2,0,1.26684
0.4,11.3,0,1.17832
0.4,11.4,0,1.09462
0.4,11.5,0,1.00786
0.4,11.6,0,0.92325
0.4,11.7,0,0.838162
0.4,11.8,0,0.753309
0.4,11.9,0,0.669328
0.4,12,0,0.58463
0.4,12.1,0,0.501341
0.4,12.2,0,0.417215
0.4,12.3,0,0.333778
0.4,12.4,0,0.250334
0.4,12.5,0,0.166732
0.4,12.6,0,0.0836388
0.4,12.7,0,0
0.5,0,0,0
0.5,0.1,0,0.0735847
0.5,0.2,0,0.147169
0.5,0.3,0,0.220854
0.5,0.4,0,0.294638
0.5,0.5,0,0.368422
0.5,0.6,0,0.442671
0.5,0.7,0,0.516921
0.5,0.8,0,0.591544
0.5,0.9,0,0.66654
0.5,1,0,0.741536
0.5,1.1,0,0.817576
0.5,1.2,0,0.893617
0.5,1.3,0,0.970274
0.5,1.4,0,1.04755
0.5,1.5,0,1.12482
0.5,1.6,0,1.20327
0.5,1.7,0,1.28173
0.5,1.8,0,1.36055
0.5,1.9,0,1.43975
0.5,2,0,1.51894
0.5,2.1,0,1.59818
0.5,2.2,0,1.67742
0.5,2.3,0,1.75636
0.5,2.4,0,1.835
0.5,2.5,0,1.91364
0.5,2.6,0,1.99119
0.5,2.7,0,2.06874
0.5,2.8,0,2.14564
0.5,2.9,0,2.22191
0.5,3,0,2.29817
0.5,3.1,0,2.37402
0.5,3.2,0,2.44987
0.5,3.3,0,2.52662
0.5,3.4,0,2.60428
0.5,3.5,0,2.68193
0.5,3.6,0,2.7618
0.5,3.7,0,2.84168
0.5,3.8,0,2.92171
0.5,3.9,0,3.00191
0.5,4,0,3.0821
0.5,4.1,0,3.16023
0.5,4.2,0,3.23835
0.5,4.3,0,3.31414
0.5,4.4,0,3.38759
0.5,4.5,0,3.46104
0.5,4.6,0,3.52845
0.5,4.7,0,3.59585
0.5,4.8,0,3.66205
0.5,4.9,0,3.72706
0.5,5,0,3.79207
0.5,5.1,0,3.84584
0.5,5.2,0,3.89961
0.5,5.3,0,3.95338
0.5,5.4,0,3.99858
0.5,5.5,0,4.04378
0.5,5.6,0,4.08898
0.5,5.7,0,4.12098
0.5,5.8,0,4.15299
0.5,5.9,0,4.18499
0.5,6,0,4.2053
0.5,6.1,0,4.22561
0.5,6.2,0,4.24592
0.5,6.3,0,4.25426
0.5,6.4,0,4.26259
0.5,6.5,0,4.27093
0.5,6.6,0,4.26519
0.5,6.7,0,4.25945
0.5,6.8,0,4.25371
0.5,6.9,0,4.2349
0.5,7,0,4.21609
0.5,7.1,0,4.19728
0.5,7.2,0,4.16708
0.5,7.3,0,4.13687
0.5,7.4,0,4.10667
0.5,7.5,0,4.06399
0.5,7.6,0,4.02131
0.5,7.7,0,3.97863
0.5,7.8,0,3.92621
0.5,7.9,0,3.87379
0.5,8,0,3.82137
0.5,8.1,0,3.7529
0.5,8.2,0,3.68442
0.5,8.3,0,3.61517
0.5,8.4,0,3.5455
0.5,8.5,0,3.47445
0.5,8.6,0,3.40018
0.5,8.7,0,3.32591
0.5,8.8,0,3.24778
0.5,8.9,0,3.16945
0.5,9,0,3.08925
0.5,9.1,0,3.00779
0.5,9.2,0,2.92586
0.5,9.3,0,2.84249
0.5,9.4,0,2.75912
0.5,9.5,0,2.67585
0.5,9.6,0,2.5926
0.5,9.7,0,2.51048
0.5,9.8,0,2.42931
0.5,9.9,0,2.34834
0.5,10,0,2.2682
0.5,10.1,0,2.18806
0.5,10.2,0,2.107
0.5,10.3,0,2.02578
0.5,10.4,0,1.94367
0.5,10.5,0,1.86068
0.5,10.6,0,1.77745
0.5,10.7,0,1.69293
0.5,10.8,0,1.60841
0.5,10.9,0,1.52308
0.5,11,0,1.43755
0.5,11.1,0,1.35182
0.5,11.2,0,1.26585
0.5,11.3,0,1.17989
0.5,11.4,0,1.09409
0.5,11.5,0,1.00828
0.5,11.6,0,0.922936
0.5,11.7,0,0.837744
0.5,11.8,0,0.752858
0.5,11.9,0,0.668429
0.5,12,0,0.584031
0.5,12.1,0,0.500237
0.5,12.2,0,0.416443
0.5,12.3,0,0.332954
0.5,12.4,0,0.249594
0.5,12.5,0,0.166307
0.5,12.6,0,0.0831534
0.5,12.7,0,0
0.6,0,0,0
0.6,0.1,0,0.0732318
0.6,0.2,0,0.146656
0.6,0.3,0,0.219971
0.6,0.4,0,0.293544
0.6,0.5,0,0.36723
0.6,0.6,0,0.441014
0.6,0.7,0,0.515341
0.6,0.8,0,0.589782
0.6,0.9,0,0.664518
0.6,1,0,0.739946
0.6,1.1,0,0.815678
0.6,1.2,0,0.891888
0.6,1.3,0,0.968807
0.6,1.4,0,1.04617
0.6,1.5,0,1.12322
0.6,1.6,0,1.20238
0.6,1.7,0,1.28033
0.6,1.8,0,1.35911
0.6,1.9,0,1.43877
0.6,2,0,1.51656
0.6,2.1,0,1.59653
0.6,2.2,0,1.67524
0.6,2.3,0,1.75393
0.6,2.4,0,1.83286
0.6,2.5,0,1.911
0.6,2.6,0,1.98953
0.6,2.7,0,2.06693
0.6,2.8,0,2.14467
0.6,2.9,0,2.22192
0.6,3,0,2.29771
0.6,3.1,0,2.37608
0.6,3.2,0,2.45186
0.6,3.3,0,2.53025
0.6,3.4,0,2.6096
0.6,3.5,0,2.68677
0.6,3.6,0,2.77527
0.6,3.7,0,2.85207
0.6,3.8,0,2.93403
0.6,3.9,0,3.01922
0.6,4,0,3.09061
0.6,4.1,0,3.1757
0.6,4.2,0,3.25071
0.6,4.3,0,3.32569
0.6,4.4,0,3.40144
0.6,4.5,0,3.47239
0.6,4.6,0,3.54454
0.6,4.7,0,3.61132
0.6,4.8,0,3.67687
0.6,4.9,0,3.74185
0.6,5,0,3.80993
0.6,5.1,0,3.86198
0.6,5.2,0,3.91608
0.6,5.3,0,3.97319
0.6,5.4,0,4.02102
0.6,5.5,0,4.06659
0.6,5.6,0,4.111
0.6,5.7,0,4.14694
0.6,5.8,0,4.17934
0.6,5.9,0,4.20938
0.6,6,0,4.23217
0.6,6.1,0,4.25272
0.6,6.2,0,4.27175
0.6,6.3,0,4.28231
0.6,6.4,0,4.29073
0.6,6.5,0,4.29723
0.6,6.6,0,4.29451
0.6,6.7,0,4.28875
0.6,6.8,0,4.27989
0.6,6.9,0,4.26223
0.6,7,0,4.24329
0.6,7.1,0,4.22265
0.6,7.2,0,4.19394
0.6,7.3,0,4.1634
0.6,7.4,0,4.13002
0.6,7.5,0,4.08916
0.6,7.6,0,4.04604
0.6,7.7,0,3.99935
0.6,7.8,0,3.94539
0.6,7.9,0,3.89266
0.6,8,0,3.84024
0.6,8.1,0,3.76772
0.6,8.2,0,3.70094
0.6,8.3,0,3.63286
0.6,8.4,0,3.56269
0.6,8.5,0,3.48984
0.6,8.6,0,3.4153
0.6,8.7,0,3.33931
0.6,8.8,0,3.2647
0.6,8.9,0,3.18335
0.6,9,0,3.10709
0.6,9.1,0,3.02685
0.6,9.2,0,2.93875
0.6,9.3,0,2.86329
0.6,9.4,0,2.76813
0.6,9.5,0,2.68738
0.6,9.6,0,2.60067
0.6,9.7,0,2.51395
0.6,9.8,0,2.43183
0.6,9.9,0,2.35015
0.6,10,0,2.26839
0.6,10.1,0,2.18857
0.6,10.2,0,2.10652
0.6,10.3,0,2.02524
0.6,10.4,0,1.94281
0.6,10.5,0,1.8595
0.6,10.6,0,1.77632
0.6,10.7,0,1.69148
0.6,10.8,0,1.60712
0.6,10.9,0,1.5218
0.6,11,0,1.43633
0.6,11.1,0,1.35076
0.6,11.2,0,1.26486
0.6,11.3,0,1.17898
0.6,11.4,0,1.09311
0.6,11.5,0,1.00745
0.6,11.6,0,0.92174
0.6,11.7,0,0.836627
0.6,11.8,0,0.751713
0.6,11.9,0,0.666811
0.6,12,0,0.583145
0.6,12.1,0,0.498658
0.6,12.2,0,0.415418
0.6,12.3,0,0.331837
0.6,12.4,0,0.248588
0.6,12.5,0,0.165801
0.6,12.6,0,0.0826221
0.6,12.7,0,0
0.7,0,0,0
0.7,0.1,0,0.0730718
0.7,0.2,0,0.145983
0.7,0.3,0,0.219298
0.7,0.4,0,0.292563
0.7,0.5,0,0.366039
0.7,0.6,0,0.4399
0.7,0.7,0,0.513838
0.7,0.8,0,0.588279
0.7,0.9,0,0.663187
0.7,1,0,0.738356
0.7,1.1,0,0.814258
0.7,1.2,0,0.890329
0.7,1.3,0,0.967248
0.7,1.4,0,1.04448
0.7,1.5,0,1.12161
0.7,1.6,0,1.20027
0.7,1.7,0,1.27842
0.7,1.8,0,1.35721
0.7,1.9,0,1.43592
0.7,2,0,1.51418
0.7,2.1,0,1.59361
0.7,2.2,0,1.67252
0.7,2.3,0,1.75121
0.7,2.4,0,1.82993
0.7,2.5,0,1.90835
0.7,2.6,0,1.98673
0.7,2.7,0,2.06496
0.7,2.8,0,2.1427
0.7,2.9,0,2.22047
0.7,3,0,2.29724
0.7,3.1,0,2.37555
0.7,3.2,0,2.45379
0.7,3.3,0,2.53217
0.7,3.4,0,2.61274
0.7,3.5,0,2.69161
0.7,3.6,0,2.77704
0.7,3.7,0,2.8594
0.7,3.8,0,2.94136
0.7,3.9,0,3.02274
0.7,4,0,3.09912
0.7,4.1,0,3.1811
0.7,4.2,0,3.25996
0.7,4.3,0,3.33493
0.7,4.4,0,3.41049
0.7,4.5,0,3.48374
0.7,4.6,0,3.55527
0.7,4.7,0,3.62617
0.7,4.8,0,3.69172
0.7,4.9,0,3.75974
0.7,5,0,3.8278
0.7,5.1,0,3.88118
0.7,5.2,0,3.93657
0.7,5.3,0,3.99299
0.7,5.4,0,4.04051
0.7,5.5,0,4.08756
0.7,5.6,0,4.13302
0.7,5.7,0,4.16818
0.7,5.8,0,4.20215
0.7,5.9,0,4.23377
0.7,6,0,4.25604
0.7,6.1,0,4.27756
0.7,6.2,0,4.29758
0.7,6.3,0,4.30741
0.7,6.4,0,4.31614
0.7,6.5,0,4.32353
0.7,6.6,0,4.31957
0.7,6.7,0,4.31372
0.7,6.8,0,4.30607
0.7,6.9,0,4.28768
0.7,7,0,4.26819
0.7,7.1,0,4.24801
0.7,7.2,0,4.21804
0.7,7.3,0,4.18615
0.7,7.4,0,4.15337
0.7,7.5,0,4.1109
0.7,7.6,0,4.06603
0.7,7.7,0,4.02006
0.7,7.8,0,3.9661
0.7,7.9,0,3.91214
0.7,8,0,3.85911
0.7,8.1,0,3.78785
0.7,8.2,0,3.71847
0.7,8.3,0,3.64996
0.7,8.4,0,3.57815
0.7,8.5,0,3.50537
0.7,8.6,0,3.42906
0.7,8.7,0,3.35261
0.7,8.8,0,3.27535
0.7,8.9,0,3.19501
0.7,9,0,3.11719
0.7,9.1,0,3.03399
0.7,9.2,0,2.94876
0.7,9.3,0,2.86591
0.7,9.4,0,2.77573
0.7,9.5,0,2.69179
0.7,9.6,0,2.60541
0.7,9.7,0,2.51866
0.7,9.8,0,2.43484
0.7,9.9,0,2.3524
0.7,10,0,2.27037
0.7,10.1,0,2.18915
0.7,10.2,0,2.10714
0.7,10.3,0,2.02479
0.7,10.4,0,1.94234
0.7,10.5,0,1.85871
0.7,10.6,0,1.77524
0.7,10.7,0,1.69047
0.7,10.8,0,1.60588
0.7,10.9,0,1.52061
0.7,11,0,1.43521
0.7,11.1,0,1.34963
0.7,11.2,0,1.26389
0.7,11.3,0,1.17807
0.7,11.4,0,1.09232
0.7,11.5,0,1.00667
0.7,11.6,0,0.92111
0.7,11.7,0,0.835905
0.7,11.8,0,0.750919
0.7,11.9,0,0.666376
0.7,12,0,0.582297
0.7,12.1,0,0.498227
0.7,12.2,0,0.414653
0.7,12.3,0,0.331255
0.7,12.4,0,0.248187
0.7,12.5,0,0.16531
0.7,12.6,0,0.082611
0.7,12.7,0,0
0.8,0,0,0
0.8,0.1,0,0.0726542
0.8,0.2,0,0.145566
0.8,0.3,0,0.21827
0.8,0.4,0,0.291536
0.8,0.5,0,0.364776
0.8,0.6,0,0.438448
0.8,0.7,0,0.512386
0.8,0.8,0,0.586653
0.8,0.9,0,0.661562
0.8,1,0,0.736282
0.8,1.1,0,0.8124
0.8,1.2,0,0.888472
0.8,1.3,0,0.964912
0.8,1.4,0,1.04214
0.8,1.5,0,1.11869
0.8,1.6,0,1.19728
0.8,1.7,0,1.27543
0.8,1.8,0,1.3537
0.8,1.9,0,1.43242
0.8,2,0,1.51009
0.8,2.1,0,1.59016
0.8,2.2,0,1.66907
0.8,2.3,0,1.74819
0.8,2.4,0,1.8269
0.8,2.5,0,1.90435
0.8,2.6,0,1.98408
0.8,2.7,0,2.0623
0.8,2.8,0,2.14043
0.8,2.9,0,2.2182
0.8,3,0,2.29592
0.8,3.1,0,2.3743
0.8,3.2,0,2.45254
0.8,3.3,0,2.53192
0.8,3.4,0,2.61249
0.8,3.5,0,2.69672
0.8,3.6,0,2.77564
0.8,3.7,0,2.858
0.8,3.8,0,2.94096
0.8,3.9,0,3.02234
0.8,4,0,3.11008
0.8,4.1,0,3.18481
0.8,4.2,0,3.26367
0.8,4.3,0,3.34354
0.8,4.4,0,3.4191
0.8,4.5,0,3.4982
0.8,4.6,0,3.56816
0.8,4.7,0,3.63906
0.8,4.8,0,3.70974
0.8,4.9,0,3.77776
0.8,5,0,3.84936
0.8,5.1,0,3.90535
0.8,5.2,0,3.96074
0.8,5.3,0,4.01702
0.8,5.4,0,4.06707
0.8,5.5,0,4.11412
0.8,5.6,0,4.15964
0.8,5.7,0,4.19582
0.8,5.8,0,4.2298
0.8,5.9,0,4.26328
0.8,6,0,4.28587
0.8,6.1,0,4.30738
0.8,6.2,0,4.32889
0.8,6.3,0,4.3394
0.8,6.4,0,4.34813
0.8,6.5,0,4.35533
0.8,6.6,0,4.35125
0.8,6.7,0,4.3454
0.8,6.8,0,4.33775
0.8,6.9,0,4.3189
0.8,7,0,4.29942
0.8,7.1,0,4.27867
0.8,7.2,0,4.24722
0.8,7.3,0,4.21534
0.8,7.4,0,4.18153
0.8,7.5,0,4.13738
0.8,7.6,0,4.09251
0.8,7.7,0,4.04537
0.8,7.8,0,3.98976
0.8,7.9,0,3.9358
0.8,8,0,3.88237
0.8,8.1,0,3.80846
0.8,8.2,0,3.73928
0.8,8.3,0,3.66802
0.8,8.4,0,3.59621
0.8,8.5,0,3.52202
0.8,8.6,0,3.44453
0.8,8.7,0,3.36865
0.8,8.8,0,3.28487
0.8,8.9,0,3.2052
0.8,9,0,3.119
0.8,9.1,0,3.0358
0.8,9.2,0,2.95316
0.8,9.3,0,2.86383
0.8,9.4,0,2.782
0.8,9.5,0,2.69168
0.8,9.6,0,2.6055
0.8,9.7,0,2.52151
0.8,9.8,0,2.43769
0.8,9.9,0,2.35454
0.8,10,0,2.27277
0.8,10.1,0,2.18982
0.8,10.2,0,2.10845
0.8,10.3,0,2.0261
0.8,10.4,0,1.94256
0.8,10.5,0,1.85893
0.8,10.6,0,1.77347
0.8,10.7,0,1.69001
0.8,10.8,0,1.60412
0.8,10.9,0,1.51978
0.8,11,0,1.43437
0.8,11.1,0,1.3486
0.8,11.2,0,1.26292
0.8,11.3,0,1.17612
0.8,11.4,0,1.09148
0.8,11.5,0,1.00538
0.8,11.6,0,0.920533
0.8,11.7,0,0.835327
0.8,11.8,0,0.750374
0.8,11.9,0,0.665979
0.8,12,0,0.581301
0.8,12.1,0,0.497834
0.8,12.2,0,0.414129
0.8,12.3,0,0.330995
0.8,12.4,0,0.247927
0.8,12.5,0,0.165111
0.8,12.6,0,0.0824812
0.8,12.7,0,0
0.9,0,0,0
0.9,0.1,0,0.0723967
0.9,0.2,0,0.14487
0.9,0.3,0,0.217574
0.9,0.4,0,0.290226
0.9,0.5,0,0.363441
0.9,0.6,0,0.436847
0.9,0.7,0,0.51046
0.9,0.8,0,0.584726
0.9,0.9,0,0.659193
0.9,1,0,0.733725
0.9,1.1,0,0.809889
0.9,1.2,0,0.885135
0.9,1.3,0,0.961576
0.9,1.4,0,1.03858
0.9,1.5,0,1.11444
0.9,1.6,0,1.19347
0.9,1.7,0,1.27029
0.9,1.8,0,1.34856
0.9,1.9,0,1.42768
0.9,2,0,1.50431
0.9,2.1,0,1.58555
0.9,2.2,0,1.66318
0.9,2.3,0,1.7423
0.9,2.4,0,1.82281
0.9,2.5,0,1.899
0.9,2.6,0,1.98022
0.9,2.7,0,2.05815
0.9,2.8,0,2.13628
0.9,2.9,0,2.21605
0.9,3,0,2.29373
0.9,3.1,0,2.37226
0.9,3.2,0,2.45353
0.9,3.3,0,2.53291
0.9,3.4,0,2.61421
0.9,3.5,0,2.70211
0.9,3.6,0,2.77758
0.9,3.7,0,2.86795
0.9,3.8,0,2.95092
0.9,3.9,0,3.02938
0.9,4,0,3.12348
0.9,4.1,0,3.19409
0.9,4.2,0,3.2791
0.9,4.3,0,3.35898
0.9,4.4,0,3.43312
0.9,4.5,0,3.51577
0.9,4.6,0,3.58478
0.9,4.7,0,3.66025
0.9,4.8,0,3.73093
0.9,4.9,0,3.79944
0.9,5,0,3.87461
0.9,5.1,0,3.93101
0.9,5.2,0,3.9884
0.9,5.3,0,4.04528
0.9,5.4,0,4.09733
0.9,5.5,0,4.14635
0.9,5.6,0,4.19086
0.9,5.7,0,4.22851
0.9,5.8,0,4.26477
0.9,5.9,0,4.29792
0.9,6,0,4.32123
0.9,6.1,0,4.34418
0.9,6.2,0,4.36568
0.9,6.3,0,4.37738
0.9,6.4,0,4.38644
0.9,6.5,0,4.39261
0.9,6.6,0,4.38971
0.9,6.7,0,4.38379
0.9,6.8,0,4.37493
0.9,6.9,0,4.35651
0.9,7,0,4.33621
0.9,7.1,0,4.31463
0.9,7.2,0,4.28347
0.9,7.3,0,4.2496
0.9,7.4,0,4.21451
0.9,7.5,0,4.17085
0.9,7.6,0,4.12392
0.9,7.7,0,4.07527
0.9,7.8,0,4.01857
0.9,7.9,0,3.96312
0.9,8,0,3.91004
0.9,8.1,0,3.83196
0.9,8.2,0,3.76451
0.9,8.3,0,3.69241
0.9,8.4,0,3.61791
0.9,8.5,0,3.544
0.9,8.6,0,3.46297
0.9,8.7,0,3.38757
0.9,8.8,0,3.29978
0.9,8.9,0,3.22164
0.9,9,0,3.13363
0.9,9.1,0,3.04627
0.9,9.2,0,2.96668
0.9,9.3,0,2.86876
0.9,9.4,0,2.79148
0.9,9.5,0,2.69642
0.9,9.6,0,2.61062
0.9,9.7,0,2.5263
0.9,9.8,0,2.4392
0.9,9.9,0,2.35617
0.9,10,0,2.274
0.9,10.1,0,2.18899
0.9,10.2,0,2.10873
0.9,10.3,0,2.02366
0.9,10.4,0,1.94008
0.9,10.5,0,1.85706
0.9,10.6,0,1.76978
0.9,10.7,0,1.68804
0.9,10.8,0,1.59994
0.9,10.9,0,1.51686
0.9,11,0,1.43056
0.9,11.1,0,1.34448
0.9,11.2,0,1.26056
0.9,11.3,0,1.17252
0.9,11.4,0,1.08932
0.9,11.5,0,1.00256
0.9,11.6,0,0.918292
0.9,11.7,0,0.833489
0.9,11.8,0,0.748383
0.9,11.9,0,0.664942
0.9,12,0,0.580012
0.9,12.1,0,0.496877
0.9,12.2,0,0.413383
0.9,12.3,0,0.330309
0.9,12.4,0,0.247578
0.9,12.5,0,0.164796
0.9,12.6,0,0.0823113
0.9,12.7,0,0
1,0,0,0
1,0.1,0,0.0722158
1,0.2,0,0.144432
1,0.3,0,0.216853
1,0.4,0,0.289479
1,0.5,0,0.362105
1,0.6,0,0.435452
1,0.7,0,0.508799
1,0.8,0,0.582611
1,0.9,0,0.656889
1,1,0,0.731167
1,1.1,0,0.80646
1,1.2,0,0.881752
1,1.3,0,0.957559
1,1.4,0,1.03388
1,1.5,0,1.1102
1,1.6,0,1.18745
1,1.7,0,1.2647
1,1.8,0,1.34237
1,1.9,0,1.42045
1,2,0,1.49854
1,2.1,0,1.57733
1,2.2,0,1.65613
1,2.3,0,1.73515
1,2.4,0,1.8144
1,2.5,0,1.89365
1,2.6,0,1.97307
1,2.7,0,2.0525
1,2.8,0,2.13208
1,2.9,0,2.21181
1,3,0,2.29155
1,3.1,0,2.37296
1,3.2,0,2.45437
1,3.3,0,2.53756
1,3.4,0,2.62253
1,3.5,0,2.7075
1,3.6,0,2.79443
1,3.7,0,2.88136
1,3.8,0,2.96723
1,3.9,0,3.05205
1,4,0,3.13688
1,4.1,0,3.21777
1,4.2,0,3.29866
1,4.3,0,3.37795
1,4.4,0,3.45564
1,4.5,0,3.53333
1,4.6,0,3.60786
1,4.7,0,3.68239
1,4.8,0,3.7557
1,4.9,0,3.82778
1,5,0,3.89986
1,5.1,0,3.95775
1,5.2,0,4.01564
1,5.3,0,4.07353
1,5.4,0,4.12305
1,5.5,0,4.17256
1,5.6,0,4.22208
1,5.7,0,4.2589
1,5.8,0,4.29573
1,5.9,0,4.33256
1,6,0,4.35586
1,6.1,0,4.37917
1,6.2,0,4.40247
1,6.3,0,4.41162
1,6.4,0,4.42076
1,6.5,0,4.4299
1,6.6,0,4.42397
1,6.7,0,4.41804
1,6.8,0,4.41211
1,6.9,0,4.3916
1,7,0,4.37109
1,7.1,0,4.35058
1,7.2,0,4.31621
1,7.3,0,4.28185
1,7.4,0,4.24749
1,7.5,0,4.20005
1,7.6,0,4.15262
1,7.7,0,4.10518
1,7.8,0,4.04936
1,7.9,0,3.99353
1,8,0,3.93771
1,8.1,0,3.86522
1,8.2,0,3.79273
1,8.3,0,3.71844
1,8.4,0,3.64317
1,8.5,0,3.56652
1,8.6,0,3.48662
1,8.7,0,3.40673
1,8.8,0,3.32417
1,8.9,0,3.24146
1,9,0,3.15659
1,9.1,0,3.07027
1,9.2,0,2.98297
1,9.3,0,2.89273
1,9.4,0,2.8025
1,9.5,0,2.71163
1,9.6,0,2.62069
1,9.7,0,2.53163
1,9.8,0,2.4441
1,9.9,0,2.35716
1,10,0,2.27261
1,10.1,0,2.18806
1,10.2,0,2.1038
1,10.3,0,2.01959
1,10.4,0,1.93509
1,10.5,0,1.85029
1,10.6,0,1.76543
1,10.7,0,1.68021
1,10.8,0,1.59499
1,10.9,0,1.50968
1,11,0,1.42435
1,11.1,0,1.33908
1,11.2,0,1.25389
1,11.3,0,1.16873
1,11.4,0,1.08389
1,11.5,0,0.999043
1,11.6,0,0.914587
1,11.7,0,0.830261
1,11.8,0,0.74617
1,11.9,0,0.662432
1,12,0,0.578724
1,12.1,0,0.495595
1,12.2,0,0.412466
1,12.3,0,0.329702
1,12.4,0,0.247093
1,12.5,0,0.164594
1,12.6,0,0.0822969
1,12.7,0,0
1.1,0,0,0
1.1,0.1,0,0.0717739
1.1,0.2,0,0.143696
1.1,0.3,0,0.215684
1.1,0.4,0,0.288172
1.1,0.5,0,0.360044
1.1,0.6,0,0.433177
1.1,0.7,0,0.506105
1.1,0.8,0,0.579413
1.1,0.9,0,0.653605
1.1,1,0,0.726987
1.1,1.1,0,0.801982
1.1,1.2,0,0.876921
1.1,1.3,0,0.952115
1.1,1.4,0,1.02818
1.1,1.5,0,1.10417
1.1,1.6,0,1.18058
1.1,1.7,0,1.25801
1.1,1.8,0,1.3351
1.1,1.9,0,1.41242
1.1,2,0,1.49214
1.1,2.1,0,1.56849
1.1,2.2,0,1.64889
1.1,2.3,0,1.728
1.1,2.4,0,1.80572
1.1,2.5,0,1.88922
1.1,2.6,0,1.96584
1.1,2.7,0,2.04736
1.1,2.8,0,2.12817
1.1,2.9,0,2.20705
1.1,3,0,2.28995
1.1,3.1,0,2.37082
1.1,3.2,0,2.45343
1.1,3.3,0,2.5397
1.1,3.4,0,2.62656
1.1,3.5,0,2.71008
1.1,3.6,0,2.81164
1.1,3.7,0,2.89273
1.1,3.8,0,2.98325
1.1,3.9,0,3.07857
1.1,4,0,3.14664
1.1,4.1,0,3.24547
1.1,4.2,0,3.32016
1.1,4.3,0,3.39805
1.1,4.4,0,3.48054
1.1,4.5,0,3.5545
1.1,4.6,0,3.63488
1.1,4.7,0,3.70914
1.1,4.8,0,3.78358
1.1,4.9,0,3.85708
1.1,5,0,3.93116
1.1,5.1,0,3.99049
1.1,5.2,0,4.04916
1.1,5.3,0,4.10953
1.1,5.4,0,4.16182
1.1,5.5,0,4.21209
1.1,5.6,0,4.26258
1.1,5.7,0,4.30445
1.1,5.8,0,4.34196
1.1,5.9,0,4.37715
1.1,6,0,4.4056
1.1,6.1,0,4.42938
1.1,6.2,0,4.44993
1.1,6.3,0,4.46251
1.1,6.4,0,4.47183
1.1,6.5,0,4.47841
1.1,6.6,0,4.47536
1.1,6.7,0,4.46936
1.1,6.8,0,4.46023
1.1,6.9,0,4.44242
1.1,7,0,4.42161
1.1,7.1,0,4.3969
1.1,7.2,0,4.36448
1.1,7.3,0,4.32955
1.1,7.4,0,4.29042
1.1,7.5,0,4.24326
1.1,7.6,0,4.19509
1.1,7.7,0,4.14371
1.1,7.8,0,4.08601
1.1,7.9,0,4.02941
1.1,8,0,3.97159
1.1,8.1,0,3.89758
1.1,8.2,0,3.8233
1.1,8.3,0,3.75002
1.1,8.4,0,3.67376
1.1,8.5,0,3.5919
1.1,8.6,0,3.51285
1.1,8.7,0,3.42716
1.1,8.8,0,3.35128
1.1,8.9,0,3.26162
1.1,9,0,3.18164
1.1,9.1,0,3.09688
1.1,9.2,0,2.99783
1.1,9.3,0,2.92001
1.1,9.4,0,2.81141
1.1,9.5,0,2.72482
1.1,9.6,0,2.62921
1.1,9.7,0,2.53389
1.1,9.8,0,2.44525
1.1,9.9,0,2.3579
1.1,10,0,2.27003
1.1,10.1,0,2.18748
1.1,10.2,0,2.09944
1.1,10.3,0,2.01629
1.1,10.4,0,1.93087
1.1,10.5,0,1.84411
1.1,10.6,0,1.76188
1.1,10.7,0,1.67262
1.1,10.8,0,1.59037
1.1,10.9,0,1.50252
1.1,11,0,1.41794
1.1,11.1,0,1.33335
1.1,11.2,0,1.24694
1.1,11.3,0,1.16393
1.1,11.4,0,1.07803
1.1,11.5,0,0.994325
1.1,11.6,0,0.910142
1.1,11.7,0,0.8261
1.1,11.8,0,0.7428
1.1,11.9,0,0.659369
1.1,12,0,0.576058
1.1,12.1,0,0.49372
1.1,12.2,0,0.410646
1.1,12.3,0,0.32854
1.1,12.4,0,0.246164
1.1,12.5,0,0.163952
1.1,12.6,0,0.0820811
1.1,12.7,0,0
1.2,0,0,0
1.2,0.1,0,0.0714797
1.2,0.2,0,0.142665
1.2,0.3,0,0.214654
1.2,0.4,0,0.286249
1.2,0.5,0,0.357983
1.2,0.6,0,0.430697
1.2,0.7,0,0.502992
1.2,0.8,0,0.576299
1.2,0.9,0,0.649511
1.2,1,0,0.722808
1.2,1.1,0,0.797449
1.2,1.2,0,0.871736
1.2,1.3,0,0.94693
1.2,1.4,0,1.0224
1.2,1.5,0,1.09813
1.2,1.6,0,1.17472
1.2,1.7,0,1.2515
1.2,1.8,0,1.32858
1.2,1.9,0,1.40678
1.2,2,0,1.48574
1.2,2.1,0,1.5637
1.2,2.2,0,1.64326
1.2,2.3,0,1.72236
1.2,2.4,0,1.80281
1.2,2.5,0,1.88479
1.2,2.6,0,1.9635
1.2,2.7,0,2.0443
1.2,2.8,0,2.12512
1.2,2.9,0,2.20631
1.2,3,0,2.28836
1.2,3.1,0,2.37042
1.2,3.2,0,2.45368
1.2,3.3,0,2.53995
1.2,3.4,0,2.62725
1.2,3.5,0,2.71266
1.2,3.6,0,2.80838
1.2,3.7,0,2.89826
1.2,3.8,0,2.98878
1.2,3.9,0,3.07783
1.2,4,0,3.1564
1.2,4.1,0,3.24903
1.2,4.2,0,3.33547
1.2,4.3,0,3.41336
1.2,4.4,0,3.49691
1.2,4.5,0,3.57567
1.2,4.6,0,3.65578
1.2,4.7,0,3.73561
1.2,4.8,0,3.81006
1.2,4.9,0,3.88696
1.2,5,0,3.96246
1.2,5.1,0,4.02278
1.2,5.2,0,4.08458
1.2,5.3,0,4.14552
1.2,5.4,0,4.19821
1.2,5.5,0,4.25148
1.2,5.6,0,4.30309
1.2,5.7,0,4.3443
1.2,5.8,0,4.38453
1.2,5.9,0,4.42173
1.2,6,0,4.44908
1.2,6.1,0,4.47478
1.2,6.2,0,4.49738
1.2,6.3,0,4.50895
1.2,6.4,0,4.51897
1.2,6.5,0,4.52693
1.2,6.6,0,4.52259
1.2,6.7,0,4.51634
1.2,6.8,0,4.50835
1.2,6.9,0,4.48886
1.2,7,0,4.46686
1.2,7.1,0,4.44323
1.2,7.2,0,4.4089
1.2,7.3,0,4.37171
1.2,7.4,0,4.33336
1.2,7.5,0,4.28462
1.2,7.6,0,4.23351
1.2,7.7,0,4.18224
1.2,7.8,0,4.12374
1.2,7.9,0,4.06405
1.2,8,0,4.00548
1.2,8.1,0,3.92975
1.2,8.2,0,3.8528
1.2,8.3,0,3.77808
1.2,8.4,0,3.69802
1.2,8.5,0,3.6169
1.2,8.6,0,3.5329
1.2,8.7,0,3.44725
1.2,8.8,0,3.36527
1.2,8.9,0,3.27664
1.2,9,0,3.19383
1.2,9.1,0,3.10255
1.2,9.2,0,3.00818
1.2,9.3,0,2.91889
1.2,9.4,0,2.81813
1.2,9.5,0,2.72718
1.2,9.6,0,2.63316
1.2,9.7,0,2.53789
1.2,9.8,0,2.4479
1.2,9.9,0,2.35954
1.2,10,0,2.27235
1.2,10.1,0,2.18728
1.2,10.2,0,2.10054
1.2,10.3,0,2.01485
1.2,10.4,0,1.9294
1.2,10.5,0,1.84333
1.2,10.6,0,1.7591
1.2,10.7,0,1.67149
1.2,10.8,0,1.58655
1.2,10.9,0,1.49983
1.2,11,0,1.41375
1.2,11.1,0,1.32883
1.2,11.2,0,1.24342
1.2,11.3,0,1.15925
1.2,11.4,0,1.07419
1.2,11.5,0,0.990021
1.2,11.6,0,0.906101
1.2,11.7,0,0.822525
1.2,11.8,0,0.739201
1.2,11.9,0,0.656381
1.2,12,0,0.573347
1.2,12.1,0,0.491157
1.2,12.2,0,0.408851
1.2,12.3,0,0.326758
1.2,12.4,0,0.245107
1.2,12.5,0,0.163057
1.2,12.6,0,0.0816846
1.2,12.7,0,0
1.3,0,0,0
1.3,0.1,0,0.07077
1.3,0.2,0,0.141955
1.3,0.3,0,0.21258
1.3,0.4,0,0.284176
1.3,0.5,0,0.355454
1.3,0.6,0,0.427387
1.3,0.7,0,0.499682
1.3,0.8,0,0.571785
1.3,0.9,0,0.644996
1.3,1,0,0.717839
1.3,1.1,0,0.791993
1.3,1.2,0,0.86628
1.3,1.3,0,0.9408
1.3,1.4,0,1.01627
1.3,1.5,0,1.09136
1.3,1.6,0,1.16837
1.3,1.7,0,1.24514
1.3,1.8,0,1.32296
1.3,1.9,0,1.40116
1.3,2,0,1.47892
1.3,2.1,0,1.55989
1.3,2.2,0,1.63945
1.3,2.3,0,1.72069
1.3,2.4,0,1.80114
1.3,2.5,0,1.8798
1.3,2.6,0,1.96318