/*--------------------------------*- C++ -*----------------------------------*\
| =========                 |                                                 |
| \\      /  F ield         | OpenFOAM: The Open Source CFD Toolbox           |
|  \\    /   O peration     | Version:  v1806                                 |
|   \\  /    A nd           | Web:      www.OpenFOAM.com                      |
|    \\/     M anipulation  |                                                 |
\*---------------------------------------------------------------------------*/
FoamFile
{
    version     2.0;
    format      ascii;
    class       volVectorField;
    location    "8";
    object      U;
}
// * * * * * * * * * * * * * * * * * * * * * * * * * * * * * * * * * * * * * //

dimensions      [0 1 -1 0 0 0 0];


internalField   nonuniform List<vector> 
5220
(
(-0.437752 -0.213041 0.00202883)
(-0.43772 -0.213065 -3.24189e-08)
(-0.43772 -0.213065 3.16004e-08)
(-0.437752 -0.213041 -0.00202883)
(-0.429684 -0.242763 0.00225188)
(-0.429694 -0.242773 -6.65682e-08)
(-0.429694 -0.242773 6.58392e-08)
(-0.429684 -0.242763 -0.00225187)
(-0.34983 -0.188623 0.00172344)
(-0.349846 -0.188641 -8.48839e-10)
(-0.349846 -0.188641 3.15633e-10)
(-0.34983 -0.188623 -0.00172344)
(-0.603122 -0.526033 0.00360364)
(-0.603135 -0.526064 -2.36287e-08)
(-0.603135 -0.526064 2.21531e-08)
(-0.603122 -0.526033 -0.00360364)
(-0.50985 -0.51092 0.00295515)
(-0.509829 -0.510916 -1.99976e-07)
(-0.509829 -0.510916 1.98412e-07)
(-0.50985 -0.51092 -0.00295515)
(-0.492447 -0.471812 0.00306153)
(-0.492435 -0.471803 -1.27714e-07)
(-0.492435 -0.471803 1.26383e-07)
(-0.492447 -0.471812 -0.00306153)
(-0.506092 -0.573537 0.00337041)
(-0.506081 -0.573566 -9.70905e-08)
(-0.506081 -0.573566 9.59192e-08)
(-0.506092 -0.573537 -0.00337041)
(-0.61748 -0.45632 0.00366579)
(-0.617517 -0.456325 -1.83655e-07)
(-0.617517 -0.456325 1.82547e-07)
(-0.61748 -0.45632 -0.00366578)
(-0.623851 -0.341394 0.0032171)
(-0.623862 -0.341383 -4.59714e-08)
(-0.623862 -0.341383 4.50229e-08)
(-0.623851 -0.341394 -0.0032171)
(-0.522032 -0.346485 0.00285348)
(-0.522028 -0.346488 -6.69842e-08)
(-0.522028 -0.346488 6.58767e-08)
(-0.522032 -0.346485 -0.00285348)
(-0.593342 -0.396105 0.00337171)
(-0.593334 -0.396089 -2.72718e-08)
(-0.593334 -0.396089 2.62399e-08)
(-0.593342 -0.396105 -0.00337171)
(-0.410259 -0.173643 0.00178214)
(-0.410245 -0.173635 -5.74846e-08)
(-0.410245 -0.173634 5.70222e-08)
(-0.410259 -0.173643 -0.00178214)
(2.1312 0.238358 -0.0154867)
(2.13118 0.238413 1.89778e-08)
(2.13118 0.238413 -1.90154e-08)
(2.1312 0.238358 0.0154867)
(1.73717 0.23397 -0.0166182)
(1.73732 0.233846 6.6518e-07)
(1.73732 0.233846 -6.64989e-07)
(1.73717 0.23397 0.0166182)
(3.3224 1.75619 0.00524283)
(3.32193 1.75613 -1.38517e-07)
(3.32193 1.75613 1.37283e-07)
(3.3224 1.75619 -0.00524283)
(3.3096 1.81532 0.00413461)
(3.30997 1.81539 3.56174e-07)
(3.30997 1.81539 -3.56403e-07)
(3.30959 1.81532 -0.00413461)
(-0.322345 -0.32952 0.00165123)
(-0.322356 -0.329502 2.30732e-08)
(-0.322356 -0.329502 -2.35452e-08)
(-0.322345 -0.32952 -0.00165123)
(-0.340249 -0.233809 0.00151288)
(-0.340257 -0.233834 -2.74538e-08)
(-0.340257 -0.233834 2.70892e-08)
(-0.340249 -0.233809 -0.00151288)
(-0.417643 -0.27797 0.00190984)
(-0.417635 -0.277992 -9.41994e-08)
(-0.417635 -0.277992 9.37473e-08)
(-0.417643 -0.27797 -0.00190984)
(1.61095 0.264649 -0.018672)
(1.61091 0.264757 -1.59201e-07)
(1.61091 0.264757 1.59877e-07)
(1.61095 0.264649 0.018672)
(1.55785 0.59935 -0.0178979)
(1.5578 0.599256 -1.41872e-07)
(1.5578 0.599256 1.42322e-07)
(1.55785 0.59935 0.0178979)
(1.26575 0.302117 -0.020034)
(1.26563 0.302273 2.51754e-08)
(1.26563 0.302272 -2.47933e-08)
(1.26575 0.302117 0.020034)
(0.614408 0.130634 0.0032355)
(0.614773 0.130629 -1.08032e-06)
(0.614772 0.130629 1.08069e-06)
(0.614407 0.130634 -0.0032355)
(0.233307 0.145975 0.00367709)
(0.233531 0.146123 -2.15056e-07)
(0.23353 0.146123 2.14626e-07)
(0.233306 0.145975 -0.00367709)
(2.09096 0.115501 0.0115892)
(2.0913 0.115611 -1.50394e-07)
(2.0913 0.115611 1.51526e-07)
(2.09096 0.1155 -0.0115892)
(-0.493837 -0.255384 0.00259982)
(-0.493846 -0.255367 -6.82186e-08)
(-0.493846 -0.255367 6.74755e-08)
(-0.493837 -0.255384 -0.00259982)
(-0.887065 0.263624 0.0042602)
(-0.887055 0.263673 -2.23414e-08)
(-0.887056 0.263673 2.23705e-08)
(-0.887065 0.263624 -0.0042602)
(-0.753517 0.0904822 0.00338395)
(-0.753509 0.0905173 -2.2472e-08)
(-0.753509 0.0905174 2.23855e-08)
(-0.753517 0.0904822 -0.00338395)
(-0.478662 -0.198428 0.00222784)
(-0.478652 -0.198451 -3.96977e-08)
(-0.478652 -0.198451 3.92014e-08)
(-0.478662 -0.198428 -0.00222784)
(-0.365997 0.000502385 0.00125248)
(-0.365993 0.000497239 -5.6934e-08)
(-0.365993 0.00049727 5.64164e-08)
(-0.365997 0.000502378 -0.00125248)
(-0.259595 0.0373427 0.000693166)
(-0.259578 0.0373328 -4.46363e-08)
(-0.259578 0.0373329 4.41625e-08)
(-0.259595 0.0373427 -0.000693166)
(-0.348724 -0.0792298 0.00120295)
(-0.348711 -0.0792469 -5.41175e-08)
(-0.348711 -0.0792469 5.36378e-08)
(-0.348724 -0.0792298 -0.00120295)
(-0.252355 -0.0451196 0.000676402)
(-0.252341 -0.0451319 -4.87552e-08)
(-0.252341 -0.0451319 4.83946e-08)
(-0.252355 -0.0451197 -0.000676402)
(-0.450318 -0.425243 0.00269824)
(-0.450328 -0.425239 -8.27069e-08)
(-0.450329 -0.425239 8.17325e-08)
(-0.450318 -0.425243 -0.00269824)
(-0.478742 -0.271202 0.00255344)
(-0.478747 -0.271213 -1.24468e-08)
(-0.478747 -0.271213 1.1873e-08)
(-0.478742 -0.271202 -0.00255344)
(-0.534809 -0.445166 0.00296169)
(-0.534806 -0.445173 -9.729e-08)
(-0.534806 -0.445173 9.6216e-08)
(-0.534809 -0.445166 -0.00296169)
(-0.483362 -0.418679 0.00280498)
(-0.483359 -0.418642 -7.58822e-08)
(-0.483359 -0.418642 7.4997e-08)
(-0.483362 -0.418679 -0.00280498)
(-0.404881 -0.371393 0.00260707)
(-0.404894 -0.371407 -1.18689e-07)
(-0.404894 -0.371407 1.17856e-07)
(-0.404881 -0.371393 -0.00260707)
(-0.459367 -0.031496 0.00185722)
(-0.459341 -0.031502 -4.55374e-08)
(-0.459341 -0.031502 4.50546e-08)
(-0.459367 -0.031496 -0.00185722)
(-0.559713 -0.146777 0.00242617)
(-0.559708 -0.146783 -5.51138e-08)
(-0.559708 -0.146783 5.46473e-08)
(-0.559713 -0.146777 -0.00242617)
(-0.596943 -0.182155 0.00289316)
(-0.596945 -0.18215 -3.33538e-08)
(-0.596945 -0.18215 3.27462e-08)
(-0.596943 -0.182155 -0.00289316)
(-0.168047 -0.0275511 0.000225802)
(-0.168035 -0.027573 -8.99624e-08)
(-0.168035 -0.0275729 8.97825e-08)
(-0.168047 -0.0275511 -0.000225802)
(-0.169649 0.0436041 0.000232198)
(-0.16964 0.0435929 -7.88563e-08)
(-0.16964 0.043593 7.86102e-08)
(-0.169649 0.0436041 -0.000232198)
(-0.0929361 -0.0214256 -0.000120169)
(-0.092917 -0.021441 -8.07986e-08)
(-0.092917 -0.021441 8.07396e-08)
(-0.0929361 -0.0214256 0.000120169)
(-0.0908118 0.0413733 -0.000117617)
(-0.0907931 0.0413637 -7.18847e-08)
(-0.0907931 0.0413637 7.17862e-08)
(-0.0908118 0.0413732 0.000117617)
(-0.438212 -0.399982 0.00257669)
(-0.438237 -0.399981 -2.12219e-08)
(-0.438237 -0.399981 2.04368e-08)
(-0.438212 -0.399982 -0.00257669)
(-0.419383 -0.328887 0.00248124)
(-0.419385 -0.328915 -2.79717e-08)
(-0.419385 -0.328915 2.74097e-08)
(-0.419383 -0.328887 -0.00248124)
(-0.320905 -0.136543 0.00111184)
(-0.320904 -0.136571 -6.492e-08)
(-0.320904 -0.136571 6.46004e-08)
(-0.320905 -0.136543 -0.00111183)
(-0.223685 -0.117792 0.000622734)
(-0.223673 -0.117818 -5.07596e-08)
(-0.223673 -0.117818 5.06788e-08)
(-0.223685 -0.117792 -0.000622733)
(-0.152616 -0.0984707 0.000175441)
(-0.152608 -0.0984944 -1.08384e-07)
(-0.152608 -0.0984944 1.08461e-07)
(-0.152616 -0.0984707 -0.000175441)
(-0.0816189 -0.0819415 -0.000168518)
(-0.0815935 -0.0819579 -9.41148e-08)
(-0.0815935 -0.0819578 9.43717e-08)
(-0.0816189 -0.0819415 0.000168518)
(-0.0231579 -0.0677138 -0.000423826)
(-0.0231367 -0.0677275 -9.35648e-08)
(-0.0231367 -0.0677275 9.40082e-08)
(-0.0231579 -0.0677138 0.000423826)
(-0.0321205 -0.0189965 -0.000371227)
(-0.0321033 -0.0190106 -7.62201e-08)
(-0.0321033 -0.0190106 7.63201e-08)
(-0.0321205 -0.0189965 0.000371227)
(-0.029297 0.0326716 -0.00036538)
(-0.0292812 0.0326618 -6.28881e-08)
(-0.0292812 0.0326618 6.28955e-08)
(-0.0292969 0.0326716 0.00036538)
(-0.262146 0.128158 0.000689165)
(-0.262127 0.12816 -2.90252e-08)
(-0.262127 0.12816 2.88586e-08)
(-0.262146 0.128158 -0.000689165)
(-0.39117 0.10893 0.00130613)
(-0.391166 0.108929 -5.70158e-08)
(-0.391166 0.108929 5.68929e-08)
(-0.39117 0.10893 -0.00130613)
(-0.342858 -0.396836 0.00245626)
(-0.342788 -0.396782 -6.8712e-08)
(-0.342788 -0.396782 6.77147e-08)
(-0.342858 -0.396836 -0.00245626)
(-0.407058 -0.304871 0.00249151)
(-0.407042 -0.304883 -1.19045e-07)
(-0.407042 -0.304883 1.18223e-07)
(-0.407058 -0.304871 -0.00249151)
(-0.392378 -0.355125 0.00249474)
(-0.392386 -0.355114 -3.38981e-08)
(-0.392386 -0.355114 3.30676e-08)
(-0.392378 -0.355125 -0.00249474)
(-0.357711 -0.376368 0.00242627)
(-0.357684 -0.376385 -4.73057e-08)
(-0.357684 -0.376385 4.62952e-08)
(-0.357711 -0.376368 -0.00242627)
(-0.439185 -0.390451 0.00241771)
(-0.439242 -0.390426 -7.07127e-08)
(-0.439242 -0.390426 6.96592e-08)
(-0.439185 -0.390452 -0.00241771)
(-0.417892 -0.408577 0.00233259)
(-0.41791 -0.408581 -7.12383e-08)
(-0.41791 -0.408581 7.01715e-08)
(-0.417892 -0.408577 -0.00233259)
(-0.391086 -0.428859 0.0022001)
(-0.391003 -0.428838 -1.83362e-07)
(-0.391003 -0.428838 1.82306e-07)
(-0.391086 -0.428859 -0.0022001)
(-0.324347 -0.404434 0.00211024)
(-0.324298 -0.404408 -1.17165e-07)
(-0.324298 -0.404408 1.16366e-07)
(-0.324347 -0.404434 -0.00211024)
(-0.422409 -0.529733 0.00279435)
(-0.422421 -0.529769 -1.0274e-07)
(-0.422421 -0.529769 1.01765e-07)
(-0.422409 -0.529733 -0.00279435)
(-0.388724 -0.43939 0.00254631)
(-0.388708 -0.439417 -1.2872e-07)
(-0.388708 -0.439417 1.27884e-07)
(-0.388724 -0.43939 -0.00254631)
(-0.300917 -0.445566 0.00230213)
(-0.300939 -0.445574 -1.18812e-07)
(-0.300939 -0.445574 1.18129e-07)
(-0.300917 -0.445566 -0.00230213)
(-0.240881 -0.534855 0.00217761)
(-0.24087 -0.534931 -4.79588e-08)
(-0.24087 -0.534931 4.71782e-08)
(-0.240881 -0.534855 -0.00217761)
(-0.34175 -0.496706 0.00207889)
(-0.341792 -0.496775 -9.86249e-08)
(-0.341792 -0.496775 9.82198e-08)
(-0.34175 -0.496706 -0.00207889)
(-0.65391 -0.432537 0.00381524)
(-0.65392 -0.432541 2.71221e-08)
(-0.65392 -0.432541 -2.79346e-08)
(-0.65391 -0.432537 -0.00381523)
(-0.717383 -0.306059 0.00371163)
(-0.717395 -0.306085 -1.08463e-07)
(-0.717396 -0.306085 1.07676e-07)
(-0.717383 -0.306059 -0.00371163)
(-0.71755 -0.161775 0.0034125)
(-0.717533 -0.161751 -6.05755e-08)
(-0.717533 -0.161751 5.98213e-08)
(-0.71755 -0.161775 -0.0034125)
(-0.511446 0.0593432 0.00202868)
(-0.511421 0.0593557 -4.3993e-08)
(-0.511422 0.0593557 4.39405e-08)
(-0.511446 0.0593432 -0.00202868)
(-0.636766 -0.0209269 0.00278065)
(-0.636757 -0.0209116 -7.24076e-08)
(-0.636757 -0.0209115 7.21249e-08)
(-0.636766 -0.0209269 -0.00278065)
(-0.409965 -0.321756 0.0025179)
(-0.409977 -0.321782 1.06602e-08)
(-0.409977 -0.321782 -1.12654e-08)
(-0.409965 -0.321756 -0.00251789)
(-0.161977 0.126617 0.000195545)
(-0.161967 0.126608 -6.63712e-08)
(-0.161967 0.126608 6.66408e-08)
(-0.161977 0.126617 -0.000195546)
(-0.0778389 0.109661 -0.000162811)
(-0.0778208 0.109654 -6.7943e-08)
(-0.0778208 0.109654 6.83539e-08)
(-0.0778389 0.109661 0.00016281)
(-0.0167827 0.0855627 -0.00040826)
(-0.016768 0.0855498 -4.13436e-08)
(-0.016768 0.0855498 4.18105e-08)
(-0.0167827 0.0855627 0.00040826)
(-0.429075 -0.26983 0.00235657)
(-0.429095 -0.269839 -3.65466e-08)
(-0.429095 -0.269839 3.58427e-08)
(-0.429075 -0.26983 -0.00235657)
(-0.272654 -0.190258 0.00105091)
(-0.27265 -0.190279 -8.12806e-08)
(-0.27265 -0.190279 8.11565e-08)
(-0.272654 -0.190258 -0.00105091)
(-0.207349 -0.184176 0.000571123)
(-0.207327 -0.184199 -8.38439e-08)
(-0.207327 -0.184199 8.40489e-08)
(-0.207349 -0.184176 -0.000571123)
(-0.134649 -0.162512 0.000110368)
(-0.13463 -0.162529 -1.26489e-07)
(-0.13463 -0.162529 1.26944e-07)
(-0.134649 -0.162512 -0.000110369)
(-0.0659102 -0.140797 -0.000255667)
(-0.0658826 -0.140811 -1.07558e-07)
(-0.0658826 -0.140811 1.08221e-07)
(-0.0659101 -0.140797 0.000255667)
(-0.0069214 -0.11616 -0.000523758)
(-0.00689775 -0.116173 -1.05014e-07)
(-0.00689776 -0.116173 1.05754e-07)
(-0.00692138 -0.11616 0.000523757)
(0.0385127 -0.092494 -0.000690199)
(0.0385386 -0.0925013 -9.76935e-08)
(0.0385386 -0.0925013 9.8404e-08)
(0.0385127 -0.0924939 0.000690198)
(0.0230623 -0.054656 -0.000591931)
(0.023087 -0.0546653 -8.58136e-08)
(0.023087 -0.0546653 8.63371e-08)
(0.0230623 -0.054656 0.000591931)
(0.0154412 -0.0169685 -0.000539497)
(0.0154611 -0.0169782 -6.96548e-08)
(0.0154611 -0.0169782 6.95834e-08)
(0.0154412 -0.0169685 0.000539497)
(0.0183518 0.0238063 -0.000528877)
(0.0183717 0.0237993 -5.57456e-08)
(0.0183717 0.0237993 5.54924e-08)
(0.0183518 0.0238063 0.000528877)
(0.03029 0.0638425 -0.000565596)
(0.0303084 0.063832 -4.52577e-08)
(0.0303085 0.063832 4.53787e-08)
(0.03029 0.0638425 0.000565596)
(-0.397153 0.251573 0.00138022)
(-0.39714 0.251579 -5.89815e-08)
(-0.39714 0.251579 5.94257e-08)
(-0.397153 0.251572 -0.00138022)
(-0.246898 0.247009 0.00065514)
(-0.246873 0.247014 -3.09224e-08)
(-0.246873 0.247014 3.15914e-08)
(-0.246898 0.247009 -0.000655141)
(-0.403225 -0.543179 0.00273875)
(-0.403213 -0.543188 -9.06123e-08)
(-0.403213 -0.543188 8.92125e-08)
(-0.403225 -0.543179 -0.00273874)
(-0.384226 -0.438906 0.00221983)
(-0.384251 -0.438872 -1.81205e-07)
(-0.384251 -0.438872 1.80239e-07)
(-0.384226 -0.438906 -0.00221983)
(-0.435266 -0.540025 0.00215011)
(-0.435316 -0.539934 -8.63985e-08)
(-0.435316 -0.539934 8.58194e-08)
(-0.435266 -0.540025 -0.0021501)
(-0.55082 -0.404065 0.00194184)
(-0.55081 -0.404002 -1.72703e-07)
(-0.55081 -0.404002 1.72066e-07)
(-0.55082 -0.404065 -0.00194184)
(-0.228194 -0.157287 0.00175057)
(-0.228029 -0.157134 -1.44754e-07)
(-0.228029 -0.157134 1.44591e-07)
(-0.228194 -0.157287 -0.00175057)
(-0.52621 -0.679721 0.00374152)
(-0.526148 -0.679731 -1.28173e-07)
(-0.526148 -0.679731 1.2657e-07)
(-0.52621 -0.679721 -0.00374152)
(-0.400574 -0.665421 0.00304086)
(-0.400537 -0.665426 -2.0874e-07)
(-0.400537 -0.665426 2.07179e-07)
(-0.400574 -0.665421 -0.00304085)
(1.12187 0.103232 -0.0200583)
(1.12202 0.10312 -6.00076e-08)
(1.12202 0.10312 6.03805e-08)
(1.12187 0.103232 0.0200583)
(1.69876 -0.0264846 -0.0183977)
(1.69889 -0.0263631 9.92262e-08)
(1.69889 -0.0263631 -9.89202e-08)
(1.69876 -0.0264846 0.0183977)
(1.94606 0.4534 -0.0167238)
(1.94605 0.45339 4.72404e-07)
(1.94605 0.45339 -4.71893e-07)
(1.94606 0.4534 0.0167238)
(-0.687364 -0.636002 0.00439663)
(-0.687314 -0.636032 -1.30795e-07)
(-0.687314 -0.636032 1.29601e-07)
(-0.687364 -0.636003 -0.00439663)
(-0.879669 -0.0788337 0.00433559)
(-0.879707 -0.0788073 1.73641e-08)
(-0.879707 -0.0788073 -1.7731e-08)
(-0.879669 -0.0788337 -0.00433559)
(-0.78368 -0.539801 0.0048041)
(-0.783687 -0.539813 -1.24818e-09)
(-0.783687 -0.539813 2.61036e-10)
(-0.78368 -0.539801 -0.0048041)
(-0.896789 -0.361421 0.00481129)
(-0.896813 -0.361452 1.81333e-08)
(-0.896813 -0.361452 -1.86311e-08)
(-0.896789 -0.361421 -0.00481129)
(-0.13298 0.217562 0.000109592)
(-0.132964 0.217558 -6.01184e-08)
(-0.132964 0.217558 6.1021e-08)
(-0.13298 0.217562 -0.000109593)
(-0.0435632 0.181609 -0.000269635)
(-0.0435399 0.181602 -7.45222e-08)
(-0.0435399 0.181602 7.53548e-08)
(-0.0435632 0.181609 0.000269634)
(0.0137987 0.14005 -0.000509886)
(0.0138171 0.14004 -8.89524e-09)
(0.0138171 0.14004 9.77238e-09)
(0.0137987 0.14005 0.000509885)
(0.056193 0.104515 -0.000652279)
(0.0562132 0.104509 -2.22926e-08)
(0.0562132 0.104509 2.2883e-08)
(0.056193 0.104515 0.000652278)
(-0.568779 0.217998 0.00231877)
(-0.568745 0.218019 -4.97573e-08)
(-0.568745 0.218019 5.03104e-08)
(-0.568779 0.217998 -0.00231877)
(-0.398911 0.406732 0.00148515)
(-0.398891 0.406751 -5.41531e-08)
(-0.398891 0.406751 5.51463e-08)
(-0.398911 0.406732 -0.00148515)
(-0.208459 0.372614 0.000581752)
(-0.208429 0.372618 -1.81194e-08)
(-0.208429 0.372618 1.94702e-08)
(-0.208459 0.372614 -0.000581753)
(0.071991 -0.0711428 -0.000778106)
(0.0720166 -0.0711479 -8.66105e-08)
(0.0720166 -0.0711479 8.72964e-08)
(0.071991 -0.0711428 0.000778105)
(0.0579792 -0.043148 -0.000686671)
(0.0580044 -0.0431549 -7.84181e-08)
(0.0580044 -0.0431549 7.87814e-08)
(0.0579792 -0.043148 0.00068667)
(0.0512299 -0.0152469 -0.000635315)
(0.0512507 -0.0152557 -6.52146e-08)
(0.0512507 -0.0152557 6.49034e-08)
(0.0512299 -0.0152469 0.000635315)
(0.0530432 0.014644 -0.00062242)
(0.0530638 0.0146361 -5.61678e-08)
(0.0530639 0.0146362 5.55763e-08)
(0.0530432 0.014644 0.000622421)
(0.0625314 0.042943 -0.000651376)
(0.0625496 0.0429299 -4.32219e-08)
(0.0625496 0.0429299 4.29687e-08)
(0.0625314 0.042943 0.000651376)
(0.0834179 0.069416 -0.000722095)
(0.0834367 0.0693983 -3.66694e-08)
(0.0834367 0.0693984 3.69993e-08)
(0.0834179 0.069416 0.000722094)
(-0.284591 -0.282072 0.00106777)
(-0.284599 -0.282101 -8.30455e-08)
(-0.284599 -0.282101 8.30268e-08)
(-0.284591 -0.282072 -0.00106777)
(-0.191429 -0.254586 0.000542268)
(-0.191412 -0.254607 -6.69666e-08)
(-0.191412 -0.254607 6.73815e-08)
(-0.191429 -0.254586 -0.000542269)
(-0.117483 -0.234875 1.51512e-05)
(-0.117469 -0.234895 -1.42989e-07)
(-0.117469 -0.234895 1.43696e-07)
(-0.117483 -0.234875 -1.51519e-05)
(-0.0397637 -0.20037 -0.00039095)
(-0.0397335 -0.200385 -1.1792e-07)
(-0.0397335 -0.200385 1.18887e-07)
(-0.0397636 -0.20037 0.000390949)
(0.018649 -0.163974 -0.000677624)
(0.0186763 -0.163986 -1.23347e-07)
(0.0186763 -0.163986 1.24429e-07)
(0.018649 -0.163974 0.000677622)
(0.0638289 -0.128136 -0.000840507)
(0.0638601 -0.128141 -1.11014e-07)
(0.0638601 -0.128141 1.12101e-07)
(0.063829 -0.128136 0.000840506)
(0.0946017 -0.0966157 -0.000914692)
(0.0946308 -0.0966183 -9.54035e-08)
(0.0946308 -0.0966183 9.63643e-08)
(0.0946017 -0.0966157 0.000914691)
(-0.405574 -0.273192 0.00226075)
(-0.405597 -0.27318 -2.55985e-08)
(-0.405597 -0.27318 2.4847e-08)
(-0.405574 -0.273192 -0.00226075)
(-0.398772 -0.290673 0.00248752)
(-0.398743 -0.290664 -6.87632e-08)
(-0.398743 -0.290664 6.78564e-08)
(-0.398772 -0.290673 -0.00248752)
(-0.369998 -0.643483 0.00268177)
(-0.370002 -0.643445 -1.22802e-07)
(-0.370002 -0.643445 1.21492e-07)
(-0.369998 -0.643483 -0.00268177)
(-0.228761 -0.416455 0.00201354)
(-0.228654 -0.416363 -1.81818e-07)
(-0.228654 -0.416363 1.80899e-07)
(-0.228761 -0.416455 -0.00201354)
(-0.0798944 -0.356899 0.00198975)
(-0.079857 -0.356956 -8.19786e-08)
(-0.079857 -0.356956 8.16636e-08)
(-0.0798943 -0.356899 -0.00198975)
(-0.0823131 -0.504209 0.00144382)
(-0.0823184 -0.504368 -7.97069e-08)
(-0.0823184 -0.504368 7.95209e-08)
(-0.082313 -0.504209 -0.00144382)
(-0.389013 -0.807249 0.00156784)
(-0.389076 -0.807375 -2.06808e-07)
(-0.389076 -0.807375 2.06935e-07)
(-0.389012 -0.807249 -0.00156784)
(-1.07345 -0.00732713 0.00567838)
(-1.07349 -0.00729835 5.07165e-08)
(-1.07349 -0.00729831 -5.09235e-08)
(-1.07345 -0.00732707 -0.00567838)
(-0.61602 0.389961 0.0027436)
(-0.615966 0.389989 -5.43865e-08)
(-0.615966 0.389989 5.55024e-08)
(-0.61602 0.389961 -0.0027436)
(-0.0839446 0.316495 -3.60098e-05)
(-0.0839247 0.316493 -3.95951e-08)
(-0.0839246 0.316493 4.10209e-08)
(-0.0839445 0.316495 3.60084e-05)
(0.0111609 0.252555 -0.000446152)
(0.0111841 0.25255 -4.9537e-08)
(0.0111841 0.25255 5.06956e-08)
(0.011161 0.252555 0.000446151)
(0.0616142 0.188406 -0.000683028)
(0.0616244 0.188402 -2.36797e-08)
(0.0616244 0.188402 2.45773e-08)
(0.0616143 0.188406 0.000683027)
(0.0996993 0.139277 -0.000808361)
(0.0997235 0.139275 -3.38069e-08)
(0.0997235 0.139275 3.45988e-08)
(0.0996993 0.139277 0.00080836)
(0.102716 0.091761 -0.000822691)
(0.102732 0.0917601 -1.58255e-08)
(0.102732 0.0917601 1.64893e-08)
(0.102716 0.091761 0.000822691)
(-1.08834 -0.396603 0.00634576)
(-1.08838 -0.396659 7.77332e-09)
(-1.08838 -0.396659 -7.93796e-09)
(-1.08834 -0.396603 -0.00634576)
(-0.900082 -0.650355 0.00606751)
(-0.900084 -0.650374 -6.68476e-08)
(-0.900084 -0.650374 6.60658e-08)
(-0.900082 -0.650355 -0.0060675)
(-0.71659 -0.737587 0.00505433)
(-0.716595 -0.737554 -2.87163e-07)
(-0.716595 -0.737554 2.8602e-07)
(-0.71659 -0.737587 -0.00505432)
(-0.525424 -0.757894 0.00408151)
(-0.525422 -0.757856 -1.59355e-07)
(-0.525422 -0.757856 1.57988e-07)
(-0.525424 -0.757894 -0.00408151)
(-0.360941 -0.675523 0.00299574)
(-0.360887 -0.675461 -2.58497e-07)
(-0.360887 -0.675461 2.56966e-07)
(-0.360941 -0.675523 -0.00299574)
(-0.250268 -0.645998 0.00241559)
(-0.250204 -0.646015 -1.78455e-07)
(-0.250204 -0.646015 1.77379e-07)
(-0.250268 -0.645998 -0.00241559)
(-0.35975 -0.556171 0.00152851)
(-0.359758 -0.556225 -1.6858e-07)
(-0.359758 -0.556225 1.67934e-07)
(-0.35975 -0.556171 -0.00152851)
(-0.260502 -0.774519 0.00188183)
(-0.260524 -0.774548 -6.60086e-08)
(-0.260524 -0.774548 6.60256e-08)
(-0.260502 -0.774519 -0.00188183)
(-0.320547 -0.497347 0.000987526)
(-0.320531 -0.497359 -2.28024e-07)
(-0.320531 -0.497359 2.27963e-07)
(-0.320547 -0.497347 -0.000987526)
(-0.0336102 0.0507352 0.00180191)
(-0.0333398 0.0510675 -8.81861e-08)
(-0.0333398 0.0510675 8.84527e-08)
(-0.0336103 0.0507353 -0.00180191)
(-0.3987 -0.271798 0.00269886)
(-0.398705 -0.271779 5.42499e-08)
(-0.398705 -0.271779 -5.56034e-08)
(-0.3987 -0.271798 -0.00269886)
(-0.354923 -0.300662 0.0021777)
(-0.354878 -0.300681 -7.40851e-08)
(-0.354878 -0.300681 7.36351e-08)
(-0.354923 -0.300662 -0.0021777)
(1.46013 -0.319665 -0.0196112)
(1.46017 -0.319723 3.86975e-07)
(1.46017 -0.319723 -3.86708e-07)
(1.46013 -0.319665 0.0196112)
(1.57732 -0.10821 -0.0185369)
(1.57732 -0.108145 -6.38245e-09)
(1.57732 -0.108145 6.79994e-09)
(1.57732 -0.10821 0.0185369)
(1.90332 -0.118089 -0.016779)
(1.90336 -0.117963 3.07233e-07)
(1.90336 -0.117963 -3.0684e-07)
(1.90332 -0.118089 0.016779)
(1.95814 -0.0392162 -0.0153149)
(1.95821 -0.0392683 3.36386e-07)
(1.95821 -0.0392683 -3.36224e-07)
(1.95814 -0.0392164 0.0153149)
(2.31671 -0.0150354 -0.0138569)
(2.31674 -0.0149425 4.61725e-08)
(2.31674 -0.0149425 -4.62142e-08)
(2.31671 -0.0150354 0.0138569)
(2.16136 0.134785 -0.013752)
(2.1615 0.134849 4.79224e-07)
(2.1615 0.134849 -4.79246e-07)
(2.16136 0.134785 0.013752)
(-0.32163 -0.336196 0.00204517)
(-0.321657 -0.336241 6.97294e-08)
(-0.321657 -0.33624 -7.01737e-08)
(-0.32163 -0.336196 -0.00204517)
(-0.302584 -0.36136 0.00123211)
(-0.302596 -0.361367 -5.62744e-08)
(-0.302596 -0.361367 5.63536e-08)
(-0.302584 -0.36136 -0.00123211)
(-0.179819 -0.346239 0.000518201)
(-0.179804 -0.346285 -8.50536e-08)
(-0.179804 -0.346285 8.56083e-08)
(-0.179819 -0.346239 -0.000518201)
(-0.091026 -0.316753 -0.000121788)
(-0.091003 -0.316778 -1.50741e-07)
(-0.091003 -0.316778 1.51611e-07)
(-0.091026 -0.316753 0.000121787)
(-0.00283042 -0.268533 -0.000595685)
(-0.00279565 -0.268554 -1.35162e-07)
(-0.00279567 -0.268554 1.36285e-07)
(-0.00283036 -0.268533 0.000595684)
(0.0545415 -0.215456 -0.000894188)
(0.0545749 -0.215467 -1.52215e-07)
(0.0545748 -0.215467 1.53401e-07)
(0.0545415 -0.215456 0.000894187)
(0.0992357 -0.163925 -0.00104936)
(0.0992695 -0.163928 -1.26022e-07)
(0.0992695 -0.163928 1.27139e-07)
(0.0992357 -0.163925 0.00104936)
(0.125575 -0.119623 -0.00110113)
(0.125604 -0.119626 -1.03637e-07)
(0.125604 -0.119626 1.04528e-07)
(0.125575 -0.119623 0.00110113)
(0.140945 -0.0840466 -0.00107717)
(0.140972 -0.0840473 -8.6661e-08)
(0.140972 -0.0840473 8.72044e-08)
(0.140945 -0.0840466 0.00107717)
(0.113972 -0.069231 -0.000918772)
(0.113998 -0.069232 -7.97009e-08)
(0.113998 -0.069232 8.03222e-08)
(0.113972 -0.0692309 0.000918772)
(0.0951965 -0.0528439 -0.000803034)
(0.095221 -0.0528471 -7.32059e-08)
(0.095221 -0.0528471 7.38485e-08)
(0.0951965 -0.0528439 0.000803034)
(0.0827782 -0.0331932 -0.000723348)
(0.0828021 -0.0331974 -6.77498e-08)
(0.0828021 -0.0331974 6.80133e-08)
(0.0827782 -0.0331932 0.000723348)
(0.0767398 -0.012426 -0.000678275)
(0.0767599 -0.012431 -6.07509e-08)
(0.0767599 -0.012431 6.02868e-08)
(0.0767399 -0.012426 0.000678276)
(0.0776586 0.0103105 -0.000667924)
(0.0776782 0.0103057 -5.45628e-08)
(0.0776782 0.0103057 5.37167e-08)
(0.0776586 0.0103105 0.000667925)
(0.0860695 0.0325646 -0.000695753)
(0.0860862 0.0325562 -4.96225e-08)
(0.0860862 0.0325562 4.90681e-08)
(0.0860695 0.0325646 0.000695754)
(0.107794 0.0544647 -0.000763017)
(0.107808 0.0544629 -3.4959e-08)
(0.107808 0.0544629 3.50748e-08)
(0.107794 0.0544647 0.000763017)
(1.09639 -0.00712174 -0.0213108)
(1.09639 -0.00715724 -1.89968e-07)
(1.09639 -0.00715726 1.90174e-07)
(1.09639 -0.00712181 0.0213108)
(0.949883 -0.362922 -0.0211237)
(0.94984 -0.36292 -2.27827e-09)
(0.94984 -0.36292 2.39377e-09)
(0.949883 -0.362922 0.0211237)
(0.146637 0.0641638 -0.000876221)
(0.146648 0.0641564 -4.73814e-08)
(0.146648 0.0641564 4.7938e-08)
(0.146637 0.0641638 0.00087622)
(0.524492 0.46128 -0.0222443)
(0.524596 0.461217 -7.26698e-08)
(0.524596 0.461217 7.25887e-08)
(0.524492 0.46128 0.0222443)
(1.80364 0.655333 -0.0176882)
(1.80349 0.655396 -5.28248e-08)
(1.80349 0.655396 5.31728e-08)
(1.80364 0.655333 0.0176882)
(1.18335 0.59124 -0.0208076)
(1.18339 0.591324 8.93724e-08)
(1.18339 0.591324 -8.91015e-08)
(1.18335 0.59124 0.0208076)
(2.23048 0.334366 -0.0130337)
(2.23056 0.334388 4.15926e-07)
(2.23056 0.334388 -4.15805e-07)
(2.23048 0.334366 0.0130337)
(2.13599 0.37875 -0.0144341)
(2.13596 0.378765 -3.7464e-08)
(2.13596 0.378765 3.77099e-08)
(2.13599 0.37875 0.0144341)
(1.91273 0.582657 -0.0155654)
(1.91283 0.582695 4.85351e-07)
(1.91283 0.582695 -4.8484e-07)
(1.91273 0.582657 0.0155654)
(1.87423 0.655395 -0.0160648)
(1.8743 0.655299 1.20662e-07)
(1.8743 0.655299 -1.20275e-07)
(1.87423 0.655395 0.0160648)
(1.62076 0.93384 -0.0160424)
(1.62076 0.933934 4.81834e-08)
(1.62076 0.933934 -4.80202e-08)
(1.62076 0.93384 0.0160424)
(1.29335 1.23662 -0.0173374)
(1.29338 1.23651 1.01657e-07)
(1.29338 1.23651 -1.01746e-07)
(1.29335 1.23662 0.0173374)
(2.29643 -0.0199297 -0.0124369)
(2.29642 -0.0199568 1.6179e-07)
(2.29642 -0.0199568 -1.61803e-07)
(2.29643 -0.0199298 0.0124369)
(2.41387 0.138269 -0.0124323)
(2.41385 0.138228 1.61718e-08)
(2.41385 0.138228 -1.61441e-08)
(2.41387 0.138269 0.0124323)
(2.48208 0.225956 -0.0119723)
(2.48208 0.225979 4.71308e-08)
(2.48208 0.225979 -4.70379e-08)
(2.48208 0.225956 0.0119723)
(1.42749 -0.675216 -0.0185827)
(1.42751 -0.675269 1.99486e-07)
(1.42751 -0.675269 -1.99525e-07)
(1.42749 -0.675216 0.0185827)
(1.71593 -0.369546 -0.0176965)
(1.716 -0.369583 3.75669e-07)
(1.716 -0.369583 -3.75415e-07)
(1.71593 -0.369546 0.0176965)
(1.91352 -0.305579 -0.0163221)
(1.9136 -0.30554 3.83117e-07)
(1.9136 -0.30554 -3.8286e-07)
(1.91352 -0.305579 0.0163221)
(2.05339 -0.245437 -0.0149359)
(2.05351 -0.245413 2.5239e-07)
(2.05351 -0.245413 -2.52268e-07)
(2.05339 -0.245437 0.0149359)
(2.2405 -0.200719 -0.0135321)
(2.2405 -0.200738 8.7709e-08)
(2.2405 -0.200738 -8.7711e-08)
(2.2405 -0.200719 0.0135321)
(2.42143 -0.106423 -0.0121865)
(2.42146 -0.106327 -1.1185e-09)
(2.42146 -0.106328 1.11822e-09)
(2.42143 -0.106423 0.0121865)
(1.23677 -0.659138 -0.0198656)
(1.23669 -0.659069 -1.8506e-07)
(1.23669 -0.659069 1.84807e-07)
(1.23677 -0.659138 0.0198656)
(0.888902 -0.481726 -0.0218759)
(0.889027 -0.481708 2.93986e-07)
(0.889027 -0.481708 -2.93788e-07)
(0.888903 -0.481726 0.0218759)
(1.13448 0.93682 -0.0190466)
(1.13438 0.936967 2.03289e-07)
(1.13438 0.936967 -2.03184e-07)
(1.13448 0.93682 0.0190466)
(1.72065 1.35652 -0.0143231)
(1.72066 1.35665 4.12606e-07)
(1.72066 1.35665 -4.12479e-07)
(1.72065 1.35652 0.0143231)
(1.86232 1.10308 -0.0138612)
(1.86239 1.1033 7.01719e-07)
(1.86239 1.1033 -7.01273e-07)
(1.86232 1.10308 0.0138612)
(1.83127 1.10106 -0.0143198)
(1.83138 1.10105 6.05859e-07)
(1.83138 1.10105 -6.05841e-07)
(1.83127 1.10106 0.0143198)
(2.05803 0.822965 -0.0142583)
(2.05808 0.823098 4.99509e-07)
(2.05808 0.823098 -4.9934e-07)
(2.05803 0.822965 0.0142583)
(2.07215 0.69138 -0.0138941)
(2.07214 0.691302 -1.18587e-07)
(2.07214 0.691302 1.18922e-07)
(2.07215 0.69138 0.0138941)
(2.26914 0.497406 -0.0129874)
(2.26917 0.497536 2.50409e-07)
(2.26917 0.497536 -2.50249e-07)
(2.26914 0.497406 0.0129874)
(2.24107 0.572188 -0.0121105)
(2.24113 0.572052 3.27448e-07)
(2.24113 0.572052 -3.27371e-07)
(2.24107 0.572188 0.0121105)
(2.57368 0.295497 -0.0111297)
(2.57365 0.295679 2.32001e-07)
(2.57365 0.295679 -2.31844e-07)
(2.57368 0.295497 0.0111297)
(2.46527 -0.189836 -0.0110124)
(2.46527 -0.189895 2.57822e-08)
(2.46527 -0.189895 -2.57734e-08)
(2.46527 -0.189836 0.0110124)
(2.54126 -0.0315969 -0.0112175)
(2.54127 -0.0315232 6.8608e-08)
(2.54127 -0.0315232 -6.85881e-08)
(2.54126 -0.031597 0.0112175)
(2.45127 0.084172 -0.0111409)
(2.45136 0.0842374 3.0772e-07)
(2.45136 0.0842374 -3.07676e-07)
(2.45127 0.084172 0.0111409)
(2.45661 0.259907 -0.0107216)
(2.45673 0.259876 3.33204e-07)
(2.45673 0.259876 -3.33151e-07)
(2.45661 0.259907 0.0107216)
(2.48616 0.332878 -0.010197)
(2.48631 0.332746 2.80742e-07)
(2.48631 0.332746 -2.80764e-07)
(2.48616 0.332879 0.010197)
(1.47895 -0.899504 -0.0169462)
(1.47899 -0.89946 2.75891e-07)
(1.47899 -0.89946 -2.75909e-07)
(1.47895 -0.899504 0.0169462)
(1.87972 -0.642993 -0.0165639)
(1.87979 -0.643034 3.2391e-07)
(1.87979 -0.643034 -3.23903e-07)
(1.87972 -0.642993 0.0165639)
(1.95406 -0.488395 -0.0152987)
(1.9541 -0.488398 4.31336e-07)
(1.9541 -0.488398 -4.31205e-07)
(1.95406 -0.488395 0.0152987)
(2.20701 -0.401247 -0.0141248)
(2.20707 -0.401227 2.85423e-07)
(2.20707 -0.401227 -2.85316e-07)
(2.20701 -0.401247 0.0141248)
(2.2143 -0.364314 -0.0128818)
(2.21439 -0.364345 2.01627e-07)
(2.21439 -0.364345 -2.01629e-07)
(2.2143 -0.364314 0.0128818)
(2.50856 -0.252835 -0.0116524)
(2.50852 -0.252778 -4.70556e-08)
(2.50852 -0.252778 4.70634e-08)
(2.50856 -0.252835 0.0116524)
(2.46861 -0.26535 -0.0105853)
(2.46866 -0.265388 1.51332e-07)
(2.46866 -0.265388 -1.51338e-07)
(2.46861 -0.26535 0.0105853)
(1.66894 -0.902278 -0.0178361)
(1.66894 -0.90232 1.00192e-07)
(1.66894 -0.90232 -1.00297e-07)
(1.66894 -0.902278 0.0178361)
(0.89614 -1.1092 -0.0197764)
(0.896244 -1.10934 2.68085e-07)
(0.896244 -1.10934 -2.68303e-07)
(0.89614 -1.1092 0.0197764)
(-0.290007 -0.232609 0.00261034)
(-0.28999 -0.232596 -1.30876e-08)
(-0.28999 -0.232596 1.21435e-08)
(-0.290007 -0.232609 -0.00261034)
(0.148157 0.107048 -0.000989466)
(0.148176 0.10703 -4.36764e-08)