/*--------------------------------*- C++ -*----------------------------------*\
| =========                 |                                                 |
| \\      /  F ield         | OpenFOAM: The Open Source CFD Toolbox           |
|  \\    /   O peration     | Version:  v1806                                 |
|   \\  /    A nd           | Web:      www.OpenFOAM.com                      |
|    \\/     M anipulation  |                                                 |
\*---------------------------------------------------------------------------*/
FoamFile
{
    version     2.0;
    format      ascii;
    class       volVectorField;
    location    "450";
    object      U;
}
// * * * * * * * * * * * * * * * * * * * * * * * * * * * * * * * * * * * * * //

dimensions      [0 1 -1 0 0 0 0];


internalField   nonuniform List<vector> 
2400
(
(0.3 -0.00300634 0)
(0.30001 -0.00900725 0)
(0.300033 -0.0149799 0)
(0.300072 -0.0209072 0)
(0.300132 -0.026771 0)
(0.300216 -0.0325524 0)
(0.300332 -0.03823 0)
(0.300486 -0.0437811 0)
(0.300686 -0.0491803 0)
(0.300943 -0.0544014 0)
(0.301265 -0.0594155 0)
(0.301664 -0.0641944 0)
(0.302151 -0.0687085 0)
(0.302736 -0.0729305 0)
(0.303429 -0.0768344 0)
(0.30424 -0.0803975 0)
(0.305174 -0.0836034 0)
(0.306236 -0.0864358 0)
(0.307432 -0.088897 0)
(0.308745 -0.0909733 0)
(0.300001 -0.00301473 0)
(0.300026 -0.00903337 0)
(0.300078 -0.0150267 0)
(0.300161 -0.0209793 0)
(0.300278 -0.0268744 0)
(0.300438 -0.0326949 0)
(0.300649 -0.0384207 0)
(0.30092 -0.0440314 0)
(0.301263 -0.0495022 0)
(0.30169 -0.0548094 0)
(0.302213 -0.059924 0)
(0.302847 -0.06482 0)
(0.303602 -0.0694661 0)
(0.304491 -0.0738363 0)
(0.305521 -0.0779009 0)
(0.306701 -0.0816367 0)
(0.30803 -0.085022 0)
(0.30951 -0.0880387 0)
(0.311127 -0.0906816 0)
(0.312879 -0.0929398 0)
(0.300002 -0.00303085 0)
(0.300042 -0.0090827 0)
(0.300122 -0.0151122 0)
(0.300249 -0.0211062 0)
(0.300427 -0.0270497 0)
(0.300666 -0.0329276 0)
(0.300976 -0.038721 0)
(0.301369 -0.0444115 0)
(0.301859 -0.0499744 0)
(0.30246 -0.055388 0)
(0.303188 -0.0606213 0)
(0.304057 -0.0656499 0)
(0.305079 -0.0704379 0)
(0.306266 -0.0749602 0)
(0.307624 -0.0791796 0)
(0.309158 -0.0830729 0)
(0.310862 -0.0866093 0)
(0.312736 -0.0897684 0)
(0.314755 -0.0925393 0)
(0.316916 -0.0948978 0)
(0.300003 -0.00305374 0)
(0.300055 -0.00915251 0)
(0.30016 -0.0152322 0)
(0.300326 -0.0212826 0)
(0.300559 -0.0272907 0)
(0.300869 -0.0332442 0)
(0.301268 -0.0391252 0)
(0.301773 -0.0449185 0)
(0.302399 -0.0505983 0)
(0.303165 -0.0561464 0)
(0.304085 -0.0615272 0)
(0.305179 -0.0667209 0)
(0.306459 -0.0716822 0)
(0.307938 -0.076391 0)
(0.309621 -0.0807959 0)
(0.311513 -0.0848791 0)
(0.3136 -0.0885915 0)
(0.315882 -0.0919192 0)
(0.318318 -0.0948312 0)
(0.32091 -0.0973135 0)
(0.300003 -0.00308216 0)
(0.300065 -0.00923914 0)
(0.300191 -0.015381 0)
(0.300388 -0.0215012 0)
(0.300665 -0.0275887 0)
(0.301034 -0.0336355 0)
(0.301511 -0.0396237 0)
(0.302113 -0.0455433 0)
(0.30286 -0.0513652 0)
(0.303773 -0.057078 0)
(0.304872 -0.062637 0)
(0.306178 -0.068032 0)
(0.307707 -0.0732001 0)
(0.309473 -0.0781346 0)
(0.311482 -0.082757 0)
(0.313737 -0.0870661 0)
(0.316222 -0.090978 0)
(0.318933 -0.0944984 0)
(0.321813 -0.0975585 0)
(0.324868 -0.100167 0)
(0.300004 -0.00311466 0)
(0.300072 -0.00933829 0)
(0.300212 -0.0155515 0)
(0.300432 -0.0217522 0)
(0.300741 -0.0279317 0)
(0.301154 -0.0340872 0)
(0.30169 -0.0402006 0)
(0.30237 -0.046269 0)
(0.303218 -0.0522572 0)
(0.304259 -0.0581661 0)
(0.305519 -0.063934 0)
(0.30702 -0.069571 0)
(0.308787 -0.0749812 0)
(0.310833 -0.0801891 0)
(0.313171 -0.0850638 0)
(0.315797 -0.0896467 0)
(0.318701 -0.0937845 0)
(0.321863 -0.0975352 0)
(0.325229 -0.10075 0)
(0.328782 -0.1035 0)
(0.300004 -0.00314946 0)
(0.300076 -0.00944466 0)
(0.300222 -0.0157349 0)
(0.300452 -0.0220236 0)
(0.300778 -0.0283044 0)
(0.301217 -0.0345816 0)
(0.301792 -0.0408352 0)
(0.302526 -0.047074 0)
(0.303451 -0.0532514 0)
(0.304594 -0.0593897 0)
(0.305991 -0.0653973 0)
(0.307666 -0.0713237 0)
(0.309657 -0.0770127 0)
(0.311969 -0.0825546 0)
(0.314639 -0.0877188 0)
(0.317643 -0.0926422 0)
(0.320993 -0.0970334 0)
(0.324637 -0.101072 0)
(0.328542 -0.104446 0)
(0.332635 -0.107368 0)
(0.300004 -0.00318441 0)
(0.300074 -0.00955181 0)
(0.300218 -0.0159206 0)
(0.300445 -0.0223007 0)
(0.30077 -0.0286881 0)
(0.301212 -0.0350967 0)
(0.301799 -0.0415025 0)
(0.302558 -0.0479315 0)
(0.303529 -0.0543189 0)
(0.304741 -0.0607219 0)
(0.306247 -0.0669991 0)
(0.308062 -0.0732714 0)
(0.310258 -0.0792754 0)
(0.312817 -0.0852308 0)
(0.315823 -0.0907205 0)
(0.319204 -0.0960801 0)
(0.323038 -0.100748 0)
(0.327195 -0.105168 0)
(0.331712 -0.108691 0)
(0.336397 -0.111848 0)
(0.300003 -0.00321697 0)
(0.300067 -0.0096521 0)
(0.300197 -0.0160958 0)
(0.300404 -0.0225658 0)
(0.300706 -0.0290605 0)
(0.301124 -0.0356054 0)
(0.301693 -0.0421715 0)
(0.30244 -0.0488077 0)
(0.30342 -0.055423 0)
(0.304656 -0.0621276 0)
(0.306233 -0.0687022 0)
(0.308144 -0.075388 0)
(0.310523 -0.0817395 0)
(0.313289 -0.0882157 0)
(0.31664 -0.0940593 0)
(0.320383 -0.0999962 0)
(0.324756 -0.104952 0)
(0.329453 -0.109902 0)
(0.334681 -0.113539 0)
(0.340024 -0.117053 0)
(0.300003 -0.00324417 0)
(0.300053 -0.00973657 0)
(0.300157 -0.0162456 0)
(0.300325 -0.0227979 0)
(0.300579 -0.0293948 0)
(0.300939 -0.0360752 0)
(0.301453 -0.0428046 0)
(0.302141 -0.0496603 0)
(0.303085 -0.0565178 0)
(0.304288 -0.0635606 0)
(0.305889 -0.0704576 0)
(0.307833 -0.0776363 0)
(0.310363 -0.084361 0)
(0.313273 -0.0915032 0)
(0.316989 -0.0977098 0)
(0.321039 -0.104437 0)
(0.326048 -0.109662 0)
(0.331279 -0.115383 0)
(0.337372 -0.119054 0)
(0.343454 -0.123145 0)
(0.300002 -0.0032626 0)
(0.300031 -0.00979487 0)
(0.300096 -0.016353 0)
(0.300201 -0.0229726 0)
(0.300378 -0.0296598 0)
(0.300643 -0.0364673 0)
(0.301057 -0.0433567 0)
(0.301632 -0.0504365 0)
(0.302481 -0.057547 0)
(0.303581 -0.0649591 0)
(0.305144 -0.0722028 0)
(0.307037 -0.0799609 0)
(0.309672 -0.0870779 0)
(0.312632 -0.0950781 0)
(0.316735 -0.101621 0)
(0.32098 -0.109468 0)
(0.326801 -0.114875 0)
(0.332452 -0.121759 0)
(0.33972 -0.125321 0)
(0.346572 -0.130345 0)
(0.300001 -0.0032684 0)
(0.300001 -0.00981537 0)
(0.300009 -0.0163984 0)
(0.300028 -0.0230622 0)
(0.300095 -0.0298195 0)
(0.300219 -0.036736 0)
(0.300484 -0.0437749 0)
(0.300878 -0.0510718 0)
(0.301566 -0.0584422 0)
(0.302472 -0.0662407 0)
(0.303919 -0.073861 0)
(0.305651 -0.0822759 0)
(0.308319 -0.089813 0)
(0.311211 -0.0988992 0)
(0.315696 -0.105711 0)
(0.319978 -0.115175 0)
(0.326855 -0.120533 0)
(0.332633 -0.12926 0)
(0.341722 -0.13244 0)
(0.349097 -0.138952 0)
(0.299999 -0.00325737 0)
(0.299961 -0.00978533 0)
(0.299896 -0.0163604 0)
(0.299801 -0.0230357 0)
(0.299721 -0.0298336 0)
(0.299656 -0.0368297 0)
(0.299712 -0.0439975 0)
(0.299851 -0.0514893 0)
(0.300296 -0.059121 0)
(0.300899 -0.0672995 0)
(0.302129 -0.0753393 0)
(0.303558 -0.0844492 0)
(0.306153 -0.0924816 0)
(0.30883 -0.102858 0)
(0.313616 -0.109889 0)
(0.317807 -0.121644 0)
(0.325902 -0.126487 0)
(0.331432 -0.138279 0)
(0.343402 -0.140456 0)
(0.350417 -0.149404 0)
(0.299996 -0.00322502 0)
(0.299913 -0.0096912 0)
(0.299755 -0.0162158 0)
(0.299517 -0.02286 0)
(0.29925 -0.0296574 0)
(0.298944 -0.0366912 0)
(0.298726 -0.0439537 0)
(0.298525 -0.0516012 0)
(0.298632 -0.0594835 0)
(0.298803 -0.0680067 0)
(0.299694 -0.0765195 0)
(0.300633 -0.086295 0)
(0.30302 -0.0949942 0)
(0.305264 -0.106716 0)
(0.310194 -0.114128 0)
(0.314218 -0.128814 0)
(0.323362 -0.132556 0)
(0.328648 -0.149454 0)
(0.344426 -0.149133 0)
(0.349657 -0.162544 0)
(0.299994 -0.00316676 0)
(0.299854 -0.00951916 0)
(0.299586 -0.015941 0)
(0.299176 -0.0225006 0)
(0.298681 -0.029244 0)
(0.298082 -0.03626 0)
(0.297516 -0.0435655 0)
(0.296891 -0.0513118 0)
(0.296542 -0.0594098 0)
(0.296148 -0.0682171 0)
(0.296535 -0.0772398 0)
(0.296764 -0.0875882 0)
(0.298769 -0.0972156 0)
(0.30023 -0.110091 0)
(0.305155 -0.118513 0)
(0.30877 -0.136199 0)
(0.318498 -0.138862 0)
(0.324336 -0.163358 0)
(0.343315 -0.157721 0)
(0.346604 -0.180262 0)
(0.29999 -0.00307814 0)
(0.299787 -0.00925566 0)
(0.299389 -0.0155126 0)
(0.298782 -0.0219234 0)
(0.298016 -0.0285461 0)
(0.297074 -0.0354745 0)
(0.296084 -0.0427504 0)
(0.294954 -0.0505203 0)
(0.294013 -0.0587624 0)
(0.292927 -0.0677746 0)
(0.292585 -0.0772792 0)
(0.291892 -0.0880927 0)
(0.293223 -0.0988667 0)
(0.293465 -0.112556 0)
(0.298254 -0.123087 0)
(0.300649 -0.142773 0)
(0.31091 -0.146403 0)
(0.317863 -0.17931 0)
(0.337425 -0.165589 0)
(0.343287 -0.206093 0)
(0.299986 -0.0029551 0)
(0.299712 -0.00888835 0)
(0.299168 -0.014909 0)
(0.298339 -0.0210966 0)
(0.297265 -0.0275192 0)
(0.295936 -0.0342755 0)
(0.294448 -0.0414286 0)
(0.292738 -0.0491248 0)
(0.291066 -0.0573985 0)
(0.28917 -0.0665122 0)
(0.287822 -0.0763725 0)
(0.286038 -0.0875613 0)
(0.286178 -0.0994542 0)
(0.284877 -0.113776 0)
(0.28902 -0.127309 0)
(0.289004 -0.147589 0)
(0.300553 -0.15672 0)
(0.306423 -0.194136 0)
(0.325666 -0.175431 0)
(0.342429 -0.243606 0)
(0.299982 -0.00279432 0)
(0.29963 -0.00840705 0)
(0.298928 -0.0141127 0)
(0.297859 -0.0199936 0)
(0.296448 -0.0261258 0)
(0.294692 -0.032611 0)
(0.29265 -0.0395298 0)
(0.290288 -0.0470297 0)
(0.287768 -0.0551879 0)
(0.284946 -0.0642556 0)
(0.282321 -0.0742593 0)
(0.279289 -0.0856949 0)
(0.277557 -0.0983731 0)
(0.274593 -0.113392 0)
(0.2766 -0.129724 0)
(0.273693 -0.150461 0)
(0.286102 -0.169017 0)
(0.286162 -0.204368 0)
(0.311122 -0.197775 0)
(0.338453 -0.290333 0)
(0.299977 -0.00259342 0)
(0.299545 -0.00780464 0)
(0.298677 -0.0131111 0)
(0.297355 -0.0185951 0)
(0.29559 -0.0243381 0)
(0.293378 -0.0304416 0)
(0.290746 -0.0369996 0)
(0.287675 -0.0441568 0)
(0.284233 -0.0520246 0)
(0.280367 -0.0608434 0)
(0.276291 -0.0707259 0)
(0.271793 -0.0821402 0)
(0.267649 -0.0951136 0)
(0.26278 -0.110693 0)
(0.260648 -0.128602 0)
(0.255231 -0.150993 0)
(0.263368 -0.177543 0)
(0.255968 -0.210891 0)
(0.292361 -0.241722 0)
(0.309988 -0.331396 0)
(0.299973 -0.00235082 0)
(0.299459 -0.0070763 0)
(0.298424 -0.0118957 0)
(0.296845 -0.0168885 0)
(0.29472 -0.0221372 0)
(0.292042 -0.0277402 0)
(0.288808 -0.0337983 0)
(0.284996 -0.040449 0)
(0.280605 -0.0478269 0)
(0.275608 -0.0561509 0)
(0.270031 -0.0656025 0)
(0.263827 -0.0765869 0)
(0.257124 -0.089316 0)
(0.249756 -0.104729 0)
(0.242452 -0.12288 0)
(0.233772 -0.146509 0)
(0.230062 -0.175325 0)
(0.216871 -0.214635 0)
(0.245852 -0.28104 0)
(0.226708 -0.333599 0)
(0.310883 -0.09357 0)
(0.314208 -0.0956044 0)
(0.317858 -0.0965292 0)
(0.321747 -0.0964654 0)
(0.325685 -0.0958426 0)
(0.329699 -0.0947617 0)
(0.333545 -0.0935517 0)
(0.337462 -0.0922099 0)
(0.341051 -0.0909044 0)
(0.344839 -0.0895785 0)
(0.315679 -0.0957707 0)
(0.319806 -0.0980335 0)
(0.324125 -0.0991384 0)
(0.328523 -0.0991633 0)
(0.332819 -0.0985831 0)
(0.33702 -0.0974608 0)
(0.340966 -0.0962133 0)
(0.344878 -0.0947757 0)
(0.348446 -0.0934139 0)
(0.352169 -0.0920032 0)
(0.320293 -0.0978678 0)
(0.325145 -0.100233 0)
(0.330053 -0.101358 0)
(0.334908 -0.10132 0)
(0.339509 -0.100655 0)
(0.34387 -0.0994084 0)
(0.347907 -0.0980768 0)
(0.351815 -0.0965296 0)
(0.355397 -0.0951241 0)
(0.359064 -0.0936315 0)
(0.324903 -0.100418 0)
(0.330544 -0.102839 0)
(0.336073 -0.103929 0)
(0.341422 -0.103771 0)
(0.346317 -0.102965 0)
(0.350836 -0.101549 0)
(0.354943 -0.100102 0)
(0.358831 -0.0984189 0)
(0.362404 -0.0969512 0)
(0.365946 -0.0953626 0)
(0.329523 -0.103377 0)
(0.336016 -0.105794 0)
(0.342184 -0.106765 0)
(0.348049 -0.106396 0)
(0.353205 -0.105363 0)
(0.357881 -0.103721 0)
(0.362022 -0.102117 0)
(0.365879 -0.100268 0)
(0.369373 -0.098715 0)
(0.372654 -0.0969824 0)
(0.334171 -0.106783 0)
(0.341581 -0.109131 0)
(0.348404 -0.109885 0)
(0.354798 -0.109206 0)
(0.360176 -0.107862 0)
(0.365024 -0.105941 0)
(0.369147 -0.104136 0)
(0.372933 -0.102076 0)
(0.376148 -0.100369 0)
(0.378867 -0.098389 0)
(0.338864 -0.110673 0)
(0.347244 -0.112873 0)
(0.354739 -0.113291 0)
(0.361677 -0.112191 0)
(0.367259 -0.110452 0)
(0.372299 -0.1082 0)
(0.376288 -0.106122 0)
(0.37983 -0.103749 0)
(0.382281 -0.101733 0)
(0.383825 -0.0993053 0)
(0.343616 -0.115086 0)
(0.352993 -0.117043 0)
(0.361203 -0.116987 0)
(0.368728 -0.115355 0)
(0.374535 -0.11314 0)
(0.379712 -0.110466 0)
(0.383248 -0.107962 0)
(0.386018 -0.105053 0)
(0.386738 -0.102435 0)
(0.386026 -0.0992344 0)
(0.348437 -0.12005 0)
(0.358807 -0.12168 0)
(0.367872 -0.120994 0)
(0.376078 -0.118724 0)
(0.382077 -0.115905 0)
(0.387029 -0.112602 0)
(0.389317 -0.109347 0)
(0.390143 -0.105488 0)
(0.38753 -0.101818 0)
(0.382951 -0.0974086 0)
(0.353318 -0.125584 0)
(0.364715 -0.126869 0)
(0.374962 -0.125378 0)
(0.383882 -0.12231 0)
(0.389675 -0.118586 0)
(0.393313 -0.114196 0)
(0.392732 -0.109604 0)
(0.389586 -0.10418 0)
(0.381469 -0.0989188 0)
(0.371083 -0.0928612 0)
(0.358274 -0.131711 0)
(0.370927 -0.132803 0)
(0.382823 -0.130204 0)
(0.39197 -0.125955 0)
(0.396179 -0.120641 0)
(0.396205 -0.114342 0)
(0.390123 -0.107578 0)
(0.380278 -0.0999109 0)
(0.364386 -0.0926141 0)
(0.346532 -0.0846851 0)
(0.363529 -0.138551 0)
(0.377926 -0.139808 0)
(0.391525 -0.13532 0)
(0.398941 -0.128971 0)
(0.398536 -0.120823 0)
(0.391294 -0.111504 0)
(0.376426 -0.101723 0)
(0.357233 -0.09139 0)
(0.332167 -0.0820154 0)
(0.306471 -0.0724942 0)
(0.369896 -0.146479 0)
(0.386078 -0.148117 0)
(0.399687 -0.139822 0)
(0.400859 -0.129683 0)
(0.391069 -0.117038 0)
(0.372244 -0.103722 0)
(0.345868 -0.090564 0)
(0.316206 -0.0778536 0)
(0.28275 -0.0670839 0)
(0.251169 -0.0569634 0)
(0.379039 -0.156183 0)
(0.394136 -0.15714 0)
(0.402727 -0.141339 0)
(0.390338 -0.125264 0)
(0.365942 -0.106718 0)
(0.332458 -0.0893601 0)
(0.294472 -0.073579 0)
(0.256465 -0.0598758 0)
(0.218601 -0.0492408 0)
(0.185646 -0.04009 0)
(0.392463 -0.168133 0)
(0.396633 -0.164257 0)
(0.39171 -0.135727 0)
(0.357412 -0.112432 0)
(0.315861 -0.0879785 0)
(0.268729 -0.0683836 0)
(0.223802 -0.0522601 0)
(0.183629 -0.0399884 0)
(0.147961 -0.0313936 0)
(0.119127 -0.0246817 0)
(0.407764 -0.18079 0)
(0.381852 -0.163988 0)
(0.354722 -0.118178 0)
(0.29349 -0.0892639 0)
(0.239374 -0.0614843 0)
(0.186127 -0.0437761 0)
(0.143909 -0.0306246 0)
(0.109763 -0.0221619 0)
(0.0824131 -0.0167401 0)
(0.0613276 -0.013045 0)
(0.41347 -0.187262 0)
(0.333411 -0.148968 0)
(0.282404 -0.086133 0)
(0.199045 -0.0577747 0)
(0.147146 -0.0323431 0)
(0.100505 -0.0216275 0)
(0.0710158 -0.0136463 0)
(0.0480354 -0.00954997 0)
(0.0312705 -0.00695493 0)
(0.0183288 -0.00594009 0)
(0.388557 -0.171872 0)
(0.23774 -0.112464 0)
(0.178502 -0.0430088 0)
(0.092822 -0.0262291 0)
(0.0627526 -0.00945004 0)
(0.0320485 -0.00740027 0)
(0.0184084 -0.00377834 0)
(0.00612309 -0.002588 0)
(-0.00145164 -0.0017677 0)
(-0.0080509 -0.00269534 0)
(0.311212 -0.111008 0)
(0.098213 -0.0551369 0)
(0.0712695 -0.00198123 0)
(0.0103568 -0.00531542 0)
(0.00853576 0.000532519 0)
(-0.00721909 -0.000779487 0)
(-0.00906831 -2.29588e-05 0)
(-0.0139394 9.95669e-05 0)
(-0.0153421 0.000108297 0)
(-0.0181774 -0.00165537 0)
(0.168903 -0.0747099 0)
(-0.0418139 -0.0153013 0)
(0.00540177 0.00744975 0)
(-0.0201454 0.00043531 0)
(-0.00904918 0.000940822 0)
(-0.013763 0.000587408 0)
(-0.0114779 0.000295406 0)
(-0.0120569 0.000294742 0)
(-0.0109388 0.000172542 0)
(-0.0122208 -0.00134924 0)
(0.349034 -0.0879395 0)
(0.3547 -0.0858165 0)
(0.359342 -0.0833181 0)
(0.364611 -0.0800025 0)
(0.368406 -0.0758625 0)
(0.372409 -0.0703681 0)
(0.374544 -0.0640393 0)
(0.376459 -0.056183 0)
(0.376688 -0.0481422 0)
(0.376495 -0.0389582 0)
(0.375383 -0.0308874 0)
(0.373581 -0.022434 0)
(0.371931 -0.0165311 0)
(0.368917 -0.0108644 0)
(0.367314 -0.0085506 0)
(0.363158 -0.00650542 0)
(0.361905 -0.00738372 0)
(0.356483 -0.00809607 0)
(0.355705 -0.00997522 0)
(0.349062 -0.0114857 0)
(0.356319 -0.0902999 0)
(0.361915 -0.0880709 0)
(0.36642 -0.0854581 0)
(0.371378 -0.0819474 0)
(0.374445 -0.0774943 0)
(0.377439 -0.0716245 0)
(0.378068 -0.0648118 0)
(0.378447 -0.0565467 0)
(0.376865 -0.0480579 0)
(0.375188 -0.0386199 0)
(0.372527 -0.0302499 0)
(0.369681 -0.0217065 0)
(0.366963 -0.0155894 0)
(0.363341 -0.00989957 0)
(0.361064 -0.0073734 0)
(0.356521 -0.00531232 0)
(0.354853 -0.00599185 0)
(0.349066 -0.00671859 0)
(0.348139 -0.00841844 0)
(0.341031 -0.0100744 0)
(0.363188 -0.0919066 0)
(0.368637 -0.0896222 0)
(0.372815 -0.0868737 0)
(0.377038 -0.0831023 0)
(0.378843 -0.0782662 0)
(0.380198 -0.0719742 0)
(0.378728 -0.0646903 0)
(0.37708 -0.0560753 0)
(0.373268 -0.0472388 0)
(0.369845 -0.0376538 0)
(0.365341 -0.0290981 0)
(0.361272 -0.0205707 0)
(0.35719 -0.014362 0)
(0.352769 -0.00875701 0)
(0.349519 -0.00615682 0)
(0.344399 -0.00417226 0)
(0.342074 -0.0047503 0)
(0.335747 -0.00551248 0)
(0.334503 -0.00711828 0)
(0.326806 -0.0088571 0)
(0.369932 -0.0935885 0)
(0.374885 -0.0911499 0)
(0.378154 -0.0881098 0)
(0.380757 -0.0838838 0)
(0.380336 -0.0784787 0)
(0.379025 -0.07162 0)
(0.374641 -0.0637974 0)
(0.370328 -0.0548337 0)
(0.363948 -0.0457164 0)
(0.358644 -0.0360844 0)
(0.352329 -0.0274574 0)
(0.347178 -0.0190475 0)
(0.341857 -0.0128299 0)
(0.336804 -0.0073628 0)
(0.332628 -0.00472667 0)
(0.327036 -0.00283334 0)
(0.324007 -0.00334311 0)
(0.317227 -0.0041584 0)
(0.315582 -0.00571618 0)
(0.307432 -0.00755345 0)
(0.376222 -0.0950951 0)
(0.379996 -0.09234 0)
(0.381352 -0.0887808 0)
(0.381081 -0.0838641 0)
(0.377221 -0.0777152 0)
(0.372146 -0.0702071 0)
(0.364139 -0.0618793 0)
(0.356704 -0.0526737 0)
(0.347687 -0.043439 0)
(0.340581 -0.0339212 0)
(0.332727 -0.0253703 0)
(0.3268 -0.0171853 0)
(0.320568 -0.0110323 0)
(0.315212 -0.00574462 0)
(0.310342 -0.00309696 0)
(0.304561 -0.00130409 0)
(0.30093 -0.00176596 0)
(0.293977 -0.00264768 0)
(0.291952 -0.00419179 0)
(0.283708 -0.00617284 0)
(0.381385 -0.0962325 0)
(0.382785 -0.0928649 0)
(0.380735 -0.0884666 0)
(0.376053 -0.0826042 0)
(0.367503 -0.075592 0)
(0.357786 -0.0674592 0)
(0.345825 -0.0587863 0)
(0.335255 -0.0495571 0)
(0.32396 -0.0404557 0)
(0.315454 -0.0312597 0)
(0.306591 -0.0229592 0)
(0.30032 -0.0151076 0)
(0.293617 -0.00909201 0)
(0.288326 -0.00401374 0)
(0.283071 -0.00137075 0)
(0.277432 0.000321491 0)
(0.273399 -0.000109718 0)
(0.266643 -0.00106718 0)
(0.26436 -0.00264434 0)
(0.25652 -0.00481199 0)
(0.384118 -0.0965929 0)
(0.381355 -0.0921936 0)
(0.374044 -0.0866158 0)
(0.36344 -0.0796366 0)
(0.349296 -0.0717975 0)
(0.334664 -0.0632464 0)
(0.319083 -0.0545464 0)
(0.305983 -0.0456202 0)
(0.293241 -0.0369566 0)
(0.284031 -0.0282974 0)
(0.274858 -0.0204092 0)
(0.268713 -0.0129722 0)
(0.261993 -0.00714713 0)
(0.257081 -0.00228774 0)
(0.251751 0.000344261 0)
(0.246551 0.00194317 0)
(0.24237 0.00152513 0)
(0.236184 0.00048176 0)
(0.233862 -0.00119101 0)
(0.226924 -0.00356506 0)
(0.382257 -0.0955502 0)
(0.373109 -0.08966 0)
(0.358736 -0.0826777 0)
(0.341257 -0.0746282 0)
(0.321475 -0.0662496 0)
(0.302625 -0.0577045 0)
(0.284578 -0.0494315 0)
(0.270158 -0.0411888 0)
(0.257123 -0.0332512 0)
(0.248026 -0.0252925 0)
(0.239224 -0.0179198 0)
(0.23357 -0.0109258 0)
(0.22719 -0.00531163 0)
(0.222852 -0.000661629 0)
(0.217707 0.00196053 0)
(0.213169 0.00347134 0)
(0.209118 0.00304243 0)
(0.203821 0.00189548 0)
(0.201732 5.6608e-05 0)
(0.196042 -0.00250771 0)
(0.372771 -0.0923 0)
(0.35514 -0.0846046 0)
(0.332674 -0.0762994 0)
(0.308588 -0.067574 0)
(0.284413 -0.0592381 0)
(0.263129 -0.0512997 0)
(0.244453 -0.0439511 0)
(0.230238 -0.0367194 0)
(0.218054 -0.0296897 0)
(0.209736 -0.0224876 0)
(0.201759 -0.0156456 0)
(0.19675 -0.00906557 0)
(0.190901 -0.00365471 0)
(0.187192 0.000808609 0)
(0.182433 0.00341418 0)
(0.178709 0.00482821 0)
(0.175056 0.00435688 0)
(0.170856 0.00307982 0)
(0.169229 0.00102069 0)
(0.164868 -0.00167794 0)
(0.352218 -0.0860529 0)
(0.325087 -0.0766452 0)
(0.295126 -0.0675836 0)
(0.266425 -0.0589714 0)
(0.240442 -0.0514771 0)
(0.219263 -0.0447669 0)
(0.201958 -0.0387183 0)
(0.189276 -0.0326485 0)
(0.178699 -0.0265349 0)
(0.171453 -0.0200206 0)
(0.164424 -0.0136452 0)
(0.159992 -0.00741534 0)
(0.154714 -0.00219606 0)
(0.151601 0.00209803 0)
(0.147384 0.00465967 0)
(0.144556 0.00595275 0)
(0.141486 0.00540878 0)
(0.138422 0.00397822 0)
(0.137315 0.00168929 0)
(0.134082 -0.00106376 0)
(0.317833 -0.0763857 0)
(0.282393 -0.0660102 0)
(0.247755 -0.057292 0)
(0.21808 -0.0498346 0)
(0.193599 -0.0439518 0)
(0.174991 -0.0388724 0)
(0.160513 -0.0342213 0)
(0.150041 -0.0292263 0)
(0.141234 -0.0238713 0)
(0.134951 -0.0178896 0)
(0.128709 -0.0118803 0)
(0.124657 -0.00594157 0)
(0.119916 -0.000924883 0)
(0.117343 0.00319181 0)
(0.11378 0.00566563 0)
(0.111827 0.00681631 0)
(0.109356 0.00618944 0)
(0.107242 0.00460697 0)
(0.106468 0.00212974 0)
(0.10399 -0.000613331 0)
(0.269117 -0.0636746 0)
(0.229491 -0.0537751 0)
(0.19497 -0.046806 0)
(0.168603 -0.0414283 0)
(0.148456 -0.0375668 0)
(0.133893 -0.0341209 0)
(0.122686 -0.0306556 0)
(0.114335 -0.0264622 0)
(0.106957 -0.0216203 0)
(0.101275 -0.0159981 0)
(0.095532 -0.0102678 0)
(0.0916617 -0.00459738 0)
(0.0874209 0.000182754 0)
(0.0853337 0.0040854 0)
(0.0824463 0.00643013 0)
(0.0811749 0.00744829 0)
(0.079091 0.00676438 0)
(0.0775134 0.00506598 0)
(0.0766904 0.00246535 0)
(0.0746179 -0.000264582 0)
(0.209333 -0.0493767 0)
(0.172087 -0.0417645 0)
(0.142934 -0.0377196 0)
(0.123117 -0.0347848 0)
(0.108546 -0.0327962 0)
(0.0981122 -0.0306061 0)
(0.0896854 -0.0279209 0)
(0.0828572 -0.0241909 0)
(0.0763344 -0.0196213 0)
(0.0708501 -0.0142235 0)
(0.0653343 -0.00873035 0)
(0.0615223 -0.00334968 0)
(0.0577471 0.00114391 0)
(0.0560513 0.00479567 0)
(0.0536982 0.00700665 0)
(0.0527061 0.00795256 0)
(0.0505875 0.00727275 0)
(0.0489918 0.00551008 0)
(0.0477189 0.00282212 0)
(0.0458896 2.20973e-05 0)
(0.145698 -0.0358275 0)
(0.117666 -0.031975 0)
(0.0973135 -0.0311839 0)
(0.0849556 -0.0302905 0)
(0.0754154 -0.0295716 0)
(0.0681631 -0.028082 0)
(0.0615558 -0.0257495 0)
(0.0555138 -0.0221878 0)
(0.0492946 -0.0177129 0)
(0.043696 -0.0124668 0)
(0.0382195 -0.0072184 0)
(0.0344062 -0.00217911 0)
(0.0310166 0.00197696 0)
(0.0295109 0.00538376 0)
(0.0273444 0.00751567 0)
(0.0260648 0.00849311 0)
(0.0233962 0.00789367 0)
(0.021256 0.00608902 0)
(0.0193137 0.0032734 0)
(0.0178099 0.000255181 0)
(0.0871788 -0.0253841 0)
(0.0724902 -0.0257182 0)
(0.0611477 -0.0274209 0)
(0.0549407 -0.0276495 0)
(0.0488332 -0.0274618 0)
(0.0434668 -0.0261654 0)
(0.0377148 -0.0238526 0)
(0.0318409 -0.0202569 0)
(0.0255189 -0.015777 0)
(0.0196146 -0.0106655 0)
(0.0140563 -0.00570417 0)
(0.0101815 -0.00106128 0)
(0.00699366 0.00274299 0)
(0.00533661 0.00596906 0)
(0.00284753 0.00812704 0)
(0.00068131 0.0092523 0)
(-0.00298103 0.00879092 0)
(-0.00598889 0.00689319 0)
(-0.00852753 0.00380519 0)
(-0.00945695 0.000418991 0)
(0.0407176 -0.0193538 0)
(0.0392088 -0.0230989 0)
(0.0344477 -0.0258069 0)
(0.0320583 -0.0262095 0)
(0.0276563 -0.0259524 0)
(0.0230456 -0.0245057 0)
(0.0174193 -0.0220056 0)
(0.0112951 -0.0182638 0)
(0.00461502 -0.0137423 0)
(-0.00170477 -0.00878191 0)
(-0.00745023 -0.00415738 0)
(-0.0115085 6.56236e-05 0)
(-0.0147999 0.00355253 0)
(-0.0170551 0.00671113 0)
(-0.0204113 0.00903053 0)
(-0.0239301 0.010393 0)
(-0.0288203 0.0100411 0)
(-0.0327173 0.00792473 0)
(-0.0355254 0.00431412 0)
(-0.0356163 0.000427997 0)
(0.00893968 -0.0175595 0)
(0.0168904 -0.0232404 0)
(0.015426 -0.0253764 0)
(0.0146327 -0.0253273 0)
(0.0106073 -0.0246264 0)
(0.0059696 -0.0228563 0)
(7.20096e-06 -0.0200648 0)
(-0.00661463 -0.0161316 0)
(-0.0138035 -0.0115631 0)
(-0.0206198 -0.00678483 0)
(-0.0266818 -0.00253047 0)
(-0.03113 0.00128374 0)
(-0.0349134 0.00454263 0)
(-0.0382158 0.00777254 0)
(-0.0428685 0.0103769 0)
(-0.0479617 0.0119977 0)
(-0.0540336 0.0116259 0)
(-0.0585671 0.0090964 0)
(-0.0612197 0.00468946 0)
(-0.0602983 0.000190405 0)
(-0.00925993 -0.0188052 0)
(0.0028501 -0.0248658 0)
(0.00195512 -0.0252714 0)
(0.00113081 -0.0245358 0)
(-0.00334684 -0.023214 0)
(-0.00847959 -0.0210712 0)
(-0.015034 -0.0179497 0)
(-0.0222882 -0.0138128 0)
(-0.0300823 -0.0092046 0)
(-0.0374805 -0.0046379 0)
(-0.0440241 -0.000758901 0)
(-0.0491186 0.00268931 0)
(-0.0537791 0.00584787 0)
(-0.0584729 0.0092778 0)
(-0.064632 0.0122278 0)
(-0.0712369 0.0140401 0)
(-0.0781939 0.0134588 0)
(-0.0829651 0.0102744 0)
(-0.0851018 0.00486671 0)
(-0.083151 -0.000298562 0)
(-0.0166367 -0.021571 0)
(-0.00553797 -0.0266366 0)
(-0.00766848 -0.0249479 0)
(-0.00956146 -0.0235113 0)
(-0.0149278 -0.0215762 0)
(-0.0208048 -0.0190686 0)
(-0.0280747 -0.0156166 0)
(-0.0360318 -0.0112763 0)
(-0.0445015 -0.00664146 0)
(-0.0525709 -0.00229951 0)
(-0.0597731 0.00123266 0)
(-0.0657642 0.00439021 0)
(-0.0715985 0.00756996 0)
(-0.0778416 0.0112818 0)
(-0.0854624 0.0145579 0)
(-0.093274 0.0164176 0)
(-0.10068 0.0154045 0)
(-0.105297 0.0113405 0)
(-0.106726 0.0048186 0)
(-0.103868 -0.00102183 0)
(-0.0157316 -0.0235283 0)
(-0.0100919 -0.0273673 0)
(-0.014625 -0.0240815 0)
(-0.018165 -0.0220591 0)
(-0.0246127 -0.0196466 0)
(-0.0313372 -0.0168061 0)
(-0.0393689 -0.0130432 0)
(-0.0480585 -0.00850614 0)
(-0.0572493 -0.00385092 0)
(-0.0660646 0.000280689 0)
(-0.074078 0.00350779 0)
(-0.0811538 0.00646466 0)
(-0.0883096 0.00975629 0)
(-0.0960483 0.013766 0)
(-0.104867 0.0172736 0)
(-0.113436 0.0189908 0)
(-0.120842 0.0173297 0)
(-0.125025 0.0122251 0)
(-0.125737 0.00456734 0)
(-0.122152 -0.00196343 0)
(-0.0071578 -0.0213156 0)
(-0.0124882 -0.0260592 0)
(-0.0202618 -0.0223102 0)
(-0.0258439 -0.0199205 0)
(-0.0335145 -0.0171715 0)
(-0.0411831 -0.014019 0)
(-0.0500444 -0.00994189 0)
(-0.0595299 -0.00519326 0)
(-0.0695228 -0.000508047 0)
(-0.0792044 0.00342117 0)
(-0.0882158 0.00636832 0)
(-0.0965744 0.0091962 0)
(-0.105164 0.0126644 0)
(-0.114288 0.01695 0)
(-0.123983 0.0205524 0)
(-0.132852 0.0218879 0)
(-0.139844 0.019312 0)
(-0.143391 0.0129657 0)
(-0.143421 0.00412257 0)
(-0.139209 -0.00323561 0)
(-0.00454479 -0.017355 0)
(-0.0143167 -0.0224658 0)
(-0.0247784 -0.0193553 0)
(-0.0323255 -0.016926 0)
(-0.0412002 -0.0140336 0)
(-0.0498084 -0.0106163 0)
(-0.0594876 -0.00623164 0)
(-0.0697549 -0.00125004 0)
(-0.0805597 0.00349136 0)
(-0.0911601 0.00724274 0)
(-0.101266 0.00997164 0)
(-0.110946 0.0127332 0)
(-0.120817 0.0163688 0)
(-0.130898 0.0207914 0)
(-0.140875 0.0242413 0)
(-0.149448 0.0249081 0)
(-0.155643 0.0211791 0)
(-0.158461 0.0134795 0)
(-0.157954 0.00349779 0)
(-0.15316 -0.00490877 0)
(-0.00390112 -0.0137045 0)
(-0.0157519 -0.0179431 0)
(-0.0281295 -0.0156169 0)
(-0.0372012 -0.013386 0)
(-0.0470421 -0.0105152 0)
(-0.0564092 -0.00690294 0)
(-0.0667343 -0.00224931 0)
(-0.0776084 0.00298116 0)
(-0.0890636 0.00779826 0)
(-0.100442 0.011433 0)
(-0.111495 0.0140099 0)
(-0.122231 0.0167173 0)
(-0.132932 0.0203997 0)
(-0.143339 0.0247368 0)
(-0.152966 0.0277864 0)
(-0.160751 0.0276232 0)
(-0.165921 0.0227084 0)
(-0.167959 0.0137354 0)
(-0.167022 0.00279645 0)
(-0.161573 -0.00681613 0)
(-0.0038673 -0.00987048 0)
(-0.0168663 -0.0128519 0)
(-0.0305108 -0.0113221 0)
(-0.0406188 -0.00944217 0)
(-0.0511226 -0.00670954 0)
(-0.0609964 -0.00296204 0)
(-0.0717122 0.00194268 0)
(-0.0829323 0.00741288 0)
(-0.0947851 0.012331 0)
(-0.106688 0.0159115 0)
(-0.118411 0.0183768 0)
(-0.129815 0.0209845 0)
(-0.140826 0.0245338 0)
(-0.150961 0.0285479 0)
(-0.159698 0.0309885 0)
(-0.166294 0.0299178 0)
(-0.17022 0.0238721 0)
(-0.17131 0.0137157 0)
(-0.169926 0.00200229 0)
(-0.163584 -0.00895143 0)
(-0.00402094 -0.0058133 0)
(-0.0176714 -0.00740692 0)
(-0.0320119 -0.00668438 0)
(-0.0426541 -0.00525233 0)
(-0.0534732 -0.00273682 0)
(-0.0635354 0.0011052 0)
(-0.0743327 0.00622895 0)
(-0.0855766 0.0119219 0)
(-0.0974851 0.0169736 0)
(-0.109571 0.0205557 0)
(-0.12159 0.0229255 0)
(-0.133218 0.0253492 0)
(-0.144038 0.02856 0)
(-0.1534 0.0320235 0)
(-0.160804 0.0336862 0)
(-0.16586 0.0316803 0)
(-0.168293 0.0246091 0)
(-0.168136 0.0133341 0)
(-0.166217 0.00103625 0)
(-0.158604 -0.0113257 0)
(-0.00424243 -0.00159351 0)
(-0.0181744 -0.00178911 0)
(-0.0326776 -0.00190905 0)
(-0.043348 -0.000981608 0)
(-0.0541046 0.00127079 0)
(-0.0640089 0.00516482 0)
(-0.0745408 0.0104545 0)
(-0.0854347 0.0163688 0)
(-0.0970043 0.021581 0)
(-0.108864 0.0252148 0)
(-0.120749 0.0274908 0)
(-0.132154 0.0296345 0)
(-0.142352 0.0323037 0)
(-0.150568 0.0350087 0)
(-0.156316 0.0357471 0)
(-0.159541 0.03279 0)
(-0.160244 0.024831 0)
(-0.158475 0.0124774 0)
(-0.155956 -0.000239711 0)
(-0.146605 -0.0139762 0)
(-0.00455823 0.00274481 0)
(-0.0184014 0.00383264 0)
(-0.0325345 0.00280101 0)
(-0.0427255 0.00319994 0)
(-0.0530396 0.005166 0)
(-0.0624312 0.0090672 0)
(-0.0723392 0.0144847 0)
(-0.0824988 0.0206002 0)
(-0.0933072 0.0259906 0)
(-0.104496 0.0297205 0)
(-0.115787 0.031902 0)
(-0.126541 0.0336837 0)
(-0.135775 0.0356347 0)
(-0.142617 0.0374002 0)
(-0.146537 0.0370791 0)
(-0.147756 0.0331443 0)
(-0.1466 0.0244474 0)
(-0.142906 0.0110529 0)
(-0.139837 -0.00197081 0)
(-0.128264 -0.0169485 0)
(-0.00514594 0.0071514 0)
(-0.0183998 0.00927768 0)
(-0.0315914 0.00723984 0)
(-0.0408056 0.00712324 0)
(-0.0503153 0.00880273 0)
(-0.0588594 0.0126819 0)
(-0.0678103 0.0181793 0)
(-0.0768748 0.0244621 0)
(-0.0865069 0.0300328 0)
(-0.0965725 0.0338957 0)
(-0.106801 0.0359885 0)
(-0.116506 0.037361 0)
(-0.124497 0.0384648 0)
(-0.129864 0.0391517 0)
(-0.131945 0.0376547 0)
(-0.131144 0.0326984 0)
(-0.128191 0.023399 0)
(-0.122377 0.00904299 0)
(-0.119 -0.00423975 0)
(-0.104839 -0.0203028 0)
(-0.00647049 0.0116535 0)
(-0.0181967 0.0143376 0)
(-0.0298131 0.0111962 0)
(-0.0375859 0.0106297 0)
(-0.0459798 0.0120563 0)
(-0.0533964 0.0158916 0)
(-0.0611123 0.0214137 0)
(-0.0687805 0.0278138 0)
(-0.076868 0.0335437 0)
(-0.0853894 0.0375653 0)
(-0.0941008 0.0395836 0)
(-0.102376 0.0405443 0)
(-0.108871 0.0407356 0)
(-0.112723 0.0402653 0)
(-0.113071 0.0375156 0)
(-0.110377 0.0314876 0)
(-0.105866 0.0216773 0)
(-0.0978414 0.006518 0)
(-0.0945793 -0.00706882 0)
(-0.0777348 -0.0240731 0)
(-0.00985505 0.0170909 0)
(-0.0177223 0.0186546 0)
(-0.0270589 0.0144537 0)
(-0.0330098 0.0135836 0)
(-0.0400709 0.0148287 0)
(-0.0461711 0.0186039 0)
(-0.052459 0.024092 0)
(-0.0585228 0.0305442 0)
(-0.0647861 0.0363847 0)
(-0.0714191 0.0405725 0)
(-0.078207 0.0425342 0)
(-0.0846993 0.0431219 0)
(-0.0894372 0.0424035 0)
(-0.0917199 0.04077 0)
(-0.090456 0.0367488 0)
(-0.0860479 0.0296155 0)
(-0.0803115 0.0193085 0)
(-0.069992 0.00360756 0)
(-0.0672617 -0.0103969 0)
(-0.0479939 -0.0281923 0)
(-0.0188091 0.0205551 0)
(-0.0168352 0.0207418 0)
(-0.0233672 0.0165425 0)
(-0.0275546 0.0156419 0)