/*--------------------------------*- C++ -*----------------------------------*\
| =========                 |                                                 |
| \\      /  F ield         | OpenFOAM: The Open Source CFD Toolbox           |
|  \\    /   O peration     | Version:  v1806                                 |
|   \\  /    A nd           | Web:      www.OpenFOAM.com                      |
|    \\/     M anipulation  |                                                 |
\*---------------------------------------------------------------------------*/
FoamFile
{
    version     2.0;
    format      ascii;
    class       volScalarField;
    location    "14";
    object      p;
}
// * * * * * * * * * * * * * * * * * * * * * * * * * * * * * * * * * * * * * //

dimensions      [0 2 -2 0 0 0 0];


internalField   nonuniform List<scalar> 
2400
(
0.0636972
0.0630655
0.0642035
0.0632417
0.0625528
0.0615723
0.0608107
0.0606204
0.057761
0.0569334
0.0539037
0.0523216
0.0492608
0.0444934
0.0427649
0.0363389
0.0347398
0.0268732
0.0235404
0.0176904
0.191271
0.189863
0.192119
0.189677
0.187723
0.185139
0.183047
0.181562
0.174505
0.170724
0.163082
0.157137
0.148515
0.135295
0.128058
0.111826
0.102805
0.0836342
0.0696432
0.0545523
0.319161
0.318007
0.319507
0.316371
0.313645
0.309835
0.306583
0.302514
0.293334
0.285472
0.274612
0.263297
0.249452
0.229557
0.214516
0.190434
0.170858
0.142714
0.116236
0.0920489
0.44787
0.447181
0.447155
0.443769
0.440886
0.436199
0.431419
0.424948
0.414286
0.403049
0.388802
0.37238
0.353174
0.327391
0.303558
0.271322
0.240676
0.203372
0.165124
0.130457
0.577519
0.577336
0.575488
0.572838
0.569335
0.564402
0.557488
0.549714
0.538025
0.523866
0.506547
0.484408
0.460391
0.42819
0.395571
0.354812
0.312974
0.266278
0.216357
0.17014
0.707948
0.707872
0.704975
0.704082
0.699063
0.694614
0.684862
0.677647
0.664569
0.648261
0.627732
0.599677
0.571425
0.53198
0.4916
0.441588
0.38899
0.331426
0.269535
0.209082
0.837638
0.83854
0.836333
0.837318
0.830457
0.826525
0.81464
0.808975
0.794251
0.776742
0.752667
0.720321
0.687483
0.641161
0.59332
0.533453
0.470002
0.399373
0.324512
0.246235
0.964955
0.970072
0.970431
0.971731
0.963518
0.959638
0.948096
0.943662
0.927959
0.910676
0.882959
0.849867
0.810404
0.759208
0.702581
0.632107
0.557382
0.47051
0.382129
0.282491
1.08955
1.10385
1.10593
1.10583
1.09708
1.09429
1.08564
1.08201
1.06645
1.05092
1.02034
0.989514
0.941927
0.888644
0.820602
0.73939
0.651934
0.545975
0.442224
0.31856
1.21276
1.23943
1.23944
1.23918
1.22995
1.23172
1.22541
1.22491
1.20989
1.19801
1.16622
1.13823
1.08413
1.02967
0.949661
0.858507
0.754694
0.628172
0.504318
0.35474
1.33575
1.37249
1.36896
1.37174
1.36185
1.3721
1.36569
1.37295
1.35765
1.35239
1.32116
1.29601
1.23979
1.18319
1.09346
0.992184
0.869005
0.720797
0.568843
0.390345
1.46024
1.49858
1.49417
1.50125
1.49306
1.51159
1.50643
1.52333
1.50935
1.51385
1.48407
1.46494
1.40848
1.35207
1.25483
1.14429
0.999309
0.825156
0.638376
0.424053
1.58904
1.61702
1.61583
1.62626
1.62544
1.64763
1.64883
1.67213
1.66418
1.67856
1.65259
1.6446
1.58667
1.53972
1.43267
1.32149
1.1497
0.947732
0.715639
0.452054
1.72276
1.73022
1.73488
1.74796
1.75973
1.78152
1.79384
1.8186
1.8229
1.84387
1.82783
1.83282
1.77423
1.74489
1.62364
1.52947
1.32024
1.10937
0.804181
0.473299
1.85706
1.84062
1.85144
1.86912
1.89457
1.91747
1.94233
1.96892
1.99045
2.016
2.0181
2.0316
1.98419
1.96574
1.83462
1.76458
1.50542
1.32477
0.906922
0.50478
1.9819
1.94751
1.97074
1.98901
2.03185
2.05184
2.09703
2.1247
2.17051
2.20328
2.23129
2.25112
2.23762
2.21641
2.09985
2.02227
1.7211
1.57527
1.0131
0.62743
2.0901
2.05252
2.08232
2.10497
2.15914
2.1842
2.24864
2.28239
2.35957
2.3961
2.47024
2.49281
2.53299
2.51579
2.45538
2.33999
2.03982
1.83836
1.11346
0.835633
2.18268
2.15532
2.18339
2.21463
2.272
2.31296
2.38598
2.43912
2.53466
2.59221
2.70504
2.74651
2.86164
2.84772
2.90284
2.76196
2.57546
2.16194
1.27872
0.824773
2.26278
2.24982
2.27468
2.31355
2.37254
2.43131
2.50964
2.58814
2.69301
2.78817
2.91951
3.01218
3.16756
3.21006
3.37756
3.25796
3.33569
2.77147
2.10007
0.476374
2.33268
2.32964
2.35545
2.39895
2.46145
2.53299
2.62009
2.71886
2.83627
2.96581
3.11491
3.26867
3.44498
3.59953
3.79202
3.85329
4.04484
3.66606
3.6152
1.29535
0.01183
0.00748167
-0.00410666
-0.000859977
-0.0117035
-0.0117535
-0.0177412
-0.0199059
-0.0224049
-0.0277115
0.0348203
0.0221009
-0.00848725
-0.00622995
-0.0309698
-0.0369436
-0.0513625
-0.0609538
-0.0681045
-0.083165
0.0578872
0.0368546
-0.0099453
-0.0142843
-0.0497938
-0.0635544
-0.0857345
-0.105042
-0.117673
-0.142854
0.0834634
0.052019
-0.00967281
-0.0239242
-0.0701532
-0.0914669
-0.121932
-0.15028
-0.168798
-0.202845
0.110359
0.0654471
-0.00893445
-0.0369533
-0.0931492
-0.121399
-0.160541
-0.195706
-0.219768
-0.262561
0.136082
0.0719278
-0.0120885
-0.0577601
-0.121922
-0.15467
-0.203122
-0.240914
-0.272644
-0.323466
0.159238
0.0673908
-0.0225086
-0.0900708
-0.159765
-0.195069
-0.25215
-0.285379
-0.330285
-0.393193
0.181314
0.0538897
-0.0396868
-0.13228
-0.205868
-0.244576
-0.309584
-0.330187
-0.394565
-0.473023
0.200525
0.0338058
-0.0597331
-0.185516
-0.252167
-0.299539
-0.36838
-0.374999
-0.468435
-0.55774
0.211296
0.0073107
-0.0901808
-0.250554
-0.294632
-0.353048
-0.405394
-0.407538
-0.542869
-0.631981
0.208816
-0.0272945
-0.148482
-0.333225
-0.348094
-0.404258
-0.40616
-0.398325
-0.573566
-0.659832
0.189645
-0.0784856
-0.249883
-0.444964
-0.440668
-0.452061
-0.381144
-0.322534
-0.490847
-0.593104
0.15182
-0.168846
-0.406116
-0.599492
-0.589411
-0.515398
-0.359751
-0.191673
-0.264639
-0.357148
0.0916879
-0.330424
-0.63696
-0.82988
-0.80329
-0.620858
-0.363588
-0.0345349
0.0697646
0.0283984
-0.0145775
-0.621406
-0.979266
-1.18325
-1.14864
-0.831081
-0.405791
0.142543
0.386066
0.378468
-0.204668
-1.06801
-1.48247
-1.70255
-1.76035
-1.38391
-0.585336
0.237668
0.490616
0.402965
-0.507762
-1.61453
-2.16313
-2.5852
-2.32636
-1.94204
-1.23718
0.0135475
0.300875
0.245175
-1.37126
-1.87695
-2.47703
-4.25693
-4.22703
-2.68891
-1.71018
-0.273873
-0.232792
-0.092578
-3.45117
-4.25101
-2.15794
-3.47473
-3.91258
-3.39727
-2.32246
-0.456086
-0.64145
-0.259007
-3.37033
-3.41768
-3.48539
-3.55411
-3.23509
-2.34891
-1.48837
-0.376498
-0.732277
-0.408891
-0.032454
-0.0728235
-0.0330191
0.0184641
0.0120761
-0.0555077
-0.12307
-0.14196
-0.101082
-0.0601293
-0.0341535
-0.0120412
0.00268051
0.0228626
0.0289912
0.0374097
0.0345992
0.0238746
0.0172944
0.00625094
-0.104985
-0.210528
-0.118252
0.000716487
0.0234137
-0.175162
-0.370917
-0.447245
-0.347631
-0.209427
-0.119571
-0.0544456
0.00232204
0.0583166
0.0887841
0.11034
0.102178
0.0837062
0.0553283
0.0189021
-0.180283
-0.357326
-0.230381
-0.0114723
0.0603734
-0.31641
-0.694308
-0.80064
-0.614392
-0.376518
-0.223609
-0.114388
-0.00660488
0.0896302
0.152157
0.183494
0.173648
0.14082
0.0920556
0.0313186
-0.25351
-0.507706
-0.345166
-0.0203228
0.131328
-0.476549
-1.0922
-1.22798
-0.914347
-0.559963
-0.334852
-0.174025
-0.0126016
0.124591
0.216616
0.256832
0.244923
0.199168
0.130052
0.0438055
-0.321591
-0.667819
-0.443534
-0.0166023
0.23585
-0.718801
-1.65008
-1.79902
-1.27798
-0.766495
-0.447579
-0.224987
-0.0133373
0.161496
0.277949
0.328386
0.317781
0.256953
0.167706
0.0557904
-0.388388
-0.850451
-0.514283
0.0291202
0.311045
-1.09804
-2.38188
-2.54043
-1.73027
-1.00846
-0.565901
-0.273821
-0.0128585
0.196384
0.33603
0.398901
0.389715
0.31539
0.205697
0.0672364
-0.476497
-1.07587
-0.581057
0.137485
0.368188
-1.59127
-3.28553
-3.44309
-2.28589
-1.29652
-0.695141
-0.326935
-0.0150756
0.229407
0.38974
0.465305
0.459678
0.369873
0.243007
0.0778475
-0.611664
-1.3887
-0.671107
0.377373
0.44353
-2.16736
-4.36709
-4.47279
-2.92671
-1.6224
-0.832524
-0.381787
-0.0177626
0.258778
0.437182
0.527749
0.524117
0.422436
0.280228
0.0872531
-0.815338
-1.83042
-0.824861
0.671513
0.52727
-2.84762
-5.62129
-5.61414
-3.64085
-1.98927
-0.983471
-0.437524
-0.0198825
0.285115
0.478246
0.584696
0.581798
0.473619
0.31629
0.0947258
-1.12307
-2.4313
-1.05138
0.992754
0.641523
-3.60154
-6.95132
-6.81018
-4.39663
-2.38193
-1.13768
-0.48868
-0.0198282
0.306928
0.51107
0.637971
0.630291
0.523054
0.351041
0.0999724
-1.53822
-3.18308
-1.35163
1.35546
0.845077
-4.3375
-8.22752
-7.96576
-5.146
-2.76751
-1.28281
-0.53652
-0.0234585
0.322684
0.53564
0.685836
0.668693
0.571123
0.380705
0.101335
-1.98528
-4.01436
-1.67411
1.77902
1.10699
-5.01385
-9.39424
-8.98283
-5.82473
-3.12335
-1.42421
-0.585198
-0.0300445
0.333221
0.552547
0.727355
0.696997
0.616559
0.405171
0.0985816
-2.24035
-4.65979
-1.97552
2.03954
1.32265
-5.60773
-10.3776
-9.79497
-6.38422
-3.42353
-1.54628
-0.621653
-0.035449
0.339794
0.563038
0.757604
0.717299
0.656508
0.425085
0.0932748
-2.17591
-4.88659
-2.21889
2.1253
1.34283
-6.09985
-11.0772
-10.3377
-6.78348
-3.63552
-1.63066
-0.641814
-0.0409994
0.34173
0.567071
0.774797
0.728912
0.681723
0.441499
0.0930771
-1.92742
-4.7119
-2.39289
1.98972
1.09906
-6.45682
-11.4136
-10.5556
-6.96888
-3.74207
-1.6727
-0.649769
-0.0445234
0.335681
0.565361
0.776626
0.742984
0.681109
0.444785
0.0984342
-1.58991
-4.17462
-2.45942
1.43472
0.638879
-6.64711
-11.2871
-10.4323
-6.92228
-3.73043
-1.66278
-0.642972
-0.0469888
0.320462
0.556011
0.760112
0.733168
0.643044
0.417996
0.103348
-1.27564
-3.52213
-2.45606
0.554895
-0.0791753
-6.68809
-10.6863
-9.97827
-6.64109
-3.58656
-1.60192
-0.615523
-0.0548989
0.301419
0.530185
0.722206
0.696467
0.56917
0.365958
0.102827
-1.2229
-3.09591
-2.56298
-0.478458
-0.999444
-6.64678
-9.80322
-9.24331
-6.1353
-3.32453
-1.49046
-0.571616
-0.0669712
0.280532
0.48395
0.656589
0.630309
0.482115
0.301515
0.0981283
-1.34386
-2.94144
-2.82638
-1.52451
-1.98638
-6.54042
-8.89083
-8.36481
-5.45974
-2.97124
-1.32319
-0.521477
-0.0692272
0.246156
0.42006
0.558738
0.538193
0.380208
0.229919
0.0901667
-1.49091
-2.91551
-3.22679
-2.54567
-2.86783
-6.4312
-7.97062
-7.32227
-4.6683
-2.53027
-1.11452
-0.460929
-0.0606523
0.190605
0.340211
0.426037
0.422307
0.271756
0.153214
0.0805672
-1.82889
-3.05145
-3.61846
-3.40634
-3.66966
-6.3173
-7.04173
-6.21089
-3.91449
-2.07663
-0.906002
-0.389822
-0.0515508
0.126593
0.249449
0.27427
0.298817
0.163212
0.0763983
0.0705775
-2.05102
-3.16444
-3.93815
-4.12952
-4.40624
-6.14045
-6.18706
-5.15223
-3.2321
-1.66203
-0.709046
-0.314699
-0.0480158
0.0632424
0.152715
0.117535
0.176152
0.0584093
0.00155154
0.0600331
-2.34797
-3.29061
-4.24223
-4.79055
-5.05442
-5.94849
-5.45337
-4.12521
-2.60817
-1.24599
-0.497341
-0.229686
-0.0541768
-0.00585566
0.0394622
-0.059215
0.0430854
-0.0476703
-0.0725924
0.0477534
-2.64643
-3.42388
-4.52793
-5.36734
-5.58444
-5.85646
-4.9452
-3.28981
-2.08199
-0.826269
-0.276125
-0.138738
-0.0701845
-0.0816693
-0.0935768
-0.249036
-0.0958921
-0.128033
-0.128405
0.0343585
-2.937
-3.54929
-4.7605
-5.8488
-6.0314
-5.8329
-4.62317
-2.71281
-1.6124
-0.413789
-0.0536729
-0.0444492
-0.0895771
-0.168899
-0.253611
-0.437907
-0.237578
-0.172149
-0.155532
0.0201424
-3.21585
-3.64482
-4.9203
-6.21
-6.36186
-5.75037
-4.2788
-2.24352
-1.16748
-0.0223285
0.16156
0.0474605
-0.10686
-0.273856
-0.444009
-0.619797
-0.381294
-0.190459
-0.161201
0.00416058
-3.45654
-3.7085
-5.00339
-6.41351
-6.5443
-5.57398
-3.68906
-1.65678
-0.643141
0.352843
0.375247
0.136006
-0.121867
-0.403953
-0.65825
-0.799245
-0.528751
-0.20951
-0.161031
-0.0149106
-3.68287
-3.74818
-4.9996
-6.46791
-6.57509
-5.35142
-3.08256
-1.09057
-0.0077406
0.711649
0.599222
0.220412
-0.142641
-0.563557
-0.882162
-0.987874
-0.675976
-0.24832
-0.167735
-0.0362605
-3.82795
-3.7171
-4.91123
-6.38372
-6.46752
-5.07807
-2.64692
-0.717213
0.541572
1.02661
0.821535
0.290771
-0.172174
-0.756013
-1.10187
-1.1897
-0.820511
-0.312149
-0.186706
-0.0570921
-3.99324
-3.69837
-4.75387
-6.17238
-6.24187
-4.7563
-2.26288
-0.413518
0.907818
1.28888
1.01469
0.344091
-0.208953
-0.976367
-1.31241
-1.39221
-0.961402
-0.395654
-0.217702
-0.0754496
-3.98844
-3.67348
-4.48944
-5.80733
-5.84369
-4.32339
-1.83935
0.0130874
1.17957
1.53458
1.17423
0.377937
-0.266872
-1.2583
-1.58118
-1.61846
-1.12266
-0.504447
-0.261694
-0.0926692
-3.4563
-3.68457
-4.21694
-5.28497
-5.22174
-3.77916
-1.44076
0.437656
1.41125
1.77124
1.26304
0.346418
-0.384524
-1.58909
-1.9659
-1.8487
-1.27837
-0.612749
-0.3041
-0.101112
-3.76973
-3.74526
-3.97075
-4.765
-4.60362
-3.26412
-1.12653
0.679042
1.5721
1.93475
1.37936
0.334295
-0.561691
-1.88324
-2.36481
-2.02733
-1.38765
-0.690881
-0.337172
-0.106751
-3.81012
-3.58005
-3.70347
-4.24939
-3.98298
-2.77518
-0.878893
0.801046
1.65075
2.00358
1.53367
0.410295
-0.776241
-2.12076
-2.68841
-2.1497
-1.44918
-0.737293
-0.36303
-0.117257
-3.72372
-3.36246
-3.39912
-3.76514
-3.44734
-2.36517
-0.709444
0.827565
1.64985
2.01427
1.64796
0.574168
-0.985935
-2.33204
-2.87961
-2.19706
-1.4521
-0.749551
-0.376619
-0.123277
-3.43502
-3.09456
-3.08525
-3.34408
-3.03346
-2.03556
-0.57511
0.809986
1.58539
1.96544
1.72159
0.74758
-1.12785
-2.5279
-2.93135
-2.15263
-1.38853
-0.724124
-0.369731
-0.118277
-3.11295
-2.81939
-2.77675
-2.97499
-2.67278
-1.75728
-0.487653
0.756067
1.47848
1.87535
1.82017
0.872246
-1.15901
-2.65454
-2.84491
-2.01605
-1.2705
-0.672123
-0.338858
-0.100639
-2.80965
-2.55407
-2.48025
-2.63115
-2.35114
-1.53277
-0.42643
0.699288
1.36377
1.76388
1.8903
0.917208
-1.09215
-2.64259
-2.6454
-1.81202
-1.12268
-0.608825
-0.29504
-0.0781008
-2.48974
-2.28941
-2.20037
-2.32339
-2.06586
-1.33254
-0.368776
0.641003
1.26769
1.65219
1.90061
0.901116
-0.967504
-2.46623
-2.34358
-1.56106
-0.960469
-0.539182
-0.24857
-0.0612336
-2.19521
-2.0391
-1.93645
-2.04988
-1.81793
-1.15772
-0.321645
0.575535
1.18459
1.58105
1.90774
0.912408
-0.797426
-2.13447
-1.96004
-1.28342
-0.793006
-0.465063
-0.207775
-0.0525334
-1.90887
-1.78613
-1.68271
-1.79665
-1.59521
-1.00197
-0.278703
0.511279
1.10623
1.55364
1.91222
1.02011
-0.559075
-1.68473
-1.53408
-1.00399
-0.628313
-0.388613
-0.179134
-0.0517487
-1.64034
-1.5413
-1.44447
-1.54747
-1.38301
-0.865599
-0.239056
0.452378
1.01308
1.50907
1.86112
1.1379
-0.285439
-1.2102
-1.13434
-0.747943
-0.47123
-0.314364
-0.159097
-0.0517939
-1.39087
-1.30285
-1.22113
-1.3062
-1.17525
-0.735562
-0.198686
0.392015
0.896865
1.36105
1.68881
1.15955
-0.0442446
-0.797469
-0.79265
-0.532124
-0.335624
-0.246286
-0.137442
-0.0467071
-1.15847
-1.08475
-1.01679
-1.08424
-0.978761
-0.616657
-0.163321
0.335005
0.782467
1.1689
1.43292
1.07909
0.1324
-0.480161
-0.528461
-0.360469
-0.227651
-0.190011
-0.113873
-0.0374953
-0.942875
-0.884934
-0.830127
-0.88475
-0.798533
-0.507057
-0.130583
0.279172
0.658258
0.968943
1.17929
0.947396
0.224225
-0.271198
-0.338626
-0.231933
-0.145721
-0.14168
-0.0925907
-0.0316144
-0.743275
-0.701302
-0.659527
-0.7035
-0.633668
-0.404364
-0.102684
0.22313
0.536348
0.78041
0.942481
0.786307
0.243475
-0.145719
-0.220691
-0.133791
-0.0824149
-0.100263
-0.0732577
-0.0270159
-0.558689
-0.529286
-0.50059
-0.535536
-0.481347
-0.308441
-0.0774957
0.171392
0.414398
0.598352
0.717584
0.613965
0.220505
-0.0697674
-0.128906
-0.0791224
-0.0399314
-0.0681745
-0.0551648
-0.0203478
-0.387502
-0.367764
-0.350177
-0.376601
-0.337402
-0.217272
-0.055252
0.120632
0.295721
0.424163
0.505657
0.440222
0.172879
-0.0280486
-0.0691205
-0.0316187
-0.0119837
-0.043128
-0.0400391
-0.0148047
-0.225177
-0.213224
-0.205289
-0.224252
-0.200426
-0.128701
-0.0331312
0.0709368
0.17582
0.252845
0.30086
0.265901
0.111055
-0.00692541
-0.0308205
-0.00719292
-0.00163449
-0.0240899
-0.0246084
-0.0106122
-0.073066
-0.0684943
-0.0674859
-0.0746822
-0.0661248
-0.0439012
-0.0130446
0.022163
0.0586547
0.0837775
0.100709
0.0891486
0.0365448
-0.000961855
-0.00635733
0.00795192
-0.00174718
-0.0104322
-0.00840364
-0.00412202
-5.7521
-5.91356
-6.20977
-5.29585
-6.24846
-6.05925
-6.2285
-6.73608
-6.50893
-6.21527
-6.42825
-8.45552
-4.13782
-3.97715
-5.86361
-6.67423
-6.76451
-7.19983
-6.8729
-5.73473
-2.43383
-3.17841
-2.96676
-4.71507
-5.79992
-5.96705
-6.99484
-7.23488
-7.23184
-6.26115
-1.5192
-3.31098
-3.85171
-4.42218
-5.10251
-5.6173
-6.11652
-6.22448
-5.99375
-5.39096
-1.27233
-2.39181
-2.98866
-3.37024
-3.9737
-4.45734
-4.81901
-5.03027
-4.9997
-4.71024
-1.04437
-1.72985
-2.35981
-2.78808
-3.27426
-3.71426
-3.99471
-4.1701
-4.20662
-4.03925
-0.852522
-1.35198
-1.91567
-2.34155
-2.71808
-3.07519
-3.29088
-3.41411
-3.47911
-3.40787
-0.713949
-1.12284
-1.57518
-1.95026
-2.25572
-2.53959
-2.72521
-2.844
-2.94376
-2.9518
-0.608995
-0.948675
-1.29827
-1.61634
-1.87895
-2.10851
-2.28658
-2.40747
-2.50915
-2.54186
-0.52099
-0.802901
-1.07722
-1.34428
-1.57389
-1.76239
-1.92496
-2.03762
-2.13384
-2.18227
-0.444123
-0.681507
-0.901064
-1.11899
-1.31919
-1.47544
-1.61599
-1.71646
-1.80927
-1.86517
-0.378023
-0.577787
-0.754483
-0.929905
-1.09959
-1.23179
-1.35149
-1.43914
-1.52584
-1.58184
-0.319743
-0.484842
-0.627514
-0.767992
-0.90854
-1.0226
-1.12322
-1.1979
-1.27539
-1.3274
-0.266714
-0.400784
-0.515314
-0.628251
-0.742927
-0.839976
-0.922693
-0.985514
-1.0515
-1.09757
-0.217998
-0.324873
-0.415818
-0.506418
-0.597746
-0.677627
-0.744186
-0.795607
-0.84957
-0.888843
-0.173075
-0.256064
-0.326389
-0.397249
-0.467974
-0.531037
-0.583027
-0.623733
-0.666338
-0.698427
-0.131066
-0.192781
-0.244357
-0.297653
-0.350042
-0.397119
-0.43594
-0.466652
-0.498792
-0.523364
-0.0913817
-0.13362
-0.168377
-0.205757
-0.241528
-0.273768
-0.300431
-0.321771
-0.344324
-0.361825
-0.0536345
-0.0781397
-0.0974797
-0.12
-0.140203
-0.158741
-0.173913
-0.186108
-0.199495
-0.209465
-0.0177865
-0.0259313
-0.0318274
-0.0395944
-0.0458259
-0.0518855
-0.0565019
-0.0603038
-0.0646825
-0.0677121
2.28734
2.28847
2.30987
2.34984
2.40449
2.47013
2.54677
2.63577
2.73785
2.85229
2.98089
3.11301
3.264
3.37881
3.54141
3.51266
3.67105
3.08739
2.8637
0.0101642
2.20558
2.18165
2.21148
2.2378
2.29698
2.33387
2.41456
2.45956
2.56906
2.60931
2.75329
2.76094
2.94344
2.85412
3.05106
2.73162
2.76608
1.94274
0.831816
-1.15771
2.09392
2.07415
2.09969
2.11409
2.16881
2.18667
2.25915
2.27472
2.36963
2.36761
2.47787
2.43183
2.5247
2.40978
2.38273
2.15086
1.7735
1.26438
0.0654133
-0.320535
1.96598
1.96688
1.97374
1.98661
2.01827
2.03859
2.07563
2.09363
2.1296
2.14222
2.16053
2.14099
2.10751
2.03199
1.85614
1.72761
1.25625
1.08853
0.264517
-0.211682
1.84068
1.84852
1.8424
1.85868
1.87138
1.89077
1.89954
1.91498
1.91028
1.92833
1.89161
1.89383
1.79337
1.76068
1.54366
1.453
1.08106
0.840389
0.249255
-0.410735
1.71526
1.72101
1.70935
1.72811
1.72674
1.74496
1.73484
1.7476
1.71946
1.73277
1.67228
1.67198
1.55827
1.51015
1.32133
1.17441
0.888908
0.543601
0.108275
-0.442343
1.58552
1.59099
1.57708
1.59426
1.58294
1.59734
1.57989
1.58419
1.55135
1.54347
1.4808
1.45461
1.34685
1.26718
1.11038
0.915107
0.690023
0.357616
0.0185005
-0.383307
1.45344
1.46113
1.44869
1.45899
1.44049
1.44831
1.42771
1.42109
1.39096
1.36094
1.30374
1.25267
1.15429
1.05539
0.917335
0.721544
0.531404
0.25685
-0.0272756
-0.335011
1.31843
1.33215
1.32276
1.32369
1.30195
1.30065
1.2801
1.26258
1.23588
1.19112
1.13958
1.07533
0.984355
0.881036
0.756566
0.584282
0.410962
0.194159
-0.0506536
-0.301064
1.18122
1.20296
1.1945
1.18914
1.16721
1.1576
1.13903
1.11325
1.08827
1.03745
0.988454
0.922071
0.837277
0.73955
0.62567
0.47761
0.31991
0.14529
-0.0609821
-0.27241
1.05028
1.07355
1.06359
1.05593
1.03483
1.01968
1.00283
0.973216
0.948695
0.898707
0.849876
0.787685
0.707954
0.619376
0.514718
0.3887
0.251885
0.104347
-0.0642926
-0.245233
0.928306
0.944657
0.934004
0.925791
0.906717
0.887281
0.871689
0.841549
0.816861
0.772863
0.722552
0.669765
0.593608
0.515723
0.421748
0.314933
0.199455
0.0715072
-0.0643434
-0.217903
0.813344
0.818874
0.809116
0.800486
0.785896
0.764074
0.748659
0.720737
0.693818
0.658254
0.607469
0.564923
0.494069
0.427777
0.344989
0.255225
0.158317
0.0481695
-0.0615098
-0.189983
0.701075
0.698116
0.69024
0.681126
0.671678
0.651283
0.635785
0.611068
0.582135
0.553646
0.505463
0.470936
0.407995
0.352585
0.281593
0.206915
0.125968
0.0331789
-0.0558416
-0.161484
0.589697
0.582075
0.576772
0.567233
0.562426
0.544761
0.530372
0.508369
0.480264
0.456881
0.413937
0.385036
0.331331
0.285968
0.226489
0.165709
0.0991164
0.0231767
-0.0486658
-0.133598
0.479355
0.470747
0.467264
0.457988
0.455901
0.441378
0.428787
0.409833
0.385146
0.365794
0.329854
0.305549
0.261578
0.225293
0.176938
0.129245
0.0760074
0.0160434
-0.0407657
-0.106907
0.370504
0.363015
0.360557
0.352312
0.351306
0.340244
0.329966
0.314453
0.29466
0.279165
0.251293
0.23163
0.197276
0.169503
0.132034
0.0965678
0.0557853
0.0106667
-0.0323888
-0.0814941
0.263264
0.25774
0.255861
0.249327
0.248797
0.241274
0.233665
0.221866
0.207585
0.196267
0.176744
0.162162
0.137299
0.117795
0.0910621
0.0668396
0.0379142
0.00654055
-0.023632
-0.0571959
0.157533
0.154067
0.152707
0.148413
0.148334
0.143961
0.139428
0.131694
0.123259
0.116301
0.1049
0.0959224
0.0805796
0.0692942
0.052965
0.0393035
0.0217229
0.00345862
-0.0145386
-0.0337821
0.0524341
0.0512485
0.0507596
0.049181
0.0492943
0.0477789
0.046395
0.0435233
0.0408608
0.0384428
0.0347146
0.0317324
0.0263649
0.0228528
0.0171597
0.0129597
0.00685327
0.00100967
-0.00506427
-0.0112792
2.38666
2.3867
2.41578
2.46178
2.52906
2.60675
2.70497
2.81465
2.94998
3.09755
3.27443
3.46107
3.67813
3.89807
4.14383
4.36799
4.61284
4.70209
5.05715
3.57822
2.42186
2.42879
2.45944
2.50776
2.57637
2.66027
2.76425
2.88531
3.03029
3.19581
3.38974
3.60538
3.85475
4.1219
4.42957
4.73612
5.07641
5.34609
5.53933
5.61431
2.44353
2.46047
2.49189
2.54268
2.61112
2.70073
2.80796
2.93918
3.09048
3.27186
3.47753
3.71923
3.99027
4.30023
4.64489
5.01682
5.42597
5.80493
6.23808
6.19438
2.46526
2.47852
2.51147
2.56288
2.63405
2.72493
2.8372
2.97131
3.13145
3.31808
3.53824
3.79027
4.08363
4.41484
4.78957
5.2037
5.63967
6.09136
6.44512
6.75374
2.46963
2.48565
2.51968
2.57187
2.64331
2.73522
2.84828
2.98506
3.14692
3.33868
3.56157
3.82262
4.12146
4.46658
4.85342
5.28652
5.74613
6.2163
6.61503
6.84554
2.46622
2.48199
2.51561
2.56751
2.63846
2.72965
2.84194
2.97758
3.13882
3.32856
3.55096
3.80854
4.1074
4.44684
4.83578
5.25838
5.72715
6.16833
6.6025
6.78034
2.45354
2.46699
2.49984
2.5492
2.62008
2.70756
2.81897
2.94834
3.10744
3.28778
3.50558
3.75006
4.03983
4.36255
4.73265
5.13375
5.56036
5.99552
6.31334
6.64792
2.42451
2.443
2.47173
2.52156
2.58628
2.67408
2.77549
2.90401
3.04743
3.22507
3.41936
3.65747
3.91129
4.2203
4.53871
4.90847
5.28344
5.65513
6.05764
5.90657
2.39646
2.40348
2.43237
2.47797
2.54303
2.62237
2.72101
2.83525
2.97311
3.12857
3.31343
3.51436
3.75358
3.9988
4.2944
4.56583
4.88161
5.10086
5.21436
5.20789
2.35294
2.35601
2.38276
2.42491
2.48731
2.55936
2.65088
2.75191
2.87807
3.01271
3.17735
3.34664
3.54575
3.74269
3.96102
4.15122
4.35815
4.36143
4.65181
2.79856
)
;

boundaryField
{
    inlet
    {
        type            zeroGradient;
    }
    outlet
    {
        type            fixedValue;
        value           uniform 0;
    }
    upAndBottom
    {
        type            empty;
    }
    obstacle
    {
        type            zeroGradient;
    }
}


// ************************************************************************* //
