/*--------------------------------*- C++ -*----------------------------------*\
| =========                 |                                                 |
| \\      /  F ield         | OpenFOAM: The Open Source CFD Toolbox           |
|  \\    /   O peration     | Version:  v1806                                 |
|   \\  /    A nd           | Web:      www.OpenFOAM.com                      |
|    \\/     M anipulation  |                                                 |
\*---------------------------------------------------------------------------*/
FoamFile
{
    version     2.0;
    format      ascii;
    class       volScalarField;
    location    "8";
    object      p;
}
// * * * * * * * * * * * * * * * * * * * * * * * * * * * * * * * * * * * * * //

dimensions      [0 2 -2 0 0 0 0];


internalField   nonuniform List<scalar> 
2400
(
0.00564357
0.00766231
0.00766194
0.00797713
0.00783135
0.0087985
0.00952596
0.0112019
0.0120743
0.0129515
0.0148091
0.0165153
0.0181852
0.0188143
0.0200832
0.0212662
0.0213235
0.020231
0.0177768
0.0141883
0.0172457
0.0230417
0.02259
0.0235025
0.0232799
0.0268843
0.0289012
0.032949
0.0352742
0.0394208
0.0449686
0.0497095
0.0537758
0.0558361
0.0604704
0.0642834
0.0637311
0.059945
0.0551335
0.0475196
0.0290366
0.0379733
0.0373246
0.0389552
0.0388359
0.0446868
0.0477018
0.0547883
0.0587227
0.0659903
0.0738935
0.0824454
0.0893399
0.0939143
0.101195
0.105961
0.105402
0.099697
0.0893872
0.0765696
0.0409739
0.0526846
0.0516697
0.0540338
0.0541211
0.0624382
0.0663731
0.0764174
0.0814831
0.092664
0.102492
0.115355
0.124226
0.132052
0.141866
0.148391
0.147479
0.139532
0.128408
0.11093
0.0530677
0.0669446
0.0655267
0.0688108
0.0692496
0.0799131
0.0845347
0.0977726
0.103987
0.119308
0.130351
0.148142
0.158724
0.171073
0.182571
0.191234
0.19022
0.179842
0.161096
0.144794
0.0652343
0.0807435
0.0789132
0.0831572
0.0840609
0.0970802
0.102302
0.118709
0.125877
0.145642
0.157818
0.180956
0.1928
0.210564
0.223454
0.234996
0.234742
0.221319
0.200215
0.175384
0.0774805
0.0939476
0.091642
0.0969808
0.0985902
0.113807
0.119528
0.139122
0.14719
0.171713
0.184489
0.213841
0.226082
0.25145
0.263664
0.281524
0.2799
0.266641
0.245322
0.204331
0.0898179
0.106399
0.103691
0.110205
0.112764
0.129918
0.13637
0.158759
0.168018
0.196937
0.210633
0.246257
0.258877
0.292941
0.303745
0.331146
0.325164
0.315814
0.283906
0.234244
0.102266
0.117931
0.115008
0.12279
0.126576
0.145364
0.152641
0.177576
0.188269
0.221277
0.236199
0.2779
0.291537
0.334485
0.344445
0.382936
0.371323
0.37016
0.32953
0.270821
0.114869
0.128315
0.125552
0.134666
0.140075
0.159991
0.168411
0.195383
0.207824
0.244521
0.261118
0.308721
0.323815
0.376301
0.385282
0.437279
0.418586
0.431491
0.370981
0.308243
0.127687
0.13736
0.135305
0.145735
0.15327
0.173775
0.183726
0.211969
0.226872
0.266208
0.28565
0.337897
0.356109
0.417105
0.427394
0.493055
0.468607
0.500459
0.416074
0.358863
0.140736
0.144997
0.144398
0.15592
0.165266
0.18656
0.198391
0.227451
0.245251
0.286422
0.309504
0.365499
0.388041
0.456681
0.470618
0.54987
0.52206
0.577036
0.461313
0.419245
0.153926
0.151429
0.153345
0.165302
0.177303
0.198136
0.212541
0.241671
0.263289
0.305037
0.332869
0.390863
0.419937
0.494244
0.514836
0.606533
0.579795
0.660459
0.51173
0.501023
0.16677
0.1569
0.162682
0.174117
0.189416
0.208348
0.226325
0.254504
0.281001
0.322053
0.356706
0.413947
0.451909
0.528779
0.5608
0.661243
0.643334
0.749233
0.570536
0.607838
0.178672
0.162082
0.172296
0.182414
0.201723
0.217258
0.240487
0.265974
0.297928
0.337165
0.377879
0.434723
0.483762
0.560484
0.607096
0.712625
0.712924
0.841694
0.637676
0.744551
0.189444
0.16708
0.181752
0.190237
0.21375
0.22533
0.255426
0.275971
0.317056
0.350077
0.40286
0.453381
0.51708
0.588853
0.660585
0.759903
0.79223
0.93027
0.724213
0.899307
0.198533
0.171919
0.190423
0.197609
0.224318
0.23315
0.268738
0.285495
0.334284
0.361887
0.427131
0.469294
0.550832
0.61454
0.706916
0.802698
0.87967
1.00657
0.839217
1.03142
0.206228
0.17622
0.198265
0.203877
0.234541
0.239687
0.281366
0.293547
0.351705
0.371721
0.452913
0.481645
0.593165
0.633861
0.788197
0.842057
1.00905
1.0781
1.04315
1.20064
0.212322
0.180454
0.204705
0.209344
0.242118
0.245492
0.290886
0.300954
0.363809
0.380818
0.468
0.495584
0.619278
0.657906
0.836042
0.895048
1.12593
1.19618
1.19927
1.33783
0.216814
0.184685
0.209987
0.213777
0.248447
0.250004
0.29729
0.306364
0.374585
0.386807
0.483451
0.503098
0.644877
0.666466
0.891276
0.910635
1.30351
1.20996
1.85068
-0.373913
0.0338392
0.0296418
0.0189751
0.0131803
0.0116872
0.0114697
0.0111865
0.0107461
0.0103771
0.0102095
0.0191012
0.0210958
0.031037
0.0360429
0.0360228
0.0340381
0.0318737
0.0300141
0.0284483
0.0270797
0.0928913
0.0860716
0.0705021
0.0601198
0.0550625
0.0523192
0.0501377
0.0480163
0.0459835
0.0440785
0.074558
0.0731875
0.078573
0.0790972
0.0756527
0.0713497
0.067727
0.0649576
0.0626852
0.0605442
0.15102
0.137803
0.112701
0.0944089
0.0845527
0.0804456
0.0786099
0.0768103
0.0741611
0.0706084
0.177119
0.161195
0.13442
0.114888
0.103763
0.0981441
0.094647
0.0912673
0.0872894
0.0827249
0.149853
0.143307
0.144061
0.140077
0.131812
0.122347
0.113394
0.105424
0.0983328
0.0919639
0.220862
0.20535
0.181375
0.162126
0.147762
0.135584
0.124202
0.113515
0.103664
0.0947982
0.204549
0.192964
0.187438
0.176758
0.161231
0.144811
0.129711
0.116626
0.105218
0.0951544
0.277479
0.255117
0.221696
0.191359
0.165782
0.144756
0.127628
0.113455
0.100798
0.0888715
0.282287
0.26372
0.235197
0.199827
0.166737
0.140521
0.120925
0.105422
0.091176
0.0770532
0.339361
0.296456
0.240318
0.191899
0.155008
0.128727
0.109052
0.0924201
0.0760906
0.0594744
0.363664
0.299854
0.227106
0.170852
0.133078
0.108907
0.0906323
0.07353
0.0550393
0.0352999
0.369369
0.278414
0.190876
0.129357
0.0932964
0.0733374
0.0587726
0.0438667
0.0259569
0.00546247
0.353525
0.227599
0.124247
0.0586286
0.0260391
0.0108333
0.000259531
-0.0113702
-0.0254011
-0.0415436
0.299836
0.138552
0.0285707
-0.0281205
-0.0524124
-0.066956
-0.0811348
-0.0978678
-0.115989
-0.134123
0.102443
-0.0665298
-0.116422
-0.0909578
-0.0511283
-0.0252905
-0.0159587
-0.0206227
-0.0313526
-0.0464155
-0.458852
-0.748486
-0.803144
-0.716211
-0.607933
-0.522753
-0.461381
-0.418543
-0.381161
-0.348596
-0.163069
-0.358277
-0.271896
-0.149348
-0.0719325
-0.0425289
-0.0370831
-0.0390998
-0.0417713
-0.0473519
-3.76183
-3.25531
-2.1233
-1.39273
-1.03594
-0.81155
-0.615396
-0.447867
-0.310236
-0.215905
0.00846562
0.00927322
0.0122886
0.0179237
0.0302056
0.0456592
0.0587848
0.0700191
0.081576
0.0899677
0.090333
0.0832328
0.072532
0.0613067
0.0510063
0.0419621
0.034069
0.0265084
0.0195192
0.00823119
0.0236691
0.026066
0.0345251
0.0513381
0.0861887
0.127845
0.16297
0.193315
0.223938
0.245199
0.244422
0.22393
0.194697
0.164603
0.136925
0.112381
0.0906948
0.0699685
0.0503785
0.0206684
0.0379597
0.0409952
0.0543876
0.0818404
0.137257
0.202121
0.257843
0.305864
0.351685
0.381816
0.379439
0.34808
0.303465
0.25734
0.214545
0.175956
0.141144
0.107447
0.0749607
0.0297609
0.0503676
0.0529615
0.0698758
0.107858
0.183905
0.26983
0.342955
0.405418
0.46193
0.495479
0.488272
0.447479
0.3916
0.333855
0.279861
0.230373
0.184665
0.139619
0.0952308
0.0369833
0.0584565
0.0609433
0.0803814
0.128995
0.225178
0.330504
0.41992
0.495331
0.560006
0.596005
0.584842
0.535223
0.46888
0.400757
0.336489
0.276997
0.221521
0.166454
0.111449
0.0424902
0.0652955
0.0657511
0.0854737
0.144032
0.261197
0.385826
0.490631
0.576673
0.644567
0.675841
0.657514
0.601883
0.529967
0.455774
0.384533
0.317273
0.253364
0.189296
0.124713
0.0467595
0.0679299
0.0653726
0.0831249
0.151813
0.291214
0.435465
0.555034
0.649729
0.719875
0.749322
0.725013
0.661318
0.5825
0.501784
0.424395
0.350832
0.280002
0.208318
0.135449
0.0500449
0.0648906
0.0587822
0.0719854
0.15151
0.316031
0.481676
0.615883
0.717566
0.783864
0.80186
0.770555
0.704455
0.623699
0.540071
0.458513
0.379673
0.302703
0.224299
0.144201
0.0525785
0.0574741
0.046521
0.0505052
0.14188
0.334401
0.523518
0.672522
0.777774
0.841722
0.85492
0.814709
0.741878
0.656999
0.57057
0.486191
0.403544
0.321664
0.237609
0.151324
0.0545283
0.0429725
0.0264361
0.0141949
0.119947
0.347981
0.563838
0.727974
0.83571
0.886321
0.885237
0.841315
0.768343
0.683485
0.596236
0.509765
0.423822
0.337666
0.248736
0.157146
0.0560311
0.0214614
-0.00151587
-0.0376681
0.0838446
0.355378
0.603489
0.78035
0.885048
0.930692
0.92058
0.866372
0.78931
0.703517
0.616243
0.528888
0.440678
0.351071
0.258026
0.161918
0.0571922
-0.00676857
-0.0396575
-0.112238
0.0304805
0.355931
0.641655
0.834398
0.930975
0.955855
0.935982
0.880607
0.804191
0.719805
0.633163
0.545123
0.45497
0.362395
0.265824
0.165856
0.0580954
-0.0412121
-0.0891098
-0.216285
-0.0442464
0.352777
0.678856
0.880406
0.970299
0.986834
0.954313
0.892282
0.814828
0.73194
0.646632
0.558586
0.467035
0.371986
0.2724
0.169132
0.0588059
-0.0776679
-0.150527
-0.354563
-0.146996
0.340378
0.719051
0.926903
0.997604
0.998226
0.961488
0.898515
0.82281
0.742246
0.658294
0.570221
0.477424
0.380206
0.278
0.171893
0.0593747
-0.114746
-0.234308
-0.544569
-0.276833
0.323606
0.752892
0.963951
1.0246
1.01367
0.967704
0.902712
0.828794
0.750707
0.668267
0.580319
0.486457
0.387329
0.282822
0.174257
0.0598415
-0.180952
-0.345001
-0.812664
-0.46961
0.274291
0.770056
0.983967
1.03317
1.01718
0.968534
0.904966
0.834172
0.758655
0.67744
0.589423
0.494489
0.393605
0.287035
0.176317
0.0602378
-0.113246
-0.416552
-1.10746
-0.690759
0.210146
0.768153
0.988849
1.0372
1.01494
0.967356
0.906949
0.839516
0.766324
0.686049
0.59779
0.501755
0.399221
0.290774
0.178152
0.0605881
-0.201604
-0.53793
-1.43875
-0.939907
0.0997788
0.721835
0.963804
1.01398
1.00267
0.963157
0.908822
0.845414
0.774264
0.694492
0.605701
0.508466
0.404334
0.294148
0.179819
0.0609114
-0.128739
-0.482029
-1.67448
-1.19477
-0.0402006
0.631302
0.898423
0.976036
0.984886
0.958091
0.911484
0.852172
0.782615
0.702903
0.613304
0.514763
0.409058
0.297243
0.181366
0.0612205
0.0499928
-0.416166
-1.63454
-1.29455
-0.198689
0.498577
0.800656
0.925922
0.963606
0.953187
0.915254
0.859882
0.791445
0.71137
0.620696
0.520744
0.41348
0.300118
0.182831
0.0615233
-0.337666
-0.389327
-1.47139
-1.24354
-0.292656
0.385537
0.726055
0.890557
0.949929
0.951031
0.918895
0.865897
0.797896
0.71731
0.625737
0.524737
0.416399
0.301997
0.18382
0.0617326
-0.232859
-0.368519
-1.35225
-1.19526
-0.343218
0.315722
0.684081
0.871066
0.94268
0.950138
0.921164
0.869428
0.801611
0.720693
0.628583
0.526977
0.41803
0.303049
0.184372
0.0618532
-0.322351
-0.349687
-1.20988
-1.13324
-0.393452
0.240483
0.643252
0.852819
0.9362
0.94964
0.923622
0.87304
0.805348
0.724061
0.631394
0.529178
0.419625
0.30408
0.18491
0.0619756
-0.306331
-0.329729
-1.05301
-1.06428
-0.446211
0.163384
0.603874
0.836176
0.930569
0.94952
0.926228
0.876702
0.809087
0.727405
0.634168
0.531339
0.421186
0.305089
0.185436
0.0620999
-0.346291
-0.310371
-0.891518
-0.994957
-0.502933
0.0897134
0.56663
0.821353
0.925827
0.949758
0.928953
0.880388
0.812814
0.730718
0.636902
0.53346
0.422713
0.306078
0.185951
0.0622262
-0.362921
-0.290835
-0.732922
-0.931577
-0.564715
0.024994
0.532567
0.808493
0.921977
0.950323
0.931766
0.884077
0.816514
0.733993
0.639592
0.535539
0.424206
0.307046
0.186456
0.0623549
-0.375174
-0.271094
-0.586564
-0.878298
-0.63096
-0.0306145
0.502826
0.797729
0.919015
0.9512
0.93465
0.887751
0.820175
0.73722
0.642236
0.537576
0.425665
0.307994
0.18695
0.0624862
-0.422913
-0.261127
-0.463794
-0.838098
-0.697759
-0.076582
0.478566
0.789287
0.916959
0.952389
0.937604
0.891405
0.823789
0.740395
0.644828
0.539568
0.42709
0.308921
0.187434
0.0626204
-0.375457
-0.22228
-0.358967
-0.810532
-0.758026
-0.111544
0.461165
0.783567
0.915854
0.953881
0.940628
0.895042
0.827356
0.743515
0.647368
0.541514
0.42848
0.309828
0.187907
0.0627583
-0.503626
-0.250526
-0.298112
-0.794097
-0.807256
-0.133269
0.451904
0.780925
0.915712
0.955621
0.943685
0.898647
0.830871
0.746578
0.649855
0.543416
0.429836
0.310716
0.188368
0.0629021
-0.0536867
-0.0203799
-0.123728
-0.768495
-0.875248
-0.151271
0.449519
0.780987
0.917231
0.959947
0.950413
0.906397
0.838371
0.753089
0.655132
0.547446
0.432707
0.312607
0.189344
0.0632253
-0.192944
-0.16599
-0.246698
-0.71408
-0.733979
-0.0503496
0.4967
0.796085
0.926449
0.970757
0.962809
0.918766
0.849475
0.762339
0.662493
0.552998
0.436653
0.315204
0.190761
0.0636816
-0.264405
-0.13921
-0.154935
-0.428291
-0.375111
0.154253
0.576838
0.818703
0.938806
0.985349
0.977936
0.931889
0.860063
0.770559
0.668888
0.557761
0.440037
0.317476
0.19205
0.0641123
0.0373075
-0.00670698
-0.034178
-0.201592
-0.147027
0.26191
0.617754
0.83688
0.955033
1.00309
0.995595
0.946728
0.870783
0.778613
0.67442
0.561652
0.442754
0.319305
0.193151
0.0645135
-0.0707505
-0.041322
0.000559237
-0.0558896
0.0416569
0.369071
0.656801
0.839252
0.94306
0.990496
0.988568
0.945103
0.873273
0.782025
0.677525
0.564064
0.444544
0.320586
0.194011
0.0648731
0.117013
0.0963879
0.115325
0.103148
0.195272
0.461138
0.713261
0.878645
0.968416
1.00545
0.995849
0.94865
0.875417
0.783585
0.678734
0.564946
0.445237
0.321186
0.19456
0.0651759
0.113997
0.0989136
0.135815
0.168479
0.272114
0.493587
0.703734
0.850899
0.940618
0.994062
0.994554
0.950527
0.876476
0.783317
0.677908
0.564057
0.444612
0.320945
0.194717
0.0654098
0.167679
0.163736
0.20353
0.253555
0.358292
0.548089
0.73564
0.882064
0.973402
1.00278
0.990227
0.942168
0.869012
0.777667
0.673475
0.560676
0.442288
0.319645
0.194377
0.0655552
0.19741
0.193808
0.230715
0.29202
0.396674
0.560113
0.717774
0.837506
0.920217
0.973146
0.97394
0.933063
0.861326
0.769855
0.666334
0.554802
0.438028
0.317068
0.193421
0.0655814
0.211959
0.21427
0.256097
0.321567
0.422075
0.57508
0.7317
0.860593
0.940984
0.966254
0.954029
0.910102
0.841129
0.754044
0.653946
0.54528
0.431247
0.312881
0.191681
0.065438
0.219337
0.229013
0.268527
0.334469
0.441003
0.583423
0.718466
0.815249
0.879105
0.916548
0.919953
0.885168
0.821475
0.736292
0.638232
0.532386
0.421687
0.306773
0.188964
0.0650594
0.218483
0.231967
0.275305
0.343023
0.437031
0.563624
0.695443
0.807704
0.880844
0.906089
0.891588
0.852338
0.788607
0.707906
0.615109
0.514195
0.408388
0.298208
0.184983
0.0643506
0.21092
0.228665
0.270527
0.334153
0.425844
0.546972
0.666771
0.757135
0.812117
0.83896
0.839556
0.80968
0.753829
0.677476
0.588105
0.491597
0.391172
0.286768
0.179427
0.0631894
0.198194
0.217645
0.258408
0.319215
0.401616
0.506561
0.615145
0.711519
0.782026
0.812337
0.802431
0.763766
0.706165
0.632867
0.55009
0.461041
0.368264
0.271506
0.171777
0.061386
0.178294
0.198244
0.236602
0.294306
0.369842
0.462269
0.559702
0.644241
0.7021
0.728443
0.72524
0.696577
0.647387
0.582567
0.506783
0.424769
0.340003
0.252012
0.161563
0.0587133
0.154134
0.173828
0.208006
0.257729
0.324296
0.405163
0.489919
0.567584
0.628971
0.661333
0.658769
0.627872
0.578093
0.517077
0.448599
0.376613
0.302969
0.226408
0.147713
0.0547608
0.127485
0.143661
0.17263
0.214576
0.271423
0.340375
0.411305
0.475603
0.525873
0.551884
0.549804
0.525232
0.485202
0.435483
0.379799
0.320158
0.25876
0.194887
0.129756
0.0491852
0.0944182
0.107917
0.130352
0.162464
0.206994
0.261381
0.317407
0.36901
0.4109
0.43416
0.434125
0.41478
0.382287
0.341265
0.295875
0.248845
0.201829
0.153578
0.104992
0.0408774
0.0592721
0.068089
0.0819874
0.102378
0.1327
0.16947
0.204572
0.236655
0.264866
0.281509
0.28178
0.268595
0.246855
0.220124
0.191329
0.162063
0.133213
0.10349
0.0737243
0.0299417
0.020869
0.0236947
0.0289326
0.0364027
0.0481008
0.0630975
0.0772975
0.0892829
0.0989857
0.104573
0.104858
0.100703
0.0934697
0.084267
0.0740506
0.0632852
0.0523631
0.0409531
0.0299024
0.0125309
-3.60074
-3.42259
-2.51804
-1.85023
-1.45256
-1.21796
-1.03075
-0.857131
-0.695489
-0.546772
0.266071
0.0435939
-0.00197937
0.0178709
0.0280725
0.0191524
-0.0062096
-0.0348869
-0.0632421
-0.0864734
-0.341001
-0.592912
-0.697522
-0.683589
-0.626713
-0.568696
-0.520378
-0.480614
-0.445499
-0.410688
0.420502
0.306503
0.227642
0.188231
0.174699
0.169329
0.162101
0.150336
0.134226
0.115304
0.359831
0.242718
0.134993
0.0598084
0.0158491
-0.00774125
-0.0219283
-0.0330061
-0.0429031
-0.051846
0.398979
0.335444
0.267388
0.219851
0.194042
0.183181
0.178489
0.174236
0.168033
0.159443
0.40066
0.36433
0.314817
0.27275
0.241757
0.219664
0.202534
0.187325
0.17281
0.158741
0.314934
0.298399
0.291952
0.281237
0.265374
0.247832
0.231702
0.218224
0.207382
0.198697
0.356853
0.338529
0.308694
0.284415
0.267435
0.255057
0.244934
0.235973
0.228038
0.221081
0.271733
0.265402
0.270425
0.271149
0.266069
0.258097
0.249756
0.242253
0.23577
0.230265
0.315581
0.303633
0.280485
0.263136
0.25313
0.247302
0.242941
0.238836
0.234833
0.231124
0.226815
0.225443
0.235789
0.241623
0.241293
0.237731
0.233496
0.229853
0.226952
0.224813
0.271282
0.263193
0.243101
0.22856
0.221282
0.218257
0.216722
0.215439
0.214156
0.213016
0.176455
0.178064
0.191445
0.199882
0.201986
0.200757
0.198871
0.197621
0.197214
0.197478
0.221199
0.211715
0.188313
0.171701
0.164529
0.164284
0.167095
0.170305
0.172714
0.174148
0.192122
0.183763
0.160778
0.144307
0.137288
0.137324
0.140553
0.144176
0.146922
0.14855
0.0884852
0.092253
0.107657
0.117743
0.121299
0.121495
0.121059
0.121252
0.122205
0.123644
0.124967
0.120119
0.102648
0.0909048
0.086559
0.0864311
0.0876181
0.08879
0.089655
0.0903658
0.0194178
0.0240975
0.0409238
0.0523726
0.056742
0.0571955
0.056557
0.0561361
0.0561928
0.056573
0.0514176
0.0471999
0.0316545
0.0214594
0.0180899
0.0182205
0.0191425
0.0198684
0.0203557
0.0207288
0.227418
0.199002
0.221339
0.227265
0.258818
0.264687
0.308393
0.322256
0.384423
0.404608
0.492496
0.522632
0.649678
0.686446
0.884946
0.919994
1.25627
1.16071
1.57246
-0.460782
0.225499
0.200775
0.21965
0.227627
0.25593
0.265047
0.304059
0.321599
0.376794
0.403363
0.478332
0.519893
0.620905
0.682631
0.812969
0.916355
1.04929
1.19735
1.13147
1.56218
0.220697
0.201874
0.216354
0.22566
0.25041
0.262678
0.296212
0.316863
0.364999
0.394894
0.460346
0.504128
0.59148
0.650463
0.760974
0.842425
0.942375
1.01039
0.904527
0.886141
0.211902
0.203757
0.210971
0.223645
0.240944
0.261564
0.284124
0.314017
0.347796
0.389507
0.434446
0.493162
0.548368
0.628238
0.68298
0.791643
0.798652
0.929341
0.723622
0.843034
0.203111
0.202401
0.2068
0.218771
0.233753
0.255299
0.275876
0.305778
0.336525
0.378021
0.417298
0.474631
0.521924
0.593874
0.638836
0.728117
0.726747
0.815707
0.642018
0.677804
0.192178
0.199215
0.201544
0.213332
0.224602
0.247762
0.264401
0.295918
0.320279
0.363769
0.393902
0.45228
0.485429
0.556526
0.580936
0.662676
0.645888
0.706443
0.571715
0.542909
0.182374
0.193296
0.195142
0.205979
0.215331
0.237978
0.253071
0.28346
0.305191
0.346093
0.372387
0.425999
0.453422
0.51501
0.533497
0.598019
0.578678
0.613224
0.516492
0.460811
0.172283
0.185176
0.186973
0.196991
0.204654
0.2264
0.23997
0.268616
0.28813
0.325849
0.349151
0.396106
0.42051
0.470911
0.487403
0.533027
0.522275
0.531507
0.474164
0.408532
0.162039
0.175059
0.177332
0.186379
0.19314
0.212974
0.225798
0.251935
0.270051
0.303243
0.324734
0.365004
0.387448
0.426193
0.443369
0.474019
0.468997
0.462719
0.420759
0.367985
0.151329
0.163376
0.16627
0.174202
0.180527
0.198264
0.210555
0.233221
0.250832
0.278882
0.299351
0.332535
0.35405
0.383174
0.40001
0.419606
0.418959
0.408464
0.382151
0.336921
0.140017
0.150407
0.153792
0.160885
0.166976
0.182172
0.194123
0.213447
0.230272
0.253622
0.273034
0.300138
0.320476
0.3411
0.35756
0.371144
0.371112
0.359917
0.33672
0.306509
0.127999
0.136504
0.140349
0.146422
0.152442
0.165211
0.176417
0.192659
0.208844
0.227638
0.245955
0.267689
0.286245
0.301362
0.315896
0.326422
0.326226
0.317985
0.304295
0.277625
0.115266
0.121866
0.125902
0.131053
0.136859
0.147549
0.157744
0.171408
0.186111
0.201541
0.217728
0.236162
0.251601
0.263078
0.275573
0.284818
0.284074
0.276895
0.262523
0.248137
0.101741
0.10668
0.110499
0.114939
0.120329
0.129246
0.138355
0.149582
0.162643
0.175241
0.189148
0.204549
0.21761
0.225914
0.236679
0.244537
0.243926
0.238954
0.235648
0.219245
0.0874577
0.0910543
0.0944101
0.0981955
0.103074
0.110248
0.118383
0.127393
0.138461
0.148672
0.160375
0.173156
0.183546
0.19007
0.19845
0.206019
0.204921
0.1992
0.192745
0.194696
0.0724848
0.0750072
0.077932
0.0811606
0.0850678
0.0909314
0.0974953
0.104818
0.113673
0.122021
0.131115
0.14189
0.149724
0.155043
0.161262
0.168437
0.166896
0.162967
0.157714
0.162829
0.0570077
0.0587203
0.0609978
0.0635988
0.0666924
0.0711619
0.0762658
0.0817601
0.0884263
0.0950614
0.102199
0.110637
0.11656
0.119847
0.125617
0.131028
0.130672
0.128734
0.130918
0.124889
0.0410495
0.0421295
0.0438597
0.0456316
0.047925
0.0510331
0.054551
0.0587821
0.0632811
0.0678966
0.073169
0.0794429
0.0836528
0.0852954
0.0898799
0.0940441
0.0940567
0.0919765
0.0885346
0.0890797
0.0247868
0.0253072
0.0263278
0.0274234
0.0287848
0.0308616
0.0329721
0.0353841
0.0378996
0.0409129
0.0441891
0.0480677
0.0504182
0.0505886
0.0538458
0.0572263
0.0569595
0.0562166
0.0576271
0.0538037
0.00826943
0.00857335
0.00879327
0.00919653
0.00964277
0.0100016
0.0110139
0.0122289
0.0128592
0.0135405
0.0144578
0.0159818
0.0171449
0.0170246
0.0177071
0.0188937
0.0191578
0.0186904
0.016487
0.0174924
0.219292
0.18736
0.213798
0.216027
0.252426
0.252332
0.302503
0.309044
0.380794
0.389668
0.49196
0.50656
0.658752
0.671158
0.919667
0.925026
1.39761
1.31372
2.60209
1.30879
0.220506
0.188919
0.215541
0.217374
0.254253
0.253812
0.304814
0.310692
0.383636
0.391626
0.49594
0.508985
0.665054
0.674959
0.932682
0.935976
1.43854
1.39243
2.73569
2.09035
0.221646
0.190359
0.217143
0.218654
0.255852
0.255216
0.306867
0.312222
0.386045
0.393453
0.499383
0.511101
0.670336
0.678224
0.944171
0.944525
1.47887
1.44865
2.90471
2.64681
0.22268
0.191672
0.218493
0.219831
0.25721
0.256493
0.308574
0.3136
0.387976
0.395098
0.502058
0.512946
0.674165
0.681044
0.951596
0.95181
1.50006
1.49806
2.97398
2.9855
0.223594
0.192862
0.219617
0.220909
0.258301
0.257648
0.309909
0.314826
0.389401
0.39653
0.503951
0.514442
0.676584
0.683003
0.956132
0.955275
1.51432
1.52139
3.01816
3.17247
0.224395
0.193941
0.220508
0.221889
0.259129
0.258689
0.310858
0.315902
0.390305
0.397747
0.504996
0.515621
0.677474
0.68419
0.956955
0.955565
1.51473
1.52278
3.01959
3.20431
0.225094
0.194914
0.221174
0.222781
0.259705
0.259623
0.311422
0.31684
0.390688
0.398757
0.505161
0.516503
0.67683
0.684663
0.954043
0.953511
1.50139
1.50205
2.97858
3.06266
0.225705
0.19578
0.221634
0.223605
0.260044
0.26047
0.311622
0.317671
0.390581
0.399583
0.50451
0.517003
0.674734
0.683919
0.947922
0.946014
1.48214
1.45261
2.91827
2.7958
0.22626
0.196531
0.221907
0.224363
0.260181
0.261238
0.311501
0.318421
0.390042
0.400317
0.503093
0.517709
0.671114
0.683614
0.937306
0.939442
1.43819
1.39611
2.73707
2.28871
0.226767
0.197188
0.221975
0.225056
0.260117
0.261898
0.311111
0.318887
0.389175
0.400522
0.501315
0.517072
0.667212
0.680861
0.927099
0.926792
1.4049
1.30741
2.64137
1.55919
)
;

boundaryField
{
    inlet
    {
        type            zeroGradient;
    }
    outlet
    {
        type            fixedValue;
        value           uniform 0;
    }
    upAndBottom
    {
        type            empty;
    }
    obstacle
    {
        type            zeroGradient;
    }
}


// ************************************************************************* //
