/*--------------------------------*- C++ -*----------------------------------*\
| =========                 |                                                 |
| \\      /  F ield         | OpenFOAM: The Open Source CFD Toolbox           |
|  \\    /   O peration     | Version:  v1806                                 |
|   \\  /    A nd           | Web:      www.OpenFOAM.com                      |
|    \\/     M anipulation  |                                                 |
\*---------------------------------------------------------------------------*/
FoamFile
{
    version     2.0;
    format      ascii;
    class       volVectorField;
    location    "80";
    object      U;
}
// * * * * * * * * * * * * * * * * * * * * * * * * * * * * * * * * * * * * * //

dimensions      [0 1 -1 0 0 0 0];


internalField   nonuniform List<vector> 
2400
(
(0.3 -0.0029647 0)
(0.30001 -0.00888637 0)
(0.300031 -0.0147846 0)
(0.300068 -0.020643 0)
(0.300124 -0.0264445 0)
(0.300204 -0.0321705 0)
(0.300313 -0.037801 0)
(0.300459 -0.0433137 0)
(0.300649 -0.0486844 0)
(0.300892 -0.0538866 0)
(0.301199 -0.0588927 0)
(0.301579 -0.0636739 0)
(0.302044 -0.0682014 0)
(0.302605 -0.0724468 0)
(0.303272 -0.0763839 0)
(0.304055 -0.0799888 0)
(0.30496 -0.0832415 0)
(0.305995 -0.0861269 0)
(0.307159 -0.0886351 0)
(0.30846 -0.0907636 0)
(0.300001 -0.0029726 0)
(0.300025 -0.00891095 0)
(0.300074 -0.0148287 0)
(0.300151 -0.0207109 0)
(0.300262 -0.026542 0)
(0.300413 -0.032305 0)
(0.300612 -0.0379814 0)
(0.300869 -0.0435506 0)
(0.301194 -0.0489897 0)
(0.3016 -0.0542741 0)
(0.3021 -0.0593771 0)
(0.302705 -0.0642709 0)
(0.303429 -0.0689268 0)
(0.304283 -0.0733164 0)
(0.305278 -0.0774121 0)
(0.30642 -0.0811878 0)
(0.307715 -0.0846211 0)
(0.309162 -0.0876926 0)
(0.310758 -0.0903888 0)
(0.312496 -0.0927009 0)
(0.300002 -0.00298778 0)
(0.300039 -0.00895738 0)
(0.300115 -0.0149092 0)
(0.300234 -0.0208305 0)
(0.300403 -0.0267074 0)
(0.300628 -0.0325248 0)
(0.300921 -0.0382656 0)
(0.301293 -0.0439109 0)
(0.301758 -0.0494386 0)
(0.30233 -0.0548249 0)
(0.303024 -0.0600432 0)
(0.303855 -0.0650652 0)
(0.304835 -0.0698609 0)
(0.305977 -0.0743995 0)
(0.307288 -0.0786506 0)
(0.308776 -0.0825843 0)
(0.310439 -0.0861736 0)
(0.312273 -0.0893952 0)
(0.314269 -0.09223 0)
(0.316412 -0.0946686 0)
(0.300003 -0.00300932 0)
(0.300051 -0.00902298 0)
(0.300151 -0.0150221 0)
(0.300307 -0.0209966 0)
(0.300526 -0.0269346 0)
(0.300818 -0.0328236 0)
(0.301195 -0.0386482 0)
(0.301673 -0.0443912 0)
(0.302267 -0.0500316 0)
(0.302994 -0.0555465 0)
(0.303872 -0.0609088 0)
(0.304916 -0.0660896 0)
(0.306143 -0.0710569 0)
(0.307564 -0.0757772 0)
(0.309189 -0.0802159 0)
(0.31102 -0.0843388 0)
(0.313056 -0.0881132 0)
(0.315287 -0.09151 0)
(0.317697 -0.0945045 0)
(0.320265 -0.0970815 0)
(0.300003 -0.003036 0)
(0.300061 -0.00910424 0)
(0.300179 -0.0151619 0)
(0.300364 -0.0212019 0)
(0.300625 -0.0272152 0)
(0.300972 -0.0331923 0)
(0.301421 -0.0391195 0)
(0.30199 -0.0449822 0)
(0.302697 -0.05076 0)
(0.303563 -0.0564315 0)
(0.304609 -0.0619682 0)
(0.305854 -0.0673413 0)
(0.307317 -0.0725148 0)
(0.309011 -0.0774524 0)
(0.310947 -0.0821136 0)
(0.313126 -0.0864582 0)
(0.315544 -0.090446 0)
(0.318187 -0.0940403 0)
(0.321033 -0.0972087 0)
(0.32405 -0.0999297 0)
(0.300003 -0.00306643 0)
(0.300068 -0.00919696 0)
(0.300199 -0.0153216 0)
(0.300404 -0.021437 0)
(0.300693 -0.0275375 0)
(0.301081 -0.033617 0)
(0.301585 -0.0396638 0)
(0.302226 -0.045667 0)
(0.303027 -0.051606 0)
(0.304013 -0.0574625 0)
(0.305209 -0.0632051 0)
(0.306638 -0.0688062 0)
(0.308323 -0.0742236 0)
(0.310282 -0.079419 0)
(0.312526 -0.0843431 0)
(0.315057 -0.0889485 0)
(0.317871 -0.0931852 0)
(0.320947 -0.0970062 0)
(0.324256 -0.100369 0)
(0.327756 -0.103244 0)
(0.300004 -0.00309888 0)
(0.30007 -0.00929599 0)
(0.300207 -0.0154927 0)
(0.300421 -0.0216903 0)
(0.300725 -0.0278865 0)
(0.301135 -0.0340801 0)
(0.301673 -0.0402613 0)
(0.302364 -0.0464243 0)
(0.303234 -0.0525473 0)
(0.304315 -0.0586181 0)
(0.305636 -0.0645987 0)
(0.307228 -0.0704677 0)
(0.309118 -0.0761706 0)
(0.311329 -0.0816716 0)
(0.313878 -0.0869061 0)
(0.316768 -0.091821 0)
(0.319992 -0.0963513 0)
(0.323529 -0.100437 0)
(0.327338 -0.104022 0)
(0.331365 -0.107064 0)
(0.300003 -0.00313126 0)
(0.300068 -0.00939511 0)
(0.300201 -0.0156649 0)
(0.300411 -0.0219474 0)
(0.300712 -0.0282442 0)
(0.301123 -0.0345604 0)
(0.30167 -0.0408874 0)
(0.302382 -0.0472277 0)
(0.303291 -0.0535557 0)
(0.304435 -0.0598709 0)
(0.305851 -0.0661222 0)
(0.307575 -0.0723043 0)
(0.309648 -0.0783377 0)
(0.312093 -0.0842025 0)
(0.31494 -0.0898027 0)
(0.318192 -0.0950888 0)
(0.321847 -0.0999691 0)
(0.325877 -0.104369 0)
(0.330233 -0.108213 0)
(0.334845 -0.111443 0)
(0.300003 -0.00316112 0)
(0.300061 -0.00948693 0)
(0.30018 -0.0158258 0)
(0.300369 -0.0221913 0)
(0.300646 -0.0285888 0)
(0.301032 -0.0350316 0)
(0.301556 -0.041512 0)
(0.302255 -0.0480444 0)
(0.303165 -0.0545957 0)
(0.304332 -0.0611862 0)
(0.305802 -0.0677401 0)
(0.307621 -0.0742876 0)
(0.309843 -0.0806984 0)
(0.312495 -0.0870006 0)
(0.315631 -0.093028 0)
(0.319243 -0.0987672 0)
(0.323352 -0.104067 0)
(0.327915 -0.108848 0)
(0.332875 -0.113004 0)
(0.338151 -0.116449 0)
(0.300002 -0.00318558 0)
(0.300047 -0.0095628 0)
(0.300139 -0.0159612 0)
(0.30029 -0.0224017 0)
(0.300517 -0.0288946 0)
(0.300848 -0.0354626 0)
(0.301313 -0.0420989 0)
(0.301955 -0.0488338 0)
(0.302819 -0.0556228 0)
(0.303959 -0.0625191 0)
(0.30543 -0.0694052 0)
(0.307294 -0.076379 0)
(0.309618 -0.0832127 0)
(0.31244 -0.0900498 0)
(0.315844 -0.0965666 0)
(0.319806 -0.102876 0)
(0.324396 -0.108677 0)
(0.329535 -0.113934 0)
(0.335177 -0.118475 0)
(0.341222 -0.122173 0)
(0.300001 -0.00320133 0)
(0.300026 -0.00961273 0)
(0.300078 -0.0160544 0)
(0.300169 -0.0225551 0)
(0.300318 -0.0291312 0)
(0.300556 -0.035816 0)
(0.300919 -0.0426043 0)
(0.301454 -0.0495456 0)
(0.302214 -0.0565821 0)
(0.303262 -0.0638113 0)
(0.304669 -0.0710562 0)
(0.306509 -0.0785253 0)
(0.308871 -0.0858227 0)
(0.311805 -0.0933263 0)
(0.315445 -0.100383 0)
(0.319729 -0.107446 0)
(0.324841 -0.113822 0)
(0.330587 -0.119707 0)
(0.337021 -0.124728 0)
(0.343978 -0.128733 0)
(0.3 -0.00320467 0)
(0.299996 -0.00962551 0)
(0.299993 -0.0160865 0)
(0.299999 -0.0226248 0)
(0.30004 -0.0292641 0)
(0.300141 -0.0360483 0)
(0.300354 -0.042977 0)
(0.300718 -0.050119 0)
(0.301309 -0.0574067 0)
(0.302183 -0.0649874 0)
(0.303444 -0.0726162 0)
(0.305166 -0.0806502 0)
(0.307481 -0.0884496 0)
(0.310447 -0.0967897 0)
(0.314259 -0.104411 0)
(0.318824 -0.112524 0)
(0.3245 -0.119502 0)
(0.330861 -0.126299 0)
(0.338272 -0.131905 0)
(0.346305 -0.136297 0)
(0.299998 -0.0031915 0)
(0.299958 -0.00958884 0)
(0.299883 -0.0160368 0)
(0.299777 -0.0225811 0)
(0.299673 -0.029254 0)
(0.299592 -0.0361099 0)
(0.299598 -0.0431572 0)
(0.299718 -0.0504814 0)
(0.300063 -0.0580161 0)
(0.300658 -0.065951 0)
(0.30168 -0.0739899 0)
(0.303153 -0.0826427 0)
(0.305313 -0.090995 0)
(0.308187 -0.10036 0)
(0.312068 -0.108548 0)
(0.316854 -0.118168 0)
(0.323101 -0.125643 0)
(0.330067 -0.133952 0)
(0.338779 -0.140171 0)
(0.34802 -0.145122 0)
(0.299996 -0.0031575 0)
(0.29991 -0.00948962 0)
(0.299745 -0.0158831 0)
(0.299501 -0.0223918 0)
(0.299214 -0.0290581 0)
(0.298899 -0.0359458 0)
(0.298637 -0.0430772 0)
(0.298429 -0.0505492 0)
(0.29844 -0.0583141 0)
(0.298629 -0.0665831 0)
(0.299302 -0.075059 0)
(0.300343 -0.0843472 0)
(0.302236 -0.0933438 0)
(0.304801 -0.103876 0)
(0.30863 -0.112687 0)
(0.313525 -0.124386 0)
(0.320235 -0.132065 0)
(0.32786 -0.143076 0)
(0.338314 -0.149584 0)
(0.348737 -0.155642 0)
(0.299993 -0.00309821 0)
(0.299853 -0.0093144 0)
(0.29958 -0.0156022 0)
(0.299168 -0.0220236 0)
(0.29866 -0.0286311 0)
(0.298058 -0.0354973 0)
(0.29746 -0.0426618 0)
(0.296839 -0.0502297 0)
(0.296412 -0.0581873 0)
(0.296054 -0.0667445 0)
(0.296243 -0.075671 0)
(0.296618 -0.0855613 0)
(0.29812 -0.0953485 0)
(0.300014 -0.107066 0)
(0.303727 -0.116768 0)
(0.308396 -0.130992 0)
(0.315395 -0.138592 0)
(0.323884 -0.154233 0)
(0.336254 -0.159754 0)
(0.347785 -0.168714 0)
(0.29999 -0.00300929 0)
(0.299787 -0.00905003 0)
(0.299388 -0.0151716 0)
(0.298783 -0.0214432 0)
(0.298013 -0.027927 0)
(0.297075 -0.0347044 0)
(0.296069 -0.0418323 0)
(0.294951 -0.0494239 0)
(0.293964 -0.0575063 0)
(0.29292 -0.0662798 0)
(0.292438 -0.0756274 0)
(0.2919 -0.0860464 0)
(0.292807 -0.0967725 0)
(0.293552 -0.10955 0)
(0.297146 -0.120759 0)
(0.300788 -0.137431 0)
(0.308241 -0.145468 0)
(0.31755 -0.167759 0)
(0.331174 -0.169624 0)
(0.344835 -0.186416 0)
(0.299986 -0.0028868 0)
(0.299714 -0.00868442 0)
(0.299173 -0.0145703 0)
(0.298351 -0.0206197 0)
(0.297282 -0.0269027 0)
(0.295963 -0.0335091 0)
(0.29448 -0.0405108 0)
(0.292788 -0.0480319 0)
(0.29111 -0.0561348 0)
(0.289255 -0.0650221 0)
(0.287856 -0.0746866 0)
(0.286197 -0.0855367 0)
(0.286105 -0.0972197 0)
(0.285263 -0.110906 0)
(0.288479 -0.124378 0)
(0.289909 -0.142833 0)
(0.298669 -0.153748 0)
(0.307175 -0.182746 0)
(0.321721 -0.178917 0)
(0.341261 -0.213745 0)
(0.299982 -0.00272747 0)
(0.299634 -0.00820756 0)
(0.298939 -0.0137809 0)
(0.297882 -0.0195266 0)
(0.296486 -0.025521 0)
(0.294749 -0.0318602 0)
(0.292729 -0.0386282 0)
(0.290396 -0.0459595 0)
(0.287907 -0.0539443 0)
(0.285129 -0.0628002 0)
(0.282544 -0.0725957 0)
(0.279597 -0.0837311 0)
(0.277888 -0.0961472 0)
(0.275199 -0.110674 0)
(0.276942 -0.126616 0)
(0.275302 -0.14643 0)
(0.285628 -0.164155 0)
(0.289654 -0.196297 0)
(0.309279 -0.193636 0)
(0.337695 -0.258486 0)
(0.299977 -0.00252898 0)
(0.299551 -0.00761243 0)
(0.298694 -0.0127911 0)
(0.29739 -0.018145 0)
(0.295647 -0.0237547 0)
(0.293465 -0.0297185 0)
(0.29087 -0.0361301 0)
(0.287842 -0.0431286 0)
(0.284458 -0.0508276 0)
(0.280653 -0.0594545 0)
(0.276677 -0.069133 0)
(0.272264 -0.0802924 0)
(0.268326 -0.093012 0)
(0.263583 -0.108191 0)
(0.261906 -0.125787 0)
(0.256997 -0.147439 0)
(0.265477 -0.173197 0)
(0.262212 -0.206078 0)
(0.293407 -0.229756 0)
(0.32238 -0.316165 0)
(0.299973 -0.00228975 0)
(0.299466 -0.0068942 0)
(0.298446 -0.0115924 0)
(0.29689 -0.0164622 0)
(0.294796 -0.0215846 0)
(0.292158 -0.0270561 0)
(0.288973 -0.0329762 0)
(0.28522 -0.0394804 0)
(0.280905 -0.0467008 0)
(0.275995 -0.0548555 0)
(0.270541 -0.0641201 0)
(0.264466 -0.074904 0)
(0.258008 -0.0874043 0)
(0.25081 -0.10257 0)
(0.244173 -0.120473 0)
(0.235541 -0.143687 0)
(0.234137 -0.172726 0)
(0.221781 -0.210932 0)
(0.255069 -0.27741 0)
(0.258913 -0.344417 0)
(0.309751 -0.0923357 0)
(0.310973 -0.0934972 0)
(0.312261 -0.0944282 0)
(0.313618 -0.0951496 0)
(0.315036 -0.0956506 0)
(0.316514 -0.0959807 0)
(0.318043 -0.0960848 0)
(0.319611 -0.0960885 0)
(0.321249 -0.0958188 0)
(0.322848 -0.0955688 0)
(0.314174 -0.0944393 0)
(0.315739 -0.0957467 0)
(0.31737 -0.0968122 0)
(0.31906 -0.0976559 0)
(0.320795 -0.0982645 0)
(0.322575 -0.0986947 0)
(0.32438 -0.0988784 0)
(0.326216 -0.0989687 0)
(0.328066 -0.0987449 0)
(0.329913 -0.0985981 0)
(0.318457 -0.0964984 0)
(0.320343 -0.0978693 0)
(0.322283 -0.0989857 0)
(0.324269 -0.0998696 0)
(0.326284 -0.100507 0)
(0.328328 -0.100958 0)
(0.330377 -0.101152 0)
(0.332447 -0.10125 0)
(0.334505 -0.10102 0)
(0.336574 -0.100865 0)
(0.322693 -0.0990141 0)
(0.324916 -0.100461 0)
(0.327182 -0.101637 0)
(0.32948 -0.102565 0)
(0.33179 -0.103231 0)
(0.334114 -0.103701 0)
(0.336416 -0.103899 0)
(0.338734 -0.104001 0)
(0.34099 -0.103756 0)
(0.343289 -0.103615 0)
(0.326888 -0.101961 0)
(0.329468 -0.103471 0)
(0.332082 -0.104688 0)
(0.33471 -0.105634 0)
(0.337332 -0.106302 0)
(0.339945 -0.106755 0)
(0.342506 -0.106928 0)
(0.345073 -0.106997 0)
(0.347521 -0.106714 0)
(0.350054 -0.106542 0)
(0.331037 -0.105371 0)
(0.334004 -0.106933 0)
(0.336993 -0.108174 0)
(0.339972 -0.109113 0)
(0.342922 -0.109755 0)
(0.345832 -0.110158 0)
(0.348659 -0.110278 0)
(0.351467 -0.110274 0)
(0.354101 -0.109931 0)
(0.356855 -0.109687 0)
(0.335132 -0.109285 0)
(0.338523 -0.110886 0)
(0.34192 -0.112127 0)
(0.345275 -0.113025 0)
(0.348577 -0.113605 0)
(0.351786 -0.113911 0)
(0.354888 -0.113942 0)
(0.357916 -0.113812 0)
(0.360741 -0.113387 0)
(0.363669 -0.113009 0)
(0.339154 -0.113753 0)
(0.343018 -0.115376 0)
(0.346868 -0.116586 0)
(0.350631 -0.1174 0)
(0.354308 -0.117868 0)
(0.357817 -0.118019 0)
(0.361206 -0.117914 0)
(0.364411 -0.117592 0)
(0.36745 -0.11706 0)
(0.37045 -0.116467 0)
(0.343078 -0.118846 0)
(0.347482 -0.120467 0)
(0.35184 -0.121601 0)
(0.356056 -0.122272 0)
(0.360132 -0.122558 0)
(0.363944 -0.122483 0)
(0.367618 -0.122173 0)
(0.370951 -0.121589 0)
(0.374219 -0.12091 0)
(0.377143 -0.120013 0)
(0.346868 -0.124656 0)
(0.351908 -0.126247 0)
(0.356848 -0.12724 0)
(0.361582 -0.127683 0)
(0.366071 -0.127684 0)
(0.370202 -0.127296 0)
(0.374124 -0.126681 0)
(0.377553 -0.125765 0)
(0.380987 -0.124852 0)
(0.383674 -0.123574 0)
(0.35048 -0.131312 0)
(0.356292 -0.132831 0)
(0.361922 -0.133589 0)
(0.367266 -0.133683 0)
(0.372176 -0.133264 0)
(0.37666 -0.132444 0)
(0.380718 -0.131379 0)
(0.384222 -0.130031 0)
(0.387534 -0.128705 0)
(0.389836 -0.126966 0)
(0.353849 -0.139 0)
(0.360635 -0.140383 0)
(0.367137 -0.140771 0)
(0.373219 -0.140342 0)
(0.378567 -0.139328 0)
(0.383395 -0.137883 0)
(0.387339 -0.136142 0)
(0.39075 -0.134136 0)
(0.393199 -0.132046 0)
(0.394813 -0.129638 0)
(0.35688 -0.148008 0)
(0.364997 -0.149142 0)
(0.372694 -0.148955 0)
(0.379663 -0.14775 0)
(0.385403 -0.145862 0)
(0.390283 -0.143406 0)
(0.393483 -0.140556 0)
(0.39599 -0.137327 0)
(0.396107 -0.133872 0)
(0.396004 -0.130179 0)
(0.359543 -0.158855 0)
(0.369726 -0.159523 0)
(0.379074 -0.158371 0)
(0.386832 -0.155878 0)
(0.392382 -0.152457 0)
(0.396056 -0.148131 0)
(0.39687 -0.143256 0)
(0.396203 -0.137686 0)
(0.391565 -0.131966 0)
(0.387191 -0.125771 0)
(0.362354 -0.172568 0)
(0.375845 -0.172256 0)
(0.386757 -0.169117 0)
(0.393845 -0.163953 0)
(0.396742 -0.157324 0)
(0.395838 -0.14939 0)
(0.390675 -0.140818 0)
(0.382661 -0.131376 0)
(0.370011 -0.122338 0)
(0.357349 -0.11229 0)
(0.367033 -0.190948 0)
(0.38415 -0.18791 0)
(0.393578 -0.179924 0)
(0.394855 -0.16872 0)
(0.38903 -0.155582 0)
(0.377372 -0.141394 0)
(0.360699 -0.127116 0)
(0.340559 -0.11279 0)
(0.317083 -0.0998853 0)
(0.293283 -0.0861353 0)
(0.374344 -0.214475 0)
(0.389288 -0.202987 0)
(0.387583 -0.183755 0)
(0.372811 -0.161022 0)
(0.34912 -0.137617 0)
(0.319827 -0.115314 0)
(0.287455 -0.0950492 0)
(0.254256 -0.0771699 0)
(0.221664 -0.062238 0)
(0.191085 -0.0489249 0)
(0.374795 -0.232594 0)
(0.368228 -0.200935 0)
(0.339353 -0.161751 0)
(0.297307 -0.124327 0)
(0.250492 -0.0916097 0)
(0.20452 -0.0646949 0)
(0.163094 -0.0440467 0)
(0.12808 -0.0294003 0)
(0.0997311 -0.0199806 0)
(0.0774664 -0.0150369 0)
(0.338322 -0.212157 0)
(0.27205 -0.151417 0)
(0.207697 -0.0883889 0)
(0.142607 -0.043532 0)
(0.0923005 -0.016787 0)
(0.0576592 -0.00471584 0)
(0.034824 -0.000604196 0)
(0.0198332 0.000569202 0)
(0.00983056 0.000388371 0)
(0.00281509 -0.00172378 0)
(0.212016 -0.169758 0)
(0.0432788 -0.0634555 0)
(0.00815723 -0.00508807 0)
(-0.015989 0.00808797 0)
(-0.0203082 0.00857347 0)
(-0.0208152 0.00609441 0)
(-0.0196087 0.00387122 0)
(-0.0181589 0.00251849 0)
(-0.017062 0.00131348 0)
(-0.017181 -0.0013337 0)
(0.327769 -0.0938139 0)
(0.335147 -0.0882851 0)
(0.343634 -0.0828259 0)
(0.354044 -0.0736229 0)
(0.3607 -0.0620597 0)
(0.362153 -0.0425292 0)
(0.370833 -0.0191565 0)
(0.3799 -0.00816055 0)
(0.369622 0.00221808 0)
(0.361486 0.00911576 0)
(0.370225 -0.0288699 0)
(0.34868 -0.100241 0)
(0.270613 -0.152574 0)
(0.17097 -0.161368 0)
(0.0929487 -0.137401 0)
(0.0485978 -0.102703 0)
(0.0270898 -0.0716291 0)
(0.0168208 -0.047295 0)
(0.0119791 -0.0281745 0)
(0.00972816 -0.0123243 0)
(0.335376 -0.0967909 0)
(0.343537 -0.091259 0)
(0.352717 -0.0863388 0)
(0.363088 -0.0767735 0)
(0.369798 -0.0636627 0)
(0.371744 -0.0442593 0)
(0.379713 -0.0220969 0)
(0.385731 -0.00791041 0)
(0.371453 0.00603476 0)
(0.361225 0.00945395 0)
(0.36421 -0.0269242 0)
(0.333742 -0.0814743 0)
(0.258026 -0.117418 0)
(0.170602 -0.126021 0)
(0.100465 -0.113514 0)
(0.0564035 -0.0902292 0)
(0.0327341 -0.0658088 0)
(0.0206341 -0.0446149 0)
(0.0147346 -0.0269685 0)
(0.0119229 -0.0119459 0)
(0.342419 -0.0990284 0)
(0.351472 -0.0936163 0)
(0.361461 -0.0889571 0)
(0.372086 -0.0790005 0)
(0.379251 -0.0650232 0)
(0.38281 -0.0457731 0)
(0.39105 -0.0235245 0)
(0.393564 -0.00608164 0)
(0.375339 0.00962089 0)
(0.36191 0.0111957 0)
(0.356755 -0.0214564 0)
(0.32104 -0.068334 0)
(0.248997 -0.101605 0)
(0.168753 -0.111279 0)
(0.104486 -0.101398 0)
(0.0625309 -0.0818849 0)
(0.0383177 -0.0609173 0)
(0.0250592 -0.0419906 0)
(0.0183063 -0.0256721 0)
(0.0149792 -0.0115036 0)
(0.349499 -0.101673 0)
(0.359479 -0.0963281 0)
(0.370202 -0.0918637 0)
(0.381027 -0.0814709 0)
(0.388576 -0.0667699 0)
(0.393569 -0.0475311 0)
(0.401854 -0.0245201 0)
(0.401028 -0.00346537 0)
(0.379615 0.0143591 0)
(0.362294 0.0146929 0)
(0.349277 -0.0151935 0)
(0.308757 -0.0539265 0)
(0.239354 -0.0802246 0)
(0.165833 -0.0906316 0)
(0.106951 -0.086683 0)
(0.0672681 -0.0729128 0)
(0.0432011 -0.0558015 0)
(0.0293315 -0.0391992 0)
(0.0220133 -0.0242693 0)
(0.0183016 -0.0110136 0)
(0.356541 -0.104452 0)
(0.367523 -0.0992414 0)
(0.378885 -0.0948834 0)
(0.389645 -0.0840057 0)
(0.397185 -0.068762 0)
(0.402821 -0.0494711 0)
(0.410457 -0.0250992 0)
(0.406478 4.14202e-05 0)
(0.382451 0.0200537 0)
(0.361298 0.019638 0)
(0.341058 -0.00707749 0)
(0.296101 -0.0390819 0)
(0.229186 -0.0620831 0)
(0.161938 -0.0739492 0)
(0.108197 -0.0739142 0)
(0.0709091 -0.064436 0)
(0.0473625 -0.0506692 0)
(0.0332448 -0.0362789 0)
(0.0255866 -0.0227634 0)
(0.0216025 -0.0104742 0)
(0.36355 -0.10742 0)
(0.375642 -0.102392 0)
(0.387334 -0.0979627 0)
(0.397257 -0.0864827 0)
(0.403795 -0.0707935 0)
(0.408792 -0.0513317 0)
(0.414995 -0.0250903 0)
(0.40822 0.00432539 0)
(0.382264 0.0265091 0)
(0.357783 0.0259912 0)
(0.331138 0.00248937 0)
(0.282573 -0.0241627 0)
(0.218399 -0.0446409 0)
(0.157098 -0.0581677 0)
(0.108276 -0.0619562 0)
(0.0735387 -0.0563625 0)
(0.0508251 -0.0456139 0)
(0.0367379 -0.0333063 0)
(0.0289133 -0.021194 0)
(0.0247424 -0.00989714 0)
(0.370583 -0.110566 0)
(0.383802 -0.105726 0)
(0.394942 -0.100881 0)
(0.402449 -0.0885674 0)
(0.406271 -0.0724678 0)
(0.409049 -0.0527684 0)
(0.413187 -0.024406 0)
(0.404378 0.00919149 0)
(0.377564 0.0335228 0)
(0.350624 0.0334755 0)
(0.318715 0.013194 0)
(0.267702 -0.00917603 0)
(0.206816 -0.0283958 0)
(0.151408 -0.0439163 0)
(0.107379 -0.0510435 0)
(0.0752912 -0.0487765 0)
(0.0536404 -0.0407082 0)
(0.0398001 -0.0303388 0)
(0.0319466 -0.0195941 0)
(0.0276559 -0.00929422 0)
(0.377758 -0.113905 0)
(0.391657 -0.109065 0)
(0.400317 -0.103179 0)
(0.402868 -0.0896891 0)
(0.401742 -0.0732665 0)
(0.400893 -0.0534688 0)
(0.402796 -0.0230993 0)
(0.393199 0.0143565 0)
(0.367015 0.0407897 0)
(0.338855 0.0417604 0)
(0.303162 0.0246949 0)
(0.251174 0.00555911 0)
(0.194395 -0.0134156 0)
(0.144981 -0.0311012 0)
(0.105661 -0.041141 0)
(0.076284 -0.0417125 0)
(0.0558663 -0.0360046 0)
(0.0424427 -0.0274193 0)
(0.0346711 -0.0179882 0)
(0.030315 -0.00867423 0)
(0.385129 -0.117405 0)
(0.398114 -0.111947 0)
(0.400979 -0.104082 0)
(0.395345 -0.0890938 0)
(0.387213 -0.0726878 0)
(0.382187 -0.0532744 0)
(0.382381 -0.021385 0)
(0.373561 0.0193976 0)
(0.349717 0.0479063 0)
(0.32182 0.0504572 0)
(0.284091 0.0365687 0)
(0.23288 0.0196814 0)
(0.181208 0.000165933 0)
(0.137956 -0.0197359 0)
(0.103269 -0.0322484 0)
(0.0766283 -0.0351972 0)
(0.057564 -0.0315428 0)
(0.0446879 -0.0245817 0)
(0.0370876 -0.0163958 0)
(0.0327123 -0.00804436 0)
(0.392315 -0.120833 0)
(0.400851 -0.113487 0)
(0.393407 -0.102549 0)
(0.376579 -0.08605 0)
(0.360678 -0.0704725 0)
(0.352392 -0.0522994 0)
(0.352032 -0.0196153 0)
(0.345459 0.0238583 0)
(0.325486 0.0544441 0)
(0.299331 0.059125 0)
(0.261446 0.048336 0)
(0.212931 0.0328372 0)
(0.167436 0.0121294 0)
(0.130498 -0.00983859 0)
(0.100347 -0.024356 0)
(0.076429 -0.029245 0)
(0.0587946 -0.0273516 0)
(0.0465637 -0.0218522 0)
(0.0392063 -0.0148329 0)
(0.0348511 -0.00741085 0)
(0.397807 -0.12348 0)
(0.396086 -0.112344 0)
(0.373688 -0.0975282 0)
(0.344409 -0.0802096 0)
(0.322397 -0.0668524 0)
(0.313262 -0.0509621 0)
(0.313623 -0.018177 0)
(0.310129 0.0273771 0)
(0.294942 0.0600498 0)
(0.271727 0.0673355 0)
(0.23555 0.0594856 0)
(0.191664 0.0446344 0)
(0.153353 0.0223137 0)
(0.122806 -0.00138915 0)
(0.097034 -0.0174416 0)
(0.0757847 -0.0238592 0)
(0.0596181 -0.0234499 0)
(0.0481014 -0.0192507 0)
(0.0410423 -0.0133124 0)
(0.036741 -0.00677921 0)
(0.398138 -0.123866 0)
(0.378973 -0.10695 0)
(0.338859 -0.0884338 0)
(0.299324 -0.072044 0)
(0.27559 -0.0627065 0)
(0.268509 -0.0498577 0)
(0.270194 -0.0173183 0)
(0.269641 0.0298061 0)
(0.259327 0.0645299 0)
(0.239811 0.0747283 0)
(0.207071 0.069527 0)
(0.169644 0.0546795 0)
(0.139311 0.0306385 0)
(0.115067 0.0055951 0)
(0.093453 -0.0114722 0)
(0.0747864 -0.0190325 0)
(0.0600922 -0.019848 0)
(0.0493333 -0.0167915 0)
(0.042614 -0.0118447 0)
(0.0383952 -0.00615419 0)
(0.387402 -0.119723 0)
(0.344865 -0.0960923 0)
(0.288691 -0.075746 0)
(0.245419 -0.0630143 0)
(0.225654 -0.0592642 0)
(0.22225 -0.049436 0)
(0.224694 -0.0170147 0)
(0.22615 0.0312431 0)
(0.220122 0.0678646 0)
(0.204693 0.0810263 0)
(0.176963 0.0780113 0)
(0.147594 0.0626412 0)
(0.125679 0.0370258 0)
(0.107462 0.0111591 0)
(0.0897344 -0.00639976 0)
(0.073518 -0.0147485 0)
(0.0602715 -0.0165488 0)
(0.0502923 -0.0144838 0)
(0.0439414 -0.0104377 0)
(0.0398286 -0.00553987 0)
(0.357774 -0.10857 0)
(0.291463 -0.0797941 0)
(0.227281 -0.061348 0)
(0.189701 -0.0551296 0)
(0.177763 -0.0573505 0)
(0.177176 -0.049631 0)
(0.178994 -0.0169841 0)
(0.181315 0.0319439 0)
(0.178744 0.0701408 0)
(0.16765 0.0860074 0)
(0.146383 0.0845435 0)
(0.126312 0.0682843 0)
(0.112813 0.0414869 0)
(0.10015 0.0154414 0)
(0.0859785 -0.00215774 0)
(0.0720546 -0.0109824 0)
(0.0602069 -0.0135492 0)
(0.0510104 -0.0123324 0)
(0.0450448 -0.00909692 0)
(0.0410568 -0.00493961 0)
(0.301799 -0.0889832 0)
(0.221619 -0.0601234 0)
(0.163228 -0.0482314 0)
(0.139201 -0.0500118 0)
(0.134493 -0.0568458 0)
(0.134015 -0.0498787 0)
(0.133876 -0.0168745 0)
(0.13625 0.0321718 0)
(0.136479 0.0714521 0)
(0.130078 0.0894601 0)
(0.11662 0.0887957 0)
(0.106573 0.0714983 0)
(0.101 0.0441271 0)
(0.0932572 0.0185546 0)
(0.0822719 0.00132399 0)
(0.0704618 -0.0077031 0)
(0.0599454 -0.0108404 0)
(0.0515183 -0.0103382 0)
(0.0459449 -0.00782606 0)
(0.0420956 -0.00435611 0)
(0.217682 -0.0625231 0)
(0.145783 -0.0414776 0)
(0.106784 -0.0393491 0)
(0.0974273 -0.0478941 0)
(0.0956393 -0.0568095 0)
(0.09259 -0.0495492 0)
(0.0897776 -0.0164627 0)
(0.0918745 0.0320594 0)
(0.0946182 0.0718105 0)
(0.0934997 0.0911551 0)
(0.088994 0.0905342 0)
(0.0890138 0.0723218 0)
(0.0904252 0.0451363 0)
(0.0868704 0.0206411 0)
(0.0786852 0.00411342 0)
(0.0687972 -0.00487551 0)
(0.0595291 -0.00840958 0)
(0.051845 -0.008499 0)
(0.0466616 -0.00662678 0)
(0.0429603 -0.00379136 0)
(0.118375 -0.0360842 0)
(0.0803764 -0.0293626 0)
(0.0641819 -0.0356357 0)
(0.0635576 -0.0474581 0)
(0.0601288 -0.0561782 0)
(0.0530835 -0.0482865 0)
(0.0474457 -0.0157044 0)
(0.0492826 0.0315944 0)
(0.0546284 0.0711048 0)
(0.0595565 0.0908473 0)
(0.0647072 0.0896638 0)
(0.0740338 0.0709545 0)
(0.0811623 0.0447684 0)
(0.0810398 0.0218541 0)
(0.0752731 0.00629359 0)
(0.0671117 -0.00246054 0)
(0.0589962 -0.00624019 0)
(0.0520174 -0.00680992 0)
(0.0472138 -0.00549908 0)
(0.0436659 -0.00324679 0)
(0.0352475 -0.0208351 0)
(0.0370385 -0.0261606 0)
(0.034359 -0.0351992 0)
(0.0351063 -0.0470276 0)
(0.0276419 -0.0543751 0)
(0.0164085 -0.0460268 0)
(0.00811767 -0.0147319 0)
(0.00989207 0.0306664 0)
(0.0181925 0.0691691 0)
(0.0298817 0.0883541 0)
(0.0446308 0.0862838 0)
(0.0617415 0.0677415 0)
(0.0731905 0.0433074 0)
(0.075788 0.0223449 0)
(0.0720768 0.00795022 0)
(0.0654454 -0.000413087 0)
(0.0583798 -0.004313 0)
(0.0520601 -0.00526368 0)
(0.0476195 -0.00444137 0)
(0.0442261 -0.00272326 0)
(-0.00856816 -0.0190339 0)
(0.0129049 -0.028543 0)
(0.0127094 -0.0353887 0)
(0.0105649 -0.0456628 0)
(-0.00127181 -0.0513527 0)
(-0.0161646 -0.04296 0)
(-0.0266489 -0.0135189 0)
(-0.0245968 0.0292309 0)
(-0.0129613 0.0657833 0)
(0.00579659 0.0836721 0)
(0.0291008 0.0807225 0)
(0.0519766 0.0631235 0)
(0.0664239 0.0410319 0)
(0.0711156 0.0222527 0)
(0.0691269 0.00915565 0)
(0.0638319 0.00130036 0)
(0.0577076 -0.00260726 0)
(0.0519953 -0.00385123 0)
(0.0478951 -0.00345072 0)
(0.0446541 -0.00222113 0)
(-0.0190552 -0.0222784 0)
(-0.000671113 -0.0314474 0)
(-0.00399869 -0.0347024 0)
(-0.0103484 -0.043156 0)
(-0.0258697 -0.0473581 0)
(-0.0434433 -0.0392337 0)
(-0.0553768 -0.0120353 0)
(-0.0526365 0.0272475 0)
(-0.0373886 0.0608871 0)
(-0.0120058 0.0769669 0)
(0.01786 0.0735157 0)
(0.0444033 0.0575615 0)
(0.0607453 0.038185 0)
(0.0670098 0.0216978 0)
(0.0664416 0.0099772 0)
(0.0622981 0.00271792 0)
(0.0570064 -0.0011006 0)
(0.0518428 -0.00256186 0)
(0.0480557 -0.0025242 0)
(0.0449615 -0.00173921 0)
(-0.0062918 -0.0220725 0)
(-0.00970187 -0.0314349 0)
(-0.0185332 -0.0325774 0)
(-0.0292581 -0.0392926 0)
(-0.0476768 -0.0421995 0)
(-0.0669169 -0.0345642 0)
(-0.0793716 -0.0102578 0)
(-0.0752454 0.0244551 0)
(-0.0560332 0.0540163 0)
(-0.0247788 0.0677171 0)
(0.00954773 0.0643766 0)
(0.038068 0.0508291 0)
(0.0555668 0.03463 0)
(0.0630957 0.0206855 0)
(0.063794 0.010524 0)
(0.0607226 0.00400069 0)
(0.0562254 0.000361406 0)
(0.051597 -0.00126483 0)
(0.0481207 -0.00157355 0)
(0.0451789 -0.00122754 0)
(-0.00338423 -0.0186492 0)
(-0.0167917 -0.0276424 0)
(-0.0304729 -0.028755 0)
(-0.0444732 -0.0340718 0)
(-0.0644556 -0.036098 0)
(-0.08389 -0.0293788 0)
(-0.0955993 -0.00872058 0)
(-0.0894477 0.0202922 0)
(-0.0667987 0.0448843 0)
(-0.0318806 0.0561794 0)
(0.00418681 0.0537004 0)
(0.0331207 0.0431722 0)
(0.0511259 0.0304296 0)
(0.059578 0.0191974 0)
(0.0613208 0.0107521 0)
(0.0591775 0.00510203 0)
(0.0553886 0.00173944 0)
(0.0512487 1.52513e-05 0)
(0.048064 -0.000613917 0)
(0.0452721 -0.000691548 0)
(-0.00381066 -0.0149832 0)
(-0.0220686 -0.0222539 0)
(-0.0390537 -0.0239258 0)
(-0.0549378 -0.0283415 0)
(-0.0752478 -0.029959 0)
(-0.0936431 -0.0244662 0)
(-0.103643 -0.00778444 0)
(-0.0953858 0.0152814 0)
(-0.0706497 0.0349085 0)
(-0.0345864 0.044219 0)
(0.00122736 0.0429891 0)
(0.0296732 0.0355158 0)
(0.0477477 0.0260711 0)
(0.0567763 0.0174441 0)
(0.0592683 0.0107026 0)
(0.0578256 0.0059689 0)
(0.05459 0.00294152 0)
(0.0508419 0.00117834 0)
(0.0478968 0.000281102 0)
(0.0452351 -0.000179022 0)
(-0.00488888 -0.0104222 0)
(-0.0257825 -0.01591 0)
(-0.0448223 -0.0184777 0)
(-0.0615984 -0.0224363 0)
(-0.0815219 -0.0240712 0)
(-0.0982851 -0.0200882 0)
(-0.106206 -0.00755659 0)
(-0.0961568 0.00973487 0)
(-0.0705732 0.0247541 0)
(-0.0349273 0.0324504 0)
(-0.000226851 0.032574 0)
(0.0274112 0.0280023 0)
(0.0453233 0.0216545 0)
(0.0546585 0.0155191 0)
(0.0576372 0.0104553 0)
(0.0566809 0.00666124 0)
(0.0538458 0.00401145 0)
(0.0503919 0.00224885 0)
(0.0476331 0.00112292 0)
(0.045079 0.000312056 0)
(-0.00574431 -0.00518993 0)
(-0.02808 -0.00900156 0)
(-0.0482757 -0.0127004 0)
(-0.0653586 -0.016543 0)
(-0.0847063 -0.018534 0)
(-0.0998901 -0.0162774 0)
(-0.105941 -0.007932 0)
(-0.0945974 0.00394462 0)
(-0.0688988 0.0147612 0)
(-0.0342002 0.0210817 0)
(-0.000695874 0.0225259 0)
(0.0261426 0.0206714 0)
(0.0437775 0.0172444 0)
(0.0531986 0.0135026 0)
(0.056425 0.0100851 0)
(0.0557513 0.00723772 0)
(0.0531671 0.00498903 0)
(0.0499094 0.00325428 0)
(0.047282 0.0019245 0)
(0.0448121 0.000785832 0)
(-0.00615098 0.000402066 0)
(-0.0290514 -0.00180366 0)
(-0.049721 -0.00678169 0)
(-0.0668123 -0.0107167 0)
(-0.0857889 -0.013286 0)
(-0.099948 -0.0129126 0)
(-0.104755 -0.00874122 0)
(-0.0926266 -0.00198031 0)
(-0.0670082 0.0049827 0)
(-0.0330729 0.0100697 0)
(-0.000440801 0.0127851 0)
(0.0257613 0.0135141 0)
(0.0430617 0.0128872 0)
(0.052376 0.0114658 0)
(0.0556266 0.00966252 0)
(0.0550395 0.00775508 0)
(0.0525598 0.0059138 0)
(0.0494009 0.00421884 0)
(0.0468497 0.00269838 0)
(0.0444396 0.00124692 0)
(-0.00613818 0.00606694 0)
(-0.0286917 0.00545121 0)
(-0.0491815 -0.000850208 0)
(-0.0660863 -0.00492878 0)
(-0.0850915 -0.00816007 0)
(-0.0990748 -0.009776 0)
(-0.103542 -0.00977563 0)
(-0.0911423 -0.00799697 0)
(-0.0654933 -0.00469659 0)
(-0.0318165 -0.000742496 0)
(0.00043044 0.00324062 0)
(0.0262174 0.0065023 0)
(0.0431488 0.00862018 0)
(0.052176 0.00947489 0)
(0.0552349 0.00925499 0)
(0.054543 0.00826842 0)
(0.0520241 0.00682481 0)
(0.0488683 0.0051669 0)
(0.0463386 0.00345689 0)
(0.0439641 0.00169918 0)
(-0.00595463 0.0114989 0)
(-0.0268653 0.0124858 0)
(-0.0463577 0.00493864 0)
(-0.0627855 0.000859596 0)
(-0.0821809 -0.00293528 0)
(-0.0968986 -0.00658142 0)
(-0.102087 -0.010789 0)
(-0.0901282 -0.0140357 0)
(-0.0644123 -0.0144142 0)
(-0.0304639 -0.0115446 0)
(0.0019022 -0.00623783 0)
(0.0275016 -0.00039861 0)
(0.0440298 0.00447814 0)
(0.0525889 0.00759465 0)
(0.055241 0.00892893 0)
(0.054255 0.00883216 0)
(0.0515557 0.00776065 0)
(0.0483092 0.00612281 0)
(0.0457478 0.00421212 0)
(0.0433854 0.00214674 0)
(-0.00634941 0.0164476 0)
(-0.023271 0.0189203 0)
(-0.0406476 0.0103612 0)
(-0.0560283 0.0066187 0)
(-0.0759105 0.00253509 0)
(-0.0920764 -0.00300373 0)
(-0.0990433 -0.0114819 0)
(-0.0885844 -0.0199807 0)
(-0.0632828 -0.0242401 0)
(-0.0288516 -0.0225036 0)
(0.00403546 -0.0157717 0)
(0.0296421 -0.00722033 0)
(0.0457133 0.000496886 0)
(0.0536102 0.005891 0)
(0.0556342 0.00875109 0)
(0.0541638 0.00950033 0)
(0.0511449 0.00875922 0)
(0.0477167 0.00711037 0)
(0.045073 0.00497564 0)
(0.0427004 0.00259374 0)
(-0.00956671 0.0215715 0)
(-0.0172728 0.024122 0)
(-0.0312159 0.0151147 0)
(-0.0446404 0.0122267 0)
(-0.0646111 0.00832326 0)
(-0.082452 0.00117987 0)
(-0.0919919 -0.0114617 0)
(-0.0843564 -0.0254735 0)
(-0.0608283 -0.0340317 0)
(-0.026487 -0.0336658 0)
(0.00700058 -0.0254361 0)
(0.0327077 -0.0139785 0)
(0.0482253 -0.00327817 0)
(0.0552404 0.00443296 0)
(0.0564013 0.00878817 0)
(0.0542528 0.0103252 0)
(0.0507772 0.00985626 0)
(0.0470796 0.00815094 0)
(0.0443066 0.00575872 0)
(0.0419037 0.00304266 0)
(-0.0215697 0.0232965 0)
(-0.00845252 0.025709 0)
(-0.0185072 0.0184522 0)
(-0.0292823 0.0168583 0)
(-0.0484924 0.0137174 0)
(-0.0673794 0.00552942 0)
(-0.0793513 -0.0104418 0)
(-0.0753108 -0.0294 0)
(-0.0553432 -0.0422383 0)
(-0.0227568 -0.0435897 0)
(0.010706 -0.034134 0)
(0.0363785 -0.0199252 0)
(0.0512437 -0.00640111 0)
(0.0572398 0.00342381 0)