x,y,z,U_0,U_1,U_2
0,0,0,0.3,8.97794e-06,0
0,0.1,0,0.3,6.41282e-06,0
0,0.2,0,0.3,3.84769e-06,0
0,0.3,0,0.3,1.28256e-06,0
0,0.4,0,0.3,0,0
0,0.5,0,0.3,0,0
0,0.6,0,0.3,0,0
0,0.7,0,0.3,-2.17148e-20,0
0,0.8,0,0.3,0,0
0,0.9,0,0.3,0,0
0,1,0,0.3,0,0
0,1.1,0,0.3,0,0
0,1.2,0,0.3,0,0
0,1.3,0,0.3,0,0
0,1.4,0,0.3,0,0
0,1.5,0,0.3,0,0
0,1.6,0,0.3,0,0
0,1.7,0,0.3,0,0
0,1.8,0,0.3,0,0
0,1.9,0,0.3,0,0
0,2,0,0.3,0,0
0,2.1,0,0.3,0,0
0,2.2,0,0.3,0,0
0,2.3,0,0.3,0,0
0,2.4,0,0.3,0,0
0,2.5,0,0.3,0,0
0,2.6,0,0.3,0,0
0,2.7,0,0.3,0,0
0,2.8,0,0.3,0,0
0,2.9,0,0.3,0,0
0,3,0,0.3,0,0
0,3.1,0,0.3,0,0
0,3.2,0,0.3,0,0
0,3.3,0,0.3,0,0
0,3.4,0,0.3,0,0
0,3.5,0,0.3,0,0
0,3.6,0,0.3,0,0
0,3.7,0,0.3,0,0
0,3.8,0,0.3,0,0
0,3.9,0,0.3,0,0
0,4,0,0.3,0,0
0,4.1,0,0.3,0,0
0,4.2,0,0.3,0,0
0,4.3,0,0.3,0,0
0,4.4,0,0.3,0,0
0,4.5,0,0.3,0,0
0,4.6,0,0.3,0,0
0,4.7,0,0.3,0,0
0,4.8,0,0.3,0,0
0,4.9,0,0.3,-1.20703e-20,0
0,5,0,0.3,0,0
0,5.1,0,0.3,0,0
0,5.2,0,0.3,0,0
0,5.3,0,0.3,0,0
0,5.4,0,0.3,0,0
0,5.5,0,0.3,0,0
0,5.6,0,0.3,-6.97927e-21,0
0,5.7,0,0.3,0,0
0,5.8,0,0.3,0,0
0,5.9,0,0.3,0,0
0,6,0,0.3,0,0
0,6.1,0,0.3,0,0
0,6.2,0,0.3,0,0
0,6.3,0,0.3,-7.78747e-22,0
0,6.4,0,0.3,0,0
0,6.5,0,0.3,0,0
0,6.6,0,0.3,0,0
0,6.7,0,0.3,0,0
0,6.8,0,0.3,0,0
0,6.9,0,0.3,0,0
0,7,0,0.3,0,0
0,7.1,0,0.3,0,0
0,7.2,0,0.3,5.93703e-21,0
0,7.3,0,0.3,6.22709e-21,0
0,7.4,0,0.3,6.52402e-21,0
0,7.5,0,0.3,0,0
0,7.6,0,0.3,7.12319e-21,0
0,7.7,0,0.3,0,0
0,7.8,0,0.3,7.72264e-21,0
0,7.9,0,0.3,0,0
0,8,0,0.3,0,0
0,8.1,0,0.3,0,0
0,8.2,0,0.3,0,0
0,8.3,0,0.3,0,0
0,8.4,0,0.3,0,0
0,8.5,0,0.3,0,0
0,8.6,0,0.3,0,0
0,8.7,0,0.3,0,0
0,8.8,0,0.3,0,0
0,8.9,0,0.3,0,0
0,9,0,0.3,0,0
0,9.1,0,0.3,0,0
0,9.2,0,0.3,0,0
0,9.3,0,0.3,0,0
0,9.4,0,0.3,0,0
0,9.5,0,0.3,0,0
0,9.6,0,0.3,0,0
0,9.7,0,0.3,0,0
0,9.8,0,0.3,0,0
0,9.9,0,0.3,0,0
0,10,0,0.3,0,0
0,10.1,0,0.3,0,0
0,10.2,0,0.3,0,0
0,10.3,0,0.3,0,0
0,10.4,0,0.3,0,0
0,10.5,0,0.3,0,0
0,10.6,0,0.3,0,0
0,10.7,0,0.3,0,0
0,10.8,0,0.3,0,0
0,10.9,0,0.3,0,0
0,11,0,0.3,0,0
0,11.1,0,0.3,0,0
0,11.2,0,0.3,0,0
0,11.3,0,0.3,0,0
0,11.4,0,0.3,0,0
0,11.5,0,0.3,0,0
0,11.6,0,0.3,0,0
0,11.7,0,0.3,0,0
0,11.8,0,0.3,0,0
0,11.9,0,0.3,0,0
0,12,0,0.3,0,0
0,12.1,0,0.3,0,0
0,12.2,0,0.3,0,0
0,12.3,0,0.3,0,0
0,12.4,0,0.3,0,0
0,12.5,0,0.3,-1.60379e-05,0
0,12.6,0,0.300001,-6.18606e-05,0
0,12.7,0,0.300002,-0.000107683,0
0.1,0,0,0.299999,-1.26318e-05,0
0.1,0.1,0,0.3,9.81853e-06,0
0.1,0.2,0,0.3,7.2534e-06,0
0.1,0.3,0,0.3,4.68827e-06,0
0.1,0.4,0,0.299999,5.28884e-06,0
0.1,0.5,0,0.299999,5.28884e-06,0
0.1,0.6,0,0.299999,5.28884e-06,0
0.1,0.7,0,0.299999,-2.05883e-05,0
0.1,0.8,0,0.299998,6.84975e-06,0
0.1,0.9,0,0.299998,6.84975e-06,0
0.1,1,0,0.299998,6.84975e-06,0
0.1,1.1,0,0.299997,9.06777e-06,0
0.1,1.2,0,0.299997,9.06777e-06,0
0.1,1.3,0,0.299997,9.06777e-06,0
0.1,1.4,0,0.299998,-2.03021e-05,0
0.1,1.5,0,0.299997,1.18273e-05,0
0.1,1.6,0,0.299997,1.18273e-05,0
0.1,1.7,0,0.299997,1.18273e-05,0
0.1,1.8,0,0.299996,1.49736e-05,0
0.1,1.9,0,0.299996,1.49736e-05,0
0.1,2,0,0.299996,1.49736e-05,0
0.1,2.1,0,0.299998,-1.97443e-05,0
0.1,2.2,0,0.299996,1.83282e-05,0
0.1,2.3,0,0.299996,1.83282e-05,0
0.1,2.4,0,0.299996,1.83282e-05,0
0.1,2.5,0,0.299995,2.16851e-05,0
0.1,2.6,0,0.299995,2.16851e-05,0
0.1,2.7,0,0.299995,2.16851e-05,0
0.1,2.8,0,0.299998,-1.87923e-05,0
0.1,2.9,0,0.299994,2.48133e-05,0
0.1,3,0,0.299994,2.48133e-05,0
0.1,3.1,0,0.299994,2.48133e-05,0
0.1,3.2,0,0.299993,2.74566e-05,0
0.1,3.3,0,0.299993,2.74566e-05,0
0.1,3.4,0,0.299993,2.74566e-05,0
0.1,3.5,0,0.299998,-1.72746e-05,0
0.1,3.6,0,0.299992,2.93335e-05,0
0.1,3.7,0,0.299992,2.93335e-05,0
0.1,3.8,0,0.299992,2.93335e-05,0
0.1,3.9,0,0.29999,3.01354e-05,0
0.1,4,0,0.29999,3.01354e-05,0
0.1,4.1,0,0.29999,3.01354e-05,0
0.1,4.2,0,0.3,-1.49353e-05,0
0.1,4.3,0,0.299987,2.95484e-05,0
0.1,4.4,0,0.299987,2.95484e-05,0
0.1,4.5,0,0.299987,2.95484e-05,0
0.1,4.6,0,0.299984,2.73126e-05,0
0.1,4.7,0,0.299984,2.73126e-05,0
0.1,4.8,0,0.299984,2.73126e-05,0
0.1,4.9,0,0.300002,-1.14442e-05,0
0.1,5,0,0.299983,2.33006e-05,0
0.1,5.1,0,0.299983,2.33006e-05,0
0.1,5.2,0,0.299983,2.33006e-05,0
0.1,5.3,0,0.299985,1.76388e-05,0
0.1,5.4,0,0.299985,1.76388e-05,0
0.1,5.5,0,0.299985,1.76388e-05,0
0.1,5.6,0,0.300003,-6.61723e-06,0
0.1,5.7,0,0.299995,1.07966e-05,0
0.1,5.8,0,0.299995,1.07966e-05,0
0.1,5.9,0,0.299995,1.07966e-05,0
0.1,6,0,0.300011,3.49941e-06,0
0.1,6.1,0,0.300011,3.49941e-06,0
0.1,6.2,0,0.300011,3.49941e-06,0
0.1,6.3,0,0.300001,-7.3835e-07,0
0.1,6.4,0,0.300032,-2.66051e-06,0
0.1,6.5,0,0.300032,-2.66051e-06,0
0.1,6.6,0,0.300032,-2.66051e-06,0
0.1,6.7,0,0.300053,-8.18196e-06,0
0.1,6.8,0,0.300053,-8.18196e-06,0
0.1,6.9,0,0.300053,-8.18196e-06,0
0.1,7,0,0.299997,4.66744e-06,0
0.1,7.1,0,0.299996,5.34241e-06,0
0.1,7.2,0,0.299995,5.62905e-06,0
0.1,7.3,0,0.299995,5.90406e-06,0
0.1,7.4,0,0.299995,6.1856e-06,0
0.1,7.5,0,0.299995,6.46927e-06,0
0.1,7.6,0,0.299995,6.75368e-06,0
0.1,7.7,0,0.299995,7.03826e-06,0
0.1,7.8,0,0.299996,7.32204e-06,0
0.1,7.9,0,0.299996,7.62209e-06,0
0.1,8,0,0.299997,8.12204e-06,0
0.1,8.1,0,0.300047,-4.98592e-07,0
0.1,8.2,0,0.300047,-4.98592e-07,0
0.1,8.3,0,0.30003,-2.25358e-06,0
0.1,8.4,0,0.30003,-2.25358e-06,0
0.1,8.5,0,0.300011,-4.90648e-06,0
0.1,8.6,0,0.300011,-4.90648e-06,0
0.1,8.7,0,0.300005,8.80868e-06,0
0.1,8.8,0,0.299993,-8.56444e-06,0
0.1,8.9,0,0.299993,-8.56444e-06,0
0.1,9,0,0.299979,-1.3028e-05,0
0.1,9.1,0,0.299979,-1.3028e-05,0
0.1,9.2,0,0.299968,-1.79932e-05,0
0.1,9.3,0,0.299968,-1.79932e-05,0
0.1,9.4,0,0.299991,2.78434e-06,0
0.1,9.5,0,0.299962,-2.31366e-05,0
0.1,9.6,0,0.299962,-2.31366e-05,0
0.1,9.7,0,0.29996,-2.81651e-05,0
0.1,9.8,0,0.29996,-2.81651e-05,0
0.1,9.9,0,0.29997,-2.28038e-05,0
0.1,10,0,0.299962,-3.2848e-05,0
0.1,10.1,0,0.299979,-1.17353e-05,0
0.1,10.2,0,0.299966,-3.7036e-05,0
0.1,10.3,0,0.299966,-3.7036e-05,0
0.1,10.4,0,0.299972,-4.06575e-05,0
0.1,10.5,0,0.299972,-4.06575e-05,0
0.1,10.6,0,0.299988,-1.75352e-05,0
0.1,10.7,0,0.299978,-4.37057e-05,0
0.1,10.8,0,0.299983,-3.08178e-05,0
0.1,10.9,0,0.299984,-4.62154e-05,0
0.1,11,0,0.299984,-4.62154e-05,0
0.1,11.1,0,0.299988,-4.82429e-05,0
0.1,11.2,0,0.299988,-4.82429e-05,0
0.1,11.3,0,0.299998,-5.31308e-06,0
0.1,11.4,0,0.299993,-4.98476e-05,0
0.1,11.5,0,0.299993,-4.98476e-05,0
0.1,11.6,0,0.299996,-5.10829e-05,0
0.1,11.7,0,0.299996,-5.10829e-05,0
0.1,11.8,0,0.299998,-5.19916e-05,0
0.1,11.9,0,0.299998,-5.19916e-05,0
0.1,12,0,0.3,1.02202e-05,0
0.1,12.1,0,0.3,-5.26051e-05,0
0.1,12.2,0,0.3,-5.26051e-05,0
0.1,12.3,0,0.300001,-5.29566e-05,0
0.1,12.4,0,0.300001,-5.29566e-05,0
0.1,12.5,0,0.300001,-5.7813e-05,0
0.1,12.6,0,0.300002,-0.000103636,0
0.1,12.7,0,0.300002,-6.98269e-05,0
0.2,0,0,0.299999,-3.42415e-05,0
0.2,0.1,0,0.299999,1.32242e-05,0
0.2,0.2,0,0.299999,1.06591e-05,0
0.2,0.3,0,0.299999,-7.36908e-06,0
0.2,0.4,0,0.299998,-6.09596e-06,0
0.2,0.5,0,0.299998,1.05777e-05,0
0.2,0.6,0,0.299998,1.05777e-05,0
0.2,0.7,0,0.299998,-4.11767e-05,0
0.2,0.8,0,0.299997,1.36995e-05,0
0.2,0.9,0,0.299997,1.36995e-05,0
0.2,1,0,0.299997,-3.86589e-06,0
0.2,1.1,0,0.299996,-8.55715e-07,0
0.2,1.2,0,0.299995,1.81355e-05,0
0.2,1.3,0,0.299995,1.81355e-05,0
0.2,1.4,0,0.299996,-4.06042e-05,0
0.2,1.5,0,0.299994,2.36545e-05,0
0.2,1.6,0,0.299994,2.36545e-05,0
0.2,1.7,0,0.299994,3.1531e-06,0
0.2,1.8,0,0.299994,7.4231e-06,0
0.2,1.9,0,0.299992,2.99472e-05,0
0.2,2,0,0.299992,2.99472e-05,0
0.2,2.1,0,0.299995,-3.94885e-05,0
0.2,2.2,0,0.299991,3.66563e-05,0
0.2,2.3,0,0.299991,3.66563e-05,0
0.2,2.4,0,0.299992,1.24496e-05,0
0.2,2.5,0,0.299992,1.70053e-05,0
0.2,2.6,0,0.29999,4.33701e-05,0
0.2,2.7,0,0.29999,4.33701e-05,0
0.2,2.8,0,0.299995,-3.75846e-05,0
0.2,2.9,0,0.299989,4.96265e-05,0
0.2,3,0,0.299989,4.96265e-05,0
0.2,3.1,0,0.299991,2.20281e-05,0
0.2,3.2,0,0.29999,2.56156e-05,0
0.2,3.3,0,0.299987,5.49133e-05,0
0.2,3.4,0,0.299987,5.49133e-05,0
0.2,3.5,0,0.299997,-3.45492e-05,0
0.2,3.6,0,0.299984,5.86669e-05,0
0.2,3.7,0,0.299984,5.86669e-05,0
0.2,3.8,0,0.299988,2.93772e-05,0
0.2,3.9,0,0.299985,3.04655e-05,0
0.2,4,0,0.299979,6.02707e-05,0
0.2,4.1,0,0.299979,6.02707e-05,0
0.2,4.2,0,0.299999,-2.98706e-05,0
0.2,4.3,0,0.299973,5.90968e-05,0
0.2,4.4,0,0.299973,5.90968e-05,0
0.2,4.5,0,0.299982,3.15182e-05,0
0.2,4.6,0,0.299979,2.84839e-05,0
0.2,4.7,0,0.299968,5.46253e-05,0
0.2,4.8,0,0.299968,5.46253e-05,0
0.2,4.9,0,0.300004,-2.28884e-05,0
0.2,5,0,0.299965,4.66013e-05,0
0.2,5.1,0,0.299965,4.66013e-05,0
0.2,5.2,0,0.299978,2.57107e-05,0
0.2,5.3,0,0.299982,1.80268e-05,0
0.2,5.4,0,0.299971,3.52776e-05,0
0.2,5.5,0,0.299971,3.52776e-05,0
0.2,5.6,0,0.300006,-1.32345e-05,0
0.2,5.7,0,0.299989,2.15933e-05,0
0.2,5.8,0,0.299989,2.15933e-05,0
0.2,5.9,0,0.299994,1.22319e-05,0
0.2,6,0,0.300016,2.32851e-06,0
0.2,6.1,0,0.300021,6.99882e-06,0
0.2,6.2,0,0.300021,6.99882e-06,0
0.2,6.3,0,0.300002,-1.4767e-06,0
0.2,6.4,0,0.300064,-5.32101e-06,0
0.2,6.5,0,0.300064,-5.32101e-06,0
0.2,6.6,0,0.300043,-2.02477e-06,0
0.2,6.7,0,0.300072,-9.51817e-06,0
0.2,6.8,0,0.300107,-1.63639e-05,0
0.2,6.9,0,0.300107,-1.63639e-05,0
0.2,7,0,0.299994,9.33488e-06,0
0.2,7.1,0,0.299992,1.06848e-05,0
0.2,7.2,0,0.299991,1.12581e-05,0
0.2,7.3,0,0.29999,1.18081e-05,0
0.2,7.4,0,0.29999,1.23712e-05,0
0.2,7.5,0,0.29999,1.29385e-05,0
0.2,7.6,0,0.29999,1.35074e-05,0
0.2,7.7,0,0.29999,1.40765e-05,0
0.2,7.8,0,0.299991,1.46441e-05,0
0.2,7.9,0,0.299992,1.52442e-05,0
0.2,8,0,0.299994,1.62441e-05,0
0.2,8.1,0,0.300094,-9.97183e-07,0
0.2,8.2,0,0.300066,4.67583e-06,0
0.2,8.3,0,0.300059,-4.50716e-06,0
0.2,8.4,0,0.300059,-4.50716e-06,0
0.2,8.5,0,0.300014,2.48442e-06,0
0.2,8.6,0,0.300022,-9.81297e-06,0
0.2,8.7,0,0.300007,2.10919e-05,0
0.2,8.8,0,0.299987,-1.71289e-05,0
0.2,8.9,0,0.299991,-8.5474e-06,0
0.2,9,0,0.299958,-2.6056e-05,0
0.2,9.1,0,0.299958,-2.6056e-05,0
0.2,9.2,0,0.299973,-2.96174e-06,0
0.2,9.3,0,0.299936,-3.59864e-05,0
0.2,9.4,0,0.299997,1.96677e-05,0
0.2,9.5,0,0.299925,-4.62733e-05,0
0.2,9.6,0,0.299933,-3.87798e-05,0
0.2,9.7,0,0.299921,-5.63301e-05,0
0.2,9.8,0,0.299921,-5.63301e-05,0
0.2,9.9,0,0.299976,-3.19897e-06,0
0.2,10,0,0.299924,-6.5696e-05,0
0.2,10.1,0,0.299984,9.05428e-06,0
0.2,10.2,0,0.299933,-7.4072e-05,0
0.2,10.3,0,0.299933,-7.4072e-05,0
0.2,10.4,0,0.299944,-8.13149e-05,0
0.2,10.5,0,0.299944,-8.13149e-05,0
0.2,10.6,0,0.299991,5.24619e-06,0
0.2,10.7,0,0.299956,-8.74114e-05,0
0.2,10.8,0,0.299985,-7.22031e-06,0
0.2,10.9,0,0.299967,-9.24307e-05,0
0.2,11,0,0.299967,-9.24307e-05,0
0.2,11.1,0,0.299979,-8.33657e-05,0
0.2,11.2,0,0.299977,-9.64859e-05,0
0.2,11.3,0,0.299999,1.95937e-05,0
0.2,11.4,0,0.299985,-9.96952e-05,0
0.2,11.5,0,0.299994,-2.52367e-05,0
0.2,11.6,0,0.299992,-0.000102166,0
0.2,11.7,0,0.299992,-0.000102166,0
0.2,11.8,0,0.299997,-7.41826e-05,0
0.2,11.9,0,0.299996,-0.000103983,0
0.2,12,0,0.300001,3.63562e-05,0
0.2,12.1,0,0.3,-0.00010521,0
0.2,12.2,0,0.3,-4.30495e-05,0
0.2,12.3,0,0.300001,-0.000105913,0
0.2,12.4,0,0.300001,-0.000105913,0
0.2,12.5,0,0.300001,-5.96507e-05,0
0.2,12.6,0,0.300003,-0.000145411,0
0.2,12.7,0,0.300002,-3.19705e-05,0
0.3,0,0,0.299999,-5.58512e-05,0
0.3,0.1,0,0.299999,9.48268e-06,0
0.3,0.2,0,0.299999,1.40648e-05,0
0.3,0.3,0,0.299999,-2.8017e-05,0
0.3,0.4,0,0.299998,-2.67439e-05,0
0.3,0.5,0,0.299997,1.58665e-05,0
0.3,0.6,0,0.299997,8.47305e-06,0
0.3,0.7,0,0.299997,-6.1765e-05,0
0.3,0.8,0,0.299995,1.27098e-05,0
0.3,0.9,0,0.299995,2.05492e-05,0
0.3,1,0,0.299995,-2.43401e-05,0
0.3,1.1,0,0.299994,-2.13299e-05,0
0.3,1.2,0,0.299992,2.72033e-05,0
0.3,1.3,0,0.299993,1.88119e-05,0
0.3,1.4,0,0.299995,-6.09064e-05,0
0.3,1.5,0,0.299991,2.6302e-05,0
0.3,1.6,0,0.299991,3.54818e-05,0
0.3,1.7,0,0.299992,-1.69107e-05,0
0.3,1.8,0,0.299991,-1.26407e-05,0
0.3,1.9,0,0.299989,4.49207e-05,0
0.3,2,0,0.299989,3.50014e-05,0
0.3,2.1,0,0.299993,-5.92328e-05,0
0.3,2.2,0,0.299987,4.41067e-05,0
0.3,2.3,0,0.299987,5.49845e-05,0
0.3,2.4,0,0.29999,-6.87722e-06,0
0.3,2.5,0,0.299989,-2.32145e-06,0
0.3,2.6,0,0.299985,6.50552e-05,0
0.3,2.7,0,0.299986,5.34902e-05,0
0.3,2.8,0,0.299993,-5.63769e-05,0
0.3,2.9,0,0.299984,6.19811e-05,0
0.3,3,0,0.299983,7.44398e-05,0
0.3,3.1,0,0.299989,3.91055e-06,0
0.3,3.2,0,0.299988,7.49798e-06,0
0.3,3.3,0,0.29998,8.23699e-05,0
0.3,3.4,0,0.299982,6.95895e-05,0
0.3,3.5,0,0.299995,-5.18238e-05,0
0.3,3.6,0,0.299978,7.46838e-05,0
0.3,3.7,0,0.299976,8.80004e-05,0
0.3,3.8,0,0.299987,1.31488e-05,0
0.3,3.9,0,0.299984,1.42371e-05,0
0.3,4,0,0.299969,9.04061e-05,0
0.3,4.1,0,0.299972,7.75288e-05,0
0.3,4.2,0,0.299999,-4.48059e-05,0
0.3,4.3,0,0.299964,7.59356e-05,0
0.3,4.4,0,0.29996,8.86453e-05,0
0.3,4.5,0,0.299983,1.81665e-05,0
0.3,4.6,0,0.299979,1.51322e-05,0
0.3,4.7,0,0.299952,8.19379e-05,0
0.3,4.8,0,0.299957,7.08645e-05,0
0.3,4.9,0,0.300005,-3.43326e-05,0
0.3,5,0,0.299954,5.99748e-05,0
0.3,5.1,0,0.299948,6.99019e-05,0
0.3,5.2,0,0.299981,1.6515e-05,0
0.3,5.3,0,0.299985,8.83103e-06,0
0.3,5.4,0,0.299956,5.29163e-05,0
0.3,5.5,0,0.299961,4.5986e-05,0
0.3,5.6,0,0.300009,-1.98517e-05,0
0.3,5.7,0,0.299986,2.74145e-05,0
0.3,5.8,0,0.299984,3.23899e-05,0
0.3,5.9,0,0.299997,8.46635e-06,0
0.3,6,0,0.300019,-1.43702e-06,0
0.3,6.1,0,0.300032,1.04982e-05,0
0.3,6.2,0,0.300029,9.28744e-06,0
0.3,6.3,0,0.300003,-2.21505e-06,0
0.3,6.4,0,0.300087,-7.43233e-06,0
0.3,6.5,0,0.300096,-7.98152e-06,0
0.3,6.6,0,0.300041,4.42213e-07,0
0.3,6.7,0,0.300071,-7.05119e-06,0
0.3,6.8,0,0.30016,-2.45459e-05,0
0.3,6.9,0,0.300144,-2.08746e-05,0
0.3,7,0,0.29999,1.40023e-05,0
0.3,7.1,0,0.299988,1.60272e-05,0
0.3,7.2,0,0.299986,1.68872e-05,0
0.3,7.3,0,0.299985,1.77122e-05,0
0.3,7.4,0,0.299985,1.85568e-05,0
0.3,7.5,0,0.299985,1.94078e-05,0
0.3,7.6,0,0.299985,2.02611e-05,0
0.3,7.7,0,0.299986,2.11148e-05,0
0.3,7.8,0,0.299987,2.19661e-05,0
0.3,7.9,0,0.299989,2.28663e-05,0
0.3,8,0,0.299991,2.43661e-05,0
0.3,8.1,0,0.300141,-1.49577e-06,0
0.3,8.2,0,0.300065,1.38729e-05,0
0.3,8.3,0,0.300078,-2.49718e-06,0
0.3,8.4,0,0.300084,-4.5534e-06,0
0.3,8.5,0,0.300015,1.31989e-05,0
0.3,8.6,0,0.300033,-1.47195e-05,0
0.3,8.7,0,0.30001,3.33751e-05,0
0.3,8.8,0,0.29998,-2.56933e-05,0
0.3,8.9,0,0.299996,5.29535e-06,0
0.3,9,0,0.299952,-2.36477e-05,0
0.3,9.1,0,0.299937,-3.90841e-05,0
0.3,9.2,0,0.299979,1.24248e-05,0
0.3,9.3,0,0.299905,-5.39797e-05,0
0.3,9.4,0,0.300003,3.65511e-05,0
0.3,9.5,0,0.299887,-6.94099e-05,0
0.3,9.6,0,0.299939,-2.04817e-05,0
0.3,9.7,0,0.299917,-4.84121e-05,0
0.3,9.8,0,0.299881,-8.44952e-05,0
0.3,9.9,0,0.299982,1.64059e-05,0
0.3,10,0,0.299886,-9.8544e-05,0
0.3,10.1,0,0.299989,2.98439e-05,0
0.3,10.2,0,0.299899,-0.000111108,0
0.3,10.3,0,0.299936,-5.34772e-05,0
0.3,10.4,0,0.299947,-6.07972e-05,0
0.3,10.5,0,0.299915,-0.000121972,0
0.3,10.6,0,0.299995,2.80276e-05,0
0.3,10.7,0,0.299934,-0.000131117,0
0.3,10.8,0,0.299988,1.63772e-05,0
0.3,10.9,0,0.299951,-0.000138646,0
0.3,11,0,0.299965,-8.38813e-05,0
0.3,11.1,0,0.299981,-5.9062e-05,0
0.3,11.2,0,0.299965,-0.000144729,0
0.3,11.3,0,0.300001,4.45004e-05,0
0.3,11.4,0,0.299978,-0.000149543,0
0.3,11.5,0,0.299995,1.7474e-07,0
0.3,11.6,0,0.299987,-0.000153249,0
0.3,11.7,0,0.29999,-0.00010907,0
0.3,11.8,0,0.299998,-4.83618e-05,0
0.3,11.9,0,0.299994,-0.000155975,0
0.3,12,0,0.300001,6.24922e-05,0
0.3,12.1,0,0.299999,-0.000157815,0
0.3,12.2,0,0.3,-1.66937e-05,0
0.3,12.3,0,0.300002,-0.00014537,0
0.3,12.4,0,0.300002,-0.000129292,0
0.3,12.5,0,0.300001,-3.31693e-05,0
0.3,12.6,0,0.300004,-0.000187186,0
0.3,12.7,0,0.300001,5.88582e-06,0
0.4,0,0,0.299998,-7.7461e-05,0
0.4,0.1,0,0.299999,-1.2127e-05,0
0.4,0.2,0,0.299999,1.74705e-05,0
0.4,0.3,0,0.299998,-4.8665e-05,0
0.4,0.4,0,0.299997,-4.73919e-05,0
0.4,0.5,0,0.299997,2.11554e-05,0
0.4,0.6,0,0.299996,-1.21153e-05,0
0.4,0.7,0,0.299996,-8.23533e-05,0
0.4,0.8,0,0.299994,-7.87854e-06,0
0.4,0.9,0,0.299993,2.7399e-05,0
0.4,1,0,0.299994,-4.48142e-05,0
0.4,1.1,0,0.299993,-4.18041e-05,0
0.4,1.2,0,0.29999,3.62711e-05,0
0.4,1.3,0,0.299991,-1.49021e-06,0
0.4,1.4,0,0.299993,-8.12085e-05,0
0.4,1.5,0,0.299989,5.99984e-06,0
0.4,1.6,0,0.299987,4.73091e-05,0
0.4,1.7,0,0.29999,-3.69746e-05,0
0.4,1.8,0,0.299989,-3.27046e-05,0
0.4,1.9,0,0.299985,5.98943e-05,0
0.4,2,0,0.299987,1.52571e-05,0
0.4,2.1,0,0.299991,-7.8977e-05,0
0.4,2.2,0,0.299985,2.43624e-05,0
0.4,2.3,0,0.299982,7.33127e-05,0
0.4,2.4,0,0.299988,-2.6204e-05,0
0.4,2.5,0,0.299987,-2.16482e-05,0
0.4,2.6,0,0.29998,8.67402e-05,0
0.4,2.7,0,0.299983,3.46979e-05,0
0.4,2.8,0,0.299991,-7.51693e-05,0
0.4,2.9,0,0.299982,4.31887e-05,0
0.4,3,0,0.299977,9.92531e-05,0
0.4,3.1,0,0.299987,-1.4207e-05,0
0.4,3.2,0,0.299986,-1.06196e-05,0
0.4,3.3,0,0.299974,0.000109827,0
0.4,3.4,0,0.29998,5.23149e-05,0
0.4,3.5,0,0.299993,-6.90984e-05,0
0.4,3.6,0,0.299976,5.74092e-05,0
0.4,3.7,0,0.299968,0.000117334,0
0.4,3.8,0,0.299986,-3.07955e-06,0
0.4,3.9,0,0.299983,-1.99126e-06,0
0.4,4,0,0.299959,0.000120541,0
0.4,4.1,0,0.299972,6.25935e-05,0
0.4,4.2,0,0.299999,-5.97413e-05,0
0.4,4.3,0,0.299964,6.10003e-05,0
0.4,4.4,0,0.299947,0.000118194,0
0.4,4.5,0,0.299984,4.81477e-06,0
0.4,4.6,0,0.29998,1.78048e-06,0
0.4,4.7,0,0.299936,0.000109251,0
0.4,4.8,0,0.299959,5.94203e-05,0
0.4,4.9,0,0.300007,-4.57768e-05,0
0.4,5,0,0.299955,4.85306e-05,0
0.4,5.1,0,0.299931,9.32025e-05,0
0.4,5.2,0,0.299984,7.31921e-06,0
0.4,5.3,0,0.299988,-3.64732e-07,0
0.4,5.4,0,0.299942,7.05551e-05,0
0.4,5.5,0,0.299965,3.93688e-05,0
0.4,5.6,0,0.300013,-2.64689e-05,0
0.4,5.7,0,0.299989,2.07973e-05,0
0.4,5.8,0,0.299978,4.31865e-05,0
0.4,5.9,0,0.3,4.70083e-06,0
0.4,6,0,0.300022,-5.20254e-06,0
0.4,6.1,0,0.300043,1.39976e-05,0
0.4,6.2,0,0.300031,8.54909e-06,0
0.4,6.3,0,0.300004,-2.9534e-06,0
0.4,6.4,0,0.300088,-8.17068e-06,0
0.4,6.5,0,0.300128,-1.0642e-05,0
0.4,6.6,0,0.30004,2.90919e-06,0
0.4,6.7,0,0.300069,-4.58421e-06,0
0.4,6.8,0,0.300214,-3.27278e-05,0
0.4,6.9,0,0.300141,-1.62072e-05,0
0.4,7,0,0.299987,1.86698e-05,0
0.4,7.1,0,0.299983,2.13697e-05,0
0.4,7.2,0,0.299982,2.25162e-05,0
0.4,7.3,0,0.29998,2.36163e-05,0
0.4,7.4,0,0.299979,2.47424e-05,0
0.4,7.5,0,0.299979,2.58771e-05,0
0.4,7.6,0,0.29998,2.70147e-05,0
0.4,7.7,0,0.299981,2.8153e-05,0
0.4,7.8,0,0.299983,2.92882e-05,0
0.4,7.9,0,0.299985,3.04884e-05,0
0.4,8,0,0.299988,3.24882e-05,0
0.4,8.1,0,0.300189,-1.99437e-06,0
0.4,8.2,0,0.300063,2.30701e-05,0
0.4,8.3,0,0.300076,6.69993e-06,0
0.4,8.4,0,0.300085,6.16112e-06,0
0.4,8.5,0,0.300016,2.39135e-05,0
0.4,8.6,0,0.300045,-1.96259e-05,0
0.4,8.7,0,0.300013,4.56582e-05,0
0.4,8.8,0,0.299975,-3.0931e-05,0
0.4,8.9,0,0.3,1.91381e-05,0
0.4,9,0,0.299956,-9.8049e-06,0
0.4,9.1,0,0.299942,-2.46043e-05,0
0.4,9.2,0,0.299985,2.78114e-05,0
0.4,9.3,0,0.299873,-7.19729e-05,0
0.4,9.4,0,0.30001,5.34345e-05,0
0.4,9.5,0,0.299865,-7.80712e-05,0
0.4,9.6,0,0.299945,-2.18371e-06,0
0.4,9.7,0,0.299923,-3.01141e-05,0
0.4,9.8,0,0.299876,-7.60705e-05,0
0.4,9.9,0,0.299988,3.60108e-05,0
0.4,10,0,0.299848,-0.000131392,0
0.4,10.1,0,0.299994,5.06335e-05,0
0.4,10.2,0,0.299887,-0.00011554,0
0.4,10.3,0,0.29994,-3.16296e-05,0
0.4,10.4,0,0.299951,-3.89496e-05,0
0.4,10.5,0,0.299905,-0.000126861,0
0.4,10.6,0,0.299998,5.0809e-05,0
0.4,10.7,0,0.299912,-0.000174823,0
0.4,10.8,0,0.299991,3.99747e-05,0
0.4,10.9,0,0.299949,-0.000131388,0
0.4,11,0,0.299967,-5.95775e-05,0
0.4,11.1,0,0.299983,-3.47583e-05,0
0.4,11.2,0,0.299958,-0.000166513,0
0.4,11.3,0,0.300002,6.94072e-05,0
0.4,11.4,0,0.299971,-0.00019939,0
0.4,11.5,0,0.299996,2.55862e-05,0
0.4,11.6,0,0.299988,-0.000130279,0
0.4,11.7,0,0.299991,-8.32492e-05,0
0.4,11.8,0,0.299998,-2.25409e-05,0
0.4,11.9,0,0.299993,-0.000195499,0
0.4,12,0,0.300001,8.86282e-05,0
0.4,12.1,0,0.299999,-0.00021042,0
0.4,12.2,0,0.3,9.66206e-06,0
0.4,12.3,0,0.300002,-0.000119014,0
0.4,12.4,0,0.300002,-0.00010281,0
0.4,12.5,0,0.300001,-6.68786e-06,0
0.4,12.6,0,0.300005,-0.000228961,0
0.4,12.7,0,0.300001,4.37422e-05,0
0.5,0,0,0.299998,-9.90707e-05,0
0.5,0.1,0,0.299999,-3.37368e-05,0
0.5,0.2,0,0.299999,-1.45929e-06,0
0.5,0.3,0,0.299998,-6.93129e-05,0
0.5,0.4,0,0.299997,-6.80398e-05,0
0.5,0.5,0,0.299996,2.36005e-06,0
0.5,0.6,0,0.299995,-3.27036e-05,0
0.5,0.7,0,0.299995,-0.000102942,0
0.5,0.8,0,0.299993,-2.84669e-05,0
0.5,0.9,0,0.299992,8.87652e-06,0
0.5,1,0,0.299992,-6.52884e-05,0
0.5,1.1,0,0.299991,-6.22783e-05,0
0.5,1.2,0,0.299988,1.7907e-05,0
0.5,1.3,0,0.299989,-2.17923e-05,0
0.5,1.4,0,0.299991,-0.000101511,0
0.5,1.5,0,0.299987,-1.43023e-05,0
0.5,1.6,0,0.299985,2.95231e-05,0
0.5,1.7,0,0.299988,-5.70384e-05,0
0.5,1.8,0,0.299987,-5.27684e-05,0
0.5,1.9,0,0.299983,4.23331e-05,0
0.5,2,0,0.299984,-4.48715e-06,0
0.5,2.1,0,0.299989,-9.87213e-05,0
0.5,2.2,0,0.299983,4.61816e-06,0
0.5,2.3,0,0.29998,5.66755e-05,0
0.5,2.4,0,0.299985,-4.55308e-05,0
0.5,2.5,0,0.299985,-4.0975e-05,0
0.5,2.6,0,0.299977,7.03428e-05,0
0.5,2.7,0,0.299981,1.59056e-05,0
0.5,2.8,0,0.299988,-9.39616e-05,0
0.5,2.9,0,0.299979,2.43964e-05,0
0.5,3,0,0.299975,8.4202e-05,0
0.5,3.1,0,0.299985,-3.23246e-05,0
0.5,3.2,0,0.299983,-2.87372e-05,0
0.5,3.3,0,0.299971,9.49642e-05,0
0.5,3.4,0,0.299978,3.50403e-05,0
0.5,3.5,0,0.299991,-8.6373e-05,0
0.5,3.6,0,0.299974,4.01346e-05,0
0.5,3.7,0,0.299966,0.00010436,0
0.5,3.8,0,0.299985,-1.93079e-05,0
0.5,3.9,0,0.299982,-1.82196e-05,0
0.5,4,0,0.299957,0.000107625,0
0.5,4.1,0,0.299971,4.76581e-05,0
0.5,4.2,0,0.299998,-7.46766e-05,0
0.5,4.3,0,0.299963,4.6065e-05,0
0.5,4.4,0,0.299947,0.000107906,0
0.5,4.5,0,0.299984,-8.53695e-06,0
0.5,4.6,0,0.299981,-1.15712e-05,0
0.5,4.7,0,0.299935,9.88034e-05,0
0.5,4.8,0,0.299961,4.79761e-05,0
0.5,4.9,0,0.300009,-5.72211e-05,0
0.5,5,0,0.299957,3.70864e-05,0
0.5,5.1,0,0.299932,8.63279e-05,0
0.5,5.2,0,0.299987,-1.87655e-06,0
0.5,5.3,0,0.29999,-9.56049e-06,0
0.5,5.4,0,0.299943,6.32761e-05,0
0.5,5.5,0,0.299968,3.27516e-05,0
0.5,5.6,0,0.300016,-3.30862e-05,0
0.5,5.7,0,0.299992,1.418e-05,0
0.5,5.8,0,0.29998,4.04612e-05,0
0.5,5.9,0,0.300002,9.35307e-07,0
0.5,6,0,0.300024,-8.96806e-06,0
0.5,6.1,0,0.300046,1.0751e-05,0
0.5,6.2,0,0.300032,7.81074e-06,0
0.5,6.3,0,0.300006,-3.69175e-06,0
0.5,6.4,0,0.300089,-8.90903e-06,0
0.5,6.5,0,0.300129,-8.54129e-06,0
0.5,6.6,0,0.300039,5.37618e-06,0
0.5,6.7,0,0.300068,-2.11722e-06,0
0.5,6.8,0,0.300217,-3.10215e-05,0
0.5,6.9,0,0.300138,-1.15397e-05,0
0.5,7,0,0.299984,2.33372e-05,0
0.5,7.1,0,0.299979,2.67121e-05,0
0.5,7.2,0,0.299977,2.81453e-05,0
0.5,7.3,0,0.299975,2.95203e-05,0
0.5,7.4,0,0.299974,3.0928e-05,0
0.5,7.5,0,0.299974,3.23464e-05,0
0.5,7.6,0,0.299975,3.37684e-05,0
0.5,7.7,0,0.299976,3.51913e-05,0
0.5,7.8,0,0.299978,3.66102e-05,0
0.5,7.9,0,0.299981,3.81104e-05,0
0.5,8,0,0.299985,4.06102e-05,0
0.5,8.1,0,0.300188,5.76084e-06,0
0.5,8.2,0,0.300062,3.22672e-05,0
0.5,8.3,0,0.300075,1.5897e-05,0
0.5,8.4,0,0.300086,1.68756e-05,0
0.5,8.5,0,0.300017,3.4628e-05,0
0.5,8.6,0,0.30005,-1.15487e-05,0
0.5,8.7,0,0.300016,5.79414e-05,0
0.5,8.8,0,0.299978,-1.86478e-05,0
0.5,8.9,0,0.300005,3.29809e-05,0
0.5,9,0,0.299961,4.03786e-06,0
0.5,9.1,0,0.299947,-9.21775e-06,0
0.5,9.2,0,0.299991,4.3198e-05,0
0.5,9.3,0,0.299862,-7.06727e-05,0
0.5,9.4,0,0.300016,7.03179e-05,0
0.5,9.5,0,0.299871,-6.11878e-05,0
0.5,9.6,0,0.299951,1.61143e-05,0
0.5,9.7,0,0.299929,-1.18161e-05,0
0.5,9.8,0,0.299882,-5.64656e-05,0
0.5,9.9,0,0.299994,5.56156e-05,0
0.5,10,0,0.299832,-0.000137598,0
0.5,10.1,0,0.3,7.14231e-05,0
0.5,10.2,0,0.299892,-9.47506e-05,0
0.5,10.3,0,0.299945,-9.78195e-06,0
0.5,10.4,0,0.299956,-1.71019e-05,0
0.5,10.5,0,0.299908,-0.00010408,0
0.5,10.6,0,0.300002,7.35905e-05,0
0.5,10.7,0,0.299902,-0.000185163,0
0.5,10.8,0,0.299993,6.35723e-05,0
0.5,10.9,0,0.299952,-0.00010779,0
0.5,11,0,0.299969,-3.52738e-05,0
0.5,11.1,0,0.299985,-1.04545e-05,0
0.5,11.2,0,0.29996,-0.000141607,0
0.5,11.3,0,0.300004,9.4314e-05,0
0.5,11.4,0,0.299968,-0.000207884,0
0.5,11.5,0,0.299997,5.09977e-05,0
0.5,11.6,0,0.299989,-0.000104867,0
0.5,11.7,0,0.299991,-5.74283e-05,0
0.5,11.8,0,0.299999,3.27996e-06,0
0.5,11.9,0,0.299993,-0.000169363,0
0.5,12,0,0.300002,0.000114764,0
0.5,12.1,0,0.299999,-0.000203551,0
0.5,12.2,0,0.3,3.60178e-05,0
0.5,12.3,0,0.300002,-9.26584e-05,0
0.5,12.4,0,0.300002,-7.63291e-05,0
0.5,12.5,0,0.300001,1.97936e-05,0
0.5,12.6,0,0.300004,-0.000194493,0
0.5,12.7,0,0.300001,8.15985e-05,0
0.6,0,0,0.299998,-0.00012068,0
0.6,0.1,0,0.299998,-5.53465e-05,0
0.6,0.2,0,0.299998,-3.64018e-05,0
0.6,0.3,0,0.299997,-8.99609e-05,0
0.6,0.4,0,0.299996,-8.86877e-05,0
0.6,0.5,0,0.299995,-3.30749e-05,0
0.6,0.6,0,0.299994,-5.3292e-05,0
0.6,0.7,0,0.299994,-0.00012353,0
0.6,0.8,0,0.299992,-4.90552e-05,0
0.6,0.9,0,0.299991,-2.72766e-05,0
0.6,1,0,0.299991,-8.57626e-05,0
0.6,1.1,0,0.29999,-8.27524e-05,0
0.6,1.2,0,0.299987,-1.93499e-05,0
0.6,1.3,0,0.299987,-4.20945e-05,0
0.6,1.4,0,0.299989,-0.000121813,0
0.6,1.5,0,0.299985,-3.46044e-05,0
0.6,1.6,0,0.299984,-8.90034e-06,0
0.6,1.7,0,0.299986,-7.71023e-05,0
0.6,1.8,0,0.299985,-7.28323e-05,0
0.6,1.9,0,0.299981,2.43054e-06,0
0.6,2,0,0.299982,-2.42314e-05,0
0.6,2.1,0,0.299986,-0.000118466,0
0.6,2.2,0,0.29998,-1.51261e-05,0
0.6,2.3,0,0.299979,1.55931e-05,0
0.6,2.4,0,0.299983,-6.48576e-05,0
0.6,2.5,0,0.299982,-6.03018e-05,0
0.6,2.6,0,0.299976,2.78861e-05,0
0.6,2.7,0,0.299979,-2.88675e-06,0
0.6,2.8,0,0.299986,-0.000112754,0
0.6,2.9,0,0.299977,5.60411e-06,0
0.6,3,0,0.299975,4.11669e-05,0
0.6,3.1,0,0.299983,-5.04422e-05,0
0.6,3.2,0,0.299981,-4.68548e-05,0
0.6,3.3,0,0.299972,5.1286e-05,0
0.6,3.4,0,0.299977,1.77657e-05,0
0.6,3.5,0,0.29999,-0.000103648,0
0.6,3.6,0,0.299973,2.286e-05,0
0.6,3.7,0,0.299969,6.14984e-05,0
0.6,3.8,0,0.299984,-3.55363e-05,0
0.6,3.9,0,0.299981,-3.4448e-05,0
0.6,4,0,0.299961,6.56418e-05,0
0.6,4.1,0,0.299971,3.27228e-05,0
0.6,4.2,0,0.299998,-8.96119e-05,0
0.6,4.3,0,0.299963,3.11297e-05,0
0.6,4.4,0,0.299955,6.91353e-05,0
0.6,4.5,0,0.299985,-2.18887e-05,0
0.6,4.6,0,0.299981,-2.49229e-05,0
0.6,4.7,0,0.299946,6.33049e-05,0
0.6,4.8,0,0.299963,3.65319e-05,0
0.6,4.9,0,0.300011,-6.86653e-05,0
0.6,5,0,0.299959,2.56422e-05,0
0.6,5.1,0,0.299946,5.7278e-05,0
0.6,5.2,0,0.299989,-1.10723e-05,0
0.6,5.3,0,0.299993,-1.87562e-05,0
0.6,5.4,0,0.299956,4.02198e-05,0
0.6,5.5,0,0.299971,2.61344e-05,0
0.6,5.6,0,0.300019,-3.97034e-05,0
0.6,5.7,0,0.299996,7.56281e-06,0
0.6,5.8,0,0.299988,2.67449e-05,0
0.6,5.9,0,0.300005,-2.83022e-06,0
0.6,6,0,0.300027,-1.27336e-05,0
0.6,6.1,0,0.300043,4.56394e-06,0
0.6,6.2,0,0.300033,7.07239e-06,0
0.6,6.3,0,0.300007,-4.4301e-06,0
0.6,6.4,0,0.30009,-9.64738e-06,0
0.6,6.5,0,0.30011,-4.97593e-06,0
0.6,6.6,0,0.300038,7.84316e-06,0
0.6,6.7,0,0.300067,3.49757e-07,0
0.6,6.8,0,0.300183,-2.1212e-05,0
0.6,6.9,0,0.300135,-6.8723e-06,0
0.6,7,0,0.299981,2.80046e-05,0
0.6,7.1,0,0.299975,3.20545e-05,0
0.6,7.2,0,0.299972,3.37743e-05,0
0.6,7.3,0,0.29997,3.54244e-05,0
0.6,7.4,0,0.299969,3.71136e-05,0
0.6,7.5,0,0.299969,3.88156e-05,0
0.6,7.6,0,0.29997,4.05221e-05,0
0.6,7.7,0,0.299971,4.22295e-05,0
0.6,7.8,0,0.299974,4.39322e-05,0
0.6,7.9,0,0.299977,4.57325e-05,0
0.6,8,0,0.299982,4.87322e-05,0
0.6,8.1,0,0.300159,1.91433e-05,0
0.6,8.2,0,0.300061,4.14643e-05,0
0.6,8.3,0,0.300074,2.50941e-05,0
0.6,8.4,0,0.300087,2.75902e-05,0
0.6,8.5,0,0.300018,4.53425e-05,0
0.6,8.6,0,0.300045,1.23671e-05,0
0.6,8.7,0,0.300019,7.02246e-05,0
0.6,8.8,0,0.299985,1.26334e-06,0
0.6,8.9,0,0.300009,4.68236e-05,0
0.6,9,0,0.299965,1.78806e-05,0
0.6,9.1,0,0.299953,6.16883e-06,0
0.6,9.2,0,0.299996,5.85846e-05,0
0.6,9.3,0,0.299904,-2.2185e-05,0
0.6,9.4,0,0.300022,8.72013e-05,0
0.6,9.5,0,0.299884,-3.85741e-05,0
0.6,9.6,0,0.299958,3.44123e-05,0
0.6,9.7,0,0.299936,6.48195e-06,0
0.6,9.8,0,0.299888,-3.68607e-05,0
0.6,9.9,0,0.3,7.52205e-05,0
0.6,10,0,0.299881,-6.43552e-05,0
0.6,10.1,0,0.300005,9.22127e-05,0
0.6,10.2,0,0.299897,-7.3961e-05,0
0.6,10.3,0,0.299949,1.20657e-05,0
0.6,10.4,0,0.29996,4.74568e-06,0
0.6,10.5,0,0.299912,-8.12983e-05,0
0.6,10.6,0,0.300005,9.63719e-05,0
0.6,10.7,0,0.29993,-9.50787e-05,0
0.6,10.8,0,0.299996,8.71698e-05,0
0.6,10.9,0,0.299954,-8.41927e-05,0
0.6,11,0,0.299971,-1.09701e-05,0
0.6,11.1,0,0.299987,1.38492e-05,0
0.6,11.2,0,0.299963,-0.000106667,0
0.6,11.3,0,0.300005,0.000119221,0
0.6,11.4,0,0.299977,-0.000111722,0
0.6,11.5,0,0.299998,7.64092e-05,0
0.6,11.6,0,0.29999,-7.94557e-05,0
0.6,11.7,0,0.299992,-3.16074e-05,0
0.6,11.8,0,0.3,2.91008e-05,0
0.6,11.9,0,0.299994,-0.000116738,0
0.6,12,0,0.300002,0.0001409,0
0.6,12.1,0,0.3,-0.000118614,0
0.6,12.2,0,0.3,6.23736e-05,0
0.6,12.3,0,0.300002,-6.63026e-05,0
0.6,12.4,0,0.300002,-4.98476e-05,0
0.6,12.5,0,0.300001,4.6275e-05,0
0.6,12.6,0,0.300004,-0.000119604,0
0.6,12.7,0,0.3,0.000119455,0
0.7,0,0,0.299997,-0.00014229,0
0.7,0.1,0,0.299998,-8.21106e-05,0
0.7,0.2,0,0.299997,-8.20652e-05,0
0.7,0.3,0,0.299996,-0.000110609,0
0.7,0.4,0,0.299996,-0.000109336,0
0.7,0.5,0,0.299995,-7.96e-05,0
0.7,0.6,0,0.299993,-7.94382e-05,0
0.7,0.7,0,0.299993,-0.000144118,0
0.7,0.8,0,0.299991,-7.54987e-05,0
0.7,0.9,0,0.29999,-7.51888e-05,0
0.7,1,0,0.299989,-0.000106237,0
0.7,1.1,0,0.299988,-0.000103227,0
0.7,1.2,0,0.299987,-6.9194e-05,0
0.7,1.3,0,0.299986,-6.8727e-05,0
0.7,1.4,0,0.299987,-0.000142115,0
0.7,1.5,0,0.299984,-6.17403e-05,0
0.7,1.6,0,0.299983,-6.10936e-05,0
0.7,1.7,0,0.299984,-9.71661e-05,0
0.7,1.8,0,0.299983,-9.28961e-05,0
0.7,1.9,0,0.299981,-5.23511e-05,0
0.7,2,0,0.29998,-5.14837e-05,0
0.7,2.1,0,0.299984,-0.00013821,0
0.7,2.2,0,0.299979,-4.29393e-05,0
0.7,2.3,0,0.299978,-4.18062e-05,0
0.7,2.4,0,0.299981,-8.41844e-05,0
0.7,2.5,0,0.29998,-7.96286e-05,0
0.7,2.6,0,0.299977,-3.1918e-05,0
0.7,2.7,0,0.299977,-3.04673e-05,0
0.7,2.8,0,0.299984,-0.000131546,0
0.7,2.9,0,0.299975,-2.23877e-05,0
0.7,3,0,0.299976,-2.05562e-05,0
0.7,3.1,0,0.29998,-6.85598e-05,0
0.7,3.2,0,0.299979,-6.49723e-05,0
0.7,3.3,0,0.299975,-1.15629e-05,0
0.7,3.4,0,0.299976,-9.27478e-06,0
0.7,3.5,0,0.299988,-0.000120922,0
0.7,3.6,0,0.299972,-4.17785e-06,0
0.7,3.7,0,0.299974,-1.33806e-06,0
0.7,3.8,0,0.299983,-5.17647e-05,0
0.7,3.9,0,0.299979,-5.06764e-05,0
0.7,4,0,0.29997,4.3427e-06,0
0.7,4.1,0,0.299972,7.85242e-06,0
0.7,4.2,0,0.299998,-0.000104547,0
0.7,4.3,0,0.299966,7.00148e-06,0
0.7,4.4,0,0.299968,1.12998e-05,0
0.7,4.5,0,0.299986,-3.52404e-05,0
0.7,4.6,0,0.299982,-3.82747e-05,0
0.7,4.7,0,0.299965,1.11964e-05,0
0.7,4.8,0,0.299968,1.63739e-05,0
0.7,4.9,0,0.300013,-8.01095e-05,0
0.7,5,0,0.299965,7.23444e-06,0
0.7,5.1,0,0.299968,1.33374e-05,0
0.7,5.2,0,0.299992,-2.02681e-05,0
0.7,5.3,0,0.299996,-2.7952e-05,0
0.7,5.4,0,0.299977,6.76801e-06,0
0.7,5.5,0,0.299978,1.37669e-05,0
0.7,5.6,0,0.300022,-4.63206e-05,0
0.7,5.7,0,0.3,-2.17488e-06,0
0.7,5.8,0,0.299999,5.56547e-06,0
0.7,5.9,0,0.300008,-6.59574e-06,0
0.7,6,0,0.30003,-1.64991e-05,0
0.7,6.1,0,0.300036,-3.43934e-06,0
0.7,6.2,0,0.300032,4.77727e-06,0
0.7,6.3,0,0.300008,-5.16845e-06,0
0.7,6.4,0,0.300084,-9.28698e-06,0
0.7,6.5,0,0.300078,-5.86796e-07,0
0.7,6.6,0,0.300036,1.03101e-05,0