/*--------------------------------*- C++ -*----------------------------------*\
| =========                 |                                                 |
| \\      /  F ield         | OpenFOAM: The Open Source CFD Toolbox           |
|  \\    /   O peration     | Version:  v1806                                 |
|   \\  /    A nd           | Web:      www.OpenFOAM.com                      |
|    \\/     M anipulation  |                                                 |
\*---------------------------------------------------------------------------*/
FoamFile
{
    version     2.0;
    format      ascii;
    class       surfaceScalarField;
    location    "13";
    object      phi;
}
// * * * * * * * * * * * * * * * * * * * * * * * * * * * * * * * * * * * * * //

dimensions      [0 3 -1 0 0 0 0];
oriented        oriented;


internalField   nonuniform List<scalar> 
68400
(
0.0668451
0.000739313
0.0074156
0.0576919
0.00108749
0.00806574
0.0498807
0.00106221
0.00674893
0.0430654
0.000967663
0.00584764
0.0375614
0.00082791
0.00467607
0.0334517
0.000678458
0.00343131
0.0305238
0.000552558
0.00237533
0.0284366
0.000461581
0.00162556
0.0269061
0.000396899
0.00113364
0.0257515
0.000345481
0.000809122
0.0248606
0.000299047
0.000591833
0.02416
0.000252846
0.000447747
0.0235965
0.000206642
0.000356881
0.0231345
0.000161732
0.000300245
0.0227483
0.000121628
0.00026459
0.0224209
8.82284e-05
0.00023921
0.0221373
6.37104e-05
0.000219896
0.0218863
4.83318e-05
0.000202601
0.0216559
4.33872e-05
0.000187019
4.7845e-05
0.000171161
0.0214369
0.0678817
0.000412124
0.00744545
0.0599748
0.000760522
0.0082339
0.053409
0.000826089
0.00680188
0.0476327
0.000793117
0.00595092
0.0428185
0.000706001
0.00493606
0.0390698
0.000591432
0.00383574
0.036307
0.000474015
0.00284139
0.03432
0.000369804
0.00207875
0.0328935
0.000282111
0.00154128
0.0318697
0.00020634
0.00116294
0.0311376
0.000138418
0.000892674
0.0306159
7.43451e-05
0.000700291
0.030241
1.52893e-05
0.000566204
0.0299705
-4.27376e-05
0.000474961
0.0297708
-9.16768e-05
0.000413064
0.0296209
-0.000129469
0.000367526
0.0295047
-0.000152776
0.000332724
0.029411
-0.000161277
0.000303298
0.0293282
-0.000152338
0.000278481
-0.000127469
0.000255385
0.0292482
0.0677447
0.000226162
0.0074413
0.0597787
0.000486084
0.0082404
0.0532479
0.000582276
0.00677461
0.0475768
0.000581132
0.00588307
0.0428922
0.000523399
0.00486723
0.0392651
0.000433969
0.00378453
0.0366062
0.000329018
0.00280394
0.0347061
0.000219771
0.00205008
0.0333543
0.000113886
0.00152003
0.0323981
1.22695e-05
0.00115031
0.0317289
-7.56906e-05
0.000883327
0.031272
-0.000158636
0.000689864
0.0309676
-0.000233577
0.000553197
0.0307702
-0.000299698
0.000454369
0.0306457
-0.000352621
0.00038548
0.0305724
-0.000390742
0.000334586
0.0305336
-0.000409001
0.00029499
0.030517
-0.000407164
0.000262479
0.0305104
-0.000381664
0.000235984
-0.000334578
0.000212848
0.0305046
0.0676548
0.00012465
0.00744674
0.059566
0.000300888
0.00827393
0.0529487
0.000380332
0.00681926
0.047238
0.000380836
0.00591099
0.0425473
0.000328996
0.00488515
0.0389415
0.000245151
0.00379458
0.0363179
0.000143309
0.0028093
0.0344584
3.2762e-05
0.00204658
0.0331468
-8.40272e-05
0.00150943
0.0322244
-0.000199223
0.0011339
0.0315869
-0.000307349
0.000869149
0.031159
-0.000408336
0.000677625
0.0308819
-0.000498079
0.000541589
0.030713
-0.000575809
0.000445088
0.0306206
-0.000635623
0.000375354
0.0305824
-0.000675824
0.000323275
0.0305799
-0.000690433
0.000283919
0.0306009
-0.000678842
0.000250664
0.0306326
-0.000636268
0.000222927
-0.000565124
0.000198927
0.0306642
0.0676069
6.85252e-05
0.00744918
0.0594475
0.000171649
0.00828864
0.0527726
0.000217121
0.00683815
0.0470284
0.000206132
0.00591895
0.0423232
0.000152069
0.00488204
0.0387183
6.58762e-05
0.00378423
0.0361062
-3.91779e-05
0.00279454
0.0342648
-0.000155491
0.00202965
0.032973
-0.000279262
0.0014871
0.032072
-0.000406674
0.00110841
0.0314552
-0.000530264
0.000839702
0.0310466
-0.00064865
0.000648885
0.0307899
-0.000755115
0.000513741
0.0306436
-0.00084779
0.000418281
0.030576
-0.000918803
0.000350779
0.0305651
-0.000965626
0.000300752
0.030593
-0.000980216
0.000261839
0.0306462
-0.000961258
0.000229278
0.0307104
-0.000902357
0.000201896
-0.000806244
0.000178128
0.0307734
0.0675864
3.09332e-05
0.00745114
0.0593884
7.15808e-05
0.00829808
0.052671
8.01591e-05
0.00685443
0.0468901
4.915e-05
0.00593783
0.042157
-1.44557e-05
0.00489968
0.0385339
-0.000110214
0.00379917
0.0359109
-0.000224002
0.00280785
0.0340649
-0.000353845
0.00204433
0.0327735
-0.000491377
0.00150353
0.031878
-0.000635698
0.00112453
0.0312707
-0.000777762
0.000854747
0.0308766
-0.000916615
0.00066212
0.0306386
-0.00104295
0.000525784
0.0305158
-0.00115449
0.000429475
0.0304767
-0.00124073
0.000361043
0.0304992
-0.00129821
0.000310113
0.0305649
-0.00131594
0.000270048
0.0306585
-0.00129131
0.000236375
0.0307643
-0.00121574
0.000207674
-0.0010917
0.000182781
0.0308669
0.0675726
5.14946e-06
0.00745321
0.0593449
-5.45966e-06
0.00830469
0.0525915
-3.32018e-05
0.00686677
0.0467774
-8.88895e-05
0.00595211
0.0420185
-0.000167998
0.00491251
0.0383794
-0.000276009
0.00380482
0.0357476
-0.000400981
0.00280879
0.0338984
-0.000546419
0.0020418
0.0326075
-0.00069939
0.00149891
0.0317167
-0.000864477
0.00111964
0.0311173
-0.0010281
0.00084968
0.0307363
-0.00119294
0.000657378
0.0305166
-0.00134425
0.000520961
0.0304191
-0.00148201
0.000424975
0.0304122
-0.00159007
0.000356269
0.0304742
-0.00166552
0.000305289
0.0305855
-0.00169211
0.000264904
0.0307293
-0.0016662
0.00023111
0.0308866
-0.0015752
0.000202138
-0.00142034
0.000176641
0.0310386
0.0675608
-1.19226e-05
0.00745627
0.0593154
-6.89022e-05
0.00830886
0.052535
-0.000126982
0.00687413
0.0466937
-0.000209615
0.00596203
0.0419053
-0.000303122
0.00492351
0.0382438
-0.000429728
0.00381523
0.0355927
-0.000567189
0.00281737
0.0337322
-0.000734265
0.00204836
0.0324328
-0.00090426
0.00150424
0.0315407
-0.00109757
0.00112517
0.0309437
-0.00128601
0.00085496
0.0305736
-0.00148614
0.000663291
0.0303708
-0.00166789
0.000526386
0.0303008
-0.00184312
0.000431129
0.0303294
-0.00198062
0.000361943
0.0304382
-0.0020859
0.000311554
0.0306045
-0.0021288
0.00027046
0.0308112
-0.00210926
0.000236294
0.0310346
-0.00200481
0.000206233
-0.00181614
0.000179092
0.0312513
0.0675464
-1.96353e-05
0.00746132
0.0592899
-0.000123068
0.00831063
0.0524853
-0.000202767
0.00688039
0.0466205
-0.000314468
0.00596965
0.0417992
-0.000417218
0.0049354
0.0381148
-0.000569821
0.00382447
0.0354379
-0.000715286
0.00282506
0.0335642
-0.000913598
0.00205301
0.0322488
-0.00109627
0.00150745
0.0313542
-0.00133048
0.00112746
0.0307538
-0.00154133
0.000855708
0.0303954
-0.00179273
0.000665053
0.0302069
-0.00200573
0.000526251
0.0301688
-0.0022384
0.000433473
0.0302361
-0.00240995
0.000362019
0.0304028
-0.00256724
0.000314632
0.0306359
-0.00263271
0.000270767
0.0309247
-0.00263653
0.000238492
0.0312344
-0.00252061
0.000206133
-0.002297
0.000177909
0.0315373
0.0675244
-1.66122e-05
0.00747254
0.0592668
-0.000172602
0.0083072
0.052436
-0.00025817
0.00688616
0.0465549
-0.000405561
0.00597223
0.0416925
-0.000504264
0.00494941
0.0379892
-0.000696473
0.00382999
0.0352754
-0.000834664
0.00283317
0.03339
-0.00108342
0.00205519
0.0320446
-0.00126244
0.00151163
0.0311491
-0.00156344
0.00112846
0.0305323
-0.00178058
0.000855998
0.0301885
-0.0021161
0.00066716
0.030004
-0.00234637
0.000525197
0.0300048
-0.00267793
0.000438715
0.0301071
-0.00287304
0.00036084
0.0303479
-0.00313128
0.00032324
0.0306563
-0.00321131
0.000270165
0.0310552
-0.00328315
0.000247692
0.0314747
-0.00314822
0.000208142
-0.00289978
0.000181401
0.0318961
0.0674903
-2.66647e-06
0.00749574
0.0592471
-0.000220828
0.00829141
0.0523815
-0.000287604
0.00689506
0.0464962
-0.000486235
0.00596603
0.0415755
-0.000555051
0.00497142
0.0378654
-0.000813061
0.00382673
0.0350954
-0.00090968
0.00284504
0.0332082
-0.00124698
0.00205074
0.0318082
-0.00138214
0.00151965
0.0309227
-0.00180149
0.00112361
0.0302641
-0.00197726
0.000855277
0.0299486
-0.00246575
0.000665135
0.0297432
-0.00265976
0.000518737
0.0298012
-0.00318065
0.000444732
0.0299201
-0.00334083
0.000348918
0.0302649
-0.00381655
0.000340447
0.0306447
-0.00384556
0.000254463
0.0312029
-0.00411596
0.000274569
0.0317518
-0.00389896
0.000201831
-0.00369544
0.000200066
0.0323474
0.067442
1.91703e-05
0.00753617
0.0592354
-0.000267647
0.00825337
0.0523179
-0.000284075
0.00691403
0.0464453
-0.000558883
0.00594524
0.0414382
-0.00055755
0.0050096
0.0377467
-0.000923558
0.00380195
0.0348907
-0.000920868
0.00286723
0.0330265
-0.00141041
0.00202763
0.0315318
-0.00142449
0.00153699
0.030682
-0.0020522
0.00110053
0.0299344
-0.00208702
0.000857408
0.029677
-0.00285395
0.000645556
0.0294003
-0.00288954
0.000506554
0.029551
-0.00377486
0.000443448
0.0296408
-0.00374611
0.000315529
0.0301428
-0.00468859
0.000370015
0.0305608
-0.00445869
0.00019509
0.031363
-0.00526588
0.000347789
0.0320276
-0.00472313
0.00015956
-0.00485524
0.000278588
0.0329088
0.067383
4.58701e-05
0.0075903
0.0592366
-0.000309568
0.00818829
0.0522448
-0.000241472
0.0069492
0.0464021
-0.000620123
0.00590398
0.0412784
-0.000499556
0.00506574
0.0376374
-0.00102549
0.00374287
0.0346595
-0.000849237
0.00290631
0.0328479
-0.00157105
0.00197221
0.0312087
-0.00135691
0.00157166
0.0304262
-0.0023121
0.00104237
0.0295296
-0.0020613
0.000870943
0.0293654
-0.0032822
0.000592408
0.0289436
-0.00296438
0.000496605
0.0292341
-0.00448263
0.000417291
0.0292163
-0.00398429
0.000256025
0.0299465
-0.0058302
0.000411344
0.0303324
-0.00489268
4.81121e-05
0.0315017
-0.0069594
0.000524219
0.0322244
-0.00544199
-3.83301e-06
-0.0067691
0.000563259
0.033575
0.0673235
7.38039e-05
0.00764853
0.0592533
-0.000344597
0.00810528
0.052167
-0.000157783
0.0070026
0.0463628
-0.000665474
0.00584956
0.041109
-0.000375933
0.00513021
0.0375327
-0.00110967
0.00366043
0.0344064
-0.000682908
0.00296003
0.0326613
-0.00171648
0.00189052
0.0308415
-0.00115815
0.00162097
0.0301443
-0.00256464
0.000949799
0.0290445
-0.00186129
0.00089976
0.0289962
-0.00373266
0.000498723
0.0283564
-0.00282025
0.000495729
0.0288203
-0.00529787
0.000351276
0.0286082
-0.00394858
0.000176476
0.0296191
-0.0073007
0.000459592
0.0298643
-0.00492921
-0.000208673
0.0315426
-0.00951524
0.000877535
0.0321798
-0.00567389
-0.00040535
-0.0102101
0.0013513
0.0342695
0.0672811
9.61425e-05
0.00769651
0.0592789
-0.000370055
0.00802767
0.0520988
-4.19506e-05
0.0070643
0.0463213
-0.00068719
0.00579918
0.040949
-0.000199954
0.00519632
0.0374207
-0.00116348
0.0035821
0.0341535
-0.000432796
0.00301715
0.0324604
-0.00182377
0.00180035
0.0304605
-0.00083465
0.00167647
0.0298361
-0.00277426
0.000833953
0.028511
-0.00148274
0.000946566
0.0285738
-0.00415824
0.000362796
0.0276654
-0.00243369
0.000521798
0.0283194
-0.00617479
0.000222897
0.0278488
-0.00358712
0.000109168
0.0291881
-0.00910717
0.000467169
0.0292064
-0.00437937
-0.000568092
0.0315227
-0.0132663
0.00143478
0.0317367
-0.00474308
-0.00114481
-0.016662
0.00308873
0.0350998
0.067273
7.85617e-05
0.00774455
0.059309
-0.000363173
0.00795712
0.0520535
7.02854e-05
0.00714331
0.0462809
-0.000657909
0.00574331
0.0408132
-3.54503e-05
0.00530318
0.0373008
-0.00115316
0.00350205
0.0339132
-0.000190982
0.00314579
0.0322411
-0.00184292
0.00169124
0.030079
-0.000504946
0.00183248
0.0294917
-0.00286937
0.000682353
0.0279502
-0.00107259
0.00113139
0.0280895
-0.00445355
0.000155988
0.0269079
-0.00197923
0.000727122
0.0277455
-0.0069693
-4.30948e-05
0.0270089
-0.00312078
0.000270319
0.0287712
-0.0111252
0.000255731
0.0287108
-0.00347113
-0.000847859
0.0317455
-0.0181645
0.00186345
0.031325
-0.00195984
-0.00236271
-0.0282294
0.00589982
0.0369925
0.0673426
2.79806e-06
0.00773319
0.0592974
-0.000300438
0.00798246
0.0520624
0.000118267
0.00718696
0.0462137
-0.000555419
0.00574622
0.0407503
3.08279e-05
0.00539717
0.037131
-0.00103537
0.00350146
0.0337361
-9.79614e-05
0.00330191
0.0319435
-0.00169768
0.00164732
0.0297594
-0.000375452
0.00205459
0.0290357
-0.0027122
0.000566523
0.0274471
-0.000930775
0.00144686
0.0274468
-0.00435957
-9.37121e-05
0.0261776
-0.00189453
0.00118445
0.0269596
-0.00717749
-0.000573743
0.0261069
-0.00322903
0.000960961
0.0281725
-0.0124342
-0.000756635
0.0284913
-0.00344563
-0.000344275
0.0329061
-0.0234724
0.000893119
0.0322
0.00399347
-0.00524717
-0.0452165
0.00820269
0.0409844
0.0675155
-0.000168706
0.00765605
0.0592644
-8.13234e-05
0.00803197
0.0521512
1.4853e-05
0.00721655
0.0461165
-0.000250647
0.00572996
0.0407784
-0.00013456
0.00550348
0.0369125
-0.000618608
0.00344913
0.0336271
-0.000332786
0.00352028
0.0315307
-0.00109768
0.00149636
0.0294381
-0.000713141
0.00243032
0.0283349
-0.00186998
0.000260978
0.0267972
-0.00145321
0.00206013
0.0263044
-0.00318729
-0.000679489
0.0250064
-0.00281019
0.00221364
0.0251095
-0.00558904
-0.00169152
0.0240587
-0.00515162
0.00297336
0.0251664
-0.0103699
-0.00317195
0.0255661
-0.0083216
0.00447624
0.0298269
-0.0236361
-0.00409714
0.0292316
0.00158008
0.00300861
-0.0672935
0.00456834
0.0467403
0.0677033
-0.000355097
0.00748307
0.0592613
0.000237863
0.00812284
0.0522281
-0.0001397
0.00718779
0.0459995
0.000134995
0.0058429
0.0407993
-0.000407379
0.00547304
0.0366646
-4.70027e-05
0.00356304
0.0334553
-0.000670164
0.00354675
0.0310119
-0.000307654
0.00165336
0.028949
-0.00118234
0.00253205
0.0273879
-0.000801534
0.000492737
0.0257891
-0.00210133
0.00224684
0.0246394
-0.00175427
-0.000283278
0.0231249
-0.00384654
0.00255086
0.0222018
-0.00380134
-0.00086462
0.0207892
-0.00751814
0.0037791
0.0204362
-0.00870216
-0.00131478
0.0200563
-0.0162597
0.00831799
0.0182046
-0.0224489
0.000664547
0.0236562
-0.0260595
0.022188
-0.0839757
-0.00534857
0.045687
0.0678826
0.00706072
-0.000298416
0.0593165
0.00850583
0.000298099
0.0524118
0.00685645
-9.14165e-05
0.0458018
0.00658406
0.000160941
0.0409407
0.00476454
-0.000310799
0.0364338
0.00443666
2.32107e-05
0.0335928
0.00263855
-0.000467677
0.0306513
0.00290693
-0.000273163
0.0290142
0.00125879
-0.000804027
0.0268124
0.00226268
-0.000862414
0.02571
0.000453314
-0.00145217
0.0236556
0.00235025
-0.00205018
0.0227335
-6.8318e-05
-0.00285608
0.0204072
0.00323219
-0.00470722
0.0197734
-0.000321959
-0.00656237
0.0168672
0.00559123
-0.0113872
0.0153897
0.00342194
-0.0182042
0.0095513
0.0127839
-0.0293944
0.0230649
0.00932762
-0.0489007
-0.0266945
0.0434524
-0.0776687
0.076243
0.000761781
0.00541082
0.0757261
0.00121504
0.00736762
0.0745142
0.00128341
0.00667743
0.0727587
0.00130799
0.0062951
0.0705208
0.00128846
0.00562549
0.068102
0.00123013
0.00462001
0.065737
0.00115564
0.00358474
0.0635229
0.00108096
0.00275869
0.0614702
0.00101037
0.00217592
0.0595845
0.000940529
0.00175432
0.0578744
0.000870465
0.00143148
0.0563463
0.000798271
0.00117758
0.0549904
0.000725337
0.000987411
0.0537949
0.000650745
0.000844987
0.0527436
0.000578628
0.000737289
0.0518219
0.000509719
0.000651164
0.0510119
0.000448429
0.000581488
0.0502979
0.000394507
0.00052214
0.0496603
0.000352223
0.000472417
0.000319993
0.000427734
0.0490837
0.0773762
0.000424954
0.00540608
0.0785203
0.000848403
0.00745642
0.0787599
0.00100078
0.00684492
0.0785819
0.00106593
0.00637101
0.0779038
0.00108505
0.00581756
0.0769157
0.00106293
0.00499098
0.0758305
0.00101133
0.00407097
0.0747704
0.000941916
0.00327782
0.0737721
0.00086604
0.00268393
0.0728533
0.000784238
0.00223805
0.07203
0.000699599
0.00188683
0.0713126
0.000609262
0.00160668
0.0706998
0.000517798
0.00138652
0.0701884
0.000424309
0.0012128
0.0697666
0.000335641
0.00107787
0.0694254
0.000250869
0.000967561
0.0691526
0.000177959
0.000876007
0.0689382
0.000115834
0.000796401
0.068768
7.24145e-05
0.000728527
4.48228e-05
0.000667389
0.0686311
0.0772412
0.000231264
0.00539374
0.0783439
0.000525834
0.00746028
0.0786066
0.000679434
0.00683328
0.0785078
0.000749002
0.00629879
0.0779566
0.000770169
0.00573339
0.0771313
0.000754348
0.00491837
0.076229
0.000710568
0.00400704
0.0753617
0.000641768
0.0032175
0.0745609
0.000557559
0.00262935
0.0738403
0.000459198
0.00219593
0.0732135
0.000353682
0.00185598
0.0726921
0.000239307
0.00158131
0.0722744
0.000124109
0.00136451
0.0719582
4.9497e-06
0.00118998
0.0717281
-9.91427e-05
0.00105034
0.071577
-0.000198975
0.0009355
0.0714924
-0.000282034
0.000839617
0.0714631
-0.000349921
0.000757502
0.0714756
-0.00039152
0.00068745
-0.000410827
0.000624561
0.0715195
0.0771579
0.000127149
0.00539292
0.0781458
0.000322453
0.00748943
0.0783319
0.000440559
0.00687205
0.0781749
0.00049259
0.00632439
0.0775811
0.000500272
0.00574884
0.076731
0.000471614
0.00492746
0.075823
0.000416398
0.00401141
0.0749655
0.000334212
0.00321173
0.0741856
0.000234595
0.0026122
0.073493
0.000117224
0.00216848
0.072899
-7.52758e-06
0.00182441
0.0724161
-0.000150315
0.00155016
0.0720398
-0.000290453
0.00133239
0.0717657
-0.000431837
0.00115606
0.0715857
-0.000562122
0.00101828
0.0714879
-0.000683173
0.000905306
0.0714594
-0.000781377
0.000811753
0.0714905
-0.000858735
0.000728397
0.0715665
-0.000901455
0.000656805
-0.000913714
0.000592634
0.0716757
0.0771135
7.01549e-05
0.00539265
0.0780359
0.000182933
0.00750581
0.0781715
0.000251466
0.00689161
0.0779737
0.000272458
0.00633688
0.077346
0.000258452
0.00575161
0.0764695
0.000209899
0.00492237
0.075544
0.000136292
0.00400013
0.0746785
3.26336e-05
0.00319677
0.0738964
-8.58359e-05
0.0025896
0.0732077
-0.000226501
0.00214085
0.0726251
-0.000378893
0.00179364
0.0721546
-0.000545385
0.00151452
0.0717958
-0.000712518
0.00129458
0.0715448
-0.000882295
0.00111975
0.0713906
-0.00103958
0.000982404
0.0713235
-0.00118541
0.000870122
0.0713311
-0.00130296
0.00077582
0.0714024
-0.00139381
0.000693055
0.0715222
-0.00144069
0.000621363
-0.00144856
0.00055725
0.0716779
0.0770951
3.25077e-05
0.00539365
0.0779827
7.67877e-05
0.00751662
0.0780819
9.8723e-05
0.00690798
0.0778481
8.52635e-05
0.00635889
0.0771849
4.64315e-05
0.00577485
0.0762746
-2.55475e-05
0.00494494
0.0753188
-0.000121917
0.0040218
0.0744254
-0.000247845
0.00321827
0.0736206
-0.000392248
0.00261471
0.0729151
-0.000562551
0.0021661
0.0723203
-0.000745152
0.0018158
0.071846
-0.000944877
0.00153589
0.0714905
-0.00114617
0.001315
0.0712506
-0.00135155
0.00113859
0.0711157
-0.00154291
0.000999228
0.0710764
-0.00172096
0.000884969
0.0711202
-0.00186541
0.000788761
0.0712349
-0.00197647
0.000704297
0.0714043
-0.00203337
0.000630922
-0.00203974
0.000565127
0.0716132
0.0770828
7.59492e-06
0.00539528
0.0779439
-3.70276e-06
0.00752409
0.0780123
-2.34497e-05
0.00692061
0.0777469
-7.34844e-05
0.00637623
0.0770523
-0.000139374
0.00579287
0.0761149
-0.000240815
0.0049575
0.0751328
-0.000360143
0.00402918
0.0742186
-0.000515052
0.00322317
0.0733959
-0.00068653
0.00261591
0.0726772
-0.000890164
0.00216597
0.0720733
-0.00110613
0.00181456
0.0715964
-0.00134548
0.00153486
0.0712447
-0.00158678
0.00131323
0.0710177
-0.00183615
0.00113659
0.0709049
-0.00207033
0.000996452
0.0708982
-0.00229048
0.000881509
0.0709848
-0.00247165
0.000784564
0.071152
-0.00261196
0.0006994
0.0713816
-0.00268632
0.000625529
-0.00269585
0.000558788
0.0716555
0.0770716
-6.11771e-06
0.0053984
0.0779193
-7.07482e-05
0.00752818
0.0779624
-0.000121547
0.00692912
0.0776732
-0.000211372
0.00638915
0.0769476
-0.000298063
0.00580779
0.0759815
-0.000433333
0.0049738
0.0749677
-0.000572728
0.00404382
0.0740273
-0.00076329
0.00323695
0.0731773
-0.000959839
0.00262754
0.0724384
-0.00120455
0.0021785
0.0718163
-0.00145501
0.00182595
0.0713308
-0.00174414
0.00154744
0.0709765
-0.00203049
0.00132437
0.0707595
-0.0023365
0.00114847
0.0706667
-0.00262309
0.00100752
0.0706947
-0.00289975
0.000892788
0.0708289
-0.00313072
0.000795401
0.0710576
-0.00331371
0.000709303
0.07136
-0.00341736
0.000634863
-0.00343738
0.000565971
0.0717147
0.0770568
-5.44554e-06
0.00540386
0.0779007
-0.000131561
0.00752758
0.0779169
-0.000195036
0.00693763
0.0776088
-0.000333588
0.00639992
0.0768482
-0.000424636
0.00582264
0.0758579
-0.000607645
0.00498906
0.0748062
-0.000752253
0.00405629
0.0738411
-0.000994616
0.00324946
0.0729552
-0.00120243
0.0026359
0.0721964
-0.00150724
0.00218895
0.0715476
-0.00178178
0.00183125
0.0710537
-0.00214182
0.00155663
0.0706901
-0.00246863
0.00132802
0.0704852
-0.0028548
0.00115667
0.0704104
-0.00319779
0.00101153
0.0704804
-0.00355535
0.000900249
0.0706695
-0.00384941
0.000800287
0.0709751
-0.00409575
0.000714958
0.0713695
-0.0042455
0.000639835
-0.00428629
0.000568877
0.0718275
0.0770324
1.67709e-05
0.00541791
0.0778889
-0.000198351
0.00751754
0.077867
-0.000235519
0.00694852
0.077551
-0.000451328
0.00640599
0.0767437
-0.000507115
0.00583916
0.0757406
-0.000774635
0.00500002
0.0746367
-0.00088134
0.00406616
0.073655
-0.00121842
0.00326076
0.0727148
-0.00139251
0.00264193
0.0719423
-0.00180704
0.00220073
0.071247
-0.00206198
0.00183147
0.0707497
-0.00254708
0.00156972
0.0703573
-0.00287693
0.00132591
0.0701709
-0.00340125
0.00117153
0.0700996
-0.00377697
0.0010114
0.0702237
-0.00427205
0.000915856
0.0704662
-0.00462715
0.00080539
0.0708698
-0.0049798
0.000728124
0.0713756
-0.00519516
0.00065196
-0.00527232
0.000577771
0.0719653
0.0769919
7.19512e-05
0.00544864
0.0778874
-0.000289303
0.00748689
0.0778031
-0.000223909
0.00696775
0.0775005
-0.000584887
0.00640214
0.0766189
-0.000520372
0.00586635
0.07563
-0.000958186
0.00499911
0.0744442
-0.000925565
0.00407514
0.07347
-0.00146059
0.00326711
0.0724382
-0.00148715
0.00264602
0.0716757
-0.00213413
0.00221321
0.0708924
-0.00224365
0.00182026
0.0704164
-0.00299546
0.00158952
0.0699516
-0.00319735
0.00130399
0.0698097
-0.00401614
0.00120148
0.0697016
-0.00430556
0.000985642
0.0699135
-0.00509576
0.000952285
0.0701825
-0.00543035
0.000788685
0.07073
-0.00601582
0.000763073
0.0713565
-0.00628266
0.000662797
-0.00644201
0.000602621
0.0721236
0.0769311
0.000173047
0.00550398
0.0778986
-0.000425391
0.007422
0.0777173
-0.000132962
0.00700431
0.0774654
-0.000762785
0.00637512
0.0764615
-0.000427381
0.00592049
0.0755321
-0.00119468
0.00496786
0.0742151
-0.000834243
0.00409289
0.0732985
-0.00176805
0.00325162
0.0721114
-0.00141738
0.00265439
0.0714074
-0.00254562
0.00221598
0.0704614
-0.00223501
0.00179476
0.0700574
-0.00355836
0.00161252
0.06944
-0.00331924
0.0012458
0.0693958
-0.00479129
0.00126283
0.0691698
-0.00466117
0.000897138
0.0695361
-0.00613993
0.00104784
0.0697548
-0.00615001
0.000696055
0.070539
-0.00732474
0.00087251
0.0712371
-0.00746763
0.000646438
-0.00789214
0.000685862
0.07228
0.0768524
0.000328725
0.00558223
0.0779195
-0.000621454
0.00731728
0.0776085
6.09904e-05
0.00706621
0.0774526
-0.00100868
0.00630581
0.0762737
-0.000190973
0.00600815
0.0754521
-0.00151522
0.00488504
0.0739418
-0.000554235
0.00413664
0.0731406
-0.00218579
0.00319114
0.0717176
-0.00110671
0.00268395
0.0711347
-0.0031029
0.00218258
0.0699288
-0.00192884
0.0017707
0.0696616
-0.00432287
0.0016241
0.0687772
-0.00309405
0.00115583
0.0688973
-0.00585771
0.00136358
0.0684322
-0.00465203
0.000712011
0.0690295
-0.0075955
0.00126955
0.0690798
-0.0065799
0.000427753
0.0702263
-0.00915173
0.00120474
0.070865
-0.00860253
0.000492299
-0.00984765
0.0010094
0.0723744
0.0767678
0.000539115
0.00567035
0.0779446
-0.000880966
0.00718798
0.0774851
0.000363694
0.00715943
0.0774472
-0.00132727
0.00620605
0.0760654
0.000203535
0.00611749
0.0753836
-0.00192901
0.00475602
0.0736316
-5.45101e-05
0.00421229
0.0729851
-0.00272899
0.00308023
0.0712584
-0.000506205
0.00274718
0.0708468
-0.00383378
0.00209223
0.0692838
-0.00124401
0.00177792
0.0692097
-0.0053422
0.00159214
0.0679345
-0.00239112
0.00106801
0.0682711
-0.00731452
0.00147148
0.0674361
-0.0040865
0.000445996
0.0683022
-0.00964235
0.00164033
0.0680527
-0.0064464
-9.26616e-05
0.0696431
-0.0118159
0.00195127
0.0700884
-0.00944203
-1.11728e-05
-0.0126883
0.00199437
0.072286
0.0767056
0.000779233
0.00575075
0.0779699
-0.00117844
0.00706093
0.0773821
0.000749654
0.00726608
0.0774455
-0.00168337
0.00609192
0.0758797
0.00072126
0.00624437
0.0753217
-0.00239224
0.00460335
0.0733395
0.000620284
0.00432456
0.0728409
-0.00334557
0.00291551
0.0708042
0.000352173
0.00285479
0.0705778
-0.00468089
0.00190747
0.0686084
-0.000188663
0.0018606
0.0687675
-0.00656615
0.00142762
0.0669933
-0.00116382
0.0010687
0.0676128
-0.00914793
0.00143683
0.066259
-0.00282845
0.00020488
0.0674723
-0.0123606
0.00197217
0.0667647
-0.00551824
-0.000788575
0.068858
-0.0155348
0.0030603
0.0689445
-0.00969772
-0.000975559
-0.0167789
0.00406253
0.0720613
0.0767044
0.000960281
0.00585911
0.0779968
-0.001425
0.0069113
0.0773426
0.00112291
0.00742423
0.0774618
-0.00197714
0.0059179
0.0757693
0.00125043
0.00646651
0.0752905
-0.00278434
0.00437298
0.0731296
0.00134169
0.0045852
0.0727501
-0.00388423
0.00260946
0.0704447
0.0013177
0.00317237
0.0703954
-0.00544976
0.00150047
0.0680329
0.00107688
0.00222837
0.0684638
-0.00774186
0.000900758
0.0661452
0.000436617
0.00144528
0.0671607
-0.011071
0.000864539
0.0651613
-0.000956937
0.000398177
0.0669335
-0.0155402
0.00166313
0.0656784
-0.00379694
-0.00131408
0.0684363
-0.0202545
0.0038254
0.0681051
-0.00919158
-0.00253773
-0.0221635
0.00706819
0.0723213
0.0768333
0.000937586
0.00592262
0.0780048
-0.00146276
0.00684866
0.0774444
0.00128868
0.00758163
0.0774472
-0.00200126
0.00576749
0.0758394
0.00151483
0.00674056
0.07522
-0.00283564
0.00417215
0.0731265
0.0017465
0.00499063
0.0726156
-0.00398123
0.00225527
0.0703426
0.0019135
0.00373172
0.0702011
-0.00565503
0.000913341
0.0677952
0.00195134
0.00297832
0.0682485
-0.00823337
-5.55597e-05
0.0657272
0.00173389
0.0024085
0.0670253
-0.0122855
-0.000657432
0.0645671
0.000978523
0.00148374
0.0670459
-0.0184691
-0.000306519
0.0651821
-0.00120526
-0.00107215
0.0692485
-0.0260847
0.0026568
0.0682875
-0.00834375
-0.00513395
-0.0279731
0.00917777
0.073122
0.0771272
0.000520539
0.00594592
0.0779455
-0.000998431
0.00674935
0.0776844
0.00093638
0.00782993
0.0772902
-0.00136994
0.00549279
0.0760209
0.00109493
0.00719274
0.0748979
-0.00205431
0.00379078
0.0731488
0.00125359
0.00576226
0.0720233
-0.00296013
0.00160083
0.0700982
0.00135072
0.00491811
0.0692087
-0.00434639
-0.00015811
0.0671008
0.00131013
0.0048092
0.0666869
-0.00663611
-0.0018628
0.0642979
0.00109181
0.00524466
0.0647061
-0.0106768
-0.00370838
0.0618781
0.000699799
0.00608008
0.0638113
-0.0181825
-0.00539166
0.060387
0.000317808
0.00637743
0.0670361
-0.0326553
-0.00417567
0.0612005
-0.000948227
0.0014487
-0.040946
0.00628408
0.0724577
0.077338
-7.90987e-05
0.0057447
0.0778368
-0.00017708
0.00680271
0.0778083
0.000305668
0.00784695
0.0770691
-0.000342542
0.00555474
0.0760749
0.000256735
0.00730545
0.0744579
-0.000709358
0.00383511
0.072899
0.000248709
0.00611051
0.0710756
-0.0011923
0.00170895
0.0693408
7.24201e-05
0.00554512
0.0674452
-0.00197499
1.69154e-05
0.0655268
-0.000382323
0.00585776
0.0634948
-0.0033563
-0.00153107
0.0613505
-0.00130996
0.00709689
0.0590772
-0.00609367
-0.00317441
0.0566039
-0.00308763
0.0100397
0.0544574
-0.0123195
-0.00503128
0.0516014
-0.00585758
0.0173493
0.0539569
-0.0286475
-0.00569872
0.0487767
-0.00373953
0.0301595
-0.0635736
-0.00534315
0.0713988
0.0772924
0.00479474
-0.00010552
0.0777234
0.00790195
-4.24559e-06
0.0780061
0.00660608
0.000273371
0.0770842
0.00735095
-0.000187554
0.0761982
0.00560981
0.000297502
0.0744054
0.006037
-0.000516899
0.0731085
0.00378138
0.000402772
0.0709982
0.00480074
-0.000975832
0.0695738
0.00235872
0.000396969
0.0672085
0.00436684
-0.00171388
0.0657531
0.00135979
0.000166641
0.0629859
0.00473674
-0.00297566
0.0616129
0.000644742
-0.000649949
0.0580615
0.00604619
-0.00535627
0.0572382
0.000654723
-0.00324106
0.0523934
0.00872286
-0.0106063
0.0555985
0.00563127
-0.0112721
0.0520128
0.0109574
-0.0232352
0.066768
0.0228417
-0.0320088
-0.0344073
0.0920274
-0.0811202
0.0763818
0.000755225
0.0032738
0.0776051
0.00120265
0.00494169
0.0783593
0.00128345
0.00463974
0.0788807
0.00131103
0.00446273
0.0789858
0.00132535
0.00419496
0.0786523
0.00130858
0.00364493
0.0779925
0.00126886
0.00297575
0.0771269
0.00122233
0.00240197
0.0761287
0.0011777
0.00199637
0.0750538
0.00113086
0.00169831
0.0739462
0.00108152
0.00145757
0.0728416
0.00102602
0.00125623
0.0717664
0.000967778
0.00109482
0.0707395
0.000905837
0.000965985
0.0697701
0.000844785
0.000861961
0.0688648
0.000783131
0.00077335
0.0680229
0.000725943
0.000697371
0.0672438
0.000671329
0.000629984
0.0665197
0.000625025
0.0005715
0.00058401
0.000518643
0.0658447
0.0774826
0.00042167
0.00325701
0.0802961
0.000845878
0.00499975
0.0826168
0.00100863
0.00479897
0.0847017
0.00107868
0.00451855
0.086412
0.00112192
0.00431065
0.087684
0.00113508
0.00389249
0.0885767
0.00112127
0.00332586
0.0891996
0.00108502
0.00279224
0.0896336
0.0010403
0.00238734
0.0899343
0.000986605
0.00208154
0.0901406
0.000929102
0.00183292
0.0902877
0.000862074
0.0016236
0.0903996
0.000791833
0.00145051
0.0904953
0.000714865
0.00130816
0.0905859
0.000640201
0.00119185
0.0906805
0.000563786
0.0010923
0.0907812
0.000495398
0.00100585
0.0908905
0.000430786
0.000927651
0.0910053
0.000380176
0.000858542
0.000338217
0.000795375
0.0911231
0.0773426
0.000230446
0.00324233
0.0801162
0.000529292
0.00500326
0.0824803
0.000688287
0.00478956
0.0846231
0.000762915
0.00447179
0.0864309
0.000800093
0.00424735
0.087844
0.00080694
0.00383347
0.0889101
0.000792253
0.00326993
0.0897264
0.00075281
0.00273341
0.090367
0.000700083
0.00232895
0.0908867
0.000631352
0.00203145
0.0913226
0.000556212
0.00179301
0.0917072
0.000468211
0.00159062
0.0920641
0.000377658
0.00142179
0.092409
0.00027861
0.00128131
0.0927508
0.000183667
0.00116508
0.0930982
8.70262e-05
0.00106483
0.0934537
1.26543e-06
0.000978274
0.0938158
-7.23357e-05
0.000898507
0.0941828
-0.00012743
0.000828041
-0.000170429
0.000763919
0.0945521
0.0772583
0.000127188
0.00323786
0.0799304
0.00032514
0.00502148
0.0822319
0.000446868
0.00481201
0.0843285
0.000503435
0.00448724
0.0861011
0.00052397
0.00425237
0.0874884
0.000512399
0.00383467
0.0885425
0.000481402
0.00326818
0.089358
0.000424612
0.00272439
0.0900059
0.000353758
0.00231071
0.0905381
0.000263232
0.00200433
0.090993
0.000165193
0.0017605
0.0914028
5.29957e-05
0.0015556
0.0917903
-6.34884e-05
0.00138611
0.0921714
-0.000190167
0.00124373
0.0925563
-0.00030937
0.00112639
0.0929515
-0.000428998
0.00102614
0.0933569
-0.000531811