/*--------------------------------*- C++ -*----------------------------------*\
| =========                 |                                                 |
| \\      /  F ield         | OpenFOAM: The Open Source CFD Toolbox           |
|  \\    /   O peration     | Version:  v1806                                 |
|   \\  /    A nd           | Web:      www.OpenFOAM.com                      |
|    \\/     M anipulation  |                                                 |
\*---------------------------------------------------------------------------*/
FoamFile
{
    version     2.0;
    format      ascii;
    class       volVectorField;
    location    "90";
    object      U;
}
// * * * * * * * * * * * * * * * * * * * * * * * * * * * * * * * * * * * * * //

dimensions      [0 1 -1 0 0 0 0];


internalField   nonuniform List<vector> 
2400
(
(0.300031 -7.88395e-05 0)
(0.300017 -0.00125483 0)
(0.299812 -0.00185203 0)
(0.299916 -0.00125309 0)
(0.300202 -0.00251166 0)
(0.299946 -0.00624459 0)
(0.299218 -0.00807715 0)
(0.299158 -0.00700696 0)
(0.299671 -0.00829622 0)
(0.299571 -0.0151423 0)
(0.298121 -0.0225052 0)
(0.296696 -0.0263488 0)
(0.295873 -0.0298635 0)
(0.294947 -0.0392426 0)
(0.292223 -0.0534801 0)
(0.287306 -0.0693548 0)
(0.279372 -0.0861442 0)
(0.265998 -0.106057 0)
(0.245475 -0.127825 0)
(0.216341 -0.144932 0)
(0.300031 -8.99292e-05 0)
(0.300011 -0.00120544 0)
(0.29978 -0.00181756 0)
(0.299847 -0.00134042 0)
(0.300102 -0.00253532 0)
(0.299817 -0.00602488 0)
(0.299009 -0.00786213 0)
(0.298808 -0.0070797 0)
(0.299164 -0.00841374 0)
(0.298957 -0.0148147 0)
(0.297326 -0.021802 0)
(0.295541 -0.0257719 0)
(0.294136 -0.0294386 0)
(0.292581 -0.0384027 0)
(0.289039 -0.05158 0)
(0.282907 -0.0660643 0)
(0.27343 -0.0805355 0)
(0.259022 -0.0969368 0)
(0.239023 -0.114195 0)
(0.213075 -0.127635 0)
(0.300029 -9.58483e-05 0)
(0.300002 -0.00115507 0)
(0.299749 -0.00178445 0)
(0.299773 -0.00139331 0)
(0.299972 -0.00251045 0)
(0.299641 -0.00579957 0)
(0.298744 -0.00765545 0)
(0.298377 -0.00709047 0)
(0.298514 -0.00839564 0)
(0.298149 -0.0144193 0)
(0.296303 -0.0210978 0)
(0.294135 -0.0250988 0)
(0.292109 -0.0287488 0)
(0.289934 -0.0373123 0)
(0.285701 -0.0496148 0)
(0.278876 -0.0630925 0)
(0.268982 -0.0763424 0)
(0.25494 -0.0917211 0)
(0.236295 -0.108196 0)
(0.211456 -0.121114 0)
(0.300027 -0.000100345 0)
(0.299992 -0.00110371 0)
(0.299726 -0.00173594 0)
(0.299701 -0.00142002 0)
(0.299827 -0.00247407 0)
(0.299453 -0.00557202 0)
(0.298483 -0.00739954 0)
(0.297943 -0.00700291 0)
(0.297832 -0.00830644 0)
(0.297291 -0.013997 0)
(0.29523 -0.0203053 0)
(0.292716 -0.0242349 0)
(0.290117 -0.0278427 0)
(0.28738 -0.0360455 0)
(0.28254 -0.0474504 0)
(0.275226 -0.0599655 0)
(0.264979 -0.0719118 0)
(0.25099 -0.0856366 0)
(0.232934 -0.0996088 0)
(0.210006 -0.110414 0)
(0.300023 -0.000102961 0)
(0.299984 -0.0010481 0)
(0.299707 -0.00167502 0)
(0.299629 -0.00142767 0)
(0.29968 -0.00242 0)
(0.299269 -0.00531981 0)
(0.298228 -0.00709196 0)
(0.297523 -0.00684485 0)
(0.297171 -0.00814858 0)
(0.296447 -0.0134982 0)
(0.294159 -0.0193973 0)
(0.291344 -0.0232149 0)
(0.288238 -0.0267423 0)
(0.285011 -0.0345759 0)
(0.279618 -0.045089 0)
(0.271905 -0.0566761 0)
(0.26141 -0.0673513 0)
(0.247596 -0.0798789 0)
(0.230508 -0.0925525 0)
(0.208815 -0.102415 0)
(0.300019 -0.000103429 0)
(0.299977 -0.000989809 0)
(0.299688 -0.00160342 0)
(0.299559 -0.00141287 0)
(0.29954 -0.00234304 0)
(0.29909 -0.00504646 0)
(0.297977 -0.0067448 0)
(0.297126 -0.00661851 0)
(0.296551 -0.00790848 0)
(0.295638 -0.0129185 0)
(0.293113 -0.0183938 0)
(0.290041 -0.0220604 0)
(0.286489 -0.0254631 0)
(0.28284 -0.032925 0)
(0.27692 -0.0425449 0)
(0.268898 -0.0532879 0)
(0.258213 -0.0628268 0)
(0.244631 -0.0743865 0)
(0.228274 -0.0854963 0)
(0.207929 -0.0943076 0)
(0.300016 -0.000102034 0)
(0.29997 -0.000928943 0)
(0.299668 -0.00152046 0)
(0.299493 -0.00137648 0)
(0.29941 -0.00224585 0)
(0.298917 -0.00475365 0)
(0.297732 -0.00635913 0)
(0.296754 -0.00632701 0)
(0.295974 -0.00759158 0)
(0.294873 -0.0122614 0)
(0.292107 -0.0173009 0)
(0.288819 -0.0207869 0)
(0.284867 -0.0240279 0)
(0.280856 -0.0311091 0)
(0.274435 -0.0398506 0)
(0.266177 -0.0498428 0)
(0.255341 -0.0582881 0)
(0.241996 -0.069043 0)
(0.226416 -0.0788822 0)
(0.207199 -0.0869149 0)
(0.300013 -9.89488e-05 0)
(0.299964 -0.000865007 0)
(0.299647 -0.00142681 0)
(0.299432 -0.00132125 0)
(0.299291 -0.00212933 0)
(0.298753 -0.00443954 0)
(0.297495 -0.0059376 0)
(0.296408 -0.00597859 0)
(0.29544 -0.00720333 0)
(0.294157 -0.0115267 0)
(0.291155 -0.0161248 0)
(0.287685 -0.0194092 0)
(0.283365 -0.0224555 0)
(0.279051 -0.0291474 0)
(0.272143 -0.0370201 0)
(0.263723 -0.0463439 0)
(0.252725 -0.0537461 0)
(0.239646 -0.0639489 0)
(0.22477 -0.0725243 0)
(0.206592 -0.0800602 0)
(0.300011 -9.43082e-05 0)
(0.299958 -0.000797796 0)
(0.299626 -0.00132347 0)
(0.299376 -0.00124922 0)
(0.299182 -0.00199382 0)
(0.298598 -0.00410391 0)
(0.297269 -0.00548404 0)
(0.296089 -0.00557948 0)
(0.294948 -0.00674793 0)
(0.293496 -0.0107166 0)
(0.290263 -0.0148727 0)
(0.286641 -0.0179387 0)
(0.281977 -0.0207623 0)
(0.277417 -0.0270511 0)
(0.270028 -0.0340654 0)
(0.261511 -0.0428083 0)
(0.250318 -0.0492014 0)
(0.23752 -0.0590555 0)
(0.223296 -0.0664309 0)
(0.206044 -0.0737392 0)
(0.300009 -8.82477e-05 0)
(0.299952 -0.000727237 0)
(0.299606 -0.00121129 0)
(0.299325 -0.00116219 0)
(0.299083 -0.00184035 0)
(0.298455 -0.00374738 0)
(0.297058 -0.00500145 0)
(0.295796 -0.00513479 0)
(0.294499 -0.00623073 0)
(0.292891 -0.00983523 0)
(0.289438 -0.0135519 0)
(0.285689 -0.0163841 0)
(0.280701 -0.0189616 0)
(0.275945 -0.0248306 0)
(0.26807 -0.0309994 0)
(0.259526 -0.0392381 0)
(0.248063 -0.0446379 0)
(0.235577 -0.054382 0)
(0.221914 -0.0605361 0)
(0.20548 -0.0680071 0)
(0.300008 -8.08939e-05 0)
(0.299947 -0.000653365 0)
(0.299586 -0.00109118 0)
(0.299279 -0.00106192 0)
(0.298994 -0.00167018 0)
(0.298324 -0.00337093 0)
(0.296863 -0.00449265 0)
(0.295532 -0.00464939 0)
(0.294093 -0.00565757 0)
(0.292345 -0.00888761 0)
(0.288684 -0.0121692 0)
(0.284833 -0.0147524 0)
(0.279533 -0.0170664 0)
(0.27463 -0.0224931 0)
(0.266256 -0.0278325 0)
(0.257752 -0.0356292 0)
(0.245906 -0.0400444 0)
(0.233784 -0.0499139 0)
(0.220541 -0.054791 0)
(0.204825 -0.062894 0)
(0.300007 -7.23739e-05 0)
(0.299942 -0.00057635 0)
(0.299567 -0.000964005 0)
(0.299239 -0.000950046 0)
(0.298915 -0.00148474 0)
(0.298207 -0.00297599 0)
(0.296687 -0.00396049 0)
(0.295296 -0.00412787 0)
(0.29373 -0.00503443 0)
(0.291858 -0.00787924 0)
(0.288008 -0.0107318 0)
(0.284071 -0.0130492 0)
(0.278474 -0.0150888 0)
(0.273466 -0.0200426 0)
(0.264574 -0.0245752 0)
(0.25618 -0.0319684 0)
(0.243795 -0.0354052 0)
(0.232124 -0.0456385 0)
(0.219072 -0.0491248 0)
(0.203987 -0.0584972 0)
(0.300006 -6.28229e-05 0)
(0.299938 -0.000496458 0)
(0.299551 -0.000830641 0)
(0.299204 -0.000828089 0)
(0.298846 -0.00128564 0)
(0.298104 -0.00256435 0)
(0.296532 -0.00340777 0)
(0.29509 -0.00357464 0)
(0.293413 -0.00436739 0)
(0.291433 -0.00681617 0)
(0.287412 -0.0092467 0)
(0.283403 -0.0112794 0)
(0.277529 -0.0130406 0)
(0.272447 -0.0174802 0)
(0.263019 -0.0212391 0)
(0.2548 -0.0282311 0)
(0.241676 -0.0307083 0)
(0.230598 -0.0415248 0)
(0.217362 -0.0434556 0)
(0.202877 -0.054951 0)
(0.300005 -5.23848e-05 0)
(0.299934 -0.000414024 0)
(0.299536 -0.000691939 0)
(0.299175 -0.000697566 0)
(0.298788 -0.00107465 0)
(0.298017 -0.00213809 0)
(0.296399 -0.00283722 0)
(0.294913 -0.0029941 0)
(0.293142 -0.00366256 0)
(0.291068 -0.00570488 0)
(0.286902 -0.00772085 0)
(0.282826 -0.00944785 0)
(0.276704 -0.0109333 0)
(0.271565 -0.0148045 0)
(0.261595 -0.0178377 0)
(0.253602 -0.0243807 0)
(0.239502 -0.0259497 0)
(0.22923 -0.0375146 0)
(0.215191 -0.0376869 0)
(0.201446 -0.0524676 0)
(0.300004 -4.1214e-05 0)
(0.299932 -0.000329433 0)
(0.299524 -0.00054875 0)
(0.299151 -0.000559988 0)
(0.29874 -0.000853636 0)
(0.297945 -0.00169949 0)
(0.29629 -0.00225158 0)
(0.294767 -0.00239076 0)
(0.292921 -0.00292601 0)
(0.290764 -0.00455238 0)
(0.286484 -0.00616078 0)
(0.282338 -0.00755948 0)
(0.276012 -0.00877819 0)
(0.270808 -0.012013 0)
(0.260323 -0.0143868 0)
(0.252564 -0.0203657 0)
(0.237248 -0.0211402 0)
(0.228054 -0.0334996 0)
(0.212231 -0.031723 0)
(0.199794 -0.0513952 0)
(0.300003 -2.94769e-05 0)
(0.29993 -0.000243109 0)
(0.299514 -0.000401923 0)
(0.299133 -0.000416869 0)
(0.298703 -0.000624548 0)
(0.29789 -0.00125102 0)
(0.296205 -0.00165352 0)
(0.294651 -0.00176924 0)
(0.292751 -0.00216367 0)
(0.290521 -0.00336634 0)
(0.286162 -0.00457251 0)
(0.281933 -0.00562073 0)
(0.27547 -0.00658541 0)
(0.270155 -0.00910428 0)
(0.259248 -0.0109039 0)
(0.251637 -0.0161192 0)
(0.234948 -0.0163119 0)
(0.227062 -0.0292881 0)
(0.208005 -0.0255033 0)
(0.198387 -0.0523505 0)
(0.300002 -1.73551e-05 0)
(0.299929 -0.000155497 0)
(0.299507 -0.000252317 0)
(0.29912 -0.00026973 0)
(0.298677 -0.000389426 0)
(0.297851 -0.000795247 0)
(0.296145 -0.00104573 0)
(0.294566 -0.00113439 0)
(0.292633 -0.00138128 0)
(0.290337 -0.00215513 0)
(0.285945 -0.00296111 0)
(0.281604 -0.00364051 0)
(0.275101 -0.0043629 0)
(0.269579 -0.00608311 0)
(0.258447 -0.00740429 0)
(0.250726 -0.0115678 0)
(0.232765 -0.0115168 0)
(0.226077 -0.0245383 0)
(0.201982 -0.0191087 0)
(0.198223 -0.0560731 0)
(0.300002 -5.05153e-06 0)
(0.29993 -6.70586e-05 0)
(0.299502 -0.000100785 0)
(0.299113 -0.000120124 0)
(0.298661 -0.000150405 0)
(0.29783 -0.000334879 0)
(0.296111 -0.000430788 0)
(0.294513 -0.000491368 0)
(0.29257 -0.000584446 0)
(0.290213 -0.000928126 0)
(0.285835 -0.00133009 0)
(0.281348 -0.00163132 0)
(0.274927 -0.00211411 0)
(0.26905 -0.00296718 0)
(0.258029 -0.0038942 0)
(0.249677 -0.00666385 0)
(0.231091 -0.00680133 0)
(0.224498 -0.0186575 0)
(0.194153 -0.0130481 0)
(0.200135 -0.0623981 0)
(0.300001 7.20564e-06 0)
(0.299931 2.16058e-05 0)
(0.2995 5.19074e-05 0)
(0.299112 3.02866e-05 0)
(0.298657 9.05794e-05 0)
(0.297827 0.000126899 0)
(0.296104 0.000189154 0)
(0.294492 0.000154463 0)
(0.29256 0.000221918 0)
(0.290152 0.000304086 0)
(0.285835 0.000318696 0)
(0.281165 0.000392155 0)
(0.274962 0.000163933 0)
(0.268548 0.00021025 0)
(0.258096 -0.000353257 0)
(0.248325 -0.00144532 0)
(0.230578 -0.00213275 0)
(0.221079 -0.0110732 0)
(0.186787 -0.00793384 0)
(0.20163 -0.0700628 0)
(0.3 1.92758e-05 0)
(0.299934 0.000110139 0)
(0.299501 0.00020495 0)
(0.299118 0.000180198 0)
(0.298663 0.00033152 0)
(0.297841 0.000587634 0)
(0.296122 0.000810844 0)
(0.294505 0.000798792 0)
(0.292603 0.00103178 0)
(0.290156 0.0015328 0)
(0.28594 0.00197898 0)
(0.281067 0.00241549 0)
(0.275197 0.00246914 0)
(0.268106 0.00341539 0)
(0.258655 0.00323717 0)
(0.246683 0.00401759 0)
(0.231676 0.00264911 0)
(0.214677 -0.00150823 0)
(0.185558 -0.00447842 0)
(0.188744 -0.0835961 0)
(0.197729 -0.150226 0)
(0.194193 -0.151129 0)
(0.190756 -0.151926 0)
(0.187319 -0.152608 0)
(0.183833 -0.153173 0)
(0.180303 -0.153616 0)
(0.176747 -0.153935 0)
(0.173182 -0.154126 0)
(0.169623 -0.154189 0)
(0.166077 -0.154119 0)
(0.19752 -0.131095 0)
(0.194466 -0.131649 0)
(0.191253 -0.132117 0)
(0.187971 -0.132504 0)
(0.184667 -0.132809 0)
(0.181344 -0.133029 0)
(0.177994 -0.133166 0)
(0.174613 -0.133221 0)
(0.171197 -0.133195 0)
(0.16775 -0.133097 0)
(0.195837 -0.12498 0)
(0.192857 -0.125642 0)
(0.189938 -0.126216 0)
(0.187028 -0.126693 0)
(0.1841 -0.127072 0)
(0.181153 -0.127354 0)
(0.178197 -0.127535 0)
(0.17524 -0.127613 0)
(0.172287 -0.127587 0)
(0.169342 -0.127451 0)
(0.19643 -0.112916 0)
(0.193791 -0.113309 0)
(0.19106 -0.113629 0)
(0.188279 -0.113882 0)
(0.185473 -0.114066 0)
(0.182644 -0.11418 0)
(0.17979 -0.114222 0)
(0.176911 -0.114194 0)
(0.174007 -0.114096 0)
(0.17108 -0.11393 0)
(0.195688 -0.104987 0)
(0.193159 -0.105414 0)
(0.190633 -0.105771 0)
(0.1881 -0.106052 0)
(0.185554 -0.106256 0)
(0.182993 -0.106381 0)
(0.180422 -0.106427 0)
(0.177843 -0.106392 0)
(0.17526 -0.106274 0)
(0.172674 -0.106073 0)
(0.196118 -0.0961098 0)
(0.193831 -0.0963815 0)
(0.191491 -0.0965882 0)
(0.189119 -0.0967325 0)
(0.186727 -0.096814 0)
(0.184316 -0.0968318 0)
(0.181887 -0.0967858 0)
(0.179439 -0.0966762 0)
(0.176974 -0.0965037 0)
(0.174495 -0.0962691 0)
(0.196166 -0.0885091 0)
(0.194024 -0.0887523 0)
(0.19185 -0.0889344 0)
(0.189657 -0.0890544 0)
(0.187452 -0.089111 0)
(0.185234 -0.0891033 0)
(0.183002 -0.0890309 0)
(0.180759 -0.0888933 0)
(0.178505 -0.0886906 0)
(0.176243 -0.0884223 0)
(0.1966 -0.0812315 0)
(0.194651 -0.0813886 0)
(0.19265 -0.081485 0)
(0.190623 -0.081523 0)
(0.188581 -0.0815024 0)
(0.186524 -0.0814227 0)
(0.18445 -0.0812843 0)
(0.18236 -0.0810878 0)
(0.180254 -0.0808339 0)
(0.178134 -0.0805237 0)
(0.197036 -0.0746266 0)
(0.195262 -0.0747298 0)
(0.193428 -0.0747733 0)
(0.191566 -0.0747596 0)
(0.189692 -0.0746881 0)
(0.187804 -0.0745586 0)
(0.1859 -0.0743712 0)
(0.183979 -0.0741267 0)
(0.182042 -0.0738259 0)
(0.18009 -0.0734695 0)
(0.19762 -0.0685858 0)
(0.196047 -0.0686231 0)
(0.19439 -0.0685984 0)
(0.1927 -0.0685163 0)
(0.190997 -0.0683767 0)
(0.189279 -0.0681796 0)
(0.187542 -0.0679256 0)
(0.185785 -0.0676162 0)
(0.184007 -0.0672529 0)
(0.182209 -0.0668371 0)
(0.198298 -0.0631911 0)
(0.196947 -0.0631652 0)
(0.195482 -0.0630736 0)
(0.193975 -0.0629228 0)
(0.192456 -0.0627129 0)
(0.190922 -0.0624436 0)
(0.189365 -0.0621162 0)
(0.187783 -0.0617325 0)
(0.186176 -0.0612945 0)
(0.184544 -0.0608039 0)
(0.199116 -0.0585065 0)
(0.198033 -0.0584103 0)
(0.196788 -0.0582413 0)
(0.195486 -0.058009 0)
(0.194175 -0.0577136 0)
(0.192846 -0.0573546 0)
(0.191489 -0.0569338 0)
(0.190099 -0.0564538 0)
(0.188676 -0.0559173 0)
(0.187219 -0.0553268 0)
(0.20014 -0.0546605 0)
(0.199389 -0.0544849 0)
(0.198405 -0.0542256 0)
(0.197346 -0.0538959 0)
(0.196278 -0.0534954 0)
(0.19519 -0.0530234 0)
(0.194064 -0.052482 0)
(0.192894 -0.0518748 0)
(0.191676 -0.0512053 0)
(0.190411 -0.0504766 0)
(0.201531 -0.0518438 0)
(0.201205 -0.0515725 0)
(0.200543 -0.0512002 0)
(0.19978 -0.0507445 0)
(0.199006 -0.0502043 0)
(0.198205 -0.0495784 0)
(0.197349 -0.0488695 0)
(0.196427 -0.0480822 0)
(0.195435 -0.0472212 0)
(0.194372 -0.0462909 0)
(0.203603 -0.0503359 0)
(0.203819 -0.049937 0)
(0.203554 -0.0494098 0)
(0.203143 -0.0487756 0)
(0.202712 -0.0480322 0)
(0.202234 -0.0471779 0)
(0.20167 -0.0462166 0)
(0.201001 -0.0451548 0)
(0.200224 -0.0439994 0)
(0.199333 -0.0427575 0)
(0.206824 -0.0504845 0)
(0.207674 -0.0498707 0)
(0.207839 -0.0490902 0)
(0.207786 -0.0481675 0)
(0.207683 -0.0470967 0)
(0.207488 -0.0458751 0)
(0.207143 -0.0445085 0)
(0.206626 -0.0430069 0)
(0.205932 -0.0413816 0)
(0.205058 -0.0396455 0)
(0.211456 -0.0525129 0)
(0.21282 -0.0514637 0)
(0.213191 -0.0501755 0)
(0.213231 -0.0486912 0)
(0.21316 -0.0470088 0)
(0.212919 -0.0451291 0)
(0.212435 -0.043064 0)
(0.211683 -0.0408309 0)
(0.210664 -0.0384487 0)
(0.209382 -0.0359401 0)
(0.21552 -0.0555398 0)
(0.216728 -0.0537554 0)
(0.216424 -0.0516299 0)
(0.215559 -0.0492062 0)
(0.214487 -0.0465042 0)
(0.213166 -0.0435521 0)
(0.211526 -0.0403803 0)
(0.209565 -0.0370142 0)
(0.207308 -0.0334738 0)
(0.204767 -0.0297821 0)
(0.206868 -0.0532324 0)
(0.205362 -0.0497182 0)
(0.202053 -0.0461343 0)
(0.198205 -0.0424177 0)
(0.194233 -0.0385519 0)
(0.19014 -0.0345737 0)
(0.185942 -0.0305173 0)
(0.181714 -0.0263926 0)
(0.177511 -0.0221756 0)
(0.173261 -0.0178181 0)
(0.148439 -0.0432968 0)
(0.1367 -0.0361955 0)
(0.124537 -0.0298989 0)
(0.114173 -0.0243169 0)
(0.105463 -0.0193862 0)
(0.0979875 -0.0150645 0)
(0.0916017 -0.0112649 0)
(0.086276 -0.00780417 0)
(0.0818918 -0.00429578 0)
(0.078447 0.000151369 0)
(0.159211 -0.153725 0)
(0.148628 -0.152269 0)
(0.138153 -0.149975 0)
(0.127959 -0.146871 0)
(0.118067 -0.142997 0)
(0.108513 -0.138405 0)
(0.0993488 -0.133158 0)
(0.0906246 -0.127322 0)
(0.082385 -0.120959 0)
(0.0746703 -0.114126 0)
(0.0675166 -0.106872 0)
(0.0609559 -0.0992358 0)
(0.0550157 -0.0912432 0)
(0.0497196 -0.0829098 0)
(0.0450882 -0.0742383 0)
(0.041142 -0.065224 0)
(0.0379041 -0.0558743 0)
(0.0354049 -0.0462794 0)
(0.0336368 -0.0368409 0)
(0.0324176 -0.0291267 0)
(0.161369 -0.132808 0)
(0.152447 -0.131689 0)
(0.143603 -0.129823 0)
(0.134767 -0.127246 0)
(0.126017 -0.124006 0)
(0.117435 -0.120163 0)
(0.10908 -0.11577 0)
(0.101 -0.110881 0)
(0.0932393 -0.105546 0)
(0.0858363 -0.0998123 0)
(0.0788322 -0.0937187 0)
(0.0722702 -0.087295 0)
(0.0661962 -0.0805598 0)
(0.060659 -0.0735213 0)
(0.0557108 -0.0661794 0)
(0.0514085 -0.0585305 0)
(0.0478165 -0.0505843 0)
(0.0450096 -0.0424179 0)
(0.0430102 -0.034361 0)
(0.0414875 -0.0276843 0)
(0.163738 -0.126958 0)
(0.155161 -0.125505 0)
(0.14654 -0.123385 0)
(0.138045 -0.120629 0)
(0.129745 -0.117281 0)
(0.121687 -0.113386 0)
(0.113912 -0.108988 0)
(0.106452 -0.104131 0)
(0.0993287 -0.0988654 0)
(0.0925624 -0.093241 0)
(0.0861723 -0.0873074 0)
(0.0801817 -0.0811071 0)
(0.0746193 -0.074672 0)
(0.0695214 -0.0680229 0)
(0.0649331 -0.0611724 0)
(0.0609096 -0.05413 0)
(0.0575173 -0.0469167 0)
(0.0548341 -0.0396035 0)
(0.0528998 -0.0324434 0)
(0.0513125 -0.0263978 0)
(0.1656 -0.113503 0)
(0.157716 -0.1123 0)
(0.149901 -0.110508 0)
(0.142153 -0.108162 0)
(0.134516 -0.105296 0)
(0.127036 -0.10194 0)
(0.119758 -0.0981214 0)
(0.112721 -0.093875 0)
(0.105962 -0.0892406 0)
(0.0995167 -0.084263 0)
(0.093418 -0.0789885 0)
(0.0876991 -0.0734598 0)
(0.0823947 -0.0677131 0)
(0.0775422 -0.0617774 0)
(0.0731832 -0.0556766 0)
(0.0693646 -0.0494334 0)
(0.0661389 -0.0430804 0)
(0.0635631 -0.0366837 0)
(0.0616803 -0.0304284 0)
(0.0600302 -0.0249943 0)
(0.16779 -0.105522 0)
(0.16049 -0.104138 0)
(0.153173 -0.102226 0)
(0.145911 -0.0998172 0)
(0.138754 -0.0969436 0)
(0.13174 -0.0936387 0)
(0.124908 -0.0899345 0)
(0.118291 -0.0858643 0)
(0.111919 -0.0814664 0)
(0.105819 -0.0767851 0)
(0.100023 -0.0718669 0)
(0.0945656 -0.0667557 0)
(0.0894835 -0.0614893 0)
(0.0848178 -0.0560982 0)
(0.0806121 -0.0506081 0)
(0.0769113 -0.0450438 0)
(0.0737604 -0.0394374 0)
(0.0712014 -0.0338422 0)
(0.0692896 -0.0283847 0)
(0.06751 -0.0235005 0)
(0.169833 -0.0957138 0)
(0.163008 -0.0944157 0)
(0.156193 -0.0926433 0)
(0.149416 -0.0904255 0)
(0.142716 -0.0877917 0)
(0.13613 -0.0847666 0)
(0.129693 -0.0813731 0)
(0.123433 -0.0776384 0)
(0.117381 -0.0735987 0)
(0.111563 -0.0693003 0)
(0.10601 -0.0647953 0)
(0.100757 -0.0601348 0)
(0.0958423 -0.0553634 0)
(0.091308 -0.0505166 0)
(0.0871976 -0.0456227 0)
(0.0835536 -0.0407073 0)
(0.0804162 -0.035799 0)
(0.0778147 -0.0309388 0)
(0.0758237 -0.0262117 0)
(0.0738646 -0.0218585 0)
(0.171976 -0.0877871 0)
(0.165638 -0.0863938 0)
(0.15927 -0.0845731 0)
(0.152914 -0.082357 0)
(0.146606 -0.0797744 0)
(0.140379 -0.0768492 0)
(0.134265 -0.0736026 0)
(0.128292 -0.0700592 0)
(0.122487 -0.0662535 0)
(0.116879 -0.0622323 0)
(0.111497 -0.0580509 0)
(0.106378 -0.0537647 0)
(0.101562 -0.0494223 0)
(0.0970928 -0.0450612 0)
(0.0930147 -0.0407088 0)
(0.0893689 -0.0363866 0)
(0.0861928 -0.032116 0)
(0.0835055 -0.0279242 0)
(0.0814049 -0.0238671 0)
(0.079236 -0.020037 0)
(0.174137 -0.0798331 0)
(0.168217 -0.0784088 0)
(0.162255 -0.076598 0)
(0.156277 -0.0744317 0)
(0.150316 -0.0719374 0)
(0.144402 -0.069136 0)
(0.138562 -0.0660453 0)
(0.132823 -0.0626877 0)
(0.127211 -0.0590983 0)
(0.121753 -0.0553274 0)
(0.116482 -0.0514368 0)
(0.111437 -0.0474893 0)
(0.10666 -0.0435397 0)
(0.102199 -0.0396279 0)
(0.0980999 -0.0357796 0)
(0.0944056 -0.0320106 0)
(0.0911528 -0.0283328 0)
(0.0883521 -0.02476 0)
(0.0861267 -0.021327 0)
(0.0837364 -0.0180207 0)
(0.176403 -0.0726915 0)
(0.170894 -0.0711635 0)
(0.165308 -0.0692836 0)
(0.159667 -0.0670858 0)
(0.154002 -0.0645978 0)
(0.14834 -0.0618396 0)
(0.142707 -0.0588274 0)
(0.137129 -0.0555828 0)
(0.131633 -0.0521421 0)
(0.126249 -0.0485603 0)
(0.121013 -0.0449059 0)
(0.115969 -0.0412498 0)
(0.111165 -0.037652 0)
(0.106652 -0.0341542 0)
(0.102483 -0.0307783 0)
(0.0986995 -0.0275317 0)
(0.0953406 -0.0244147 0)
(0.092409 -0.0214264 0)
(0.0900535 -0.0185845 0)
(0.087445 -0.0158089 0)
(0.178805 -0.0659551 0)
(0.173686 -0.0642997 0)
(0.168447 -0.0623201 0)
(0.163106 -0.0600532 0)
(0.157686 -0.0575282 0)
(0.152215 -0.0547648 0)
(0.146719 -0.0517792 0)
(0.141224 -0.0485943 0)
(0.135762 -0.0452505 0)
(0.130369 -0.0418096 0)
(0.125087 -0.0383493 0)
(0.119969 -0.0349494 0)
(0.115071 -0.0316757 0)
(0.110451 -0.0285702 0)
(0.106165 -0.0256493 0)
(0.10226 -0.0229093 0)
(0.0987749 -0.0203367 0)
(0.0957048 -0.0179148 0)
(0.093222 -0.0156448 0)
(0.0904113 -0.0134118 0)
(0.18144 -0.0597811 0)
(0.176707 -0.0579306 0)
(0.171792 -0.0557758 0)
(0.166704 -0.0533596 0)
(0.161466 -0.0507148 0)
(0.156105 -0.0478639 0)
(0.150652 -0.044826 0)
(0.145138 -0.0416289 0)
(0.139605 -0.0383196 0)
(0.134099 -0.0349692 0)
(0.128677 -0.0316653 0)
(0.123401 -0.0284963 0)
(0.118339 -0.0255325 0)
(0.113558 -0.0228135 0)
(0.109119 -0.0203469 0)
(0.105069 -0.0181149 0)
(0.101448 -0.0160869 0)
(0.0982431 -0.0142288 0)
(0.0956448 -0.012524 0)
(0.0926614 -0.0108504 0)
(0.184428 -0.0541138 0)
(0.180079 -0.0519836 0)
(0.175454 -0.049559 0)
(0.170555 -0.0468935 0)
(0.165406 -0.0440283 0)
(0.160043 -0.040993 0)
(0.154503 -0.037815 0)
(0.148836 -0.0345312 0)
(0.143099 -0.031199 0)
(0.137358 -0.0279002 0)
(0.131688 -0.0247324 0)
(0.126167 -0.0217904 0)
(0.120877 -0.0191454 0)
(0.115891 -0.0168304 0)
(0.111274 -0.0148393 0)
(0.107072 -0.0131359 0)
(0.103323 -0.0116695 0)
(0.100003 -0.010387 0)
(0.0973136 -0.00925237 0)
(0.0942029 -0.00815773 0)
(0.187956 -0.0489942 0)
(0.183974 -0.0464479 0)
(0.179571 -0.0436074 0)
(0.174746 -0.0405459 0)
(0.169535 -0.037321 0)
(0.163994 -0.0339772 0)
(0.158185 -0.0305569 0)
(0.152184 -0.0271115 0)
(0.146077 -0.0237112 0)
(0.13996 -0.0204475 0)
(0.13393 -0.0174243 0)
(0.128085 -0.0147377 0)
(0.122518 -0.0124526 0)
(0.117307 -0.0105886 0)
(0.112515 -0.00911944 0)
(0.108181 -0.0079859 0)
(0.104337 -0.00711373 0)
(0.100945 -0.00643002 0)
(0.0982044 -0.00587814 0)
(0.0950314 -0.00538091 0)
(0.192253 -0.0444076 0)
(0.188554 -0.0412287 0)
(0.184209 -0.0377549 0)
(0.179236 -0.0340961 0)
(0.17371 -0.0303366 0)
(0.167727 -0.0265452 0)
(0.161395 -0.0227857 0)
(0.154835 -0.0191262 0)
(0.148172 -0.0156483 0)
(0.14154 -0.0124482 0)
(0.135061 -0.00962707 0)
(0.128849 -0.00727154 0)
(0.123 -0.00542987 0)
(0.117592 -0.00409829 0)
(0.112674 -0.00322354 0)
(0.108274 -0.00271866 0)
(0.104404 -0.00248427 0)
(0.101013 -0.00242786 0)
(0.0982858 -0.00247335 0)
(0.0951378 -0.00258471 0)
(0.19746 -0.0402475 0)
(0.193771 -0.0360913 0)
(0.189114 -0.0316712 0)
(0.183584 -0.0271592 0)
(0.17734 -0.022675 0)
(0.170554 -0.0183151 0)
(0.163399 -0.0141663 0)
(0.156051 -0.0103053 0)
(0.148683 -0.0068139 0)
(0.141462 -0.00377997 0)
(0.134527 -0.00128849 0)
(0.127996 0.000599377 0)
(0.121956 0.00186641 0)
(0.116464 0.00255039 0)
(0.111548 0.0027385 0)
(0.107208 0.00254788 0)
(0.103433 0.00210201 0)
(0.100155 0.00150936 0)
(0.0975315 0.000860627 0)
(0.0945196 0.00014645 0)
(0.203083 -0.0361338 0)
(0.198738 -0.0305133 0)
(0.193059 -0.024775 0)
(0.186326 -0.0191553 0)
(0.178848 -0.0138102 0)
(0.170885 -0.00885063 0)
(0.16268 -0.0043717 0)
(0.154458 -0.000446374 0)
(0.146417 0.00287243 0)
(0.138729 0.00553091 0)
(0.131528 0.00748195 0)
(0.12491 0.00870681 0)
(0.118929 0.00923272 0)
(0.113603 0.00913984 0)
(0.108923 0.00855173 0)
(0.104854 0.00761322 0)
(0.101355 0.00646587 0)
(0.0983444 0.00522658 0)
(0.0959419 0.00399181 0)
(0.0931949 0.00270949 0)
(0.206461 -0.0308764 0)
(0.2002 -0.023327 0)
(0.192488 -0.0160814 0)
(0.183882 -0.00931212 0)
(0.174838 -0.00320229 0)
(0.165662 0.00212632 0)
(0.156591 0.0066309 0)
(0.147849 0.0102953 0)
(0.139613 0.0131177 0)
(0.132002 0.0150983 0)
(0.125093 0.0162469 0)
(0.118922 0.0165994 0)
(0.113486 0.0162336 0)
(0.108753 0.0152716 0)
(0.104668 0.013867 0)
(0.101163 0.0121819 0)
(0.0981745 0.0103638 0)
(0.0956144 0.00852783 0)
(0.0935682 0.00676464 0)
(0.0912196 0.00498979 0)
(0.199453 -0.0222784 0)
(0.189666 -0.01256 0)
(0.179384 -0.00416455 0)
(0.1692 0.00306413 0)
(0.159337 0.00917822 0)
(0.150016 0.0141766 0)
(0.141382 0.0180962 0)
(0.133493 0.0209927 0)
(0.126377 0.0229175 0)
(0.120043 0.0239224 0)
(0.114477 0.0240684 0)
(0.109641 0.0234388 0)
(0.105477 0.0221502 0)
(0.101911 0.0203511 0)
(0.0988642 0.0182073 0)
(0.0962585 0.0158809 0)
(0.0940289 0.0135108 0)
(0.0921012 0.0111991 0)
(0.0905392 0.00902046 0)
(0.0887022 0.00687716 0)
(0.165213 -0.00902963 0)
(0.15174 0.00125969 0)
(0.140954 0.00959063 0)
(0.132418 0.0160355 0)
(0.125423 0.0210027 0)
(0.119506 0.0247813 0)
(0.114428 0.0275173 0)
(0.110032 0.0292946 0)
(0.106213 0.0301726 0)
(0.102896 0.0302072 0)
(0.100027 0.0294668 0)
(0.0975551 0.0280463 0)
(0.0954241 0.0260713 0)
(0.0935767 0.0236923 0)
(0.0919584 0.0210678 0)
(0.0905228 0.0183461 0)
(0.0892376 0.0156475 0)
(0.0880664 0.0130591 0)
(0.0870727 0.0106324 0)
(0.0858087 0.00829188 0)
(0.0779039 0.0146819 0)
(0.075617 0.0162061 0)
(0.0759366 0.0194665 0)
(0.0767069 0.0224233 0)
(0.0779885 0.0253496 0)
(0.0793999 0.0279423 0)
(0.0807267 0.0299886 0)
(0.0818784 0.0313438 0)
(0.0828276 0.0319337 0)
(0.0835776 0.0317479 0)
(0.0841429 0.0308299 0)
(0.0845377 0.0292692 0)
(0.0847717 0.0271918 0)
(0.0848518 0.0247458 0)
(0.0847867 0.0220817 0)
(0.0845889 0.0193377 0)
(0.0842816 0.0166192 0)
(0.083875 0.0140127 0)
(0.0834588 0.0115352 0)
(0.0827479 0.00920784 0)
(0.0220277 0.000781097 0)
(0.0288706 0.00743976 0)
(0.0403308 0.0130726 0)
(0.0469071 0.0171231 0)
(0.0528441 0.0208879 0)
(0.0580265 0.0241157 0)
(0.0626046 0.0267118 0)
(0.0666028 0.0285633 0)
(0.0700388 0.0296046 0)
(0.0729396 0.0298281 0)
(0.0753387 0.0292808 0)
(0.0772724 0.0280565 0)
(0.0787778 0.026284 0)
(0.079893 0.0241115 0)
(0.080661 0.0216879 0)
(0.0811248 0.0191488 0)
(0.0813425 0.0165974 0)
(0.0813367 0.0141218 0)
(0.0812444 0.0117416 0)
(0.0808209 0.00949121 0)
(0.00863957 -0.00722918 0)
(0.0149484 0.00320685 0)
(0.0273349 0.00974531 0)
(0.0353841 0.0144107 0)
(0.042883 0.0185509 0)
(0.0494377 0.022055 0)
(0.0552562 0.0249028 0)
(0.0603658 0.026994 0)
(0.0647878 0.0282642 0)
(0.0685504 0.0287037 0)
(0.0716897 0.0283577 0)
(0.0742476 0.0273191 0)
(0.0762704 0.025716 0)
(0.0778078 0.0236954 0)
(0.078916 0.021405 0)
(0.0796503 0.0189791 0)
(0.0800827 0.0165209 0)
(0.0802422 0.0141166 0)
(0.0802799 0.0117977 0)
(0.0799767 0.0095788 0)
(0.00166113 -0.00922168 0)
(0.0057801 -0.000295172 0)
(0.0172569 0.00621005 0)
(0.0258615 0.0113454 0)
(0.0343519 0.0158176 0)
(0.0419258 0.0196091 0)
(0.0487406 0.0227315 0)
(0.0547789 0.0250913 0)
(0.0600454 0.0266237 0)
(0.0645582 0.0273152 0)
(0.0683489 0.0272072 0)
(0.0714605 0.0263899 0)
(0.0739446 0.0249891 0)
(0.07586 0.0231499 0)
(0.0772735 0.021018 0)
(0.0782514 0.0187264 0)
(0.0788772 0.0163793 0)
(0.0791875 0.0140601 0)
(0.0793396 0.0118147 0)
(0.0791482 0.00963808 0)
(-0.00176234 -0.00926269 0)
(6.84621e-05 -0.00295132 0)
(0.00988121 0.00282147 0)
(0.0184063 0.00809339 0)
(0.027376 0.0127824 0)
(0.0356123 0.0168398 0)
(0.0431591 0.0202441 0)
(0.0499234 0.0228928 0)
(0.0558756 0.0247146 0)
(0.0610127 0.0256889 0)
(0.0653548 0.0258513 0)
(0.0689403 0.0252872 0)
(0.0718226 0.0241184 0)
(0.0740662 0.022487 0)
(0.0757463 0.0205365 0)
(0.0769376 0.0183984 0)
(0.0777332 0.0161783 0)
(0.0781776 0.0139574 0)
(0.0784287 0.0117939 0)
(0.0783385 0.00967506 0)
(-0.00320392 -0.00831386 0)
(-0.00313114 -0.00484217 0)
(0.00490252 -0.000223926 0)
(0.0129649 0.00485167 0)
(0.0219992 0.00960381 0)
(0.0305659 0.0138656 0)
(0.0385784 0.0175307 0)
(0.0458572 0.0204686 0)
(0.0523261 0.0225921 0)
(0.0579523 0.0238689 0)
(0.0627373 0.0243251 0)
(0.0667103 0.0240387 0)
(0.0699224 0.0231258 0)
(0.0724402 0.021724 0)
(0.0743446 0.0199741 0)
(0.0757169 0.0180056 0)
(0.0766568 0.0159258 0)
(0.0772168 0.0138148 0)
(0.0775517 0.0117405 0)
(0.0775503 0.00969188 0)
(-0.00348906 -0.00683487 0)
(-0.00447465 -0.00615768 0)
(0.00204465 -0.0028764 0)
(0.00943776 0.00174955 0)
(0.0182123 0.00641415 0)
(0.026812 0.0107987 0)
(0.0350338 0.0146822 0)
(0.0426153 0.0178916 0)
(0.0494282 0.0203149 0)
(0.0554031 0.0219021 0)
(0.0605178 0.0226661 0)
(0.0647877 0.0226743 0)
(0.0682574 0.0220349 0)
(0.0709926 0.0208794 0)
(0.0730767 0.0193449 0)
(0.0745955 0.017559 0)
(0.0756531 0.0156304 0)
(0.0763088 0.0136386 0)
(0.0767121 0.01166 0)
(0.076786 0.00969077 0)
(-0.00292963 -0.00526742 0)
(-0.0042993 -0.00709635 0)
(0.00110518 -0.00516299 0)
(0.00771721 -0.00113687 0)
(0.0159766 0.00331567 0)
(0.0243463 0.00773605 0)
(0.0325354 0.0117827 0)
(0.0402133 0.0152322 0)
(0.0471981 0.0179405 0)
(0.0533803 0.0198354 0)
(0.0587098 0.020912 0)
(0.0631837 0.0212243 0)
(0.0668367 0.0208696 0)
(0.0697306 0.019972 0)
(0.0719484 0.0186638 0)
(0.0735781 0.01707 0)
(0.0747256 0.0153006 0)
(0.0754563 0.0134352 0)
(0.0759126 0.0115575 0)
(0.0760475 0.00967456 0)
(-0.00144757 -0.00403361 0)
(-0.00266377 -0.00783052 0)
(0.00196719 -0.00714124 0)
(0.00771377 -0.0037538 0)
(0.0152406 0.000395592 0)
(0.0231437 0.00476612 0)
(0.0310744 0.008912 0)
(0.0386508 0.0125585 0)
(0.0456397 0.0155261 0)
(0.0518896 0.0177157 0)
(0.057319 0.0191012 0)
(0.0619038 0.0197193 0)
(0.0656655 0.0196545 0)
(0.0686587 0.0190212 0)
(0.0709634 0.0179459 0)
(0.0726676 0.0165504 0)
(0.0738769 0.0149455 0)
(0.0746612 0.0132115 0)
(0.0751551 0.0114384 0)
(0.0753362 0.00964639 0)
(0.00143107 -0.00371472 0)
(0.000619359 -0.00850193 0)
(0.00458877 -0.00882192 0)
(0.00936233 -0.00604792 0)
(0.0159474 -0.00226535 0)
(0.0231655 0.00197186 0)
(0.0306269 0.00614619 0)
(0.0379144 0.00993697 0)
(0.0447461 0.0131278 0)
(0.0509278 0.0155898 0)
(0.0563449 0.017272 0)
(0.0609488 0.0181907 0)
(0.064745 0.0184147 0)
(0.0677783 0.0180469 0)
(0.0701232 0.0172068 0)
(0.0718655 0.0160123 0)
(0.0731084 0.0145744 0)
(0.0739248 0.0129744 0)
(0.0744408 0.0113081 0)
(0.0746529 0.00960963 0)
(0.00671353 -0.00510571 0)
(0.00598945 -0.00922912 0)
(0.00898781 -0.0101645 0)
(0.0126071 -0.00797295 0)
(0.0180374 -0.00460256 0)
(0.024363 -0.000578526 0)
(0.0311584 0.00354899 0)
(0.0379803 0.00742396 0)
(0.0445013 0.0107943 0)
(0.0504849 0.0134988 0)
(0.055781 0.0154583 0)
(0.0603147 0.016666 0)
(0.0640729 0.0171723 0)
(0.0670883 0.0170667 0)
(0.0694272 0.0164602 0)
(0.0711715 0.0154663 0)
(0.0724199 0.0141955 0)
(0.0732472 0.0127302 0)
(0.0737701 0.0111711 0)
(0.073998 0.00956728 0)
(0.02243 -0.00812519 0)
(0.0194607 -0.0104012 0)
(0.0193983 -0.0117509 0)
(0.0206173 -0.0105248 0)
(0.0237502 -0.00790896 0)
(0.0282465 -0.00437171 0)