x,y,z,U_0,U_1,U_2
0,0,0,0.300012,-0.00122177,-6.4625e-13
0,0.1,0,0.30001,-0.000971645,-5.13947e-13
0,0.2,0,0.300007,-0.000721518,-3.81644e-13
0,0.3,0,0.300005,-0.000471392,-2.49341e-13
0,0.4,0,0.300002,-0.000221266,-1.17037e-13
0,0.5,0,0.3,-1.25182e-19,-6.81475e-29
0,0.6,0,0.3,-1.50218e-19,-8.1777e-29
0,0.7,0,0.3,-1.75255e-19,-9.54065e-29
0,0.8,0,0.3,-2.00291e-19,-1.09036e-28
0,0.9,0,0.3,-2.25327e-19,-1.22666e-28
0,1,0,0.3,-2.44018e-19,-1.23387e-28
0,1.1,0,0.3,-2.6842e-19,-1.35726e-28
0,1.2,0,0.3,-2.92821e-19,-1.48065e-28
0,1.3,0,0.3,-3.17223e-19,-1.60403e-28
0,1.4,0,0.3,-3.41625e-19,-1.72742e-28
0,1.5,0,0.3,-3.53558e-19,-1.46541e-28
0,1.6,0,0.3,-3.77129e-19,-1.56311e-28
0,1.7,0,0.3,-4.00699e-19,-1.6608e-28
0,1.8,0,0.3,-4.2427e-19,-1.7585e-28
0,1.9,0,0.3,-4.4784e-19,-1.85619e-28
0,2,0,0.3,-4.49139e-19,-1.04161e-28
0,2.1,0,0.3,-4.71596e-19,-1.09369e-28
0,2.2,0,0.3,-4.94053e-19,-1.14577e-28
0,2.3,0,0.3,-5.1651e-19,-1.19785e-28
0,2.4,0,0.3,-5.38967e-19,-1.24993e-28
0,2.5,0,0.3,-5.2401e-19,-1.62724e-29
0,2.6,0,0.3,-5.4497e-19,-1.69233e-29
0,2.7,0,0.3,-5.65931e-19,-1.75742e-29
0,2.8,0,0.3,-5.86891e-19,-1.82251e-29
0,2.9,0,0.3,-6.07851e-19,-1.8876e-29
0,3,0,0.3,-5.70281e-19,1.17161e-28
0,3.1,0,0.3,-5.89291e-19,1.21066e-28
0,3.2,0,0.3,-6.083e-19,1.24972e-28
0,3.3,0,0.3,-6.27309e-19,1.28877e-28
0,3.4,0,0.3,-6.46319e-19,1.32783e-28
0,3.5,0,0.3,-5.82838e-19,2.05032e-28
0,3.6,0,0.3,-5.99491e-19,2.1089e-28
0,3.7,0,0.3,-6.16143e-19,2.16748e-28
0,3.8,0,0.3,-6.32796e-19,2.22606e-28
0,3.9,0,0.3,-6.49448e-19,2.28464e-28
0,4,0,0.3,-5.57239e-19,2.23908e-28
0,4.1,0,0.3,-5.7117e-19,2.29506e-28
0,4.2,0,0.3,-5.85101e-19,2.35103e-28
0,4.3,0,0.3,-5.99032e-19,2.40701e-28
0,4.4,0,0.3,-4.78444e-19,2.86394e-28
0,4.5,0,0.3,-4.89318e-19,2.92903e-28
0,4.6,0,0.3,-5.00191e-19,2.99412e-28
0,4.7,0,0.3,-5.11065e-19,3.05921e-28
0,4.8,0,0.3,-5.21939e-19,3.1243e-28
0,4.9,0,0.3,-3.66962e-19,3.95484e-28
0,5,0,0.3,-3.74451e-19,4.03555e-28
0,5.1,0,0.3,-3.8194e-19,4.11626e-28
0,5.2,0,0.3,-3.89429e-19,4.19697e-28
0,5.3,0,0.3,-3.96918e-19,4.27768e-28
0,5.4,0,0.3,-2.07037e-19,5.55344e-28
0,5.5,0,0.3,-2.10871e-19,5.65628e-28
0,5.6,0,0.3,-2.14705e-19,5.75912e-28
0,5.7,0,0.3,-2.18539e-19,5.86196e-28
0,5.8,0,0.3,-2.22373e-19,5.9648e-28
0,5.9,0,0.3,-2.93359e-21,7.33494e-28
0,6,0,0.3,-2.98331e-21,7.45926e-28
0,6.1,0,0.3,-3.03303e-21,7.58358e-28
0,6.2,0,0.3,-3.08276e-21,7.7079e-28
0,6.3,0,0.3,-3.13248e-21,7.83222e-28
0,6.4,0,0.3,2.38578e-19,8.62306e-28
0,6.5,0,0.3,2.42306e-19,8.75779e-28
0,6.6,0,0.3,2.46034e-19,8.89253e-28
0,6.7,0,0.3,2.49762e-19,9.02726e-28
0,6.8,0,0.3,2.5349e-19,9.162e-28
0,6.9,0,0.3,5.10308e-19,9.11709e-28
0,7,0,0.3,5.17703e-19,9.24922e-28
0,7.1,0,0.3,5.25099e-19,9.38135e-28
0,7.2,0,0.3,5.32495e-19,9.51348e-28
0,7.3,0,0.3,5.39891e-19,9.64561e-28
0,7.4,0,0.3,8.03118e-19,9.05525e-28
0,7.5,0,0.3,8.13971e-19,9.17762e-28
0,7.6,0,0.3,8.24824e-19,9.29999e-28
0,7.7,0,0.3,8.35677e-19,9.42236e-28
0,7.8,0,0.3,8.4653e-19,9.54472e-28
0,7.9,0,0.3,1.10474e-18,8.27873e-28
0,8,0,0.3,1.11873e-18,8.38353e-28
0,8.1,0,0.3,1.13271e-18,8.48832e-28
0,8.2,0,0.3,1.1467e-18,8.59312e-28
0,8.3,0,0.3,1.16068e-18,8.69791e-28
0,8.4,0,0.3,1.40371e-18,6.88907e-28
0,8.5,0,0.3,1.42042e-18,6.97108e-28
0,8.6,0,0.3,1.43713e-18,7.0531e-28
0,8.7,0,0.3,1.45384e-18,7.13511e-28
0,8.8,0,0.3,1.67337e-18,5.95699e-28
0,8.9,0,0.3,1.69238e-18,6.02468e-28
0,9,0,0.3,1.7114e-18,6.09238e-28
0,9.1,0,0.3,1.73041e-18,6.16007e-28
0,9.2,0,0.3,1.74943e-18,6.22776e-28
0,9.3,0,0.3,1.94431e-18,6.05332e-28
0,9.4,0,0.3,1.96522e-18,6.11841e-28
0,9.5,0,0.3,1.98613e-18,6.1835e-28
0,9.6,0,0.3,2.00703e-18,6.24859e-28
0,9.7,0,0.3,2.02794e-18,6.31368e-28
0,9.8,0,0.3,2.19596e-18,6.37877e-28
0,9.9,0,0.3,2.21837e-18,6.44386e-28
0,10,0,0.3,2.24077e-18,6.50895e-28
0,10.1,0,0.3,2.26318e-18,6.57404e-28
0,10.2,0,0.3,2.28559e-18,6.63913e-28
0,10.3,0,0.3,2.42546e-18,4.69183e-28
0,10.4,0,0.3,2.44901e-18,4.73738e-28
0,10.5,0,0.3,2.47255e-18,4.78293e-28
0,10.6,0,0.3,2.4961e-18,4.82849e-28
0,10.7,0,0.3,2.51965e-18,4.87404e-28
0,10.8,0,0.3,2.63589e-18,1.03002e-31
0,10.9,0,0.3,2.6603e-18,1.03956e-31
0,11,0,0.3,2.68471e-18,1.0491e-31
0,11.1,0,0.3,2.70911e-18,1.05863e-31
0,11.2,0,0.3,2.73352e-18,1.06817e-31
0,11.3,0,0.3,2.83594e-18,-5.51586e-28
0,11.4,0,0.3,2.86104e-18,-5.56468e-28
0,11.5,0,0.3,2.88614e-18,-5.61349e-28
0,11.6,0,0.3,2.91123e-18,-5.6623e-28
0,11.7,0,0.3,2.93633e-18,-5.71112e-28
0,11.8,0,0.3,2.96143e-18,-5.75993e-28
0,11.9,0,0.3,2.98652e-18,-5.80874e-28
0,12,0,0.3,3.01162e-18,-5.85756e-28
0,12.1,0,0.3,3.03672e-18,-5.90637e-28
0,12.2,0,0.3,3.06181e-18,-5.95518e-28
0,12.3,0,0.299996,0.000222332,3.60115e-14
0,12.4,0,0.299992,0.000473663,7.67202e-14
0,12.5,0,0.299988,0.000724994,1.17429e-13
0,12.6,0,0.299984,0.000976326,1.58138e-13
0,12.7,0,0.29998,0.00122766,1.98846e-13
0.1,0,0,0.300013,-0.00196237,-8.07e-13
0.1,0.1,0,0.300014,-0.00195626,-9.37463e-13
0.1,0.2,0,0.300012,-0.00170613,-8.0516e-13
0.1,0.3,0,0.300009,-0.001456,-6.72857e-13
0.1,0.4,0,0.300007,-0.00120588,-5.40554e-13
0.1,0.5,0,0.300004,-0.000979437,-4.32652e-13
0.1,0.6,0,0.300002,-0.000961613,-5.23491e-13
0.1,0.7,0,0.300002,-0.000961613,-5.23491e-13
0.1,0.8,0,0.300002,-0.000961613,-5.23491e-13
0.1,0.9,0,0.300002,-0.000961613,-5.23491e-13
0.1,1,0,0.3,-0.000956124,-5.12325e-13
0.1,1.1,0,0.299993,-0.00093724,-4.73914e-13
0.1,1.2,0,0.299993,-0.00093724,-4.73914e-13
0.1,1.3,0,0.299993,-0.00093724,-4.73914e-13
0.1,1.4,0,0.299993,-0.00093724,-4.73914e-13
0.1,1.5,0,0.29999,-0.000926066,-4.39375e-13
0.1,1.6,0,0.299984,-0.000905313,-3.75231e-13
0.1,1.7,0,0.299984,-0.000905313,-3.75231e-13
0.1,1.8,0,0.299984,-0.000905313,-3.75231e-13
0.1,1.9,0,0.299984,-0.000905313,-3.75231e-13
0.1,2,0,0.299981,-0.000885106,-2.92461e-13
0.1,2.1,0,0.299977,-0.000862542,-2.00034e-13
0.1,2.2,0,0.299977,-0.000862542,-2.00034e-13
0.1,2.3,0,0.299977,-0.000862542,-2.00034e-13
0.1,2.4,0,0.299977,-0.000862542,-2.00034e-13
0.1,2.5,0,0.299973,-0.000828596,-9.66675e-14
0.1,2.6,0,0.29997,-0.00080506,-2.5e-14
0.1,2.7,0,0.29997,-0.00080506,-2.5e-14
0.1,2.8,0,0.29997,-0.00080506,-2.5e-14
0.1,2.9,0,0.29997,-0.00080506,-2.5e-14
0.1,3,0,0.299964,-0.000751956,9.90157e-14
0.1,3.1,0,0.299961,-0.000730125,1.5e-13
0.1,3.2,0,0.299961,-0.000730125,1.5e-13
0.1,3.3,0,0.299961,-0.000730125,1.5e-13
0.1,3.4,0,0.299961,-0.000730125,1.5e-13
0.1,3.5,0,0.299952,-0.000655282,2.12008e-13
0.1,3.6,0,0.299951,-0.000639601,2.25e-13
0.1,3.7,0,0.299951,-0.000639601,2.25e-13
0.1,3.8,0,0.299951,-0.000639601,2.25e-13
0.1,3.9,0,0.299951,-0.000639601,2.25e-13
0.1,4,0,0.29994,-0.000540832,2.15551e-13
0.1,4.1,0,0.299939,-0.00053507,2.15e-13
0.1,4.2,0,0.299939,-0.00053507,2.15e-13
0.1,4.3,0,0.299939,-0.00053507,2.15e-13
0.1,4.4,0,0.299939,-0.000530447,2.16378e-13
0.1,4.5,0,0.299929,-0.000417645,2.5e-13
0.1,4.6,0,0.299929,-0.000417645,2.5e-13
0.1,4.7,0,0.299929,-0.000417645,2.5e-13
0.1,4.8,0,0.299929,-0.000417645,2.5e-13
0.1,4.9,0,0.299929,-0.000397173,2.59449e-13
0.1,5,0,0.299924,-0.000287643,3.1e-13
0.1,5.1,0,0.299924,-0.000287643,3.1e-13
0.1,5.2,0,0.299924,-0.000287643,3.1e-13
0.1,5.3,0,0.299924,-0.000287643,3.1e-13
0.1,5.4,0,0.299923,-0.000248955,3.33425e-13
0.1,5.5,0,0.299921,-0.00014726,3.95e-13
0.1,5.6,0,0.299921,-0.00014726,3.95e-13
0.1,5.7,0,0.299921,-0.00014726,3.95e-13
0.1,5.8,0,0.299921,-0.00014726,3.95e-13
0.1,5.9,0,0.299921,-9.00353e-05,4.2748e-13
0.1,6,0,0.299921,-1.90975e-06,4.775e-13
0.1,6.1,0,0.299921,-1.90975e-06,4.775e-13
0.1,6.2,0,0.299921,-1.90975e-06,4.775e-13
0.1,6.3,0,0.299921,-1.90975e-06,4.775e-13
0.1,6.4,0,0.299922,7.23484e-05,4.97972e-13
0.1,6.5,0,0.299924,0.000143179,5.175e-13
0.1,6.6,0,0.299924,0.000143179,5.175e-13
0.1,6.7,0,0.299924,0.000143179,5.175e-13
0.1,6.8,0,0.299924,0.000143179,5.175e-13
0.1,6.9,0,0.299927,0.000231924,5.11201e-13
0.1,7,0,0.299929,0.000284061,5.075e-13
0.1,7.1,0,0.299929,0.000284061,5.075e-13
0.1,7.2,0,0.299929,0.000284061,5.075e-13
0.1,7.3,0,0.299929,0.000284061,5.075e-13
0.1,7.4,0,0.299934,0.000383389,4.79449e-13
0.1,7.5,0,0.299936,0.000416847,4.7e-13
0.1,7.6,0,0.299936,0.000416847,4.7e-13
0.1,7.7,0,0.299936,0.000416847,4.7e-13
0.1,7.8,0,0.299936,0.000416847,4.7e-13
0.1,7.9,0,0.299942,0.000521012,4.11535e-13
0.1,8,0,0.299943,0.00053711,4.025e-13
0.1,8.1,0,0.299943,0.00053711,4.025e-13
0.1,8.2,0,0.299943,0.00053711,4.025e-13
0.1,8.3,0,0.299943,0.00053711,4.025e-13
0.1,8.4,0,0.29995,0.000640189,3.16378e-13
0.1,8.5,0,0.299951,0.000641838,3.15e-13
0.1,8.6,0,0.299951,0.000641838,3.15e-13
0.1,8.7,0,0.299951,0.000641838,3.15e-13
0.1,8.8,0,0.299951,0.000648809,3.10669e-13
0.1,8.9,0,0.299958,0.000730362,2.6e-13
0.1,9,0,0.299958,0.000730362,2.6e-13
0.1,9.1,0,0.299958,0.000730362,2.6e-13
0.1,9.2,0,0.299958,0.000730362,2.6e-13
0.1,9.3,0,0.299959,0.000744659,2.58031e-13
0.1,9.4,0,0.299966,0.000802994,2.5e-13
0.1,9.5,0,0.299966,0.000802994,2.5e-13
0.1,9.6,0,0.299966,0.000802994,2.5e-13
0.1,9.7,0,0.299966,0.000802994,2.5e-13
0.1,9.8,0,0.299968,0.000821154,2.5e-13
0.1,9.9,0,0.299973,0.000860651,2.5e-13
0.1,10,0,0.299973,0.000860651,2.5e-13
0.1,10.1,0,0.299973,0.000860651,2.5e-13
0.1,10.2,0,0.299973,0.000860651,2.5e-13
0.1,10.3,0,0.299976,0.00087962,2.17502e-13
0.1,10.4,0,0.299981,0.000904452,1.74958e-13
0.1,10.5,0,0.299981,0.000904452,1.74958e-13
0.1,10.6,0,0.299981,0.000904452,1.74958e-13
0.1,10.7,0,0.299981,0.000904452,1.74958e-13
0.1,10.8,0,0.299984,0.000922623,7.85447e-14
0.1,10.9,0,0.299987,0.000937418,3.66312e-17
0.1,11,0,0.299987,0.000937418,3.66312e-17
0.1,11.1,0,0.299987,0.000937418,3.66312e-17
0.1,11.2,0,0.299987,0.000937418,3.66312e-17
0.1,11.3,0,0.29999,0.000955166,-1.25469e-13
0.1,11.4,0,0.299992,0.000963936,-1.87484e-13
0.1,11.5,0,0.299992,0.000963936,-1.87484e-13
0.1,11.6,0,0.299992,0.000963936,-1.87484e-13
0.1,11.7,0,0.299992,0.000963936,-1.87484e-13
0.1,11.8,0,0.299992,0.000963936,-1.87484e-13
0.1,11.9,0,0.299992,0.000963936,-1.87484e-13
0.1,12,0,0.299992,0.000963936,-1.87484e-13
0.1,12.1,0,0.299992,0.000963936,-1.87484e-13
0.1,12.2,0,0.299996,0.000983079,-1.34473e-13
0.1,12.3,0,0.299992,0.00120662,-9.12395e-14
0.1,12.4,0,0.299988,0.00145795,-5.05309e-14
0.1,12.5,0,0.299984,0.00170929,-9.82217e-15
0.1,12.6,0,0.29998,0.00196062,3.08865e-14
0.1,12.7,0,0.299982,0.00197438,1.79077e-13
0.2,0,0,0.300013,-0.00270297,-9.6775e-13
0.2,0.1,0,0.300015,-0.00269865,-1.10015e-12
0.2,0.2,0,0.300017,-0.00269074,-1.22868e-12
0.2,0.3,0,0.300014,-0.00244062,-1.09637e-12
0.2,0.4,0,0.300011,-0.00219049,-9.6407e-13
0.2,0.5,0,0.300009,-0.00196123,-8.53269e-13
0.2,0.6,0,0.300007,-0.00194077,-9.57578e-13
0.2,0.7,0,0.300005,-0.00192323,-1.04698e-12
0.2,0.8,0,0.300005,-0.00192323,-1.04698e-12
0.2,0.9,0,0.300005,-0.00192323,-1.04698e-12
0.2,1,0,0.300003,-0.00191805,-1.03646e-12
0.2,1.1,0,0.299993,-0.00189289,-9.85284e-13
0.2,1.2,0,0.299986,-0.00187448,-9.47828e-13
0.2,1.3,0,0.299986,-0.00187448,-9.47828e-13
0.2,1.4,0,0.299986,-0.00187448,-9.47828e-13
0.2,1.5,0,0.299983,-0.00186352,-9.13952e-13
0.2,1.6,0,0.299974,-0.00183062,-8.12259e-13
0.2,1.7,0,0.299969,-0.00181063,-7.50461e-13
0.2,1.8,0,0.299969,-0.00181063,-7.50461e-13
0.2,1.9,0,0.299969,-0.00181063,-7.50461e-13
0.2,2,0,0.299965,-0.00179042,-6.67691e-13
0.2,2.1,0,0.299958,-0.00174664,-4.88356e-13
0.2,2.2,0,0.299954,-0.00172508,-4.00068e-13
0.2,2.3,0,0.299954,-0.00172508,-4.00068e-13
0.2,2.4,0,0.299954,-0.00172508,-4.00068e-13
0.2,2.5,0,0.29995,-0.00169114,-2.96702e-13
0.2,2.6,0,0.299942,-0.0016323,-1.17533e-13
0.2,2.7,0,0.299939,-0.00161012,-5e-14
0.2,2.8,0,0.299939,-0.00161012,-5e-14
0.2,2.9,0,0.299939,-0.00161012,-5e-14
0.2,3,0,0.299933,-0.00155702,7.40157e-14
0.2,3.1,0,0.299924,-0.00148031,2.5315e-13
0.2,3.2,0,0.299922,-0.00146025,3e-13
0.2,3.3,0,0.299922,-0.00146025,3e-13
0.2,3.4,0,0.299922,-0.00146025,3e-13
0.2,3.5,0,0.299913,-0.00138541,3.62008e-13
0.2,3.6,0,0.299903,-0.00129274,4.3878e-13
0.2,3.7,0,0.299901,-0.0012792,4.5e-13
0.2,3.8,0,0.299901,-0.0012792,4.5e-13
0.2,3.9,0,0.299901,-0.0012792,4.5e-13
0.2,4,0,0.299891,-0.00118043,4.40551e-13
0.2,4.1,0,0.299879,-0.00107343,4.30315e-13
0.2,4.2,0,0.299879,-0.00107014,4.3e-13
0.2,4.3,0,0.299879,-0.00107014,4.3e-13
0.2,4.4,0,0.299878,-0.00106552,4.31378e-13
0.2,4.5,0,0.299868,-0.000945318,4.67205e-13
0.2,4.6,0,0.299859,-0.00083529,5e-13
0.2,4.7,0,0.299859,-0.00083529,5e-13
0.2,4.8,0,0.299859,-0.00083529,5e-13
0.2,4.9,0,0.299858,-0.000814818,5.09449e-13
0.2,5,0,0.299852,-0.000681745,5.70866e-13
0.2,5.1,0,0.299848,-0.000575287,6.2e-13
0.2,5.2,0,0.299848,-0.000575287,6.2e-13
0.2,5.3,0,0.299848,-0.000575287,6.2e-13
0.2,5.4,0,0.299847,-0.000536598,6.43425e-13
0.2,5.5,0,0.299845,-0.000392898,7.30433e-13
0.2,5.6,0,0.299843,-0.000294519,7.9e-13
0.2,5.7,0,0.299843,-0.000294519,7.9e-13
0.2,5.8,0,0.299843,-0.000294519,7.9e-13
0.2,5.9,0,0.299843,-0.000237295,8.2248e-13
0.2,6,0,0.299842,-8.85115e-05,9.06929e-13
0.2,6.1,0,0.299842,-3.8195e-06,9.55e-13
0.2,6.2,0,0.299842,-3.8195e-06,9.55e-13
0.2,6.3,0,0.299842,-3.8195e-06,9.55e-13
0.2,6.4,0,0.299843,7.04387e-05,9.75472e-13
0.2,6.5,0,0.299846,0.000218955,1.01642e-12
0.2,6.6,0,0.299847,0.000286359,1.035e-12
0.2,6.7,0,0.299847,0.000286359,1.035e-12
0.2,6.8,0,0.299847,0.000286359,1.035e-12
0.2,6.9,0,0.299851,0.000375103,1.0287e-12
0.2,7,0,0.299857,0.000519313,1.01846e-12
0.2,7.1,0,0.299859,0.000568123,1.015e-12
0.2,7.2,0,0.299859,0.000568123,1.015e-12
0.2,7.3,0,0.299859,0.000568123,1.015e-12
0.2,7.4,0,0.299864,0.000667451,9.86949e-13
0.2,7.5,0,0.299871,0.000803373,9.48563e-13
0.2,7.6,0,0.299872,0.000833694,9.4e-13
0.2,7.7,0,0.299872,0.000833694,9.4e-13
0.2,7.8,0,0.299872,0.000833694,9.4e-13
0.2,7.9,0,0.299879,0.000937859,8.81535e-13
0.2,8,0,0.299886,0.00106096,8.12441e-13
0.2,8.1,0,0.299887,0.00107422,8.05e-13
0.2,8.2,0,0.299887,0.00107422,8.05e-13
0.2,8.3,0,0.299887,0.00107422,8.05e-13
0.2,8.4,0,0.299894,0.0011773,7.18878e-13
0.2,8.5,0,0.299901,0.00128368,6.3e-13
0.2,8.6,0,0.299901,0.00128368,6.3e-13
0.2,8.7,0,0.299901,0.00128368,6.3e-13
0.2,8.8,0,0.299902,0.00129065,6.25669e-13
0.2,8.9,0,0.299909,0.00138126,5.6937e-13
0.2,9,0,0.299916,0.00146072,5.2e-13
0.2,9.1,0,0.299916,0.00146072,5.2e-13
0.2,9.2,0,0.299916,0.00146072,5.2e-13
0.2,9.3,0,0.299917,0.00147502,5.18031e-13
0.2,9.4,0,0.299925,0.00154937,5.07795e-13
0.2,9.5,0,0.299931,0.00160599,5e-13
0.2,9.6,0,0.299931,0.00160599,5e-13
0.2,9.7,0,0.299931,0.00160599,5e-13
0.2,9.8,0,0.299934,0.00162415,5e-13
0.2,9.9,0,0.299941,0.00168317,5e-13
0.2,10,0,0.299946,0.0017213,5e-13
0.2,10.1,0,0.299946,0.0017213,5e-13
0.2,10.2,0,0.299946,0.0017213,5e-13
0.2,10.3,0,0.29995,0.00174027,4.67502e-13
0.2,10.4,0,0.299957,0.00178511,3.90687e-13
0.2,10.5,0,0.299961,0.0018089,3.49916e-13
0.2,10.6,0,0.299961,0.0018089,3.49916e-13
0.2,10.7,0,0.299961,0.0018089,3.49916e-13
0.2,10.8,0,0.299965,0.00182707,2.53503e-13
0.2,10.9,0,0.299971,0.00186082,7.44494e-14
0.2,11,0,0.299974,0.00187484,7.32625e-17
0.2,11.1,0,0.299974,0.00187484,7.32625e-17
0.2,11.2,0,0.299974,0.00187484,7.32625e-17
0.2,11.3,0,0.299977,0.00189258,-1.25433e-13
0.2,11.4,0,0.299982,0.00191973,-3.17383e-13
0.2,11.5,0,0.299984,0.00192787,-3.74968e-13
0.2,11.6,0,0.299984,0.00192787,-3.74968e-13
0.2,11.7,0,0.299984,0.00192787,-3.74968e-13
0.2,11.8,0,0.299984,0.00192787,-3.74968e-13
0.2,11.9,0,0.299984,0.00192787,-3.74968e-13
0.2,12,0,0.299984,0.00192787,-3.74968e-13
0.2,12.1,0,0.299987,0.0019465,-3.23377e-13
0.2,12.2,0,0.299992,0.00196872,-2.61847e-13
0.2,12.3,0,0.299989,0.00219091,-2.18491e-13
0.2,12.4,0,0.299984,0.00244225,-1.77782e-13
0.2,12.5,0,0.29998,0.00269358,-1.37073e-13
0.2,12.6,0,0.299982,0.00271372,8.2315e-15
0.2,12.7,0,0.299984,0.00272111,1.59308e-13
0.3,0,0,0.300013,-0.00344357,-1.1285e-12
0.3,0.1,0,0.300015,-0.00343925,-1.2609e-12
0.3,0.2,0,0.300017,-0.00343494,-1.3933e-12
0.3,0.3,0,0.300019,-0.00342523,-1.51989e-12
0.3,0.4,0,0.300016,-0.0031751,-1.38759e-12
0.3,0.5,0,0.300014,-0.00294303,-1.27388e-12
0.3,0.6,0,0.300011,-0.00292257,-1.37819e-12
0.3,0.7,0,0.300009,-0.0029021,-1.4825e-12
0.3,0.8,0,0.300007,-0.00288484,-1.57047e-12
0.3,0.9,0,0.300007,-0.00288484,-1.57047e-12
0.3,1,0,0.300005,-0.00287998,-1.56059e-12
0.3,1.1,0,0.299996,-0.00285482,-1.50942e-12
0.3,1.2,0,0.299986,-0.00282966,-1.45824e-12
0.3,1.3,0,0.299979,-0.00281172,-1.42174e-12
0.3,1.4,0,0.299979,-0.00281172,-1.42174e-12
0.3,1.5,0,0.299976,-0.00280097,-1.38853e-12
0.3,1.6,0,0.299967,-0.00276807,-1.28684e-12
0.3,1.7,0,0.299958,-0.00273517,-1.18514e-12
0.3,1.8,0,0.299953,-0.00271594,-1.12569e-12
0.3,1.9,0,0.299953,-0.00271594,-1.12569e-12
0.3,2,0,0.29995,-0.00269573,-1.04292e-12
0.3,2.1,0,0.299942,-0.00265195,-8.63587e-13
0.3,2.2,0,0.299935,-0.00260817,-6.84252e-13
0.3,2.3,0,0.299931,-0.00258763,-6.00102e-13
0.3,2.4,0,0.299931,-0.00258763,-6.00102e-13
0.3,2.5,0,0.299927,-0.00255368,-4.96736e-13
0.3,2.6,0,0.299919,-0.00249484,-3.17567e-13
0.3,2.7,0,0.299912,-0.002436,-1.38398e-13
0.3,2.8,0,0.299909,-0.00241518,-7.5e-14
0.3,2.9,0,0.299909,-0.00241518,-7.5e-14
0.3,3,0,0.299903,-0.00236208,4.90157e-14
0.3,3.1,0,0.299894,-0.00228537,2.2815e-13
0.3,3.2,0,0.299885,-0.00220866,4.07283e-13
0.3,3.3,0,0.299883,-0.00219037,4.5e-13
0.3,3.4,0,0.299883,-0.00219037,4.5e-13
0.3,3.5,0,0.299874,-0.00211553,5.12008e-13
0.3,3.6,0,0.299864,-0.00202287,5.8878e-13
0.3,3.7,0,0.299853,-0.00193021,6.65551e-13
0.3,3.8,0,0.299852,-0.0019188,6.75e-13
0.3,3.9,0,0.299852,-0.0019188,6.75e-13
0.3,4,0,0.299841,-0.00182003,6.65551e-13
0.3,4.1,0,0.29983,-0.00171303,6.55315e-13
0.3,4.2,0,0.299818,-0.00160603,6.45079e-13
0.3,4.3,0,0.299818,-0.00160521,6.45e-13
0.3,4.4,0,0.299818,-0.00160059,6.46378e-13
0.3,4.5,0,0.299808,-0.00148039,6.82205e-13
0.3,4.6,0,0.299797,-0.00136019,7.18031e-13
0.3,4.7,0,0.299788,-0.00125294,7.5e-13
0.3,4.8,0,0.299788,-0.00125294,7.5e-13
0.3,4.9,0,0.299787,-0.00123246,7.59449e-13
0.3,5,0,0.299782,-0.00109939,8.20866e-13
0.3,5.1,0,0.299776,-0.000966317,8.82283e-13
0.3,5.2,0,0.299771,-0.00086293,9.3e-13
0.3,5.3,0,0.299771,-0.00086293,9.3e-13
0.3,5.4,0,0.299771,-0.000824242,9.53425e-13
0.3,5.5,0,0.299768,-0.000680542,1.04043e-12
0.3,5.6,0,0.299766,-0.000536842,1.12744e-12
0.3,5.7,0,0.299764,-0.000441779,1.185e-12
0.3,5.8,0,0.299764,-0.000441779,1.185e-12
0.3,5.9,0,0.299764,-0.000384554,1.21748e-12
0.3,6,0,0.299764,-0.000235771,1.30193e-12
0.3,6.1,0,0.299763,-8.69878e-05,1.38638e-12
0.3,6.2,0,0.299763,-5.72925e-06,1.4325e-12
0.3,6.3,0,0.299763,-5.72925e-06,1.4325e-12
0.3,6.4,0,0.299764,6.85289e-05,1.45297e-12
0.3,6.5,0,0.299767,0.000217045,1.49392e-12
0.3,6.6,0,0.29977,0.000365562,1.53486e-12
0.3,6.7,0,0.299771,0.000429538,1.5525e-12
0.3,6.8,0,0.299771,0.000429538,1.5525e-12
0.3,6.9,0,0.299774,0.000518282,1.5462e-12
0.3,7,0,0.29978,0.000662492,1.53596e-12
0.3,7.1,0,0.299786,0.000806702,1.52573e-12
0.3,7.2,0,0.299788,0.000852184,1.5225e-12
0.3,7.3,0,0.299788,0.000852184,1.5225e-12
0.3,7.4,0,0.299793,0.000951512,1.49445e-12
0.3,7.5,0,0.2998,0.00108743,1.45606e-12
0.3,7.6,0,0.299807,0.00122336,1.41768e-12
0.3,7.7,0,0.299809,0.00125054,1.41e-12
0.3,7.8,0,0.299809,0.00125054,1.41e-12
0.3,7.9,0,0.299815,0.00135471,1.35154e-12
0.3,8,0,0.299822,0.00147781,1.28244e-12
0.3,8.1,0,0.29983,0.00160091,1.21335e-12
0.3,8.2,0,0.29983,0.00161133,1.2075e-12
0.3,8.3,0,0.29983,0.00161133,1.2075e-12
0.3,8.4,0,0.299837,0.00171441,1.12138e-12
0.3,8.5,0,0.299845,0.00182161,1.03181e-12
0.3,8.6,0,0.299852,0.00192552,9.45e-13
0.3,8.7,0,0.299852,0.00192552,9.45e-13
0.3,8.8,0,0.299852,0.00193249,9.40669e-13
0.3,8.9,0,0.29986,0.0020231,8.8437e-13
0.3,9,0,0.299867,0.00211371,8.28071e-13
0.3,9.1,0,0.299874,0.00219108,7.8e-13
0.3,9.2,0,0.299874,0.00219108,7.8e-13
0.3,9.3,0,0.299875,0.00220538,7.78031e-13
0.3,9.4,0,0.299883,0.00227973,7.67795e-13
0.3,9.5,0,0.299891,0.00235408,7.57559e-13
0.3,9.6,0,0.299897,0.00240898,7.5e-13
0.3,9.7,0,0.299897,0.00240898,7.5e-13
0.3,9.8,0,0.299899,0.00242714,7.5e-13
0.3,9.9,0,0.299907,0.00248616,7.5e-13
0.3,10,0,0.299915,0.00254518,7.5e-13
0.3,10.1,0,0.299919,0.00258195,7.5e-13
0.3,10.2,0,0.299919,0.00258195,7.5e-13
0.3,10.3,0,0.299923,0.00260092,7.17502e-13
0.3,10.4,0,0.29993,0.00264576,6.40687e-13
0.3,10.5,0,0.299938,0.00269059,5.63873e-13
0.3,10.6,0,0.299942,0.00271336,5.24874e-13
0.3,10.7,0,0.299942,0.00271336,5.24874e-13
0.3,10.8,0,0.299945,0.00273153,4.28461e-13
0.3,10.9,0,0.299952,0.00276527,2.49408e-13
0.3,11,0,0.299958,0.00279902,7.0354e-14
0.3,11.1,0,0.299961,0.00281225,1.09894e-16
0.3,11.2,0,0.299961,0.00281225,1.09894e-16
0.3,11.3,0,0.299964,0.00283,-1.25396e-13
0.3,11.4,0,0.299969,0.00285715,-3.17346e-13
0.3,11.5,0,0.299974,0.00288429,-5.09297e-13
0.3,11.6,0,0.299975,0.00289181,-5.62452e-13
0.3,11.7,0,0.299975,0.00289181,-5.62452e-13
0.3,11.8,0,0.299975,0.00289181,-5.62452e-13
0.3,11.9,0,0.299975,0.00289181,-5.62452e-13
0.3,12,0,0.299979,0.00290992,-5.12281e-13
0.3,12.1,0,0.299983,0.00293214,-4.50751e-13
0.3,12.2,0,0.299988,0.00295436,-3.89221e-13
0.3,12.3,0,0.299985,0.00317521,-3.45742e-13
0.3,12.4,0,0.299981,0.00342654,-3.05033e-13
0.3,12.5,0,0.299982,0.00345306,-1.62614e-13
0.3,12.6,0,0.299984,0.00346044,-1.15378e-14
0.3,12.7,0,0.299987,0.00346783,1.39539e-13
0.4,0,0,0.300013,-0.00418417,-1.28925e-12
0.4,0.1,0,0.300015,-0.00417985,-1.42165e-12
0.4,0.2,0,0.300017,-0.00417554,-1.55405e-12
0.4,0.3,0,0.300019,-0.00417123,-1.68645e-12
0.4,0.4,0,0.300021,-0.00415972,-1.8111e-12
0.4,0.5,0,0.300018,-0.00392483,-1.6945e-12
0.4,0.6,0,0.300016,-0.00390436,-1.79881e-12
0.4,0.7,0,0.300014,-0.0038839,-1.90312e-12
0.4,0.8,0,0.300011,-0.00386343,-2.00743e-12
0.4,0.9,0,0.300009,-0.00384645,-2.09396e-12
0.4,1,0,0.300008,-0.00384191,-2.08473e-12
0.4,1.1,0,0.299998,-0.00381675,-2.03355e-12
0.4,1.2,0,0.299989,-0.00379159,-1.98238e-12
0.4,1.3,0,0.299979,-0.00376643,-1.9312e-12
0.4,1.4,0,0.299973,-0.00374896,-1.89566e-12
0.4,1.5,0,0.29997,-0.00373843,-1.86311e-12
0.4,1.6,0,0.299961,-0.00370553,-1.76141e-12
0.4,1.7,0,0.299952,-0.00367263,-1.65972e-12
0.4,1.8,0,0.299943,-0.00363973,-1.55803e-12
0.4,1.9,0,0.299937,-0.00362125,-1.50092e-12
0.4,2,0,0.299934,-0.00360105,-1.41815e-12
0.4,2.1,0,0.299927,-0.00355726,-1.23882e-12
0.4,2.2,0,0.299919,-0.00351348,-1.05948e-12
0.4,2.3,0,0.299912,-0.0034697,-8.80147e-13
0.4,2.4,0,0.299909,-0.00345017,-8.00136e-13
0.4,2.5,0,0.299904,-0.00341622,-6.9677e-13
0.4,2.6,0,0.299896,-0.00335738,-5.17601e-13
0.4,2.7,0,0.299889,-0.00329854,-3.38432e-13
0.4,2.8,0,0.299881,-0.0032397,-1.59264e-13
0.4,2.9,0,0.299879,-0.00322024,-1e-13
0.4,3,0,0.299872,-0.00316714,2.40157e-14
0.4,3.1,0,0.299864,-0.00309043,2.0315e-13
0.4,3.2,0,0.299855,-0.00301373,3.82283e-13
0.4,3.3,0,0.299846,-0.00293702,5.61417e-13
0.4,3.4,0,0.299844,-0.0029205,6e-13
0.4,3.5,0,0.299835,-0.00284566,6.62008e-13
0.4,3.6,0,0.299825,-0.00275299,7.3878e-13
0.4,3.7,0,0.299814,-0.00266033,8.15551e-13
0.4,3.8,0,0.299803,-0.00256767,8.92323e-13
0.4,3.9,0,0.299802,-0.0025584,9e-13
0.4,4,0,0.299792,-0.00245963,8.90551e-13
0.4,4.1,0,0.29978,-0.00235263,8.80315e-13
0.4,4.2,0,0.299769,-0.00224563,8.70079e-13
0.4,4.3,0,0.299757,-0.00214028,8.6e-13
0.4,4.4,0,0.299757,-0.00213566,8.61378e-13
0.4,4.5,0,0.299747,-0.00201546,8.97205e-13
0.4,4.6,0,0.299737,-0.00189526,9.33031e-13
0.4,4.7,0,0.299727,-0.00177506,9.68858e-13
0.4,4.8,0,0.299718,-0.00167058,1e-12
0.4,4.9,0,0.299717,-0.00165011,1.00945e-12
0.4,5,0,0.299711,-0.00151704,1.07087e-12
0.4,5.1,0,0.299705,-0.00138396,1.13228e-12
0.4,5.2,0,0.2997,-0.00125089,1.1937e-12
0.4,5.3,0,0.299695,-0.00115057,1.24e-12
0.4,5.4,0,0.299695,-0.00111189,1.26343e-12
0.4,5.5,0,0.299692,-0.000968185,1.35043e-12
0.4,5.6,0,0.29969,-0.000824485,1.43744e-12
0.4,5.7,0,0.299688,-0.000680785,1.52445e-12
0.4,5.8,0,0.299686,-0.000589038,1.58e-12
0.4,5.9,0,0.299686,-0.000531814,1.61248e-12
0.4,6,0,0.299685,-0.000383031,1.69693e-12
0.4,6.1,0,0.299685,-0.000234247,1.78138e-12
0.4,6.2,0,0.299684,-8.54641e-05,1.86583e-12
0.4,6.3,0,0.299684,-7.639e-06,1.91e-12
0.4,6.4,0,0.299685,6.66192e-05,1.93047e-12
0.4,6.5,0,0.299688,0.000215136,1.97142e-12
0.4,6.6,0,0.299691,0.000363652,2.01236e-12
0.4,6.7,0,0.299693,0.000512168,2.05331e-12
0.4,6.8,0,0.299695,0.000572717,2.07e-12
0.4,6.9,0,0.299698,0.000661462,2.0637e-12
0.4,7,0,0.299704,0.000805672,2.05346e-12
0.4,7.1,0,0.29971,0.000949882,2.04323e-12
0.4,7.2,0,0.299715,0.00109409,2.03299e-12
0.4,7.3,0,0.299717,0.00113625,2.03e-12
0.4,7.4,0,0.299722,0.00123557,2.00195e-12
0.4,7.5,0,0.299729,0.0013715,1.96356e-12
0.4,7.6,0,0.299737,0.00150742,1.92518e-12
0.4,7.7,0,0.299744,0.00164334,1.88679e-12
0.4,7.8,0,0.299745,0.00166739,1.88e-12
0.4,7.9,0,0.299751,0.00177155,1.82154e-12
0.4,8,0,0.299759,0.00189466,1.75244e-12
0.4,8.1,0,0.299766,0.00201776,1.68335e-12
0.4,8.2,0,0.299773,0.00214086,1.61425e-12
0.4,8.3,0,0.299774,0.00214844,1.61e-12
0.4,8.4,0,0.299781,0.00225152,1.52388e-12
0.4,8.5,0,0.299788,0.00235872,1.43431e-12
0.4,8.6,0,0.299795,0.00246592,1.34474e-12
0.4,8.7,0,0.299802,0.00256735,1.26e-12
0.4,8.8,0,0.299803,0.00257432,1.25567e-12
0.4,8.9,0,0.29981,0.00266494,1.19937e-12
0.4,9,0,0.299818,0.00275555,1.14307e-12
0.4,9.1,0,0.299826,0.00284617,1.08677e-12
0.4,9.2,0,0.299832,0.00292145,1.04e-12
0.4,9.3,0,0.299833,0.00293574,1.03803e-12
0.4,9.4,0,0.299841,0.00301009,1.0278e-12
0.4,9.5,0,0.299849,0.00308444,1.01756e-12
0.4,9.6,0,0.299857,0.00315879,1.00732e-12
0.4,9.7,0,0.299862,0.00321198,1e-12
0.4,9.8,0,0.299865,0.00323014,1e-12
0.4,9.9,0,0.299873,0.00328916,1e-12
0.4,10,0,0.29988,0.00334817,1e-12
0.4,10.1,0,0.299888,0.00340719,1e-12
0.4,10.2,0,0.299893,0.0034426,1e-12
0.4,10.3,0,0.299896,0.00346157,9.67502e-13
0.4,10.4,0,0.299903,0.00350641,8.90687e-13
0.4,10.5,0,0.299911,0.00355125,8.13873e-13
0.4,10.6,0,0.299919,0.00359608,7.37058e-13
0.4,10.7,0,0.299922,0.00361781,6.99833e-13
0.4,10.8,0,0.299926,0.00363598,6.03419e-13
0.4,10.9,0,0.299932,0.00366972,4.24366e-13
0.4,11,0,0.299939,0.00370347,2.45312e-13
0.4,11.1,0,0.299946,0.00373721,6.62586e-14
0.4,11.2,0,0.299948,0.00374967,1.46525e-16
0.4,11.3,0,0.299951,0.00376742,-1.25359e-13
0.4,11.4,0,0.299956,0.00379456,-3.1731e-13
0.4,11.5,0,0.299961,0.00382171,-5.0926e-13
0.4,11.6,0,0.299966,0.00384885,-7.0121e-13
0.4,11.7,0,0.299967,0.00385574,-7.49936e-13
0.4,11.8,0,0.299967,0.00385574,-7.49936e-13
0.4,11.9,0,0.299971,0.00387335,-7.01185e-13
0.4,12,0,0.299975,0.00389557,-6.39655e-13
0.4,12.1,0,0.299979,0.00391779,-5.78125e-13
0.4,12.2,0,0.299984,0.00394001,-5.16595e-13
0.4,12.3,0,0.299981,0.0041595,-4.72993e-13
0.4,12.4,0,0.299982,0.0041924,-3.3346e-13
0.4,12.5,0,0.299984,0.00419978,-1.82383e-13
0.4,12.6,0,0.299987,0.00420717,-3.1307e-14
0.4,12.7,0,0.299989,0.00421456,1.19769e-13
0.5,0,0,0.300013,-0.00492477,-1.45e-12
0.5,0.1,0,0.300015,-0.00492131,-1.58171e-12
0.5,0.2,0,0.300017,-0.00491785,-1.71342e-12
0.5,0.3,0,0.300019,-0.00491439,-1.84513e-12
0.5,0.4,0,0.300021,-0.00491093,-1.97684e-12
0.5,0.5,0,0.300022,-0.0049064,-2.1052e-12
0.5,0.6,0,0.30002,-0.00488603,-2.21352e-12
0.5,0.7,0,0.300018,-0.00486565,-2.32185e-12
0.5,0.8,0,0.300016,-0.00484523,-2.42805e-12
0.5,0.9,0,0.300014,-0.00482476,-2.53236e-12
0.5,1,0,0.30001,-0.00480384,-2.60886e-12
0.5,1.1,0,0.300001,-0.00477868,-2.55769e-12
0.5,1.2,0,0.299991,-0.00475352,-2.50651e-12
0.5,1.3,0,0.299982,-0.00472836,-2.45534e-12
0.5,1.4,0,0.299972,-0.00470321,-2.40416e-12
0.5,1.5,0,0.299963,-0.00467588,-2.33768e-12
0.5,1.6,0,0.299954,-0.00464298,-2.23599e-12
0.5,1.7,0,0.299945,-0.00461008,-2.1343e-12
0.5,1.8,0,0.299936,-0.00457718,-2.0326e-12
0.5,1.9,0,0.299927,-0.00454428,-1.93091e-12
0.5,2,0,0.299918,-0.00450636,-1.79338e-12
0.5,2.1,0,0.299911,-0.00446258,-1.61405e-12
0.5,2.2,0,0.299904,-0.0044188,-1.43471e-12
0.5,2.3,0,0.299896,-0.00437501,-1.25538e-12
0.5,2.4,0,0.299889,-0.00433123,-1.07604e-12
0.5,2.5,0,0.299881,-0.00427876,-8.96804e-13
0.5,2.6,0,0.299874,-0.00421992,-7.17635e-13
0.5,2.7,0,0.299866,-0.00416109,-5.38466e-13
0.5,2.8,0,0.299858,-0.00410225,-3.59298e-13
0.5,2.9,0,0.299851,-0.00404341,-1.80129e-13
0.5,3,0,0.299842,-0.0039722,-9.84252e-16
0.5,3.1,0,0.299833,-0.00389549,1.7815e-13
0.5,3.2,0,0.299824,-0.00381879,3.57283e-13
0.5,3.3,0,0.299816,-0.00374208,5.36417e-13
0.5,3.4,0,0.299807,-0.00366537,7.15551e-13
0.5,3.5,0,0.299796,-0.00357578,8.12008e-13
0.5,3.6,0,0.299786,-0.00348312,8.8878e-13
0.5,3.7,0,0.299775,-0.00339046,9.65551e-13
0.5,3.8,0,0.299764,-0.00329779,1.04232e-12
0.5,3.9,0,0.299754,-0.00320513,1.11909e-12
0.5,4,0,0.299742,-0.00309924,1.11555e-12
0.5,4.1,0,0.299731,-0.00299224,1.10531e-12
0.5,4.2,0,0.299719,-0.00288524,1.09508e-12
0.5,4.3,0,0.299708,-0.00277823,1.08484e-12
0.5,4.4,0,0.299696,-0.00267073,1.07638e-12
0.5,4.5,0,0.299686,-0.00255053,1.1122e-12
0.5,4.6,0,0.299676,-0.00243033,1.14803e-12
0.5,4.7,0,0.299666,-0.00231013,1.18386e-12
0.5,4.8,0,0.299656,-0.00218993,1.21969e-12
0.5,4.9,0,0.299646,-0.00206775,1.25945e-12
0.5,5,0,0.299641,-0.00193468,1.32087e-12
0.5,5.1,0,0.299635,-0.00180161,1.38228e-12
0.5,5.2,0,0.299629,-0.00166854,1.4437e-12
0.5,5.3,0,0.299623,-0.00153546,1.50512e-12
0.5,5.4,0,0.299618,-0.00139953,1.57343e-12
0.5,5.5,0,0.299616,-0.00125583,1.66043e-12
0.5,5.6,0,0.299614,-0.00111213,1.74744e-12
0.5,5.7,0,0.299611,-0.000968429,1.83445e-12
0.5,5.8,0,0.299609,-0.000824729,1.92146e-12
0.5,5.9,0,0.299607,-0.000679074,2.00748e-12
0.5,6,0,0.299607,-0.00053029,2.09193e-12
0.5,6.1,0,0.299606,-0.000381507,2.17638e-12
0.5,6.2,0,0.299606,-0.000232724,2.26083e-12
0.5,6.3,0,0.299605,-8.39404e-05,2.34528e-12
0.5,6.4,0,0.299606,6.47094e-05,2.40797e-12
0.5,6.5,0,0.299609,0.000213226,2.44892e-12
0.5,6.6,0,0.299612,0.000361742,2.48986e-12
0.5,6.7,0,0.299614,0.000510258,2.53081e-12
0.5,6.8,0,0.299617,0.000658775,2.57175e-12
0.5,6.9,0,0.299622,0.000804641,2.5812e-12
0.5,7,0,0.299628,0.000948851,2.57096e-12
0.5,7.1,0,0.299633,0.00109306,2.56073e-12
0.5,7.2,0,0.299639,0.00123727,2.55049e-12
0.5,7.3,0,0.299645,0.00138148,2.54026e-12
0.5,7.4,0,0.299651,0.00151963,2.50945e-12
0.5,7.5,0,0.299659,0.00165556,2.47106e-12
0.5,7.6,0,0.299666,0.00179148,2.43268e-12
0.5,7.7,0,0.299673,0.0019274,2.39429e-12
0.5,7.8,0,0.29968,0.00206333,2.35591e-12
0.5,7.9,0,0.299687,0.0021884,2.29154e-12
0.5,8,0,0.299695,0.0023115,2.22244e-12
0.5,8.1,0,0.299702,0.00243461,2.15335e-12
0.5,8.2,0,0.299709,0.00255771,2.08425e-12
0.5,8.3,0,0.299717,0.00268082,2.01516e-12
0.5,8.4,0,0.299724,0.00278863,1.92638e-12
0.5,8.5,0,0.299731,0.00289583,1.83681e-12
0.5,8.6,0,0.299739,0.00300303,1.74724e-12
0.5,8.7,0,0.299746,0.00311024,1.65768e-12
0.5,8.8,0,0.299753,0.00321616,1.57067e-12
0.5,8.9,0,0.299761,0.00330678,1.51437e-12