/*--------------------------------*- C++ -*----------------------------------*\
| =========                 |                                                 |
| \\      /  F ield         | OpenFOAM: The Open Source CFD Toolbox           |
|  \\    /   O peration     | Version:  v1806                                 |
|   \\  /    A nd           | Web:      www.OpenFOAM.com                      |
|    \\/     M anipulation  |                                                 |
\*---------------------------------------------------------------------------*/
FoamFile
{
    version     2.0;
    format      ascii;
    class       surfaceScalarField;
    location    "300";
    object      phi;
}
// * * * * * * * * * * * * * * * * * * * * * * * * * * * * * * * * * * * * * //

dimensions      [0 3 -1 0 0 0 0];
oriented        oriented;


internalField   nonuniform List<scalar> 
4680
(
0.0749991
-0.000228784
0.0749975
-0.000727835
0.0749927
-0.0011967
0.0749872
-0.00173894
0.0749768
-0.00225454
0.0749659
-0.00288151
0.0749481
-0.00348271
0.0749307
-0.00423397
0.0749042
-0.00495922
0.07488
-0.00586738
0.0748454
-0.00674826
0.0748164
-0.0078225
0.0747786
-0.00886191
0.0747524
-0.0100553
0.0747258
-0.0111831
0.0747196
-0.0123444
0.0747295
-0.0133534
0.0747691
-0.014191
0.0748362
-0.0147063
-0.0148357
0.0749492
0.0749979
-0.000226661
0.0749944
-0.000724397
0.0749853
-0.00118756
0.0749758
-0.0017294
0.0749582
-0.002237
0.0749418
-0.00286509
0.0749141
-0.00345497
0.0748902
-0.00421014
0.0748512
-0.00492019
0.074821
-0.00583721
0.0747728
-0.0067
0.0747415
-0.0077912
0.074694
-0.00881447
0.0746752
-0.0100365
0.0746531
-0.011161
0.0746732
-0.0123644
0.0747159
-0.0133961
0.0748086
-0.0142838
0.0749464
-0.0148441
-0.015014
0.0751247
0.0749965
-0.000223199
0.074991
-0.000718822
0.0749764
-0.00117296
0.0749616
-0.00171465
0.0749346
-0.00220994
0.0749104
-0.00284095
0.0748689
-0.00341345
0.0748356
-0.00417684
0.0747787
-0.00486329
0.0747391
-0.00579761
0.0746707
-0.00663158
0.074634
-0.00775454
0.0745699
-0.00875031
0.0745576
-0.0100242
0.0745351
-0.0111385
0.0745854
-0.0124147
0.0746633
-0.013474
0.0748215
-0.014442
0.07504
-0.0150626
-0.0152842
0.0753103
0.0749953
-0.00021848
0.0749874
-0.000710977
0.0749673
-0.00115286
0.0749469
-0.00169424
0.0749099
-0.00217289
0.074877
-0.0028081
0.0748206
-0.00335705
0.0747763
-0.00413252
0.0746995
-0.00478649
0.0746485
-0.00574659
0.0745564
-0.00653951
0.0745123
-0.0077105
0.0744259
-0.00866387
0.074419
-0.0100173
0.0743885
-0.011108
0.0744703
-0.0124964
0.0745778
-0.0135815
0.074806
-0.0146702
0.07511
-0.0153666
-0.0156611
0.0754869
0.0749941
-0.000212605
0.0749839
-0.000700763
0.0749584
-0.00112738
0.0749322
-0.00166797
0.0748852
-0.00212588
0.0748432
-0.00276615
0.0747716
-0.00328543
0.0747156
-0.00407651
0.0746177
-0.00468863
0.0745543
-0.00568321
0.0744358
-0.00642095
0.0743834
-0.00765812
0.0742688
-0.0085493
0.0742672
-0.0100157
0.074219
-0.0110598
0.0743347
-0.0126121
0.0744614
-0.0137082
0.0747662
-0.0149751
0.0751578
-0.0157581
-0.0161542
0.0756509
0.0749931
-0.000205713
0.0749804
-0.000688042
0.0749498
-0.00109677
0.0749175
-0.00163567
0.0748608
-0.00206919
0.0748094
-0.00271482
0.0747227
-0.00319866
0.0746545
-0.00400829
0.0745349
-0.00456904
0.0744583
-0.00560668
0.0743108
-0.00627342
0.0742493
-0.00759657
0.0741003
-0.00840037
0.0741041
-0.0100195
0.0740261
-0.0109818
0.0741796
-0.0127656
0.0743103
-0.0138389
0.0747027
-0.0153676
0.0751802
-0.0162357
-0.0167771
0.0758031
0.0749923
-0.000197978
0.0749768
-0.000672626
0.0749414
-0.00106136
0.0749029
-0.00159711
0.0748369
-0.00200324
0.0747758
-0.00265369
0.0746742
-0.0030971
0.0745931
-0.00392718
0.0744516
-0.0044275
0.0743608
-0.00551588
0.0741822
-0.00609487
0.07411
-0.00752434
0.0739204
-0.0082108
0.073929
-0.0100281
0.0738075
-0.0108603
0.0740034
-0.0129615
0.0741172
-0.0139526
0.0746134
-0.0158638
0.0751688
-0.016791
-0.0175517
0.0759434
0.0749916
-0.000189623
0.0749733
-0.000654265
0.0749335
-0.00102159
0.0748883
-0.00155193
0.0748138
-0.00192871
0.0747423
-0.00258216
0.0746267
-0.00298148
0.0745316
-0.00383208
0.0743684
-0.00426432
0.0742615
-0.00540897
0.0740505
-0.00588393
0.0739649
-0.00743872
0.073729
-0.00797484
0.07374
-0.0100391
0.0735602
-0.0106805
0.0738023
-0.0132037
0.0738728
-0.0140231
0.0744946
-0.0164857
0.0751097
-0.0174061
-0.0185122
0.0760702
0.0749913
-0.000180905
0.0749697
-0.000632651
0.0749261
-0.000978047
0.0748739
-0.00149966
0.0747916
-0.00184649
0.0747089
-0.00249938
0.0745804
-0.00285298
0.0744697
-0.00372143
0.074286
-0.0040806
0.0741601
-0.00528311
0.0739166
-0.00564044
0.0738131
-0.0073352
0.0735264
-0.00768808
0.0735345
-0.0100472
0.073282
-0.010428
0.0735713
-0.013493
0.0735675
-0.0140193
0.0743407
-0.0172589
0.0749844
-0.0180497
-0.0197097
0.0761818
0.0749912
-0.000172108
0.074966
-0.000607433
0.0749193
-0.000931395
0.0748594
-0.00143973
0.0747707
-0.00175774
0.0746755
-0.0024042
0.0745358
-0.00271333
0.0744074
-0.00359299
0.0742053
-0.00387848
0.0740564
-0.0051342
0.0737819
-0.00536594
0.0736535
-0.00720683
0.0733139
-0.00734846
0.0733097
-0.010043
0.0729718
-0.0100901
0.0733037
-0.0138248
0.0731919
-0.0139075
0.0741436
-0.0182106
0.0747712
-0.0186774
-0.0212173
0.0762789
0.0749914
-0.00016351
0.0749622
-0.000578254
0.0749132
-0.000882393
0.074845
-0.0013715
0.0747511
-0.00166385
0.0746421
-0.00229525
0.0744937
-0.00256485
0.0743445
-0.00344387
0.0741275
-0.00366139
0.0739498
-0.00495651
0.0736483
-0.00506443
0.0734848
-0.00704336
0.0730941
-0.00695774
0.0730622
-0.0100112
0.0726303
-0.00965821
0.0729915
-0.014186
0.0727371
-0.0136531
0.0738916
-0.0193651
0.074446
-0.0192318
-0.0231372
0.0763659
0.0749918
-0.00015533
0.0749584
-0.000544833
0.0749078
-0.000831781
0.0748307
-0.00129438
0.0747331
-0.00156631
0.0746089
-0.00217106
0.0744544
-0.00241031
0.0742811
-0.00327062
0.0740538
-0.00343408
0.0738399
-0.00474258
0.0735185
-0.00474302
0.0733053
-0.0068302
0.0728711
-0.00652355
0.0727875
-0.00992759
0.0722609
-0.00913156
0.0726255
-0.0145506
0.0721951
-0.0132227
0.0735711
-0.0207411
0.0739782
-0.0196389
-0.0256126
0.0764536
0.0749923
-0.000147664
0.0749546
-0.000507074
0.0749029
-0.000780137
0.0748166
-0.00120806
0.0747168
-0.00146646
0.0745761
-0.00203041
0.0744184
-0.00225259
0.0742175
-0.00306973
0.0739857
-0.00320227
0.0737267
-0.0044836
0.0733958
-0.00441207
0.0731133
-0.00654773
0.0726513
-0.00606152
0.0724791
-0.00975543
0.0718715
-0.00852399
0.0721918
-0.0148709
0.0715614
-0.0125923
0.0731671
-0.0223468
0.073321
-0.0197927
-0.0288523
0.0765606
0.0749928
-0.000140422
0.0749509
-0.000465182
0.0748984
-0.000727709
0.0748031
-0.00111276
0.0747018
-0.00136509
0.0745443
-0.00187299
0.0743855
-0.00209377
0.0741546
-0.00283877
0.0739237
-0.00297143
0.073611
-0.00417092
0.0732831
-0.00408408
0.0729076
-0.00617229
0.072442
-0.00559589
0.0721275
-0.00944093
0.0714761
-0.00787258
0.0716647
-0.0150595
0.0708443
-0.0117718
0.0726582
-0.0241608
0.0723993
-0.0195338
-0.0331883
0.0767354
0.0749929
-0.000133292
0.0749474
-0.000419737
0.074894
-0.000674306
0.0747907
-0.00100943
0.0746877
-0.00126208
0.0745146
-0.00169992
0.0743551
-0.00193429
0.0740945
-0.00257811
0.073867
-0.00274399
0.0734965
-0.00380037
0.0731817
-0.00376927
0.0726908
-0.00568136
0.0722507
-0.00515582
0.0717238
-0.00891402
0.0710915
-0.00724034
0.0709987
-0.0149667
0.0700764
-0.0108495
0.0719778
-0.0260622
0.0711189
-0.0186749
-0.0392139
0.0771445
0.0749925
-0.000125769
0.0749444
-0.000371667
0.0748894
-0.000619313
0.0747797
-0.000899764
0.0746741
-0.0011564
0.0744881
-0.00151398
0.0743263
-0.00177242
0.07404
-0.00229185
0.0738136
-0.00251756
0.0733895
-0.00337626
0.073087
-0.00346677
0.0724767
-0.00507115
0.0720797
-0.00475877
0.0712736
-0.00810789
0.0707318
-0.00669861
0.0701314
-0.0143663
0.0693097
-0.0100278
0.070929
-0.0276815
0.0694444
-0.0171903
-0.0480017
0.0782322
0.0749915
-0.000117247
0.0749419
-0.0003221
0.0748845
-0.00056188
0.0747707
-0.000785946
0.0746606
-0.00104637
0.0744659
-0.00131924
0.0742982
-0.00160475
0.0739938
-0.00198747
0.0737614
-0.00228513
0.0732972
-0.00291203
0.0729931
-0.00316273
0.0722847
-0.00436267
0.0719083
-0.00438237
0.0708363
-0.0070359
0.0704056
-0.00626793
0.0690307
-0.0129914
0.068561
-0.00955808
0.0691415
-0.028262
0.0675914
-0.0156402
-0.0608988
0.0804884
0.0749899
-0.000107107
0.07494
-0.000272243
0.0748792
-0.000501116
0.0747636
-0.000670309
0.0746474
-0.000930156
0.0744484
-0.00112025
0.074271
-0.00142732
0.0739575
-0.00167396
0.07371
-0.00203764
0.0732245
-0.00242655
0.0728971
-0.00283531
0.0721319
-0.0035975
0.0717211
-0.00397157
0.0704695
-0.00578434
0.0700203
-0.00581868
0.0679682
-0.0109393
0.067764
-0.00935388
0.0662634
-0.0267613
0.0661451
-0.015522
-0.0776608
0.0829071
0.0749876
-9.47485e-05
0.0749387
-0.000223342
0.0748739
-0.000436239
0.0747586
-0.000555046
0.0746347
-0.000806261
0.0744357
-0.00092121
0.0742454
-0.00123701
0.0739308
-0.00135944
0.0736613
-0.00176807
0.0731715
-0.00193681
0.0728028
-0.00246662
0.072022
-0.0028167
0.0715224
-0.00347193
0.0702068
-0.00446873
0.0695432
-0.00515506
0.0671473
-0.00854345
0.0666194
-0.00882595
0.062543
-0.022685
0.065471
-0.01845
-0.092563
0.0803733
0.0749843
-7.90763e-05
0.0749394
-0.000178365
0.0748674
-0.000364261
0.074757
-0.000444692
0.0746208
-0.000670042
0.0744299
-0.000730322
0.0742186
-0.00102574
0.0739173
-0.00105807
0.073612
-0.00146276
0.073142
-0.00146685
0.0727101
-0.00203476
0.0719541
-0.00206066
0.07133
-0.0028478
0.0700294
-0.00316811
0.0690471
-0.00417277
0.0665648
-0.00606113
0.0648671
-0.00712825
0.0595198
-0.0173378
0.0619602
-0.0208903
0.0616297
-0.0922326
0.0749778
-0.00265897
0.0749993
-0.00264018
0.0750223
-0.00262175
0.075046
-0.00260025
0.0750702
-0.00257597
0.0750949
-0.00254898
0.0751199
-0.00251933
0.0751452
-0.00248708
0.0751703
-0.00245221
-0.00241484
0.0751944
0.0751563
-0.00269058
0.0751913
-0.00267523
0.0752266
-0.00265701
0.0752622
-0.00263584
0.0752979
-0.00261172
0.0753337
-0.00258472
0.0753692
-0.00255488
0.0754045
-0.00252232
0.0754393
-0.00248704
-0.00244971
0.0754742
0.075362
-0.00274229
0.0754145
-0.00272772
0.0754671
-0.00270959
0.0755195
-0.00268828
0.0755716
-0.00266382
0.0756231
-0.00263623
0.0756738
-0.0026056
0.0757235
-0.00257204
0.075772
-0.00253554
-0.00249671
0.075819
0.0755586
-0.00281405
0.0756305
-0.0027996
0.0757024
-0.0027815
0.075774
-0.00275984
0.0758448
-0.00273466
0.0759146
-0.00270604
0.0759831
-0.00267404
0.0760498
-0.00263881
0.0761146
-0.00260033
-0.00255939
0.0761773
0.0757443
-0.00290746
0.0758382
-0.00289347
0.075932
-0.00287531
0.0760252
-0.00285304
0.0761172
-0.00282675
0.0762077
-0.00279652
0.0762962
-0.00276248
0.0763821
-0.00272479
0.0764652
-0.00268342
-0.00263942
0.0765453
0.0759217
-0.00302604
0.0760408
-0.00301262
0.0761598
-0.00299423
0.0762777
-0.00297098
0.076394
-0.00294302
0.0765079
-0.00291048
0.076619
-0.00287351
0.0767265
-0.00283236
0.0768301
-0.00278698
-0.00273878
0.0769295
0.0760919
-0.00317448
0.0762409
-0.0031616
0.0763893
-0.00314269
0.0765362
-0.00311788
0.0766806
-0.00308743
0.0768217
-0.00305157
0.0769587
-0.0030105
0.0770909
-0.00296457
0.0772176
-0.00291371
-0.00285987
0.0773387
0.0762551
-0.00335943
0.0764404
-0.0033468
0.0766244
-0.00332674
0.0768059
-0.00329938
0.0769837
-0.00326523
0.0771567
-0.0032246
0.077324
-0.00317777
0.0774847
-0.00312525
0.0776379
-0.0030669
-0.00300552
0.0777835
0.0764127
-0.00359027
0.0766429
-0.00357701
0.0768707
-0.00355452
0.0770943
-0.00352299
0.0773123
-0.00348322
0.0775233
-0.00343566
0.0777262
-0.00338068
0.07792
-0.003319
0.0781035
-0.00325043
-0.00317898
0.078277
0.0765684
-0.0038798
0.0768553
-0.00386394
0.0771375
-0.00383668
0.0774128
-0.00379827
0.0776795
-0.00374995
0.0779361
-0.00369224
0.078181
-0.00362564
0.0784133
-0.00355122
0.0786315
-0.00346868
-0.00338371
0.0788362
0.0767308
-0.0042447
0.0770896
-0.00422272
0.0774397
-0.00418677
0.0777787
-0.00413726
0.0781047
-0.00407595
0.0784159
-0.00400341
0.0787105
-0.00392028
0.0789874
-0.0038281
0.0792452
-0.00372648
-0.00362337
0.0794849
0.0769152
-0.00470632
0.0773651
-0.00467263
0.0778004
-0.00462206
0.0782185
-0.00455533
0.0786172
-0.00447469
0.0789944
-0.00438065
0.0793483
-0.00427412
0.0796775
-0.00415731
0.0799807
-0.00402972
-0.00390227
0.0802596
0.0771492
-0.00529485
0.0777168
-0.0052403
0.0782616
-0.00516678
0.0787805
-0.00507426
0.0792711
-0.0049653
0.0797308
-0.00484033
0.0801573
-0.00470062
0.0805494
-0.00454941
0.0809057
-0.00438606
-0.00422538
0.0812288
0.0775007
-0.00606016
0.0782303
-0.0059699
0.0789242
-0.00586077
0.0795787
-0.00572868
0.08019
-0.00557665
0.0807548
-0.00540512
0.0812702
-0.00521603
0.0817349
-0.0050141
0.0821478
-0.00479894
-0.00458989
0.0825123
0.0781643
-0.00707996
0.0791258
-0.00693142
0.0800265
-0.00676141
0.0808593
-0.0065615
0.0816185
-0.00633587
0.082299
-0.00608565
0.0828976
-0.00581463
0.0834134
-0.00552986
0.0838472
-0.00523276
-0.00494517
0.0842025
0.0795776
-0.00842541
0.080817
-0.00817076
0.0819331
-0.00787753
0.0829189
-0.00754733
0.083767
-0.00718392
0.0844718
-0.00679045
0.0850328
-0.00637569
0.0854536
-0.00595064
0.0857429
-0.00552209
-0.00510508
0.0859028
0.0821207
-0.0100577
0.0834592
-0.00950923
0.0845327
-0.00895107
0.0853553
-0.00836993
0.0859305
-0.00775914
0.0862662
-0.00712609
0.0863785
-0.00648806
0.0862871
-0.0058592
0.0860166
-0.00525156
-0.00466739
0.0855789
0.0842628
-0.0114133
0.0849475
-0.010194
0.0851539
-0.00915745
0.0849457
-0.00816176
0.084374
-0.00718744
0.0835013
-0.00625343
0.0823931
-0.00537983
0.0811028
-0.00456894
0.0796712
-0.00381988
-0.00310915
0.0781129
0.0790955
-0.0101356
0.0772859
-0.0083843
0.0749723
-0.00684388
0.0722992
-0.0054886
0.0694122
-0.00430044
0.0664546
-0.00329592
0.0635357
-0.00246088
0.0607315
-0.0017647
0.0580883
-0.00117676
-0.000683583
0.0556628
0.0514941
0.0431098
0.0362659
0.0307773
0.0264769
0.023181
0.0207201
0.0189554
0.0177786
0.0170951
0.0753706
-0.0152435
0.0755229
-0.0128337
0.0756438
-0.0101448
0.0757319
-0.00750701
0.07579
-0.00506057
0.0758243
-0.0029196
0.0758417
-0.00109963
0.0758452
0.000429162
0.0758402
0.00163771
0.0758256
0.00261366
0.0758066
0.00331104
0.0757855
0.00378019
0.0757648
0.0040998
0.0757531
0.00417124
0.0757453
0.00432147
0.0757507
0.00424589
0.0757578
0.00442073
0.075766
0.00444979
0.0757704
0.00464633
0.00482203
0.0756818
-0.0154511
0.0758289
-0.0129808
0.0759151
-0.010231
0.075955
-0.00754693
0.0759621
-0.00506771
0.0759498
-0.00290724
0.0759276
-0.00107749
0.0758989
0.0004579
0.0758682
0.00166842
0.0758332
0.0026486
0.0757997
0.00334461
0.0757684
0.00381149
0.0757432
0.00412499
0.0757318
0.00418258
0.0757274
0.00432591
0.0757391
0.00423416
0.0757515
0.00440838
0.0757632
0.00443804
0.0757695
0.00464009
0.00483347
0.0760901
-0.0157222
0.0762512
-0.0131419
0.0763145
-0.0102943
0.0763081
-0.0075406
0.0762578
-0.00501741
0.0761869
-0.00283631
0.0761098
-0.00100042
0.0760326
0.000535146
0.0759598
0.00174117
0.0758887
0.00271978
0.0758262
0.00340709
0.0757724
0.00386531
0.0757333
0.00416407
0.0757167
0.00419918
0.0757128
0.00432981
0.0757318
0.00421518
0.0757506
0.00438957
0.0757674
0.00442124
0.075775
0.00463245
0.00485106
0.0765259
-0.0160708
0.0767129
-0.0133289
0.0767627
-0.0103441
0.0767175
-0.00749537
0.0766146
-0.00491458
0.0764876
-0.00270929
0.0763556
-0.000868434
0.0762276
0.000663238
0.0761083
0.00186046
0.0759943
0.00283373
0.0758954
0.00350605
0.0758108
0.00394983
0.0757506
0.0042243
0.0757231
0.00422667
0.0757159
0.00433701
0.0757411
0.00419001
0.0757654
0.00436523
0.0757872
0.00439944
0.0757946
0.00462509
0.00487762
0.0769784
-0.016504
0.0771934
-0.0135438
0.0772309
-0.0103817
0.0771482
-0.00741267
0.0769952
-0.00476156
0.0768155
-0.00252958
0.0766323
-0.000685184
0.0764564
0.000839085
0.0762922
0.00202466
0.0761353
0.00299066
0.0759979
0.00364341
0.0758793
0.00406842
0.0757944
0.00430924
0.0757529
0.0042682
0.07574
0.00434989
0.0757709
0.0041591
0.0757999
0.00433626
0.0758264
0.00437293
0.0758318
0.0046197
0.00491645
0.0774518
-0.0170263
0.0776924
-0.0137845
0.0777135
-0.0104027
0.0775893
-0.00728846
0.077384
-0.00455629
0.077152
-0.00229754
0.0769197
-0.000452902
0.0766993
0.00105952
0.0764929
0.00223105
0.0762947
0.00318883
0.0761193
0.00381881
0.0759657
0.004222
0.0758549
0.00442005
0.0757982
0.00432489
0.0757791
0.00436904
0.0758166
0.0041216
0.07585
0.00430285
0.0758815
0.0043414
0.0758834
0.00461783
0.00497105
0.0779536
-0.0176411
0.0782153
-0.0140461
0.0782124
-0.0103999
0.0780391
-0.00711513
0.0777763
-0.00429356
0.0774898
-0.00201096
0.0772086
-0.000171735
0.0769453
0.00132284
0.0766982
0.00247814
0.0764598
0.00342725
0.0762461
0.00403247
0.0760565
0.00441165
0.0759188
0.00455769
0.0758461
0.00439761
0.0758207
0.00439439
0.0758662
0.00407616
0.0759041
0.00426498
0.0759412
0.00430428
0.0759377
0.00462133
0.00504518
0.0784927
-0.0183504
0.0787688
-0.0143222
0.0787319
-0.0103629
0.0784993
-0.00688255
0.0781719
-0.0039662
0.0778268
-0.00166585
0.0774951
0.000160009
0.0771888
0.0016291
0.0769004
0.00276656
0.0766207
0.00370699
0.0763662
0.00428697
0.0761372
0.00464057
0.07597
0.00472493
0.0758787
0.00448888
0.0758462
0.00442689
0.0758998
0.00402256
0.0759412
0.00422362
0.0759838
0.00426162
0.0759721
0.00463312
0.00514315
0.0790795
-0.0191529
0.0793616
-0.0146043
0.0792776
-0.010279
0.0789731
-0.00657802
0.0785717
-0.00356486
0.0781618
-0.0012559
0.0777755
0.000546343
0.0774235
0.00198109
0.0770898
0.00310019
0.0767642
0.00403259
0.0764624
0.00458885
0.0761874
0.00491555
0.0759842
0.0049281
0.0758684
0.00460463
0.075825
0.00447031
0.0758841
0.00396348
0.0759256
0.00418218
0.0759723
0.00421489
0.0759477
0.00465772
0.00526968
0.0797271
-0.0200438
0.0800054
-0.0148825
0.0798573
-0.0101309
0.0794638
-0.00618451
0.0789743
-0.00307542
0.078488
-0.000769558
0.078038
0.000996354
0.0776318
0.00238724
0.0772436
0.00348844
0.0768622
0.00441393
0.076501
0.00495006
0.0761683
0.0052483
0.0759179
0.00517852
0.0757668
0.00475564
0.0757045
0.0045327
0.0757619
0.00390603
0.0757969
0.00414715
0.0758446
0.00416722
0.0758017
0.00470066
0.00542877
0.0804558
-0.0210147
0.0807177
-0.0151444
0.080479
-0.00989221
0.0799687
-0.0056742
0.079365
-0.00247169
0.0787787
-0.000183276
0.0782448
0.00153029
0.0777659
0.00286605
0.0773052
0.0039492
0.0768512
0.00486795
0.0764125
0.00538869
0.0760053
0.00565552
0.0756911
0.00549269
0.075489
0.00495779
0.0753947
0.00462695
0.0754385
0.00386223
0.0754583
0.00412736
0.0755034
0.00412213
0.0754382
0.00476589
0.00562089
0.0812988
-0.0220538
0.0815192
-0.0153649
0.081137
-0.00950998
0.0804553
-0.00499257
0.0796854
-0.00170175
0.078952
0.000550146
0.0782958
0.00218646
0.0777115
0.00345035
0.077151
0.00450971
0.0766015
0.00541743
0.0760642
0.00592603
0.075564
0.00615571
0.0751672
0.00588946
0.0748954
0.0052296
0.0747534
0.0047689
0.0747689
0.0038468
0.0747658
0.00413043
0.0748082
0.00407977
0.0747237
0.00485034
0.00583833
0.0823016
-0.0231266
0.0824035
-0.0154667
0.0817587
-0.00886519
0.0807971
-0.00403093
0.0797645
-0.000669186
0.0788059
0.00150877
0.077968
0.00302435
0.0772345
0.00418389
0.0765451
0.00519903
0.0758812
0.00608138
0.0752315
0.00657574
0.0746278
0.00675944
0.0741357
0.00638156
0.0737802
0.00558502
0.0735778
0.0049713
0.073554
0.00387065
0.0735288
0.0041556
0.0735782
0.00403034
0.0734925
0.00493608
0.0060597
0.0834641
-0.0240785
0.0832246
-0.0152272
0.0820729
-0.00771345
0.0806454
-0.00260342
0.0792052
0.000771012
0.0779231
0.00279082
0.0768411
0.00410641
0.0759264
0.0050986
0.0751019
0.00602348
0.0743322
0.00685115
0.0735861
0.00732184
0.0728944
0.00745112
0.0723158
0.00696011
0.0718803
0.00602049
0.0716192
0.00523249
0.0715604
0.00392943
0.0715324
0.00418355
0.071617
0.00394578
0.0715707
0.00498238
0.00624572
0.0845073
-0.0243833
0.0834313
-0.0141512
0.0813732
-0.00565535
0.079248
-0.000478199
0.0772589
0.0027601
0.0755942
0.00445554
0.0742605
0.00544007
0.0731977
0.00616142
0.0723002
0.00692101
0.0714984
0.00765287
0.0707317
0.00808861
0.0700165
0.00816626
0.0694011
0.00757554
0.0689227
0.00649888
0.0686335
0.00552172
0.0685731
0.00398985
0.0685896
0.00416702
0.0687618
0.00377361
0.0688211
0.00492306
0.00633994
0.0843378
-0.0228182
0.0816513
-0.0114647
0.0782741
-0.00227816
0.0753288
0.00246716
0.0728191
0.00526976
0.0708779
0.00639674
0.069441
0.00687694
0.0684025
0.00719994
0.0676126
0.00771086
0.0669511
0.0083144
0.0663197
0.00872006
0.0657081
0.00877784
0.0651582
0.00812543
0.064719
0.00693807
0.0644732
0.00576756
0.064482
0.00398106
0.0646199
0.00402913
0.0649539
0.00343953
0.0652019
0.0046751
0.00627723
0.0803181
-0.0175574
0.075412
-0.00655869
0.0707657
0.00236815
0.0673844
0.00584848
0.0647648
0.0078894
0.0629755
0.00818607
0.0618216
0.00803081
0.0611555
0.00786605
0.0607772
0.00808909
0.0605147
0.00857697
0.0602366
0.00899815
0.0599032
0.00911125
0.0595657
0.00846288
0.0592891
0.00721469
0.0591974
0.0058593
0.0593772
0.00380122
0.0597295
0.00367688
0.0603048
0.0028642
0.0608189
0.00416103
0.00599949
0.0682754
-0.00771991
0.0619192
-0.000202473
0.057323
0.00696435
0.0546626
0.00850882
0.0528471
0.00970491
0.0519301
0.00910309
0.051607
0.00835389
0.0517393
0.00773371
0.0521013
0.00772713
0.0524964
0.00818184
0.0527819
0.00871263
0.0529006
0.00899256
0.0529336
0.00842996
0.05296
0.00718821
0.0531502
0.00566915
0.0536062
0.00334519
0.0542528
0.00303031
0.0551238
0.00199315
0.0559464
0.0033385
0.00547273
0.0454042
0.00253862
0.0412699
0.00393189
0.0392287
0.0090055
0.0386714
0.00906619
0.0385894
0.00978689
0.0391449
0.0085476
0.0400596
0.00743916
0.0412662
0.00652716
0.0425543
0.00643896
0.0437456
0.00699057
0.0447125
0.00774575
0.0453996
0.00830541
0.0459262
0.00790335
0.0463747
0.00673974
0.0469512
0.00509271
0.0477499
0.00254648
0.0487238
0.00205641
0.0498889
0.000827983
0.0510043
0.00222316
0.00469722
0.0181954
0.00143826
0.0195772
0.00255008
0.0212262
0.00735651
0.0229898
0.00730265
0.0248472
0.0079295
0.0269328
0.00646201
0.029111
0.00526092
0.0313648
0.00427339
0.0335313
0.00427242
0.0354754
0.00504648
0.0371086
0.00611252
0.0383852
0.00702881
0.0394534
0.00683515
0.0403811
0.00581206
0.0413787
0.0040951
0.0425159
0.00140925
0.0437822
0.000790156
0.0451628
-0.000552574
0.0465044
0.000881504
0.00371586
0.00281822
-0.00137996
0.00353503
0.00183327
0.00475465
0.00613688
0.00581633
0.00624097
0.00700537
0.00674046
0.00813505
0.00533232
0.00927966
0.00411631
0.0103887
0.00316434
0.011434
0.00322712
0.0123652
0.00411525
0.0131687
0.00530905
0.0138208
0.00637676
0.0143837
0.00627216
0.0148825
0.00531327
0.0153794
0.00359824
0.0159059
0.000882786
0.016471
0.000225011
0.0170287
-0.0011103
0.017624
0.000286292
0.00331107
0.000924192
-0.00230415
0.00157243
0.00118503
0.00299105
0.00471827
0.00423114
0.00500088
0.00561643
0.00535518
0.00689507
0.00405368
0.00816327
0.00284812
0.00936449
0.00196311
0.0104855
0.00210606
0.0114854
0.00311536
0.0123573
0.00443716
0.0130816
0.00565251
0.0137161
0.00563763
0.0142797
0.00474967
0.0148314
0.00304658
0.0153881
0.000326046
0.0159754
-0.000362224
0.0165361
-0.00167106
0.0171388
-0.000316371
0.00289302
-0.000444838
-0.00185931
9.6947e-05
0.000643242
0.00164978
0.00316543
0.00302794
0.00362272
0.00455948
0.00382363
0.00595417
0.00265899
0.0073114
0.00149088
0.00857543
0.000699089
0.00974566
0.000935823
0.0107925
0.00206848
0.0117154
0.0035143
0.0124995
0.00486843
0.013196
0.00494111
0.0138159
0.00412974
0.0144147
0.00244777
0.0149926
-0.000251805
0.0155912
-0.000960839
0.016147
-0.00222689
0.0167434
-0.000912692
0.00246468
-0.00134167
-0.000517643
-0.000827982
0.000129553
0.000768051
0.0015694
0.00223472
0.00215606
0.0038667
0.00219165
0.00533809
0.0011876
0.00674856
8.04119e-05
0.00804374
-0.000596087
0.00923547
-0.000255905
0.0103061
0.00099789
0.011261
0.00255937
0.0120904
0.00403898
0.0128368
0.00419474
0.0135029
0.00346363
0.0141389
0.00181178
0.0147278
-0.000840705
0.0153275
-0.0015605
0.0158682
-0.00276764
0.016448
-0.00149251
0.00203257
-0.00174009
0.00122244
-0.00125752
-0.000353016
0.00036289
-5.10077e-05
0.00187209
0.000646857
0.00355718
0.000506561
0.00506436
-0.000319578
0.00649097
-0.0013462
0.00778494
-0.00189006
0.00896988
-0.00144085
0.0100401
-7.23716e-05
0.0110071
0.00159246
0.0118657
0.00318036
0.012648
0.00341245
0.0133483
0.00276329
0.0140102
0.00114993
0.0145996
-0.00143011
0.0151898
-0.0021507
0.0157057
-0.00328358
0.0162592
-0.00204603
0.00160337
-0.00166181
0.00288425
-0.00117937
-0.000835458
0.000435846
-0.00166622
0.00194878
-0.000866079
0.0036387
-0.00118335
0.00514012
-0.001821
0.00654575
-0.00275183
0.00780656
-0.00315088
0.00895682
-0.0025911
0.0100028
-0.00111832
0.010961
0.00063421
0.0118314
0.00230994
0.0126343
0.00260958
0.0133556
0.00204198
0.0140311
0.000474446
0.0146104
-0.00200939
0.0151809
-0.00272118
0.015663
-0.00376577
0.0161812
-0.00256422
0.00118379
-0.0010966
0.00398085
-0.000595171
-0.00133689
0.000986489
-0.00324788
0.00246159
-0.00234118
0.00410773
-0.00282949
0.00556215
-0.00327542
0.00691063
-0.00410031
0.00810779
-0.00434804
0.00919685
-0.00368017
0.0101954
-0.00211684
0.0111245
-0.000294957
0.0119888
0.00144573
0.0127961
0.00180227
0.0135242
0.00131387
0.0142006
-0.000201956
0.0147594
-0.00256824
0.0153005
-0.00326227
0.0157411
-0.0042064
0.0162159
-0.00303898
0.000780372
1.99382e-05
0.00396091
0.000504068
-0.00182102
0.00200736
-0.00475118
0.00339567
-0.00372948
0.00494962
-0.00438344
0.00631694
-0.00464274
0.007574
-0.00535736
0.0086794
-0.00545344
0.00968306
-0.00468382
0.0106128
-0.00304658
0.0114934
-0.00117559
0.0123335
0.00060563
0.0131289
0.0010069
0.0138493
0.000593482
0.0145138
-0.000866522
0.0150426
-0.00309698
0.0155455
-0.00376519
0.0159381
-0.00459903
0.0163626
-0.00346347
0.000399244
0.00157192
0.00238899
0.00212529
-0.00237439
0.00347522
-0.0061011
0.00472489
-0.00497915
0.00613903
-0.00579758
0.00738109
-0.0058848
0.00851525
-0.00649153
0.00950406
-0.00644225
0.0104012
-0.00558096
0.0112434
-0.00388878
0.0120578
-0.00198995
0.0128567
-0.000193246
0.0136241
0.00023946
0.0143224
-0.000104785
0.0149627
-0.00150689
0.0154526
-0.00358684
0.0159097
-0.00422231
0.0162495
-0.0049388
0.0166183
-0.0038323
4.59363e-05
0.00374551
-0.00135652
0.00424463
-0.0028735
0.00534516
-0.00720163
0.00641844
-0.00605244
0.00763811
-0.00701724
0.00872374
-0.00697044
0.00970531
-0.0074731
0.0105571
-0.00729403
0.0113306
-0.00635448
0.0120697
-0.0046279
0.0128029
-0.0027231
0.0135449
-0.000935319
0.014269
-0.000484582
0.0149321
-0.000767868
0.0155353
-0.00211013
0.0159796
-0.00403111
0.0163837
-0.00462643
0.0166684
-0.00522355
0.0169756
-0.00413942
-0.000280063
0.0334469
0.00257871
-0.0373822
0.0330154
-0.00244194
0.0340992
-0.00828548
0.0361959
-0.00814911
0.0384279
-0.00924929
0.0407555
-0.00929799
0.0427387
-0.00945628
0.0444808
-0.00903613
0.0460922
-0.00796592
0.0477262
-0.00626185
0.0495164
-0.00451336
0.0514763
-0.00289521
0.0534707
-0.002479
0.0553669
-0.00266408
0.0569806
-0.00372375
0.0581486
-0.00519919
0.0590356
-0.00551342
0.0596047
-0.00579265
0.0601537
-0.00468844
-0.0012168
0.0821486
0.0158455
-0.0954153
0.0741316
0.00557505
0.0684907
-0.00264465
0.0658484
-0.00550676
0.0642903
-0.00769119
0.0636575
-0.00866525
0.0632776
-0.00907631
0.0630345
-0.00879305
0.0629516
-0.00788307
0.0631154
-0.00642561
0.0636322
-0.00503013
0.0644931
-0.00375617
0.0655379
-0.00352372
0.0666169
-0.00374315
0.0674674
-0.00457424
0.0679714
-0.00570321
0.0681769
-0.00571891
0.0681225
-0.00573827
0.0680473
-0.00461324
-0.00166298
0.105358
0.021994
-0.111507
0.099553
0.0113803
0.093797
0.00311136
0.0897165
-0.00142629
0.0864928
-0.00446742
0.084073
-0.00624549
0.0821328
-0.00713608
0.0805407
-0.00720098
0.0792906
-0.00663292
0.0784085
-0.00554357
0.0779485
-0.00457012
0.0778759
-0.00368353
0.0780351
-0.00368298
0.0782998
-0.00400781
0.0784097
-0.0046841
0.0783021
-0.00559561
0.0779654
-0.0053822
0.0774692
-0.00524211
0.076972
-0.00411604
-0.00168431
0.111878
0.0230069
-0.112891
0.109355
0.013903
0.105857
0.00661007
0.102646
0.00178385
0.0996991
-0.00152001
0.0971343
-0.00368078
0.0948988
-0.00490051
0.0929756
-0.00527778
0.0913981
-0.00505547
0.0901773
-0.00432271
0.0893291
-0.00372198
0.0887982
-0.00315265
0.0884344
-0.00331916
0.0881649
-0.00373834
0.0877672
-0.00428632
0.0872483
-0.00507677
0.0865968
-0.00473064
0.0858855
-0.00453084
0.0852213
-0.0034519
-0.0014725
0.111836
0.0219965
-0.110825
0.111249
0.0144901
0.109537
0.00832169
0.10752
0.00380068
0.10543
0.000570347
0.103424
-0.00167487
0.101565
-0.00304158
0.0999148
-0.00362765
0.0985394
-0.00368007
0.0974539
-0.0032373
0.0966519
-0.00291997
0.0960742
-0.00257491
0.0955668
-0.0028118
0.0951011
-0.0032726
0.0945044
-0.0036896
0.0938207
-0.00439311
0.0930864
-0.00399636
0.0923501
-0.00379446
0.0917214
-0.00282319
-0.00121269
0.110368
0.0204783
-0.10885
0.110547
0.0143111
0.109779
0.00908947
0.108577
0.00500322
0.107183
0.00196373
0.105733
-0.000224834
0.104338
-0.00164593
0.103075
-0.0023648
0.102021
-0.00262608
0.101197
-0.00241383
0.100582
-0.00230489
0.100129
-0.00212212
0.0996827
-0.0023651
0.0992318
-0.00282172
0.0986569
-0.00311472
0.0979918
-0.00372801
0.0973332
-0.00333772
0.0966893
-0.00315063
0.0961938
-0.00232765
-0.00101437
0.108932
0.0189542
-0.107408
0.109356
0.0138872
0.109025
0.00941986
0.10827
0.00575866
0.107297
0.0029367
0.106233
0.000839129
0.105183
-0.000595622
0.104225
-0.0014067
0.103427
-0.00182873
0.102818
-0.00180502
0.102366
-0.00185255
0.102042
-0.00179832
0.101703
-0.00202574
0.101336
-0.00245447
0.100871
-0.00265029
0.100309
-0.00316561
0.0997874
-0.00281622
0.0992799
-0.00264314
0.0989301
-0.00197783
-0.000907592
0.107741
0.0175484
-0.106335
0.108237
0.0133908
0.108114
0.00954324
0.107605
0.00626749
0.106882
0.00365946
0.106063
0.00165839
0.105241
0.000226829
0.104485
-0.000650809
0.103855
-0.00119845
0.103381
-0.00133185
0.103029
-0.00150029
0.102785
-0.00155384
0.102529
-0.00176989
0.102238
-0.00216407
0.101887
-0.00229849
0.101439
-0.00271821
0.101049
-0.00242642
0.100672
-0.00226544
0.100438
-0.00174375
-0.000875517
0.106751
0.0162921
-0.105494
0.107264
0.0128775
0.107254
0.00955321
0.1069
0.00662148
0.106344
0.00421548
0.105689
0.00231346
0.105021
0.000894523
0.1044
-3.00332e-05
0.103876
-0.000674616
0.103483
-0.000938223
0.103185
-0.00120203
0.102977
-0.00134613
0.10277
-0.00156326
0.102531
-0.0019251
0.102263
-0.00203031