/*--------------------------------*- C++ -*----------------------------------*\
| =========                 |                                                 |
| \\      /  F ield         | OpenFOAM: The Open Source CFD Toolbox           |
|  \\    /   O peration     | Version:  v1806                                 |
|   \\  /    A nd           | Web:      www.OpenFOAM.com                      |
|    \\/     M anipulation  |                                                 |
\*---------------------------------------------------------------------------*/
FoamFile
{
    version     2.0;
    format      ascii;
    class       volScalarField;
    location    "20";
    object      p;
}
// * * * * * * * * * * * * * * * * * * * * * * * * * * * * * * * * * * * * * //

dimensions      [0 2 -2 0 0 0 0];


internalField   nonuniform List<scalar> 
5220
(
0.00154823
0.00154895
0.00154895
0.00154823
0.00169308
0.00169313
0.00169313
0.00169308
0.00141713
0.00141771
0.00141771
0.00141713
0.00274096
0.00274197
0.00274197
0.00274096
0.00286434
0.00286547
0.00286547
0.00286433
0.00260778
0.0026089
0.0026089
0.00260778
0.00250481
0.00250544
0.00250544
0.00250481
0.00250002
0.00250063
0.00250063
0.00250002
0.00207812
0.00207863
0.00207863
0.00207811
0.00211077
0.00211139
0.00211139
0.00211077
0.00228944
0.00229013
0.00229013
0.00228943
0.00150523
0.00150571
0.00150571
0.00150523
0.0414854
0.0414803
0.0414803
0.0414854
0.0432201
0.0432213
0.0432213
0.0432201
0.00926116
0.00926025
0.00926025
0.00926116
0.0113983
0.0114075
0.0114075
0.0113983
0.00126418
0.00126453
0.00126453
0.00126418
0.0013116
0.00131173
0.00131173
0.0013116
0.00139888
0.00139933
0.00139933
0.00139888
0.0445502
0.0445475
0.0445475
0.0445502
0.0435996
0.0435997
0.0435997
0.0435996
0.0459018
0.0459071
0.0459071
0.0459018
0.00135137
0.00135036
0.00135036
0.00135137
0.00146943
0.00147061
0.00147061
0.00146943
0.00163433
0.00163433
0.00163433
0.00163433
0.00189091
0.00189152
0.00189152
0.00189091
0.00161006
0.00161058
0.00161058
0.00161006
0.00164257
0.00164309
0.00164309
0.00164257
0.00167263
0.00167272
0.00167272
0.00167263
0.00131684
0.00131721
0.00131721
0.00131684
0.00115682
0.0011571
0.0011571
0.00115682
0.00130951
0.0013099
0.0013099
0.00130951
0.00114966
0.00115001
0.00115001
0.00114966
0.00219503
0.00219571
0.00219571
0.00219503
0.00193454
0.00193532
0.00193532
0.00193454
0.00235899
0.0023598
0.0023598
0.00235899
0.00245867
0.00245974
0.00245974
0.00245867
0.0025328
0.00253369
0.00253369
0.0025328
0.00148818
0.0014884
0.0014884
0.00148818
0.00167786
0.00167843
0.00167843
0.00167785
0.00187309
0.00187354
0.00187354
0.00187309
0.00101005
0.00101031
0.00101031
0.00101005
0.00101618
0.00101641
0.00101641
0.00101618
0.00088744
0.00088764
0.00088764
0.00088744
0.000891914
0.000892075
0.000892075
0.000891914
0.00220636
0.00220745
0.00220745
0.00220636
0.00194706
0.00194772
0.00194772
0.00194705
0.0012618
0.00126217
0.00126217
0.0012618
0.00111846
0.00111867
0.00111867
0.00111846
0.0009893
0.00098947
0.00098947
0.0009893
0.000872312
0.000872459
0.000872458
0.000872312
0.000766599
0.000766735
0.000766735
0.000766599
0.000778548
0.000778709
0.000778709
0.000778547
0.000782571
0.000782693
0.000782693
0.000782571
0.00114496
0.00114529
0.00114529
0.00114496
0.0013018
0.00130221
0.00130221
0.0013018
0.00272309
0.00272447
0.00272447
0.00272309
0.00244003
0.00244129
0.00244129
0.00244003
0.00213114
0.00213162
0.00213162
0.00213114
0.00235243
0.0023538
0.0023538
0.00235243
0.00262461
0.00262665
0.00262665
0.00262461
0.00254942
0.00255121
0.00255121
0.00254942
0.00277562
0.00277687
0.00277687
0.00277562
0.00272046
0.00272167
0.00272167
0.00272046
0.00271048
0.00271183
0.00271183
0.00271048
0.00280913
0.00281082
0.00281082
0.00280913
0.00294464
0.00294702
0.00294702
0.00294463
0.00297113
0.00297406
0.00297406
0.00297112
0.00293069
0.00293393
0.00293393
0.00293069
0.00228754
0.00228821
0.00228821
0.00228754
0.00207714
0.00207787
0.00207787
0.00207714
0.00186309
0.00186372
0.00186372
0.00186309
0.00147316
0.00147366
0.00147366
0.00147316
0.00166159
0.0016621
0.0016621
0.00166159
0.00193108
0.00193212
0.00193212
0.00193108
0.00100541
0.00100563
0.00100563
0.00100541
0.000883601
0.000883747
0.000883747
0.000883601
0.000776545
0.000776671
0.000776671
0.000776545
0.00173169
0.00173204
0.00173204
0.00173169
0.00120041
0.00120049
0.00120049
0.00120041
0.00107875
0.00107884
0.00107884
0.00107875
0.000959853
0.000960005
0.000960005
0.000959853
0.000849142
0.000849296
0.000849296
0.000849141
0.000747268
0.0007474
0.0007474
0.000747268
0.00065391
0.000654012
0.000654012
0.000653909
0.000670498
0.000670613
0.000670613
0.000670498
0.000680863
0.000681
0.000681
0.000680863
0.000685314
0.00068541
0.00068541
0.000685313
0.000681134
0.000681251
0.000681251
0.000681134
0.0012687
0.00126907
0.00126907
0.0012687
0.00111609
0.00111638
0.00111638
0.00111609
0.00298939
0.00299087
0.00299087
0.00298939
0.00309285
0.00309435
0.00309435
0.00309285
0.00318828
0.00319048
0.00319048
0.00318828
0.00312093
0.00312131
0.00312131
0.00312093
0.00307512
0.00307566
0.00307566
0.00307513
0.00284238
0.00284349
0.00284349
0.00284237
0.00311129
0.00311281
0.00311281
0.00311128
0.0462949
0.0462944
0.0462944
0.0462949
0.044774
0.0447757
0.0447757
0.044774
0.0426287
0.0426193
0.0426193
0.0426287
0.00258505
0.00258592
0.00258592
0.00258505
0.00186541
0.00186604
0.00186604
0.00186541
0.00235204
0.00235279
0.00235279
0.00235204
0.00210171
0.00210236
0.00210236
0.00210171
0.000979723
0.000979933
0.000979933
0.000979723
0.000860323
0.000860445
0.000860445
0.000860323
0.000757154
0.000757245
0.000757245
0.000757154
0.00066715
0.00066723
0.000667229
0.000667149
0.00144414
0.00144457
0.00144457
0.00144414
0.00122934
0.00122972
0.00122972
0.00122934
0.00107343
0.00107371
0.00107371
0.00107343
0.000569097
0.000569179
0.000569179
0.000569097
0.000583338
0.000583431
0.000583431
0.000583338
0.000593418
0.000593536
0.000593536
0.000593418
0.000598307
0.000598376
0.000598376
0.000598306
0.000595961
0.00059607
0.00059607
0.000595961
0.000583566
0.000583568
0.000583568
0.000583566
0.00115151
0.00115181
0.00115181
0.00115151
0.00103573
0.00103597
0.00103597
0.00103573
0.000925368
0.000925578
0.000925578
0.000925368
0.000819225
0.000819394
0.000819394
0.000819225
0.000721397
0.00072154
0.00072154
0.000721397
0.000631512
0.00063163
0.00063163
0.000631511
0.000550398
0.000550497
0.000550497
0.000550398
0.00154723
0.00154784
0.00154784
0.00154723
0.00173185
0.00173226
0.00173226
0.00173185
0.0032867
0.00328882
0.00328882
0.0032867
0.00341122
0.00341417
0.00341417
0.00341122
0.00349078
0.00349591
0.00349591
0.00349077
0.00338581
0.00339045
0.00339045
0.00338582
0.00342807
0.00343462
0.00343462
0.00342807
0.00184085
0.00184149
0.00184149
0.00184085
0.00140726
0.00140772
0.00140772
0.00140726
0.000940614
0.000940827
0.000940827
0.000940615
0.000823213
0.000823364
0.000823364
0.000823213
0.000723299
0.000723409
0.000723409
0.000723298
0.00064001
0.000640092
0.000640092
0.00064001
0.000571515
0.00057168
0.00057168
0.000571515
0.00209956
0.00210026
0.00210026
0.00209956
0.00238307
0.00238369
0.00238369
0.00238307
0.00269566
0.00269637
0.00269637
0.00269566
0.00300213
0.00300318
0.00300318
0.00300213
0.00331563
0.00331685
0.00331685
0.00331563
0.00356847
0.00357
0.00357
0.00356847
0.00371619
0.00371718
0.00371718
0.00371619
0.00370667
0.00370819
0.00370819
0.00370667
0.00322388
0.00322165
0.00322165
0.00322389
0.00283033
0.0028294
0.0028294
0.00283033
0.0015489
0.00154957
0.00154957
0.0015489
0.00136317
0.0013631
0.0013631
0.00136317
0.0446441
0.044637
0.044637
0.0446441
0.0437532
0.0437493
0.0437493
0.0437532
0.0424453
0.0424435
0.0424435
0.0424453
0.0408468
0.0408466
0.0408466
0.0408468
0.0390349
0.0390402
0.0390402
0.0390349
0.0394314
0.0394337
0.0394337
0.0394314
0.00123391
0.00123444
0.00123444
0.00123391
0.00110029
0.00110066
0.00110066
0.00110029
0.000985807
0.000986055
0.000986055
0.000985807
0.000880244
0.000880458
0.000880458
0.000880244
0.0007813
0.000781464
0.000781464
0.000781299
0.000689196
0.000689343
0.000689343
0.000689196
0.000603369
0.0006035
0.0006035
0.000603369
0.000525844
0.000525959
0.000525959
0.000525844
0.000456574
0.000456673
0.000456673
0.000456574
0.000476898
0.000476993
0.000476993
0.000476898
0.000492312
0.000492378
0.000492378
0.000492312
0.000505673
0.000505764
0.000505764
0.000505673
0.000515463
0.000515562
0.000515562
0.000515462
0.000520789
0.000520849
0.000520849
0.000520789
0.000520141
0.000520261
0.000520261
0.000520141
0.000509221
0.000509291
0.000509291
0.000509221
0.0477653
0.0477682
0.0477683
0.0477653
0.0455425
0.0455373
0.0455373
0.0455425
0.00049819
0.000498246
0.000498246
0.00049819
0.0487989
0.0487985
0.0487985
0.0487989
0.0427307
0.0427289
0.0427289
0.0427307
0.0454707
0.0454625
0.0454625
0.0454707
0.0385248
0.0385215
0.0385215
0.0385248
0.0403859
0.0403876
0.0403876
0.0403859
0.041521
0.0415175
0.0415175
0.041521
0.0413153
0.0413159
0.0413159
0.0413153
0.0401476
0.0401512
0.0401512
0.0401476
0.0417853
0.0417872
0.0417872
0.0417854
0.0368173
0.0368221
0.0368221
0.0368173
0.0370934
0.0370934
0.0370934
0.0370934
0.0364678
0.0364656
0.0364656
0.0364678
0.0420358
0.0420346
0.0420346
0.0420358
0.04182
0.0418197
0.0418197
0.04182
0.0409085
0.0409077
0.0409077
0.0409085
0.0395633
0.0395671
0.0395671
0.0395633
0.0378754
0.0378822
0.0378822
0.0378754
0.035889
0.035896
0.035896
0.035889
0.0422977
0.0422995
0.0422995
0.0422977
0.0455522
0.0455458
0.0455458
0.0455522
0.0446054
0.0446128
0.0446128
0.0446054
0.0370103
0.0369973
0.0369973
0.0370103
0.0370811
0.037068
0.037068
0.0370811
0.037823
0.0378154
0.0378154
0.037823
0.0385537
0.0385468
0.0385468
0.0385538
0.038642
0.0386373
0.0386373
0.038642
0.0379892
0.0379889
0.0379889
0.0379892
0.0367336
0.0367303
0.0367303
0.0367336
0.0351255
0.0351237
0.0351237
0.0351255
0.0336125
0.0336185
0.0336185
0.0336125
0.0343858
0.0343911
0.0343911
0.0343858
0.0346081
0.0346112
0.0346112
0.0346081
0.0341406
0.0341399
0.0341399
0.0341406
0.0330638
0.0330629
0.0330629
0.0330638
0.0381522
0.0381435
0.0381435
0.0381522
0.0386612
0.0386572
0.0386572
0.0386612
0.0382999
0.0382968
0.0382968
0.0383
0.0374647
0.0374656
0.0374656
0.0374647
0.0361133
0.0361187
0.0361187
0.0361133
0.0344025
0.0344111
0.0344111
0.0344025
0.0323518
0.03236
0.03236
0.0323518
0.0373145
0.0373059
0.0373059
0.0373145
0.0402098
0.0402032
0.0402032
0.0402098
0.00136083
0.00136099
0.00136099
0.00136083
0.000509485
0.00050928
0.00050928
0.000509485
0.0005883
0.000588345
0.000588345
0.0005883
0.000673333
0.000673401
0.000673401
0.000673333
0.000772418
0.000772532
0.000772532
0.000772418
0.000887773
0.00088796
0.00088796
0.000887773
0.00102222
0.00102247
0.00102247
0.00102222
0.00117688
0.0011772
0.0011772
0.00117688
0.00135461
0.00135501
0.00135501
0.00135461
0.00156297
0.00156348
0.00156348
0.00156297
0.00179745
0.00179806
0.00179806
0.00179745
0.00206804
0.00206873
0.00206873
0.00206804
0.00238816
0.00238906
0.00238906
0.00238816
0.00274467
0.00274565
0.00274565
0.00274467
0.00313588
0.00313703
0.00313703
0.00313588
0.00352616
0.00352759
0.00352759
0.00352616
0.00389729
0.00389964
0.00389964
0.00389729
0.00414383
0.00414692
0.00414692
0.00414383
0.00424524
0.00425243
0.00425243
0.00424524
0.00386972
0.00387476
0.00387476
0.00386972
0.00380877
0.00381902
0.00381902
0.00380877
0.00113395
0.00113419
0.00113419
0.00113395
0.00102433
0.0010245
0.0010245
0.00102433
0.000921054
0.000921264
0.000921264
0.000921054
0.000823464
0.000823674
0.000823673
0.000823464
0.00073165
0.000731796
0.000731795
0.00073165
0.000647065
0.000647206
0.000647206
0.000647065
0.000568484
0.000568616
0.000568616
0.000568484
0.000496229
0.000496349
0.000496349
0.000496229
0.000431298
0.000431411
0.000431411
0.000431298
0.00037244
0.000372551
0.000372551
0.00037244
0.000394276
0.000394369
0.000394369
0.000394276
0.00041118
0.000411271
0.000411271
0.00041118
0.000424868
0.000424922
0.000424922
0.000424868
0.00043686
0.000436938
0.000436938
0.00043686
0.000446254
0.000446332
0.000446332
0.000446254
0.000451441
0.000451469
0.000451469
0.00045144
0.000451259
0.000451312
0.000451312
0.000451259
0.00044022
0.000440133
0.000440133
0.00044022
0.000432434
0.000432483
0.000432483
0.000432434
0.0314559
0.0314542
0.0314542
0.0314559
0.0332039
0.0332025
0.0332025
0.0332039
0.0344837
0.0344817
0.0344817
0.0344837
0.0353227
0.0353215
0.0353215
0.0353227
0.0356615
0.0356571
0.0356571
0.0356615
0.0351899
0.035184
0.035184
0.0351899
0.0345892
0.0345826
0.0345826
0.0345892
0.0337888
0.0337835
0.0337835
0.0337888
0.0336667
0.0336619
0.0336619
0.0336668
0.0364711
0.0364735
0.0364735
0.0364711
0.0375544
0.0375413
0.0375413
0.0375544
0.0301261
0.0301344
0.0301344
0.0301261
0.0311982
0.0312046
0.0312046
0.0311982
0.0318304
0.0318365
0.0318365
0.0318304
0.0319973
0.0320022
0.0320022
0.0319973
0.0316486
0.0316515
0.0316515
0.0316486
0.0307651
0.0307675
0.0307675
0.0307651
0.0294233
0.0294245
0.0294245
0.0294233
0.0344677
0.0344477
0.0344477
0.0344677
0.0300778
0.0300741
0.0300741
0.0300778
0.0287142
0.0287102
0.0287102
0.0287142
0.0326949
0.0326895
0.0326895
0.0326949
0.0339327
0.0339257
0.0339257
0.0339327
0.0350018
0.0349972
0.0349972
0.0350018
0.0351975
0.0351936
0.0351936
0.0351976
0.0348371
0.0348359
0.0348359
0.0348371
0.0339074
0.0339098
0.0339098
0.0339074
0.0324916
0.0324982
0.0324982
0.0324916
0.0306889
0.0306952
0.0306952
0.0306889
0.0286687
0.028675
0.028675
0.0286687
0.0210297
0.0210151
0.0210151
0.0210297
0.0244584
0.0244393
0.0244393
0.0244584
0.027542
0.027531
0.027531
0.027542
0.029597
0.0295875
0.0295875
0.029597
0.0310805
0.0310746
0.0310746
0.0310805
0.0317772
0.0317726
0.0317726
0.0317772
0.0318838
0.0318818
0.0318818
0.0318838
0.0313552
0.0313561
0.0313561
0.0313552
0.0303139
0.0303189
0.0303189
0.0303139
0.0287924
0.0287999
0.0287999
0.0287924
0.0269701
0.0269793
0.0269793
0.0269701
0.0250456
0.0250547
0.0250547
0.0250456
0.0266153
0.0266217
0.0266217
0.0266153
0.0278793
0.027887
0.027887
0.0278793
0.0288173
0.0288246
0.0288246
0.0288173
0.0293408
0.0293485
0.0293485
0.0293408
0.0294718
0.0294805
0.0294805
0.0294718
0.0291769
0.0291849
0.0291849
0.0291769
0.0284073
0.0284157
0.0284157
0.0284073
0.0272596
0.0272669
0.0272669
0.0272596
0.0257394
0.0257498
0.0257498
0.0257394
0.0277545
0.027759
0.027759
0.0277545
0.0295587
0.0295598
0.0295598
0.0295587
0.0310458
0.0310472
0.0310472
0.0310458
0.0320463
0.0320457
0.0320457
0.0320463
0.0324674
0.0324668
0.0324668
0.0324674
0.0326102
0.0326065
0.0326065
0.0326102
0.0320944
0.0320889
0.0320889
0.0320944
0.031217
0.0312102
0.0312102
0.031217
0.0303566
0.0303502
0.0303502
0.0303566
0.0298597
0.0298445
0.0298445
0.0298597
0.0306149
0.0305991
0.0305991
0.0306149
0.030927
0.0309174
0.0309174
0.030927
0.0238809
0.0238873
0.0238873
0.0238809
0.0256937
0.0256935
0.0256935
0.0256937
0.0272934
0.0272888
0.0272888
0.0272934
0.0285689
0.0285655
0.0285655
0.0285689
0.0293616
0.0293589
0.0293589
0.0293616
0.0297036
0.0297015
0.0297015
0.0297036
0.029513
0.0295076
0.0295076
0.029513
0.0287967
0.0287895
0.0287895
0.0287967
0.0277005
0.0276914
0.0276914
0.0277005
0.0266016
0.0265903
0.0265903
0.0266017
0.0254253
0.025409
0.025409
0.0254253
0.0246201
0.0246068
0.0246068
0.0246201
0.0238716
0.0238541
0.0238541
0.0238716
0.0232316
0.0232378
0.0232378
0.0232316
0.0246838
0.0246888
0.0246888
0.0246838
0.0258324
0.0258373
0.0258373
0.0258324
0.0266496
0.0266545
0.0266545
0.0266496
0.0271049
0.0271102
0.0271102
0.0271049
0.0271913
0.0271979
0.0271979
0.0271913
0.0269158
0.0269232
0.0269232
0.0269158
0.0262136
0.0262222
0.0262222
0.0262136
0.0251697
0.0251779
0.0251779
0.0251697
0.0237873
0.0237967
0.0237967
0.0237873
0.0221035
0.0221099
0.0221099
0.0221035
0.0155447
0.0155444
0.0155444
0.0155447
0.0191714
0.0191527
0.0191527
0.0191714
0.0228488
0.0228381
0.0228381
0.0228488
0.0253451
0.0253339
0.0253339
0.0253451
0.0272223
0.0272145
0.0272145
0.0272223
0.0282734
0.028267
0.028267
0.0282734
0.0287037
0.0286992
0.0286992
0.0287037
0.0285228
0.0285192
0.0285192
0.0285228
0.0277567
0.0277549
0.0277549
0.0277567
0.0265074
0.0265076
0.0265076
0.0265074
0.0249189
0.0249218
0.0249218
0.0249189
0.0231875
0.0231923
0.0231923
0.0231875
0.0215217
0.0215256
0.0215256
0.0215217
0.000403047
0.00040308
0.00040308
0.000403046
0.000469702
0.00046972
0.00046972
0.000469701
0.000537305
0.000537219
0.000537219
0.000537304
0.000621439
0.000621483
0.000621483
0.000621439
0.000718716
0.000718801
0.000718801
0.000718716
0.000832028
0.00083218
0.00083218
0.000832028
0.000963646
0.000963867
0.000963867
0.000963646
0.00111726
0.00111756
0.00111756
0.00111726
0.00129161
0.00129197
0.00129197
0.00129161
0.00149534
0.00149582
0.00149582
0.00149534
0.00173528
0.00173588
0.00173588
0.00173528
0.00202007
0.00202065
0.00202065
0.00202007
0.00235998
0.0023607
0.0023607
0.00235998
0.00275348
0.00275439
0.00275439
0.00275348
0.00320164
0.00320272
0.00320272
0.00320163
0.00368847
0.00368944
0.00368944
0.00368847
0.00417735
0.00417845
0.00417845
0.00417734
0.00454792
0.00454831
0.00454831
0.00454792
0.00455686
0.0045591
0.0045591
0.00455686
0.00360073
0.0035977
0.0035977
0.00360073
0.00204334
0.00204335
0.00204335
0.00204334
0.000318446
0.000318549
0.000318549
0.000318445
0.000338321
0.000338404
0.000338404
0.00033832
0.000353732
0.000353806
0.000353806
0.000353732
0.000365887
0.000365945
0.000365945
0.000365887
0.000376037
0.000376091
0.000376091
0.000376037
0.000384155
0.000384213
0.000384213
0.000384155
0.000388309
0.000388335
0.000388335
0.000388308
0.000387733
0.000387778
0.000387777
0.000387732
0.000378274
0.000378287
0.000378287
0.000378274
0.000364789
0.000364841
0.000364841
0.000364789
0.000340356
0.000340399
0.000340399
0.000340356
0.00122136
0.00122163
0.00122163
0.00122136
0.00112195
0.00112217
0.00112217
0.00112195
0.00104222
0.00104247
0.00104247
0.00104222
0.00094549
0.000945665
0.000945665
0.00094549
0.000848565
0.000848761
0.000848761
0.000848565
0.000757734
0.0007579
0.0007579
0.000757734
0.000673464
0.000673559
0.000673559
0.000673464
0.00059611
0.000596257
0.000596257
0.000596109
0.000524197
0.000524368
0.000524368
0.000524197
0.000459852
0.000459993
0.000459993
0.000459853
0.000399765
0.000399908
0.000399908
0.000399765
0.00034465
0.000344786
0.000344786
0.00034465
0.000294071
0.000294195
0.000294195
0.000294071
0.00121965
0.00121976
0.00121976
0.00121965
0.00119727
0.0011981
0.0011981
0.00119727
0.00104369
0.00104359
0.00104359
0.00104369
0.000956809
0.000957184
0.000957184
0.000956809
0.000861789
0.000861939
0.000861939
0.000861789
0.000768679
0.000768807
0.000768807
0.000768678
0.00068397
0.000684047
0.000684047
0.00068397
0.000606124
0.00060621
0.00060621
0.000606123
0.000536024
0.000536169
0.000536169
0.000536024
0.00047191
0.000472048
0.000472048
0.00047191
0.000412977
0.000413108
0.000413108
0.000412978
0.000359248
0.000359393
0.000359393
0.000359248
0.000309697
0.000309834
0.000309834
0.000309697
0.000264087
0.000264208
0.000264208
0.000264087
0.000222201
0.000222303
0.000222303
0.000222201
0.000247514
0.000247625
0.000247625
0.000247514
0.000269274
0.000269367
0.000269367
0.000269273
0.000287157
0.000287234
0.000287234
0.000287157
0.000301547
0.000301607
0.000301607
0.000301547
0.000313116
0.000313163
0.000313163
0.000313116
0.000320918
0.000320956
0.000320956
0.000320918
0.000327026
0.000327068
0.000327068
0.000327026
0.000328961
0.000328989
0.000328989
0.000328961
0.00032692
0.000326965
0.000326964
0.00032692
0.000318127
0.000318159
0.000318159
0.000318127
0.000304563
0.000304611
0.000304611
0.000304562
0.000284032
0.000284078
0.000284078
0.000284032
0.00025777
0.000257815
0.000257816
0.00025777
0.000308379
0.000308417
0.000308417
0.000308379
0.000362408
0.000362432
0.000362432
0.000362408
0.00042159
0.000421599
0.000421599
0.00042159
0.000490323
0.000490229
0.000490229
0.000490322
0.000569167
0.000569168
0.000569168
0.000569167
0.000661814
0.00066188
0.00066188
0.000661814
0.000770063
0.000770184
0.000770184
0.000770063
0.000896039
0.000896226
0.000896226
0.000896039
0.00104187
0.00104213
0.00104213
0.00104187
0.00121217
0.00121248
0.00121248
0.00121217
0.00142012
0.00142059
0.00142059
0.00142012
0.00166479
0.00166539
0.00166539
0.00166479
0.00195454
0.00195517
0.00195517
0.00195454
0.0023015
0.0023022
0.0023022
0.00230149
0.00272108
0.00272204
0.00272204
0.00272108
0.00322487
0.00322618
0.00322618
0.00322487
0.00380008
0.00380154
0.00380154
0.00380008
0.00447389
0.00447617
0.00447617
0.00447388
0.00517187
0.00517564
0.00517564
0.00517187
0.0056956
0.0057015
0.0057015
0.0056956
0.0058022
0.00580263
0.00580263
0.0058022
0.00536879
0.00537852
0.00537852
0.00536879
0.00197598
0.00198603
0.00198603
0.00197598
0.00383254
0.0038266
0.0038266
0.00383255
0.0117286
0.0117393
0.0117393
0.0117286
0.0153724
0.0153539
0.0153539
0.0153724
0.0191504
0.0191396
0.0191396
0.0191504
0.0216619
0.0216499
0.0216499
0.0216619
0.0236521
0.0236446
0.0236446
0.0236521
0.0249116
0.0249058
0.0249058
0.0249116
0.0255855
0.0255824
0.0255824
0.0255855
0.0256618
0.0256619
0.0256619
0.0256618
0.0252035
0.025207
0.025207
0.0252035
0.0242149
0.0242208
0.0242208
0.0242149
0.0228044
0.0228145
0.0228145
0.0228044
0.0211627
0.0211748
0.0211748
0.0211627
0.0195487
0.0195581
0.0195581
0.0195487
0.0181365
0.0181418
0.0181418
0.0181365
0.0200224
0.0200258
0.0200258
0.0200224
0.0216287
0.0216322
0.0216322
0.0216287
0.0229865
0.0229899
0.0229899
0.0229865
0.0240516
0.0240546
0.0240546
0.0240516
0.0247987
0.024802
0.024802
0.0247987
0.0252062
0.02521
0.02521
0.0252062
0.0252682
0.0252731
0.0252731
0.0252682
0.0249775
0.0249833
0.0249833
0.0249775
0.0243319
0.0243385
0.0243385
0.0243319
0.023354
0.0233613
0.0233613
0.023354
0.0220693
0.0220761
0.0220761
0.0220693
0.020517
0.020522
0.020522
0.020517
0.018644
0.0186496
0.0186496
0.018644
0.0201318
0.0201411
0.0201411
0.0201318
0.0218344
0.0218478
0.0218478
0.0218344
0.023586
0.0235941
0.0235941
0.023586
0.0250546
0.0250585
0.0250585
0.0250546
0.0261211
0.0261251
0.0261251
0.0261211
0.0267343
0.0267368
0.0267368
0.0267343
0.0268652
0.0268638
0.0268638
0.0268652
0.0264347
0.0264297
0.0264297
0.0264347
0.0254971
0.0254903
0.0254903
0.0254971
0.0241861
0.0241778
0.0241778
0.0241861
0.0227581
0.0227491
0.0227491
0.0227581
0.0213747
0.0213665
0.0213665
0.0213747
0.0198558
0.0198509
0.0198509
0.0198558
0.0185711
0.0185676
0.0185676
0.0185711
0.0139698
0.0139691
0.0139691
0.0139698
0.0160232
0.0160228
0.0160228
0.0160232
0.0177345
0.0177291
0.0177291
0.0177345
0.0193172
0.0193098
0.0193098
0.0193172
0.0208835
0.0208765
0.0208765
0.0208835
0.0222406
0.0222335
0.0222335
0.0222406
0.0232509
0.0232448
0.0232448
0.0232509
0.0237722
0.023768
0.023768
0.0237722
0.0237205
0.0237173
0.0237173
0.0237205
0.0231663
0.0231618
0.0231618
0.0231663
0.0222132
0.0222071
0.0222071
0.0222132
0.0209121
0.0209102
0.0209102
0.0209121
0.0193973
0.0194007
0.0194007
0.0193973
0.0178971
0.017899
0.017899
0.0178971
0.016532
0.0165353
0.0165353
0.016532
0.00123713
0.00123706
0.00123706
0.00123713
0.00122168
0.00122151
0.00122151
0.00122168
0.00110758
0.0011076
0.0011076
0.00110758
0.000981823
0.000981716
0.000981716
0.000981823
0.000872202
0.000872376
0.000872376
0.000872202
0.000773622
0.000773746
0.000773746
0.000773622
0.000684416
0.000684484
0.000684484
0.000684416
0.000603863
0.000603948
0.000603948
0.000603863
0.000532976
0.000533089
0.000533089
0.000532976
0.000469583
0.000469719
0.000469719
0.000469583
0.000412873
0.000412996
0.000412996
0.000412874
0.000361283
0.000361395
0.000361395
0.000361283
0.000314225
0.000314339
0.000314339
0.000314225
0.000270851
0.000270956
0.000270956
0.000270851
0.000230759
0.000230852
0.000230852
0.000230759
0.000193829
0.000193904
0.000193904
0.000193829
0.000159797
0.000159854
0.000159854
0.000159797
0.000183249
0.00018332
0.00018332
0.000183249
0.000204387
0.000204476
0.000204476
0.000204386
0.000223043
0.000223131
0.000223131
0.000223043
0.000238784
0.000238843
0.000238843
0.000238784
0.00025206
0.000252105
0.000252105
0.00025206
0.000262142
0.000262191
0.000262191
0.000262142
0.000268367
0.000268398
0.000268398
0.000268367
0.000272542
0.000272579
0.000272579
0.000272542
0.000272746
0.000272777
0.000272777
0.000272746
0.000269591
0.000269634
0.000269634
0.000269591
0.00026154
0.000261578
0.000261578
0.00026154
0.000249341
0.00024939
0.00024939
0.000249341
0.000232313
0.00023236
0.00023236
0.000232313
0.000211171
0.000211214
0.000211214
0.000211171
0.000186254
0.000186299
0.000186299
0.000186254
0.000227182
0.000227232
0.000227232
0.000227182
0.000271697
0.000271741
0.000271741
0.000271697
0.000319803
0.000319834
0.000319834
0.000319803
0.000375078
0.000375114
0.000375114
0.000375077
0.00043831
0.000438289
0.000438289
0.00043831
0.000511471
0.000511438
0.000511438
0.000511471
0.000596166
0.000596197
0.000596197
0.000596166
0.000695886
0.000695968
0.000695968
0.000695886
0.00081342
0.000813561
0.000813561
0.00081342
0.000952071
0.00095227
0.000952271
0.000952072
0.00111916
0.0011194
0.0011194
0.00111916
0.00131927
0.0013196
0.0013196
0.00131927
0.00155955
0.00156001
0.00156001
0.00155955
0.00185239
0.00185292
0.00185292
0.00185239
0.00220159
0.00220213
0.00220213
0.00220159
0.0026273
0.00262806
0.00262806
0.0026273
0.00314475
0.00314544
0.00314544
0.00314475
0.00375928
0.00375964
0.00375964
0.00375929
0.00452102
0.00452207
0.00452207
0.00452102
0.00533908
0.00533982
0.00533982
0.00533907
0.00621908
0.00622238
0.00622237
0.00621908
0.006878
0.00687961
0.00687961
0.006878
0.00726605
0.00727106
0.00727106
0.00726605
0.00724131
0.00723302
0.00723302
0.00724131
0.0097329
0.00974124
0.00974124
0.0097329
0.0120409
0.0120546
0.0120546
0.0120409
0.0139923
0.0139926
0.0139926
0.0139923
0.0166446
0.0166417
0.0166417
0.0166446
0.0186891
0.0186807
0.0186807
0.0186891
0.0204594
0.0204535
0.0204535
0.0204594
0.0216545
0.0216487
0.0216487
0.0216545
0.0223501
0.0223448
0.0223448
0.0223501
0.0224969
0.0224909
0.0224909
0.0224969
0.0221179
0.0221107
0.0221107
0.0221179
0.0212796
0.021272
0.021272
0.0212796
0.0201083
0.0201044
0.0201044
0.0201083
0.0187404
0.0187415
0.0187415
0.0187404
0.0173396
0.017342
0.017342
0.0173396
0.0160494
0.0160517
0.0160517
0.0160494
0.0149307
0.0149356
0.0149356
0.0149307
0.0169266
0.0169318
0.0169318
0.0169266
0.018708
0.0187136
0.0187136
0.018708
0.0202414
0.0202466
0.0202466
0.0202414
0.0215207
0.0215261
0.0215261
0.0215207
0.0225149
0.0225201
0.0225201
0.0225149
0.023205
0.0232107
0.0232107
0.023205
0.0235786
0.0235851
0.0235851
0.0235786
0.023624
0.0236314
0.0236314
0.023624
0.0233386
0.0233469
0.0233469
0.0233386
0.022732
0.0227409
0.0227409
0.022732
0.0218097
0.0218194
0.0218194
0.0218097
0.0205959
0.020605
0.020605
0.0205959
0.019115
0.0191241
0.0191241
0.019115
0.017348
0.0173569
0.0173569
0.017348
0.0153192
0.0153268
0.0153268
0.0153192
0.0130448
0.013051
0.013051
0.0130448
0.0141446
0.0141506
0.0141506
0.0141446
0.0154441
0.0154515
0.0154515
0.0154441
0.01689
0.0169005
0.0169005
0.01689
0.0183394
0.0183512
0.0183512
0.0183394
0.0195168
0.0195258
0.0195258
0.0195168
0.0203085
0.0203172
0.0203172
0.0203085
0.0206147
0.0206207
0.0206207
0.0206147
0.0205168
0.0205184
0.0205184
0.0205168
0.0199549
0.0199527
0.0199527
0.0199549
0.0189953
0.0189911
0.0189911
0.0189953
0.0177488
0.0177444
0.0177444
0.0177488
0.0162766
0.0162701
0.0162701
0.0162766
0.0147761
0.0147739
0.0147739
0.0147761
0.01318
0.0131821
0.0131821
0.01318
0.00741042
0.00740928
0.00740928
0.00741042
0.00593134
0.00593045
0.00593045
0.00593134
0.00481041
0.0048126
0.0048126
0.00481041
0.00390972
0.00391189
0.00391189
0.00390972
0.00308479
0.00308564
0.00308564
0.00308479
0.00234414
0.00234304
0.00234304
0.00234414
0.00202663
0.00202852
0.00202852
0.00202663
0.00156743
0.00156741
0.00156741
0.00156743
0.00126768
0.00126786
0.00126786
0.00126768
0.00107138
0.00107168
0.00107168
0.00107138
0.000909057
0.000909235
0.000909235
0.000909056
0.000785358
0.000785622
0.000785622
0.000785358
0.000679874
0.000680091
0.000680091
0.000679874
0.000592311
0.00059249
0.00059249
0.000592311
0.00051806
0.000518221
0.000518221
0.00051806
0.000454274
0.00045442
0.00045442
0.000454274
0.000398438
0.000398578
0.000398578
0.000398438
0.00034906
0.000349191
0.000349191
0.00034906
0.000304805
0.000304926
0.000304926
0.000304805
0.000264799
0.000264909
0.000264909
0.000264799
0.000228189
0.000228285
0.000228285
0.000228189
0.000194398
0.000194477
0.000194477
0.000194398
0.000163089
0.000163153
0.000163152
0.000163089
0.000134178
0.000134228
0.000134228
0.000134178
0.000107351
0.000107388
0.000107388
0.000107351
0.000127759
0.000127801
0.000127801
0.000127759
0.000146722
0.000146773
0.000146773
0.000146722
0.000163909
0.000163967
0.000163967
0.000163909
0.000179139
0.000179201
0.000179201
0.000179139
0.000192141
0.000192193
0.000192193
0.000192141
0.000202806
0.000202851
0.000202851
0.000202806
0.000210881
0.000210921
0.000210921
0.000210881
0.000216191
0.000216224
0.000216224
0.000216191
0.00021884
0.000218872
0.000218872
0.000218839
0.000218543
0.000218574
0.000218574
0.000218543
0.000215179
0.000215216
0.000215216
0.000215179
0.000208342
0.000208379
0.000208379
0.000208342
0.000198187
0.000198228
0.000198228
0.000198187
0.000184701
0.000184742
0.000184742
0.000184701
0.00016812
0.00016816
0.00016816
0.00016812
0.000148453
0.000148496
0.000148496
0.000148453
0.000125565
0.000125606
0.000125606
0.000125565
0.000157681
0.000157729
0.000157729
0.000157681
0.000192515
0.000192566
0.000192566
0.000192515
0.000230528
0.000230586
0.000230586
0.000230528
0.000273446
0.000273497
0.000273497
0.000273446
0.000322485
0.000322556
0.000322556
0.000322484
0.000379826
0.000379877
0.000379876
0.000379825
0.000444524
0.000444511
0.000444511
0.000444523
0.000520882
0.000520905
0.000520905
0.000520882
0.000610774
0.000610834
0.000610834
0.000610774
0.000717597
0.000717707
0.000717708
0.000717598
0.00084463
0.000844798
0.000844798
0.00084463
0.000997628
0.000997817
0.000997817
0.000997628
0.00118574
0.00118598
0.00118597
0.00118574
0.00141573
0.00141613
0.00141613
0.00141573
0.00169328
0.00169372
0.00169372
0.00169328
0.00203266
0.00203303
0.00203303
0.00203266
0.00245378
0.00245451
0.00245451
0.00245378