/*--------------------------------*- C++ -*----------------------------------*\
| =========                 |                                                 |
| \\      /  F ield         | OpenFOAM: The Open Source CFD Toolbox           |
|  \\    /   O peration     | Version:  v1806                                 |
|   \\  /    A nd           | Web:      www.OpenFOAM.com                      |
|    \\/     M anipulation  |                                                 |
\*---------------------------------------------------------------------------*/
FoamFile
{
    version     2.0;
    format      ascii;
    class       surfaceScalarField;
    location    "250";
    object      phi;
}
// * * * * * * * * * * * * * * * * * * * * * * * * * * * * * * * * * * * * * //

dimensions      [0 3 -1 0 0 0 0];
oriented        oriented;


internalField   nonuniform List<scalar> 
4680
(
0.0749983
-0.000383265
0.0749952
-0.00161774
0.0749849
-0.00232755
0.0749737
-0.00378125
0.0749496
-0.00450155
0.0749272
-0.00633594
0.0748823
-0.0071265
0.0748453
-0.00951869
0.0747699
-0.0104445
0.074716
-0.0135744
0.0745983
-0.0147115
0.0745278
-0.0186965
0.0743592
-0.0201342
0.0742801
-0.0248776
0.0740726
-0.0267068
0.0740062
-0.0316397
0.0738284
-0.0338691
0.0738144
-0.0377706
0.0738013
-0.0399799
-0.0415751
0.0739009
0.0749965
-0.000379791
0.0749893
-0.0016105
0.0749709
-0.00230921
0.0749517
-0.00376198
0.0749134
-0.00446324
0.0748801
-0.00630268
0.0748123
-0.0070587
0.0747637
-0.00947004
0.0746524
-0.0103333
0.0745906
-0.0135127
0.074418
-0.0145389
0.0743548
-0.0186333
0.0741068
-0.0198862
0.0740716
-0.0248425
0.073766
-0.0264011
0.0738071
-0.0316809
0.073555
-0.033617
0.0737075
-0.0379231
0.0737425
-0.040015
-0.041816
0.0739834
0.0749948
-0.000374561
0.0749824
-0.00159814
0.0749542
-0.00228103
0.0749239
-0.00373166
0.0748672
-0.00440657
0.0748181
-0.00625357
0.074721
-0.00696159
0.0746536
-0.00940265
0.0744982
-0.0101778
0.0744197
-0.0134342
0.0741837
-0.0143029
0.0741171
-0.0185668
0.0737848
-0.0195538
0.0737823
-0.02484
0.0733806
-0.0259994
0.0735234
-0.0318237
0.0732018
-0.0332954
0.0735355
-0.0382568
0.0736167
-0.0400961
-0.0422324
0.0740331
0.0749933
-0.00036787
0.0749753
-0.00158012
0.0749376
-0.00224335
0.0748946
-0.00368867
0.0748197
-0.00433166
0.0747514
-0.00618528
0.0746253
-0.00683545
0.0745334
-0.00931082
0.0743352
-0.00997961
0.0742311
-0.01333
0.0739354
-0.0140072
0.0738529
-0.0184843
0.0734429
-0.0191439
0.073458
-0.0248551
0.0729668
-0.0255082
0.0732009
-0.0320578
0.072805
-0.0328994
0.073333
-0.0387848
0.0734378
-0.040201
-0.0428603
0.0740657
0.0749922
-0.000360047
0.074968
-0.00155593
0.0749216
-0.00219697
0.0748649
-0.00363192
0.074773
-0.00423978
0.0746832
-0.00609551
0.0745302
-0.00668239
0.0744097
-0.00919031
0.0741721
-0.00974208
0.0740353
-0.0131932
0.0736851
-0.0136569
0.0735761
-0.0183753
0.0730946
-0.0186624
0.0731139
-0.0248744
0.0725357
-0.0249299
0.0728521
-0.0323742
0.0723694
-0.0324168
0.0731079
-0.0395232
0.0732048
-0.0402979
-0.0437473
0.0740917
0.0749914
-0.000351432
0.0749605
-0.00152507
0.0749064
-0.00214289
0.074835
-0.00356044
0.0747279
-0.00413273
0.0746146
-0.00598217
0.0744376
-0.00650539
0.0742843
-0.00903708
0.0740121
-0.00946984
0.0738356
-0.0130167
0.0734371
-0.0132584
0.0732907
-0.0182289
0.0727436
-0.0181153
0.0727534
-0.0248842
0.0720889
-0.0242655
0.072477
-0.0327623
0.0718935
-0.0318333
0.0728577
-0.0404874
0.0729108
-0.040351
-0.0449545
0.0741181
0.0749909
-0.000342339
0.0749529
-0.00148706
0.0748921
-0.00208211
0.074805
-0.00347328
0.0746847
-0.00401245
0.0745457
-0.00584321
0.0743482
-0.00630788
0.0741581
-0.00884694
0.0738565
-0.00916832
0.0736326
-0.0127928
0.0731931
-0.0128189
0.0729968
-0.0180326
0.0723914
-0.0175099
0.0723752
-0.024868
0.0716257
-0.0235161
0.0720722
-0.0332088
0.0713734
-0.0311345
0.0725753
-0.0416894
0.0725482
-0.0403239
-0.046557
0.0741508
0.0749906
-0.000332983
0.0749452
-0.00144159
0.0748786
-0.0020155
0.074775
-0.00336972
0.0746433
-0.00388078
0.0744769
-0.00567677
0.0742623
-0.00609333
0.074031
-0.00861562
0.0737062
-0.00884349
0.073426
-0.0125126
0.0729544
-0.0123473
0.0726928
-0.0177709
0.0720393
-0.0168564
0.071976
-0.0248048
0.0711453
-0.0226854
0.0716332
-0.0336966
0.0708032
-0.0303045
0.0722525
-0.0431386
0.0721101
-0.0401816
-0.0486395
0.0741925
0.0749904
-0.000323412
0.0749375
-0.00138861
0.0748656
-0.00194363
0.0747454
-0.00324952
0.0746037
-0.0037391
0.0744085
-0.0054816
0.07418
-0.00586484
0.0739036
-0.00833921
0.0735615
-0.00850139
0.0732155
-0.0121665
0.0727225
-0.0118544
0.072376
-0.0174244
0.0716897
-0.0161701
0.0715494
-0.0246645
0.070649
-0.0217849
0.0711537
-0.0342014
0.0701754
-0.0293262
0.0718848
-0.044848
0.0715894
-0.0398862
-0.0512866
0.0742365
0.07499
-0.000313453
0.0749299
-0.00132849
0.0748529
-0.00186662
0.0747165
-0.00311311
0.0745654
-0.00358801
0.0743415
-0.00525766
0.0741008
-0.0056242
0.0737769
-0.0080153
0.0734227
-0.00814716
0.0730015
-0.0117453
0.0724985
-0.0113514
0.0720438
-0.0169697
0.0713457
-0.015472
0.0710856
-0.0244044
0.0701419
-0.0208413
0.0706206
-0.03468
0.0694835
-0.0281891
0.0714757
-0.0468402
0.0709683
-0.0393788
-0.0545824
0.0742641
0.0749893
-0.000302715
0.0749227
-0.00126197
0.0748402
-0.00178411
0.0746889
-0.00296173
0.074528
-0.00342712
0.0742768
-0.00500646
0.0740238
-0.00537124
0.0736531
-0.00764456
0.0732883
-0.00778242
0.0727866
-0.0112435
0.0722827
-0.0108475
0.0716951
-0.0163822
0.0710103
-0.0147872
0.0705723
-0.0239664
0.0696333
-0.0199023
0.0700063
-0.035053
0.0687323
-0.0269151
0.0710317
-0.0491396
0.0701987
-0.0385457
-0.0586479
0.0742642
0.0749879
-0.000290649
0.0749161
-0.00119013
0.0748273
-0.00169533
0.074663
-0.00279738
0.0744909
-0.0032551
0.0742156
-0.00473117
0.0739481
-0.00510366
0.0735347
-0.00723119
0.0731561
-0.00740386
0.0725766
-0.010664
0.0720721
-0.010343
0.0713357
-0.0156457
0.0706845
-0.014136
0.0699985
-0.0232804
0.0691317
-0.0190355
0.0692643
-0.0351855
0.067949
-0.0255998
0.0705326
-0.0517232
0.0691949
-0.037208
-0.0637541
0.0743011
0.074986
-0.000276682
0.0749101
-0.00111419
0.0748141
-0.00159933
0.0746392
-0.00262248
0.0744541
-0.00307005
0.0741591
-0.00443617
0.0738729
-0.00481745
0.0734244
-0.00678265
0.0730241
-0.00700354
0.0723778
-0.0100178
0.0718594
-0.0098246
0.0709834
-0.0147697
0.0703646
-0.0135172
0.0693658
-0.0222817
0.0686382
-0.0183079
0.0683401
-0.0348874
0.0671795
-0.0244392
0.0698734
-0.0544172
0.0678843
-0.0352189
-0.070494
0.0746242
0.0749837
-0.000260385
0.0749047
-0.00103523
0.0748008
-0.00149536
0.0746176
-0.00243935
0.0744178
-0.00287018
0.0741077
-0.0041261
0.0737984
-0.00450817
0.0733238
-0.00630805
0.0728911
-0.00657084
0.0721954
-0.00932209
0.0716398
-0.00926896
0.0706529
-0.0137828
0.0700242
-0.0128884
0.068736
-0.0209935
0.068153
-0.0177249
0.0671871
-0.0339215
0.066456
-0.0237082
0.0688225
-0.0567837
0.0663401
-0.0327364
-0.0798333
0.0756793
0.0749813
-0.000241639
0.0748999
-0.000953911
0.0747878
-0.00138324
0.0745982
-0.00224969
0.0743827
-0.00265467
0.0740612
-0.00380462
0.0737258
-0.00417279
0.0732332
-0.00581546
0.0727587
-0.0060963
0.072032
-0.0085954
0.0714125
-0.0086495
0.0703561
-0.0127264
0.0696507
-0.012183
0.0681518
-0.0194947
0.0676063
-0.0171794
0.0658576
-0.0321728
0.0657453
-0.0235958
0.0670842
-0.0581226
0.0649032
-0.0305554
-0.0927158
0.0777857
0.0749791
-0.000220732
0.0748955
-0.000870309
0.0747759
-0.00126367
0.0745803
-0.00205406
0.0743499
-0.00242432
0.0740187
-0.00347337
0.0736572
-0.0038113
0.073151
-0.00530928
0.0726306
-0.00557593
0.0718854
-0.00785016
0.0711833
-0.00794741
0.0700946
-0.0116377
0.0692448
-0.0113332
0.0676403
-0.0178901
0.0669263
-0.0164654
0.064647
-0.0298935
0.0649747
-0.0239235
0.064505
-0.0576529
0.064073
-0.0301234
-0.109067
0.080424
0.0749776
-0.00019832
0.0748912
-0.000783913
0.0747657
-0.00113818
0.0745635
-0.00185191
0.0743209
-0.00218169
0.0739792
-0.00313161
0.0735953
-0.00342748
0.0730749
-0.00478881
0.0725129
-0.00501391
0.0717506
-0.00708786
0.0709646
-0.00716147
0.0698582
-0.0105313
0.0688278
-0.0103028
0.0671964
-0.0162587
0.0661197
-0.0153888
0.0636242
-0.027398
0.0638169
-0.0241162
0.0609997
-0.0548357
0.0640382
-0.0331619
-0.126625
0.0815963
0.0749769
-0.000175255
0.0748869
-0.000693899
0.0747576
-0.00100885
0.0745476
-0.00164192
0.0742965
-0.00193059
0.0739418
-0.0027769
0.0735424
-0.00302811
0.0730028
-0.00424916
0.0724109
-0.00442199
0.071622
-0.00629901
0.070771
-0.00631044
0.0696319
-0.00939226
0.0684381
-0.0091089
0.0667808
-0.0146015
0.0652578
-0.0138658
0.0627491
-0.0248893
0.0619942
-0.0233613
0.0580015
-0.050843
0.0641474
-0.0393078
-0.140446
0.0779687
0.0749771
-0.000152328
0.0748827
-0.000599502
0.0747517
-0.00087788
0.0745324
-0.00142267
0.0742771
-0.00167524
0.0739065
-0.00240628
0.0734995
-0.00262117
0.0729341
-0.00368369
0.0723278
-0.00381576
0.0714971
-0.00546829
0.0706127
-0.00542605
0.069405
-0.00818453
0.0681123
-0.00781622
0.0663481
-0.0128373
0.0644711
-0.0119888
0.0618546
-0.0222728
0.0597526
-0.0212593
0.0555796
-0.04667
0.0626743
-0.0464025
-0.143688
0.0659162
0.0749773
-0.000129632
0.0748794
-0.00050156
0.074747
-0.000745541
0.0745192
-0.00119488
0.0742611
-0.0014171
0.0738752
-0.00202037
0.0734644
-0.00221044
0.0728721
-0.00309131
0.0722609
-0.00320457
0.0713812
-0.00458862
0.0704874
-0.00453225
0.0691841
-0.00688118
0.0678583
-0.00649048
0.065891
-0.01087
0.0638483
-0.009946
0.060793
-0.0192175
0.057624
-0.0180903
0.0526186
-0.0416646
0.05349
-0.0472739
0.0420486
-0.132247
0.0740513
-0.0324763
0.0742376
-0.0322768
0.0744438
-0.0315258
0.0746574
-0.0304588
0.0748667
-0.029212
0.0750638
-0.0278463
0.0752448
-0.0264245
0.0754083
-0.0250101
0.0755541
-0.0236463
-0.0223524
0.0756851
0.0742642
-0.0327571
0.0745443
-0.0325568
0.0748081
-0.0317896
0.0750583
-0.0307089
0.0752851
-0.0294388
0.0754809
-0.0280421
0.0756467
-0.0265902
0.0757875
-0.0251509
0.0759076
-0.0237665
-0.0224561
0.0760114
0.0744626
-0.0331866
0.0748512
-0.0329454
0.0751898
-0.0321283
0.0754922
-0.0310114
0.0757488
-0.0296954
0.0759531
-0.0282465
0.0761123
-0.0267494
0.0762377
-0.0252762
0.0763377
-0.0238665
-0.0225382
0.0764197
0.0746542
-0.033775
0.0751548
-0.0334461
0.0755748
-0.0325482
0.075934
-0.0313706
0.0762214
-0.0299828
0.0764348
-0.0284599
0.076589
-0.0269036
0.0767017
-0.0253889
0.0767853
-0.02395
-0.0226031
0.0768502
0.0748493
-0.0345326
0.0754639
-0.0340607
0.0759707
-0.033055
0.0763886
-0.0317885
0.0767052
-0.0302993
0.0769262
-0.0286809
0.0770761
-0.0270536
0.0771784
-0.0254911
0.0772484
-0.0240201
-0.0226532
0.0772985
0.0750555
-0.0354701
0.0757864
-0.0347916
0.0763848
-0.0336533
0.0768622
-0.032266
0.0772067
-0.0306438
0.0774361
-0.0289103
0.0775853
-0.0272028
0.0776807
-0.0255865
0.0777388
-0.0240782
-0.0226859
0.0777715
0.0752777
-0.036597
0.0761278
-0.0356417
0.0768237
-0.0343493
0.0773637
-0.0328059
0.0777397
-0.0310198
0.0779842
-0.0291548
0.0781387
-0.0273574
0.0782279
-0.0256757
0.0782665
-0.0241167
-0.0226831
0.0782637
0.0755132
-0.0379176
0.0764912
-0.0366197
0.0772998
-0.0351578
0.077915
-0.0334212
0.0783356
-0.0314403
0.0786051
-0.0294243
0.078764
-0.0275163
0.0788294
-0.0257411
0.0788131
-0.0241004
-0.0225929
0.0787228
0.0757413
-0.0394224
0.0768885
-0.037767
0.0778485
-0.0361178
0.0785674
-0.0341401
0.0790482
-0.0319211
0.079337
-0.0297131
0.0794646
-0.0276439
0.0794406
-0.0257171
0.0792789
-0.0239387
-0.0223066
0.0789927
0.0759558
-0.0411141
0.077372
-0.0391832
0.0785544
-0.0373002
0.0794048
-0.0349905
0.0799276
-0.0324438
0.0801666
-0.0299521
0.0801463
-0.0276236
0.0798814
-0.0254522
0.0794034
-0.0234608
-0.0216473
0.0787441
0.0762566
-0.0431066
0.0780781
-0.0410047
0.07955
-0.0387721
0.0804907
-0.0359312
0.0809241
-0.0328772
0.0809118
-0.0299399
0.0804987
-0.0272105
0.0797336
-0.0246871
0.0786892
-0.0224164
-0.020389
0.0774309
0.0768367
-0.0456422
0.0792184
-0.0433864
0.0809146
-0.0404683
0.0817038
-0.0367204
0.0817071
-0.0328805
0.0810597
-0.0292924
0.0798763
-0.0260271
0.0782759
-0.0230867
0.076392
-0.0205326
-0.0183257
0.0743287
0.0780077
-0.0490257
0.0809121
-0.0462908
0.0824128
-0.041969
0.0824765
-0.0367842
0.0814652
-0.0318691
0.0796544
-0.0274816
0.0772801
-0.0236528
0.0745495
-0.0203561
0.0716535
-0.0176365
-0.0153879
0.0687157
0.0799433
-0.0532897
0.0827862
-0.0491337
0.0831312
-0.042314
0.081581
-0.035234
0.0788464
-0.0291345
0.0753866
-0.0240218
0.0715639
-0.0198301
0.0676436
-0.0164358
0.063827
-0.0138199
-0.0117641
0.0602032
0.0821121
-0.0576161
0.0835334
-0.0505549
0.0812851
-0.0400658
0.0772005
-0.0311493
0.0722482
-0.0241822
0.0670267
-0.0188003
0.0619388
-0.0147422
0.0572036
-0.0117005
0.0529347
-0.00955098
-0.00793636
0.0491069
0.0827234
-0.0599155
0.080689
-0.0485206
0.0745328
-0.0339095
0.0675413
-0.0241579
0.06058
-0.0172209
0.0542168
-0.0124371
0.0486768
-0.00920222
0.0439639
-0.00698763
0.0399948
-0.00558188
-0.00452866
0.0365871
0.0788154
-0.0571346
0.0713843
-0.0410894
0.0610807
-0.023606
0.0520376
-0.0151147
0.0443807
-0.00956403
0.0383012
-0.00635764
0.0335477
-0.00444875
0.0298164
-0.00325631
0.0268239
-0.00258938
-0.00200718
0.0243025
0.0671024
-0.0462683
0.0538244
-0.0278114
0.0413767
-0.0111583
0.0327398
-0.00647778
0.0265469
-0.00337113
0.022309
-0.00211977
0.0192776
-0.00141734
0.0170293
-0.00100802
0.0152581
-0.000818161
-0.000504948
0.0137558
0.0456789
-0.026031
0.0293185
-0.0114511
0.0196639
-0.00150372
0.0143575
-0.00117133
0.011291
-0.000304635
0.00941262
-0.000241396
0.00813648
-0.000141208
0.00722085
-9.23798e-05
0.00647972
-7.70357e-05
7.84697e-05
0.0058963
0.0160177
0.0045666
0.00306288
0.00189156
0.00158692
0.00134553
0.00120432
0.00111194
0.0010349
0.00111337
0.0757741
-0.0159666
0.0758553
-0.0153155
0.0759306
-0.0146983
0.0760003
-0.0141112
0.0760644
-0.0135559
0.0761235
-0.0130281
0.0761774
-0.0125324
0.0762261
-0.0120632
0.0762695
-0.0116292
0.0763075
-0.0112218
0.0763399
-0.0108552
0.0763667
-0.0105145
0.076388
-0.0102214
0.0764033
-0.00995169
0.0764134
-0.0097362
0.0764169
-0.00953882
0.076416
-0.00940106
0.0764073
-0.00927493
0.076395
-0.00921022
-0.00915415
0.0760809
-0.016036
0.0761447
-0.0153793
0.0762034
-0.014757
0.0762576
-0.0141654
0.0763071
-0.0136054
0.0763519
-0.0130729
0.0763914
-0.0125719
0.0764252
-0.012097
0.0764532
-0.0116571
0.0764745
-0.0112432
0.0764897
-0.0108703
0.0764976
-0.0105224
0.0764995
-0.0102233
0.0764934
-0.00994561
0.0764824
-0.00972518
0.0764622
-0.00951863
0.0764386
-0.00937752
0.0764038
-0.00924008
0.0763676
-0.00917407
-0.00910362
0.0764732
-0.0160895
0.0765217
-0.0154277
0.0765657
-0.014801
0.0766055
-0.0142053
0.0766406
-0.0136405
0.0766701
-0.0131024
0.0766931
-0.0125949
0.0767085
-0.0121125
0.0767158
-0.0116644
0.076714
-0.0112413
0.0767032
-0.0108595
0.0766822
-0.0105014
0.0766528
-0.0101939
0.0766123
-0.00990511
0.076565
-0.0096779
0.0765052
-0.00945882
0.0764412
-0.00931353
0.0763618
-0.00916071
0.0762812
-0.00909347
-0.00900271
0.076891
-0.0161303
0.0769268
-0.0154636
0.0769583
-0.0148325
0.0769848
-0.0142318
0.077005
-0.0136607
0.0770173
-0.0131146
0.0770197
-0.0125973
0.077011
-0.0121037
0.0769897
-0.0116431
0.0769548
-0.0112064
0.0769063
-0.010811
0.0768432
-0.0104383
0.0767671
-0.0101179
0.076676
-0.00981397
0.0765742
-0.00957616
0.0764563
-0.0093409
0.0763315
-0.00918872
0.0761873
-0.00901652
0.0760406
-0.00894672
-0.00883036
0.0773272
-0.016159
0.0773499
-0.0154863
0.0773662
-0.0148488
0.0773748
-0.0142404
0.0773728
-0.0136588
0.077358
-0.0130998
0.0773274
-0.0125667
0.0772794
-0.0120557
0.0772121
-0.0115758
0.077125
-0.0111193
0.0770174
-0.0107034
0.0768897
-0.0103106
0.0767428
-0.00997105
0.0765766
-0.00964777
0.0763947
-0.00939424
0.0761935
-0.00913968
0.0759815
-0.00897676
0.0757475
-0.00878247
0.0755087
-0.00870798
-0.00856226
0.0777826
-0.0161701
0.0777834
-0.015487
0.0777722
-0.0148377
0.0777467
-0.0142148
0.0777027
-0.0136148
0.0776374
-0.0130344
0.0775474
-0.0124767
0.0774311
-0.0119395
0.0772867
-0.0114314
0.0771147
-0.0109473
0.0769145
-0.0105032
0.0766883
-0.0100843
0.0764366
-0.00971936
0.076162
-0.00937323
0.0758667
-0.00909891
0.0755509
-0.00882389
0.0752205
-0.00864633
0.0748683
-0.00843034
0.0745092
-0.0083488
-0.0081739
0.0782372
-0.0161436
0.0781903
-0.0154401
0.0781209
-0.0147683
0.0780257
-0.0141196
0.0779003
-0.0134895
0.077742
-0.0128761
0.0775477
-0.0122825
0.0773173
-0.011709
0.0770494
-0.0111635
0.0767466
-0.0106444
0.0764088
-0.0101655
0.076041
-0.00971652
0.0756434
-0.00932171
0.0752221
-0.00895201
0.0747773
-0.00865404
0.0743145
-0.00836109
0.0738348
-0.00816669
0.0733388
-0.00793431
0.072834
-0.00784404
-0.00764646
0.0786106
-0.0160314
0.0784622
-0.0152916
0.0782759
-0.0145821
0.0780492
-0.0138928
0.0777787
-0.013219
0.0774633
-0.0125606
0.0771018
-0.011921
0.0766962
-0.0113033
0.0762472
-0.0107146
0.0757598
-0.010157
0.0752354
-0.00964108
0.0746815
-0.0091626
0.0740985
-0.00873874
0.0734961
-0.00834962
0.0728721
-0.00803
0.0722377
-0.00772668
0.071588
-0.00751702
0.0709331
-0.00727941
0.0702697
-0.00718064
-0.0069745
0.0787069
-0.0157456
0.0783666
-0.0149513
0.0779733
-0.0141888
0.0775267
-0.0134462
0.0770266
-0.012719
0.0764751
-0.0120091
0.0758744
-0.0113203
0.0752291
-0.010658
0.0745428
-0.0100284
0.0738228
-0.00943688
0.0730724
-0.00889069
0.0723006
-0.00839089
0.0715086
-0.00794675
0.0707078
-0.00754876
0.0698942
-0.0072164
0.069083
-0.00691548
0.0682635
-0.0066975
0.0674548
-0.00647078
0.066641
-0.00636677
-0.00617293
0.0781562
-0.0151577
0.0775032
-0.0142983
0.0767915
-0.0134772
0.0760251
-0.0126798
0.0752085
-0.0119024
0.0743476
-0.0111481
0.0734481
-0.0104208
0.0725171
-0.00972701
0.0715608
-0.00907203
0.0705871
-0.00846318
0.0696007
-0.00790436
0.0686104
-0.00740051
0.0676172
-0.00695362
0.0666319
-0.00656339
0.0656495
-0.00623399
0.0646856
-0.00595163
0.0637257
-0.0057376
0.0627947
-0.00553979
0.0618652
-0.00543727
-0.00527954
0.0763956
-0.0141224
0.0753073
-0.0132099
0.0741776
-0.0123475
0.0730146
-0.0115168
0.071827
-0.0107147
0.0706231
-0.0099442
0.0694103
-0.00920803
0.0681958
-0.00851258
0.0669859
-0.00786213
0.0657868
-0.00726405
0.0646022
-0.00671974
0.0634376
-0.00623593
0.0622935
-0.00580948
0.0611766
-0.00544648
0.0600818
-0.00513923
0.0590215
-0.00489128
0.0579802
-0.00469633
0.0569832
-0.00454279
0.0559972
-0.00445125
-0.0043506
0.0727395
-0.0125332
0.0711477
-0.0116181
0.0695658
-0.0107656
0.0680027
-0.00995379
0.0664672
-0.00917925
0.0649653
-0.00844228
0.0635012
-0.00774392
0.062078
-0.00708935
0.0606976
-0.00648173
0.059361
-0.00592752
0.0580683
-0.00542697
0.0568195
-0.00498719
0.0556131
-0.00460305
0.0544505
-0.00428389
0.053327
-0.00401575
0.0522492
-0.00381343
0.0512043
-0.00365145
0.0502123
-0.00355077
0.0492416
-0.00348061
-0.00344939
0.0665839
-0.0104014
0.0645436
-0.00957782
0.0625988
-0.00882082
0.0607521
-0.00810705
0.0590032
-0.00743036
0.0573478
-0.00678691
0.0557803
-0.00617646
0.0542945
-0.00560355
0.0528842
-0.00507142
0.051543
-0.00458633
0.0502657
-0.00414958
0.0490472
-0.00376869
0.0478838
-0.00343965
0.0467726
-0.00317278
0.0457102
-0.00295334
0.0446974
-0.00280057
0.0437264
-0.00268045
0.0428085
-0.00263287
0.0419209
-0.00259301
-0.00263162
0.0577247
-0.00792298
0.0554597
-0.00731279
0.0533915
-0.00675259
0.0515042
-0.00621977
0.0497769
-0.00570307
0.048187
-0.00519703
0.0467147
-0.0047041
0.0453426
-0.00423148
0.0440568
-0.00378559
0.0428455
-0.00337505
0.0417005
-0.00300459
0.0406148
-0.00268304
0.0395848
-0.00240956
0.0386059
-0.00219396
0.0376768
-0.00202417
0.0367943
-0.00191811
0.035956
-0.00184214
0.0351641
-0.00184096
0.0344076
-0.0018365
-0.00193385
0.0466552
-0.00547127
0.044529
-0.00518661
0.042678
-0.00490153
0.0410534
-0.0045952
0.0396056
-0.00425525
0.0382937
-0.00388518
0.0370879
-0.0034983
0.0359664
-0.00310992
0.0349141
-0.00273327
0.0339206
-0.00238155
0.03298
-0.002064
0.0320879
-0.001791
0.0312432
-0.00156481
0.0304428
-0.00139355
0.029687
-0.00126837
0.028971
-0.00120215
0.0282955
-0.00116666
0.0276556
-0.00120102
0.0270509
-0.00123179
-0.00136934
0.0345919
-0.00347602
0.0329833
-0.00357798
0.0316606
-0.00357893
0.0305331
-0.00346763
0.0295297
-0.00325184
0.0286067
-0.00296218
0.0277393
-0.00263099
0.0269142
-0.00228478
0.026125
-0.00194405
0.0253694
-0.00162594
0.0246481
-0.0013427
0.023962
-0.0011049
0.0233133
-0.000916081
0.022701
-0.000781319
0.0221261
-0.000693457
0.0215828
-0.000658793
0.0210719
-0.000655805
0.0205843
-0.00071338
0.0201268
-0.000774284
-0.000931862
0.0230738
-0.00224735
0.0222203
-0.00272451
0.0215663
-0.00292489
0.0209904
-0.00289173
0.0204314
-0.00269284
0.0198687
-0.00239946
0.0192998
-0.00206214
0.0187296
-0.00171456
0.0181655
-0.00137998
0.0176153
-0.00107573
0.0170863
-0.000813726
0.016584
-0.00060252
0.0161123
-0.000444473
0.0156714
-0.000340399
0.0152607
-0.000282689
0.0148731
-0.000271262
0.0145079
-0.000290533
0.0141543
-0.000359786
0.0138231
-0.000443095
-0.000604309
0.0133832
-0.00187472
0.0132895
-0.00263079
0.013212
-0.00284739
0.0130509
-0.00273062
0.0127956
-0.00243755
0.0124673
-0.00207119
0.0120916
-0.00168646
0.0116911
-0.00131401
0.0112839
-0.000972821
0.0108842
-0.00067606
0.0105027
-0.000432162
0.010146
-0.000245809
0.00981787
-0.00011637
0.00951705
-3.95806e-05
0.00924019
-5.82661e-06
0.00897903
-1.0103e-05
0.00873003
-4.15374e-05
0.00848398
-0.000113737
0.00825273
-0.000211846
-0.000367302
0.00622155
-0.00219997
0.00664685
-0.00305609
0.00686615
-0.00306669
0.0068728
-0.00273726
0.00672562
-0.00229037
0.00648302
-0.00182859
0.00618848
-0.00139191
0.0058723
-0.000997835
0.0055555
-0.000656021
0.00525248
-0.000373035
0.00497278
-0.000152464
0.00472112
5.85551e-06
0.00449928
0.000105468
0.0043031
0.000156596
0.00412637
0.00017091
0.00395927
0.000156994
0.00379696
0.000120768
0.00363268
5.05414e-05
0.00347706
-5.62232e-05
-0.000205181
0.00174184
-0.00282843
0.00223523
-0.00354949
0.00239053
-0.00322199
0.00231127
-0.002658
0.00210039
-0.00207949
0.00182578
-0.00155398
0.00152866
-0.00109479
0.0012341
-0.000703279
0.00095761
-0.000379526
0.000708519
-0.000123944
0.000492242
6.38124e-05
0.000310534
0.000187564
0.000160196
0.000255805
3.55296e-05
0.000281262
-7.22163e-05
0.000278656
-0.000172767
0.000257546
-0.000271932
0.000219933
-0.000372375
0.000150984
-0.000475721
4.71231e-05
-0.000109862
7.04426e-05
-0.00289888
-2.60479e-05
-0.003453
-0.000201361
-0.00304668
-0.000461314
-0.00239805
-0.000752015
-0.00178879
-0.00104232
-0.00126368
-0.00131505
-0.000822064
-0.0015612
-0.00045712
-0.00177619
-0.000164537
-0.00195773
5.7594e-05
-0.00210578
0.00021186
-0.00222226
0.000304042
-0.00231114
0.000344685
-0.00237858
0.000348709
-0.00243209
0.00033216
-0.00247939
0.000304844
-0.00252499
0.00026554
-0.00257135
0.000197343
-0.00261452
9.02875e-05
-5.57291e-05
-0.000475564
-0.00242331
-0.000988594
-0.00293997
-0.00149113
-0.00254414
-0.0019536
-0.00193558
-0.00236781
-0.00137459
-0.00273025
-0.000901228
-0.00304176
-0.00051056
-0.00330499
-0.000193892
-0.00352282
5.33006e-05
-0.00369825
0.000233025
-0.00383477
0.000348372
-0.00393641
0.000405683
-0.00400845
0.000416726
-0.00405754
0.000397805
-0.00409112
0.000365734
-0.00411631
0.00033004
-0.00413771
0.00028694
-0.00415795
0.000217575
-0.00417633
0.000108676
-2.55421e-05
-0.000727067
-0.00169624
-0.00157621
-0.00209083
-0.00234135
-0.001779
-0.0029797
-0.00129723
-0.00350253
-0.000851758
-0.00392907
-0.000474686
-0.00427607
-0.000163554
-0.00455666
8.66953e-05
-0.00478066
0.000277302
-0.00495575
0.000408109
-0.00508797
0.00048059
-0.005183
0.000500718
-0.00524672
0.000480442
-0.00528554
0.000436624
-0.00530618
0.000386382
-0.00531506
0.000338919
-0.00531697
0.000288843
-0.00531572
0.000216331
-0.00531378
0.000106733
-1.61186e-05
-0.000850573
-0.000845671
-0.00190317
-0.00103823
-0.002846
-0.000836161
-0.00360561
-0.000537626
-0.0042036
-0.000253763
-0.0046744
-3.89204e-06
-0.00504556
0.000207613
-0.00533862
0.000379756
-0.00556836
0.000507034
-0.00574546
0.00058521
-0.00587795
0.000613078
-0.00597229
0.00059506
-0.00603421
0.000542364
-0.00606925
0.00047166
-0.00608291
0.00040005
-0.00608072
0.000336725
-0.00606779
0.000275915
-0.00604958
0.000198123
-0.00603174
8.88893e-05
-2.39852e-05
-0.000898901
5.32298e-05
-0.00203888
0.000101752
-0.00306003
0.000184984
-0.00387242
0.000274762
-0.00450179
0.000375614
-0.00498891
0.000483225
-0.00536868
0.000587382
-0.00566565
0.000676728
-0.00589751
0.00073889
-0.00607661
0.000764314
-0.0062118
0.000748266
-0.00630955
0.00069281
-0.00637482
0.000607635
-0.00641174
0.000508581
-0.00642421
0.000412515
-0.0064166
0.000329114
-0.00639424
0.000253556
-0.00636421
0.000168092
-0.00633488
5.95674e-05
-4.43166e-05
-0.000892072
0.000945301
-0.00201013
0.00121981
-0.00300758
0.00118244
-0.00379917
0.00106634
-0.00441132
0.000987766
-0.00488493
0.000956838
-0.00525438
0.000956829
-0.00554452
0.00096687
-0.00577306
0.000967431
-0.00595239
0.000943645
-0.00609111
0.000886983
-0.00619502
0.000796723
-0.00626786
0.000680477
-0.00631202
0.000552739
-0.00632945
0.000429946
-0.00632308
0.000322741
-0.00629798
0.000228458
-0.00626239
0.000132499
-0.00622668
2.38585e-05
-7.17323e-05
-0.000826651
0.00177195
-0.00181314
0.0022063
-0.00268615
0.00205545
-0.00338475
0.00176495
-0.00393227
0.00153528
-0.0043622
0.00138677
-0.00470269
0.00129732
-0.0049748
0.00123897
-0.0051938
0.00118643
-0.00537057
0.00112042
-0.00551256
0.00102897
-0.0056244
0.000908562
-0.00570835
0.000764434
-0.00576495
0.000609336
-0.00579404
0.000459033
-0.00579671
0.000325411
-0.00577709
0.000208838
-0.0057437
9.91172e-05
-0.00570794
-1.19101e-05
-0.000100147
-0.000675014
0.00244697
-0.00141051
0.00294179
-0.0020648
0.00270974
-0.00260674
0.00230688
-0.00304885
0.00197739
-0.00340938
0.0017473
-0.00370496
0.00159291
-0.00394926
0.00148328
-0.00415305
0.00139022
-0.00432442
0.00129178
-0.00446896
0.00117351
-0.00458985
0.00102946
-0.00468788
0.00086246
-0.00476183
0.000683284
-0.00480948
0.000506689
-0.00482985
0.000345775
-0.00482531
0.000204302
-0.00480361
7.74193e-05
-0.00477575
-3.97676e-05
-0.000122422
-0.000348156
0.00279512
-0.000716907
0.00331054
-0.0010775
0.00307034
-0.00141797
0.00264735
-0.00172797
0.00228739
-0.00200277
0.00202209
-0.00224352
0.00183366
-0.00245411
0.00169387
-0.00263933
0.00157544
-0.00280367
0.00145613
-0.00295049
0.00132033
-0.00308146
0.00116043
-0.00319608
0.000977078
-0.00329177
0.000778979
-0.0033646
0.00057951
-0.00341148
0.000392657
-0.00343245
0.000225277
-0.00343344
7.84076e-05
-0.00342339
-4.98211e-05
-0.000129958
0.00035054
0.00244458
0.000419341
0.00324174
0.000388131
0.00310155
0.000257633
0.00277785
8.32771e-05
0.00246175
-0.000104746
0.00221011
-0.000290905
0.00201982
-0.000468707
0.00187167
-0.00063662
0.00174336
-0.000795336
0.00161484
-0.000945965
0.00147096
-0.00108886
0.00130332
-0.00122264
0.00111086
-0.00134397
0.000900313
-0.00144777
0.000683311
-0.00152933
0.000474215
-0.00158616
0.000282106
-0.00162158
0.000113829
-0.00164107
-3.03331e-05
-0.000112601
0.0031656
0.00164987
-0.00237089
0.00385752
0.00254983
0.00420722
0.00275185
0.00429494
0.00269012
0.00422494
0.00253175
0.00407046
0.00236459
0.0038738
0.00221648
0.0036578
0.00208766
0.0034336
0.00196755
0.00320565
0.00184279
0.00297548
0.00170114
0.00274403
0.00153477
0.00251385
0.00134104
0.00228972
0.00112445
0.00207959
0.000893442
0.00189145
0.000662352
0.00173293
0.000440626
0.00160261
0.000244148
0.00150212
7.01581e-05
-2.78143e-05
0.010564
0.00156816
-0.0104823
0.0108695
0.00224433
0.0110696
0.00255178
0.0111118
0.00264791
0.0110235
0.00262008
0.0108493
0.00253881
0.0106243
0.00244149
0.0103712
0.00234072
0.010103
0.00223573
0.00982567
0.00212014
0.00954125
0.00198556
0.00924999
0.00182603
0.008953
0.00163803
0.00865255
0.00142489
0.00835468
0.0011913
0.00806545
0.000951582
0.00779467
0.000711412
0.00754282
0.000496
0.00732163
0.000291349
0.000170606
0.0220352
0.00257102
-0.0230381
0.0214266
0.00285296
0.0209736
0.00300478
0.0205621
0.00305934
0.0201456
0.00303658
0.0197182
0.0029663
0.0192865
0.00287318
0.0188578
0.00276943
0.0184363
0.00265714
0.0180229
0.0025336
0.0176157
0.00239276
0.0172112
0.00223052
0.0168068
0.00204245
0.0163999
0.00183172
0.0159926
0.00159863
0.0155857
0.0013585
0.0151876
0.00110952
0.0147971
0.000886494
0.0144272
0.000661271
0.000510746
0.036757
0.00463025
-0.0388162
0.0351193
0.00449061
0.0337759
0.0043482
0.0326363
0.00419896
0.0316331
0.0040398
0.0307276
0.0038718
0.0298995
0.00370121
0.0291366
0.00353241
0.0284294
0.00336431
0.0277691
0.00319392
0.0271469
0.00301488
0.0265534
0.00282407
0.0259806
0.00261529
0.0254199
0.00239235
0.024868
0.00215053
0.0243194
0.00190717
0.0237772
0.00165168
0.0232385
0.0014252
0.0227053
0.00119444
0.00101185
0.0526574
0.00733308
-0.0553602
0.0503031
0.0068449
0.0482383
0.006413
0.0464196
0.00601765
0.0448041
0.00565532
0.0433562
0.00531975
0.0420501
0.00500729
0.040866
0.00471649
0.0397875
0.00444278
0.0387993
0.00418214
0.0378875
0.00392671
0.0370376
0.003674
0.0362372
0.00341561
0.0354732
0.00315637
0.0347367
0.00288704
0.0340177
0.00262619
0.0333112
0.00235822
0.0326161
0.00212022
0.0319163
0.00189427
0.00167924
0.0670289
0.0100442
-0.06974
0.0645256
0.00934812
0.0622137
0.00872495
0.0600831
0.00814822
0.0581232
0.00761527
0.0563203
0.00712259
0.0546623
0.00666532
0.0531375
0.00624126
0.0517349
0.00584545
0.050442
0.005475
0.0492467
0.00512197
0.0481354
0.00478529
0.0470953
0.00445576
0.0461128
0.00413888
0.0451755
0.00382431
0.0442742
0.00352754
0.0433942
0.00323821
0.0425414
0.00297302
0.0416825
0.00275319
0.00250272
0.0778908
0.0122572
-0.0801038
0.0757449
0.011494
0.0736728
0.0107971
0.0716796
0.0101414
0.069773
0.0095219
0.0679573
0.00893833
0.0662349
0.00838767
0.064607
0.00786922
0.0630729
0.00737952
0.0616297
0.00691815
0.0602725
0.00647919
0.0589945
0.00606335
0.0577865
0.00566368
0.0566409
0.00528449
0.0555445
0.00492077
0.0544944
0.00457763
0.0534689
0.00426369
0.052483
0.00395889
0.051494
0.00374224
0.00345187
0.0847708
0.013781
-0.0862946
0.0832226
0.0130422
0.0816636
0.0123561
0.0801025
0.0117025
0.0785502
0.0110742
0.0770174
0.0104711
0.0755132
0.00989193
0.0740453
0.00933704
0.0726202
0.00880464
0.0712426
0.0082958
0.0699138
0.00780791
0.0686354
0.00734183
0.0674028
0.00689628
0.0662167
0.0064706
0.0650652
0.00607221
0.0639548
0.00568806
0.0628612
0.00535724
0.0618073
0.00501287
0.06075
0.00479945
0.00447054