x,y,z,p
0,0,0,0.000411492
0,0.1,0,0.000905896
0,0.2,0,0.0014003
0,0.3,0,0.00197816
0,0.4,0,0.00263948
0,0.5,0,0.0033008
0,0.6,0,0.00396653
0,0.7,0,0.00463226
0,0.8,0,0.00530114
0,0.9,0,0.00597316
0,1,0,0.00664518
0,1.1,0,0.00732507
0,1.2,0,0.00800496
0,1.3,0,0.00868941
0,1.4,0,0.00937841
0,1.5,0,0.0100674
0,1.6,0,0.0107663
0,1.7,0,0.0114652
0,1.8,0,0.0121693
0,1.9,0,0.0128784
0,2,0,0.0135875
0,2.1,0,0.0143065
0,2.2,0,0.0150256
0,2.3,0,0.015749
0,2.4,0,0.016477
0,2.5,0,0.0172049
0,2.6,0,0.0179397
0,2.7,0,0.0186746
0,2.8,0,0.0194116
0,2.9,0,0.0201506
0,3,0,0.0208897
0,3.1,0,0.021629
0,3.2,0,0.0223684
0,3.3,0,0.0231054
0,3.4,0,0.0238402
0,3.5,0,0.0245749
0,3.6,0,0.025299
0,3.7,0,0.026023
0,3.8,0,0.026738
0,3.9,0,0.0274441
0,4,0,0.0281502
0,4.1,0,0.0288302
0,4.2,0,0.0295101
0,4.3,0,0.0301725
0,4.4,0,0.0308172
0,4.5,0,0.031462
0,4.6,0,0.0320618
0,4.7,0,0.0326616
0,4.8,0,0.033246
0,4.9,0,0.0338149
0,5,0,0.0343837
0,5.1,0,0.0348364
0,5.2,0,0.035289
0,5.3,0,0.0357417
0,5.4,0,0.0361232
0,5.5,0,0.0365048
0,5.6,0,0.0368863
0,5.7,0,0.0371651
0,5.8,0,0.0374439
0,5.9,0,0.0377227
0,6,0,0.0378897
0,6.1,0,0.0380567
0,6.2,0,0.0382238
0,6.3,0,0.0382732
0,6.4,0,0.0383227
0,6.5,0,0.0383722
0,6.6,0,0.0383021
0,6.7,0,0.038232
0,6.8,0,0.0381619
0,6.9,0,0.0379741
0,7,0,0.0377864
0,7.1,0,0.0375986
0,7.2,0,0.0372987
0,7.3,0,0.0369988
0,7.4,0,0.0366989
0,7.5,0,0.0362958
0,7.6,0,0.0358926
0,7.7,0,0.0354894
0,7.8,0,0.0350217
0,7.9,0,0.034554
0,8,0,0.0340863
0,8.1,0,0.0334853
0,8.2,0,0.0328843
0,8.3,0,0.0322714
0,8.4,0,0.0316521
0,8.5,0,0.0310196
0,8.6,0,0.0303562
0,8.7,0,0.0296928
0,8.8,0,0.0289956
0,8.9,0,0.0282966
0,9,0,0.0275811
0,9.1,0,0.0268545
0,9.2,0,0.0261229
0,9.3,0,0.0253761
0,9.4,0,0.0246294
0,9.5,0,0.0238705
0,9.6,0,0.0231102
0,9.7,0,0.0223456
0,9.8,0,0.0215774
0,9.9,0,0.0208086
0,10,0,0.0200373
0,10.1,0,0.019266
0,10.2,0,0.0184953
0,10.3,0,0.0177246
0,10.4,0,0.0169558
0,10.5,0,0.0161888
0,10.6,0,0.0154226
0,10.7,0,0.0146612
0,10.8,0,0.0138999
0,10.9,0,0.0131441
0,11,0,0.0123897
0,11.1,0,0.0116387
0,11.2,0,0.0108919
0,11.3,0,0.0101458
0,11.4,0,0.00940667
0,11.5,0,0.00866751
0,11.6,0,0.00793377
0,11.7,0,0.00720183
0,11.8,0,0.00647243
0,11.9,0,0.00574684
0,12,0,0.00502151
0,12.1,0,0.00430106
0,12.2,0,0.00358061
0,12.3,0,0.00286271
0,12.4,0,0.00214591
0,12.5,0,0.00149239
0,12.6,0,0.000956402
0,12.7,0,0.000420417
0.1,0,0,0.000246895
0.1,0.1,0,0.000740686
0.1,0.2,0,0.0013172
0.1,0.3,0,0.00197681
0.1,0.4,0,0.00263778
0.1,0.5,0,0.0032989
0.1,0.6,0,0.00396382
0.1,0.7,0,0.00462956
0.1,0.8,0,0.005298
0.1,0.9,0,0.00596958
0.1,1,0,0.0066418
0.1,1.1,0,0.00732078
0.1,1.2,0,0.00800086
0.1,1.3,0,0.00868504
0.1,1.4,0,0.00937359
0.1,1.5,0,0.0100631
0.1,1.6,0,0.0107612
0.1,1.7,0,0.0114605
0.1,1.8,0,0.0121645
0.1,1.9,0,0.0128733
0.1,2,0,0.0135832
0.1,2.1,0,0.0143017
0.1,2.2,0,0.0150212
0.1,2.3,0,0.0157451
0.1,2.4,0,0.0164729
0.1,2.5,0,0.0172017
0.1,2.6,0,0.0179368
0.1,2.7,0,0.0186722
0.1,2.8,0,0.01941
0.1,2.9,0,0.0201494
0.1,3,0,0.0208893
0.1,3.1,0,0.0216299
0.1,3.2,0,0.0223697
0.1,3.3,0,0.0231082
0.1,3.4,0,0.0238439
0.1,3.5,0,0.0245793
0.1,3.6,0,0.025306
0.1,3.7,0,0.0260302
0.1,3.8,0,0.0267472
0.1,3.9,0,0.027455
0.1,4,0,0.0281611
0.1,4.1,0,0.0288454
0.1,4.2,0,0.0295251
0.1,4.3,0,0.0301899
0.1,4.4,0,0.0308372
0.1,4.5,0,0.0314809
0.1,4.6,0,0.0320867
0.1,4.7,0,0.0326857
0.1,4.8,0,0.0332606
0.1,4.9,0,0.0338209
0.1,5,0,0.0344115
0.1,5.1,0,0.0348634
0.1,5.2,0,0.0353168
0.1,5.3,0,0.0357741
0.1,5.4,0,0.0361774
0.1,5.5,0,0.0365596
0.1,5.6,0,0.0369229
0.1,5.7,0,0.0372252
0.1,5.8,0,0.0375045
0.1,5.9,0,0.0377625
0.1,6,0,0.0379541
0.1,6.1,0,0.0381215
0.1,6.2,0,0.0382656
0.1,6.3,0,0.03834
0.1,6.4,0,0.0383895
0.1,6.5,0,0.0384147
0.1,6.6,0,0.0383689
0.1,6.7,0,0.0382988
0.1,6.8,0,0.0382038
0.1,6.9,0,0.038039
0.1,7,0,0.0378509
0.1,7.1,0,0.0376385
0.1,7.2,0,0.0373596
0.1,7.3,0,0.0370592
0.1,7.4,0,0.0367356
0.1,7.5,0,0.0363509
0.1,7.6,0,0.035947
0.1,7.7,0,0.035522
0.1,7.8,0,0.0350427
0.1,7.9,0,0.0345743
0.1,8,0,0.0341145
0.1,8.1,0,0.0334797
0.1,8.2,0,0.0328971
0.1,8.3,0,0.0322944
0.1,8.4,0,0.0316741
0.1,8.5,0,0.031039
0.1,8.6,0,0.0303749
0.1,8.7,0,0.0297089
0.1,8.8,0,0.0290104
0.1,8.9,0,0.0283099
0.1,9,0,0.0275926
0.1,9.1,0,0.0268652
0.1,9.2,0,0.0261315
0.1,9.3,0,0.0253839
0.1,9.4,0,0.0246355
0.1,9.5,0,0.0238755
0.1,9.6,0,0.0231143
0.1,9.7,0,0.0223484
0.1,9.8,0,0.0215796
0.1,9.9,0,0.0208097
0.1,10,0,0.0200378
0.1,10.1,0,0.0192657
0.1,10.2,0,0.0184942
0.1,10.3,0,0.0177232
0.1,10.4,0,0.0169538
0.1,10.5,0,0.0161865
0.1,10.6,0,0.0154199
0.1,10.7,0,0.0146582
0.1,10.8,0,0.0138967
0.1,10.9,0,0.0131406
0.1,11,0,0.0123862
0.1,11.1,0,0.0116351
0.1,11.2,0,0.0108882
0.1,11.3,0,0.0101423
0.1,11.4,0,0.00940312
0.1,11.5,0,0.00866414
0.1,11.6,0,0.00793053
0.1,11.7,0,0.00719872
0.1,11.8,0,0.0064696
0.1,11.9,0,0.00574411
0.1,12,0,0.00501918
0.1,12.1,0,0.00429897
0.1,12.2,0,0.00357881
0.1,12.3,0,0.0028613
0.1,12.4,0,0.00214472
0.1,12.5,0,0.00142904
0.1,12.6,0,0.000787756
0.1,12.7,0,0.00025225
0.2,0,0,8.22984e-05
0.2,0.1,0,0.000658196
0.2,0.2,0,0.0013162
0.2,0.3,0,0.00197581
0.2,0.4,0,0.00263623
0.2,0.5,0,0.00329701
0.2,0.6,0,0.00396193
0.2,0.7,0,0.00462686
0.2,0.8,0,0.00529531
0.2,0.9,0,0.00596665
0.2,1,0,0.00663843
0.2,1.1,0,0.00731759
0.2,1.2,0,0.00799694
0.2,1.3,0,0.00868112
0.2,1.4,0,0.00936975
0.2,1.5,0,0.0100588
0.2,1.6,0,0.0107573
0.2,1.7,0,0.0114561
0.2,1.8,0,0.0121601
0.2,1.9,0,0.0128693
0.2,2,0,0.0135789
0.2,2.1,0,0.0142979
0.2,2.2,0,0.0150173
0.2,2.3,0,0.0157412
0.2,2.4,0,0.0164699
0.2,2.5,0,0.0171986
0.2,2.6,0,0.0179342
0.2,2.7,0,0.0186702
0.2,2.8,0,0.019408
0.2,2.9,0,0.0201487
0.2,3,0,0.020889
0.2,3.1,0,0.02163
0.2,3.2,0,0.0223715
0.2,3.3,0,0.0231099
0.2,3.4,0,0.0238473
0.2,3.5,0,0.0245836
0.2,3.6,0,0.0253106
0.2,3.7,0,0.0260376
0.2,3.8,0,0.0267546
0.2,3.9,0,0.0274642
0.2,4,0,0.028172
0.2,4.1,0,0.0288561
0.2,4.2,0,0.0295399
0.2,4.3,0,0.0302047
0.2,4.4,0,0.0308535
0.2,4.5,0,0.0314998
0.2,4.6,0,0.0321048
0.2,4.7,0,0.0327089
0.2,4.8,0,0.0332838
0.2,4.9,0,0.0338573
0.2,5,0,0.0344393
0.2,5.1,0,0.034893
0.2,5.2,0,0.0353495
0.2,5.3,0,0.0358064
0.2,5.4,0,0.0362024
0.2,5.5,0,0.0365875
0.2,5.6,0,0.0369594
0.2,5.7,0,0.0372534
0.2,5.8,0,0.0375349
0.2,5.9,0,0.0378023
0.2,6,0,0.0379848
0.2,6.1,0,0.0381535
0.2,6.2,0,0.0383074
0.2,6.3,0,0.0383721
0.2,6.4,0,0.0384222
0.2,6.5,0,0.0384573
0.2,6.6,0,0.0384016
0.2,6.7,0,0.0383309
0.2,6.8,0,0.0382457
0.2,6.9,0,0.0380711
0.2,7,0,0.0378817
0.2,7.1,0,0.0376785
0.2,7.2,0,0.0373901
0.2,7.3,0,0.0370875
0.2,7.4,0,0.0367724
0.2,7.5,0,0.0363789
0.2,7.6,0,0.0359723
0.2,7.7,0,0.0355546
0.2,7.8,0,0.0350785
0.2,7.9,0,0.0346071
0.2,8,0,0.0341426
0.2,8.1,0,0.0335222
0.2,8.2,0,0.0329208
0.2,8.3,0,0.0323176
0.2,8.4,0,0.0316941
0.2,8.5,0,0.0310588
0.2,8.6,0,0.0303918
0.2,8.7,0,0.0297248
0.2,8.8,0,0.029025
0.2,8.9,0,0.0283222
0.2,9,0,0.0276045
0.2,9.1,0,0.0268744
0.2,9.2,0,0.0261404
0.2,9.3,0,0.0253909
0.2,9.4,0,0.0246415
0.2,9.5,0,0.0238807
0.2,9.6,0,0.0231177
0.2,9.7,0,0.0223516
0.2,9.8,0,0.0215812
0.2,9.9,0,0.0208109
0.2,10,0,0.0200381
0.2,10.1,0,0.0192652
0.2,10.2,0,0.0184935
0.2,10.3,0,0.0177215
0.2,10.4,0,0.016952
0.2,10.5,0,0.016184
0.2,10.6,0,0.0154172
0.2,10.7,0,0.0146553
0.2,10.8,0,0.0138934
0.2,10.9,0,0.0131374
0.2,11,0,0.0123827
0.2,11.1,0,0.0116316
0.2,11.2,0,0.0108848
0.2,11.3,0,0.0101388
0.2,11.4,0,0.00939974
0.2,11.5,0,0.00866083
0.2,11.6,0,0.00792732
0.2,11.7,0,0.00719581
0.2,11.8,0,0.0064667
0.2,11.9,0,0.00574168
0.2,12,0,0.00501684
0.2,12.1,0,0.00429692
0.2,12.2,0,0.00357715
0.2,12.3,0,0.00285975
0.2,12.4,0,0.00214377
0.2,12.5,0,0.00142816
0.2,12.6,0,0.00071415
0.2,12.7,0,8.40834e-05
0.3,0,0,0
0.3,0.1,0,0.000657143
0.3,0.2,0,0.00131515
0.3,0.3,0,0.00197288
0.3,0.4,0,0.0026333
0.3,0.5,0,0.00329307
0.3,0.6,0,0.0039573
0.3,0.7,0,0.00462223
0.3,0.8,0,0.00528918
0.3,0.9,0,0.00596051
0.3,1,0,0.00663138
0.3,1.1,0,0.00731021
0.3,1.2,0,0.00798956
0.3,1.3,0,0.00867282
0.3,1.4,0,0.00936145
0.3,1.5,0,0.0100499
0.3,1.6,0,0.0107484
0.3,1.7,0,0.0114472
0.3,1.8,0,0.0121512
0.3,1.9,0,0.0128604
0.3,2,0,0.0135698
0.3,2.1,0,0.0142895
0.3,2.2,0,0.015009
0.3,2.3,0,0.015734
0.3,2.4,0,0.0164627
0.3,2.5,0,0.017192
0.3,2.6,0,0.0179289
0.3,2.7,0,0.0186649
0.3,2.8,0,0.0194055
0.3,2.9,0,0.0201462
0.3,3,0,0.0208881
0.3,3.1,0,0.0216312
0.3,3.2,0,0.0223727
0.3,3.3,0,0.0231158
0.3,3.4,0,0.0238531
0.3,3.5,0,0.0245925
0.3,3.6,0,0.0253221
0.3,3.7,0,0.0260492
0.3,3.8,0,0.0267727
0.3,3.9,0,0.0274823
0.3,4,0,0.0281946
0.3,4.1,0,0.0288817
0.3,4.2,0,0.0295655
0.3,4.3,0,0.0302383
0.3,4.4,0,0.0308872
0.3,4.5,0,0.031539
0.3,4.6,0,0.0321469
0.3,4.7,0,0.032751
0.3,4.8,0,0.0333346
0.3,4.9,0,0.0339081
0.3,5,0,0.0344968
0.3,5.1,0,0.0349532
0.3,5.2,0,0.0354096
0.3,5.3,0,0.0358735
0.3,5.4,0,0.0362718
0.3,5.5,0,0.0366568
0.3,5.6,0,0.0370352
0.3,5.7,0,0.0373304
0.3,5.8,0,0.0376118
0.3,5.9,0,0.0378848
0.3,6,0,0.038067
0.3,6.1,0,0.0382358
0.3,6.2,0,0.0383942
0.3,6.3,0,0.0384572
0.3,6.4,0,0.0385073
0.3,6.5,0,0.0385456
0.3,6.6,0,0.0384867
0.3,6.7,0,0.0384161
0.3,6.8,0,0.0383327
0.3,6.9,0,0.0381536
0.3,7,0,0.0379641
0.3,7.1,0,0.0377613
0.3,7.2,0,0.0374673
0.3,7.3,0,0.0371648
0.3,7.4,0,0.0368486
0.3,7.5,0,0.0364487
0.3,7.6,0,0.036042
0.3,7.7,0,0.0356222
0.3,7.8,0,0.0351391
0.3,7.9,0,0.0346677
0.3,8,0,0.0342008
0.3,8.1,0,0.0335737
0.3,8.2,0,0.0329718
0.3,8.3,0,0.0323611
0.3,8.4,0,0.0317376
0.3,8.5,0,0.0310964
0.3,8.6,0,0.0304275
0.3,8.7,0,0.029758
0.3,8.8,0,0.029053
0.3,8.9,0,0.0283498
0.3,9,0,0.0276255
0.3,9.1,0,0.0268954
0.3,9.2,0,0.0261567
0.3,9.3,0,0.0254056
0.3,9.4,0,0.0246541
0.3,9.5,0,0.0238897
0.3,9.6,0,0.0231266
0.3,9.7,0,0.022356
0.3,9.8,0,0.0215855
0.3,9.9,0,0.0208125
0.3,10,0,0.0200386
0.3,10.1,0,0.0192646
0.3,10.2,0,0.018491
0.3,10.3,0,0.017719
0.3,10.4,0,0.0169474
0.3,10.5,0,0.0161794
0.3,10.6,0,0.0154114
0.3,10.7,0,0.0146492
0.3,10.8,0,0.0138869
0.3,10.9,0,0.0131304
0.3,11,0,0.0123757
0.3,11.1,0,0.0116244
0.3,11.2,0,0.0108776
0.3,11.3,0,0.0101314
0.3,11.4,0,0.00939281
0.3,11.5,0,0.0086539
0.3,11.6,0,0.00792103
0.3,11.7,0,0.00718952
0.3,11.8,0,0.00646128
0.3,11.9,0,0.00573637
0.3,12,0,0.00501203
0.3,12.1,0,0.00429286
0.3,12.2,0,0.00357331
0.3,12.3,0,0.00285716
0.3,12.4,0,0.00214118
0.3,12.5,0,0.001427
0.3,12.6,0,0.00071322
0.3,12.7,0,0
0.4,0,0,0
0.4,0.1,0,0.000656283
0.4,0.2,0,0.001312
0.4,0.3,0,0.00196973
0.4,0.4,0,0.00262796
0.4,0.5,0,0.00328708
0.4,0.6,0,0.0039506
0.4,0.7,0,0.0046137
0.4,0.8,0,0.00528065
0.4,0.9,0,0.00595027
0.4,1,0,0.00662066
0.4,1.1,0,0.00729898
0.4,1.2,0,0.0079771
0.4,1.3,0,0.00866036
0.4,1.4,0,0.00934802
0.4,1.5,0,0.0100362
0.4,1.6,0,0.0107346
0.4,1.7,0,0.0114331
0.4,1.8,0,0.012137
0.4,1.9,0,0.0128464
0.4,2,0,0.013556
0.4,2.1,0,0.014276
0.4,2.2,0,0.0149965
0.4,2.3,0,0.0157215
0.4,2.4,0,0.0164519
0.4,2.5,0,0.0171819
0.4,2.6,0,0.0179196
0.4,2.7,0,0.0186585
0.4,2.8,0,0.0193991
0.4,2.9,0,0.0201435
0.4,3,0,0.0208868
0.4,3.1,0,0.0216315
0.4,3.2,0,0.0223779
0.4,3.3,0,0.023121
0.4,3.4,0,0.0238645
0.4,3.5,0,0.0246059
0.4,3.6,0,0.0253379
0.4,3.7,0,0.0260722
0.4,3.8,0,0.0267957
0.4,3.9,0,0.0275138
0.4,4,0,0.0282287
0.4,4.1,0,0.028919
0.4,4.2,0,0.0296119
0.4,4.3,0,0.0302847
0.4,4.4,0,0.0309437
0.4,4.5,0,0.0315985
0.4,4.6,0,0.0322101
0.4,4.7,0,0.032824
0.4,4.8,0,0.0334076
0.4,4.9,0,0.0339799
0.4,5,0,0.0345839
0.4,5.1,0,0.0350402
0.4,5.2,0,0.0355065
0.4,5.3,0,0.0359753
0.4,5.4,0,0.0363824
0.4,5.5,0,0.0367763
0.4,5.6,0,0.0371503
0.4,5.7,0,0.0374545
0.4,5.8,0,0.0377428
0.4,5.9,0,0.0380101
0.4,6,0,0.0382013
0.4,6.1,0,0.0383744
0.4,6.2,0,0.038526
0.4,6.3,0,0.0385976
0.4,6.4,0,0.0386491
0.4,6.5,0,0.0386796
0.4,6.6,0,0.0386286
0.4,6.7,0,0.0385566
0.4,6.8,0,0.0384646
0.4,6.9,0,0.0382924
0.4,7,0,0.0380988
0.4,7.1,0,0.0378869
0.4,7.2,0,0.0375987
0.4,7.3,0,0.0372895
0.4,7.4,0,0.0369642
0.4,7.5,0,0.0365687
0.4,7.6,0,0.0361534
0.4,7.7,0,0.0357247
0.4,7.8,0,0.0352338
0.4,7.9,0,0.0347528
0.4,8,0,0.0342889
0.4,8.1,0,0.0336397
0.4,8.2,0,0.0330466
0.4,8.3,0,0.0324343
0.4,8.4,0,0.0318008
0.4,8.5,0,0.0311586
0.4,8.6,0,0.030481
0.4,8.7,0,0.029808
0.4,8.8,0,0.0290992
0.4,8.9,0,0.0283882
0.4,9,0,0.027663
0.4,9.1,0,0.0269244
0.4,9.2,0,0.0261845
0.4,9.3,0,0.0254275
0.4,9.4,0,0.0246725
0.4,9.5,0,0.023906
0.4,9.6,0,0.0231369
0.4,9.7,0,0.0223659
0.4,9.8,0,0.0215902
0.4,9.9,0,0.020816
0.4,10,0,0.0200393
0.4,10.1,0,0.0192628
0.4,10.2,0,0.0184884
0.4,10.3,0,0.0177132
0.4,10.4,0,0.0169415
0.4,10.5,0,0.0161713
0.4,10.6,0,0.0154026
0.4,10.7,0,0.0146398
0.4,10.8,0,0.0138764
0.4,10.9,0,0.0131199
0.4,11,0,0.0123645
0.4,11.1,0,0.011613
0.4,11.2,0,0.0108664
0.4,11.3,0,0.0101201
0.4,11.4,0,0.00938199
0.4,11.5,0,0.00864333
0.4,11.6,0,0.00791074
0.4,11.7,0,0.00718022
0.4,11.8,0,0.00645203
0.4,11.9,0,0.00572857
0.4,12,0,0.00500458
0.4,12.1,0,0.00428629
0.4,12.2,0,0.00356802
0.4,12.3,0,0.0028522
0.4,12.4,0,0.00213817
0.4,12.5,0,0.00142421
0.4,12.6,0,0.000712312
0.4,12.7,0,0
0.5,0,0,0
0.5,0.1,0,0.000654852
0.5,0.2,0,0.0013097
0.5,0.3,0,0.00196592
0.5,0.4,0,0.0026235
0.5,0.5,0,0.00328109
0.5,0.6,0,0.00394348
0.5,0.7,0,0.00460587
0.5,0.8,0,0.00527164
0.5,0.9,0,0.00594079
0.5,1,0,0.00660994
0.5,1.1,0,0.00728755
0.5,1.2,0,0.00796516
0.5,1.3,0,0.00864769
0.5,1.4,0,0.00933514
0.5,1.5,0,0.0100226
0.5,1.6,0,0.0107209
0.5,1.7,0,0.0114192
0.5,1.8,0,0.0121231
0.5,1.9,0,0.0128327
0.5,2,0,0.0135422
0.5,2.1,0,0.014263
0.5,2.2,0,0.0149837
0.5,2.3,0,0.0157096
0.5,2.4,0,0.0164407
0.5,2.5,0,0.0171718
0.5,2.6,0,0.0179115
0.5,2.7,0,0.0186512
0.5,2.8,0,0.019394
0.5,2.9,0,0.0201397
0.5,3,0,0.0208854
0.5,3.1,0,0.0216335
0.5,3.2,0,0.0223816
0.5,3.3,0,0.0231283
0.5,3.4,0,0.0238738
0.5,3.5,0,0.0246192
0.5,3.6,0,0.025356
0.5,3.7,0,0.0260927
0.5,3.8,0,0.0268214
0.5,3.9,0,0.0275421
0.5,4,0,0.0282628
0.5,4.1,0,0.0289589
0.5,4.2,0,0.029655
0.5,4.3,0,0.030334
0.5,4.4,0,0.030996
0.5,4.5,0,0.0316579
0.5,4.6,0,0.0322756
0.5,4.7,0,0.0328932
0.5,4.8,0,0.0334958
0.5,4.9,0,0.0340834
0.5,5,0,0.034671
0.5,5.1,0,0.0351397
0.5,5.2,0,0.0356084
0.5,5.3,0,0.036077
0.5,5.4,0,0.0364731
0.5,5.5,0,0.0368692
0.5,5.6,0,0.0372653
0.5,5.7,0,0.0375553
0.5,5.8,0,0.0378453
0.5,5.9,0,0.0381353
0.5,6,0,0.0383095
0.5,6.1,0,0.0384836
0.5,6.2,0,0.0386577
0.5,6.3,0,0.0387097
0.5,6.4,0,0.0387617
0.5,6.5,0,0.0388137
0.5,6.6,0,0.0387413
0.5,6.7,0,0.0386689
0.5,6.8,0,0.0385966
0.5,6.9,0,0.0384019
0.5,7,0,0.0382072
0.5,7.1,0,0.0380125
0.5,7.2,0,0.0377016
0.5,7.3,0,0.0373907
0.5,7.4,0,0.0370798
0.5,7.5,0,0.0366622
0.5,7.6,0,0.0362447
0.5,7.7,0,0.0358272
0.5,7.8,0,0.0353438
0.5,7.9,0,0.0348604
0.5,8,0,0.0343771
0.5,8.1,0,0.0337572
0.5,8.2,0,0.0331372
0.5,8.3,0,0.0325063
0.5,8.4,0,0.0318694
0.5,8.5,0,0.0312194
0.5,8.6,0,0.0305389
0.5,8.7,0,0.0298584
0.5,8.8,0,0.0291449
0.5,8.9,0,0.0284296
0.5,9,0,0.0276987
0.5,9.1,0,0.0269573
0.5,9.2,0,0.0262112
0.5,9.3,0,0.0254513
0.5,9.4,0,0.0246914
0.5,9.5,0,0.023921
0.5,9.6,0,0.0231493
0.5,9.7,0,0.0223744
0.5,9.8,0,0.0215968
0.5,9.9,0,0.020819
0.5,10,0,0.0200402
0.5,10.1,0,0.0192614
0.5,10.2,0,0.0184847
0.5,10.3,0,0.0177084
0.5,10.4,0,0.0169347
0.5,10.5,0,0.0161637
0.5,10.6,0,0.0153937
0.5,10.7,0,0.0146298
0.5,10.8,0,0.013866
0.5,10.9,0,0.0131087
0.5,11,0,0.0123532
0.5,11.1,0,0.0116016
0.5,11.2,0,0.0108548
0.5,11.3,0,0.0101089
0.5,11.4,0,0.00937072
0.5,11.5,0,0.00863258
0.5,11.6,0,0.00790046
0.5,11.7,0,0.00717036
0.5,11.8,0,0.00644306
0.5,11.9,0,0.00571997
0.5,12,0,0.00499717
0.5,12.1,0,0.00427976
0.5,12.2,0,0.00356235
0.5,12.3,0,0.00284779
0.5,12.4,0,0.00213446
0.5,12.5,0,0.00142196
0.5,12.6,0,0.000710978
0.5,12.7,0,0
0.6,0,0,0
0.6,0.1,0,0.000651739
0.6,0.2,0,0.00130538
0.6,0.3,0,0.00195903
0.6,0.4,0,0.00261527
0.6,0.5,0,0.00327054
0.6,0.6,0,0.00393052
0.6,0.7,0,0.00459186
0.6,0.8,0,0.00525553
0.6,0.9,0,0.00592364
0.6,1,0,0.00659096
0.6,1.1,0,0.00726688
0.6,1.2,0,0.00794376
0.6,1.3,0,0.00862497
0.6,1.4,0,0.00931182
0.6,1.5,0,0.00999832
0.6,1.6,0,0.010696
0.6,1.7,0,0.0113941
0.6,1.8,0,0.0120979
0.6,1.9,0,0.0128075
0.6,2,0,0.0135174
0.6,2.1,0,0.014239
0.6,2.2,0,0.0149603
0.6,2.3,0,0.0156878
0.6,2.4,0,0.0164198
0.6,2.5,0,0.0171531
0.6,2.6,0,0.0178958
0.6,2.7,0,0.0186372
0.6,2.8,0,0.0193836
0.6,2.9,0,0.0201315
0.6,3,0,0.0208817
0.6,3.1,0,0.0216353
0.6,3.2,0,0.0223863
0.6,3.3,0,0.0231394
0.6,3.4,0,0.0238884
0.6,3.5,0,0.024641
0.6,3.6,0,0.0253862
0.6,3.7,0,0.0261271
0.6,3.8,0,0.0268649
0.6,3.9,0,0.0275905
0.6,4,0,0.0283208
0.6,4.1,0,0.0290278
0.6,4.2,0,0.0297292
0.6,4.3,0,0.0304195
0.6,4.4,0,0.0310873
0.6,4.5,0,0.0317606
0.6,4.6,0,0.0323905
0.6,4.7,0,0.033014
0.6,4.8,0,0.0336162
0.6,4.9,0,0.0341976
0.6,5,0,0.0348224
0.6,5.1,0,0.0352948
0.6,5.2,0,0.0357678
0.6,5.3,0,0.0362543
0.6,5.4,0,0.0366768
0.6,5.5,0,0.0370767
0.6,5.6,0,0.0374659
0.6,5.7,0,0.0377822
0.6,5.8,0,0.0380752
0.6,5.9,0,0.0383541
0.6,6,0,0.0385532
0.6,6.1,0,0.0387293
0.6,6.2,0,0.038888
0.6,6.3,0,0.0389626
0.6,6.4,0,0.0390153
0.6,6.5,0,0.039048
0.6,6.6,0,0.038995
0.6,6.7,0,0.038922
0.6,6.8,0,0.0388272
0.6,6.9,0,0.0386481
0.6,7,0,0.0384516
0.6,7.1,0,0.038232
0.6,7.2,0,0.0379324
0.6,7.3,0,0.0376185
0.6,7.4,0,0.0372814
0.6,7.5,0,0.036871
0.6,7.6,0,0.0364496
0.6,7.7,0,0.0360057
0.6,7.8,0,0.0354973
0.6,7.9,0,0.0350097
0.6,8,0,0.0345304
0.6,8.1,0,0.0338612
0.6,8.2,0,0.0332575
0.6,8.3,0,0.0326266
0.6,8.4,0,0.0319833
0.6,8.5,0,0.0313229
0.6,8.6,0,0.0306336
0.6,8.7,0,0.0299447
0.6,8.8,0,0.0292189
0.6,8.9,0,0.0284988
0.6,9,0,0.0277575
0.6,9.1,0,0.0270106
0.6,9.2,0,0.0262557
0.6,9.3,0,0.0254891
0.6,9.4,0,0.0247226
0.6,9.5,0,0.0239442
0.6,9.6,0,0.0231688
0.6,9.7,0,0.0223872
0.6,9.8,0,0.0216063
0.6,9.9,0,0.0208227
0.6,10,0,0.0200403
0.6,10.1,0,0.0192576
0.6,10.2,0,0.0184773
0.6,10.3,0,0.0176989
0.6,10.4,0,0.0169221
0.6,10.5,0,0.0161498
0.6,10.6,0,0.0153772
0.6,10.7,0,0.0146124
0.6,10.8,0,0.0138471
0.6,10.9,0,0.0130893
0.6,11,0,0.0123333
0.6,11.1,0,0.0115813
0.6,11.2,0,0.0108348
0.6,11.3,0,0.0100887
0.6,11.4,0,0.0093515
0.6,11.5,0,0.00861357
0.6,11.6,0,0.00788277
0.6,11.7,0,0.0071533
0.6,11.8,0,0.00642735
0.6,11.9,0,0.00570535
0.6,12,0,0.00498402
0.6,12.1,0,0.0042686
0.6,12.2,0,0.00355241
0.6,12.3,0,0.00284007
0.6,12.4,0,0.00212799
0.6,12.5,0,0.00141785
0.6,12.6,0,0.000708266
0.6,12.7,0,0
0.7,0,0,0
0.7,0.1,0,0.000650528
0.7,0.2,0,0.00129985
0.7,0.3,0,0.0019535
0.7,0.4,0,0.00260607
0.7,0.5,0,0.00325999
0.7,0.6,0,0.00391892
0.7,0.7,0,0.00457679
0.7,0.8,0,0.00524047
0.7,0.9,0,0.0059057
0.7,1,0,0.00657199
0.7,1.1,0,0.00724718
0.7,1.2,0,0.00792165
0.7,1.3,0,0.00860285
0.7,1.4,0,0.00928814
0.7,1.5,0,0.00997403
0.7,1.6,0,0.0106715
0.7,1.7,0,0.0113688
0.7,1.8,0,0.0120726
0.7,1.9,0,0.0127826
0.7,2,0,0.0134925
0.7,2.1,0,0.0142147
0.7,2.2,0,0.0149376
0.7,2.3,0,0.015665
0.7,2.4,0,0.0164001
0.7,2.5,0,0.0171343
0.7,2.6,0,0.0178787
0.7,2.7,0,0.0186247
0.7,2.8,0,0.0193712
0.7,2.9,0,0.0201256
0.7,3,0,0.020878
0.7,3.1,0,0.0216345
0.7,3.2,0,0.0223939
0.7,3.3,0,0.0231471
0.7,3.4,0,0.0239066
0.7,3.5,0,0.0246627
0.7,3.6,0,0.0254121
0.7,3.7,0,0.0261657
0.7,3.8,0,0.0269035
0.7,3.9,0,0.0276436
0.7,4,0,0.0283788
0.7,4.1,0,0.0290911
0.7,4.2,0,0.0298088
0.7,4.3,0,0.030499
0.7,4.4,0,0.0311841
0.7,4.5,0,0.0318632
0.7,4.6,0,0.032499
0.7,4.7,0,0.0331405
0.7,4.8,0,0.0337427
0.7,4.9,0,0.0343552
0.7,5,0,0.0349739
0.7,5.1,0,0.0354534
0.7,5.2,0,0.0359436
0.7,5.3,0,0.0364316
0.7,5.4,0,0.0368513
0.7,5.5,0,0.0372668
0.7,5.6,0,0.0376665
0.7,5.7,0,0.0379784
0.7,5.8,0,0.0382835
0.7,5.9,0,0.0385728
0.7,6,0,0.0387658
0.7,6.1,0,0.0389495
0.7,6.2,0,0.0391183
0.7,6.3,0,0.0391852
0.7,6.4,0,0.0392405
0.7,6.5,0,0.0392823
0.7,6.6,0,0.0392203
0.7,6.7,0,0.0391449
0.7,6.8,0,0.0390578
0.7,6.9,0,0.0388687
0.7,7,0,0.0386647
0.7,7.1,0,0.0384514
0.7,7.2,0,0.0381413
0.7,7.3,0,0.0378156
0.7,7.4,0,0.037483
0.7,7.5,0,0.037062
0.7,7.6,0,0.0366253
0.7,7.7,0,0.0361843
0.7,7.8,0,0.0356774
0.7,7.9,0,0.0351731
0.7,8,0,0.0346838
0.7,8.1,0,0.0340259
0.7,8.2,0,0.0333873
0.7,8.3,0,0.0327548
0.7,8.4,0,0.0320942
0.7,8.5,0,0.0314305
0.7,8.6,0,0.0307285
0.7,8.7,0,0.0300306
0.7,8.8,0,0.0293003
0.7,8.9,0,0.0285643
0.7,9,0,0.0278219
0.7,9.1,0,0.0270606
0.7,9.2,0,0.0263026
0.7,9.3,0,0.0255269
0.7,9.4,0,0.0247531
0.7,9.5,0,0.0239716
0.7,9.6,0,0.0231852
0.7,9.7,0,0.0224031
0.7,9.8,0,0.0216131
0.7,9.9,0,0.0208274
0.7,10,0,0.0200401
0.7,10.1,0,0.0192531
0.7,10.2,0,0.0184712
0.7,10.3,0,0.0176876
0.7,10.4,0,0.0169106
0.7,10.5,0,0.0161344
0.7,10.6,0,0.0153609
0.7,10.7,0,0.0145946
0.7,10.8,0,0.0138279
0.7,10.9,0,0.0130697
0.7,11,0,0.0123128
0.7,11.1,0,0.0115608
0.7,11.2,0,0.0108142
0.7,11.3,0,0.0100683
0.7,11.4,0,0.00933156
0.7,11.5,0,0.00859464
0.7,11.6,0,0.0078641
0.7,11.7,0,0.00713657
0.7,11.8,0,0.00641084
0.7,11.9,0,0.00569111
0.7,12,0,0.00497076
0.7,12.1,0,0.00425669
0.7,12.2,0,0.00354304
0.7,12.3,0,0.00283125
0.7,12.4,0,0.00212263
0.7,12.5,0,0.00141291
0.7,12.6,0,0.000706838
0.7,12.7,0,0
0.8,0,0,0
0.8,0.1,0,0.000646981
0.8,0.2,0,0.0012963
0.8,0.3,0,0.00194353
0.8,0.4,0,0.0025961
0.8,0.5,0,0.003247
0.8,0.6,0,0.00390308
0.8,0.7,0,0.00456095
0.8,0.8,0,0.0052194
0.8,0.9,0,0.00588464
0.8,1,0,0.00654853
0.8,1.1,0,0.00722171
0.8,1.2,0,0.00789618
0.8,1.3,0,0.00857403
0.8,1.4,0,0.00925931
0.8,1.5,0,0.00994385
0.8,1.6,0,0.0106406
0.8,1.7,0,0.0113379
0.8,1.8,0,0.0120411
0.8,1.9,0,0.0127511
0.8,2,0,0.0134613
0.8,2.1,0,0.0141847
0.8,2.2,0,0.0149075
0.8,2.3,0,0.0156385
0.8,2.4,0,0.0163737
0.8,2.5,0,0.0171102
0.8,2.6,0,0.0178583
0.8,2.7,0,0.0186042
0.8,2.8,0,0.0193597
0.8,2.9,0,0.0201142
0.8,3,0,0.0208716
0.8,3.1,0,0.0216351
0.8,3.2,0,0.0223945
0.8,3.3,0,0.0231631
0.8,3.4,0,0.0239226
0.8,3.5,0,0.0246872
0.8,3.6,0,0.025447
0.8,3.7,0,0.0262006
0.8,3.8,0,0.0269606
0.8,3.9,0,0.0277006
0.8,4,0,0.0284475
0.8,4.1,0,0.0291733
0.8,4.2,0,0.029891
0.8,4.3,0,0.0306088
0.8,4.4,0,0.0312938
0.8,4.5,0,0.0319868
0.8,4.6,0,0.0326378
0.8,4.7,0,0.0332793
0.8,4.8,0,0.033911
0.8,4.9,0,0.0345235
0.8,5,0,0.0351577
0.8,5.1,0,0.0356534
0.8,5.2,0,0.0361436
0.8,5.3,0,0.0366473
0.8,5.4,0,0.0370827
0.8,5.5,0,0.0374982
0.8,5.6,0,0.0379112
0.8,5.7,0,0.0382357
0.8,5.8,0,0.0385408
0.8,5.9,0,0.0388399
0.8,6,0,0.0390417
0.8,6.1,0,0.0392254
0.8,6.2,0,0.0393996
0.8,6.3,0,0.0394708
0.8,6.4,0,0.0395261
0.8,6.5,0,0.0395686
0.8,6.6,0,0.0395061
0.8,6.7,0,0.0394307
0.8,6.8,0,0.0393395
0.8,6.9,0,0.0391452
0.8,7,0,0.0389412
0.8,7.1,0,0.0387192
0.8,7.2,0,0.0383997
0.8,7.3,0,0.0380739
0.8,7.4,0,0.0377288
0.8,7.5,0,0.0372948
0.8,7.6,0,0.0368581
0.8,7.7,0,0.0364015
0.8,7.8,0,0.0358792
0.8,7.9,0,0.0353748
0.8,8,0,0.0348699
0.8,8.1,0,0.0341972
0.8,8.2,0,0.0335549
0.8,8.3,0,0.0328987
0.8,8.4,0,0.0322381
0.8,8.5,0,0.0315518
0.8,8.6,0,0.0308452
0.8,8.7,0,0.030135
0.8,8.8,0,0.0293911
0.8,8.9,0,0.0286531
0.8,9,0,0.0278887
0.8,9.1,0,0.0271274
0.8,9.2,0,0.0263525
0.8,9.3,0,0.0255722
0.8,9.4,0,0.0247903
0.8,9.5,0,0.0239983
0.8,9.6,0,0.0232115
0.8,9.7,0,0.0224142
0.8,9.8,0,0.0216242
0.8,9.9,0,0.020829
0.8,10,0,0.0200386
0.8,10.1,0,0.0192477
0.8,10.2,0,0.01846
0.8,10.3,0,0.0176763
0.8,10.4,0,0.0168924
0.8,10.5,0,0.0161162
0.8,10.6,0,0.0153393
0.8,10.7,0,0.0145718
0.8,10.8,0,0.0138041
0.8,10.9,0,0.0130446
0.8,11,0,0.0122877
0.8,11.1,0,0.0115351
0.8,11.2,0,0.0107886
0.8,11.3,0,0.010043
0.8,11.4,0,0.00930699
0.8,11.5,0,0.00857051
0.8,11.6,0,0.00784199
0.8,11.7,0,0.00711446
0.8,11.8,0,0.006392
0.8,11.9,0,0.00567257
0.8,12,0,0.00495454
0.8,12.1,0,0.00424262
0.8,12.2,0,0.00352987
0.8,12.3,0,0.00282234
0.8,12.4,0,0.00211372
0.8,12.5,0,0.00140898
0.8,12.6,0,0.000703654
0.8,12.7,0,0
0.9,0,0,0
0.9,0.1,0,0.000644646
0.9,0.2,0,0.00128824
0.9,0.3,0,0.00193547
0.9,0.4,0,0.00258234
0.9,0.5,0,0.00323159
0.9,0.6,0,0.00388586
0.9,0.7,0,0.00453886
0.9,0.8,0,0.0051973
0.9,0.9,0,0.00585805
0.9,1,0,0.0065206
0.9,1.1,0,0.00719248
0.9,1.2,0,0.00786349
0.9,1.3,0,0.00854134
0.9,1.4,0,0.00922397
0.9,1.5,0,0.00990775
0.9,1.6,0,0.010604
0.9,1.7,0,0.0113
0.9,1.8,0,0.0120033
0.9,1.9,0,0.0127134
0.9,2,0,0.0134236
0.9,2.1,0,0.0141477
0.9,2.2,0,0.0148725
0.9,2.3,0,0.0156035
0.9,2.4,0,0.0163427
0.9,2.5,0,0.0170805
0.9,2.6,0,0.0178307
0.9,2.7,0,0.0185832
0.9,2.8,0,0.0193386
0.9,2.9,0,0.0201022
0.9,3,0,0.0208627
0.9,3.1,0,0.0216302
0.9,3.2,0,0.0224016
0.9,3.3,0,0.0231701
0.9,3.4,0,0.0239449
0.9,3.5,0,0.0247144
0.9,3.6,0,0.0254804
0.9,3.7,0,0.026252
0.9,3.8,0,0.0270119
0.9,3.9,0,0.0277732
0.9,4,0,0.0285268
0.9,4.1,0,0.0292609
0.9,4.2,0,0.0300016
0.9,4.3,0,0.0307194
0.9,4.4,0,0.0314304
0.9,4.5,0,0.0321312
0.9,4.6,0,0.0327917
0.9,4.7,0,0.0334588
0.9,4.8,0,0.0340905
0.9,4.9,0,0.034718
0.9,5,0,0.0353738
0.9,5.1,0,0.0358732
0.9,5.2,0,0.0363888
0.9,5.3,0,0.0369014
0.9,5.4,0,0.03735
0.9,5.5,0,0.0377886
0.9,5.6,0,0.0381997
0.9,5.7,0,0.0385372
0.9,5.8,0,0.0388602
0.9,5.9,0,0.0391552
0.9,6,0,0.039369
0.9,6.1,0,0.0395641
0.9,6.2,0,0.0397319
0.9,6.3,0,0.0398137
0.9,6.4,0,0.039873
0.9,6.5,0,0.0399069
0.9,6.6,0,0.0398531
0.9,6.7,0,0.039774
0.9,6.8,0,0.0396723
0.9,6.9,0,0.0394844
0.9,7,0,0.0392694
0.9,7.1,0,0.0390355
0.9,7.2,0,0.0387201
0.9,7.3,0,0.0383768
0.9,7.4,0,0.0380187
0.9,7.5,0,0.0375866
0.9,7.6,0,0.0371272
0.9,7.7,0,0.0366575
0.9,7.8,0,0.0361232
0.9,7.9,0,0.0355941
0.9,8,0,0.0350887
0.9,8.1,0,0.0343861
0.9,8.2,0,0.0337391
0.9,8.3,0,0.0330795
0.9,8.4,0,0.0323933
0.9,8.5,0,0.0317034
0.9,8.6,0,0.0309761
0.9,8.7,0,0.0302548
0.9,8.8,0,0.0295029
0.9,8.9,0,0.0287433
0.9,9,0,0.0279769
0.9,9.1,0,0.0271945
0.9,9.2,0,0.0264157
0.9,9.3,0,0.0256216
0.9,9.4,0,0.0248298
0.9,9.5,0,0.0240332
0.9,9.6,0,0.0232309
0.9,9.7,0,0.0224329
0.9,9.8,0,0.0216302
0.9,9.9,0,0.020832
0.9,10,0,0.020035
0.9,10.1,0,0.0192377
0.9,10.2,0,0.0184483
0.9,10.3,0,0.0176569
0.9,10.4,0,0.0168728
0.9,10.5,0,0.0160917
0.9,10.6,0,0.0153132
0.9,10.7,0,0.0145442
0.9,10.8,0,0.0137742
0.9,10.9,0,0.0130146
0.9,11,0,0.0122565
0.9,11.1,0,0.0115038
0.9,11.2,0,0.0107579
0.9,11.3,0,0.0100123
0.9,11.4,0,0.00927749
0.9,11.5,0,0.00854214
0.9,11.6,0,0.00781429
0.9,11.7,0,0.00708964
0.9,11.8,0,0.0063674
0.9,11.9,0,0.00565172
0.9,12,0,0.00493487
0.9,12.1,0,0.00422513
0.9,12.2,0,0.00351604
0.9,12.3,0,0.00280927
0.9,12.4,0,0.0021058
0.9,12.5,0,0.00140172
0.9,12.6,0,0.000701121
0.9,12.7,0,0
1,0,0,0
1,0.1,0,0.00064126
1,0.2,0,0.00128252
1,0.3,0,0.00192575
1,0.4,0,0.00257096
1,0.5,0,0.00321617
1,0.6,0,0.00386737
1,0.7,0,0.00451856
1,0.8,0,0.00517386
1,0.9,0,0.00583326
1,1,0,0.00649267
1,1.1,0,0.00716238
1,1.2,0,0.0078321
1,1.3,0,0.0085079
1,1.4,0,0.00918978
1,1.5,0,0.00987166
1,1.6,0,0.0105672
1,1.7,0,0.0112627
1,1.8,0,0.0119656
1,1.9,0,0.0126758
1,2,0,0.013386
1,2.1,0,0.0141115
1,2.2,0,0.0148369
1,2.3,0,0.0155699
1,2.4,0,0.0163104
1,2.5,0,0.0170509
1,2.6,0,0.0178055
1,2.7,0,0.01856
1,2.8,0,0.0193206
1,2.9,0,0.0200872
1,3,0,0.0208538
1,3.1,0,0.0216292
1,3.2,0,0.0224046
1,3.3,0,0.0231822
1,3.4,0,0.0239619
1,3.5,0,0.0247416
1,3.6,0,0.0255193
1,3.7,0,0.0262971
1,3.8,0,0.02707
1,3.9,0,0.0278381
1,4,0,0.0286062
1,4.1,0,0.0293551
1,4.2,0,0.0301041
1,4.3,0,0.030838
1,4.4,0,0.0315568
1,4.5,0,0.0322757
1,4.6,0,0.0329523
1,4.7,0,0.0336289
1,4.8,0,0.0342917
1,4.9,0,0.0349408
1,5,0,0.0355899
1,5.1,0,0.0361118
1,5.2,0,0.0366337
1,5.3,0,0.0371555
1,5.4,0,0.0375998
1,5.5,0,0.0380441
1,5.6,0,0.0384883
1,5.7,0,0.0388158
1,5.8,0,0.0391432
1,5.9,0,0.0394706
1,6,0,0.0396685
1,6.1,0,0.0398664
1,6.2,0,0.0400643
1,6.3,0,0.0401246
1,6.4,0,0.040185
1,6.5,0,0.0402453
1,6.6,0,0.0401652
1,6.7,0,0.0400852
1,6.8,0,0.0400051
1,6.9,0,0.0397873
1,7,0,0.0395696
1,7.1,0,0.0393518
1,7.2,0,0.0390041
1,7.3,0,0.0386564
1,7.4,0,0.0383087
1,7.5,0,0.0378436
1,7.6,0,0.0373785
1,7.7,0,0.0369134
1,7.8,0,0.0363781
1,7.9,0,0.0358429
1,8,0,0.0353076
1,8.1,0,0.0346258
1,8.2,0,0.033944
1,8.3,0,0.0332534
1,8.4,0,0.0325581
1,8.5,0,0.0318502
1,8.6,0,0.0311129
1,8.7,0,0.0303756
1,8.8,0,0.0296086
1,8.9,0,0.0288401
1,9,0,0.0280588
1,9.1,0,0.0272689
1,9.2,0,0.0264758
1,9.3,0,0.0256732
1,9.4,0,0.0248706
1,9.5,0,0.0240632
1,9.6,0,0.0232552
1,9.7,0,0.0224475
1,9.8,0,0.02164
1,9.9,0,0.0208335
1,10,0,0.0200312
1,10.1,0,0.0192288
1,10.2,0,0.0184336
1,10.3,0,0.0176397
1,10.4,0,0.0168512
1,10.5,0,0.0160681
1,10.6,0,0.0152867
1,10.7,0,0.0145157
1,10.8,0,0.0137446
1,10.9,0,0.0129837
1,11,0,0.0122252
1,11.1,0,0.0114724
1,11.2,0,0.0107265
1,11.3,0,0.00998168
1,11.4,0,0.00924751
1,11.5,0,0.00851334
1,11.6,0,0.00778715
1,11.7,0,0.00706362
1,11.8,0,0.00634375
1,11.9,0,0.00562936
1,12,0,0.00491534
1,12.1,0,0.00420829
1,12.2,0,0.00350124
1,12.3,0,0.00279799
1,12.4,0,0.00209635
1,12.5,0,0.00139599
1,12.6,0,0.000697997
1,12.7,0,0
1.1,0,0,0
1.1,0.1,0,0.000634859
1.1,0.2,0,0.00127394
1.1,0.3,0,0.00191225
1.1,0.4,0,0.00255471
1.1,0.5,0,0.00319552
1.1,0.6,0,0.00384178
1.1,0.7,0,0.00449091
1.1,0.8,0,0.00514196
1.1,0.9,0,0.00579917
1.1,1,0,0.00645493
1.1,1.1,0,0.00712097
1.1,1.2,0,0.00778919
1.1,1.3,0,0.00846208
1.1,1.4,0,0.00914256
1.1,1.5,0,0.00982224
1.1,1.6,0,0.0105161
1.1,1.7,0,0.011211
1.1,1.8,0,0.011913
1.1,1.9,0,0.012623
1.1,2,0,0.0133332
1.1,2.1,0,0.0140599
1.1,2.2,0,0.0147861
1.1,2.3,0,0.0155213
1.1,2.4,0,0.0162634
1.1,2.5,0,0.0170069
1.1,2.6,0,0.0177668
1.1,2.7,0,0.0185238
1.1,2.8,0,0.0192908
1.1,2.9,0,0.0200614
1.1,3,0,0.0208351
1.1,3.1,0,0.0216213
1.1,3.2,0,0.0224015
1.1,3.3,0,0.0231907
1.1,3.4,0,0.0239773
1.1,3.5,0,0.0247689
1.1,3.6,0,0.0255637
1.1,3.7,0,0.0263486
1.1,3.8,0,0.0271388
1.1,3.9,0,0.027917
1.1,4,0,0.0287017
1.1,4.1,0,0.0294736
1.1,4.2,0,0.0302319
1.1,4.3,0,0.0309877
1.1,4.4,0,0.0317192
1.1,4.5,0,0.0324579
1.1,4.6,0,0.0331614
1.1,4.7,0,0.0338482
1.1,4.8,0,0.0345211
1.1,4.9,0,0.0351701
1.1,5,0,0.0358689
1.1,5.1,0,0.0364066
1.1,5.2,0,0.0369371
1.1,5.3,0,0.0374861
1.1,5.4,0,0.0379718
1.1,5.5,0,0.0384239
1.1,5.6,0,0.0388658
1.1,5.7,0,0.0392334
1.1,5.8,0,0.0395668
1.1,5.9,0,0.0398844
1.1,6,0,0.0401192
1.1,6.1,0,0.0403209
1.1,6.2,0,0.0405012
1.1,6.3,0,0.0405933
1.1,6.4,0,0.040655
1.1,6.5,0,0.0406903
1.1,6.6,0,0.0406355
1.1,6.7,0,0.0405542
1.1,6.8,0,0.0404426
1.1,6.9,0,0.0402428
1.1,7,0,0.0400212
1.1,7.1,0,0.0397667
1.1,7.2,0,0.0394293
1.1,7.3,0,0.0390756
1.1,7.4,0,0.0386879
1.1,7.5,0,0.0382256
1.1,7.6,0,0.0377528
1.1,7.7,0,0.0372463
1.1,7.8,0,0.0366762
1.1,7.9,0,0.0361325
1.1,8,0,0.0355901
1.1,8.1,0,0.0348463
1.1,8.2,0,0.034174
1.1,8.3,0,0.033474
1.1,8.4,0,0.0327663
1.1,8.5,0,0.0320351
1.1,8.6,0,0.0312839
1.1,8.7,0,0.0305258
1.1,8.8,0,0.0297389
1.1,8.9,0,0.0289585
1.1,9,0,0.0281577
1.1,9.1,0,0.027358
1.1,9.2,0,0.0265461
1.1,9.3,0,0.0257331
1.1,9.4,0,0.0249156
1.1,9.5,0,0.0240951
1.1,9.6,0,0.0232793
1.1,9.7,0,0.0224594
1.1,9.8,0,0.0216463
1.1,9.9,0,0.0208285
1.1,10,0,0.0200207
1.1,10.1,0,0.0192105
1.1,10.2,0,0.0184096
1.1,10.3,0,0.017612
1.1,10.4,0,0.0168182
1.1,10.5,0,0.0160333
1.1,10.6,0,0.0152474
1.1,10.7,0,0.0144754
1.1,10.8,0,0.013702
1.1,10.9,0,0.0129406
1.1,11,0,0.0121816
1.1,11.1,0,0.0114287
1.1,11.2,0,0.0106834
1.1,11.3,0,0.00993902