x,y,z,p
0,0,0,4.63684e-05
0,0.1,0,9.68901e-05
0,0.2,0,0.000147412
0,0.3,0,0.000207068
0,0.4,0,0.000275859
0,0.5,0,0.000344651
0,0.6,0,0.000412929
0,0.7,0,0.000481207
0,0.8,0,0.000549104
0,0.9,0,0.000616619
0,1,0,0.000684134
0,1.1,0,0.000750638
0,1.2,0,0.000817141
0,1.3,0,0.000883016
0,1.4,0,0.000948261
0,1.5,0,0.00101351
0,1.6,0,0.00107725
0,1.7,0,0.00114099
0,1.8,0,0.00120385
0,1.9,0,0.00126585
0,2,0,0.00132784
0,2.1,0,0.00138783
0,2.2,0,0.00144783
0,2.3,0,0.00150671
0,2.4,0,0.00156447
0,2.5,0,0.00162223
0,2.6,0,0.00167752
0,2.7,0,0.00173281
0,2.8,0,0.00178674
0,2.9,0,0.00183932
0,3,0,0.00189191
0,3.1,0,0.00194156
0,3.2,0,0.00199121
0,3.3,0,0.00203929
0,3.4,0,0.00208579
0,3.5,0,0.0021323
0,3.6,0,0.00217545
0,3.7,0,0.0022186
0,3.8,0,0.00225998
0,3.9,0,0.00229959
0,4,0,0.0023392
0,4.1,0,0.00237509
0,4.2,0,0.00241099
0,4.3,0,0.00244495
0,4.4,0,0.00247697
0,4.5,0,0.00250899
0,4.6,0,0.00253701
0,4.7,0,0.00256503
0,4.8,0,0.0025905
0,4.9,0,0.00261342
0,5,0,0.00263635
0,5.1,0,0.0026579
0,5.2,0,0.00267945
0,5.3,0,0.00269632
0,5.4,0,0.00271319
0,5.5,0,0.00272671
0,5.6,0,0.00274022
0,5.7,0,0.00275035
0,5.8,0,0.00276049
0,5.9,0,0.00276722
0,6,0,0.00277395
0,6.1,0,0.00277727
0,6.2,0,0.00278059
0,6.3,0,0.00278049
0,6.4,0,0.00278039
0,6.5,0,0.0027769
0,6.6,0,0.00277341
0,6.7,0,0.00276653
0,6.8,0,0.00275965
0,6.9,0,0.0027481
0,7,0,0.00273656
0,7.1,0,0.00272298
0,7.2,0,0.0027094
0,7.3,0,0.00269499
0,7.4,0,0.00267582
0,7.5,0,0.00265666
0,7.6,0,0.00263608
0,7.7,0,0.0026122
0,7.8,0,0.00258832
0,7.9,0,0.0025624
0,8,0,0.00253398
0,8.1,0,0.00250557
0,8.2,0,0.00247455
0,8.3,0,0.00244179
0,8.4,0,0.00240903
0,8.5,0,0.00237317
0,8.6,0,0.00233628
0,8.7,0,0.00229939
0,8.8,0,0.00225899
0,8.9,0,0.0022182
0,9,0,0.00217723
0,9.1,0,0.00213278
0,9.2,0,0.00208833
0,9.3,0,0.0020432
0,9.4,0,0.00199535
0,9.5,0,0.0019475
0,9.6,0,0.00189855
0,9.7,0,0.00184756
0,9.8,0,0.00179658
0,9.9,0,0.00174416
0,10,0,0.0016903
0,10.1,0,0.00163645
0,10.2,0,0.00158091
0,10.3,0,0.00152446
0,10.4,0,0.00146801
0,10.5,0,0.00140971
0,10.6,0,0.00135094
0,10.7,0,0.00129218
0,10.8,0,0.00123148
0,10.9,0,0.00117068
0,11,0,0.0011097
0,11.1,0,0.00104715
0,11.2,0,0.000984596
0,11.3,0,0.000921674
0,11.4,0,0.000857651
0,11.5,0,0.000793627
0,11.6,0,0.000729131
0,11.7,0,0.000663928
0,11.8,0,0.000598724
0,11.9,0,0.00053303
0,12,0,0.000466936
0,12.1,0,0.000400841
0,12.2,0,0.000334332
0,12.3,0,0.000267645
0,12.4,0,0.000200959
0,12.5,0,0.000149238
0,12.6,0,0.000100159
0,12.7,0,5.10802e-05
0.1,0,0,3.92348e-05
0.1,0.1,0,8.97891e-05
0.1,0.2,0,0.000140311
0.1,0.3,0,0.000207142
0.1,0.4,0,0.000275934
0.1,0.5,0,0.000345326
0.1,0.6,0,0.000413052
0.1,0.7,0,0.00048133
0.1,0.8,0,0.000549275
0.1,0.9,0,0.00061679
0.1,1,0,0.000685399
0.1,1.1,0,0.000750856
0.1,1.2,0,0.00081736
0.1,1.3,0,0.000883281
0.1,1.4,0,0.000948527
0.1,1.5,0,0.00101523
0.1,1.6,0,0.00107756
0.1,1.7,0,0.0011413
0.1,1.8,0,0.00120422
0.1,1.9,0,0.00126621
0.1,2,0,0.00132985
0.1,2.1,0,0.00138824
0.1,2.2,0,0.00144823
0.1,2.3,0,0.00150716
0.1,2.4,0,0.00156492
0.1,2.5,0,0.0016244
0.1,2.6,0,0.00167802
0.1,2.7,0,0.0017333
0.1,2.8,0,0.00178728
0.1,2.9,0,0.00183987
0.1,3,0,0.00189412
0.1,3.1,0,0.00194214
0.1,3.2,0,0.00199179
0.1,3.3,0,0.00203991
0.1,3.4,0,0.00208642
0.1,3.5,0,0.00213452
0.1,3.6,0,0.00217611
0.1,3.7,0,0.00221926
0.1,3.8,0,0.00226067
0.1,3.9,0,0.00230028
0.1,4,0,0.00234144
0.1,4.1,0,0.00237582
0.1,4.2,0,0.00241172
0.1,4.3,0,0.00244571
0.1,4.4,0,0.00247773
0.1,4.5,0,0.00251131
0.1,4.6,0,0.00253779
0.1,4.7,0,0.00256581
0.1,4.8,0,0.00259168
0.1,4.9,0,0.0026146
0.1,5,0,0.00263877
0.1,5.1,0,0.00265883
0.1,5.2,0,0.00268192
0.1,5.3,0,0.00269684
0.1,5.4,0,0.00271572
0.1,5.5,0,0.00272723
0.1,5.6,0,0.00274279
0.1,5.7,0,0.00275088
0.1,5.8,0,0.0027631
0.1,5.9,0,0.00276775
0.1,6,0,0.00277658
0.1,6.1,0,0.0027778
0.1,6.2,0,0.00278323
0.1,6.3,0,0.00278102
0.1,6.4,0,0.00278303
0.1,6.5,0,0.00277742
0.1,6.6,0,0.00277603
0.1,6.7,0,0.00276705
0.1,6.8,0,0.00276224
0.1,6.9,0,0.00274902
0.1,7,0,0.00273914
0.1,7.1,0,0.00272438
0.1,7.2,0,0.0027108
0.1,7.3,0,0.00269704
0.1,7.4,0,0.00267687
0.1,7.5,0,0.0026577
0.1,7.6,0,0.00263758
0.1,7.7,0,0.00261322
0.1,7.8,0,0.00258934
0.1,7.9,0,0.00256338
0.1,8,0,0.00253496
0.1,8.1,0,0.00250668
0.1,8.2,0,0.00247547
0.1,8.3,0,0.00244272
0.1,8.4,0,0.00241071
0.1,8.5,0,0.00237406
0.1,8.6,0,0.00233717
0.1,8.7,0,0.00230171
0.1,8.8,0,0.00225982
0.1,8.9,0,0.00221903
0.1,9,0,0.00217979
0.1,9.1,0,0.00213355
0.1,9.2,0,0.0020891
0.1,9.3,0,0.00204507
0.1,9.4,0,0.00199607
0.1,9.5,0,0.00194821
0.1,9.6,0,0.00189965
0.1,9.7,0,0.00184822
0.1,9.8,0,0.00179724
0.1,9.9,0,0.00174476
0.1,10,0,0.0016909
0.1,10.1,0,0.00163749
0.1,10.2,0,0.00158145
0.1,10.3,0,0.001525
0.1,10.4,0,0.00146969
0.1,10.5,0,0.00141018
0.1,10.6,0,0.00135142
0.1,10.7,0,0.00129442
0.1,10.8,0,0.0012319
0.1,10.9,0,0.0011711
0.1,11,0,0.00111152
0.1,11.1,0,0.0010475
0.1,11.2,0,0.00098495
0.1,11.3,0,0.000922686
0.1,11.4,0,0.000857941
0.1,11.5,0,0.000793917
0.1,11.6,0,0.000729483
0.1,11.7,0,0.000664155
0.1,11.8,0,0.000598951
0.1,11.9,0,0.000533193
0.1,12,0,0.000467099
0.1,12.1,0,0.00040123
0.1,12.2,0,0.000334429
0.1,12.3,0,0.000267742
0.1,12.4,0,0.000201285
0.1,12.5,0,0.000141422
0.1,12.6,0,9.23425e-05
0.1,12.7,0,4.32217e-05
0.2,0,0,3.21012e-05
0.2,0.1,0,8.26881e-05
0.2,0.2,0,0.000138421
0.2,0.3,0,0.000207406
0.2,0.4,0,0.000276008
0.2,0.5,0,0.000346002
0.2,0.6,0,0.000413175
0.2,0.7,0,0.000482056
0.2,0.8,0,0.000550015
0.2,0.9,0,0.00061696
0.2,1,0,0.000686663
0.2,1.1,0,0.000751074
0.2,1.2,0,0.000818482
0.2,1.3,0,0.000884418
0.2,1.4,0,0.000948792
0.2,1.5,0,0.00101694
0.2,1.6,0,0.00107787
0.2,1.7,0,0.00114272
0.2,1.8,0,0.00120564
0.2,1.9,0,0.00126657
0.2,2,0,0.00133187
0.2,2.1,0,0.00138864
0.2,2.2,0,0.00144983
0.2,2.3,0,0.00150877
0.2,2.4,0,0.00156537
0.2,2.5,0,0.00162656
0.2,2.6,0,0.00167851
0.2,2.7,0,0.001735
0.2,2.8,0,0.00178899
0.2,2.9,0,0.00184041
0.2,3,0,0.00189634
0.2,3.1,0,0.00194273
0.2,3.2,0,0.00199353
0.2,3.3,0,0.00204166
0.2,3.4,0,0.00208704
0.2,3.5,0,0.00213674
0.2,3.6,0,0.00217677
0.2,3.7,0,0.00222102
0.2,3.8,0,0.00226244
0.2,3.9,0,0.00230098
0.2,4,0,0.00234368
0.2,4.1,0,0.00237655
0.2,4.2,0,0.00241353
0.2,4.3,0,0.00244753
0.2,4.4,0,0.00247849
0.2,4.5,0,0.00251362
0.2,4.6,0,0.00253857
0.2,4.7,0,0.00256771
0.2,4.8,0,0.00259369
0.2,4.9,0,0.00261578
0.2,5,0,0.00264119
0.2,5.1,0,0.00265975
0.2,5.2,0,0.00268439
0.2,5.3,0,0.00269736
0.2,5.4,0,0.00271825
0.2,5.5,0,0.00272774
0.2,5.6,0,0.00274537
0.2,5.7,0,0.0027514
0.2,5.8,0,0.0027657
0.2,5.9,0,0.00276827
0.2,6,0,0.00277921
0.2,6.1,0,0.00277832
0.2,6.2,0,0.00278587
0.2,6.3,0,0.00278154
0.2,6.4,0,0.00278567
0.2,6.5,0,0.00277794
0.2,6.6,0,0.00277864
0.2,6.7,0,0.00276758
0.2,6.8,0,0.00276482
0.2,6.9,0,0.00274993
0.2,7,0,0.00274172
0.2,7.1,0,0.00272578
0.2,7.2,0,0.00271227
0.2,7.3,0,0.00269962
0.2,7.4,0,0.00267792
0.2,7.5,0,0.00265936
0.2,7.6,0,0.00264013
0.2,7.7,0,0.00261423
0.2,7.8,0,0.00259151
0.2,7.9,0,0.0025659
0.2,8,0,0.00253593
0.2,8.1,0,0.00250929
0.2,8.2,0,0.00247746
0.2,8.3,0,0.00244365
0.2,8.4,0,0.00241337
0.2,8.5,0,0.00237545
0.2,8.6,0,0.00233805
0.2,8.7,0,0.00230444
0.2,8.8,0,0.00226065
0.2,8.9,0,0.00221986
0.2,9,0,0.00218258
0.2,9.1,0,0.00213433
0.2,9.2,0,0.00209024
0.2,9.3,0,0.00204791
0.2,9.4,0,0.00199678
0.2,9.5,0,0.00195004
0.2,9.6,0,0.00190251
0.2,9.7,0,0.00184888
0.2,9.8,0,0.00179976
0.2,9.9,0,0.00174728
0.2,10,0,0.0016915
0.2,10.1,0,0.00164025
0.2,10.2,0,0.00158314
0.2,10.3,0,0.00152554
0.2,10.4,0,0.00147234
0.2,10.5,0,0.00141104
0.2,10.6,0,0.0013519
0.2,10.7,0,0.0012969
0.2,10.8,0,0.00123231
0.2,10.9,0,0.00117151
0.2,11,0,0.00111377
0.2,11.1,0,0.00104786
0.2,11.2,0,0.000985771
0.2,11.3,0,0.000924654
0.2,11.4,0,0.000858231
0.2,11.5,0,0.000795062
0.2,11.6,0,0.000731126
0.2,11.7,0,0.000664382
0.2,11.8,0,0.0006002
0.2,11.9,0,0.000534187
0.2,12,0,0.000467262
0.2,12.1,0,0.000402105
0.2,12.2,0,0.00033484
0.2,12.3,0,0.000267839
0.2,12.4,0,0.000201731
0.2,12.5,0,0.000134112
0.2,12.6,0,8.45257e-05
0.2,12.7,0,3.53632e-05
0.3,0,0,2.49676e-05
0.3,0.1,0,7.5574e-05
0.3,0.2,0,0.000138766
0.3,0.3,0,0.00020775
0.3,0.4,0,0.000276323
0.3,0.5,0,0.000346678
0.3,0.6,0,0.000413519
0.3,0.7,0,0.000483041
0.3,0.8,0,0.000551
0.3,0.9,0,0.000617569
0.3,1,0,0.000687928
0.3,1.1,0,0.000751711
0.3,1.2,0,0.000819993
0.3,1.3,0,0.000885929
0.3,1.4,0,0.000949639
0.3,1.5,0,0.00101866
0.3,1.6,0,0.00107875
0.3,1.7,0,0.0011446
0.3,1.8,0,0.00120753
0.3,1.9,0,0.00126759
0.3,2,0,0.00133388
0.3,2.1,0,0.00138969
0.3,2.2,0,0.00145194
0.3,2.3,0,0.00151088
0.3,2.4,0,0.00156651
0.3,2.5,0,0.00162873
0.3,2.6,0,0.00167968
0.3,2.7,0,0.0017372
0.3,2.8,0,0.00179119
0.3,2.9,0,0.00184162
0.3,3,0,0.00189856
0.3,3.1,0,0.00194396
0.3,3.2,0,0.00199575
0.3,3.3,0,0.00204388
0.3,3.4,0,0.00208831
0.3,3.5,0,0.00213897
0.3,3.6,0,0.00217806
0.3,3.7,0,0.00222325
0.3,3.8,0,0.00226467
0.3,3.9,0,0.0023023
0.3,4,0,0.00234592
0.3,4.1,0,0.00237789
0.3,4.2,0,0.00241579
0.3,4.3,0,0.00244979
0.3,4.4,0,0.00247988
0.3,4.5,0,0.00251594
0.3,4.6,0,0.00253996
0.3,4.7,0,0.00257009
0.3,4.8,0,0.00259607
0.3,4.9,0,0.00261745
0.3,5,0,0.00264362
0.3,5.1,0,0.00266068
0.3,5.2,0,0.00268686
0.3,5.3,0,0.00269787
0.3,5.4,0,0.00272077
0.3,5.5,0,0.00272826
0.3,5.6,0,0.00274794
0.3,5.7,0,0.00275192
0.3,5.8,0,0.00276831
0.3,5.9,0,0.0027688
0.3,6,0,0.00278184
0.3,6.1,0,0.00277885
0.3,6.2,0,0.00278851
0.3,6.3,0,0.00278207
0.3,6.4,0,0.0027883
0.3,6.5,0,0.00277846
0.3,6.6,0,0.00278126
0.3,6.7,0,0.0027681
0.3,6.8,0,0.0027674
0.3,6.9,0,0.00275084
0.3,7,0,0.0027443
0.3,7.1,0,0.00272803
0.3,7.2,0,0.00271485
0.3,7.3,0,0.0027022
0.3,7.4,0,0.00267955
0.3,7.5,0,0.00266191
0.3,7.6,0,0.00264268
0.3,7.7,0,0.0026153
0.3,7.8,0,0.00259407
0.3,7.9,0,0.00256846
0.3,8,0,0.00253691
0.3,8.1,0,0.0025119
0.3,8.2,0,0.00248007
0.3,8.3,0,0.00244483
0.3,8.4,0,0.00241604
0.3,8.5,0,0.00237812
0.3,8.6,0,0.00233984
0.3,8.7,0,0.00230717
0.3,8.8,0,0.00226328
0.3,8.9,0,0.00222232
0.3,9,0,0.00218538
0.3,9.1,0,0.00213633
0.3,9.2,0,0.00209308
0.3,9.3,0,0.00205074
0.3,9.4,0,0.00199806
0.3,9.5,0,0.00195289
0.3,9.6,0,0.00190536
0.3,9.7,0,0.00184954
0.3,9.8,0,0.0018026
0.3,9.9,0,0.00175011
0.3,10,0,0.0016921
0.3,10.1,0,0.00164302
0.3,10.2,0,0.0015859
0.3,10.3,0,0.00152663
0.3,10.4,0,0.00147499
0.3,10.5,0,0.00141369
0.3,10.6,0,0.00135358
0.3,10.7,0,0.00129937
0.3,10.8,0,0.00123444
0.3,10.9,0,0.00117366
0.3,11,0,0.00111601
0.3,11.1,0,0.00104914
0.3,11.2,0,0.000987739
0.3,11.3,0,0.000926622
0.3,11.4,0,0.000858772
0.3,11.5,0,0.000796705
0.3,11.6,0,0.000732769
0.3,11.7,0,0.000664609
0.3,11.8,0,0.000601477
0.3,11.9,0,0.000535463
0.3,12,0,0.00046745
0.3,12.1,0,0.000402981
0.3,12.2,0,0.000335716
0.3,12.3,0,0.000268067
0.3,12.4,0,0.000202177
0.3,12.5,0,0.000134558
0.3,12.6,0,7.6679e-05
0.3,12.7,0,2.75047e-05
0.4,0,0,1.7834e-05
0.4,0.1,0,6.91849e-05
0.4,0.2,0,0.00013911
0.4,0.3,0,0.000208094
0.4,0.4,0,0.000277026
0.4,0.5,0,0.000347354
0.4,0.6,0,0.000414281
0.4,0.7,0,0.000484025
0.4,0.8,0,0.000551984
0.4,0.9,0,0.000618915
0.4,1,0,0.000689192
0.4,1.1,0,0.000753105
0.4,1.2,0,0.000821504
0.4,1.3,0,0.00088744
0.4,1.4,0,0.000951483
0.4,1.5,0,0.00102038
0.4,1.6,0,0.00108063
0.4,1.7,0,0.00114649
0.4,1.8,0,0.00120942
0.4,1.9,0,0.00126976
0.4,2,0,0.0013359
0.4,2.1,0,0.00139188
0.4,2.2,0,0.00145404
0.4,2.3,0,0.00151298
0.4,2.4,0,0.00156885
0.4,2.5,0,0.0016309
0.4,2.6,0,0.00168202
0.4,2.7,0,0.0017394
0.4,2.8,0,0.00179339
0.4,2.9,0,0.001844
0.4,3,0,0.00190078
0.4,3.1,0,0.00194635
0.4,3.2,0,0.00199797
0.4,3.3,0,0.0020461
0.4,3.4,0,0.00209069
0.4,3.5,0,0.00214119
0.4,3.6,0,0.00218044
0.4,3.7,0,0.00222548
0.4,3.8,0,0.0022669
0.4,3.9,0,0.00230469
0.4,4,0,0.00234816
0.4,4.1,0,0.00238028
0.4,4.2,0,0.00241806
0.4,4.3,0,0.00245206
0.4,4.4,0,0.00248234
0.4,4.5,0,0.00251825
0.4,4.6,0,0.00254244
0.4,4.7,0,0.00257247
0.4,4.8,0,0.00259845
0.4,4.9,0,0.00262
0.4,5,0,0.00264604
0.4,5.1,0,0.00266388
0.4,5.2,0,0.00268933
0.4,5.3,0,0.00270136
0.4,5.4,0,0.0027233
0.4,5.5,0,0.00273183
0.4,5.6,0,0.00275051
0.4,5.7,0,0.00275554
0.4,5.8,0,0.00277092
0.4,5.9,0,0.00277246
0.4,6,0,0.00278447
0.4,6.1,0,0.00278254
0.4,6.2,0,0.00279115
0.4,6.3,0,0.00278576
0.4,6.4,0,0.00279094
0.4,6.5,0,0.00278214
0.4,6.6,0,0.00278387
0.4,6.7,0,0.00277174
0.4,6.8,0,0.00276999
0.4,6.9,0,0.00275426
0.4,7,0,0.00274688
0.4,7.1,0,0.00273061
0.4,7.2,0,0.00271743
0.4,7.3,0,0.00270478
0.4,7.4,0,0.00268231
0.4,7.5,0,0.00266446
0.4,7.6,0,0.00264523
0.4,7.7,0,0.00261858
0.4,7.8,0,0.00259664
0.4,7.9,0,0.00257103
0.4,8,0,0.0025403
0.4,8.1,0,0.00251451
0.4,8.2,0,0.00248268
0.4,8.3,0,0.00244809
0.4,8.4,0,0.00241871
0.4,8.5,0,0.00238079
0.4,8.6,0,0.00234259
0.4,8.7,0,0.00230991
0.4,8.8,0,0.00226602
0.4,8.9,0,0.00222512
0.4,9,0,0.00218817
0.4,9.1,0,0.00213912
0.4,9.2,0,0.00209592
0.4,9.3,0,0.00205358
0.4,9.4,0,0.0020014
0.4,9.5,0,0.00195574
0.4,9.6,0,0.00190821
0.4,9.7,0,0.00185348
0.4,9.8,0,0.00180543
0.4,9.9,0,0.00175294
0.4,10,0,0.00169599
0.4,10.1,0,0.00164578
0.4,10.2,0,0.00158867
0.4,10.3,0,0.0015298
0.4,10.4,0,0.00147763
0.4,10.5,0,0.00141634
0.4,10.6,0,0.00135606
0.4,10.7,0,0.00130185
0.4,10.8,0,0.00123692
0.4,10.9,0,0.00117591
0.4,11,0,0.00111826
0.4,11.1,0,0.0010514
0.4,11.2,0,0.000989708
0.4,11.3,0,0.000928591
0.4,11.4,0,0.000861215
0.4,11.5,0,0.000798348
0.4,11.6,0,0.000734412
0.4,11.7,0,0.000666706
0.4,11.8,0,0.000602753
0.4,11.9,0,0.00053674
0.4,12,0,0.000468844
0.4,12.1,0,0.000403857
0.4,12.2,0,0.000336592
0.4,12.3,0,0.000268609
0.4,12.4,0,0.000202623
0.4,12.5,0,0.000135004
0.4,12.6,0,6.88205e-05
0.4,12.7,0,1.96462e-05
0.5,0,0,1.07004e-05
0.5,0.1,0,6.94965e-05
0.5,0.2,0,0.000139454
0.5,0.3,0,0.000208438
0.5,0.4,0,0.000277971
0.5,0.5,0,0.000348029
0.5,0.6,0,0.000415818
0.5,0.7,0,0.00048501
0.5,0.8,0,0.000552969
0.5,0.9,0,0.000620993
0.5,1,0,0.000690457
0.5,1.1,0,0.000755662
0.5,1.2,0,0.000823014
0.5,1.3,0,0.00088895
0.5,1.4,0,0.000954446
0.5,1.5,0,0.0010221
0.5,1.6,0,0.00108392
0.5,1.7,0,0.00114838
0.5,1.8,0,0.00121131
0.5,1.9,0,0.0012733
0.5,2,0,0.00133791
0.5,2.1,0,0.0013956
0.5,2.2,0,0.00145615
0.5,2.3,0,0.00151509
0.5,2.4,0,0.00157267
0.5,2.5,0,0.00163307
0.5,2.6,0,0.00168589
0.5,2.7,0,0.0017416
0.5,2.8,0,0.00179559
0.5,2.9,0,0.00184788
0.5,3,0,0.001903
0.5,3.1,0,0.0019502
0.5,3.2,0,0.00200019
0.5,3.3,0,0.00204833
0.5,3.4,0,0.00209451
0.5,3.5,0,0.00214342
0.5,3.6,0,0.00218423
0.5,3.7,0,0.0022277
0.5,3.8,0,0.00226913
0.5,3.9,0,0.00230846
0.5,4,0,0.0023504
0.5,4.1,0,0.00238406
0.5,4.2,0,0.00242033
0.5,4.3,0,0.00245433
0.5,4.4,0,0.00248616
0.5,4.5,0,0.00252056
0.5,4.6,0,0.00254635
0.5,4.7,0,0.00257485
0.5,4.8,0,0.00260083
0.5,4.9,0,0.00262362
0.5,5,0,0.00264846
0.5,5.1,0,0.00266785
0.5,5.2,0,0.0026918
0.5,5.3,0,0.00270584
0.5,5.4,0,0.00272582
0.5,5.5,0,0.00273641
0.5,5.6,0,0.00275309
0.5,5.7,0,0.0027602
0.5,5.8,0,0.00277353
0.5,5.9,0,0.00277717
0.5,6,0,0.0027871
0.5,6.1,0,0.00278728
0.5,6.2,0,0.00279379
0.5,6.3,0,0.00279051
0.5,6.4,0,0.00279358
0.5,6.5,0,0.00278687
0.5,6.6,0,0.00278649
0.5,6.7,0,0.00277642
0.5,6.8,0,0.00277258
0.5,6.9,0,0.00275851
0.5,7,0,0.00274946
0.5,7.1,0,0.00273411
0.5,7.2,0,0.00272053
0.5,7.3,0,0.00270736
0.5,7.4,0,0.00268639
0.5,7.5,0,0.00266716
0.5,7.6,0,0.00264779
0.5,7.7,0,0.00262268
0.5,7.8,0,0.0025992
0.5,7.9,0,0.00257359
0.5,8,0,0.0025445
0.5,8.1,0,0.00251712
0.5,8.2,0,0.00248529
0.5,8.3,0,0.00245244
0.5,8.4,0,0.00242138
0.5,8.5,0,0.00238385
0.5,8.6,0,0.00234711
0.5,8.7,0,0.00231264
0.5,8.8,0,0.00226984
0.5,8.9,0,0.00222918
0.5,9,0,0.00219096
0.5,9.1,0,0.00214376
0.5,9.2,0,0.00209941
0.5,9.3,0,0.00205642
0.5,9.4,0,0.00200637
0.5,9.5,0,0.0019586
0.5,9.6,0,0.00191107
0.5,9.7,0,0.00185851
0.5,9.8,0,0.00180826
0.5,9.9,0,0.00175577
0.5,10,0,0.00170099
0.5,10.1,0,0.00164855
0.5,10.2,0,0.00159143
0.5,10.3,0,0.00153468
0.5,10.4,0,0.00148028
0.5,10.5,0,0.00141963
0.5,10.6,0,0.00136047
0.5,10.7,0,0.00130432
0.5,10.8,0,0.00124061
0.5,10.9,0,0.00117929
0.5,11,0,0.00112051
0.5,11.1,0,0.00105526
0.5,11.2,0,0.000992075
0.5,11.3,0,0.000930559
0.5,11.4,0,0.000864536
0.5,11.5,0,0.000799991
0.5,11.6,0,0.000736055
0.5,11.7,0,0.000669398
0.5,11.8,0,0.00060403
0.5,11.9,0,0.000538016
0.5,12,0,0.000470833
0.5,12.1,0,0.000404733
0.5,12.2,0,0.000337501
0.5,12.3,0,0.000269834
0.5,12.4,0,0.000203069
0.5,12.5,0,0.000135432
0.5,12.6,0,6.74128e-05
0.5,12.7,0,1.17877e-05
0.6,0,0,3.5668e-06
0.6,0.1,0,6.98081e-05
0.6,0.2,0,0.000139772
0.6,0.3,0,0.000209264
0.6,0.4,0,0.000278917
0.6,0.5,0,0.000348705
0.6,0.6,0,0.000417356
0.6,0.7,0,0.000486437
0.6,0.8,0,0.000554829
0.6,0.9,0,0.000623072
0.6,1,0,0.000691721
0.6,1.1,0,0.000758219
0.6,1.2,0,0.000825362
0.6,1.3,0,0.000891623
0.6,1.4,0,0.00095741
0.6,1.5,0,0.00102382
0.6,1.6,0,0.00108721
0.6,1.7,0,0.00115139
0.6,1.8,0,0.00121452
0.6,1.9,0,0.00127684
0.6,2,0,0.00133993
0.6,2.1,0,0.00139931
0.6,2.2,0,0.00145955
0.6,2.3,0,0.00151857
0.6,2.4,0,0.00157649
0.6,2.5,0,0.00163523
0.6,2.6,0,0.00168976
0.6,2.7,0,0.00174514
0.6,2.8,0,0.00179914
0.6,2.9,0,0.00185176
0.6,3,0,0.00190521
0.6,3.1,0,0.00195406
0.6,3.2,0,0.00200372
0.6,3.3,0,0.00205183
0.6,3.4,0,0.00209834
0.6,3.5,0,0.00214564
0.6,3.6,0,0.00218802
0.6,3.7,0,0.00223118
0.6,3.8,0,0.00227259
0.6,3.9,0,0.00231223
0.6,4,0,0.00235264
0.6,4.1,0,0.00238784
0.6,4.2,0,0.0024238
0.6,4.3,0,0.00245784
0.6,4.4,0,0.00248998
0.6,4.5,0,0.00252288
0.6,4.6,0,0.00255027
0.6,4.7,0,0.00257845
0.6,4.8,0,0.00260421
0.6,4.9,0,0.00262725
0.6,5,0,0.00265088
0.6,5.1,0,0.00267182
0.6,5.2,0,0.00269427
0.6,5.3,0,0.00271032
0.6,5.4,0,0.00272835
0.6,5.5,0,0.00274099
0.6,5.6,0,0.00275566
0.6,5.7,0,0.00276486
0.6,5.8,0,0.00277613
0.6,5.9,0,0.00278188
0.6,6,0,0.00278973
0.6,6.1,0,0.00279202
0.6,6.2,0,0.00279643
0.6,6.3,0,0.00279526
0.6,6.4,0,0.00279621
0.6,6.5,0,0.0027916
0.6,6.6,0,0.0027891
0.6,6.7,0,0.00278109
0.6,6.8,0,0.00277516
0.6,6.9,0,0.00276276
0.6,7,0,0.00275204
0.6,7.1,0,0.00273787
0.6,7.2,0,0.00272429
0.6,7.3,0,0.00270994
0.6,7.4,0,0.00269047
0.6,7.5,0,0.00267125
0.6,7.6,0,0.00265062
0.6,7.7,0,0.00262677
0.6,7.8,0,0.00260293
0.6,7.9,0,0.00257702
0.6,8,0,0.0025487
0.6,8.1,0,0.00252038
0.6,8.2,0,0.00248941
0.6,8.3,0,0.00245679
0.6,8.4,0,0.00242417
0.6,8.5,0,0.00238837
0.6,8.6,0,0.00235163
0.6,8.7,0,0.00231537
0.6,8.8,0,0.00227453
0.6,8.9,0,0.00223388
0.6,9,0,0.00219376
0.6,9.1,0,0.00214861
0.6,9.2,0,0.00210426
0.6,9.3,0,0.00205925
0.6,9.4,0,0.00201135
0.6,9.5,0,0.00196354
0.6,9.6,0,0.00191457
0.6,9.7,0,0.00186353
0.6,9.8,0,0.0018125
0.6,9.9,0,0.00175999
0.6,10,0,0.00170598
0.6,10.1,0,0.00165198
0.6,10.2,0,0.00159627
0.6,10.3,0,0.00153955
0.6,10.4,0,0.00148293
0.6,10.5,0,0.00142427
0.6,10.6,0,0.00136511
0.6,10.7,0,0.00130679
0.6,10.8,0,0.00124492
0.6,10.9,0,0.0011836
0.6,11,0,0.00112275
0.6,11.1,0,0.00105913
0.6,11.2,0,0.000995936
0.6,11.3,0,0.000932623
0.6,11.4,0,0.000867857
0.6,11.5,0,0.000803091
0.6,11.6,0,0.00073813
0.6,11.7,0,0.000672091
0.6,11.8,0,0.000606051
0.6,11.9,0,0.000539831
0.6,12,0,0.000472822
0.6,12.1,0,0.000405814
0.6,12.2,0,0.000338727
0.6,12.3,0,0.000271059
0.6,12.4,0,0.000203515
0.6,12.5,0,0.000135836
0.6,12.6,0,6.78171e-05
0.6,12.7,0,3.92924e-06
0.7,0,0,0
0.7,0.1,0,7.01552e-05
0.7,0.2,0,0.000140119
0.7,0.3,0,0.000210293
0.7,0.4,0,0.000279947
0.7,0.5,0,0.000350032
0.7,0.6,0,0.000419029
0.7,0.7,0,0.00048811
0.7,0.8,0,0.000557093
0.7,0.9,0,0.000625336
0.7,1,0,0.000694297
0.7,1.1,0,0.000761012
0.7,1.2,0,0.000828155
0.7,1.3,0,0.000894873
0.7,1.4,0,0.000960659
0.7,1.5,0,0.00102755
0.7,1.6,0,0.00109084
0.7,1.7,0,0.00115502
0.7,1.8,0,0.00121844
0.7,1.9,0,0.00128076
0.7,2,0,0.00134469
0.7,2.1,0,0.00140345
0.7,2.2,0,0.00146369
0.7,2.3,0,0.00152286
0.7,2.4,0,0.00158078
0.7,2.5,0,0.0016409
0.7,2.6,0,0.00169414
0.7,2.7,0,0.00174952
0.7,2.8,0,0.00180356
0.7,2.9,0,0.00185619
0.7,3,0,0.00191166
0.7,3.1,0,0.0019585
0.7,3.2,0,0.00200817
0.7,3.3,0,0.00205628
0.7,3.4,0,0.00210278
0.7,3.5,0,0.00215277
0.7,3.6,0,0.00219247
0.7,3.7,0,0.00223563
0.7,3.8,0,0.00227706
0.7,3.9,0,0.0023167
0.7,4,0,0.00236036
0.7,4.1,0,0.00239234
0.7,4.2,0,0.0024283
0.7,4.3,0,0.0024624
0.7,4.4,0,0.00249455
0.7,4.5,0,0.00253113
0.7,4.6,0,0.00255495
0.7,4.7,0,0.00258314
0.7,4.8,0,0.00260904
0.7,4.9,0,0.00263208
0.7,5,0,0.0026596
0.7,5.1,0,0.0026767
0.7,5.2,0,0.00270317
0.7,5.3,0,0.00271531
0.7,5.4,0,0.00273739
0.7,5.5,0,0.00274609
0.7,5.6,0,0.00276481
0.7,5.7,0,0.00277005
0.7,5.8,0,0.00278535
0.7,5.9,0,0.00278713
0.7,6,0,0.00279898
0.7,6.1,0,0.0027973
0.7,6.2,0,0.00280568
0.7,6.3,0,0.00280055
0.7,6.4,0,0.00280544
0.7,6.5,0,0.00279687
0.7,6.6,0,0.00279826
0.7,6.7,0,0.00278629
0.7,6.8,0,0.00278421
0.7,6.9,0,0.0027679
0.7,7,0,0.00276093
0.7,7.1,0,0.00274307
0.7,7.2,0,0.00272949
0.7,7.3,0,0.00271618
0.7,7.4,0,0.00269558
0.7,7.5,0,0.00267636
0.7,7.6,0,0.00265572
0.7,7.7,0,0.00263187
0.7,7.8,0,0.00260802
0.7,7.9,0,0.00258218
0.7,8,0,0.00255386
0.7,8.1,0,0.00252555
0.7,8.2,0,0.00249468
0.7,8.3,0,0.00246206
0.7,8.4,0,0.00242944
0.7,8.5,0,0.00239377
0.7,8.6,0,0.00235703
0.7,8.7,0,0.00232192
0.7,8.8,0,0.00228007
0.7,8.9,0,0.00223941
0.7,9,0,0.00220062
0.7,9.1,0,0.00215425
0.7,9.2,0,0.0021099
0.7,9.3,0,0.00206507
0.7,9.4,0,0.00201706
0.7,9.5,0,0.00196924
0.7,9.6,0,0.00192028
0.7,9.7,0,0.00186924
0.7,9.8,0,0.00181821
0.7,9.9,0,0.00176561
0.7,10,0,0.00171161
0.7,10.1,0,0.0016576
0.7,10.2,0,0.00160171
0.7,10.3,0,0.00154499
0.7,10.4,0,0.00148835
0.7,10.5,0,0.00142942
0.7,10.6,0,0.00137026
0.7,10.7,0,0.00131158
0.7,10.8,0,0.00124966
0.7,10.9,0,0.00118835
0.7,11,0,0.00112692
0.7,11.1,0,0.00106337
0.7,11.2,0,0.00100018
0.7,11.3,0,0.000936256
0.7,11.4,0,0.00087149
0.7,11.5,0,0.000806725
0.7,11.6,0,0.000741068
0.7,11.7,0,0.000675029
0.7,11.8,0,0.000608989
0.7,11.9,0,0.000541999
0.7,12,0,0.000474991
0.7,12.1,0,0.000407982
0.7,12.2,0,0.000340062
0.7,12.3,0,0.000272395
0.7,12.4,0,0.000204665
0.7,12.5,0,0.000136285
0.7,12.6,0,6.82659e-05
0.7,12.7,0,0
0.8,0,0,0
0.8,0.1,0,7.05377e-05
0.8,0.2,0,0.000140626
0.8,0.3,0,0.000211385
0.8,0.4,0,0.00028106
0.8,0.5,0,0.00035201
0.8,0.6,0,0.000420838
0.8,0.7,0,0.000490145
0.8,0.8,0,0.000559642
0.8,0.9,0,0.000627788
0.8,1,0,0.000698184
0.8,1.1,0,0.000764042
0.8,1.2,0,0.000831544
0.8,1.3,0,0.000898665
0.8,1.4,0,0.000964194
0.8,1.5,0,0.00103329
0.8,1.6,0,0.0010948
0.8,1.7,0,0.00115951
0.8,1.8,0,0.00122321
0.8,1.9,0,0.00128506
0.8,2,0,0.00135221
0.8,2.1,0,0.00140802
0.8,2.2,0,0.00146901
0.8,2.3,0,0.00152834
0.8,2.4,0,0.00158553
0.8,2.5,0,0.00165007
0.8,2.6,0,0.00169903
0.8,2.7,0,0.00175542
0.8,2.8,0,0.00180953
0.8,2.9,0,0.00186117
0.8,3,0,0.00192235
0.8,3.1,0,0.00196354
0.8,3.2,0,0.00201447
0.8,3.3,0,0.00206261
0.8,3.4,0,0.00210786
0.8,3.5,0,0.00216479
0.8,3.6,0,0.00219758
0.8,3.7,0,0.00224225
0.8,3.8,0,0.00228371
0.8,3.9,0,0.00232186
0.8,4,0,0.00237355
0.8,4.1,0,0.00239756
0.8,4.2,0,0.00243522
0.8,4.3,0,0.0024694
0.8,4.4,0,0.00249986
0.8,4.5,0,0.00254531
0.8,4.6,0,0.00256041
0.8,4.7,0,0.00259043
0.8,4.8,0,0.00261679
0.8,4.9,0,0.00263811
0.8,5,0,0.00267463
0.8,5.1,0,0.0026825
0.8,5.2,0,0.00271851
0.8,5.3,0,0.00272083
0.8,5.4,0,0.00275294
0.8,5.5,0,0.00275173
0.8,5.6,0,0.00278052
0.8,5.7,0,0.00277577
0.8,5.8,0,0.00280117
0.8,5.9,0,0.0027929
0.8,6,0,0.00281485
0.8,6.1,0,0.0028031
0.8,6.2,0,0.00282155
0.8,6.3,0,0.00280636
0.8,6.4,0,0.00282125
0.8,6.5,0,0.00280266
0.8,6.6,0,0.00281395
0.8,6.7,0,0.00279201
0.8,6.8,0,0.00279971
0.8,6.9,0,0.00277394
0.8,7,0,0.00277614
0.8,7.1,0,0.00274972
0.8,7.2,0,0.00273614
0.8,7.3,0,0.00273099
0.8,7.4,0,0.00270173
0.8,7.5,0,0.0026825
0.8,7.6,0,0.00266857
0.8,7.7,0,0.00263796
0.8,7.8,0,0.00261604
0.8,7.9,0,0.002592
0.8,8,0,0.00255999
0.8,8.1,0,0.00253597
0.8,8.2,0,0.00250183
0.8,8.3,0,0.00246826
0.8,8.4,0,0.00244186
0.8,8.5,0,0.00240005
0.8,8.6,0,0.00236331
0.8,8.7,0,0.00233423
0.8,8.8,0,0.00228643
0.8,8.9,0,0.00224578
0.8,9,0,0.00221228
0.8,9.1,0,0.00216068
0.8,9.2,0,0.00211633
0.8,9.3,0,0.00207604
0.8,9.4,0,0.0020235
0.8,9.5,0,0.00197575
0.8,9.6,0,0.00192937
0.8,9.7,0,0.00187563
0.8,9.8,0,0.0018257
0.8,9.9,0,0.00177301
0.8,10,0,0.00171785
0.8,10.1,0,0.00166552
0.8,10.2,0,0.00160776
0.8,10.3,0,0.00155099
0.8,10.4,0,0.00149613
0.8,10.5,0,0.00143507
0.8,10.6,0,0.00137591
0.8,10.7,0,0.00131847
0.8,10.8,0,0.00125485
0.8,10.9,0,0.00119354
0.8,11,0,0.00113289
0.8,11.1,0,0.00106798
0.8,11.2,0,0.00100479
0.8,11.3,0,0.000941205
0.8,11.4,0,0.000875436
0.8,11.5,0,0.000810685
0.8,11.6,0,0.000744765
0.8,11.7,0,0.000678213
0.8,11.8,0,0.000612119
0.8,11.9,0,0.000544523
0.8,12,0,0.000477338
0.8,12.1,0,0.000410101
0.8,12.2,0,0.000341507
0.8,12.3,0,0.00027384
0.8,12.4,0,0.000205714
0.8,12.5,0,0.000136778
0.8,12.6,0,6.8759e-05
0.8,12.7,0,0
0.9,0,0,0
0.9,0.1,0,7.09202e-05
0.9,0.2,0,0.00014163
0.9,0.3,0,0.000212389
0.9,0.4,0,0.000282174
0.9,0.5,0,0.000353988
0.9,0.6,0,0.000422648
0.9,0.7,0,0.000493083
0.9,0.8,0,0.00056258
0.9,0.9,0,0.000630239
0.9,1,0,0.000702072
0.9,1.1,0,0.000767072
0.9,1.2,0,0.000836367
0.9,1.3,0,0.000903488
0.9,1.4,0,0.000967728
0.9,1.5,0,0.00103904
0.9,1.6,0,0.00109876
0.9,1.7,0,0.00116615
0.9,1.8,0,0.00122985
0.9,1.9,0,0.00128936
0.9,2,0,0.00135972
0.9,2.1,0,0.00141258
0.9,2.2,0,0.00147737
0.9,2.3,0,0.0015367
0.9,2.4,0,0.00159029
0.9,2.5,0,0.00165925
0.9,2.6,0,0.00170392
0.9,2.7,0,0.00176537
0.9,2.8,0,0.00181948
0.9,2.9,0,0.00186614
0.9,3,0,0.00193303
0.9,3.1,0,0.00196857
0.9,3.2,0,0.00202585
0.9,3.3,0,0.00207399
0.9,3.4,0,0.00211293
0.9,3.5,0,0.00217682
0.9,3.6,0,0.0022027
0.9,3.7,0,0.00225488
0.9,3.8,0,0.00229634
0.9,3.9,0,0.00232701
0.9,4,0,0.00238674
0.9,4.1,0,0.00240278
0.9,4.2,0,0.00244893
0.9,4.3,0,0.0024831
0.9,4.4,0,0.00250518
0.9,4.5,0,0.00255949
0.9,4.6,0,0.00256588
0.9,4.7,0,0.00260506
0.9,4.8,0,0.00263142
0.9,4.9,0,0.00264415
0.9,5,0,0.00268965
0.9,5.1,0,0.0026883
0.9,5.2,0,0.00273384
0.9,5.3,0,0.00272634
0.9,5.4,0,0.0027685
0.9,5.5,0,0.00275736
0.9,5.6,0,0.00279624
0.9,5.7,0,0.00278148
0.9,5.8,0,0.002817
0.9,5.9,0,0.00279867
0.9,6,0,0.00283073
0.9,6.1,0,0.00280891
0.9,6.2,0,0.00283742
0.9,6.3,0,0.00281218
0.9,6.4,0,0.00283705
0.9,6.5,0,0.00280845
0.9,6.6,0,0.00282964
0.9,6.7,0,0.00279773
0.9,6.8,0,0.00281522
0.9,6.9,0,0.00277997
0.9,7,0,0.00279135
0.9,7.1,0,0.00275824
0.9,7.2,0,0.00274737
0.9,7.3,0,0.0027458
0.9,7.4,0,0.00270787
0.9,7.5,0,0.00269609
0.9,7.6,0,0.00268296
0.9,7.7,0,0.00264405
0.9,7.8,0,0.00262997
0.9,7.9,0,0.00260593
0.9,8,0,0.00256612
0.9,8.1,0,0.0025494
0.9,8.2,0,0.00251527
0.9,8.3,0,0.00247445
0.9,8.4,0,0.00245475
0.9,8.5,0,0.00241156
0.9,8.6,0,0.0023696
0.9,8.7,0,0.00234653
0.9,8.8,0,0.00229545
0.9,8.9,0,0.00225391
0.9,9,0,0.00222394
0.9,9.1,0,0.00216765
0.9,9.2,0,0.00212582
0.9,9.3,0,0.00208701
0.9,9.4,0,0.00202994
0.9,9.5,0,0.00198599
0.9,9.6,0,0.0019396
0.9,9.7,0,0.00188202
0.9,9.8,0,0.00183516
0.9,9.9,0,0.00178247
0.9,10,0,0.0017241
0.9,10.1,0,0.00167416
0.9,10.2,0,0.00161639
0.9,10.3,0,0.001557
0.9,10.4,0,0.00150391
0.9,10.5,0,0.00144216
0.9,10.6,0,0.0013817
0.9,10.7,0,0.00132537
0.9,10.8,0,0.00126061
0.9,10.9,0,0.00119908
0.9,11,0,0.00113887
0.9,11.1,0,0.0010726
0.9,11.2,0,0.00100973
0.9,11.3,0,0.00094623
0.9,11.4,0,0.000879382
0.9,11.5,0,0.000814741
0.9,11.6,0,0.00074882
0.9,11.7,0,0.000681397
0.9,11.8,0,0.000615187
0.9,11.9,0,0.000547591
0.9,12,0,0.000479685
0.9,12.1,0,0.000412168
0.9,12.2,0,0.000343514
0.9,12.3,0,0.000275286
0.9,12.4,0,0.000206763
0.9,12.5,0,0.000137584
0.9,12.6,0,6.91441e-05
0.9,12.7,0,0
1,0,0,0
1,0.1,0,7.09584e-05
1,0.2,0,0.000142634
1,0.3,0,0.000213393
1,0.4,0,0.000284066
1,0.5,0,0.000355966
1,0.6,0,0.000424609
1,0.7,0,0.000496021
1,0.8,0,0.000565518
1,0.9,0,0.000633983
1,1,0,0.000705959
1,1.1,0,0.000770873
1,1.2,0,0.00084119
1,1.3,0,0.000908311
1,1.4,0,0.00097325
1,1.5,0,0.00104478
1,1.6,0,0.00110432
1,1.7,0,0.00117279
1,1.8,0,0.00123649
1,1.9,0,0.00129656
1,2,0,0.00136723
1,2.1,0,0.0014198
1,2.2,0,0.00148573
1,2.3,0,0.00154506
1,2.4,0,0.00159902
1,2.5,0,0.00166842
1,2.6,0,0.00171266
1,2.7,0,0.00177531
1,2.8,0,0.00182943
1,2.9,0,0.00187625
1,3,0,0.00194371
1,3.1,0,0.00197869
1,3.2,0,0.00203722
1,3.3,0,0.00208536
1,3.4,0,0.00212426
1,3.5,0,0.00218884
1,3.6,0,0.00221403
1,3.7,0,0.00226751
1,3.8,0,0.00230897
1,3.9,0,0.0023394
1,4,0,0.00239993
1,4.1,0,0.00241518
1,4.2,0,0.00246264
1,4.3,0,0.00249681
1,4.4,0,0.00251847
1,4.5,0,0.00257367
1,4.6,0,0.00257919
1,4.7,0,0.00261968
1,4.8,0,0.00264604
1,4.9,0,0.00265827
1,5,0,0.00270467
1,5.1,0,0.00269879
1,5.2,0,0.00274917
1,5.3,0,0.00273681
1,5.4,0,0.00278406
1,5.5,0,0.00276799
1,5.6,0,0.00281196
1,5.7,0,0.00279223
1,5.8,0,0.00283282
1,5.9,0,0.00280948
1,6,0,0.0028466
1,6.1,0,0.00281974
1,6.2,0,0.00285329
1,6.3,0,0.00282301
1,6.4,0,0.00285286
1,6.5,0,0.00281923
1,6.6,0,0.00284533
1,6.7,0,0.00280839
1,6.8,0,0.00283073
1,6.9,0,0.00279066
1,7,0,0.00280656
1,7.1,0,0.00277345
1,7.2,0,0.00276218
1,7.3,0,0.00276061
1,7.4,0,0.00272162
1,7.5,0,0.00271047
1,7.6,0,0.00269734
1,7.7,0,0.00265458
1,7.8,0,0.0026439
1,7.9,0,0.00261986
1,8,0,0.00257599
1,8.1,0,0.00256284
1,8.2,0,0.0025287
1,8.3,0,0.002485
1,8.4,0,0.00246765
1,8.5,0,0.00242445
1,8.6,0,0.00238185
1,8.7,0,0.00235883
1,8.8,0,0.00230776
1,8.9,0,0.00226557
1,9,0,0.00223561
1,9.1,0,0.00217931
1,9.2,0,0.0021368
1,9.3,0,0.00209798
1,9.4,0,0.00203984
1,9.5,0,0.00199622
1,9.6,0,0.00194984
1,9.7,0,0.00189027
1,9.8,0,0.00184461
1,9.9,0,0.00179193
1,10,0,0.0017316
1,10.1,0,0.0016828
1,10.2,0,0.00162503
1,10.3,0,0.00156436
1,10.4,0,0.00151169
1,10.5,0,0.00144995
1,10.6,0,0.00138859
1,10.7,0,0.00133226
1,10.8,0,0.0012675
1,10.9,0,0.00120505
1,11,0,0.00114484
1,11.1,0,0.00107856
1,11.2,0,0.00101476
1,11.3,0,0.000951254
1,11.4,0,0.000884029
1,11.5,0,0.000818796
1,11.6,0,0.000752876
1,11.7,0,0.000684826
1,11.8,0,0.000618256
1,11.9,0,0.00055066
1,12,0,0.000481882
1,12.1,0,0.000414234
1,12.2,0,0.000345581
1,12.3,0,0.000276383
1,12.4,0,0.000207812
1,12.5,0,0.000138633
1,12.6,0,6.91441e-05
1,12.7,0,0
1.1,0,0,0
1.1,0.1,0,7.13313e-05
1.1,0.2,0,0.000143638
1.1,0.3,0,0.000214397
1.1,0.4,0,0.000285978
1.1,0.5,0,0.000357944
1.1,0.6,0,0.000427264
1.1,0.7,0,0.000498958
1.1,0.8,0,0.000568455
1.1,0.9,0,0.000638162
1.1,1,0,0.000709846
1.1,1.1,0,0.000775836
1.1,1.2,0,0.000846014
1.1,1.3,0,0.000913134
1.1,1.4,0,0.000979766
1.1,1.5,0,0.00105052
1.1,1.6,0,0.00111167
1.1,1.7,0,0.00117943
1.1,1.8,0,0.00124313
1.1,1.9,0,0.00130548
1.1,2,0,0.00137475
1.1,2.1,0,0.00142959
1.1,2.2,0,0.00149409
1.1,2.3,0,0.00155342
1.1,2.4,0,0.00161035
1.1,2.5,0,0.00167759
1.1,2.6,0,0.00172487
1.1,2.7,0,0.00178526
1.1,2.8,0,0.00183937
1.1,2.9,0,0.00188992
1.1,3,0,0.00195439
1.1,3.1,0,0.00199317
1.1,3.2,0,0.0020486
1.1,3.3,0,0.00209674
1.1,3.4,0,0.00214007
1.1,3.5,0,0.00220086
1.1,3.6,0,0.00223056
1.1,3.7,0,0.00228014
1.1,3.8,0,0.0023216