x,y,z,U_0,U_1,U_2
0,0,0,0.3,-0.000124688,0
0,0.1,0,0.3,-8.9063e-05,0
0,0.2,0,0.3,-5.34378e-05,0
0,0.3,0,0.3,-1.78126e-05,0
0,0.4,0,0.3,0,0
0,0.5,0,0.3,0,0
0,0.6,0,0.3,0,0
0,0.7,0,0.3,0,0
0,0.8,0,0.3,0,0
0,0.9,0,0.3,0,0
0,1,0,0.3,0,0
0,1.1,0,0.3,0,0
0,1.2,0,0.3,0,0
0,1.3,0,0.3,0,0
0,1.4,0,0.3,0,0
0,1.5,0,0.3,0,0
0,1.6,0,0.3,0,0
0,1.7,0,0.3,0,0
0,1.8,0,0.3,0,0
0,1.9,0,0.3,0,0
0,2,0,0.3,0,0
0,2.1,0,0.3,0,0
0,2.2,0,0.3,0,0
0,2.3,0,0.3,0,0
0,2.4,0,0.3,0,0
0,2.5,0,0.3,0,0
0,2.6,0,0.3,0,0
0,2.7,0,0.3,0,0
0,2.8,0,0.3,0,0
0,2.9,0,0.3,0,0
0,3,0,0.3,0,0
0,3.1,0,0.3,0,0
0,3.2,0,0.3,0,0
0,3.3,0,0.3,0,0
0,3.4,0,0.3,0,0
0,3.5,0,0.3,0,0
0,3.6,0,0.3,0,0
0,3.7,0,0.3,0,0
0,3.8,0,0.3,0,0
0,3.9,0,0.3,0,0
0,4,0,0.3,0,0
0,4.1,0,0.3,0,0
0,4.2,0,0.3,0,0
0,4.3,0,0.3,0,0
0,4.4,0,0.3,0,0
0,4.5,0,0.3,0,0
0,4.6,0,0.3,0,0
0,4.7,0,0.3,0,0
0,4.8,0,0.3,0,0
0,4.9,0,0.3,0,0
0,5,0,0.3,0,0
0,5.1,0,0.3,0,0
0,5.2,0,0.3,0,0
0,5.3,0,0.3,0,0
0,5.4,0,0.3,0,0
0,5.5,0,0.3,0,0
0,5.6,0,0.3,0,0
0,5.7,0,0.3,0,0
0,5.8,0,0.3,0,0
0,5.9,0,0.3,0,0
0,6,0,0.3,0,0
0,6.1,0,0.3,0,0
0,6.2,0,0.3,0,0
0,6.3,0,0.3,0,0
0,6.4,0,0.3,0,0
0,6.5,0,0.3,0,0
0,6.6,0,0.3,0,0
0,6.7,0,0.3,0,0
0,6.8,0,0.3,0,0
0,6.9,0,0.3,0,0
0,7,0,0.3,0,0
0,7.1,0,0.3,0,0
0,7.2,0,0.3,0,0
0,7.3,0,0.3,0,0
0,7.4,0,0.3,0,0
0,7.5,0,0.3,0,0
0,7.6,0,0.3,0,0
0,7.7,0,0.3,0,0
0,7.8,0,0.3,0,0
0,7.9,0,0.3,0,0
0,8,0,0.3,0,0
0,8.1,0,0.3,0,0
0,8.2,0,0.3,0,0
0,8.3,0,0.3,0,0
0,8.4,0,0.3,0,0
0,8.5,0,0.3,0,0
0,8.6,0,0.3,0,0
0,8.7,0,0.3,0,0
0,8.8,0,0.3,0,0
0,8.9,0,0.3,0,0
0,9,0,0.3,0,0
0,9.1,0,0.3,0,0
0,9.2,0,0.3,0,0
0,9.3,0,0.3,0,0
0,9.4,0,0.3,0,0
0,9.5,0,0.3,0,0
0,9.6,0,0.3,0,0
0,9.7,0,0.3,0,0
0,9.8,0,0.3,0,0
0,9.9,0,0.3,0,0
0,10,0,0.3,0,0
0,10.1,0,0.3,0,0
0,10.2,0,0.3,0,0
0,10.3,0,0.3,0,0
0,10.4,0,0.3,0,0
0,10.5,0,0.3,0,0
0,10.6,0,0.3,0,0
0,10.7,0,0.3,0,0
0,10.8,0,0.3,0,0
0,10.9,0,0.3,0,0
0,11,0,0.3,0,0
0,11.1,0,0.3,0,0
0,11.2,0,0.3,0,0
0,11.3,0,0.3,0,0
0,11.4,0,0.3,0,0
0,11.5,0,0.3,0,0
0,11.6,0,0.3,0,0
0,11.7,0,0.3,0,0
0,11.8,0,0.3,0,0
0,11.9,0,0.3,0,0
0,12,0,0.3,0,0
0,12.1,0,0.3,0,0
0,12.2,0,0.3,0,0
0,12.3,0,0.3,0,0
0,12.4,0,0.3,0,0
0,12.5,0,0.3,1.52118e-05,0
0,12.6,0,0.299999,5.86739e-05,0
0,12.7,0,0.299998,0.000102136,0
0.1,0,0,0.3,-0.000188557,0
0.1,0.1,0,0.3,-0.000151435,0
0.1,0.2,0,0.3,-0.00011581,0
0.1,0.3,0,0.3,-8.16435e-05,0
0.1,0.4,0,0.3,-8.09484e-05,0
0.1,0.5,0,0.3,-8.08062e-05,0
0.1,0.6,0,0.3,-8.08062e-05,0
0.1,0.7,0,0.299999,-8.20426e-05,0
0.1,0.8,0,0.3,-7.932e-05,0
0.1,0.9,0,0.3,-7.932e-05,0
0.1,1,0,0.3,-7.94256e-05,0
0.1,1.1,0,0.299999,-7.73154e-05,0
0.1,1.2,0,0.299999,-7.70474e-05,0
0.1,1.3,0,0.299999,-7.70474e-05,0
0.1,1.4,0,0.299998,-7.90781e-05,0
0.1,1.5,0,0.299999,-7.39508e-05,0
0.1,1.6,0,0.299999,-7.39508e-05,0
0.1,1.7,0,0.299999,-7.41612e-05,0
0.1,1.8,0,0.299999,-7.04835e-05,0
0.1,1.9,0,0.299999,-6.99902e-05,0
0.1,2,0,0.299999,-6.99902e-05,0
0.1,2.1,0,0.299996,-7.42716e-05,0
0.1,2.2,0,0.299998,-6.51415e-05,0
0.1,2.3,0,0.299998,-6.51415e-05,0
0.1,2.4,0,0.299998,-6.55758e-05,0
0.1,2.5,0,0.299998,-6.02629e-05,0
0.1,2.6,0,0.299998,-5.942e-05,0
0.1,2.7,0,0.299998,-5.942e-05,0
0.1,2.8,0,0.299995,-6.77613e-05,0
0.1,2.9,0,0.299998,-5.2904e-05,0
0.1,3,0,0.299998,-5.2904e-05,0
0.1,3.1,0,0.299997,-5.36896e-05,0
0.1,3.2,0,0.299997,-4.70561e-05,0
0.1,3.3,0,0.299997,-4.57603e-05,0
0.1,3.4,0,0.299997,-4.57603e-05,0
0.1,3.5,0,0.299995,-5.96416e-05,0
0.1,3.6,0,0.299996,-3.82665e-05,0
0.1,3.7,0,0.299996,-3.82665e-05,0
0.1,3.8,0,0.299996,-3.9459e-05,0
0.1,3.9,0,0.299996,-3.25507e-05,0
0.1,4,0,0.299996,-3.08268e-05,0
0.1,4.1,0,0.299996,-3.08268e-05,0
0.1,4.2,0,0.299994,-4.98225e-05,0
0.1,4.3,0,0.299996,-2.39665e-05,0
0.1,4.4,0,0.299996,-2.39665e-05,0
0.1,4.5,0,0.299996,-2.54086e-05,0
0.1,4.6,0,0.299997,-2.0134e-05,0
0.1,4.7,0,0.299997,-1.82861e-05,0
0.1,4.8,0,0.299997,-1.82861e-05,0
0.1,4.9,0,0.299995,-3.7873e-05,0
0.1,5,0,0.3,-1.43288e-05,0
0.1,5.1,0,0.3,-1.43288e-05,0
0.1,5.2,0,0.3,-1.55111e-05,0
0.1,5.3,0,0.300007,-1.36708e-05,0
0.1,5.4,0,0.300007,-1.23469e-05,0
0.1,5.5,0,0.300007,-1.23469e-05,0
0.1,5.6,0,0.299995,-2.31301e-05,0
0.1,5.7,0,0.30002,-1.20474e-05,0
0.1,5.8,0,0.30002,-1.20474e-05,0
0.1,5.9,0,0.300018,-1.22344e-05,0
0.1,6,0,0.300036,-1.26617e-05,0
0.1,6.1,0,0.300039,-1.25076e-05,0
0.1,6.2,0,0.300039,-1.25076e-05,0
0.1,6.3,0,0.299992,-5.60767e-06,0
0.1,6.4,0,0.300062,-1.19064e-05,0
0.1,6.5,0,0.300062,-1.19064e-05,0
0.1,6.6,0,0.300057,-1.07727e-05,0
0.1,6.7,0,0.300078,-9.52425e-06,0
0.1,6.8,0,0.300085,-1.05619e-05,0
0.1,6.9,0,0.300085,-1.05619e-05,0
0.1,7,0,0.299986,1.13339e-05,0
0.1,7.1,0,0.299985,1.46321e-05,0
0.1,7.2,0,0.299984,1.6465e-05,0
0.1,7.3,0,0.299984,1.82731e-05,0
0.1,7.4,0,0.299984,2.00938e-05,0
0.1,7.5,0,0.299984,2.19176e-05,0
0.1,7.6,0,0.299984,2.37389e-05,0
0.1,7.7,0,0.299984,2.55548e-05,0
0.1,7.8,0,0.299984,2.73615e-05,0
0.1,7.9,0,0.299985,2.91818e-05,0
0.1,8,0,0.299986,3.17673e-05,0
0.1,8.1,0,0.300089,4.23782e-05,0
0.1,8.2,0,0.300086,4.21812e-05,0
0.1,8.3,0,0.300074,4.70031e-05,0
0.1,8.4,0,0.300074,4.70031e-05,0
0.1,8.5,0,0.300045,4.87085e-05,0
0.1,8.6,0,0.300057,5.0144e-05,0
0.1,8.7,0,0.300001,4.75648e-05,0
0.1,8.8,0,0.30004,5.19926e-05,0
0.1,8.9,0,0.30004,5.19926e-05,0
0.1,9,0,0.300024,5.27135e-05,0
0.1,9.1,0,0.300024,5.27135e-05,0
0.1,9.2,0,0.300007,5.42069e-05,0
0.1,9.3,0,0.300012,5.27102e-05,0
0.1,9.4,0,0.300001,5.97457e-05,0
0.1,9.5,0,0.300002,5.24148e-05,0
0.1,9.6,0,0.300002,5.24148e-05,0
0.1,9.7,0,0.299996,5.21935e-05,0
0.1,9.8,0,0.299996,5.21935e-05,0
0.1,9.9,0,0.299995,6.07602e-05,0
0.1,10,0,0.299992,5.23062e-05,0
0.1,10.1,0,0.299995,6.56258e-05,0
0.1,10.2,0,0.299991,5.28911e-05,0
0.1,10.3,0,0.299991,5.28911e-05,0
0.1,10.4,0,0.29999,5.39726e-05,0
0.1,10.5,0,0.29999,5.39726e-05,0
0.1,10.6,0,0.299995,7.0767e-05,0
0.1,10.7,0,0.299991,5.5488e-05,0
0.1,10.8,0,0.299994,6.83622e-05,0
0.1,10.9,0,0.299992,5.73209e-05,0
0.1,11,0,0.299992,5.73209e-05,0
0.1,11.1,0,0.299993,5.93295e-05,0
0.1,11.2,0,0.299993,5.93295e-05,0
0.1,11.3,0,0.299997,8.10989e-05,0
0.1,11.4,0,0.299994,6.13689e-05,0
0.1,11.5,0,0.299995,7.02978e-05,0
0.1,11.6,0,0.299995,6.33034e-05,0
0.1,11.7,0,0.299995,6.33034e-05,0
0.1,11.8,0,0.299996,6.50151e-05,0
0.1,11.9,0,0.299996,6.50151e-05,0
0.1,12,0,0.299998,8.90661e-05,0
0.1,12.1,0,0.299997,6.64018e-05,0
0.1,12.2,0,0.299998,7.10047e-05,0
0.1,12.3,0,0.299998,6.73818e-05,0
0.1,12.4,0,0.299998,6.73818e-05,0
0.1,12.5,0,0.299999,6.87433e-05,0
0.1,12.6,0,0.299998,0.000110875,0
0.1,12.7,0,0.299998,0.000180455,0
0.2,0,0,0.299999,-0.000252426,0
0.2,0.1,0,0.3,-0.000214021,0
0.2,0.2,0,0.3,-0.000178182,0
0.2,0.3,0,0.299999,-0.000164441,0
0.2,0.4,0,0.299999,-0.000163746,0
0.2,0.5,0,0.299999,-0.000161612,0
0.2,0.6,0,0.299999,-0.000161789,0
0.2,0.7,0,0.299998,-0.000164085,0
0.2,0.8,0,0.299999,-0.000159029,0
0.2,0.9,0,0.299999,-0.00015864,0
0.2,1,0,0.299998,-0.000160225,0
0.2,1.1,0,0.299998,-0.000158114,0
0.2,1.2,0,0.299999,-0.000154095,0
0.2,1.3,0,0.299999,-0.000154385,0
0.2,1.4,0,0.299995,-0.000158156,0
0.2,1.5,0,0.299999,-0.000148634,0
0.2,1.6,0,0.299999,-0.000147902,0
0.2,1.7,0,0.299996,-0.000151058,0
0.2,1.8,0,0.299996,-0.00014738,0
0.2,1.9,0,0.299998,-0.00013998,0
0.2,2,0,0.299998,-0.000140592,0
0.2,2.1,0,0.299993,-0.000148543,0
0.2,2.2,0,0.299997,-0.000131587,0
0.2,2.3,0,0.299997,-0.000130283,0
0.2,2.4,0,0.299994,-0.000136797,0
0.2,2.5,0,0.299994,-0.000131484,0
0.2,2.6,0,0.299996,-0.00011884,0
0.2,2.7,0,0.299996,-0.000120032,0
0.2,2.8,0,0.299991,-0.000135523,0
0.2,2.9,0,0.299995,-0.00010793,0
0.2,3,0,0.299995,-0.000105808,0
0.2,3.1,0,0.299992,-0.000117592,0
0.2,3.2,0,0.299992,-0.000110958,0
0.2,3.3,0,0.299994,-9.15206e-05,0
0.2,3.4,0,0.299994,-9.35037e-05,0
0.2,3.5,0,0.299989,-0.000119283,0
0.2,3.6,0,0.299992,-7.95865e-05,0
0.2,3.7,0,0.299993,-7.65329e-05,0
0.2,3.8,0,0.299991,-9.44208e-05,0
0.2,3.9,0,0.29999,-8.75125e-05,0
0.2,4,0,0.299992,-6.16535e-05,0
0.2,4.1,0,0.299992,-6.43672e-05,0
0.2,4.2,0,0.299989,-9.9645e-05,0
0.2,4.3,0,0.299992,-5.16267e-05,0
0.2,4.4,0,0.299992,-4.7933e-05,0
0.2,4.5,0,0.29999,-6.95651e-05,0
0.2,4.6,0,0.299991,-6.42905e-05,0
0.2,4.7,0,0.299994,-3.65722e-05,0
0.2,4.8,0,0.299994,-3.93703e-05,0
0.2,4.9,0,0.29999,-7.5746e-05,0
0.2,5,0,0.3,-3.20211e-05,0
0.2,5.1,0,0.300001,-2.86577e-05,0
0.2,5.2,0,0.299995,-4.63919e-05,0
0.2,5.3,0,0.300002,-4.45515e-05,0
0.2,5.4,0,0.300015,-2.46938e-05,0
0.2,5.5,0,0.300013,-2.62343e-05,0
0.2,5.6,0,0.29999,-4.62601e-05,0
0.2,5.7,0,0.300036,-2.56781e-05,0
0.2,5.8,0,0.30004,-2.40949e-05,0
0.2,5.9,0,0.300012,-2.68996e-05,0
0.2,6,0,0.300029,-2.73269e-05,0
0.2,6.1,0,0.300078,-2.50153e-05,0
0.2,6.2,0,0.300071,-2.40296e-05,0
0.2,6.3,0,0.299983,-1.12153e-05,0
0.2,6.4,0,0.300114,-2.29129e-05,0
0.2,6.5,0,0.300124,-2.38127e-05,0
0.2,6.6,0,0.300046,-6.80784e-06,0
0.2,6.7,0,0.300067,-5.55938e-06,0
0.2,6.8,0,0.30017,-2.11238e-05,0
0.2,6.9,0,0.300156,-1.79958e-05,0
0.2,7,0,0.299972,2.26677e-05,0
0.2,7.1,0,0.29997,2.92643e-05,0
0.2,7.2,0,0.299969,3.29301e-05,0
0.2,7.3,0,0.299968,3.65461e-05,0
0.2,7.4,0,0.299968,4.01877e-05,0
0.2,7.5,0,0.299967,4.38352e-05,0
0.2,7.6,0,0.299967,4.74777e-05,0
0.2,7.7,0,0.299968,5.11097e-05,0
0.2,7.8,0,0.299969,5.47229e-05,0
0.2,7.9,0,0.29997,5.83635e-05,0
0.2,8,0,0.299972,6.35347e-05,0
0.2,8.1,0,0.300178,8.47563e-05,0
0.2,8.2,0,0.300073,7.83894e-05,0
0.2,8.3,0,0.30013,9.18242e-05,0
0.2,8.4,0,0.300142,9.36683e-05,0
0.2,8.5,0,0.300035,9.0419e-05,0
0.2,8.6,0,0.300113,0.000100288,0
0.2,8.7,0,0.299993,9.47157e-05,0
0.2,8.8,0,0.300079,0.000103985,0
0.2,8.9,0,0.300039,0.000104391,0
0.2,9,0,0.300038,0.000105336,0
0.2,9.1,0,0.300049,0.000105427,0
0.2,9.2,0,0.300002,0.000111768,0
0.2,9.3,0,0.300023,0.00010542,0
0.2,9.4,0,0.299998,0.000122181,0
0.2,9.5,0,0.300004,0.00010483,0
0.2,9.6,0,0.300001,0.000115851,0
0.2,9.7,0,0.299993,0.000111478,0
0.2,9.8,0,0.299992,0.000104387,0
0.2,9.9,0,0.299992,0.000131987,0
0.2,10,0,0.299985,0.000104612,0
0.2,10.1,0,0.299993,0.000140697,0
0.2,10.2,0,0.299982,0.000105782,0
0.2,10.3,0,0.299986,0.0001216,0
0.2,10.4,0,0.299985,0.000123096,0
0.2,10.5,0,0.299981,0.000107945,0
0.2,10.6,0,0.299992,0.000152368,0
0.2,10.7,0,0.299982,0.000110976,0
0.2,10.8,0,0.299991,0.000152664,0
0.2,10.9,0,0.299984,0.000114642,0
0.2,11,0,0.299987,0.00012868,0
0.2,11.1,0,0.299989,0.00013929,0
0.2,11.2,0,0.299986,0.000118659,0
0.2,11.3,0,0.299994,0.000169742,0
0.2,11.4,0,0.299988,0.000122738,0
0.2,11.5,0,0.299993,0.000160609,0
0.2,11.6,0,0.29999,0.000126607,0
0.2,11.7,0,0.299991,0.00013626,0
0.2,11.8,0,0.299994,0.000153842,0
0.2,11.9,0,0.299992,0.00013003,0
0.2,12,0,0.299997,0.00018177,0
0.2,12.1,0,0.299994,0.000132804,0
0.2,12.2,0,0.299997,0.000164449,0
0.2,12.3,0,0.299996,0.000136427,0
0.2,12.4,0,0.299997,0.000140121,0
0.2,12.5,0,0.299998,0.000162629,0
0.2,12.6,0,0.299997,0.000163076,0
0.2,12.7,0,0.299998,0.000258775,0
0.3,0,0,0.299999,-0.000316294,0
0.3,0.1,0,0.3,-0.000277889,0
0.3,0.2,0,0.3,-0.000244931,0
0.3,0.3,0,0.299999,-0.000247238,0
0.3,0.4,0,0.299998,-0.000246543,0
0.3,0.5,0,0.299999,-0.000242845,0
0.3,0.6,0,0.299998,-0.000243832,0
0.3,0.7,0,0.299996,-0.000246128,0
0.3,0.8,0,0.299998,-0.000241072,0
0.3,0.9,0,0.299999,-0.000238277,0
0.3,1,0,0.299996,-0.000241024,0
0.3,1.1,0,0.299996,-0.000238913,0
0.3,1.2,0,0.299998,-0.000231946,0
0.3,1.3,0,0.299996,-0.000233463,0
0.3,1.4,0,0.299993,-0.000237234,0
0.3,1.5,0,0.299996,-0.000227712,0
0.3,1.6,0,0.299998,-0.000222484,0
0.3,1.7,0,0.299993,-0.000227954,0
0.3,1.8,0,0.299993,-0.000224277,0
0.3,1.9,0,0.299997,-0.00021145,0
0.3,2,0,0.299994,-0.000214864,0
0.3,2.1,0,0.299989,-0.000222815,0
0.3,2.2,0,0.299993,-0.000205859,0
0.3,2.3,0,0.299995,-0.000196727,0
0.3,2.4,0,0.29999,-0.000208018,0
0.3,2.5,0,0.29999,-0.000202705,0
0.3,2.6,0,0.299994,-0.000180789,0
0.3,2.7,0,0.299991,-0.000187793,0
0.3,2.8,0,0.299986,-0.000203284,0
0.3,2.9,0,0.29999,-0.000175692,0
0.3,3,0,0.299992,-0.000161069,0
0.3,3.1,0,0.299987,-0.000181494,0
0.3,3.2,0,0.299987,-0.00017486,0
0.3,3.3,0,0.29999,-0.000141168,0
0.3,3.4,0,0.299988,-0.000153145,0
0.3,3.5,0,0.299984,-0.000178925,0
0.3,3.6,0,0.299987,-0.000139228,0
0.3,3.7,0,0.299989,-0.000118377,0
0.3,3.8,0,0.299985,-0.000149383,0
0.3,3.9,0,0.299985,-0.000142474,0
0.3,4,0,0.299988,-9.76521e-05,0
0.3,4.1,0,0.299986,-0.00011419,0
0.3,4.2,0,0.299983,-0.000149468,0
0.3,4.3,0,0.299986,-0.000101449,0
0.3,4.4,0,0.299988,-7.62259e-05,0
0.3,4.5,0,0.299985,-0.000113722,0
0.3,4.6,0,0.299986,-0.000108447,0
0.3,4.7,0,0.29999,-6.04019e-05,0
0.3,4.8,0,0.299988,-7.72433e-05,0
0.3,4.9,0,0.299985,-0.000113619,0
0.3,5,0,0.299995,-6.98941e-05,0
0.3,5.1,0,0.3,-4.65333e-05,0
0.3,5.2,0,0.29999,-7.72727e-05,0
0.3,5.3,0,0.299997,-7.54323e-05,0
0.3,5.4,0,0.30002,-4.10123e-05,0
0.3,5.5,0,0.300008,-4.93644e-05,0
0.3,5.6,0,0.299984,-6.93902e-05,0
0.3,5.7,0,0.300031,-4.88082e-05,0
0.3,5.8,0,0.300054,-3.67033e-05,0
0.3,5.9,0,0.300005,-4.15647e-05,0
0.3,6,0,0.300023,-4.1992e-05,0
0.3,6.1,0,0.300107,-3.79852e-05,0
0.3,6.2,0,0.300062,-2.96372e-05,0
0.3,6.3,0,0.299975,-1.6823e-05,0
0.3,6.4,0,0.300106,-2.85206e-05,0
0.3,6.5,0,0.300171,-3.23181e-05,0
0.3,6.6,0,0.300034,-2.84296e-06,0
0.3,6.7,0,0.300055,-1.59451e-06,0
0.3,6.8,0,0.300234,-2.85728e-05,0
0.3,6.9,0,0.300142,-6.66193e-06,0
0.3,7,0,0.299959,3.40016e-05,0
0.3,7.1,0,0.299955,4.38964e-05,0
0.3,7.2,0,0.299953,4.93951e-05,0
0.3,7.3,0,0.299952,5.48192e-05,0
0.3,7.4,0,0.299951,6.02815e-05,0
0.3,7.5,0,0.299951,6.57528e-05,0
0.3,7.6,0,0.299951,7.12166e-05,0
0.3,7.7,0,0.299952,7.66645e-05,0
0.3,7.8,0,0.299953,8.20844e-05,0
0.3,7.9,0,0.299955,8.75453e-05,0
0.3,8,0,0.299958,9.5302e-05,0
0.3,8.1,0,0.300243,0.000124651,0
0.3,8.2,0,0.300061,0.000114597,0
0.3,8.3,0,0.300117,0.000128032,0
0.3,8.4,0,0.300132,0.000135379,0
0.3,8.5,0,0.300025,0.000132129,0
0.3,8.6,0,0.300164,0.000150145,0
0.3,8.7,0,0.299986,0.000141867,0
0.3,8.8,0,0.300101,0.000154175,0
0.3,8.9,0,0.300033,0.000156838,0
0.3,9,0,0.300033,0.000157783,0
0.3,9.1,0,0.300046,0.000162628,0
0.3,9.2,0,0.299998,0.00016933,0
0.3,9.3,0,0.300035,0.00015813,0
0.3,9.4,0,0.299994,0.000184617,0
0.3,9.5,0,0.300004,0.000162361,0
0.3,9.6,0,0.299998,0.000182857,0
0.3,9.7,0,0.29999,0.000178485,0
0.3,9.8,0,0.299989,0.000171564,0
0.3,9.9,0,0.29999,0.000203214,0
0.3,10,0,0.299977,0.000156918,0
0.3,10.1,0,0.299991,0.000215767,0
0.3,10.2,0,0.299977,0.000173066,0
0.3,10.3,0,0.299983,0.000200128,0
0.3,10.4,0,0.299983,0.000201624,0
0.3,10.5,0,0.299976,0.000179847,0
0.3,10.6,0,0.29999,0.000233969,0
0.3,10.7,0,0.299973,0.000166464,0
0.3,10.8,0,0.299989,0.000236966,0
0.3,10.9,0,0.29998,0.000193203,0
0.3,11,0,0.299984,0.000215324,0
0.3,11.1,0,0.299987,0.000225934,0
0.3,11.2,0,0.299981,0.000192957,0
0.3,11.3,0,0.299992,0.000258384,0
0.3,11.4,0,0.299982,0.000184107,0
0.3,11.5,0,0.299991,0.00025092,0
0.3,11.6,0,0.299988,0.000214906,0
0.3,11.7,0,0.299989,0.000227922,0
0.3,11.8,0,0.299992,0.000245503,0
0.3,11.9,0,0.299989,0.000205355,0
0.3,12,0,0.299995,0.000274473,0
0.3,12.1,0,0.299992,0.000201724,0
0.3,12.2,0,0.299996,0.000257893,0
0.3,12.3,0,0.299995,0.000229871,0
0.3,12.4,0,0.299996,0.000234006,0
0.3,12.5,0,0.299998,0.000256514,0
0.3,12.6,0,0.299996,0.00022139,0
0.3,12.7,0,0.299998,0.000337094,0
0.4,0,0,0.299999,-0.000380163,0
0.4,0.1,0,0.299999,-0.000341758,0
0.4,0.2,0,0.299999,-0.000328155,0
0.4,0.3,0,0.299998,-0.000330035,0
0.4,0.4,0,0.299998,-0.00032934,0
0.4,0.5,0,0.299998,-0.000325996,0
0.4,0.6,0,0.299997,-0.000325874,0
0.4,0.7,0,0.299995,-0.00032817,0
0.4,0.8,0,0.299997,-0.000323114,0
0.4,0.9,0,0.299997,-0.000319854,0
0.4,1,0,0.299994,-0.000321823,0
0.4,1.1,0,0.299994,-0.000319712,0
0.4,1.2,0,0.299996,-0.000313325,0
0.4,1.3,0,0.299994,-0.000312541,0
0.4,1.4,0,0.299991,-0.000316312,0
0.4,1.5,0,0.299994,-0.00030679,0
0.4,1.6,0,0.299994,-0.000300845,0
0.4,1.7,0,0.29999,-0.000304851,0
0.4,1.8,0,0.29999,-0.000301173,0
0.4,1.9,0,0.299993,-0.00028957,0
0.4,2,0,0.299991,-0.000289135,0
0.4,2.1,0,0.299986,-0.000297086,0
0.4,2.2,0,0.29999,-0.000280131,0
0.4,2.3,0,0.29999,-0.000270557,0
0.4,2.4,0,0.299986,-0.000279239,0
0.4,2.5,0,0.299986,-0.000273926,0
0.4,2.6,0,0.299989,-0.000254393,0
0.4,2.7,0,0.299987,-0.000255554,0
0.4,2.8,0,0.299981,-0.000271045,0
0.4,2.9,0,0.299985,-0.000243453,0
0.4,3,0,0.299986,-0.000229216,0
0.4,3.1,0,0.299982,-0.000245396,0
0.4,3.2,0,0.299981,-0.000238762,0
0.4,3.3,0,0.299985,-0.000209037,0
0.4,3.4,0,0.299983,-0.000212787,0
0.4,3.5,0,0.299978,-0.000238566,0
0.4,3.6,0,0.299981,-0.00019887,0
0.4,3.7,0,0.299982,-0.000179446,0
0.4,3.8,0,0.299979,-0.000204345,0
0.4,3.9,0,0.299979,-0.000197436,0
0.4,4,0,0.299982,-0.000158041,0
0.4,4.1,0,0.299981,-0.000164012,0
0.4,4.2,0,0.299978,-0.00019929,0
0.4,4.3,0,0.299981,-0.000151272,0
0.4,4.4,0,0.299982,-0.00012777,0
0.4,4.5,0,0.29998,-0.000157878,0
0.4,4.6,0,0.29998,-0.000152603,0
0.4,4.7,0,0.299984,-0.000110155,0
0.4,4.8,0,0.299983,-0.000115116,0
0.4,4.9,0,0.29998,-0.000151492,0
0.4,5,0,0.29999,-0.000107767,0
0.4,5.1,0,0.299993,-8.4141e-05,0
0.4,5.2,0,0.299985,-0.000108153,0
0.4,5.3,0,0.299992,-0.000106313,0
0.4,5.4,0,0.300011,-7.4974e-05,0
0.4,5.5,0,0.300003,-7.24944e-05,0
0.4,5.6,0,0.299979,-9.25203e-05,0
0.4,5.7,0,0.300026,-7.19383e-05,0
0.4,5.8,0,0.300041,-5.45349e-05,0
0.4,5.9,0,0.299999,-5.62298e-05,0
0.4,6,0,0.300017,-5.66571e-05,0
0.4,6.1,0,0.300087,-5.06789e-05,0
0.4,6.2,0,0.300054,-3.52449e-05,0
0.4,6.3,0,0.299966,-2.24307e-05,0
0.4,6.4,0,0.300097,-3.41283e-05,0
0.4,6.5,0,0.300139,-2.65536e-05,0
0.4,6.6,0,0.300023,1.12191e-06,0
0.4,6.7,0,0.300044,2.37037e-06,0
0.4,6.8,0,0.300195,-1.8352e-05,0
0.4,6.9,0,0.300128,4.67194e-06,0
0.4,7,0,0.299945,4.53355e-05,0
0.4,7.1,0,0.29994,5.85286e-05,0
0.4,7.2,0,0.299938,6.58602e-05,0
0.4,7.3,0,0.299936,7.30922e-05,0
0.4,7.4,0,0.299935,8.03754e-05,0
0.4,7.5,0,0.299935,8.76704e-05,0
0.4,7.6,0,0.299935,9.49555e-05,0
0.4,7.7,0,0.299936,0.000102219,0
0.4,7.8,0,0.299938,0.000109446,0
0.4,7.9,0,0.29994,0.000116727,0
0.4,8,0,0.299944,0.000127069,0
0.4,8.1,0,0.300202,0.000154777,0
0.4,8.2,0,0.300049,0.000150806,0
0.4,8.3,0,0.300105,0.00016424,0
0.4,8.4,0,0.300122,0.000177089,0
0.4,8.5,0,0.300015,0.00017384,0
0.4,8.6,0,0.300129,0.000193887,0
0.4,8.7,0,0.299978,0.000189017,0
0.4,8.8,0,0.300088,0.000201384,0
0.4,8.9,0,0.300027,0.000209285,0
0.4,9,0,0.300027,0.00021023,0
0.4,9.1,0,0.300042,0.000220189,0
0.4,9.2,0,0.299994,0.000226891,0
0.4,9.3,0,0.300024,0.000222784,0
0.4,9.4,0,0.299991,0.000247053,0
0.4,9.5,0,0.3,0.000224797,0
0.4,9.6,0,0.299995,0.000249864,0
0.4,9.7,0,0.299987,0.000245491,0
0.4,9.8,0,0.299987,0.000242792,0
0.4,9.9,0,0.299988,0.000274442,0
0.4,10,0,0.299977,0.000240755,0
0.4,10.1,0,0.299988,0.000290838,0
0.4,10.2,0,0.299974,0.000248137,0
0.4,10.3,0,0.299981,0.000278656,0
0.4,10.4,0,0.29998,0.000280152,0
0.4,10.5,0,0.299973,0.000261448,0
0.4,10.6,0,0.299987,0.00031557,0
0.4,10.7,0,0.299974,0.00026296,0
0.4,10.8,0,0.299986,0.000321268,0
0.4,10.9,0,0.299978,0.000277505,0
0.4,11,0,0.299981,0.000301968,0
0.4,11.1,0,0.299984,0.000312578,0
0.4,11.2,0,0.299979,0.0002816,0
0.4,11.3,0,0.299989,0.000347027,0
0.4,11.4,0,0.299981,0.000287291,0
0.4,11.5,0,0.299988,0.000341231,0
0.4,11.6,0,0.299985,0.000305217,0
0.4,11.7,0,0.299987,0.000319583,0
0.4,11.8,0,0.29999,0.000337164,0
0.4,11.9,0,0.299988,0.00030146,0
0.4,12,0,0.299994,0.000367177,0
0.4,12.1,0,0.299991,0.000305359,0
0.4,12.2,0,0.299995,0.000351336,0
0.4,12.3,0,0.299994,0.000323315,0
0.4,12.4,0,0.299995,0.000327892,0
0.4,12.5,0,0.299997,0.0003504,0
0.4,12.6,0,0.299996,0.000310796,0
0.4,12.7,0,0.299998,0.000415413,0
0.5,0,0,0.299998,-0.000444032,0
0.5,0.1,0,0.299999,-0.000412922,0
0.5,0.2,0,0.299998,-0.000412449,0
0.5,0.3,0,0.299997,-0.000412832,0
0.5,0.4,0,0.299997,-0.000412137,0
0.5,0.5,0,0.299997,-0.000410029,0
0.5,0.6,0,0.299996,-0.000408628,0
0.5,0.7,0,0.299994,-0.000410213,0
0.5,0.8,0,0.299995,-0.000405685,0
0.5,0.9,0,0.299994,-0.000403375,0
0.5,1,0,0.299993,-0.000402622,0
0.5,1.1,0,0.299992,-0.000400511,0
0.5,1.2,0,0.299992,-0.000396155,0
0.5,1.3,0,0.299991,-0.000392959,0
0.5,1.4,0,0.299988,-0.00039539,0
0.5,1.5,0,0.299991,-0.00038692,0
0.5,1.6,0,0.29999,-0.000382869,0
0.5,1.7,0,0.299988,-0.000381748,0
0.5,1.8,0,0.299987,-0.00037807,0
0.5,1.9,0,0.299988,-0.000370748,0
0.5,2,0,0.299986,-0.000365873,0
0.5,2.1,0,0.299982,-0.000371358,0
0.5,2.2,0,0.299985,-0.000356573,0
0.5,2.3,0,0.299984,-0.000350908,0
0.5,2.4,0,0.299982,-0.00035046,0
0.5,2.5,0,0.299982,-0.000345147,0
0.5,2.6,0,0.299982,-0.000333956,0
0.5,2.7,0,0.299981,-0.00032753,0
0.5,2.8,0,0.299977,-0.000338807,0
0.5,2.9,0,0.29998,-0.000315142,0
0.5,3,0,0.299979,-0.000307975,0
0.5,3.1,0,0.299977,-0.000309298,0
0.5,3.2,0,0.299976,-0.000302664,0
0.5,3.3,0,0.299977,-0.00028682,0
0.5,3.4,0,0.299976,-0.000278908,0
0.5,3.5,0,0.299973,-0.000298208,0
0.5,3.6,0,0.299975,-0.000264474,0
0.5,3.7,0,0.299975,-0.000255783,0
0.5,3.8,0,0.299974,-0.000259306,0
0.5,3.9,0,0.299973,-0.000252398,0
0.5,4,0,0.299974,-0.000231999,0
0.5,4.1,0,0.299974,-0.000222454,0
0.5,4.2,0,0.299972,-0.000249113,0
0.5,4.3,0,0.299974,-0.000208305,0
0.5,4.4,0,0.299975,-0.000197782,0
0.5,4.5,0,0.299974,-0.000202035,0
0.5,4.6,0,0.299975,-0.00019676,0
0.5,4.7,0,0.299977,-0.000173898,0
0.5,4.8,0,0.299977,-0.000162229,0
0.5,4.9,0,0.299974,-0.000189365,0
0.5,5,0,0.299983,-0.000151552,0
0.5,5.1,0,0.299983,-0.000138566,0
0.5,5.2,0,0.29998,-0.000139034,0
0.5,5.3,0,0.299987,-0.000137194,0
0.5,5.4,0,0.299993,-0.000116638,0
0.5,5.5,0,0.299993,-0.000102244,0
0.5,5.6,0,0.299974,-0.00011565,0
0.5,5.7,0,0.300011,-9.60032e-05,0
0.5,5.8,0,0.300009,-8.02826e-05,0
0.5,5.9,0,0.299993,-7.08949e-05,0
0.5,6,0,0.30001,-7.13223e-05,0
0.5,6.1,0,0.300033,-5.84441e-05,0
0.5,6.2,0,0.300029,-4.16231e-05,0
0.5,6.3,0,0.299958,-2.80383e-05,0
0.5,6.4,0,0.300063,-3.40676e-05,0
0.5,6.5,0,0.300057,-1.62901e-05,0
0.5,6.6,0,0.300012,5.08678e-06,0
0.5,6.7,0,0.300033,6.33524e-06,0
0.5,6.8,0,0.300085,7.50866e-06,0
0.5,6.9,0,0.30008,2.11939e-05,0
0.5,7,0,0.299931,5.66693e-05,0
0.5,7.1,0,0.299925,7.31607e-05,0
0.5,7.2,0,0.299923,8.23252e-05,0
0.5,7.3,0,0.29992,9.13653e-05,0
0.5,7.4,0,0.299919,0.000100469,0
0.5,7.5,0,0.299918,0.000109588,0
0.5,7.6,0,0.299919,0.000118694,0
0.5,7.7,0,0.29992,0.000127774,0
0.5,7.8,0,0.299922,0.000136807,0
0.5,7.9,0,0.299925,0.000145909,0
0.5,8,0,0.299929,0.000158837,0
0.5,8.1,0,0.300086,0.000180375,0
0.5,8.2,0,0.300036,0.000187014,0
0.5,8.3,0,0.300068,0.000198872,0
0.5,8.4,0,0.300074,0.000214091,0
0.5,8.5,0,0.300005,0.00021555,0
0.5,8.6,0,0.300055,0.000232604,0
0.5,8.7,0,0.29997,0.000236168,0
0.5,8.8,0,0.300035,0.000248989,0
0.5,8.9,0,0.300021,0.000261731,0
0.5,9,0,0.300016,0.00026345,0
0.5,9.1,0,0.300021,0.000277597,0
0.5,9.2,0,0.29999,0.000284453,0
0.5,9.3,0,0.300005,0.000290072,0
0.5,9.4,0,0.299988,0.000309489,0
0.5,9.5,0,0.299993,0.000301669,0
0.5,9.6,0,0.299993,0.00031687,0
0.5,9.7,0,0.299985,0.000312903,0
0.5,9.8,0,0.299985,0.000324577,0
0.5,9.9,0,0.299985,0.000345669,0
0.5,10,0,0.29998,0.000334746,0
0.5,10.1,0,0.299986,0.000365909,0
0.5,10.2,0,0.299978,0.000345026,0
0.5,10.3,0,0.299978,0.000357184,0
0.5,10.4,0,0.299978,0.000358679,0
0.5,10.5,0,0.299977,0.000363947,0
0.5,10.6,0,0.299984,0.000397171,0
0.5,10.7,0,0.299978,0.000373375,0
0.5,10.8,0,0.299983,0.000405569,0
0.5,10.9,0,0.299979,0.000382707,0
0.5,11,0,0.299979,0.000389186,0
0.5,11.1,0,0.299982,0.000399223,0
0.5,11.2,0,0.299981,0.000397266,0
0.5,11.3,0,0.299987,0.000435669,0
0.5,11.4,0,0.299983,0.000404876,0
0.5,11.5,0,0.299986,0.000431542,0
0.5,11.6,0,0.299985,0.000411819,0
0.5,11.7,0,0.299986,0.000415554,0
0.5,11.8,0,0.299988,0.000428825,0
0.5,11.9,0,0.299988,0.00042081,0
0.5,12,0,0.299993,0.000459881,0
0.5,12.1,0,0.299991,0.000425105,0
0.5,12.2,0,0.299994,0.00044478,0
0.5,12.3,0,0.299994,0.000428319,0
0.5,12.4,0,0.299995,0.000429541,0
0.5,12.5,0,0.299997,0.000444286,0
0.5,12.6,0,0.299997,0.000430799,0
0.5,12.7,0,0.299998,0.000493732,0
0.6,0,0,0.299998,-0.000507901,0
0.6,0.1,0,0.299998,-0.000497216,0
0.6,0.2,0,0.299997,-0.000496743,0
0.6,0.3,0,0.299997,-0.000496271,0
0.6,0.4,0,0.299996,-0.000495464,0
0.6,0.5,0,0.299995,-0.000494063,0
0.6,0.6,0,0.299994,-0.000492661,0
0.6,0.7,0,0.299993,-0.000492255,0
0.6,0.8,0,0.299993,-0.000489206,0
0.6,0.9,0,0.299991,-0.000486897,0
0.6,1,0,0.29999,-0.000484587,0
0.6,1.1,0,0.29999,-0.000482181,0
0.6,1.2,0,0.299989,-0.000478985,0
0.6,1.3,0,0.299988,-0.000475789,0
0.6,1.4,0,0.299986,-0.000474468,0
0.6,1.5,0,0.299986,-0.000468944,0
0.6,1.6,0,0.299985,-0.000464893,0
0.6,1.7,0,0.299984,-0.000460842,0
0.6,1.8,0,0.299983,-0.000456801,0
0.6,1.9,0,0.299982,-0.000451926,0
0.6,2,0,0.299981,-0.000447051,0
0.6,2.1,0,0.299979,-0.00044563,0
0.6,2.2,0,0.299979,-0.000436925,0
0.6,2.3,0,0.299978,-0.000431259,0
0.6,2.4,0,0.299977,-0.000425594,0
0.6,2.5,0,0.299976,-0.000419943,0
0.6,2.6,0,0.299975,-0.000413518,0
0.6,2.7,0,0.299974,-0.000407093,0
0.6,2.8,0,0.299972,-0.000406568,0
0.6,2.9,0,0.299973,-0.000393902,0
0.6,3,0,0.299972,-0.000386734,0
0.6,3.1,0,0.299971,-0.000379567,0
0.6,3.2,0,0.29997,-0.000372515,0
0.6,3.3,0,0.29997,-0.000364603,0
0.6,3.4,0,0.299969,-0.000356691,0
0.6,3.5,0,0.299967,-0.000357849,0
0.6,3.6,0,0.299968,-0.000340811,0
0.6,3.7,0,0.299967,-0.00033212,0
0.6,3.8,0,0.299967,-0.000323429,0
0.6,3.9,0,0.299967,-0.000315501,0
0.6,4,0,0.299967,-0.000305956,0
0.6,4.1,0,0.299967,-0.000296412,0
0.6,4.2,0,0.299966,-0.000298935,0
0.6,4.3,0,0.299967,-0.000278317,0
0.6,4.4,0,0.299968,-0.000267795,0
0.6,4.5,0,0.299968,-0.000257272,0
0.6,4.6,0,0.299969,-0.000249311,0
0.6,4.7,0,0.299969,-0.000237642,0
0.6,4.8,0,0.29997,-0.000225972,0
0.6,4.9,0,0.299969,-0.000227238,0
0.6,5,0,0.299972,-0.000205977,0
0.6,5.1,0,0.299973,-0.000192991,0
0.6,5.2,0,0.299973,-0.000180005,0
0.6,5.3,0,0.299976,-0.000172696,0
0.6,5.4,0,0.299976,-0.000158302,0
0.6,5.5,0,0.299975,-0.000143908,0
0.6,5.6,0,0.299969,-0.00013878,0
0.6,5.7,0,0.29998,-0.000121751,0
0.6,5.8,0,0.299978,-0.00010603,0
0.6,5.9,0,0.299976,-9.03098e-05,0
0.6,6,0,0.299984,-8.30303e-05,0
0.6,6.1,0,0.29998,-6.62093e-05,0
0.6,6.2,0,0.299976,-4.93883e-05,0
0.6,6.3,0,0.299949,-3.3646e-05,0
0.6,6.4,0,0.299981,-2.38041e-05,0
0.6,6.5,0,0.299975,-6.02648e-06,0
0.6,6.6,0,0.29997,1.17511e-05,0
0.6,6.7,0,0.299979,1.9684e-05,0
0.6,6.8,0,0.299975,3.33693e-05,0
0.6,6.9,0,0.29997,4.70545e-05,0
0.6,7,0,0.299917,6.80032e-05,0
0.6,7.1,0,0.29991,8.77929e-05,0
0.6,7.2,0,0.299907,9.87903e-05,0
0.6,7.3,0,0.299904,0.000109638,0
0.6,7.4,0,0.299903,0.000120563,0
0.6,7.5,0,0.299902,0.000131506,0
0.6,7.6,0,0.299902,0.000142433,0
0.6,7.7,0,0.299904,0.000153329,0
0.6,7.8,0,0.299906,0.000164169,0
0.6,7.9,0,0.29991,0.000175091,0
0.6,8,0,0.299915,0.000190604,0
0.6,8.1,0,0.299971,0.000205972,0
0.6,8.2,0,0.299976,0.000218255,0
0.6,8.3,0,0.299972,0.000229788,0
0.6,8.4,0,0.299978,0.000245007,0
0.6,8.5,0,0.299974,0.000256274,0
0.6,8.6,0,0.29998,0.000271322,0
0.6,8.7,0,0.299962,0.000283319,0
0.6,8.8,0,0.299981,0.000296594,0
0.6,8.9,0,0.299987,0.000311242,0
0.6,9,0,0.299982,0.000320745,0
0.6,9.1,0,0.299986,0.000334892,0
0.6,9.2,0,0.299983,0.000343877,0
0.6,9.3,0,0.299985,0.000357359,0
0.6,9.4,0,0.299985,0.000371924,0
0.6,9.5,0,0.299985,0.000378697,0
0.6,9.6,0,0.299986,0.000391339,0
0.6,9.7,0,0.299984,0.000398943,0
0.6,9.8,0,0.299984,0.000410617,0
0.6,9.9,0,0.299983,0.000418107,0
0.6,10,0,0.299983,0.000428738,0
0.6,10.1,0,0.299983,0.000440979,0
0.6,10.2,0,0.299982,0.000445733,0
0.6,10.3,0,0.299982,0.000455295,0
0.6,10.4,0,0.299981,0.000461602,0
0.6,10.5,0,0.299981,0.000470103,0
0.6,10.6,0,0.299982,0.000478773,0
0.6,10.7,0,0.299981,0.00048379,0
0.6,10.8,0,0.299981,0.00049126,0
0.6,10.9,0,0.299982,0.000496332,0
0.6,11,0,0.299982,0.000502811,0
0.6,11.1,0,0.299982,0.000507695,0
0.6,11.2,0,0.299983,0.000513223,0
0.6,11.3,0,0.299984,0.000524312,0
0.6,11.4,0,0.299984,0.000522461,0
0.6,11.5,0,0.299985,0.000527075,0
0.6,11.6,0,0.299986,0.000530488,0
0.6,11.7,0,0.299987,0.000534222,0
0.6,11.8,0,0.299988,0.000537276,0
0.6,11.9,0,0.299989,0.000540159,0
0.6,12,0,0.299991,0.000552584,0
0.6,12.1,0,0.299992,0.000544851,0
0.6,12.2,0,0.299993,0.000546898,0
0.6,12.3,0,0.299994,0.000548267,0
0.6,12.4,0,0.299996,0.000549488,0
0.6,12.5,0,0.299997,0.000550397,0
0.6,12.6,0,0.299997,0.000550803,0
0.6,12.7,0,0.299998,0.000572051,0
0.7,0,0,0.299998,-0.000582266,0
0.7,0.1,0,0.299997,-0.000581764,0
0.7,0.2,0,0.299997,-0.000581292,0
0.7,0.3,0,0.299996,-0.000580819,0
0.7,0.4,0,0.299995,-0.000579744,0
0.7,0.5,0,0.299994,-0.000578342,0
0.7,0.6,0,0.299993,-0.000576941,0
0.7,0.7,0,0.299991,-0.000575155,0
0.7,0.8,0,0.29999,-0.000572971,0
0.7,0.9,0,0.299989,-0.000570662,0
0.7,1,0,0.299988,-0.000568352,0
0.7,1.1,0,0.299986,-0.000565245,0
0.7,1.2,0,0.299985,-0.000562049,0
0.7,1.3,0,0.299984,-0.000558853,0
0.7,1.4,0,0.299982,-0.000554284,0
0.7,1.5,0,0.299981,-0.000551194,0
0.7,1.6,0,0.29998,-0.000547143,0
0.7,1.7,0,0.299979,-0.000543092,0
0.7,1.8,0,0.299978,-0.000538197,0
0.7,1.9,0,0.299977,-0.000533322,0
0.7,2,0,0.299975,-0.000528447,0
0.7,2.1,0,0.299973,-0.000520309,0
0.7,2.2,0,0.299973,-0.000517484,0
0.7,2.3,0,0.299972,-0.000511819,0
0.7,2.4,0,0.299971,-0.000506154,0
0.7,2.5,0,0.299969,-0.000499707,0
0.7,2.6,0,0.299968,-0.000493282,0
0.7,2.7,0,0.299967,-0.000486856,0
0.7,2.8,0,0.299964,-0.000474033,0
0.7,2.9,0,0.299965,-0.000472859,0
0.7,3,0,0.299964,-0.000465692,0
0.7,3.1,0,0.299963,-0.000458525,0
0.7,3.2,0,0.299963,-0.000450501,0
0.7,3.3,0,0.299962,-0.000442589,0
0.7,3.4,0,0.299961,-0.000434677,0
0.7,3.5,0,0.299957,-0.000416038,0
0.7,3.6,0,0.29996,-0.000417364,0
0.7,3.7,0,0.29996,-0.000408673,0
0.7,3.8,0,0.29996,-0.000399983,0
0.7,3.9,0,0.29996,-0.000389702,0
0.7,4,0,0.29996,-0.000380157,0
0.7,4.1,0,0.29996,-0.000370613,0
0.7,4.2,0,0.299955,-0.000345908,0
0.7,4.3,0,0.29996,-0.000348614,0
0.7,4.4,0,0.299961,-0.000338091,0
0.7,4.5,0,0.299961,-0.000327568,0
0.7,4.6,0,0.299961,-0.000313388,0
0.7,4.7,0,0.299962,-0.000301719,0
0.7,4.8,0,0.299962,-0.000290049,0
0.7,4.9,0,0.299957,-0.000261373,0
0.7,5,0,0.299962,-0.000260776,0
0.7,5.1,0,0.299962,-0.000247791,0
0.7,5.2,0,0.299963,-0.000234805,0
0.7,5.3,0,0.299959,-0.000214743,0
0.7,5.4,0,0.299959,-0.000200349,0
0.7,5.5,0,0.299958,-0.000185955,0
0.7,5.6,0,0.299957,-0.000158984,0
0.7,5.7,0,0.299949,-0.000147829,0
0.7,5.8,0,0.299947,-0.000132109,0
0.7,5.9,0,0.299944,-0.000116388,0
0.7,6,0,0.299931,-9.10573e-05,0
0.7,6.1,0,0.299927,-7.42363e-05,0
0.7,6.2,0,0.299923,-5.74153e-05,0
0.7,6.3,0,0.299938,-3.92627e-05,0
0.7,6.4,0,0.299899,-1.37937e-05,0
0.7,6.5,0,0.299894,3.98386e-06,0
0.7,6.6,0,0.299889,2.17614e-05,0
0.7,6.7,0,0.299868,4.80014e-05,0
0.7,6.8,0,0.299864,6.16867e-05,0