/*--------------------------------*- C++ -*----------------------------------*\
| =========                 |                                                 |
| \\      /  F ield         | OpenFOAM: The Open Source CFD Toolbox           |
|  \\    /   O peration     | Version:  v1806                                 |
|   \\  /    A nd           | Web:      www.OpenFOAM.com                      |
|    \\/     M anipulation  |                                                 |
\*---------------------------------------------------------------------------*/
FoamFile
{
    version     2.0;
    format      ascii;
    class       volVectorField;
    location    "330";
    object      U;
}
// * * * * * * * * * * * * * * * * * * * * * * * * * * * * * * * * * * * * * //

dimensions      [0 1 -1 0 0 0 0];


internalField   nonuniform List<vector> 
2400
(
(0.3 -0.000779114 0)
(0.299997 -0.00234103 0)
(0.299991 -0.00391315 0)
(0.29998 -0.00550235 0)
(0.299965 -0.00711337 0)
(0.299947 -0.00874996 0)
(0.299927 -0.010412 0)
(0.299906 -0.0120975 0)
(0.299886 -0.0137989 0)
(0.299872 -0.0155053 0)
(0.299868 -0.0171987 0)
(0.29988 -0.0188567 0)
(0.299914 -0.0204478 0)
(0.299978 -0.021937 0)
(0.300079 -0.0232795 0)
(0.300227 -0.0244305 0)
(0.300425 -0.0253378 0)
(0.300682 -0.0259581 0)
(0.300993 -0.0262438 0)
(0.301373 -0.0261718 0)
(0.3 -0.000777317 0)
(0.299992 -0.00233565 0)
(0.299978 -0.00390408 0)
(0.299956 -0.00548985 0)
(0.299929 -0.00709784 0)
(0.299898 -0.00873248 0)
(0.299866 -0.0103939 0)
(0.299836 -0.0120811 0)
(0.299814 -0.0137868 0)
(0.299805 -0.0155016 0)
(0.299817 -0.0172079 0)
(0.29986 -0.0188848 0)
(0.299944 -0.0205013 0)
(0.300079 -0.0220231 0)
(0.300275 -0.0234052 0)
(0.300543 -0.0246023 0)
(0.300888 -0.02556 0)
(0.301313 -0.0262314 0)
(0.301813 -0.0265667 0)
(0.302379 -0.026531 0)
(0.299999 -0.000773657 0)
(0.299987 -0.00232491 0)
(0.299963 -0.00388653 0)
(0.299928 -0.00546661 0)
(0.299883 -0.00707013 0)
(0.299833 -0.00870281 0)
(0.299783 -0.0103649 0)
(0.299737 -0.0120573 0)
(0.299705 -0.0137729 0)
(0.299695 -0.0155046 0)
(0.299719 -0.0172348 0)
(0.299791 -0.0189451 0)
(0.299925 -0.0206038 0)
(0.300138 -0.0221781 0)
(0.300443 -0.0236204 0)
(0.300855 -0.0248851 0)
(0.301377 -0.0259117 0)
(0.302014 -0.0266518 0)
(0.302753 -0.0270436 0)
(0.303574 -0.0270606 0)
(0.299999 -0.000768027 0)
(0.299982 -0.00230844 0)
(0.299947 -0.00385981 0)
(0.299896 -0.00543156 0)
(0.299832 -0.00702868 0)
(0.29976 -0.00865892 0)
(0.299686 -0.0103224 0)
(0.299619 -0.012023 0)
(0.29957 -0.0137531 0)
(0.299551 -0.0155098 0)
(0.299578 -0.0172744 0)
(0.29967 -0.0190326 0)
(0.299847 -0.0207508 0)
(0.300132 -0.0223989 0)
(0.300543 -0.023925 0)
(0.301099 -0.0252825 0)
(0.301806 -0.0264028 0)
(0.302669 -0.0272331 0)
(0.303666 -0.0276989 0)
(0.304777 -0.0277672 0)
(0.299999 -0.000760276 0)
(0.299975 -0.00228581 0)
(0.299929 -0.00382297 0)
(0.29986 -0.00538318 0)
(0.299774 -0.00697106 0)
(0.299676 -0.00859752 0)
(0.299575 -0.0102618 0)
(0.29948 -0.0119726 0)
(0.299406 -0.0137207 0)
(0.299369 -0.0155097 0)
(0.299389 -0.0173182 0)
(0.29949 -0.0191395 0)
(0.2997 -0.020935 0)
(0.300046 -0.0226808 0)
(0.300554 -0.0243173 0)
(0.30125 -0.0257985 0)
(0.302144 -0.0270439 0)
(0.303241 -0.027994 0)
(0.304517 -0.0285572 0)
(0.305943 -0.0286908 0)
(0.299999 -0.000750175 0)
(0.299969 -0.00225637 0)
(0.299908 -0.00377478 0)
(0.299821 -0.00531969 0)
(0.299709 -0.00689464 0)
(0.299581 -0.00851528 0)
(0.299446 -0.0101785 0)
(0.299316 -0.0119008 0)
(0.299208 -0.0136686 0)
(0.299142 -0.015497 0)
(0.299142 -0.0173571 0)
(0.299239 -0.019257 0)
(0.299466 -0.0211468 0)
(0.299858 -0.0230168 0)
(0.300453 -0.0247919 0)
(0.301282 -0.026433 0)
(0.302364 -0.0278397 0)
(0.303707 -0.0289469 0)
(0.305282 -0.0296376 0)
(0.307056 -0.029859 0)
(0.299998 -0.000737456 0)
(0.299961 -0.00221933 0)
(0.299886 -0.00371382 0)
(0.299776 -0.00523903 0)
(0.299635 -0.00679643 0)
(0.299472 -0.00840841 0)
(0.299296 -0.0100674 0)
(0.299124 -0.0118015 0)
(0.29897 -0.0135886 0)
(0.298862 -0.0154626 0)
(0.298827 -0.0173797 0)
(0.298901 -0.0193743 0)
(0.299127 -0.0213736 0)
(0.299547 -0.0233975 0)
(0.300214 -0.0253402 0)
(0.301165 -0.0271845 0)
(0.302435 -0.0287944 0)
(0.304036 -0.0301056 0)
(0.305938 -0.030963 0)
(0.308101 -0.0313003 0)
(0.299998 -0.000721823 0)
(0.299952 -0.00217382 0)
(0.29986 -0.00363849 0)
(0.299726 -0.00513895 0)
(0.299551 -0.00667305 0)
(0.299348 -0.00827262 0)
(0.299124 -0.00992222 0)
(0.298898 -0.0116675 0)
(0.298687 -0.0134707 0)
(0.298522 -0.0153961 0)
(0.298432 -0.0173714 0)
(0.298461 -0.0194783 0)
(0.298663 -0.0215977 0)
(0.299087 -0.023811 0)
(0.299804 -0.0259486 0)
(0.300862 -0.0280508 0)
(0.302318 -0.029911 0)
(0.304188 -0.0314881 0)
(0.306452 -0.0325629 0)
(0.309061 -0.0330543 0)
(0.299997 -0.000702976 0)
(0.299943 -0.00211891 0)
(0.299832 -0.00354712 0)
(0.29967 -0.00501697 0)
(0.299457 -0.00652084 0)
(0.299208 -0.00810317 0)
(0.298927 -0.00973622 0)
(0.298638 -0.0114907 0)
(0.298354 -0.0133031 0)
(0.298114 -0.015285 0)
(0.297947 -0.0173142 0)
(0.297906 -0.019553 0)
(0.298053 -0.0217957 0)
(0.298448 -0.0242425 0)
(0.29919 -0.0265955 0)
(0.300326 -0.0290294 0)
(0.301965 -0.0311883 0)
(0.304113 -0.033118 0)
(0.306784 -0.0344745 0)
(0.309911 -0.0351747 0)
(0.299997 -0.000680629 0)
(0.299933 -0.00205363 0)
(0.299801 -0.00343805 0)
(0.299609 -0.00487051 0)
(0.299353 -0.00633607 0)
(0.299052 -0.00789496 0)
(0.298705 -0.00950211 0)
(0.298342 -0.0112621 0)
(0.297969 -0.013073 0)
(0.297635 -0.0151151 0)
(0.297363 -0.0171865 0)
(0.297223 -0.0195794 0)
(0.297278 -0.0219366 0)
(0.297602 -0.0246744 0)
(0.298331 -0.0272476 0)
(0.299506 -0.0301182 0)
(0.301321 -0.0326148 0)
(0.303743 -0.0350287 0)
(0.306882 -0.0367437 0)
(0.310617 -0.0377345 0)
(0.299996 -0.000654538 0)
(0.299922 -0.00197703 0)
(0.299768 -0.00330975 0)
(0.299542 -0.00469698 0)
(0.29924 -0.00611517 0)
(0.298881 -0.00764267 0)
(0.298458 -0.00921262 0)
(0.298011 -0.0109718 0)
(0.29753 -0.0127663 0)
(0.297083 -0.0148702 0)
(0.296675 -0.0169637 0)
(0.296401 -0.0195348 0)
(0.296316 -0.021981 0)
(0.29652 -0.0250846 0)
(0.297184 -0.0278534 0)
(0.298336 -0.031317 0)
(0.300313 -0.0341566 0)
(0.302983 -0.0372703 0)
(0.306676 -0.0394199 0)
(0.311126 -0.0408382 0)
(0.299996 -0.000624517 0)
(0.29991 -0.00188821 0)
(0.299733 -0.00316093 0)
(0.299471 -0.00449386 0)
(0.299118 -0.00585498 0)
(0.298696 -0.00734088 0)
(0.29819 -0.00886103 0)
(0.297646 -0.0106093 0)
(0.297041 -0.0123693 0)
(0.296458 -0.0145312 0)
(0.295879 -0.0166194 0)
(0.295435 -0.0193906 0)
(0.29515 -0.0218813 0)
(0.295176 -0.0254434 0)
(0.295696 -0.0283396 0)
(0.296747 -0.0326268 0)
(0.298853 -0.0357395 0)
(0.301702 -0.0399232 0)
(0.306081 -0.0425362 0)
(0.311352 -0.0446409 0)
(0.299996 -0.00059045 0)
(0.299897 -0.00178638 0)
(0.299696 -0.00299067 0)
(0.299396 -0.00425894 0)
(0.298991 -0.00555309 0)
(0.298499 -0.00698436 0)
(0.297905 -0.00844171 0)
(0.297251 -0.0101633 0)
(0.296507 -0.01187 0)
(0.295766 -0.0140759 0)
(0.29498 -0.0161278 0)
(0.294325 -0.0191089 0)
(0.293765 -0.0215867 0)
(0.293553 -0.0257059 0)
(0.293807 -0.0286127 0)
(0.294671 -0.0340432 0)
(0.296817 -0.0372289 0)
(0.299727 -0.0431153 0)
(0.304985 -0.0460605 0)
(0.311132 -0.0493872 0)
(0.299996 -0.00055229 0)
(0.299883 -0.001671 0)
(0.29966 -0.00279846 0)
(0.299317 -0.00399046 0)
(0.298862 -0.00520794 0)
(0.298292 -0.00656845 0)
(0.297611 -0.00795067 0)
(0.296831 -0.00962214 0)
(0.295943 -0.0112585 0)
(0.29501 -0.0134781 0)
(0.293993 -0.0154673 0)
(0.293074 -0.0186381 0)
(0.292162 -0.0210501 0)
(0.29164 -0.0257959 0)
(0.291454 -0.0285736 0)
(0.292061 -0.0355309 0)
(0.294017 -0.0384267 0)
(0.296879 -0.0470307 0)
(0.303218 -0.04983 0)
(0.310139 -0.0554899 0)
(0.299997 -0.00051005 0)
(0.299869 -0.00154186 0)
(0.299626 -0.00258423 0)
(0.299237 -0.00368751 0)
(0.298736 -0.00481893 0)
(0.298079 -0.0060898 0)
(0.297318 -0.00738566 0)
(0.29639 -0.00897578 0)
(0.295368 -0.0105288 0)
(0.294198 -0.0127103 0)
(0.292953 -0.0146226 0)
(0.291678 -0.0179109 0)
(0.290376 -0.0202368 0)
(0.289409 -0.0255827 0)
(0.288603 -0.0281443 0)
(0.288872 -0.036962 0)
(0.290178 -0.0391179 0)
(0.293061 -0.0518741 0)
(0.300386 -0.0534687 0)
(0.307823 -0.0637471 0)
(0.299999 -0.000463797 0)
(0.299854 -0.00139919 0)
(0.299594 -0.00234839 0)
(0.299155 -0.0033503 0)
(0.298617 -0.00438637 0)
(0.297864 -0.00554723 0)
(0.297038 -0.00674588 0)
(0.295936 -0.00821759 0)
(0.29481 -0.00967692 0)
(0.293335 -0.0117483 0)
(0.291915 -0.0135832 0)
(0.290129 -0.0168518 0)
(0.288503 -0.0191259 0)
(0.286792 -0.0248662 0)
(0.285336 -0.027295 0)
(0.284945 -0.0379991 0)
(0.285056 -0.0392023 0)
(0.288271 -0.0577057 0)
(0.295454 -0.0563005 0)
(0.303724 -0.0757175 0)
(0.300001 -0.000413676 0)
(0.299838 -0.00124371 0)
(0.299566 -0.00209179 0)
(0.299076 -0.00298036 0)
(0.29851 -0.00391146 0)
(0.297653 -0.00494249 0)
(0.296782 -0.00603175 0)
(0.295483 -0.00734703 0)
(0.294295 -0.00869976 0)
(0.292442 -0.0105798 0)
(0.290942 -0.0123374 0)
(0.288434 -0.0154005 0)
(0.286692 -0.0176933 0)
(0.283681 -0.0234134 0)
(0.281943 -0.0260249 0)
(0.279803 -0.0379817 0)
(0.278861 -0.0388683 0)
(0.282047 -0.0639637 0)
(0.286572 -0.057657 0)
(0.298604 -0.0936325 0)
(0.300004 -0.000359964 0)
(0.299823 -0.00107654 0)
(0.299543 -0.00181601 0)
(0.299003 -0.00258044 0)
(0.298416 -0.00339679 0)
(0.297457 -0.00428006 0)
(0.296557 -0.00524572 0)
(0.295054 -0.00637034 0)
(0.293839 -0.00759555 0)
(0.291566 -0.00920977 0)
(0.290077 -0.010867 0)
(0.286667 -0.0135405 0)
(0.285069 -0.0158789 0)
(0.280082 -0.0210715 0)
(0.278834 -0.0242344 0)
(0.272741 -0.0360902 0)
(0.272685 -0.0384112 0)
(0.271942 -0.068742 0)
(0.273573 -0.0584513 0)
(0.294928 -0.120411 0)
(0.300006 -0.000303323 0)
(0.29981 -0.000898971 0)
(0.299523 -0.00152388 0)
(0.29894 -0.00215405 0)
(0.298337 -0.00284777 0)
(0.297288 -0.00356602 0)
(0.296366 -0.00439589 0)
(0.29468 -0.00529743 0)
(0.293446 -0.00637271 0)
(0.290785 -0.00765509 0)
(0.289314 -0.00916506 0)
(0.285015 -0.0113003 0)
(0.283613 -0.013594 0)
(0.276384 -0.017856 0)
(0.27605 -0.0215667 0)
(0.263917 -0.0319106 0)
(0.267418 -0.0374152 0)
(0.253246 -0.0686036 0)
(0.263593 -0.0643459 0)
(0.289442 -0.165587 0)
(0.300008 -0.000244802 0)
(0.2998 -0.00071318 0)
(0.299509 -0.00121905 0)
(0.29889 -0.0017065 0)
(0.298276 -0.00227161 0)
(0.297156 -0.00280955 0)
(0.296213 -0.00349499 0)
(0.294389 -0.00414326 0)
(0.293118 -0.00505252 0)
(0.290179 -0.00594048 0)
(0.288639 -0.00726022 0)
(0.283731 -0.0087278 0)
(0.282193 -0.0108213 0)
(0.273399 -0.0138946 0)
(0.272934 -0.0175716 0)
(0.255676 -0.0258195 0)
(0.26073 -0.0332655 0)
(0.225842 -0.062177 0)
(0.255981 -0.0766816 0)
(0.251048 -0.229334 0)
(0.30167 -0.0258671 0)
(0.301801 -0.025699 0)
(0.301924 -0.0255014 0)
(0.302048 -0.0252756 0)
(0.302175 -0.0250217 0)
(0.302305 -0.02474 0)
(0.302436 -0.0244307 0)
(0.302569 -0.024095 0)
(0.302703 -0.0237324 0)
(0.302833 -0.0233504 0)
(0.30277 -0.0262683 0)
(0.302944 -0.0261217 0)
(0.303119 -0.0259431 0)
(0.303296 -0.0257322 0)
(0.303473 -0.0254896 0)
(0.303651 -0.0252164 0)
(0.303828 -0.0249134 0)
(0.304004 -0.0245819 0)
(0.304178 -0.0242208 0)
(0.304349 -0.0238405 0)
(0.304138 -0.0267996 0)
(0.30439 -0.0266484 0)
(0.30464 -0.0264634 0)
(0.304889 -0.0262456 0)
(0.305136 -0.0259957 0)
(0.305381 -0.0257143 0)
(0.305623 -0.0254019 0)
(0.305861 -0.0250599 0)
(0.306094 -0.0246872 0)
(0.306319 -0.0242953 0)
(0.30554 -0.0275144 0)
(0.305877 -0.0273647 0)
(0.30621 -0.027179 0)
(0.306539 -0.0269582 0)
(0.306865 -0.0267029 0)
(0.307188 -0.0264134 0)
(0.307506 -0.0260904 0)
(0.307817 -0.0257355 0)
(0.308121 -0.0253466 0)
(0.308412 -0.0249399 0)
(0.306922 -0.0284504 0)
(0.307354 -0.0283023 0)
(0.307779 -0.028114 0)
(0.308199 -0.0278866 0)
(0.308614 -0.0276205 0)
(0.309025 -0.0273165 0)
(0.309427 -0.0269752 0)
(0.30982 -0.026599 0)
(0.310203 -0.0261844 0)
(0.310569 -0.025754 0)
(0.308278 -0.0296315 0)
(0.308817 -0.0294834 0)
(0.309345 -0.0292897 0)
(0.309866 -0.0290515 0)
(0.310382 -0.0287696 0)
(0.31089 -0.028445 0)
(0.311388 -0.0280783 0)
(0.311872 -0.0276728 0)
(0.312343 -0.0272231 0)
(0.312791 -0.0267617 0)
(0.309602 -0.0310883 0)
(0.310263 -0.0309394 0)
(0.31091 -0.0307377 0)
(0.311548 -0.0304845 0)
(0.312177 -0.0301809 0)
(0.312797 -0.0298281 0)
(0.313402 -0.0294271 0)
(0.313989 -0.0289823 0)
(0.314558 -0.0284855 0)
(0.315097 -0.0279837 0)
(0.310888 -0.0328627 0)
(0.311693 -0.0327127 0)
(0.312479 -0.0324998 0)
(0.313252 -0.0322261 0)
(0.314014 -0.0318929 0)
(0.314762 -0.031502 0)
(0.315491 -0.0310549 0)
(0.316195 -0.0305576 0)
(0.316875 -0.0299985 0)
(0.317518 -0.0294446 0)
(0.312129 -0.0350116 0)
(0.313105 -0.0348603 0)
(0.314058 -0.0346322 0)
(0.314993 -0.0343302 0)
(0.315912 -0.0339564 0)
(0.316812 -0.0335135 0)
(0.317685 -0.0330039 0)
(0.318525 -0.0324365 0)
(0.319331 -0.0317942 0)
(0.32009 -0.0311727 0)
(0.313311 -0.0376137 0)
(0.3145 -0.0374612 0)
(0.315659 -0.0372119 0)
(0.316792 -0.0368698 0)
(0.317902 -0.0364387 0)
(0.318984 -0.0359235 0)
(0.320027 -0.0353276 0)
(0.321026 -0.0346646 0)
(0.321977 -0.0339104 0)
(0.322867 -0.0331989 0)
(0.31442 -0.0407822 0)
(0.315881 -0.0406283 0)
(0.317302 -0.040347 0)
(0.318686 -0.0399453 0)
(0.320034 -0.0394306 0)
(0.321338 -0.0388113 0)
(0.322586 -0.0380935 0)
(0.323771 -0.0372969 0)
(0.324888 -0.0363894 0)
(0.325924 -0.035554 0)
(0.315435 -0.0446873 0)
(0.317258 -0.0445281 0)
(0.31903 -0.0441928 0)
(0.320741 -0.0436968 0)
(0.32239 -0.0430548 0)
(0.323971 -0.042281 0)
(0.325469 -0.0413856 0)
(0.326874 -0.0403977 0)
(0.32818 -0.0392764 0)
(0.329374 -0.0382647 0)
(0.316329 -0.0495961 0)
(0.318671 -0.0494154 0)
(0.32093 -0.0489792 0)
(0.323077 -0.0483244 0)
(0.325119 -0.0474798 0)
(0.32705 -0.0464684 0)
(0.328856 -0.0453074 0)
(0.330522 -0.0440382 0)
(0.332044 -0.042613 0)
(0.333401 -0.0413425 0)
(0.31709 -0.0559354 0)
(0.32024 -0.0556845 0)
(0.323208 -0.0550547 0)
(0.325955 -0.054129 0)
(0.328517 -0.0529566 0)
(0.3309 -0.0515711 0)
(0.333087 -0.0500001 0)
(0.335053 -0.0483035 0)
(0.3368 -0.0464325 0)
(0.338295 -0.0447647 0)
(0.317872 -0.0644157 0)
(0.322353 -0.063947 0)
(0.326375 -0.062933 0)
(0.329948 -0.0615395 0)
(0.333195 -0.0598313 0)
(0.336139 -0.0578452 0)
(0.338746 -0.0556236 0)
(0.340978 -0.0532511 0)
(0.342843 -0.0506963 0)
(0.344309 -0.0483788 0)
(0.319608 -0.0763083 0)
(0.326225 -0.0752253 0)
(0.33162 -0.0733582 0)
(0.3361 -0.0710266 0)
(0.34 -0.0683088 0)
(0.343359 -0.0652387 0)
(0.3461 -0.0618839 0)
(0.348163 -0.0583566 0)
(0.349597 -0.054685 0)
(0.350378 -0.0512294 0)
(0.324526 -0.0934485 0)
(0.333964 -0.0910347 0)
(0.34029 -0.0873794 0)
(0.344689 -0.0830326 0)
(0.348027 -0.0781602 0)
(0.350418 -0.0728788 0)
(0.351764 -0.0673473 0)
(0.352019 -0.0617129 0)
(0.351378 -0.0561236 0)
(0.349739 -0.0506301 0)
(0.331403 -0.114811 0)
(0.342002 -0.109121 0)
(0.346215 -0.102032 0)
(0.346919 -0.0940196 0)
(0.345869 -0.0853551 0)
(0.343435 -0.0764229 0)
(0.339692 -0.0675765 0)
(0.334774 -0.0590086 0)
(0.329188 -0.0509109 0)
(0.322372 -0.0428924 0)
(0.321531 -0.127069 0)
(0.322503 -0.109851 0)
(0.314497 -0.0951646 0)
(0.303847 -0.081458 0)
(0.292335 -0.0682082 0)
(0.280071 -0.055742 0)
(0.267415 -0.0443357 0)
(0.254953 -0.0340492 0)
(0.243276 -0.0247886 0)
(0.231538 -0.0163035 0)
(0.248567 -0.140448 0)
(0.202831 -0.103697 0)
(0.158247 -0.0735948 0)
(0.128679 -0.0492938 0)
(0.108221 -0.0304001 0)
(0.092659 -0.0166037 0)
(0.0810988 -0.00701519 0)
(0.0730784 -0.000492292 0)
(0.0677051 0.00397027 0)
(0.0642954 0.00694675 0)
(0.303501 -0.0212535 0)
(0.304637 -0.0160748 0)
(0.305401 -0.0107253 0)
(0.306063 -0.00555145 0)
(0.306325 -0.00087838 0)
(0.306235 0.00222847 0)
(0.306005 0.00398107 0)
(0.305705 0.00392377 0)
(0.306119 0.00387754 0)
(0.306562 0.00498818 0)
(0.306936 0.00628245 0)
(0.307494 0.009081 0)
(0.306854 0.010439 0)
(0.306631 0.00996016 0)
(0.305464 0.00899375 0)
(0.304856 0.00409207 0)
(0.305641 0.00272098 0)
(0.305675 0.000887675 0)
(0.307323 0.000985846 0)
(0.307897 0.0057142 0)
(0.305194 -0.0216755 0)
(0.306281 -0.0163711 0)
(0.306846 -0.0109336 0)
(0.307225 -0.00567103 0)
(0.307134 -0.000881749 0)
(0.306678 0.00230319 0)
(0.306139 0.00407366 0)
(0.305736 0.00390585 0)
(0.306248 0.00373515 0)
(0.306818 0.00484643 0)
(0.307258 0.00614924 0)
(0.307717 0.00908557 0)
(0.306873 0.0105678 0)
(0.306512 0.0101852 0)
(0.305151 0.00927158 0)
(0.304591 0.00407374 0)
(0.305612 0.00257125 0)
(0.305799 0.000552958 0)
(0.307793 0.000550077 0)
(0.308271 0.00560349 0)
(0.307421 -0.0220652 0)
(0.308603 -0.016613 0)
(0.309052 -0.0110589 0)
(0.309165 -0.00566839 0)
(0.308645 -0.000738143 0)
(0.307663 0.00251469 0)
(0.306608 0.00424752 0)
(0.305982 0.00387778 0)
(0.306613 0.00355351 0)
(0.307373 0.00466453 0)
(0.307942 0.0060256 0)
(0.308267 0.00917541 0)
(0.307057 0.0107874 0)
(0.306429 0.0105057 0)
(0.304665 0.00956487 0)
(0.304137 0.00397384 0)
(0.305569 0.00234628 0)
(0.306003 0.000199075 0)
(0.308616 0.000189348 0)
(0.308934 0.00555347 0)
(0.309833 -0.0225484 0)
(0.311174 -0.0168524 0)
(0.311582 -0.0111268 0)
(0.311499 -0.00555607 0)
(0.310581 -0.000449742 0)
(0.309033 0.00288795 0)
(0.307365 0.00453434 0)
(0.306442 0.00386704 0)
(0.307215 0.0033371 0)
(0.308217 0.00443742 0)
(0.308981 0.00592128 0)
(0.309167 0.00935445 0)
(0.307473 0.0110996 0)
(0.306471 0.0109297 0)
(0.304119 0.00989289 0)
(0.303577 0.00380528 0)
(0.305519 0.0020341 0)
(0.306242 -0.000309921 0)
(0.309715 -0.000261749 0)
(0.309845 0.00553917 0)
(0.312345 -0.0231286 0)
(0.313847 -0.0171176 0)
(0.314249 -0.0111724 0)
(0.314016 -0.00536448 0)
(0.312735 -2.49944e-05 0)
(0.310605 0.00343398 0)
(0.30827 0.00495447 0)
(0.307015 0.003875 0)
(0.30797 0.00306346 0)
(0.309289 0.00413688 0)
(0.310326 0.00581194 0)
(0.310389 0.00962603 0)
(0.308133 0.0115377 0)
(0.306663 0.011514 0)
(0.303573 0.0103135 0)
(0.302951 0.00356856 0)
(0.305459 0.00160532 0)
(0.306484 -0.00100838 0)
(0.311015 -0.000825065 0)
(0.310944 0.00555819 0)
(0.314956 -0.0238096 0)
(0.316588 -0.0174157 0)
(0.316993 -0.0112049 0)
(0.316635 -0.00510101 0)
(0.315001 0.00053881 0)
(0.312251 0.00416362 0)
(0.309194 0.00551673 0)
(0.307585 0.00389446 0)
(0.308777 0.00271038 0)
(0.310512 0.00373586 0)
(0.311907 0.00568123 0)
(0.311872 0.00999935 0)
(0.309004 0.0121298 0)
(0.306971 0.0123 0)
(0.303027 0.0108545 0)
(0.30225 0.00326493 0)
(0.305354 0.0010518 0)
(0.306679 -0.00192196 0)
(0.312426 -0.00151555 0)
(0.312145 0.00561611 0)
(0.317693 -0.0245881 0)
(0.319395 -0.0177472 0)
(0.319807 -0.0112261 0)
(0.319339 -0.00476542 0)
(0.317342 0.0012502 0)
(0.313894 0.00509399 0)
(0.310037 0.00623157 0)
(0.30805 0.0039192 0)
(0.309533 0.00225429 0)
(0.311807 0.00320556 0)
(0.313653 0.00551611 0)
(0.31354 0.0104791 0)
(0.31002 0.0128952 0)
(0.307319 0.0133156 0)
(0.302446 0.0115345 0)
(0.301426 0.00290504 0)
(0.305124 0.00037479 0)
(0.306728 -0.00307291 0)
(0.313801 -0.00234798 0)
(0.313315 0.00571551 0)
(0.320588 -0.0254563 0)
(0.322272 -0.0181119 0)
(0.322697 -0.0112381 0)
(0.32214 -0.00435644 0)
(0.319752 0.00212683 0)
(0.31549 0.00625226 0)
(0.310726 0.00711484 0)
(0.308324 0.00394521 0)
(0.310142 0.00166935 0)
(0.313089 0.00251386 0)
(0.315475 0.00530338 0)
(0.315299 0.011068 0)
(0.311085 0.0138533 0)
(0.307597 0.0145861 0)
(0.301766 0.0123708 0)
(0.300386 0.0025083 0)
(0.304634 -0.000418141 0)
(0.306456 -0.00447436 0)
(0.314908 -0.00333158 0)
(0.31425 0.00585542 0)
(0.323683 -0.0264019 0)
(0.325231 -0.0185094 0)
(0.325678 -0.0112438 0)
(0.325058 -0.00387196 0)
(0.322232 0.00319606 0)
(0.316993 0.00767557 0)
(0.311194 0.00818786 0)
(0.30832 0.00397328 0)
(0.31048 0.000932171 0)
(0.314225 0.00162843 0)
(0.31723 0.00503131 0)
(0.317007 0.0117698 0)
(0.312055 0.0150267 0)
(0.30766 0.016133 0)
(0.300898 0.013379 0)
(0.298995 0.00210817 0)
(0.303668 -0.0013041 0)
(0.30558 -0.0061237 0)
(0.315386 -0.00447137 0)
(0.31466 0.00602851 0)
(0.327029 -0.027407 0)
(0.328289 -0.0189393 0)
(0.328761 -0.0112446 0)
(0.3281 -0.0033074 0)
(0.324753 0.00449624 0)
(0.318323 0.0094104 0)
(0.311348 0.00947791 0)
(0.30791 0.00401475 0)
(0.310345 2.72259e-05 0)
(0.31496 0.000521708 0)
(0.318643 0.00468846 0)
(0.318423 0.0125863 0)
(0.312707 0.0164367 0)
(0.30732 0.0179684 0)
(0.299716 0.0145745 0)
(0.29705 0.00176138 0)
(0.301917 -0.00223401 0)
(0.303684 -0.00799328 0)
(0.314728 -0.00577303 0)
(0.314153 0.00621419 0)
(0.330701 -0.0284474 0)
(0.331473 -0.0193984 0)
(0.331928 -0.0112356 0)
(0.331203 -0.0026502 0)
(0.327194 0.00608124 0)
(0.319314 0.0115122 0)
(0.311026 0.0110205 0)
(0.306866 0.00410153 0)
(0.309366 -0.00103551 0)
(0.314804 -0.000818682 0)
(0.31921 0.00425696 0)
(0.319128 0.0135057 0)
(0.312688 0.0180905 0)
(0.306324 0.0200854 0)
(0.298031 0.0159757 0)
(0.29426 0.00155518 0)
(0.298958 -0.00312392 0)
(0.300213 -0.0100221 0)
(0.312287 -0.00724615 0)
(0.312253 0.00637172 0)
(0.334814 -0.0294908 0)
(0.334792 -0.0198692 0)
(0.335028 -0.0111924 0)
(0.334093 -0.0018682 0)
(0.329214 0.00802194 0)
(0.31962 0.014041 0)
(0.309913 0.0128645 0)
(0.304753 0.00430614 0)
(0.306879 -0.00219429 0)
(0.312901 -0.0023796 0)
(0.318089 0.00370511 0)
(0.318449 0.014483 0)
(0.311477 0.0199602 0)
(0.304344 0.0224476 0)
(0.295555 0.0176091 0)
(0.290227 0.00161169 0)
(0.294266 -0.00385021 0)
(0.29453 -0.0121145 0)
(0.307361 -0.00891436 0)
(0.308461 0.00643327 0)
(0.339534 -0.0304854 0)
(0.338084 -0.0202819 0)
(0.337517 -0.0110337 0)
(0.335987 -0.000892048 0)
(0.330019 0.0103898 0)
(0.318562 0.0170434 0)
(0.307405 0.0150729 0)
(0.300786 0.00476648 0)
(0.301799 -0.00331262 0)
(0.307939 -0.00412035 0)
(0.314053 0.00297205 0)
(0.315432 0.0154155 0)
(0.30839 0.0219549 0)
(0.300968 0.024979 0)
(0.29187 0.0195143 0)
(0.284463 0.0020838 0)
(0.287281 -0.00426083 0)
(0.286049 -0.0141514 0)
(0.299358 -0.0108303 0)
(0.30236 0.00630007 0)
(0.344942 -0.0313193 0)
(0.340557 -0.020422 0)
(0.337894 -0.0105481 0)
(0.33509 0.000354432 0)
(0.328023 0.0132183 0)
(0.314928 0.0205183 0)
(0.302438 0.01772 0)
(0.293694 0.00568985 0)
(0.292593 -0.00417223 0)
(0.298244 -0.00598411 0)
(0.30562 0.00193286 0)
(0.308944 0.0161114 0)
(0.302658 0.0238935 0)
(0.295735 0.0275612 0)
(0.286436 0.0217447 0)
(0.276461 0.0031308 0)
(0.277549 -0.00420693 0)
(0.274445 -0.0160201 0)
(0.288025 -0.0130746 0)
(0.293761 0.00585231 0)
(0.35034 -0.0316425 0)
(0.339755 -0.019766 0)
(0.332843 -0.00934579 0)
(0.328011 0.00195048 0)
(0.320559 0.0164242 0)
(0.306816 0.024355 0)
(0.293355 0.0208796 0)
(0.281714 0.00733882 0)
(0.277524 -0.00452529 0)
(0.282206 -0.00793522 0)
(0.291472 0.000386735 0)
(0.297973 0.0162733 0)
(0.293623 0.0254991 0)
(0.288193 0.0300462 0)
(0.278668 0.0243574 0)
(0.26585 0.00487491 0)
(0.264929 -0.00359146 0)
(0.259905 -0.0176573 0)
(0.273663 -0.0157452 0)
(0.282824 0.0049718 0)
(0.352266 -0.0302821 0)
(0.329959 -0.0172703 0)
(0.316513 -0.00693098 0)
(0.309646 0.00381732 0)
(0.304001 0.0196494 0)
(0.291753 0.0282464 0)
(0.278032 0.0245798 0)
(0.262972 0.0099471 0)
(0.255322 -0.00421887 0)
(0.259094 -0.0100274 0)
(0.271126 -0.00200485 0)
(0.282078 0.0155252 0)
(0.280987 0.0264372 0)
(0.277995 0.0322871 0)
(0.268086 0.0273878 0)
(0.252605 0.00733706 0)
(0.249798 -0.00242249 0)
(0.243288 -0.0190812 0)
(0.257208 -0.0189308 0)
(0.270085 0.00357486 0)
(0.340777 -0.0248858 0)
(0.30104 -0.0115342 0)
(0.281316 -0.00299963 0)
(0.274715 0.00542626 0)
(0.275066 0.0220985 0)
(0.267468 0.0316414 0)
(0.254537 0.0287155 0)
(0.236402 0.0135306 0)
(0.226236 -0.00334818 0)
(0.229946 -0.0124697 0)
(0.245555 -0.00557471 0)
(0.261807 0.0135104 0)
(0.265005 0.0264117 0)
(0.265002 0.0341809 0)
(0.254545 0.0308048 0)
(0.237242 0.0103795 0)
(0.233172 -0.000850156 0)
(0.226097 -0.0203898 0)
(0.240088 -0.0226584 0)
(0.256368 0.0016492 0)
(0.296782 -0.0138584 0)
(0.241441 -0.00259264 0)
(0.222821 0.00137061 0)
(0.222053 0.0054807 0)
(0.233461 0.0225618 0)
(0.233371 0.0338753 0)
(0.222415 0.0329588 0)
(0.203063 0.0176724 0)
(0.192926 -0.00233972 0)
(0.19794 -0.015568 0)
(0.217245 -0.010472 0)
(0.238662 0.0100486 0)
(0.246448 0.0252864 0)
(0.249369 0.0356977 0)
(0.238448 0.0344568 0)
(0.220916 0.013679 0)
(0.216631 0.000840123 0)
(0.210226 -0.0217221 0)
(0.223904 -0.0268354 0)
(0.242606 -0.000723781 0)
(0.201914 0.00636863 0)
(0.151728 0.00784594 0)
(0.148992 0.00354696 0)
(0.159175 0.00219827 0)
(0.183802 0.0200336 0)
(0.191779 0.0345328 0)
(0.184005 0.0367812 0)
(0.166981 0.0214658 0)
(0.16032 -0.00192679 0)
(0.16766 -0.0195401 0)
(0.189494 -0.0165923 0)
(0.214668 0.00526492 0)
(0.226415 0.023163 0)
(0.231656 0.0368643 0)
(0.220887 0.038054 0)
(0.205311 0.0167749 0)
(0.202035 0.00229961 0)
(0.197545 -0.0231756 0)
(0.210092 -0.0312142 0)
(0.229692 -0.00337017 0)
(0.0814232 0.0146467 0)
(0.0602186 0.010089 0)
(0.0799238 -2.04609e-05 0)
(0.0989125 -0.00507522 0)
(0.133612 0.0146124 0)
(0.147797 0.0336886 0)
(0.144773 0.0395702 0)
(0.134427 0.0238976 0)
(0.134108 -0.00266339 0)
(0.143721 -0.0241729 0)
(0.165521 -0.0234353 0)
(0.191897 -0.000399796 0)
(0.20623 0.0203463 0)
(0.21299 0.0377102 0)
(0.203622 0.0412183 0)
(0.192337 0.019193 0)
(0.191123 0.00321073 0)
(0.189507 -0.0246833 0)
(0.199747 -0.0354236 0)
(0.218421 -0.00605987 0)
(0.0416849 0.00774836 0)
(0.0183941 0.00865336 0)
(0.0461083 -0.00466657 0)
(0.0658788 -0.0111335 0)
(0.103276 0.00947487 0)
(0.120321 0.0320264 0)
(0.122007 0.0401562 0)
(0.118589 0.0241563 0)
(0.123409 -0.00393458 0)
(0.133853 -0.02728 0)
(0.15327 -0.0280497 0)
(0.178205 -0.0044732 0)
(0.193143 0.0181348 0)
(0.200545 0.0378826 0)
(0.193319 0.0427858 0)
(0.186298 0.0200629 0)
(0.186941 0.00329607 0)
(0.187677 -0.0256041 0)
(0.195445 -0.0379553 0)
(0.212186 -0.00779617 0)
(0.0236442 0.00519968 0)
(-7.40091e-05 0.0081207 0)
(0.0309775 -0.00742039 0)
(0.0501031 -0.0145017 0)
(0.0877969 0.006383 0)
(0.106035 0.0308277 0)
(0.110638 0.0400616 0)
(0.111551 0.0238618 0)
(0.119352 -0.0048879 0)
(0.130113 -0.0289617 0)
(0.147662 -0.0304984 0)
(0.171159 -0.00671922 0)
(0.186098 0.0168505 0)
(0.193754 0.0378499 0)
(0.188002 0.0434696 0)
(0.183646 0.020319 0)
(0.185406 0.00317033 0)
(0.187513 -0.0261101 0)
(0.193737 -0.0392543 0)
(0.209089 -0.00871695 0)
(0.0104418 0.00474707 0)
(-0.0131514 0.00757893 0)
(0.0203113 -0.0102626 0)
(0.0378102 -0.0177638 0)
(0.0746114 0.00323726 0)
(0.0935991 0.0293949 0)
(0.101282 0.0395257 0)
(0.10674 0.023132 0)
(0.117427 -0.00602999 0)
(0.12831 -0.0305313 0)
(0.143545 -0.0327262 0)
(0.165019 -0.00885623 0)
(0.179617 0.0155653 0)
(0.187419 0.037699 0)
(0.183374 0.0439074 0)
(0.181847 0.0203424 0)
(0.184742 0.0028949 0)
(0.188208 -0.026597 0)
(0.192785 -0.0403806 0)
(0.206496 -0.0095556 0)
(0.00191843 0.00558984 0)
(-0.0209176 0.00687616 0)
(0.0142913 -0.0131164 0)
(0.0293345 -0.020835 0)
(0.0641361 0.000135896 0)
(0.0834165 0.0277509 0)
(0.0942559 0.0385497 0)
(0.104286 0.0219826 0)
(0.117635 -0.00732984 0)
(0.128435 -0.0319588 0)
(0.140995 -0.0346839 0)
(0.159914 -0.0108367 0)
(0.173836 0.0143061 0)
(0.181677 0.0374366 0)
(0.179539 0.0440788 0)
(0.180941 0.0201367 0)
(0.184946 0.00247902 0)
(0.189724 -0.0270597 0)
(0.192586 -0.0413128 0)
(0.204438 -0.0102994 0)
(-0.00214302 0.00707766 0)
(-0.0234518 0.00598571 0)
(0.0130119 -0.0158896 0)
(0.0249424 -0.0236052 0)
(0.056745 -0.00282593 0)
(0.0758423 0.0259209 0)
(0.0897959 0.0371381 0)
(0.10423 0.020435 0)
(0.11991 -0.00876005 0)
(0.130428 -0.0332129 0)
(0.140063 -0.0363232 0)
(0.155962 -0.012611 0)
(0.168891 0.0130984 0)
(0.176663 0.0370584 0)
(0.176589 0.043971 0)
(0.180944 0.0197009 0)
(0.185993 0.00192708 0)
(0.19201 -0.0274911 0)
(0.193129 -0.042037 0)
(0.202945 -0.0109367 0)
(-0.0018615 0.00865834 0)
(-0.0208386 0.00492477 0)
(0.0164641 -0.0185236 0)
(0.0248105 -0.025985 0)
(0.0527473 -0.00556648 0)
(0.0711644 0.0239373 0)
(0.0880524 0.0353105 0)
(0.106534 0.0185244 0)
(0.124131 -0.0102894 0)
(0.134184 -0.0342704 0)
(0.140758 -0.0376078 0)
(0.153267 -0.0141367 0)
(0.164914 0.0119656 0)
(0.172508 0.0365617 0)
(0.1746 0.0435775 0)
(0.181854 0.0190396 0)
(0.187847 0.00124689 0)
(0.195001 -0.027885 0)
(0.194393 -0.0425443 0)
(0.202038 -0.011458 0)
(0.00283423 0.00981246 0)
(-0.013171 0.00368734 0)
(0.024521 -0.0209665 0)
(0.0289981 -0.0279095 0)
(0.0523643 -0.0080195 0)
(0.0695936 0.0218431 0)
(0.0890859 0.0331064 0)
(0.111087 0.0163015 0)
(0.130127 -0.0118838 0)
(0.139558 -0.0351178 0)
(0.143052 -0.0385157 0)
(0.15191 -0.0153802 0)
(0.162024 0.010929 0)
(0.16933 0.0359481 0)
(0.173627 0.0428993 0)
(0.183652 0.018165 0)
(0.190454 0.000450923 0)
(0.198625 -0.0282374 0)
(0.196345 -0.0428305 0)
(0.201732 -0.0118566 0)
(0.0122225 0.0100122 0)
(-0.000540064 0.00225332 0)
(0.0369391 -0.0231617 0)
(0.0374244 -0.0293321 0)
(0.0557064 -0.0101189 0)
(0.0712551 0.0196942 0)
(0.0928731 0.0305868 0)
(0.117722 0.013831 0)
(0.137694 -0.0135079 0)
(0.14637 -0.0357514 0)
(0.146872 -0.0390395 0)
(0.151943 -0.0163198 0)
(0.160325 0.0100051 0)
(0.167237 0.0352242 0)
(0.173708 0.0419461 0)
(0.186303 0.0170972 0)
(0.193752 -0.000443983 0)
(0.202805 -0.0285472 0)
(0.198943 -0.0428962 0)
(0.202031 -0.0121278 0)
(0.0267302 0.00853598 0)
(0.0169639 0.000646083 0)
(0.0533569 -0.0250614 0)
(0.0498547 -0.0302276 0)
(0.0627515 -0.0118136 0)
(0.0761847 0.0175533 0)
(0.0993196 0.0278314 0)
(0.126232 0.0111897 0)
(0.146604 -0.0151234 0)
(0.15441 -0.0361712 0)
(0.152105 -0.0391815 0)
(0.153381 -0.0169425 0)
(0.159896 0.00920684 0)
(0.166317 0.0344003 0)
(0.174863 0.0407367 0)
(0.189761 0.0158632 0)
(0.197672 -0.00141864 0)
(0.207457 -0.0288124 0)
(0.202136 -0.0427461 0)
(0.202934 -0.0122702 0)
(0.0467639 0.00444113 0)
(0.0392545 -0.00087697 0)
(0.0732955 -0.0266421 0)
(0.0659001 -0.0306106 0)
(0.0733285 -0.0130647 0)
(0.0843262 0.0154544 0)
(0.108277 0.0249028 0)
(0.136387 0.00844528 0)
(0.156613 -0.0166853 0)
(0.163452 -0.0363644 0)
(0.158599 -0.0389401 0)
(0.156199 -0.0172243 0)
(0.160784 0.00856535 0)
(0.16664 0.0334872 0)
(0.177099 0.0392916 0)
(0.193973 0.0144772 0)
(0.202138 -0.00245571 0)
(0.212496 -0.0290157 0)
(0.205862 -0.0423919 0)
(0.204426 -0.0122906 0)
(0.102446 -0.00487649 0)
(0.0979134 -0.00656009 0)
(0.123003 -0.0294466 0)
(0.107508 -0.0304192 0)
(0.103301 -0.0147425 0)
(0.108678 0.0109529 0)
(0.132828 0.0181448 0)
(0.161537 0.00229995 0)
(0.180247 -0.0198924 0)
(0.184788 -0.036256 0)
(0.175073 -0.0375911 0)
(0.165177 -0.0170059 0)
(0.165605 0.00765384 0)
(0.170138 0.0313281 0)
(0.184306 0.0356434 0)
(0.204647 0.0110864 0)
(0.21288 -0.0048367 0)