x,y,z,p
0,0,0,0.0181951
0,0.1,0,0.0400373
0,0.2,0,0.0618795
0,0.3,0,0.0873682
0,0.4,0,0.116504
0,0.5,0,0.145639
0,0.6,0,0.174792
0,0.7,0,0.203945
0,0.8,0,0.233108
0,0.9,0,0.262283
0,1,0,0.291457
0,1.1,0,0.320652
0,1.2,0,0.349848
0,1.3,0,0.379049
0,1.4,0,0.408257
0,1.5,0,0.437464
0,1.6,0,0.466666
0,1.7,0,0.495869
0,1.8,0,0.52505
0,1.9,0,0.554209
0,2,0,0.583369
0,2.1,0,0.612419
0,2.2,0,0.641469
0,2.3,0,0.670411
0,2.4,0,0.699245
0,2.5,0,0.728078
0,2.6,0,0.756515
0,2.7,0,0.784953
0,2.8,0,0.81306
0,2.9,0,0.840836
0,3,0,0.868613
0,3.1,0,0.89539
0,3.2,0,0.922168
0,3.3,0,0.948317
0,3.4,0,0.973839
0,3.5,0,0.99936
0,3.6,0,1.02361
0,3.7,0,1.04786
0,3.8,0,1.07157
0,3.9,0,1.09473
0,4,0,1.1179
0,4.1,0,1.14022
0,4.2,0,1.16255
0,4.3,0,1.1846
0,4.4,0,1.20638
0,4.5,0,1.22816
0,4.6,0,1.24929
0,4.7,0,1.27042
0,4.8,0,1.28889
0,4.9,0,1.30471
0,5,0,1.32053
0,5.1,0,1.34645
0,5.2,0,1.36224
0,5.3,0,1.37678
0,5.4,0,1.38979
0,5.5,0,1.40109
0,5.6,0,1.4107
0,5.7,0,1.41878
0,5.8,0,1.42563
0,5.9,0,1.43144
0,6,0,1.43621
0,6.1,0,1.43984
0,6.2,0,1.44213
0,6.3,0,1.44293
0,6.4,0,1.44213
0,6.5,0,1.43971
0,6.6,0,1.43568
0,6.7,0,1.43013
0,6.8,0,1.42324
0,6.9,0,1.41531
0,7,0,1.40124
0,7.1,0,1.39191
0,7.2,0,1.38257
0,7.3,0,1.37227
0,7.4,0,1.3565
0,7.5,0,1.34073
0,7.6,0,1.32346
0,7.7,0,1.30269
0,7.8,0,1.28192
0,7.9,0,1.25964
0,8,0,1.23552
0,8.1,0,1.2114
0,8.2,0,1.18679
0,8.3,0,1.16184
0,8.4,0,1.1369
0,8.5,0,1.11219
0,8.6,0,1.08756
0,8.7,0,1.06294
0,8.8,0,1.03835
0,8.9,0,1.01377
0,9,0,0.989175
0,9.1,0,0.964247
0,9.2,0,0.939319
0,9.3,0,0.914296
0,9.4,0,0.888895
0,9.5,0,0.863494
0,9.6,0,0.837927
0,9.7,0,0.812052
0,9.8,0,0.786176
0,9.9,0,0.760047
0,10,0,0.733664
0,10.1,0,0.707281
0,10.2,0,0.680566
0,10.3,0,0.653672
0,10.4,0,0.626778
0,10.5,0,0.599587
0,10.6,0,0.572321
0,10.7,0,0.545056
0,10.8,0,0.517659
0,10.9,0,0.490255
0,11,0,0.462848
0,11.1,0,0.435412
0,11.2,0,0.407976
0,11.3,0,0.380547
0,11.4,0,0.353139
0,11.5,0,0.325731
0,11.6,0,0.298369
0,11.7,0,0.271075
0,11.8,0,0.243782
0,11.9,0,0.216568
0,12,0,0.18942
0,12.1,0,0.162272
0,12.2,0,0.135195
0,12.3,0,0.10815
0,12.4,0,0.0811037
0,12.5,0,0.0597928
0,12.6,0,0.0394939
0,12.7,0,0.0191951
0.1,0,0,0.010917
0.1,0.1,0,0.0327511
0.1,0.2,0,0.0582459
0.1,0.3,0,0.0873743
0.1,0.4,0,0.116497
0.1,0.5,0,0.145671
0.1,0.6,0,0.174781
0.1,0.7,0,0.203963
0.1,0.8,0,0.233127
0.1,0.9,0,0.262271
0.1,1,0,0.291521
0.1,1.1,0,0.320643
0.1,1.2,0,0.349882
0.1,1.3,0,0.379087
0.1,1.4,0,0.408254
0.1,1.5,0,0.437552
0.1,1.6,0,0.466674
0.1,1.7,0,0.495917
0.1,1.8,0,0.525112
0.1,1.9,0,0.554245
0.1,2,0,0.583445
0.1,2.1,0,0.612493
0.1,2.2,0,0.641533
0.1,2.3,0,0.670509
0.1,2.4,0,0.699388
0.1,2.5,0,0.728115
0.1,2.6,0,0.756768
0.1,2.7,0,0.78512
0.1,2.8,0,0.813304
0.1,2.9,0,0.841244
0.1,3,0,0.868897
0.1,3.1,0,0.895981
0.1,3.2,0,0.922862
0.1,3.3,0,0.949049
0.1,3.4,0,0.974504
0.1,3.5,0,1.0011
0.1,3.6,0,1.02422
0.1,3.7,0,1.04967
0.1,3.8,0,1.07332
0.1,3.9,0,1.09521
0.1,4,0,1.12212
0.1,4.1,0,1.14059
0.1,4.2,0,1.16508
0.1,4.3,0,1.18704
0.1,4.4,0,1.20656
0.1,4.5,0,1.2321
0.1,4.6,0,1.24976
0.1,4.7,0,1.27158
0.1,4.8,0,1.29224
0.1,4.9,0,1.30955
0.1,5,0,1.3201
0.1,5.1,0,1.34428
0.1,5.2,0,1.3591
0.1,5.3,0,1.37276
0.1,5.4,0,1.38502
0.1,5.5,0,1.39573
0.1,5.6,0,1.40484
0.1,5.7,0,1.41253
0.1,5.8,0,1.41901
0.1,5.9,0,1.42447
0.1,6,0,1.4289
0.1,6.1,0,1.43221
0.1,6.2,0,1.43421
0.1,6.3,0,1.43478
0.1,6.4,0,1.43379
0.1,6.5,0,1.43122
0.1,6.6,0,1.42708
0.1,6.7,0,1.42143
0.1,6.8,0,1.41439
0.1,6.9,0,1.40617
0.1,7,0,1.39148
0.1,7.1,0,1.39448
0.1,7.2,0,1.38316
0.1,7.3,0,1.36374
0.1,7.4,0,1.35955
0.1,7.5,0,1.33911
0.1,7.6,0,1.3175
0.1,7.7,0,1.30535
0.1,7.8,0,1.2806
0.1,7.9,0,1.25705
0.1,8,0,1.23667
0.1,8.1,0,1.21176
0.1,8.2,0,1.18665
0.1,8.3,0,1.16164
0.1,8.4,0,1.13986
0.1,8.5,0,1.1134
0.1,8.6,0,1.08762
0.1,8.7,0,1.06841
0.1,8.8,0,1.0397
0.1,8.9,0,1.01494
0.1,9,0,0.995382
0.1,9.1,0,0.965026
0.1,9.2,0,0.941226
0.1,9.3,0,0.919048
0.1,9.4,0,0.889144
0.1,9.5,0,0.865479
0.1,9.6,0,0.840989
0.1,9.7,0,0.812344
0.1,9.8,0,0.787854
0.1,9.9,0,0.761723
0.1,10,0,0.733951
0.1,10.1,0,0.708428
0.1,10.2,0,0.681392
0.1,10.3,0,0.653968
0.1,10.4,0,0.627426
0.1,10.5,0,0.599892
0.1,10.6,0,0.572459
0.1,10.7,0,0.545308
0.1,10.8,0,0.517727
0.1,10.9,0,0.490279
0.1,11,0,0.46285
0.1,11.1,0,0.435418
0.1,11.2,0,0.407947
0.1,11.3,0,0.380463
0.1,11.4,0,0.3531
0.1,11.5,0,0.325667
0.1,11.6,0,0.298277
0.1,11.7,0,0.270984
0.1,11.8,0,0.2437
0.1,11.9,0,0.216493
0.1,12,0,0.189345
0.1,12.1,0,0.162201
0.1,12.2,0,0.135143
0.1,12.3,0,0.108108
0.1,12.4,0,0.0810527
0.1,12.5,0,0.0540756
0.1,12.6,0,0.0318406
0.1,12.7,0,0.0115171
0.2,0,0,0.00363901
0.2,0.1,0,0.0291257
0.2,0.2,0,0.058265
0.2,0.3,0,0.0873934
0.2,0.4,0,0.116541
0.2,0.5,0,0.145702
0.2,0.6,0,0.174842
0.2,0.7,0,0.204011
0.2,0.8,0,0.233174
0.2,0.9,0,0.262365
0.2,1,0,0.291585
0.2,1.1,0,0.320751
0.2,1.2,0,0.349961
0.2,1.3,0,0.379166
0.2,1.4,0,0.408383
0.2,1.5,0,0.43764
0.2,1.6,0,0.466802
0.2,1.7,0,0.496005
0.2,1.8,0,0.525201
0.2,1.9,0,0.554348
0.2,2,0,0.583522
0.2,2.1,0,0.612559
0.2,2.2,0,0.641586
0.2,2.3,0,0.670562
0.2,2.4,0,0.69938
0.2,2.5,0,0.728153
0.2,2.6,0,0.75672
0.2,2.7,0,0.785201
0.2,2.8,0,0.813385
0.2,2.9,0,0.841365
0.2,3,0,0.869182
0.2,3.1,0,0.896369
0.2,3.2,0,0.92366
0.2,3.3,0,0.949847
0.2,3.4,0,0.976312
0.2,3.5,0,1.00284
0.2,3.6,0,1.02717
0.2,3.7,0,1.0527
0.2,3.8,0,1.07634
0.2,3.9,0,1.1007
0.2,4,0,1.12633
0.2,4.1,0,1.14698
0.2,4.2,0,1.16979
0.2,4.3,0,1.19175
0.2,4.4,0,1.21276
0.2,4.5,0,1.23603
0.2,4.6,0,1.25439
0.2,4.7,0,1.27344
0.2,4.8,0,1.2941
0.2,4.9,0,1.30763
0.2,5,0,1.31967
0.2,5.1,0,1.34211
0.2,5.2,0,1.35596
0.2,5.3,0,1.36874
0.2,5.4,0,1.38026
0.2,5.5,0,1.39036
0.2,5.6,0,1.39899
0.2,5.7,0,1.40628
0.2,5.8,0,1.4124
0.2,5.9,0,1.41751
0.2,6,0,1.4216
0.2,6.1,0,1.42458
0.2,6.2,0,1.4263
0.2,6.3,0,1.42662
0.2,6.4,0,1.42544
0.2,6.5,0,1.42274
0.2,6.6,0,1.41849
0.2,6.7,0,1.41273
0.2,6.8,0,1.40554
0.2,6.9,0,1.39704
0.2,7,0,1.38171
0.2,7.1,0,1.37921
0.2,7.2,0,1.36942
0.2,7.3,0,1.35346
0.2,7.4,0,1.34323
0.2,7.5,0,1.32854
0.2,7.6,0,1.30845
0.2,7.7,0,1.29302
0.2,7.8,0,1.27557
0.2,7.9,0,1.25202
0.2,8,0,1.23238
0.2,8.1,0,1.2117
0.2,8.2,0,1.18669
0.2,8.3,0,1.16518
0.2,8.4,0,1.14371
0.2,8.5,0,1.11823
0.2,8.6,0,1.09551
0.2,8.7,0,1.07443
0.2,8.8,0,1.04757
0.2,8.9,0,1.02339
0.2,9,0,1.00186
0.2,9.1,0,0.973786
0.2,9.2,0,0.948184
0.2,9.3,0,0.924759
0.2,9.4,0,0.896799
0.2,9.5,0,0.870152
0.2,9.6,0,0.845278
0.2,9.7,0,0.817585
0.2,9.8,0,0.790615
0.2,9.9,0,0.764484
0.2,10,0,0.736943
0.2,10.1,0,0.709957
0.2,10.2,0,0.68295
0.2,10.3,0,0.65535
0.2,10.4,0,0.628149
0.2,10.5,0,0.600641
0.2,10.6,0,0.572968
0.2,10.7,0,0.545566
0.2,10.8,0,0.517976
0.2,10.9,0,0.490347
0.2,11,0,0.462852
0.2,11.1,0,0.435372
0.2,11.2,0,0.40785
0.2,11.3,0,0.380367
0.2,11.4,0,0.352977
0.2,11.5,0,0.325572
0.2,11.6,0,0.298184
0.2,11.7,0,0.270903
0.2,11.8,0,0.243625
0.2,11.9,0,0.216418
0.2,12,0,0.189275
0.2,12.1,0,0.162132
0.2,12.2,0,0.135072
0.2,12.3,0,0.108041
0.2,12.4,0,0.0810003
0.2,12.5,0,0.0540163
0.2,12.6,0,0.0270283
0.2,12.7,0,0.00383902
0.3,0,0,0
0.3,0.1,0,0.0291557
0.3,0.2,0,0.058295
0.3,0.3,0,0.0874398
0.3,0.4,0,0.116588
0.3,0.5,0,0.145723
0.3,0.6,0,0.174923
0.3,0.7,0,0.204092
0.3,0.8,0,0.233285
0.3,0.9,0,0.262476
0.3,1,0,0.291631
0.3,1.1,0,0.320896
0.3,1.2,0,0.350106
0.3,1.3,0,0.379335
0.3,1.4,0,0.408552
0.3,1.5,0,0.437724
0.3,1.6,0,0.466985
0.3,1.7,0,0.496188
0.3,1.8,0,0.525373
0.3,1.9,0,0.55452
0.3,2,0,0.583633
0.3,2.1,0,0.612692
0.3,2.2,0,0.641719
0.3,2.3,0,0.670642
0.3,2.4,0,0.69946
0.3,2.5,0,0.728336
0.3,2.6,0,0.756789
0.3,2.7,0,0.78527
0.3,2.8,0,0.813639
0.3,2.9,0,0.841619
0.3,3,0,0.869852
0.3,3.1,0,0.897255
0.3,3.2,0,0.924545
0.3,3.3,0,0.952152
0.3,3.4,0,0.978617
0.3,3.5,0,1.00529
0.3,3.6,0,1.03183
0.3,3.7,0,1.05736
0.3,3.8,0,1.08377
0.3,3.9,0,1.10813
0.3,4,0,1.13124
0.3,4.1,0,1.15642
0.3,4.2,0,1.17923
0.3,4.3,0,1.20114
0.3,4.4,0,1.22215
0.3,4.5,0,1.24072
0.3,4.6,0,1.26075
0.3,4.7,0,1.2798
0.3,4.8,0,1.29517
0.3,4.9,0,1.3087
0.3,5,0,1.32078
0.3,5.1,0,1.34227
0.3,5.2,0,1.3556
0.3,5.3,0,1.36792
0.3,5.4,0,1.37907
0.3,5.5,0,1.38889
0.3,5.6,0,1.39733
0.3,5.7,0,1.40448
0.3,5.8,0,1.41046
0.3,5.9,0,1.41542
0.3,6,0,1.41935
0.3,6.1,0,1.42215
0.3,6.2,0,1.42368
0.3,6.3,0,1.42382
0.3,6.4,0,1.42248
0.3,6.5,0,1.41961
0.3,6.6,0,1.41519
0.3,6.7,0,1.40922
0.3,6.8,0,1.40175
0.3,6.9,0,1.3928
0.3,7,0,1.37637
0.3,7.1,0,1.35904
0.3,7.2,0,1.34924
0.3,7.3,0,1.34317
0.3,7.4,0,1.32226
0.3,7.5,0,1.30757
0.3,7.6,0,1.29747
0.3,7.7,0,1.2778
0.3,7.8,0,1.26075
0.3,7.9,0,1.2474
0.3,8,0,1.22751
0.3,8.1,0,1.20837
0.3,8.2,0,1.19129
0.3,8.3,0,1.16978
0.3,8.4,0,1.1479
0.3,8.5,0,1.12904
0.3,8.6,0,1.10631
0.3,8.7,0,1.08117
0.3,8.8,0,1.06083
0.3,8.9,0,1.03665
0.3,9,0,1.00876
0.3,9.1,0,0.986435
0.3,9.2,0,0.960834
0.3,9.3,0,0.932064
0.3,9.4,0,0.906991
0.3,9.5,0,0.880343
0.3,9.6,0,0.851295
0.3,9.7,0,0.824549
0.3,9.8,0,0.7971
0.3,9.9,0,0.768439
0.3,10,0,0.741023
0.3,10.1,0,0.713149
0.3,10.2,0,0.684985
0.3,10.3,0,0.657385
0.3,10.4,0,0.629428
0.3,10.5,0,0.601499
0.3,10.6,0,0.573826
0.3,10.7,0,0.545932
0.3,10.8,0,0.51815
0.3,10.9,0,0.490521
0.3,11,0,0.462814
0.3,11.1,0,0.435204
0.3,11.2,0,0.407682
0.3,11.3,0,0.380181
0.3,11.4,0,0.352759
0.3,11.5,0,0.325355
0.3,11.6,0,0.298025
0.3,11.7,0,0.270749
0.3,11.8,0,0.243475
0.3,11.9,0,0.216271
0.3,12,0,0.189128
0.3,12.1,0,0.162005
0.3,12.2,0,0.134942
0.3,12.3,0,0.107911
0.3,12.4,0,0.0809131
0.3,12.5,0,0.053937
0.3,12.6,0,0.026949
0.3,12.7,0,0
0.4,0,0,0
0.4,0.1,0,0.0291721
0.4,0.2,0,0.0583008
0.4,0.3,0,0.0874455
0.4,0.4,0,0.11661
0.4,0.5,0,0.145732
0.4,0.6,0,0.174963
0.4,0.7,0,0.204107
0.4,0.8,0,0.233301
0.4,0.9,0,0.262539
0.4,1,0,0.291659
0.4,1.1,0,0.320979
0.4,1.2,0,0.350157
0.4,1.3,0,0.379386
0.4,1.4,0,0.408676
0.4,1.5,0,0.437803
0.4,1.6,0,0.467122
0.4,1.7,0,0.496297
0.4,1.8,0,0.525482
0.4,1.9,0,0.554701
0.4,2,0,0.583779
0.4,2.1,0,0.61287
0.4,2.2,0,0.641928
0.4,2.3,0,0.670852
0.4,2.4,0,0.699731
0.4,2.5,0,0.728666
0.4,2.6,0,0.757091
0.4,2.7,0,0.785845
0.4,2.8,0,0.814213
0.4,2.9,0,0.842422
0.4,3,0,0.870908
0.4,3.1,0,0.898422
0.4,3.2,0,0.926455
0.4,3.3,0,0.954062
0.4,3.4,0,0.98156
0.4,3.5,0,1.00843
0.4,3.6,0,1.03598
0.4,3.7,0,1.06187
0.4,3.8,0,1.08828
0.4,3.9,0,1.11498
0.4,4,0,1.13685
0.4,4.1,0,1.16438
0.4,4.2,0,1.18526
0.4,4.3,0,1.20716
0.4,4.4,0,1.23003
0.4,4.5,0,1.24617
0.4,4.6,0,1.26717
0.4,4.7,0,1.28364
0.4,4.8,0,1.29901
0.4,4.9,0,1.31281
0.4,5,0,1.32344
0.4,5.1,0,1.34474
0.4,5.2,0,1.35802
0.4,5.3,0,1.37031
0.4,5.4,0,1.38146
0.4,5.5,0,1.39133
0.4,5.6,0,1.39986
0.4,5.7,0,1.40711
0.4,5.8,0,1.4132
0.4,5.9,0,1.41822
0.4,6,0,1.42216
0.4,6.1,0,1.42492
0.4,6.2,0,1.42636
0.4,6.3,0,1.42639
0.4,6.4,0,1.4249
0.4,6.5,0,1.42185
0.4,6.6,0,1.41719
0.4,6.7,0,1.41091
0.4,6.8,0,1.403
0.4,6.9,0,1.39346
0.4,7,0,1.37545
0.4,7.1,0,1.35243
0.4,7.2,0,1.34331
0.4,7.3,0,1.34051
0.4,7.4,0,1.31114
0.4,7.5,0,1.30227
0.4,7.6,0,1.294
0.4,7.7,0,1.26936
0.4,7.8,0,1.25841
0.4,7.9,0,1.24506
0.4,8,0,1.22541
0.4,8.1,0,1.20906
0.4,8.2,0,1.1921
0.4,8.3,0,1.17403
0.4,8.4,0,1.15178
0.4,8.5,0,1.13414
0.4,8.6,0,1.11476
0.4,8.7,0,1.08689
0.4,8.8,0,1.06899
0.4,8.9,0,1.04552
0.4,9,0,1.01499
0.4,9.1,0,0.995681
0.4,9.2,0,0.968151
0.4,9.3,0,0.937844
0.4,9.4,0,0.915142
0.4,9.5,0,0.885491
0.4,9.6,0,0.856028
0.4,9.7,0,0.830249
0.4,9.8,0,0.800468
0.4,9.9,0,0.771807
0.4,10,0,0.744364
0.4,10.1,0,0.715179
0.4,10.2,0,0.687021
0.4,10.3,0,0.659003
0.4,10.4,0,0.630445
0.4,10.5,0,0.602485
0.4,10.6,0,0.574409
0.4,10.7,0,0.546312
0.4,10.8,0,0.518443
0.4,10.9,0,0.490541
0.4,11,0,0.462793
0.4,11.1,0,0.435084
0.4,11.2,0,0.407457
0.4,11.3,0,0.379958
0.4,11.4,0,0.352503
0.4,11.5,0,0.325105
0.4,11.6,0,0.297776
0.4,11.7,0,0.270521
0.4,11.8,0,0.243279
0.4,11.9,0,0.216075
0.4,12,0,0.188937
0.4,12.1,0,0.161865
0.4,12.2,0,0.134797
0.4,12.3,0,0.107775
0.4,12.4,0,0.0808221
0.4,12.5,0,0.0538492
0.4,12.6,0,0.0269196
0.4,12.7,0,0
0.5,0,0,0
0.5,0.1,0,0.0291451
0.5,0.2,0,0.0582902
0.5,0.3,0,0.0874385
0.5,0.4,0,0.11659
0.5,0.5,0,0.145742
0.5,0.6,0,0.174917
0.5,0.7,0,0.204092
0.5,0.8,0,0.233281
0.5,0.9,0,0.262484
0.5,1,0,0.291687
0.5,1.1,0,0.32092
0.5,1.2,0,0.350153
0.5,1.3,0,0.379392
0.5,1.4,0,0.408637
0.5,1.5,0,0.437883
0.5,1.6,0,0.467115
0.5,1.7,0,0.496348
0.5,1.8,0,0.525556
0.5,1.9,0,0.554741
0.5,2,0,0.583925
0.5,2.1,0,0.613015
0.5,2.2,0,0.642106
0.5,2.3,0,0.67112
0.5,2.4,0,0.700058
0.5,2.5,0,0.728996
0.5,2.6,0,0.757721
0.5,2.7,0,0.786447
0.5,2.8,0,0.815041
0.5,2.9,0,0.843502
0.5,3,0,0.871964
0.5,3.1,0,0.900108
0.5,3.2,0,0.928252
0.5,3.3,0,0.956176
0.5,3.4,0,0.983879
0.5,3.5,0,1.01158
0.5,3.6,0,1.03848
0.5,3.7,0,1.06538
0.5,3.8,0,1.09155
0.5,3.9,0,1.117
0.5,4,0,1.14245
0.5,4.1,0,1.16569
0.5,4.2,0,1.18893
0.5,4.3,0,1.21076
0.5,4.4,0,1.23118
0.5,4.5,0,1.25161
0.5,4.6,0,1.26906
0.5,4.7,0,1.2865
0.5,4.8,0,1.3014
0.5,4.9,0,1.31376
0.5,5,0,1.32611
0.5,5.1,0,1.34721
0.5,5.2,0,1.36044
0.5,5.3,0,1.37269
0.5,5.4,0,1.38385
0.5,5.5,0,1.39377
0.5,5.6,0,1.40238
0.5,5.7,0,1.40975
0.5,5.8,0,1.41594
0.5,5.9,0,1.42102
0.5,6,0,1.42497
0.5,6.1,0,1.42769
0.5,6.2,0,1.42905
0.5,6.3,0,1.42895
0.5,6.4,0,1.42732
0.5,6.5,0,1.42408
0.5,6.6,0,1.41919
0.5,6.7,0,1.41259
0.5,6.8,0,1.40426
0.5,6.9,0,1.39412
0.5,7,0,1.37454
0.5,7.1,0,1.36321
0.5,7.2,0,1.35189
0.5,7.3,0,1.33996
0.5,7.4,0,1.32457
0.5,7.5,0,1.30918
0.5,7.6,0,1.29353
0.5,7.7,0,1.27727
0.5,7.8,0,1.26101
0.5,7.9,0,1.24437
0.5,8,0,1.22726
0.5,8.1,0,1.21016
0.5,8.2,0,1.19209
0.5,8.3,0,1.17338
0.5,8.4,0,1.15467
0.5,8.5,0,1.13416
0.5,8.6,0,1.11305
0.5,8.7,0,1.09193
0.5,8.8,0,1.06846
0.5,8.9,0,1.04473
0.5,9,0,1.02088
0.5,9.1,0,0.994886
0.5,9.2,0,0.968895
0.5,9.3,0,0.942589
0.5,9.4,0,0.915023
0.5,9.5,0,0.887457
0.5,9.6,0,0.859595
0.5,9.7,0,0.831182
0.5,9.8,0,0.802768
0.5,9.9,0,0.774242
0.5,10,0,0.745605
0.5,10.1,0,0.716967
0.5,10.2,0,0.688426
0.5,10.3,0,0.659937
0.5,10.4,0,0.631448
0.5,10.5,0,0.603164
0.5,10.6,0,0.574931
0.5,10.7,0,0.546699
0.5,10.8,0,0.518705
0.5,10.9,0,0.490725
0.5,11,0,0.462772
0.5,11.1,0,0.435073
0.5,11.2,0,0.407374
0.5,11.3,0,0.379743
0.5,11.4,0,0.352316
0.5,11.5,0,0.324889
0.5,11.6,0,0.29754
0.5,11.7,0,0.270308
0.5,11.8,0,0.243076
0.5,11.9,0,0.21592
0.5,12,0,0.188826
0.5,12.1,0,0.161732
0.5,12.2,0,0.134712
0.5,12.3,0,0.107724
0.5,12.4,0,0.0807364
0.5,12.5,0,0.0538163
0.5,12.6,0,0.0269081
0.5,12.7,0,0
0.6,0,0,0
0.6,0.1,0,0.0291326
0.6,0.2,0,0.0582618
0.6,0.3,0,0.0873927
0.6,0.4,0,0.116543
0.6,0.5,0,0.145669
0.6,0.6,0,0.174852
0.6,0.7,0,0.20401
0.6,0.8,0,0.233186
0.6,0.9,0,0.262392
0.6,1,0,0.291581
0.6,1.1,0,0.32084
0.6,1.2,0,0.350064
0.6,1.3,0,0.379322
0.6,1.4,0,0.408593
0.6,1.5,0,0.437828
0.6,1.6,0,0.467138
0.6,1.7,0,0.496373
0.6,1.8,0,0.525623
0.6,1.9,0,0.554847
0.6,2,0,0.584084
0.6,2.1,0,0.613281
0.6,2.2,0,0.642417
0.6,2.3,0,0.671555
0.6,2.4,0,0.70057
0.6,2.5,0,0.729633
0.6,2.6,0,0.75859
0.6,2.7,0,0.787392
0.6,2.8,0,0.816237
0.6,2.9,0,0.844873
0.6,3,0,0.873479
0.6,3.1,0,0.902138
0.6,3.2,0,0.930309
0.6,3.3,0,0.958646
0.6,3.4,0,0.986736
0.6,3.5,0,1.01418
0.6,3.6,0,1.04205
0.6,3.7,0,1.06864
0.6,3.8,0,1.09496
0.6,3.9,0,1.12086
0.6,4,0,1.14568
0.6,4.1,0,1.1696
0.6,4.2,0,1.1927
0.6,4.3,0,1.21466
0.6,4.4,0,1.23535
0.6,4.5,0,1.25594
0.6,4.6,0,1.2739
0.6,4.7,0,1.29159
0.6,4.8,0,1.30816
0.6,4.9,0,1.32193
0.6,5,0,1.33252
0.6,5.1,0,1.35458
0.6,5.2,0,1.36839
0.6,5.3,0,1.38122
0.6,5.4,0,1.39293
0.6,5.5,0,1.40336
0.6,5.6,0,1.41245
0.6,5.7,0,1.42022
0.6,5.8,0,1.42678
0.6,5.9,0,1.43219
0.6,6,0,1.43641
0.6,6.1,0,1.43934
0.6,6.2,0,1.44086
0.6,6.3,0,1.44085
0.6,6.4,0,1.43922
0.6,6.5,0,1.43594
0.6,6.6,0,1.43094
0.6,6.7,0,1.42422
0.6,6.8,0,1.41576
0.6,6.9,0,1.40557
0.6,7,0,1.38601
0.6,7.1,0,1.38254
0.6,7.2,0,1.36986
0.6,7.3,0,1.35124
0.6,7.4,0,1.33928
0.6,7.5,0,1.32154
0.6,7.6,0,1.30215
0.6,7.7,0,1.28588
0.6,7.8,0,1.26807
0.6,7.9,0,1.24898
0.6,8,0,1.23033
0.6,8.1,0,1.21331
0.6,8.2,0,1.19456
0.6,8.3,0,1.17519
0.6,8.4,0,1.15654
0.6,8.5,0,1.13549
0.6,8.6,0,1.1141
0.6,8.7,0,1.09308
0.6,8.8,0,1.0693
0.6,8.9,0,1.04548
0.6,9,0,1.02165
0.6,9.1,0,0.995687
0.6,9.2,0,0.969656
0.6,9.3,0,0.943356
0.6,9.4,0,0.916293
0.6,9.5,0,0.88848
0.6,9.6,0,0.86053
0.6,9.7,0,0.832658
0.6,9.8,0,0.803793
0.6,9.9,0,0.77515
0.6,10,0,0.746813
0.6,10.1,0,0.717658
0.6,10.2,0,0.688983
0.6,10.3,0,0.660565
0.6,10.4,0,0.631684
0.6,10.5,0,0.60339
0.6,10.6,0,0.575159
0.6,10.7,0,0.546613
0.6,10.8,0,0.518641
0.6,10.9,0,0.490625
0.6,11,0,0.462506
0.6,11.1,0,0.43472
0.6,11.2,0,0.407016
0.6,11.3,0,0.37936
0.6,11.4,0,0.351855
0.6,11.5,0,0.324453
0.6,11.6,0,0.29714
0.6,11.7,0,0.269924
0.6,11.8,0,0.242707
0.6,11.9,0,0.215611
0.6,12,0,0.18857
0.6,12.1,0,0.161487
0.6,12.2,0,0.134529
0.6,12.3,0,0.107577
0.6,12.4,0,0.08062
0.6,12.5,0,0.0537147
0.6,12.6,0,0.026822
0.6,12.7,0,0
0.7,0,0,0
0.7,0.1,0,0.0291167
0.7,0.2,0,0.0582175
0.7,0.3,0,0.0873484
0.7,0.4,0,0.116471
0.7,0.5,0,0.145596
0.7,0.6,0,0.174762
0.7,0.7,0,0.203912
0.7,0.8,0,0.233087
0.7,0.9,0,0.262282
0.7,1,0,0.291474
0.7,1.1,0,0.320725
0.7,1.2,0,0.349968
0.7,1.3,0,0.379225
0.7,1.4,0,0.408512
0.7,1.5,0,0.437773
0.7,1.6,0,0.467085
0.7,1.7,0,0.496399
0.7,1.8,0,0.52565
0.7,1.9,0,0.554967
0.7,2,0,0.584244
0.7,2.1,0,0.613486
0.7,2.2,0,0.642773
0.7,2.3,0,0.671911
0.7,2.4,0,0.70113
0.7,2.5,0,0.73027
0.7,2.6,0,0.759304
0.7,2.7,0,0.788414
0.7,2.8,0,0.817258
0.7,2.9,0,0.846213
0.7,3,0,0.874994
0.7,3.1,0,0.90368
0.7,3.2,0,0.932393
0.7,3.3,0,0.96073
0.7,3.4,0,0.988948
0.7,3.5,0,1.01678
0.7,3.6,0,1.04434
0.7,3.7,0,1.07159
0.7,3.8,0,1.09791
0.7,3.9,0,1.12363
0.7,4,0,1.1489
0.7,4.1,0,1.17268
0.7,4.2,0,1.19633
0.7,4.3,0,1.21829
0.7,4.4,0,1.23942
0.7,4.5,0,1.26027
0.7,4.6,0,1.27848
0.7,4.7,0,1.29692
0.7,4.8,0,1.31349
0.7,4.9,0,1.32693
0.7,5,0,1.33894
0.7,5.1,0,1.36196
0.7,5.2,0,1.37635
0.7,5.3,0,1.38975
0.7,5.4,0,1.40201
0.7,5.5,0,1.41296
0.7,5.6,0,1.42251
0.7,5.7,0,1.4307
0.7,5.8,0,1.43763
0.7,5.9,0,1.44336
0.7,6,0,1.44785
0.7,6.1,0,1.451
0.7,6.2,0,1.45266
0.7,6.3,0,1.45274
0.7,6.4,0,1.45113
0.7,6.5,0,1.4478
0.7,6.6,0,1.4427
0.7,6.7,0,1.43585
0.7,6.8,0,1.42726
0.7,6.9,0,1.41701
0.7,7,0,1.39748
0.7,7.1,0,1.39036
0.7,7.2,0,1.37841
0.7,7.3,0,1.36199
0.7,7.4,0,1.34698
0.7,7.5,0,1.32972
0.7,7.6,0,1.31078
0.7,7.7,0,1.29259
0.7,7.8,0,1.2737
0.7,7.9,0,1.2546
0.7,8,0,1.23535
0.7,8.1,0,1.21649
0.7,8.2,0,1.19775
0.7,8.3,0,1.17789
0.7,8.4,0,1.15842
0.7,8.5,0,1.13739
0.7,8.6,0,1.11564
0.7,8.7,0,1.09423
0.7,8.8,0,1.07046
0.7,8.9,0,1.04639
0.7,9,0,1.02242
0.7,9.1,0,0.996397
0.7,9.2,0,0.970309
0.7,9.3,0,0.944016
0.7,9.4,0,0.916668
0.7,9.5,0,0.889134
0.7,9.6,0,0.861226
0.7,9.7,0,0.832947
0.7,9.8,0,0.804464
0.7,9.9,0,0.775821
0.7,10,0,0.747045
0.7,10.1,0,0.71812
0.7,10.2,0,0.689411
0.7,10.3,0,0.660651
0.7,10.4,0,0.631838
0.7,10.5,0,0.603471
0.7,10.6,0,0.575015
0.7,10.7,0,0.546513
0.7,10.8,0,0.518473
0.7,10.9,0,0.490356
0.7,11,0,0.462249
0.7,11.1,0,0.434461
0.7,11.2,0,0.406671
0.7,11.3,0,0.379
0.7,11.4,0,0.351516
0.7,11.5,0,0.324048
0.7,11.6,0,0.296732
0.7,11.7,0,0.26954
0.7,11.8,0,0.242348
0.7,11.9,0,0.215252
0.7,12,0,0.18826
0.7,12.1,0,0.161245
0.7,12.2,0,0.134291
0.7,12.3,0,0.107417
0.7,12.4,0,0.0805082
0.7,12.5,0,0.053627
0.7,12.6,0,0.0268169
0.7,12.7,0,0
0.8,0,0,0
0.8,0.1,0,0.0290687
0.8,0.2,0,0.0581695
0.8,0.3,0,0.0872728
0.8,0.4,0,0.116396
0.8,0.5,0,0.145495
0.8,0.6,0,0.174634
0.8,0.7,0,0.203784
0.8,0.8,0,0.232951
0.8,0.9,0,0.262146
0.8,1,0,0.29133
0.8,1.1,0,0.320578
0.8,1.2,0,0.349821
0.8,1.3,0,0.379099
0.8,1.4,0,0.408386
0.8,1.5,0,0.437683
0.8,1.6,0,0.467027
0.8,1.7,0,0.496341
0.8,1.8,0,0.525733
0.8,1.9,0,0.555051
0.8,2,0,0.584416
0.8,2.1,0,0.613762
0.8,2.2,0,0.64305
0.8,2.3,0,0.672436
0.8,2.4,0,0.701654
0.8,2.5,0,0.730997
0.8,2.6,0,0.760159
0.8,2.7,0,0.789269
0.8,2.8,0,0.818514
0.8,2.9,0,0.847469
0.8,3,0,0.876622
0.8,3.1,0,0.9054
0.8,3.2,0,0.934113
0.8,3.3,0,0.962898
0.8,3.4,0,0.991115
0.8,3.5,0,1.01933
0.8,3.6,0,1.04694
0.8,3.7,0,1.07419
0.8,3.8,0,1.10113
0.8,3.9,0,1.12685
0.8,4,0,1.1521
0.8,4.1,0,1.1768
0.8,4.2,0,1.20044
0.8,4.3,0,1.22342
0.8,4.4,0,1.24455
0.8,4.5,0,1.26512
0.8,4.6,0,1.28464
0.8,4.7,0,1.30309
0.8,4.8,0,1.32074
0.8,4.9,0,1.33417
0.8,5,0,1.34663
0.8,5.1,0,1.37067
0.8,5.2,0,1.38569
0.8,5.3,0,1.39972
0.8,5.4,0,1.41258
0.8,5.5,0,1.42407
0.8,5.6,0,1.43411
0.8,5.7,0,1.44273
0.8,5.8,0,1.45004
0.8,5.9,0,1.45611
0.8,6,0,1.4609
0.8,6.1,0,1.46429
0.8,6.2,0,1.46614
0.8,6.3,0,1.46634
0.8,6.4,0,1.4648
0.8,6.5,0,1.46147
0.8,6.6,0,1.45634
0.8,6.7,0,1.44942
0.8,6.8,0,1.44075
0.8,6.9,0,1.43046
0.8,7,0,1.41092
0.8,7.1,0,1.39686
0.8,7.2,0,1.38491
0.8,7.3,0,1.37296
0.8,7.4,0,1.353
0.8,7.5,0,1.33574
0.8,7.6,0,1.31903
0.8,7.7,0,1.29874
0.8,7.8,0,1.27989
0.8,7.9,0,1.26059
0.8,8,0,1.24098
0.8,8.1,0,1.22173
0.8,8.2,0,1.20183
0.8,8.3,0,1.18197
0.8,8.4,0,1.16151
0.8,8.5,0,1.14072
0.8,8.6,0,1.11897
0.8,8.7,0,1.09567
0.8,8.8,0,1.07294
0.8,8.9,0,1.04887
0.8,9,0,1.02282
0.8,9.1,0,0.998011
0.8,9.2,0,0.971923
0.8,9.3,0,0.944264
0.8,9.4,0,0.917417
0.8,9.5,0,0.889883
0.8,9.6,0,0.861352
0.8,9.7,0,0.833201
0.8,9.8,0,0.804681
0.8,9.9,0,0.775818
0.8,10,0,0.747049
0.8,10.1,0,0.718082
0.8,10.2,0,0.68925
0.8,10.3,0,0.66049
0.8,10.4,0,0.631617
0.8,10.5,0,0.603068
0.8,10.6,0,0.574613
0.8,10.7,0,0.546113
0.8,10.8,0,0.517986
0.8,10.9,0,0.489868
0.8,11,0,0.461777
0.8,11.1,0,0.434013
0.8,11.2,0,0.406223
0.8,11.3,0,0.378501
0.8,11.4,0,0.35103
0.8,11.5,0,0.323562
0.8,11.6,0,0.296214
0.8,11.7,0,0.269017
0.8,11.8,0,0.241842
0.8,11.9,0,0.21482
0.8,12,0,0.187829
0.8,12.1,0,0.160869
0.8,12.2,0,0.134036
0.8,12.3,0,0.107162
0.8,12.4,0,0.080328
0.8,12.5,0,0.0535888
0.8,12.6,0,0.0267787
0.8,12.7,0,0
0.9,0,0,0
0.9,0.1,0,0.0290365
0.9,0.2,0,0.0580974
0.9,0.3,0,0.0872007
0.9,0.4,0,0.116291
0.9,0.5,0,0.145367
0.9,0.6,0,0.174496
0.9,0.7,0,0.203621
0.9,0.8,0,0.232788
0.9,0.9,0,0.261975
0.9,1,0,0.291148
0.9,1.1,0,0.320401
0.9,1.2,0,0.349644
0.9,1.3,0,0.378921
0.9,1.4,0,0.408249
0.9,1.5,0,0.437557
0.9,1.6,0,0.466932
0.9,1.7,0,0.496333
0.9,1.8,0,0.525725
0.9,1.9,0,0.555186
0.9,2,0,0.5846
0.9,2.1,0,0.614005
0.9,2.2,0,0.643505
0.9,2.3,0,0.672891
0.9,2.4,0,0.702347
0.9,2.5,0,0.731813
0.9,2.6,0,0.761027
0.9,2.7,0,0.790525
0.9,2.8,0,0.819771
0.9,2.9,0,0.849013
0.9,3,0,0.878363
0.9,3.1,0,0.907206
0.9,3.2,0,0.936295
0.9,3.3,0,0.96508
0.9,3.4,0,0.993623
0.9,3.5,0,1.02183
0.9,3.6,0,1.0498
0.9,3.7,0,1.07695
0.9,3.8,0,1.10389
0.9,3.9,0,1.1305
0.9,4,0,1.15526
0.9,4.1,0,1.18103
0.9,4.2,0,1.20442
0.9,4.3,0,1.2274
0.9,4.4,0,1.25047
0.9,4.5,0,1.27049
0.9,4.6,0,1.29108
0.9,4.7,0,1.31039
0.9,4.8,0,1.32804
0.9,4.9,0,1.34411
0.9,5,0,1.35559
0.9,5.1,0,1.38071
0.9,5.2,0,1.39643
0.9,5.3,0,1.41114
0.9,5.4,0,1.42464
0.9,5.5,0,1.43671
0.9,5.6,0,1.44725
0.9,5.7,0,1.45632
0.9,5.8,0,1.46402
0.9,5.9,0,1.47045
0.9,6,0,1.47556
0.9,6.1,0,1.47923
0.9,6.2,0,1.4813
0.9,6.3,0,1.48165
0.9,6.4,0,1.48022
0.9,6.5,0,1.47696
0.9,6.6,0,1.47186
0.9,6.7,0,1.46493
0.9,6.8,0,1.45624
0.9,6.9,0,1.44592
0.9,7,0,1.42633
0.9,7.1,0,1.41068
0.9,7.2,0,1.39877
0.9,7.3,0,1.38769
0.9,7.4,0,1.36404
0.9,7.5,0,1.3477
0.9,7.6,0,1.33157
0.9,7.7,0,1.30785
0.9,7.8,0,1.2889
0.9,7.9,0,1.2696
0.9,8,0,1.24727
0.9,8.1,0,1.22717
0.9,8.2,0,1.20726
0.9,8.3,0,1.18606
0.9,8.4,0,1.16426
0.9,8.5,0,1.14377
0.9,8.6,0,1.12162
0.9,8.7,0,1.09657
0.9,8.8,0,1.07468
0.9,8.9,0,1.05001
0.9,9,0,1.02263
0.9,9.1,0,0.998994
0.9,9.2,0,0.971882
0.9,9.3,0,0.943555
0.9,9.4,0,0.917761
0.9,9.5,0,0.88919
0.9,9.6,0,0.860501
0.9,9.7,0,0.833098
0.9,9.8,0,0.803904
0.9,9.9,0,0.77504
0.9,10,0,0.746735
0.9,10.1,0,0.71741
0.9,10.2,0,0.688604
0.9,10.3,0,0.660005
0.9,10.4,0,0.63096
0.9,10.5,0,0.602423
0.9,10.6,0,0.573956
0.9,10.7,0,0.545416
0.9,10.8,0,0.517297
0.9,10.9,0,0.489178
0.9,11,0,0.46108
0.9,11.1,0,0.433344
0.9,11.2,0,0.405569
0.9,11.3,0,0.377843
0.9,11.4,0,0.350374
0.9,11.5,0,0.322954
0.9,11.6,0,0.295608
0.9,11.7,0,0.268401
0.9,11.8,0,0.241316
0.9,11.9,0,0.214294
0.9,12,0,0.187358
0.9,12.1,0,0.160483
0.9,12.2,0,0.13366
0.9,12.3,0,0.106912
0.9,12.4,0,0.0801325
0.9,12.5,0,0.0534258
0.9,12.6,0,0.0267549
0.9,12.7,0,0
1,0,0,0
1,0.1,0,0.0290287
1,0.2,0,0.0580574
1,0.3,0,0.0871051
1,0.4,0,0.116172
1,0.5,0,0.145238
1,0.6,0,0.174353
1,0.7,0,0.203468
1,0.8,0,0.232614
1,0.9,0,0.26179
1,1,0,0.290967
1,1.1,0,0.320214
1,1.2,0,0.349462
1,1.3,0,0.378754
1,1.4,0,0.408092
1,1.5,0,0.43743
1,1.6,0,0.466862
1,1.7,0,0.496295
1,1.8,0,0.525765
1,1.9,0,0.555275
1,2,0,0.584784
1,2.1,0,0.614343
1,2.2,0,0.643902
1,2.3,0,0.673471
1,2.4,0,0.70305
1,2.5,0,0.732629
1,2.6,0,0.76218
1,2.7,0,0.79173
1,2.8,0,0.821225
1,2.9,0,0.850664
1,3,0,0.880104
1,3.1,0,0.909258
1,3.2,0,0.938413
1,3.3,0,0.96726
1,3.4,0,0.995799
1,3.5,0,1.02434
1,3.6,0,1.05185
1,3.7,0,1.07936
1,3.8,0,1.10618
1,3.9,0,1.1323
1,4,0,1.15843
1,4.1,0,1.18288
1,4.2,0,1.20734
1,4.3,0,1.23082
1,4.4,0,1.25334
1,4.5,0,1.27585
1,4.6,0,1.29624
1,4.7,0,1.31663
1,4.8,0,1.33437
1,4.9,0,1.34946
1,5,0,1.36455
1,5.1,0,1.39075
1,5.2,0,1.40716
1,5.3,0,1.42256
1,5.4,0,1.43669
1,5.5,0,1.44934
1,5.6,0,1.46039
1,5.7,0,1.4699
1,5.8,0,1.47801
1,5.9,0,1.48479
1,6,0,1.49022
1,6.1,0,1.49416
1,6.2,0,1.49645
1,6.3,0,1.49697
1,6.4,0,1.49565
1,6.5,0,1.49245
1,6.6,0,1.48738
1,6.7,0,1.48045
1,6.8,0,1.47174
1,6.9,0,1.46137
1,7,0,1.44174
1,7.1,0,1.42919
1,7.2,0,1.41664
1,7.3,0,1.4031
1,7.4,0,1.38392
1,7.5,0,1.36475
1,7.6,0,1.34473
1,7.7,0,1.32274
1,7.8,0,1.30076
1,7.9,0,1.27859
1,8,0,1.25622
1,8.1,0,1.23384
1,8.2,0,1.21156
1,8.3,0,1.18934
1,8.4,0,1.16712
1,8.5,0,1.14404
1,8.6,0,1.12067
1,8.7,0,1.0973
1,8.8,0,1.07244
1,8.9,0,1.0474
1,9,0,1.02229
1,9.1,0,0.995754
1,9.2,0,0.969214
1,9.3,0,0.942449
1,9.4,0,0.914789
1,9.5,0,0.887129
1,9.6,0,0.859221
1,9.7,0,0.830851
1,9.8,0,0.802482
1,9.9,0,0.773932
1,10,0,0.745204
1,10.1,0,0.716475
1,10.2,0,0.687734
1,10.3,0,0.658987
1,10.4,0,0.63024
1,10.5,0,0.601698
1,10.6,0,0.573207
1,10.7,0,0.544716
1,10.8,0,0.51658
1,10.9,0,0.488462
1,11,0,0.460381
1,11.1,0,0.432626
1,11.2,0,0.404871
1,11.3,0,0.377199
1,11.4,0,0.349775
1,11.5,0,0.322352
1,11.6,0,0.29505
1,11.7,0,0.267931
1,11.8,0,0.240812
1,11.9,0,0.213832
1,12,0,0.186963
1,12.1,0,0.160095
1,12.2,0,0.13334
1,12.3,0,0.106633
1,12.4,0,0.079926
1,12.5,0,0.0532772
1,12.6,0,0.0266386
1,12.7,0,0
1.1,0,0,0
1.1,0.1,0,0.028974
1.1,0.2,0,0.0579976
1.1,0.3,0,0.0869986
1.1,0.4,0,0.116024
1.1,0.5,0,0.145104
1.1,0.6,0,0.174144
1.1,0.7,0,0.203272
1.1,0.8,0,0.232402
1.1,0.9,0,0.26155
1.1,1,0,0.290763
1.1,1.1,0,0.319941
1.1,1.2,0,0.349238
1.1,1.3,0,0.378542
1.1,1.4,0,0.40784
1.1,1.5,0,0.437335
1.1,1.6,0,0.4667
1.1,1.7,0,0.49623
1.1,1.8,0,0.525796
1.1,1.9,0,0.555302
1.1,2,0,0.585015
1.1,2.1,0,0.614643
1.1,2.2,0,0.64431
1.1,2.3,0,0.674079
1.1,2.4,0,0.70375
1.1,2.5,0,0.733517
1.1,2.6,0,0.763393
1.1,2.7,0,0.793
1.1,2.8,0,0.822795
1.1,2.9,0,0.852478
1.1,3,0,0.88191
1.1,3.1,0,0.911718
1.1,3.2,0,0.940795
1.1,3.3,0,0.969911
1.1,3.4,0,0.998797
1.1,3.5,0,1.02722
1.1,3.6,0,1.05513
1.1,3.7,0,1.08284
1.1,3.8,0,1.10968
1.1,3.9,0,1.13563
1.1,4,0,1.16329
1.1,4.1,0,1.18655
1.1,4.2,0,1.21236
1.1,4.3,0,1.23647
1.1,4.4,0,1.25827
1.1,4.5,0,1.28394
1.1,4.6,0,1.30361
1.1,4.7,0,1.32524
1.1,4.8,0,1.34616
1.1,4.9,0,1.36319
1.1,5,0,1.37571
1.1,5.1,0,1.40267
1.1,5.2,0,1.41959
1.1,5.3,0,1.43551
1.1,5.4,0,1.45019
1.1,5.5,0,1.46336
1.1,5.6,0,1.4749
1.1,5.7,0,1.48485
1.1,5.8,0,1.49336
1.1,5.9,0,1.50052
1.1,6,0,1.50629
1.1,6.1,0,1.51052
1.1,6.2,0,1.51304
1.1,6.3,0,1.5137
1.1,6.4,0,1.51244
1.1,6.5,0,1.50921
1.1,6.6,0,1.504
1.1,6.7,0,1.49685
1.1,6.8,0,1.48782
1.1,6.9,0,1.47705
1.1,7,0,1.45665
1.1,7.1,0,1.45698
1.1,7.2,0,1.44216
1.1,7.3,0,1.41811
1.1,7.4,0,1.40828
1.1,7.5,0,1.38425
1.1,7.6,0,1.35784
1.1,7.7,0,1.33959
1.1,7.8,0,1.31393
1.1,7.9,0,1.28761
1.1,8,0,1.2641
1.1,8.1,0,1.24151
1.1,8.2,0,1.21725
1.1,8.3,0,1.19334
1.1,8.4,0,1.17229
1.1,8.5,0,1.14651
1.1,8.6,0,1.12166
1.1,8.7,0,1.1008
1.1,8.8,0,1.07229
1.1,8.9,0,1.04678
1.1,9,0,1.02431
1.1,9.1,0,0.994121
1.1,9.2,0,0.96809
1.1,9.3,0,0.942806
1.1,9.4,0,0.91283
1.1,9.5,0,0.885929
1.1,9.6,0,0.858582
1.1,9.7,0,0.829209
1.1,9.8,0,0.801308
1.1,9.9,0,0.772901
1.1,10,0,0.743887
1.1,10.1,0,0.715344
1.1,10.2,0,0.686606
1.1,10.3,0,0.657797
1.1,10.4,0,0.629127
1.1,10.5,0,0.600552
1.1,10.6,0,0.572047
1.1,10.7,0,0.543629
1.1,10.8,0,0.515433
1.1,10.9,0,0.487326
1.1,11,0,0.459327
1.1,11.1,0,0.431522
1.1,11.2,0,0.403813
1.1,11.3,0,0.376233
1.1,11.4,0,0.348807
1.1,11.5,0,0.321449
1.1,11.6,0,0.294233
1.1,11.7,0,0.267137
1.1,11.8,0,0.240095
1.1,11.9,0,0.213177
1.1,12,0,0.186323
1.1,12.1,0,0.159574
1.1,12.2,0,0.132909
1.1,12.3,0,0.106233
1.1,12.4,0,0.0796473
1.1,12.5,0,0.0530863
1.1,12.6,0,0.026492
1.1,12.7,0,0
1.2,0,0,0
1.2,0.1,0,0.0289689
1.2,0.2,0,0.0579327
1.2,0.3,0,0.0869337
1.2,0.4,0,0.11593
1.2,0.5,0,0.144969
1.2,0.6,0,0.174022
1.2,0.7,0,0.203088
1.2,0.8,0,0.232219
1.2,0.9,0,0.261375
1.2,1,0,0.29056
1.2,1.1,0,0.319788
1.2,1.2,0,0.349065
1.2,1.3,0,0.378369
1.2,1.4,0,0.407785
1.2,1.5,0,0.43724
1.2,1.6,0,0.466703
1.2,1.7,0,0.496263
1.2,1.8,0,0.525829
1.2,1.9,0,0.555536
1.2,2,0,0.585245
1.2,2.1,0,0.614982
1.2,2.2,0,0.644827
1.2,2.3,0,0.674596
1.2,2.4,0,0.704547
1.2,2.5,0,0.734406
1.2,2.6,0,0.764338
1.2,2.7,0,0.794327
1.2,2.8,0,0.824122
1.2,2.9,0,0.85404
1.2,3,0,0.883716
1.2,3.1,0,0.913446
1.2,3.2,0,0.943099
1.2,3.3,0,0.972214
1.2,3.4,0,1.00133
1.2,3.5,0,1.0301
1.2,3.6,0,1.05821
1.2,3.7,0,1.08653
1.2,3.8,0,1.11337
1.2,3.9,0,1.14068
1.2,4,0,1.16816
1.2,4.1,0,1.19277
1.2,4.2,0,1.21874
1.2,4.3,0,1.24285
1.2,4.4,0,1.26707
1.2,4.5,0,1.29202
1.2,4.6,0,1.31294
1.2,4.7,0,1.3351
1.2,4.8,0,1.35602
1.2,4.9,0,1.37241
1.2,5,0,1.38687
1.2,5.1,0,1.41459
1.2,5.2,0,1.43201
1.2,5.3,0,1.44847
1.2,5.4,0,1.46368
1.2,5.5,0,1.47738
1.2,5.6,0,1.4894
1.2,5.7,0,1.4998
1.2,5.8,0,1.50871
1.2,5.9,0,1.51625
1.2,6,0,1.52236
1.2,6.1,0,1.52688
1.2,6.2,0,1.52962
1.2,6.3,0,1.53044
1.2,6.4,0,1.52923
1.2,6.5,0,1.52596
1.2,6.6,0,1.52063
1.2,6.7,0,1.51325
1.2,6.8,0,1.5039
1.2,6.9,0,1.49274
1.2,7,0,1.47156
1.2,7.1,0,1.46586
1.2,7.2,0,1.45215
1.2,7.3,0,1.4317
1.2,7.4,0,1.41556
1.2,7.5,0,1.3948
1.2,7.6,0,1.36962
1.2,7.7,0,1.34754
1.2,7.8,0,1.3237
1.2,7.9,0,1.29738
1.2,8,0,1.2731
1.2,8.1,0,1.24907
1.2,8.2,0,1.22484
1.2,8.3,0,1.20081
1.2,8.4,0,1.17779
1.2,8.5,0,1.15245
1.2,8.6,0,1.12755
1.2,8.7,0,1.10455
1.2,8.8,0,1.07702
1.2,8.9,0,1.05063
1.2,9,0,1.02652
1.2,9.1,0,0.997507
1.2,9.2,0,0.96978
1.2,9.3,0,0.943656
1.2,9.4,0,0.914507
1.2,9.5,0,0.885931
1.2,9.6,0,0.858387
1.2,9.7,0,0.829318
1.2,9.8,0,0.800499
1.2,9.9,0,0.772093
1.2,10,0,0.743137
1.2,10.1,0,0.714297
1.2,10.2,0,0.685564
1.2,10.3,0,0.656774
1.2,10.4,0,0.62803
1.2,10.5,0,0.599472
1.2,10.6,0,0.570993
1.2,10.7,0,0.542545
1.2,10.8,0,0.514386
1.2,10.9,0,0.486299
1.2,11,0,0.458279
1.2,11.1,0,0.430539
1.2,11.2,0,0.402857
1.2,11.3,0,0.375267
1.2,11.4,0,0.347924
1.2,11.5,0,0.320619
1.2,11.6,0,0.293403
1.2,11.7,0,0.266408
1.2,11.8,0,0.239428