/*--------------------------------*- C++ -*----------------------------------*\
| =========                 |                                                 |
| \\      /  F ield         | OpenFOAM: The Open Source CFD Toolbox           |
|  \\    /   O peration     | Version:  v1806                                 |
|   \\  /    A nd           | Web:      www.OpenFOAM.com                      |
|    \\/     M anipulation  |                                                 |
\*---------------------------------------------------------------------------*/
FoamFile
{
    version     2.0;
    format      ascii;
    class       volVectorField;
    location    "240";
    object      U;
}
// * * * * * * * * * * * * * * * * * * * * * * * * * * * * * * * * * * * * * //

dimensions      [0 1 -1 0 0 0 0];


internalField   nonuniform List<vector> 
2400
(
(0.299997 -0.00024311 0)
(0.299998 -0.000989861 0)
(0.299982 -0.00146741 0)
(0.299969 -0.00233024 0)
(0.299937 -0.00285288 0)
(0.299899 -0.0039217 0)
(0.299848 -0.00455951 0)
(0.299775 -0.00592638 0)
(0.299697 -0.00676684 0)
(0.299576 -0.00852345 0)
(0.29947 -0.00967503 0)
(0.299292 -0.0118801 0)
(0.299158 -0.0134485 0)
(0.298935 -0.0160539 0)
(0.298798 -0.0180491 0)
(0.298593 -0.0207599 0)
(0.298528 -0.0228813 0)
(0.298494 -0.0250019 0)
(0.298647 -0.0263531 0)
(0.298972 -0.0268511 0)
(0.299995 -0.000240753 0)
(0.299993 -0.000988103 0)
(0.299964 -0.0014572 0)
(0.299941 -0.00232305 0)
(0.299887 -0.00283178 0)
(0.299832 -0.00390764 0)
(0.299748 -0.00452251 0)
(0.29965 -0.00590375 0)
(0.299532 -0.00670793 0)
(0.299376 -0.00849126 0)
(0.299222 -0.00958903 0)
(0.298999 -0.0118402 0)
(0.298828 -0.0133381 0)
(0.29856 -0.0160161 0)
(0.29843 -0.0179406 0)
(0.29822 -0.0207518 0)
(0.298262 -0.022845 0)
(0.298347 -0.0250771 0)
(0.298754 -0.0264836 0)
(0.299386 -0.0270597 0)
(0.299992 -0.000236449 0)
(0.299988 -0.000984146 0)
(0.299942 -0.0014392 0)
(0.299907 -0.00231026 0)
(0.299822 -0.00279662 0)
(0.299744 -0.00388535 0)
(0.299616 -0.00446356 0)
(0.299482 -0.00587114 0)
(0.299305 -0.00661706 0)
(0.299096 -0.00844954 0)
(0.298876 -0.00945997 0)
(0.298583 -0.0117967 0)
(0.298355 -0.0131777 0)
(0.298012 -0.0159928 0)
(0.297877 -0.0177941 0)
(0.297635 -0.020797 0)
(0.297801 -0.0228263 0)
(0.298004 -0.0252655 0)
(0.298729 -0.0267313 0)
(0.299737 -0.0274427 0)
(0.299989 -0.000230296 0)
(0.299984 -0.000977829 0)
(0.29992 -0.00141349 0)
(0.299873 -0.00229162 0)
(0.299753 -0.00274756 0)
(0.299652 -0.00385465 0)
(0.299473 -0.00438293 0)
(0.299299 -0.00582875 0)
(0.299056 -0.00649452 0)
(0.298788 -0.00839925 0)
(0.298491 -0.00928765 0)
(0.298117 -0.011752 0)
(0.297819 -0.0129653 0)
(0.297383 -0.015989 0)
(0.297232 -0.0176033 0)
(0.29693 -0.020905 0)
(0.29722 -0.0228147 0)
(0.297512 -0.0255808 0)
(0.298585 -0.0271 0)
(0.299988 -0.0279956 0)
(0.299987 -0.000222581 0)
(0.299981 -0.00096886 0)
(0.299897 -0.00138036 0)
(0.29984 -0.00226628 0)
(0.299685 -0.00268441 0)
(0.299559 -0.00381364 0)
(0.299328 -0.00427954 0)
(0.299115 -0.00577313 0)
(0.298801 -0.00633777 0)
(0.298474 -0.0083351 0)
(0.298091 -0.00906696 0)
(0.297633 -0.0116991 0)
(0.297252 -0.012691 0)
(0.296713 -0.0159975 0)
(0.296531 -0.0173496 0)
(0.296142 -0.0210741 0)
(0.296554 -0.0227838 0)
(0.296888 -0.0260349 0)
(0.298348 -0.0275771 0)
(0.300142 -0.0287451 0)
(0.299984 -0.000213678 0)
(0.299979 -0.00095675 0)
(0.299875 -0.00134049 0)
(0.299808 -0.00223342 0)
(0.299616 -0.00260802 0)
(0.29947 -0.00376079 0)
(0.299183 -0.00415427 0)
(0.298934 -0.00570178 0)
(0.298544 -0.00614737 0)
(0.29816 -0.00825335 0)
(0.297684 -0.00879704 0)
(0.297143 -0.0116332 0)
(0.296666 -0.0123496 0)
(0.296016 -0.0160145 0)
(0.295787 -0.0170188 0)
(0.295281 -0.021307 0)
(0.295811 -0.0227061 0)
(0.296128 -0.026648 0)
(0.298028 -0.0281424 0)
(0.300194 -0.0297256 0)
(0.29998 -0.000204027 0)
(0.299978 -0.000940907 0)
(0.299853 -0.00129479 0)
(0.299778 -0.00219221 0)
(0.299548 -0.00251979 0)
(0.299384 -0.00369478 0)
(0.299039 -0.00400906 0)
(0.298759 -0.00561261 0)
(0.298288 -0.00592553 0)
(0.297853 -0.0081509 0)
(0.297273 -0.00847928 0)
(0.296654 -0.0115501 0)
(0.296064 -0.0119386 0)
(0.295298 -0.0160358 0)
(0.294998 -0.0165978 0)
(0.294346 -0.0216063 0)
(0.294984 -0.0225508 0)
(0.295214 -0.0274448 0)
(0.297622 -0.0287664 0)
(0.300115 -0.0309796 0)
(0.299978 -0.000194142 0)
(0.299979 -0.00092065 0)
(0.299831 -0.00124434 0)
(0.299751 -0.00214166 0)
(0.29948 -0.00242147 0)
(0.299304 -0.00361405 0)
(0.298895 -0.00384642 0)
(0.298592 -0.00550319 0)
(0.298031 -0.00567537 0)
(0.297556 -0.00802392 0)
(0.296858 -0.00811631 0)
(0.29617 -0.011444 0)
(0.295445 -0.0114571 0)
(0.294564 -0.0160544 0)
(0.294161 -0.0160745 0)
(0.293336 -0.02197 0)
(0.29406 -0.0222843 0)
(0.29412 -0.0284517 0)
(0.297115 -0.029408 0)
(0.299857 -0.032566 0)
(0.299975 -0.000184598 0)
(0.29998 -0.00089521 0)
(0.299809 -0.00119041 0)
(0.299727 -0.00208062 0)
(0.299412 -0.00231515 0)
(0.299229 -0.00351671 0)
(0.298751 -0.00366948 0)
(0.298436 -0.00537039 0)
(0.297772 -0.00540099 0)
(0.297274 -0.0078674 0)
(0.296436 -0.00771232 0)
(0.295699 -0.0113073 0)
(0.294803 -0.0109061 0)
(0.29382 -0.016059 0)
(0.293266 -0.0154391 0)
(0.292249 -0.0223898 0)
(0.293018 -0.0218723 0)
(0.292819 -0.0296934 0)
(0.296488 -0.0300164 0)
(0.299352 -0.0345661 0)
(0.299973 -0.000175996 0)
(0.299983 -0.000863757 0)
(0.299788 -0.0011344 0)
(0.299705 -0.00200777 0)
(0.299345 -0.00220322 0)
(0.299162 -0.00340045 0)
(0.298607 -0.00348206 0)
(0.298293 -0.00521028 0)
(0.297509 -0.00510785 0)
(0.297013 -0.00767471 0)
(0.296 -0.00727375 0)
(0.295251 -0.011129 0)
(0.294128 -0.0102899 0)
(0.293082 -0.016034 0)
(0.292296 -0.0146852 0)
(0.291095 -0.0228496 0)
(0.291834 -0.0212808 0)
(0.291285 -0.0311888 0)
(0.295711 -0.0305304 0)
(0.298511 -0.0370911 0)
(0.299972 -0.0001689 0)
(0.299985 -0.000825483 0)
(0.299769 -0.00107778 0)
(0.299685 -0.00192172 0)
(0.299279 -0.0020884 0)
(0.2991 -0.00326261 0)
(0.298462 -0.00328877 0)
(0.298164 -0.0050179 0)
(0.297241 -0.00480313 0)
(0.296778 -0.00743712 0)
(0.295546 -0.0068102 0)
(0.294843 -0.0108947 0)
(0.293405 -0.00961778 0)
(0.292377 -0.0159573 0)
(0.29122 -0.0138121 0)
(0.289902 -0.023324 0)
(0.290463 -0.0204766 0)
(0.289503 -0.0329474 0)
(0.294749 -0.0308762 0)
(0.297215 -0.0402918 0)
(0.299975 -0.000163736 0)
(0.299984 -0.000779749 0)
(0.299755 -0.00102191 0)
(0.299662 -0.0018212 0)
(0.29922 -0.00197342 0)
(0.299041 -0.00310039 0)
(0.298324 -0.00309482 0)
(0.298046 -0.00478744 0)
(0.296972 -0.0044959 0)
(0.29657 -0.00714321 0)
(0.295071 -0.00633558 0)
(0.294486 -0.010584 0)
(0.292613 -0.00890629 0)
(0.291744 -0.0157971 0)
(0.289987 -0.0128285 0)
(0.288739 -0.0237765 0)
(0.288818 -0.019429 0)
(0.287502 -0.0349697 0)
(0.293545 -0.0309587 0)
(0.295307 -0.0443634 0)
(0.299984 -0.000160658 0)
(0.299977 -0.000726303 0)
(0.299749 -0.000967759 0)
(0.299631 -0.00170545 0)
(0.299173 -0.00186061 0)
(0.298975 -0.00291149 0)
(0.298201 -0.00290536 0)
(0.297928 -0.00451283 0)
(0.296717 -0.00419672 0)
(0.296379 -0.00677913 0)
(0.294588 -0.00586897 0)
(0.294181 -0.0101686 0)
(0.291748 -0.00818333 0)
(0.291216 -0.0155049 0)
(0.288531 -0.0117605 0)
(0.287713 -0.0241501 0)
(0.286732 -0.01812 0)
(0.285419 -0.0372533 0)
(0.291958 -0.030646 0)
(0.292574 -0.04954 0)
(0.300001 -0.000159409 0)
(0.299957 -0.000665499 0)
(0.299757 -0.000915578 0)
(0.299586 -0.00157471 0)
(0.299149 -0.00175117 0)
(0.29889 -0.00269509 0)
(0.298112 -0.00272401 0)
(0.297789 -0.00418982 0)
(0.296503 -0.00391522 0)
(0.296174 -0.00633094 0)
(0.294139 -0.00543321 0)
(0.29389 -0.00961262 0)
(0.290849 -0.00749175 0)
(0.29078 -0.0150057 0)
(0.286824 -0.0106638 0)
(0.286923 -0.0243395 0)
(0.283948 -0.0165694 0)
(0.283575 -0.0397944 0)
(0.289586 -0.0297428 0)
(0.288851 -0.0561655 0)
(0.300028 -0.000159239 0)
(0.299922 -0.000598477 0)
(0.299784 -0.000864676 0)
(0.299517 -0.00143061 0)
(0.299158 -0.00164455 0)
(0.298771 -0.00245297 0)
(0.298077 -0.00255132 0)
(0.297602 -0.00381854 0)
(0.296373 -0.00365606 0)
(0.295903 -0.00579103 0)
(0.293799 -0.00504677 0)
(0.293528 -0.00888163 0)
(0.290036 -0.00688609 0)
(0.290322 -0.0141949 0)
(0.284972 -0.00963968 0)
(0.286318 -0.0241391 0)
(0.280248 -0.014882 0)
(0.282401 -0.0425272 0)
(0.285469 -0.0279877 0)
(0.284483 -0.0649685 0)
(0.300067 -0.000158906 0)
(0.299869 -0.000527217 0)
(0.299833 -0.000813313 0)
(0.29942 -0.00127639 0)
(0.299208 -0.0015381 0)
(0.298606 -0.00219011 0)
(0.298116 -0.00238355 0)
(0.297339 -0.00340576 0)
(0.29637 -0.00341526 0)
(0.295507 -0.00516517 0)
(0.293667 -0.00471151 0)
(0.292969 -0.0079642 0)
(0.289519 -0.00640285 0)
(0.289596 -0.0129773 0)
(0.283334 -0.00883103 0)
(0.285513 -0.0232058 0)
(0.275814 -0.013301 0)
(0.281941 -0.0450719 0)
(0.277994 -0.0252226 0)
(0.281224 -0.0772659 0)
(0.300116 -0.000156793 0)
(0.299798 -0.000454344 0)
(0.299904 -0.00075896 0)
(0.299295 -0.00111658 0)
(0.299301 -0.00142734 0)
(0.298394 -0.00191441 0)
(0.298236 -0.00221281 0)
(0.296989 -0.00296504 0)
(0.29652 -0.00317913 0)
(0.294948 -0.00447556 0)
(0.293823 -0.00440562 0)
(0.292099 -0.00688962 0)
(0.289526 -0.00602181 0)
(0.288289 -0.0113411 0)
(0.282518 -0.00832098 0)
(0.283735 -0.0211894 0)
(0.271735 -0.0122283 0)
(0.280902 -0.0463274 0)
(0.266 -0.0218784 0)
(0.282388 -0.0947572 0)
(0.300172 -0.000151234 0)
(0.299714 -0.000382335 0)
(0.29999 -0.000699255 0)
(0.299149 -0.00095577 0)
(0.299427 -0.00130769 0)
(0.298144 -0.00163452 0)
(0.298425 -0.00203003 0)
(0.296567 -0.00251293 0)
(0.29681 -0.00292904 0)
(0.294241 -0.00375499 0)
(0.294266 -0.00409003 0)
(0.290904 -0.00572354 0)
(0.290153 -0.00566207 0)
(0.286232 -0.00939966 0)
(0.283055 -0.00799288 0)
(0.280184 -0.0180361 0)
(0.269993 -0.0120119 0)
(0.276139 -0.0443724 0)
(0.251993 -0.0200122 0)
(0.289107 -0.119494 0)
(0.300229 -0.00014137 0)
(0.299625 -0.000312482 0)
(0.300081 -0.000633306 0)
(0.298998 -0.000796716 0)
(0.299569 -0.0011771 0)
(0.297883 -0.00135607 0)
(0.29865 -0.0018301 0)
(0.296119 -0.00206136 0)
(0.29718 -0.00265249 0)
(0.293467 -0.00303049 0)
(0.294891 -0.00373254 0)
(0.289533 -0.00453306 0)
(0.291223 -0.00523391 0)
(0.283659 -0.00733411 0)
(0.284826 -0.00757693 0)
(0.274854 -0.01417 0)
(0.271952 -0.0121281 0)
(0.264435 -0.0383527 0)
(0.24448 -0.0220596 0)
(0.291731 -0.151898 0)
(0.300281 -0.000126508 0)
(0.299543 -0.000247358 0)
(0.300165 -0.00055787 0)
(0.29886 -0.000644164 0)
(0.299704 -0.00103042 0)
(0.297643 -0.00108764 0)
(0.298868 -0.00160411 0)
(0.295706 -0.0016251 0)
(0.297546 -0.00233393 0)
(0.292749 -0.00232816 0)
(0.295521 -0.00330417 0)
(0.288252 -0.00337178 0)
(0.292326 -0.00466633 0)
(0.281216 -0.00530027 0)
(0.286806 -0.00679846 0)
(0.26942 -0.0102297 0)
(0.275543 -0.0111888 0)
(0.247897 -0.0298557 0)
(0.247641 -0.0258354 0)
(0.262167 -0.180439 0)
(0.299295 -0.0264129 0)
(0.299383 -0.0262656 0)
(0.299467 -0.0260908 0)
(0.29955 -0.02589 0)
(0.299636 -0.0256637 0)
(0.299724 -0.0254119 0)
(0.299815 -0.0251349 0)
(0.299907 -0.0248336 0)
(0.299999 -0.0245086 0)
(0.300088 -0.0241628 0)
(0.299883 -0.0266798 0)
(0.300015 -0.0265501 0)
(0.300146 -0.0263914 0)
(0.300277 -0.0262037 0)
(0.30041 -0.0259874 0)
(0.300544 -0.0257432 0)
(0.300678 -0.0254718 0)
(0.30081 -0.0251741 0)
(0.300941 -0.0248503 0)
(0.301071 -0.0245047 0)
(0.300504 -0.0270849 0)
(0.300709 -0.0269567 0)
(0.30091 -0.0267967 0)
(0.30111 -0.0266062 0)
(0.301308 -0.0263856 0)
(0.301505 -0.0261357 0)
(0.3017 -0.0258572 0)
(0.301891 -0.025551 0)
(0.302078 -0.0252176 0)
(0.302259 -0.0248613 0)
(0.301062 -0.0276666 0)
(0.301349 -0.0275431 0)
(0.30163 -0.0273847 0)
(0.301906 -0.0271928 0)
(0.30218 -0.026968 0)
(0.302451 -0.026711 0)
(0.302717 -0.0264225 0)
(0.302978 -0.0261038 0)
(0.303231 -0.0257553 0)
(0.303474 -0.0253823 0)
(0.301562 -0.028457 0)
(0.301942 -0.0283391 0)
(0.302313 -0.0281809 0)
(0.302677 -0.0279842 0)
(0.303037 -0.0277502 0)
(0.303392 -0.0274796 0)
(0.303739 -0.0271737 0)
(0.304077 -0.026834 0)
(0.304405 -0.026461 0)
(0.304718 -0.0260613 0)
(0.302017 -0.0294878 0)
(0.302507 -0.0293746 0)
(0.302984 -0.0292133 0)
(0.303449 -0.0290069 0)
(0.303907 -0.0287574 0)
(0.304358 -0.028466 0)
(0.304797 -0.028134 0)
(0.305223 -0.0277637 0)
(0.305633 -0.0273558 0)
(0.306024 -0.0269188 0)
(0.302435 -0.030802 0)
(0.30306 -0.0306911 0)
(0.303663 -0.0305213 0)
(0.304247 -0.0302981 0)
(0.30482 -0.0300245 0)
(0.30538 -0.0297021 0)
(0.305925 -0.0293327 0)
(0.306451 -0.0289192 0)
(0.306955 -0.0284627 0)
(0.307433 -0.0279744 0)
(0.302822 -0.0324572 0)
(0.303618 -0.0323439 0)
(0.304375 -0.0321566 0)
(0.3051 -0.0319056 0)
(0.305806 -0.0315954 0)
(0.306496 -0.0312279 0)
(0.307164 -0.0308054 0)
(0.307804 -0.0303318 0)
(0.308415 -0.0298086 0)
(0.30899 -0.0292513 0)
(0.303186 -0.0345293 0)
(0.304206 -0.0344044 0)
(0.305154 -0.0341853 0)
(0.306046 -0.03389 0)
(0.306909 -0.0335251 0)
(0.307751 -0.0330926 0)
(0.308562 -0.0325954 0)
(0.309335 -0.032039 0)
(0.310068 -0.0314253 0)
(0.310752 -0.0307756 0)
(0.303547 -0.0371158 0)
(0.304866 -0.036963 0)
(0.306049 -0.0366899 0)
(0.307138 -0.0363261 0)
(0.308188 -0.0358805 0)
(0.309207 -0.0353551 0)
(0.310186 -0.0347535 0)
(0.311113 -0.0340836 0)
(0.311983 -0.0333474 0)
(0.312791 -0.0325752 0)
(0.303936 -0.0403398 0)
(0.305653 -0.0401322 0)
(0.307127 -0.0397717 0)
(0.30845 -0.0393042 0)
(0.309718 -0.0387412 0)
(0.31095 -0.0380842 0)
(0.312126 -0.037338 0)
(0.31323 -0.0365134 0)
(0.314258 -0.0356131 0)
(0.315202 -0.0346795 0)
(0.3044 -0.0443555 0)
(0.306649 -0.0440516 0)
(0.308485 -0.0435562 0)
(0.310086 -0.0429362 0)
(0.311617 -0.0422056 0)
(0.313105 -0.0413651 0)
(0.314519 -0.0404207 0)
(0.315835 -0.039388 0)
(0.317048 -0.0382697 0)
(0.318151 -0.0371258 0)
(0.305044 -0.0493582 0)
(0.308014 -0.0489034 0)
(0.31031 -0.048212 0)
(0.31226 -0.0473764 0)
(0.314125 -0.0464123 0)
(0.315941 -0.0453195 0)
(0.317656 -0.0441068 0)
(0.319236 -0.042796 0)
(0.320676 -0.0413895 0)
(0.321967 -0.0399729 0)
(0.306204 -0.0556564 0)
(0.310169 -0.0549829 0)
(0.313086 -0.0540183 0)
(0.315508 -0.0528832 0)
(0.317824 -0.0515945 0)
(0.320071 -0.0501518 0)
(0.32217 -0.0485684 0)
(0.32407 -0.0468761 0)
(0.325766 -0.0450762 0)
(0.327253 -0.0432929 0)
(0.30885 -0.0638362 0)
(0.314179 -0.0628237 0)
(0.317924 -0.0614472 0)
(0.320956 -0.0598619 0)
(0.323823 -0.0580852 0)
(0.326554 -0.0561166 0)
(0.32903 -0.0539771 0)
(0.331183 -0.0517141 0)
(0.333008 -0.0493319 0)
(0.334525 -0.0470045 0)
(0.31483 -0.0747417 0)
(0.321781 -0.0730938 0)
(0.32634 -0.0709539 0)
(0.329823 -0.0685423 0)
(0.332982 -0.0658897 0)
(0.335842 -0.0630027 0)
(0.338235 -0.0599184 0)
(0.340087 -0.0567066 0)
(0.341405 -0.0533893 0)
(0.34227 -0.0501737 0)
(0.325097 -0.0887436 0)
(0.333175 -0.0857767 0)
(0.337595 -0.0821203 0)
(0.340288 -0.078084 0)
(0.342349 -0.0737428 0)
(0.343848 -0.0691529 0)
(0.344604 -0.0644026 0)
(0.344558 -0.05959 0)
(0.343783 -0.0547829 0)
(0.342408 -0.0501226 0)
(0.333265 -0.102878 0)
(0.339849 -0.0969821 0)
(0.341038 -0.090587 0)
(0.33971 -0.0838422 0)
(0.337445 -0.076805 0)
(0.334432 -0.0696459 0)
(0.33057 -0.0625534 0)
(0.325903 -0.055652 0)
(0.32067 -0.0490335 0)
(0.314824 -0.0426469 0)
(0.316223 -0.104713 0)
(0.313357 -0.0921925 0)
(0.303863 -0.0811543 0)
(0.292813 -0.0707512 0)
(0.281765 -0.0606686 0)
(0.270649 -0.0510804 0)
(0.259465 -0.0421561 0)
(0.248484 -0.0339375 0)
(0.238032 -0.0263649 0)
(0.227792 -0.019346 0)
(0.222524 -0.0894034 0)
(0.190655 -0.0676212 0)
(0.158078 -0.0499064 0)
(0.134069 -0.035475 0)
(0.116239 -0.0239222 0)
(0.102132 -0.0150363 0)
(0.0910384 -0.00839504 0)
(0.082669 -0.0034491 0)
(0.0764203 0.000285801 0)
(0.0718113 0.00298765 0)
(0.300401 -0.0228966 0)
(0.300941 -0.0201375 0)
(0.301411 -0.0170463 0)
(0.301787 -0.013883 0)
(0.302051 -0.0108578 0)
(0.302247 -0.00809177 0)
(0.302353 -0.00561648 0)
(0.302424 -0.00351413 0)
(0.302439 -0.0016706 0)
(0.302417 -0.000249962 0)
(0.302382 0.000998691 0)
(0.302278 0.00178246 0)
(0.302223 0.00246827 0)
(0.30207 0.0027073 0)
(0.30203 0.00290608 0)
(0.301895 0.00281651 0)
(0.301902 0.00272427 0)
(0.301855 0.00262212 0)
(0.301897 0.0024927 0)
(0.301947 0.00257801 0)
(0.301504 -0.0232103 0)
(0.302106 -0.0203862 0)
(0.302533 -0.0172357 0)
(0.30279 -0.0140168 0)
(0.302894 -0.010946 0)
(0.302922 -0.00814248 0)
(0.302868 -0.00563948 0)
(0.302797 -0.00351774 0)
(0.302689 -0.0016565 0)
(0.302565 -0.000225731 0)
(0.302446 0.00103815 0)
(0.302268 0.00182748 0)
(0.302161 0.0025201 0)
(0.301961 0.00275662 0)
(0.301907 0.00294556 0)
(0.301758 0.00284678 0)
(0.301787 0.00272982 0)
(0.301759 0.00262152 0)
(0.301832 0.00246817 0)
(0.301915 0.00256211 0)
(0.302856 -0.023538 0)
(0.30362 -0.0206258 0)
(0.304077 -0.0173807 0)
(0.304252 -0.0140797 0)
(0.304203 -0.0109503 0)
(0.304045 -0.00810604 0)
(0.303794 -0.0055804 0)
(0.303539 -0.00344651 0)
(0.303256 -0.00157644 0)
(0.302975 -0.000143096 0)
(0.302718 0.00112844 0)
(0.302409 0.00191416 0)
(0.302205 0.00260572 0)
(0.301905 0.00282884 0)
(0.30181 0.00299635 0)
(0.301614 0.00287839 0)
(0.301663 0.00272344 0)
(0.301646 0.00260728 0)
(0.301765 0.00242323 0)
(0.301896 0.00253764 0)
(0.304272 -0.023984 0)
(0.30524 -0.0209074 0)
(0.30576 -0.0175087 0)
(0.30588 -0.0140858 0)
(0.305699 -0.0108754 0)
(0.305372 -0.0079801 0)
(0.304933 -0.00543188 0)
(0.304496 -0.00328996 0)
(0.304036 -0.00141832 0)
(0.303589 1.0519e-05 0)
(0.303178 0.00128302 0)
(0.302714 0.00205647 0)
(0.30239 0.00273846 0)
(0.301956 0.00293602 0)
(0.301801 0.003068 0)
(0.301528 0.00291855 0)
(0.301591 0.0027091 0)
(0.301572 0.00258202 0)
(0.301743 0.00235772 0)
(0.301926 0.00250298 0)
(0.305739 -0.0245527 0)
(0.306928 -0.0212447 0)
(0.307513 -0.0176379 0)
(0.307576 -0.0140543 0)
(0.307264 -0.0107394 0)
(0.306773 -0.00778064 0)
(0.306155 -0.00520719 0)
(0.305547 -0.00305804 0)
(0.30492 -0.00118805 0)
(0.304315 0.000233111 0)
(0.303755 0.00150506 0)
(0.303129 0.00226139 0)
(0.302681 0.00292916 0)
(0.302095 0.00308959 0)
(0.301873 0.00317205 0)
(0.301502 0.00297658 0)
(0.301581 0.00269184 0)
(0.301551 0.00254864 0)
(0.301781 0.00226878 0)
(0.302016 0.00245713 0)
(0.307292 -0.0252552 0)
(0.308707 -0.0216392 0)
(0.309342 -0.0177658 0)
(0.309328 -0.0139824 0)
(0.308869 -0.0105406 0)
(0.308202 -0.00750847 0)
(0.307403 -0.00490973 0)
(0.306627 -0.00275561 0)
(0.305844 -0.000890768 0)
(0.305089 0.000520985 0)
(0.304389 0.00179282 0)
(0.303602 0.00252927 0)
(0.303032 0.00318097 0)
(0.30228 0.00329298 0)
(0.301993 0.00331292 0)
(0.301507 0.00305511 0)
(0.301608 0.00267206 0)
(0.30156 0.00250673 0)
(0.30186 0.0021531 0)
(0.30215 0.00240011 0)
(0.308976 -0.0260993 0)
(0.310615 -0.0220858 0)
(0.311273 -0.0178822 0)
(0.311148 -0.0138591 0)
(0.310513 -0.0102698 0)
(0.30965 -0.00715784 0)
(0.308661 -0.00453761 0)
(0.307715 -0.00238372 0)
(0.306781 -0.000529397 0)
(0.305881 0.000871615 0)
(0.305048 0.00214458 0)
(0.304095 0.00285992 0)
(0.303402 0.00349583 0)
(0.302469 0.00354801 0)
(0.302116 0.00349358 0)
(0.301497 0.00315484 0)
(0.301629 0.00264895 0)
(0.301552 0.00245506 0)
(0.301937 0.00200722 0)
(0.302279 0.00233256 0)
(0.310838 -0.0270913 0)
(0.312692 -0.0225761 0)
(0.313332 -0.0179738 0)
(0.313055 -0.0136702 0)
(0.312212 -0.00991473 0)
(0.311124 -0.0067209 0)
(0.309931 -0.00408718 0)
(0.308807 -0.00194203 0)
(0.307726 -0.000105302 0)
(0.306677 0.00128411 0)
(0.305713 0.0025606 0)
(0.304581 0.00325601 0)
(0.303758 0.00387857 0)
(0.302617 0.00385927 0)
(0.302189 0.00371989 0)
(0.301407 0.00327817 0)
(0.301573 0.00262387 0)
(0.301448 0.00239374 0)
(0.301927 0.00182908 0)
(0.302304 0.00225742 0)
(0.312938 -0.0282351 0)
(0.314982 -0.0230979 0)
(0.315556 -0.0180233 0)
(0.315077 -0.0133983 0)
(0.313983 -0.00946093 0)
(0.312638 -0.00618819 0)
(0.311222 -0.0035534 0)
(0.309905 -0.00142848 0)
(0.308674 0.000381331 0)
(0.307464 0.00176034 0)
(0.306359 0.00304497 0)
(0.305021 0.0037253 0)
(0.304041 0.00433947 0)
(0.30265 0.00423702 0)
(0.30212 0.00400383 0)
(0.30113 0.00343218 0)
(0.301318 0.00260394 0)
(0.301106 0.00232691 0)
(0.301682 0.00162156 0)
(0.302055 0.00218258 0)
(0.315349 -0.0295292 0)
(0.317546 -0.0236354 0)
(0.317993 -0.0180107 0)
(0.317256 -0.013023 0)
(0.315858 -0.00889082 0)
(0.314206 -0.00554707 0)
(0.312532 -0.00292741 0)
(0.310988 -0.000836537 0)
(0.309585 0.000936562 0)
(0.30818 0.00230891 0)
(0.306903 0.00360902 0)
(0.305307 0.00428403 0)
(0.304124 0.00489728 0)
(0.302417 0.00470061 0)
(0.301734 0.0043668 0)
(0.300467 0.00363208 0)
(0.300639 0.00260624 0)
(0.300278 0.00226609 0)
(0.300931 0.00139637 0)
(0.301235 0.00212273 0)
(0.318174 -0.0309672 0)
(0.320477 -0.0241715 0)
(0.320727 -0.017912 0)
(0.319652 -0.0125175 0)
(0.317857 -0.00817842 0)
(0.315808 -0.00477501 0)
(0.313794 -0.00218885 0)
(0.311948 -0.000147837 0)
(0.310308 0.00157948 0)
(0.308634 0.00295102 0)
(0.307122 0.00427624 0)
(0.305184 0.00496093 0)
(0.303723 0.00558231 0)
(0.301608 0.00528192 0)
(0.300691 0.00484247 0)
(0.299057 0.0039049 0)
(0.299136 0.00266161 0)
(0.298545 0.00223292 0)
(0.299223 0.00117675 0)
(0.299378 0.00209897 0)
(0.321601 -0.032542 0)
(0.32394 -0.0246875 0)
(0.323868 -0.0176896 0)
(0.322287 -0.0118348 0)
(0.319904 -0.00727255 0)
(0.317268 -0.00382246 0)
(0.314739 -0.00128892 0)
(0.312433 0.000678587 0)
(0.31042 0.00235 0)
(0.308353 0.00372647 0)
(0.306501 0.00508608 0)
(0.304114 0.00579859 0)
(0.302279 0.00643623 0)
(0.299654 0.00602526 0)
(0.298396 0.00547619 0)
(0.296297 0.00429074 0)
(0.296169 0.00281537 0)
(0.295263 0.00225931 0)
(0.295875 0.000996027 0)
(0.295822 0.00213394 0)
(0.325982 -0.0342475 0)
(0.328139 -0.0251464 0)
(0.327415 -0.0172583 0)
(0.324931 -0.0108683 0)
(0.321552 -0.00606204 0)
(0.317963 -0.00258155 0)
(0.314597 -0.000131084 0)
(0.311571 0.00172566 0)
(0.308979 0.00331952 0)
(0.306361 0.00469535 0)
(0.304053 0.00608986 0)
(0.301122 0.00684538 0)
(0.298839 0.00750231 0)
(0.29563 0.00697783 0)
(0.29394 0.00631539 0)
(0.291297 0.00483647 0)
(0.290826 0.00312003 0)
(0.289554 0.0023812 0)
(0.289981 0.000888274 0)
(0.289745 0.00224062 0)
(0.331768 -0.0360319 0)
(0.332971 -0.0254175 0)
(0.330742 -0.0164027 0)
(0.326519 -0.00938388 0)
(0.321428 -0.00432674 0)
(0.316317 -0.000855181 0)
(0.31167 0.00143797 0)
(0.307616 0.00311532 0)
(0.304236 0.00457782 0)
(0.300968 0.00591747 0)
(0.29817 0.00732548 0)
(0.294717 0.00812743 0)
(0.292016 0.0087991 0)
(0.288254 0.00816584 0)
(0.286116 0.00738853 0)
(0.282921 0.00557903 0)
(0.28201 0.00361646 0)
(0.280406 0.00262224 0)
(0.280549 0.00086792 0)
(0.280308 0.00240477 0)
(0.338717 -0.0375869 0)
(0.336876 -0.0250633 0)
(0.331453 -0.014621 0)
(0.324159 -0.00695639 0)
(0.316442 -0.0017028 0)
(0.309216 0.00159793 0)
(0.302939 0.00358693 0)
(0.297723 0.00495246 0)
(0.293557 0.00617297 0)
(0.289796 0.00739271 0)
(0.286721 0.00876061 0)
(0.283031 0.00959599 0)
(0.280161 0.010276 0)
(0.276078 0.00955623 0)
(0.273635 0.00867386 0)
(0.270016 0.00651795 0)
(0.26869 0.00430404 0)
(0.266926 0.00296799 0)
(0.266775 0.000900551 0)
(0.266909 0.00256652 0)
(0.343523 -0.0377363 0)
(0.334652 -0.0229857 0)
(0.32378 -0.0110421 0)
(0.312123 -0.00298383 0)
(0.301291 0.00209746 0)
(0.291914 0.00492262 0)
(0.284279 0.00636765 0)
(0.278353 0.00720107 0)
(0.273949 0.00799747 0)
(0.270352 0.00896399 0)
(0.267635 0.0102139 0)
(0.264374 0.011066 0)
(0.261873 0.0117666 0)
(0.257967 0.0110176 0)
(0.255565 0.0100677 0)
(0.25184 0.0075816 0)
(0.250324 0.00510694 0)
(0.248743 0.0033383 0)
(0.248455 0.000878426 0)
(0.249506 0.00261345 0)
(0.335867 -0.0339407 0)
(0.315184 -0.0175322 0)
(0.297966 -0.00463519 0)
(0.282266 0.00270711 0)
(0.269573 0.00698268 0)
(0.259553 0.00889723 0)
(0.252068 0.00945904 0)
(0.246859 0.00948582 0)
(0.243532 0.00965257 0)
(0.241329 0.0102324 0)
(0.240018 0.0113082 0)
(0.238167 0.0121968 0)
(0.236783 0.0129812 0)
(0.23376 0.0123127 0)
(0.231916 0.0113733 0)
(0.228604 0.00860543 0)
(0.227344 0.00585612 0)
(0.226427 0.00357598 0)
(0.226337 0.000625023 0)
(0.228851 0.00239971 0)
(0.295942 -0.023492 0)
(0.26312 -0.00816657 0)
(0.244066 0.0039141 0)
(0.228506 0.00904467 0)
(0.218272 0.0119382 0)
(0.210944 0.0124852 0)
(0.206339 0.0119129 0)
(0.204022 0.0109795 0)
(0.203517 0.0104334 0)
(0.204111 0.0106071 0)
(0.205298 0.0115495 0)
(0.205804 0.0125787 0)
(0.206248 0.0135805 0)
(0.204837 0.0131486 0)
(0.204118 0.0123248 0)
(0.20188 0.00934094 0)
(0.201442 0.00630845 0)
(0.201702 0.00347485 0)
(0.202214 -4.6542e-05 0)
(0.206514 0.00179515 0)
(0.203249 -0.00297833 0)
(0.17257 0.00403096 0)
(0.16452 0.0117207 0)
(0.156324 0.0134137 0)
(0.153807 0.0148391 0)
(0.15246 0.0140146 0)
(0.153178 0.0124888 0)
(0.155448 0.01075 0)
(0.15897 0.00964428 0)
(0.163172 0.0095751 0)
(0.167434 0.0105505 0)
(0.170777 0.0119062 0)
(0.173449 0.0132971 0)
(0.174183 0.0132627 0)
(0.175066 0.0126464 0)
(0.174555 0.00950892 0)
(0.175424 0.00621151 0)
(0.177244 0.00284444 0)
(0.178626 -0.00124785 0)
(0.184636 0.000741315 0)
(0.0779695 0.00768435 0)
(0.0718355 0.00586406 0)
(0.0826716 0.012427 0)
(0.0842204 0.0127538 0)
(0.0908724 0.0139974 0)
(0.0960997 0.0124777 0)
(0.102642 0.0105554 0)
(0.109655 0.00839156 0)
(0.117177 0.00704379 0)
(0.124772 0.00699746 0)
(0.131897 0.00822257 0)
(0.137903 0.0100926 0)
(0.142787 0.0120149 0)
(0.145863 0.0124889 0)
(0.148601 0.0121421 0)
(0.150256 0.00892046 0)
(0.152623 0.0054181 0)
(0.156105 0.00160333 0)
(0.158322 -0.00295987 0)
(0.165544 -0.000748986 0)
(0.0323385 -0.00128833 0)
(0.0248008 0.00279294 0)
(0.0410665 0.00952618 0)
(0.0461632 0.010112 0)
(0.0573751 0.0113263 0)
(0.0660383 0.00978477 0)
(0.0757636 0.00781692 0)
(0.0852477 0.00561176 0)
(0.0947814 0.00428502 0)
(0.103994 0.00438438 0)
(0.112514 0.00587685 0)
(0.119883 0.00813758 0)
(0.126042 0.0104757 0)
(0.130615 0.0113077 0)
(0.134604 0.0111788 0)
(0.137796 0.00800629 0)
(0.141073 0.00437642 0)
(0.145549 0.00049799 0)
(0.148112 -0.0044079 0)
(0.155648 -0.00195275 0)
(0.0132779 -0.00479594 0)
(0.00396607 0.00184435 0)
(0.0216921 0.00764039 0)
(0.0283015 0.00840213 0)
(0.0416049 0.00946068 0)
(0.0519112 0.00800065 0)
(0.0631499 0.00602162 0)
(0.0737787 0.00385017 0)
(0.0842083 0.00257251 0)
(0.0941059 0.00277695 0)
(0.103221 0.00443183 0)
(0.111197 0.00690543 0)
(0.117972 0.00947511 0)
(0.123319 0.0104988 0)
(0.127974 0.0104905 0)
(0.132004 0.00737401 0)
(0.135752 0.00367426 0)
(0.140724 -0.000166955 0)
(0.143421 -0.00527143 0)
(0.150991 -0.00263674 0)
(0.000348074 -0.00475428 0)
(-0.0111601 0.00110726 0)
(0.007093 0.00554582 0)
(0.0147762 0.00646678 0)
(0.0296539 0.0073114 0)
(0.0412461 0.00598599 0)
(0.0536481 0.00402862 0)
(0.0651167 0.00194202 0)
(0.0761566 0.000750513 0)
(0.0864776 0.0010817 0)
(0.0959653 0.00290317 0)
(0.104357 0.00558049 0)
(0.111613 0.00836523 0)
(0.117627 0.00957017 0)
(0.122878 0.00967493 0)
(0.127675 0.00663556 0)
(0.131829 0.00288874 0)
(0.137204 -0.000876418 0)
(0.139971 -0.00614367 0)
(0.147422 -0.00331767 0)
(-0.00747726 -0.00267988 0)
(-0.020837 0.000461269 0)
(-0.00246903 0.00332285 0)
(0.00590508 0.00434857 0)
(0.0218477 0.0049488 0)
(0.0343415 0.00378688 0)
(0.0475284 0.00189006 0)
(0.059507 -6.73333e-05 0)
(0.0708534 -0.00113815 0)
(0.0813228 -0.000662548 0)
(0.0909474 0.00132355 0)
(0.0995512 0.00419129 0)
(0.107137 0.00716659 0)
(0.11369 0.00854021 0)
(0.119443 0.00874776 0)
(0.124911 0.00580281 0)
(0.129392 0.00203977 0)
(0.135058 -0.00161903 0)
(0.137832 -0.00700075 0)
(0.14501 -0.00398722 0)
(-0.0109407 0.000440793 0)
(-0.0252109 -0.000114145 0)
(-0.006826 0.00106039 0)
(0.00187754 0.00212131 0)
(0.0183858 0.00245134 0)
(0.0313812 0.00147324 0)
(0.0449584 -0.000329839 0)
(0.0571049 -0.00212039 0)
(0.0684477 -0.00304142 0)
(0.0787883 -0.00241008 0)
(0.0883097 -0.00026746 0)
(0.0969155 0.00277003 0)
(0.104664 0.00590544 0)
(0.11161 0.0074301 0)
(0.117751 0.0077276 0)
(0.123771 0.00489321 0)
(0.128489 0.00114449 0)
(0.134325 -0.00237814 0)
(0.137046 -0.00782436 0)
(0.143804 -0.0046315 0)
(-0.0103506 0.00381791 0)
(-0.0243331 -0.000670637 0)
(-0.00591461 -0.00121369 0)
(0.0027661 -0.000147858 0)
(0.0193465 -0.000100919 0)
(0.0324339 -0.000883269 0)
(0.0460006 -0.00256553 0)
(0.0579718 -0.00415904 0)
(0.0690056 -0.00490751 0)
(0.0789474 -0.00411548 0)
(0.08813 -0.00182988 0)
(0.0965275 0.00135008 0)
(0.104265 0.00461034 0)
(0.111443 0.00626382 0)
(0.117841 0.00663624 0)
(0.124277 0.00392652 0)
(0.129134 0.000221203 0)
(0.135011 -0.00313691 0)
(0.137627 -0.00859793 0)
(0.143827 -0.00523706 0)
(-0.00553272 0.00668339 0)
(-0.0181604 -0.00129794 0)
(0.000242058 -0.00348245 0)
(0.00853851 -0.00239111 0)
(0.0246882 -0.00262673 0)
(0.0374543 -0.00321107 0)
(0.0506117 -0.0047523 0)
(0.0620733 -0.00612726 0)
(0.0725071 -0.00668731 0)
(0.0817968 -0.0057356 0)
(0.0904176 -0.00332544 0)
(0.0984041 -3.50189e-05 0)
(0.105953 0.00331111 0)
(0.113195 0.00506775 0)
(0.119708 0.00549815 0)
(0.12641 0.00292405 0)
(0.131305 -0.000710118 0)
(0.137093 -0.00387957 0)
(0.139559 -0.00930624 0)
(0.145077 -0.0057914 0)
(0.00418995 0.0082818 0)
(-0.00655901 -0.00199779 0)
(0.0115292 -0.00568319 0)
(0.0190556 -0.00452918 0)
(0.0342535 -0.00504106 0)
(0.046286 -0.00543504 0)
(0.0586447 -0.00682593 0)
(0.0692796 -0.00797108 0)
(0.0788456 -0.00833474 0)
(0.0872549 -0.00723019 0)
(0.095112 -0.00471811 0)
(0.1025 -0.00135177 0)
(0.109688 0.00203852 0)
(0.116824 0.00387044 0)
(0.123303 0.0043402 0)
(0.130113 0.00190856 0)
(0.134945 -0.00162846 0)
(0.140517 -0.00459144 0)
(0.142797 -0.00993649 0)
(0.147525 -0.00628182 0)
(0.0199541 0.00753135 0)
(0.0106824 -0.00272882 0)
(0.0277254 -0.0076754 0)
(0.034065 -0.00645929 0)
(0.0477703 -0.0072577 0)
(0.0586649 -0.00748295 0)
(0.0698522 -0.00872512 0)
(0.0793692 -0.00964091 0)
(0.0878303 -0.00980855 0)
(0.0951636 -0.00856367 0)
(0.102084 -0.00597553 0)
(0.10871 -0.00256923 0)
(0.115375 0.000822929 0)
(0.122241 0.00270121 0)
(0.128536 0.00319057 0)
(0.135296 0.000903486 0)
(0.139963 -0.00251324 0)
(0.145199 -0.0052591 0)
(0.147267 -0.0104779 0)
(0.151121 -0.00669828 0)
(0.0431474 0.00149696 0)
(0.033864 -0.00350815 0)
(0.0485011 -0.00940824 0)
(0.053188 -0.00818308 0)
(0.0648521 -0.0092252 0)
(0.0742253 -0.00932168 0)
(0.083894 -0.0104062 0)
(0.092035 -0.0111018 0)
(0.0991913 -0.0110785 0)
(0.105292 -0.00971059 0)
(0.111138 -0.00707436 0)
(0.116869 -0.00366638 0)
(0.122871 -0.000312007 0)
(0.129314 0.00158107 0)
(0.135281 0.00207131 0)
(0.141836 -7.17809e-05 0)
(0.146241 -0.00335027 0)
(0.151032 -0.00587083 0)
(0.152869 -0.010918 0)
(0.155787 -0.0070512 0)
(0.112206 -0.00878381 0)