/*--------------------------------*- C++ -*----------------------------------*\
| =========                 |                                                 |
| \\      /  F ield         | OpenFOAM: The Open Source CFD Toolbox           |
|  \\    /   O peration     | Version:  v1806                                 |
|   \\  /    A nd           | Web:      www.OpenFOAM.com                      |
|    \\/     M anipulation  |                                                 |
\*---------------------------------------------------------------------------*/
FoamFile
{
    version     2.0;
    format      ascii;
    class       volVectorField;
    location    "310";
    object      U;
}
// * * * * * * * * * * * * * * * * * * * * * * * * * * * * * * * * * * * * * //

dimensions      [0 1 -1 0 0 0 0];


internalField   nonuniform List<vector> 
4400
(
(0.217687 0.217375 0)
(0.268077 0.186964 0)
(0.279036 0.15389 0)
(0.28033 0.12457 0)
(0.284233 0.102093 0)
(0.29038 0.0862406 0)
(0.295743 0.0748445 0)
(0.299296 0.0662427 0)
(0.301391 0.0596891 0)
(0.302572 0.0547794 0)
(0.303184 0.0511327 0)
(0.303421 0.0484001 0)
(0.303403 0.0463084 0)
(0.303208 0.04467 0)
(0.302885 0.0433671 0)
(0.302464 0.0423288 0)
(0.301962 0.0415132 0)
(0.301389 0.0408943 0)
(0.300749 0.0404488 0)
(0.300098 0.0401528 0)
(0.242018 0.0720701 0)
(0.252332 0.0568604 0)
(0.26179 0.048858 0)
(0.275079 0.048071 0)
(0.285438 0.0498952 0)
(0.291316 0.0511949 0)
(0.294508 0.0514651 0)
(0.29657 0.0509766 0)
(0.298097 0.0500008 0)
(0.299241 0.0487154 0)
(0.300061 0.0472668 0)
(0.30062 0.0457852 0)
(0.300969 0.044376 0)
(0.301144 0.0431084 0)
(0.301174 0.0420168 0)
(0.301081 0.0411104 0)
(0.300884 0.0403859 0)
(0.300597 0.0398348 0)
(0.300224 0.0394448 0)
(0.299796 0.0392048 0)
(0.216874 0.0596476 0)
(0.238554 0.070468 0)
(0.257977 0.0766629 0)
(0.26955 0.0767752 0)
(0.276131 0.0721496 0)
(0.281095 0.0661946 0)
(0.285584 0.0606426 0)
(0.289465 0.0558752 0)
(0.292546 0.0518789 0)
(0.294873 0.048609 0)
(0.296591 0.0460061 0)
(0.297838 0.0439717 0)
(0.298718 0.0423868 0)
(0.299314 0.0411426 0)
(0.29969 0.0401575 0)
(0.299896 0.0393776 0)
(0.299969 0.0387708 0)
(0.299933 0.0383177 0)
(0.299797 0.0380067 0)
(0.299572 0.0378298 0)
(0.257262 0.0332325 0)
(0.263462 0.035895 0)
(0.266908 0.0357128 0)
(0.271568 0.0353448 0)
(0.277094 0.0361529 0)
(0.282123 0.037512 0)
(0.286107 0.0387876 0)
(0.28918 0.0396878 0)
(0.291611 0.0401589 0)
(0.293566 0.0402403 0)
(0.29513 0.0400074 0)
(0.296364 0.0395537 0)
(0.297323 0.0389753 0)
(0.298055 0.038357 0)
(0.298601 0.0377629 0)
(0.298993 0.0372346 0)
(0.299259 0.0367961 0)
(0.299419 0.0364591 0)
(0.299476 0.0362299 0)
(0.299422 0.0361112 0)
(0.248252 0.0261463 0)
(0.2547 0.0332447 0)
(0.263121 0.0389796 0)
(0.270545 0.0430253 0)
(0.276179 0.0448533 0)
(0.280454 0.0448344 0)
(0.283973 0.0437976 0)
(0.28701 0.0423927 0)
(0.28961 0.0409356 0)
(0.29178 0.0395696 0)
(0.293556 0.0383655 0)
(0.294994 0.0373508 0)
(0.296145 0.03652 0)
(0.297055 0.0358496 0)
(0.297767 0.035312 0)
(0.298317 0.0348852 0)
(0.298737 0.0345546 0)
(0.299048 0.0343124 0)
(0.299257 0.0341576 0)
(0.299339 0.0340907 0)
(0.270603 0.0189079 0)
(0.273541 0.0219133 0)
(0.275436 0.0239916 0)
(0.277427 0.0253618 0)
(0.279987 0.0266076 0)
(0.282829 0.0279732 0)
(0.285541 0.0293209 0)
(0.287944 0.0304872 0)
(0.290021 0.0313995 0)
(0.291807 0.032044 0)
(0.293333 0.0324379 0)
(0.294621 0.0326191 0)
(0.295697 0.0326382 0)
(0.296589 0.0325493 0)
(0.297324 0.032402 0)
(0.297928 0.0322364 0)
(0.298423 0.0320816 0)
(0.298825 0.0319574 0)
(0.299135 0.0318801 0)
(0.299313 0.0318589 0)
(0.267411 0.0145145 0)
(0.269936 0.019009 0)
(0.273519 0.0228246 0)
(0.277315 0.0260473 0)
(0.280695 0.028459 0)
(0.28355 0.0299699 0)
(0.285995 0.0307299 0)
(0.288141 0.0309937 0)
(0.290036 0.0309743 0)
(0.291695 0.0308087 0)
(0.293132 0.0305818 0)
(0.294367 0.0303454 0)
(0.29542 0.0301274 0)
(0.296315 0.0299396 0)
(0.297071 0.0297841 0)
(0.297711 0.0296596 0)
(0.298253 0.0295646 0)
(0.298712 0.0294995 0)
(0.299086 0.0294695 0)
(0.299329 0.0294779 0)
(0.280065 0.0120173 0)
(0.281466 0.0143092 0)
(0.282568 0.0163354 0)
(0.283637 0.0180099 0)
(0.284929 0.0194466 0)
(0.28645 0.0207918 0)
(0.288059 0.0220684 0)
(0.289625 0.0232247 0)
(0.291081 0.0242173 0)
(0.292406 0.025029 0)
(0.293596 0.0256618 0)
(0.294651 0.0261302 0)
(0.295578 0.0264574 0)
(0.296385 0.0266721 0)
(0.297088 0.0268037 0)
(0.2977 0.0268794 0)
(0.298236 0.0269214 0)
(0.298705 0.0269474 0)
(0.299103 0.0269742 0)
(0.299379 0.0270113 0)
(0.279321 0.00914444 0)
(0.28053 0.0120986 0)
(0.282212 0.0147013 0)
(0.28413 0.0170159 0)
(0.286011 0.018984 0)
(0.287724 0.0205382 0)
(0.289263 0.0216857 0)
(0.290656 0.0224969 0)
(0.291923 0.0230595 0)
(0.293069 0.0234487 0)
(0.294101 0.0237203 0)
(0.295022 0.0239144 0)
(0.295843 0.0240581 0)
(0.296571 0.0241685 0)
(0.297217 0.0242559 0)
(0.29779 0.0243263 0)
(0.298303 0.0243835 0)
(0.298761 0.0244313 0)
(0.299159 0.0244769 0)
(0.299446 0.0245237 0)
(0.286892 0.00804327 0)
(0.287586 0.00977028 0)
(0.288212 0.0113995 0)
(0.288828 0.0128668 0)
(0.289535 0.0141755 0)
(0.290364 0.0153754 0)
(0.29128 0.0164911 0)
(0.292223 0.0175146 0)
(0.293148 0.0184273 0)
(0.294028 0.0192174 0)
(0.29485 0.0198824 0)
(0.295606 0.0204272 0)
(0.296295 0.0208619 0)
(0.296919 0.0212005 0)
(0.297482 0.0214588 0)
(0.297991 0.0216524 0)
(0.298454 0.0217952 0)
(0.298876 0.0218994 0)
(0.299249 0.0219784 0)
(0.299526 0.0220392 0)
(0.28717 0.00613149 0)
(0.287801 0.00813152 0)
(0.288647 0.00994764 0)
(0.289636 0.0116037 0)
(0.290657 0.0130855 0)
(0.291638 0.014362 0)
(0.292552 0.0154228 0)
(0.293401 0.0162835 0)
(0.294191 0.0169748 0)
(0.294924 0.0175299 0)
(0.295601 0.0179778 0)
(0.296224 0.0183417 0)
(0.296795 0.0186396 0)
(0.297317 0.0188844 0)
(0.297796 0.0190853 0)
(0.298235 0.0192485 0)
(0.29864 0.0193784 0)
(0.299015 0.0194791 0)
(0.299352 0.0195569 0)
(0.299607 0.0196147 0)
(0.291883 0.0054852 0)
(0.292231 0.00677376 0)
(0.292572 0.00801314 0)
(0.292918 0.0091711 0)
(0.293304 0.0102343 0)
(0.293753 0.0112159 0)
(0.294256 0.0121265 0)
(0.294791 0.0129663 0)
(0.295335 0.0137288 0)
(0.295871 0.0144077 0)
(0.296386 0.0150002 0)
(0.296873 0.015507 0)
(0.29733 0.0159323 0)
(0.297755 0.0162824 0)
(0.298149 0.016565 0)
(0.298514 0.0167883 0)
(0.298855 0.01696 0)
(0.299173 0.0170876 0)
(0.299464 0.0171797 0)
(0.299687 0.0172411 0)
(0.292505 0.00417951 0)
(0.292836 0.00554376 0)
(0.293267 0.00680943 0)
(0.293773 0.00798235 0)
(0.294312 0.00905865 0)
(0.294846 0.0100245 0)
(0.295356 0.0108717 0)
(0.295839 0.0116019 0)
(0.296295 0.0122248 0)
(0.296725 0.0127535 0)
(0.297129 0.0132013 0)
(0.297509 0.0135802 0)
(0.297864 0.0139 0)
(0.298196 0.0141687 0)
(0.298506 0.0143921 0)
(0.298798 0.0145748 0)
(0.299073 0.0147199 0)
(0.299332 0.0148304 0)
(0.299572 0.0149108 0)
(0.29976 0.0149632 0)
(0.29549 0.00369651 0)
(0.295654 0.00462313 0)
(0.295823 0.00552051 0)
(0.295998 0.0063732 0)
(0.296191 0.00716963 0)
(0.296415 0.00791167 0)
(0.296669 0.00860254 0)
(0.296946 0.0092425 0)
(0.297234 0.00982909 0)
(0.297526 0.0103592 0)
(0.297813 0.0108307 0)
(0.29809 0.0112433 0)
(0.298356 0.0115982 0)
(0.298607 0.0118979 0)
(0.298845 0.0121461 0)
(0.29907 0.0123465 0)
(0.299283 0.0125031 0)
(0.299486 0.0126199 0)
(0.299675 0.0127019 0)
(0.299825 0.0127519 0)
(0.296113 0.00276628 0)
(0.296275 0.0036701 0)
(0.296482 0.00452034 0)
(0.296727 0.00531684 0)
(0.296991 0.00605795 0)
(0.297256 0.00673717 0)
(0.297514 0.0073495 0)
(0.297759 0.00789377 0)
(0.297993 0.00837248 0)
(0.298214 0.00879046 0)
(0.298424 0.00915341 0)
(0.298623 0.00946688 0)
(0.298812 0.00973586 0)
(0.298991 0.00996454 0)
(0.299161 0.0101563 0)
(0.299322 0.0103136 0)
(0.299477 0.0104386 0)
(0.299625 0.0105329 0)
(0.299766 0.0105991 0)
(0.29988 0.0106383 0)
(0.29797 0.00234756 0)
(0.298033 0.00295965 0)
(0.298099 0.00355454 0)
(0.298167 0.00412468 0)
(0.298243 0.00466245 0)
(0.298332 0.005167 0)
(0.298436 0.00563879 0)
(0.298553 0.00607756 0)
(0.298678 0.00648212 0)
(0.298808 0.00685083 0)
(0.298939 0.00718235 0)
(0.299068 0.00747603 0)
(0.299193 0.00773202 0)
(0.299314 0.00795119 0)
(0.299429 0.00813493 0)
(0.299539 0.00828496 0)
(0.299645 0.00840308 0)
(0.299746 0.00849121 0)
(0.299843 0.00855154 0)
(0.299924 0.00858558 0)
(0.298419 0.00164362 0)
(0.298486 0.0021836 0)
(0.298572 0.00269554 0)
(0.298673 0.00317847 0)
(0.298782 0.00363149 0)
(0.298893 0.00405131 0)
(0.298999 0.00443514 0)
(0.299099 0.00478167 0)
(0.299192 0.00509125 0)
(0.29928 0.00536546 0)
(0.299363 0.00560658 0)
(0.299442 0.00581704 0)
(0.299517 0.00599915 0)
(0.299588 0.00615497 0)
(0.299657 0.00628618 0)
(0.299722 0.00639411 0)
(0.299786 0.00647981 0)
(0.299847 0.00654416 0)
(0.299906 0.00658798 0)
(0.299957 0.00661187 0)
(0.299479 0.00124519 0)
(0.299492 0.00157138 0)
(0.299503 0.00189002 0)
(0.29951 0.00219748 0)
(0.299519 0.00248941 0)
(0.299532 0.00276474 0)
(0.299551 0.00302323 0)
(0.299577 0.00326458 0)
(0.299607 0.00348815 0)
(0.299642 0.0036931 0)
(0.299678 0.00387863 0)
(0.299715 0.00404419 0)
(0.299752 0.0041896 0)
(0.299788 0.00431499 0)
(0.299824 0.0044208 0)
(0.299858 0.00450766 0)
(0.29989 0.0045763 0)
(0.299922 0.00462745 0)
(0.299953 0.00466169 0)
(0.29998 0.00467963 0)
(0.299657 0.000661506 0)
(0.299678 0.000894053 0)
(0.299702 0.00111377 0)
(0.299731 0.00132041 0)
(0.299761 0.00151435 0)
(0.299791 0.00169434 0)
(0.299817 0.00185914 0)
(0.29984 0.00200816 0)
(0.299859 0.00214141 0)
(0.299876 0.00225949 0)
(0.299891 0.00236334 0)
(0.299904 0.00245402 0)
(0.299917 0.00253255 0)
(0.299929 0.0025998 0)
(0.29994 0.00265651 0)
(0.299952 0.00270322 0)
(0.299963 0.00274035 0)
(0.299973 0.00276816 0)
(0.299984 0.0027867 0)
(0.299994 0.00279606 0)
(0.300077 0.000258251 0)
(0.30007 0.000317576 0)
(0.30006 0.000376717 0)
(0.300048 0.00043361 0)
(0.300035 0.000487595 0)
(0.300023 0.00053887 0)
(0.300012 0.000587599 0)
(0.300005 0.000633872 0)
(0.3 0.000677614 0)
(0.299997 0.000718581 0)
(0.299995 0.000756435 0)
(0.299995 0.000790838 0)
(0.299995 0.000821514 0)
(0.299996 0.000848286 0)
(0.299996 0.000871076 0)
(0.299997 0.000889895 0)
(0.299998 0.000904816 0)
(0.299999 0.000915928 0)
(0.299999 0.000923281 0)
(0.3 0.000926949 0)
(0.130468 -0.122572 0)
(0.115713 -0.105589 0)
(0.106692 -0.0891704 0)
(0.10061 -0.0735808 0)
(0.0962557 -0.0585691 0)
(0.0930697 -0.043972 0)
(0.0907739 -0.0296931 0)
(0.0892226 -0.0156482 0)
(0.0883371 -0.00175401 0)
(0.0880752 0.0120718 0)
(0.0884174 0.0259108 0)
(0.0893599 0.0398451 0)
(0.0909128 0.0539585 0)
(0.0931015 0.0683379 0)
(0.0959744 0.083073 0)
(0.0996207 0.0982571 0)
(0.104217 0.114003 0)
(0.11015 0.130503 0)
(0.118363 0.147954 0)
(0.131419 0.165553 0)
(0.187947 -0.0401958 0)
(0.183129 -0.0355654 0)
(0.178367 -0.0303283 0)
(0.173938 -0.0247333 0)
(0.170026 -0.0188994 0)
(0.16675 -0.012888 0)
(0.164179 -0.00674373 0)
(0.162355 -0.000504281 0)
(0.161304 0.00579676 0)
(0.161045 0.0121283 0)
(0.161598 0.0184603 0)
(0.162987 0.0247623 0)
(0.165239 0.0310035 0)
(0.168391 0.0371513 0)
(0.172485 0.0431694 0)
(0.177565 0.0490127 0)
(0.183676 0.0546372 0)
(0.190848 0.0600539 0)
(0.199085 0.0652887 0)
(0.208334 0.0695721 0)
(0.210145 -0.0217071 0)
(0.208329 -0.0185857 0)
(0.206881 -0.0152311 0)
(0.205753 -0.0116518 0)
(0.204898 -0.00786883 0)
(0.204277 -0.00390926 0)
(0.20386 0.000197003 0)
(0.203623 0.0044186 0)
(0.203549 0.00872352 0)
(0.203624 0.0130795 0)
(0.203835 0.0174538 0)
(0.204171 0.0218132 0)
(0.204624 0.0261234 0)
(0.205182 0.0303483 0)
(0.205841 0.0344495 0)
(0.206596 0.0383859 0)
(0.207453 0.0421135 0)
(0.208433 0.0455841 0)
(0.209586 0.0487476 0)
(0.211004 0.0515642 0)
(0.238549 -0.0112607 0)
(0.237981 -0.00929673 0)
(0.23743 -0.00727154 0)
(0.236927 -0.00519875 0)
(0.236501 -0.00309 0)
(0.236181 -0.000955137 0)
(0.235992 0.00119744 0)
(0.235953 0.00336029 0)
(0.236083 0.00552668 0)
(0.236395 0.00769036 0)
(0.236898 0.0098455 0)
(0.2376 0.0119866 0)
(0.238504 0.0141088 0)
(0.239611 0.0162074 0)
(0.240916 0.0182781 0)
(0.242412 0.0203167 0)
(0.244087 0.022321 0)
(0.245922 0.0242947 0)
(0.247897 0.0262359 0)
(0.249986 0.0280634 0)
(0.246764 -0.00568324 0)
(0.246246 -0.00425594 0)
(0.245815 -0.00279637 0)
(0.245466 -0.0013055 0)
(0.245193 0.000214293 0)
(0.244988 0.00175929 0)
(0.244845 0.00332461 0)
(0.244757 0.00490438 0)
(0.244718 0.00649194 0)
(0.244723 0.00807994 0)
(0.244768 0.00966054 0)
(0.244847 0.0112255 0)
(0.24496 0.0127664 0)
(0.245102 0.0142746 0)
(0.245276 0.0157416 0)
(0.245481 0.0171593 0)
(0.24572 0.018519 0)
(0.246 0.0198099 0)
(0.246329 0.0210239 0)
(0.246717 0.0221886 0)
(0.262692 -0.00490529 0)
(0.262677 -0.00384833 0)
(0.262677 -0.00277693 0)
(0.262696 -0.00169404 0)
(0.262739 -0.00060233 0)
(0.262812 0.000495802 0)
(0.262919 0.00159827 0)
(0.263065 0.00270326 0)
(0.263254 0.00380924 0)
(0.263489 0.00491489 0)
(0.263771 0.00601915 0)
(0.264103 0.0071211 0)
(0.264485 0.00822002 0)
(0.264916 0.0093153 0)
(0.265395 0.0104063 0)
(0.265919 0.0114923 0)
(0.266484 0.0125731 0)
(0.267084 0.0136515 0)
(0.267714 0.0147285 0)
(0.268366 0.0157717 0)
(0.266483 -0.00227757 0)
(0.266275 -0.00148604 0)
(0.266097 -0.000690699 0)
(0.265949 0.000107924 0)
(0.265829 0.000909075 0)
(0.265735 0.00171177 0)
(0.265666 0.0025148 0)
(0.265621 0.00331675 0)
(0.265596 0.00411603 0)
(0.265592 0.00491088 0)
(0.265607 0.00569941 0)
(0.265641 0.00647967 0)
(0.265692 0.00724962 0)
(0.265761 0.0080072 0)
(0.265848 0.00875047 0)
(0.265955 0.00947765 0)
(0.266082 0.0101866 0)
(0.266232 0.0108737 0)
(0.266409 0.0115362 0)
(0.266614 0.0121924 0)
(0.276342 -0.0027613 0)
(0.276388 -0.00210426 0)
(0.276442 -0.00144187 0)
(0.276504 -0.000775024 0)
(0.276577 -0.000104556 0)
(0.27666 0.000568759 0)
(0.276755 0.00124422 0)
(0.276863 0.0019212 0)
(0.276985 0.00259913 0)
(0.277121 0.00327754 0)
(0.277271 0.00395598 0)
(0.277436 0.00463408 0)
(0.277616 0.00531148 0)
(0.277811 0.00598786 0)
(0.278018 0.00666285 0)
(0.278238 0.00733599 0)
(0.278469 0.00800706 0)
(0.27871 0.00867731 0)
(0.278957 0.00934732 0)
(0.279209 0.0100013 0)
(0.278644 -0.00135614 0)
(0.278549 -0.000858798 0)
(0.278466 -0.000361852 0)
(0.278397 0.000134442 0)
(0.27834 0.000629783 0)
(0.278295 0.00112382 0)
(0.278262 0.00161616 0)
(0.278241 0.00210635 0)
(0.278231 0.00259391 0)
(0.278232 0.00307832 0)
(0.278244 0.00355903 0)
(0.278266 0.00403548 0)
(0.278299 0.0045071 0)
(0.278343 0.0049733 0)
(0.278398 0.00543356 0)
(0.278465 0.00588745 0)
(0.278544 0.00633434 0)
(0.278636 0.00677272 0)
(0.278742 0.00720161 0)
(0.278863 0.00763064 0)
(0.285033 -0.00179636 0)
(0.285069 -0.00135676 0)
(0.28511 -0.000914776 0)
(0.285155 -0.000470758 0)
(0.285205 -2.5045e-05 0)
(0.285259 0.000422042 0)
(0.285318 0.000870199 0)
(0.285382 0.00131914 0)
(0.285451 0.00176859 0)
(0.285526 0.00221829 0)
(0.285605 0.00266801 0)
(0.28569 0.00311751 0)
(0.285779 0.00356657 0)
(0.285874 0.00401496 0)
(0.285972 0.00446242 0)
(0.286075 0.00490864 0)
(0.286181 0.00535346 0)
(0.28629 0.00579744 0)
(0.286401 0.00624086 0)
(0.286513 0.00667585 0)
(0.286719 -0.000996671 0)
(0.286672 -0.000661714 0)
(0.286632 -0.000327501 0)
(0.286598 5.83888e-06 0)
(0.28657 0.000338168 0)
(0.286549 0.000669337 0)
(0.286534 0.000999186 0)
(0.286524 0.00132754 0)
(0.286521 0.00165424 0)
(0.286525 0.00197907 0)
(0.286534 0.00230187 0)
(0.286549 0.00262243 0)
(0.286571 0.00294056 0)
(0.286598 0.00325608 0)
(0.286633 0.00356883 0)
(0.286674 0.00387868 0)
(0.286721 0.00418542 0)
(0.286776 0.00448835 0)
(0.286839 0.00478706 0)
(0.286909 0.00508653 0)
(0.29094 -0.00125045 0)
(0.290962 -0.000948145 0)
(0.290987 -0.000644707 0)
(0.291014 -0.000340298 0)
(0.291043 -3.50788e-05 0)
(0.291074 0.00027079 0)
(0.291108 0.000577153 0)
(0.291143 0.000883858 0)
(0.291181 0.00119076 0)
(0.29122 0.0014977 0)
(0.291262 0.00180455 0)
(0.291305 0.00211115 0)
(0.29135 0.00241738 0)
(0.291397 0.00272307 0)
(0.291446 0.00302808 0)
(0.291496 0.00333221 0)
(0.291547 0.00363535 0)
(0.291599 0.00393777 0)
(0.291651 0.00423962 0)
(0.291704 0.00453686 0)
(0.292241 -0.000766407 0)
(0.292217 -0.00053606 0)
(0.292197 -0.000306246 0)
(0.29218 -7.70331e-05 0)
(0.292166 0.000151509 0)
(0.292155 0.000379307 0)
(0.292148 0.000606287 0)
(0.292143 0.000832374 0)
(0.292143 0.00105749 0)
(0.292145 0.00128156 0)
(0.292151 0.00150451 0)
(0.29216 0.00172625 0)
(0.292172 0.00194672 0)
(0.292188 0.00216584 0)
(0.292208 0.00238356 0)
(0.292231 0.00259983 0)
(0.292258 0.00281456 0)
(0.292289 0.00302741 0)
(0.292323 0.00323819 0)
(0.292362 0.0034495 0)
(0.295026 -0.000875868 0)
(0.295039 -0.000670034 0)
(0.295053 -0.000463638 0)
(0.295068 -0.000256767 0)
(0.295084 -4.95072e-05 0)
(0.295101 0.000158054 0)
(0.295118 0.000365831 0)
(0.295137 0.000573737 0)
(0.295156 0.000781688 0)
(0.295176 0.000989596 0)
(0.295197 0.00119738 0)
(0.295219 0.00140495 0)
(0.295241 0.00161221 0)
(0.295264 0.00181909 0)
(0.295287 0.00202549 0)
(0.295311 0.00223129 0)
(0.295335 0.00243642 0)
(0.295359 0.00264103 0)
(0.295383 0.00284519 0)
(0.295408 0.00304678 0)
(0.295987 -0.000560352 0)
(0.295975 -0.000406458 0)
(0.295964 -0.000252887 0)
(0.295955 -9.96767e-05 0)
(0.295947 5.31357e-05 0)
(0.295942 0.000205513 0)
(0.295937 0.000357417 0)
(0.295935 0.000508812 0)
(0.295934 0.000659661 0)
(0.295935 0.000809926 0)
(0.295937 0.000959573 0)
(0.295942 0.00110857 0)
(0.295948 0.00125687 0)
(0.295955 0.00140446 0)
(0.295965 0.0015513 0)
(0.295976 0.00169739 0)
(0.29599 0.00184267 0)
(0.296005 0.00198696 0)
(0.296022 0.00213018 0)
(0.296042 0.00227372 0)
(0.297765 -0.000578141 0)
(0.297773 -0.000446257 0)
(0.29778 -0.000314087 0)
(0.297788 -0.000181679 0)
(0.297797 -4.90796e-05 0)
(0.297805 8.36629e-05 0)
(0.297814 0.000216501 0)
(0.297823 0.000349385 0)
(0.297832 0.000482268 0)
(0.297841 0.0006151 0)
(0.297851 0.000747832 0)
(0.297861 0.000880414 0)
(0.29787 0.0010128 0)
(0.29788 0.00114493 0)
(0.29789 0.00127676 0)
(0.2979 0.00140821 0)
(0.29791 0.00153926 0)
(0.297919 0.00166997 0)
(0.297929 0.0018004 0)
(0.297939 0.0019294 0)
(0.298382 -0.000354069 0)
(0.298376 -0.00026205 0)
(0.29837 -0.000170215 0)
(0.298365 -7.85809e-05 0)
(0.298361 1.28327e-05 0)
(0.298357 0.000104008 0)
(0.298354 0.000194928 0)
(0.298352 0.000285575 0)
(0.298351 0.000375933 0)
(0.29835 0.000465985 0)
(0.29835 0.000555717 0)
(0.298351 0.000645112 0)
(0.298353 0.000734158 0)
(0.298356 0.00082284 0)
(0.298359 0.00091115 0)
(0.298364 0.000999082 0)
(0.298369 0.00108662 0)
(0.298375 0.00117366 0)
(0.298382 0.0012602 0)
(0.29839 0.00134694 0)
(0.299406 -0.0003173 0)
(0.29941 -0.000246907 0)
(0.299414 -0.000176366 0)
(0.299418 -0.0001057 0)
(0.299422 -3.49329e-05 0)
(0.299426 3.59125e-05 0)
(0.29943 0.000106812 0)
(0.299434 0.000177742 0)
(0.299437 0.000248679 0)
(0.299441 0.000319597 0)
(0.299445 0.000390472 0)
(0.299449 0.00046128 0)
(0.299452 0.000531995 0)
(0.299455 0.000602592 0)
(0.299459 0.000673044 0)
(0.299462 0.000743317 0)
(0.299464 0.000813392 0)
(0.299467 0.000883323 0)
(0.29947 0.00095316 0)
(0.299472 0.00102222 0)
(0.299661 -0.000143378 0)
(0.299658 -0.000106118 0)
(0.299655 -6.89665e-05 0)
(0.299652 -3.19292e-05 0)
(0.299649 4.98708e-06 0)
(0.299647 4.17765e-05 0)
(0.299645 7.84334e-05 0)
(0.299643 0.000114952 0)
(0.299642 0.000151328 0)
(0.29964 0.000187557 0)
(0.29964 0.000223633 0)
(0.299639 0.000259552 0)
(0.299639 0.000295312 0)
(0.299639 0.000330907 0)
(0.299639 0.000366337 0)
(0.29964 0.000401601 0)
(0.299642 0.00043669 0)
(0.299643 0.000471552 0)
(0.299645 0.000506171 0)
(0.299648 0.000540987 0)
(0.300067 -7.42693e-05 0)
(0.300069 -5.94003e-05 0)
(0.300071 -4.44656e-05 0)
(0.300073 -2.94724e-05 0)
(0.300075 -1.44278e-05 0)
(0.300076 6.60418e-07 0)
(0.300078 1.57845e-05 0)
(0.300079 3.09364e-05 0)
(0.30008 4.61077e-05 0)
(0.300081 6.12899e-05 0)
(0.300082 7.64741e-05 0)
(0.300083 9.16512e-05 0)
(0.300084 0.000106812 0)
(0.300084 0.000121948 0)
(0.300084 0.000137048 0)
(0.300084 0.000152101 0)
(0.300084 0.000167099 0)
(0.300084 0.000182062 0)
(0.300083 0.00019703 0)
(0.300082 0.000211776 0)
(0.252488 -0.0961372 0)
(0.252616 -0.0993271 0)
(0.253065 -0.102843 0)
(0.253814 -0.106737 0)
(0.254822 -0.111002 0)
(0.256012 -0.115605 0)
(0.257265 -0.120496 0)
(0.258416 -0.125604 0)
(0.259251 -0.130828 0)
(0.259514 -0.136042 0)
(0.258907 -0.141092 0)
(0.257103 -0.145794 0)
(0.253754 -0.149936 0)
(0.248502 -0.153279 0)
(0.240984 -0.155548 0)
(0.230849 -0.156444 0)
(0.217762 -0.155676 0)
(0.201418 -0.152933 0)
(0.181551 -0.147572 0)
(0.157907 -0.138013 0)
(0.242594 -0.0438232 0)
(0.239212 -0.0433132 0)
(0.235669 -0.0429083 0)
(0.232015 -0.0425626 0)
(0.228316 -0.0423147 0)
(0.224648 -0.0422017 0)
(0.221097 -0.0422492 0)
(0.217749 -0.0424749 0)
(0.214689 -0.0428879 0)
(0.211984 -0.0434841 0)
(0.209677 -0.0442435 0)
(0.207775 -0.0451269 0)
(0.206235 -0.046073 0)
(0.204963 -0.0469966 0)
(0.203809 -0.047787 0)
(0.202579 -0.0483081 0)
(0.201044 -0.0483974 0)
(0.198965 -0.0478566 0)
(0.196123 -0.0464385 0)
(0.192403 -0.0438975 0)
(0.258862 -0.0562247 0)
(0.258283 -0.0557582 0)
(0.257509 -0.0551533 0)
(0.256519 -0.0544184 0)
(0.255289 -0.0535381 0)
(0.253796 -0.0525012 0)
(0.252018 -0.0513031 0)
(0.249939 -0.0499442 0)
(0.247555 -0.0484297 0)
(0.244871 -0.0467694 0)
(0.241906 -0.044977 0)
(0.238697 -0.043069 0)
(0.235292 -0.0410623 0)
(0.231755 -0.0389719 0)
(0.228164 -0.036808 0)
(0.224602 -0.0345733 0)
(0.22116 -0.03226 0)
(0.217921 -0.0298489 0)
(0.214966 -0.0273095 0)
(0.212358 -0.0246065 0)
(0.250885 -0.0295919 0)
(0.249513 -0.0292163 0)
(0.248238 -0.0288459 0)
(0.247072 -0.0284708 0)
(0.246022 -0.0280838 0)
(0.245095 -0.0276755 0)
(0.244292 -0.0272349 0)
(0.243613 -0.0267491 0)
(0.243048 -0.0262046 0)
(0.242588 -0.0255871 0)
(0.242214 -0.0248823 0)
(0.241905 -0.0240765 0)
(0.241638 -0.0231575 0)
(0.241386 -0.0221154 0)
(0.241124 -0.0209431 0)
(0.240831 -0.0196372 0)
(0.240488 -0.0181981 0)
(0.240086 -0.0166305 0)
(0.239622 -0.014943 0)
(0.239104 -0.0131481 0)
(0.265624 -0.0292031 0)
(0.264978 -0.0283284 0)
(0.264259 -0.0274059 0)
(0.263468 -0.0264345 0)
(0.262604 -0.0254178 0)
(0.261672 -0.0243601 0)
(0.260676 -0.0232657 0)
(0.259625 -0.0221392 0)
(0.258527 -0.0209849 0)
(0.257394 -0.019807 0)
(0.256241 -0.0186093 0)
(0.255082 -0.0173945 0)
(0.253933 -0.0161646 0)
(0.25281 -0.0149206 0)
(0.251728 -0.0136621 0)
(0.250702 -0.0123878 0)
(0.249745 -0.0110954 0)
(0.248866 -0.00978188 0)
(0.248074 -0.00844405 0)
(0.247373 -0.00707871 0)
(0.265909 -0.0199293 0)
(0.265437 -0.0194411 0)
(0.26501 -0.0189326 0)
(0.264629 -0.0184086 0)
(0.264295 -0.0178655 0)
(0.264006 -0.0172993 0)
(0.263762 -0.0167068 0)
(0.263559 -0.0160852 0)
(0.263392 -0.0154321 0)
(0.263258 -0.0147452 0)
(0.263152 -0.0140229 0)
(0.263068 -0.0132639 0)
(0.263001 -0.0124678 0)
(0.262946 -0.0116348 0)
(0.2629 -0.0107655 0)
(0.262858 -0.00986141 0)
(0.262819 -0.0089246 0)
(0.262783 -0.00795755 0)
(0.262748 -0.00696319 0)
(0.262717 -0.00594467 0)
(0.274567 -0.0170388 0)
(0.274175 -0.0163854 0)
(0.273766 -0.0157201 0)
(0.273342 -0.0150389 0)
(0.272903 -0.0143435 0)
(0.272451 -0.013636 0)
(0.271989 -0.0129182 0)
(0.271521 -0.0121914 0)
(0.271049 -0.0114568 0)
(0.270577 -0.0107158 0)
(0.27011 -0.00996922 0)
(0.269651 -0.00921783 0)
(0.269205 -0.00846221 0)
(0.268776 -0.00770269 0)
(0.268367 -0.00693945 0)
(0.267982 -0.00617249 0)
(0.267623 -0.00540172 0)
(0.267292 -0.00462697 0)
(0.266991 -0.00384809 0)
(0.266721 -0.00306496 0)
(0.277275 -0.0136901 0)
(0.277092 -0.0132573 0)
(0.276928 -0.0128107 0)
(0.276782 -0.0123551 0)
(0.276655 -0.0118893 0)
(0.276546 -0.0114121 0)
(0.276454 -0.0109227 0)
(0.276378 -0.0104207 0)
(0.276317 -0.00990567 0)
(0.276271 -0.00937736 0)
(0.276236 -0.00883564 0)
(0.276213 -0.00828056 0)
(0.2762 -0.00771231 0)
(0.276195 -0.00713125 0)
(0.276198 -0.00653788 0)
(0.276207 -0.00593283 0)
(0.276222 -0.00531684 0)
(0.276243 -0.00469077 0)
(0.27627 -0.00405552 0)
(0.276303 -0.00341204 0)
(0.282465 -0.011082 0)
(0.282248 -0.0106235 0)
(0.282028 -0.0101622 0)
(0.281806 -0.00969481 0)
(0.281583 -0.00922218 0)
(0.281359 -0.00874523 0)
(0.281135 -0.00826459 0)
(0.280912 -0.00778074 0)
(0.280691 -0.00729416 0)
(0.280474 -0.00680529 0)
(0.280261 -0.00631452 0)
(0.280055 -0.00582219 0)
(0.279856 -0.00532858 0)
(0.279666 -0.00483394 0)
(0.279485 -0.00433847 0)
(0.279314 -0.00384232 0)
(0.279155 -0.00334563 0)
(0.279009 -0.00284855 0)
(0.278874 -0.00235118 0)
(0.278753 -0.00185366 0)
(0.285326 -0.00964236 0)
(0.285246 -0.00930307 0)
(0.285175 -0.00895594 0)
(0.285112 -0.00860408 0)
(0.285057 -0.00824709 0)
(0.28501 -0.00788448 0)
(0.284971 -0.00751611 0)
(0.28494 -0.00714194 0)
(0.284915 -0.00676195 0)
(0.284898 -0.00637616 0)
(0.284886 -0.00598463 0)
(0.28488 -0.00558746 0)
(0.28488 -0.0051848 0)
(0.284884 -0.00477684 0)
(0.284893 -0.00436383 0)
(0.284907 -0.00394603 0)
(0.284924 -0.00352373 0)
(0.284945 -0.00309727 0)
(0.284971 -0.00266698 0)
(0.285 -0.00223322 0)
(0.288634 -0.0076611 0)
(0.288516 -0.00733855 0)
(0.288398 -0.00701531 0)
(0.288281 -0.00668945 0)
(0.288165 -0.00636131 0)
(0.288049 -0.00603135 0)
(0.287935 -0.00569985 0)
(0.287823 -0.00536701 0)
(0.287713 -0.00503304 0)
(0.287606 -0.00469814 0)
(0.287502 -0.0043625 0)
(0.287401 -0.00402628 0)
(0.287305 -0.00368965 0)
(0.287213 -0.00335274 0)
(0.287126 -0.00301569 0)
(0.287043 -0.00267862 0)
(0.286967 -0.00234163 0)
(0.286896 -0.00200484 0)
(0.286831 -0.00166834 0)
(0.286772 -0.00133225 0)
(0.291026 -0.00684395 0)
(0.290989 -0.00659111 0)
(0.290957 -0.00633388 0)
(0.290928 -0.00607411 0)
(0.290903 -0.00581163 0)
(0.290883 -0.00554623 0)
(0.290866 -0.00527788 0)
(0.290852 -0.00500663 0)
(0.290842 -0.0047325 0)
(0.290836 -0.00445556 0)
(0.290832 -0.00417586 0)
(0.290832 -0.00389347 0)
(0.290834 -0.0036085 0)
(0.290839 -0.00332104 0)
(0.290847 -0.00303121 0)
(0.290857 -0.00273915 0)
(0.290869 -0.00244499 0)
(0.290883 -0.00214888 0)
(0.2909 -0.00185098 0)
(0.290919 -0.00155145 0)
(0.293219 -0.00537363 0)
(0.293157 -0.00514813 0)
(0.293095 -0.00492247 0)
(0.293033 -0.00469552 0)
(0.292972 -0.00446744 0)
(0.292913 -0.00423847 0)
(0.292854 -0.00400877 0)
(0.292797 -0.00377841 0)
(0.292741 -0.00354751 0)
(0.292686 -0.00331616 0)
(0.292634 -0.00308446 0)
(0.292583 -0.00285251 0)
(0.292535 -0.0026204 0)
(0.292489 -0.00238819 0)
(0.292445 -0.00215597 0)
(0.292404 -0.00192382 0)
(0.292365 -0.0016918 0)
(0.29233 -0.00145998 0)
(0.292297 -0.00122843 0)
(0.292267 -0.000997221 0)
(0.295027 -0.00476052 0)
(0.295011 -0.00458065 0)
(0.294997 -0.0043983 0)
(0.294986 -0.00421455 0)
(0.294976 -0.0040293 0)
(0.294968 -0.00384246 0)
(0.294962 -0.00365402 0)
(0.294957 -0.00346404 0)
(0.294954 -0.00327254 0)
(0.294953 -0.00307957 0)
(0.294953 -0.00288517 0)
(0.294955 -0.00268939 0)
(0.294958 -0.00249228 0)
(0.294962 -0.00229391 0)
(0.294968 -0.00209434 0)
(0.294975 -0.00189364 0)
(0.294983 -0.00169188 0)
(0.294992 -0.00148914 0)
(0.295002 -0.00128551 0)
(0.295014 -0.00108105 0)
(0.296475 -0.00364212 0)
(0.296444 -0.00349053 0)
(0.296413 -0.00333891 0)
(0.296382 -0.0031866 0)
(0.296352 -0.00303369 0)
(0.296322 -0.00288032 0)
(0.296293 -0.00272655 0)
(0.296265 -0.00257243 0)
(0.296237 -0.00241802 0)
(0.29621 -0.00226338 0)
(0.296184 -0.00210855 0)
(0.296159 -0.00195359 0)
(0.296135 -0.00179854 0)
(0.296112 -0.00164345 0)
(0.29609 -0.00148837 0)
(0.296069 -0.00133334 0)
(0.29605 -0.0011784 0)
(0.296032 -0.0010236 0)
(0.296015 -0.000868959 0)
(0.296 -0.000714532 0)
(0.297723 -0.00309341 0)
(0.297719 -0.00297545 0)
(0.297715 -0.00285609 0)
(0.297712 -0.00273596 0)
(0.29771 -0.00261501 0)
(0.297709 -0.00249317 0)
(0.297709 -0.00237047 0)
(0.297709 -0.00224693 0)
(0.29771 -0.00212258 0)
(0.297712 -0.00199743 0)
(0.297714 -0.00187152 0)
(0.297717 -0.00174489 0)
(0.29772 -0.00161755 0)
(0.297724 -0.00148954 0)
(0.297729 -0.00136091 0)
(0.297734 -0.00123168 0)
(0.297739 -0.00110191 0)
(0.297745 -0.000971621 0)
(0.297752 -0.000840869 0)
(0.297758 -0.000709694 0)
(0.298609 -0.00219971 0)
(0.298595 -0.00210853 0)
(0.298581 -0.00201739 0)
(0.298568 -0.00192593 0)
(0.298554 -0.00183417 0)
(0.298541 -0.00174218 0)
(0.298527 -0.00165 0)
(0.298514 -0.00155765 0)
(0.298502 -0.00146518 0)
(0.298489 -0.00137259 0)
(0.298477 -0.00127992 0)
(0.298466 -0.00118719 0)
(0.298454 -0.00109444 0)
(0.298443 -0.00100168 0)
(0.298433 -0.000908933 0)
(0.298423 -0.00081623 0)
(0.298414 -0.000723589 0)
(0.298405 -0.000631032 0)
(0.298397 -0.000538579 0)
(0.298389 -0.000446252 0)
(0.299346 -0.00166378 0)
(0.299347 -0.00160037 0)
(0.299348 -0.00153621 0)
(0.29935 -0.00147168 0)
(0.299352 -0.00140676 0)
(0.299354 -0.0013414 0)
(0.299356 -0.0012756 0)
(0.299359 -0.00120939 0)
(0.299362 -0.00114277 0)
(0.299365 -0.00107575 0)
(0.299368 -0.00100836 0)
(0.299371 -0.000940605 0)
(0.299375 -0.000872501 0)
(0.299378 -0.000804064 0)
(0.299382 -0.000735314 0)
(0.299386 -0.000666268 0)
(0.29939 -0.000596945 0)
(0.299393 -0.000527366 0)
(0.299397 -0.000457551 0)
(0.299401 -0.000387522 0)
(0.299757 -0.000898605 0)
(0.299752 -0.000860886 0)
(0.299747 -0.000823302 0)
(0.299742 -0.000785609 0)
(0.299736 -0.000747815 0)
(0.299731 -0.000709963 0)
(0.299726 -0.000672069 0)
(0.299721 -0.000634147 0)
(0.299715 -0.000596207 0)
(0.29971 -0.000558261 0)
(0.299705 -0.00052032 0)
(0.2997 -0.000482396 0)
(0.299695 -0.000444498 0)
(0.299691 -0.000406637 0)
(0.299686 -0.000368822 0)
(0.299681 -0.000331062 0)
(0.299677 -0.000293366 0)
(0.299673 -0.000255742 0)
(0.299669 -0.000218198 0)
(0.299665 -0.000180741 0)
(0.300014 -0.000349955 0)
(0.300017 -0.000337375 0)
(0.300019 -0.000324571 0)
(0.300022 -0.000311695 0)
(0.300025 -0.000298708 0)
(0.300028 -0.000285587 0)
(0.30003 -0.000272332 0)
(0.300033 -0.000258946 0)
(0.300036 -0.00024543 0)
(0.300039 -0.000231786 0)
(0.300042 -0.000218017 0)
(0.300044 -0.000204125 0)
(0.300047 -0.000190114 0)
(0.30005 -0.000175988 0)
(0.300052 -0.00016175 0)
(0.300055 -0.000147406 0)
(0.300058 -0.00013296 0)
(0.30006 -0.000118418 0)
(0.300062 -0.000103785 0)
(0.300065 -8.90663e-05 0)
(0.0543583 -0.0842399 0)
(0.0347584 -0.0642432 0)
(0.023386 -0.0481232 0)
(0.0162402 -0.0361435 0)
(0.0114837 -0.0270142 0)
(0.00818789 -0.019892 0)
(0.00583622 -0.0143133 0)
(0.00411929 -0.0099637 0)
(0.00284247 -0.00660286 0)
(0.00187886 -0.00404507 0)
(0.00114326 -0.00214513 0)
(0.000577315 -0.000786879 0)
(0.00014079 0.000124885 0)