/*--------------------------------*- C++ -*----------------------------------*\
| =========                 |                                                 |
| \\      /  F ield         | OpenFOAM: The Open Source CFD Toolbox           |
|  \\    /   O peration     | Version:  v1806                                 |
|   \\  /    A nd           | Web:      www.OpenFOAM.com                      |
|    \\/     M anipulation  |                                                 |
\*---------------------------------------------------------------------------*/
FoamFile
{
    version     2.0;
    format      ascii;
    class       volVectorField;
    location    "230";
    object      U;
}
// * * * * * * * * * * * * * * * * * * * * * * * * * * * * * * * * * * * * * //

dimensions      [0 1 -1 0 0 0 0];


internalField   nonuniform List<vector> 
2400
(
(0.299999 -0.000422422 0)
(0.299995 -0.00134201 0)
(0.299982 -0.00221192 0)
(0.299962 -0.00321256 0)
(0.29993 -0.00417234 0)
(0.299887 -0.00532973 0)
(0.29983 -0.00645203 0)
(0.299757 -0.00783873 0)
(0.299671 -0.00919539 0)
(0.299563 -0.0108713 0)
(0.299448 -0.0125208 0)
(0.299309 -0.0145032 0)
(0.299178 -0.0164492 0)
(0.299033 -0.018653 0)
(0.298923 -0.0207616 0)
(0.298836 -0.0229118 0)
(0.298827 -0.024797 0)
(0.298907 -0.0263612 0)
(0.299108 -0.0273435 0)
(0.299453 -0.0276275 0)
(0.299998 -0.00041977 0)
(0.299988 -0.00133789 0)
(0.299961 -0.0021999 0)
(0.299926 -0.00319974 0)
(0.29987 -0.00414789 0)
(0.299802 -0.00530597 0)
(0.299713 -0.00641149 0)
(0.299606 -0.007802 0)
(0.299482 -0.00913603 0)
(0.299335 -0.0108216 0)
(0.299182 -0.0124442 0)
(0.299005 -0.0144459 0)
(0.298852 -0.016368 0)
(0.298693 -0.0186059 0)
(0.298609 -0.0207097 0)
(0.298573 -0.0229127 0)
(0.298679 -0.024832 0)
(0.298923 -0.0264669 0)
(0.299356 -0.0275208 0)
(0.299979 -0.0278645 0)
(0.299996 -0.000414669 0)
(0.29998 -0.00132963 0)
(0.299936 -0.00217796 0)
(0.299882 -0.00317709 0)
(0.299794 -0.00410625 0)
(0.299693 -0.00526763 0)
(0.299558 -0.00634635 0)
(0.299406 -0.00774729 0)
(0.299226 -0.00904526 0)
(0.299021 -0.0107536 0)
(0.298811 -0.012333 0)
(0.298575 -0.0143776 0)
(0.298383 -0.0162602 0)
(0.298189 -0.0185691 0)
(0.298122 -0.020662 0)
(0.298127 -0.0229672 0)
(0.298364 -0.0249345 0)
(0.298796 -0.026688 0)
(0.299513 -0.0278361 0)
(0.300489 -0.0282785 0)
(0.299995 -0.000407161 0)
(0.299973 -0.00131718 0)
(0.299912 -0.00214598 0)
(0.299837 -0.00314446 0)
(0.299715 -0.00404714 0)
(0.299578 -0.00521466 0)
(0.299394 -0.00625608 0)
(0.29919 -0.00767489 0)
(0.298947 -0.008922 0)
(0.298677 -0.0106685 0)
(0.298398 -0.012185 0)
(0.298091 -0.0143002 0)
(0.297846 -0.016121 0)
(0.2976 -0.0185462 0)
(0.297539 -0.0206116 0)
(0.297565 -0.0230803 0)
(0.29793 -0.0250996 0)
(0.298541 -0.0270315 0)
(0.29956 -0.0283026 0)
(0.300923 -0.0288621 0)
(0.299993 -0.000397424 0)
(0.299966 -0.00130048 0)
(0.299887 -0.00210402 0)
(0.299792 -0.00310128 0)
(0.299635 -0.00396976 0)
(0.299463 -0.00514539 0)
(0.299226 -0.00613824 0)
(0.298971 -0.00758167 0)
(0.298659 -0.00876126 0)
(0.298321 -0.0105614 0)
(0.297965 -0.0119911 0)
(0.29758 -0.0142078 0)
(0.297271 -0.0159358 0)
(0.296955 -0.0185316 0)
(0.296889 -0.0205377 0)
(0.296908 -0.0232506 0)
(0.2974 -0.025309 0)
(0.298167 -0.0275053 0)
(0.29951 -0.0289248 0)
(0.301282 -0.0296403 0)
(0.299992 -0.000385683 0)
(0.29996 -0.0012793 0)
(0.299862 -0.00205237 0)
(0.299749 -0.00304715 0)
(0.299555 -0.00387421 0)
(0.29935 -0.00505898 0)
(0.299058 -0.00599227 0)
(0.298752 -0.00746615 0)
(0.298368 -0.00856082 0)
(0.297961 -0.0104302 0)
(0.29752 -0.0117458 0)
(0.29705 -0.0140983 0)
(0.296665 -0.0156925 0)
(0.296263 -0.0185248 0)
(0.296178 -0.02042 0)
(0.296157 -0.0234831 0)
(0.296774 -0.0255402 0)
(0.297662 -0.0281247 0)
(0.299362 -0.0297039 0)
(0.301565 -0.0306407 0)
(0.29999 -0.000372218 0)
(0.299955 -0.00125335 0)
(0.299838 -0.00199155 0)
(0.299707 -0.0029817 0)
(0.299476 -0.00376115 0)
(0.299239 -0.00495484 0)
(0.29889 -0.00581857 0)
(0.298536 -0.00732736 0)
(0.298073 -0.00831993 0)
(0.297598 -0.0102735 0)
(0.297064 -0.0114449 0)
(0.296504 -0.0139698 0)
(0.296027 -0.0153801 0)
(0.295522 -0.0185258 0)
(0.2954 -0.0202353 0)
(0.295301 -0.023786 0)
(0.296041 -0.0257611 0)
(0.296999 -0.0289133 0)
(0.299105 -0.0306334 0)
(0.301753 -0.0318959 0)
(0.299989 -0.000357387 0)
(0.299951 -0.00122224 0)
(0.299813 -0.00192226 0)
(0.299667 -0.00290441 0)
(0.299398 -0.00363157 0)
(0.299131 -0.00483214 0)
(0.298722 -0.00561817 0)
(0.298323 -0.00716384 0)
(0.297776 -0.0080387 0)
(0.297237 -0.0100887 0)
(0.296595 -0.0110855 0)
(0.295945 -0.0138189 0)
(0.295355 -0.0149874 0)
(0.294731 -0.0185325 0)
(0.294545 -0.0199574 0)
(0.294323 -0.0241674 0)
(0.295181 -0.0259292 0)
(0.296136 -0.0299048 0)
(0.298722 -0.0316914 0)
(0.301814 -0.0334543 0)
(0.299987 -0.000341628 0)
(0.299947 -0.00118547 0)
(0.29979 -0.00184543 0)
(0.299629 -0.00281456 0)
(0.29932 -0.00348689 0)
(0.299027 -0.0046896 0)
(0.298555 -0.00539275 0)
(0.298116 -0.00697327 0)
(0.297476 -0.00771831 0)
(0.296878 -0.00987188 0)
(0.296113 -0.0106658 0)
(0.295375 -0.0136393 0)
(0.294643 -0.0145049 0)
(0.293889 -0.0185385 0)
(0.293601 -0.019559 0)
(0.293211 -0.024632 0)
(0.294171 -0.0259917 0)
(0.295028 -0.0311426 0)
(0.29819 -0.0328357 0)
(0.301691 -0.0353893 0)
(0.299986 -0.000325437 0)
(0.299944 -0.00114243 0)
(0.299767 -0.00176217 0)
(0.299593 -0.0027112 0)
(0.299243 -0.00332897 0)
(0.298928 -0.00452544 0)
(0.298388 -0.00514494 0)
(0.297916 -0.00675228 0)
(0.297173 -0.0073616 0)
(0.296527 -0.00961687 0)
(0.295614 -0.0101869 0)
(0.294802 -0.0134211 0)
(0.293884 -0.013926 0)
(0.293004 -0.018531 0)
(0.292552 -0.0190147 0)
(0.291958 -0.0251773 0)
(0.292979 -0.0258891 0)
(0.293622 -0.0326753 0)
(0.297481 -0.0340004 0)
(0.301294 -0.0378086 0)
(0.299987 -0.000309337 0)
(0.299941 -0.00109247 0)
(0.299746 -0.00167384 0)
(0.299557 -0.00259323 0)
(0.299169 -0.00316015 0)
(0.298832 -0.00433737 0)
(0.298224 -0.0048784 0)
(0.297724 -0.00649626 0)
(0.296867 -0.0069735 0)
(0.296188 -0.00931492 0)
(0.295097 -0.00965339 0)
(0.294236 -0.0131491 0)
(0.293069 -0.0132499 0)
(0.292091 -0.0184888 0)
(0.291373 -0.0183041 0)
(0.290571 -0.0257886 0)
(0.291562 -0.0255574 0)
(0.29187 -0.0345486 0)
(0.296559 -0.0350964 0)
(0.300496 -0.0408675 0)
(0.299989 -0.000293799 0)
(0.299936 -0.00103498 0)
(0.299729 -0.00158182 0)
(0.299521 -0.00245948 0)
(0.299101 -0.00298312 0)
(0.298739 -0.00412272 0)
(0.298066 -0.00459784 0)
(0.29754 -0.00619941 0)
(0.296563 -0.00656147 0)
(0.295863 -0.00895418 0)
(0.294563 -0.00907511 0)
(0.293687 -0.0128015 0)
(0.292185 -0.012484 0)
(0.291178 -0.018378 0)
(0.290024 -0.0174171 0)
(0.289086 -0.0264341 0)
(0.289845 -0.0249331 0)
(0.289744 -0.0367977 0)
(0.295368 -0.0360055 0)
(0.299111 -0.0447829 0)
(0.299995 -0.000279133 0)
(0.299927 -0.000969578 0)
(0.299719 -0.00148737 0)
(0.29948 -0.00230904 0)
(0.299043 -0.0028006 0)
(0.298642 -0.00387891 0)
(0.297922 -0.00430863 0)
(0.297356 -0.00585516 0)
(0.296272 -0.00613531 0)
(0.295546 -0.0085196 0)
(0.294022 -0.00846787 0)
(0.293161 -0.0123472 0)
(0.291231 -0.0116479 0)
(0.290296 -0.0181455 0)
(0.288455 -0.0163619 0)
(0.287582 -0.0270565 0)
(0.28769 -0.0239613 0)
(0.287297 -0.039447 0)
(0.293797 -0.0365674 0)
(0.296876 -0.0498369 0)
(0.300006 -0.000265362 0)
(0.299911 -0.000896327 0)
(0.299717 -0.00139132 0)
(0.29943 -0.00214176 0)
(0.299002 -0.00261467 0)
(0.298534 -0.00360433 0)
(0.297805 -0.00401568 0)
(0.297159 -0.00545757 0)
(0.296015 -0.00570597 0)
(0.295218 -0.00799444 0)
(0.293508 -0.00785352 0)
(0.292634 -0.0117457 0)
(0.290237 -0.0107773 0)
(0.289442 -0.0177094 0)
(0.286633 -0.0151778 0)
(0.28615 -0.0275473 0)
(0.284868 -0.0226209 0)
(0.284744 -0.0425145 0)
(0.291534 -0.0365553 0)
(0.293476 -0.0564058 0)
(0.300023 -0.000252127 0)
(0.299885 -0.00081593 0)
(0.299729 -0.00129374 0)
(0.299366 -0.00195863 0)
(0.298985 -0.00242607 0)
(0.298406 -0.00329949 0)
(0.297731 -0.00372169 0)
(0.29693 -0.00500415 0)
(0.295827 -0.00528183 0)
(0.294843 -0.00736523 0)
(0.293084 -0.00725558 0)
(0.292044 -0.010952 0)
(0.289305 -0.00992493 0)
(0.288536 -0.0169511 0)
(0.284638 -0.0139499 0)
(0.284774 -0.0276953 0)
(0.281148 -0.0209772 0)
(0.282471 -0.0459679 0)
(0.287789 -0.035641 0)
(0.288889 -0.0652241 0)
(0.300047 -0.000238667 0)
(0.299849 -0.000729828 0)
(0.299756 -0.00119383 0)
(0.299285 -0.00176217 0)
(0.299 -0.00223369 0)
(0.298249 -0.00296807 0)
(0.297715 -0.00342547 0)
(0.296652 -0.00449881 0)
(0.295743 -0.00486357 0)
(0.294376 -0.00663066 0)
(0.292835 -0.00668591 0)
(0.291295 -0.00993616 0)
(0.288616 -0.00914455 0)
(0.287374 -0.0157345 0)
(0.282777 -0.0128157 0)
(0.283129 -0.0271227 0)
(0.27661 -0.0192577 0)
(0.280641 -0.0494815 0)
(0.281028 -0.0334992 0)
(0.284307 -0.0777738 0)
(0.300077 -0.000223895 0)
(0.299803 -0.000640064 0)
(0.299796 -0.00109009 0)
(0.299188 -0.00155617 0)
(0.299044 -0.0020347 0)
(0.298064 -0.00261681 0)
(0.297761 -0.00312169 0)
(0.296317 -0.00395306 0)
(0.295783 -0.00444149 0)
(0.293794 -0.00580818 0)
(0.292827 -0.00613058 0)
(0.290297 -0.00871196 0)
(0.288382 -0.00844019 0)
(0.285693 -0.0139921 0)
(0.281607 -0.0119102 0)
(0.280483 -0.0253271 0)
(0.272199 -0.0178784 0)
(0.278167 -0.0519613 0)
(0.269769 -0.0303786 0)
(0.282887 -0.0960689 0)
(0.300111 -0.000206637 0)
(0.299749 -0.000548626 0)
(0.299846 -0.000981149 0)
(0.299081 -0.00134466 0)
(0.299113 -0.00182611 0)
(0.29786 -0.0022535 0)
(0.297859 -0.00280367 0)
(0.295944 -0.00338232 0)
(0.295933 -0.00400014 0)
(0.293118 -0.00492943 0)
(0.29306 -0.00555351 0)
(0.289057 -0.00734292 0)
(0.28869 -0.00773415 0)
(0.283358 -0.0118146 0)
(0.281653 -0.0111587 0)
(0.276062 -0.0220966 0)
(0.269813 -0.017243 0)
(0.271811 -0.0512938 0)
(0.255956 -0.0283038 0)
(0.286835 -0.122065 0)
(0.300145 -0.00018637 0)
(0.299694 -0.000456503 0)
(0.299899 -0.000866908 0)
(0.298974 -0.00113004 0)
(0.299192 -0.00160741 0)
(0.297659 -0.00188319 0)
(0.297983 -0.00246907 0)
(0.295573 -0.00279758 0)
(0.296142 -0.00353122 0)
(0.292431 -0.00402082 0)
(0.293429 -0.00492664 0)
(0.287745 -0.00590037 0)
(0.289352 -0.00693007 0)
(0.28067 -0.00940287 0)
(0.282769 -0.0102442 0)
(0.269985 -0.0178253 0)
(0.270763 -0.0169173 0)
(0.257838 -0.0458781 0)
(0.248494 -0.0304624 0)
(0.28767 -0.159064 0)
(0.300175 -0.000162544 0)
(0.299642 -0.000366331 0)
(0.299947 -0.00074507 0)
(0.29888 -0.000916915 0)
(0.299267 -0.00137494 0)
(0.297482 -0.0015142 0)
(0.298104 -0.00211157 0)
(0.295249 -0.00221289 0)
(0.296345 -0.00302391 0)
(0.291837 -0.0031069 0)
(0.293782 -0.00422864 0)
(0.286621 -0.00443672 0)
(0.289969 -0.00596086 0)
(0.278355 -0.00692848 0)
(0.283856 -0.00883265 0)
(0.264255 -0.0132541 0)
(0.272654 -0.0151672 0)
(0.23873 -0.0369906 0)
(0.250051 -0.0356108 0)
(0.255111 -0.196011 0)
(0.299761 -0.0272474 0)
(0.299857 -0.0270995 0)
(0.299948 -0.0269238 0)
(0.300037 -0.0267223 0)
(0.30013 -0.0264951 0)
(0.300226 -0.0262423 0)
(0.300324 -0.0259642 0)
(0.300422 -0.0256618 0)
(0.300522 -0.0253352 0)
(0.300618 -0.0249895 0)
(0.300439 -0.0275364 0)
(0.300578 -0.0274068 0)
(0.300717 -0.027248 0)
(0.300855 -0.0270599 0)
(0.300996 -0.0268431 0)
(0.301136 -0.0265983 0)
(0.301277 -0.026326 0)
(0.301417 -0.0260275 0)
(0.301555 -0.0257023 0)
(0.301692 -0.0253572 0)
(0.301187 -0.0279637 0)
(0.3014 -0.0278339 0)
(0.301609 -0.0276724 0)
(0.301815 -0.0274806 0)
(0.302021 -0.027259 0)
(0.302225 -0.027008 0)
(0.302428 -0.0267284 0)
(0.302626 -0.0264213 0)
(0.302821 -0.0260864 0)
(0.303009 -0.0257304 0)
(0.301891 -0.0285657 0)
(0.302186 -0.0284391 0)
(0.302472 -0.0282786 0)
(0.302754 -0.0280852 0)
(0.303034 -0.0278594 0)
(0.303312 -0.0276016 0)
(0.303586 -0.0273125 0)
(0.303854 -0.0269932 0)
(0.304114 -0.0266437 0)
(0.304365 -0.0262718 0)
(0.302546 -0.0293718 0)
(0.302931 -0.02925 0)
(0.303305 -0.0290897 0)
(0.303673 -0.0288921 0)
(0.304038 -0.0286578 0)
(0.304399 -0.0283873 0)
(0.304753 -0.0280816 0)
(0.305098 -0.0277423 0)
(0.305433 -0.0273691 0)
(0.305754 -0.0269719 0)
(0.30316 -0.0304088 0)
(0.303648 -0.0302921 0)
(0.304123 -0.0301306 0)
(0.30459 -0.0299255 0)
(0.305051 -0.0296777 0)
(0.305507 -0.0293884 0)
(0.305952 -0.0290587 0)
(0.306385 -0.0286909 0)
(0.306804 -0.0282843 0)
(0.307202 -0.027852 0)
(0.303735 -0.0317133 0)
(0.304344 -0.0316026 0)
(0.304939 -0.0314377 0)
(0.305521 -0.0312206 0)
(0.306096 -0.0309531 0)
(0.306661 -0.0306368 0)
(0.307212 -0.0302734 0)
(0.307744 -0.0298657 0)
(0.308258 -0.0294133 0)
(0.308744 -0.0289335 0)
(0.304264 -0.0333387 0)
(0.305023 -0.0332341 0)
(0.305764 -0.0330617 0)
(0.306486 -0.0328255 0)
(0.307195 -0.0325287 0)
(0.307889 -0.0321736 0)
(0.308563 -0.0317628 0)
(0.309213 -0.0313003 0)
(0.309835 -0.0307852 0)
(0.310421 -0.0302418 0)
(0.304745 -0.0353614 0)
(0.305695 -0.0352601 0)
(0.306618 -0.0350715 0)
(0.307511 -0.0348041 0)
(0.308382 -0.0344632 0)
(0.309231 -0.0340523 0)
(0.310051 -0.0335746 0)
(0.310836 -0.0330362 0)
(0.311585 -0.0324355 0)
(0.312284 -0.0318072 0)
(0.305174 -0.0378873 0)
(0.306382 -0.0377807 0)
(0.307536 -0.0375592 0)
(0.308639 -0.0372403 0)
(0.309706 -0.0368322 0)
(0.310741 -0.0363395 0)
(0.311735 -0.0357668 0)
(0.312681 -0.0351227 0)
(0.313574 -0.0344051 0)
(0.314402 -0.0336629 0)
(0.305563 -0.0410585 0)
(0.307126 -0.0409271 0)
(0.308578 -0.0406432 0)
(0.309936 -0.0402396 0)
(0.311241 -0.0397289 0)
(0.3125 -0.0391164 0)
(0.313702 -0.0384081 0)
(0.314835 -0.0376166 0)
(0.315896 -0.0367389 0)
(0.31687 -0.0358437 0)
(0.305939 -0.0450612 0)
(0.308 -0.0448676 0)
(0.309834 -0.0444729 0)
(0.311504 -0.0439339 0)
(0.313097 -0.0432681 0)
(0.314629 -0.0424806 0)
(0.316083 -0.0415797 0)
(0.317439 -0.0405833 0)
(0.318695 -0.0394874 0)
(0.319833 -0.0383871 0)
(0.30637 -0.0501324 0)
(0.30914 -0.0498185 0)
(0.311471 -0.049243 0)
(0.313528 -0.0484962 0)
(0.315481 -0.0476002 0)
(0.317357 -0.0465602 0)
(0.319124 -0.0453873 0)
(0.320752 -0.0441076 0)
(0.322241 -0.0427155 0)
(0.323567 -0.0413407 0)
(0.307076 -0.0565987 0)
(0.310872 -0.056086 0)
(0.313876 -0.0552392 0)
(0.316445 -0.0541878 0)
(0.318873 -0.0529576 0)
(0.321197 -0.0515538 0)
(0.323358 -0.0499929 0)
(0.325313 -0.0483136 0)
(0.327059 -0.0465099 0)
(0.328576 -0.0447555 0)
(0.308801 -0.0650507 0)
(0.31407 -0.0642029 0)
(0.317991 -0.0629327 0)
(0.321236 -0.0614152 0)
(0.324264 -0.0596752 0)
(0.327114 -0.0577172 0)
(0.329681 -0.0555675 0)
(0.331907 -0.0532832 0)
(0.333786 -0.0508654 0)
(0.335332 -0.0485346 0)
(0.313339 -0.0765386 0)
(0.320502 -0.0750195 0)
(0.325411 -0.0729322 0)
(0.329233 -0.0705327 0)
(0.332665 -0.0678554 0)
(0.335731 -0.0649093 0)
(0.338276 -0.0617411 0)
(0.340228 -0.0584323 0)
(0.341599 -0.0550142 0)
(0.342478 -0.051712 0)
(0.322449 -0.0919344 0)
(0.331241 -0.0889984 0)
(0.33624 -0.0852427 0)
(0.339396 -0.0810403 0)
(0.341811 -0.0764801 0)
(0.343555 -0.0716321 0)
(0.344449 -0.0666064 0)
(0.344445 -0.0615151 0)
(0.343636 -0.0564565 0)
(0.342162 -0.0515151 0)
(0.331171 -0.108291 0)
(0.338961 -0.102157 0)
(0.340779 -0.0953489 0)
(0.339789 -0.0880809 0)
(0.33768 -0.0804512 0)
(0.33466 -0.0726831 0)
(0.330649 -0.065009 0)
(0.325729 -0.057571 0)
(0.320191 -0.0504945 0)
(0.313953 -0.0436014 0)
(0.31657 -0.112708 0)
(0.314455 -0.0985405 0)
(0.304827 -0.0861989 0)
(0.293439 -0.074632 0)
(0.281932 -0.0634662 0)
(0.270228 -0.0529171 0)
(0.258388 -0.0431811 0)
(0.246768 -0.0343024 0)
(0.235756 -0.0262134 0)
(0.224982 -0.0187904 0)
(0.228225 -0.102856 0)
(0.192511 -0.0769444 0)
(0.156413 -0.0558973 0)
(0.130706 -0.03886 0)
(0.112052 -0.0253985 0)
(0.0974745 -0.0152558 0)
(0.0861923 -0.0078802 0)
(0.0778654 -0.00257253 0)
(0.0718116 0.00126083 0)
(0.0675124 0.00383073 0)
(0.301004 -0.0235021 0)
(0.30168 -0.0201704 0)
(0.302265 -0.016356 0)
(0.302652 -0.0127358 0)
(0.302991 -0.00925173 0)
(0.30312 -0.00631706 0)
(0.303293 -0.00370674 0)
(0.303285 -0.00159218 0)
(0.30329 6.23096e-05 0)
(0.303215 0.00133652 0)
(0.303048 0.00197073 0)
(0.303006 0.00235546 0)
(0.302771 0.00233486 0)
(0.302878 0.00206632 0)
(0.302784 0.00224976 0)
(0.302953 0.0018444 0)
(0.303093 0.00279334 0)
(0.30301 0.002366 0)
(0.30316 0.00342354 0)
(0.302727 0.00261431 0)
(0.302217 -0.023833 0)
(0.302942 -0.0204262 0)
(0.303439 -0.0165383 0)
(0.303652 -0.0128612 0)
(0.303791 -0.00932743 0)
(0.303726 -0.00635832 0)
(0.303736 -0.00372372 0)
(0.303578 -0.00157971 0)
(0.303462 9.05701e-05 0)
(0.303273 0.00139235 0)
(0.303018 0.00202121 0)
(0.302926 0.0024114 0)
(0.30266 0.00236024 0)
(0.30281 0.00206093 0)
(0.30274 0.00222933 0)
(0.302984 0.00177941 0)
(0.303151 0.00277446 0)
(0.303051 0.00235355 0)
(0.3032 0.00347741 0)
(0.302651 0.0027138 0)
(0.303725 -0.0241721 0)
(0.304613 -0.0206592 0)
(0.305095 -0.0166619 0)
(0.305159 -0.0129056 0)
(0.30509 -0.00931633 0)
(0.304793 -0.00631824 0)
(0.304595 -0.00366469 0)
(0.304221 -0.00149864 0)
(0.303921 0.000180715 0)
(0.303542 0.00150188 0)
(0.303127 0.00210983 0)
(0.302931 0.00249245 0)
(0.302578 0.0023822 0)
(0.302775 0.00204061 0)
(0.302717 0.00218025 0)
(0.303081 0.00168944 0)
(0.30329 0.002759 0)
(0.303163 0.00235237 0)
(0.303314 0.00356929 0)
(0.302556 0.0028447 0)
(0.305316 -0.0246242 0)
(0.306412 -0.020915 0)
(0.306919 -0.0167487 0)
(0.306861 -0.0128771 0)
(0.30661 -0.009218 0)
(0.306092 -0.00618999 0)
(0.305699 -0.00351946 0)
(0.305104 -0.00133716 0)
(0.30461 0.000349386 0)
(0.304009 0.00168233 0)
(0.303398 0.00225418 0)
(0.303059 0.00261358 0)
(0.30258 0.00241199 0)
(0.302817 0.00201219 0)
(0.302757 0.00210448 0)
(0.303268 0.0015725 0)
(0.303527 0.0027433 0)
(0.303364 0.00235874 0)
(0.303522 0.00369819 0)
(0.302477 0.00301903 0)
(0.306967 -0.0251932 0)
(0.308283 -0.0212093 0)
(0.308817 -0.0168188 0)
(0.308633 -0.012796 0)
(0.308209 -0.00905118 0)
(0.30748 -0.00598981 0)
(0.306913 -0.00330037 0)
(0.306109 -0.00110139 0)
(0.305433 0.000597096 0)
(0.304601 0.00194173 0)
(0.303783 0.00246612 0)
(0.303279 0.00278894 0)
(0.302653 0.00245925 0)
(0.302926 0.00198022 0)
(0.302862 0.00199879 0)
(0.30354 0.00141928 0)
(0.303864 0.00272409 0)
(0.303651 0.00237107 0)
(0.303825 0.00388084 0)
(0.302418 0.00325769 0)
(0.308708 -0.0258887 0)
(0.310239 -0.0215426 0)
(0.310781 -0.0168699 0)
(0.310445 -0.0126608 0)
(0.309836 -0.00881735 0)
(0.308893 -0.00572281 0)
(0.308165 -0.00301393 0)
(0.307164 -0.000796758 0)
(0.306318 0.00092217 0)
(0.305251 0.00228171 0)
(0.304221 0.00275052 0)
(0.303532 0.00302389 0)
(0.302752 0.00252614 0)
(0.303055 0.00194432 0)
(0.303 0.00185567 0)
(0.303866 0.00122355 0)
(0.304273 0.00270075 0)
(0.303993 0.00239195 0)
(0.304194 0.00413254 0)
(0.302348 0.00357472 0)
(0.310578 -0.0267161 0)
(0.31231 -0.0219086 0)
(0.312826 -0.0168914 0)
(0.3123 -0.0124613 0)
(0.311481 -0.00851096 0)
(0.310312 -0.00538838 0)
(0.309428 -0.00266281 0)
(0.308236 -0.000426313 0)
(0.307227 0.00132469 0)
(0.305915 0.00270391 0)
(0.304662 0.00311281 0)
(0.30376 0.0033223 0)
(0.302821 0.00261409 0)
(0.303139 0.00190265 0)
(0.303119 0.00166616 0)
(0.304182 0.000980782 0)
(0.304696 0.00267189 0)
(0.304327 0.00242397 0)
(0.304563 0.00446656 0)
(0.302188 0.00398366 0)
(0.312623 -0.0276791 0)
(0.31453 -0.0222986 0)
(0.314974 -0.0168693 0)
(0.314206 -0.012184 0)
(0.313145 -0.00812436 0)
(0.311732 -0.00498436 0)
(0.310692 -0.00224847 0)
(0.309316 8.80646e-06 0)
(0.308136 0.00180771 0)
(0.306559 0.00321346 0)
(0.305057 0.00356314 0)
(0.303899 0.00369101 0)
(0.302787 0.00272788 0)
(0.303089 0.00185456 0)
(0.303132 0.00142191 0)
(0.304384 0.00068867 0)
(0.305028 0.00263626 0)
(0.304533 0.0024718 0)
(0.304805 0.00489969 0)
(0.301803 0.00450023 0)
(0.314901 -0.0287784 0)
(0.316937 -0.0227011 0)
(0.317251 -0.0167854 0)
(0.31618 -0.0118122 0)
(0.314834 -0.0076481 0)
(0.313153 -0.00450726 0)
(0.31195 -0.00177106 0)
(0.310384 0.00051059 0)
(0.309011 0.00237884 0)
(0.307135 0.00382138 0)
(0.305333 0.00411892 0)
(0.303855 0.00414261 0)
(0.302536 0.00287905 0)
(0.302766 0.00180388 0)
(0.302887 0.00111923 0)
(0.304288 0.000350525 0)
(0.30508 0.00259522 0)
(0.304407 0.00254445 0)
(0.304715 0.00545287 0)
(0.300982 0.00514107 0)
(0.317479 -0.0300096 0)
(0.319583 -0.0231022 0)
(0.319696 -0.0166167 0)
(0.318242 -0.0113252 0)
(0.316547 -0.007069 0)
(0.314554 -0.00394962 0)
(0.313158 -0.00122577 0)
(0.311375 0.00108757 0)
(0.309759 0.00305306 0)
(0.307525 0.00454785 0)
(0.305337 0.00480761 0)
(0.303451 0.00469876 0)
(0.301858 0.00309004 0)
(0.301926 0.00176323 0)
(0.30211 0.000765247 0)
(0.303576 -2.12795e-05 0)
(0.30453 0.00255337 0)
(0.303614 0.00265452 0)
(0.303962 0.0061475 0)
(0.299412 0.00592072 0)
(0.320456 -0.0313623 0)
(0.322549 -0.0234854 0)
(0.322362 -0.0163314 0)
(0.320401 -0.010693 0)
(0.31824 -0.00636307 0)
(0.315834 -0.0032927 0)
(0.314162 -0.000594598 0)
(0.312088 0.00176143 0)
(0.310136 0.00385722 0)
(0.307455 0.00542586 0)
(0.304758 0.00566903 0)
(0.302355 0.00539376 0)
(0.300372 0.00339859 0)
(0.300154 0.0017592 0)
(0.300334 0.000384283 0)
(0.301739 -0.000403064 0)
(0.302865 0.00251694 0)
(0.301647 0.0028132 0)
(0.302069 0.00699747 0)
(0.296667 0.00684599 0)
(0.323997 -0.0328232 0)
(0.32595 -0.0238272 0)
(0.325275 -0.0158752 0)
(0.322562 -0.00985989 0)
(0.319694 -0.00547805 0)
(0.316663 -0.00248833 0)
(0.314538 0.000160909 0)
(0.312023 0.0025724 0)
(0.309602 0.00483236 0)
(0.306359 0.00650131 0)
(0.303012 0.00675309 0)
(0.299978 0.00627488 0)
(0.297449 0.00385963 0)
(0.296793 0.00183728 0)
(0.296831 1.82829e-05 0)
(0.298033 -0.00076447 0)
(0.299352 0.00248806 0)
(0.297824 0.00302045 0)
(0.298414 0.00799646 0)
(0.292219 0.00790786 0)
(0.328389 -0.034373 0)
(0.329866 -0.0240722 0)
(0.328255 -0.0151351 0)
(0.324277 -0.00870869 0)
(0.320238 -0.00430174 0)
(0.316191 -0.00143659 0)
(0.313314 0.00111943 0)
(0.310147 0.00358446 0)
(0.307124 0.00602834 0)
(0.303233 0.00782236 0)
(0.299142 0.00810723 0)
(0.295397 0.00739343 0)
(0.292153 0.00453764 0)
(0.290904 0.0020582 0)
(0.290611 -0.000274914 0)
(0.29151 -0.00108062 0)
(0.293082 0.00245136 0)
(0.291346 0.0032493 0)
(0.292295 0.00910259 0)
(0.285499 0.00907337 0)
(0.333957 -0.0359436 0)
(0.33394 -0.0240589 0)
(0.330376 -0.0138622 0)
(0.324194 -0.00700845 0)
(0.318241 -0.00262663 0)
(0.312624 1.80422e-05 0)
(0.308641 0.00239358 0)
(0.304652 0.00486447 0)
(0.301025 0.00747504 0)
(0.296545 0.00940749 0)
(0.29178 0.00974794 0)
(0.287353 0.00878469 0)
(0.283286 0.00548976 0)
(0.281347 0.00248241 0)
(0.280545 -0.000443164 0)
(0.281179 -0.00135329 0)
(0.283137 0.00235497 0)
(0.281467 0.00342699 0)
(0.283069 0.0102274 0)
(0.276002 0.0102816 0)
(0.340275 -0.0372102 0)
(0.336245 -0.0233194 0)
(0.328941 -0.0115606 0)
(0.319222 -0.00437841 0)
(0.310526 -0.000172071 0)
(0.302868 0.00204681 0)
(0.297631 0.0040676 0)
(0.292952 0.00641587 0)
(0.28907 0.00912041 0)
(0.28439 0.0111886 0)
(0.27933 0.0116169 0)
(0.274445 0.0104355 0)
(0.269616 0.00673573 0)
(0.267032 0.00314145 0)
(0.26568 -0.000481 0)
(0.266312 -0.00163935 0)
(0.268881 0.0020943 0)
(0.26775 0.00342589 0)
(0.27035 0.0112397 0)
(0.263442 0.0114486 0)
(0.343839 -0.0369563 0)
(0.331288 -0.0208026 0)
(0.318225 -0.00746918 0)
(0.303906 -0.000427622 0)
(0.292264 0.00327112 0)
(0.282792 0.00470995 0)
(0.27686 0.00607397 0)
(0.272288 0.00806824 0)
(0.269077 0.0107453 0)
(0.265054 0.0129487 0)
(0.260456 0.0135383 0)
(0.255584 0.0122466 0)
(0.250326 0.00821586 0)
(0.247382 0.00399133 0)
(0.245718 -0.000468663 0)
(0.246859 -0.00206718 0)
(0.250321 0.00151426 0)
(0.250329 0.00308073 0)
(0.254193 0.0119929 0)
(0.247901 0.0124824 0)
(0.334136 -0.0326503 0)
(0.308227 -0.0150274 0)
(0.289397 -0.000965148 0)
(0.271345 0.00488055 0)
(0.258474 0.00754582 0)
(0.248914 0.00769497 0)
(0.244013 0.00801195 0)
(0.24119 0.00937017 0)
(0.240114 0.011915 0)
(0.237962 0.0143116 0)
(0.234827 0.0152191 0)
(0.230642 0.014015 0)
(0.225606 0.00975698 0)
(0.222885 0.00487052 0)
(0.22148 -0.00058895 0)
(0.223755 -0.0028192 0)
(0.228342 0.000448743 0)
(0.230041 0.00224036 0)
(0.235197 0.0123687 0)
(0.229942 0.0133008 0)
(0.291475 -0.021877 0)
(0.253323 -0.00591599 0)
(0.234759 0.00703418 0)
(0.217667 0.0104817 0)
(0.207996 0.0116164 0)
(0.201625 0.0100236 0)
(0.200339 0.00904645 0)
(0.201227 0.00963093 0)
(0.203719 0.0120795 0)
(0.204545 0.0148489 0)
(0.203773 0.0163261 0)
(0.201031 0.0154523 0)
(0.197128 0.0110667 0)
(0.195435 0.0055034 0)
(0.195052 -0.00108427 0)
(0.19893 -0.00406296 0)
(0.204669 -0.00121515 0)
(0.208333 0.000844255 0)
(0.214485 0.0123155 0)
(0.210632 0.0138398 0)
(0.197065 -0.00143343 0)
(0.164023 0.00494597 0)
(0.158802 0.0136789 0)
(0.149361 0.0140393 0)
(0.147739 0.0137024 0)
(0.147486 0.0103952 0)
(0.151732 0.00828044 0)
(0.157425 0.00825553 0)
(0.164059 0.0108508 0)
(0.168331 0.0142713 0)
(0.170411 0.0165946 0)
(0.169823 0.0162415 0)
(0.168026 0.0117853 0)
(0.168155 0.00557102 0)
(0.169433 -0.00216912 0)
(0.174924 -0.00586118 0)
(0.181549 -0.00346961 0)
(0.187016 -0.00105207 0)
(0.193599 0.0118602 0)
(0.191487 0.0140465 0)
(0.075321 0.00742505 0)
(0.068644 0.00609739 0)
(0.0826965 0.0140567 0)
(0.082755 0.0134648 0)
(0.0904762 0.012616 0)
(0.0967814 0.00817097 0)
(0.10653 0.00540491 0)
(0.116568 0.00513623 0)
(0.12675 0.00820274 0)
(0.134172 0.0125233 0)
(0.139122 0.015871 0)
(0.141214 0.0161266 0)
(0.142246 0.0116343 0)
(0.144658 0.0048726 0)
(0.147812 -0.00387659 0)
(0.154373 -0.00811638 0)
(0.16133 -0.00614381 0)
(0.168013 -0.00328769 0)
(0.174364 0.0110549 0)
(0.174296 0.0138846 0)
(0.0333243 -0.000706119 0)
(0.0239425 0.00330586 0)
(0.0437004 0.0113403 0)
(0.0478113 0.0111995 0)
(0.0604664 0.0100466 0)
(0.0701953 0.00534995 0)
(0.082601 0.00236073 0)
(0.0945201 0.00212787 0)
(0.106204 0.00560155 0)
(0.115243 0.0105845 0)
(0.12194 0.014625 0)
(0.126018 0.0153341 0)
(0.12915 0.010864 0)
(0.133106 0.00390927 0)
(0.137367 -0.00529861 0)
(0.144016 -0.00982166 0)
(0.150698 -0.00801264 0)
(0.157611 -0.00493804 0)
(0.16339 0.0102132 0)
(0.164879 0.013594 0)
(0.0152513 -0.00367708 0)
(0.00389736 0.00236087 0)
(0.0254814 0.00952301 0)
(0.0314596 0.00968115 0)
(0.0464671 0.00826446 0)
(0.0578248 0.00356156 0)
(0.0713836 0.000481305 0)
(0.0840407 0.000315304 0)
(0.0962824 0.00401357 0)
(0.106039 0.0093541 0)
(0.113613 0.0137551 0)
(0.118791 0.0147114 0)
(0.123099 0.0102632 0)
(0.127887 0.00324886 0)
(0.132708 -0.00613914 0)
(0.139251 -0.0107853 0)
(0.145651 -0.00903138 0)
(0.152521 -0.0058596 0)
(0.157879 0.00968239 0)
(0.160244 0.0134062 0)
(0.00266691 -0.00382872 0)
(-0.0108124 0.00159348 0)
(0.0117034 0.00746797 0)
(0.0191371 0.00791953 0)
(0.0360014 0.00622077 0)
(0.0486119 0.0016084 0)
(0.0629243 -0.00150578 0)
(0.0759605 -0.00156378 0)
(0.0884432 0.00235228 0)
(0.0986922 0.00802013 0)
(0.106995 0.0127433 0)
(0.113203 0.0139239 0)
(0.118624 0.00951518 0)
(0.124161 0.00249043 0)
(0.129447 -0.00699998 0)
(0.135729 -0.0117138 0)
(0.141721 -0.0100059 0)
(0.148376 -0.00673943 0)
(0.153228 0.00911717 0)
(0.156436 0.0131681 0)
(-0.00507157 -0.00228967 0)
(-0.0203236 0.000875412 0)
(0.00263278 0.00525121 0)
(0.0111332 0.00594797 0)
(0.0293429 0.00397934 0)
(0.0427978 -0.000467458 0)
(0.0574507 -0.00354987 0)
(0.0705002 -0.00346567 0)
(0.0829024 0.00065478 0)
(0.0934013 0.00660968 0)
(0.102264 0.0116096 0)
(0.109392 0.0129846 0)
(0.115828 0.00863613 0)
(0.122001 0.00164999 0)
(0.127643 -0.00786511 0)
(0.133514 -0.0125853 0)
(0.13898 -0.0109232 0)
(0.145255 -0.00755804 0)
(0.149526 0.00853026 0)
(0.153521 0.0128698 0)
(-0.00846589 0.000146648 0)
(-0.0247084 0.000184648 0)
(-0.00155694 0.00295567 0)
(0.00761534 0.00383774 0)
(0.0266514 0.00161061 0)
(0.0405277 -0.00260198 0)
(0.0551091 -0.00559161 0)
(0.067813 -0.00533843 0)
(0.0798183 -0.00103499 0)
(0.0903156 0.00515477 0)
(0.0995475 0.0103768 0)
(0.107451 0.011912 0)
(0.11477 0.00764421 0)
(0.121442 0.000745089 0)
(0.127322 -0.00871448 0)
(0.132645 -0.0133808 0)
(0.137479 -0.0117615 0)
(0.143223 -0.00829838 0)
(0.146843 0.00793117 0)
(0.151551 0.0125169 0)
(-0.00772021 0.00280612 0)
(-0.0239921 -0.00048944 0)
(-0.000798956 0.000617836 0)
(0.00864173 0.00165319 0)
(0.0279758 -0.00081529 0)
(0.0418486 -0.00473043 0)
(0.0559601 -0.00757388 0)
(0.067979 -0.00713203 0)
(0.0792859 -0.00267461 0)
(0.0895271 0.00368919 0)
(0.0989224 0.0090714 0)
(0.107424 0.010729 0)
(0.115466 0.00656088 0)
(0.122483 -0.000204979 0)
(0.128479 -0.00952903 0)
(0.133133 -0.0140835 0)
(0.137246 -0.0125014 0)
(0.142323 -0.00894527 0)
(0.145233 0.00733015 0)
(0.150563 0.0121177 0)
(-0.00268139 0.00502425 0)
(-0.0181513 -0.00117866 0)
(0.00487752 -0.00172657 0)
(0.014168 -0.000546846 0)
(0.0332577 -0.00322655 0)
(0.0467095 -0.0067923 0)
(0.0599749 -0.00944377 0)
(0.0709995 -0.00880047 0)
(0.0813316 -0.00422508 0)
(0.0910683 0.00224743 0)
(0.100411 0.00772324 0)
(0.109309 0.00946245 0)
(0.117892 0.00541082 0)
(0.125086 -0.00117839 0)
(0.131078 -0.0102917 0)
(0.134964 -0.0146793 0)
(0.138284 -0.0131277 0)
(0.142583 -0.0094854 0)
(0.144731 0.00673839 0)
(0.150576 0.0116801 0)
(0.00716541 0.00613737 0)
(-0.00711541 -0.00185774 0)
(0.0153494 -0.00401131 0)
(0.0240519 -0.00268392 0)
(0.0423352 -0.00554844 0)
(0.0549616 -0.00872788 0)
(0.0670341 -0.0111528 0)
(0.0767945 -0.0103022 0)
(0.0859106 -0.00564802 0)
(0.0949097 0.000864013 0)
(0.103984 0.00636572 0)
(0.113056 0.00814331 0)
(0.121983 0.00422189 0)
(0.129178 -0.00215319 0)
(0.135052 -0.0109876 0)
(0.138093 -0.0151567 0)
(0.140571 -0.0136301 0)
(0.144003 -0.0099076 0)
(0.145353 0.0061672 0)
(0.151592 0.0112126 0)
(0.0226136 0.00530844 0)
(0.00922772 -0.00249286 0)
(0.0303972 -0.00611712 0)
(0.0380515 -0.00466364 0)
(0.054945 -0.00770748 0)
(0.0663616 -0.0104819 0)
(0.0769286 -0.0126575 0)
(0.085202 -0.0116022 0)
(0.0929057 -0.00690986 0)
(0.100961 -0.000427619 0)
(0.10956 0.00503335 0)
(0.118574 0.00680473 0)
(0.127638 0.00302488 0)
(0.134658 -0.00310792 0)
(0.140304 -0.0116038 0)
(0.14245 -0.0155074 0)
(0.144057 -0.0140009 0)
(0.146566 -0.0102036 0)
(0.147091 0.0056284 0)
(0.153596 0.0107243 0)
(0.0445157 0.000438625 0)
(0.0310354 -0.00309378 0)
(0.0497078 -0.00800567 0)
(0.0558214 -0.00647637 0)
(0.070727 -0.00964512 0)
(0.0805776 -0.0120266 0)
(0.0893657 -0.0139222 0)
(0.0959818 -0.0126767 0)
(0.102129 -0.00798818 0)
(0.10907 -0.00160229 0)
(0.117007 0.00374881 0)
(0.125734 0.0054733 0)
(0.134729 0.00184275 0)
(0.141396 -0.00402235 0)
(0.146714 -0.0121265 0)
(0.147935 -0.0157297 0)
(0.148665 -0.014224 0)
(0.150226 -0.0103707 0)
(0.149921 0.00513733 0)
(0.156559 0.0102251 0)
(0.107258 -0.0086761 0)
(0.0908596 -0.00666612 0)
(0.100024 -0.0121615 0)
(0.101712 -0.0104006 0)