/*--------------------------------*- C++ -*----------------------------------*\
| =========                 |                                                 |
| \\      /  F ield         | OpenFOAM: The Open Source CFD Toolbox           |
|  \\    /   O peration     | Version:  v1806                                 |
|   \\  /    A nd           | Web:      www.OpenFOAM.com                      |
|    \\/     M anipulation  |                                                 |
\*---------------------------------------------------------------------------*/
FoamFile
{
    version     2.0;
    format      ascii;
    class       volVectorField;
    location    "70";
    object      U;
}
// * * * * * * * * * * * * * * * * * * * * * * * * * * * * * * * * * * * * * //

dimensions      [0 1 -1 0 0 0 0];


internalField   nonuniform List<vector> 
4400
(
(0.235523 0.247929 0)
(0.28403 0.180412 0)
(0.298918 0.136618 0)
(0.306753 0.107541 0)
(0.311798 0.0889311 0)
(0.314531 0.0773554 0)
(0.315604 0.0697528 0)
(0.315742 0.0642432 0)
(0.315354 0.0599627 0)
(0.314635 0.0565055 0)
(0.313691 0.0536517 0)
(0.31259 0.0512675 0)
(0.311379 0.0492645 0)
(0.310091 0.0475807 0)
(0.308751 0.0461713 0)
(0.307375 0.0450031 0)
(0.305973 0.0440517 0)
(0.304554 0.0433014 0)
(0.303141 0.0427328 0)
(0.301893 0.0422835 0)
(0.246203 0.132744 0)
(0.271509 0.0986413 0)
(0.287214 0.0887799 0)
(0.299078 0.083372 0)
(0.305608 0.0774766 0)
(0.308979 0.0715496 0)
(0.310843 0.0661786 0)
(0.311799 0.0615683 0)
(0.312106 0.0576955 0)
(0.311942 0.054458 0)
(0.311441 0.0517454 0)
(0.3107 0.0494633 0)
(0.309788 0.0475388 0)
(0.308756 0.0459174 0)
(0.307639 0.0445587 0)
(0.306461 0.043433 0)
(0.30524 0.0425184 0)
(0.303988 0.0418007 0)
(0.302733 0.0412603 0)
(0.301622 0.040848 0)
(0.224729 0.0998931 0)
(0.25573 0.100192 0)
(0.276942 0.0941222 0)
(0.289981 0.0846656 0)
(0.298072 0.0755619 0)
(0.30321 0.0682924 0)
(0.30638 0.0627503 0)
(0.308214 0.0584168 0)
(0.309146 0.0548972 0)
(0.309461 0.0519629 0)
(0.309345 0.0494824 0)
(0.308923 0.0473732 0)
(0.308283 0.0455781 0)
(0.307487 0.0440555 0)
(0.306579 0.0427741 0)
(0.30559 0.0417102 0)
(0.304542 0.0408462 0)
(0.303454 0.0401701 0)
(0.302353 0.0396652 0)
(0.301373 0.0392905 0)
(0.24224 0.0679473 0)
(0.262598 0.0700232 0)
(0.276551 0.0685531 0)
(0.287022 0.066399 0)
(0.294596 0.0637689 0)
(0.299752 0.0607209 0)
(0.303154 0.0575219 0)
(0.305327 0.0544414 0)
(0.30662 0.0516287 0)
(0.307273 0.0491322 0)
(0.307457 0.0469481 0)
(0.3073 0.0450524 0)
(0.306894 0.0434176 0)
(0.306307 0.0420182 0)
(0.305589 0.0408331 0)
(0.304775 0.0398454 0)
(0.303891 0.0390424 0)
(0.302957 0.0384152 0)
(0.302004 0.0379496 0)
(0.301151 0.0376135 0)
(0.245237 0.0514813 0)
(0.260573 0.0592217 0)
(0.273944 0.0620714 0)
(0.284221 0.061451 0)
(0.291637 0.0590335 0)
(0.296877 0.056073 0)
(0.30051 0.0531847 0)
(0.302947 0.050549 0)
(0.304497 0.0481832 0)
(0.305392 0.04607 0)
(0.305802 0.0441917 0)
(0.305854 0.0425333 0)
(0.305641 0.0410816 0)
(0.305233 0.0398242 0)
(0.304682 0.0387502 0)
(0.304025 0.03785 0)
(0.303291 0.0371161 0)
(0.302501 0.0365432 0)
(0.301686 0.0361204 0)
(0.300953 0.0358224 0)
(0.256953 0.0392603 0)
(0.267656 0.0459192 0)
(0.276924 0.0492175 0)
(0.284591 0.0503518 0)
(0.290711 0.0502082 0)
(0.295375 0.049263 0)
(0.298792 0.0478387 0)
(0.301202 0.0461848 0)
(0.302826 0.0444764 0)
(0.303843 0.0428203 0)
(0.304397 0.0412743 0)
(0.304599 0.0398662 0)
(0.304536 0.0386073 0)
(0.304275 0.0375007 0)
(0.303867 0.0365454 0)
(0.303348 0.035739 0)
(0.302748 0.035079 0)
(0.302089 0.0345634 0)
(0.301401 0.0341847 0)
(0.30078 0.033924 0)
(0.263082 0.0309712 0)
(0.270598 0.0379327 0)
(0.278134 0.042231 0)
(0.284793 0.0442942 0)
(0.290224 0.0447862 0)
(0.294445 0.044317 0)
(0.297616 0.0433361 0)
(0.299924 0.0421187 0)
(0.301537 0.0408167 0)
(0.302599 0.0395145 0)
(0.303233 0.0382628 0)
(0.303535 0.0370932 0)
(0.303582 0.0360255 0)
(0.303437 0.0350714 0)
(0.303146 0.0342376 0)
(0.302745 0.0335276 0)
(0.302263 0.0329435 0)
(0.301722 0.0324865 0)
(0.30115 0.0321522 0)
(0.300629 0.0319269 0)
(0.270598 0.0250133 0)
(0.276026 0.0308348 0)
(0.281472 0.0348326 0)
(0.286442 0.0372237 0)
(0.290726 0.0384232 0)
(0.294245 0.0387741 0)
(0.297009 0.0385386 0)
(0.299096 0.037925 0)
(0.300606 0.0370928 0)
(0.301643 0.0361559 0)
(0.302299 0.0351917 0)
(0.302655 0.0342511 0)
(0.302777 0.0333672 0)
(0.302718 0.0325612 0)
(0.30252 0.0318465 0)
(0.302218 0.0312318 0)
(0.301838 0.0307229 0)
(0.3014 0.0303238 0)
(0.300931 0.0300327 0)
(0.300501 0.0298407 0)
(0.275775 0.0203493 0)
(0.279648 0.0256575 0)
(0.283832 0.0295669 0)
(0.287849 0.0321382 0)
(0.291405 0.0336128 0)
(0.29438 0.0342653 0)
(0.296764 0.0343435 0)
(0.298603 0.0340441 0)
(0.299967 0.0335107 0)
(0.300932 0.0328444 0)
(0.30157 0.0321162 0)
(0.301944 0.0313761 0)
(0.30211 0.0306597 0)
(0.302111 0.0299919 0)
(0.301986 0.0293902 0)
(0.301765 0.0288667 0)
(0.30147 0.0284302 0)
(0.301122 0.0280868 0)
(0.300743 0.0278369 0)
(0.300393 0.0276754 0)
(0.280843 0.0168882 0)
(0.283667 0.0213347 0)
(0.286736 0.0248036 0)
(0.289738 0.0272759 0)
(0.29248 0.028891 0)
(0.294855 0.0298195 0)
(0.296822 0.0302215 0)
(0.298382 0.0302383 0)
(0.299569 0.0299893 0)
(0.300432 0.0295696 0)
(0.301021 0.0290521 0)
(0.301386 0.0284907 0)
(0.301569 0.0279248 0)
(0.30161 0.0273829 0)
(0.301538 0.0268853 0)
(0.30138 0.0264469 0)
(0.301156 0.0260782 0)
(0.300884 0.0257869 0)
(0.300583 0.0255754 0)
(0.300303 0.0254414 0)
(0.284728 0.013966 0)
(0.286772 0.0178607 0)
(0.289069 0.0209922 0)
(0.291389 0.0233305 0)
(0.293555 0.0249507 0)
(0.295462 0.0259694 0)
(0.297065 0.026513 0)
(0.298357 0.0266997 0)
(0.299359 0.0266304 0)
(0.300102 0.0263867 0)
(0.300622 0.026033 0)
(0.300958 0.0256188 0)
(0.301141 0.0251818 0)
(0.301203 0.0247505 0)
(0.301168 0.0243463 0)
(0.301059 0.0239849 0)
(0.300893 0.0236783 0)
(0.300684 0.0234349 0)
(0.30045 0.0232585 0)
(0.300229 0.0231487 0)
(0.288236 0.0116763 0)
(0.289713 0.0149365 0)
(0.291384 0.0176474 0)
(0.293092 0.0197565 0)
(0.294717 0.0212997 0)
(0.29618 0.0223498 0)
(0.297437 0.0229916 0)
(0.298471 0.0233101 0)
(0.299288 0.0233842 0)
(0.299905 0.0232827 0)
(0.300346 0.023063 0)
(0.300639 0.0227711 0)
(0.300809 0.0224433 0)
(0.300879 0.0221075 0)
(0.300868 0.0217851 0)
(0.300796 0.0214922 0)
(0.300675 0.0212412 0)
(0.300518 0.0210408 0)
(0.300339 0.0208958 0)
(0.300169 0.0208072 0)
(0.291039 0.00965918 0)
(0.292094 0.0124435 0)
(0.293307 0.0147946 0)
(0.294571 0.016671 0)
(0.29579 0.0180897 0)
(0.296902 0.0190974 0)
(0.297868 0.0197559 0)
(0.298672 0.0201312 0)
(0.299315 0.0202867 0)
(0.299808 0.0202791 0)
(0.300167 0.0201566 0)
(0.300411 0.0199595 0)
(0.300558 0.01972 0)
(0.300625 0.019464 0)
(0.300629 0.0192116 0)
(0.300583 0.0189783 0)
(0.300497 0.018776 0)
(0.300383 0.0186136 0)
(0.30025 0.0184962 0)
(0.300122 0.0184259 0)
(0.293459 0.00798353 0)
(0.294193 0.010281 0)
(0.295043 0.0122609 0)
(0.295934 0.0138783 0)
(0.296805 0.0151367 0)
(0.29761 0.0160646 0)
(0.29832 0.0167036 0)
(0.298919 0.0171012 0)
(0.299404 0.0173056 0)
(0.299781 0.0173621 0)
(0.30006 0.017311 0)
(0.300252 0.0171867 0)
(0.300372 0.0170176 0)
(0.300431 0.016827 0)
(0.300442 0.0166333 0)
(0.300413 0.0164508 0)
(0.300355 0.0162907 0)
(0.300274 0.0161614 0)
(0.300178 0.0160679 0)
(0.300085 0.0160131 0)
(0.295395 0.00646185 0)
(0.295891 0.00835576 0)
(0.29647 0.0100018 0)
(0.297084 0.0113662 0)
(0.29769 0.012448 0)
(0.298253 0.0132649 0)
(0.298754 0.0138461 0)
(0.29918 0.0142267 0)
(0.299528 0.014444 0)
(0.299801 0.0145335 0)
(0.300005 0.0145279 0)
(0.300148 0.0144553 0)
(0.300238 0.0143399 0)
(0.300286 0.0142014 0)
(0.300297 0.0140559 0)
(0.300281 0.0139161 0)
(0.300242 0.0137919 0)
(0.300187 0.0136909 0)
(0.300121 0.013618 0)
(0.300056 0.0135761 0)
(0.296986 0.00512564 0)
(0.297301 0.0066228 0)
(0.29767 0.0079408 0)
(0.298063 0.00904812 0)
(0.298453 0.00994022 0)
(0.29882 0.0106273 0)
(0.299148 0.0111289 0)
(0.29943 0.0114699 0)
(0.299662 0.0116776 0)
(0.299845 0.0117792 0)
(0.299984 0.0118001 0)
(0.300082 0.0117629 0)
(0.300145 0.0116873 0)
(0.300179 0.0115895 0)
(0.300189 0.0114831 0)
(0.30018 0.0113787 0)
(0.300156 0.0112849 0)
(0.300121 0.0112081 0)
(0.300078 0.0111528 0)
(0.300035 0.0111216 0)
(0.298205 0.00387599 0)
(0.298389 0.00502094 0)
(0.298605 0.00603345 0)
(0.298837 0.00689058 0)
(0.299067 0.00758824 0)
(0.299285 0.00813254 0)
(0.29948 0.00853652 0)
(0.299648 0.00881773 0)
(0.299788 0.00899589 0)
(0.299899 0.009091 0)
(0.299982 0.00912209 0)
(0.300042 0.00910635 0)
(0.300081 0.00905882 0)
(0.300103 0.00899225 0)
(0.30011 0.00891721 0)
(0.300105 0.00884224 0)
(0.300091 0.00877409 0)
(0.300071 0.00871794 0)
(0.300046 0.00867757 0)
(0.30002 0.00865534 0)
(0.299112 0.00272167 0)
(0.2992 0.00352285 0)
(0.299306 0.00423673 0)
(0.299419 0.00484513 0)
(0.299533 0.00534427 0)
(0.29964 0.00573749 0)
(0.299737 0.00603293 0)
(0.299821 0.00624202 0)
(0.299891 0.00637791 0)
(0.299947 0.00645423 0)
(0.299989 0.00648414 0)
(0.300019 0.00647971 0)
(0.300039 0.0064516 0)
(0.30005 0.00640894 0)
(0.300054 0.00635933 0)
(0.300052 0.00630897 0)
(0.300045 0.00626276 0)
(0.300035 0.0062245 0)
(0.300022 0.00619705 0)
(0.300009 0.00618227 0)
(0.299696 0.00160928 0)
(0.299725 0.00208836 0)
(0.29976 0.00251451 0)
(0.299799 0.00287841 0)
(0.299839 0.00317817 0)
(0.299876 0.00341554 0)
(0.299909 0.00359503 0)
(0.299938 0.00372318 0)
(0.299962 0.00380759 0)
(0.299981 0.00385622 0)
(0.299996 0.00387683 0)
(0.300006 0.00387655 0)
(0.300013 0.00386176 0)
(0.300017 0.0038379 0)
(0.300018 0.00380957 0)
(0.300018 0.0037805 0)
(0.300015 0.00375365 0)
(0.300012 0.00373135 0)
(0.300008 0.00371539 0)
(0.300003 0.00370696 0)
(0.299986 0.000541168 0)
(0.299987 0.000694187 0)
(0.299988 0.000834443 0)
(0.29999 0.000955068 0)
(0.299992 0.00105474 0)
(0.299994 0.00113388 0)
(0.299995 0.0011939 0)
(0.299997 0.0012369 0)
(0.299998 0.00126537 0)
(0.299999 0.00128191 0)
(0.3 0.00128908 0)
(0.3 0.00128926 0)
(0.300001 0.00128455 0)
(0.300001 0.00127678 0)
(0.300001 0.00126748 0)
(0.300001 0.0012579 0)
(0.300001 0.00124904 0)
(0.300001 0.00124167 0)
(0.3 0.0012364 0)
(0.3 0.00123364 0)
(0.0993208 -0.164907 0)
(0.078924 -0.140213 0)
(0.0665725 -0.117285 0)
(0.05793 -0.0967867 0)
(0.0514634 -0.0781377 0)
(0.046528 -0.0608644 0)
(0.0427997 -0.0446462 0)
(0.0400917 -0.0292191 0)
(0.0382888 -0.0143459 0)
(0.037321 0.000191431 0)
(0.0371522 0.0145987 0)
(0.0377763 0.0290768 0)
(0.0392164 0.0438289 0)
(0.0415298 0.0590682 0)
(0.0448182 0.0750249 0)
(0.0492547 0.0919546 0)
(0.0551488 0.110176 0)
(0.0631268 0.130192 0)
(0.0746744 0.152628 0)
(0.0940232 0.176439 0)
(0.172439 -0.101491 0)
(0.158485 -0.092154 0)
(0.146334 -0.0814538 0)
(0.136148 -0.07003 0)
(0.127817 -0.0581478 0)
(0.121171 -0.0459425 0)
(0.116043 -0.0335094 0)
(0.112291 -0.0209176 0)
(0.109809 -0.00821572 0)
(0.108522 0.00456164 0)
(0.108393 0.0173878 0)
(0.109416 0.0302397 0)
(0.111619 0.0430936 0)
(0.115069 0.0559214 0)
(0.119879 0.068683 0)
(0.126221 0.0813127 0)
(0.134346 0.0937209 0)
(0.144629 0.105901 0)
(0.157648 0.117981 0)
(0.174296 0.128475 0)
(0.190603 -0.0648401 0)
(0.185493 -0.05931 0)
(0.1809 -0.0528923 0)
(0.176832 -0.0457392 0)
(0.173307 -0.0380009 0)
(0.170351 -0.0298047 0)
(0.167991 -0.0212562 0)
(0.166248 -0.0124442 0)
(0.165141 -0.00344458 0)
(0.164682 0.00567607 0)
(0.164881 0.0148572 0)
(0.165745 0.024041 0)
(0.167277 0.0331689 0)
(0.169482 0.0421785 0)
(0.17236 0.0509986 0)
(0.175914 0.0595433 0)
(0.180149 0.0677115 0)
(0.185088 0.0754019 0)
(0.190819 0.0824798 0)
(0.197585 0.0884186 0)
(0.218422 -0.0399771 0)
(0.214764 -0.0358125 0)
(0.211371 -0.0313203 0)
(0.208318 -0.0265312 0)
(0.205658 -0.0214791 0)
(0.203431 -0.0161999 0)
(0.201662 -0.0107316 0)
(0.200371 -0.00511329 0)
(0.19957 0.000614262 0)
(0.199268 0.0064097 0)
(0.199472 0.0122309 0)
(0.200186 0.0180353 0)
(0.201413 0.0237797 0)
(0.203153 0.0294202 0)
(0.205407 0.0349118 0)
(0.208174 0.0402081 0)
(0.21145 0.0452643 0)
(0.215231 0.0500484 0)
(0.219523 0.0545195 0)
(0.224341 0.0584455 0)
(0.232015 -0.028448 0)
(0.230202 -0.0253397 0)
(0.228565 -0.0220066 0)
(0.227119 -0.018467 0)
(0.225879 -0.0147439 0)
(0.224859 -0.0108632 0)
(0.224071 -0.00685262 0)
(0.223527 -0.00274098 0)
(0.223236 0.00144223 0)
(0.223202 0.00566702 0)
(0.223431 0.00990306 0)
(0.223924 0.0141197 0)
(0.224678 0.0182858 0)
(0.22569 0.02237 0)
(0.226952 0.02634 0)
(0.228456 0.0301629 0)
(0.230191 0.0338059 0)
(0.232143 0.0372378 0)
(0.234305 0.0404262 0)
(0.236673 0.0433048 0)
(0.247356 -0.0197329 0)
(0.246076 -0.0172646 0)
(0.244908 -0.0146929 0)
(0.243869 -0.0120272 0)
(0.242975 -0.00927812 0)
(0.242238 -0.00645719 0)
(0.24167 -0.00357719 0)
(0.241278 -0.000651789 0)
(0.241071 0.00230456 0)
(0.241052 0.00527677 0)
(0.241223 0.00824933 0)
(0.241587 0.0112065 0)
(0.242141 0.0141325 0)
(0.242883 0.0170117 0)
(0.243806 0.0198288 0)
(0.244905 0.0225689 0)
(0.246171 0.0252185 0)
(0.247593 0.0277684 0)
(0.24916 0.0302092 0)
(0.25086 0.0324922 0)
(0.256643 -0.014815 0)
(0.255897 -0.0128846 0)
(0.255234 -0.0108821 0)
(0.254661 -0.00881394 0)
(0.25418 -0.00668752 0)
(0.253798 -0.00451124 0)
(0.253517 -0.00229433 0)
(0.25334 -4.66426e-05 0)
(0.25327 0.00222143 0)
(0.253309 0.00449913 0)
(0.253457 0.00677543 0)
(0.253713 0.00903918 0)
(0.254077 0.0112792 0)
(0.254547 0.0134845 0)
(0.255119 0.015644 0)
(0.255791 0.0177473 0)
(0.256557 0.0197842 0)
(0.257414 0.0217458 0)
(0.258358 0.0236244 0)
(0.259385 0.0254069 0)
(0.265959 -0.0111269 0)
(0.265433 -0.00955413 0)
(0.264964 -0.00794268 0)
(0.264555 -0.00629675 0)
(0.264212 -0.0046209 0)
(0.263937 -0.00292001 0)
(0.263735 -0.00119925 0)
(0.263608 0.000535976 0)
(0.263558 0.00228006 0)
(0.263586 0.00402725 0)
(0.263694 0.00577169 0)
(0.263879 0.00750751 0)
(0.264143 0.00922887 0)
(0.264483 0.01093 0)
(0.264898 0.0126054 0)
(0.265384 0.0142496 0)
(0.265938 0.0158575 0)
(0.266557 0.0174259 0)
(0.267235 0.0189512 0)
(0.267969 0.0204171 0)
(0.272351 -0.00869152 0)
(0.272013 -0.00742227 0)
(0.271716 -0.00612576 0)
(0.271464 -0.00480488 0)
(0.271257 -0.00346286 0)
(0.271097 -0.00210316 0)
(0.270985 -0.000729512 0)
(0.270922 0.00065419 0)
(0.270909 0.00204387 0)
(0.270946 0.00343535 0)
(0.271034 0.00482437 0)
(0.271172 0.00620667 0)
(0.271359 0.00757798 0)
(0.271595 0.00893413 0)
(0.271879 0.010271 0)
(0.272209 0.0115847 0)
(0.272584 0.0128714 0)
(0.273003 0.014128 0)
(0.273464 0.0153518 0)
(0.273966 0.0165379 0)
(0.278383 -0.0068471 0)
(0.278144 -0.00579538 0)
(0.277934 -0.00472706 0)
(0.277755 -0.00364421 0)
(0.277607 -0.00254902 0)
(0.277494 -0.00144375 0)
(0.277414 -0.000330768 0)
(0.277369 0.000787503 0)
(0.277361 0.00190858 0)
(0.277388 0.00302995 0)
(0.277451 0.00414907 0)
(0.277551 0.00526341 0)
(0.277686 0.00637046 0)
(0.277856 0.00746775 0)
(0.278061 0.00855284 0)
(0.278299 0.00962333 0)
(0.278569 0.010677 0)
(0.278869 0.0117123 0)
(0.279199 0.0127277 0)
(0.279557 0.0137161 0)
(0.282856 -0.00548623 0)
(0.282694 -0.00462209 0)
(0.282554 -0.00374611 0)
(0.282436 -0.00285976 0)
(0.282341 -0.0019646 0)
(0.282269 -0.00106228 0)
(0.282222 -0.000154508 0)
(0.282199 0.000756933 0)
(0.2822 0.00167022 0)
(0.282226 0.0025835 0)
(0.282277 0.00349491 0)
(0.282353 0.00440256 0)
(0.282452 0.00530459 0)
(0.282576 0.00619918 0)
(0.282724 0.00708452 0)
(0.282894 0.00795886 0)
(0.283088 0.00882052 0)
(0.283303 0.00966811 0)
(0.28354 0.0105005 0)
(0.283798 0.0113152 0)
(0.28691 -0.0044222 0)
(0.286796 -0.00370241 0)
(0.286697 -0.00297474 0)
(0.286615 -0.00224026 0)
(0.286548 -0.00150009 0)
(0.286498 -0.000755401 0)
(0.286464 -7.36678e-06 0)
(0.286448 0.000742799 0)
(0.28645 0.00149387 0)
(0.286468 0.00224461 0)
(0.286505 0.00299377 0)
(0.286559 0.00374011 0)
(0.28663 0.00448241 0)
(0.286718 0.00521944 0)
(0.286822 0.00595001 0)
(0.286944 0.00667291 0)
(0.287081 0.00738702 0)
(0.287233 0.00809153 0)
(0.2874 0.00878567 0)
(0.287582 0.00946614 0)
(0.290044 -0.00357408 0)
(0.289967 -0.00298152 0)
(0.2899 -0.00238326 0)
(0.289844 -0.00178009 0)
(0.2898 -0.00117283 0)
(0.289768 -0.000562329 0)
(0.289748 5.05256e-05 0)
(0.289739 0.000664843 0)
(0.289743 0.00127971 0)
(0.289759 0.00189421 0)
(0.289787 0.0025074 0)
(0.289827 0.00311838 0)
(0.28988 0.00372621 0)
(0.289944 0.00432999 0)
(0.290019 0.00492883 0)
(0.290107 0.00552184 0)
(0.290205 0.00610817 0)
(0.290315 0.00668712 0)
(0.290435 0.00725817 0)
(0.290566 0.00781992 0)
(0.292783 -0.00288026 0)
(0.29273 -0.00239217 0)
(0.292684 -0.00190007 0)
(0.292647 -0.00140456 0)
(0.292617 -0.000906231 0)
(0.292595 -0.000405725 0)
(0.292581 9.63294e-05 0)
(0.292575 0.000599286 0)
(0.292578 0.00110249 0)
(0.292589 0.0016053 0)
(0.292608 0.00210703 0)
(0.292635 0.00260705 0)
(0.292671 0.0031047 0)
(0.292715 0.00359933 0)
(0.292766 0.00409031 0)
(0.292826 0.00457698 0)
(0.292893 0.00505875 0)
(0.292968 0.00553516 0)
(0.293049 0.00600585 0)
(0.293138 0.00646912 0)
(0.294918 -0.00229361 0)
(0.294883 -0.00189994 0)
(0.294853 -0.00150335 0)
(0.294829 -0.0011043 0)
(0.29481 -0.000703224 0)
(0.294796 -0.00030059 0)
(0.294788 0.000103133 0)
(0.294785 0.000507466 0)
(0.294788 0.000911925 0)
(0.294796 0.00131602 0)
(0.29481 0.00171927 0)
(0.294829 0.00212118 0)
(0.294854 0.00252127 0)
(0.294885 0.00291906 0)
(0.29492 0.00331407 0)
(0.294961 0.00370583 0)
(0.295007 0.00409388 0)
(0.295058 0.00447786 0)
(0.295114 0.00485753 0)
(0.295175 0.00523204 0)
(0.296694 -0.00178851 0)
(0.296672 -0.00147703 0)
(0.296654 -0.00116348 0)
(0.296639 -0.000848182 0)
(0.296627 -0.000531473 0)
(0.296618 -0.000213689 0)
(0.296613 0.000104829 0)
(0.296611 0.000423731 0)
(0.296613 0.00074267 0)
(0.296618 0.00106129 0)
(0.296626 0.00137925 0)
(0.296638 0.00169618 0)
(0.296654 0.00201175 0)
(0.296672 0.0023256 0)
(0.296694 0.0026374 0)
(0.296719 0.00294678 0)
(0.296748 0.00325343 0)
(0.296779 0.0035571 0)
(0.296813 0.00385766 0)
(0.296851 0.00415415 0)
(0.298028 -0.00133869 0)
(0.298015 -0.00110367 0)
(0.298005 -0.000867197 0)
(0.297996 -0.000629507 0)
(0.29799 -0.000390832 0)
(0.297985 -0.000151414 0)
(0.297982 8.85041e-05 0)
(0.297981 0.000328674 0)
(0.297983 0.000568847 0)
(0.297986 0.000808774 0)
(0.297991 0.0010482 0)
(0.297998 0.00128688 0)
(0.298008 0.00152457 0)
(0.298019 0.00176101 0)
(0.298032 0.00199597 0)
(0.298047 0.00222919 0)
(0.298063 0.00246043 0)
(0.298082 0.00268953 0)
(0.298102 0.00291642 0)
(0.298124 0.0031405 0)
(0.299031 -0.000930285 0)
(0.299025 -0.00076543 0)
(0.29902 -0.000599618 0)
(0.299016 -0.000433004 0)
(0.299013 -0.00026575 0)
(0.299011 -9.80154e-05 0)
(0.299009 7.00341e-05 0)
(0.299009 0.000238233 0)
(0.299009 0.000406415 0)
(0.299011 0.000574412 0)
(0.299013 0.000742057 0)
(0.299016 0.000909183 0)
(0.299021 0.00107562 0)
(0.299026 0.00124121 0)
(0.299032 0.00140579 0)
(0.299039 0.00156917 0)
(0.299046 0.0017312 0)
(0.299055 0.00189178 0)
(0.299064 0.00205087 0)
(0.299074 0.00220787 0)
(0.299678 -0.000547633 0)
(0.299676 -0.000450275 0)
(0.299674 -0.000352372 0)
(0.299673 -0.000254016 0)
(0.299672 -0.000155299 0)
(0.299671 -5.63136e-05 0)
(0.29967 4.28438e-05 0)
(0.29967 0.000142077 0)
(0.29967 0.00024129 0)
(0.299671 0.000340384 0)
(0.299671 0.000439262 0)
(0.299672 0.000537827 0)
(0.299674 0.000635984 0)
(0.299675 0.000733636 0)
(0.299677 0.00083069 0)
(0.299679 0.000927046 0)
(0.299681 0.0010226 0)
(0.299683 0.0011173 0)
(0.299685 0.00121117 0)
(0.299688 0.00130411 0)
(0.299991 -0.000181285 0)
(0.29999 -0.000148776 0)
(0.29999 -0.000116084 0)
(0.29999 -8.32357e-05 0)
(0.29999 -5.02611e-05 0)
(0.29999 -1.71885e-05 0)
(0.29999 1.59532e-05 0)
(0.29999 4.91353e-05 0)
(0.29999 8.23295e-05 0)
(0.29999 0.000115508 0)
(0.29999 0.000148644 0)
(0.29999 0.000181711 0)
(0.29999 0.000214686 0)
(0.299989 0.000247547 0)
(0.299989 0.000280273 0)
(0.299989 0.000312842 0)
(0.299989 0.000345242 0)
(0.299989 0.000377537 0)
(0.299988 0.000409851 0)
(0.299988 0.000441671 0)
(0.290091 -0.100645 0)
(0.288929 -0.104318 0)
(0.287943 -0.108485 0)
(0.287215 -0.113277 0)
(0.286821 -0.118768 0)
(0.286809 -0.124996 0)
(0.287162 -0.131964 0)
(0.287775 -0.139631 0)
(0.288431 -0.147896 0)
(0.288784 -0.156591 0)
(0.288362 -0.165477 0)
(0.286582 -0.174245 0)
(0.28278 -0.182531 0)
(0.276245 -0.189918 0)
(0.266264 -0.195938 0)
(0.252149 -0.200101 0)
(0.233262 -0.202013 0)
(0.209031 -0.201503 0)
(0.178932 -0.197971 0)
(0.142447 -0.188024 0)
(0.283372 -0.074457 0)
(0.281019 -0.0751812 0)
(0.278286 -0.0759689 0)
(0.275187 -0.0767905 0)
(0.27175 -0.0777094 0)
(0.268017 -0.0788041 0)
(0.264058 -0.0801578 0)
(0.259963 -0.081856 0)
(0.255832 -0.083978 0)
(0.251762 -0.0865822 0)
(0.247816 -0.0896905 0)
(0.243995 -0.0932719 0)
(0.240205 -0.0972266 0)
(0.236239 -0.101373 0)
(0.231772 -0.10544 0)
(0.226391 -0.109068 0)
(0.219638 -0.111811 0)
(0.211057 -0.113109 0)
(0.200251 -0.112235 0)
(0.187098 -0.108421 0)
(0.27998 -0.0784251 0)
(0.278578 -0.0795087 0)
(0.277005 -0.0805265 0)
(0.275221 -0.0814774 0)
(0.273173 -0.082323 0)
(0.270795 -0.0830267 0)
(0.268022 -0.0835588 0)
(0.264792 -0.0838964 0)
(0.261054 -0.0840258 0)
(0.256777 -0.0839433 0)
(0.251956 -0.0836552 0)
(0.246619 -0.0831742 0)
(0.240823 -0.0825131 0)
(0.234659 -0.0816754 0)
(0.228234 -0.0806443 0)
(0.22167 -0.079372 0)
(0.215082 -0.0777695 0)
(0.208575 -0.0756975 0)
(0.202246 -0.0729691 0)
(0.19621 -0.0693906 0)
(0.273991 -0.0589526 0)
(0.271957 -0.0592597 0)
(0.269869 -0.0595908 0)
(0.267733 -0.059918 0)
(0.265559 -0.0602358 0)
(0.263355 -0.0605323 0)
(0.261126 -0.0607864 0)
(0.25887 -0.0609699 0)
(0.256577 -0.061048 0)
(0.254228 -0.0609804 0)
(0.251797 -0.060723 0)
(0.249249 -0.0602302 0)
(0.246549 -0.0594579 0)
(0.243662 -0.0583659 0)
(0.240564 -0.0569207 0)
(0.237242 -0.0550965 0)
(0.233704 -0.0528759 0)
(0.229983 -0.0502495 0)
(0.226136 -0.0472165 0)
(0.222248 -0.0437863 0)
(0.27632 -0.0540175 0)
(0.274841 -0.0537825 0)
(0.273235 -0.0534632 0)
(0.271501 -0.0530624 0)
(0.269638 -0.0525754 0)
(0.267646 -0.0519984 0)
(0.265528 -0.0513293 0)
(0.26329 -0.0505666 0)
(0.260943 -0.0497081 0)
(0.258503 -0.0487509 0)
(0.25599 -0.0476901 0)
(0.253425 -0.046518 0)
(0.250833 -0.045224 0)
(0.248241 -0.0437936 0)
(0.245673 -0.0422097 0)
(0.243154 -0.0404528 0)
(0.240706 -0.0385026 0)
(0.238351 -0.0363399 0)
(0.236105 -0.0339489 0)
(0.233988 -0.0313193 0)
(0.27618 -0.0436466 0)
(0.274883 -0.0433494 0)
(0.273571 -0.0430054 0)
(0.272243 -0.0426058 0)
(0.2709 -0.042142 0)
(0.269541 -0.0416046 0)
(0.268163 -0.040984 0)
(0.266767 -0.0402706 0)
(0.265348 -0.0394547 0)
(0.263906 -0.0385274 0)
(0.262439 -0.0374808 0)
(0.260946 -0.0363081 0)
(0.259428 -0.0350039 0)
(0.257889 -0.0335646 0)
(0.256334 -0.0319882 0)
(0.254772 -0.0302745 0)
(0.253215 -0.0284246 0)
(0.251678 -0.0264411 0)
(0.250176 -0.0243278 0)
(0.248729 -0.0220897 0)
(0.279052 -0.0375427 0)
(0.278016 -0.0370066 0)
(0.276941 -0.036417 0)
(0.275829 -0.0357746 0)
(0.274683 -0.0350778 0)
(0.273506 -0.034325 0)
(0.272303 -0.0335146 0)
(0.271081 -0.032645 0)
(0.269844 -0.0317141 0)
(0.268601 -0.0307196 0)
(0.267358 -0.0296588 0)
(0.266123 -0.0285287 0)
(0.264905 -0.0273263 0)
(0.263711 -0.0260485 0)
(0.262548 -0.0246922 0)
(0.261425 -0.0232549 0)
(0.260349 -0.0217345 0)
(0.259326 -0.0201298 0)
(0.258363 -0.0184407 0)
(0.257467 -0.0166683 0)
(0.281259 -0.0313728 0)
(0.280465 -0.0308588 0)
(0.279664 -0.0303015 0)
(0.278859 -0.029701 0)
(0.278049 -0.0290542 0)
(0.277235 -0.028358 0)
(0.27642 -0.0276099 0)
(0.275602 -0.0268075 0)
(0.274785 -0.0259489 0)
(0.27397 -0.0250326 0)
(0.273157 -0.0240573 0)
(0.272351 -0.0230223 0)
(0.271553 -0.0219273 0)
(0.270766 -0.0207726 0)
(0.269996 -0.0195587 0)
(0.269244 -0.0182869 0)
(0.268518 -0.0169586 0)
(0.26782 -0.0155758 0)
(0.267158 -0.0141411 0)
(0.266536 -0.012657 0)
(0.284039 -0.0265804 0)
(0.283405 -0.0260282 0)
(0.282762 -0.0254418 0)
(0.282112 -0.024822 0)
(0.281456 -0.0241678 0)
(0.280796 -0.0234785 0)
(0.280136 -0.0227536 0)
(0.279477 -0.0219925 0)
(0.278822 -0.0211948 0)
(0.278174 -0.0203599 0)
(0.277536 -0.0194873 0)
(0.276911 -0.0185766 0)
(0.276301 -0.0176277 0)
(0.275711 -0.0166404 0)
(0.275143 -0.0156146 0)
(0.2746 -0.0145509 0)
(0.274084 -0.0134496 0)
(0.273599 -0.0123117 0)
(0.273147 -0.0111383 0)
(0.27273 -0.00993094 0)
(0.286587 -0.02247 0)
(0.286117 -0.0219619 0)
(0.285647 -0.0214248 0)
(0.285177 -0.0208607 0)
(0.284708 -0.0202683 0)
(0.284241 -0.0196469 0)
(0.283778 -0.018996 0)
(0.283318 -0.018315 0)
(0.282864 -0.0176039 0)
(0.282416 -0.0168624 0)
(0.281977 -0.0160907 0)
(0.281547 -0.0152891 0)
(0.281128 -0.0144578 0)
(0.280721 -0.0135975 0)
(0.280329 -0.012709 0)
(0.279953 -0.0117931 0)
(0.279595 -0.010851 0)
(0.279257 -0.00988383 0)
(0.278941 -0.00889308 0)
(0.278649 -0.00788028 0)
(0.289019 -0.0189603 0)
(0.288653 -0.0184827 0)
(0.288287 -0.0179835 0)
(0.287921 -0.0174637 0)
(0.287557 -0.0169229 0)
(0.287195 -0.0163608 0)
(0.286836 -0.0157773 0)
(0.286482 -0.0151726 0)
(0.286133 -0.0145465 0)
(0.285792 -0.0138993 0)
(0.285459 -0.0132311 0)
(0.285135 -0.0125421 0)
(0.284822 -0.0118325 0)
(0.284522 -0.0111029 0)
(0.284234 -0.0103537 0)
(0.283962 -0.00958535 0)
(0.283705 -0.0087987 0)
(0.283465 -0.00799448 0)
(0.283242 -0.00717363 0)
(0.283039 -0.00633716 0)
(0.291245 -0.0160036 0)
(0.29098 -0.0155784 0)
(0.290717 -0.0151352 0)
(0.290455 -0.0146755 0)
(0.290196 -0.0141991 0)
(0.289939 -0.0137057 0)
(0.289686 -0.0131952 0)
(0.289438 -0.0126678 0)
(0.289194 -0.0121236 0)
(0.288955 -0.0115627 0)
(0.288723 -0.0109855 0)
(0.288498 -0.0103923 0)
(0.28828 -0.00978348 0)
(0.288071 -0.00915949 0)
(0.287871 -0.00852091 0)
(0.287681 -0.00786835 0)
(0.287502 -0.0072025 0)
(0.287335 -0.00652412 0)
(0.28718 -0.00583401 0)
(0.287038 -0.00513306 0)
(0.293204 -0.0133775 0)
(0.293006 -0.0130011 0)
(0.29281 -0.0126114 0)
(0.292615 -0.0122091 0)
(0.292422 -0.011794 0)
(0.292232 -0.0113663 0)
(0.292044 -0.0109258 0)
(0.29186 -0.0104729 0)
(0.291681 -0.0100075 0)
(0.291506 -0.00953008 0)
(0.291336 -0.00904071 0)
(0.291172 -0.0085397 0)
(0.291014 -0.00802737 0)
(0.290863 -0.00750409 0)
(0.29072 -0.00697026 0)
(0.290585 -0.00642633 0)
(0.290458 -0.00587279 0)
(0.29034 -0.00531019 0)
(0.290231 -0.00473911 0)
(0.290133 -0.00416018 0)
(0.294937 -0.0111088 0)
(0.2948 -0.0107857 0)
(0.294664 -0.0104518 0)
(0.29453 -0.010108 0)
(0.294398 -0.00975422 0)
(0.294267 -0.00939044 0)
(0.29414 -0.00901676 0)
(0.294014 -0.00863332 0)
(0.293892 -0.00824028 0)
(0.293773 -0.00783786 0)
(0.293658 -0.00742627 0)
(0.293547 -0.00700579 0)
(0.29344 -0.0065767 0)
(0.293338 -0.00613935 0)
(0.293241 -0.00569408 0)
(0.293149 -0.00524129 0)
(0.293063 -0.0047814 0)
(0.292983 -0.00431486 0)
(0.292909 -0.00384215 0)
(0.292843 -0.00336377 0)
(0.296391 -0.00903993 0)
(0.296296 -0.00876838 0)
(0.296202 -0.00848872 0)
(0.296109 -0.00820161 0)
(0.296017 -0.00790697 0)
(0.295927 -0.0076048 0)
(0.295839 -0.00729523 0)
(0.295752 -0.00697838 0)
(0.295668 -0.00665442 0)
(0.295586 -0.0063235 0)
(0.295508 -0.00598583 0)
(0.295432 -0.0056416 0)
(0.295359 -0.00529105 0)
(0.295289 -0.00493443 0)
(0.295224 -0.00457202 0)
(0.295162 -0.0042041 0)
(0.295104 -0.00383099 0)
(0.295051 -0.00345302 0)
(0.295002 -0.00307055 0)
(0.294957 -0.00268395 0)
(0.297611 -0.00718506 0)
(0.297551 -0.00696493 0)
(0.297492 -0.00673842 0)
(0.297434 -0.00650627 0)
(0.297377 -0.00626843 0)
(0.29732 -0.00602486 0)
(0.297266 -0.00577568 0)
(0.297212 -0.005521 0)
(0.29716 -0.00526095 0)
(0.297109 -0.00499568 0)
(0.29706 -0.00472533 0)
(0.297013 -0.00445009 0)
(0.296968 -0.00417015 0)
(0.296925 -0.0038857 0)
(0.296884 -0.00359696 0)
(0.296846 -0.00330417 0)
(0.29681 -0.00300757 0)
(0.296777 -0.00270743 0)
(0.296746 -0.00240401 0)
(0.296719 -0.00209761 0)
(0.298567 -0.00544836 0)
(0.298531 -0.00527838 0)
(0.298496 -0.00510383 0)
(0.298462 -0.00492524 0)
(0.298428 -0.00474254 0)
(0.298395 -0.00455574 0)
(0.298362 -0.0043649 0)
(0.29833 -0.00417013 0)
(0.2983 -0.00397153 0)
(0.29827 -0.00376921 0)
(0.298241 -0.00356328 0)
(0.298213 -0.00335388 0)
(0.298187 -0.00314113 0)
(0.298161 -0.00292519 0)
(0.298138 -0.00270622 0)
(0.298115 -0.00248438 0)
(0.298094 -0.00225985 0)
(0.298075 -0.00203282 0)
(0.298058 -0.00180348 0)
(0.298042 -0.00157203 0)
(0.299287 -0.00382826 0)
(0.29927 -0.00370777 0)
(0.299254 -0.00358397 0)
(0.299237 -0.0034574 0)
(0.299221 -0.00332801 0)
(0.299206 -0.0031958 0)
(0.29919 -0.00306082 0)
(0.299175 -0.00292315 0)
(0.299161 -0.00278287 0)
(0.299146 -0.00264004 0)
(0.299133 -0.00249476 0)
(0.29912 -0.00234712 0)
(0.299107 -0.00219721 0)
(0.299095 -0.00204515 0)
(0.299084 -0.00189103 0)
(0.299073 -0.00173498 0)
(0.299063 -0.00157713 0)
(0.299054 -0.00141759 0)
(0.299046 -0.00125651 0)
(0.299038 -0.00109403 0)
(0.29976 -0.00226561 0)
(0.299755 -0.00219365 0)
(0.29975 -0.00211993 0)
(0.299745 -0.00204463 0)
(0.29974 -0.0019677 0)
(0.299735 -0.00188911 0)
(0.29973 -0.00180893 0)
(0.299725 -0.00172719 0)
(0.29972 -0.00164394 0)
(0.299716 -0.00155923 0)
(0.299711 -0.0014731 0)
(0.299707 -0.0013856 0)
(0.299703 -0.00129681 0)
(0.299699 -0.00120678 0)
(0.299695 -0.00111556 0)
(0.299691 -0.00102324 0)
(0.299688 -0.000929885 0)
(0.299685 -0.000835566 0)
(0.299682 -0.000740363 0)
(0.29968 -0.000644358 0)
(0.29999 -0.000758707 0)
(0.299991 -0.000734097 0)
(0.299991 -0.000708728 0)
(0.299991 -0.000683055 0)
(0.299991 -0.000656974 0)
(0.299991 -0.000630418 0)
(0.299991 -0.000603384 0)
(0.299991 -0.000575879 0)
(0.299991 -0.000547911 0)
(0.299991 -0.000519487 0)
(0.299991 -0.000490618 0)
(0.299991 -0.000461318 0)
(0.299991 -0.000431602 0)
(0.299991 -0.000401487 0)
(0.299991 -0.000370992 0)
(0.299991 -0.000340138 0)
(0.299991 -0.000308946 0)
(0.299991 -0.00027744 0)
(0.299991 -0.000245645 0)
(0.299991 -0.000213584 0)
(0.0557497 -0.0601346 0)
(0.0408183 -0.0479387 0)
(0.030589 -0.0374151 0)
(0.0232148 -0.0291102 0)
(0.0176981 -0.0224493 0)
(0.013465 -0.0170331 0)
(0.0101591 -0.012644 0)
(0.00754493 -0.00912214 0)
(0.00546049 -0.00633148 0)
(0.00379037 -0.00415748 0)
(0.00245053 -0.00250418 0)
(0.00137904 -0.0012899 0)
(0.000530575 -0.000443736 0)
(-0.000126846 9.73514e-05 0)
(-0.000613571 0.00039181 0)
(-0.000938624 0.000495246 0)
(-0.00109962 0.000455803 0)
(-0.00108393 0.000321599 0)
(-0.000864763 0.00015569 0)
(-0.000395547 3.69052e-05 0)
(0.0860558 -0.0511684 0)
(0.0727637 -0.0459527 0)
(0.0614258 -0.0403176 0)
(0.0517123 -0.0349194 0)
(0.0433505 -0.0298735 0)
(0.0361313 -0.0252247 0)