x,y,z,p
0,0,0,0.000377197
0,0.1,0,0.000830489
0,0.2,0,0.00128378
0,0.3,0,0.00181375
0,0.4,0,0.00242041
0,0.5,0,0.00302706
0,0.6,0,0.00363845
0,0.7,0,0.00424984
0,0.8,0,0.00486461
0,0.9,0,0.00548276
0,1,0,0.00610092
0,1.1,0,0.0067276
0,1.2,0,0.00735428
0,1.3,0,0.00798592
0,1.4,0,0.00862253
0,1.5,0,0.00925914
0,1.6,0,0.00990671
0,1.7,0,0.0105543
0,1.8,0,0.0112075
0,1.9,0,0.0118665
0,2,0,0.0125255
0,2.1,0,0.0131958
0,2.2,0,0.0138661
0,2.3,0,0.0145416
0,2.4,0,0.0152224
0,2.5,0,0.0159031
0,2.6,0,0.0165927
0,2.7,0,0.0172824
0,2.8,0,0.0179751
0,2.9,0,0.0186709
0,3,0,0.0193668
0,3.1,0,0.0200652
0,3.2,0,0.0207636
0,3.3,0,0.021461
0,3.4,0,0.0221573
0,3.5,0,0.0228536
0,3.6,0,0.0235419
0,3.7,0,0.0242301
0,3.8,0,0.0249108
0,3.9,0,0.025584
0,4,0,0.0262572
0,4.1,0,0.0269073
0,4.2,0,0.0275573
0,4.3,0,0.0281913
0,4.4,0,0.0288093
0,4.5,0,0.0294273
0,4.6,0,0.0300037
0,4.7,0,0.03058
0,4.8,0,0.0311421
0,4.9,0,0.03169
0,5,0,0.0322378
0,5.1,0,0.0326747
0,5.2,0,0.0331116
0,5.3,0,0.0335484
0,5.4,0,0.0339175
0,5.5,0,0.0342866
0,5.6,0,0.0346556
0,5.7,0,0.034926
0,5.8,0,0.0351963
0,5.9,0,0.0354667
0,6,0,0.0356292
0,6.1,0,0.0357917
0,6.2,0,0.0359543
0,6.3,0,0.0360032
0,6.4,0,0.0360522
0,6.5,0,0.0361011
0,6.6,0,0.0360345
0,6.7,0,0.0359679
0,6.8,0,0.0359012
0,6.9,0,0.0357209
0,7,0,0.0355405
0,7.1,0,0.0353602
0,7.2,0,0.0350717
0,7.3,0,0.0347832
0,7.4,0,0.0344947
0,7.5,0,0.034107
0,7.6,0,0.0337192
0,7.7,0,0.0333315
0,7.8,0,0.0328822
0,7.9,0,0.0324328
0,8,0,0.0319835
0,8.1,0,0.0314069
0,8.2,0,0.0308304
0,8.3,0,0.0302431
0,8.4,0,0.02965
0,8.5,0,0.0290447
0,8.6,0,0.0284105
0,8.7,0,0.0277764
0,8.8,0,0.0271113
0,8.9,0,0.0264445
0,9,0,0.0257629
0,9.1,0,0.0250715
0,9.2,0,0.0243757
0,9.3,0,0.0236668
0,9.4,0,0.0229579
0,9.5,0,0.0222391
0,9.6,0,0.0215192
0,9.7,0,0.0207962
0,9.8,0,0.0200708
0,9.9,0,0.0193452
0,10,0,0.0186188
0,10.1,0,0.0178925
0,10.2,0,0.0171684
0,10.3,0,0.0164447
0,10.4,0,0.0157236
0,10.5,0,0.0150053
0,10.6,0,0.014288
0,10.7,0,0.0135769
0,10.8,0,0.0128657
0,10.9,0,0.0121613
0,11,0,0.0114585
0,11.1,0,0.0107596
0,11.2,0,0.0100656
0,11.3,0,0.00937248
0,11.4,0,0.0086871
0,11.5,0,0.00800172
0,11.6,0,0.00732236
0,11.7,0,0.006645
0,11.8,0,0.00597043
0,11.9,0,0.00530004
0,12,0,0.00462994
0,12.1,0,0.00396517
0,12.2,0,0.00330039
0,12.3,0,0.00263839
0,12.4,0,0.00197757
0,12.5,0,0.00137517
0,12.6,0,0.000881258
0,12.7,0,0.000387349
0.1,0,0,0.000226318
0.1,0.1,0,0.000678954
0.1,0.2,0,0.00120748
0.1,0.3,0,0.00181231
0.1,0.4,0,0.00241858
0.1,0.5,0,0.00302503
0.1,0.6,0,0.00363554
0.1,0.7,0,0.00424693
0.1,0.8,0,0.00486123
0.1,0.9,0,0.0054789
0.1,1,0,0.00609727
0.1,1.1,0,0.00672294
0.1,1.2,0,0.00734981
0.1,1.3,0,0.00798115
0.1,1.4,0,0.00861726
0.1,1.5,0,0.00925444
0.1,1.6,0,0.00990103
0.1,1.7,0,0.010549
0.1,1.8,0,0.0112022
0.1,1.9,0,0.0118608
0.1,2,0,0.0125206
0.1,2.1,0,0.0131902
0.1,2.2,0,0.013861
0.1,2.3,0,0.0145368
0.1,2.4,0,0.0152174
0.1,2.5,0,0.0158993
0.1,2.6,0,0.0165889
0.1,2.7,0,0.017279
0.1,2.8,0,0.0179725
0.1,2.9,0,0.0186685
0.1,3,0,0.0193655
0.1,3.1,0,0.0200649
0.1,3.2,0,0.0207639
0.1,3.3,0,0.0214626
0.1,3.4,0,0.0221597
0.1,3.5,0,0.0228568
0.1,3.6,0,0.0235475
0.1,3.7,0,0.024236
0.1,3.8,0,0.0249186
0.1,3.9,0,0.0255934
0.1,4,0,0.0262668
0.1,4.1,0,0.026921
0.1,4.2,0,0.0275709
0.1,4.3,0,0.0282073
0.1,4.4,0,0.0288277
0.1,4.5,0,0.0294449
0.1,4.6,0,0.0300269
0.1,4.7,0,0.0306025
0.1,4.8,0,0.0311557
0.1,4.9,0,0.0316952
0.1,5,0,0.0322642
0.1,5.1,0,0.0327002
0.1,5.2,0,0.0331378
0.1,5.3,0,0.0335794
0.1,5.4,0,0.0339694
0.1,5.5,0,0.0343391
0.1,5.6,0,0.0346908
0.1,5.7,0,0.0349839
0.1,5.8,0,0.0352548
0.1,5.9,0,0.0355051
0.1,6,0,0.0356914
0.1,6.1,0,0.0358542
0.1,6.2,0,0.0359947
0.1,6.3,0,0.0360678
0.1,6.4,0,0.0361168
0.1,6.5,0,0.0361423
0.1,6.6,0,0.0360992
0.1,6.7,0,0.0360324
0.1,6.8,0,0.0359418
0.1,6.9,0,0.0357836
0.1,7,0,0.0356029
0.1,7.1,0,0.0353987
0.1,7.2,0,0.0351304
0.1,7.3,0,0.0348413
0.1,7.4,0,0.03453
0.1,7.5,0,0.0341599
0.1,7.6,0,0.0337714
0.1,7.7,0,0.0333627
0.1,7.8,0,0.032902
0.1,7.9,0,0.0324519
0.1,8,0,0.0320102
0.1,8.1,0,0.0314011
0.1,8.2,0,0.0308423
0.1,8.3,0,0.0302647
0.1,8.4,0,0.0296706
0.1,8.5,0,0.0290627
0.1,8.6,0,0.0284278
0.1,8.7,0,0.0277911
0.1,8.8,0,0.0271247
0.1,8.9,0,0.0264565
0.1,9,0,0.0257732
0.1,9.1,0,0.0250809
0.1,9.2,0,0.0243831
0.1,9.3,0,0.0236734
0.1,9.4,0,0.0229629
0.1,9.5,0,0.0222429
0.1,9.6,0,0.0215222
0.1,9.7,0,0.020798
0.1,9.8,0,0.020072
0.1,9.9,0,0.0193453
0.1,10,0,0.0186183
0.1,10.1,0,0.0178912
0.1,10.2,0,0.0171665
0.1,10.3,0,0.0164424
0.1,10.4,0,0.0157208
0.1,10.5,0,0.0150022
0.1,10.6,0,0.0142845
0.1,10.7,0,0.0135731
0.1,10.8,0,0.0128619
0.1,10.9,0,0.0121572
0.1,11,0,0.0114544
0.1,11.1,0,0.0107556
0.1,11.2,0,0.0100615
0.1,11.3,0,0.00936852
0.1,11.4,0,0.00868314
0.1,11.5,0,0.00799798
0.1,11.6,0,0.00731877
0.1,11.7,0,0.00664157
0.1,11.8,0,0.00596732
0.1,11.9,0,0.00529705
0.1,12,0,0.0046274
0.1,12.1,0,0.00396289
0.1,12.2,0,0.00329844
0.1,12.3,0,0.00263686
0.1,12.4,0,0.00197628
0.1,12.5,0,0.00131669
0.1,12.6,0,0.0007258
0.1,12.7,0,0.00023241
0.2,0,0,7.54393e-05
0.2,0.1,0,0.00060331
0.2,0.2,0,0.00120642
0.2,0.3,0,0.00181124
0.2,0.4,0,0.00241693
0.2,0.5,0,0.003023
0.2,0.6,0,0.00363352
0.2,0.7,0,0.00424404
0.2,0.8,0,0.00485833
0.2,0.9,0,0.00547573
0.2,1,0,0.00609362
0.2,1.1,0,0.00671948
0.2,1.2,0,0.00734554
0.2,1.3,0,0.00797688
0.2,1.4,0,0.00861305
0.2,1.5,0,0.00924973
0.2,1.6,0,0.00989669
0.2,1.7,0,0.010544
0.2,1.8,0,0.0111973
0.2,1.9,0,0.0118563
0.2,2,0,0.0125157
0.2,2.1,0,0.0131858
0.2,2.2,0,0.0138564
0.2,2.3,0,0.0145323
0.2,2.4,0,0.0152137
0.2,2.5,0,0.0158954
0.2,2.6,0,0.0165855
0.2,2.7,0,0.0172762
0.2,2.8,0,0.0179697
0.2,2.9,0,0.018667
0.2,3,0,0.0193642
0.2,3.1,0,0.0200642
0.2,3.2,0,0.0207646
0.2,3.3,0,0.0214633
0.2,3.4,0,0.0221621
0.2,3.5,0,0.02286
0.2,3.6,0,0.023551
0.2,3.7,0,0.0242422
0.2,3.8,0,0.0249248
0.2,3.9,0,0.0256015
0.2,4,0,0.0262765
0.2,4.1,0,0.0269305
0.2,4.2,0,0.0275844
0.2,4.3,0,0.0282207
0.2,4.4,0,0.0288428
0.2,4.5,0,0.0294624
0.2,4.6,0,0.0300438
0.2,4.7,0,0.0306244
0.2,4.8,0,0.0311775
0.2,4.9,0,0.0317299
0.2,5,0,0.0322906
0.2,5.1,0,0.0327284
0.2,5.2,0,0.0331691
0.2,5.3,0,0.0336103
0.2,5.4,0,0.0339934
0.2,5.5,0,0.0343659
0.2,5.6,0,0.0347259
0.2,5.7,0,0.035011
0.2,5.8,0,0.0352841
0.2,5.9,0,0.0355435
0.2,6,0,0.0357209
0.2,6.1,0,0.0358852
0.2,6.2,0,0.0360352
0.2,6.3,0,0.0360988
0.2,6.4,0,0.0361484
0.2,6.5,0,0.0361835
0.2,6.6,0,0.0361307
0.2,6.7,0,0.0360636
0.2,6.8,0,0.0359823
0.2,6.9,0,0.0358146
0.2,7,0,0.0356325
0.2,7.1,0,0.0354372
0.2,7.2,0,0.0351598
0.2,7.3,0,0.0348686
0.2,7.4,0,0.0345654
0.2,7.5,0,0.0341868
0.2,7.6,0,0.0337956
0.2,7.7,0,0.0333938
0.2,7.8,0,0.0329362
0.2,7.9,0,0.0324832
0.2,8,0,0.032037
0.2,8.1,0,0.0314417
0.2,8.2,0,0.0308646
0.2,8.3,0,0.0302866
0.2,8.4,0,0.0296893
0.2,8.5,0,0.0290811
0.2,8.6,0,0.0284434
0.2,8.7,0,0.0278057
0.2,8.8,0,0.027138
0.2,8.9,0,0.0264675
0.2,9,0,0.0257838
0.2,9.1,0,0.0250889
0.2,9.2,0,0.0243907
0.2,9.3,0,0.0236792
0.2,9.4,0,0.0229676
0.2,9.5,0,0.022247
0.2,9.6,0,0.0215244
0.2,9.7,0,0.0208002
0.2,9.8,0,0.0200726
0.2,9.9,0,0.0193455
0.2,10,0,0.0186177
0.2,10.1,0,0.0178899
0.2,10.2,0,0.0171648
0.2,10.3,0,0.0164399
0.2,10.4,0,0.0157182
0.2,10.5,0,0.014999
0.2,10.6,0,0.0142812
0.2,10.7,0,0.0135696
0.2,10.8,0,0.012858
0.2,10.9,0,0.0121534
0.2,11,0,0.0114504
0.2,11.1,0,0.0107515
0.2,11.2,0,0.0100576
0.2,11.3,0,0.00936455
0.2,11.4,0,0.00867937
0.2,11.5,0,0.00799431
0.2,11.6,0,0.00731522
0.2,11.7,0,0.00663837
0.2,11.8,0,0.00596414
0.2,11.9,0,0.0052944
0.2,12,0,0.00462485
0.2,12.1,0,0.00396066
0.2,12.2,0,0.00329664
0.2,12.3,0,0.00263518
0.2,12.4,0,0.00197526
0.2,12.5,0,0.00131574
0.2,12.6,0,0.000657944
0.2,12.7,0,7.74698e-05
0.3,0,0,0
0.3,0.1,0,0.000602186
0.3,0.2,0,0.00120529
0.3,0.3,0,0.00180811
0.3,0.4,0,0.0024138
0.3,0.5,0,0.00301878
0.3,0.6,0,0.00362854
0.3,0.7,0,0.00423906
0.3,0.8,0,0.00485173
0.3,0.9,0,0.00546913
0.3,1,0,0.006086
0.3,1.1,0,0.00671148
0.3,1.2,0,0.00733754
0.3,1.3,0,0.0079678
0.3,1.4,0,0.00860397
0.3,1.5,0,0.00923988
0.3,1.6,0,0.00988693
0.3,1.7,0,0.0105343
0.3,1.8,0,0.0111873
0.3,1.9,0,0.0118463
0.3,2,0,0.0125054
0.3,2.1,0,0.0131762
0.3,2.2,0,0.0138468
0.3,2.3,0,0.0145236
0.3,2.4,0,0.0152051
0.3,2.5,0,0.0158871
0.3,2.6,0,0.0165786
0.3,2.7,0,0.0172693
0.3,2.8,0,0.0179654
0.3,2.9,0,0.0186627
0.3,3,0,0.0193614
0.3,3.1,0,0.0200634
0.3,3.2,0,0.0207638
0.3,3.3,0,0.0214669
0.3,3.4,0,0.0221657
0.3,3.5,0,0.0228665
0.3,3.6,0,0.0235602
0.3,3.7,0,0.0242514
0.3,3.8,0,0.0249404
0.3,3.9,0,0.0256171
0.3,4,0,0.0262963
0.3,4.1,0,0.0269534
0.3,4.2,0,0.0276073
0.3,4.3,0,0.0282516
0.3,4.4,0,0.0288737
0.3,4.5,0,0.0294988
0.3,4.6,0,0.0300831
0.3,4.7,0,0.0306637
0.3,4.8,0,0.0312254
0.3,4.9,0,0.0317778
0.3,5,0,0.0323451
0.3,5.1,0,0.0327857
0.3,5.2,0,0.0332264
0.3,5.3,0,0.0336745
0.3,5.4,0,0.0340599
0.3,5.5,0,0.0344324
0.3,5.6,0,0.0347988
0.3,5.7,0,0.0350851
0.3,5.8,0,0.0353581
0.3,5.9,0,0.0356231
0.3,6,0,0.0358005
0.3,6.1,0,0.0359647
0.3,6.2,0,0.0361191
0.3,6.3,0,0.0361811
0.3,6.4,0,0.0362307
0.3,6.5,0,0.0362689
0.3,6.6,0,0.0362131
0.3,6.7,0,0.036146
0.3,6.8,0,0.0360663
0.3,6.9,0,0.0358942
0.3,7,0,0.0357122
0.3,7.1,0,0.0355171
0.3,7.2,0,0.0352342
0.3,7.3,0,0.034943
0.3,7.4,0,0.0346386
0.3,7.5,0,0.0342537
0.3,7.6,0,0.0338625
0.3,7.7,0,0.0334584
0.3,7.8,0,0.032994
0.3,7.9,0,0.0325409
0.3,8,0,0.0320922
0.3,8.1,0,0.0314904
0.3,8.2,0,0.0309127
0.3,8.3,0,0.0303273
0.3,8.4,0,0.02973
0.3,8.5,0,0.0291159
0.3,8.6,0,0.0284763
0.3,8.7,0,0.0278362
0.3,8.8,0,0.0271635
0.3,8.9,0,0.0264925
0.3,9,0,0.0258023
0.3,9.1,0,0.0251074
0.3,9.2,0,0.0244047
0.3,9.3,0,0.0236914
0.3,9.4,0,0.0229779
0.3,9.5,0,0.0222538
0.3,9.6,0,0.0215312
0.3,9.7,0,0.0208025
0.3,9.8,0,0.0200749
0.3,9.9,0,0.0193451
0.3,10,0,0.0186164
0.3,10.1,0,0.0178874
0.3,10.2,0,0.0171607
0.3,10.3,0,0.0164357
0.3,10.4,0,0.0157121
0.3,10.5,0,0.0149929
0.3,10.6,0,0.0142739
0.3,10.7,0,0.0135622
0.3,10.8,0,0.0128502
0.3,10.9,0,0.0121453
0.3,11,0,0.0114423
0.3,11.1,0,0.0107434
0.3,11.2,0,0.0100495
0.3,11.3,0,0.00935635
0.3,11.4,0,0.00867164
0.3,11.5,0,0.0079866
0.3,11.6,0,0.00730828
0.3,11.7,0,0.00663143
0.3,11.8,0,0.00595821
0.3,11.9,0,0.00528859
0.3,12,0,0.00461962
0.3,12.1,0,0.00395626
0.3,12.2,0,0.00329247
0.3,12.3,0,0.00263238
0.3,12.4,0,0.00197246
0.3,12.5,0,0.00131448
0.3,12.6,0,0.000656939
0.3,12.7,0,0
0.4,0,0,0
0.4,0.1,0,0.000601266
0.4,0.2,0,0.00120192
0.4,0.3,0,0.00180474
0.4,0.4,0,0.00240809
0.4,0.5,0,0.00301237
0.4,0.6,0,0.00362137
0.4,0.7,0,0.00422989
0.4,0.8,0,0.00484255
0.4,0.9,0,0.00545807
0.4,1,0,0.00607441
0.4,1.1,0,0.00669932
0.4,1.2,0,0.00732398
0.4,1.3,0,0.00795424
0.4,1.4,0,0.00858925
0.4,1.5,0,0.00922489
0.4,1.6,0,0.00987166
0.4,1.7,0,0.0105185
0.4,1.8,0,0.0111715
0.4,1.9,0,0.0118305
0.4,2,0,0.0124897
0.4,2.1,0,0.0131606
0.4,2.2,0,0.0138321
0.4,2.3,0,0.0145089
0.4,2.4,0,0.0151919
0.4,2.5,0,0.0158746
0.4,2.6,0,0.0165668
0.4,2.7,0,0.0172601
0.4,2.8,0,0.0179562
0.4,2.9,0,0.0186571
0.4,3,0,0.019357
0.4,3.1,0,0.0200605
0.4,3.2,0,0.0207657
0.4,3.3,0,0.0214689
0.4,3.4,0,0.0221735
0.4,3.5,0,0.0228763
0.4,3.6,0,0.0235723
0.4,3.7,0,0.0242706
0.4,3.8,0,0.0249596
0.4,3.9,0,0.0256445
0.4,4,0,0.0263264
0.4,4.1,0,0.0269866
0.4,4.2,0,0.0276494
0.4,4.3,0,0.0282938
0.4,4.4,0,0.0289259
0.4,4.5,0,0.0295539
0.4,4.6,0,0.030142
0.4,4.7,0,0.0307323
0.4,4.8,0,0.0312939
0.4,4.9,0,0.0318455
0.4,5,0,0.0324277
0.4,5.1,0,0.0328683
0.4,5.2,0,0.0333187
0.4,5.3,0,0.0337718
0.4,5.4,0,0.0341657
0.4,5.5,0,0.0345472
0.4,5.6,0,0.0349094
0.4,5.7,0,0.0352045
0.4,5.8,0,0.0354844
0.4,5.9,0,0.035744
0.4,6,0,0.0359301
0.4,6.1,0,0.0360987
0.4,6.2,0,0.0362465
0.4,6.3,0,0.0363169
0.4,6.4,0,0.036368
0.4,6.5,0,0.0363986
0.4,6.6,0,0.0363504
0.4,6.7,0,0.0362818
0.4,6.8,0,0.0361939
0.4,6.9,0,0.0360284
0.4,7,0,0.0358422
0.4,7.1,0,0.0356384
0.4,7.2,0,0.0353609
0.4,7.3,0,0.035063
0.4,7.4,0,0.0347497
0.4,7.5,0,0.034369
0.4,7.6,0,0.0339691
0.4,7.7,0,0.0335565
0.4,7.8,0,0.0330844
0.4,7.9,0,0.0326218
0.4,8,0,0.0321758
0.4,8.1,0,0.0315527
0.4,8.2,0,0.0309831
0.4,8.3,0,0.030396
0.4,8.4,0,0.0297889
0.4,8.5,0,0.0291738
0.4,8.6,0,0.0285257
0.4,8.7,0,0.0278819
0.4,8.8,0,0.0272056
0.4,8.9,0,0.0265268
0.4,9,0,0.0258358
0.4,9.1,0,0.0251325
0.4,9.2,0,0.0244286
0.4,9.3,0,0.0237097
0.4,9.4,0,0.0229926
0.4,9.5,0,0.0222666
0.4,9.6,0,0.0215381
0.4,9.7,0,0.0208091
0.4,9.8,0,0.0200764
0.4,9.9,0,0.0193456
0.4,10,0,0.0186141
0.4,10.1,0,0.0178828
0.4,10.2,0,0.0171554
0.4,10.3,0,0.0164274
0.4,10.4,0,0.0157037
0.4,10.5,0,0.0149826
0.4,10.6,0,0.014263
0.4,10.7,0,0.0135507
0.4,10.8,0,0.0128378
0.4,10.9,0,0.0121329
0.4,11,0,0.0114294
0.4,11.1,0,0.0107304
0.4,11.2,0,0.0100369
0.4,11.3,0,0.00934367
0.4,11.4,0,0.00865956
0.4,11.5,0,0.00797489
0.4,11.6,0,0.00729691
0.4,11.7,0,0.00662123
0.4,11.8,0,0.00594806
0.4,11.9,0,0.00528008
0.4,12,0,0.0046115
0.4,12.1,0,0.00394911
0.4,12.2,0,0.00328675
0.4,12.3,0,0.00262701
0.4,12.4,0,0.00196921
0.4,12.5,0,0.00131147
0.4,12.6,0,0.000655958
0.4,12.7,0,0
0.5,0,0,0
0.5,0.1,0,0.000599739
0.5,0.2,0,0.00119948
0.5,0.3,0,0.00180067
0.5,0.4,0,0.00240331
0.5,0.5,0,0.00300595
0.5,0.6,0,0.00361372
0.5,0.7,0,0.00422148
0.5,0.8,0,0.00483285
0.5,0.9,0,0.00544784
0.5,1,0,0.00606283
0.5,1.1,0,0.00668691
0.5,1.2,0,0.00731099
0.5,1.3,0,0.00794041
0.5,1.4,0,0.00857515
0.5,1.5,0,0.0092099
0.5,1.6,0,0.00985646
0.5,1.7,0,0.010503
0.5,1.8,0,0.0111558
0.5,1.9,0,0.0118149
0.5,2,0,0.012474
0.5,2.1,0,0.0131456
0.5,2.2,0,0.0138173
0.5,2.3,0,0.0144949
0.5,2.4,0,0.0151784
0.5,2.5,0,0.015862
0.5,2.6,0,0.0165561
0.5,2.7,0,0.0172502
0.5,2.8,0,0.0179483
0.5,2.9,0,0.0186504
0.5,3,0,0.0193526
0.5,3.1,0,0.0200593
0.5,3.2,0,0.0207661
0.5,3.3,0,0.0214728
0.5,3.4,0,0.0221794
0.5,3.5,0,0.0228861
0.5,3.6,0,0.0235867
0.5,3.7,0,0.0242874
0.5,3.8,0,0.0249815
0.5,3.9,0,0.025669
0.5,4,0,0.0263565
0.5,4.1,0,0.0270224
0.5,4.2,0,0.0276884
0.5,4.3,0,0.0283389
0.5,4.4,0,0.028974
0.5,4.5,0,0.029609
0.5,4.6,0,0.0302031
0.5,4.7,0,0.0307971
0.5,4.8,0,0.0313774
0.5,4.9,0,0.0319439
0.5,5,0,0.0325104
0.5,5.1,0,0.0329633
0.5,5.2,0,0.0334162
0.5,5.3,0,0.0338691
0.5,5.4,0,0.0342527
0.5,5.5,0,0.0346364
0.5,5.6,0,0.03502
0.5,5.7,0,0.0353016
0.5,5.8,0,0.0355832
0.5,5.9,0,0.0358648
0.5,6,0,0.0360345
0.5,6.1,0,0.0362042
0.5,6.2,0,0.0363739
0.5,6.3,0,0.0364254
0.5,6.4,0,0.0364768
0.5,6.5,0,0.0365283
0.5,6.6,0,0.0364594
0.5,6.7,0,0.0363905
0.5,6.8,0,0.0363215
0.5,6.9,0,0.0361342
0.5,7,0,0.0359469
0.5,7.1,0,0.0357596
0.5,7.2,0,0.03546
0.5,7.3,0,0.0351604
0.5,7.4,0,0.0348608
0.5,7.5,0,0.0344587
0.5,7.6,0,0.0340566
0.5,7.7,0,0.0336545
0.5,7.8,0,0.0331895
0.5,7.9,0,0.0327245
0.5,8,0,0.0322595
0.5,8.1,0,0.0316642
0.5,8.2,0,0.0310688
0.5,8.3,0,0.0304636
0.5,8.4,0,0.029853
0.5,8.5,0,0.0292303
0.5,8.6,0,0.0285792
0.5,8.7,0,0.0279281
0.5,8.8,0,0.0272469
0.5,8.9,0,0.0265641
0.5,9,0,0.0258674
0.5,9.1,0,0.0251614
0.5,9.2,0,0.0244514
0.5,9.3,0,0.0237297
0.5,9.4,0,0.0230079
0.5,9.5,0,0.0222779
0.5,9.6,0,0.021547
0.5,9.7,0,0.0208142
0.5,9.8,0,0.0200798
0.5,9.9,0,0.0193455
0.5,10,0,0.018612
0.5,10.1,0,0.0178786
0.5,10.2,0,0.0171489
0.5,10.3,0,0.0164199
0.5,10.4,0,0.0156945
0.5,10.5,0,0.0149725
0.5,10.6,0,0.0142519
0.5,10.7,0,0.0135386
0.5,10.8,0,0.0128254
0.5,10.9,0,0.0121199
0.5,11,0,0.0114164
0.5,11.1,0,0.0107173
0.5,11.2,0,0.0100237
0.5,11.3,0,0.00933099
0.5,11.4,0,0.00864698
0.5,11.5,0,0.00796296
0.5,11.6,0,0.00728556
0.5,11.7,0,0.00661038
0.5,11.8,0,0.00593824
0.5,11.9,0,0.00527069
0.5,12,0,0.00460344
0.5,12.1,0,0.00394202
0.5,12.2,0,0.00328059
0.5,12.3,0,0.00262223
0.5,12.4,0,0.00196519
0.5,12.5,0,0.00130904
0.5,12.6,0,0.000654519
0.5,12.7,0,0
0.6,0,0,0
0.6,0.1,0,0.000596419
0.6,0.2,0,0.00119486
0.6,0.3,0,0.00179332
0.6,0.4,0,0.00239452
0.6,0.5,0,0.00299467
0.6,0.6,0,0.00359984
0.6,0.7,0,0.00420645
0.6,0.8,0,0.00481554
0.6,0.9,0,0.00542939
0.6,1,0,0.00604234
0.6,1.1,0,0.00666453
0.6,1.2,0,0.00728779
0.6,1.3,0,0.00791566
0.6,1.4,0,0.0085497
0.6,1.5,0,0.00918325
0.6,1.6,0,0.00982898
0.6,1.7,0,0.0104752
0.6,1.8,0,0.0111277
0.6,1.9,0,0.0117866
0.6,2,0,0.0124458
0.6,2.1,0,0.0131182
0.6,2.2,0,0.0137903
0.6,2.3,0,0.0144691
0.6,2.4,0,0.0151535
0.6,2.5,0,0.015839
0.6,2.6,0,0.0165358
0.6,2.7,0,0.0172314
0.6,2.8,0,0.017933
0.6,2.9,0,0.0186372
0.6,3,0,0.0193436
0.6,3.1,0,0.0200556
0.6,3.2,0,0.0207651
0.6,3.3,0,0.021478
0.6,3.4,0,0.022188
0.6,3.5,0,0.0229016
0.6,3.6,0,0.0236104
0.6,3.7,0,0.0243152
0.6,3.8,0,0.0250182
0.6,3.9,0,0.0257105
0.6,4,0,0.0264074
0.6,4.1,0,0.0270842
0.6,4.2,0,0.0277554
0.6,4.3,0,0.028417
0.6,4.4,0,0.0290579
0.6,4.5,0,0.0297042
0.6,4.6,0,0.0303104
0.6,4.7,0,0.0309103
0.6,4.8,0,0.0314905
0.6,4.9,0,0.0320511
0.6,5,0,0.0326541
0.6,5.1,0,0.0331107
0.6,5.2,0,0.033568
0.6,5.3,0,0.0340387
0.6,5.4,0,0.034448
0.6,5.5,0,0.0348356
0.6,5.6,0,0.035213
0.6,5.7,0,0.0355202
0.6,5.8,0,0.0358049
0.6,5.9,0,0.036076
0.6,6,0,0.0362701
0.6,6.1,0,0.0364417
0.6,6.2,0,0.0365967
0.6,6.3,0,0.0366702
0.6,6.4,0,0.0367223
0.6,6.5,0,0.0367552
0.6,6.6,0,0.036705
0.6,6.7,0,0.0366354
0.6,6.8,0,0.0365446
0.6,6.9,0,0.0363722
0.6,7,0,0.036183
0.6,7.1,0,0.0359714
0.6,7.2,0,0.0356825
0.6,7.3,0,0.0353799
0.6,7.4,0,0.0350548
0.6,7.5,0,0.0346591
0.6,7.6,0,0.0342531
0.6,7.7,0,0.0338253
0.6,7.8,0,0.0333356
0.6,7.9,0,0.0328664
0.6,8,0,0.0324051
0.6,8.1,0,0.0317619
0.6,8.2,0,0.0311818
0.6,8.3,0,0.0305764
0.6,8.4,0,0.0299594
0.6,8.5,0,0.0293262
0.6,8.6,0,0.0286665
0.6,8.7,0,0.0280071
0.6,8.8,0,0.0273139
0.6,8.9,0,0.0266262
0.6,9,0,0.0259193
0.6,9.1,0,0.025208
0.6,9.2,0,0.0244893
0.6,9.3,0,0.0237611
0.6,9.4,0,0.0230328
0.6,9.5,0,0.0222952
0.6,9.6,0,0.0215606
0.6,9.7,0,0.0208214
0.6,9.8,0,0.0200838
0.6,9.9,0,0.0193439
0.6,10,0,0.0186071
0.6,10.1,0,0.0178699
0.6,10.2,0,0.0171369
0.6,10.3,0,0.016406
0.6,10.4,0,0.0156777
0.6,10.5,0,0.0149547
0.6,10.6,0,0.0142316
0.6,10.7,0,0.0135178
0.6,10.8,0,0.0128032
0.6,10.9,0,0.0120974
0.6,11,0,0.0113935
0.6,11.1,0,0.0106943
0.6,11.2,0,0.0100011
0.6,11.3,0,0.00930839
0.6,11.4,0,0.00862562
0.6,11.5,0,0.00794194
0.6,11.6,0,0.00726612
0.6,11.7,0,0.00659167
0.6,11.8,0,0.00592109
0.6,11.9,0,0.00525476
0.6,12,0,0.00458916
0.6,12.1,0,0.00392993
0.6,12.2,0,0.00326984
0.6,12.3,0,0.00261391
0.6,12.4,0,0.00195822
0.6,12.5,0,0.00130461
0.6,12.6,0,0.000651598
0.6,12.7,0,0
0.7,0,0,0
0.7,0.1,0,0.000595126
0.7,0.2,0,0.00118896
0.7,0.3,0,0.00178741
0.7,0.4,0,0.00238468
0.7,0.5,0,0.00298338
0.7,0.6,0,0.0035874
0.7,0.7,0,0.00419027
0.7,0.8,0,0.00479936
0.7,0.9,0,0.00541004
0.7,1,0,0.00602186
0.7,1.1,0,0.00664322
0.7,1.2,0,0.00726375
0.7,1.3,0,0.00789163
0.7,1.4,0,0.00852377
0.7,1.5,0,0.00915661
0.7,1.6,0,0.00980203
0.7,1.7,0,0.0104471
0.7,1.8,0,0.0110996
0.7,1.9,0,0.0117586
0.7,2,0,0.0124177
0.7,2.1,0,0.0130905
0.7,2.2,0,0.0137637
0.7,2.3,0,0.0144426
0.7,2.4,0,0.0151297
0.7,2.5,0,0.015816
0.7,2.6,0,0.0165144
0.7,2.7,0,0.0172142
0.7,2.8,0,0.0179158
0.7,2.9,0,0.0186261
0.7,3,0,0.0193345
0.7,3.1,0,0.0200494
0.7,3.2,0,0.020767
0.7,3.3,0,0.0214798
0.7,3.4,0,0.0222001
0.7,3.5,0,0.0229171
0.7,3.6,0,0.0236301
0.7,3.7,0,0.0243471
0.7,3.8,0,0.0250501
0.7,3.9,0,0.0257567
0.7,4,0,0.0264584
0.7,4.1,0,0.0271404
0.7,4.2,0,0.0278276
0.7,4.3,0,0.0284892
0.7,4.4,0,0.0291472
0.7,4.5,0,0.0297993
0.7,4.6,0,0.0304113
0.7,4.7,0,0.0310292
0.7,4.8,0,0.0316094
0.7,4.9,0,0.0322007
0.7,5,0,0.0327978
0.7,5.1,0,0.0332616
0.7,5.2,0,0.033736
0.7,5.3,0,0.0342082
0.7,5.4,0,0.0346151
0.7,5.5,0,0.0350183
0.7,5.6,0,0.035406
0.7,5.7,0,0.0357091
0.7,5.8,0,0.0360058
0.7,5.9,0,0.0362872
0.7,6,0,0.0364754
0.7,6.1,0,0.0366547
0.7,6.2,0,0.0368195
0.7,6.3,0,0.0368855
0.7,6.4,0,0.0369404
0.7,6.5,0,0.036982
0.7,6.6,0,0.0369231
0.7,6.7,0,0.036851
0.7,6.8,0,0.0367677
0.7,6.9,0,0.0365856
0.7,7,0,0.0363889
0.7,7.1,0,0.0361833
0.7,7.2,0,0.0358841
0.7,7.3,0,0.0355696
0.7,7.4,0,0.0352488
0.7,7.5,0,0.0348428
0.7,7.6,0,0.0344214
0.7,7.7,0,0.0339961
0.7,7.8,0,0.0335079
0.7,7.9,0,0.0330219
0.7,8,0,0.0325508
0.7,8.1,0,0.0319182
0.7,8.2,0,0.031304
0.7,8.3,0,0.0306968
0.7,8.4,0,0.0300627
0.7,8.5,0,0.0294262
0.7,8.6,0,0.0287539
0.7,8.7,0,0.0280856
0.7,8.8,0,0.0273879
0.7,8.9,0,0.0266846
0.7,9,0,0.0259766
0.7,9.1,0,0.0252512
0.7,9.2,0,0.0245294
0.7,9.3,0,0.0237923
0.7,9.4,0,0.0230569
0.7,9.5,0,0.0223163
0.7,9.6,0,0.0215711
0.7,9.7,0,0.0208314
0.7,9.8,0,0.0200851
0.7,9.9,0,0.0193433
0.7,10,0,0.0186018
0.7,10.1,0,0.0178605
0.7,10.2,0,0.0171261
0.7,10.3,0,0.0163902
0.7,10.4,0,0.0156618
0.7,10.5,0,0.0149353
0.7,10.6,0,0.0142114
0.7,10.7,0,0.0134962
0.7,10.8,0,0.0127806
0.7,10.9,0,0.0120745
0.7,11,0,0.0113701
0.7,11.1,0,0.0106709
0.7,11.2,0,0.00997797
0.7,11.3,0,0.00928565
0.7,11.4,0,0.00860342
0.7,11.5,0,0.00792104
0.7,11.6,0,0.00724552
0.7,11.7,0,0.00657336
0.7,11.8,0,0.00590304
0.7,11.9,0,0.00523925
0.7,12,0,0.00457475
0.7,12.1,0,0.003917
0.7,12.2,0,0.00325972
0.7,12.3,0,0.00260437
0.7,12.4,0,0.00195244
0.7,12.5,0,0.00129929
0.7,12.6,0,0.000650057
0.7,12.7,0,0
0.8,0,0,0
0.8,0.1,0,0.000591349
0.8,0.2,0,0.00118518
0.8,0.3,0,0.00177677
0.8,0.4,0,0.00237404
0.8,0.5,0,0.00296951
0.8,0.6,0,0.00357045
0.8,0.7,0,0.00417332
0.8,0.8,0,0.0047767
0.8,0.9,0,0.00538739
0.8,1,0,0.00599658
0.8,1.1,0,0.00661567
0.8,1.2,0,0.0072362
0.8,1.3,0,0.0078602
0.8,1.4,0,0.00849234
0.8,1.5,0,0.00912357
0.8,1.6,0,0.009768
0.8,1.7,0,0.0104131
0.8,1.8,0,0.0110645
0.8,1.9,0,0.0117235
0.8,2,0,0.0123825
0.8,2.1,0,0.0130562
0.8,2.2,0,0.0137294
0.8,2.3,0,0.0144112
0.8,2.4,0,0.0150984
0.8,2.5,0,0.0157867
0.8,2.6,0,0.0164884
0.8,2.7,0,0.0171883
0.8,2.8,0,0.0178982
0.8,2.9,0,0.0186085
0.8,3,0,0.0193218
0.8,3.1,0,0.0200432
0.8,3.2,0,0.0207608
0.8,3.3,0,0.0214885
0.8,3.4,0,0.0222089
0.8,3.5,0,0.022934
0.8,3.6,0,0.0236571
0.8,3.7,0,0.0243742
0.8,3.8,0,0.0250988
0.8,3.9,0,0.0258054
0.8,4,0,0.0265186
0.8,4.1,0,0.0272139
0.8,4.2,0,0.0279011
0.8,4.3,0,0.0285899
0.8,4.4,0,0.0292479
0.8,4.5,0,0.0299137
0.8,4.6,0,0.0305409
0.8,4.7,0,0.0311587
0.8,4.8,0,0.0317684
0.8,4.9,0,0.0323597
0.8,5,0,0.0329723
0.8,5.1,0,0.0334522
0.8,5.2,0,0.0339267
0.8,5.3,0,0.0344146
0.8,5.4,0,0.0348372
0.8,5.5,0,0.0352404
0.8,5.6,0,0.0356415
0.8,5.7,0,0.0359572
0.8,5.8,0,0.036254
0.8,5.9,0,0.0365452
0.8,6,0,0.0367422
0.8,6.1,0,0.0369215
0.8,6.2,0,0.0370918
0.8,6.3,0,0.0371621
0.8,6.4,0,0.037217
0.8,6.5,0,0.0372594
0.8,6.6,0,0.0371999
0.8,6.7,0,0.0371278
0.8,6.8,0,0.0370405
0.8,6.9,0,0.036853
0.8,7,0,0.0366563
0.8,7.1,0,0.036442
0.8,7.2,0,0.0361332
0.8,7.3,0,0.0358188
0.8,7.4,0,0.0354853
0.8,7.5,0,0.0350662
0.8,7.6,0,0.0346448
0.8,7.7,0,0.034204
0.8,7.8,0,0.0337003
0.8,7.9,0,0.0332143
0.8,8,0,0.0327275
0.8,8.1,0,0.0320802
0.8,8.2,0,0.0314623
0.8,8.3,0,0.0308314
0.8,8.4,0,0.0301973
0.8,8.5,0,0.0295385
0.8,8.6,0,0.0288615
0.8,8.7,0,0.028181
0.8,8.8,0,0.0274699
0.8,8.9,0,0.0267647
0.8,9,0,0.026035
0.8,9.1,0,0.0253096
0.8,9.2,0,0.0245712
0.8,9.3,0,0.0238297
0.8,9.4,0,0.0230863
0.8,9.5,0,0.0223356
0.8,9.6,0,0.02159
0.8,9.7,0,0.0208356
0.8,9.8,0,0.0200893
0.8,9.9,0,0.0193384
0.8,10,0,0.0185941
0.8,10.1,0,0.0178491
0.8,10.2,0,0.0171092
0.8,10.3,0,0.0163734
0.8,10.4,0,0.0156386
0.8,10.5,0,0.0149121
0.8,10.6,0,0.0141852
0.8,10.7,0,0.013469
0.8,10.8,0,0.0127526
0.8,10.9,0,0.0120456
0.8,11,0,0.0113412
0.8,11.1,0,0.010642
0.8,11.2,0,0.00994909
0.8,11.3,0,0.00925747
0.8,11.4,0,0.0085762
0.8,11.5,0,0.00789438
0.8,11.6,0,0.00722129
0.8,11.7,0,0.00654912
0.8,11.8,0,0.00588254
0.8,11.9,0,0.00521909
0.8,12,0,0.00455718
0.8,12.1,0,0.00390179
0.8,12.2,0,0.00324548
0.8,12.3,0,0.00259476
0.8,12.4,0,0.00194283
0.8,12.5,0,0.00129506
0.8,12.6,0,0.000646635
0.8,12.7,0,0
0.9,0,0,0
0.9,0.1,0,0.000588865
0.9,0.2,0,0.0011766
0.9,0.3,0,0.00176819
0.9,0.4,0,0.00235937
0.9,0.5,0,0.00295305
0.9,0.6,0,0.00355205
0.9,0.7,0,0.00414964
0.9,0.8,0,0.00475303
0.9,0.9,0,0.0053588
0.9,1,0,0.00596651
0.9,1.1,0,0.00658416
0.9,1.2,0,0.00720079
0.9,1.3,0,0.00782479
0.9,1.4,0,0.00845381
0.9,1.5,0,0.00908412
0.9,1.6,0,0.00972787
0.9,1.7,0,0.0103713
0.9,1.8,0,0.0110226
0.9,1.9,0,0.0116813
0.9,2,0,0.0123402
0.9,2.1,0,0.0130143
0.9,2.2,0,0.013689
0.9,2.3,0,0.0143709
0.9,2.4,0,0.0150614
0.9,2.5,0,0.015751
0.9,2.6,0,0.0164546
0.9,2.7,0,0.0171604
0.9,2.8,0,0.0178703
0.9,2.9,0,0.0185892
0.9,3,0,0.0193053
0.9,3.1,0,0.0200306
0.9,3.2,0,0.0207597
0.9,3.3,0,0.0214874
0.9,3.4,0,0.0222223
0.9,3.5,0,0.0229523
0.9,3.6,0,0.0236814
0.9,3.7,0,0.024416
0.9,3.8,0,0.0251407
0.9,3.9,0,0.025868
0.9,4,0,0.0265879
0.9,4.1,0,0.0272913
0.9,4.2,0,0.0280014
0.9,4.3,0,0.0286902
0.9,4.4,0,0.0293738
0.9,4.5,0,0.0300475
0.9,4.6,0,0.030684
0.9,4.7,0,0.0313274
0.9,4.8,0,0.031937
0.9,4.9,0,0.0325436
0.9,5,0,0.0331775
0.9,5.1,0,0.0336611
0.9,5.2,0,0.0341609
0.9,5.3,0,0.0346579
0.9,5.4,0,0.0350934
0.9,5.5,0,0.0355197
0.9,5.6,0,0.0359193
0.9,5.7,0,0.0362477
0.9,5.8,0,0.0365625
0.9,5.9,0,0.03685
0.9,6,0,0.0370587
0.9,6.1,0,0.0372495
0.9,6.2,0,0.0374137
0.9,6.3,0,0.0374943
0.9,6.4,0,0.0375532
0.9,6.5,0,0.0375873
0.9,6.6,0,0.0375362
0.9,6.7,0,0.0374604
0.9,6.8,0,0.0373628
0.9,6.9,0,0.0371815
0.9,7,0,0.0369736
0.9,7.1,0,0.0367477
0.9,7.2,0,0.0364427
0.9,7.3,0,0.0361106
0.9,7.4,0,0.0357646
0.9,7.5,0,0.035347
0.9,7.6,0,0.0349028
0.9,7.7,0,0.0344491
0.9,7.8,0,0.0339335
0.9,7.9,0,0.0334228
0.9,8,0,0.0329354
0.9,8.1,0,0.0322588
0.9,8.2,0,0.0316356
0.9,8.3,0,0.0310013
0.9,8.4,0,0.0303417
0.9,8.5,0,0.0296793
0.9,8.6,0,0.0289819
0.9,8.7,0,0.0282904
0.9,8.8,0,0.0275713
0.9,8.9,0,0.0268448
0.9,9,0,0.0261132
0.9,9.1,0,0.025367
0.9,9.2,0,0.0246249
0.9,9.3,0,0.0238698
0.9,9.4,0,0.0231169
0.9,9.5,0,0.0223616
0.9,9.6,0,0.021601
0.9,9.7,0,0.020846
0.9,9.8,0,0.0200875
0.9,9.9,0,0.0193337
0.9,10,0,0.0185832
0.9,10.1,0,0.0178322
0.9,10.2,0,0.0170908
0.9,10.3,0,0.0163478
0.9,10.4,0,0.0156128
0.9,10.5,0,0.0148819
0.9,10.6,0,0.0141536
0.9,10.7,0,0.0134363
0.9,10.8,0,0.012718
0.9,10.9,0,0.0120111
0.9,11,0,0.0113059
0.9,11.1,0,0.0106066
0.9,11.2,0,0.00991493
0.9,11.3,0,0.00922335
0.9,11.4,0,0.00854356
0.9,11.5,0,0.00786322
0.9,11.6,0,0.00719089
0.9,11.7,0,0.00652208
0.9,11.8,0,0.00585575
0.9,11.9,0,0.0051965
0.9,12,0,0.00453589
0.9,12.1,0,0.0038829
0.9,12.2,0,0.00323058
0.9,12.3,0,0.0025807
0.9,12.4,0,0.00193433
0.9,12.5,0,0.00128726
0.9,12.6,0,0.000643915
0.9,12.7,0,0
1,0,0,0
1,0.1,0,0.000585253
1,0.2,0,0.00117051
1,0.3,0,0.00175782
1,0.4,0,0.00234721
1,0.5,0,0.0029366
1,0.6,0,0.00353225
1,0.7,0,0.0041279
1,0.8,0,0.00472787
1,0.9,0,0.00533215
1,1,0,0.00593644
1,1.1,0,0.00655162
1,1.2,0,0.00716681
1,1.3,0,0.00778846
1,1.4,0,0.00841657
1,1.5,0,0.00904468
1,1.6,0,0.00968739
1,1.7,0,0.0103301
1,1.8,0,0.0109808
1,1.9,0,0.0116393
1,2,0,0.0122979
1,2.1,0,0.0129731
1,2.2,0,0.0136482
1,2.3,0,0.0143317
1,2.4,0,0.0150234
1,2.5,0,0.0157152
1,2.6,0,0.0164229
1,2.7,0,0.0171305
1,2.8,0,0.0178453
1,2.9,0,0.018567
1,3,0,0.0192888
1,3.1,0,0.0200217
1,3.2,0,0.0207547
1,3.3,0,0.021491
1,3.4,0,0.0222308
1,3.5,0,0.0229705
1,3.6,0,0.0237112
1,3.7,0,0.0244519
1,3.8,0,0.0251892
1,3.9,0,0.0259232
1,4,0,0.0266573
1,4.1,0,0.0273754
1,4.2,0,0.0280936
1,4.3,0,0.0287983
1,4.4,0,0.0294898
1,4.5,0,0.0301812
1,4.6,0,0.0308339
1,4.7,0,0.0314866
1,4.8,0,0.0321269
1,4.9,0,0.0327548
1,5,0,0.0333827
1,5.1,0,0.0338888
1,5.2,0,0.034395
1,5.3,0,0.0349011
1,5.4,0,0.0353332
1,5.5,0,0.0357652
1,5.6,0,0.0361972
1,5.7,0,0.0365164
1,5.8,0,0.0368356
1,5.9,0,0.0371548
1,6,0,0.0373484
1,6.1,0,0.037542
1,6.2,0,0.0377356
1,6.3,0,0.0377955
1,6.4,0,0.0378554
1,6.5,0,0.0379153
1,6.6,0,0.0378385
1,6.7,0,0.0377618
1,6.8,0,0.0376852
1,6.9,0,0.0374746
1,7,0,0.037264
1,7.1,0,0.0370534
1,7.2,0,0.0367168
1,7.3,0,0.0363803
1,7.4,0,0.0360438
1,7.5,0,0.0355939
1,7.6,0,0.035144
1,7.7,0,0.0346941
1,7.8,0,0.0341772
1,7.9,0,0.0336602
1,8,0,0.0331433
1,8.1,0,0.0324862
1,8.2,0,0.031829
1,8.3,0,0.0311644
1,8.4,0,0.0304956
1,8.5,0,0.0298153
1,8.6,0,0.029108
1,8.7,0,0.0284007
1,8.8,0,0.0276667
1,8.9,0,0.0269314
1,9,0,0.0261851
1,9.1,0,0.0254315
1,9.2,0,0.0246754
1,9.3,0,0.023912
1,9.4,0,0.0231486
1,9.5,0,0.0223828
1,9.6,0,0.0216168
1,9.7,0,0.0208523
1,9.8,0,0.0200893
1,9.9,0,0.0193277
1,10,0,0.0185719
1,10.1,0,0.0178162
1,10.2,0,0.0170694
1,10.3,0,0.0163241
1,10.4,0,0.0155851
1,10.5,0,0.0148524
1,10.6,0,0.0141217
1,10.7,0,0.0134026
1,10.8,0,0.0126835
1,10.9,0,0.0119755
1,11,0,0.0112703
1,11.1,0,0.0105713
1,11.2,0,0.00987967
1,11.3,0,0.00918933
1,11.4,0,0.00851043
1,11.5,0,0.00783153
1,11.6,0,0.00716117
1,11.7,0,0.00649365
1,11.8,0,0.00583002
1,11.9,0,0.0051722
1,12,0,0.00451477
1,12.1,0,0.0038647
1,12.2,0,0.00321463
1,12.3,0,0.00256854
1,12.4,0,0.00192416
1,12.5,0,0.00128111
1,12.6,0,0.000640557
1,12.7,0,0
1.1,0,0,0
1.1,0.1,0,0.00057847
1.1,0.2,0,0.0011614
1.1,0.3,0,0.00174349
1.1,0.4,0,0.00232996
1.1,0.5,0,0.00291462
1.1,0.6,0,0.003505
1.1,0.7,0,0.00409841
1.1,0.8,0,0.00469377
1.1,0.9,0,0.00529569
1.1,1,0,0.00589596
1.1,1.1,0,0.0065071
1.1,1.2,0,0.00712059
1.1,1.3,0,0.00773895
1.1,1.4,0,0.00836547
1.1,1.5,0,0.00899097
1.1,1.6,0,0.00963156
1.1,1.7,0,0.0102735
1.1,1.8,0,0.0109229
1.1,1.9,0,0.011581
1.1,2,0,0.0122391
1.1,2.1,0,0.012915
1.1,2.2,0,0.0135906
1.1,2.3,0,0.0142759
1.1,2.4,0,0.014969
1.1,2.5,0,0.0156634
1.1,2.6,0,0.0163758
1.1,2.7,0,0.0170858
1.1,2.8,0,0.0178065
1.1,2.9,0,0.0185319
1.1,3,0,0.0192604
1.1,3.1,0,0.0200035
1.1,3.2,0,0.020741
1.1,3.3,0,0.0214885
1.1,3.4,0,0.0222349
1.1,3.5,0,0.0229863
1.1,3.6,0,0.0237435
1.1,3.7,0,0.0244912
1.1,3.8,0,0.0252454
1.1,3.9,0,0.0259893
1.1,4,0,0.0267398
1.1,4.1,0,0.0274805
1.1,4.2,0,0.0282079
1.1,4.3,0,0.0289344
1.1,4.4,0,0.0296382
1.1,4.5,0,0.0303496
1.1,4.6,0,0.0310288
1.1,4.7,0,0.0316918
1.1,4.8,0,0.0323426
1.1,4.9,0,0.0329707
1.1,5,0,0.0336476
1.1,5.1,0,0.0341695
1.1,5.2,0,0.0346842
1.1,5.3,0,0.0352178
1.1,5.4,0,0.0356905
1.1,5.5,0,0.0361304
1.1,5.6,0,0.036561
1.1,5.7,0,0.0369196
1.1,5.8,0,0.0372449
1.1,5.9,0,0.0375552
1.1,6,0,0.0377849
1.1,6.1,0,0.0379824
1.1,6.2,0,0.0381594
1.1,6.3,0,0.0382502
1.1,6.4,0,0.0383115
1.1,6.5,0,0.0383472
1.1,6.6,0,0.0382949
1.1,6.7,0,0.0382169
1.1,6.8,0,0.0381095
1.1,6.9,0,0.0379158
1.1,7,0,0.0377015
1.1,7.1,0,0.037455
1.1,7.2,0,0.0371277
1.1,7.3,0,0.0367851
1.1,7.4,0,0.0364093
1.1,7.5,0,0.0359612
1.1,7.6,0,0.0355035
1.1,7.7,0,0.0350131
1.1,7.8,0,0.0344613
1.1,7.9,0,0.033936
1.1,8,0,0.0334117
1.1,8.1,0,0.0326938
1.1,8.2,0,0.0320454
1.1,8.3,0,0.0313709
1.1,8.4,0,0.0306899
1.1,8.5,0,0.0299865
1.1,8.6,0,0.0292653
1.1,8.7,0,0.0285373
1.1,8.8,0,0.0277836
1.1,8.9,0,0.0270366
1.1,9,0,0.0262712
1.1,9.1,0,0.0255079
1.1,9.2,0,0.0247334
1.1,9.3,0,0.0239598
1.1,9.4,0,0.0231819
1.1,9.5,0,0.0224036
1.1,9.6,0,0.0216299
1.1,9.7,0,0.0208537
1.1,9.8,0,0.0200853
1.1,9.9,0,0.0193128
1.1,10,0,0.018552
1.1,10.1,0,0.0177889
1.1,10.2,0,0.0170368
1.1,10.3,0,0.0162882
1.1,10.4,0,0.0155445
1.1,10.5,0,0.0148102
1.1,10.6,0,0.0140754
1.1,10.7,0,0.0133557
1.1,10.8,0,0.0126346
1.1,10.9,0,0.0119267
1.1,11,0,0.0112213
1.1,11.1,0,0.0105225