/*--------------------------------*- C++ -*----------------------------------*\
| =========                 |                                                 |
| \\      /  F ield         | OpenFOAM: The Open Source CFD Toolbox           |
|  \\    /   O peration     | Version:  v1806                                 |
|   \\  /    A nd           | Web:      www.OpenFOAM.com                      |
|    \\/     M anipulation  |                                                 |
\*---------------------------------------------------------------------------*/
FoamFile
{
    version     2.0;
    format      ascii;
    class       volScalarField;
    location    "360";
    object      p;
}
// * * * * * * * * * * * * * * * * * * * * * * * * * * * * * * * * * * * * * //

dimensions      [0 2 -2 0 0 0 0];


internalField   nonuniform List<scalar> 
2400
(
5.62567e-05
5.73032e-05
6.18821e-05
6.78524e-05
7.68317e-05
8.77863e-05
0.000101819
0.000119662
0.00013922
0.000166307
0.000190182
0.000229097
0.000251115
0.000302767
0.000305279
0.000363996
0.000312777
0.000354541
0.000225068
0.000189794
0.000168368
0.000171641
0.000184909
0.000202729
0.00022885
0.000261627
0.000302378
0.000355839
0.000412392
0.000493563
0.00056217
0.000678566
0.000741171
0.000894951
0.00090063
0.00107436
0.000924119
0.00104822
0.000666806
0.000569105
0.000279816
0.000285242
0.000307062
0.000336488
0.00037957
0.000433668
0.000501048
0.000589097
0.000682966
0.000816143
0.000931026
0.00112085
0.00122854
0.00147726
0.00149609
0.00177512
0.00154027
0.00174291
0.00110901
0.000965049
0.000390237
0.000397581
0.000428083
0.000468732
0.000528959
0.0006036
0.00069807
0.000819253
0.000951573
0.0011341
0.00129796
0.00155659
0.00171536
0.0020518
0.00209515
0.00247142
0.00216546
0.00244836
0.00155113
0.00138922
0.000499224
0.000508198
0.000547561
0.000598944
0.000676535
0.000770747
0.000892844
0.00104542
0.00121749
0.00144638
0.00166225
0.00198488
0.00220133
0.00261863
0.00269891
0.00316566
0.00280328
0.00317135
0.00199488
0.00185362
0.000606379
0.000616649
0.000665055
0.000726592
0.000821759
0.000934408
0.0010847
0.0012667
0.00147992
0.00175193
0.00202315
0.00240482
0.0026863
0.00317766
0.0033091
0.00385963
0.00345899
0.00391722
0.00244493
0.00237059
0.000711306
0.000722503
0.000780122
0.000851172
0.0009641
0.00109395
0.00127299
0.00148228
0.00173814
0.00204985
0.00238004
0.00281565
0.00317029
0.00372878
0.0039276
0.00455438
0.00413877
0.00468966
0.00290874
0.00295222
0.00081361
0.000825356
0.000892319
0.000972211
0.00110302
0.00124879
0.00145706
0.00169144
0.00199136
0.0023393
0.0027322
0.00321664
0.00365326
0.00427167
0.00455632
0.00525003
0.00484917
0.00549041
0.00339723
0.00360944
0.000912898
0.000924829
0.0010012
0.00108927
0.00123796
0.00139839
0.00163617
0.00189349
0.00223871
0.00261945
0.00307878
0.00360708
0.00413513
0.00480603
0.00519726
0.00594597
0.0055968
0.00631846
0.00392538
0.00435178
0.00100878
0.00102057
0.00110633
0.00120192
0.00136835
0.00154224
0.00180957
0.00208782
0.00247918
0.00288947
0.00341868
0.00398621
0.0046156
0.00533185
0.00585291
0.00664146
0.00638863
0.00716842
0.00451132
0.00518788
0.00110086
0.00111223
0.00120726
0.00130978
0.00149362
0.00167989
0.00197645
0.00227384
0.00271161
0.00314858
0.00375049
0.00435295
0.00509387
0.00584958
0.00652649
0.00733722
0.0072336
0.00802926
0.00517318
0.00612316
0.00118876
0.00119952
0.00130356
0.00141246
0.0016132
0.00181087
0.00213597
0.00245098
0.00293469
0.0033961
0.00407225
0.00470606
0.00556802
0.00635911
0.00722125
0.0080378
0.00814607
0.00888706
0.00592559
0.00715112
0.0012721
0.00128213
0.00139484
0.00150962
0.00172652
0.00193478
0.00228732
0.00261871
0.00314709
0.00363129
0.00438149
0.00504455
0.00603456
0.00685764
0.00793835
0.00875295
0.00914928
0.00973587
0.00678353
0.00823103
0.00135052
0.00135979
0.00148071
0.00160092
0.00183309
0.00205119
0.00242974
0.00277648
0.00334748
0.00385338
0.00467561
0.00536734
0.00648793
0.00734281
0.00867209
0.00949003
0.0102735
0.0105939
0.00778325
0.00923781
0.00142367
0.00143223
0.00156083
0.00168603
0.00193242
0.00215971
0.00256252
0.00292373
0.00353464
0.00406152
0.00495207
0.00567305
0.00692176
0.00781279
0.00941013
0.0102395
0.0115425
0.0115241
0.00903407
0.00989137
0.00149121
0.0014992
0.00163486
0.00176463
0.00202409
0.00225993
0.00268503
0.00305988
0.0037075
0.00425479
0.00520864
0.00596006
0.0073301
0.00826498
0.010133
0.0109944
0.0129404
0.012619
0.0107873
0.00981904
0.00155286
0.00156047
0.00170253
0.00183643
0.00210772
0.00235147
0.00279674
0.00318436
0.00386515
0.00443219
0.00544341
0.00622647
0.0077078
0.00869587
0.0108221
0.0117521
0.0144221
0.0139104
0.013391
0.00886699
0.00160832
0.00161588
0.00176355
0.00190117
0.00218295
0.002434
0.00289713
0.0032966
0.00400678
0.00459267
0.00565474
0.00647005
0.00805062
0.00910088
0.011462
0.012509
0.0159071
0.0153561
0.0170872
0.00720517
0.00165731
0.00166528
0.00181769
0.00195858
0.00224948
0.00250716
0.0029858
0.00339604
0.00413172
0.00473511
0.00584138
0.00668814
0.00835531
0.00947341
0.0120412
0.0132547
0.0173227
0.0170016
0.0218053
0.00581776
0.00169968
0.00170833
0.00186502
0.00200815
0.0023074
0.00257023
0.00306291
0.00348153
0.00424018
0.00485749
0.00600332
0.00687668
0.00862069
0.00980356
0.0125523
0.0139656
0.0186054
0.018927
0.0272857
0.00861096
8.23525e-05
-1.23139e-05
-6.92085e-05
-9.51084e-05
-0.000109884
-0.000117351
-0.000115277
-0.000105363
-9.17512e-05
-7.71109e-05
0.000244855
-3.30798e-05
-0.000198591
-0.000275314
-0.000319585
-0.000341524
-0.000335266
-0.000306165
-0.000266393
-0.000224192
0.000396457
-6.90259e-05
-0.000338643
-0.000465824
-0.00054025
-0.000574991
-0.00056184
-0.000511336
-0.000443668
-0.00037201
0.000526995
-0.000133557
-0.000498739
-0.000673758
-0.000778074
-0.000822478
-0.000797835
-0.000722165
-0.000623816
-0.000520569
0.000624601
-0.000238497
-0.000686772
-0.000906243
-0.00103945
-0.0010887
-0.00104608
-0.000940055
-0.000807249
-0.000669542
0.000673831
-0.000396681
-0.000911124
-0.0011717
-0.00133164
-0.00137862
-0.00130956
-0.00116659
-0.000994436
-0.000818503
0.000655872
-0.000622667
-0.00118149
-0.00147992
-0.00166252
-0.00169726
-0.0015912
-0.0014033
-0.00118565
-0.000966752
0.000548861
-0.000931849
-0.0015102
-0.00184278
-0.00204069
-0.00204973
-0.00189399
-0.00165164
-0.00138085
-0.0011131
0.000324239
-0.00133705
-0.00191354
-0.002275
-0.00247565
-0.00244138
-0.00222101
-0.00191285
-0.00157941
-0.00125552
-5.47928e-05
-0.00185178
-0.00241331
-0.00279513
-0.00297818
-0.00287776
-0.00257507
-0.00218734
-0.0017796
-0.00139083
-0.000634481
-0.00249718
-0.00303891
-0.00342653
-0.00356022
-0.00336368
-0.00295742
-0.00247367
-0.00197808
-0.00151464
-0.00147442
-0.00330772
-0.00383007
-0.00419626
-0.00423223
-0.00390031
-0.00336522
-0.00276688
-0.00216962
-0.00162227
-0.00265339
-0.00433595
-0.00483549
-0.00512743
-0.00499529
-0.00447946
-0.00378778
-0.00305725
-0.00234806
-0.00171091
-0.00428596
-0.00565418
-0.0061001
-0.00622203
-0.00582813
-0.00507634
-0.00420419
-0.00333146
-0.0025089
-0.00178213
-0.00655938
-0.00733925
-0.00763896
-0.00743621
-0.00667445
-0.00564789
-0.00458713
-0.0035777
-0.00265242
-0.001843
-0.0097192
-0.00940521
-0.00941372
-0.00865511
-0.00744902
-0.00614659
-0.00491508
-0.00379162
-0.00278336
-0.00190342
-0.0138586
-0.0116891
-0.0112899
-0.00970787
-0.00808014
-0.00654681
-0.00518215
-0.00397463
-0.00290482
-0.00197148
-0.0187895
-0.0136702
-0.0129832
-0.010465
-0.00855332
-0.00684942
-0.00539106
-0.00412595
-0.00301343
-0.00205054
-0.0243269
-0.01489
-0.0142378
-0.0109137
-0.0088971
-0.00706384
-0.00554433
-0.00424211
-0.00310114
-0.0021381
-0.0335292
-0.0162571
-0.0155598
-0.0112908
-0.00918565
-0.00721886
-0.00566066
-0.0043339
-0.00317087
-0.00230801
-6.69132e-05
-6.04501e-05
-5.38704e-05
-4.7754e-05
-4.22146e-05
-3.72732e-05
-3.28194e-05
-2.89161e-05
-2.53397e-05
-2.22814e-05
-1.93006e-05
-1.69098e-05
-1.4215e-05
-1.24007e-05
-9.62583e-06
-8.39763e-06
-5.04014e-06
-4.47618e-06
-6.3075e-09
-1.33671e-06
-0.000192519
-0.000171142
-0.000151504
-0.000133556
-0.000117214
-0.000102535
-8.93528e-05
-7.77559e-05
-6.73175e-05
-5.83553e-05
-5.00178e-05
-4.32902e-05
-3.63643e-05
-3.17206e-05
-2.53465e-05
-2.29452e-05
-1.57613e-05
-1.62233e-05
-6.40535e-06
-1.21605e-05
-0.000318373
-0.000282423
-0.000249449
-0.000219414
-0.00019213
-0.000167642
-0.000145731
-0.000126462
-0.000109248
-9.44355e-05
-8.0881e-05
-6.98587e-05
-5.89006e-05
-5.1448e-05
-4.17586e-05
-3.8242e-05
-2.75328e-05
-2.92115e-05
-1.32678e-05
-2.34032e-05
-0.000443951
-0.000392818
-0.000346024
-0.000303599
-0.000265269
-0.000230991
-0.00020045
-0.000173625
-0.000149781
-0.000129223
-0.000110589
-9.5321e-05
-8.04653e-05
-7.02242e-05
-5.73858e-05
-5.28813e-05
-3.87386e-05
-4.22615e-05
-1.95946e-05
-3.74047e-05
-0.00056834
-0.000501131
-0.000439993
-0.000384932
-0.000335519
-0.000291538
-0.000252531
-0.00021833
-0.000188059
-0.000161902
-0.000138367
-0.000118916
-0.000100346
-8.73193e-05
-7.16177e-05
-6.62056e-05
-4.90652e-05
-5.51715e-05
-2.58971e-05
-5.49532e-05
-0.000690641
-0.000606292
-0.000530199
-0.000462257
-0.000401767
-0.000348239
-0.000301014
-0.0002597
-0.000223282
-0.000191734
-0.000163524
-0.000139971
-0.000117906
-0.00010205
-8.38766e-05
-7.74748e-05
-5.81522e-05
-6.71986e-05
-3.21991e-05
-7.54431e-05
-0.000809639
-0.000706856
-0.000615106
-0.000534068
-0.000462613
-0.000399831
-0.000344775
-0.000296753
-0.000254581
-0.000217947
-0.000185348
-0.000157819
-0.000132502
-0.000113752
-9.35425e-05
-8.58822e-05
-6.54684e-05
-7.71419e-05
-3.82691e-05
-9.72563e-05
-0.000923561
-0.000800817
-0.000692685
-0.000598478
-0.000516386
-0.000444882
-0.000382617
-0.000328507
-0.000281151
-0.000239889
-0.000203287
-0.000172007
-0.000143704
-0.000122034
-0.00010019
-9.08806e-05
-7.05217e-05
-8.37827e-05
-4.37691e-05
-0.000117839
-0.00102979
-0.000885429
-0.000760361
-0.000653262
-0.000561258
-0.00048196
-0.000413473
-0.000354225
-0.000302519
-0.000257316
-0.000217251
-0.000182602
-0.000151627
-0.000127114
-0.000103928
-9.25644e-05
-7.31628e-05
-8.64098e-05
-4.83632e-05
-0.000134246
-0.00112466
-0.000957167
-0.000815178
-0.000696166
-0.000595638
-0.000510067
-0.000436867
-0.000373866
-0.000318979
-0.000270795
-0.000227999
-0.000190545
-0.00015726
-0.000130096
-0.000105685
-9.19185e-05
-7.38471e-05
-8.52374e-05
-5.18614e-05
-0.000144144
-0.00120369
-0.00101222
-0.000854516
-0.000725714
-0.000618963
-0.000529395
-0.000453592
-0.000388662
-0.000332064
-0.000282066
-0.000237394
-0.000197778
-0.00016252
-0.000132914
-0.000107148
-9.0665e-05
-7.36136e-05
-8.14159e-05
-5.43021e-05
-0.000146761
-0.00126287
-0.00104795
-0.000877542
-0.000742448
-0.000632743
-0.000542144
-0.000466277
-0.000401433
-0.000344626
-0.000293914
-0.00024809
-0.000206797
-0.000169707
-0.000137707
-0.000110179
-9.06453e-05
-7.36996e-05
-7.65889e-05
-5.59401e-05
-0.000143193
-0.00130096
-0.00106516
-0.000886885
-0.000750026
-0.000641171
-0.000552689
-0.000479134
-0.000415998
-0.000359998
-0.000309169
-0.000262458
-0.000219566
-0.000180472
-0.000145897
-0.000116019
-9.31141e-05
-7.50689e-05
-7.23173e-05
-5.71562e-05
-0.000135878
-0.00132149
-0.00106942
-0.000889068
-0.000754885
-0.000650227
-0.000566222
-0.000496313
-0.000435432
-0.000380313
-0.000329203
-0.000281311
-0.000236515
-0.00019505
-0.000157626
-0.000124878
-9.84151e-05
-7.81694e-05
-6.9682e-05
-5.82606e-05
-0.000127626
-0.00133242
-0.00106972
-0.000892249
-0.000763674
-0.000664974
-0.000586091
-0.000519568
-0.00046025
-0.000405228
-0.000353132
-0.000303492
-0.000256399
-0.000212279
-0.00017188
-0.000136044
-0.000106088
-8.29503e-05
-6.91389e-05
-5.92074e-05
-0.000120783
-0.00134228
-0.00107431
-0.000902262
-0.000779819
-0.000686738
-0.000611814
-0.000547151
-0.000487993
-0.000431986
-0.000378179
-0.000326384
-0.00027686
-0.00023014
-0.000186982
-0.000148277
-0.000115206
-8.90741e-05
-7.06648e-05
-5.90932e-05
-0.000117339
-0.00135531
-0.00108675
-0.000919464
-0.000801437
-0.000711998
-0.000638874
-0.000574261
-0.000514046
-0.000456394
-0.000400667
-0.000346847
-0.000295268
-0.000246481
-0.000201201
-0.000160269
-0.000124775
-9.62238e-05
-7.43418e-05
-5.48696e-05
-0.000120665
-0.00136639
-0.00110223
-0.000936686
-0.000820631
-0.000732782
-0.000659907
-0.000594567
-0.000533191
-0.000474258
-0.000417274
-0.00036227
-0.000309572
-0.000259687
-0.000213261
-0.000171044
-0.000134033
-0.000103902
-8.06407e-05
-4.42427e-05
-0.000131649
-0.00136341
-0.00110656
-0.000939667
-0.000825428
-0.000739281
-0.000667417
-0.000602635
-0.000541605
-0.000482935
-0.000426186
-0.000371399
-0.000318869
-0.000269072
-0.000222591
-0.000180135
-0.000142648
-0.000111054
-8.42533e-05
-6.31847e-05
-0.000105522
-0.00137189
-0.00107849
-0.000908231
-0.000803132
-0.000723777
-0.000657149
-0.000596345
-0.000538423
-0.000482263
-0.00042759
-0.00037454
-0.000323462
-0.000274839
-0.000229246
-0.000187393
-0.000150146
-0.00011773
-8.94375e-05
-7.5297e-05
-9.34932e-05
-0.000988335
-0.00090367
-0.000815629
-0.000747009
-0.000687605
-0.000632624
-0.000579504
-0.000527086
-0.000475092
-0.000423687
-0.000373257
-0.000324301
-0.000277387
-0.00023313
-0.000192255
-0.000155589
-0.00012304
-9.41266e-05
-8.11114e-05
-9.00638e-05
-0.000742653
-0.000772312
-0.000732667
-0.000692538
-0.000650608
-0.000606842
-0.000561477
-0.000514702
-0.000466963
-0.000418856
-0.000371029
-0.000324151
-0.000278891
-0.000235919
-0.000195986
-0.000159871
-0.000127286
-9.80836e-05
-8.52495e-05
-8.78123e-05
-0.000592687
-0.000676949
-0.000664171
-0.000644421
-0.000616607
-0.000582701
-0.000544485
-0.000503012
-0.000459285
-0.000414269
-0.00036886
-0.000323889
-0.000280128
-0.000238303
-0.000199194
-0.00016353
-0.000130887
-0.000101478
-8.85366e-05
-8.60948e-05
-0.000506941
-0.000616022
-0.000617758
-0.000610599
-0.000592232
-0.000565321
-0.000532352
-0.000494839
-0.000454127
-0.000411433
-0.00036783
-0.000324269
-0.000281596
-0.00024058
-0.000202015
-0.000166597
-0.000133821
-0.000104134
-9.08327e-05
-8.51239e-05
-0.000474182
-0.000590873
-0.000598372
-0.000596403
-0.00058215
-0.000558422
-0.000527909
-0.000492286
-0.000453032
-0.00041147
-0.000368745
-0.000325857
-0.000283677
-0.000242984
-0.000204572
-0.000169117
-0.000136083
-0.000105999
-9.21311e-05
-8.47809e-05
-0.000490911
-0.000602192
-0.000607832
-0.000603931
-0.000588289
-0.000563583
-0.000532368
-0.000496249
-0.000456647
-0.000414834
-0.000371916
-0.000328854
-0.000286491
-0.000245577
-0.000206884
-0.000171079
-0.000137648
-0.000107043
-9.24313e-05
-8.49739e-05
-0.000557683
-0.00064903
-0.000645081
-0.000632143
-0.000609738
-0.000580053
-0.000545128
-0.00050625
-0.00046459
-0.00042122
-0.000377094
-0.000333061
-0.000289876
-0.00024823
-0.000208849
-0.000172408
-0.000138466
-0.000107238
-9.16918e-05
-8.57421e-05
-0.000679066
-0.000728809
-0.000706146
-0.000676897
-0.000642826
-0.000604846
-0.000563856
-0.000520504
-0.000475502
-0.000429594
-0.000383496
-0.000337883
-0.00029339
-0.000250623
-0.000210249
-0.000172964
-0.00013846
-0.000106568
-8.9836e-05
-8.72537e-05
-0.00087115
-0.000838062
-0.000783736
-0.000730944
-0.000681432
-0.000633117
-0.000584839
-0.000536195
-0.000487258
-0.000438352
-0.000389911
-0.000342417
-0.000296368
-0.000252285
-0.000210773
-0.000172556
-0.00013753
-0.000105074
-8.68037e-05
-8.96195e-05
-0.0011738
-0.000972228
-0.000868087
-0.000785307
-0.00071848
-0.000659457
-0.000604001
-0.000550269
-0.000497572
-0.000445789
-0.00039508
-0.000345746
-0.000298172
-0.000252802
-0.000210195
-0.00017109
-0.000135672
-0.000103016
-8.25997e-05
-9.25894e-05
-0.00150316
-0.00114565
-0.000961499
-0.000840559
-0.000753959
-0.000683601
-0.000620973
-0.000562326
-0.000506043
-0.000451513
-0.000398619
-0.000347496
-0.000298428
-0.000251807
-0.000208154
-0.000168223
-0.00013268
-0.000100564
-7.4582e-05
-9.94291e-05
-0.00143739
-0.001142
-0.000968169
-0.000847505
-0.000757621
-0.000684479
-0.000619905
-0.00055987
-0.000502549
-0.000447197
-0.000393621
-0.000341922
-0.000292378
-0.000245405
-0.000201537
-0.00016158
-0.000127029
-9.77828e-05
-5.16618e-05
-0.0001321
-0.0014329
-0.00113449
-0.000954961
-0.000831109
-0.000738921
-0.000665051
-0.000600933
-0.000541902
-0.000485757
-0.00043158
-0.00037911
-0.000328442
-0.000279888
-0.000233932
-0.000191206
-0.000152618
-0.000119404
-9.14477e-05
-6.75219e-05
-0.000111505
-0.00142338
-0.00112661
-0.000939741
-0.000810278
-0.000713529
-0.000637047
-0.000572378
-0.000514176
-0.000459605
-0.000407362
-0.000356972
-0.000308434
-0.000262032
-0.00021829
-0.000177896
-0.000141854
-0.000111251
-8.71167e-05
-7.05786e-05
-0.000106907
-0.00141868
-0.00113033
-0.0009363
-0.000798754
-0.00069462
-0.000612463
-0.000544536
-0.000485208
-0.000430998
-0.000380079
-0.000331626
-0.000285426
-0.000241629
-0.000200737
-0.000163371
-0.000130689
-0.000103399
-8.42776e-05
-6.8483e-05
-0.000110212
-0.00141591
-0.00114329
-0.000945957
-0.000800697
-0.00068841
-0.000598843
-0.000525318
-0.000462569
-0.000406833
-0.000355837
-0.000308363
-0.000263937
-0.000222466
-0.000184402
-0.000150085
-0.000121054
-9.67613e-05
-8.34246e-05
-6.54967e-05
-0.000116837
-0.00140101
-0.00115141
-0.000958403
-0.000809953
-0.00069215
-0.000596343
-0.000517059
-0.00044991
-0.000391365
-0.000339027
-0.000291402
-0.000247839
-0.000207931
-0.000172172
-0.000140284
-0.00011469
-9.22549e-05
-8.48814e-05
-6.26261e-05
-0.000124025
-0.00136286
-0.00114073
-0.000959752
-0.0008146
-0.000696181
-0.000597809
-0.000515159
-0.000444835
-0.000383871
-0.000330085
-0.000281893
-0.000238656
-0.000199613
-0.000165545
-0.000135124
-0.000112395
-9.02172e-05
-8.80547e-05
-5.99226e-05
-0.0001282
-0.00129942
-0.00110576
-0.000941838
-0.000805549
-0.000691356
-0.000594561
-0.000511932
-0.000440965
-0.000379316
-0.000325207
-0.000277062
-0.000234441
-0.000196145
-0.000163541
-0.000133835
-0.000113342
-9.00346e-05
-9.13857e-05
-5.71507e-05
-0.000125934
-0.00121487
-0.00104848
-0.00090365
-0.000779656
-0.000673214
-0.000581316
-0.000501712
-0.00043266
-0.000372339
-0.000319453
-0.000272446
-0.000231223
-0.000194051
-0.000163091
-0.000133856
-0.000115091
-9.01199e-05
-9.27342e-05
-5.39511e-05
-0.000115722
-0.00111537
-0.000973926
-0.000848192
-0.000737985
-0.000641371
-0.000556584
-0.000482176
-0.000417029
-0.000359728
-0.000309439
-0.000264624
-0.000225593
-0.000190078
-0.000161029
-0.000132454
-0.000114959
-8.87673e-05
-9.04128e-05
-4.99837e-05
-9.88327e-05
-0.00100622
-0.00088714
-0.000779492
-0.000683336
-0.00059753
-0.00052115
-0.000453336
-0.000393465
-0.000340419
-0.000293767
-0.000251993
-0.000215769
-0.000182441
-0.00015549
-0.000128043
-0.000111397
-8.50816e-05
-8.41287e-05
-4.52081e-05
-7.85627e-05
-0.000891263
-0.000792078
-0.000701166
-0.000618701
-0.000544006
-0.000476691
-0.000416303
-0.000362585
-0.000314652
-0.000272372
-0.000234299
-0.000201333
-0.000170697
-0.000145978
-0.00012027
-0.000104224
-7.90748e-05
-7.48784e-05
-3.98996e-05
-5.85037e-05
-0.000773127
-0.000691622
-0.000616064
-0.000546657
-0.000482992
-0.000424998
-0.000372494
-0.000325469
-0.00028323
-0.000245839
-0.000211987
-0.000182628
-0.000155158
-0.000132833
-0.000109493
-9.40908e-05
-7.12194e-05
-6.41226e-05
-3.44031e-05
-4.11664e-05
-0.000653554
-0.00058782
-0.000526324
-0.000469244
-0.000416325
-0.000367672
-0.000323269
-0.000283255
-0.000247106
-0.000214973
-0.000185753
-0.000160303
-0.000136417
-0.000116729
-9.62937e-05
-8.18768e-05
-6.20385e-05
-5.30638e-05
-2.89421e-05
-2.76064e-05
-0.000533674
-0.000482107
-0.000433517
-0.000388036
-0.000345488
-0.000306057
-0.000269826
-0.000236999
-0.000207199
-0.000180597
-0.000156326
-0.000135063
-0.000115106
-9.8364e-05
-8.12371e-05
-6.83368e-05
-5.1938e-05
-4.23845e-05
-2.35979e-05
-1.77531e-05
-0.000414173
-0.000375449
-0.000338784
-0.000304237
-0.000271669
-0.000241283
-0.000213206
-0.00018765
-0.000164363
-0.00014349
-0.000124403
-0.000107576
-9.18082e-05
-7.83481e-05
-6.48026e-05
-5.40051e-05
-4.12086e-05
-3.23224e-05
-1.83697e-05
-1.09349e-05
-0.000295429
-0.000268455
-0.000242897
-0.000218712
-0.00019577
-0.000174249
-0.000154276
-0.00013603
-0.000119353
-0.000104354
-9.0615e-05
-7.84359e-05
-6.70442e-05
-5.71747e-05
-4.73847e-05
-3.92243e-05
-3.00691e-05
-2.28633e-05
-1.32168e-05
-6.28065e-06
-0.000177786
-0.000161782
-0.00014664
-0.000132262
-0.000118589
-0.00010574
-9.37884e-05
-8.28501e-05
-7.28314e-05
-6.3804e-05
-5.55221e-05
-4.81553e-05
-4.12683e-05
-3.52397e-05
-2.93152e-05
-2.42154e-05
-1.87122e-05
-1.39531e-05
-8.1946e-06
-2.89482e-06
-6.14668e-05
-5.67647e-05
-5.16851e-05
-4.67167e-05
-4.20154e-05
-3.76204e-05
-3.35378e-05
-2.98077e-05
-2.63918e-05
-2.33195e-05
-2.05003e-05
-1.79932e-05
-1.56504e-05
-1.35838e-05
-1.15691e-05
-9.77355e-06
-7.91714e-06
-6.14527e-06
-4.26253e-06
-1.80555e-06
-0.0325995
-0.0161635
-0.0157791
-0.0114962
-0.00934581
-0.00737146
-0.00579963
-0.0044633
-0.00330251
-0.00239689
-0.0217736
-0.0145609
-0.0140126
-0.0109956
-0.00897095
-0.00717238
-0.00565221
-0.00434717
-0.0032031
-0.00219326
-0.0158944
-0.012869
-0.0123962
-0.0103507
-0.00851686
-0.00687853
-0.00545019
-0.00419862
-0.00309349
-0.00211325
-0.0108373
-0.0102789
-0.010198
-0.00921048
-0.0078436
-0.00645296
-0.00516573
-0.00400139
-0.00295842
-0.0020341
-0.00688566
-0.00772514
-0.00802703
-0.00776719
-0.00695407
-0.00589052
-0.00479835
-0.00376089
-0.0028089
-0.00196503
-0.00408905
-0.0056831
-0.00618908
-0.00632636
-0.00595852
-0.00522549
-0.00435646
-0.00347805
-0.00264493
-0.00189945
-0.00217922
-0.0041439
-0.00472604
-0.00505896
-0.00499032
-0.00453357
-0.00387579
-0.0031623
-0.00246121
-0.00182195
-0.000863387
-0.00297132
-0.00359753
-0.00401318
-0.00412636
-0.00387696
-0.0033982
-0.00283418
-0.00225988
-0.00172386
2.87122e-05
-0.00206105
-0.0027334
-0.00317748
-0.00338816
-0.00328466
-0.00294982
-0.00251229
-0.00204906
-0.00160563
0.000605462
-0.0013506
-0.00206933
-0.0025152
-0.0027689
-0.0027627
-0.00254041
-0.00220689
-0.00183677
-0.00147263
0.000946068
-0.000803486
-0.00155466
-0.00198813
-0.00225215
-0.00230719
-0.00217066
-0.00192152
-0.00162825
-0.00133093
0.0011133
-0.000400241
-0.0011523
-0.00156552
-0.00182157
-0.00191143
-0.00183796
-0.00165642
-0.00142635
-0.0011852
0.00115325
-0.00012147
-0.000836761
-0.00122439
-0.00146286
-0.00156847
-0.00153898
-0.0014106
-0.00123239
-0.00103856
0.00110068
5.75574e-05
-0.00059107
-0.000947832
-0.00116346
-0.00127139
-0.00127032
-0.00118265
-0.00104678
-0.000892884
0.000986057
0.000158928
-0.000403521
-0.000722945
-0.000912226
-0.00101328
-0.00102844
-0.000970958
-0.000869388
-0.000749242
0.000833549
0.000200551
-0.000264792
-0.000539329
-0.000699275
-0.00078736
-0.000809628
-0.000773677
-0.000699669
-0.000608162
0.000659942
0.000197155
-0.000166052
-0.000388108
-0.000515873
-0.000587111
-0.000609978
-0.000588717
-0.000536786
-0.00046979
0.000475524
0.000161158
-9.82782e-05
-0.000261407
-0.000354406
-0.000406419
-0.000425455
-0.000413739
-0.000379619
-0.000333984
0.000286037
0.000103294
-5.25278e-05
-0.000152147
-0.000208429
-0.000239849
-0.000252187
-0.00024641
-0.000226971
-0.000200428
9.52092e-05
3.41024e-05
-1.87913e-05
-5.27546e-05
-7.17502e-05
-8.2272e-05
-8.64538e-05
-8.45508e-05
-7.79223e-05
-6.86193e-05
0.0017758
0.00178757
0.00194379
0.00209743
0.00239905
0.00267656
0.00317152
0.00361011
0.00436897
0.00501058
0.00614992
0.0070502
0.00877452
0.00998385
0.0126918
0.0141232
0.0186958
0.0189833
0.0270667
0.0081167
0.00174557
0.00175716
0.00190883
0.00206192
0.00235516
0.00262978
0.00311003
0.00354314
0.00427688
0.00490752
0.00600138
0.00687686
0.00850967
0.00965199
0.0121417
0.0133624
0.0172326
0.0169238
0.0207959
0.00659233
0.00170622
0.0017184
0.00186482
0.00201592
0.00229983
0.00256965
0.00303347
0.00345799
0.00416362
0.00477876
0.00582156
0.00666629
0.00819537
0.00926822
0.0115054
0.0125644
0.0156135
0.0151915
0.0158151
0.00876795
0.00165807
0.00167158
0.00181165
0.0019601
0.00223293
0.00249716
0.00294166
0.00335626
0.00402905
0.00462714
0.00561075
0.00642433
0.00783394
0.00884618
0.0107967
0.011757
0.0139525
0.0136713
0.0123177
0.0102533
0.00160153
0.0016168
0.00174962
0.00189475
0.00215491
0.00241271
0.00283522
0.0032387
0.00387427
0.00445423
0.00537124
0.00615459
0.0074316
0.00839411
0.0100382
0.0109495
0.0123809
0.0123794
0.0100961
0.0105552
0.00153698
0.00155424
0.00167907
0.00182023
0.00206627
0.00231677
0.00271492
0.00310608
0.00370065
0.00426149
0.00510598
0.00586009
0.00699634
0.00791792
0.00925908
0.0101451
0.0109697
0.0113108
0.00859733
0.00985227
0.00146485
0.00148417
0.00160037
0.00173691
0.00196756
0.00220984
0.00258159
0.00295922
0.0035097
0.00405034
0.00481837
0.00554347
0.00653747
0.00742171
0.00848914
0.00935389
0.00974654
0.0103445
0.00744752
0.00869226
0.00138557
0.00140688
0.00151394
0.00164522
0.00185939
0.00209247
0.00243618
0.0027989
0.00330319
0.00382207
0.00451223
0.00520685
0.00606471
0.00690863
0.00774387
0.00859292
0.00867623
0.00939563
0.00649266
0.00746236
0.00129964
0.00132269
0.00142025
0.00154558
0.00174244
0.00196519
0.00227974
0.0026259
0.00308299
0.00357783
0.00419138
0.00485198
0.00558507
0.00638466
0.00702867
0.00785218
0.00771716
0.00844632
0.00568199
0.00631811
0.00120753
0.00123196
0.00131981
0.00143844
0.00161744
0.00182856
0.00211336
0.00244096
0.00285095
0.00331871
0.00385894
0.0044812
0.00510227
0.00585355
0.00634124
0.00712097
0.00684123
0.0075089
0.00498994
0.00530313
0.00110976
0.00113505
0.00121317
0.00132428
0.00148515
0.00168316
0.00193813
0.00224487
0.00260869
0.00304599
0.00351695
0.00409689
0.00461821
0.00531576
0.0056773
0.00639648
0.00603242
0.00660251
0.00439096
0.00442105
0.00100685
0.00103237
0.00110089
0.0012036
0.00134631
0.00152962
0.00175504
0.00203851
0.00235748
0.00276103
0.00316704
0.00370056
0.00413372
0.00477177
0.00503331
0.00568019
0.00528027
0.00573944
0.00385781
0.00366282
0.000899332
0.000924368
0.00098352
0.00107695
0.00120166
0.00136861
0.00156499
0.00182278
0.00209849
0.00246502
0.00281046
0.00329351
0.0036491
0.00422265
0.00440664
0.00497451
0.00457554
0.00492439
0.00336693
0.00301459
0.000787728
0.000811519
0.00086165
0.000944907
0.00105188
0.00120087
0.00136886
0.00159862
0.00183276
0.0021591
0.00244815
0.002877
0.00316449
0.00366964
0.00379489
0.00428105
0.00390909
0.0041573
0.00290121
0.00245933
0.00067258
0.000694356
0.000735856
0.000808096
0.000897695
0.00102714
0.00116749
0.00136695
0.00156124
0.00184441
0.00208096
0.00245219
0.00267988
0.00311369
0.00319552
0.0036003
0.00327221
0.00343544
0.00244934
0.00197862
0.000554428
0.000573449
0.000606727
0.000667158
0.000739773
0.000848213
0.000961678
0.00112872
0.00128481
0.00152199
0.00170958
0.00202005
0.00219511
0.00255532
0.00260582
0.00293162
0.00265707
0.00275427
0.00200412
0.00155503
0.000433811
0.000449409
0.000474862
0.000522773
0.000578803
0.000664897
0.000752236
0.000884899
0.00100434
0.00119287
0.00133468
0.0015814
0.0017099
0.0019946
0.00202304
0.00227336
0.00205688
0.00210781
0.00156106
0.0011732
0.000311268
0.000322877
0.000340864
0.000375648
0.00041548
0.000478061
0.000539992
0.000636506
0.000720721
0.000858118
0.000956977
0.00113699
0.00122405
0.00143119
0.00144473
0.00162292
0.00146604
0.00148879
0.0011176
0.000820167
0.000187347
0.000194501
0.000205332
0.000226468
0.000250474
0.000288536
0.000325752
0.000384517
0.000434873
0.000518722
0.000577257
0.000687386
0.000737647
0.000864429
0.000869175
0.000976878
0.000880643
0.000889024
0.000672774
0.000485542
6.26025e-05
6.49674e-05
6.8744e-05
7.57969e-05
8.40721e-05
9.67928e-05
0.000109615
0.000129243
0.000146621
0.000174632
0.00019489
0.000231712
0.000249197
0.00029161
0.000293547
0.000329333
0.000297039
0.000298593
0.000226538
0.000161566
0.001732
0.00174076
0.00190179
0.00204505
0.00235222
0.00261693
0.00312251
0.0035445
0.00432371
0.00494736
0.00612757
0.00701569
0.00882406
0.0100528
0.0129468
0.0145419
0.0196005
0.02085
0.0313207
0.0215207
0.00175628
0.00176569
0.00192912
0.00207337
0.00238543
0.00265273
0.00316644
0.00359253
0.00438497
0.00501544
0.00621831
0.00712036
0.00897269
0.010241
0.013239
0.0149913
0.0203525
0.0224524
0.033471
0.0307436
0.00177623
0.00178636
0.00195131
0.00209689
0.00241228
0.00268234
0.00320166
0.00363198
0.00443361
0.00507083
0.00628963
0.00720451
0.00908858
0.0103915
0.0134673
0.0153553
0.0209481
0.0237419
0.035112
0.0366967
0.0017919
0.00180256
0.00196856
0.0021153
0.00243305
0.00270533
0.00322854
0.00366222
0.00447013
0.0051125
0.00634201
0.00726636
0.00917158
0.0104996
0.0136277
0.015615
0.0213604
0.0246523
0.0361591
0.0402847
0.00180322
0.00181426
0.00198084
0.00212853
0.00244768
0.00272161
0.00324704
0.00368313
0.00449444
0.00514025
0.0063752
0.00730524
0.00922082
0.0105627
0.0137165
0.0157564
0.0215769
0.0251283
0.0366849
0.041986
0.00181016
0.00182147
0.00198811
0.0021366
0.00245611
0.00273121
0.00325708
0.00369471
0.00450641
0.00515405
0.00638899
0.00732097
0.00923573
0.0105793
0.0137315
0.0157729
0.0215925
0.0251481
0.0367212
0.0420573
0.00181271
0.00182418
0.00199035
0.00213949
0.00245835
0.0027341
0.00325865
0.00369698
0.00450604
0.00515391
0.00638339
0.00731355
0.00921633
0.0105497
0.013672
0.0156645
0.0214068
0.0247106
0.0362668
0.0404992
0.00181088
0.00182233
0.0019876
0.00213716
0.00245445
0.00273026
0.00325184
0.00368989
0.0044935
0.00513986
0.0063587
0.0072833
0.00916336
0.0104755
0.0135418
0.0154386
0.0210247
0.0238377
0.0352814
0.0370476
0.00180474
0.00181588
0.00197987
0.00212966
0.00244443
0.00271971
0.0032367
0.00367355
0.00446886
0.00511216
0.00631516
0.00723098
0.00907769
0.0103595
0.0133437
0.0151097
0.020458
0.0225852
0.0336907
0.0311951
0.00179422
0.00180512
0.00196678
0.00211742
0.00242783
0.00270314
0.00321255
0.00364893
0.00443127
0.00507227
0.00625177
0.00715904
0.00895882
0.0102072
0.0130815
0.0146975
0.0197348
0.021014
0.031622
0.0220515
)
;

boundaryField
{
    inlet
    {
        type            zeroGradient;
    }
    outlet
    {
        type            fixedValue;
        value           uniform 0;
    }
    upAndBottom
    {
        type            empty;
    }
    obstacle
    {
        type            zeroGradient;
    }
}


// ************************************************************************* //
