x,y,z,U_0,U_1,U_2
0,0,0,0.3,8.86577e-06,0
0,0.1,0,0.3,6.3327e-06,0
0,0.2,0,0.3,3.79962e-06,0
0,0.3,0,0.3,1.26654e-06,0
0,0.4,0,0.3,0,0
0,0.5,0,0.3,0,0
0,0.6,0,0.3,0,0
0,0.7,0,0.3,-2.17165e-20,0
0,0.8,0,0.3,0,0
0,0.9,0,0.3,0,0
0,1,0,0.3,0,0
0,1.1,0,0.3,0,0
0,1.2,0,0.3,0,0
0,1.3,0,0.3,0,0
0,1.4,0,0.3,0,0
0,1.5,0,0.3,0,0
0,1.6,0,0.3,0,0
0,1.7,0,0.3,0,0
0,1.8,0,0.3,0,0
0,1.9,0,0.3,0,0
0,2,0,0.3,0,0
0,2.1,0,0.3,0,0
0,2.2,0,0.3,0,0
0,2.3,0,0.3,0,0
0,2.4,0,0.3,0,0
0,2.5,0,0.3,0,0
0,2.6,0,0.3,0,0
0,2.7,0,0.3,0,0
0,2.8,0,0.3,0,0
0,2.9,0,0.3,0,0
0,3,0,0.3,0,0
0,3.1,0,0.3,0,0
0,3.2,0,0.3,0,0
0,3.3,0,0.3,0,0
0,3.4,0,0.3,0,0
0,3.5,0,0.3,0,0
0,3.6,0,0.3,0,0
0,3.7,0,0.3,0,0
0,3.8,0,0.3,0,0
0,3.9,0,0.3,0,0
0,4,0,0.3,0,0
0,4.1,0,0.3,0,0
0,4.2,0,0.3,0,0
0,4.3,0,0.3,0,0
0,4.4,0,0.3,0,0
0,4.5,0,0.3,0,0
0,4.6,0,0.3,0,0
0,4.7,0,0.3,0,0
0,4.8,0,0.3,0,0
0,4.9,0,0.3,-1.20596e-20,0
0,5,0,0.3,0,0
0,5.1,0,0.3,0,0
0,5.2,0,0.3,0,0
0,5.3,0,0.3,0,0
0,5.4,0,0.3,0,0
0,5.5,0,0.3,0,0
0,5.6,0,0.3,-6.96786e-21,0
0,5.7,0,0.3,0,0
0,5.8,0,0.3,0,0
0,5.9,0,0.3,0,0
0,6,0,0.3,0,0
0,6.1,0,0.3,0,0
0,6.2,0,0.3,0,0
0,6.3,0,0.3,-7.68066e-22,0
0,6.4,0,0.3,0,0
0,6.5,0,0.3,0,0
0,6.6,0,0.3,0,0
0,6.7,0,0.3,0,0
0,6.8,0,0.3,0,0
0,6.9,0,0.3,0,0
0,7,0,0.3,0,0
0,7.1,0,0.3,0,0
0,7.2,0,0.3,5.94689e-21,0
0,7.3,0,0.3,6.23707e-21,0
0,7.4,0,0.3,6.53416e-21,0
0,7.5,0,0.3,0,0
0,7.6,0,0.3,7.13352e-21,0
0,7.7,0,0.3,0,0
0,7.8,0,0.3,7.73311e-21,0
0,7.9,0,0.3,0,0
0,8,0,0.3,0,0
0,8.1,0,0.3,0,0
0,8.2,0,0.3,0,0
0,8.3,0,0.3,0,0
0,8.4,0,0.3,0,0
0,8.5,0,0.3,0,0
0,8.6,0,0.3,0,0
0,8.7,0,0.3,0,0
0,8.8,0,0.3,0,0
0,8.9,0,0.3,0,0
0,9,0,0.3,0,0
0,9.1,0,0.3,0,0
0,9.2,0,0.3,0,0
0,9.3,0,0.3,0,0
0,9.4,0,0.3,0,0
0,9.5,0,0.3,0,0
0,9.6,0,0.3,0,0
0,9.7,0,0.3,0,0
0,9.8,0,0.3,0,0
0,9.9,0,0.3,0,0
0,10,0,0.3,0,0
0,10.1,0,0.3,0,0
0,10.2,0,0.3,0,0
0,10.3,0,0.3,0,0
0,10.4,0,0.3,0,0
0,10.5,0,0.3,0,0
0,10.6,0,0.3,0,0
0,10.7,0,0.3,0,0
0,10.8,0,0.3,0,0
0,10.9,0,0.3,0,0
0,11,0,0.3,0,0
0,11.1,0,0.3,0,0
0,11.2,0,0.3,0,0
0,11.3,0,0.3,0,0
0,11.4,0,0.3,0,0
0,11.5,0,0.3,0,0
0,11.6,0,0.3,0,0
0,11.7,0,0.3,0,0
0,11.8,0,0.3,0,0
0,11.9,0,0.3,0,0
0,12,0,0.3,0,0
0,12.1,0,0.3,0,0
0,12.2,0,0.3,0,0
0,12.3,0,0.3,0,0
0,12.4,0,0.3,0,0
0,12.5,0,0.3,-1.60162e-05,0
0,12.6,0,0.300001,-6.17769e-05,0
0,12.7,0,0.300002,-0.000107538,0
0.1,0,0,0.299999,-1.27344e-05,0
0.1,0.1,0,0.3,9.69586e-06,0
0.1,0.2,0,0.3,7.16278e-06,0
0.1,0.3,0,0.3,4.6297e-06,0
0.1,0.4,0,0.299999,5.23516e-06,0
0.1,0.5,0,0.299999,5.23516e-06,0
0.1,0.6,0,0.299999,5.23516e-06,0
0.1,0.7,0,0.299999,-2.05899e-05,0
0.1,0.8,0,0.299998,6.79585e-06,0
0.1,0.9,0,0.299998,6.79585e-06,0
0.1,1,0,0.299998,6.79585e-06,0
0.1,1.1,0,0.299997,9.0132e-06,0
0.1,1.2,0,0.299997,9.0132e-06,0
0.1,1.3,0,0.299997,9.0132e-06,0
0.1,1.4,0,0.299998,-2.03025e-05,0
0.1,1.5,0,0.299997,1.17717e-05,0
0.1,1.6,0,0.299997,1.17717e-05,0
0.1,1.7,0,0.299997,1.17717e-05,0
0.1,1.8,0,0.299996,1.49167e-05,0
0.1,1.9,0,0.299996,1.49167e-05,0
0.1,2,0,0.299996,1.49167e-05,0
0.1,2.1,0,0.299998,-1.97429e-05,0
0.1,2.2,0,0.299996,1.827e-05,0
0.1,2.3,0,0.299996,1.827e-05,0
0.1,2.4,0,0.299996,1.827e-05,0
0.1,2.5,0,0.299995,2.16257e-05,0
0.1,2.6,0,0.299995,2.16257e-05,0
0.1,2.7,0,0.299995,2.16257e-05,0
0.1,2.8,0,0.299998,-1.87887e-05,0
0.1,2.9,0,0.299994,2.47531e-05,0
0.1,3,0,0.299994,2.47531e-05,0
0.1,3.1,0,0.299994,2.47531e-05,0
0.1,3.2,0,0.299993,2.7396e-05,0
0.1,3.3,0,0.299993,2.7396e-05,0
0.1,3.4,0,0.299993,2.7396e-05,0
0.1,3.5,0,0.299998,-1.72686e-05,0
0.1,3.6,0,0.299992,2.92733e-05,0
0.1,3.7,0,0.299992,2.92733e-05,0
0.1,3.8,0,0.299992,2.92733e-05,0
0.1,3.9,0,0.29999,3.00764e-05,0
0.1,4,0,0.29999,3.00764e-05,0
0.1,4.1,0,0.29999,3.00764e-05,0
0.1,4.2,0,0.3,-1.49269e-05,0
0.1,4.3,0,0.299987,2.94916e-05,0
0.1,4.4,0,0.299987,2.94916e-05,0
0.1,4.5,0,0.299987,2.94916e-05,0
0.1,4.6,0,0.299984,2.72589e-05,0
0.1,4.7,0,0.299984,2.72589e-05,0
0.1,4.8,0,0.299984,2.72589e-05,0
0.1,4.9,0,0.300002,-1.1434e-05,0
0.1,5,0,0.299983,2.32512e-05,0
0.1,5.1,0,0.299983,2.32512e-05,0
0.1,5.2,0,0.299983,2.32512e-05,0
0.1,5.3,0,0.299985,1.75941e-05,0
0.1,5.4,0,0.299985,1.75941e-05,0
0.1,5.5,0,0.299985,1.75941e-05,0
0.1,5.6,0,0.300003,-6.60641e-06,0
0.1,5.7,0,0.299995,1.07575e-05,0
0.1,5.8,0,0.299995,1.07575e-05,0
0.1,5.9,0,0.299995,1.07575e-05,0
0.1,6,0,0.300011,3.46501e-06,0
0.1,6.1,0,0.300011,3.46501e-06,0
0.1,6.2,0,0.300011,3.46501e-06,0
0.1,6.3,0,0.300001,-7.28224e-07,0
0.1,6.4,0,0.300032,-2.69017e-06,0
0.1,6.5,0,0.300032,-2.69017e-06,0
0.1,6.6,0,0.300032,-2.69017e-06,0
0.1,6.7,0,0.300053,-8.20469e-06,0
0.1,6.8,0,0.300053,-8.20469e-06,0
0.1,6.9,0,0.300053,-8.20469e-06,0
0.1,7,0,0.299997,4.67648e-06,0
0.1,7.1,0,0.299996,5.35161e-06,0
0.1,7.2,0,0.299995,5.63841e-06,0
0.1,7.3,0,0.299995,5.91353e-06,0
0.1,7.4,0,0.299995,6.19521e-06,0
0.1,7.5,0,0.299995,6.47901e-06,0
0.1,7.6,0,0.299995,6.76348e-06,0
0.1,7.7,0,0.299995,7.04811e-06,0
0.1,7.8,0,0.299996,7.33196e-06,0
0.1,7.9,0,0.299996,7.63203e-06,0
0.1,8,0,0.299997,8.13189e-06,0
0.1,8.1,0,0.300047,-5.08463e-07,0
0.1,8.2,0,0.300047,-5.08463e-07,0
0.1,8.3,0,0.30003,-2.25655e-06,0
0.1,8.4,0,0.30003,-2.25655e-06,0
0.1,8.5,0,0.300011,-4.90291e-06,0
0.1,8.6,0,0.300011,-4.90291e-06,0
0.1,8.7,0,0.300005,8.81603e-06,0
0.1,8.8,0,0.299993,-8.55377e-06,0
0.1,8.9,0,0.299993,-8.55377e-06,0
0.1,9,0,0.299979,-1.30105e-05,0
0.1,9.1,0,0.299979,-1.30105e-05,0
0.1,9.2,0,0.299968,-1.79695e-05,0
0.1,9.3,0,0.299968,-1.79695e-05,0
0.1,9.4,0,0.299991,2.79769e-06,0
0.1,9.5,0,0.299962,-2.31074e-05,0
0.1,9.6,0,0.299962,-2.31074e-05,0
0.1,9.7,0,0.29996,-2.81309e-05,0
0.1,9.8,0,0.29996,-2.81309e-05,0
0.1,9.9,0,0.29997,-2.27721e-05,0
0.1,10,0,0.299962,-3.28099e-05,0
0.1,10.1,0,0.299979,-1.17105e-05,0
0.1,10.2,0,0.299966,-3.69939e-05,0
0.1,10.3,0,0.299966,-3.69939e-05,0
0.1,10.4,0,0.299972,-4.06118e-05,0
0.1,10.5,0,0.299972,-4.06118e-05,0
0.1,10.6,0,0.299988,-1.75042e-05,0
0.1,10.7,0,0.299978,-4.36564e-05,0
0.1,10.8,0,0.299983,-3.07776e-05,0
0.1,10.9,0,0.299984,-4.61629e-05,0
0.1,11,0,0.299984,-4.61629e-05,0
0.1,11.1,0,0.299988,-4.81869e-05,0
0.1,11.2,0,0.299988,-4.81869e-05,0
0.1,11.3,0,0.299998,-5.28866e-06,0
0.1,11.4,0,0.299993,-4.97884e-05,0
0.1,11.5,0,0.299993,-4.97884e-05,0
0.1,11.6,0,0.299996,-5.10206e-05,0
0.1,11.7,0,0.299996,-5.10206e-05,0
0.1,11.8,0,0.299998,-5.19263e-05,0
0.1,11.9,0,0.299998,-5.19263e-05,0
0.1,12,0,0.3,1.02332e-05,0
0.1,12.1,0,0.3,-5.25375e-05,0
0.1,12.2,0,0.3,-5.25375e-05,0
0.1,12.3,0,0.300001,-5.28867e-05,0
0.1,12.4,0,0.300001,-5.28867e-05,0
0.1,12.5,0,0.300001,-5.77348e-05,0
0.1,12.6,0,0.300002,-0.000103496,0
0.1,12.7,0,0.300002,-6.96987e-05,0
0.2,0,0,0.299999,-3.43345e-05,0
0.2,0.1,0,0.299999,1.3059e-05,0
0.2,0.2,0,0.299999,1.05259e-05,0
0.2,0.3,0,0.299999,-7.44414e-06,0
0.2,0.4,0,0.299998,-6.17011e-06,0
0.2,0.5,0,0.299998,1.04703e-05,0
0.2,0.6,0,0.299998,1.04703e-05,0
0.2,0.7,0,0.299998,-4.11799e-05,0
0.2,0.8,0,0.299997,1.35917e-05,0
0.2,0.9,0,0.299997,1.35917e-05,0
0.2,1,0,0.299997,-3.93974e-06,0
0.2,1.1,0,0.299996,-9.30486e-07,0
0.2,1.2,0,0.299995,1.80264e-05,0
0.2,1.3,0,0.299995,1.80264e-05,0
0.2,1.4,0,0.299996,-4.0605e-05,0
0.2,1.5,0,0.299994,2.35433e-05,0
0.2,1.6,0,0.299994,2.35433e-05,0
0.2,1.7,0,0.299994,3.07791e-06,0
0.2,1.8,0,0.299994,7.34623e-06,0
0.2,1.9,0,0.299992,2.98335e-05,0
0.2,2,0,0.299992,2.98335e-05,0
0.2,2.1,0,0.299995,-3.94858e-05,0
0.2,2.2,0,0.299991,3.654e-05,0
0.2,2.3,0,0.299991,3.654e-05,0
0.2,2.4,0,0.299992,1.23722e-05,0
0.2,2.5,0,0.299992,1.69263e-05,0
0.2,2.6,0,0.29999,4.32514e-05,0
0.2,2.7,0,0.29999,4.32514e-05,0
0.2,2.8,0,0.299995,-3.75774e-05,0
0.2,2.9,0,0.299989,4.95061e-05,0
0.2,3,0,0.299989,4.95061e-05,0
0.2,3.1,0,0.299991,2.19495e-05,0
0.2,3.2,0,0.29999,2.55364e-05,0
0.2,3.3,0,0.299987,5.4792e-05,0
0.2,3.4,0,0.299987,5.4792e-05,0
0.2,3.5,0,0.299996,-3.45371e-05,0
0.2,3.6,0,0.299984,5.85465e-05,0
0.2,3.7,0,0.299984,5.85465e-05,0
0.2,3.8,0,0.299988,2.93002e-05,0
0.2,3.9,0,0.299985,3.03902e-05,0
0.2,4,0,0.299979,6.01528e-05,0
0.2,4.1,0,0.299979,6.01528e-05,0
0.2,4.2,0,0.299999,-2.98537e-05,0
0.2,4.3,0,0.299973,5.89832e-05,0
0.2,4.4,0,0.299973,5.89832e-05,0
0.2,4.5,0,0.299982,3.14471e-05,0
0.2,4.6,0,0.299979,2.84171e-05,0
0.2,4.7,0,0.299968,5.45179e-05,0
0.2,4.8,0,0.299968,5.45179e-05,0
0.2,4.9,0,0.300004,-2.28681e-05,0
0.2,5,0,0.299965,4.65023e-05,0
0.2,5.1,0,0.299965,4.65023e-05,0
0.2,5.2,0,0.299978,2.56505e-05,0
0.2,5.3,0,0.299982,1.79731e-05,0
0.2,5.4,0,0.299971,3.51883e-05,0
0.2,5.5,0,0.299971,3.51883e-05,0
0.2,5.6,0,0.300006,-1.32128e-05,0
0.2,5.7,0,0.299989,2.15151e-05,0
0.2,5.8,0,0.299989,2.15151e-05,0
0.2,5.9,0,0.299994,1.21856e-05,0
0.2,6,0,0.300016,2.28858e-06,0
0.2,6.1,0,0.300021,6.93002e-06,0
0.2,6.2,0,0.300021,6.93002e-06,0
0.2,6.3,0,0.300002,-1.45645e-06,0
0.2,6.4,0,0.300064,-5.38034e-06,0
0.2,6.5,0,0.300064,-5.38034e-06,0
0.2,6.6,0,0.300043,-2.05891e-06,0
0.2,6.7,0,0.300072,-9.54291e-06,0
0.2,6.8,0,0.300107,-1.64094e-05,0
0.2,6.9,0,0.300107,-1.64094e-05,0
0.2,7,0,0.299994,9.35297e-06,0
0.2,7.1,0,0.299992,1.07032e-05,0
0.2,7.2,0,0.299991,1.12768e-05,0
0.2,7.3,0,0.29999,1.18271e-05,0
0.2,7.4,0,0.29999,1.23904e-05,0
0.2,7.5,0,0.29999,1.2958e-05,0
0.2,7.6,0,0.29999,1.3527e-05,0
0.2,7.7,0,0.29999,1.40962e-05,0
0.2,7.8,0,0.299991,1.46639e-05,0
0.2,7.9,0,0.299992,1.52641e-05,0
0.2,8,0,0.299994,1.62638e-05,0
0.2,8.1,0,0.300094,-1.01693e-06,0
0.2,8.2,0,0.300066,4.66746e-06,0
0.2,8.3,0,0.300059,-4.51309e-06,0
0.2,8.4,0,0.300059,-4.51309e-06,0
0.2,8.5,0,0.300014,2.49582e-06,0
0.2,8.6,0,0.300022,-9.80581e-06,0
0.2,8.7,0,0.300007,2.11075e-05,0
0.2,8.8,0,0.299987,-1.71075e-05,0
0.2,8.9,0,0.299991,-8.52721e-06,0
0.2,9,0,0.299958,-2.60211e-05,0
0.2,9.1,0,0.299958,-2.60211e-05,0
0.2,9.2,0,0.299973,-2.93087e-06,0
0.2,9.3,0,0.299936,-3.5939e-05,0
0.2,9.4,0,0.299997,1.96874e-05,0
0.2,9.5,0,0.299925,-4.62147e-05,0
0.2,9.6,0,0.299933,-3.87255e-05,0
0.2,9.7,0,0.299921,-5.62619e-05,0
0.2,9.8,0,0.299921,-5.62619e-05,0
0.2,9.9,0,0.299976,-3.1622e-06,0
0.2,10,0,0.299924,-6.56198e-05,0
0.2,10.1,0,0.299984,9.08336e-06,0
0.2,10.2,0,0.299933,-7.39878e-05,0
0.2,10.3,0,0.299933,-7.39878e-05,0
0.2,10.4,0,0.299944,-8.12236e-05,0
0.2,10.5,0,0.299944,-8.12236e-05,0
0.2,10.6,0,0.299991,5.28017e-06,0
0.2,10.7,0,0.299956,-8.73128e-05,0
0.2,10.8,0,0.299985,-7.17785e-06,0
0.2,10.9,0,0.299967,-9.23259e-05,0
0.2,11,0,0.299967,-9.23259e-05,0
0.2,11.1,0,0.299979,-8.32636e-05,0
0.2,11.2,0,0.299977,-9.63739e-05,0
0.2,11.3,0,0.299999,1.96189e-05,0
0.2,11.4,0,0.299985,-9.95768e-05,0
0.2,11.5,0,0.299994,-2.51767e-05,0
0.2,11.6,0,0.299992,-0.000102041,0
0.2,11.7,0,0.299992,-0.000102041,0
0.2,11.8,0,0.299998,-7.40772e-05,0
0.2,11.9,0,0.299997,-0.000103853,0
0.2,12,0,0.300001,3.63684e-05,0
0.2,12.1,0,0.3,-0.000105075,0
0.2,12.2,0,0.3,-4.29686e-05,0
0.2,12.3,0,0.300001,-0.000105773,0
0.2,12.4,0,0.300001,-0.000105773,0
0.2,12.5,0,0.300001,-5.95502e-05,0
0.2,12.6,0,0.300003,-0.000145214,0
0.2,12.7,0,0.300002,-3.18598e-05,0
0.3,0,0,0.299999,-5.59346e-05,0
0.3,0.1,0,0.299999,9.28981e-06,0
0.3,0.2,0,0.299999,1.38891e-05,0
0.3,0.3,0,0.299999,-2.80941e-05,0
0.3,0.4,0,0.299998,-2.68201e-05,0
0.3,0.5,0,0.299997,1.57055e-05,0
0.3,0.6,0,0.299997,8.32687e-06,0
0.3,0.7,0,0.299997,-6.17698e-05,0
0.3,0.8,0,0.299995,1.2563e-05,0
0.3,0.9,0,0.299995,2.03876e-05,0
0.3,1,0,0.299995,-2.4415e-05,0
0.3,1.1,0,0.299994,-2.14058e-05,0
0.3,1.2,0,0.299992,2.70396e-05,0
0.3,1.3,0,0.299993,1.86637e-05,0
0.3,1.4,0,0.299995,-6.09076e-05,0
0.3,1.5,0,0.299991,2.61509e-05,0
0.3,1.6,0,0.299991,3.5315e-05,0
0.3,1.7,0,0.299992,-1.69855e-05,0
0.3,1.8,0,0.299991,-1.27172e-05,0
0.3,1.9,0,0.299989,4.47502e-05,0
0.3,2,0,0.299989,3.48475e-05,0
0.3,2.1,0,0.299993,-5.92287e-05,0
0.3,2.2,0,0.299987,4.39492e-05,0
0.3,2.3,0,0.299987,5.481e-05,0
0.3,2.4,0,0.29999,-6.95216e-06,0
0.3,2.5,0,0.299989,-2.39801e-06,0
0.3,2.6,0,0.299985,6.48771e-05,0
0.3,2.7,0,0.299986,5.33301e-05,0
0.3,2.8,0,0.299993,-5.63661e-05,0
0.3,2.9,0,0.299984,6.18187e-05,0
0.3,3,0,0.299983,7.42592e-05,0
0.3,3.1,0,0.299989,3.83675e-06,0
0.3,3.2,0,0.299988,7.4236e-06,0
0.3,3.3,0,0.29998,8.2188e-05,0
0.3,3.4,0,0.299982,6.94267e-05,0
0.3,3.5,0,0.299995,-5.18057e-05,0
0.3,3.6,0,0.299978,7.45221e-05,0
0.3,3.7,0,0.299976,8.78198e-05,0
0.3,3.8,0,0.299987,1.30791e-05,0
0.3,3.9,0,0.299984,1.41691e-05,0
0.3,4,0,0.299969,9.02293e-05,0
0.3,4.1,0,0.299972,7.73712e-05,0
0.3,4.2,0,0.299999,-4.47806e-05,0
0.3,4.3,0,0.299964,7.57838e-05,0
0.3,4.4,0,0.29996,8.84747e-05,0
0.3,4.5,0,0.299983,1.81048e-05,0
0.3,4.6,0,0.299979,1.50748e-05,0
0.3,4.7,0,0.299952,8.17768e-05,0
0.3,4.8,0,0.299957,7.07217e-05,0
0.3,4.9,0,0.300005,-3.43021e-05,0
0.3,5,0,0.299954,5.98434e-05,0
0.3,5.1,0,0.299948,6.97535e-05,0
0.3,5.2,0,0.299981,1.64654e-05,0
0.3,5.3,0,0.299985,8.78797e-06,0
0.3,5.4,0,0.299956,5.27824e-05,0
0.3,5.5,0,0.299961,4.58679e-05,0
0.3,5.6,0,0.30001,-1.98192e-05,0
0.3,5.7,0,0.299986,2.73115e-05,0
0.3,5.8,0,0.299984,3.22726e-05,0
0.3,5.9,0,0.299997,8.43057e-06,0
0.3,6,0,0.300019,-1.46643e-06,0
0.3,6.1,0,0.300032,1.0395e-05,0
0.3,6.2,0,0.300029,9.19696e-06,0
0.3,6.3,0,0.300003,-2.18467e-06,0
0.3,6.4,0,0.300087,-7.50995e-06,0
0.3,6.5,0,0.300096,-8.07051e-06,0
0.3,6.6,0,0.300041,4.17584e-07,0
0.3,6.7,0,0.300071,-7.06642e-06,0
0.3,6.8,0,0.30016,-2.46141e-05,0
0.3,6.9,0,0.300144,-2.09337e-05,0
0.3,7,0,0.29999,1.40295e-05,0
0.3,7.1,0,0.299987,1.60548e-05,0
0.3,7.2,0,0.299986,1.69152e-05,0
0.3,7.3,0,0.299985,1.77406e-05,0
0.3,7.4,0,0.299985,1.85856e-05,0
0.3,7.5,0,0.299985,1.9437e-05,0
0.3,7.6,0,0.299985,2.02904e-05,0
0.3,7.7,0,0.299986,2.11443e-05,0
0.3,7.8,0,0.299987,2.19959e-05,0
0.3,7.9,0,0.299989,2.28961e-05,0
0.3,8,0,0.299991,2.43957e-05,0
0.3,8.1,0,0.300141,-1.52539e-06,0
0.3,8.2,0,0.300065,1.38741e-05,0
0.3,8.3,0,0.300078,-2.50143e-06,0
0.3,8.4,0,0.300084,-4.56027e-06,0
0.3,8.5,0,0.300015,1.32193e-05,0
0.3,8.6,0,0.300033,-1.47087e-05,0
0.3,8.7,0,0.30001,3.3399e-05,0
0.3,8.8,0,0.29998,-2.56613e-05,0
0.3,8.9,0,0.299996,5.3232e-06,0
0.3,9,0,0.299952,-2.36008e-05,0
0.3,9.1,0,0.299937,-3.90316e-05,0
0.3,9.2,0,0.299979,1.24627e-05,0
0.3,9.3,0,0.299905,-5.39085e-05,0
0.3,9.4,0,0.300003,3.65771e-05,0
0.3,9.5,0,0.299887,-6.93221e-05,0
0.3,9.6,0,0.299939,-2.04218e-05,0
0.3,9.7,0,0.299917,-4.83319e-05,0
0.3,9.8,0,0.299881,-8.43928e-05,0
0.3,9.9,0,0.299982,1.64477e-05,0
0.3,10,0,0.299886,-9.84297e-05,0
0.3,10.1,0,0.299989,2.98773e-05,0
0.3,10.2,0,0.299899,-0.000110982,0
0.3,10.3,0,0.299936,-5.33886e-05,0
0.3,10.4,0,0.299947,-6.07013e-05,0
0.3,10.5,0,0.299915,-0.000121835,0
0.3,10.6,0,0.299995,2.80645e-05,0
0.3,10.7,0,0.299934,-0.000130969,0
0.3,10.8,0,0.299988,1.64219e-05,0
0.3,10.9,0,0.299951,-0.000138489,0
0.3,11,0,0.299965,-8.37636e-05,0
0.3,11.1,0,0.299981,-5.89584e-05,0
0.3,11.2,0,0.299965,-0.000144561,0
0.3,11.3,0,0.300001,4.45265e-05,0
0.3,11.4,0,0.299978,-0.000149365,0
0.3,11.5,0,0.299995,2.34999e-07,0
0.3,11.6,0,0.299987,-0.000153062,0
0.3,11.7,0,0.29999,-0.000108919,0
0.3,11.8,0,0.299998,-4.82567e-05,0
0.3,11.9,0,0.299995,-0.000155779,0
0.3,12,0,0.300001,6.25035e-05,0
0.3,12.1,0,0.299999,-0.000157612,0
0.3,12.2,0,0.3,-1.66141e-05,0
0.3,12.3,0,0.300002,-0.000145172,0
0.3,12.4,0,0.300002,-0.000129109,0
0.3,12.5,0,0.300001,-3.30706e-05,0
0.3,12.6,0,0.300004,-0.000186933,0
0.3,12.7,0,0.300001,5.9791e-06,0
0.4,0,0,0.299998,-7.75348e-05,0
0.4,0.1,0,0.299999,-1.23103e-05,0
0.4,0.2,0,0.299999,1.72523e-05,0
0.4,0.3,0,0.299998,-4.8744e-05,0
0.4,0.4,0,0.299997,-4.747e-05,0
0.4,0.5,0,0.299997,2.09406e-05,0
0.4,0.6,0,0.299996,-1.22631e-05,0
0.4,0.7,0,0.299996,-8.23598e-05,0
0.4,0.8,0,0.299994,-8.02689e-06,0
0.4,0.9,0,0.299993,2.71834e-05,0
0.4,1,0,0.299994,-4.48903e-05,0
0.4,1.1,0,0.299993,-4.18811e-05,0
0.4,1.2,0,0.29999,3.60528e-05,0
0.4,1.3,0,0.299991,-1.63884e-06,0
0.4,1.4,0,0.299993,-8.12101e-05,0
0.4,1.5,0,0.299989,5.84841e-06,0
0.4,1.6,0,0.299987,4.70867e-05,0
0.4,1.7,0,0.29999,-3.70489e-05,0
0.4,1.8,0,0.299989,-3.27806e-05,0
0.4,1.9,0,0.299985,5.96669e-05,0
0.4,2,0,0.299987,1.51046e-05,0
0.4,2.1,0,0.299991,-7.89716e-05,0
0.4,2.2,0,0.299985,2.42063e-05,0
0.4,2.3,0,0.299982,7.308e-05,0
0.4,2.4,0,0.299988,-2.62765e-05,0
0.4,2.5,0,0.299987,-2.17224e-05,0
0.4,2.6,0,0.29998,8.65027e-05,0
0.4,2.7,0,0.299983,3.45414e-05,0
0.4,2.8,0,0.299991,-7.51548e-05,0
0.4,2.9,0,0.299982,4.30299e-05,0
0.4,3,0,0.299977,9.90122e-05,0
0.4,3.1,0,0.299987,-1.4276e-05,0
0.4,3.2,0,0.299986,-1.06892e-05,0
0.4,3.3,0,0.299974,0.000109584,0
0.4,3.4,0,0.29998,5.21581e-05,0
0.4,3.5,0,0.299993,-6.90742e-05,0
0.4,3.6,0,0.299976,5.72536e-05,0
0.4,3.7,0,0.299968,0.000117093,0
0.4,3.8,0,0.299986,-3.14199e-06,0
0.4,3.9,0,0.299983,-2.05199e-06,0
0.4,4,0,0.299959,0.000120306,0
0.4,4.1,0,0.299972,6.24443e-05,0
0.4,4.2,0,0.299999,-5.97075e-05,0
0.4,4.3,0,0.299964,6.08569e-05,0
0.4,4.4,0,0.299947,0.000117966,0
0.4,4.5,0,0.299984,4.76252e-06,0
0.4,4.6,0,0.29998,1.73252e-06,0
0.4,4.7,0,0.299936,0.000109036,0
0.4,4.8,0,0.299959,5.92877e-05,0
0.4,4.9,0,0.300007,-4.57361e-05,0
0.4,5,0,0.299955,4.84094e-05,0
0.4,5.1,0,0.299931,9.30046e-05,0
0.4,5.2,0,0.299984,7.2803e-06,0
0.4,5.3,0,0.299988,-3.97102e-07,0
0.4,5.4,0,0.299942,7.03765e-05,0
0.4,5.5,0,0.299965,3.92615e-05,0
0.4,5.6,0,0.300013,-2.64256e-05,0
0.4,5.7,0,0.299989,2.07051e-05,0
0.4,5.8,0,0.299978,4.30301e-05,0
0.4,5.9,0,0.3,4.67556e-06,0
0.4,6,0,0.300021,-5.22144e-06,0
0.4,6.1,0,0.300042,1.386e-05,0
0.4,6.2,0,0.30003,8.46874e-06,0
0.4,6.3,0,0.300004,-2.91289e-06,0
0.4,6.4,0,0.300088,-8.23817e-06,0
0.4,6.5,0,0.300128,-1.07607e-05,0
0.4,6.6,0,0.30004,2.89408e-06,0
0.4,6.7,0,0.300069,-4.58992e-06,0
0.4,6.8,0,0.300214,-3.28188e-05,0
0.4,6.9,0,0.300141,-1.62573e-05,0
0.4,7,0,0.299987,1.87059e-05,0
0.4,7.1,0,0.299983,2.14064e-05,0
0.4,7.2,0,0.299982,2.25536e-05,0
0.4,7.3,0,0.29998,2.36541e-05,0
0.4,7.4,0,0.299979,2.47808e-05,0
0.4,7.5,0,0.299979,2.5916e-05,0
0.4,7.6,0,0.29998,2.70539e-05,0
0.4,7.7,0,0.299981,2.81924e-05,0
0.4,7.8,0,0.299983,2.93279e-05,0
0.4,7.9,0,0.299985,3.05281e-05,0
0.4,8,0,0.299988,3.25276e-05,0
0.4,8.1,0,0.300189,-2.03385e-06,0
0.4,8.2,0,0.300063,2.30808e-05,0
0.4,8.3,0,0.300076,6.70524e-06,0
0.4,8.4,0,0.300085,6.16322e-06,0
0.4,8.5,0,0.300016,2.39428e-05,0
0.4,8.6,0,0.300045,-1.96116e-05,0
0.4,8.7,0,0.300013,4.56905e-05,0
0.4,8.8,0,0.299975,-3.08887e-05,0
0.4,8.9,0,0.3,1.91736e-05,0
0.4,9,0,0.299956,-9.75042e-06,0
0.4,9.1,0,0.299942,-2.45445e-05,0
0.4,9.2,0,0.299985,2.78562e-05,0
0.4,9.3,0,0.299873,-7.1878e-05,0
0.4,9.4,0,0.300009,5.34668e-05,0
0.4,9.5,0,0.299865,-7.79624e-05,0
0.4,9.6,0,0.299945,-2.11808e-06,0
0.4,9.7,0,0.299923,-3.00282e-05,0
0.4,9.8,0,0.299876,-7.59564e-05,0
0.4,9.9,0,0.299988,3.60575e-05,0
0.4,10,0,0.299848,-0.00013124,0
0.4,10.1,0,0.299994,5.06712e-05,0
0.4,10.2,0,0.299887,-0.000115393,0
0.4,10.3,0,0.29994,-3.15373e-05,0
0.4,10.4,0,0.299951,-3.88501e-05,0
0.4,10.5,0,0.299905,-0.000126703,0
0.4,10.6,0,0.299998,5.08489e-05,0
0.4,10.7,0,0.299912,-0.000174626,0
0.4,10.8,0,0.299991,4.00216e-05,0
0.4,10.9,0,0.299949,-0.000131217,0
0.4,11,0,0.299967,-5.94584e-05,0
0.4,11.1,0,0.299983,-3.46532e-05,0
0.4,11.2,0,0.299958,-0.000166309,0
0.4,11.3,0,0.300002,6.94342e-05,0
0.4,11.4,0,0.299971,-0.000199154,0
0.4,11.5,0,0.299996,2.56467e-05,0
0.4,11.6,0,0.299988,-0.00013009,0
0.4,11.7,0,0.299991,-8.30985e-05,0
0.4,11.8,0,0.299999,-2.24361e-05,0
0.4,11.9,0,0.299994,-0.000195249,0
0.4,12,0,0.300001,8.86386e-05,0
0.4,12.1,0,0.299999,-0.00021015,0
0.4,12.2,0,0.3,9.74028e-06,0
0.4,12.3,0,0.300002,-0.000118818,0
0.4,12.4,0,0.300002,-0.000102629,0
0.4,12.5,0,0.300001,-6.59105e-06,0
0.4,12.6,0,0.300005,-0.000228651,0
0.4,12.7,0,0.300001,4.3818e-05,0
0.5,0,0,0.299998,-9.91349e-05,0
0.5,0.1,0,0.299999,-3.39105e-05,0
0.5,0.2,0,0.299999,-1.68247e-06,0
0.5,0.3,0,0.299998,-6.9394e-05,0
0.5,0.4,0,0.299997,-6.812e-05,0
0.5,0.5,0,0.299996,2.13962e-06,0
0.5,0.6,0,0.299995,-3.2853e-05,0
0.5,0.7,0,0.299995,-0.00010295,0
0.5,0.8,0,0.299993,-2.86168e-05,0
0.5,0.9,0,0.299992,8.65606e-06,0
0.5,1,0,0.299992,-6.53656e-05,0
0.5,1.1,0,0.299991,-6.23564e-05,0
0.5,1.2,0,0.299988,1.76838e-05,0
0.5,1.3,0,0.299989,-2.19414e-05,0
0.5,1.4,0,0.299991,-0.000101513,0
0.5,1.5,0,0.299987,-1.44541e-05,0
0.5,1.6,0,0.299985,2.92972e-05,0
0.5,1.7,0,0.299988,-5.71124e-05,0
0.5,1.8,0,0.299987,-5.2844e-05,0
0.5,1.9,0,0.299983,4.21021e-05,0
0.5,2,0,0.299984,-4.63833e-06,0
0.5,2.1,0,0.299989,-9.87145e-05,0
0.5,2.2,0,0.299983,4.46338e-06,0
0.5,2.3,0,0.29998,5.6441e-05,0
0.5,2.4,0,0.299985,-4.56009e-05,0
0.5,2.5,0,0.299985,-4.10467e-05,0
0.5,2.6,0,0.299977,7.01034e-05,0
0.5,2.7,0,0.299981,1.57527e-05,0
0.5,2.8,0,0.299988,-9.39436e-05,0
0.5,2.9,0,0.299979,2.42412e-05,0
0.5,3,0,0.299975,8.39613e-05,0
0.5,3.1,0,0.299985,-3.23888e-05,0
0.5,3.2,0,0.299983,-2.88019e-05,0
0.5,3.3,0,0.299971,9.47219e-05,0
0.5,3.4,0,0.299978,3.48896e-05,0
0.5,3.5,0,0.299991,-8.63428e-05,0
0.5,3.6,0,0.299974,3.9985e-05,0
0.5,3.7,0,0.299966,0.000104122,0
0.5,3.8,0,0.299985,-1.93631e-05,0
0.5,3.9,0,0.299982,-1.82731e-05,0
0.5,4,0,0.299957,0.000107392,0
0.5,4.1,0,0.299971,4.75174e-05,0
0.5,4.2,0,0.299998,-7.46343e-05,0
0.5,4.3,0,0.299963,4.593e-05,0
0.5,4.4,0,0.299947,0.000107684,0
0.5,4.5,0,0.299984,-8.57977e-06,0
0.5,4.6,0,0.299981,-1.16098e-05,0
0.5,4.7,0,0.299935,9.85936e-05,0
0.5,4.8,0,0.299961,4.78537e-05,0
0.5,4.9,0,0.300009,-5.71701e-05,0
0.5,5,0,0.299957,3.69754e-05,0
0.5,5.1,0,0.299932,8.61364e-05,0
0.5,5.2,0,0.299987,-1.90478e-06,0
0.5,5.3,0,0.29999,-9.58218e-06,0
0.5,5.4,0,0.299943,6.31042e-05,0
0.5,5.5,0,0.299968,3.26551e-05,0
0.5,5.6,0,0.300016,-3.30321e-05,0
0.5,5.7,0,0.299992,1.40987e-05,0
0.5,5.8,0,0.29998,4.03117e-05,0
0.5,5.9,0,0.300002,9.20557e-07,0
0.5,6,0,0.300024,-8.97644e-06,0
0.5,6.1,0,0.300045,1.06207e-05,0
0.5,6.2,0,0.300031,7.74052e-06,0
0.5,6.3,0,0.300006,-3.64112e-06,0
0.5,6.4,0,0.300089,-8.9664e-06,0
0.5,6.5,0,0.300129,-8.65323e-06,0
0.5,6.6,0,0.300039,5.37057e-06,0
0.5,6.7,0,0.300068,-2.11343e-06,0
0.5,6.8,0,0.300217,-3.11052e-05,0
0.5,6.9,0,0.300138,-1.15808e-05,0
0.5,7,0,0.299984,2.33824e-05,0
0.5,7.1,0,0.299979,2.6758e-05,0
0.5,7.2,0,0.299977,2.8192e-05,0
0.5,7.3,0,0.299975,2.95676e-05,0
0.5,7.4,0,0.299974,3.0976e-05,0
0.5,7.5,0,0.299974,3.2395e-05,0
0.5,7.6,0,0.299975,3.38174e-05,0
0.5,7.7,0,0.299976,3.52405e-05,0
0.5,7.8,0,0.299978,3.66598e-05,0
0.5,7.9,0,0.299981,3.81602e-05,0
0.5,8,0,0.299985,4.06594e-05,0
0.5,8.1,0,0.300188,5.73036e-06,0
0.5,8.2,0,0.300062,3.22874e-05,0
0.5,8.3,0,0.300075,1.59119e-05,0
0.5,8.4,0,0.300086,1.68867e-05,0
0.5,8.5,0,0.300017,3.46663e-05,0
0.5,8.6,0,0.30005,-1.15273e-05,0
0.5,8.7,0,0.300016,5.7982e-05,0
0.5,8.8,0,0.299978,-1.85972e-05,0
0.5,8.9,0,0.300005,3.3024e-05,0
0.5,9,0,0.299961,4.09999e-06,0
0.5,9.1,0,0.299947,-9.15099e-06,0
0.5,9.2,0,0.29999,4.32498e-05,0
0.5,9.3,0,0.299862,-7.05637e-05,0
0.5,9.4,0,0.300016,7.03565e-05,0
0.5,9.5,0,0.299871,-6.10727e-05,0
0.5,9.6,0,0.299951,1.61856e-05,0
0.5,9.7,0,0.299929,-1.17245e-05,0
0.5,9.8,0,0.299882,-5.63465e-05,0
0.5,9.9,0,0.299994,5.56674e-05,0
0.5,10,0,0.299832,-0.000137424,0
0.5,10.1,0,0.3,7.1465e-05,0
0.5,10.2,0,0.299892,-9.45992e-05,0
0.5,10.3,0,0.299945,-9.6861e-06,0
0.5,10.4,0,0.299956,-1.69989e-05,0
0.5,10.5,0,0.299908,-0.000103918,0
0.5,10.6,0,0.300002,7.36333e-05,0
0.5,10.7,0,0.299902,-0.00018494,0
0.5,10.8,0,0.299993,6.36214e-05,0
0.5,10.9,0,0.299952,-0.000107617,0
0.5,11,0,0.299969,-3.51531e-05,0
0.5,11.1,0,0.299985,-1.0348e-05,0
0.5,11.2,0,0.29996,-0.000141402,0
0.5,11.3,0,0.300004,9.43418e-05,0
0.5,11.4,0,0.299968,-0.000207621,0
0.5,11.5,0,0.299997,5.10584e-05,0
0.5,11.6,0,0.299989,-0.000104678,0
0.5,11.7,0,0.299991,-5.7278e-05,0
0.5,11.8,0,0.3,3.38442e-06,0
0.5,11.9,0,0.299994,-0.000169114,0
0.5,12,0,0.300002,0.000114774,0
0.5,12.1,0,0.299999,-0.000203264,0
0.5,12.2,0,0.3,3.60947e-05,0
0.5,12.3,0,0.300002,-9.24635e-05,0
0.5,12.4,0,0.300002,-7.61498e-05,0
0.5,12.5,0,0.300001,1.98885e-05,0
0.5,12.6,0,0.300004,-0.000194198,0
0.5,12.7,0,0.300001,8.16569e-05,0
0.6,0,0,0.299998,-0.000120735,0
0.6,0.1,0,0.299998,-5.55106e-05,0
0.6,0.2,0,0.299998,-3.65972e-05,0
0.6,0.3,0,0.299997,-9.00439e-05,0
0.6,0.4,0,0.299996,-8.87699e-05,0
0.6,0.5,0,0.299995,-3.32675e-05,0
0.6,0.6,0,0.299994,-5.34429e-05,0
0.6,0.7,0,0.299994,-0.00012354,0
0.6,0.8,0,0.299992,-4.92068e-05,0
0.6,0.9,0,0.299991,-2.74683e-05,0
0.6,1,0,0.299991,-8.58409e-05,0
0.6,1.1,0,0.29999,-8.28316e-05,0
0.6,1.2,0,0.299987,-1.95433e-05,0
0.6,1.3,0,0.299987,-4.22439e-05,0
0.6,1.4,0,0.299989,-0.000121815,0
0.6,1.5,0,0.299985,-3.47566e-05,0
0.6,1.6,0,0.299984,-9.09437e-06,0
0.6,1.7,0,0.299986,-7.71758e-05,0
0.6,1.8,0,0.299985,-7.29075e-05,0
0.6,1.9,0,0.299981,2.23318e-06,0
0.6,2,0,0.299982,-2.43812e-05,0
0.6,2.1,0,0.299986,-0.000118457,0
0.6,2.2,0,0.29998,-1.52795e-05,0
0.6,2.3,0,0.299979,1.53949e-05,0
0.6,2.4,0,0.299983,-6.49252e-05,0
0.6,2.5,0,0.299982,-6.03711e-05,0
0.6,2.6,0,0.299976,2.76851e-05,0
0.6,2.7,0,0.299979,-3.03605e-06,0
0.6,2.8,0,0.299986,-0.000112732,0
0.6,2.9,0,0.299977,5.45252e-06,0
0.6,3,0,0.299975,4.09675e-05,0
0.6,3.1,0,0.299982,-5.05015e-05,0
0.6,3.2,0,0.299981,-4.69147e-05,0
0.6,3.3,0,0.299972,5.10865e-05,0
0.6,3.4,0,0.299976,1.7621e-05,0
0.6,3.5,0,0.299989,-0.000103611,0
0.6,3.6,0,0.299972,2.27165e-05,0
0.6,3.7,0,0.299969,6.13052e-05,0
0.6,3.8,0,0.299984,-3.55842e-05,0
0.6,3.9,0,0.299981,-3.44942e-05,0
0.6,4,0,0.299961,6.54543e-05,0
0.6,4.1,0,0.299971,3.25906e-05,0
0.6,4.2,0,0.299998,-8.95612e-05,0
0.6,4.3,0,0.299963,3.10031e-05,0
0.6,4.4,0,0.299955,6.89593e-05,0
0.6,4.5,0,0.299985,-2.19221e-05,0
0.6,4.6,0,0.299981,-2.49521e-05,0
0.6,4.7,0,0.299946,6.3141e-05,0
0.6,4.8,0,0.299963,3.64196e-05,0
0.6,4.9,0,0.300011,-6.86042e-05,0
0.6,5,0,0.299959,2.55413e-05,0
0.6,5.1,0,0.299946,5.71312e-05,0
0.6,5.2,0,0.299989,-1.10899e-05,0
0.6,5.3,0,0.299993,-1.87673e-05,0
0.6,5.4,0,0.299956,4.00903e-05,0
0.6,5.5,0,0.299971,2.60487e-05,0
0.6,5.6,0,0.300019,-3.96385e-05,0
0.6,5.7,0,0.299996,7.49225e-06,0
0.6,5.8,0,0.299988,2.66345e-05,0
0.6,5.9,0,0.300005,-2.83445e-06,0
0.6,6,0,0.300027,-1.27315e-05,0
0.6,6.1,0,0.300043,4.46961e-06,0
0.6,6.2,0,0.300032,7.01229e-06,0
0.6,6.3,0,0.300007,-4.36934e-06,0
0.6,6.4,0,0.30009,-9.69462e-06,0
0.6,6.5,0,0.30011,-5.05562e-06,0
0.6,6.6,0,0.300038,7.84707e-06,0
0.6,6.7,0,0.300067,3.63068e-07,0
0.6,6.8,0,0.300183,-2.12681e-05,0
0.6,6.9,0,0.300134,-6.90429e-06,0
0.6,7,0,0.299981,2.80589e-05,0
0.6,7.1,0,0.299975,3.21096e-05,0
0.6,7.2,0,0.299972,3.38304e-05,0
0.6,7.3,0,0.29997,3.54812e-05,0
0.6,7.4,0,0.299969,3.71712e-05,0
0.6,7.5,0,0.299969,3.8874e-05,0
0.6,7.6,0,0.29997,4.05809e-05,0
0.6,7.7,0,0.299971,4.22886e-05,0
0.6,7.8,0,0.299974,4.39918e-05,0
0.6,7.9,0,0.299977,4.57922e-05,0
0.6,8,0,0.299982,4.87913e-05,0
0.6,8.1,0,0.300159,1.91332e-05,0
0.6,8.2,0,0.300061,4.14941e-05,0
0.6,8.3,0,0.300074,2.51186e-05,0
0.6,8.4,0,0.300087,2.76102e-05,0
0.6,8.5,0,0.300018,4.53898e-05,0
0.6,8.6,0,0.300045,1.24009e-05,0
0.6,8.7,0,0.300019,7.02735e-05,0
0.6,8.8,0,0.299985,1.32124e-06,0
0.6,8.9,0,0.300009,4.68744e-05,0
0.6,9,0,0.299965,1.79504e-05,0
0.6,9.1,0,0.299953,6.24256e-06,0
0.6,9.2,0,0.299996,5.86433e-05,0
0.6,9.3,0,0.299904,-2.20855e-05,0
0.6,9.4,0,0.300022,8.72462e-05,0
0.6,9.5,0,0.299884,-3.8456e-05,0
0.6,9.6,0,0.299958,3.44893e-05,0
0.6,9.7,0,0.299936,6.57925e-06,0
0.6,9.8,0,0.299888,-3.67366e-05,0
0.6,9.9,0,0.3,7.52773e-05,0
0.6,10,0,0.299881,-6.42103e-05,0
0.6,10.1,0,0.300005,9.22589e-05,0
0.6,10.2,0,0.299897,-7.38053e-05,0
0.6,10.3,0,0.299949,1.21651e-05,0
0.6,10.4,0,0.29996,4.85237e-06,0
0.6,10.5,0,0.299912,-8.11338e-05,0
0.6,10.6,0,0.300005,9.64176e-05,0
0.6,10.7,0,0.29993,-9.48997e-05,0
0.6,10.8,0,0.299996,8.72211e-05,0
0.6,10.9,0,0.299954,-8.40171e-05,0
0.6,11,0,0.299971,-1.08479e-05,0
0.6,11.1,0,0.299987,1.39572e-05,0
0.6,11.2,0,0.299963,-0.000106469,0
0.6,11.3,0,0.300005,0.000119249,0
0.6,11.4,0,0.299977,-0.000111513,0
0.6,11.5,0,0.299998,7.64701e-05,0
0.6,11.6,0,0.29999,-7.92661e-05,0
0.6,11.7,0,0.299992,-3.14574e-05,0
0.6,11.8,0,0.3,2.9205e-05,0
0.6,11.9,0,0.299995,-0.000116511,0
0.6,12,0,0.300002,0.000140909,0
0.6,12.1,0,0.3,-0.00011838,0
0.6,12.2,0,0.3,6.24491e-05,0
0.6,12.3,0,0.300002,-6.61091e-05,0
0.6,12.4,0,0.300002,-4.96702e-05,0
0.6,12.5,0,0.300001,4.63681e-05,0
0.6,12.6,0,0.300004,-0.000119358,0
0.6,12.7,0,0.3,0.000119496,0
0.7,0,0,0.299997,-0.000142335,0
0.7,0.1,0,0.299998,-8.22564e-05,0
0.7,0.2,0,0.299997,-8.22104e-05,0
0.7,0.3,0,0.299996,-0.000110694,0
0.7,0.4,0,0.299996,-0.00010942,0
0.7,0.5,0,0.299995,-7.97426e-05,0
0.7,0.6,0,0.299993,-7.95797e-05,0
0.7,0.7,0,0.299993,-0.00014413,0
0.7,0.8,0,0.299991,-7.56405e-05,0
0.7,0.9,0,0.29999,-7.53293e-05,0
0.7,1,0,0.299989,-0.000106316,0
0.7,1.1,0,0.299988,-0.000103307,0
0.7,1.2,0,0.299987,-6.93343e-05,0
0.7,1.3,0,0.299986,-6.88654e-05,0
0.7,1.4,0,0.299987,-0.000142118,0
0.7,1.5,0,0.299984,-6.1881e-05,0
0.7,1.6,0,0.299983,-6.1232e-05,0
0.7,1.7,0,0.299984,-9.72392e-05,0
0.7,1.8,0,0.299983,-9.29709e-05,0
0.7,1.9,0,0.299981,-5.24899e-05,0
0.7,2,0,0.29998,-5.16199e-05,0
0.7,2.1,0,0.299984,-0.0001382,0
0.7,2.2,0,0.299979,-4.30783e-05,0
0.7,2.3,0,0.299978,-4.19423e-05,0
0.7,2.4,0,0.299981,-8.42496e-05,0
0.7,2.5,0,0.29998,-7.96954e-05,0
0.7,2.6,0,0.299977,-3.20537e-05,0
0.7,2.7,0,0.299977,-3.05998e-05,0
0.7,2.8,0,0.299984,-0.000131521,0
0.7,2.9,0,0.299975,-2.25217e-05,0
0.7,3,0,0.299976,-2.0687e-05,0
0.7,3.1,0,0.29998,-6.86143e-05,0
0.7,3.2,0,0.299979,-6.50274e-05,0
0.7,3.3,0,0.299975,-1.16908e-05,0
0.7,3.4,0,0.299976,-9.39939e-06,0
0.7,3.5,0,0.299988,-0.00012088,0
0.7,3.6,0,0.299972,-4.30087e-06,0
0.7,3.7,0,0.299974,-1.45773e-06,0
0.7,3.8,0,0.299982,-5.18052e-05,0
0.7,3.9,0,0.299979,-5.07152e-05,0
0.7,4,0,0.29997,4.22996e-06,0
0.7,4.1,0,0.299972,7.74281e-06,0
0.7,4.2,0,0.299997,-0.000104488,0
0.7,4.3,0,0.299965,6.89759e-06,0
0.7,4.4,0,0.299968,1.11986e-05,0
0.7,4.5,0,0.299986,-3.52643e-05,0
0.7,4.6,0,0.299982,-3.82943e-05,0
0.7,4.7,0,0.299965,1.11058e-05,0
0.7,4.8,0,0.299968,1.62853e-05,0
0.7,4.9,0,0.300013,-8.00382e-05,0
0.7,5,0,0.299965,7.15669e-06,0
0.7,5.1,0,0.299968,1.3261e-05,0
0.7,5.2,0,0.299992,-2.02749e-05,0
0.7,5.3,0,0.299996,-2.79523e-05,0
0.7,5.4,0,0.299977,6.70466e-06,0
0.7,5.5,0,0.299978,1.37039e-05,0
0.7,5.6,0,0.300022,-4.62449e-05,0
0.7,5.7,0,0.300001,-2.22399e-06,0
0.7,5.8,0,0.299999,5.51553e-06,0
0.7,5.9,0,0.300008,-6.58946e-06,0
0.7,6,0,0.300029,-1.64865e-05,0
0.7,6.1,0,0.300036,-3.47863e-06,0
0.7,6.2,0,0.300032,4.73692e-06,0
0.7,6.3,0,0.300008,-5.09757e-06,0
0.7,6.4,0,0.300084,-9.3157e-06,0
0.7,6.5,0,0.300078,-6.17181e-07,0
0.7,6.6,0,0.300037,1.03236e-05,0
0.7,6.7,0,0.300066,2.83956e-06,0