/*--------------------------------*- C++ -*----------------------------------*\
| =========                 |                                                 |
| \\      /  F ield         | OpenFOAM: The Open Source CFD Toolbox           |
|  \\    /   O peration     | Version:  v1806                                 |
|   \\  /    A nd           | Web:      www.OpenFOAM.com                      |
|    \\/     M anipulation  |                                                 |
\*---------------------------------------------------------------------------*/
FoamFile
{
    version     2.0;
    format      ascii;
    class       volVectorField;
    location    "15";
    object      U;
}
// * * * * * * * * * * * * * * * * * * * * * * * * * * * * * * * * * * * * * //

dimensions      [0 1 -1 0 0 0 0];


internalField   nonuniform List<vector> 
2400
(
(3.00058 -0.00624345 0)
(2.99908 -0.0245881 0)
(3.0011 -0.039877 0)
(2.99872 -0.0565784 0)
(3.00201 -0.0752731 0)
(2.99852 -0.088943 0)
(3.00322 -0.109732 0)
(2.99879 -0.119183 0)
(3.00455 -0.141488 0)
(2.99982 -0.149066 0)
(3.00595 -0.172169 0)
(3.00203 -0.180121 0)
(3.00717 -0.201356 0)
(3.00548 -0.212369 0)
(3.00839 -0.227201 0)
(3.01017 -0.241407 0)
(3.00961 -0.245328 0)
(3.01565 -0.263106 0)
(3.01173 -0.254414 0)
(3.02116 -0.274621 0)
(3.00006 -0.00597475 0)
(2.99982 -0.0249812 0)
(3.00078 -0.0398361 0)
(2.99961 -0.0569688 0)
(3.00263 -0.0755483 0)
(2.99968 -0.0893505 0)
(3.00538 -0.110587 0)
(3.00063 -0.119599 0)
(3.00871 -0.142983 0)
(3.00294 -0.149654 0)
(3.01266 -0.174388 0)
(3.00746 -0.180931 0)
(3.0167 -0.204181 0)
(3.0143 -0.213707 0)
(3.0211 -0.23053 0)
(3.02359 -0.243055 0)
(3.0256 -0.248851 0)
(3.0339 -0.265209 0)
(3.03009 -0.25761 0)
(3.04479 -0.276947 0)
(2.9999 -0.0059739 0)
(3.00005 -0.0252746 0)
(3.00104 -0.0401246 0)
(2.99987 -0.0574982 0)
(3.00385 -0.0761282 0)
(3.00015 -0.0902401 0)
(3.00799 -0.111799 0)
(3.00192 -0.120885 0)
(3.01297 -0.144872 0)
(3.00569 -0.15153 0)
(3.01896 -0.177148 0)
(3.01259 -0.183421 0)
(3.02525 -0.207784 0)
(3.0227 -0.217008 0)
(3.03229 -0.234808 0)
(3.03598 -0.246761 0)
(3.03965 -0.253429 0)
(3.05082 -0.269263 0)
(3.04788 -0.262036 0)
(3.06491 -0.280766 0)
(2.99982 -0.0059153 0)
(3.00009 -0.0256825 0)
(3.00152 -0.0405351 0)
(2.99978 -0.0582228 0)
(3.00535 -0.0770057 0)
(2.99993 -0.0914503 0)
(3.01107 -0.113657 0)
(3.00218 -0.122576 0)
(3.01785 -0.147734 0)
(3.00705 -0.153989 0)
(3.02603 -0.181365 0)
(3.01604 -0.186631 0)
(3.03465 -0.213314 0)
(3.02949 -0.221221 0)
(3.04429 -0.241361 0)
(3.04733 -0.251483 0)
(3.05419 -0.260343 0)
(3.06702 -0.274485 0)
(3.0638 -0.268371 0)
(3.08682 -0.285452 0)
(2.99989 -0.0058791 0)
(2.99988 -0.0262387 0)
(3.00223 -0.0409421 0)
(2.99926 -0.0593323 0)
(3.00703 -0.0778235 0)
(2.99907 -0.0933789 0)
(3.01438 -0.11557 0)
(3.00156 -0.125185 0)
(3.02297 -0.150787 0)
(3.00724 -0.157657 0)
(3.03331 -0.186239 0)
(3.01796 -0.191243 0)
(3.04447 -0.220093 0)
(3.03457 -0.226912 0)
(3.05695 -0.249756 0)
(3.0568 -0.257716 0)
(3.06999 -0.269569 0)
(3.08227 -0.281025 0)
(3.08366 -0.27709 0)
(3.10722 -0.290844 0)
(2.99974 -0.00573015 0)
(2.99985 -0.0269754 0)
(3.00263 -0.0412841 0)
(2.99884 -0.0607459 0)
(3.00816 -0.0786608 0)
(2.99823 -0.0958311 0)
(3.01711 -0.117682 0)
(3.00067 -0.128362 0)
(3.02747 -0.154207 0)
(3.00667 -0.162192 0)
(3.04006 -0.191946 0)
(3.01848 -0.197078 0)
(3.05427 -0.228313 0)
(3.03779 -0.233999 0)
(3.07005 -0.260134 0)
(3.06407 -0.265723 0)
(3.08717 -0.28119 0)
(3.09474 -0.28928 0)
(3.10378 -0.288279 0)
(3.12618 -0.297552 0)
(2.99885 -0.0054876 0)
(3.00072 -0.0278207 0)
(3.00183 -0.041453 0)
(2.99937 -0.0624981 0)
(3.0076 -0.0792875 0)
(2.99855 -0.0989996 0)
(3.01788 -0.11947 0)
(3.00066 -0.13246 0)
(3.02982 -0.157358 0)
(3.00639 -0.168078 0)
(3.04471 -0.197665 0)
(3.01831 -0.204803 0)
(3.06288 -0.237346 0)
(3.03926 -0.242962 0)
(3.08299 -0.272206 0)
(3.06834 -0.276008 0)
(3.10632 -0.295456 0)
(3.10407 -0.299416 0)
(3.13018 -0.302267 0)
(3.14051 -0.305822 0)
(2.99701 -0.00519114 0)
(3.00282 -0.0285301 0)
(2.99914 -0.0415528 0)
(3.00139 -0.0643018 0)
(3.00432 -0.0798321 0)
(3.00106 -0.102531 0)
(3.01506 -0.120792 0)
(3.00297 -0.13731 0)
(3.02771 -0.16004 0)
(3.00828 -0.175439 0)
(3.04438 -0.202691 0)
(3.01972 -0.2151 0)
(3.06689 -0.246201 0)
(3.04141 -0.254938 0)
(3.09232 -0.284776 0)
(3.07236 -0.290459 0)
(3.12396 -0.31136 0)
(3.1118 -0.313425 0)
(3.15554 -0.318018 0)
(3.15315 -0.316575 0)
(2.99472 -0.00460945 0)
(3.00538 -0.0292929 0)
(2.99472 -0.0415501 0)
(3.00432 -0.0662565 0)
(2.99845 -0.0801188 0)
(3.0055 -0.106208 0)
(3.00825 -0.121227 0)
(3.00757 -0.142819 0)
(3.02016 -0.161926 0)
(3.01277 -0.18415 0)
(3.03753 -0.206547 0)
(3.02364 -0.227939 0)
(3.0639 -0.254637 0)
(3.04543 -0.269904 0)
(3.09537 -0.298233 0)
(3.0779 -0.308917 0)
(3.13707 -0.330121 0)
(3.1217 -0.331891 0)
(3.18186 -0.337139 0)
(3.16663 -0.330799 0)
(2.99329 -0.00300479 0)
(3.00659 -0.0308884 0)
(2.98974 -0.0409438 0)
(3.0068 -0.0685817 0)
(2.99135 -0.0795746 0)
(3.01064 -0.109875 0)
(2.99808 -0.12039 0)
(3.01362 -0.149061 0)
(3.00722 -0.162358 0)
(3.01955 -0.194503 0)
(3.02349 -0.207881 0)
(3.0303 -0.244247 0)
(3.05198 -0.260401 0)
(3.05217 -0.290316 0)
(3.0895 -0.309972 0)
(3.08746 -0.334536 0)
(3.14059 -0.348829 0)
(3.13673 -0.35895 0)
(3.19915 -0.358362 0)
(3.18953 -0.357932 0)
(2.99489 0.00109608 0)
(3.00362 -0.0354675 0)
(2.98699 -0.0376587 0)
(3.00603 -0.0729058 0)
(2.98602 -0.0761409 0)
(3.01306 -0.115217 0)
(2.98727 -0.116915 0)
(3.01806 -0.157043 0)
(2.99178 -0.160455 0)
(3.0255 -0.206104 0)
(3.00499 -0.207125 0)
(3.03643 -0.261903 0)
(3.03294 -0.26526 0)
(3.05822 -0.312913 0)
(3.07596 -0.324386 0)
(3.09787 -0.36206 0)
(3.13516 -0.374134 0)
(3.15497 -0.388828 0)
(3.20817 -0.385657 0)
(3.22148 -0.3845 0)
(3.00156 0.00921383 0)
(2.99449 -0.0451015 0)
(2.98953 -0.0290924 0)
(2.99942 -0.0815009 0)
(2.98555 -0.0672282 0)
(3.00885 -0.125104 0)
(2.98003 -0.107887 0)
(3.016 -0.170117 0)
(2.97944 -0.151884 0)
(3.02381 -0.223314 0)
(2.989 -0.198872 0)
(3.03333 -0.286458 0)
(3.01478 -0.261835 0)
(3.05311 -0.345225 0)
(3.06298 -0.333498 0)
(3.09615 -0.398932 0)
(3.13087 -0.40027 0)
(3.16455 -0.429317 0)
(3.22327 -0.419217 0)
(3.24724 -0.423713 0)
(3.01402 0.0214102 0)
(2.98002 -0.0595349 0)
(2.99751 -0.0147649 0)
(2.98782 -0.0947187 0)
(2.98915 -0.0521448 0)
(2.99909 -0.140017 0)
(2.97602 -0.092131 0)
(3.00782 -0.189147 0)
(2.97033 -0.13469 0)
(3.01348 -0.247133 0)
(2.97651 -0.181571 0)
(3.01925 -0.317812 0)
(2.99838 -0.248944 0)
(3.03543 -0.387129 0)
(3.04794 -0.335258 0)
(3.0807 -0.445776 0)
(3.12194 -0.426692 0)
(3.16544 -0.481577 0)
(3.23026 -0.464495 0)
(3.27325 -0.482656 0)
(3.02856 0.0352375 0)
(2.96578 -0.07482 0)
(3.00674 0.0013839 0)
(2.97691 -0.10842 0)
(2.99354 -0.0347875 0)
(2.98803 -0.155541 0)
(2.97518 -0.0724663 0)
(2.9934 -0.211026 0)
(2.96756 -0.109442 0)
(2.9907 -0.277403 0)
(2.97307 -0.152651 0)
(2.98723 -0.358653 0)
(2.9915 -0.220802 0)
(2.99537 -0.443883 0)
(3.03785 -0.319643 0)
(3.03737 -0.511072 0)
(3.11414 -0.443409 0)
(3.14063 -0.551133 0)
(3.23239 -0.519644 0)
(3.28949 -0.552753 0)
(3.04199 0.0490318 0)
(2.95507 -0.0896524 0)
(3.01692 0.018178 0)
(2.9666 -0.122653 0)
(3.00302 -0.0146941 0)
(2.97016 -0.172447 0)
(2.98773 -0.0474669 0)
(2.96057 -0.235664 0)
(2.98479 -0.0765435 0)
(2.94088 -0.311948 0)
(2.99142 -0.114541 0)
(2.92345 -0.405704 0)
(3.0045 -0.179747 0)
(2.92002 -0.513168 0)
(3.03928 -0.284873 0)
(2.954 -0.598747 0)
(3.10714 -0.441298 0)
(3.07357 -0.646779 0)
(3.22785 -0.574995 0)
(3.28977 -0.644009 0)
(3.05747 0.0595348 0)
(2.94258 -0.0998708 0)
(3.0355 0.0325311 0)
(2.947 -0.133282 0)
(3.02682 0.00602115 0)
(2.93409 -0.187284 0)
(3.02073 -0.0187027 0)
(2.90173 -0.258064 0)
(3.02265 -0.0399484 0)
(2.86321 -0.342895 0)
(3.02442 -0.0721171 0)
(2.83244 -0.451386 0)
(3.02538 -0.128029 0)
(2.81622 -0.590411 0)
(3.04237 -0.228256 0)
(2.83698 -0.714174 0)
(3.09726 -0.409462 0)
(2.95804 -0.787375 0)
(3.22601 -0.610924 0)
(3.25191 -0.798174 0)
(3.09101 0.0647115 0)
(2.90603 -0.104757 0)
(3.08411 0.044591 0)
(2.89176 -0.139249 0)
(3.08616 0.0263047 0)
(2.8569 -0.194539 0)
(3.08826 0.00730688 0)
(2.80597 -0.264142 0)
(3.08688 -0.0122106 0)
(2.75649 -0.348596 0)
(3.07498 -0.0397223 0)
(2.71671 -0.47065 0)
(3.05476 -0.0784053 0)
(2.69247 -0.648581 0)
(3.04259 -0.161937 0)
(2.70856 -0.844233 0)
(3.08159 -0.353806 0)
(2.8241 -0.9931 0)
(3.24606 -0.623125 0)
(3.18657 -1.05436 0)
(3.16312 0.0649786 0)
(2.82545 -0.100728 0)
(3.17813 0.0510326 0)
(2.7935 -0.13396 0)
(3.18782 0.0365103 0)
(2.74682 -0.182717 0)
(3.19251 0.0173574 0)
(2.6919 -0.240633 0)
(3.18884 -0.00644841 0)
(2.63294 -0.316106 0)
(3.17923 -0.0327025 0)
(2.56997 -0.441999 0)
(3.16199 -0.0554601 0)
(2.52219 -0.646795 0)
(3.12865 -0.104725 0)
(2.54101 -0.929029 0)
(3.11828 -0.280128 0)
(2.69542 -1.23834 0)
(3.2968 -0.607422 0)
(3.11551 -1.40609 0)
(3.23425 0.0591451 0)
(2.75112 -0.0890876 0)
(3.26279 0.0469174 0)
(2.71614 -0.118787 0)
(3.27622 0.0299468 0)
(2.67001 -0.157117 0)
(3.29122 0.00675934 0)
(2.60807 -0.203165 0)
(3.31452 -0.0223998 0)
(2.51446 -0.270635 0)
(3.35819 -0.0550753 0)
(2.38641 -0.386225 0)
(3.41605 -0.0949519 0)
(2.25718 -0.584122 0)
(3.46949 -0.160408 0)
(2.20264 -0.920492 0)
(3.52292 -0.306145 0)
(2.39665 -1.49532 0)
(3.60729 -0.614199 0)
(3.04193 -2.15545 0)
(3.18436 0.0585627 0)
(2.81859 -0.0837507 0)
(3.2036 0.0438625 0)
(2.80286 -0.108801 0)
(3.2068 0.027245 0)
(2.77211 -0.143193 0)
(3.22082 0.00996672 0)
(2.71645 -0.191452 0)
(3.2531 -0.00771423 0)
(2.61862 -0.263243 0)
(3.31417 -0.031876 0)
(2.47141 -0.37351 0)
(3.4106 -0.0821257 0)
(2.27039 -0.551371 0)
(3.55679 -0.192741 0)
(2.01985 -0.875248 0)
(3.78997 -0.407971 0)
(1.8072 -1.57786 0)
(4.26565 -0.745129 0)
(2.86842 -3.35505 0)
(3.0144 -0.260237 0)
(3.01977 -0.269281 0)
(3.01648 -0.257549 0)
(3.02326 -0.269291 0)
(3.01759 -0.253885 0)
(3.02537 -0.268807 0)
(3.01809 -0.249492 0)
(3.02745 -0.267835 0)
(3.01872 -0.244695 0)
(3.02933 -0.266374 0)
(3.04085 -0.263066 0)
(3.04766 -0.272536 0)
(3.04107 -0.260896 0)
(3.04933 -0.272938 0)
(3.04142 -0.256992 0)
(3.05253 -0.272538 0)
(3.04232 -0.252065 0)
(3.05582 -0.271821 0)
(3.04305 -0.246582 0)
(3.05875 -0.270829 0)
(3.05554 -0.266646 0)
(3.06479 -0.27554 0)
(3.05961 -0.26364 0)
(3.07154 -0.275421 0)
(3.06205 -0.259173 0)
(3.07573 -0.274712 0)
(3.06258 -0.253637 0)
(3.07932 -0.27378 0)
(3.06274 -0.247421 0)
(3.08266 -0.272785 0)
(3.07984 -0.271055 0)
(3.09127 -0.279583 0)
(3.0812 -0.267377 0)
(3.09549 -0.278928 0)
(3.08174 -0.262085 0)
(3.10079 -0.27777 0)
(3.08172 -0.255597 0)
(3.10585 -0.276557 0)
(3.08059 -0.248344 0)
(3.11055 -0.275627 0)
(3.09584 -0.277262 0)
(3.10956 -0.284323 0)
(3.10114 -0.272501 0)
(3.1195 -0.282654 0)
(3.10366 -0.266043 0)
(3.12651 -0.280538 0)
(3.10278 -0.258245 0)
(3.13264 -0.278517 0)
(3.09995 -0.249532 0)
(3.13852 -0.27714 0)
(3.12332 -0.285127 0)
(3.13598 -0.290225 0)
(3.12666 -0.279139 0)
(3.14328 -0.286968 0)
(3.1279 -0.271122 0)
(3.1512 -0.283086 0)
(3.12697 -0.261527 0)
(3.15836 -0.279315 0)
(3.12291 -0.250934 0)
(3.16481 -0.276434 0)
(3.14429 -0.295463 0)
(3.15282 -0.297652 0)
(3.15346 -0.287741 0)
(3.16556 -0.292216 0)
(3.15866 -0.277477 0)
(3.17436 -0.285771 0)
(3.15865 -0.265181 0)
(3.18094 -0.279334 0)
(3.15446 -0.251619 0)
(3.18616 -0.273955 0)
(3.1779 -0.307997 0)
(3.17851 -0.307513 0)
(3.18783 -0.298884 0)
(3.18822 -0.299331 0)
(3.19477 -0.285943 0)
(3.19668 -0.288996 0)
(3.19772 -0.270293 0)
(3.20172 -0.278236 0)
(3.19546 -0.253155 0)
(3.20382 -0.268357 0)
(3.20217 -0.323283 0)
(3.19645 -0.321627 0)
(3.22133 -0.312863 0)
(3.21314 -0.310201 0)
(3.23608 -0.295886 0)
(3.22201 -0.295216 0)
(3.2428 -0.275488 0)
(3.22424 -0.279426 0)
(3.24363 -0.253148 0)
(3.22188 -0.264416 0)
(3.2321 -0.343094 0)
(3.22756 -0.336891 0)
(3.25719 -0.324309 0)
(3.2474 -0.318923 0)
(3.27591 -0.302805 0)
(3.25756 -0.298891 0)
(3.28558 -0.277643 0)
(3.25928 -0.276816 0)
(3.28796 -0.249653 0)
(3.2542 -0.254986 0)
(3.26807 -0.366578 0)
(3.27051 -0.361011 0)
(3.29509 -0.34545 0)
(3.2902 -0.338353 0)
(3.31511 -0.317137 0)
(3.30295 -0.310425 0)
(3.32772 -0.283192 0)
(3.3061 -0.279354 0)
(3.33058 -0.245878 0)
(3.29891 -0.248483 0)
(3.29555 -0.399467 0)
(3.30337 -0.394985 0)
(3.3356 -0.373451 0)
(3.33602 -0.36465 0)
(3.36554 -0.335203 0)
(3.35421 -0.325638 0)
(3.38221 -0.289263 0)
(3.35805 -0.282258 0)
(3.38552 -0.239348 0)
(3.34775 -0.238746 0)
(3.33055 -0.443608 0)
(3.34785 -0.435867 0)
(3.38335 -0.403618 0)
(3.39146 -0.393088 0)
(3.42166 -0.35292 0)
(3.41712 -0.342111 0)
(3.44336 -0.293503 0)
(3.42429 -0.285259 0)
(3.44699 -0.2287 0)
(3.41311 -0.227069 0)
(3.3718 -0.500136 0)
(3.39645 -0.493672 0)
(3.43897 -0.449225 0)
(3.45027 -0.435982 0)
(3.48577 -0.378912 0)
(3.48461 -0.364907 0)
(3.51452 -0.298725 0)
(3.49712 -0.290383 0)
(3.52066 -0.216403 0)
(3.48723 -0.217216 0)
(3.39804 -0.586214 0)
(3.4374 -0.583546 0)
(3.49643 -0.525163 0)
(3.52259 -0.504579 0)
(3.56307 -0.42706 0)
(3.56892 -0.399718 0)
(3.59258 -0.312089 0)
(3.58101 -0.287123 0)
(3.59478 -0.193213 0)
(3.57264 -0.173784 0)
(3.41536 -0.717211 0)
(3.48352 -0.704065 0)
(3.57865 -0.615383 0)
(3.62104 -0.591964 0)
(3.68357 -0.496166 0)
(3.69733 -0.48225 0)
(3.73412 -0.381474 0)
(3.72769 -0.374061 0)
(3.74812 -0.25999 0)
(3.72448 -0.256874 0)
(3.51622 -0.93229 0)
(3.6226 -0.858015 0)
(3.73951 -0.702956 0)
(3.75171 -0.614055 0)
(3.8186 -0.470482 0)
(3.80421 -0.405685 0)
(3.87273 -0.27839 0)
(3.85491 -0.217976 0)
(3.92217 -0.0946778 0)
(3.89243 -0.0345164 0)
(3.78173 -1.27925 0)
(3.98453 -1.20924 0)
(4.13816 -1.07179 0)
(4.11291 -1.03387 0)
(4.16865 -0.891115 0)
(4.10318 -0.863351 0)
(4.18356 -0.6851 0)
(4.1178 -0.643164 0)
(4.19436 -0.443469 0)
(4.11523 -0.385866 0)
(3.86835 -1.22025 0)
(3.99141 -0.769767 0)
(4.02381 -0.538813 0)
(3.91222 -0.395802 0)
(3.97546 -0.31269 0)
(3.87792 -0.217098 0)
(4.04679 -0.122795 0)
(3.86944 -0.0728738 0)
(4.08277 0.0546528 0)
(3.87049 0.107329 0)
(4.63144 -2.48543 0)
(4.02686 -2.06889 0)
(3.17596 -1.73295 0)
(2.62299 -1.50833 0)
(2.4063 -1.3716 0)
(2.09381 -1.07935 0)
(1.98121 -1.00341 0)
(1.5585 -0.749308 0)
(1.75786 -0.470506 0)
(1.27594 -0.395987 0)
(2.97715 -0.124956 0)
(3.00045 -0.159893 0)
(3.31784 -0.680006 0)
(2.90086 -0.246401 0)
(2.92586 0.395261 0)
(3.56887 0.137239 0)
(2.75531 0.037428 0)
(1.88387 -0.311889 0)
(1.7145 -1.45888 0)
(2.01528 -1.7821 0)
(2.86027 -1.13192 0)
(3.36891 -0.300103 0)
(3.21033 0.578215 0)
(3.15794 1.22233 0)
(3.49603 0.739613 0)
(3.43251 -0.121334 0)
(3.23005 -0.698575 0)
(2.97286 -0.662947 0)
(3.28959 -0.598053 0)
(2.62874 -0.608306 0)
(2.9796 -0.10967 0)
(3.04248 -0.226472 0)
(3.43063 -0.65744 0)
(2.80574 -0.170998 0)
(3.02423 0.267752 0)
(3.69589 0.171976 0)
(2.64119 0.386404 0)
(2.21222 -0.146716 0)
(1.97734 -1.48168 0)
(2.01279 -2.04493 0)
(2.6445 -1.41985 0)
(3.2342 -0.375635 0)
(3.14707 0.593812 0)
(3.16462 1.17238 0)
(3.44428 0.69341 0)
(3.392 -0.0653191 0)
(3.28112 -0.602275 0)
(3.05913 -0.677474 0)
(3.1048 -0.533181 0)
(2.43124 -0.470635 0)
(2.97706 -0.101195 0)
(3.08484 -0.270566 0)
(3.45071 -0.634522 0)
(2.80125 -0.13228 0)
(3.15308 0.18102 0)
(3.56282 0.209284 0)
(2.92497 0.420376 0)
(2.51763 -0.0701359 0)
(2.03475 -1.36142 0)
(2.10141 -1.9661 0)
(2.54417 -1.42692 0)
(3.00968 -0.399085 0)
(3.02527 0.607683 0)
(3.11952 1.14574 0)
(3.36829 0.677003 0)
(3.35194 -0.0768926 0)
(3.25574 -0.609309 0)
(2.95613 -0.620579 0)
(3.00334 -0.456705 0)
(2.40313 -0.445658 0)
(2.94128 -0.0881036 0)
(3.19302 -0.329498 0)
(3.46833 -0.606428 0)
(2.78347 -0.106438 0)
(3.27692 0.107057 0)
(3.53836 0.226752 0)
(3.10098 0.577474 0)
(2.38667 0.0321416 0)
(2.059 -1.46113 0)
(2.04382 -2.18011 0)
(2.42835 -1.61339 0)
(2.82722 -0.478496 0)
(2.88349 0.575506 0)
(3.04561 1.0796 0)
(3.2841 0.640052 0)
(3.29765 -0.0378151 0)
(3.24421 -0.520691 0)
(3.00588 -0.605597 0)
(2.87212 -0.404366 0)
(2.24413 -0.344334 0)
(2.90934 -0.0795295 0)
(3.31864 -0.394961 0)
(3.39603 -0.557253 0)
(2.83115 -0.0673787 0)
(3.4021 0.0123384 0)
(3.51502 0.214151 0)
(3.13495 0.689664 0)
(2.64996 0.211498 0)
(2.38496 -1.24871 0)
(2.18269 -2.06094 0)
(2.33162 -1.6009 0)
(2.60326 -0.487752 0)
(2.72713 0.549912 0)
(2.93812 1.0356 0)
(3.15749 0.61293 0)
(3.23333 -0.0604866 0)
(3.19751 -0.530493 0)
(2.87825 -0.535841 0)
(2.73015 -0.300182 0)
(2.18455 -0.300939 0)
(2.90484 -0.0800372 0)
(3.41735 -0.436423 0)
(3.28142 -0.51856 0)
(2.97544 -0.105971 0)
(3.41882 -0.0380576 0)
(3.52338 0.30026 0)
(3.13484 0.774114 0)
(2.71434 0.219897 0)
(2.32314 -1.33285 0)
(2.13147 -2.18188 0)
(2.26391 -1.70173 0)
(2.43177 -0.547329 0)
(2.55433 0.505814 0)
(2.79662 0.966132 0)
(3.04234 0.567185 0)
(3.17028 -0.0431727 0)
(3.14109 -0.447748 0)
(2.83682 -0.481638 0)
(2.58904 -0.236522 0)
(2.05823 -0.228111 0)
(2.97355 -0.0773148 0)
(3.44232 -0.480357 0)
(3.11535 -0.484026 0)
(3.13534 -0.0768507 0)
(3.39447 -0.101188 0)
(3.63786 0.235113 0)
(3.35253 0.872487 0)
(2.88589 0.421159 0)
(2.53278 -1.13931 0)
(2.20868 -2.07231 0)
(2.17319 -1.66631 0)
(2.2608 -0.545389 0)
(2.38388 0.46666 0)
(2.63519 0.908304 0)
(2.91397 0.520303 0)
(3.10316 -0.0737346 0)
(3.06638 -0.443902 0)
(2.71146 -0.40726 0)
(2.4442 -0.138043 0)
(1.98178 -0.183234 0)
(3.12194 -0.0896854 0)
(3.33439 -0.464456 0)
(3.03068 -0.46378 0)
(3.19816 -0.170156 0)
(3.52654 -0.14507 0)
(3.59434 0.319703 0)
(3.20276 0.926143 0)
(2.82204 0.419426 0)
(2.57846 -1.16909 0)
(2.24288 -2.10962 0)
(2.12858 -1.70254 0)
(2.12797 -0.569837 0)
(2.21294 0.423353 0)
(2.48144 0.829818 0)
(2.81559 0.453646 0)
(3.0281 -0.0736892 0)
(2.97551 -0.367528 0)
(2.61443 -0.325981 0)
(2.29102 -0.0641524 0)
(1.87245 -0.131417 0)
(3.31471 -0.0781189 0)
(3.13111 -0.470675 0)
(3.00318 -0.474931 0)
(3.24103 -0.174797 0)
(3.53629 -0.164408 0)
(3.58068 0.285039 0)
(3.3696 1.04469 0)
(3.04417 0.599769 0)
(2.73272 -0.995259 0)
(2.28889 -1.98821 0)
(2.05159 -1.64381 0)
(2.00555 -0.553674 0)
(2.06456 0.38532 0)
(2.34928 0.755394 0)
(2.72687 0.387932 0)
(2.95841 -0.0989765 0)
(2.86604 -0.340189 0)
(2.46985 -0.243191 0)
(2.14471 0.0246024 0)
(1.79951 -0.0938181 0)
(3.4109 -0.0719027 0)
(3.01571 -0.397434 0)
(2.85952 -0.49735 0)
(3.34327 -0.292868 0)
(3.67691 -0.218605 0)
(3.71636 0.331192 0)
(3.45772 1.06197 0)
(3.01607 0.58795 0)
(2.72937 -0.996974 0)
(2.30987 -1.96981 0)
(1.99206 -1.62962 0)
(1.90614 -0.552014 0)
(1.94462 0.34413 0)
(2.24949 0.664808 0)
(2.65877 0.308804 0)
(2.87469 -0.100671 0)
(2.74347 -0.26499 0)
(2.33402 -0.153127 0)
(1.9994 0.0904129 0)
(1.71364 -0.0617534 0)
(3.43319 -0.03171 0)
(2.8454 -0.362182 0)
(2.76615 -0.569373 0)
(3.46997 -0.354851 0)
(3.78945 -0.209852 0)
(3.6361 0.336457 0)
(3.32801 1.16554 0)
(3.07178 0.769442 0)
(2.85451 -0.840415 0)
(2.35808 -1.836 0)
(1.92924 -1.55251 0)
(1.80029 -0.531054 0)
(1.84386 0.303393 0)
(2.17461 0.577194 0)
(2.59095 0.239688 0)
(2.7763 -0.10576 0)
(2.60462 -0.209638 0)
(2.18447 -0.0631343 0)
(1.86414 0.161119 0)
(1.64937 -0.0373105 0)
(3.50272 0.0291925 0)
(2.66777 -0.263827 0)
(2.49144 -0.648114 0)
(3.58117 -0.525072 0)
(3.99208 -0.243908 0)
(3.79949 0.420269 0)
(3.41006 1.22248 0)
(3.06434 0.732088 0)
(2.85845 -0.83751 0)
(2.37296 -1.77065 0)
(1.87822 -1.49146 0)
(1.69704 -0.513674 0)
(1.74913 0.25693 0)
(2.10969 0.479687 0)
(2.52604 0.165874 0)
(2.67342 -0.099297 0)
(2.4584 -0.137133 0)
(2.03429 0.023336 0)
(1.73699 0.214547 0)
(1.5866 -0.0209985 0)
(3.53008 0.121117 0)
(2.57774 -0.147754 0)
(1.95636 -0.780268 0)
(3.48873 -0.708794 0)
(4.16755 -0.222552 0)
(3.89356 0.460457 0)
(3.44807 1.29909 0)
(3.13899 0.899626 0)
(2.9222 -0.673276 0)
(2.3915 -1.62281 0)
(1.82193 -1.39411 0)
(1.59487 -0.488206 0)
(1.66451 0.20657 0)
(2.05692 0.38613 0)
(2.45548 0.108417 0)
(2.55402 -0.0783932 0)
(2.30329 -0.0612268 0)
(1.8851 0.108631 0)
(1.62411 0.260539 0)
(1.53729 -0.0119175 0)
(3.59198 0.234851 0)
(2.57781 0.044521 0)
(0.917687 -0.861192 0)
(2.83784 -1.02858 0)
(4.15598 -0.312515 0)
(3.97749 0.548893 0)
(3.49113 1.39934 0)
(3.11482 0.87718 0)
(2.88225 -0.675643 0)
(2.38569 -1.53442 0)
(1.77237 -1.29897 0)
(1.50208 -0.462271 0)
(1.59881 0.147568 0)
(2.01468 0.285625 0)
(2.38002 0.0490427 0)
(2.42038 -0.0579519 0)
(2.13629 0.0124381 0)
(1.73701 0.1855 0)
(1.52515 0.293488 0)
(1.49365 -0.00902694 0)
(3.62609 0.355068 0)
(2.74345 0.431935 0)
(-0.121085 -0.803285 0)
(1.64301 -1.45703 0)
(3.87322 -0.447366 0)
(4.00475 0.630691 0)
(3.47111 1.48436 0)
(3.1102 1.0297 0)
(2.92653 -0.508417 0)
(2.41672 -1.37458 0)
(1.74807 -1.18293 0)
(1.43269 -0.434952 0)
(1.5581 0.0845209 0)
(1.98138 0.196019 0)
(2.30463 0.0145767 0)
(2.28953 -0.0144147 0)
(1.97528 0.0926677 0)
(1.60056 0.255183 0)
(1.44391 0.3146 0)
(1.45746 -0.0123047 0)
(3.74934 0.445787 0)
(2.5957 0.811659 0)
(-0.384846 -0.640846 0)
(0.613098 -2.0252 0)
(3.35128 -0.808633 0)
(3.93202 0.621076 0)
(3.44347 1.58394 0)
(3.03813 1.02032 0)
(2.86048 -0.518696 0)
(2.38264 -1.27778 0)
(1.72261 -1.06925 0)
(1.39467 -0.408287 0)
(1.54798 0.0153261 0)
(1.95283 0.105584 0)
(2.21286 -0.0208204 0)
(2.13895 0.0259667 0)
(1.80893 0.167281 0)
(1.47732 0.31307 0)
(1.37931 0.324599 0)
(1.42416 -0.0187834 0)
(4.18371 0.634205 0)
(2.85041 1.33167 0)
(0.617145 -0.33283 0)
(0.526079 -2.40571 0)
(2.80014 -1.18384 0)
(3.72378 0.634313 0)
(3.31497 1.66261 0)
(2.99604 1.14189 0)
(2.85986 -0.357796 0)
(2.38424 -1.11717 0)
(1.72488 -0.948492 0)
(1.39464 -0.385023 0)
(1.56059 -0.0501634 0)
(1.92656 0.0361442 0)
(2.12068 -0.0284039 0)
(1.98891 0.0835646 0)
(1.65 0.240777 0)
(1.37426 0.359082 0)
(1.32831 0.324905 0)
(1.39201 -0.0285711 0)
(4.43527 0.699313 0)
(2.24041 1.64696 0)
(1.75506 -0.200213 0)
(1.25679 -2.39999 0)
(2.40414 -1.55388 0)
(3.45538 0.554828 0)
(3.17106 1.74074 0)
(2.91884 1.13455 0)
(2.75076 -0.370237 0)
(2.31254 -1.02993 0)
(1.71656 -0.841661 0)
(1.41962 -0.364823 0)
(1.58136 -0.114067 0)
(1.8857 -0.0275367 0)
(2.00734 -0.0320365 0)
(1.82877 0.140895 0)
(1.50116 0.305273 0)
(1.29369 0.391614 0)
(1.28573 0.318695 0)
(1.35929 -0.0389892 0)
(4.75261 0.914191 0)
(2.3617 1.99052 0)
(1.83204 -0.0392321 0)
(1.68222 -2.43066 0)
(2.13724 -1.76001 0)
(3.23365 0.521711 0)
(3.01492 1.77711 0)
(2.86086 1.21022 0)
(2.70241 -0.219654 0)
(2.29134 -0.880225 0)
(1.73864 -0.734332 0)
(1.46393 -0.346332 0)
(1.59561 -0.164216 0)
(1.82745 -0.0659521 0)
(1.87847 -0.0150007 0)
(1.66491 0.20419 0)
(1.37054 0.359922 0)
(1.23403 0.412243 0)
(1.24665 0.308287 0)
(1.32616 -0.0507334 0)
(3.7872 0.988986 0)
(1.57729 2.32522 0)
(1.22823 -0.164676 0)
(1.59293 -2.57668 0)
(1.86656 -1.98567 0)
(3.03318 0.396451 0)
(2.91812 1.78943 0)
(2.78569 1.20983 0)
(2.55209 -0.223821 0)
(2.19483 -0.814346 0)
(1.74219 -0.649979 0)
(1.50461 -0.328703 0)
(1.58501 -0.204056 0)
(1.73553 -0.0926633 0)
(1.72611 0.00712053 0)
(1.50301 0.263373 0)
(1.26502 0.400563 0)
(1.18882 0.422787 0)
(1.20933 0.296264 0)
(1.29388 -0.0624827 0)
(4.89357 0.557145 0)
(1.25798 2.51637 0)
(1.58392 -0.118364 0)
(1.74908 -2.50153 0)
(1.74002 -2.09702 0)
(2.86023 0.347682 0)
(2.81675 1.8078 0)
(2.69404 1.25314 0)
(2.46094 -0.115361 0)
(2.15886 -0.714155 0)
(1.76681 -0.580293 0)
(1.53293 -0.308633 0)
(1.55238 -0.218763 0)
(1.63706 -0.097233 0)
(1.59444 0.0324237 0)
(1.38296 0.306307 0)
(1.19858 0.423601 0)
(1.15896 0.426428 0)
(1.18164 0.285813 0)
(1.26834 -0.0726873 0)
(3.93814 -0.0721289 0)
(0.988722 2.71477 0)
(1.73535 -0.212125 0)
(1.93774 -2.54024 0)
(1.6889 -2.19585 0)
(2.72443 0.266153 0)
(2.74877 1.79726 0)
(2.61942 1.27104 0)
(2.35334 -0.102972 0)
(2.09709 -0.681949 0)
(1.77267 -0.537183 0)
(1.54528 -0.290228 0)
(1.51542 -0.224179 0)
(1.55065 -0.0973863 0)
(1.49034 0.0518109 0)
(1.29671 0.335614 0)
(1.15609 0.436673 0)
(1.13849 0.427015 0)
(1.16219 0.277464 0)
(1.24852 -0.0806041 0)
(1.32383 -0.249661 0)
(0.684634 2.8717 0)
(1.86123 -0.332855 0)
(2.09033 -2.49813 0)
(1.6573 -2.24449 0)
(2.57047 0.224839 0)
(2.64642 1.80775 0)
(2.5214 1.2992 0)
(2.26124 -0.0416036 0)
(2.06039 -0.626321 0)
(1.78656 -0.492891 0)
(1.55338 -0.267425 0)
(1.47484 -0.221156 0)
(1.46301 -0.0915893 0)
(1.39234 0.0710691 0)
(1.22269 0.360162 0)
(1.12293 0.445357 0)
(1.12168 0.425948 0)
(1.14603 0.26938 0)
(1.22909 -0.0883112 0)
(-0.37512 -0.386583 0)
(-0.0812733 2.86079 0)
(2.32023 -0.469858 0)
(2.21377 -2.44348 0)
(1.60567 -2.27658 0)
(2.42433 0.135744 0)
(2.55321 1.79103 0)
(2.42169 1.31963 0)
(2.15814 -0.0217839 0)
(2.01011 -0.60327 0)
(1.79316 -0.458221 0)
(1.55637 -0.241392 0)
(1.43577 -0.211048 0)
(1.38091 -0.0821181 0)
(1.30586 0.0881924 0)
(1.16254 0.378875 0)
(1.09774 0.449834 0)
(1.10949 0.423527 0)
(1.13328 0.261744 0)
(1.20982 -0.0954943 0)
(-1.4348 -0.134941 0)
(-1.49463 2.54964 0)
(2.52396 -0.804058 0)
(2.31569 -2.40837 0)
(1.55645 -2.28278 0)
(2.25292 0.113079 0)
(2.42808 1.79537 0)
(2.30688 1.3437 0)
(2.07105 0.0200052 0)
(1.97743 -0.569617 0)
(1.80414 -0.423867 0)
(1.55942 -0.211426 0)
(1.40359 -0.194677 0)
(1.31067 -0.0687306 0)
(1.23513 0.104222 0)
(1.11564 0.394259 0)
(1.07927 0.451672 0)
(1.10289 0.420216 0)
(1.12362 0.254977 0)
(1.19055 -0.10191 0)
(-2.25732 0.0237703 0)
(-1.13566 2.24593 0)
(2.8256 -1.0527 0)
(2.45298 -2.31854 0)
(1.51999 -2.26395 0)
(2.10163 0.0270418 0)
(2.31838 1.76973 0)
(2.19878 1.36729 0)
(1.99212 0.0375192 0)
(1.94607 -0.557088 0)
(1.81326 -0.395638 0)
(1.56348 -0.179944 0)
(1.38074 -0.173646 0)
(1.25595 -0.0536401 0)
(1.1818 0.116838 0)
(1.08104 0.40369 0)
(1.06753 0.449956 0)
(1.10247 0.415868 0)
(1.11656 0.249463 0)
(1.17136 -0.107299 0)
(-2.56666 0.354097 0)
(0.688816 1.7889 0)
(3.05251 -1.22256 0)
(2.47918 -2.21989 0)
(1.49326 -2.22501 0)
(1.94427 0.027176 0)
(2.1918 1.77279 0)
(2.08621 1.37772 0)
(1.94102 0.05952 0)
(1.93604 -0.542385 0)
(1.82977 -0.364128 0)
(1.57291 -0.14053 0)
(1.36757 -0.147361 0)
(1.21716 -0.0343366 0)
(1.14442 0.130611 0)
(1.05517 0.413947 0)
(1.062 0.447715 0)
(1.10786 0.411492 0)
(1.11167 0.245738 0)
(1.15262 -0.111447 0)
(-2.62555 0.268113 0)
(1.9752 1.31555 0)
(3.1286 -1.31698 0)
(2.53161 -2.11983 0)
(1.47757 -2.1886 0)
(1.80525 -0.0680214 0)
(2.09276 1.73162 0)
(1.98753 1.40346 0)
(1.91705 0.0742749 0)
(1.942 -0.532799 0)
(1.85237 -0.351805 0)
(1.58718 -0.114889 0)
(1.36116 -0.120397 0)
(1.19055 -0.0175187 0)
(1.11934 0.138548 0)
(1.03876 0.41522 0)
(1.06465 0.440551 0)
(1.11877 0.406272 0)
(1.10897 0.244002 0)
(1.13503 -0.114167 0)
(-2.93971 0.526243 0)
(2.74458 0.907249 0)
(3.27429 -1.27575 0)
(2.64162 -1.96255 0)
(1.4877 -2.11688 0)
(1.69524 -0.0327184 0)
(1.98541 1.74539 0)
(1.89479 1.39035 0)
(1.93492 0.0631477 0)
(1.97715 -0.536636 0)
(1.88538 -0.295812 0)
(1.61306 -0.0531153 0)
(1.36085 -0.0848814 0)
(1.17113 0.0079605 0)
(1.10157 0.155464 0)
(1.0266 0.425747 0)
(1.07318 0.436825 0)
(1.13318 0.402931 0)
(1.10877 0.244788 0)
(1.11953 -0.115317 0)
(-3.49076 0.22147 0)
(3.33747 0.324212 0)
(3.26642 -1.28922 0)
(2.66049 -1.87354 0)
(1.47565 -2.03288 0)
(1.60599 -0.148185 0)
(1.91788 1.67614 0)
(1.82855 1.41706 0)
(1.98874 0.0821534 0)
(2.04894 -0.542007 0)
(1.93631 -0.332417 0)
(1.64109 -0.0469548 0)
(1.3588 -0.0550116 0)
(1.15251 0.0239547 0)
(1.08921 0.153963 0)
(1.02696 0.41479 0)
(1.09292 0.422115 0)
(1.15306 0.397333 0)
(1.11261 0.247447 0)
(1.10727 -0.114921 0)
(-1.11652 0.911341 0)
(3.49834 -0.41977 0)
(3.28696 -1.22395 0)
(2.89879 -1.67094 0)
(1.52683 -1.82142 0)
(1.43237 0.0101383 0)
(1.76873 1.74913 0)
(1.70999 1.33606 0)
(2.13109 -0.00914093 0)
(2.19952 -0.46002 0)
(2.01766 -0.108681 0)
(1.68234 0.103309 0)
(1.35757 0.02268 0)
(1.11095 0.0798298 0)
(1.05712 0.197284 0)
(1.02164 0.442041 0)
(1.12583 0.422427 0)
(1.18317 0.399958 0)
(1.12368 0.257492 0)
(1.09415 -0.111727 0)
(2.32891 0.530875 0)
(4.3819 -0.897617 0)
(3.51026 -1.18685 0)
(3.30115 -1.36797 0)
(1.88754 -1.71601 0)
(1.57426 -0.300586 0)
(1.72811 1.51888 0)
(1.76842 1.32017 0)
(2.52371 -0.0267678 0)
(2.6231 -0.601864 0)
(2.4205 -0.29975 0)
(1.96604 0.11123 0)
(1.45845 0.116554 0)
(1.10405 0.115708 0)
(1.07697 0.15984 0)
(1.10166 0.373147 0)
(1.23341 0.36423 0)
(1.25815 0.383877 0)
(1.176 0.275187 0)
(1.10409 -0.100191 0)
(3.76189 1.07185 0)
(4.13806 -0.527727 0)
(3.09759 -0.818418 0)
(3.36438 -1.00902 0)
(2.46534 -1.10692 0)
(1.62802 0.119557 0)
(1.48351 1.68289 0)
(2.00005 1.1035 0)
(2.84579 -0.260704 0)
(2.8828 -0.386824 0)
(2.43413 0.146668 0)
(1.8779 0.458385 0)
(1.43105 0.309186 0)
(1.08337 0.216283 0)
(1.10815 0.19296 0)
(1.16616 0.389038 0)
(1.31989 0.381374 0)
(1.3281 0.415107 0)
(1.27248 0.315576 0)
(1.15917 -0.0762442 0)
(3.93035 0.524754 0)
(4.00763 -0.688007 0)
(3.65521 -1.09973 0)
(3.28039 -1.25835 0)
(2.86227 -1.25633 0)
(1.92125 -0.0329892 0)
(1.44232 1.41032 0)
(2.37657 0.842267 0)
(2.76543 -0.339615 0)
(3.02319 -0.537396 0)
(3.0018 0.00136276 0)
(2.40845 0.457387 0)
(1.77209 0.412098 0)
(1.24934 0.254618 0)
(1.24116 0.133369 0)
(1.29422 0.295677 0)
(1.47188 0.311371 0)
(1.47621 0.38175 0)
(1.44936 0.331013 0)
(1.26296 -0.0472487 0)
(3.75012 0.659979 0)
(4.18843 -0.307334 0)
(3.27396 -0.541702 0)
(2.18544 -0.580572 0)
(1.67085 -0.548248 0)
(1.19282 0.57077 0)
(1.58179 1.50319 0)
(2.78782 0.645866 0)
(2.73076 -0.436668 0)
(2.66064 -0.441402 0)
(2.80077 0.342112 0)
(2.40418 0.841827 0)
(1.82488 0.680752 0)
(1.29936 0.401226 0)
(1.30487 0.166224 0)
(1.37179 0.293307 0)
(1.5961 0.328119 0)
(1.62889 0.417231 0)
(1.65381 0.400706 0)
(1.39751 0.0114478 0)
(3.7544 0.365432 0)
(3.80043 -0.417853 0)
(3.25053 -0.539457 0)
(3.48158 -0.749276 0)
(2.84131 -0.869381 0)
(1.88239 0.0716175 0)
(2.42686 0.911586 0)
(3.01436 0.500924 0)
(2.74209 -0.334457 0)
(2.66249 -0.581553 0)
(2.89827 0.11437 0)
(2.5565 0.837472 0)
(2.03064 0.816248 0)
(1.46285 0.466078 0)
(1.39349 0.115974 0)
(1.45652 0.193288 0)
(1.75856 0.239684 0)
(1.86532 0.343455 0)
(1.92436 0.402202 0)
(1.5611 0.0603912 0)
(3.70703 0.366038 0)
(3.62206 -0.126112 0)
(3.28541 -0.45906 0)
(3.37596 -0.427627 0)
(2.6547 -0.125751 0)
(2.24754 0.552926 0)
(2.97006 1.03103 0)
(3.34349 0.566987 0)
(3.13252 -0.303115 0)
(2.8049 -0.49705 0)
(2.90046 0.311682 0)
(2.65172 1.08647 0)
(2.24512 1.02463 0)
(1.66386 0.626149 0)
(1.5238 0.163614 0)
(1.54159 0.14361 0)
(1.92168 0.195431 0)
(2.08876 0.339859 0)
(2.15551 0.516075 0)
(1.74033 0.1678 0)
(3.50562 0.261494 0)
(3.59421 -0.166724 0)
(3.16972 -0.465078 0)
(3.07426 -0.455468 0)
(2.65044 -0.386257 0)
(2.41522 0.0473294 0)
(3.09864 0.595492 0)
(3.53699 0.525668 0)
(3.4542 -0.140864 0)