x,y,z,U_0,U_1,U_2
0,0,0,3.02215,0.0309236,7.20818e-12
0,0.1,0,3.01762,0.0245928,5.73249e-12
0,0.2,0,3.01308,0.018262,4.2568e-12
0,0.3,0,3.00855,0.0119312,2.78111e-12
0,0.4,0,3.00401,0.00560034,1.30542e-12
0,0.5,0,3,-1.11568e-18,1.23242e-27
0,0.6,0,3,-1.33882e-18,1.47891e-27
0,0.7,0,3,-1.56196e-18,1.72539e-27
0,0.8,0,3,-1.7851e-18,1.97188e-27
0,0.9,0,3,-2.00823e-18,2.21836e-27
0,1,0,3,-2.23137e-18,2.46485e-27
0,1.1,0,3,-2.45451e-18,2.71133e-27
0,1.2,0,3,-2.67764e-18,2.95782e-27
0,1.3,0,3,-2.90078e-18,3.2043e-27
0,1.4,0,3,-3.12392e-18,3.45079e-27
0,1.5,0,3,-3.31563e-18,5.39694e-27
0,1.6,0,3,-3.53667e-18,5.75673e-27
0,1.7,0,3,-3.75771e-18,6.11653e-27
0,1.8,0,3,-3.97875e-18,6.47632e-27
0,1.9,0,3,-4.19979e-18,6.83612e-27
0,2,0,3,-4.37067e-18,9.15901e-27
0,2.1,0,3,-4.5892e-18,9.61696e-27
0,2.2,0,3,-4.80774e-18,1.00749e-26
0,2.3,0,3,-5.02627e-18,1.05329e-26
0,2.4,0,3,-5.24481e-18,1.09908e-26
0,2.5,0,3,-4.64895e-18,1.33991e-26
0,2.6,0,3,-4.83491e-18,1.39351e-26
0,2.7,0,3,-5.02087e-18,1.44711e-26
0,2.8,0,3,-5.20683e-18,1.5007e-26
0,2.9,0,3,-5.39279e-18,1.5543e-26
0,3,0,3,-4.41046e-18,1.73934e-26
0,3.1,0,3,-4.55747e-18,1.79731e-26
0,3.2,0,3,-4.70449e-18,1.85529e-26
0,3.3,0,3,-4.8515e-18,1.91327e-26
0,3.4,0,3,-4.99852e-18,1.97125e-26
0,3.5,0,3,-3.96267e-18,1.94359e-26
0,3.6,0,3,-4.07589e-18,1.99912e-26
0,3.7,0,3,-4.1891e-18,2.05465e-26
0,3.8,0,3,-4.30232e-18,2.11018e-26
0,3.9,0,3,-4.41554e-18,2.16571e-26
0,4,0,3,-3.39163e-18,1.90083e-26
0,4.1,0,3,-3.47642e-18,1.94835e-26
0,4.2,0,3,-3.56121e-18,1.99587e-26
0,4.3,0,3,-3.646e-18,2.04339e-26
0,4.4,0,3,-3.31943e-18,1.64293e-26
0,4.5,0,3,-3.39487e-18,1.68027e-26
0,4.6,0,3,-3.47031e-18,1.71761e-26
0,4.7,0,3,-3.54576e-18,1.75494e-26
0,4.8,0,3,-3.6212e-18,1.79228e-26
0,4.9,0,3,-3.22366e-18,1.19442e-26
0,5,0,3,-3.28945e-18,1.2188e-26
0,5.1,0,3,-3.35524e-18,1.24318e-26
0,5.2,0,3,-3.42103e-18,1.26755e-26
0,5.3,0,3,-3.48682e-18,1.29193e-26
0,5.4,0,3,-1.67433e-18,2.82897e-27
0,5.5,0,3,-1.70534e-18,2.88136e-27
0,5.6,0,3,-1.73635e-18,2.93375e-27
0,5.7,0,3,-1.76735e-18,2.98614e-27
0,5.8,0,3,-1.79836e-18,3.03853e-27
0,5.9,0,3,-5.66879e-19,-9.85365e-27
0,6,0,3,-5.76487e-19,-1.00207e-26
0,6.1,0,3,-5.86095e-19,-1.01877e-26
0,6.2,0,3,-5.95703e-19,-1.03547e-26
0,6.3,0,3,-6.05311e-19,-1.05217e-26
0,6.4,0,3,1.32296e-19,-2.37408e-26
0,6.5,0,3,1.34363e-19,-2.41118e-26
0,6.6,0,3,1.3643e-19,-2.44827e-26
0,6.7,0,3,1.38497e-19,-2.48537e-26
0,6.8,0,3,1.40565e-19,-2.52246e-26
0,6.9,0,3,1.99068e-18,-3.5981e-26
0,7,0,3,2.01953e-18,-3.65024e-26
0,7.1,0,3,2.04838e-18,-3.70239e-26
0,7.2,0,3,2.07723e-18,-3.75454e-26
0,7.3,0,3,2.10608e-18,-3.80668e-26
0,7.4,0,3,3.48594e-18,-4.28046e-26
0,7.5,0,3,3.53304e-18,-4.33831e-26
0,7.6,0,3,3.58015e-18,-4.39615e-26
0,7.7,0,3,3.62726e-18,-4.454e-26
0,7.8,0,3,3.67437e-18,-4.51184e-26
0,7.9,0,3,4.51085e-18,-4.23753e-26
0,8,0,3,4.56795e-18,-4.29117e-26
0,8.1,0,3,4.62505e-18,-4.34481e-26
0,8.2,0,3,4.68215e-18,-4.39845e-26
0,8.3,0,3,4.73925e-18,-4.45209e-26
0,8.4,0,3,5.83713e-18,-3.47333e-26
0,8.5,0,3,5.90662e-18,-3.51468e-26
0,8.6,0,3,5.97611e-18,-3.55603e-26
0,8.7,0,3,6.0456e-18,-3.59738e-26
0,8.8,0,3,7.61099e-18,-1.9989e-26
0,8.9,0,3,7.69748e-18,-2.02162e-26
0,9,0,3,7.78397e-18,-2.04433e-26
0,9.1,0,3,7.87046e-18,-2.06704e-26
0,9.2,0,3,7.95695e-18,-2.08976e-26
0,9.3,0,3,1.07004e-17,-3.52251e-28
0,9.4,0,3,1.08154e-17,-3.56038e-28
0,9.5,0,3,1.09305e-17,-3.59826e-28
0,9.6,0,3,1.10455e-17,-3.63613e-28
0,9.7,0,3,1.11606e-17,-3.67401e-28
0,9.8,0,3,1.30133e-17,2.15856e-26
0,9.9,0,3,1.3146e-17,2.18059e-26
0,10,0,3,1.32788e-17,2.20261e-26
0,10.1,0,3,1.34116e-17,2.22464e-26
0,10.2,0,3,1.35444e-17,2.24667e-26
0,10.3,0,3,1.37097e-17,4.25716e-26
0,10.4,0,3,1.38428e-17,4.2985e-26
0,10.5,0,3,1.39759e-17,4.33983e-26
0,10.6,0,3,1.4109e-17,4.38116e-26
0,10.7,0,3,1.42421e-17,4.42249e-26
0,10.8,0,3,1.49981e-17,5.79027e-26
0,10.9,0,3,1.51369e-17,5.84388e-26
0,11,0,3,1.52758e-17,5.8975e-26
0,11.1,0,3,1.54147e-17,5.95111e-26
0,11.2,0,3,1.55536e-17,6.00472e-26
0,11.3,0,3,1.64843e-17,6.47478e-26
0,11.4,0,3,1.66302e-17,6.53208e-26
0,11.5,0,3,1.67761e-17,6.58938e-26
0,11.6,0,3,1.69219e-17,6.64668e-26
0,11.7,0,3,1.70678e-17,6.70398e-26
0,11.8,0,3,1.81143e-17,5.95024e-26
0,11.9,0,3,1.82678e-17,6.00067e-26
0,12,0,3,1.84213e-17,6.05109e-26
0,12.1,0,3,1.85748e-17,6.10152e-26
0,12.2,0,3,1.87283e-17,6.15194e-26
0,12.3,0,3.00093,0.0011681,3.48862e-12
0,12.4,0,3.00199,0.00248855,7.43227e-12
0,12.5,0,3.00304,0.00380901,1.13759e-11
0,12.6,0,3.00409,0.00512947,1.53196e-11
0,12.7,0,3.00515,0.00644993,1.92632e-11
0.1,0,0,3.01619,0.0158416,9.63654e-12
0.1,0.1,0,3.01654,0.0156781,1.13687e-11
0.1,0.2,0,3.01201,0.0093473,9.893e-12
0.1,0.3,0,3.00747,0.00301648,8.41731e-12
0.1,0.4,0,3.00294,-0.00331434,6.94162e-12
0.1,0.5,0,2.99908,-0.00889223,6.07002e-12
0.1,0.6,0,3.00042,-0.00857039,9.46715e-12
0.1,0.7,0,3.00042,-0.00857039,9.46715e-12
0.1,0.8,0,3.00042,-0.00857039,9.46715e-12
0.1,0.9,0,3.00042,-0.00857039,9.46715e-12
0.1,1,0,3.00042,-0.00857039,9.46715e-12
0.1,1.1,0,3.00042,-0.00857039,9.46715e-12
0.1,1.2,0,3.00042,-0.00857039,9.46715e-12
0.1,1.3,0,3.00042,-0.00857039,9.46715e-12
0.1,1.4,0,3.00062,-0.00854348,1.09222e-11
0.1,1.5,0,3.001,-0.00848991,1.38193e-11
0.1,1.6,0,3.001,-0.00848991,1.38193e-11
0.1,1.7,0,3.001,-0.00848991,1.38193e-11
0.1,1.8,0,3.001,-0.00848991,1.38193e-11
0.1,1.9,0,3.00046,-0.00844619,1.55306e-11
0.1,2,0,2.9998,-0.00839358,1.75893e-11
0.1,2.1,0,2.9998,-0.00839358,1.75893e-11
0.1,2.2,0,2.9998,-0.00839358,1.75893e-11
0.1,2.3,0,2.9998,-0.00839358,1.75893e-11
0.1,2.4,0,2.99963,-0.00767697,1.93055e-11
0.1,2.5,0,2.9995,-0.0071424,2.05857e-11
0.1,2.6,0,2.9995,-0.0071424,2.05857e-11
0.1,2.7,0,2.9995,-0.0071424,2.05857e-11
0.1,2.8,0,2.9995,-0.0071424,2.05857e-11
0.1,2.9,0,3.00054,-0.00611019,2.1747e-11
0.1,3,0,3.00101,-0.00564666,2.22685e-11
0.1,3.1,0,3.00101,-0.00564666,2.22685e-11
0.1,3.2,0,3.00101,-0.00564666,2.22685e-11
0.1,3.3,0,3.00101,-0.00564666,2.22685e-11
0.1,3.4,0,3.0008,-0.00459957,2.15105e-11
0.1,3.5,0,3.00075,-0.00434859,2.13288e-11
0.1,3.6,0,3.00075,-0.00434859,2.13288e-11
0.1,3.7,0,3.00075,-0.00434859,2.13288e-11
0.1,3.8,0,3.00075,-0.00434859,2.13288e-11
0.1,3.9,0,2.99818,-0.00334065,1.84886e-11
0.1,4,0,2.99797,-0.0032567,1.82521e-11
0.1,4.1,0,2.99797,-0.0032567,1.82521e-11
0.1,4.2,0,2.99797,-0.0032567,1.82521e-11
0.1,4.3,0,2.998,-0.00324578,1.81332e-11
0.1,4.4,0,2.99893,-0.00289761,1.43415e-11
0.1,4.5,0,2.99893,-0.00289761,1.43415e-11
0.1,4.6,0,2.99893,-0.00289761,1.43415e-11
0.1,4.7,0,2.99893,-0.00289761,1.43415e-11
0.1,4.8,0,2.99925,-0.0028432,1.36107e-11
0.1,4.9,0,3.00115,-0.00252687,9.36249e-12
0.1,5,0,3.00115,-0.00252687,9.36249e-12
0.1,5.1,0,3.00115,-0.00252687,9.36249e-12
0.1,5.2,0,3.00115,-0.00252687,9.36249e-12
0.1,5.3,0,3.00092,-0.00217528,7.42808e-12
0.1,5.4,0,3.00027,-0.00119091,2.01217e-12
0.1,5.5,0,3.00027,-0.00119091,2.01217e-12
0.1,5.6,0,3.00027,-0.00119091,2.01217e-12
0.1,5.7,0,3.00027,-0.00119091,2.01217e-12
0.1,5.8,0,3.00007,-0.00087893,-1.1866e-12
0.1,5.9,0,2.99976,-0.000369035,-6.41467e-12
0.1,6,0,2.99976,-0.000369035,-6.41467e-12
0.1,6.1,0,2.99976,-0.000369035,-6.41467e-12
0.1,6.2,0,2.99976,-0.000369035,-6.41467e-12
0.1,6.3,0,2.9999,-0.000146597,-1.03001e-11
0.1,6.4,0,3.00005,7.93955e-05,-1.42477e-11
0.1,6.5,0,3.00005,7.93955e-05,-1.42477e-11
0.1,6.6,0,3.00005,7.93955e-05,-1.42477e-11
0.1,6.7,0,3.00005,7.93955e-05,-1.42477e-11
0.1,6.8,0,2.99991,0.00070949,-1.77886e-11
0.1,6.9,0,2.99983,0.00110811,-2.00287e-11
0.1,7,0,2.99983,0.00110811,-2.00287e-11
0.1,7.1,0,2.99983,0.00110811,-2.00287e-11
0.1,7.2,0,2.99983,0.00110811,-2.00287e-11
0.1,7.3,0,2.99952,0.00161931,-2.16241e-11
0.1,7.4,0,2.99941,0.00180933,-2.22171e-11
0.1,7.5,0,2.99941,0.00180933,-2.22171e-11
0.1,7.6,0,2.99941,0.00180933,-2.22171e-11
0.1,7.7,0,2.99941,0.00180933,-2.22171e-11
0.1,7.8,0,2.99943,0.00213384,-2.08516e-11
0.1,7.9,0,2.99943,0.00219311,-2.06022e-11
0.1,8,0,2.99943,0.00219311,-2.06022e-11
0.1,8.1,0,2.99943,0.00219311,-2.06022e-11
0.1,8.2,0,2.99943,0.00219311,-2.06022e-11
0.1,8.3,0,2.99957,0.00265101,-1.60602e-11
0.1,8.4,0,2.99958,0.002669,-1.58817e-11
0.1,8.5,0,2.99958,0.002669,-1.58817e-11
0.1,8.6,0,2.99958,0.002669,-1.58817e-11
0.1,8.7,0,2.9996,0.00271392,-1.53893e-11
0.1,8.8,0,2.99993,0.00332191,-8.72444e-12
0.1,8.9,0,2.99993,0.00332191,-8.72444e-12
0.1,9,0,2.99993,0.00332191,-8.72444e-12
0.1,9.1,0,2.99993,0.00332191,-8.72444e-12
0.1,9.2,0,2.99994,0.00352548,-7.13291e-12
0.1,9.3,0,3.00001,0.00441921,-1.45478e-13
0.1,9.4,0,3.00001,0.00441921,-1.45478e-13
0.1,9.5,0,3.00001,0.00441921,-1.45478e-13
0.1,9.6,0,3.00001,0.00441921,-1.45478e-13
0.1,9.7,0,2.99988,0.00462512,2.45649e-12
0.1,9.8,0,2.9996,0.00510022,8.45994e-12
0.1,9.9,0,2.9996,0.00510022,8.45994e-12
0.1,10,0,2.9996,0.00510022,8.45994e-12
0.1,10.1,0,2.9996,0.00510022,8.45994e-12
0.1,10.2,0,2.99957,0.00510529,1.15692e-11
0.1,10.3,0,2.99953,0.00511232,1.58749e-11
0.1,10.4,0,2.99953,0.00511232,1.58749e-11
0.1,10.5,0,2.99953,0.00511232,1.58749e-11
0.1,10.6,0,2.99953,0.00511232,1.58749e-11
0.1,10.7,0,2.99965,0.00523113,1.84048e-11
0.1,10.8,0,2.99976,0.00533385,2.05923e-11
0.1,10.9,0,2.99976,0.00533385,2.05923e-11
0.1,11,0,2.99976,0.00533385,2.05923e-11
0.1,11.1,0,2.99976,0.00533385,2.05923e-11
0.1,11.2,0,2.99998,0.00550964,2.15167e-11
0.1,11.3,0,3.0001,0.00560301,2.20078e-11
0.1,11.4,0,3.0001,0.00560301,2.20078e-11
0.1,11.5,0,3.0001,0.00560301,2.20078e-11
0.1,11.6,0,3.0001,0.00560301,2.20078e-11
0.1,11.7,0,3.00016,0.00582856,1.99765e-11
0.1,11.8,0,3.00017,0.00589615,1.93679e-11
0.1,11.9,0,3.00017,0.00589615,1.93679e-11
0.1,12,0,3.00017,0.00589615,1.93679e-11
0.1,12.1,0,3.00017,0.00589615,1.93679e-11
0.1,12.2,0,2.99998,0.00621379,1.28115e-11
0.1,12.3,0,3.00089,0.0074267,1.54588e-11
0.1,12.4,0,3.00194,0.00874716,1.94024e-11
0.1,12.5,0,3.00299,0.0100676,2.33461e-11
0.1,12.6,0,3.00405,0.0113881,2.72897e-11
0.1,12.7,0,3.00396,0.0115748,2.24821e-11
0.2,0,0,3.01022,0.000759597,1.20649e-11
0.2,0.1,0,3.01065,0.000694857,1.38484e-11
0.2,0.2,0,3.01093,0.000432611,1.55292e-11
0.2,0.3,0,3.0064,-0.00589821,1.40535e-11
0.2,0.4,0,3.00186,-0.012229,1.25778e-11
0.2,0.5,0,2.99799,-0.0178271,1.169e-11
0.2,0.6,0,2.99952,-0.0174576,1.55901e-11
0.2,0.7,0,3.00084,-0.0171408,1.89343e-11
0.2,0.8,0,3.00084,-0.0171408,1.89343e-11
0.2,0.9,0,3.00084,-0.0171408,1.89343e-11
0.2,1,0,3.00084,-0.0171408,1.89343e-11
0.2,1.1,0,3.00084,-0.0171408,1.89343e-11
0.2,1.2,0,3.00084,-0.0171408,1.89343e-11
0.2,1.3,0,3.00102,-0.0171152,2.03164e-11
0.2,1.4,0,3.00162,-0.0170336,2.47308e-11
0.2,1.5,0,3.00201,-0.0169798,2.76385e-11
0.2,1.6,0,3.00201,-0.0169798,2.76385e-11
0.2,1.7,0,3.00201,-0.0169798,2.76385e-11
0.2,1.8,0,3.00148,-0.0169374,2.93005e-11
0.2,1.9,0,3.00026,-0.0168399,3.31152e-11
0.2,2,0,2.9996,-0.0167872,3.51785e-11
0.2,2.1,0,2.9996,-0.0167872,3.51785e-11
0.2,2.2,0,2.9996,-0.0167872,3.51785e-11
0.2,2.3,0,2.99943,-0.0160832,3.68645e-11
0.2,2.4,0,2.99913,-0.0148192,3.98916e-11
0.2,2.5,0,2.999,-0.0142848,4.11714e-11
0.2,2.6,0,2.999,-0.0142848,4.11714e-11
0.2,2.7,0,2.999,-0.0142848,4.11714e-11
0.2,2.8,0,3.00003,-0.0132652,4.23185e-11
0.2,2.9,0,3.00156,-0.011756,4.40165e-11
0.2,3,0,3.00202,-0.0112933,4.4537e-11
0.2,3.1,0,3.00202,-0.0112933,4.4537e-11
0.2,3.2,0,3.00202,-0.0112933,4.4537e-11
0.2,3.3,0,3.00181,-0.0102571,4.37868e-11
0.2,3.4,0,3.00154,-0.00894725,4.28385e-11
0.2,3.5,0,3.00149,-0.00869718,4.26575e-11
0.2,3.6,0,3.00149,-0.00869718,4.26575e-11
0.2,3.7,0,3.00149,-0.00869718,4.26575e-11
0.2,3.8,0,2.99895,-0.00769836,3.98431e-11
0.2,3.9,0,2.99615,-0.00659654,3.67384e-11
0.2,4,0,2.99594,-0.0065134,3.65041e-11
0.2,4.1,0,2.99594,-0.0065134,3.65041e-11
0.2,4.2,0,2.99596,-0.00650551,3.64181e-11
0.2,4.3,0,2.99693,-0.00614313,3.24717e-11
0.2,4.4,0,2.99785,-0.00579522,2.8683e-11
0.2,4.5,0,2.99785,-0.00579522,2.8683e-11
0.2,4.6,0,2.99785,-0.00579522,2.8683e-11
0.2,4.7,0,2.99816,-0.00574396,2.79945e-11
0.2,4.8,0,3.0004,-0.00536978,2.29694e-11
0.2,4.9,0,3.0023,-0.00505374,1.8725e-11
0.2,5,0,3.0023,-0.00505374,1.8725e-11
0.2,5.1,0,3.0023,-0.00505374,1.8725e-11
0.2,5.2,0,3.00208,-0.00471361,1.68536e-11
0.2,5.3,0,3.00118,-0.00336514,9.43451e-12
0.2,5.4,0,3.00053,-0.00238181,4.02434e-12
0.2,5.5,0,3.00053,-0.00238181,4.02434e-12
0.2,5.6,0,3.00053,-0.00238181,4.02434e-12
0.2,5.7,0,3.00034,-0.00207695,8.98559e-13
0.2,5.8,0,2.99983,-0.00124731,-7.60799e-12
0.2,5.9,0,2.99952,-0.00073807,-1.28293e-11
0.2,6,0,2.99952,-0.00073807,-1.28293e-11
0.2,6.1,0,2.99952,-0.00073807,-1.28293e-11
0.2,6.2,0,2.99966,-0.000519554,-1.66463e-11
0.2,6.3,0,2.99995,-6.68346e-05,-2.45542e-11
0.2,6.4,0,3.0001,0.000158791,-2.84954e-11
0.2,6.5,0,3.0001,0.000158791,-2.84954e-11
0.2,6.6,0,3.0001,0.000158791,-2.84954e-11
0.2,6.7,0,2.99997,0.000779803,-3.19853e-11
0.2,6.8,0,2.99974,0.00181846,-3.78222e-11
0.2,6.9,0,2.99966,0.00221621,-4.00574e-11
0.2,7,0,2.99966,0.00221621,-4.00574e-11
0.2,7.1,0,2.99966,0.00221621,-4.00574e-11
0.2,7.2,0,2.99936,0.00272117,-4.16333e-11
0.2,7.3,0,2.99893,0.00342925,-4.38432e-11
0.2,7.4,0,2.99882,0.00361865,-4.44343e-11
0.2,7.5,0,2.99882,0.00361865,-4.44343e-11
0.2,7.6,0,2.99882,0.00361865,-4.44343e-11
0.2,7.7,0,2.99884,0.00393973,-4.30832e-11
0.2,7.8,0,2.99887,0.00432731,-4.14524e-11
0.2,7.9,0,2.99887,0.00438622,-4.12045e-11
0.2,8,0,2.99887,0.00438622,-4.12045e-11
0.2,8.1,0,2.99887,0.00438622,-4.12045e-11
0.2,8.2,0,2.99901,0.00483985,-3.67047e-11
0.2,8.3,0,2.99915,0.0053205,-3.19369e-11
0.2,8.4,0,2.99916,0.00533801,-3.17633e-11
0.2,8.5,0,2.99916,0.00533801,-3.17633e-11
0.2,8.6,0,2.99918,0.00537711,-3.13346e-11
0.2,8.7,0,2.99953,0.0060366,-2.41053e-11
0.2,8.8,0,2.99985,0.00664382,-1.74489e-11
0.2,8.9,0,2.99985,0.00664382,-1.74489e-11
0.2,9,0,2.99985,0.00664382,-1.74489e-11
0.2,9.1,0,2.99987,0.00683779,-1.59324e-11
0.2,9.2,0,2.99995,0.00794623,-7.26634e-12
0.2,9.3,0,3.00001,0.00883842,-2.90956e-13
0.2,9.4,0,3.00001,0.00883842,-2.90956e-13
0.2,9.5,0,3.00001,0.00883842,-2.90956e-13
0.2,9.6,0,2.99989,0.00903856,2.23803e-12
0.2,9.7,0,2.99948,0.00972654,1.09316e-11
0.2,9.8,0,2.99919,0.0102004,1.69199e-11
0.2,9.9,0,2.99919,0.0102004,1.69199e-11
0.2,10,0,2.99919,0.0102004,1.69199e-11
0.2,10.1,0,2.99916,0.0102054,1.99684e-11
0.2,10.2,0,2.99909,0.0102176,2.74611e-11
0.2,10.3,0,2.99905,0.0102246,3.17499e-11
0.2,10.4,0,2.99905,0.0102246,3.17499e-11
0.2,10.5,0,2.99905,0.0102246,3.17499e-11
0.2,10.6,0,2.99917,0.0103416,3.42414e-11
0.2,10.7,0,2.99941,0.0105656,3.90111e-11
0.2,10.8,0,2.99951,0.0106677,4.11845e-11
0.2,10.9,0,2.99951,0.0106677,4.11845e-11
0.2,11,0,2.99951,0.0106677,4.11845e-11
0.2,11.1,0,2.99974,0.0108411,4.20963e-11
0.2,11.2,0,3.00009,0.0111136,4.35296e-11
0.2,11.3,0,3.00021,0.011206,4.40155e-11
0.2,11.4,0,3.00021,0.011206,4.40155e-11
0.2,11.5,0,3.00021,0.011206,4.40155e-11
0.2,11.6,0,3.00026,0.0114281,4.20156e-11
0.2,11.7,0,3.00033,0.0117258,3.93343e-11
0.2,11.8,0,3.00035,0.0117923,3.87357e-11
0.2,11.9,0,3.00035,0.0117923,3.87357e-11
0.2,12,0,3.00035,0.0117923,3.87357e-11
0.2,12.1,0,3.00016,0.0121036,3.23101e-11
0.2,12.2,0,2.99993,0.0124698,2.47508e-11
0.2,12.3,0,3.00084,0.0136853,2.74289e-11
0.2,12.4,0,3.0019,0.0150058,3.13726e-11
0.2,12.5,0,3.00295,0.0163262,3.53162e-11
0.2,12.6,0,3.00289,0.0165392,3.07106e-11
0.2,12.7,0,3.00278,0.0166998,2.57009e-11
0.3,0,0,3.00425,-0.0143224,1.44933e-11
0.3,0.1,0,3.00469,-0.0143872,1.62768e-11
0.3,0.2,0,3.00512,-0.0144519,1.80603e-11
0.3,0.3,0,3.00532,-0.0148129,1.96897e-11
0.3,0.4,0,3.00079,-0.0211437,1.8214e-11
0.3,0.5,0,2.9969,-0.026762,1.731e-11
0.3,0.6,0,2.99843,-0.0263925,2.12101e-11
0.3,0.7,0,2.99997,-0.026023,2.51102e-11
0.3,0.8,0,3.00126,-0.0257112,2.84014e-11
0.3,0.9,0,3.00126,-0.0257112,2.84014e-11
0.3,1,0,3.00126,-0.0257112,2.84014e-11
0.3,1.1,0,3.00126,-0.0257112,2.84014e-11
0.3,1.2,0,3.00143,-0.025687,2.97106e-11
0.3,1.3,0,3.00203,-0.0256053,3.4125e-11
0.3,1.4,0,3.00262,-0.0255237,3.85393e-11
0.3,1.5,0,3.00301,-0.0254697,4.14578e-11
0.3,1.6,0,3.00301,-0.0254697,4.14578e-11
0.3,1.7,0,3.0025,-0.0254285,4.30705e-11
0.3,1.8,0,3.00128,-0.0253311,4.68852e-11
0.3,1.9,0,3.00006,-0.0252336,5.06999e-11
0.3,2,0,2.9994,-0.0251807,5.27678e-11
0.3,2.1,0,2.9994,-0.0251807,5.27678e-11
0.3,2.2,0,2.99923,-0.0244894,5.44236e-11
0.3,2.3,0,2.99893,-0.0232254,5.74507e-11
0.3,2.4,0,2.99863,-0.0219614,6.04778e-11
0.3,2.5,0,2.9985,-0.0214272,6.17572e-11
0.3,2.6,0,2.9985,-0.0214272,6.17572e-11
0.3,2.7,0,2.99952,-0.0204203,6.289e-11
0.3,2.8,0,3.00104,-0.018911,6.4588e-11
0.3,2.9,0,3.00257,-0.0174018,6.6286e-11
0.3,3,0,3.00303,-0.01694,6.68055e-11
0.3,3.1,0,3.00303,-0.01694,6.68055e-11
0.3,3.2,0,3.00282,-0.0159146,6.60632e-11
0.3,3.3,0,3.00256,-0.0146048,6.51149e-11
0.3,3.4,0,3.00229,-0.0132949,6.41666e-11
0.3,3.5,0,3.00224,-0.0130458,6.39863e-11
0.3,3.6,0,3.00224,-0.0130458,6.39863e-11
0.3,3.7,0,2.99972,-0.0120561,6.11975e-11
0.3,3.8,0,2.99692,-0.0109543,5.80928e-11
0.3,3.9,0,2.99412,-0.00985244,5.49882e-11
0.3,4,0,2.99391,-0.0097701,5.47562e-11
0.3,4.1,0,2.99393,-0.00976523,5.47031e-11
0.3,4.2,0,2.99489,-0.00940285,5.07567e-11
0.3,4.3,0,2.99585,-0.00904047,4.68103e-11
0.3,4.4,0,2.99678,-0.00869283,4.30245e-11
0.3,4.5,0,2.99678,-0.00869283,4.30245e-11
0.3,4.6,0,2.99706,-0.00864472,4.23783e-11
0.3,4.7,0,2.99931,-0.00827054,3.73532e-11
0.3,4.8,0,3.00156,-0.00789637,3.23281e-11
0.3,4.9,0,3.00345,-0.00758061,2.80875e-11
0.3,5,0,3.00345,-0.00758061,2.80875e-11
0.3,5.1,0,3.00323,-0.00725193,2.62792e-11
0.3,5.2,0,3.00234,-0.00590347,1.886e-11
0.3,5.3,0,3.00145,-0.004555,1.14409e-11
0.3,5.4,0,3.0008,-0.00357272,6.03651e-12
0.3,5.5,0,3.0008,-0.00357272,6.03651e-12
0.3,5.6,0,3.00061,-0.00327498,2.98371e-12
0.3,5.7,0,3.0001,-0.00244533,-5.52284e-12
0.3,5.8,0,2.99959,-0.00161569,-1.40294e-11
0.3,5.9,0,2.99928,-0.0011071,-1.9244e-11
0.3,6,0,2.99928,-0.0011071,-1.9244e-11
0.3,6.1,0,2.99942,-0.000892511,-2.29925e-11
0.3,6.2,0,2.99971,-0.000439792,-3.09004e-11
0.3,6.3,0,3,1.2928e-05,-3.88083e-11
0.3,6.4,0,3.00015,0.000238187,-4.27431e-11
0.3,6.5,0,3.00015,0.000238187,-4.27431e-11
0.3,6.6,0,3.00002,0.000850116,-4.61819e-11
0.3,6.7,0,2.99979,0.00188878,-5.20189e-11
0.3,6.8,0,2.99957,0.00292744,-5.78558e-11
0.3,6.9,0,2.99948,0.00332432,-6.00861e-11
0.3,7,0,2.99948,0.00332432,-6.00861e-11
0.3,7.1,0,2.99919,0.00382303,-6.16426e-11
0.3,7.2,0,2.99877,0.00453112,-6.38524e-11
0.3,7.3,0,2.99834,0.0052392,-6.60623e-11
0.3,7.4,0,2.99823,0.00542798,-6.66514e-11
0.3,7.5,0,2.99823,0.00542798,-6.66514e-11
0.3,7.6,0,2.99825,0.00574562,-6.53148e-11
0.3,7.7,0,2.99828,0.0061332,-6.3684e-11
0.3,7.8,0,2.9983,0.00652079,-6.20531e-11
0.3,7.9,0,2.9983,0.00657933,-6.18067e-11
0.3,8,0,2.9983,0.00657933,-6.18067e-11
0.3,8.1,0,2.99844,0.0070287,-5.73493e-11
0.3,8.2,0,2.99859,0.00750935,-5.25815e-11
0.3,8.3,0,2.99873,0.00799,-4.78137e-11
0.3,8.4,0,2.99874,0.00800701,-4.7645e-11
0.3,8.5,0,2.99875,0.0080403,-4.728e-11
0.3,8.6,0,2.9991,0.00869979,-4.00507e-11
0.3,8.7,0,2.99946,0.00935927,-3.28213e-11
0.3,8.8,0,2.99978,0.00996573,-2.61733e-11
0.3,8.9,0,2.99978,0.00996573,-2.61733e-11
0.3,9,0,2.99979,0.0101501,-2.47318e-11
0.3,9.1,0,2.99987,0.0112585,-1.60658e-11
0.3,9.2,0,2.99996,0.012367,-7.39977e-12
0.3,9.3,0,3.00002,0.0132576,-4.36435e-13
0.3,9.4,0,3.00002,0.0132576,-4.36435e-13
0.3,9.5,0,2.9999,0.013452,2.01958e-12
0.3,9.6,0,2.99949,0.01414,1.07131e-11
0.3,9.7,0,2.99907,0.014828,1.94067e-11
0.3,9.8,0,2.99879,0.0153007,2.53798e-11
0.3,9.9,0,2.99879,0.0153007,2.53798e-11
0.3,10,0,2.99876,0.0153055,2.83677e-11
0.3,10.1,0,2.99869,0.0153178,3.58603e-11
0.3,10.2,0,2.99862,0.01533,4.3353e-11
0.3,10.3,0,2.99858,0.015337,4.76248e-11
0.3,10.4,0,2.99858,0.015337,4.76248e-11
0.3,10.5,0,2.9987,0.0154522,5.0078e-11
0.3,10.6,0,2.99893,0.0156762,5.48476e-11
0.3,10.7,0,2.99916,0.0159001,5.96173e-11
0.3,10.8,0,2.99927,0.0160016,6.17768e-11
0.3,10.9,0,2.99927,0.0160016,6.17768e-11
0.3,11,0,2.99949,0.0161725,6.26759e-11
0.3,11.1,0,2.99984,0.0164451,6.41092e-11
0.3,11.2,0,3.00019,0.0167176,6.55425e-11
0.3,11.3,0,3.00031,0.016809,6.60233e-11
0.3,11.4,0,3.00031,0.016809,6.60233e-11
0.3,11.5,0,3.00036,0.0170276,6.40547e-11
0.3,11.6,0,3.00044,0.0173254,6.13734e-11
0.3,11.7,0,3.00051,0.0176231,5.86921e-11
0.3,11.8,0,3.00052,0.0176885,5.81036e-11
0.3,11.9,0,3.00052,0.0176885,5.81036e-11
0.3,12,0,3.00033,0.0179934,5.18086e-11
0.3,12.1,0,3.00011,0.0183597,4.42494e-11
0.3,12.2,0,2.99988,0.0187259,3.66901e-11
0.3,12.3,0,3.0008,0.0199439,3.9399e-11
0.3,12.4,0,3.00185,0.0212644,4.33427e-11
0.3,12.5,0,3.00182,0.0215035,3.89392e-11
0.3,12.6,0,3.00171,0.0216641,3.39295e-11
0.3,12.7,0,3.00159,0.0218247,2.89198e-11
0.4,0,0,2.99829,-0.0294044,1.69216e-11
0.4,0.1,0,2.99872,-0.0294692,1.87051e-11
0.4,0.2,0,2.99916,-0.0295339,2.04887e-11
0.4,0.3,0,2.99959,-0.0295987,2.22722e-11
0.4,0.4,0,2.99971,-0.0300584,2.38502e-11
0.4,0.5,0,2.99581,-0.0356968,2.293e-11
0.4,0.6,0,2.99734,-0.0353273,2.68301e-11
0.4,0.7,0,2.99887,-0.0349578,3.07302e-11
0.4,0.8,0,3.00041,-0.0345884,3.46303e-11
0.4,0.9,0,3.00168,-0.0342816,3.78686e-11
0.4,1,0,3.00168,-0.0342816,3.78686e-11
0.4,1.1,0,3.00184,-0.0342587,3.91048e-11
0.4,1.2,0,3.00244,-0.0341771,4.35192e-11
0.4,1.3,0,3.00303,-0.0340954,4.79335e-11
0.4,1.4,0,3.00362,-0.0340138,5.23479e-11
0.4,1.5,0,3.00402,-0.0339597,5.52771e-11
0.4,1.6,0,3.00352,-0.0339197,5.68404e-11
0.4,1.7,0,3.0023,-0.0338222,6.06551e-11
0.4,1.8,0,3.00108,-0.0337248,6.44698e-11
0.4,1.9,0,2.99986,-0.0336273,6.82845e-11
0.4,2,0,2.9992,-0.0335743,7.0357e-11
0.4,2.1,0,2.99903,-0.0328955,7.19827e-11
0.4,2.2,0,2.99873,-0.0316316,7.50098e-11
0.4,2.3,0,2.99843,-0.0303676,7.80369e-11
0.4,2.4,0,2.99813,-0.0291036,8.1064e-11
0.4,2.5,0,2.998,-0.0285696,8.23429e-11
0.4,2.6,0,2.99901,-0.0275754,8.34615e-11
0.4,2.7,0,3.00053,-0.0260661,8.51595e-11
0.4,2.8,0,3.00206,-0.0245568,8.68575e-11
0.4,2.9,0,3.00358,-0.0230476,8.85555e-11
0.4,3,0,3.00405,-0.0225866,8.90741e-11
0.4,3.1,0,3.00384,-0.0215721,8.83396e-11
0.4,3.2,0,3.00357,-0.0202623,8.73913e-11
0.4,3.3,0,3.0033,-0.0189524,8.6443e-11
0.4,3.4,0,3.00304,-0.0176426,8.54947e-11
0.4,3.5,0,3.00299,-0.0173944,8.5315e-11
0.4,3.6,0,3.00049,-0.0164138,8.2552e-11
0.4,3.7,0,2.99769,-0.015312,7.94473e-11
0.4,3.8,0,2.99489,-0.0142102,7.63426e-11
0.4,3.9,0,2.99209,-0.0131083,7.32379e-11
0.4,4,0,2.99189,-0.013025,7.2988e-11
0.4,4.1,0,2.99285,-0.0126626,6.90417e-11
0.4,4.2,0,2.99381,-0.0123002,6.50953e-11
0.4,4.3,0,2.99478,-0.0119378,6.11489e-11
0.4,4.4,0,2.9957,-0.0115904,5.7366e-11
0.4,4.5,0,2.99597,-0.0115455,5.67621e-11
0.4,4.6,0,2.99822,-0.0111713,5.1737e-11
0.4,4.7,0,3.00046,-0.0107971,4.67119e-11
0.4,4.8,0,3.00271,-0.010423,4.16867e-11
0.4,4.9,0,3.0046,-0.0101075,3.745e-11
0.4,5,0,3.00439,-0.00979026,3.57047e-11
0.4,5.1,0,3.0035,-0.0084418,2.82856e-11
0.4,5.2,0,3.00261,-0.00709333,2.08665e-11
0.4,5.3,0,3.00171,-0.00574487,1.34474e-11
0.4,5.4,0,3.00106,-0.00476362,8.04867e-12
0.4,5.5,0,3.00088,-0.004473,5.06887e-12
0.4,5.6,0,3.00037,-0.00364336,-3.43768e-12
0.4,5.7,0,2.99986,-0.00281371,-1.19442e-11
0.4,5.8,0,2.99935,-0.00198407,-2.04508e-11
0.4,5.9,0,2.99904,-0.00147614,-2.56587e-11
0.4,6,0,2.99917,-0.00126547,-2.93386e-11
0.4,6.1,0,2.99947,-0.000812749,-3.72466e-11
0.4,6.2,0,2.99976,-0.000360029,-4.51545e-11
0.4,6.3,0,3.00005,9.26906e-05,-5.30624e-11
0.4,6.4,0,3.0002,0.000317582,-5.69908e-11
0.4,6.5,0,3.00007,0.00092043,-6.03786e-11
0.4,6.6,0,2.99985,0.00195909,-6.62155e-11
0.4,6.7,0,2.99962,0.00299775,-7.20525e-11
0.4,6.8,0,2.9994,0.00403641,-7.78894e-11
0.4,6.9,0,2.99931,0.00443242,-8.01149e-11
0.4,7,0,2.99902,0.0049249,-8.16518e-11
0.4,7.1,0,2.9986,0.00563298,-8.38617e-11
0.4,7.2,0,2.99818,0.00634106,-8.60715e-11
0.4,7.3,0,2.99775,0.00704915,-8.82813e-11
0.4,7.4,0,2.99764,0.00723731,-8.88686e-11
0.4,7.5,0,2.99766,0.00755151,-8.75464e-11
0.4,7.6,0,2.99769,0.00793909,-8.59156e-11
0.4,7.7,0,2.99771,0.00832668,-8.42847e-11
0.4,7.8,0,2.99774,0.00871426,-8.26538e-11
0.4,7.9,0,2.99774,0.00877244,-8.2409e-11
0.4,8,0,2.99787,0.00921754,-7.79938e-11
0.4,8.1,0,2.99802,0.00969819,-7.32261e-11
0.4,8.2,0,2.99816,0.0101788,-6.84583e-11
0.4,8.3,0,2.99831,0.0106595,-6.36905e-11
0.4,8.4,0,2.99833,0.0107035,-6.32254e-11
0.4,8.5,0,2.99868,0.011363,-5.5996e-11
0.4,8.6,0,2.99903,0.0120225,-4.87667e-11
0.4,8.7,0,2.99938,0.0126819,-4.15374e-11
0.4,8.8,0,2.9997,0.0132876,-3.48978e-11
0.4,8.9,0,2.99972,0.0134624,-3.35313e-11
0.4,9,0,2.9998,0.0145709,-2.48652e-11
0.4,9.1,0,2.99988,0.0156793,-1.61992e-11
0.4,9.2,0,2.99996,0.0167877,-7.53319e-12
0.4,9.3,0,3.00003,0.0176768,-5.81913e-13
0.4,9.4,0,2.99992,0.0178654,1.80112e-12
0.4,9.5,0,2.9995,0.0185534,1.04947e-11
0.4,9.6,0,2.99908,0.0192414,1.91883e-11
0.4,9.7,0,2.99867,0.0199294,2.78818e-11
0.4,9.8,0,2.99838,0.0204009,3.38398e-11
0.4,9.9,0,2.99835,0.0204057,3.67669e-11
0.4,10,0,2.99828,0.0204179,4.42596e-11
0.4,10.1,0,2.99822,0.0204301,5.17522e-11
0.4,10.2,0,2.99815,0.0204423,5.92449e-11
0.4,10.3,0,2.99811,0.0204493,6.34998e-11
0.4,10.4,0,2.99822,0.0205627,6.59146e-11
0.4,10.5,0,2.99846,0.0207867,7.06842e-11
0.4,10.6,0,2.99869,0.0210107,7.54539e-11
0.4,10.7,0,2.99892,0.0212346,8.02235e-11
0.4,10.8,0,2.99902,0.0213354,8.23691e-11
0.4,10.9,0,2.99924,0.0215039,8.32554e-11
0.4,11,0,2.99959,0.0217765,8.46888e-11
0.4,11.1,0,2.99995,0.022049,8.61221e-11
0.4,11.2,0,3.0003,0.0223216,8.75554e-11
0.4,11.3,0,3.00042,0.022412,8.8031e-11
0.4,11.4,0,3.00047,0.0226272,8.60938e-11
0.4,11.5,0,3.00054,0.0229249,8.34125e-11
0.4,11.6,0,3.00061,0.0232226,8.07312e-11
0.4,11.7,0,3.00068,0.0235204,7.80499e-11
0.4,11.8,0,3.00069,0.0235846,7.74714e-11
0.4,11.9,0,3.00051,0.0238833,7.13071e-11
0.4,12,0,3.00029,0.0242495,6.37479e-11
0.4,12.1,0,3.00006,0.0246157,5.61887e-11
0.4,12.2,0,2.99984,0.0249819,4.86294e-11
0.4,12.3,0,3.00076,0.0262025,5.13692e-11
0.4,12.4,0,3.00075,0.0264678,4.71677e-11
0.4,12.5,0,3.00063,0.0266284,4.2158e-11
0.4,12.6,0,3.00052,0.026789,3.71483e-11
0.4,12.7,0,3.00041,0.0269496,3.21386e-11
0.5,0,0,2.99232,-0.0444865,1.935e-11
0.5,0.1,0,2.99278,-0.0445083,2.11308e-11
0.5,0.2,0,2.99324,-0.0445302,2.29117e-11
0.5,0.3,0,2.9937,-0.0445521,2.46925e-11
0.5,0.4,0,2.99416,-0.044574,2.64734e-11
0.5,0.5,0,2.9947,-0.0445378,2.84595e-11
0.5,0.6,0,2.99623,-0.0441521,3.2344e-11
0.5,0.7,0,2.99776,-0.0437663,3.62284e-11
0.5,0.8,0,2.99929,-0.0433806,4.01128e-11
0.5,0.9,0,3.00082,-0.0429949,4.39973e-11
0.5,1,0,3.00214,-0.0426732,4.79873e-11
0.5,1.1,0,3.00271,-0.042574,5.23445e-11
0.5,1.2,0,3.00329,-0.0424748,5.67017e-11
0.5,1.3,0,3.00387,-0.0423756,6.10589e-11
0.5,1.4,0,3.00445,-0.0422764,6.54161e-11
0.5,1.5,0,3.00453,-0.0420325,6.95273e-11
0.5,1.6,0,3.00331,-0.0419246,7.33121e-11
0.5,1.7,0,3.00209,-0.0418167,7.7097e-11
0.5,1.8,0,3.00087,-0.0417088,8.08818e-11
0.5,1.9,0,2.99965,-0.0416009,8.46667e-11
0.5,2,0,2.99885,-0.0409661,8.81043e-11
0.5,2.1,0,2.99855,-0.039701,9.11267e-11
0.5,2.2,0,2.99825,-0.0384359,9.41491e-11
0.5,2.3,0,2.99795,-0.0371708,9.71714e-11
0.5,2.4,0,2.99765,-0.0359058,1.00194e-10
0.5,2.5,0,2.99844,-0.0346185,1.02616e-10
0.5,2.6,0,2.99996,-0.0331097,1.0432e-10
0.5,2.7,0,3.00148,-0.031601,1.06025e-10
0.5,2.8,0,3.00301,-0.0300922,1.07729e-10
0.5,2.9,0,3.00453,-0.0285834,1.09433e-10
0.5,3,0,3.00477,-0.0272634,1.09499e-10
0.5,3.1,0,3.0045,-0.0259535,1.08553e-10
0.5,3.2,0,3.00423,-0.0246436,1.07607e-10
0.5,3.3,0,3.00396,-0.0233337,1.0666e-10
0.5,3.4,0,3.0037,-0.0220238,1.05714e-10
0.5,3.5,0,3.00141,-0.0208368,1.03245e-10
0.5,3.6,0,2.99861,-0.0197349,1.00142e-10
0.5,3.7,0,2.99581,-0.018633,9.70379e-11
0.5,3.8,0,2.99301,-0.0175311,9.39341e-11
0.5,3.9,0,2.99021,-0.0164292,9.08303e-11
0.5,4,0,2.99108,-0.0159826,8.72207e-11
0.5,4.1,0,2.99204,-0.0156202,8.32744e-11
0.5,4.2,0,2.99301,-0.0152577,7.93282e-11
0.5,4.3,0,2.99397,-0.0148953,7.53819e-11
0.5,4.4,0,2.99488,-0.0144981,7.16464e-11
0.5,4.5,0,2.99713,-0.0141239,6.66206e-11
0.5,4.6,0,2.99938,-0.0137496,6.15948e-11
0.5,4.7,0,3.00162,-0.0133754,5.6569e-11
0.5,4.8,0,3.00387,-0.0130011,5.15432e-11
0.5,4.9,0,3.00539,-0.0124064,4.62906e-11
0.5,5,0,3.0045,-0.0110578,3.88698e-11
0.5,5.1,0,3.00361,-0.00970926,3.14491e-11
0.5,5.2,0,3.00271,-0.00836068,2.40283e-11
0.5,5.3,0,3.00182,-0.00701211,1.66075e-11
0.5,5.4,0,3.0011,-0.00576913,9.04864e-12
0.5,5.5,0,3.00059,-0.00493934,5.39291e-13
0.5,5.6,0,3.00008,-0.00410955,-7.97005e-12
0.5,5.7,0,2.99957,-0.00327976,-1.64794e-11
0.5,5.8,0,2.99906,-0.00244997,-2.49887e-11
0.5,5.9,0,2.99889,-0.00170686,-3.32074e-11
0.5,6,0,2.99918,-0.00125404,-4.1119e-11
0.5,6.1,0,2.99947,-0.000801216,-4.90307e-11
0.5,6.2,0,2.99977,-0.000348394,-5.69424e-11
0.5,6.3,0,3.00006,0.000104428,-6.4854e-11
0.5,6.4,0,3.00006,0.000930591,-7.18243e-11
0.5,6.5,0,2.99983,0.00196934,-7.76653e-11
0.5,6.6,0,2.99961,0.00300809,-8.35063e-11
0.5,6.7,0,2.99939,0.00404684,-8.93472e-11
0.5,6.8,0,2.99916,0.00508559,-9.51882e-11
0.5,6.9,0,2.99882,0.00596393,-9.89975e-11
0.5,7,0,2.9984,0.0066721,-1.01211e-10
0.5,7.1,0,2.99797,0.00738026,-1.03424e-10
0.5,7.2,0,2.99755,0.00808843,-1.05638e-10
0.5,7.3,0,2.99713,0.0087966,-1.07851e-10
0.5,7.4,0,2.99703,0.00931437,-1.07578e-10
0.5,7.5,0,2.99705,0.009702,-1.05949e-10
0.5,7.6,0,2.99707,0.0100896,-1.04321e-10
0.5,7.7,0,2.9971,0.0104772,-1.02692e-10
0.5,7.8,0,2.99712,0.0108649,-1.01063e-10
0.5,7.9,0,2.99726,0.0113968,-9.71483e-11
0.5,8,0,2.9974,0.0118774,-9.23812e-11
0.5,8.1,0,2.99755,0.0123581,-8.7614e-11
0.5,8.2,0,2.99769,0.0128388,-8.28469e-11
0.5,8.3,0,2.99786,0.013352,-7.8259e-11
0.5,8.4,0,2.99822,0.0140388,-7.12947e-11
0.5,8.5,0,2.99857,0.0146983,-6.40652e-11
0.5,8.6,0,2.99892,0.0153578,-5.68357e-11
0.5,8.7,0,2.99927,0.0160172,-4.96062e-11
0.5,8.8,0,2.9996,0.0167315,-4.25661e-11
0.5,8.9,0,2.99968,0.01784,-3.39002e-11
0.5,9,0,2.99976,0.0189484,-2.52343e-11
0.5,9.1,0,2.99985,0.0200568,-1.65684e-11
0.5,9.2,0,2.99993,0.0211652,-7.90246e-12
0.5,9.3,0,2.99989,0.0222019,5.66382e-13
0.5,9.4,0,2.99947,0.0228899,9.26091e-12
0.5,9.5,0,2.99906,0.023578,1.79554e-11
0.5,9.6,0,2.99864,0.024266,2.665e-11
0.5,9.7,0,2.99822,0.0249541,3.53445e-11
0.5,9.8,0,2.99793,0.025459,4.35447e-11
0.5,9.9,0,2.99787,0.0254716,5.10487e-11
0.5,10,0,2.9978,0.0254841,5.85528e-11
0.5,10.1,0,2.99773,0.0254967,6.60568e-11
0.5,10.2,0,2.99766,0.0255093,7.35609e-11
0.5,10.3,0,2.99772,0.0256452,7.98399e-11
0.5,10.4,0,2.99796,0.0258698,8.46549e-11
0.5,10.5,0,2.99819,0.0260945,8.94699e-11
0.5,10.6,0,2.99842,0.0263191,9.42849e-11
0.5,10.7,0,2.99865,0.0265438,9.90998e-11
0.5,10.8,0,2.99895,0.0268131,1.02135e-10
0.5,10.9,0,2.9993,0.0270871,1.03678e-10
0.5,11,0,2.99966,0.0273611,1.05221e-10