/*--------------------------------*- C++ -*----------------------------------*\
| =========                 |                                                 |
| \\      /  F ield         | OpenFOAM: The Open Source CFD Toolbox           |
|  \\    /   O peration     | Version:  v1806                                 |
|   \\  /    A nd           | Web:      www.OpenFOAM.com                      |
|    \\/     M anipulation  |                                                 |
\*---------------------------------------------------------------------------*/
FoamFile
{
    version     2.0;
    format      ascii;
    class       surfaceScalarField;
    location    "190";
    object      phi;
}
// * * * * * * * * * * * * * * * * * * * * * * * * * * * * * * * * * * * * * //

dimensions      [0 3 -1 0 0 0 0];
oriented        oriented;


internalField   nonuniform List<scalar> 
8600
(
0.0514457
-0.0729575
-0.0500174
0.0715293
0.0412363
-0.0810463
0.0912556
0.0305379
-0.0847923
0.0954907
0.0236531
-0.0879721
0.094857
0.0195658
-0.0898587
0.0939459
0.0169147
-0.0907573
0.0934085
0.0150419
-0.0910921
0.0929649
0.0136182
-0.0910989
0.0925226
0.0124792
-0.0909167
0.0920557
0.0115418
-0.090621
0.0915584
0.0107595
-0.0902531
0.0910354
0.0101028
-0.0898376
0.0904944
0.00955102
-0.089391
0.0899427
0.00908935
-0.0889245
0.0893861
0.00870667
-0.0884458
0.0888285
0.00839467
-0.08796
0.088272
0.00814705
-0.0874705
0.0877182
0.0079587
-0.0869808
0.0871691
0.00782463
-0.0865033
0.0866373
-0.0861035
0.0861921
0.0278468
-0.0666679
-0.0341364
0.0230514
-0.0762509
0.020855
-0.0825958
0.0191729
-0.08629
0.017502
-0.0881877
0.0158929
-0.0891482
0.0144394
-0.0896387
0.0131887
-0.0898483
0.0121341
-0.0898621
0.0112477
-0.0897346
0.010501
-0.0895064
0.00987098
-0.0892075
0.00933991
-0.0888599
0.00889458
-0.0884791
0.00852503
-0.0880762
0.00822376
-0.0876588
0.00798508
-0.0872319
0.00780466
-0.0868003
0.00767817
-0.0863768
-0.0860187
0.0250553
-0.0681309
-0.0235923
0.0244038
-0.0755993
0.0221176
-0.0803097
0.0194012
-0.0835736
0.0170411
-0.0858276
0.015198
-0.0873051
0.0137624
-0.0882031
0.0126065
-0.0886924
0.0116473
-0.0889029
0.0108373
-0.0889246
0.010148
-0.0888171
0.00956061
-0.0886202
0.00906173
-0.088361
0.0086411
-0.0880585
0.00829084
-0.087726
0.00800483
-0.0873728
0.0077784
-0.0870054
0.0076079
-0.0866298
0.00748919
-0.0862581
-0.0859414
0.0173572
-0.0699494
-0.0155387
0.0171186
-0.0753608
0.0163961
-0.0795872
0.0155742
-0.0827517
0.0146736
-0.084927
0.0137121
-0.0863436
0.0127546
-0.0872456
0.0118579
-0.0877957
0.0110506
-0.0880956
0.0103393
-0.0882133
0.00971969
-0.0881975
0.00918408
-0.0880846
0.00872465
-0.0879016
0.00833456
-0.0876684
0.00800815
-0.0873996
0.00774088
-0.0871055
0.00752918
-0.0867937
0.00737016
-0.0864708
0.00726037
-0.0861483
-0.0858716
0.0141827
-0.0725965
-0.0115356
0.0152033
-0.0763813
0.0152045
-0.0795885
0.0145639
-0.0821111
0.0136552
-0.0840183
0.0127216
-0.08541
0.0118569
-0.0863809
0.01108
-0.0870187
0.0103867
-0.0874024
0.00977063
-0.0875972
0.00922618
-0.087653
0.00874884
-0.0876072
0.00833454
-0.0874873
0.00797957
-0.0873134
0.00768061
-0.0871006
0.0074348
-0.0868597
0.0072398
-0.0865987
0.00709357
-0.0863246
0.00699342
-0.0860481
-0.0858093
0.0108184
-0.0747678
-0.00864712
0.01184
-0.077403
0.0121493
-0.0798977
0.0120606
-0.0820224
0.0117447
-0.0837024
0.0112884
-0.0849537
0.010756
-0.0858486
0.0102001
-0.0864628
0.00965709
-0.0868594
0.00914797
-0.0870881
0.00868319
-0.0871882
0.00826695
-0.087191
0.00790029
-0.0871206
0.00758276
-0.0869959
0.00731326
-0.0868311
0.00709057
-0.086637
0.00691348
-0.0864216
0.00678082
-0.0861919
0.00669063
-0.0859579
-0.0857543
0.008757
-0.0767735
-0.00675127
0.00999805
-0.078644
0.0106014
-0.0805011
0.0107312
-0.0821521
0.0105545
-0.0835257
0.0102122
-0.0846114
0.00979469
-0.085431
0.00935283
-0.086021
0.00891437
-0.0864209
0.00849506
-0.0866688
0.00810435
-0.0867975
0.00774798
-0.0868346
0.00742929
-0.0868019
0.00715001
-0.0867166
0.00691089
-0.086592
0.00671212
-0.0864382
0.00655356
-0.0862631
0.00643484
-0.0860732
0.00635465
-0.0858778
-0.0857063
0.00704173
-0.0784001
-0.00541512
0.00813608
-0.0797384
0.00877361
-0.0811386
0.00906617
-0.0824447
0.00911312
-0.0835727
0.00899265
-0.084491
0.00876352
-0.0852019
0.00847059
-0.085728
0.00814773
-0.0860981
0.00781893
-0.0863399
0.00750012
-0.0864787
0.00720149
-0.086536
0.00692938
-0.0865298
0.00668765
-0.0864749
0.00647865
-0.086383
0.00630373
-0.0862633
0.00616368
-0.086123
0.00605882
-0.0859684
0.00598843
-0.0858074
-0.085665
0.00578609
-0.0798134
-0.00437281
0.00682869
-0.080781
0.00750932
-0.0818192
0.00788246
-0.0828178
0.00801813
-0.0837084
0.00798593
-0.0844588
0.00784491
-0.0850609
0.00763826
-0.0855214
0.007396
-0.0858558
0.0071391
-0.086083
0.00688231
-0.0862219
0.00663597
-0.0862896
0.00640731
-0.0863011
0.00620128
-0.0862689
0.00602125
-0.086203
0.00586947
-0.0861115
0.00574743
-0.086001
0.00565602
-0.0858769
0.00559501
-0.0857464
-0.0856299
0.00477867
-0.0809742
-0.00361784
0.00567578
-0.0816781
0.00630843
-0.0824519
0.00670753
-0.0832169
0.00691629
-0.0839171
0.00697834
-0.0845208
0.00693303
-0.0850156
0.00681408
-0.0854024
0.00664859
-0.0856903
0.00645758
-0.085892
0.00625683
-0.0860212
0.00605789
-0.0860907
0.00586902
-0.0861123
0.00569609
-0.0860959
0.00554322
-0.0860501
0.00541331
-0.0859816
0.00530837
-0.0858961
0.0052297
-0.0857983
0.00517749
-0.0856941
-0.0856004
0.00396686
-0.0819668
-0.00297427
0.00476525
-0.0824765
0.00535792
-0.0830446
0.00575838
-0.0836174
0.00599417
-0.0841529
0.00609833
-0.084625
0.00610353
-0.0850207
0.00603843
-0.0853373
0.00592654
-0.0855784
0.00578619
-0.0857517
0.00563149
-0.0858665
0.00547325
-0.0859325
0.00531958
-0.0859586
0.00517652
-0.0859529
0.00504854
-0.0859221
0.00493886
-0.0858719
0.00484982
-0.085807
0.004783
-0.0857315
0.0047389
-0.08565
-0.085576
0.00330256
-0.0827873
-0.00248207
0.00398092
-0.0831549
0.00450589
-0.0835695
0.00488266
-0.0839942
0.00512751
-0.0843978
0.00526195
-0.0847594
0.00530861
-0.0850674
0.00528902
-0.0853177
0.0052223
-0.0855117
0.00512463
-0.085654
0.00500903
-0.0857509
0.0048858
-0.0858092
0.00476289
-0.0858357
0.00464635
-0.0858363
0.00454073
-0.0858165
0.00444942
-0.0857806
0.0043749
-0.0857325
0.00431891
-0.0856755
0.00428216
-0.0856133
-0.0855561
0.00273534
-0.0834788
-0.00204387
0.00331867
-0.0837382
0.00378245
-0.0840333
0.00412756
-0.0843393
0.0043639
-0.0846341
0.00450663
-0.0849021
0.00457306
-0.0851338
0.00458039
-0.0853251
0.00454426
-0.0854756
0.00447818
-0.0855879
0.00439339
-0.0856661
0.00429898
-0.0857148
0.00420218
-0.0857389
0.00410867
-0.0857428
0.0040228
-0.0857306
0.00394789
-0.0857057
0.00388643
-0.085671
0.00384019
-0.0856292
0.00381
-0.0855831
-0.0855401
0.00225331
-0.0840449
-0.00168714
0.00273901
-0.0842239
0.00313457
-0.0844289
0.0034385
-0.0846432
0.0036562
-0.0848518
0.00379755
-0.0850435
0.00387471
-0.085211
0.00390043
-0.0853508
0.00388696
-0.0854621
0.00384536
-0.0855463
0.0037852
-0.0856059
0.00371447
-0.0856441
0.00363965
-0.0856641
0.00356588
-0.0856691
0.00349722
-0.085662
0.00343678
-0.0856453
0.00338692
-0.0856212
0.00334935
-0.0855916
0.00332496
-0.0855587
-0.0855275
0.00182427
-0.0845083
-0.00136092
0.00222613
-0.0846257
0.00255835
-0.0847611
0.00281888
-0.0849037
0.0030108
-0.0850437
0.00314086
-0.0851735
0.00321794
-0.0852881
0.00325176
-0.0853846
0.00325192
-0.0854623
0.00322727
-0.0855217
0.00318564
-0.0855643
0.00313369
-0.0855921
0.00307693
-0.0856073
0.00301986
-0.085612
0.00296603
-0.0856081
0.00291822
-0.0855975
0.00287858
-0.0855815
0.00284866
-0.0855617
0.00282935
-0.0855394
-0.0855179
0.00144359
-0.0848731
-0.00107876
0.00176324
-0.0849454
0.00203126
-0.0850291
0.00224525
-0.0851177
0.00240663
-0.0852051
0.00251974
-0.0852867
0.00259073
-0.0853591
0.00262664
-0.0854205
0.0026347
-0.0854703
0.00262176
-0.0855087
0.00259403
-0.0855366
0.00255691
-0.085555
0.00251496
-0.0855654
0.00247192
-0.085569
0.00243081
-0.085567
0.002394
-0.0855606
0.00236332
-0.0855509
0.00234014
-0.0855385
0.00232526
-0.0855245
-0.0855108
0.001092
-0.0851511
-0.000813988
0.00133711
-0.0851905
0.00154426
-0.0852363
0.00171143
-0.0852849
0.00183936
-0.085333
0.00193094
-0.0853782
0.00199042
-0.0854186
0.00202288
-0.085453
0.0020336
-0.085481
0.00202768
-0.0855028
0.00200983
-0.0855187
0.00198417
-0.0855294
0.00195425
-0.0855354
0.001923
-0.0855377
0.00189282
-0.0855368
0.0018656
-0.0855334
0.00184282
-0.0855281
0.00182558
-0.0855213
0.00181458
-0.0855135
-0.0855057
0.000765986
-0.0853454
-0.000571697
0.000938464
-0.085363
0.00108519
-0.085383
0.00120463
-0.0854043
0.00129708
-0.0854255
0.00136428
-0.0854454
0.00140897
-0.0854633
0.00143452
-0.0854785
0.00144449
-0.085491
0.00144241
-0.0855007
0.00143155
-0.0855079
0.00141486
-0.0855127
0.00139485
-0.0855154
0.00137364
-0.0855165
0.00135298
-0.0855162
0.00133425
-0.0855147
0.00131852
-0.0855124
0.0013066
-0.0855094
0.00129902
-0.0855059
-0.0855024
0.000454306
-0.0854624
-0.000337336
0.000557446
-0.0854661
0.00064534
-0.0854709
0.00071715
-0.0854761
0.000773027
-0.0854814
0.000813938
-0.0854863
0.000841454
-0.0854908
0.000857513
-0.0854946
0.000864208
-0.0854977
0.000863615
-0.0855001
0.000857681
-0.0855019
0.000848153
-0.0855031
0.000836547
-0.0855038
0.000824146
-0.0855041
0.000812009
-0.085504
0.000800978
-0.0855037
0.000791702
-0.0855031
0.000784661
-0.0855023
0.000780189
-0.0855015
-0.0855006
0.000151748
-0.000114143
0.00018562
0.00021472
0.000238597
0.000257225
0.000270898
0.000280124
0.000285537
0.000287828
0.000287684
0.000285753
0.000282617
0.000278784
0.00027468
0.000270656
0.000266995
0.000263914
0.000261574
0.000260098
-0.0380127
-0.00702386
0.0450366
-0.0319054
-0.00610736
-0.0264513
-0.00545409
-0.0214985
-0.00495274
-0.0169388
-0.00455978
-0.0126848
-0.00425392
-0.00866279
-0.00402206
-0.00480808
-0.00385471
-0.0010626
-0.00374547
0.0026277
-0.0036903
0.00631482
-0.00368712
0.0100505
-0.00373567
0.013888
-0.00383754
0.0178844
-0.00399639
0.0221029
-0.00421848
0.0266165
-0.00451359
0.0315129
-0.00489636
0.0369063
-0.00539344
0.042966
-0.00605972
-0.00705142
-0.0235472
-0.00909278
0.0256161
-0.0210211
-0.00863348
-0.0182478
-0.00822737
-0.0153196
-0.00788099
-0.0122865
-0.00759279
-0.00918079
-0.00735968
-0.00602429
-0.00717856
-0.00283224
-0.00704675
0.000384517
-0.00696223
0.00361786
-0.00692365
0.00686109
-0.00693035
0.0101078
-0.00698241
0.0133509
-0.00708061
0.0165811
-0.00722663
0.0197858
-0.00742317
0.0229466
-0.00767436
0.0260366
-0.00798631
0.0290114
-0.00836826
0.0317881
-0.0088364
-0.0093998
-0.014902
-0.0103558
0.016165
-0.0133998
-0.0101356
-0.011693
-0.00993422
-0.00981945
-0.0097545
-0.00781356
-0.00959868
-0.00570464
-0.0094686
-0.00351749
-0.00936571
-0.00127311
-0.00929114
0.00101038
-0.00924572
0.00331678
-0.00923005
0.00563098
-0.00924456
0.00793813
-0.00928955
0.0102227
-0.00936522
0.0124678
-0.00947167
0.0146535
-0.0096089
0.016756
-0.00977686
0.0187452
-0.0099755
0.0205822
-0.0102053
0.0222143
-0.0104685
-0.0107778
-0.00884994
-0.0113504
0.00984452
-0.0077693
-0.0112163
-0.00661027
-0.0110933
-0.00538118
-0.0109836
-0.00409083
-0.010889
-0.00274854
-0.0108109
-0.00136407
-0.0107502
5.24352e-05
-0.0107076
0.00149055
-0.0106838
0.00293964
-0.0106791
0.00438888
-0.0106938
0.00582732
-0.010728
0.00724383
-0.0107817
0.0086271
-0.0108549
0.00996567
-0.0109475
0.0112479
-0.0110591
0.0124618
-0.0111894
0.0135946
-0.0113381
0.0146312
-0.0115051
-0.0116853
-0.00616096
-0.0120905
0.00690107
-0.00536247
-0.0120148
-0.00450945
-0.0119463
-0.00360717
-0.0118859
-0.00266184
-0.0118344
-0.00168031
-0.0117924
-0.000669829
-0.0117607
0.000362148
-0.0117396
0.001408
-0.0117297
0.00245999
-0.0117311
0.0035103
-0.0117441
0.004551
-0.0117687
0.00557405
-0.0118048
0.00657125
-0.0118521
0.00753426
-0.0119105
0.00845451
-0.0119793
0.00932327
-0.0120582
0.0101316
-0.0121464
0.0108698
-0.0122434
-0.0123511
-0.00411833
-0.0126853
0.00471307
-0.00349685
-0.0126362
-0.00285089
-0.0125922
-0.00218301
-0.0125537
-0.00149606
-0.0125213
-0.000793137
-0.0124953
-7.7603e-05
-0.0124762
0.000646969
-0.0124642
0.00137683
-0.0124595
0.00210809
-0.0124624
0.0028368
-0.0124728
0.00355894
-0.0124908
0.00427057
-0.0125164
0.00496776
-0.0125493
0.00564677
-0.0125895
0.006304
-0.0126366
0.0069361
-0.0126903
0.00753989
-0.0127502
0.00811247
-0.0128159
-0.0128857
-0.0030126
-0.013148
0.00347534
-0.00253128
-0.0131176
-0.00203283
-0.0130907
-0.00151898
-0.0130676
-0.000991761
-0.0130485
-0.000453428
-0.0130337
9.35812e-05
-0.0130232
0.000646672
-0.0130173
0.00120314
-0.013016
0.00176018
-0.0130194
0.00231496
-0.0130276
0.0028646
-0.0130405
0.00340625
-0.013058
0.00393709
-0.0130802
0.00445435
-0.0131067
0.00495538
-0.0131376
0.00543763
-0.0131725
0.00589875
-0.0132113
0.0063365
-0.0132537
-0.0133005
-0.00219263
-0.0135256
0.00257028
-0.00180502
-0.0135052
-0.0014085
-0.0134872
-0.00100419
-0.0134719
-0.000593293
-0.0134594
-0.000177098
-0.0134499
0.000243054
-0.0134434
0.000665765
-0.01344
0.00108959
-0.0134398
0.00151307
-0.0134429
0.00193472
-0.0134492
0.00235306
-0.0134588
0.00276663
-0.0134716
0.00317402
-0.0134876
0.00357385
-0.0135066
0.00396482
-0.0135286
0.00434569
-0.0135534
0.00471531
-0.0135809
0.0050726
-0.013611
-0.013643
-0.00166959
-0.0138288
0.00197279
-0.00135943
-0.0138153
-0.00104299
-0.0138036
-0.000721068
-0.0137938
-0.000394501
-0.013786
-6.42094e-05
-0.0137802
0.000268834
-0.0137764
0.00060361
-0.0137748
0.000939066
-0.0137753
0.00127412
-0.013778
0.0016077
-0.0137828
0.00193869
-0.0137898
0.00226604
-0.013799
0.00258867
-0.0138102
0.00290556
-0.0138235
0.00321574
-0.0138387
0.00351829
-0.0138559
0.00381236
-0.013875
0.00409714
-0.0138958
-0.0139187
-0.00128345
-0.0140797
0.0015343
-0.00102838
-0.0140704
-0.000769612
-0.0140624
-0.000507679
-0.0140558
-0.000243152
-0.0140505
2.33804e-05
-0.0140467
0.000291312
-0.0140443
0.00056002
-0.0140435
0.000828874
-0.0140441
0.00109724
-0.0140463
0.00136447
-0.01405
0.00162993
-0.0140553
0.00189301
-0.014062
0.00215308
-0.0140703
0.00240954
-0.0140799
0.00266183
-0.014091
0.00290938
-0.0141035
0.00315166
-0.0141172
0.00338816
-0.0141323
-0.0141484
-0.00100644
-0.0142849
0.00121162
-0.000798292
-0.0142786
-0.000587525
-0.0142732
-0.000374527
-0.0142688
-0.000159703
-0.0142653
5.65197e-05
-0.0142629
0.000273697
-0.0142615
0.000491373
-0.0142612
0.00070908
-0.0142619
0.000926346
-0.0142636
0.0011427
-0.0142664
0.00135766
-0.0142702
0.00157076
-0.0142751
0.00178154
-0.014281
0.00198956
-0.014288
0.00219439
-0.0142959
0.00239562
-0.0143047
0.00259286
-0.0143145
0.00278574
-0.0143252
-0.0143369
-0.00079697
-0.0144554
0.000967495
-0.000624477
-0.0144511
-0.000450284
-0.0144474
-0.000274671
-0.0144444
-9.79261e-05
-0.0144421
7.96541e-05
-0.0144405
0.000257767
-0.0144396
0.000436105
-0.0144395
0.000614359
-0.0144401
0.000792215
-0.0144415
0.000969363
-0.0144435
0.00114549
-0.0144464
0.00132029
-0.0144499
0.00149347
-0.0144542
0.00166472
-0.0144592
0.00183376
-0.0144649
0.00200031
-0.0144713
0.00216409
-0.0144783
0.00232484
-0.0144859
-0.0144941
-0.00063391
-0.0145953
0.000773785
-0.00049263
-0.0145923
-0.000350141
-0.0145899
-0.000206645
-0.0145879
-6.23556e-05
-0.0145864
8.25097e-05
-0.0145854
0.000227727
-0.0145848
0.000373068
-0.0145848
0.000518302
-0.0145853
0.000663197
-0.0145863
0.000807518
-0.0145879
0.000951034
-0.0145899
0.00109352
-0.0145924
0.00123474
-0.0145954
0.00137448
-0.014599
0.00151252
-0.0146029
0.00164866
-0.0146074
0.0017827
-0.0146123
0.00191446
-0.0146177
-0.0146236
-0.000504898
-0.0147103
0.000619898
-0.000388918
-0.0147083
-0.000272103
-0.0147067
-0.000154607
-0.0147054
-3.6584e-05
-0.0147044
8.18069e-05
-0.0147037
0.000200405
-0.0147034
0.000319047
-0.0147035
0.000437569
-0.0147039
0.000555807
-0.0147046
0.000673596
-0.0147057
0.000790773
-0.0147071
0.000907175
-0.0147088
0.00102264
-0.0147109
0.00113702
-0.0147133
0.00125015
-0.0147161
0.00136188
-0.0147191
0.00147207
-0.0147225
0.00158057
-0.0147262
-0.0147301
-0.000397933
-0.0148028
0.000490447
-0.000304717
-0.0148015
-0.000210906
-0.0148005
-0.000116612
-0.0147997
-2.19505e-05
-0.0147991
7.29621e-05
-0.0147987
0.000168006
-0.0147985
0.000263062
-0.0147985
0.000358007
-0.0147988
0.000452719
-0.0147993
0.000547076
-0.0148
0.000640957
-0.014801
0.000734241
-0.0148021
0.00082681
-0.0148035
0.000918546
-0.0148051
0.00100934
-0.0148069
0.00109907
-0.0148089
0.00118764
-0.0148111
0.00127494
-0.0148135
-0.0148161
-0.000308269
-0.0148759
0.000381382
-0.000234659
-0.0148751
-0.000160631
-0.0148745
-8.62693e-05
-0.014874
-1.1657e-05
-0.0148737
6.31204e-05
-0.0148734
0.000137976
-0.0148733
0.000212824
-0.0148734
0.000287575
-0.0148736
0.000362143
-0.0148739
0.000436439
-0.0148743
0.000510376
-0.0148749
0.000583868
-0.0148756
0.000656828
-0.0148764
0.000729173
-0.0148774
0.000800818
-0.0148785
0.000871683
-0.0148797
0.000941686
-0.0148811
0.00101075
-0.0148825
-0.0148841
-0.000229516
-0.014931
0.000284595
-0.000174092
-0.0149306
-0.00011838
-0.0149302
-6.24384e-05
-0.01493
-6.32694e-06
-0.0149298
4.98938e-05
-0.0149297
0.000106162
-0.0149296
0.000162417
-0.0149296
0.000218595
-0.0149297
0.000274634
-0.0149299
0.000330472
-0.0149301
0.000386046
-0.0149305
0.000441296
-0.0149308
0.000496161
-0.0149313
0.00055058
-0.0149318
0.000604494
-0.0149324
0.000657845
-0.0149331
0.000710577
-0.0149338
0.000762635
-0.0149346
-0.0149355
-0.000159149
-0.0149696
0.000197772
-0.000120298
-0.0149694
-8.12581e-05
-0.0149693
-4.20693e-05
-0.0149692
-2.7715e-06
-0.0149691
3.65945e-05
-0.014969
7.59876e-05
-0.014969
0.000115366
-0.014969
0.000154689
-0.0149691
0.000193914
-0.0149691
0.000232999
-0.0149692
0.000271904
-0.0149694
0.000310587
-0.0149695
0.000349008
-0.0149697
0.000387125
-0.0149699
0.000424897
-0.0149702
0.000462286
-0.0149705
0.000499248
-0.0149708
0.000535745
-0.0149711
-0.0149714
-9.35958e-05
-0.0149924
0.000116391
-7.06725e-05
-0.0149923
-4.76426e-05
-0.0149923
-2.45293e-05
-0.0149923
-1.35588e-06
-0.0149922
2.18542e-05
-0.0149922
4.5077e-05
-0.0149922
6.82886e-05
-0.0149922
9.14648e-05
-0.0149922
0.000114582
-0.0149922
0.000137615
-0.0149923
0.00016054
-0.0149923
0.000183335
-0.0149923
0.000205975
-0.0149924
0.000228437
-0.0149924
0.000250699
-0.0149925
0.000272736
-0.0149925
0.000294527
-0.0149926
0.000316046
-0.0149926
-0.0149927
-3.10685e-05
3.86882e-05
-2.34051e-05
-1.57056e-05
-7.97698e-06
-2.26326e-07
7.53911e-06
1.53121e-05
2.30855e-05
3.08522e-05
3.86055e-05
4.63385e-05
5.40452e-05
6.17195e-05
6.93562e-05
7.69506e-05
8.4499e-05
9.19989e-05
9.94487e-05
0.00010685
-0.0246406
-0.0144287
0.0153132
0.0237561
-0.0256234
-0.0143452
0.015328
-0.0267545
-0.0142445
0.0153756
-0.0280526
-0.0141407
0.0154388
-0.0295324
-0.0140364
0.0155163
-0.0312022
-0.0139344
0.0156042
-0.0330601
-0.0138366
0.0156945
-0.035091
-0.0137437
0.0157746
-0.0372635
-0.0136535
0.015826
-0.0395278
-0.0135609
0.0158253
-0.0418157
-0.0134561
0.0157439
-0.0440406
-0.0133247
0.0155496
-0.0461012
-0.0131471
0.0152077
-0.0478848
-0.0128989
0.0146824
-0.0492709
-0.0125513
0.0139374
-0.0501325
-0.0120732
0.0129349
-0.0503309
-0.0114338
0.0116322
-0.0497034
-0.0106043
0.00997683
-0.0480505
-0.00955127
0.0078983
-0.00823228
0.00521842
-0.0177772
-0.0142353
0.0175838
-0.0179835
-0.0141389
-0.0181932
-0.0140348
-0.0184183
-0.0139157
-0.0186743
-0.0137804
-0.0189805
-0.0136282
-0.0193586
-0.0134585
-0.0198305
-0.0132717
-0.0204153
-0.0130687
-0.0211254
-0.0128508
-0.021962
-0.0126195
-0.022911
-0.0123756
-0.0239389
-0.0121191
-0.02499
-0.0118478
-0.0259841
-0.0115572
-0.0268164
-0.0112409
-0.0273594
-0.0108909
-0.0274653
-0.0104983
-0.0269595
-0.010057
-0.00957569
-0.0188916
-0.0139399
0.0185963
-0.0191734
-0.0138572
-0.0194425
-0.0137657
-0.01969
-0.0136682
-0.0199068
-0.0135636
-0.0200845
-0.0134505
-0.0202156
-0.0133274
-0.0202946
-0.0131928
-0.0203184
-0.0130449
-0.0202867
-0.0128825
-0.0202015
-0.0127047
-0.0200662
-0.012511
-0.0198834
-0.0123019
-0.0196526
-0.0120786
-0.0193667
-0.0118431
-0.0190097
-0.0115979
-0.0185545
-0.0113461
-0.0179615
-0.0110914
-0.0171805
-0.010838
-0.0105912
-0.0139328
-0.0138557
0.0138485
-0.0140225
-0.0137675
-0.0141132
-0.013675
-0.0142037
-0.0135777
-0.0142912
-0.0134761
-0.0143716
-0.0133701
-0.0144389
-0.0132601
-0.0144854
-0.0131463
-0.0145017
-0.0130287
-0.0144769
-0.0129073
-0.0143995
-0.012782
-0.0142577
-0.0126527
-0.0140405
-0.0125192
-0.0137379
-0.0123812
-0.013342
-0.0122389
-0.0128473
-0.0120926
-0.0122502
-0.0119432
-0.0115495
-0.0117921
-0.0107463
-0.0116412
-0.011493
-0.0127324
-0.0138922
0.0127689
-0.0126754
-0.0138245
-0.0125978
-0.0137526
-0.0124984
-0.0136772
-0.0123762
-0.0135982
-0.0122306
-0.0135157
-0.0120611
-0.0134297
-0.0118672
-0.0133402
-0.0116484
-0.0132474
-0.0114039
-0.0131518
-0.0111324
-0.0130536
-0.0108316
-0.0129535
-0.0104988
-0.012852
-0.01013
-0.01275
-0.00972069
-0.0126482
-0.00926587
-0.0125474
-0.00876046
-0.0124486
-0.00819991
-0.0123526
-0.00758074
-0.0122603
-0.0121727
-0.0101604
-0.0139516
0.0102198
-0.0100909
-0.013894
-0.0100088
-0.0138347
-0.00991197
-0.013774
-0.0097982
-0.013712
-0.00966505
-0.0136489
-0.00951005
-0.0135847
-0.0093307
-0.0135195
-0.00912461
-0.0134535
-0.00888953
-0.0133868
-0.00862352
-0.0133196
-0.00832496
-0.013252
-0.00799268
-0.0131843
-0.00762592
-0.0131168
-0.00722439
-0.0130497
-0.00678823
-0.0129836
-0.00631798
-0.0129189
-0.00581451
-0.0128561
-0.00527905
-0.0127958
-0.0127386
-0.00868069
-0.0140702
0.00879929
-0.00854935
-0.0140254
-0.00840468
-0.0139793
-0.00824638
-0.0139322
-0.00807415
-0.0138842
-0.00788765
-0.0138354
-0.0076865
-0.0137858
-0.00747026
-0.0137358
-0.00723843
-0.0136854
-0.00699043
-0.0136348
-0.0067256
-0.0135844
-0.00644323
-0.0135344
-0.00614254
-0.013485
-0.00582279
-0.0134365
-0.00548325
-0.0133893
-0.00512334
-0.0133435
-0.00474263
-0.0132996
-0.00434095
-0.0132578
-0.00391837
-0.0132184
-0.0131817
-0.00719112
-0.0141849
0.00730585
-0.0070665
-0.01415
-0.00693143
-0.0141144
-0.00678516
-0.0140785
-0.00662696
-0.0140424
-0.00645617
-0.0140062
-0.00627215
-0.0139698
-0.00607436
-0.0139335
-0.00586232
-0.0138974
-0.00563568
-0.0138615
-0.00539418
-0.0138259
-0.00513769
-0.0137909
-0.0048662
-0.0137565
-0.00457981
-0.0137229
-0.00427878
-0.0136903
-0.00396346
-0.0136588
-0.00363433
-0.0136287
-0.00329195
-0.0136001
-0.002937
-0.0135733
-0.0135484
-0.00604989
-0.0143111
0.00617605
-0.00591579
-0.0142841
-0.00577331
-0.0142569
-0.00562231
-0.0142295
-0.00546267
-0.0142021
-0.00529427
-0.0141746
-0.00511697
-0.0141471
-0.00493066
-0.0141199
-0.00473521
-0.0140928
-0.00453052
-0.0140662
-0.0043165
-0.0140399
-0.00409308
-0.0140143
-0.0038602
-0.0139894
-0.00361787
-0.0139652
-0.00336614
-0.013942
-0.00310511
-0.0139199
-0.00283496
-0.0138989
-0.00255595
-0.0138792
-0.00226842
-0.0138608
-0.013844
-0.0050824
-0.0144272
0.00519848
-0.00495964
-0.0144069
-0.00483015
-0.0143864
-0.00469372
-0.0143659
-0.00455019
-0.0143456
-0.00439941
-0.0143253
-0.00424127
-0.0143053
-0.00407567
-0.0142855
-0.00390258
-0.0142659
-0.00372199
-0.0142467
-0.00353395
-0.014228
-0.00333853
-0.0142097
-0.00313587
-0.014192
-0.00292613
-0.014175
-0.00270954
-0.0141586
-0.00248636
-0.0141431
-0.00225688
-0.0141283
-0.00202145
-0.0141146
-0.00178045
-0.0141018
-0.0140902
-0.00426319
-0.0145372
0.00437326
-0.00414815
-0.0145219
-0.00402796
-0.0145066
-0.00390256
-0.0144913
-0.00377195
-0.0144762
-0.00363611
-0.0144612
-0.00349503
-0.0144464
-0.00334872
-0.0144318
-0.00319722
-0.0144174
-0.00304055
-0.0144034
-0.00287876
-0.0143898
-0.00271193
-0.0143766
-0.00254015
-0.0143638
-0.00236352
-0.0143516
-0.00218219
-0.0143399
-0.00199632
-0.0143289
-0.0018061
-0.0143186
-0.00161173
-0.0143089
-0.00141348
-0.0143001
-0.014292
-0.00358263
-0.0146352
0.00368055
-0.00348056
-0.014624
-0.00337436
-0.0146128
-0.00326402
-0.0146017
-0.00314952
-0.0145907
-0.00303084
-0.0145799
-0.002908
-0.0145692
-0.00278102
-0.0145587
-0.00264995
-0.0145485
-0.00251484
-0.0145385
-0.00237576
-0.0145289
-0.00223282
-0.0145195
-0.00208613
-0.0145105
-0.00193582
-0.0145019
-0.00178204
-0.0144937
-0.00162495
-0.014486
-0.00146474
-0.0144788
-0.00130162
-0.0144721
-0.00113579
-0.0144659
-0.0144603
-0.00298156
-0.0147221
0.00306854
-0.00289151
-0.014714
-0.00279832
-0.014706
-0.00270199
-0.014698
-0.00260255
-0.0146901
-0.00250001
-0.0146824
-0.0023944
-0.0146748
-0.00228577
-0.0146674
-0.00217416
-0.0146601
-0.00205964
-0.0146531
-0.00194226
-0.0146462
-0.00182211
-0.0146396
-0.00169928
-0.0146333
-0.00157385
-0.0146273
-0.00144594
-0.0146216
-0.00131567
-0.0146163
-0.00118317
-0.0146113
-0.00104859
-0.0146067
-0.000912069
-0.0146024
-0.0145986
-0.00246894
-0.0147967
0.00254353
-0.00239182
-0.0147911
-0.00231223
-0.0147856
-0.00223017
-0.0147801
-0.00214567
-0.0147746
-0.00205875
-0.0147693
-0.00196945
-0.0147641
-0.00187779
-0.014759
-0.00178383
-0.0147541
-0.00168763
-0.0147493
-0.00158924
-0.0147446
-0.00148874
-0.0147402
-0.0013862
-0.0147359
-0.00128172
-0.0147318
-0.0011754
-0.014728
-0.00106732
-0.0147244
-0.000957615
-0.014721
-0.000846391
-0.0147179
-0.000733775
-0.0147151
-0.0147125
-0.00200335
-0.0148595
0.00206616
-0.00193869
-0.0148558
-0.00187215
-0.0148521
-0.00180376
-0.0148484
-0.00173355
-0.0148449
-0.00166152
-0.0148413
-0.00158773
-0.0148379
-0.0015122
-0.0148346
-0.00143497
-0.0148313
-0.0013561
-0.0148281
-0.00127562
-0.0148251
-0.00119361
-0.0148222
-0.00111011
-0.0148194
-0.00102521
-0.0148167
-0.000938957
-0.0148142
-0.000851442
-0.0148119
-0.000762745
-0.0148097
-0.000672951
-0.0148077
-0.000582153
-0.0148059
-0.0148042
-0.00158995
-0.0149104
0.00164084
-0.0015376
-0.0149081
-0.00148383
-0.0149059
-0.00142864
-0.0149036
-0.00137206
-0.0149014
-0.00131412
-0.0148993
-0.00125484
-0.0148972
-0.00119425
-0.0148951
-0.00113238
-0.0148932
-0.00106928
-0.0148912
-0.00100498
-0.0148894
-0.000939538
-0.0148876
-0.000872995
-0.0148859
-0.000805408
-0.0148843
-0.000736833
-0.0148828
-0.000667331
-0.0148814
-0.000596966
-0.01488
-0.000525805
-0.0148788
-0.00045392
-0.0148777
-0.0148768
-0.00120383
-0.0149498
0.00124317
-0.00116347
-0.0149485
-0.00112208
-0.0149473
-0.00107968
-0.014946
-0.00103628
-0.0149448
-0.0009919
-0.0149437
-0.000946568
-0.0149425
-0.000900304
-0.0149414
-0.000853136
-0.0149403
-0.000805093
-0.0149393
-0.000756205
-0.0149383
-0.000706506
-0.0149373
-0.000656034
-0.0149364
-0.000604825
-0.0149355
-0.000552923
-0.0149347
-0.000500369
-0.0149339
-0.000447211
-0.0149332
-0.000393495
-0.0149326
-0.000339272
-0.014932
-0.0149314
-0.000845692
-0.0149776
0.000873557
-0.000817078
-0.0149771
-0.000787751
-0.0149766
-0.000757723
-0.0149761
-0.000727008
-0.0149756
-0.000695624
-0.0149751
-0.000663585
-0.0149746
-0.00063091
-0.0149741
-0.000597618
-0.0149736
-0.00056373
-0.0149732
-0.000529268
-0.0149727
-0.000494256
-0.0149723
-0.00045872
-0.0149719
-0.000422687
-0.0149715
-0.000386186
-0.0149712
-0.000349247
-0.0149709
-0.000311902
-0.0149706
-0.000274185
-0.0149703
-0.00023613
-0.01497
-0.0149698
-0.000500304
-0.0149943
0.000516969
-0.000483264
-0.0149941
-0.000465807
-0.014994
-0.000447944
-0.0149939
-0.000429684
-0.0149938
-0.000411036
-0.0149937
-0.000392011
-0.0149936
-0.00037262
-0.0149935
-0.000352873
-0.0149934
-0.000332784
-0.0149933
-0.000312365
-0.0149932
-0.000291631
-0.0149931
-0.000270597
-0.014993
-0.000249279
-0.0149929
-0.000227692
-0.0149928
-0.000205856
-0.0149927
-0.000183788
-0.0149926
-0.000161508
-0.0149926
-0.000139035
-0.0149925
-0.0149924
-0.000167769
0.000173473
-0.000161917
-0.000155957
-0.000149886
-0.000143702
-0.000137404
-0.000130992
-0.000124469
-0.000117835
-0.000111094
-0.000104248
-9.73015e-05
-9.02584e-05
-8.31234e-05
-7.59015e-05
-6.85981e-05
-6.12189e-05
-5.37699e-05
-4.62575e-05
-0.0181282
-0.00454022
0.0226685
-0.0144884
-0.00363981
-0.0115211
-0.00296734
-0.00908448
-0.00243662
-0.00708001
-0.00200448
-0.00543416
-0.00164585
-0.00408971
-0.00134445
-0.00300073
-0.00108898
-0.00212941
-0.000871322
-0.001444
-0.000685406
-0.00091736
-0.000526642
-0.000525856
-0.000391503
-0.000248548
-0.000277309
-6.64522e-05
-0.000182095
3.81279e-05
-0.00010458
8.23842e-05
-4.42564e-05
8.49081e-05
-2.52386e-06
5.79413e-05
2.69669e-05
2.21243e-05
3.58171e-05
2.21243e-05
-0.0151129
-0.00600801
0.0165807
-0.0134812
-0.00527155
-0.0118348
-0.00461369
-0.0102472
-0.00402426
-0.00875778
-0.00349386
-0.00738786
-0.00301576
-0.00614769
-0.00258461
-0.00504067
-0.00219601
-0.00406565
-0.00184634
-0.00321848
-0.00153258
-0.00249288
-0.00125224
-0.00188117
-0.00100321
-0.00137469
-0.000783794
-0.000964184
-0.000592597
-0.000640183
-0.00042858
-0.000393395
-0.000291045
-0.000216306
-0.000179613
-9.51671e-05
-9.41721e-05
-2.42989e-05
-3.50512e-05
-2.17463e-06
-0.0119268
-0.00696444
0.0128832
-0.0108794
-0.00631895
-0.00978926
-0.0057038
-0.00869452
-0.005119
-0.00762349
-0.00456489
-0.00659728
-0.00404197
-0.00563116
-0.00355073
-0.00473573
-0.00309145
-0.00391783
-0.00266423
-0.00318135
-0.00226906
-0.00252781
-0.00190578
-0.00195685
-0.00157418
-0.00146666
-0.00127398
-0.00105437
-0.00100489
-0.000716354
-0.000766599
-0.000448573
-0.000558826
-0.000246891
-0.000381295
-0.000107284
-0.000233779
-2.62623e-05
-0.000116073
-2.84369e-05
-0.00956468
-0.00777887
0.0103791
-0.00872627
-0.00715736
-0.00788161
-0.00654846
-0.00704488
-0.00595573
-0.0062281
-0.00538167
-0.00544143
-0.00482864
-0.00469341
-0.00429876
-0.00399098
-0.00379387
-0.00333963
-0.00331559
-0.00274345
-0.00286524
-0.00220528
-0.00244395
-0.00172683
-0.00205262
-0.00130886
-0.00169195
-0.000951257
-0.00136249
-0.000653251
-0.00106461
-0.000413515
-0.000798561
-0.000230321
-0.000564489
-0.00010167
-0.00036243
-2.54035e-05
-0.000192339
-5.38403e-05
-0.00861231
-0.00854014
0.00937357
-0.00784695
-0.00792271
-0.00708571
-0.0073097
-0.00633718
-0.00670427
-0.00560926
-0.00610958
-0.00490913
-0.00552877
-0.00424309
-0.0049648
-0.00361651
-0.00442045
-0.00303386
-0.00389824
-0.00249864
-0.00340045
-0.00201352
-0.00292907
-0.00158032
-0.00248582
-0.00120013
-0.00207214
-0.000873386
-0.00168924
-0.000599948
-0.00133804
-0.00037922
-0.00101929
-0.000210231
-0.000733478
-9.17274e-05
-0.000480934
-2.22736e-05
-0.000261793
-7.61139e-05
-0.00813192
-0.00928218
0.00887396
-0.00739286
-0.00866177
-0.00666385
-0.00803871
-0.00595152
-0.00741659
-0.00526214