/*--------------------------------*- C++ -*----------------------------------*\
| =========                 |                                                 |
| \\      /  F ield         | OpenFOAM: The Open Source CFD Toolbox           |
|  \\    /   O peration     | Version:  v1806                                 |
|   \\  /    A nd           | Web:      www.OpenFOAM.com                      |
|    \\/     M anipulation  |                                                 |
\*---------------------------------------------------------------------------*/
FoamFile
{
    version     2.0;
    format      ascii;
    class       volScalarField;
    location    "180";
    object      p;
}
// * * * * * * * * * * * * * * * * * * * * * * * * * * * * * * * * * * * * * //

dimensions      [0 2 -2 0 0 0 0];


internalField   nonuniform List<scalar> 
2400
(
0.000105321
0.000106589
0.00010907
0.000112874
0.000117791
0.000123872
0.000130709
0.00013831
0.000145955
0.000153483
0.000159701
0.000164132
0.000165054
0.000161605
0.000151795
0.000134601
0.000108706
7.41131e-05
3.17672e-05
-1.73449e-05
0.000315542
0.000319246
0.000326474
0.000337658
0.000352105
0.00037008
0.000390258
0.000412838
0.000435519
0.000458081
0.000476746
0.00049043
0.000493711
0.000484358
0.000456134
0.000406349
0.000330726
0.000229036
0.000102876
-4.19784e-05
0.000524572
0.000530682
0.000542597
0.000561107
0.000585045
0.000614933
0.000648517
0.000686297
0.00072432
0.000762523
0.000794349
0.000818472
0.000825326
0.000811806
0.000766638
0.000685869
0.000561221
0.000392252
0.00018097
-6.19106e-05
0.000731609
0.000740135
0.000756761
0.000782673
0.00081621
0.00085824
0.000905521
0.000959059
0.00101308
0.00106808
0.00111429
0.00115084
0.00116312
0.00114813
0.00108794
0.00097832
0.000804941
0.000567683
0.000267907
-7.98712e-05
0.00093587
0.000946836
0.00096822
0.00100164
0.00104493
0.00109941
0.00116078
0.00123083
0.00130173
0.0013751
0.00143737
0.00148915
0.00150939
0.00149682
0.00142425
0.00128914
0.00106741
0.000760826
0.000367201
-9.45608e-05
0.00113657
0.00114999
0.00117619
0.00121724
0.00127045
0.00133774
0.00141369
0.00150116
0.00159006
0.00168379
0.00176426
0.00183489
0.00186639
0.00186157
0.00178009
0.00162455
0.00135493
0.000978432
0.000483666
-0.000103889
0.00133292
0.00134881
0.00137988
0.00142868
0.00149202
0.00157249
0.00166359
0.00176953
0.00187776
0.00199419
0.00209547
0.00218939
0.00223628
0.00224608
0.00216017
0.00199157
0.00167458
0.00122892
0.000623123
-0.000105428
0.00152412
0.00154245
0.00157848
0.00163511
0.00170882
0.00180284
0.00190973
0.00203521
0.00216434
0.00230601
0.00243123
0.00255359
0.00262094
0.00265395
0.0025693
0.00239803
0.00203436
0.00152312
0.000792502
-9.56551e-05
0.00170938
0.00173008
0.00177115
0.00183567
0.00191999
0.00202784
0.00215125
0.00229728
0.00244906
0.00261861
0.00277142
0.00292788
0.00302194
0.00308837
0.00301244
0.0028526
0.00244348
0.00187524
0.00100022
-6.87795e-05
0.00188789
0.00191087
0.00195706
0.00202945
0.00212461
0.00224648
0.00238713
0.00255458
0.00273095
0.00293091
0.00311552
0.00331198
0.00344039
0.00355182
0.00349469
0.00336445
0.00291279
0.00230381
0.00125678
-1.4497e-05
0.00205885
0.00208398
0.00213535
0.00221552
0.00232173
0.0024576
0.00261625
0.00280572
0.00300874
0.00324129
0.00346252
0.0037047
0.00387686
0.00404563
0.00402122
0.00394256
0.00345538
0.00283207
0.00157525
8.65763e-05
0.00222148
0.00224856
0.00230517
0.0023929
0.00251033
0.00266
0.00283734
0.00304903
0.00328086
0.00354761
0.00381085
0.00410382
0.0043312
0.00456953
0.00459708
0.00459448
0.00408733
0.00348728
0.00197303
0.000269856
0.00237501
0.00240379
0.00246566
0.00256064
0.00268935
0.00285236
0.00304897
0.00328264
0.00354539
0.00384714
0.00415824
0.00450596
0.0048023
0.00512126
0.00522692
0.00532483
0.00482811
0.00429804
0.00247594
0.000595043
0.00251867
0.00254889
0.00261598
0.00271777
0.00285771
0.00303334
0.00324959
0.00350448
0.00379999
0.0041366
0.00450155
0.00490644
0.00528772
0.00569642
0.00591501
0.00613445
0.00570065
0.00528806
0.00312546
0.00115069
0.00265174
0.00268312
0.0027553
0.00286335
0.00301428
0.00320159
0.00343752
0.00371236
0.00404195
0.00441222
0.00483649
0.00529917
0.00578286
0.00628824
0.00666476
0.00702175
0.00673359
0.00646884
0.00398822
0.00204043
0.00277351
0.00280579
0.00288281
0.00299651
0.00315793
0.00335579
0.00361096
0.00390406
0.00426816
0.00466986
0.00515751
0.00567646
0.00627951
0.00688655
0.00747606
0.00798595
0.00796823
0.00784229
0.0051721
0.00334337
0.0028833
0.00291627
0.00299777
0.0031164
0.00328755
0.00349471
0.00376807
0.00407743
0.00447519
0.00490535
0.00545793
0.00602937
0.00676482
0.00747411
0.00833811
0.00902457
0.00946378
0.00942545
0.00685592
0.00507839
0.00298051
0.00301402
0.00309948
0.0032223
0.00340205
0.00361722
0.00390697
0.00423047
0.00465933
0.00511467
0.0057298
0.00634912
0.00722162
0.008029
0.00921763
0.010104
0.0112697
0.0113014
0.0093407
0.00702894
0.00306452
0.00309865
0.0031873
0.0033136
0.00350039
0.00372241
0.0040258
0.00436151
0.00481677
0.00529432
0.00596427
0.00662744
0.00762716
0.00853087
0.0100607
0.0111655
0.0133397
0.013596
0.0133778
0.00645506
0.00313488
0.00316965
0.00326095
0.00338954
0.00358214
0.003809
0.00412381
0.00446819
0.00494574
0.00543946
0.00615644
0.00685341
0.00796511
0.00895157
0.0107991
0.0121449
0.0155014
0.0162752
0.0211454
0.00171609
-5.61332e-05
-7.13784e-05
-8.33815e-05
-9.36563e-05
-0.00010377
-0.000113986
-0.000124075
-0.000133918
-0.000143232
-0.000152525
-0.000136798
-0.000169889
-0.000201767
-0.000232954
-0.000263758
-0.000294105
-0.000323752
-0.000352571
-0.000380279
-0.000407505
-0.000221734
-0.000279382
-0.00033511
-0.0003893
-0.000442431
-0.000494465
-0.000545098
-0.000594115
-0.000641094
-0.000686524
-0.000311613
-0.000395165
-0.000475302
-0.000552923
-0.000629041
-0.000703643
-0.000776225
-0.000846391
-0.000913603
-0.000978269
-0.000404665
-0.000516361
-0.000623374
-0.000727027
-0.000828713
-0.00092836
-0.00102524
-0.00111875
-0.00120824
-0.001294
-0.000501868
-0.000645399
-0.000782976
-0.000916189
-0.00104678
-0.00117461
-0.00129871
-0.00141826
-0.00153247
-0.0016415
-0.000604397
-0.000784756
-0.00095782
-0.0011253
-0.00128926
-0.00144948
-0.0016047
-0.00175384
-0.00189593
-0.002031
-0.000713204
-0.00093724
-0.00115267
-0.00136097
-0.00156438
-0.00176258
-0.001954
-0.00213726
-0.00231118
-0.00247563
-0.00082925
-0.00110674
-0.00137439
-0.00163259
-0.00188366
-0.0021272
-0.00236134
-0.00258436
-0.00279486
-0.00299256
-0.000954109
-0.00129981
-0.001634
-0.00195468
-0.00226428
-0.00256264
-0.00284766
-0.00311727
-0.00336979
-0.00360487
-0.00109171
-0.00152938
-0.00195097
-0.0023509
-0.00273291
-0.00309793
-0.00344374
-0.00376778
-0.00406808
-0.00434438
-0.00125249
-0.00182191
-0.00236073
-0.00286077
-0.0033317
-0.00377744
-0.00419545
-0.00458221
-0.00493545
-0.00525549
-0.00146147
-0.00222939
-0.00292678
-0.00355051
-0.00412787
-0.00466935
-0.00517114
-0.00562774
-0.00603655
-0.00639936
-0.00177172
-0.00284473
-0.00375588
-0.00452863
-0.0052298
-0.0058815
-0.0064763
-0.00700497
-0.00746511
-0.00786123
-0.00229558
-0.0038238
-0.00501141
-0.00595716
-0.00680012
-0.00757685
-0.00827021
-0.00886446
-0.00935891
-0.0097624
-0.0033008
-0.00547465
-0.00698129
-0.00809552
-0.00907967
-0.00998353
-0.0107669
-0.0114017
-0.0118902
-0.0122482
-0.0052961
-0.0084242
-0.0103058
-0.0115401
-0.012604
-0.0135724
-0.0143718
-0.0149583
-0.0153392
-0.015543
-0.0086311
-0.0130638
-0.0154565
-0.016855
-0.0179714
-0.0189014
-0.019564
-0.0199379
-0.0200537
-0.0199615
-0.0141582
-0.0189378
-0.0211326
-0.0225618
-0.0237089
-0.024452
-0.0247451
-0.0246858
-0.0243886
-0.023938
-0.0337337
-0.034163
-0.0314745
-0.0304738
-0.0303683
-0.0301839
-0.0297549
-0.0291699
-0.0285313
-0.0278035
-0.000173816
-0.000208982
-0.000209452
-0.000195396
-0.000166538
-0.00013983
-0.000105292
-7.06105e-05
-3.69905e-05
-8.26426e-06
-2.15805e-06
-1.97764e-06
-9.22313e-06
-6.94511e-06
4.63169e-06
4.2605e-05
6.13828e-05
8.13481e-05
7.51625e-05
2.58226e-05
-0.00051007
-0.000615451
-0.000621559
-0.000575187
-0.000495002
-0.000415136
-0.000315499
-0.000214533
-0.000111364
-3.38482e-05
-2.33844e-06
-6.85622e-07
-2.30897e-05
-1.65355e-05
1.59421e-05
0.000100772
0.000172766
0.000216198
0.000204742
8.52958e-05
-0.000860565
-0.00103271
-0.00104164
-0.000959348
-0.000827188
-0.000692433
-0.000527997
-0.000358715
-0.000184509
-5.63795e-05
2.94501e-06
2.56083e-06
-3.75338e-05
-2.90673e-05
2.15801e-05
0.000156074
0.000282774
0.000351178
0.000340717
0.000147356
-0.00123252
-0.00147005
-0.00147635
-0.00135328
-0.00116585
-0.000974624
-0.000743339
-0.000502202
-0.000253488
-7.15962e-05
1.37349e-05
7.48251e-06
-5.55651e-05
-4.79331e-05
2.13626e-05
0.000212118
0.000395621
0.000494514
0.000488727
0.000209081
-0.00163485
-0.00193394
-0.00192938
-0.00175824
-0.00151172
-0.00126254
-0.000962024
-0.000644806
-0.000316502
-7.75704e-05
3.24729e-05
1.5402e-05
-7.84523e-05
-7.48481e-05
1.35761e-05
0.000267479
0.000512227
0.000647928
0.000651098
0.000271657
-0.00207738
-0.00243148
-0.00240457
-0.00217562
-0.00186572
-0.00155725
-0.0011851
-0.000786472
-0.000371861
-7.13278e-05
6.25328e-05
2.74364e-05
-0.000107732
-0.000112859
-5.37838e-06
0.000320688
0.000633266
0.000814195
0.000831832
0.000336205
-0.00257216
-0.00297071
-0.00290603
-0.00260677
-0.00222872
-0.00186007
-0.00141389
-0.000927222
-0.000417566
-4.92043e-05
0.000107446
4.45498e-05
-0.000145485
-0.000166089
-3.95707e-05
0.000369941
0.000759089
0.000996753
0.00103397
0.000403151
-0.003134
-0.00356048
-0.00343791
-0.00305257
-0.0026013
-0.00217255
-0.00165005
-0.00106728
-0.000451448
-7.14689e-06
0.000171172
6.77626e-05
-0.000194151
-0.000239344
-9.35259e-05
0.000412307
0.000888855
0.00119805
0.00125859
0.0004726
-0.00378118
-0.00421059
-0.00400425
-0.00351314
-0.00298371
-0.00249646
-0.00189581
-0.00120727
-0.0004713
5.93891e-05
0.000258256
9.82159e-05
-0.000256367
-0.000338089
-0.000172549
0.000443907
0.00102033
0.00141853
0.00150414
0.000544174
-0.0045364
-0.00493185
-0.00460891
-0.00398758
-0.00337579
-0.00283387
-0.00215409
-0.00134845
-0.000475465
0.000155372
0.000373714
0.000137359
-0.000334437
-0.000467946
-0.000282605
0.00045837
0.00114944
0.00165536
0.00176538
0.000616718
-0.00542772
-0.00573609
-0.00525522
-0.00447351
-0.00377682
-0.00318717
-0.00242841
-0.00149287
-0.000461365
0.000285635
0.000522575
0.000187264
-0.000428994
-0.000632924
-0.000427037
0.000450164
0.00126931
0.00190023
0.00203199
0.00068794
-0.00648968
-0.00663618
-0.00594546
-0.00496611
-0.00418488
-0.00355862
-0.00272358
-0.00164377
-0.000430186
0.000452426
0.000708498
0.000250814
-0.000537445
-0.000832548
-0.000610697
0.000412664
0.00137016
0.00213874
0.00228727
0.000753912
-0.00776449
-0.00764613
-0.00668
-0.00545671
-0.00459548
-0.00394793
-0.00304446
-0.00180565
-0.000385042
0.000652997
0.000930278
0.000331472
-0.000651755
-0.00105855
-0.00082771
0.00034005
0.00143983
0.00234509
0.00250876
0.000808856
-0.00930347
-0.00878036
-0.00745603
-0.00593066
-0.00499947
-0.00434888
-0.00339114
-0.00198403
-0.00033433
0.000878838
0.0011786
0.000431652
-0.000756748
-0.00129231
-0.00106579
0.000231185
0.00146617
0.00249678
0.0026707
0.000845515
-0.0111616
-0.0100475
-0.00826461
-0.00636454
-0.00537815
-0.00476416
-0.00375656
-0.00218336
-0.000295544
0.00109757
0.00143158
0.000548283
-0.000832275
-0.00150584
-0.00130222
9.24929e-05
0.00143919
0.00256827
0.00274553
0.000855946
-0.0133646
-0.0114337
-0.00908394
-0.00672613
-0.00569735
-0.00512485
-0.00411664
-0.00240116
-0.000293223
0.00127307
0.00165026
0.000667173
-0.000859832
-0.00166487
-0.0015045
-6.11523e-05
0.00135575
0.0025364
0.00270858
0.000833027
-0.015878
-0.0128629
-0.00987122
-0.00698825
-0.00592248
-0.00539455
-0.00442713
-0.00262106
-0.000351203
0.00135169
0.0017791
0.000760918
-0.000830225
-0.00173504
-0.00163405
-0.00020579
0.00122158
0.00238697
0.0025444
0.000772306
-0.0185797
-0.0142072
-0.0105793
-0.00715557
-0.00604544
-0.005524
-0.00462782
-0.00280812
-0.000478196
0.0012819
0.0017561
0.000791112
-0.000745905
-0.00169
-0.00165129
-0.000311002
0.00105019
0.00211768
0.00224919
0.000673195
-0.0205056
-0.0151353
-0.0111873
-0.00731506
-0.0061034
-0.00549692
-0.00465796
-0.00290776
-0.000659688
0.00103787
0.0015289
0.000722509
-0.000617186
-0.00151181
-0.00152099
-0.00034559
0.00086114
0.00173868
0.00183126
0.000538694
-0.0221935
-0.0157063
-0.0116883
-0.007567
-0.00617067
-0.00532918
-0.00447886
-0.00286463
-0.000863417
0.000628363
0.00108756
0.000546272
-0.000453579
-0.00119511
-0.00122544
-0.000286735
0.000675526
0.00127452
0.00131695
0.000373077
-0.0220504
-0.015595
-0.0119462
-0.00781242
-0.00624261
-0.00511872
-0.00420245
-0.00272023
-0.00100148
0.000253379
0.000675795
0.000362647
-0.000312796
-0.000878777
-0.000906954
-0.000177158
0.000558164
0.000908733
0.000922381
0.00023792
-0.0217131
-0.0155549
-0.012089
-0.00798521
-0.00629881
-0.0049899
-0.00401179
-0.00261051
-0.0010745
2.61754e-05
0.000421968
0.000246213
-0.000229651
-0.000679828
-0.00070032
-0.000101023
0.000496001
0.000696729
0.00069011
0.000161766
-0.021475
-0.015519
-0.0122289
-0.00818231
-0.0063659
-0.00485169
-0.00379165
-0.00247593
-0.00114053
-0.000209083
0.000156066
0.000122741
-0.000142915
-0.000464211
-0.000471646
-1.17595e-05
0.000438589
0.000484772
0.000454286
8.68189e-05
-0.0212991
-0.0154781
-0.0123618
-0.00839256
-0.00643873
-0.00470356
-0.00354796
-0.00232127
-0.00120031
-0.000448543
-0.000115698
-3.54585e-06
-5.18395e-05
-0.000234211
-0.00022473
8.98914e-05
0.000385425
0.000274046
0.000218098
1.22613e-05
-0.0211871
-0.0154307
-0.0124924
-0.00860701
-0.00651287
-0.00454772
-0.00328741
-0.00215201
-0.0012545
-0.000687737
-0.000386815
-0.000128573
4.34474e-05
7.02114e-06
3.64778e-05
0.000201907
0.000336353
6.66274e-05
-1.57241e-05
-6.1389e-05
-0.0211494
-0.0153851
-0.0126207
-0.00881902
-0.00658336
-0.00438697
-0.00301592
-0.00197438
-0.00130396
-0.000922022
-0.000650733
-0.000248296
0.000142582
0.000255894
0.000307598
0.000321685
0.000291247
-0.000135056
-0.000244528
-0.00013331
-0.0211851
-0.0153437
-0.0127434
-0.00901945
-0.00664495
-0.00422411
-0.00274448
-0.00179515
-0.0013498
-0.00114706
-0.000901346
-0.000358971
0.000245044
0.000508466
0.000583826
0.000446396
0.000249882
-0.000328756
-0.000465764
-0.000202652
-0.0212853
-0.0153028
-0.0128511
-0.00919871
-0.00669257
-0.00406197
-0.00247934
-0.00162097
-0.0013931
-0.00135888
-0.00113326
-0.000457372
0.000350122
0.00076053
0.000860117
0.000573064
0.000212019
-0.000512481
-0.000677071
-0.000268485
-0.0214625
-0.0152547
-0.0129348
-0.00935066
-0.00672094
-0.00390388
-0.00222818
-0.0014586
-0.00143519
-0.00155413
-0.00134168
-0.00054047
0.000457223
0.00100843
0.0011315
0.000698872
0.000177069
-0.000684276
-0.000876396
-0.000330616
-0.0218428
-0.0151756
-0.0130052
-0.00948058
-0.00672346
-0.00375448
-0.00199887
-0.0013166
-0.00147984
-0.00173133
-0.00152229
-0.000604794
0.000566235
0.00125049
0.00139337
0.000821874
0.000142593
-0.000842005
-0.00106215
-0.000391593
-0.0207943
-0.0157231
-0.0131997
-0.00972438
-0.00667168
-0.00345513
-0.00156117
-0.00106616
-0.00159102
-0.00207817
-0.00185239
-0.000702316
0.000804586
0.00175695
0.00193216
0.00107708
6.4132e-05
-0.00115314
-0.00143474
-0.000525009
-0.01845
-0.0141705
-0.0125025
-0.00948762
-0.00637375
-0.00313493
-0.00122364
-0.000918008
-0.00172933
-0.00235598
-0.00204812
-0.000680744
0.00112234
0.00231486
0.00254137
0.00133979
-1.78898e-05
-0.0014668
-0.00181933
-0.00066271
-0.0153414
-0.0130204
-0.0114432
-0.00886392
-0.00594899
-0.00300398
-0.00124621
-0.00102711
-0.00182849
-0.00236896
-0.00195722
-0.000525595
0.00133651
0.00258502
0.00282113
0.00143806
-9.39733e-05
-0.00160885
-0.00199057
-0.000733271
-0.0120142
-0.0110313
-0.00991104
-0.00795401
-0.00549449
-0.00299989
-0.00146129
-0.00121859
-0.00184538
-0.00220394
-0.00170409
-0.000338268
0.00141081
0.00257417
0.00278869
0.00138652
-0.000157637
-0.00159136
-0.00196684
-0.000741321
-0.00953662
-0.00934914
-0.00858238
-0.0070684
-0.00505797
-0.00300797
-0.00168865
-0.00137896
-0.00177146
-0.00193567
-0.00140083
-0.000181424
0.00135149
0.00235508
0.00254
0.00124405
-0.00018798
-0.00144821
-0.00179091
-0.000696857
-0.00753699
-0.00785597
-0.00736633
-0.00620907
-0.00461356
-0.00296293
-0.0018416
-0.00147393
-0.00164596
-0.00164269
-0.00112179
-8.14746e-05
0.00120716
0.00201416
0.00218478
0.00107086
-0.00017384
-0.00122209
-0.00151244
-0.000615005
-0.00599981
-0.00658175
-0.00631393
-0.00544697
-0.00419358
-0.00286337
-0.00191008
-0.0015044
-0.00150948
-0.00139687
-0.000896613
-3.19278e-05
0.00102839
0.00166077
0.00180932
0.000905649
-0.000124337
-0.000963365
-0.00121084
-0.000514414
-0.00481305
-0.00551135
-0.00541303
-0.00477004
-0.00378664
-0.00271249
-0.0019026
-0.00148563
-0.00137715
-0.00119367
-0.00072911
-1.54738e-05
0.000846366
0.00133817
0.0014633
0.00076316
-6.11422e-05
-0.000716702
-0.000919441
-0.000410149
-0.00388779
-0.00461144
-0.0046338
-0.00416398
-0.00339391
-0.00252633
-0.00183931
-0.00143119
-0.00125287
-0.00103027
-0.000605614
-1.78325e-05
0.000679522
0.00106229
0.00116673
0.000642433
-2.95188e-06
-0.00050886
-0.000668192
-0.000313505
-0.00315852
-0.00385334
-0.00395574
-0.00361985
-0.00301863
-0.0023179
-0.0017364
-0.00135091
-0.00113532
-0.000896281
-0.000512953
-2.80694e-05
0.000534377
0.000836234
0.000922775
0.000539128
4.13964e-05
-0.000347336
-0.000469646
-0.00023272
-0.00257543
-0.00321275
-0.00336295
-0.0031296
-0.00266179
-0.00209638
-0.00160603
-0.00125185
-0.00102219
-0.000782805
-0.000441231
-4.0454e-05
0.000413181
0.00065484
0.000725888
0.000449596
6.9773e-05
-0.000229313
-0.000321904
-0.000168862
-0.00210192
-0.00266872
-0.00284194
-0.00268567
-0.00232331
-0.00186837
-0.00145722
-0.00113931
-0.000911809
-0.000683161
-0.000382753
-5.1004e-05
0.00031432
0.000510114
0.000568348
0.000371561
8.42716e-05
-0.000146311
-0.000215969
-0.000120462
-0.00171108
-0.00220313
-0.00238117
-0.00228144
-0.00200253
-0.00163839
-0.00129646
-0.0010173
-0.000803064
-0.000592514
-0.000332206
-5.80036e-05
0.000235026
0.000394872
0.000442684
0.000303726
8.83869e-05
-8.95496e-05
-0.000141894
-8.48238e-05
-0.00138289
-0.00180057
-0.00197072
-0.0019111
-0.00169832
-0.0014094
-0.00112841
-0.000888812
-0.000695227
-0.000507584
-0.000286078
-6.08698e-05
0.00017248
0.000303047
0.000342267
0.0002449
8.51411e-05
-5.18564e-05
-9.11255e-05
-5.9065e-05
-0.00110228
-0.00144824
-0.00160185
-0.00156944
-0.00140921
-0.00118313
-0.000956304
-0.000756029
-0.000587877
-0.000426215
-0.000242083
-5.95619e-05
0.000123945
0.000229606
0.000261512
0.000193851
7.68712e-05
-2.77603e-05
-5.70234e-05
-4.0659e-05
-0.000857762
-0.00113543
-0.00126682
-0.00125165
-0.00113343
-0.000960476
-0.000782304
-0.000620543
-0.000480788
-0.000346991
-0.000198793
-5.44002e-05
8.68374e-05
0.000170411
0.00019585
0.000149386
6.53403e-05
-1.32118e-05
-3.46883e-05
-2.75939e-05
-0.000640405
-0.000853179
-0.000958626
-0.000953281
-0.000869027
-0.000741703
-0.000607815
-0.000483469
-0.000373859
-0.000268977
-0.000155367
-4.58953e-05
5.87424e-05
0.000122015
0.000141488
0.000110252
5.18369e-05
-5.13203e-06
-2.04197e-05
-1.83229e-05
-0.000443298
-0.000593963
-0.000671066
-0.000670231
-0.000614047
-0.00052668
-0.000433792
-0.000345635
-0.000267149
-0.00019165
-0.000111395
-3.45561e-05
3.752e-05
8.15128e-05
9.52971e-05
7.49306e-05
3.69621e-05
-1.38822e-06
-1.13055e-05
-1.13963e-05
-0.000260155
-0.000350984
-0.000398504
-0.000398708
-0.000366745
-0.000315078
-0.00026089
-0.000207822
-0.000160879
-0.000114953
-6.7013e-05
-2.1129e-05
2.14797e-05
4.65056e-05
5.50316e-05
4.22757e-05
2.07334e-05
-1.0935e-06
-5.98062e-06
-5.47467e-06
-8.84125e-05
-0.000117857
-0.000134664
-0.000133933
-0.000123944
-0.000105676
-8.82706e-05
-6.99947e-05
-5.45136e-05
-3.86894e-05
-2.25135e-05
-7.1819e-06
8.08421e-06
1.50409e-05
1.84343e-05
1.29198e-05
4.95678e-06
-2.16503e-06
-3.47178e-06
-9.58778e-07
-0.030318
-0.0305302
-0.0267411
-0.0246479
-0.0240878
-0.0240055
-0.023993
-0.0240064
-0.0240586
-0.0240366
-0.00424514
-0.00812954
-0.0104543
-0.0122912
-0.0140503
-0.0156262
-0.0168715
-0.0177571
-0.0183131
-0.0186097
-0.00420544
-0.00741229
-0.0092975
-0.0104562
-0.0114297
-0.0123403
-0.0131325
-0.013763
-0.01423
-0.0145618
-0.00169208
-0.0034747
-0.0047575
-0.00574209
-0.00664462
-0.00751523
-0.00832095
-0.00903087
-0.009637
-0.0101478
-0.000886015
-0.00207256
-0.00309483
-0.00396417
-0.00475412
-0.0054934
-0.00617547
-0.00678925
-0.00733042
-0.00780233
-0.000685447
-0.00146863
-0.00219317
-0.00284477
-0.00344874
-0.00401902
-0.00455479
-0.00505137
-0.00550597
-0.00591948
-0.000577665
-0.00111708
-0.00163849
-0.00213094
-0.00260048
-0.00305061
-0.00347969
-0.00388451
-0.00426241
-0.00461268
-0.000504535
-0.000904911
-0.0012965
-0.00167409
-0.00203972
-0.00239376
-0.00273433
-0.00305914
-0.00336614
-0.00365478
-0.000445025
-0.000755247
-0.00105707
-0.00134964
-0.00163553
-0.0019148
-0.00218568
-0.00244631
-0.00269503
-0.00293151
-0.000389504
-0.00063475
-0.000872157
-0.00110272
-0.00132923
-0.00155178
-0.00176886
-0.00197899
-0.00218077
-0.00237415
-0.000337182
-0.000533225
-0.000722679
-0.000906887
-0.0010883
-0.00126707
-0.00144202
-0.00161204
-0.001776
-0.00193409
-0.00028884
-0.000446428
-0.000598753
-0.000747021
-0.000893201
-0.00103746
-0.00117892
-0.00131678
-0.00145012
-0.00157931
-0.000244735
-0.000371526
-0.000494196
-0.000613732
-0.000731661
-0.000848129
-0.000962488
-0.00107417
-0.00118238
-0.00128767
-0.000204644
-0.00030622
-0.000404597
-0.000500562
-0.000595281
-0.000688872
-0.000780848
-0.000870804
-0.000958073
-0.00104332
-0.000168109
-0.000248582
-0.000326589
-0.000402757
-0.000477967
-0.000552309
-0.000625413
-0.000696997
-0.000766483
-0.000834619
-0.000134542
-0.000196944
-0.000257477
-0.000316633
-0.000375073
-0.00043286
-0.000489715
-0.000545451
-0.000599552
-0.000652827
-0.000103213
-0.000149765
-0.000195023
-0.000239278
-0.000282976
-0.000326176
-0.000368688
-0.000410412
-0.000450894
-0.000490992
-7.3343e-05
-0.000105464
-0.000137073
-0.000168147
-0.000198812
-0.000229082
-0.000258851
-0.000288096
-0.000316404
-0.00034465
-4.58717e-05
-6.40221e-05
-8.19524e-05
-9.98249e-05
-0.000117656
-0.000135404
-0.000152982
-0.000170418
-0.000187388
-0.000204837
-2.34975e-05
-3.23903e-05
-3.92924e-05
-4.50735e-05
-5.08035e-05
-5.67513e-05
-6.28038e-05
-6.89451e-05
-7.48622e-05
-8.14335e-05
0.00327545
0.00331096
0.00340077
0.00353103
0.00372131
0.00395082
0.0042603
0.00460914
0.00507625
0.00557848
0.00627483
0.00698782
0.00805686
0.00907023
0.0108172
0.0121803
0.0151864
0.0157435
0.0184683
-0.00120059
0.00325029
0.00328473
0.00337108
0.00349749
0.00367995
0.00390142
0.00419531
0.00452948
0.00496583
0.00544077
0.0060721
0.00673078
0.00764486
0.00853709
0.00984278
0.0109194
0.0124222
0.0128197
0.0119677
0.0100779
0.00320083
0.00323474
0.00331635
0.00343742
0.00360934
0.0038205
0.00409404
0.0044094
0.00480661
0.00524711
0.00579925
0.00639061
0.00713028
0.00787999
0.00877119
0.00953457
0.0101213
0.0102515
0.00835532
0.00624078
0.00312853
0.00316166
0.00323763
0.003352
0.00351145
0.00370985
0.00395998
0.00425226
0.0046059
0.00500474
0.00547353
0.00598629
0.00655932
0.00715322
0.00771095
0.00820365
0.0082493
0.00809468
0.00589598
0.003704
0.00303481
0.00306666
0.00313653
0.00324301
0.00338894
0.00357232
0.00379767
0.00406322
0.00437255
0.00472422
0.00511315
0.00554101
0.00596954
0.00641426
0.0067299
0.00699647
0.00674234
0.0063461
0.00437161
0.00228844
0.0029212
0.00295125
0.00301483
0.00311251
0.00324446
0.00341116
0.00361152
0.00384801
0.0041144
0.00441654
0.00473287
0.00507714
0.00538729
0.00569793
0.00584466
0.00592595
0.00553224
0.00496595
0.00332907
0.00137517
0.00278932
0.00281712
0.00287437
0.00296272
0.00308066
0.00322977
0.0034057
0.0036123
0.00383848
0.0040917
0.00434434
0.00461106
0.00482708
0.00502333
0.00505573
0.00499732
0.00455356
0.00390151
0.00255788
0.000855346
0.00264084
0.00266606
0.0027171
0.0027959
0.00290016
0.00303145
0.00318409
0.00336133
0.00355075
0.003758
0.00395595
0.00415432
0.00429674
0.00440132
0.00435837
0.00420631
0.00375776
0.00309293
0.00198414
0.000570517
0.00247742
0.00249989
0.00254492
0.00261427
0.00270541
0.00281934
0.00295016
0.00309966
0.00325607
0.00342189
0.00357361
0.00371454
0.00380024
0.00383591
0.00374512
0.00353914
0.00310823
0.00247863
0.0015553
0.000396691
0.00230074
0.00232042
0.00235972
0.00241997
0.00249874
0.00259622
0.00270695
0.00283107
0.0029583
0.00308811
0.00320137
0.00329603
0.00333894
0.00332619
0.00320701
0.00297713
0.00257525
0.00200446
0.00122983
0.000280888
0.00211243
0.0021294
0.0021633
0.00221498
0.00228223
0.00236452
0.00245704
0.00255854
0.00266041
0.00275983
0.00284173
0.00290056
0.00291224
0.00286796
0.00273447
0.00250122
0.00213441
0.00163023
0.000978755
0.000200892
0.00191403
0.00192846
0.00195732
0.00200107
0.00205775
0.00212629
0.00220254
0.00228433
0.00236453
0.002439
0.00249591
0.00252813
0.00251809
0.00245541
0.00231801
0.00209454
0.00176605
0.0013286
0.000782173
0.000144653
0.00170703
0.0017191
0.00174333
0.00177984
0.00182694
0.00188321
0.00194514
0.00201005
0.00207208
0.00212654
0.00216413
0.00217746
0.00215349
0.00208227
0.00194875
0.00174315
0.00145457
0.00108082
0.000625582
0.00010455
0.00149277
0.0015027
0.0015227
0.00155268
0.00159117
0.00163664
0.0016861
0.00173678
0.00178383
0.00182264
0.00184583
0.00184656
0.00181497
0.00174249
0.00161861
0.00143576
0.00118754
0.000873442
0.000498297
7.54959e-05
0.00127251
0.00128052
0.00129668
0.00132079
0.00135161
0.00138763
0.00142635
0.00146516
0.00150007
0.00152692
0.00153987
0.00153301
0.00149885
0.00143046
0.00132039
0.00116315
0.000954984
0.000696485
0.000392503
5.40482e-05
0.00104739
0.00105366
0.00106635
0.00108521
0.00110919
0.00113696
0.00116647
0.00119543
0.00122066
0.00123861
0.00124474
0.00123421
0.00120142
0.00114102
0.00104773
0.000917751
0.000748914
0.000542353
0.000302433
3.78596e-05
0.000818436
0.000823149
0.000832686
0.000846805
0.000864692
0.000885228
0.000906819
0.000927609
0.000945146
0.00095664
0.000958647
0.000947485
0.00091905
0.000869441
0.000794997
0.000693193
0.000562828
0.000405131
0.000223697
2.52524e-05
0.0005866
0.000589885
0.000596533
0.000606343
0.000618721
0.000632834
0.000647533
0.000661461
0.000672875
0.000679763
0.000679713
0.000670139
0.000648237
0.000611373
0.000557153
0.000484018
0.000391336
0.000280141
0.000152944
1.48462e-05
0.000352749
0.000354698
0.000358647
0.000364456
0.000371757
0.000380034
0.000388593
0.000396606
0.000403023
0.000406629
0.000405983
0.000399545
0.000385679
0.000362861
0.000329744
0.000285497
0.00022987
0.000163579
8.801e-05
5.76017e-06
0.000117716
0.000118376
0.00011971
0.000121661
0.000124104
0.000126862
0.000129701
0.000132339
0.000134424
0.000135543
0.00013521
0.000132898
0.000128058
0.000120184
0.000108839
9.37642e-05
7.4937e-05
5.2728e-05
2.78256e-05
-5.04866e-07
0.00317468
0.00320905
0.00330299
0.00343076
0.00362861
0.00385436
0.00417952
0.00452131
0.00501929
0.00550742
0.0062669
0.00695392
0.00816096
0.00914169
0.0112312
0.0126686
0.0167996
0.0185545
0.0286492
0.0216696
0.00319506
0.00322947
0.00332427
0.0034521
0.00365178
0.00387784
0.00420665
0.00454879
0.00505404
0.00554258
0.00631762
0.00700577
0.00824957
0.00923859
0.0114289
0.0129348
0.0174104
0.0198005
0.0310222
0.0304746
0.00321311
0.00324772
0.0033429
0.00347112
0.00367174
0.00389867
0.00422934
0.00457296
0.00508201
0.00557321
0.00635672
0.00705037
0.0083157
0.00932039
0.0115756
0.0131561
0.0178729
0.020809
0.0325835
0.0363606
0.00322891
0.00326366
0.00335908
0.0034876
0.0036888
0.00391638
0.00424822
0.00459295
0.00510438
0.00559757
0.00638648
0.00708428
0.00836351
0.00937991
0.0116779
0.0133139
0.0181918
0.0215158
0.0336369
0.0400172
0.00324245
0.00327727
0.0033728
0.00350149
0.003703
0.00393091
0.00426334
0.00460862
0.00512123
0.00561545
0.00640702
0.00710695
0.00839311
0.0094156
0.0117351
0.0134003
0.018361
0.0218934
0.0341942
0.0418732
0.00325371
0.00328856
0.00338406
0.00351282
0.00371429
0.00394229
0.00427462
0.00462005
0.00513244
0.00562692
0.00641809
0.00711856
0.00840393
0.00942742
0.0117455
0.0134123
0.0183747
0.0219245
0.0342577
0.0421203
0.00326269
0.00329753
0.00339285
0.00352157
0.00372267
0.00395053
0.00428209
0.00462722
0.00513801
0.00563201
0.00641967
0.00711912
0.00839597
0.00941539
0.011709
0.0133498
0.018232
0.0216063
0.0338271
0.0407762
0.00326941
0.00330417
0.0033992
0.00352774
0.0037282
0.00395558
0.00428579
0.00463008
0.00513808
0.00563058
0.00641206
0.00710844
0.00836994
0.00937946
0.0116275
0.0132152
0.0179383
0.0209489
0.0329078
0.037699
0.00327388
0.00330849
0.00340309
0.00353134
0.00373084
0.00395748
0.00428571
0.00462871
0.00513264
0.00562281
0.00639531
0.00708668
0.00832574
0.00932135
0.0115015
0.0130161
0.0174965
0.019966
0.0315202
0.0325544
0.00327603
0.00331064
0.00340432
0.00353264
0.00373025
0.00395671
0.00428114
0.0046241
0.00512017
0.00561077
0.00636635
0.00705865
0.00825795
0.00924965
0.0113218
0.0127736
0.0168851
0.018697
0.0293189
0.0246317
)
;

boundaryField
{
    inlet
    {
        type            zeroGradient;
    }
    outlet
    {
        type            fixedValue;
        value           uniform 0;
    }
    upAndBottom
    {
        type            empty;
    }
    obstacle
    {
        type            zeroGradient;
    }
}


// ************************************************************************* //
