/*--------------------------------*- C++ -*----------------------------------*\
| =========                 |                                                 |
| \\      /  F ield         | OpenFOAM: The Open Source CFD Toolbox           |
|  \\    /   O peration     | Version:  v1806                                 |
|   \\  /    A nd           | Web:      www.OpenFOAM.com                      |
|    \\/     M anipulation  |                                                 |
\*---------------------------------------------------------------------------*/
FoamFile
{
    version     2.0;
    format      ascii;
    class       volVectorField;
    location    "80";
    object      U;
}
// * * * * * * * * * * * * * * * * * * * * * * * * * * * * * * * * * * * * * //

dimensions      [0 1 -1 0 0 0 0];


internalField   nonuniform List<vector> 
4400
(
(0.247121 0.255117 0)
(0.289631 0.175953 0)
(0.303376 0.131176 0)
(0.311147 0.103195 0)
(0.31571 0.0856128 0)
(0.317894 0.0746018 0)
(0.318622 0.067094 0)
(0.318507 0.0613923 0)
(0.317875 0.0568077 0)
(0.316908 0.0530397 0)
(0.315717 0.0499081 0)
(0.314374 0.0472854 0)
(0.312928 0.0450801 0)
(0.311414 0.0432267 0)
(0.309856 0.0416772 0)
(0.30827 0.0403959 0)
(0.306666 0.0393566 0)
(0.305053 0.038542 0)
(0.303465 0.0379278 0)
(0.302092 0.0374478 0)
(0.253717 0.133827 0)
(0.275819 0.0979421 0)
(0.290461 0.0893135 0)
(0.30198 0.0838121 0)
(0.308351 0.0770115 0)
(0.311641 0.0701772 0)
(0.313403 0.0641497 0)
(0.314211 0.0590732 0)
(0.314333 0.054838 0)
(0.313964 0.0512986 0)
(0.31325 0.048328 0)
(0.312298 0.045824 0)
(0.311179 0.0437092 0)
(0.309946 0.0419263 0)
(0.308634 0.0404332 0)
(0.307269 0.0391983 0)
(0.305866 0.0381984 0)
(0.304441 0.0374177 0)
(0.303026 0.0368333 0)
(0.3018 0.0363901 0)
(0.229036 0.102213 0)
(0.25973 0.100456 0)
(0.280408 0.0929213 0)
(0.293125 0.0828056 0)
(0.300949 0.0735588 0)
(0.305815 0.0662388 0)
(0.308748 0.0605791 0)
(0.310382 0.056047 0)
(0.311127 0.0522824 0)
(0.311256 0.0490954 0)
(0.310952 0.046379 0)
(0.310345 0.0440601 0)
(0.309523 0.0420836 0)
(0.30855 0.0404067 0)
(0.307469 0.0389964 0)
(0.306314 0.0378274 0)
(0.305105 0.0368809 0)
(0.303861 0.0361438 0)
(0.302617 0.0355959 0)
(0.301531 0.0351912 0)
(0.245709 0.0692078 0)
(0.265624 0.0702647 0)
(0.279142 0.0684412 0)
(0.289391 0.0660586 0)
(0.296855 0.0630367 0)
(0.301906 0.0595093 0)
(0.305181 0.0558651 0)
(0.307213 0.052415 0)
(0.308355 0.0492969 0)
(0.30885 0.0465404 0)
(0.308873 0.0441306 0)
(0.308556 0.0420384 0)
(0.307991 0.0402335 0)
(0.307249 0.0386888 0)
(0.30638 0.0373817 0)
(0.305418 0.0362942 0)
(0.304391 0.0354123 0)
(0.303319 0.0347265 0)
(0.302238 0.0342197 0)
(0.301289 0.0338547 0)
(0.247462 0.0526289 0)
(0.263024 0.0596911 0)
(0.276385 0.0618555 0)
(0.286521 0.0606608 0)
(0.293767 0.0578567 0)
(0.298842 0.0546275 0)
(0.302318 0.0515073 0)
(0.304609 0.0486439 0)
(0.306018 0.0460515 0)
(0.306772 0.0437202 0)
(0.307042 0.0416398 0)
(0.306955 0.0398001 0)
(0.306604 0.0381894 0)
(0.306062 0.0367954 0)
(0.305378 0.0356062 0)
(0.304593 0.0346115 0)
(0.303732 0.0338028 0)
(0.302821 0.033174 0)
(0.301892 0.0327117 0)
(0.301073 0.0323865 0)
(0.258918 0.040136 0)
(0.269648 0.0462783 0)
(0.278825 0.0491615 0)
(0.286393 0.0499602 0)
(0.292428 0.0494936 0)
(0.297009 0.0482221 0)
(0.300328 0.0464844 0)
(0.30263 0.0445463 0)
(0.304139 0.0425875 0)
(0.305038 0.0407117 0)
(0.305473 0.0389723 0)
(0.305555 0.0373942 0)
(0.305374 0.0359872 0)
(0.304997 0.0347532 0)
(0.304474 0.0336903 0)
(0.303843 0.0327953 0)
(0.303134 0.0320649 0)
(0.302369 0.0314966 0)
(0.301581 0.0310806 0)
(0.300883 0.0307944 0)
(0.264527 0.031685 0)
(0.272173 0.038269 0)
(0.279761 0.042174 0)
(0.286392 0.0438587 0)
(0.291746 0.0440202 0)
(0.295872 0.0432727 0)
(0.298944 0.0420497 0)
(0.301152 0.040612 0)
(0.302664 0.0391053 0)
(0.303626 0.0376136 0)
(0.304158 0.0361891 0)
(0.304358 0.0348647 0)
(0.304304 0.0336605 0)
(0.304059 0.0325884 0)
(0.30367 0.0316546 0)
(0.303173 0.030862 0)
(0.302597 0.0302122 0)
(0.301964 0.0297059 0)
(0.301305 0.0293366 0)
(0.300717 0.0290879 0)
(0.271833 0.025599 0)
(0.277326 0.0311056 0)
(0.282774 0.0347974 0)
(0.287716 0.0369033 0)
(0.291956 0.0378339 0)
(0.29542 0.0379285 0)
(0.298119 0.0374514 0)
(0.300131 0.0366146 0)
(0.30156 0.0355799 0)
(0.302513 0.0344613 0)
(0.303084 0.033335 0)
(0.303355 0.032251 0)
(0.303391 0.0312414 0)
(0.303248 0.0303267 0)
(0.302968 0.0295197 0)
(0.302584 0.0288288 0)
(0.302123 0.0282591 0)
(0.301607 0.0278141 0)
(0.301063 0.0274907 0)
(0.300574 0.0272773 0)
(0.27673 0.0208217 0)
(0.280678 0.0258788 0)
(0.2849 0.0295251 0)
(0.288919 0.0318339 0)
(0.292444 0.0330595 0)
(0.29537 0.0334833 0)
(0.297694 0.0333537 0)
(0.299468 0.0328642 0)
(0.300765 0.0321565 0)
(0.301661 0.0313309 0)
(0.302229 0.0304583 0)
(0.302532 0.0295888 0)
(0.302626 0.0287582 0)
(0.302557 0.0279913 0)
(0.302363 0.0273052 0)
(0.302072 0.0267118 0)
(0.30171 0.0262195 0)
(0.301296 0.0258339 0)
(0.300853 0.0255545 0)
(0.300453 0.0253736 0)
(0.281629 0.0172801 0)
(0.284503 0.0215129 0)
(0.287589 0.024763 0)
(0.290587 0.0270192 0)
(0.293309 0.0284252 0)
(0.295654 0.029154 0)
(0.297579 0.0293675 0)
(0.299092 0.0292088 0)
(0.300226 0.0287985 0)
(0.301033 0.0282323 0)
(0.301565 0.0275829 0)
(0.301871 0.026904 0)
(0.301997 0.0262345 0)
(0.301979 0.0256027 0)
(0.30185 0.0250286 0)
(0.301635 0.0245267 0)
(0.301355 0.0241073 0)
(0.301028 0.0237777 0)
(0.300674 0.0235394 0)
(0.300351 0.0233881 0)
(0.285337 0.0142823 0)
(0.287424 0.0180001 0)
(0.289746 0.0209462 0)
(0.292072 0.0230966 0)
(0.294227 0.0245328 0)
(0.296109 0.0253764 0)
(0.297677 0.0257559 0)
(0.298931 0.0257904 0)
(0.29989 0.0255807 0)
(0.300588 0.0252086 0)
(0.301063 0.0247384 0)
(0.301352 0.0242197 0)
(0.301488 0.0236902 0)
(0.301503 0.0231785 0)
(0.301422 0.0227056 0)
(0.301267 0.0222873 0)
(0.301055 0.021935 0)
(0.300801 0.0216571 0)
(0.300523 0.0214566 0)
(0.300267 0.0213318 0)
(0.288717 0.0119371 0)
(0.290224 0.0150469 0)
(0.291911 0.0176016 0)
(0.293621 0.0195529 0)
(0.295238 0.0209405 0)
(0.296684 0.0218403 0)
(0.297917 0.022339 0)
(0.298923 0.0225231 0)
(0.299707 0.0224727 0)
(0.30029 0.0222572 0)
(0.300696 0.0219341 0)
(0.300952 0.0215496 0)
(0.301085 0.0211398 0)
(0.301117 0.0207327 0)
(0.30107 0.0203493 0)
(0.300961 0.0200059 0)
(0.300803 0.0197143 0)
(0.300611 0.0194832 0)
(0.300398 0.0193169 0)
(0.300199 0.0192153 0)
(0.2914 0.00986851 0)
(0.292479 0.0125278 0)
(0.293707 0.0147479 0)
(0.294975 0.0164907 0)
(0.29619 0.0177767 0)
(0.297289 0.0186559 0)
(0.298237 0.0191919 0)
(0.299019 0.0194521 0)
(0.299638 0.0195008 0)
(0.300104 0.0193948 0)
(0.300436 0.019183 0)
(0.300652 0.0189054 0)
(0.30077 0.0185946 0)
(0.30081 0.0182763 0)
(0.300785 0.0179707 0)
(0.30071 0.017693 0)
(0.300597 0.0174553 0)
(0.300454 0.0172661 0)
(0.300294 0.0171301 0)
(0.300144 0.0170488 0)
(0.293726 0.00815303 0)
(0.294477 0.010346 0)
(0.295336 0.0122171 0)
(0.29623 0.0137236 0)
(0.297098 0.0148716 0)
(0.297895 0.0156917 0)
(0.298592 0.0162273 0)
(0.299176 0.0165271 0)
(0.299644 0.0166403 0)
(0.300002 0.0166128 0)
(0.30026 0.0164851 0)
(0.300432 0.0162918 0)
(0.30053 0.0160616 0)
(0.300569 0.0158176 0)
(0.300558 0.0155782 0)
(0.300508 0.0153576 0)
(0.300429 0.015167 0)
(0.300327 0.0150146 0)
(0.300211 0.0149053 0)
(0.3001 0.0148413 0)
(0.295581 0.00659498 0)
(0.296089 0.00840413 0)
(0.296676 0.00996148 0)
(0.297293 0.011235 0)
(0.297896 0.0122261 0)
(0.298454 0.0129543 0)
(0.298946 0.0134502 0)
(0.299362 0.01375 0)
(0.299697 0.0138917 0)
(0.299957 0.0139115 0)
(0.300147 0.0138421 0)
(0.300275 0.0137121 0)
(0.300351 0.0135455 0)
(0.300383 0.0133623 0)
(0.30038 0.0131785 0)
(0.300349 0.0130068 0)
(0.300295 0.012857 0)
(0.300225 0.0127367 0)
(0.300145 0.0126506 0)
(0.300067 0.0126012 0)
(0.297109 0.00522909 0)
(0.297431 0.00665867 0)
(0.297805 0.00790621 0)
(0.2982 0.00894144 0)
(0.298589 0.0097614 0)
(0.298952 0.0103778 0)
(0.299274 0.010811 0)
(0.299549 0.0110871 0)
(0.299774 0.011234 0)
(0.299949 0.0112792 0)
(0.300078 0.0112486 0)
(0.300166 0.0111649 0)
(0.300219 0.0110479 0)
(0.300243 0.0109139 0)
(0.300244 0.0107764 0)
(0.300225 0.0106462 0)
(0.300191 0.0105317 0)
(0.300146 0.0104392 0)
(0.300093 0.0103732 0)
(0.300042 0.0103362 0)
(0.298277 0.00395233 0)
(0.298466 0.00504617 0)
(0.298685 0.00600527 0)
(0.298918 0.00680767 0)
(0.299148 0.00745046 0)
(0.299363 0.00794084 0)
(0.299555 0.00829272 0)
(0.29972 0.00852434 0)
(0.299854 0.00865593 0)
(0.29996 0.00870789 0)
(0.300038 0.00869945 0)
(0.300092 0.00864799 0)
(0.300125 0.00856864 0)
(0.300141 0.00847421 0)
(0.300142 0.00837526 0)
(0.300132 0.00828033 0)
(0.300112 0.00819618 0)
(0.300086 0.00812798 0)
(0.300055 0.00807942 0)
(0.300023 0.00805281 0)
(0.299148 0.00277454 0)
(0.299239 0.00353976 0)
(0.299346 0.0042162 0)
(0.299459 0.00478626 0)
(0.299573 0.00524694 0)
(0.299679 0.00560231 0)
(0.299774 0.00586112 0)
(0.299857 0.00603529 0)
(0.299924 0.00613834 0)
(0.299977 0.00618418 0)
(0.300017 0.00618616 0)
(0.300044 0.00615647 0)
(0.300061 0.00610585 0)
(0.300069 0.00604347 0)
(0.30007 0.00597695 0)
(0.300065 0.00591245 0)
(0.300055 0.00585491 0)
(0.300042 0.0058081 0)
(0.300027 0.00577488 0)
(0.300011 0.00575709 0)
(0.299708 0.00164005 0)
(0.299738 0.00209791 0)
(0.299774 0.00250196 0)
(0.299813 0.00284321 0)
(0.299852 0.00312023 0)
(0.299889 0.00333519 0)
(0.299922 0.003493 0)
(0.29995 0.00360045 0)
(0.299974 0.00366539 0)
(0.299992 0.00369595 0)
(0.300005 0.00369998 0)
(0.300015 0.00368471 0)
(0.300021 0.00365654 0)
(0.300024 0.00362097 0)
(0.300024 0.00358258 0)
(0.300022 0.00354509 0)
(0.300019 0.0035115 0)
(0.300015 0.00348412 0)
(0.300009 0.00346474 0)
(0.300004 0.00345455 0)
(0.299986 0.00055113 0)
(0.299987 0.000697305 0)
(0.299989 0.000830302 0)
(0.299991 0.000943464 0)
(0.299993 0.00103564 0)
(0.299994 0.0011074 0)
(0.299996 0.00116027 0)
(0.299998 0.00119645 0)
(0.299999 0.00121849 0)
(0.3 0.00122907 0)
(0.3 0.00123077 0)
(0.300001 0.001226 0)
(0.300001 0.00121687 0)
(0.300001 0.00120523 0)
(0.300001 0.00119262 0)
(0.300001 0.00118026 0)
(0.300001 0.00116917 0)
(0.300001 0.00116013 0)
(0.3 0.00115374 0)
(0.3 0.00115041 0)
(0.0997608 -0.162306 0)
(0.0792556 -0.137533 0)
(0.0668477 -0.114541 0)
(0.0581925 -0.0939808 0)
(0.0517413 -0.0752612 0)
(0.0468397 -0.0579043 0)
(0.0431592 -0.0415876 0)
(0.0405108 -0.0260454 0)
(0.038779 -0.0110382 0)
(0.0378943 0.00365451 0)
(0.0378217 0.0182415 0)
(0.0385566 0.0329273 0)
(0.0401239 0.0479191 0)
(0.0425826 0.0634352 0)
(0.0460361 0.0797118 0)
(0.0506582 0.0970114 0)
(0.0567593 0.115658 0)
(0.0649711 0.136172 0)
(0.0768207 0.159217 0)
(0.0967994 0.183683 0)
(0.172645 -0.098267 0)
(0.158803 -0.0888993 0)
(0.146746 -0.0781554 0)
(0.136645 -0.0666797 0)
(0.128397 -0.0547401 0)
(0.121837 -0.0424733 0)
(0.116803 -0.029975 0)
(0.113156 -0.0173149 0)
(0.11079 -0.00454194 0)
(0.109636 0.00830866 0)
(0.109657 0.0212095 0)
(0.110849 0.0341363 0)
(0.113246 0.047064 0)
(0.116919 0.0599625 0)
(0.121987 0.0727895 0)
(0.128629 0.0854752 0)
(0.137108 0.0979253 0)
(0.147816 0.110139 0)
(0.161362 0.122293 0)
(0.17869 0.13282 0)
(0.191095 -0.0619728 0)
(0.186042 -0.0564087 0)
(0.181519 -0.0499581 0)
(0.17753 -0.042772 0)
(0.174094 -0.0350001 0)
(0.171234 -0.0267694 0)
(0.168976 -0.018186 0)
(0.167343 -0.00933904 0)
(0.166351 -0.000305033 0)
(0.166014 0.00884888 0)
(0.166341 0.0180614 0)
(0.16734 0.0272735 0)
(0.169015 0.0364258 0)
(0.171368 0.0454541 0)
(0.174401 0.0542855 0)
(0.178116 0.0628316 0)
(0.182519 0.070988 0)
(0.187635 0.0786508 0)
(0.193566 0.0856815 0)
(0.200593 0.0915251 0)
(0.21903 -0.0375731 0)
(0.215447 -0.0333917 0)
(0.212128 -0.0288841 0)
(0.209151 -0.024082 0)
(0.206571 -0.0190198 0)
(0.204426 -0.0137339 0)
(0.202745 -0.00826271 0)
(0.201546 -0.00264596 0)
(0.200843 0.00307529 0)
(0.200646 0.00885909 0)
(0.20096 0.0146627 0)
(0.201792 0.0204429 0)
(0.203145 0.0261558 0)
(0.205019 0.0317567 0)
(0.207415 0.0372 0)
(0.210331 0.0424382 0)
(0.213765 0.047426 0)
(0.217713 0.0521316 0)
(0.222178 0.0565138 0)
(0.227177 0.0603249 0)
(0.232671 -0.0263293 0)
(0.230909 -0.0232193 0)
(0.229327 -0.0198866 0)
(0.227939 -0.0163495 0)
(0.22676 -0.012631 0)
(0.225804 -0.00875727 0)
(0.225083 -0.00475622 0)
(0.224609 -0.000657014 0)
(0.224388 0.00351047 0)
(0.224427 0.00771582 0)
(0.224731 0.0119282 0)
(0.225298 0.0161165 0)
(0.226128 0.0202489 0)
(0.227216 0.0242933 0)
(0.228554 0.0282169 0)
(0.230133 0.0319859 0)
(0.231941 0.0355665 0)
(0.233967 0.038927 0)
(0.236202 0.0420338 0)
(0.238643 0.0448191 0)
(0.247998 -0.0179663 0)
(0.246768 -0.0155047 0)
(0.245651 -0.0129416 0)
(0.244664 -0.0102867 0)
(0.243822 -0.00755072 0)
(0.24314 -0.00474558 0)
(0.242628 -0.0018842 0)
(0.242294 0.00101957 0)
(0.242145 0.0039511 0)
(0.242186 0.00689514 0)
(0.24242 0.00983605 0)
(0.242847 0.0127579 0)
(0.243465 0.015645 0)
(0.244271 0.0184814 0)
(0.24526 0.021252 0)
(0.246424 0.0239417 0)
(0.247755 0.0265371 0)
(0.249241 0.0290293 0)
(0.25087 0.031409 0)
(0.252631 0.0336256 0)
(0.25724 -0.0132759 0)
(0.256529 -0.0113569 0)
(0.255903 -0.00936762 0)
(0.255367 -0.0073145 0)
(0.254924 -0.00520504 0)
(0.254581 -0.00304773 0)
(0.25434 -0.000851882 0)
(0.254204 0.00137251 0)
(0.254175 0.00361495 0)
(0.254254 0.00586454 0)
(0.254443 0.00811013 0)
(0.25474 0.0103404 0)
(0.255145 0.0125441 0)
(0.255655 0.0147101 0)
(0.256267 0.0168272 0)
(0.256977 0.0188848 0)
(0.257781 0.0208728 0)
(0.258675 0.0227822 0)
(0.259654 0.0246051 0)
(0.260716 0.0263288 0)
(0.266496 -0.00983352 0)
(0.266001 -0.00827475 0)
(0.265563 -0.00667866 0)
(0.265186 -0.00504955 0)
(0.264875 -0.00339206 0)
(0.264634 -0.00171114 0)
(0.264465 -1.20198e-05 0)
(0.264371 0.00169985 0)
(0.264355 0.00341881 0)
(0.264417 0.00513909 0)
(0.264557 0.00685479 0)
(0.264777 0.00856006 0)
(0.265074 0.010249 0)
(0.265448 0.011916 0)
(0.265895 0.0135555 0)
(0.266413 0.0151619 0)
(0.266999 0.0167306 0)
(0.267647 0.018258 0)
(0.268355 0.0197409 0)
(0.269116 0.0211624 0)
(0.272817 -0.0075727 0)
(0.2725 -0.00631803 0)
(0.272227 -0.00503731 0)
(0.271997 -0.00373347 0)
(0.271813 -0.00240975 0)
(0.271677 -0.00106966 0)
(0.271588 0.000283049 0)
(0.271549 0.00164444 0)
(0.27156 0.00301042 0)
(0.271621 0.00437677 0)
(0.271732 0.00573921 0)
(0.271893 0.00709346 0)
(0.272103 0.00843525 0)
(0.272361 0.00976037 0)
(0.272667 0.0110647 0)
(0.273019 0.0123444 0)
(0.273416 0.0135957 0)
(0.273855 0.0148153 0)
(0.274336 0.0160008 0)
(0.274857 0.0171474 0)
(0.278779 -0.00590214 0)
(0.278559 -0.00486489 0)
(0.278368 -0.00381195 0)
(0.278207 -0.00274542 0)
(0.278079 -0.0016675 0)
(0.277985 -0.000580495 0)
(0.277924 0.000513232 0)
(0.277899 0.00161124 0)
(0.277909 0.00271104 0)
(0.277955 0.0038101 0)
(0.278038 0.00490591 0)
(0.278156 0.00599592 0)
(0.278309 0.00707765 0)
(0.278498 0.00814862 0)
(0.27872 0.00920643 0)
(0.278975 0.0102487 0)
(0.279262 0.0112733 0)
(0.279578 0.0122786 0)
(0.279924 0.0132631 0)
(0.280296 0.0142197 0)
(0.283183 -0.00467612 0)
(0.283034 -0.00382561 0)
(0.282907 -0.00296404 0)
(0.282803 -0.00209289 0)
(0.282721 -0.00121374 0)
(0.282664 -0.000328244 0)
(0.28263 0.00056188 0)
(0.282621 0.00145485 0)
(0.282636 0.00234883 0)
(0.282675 0.00324197 0)
(0.28274 0.00413239 0)
(0.282828 0.00501823 0)
(0.282941 0.00589763 0)
(0.283078 0.00676876 0)
(0.283238 0.00762984 0)
(0.283421 0.00847913 0)
(0.283627 0.00931497 0)
(0.283854 0.010136 0)
(0.284102 0.0109411 0)
(0.284371 0.0117278 0)
(0.287173 -0.00374041 0)
(0.28707 -0.00303313 0)
(0.286983 -0.00231856 0)
(0.286911 -0.00159779 0)
(0.286855 -0.000871947 0)
(0.286815 -0.000142192 0)
(0.286793 0.000590286 0)
(0.286787 0.00132428 0)
(0.286799 0.00205855 0)
(0.286829 0.00279187 0)
(0.286876 0.00352301 0)
(0.28694 0.00425072 0)
(0.287021 0.00497379 0)
(0.287119 0.005691 0)
(0.287233 0.00640117 0)
(0.287364 0.00710311 0)
(0.28751 0.00779571 0)
(0.287671 0.00847818 0)
(0.287847 0.00914978 0)
(0.288037 0.00980712 0)
(0.290249 -0.00299892 0)
(0.290179 -0.00241754 0)
(0.290119 -0.00183096 0)
(0.290072 -0.00123997 0)
(0.290035 -0.000645401 0)
(0.290011 -4.81085e-05 0)
(0.289998 0.000551031 0)
(0.289997 0.00115112 0)
(0.290009 0.00175125 0)
(0.290032 0.00235051 0)
(0.290067 0.00294796 0)
(0.290115 0.00354269 0)
(0.290174 0.00413379 0)
(0.290245 0.00472035 0)
(0.290328 0.0053015 0)
(0.290422 0.00587636 0)
(0.290527 0.00644409 0)
(0.290644 0.00700401 0)
(0.29077 0.00755561 0)
(0.290907 0.00809748 0)
(0.292937 -0.00240465 0)
(0.29289 -0.00192629 0)
(0.29285 -0.0014443 0)
(0.292818 -0.000959287 0)
(0.292794 -0.000471855 0)
(0.292777 1.73685e-05 0)
(0.292769 0.00050775 0)
(0.292769 0.000998645 0)
(0.292777 0.0014894 0)
(0.292794 0.00197938 0)
(0.292818 0.0024679 0)
(0.292851 0.00295434 0)
(0.292892 0.00343803 0)
(0.292941 0.00391834 0)
(0.292997 0.00439464 0)
(0.293062 0.00486629 0)
(0.293133 0.0053327 0)
(0.293213 0.00579342 0)
(0.293299 0.0062481 0)
(0.293392 0.00669501 0)
(0.295027 -0.00190509 0)
(0.294996 -0.00151966 0)
(0.29497 -0.00113164 0)
(0.29495 -0.000741464 0)
(0.294934 -0.00034958 0)
(0.294924 4.35466e-05 0)
(0.29492 0.000437447 0)
(0.294921 0.000831645 0)
(0.294927 0.00122566 0)
(0.294939 0.001619 0)
(0.294957 0.00201119 0)
(0.29498 0.00240175 0)
(0.295008 0.00279018 0)
(0.295042 0.00317603 0)
(0.295081 0.00355881 0)
(0.295125 0.00393806 0)
(0.295174 0.00431334 0)
(0.295228 0.00468428 0)
(0.295287 0.00505068 0)
(0.295351 0.00541164 0)
(0.296767 -0.00148134 0)
(0.296748 -0.00117658 0)
(0.296732 -0.000869984 0)
(0.29672 -0.000561883 0)
(0.29671 -0.000252605 0)
(0.296704 5.75119e-05 0)
(0.296701 0.000368126 0)
(0.296702 0.00067889 0)
(0.296706 0.000989459 0)
(0.296714 0.00129948 0)
(0.296724 0.00160861 0)
(0.296739 0.00191649 0)
(0.296756 0.00222279 0)
(0.296777 0.00252715 0)
(0.296801 0.00282924 0)
(0.296828 0.00312871 0)
(0.296859 0.00342524 0)
(0.296892 0.00371861 0)
(0.296928 0.00400867 0)
(0.296968 0.00429444 0)
(0.298071 -0.00110568 0)
(0.29806 -0.000875869 0)
(0.298051 -0.00064479 0)
(0.298044 -0.000412671 0)
(0.298039 -0.000179747 0)
(0.298035 5.37423e-05 0)
(0.298034 0.000287553 0)
(0.298035 0.00052144 0)
(0.298037 0.000755154 0)
(0.298042 0.000988449 0)
(0.298049 0.00122108 0)
(0.298057 0.00145279 0)
(0.298068 0.00168334 0)
(0.29808 0.00191248 0)
(0.298094 0.00213998 0)
(0.298111 0.00236559 0)
(0.298128 0.00258907 0)
(0.298148 0.00281027 0)
(0.29817 0.00302911 0)
(0.298193 0.00324499 0)
(0.299053 -0.000767556 0)
(0.299048 -0.000606398 0)
(0.299044 -0.000444404 0)
(0.29904 -0.00028173 0)
(0.299038 -0.000118535 0)
(0.299036 4.50188e-05 0)
(0.299035 0.000208768 0)
(0.299036 0.000372548 0)
(0.299037 0.000536193 0)
(0.299039 0.000699537 0)
(0.299042 0.000862414 0)
(0.299046 0.00102466 0)
(0.299051 0.00118611 0)
(0.299057 0.00134659 0)
(0.299063 0.00150596 0)
(0.299071 0.00166403 0)
(0.299079 0.00182065 0)
(0.299088 0.00197571 0)
(0.299098 0.00212919 0)
(0.299109 0.00228048 0)
(0.299685 -0.000451393 0)
(0.299683 -0.000356241 0)
(0.299681 -0.000260617 0)
(0.29968 -0.000164611 0)
(0.299679 -6.83165e-05 0)
(0.299679 2.81744e-05 0)
(0.299679 0.000124767 0)
(0.299679 0.000221365 0)
(0.299679 0.000317872 0)
(0.29968 0.000414193 0)
(0.299681 0.000510231 0)
(0.299682 0.00060589 0)
(0.299683 0.000701076 0)
(0.299685 0.000795693 0)
(0.299687 0.000889651 0)
(0.299689 0.000982851 0)
(0.299692 0.00107519 0)
(0.299694 0.00116662 0)
(0.299696 0.00125718 0)
(0.299699 0.0013467 0)
(0.299991 -0.000149582 0)
(0.299991 -0.000117801 0)
(0.299991 -8.586e-05 0)
(0.299991 -5.37878e-05 0)
(0.299991 -2.16125e-05 0)
(0.299991 1.06373e-05 0)
(0.29999 4.29328e-05 0)
(0.29999 7.52454e-05 0)
(0.29999 0.000107547 0)
(0.29999 0.00013981 0)
(0.29999 0.000172007 0)
(0.29999 0.000204113 0)
(0.29999 0.000236104 0)
(0.29999 0.000267959 0)
(0.29999 0.000299656 0)
(0.29999 0.000331174 0)
(0.299989 0.0003625 0)
(0.299989 0.000393699 0)
(0.299989 0.000424889 0)
(0.299988 0.000455555 0)
(0.289734 -0.0981827 0)
(0.288542 -0.101793 0)
(0.287508 -0.105886 0)
(0.286713 -0.110593 0)
(0.28624 -0.11599 0)
(0.286139 -0.122117 0)
(0.286403 -0.128984 0)
(0.28694 -0.136556 0)
(0.287545 -0.14474 0)
(0.287885 -0.153375 0)
(0.287499 -0.162228 0)
(0.285806 -0.170998 0)
(0.28214 -0.179318 0)
(0.275781 -0.186772 0)
(0.266001 -0.192887 0)
(0.252092 -0.19716 0)
(0.233398 -0.199185 0)
(0.209327 -0.198773 0)
(0.179338 -0.195313 0)
(0.142902 -0.185408 0)
(0.283118 -0.0723857 0)
(0.280794 -0.0730996 0)
(0.278092 -0.0738728 0)
(0.275025 -0.0746733 0)
(0.271613 -0.0755613 0)
(0.267897 -0.0766127 0)
(0.26394 -0.0779087 0)
(0.259827 -0.0795342 0)
(0.25566 -0.0815689 0)
(0.251536 -0.0840733 0)
(0.247525 -0.0870734 0)
(0.243636 -0.0905433 0)
(0.239789 -0.0943891 0)
(0.23579 -0.0984351 0)
(0.231324 -0.102416 0)
(0.225986 -0.105975 0)
(0.219316 -0.108667 0)
(0.210852 -0.109931 0)
(0.200183 -0.109038 0)
(0.187173 -0.105212 0)
(0.279734 -0.0761662 0)
(0.278332 -0.0772288 0)
(0.276767 -0.0782277 0)
(0.274999 -0.0791625 0)
(0.272976 -0.0799949 0)
(0.270636 -0.0806882 0)
(0.267911 -0.0812114 0)
(0.264739 -0.0815402 0)
(0.261066 -0.0816586 0)
(0.256858 -0.0815611 0)
(0.252106 -0.0812517 0)
(0.246833 -0.0807414 0)
(0.241093 -0.0800424 0)
(0.234973 -0.0791587 0)
(0.228581 -0.078075 0)
(0.222039 -0.0767463 0)
(0.215467 -0.0750868 0)
(0.208975 -0.0729603 0)
(0.202666 -0.0701824 0)
(0.19666 -0.0665608 0)
(0.273954 -0.0569759 0)
(0.271931 -0.0572568 0)
(0.26985 -0.0575598 0)
(0.26772 -0.0578571 0)
(0.265548 -0.0581439 0)
(0.263345 -0.058409 0)
(0.261117 -0.0586323 0)
(0.258862 -0.0587864 0)
(0.256574 -0.0588374 0)
(0.254236 -0.0587458 0)
(0.251821 -0.0584675 0)
(0.249299 -0.0579571 0)
(0.246635 -0.0571699 0)
(0.243794 -0.0560649 0)
(0.24075 -0.0546075 0)
(0.23749 -0.0527711 0)
(0.23402 -0.0505373 0)
(0.23037 -0.0478962 0)
(0.226597 -0.0448471 0)
(0.222782 -0.0413998 0)
(0.276314 -0.0521523 0)
(0.274856 -0.0519091 0)
(0.273274 -0.0515813 0)
(0.271568 -0.0511717 0)
(0.269735 -0.050675 0)
(0.267776 -0.0500873 0)
(0.265692 -0.0494061 0)
(0.263489 -0.0486297 0)
(0.261178 -0.0477559 0)
(0.258772 -0.046782 0)
(0.256292 -0.0457032 0)
(0.253759 -0.0445125 0)
(0.251199 -0.0431995 0)
(0.248637 -0.0417508 0)
(0.2461 -0.0401497 0)
(0.243613 -0.0383772 0)
(0.241199 -0.0364136 0)
(0.238878 -0.0342398 0)
(0.236672 -0.0318402 0)
(0.234598 -0.0292045 0)
(0.276235 -0.0419436 0)
(0.27495 -0.0416354 0)
(0.27365 -0.0412808 0)
(0.272335 -0.0408712 0)
(0.271006 -0.040398 0)
(0.269661 -0.0398523 0)
(0.268301 -0.0392244 0)
(0.266924 -0.0385048 0)
(0.265527 -0.037684 0)
(0.26411 -0.0367529 0)
(0.26267 -0.0357034 0)
(0.261208 -0.0345287 0)
(0.259724 -0.0332233 0)
(0.258221 -0.0317834 0)
(0.256706 -0.0302071 0)
(0.255185 -0.0284938 0)
(0.253671 -0.026645 0)
(0.252178 -0.0246632 0)
(0.250723 -0.0225525 0)
(0.249323 -0.0203181 0)
(0.279149 -0.0360146 0)
(0.278131 -0.0354743 0)
(0.277076 -0.0348805 0)
(0.275984 -0.0342338 0)
(0.274858 -0.0335326 0)
(0.273703 -0.0327754 0)
(0.272523 -0.0319607 0)
(0.271323 -0.0310868 0)
(0.27011 -0.0301518 0)
(0.26889 -0.0291535 0)
(0.267672 -0.0280895 0)
(0.266461 -0.0269569 0)
(0.265268 -0.0257529 0)
(0.264099 -0.0244745 0)
(0.262964 -0.0231188 0)
(0.261868 -0.0216834 0)
(0.26082 -0.0201663 0)
(0.259827 -0.0185665 0)
(0.258895 -0.0168838 0)
(0.258031 -0.0151194 0)
(0.281361 -0.0299908 0)
(0.280579 -0.0294747 0)
(0.279792 -0.0289158 0)
(0.279 -0.0283143 0)
(0.278204 -0.027667 0)
(0.277407 -0.0269711 0)
(0.276608 -0.0262238 0)
(0.275809 -0.025423 0)
(0.275011 -0.0245668 0)
(0.274215 -0.0236535 0)
(0.273425 -0.0226819 0)
(0.272641 -0.0216514 0)
(0.271867 -0.0205615 0)
(0.271105 -0.0194127 0)
(0.27036 -0.0182055 0)
(0.269636 -0.0169412 0)
(0.268937 -0.0156213 0)
(0.268268 -0.0142479 0)
(0.267635 -0.0128235 0)
(0.267042 -0.011351 0)
(0.284157 -0.0253583 0)
(0.283535 -0.0248061 0)
(0.282906 -0.0242199 0)
(0.28227 -0.0236005 0)
(0.281629 -0.0229471 0)
(0.280985 -0.022259 0)
(0.28034 -0.0215357 0)
(0.279696 -0.0207767 0)
(0.279058 -0.0199816 0)
(0.278426 -0.0191499 0)
(0.277805 -0.0182811 0)
(0.277197 -0.0173751 0)
(0.276606 -0.0164315 0)
(0.276034 -0.0154504 0)
(0.275485 -0.0144318 0)
(0.274961 -0.0133761 0)
(0.274465 -0.0122839 0)
(0.274 -0.011156 0)
(0.273569 -0.00999378 0)
(0.273174 -0.0087987 0)
(0.286693 -0.0213848 0)
(0.286233 -0.0208783 0)
(0.285773 -0.0203435 0)
(0.285314 -0.0197819 0)
(0.284856 -0.0191926 0)
(0.284401 -0.0185749 0)
(0.28395 -0.017928 0)
(0.283503 -0.0172517 0)
(0.283063 -0.0165457 0)
(0.282629 -0.0158101 0)
(0.282204 -0.0150447 0)
(0.281789 -0.01425 0)
(0.281385 -0.0134264 0)
(0.280995 -0.0125743 0)
(0.280619 -0.0116947 0)
(0.28026 -0.0107885 0)
(0.27992 -0.00985668 0)
(0.279599 -0.00890066 0)
(0.279301 -0.00792182 0)
(0.279027 -0.00692174 0)
(0.28912 -0.0180124 0)
(0.288763 -0.0175372 0)
(0.288406 -0.0170407 0)
(0.28805 -0.0165238 0)
(0.287695 -0.0159864 0)
(0.287343 -0.015428 0)
(0.286995 -0.0148488 0)
(0.286651 -0.0142487 0)
(0.286313 -0.0136278 0)
(0.285982 -0.0129862 0)
(0.28566 -0.0123242 0)
(0.285348 -0.0116419 0)
(0.285047 -0.0109397 0)
(0.284758 -0.010218 0)
(0.284483 -0.00947738 0)
(0.284223 -0.00871833 0)
(0.283978 -0.00794161 0)
(0.283751 -0.00714804 0)
(0.283542 -0.00633855 0)
(0.283352 -0.00551419 0)
(0.291329 -0.015179 0)
(0.291071 -0.0147568 0)
(0.290815 -0.0143171 0)
(0.290561 -0.0138612 0)
(0.290309 -0.013389 0)
(0.29006 -0.0129001 0)
(0.289815 -0.0123946 0)
(0.289575 -0.0118726 0)
(0.289339 -0.0113342 0)
(0.289109 -0.0107796 0)
(0.288886 -0.0102091 0)
(0.28867 -0.00962306 0)
(0.288462 -0.00902186 0)
(0.288262 -0.008406 0)
(0.288072 -0.00777605 0)
(0.287892 -0.00713264 0)
(0.287724 -0.00647647 0)
(0.287567 -0.0058083 0)
(0.287422 -0.00512897 0)
(0.287291 -0.00443936 0)
(0.293276 -0.0126713 0)
(0.293084 -0.012298 0)
(0.292893 -0.0119117 0)
(0.292703 -0.011513 0)
(0.292516 -0.011102 0)
(0.292332 -0.0106785 0)
(0.292151 -0.0102428 0)
(0.291973 -0.00979481 0)
(0.2918 -0.00933487 0)
(0.291631 -0.00886317 0)
(0.291468 -0.00837994 0)
(0.291311 -0.00788549 0)
(0.29116 -0.00738013 0)
(0.291016 -0.00686425 0)
(0.29088 -0.00633826 0)
(0.290752 -0.00580262 0)
(0.290632 -0.00525784 0)
(0.290522 -0.00470446 0)
(0.290421 -0.00414308 0)
(0.29033 -0.00357434 0)
(0.294992 -0.0105119 0)
(0.294859 -0.0101921 0)
(0.294728 -0.00986155 0)
(0.294598 -0.00952144 0)
(0.29447 -0.00917165 0)
(0.294344 -0.00881212 0)
(0.29422 -0.00844298 0)
(0.2941 -0.00806438 0)
(0.293982 -0.00767649 0)
(0.293868 -0.00727953 0)
(0.293758 -0.00687372 0)
(0.293652 -0.00645935 0)
(0.29355 -0.00603671 0)
(0.293453 -0.00560614 0)
(0.293361 -0.00516801 0)
(0.293275 -0.00472271 0)
(0.293195 -0.00427067 0)
(0.29312 -0.00381235 0)
(0.293052 -0.00334823 0)
(0.292991 -0.00287882 0)
(0.296433 -0.00854693 0)
(0.296341 -0.00827822 0)
(0.296249 -0.00800162 0)
(0.296159 -0.00771778 0)
(0.29607 -0.00742664 0)
(0.295983 -0.0071282 0)
(0.295898 -0.00682259 0)
(0.295815 -0.00650996 0)
(0.295734 -0.00619046 0)
(0.295656 -0.00586427 0)
(0.29558 -0.00553158 0)
(0.295508 -0.00519262 0)
(0.295439 -0.00484761 0)
(0.295373 -0.00449682 0)
(0.295311 -0.00414051 0)
(0.295252 -0.003779 0)
(0.295198 -0.0034126 0)
(0.295149 -0.00304164 0)
(0.295103 -0.00266648 0)
(0.295063 -0.0022875 0)
(0.297639 -0.00678988 0)
(0.297581 -0.00657227 0)
(0.297524 -0.00634845 0)
(0.297467 -0.00611917 0)
(0.297412 -0.00588437 0)
(0.297358 -0.00564405 0)
(0.297305 -0.00539829 0)
(0.297254 -0.00514724 0)
(0.297204 -0.00489101 0)
(0.297155 -0.00462976 0)
(0.297109 -0.00436365 0)
(0.297064 -0.00409286 0)
(0.297021 -0.00381758 0)
(0.296981 -0.00353801 0)
(0.296942 -0.00325437 0)
(0.296906 -0.00296691 0)
(0.296873 -0.00267587 0)
(0.296842 -0.00238151 0)
(0.296814 -0.00208411 0)
(0.296789 -0.00178395 0)
(0.298584 -0.00514649 0)
(0.29855 -0.00497852 0)
(0.298516 -0.00480611 0)
(0.298482 -0.0046298 0)
(0.29845 -0.00444951 0)
(0.298418 -0.00426526 0)
(0.298386 -0.00407712 0)
(0.298356 -0.0038852 0)
(0.298326 -0.00368961 0)
(0.298298 -0.00349044 0)
(0.29827 -0.00328783 0)
(0.298244 -0.0030819 0)
(0.298219 -0.00287279 0)
(0.298195 -0.00266066 0)
(0.298173 -0.00244567 0)
(0.298152 -0.00222798 0)
(0.298132 -0.00200778 0)
(0.298114 -0.00178524 0)
(0.298098 -0.00156058 0)
(0.298084 -0.00133398 0)
(0.299296 -0.00361585 0)
(0.299279 -0.00349684 0)
(0.299263 -0.00337462 0)
(0.299248 -0.00324972 0)
(0.299232 -0.00312211 0)
(0.299217 -0.00299176 0)
(0.299202 -0.00285876 0)
(0.299188 -0.00272317 0)
(0.299174 -0.00258507 0)
(0.299161 -0.00244453 0)
(0.299148 -0.00230166 0)
(0.299135 -0.00215653 0)
(0.299123 -0.00200925 0)
(0.299112 -0.00185992 0)
(0.299101 -0.00170866 0)
(0.299091 -0.00155559 0)
(0.299082 -0.00140083 0)
(0.299074 -0.0012445 0)
(0.299066 -0.00108676 0)
(0.299059 -0.000927726 0)
(0.299763 -0.00213969 0)
(0.299758 -0.00206862 0)
(0.299753 -0.00199585 0)
(0.299748 -0.00192156 0)
(0.299744 -0.00184568 0)
(0.299739 -0.00176821 0)
(0.299734 -0.00168921 0)
(0.299729 -0.00160871 0)
(0.299725 -0.00152676 0)
(0.29972 -0.00144341 0)
(0.299716 -0.00135872 0)
(0.299712 -0.00127273 0)
(0.299708 -0.0011855 0)
(0.299704 -0.0010971 0)
(0.299701 -0.0010076 0)
(0.299697 -0.000917051 0)
(0.299694 -0.00082554 0)
(0.299691 -0.000733139 0)
(0.299689 -0.000639927 0)
(0.299687 -0.000545983 0)
(0.299991 -0.000717079 0)
(0.299991 -0.000692772 0)
(0.299991 -0.000667732 0)
(0.299991 -0.000642402 0)
(0.299991 -0.00061668 0)
(0.299991 -0.000590503 0)
(0.299991 -0.000563867 0)
(0.299991 -0.00053678 0)
(0.299991 -0.00050925 0)
(0.299991 -0.000481284 0)
(0.299991 -0.000452895 0)
(0.299991 -0.000424095 0)
(0.299991 -0.000394902 0)
(0.299991 -0.000365331 0)
(0.299991 -0.000335404 0)
(0.299991 -0.000305139 0)
(0.299991 -0.00027456 0)
(0.299991 -0.00024369 0)
(0.299991 -0.000212553 0)
(0.299991 -0.000181175 0)
(0.0603329 -0.0640709 0)
(0.0438729 -0.0510964 0)
(0.0327521 -0.0399058 0)
(0.024809 -0.0310798 0)
(0.0189014 -0.0239984 0)
(0.014384 -0.0182352 0)
(0.0108619 -0.0135596 0)
(0.00807812 -0.00980298 0)
(0.00585751 -0.0068221 0)
(0.00407661 -0.00449635 0)
(0.00264607 -0.00272461 0)
(0.00150038 -0.0014207 0)
(0.000591798 -0.000509596 0)
(-0.000113317 7.55228e-05 0)
(-0.0006363 0.000396701 0)
(-0.000986595 0.000513038 0)
(-0.00116163 0.000476224 0)
(-0.0011479 0.000337631 0)
(-0.000917074 0.000163999 0)
(-0.000419868 3.89902e-05 0)
(0.0908667 -0.0541008 0)
(0.0769369 -0.0486953 0)
(0.065039 -0.0427758 0)
(0.0548311 -0.0370861 0)
(0.0460302 -0.0317556 0)
(0.0384194 -0.026835 0)