x,y,z,U_0,U_1,U_2
0,0,0,0.3,-0.00087164,0
0,0.1,0,0.3,-0.000522984,0
0,0.2,0,0.3,-0.000174328,0
0,0.3,0,0.3,0,0
0,0.4,0,0.3,0,0
0,0.5,0,0.3,0,0
0,0.6,0,0.3,0,0
0,0.7,0,0.3,0,0
0,0.8,0,0.3,0,0
0,0.9,0,0.3,0,0
0,1,0,0.3,0,0
0,1.1,0,0.3,0,0
0,1.2,0,0.3,0,0
0,1.3,0,0.3,0,0
0,1.4,0,0.3,0,0
0,1.5,0,0.3,0,0
0,1.6,0,0.3,0,0
0,1.7,0,0.3,0,0
0,1.8,0,0.3,0,0
0,1.9,0,0.3,0,0
0,2,0,0.3,0,0
0,2.1,0,0.3,0,0
0,2.2,0,0.3,0,0
0,2.3,0,0.3,0,0
0,2.4,0,0.3,0,0
0,2.5,0,0.3,0,0
0,2.6,0,0.3,0,0
0,2.7,0,0.3,0,0
0,2.8,0,0.3,0,0
0,2.9,0,0.3,0,0
0,3,0,0.3,0,0
0,3.1,0,0.3,0,0
0,3.2,0,0.3,0,0
0,3.3,0,0.3,0,0
0,3.4,0,0.3,0,0
0,3.5,0,0.3,0,0
0,3.6,0,0.3,0,0
0,3.7,0,0.3,0,0
0,3.8,0,0.3,0,0
0,3.9,0,0.3,0,0
0,4,0,0.3,0,0
0,4.1,0,0.3,0,0
0,4.2,0,0.3,0,0
0,4.3,0,0.3,0,0
0,4.4,0,0.3,0,0
0,4.5,0,0.3,0,0
0,4.6,0,0.3,0,0
0,4.7,0,0.3,0,0
0,4.8,0,0.3,0,0
0,4.9,0,0.3,0,0
0,5,0,0.3,0,0
0,5.1,0,0.3,0,0
0,5.2,0,0.3,0,0
0,5.3,0,0.3,0,0
0,5.4,0,0.3,0,0
0,5.5,0,0.3,0,0
0,5.6,0,0.3,0,0
0,5.7,0,0.3,0,0
0,5.8,0,0.3,0,0
0,5.9,0,0.3,0,0
0,6,0,0.3,0,0
0,6.1,0,0.3,0,0
0,6.2,0,0.3,0,0
0,6.3,0,0.3,0,0
0,6.4,0,0.3,0,0
0,6.5,0,0.3,0,0
0,6.6,0,0.3,0,0
0,6.7,0,0.3,0,0
0,6.8,0,0.3,0,0
0,6.9,0,0.3,0,0
0,7,0,0.3,0,0
0,7.1,0,0.3,0,0
0,7.2,0,0.3,0,0
0,7.3,0,0.3,0,0
0,7.4,0,0.3,0,0
0,7.5,0,0.3,0,0
0,7.6,0,0.3,0,0
0,7.7,0,0.3,0,0
0,7.8,0,0.3,0,0
0,7.9,0,0.3,0,0
0,8,0,0.3,0,0
0,8.1,0,0.3,0,0
0,8.2,0,0.3,0,0
0,8.3,0,0.3,0,0
0,8.4,0,0.3,0,0
0,8.5,0,0.3,0,0
0,8.6,0,0.3,0,0
0,8.7,0,0.3,0,0
0,8.8,0,0.3,0,0
0,8.9,0,0.3,0,0
0,9,0,0.3,0,0
0,9.1,0,0.3,0,0
0,9.2,0,0.3,0,0
0,9.3,0,0.3,0,0
0,9.4,0,0.3,0,0
0,9.5,0,0.3,0,0
0,9.6,0,0.3,0,0
0,9.7,0,0.3,0,0
0,9.8,0,0.3,0,0
0,9.9,0,0.3,0,0
0,10,0,0.3,0,0
0,10.1,0,0.3,0,0
0,10.2,0,0.3,0,0
0,10.3,0,0.3,0,0
0,10.4,0,0.3,0,0
0,10.5,0,0.3,0,0
0,10.6,0,0.3,0,0
0,10.7,0,0.3,0,0
0,10.8,0,0.3,0,0
0,10.9,0,0.3,0,0
0,11,0,0.3,0,0
0,11.1,0,0.3,0,0
0,11.2,0,0.3,0,0
0,11.3,0,0.3,0,0
0,11.4,0,0.3,0,0
0,11.5,0,0.3,0,0
0,11.6,0,0.3,0,0
0,11.7,0,0.3,0,0
0,11.8,0,0.3,0,0
0,11.9,0,0.3,0,0
0,12,0,0.3,0,0
0,12.1,0,0.3,0,0
0,12.2,0,0.3,0,0
0,12.3,0,0.3,0,0
0,12.4,0,0.3,0,0
0,12.5,0,0.3,0.000216129,0
0,12.6,0,0.3,0.000470397,0
0,12.7,0,0.3,0.000724666,0
0.1,0,0,0.300001,-0.00191682,0
0.1,0.1,0,0.3,-0.00156895,0
0.1,0.2,0,0.300001,-0.00139538,0
0.1,0.3,0,0.300002,-0.00139763,0
0.1,0.4,0,0.300001,-0.00139912,0
0.1,0.5,0,0.300005,-0.00140282,0
0.1,0.6,0,0.300001,-0.00140776,0
0.1,0.7,0,0.300004,-0.00141058,0
0.1,0.8,0,0.300004,-0.00141671,0
0.1,0.9,0,0.300002,-0.00142002,0
0.1,1,0,0.300009,-0.00142728,0
0.1,1.1,0,0.300002,-0.00143518,0
0.1,1.2,0,0.300006,-0.00143942,0
0.1,1.3,0,0.300006,-0.00144801,0
0.1,1.4,0,0.300002,-0.00145236,0
0.1,1.5,0,0.30001,-0.00146154,0
0.1,1.6,0,0.300002,-0.00147045,0
0.1,1.7,0,0.300006,-0.00147508,0
0.1,1.8,0,0.300006,-0.0014839,0
0.1,1.9,0,0.300002,-0.00148809,0
0.1,2,0,0.300009,-0.00149668,0
0.1,2.1,0,0.300002,-0.00150368,0
0.1,2.2,0,0.300004,-0.0015072,0
0.1,2.3,0,0.300004,-0.00151304,0
0.1,2.4,0,0.300001,-0.00151536,0
0.1,2.5,0,0.300004,-0.00151981,0
0.1,2.6,0,0.3,-0.00152097,0
0.1,2.7,0,0.3,-0.00152133,0
0.1,2.8,0,0.299999,-0.00151993,0
0.1,2.9,0,0.299999,-0.00151816,0
0.1,3,0,0.299993,-0.0015139,0
0.1,3.1,0,0.299998,-0.00150438,0
0.1,3.2,0,0.299992,-0.00149909,0
0.1,3.3,0,0.299991,-0.00148541,0
0.1,3.4,0,0.299997,-0.00147702,0
0.1,3.5,0,0.299977,-0.00145879,0
0.1,3.6,0,0.299995,-0.00143349,0
0.1,3.7,0,0.299981,-0.00141993,0
0.1,3.8,0,0.29998,-0.00138889,0
0.1,3.9,0,0.299993,-0.00137141,0
0.1,4,0,0.299956,-0.00133433,0
0.1,4.1,0,0.299991,-0.00128886,0
0.1,4.2,0,0.299967,-0.00126495,0
0.1,4.3,0,0.299966,-0.00121279,0
0.1,4.4,0,0.299988,-0.00118454,0
0.1,4.5,0,0.299931,-0.00112561,0
0.1,4.6,0,0.299986,-0.00105809,0
0.1,4.7,0,0.299953,-0.00102317,0
0.1,4.8,0,0.299951,-0.000949365,0
0.1,4.9,0,0.299983,-0.00091048,0
0.1,5,0,0.299909,-0.000838805,0
0.1,5.1,0,0.299982,-0.000761194,0
0.1,5.2,0,0.299901,-0.000691232,0
0.1,5.3,0,0.299981,-0.000615658,0
0.1,5.4,0,0.299895,-0.000540712,0
0.1,5.5,0,0.299979,-0.000460997,0
0.1,5.6,0,0.299891,-0.000382146,0
0.1,5.7,0,0.299978,-0.000299706,0
0.1,5.8,0,0.299888,-0.0002181,0
0.1,5.9,0,0.299978,-0.000134303,0
0.1,6,0,0.299887,-5.12622e-05,0
0.1,6.1,0,0.299978,3.2484e-05,0
0.1,6.2,0,0.299888,0.000115529,0
0.1,6.3,0,0.299978,0.000197794,0
0.1,6.4,0,0.299891,0.000279412,0
0.1,6.5,0,0.299979,0.000358857,0
0.1,6.6,0,0.299895,0.000437713,0
0.1,6.7,0,0.299981,0.000513254,0
0.1,6.8,0,0.299902,0.00058785,0
0.1,6.9,0,0.299982,0.000658404,0
0.1,7,0,0.29991,0.000739754,0
0.1,7.1,0,0.299975,0.000807724,0
0.1,7.2,0,0.299968,0.000838929,0
0.1,7.3,0,0.29993,0.000912798,0
0.1,7.4,0,0.299986,0.000980768,0
0.1,7.5,0,0.299967,0.0010084,0
0.1,7.6,0,0.29995,0.00106915,0
0.1,7.7,0,0.29999,0.00111614,0
0.1,7.8,0,0.299969,0.00114567,0
0.1,7.9,0,0.299966,0.00119258,0
0.1,8,0,0.299992,0.0012223,0
0.1,8.1,0,0.299973,0.00125012,0
0.1,8.2,0,0.29998,0.00128369,0
0.1,8.3,0,0.299994,0.00130036,0
0.1,8.4,0,0.29998,0.00132359,0
0.1,8.5,0,0.29999,0.00134502,0
0.1,8.6,0,0.299996,0.00135341,0
0.1,8.7,0,0.299987,0.00136936,0
0.1,8.8,0,0.299996,0.00138033,0
0.1,8.9,0,0.299998,0.00138423,0
0.1,9,0,0.299995,0.00139137,0
0.1,9.1,0,0.3,0.00139399,0
0.1,9.2,0,0.300001,0.00139438,0
0.1,9.3,0,0.300002,0.00139405,0
0.1,9.4,0,0.300001,0.00139078,0
0.1,9.5,0,0.300004,0.0013884,0
0.1,9.6,0,0.300006,0.00138245,0
0.1,9.7,0,0.300002,0.00137613,0
0.1,9.8,0,0.300007,0.0013706,0
0.1,9.9,0,0.300007,0.00136074,0
0.1,10,0,0.300002,0.00135365,0
0.1,10.1,0,0.30001,0.00134489,0
0.1,10.2,0,0.300008,0.00133261,0
0.1,10.3,0,0.300003,0.00132627,0
0.1,10.4,0,0.300013,0.00131463,0
0.1,10.5,0,0.300007,0.00130118,0
0.1,10.6,0,0.300004,0.00129538,0
0.1,10.7,0,0.300014,0.00128266,0
0.1,10.8,0,0.300005,0.00126906,0
0.1,10.9,0,0.300005,0.00126353,0
0.1,11,0,0.300013,0.00125121,0
0.1,11.1,0,0.300003,0.00123835,0
0.1,11.2,0,0.300006,0.00123347,0
0.1,11.3,0,0.30001,0.00122222,0
0.1,11.4,0,0.300002,0.00121197,0
0.1,11.5,0,0.300006,0.0012068,0
0.1,11.6,0,0.300008,0.00119716,0
0.1,11.7,0,0.300002,0.00118997,0
0.1,11.8,0,0.300006,0.00118472,0
0.1,11.9,0,0.300005,0.00117712,0
0.1,12,0,0.300002,0.00117264,0
0.1,12.1,0,0.300005,0.00116815,0
0.1,12.2,0,0.300003,0.00116291,0
0.1,12.3,0,0.300001,0.00116062,0
0.1,12.4,0,0.300003,0.00115779,0
0.1,12.5,0,0.300001,0.00115517,0
0.1,12.6,0,0.3,0.00133493,0
0.1,12.7,0,0.300002,0.00158901,0
0.2,0,0,0.300003,-0.002962,0
0.2,0.1,0,0.300003,-0.00278922,0
0.2,0.2,0,0.300004,-0.00279152,0
0.2,0.3,0,0.300004,-0.00279377,0
0.2,0.4,0,0.300007,-0.00280045,0
0.2,0.5,0,0.30001,-0.00280564,0
0.2,0.6,0,0.300009,-0.0028134,0
0.2,0.7,0,0.300011,-0.00282398,0
0.2,0.8,0,0.300011,-0.00283011,0
0.2,0.9,0,0.300013,-0.00284399,0
0.2,1,0,0.300017,-0.00285455,0
0.2,1.1,0,0.300014,-0.0028667,0
0.2,1.2,0,0.300015,-0.00288307,0
0.2,1.3,0,0.300015,-0.00289166,0
0.2,1.4,0,0.300016,-0.00290954,0
0.2,1.5,0,0.30002,-0.00292307,0
0.2,1.6,0,0.300016,-0.00293661,0
0.2,1.7,0,0.300016,-0.00295478,0
0.2,1.8,0,0.300016,-0.0029636,0
0.2,1.9,0,0.300015,-0.00298057,0
0.2,2,0,0.300018,-0.00299335,0
0.2,2.1,0,0.300013,-0.00300387,0
0.2,2.2,0,0.300011,-0.00301792,0
0.2,2.3,0,0.300011,-0.00302376,0
0.2,2.4,0,0.300007,-0.00303285,0
0.2,2.5,0,0.300007,-0.00303962,0
0.2,2.6,0,0.300003,-0.00304114,0
0.2,2.7,0,0.299999,-0.00304303,0
0.2,2.8,0,0.299998,-0.00304162,0
0.2,2.9,0,0.299992,-0.00303382,0
0.2,3,0,0.299987,-0.00302779,0
0.2,3.1,0,0.299985,-0.00301299,0
0.2,3.2,0,0.299978,-0.0029929,0
0.2,3.3,0,0.299977,-0.00297922,0
0.2,3.4,0,0.299968,-0.00294421,0
0.2,3.5,0,0.299954,-0.00291759,0
0.2,3.6,0,0.299958,-0.00287872,0
0.2,3.7,0,0.299948,-0.00282629,0
0.2,3.8,0,0.299947,-0.00279525,0
0.2,3.9,0,0.299935,-0.00272322,0
0.2,4,0,0.299911,-0.00266866,0
0.2,4.1,0,0.299923,-0.00259929,0
0.2,4.2,0,0.299911,-0.002506,0
0.2,4.3,0,0.299909,-0.00245384,0
0.2,4.4,0,0.299897,-0.0023384,0
0.2,4.5,0,0.299863,-0.00225121,0
0.2,4.6,0,0.299884,-0.00214878,0
0.2,4.7,0,0.299872,-0.00201142,0
0.2,4.8,0,0.299871,-0.00193762,0
0.2,4.9,0,0.299861,-0.00178817,0
0.2,5,0,0.299819,-0.00167761,0
0.2,5.1,0,0.299849,-0.00152812,0
0.2,5.2,0,0.299803,-0.00138246,0
0.2,5.3,0,0.299838,-0.00123179,0
0.2,5.4,0,0.299791,-0.00108142,0
0.2,5.5,0,0.299829,-0.000922642,0
0.2,5.6,0,0.299781,-0.000764292,0
0.2,5.7,0,0.299823,-0.000600037,0
0.2,5.8,0,0.299776,-0.000436201,0
0.2,5.9,0,0.29982,-0.000269173,0
0.2,6,0,0.299774,-0.000102524,0
0.2,6.1,0,0.29982,6.44422e-05,0
0.2,6.2,0,0.299776,0.000231058,0
0.2,6.3,0,0.299823,0.000395103,0
0.2,6.4,0,0.299781,0.000558825,0
0.2,6.5,0,0.299829,0.000717272,0
0.2,6.6,0,0.299791,0.000875426,0
0.2,6.7,0,0.299838,0.0010258,0
0.2,6.8,0,0.299803,0.0011757,0
0.2,6.9,0,0.299849,0.00132491,0
0.2,7,0,0.29982,0.00147951,0
0.2,7.1,0,0.299861,0.00157964,0
0.2,7.2,0,0.299871,0.0017224,0
0.2,7.3,0,0.299852,0.0018153,0
0.2,7.4,0,0.299883,0.00192038,0
0.2,7.5,0,0.299895,0.00205184,0
0.2,7.6,0,0.299885,0.00212151,0
0.2,7.7,0,0.299907,0.002214,0
0.2,7.8,0,0.299918,0.00231887,0
0.2,7.9,0,0.299916,0.00236578,0
0.2,8,0,0.299931,0.00244194,0
0.2,8.1,0,0.299937,0.00251528,0
0.2,8.2,0,0.299942,0.00254963,0
0.2,8.3,0,0.299953,0.00260661,0
0.2,8.4,0,0.299955,0.0026537,0
0.2,8.5,0,0.299963,0.00267801,0
0.2,8.6,0,0.299973,0.00271384,0
0.2,8.7,0,0.299974,0.00274032,0
0.2,8.8,0,0.299981,0.00275372,0
0.2,8.9,0,0.299989,0.00277151,0
0.2,9,0,0.299991,0.00278261,0
0.2,9.1,0,0.299996,0.00278544,0
0.2,9.2,0,0.300002,0.00278852,0
0.2,9.3,0,0.300004,0.0027888,0
0.2,9.4,0,0.300007,0.00278226,0
0.2,9.5,0,0.300011,0.00277394,0
0.2,9.6,0,0.300013,0.00276771,0
0.2,9.7,0,0.300015,0.00275297,0
0.2,9.8,0,0.300018,0.00273689,0
0.2,9.9,0,0.300019,0.00272703,0
0.2,10,0,0.30002,0.00270564,0
0.2,10.1,0,0.300024,0.0026859,0
0.2,10.2,0,0.300022,0.00267263,0
0.2,10.3,0,0.300023,0.00264732,0
0.2,10.4,0,0.300027,0.00262679,0
0.2,10.5,0,0.300024,0.00261042,0
0.2,10.6,0,0.300024,0.00258399,0
0.2,10.7,0,0.300029,0.00256469,0
0.2,10.8,0,0.300024,0.00254643,0
0.2,10.9,0,0.300023,0.00252052,0
0.2,11,0,0.300027,0.0025037,0
0.2,11.1,0,0.300022,0.00248492,0
0.2,11.2,0,0.30002,0.00246088,0
0.2,11.3,0,0.300023,0.00244731,0
0.2,11.4,0,0.300019,0.00242928,0
0.2,11.5,0,0.300017,0.00240819,0
0.2,11.6,0,0.300018,0.00239821,0
0.2,11.7,0,0.300015,0.00238217,0
0.2,11.8,0,0.300014,0.00236601,0
0.2,11.9,0,0.300014,0.00235841,0
0.2,12,0,0.300011,0.00234558,0
0.2,12.1,0,0.30001,0.00233469,0
0.2,12.2,0,0.300009,0.00232908,0
0.2,12.3,0,0.300006,0.00232102,0
0.2,12.4,0,0.300006,0.00231514,0
0.2,12.5,0,0.300004,0.00231247,0
0.2,12.6,0,0.300003,0.00230971,0
0.2,12.7,0,0.300003,0.00245335,0
0.3,0,0,0.300006,-0.00417961,0
0.3,0.1,0,0.300005,-0.00418227,0
0.3,0.2,0,0.300007,-0.00418457,0
0.3,0.3,0,0.300011,-0.00419153,0
0.3,0.4,0,0.300013,-0.00419821,0
0.3,0.5,0,0.300019,-0.00420692,0
0.3,0.6,0,0.300019,-0.00422004,0
0.3,0.7,0,0.300021,-0.00423062,0
0.3,0.8,0,0.300025,-0.0042493,0
0.3,0.9,0,0.300027,-0.00426317,0
0.3,1,0,0.300033,-0.00428092,0
0.3,1.1,0,0.300031,-0.00430141,0
0.3,1.2,0,0.300032,-0.00431779,0
0.3,1.3,0,0.300034,-0.00434401,0
0.3,1.4,0,0.300034,-0.00436189,0
0.3,1.5,0,0.300039,-0.00438467,0
0.3,1.6,0,0.300035,-0.0044076,0
0.3,1.7,0,0.300034,-0.00442576,0
0.3,1.8,0,0.300033,-0.00445289,0
0.3,1.9,0,0.300032,-0.00446986,0
0.3,2,0,0.300035,-0.00449147,0
0.3,2.1,0,0.300028,-0.00450952,0
0.3,2.2,0,0.300026,-0.00452356,0
0.3,2.3,0,0.300021,-0.00454194,0
0.3,2.4,0,0.300018,-0.00455103,0
0.3,2.5,0,0.300014,-0.00456265,0
0.3,2.6,0,0.300006,-0.00456588,0
0.3,2.7,0,0.300002,-0.00456777,0
0.3,2.8,0,0.299992,-0.00456454,0
0.3,2.9,0,0.299986,-0.00455674,0
0.3,3,0,0.299974,-0.00454695,0
0.3,3.1,0,0.299967,-0.00452311,0
0.3,3.2,0,0.29996,-0.00450302,0
0.3,3.3,0,0.299944,-0.00446291,0
0.3,3.4,0,0.299935,-0.0044279,0
0.3,3.5,0,0.299912,-0.00438369,0
0.3,3.6,0,0.299907,-0.00431969,0
0.3,3.7,0,0.299897,-0.00426726,0
0.3,3.8,0,0.299877,-0.00417482,0
0.3,3.9,0,0.299865,-0.00410279,0
0.3,4,0,0.299829,-0.00401181,0
0.3,4.1,0,0.299831,-0.00389676,0
0.3,4.2,0,0.299819,-0.00380348,0
0.3,4.3,0,0.299796,-0.00364714,0
0.3,4.4,0,0.299784,-0.0035317,0
0.3,4.5,0,0.299735,-0.00338593,0
0.3,4.6,0,0.299749,-0.00321528,0
0.3,4.7,0,0.299737,-0.00307792,0
0.3,4.8,0,0.299715,-0.00285555,0
0.3,4.9,0,0.299705,-0.0027061,0
0.3,5,0,0.299649,-0.00252398,0
0.3,5.1,0,0.299677,-0.00229526,0
0.3,5.2,0,0.299619,-0.00208009,0
0.3,5.3,0,0.299653,-0.00185273,0
0.3,5.4,0,0.299595,-0.00162732,0
0.3,5.5,0,0.299635,-0.00138789,0
0.3,5.6,0,0.299577,-0.00115015,0
0.3,5.7,0,0.299622,-0.000902669,0
0.3,5.8,0,0.299566,-0.000656353,0
0.3,5.9,0,0.299615,-0.000404935,0
0.3,6,0,0.299562,-0.000154092,0
0.3,6.1,0,0.299616,9.69738e-05,0
0.3,6.2,0,0.299566,0.000348028,0
0.3,6.3,0,0.299622,0.00059441,0
0.3,6.4,0,0.299577,0.000841332,0
0.3,6.5,0,0.299635,0.00107896,0
0.3,6.6,0,0.299595,0.0013177,0
0.3,6.7,0,0.299654,0.00154285,0
0.3,6.8,0,0.29962,0.0017693,0
0.3,6.9,0,0.299678,0.0019876,0
0.3,7,0,0.299652,0.0022263,0
0.3,7.1,0,0.299707,0.00240325,0
0.3,7.2,0,0.299717,0.00254601,0
0.3,7.3,0,0.29971,0.0027465,0
0.3,7.4,0,0.299753,0.00290876,0
0.3,7.5,0,0.299765,0.00304022,0
0.3,7.6,0,0.299773,0.00321587,0
0.3,7.7,0,0.299803,0.00333816,0
0.3,7.8,0,0.299814,0.00344507,0
0.3,7.9,0,0.299834,0.00358584,0
0.3,8,0,0.299852,0.00367213,0
0.3,8.1,0,0.299861,0.00375841,0
0.3,8.2,0,0.299888,0.00385743,0
0.3,8.3,0,0.299898,0.0039144,0
0.3,8.4,0,0.299906,0.00397829,0
0.3,8.5,0,0.299929,0.00403752,0
0.3,8.6,0,0.299939,0.00407335,0
0.3,8.7,0,0.299947,0.00411472,0
0.3,8.8,0,0.299965,0.00414244,0
0.3,8.9,0,0.299973,0.00416022,0
0.3,9,0,0.299983,0.00417958,0
0.3,9.1,0,0.299994,0.00418462,0
0.3,9.2,0,0.3,0.0041877,0
0.3,9.3,0,0.300011,0.00418645,0
0.3,9.4,0,0.300017,0.00417707,0
0.3,9.5,0,0.300021,0.00416874,0
0.3,9.6,0,0.30003,0.00415064,0
0.3,9.7,0,0.300033,0.00413228,0
0.3,9.8,0,0.300037,0.00411491,0
0.3,9.9,0,0.300042,0.00408466,0
0.3,10,0,0.300043,0.0040617,0
0.3,10.1,0,0.300048,0.00403682,0
0.3,10.2,0,0.300048,0.00400068,0
0.3,10.3,0,0.300049,0.00397538,0
0.3,10.4,0,0.300054,0.00394519,0
0.3,10.5,0,0.30005,0.00390821,0
0.3,10.6,0,0.300051,0.00388177,0
0.3,10.7,0,0.300056,0.0038485,0
0.3,10.8,0,0.30005,0.00381375,0
0.3,10.9,0,0.300049,0.00378784,0
0.3,11,0,0.300053,0.00375369,0
0.3,11.1,0,0.300046,0.00372327,0
0.3,11.2,0,0.300045,0.00369923,0
0.3,11.3,0,0.300045,0.00366654,0
0.3,11.4,0,0.30004,0.00364151,0
0.3,11.5,0,0.300038,0.00362042,0
0.3,11.6,0,0.300036,0.00359132,0
0.3,11.7,0,0.300033,0.0035722,0
0.3,11.8,0,0.300031,0.003554,0
0.3,11.9,0,0.300026,0.00353122,0
0.3,12,0,0.300024,0.00351811,0
0.3,12.1,0,0.300022,0.00350387,0
0.3,12.2,0,0.300017,0.00348947,0
0.3,12.3,0,0.300014,0.00348141,0
0.3,12.4,0,0.300012,0.00347235,0
0.3,12.5,0,0.300007,0.00346646,0
0.3,12.6,0,0.300006,0.0034637,0
0.3,12.7,0,0.300007,0.00346125,0
0.4,0,0,0.30001,-0.00556965,0
0.4,0.1,0,0.300009,-0.00557267,0
0.4,0.2,0,0.300014,-0.00557714,0
0.4,0.3,0,0.300018,-0.0055841,0
0.4,0.4,0,0.300023,-0.00559593,0
0.4,0.5,0,0.300032,-0.00560665,0
0.4,0.6,0,0.300031,-0.00562231,0
0.4,0.7,0,0.30004,-0.00564149,0
0.4,0.8,0,0.300044,-0.00566017,0
0.4,0.9,0,0.300045,-0.00568476,0
0.4,1,0,0.300056,-0.00570637,0
0.4,1.1,0,0.300051,-0.00573098,0
0.4,1.2,0,0.300058,-0.0057605,0
0.4,1.3,0,0.30006,-0.00578672,0
0.4,1.4,0,0.300057,-0.00581867,0
0.4,1.5,0,0.300067,-0.00584634,0
0.4,1.6,0,0.300058,-0.00587402,0
0.4,1.7,0,0.300062,-0.00590687,0
0.4,1.8,0,0.300061,-0.005934,0
0.4,1.9,0,0.300054,-0.00596479,0
0.4,2,0,0.300059,-0.00599104,0
0.4,2.1,0,0.300048,-0.0060131,0
0.4,2.2,0,0.300045,-0.00603885,0
0.4,2.3,0,0.30004,-0.00605722,0
0.4,2.4,0,0.300029,-0.00607474,0
0.4,2.5,0,0.300025,-0.00608888,0
0.4,2.6,0,0.300013,-0.00609347,0
0.4,2.7,0,0.3,-0.00609789,0
0.4,2.8,0,0.299991,-0.00609466,0
0.4,2.9,0,0.299975,-0.00608315,0
0.4,3,0,0.299956,-0.00607136,0
0.4,3.1,0,0.299949,-0.00604379,0
0.4,3.2,0,0.299922,-0.00600945,0
0.4,3.3,0,0.299906,-0.00596933,0
0.4,3.4,0,0.299888,-0.0059105,0
0.4,3.5,0,0.29985,-0.0058571,0
0.4,3.6,0,0.299851,-0.00578154,0
0.4,3.7,0,0.299808,-0.00568997,0
0.4,3.8,0,0.299787,-0.00559753,0
0.4,3.9,0,0.299771,-0.00547371,0
0.4,4,0,0.299709,-0.00536379,0
0.4,4.1,0,0.299726,-0.00522697,0
0.4,4.2,0,0.299667,-0.00506285,0
0.4,4.3,0,0.299644,-0.00490651,0
0.4,4.4,0,0.299634,-0.00470586,0
0.4,4.5,0,0.299549,-0.00452977,0
0.4,4.6,0,0.299588,-0.00432581,0
0.4,4.7,0,0.299518,-0.00408334,0
0.4,4.8,0,0.299496,-0.00386097,0
0.4,4.9,0,0.299503,-0.00359271,0
0.4,5,0,0.299402,-0.00337791,0
0.4,5.1,0,0.299461,-0.00306745,0
0.4,5.2,0,0.299349,-0.00278412,0
0.4,5.3,0,0.299421,-0.0024793,0
0.4,5.4,0,0.299308,-0.00217839,0
0.4,5.5,0,0.299391,-0.00185737,0
0.4,5.6,0,0.299277,-0.00153971,0
0.4,5.7,0,0.299369,-0.00120797,0
0.4,5.8,0,0.299258,-0.000878557,0
0.4,5.9,0,0.299358,-0.000541685,0
0.4,6,0,0.299252,-0.000205965,0
0.4,6.1,0,0.299359,0.000130248,0
0.4,6.2,0,0.299258,0.000466437,0
0.4,6.3,0,0.29937,0.000796146,0
0.4,6.4,0,0.299278,0.00112693,0
0.4,6.5,0,0.299391,0.00144463,0
0.4,6.6,0,0.299309,0.00176453,0
0.4,6.7,0,0.299423,0.00206529,0
0.4,6.8,0,0.29935,0.00236865,0
0.4,6.9,0,0.299463,0.00265399,0
0.4,7,0,0.299406,0.00298013,0
0.4,7.1,0,0.299495,0.00318287,0
0.4,7.2,0,0.299518,0.00344129,0
0.4,7.3,0,0.299497,0.00366557,0
0.4,7.4,0,0.299581,0.00387095,0
0.4,7.5,0,0.299595,0.00410263,0
0.4,7.6,0,0.299598,0.00428597,0
0.4,7.7,0,0.299668,0.00445962,0
0.4,7.8,0,0.299678,0.00463598,0
0.4,7.9,0,0.299698,0.00477676,0
0.4,8,0,0.299755,0.0049145,0
0.4,8.1,0,0.299762,0.00504035,0
0.4,8.2,0,0.29979,0.00514038,0
0.4,8.3,0,0.299835,0.00524128,0
0.4,8.4,0,0.29984,0.00532359,0
0.4,8.5,0,0.299869,0.00538684,0
0.4,8.6,0,0.299904,0.00545128,0
0.4,8.7,0,0.29991,0.00549889,0
0.4,8.8,0,0.299935,0.00553063,0
0.4,8.9,0,0.29996,0.00556111,0
0.4,9,0,0.29997,0.00558188,0
0.4,9.1,0,0.299987,0.00558873,0
0.4,9.2,0,0.300006,0.00559195,0
0.4,9.3,0,0.300018,0.00559011,0
0.4,9.4,0,0.300026,0.00557848,0
0.4,9.5,0,0.300042,0.00556145,0
0.4,9.6,0,0.300051,0.00554276,0
0.4,9.7,0,0.300055,0.00551611,0
0.4,9.8,0,0.300068,0.00548623,0
0.4,9.9,0,0.300073,0.00545598,0
0.4,10,0,0.300073,0.00541811,0
0.4,10.1,0,0.300085,0.00538124,0
0.4,10.2,0,0.300084,0.00534404,0
0.4,10.3,0,0.300081,0.00529867,0
0.4,10.4,0,0.300094,0.00525938,0
0.4,10.5,0,0.300088,0.00521912,0
0.4,10.6,0,0.300085,0.005171,0
0.4,10.7,0,0.300096,0.00513141,0
0.4,10.8,0,0.300085,0.00509122,0
0.4,10.9,0,0.300083,0.00504438,0
0.4,11,0,0.300091,0.00500613,0
0.4,11.1,0,0.300078,0.0049685,0
0.4,11.2,0,0.300077,0.00492553,0
0.4,11.3,0,0.300079,0.00489085,0
0.4,11.4,0,0.300067,0.00485643,0
0.4,11.5,0,0.300067,0.00482038,0
0.4,11.6,0,0.300065,0.00479099,0
0.4,11.7,0,0.300055,0.00476126,0
0.4,11.8,0,0.300054,0.00473347,0
0.4,11.9,0,0.300049,0.00471068,0
0.4,12,0,0.300039,0.00468734,0
0.4,12.1,0,0.300038,0.00466822,0
0.4,12.2,0,0.300032,0.00465304,0
0.4,12.3,0,0.300023,0.00463763,0
0.4,12.4,0,0.300021,0.00462715,0
0.4,12.5,0,0.300014,0.00462029,0
0.4,12.6,0,0.30001,0.00461493,0
0.4,12.7,0,0.300012,0.00461271,0
0.5,0,0,0.300015,-0.00695969,0
0.5,0.1,0,0.300019,-0.00696452,0
0.5,0.2,0,0.300023,-0.00696936,0
0.5,0.3,0,0.300029,-0.0069787,0
0.5,0.4,0,0.300037,-0.00699254,0
0.5,0.5,0,0.300045,-0.00700639,0
0.5,0.6,0,0.300052,-0.00702811,0
0.5,0.7,0,0.30006,-0.00704983,0
0.5,0.8,0,0.300067,-0.00707492,0
0.5,0.9,0,0.300073,-0.00710337,0
0.5,1,0,0.300079,-0.00713182,0
0.5,1.1,0,0.300084,-0.00716546,0
0.5,1.2,0,0.300088,-0.00719909,0
0.5,1.3,0,0.300091,-0.00723433,0
0.5,1.4,0,0.300093,-0.00727117,0
0.5,1.5,0,0.300095,-0.00730801,0
0.5,1.6,0,0.300095,-0.00734562,0
0.5,1.7,0,0.300094,-0.00738323,0
0.5,1.8,0,0.300092,-0.00741975,0
0.5,1.9,0,0.300088,-0.00745518,0
0.5,2,0,0.300084,-0.00749061,0
0.5,2.1,0,0.300077,-0.00752037,0
0.5,2.2,0,0.300069,-0.00755013,0
0.5,2.3,0,0.300059,-0.00757503,0
0.5,2.4,0,0.300048,-0.00759507,0
0.5,2.5,0,0.300036,-0.00761512,0
0.5,2.6,0,0.300019,-0.00762089,0
0.5,2.7,0,0.300002,-0.00762666,0
0.5,2.8,0,0.299982,-0.00762279,0
0.5,2.9,0,0.29996,-0.00760929,0
0.5,3,0,0.299938,-0.00759578,0
0.5,3.1,0,0.299911,-0.0075577,0
0.5,3.2,0,0.299884,-0.00751962,0
0.5,3.3,0,0.299854,-0.00746657,0
0.5,3.4,0,0.299821,-0.00739854,0
0.5,3.5,0,0.299788,-0.00733051,0
0.5,3.6,0,0.29975,-0.00722738,0
0.5,3.7,0,0.299712,-0.00712425,0
0.5,3.8,0,0.299673,-0.0070013,0
0.5,3.9,0,0.299631,-0.00685853,0
0.5,4,0,0.299589,-0.00671576,0
0.5,4.1,0,0.299544,-0.00652988,0
0.5,4.2,0,0.2995,-0.00634399,0
0.5,4.3,0,0.299454,-0.00613556,0
0.5,4.4,0,0.299409,-0.00590458,0
0.5,4.5,0,0.299363,-0.0056736,0
0.5,4.6,0,0.299318,-0.00539784,0
0.5,4.7,0,0.299274,-0.00512207,0
0.5,4.8,0,0.299232,-0.00483371,0
0.5,4.9,0,0.299193,-0.00453277,0
0.5,5,0,0.299154,-0.00423183,0
0.5,5.1,0,0.299117,-0.00385999,0
0.5,5.2,0,0.299079,-0.00348814,0
0.5,5.3,0,0.29905,-0.0031088,0
0.5,5.4,0,0.299021,-0.00272946,0
0.5,5.5,0,0.298999,-0.00232936,0
0.5,5.6,0,0.298977,-0.00192927,0
0.5,5.7,0,0.298963,-0.00151502,0
0.5,5.8,0,0.29895,-0.00110076,0
0.5,5.9,0,0.298945,-0.000679299,0
0.5,6,0,0.298941,-0.000257837,0
0.5,6.1,0,0.298946,0.000163504,0
0.5,6.2,0,0.298951,0.000584846,0
0.5,6.3,0,0.298964,0.000998692,0
0.5,6.4,0,0.298978,0.00141254,0
0.5,6.5,0,0.299,0.00181195,0
0.5,6.6,0,0.299022,0.00221135,0
0.5,6.7,0,0.299052,0.00258968,0
0.5,6.8,0,0.299081,0.002968,0
0.5,6.9,0,0.299121,0.00335098,0
0.5,7,0,0.29916,0.00373396,0
0.5,7.1,0,0.299199,0.00402167,0
0.5,7.2,0,0.299238,0.00430937,0
0.5,7.3,0,0.299277,0.0045935,0
0.5,7.4,0,0.299323,0.00485746,0
0.5,7.5,0,0.299369,0.0051214,0
0.5,7.6,0,0.299415,0.00536976,0
0.5,7.7,0,0.299461,0.00558173,0
0.5,7.8,0,0.299508,0.0057937,0
0.5,7.9,0,0.299553,0.00598252,0
0.5,8,0,0.299598,0.00614303,0
0.5,8.1,0,0.299642,0.00630354,0
0.5,8.2,0,0.299684,0.00643528,0
0.5,8.3,0,0.299724,0.00654784,0
0.5,8.4,0,0.299765,0.00666039,0
0.5,8.5,0,0.299801,0.00674098,0
0.5,8.6,0,0.299836,0.0068109,0
0.5,8.7,0,0.299871,0.00688083,0
0.5,8.8,0,0.2999,0.00691814,0
0.5,8.9,0,0.299929,0.00695183,0
0.5,9,0,0.299958,0.00698404,0
0.5,9.1,0,0.299981,0.00698831,0
0.5,9.2,0,0.300004,0.00699258,0
0.5,9.3,0,0.300026,0.00699231,0
0.5,9.4,0,0.300043,0.00697387,0
0.5,9.5,0,0.300061,0.00695544,0
0.5,9.6,0,0.300076,0.00693124,0
0.5,9.7,0,0.300088,0.00689635,0
0.5,9.8,0,0.3001,0.00686146,0
0.5,9.9,0,0.30011,0.00682114,0
0.5,10,0,0.300117,0.00677537,0
0.5,10.1,0,0.300124,0.00672961,0
0.5,10.2,0,0.300129,0.0066799,0
0.5,10.3,0,0.300132,0.00662807,0
0.5,10.4,0,0.300136,0.00657625,0
0.5,10.5,0,0.300136,0.00652278,0
0.5,10.6,0,0.300137,0.0064689,0
0.5,10.7,0,0.300137,0.00641503,0
0.5,10.8,0,0.300134,0.00636234,0
0.5,10.9,0,0.300132,0.00630971,0
0.5,11,0,0.300129,0.00625747,0
0.5,11.1,0,0.300125,0.00620875,0
0.5,11.2,0,0.30012,0.00616003,0
0.5,11.3,0,0.300115,0.00611282,0
0.5,11.4,0,0.300109,0.00607012,0
0.5,11.5,0,0.300103,0.00602743,0
0.5,11.6,0,0.300096,0.00598778,0
0.5,11.7,0,0.300089,0.00595273,0
0.5,11.8,0,0.300081,0.00591767,0
0.5,11.9,0,0.300073,0.00588748,0
0.5,12,0,0.300065,0.00586129,0
0.5,12.1,0,0.300057,0.0058351,0
0.5,12.2,0,0.300048,0.00581574,0
0.5,12.3,0,0.300039,0.0057993,0
0.5,12.4,0,0.30003,0.00578286,0
0.5,12.5,0,0.300025,0.00577555,0
0.5,12.6,0,0.300021,0.00576986,0
0.5,12.7,0,0.300017,0.00576416,0
0.6,0,0,0.300023,-0.00834134,0
0.6,0.1,0,0.300021,-0.0083467,0
0.6,0.2,0,0.30003,-0.00835277,0
0.6,0.3,0,0.300042,-0.00836516,0
0.6,0.4,0,0.300051,-0.00838081,0
0.6,0.5,0,0.300068,-0.00839918,0
0.6,0.6,0,0.300075,-0.0084265,0
0.6,0.7,0,0.300087,-0.00845158,0
0.6,0.8,0,0.300098,-0.00848376,0
0.6,0.9,0,0.300102,-0.00851594,0
0.6,1,0,0.300119,-0.00855301,0
0.6,1.1,0,0.300118,-0.00859562,0
0.6,1.2,0,0.300128,-0.00863433,0
0.6,1.3,0,0.300133,-0.00867968,0
0.6,1.4,0,0.300131,-0.00872156,0
0.6,1.5,0,0.300144,-0.00876959,0
0.6,1.6,0,0.300134,-0.0088178,0
0.6,1.7,0,0.300138,-0.00886122,0
0.6,1.8,0,0.300135,-0.00890874,0
0.6,1.9,0,0.300126,-0.00894936,0
0.6,2,0,0.300128,-0.00899606,0
0.6,2.1,0,0.30011,-0.00903519,0
0.6,2.2,0,0.300103,-0.00906997,0
0.6,2.3,0,0.300089,-0.00910356,0
0.6,2.4,0,0.300071,-0.00912727,0
0.6,2.5,0,0.300056,-0.00915507,0
0.6,2.6,0,0.300029,-0.00916498,0
0.6,2.7,0,0.300007,-0.00917287,0
0.6,2.8,0,0.299978,-0.00917096,0
0.6,2.9,0,0.299952,-0.0091573,0
0.6,3,0,0.299911,-0.0091431,0
0.6,3.1,0,0.299878,-0.00909888,0
0.6,3.2,0,0.299836,-0.00905723,0
0.6,3.3,0,0.299792,-0.00899392,0
0.6,3.4,0,0.299759,-0.0089192,0
0.6,3.5,0,0.299686,-0.00883597,0
0.6,3.6,0,0.299654,-0.00871079,0
0.6,3.7,0,0.29959,-0.00859525,0
0.6,3.8,0,0.29953,-0.00844385,0
0.6,3.9,0,0.299495,-0.00828505,0
0.6,4,0,0.299387,-0.00810648,0
0.6,4.1,0,0.299365,-0.00787733,0
0.6,4.2,0,0.299281,-0.00766753,0
0.6,4.3,0,0.299213,-0.00740754,0
0.6,4.4,0,0.299183,-0.00714893,0
0.6,4.5,0,0.299048,-0.00685753,0
0.6,4.6,0,0.299046,-0.00651383,0
0.6,4.7,0,0.298952,-0.00620176,0
0.6,4.8,0,0.298887,-0.00582863,0
0.6,4.9,0,0.298875,-0.00547922,0
0.6,5,0,0.298734,-0.00511967,0
0.6,5.1,0,0.298764,-0.00464533,0
0.6,5.2,0,0.29862,-0.00422089,0
0.6,5.3,0,0.298672,-0.00375748,0
0.6,5.4,0,0.298532,-0.00330329,0
0.6,5.5,0,0.298601,-0.00281538,0
0.6,5.6,0,0.298466,-0.00233471,0
0.6,5.7,0,0.29855,-0.0018307,0
0.6,5.8,0,0.298425,-0.00133129,0
0.6,5.9,0,0.298525,-0.000819804,0
0.6,6,0,0.298411,-0.000310126,0
0.6,6.1,0,0.298526,0.000199844,0
0.6,6.2,0,0.298426,0.000710749,0
0.6,6.3,0,0.298552,0.00121015,0
0.6,6.4,0,0.298467,0.0017132,0
0.6,6.5,0,0.298602,0.00219345,0
0.6,6.6,0,0.298534,0.00268015,0
0.6,6.7,0,0.298675,0.00313362,0
0.6,6.8,0,0.298624,0.00359532,0
0.6,6.9,0,0.298768,0.00402097,0
0.6,7,0,0.298743,0.00452124,0
0.6,7.1,0,0.29887,0.00486076,0
0.6,7.2,0,0.29891,0.00518387,0
0.6,7.3,0,0.29893,0.00556209,0
0.6,7.4,0,0.299063,0.00590245,0
0.6,7.5,0,0.299095,0.00619155,0
0.6,7.6,0,0.299143,0.00649886,0
0.6,7.7,0,0.299256,0.00676387,0
0.6,7.8,0,0.29929,0.00700095,0
0.6,7.9,0,0.299354,0.00723495,0
0.6,8,0,0.299444,0.00742885,0
0.6,8.1,0,0.299481,0.00761116,0
0.6,8.2,0,0.29955,0.00777531,0
0.6,8.3,0,0.299619,0.00790644,0
0.6,8.4,0,0.299657,0.00803494,0
0.6,8.5,0,0.299722,0.00813636,0
0.6,8.6,0,0.299773,0.00821512,0
0.6,8.7,0,0.299811,0.00829325,0
0.6,8.8,0,0.299867,0.00834134,0
0.6,8.9,0,0.299904,0.00837776,0
0.6,9,0,0.29994,0.00841047,0
0.6,9.1,0,0.299981,0.00841707,0
0.6,9.2,0,0.30001,0.00841965,0
0.6,9.3,0,0.300041,0.00841404,0
0.6,9.4,0,0.300067,0.00839142,0
0.6,9.5,0,0.30009,0.00836817,0
0.6,9.6,0,0.300114,0.0083343,0
0.6,9.7,0,0.300127,0.00829196,0
0.6,9.8,0,0.300147,0.00824903,0
0.6,9.9,0,0.300161,0.00819602,0
0.6,10,0,0.300166,0.00814206,0
0.6,10.1,0,0.300183,0.0080852,0
0.6,10.2,0,0.300188,0.00802096,0
0.6,10.3,0,0.300187,0.00796188,0
0.6,10.4,0,0.300201,0.00789644,0
0.6,10.5,0,0.300196,0.00782756,0
0.6,10.6,0,0.300193,0.0077671,0
0.6,10.7,0,0.300204,0.00769916,0
0.6,10.8,0,0.300191,0.00763095,0
0.6,10.9,0,0.300188,0.00757224,0
0.6,11,0,0.300192,0.00750685,0
0.6,11.1,0,0.300175,0.00744334,0
0.6,11.2,0,0.300172,0.0073896,0
0.6,11.3,0,0.30017,0.00733052,0
0.6,11.4,0,0.300152,0.0072759,0
0.6,11.5,0,0.300149,0.00722815,0
0.6,11.6,0,0.300141,0.00717828,0
0.6,11.7,0,0.300124,0.00713469,0
0.6,11.8,0,0.300119,0.00709475,0
0.6,11.9,0,0.300106,0.00705624,0
0.6,12,0,0.300091,0.00702453,0
0.6,12.1,0,0.300083,0.00699446,0
0.6,12.2,0,0.300068,0.0069689,0
0.6,12.3,0,0.300055,0.00694944,0
0.6,12.4,0,0.300046,0.00693086,0
0.6,12.5,0,0.30003,0.00691932,0
0.6,12.6,0,0.300024,0.00691248,0
0.6,12.7,0,0.300026,0.00690812,0
0.7,0,0,0.300031,-0.009723,0
0.7,0.1,0,0.300034,-0.0097296,0
0.7,0.2,0,0.300043,-0.00973742,0
0.7,0.3,0,0.300055,-0.0097498,0
0.7,0.4,0,0.300073,-0.00977179,0
0.7,0.5,0,0.300091,-0.00979197,0
0.7,0.6,0,0.300102,-0.00982265,0
0.7,0.7,0,0.300119,-0.0098567,0
0.7,0.8,0,0.30013,-0.00988887,0
0.7,0.9,0,0.300144,-0.0099334,0
0.7,1,0,0.300159,-0.00997419,0
0.7,1.1,0,0.300163,-0.0100219,0
0.7,1.2,0,0.300173,-0.0100746,0
0.7,1.3,0,0.300178,-0.01012,0
0.7,1.4,0,0.300183,-0.0101781,0
0.7,1.5,0,0.300192,-0.0102312,0
0.7,1.6,0,0.300187,-0.0102852,0
0.7,1.7,0,0.300186,-0.010345,0
0.7,1.8,0,0.300183,-0.0103925,0
0.7,1.9,0,0.300174,-0.0104496,0
0.7,2,0,0.300171,-0.0105015,0
0.7,2.1,0,0.300154,-0.0105457,0
0.7,2.2,0,0.300137,-0.0105948,0
0.7,2.3,0,0.300123,-0.0106284,0
0.7,2.4,0,0.300096,-0.0106636,0
0.7,2.5,0,0.300075,-0.010695,0
0.7,2.6,0,0.300043,-0.010707,0
0.7,2.7,0,0.300006,-0.0107212,0
0.7,2.8,0,0.299977,-0.0107193,0
0.7,2.9,0,0.299928,-0.0107048,0
0.7,3,0,0.299883,-0.0106904,0
0.7,3.1,0,0.299836,-0.0106426,0
0.7,3.2,0,0.299775,-0.0105913,0
0.7,3.3,0,0.299731,-0.010528,0
0.7,3.4,0,0.299657,-0.0104313,0
0.7,3.5,0,0.299584,-0.0103414,0
0.7,3.6,0,0.299525,-0.0102038,0
0.7,3.7,0,0.29944,-0.0100538,0
0.7,3.8,0,0.299381,-0.00990244,0
0.7,3.9,0,0.299287,-0.0096918,0
0.7,4,0,0.299186,-0.00949719,0
0.7,4.1,0,0.299124,-0.00924413,0
0.7,4.2,0,0.299024,-0.00896716,0
0.7,4.3,0,0.298955,-0.00870718,0
0.7,4.4,0,0.298852,-0.0083605,0
0.7,4.5,0,0.298733,-0.00804146,0
0.7,4.6,0,0.298682,-0.00766145,0
0.7,4.7,0,0.298581,-0.00724514,0
0.7,4.8,0,0.298516,-0.00687202,0
0.7,4.9,0,0.298428,-0.00641552,0
0.7,5,0,0.298313,-0.0060075,0
0.7,5.1,0,0.298281,-0.00546809,0
0.7,5.2,0,0.298161,-0.00495364,0
0.7,5.3,0,0.29815,-0.00441308,0
0.7,5.4,0,0.298043,-0.00387713,0
0.7,5.5,0,0.29805,-0.00330683,0
0.7,5.6,0,0.297954,-0.00274016,0
0.7,5.7,0,0.29798,-0.00214984,0
0.7,5.8,0,0.2979,-0.00156182,0
0.7,5.9,0,0.297944,-0.000961665,0
0.7,6,0,0.297882,-0.000362415,0
0.7,6.1,0,0.297945,0.000236885,0
0.7,6.2,0,0.297901,0.000836652,0
0.7,6.3,0,0.297982,0.00142434,0
0.7,6.4,0,0.297957,0.00201387,0
0.7,6.5,0,0.298052,0.0025798,0
0.7,6.6,0,0.298046,0.00314895,0
0.7,6.7,0,0.298154,0.00368373,0
0.7,6.8,0,0.298166,0.00422263,0
0.7,6.9,0,0.298289,0.00474692,0
0.7,7,0,0.298326,0.00530852,0
0.7,7.1,0,0.298437,0.00568978,0
0.7,7.2,0,0.298525,0.00612636,0
0.7,7.3,0,0.298569,0.00651909,0
0.7,7.4,0,0.298685,0.00689338,0
0.7,7.5,0,0.298788,0.00729167,0
0.7,7.6,0,0.298848,0.00760902,0
0.7,7.7,0,0.298958,0.0079152,0
0.7,7.8,0,0.299061,0.00823162,0
0.7,7.9,0,0.299125,0.00846562,0
0.7,8,0,0.299226,0.00870043,0
0.7,8.1,0,0.299314,0.00893056,0
0.7,8.2,0,0.299384,0.00909525,0
0.7,8.3,0,0.299474,0.0092601,0
0.7,8.4,0,0.299548,0.00941396,0
0.7,8.5,0,0.299614,0.00951686,0
0.7,8.6,0,0.299692,0.0096168,0
0.7,8.7,0,0.299752,0.00970649,0
0.7,8.8,0,0.29981,0.00975472,0
0.7,8.9,0,0.299874,0.00979987,0
0.7,9,0,0.299922,0.00983679,0
0.7,9.1,0,0.299968,0.00984071,0
0.7,9.2,0,0.300019,0.00984174,0
0.7,9.3,0,0.300055,0.00983666,0
0.7,9.4,0,0.300089,0.00980759,0