/*--------------------------------*- C++ -*----------------------------------*\
| =========                 |                                                 |
| \\      /  F ield         | OpenFOAM: The Open Source CFD Toolbox           |
|  \\    /   O peration     | Version:  v1806                                 |
|   \\  /    A nd           | Web:      www.OpenFOAM.com                      |
|    \\/     M anipulation  |                                                 |
\*---------------------------------------------------------------------------*/
FoamFile
{
    version     2.0;
    format      ascii;
    class       volVectorField;
    location    "370";
    object      U;
}
// * * * * * * * * * * * * * * * * * * * * * * * * * * * * * * * * * * * * * //

dimensions      [0 1 -1 0 0 0 0];


internalField   nonuniform List<vector> 
2400
(
(0.3 -0.00058235 0)
(0.300005 -0.00174579 0)
(0.300015 -0.00290374 0)
(0.30003 -0.00405168 0)
(0.300052 -0.00518521 0)
(0.30008 -0.00630008 0)
(0.300114 -0.00739217 0)
(0.300156 -0.00845745 0)
(0.300205 -0.009492 0)
(0.300262 -0.010492 0)
(0.300326 -0.0114539 0)
(0.300399 -0.0123743 0)
(0.30048 -0.0132498 0)
(0.30057 -0.0140783 0)
(0.300667 -0.014855 0)
(0.300773 -0.0155835 0)
(0.300887 -0.0162475 0)
(0.301007 -0.0168826 0)
(0.301142 -0.0173931 0)
(0.301262 -0.0180217 0)
(0.300001 -0.000590044 0)
(0.300013 -0.00176903 0)
(0.300037 -0.00294297 0)
(0.300073 -0.00410753 0)
(0.300122 -0.00525837 0)
(0.300183 -0.00639126 0)
(0.300257 -0.00750208 0)
(0.300343 -0.00858677 0)
(0.300442 -0.00964133 0)
(0.300553 -0.0106619 0)
(0.300677 -0.0116446 0)
(0.300813 -0.0125862 0)
(0.300961 -0.0134827 0)
(0.30112 -0.0143322 0)
(0.301291 -0.0151293 0)
(0.301472 -0.0158782 0)
(0.301662 -0.01656 0)
(0.301859 -0.0172162 0)
(0.302067 -0.0177365 0)
(0.302268 -0.0183989 0)
(0.300002 -0.000604772 0)
(0.300021 -0.00181321 0)
(0.30006 -0.00301662 0)
(0.300119 -0.00421068 0)
(0.300199 -0.00539105 0)
(0.300298 -0.00655349 0)
(0.300418 -0.00769382 0)
(0.300557 -0.00880789 0)
(0.300716 -0.00989154 0)
(0.300894 -0.0109407 0)
(0.301091 -0.0119514 0)
(0.301307 -0.01292 0)
(0.30154 -0.0138422 0)
(0.30179 -0.014716 0)
(0.302056 -0.0155351 0)
(0.302335 -0.0163046 0)
(0.302627 -0.017002 0)
(0.302929 -0.0176765 0)
(0.303241 -0.0181977 0)
(0.303549 -0.018891 0)
(0.300002 -0.000626622 0)
(0.300029 -0.00187876 0)
(0.300083 -0.00312585 0)
(0.300166 -0.00436358 0)
(0.300277 -0.00558759 0)
(0.300417 -0.0067936 0)
(0.300583 -0.00797733 0)
(0.300778 -0.00913448 0)
(0.300999 -0.0102607 0)
(0.301248 -0.0113516 0)
(0.301524 -0.0124029 0)
(0.301825 -0.0134106 0)
(0.302151 -0.0143698 0)
(0.3025 -0.0152782 0)
(0.30287 -0.0161283 0)
(0.303259 -0.0169266 0)
(0.303665 -0.017645 0)
(0.304085 -0.0183448 0)
(0.304515 -0.0188641 0)
(0.304944 -0.019604 0)
(0.300003 -0.000655695 0)
(0.300037 -0.00196601 0)
(0.300107 -0.00327132 0)
(0.300214 -0.00456737 0)
(0.300357 -0.0058498 0)
(0.300536 -0.00711428 0)
(0.300751 -0.00835642 0)
(0.301002 -0.00957172 0)
(0.301289 -0.0107555 0)
(0.301612 -0.0119031 0)
(0.301969 -0.0130096 0)
(0.302361 -0.0140705 0)
(0.302785 -0.0150801 0)
(0.303241 -0.0160358 0)
(0.303724 -0.016928 0)
(0.304234 -0.0177654 0)
(0.304765 -0.0185119 0)
(0.305316 -0.0192455 0)
(0.305878 -0.0197604 0)
(0.306443 -0.0205631 0)
(0.300003 -0.000692003 0)
(0.300046 -0.00207498 0)
(0.300131 -0.00345314 0)
(0.300261 -0.00482232 0)
(0.300436 -0.00617827 0)
(0.300656 -0.00751665 0)
(0.30092 -0.00883298 0)
(0.301229 -0.0101225 0)
(0.301583 -0.0113803 0)
(0.301982 -0.0126011 0)
(0.302426 -0.0137793 0)
(0.302914 -0.0149098 0)
(0.303444 -0.0159856 0)
(0.304015 -0.0170039 0)
(0.304623 -0.017952 0)
(0.305266 -0.0188416 0)
(0.305937 -0.0196253 0)
(0.306635 -0.0204044 0)
(0.307347 -0.0209125 0)
(0.308067 -0.021799 0)
(0.300004 -0.000735393 0)
(0.300054 -0.00220525 0)
(0.300154 -0.00367067 0)
(0.300307 -0.00512777 0)
(0.300513 -0.00657256 0)
(0.300772 -0.00800082 0)
(0.301085 -0.00940804 0)
(0.301452 -0.0107893 0)
(0.301874 -0.0121393 0)
(0.302353 -0.0134522 0)
(0.302887 -0.0147215 0)
(0.303477 -0.0159413 0)
(0.304121 -0.017103 0)
(0.304818 -0.018203 0)
(0.305564 -0.0192249 0)
(0.306356 -0.0201841 0)
(0.307186 -0.0210177 0)
(0.308053 -0.0218584 0)
(0.308937 -0.0223583 0)
(0.309839 -0.0233565 0)
(0.300004 -0.000785433 0)
(0.300061 -0.00235554 0)
(0.300175 -0.00392191 0)
(0.300349 -0.00548127 0)
(0.300584 -0.00703009 0)
(0.30088 -0.00856454 0)
(0.301239 -0.0100802 0)
(0.301663 -0.0115722 0)
(0.302153 -0.0130348 0)
(0.302711 -0.0144616 0)
(0.303339 -0.0158452 0)
(0.304036 -0.0171783 0)
(0.304802 -0.0184503 0)
(0.305637 -0.019657 0)
(0.306535 -0.0207764 0)
(0.307496 -0.021829 0)
(0.308507 -0.0227307 0)
(0.309572 -0.0236557 0)
(0.310658 -0.0241475 0)
(0.311777 -0.0252954 0)
(0.300005 -0.000841218 0)
(0.300067 -0.00252318 0)
(0.300192 -0.00420262 0)
(0.300384 -0.00587726 0)
(0.300643 -0.00754452 0)
(0.300971 -0.00920125 0)
(0.301371 -0.0108436 0)
(0.301846 -0.0124667 0)
(0.3024 -0.0140647 0)
(0.303035 -0.0156307 0)
(0.303755 -0.0171561 0)
(0.304563 -0.0186324 0)
(0.305458 -0.0200462 0)
(0.306441 -0.0213923 0)
(0.307509 -0.0226411 0)
(0.308662 -0.0238203 0)
(0.309883 -0.0248161 0)
(0.311179 -0.0258589 0)
(0.312507 -0.0263455 0)
(0.313887 -0.0276961 0)
(0.300005 -0.000901102 0)
(0.300071 -0.00270328 0)
(0.300203 -0.00450491 0)
(0.300405 -0.00630533 0)
(0.300681 -0.00810344 0)
(0.301031 -0.00989737 0)
(0.301462 -0.0116842 0)
(0.301977 -0.0134598 0)
(0.302584 -0.0152183 0)
(0.303288 -0.0169527 0)
(0.304095 -0.0186532 0)
(0.30501 -0.0203099 0)
(0.306037 -0.0219059 0)
(0.307179 -0.023435 0)
(0.308432 -0.0248575 0)
(0.309801 -0.0262099 0)
(0.311265 -0.0273383 0)
(0.312837 -0.0285482 0)
(0.314457 -0.0290383 0)
(0.316159 -0.0306675 0)
(0.300005 -0.000962408 0)
(0.300071 -0.00288788 0)
(0.300203 -0.00481579 0)
(0.300406 -0.00674792 0)
(0.300684 -0.00868548 0)
(0.301041 -0.0106286 0)
(0.301484 -0.0125762 0)
(0.302021 -0.0145254 0)
(0.302662 -0.0164713 0)
(0.303416 -0.0184071 0)
(0.304294 -0.0203221 0)
(0.305305 -0.0222055 0)
(0.306458 -0.0240361 0)
(0.30776 -0.0258068 0)
(0.309211 -0.0274639 0)
(0.31082 -0.0290569 0)
(0.312567 -0.0303754 0)
(0.314466 -0.0318268 0)
(0.316449 -0.0323398 0)
(0.318545 -0.0343589 0)
(0.300005 -0.00102111 0)
(0.300065 -0.00306493 0)
(0.300187 -0.00511542 0)
(0.300376 -0.00717785 0)
(0.300635 -0.00925681 0)
(0.300974 -0.0113556 0)
(0.3014 -0.013476 0)
(0.301928 -0.0156176 0)
(0.30257 -0.0177776 0)
(0.303341 -0.0199505 0)
(0.304258 -0.0221257 0)
(0.305338 -0.0242922 0)
(0.306595 -0.0264243 0)
(0.308046 -0.0285151 0)
(0.309699 -0.0304921 0)
(0.311566 -0.0324231 0)
(0.313637 -0.0340189 0)
(0.31592 -0.0358269 0)
(0.318362 -0.0364012 0)
(0.320937 -0.0389799 0)
(0.300004 -0.00107144 0)
(0.300052 -0.00321716 0)
(0.300149 -0.00537515 0)
(0.3003 -0.00755538 0)
(0.300513 -0.00976712 0)
(0.300797 -0.0120183 0)
(0.301165 -0.0143151 0)
(0.301635 -0.0166615 0)
(0.302225 -0.0190585 0)
(0.302958 -0.0215041 0)
(0.303858 -0.0239895 0)
(0.304952 -0.0265057 0)
(0.306266 -0.0290228 0)
(0.307829 -0.031537 0)
(0.309664 -0.0339515 0)
(0.311791 -0.0363622 0)
(0.314225 -0.0383677 0)
(0.316948 -0.0407143 0)
(0.319986 -0.0414234 0)
(0.323127 -0.0448332 0)
(0.300002 -0.00110558 0)
(0.300028 -0.00332113 0)
(0.300082 -0.00555586 0)
(0.300167 -0.00782566 0)
(0.300293 -0.0101459 0)
(0.300473 -0.0125307 0)
(0.300723 -0.0149928 0)
(0.301066 -0.0175431 0)
(0.301526 -0.0201894 0)
(0.302134 -0.0229364 0)
(0.302925 -0.0257809 0)
(0.303939 -0.0287197 0)
(0.30522 -0.0317217 0)
(0.306811 -0.0347911 0)
(0.308768 -0.0378018 0)
(0.311113 -0.0408951 0)
(0.313931 -0.0435087 0)
(0.317128 -0.0466849 0)
(0.320949 -0.0476599 0)
(0.324723 -0.0523618 0)
(0.3 -0.00111375 0)
(0.299992 -0.00334734 0)
(0.299979 -0.00560794 0)
(0.299962 -0.0079182 0)
(0.299953 -0.0103007 0)
(0.299966 -0.0127776 0)
(0.300021 -0.0153703 0)
(0.300142 -0.0180995 0)
(0.300361 -0.0209841 0)
(0.300717 -0.0240412 0)
(0.301259 -0.0272792 0)
(0.302039 -0.0307088 0)
(0.303129 -0.0343044 0)
(0.304591 -0.038089 0)
(0.30653 -0.0419047 0)
(0.308975 -0.0459671 0)
(0.312135 -0.0494838 0)
(0.315783 -0.0539561 0)
(0.3206 -0.0554127 0)
(0.325044 -0.062224 0)
(0.299996 -0.00108472 0)
(0.299943 -0.00326194 0)
(0.299837 -0.00547385 0)
(0.299679 -0.00774995 0)
(0.29948 -0.0101205 0)
(0.299253 -0.0126164 0)
(0.299019 -0.0152699 0)
(0.298803 -0.0181146 0)
(0.298638 -0.021185 0)
(0.298569 -0.0245171 0)
(0.298655 -0.0281409 0)
(0.298966 -0.0320933 0)
(0.299601 -0.0363715 0)
(0.300652 -0.0410363 0)
(0.302295 -0.0459151 0)
(0.304575 -0.0513347 0)
(0.307891 -0.0562129 0)
(0.311861 -0.062738 0)
(0.317807 -0.0650652 0)
(0.322975 -0.0755068 0)
(0.299991 -0.00100731 0)
(0.299881 -0.00303091 0)
(0.299659 -0.00509507 0)
(0.299323 -0.00723468 0)
(0.298881 -0.00948655 0)
(0.298343 -0.01189 0)
(0.297723 -0.0144881 0)
(0.297042 -0.0173292 0)
(0.296329 -0.020467 0)
(0.295623 -0.0239627 0)
(0.294985 -0.0278789 0)
(0.294492 -0.0322932 0)
(0.294266 -0.037253 0)
(0.294425 -0.0428816 0)
(0.295236 -0.0490552 0)
(0.296781 -0.0562374 0)
(0.299728 -0.0631494 0)
(0.303623 -0.0728202 0)
(0.310497 -0.0769484 0)
(0.316719 -0.0938107 0)
(0.299986 -0.000872739 0)
(0.299811 -0.00262747 0)
(0.299459 -0.00442447 0)
(0.298921 -0.00630066 0)
(0.298199 -0.0082959 0)
(0.297295 -0.0104545 0)
(0.296212 -0.0128277 0)
(0.294955 -0.0154765 0)
(0.293536 -0.0184735 0)
(0.291975 -0.0219073 0)
(0.290316 -0.0258809 0)
(0.288614 -0.0305255 0)
(0.286991 -0.0359687 0)
(0.285559 -0.0424213 0)
(0.28465 -0.0499111 0)
(0.284354 -0.0590018 0)
(0.285679 -0.0686101 0)
(0.288158 -0.0822192 0)
(0.294936 -0.0899278 0)
(0.302768 -0.116576 0)
(0.299981 -0.00067796 0)
(0.299743 -0.00204139 0)
(0.299262 -0.00344274 0)
(0.298522 -0.00491531 0)
(0.297519 -0.0064952 0)
(0.29624 -0.00822463 0)
(0.294669 -0.0101551 0)
(0.292786 -0.0123515 0)
(0.29057 -0.0148961 0)
(0.288 -0.0178967 0)
(0.285066 -0.0214914 0)
(0.281769 -0.0258687 0)
(0.278164 -0.0312563 0)
(0.274311 -0.0379958 0)
(0.270536 -0.0463816 0)
(0.266895 -0.0571423 0)
(0.26475 -0.0699542 0)
(0.263175 -0.087872 0)
(0.268402 -0.102392 0)
(0.273686 -0.140618 0)
(0.299977 -0.00043419 0)
(0.29969 -0.00129632 0)
(0.299105 -0.00218655 0)
(0.298204 -0.00312601 0)
(0.296971 -0.0041369 0)
(0.295381 -0.00524935 0)
(0.293394 -0.00650184 0)
(0.290958 -0.00794513 0)
(0.288006 -0.00964678 0)
(0.284454 -0.011704 0)
(0.2802 -0.0142521 0)
(0.275123 -0.017505 0)
(0.269098 -0.0217645 0)
(0.26201 -0.0275662 0)
(0.253883 -0.0356302 0)
(0.2448 -0.0474842 0)
(0.236126 -0.0646595 0)
(0.227605 -0.0921225 0)
(0.226978 -0.128493 0)
(0.208081 -0.191267 0)
(0.302026 -0.0185891 0)
(0.302752 -0.0214349 0)
(0.304203 -0.0213533 0)
(0.30557 -0.018694 0)
(0.306734 -0.0161724 0)
(0.307819 -0.0130472 0)
(0.30884 -0.00979709 0)
(0.309754 -0.00600807 0)
(0.310542 -0.00228984 0)
(0.311187 0.00164453 0)
(0.303307 -0.0188335 0)
(0.304051 -0.0218322 0)
(0.30595 -0.0216887 0)
(0.30738 -0.0190085 0)
(0.30846 -0.0164798 0)
(0.309487 -0.0133165 0)
(0.310446 -0.0100464 0)
(0.311257 -0.00622583 0)
(0.311917 -0.00248869 0)
(0.31239 0.00150209 0)
(0.305016 -0.0190837 0)
(0.305833 -0.0223508 0)
(0.308369 -0.0220474 0)
(0.309988 -0.0193077 0)
(0.311061 -0.0167698 0)
(0.312084 -0.0135561 0)
(0.313026 -0.0102624 0)
(0.313769 -0.00639574 0)
(0.314313 -0.00260986 0)
(0.314594 0.00145688 0)
(0.306921 -0.0193921 0)
(0.30783 -0.0230199 0)
(0.311102 -0.022447 0)
(0.312962 -0.0196114 0)
(0.314094 -0.0170586 0)
(0.315179 -0.0137772 0)
(0.316163 -0.010457 0)
(0.316896 -0.0065317 0)
(0.317379 -0.0026941 0)
(0.317509 0.00147259 0)
(0.308998 -0.0197751 0)
(0.309974 -0.0238681 0)
(0.31406 -0.0229122 0)
(0.316158 -0.0199553 0)
(0.317384 -0.0173794 0)
(0.318571 -0.0140118 0)
(0.319636 -0.0106625 0)
(0.320404 -0.00666488 0)
(0.32087 -0.00276658 0)
(0.320896 0.00153382 0)
(0.311276 -0.0202367 0)
(0.312269 -0.0249081 0)
(0.317246 -0.0234422 0)
(0.31955 -0.020349 0)
(0.320884 -0.0177391 0)
(0.32219 -0.0142675 0)
(0.323348 -0.0108884 0)
(0.324169 -0.00680486 0)
(0.324638 -0.00283436 0)
(0.324581 0.00163654 0)
(0.313804 -0.0207811 0)
(0.314737 -0.0261508 0)
(0.320686 -0.0240296 0)
(0.323147 -0.0207952 0)
(0.324591 -0.0181366 0)
(0.326016 -0.0145431 0)
(0.327251 -0.0111348 0)
(0.328108 -0.0069512 0)
(0.328565 -0.00289785 0)
(0.328409 0.00178114 0)
(0.316636 -0.0214137 0)
(0.317405 -0.0276071 0)
(0.324413 -0.0246657 0)
(0.326966 -0.0212961 0)
(0.32851 -0.0185679 0)
(0.330024 -0.0148333 0)
(0.331278 -0.011395 0)
(0.33211 -0.00709607 0)
(0.332487 -0.00295073 0)
(0.332179 0.00197563 0)
(0.319833 -0.022143 0)
(0.320301 -0.0292876 0)
(0.32846 -0.0253404 0)
(0.331016 -0.0218514 0)
(0.332616 -0.019022 0)
(0.33413 -0.0151227 0)
(0.335269 -0.0116504 0)
(0.335941 -0.00721895 0)
(0.336104 -0.00297578 0)
(0.335539 0.00223683 0)
(0.323466 -0.0229839 0)
(0.323455 -0.0312015 0)
(0.332854 -0.0260393 0)
(0.335268 -0.0224526 0)
(0.33679 -0.0194713 0)
(0.338098 -0.0153765 0)
(0.338857 -0.0118607 0)
(0.339126 -0.00727955 0)
(0.338853 -0.00293992 0)
(0.337886 0.00258938 0)
(0.327639 -0.0239639 0)
(0.326897 -0.0333544 0)
(0.337585 -0.026737 0)
(0.339569 -0.02307 0)
(0.34069 -0.0198539 0)
(0.341378 -0.0155242 0)
(0.341312 -0.0119524 0)
(0.340795 -0.00721144 0)
(0.339781 -0.00279427 0)
(0.338248 0.00306143 0)
(0.332532 -0.0251341 0)
(0.330624 -0.03574 0)
(0.342502 -0.0273778 0)
(0.343446 -0.0236259 0)
(0.343516 -0.0200451 0)
(0.342872 -0.0154424 0)
(0.341336 -0.0118103 0)
(0.339524 -0.00692158 0)
(0.33744 -0.00248333 0)
(0.335214 0.00367558 0)
(0.338474 -0.0265853 0)
(0.334461 -0.0383089 0)
(0.347052 -0.0278386 0)
(0.345752 -0.0239519 0)
(0.343668 -0.0198302 0)
(0.34067 -0.0149468 0)
(0.336907 -0.0112827 0)
(0.333255 -0.00630567 0)
(0.329903 -0.0019652 0)
(0.326982 0.00443038 0)
(0.34599 -0.0284674 0)
(0.33767 -0.0408661 0)
(0.349772 -0.0278515 0)
(0.344162 -0.0237312 0)
(0.338416 -0.0189027 0)
(0.331917 -0.0138172 0)
(0.325319 -0.0102165 0)
(0.31946 -0.00528755 0)
(0.315008 -0.00124843 0)
(0.311596 0.00527256 0)
(0.355573 -0.0309348 0)
(0.338149 -0.0428534 0)
(0.347531 -0.0269092 0)
(0.334701 -0.02248 0)
(0.323837 -0.0169222 0)
(0.313075 -0.0118759 0)
(0.303614 -0.00852866 0)
(0.295672 -0.00388631 0)
(0.290902 -0.000418489 0)
(0.287387 0.00608391 0)
(0.366647 -0.0338043 0)
(0.331199 -0.0431528 0)
(0.334816 -0.0242694 0)
(0.31182 -0.0196552 0)
(0.295467 -0.0136763 0)
(0.280861 -0.00912296 0)
(0.269539 -0.00630503 0)
(0.260401 -0.00227363 0)
(0.256734 0.00030625 0)
(0.253478 0.00668263 0)
(0.375023 -0.0368975 0)
(0.308267 -0.0404147 0)
(0.303841 -0.0192935 0)
(0.269764 -0.0150015 0)
(0.25007 -0.00936155 0)
(0.233877 -0.00589962 0)
(0.222764 -0.00388359 0)
(0.214028 -0.000805759 0)
(0.213039 0.000697701 0)
(0.210028 0.00685762 0)
(0.368306 -0.0411377 0)
(0.257244 -0.0333937 0)
(0.246897 -0.0120877 0)
(0.205913 -0.00904425 0)
(0.188186 -0.00482001 0)
(0.174059 -0.00290537 0)
(0.165507 -0.00179183 0)
(0.158925 0.000125058 0)
(0.161262 0.000664688 0)
(0.15794 0.00640991 0)
(0.318584 -0.0259455 0)
(0.167651 -0.0175305 0)
(0.161948 -0.0033332 0)
(0.125044 -0.00311716 0)
(0.115281 -0.00130109 0)
(0.106268 -0.000810628 0)
(0.101609 -0.000435306 0)
(0.098186 0.000330921 0)
(0.1025 0.000227962 0)
(0.0984229 0.00566475 0)
(0.175147 -0.0278691 0)
(0.0424132 -0.0055995 0)
(0.0568688 0.000419381 0)
(0.0392715 -0.000292664 0)
(0.0384711 -8.91362e-06 0)
(0.0354983 -3.35816e-05 0)
(0.0344278 9.22434e-06 0)
(0.033788 0.000112618 0)
(0.0368041 3.3763e-05 0)
(0.032751 0.00227085 0)
(0.311512 0.00410439 0)
(0.311677 0.00547618 0)
(0.311806 0.00669086 0)
(0.31191 0.00772685 0)
(0.311989 0.00858272 0)
(0.312057 0.00926509 0)
(0.312111 0.00979516 0)
(0.312163 0.0101877 0)
(0.312205 0.0104675 0)
(0.312252 0.0106463 0)
(0.31229 0.0107515 0)
(0.312341 0.0107895 0)
(0.312378 0.0107894 0)
(0.312437 0.0107485 0)
(0.312473 0.010699 0)
(0.312543 0.0106267 0)
(0.312576 0.0105701 0)
(0.312661 0.0105003 0)
(0.312685 0.0104659 0)
(0.312788 0.0104178 0)
(0.31255 0.00400985 0)
(0.312603 0.00540663 0)
(0.312618 0.00664056 0)
(0.312613 0.00769008 0)
(0.312596 0.00855428 0)
(0.312581 0.00924182 0)
(0.312569 0.00977462 0)
(0.312567 0.0101686 0)
(0.312568 0.0104482 0)
(0.312584 0.0106266 0)
(0.312599 0.0107301 0)
(0.312634 0.0107672 0)
(0.312661 0.0107648 0)
(0.312713 0.0107232 0)
(0.312748 0.0106711 0)
(0.312817 0.0105986 0)
(0.312851 0.0105393 0)
(0.312938 0.0104704 0)
(0.312963 0.0104332 0)
(0.31307 0.0103876 0)
(0.314541 0.00400346 0)
(0.314445 0.00542137 0)
(0.3143 0.00666976 0)
(0.314133 0.00772529 0)
(0.313963 0.00858847 0)
(0.313812 0.00927159 0)
(0.313679 0.00979799 0)
(0.313574 0.0101851 0)
(0.313488 0.0104567 0)
(0.313432 0.0106279 0)
(0.313389 0.0107239 0)
(0.313377 0.0107553 0)
(0.313369 0.0107465 0)
(0.313392 0.010701 0)
(0.313407 0.0106435 0)
(0.313459 0.0105693 0)
(0.313485 0.0105054 0)
(0.313562 0.0104371 0)
(0.313583 0.0103963 0)
(0.313683 0.0103554 0)
(0.317253 0.00407982 0)
(0.317008 0.00552887 0)
(0.316695 0.0067962 0)
(0.316353 0.00785584 0)
(0.316014 0.00871177 0)
(0.315704 0.00938222 0)
(0.315429 0.00989334 0)
(0.315195 0.0102643 0)
(0.314996 0.0105191 0)
(0.31484 0.0106748 0)
(0.314714 0.0107558 0)
(0.314628 0.0107748 0)
(0.314562 0.010754 0)
(0.314533 0.0106998 0)
(0.31451 0.0106331 0)
(0.314524 0.0105537 0)
(0.314527 0.0104831 0)
(0.314575 0.0104131 0)
(0.314586 0.0103684 0)
(0.314658 0.0103299 0)
(0.320458 0.00422585 0)
(0.320071 0.00571887 0)
(0.319593 0.00701216 0)
(0.319076 0.00807624 0)
(0.318568 0.00892136 0)
(0.318099 0.00957377 0)
(0.317679 0.0100633 0)
(0.317311 0.0104111 0)
(0.316992 0.0106418 0)
(0.316725 0.0107746 0)
(0.316506 0.010834 0)
(0.316333 0.0108344 0)
(0.316196 0.0107962 0)
(0.316099 0.0107281 0)
(0.316025 0.010648 0)
(0.315984 0.0105593 0)
(0.315954 0.0104793 0)
(0.315953 0.0104046 0)
(0.315949 0.0103548 0)
(0.315971 0.010316 0)
(0.323967 0.00443877 0)
(0.32344 0.00598978 0)
(0.322793 0.0073156 0)
(0.322098 0.00838326 0)
(0.321421 0.00921365 0)
(0.320797 0.00984317 0)
(0.320236 0.0103058 0)
(0.319735 0.0106241 0)
(0.319297 0.0108246 0)
(0.318921 0.0109285 0)
(0.318607 0.0109609 0)
(0.318344 0.0109371 0)
(0.318133 0.010877 0)
(0.31796 0.0107901 0)
(0.317831 0.0106932 0)
(0.317724 0.0105912 0)
(0.317656 0.0104993 0)
(0.317593 0.0104166 0)
(0.317569 0.0103604 0)
(0.317524 0.0103188 0)
(0.327606 0.00472255 0)
(0.326921 0.0063474 0)
(0.326086 0.00771073 0)
(0.325199 0.0087784 0)
(0.324348 0.00958858 0)
(0.323567 0.0101895 0)
(0.322864 0.0106194 0)
(0.322232 0.0109017 0)
(0.321679 0.0110661 0)
(0.321195 0.0111352 0)
(0.320789 0.011136 0)
(0.320436 0.0110831 0)
(0.320152 0.0109973 0)
(0.3199 0.0108875 0)
(0.319715 0.010771 0)
(0.319538 0.010652 0)
(0.319431 0.0105463 0)
(0.319298 0.0104526 0)
(0.319254 0.0103887 0)
(0.319133 0.0103424 0)
(0.331142 0.00509057 0)
(0.330267 0.00680658 0)
(0.329208 0.0082087 0)
(0.328101 0.00926853 0)
(0.32706 0.0100506 0)
(0.326114 0.0106157 0)
(0.325265 0.0110054 0)
(0.324499 0.0112438 0)
(0.32383 0.0113657 0)
(0.323238 0.0113939 0)
(0.322741 0.0113586 0)
(0.3223 0.0112716 0)
(0.321945 0.0111571 0)
(0.321616 0.0110201 0)
(0.321376 0.010882 0)
(0.321127 0.0107424 0)
(0.320982 0.0106217 0)
(0.320778 0.0105138 0)
(0.320713 0.0104417 0)
(0.320514 0.0103884 0)
(0.334203 0.00556761 0)
(0.333088 0.00739196 0)
(0.331752 0.00882695 0)
(0.33039 0.00986525 0)
(0.32914 0.0106084 0)
(0.328016 0.0111276 0)
(0.327013 0.0114672 0)
(0.326109 0.011652 0)
(0.325324 0.011724 0)
(0.324627 0.0117043 0)
(0.324042 0.0116282 0)
(0.323515 0.0115018 0)
(0.323092 0.0113557 0)
(0.32269 0.0111872 0)
(0.322398 0.0110258 0)
(0.322083 0.0108617 0)
(0.3219 0.0107251 0)
(0.321631 0.0105996 0)
(0.321546 0.010519 0)
(0.321277 0.0104563 0)
(0.336169 0.00618948 0)
(0.334753 0.00813574 0)
(0.333081 0.00958544 0)
(0.331433 0.0105815 0)
(0.329962 0.0112716 0)
(0.328656 0.0117313 0)
(0.327498 0.0120074 0)
(0.326462 0.0121267 0)
(0.325566 0.0121403 0)
(0.324775 0.0120649 0)
(0.324111 0.0119427 0)
(0.323511 0.011771 0)
(0.323028 0.0115905 0)
(0.322567 0.0113856 0)
(0.32223 0.0111998 0)
(0.321863 0.0110068 0)
(0.321649 0.0108539 0)
(0.321332 0.0107067 0)
(0.32123 0.0106175 0)
(0.320912 0.0105421 0)
(0.336085 0.00700045 0)
(0.334306 0.00906988 0)
(0.332251 0.0104981 0)
(0.33031 0.0114245 0)
(0.32863 0.0120436 0)
(0.327161 0.0124254 0)
(0.32587 0.0126211 0)
(0.324729 0.0126613 0)
(0.323752 0.0126069 0)
(0.322896 0.0124674 0)
(0.322179 0.0122938 0)
(0.321538 0.0120707 0)
(0.321019 0.0118532 0)
(0.32053 0.0116069 0)
(0.320167 0.011396 0)
(0.319783 0.011169 0)
(0.319551 0.0110004 0)
(0.319226 0.0108261 0)
(0.319114 0.0107289 0)
(0.318795 0.0106363 0)
(0.332608 0.0080519 0)
(0.330431 0.0102126 0)
(0.327987 0.0115602 0)
(0.325799 0.0123858 0)
(0.323971 0.0129116 0)
(0.322402 0.0131913 0)
(0.321043 0.0132868 0)
(0.319865 0.0132338 0)
(0.318871 0.0131018 0)
(0.318017 0.0128901 0)
(0.317306 0.0126602 0)
(0.316685 0.0123803 0)
(0.31618 0.0121241 0)
(0.315725 0.0118317 0)
(0.315379 0.0115962 0)
(0.31504 0.0113297 0)
(0.314822 0.0111471 0)
(0.314558 0.0109394 0)
(0.314454 0.0108359 0)
(0.31422 0.01072 0)
(0.324083 0.00938962 0)
(0.321522 0.0115446 0)
(0.318764 0.0127328 0)
(0.316461 0.0134285 0)
(0.314618 0.0138323 0)
(0.313075 0.0139809 0)
(0.311774 0.0139562 0)
(0.310684 0.0137977 0)
(0.309789 0.0135799 0)
(0.309051 0.0132901 0)
(0.308449 0.0130003 0)
(0.307954 0.0126605 0)
(0.307554 0.0123654 0)
(0.307234 0.0120239 0)
(0.306978 0.0117656 0)
(0.306789 0.0114551 0)
(0.306641 0.011262 0)
(0.306555 0.0110138 0)
(0.306491 0.0109075 0)
(0.30648 0.010761 0)
(0.308791 0.0110253 0)
(0.305915 0.0129818 0)
(0.303033 0.0139319 0)
(0.300851 0.014475 0)
(0.299205 0.0147199 0)
(0.297892 0.0147077 0)
(0.296849 0.0145464 0)
(0.296037 0.0142744 0)
(0.295421 0.0139658 0)
(0.294969 0.0135961 0)
(0.294635 0.0132463 0)
(0.294424 0.0128473 0)
(0.294269 0.0125153 0)
(0.294234 0.0121249 0)
(0.29419 0.0118477 0)
(0.2943 0.0114907 0)
(0.294317 0.0112924 0)
(0.294571 0.0109976 0)
(0.294602 0.0108941 0)
(0.295012 0.0107093 0)
(0.285363 0.0129111 0)
(0.282245 0.0143618 0)
(0.279572 0.0150361 0)
(0.277841 0.0154011 0)
(0.276677 0.0154409 0)
(0.275874 0.0152434 0)
(0.275362 0.0149369 0)
(0.275088 0.0145499 0)
(0.274997 0.0141506 0)
(0.275066 0.0137053 0)
(0.275223 0.0132993 0)
(0.27551 0.0128475 0)
(0.275799 0.0124835 0)
(0.276248 0.0120497 0)
(0.276587 0.0117595 0)
(0.277193 0.0113582 0)
(0.277509 0.0111626 0)
(0.278312 0.0108177 0)
(0.27852 0.0107254 0)
(0.279602 0.0104961 0)
(0.253214 0.0149393 0)
(0.249802 0.0154426 0)
(0.247842 0.0159065 0)
(0.246953 0.0160352 0)
(0.246627 0.0158163 0)
(0.246701 0.0154206 0)
(0.247078 0.014969 0)
(0.24768 0.0144723 0)
(0.248435 0.0139893 0)
(0.249326 0.01348 0)
(0.250259 0.0130277 0)
(0.251311 0.0125367 0)
(0.252296 0.0121507 0)
(0.253469 0.0116867 0)
(0.254408 0.011393 0)
(0.255731 0.0109572 0)
(0.25652 0.0107753 0)
(0.258097 0.0103833 0)
(0.258588 0.010314 0)
(0.260612 0.0100381 0)
(0.212688 0.0170548 0)
(0.208708 0.0160144 0)
(0.208299 0.0164264 0)
(0.208707 0.0161556 0)
(0.209724 0.0156224 0)
(0.211184 0.015027 0)
(0.212916 0.0144383 0)
(0.214816 0.013847 0)
(0.216803 0.0132989 0)
(0.218865 0.0127494 0)
(0.220895 0.0122719 0)
(0.223 0.0117671 0)
(0.224948 0.0113781 0)
(0.227083 0.0109083 0)
(0.228846 0.0106276 0)
(0.23109 0.0101783 0)
(0.232531 0.0100256 0)
(0.235074 0.0095994 0)
(0.235962 0.00956918 0)
(0.239156 0.00925097 0)
(0.164935 0.0192906 0)
(0.160179 0.015988 0)
(0.162884 0.0163886 0)
(0.165245 0.0153853 0)
(0.168411 0.0145438 0)
(0.171918 0.0137736 0)
(0.175536 0.0130835 0)
(0.179171 0.0124425 0)
(0.182755 0.011876 0)
(0.186293 0.0113338 0)
(0.189683 0.0108729 0)
(0.193061 0.0103973 0)
(0.19617 0.0100392 0)
(0.19943 0.00960173 0)
(0.202172 0.00936011 0)
(0.205457 0.00893045 0)
(0.207672 0.00882892 0)
(0.211278 0.00839227 0)
(0.212644 0.00842309 0)
(0.217114 0.00807178 0)
(0.112447 0.018962 0)
(0.107931 0.0140995 0)
(0.116245 0.0148525 0)
(0.121458 0.0129858 0)
(0.127719 0.0121293 0)
(0.133782 0.0113041 0)
(0.139619 0.0106388 0)
(0.145207 0.0100556 0)
(0.150531 0.00956339 0)
(0.155637 0.00910784 0)
(0.160444 0.00873054 0)
(0.165124 0.00834439 0)
(0.169413 0.00806668 0)
(0.173792 0.00770944 0)
(0.177514 0.00754494 0)
(0.181812 0.0071716 0)
(0.184795 0.00715736 0)
(0.189417 0.00672744 0)
(0.191254 0.00686856 0)
(0.196931 0.00647213 0)
(0.0615302 0.0234635 0)
(0.0619291 0.0107925 0)
(0.077155 0.011203 0)
(0.085355 0.0085002 0)
(0.0948817 0.00816215 0)
(0.103265 0.00746395 0)
(0.111092 0.00704515 0)
(0.11837 0.00667036 0)
(0.125165 0.00637191 0)
(0.131574 0.00609749 0)
(0.137541 0.00588047 0)
(0.143279 0.00564928 0)
(0.148513 0.00550521 0)
(0.153788 0.0052772 0)
(0.158281 0.00522854 0)
(0.163387 0.00494754 0)
(0.166958 0.00505804 0)
(0.172394 0.00463606 0)
(0.174561 0.00498 0)
(0.181192 0.00444873 0)
(0.0398352 0.0146037 0)
(0.0441243 0.00658711 0)
(0.0639145 0.00704374 0)
(0.0733759 0.00521963 0)
(0.0841909 0.00514479 0)
(0.0932965 0.00472867 0)
(0.101793 0.00452848 0)
(0.109606 0.00433958 0)
(0.116866 0.0041968 0)
(0.12368 0.00406564 0)
(0.130004 0.0039661 0)
(0.136066 0.00385651 0)
(0.141585 0.00379617 0)
(0.147136 0.00368392 0)
(0.151854 0.00367792 0)
(0.157214 0.00352785 0)
(0.160941 0.00361971 0)
(0.166656 0.00337109 0)
(0.168864 0.00362251 0)
(0.17583 0.00326954 0)
(0.0343905 0.0109415 0)
(0.0396699 0.00529418 0)
(0.0605731 0.00565625 0)
(0.0703609 0.0042182 0)
(0.0814954 0.00418851 0)
(0.0907787 0.00387875 0)
(0.0994399 0.00374386 0)
(0.107383 0.00361468 0)
(0.114756 0.00352059 0)
(0.121668 0.00343463 0)
(0.128078 0.00337158 0)
(0.134219 0.00330056 0)
(0.139807 0.0032654 0)
(0.145424 0.00319095 0)
(0.150197 0.00319542 0)
(0.155619 0.00309092 0)
(0.159383 0.00316927 0)
(0.165166 0.00298768 0)
(0.167383 0.0031896 0)
(0.174432 0.00292503 0)
(0.0302655 0.00749834 0)
(0.0362982 0.00394911 0)
(0.0580071 0.0041967 0)
(0.0680464 0.00319999 0)
(0.0794165 0.00321047 0)
(0.0888306 0.00301693 0)
(0.0976116 0.00294812 0)
(0.105649 0.00288084 0)
(0.113104 0.00283657 0)
(0.120087 0.00279685 0)
(0.126559 0.00277096 0)
(0.132756 0.0027393 0)
(0.138394 0.00272952 0)
(0.144058 0.00269382 0)
(0.14887 0.00270824 0)
(0.154336 0.00265111 0)
(0.158126 0.00271383 0)
(0.163959 0.00260351 0)
(0.166182 0.00275022 0)
(0.173291 0.00258275 0)
(0.0274863 0.00448561 0)
(0.0340264 0.00253853 0)
(0.0562512 0.00269625 0)
(0.0664548 0.00215974 0)
(0.0779727 0.00221814 0)
(0.0874676 0.00214468 0)
(0.0963224 0.00214368 0)
(0.104418 0.00213981 0)
(0.111921 0.00214638 0)
(0.118946 0.00215368 0)
(0.125456 0.00216557 0)
(0.131686 0.00217373 0)
(0.137353 0.00218976 0)
(0.143045 0.00219311 0)
(0.147881 0.0022178 0)
(0.153373 0.00220824 0)
(0.157179 0.00225558 0)
(0.163042 0.00221659 0)
(0.165267 0.00230895 0)
(0.172414 0.00223667 0)
(0.0260668 0.00169777 0)
(0.0328686 0.00108773 0)
(0.0553295 0.0011737 0)
(0.0656013 0.00110722 0)
(0.077177 0.00121842 0)
(0.0867006 0.00126699 0)
(0.0955821 0.00133481 0)
(0.103697 0.00139519 0)
(0.111216 0.00145314 0)
(0.118254 0.00150787 0)
(0.124776 0.00155786 0)
(0.131016 0.00160609 0)
(0.136692 0.00164814 0)
(0.142392 0.00169066 0)
(0.147235 0.00172578 0)
(0.152735 0.00176386 0)
(0.156547 0.00179595 0)
(0.162419 0.00182828 0)
(0.164644 0.00186681 0)
(0.171805 0.00188843 0)
(0.0260156 -0.00102733 0)
(0.0328351 -0.000375016 0)
(0.0552544 -0.000354095 0)
(0.0654941 5.2984e-05 0)
(0.0770366 0.000218041 0)
(0.0865359 0.000389003 0)
(0.0953966 0.000525788 0)
(0.103492 0.000650568 0)
(0.110994 0.00075998 0)
(0.118016 0.000862177 0)
(0.124524 0.000950298 0)
(0.130749 0.00103857 0)
(0.136415 0.00110665 0)
(0.142102 0.0011883 0)
(0.146938 0.00123386 0)
(0.152425 0.00131953 0)
(0.156233 0.00133634 0)
(0.162094 0.00144002 0)
(0.164317 0.00142466 0)
(0.171468 0.00153997 0)
(0.0273347 -0.00380722 0)
(0.0339281 -0.00182363 0)
(0.0560265 -0.00186971 0)
(0.0661344 -0.000993325 0)
(0.0775525 -0.00077623 0)
(0.086975 -0.000484401 0)
(0.0957674 -0.000279272 0)
(0.103805 -9.05953e-05 0)
(0.111257 6.99165e-05 0)
(0.118233 0.000219249 0)
(0.124701 0.000345259 0)
(0.130889 0.000473312 0)
(0.136523 0.000567257 0)
(0.142178 0.000687795 0)
(0.146989 0.000743683 0)
(0.152447 0.000876696 0)
(0.156239 0.000878195 0)
(0.162069 0.00105297 0)
(0.164287 0.00098362 0)
(0.171405 0.00119247 0)
(0.0300196 -0.00680353 0)
(0.0361416 -0.00322884 0)
(0.0576348 -0.00335598 0)
(0.0675157 -0.00202089 0)
(0.0787203 -0.00175759 0)
(0.0880147 -0.00134804 0)
(0.096692 -0.00107604 0)
(0.104634 -0.000824648 0)
(0.112003 -0.000613874 0)
(0.118904 -0.000418108 0)
(0.125307 -0.00025475 0)
(0.131434 -8.74296e-05 0)
(0.137016 3.20026e-05 0)
(0.142618 0.000191005 0)
(0.14739 0.000256965 0)
(0.152799 0.000436957 0)
(0.156566 0.000422948 0)
(0.162343 0.00066861 0)
(0.164555 0.000544616 0)
(0.171615 0.000847763 0)
(0.0340606 -0.010222 0)
(0.0394658 -0.00456416 0)
(0.0600565 -0.00479347 0)
(0.0696247 -0.00301975 0)
(0.0805294 -0.00271908 0)
(0.0896469 -0.0021969 0)
(0.0981638 -0.00186019 0)
(0.105974 -0.00154795 0)
(0.113227 -0.00128821 0)
(0.120026 -0.00104709 0)
(0.126338 -0.000847215 0)
(0.132381 -0.000641385 0)
(0.137891 -0.000497046 0)
(0.143421 -0.000300168 0)
(0.148138 -0.000224555 0)
(0.15348 1.92374e-06 0)
(0.15721 -2.79166e-05 0)
(0.162916 0.0002884 0)
(0.165119 0.000108734 0)
(0.172098 0.000509211 0)
(0.039436 -0.0138566 0)
(0.0438875 -0.00584902 0)
(0.0632575 -0.00615172 0)
(0.0724412 -0.00399763 0)
(0.0829637 -0.00365418 0)
(0.0918591 -0.00303022 0)
(0.100172 -0.00262992 0)
(0.107814 -0.00225926 0)
(0.114921 -0.0019519 0)
(0.121589 -0.00166673 0)
(0.127787 -0.00143119 0)
(0.133724 -0.00118789 0)
(0.139144 -0.00101899 0)
(0.144583 -0.000785455 0)
(0.149229 -0.000699749 0)
(0.154486 -0.000428883 0)
(0.158171 -0.00047245 0)
(0.163785 -8.98391e-05 0)
(0.165978 -0.000319836 0)
(0.172851 0.000174945 0)
(0.0649439 -0.0243223 0)
(0.0649259 -0.0108717 0)
(0.0784205 -0.0109551 0)
(0.0858998 -0.00780144 0)
(0.094664 -0.00713945 0)
(0.102543 -0.00619928 0)
(0.109913 -0.00554773 0)
(0.11678 -0.00496184 0)
(0.123209 -0.00447436 0)
(0.129276 -0.00402441 0)
(0.134945 -0.00365335 0)
(0.140392 -0.00327097 0)
(0.145389 -0.00300554 0)
(0.150408 -0.00264025 0)
(0.154726 -0.00250535 0)
(0.159593 -0.00208553 0)
(0.163059 -0.00215139 0)
(0.168254 -0.0015692 0)
(0.170395 -0.00191215 0)
(0.176774 -0.00118572 0)