/*--------------------------------*- C++ -*----------------------------------*\
| =========                 |                                                 |
| \\      /  F ield         | OpenFOAM: The Open Source CFD Toolbox           |
|  \\    /   O peration     | Version:  v1806                                 |
|   \\  /    A nd           | Web:      www.OpenFOAM.com                      |
|    \\/     M anipulation  |                                                 |
\*---------------------------------------------------------------------------*/
FoamFile
{
    version     2.0;
    format      ascii;
    class       surfaceScalarField;
    location    "450";
    object      phi;
}
// * * * * * * * * * * * * * * * * * * * * * * * * * * * * * * * * * * * * * //

dimensions      [0 3 -1 0 0 0 0];
oriented        oriented;


internalField   nonuniform List<scalar> 
8600
(
0.161592
-0.0654168
-0.148638
0.0524634
0.150541
-0.0692959
0.0803461
0.131019
-0.0696867
0.0892091
0.111508
-0.0699742
0.0894858
0.0957834
-0.0709901
0.0867143
0.0843955
-0.0725831
0.083971
0.0763937
-0.0743375
0.0823393
0.0706055
-0.0759217
0.0817099
0.0661913
-0.0772165
0.0816308
0.0626939
-0.0782584
0.0817557
0.059892
-0.0791294
0.0819313
0.0576642
-0.0798932
0.082121
0.0559205
-0.0805826
0.0823264
0.0545816
-0.081211
0.0825498
0.0535791
-0.0817848
0.0827873
0.052857
-0.0823096
0.0830317
0.0523722
-0.0827912
0.083276
0.0520925
-0.0832323
0.083512
0.0519948
-0.0836268
0.0837244
-0.0839318
0.0838777
0.0273863
-0.0648835
-0.0279197
0.0241782
-0.0660878
0.0228209
-0.0683294
0.0245545
-0.0717078
0.0280986
-0.0745342
0.0320491
-0.0765335
0.0354925
-0.0777809
0.0381416
-0.0785709
0.0400949
-0.0791698
0.0415573
-0.0797208
0.0426941
-0.0802662
0.0436035
-0.0808025
0.0443388
-0.0813179
0.0449348
-0.0818071
0.0454211
-0.082271
0.0458248
-0.0827133
0.0461696
-0.083136
0.0464725
-0.0835352
0.0467377
-0.0838919
-0.0841443
0.0391864
-0.0711443
-0.0329256
0.0456401
-0.0725414
0.0510808
-0.0737702
0.0539274
-0.0745543
0.0545265
-0.0751333
0.0537007
-0.0757077
0.0522428
-0.076323
0.0506752
-0.0770033
0.0492305
-0.0777251
0.0479603
-0.0784506
0.0468468
-0.0791528
0.0458668
-0.0798225
0.0450111
-0.0804622
0.0442815
-0.0810774
0.043683
-0.0816725
0.0432197
-0.08225
0.0428939
-0.0828102
0.0427084
-0.0833498
0.0426704
-0.0838539
-0.0842585
0.011004
-0.0740398
-0.00810848
0.0127317
-0.0742692
0.0135828
-0.0746213
0.0142895
-0.0752611
0.0153549
-0.0761987
0.0169503
-0.0773031
0.0189166
-0.0782893
0.0210023
-0.079089
0.0230156
-0.0797384
0.0248574
-0.0802924
0.0265026
-0.080798
0.0279625
-0.0812825
0.0292564
-0.0817561
0.0303993
-0.0822203
0.0314006
-0.0826738
0.0322656
-0.083115
0.0329969
-0.0835415
0.0335929
-0.0839458
0.0340442
-0.0843052
-0.0845597
0.0167185
-0.0769215
-0.0138369
0.0198144
-0.077365
0.0230442
-0.0778511
0.0260892
-0.0783061
0.028573
-0.0786825
0.0302521
-0.0789822
0.0312416
-0.0792788
0.0317655
-0.0796129
0.03201
-0.0799829
0.0321027
-0.0803851
0.0321145
-0.0808098
0.0320791
-0.081247
0.032013
-0.08169
0.0319283
-0.0821357
0.0318377
-0.0825832
0.0317548
-0.0830321
0.0316939
-0.0834806
0.0316705
-0.0839224
0.0317044
-0.0843391
-0.0846651
0.0049854
-0.0787369
-0.00316996
0.00644403
-0.0788237
0.00754777
-0.0789548
0.00840375
-0.0791621
0.00920458
-0.0794833
0.0101295
-0.0799071
0.0112419
-0.0803912
0.0125006
-0.0808715
0.0138253
-0.0813077
0.0151434
-0.0817032
0.0164036
-0.08207
0.0175776
-0.0824211
0.0186531
-0.0827654
0.0196248
-0.0831074
0.0204893
-0.0834477
0.0212421
-0.0837848
0.0218768
-0.0841154
0.0223855
-0.0844311
0.0227578
-0.0847114
-0.0849104
0.00904861
-0.0803426
-0.00744295
0.0107655
-0.0805406
0.0125679
-0.0807572
0.0143936
-0.0809879
0.0161148
-0.0812045
0.0176055
-0.0813978
0.0187891
-0.0815747
0.0196692
-0.0817517
0.0203129
-0.0819514
0.0207851
-0.0821754
0.0211372
-0.082422
0.0214033
-0.0826872
0.0216046
-0.0829668
0.0217545
-0.0832573
0.0218633
-0.0835565
0.021941
-0.0838625
0.0219983
-0.0841726
0.0220477
-0.0844805
0.0221061
-0.0847698
-0.0849892
0.00244997
-0.0814836
-0.00130898
0.00343002
-0.0815206
0.00426085
-0.081588
0.00495574
-0.0816828
0.00557478
-0.0818235
0.0061927
-0.0820158
0.0068673
-0.0822493
0.00762156
-0.0825059
0.00843413
-0.0827639
0.00927082
-0.0830121
0.0100989
-0.08325
0.0108924
-0.0834807
0.0116336
-0.083708
0.0123108
-0.0839345
0.0129156
-0.0841613
0.0134409
-0.0843879
0.01388
-0.0846117
0.0142261
-0.0848266
0.0144739
-0.0850177
-0.0851538
0.00542962
-0.0824436
-0.00446953
0.00645723
-0.0825482
0.00752641
-0.0826572
0.00862357
-0.0827799
0.00970348
-0.0829034
0.0107077
-0.08302
0.0115879
-0.0831296
0.0123193
-0.0832373
0.0129053
-0.08335
0.0133692
-0.083476
0.0137358
-0.0836167
0.0140266
-0.0837715
0.0142573
-0.0839386
0.0144389
-0.0841161
0.0145795
-0.0843019
0.014686
-0.0844944
0.0147655
-0.0846911
0.014826
-0.0848871
0.0148788
-0.0850705
-0.0852066
0.00121177
-0.0831683
-0.000487147
0.0018474
-0.0831838
0.00241078
-0.0832205
0.00290065
-0.0832698
0.00333711
-0.0833399
0.00375252
-0.0834354
0.0041777
-0.0835548
0.00463176
-0.0836913
0.00511853
-0.0838368
0.00562587
-0.0839833
0.00613673
-0.0841276
0.00663455
-0.0842693
0.00710547
-0.0844096
0.00753877
-0.0845494
0.0079263
-0.0846894
0.00826156
-0.0848297
0.00853919
-0.0849688
0.00875506
-0.0851029
0.00890737
-0.0852228
-0.0853087
0.00342794
-0.0837556
-0.00284057
0.00405896
-0.0838149
0.00471139
-0.083873
0.00538177
-0.0839402
0.00605205
-0.0840102
0.00669488
-0.0840782
0.00728316
-0.084143
0.00779805
-0.0842062
0.00823222
-0.084271
0.00858953
-0.0843406
0.00888007
-0.0844181
0.00911493
-0.0845042
0.00930386
-0.0845985
0.00945456
-0.0847001
0.00957295
-0.0848078
0.00966382
-0.0849206
0.00973165
-0.0850366
0.0097814
-0.0851527
0.00982007
-0.0852615
-0.0853416
0.000559091
-0.0842138
-0.000100974
0.000963056
-0.0842188
0.00132823
-0.0842381
0.00165172
-0.0842637
0.00194075
-0.0842992
0.00220999
-0.0843475
0.00247559
-0.0844086
0.00274971
-0.0844803
0.00303762
-0.0845589
0.00333757
-0.0846405
0.003642
-0.0847225
0.00394166
-0.0848039
0.00422761
-0.0848844
0.00449218
-0.0849646
0.00472916
-0.0850448
0.00493363
-0.085125
0.00510181
-0.0852048
0.00523126
-0.0852821
0.0053217
-0.0853519
-0.0854025
0.0022205
-0.0845723
-0.00186193
0.00260829
-0.0846066
0.00300797
-0.0846378
0.0034187
-0.0846744
0.00383246
-0.084713
0.00423573
-0.0847507
0.00461355
-0.0847865
0.00495376
-0.0848205
0.00524943
-0.0848545
0.00549918
-0.0848903
0.00570609
-0.0849295
0.00587537
-0.0849731
0.00601255
-0.0850216
0.00612249
-0.0850746
0.0062092
-0.0851315
0.00627592
-0.0851917
0.00632544
-0.0852543
0.00636072
-0.0853174
0.00638597
-0.0853771
-0.0854216
0.000200984
-0.0848562
8.29227e-05
0.000450231
-0.0848559
0.000677434
-0.084865
0.000880095
-0.084877
0.00106088
-0.0848937
0.00122681
-0.0849167
0.00138652
-0.0849462
0.00154739
-0.0849814
0.00171363
-0.0850208
0.00188574
-0.0850624
0.0020611
-0.0851048
0.00223498
-0.085147
0.00240215
-0.0851888
0.00255769
-0.0852301
0.00269742
-0.0852712
0.00281795
-0.0853123
0.00291673
-0.0853531
0.00299224
-0.0853929
0.00304454
-0.0854294
-0.0854566
0.00144923
-0.0850688
-0.00123668
0.00168226
-0.0850889
0.00192225
-0.085105
0.00216937
-0.0851242
0.00241989
-0.0851443
0.00266675
-0.0851635
0.00290156
-0.085181
0.00311682
-0.0851967
0.00330743
-0.0852114
0.00347124
-0.0852262
0.00360871
-0.0852423
0.00372206
-0.0852604
0.00381422
-0.0852809
0.00388814
-0.085304
0.00394637
-0.0853295
0.003991
-0.0853569
0.00402377
-0.0853858
0.00404636
-0.0854155
0.00406117
-0.0854442
-0.0854663
-4.38835e-06
-0.0852362
0.000171799
0.000139715
-0.085233
0.00027136
-0.0852367
0.000388369
-0.0852412
0.000491641
-0.0852475
0.000584722
-0.0852566
0.000672402
-0.0852687
0.000759158
-0.0852834
0.000847996
-0.0853002
0.000939946
-0.0853182
0.00103419
-0.0853365
0.0011286
-0.0853548
0.00122032
-0.0853727
0.00130642
-0.0853901
0.00138428
-0.0854073
0.00145169
-0.0854243
0.00150699
-0.0854411
0.00154913
-0.0854577
0.00157804
-0.0854731
-0.0854852
0.000931753
-0.0853513
-0.000816614
0.0010612
-0.0853625
0.00119517
-0.0853706
0.00133419
-0.0853802
0.00147653
-0.0853899
0.00161842
-0.0853985
0.00175507
-0.0854053
0.00188193
-0.0854103
0.00199555
-0.0854138
0.0020941
-0.0854167
0.00217725
-0.0854197
0.00224587
-0.0854234
0.00230147
-0.0854283
0.00234577
-0.0854344
0.00238033
-0.0854419
0.0024065
-0.0854505
0.00242531
-0.0854599
0.00243768
-0.08547
0.00244481
-0.0854803
-0.0854887
-0.000134861
-0.085435
0.000218507
-6.63563e-05
-0.085431
-5.3202e-06
-0.0854317
4.72593e-05
-0.0854328
9.17578e-05
-0.0854344
0.000130122
-0.0854368
0.000165119
-0.0854403
0.000199519
-0.0854447
0.000235403
-0.0854497
0.000273795
-0.0854551
0.000314632
-0.0854605
0.000356983
-0.0854658
0.000399397
-0.0854707
0.00044022
-0.0854753
0.000477867
-0.0854795
0.000510974
-0.0854836
0.000538463
-0.0854874
0.000559565
-0.0854911
0.000573935
-0.0854946
-0.0854976
0.000554342
-0.0854777
-0.000511604
0.000607592
-0.0854842
0.000665448
-0.0854895
0.000727896
-0.0854952
0.000793959
-0.0855004
0.000861479
-0.0855044
0.00092765
-0.0855065
0.000989669
-0.0855067
0.0010453
-0.0855054
0.00109319
-0.085503
0.00113291
-0.0855002
0.0011648
-0.0854976
0.00118967
-0.0854955
0.00120855
-0.0854941
0.00122247
-0.0854935
0.00123231
-0.0854934
0.00123877
-0.0854939
0.00124237
-0.0854947
0.00124361
-0.0854959
-0.085497
-0.000263529
0.000285801
-0.000247735
-0.000237257
-0.000232478
-0.000232921
-0.000237288
-0.000243768
-0.000250475
-0.000255835
-0.000258836
-0.000259083
-0.000256723
-0.000252266
-0.000246408
-0.000239867
-0.000233285
-0.000227175
-0.00022192
-0.0002178
-0.021296
-0.0085985
0.0298945
-0.0127776
-0.00851841
-0.00430791
-0.00846965
0.00413735
-0.00844526
0.0125784
-0.00844104
0.0210327
-0.00845435
0.0295162
-0.00848348
0.0380435
-0.0085273
0.0466286
-0.00858504
0.0552847
-0.00865616
0.0640249
-0.00874022
0.0728617
-0.00883682
0.0818073
-0.00894557
0.0908734
-0.00906606
0.100071
-0.009198
0.109413
-0.00934152
0.118911
-0.0094981
0.128584
-0.00967285
0.138464
-0.00988048
-0.0101739
-0.00763743
-0.0105625
0.00960144
-0.00559991
-0.0105559
-0.00351597
-0.0105536
-0.00140539
-0.0105558
0.000716561
-0.010563
0.00283766
-0.0105755
0.00494774
-0.0105936
0.00703807
-0.0106176
0.00910092
-0.0106479
0.0111293
-0.0106846
0.0131169
-0.0107277
0.0150575
-0.0107775
0.0169456
-0.0108336
0.0187755
-0.010896
0.0205417
-0.0109641
0.0222373
-0.0110372
0.0238532
-0.011114
0.0253732
-0.0111928
0.0267641
-0.0112714
-0.0113295
0.00696907
-0.012134
-0.00539757
0.00854488
-0.0121318
0.0101222
-0.0121309
0.0116979
-0.0121315
0.0132684
-0.0121335
0.0148296
-0.0121367
0.016377
-0.012141
0.0179057
-0.0121463
0.0194104
-0.0121526
0.0208854
-0.0121596
0.0223251
-0.0121674
0.0237234
-0.0121758
0.0250747
-0.0121849
0.0263734
-0.0121948
0.0276149
-0.0122056
0.0287952
-0.0122175
0.0299123
-0.0122311
0.0309662
-0.0122468
0.0319601
-0.0122652
-0.012295
-0.00554843
-0.0128061
0.00622055
-0.00486931
-0.0128109
-0.00418381
-0.0128164
-0.00349252
-0.0128228
-0.00279593
-0.0128301
-0.00209446
-0.0128381
-0.00138839
-0.012847
-0.000677903
-0.0128568
3.69209e-05
-0.0128674
0.000756089
-0.0128788
0.00147965
-0.0128909
0.00220764
-0.0129038
0.00294002
-0.0129173
0.00367657
-0.0129313
0.00441682
-0.0129458
0.00515986
-0.0129606
0.00590426
-0.0129755
0.00664789
-0.0129904
0.00738782
-0.0130052
-0.0130157
0.0044371
-0.013397
-0.00384626
0.00502134
-0.0133951
0.00559842
-0.0133935
0.00616773
-0.0133921
0.00672866
-0.013391
0.0072806
-0.0133901
0.00782294
-0.0133894
0.00835508
-0.0133889
0.00887644
-0.0133887
0.00938648
-0.0133888
0.00988474
-0.0133892
0.0103709
-0.0133899
0.0108446
-0.013391
0.0113058
-0.0133925
0.0117545
-0.0133946
0.0121912
-0.0133972
0.0126162
-0.0134005
0.0130303
-0.0134046
0.0134346
-0.0134094
-0.0134179
-0.00439618
-0.0137565
0.00475574
-0.00403243
-0.0137589
-0.00366445
-0.0137615
-0.00329222
-0.0137644
-0.0029157
-0.0137675
-0.0025349
-0.0137709
-0.0021498
-0.0137745
-0.00176042
-0.0137783
-0.0013668
-0.0137824
-0.000969015
-0.0137866
-0.000567195
-0.013791
-0.000161514
-0.0137956
0.000247782
-0.0138003
0.000660366
-0.0138051
0.00107582
-0.01381
0.00149363
-0.013815
0.00191316
-0.01382
0.00233367
-0.0138251
0.0027543
-0.0138301
-0.0138336
0.00259546
-0.014055
-0.00229695
0.00289005
-0.0140535
0.00318055
-0.014052
0.00346681
-0.0140506
0.0037487
-0.0140494
0.0040261
-0.0140483
0.0042989
-0.0140473
0.00456703
-0.0140465
0.00483044
-0.0140458
0.00508911
-0.0140453
0.00534306
-0.014045
0.00559234
-0.0140449
0.00583704
-0.014045
0.00607732
-0.0140454
0.00631335
-0.0140461
0.00654539
-0.0140471
0.00677373
-0.0140484
0.00699873
-0.0140501
0.00722076
-0.0140521
-0.0140557
-0.00329291
-0.0142741
0.00351197
-0.00307119
-0.0142752
-0.00284679
-0.0142764
-0.00261971
-0.0142777
-0.00238995
-0.0142791
-0.00215753
-0.0142807
-0.0019225
-0.0142823
-0.0016849
-0.014284
-0.00144483
-0.0142859
-0.00120236
-0.0142877
-0.00095764
-0.0142897
-0.000710811
-0.0142917
-0.000462057
-0.0142938
-0.000211594
-0.0142959
4.03329e-05
-0.014298
0.000293442
-0.0143002
0.000547416
-0.0143023
0.000801902
-0.0143045
0.00105652
-0.0143067
-0.0143082
0.0016526
-0.0144446
-0.00148213
0.00182083
-0.0144434
0.00198676
-0.0144423
0.00215035
-0.0144413
0.00231158
-0.0144404
0.00247041
-0.0144395
0.00262685
-0.0144388
0.00278089
-0.0144381
0.00293257
-0.0144375
0.00308192
-0.0144371
0.00322899
-0.0144368
0.00337386
-0.0144366
0.00351661
-0.0144365
0.00365736
-0.0144366
0.00379624
-0.0144369
0.00393338
-0.0144373
0.00406896
-0.0144379
0.00420316
-0.0144387
0.00433617
-0.0144397
-0.0144416
-0.00239747
-0.0145825
0.00253543
-0.00225781
-0.0145831
-0.00211647
-0.0145837
-0.00197346
-0.0145843
-0.0018288
-0.014585
-0.00168253
-0.0145858
-0.0015347
-0.0145866
-0.00138534
-0.0145874
-0.00123453
-0.0145883
-0.00108235
-0.0145893
-0.000928894
-0.0145902
-0.000774256
-0.0145912
-0.00061856
-0.0145922
-0.000461938
-0.0145932
-0.000304534
-0.0145943
-0.000146509
-0.0145953
1.19634e-05
-0.0145964
0.000170696
-0.0145975
0.000329491
-0.0145985
-0.0145992
0.0011463
-0.0146841
-0.00104473
0.00124655
-0.0146833
0.00134543
-0.0146826
0.00144296
-0.0146818
0.00153912
-0.0146812
0.00163393
-0.0146806
0.00172738
-0.01468
0.0018195
-0.0146796
0.00191032
-0.0146792
0.00199987
-0.0146788
0.0020882
-0.0146786
0.00217536
-0.0146784
0.00226142
-0.0146783
0.00234644
-0.0146783
0.00243051
-0.0146783
0.0025137
-0.0146785
0.00259613
-0.0146788
0.00267789
-0.0146792
0.00275908
-0.0146797
-0.0146807
-0.00171865
-0.0147713
0.00180589
-0.00163033
-0.0147716
-0.00154094
-0.0147719
-0.00145049
-0.0147723
-0.00135901
-0.0147727
-0.00126653
-0.0147731
-0.00117309
-0.0147735
-0.00107871
-0.0147739
-0.000983468
-0.0147744
-0.0008874
-0.0147749
-0.000790572
-0.0147754
-0.000693055
-0.0147759
-0.000594922
-0.0147764
-0.000496256
-0.0147769
-0.000397146
-0.0147775
-0.000297685
-0.014778
-0.000197976
-0.0147785
-9.81238e-05
-0.0147791
1.75922e-06
-0.0147796
-0.0147799
0.000846643
-0.0148321
-0.000785859
0.000906602
-0.0148316
0.000965731
-0.0148311
0.00102403
-0.0148306
0.0010815
-0.0148301
0.00113816
-0.0148297
0.00119402
-0.0148293
0.00124909
-0.014829
0.00130339
-0.0148287
0.00135696
-0.0148285
0.00140983
-0.0148282
0.00146204
-0.0148281
0.00151362
-0.014828
0.00156461
-0.0148279
0.00161508
-0.0148279
0.00166508
-0.014828
0.00171465
-0.0148281
0.00176386
-0.0148283
0.00181278
-0.0148285
-0.0148291
-0.0012193
-0.0148865
0.00127372
-0.00116417
-0.0148867
-0.00110836
-0.0148869
-0.00105187
-0.0148871
-0.000994715
-0.0148873
-0.00093693
-0.0148875
-0.000878535
-0.0148877
-0.000819562
-0.014888
-0.000760044
-0.0148882
-0.000700017
-0.0148885
-0.000639524
-0.0148887
-0.000578608
-0.014889
-0.000517318
-0.0148893
-0.000455707
-0.0148895
-0.000393828
-0.0148898
-0.00033174
-0.0148901
-0.000269503
-0.0148903
-0.000207184
-0.0148906
-0.000144846
-0.0148909
-0.014891
0.000652289
-0.0149218
-0.000616986
0.000687063
-0.0149215
0.000721309
-0.0149211
0.000755031
-0.0149208
0.000788234
-0.0149205
0.000820927
-0.0149202
0.000853122
-0.0149199
0.000884833
-0.0149197
0.000916078
-0.0149195
0.000946875
-0.0149193
0.000977248
-0.0149191
0.00100722
-0.014919
0.00103682
-0.0149189
0.00106608
-0.0149188
0.00109503
-0.0149188
0.00112371
-0.0149187
0.00115214
-0.0149188
0.00118037
-0.0149188
0.00120844
-0.0149189
-0.0149192
-0.000855186
-0.0149543
0.000887694
-0.000822218
-0.0149544
-0.0007888
-0.0149546
-0.000754943
-0.0149547
-0.000720662
-0.0149548
-0.000685973
-0.0149549
-0.000650893
-0.014955
-0.000615445
-0.0149551
-0.00057965
-0.0149553
-0.000543533
-0.0149554
-0.000507122
-0.0149555
-0.000470446
-0.0149557
-0.000433536
-0.0149558
-0.000396424
-0.0149559
-0.000359145
-0.014956
-0.000321735
-0.0149562
-0.000284232
-0.0149563
-0.000246676
-0.0149564
-0.000209105
-0.0149565
-0.0149565
0.000519919
-0.0149729
-0.000501411
0.000538079
-0.0149726
0.000555893
-0.0149724
0.000573366
-0.0149721
0.000590504
-0.0149719
0.000607314
-0.0149717
0.000623807
-0.0149715
0.000639993
-0.0149713
0.000655885
-0.0149712
0.000671498
-0.014971
0.000686846
-0.0149709
0.000701949
-0.0149708
0.000716824
-0.0149707
0.000731492
-0.0149706
0.000745975
-0.0149705
0.000760294
-0.0149705
0.000774473
-0.0149705
0.000788538
-0.0149705
0.000802513
-0.0149705
-0.0149706
-0.000587137
-0.01499
0.000604233
-0.000569741
-0.01499
-0.000552049
-0.0149901
-0.00053407
-0.0149901
-0.000515812
-0.0149902
-0.000497286
-0.0149902
-0.000478503
-0.0149903
-0.000459475
-0.0149904
-0.000440217
-0.0149904
-0.000420745
-0.0149905
-0.000401074
-0.0149905
-0.000381222
-0.0149906
-0.000361209
-0.0149907
-0.000341053
-0.0149907
-0.000320775
-0.0149908
-0.000300397
-0.0149909
-0.000279942
-0.0149909
-0.000259431
-0.014991
-0.000238889
-0.014991
-0.014991
0.000430202
-0.0149962
-0.000423962
0.000436201
-0.014996
0.000441962
-0.0149958
0.000447488
-0.0149956
0.000452786
-0.0149955
0.000457861
-0.0149953
0.000462721
-0.0149952
0.000467375
-0.014995
0.000471832
-0.0149949
0.000476103
-0.0149948
0.000480199
-0.0149946
0.000484133
-0.0149945
0.000487917
-0.0149945
0.000491566
-0.0149944
0.000495095
-0.0149943
0.000498518
-0.0149943
0.000501851
-0.0149942
0.00050511
-0.0149942
0.000508312
-0.0149942
-0.0149943
-0.000384131
0.000387938
-0.000380136
-0.000375955
-0.000371596
-0.000367067
-0.000362375
-0.000357529
-0.000352539
-0.000347414
-0.000342166
-0.000336806
-0.000331347
-0.000325802
-0.000320183
-0.000314506
-0.000308784
-0.000303032
-0.000297265
-0.000291498
-0.0811795
-0.0103362
0.00974852
0.0817672
-0.0804572
-0.010262
0.00953968
-0.0796058
-0.0101853
0.00933395
-0.0786239
-0.0101093
0.0091273
-0.0775077
-0.010034
0.00891787
-0.076252
-0.00995956
0.00870384
-0.0748492
-0.00988587
0.00848308
-0.0732894
-0.00981271
0.00825291
-0.0715597
-0.00973975
0.00801001
-0.0696434
-0.00966648
0.00775018
-0.0675193
-0.00959225
0.00746817
-0.0651604
-0.00951625
0.00715735
-0.0625321
-0.00943749
0.00680921
-0.0595899
-0.00935482
0.00641263
-0.0562756
-0.00926696
0.00595262
-0.0525112
-0.00917255
0.00540816
-0.0481893
-0.00907033
0.00474846
-0.0431564
-0.0089593
0.00392637
-0.0371811
-0.00883902
0.00286375
-0.00871109
0.00142443
-0.0339987
-0.0112864
0.034949
-0.0330274
-0.0112334
-0.0320343
-0.0111785
-0.0310185
-0.011125
-0.0299794
-0.0110731
-0.028916
-0.011023
-0.0278272
-0.0109747
-0.0267115
-0.0109284
-0.025567
-0.0108843
-0.0243909
-0.0108425
-0.0231799
-0.0108032
-0.0219297
-0.0107665
-0.0206348
-0.0107324
-0.0192885
-0.010701
-0.017883
-0.0106725
-0.0164088
-0.0106468
-0.0148553
-0.0106239
-0.0132108
-0.0106038
-0.0114631
-0.0105867
-0.0105728
-0.0210294
-0.0123783
0.0221213
-0.0199035
-0.0123592
-0.0187395
-0.0123425
-0.0175384
-0.0123261
-0.0163016
-0.0123099
-0.0150304
-0.0122942
-0.0137263
-0.0122788
-0.0123909
-0.0122638
-0.0110259
-0.0122493
-0.00963309
-0.0122353
-0.00821439
-0.0122219
-0.00677175
-0.0122091
-0.00530716
-0.012197
-0.00382261
-0.0121856
-0.00232009
-0.012175
-0.00080152
-0.0121653
0.000731288
-0.0121567
0.00227659
-0.0121491
0.00383266
-0.0121427
-0.0121377
-0.0173473
-0.0128871
0.0178561
-0.0168299
-0.0128766
-0.0163074
-0.012865
-0.0157792
-0.0128543
-0.0152446
-0.0128445
-0.0147033
-0.0128355
-0.0141547
-0.0128274
-0.0135983
-0.0128202
-0.0130337
-0.0128139
-0.0124606
-0.0128085
-0.0118786
-0.012804
-0.0112873
-0.0128003
-0.0106867
-0.0127976
-0.0100766
-0.0127957
-0.00945684
-0.0127947
-0.00882761
-0.0127946
-0.00818903
-0.0127952
-0.00754138
-0.0127967
-0.00688505
-0.0127991
-0.0128022
-0.00782698
-0.0134822
0.00842204
-0.0072289
-0.0134746
-0.00662512
-0.0134688
-0.0060163
-0.0134631
-0.00540315
-0.0134576
-0.00478634
-0.0134523
-0.0041666
-0.0134471
-0.00354463
-0.0134422
-0.00292113
-0.0134374
-0.00229682
-0.0134328
-0.00167237
-0.0134284
-0.00104849
-0.0134242
-0.00042582
-0.0134203
0.00019498
-0.0134165
0.000813279
-0.013413
0.00142846
-0.0134098
0.00203994
-0.0134067
0.00264711
-0.0134039
0.00324941
-0.0134014
-0.013399
-0.0108869
-0.0137743
0.011179
-0.0105905
-0.013771
-0.0102921
-0.0137672
-0.00999154
-0.0137637
-0.0096886
-0.0137606
-0.0093831
-0.0137578
-0.00907487
-0.0137554
-0.00876373
-0.0137533
-0.00844951
-0.0137516
-0.00813208
-0.0137502
-0.00781129
-0.0137492
-0.00748701
-0.0137485
-0.00715913
-0.0137482
-0.00682754
-0.0137481
-0.00649215
-0.0137484
-0.00615289
-0.013749
-0.00580967
-0.0137499
-0.00546244
-0.0137511
-0.00511115
-0.0137527
-0.0137544
-0.00383753
-0.0141058
0.00416906
-0.00350686
-0.0141017
-0.00317553
-0.0140985
-0.00284382
-0.0140954
-0.002512
-0.0140924
-0.00218035
-0.0140894
-0.00184916
-0.0140866
-0.00151869
-0.0140838
-0.00118923
-0.0140811
-0.000861029
-0.0140784
-0.000534362
-0.0140759
-0.000209482
-0.0140734
0.000113364
-0.014071
0.000433932
-0.0140687
0.000751989
-0.0140665
0.00106731
-0.0140643
0.00137967
-0.0140623
0.00168886
-0.0140603
0.00199469
-0.0140585
-0.0140567
-0.00723748
-0.0142829
0.00741462
-0.00705776
-0.0142814
-0.00687673
-0.0142795
-0.0066943
-0.0142778
-0.00651037
-0.0142763
-0.00632484
-0.014275
-0.00613762
-0.0142738
-0.00594862
-0.0142728
-0.00575774
-0.0142719
-0.0055649
-0.0142713
-0.00537001
-0.0142708
-0.00517299
-0.0142704
-0.00497376
-0.0142702
-0.00477226
-0.0142702
-0.00456841
-0.0142703
-0.00436216
-0.0142706
-0.00415343
-0.014271
-0.00394219
-0.0142716
-0.00372838
-0.0142723
-0.0142731
-0.00206103
-0.0144782
0.00225632
-0.00186676
-0.0144757
-0.00167261
-0.0144737
-0.00147872
-0.0144717
-0.00128524
-0.0144698
-0.00109229
-0.0144679
-0.000900008
-0.0144661
-0.000708534
-0.0144642
-0.000517997
-0.0144625
-0.000328525
-0.0144607
-0.000140243
-0.014459
4.6727e-05
-0.0144574
0.000232267
-0.0144558
0.000416263
-0.0144542
0.000598608
-0.0144527
0.000779197
-0.0144512
0.000957932
-0.0144498
0.00113472
-0.0144484
0.00130948
-0.014447
-0.0144458
-0.00486754
-0.014588
0.00497727
-0.0047561
-0.0145871
-0.0046437
-0.0145861
-0.00453028
-0.0145851
-0.00441579
-0.0145843
-0.00430017
-0.0145835
-0.00418337
-0.0145829
-0.00406533
-0.0145823
-0.00394599
-0.0145818
-0.00382532
-0.0145814
-0.00370325
-0.0145811
-0.00357975
-0.0145809
-0.00345476
-0.0145808
-0.00332825
-0.0145807
-0.00320018
-0.0145807
-0.00307052
-0.0145809
-0.00293924
-0.014581
-0.00280631
-0.0145813
-0.00267171
-0.0145816
-0.0145821
-0.00107996
-0.0147063
0.00119826
-0.000962426
-0.0147047
-0.000845118
-0.0147034
-0.000728113
-0.0147022
-0.000611486
-0.0147009
-0.000495314
-0.0146997
-0.000379673
-0.0146985
-0.000264637
-0.0146973
-0.000150279
-0.0146962
-3.66686e-05
-0.014695
7.61246e-05
-0.0146939
0.000188035
-0.0146928
0.000299001
-0.0146917
0.000408961
-0.0146907
0.000517859
-0.0146896
0.000625643
-0.0146886
0.000732264
-0.0146877
0.000837678
-0.0146867
0.000941845
-0.0146858
-0.0146849
-0.00326923
-0.0147742
0.00333718
-0.00320011
-0.0147738
-0.00313028
-0.0147732
-0.00305972
-0.0147727
-0.00298839
-0.0147723
-0.00291625
-0.0147718
-0.00284327
-0.0147715
-0.00276943
-0.0147712
-0.00269468
-0.0147709
-0.00261899
-0.0147707
-0.00254235
-0.0147705
-0.00246472
-0.0147704
-0.00238608
-0.0147704
-0.00230641
-0.0147703
-0.00222569
-0.0147704
-0.0021439
-0.0147704
-0.00206104
-0.0147705
-0.00197708
-0.0147707
-0.00189204
-0.0147709
-0.0147711
-0.000496164
-0.0148463
0.000568237
-0.000424653
-0.0148453
-0.000353349
-0.0148445
-0.000282298
-0.0148438
-0.000211548
-0.014843
-0.000141143
-0.0148422
-7.11282e-05
-0.0148415
-1.54844e-06
-0.0148408
6.7554e-05
-0.01484
0.000136138
-0.0148393
0.000204164
-0.0148386
0.000271594
-0.0148379
0.000338394
-0.0148372
0.000404529
-0.0148365
0.000469968
-0.0148358
0.000534685
-0.0148351
0.000598653
-0.0148345
0.00066185
-0.0148339
0.000724257
-0.0148333
-0.0148327
-0.00217717
-0.0148875
0.00221844
-0.00213509
-0.0148874
-0.00209251
-0.0148871
-0.0020494
-0.0148869
-0.00200575
-0.0148867
-0.00196154
-0.0148865
-0.00191673
-0.0148863
-0.00187132
-0.0148862
-0.00182528
-0.0148861
-0.0017786
-0.014886
-0.00173126
-0.0148859
-0.00168325
-0.0148859
-0.00163455
-0.0148859
-0.00158515
-0.0148859
-0.00153504
-0.0148859
-0.00148422
-0.014886
-0.00143268
-0.014886
-0.00138041
-0.0148861
-0.00132742
-0.0148863
-0.0148864
-0.000139048
-0.0149306
0.000182146
-9.6363e-05
-0.0149301
-5.38539e-05
-0.0149296
-1.15493e-05
-0.0149292
3.05225e-05
-0.0149287
7.23336e-05
-0.0149283
0.000113856
-0.0149278
0.000155064
-0.0149274
0.00019593
-0.0149269
0.000236431
-0.0149265
0.000276544
-0.014926
0.000316245
-0.0149256
0.000355516
-0.0149251
0.000394336
-0.0149247
0.000432689
-0.0149243
0.00047056
-0.0149238
0.000507935
-0.0149234
0.000544804
-0.014923
0.000581156
-0.0149226
-0.0149222
-0.0014179
-0.0149542
0.0014415
-0.00139374
-0.0149542
-0.00136922
-0.0149541
-0.00134435
-0.0149541
-0.00131909
-0.014954
-0.00129344
-0.0149539
-0.00126739
-0.0149539
-0.00124092
-0.0149538
-0.00121403
-0.0149538
-0.00118669
-0.0149538
-0.00115891
-0.0149538
-0.00113066
-0.0149538
-0.00110196
-0.0149538
-0.00107278
-0.0149539
-0.00104313
-0.0149539
-0.001013
-0.014954
-0.000982388
-0.014954
-0.0009513
-0.0149541
-0.000919734
-0.0149542
-0.0149543
9.08537e-05
-0.0149783
-6.67945e-05
0.0001146
-0.014978
0.000138197
-0.0149777
0.000161626
-0.0149775
0.000184871
-0.0149772
0.000207913
-0.014977
0.000230736
-0.0149767
0.000253324
-0.0149764
0.000275661
-0.0149762
0.000297733
-0.0149759
0.000319526
-0.0149756
0.000341028
-0.0149753
0.000362226
-0.014975
0.000383111
-0.0149748
0.000403673
-0.0149745
0.000423904
-0.0149742
0.000443798
-0.0149739
0.00046335
-0.0149736
0.000482555
-0.0149734
-0.0149731
-0.000872265
-0.0149897
0.000883618
-0.000860548
-0.0149897
-0.000848614
-0.0149897
-0.000836453
-0.0149896
-0.000824055
-0.0149896
-0.00081141
-0.0149896
-0.000798507
-0.0149896
-0.000785337
-0.0149896
-0.000771893
-0.0149896
-0.000758165
-0.0149896
-0.000744148
-0.0149896
-0.000729834
-0.0149896
-0.000715219
-0.0149897
-0.000700298
-0.0149897
-0.000685067
-0.0149897
-0.000669525
-0.0149897
-0.00065367
-0.0149898
-0.000637502
-0.0149898
-0.000621022
-0.0149899
-0.0149899
0.000262643
-0.015
-0.000252259
0.000272787
-0.0149998
0.000282802
-0.0149997
0.000292675
-0.0149995
0.000302396
-0.0149993
0.000311954
-0.0149992
0.000321338
-0.014999
0.000330538
-0.0149988
0.000339546
-0.0149986
0.000348352
-0.0149984
0.000356949
-0.0149982
0.00036533
-0.014998
0.000373486
-0.0149978
0.000381414
-0.0149976
0.000389108
-0.0149974
0.000396565
-0.0149972
0.00040378
-0.014997
0.000410752
-0.0149968
0.00041748
-0.0149966
-0.0149964
-0.000422626
0.000422583
-0.000422465
-0.000422147
-0.000421663
-0.000421007
-0.000420174
-0.000419159
-0.000417956
-0.000416561
-0.000414971
-0.000413183
-0.000411193
-0.000409001
-0.000406604
-0.000404002
-0.000401194
-0.000398183
-0.000394968
-0.000391553
-0.00284854
-0.00178643
0.00463497
-0.00202237
-0.000826166
-0.00155256
-0.000469817
-0.00123281
-0.000319748
-0.000990419
-0.000242389
-0.000795514
-0.000194905
-0.000633774
-0.000161739
-0.000497472
-0.000136302
-0.000381999
-0.000115473
-0.000284395
-9.7604e-05
-0.000202665
-8.17295e-05
-0.000135417
-6.72479e-05
-8.16379e-05
-5.37795e-05
-4.05396e-05
-4.10983e-05
-1.14334e-05
-2.91061e-05
6.4177e-06
-1.78511e-05
1.40076e-05
-7.58991e-06
1.28725e-05
1.13511e-06
6.10771e-06
6.76478e-06
6.10771e-06
-0.00592126
-0.00320963
0.00734446
-0.00475556
-0.00199187
-0.00385777
-0.00136761
-0.00315404
-0.00102348
-0.00258475
-0.000811679
-0.00211195
-0.000667702
-0.00171221
-0.000561483
-0.00137077
-0.000477748
-0.00107806
-0.00040818
-0.00082773
-0.000347933
-0.000615437
-0.000294022
-0.000438121
-0.000244564
-0.000293512
-0.000198389
-0.000179755
-0.000154855
-9.50906e-05
-0.00011377
-3.75271e-05
-7.54147e-05
-4.41546e-06
-4.07015e-05
8.26649e-06
-1.15468e-05
6.49496e-06
8.5363e-06
1.26027e-05
-0.00740031
-0.00430305
0.00849373
-0.00629362
-0.00309856
-0.00530577
-0.00235545
-0.00445561
-0.00187364
-0.00372639
-0.0015409
-0.00309732
-0.00129677
-0.00255131
-0.0011075
-0.00207565
-0.000953407
-0.00166126
-0.00082257
-0.00130173
-0.00070746
-0.000992546
-0.000603209
-0.000730444
-0.000506667
-0.000512942
-0.000415891
-0.000337915
-0.000329883
-0.000203201
-0.000248483
-0.000106203
-0.000172413
-4.34167e-05
-0.000103488
-9.92698e-06
-4.50366e-05
1.27482e-06
-2.66551e-06
1.38775e-05
-0.0079908
-0.00516617
0.00885393
-0.00703349
-0.00405587
-0.00610279
-0.00328616
-0.00524564
-0.00273079
-0.00447245
-0.00231409
-0.00378019
-0.00198903
-0.00316217
-0.00172551
-0.0026117
-0.00150388
-0.00212318
-0.00131109
-0.00169233
-0.0011383
-0.00131603
-0.000979519
-0.000991937
-0.000830754
-0.000718259
-0.000689569
-0.00049333
-0.000554812
-0.000315281
-0.000426533
-0.00018165
-0.000306044
-8.8986e-05
-0.000196152
-3.24615e-05
-0.000101561
-5.61889e-06
-2.95081e-05
8.25859e-06
-0.00811419
-0.00586358
0.00881159
-0.0073061
-0.00486395
-0.00647734
-0.00411492
-0.00567555
-0.00353258
-0.00492205
-0.00306759
-0.00422472
-0.00268636
-0.00358525
-0.00236498
-0.00300283
-0.0020863
-0.00247595
-0.00183797
-0.0020032
-0.00161105
-0.00158349
-0.00139923
-0.00121607
-0.00119818
-0.000900337
-0.0010053
-0.000635642
-0.000819507
-0.000420963
-0.000641212
-0.000254598
-0.000472408
-0.000133857
-0.000316894
-5.4814e-05
-0.000180604
-1.22553e-05
-7.20668e-05
-3.9967e-06
-0.00800582
-0.00643931
0.00858155
-0.00732362
-0.00554615
-0.00659957
-0.00483897
-0.00587359