x,y,z,p
0,0,0,0.000174709
0,0.1,0,0.000384419
0,0.2,0,0.000594129
0,0.3,0,0.000838893
0,0.4,0,0.00111871
0,0.5,0,0.00139853
0,0.6,0,0.00167877
0,0.7,0,0.00195902
0,0.8,0,0.00223955
0,0.9,0,0.00252037
0,1,0,0.0028012
0,1.1,0,0.00308268
0,1.2,0,0.00336417
0,1.3,0,0.00364599
0,1.4,0,0.00392816
0,1.5,0,0.00421032
0,1.6,0,0.00449304
0,1.7,0,0.00477577
0,1.8,0,0.00505866
0,1.9,0,0.00534171
0,2,0,0.00562477
0,2.1,0,0.00590775
0,2.2,0,0.00619074
0,2.3,0,0.00647339
0,2.4,0,0.0067557
0,2.5,0,0.00703801
0,2.6,0,0.00731882
0,2.7,0,0.00759964
0,2.8,0,0.00787916
0,2.9,0,0.00815739
0,3,0,0.00843562
0,3.1,0,0.00870987
0,3.2,0,0.00898413
0,3.3,0,0.00925555
0,3.4,0,0.00952413
0,3.5,0,0.00979271
0,3.6,0,0.0100535
0,3.7,0,0.0103144
0,3.8,0,0.0105701
0,3.9,0,0.0108208
0,4,0,0.0110715
0,4.1,0,0.0113093
0,4.2,0,0.011547
0,4.3,0,0.0117768
0,4.4,0,0.0119985
0,4.5,0,0.0122203
0,4.6,0,0.0124228
0,4.7,0,0.0126252
0,4.8,0,0.0128001
0,4.9,0,0.0129475
0,5,0,0.0130948
0,5.1,0,0.0133401
0,5.2,0,0.0134914
0,5.3,0,0.0136312
0,5.4,0,0.0137589
0,5.5,0,0.0138741
0,5.6,0,0.0139763
0,5.7,0,0.0140652
0,5.8,0,0.0141404
0,5.9,0,0.0142015
0,6,0,0.0142482
0,6.1,0,0.0142804
0,6.2,0,0.0142978
0,6.3,0,0.0143004
0,6.4,0,0.0142881
0,6.5,0,0.0142607
0,6.6,0,0.0142186
0,6.7,0,0.0141617
0,6.8,0,0.0140902
0,6.9,0,0.0140043
0,7,0,0.0138421
0,7.1,0,0.0137378
0,7.2,0,0.0136335
0,7.3,0,0.0135208
0,7.4,0,0.0133604
0,7.5,0,0.0132
0,7.6,0,0.0130304
0,7.7,0,0.0128393
0,7.8,0,0.0126482
0,7.9,0,0.0124456
0,8,0,0.0122288
0,8.1,0,0.012012
0,8.2,0,0.0117828
0,8.3,0,0.0115454
0,8.4,0,0.011308
0,8.5,0,0.0110589
0,8.6,0,0.0108058
0,8.7,0,0.0105528
0,8.8,0,0.0102897
0,8.9,0,0.0100256
0,9,0,0.00976113
0,9.1,0,0.00948993
0,9.2,0,0.00921874
0,9.3,0,0.00894679
0,9.4,0,0.00867186
0,9.5,0,0.00839692
0,9.6,0,0.00812162
0,9.7,0,0.00784564
0,9.8,0,0.00756966
0,9.9,0,0.00729416
0,10,0,0.00701916
0,10.1,0,0.00674416
0,10.2,0,0.00647074
0,10.3,0,0.00619816
0,10.4,0,0.00592559
0,10.5,0,0.00565568
0,10.6,0,0.00538644
0,10.7,0,0.00511721
0,10.8,0,0.00485158
0,10.9,0,0.00458615
0,11,0,0.0043211
0,11.1,0,0.00405956
0,11.2,0,0.00379803
0,11.3,0,0.00353741
0,11.4,0,0.00327957
0,11.5,0,0.00302173
0,11.6,0,0.00276518
0,11.7,0,0.00251058
0,11.8,0,0.00225597
0,11.9,0,0.0020028
0,12,0,0.00175081
0,12.1,0,0.00149881
0,12.2,0,0.0012481
0,12.3,0,0.000997936
0,12.4,0,0.000747773
0,12.5,0,0.000551092
0,12.6,0,0.00036385
0,12.7,0,0.000176608
0.1,0,0,0.000104825
0.1,0.1,0,0.000314476
0.1,0.2,0,0.000559108
0.1,0.3,0,0.000838761
0.1,0.4,0,0.00111855
0.1,0.5,0,0.00139835
0.1,0.6,0,0.00167851
0.1,0.7,0,0.00195876
0.1,0.8,0,0.00223927
0.1,0.9,0,0.00252006
0.1,1,0,0.0028009
0.1,1.1,0,0.00308234
0.1,1.2,0,0.00336385
0.1,1.3,0,0.00364568
0.1,1.4,0,0.00392783
0.1,1.5,0,0.00421006
0.1,1.6,0,0.0044928
0.1,1.7,0,0.00477557
0.1,1.8,0,0.00505853
0.1,1.9,0,0.00534163
0.1,2,0,0.00562478
0.1,2.1,0,0.00590791
0.1,2.2,0,0.00619095
0.1,2.3,0,0.00647377
0.1,2.4,0,0.00675621
0.1,2.5,0,0.00703861
0.1,2.6,0,0.00731981
0.1,2.7,0,0.00760066
0.1,2.8,0,0.00788049
0.1,2.9,0,0.00815899
0.1,3,0,0.00843726
0.1,3.1,0,0.00871224
0.1,3.2,0,0.0089865
0.1,3.3,0,0.00925839
0.1,3.4,0,0.00952744
0.1,3.5,0,0.00979596
0.1,3.6,0,0.010058
0.1,3.7,0,0.0103187
0.1,3.8,0,0.0105751
0.1,3.9,0,0.0108265
0.1,4,0,0.0110769
0.1,4.1,0,0.0113165
0.1,4.2,0,0.011554
0.1,4.3,0,0.0117846
0.1,4.4,0,0.0120073
0.1,4.5,0,0.0122285
0.1,4.6,0,0.0124333
0.1,4.7,0,0.0126353
0.1,4.8,0,0.0128272
0.1,4.9,0,0.0129921
0.1,5,0,0.0131053
0.1,5.1,0,0.0133511
0.1,5.2,0,0.0135028
0.1,5.3,0,0.013643
0.1,5.4,0,0.0137712
0.1,5.5,0,0.0138868
0.1,5.6,0,0.0139894
0.1,5.7,0,0.0140786
0.1,5.8,0,0.0141541
0.1,5.9,0,0.0142154
0.1,6,0,0.0142624
0.1,6.1,0,0.0142948
0.1,6.2,0,0.0143123
0.1,6.3,0,0.014315
0.1,6.4,0,0.0143026
0.1,6.5,0,0.0142753
0.1,6.6,0,0.0142331
0.1,6.7,0,0.014176
0.1,6.8,0,0.0141043
0.1,6.9,0,0.0140183
0.1,7,0,0.0138559
0.1,7.1,0,0.013779
0.1,7.2,0,0.0136704
0.1,7.3,0,0.0135346
0.1,7.4,0,0.0133793
0.1,7.5,0,0.013216
0.1,7.6,0,0.0130431
0.1,7.7,0,0.0128555
0.1,7.8,0,0.012661
0.1,7.9,0,0.0124566
0.1,8,0,0.012242
0.1,8.1,0,0.0120216
0.1,8.2,0,0.0117919
0.1,8.3,0,0.0115557
0.1,8.4,0,0.0113148
0.1,8.5,0,0.0110658
0.1,8.6,0,0.0108132
0.1,8.7,0,0.0105572
0.1,8.8,0,0.0102946
0.1,8.9,0,0.0100303
0.1,9,0,0.00976375
0.1,9.1,0,0.0094929
0.1,9.2,0,0.00922124
0.1,9.3,0,0.00894812
0.1,9.4,0,0.00867312
0.1,9.5,0,0.00839779
0.1,9.6,0,0.00812183
0.1,9.7,0,0.00784557
0.1,9.8,0,0.00756938
0.1,9.9,0,0.00729346
0.1,10,0,0.00701812
0.1,10.1,0,0.00674318
0.1,10.2,0,0.00646935
0.1,10.3,0,0.00619645
0.1,10.4,0,0.00592421
0.1,10.5,0,0.00565382
0.1,10.6,0,0.0053844
0.1,10.7,0,0.00511571
0.1,10.8,0,0.00484947
0.1,10.9,0,0.00458406
0.1,11,0,0.00431954
0.1,11.1,0,0.00405739
0.1,11.2,0,0.0037961
0.1,11.3,0,0.00353587
0.1,11.4,0,0.00327756
0.1,11.5,0,0.00302009
0.1,11.6,0,0.00276379
0.1,11.7,0,0.00250889
0.1,11.8,0,0.00225471
0.1,11.9,0,0.00200167
0.1,12,0,0.00174952
0.1,12.1,0,0.00149796
0.1,12.2,0,0.00124734
0.1,12.3,0,0.000997135
0.1,12.4,0,0.00074735
0.1,12.5,0,0.000498113
0.1,12.6,0,0.000292956
0.1,12.7,0,0.000105965
0.2,0,0,3.49418e-05
0.2,0.1,0,0.000279514
0.2,0.2,0,0.000559009
0.2,0.3,0,0.000838661
0.2,0.4,0,0.00111839
0.2,0.5,0,0.00139816
0.2,0.6,0,0.00167833
0.2,0.7,0,0.00195851
0.2,0.8,0,0.00223901
0.2,0.9,0,0.00251979
0.2,1,0,0.00280061
0.2,1.1,0,0.00308207
0.2,1.2,0,0.00336355
0.2,1.3,0,0.00364538
0.2,1.4,0,0.00392758
0.2,1.5,0,0.0042098
0.2,1.6,0,0.00449258
0.2,1.7,0,0.0047754
0.2,1.8,0,0.00505837
0.2,1.9,0,0.0053416
0.2,2,0,0.00562478
0.2,2.1,0,0.00590797
0.2,2.2,0,0.0061912
0.2,2.3,0,0.00647402
0.2,2.4,0,0.00675668
0.2,2.5,0,0.00703921
0.2,2.6,0,0.00732045
0.2,2.7,0,0.00760173
0.2,2.8,0,0.00788155
0.2,2.9,0,0.00816037
0.2,3,0,0.00843891
0.2,3.1,0,0.0087139
0.2,3.2,0,0.00898888
0.2,3.3,0,0.00926077
0.2,3.4,0,0.00953022
0.2,3.5,0,0.0097992
0.2,3.6,0,0.0100611
0.2,3.7,0,0.010323
0.2,3.8,0,0.0105794
0.2,3.9,0,0.0108313
0.2,4,0,0.0110824
0.2,4.1,0,0.0113217
0.2,4.2,0,0.0115607
0.2,4.3,0,0.0117913
0.2,4.4,0,0.0120145
0.2,4.5,0,0.0122366
0.2,4.6,0,0.012441
0.2,4.7,0,0.0126448
0.2,4.8,0,0.0128368
0.2,4.9,0,0.012985
0.2,5,0,0.0131157
0.2,5.1,0,0.0133621
0.2,5.2,0,0.0135143
0.2,5.3,0,0.0136549
0.2,5.4,0,0.0137835
0.2,5.5,0,0.0138995
0.2,5.6,0,0.0140024
0.2,5.7,0,0.014092
0.2,5.8,0,0.0141678
0.2,5.9,0,0.0142294
0.2,6,0,0.0142766
0.2,6.1,0,0.0143092
0.2,6.2,0,0.0143268
0.2,6.3,0,0.0143296
0.2,6.4,0,0.0143172
0.2,6.5,0,0.0142898
0.2,6.6,0,0.0142475
0.2,6.7,0,0.0141903
0.2,6.8,0,0.0141185
0.2,6.9,0,0.0140323
0.2,7,0,0.0138697
0.2,7.1,0,0.0137808
0.2,7.2,0,0.0136758
0.2,7.3,0,0.0135477
0.2,7.4,0,0.0133887
0.2,7.5,0,0.0132269
0.2,7.6,0,0.0130546
0.2,7.7,0,0.0128634
0.2,7.8,0,0.0126706
0.2,7.9,0,0.0124662
0.2,8,0,0.0122483
0.2,8.1,0,0.0120293
0.2,8.2,0,0.0117994
0.2,8.3,0,0.0115604
0.2,8.4,0,0.0113206
0.2,8.5,0,0.0110711
0.2,8.6,0,0.0108165
0.2,8.7,0,0.0105613
0.2,8.8,0,0.010298
0.2,8.9,0,0.0100325
0.2,9,0,0.00976635
0.2,9.1,0,0.0094948
0.2,9.2,0,0.00922249
0.2,9.3,0,0.00894945
0.2,9.4,0,0.00867394
0.2,9.5,0,0.00839812
0.2,9.6,0,0.00812216
0.2,9.7,0,0.00784558
0.2,9.8,0,0.00756895
0.2,9.9,0,0.00729304
0.2,10,0,0.00701756
0.2,10.1,0,0.00674221
0.2,10.2,0,0.00646841
0.2,10.3,0,0.00619554
0.2,10.4,0,0.00592291
0.2,10.5,0,0.00565265
0.2,10.6,0,0.00538327
0.2,10.7,0,0.00511424
0.2,10.8,0,0.00484825
0.2,10.9,0,0.00458279
0.2,11,0,0.00431805
0.2,11.1,0,0.00405626
0.2,11.2,0,0.0037948
0.2,11.3,0,0.00353447
0.2,11.4,0,0.00327656
0.2,11.5,0,0.00301887
0.2,11.6,0,0.00276255
0.2,11.7,0,0.00250806
0.2,11.8,0,0.00225372
0.2,11.9,0,0.00200068
0.2,12,0,0.00174893
0.2,12.1,0,0.00149727
0.2,12.2,0,0.00124669
0.2,12.3,0,0.000996821
0.2,12.4,0,0.000746986
0.2,12.5,0,0.000497819
0.2,12.6,0,0.000248929
0.2,12.7,0,3.53217e-05
0.3,0,0,0
0.3,0.1,0,0.000279409
0.3,0.2,0,0.000558903
0.3,0.3,0,0.000838369
0.3,0.4,0,0.0011181
0.3,0.5,0,0.00139777
0.3,0.6,0,0.00167788
0.3,0.7,0,0.00195806
0.3,0.8,0,0.00223845
0.3,0.9,0,0.00251923
0.3,1,0,0.00279999
0.3,1.1,0,0.00308145
0.3,1.2,0,0.00336294
0.3,1.3,0,0.0036448
0.3,1.4,0,0.003927
0.3,1.5,0,0.00420924
0.3,1.6,0,0.00449213
0.3,1.7,0,0.00477495
0.3,1.8,0,0.00505818
0.3,1.9,0,0.0053414
0.3,2,0,0.00562477
0.3,2.1,0,0.00590818
0.3,2.2,0,0.00619142
0.3,2.3,0,0.00647483
0.3,2.4,0,0.00675749
0.3,2.5,0,0.00704043
0.3,2.6,0,0.00732205
0.3,2.7,0,0.00760333
0.3,2.8,0,0.0078842
0.3,2.9,0,0.00816302
0.3,3,0,0.00844229
0.3,3.1,0,0.00871785
0.3,3.2,0,0.00899283
0.3,3.3,0,0.00926631
0.3,3.4,0,0.00953577
0.3,3.5,0,0.00980589
0.3,3.6,0,0.0100686
0.3,3.7,0,0.0103304
0.3,3.8,0,0.010589
0.3,3.9,0,0.0108409
0.3,4,0,0.0110936
0.3,4.1,0,0.0113338
0.3,4.2,0,0.0115729
0.3,4.3,0,0.0118062
0.3,4.4,0,0.0120294
0.3,4.5,0,0.0122536
0.3,4.6,0,0.0124587
0.3,4.7,0,0.0126626
0.3,4.8,0,0.0128573
0.3,4.9,0,0.0130055
0.3,5,0,0.013138
0.3,5.1,0,0.0133861
0.3,5.2,0,0.0135393
0.3,5.3,0,0.013681
0.3,5.4,0,0.0138106
0.3,5.5,0,0.0139275
0.3,5.6,0,0.0140314
0.3,5.7,0,0.0141218
0.3,5.8,0,0.0141983
0.3,5.9,0,0.0142605
0.3,6,0,0.0143082
0.3,6.1,0,0.0143411
0.3,6.2,0,0.0143591
0.3,6.3,0,0.0143619
0.3,6.4,0,0.0143496
0.3,6.5,0,0.0143221
0.3,6.6,0,0.0142795
0.3,6.7,0,0.0142219
0.3,6.8,0,0.0141496
0.3,6.9,0,0.0140628
0.3,7,0,0.0138992
0.3,7.1,0,0.0138084
0.3,7.2,0,0.0137034
0.3,7.3,0,0.0135744
0.3,7.4,0,0.0134134
0.3,7.5,0,0.0132516
0.3,7.6,0,0.0130771
0.3,7.7,0,0.0128846
0.3,7.8,0,0.0126917
0.3,7.9,0,0.0124841
0.3,8,0,0.0122656
0.3,8.1,0,0.0120461
0.3,8.2,0,0.0118129
0.3,8.3,0,0.0115738
0.3,8.4,0,0.0113332
0.3,8.5,0,0.0110809
0.3,8.6,0,0.0108263
0.3,8.7,0,0.0105699
0.3,8.8,0,0.0103046
0.3,8.9,0,0.0100391
0.3,9,0,0.00977152
0.3,9.1,0,0.00949859
0.3,9.2,0,0.00922629
0.3,9.3,0,0.00895174
0.3,9.4,0,0.00867548
0.3,9.5,0,0.00839966
0.3,9.6,0,0.00812227
0.3,9.7,0,0.00784536
0.3,9.8,0,0.00756865
0.3,9.9,0,0.0072916
0.3,10,0,0.00701606
0.3,10.1,0,0.0067405
0.3,10.2,0,0.00646606
0.3,10.3,0,0.00619319
0.3,10.4,0,0.00592031
0.3,10.5,0,0.00564981
0.3,10.6,0,0.00538042
0.3,10.7,0,0.00511119
0.3,10.8,0,0.00484522
0.3,10.9,0,0.00457976
0.3,11,0,0.00431496
0.3,11.1,0,0.00405331
0.3,11.2,0,0.00379185
0.3,11.3,0,0.00353164
0.3,11.4,0,0.00327388
0.3,11.5,0,0.00301619
0.3,11.6,0,0.00276021
0.3,11.7,0,0.00250581
0.3,11.8,0,0.00225151
0.3,11.9,0,0.00199897
0.3,12,0,0.00174723
0.3,12.1,0,0.00149569
0.3,12.2,0,0.00124562
0.3,12.3,0,0.000995745
0.3,12.4,0,0.000746143
0.3,12.5,0,0.000497436
0.3,12.6,0,0.000248546
0.3,12.7,0,0
0.4,0,0,0
0.4,0.1,0,0.000279324
0.4,0.2,0,0.000558584
0.4,0.3,0,0.00083805
0.4,0.4,0,0.00111757
0.4,0.5,0,0.00139717
0.4,0.6,0,0.00167723
0.4,0.7,0,0.00195725
0.4,0.8,0,0.00223763
0.4,0.9,0,0.00251831
0.4,1,0,0.00279904
0.4,1.1,0,0.00308049
0.4,1.2,0,0.00336196
0.4,1.3,0,0.00364383
0.4,1.4,0,0.00392611
0.4,1.5,0,0.00420839
0.4,1.6,0,0.00449134
0.4,1.7,0,0.0047744
0.4,1.8,0,0.00505763
0.4,1.9,0,0.00534123
0.4,2,0,0.00562473
0.4,2.1,0,0.00590833
0.4,2.2,0,0.00619216
0.4,2.3,0,0.00647557
0.4,2.4,0,0.00675903
0.4,2.5,0,0.00704226
0.4,2.6,0,0.00732423
0.4,2.7,0,0.00760659
0.4,2.8,0,0.00788747
0.4,2.9,0,0.00816766
0.4,3,0,0.00844739
0.4,3.1,0,0.00872352
0.4,3.2,0,0.00900021
0.4,3.3,0,0.0092737
0.4,3.4,0,0.00954522
0.4,3.5,0,0.00981602
0.4,3.6,0,0.0100795
0.4,3.7,0,0.0103438
0.4,3.8,0,0.0106024
0.4,3.9,0,0.0108571
0.4,4,0,0.0111107
0.4,4.1,0,0.011352
0.4,4.2,0,0.0115941
0.4,4.3,0,0.0118274
0.4,4.4,0,0.0120541
0.4,4.5,0,0.0122793
0.4,4.6,0,0.0124857
0.4,4.7,0,0.012693
0.4,4.8,0,0.0128877
0.4,4.9,0,0.0130554
0.4,5,0,0.0131722
0.4,5.1,0,0.0134229
0.4,5.2,0,0.0135779
0.4,5.3,0,0.0137213
0.4,5.4,0,0.0138525
0.4,5.5,0,0.0139709
0.4,5.6,0,0.0140762
0.4,5.7,0,0.0141679
0.4,5.8,0,0.0142455
0.4,5.9,0,0.0143087
0.4,6,0,0.0143572
0.4,6.1,0,0.0143906
0.4,6.2,0,0.014409
0.4,6.3,0,0.014412
0.4,6.4,0,0.0143997
0.4,6.5,0,0.014372
0.4,6.6,0,0.014329
0.4,6.7,0,0.0142707
0.4,6.8,0,0.0141976
0.4,6.9,0,0.0141098
0.4,7,0,0.0139443
0.4,7.1,0,0.0138642
0.4,7.2,0,0.0137529
0.4,7.3,0,0.0136161
0.4,7.4,0,0.0134561
0.4,7.5,0,0.0132888
0.4,7.6,0,0.0131133
0.4,7.7,0,0.0129205
0.4,7.8,0,0.012722
0.4,7.9,0,0.0125143
0.4,8,0,0.0122943
0.4,8.1,0,0.0120703
0.4,8.2,0,0.011837
0.4,8.3,0,0.0115953
0.4,8.4,0,0.0113514
0.4,8.5,0,0.0110989
0.4,8.6,0,0.0108412
0.4,8.7,0,0.0105827
0.4,8.8,0,0.010317
0.4,8.9,0,0.0100483
0.4,9,0,0.00977953
0.4,9.1,0,0.00950604
0.4,9.2,0,0.00923087
0.4,9.3,0,0.00895579
0.4,9.4,0,0.00867868
0.4,9.5,0,0.0084007
0.4,9.6,0,0.00812318
0.4,9.7,0,0.00784518
0.4,9.8,0,0.00756719
0.4,9.9,0,0.00729014
0.4,10,0,0.00701348
0.4,10.1,0,0.00673737
0.4,10.2,0,0.00646286
0.4,10.3,0,0.00618908
0.4,10.4,0,0.00591615
0.4,10.5,0,0.00564547
0.4,10.6,0,0.0053756
0.4,10.7,0,0.00510651
0.4,10.8,0,0.00484032
0.4,10.9,0,0.00457484
0.4,11,0,0.0043102
0.4,11.1,0,0.00404835
0.4,11.2,0,0.00378726
0.4,11.3,0,0.00352718
0.4,11.4,0,0.00326934
0.4,11.5,0,0.00301226
0.4,11.6,0,0.0027563
0.4,11.7,0,0.00250205
0.4,11.8,0,0.00224838
0.4,11.9,0,0.00199584
0.4,12,0,0.0017445
0.4,12.1,0,0.00149349
0.4,12.2,0,0.00124346
0.4,12.3,0,0.000994213
0.4,12.4,0,0.000744991
0.4,12.5,0,0.000496397
0.4,12.6,0,0.000248286
0.4,12.7,0,0
0.5,0,0,0
0.5,0.1,0,0.000279175
0.5,0.2,0,0.000558349
0.5,0.3,0,0.000837665
0.5,0.4,0,0.00111712
0.5,0.5,0,0.00139658
0.5,0.6,0,0.00167654
0.5,0.7,0,0.00195649
0.5,0.8,0,0.0022368
0.5,0.9,0,0.00251744
0.5,1,0,0.00279809
0.5,1.1,0,0.00307955
0.5,1.2,0,0.00336101
0.5,1.3,0,0.0036429
0.5,1.4,0,0.00392522
0.5,1.5,0,0.00420754
0.5,1.6,0,0.00449066
0.5,1.7,0,0.00477378
0.5,1.8,0,0.00505721
0.5,1.9,0,0.00534096
0.5,2,0,0.00562469
0.5,2.1,0,0.00590871
0.5,2.2,0,0.00619272
0.5,2.3,0,0.00647659
0.5,2.4,0,0.00676034
0.5,2.5,0,0.00704408
0.5,2.6,0,0.0073268
0.5,2.7,0,0.00760951
0.5,2.8,0,0.00789119
0.5,2.9,0,0.00817184
0.5,3,0,0.0084525
0.5,3.1,0,0.00872976
0.5,3.2,0,0.00900702
0.5,3.3,0,0.00928175
0.5,3.4,0,0.00955395
0.5,3.5,0,0.00982615
0.5,3.6,0,0.0100912
0.5,3.7,0,0.0103563
0.5,3.8,0,0.0106167
0.5,3.9,0,0.0108723
0.5,4,0,0.0111278
0.5,4.1,0,0.011371
0.5,4.2,0,0.0116143
0.5,4.3,0,0.0118497
0.5,4.4,0,0.0120774
0.5,4.5,0,0.012305
0.5,4.6,0,0.0125136
0.5,4.7,0,0.0127222
0.5,4.8,0,0.0129024
0.5,4.9,0,0.0130544
0.5,5,0,0.0132064
0.5,5.1,0,0.0134598
0.5,5.2,0,0.0136165
0.5,5.3,0,0.0137616
0.5,5.4,0,0.0138944
0.5,5.5,0,0.0140143
0.5,5.6,0,0.0141211
0.5,5.7,0,0.014214
0.5,5.8,0,0.0142927
0.5,5.9,0,0.0143568
0.5,6,0,0.0144061
0.5,6.1,0,0.0144402
0.5,6.2,0,0.0144589
0.5,6.3,0,0.0144622
0.5,6.4,0,0.0144498
0.5,6.5,0,0.0144219
0.5,6.6,0,0.0143784
0.5,6.7,0,0.0143196
0.5,6.8,0,0.0142456
0.5,6.9,0,0.0141568
0.5,7,0,0.0139895
0.5,7.1,0,0.0138815
0.5,7.2,0,0.0137735
0.5,7.3,0,0.0136567
0.5,7.4,0,0.0134902
0.5,7.5,0,0.0133237
0.5,7.6,0,0.0131477
0.5,7.7,0,0.0129497
0.5,7.8,0,0.0127517
0.5,7.9,0,0.0125421
0.5,8,0,0.0123182
0.5,8.1,0,0.0120943
0.5,8.2,0,0.0118582
0.5,8.3,0,0.0116139
0.5,8.4,0,0.0113697
0.5,8.5,0,0.0111141
0.5,8.6,0,0.0108548
0.5,8.7,0,0.0105955
0.5,8.8,0,0.0103269
0.5,8.9,0,0.0100573
0.5,9,0,0.00978743
0.5,9.1,0,0.00951165
0.5,9.2,0,0.00923588
0.5,9.3,0,0.00895954
0.5,9.4,0,0.00868096
0.5,9.5,0,0.00840239
0.5,9.6,0,0.00812376
0.5,9.7,0,0.00784503
0.5,9.8,0,0.0075663
0.5,9.9,0,0.00728847
0.5,10,0,0.00701154
0.5,10.1,0,0.00673461
0.5,10.2,0,0.00645973
0.5,10.3,0,0.00618594
0.5,10.4,0,0.00591216
0.5,10.5,0,0.00564153
0.5,10.6,0,0.0053717
0.5,10.7,0,0.00510186
0.5,10.8,0,0.00483612
0.5,10.9,0,0.0045706
0.5,11,0,0.00430551
0.5,11.1,0,0.0040443
0.5,11.2,0,0.00378309
0.5,11.3,0,0.00352289
0.5,11.4,0,0.00326569
0.5,11.5,0,0.0030085
0.5,11.6,0,0.0027527
0.5,11.7,0,0.00249899
0.5,11.8,0,0.00224528
0.5,11.9,0,0.0019931
0.5,12,0,0.00174218
0.5,12.1,0,0.00149126
0.5,12.2,0,0.00124171
0.5,12.3,0,0.000992757
0.5,12.4,0,0.000743799
0.5,12.5,0,0.000495758
0.5,12.6,0,0.000247879
0.5,12.7,0,0
0.6,0,0,0
0.6,0.1,0,0.000278858
0.6,0.2,0,0.000557903
0.6,0.3,0,0.000836954
0.6,0.4,0,0.00111628
0.6,0.5,0,0.0013955
0.6,0.6,0,0.00167524
0.6,0.7,0,0.0019551
0.6,0.8,0,0.00223524
0.6,0.9,0,0.00251581
0.6,1,0,0.00279635
0.6,1.1,0,0.00307775
0.6,1.2,0,0.0033592
0.6,1.3,0,0.00364112
0.6,1.4,0,0.00392347
0.6,1.5,0,0.00420592
0.6,1.6,0,0.00448924
0.6,1.7,0,0.0047725
0.6,1.8,0,0.00505627
0.6,1.9,0,0.00534019
0.6,2,0,0.00562443
0.6,2.1,0,0.00590903
0.6,2.2,0,0.0061934
0.6,2.3,0,0.00647807
0.6,2.4,0,0.00676223
0.6,2.5,0,0.00704698
0.6,2.6,0,0.00733083
0.6,2.7,0,0.00761421
0.6,2.8,0,0.00789729
0.6,2.9,0,0.00817868
0.6,3,0,0.00846103
0.6,3.1,0,0.00874013
0.6,3.2,0,0.00901844
0.6,3.3,0,0.00929535
0.6,3.4,0,0.00956867
0.6,3.5,0,0.0098434
0.6,3.6,0,0.0101111
0.6,3.7,0,0.0103778
0.6,3.8,0,0.0106411
0.6,3.9,0,0.0108983
0.6,4,0,0.0111572
0.6,4.1,0,0.011404
0.6,4.2,0,0.0116491
0.6,4.3,0,0.0118884
0.6,4.4,0,0.012118
0.6,4.5,0,0.0123497
0.6,4.6,0,0.0125625
0.6,4.7,0,0.0127731
0.6,4.8,0,0.0129746
0.6,4.9,0,0.0131456
0.6,5,0,0.0132664
0.6,5.1,0,0.0135249
0.6,5.2,0,0.0136848
0.6,5.3,0,0.013833
0.6,5.4,0,0.0139688
0.6,5.5,0,0.0140915
0.6,5.6,0,0.0142008
0.6,5.7,0,0.014296
0.6,5.8,0,0.0143768
0.6,5.9,0,0.0144427
0.6,6,0,0.0144934
0.6,6.1,0,0.0145286
0.6,6.2,0,0.0145481
0.6,6.3,0,0.0145517
0.6,6.4,0,0.0145393
0.6,6.5,0,0.014511
0.6,6.6,0,0.0144667
0.6,6.7,0,0.0144067
0.6,6.8,0,0.0143312
0.6,6.9,0,0.0142405
0.6,7,0,0.0140693
0.6,7.1,0,0.0139859
0.6,7.2,0,0.0138725
0.6,7.3,0,0.0137299
0.6,7.4,0,0.0135633
0.6,7.5,0,0.0133931
0.6,7.6,0,0.0132108
0.6,7.7,0,0.0130117
0.6,7.8,0,0.0128089
0.6,7.9,0,0.0125938
0.6,8,0,0.0123684
0.6,8.1,0,0.012139
0.6,8.2,0,0.0118984
0.6,8.3,0,0.0116527
0.6,8.4,0,0.0114026
0.6,8.5,0,0.0111432
0.6,8.6,0,0.0108825
0.6,8.7,0,0.0106178
0.6,8.8,0,0.010346
0.6,8.9,0,0.0100749
0.6,9,0,0.00980072
0.6,9.1,0,0.00952221
0.6,9.2,0,0.00924506
0.6,9.3,0,0.00896559
0.6,9.4,0,0.00868473
0.6,9.5,0,0.00840501
0.6,9.6,0,0.00812413
0.6,9.7,0,0.00784375
0.6,9.8,0,0.00756407
0.6,9.9,0,0.00728464
0.6,10,0,0.00700662
0.6,10.1,0,0.00672907
0.6,10.2,0,0.00645305
0.6,10.3,0,0.00617862
0.6,10.4,0,0.00590463
0.6,10.5,0,0.0056332
0.6,10.6,0,0.00536306
0.6,10.7,0,0.00509345
0.6,10.8,0,0.00482713
0.6,10.9,0,0.00456163
0.6,11,0,0.00429701
0.6,11.1,0,0.00403548
0.6,11.2,0,0.00377457
0.6,11.3,0,0.00351495
0.6,11.4,0,0.00325771
0.6,11.5,0,0.00300103
0.6,11.6,0,0.00274587
0.6,11.7,0,0.00249231
0.6,11.8,0,0.0022393
0.6,11.9,0,0.00198781
0.6,12,0,0.00173713
0.6,12.1,0,0.00148708
0.6,12.2,0,0.00123826
0.6,12.3,0,0.000989565
0.6,12.4,0,0.00074162
0.6,12.5,0,0.000494357
0.6,12.6,0,0.000246836
0.6,12.7,0,0
0.7,0,0,0
0.7,0.1,0,0.000278728
0.7,0.2,0,0.000557327
0.7,0.3,0,0.000836378
0.7,0.4,0,0.00111533
0.7,0.5,0,0.00139442
0.7,0.6,0,0.00167407
0.7,0.7,0,0.00195363
0.7,0.8,0,0.00223376
0.7,0.9,0,0.00251415
0.7,1,0,0.00279462
0.7,1.1,0,0.00307601
0.7,1.2,0,0.0033574
0.7,1.3,0,0.00363932
0.7,1.4,0,0.00392182
0.7,1.5,0,0.00420429
0.7,1.6,0,0.00448776
0.7,1.7,0,0.00477137
0.7,1.8,0,0.00505514
0.7,1.9,0,0.00533974
0.7,2,0,0.00562416
0.7,2.1,0,0.00590913
0.7,2.2,0,0.00619446
0.7,2.3,0,0.00647912
0.7,2.4,0,0.00676471
0.7,2.5,0,0.00704989
0.7,2.6,0,0.0073344
0.7,2.7,0,0.00761958
0.7,2.8,0,0.00790266
0.7,2.9,0,0.00818648
0.7,3,0,0.00846956
0.7,3.1,0,0.00874972
0.7,3.2,0,0.00903092
0.7,3.3,0,0.00930782
0.7,3.4,0,0.0095848
0.7,3.5,0,0.00986066
0.7,3.6,0,0.0101299
0.7,3.7,0,0.0104007
0.7,3.8,0,0.0106641
0.7,3.9,0,0.0109261
0.7,4,0,0.0111866
0.7,4.1,0,0.0114353
0.7,4.2,0,0.0116858
0.7,4.3,0,0.0119251
0.7,4.4,0,0.0121607
0.7,4.5,0,0.0123944
0.7,4.6,0,0.0126092
0.7,4.7,0,0.0128262
0.7,4.8,0,0.0130276
0.7,4.9,0,0.0131865
0.7,5,0,0.0133264
0.7,5.1,0,0.01359
0.7,5.2,0,0.0137531
0.7,5.3,0,0.0139044
0.7,5.4,0,0.0140431
0.7,5.5,0,0.0141687
0.7,5.6,0,0.0142805
0.7,5.7,0,0.0143781
0.7,5.8,0,0.0144609
0.7,5.9,0,0.0145286
0.7,6,0,0.0145807
0.7,6.1,0,0.014617
0.7,6.2,0,0.0146372
0.7,6.3,0,0.0146412
0.7,6.4,0,0.0146288
0.7,6.5,0,0.0146001
0.7,6.6,0,0.014555
0.7,6.7,0,0.0144939
0.7,6.8,0,0.0144168
0.7,6.9,0,0.0143241
0.7,7,0,0.0141492
0.7,7.1,0,0.0140527
0.7,7.2,0,0.0139388
0.7,7.3,0,0.0138031
0.7,7.4,0,0.0136316
0.7,7.5,0,0.0134565
0.7,7.6,0,0.0132742
0.7,7.7,0,0.013069
0.7,7.8,0,0.0128616
0.7,7.9,0,0.0126465
0.7,8,0,0.0124139
0.7,8.1,0,0.0121808
0.7,8.2,0,0.0119399
0.7,8.3,0,0.0116865
0.7,8.4,0,0.0114339
0.7,8.5,0,0.0111735
0.7,8.6,0,0.0109058
0.7,8.7,0,0.0106395
0.7,8.8,0,0.0103663
0.7,8.9,0,0.0100894
0.7,9,0,0.00981414
0.7,9.1,0,0.00953404
0.7,9.2,0,0.00925223
0.7,9.3,0,0.00897214
0.7,9.4,0,0.00868965
0.7,9.5,0,0.0084063
0.7,9.6,0,0.00812523
0.7,9.7,0,0.00784325
0.7,9.8,0,0.00756109
0.7,9.9,0,0.00728166
0.7,10,0,0.0070023
0.7,10.1,0,0.00672325
0.7,10.2,0,0.00644722
0.7,10.3,0,0.0061719
0.7,10.4,0,0.00589706
0.7,10.5,0,0.00562568
0.7,10.6,0,0.00535512
0.7,10.7,0,0.00508505
0.7,10.8,0,0.00481894
0.7,10.9,0,0.00455336
0.7,11,0,0.00428854
0.7,11.1,0,0.00402743
0.7,11.2,0,0.0037667
0.7,11.3,0,0.00350702
0.7,11.4,0,0.00325042
0.7,11.5,0,0.00299412
0.7,11.6,0,0.00273896
0.7,11.7,0,0.0024863
0.7,11.8,0,0.00223378
0.7,11.9,0,0.00198229
0.7,12,0,0.00173279
0.7,12.1,0,0.00148321
0.7,12.2,0,0.00123452
0.7,12.3,0,0.000987185
0.7,12.4,0,0.000739596
0.7,12.5,0,0.000492624
0.7,12.6,0,0.000246521
0.7,12.7,0,0
0.8,0,0,0
0.8,0.1,0,0.000278354
0.8,0.2,0,0.000556953
0.8,0.3,0,0.00083533
0.8,0.4,0,0.00111428
0.8,0.5,0,0.00139306
0.8,0.6,0,0.00167245
0.8,0.7,0,0.00195201
0.8,0.8,0,0.00223171
0.8,0.9,0,0.0025121
0.8,1,0,0.0027924
0.8,1.1,0,0.00307373
0.8,1.2,0,0.00335513
0.8,1.3,0,0.00363707
0.8,1.4,0,0.00391957
0.8,1.5,0,0.00420215
0.8,1.6,0,0.00448589
0.8,1.7,0,0.0047695
0.8,1.8,0,0.00505405
0.8,1.9,0,0.00533866
0.8,2,0,0.00562358
0.8,2.1,0,0.00590932
0.8,2.2,0,0.00619465
0.8,2.3,0,0.00648119
0.8,2.4,0,0.00676678
0.8,2.5,0,0.00705305
0.8,2.6,0,0.00733904
0.8,2.7,0,0.00762422
0.8,2.8,0,0.00791068
0.8,2.9,0,0.0081945
0.8,3,0,0.00847947
0.8,3.1,0,0.00876202
0.8,3.2,0,0.00904322
0.8,3.3,0,0.0093254
0.8,3.4,0,0.00960237
0.8,3.5,0,0.0098811
0.8,3.6,0,0.0101538
0.8,3.7,0,0.0104246
0.8,3.8,0,0.0106953
0.8,3.9,0,0.0109574
0.8,4,0,0.0112219
0.8,4.1,0,0.011475
0.8,4.2,0,0.0117256
0.8,4.3,0,0.0119742
0.8,4.4,0,0.0122099
0.8,4.5,0,0.0124484
0.8,4.6,0,0.0126685
0.8,4.7,0,0.0128854
0.8,4.8,0,0.0130972
0.8,4.9,0,0.0132561
0.8,5,0,0.0133991
0.8,5.1,0,0.0136689
0.8,5.2,0,0.0138361
0.8,5.3,0,0.0139913
0.8,5.4,0,0.0141337
0.8,5.5,0,0.0142627
0.8,5.6,0,0.0143777
0.8,5.7,0,0.0144782
0.8,5.8,0,0.0145637
0.8,5.9,0,0.0146336
0.8,6,0,0.0146875
0.8,6.1,0,0.0147252
0.8,6.2,0,0.0147464
0.8,6.3,0,0.0147508
0.8,6.4,0,0.0147384
0.8,6.5,0,0.0147092
0.8,6.6,0,0.0146631
0.8,6.7,0,0.0146006
0.8,6.8,0,0.0145216
0.8,6.9,0,0.0144266
0.8,7,0,0.0142471
0.8,7.1,0,0.0141475
0.8,7.2,0,0.0140336
0.8,7.3,0,0.0138911
0.8,7.4,0,0.0137152
0.8,7.5,0,0.0135402
0.8,7.6,0,0.0133482
0.8,7.7,0,0.0131399
0.8,7.8,0,0.0129323
0.8,7.9,0,0.0127053
0.8,8,0,0.0124713
0.8,8.1,0,0.0122361
0.8,8.2,0,0.0119839
0.8,8.3,0,0.0117305
0.8,8.4,0,0.0114743
0.8,8.5,0,0.0112051
0.8,8.6,0,0.0109374
0.8,8.7,0,0.0106663
0.8,8.8,0,0.010387
0.8,8.9,0,0.0101101
0.8,9,0,0.00982941
0.8,9.1,0,0.00954543
0.8,9.2,0,0.00926361
0.8,9.3,0,0.00897824
0.8,9.4,0,0.00869355
0.8,9.5,0,0.0084102
0.8,9.6,0,0.00812438
0.8,9.7,0,0.00784142
0.8,9.8,0,0.00755897
0.8,9.9,0,0.00727592
0.8,10,0,0.00699634
0.8,10.1,0,0.00671668
0.8,10.2,0,0.00643856
0.8,10.3,0,0.00616324
0.8,10.4,0,0.00588779
0.8,10.5,0,0.00561554
0.8,10.6,0,0.00534498
0.8,10.7,0,0.00507454
0.8,10.8,0,0.00480833
0.8,10.9,0,0.00454275
0.8,11,0,0.00427803
0.8,11.1,0,0.00401718
0.8,11.2,0,0.00375645
0.8,11.3,0,0.00349744
0.8,11.4,0,0.00324118
0.8,11.5,0,0.00298488
0.8,11.6,0,0.002731
0.8,11.7,0,0.00247858
0.8,11.8,0,0.00222625
0.8,11.9,0,0.00197644
0.8,12,0,0.00172698
0.8,12.1,0,0.00147789
0.8,12.2,0,0.00123087
0.8,12.3,0,0.000983529
0.8,12.4,0,0.0007368
0.8,12.5,0,0.000491332
0.8,12.6,0,0.000245229
0.8,12.7,0,0
0.9,0,0,0
0.9,0.1,0,0.000278109
0.9,0.2,0,0.000556082
0.9,0.3,0,0.000834459
0.9,0.4,0,0.00111282
0.9,0.5,0,0.00139142
0.9,0.6,0,0.00167064
0.9,0.7,0,0.00194974
0.9,0.8,0,0.00222945
0.9,0.9,0,0.0025095
0.9,1,0,0.0027897
0.9,1.1,0,0.00307098
0.9,1.2,0,0.00335227
0.9,1.3,0,0.00363421
0.9,1.4,0,0.00391683
0.9,1.5,0,0.00419947
0.9,1.6,0,0.00448334
0.9,1.7,0,0.00476744
0.9,1.8,0,0.00505199
0.9,1.9,0,0.00533743
0.9,2,0,0.00562267
0.9,2.1,0,0.00590883
0.9,2.2,0,0.00619553
0.9,2.3,0,0.00648207
0.9,2.4,0,0.00676953
0.9,2.5,0,0.00705647
0.9,2.6,0,0.00734328
0.9,2.7,0,0.00763107
0.9,2.8,0,0.00791753
0.9,2.9,0,0.00820462
0.9,3,0,0.00849075
0.9,3.1,0,0.00877464
0.9,3.2,0,0.00906006
0.9,3.3,0,0.00934223
0.9,3.4,0,0.00962425
0.9,3.5,0,0.00990472
0.9,3.6,0,0.0101794
0.9,3.7,0,0.0104563
0.9,3.8,0,0.010727
0.9,3.9,0,0.0109961
0.9,4,0,0.011263
0.9,4.1,0,0.0115187
0.9,4.2,0,0.0117772
0.9,4.3,0,0.0120259
0.9,4.4,0,0.0122703
0.9,4.5,0,0.0125116
0.9,4.6,0,0.0127349
0.9,4.7,0,0.0129609
0.9,4.8,0,0.0131727
0.9,4.9,0,0.0133576
0.9,5,0,0.0134847
0.9,5.1,0,0.0137618
0.9,5.2,0,0.0139338
0.9,5.3,0,0.0140935
0.9,5.4,0,0.0142403
0.9,5.5,0,0.0143735
0.9,5.6,0,0.0144925
0.9,5.7,0,0.0145965
0.9,5.8,0,0.014685
0.9,5.9,0,0.0147577
0.9,6,0,0.0148138
0.9,6.1,0,0.0148532
0.9,6.2,0,0.0148755
0.9,6.3,0,0.0148805
0.9,6.4,0,0.0148681
0.9,6.5,0,0.0148383
0.9,6.6,0,0.0147912
0.9,6.7,0,0.0147268
0.9,6.8,0,0.0146456
0.9,6.9,0,0.0145478
0.9,7,0,0.0143629
0.9,7.1,0,0.0142741
0.9,7.2,0,0.014149
0.9,7.3,0,0.013997
0.9,7.4,0,0.01382
0.9,7.5,0,0.013633
0.9,7.6,0,0.0134396
0.9,7.7,0,0.0132271
0.9,7.8,0,0.0130077
0.9,7.9,0,0.0127807
0.9,8,0,0.0125398
0.9,8.1,0,0.0122953
0.9,8.2,0,0.012043
0.9,8.3,0,0.0117807
0.9,8.4,0,0.011518
0.9,8.5,0,0.0112481
0.9,8.6,0,0.0109712
0.9,8.7,0,0.0106962
0.9,8.8,0,0.0104153
0.9,8.9,0,0.0101302
0.9,9,0,0.00984729
0.9,9.1,0,0.0095613
0.9,9.2,0,0.00927267
0.9,9.3,0,0.00898626
0.9,9.4,0,0.00869913
0.9,9.5,0,0.00841077
0.9,9.6,0,0.00812469
0.9,9.7,0,0.007839
0.9,9.8,0,0.00755358
0.9,9.9,0,0.00727054
0.9,10,0,0.0069884
0.9,10.1,0,0.00670739
0.9,10.2,0,0.00642913
0.9,10.3,0,0.00615192
0.9,10.4,0,0.00587615
0.9,10.5,0,0.00560363
0.9,10.6,0,0.00533217
0.9,10.7,0,0.00506186
0.9,10.8,0,0.0047954
0.9,10.9,0,0.00452987
0.9,11,0,0.00426539
0.9,11.1,0,0.00400441
0.9,11.2,0,0.00374451
0.9,11.3,0,0.00348569
0.9,11.4,0,0.00322965
0.9,11.5,0,0.00297466
0.9,11.6,0,0.00272081
0.9,11.7,0,0.00246912
0.9,11.8,0,0.00221814
0.9,11.9,0,0.00196832
0.9,12,0,0.00172015
0.9,12.1,0,0.00147223
0.9,12.2,0,0.00122532
0.9,12.3,0,0.000979724
0.9,12.4,0,0.000733848
0.9,12.5,0,0.000488675
0.9,12.6,0,0.00024457
0.9,12.7,0,0
1,0,0,0
1,0.1,0,0.000277728
1,0.2,0,0.000555456
1,0.3,0,0.000833413
1,0.4,0,0.0011116
1,0.5,0,0.00138978
1,0.6,0,0.00166871
1,0.7,0,0.00194764
1,0.8,0,0.00222709
1,0.9,0,0.00250704
1,1,0,0.002787
1,1.1,0,0.00306823
1,1.2,0,0.00334946
1,1.3,0,0.00363142
1,1.4,0,0.00391411
1,1.5,0,0.00419679
1,1.6,0,0.00448103
1,1.7,0,0.00476526
1,1.8,0,0.00505025
1,1.9,0,0.00533601
1,2,0,0.00562176
1,2.1,0,0.00590888
1,2.2,0,0.006196
1,2.3,0,0.00648362
1,2.4,0,0.00677176
1,2.5,0,0.0070599
1,2.6,0,0.0073485
1,2.7,0,0.0076371
1,2.8,0,0.00792553
1,2.9,0,0.00821378
1,3,0,0.00850203
1,3.1,0,0.00878879
1,3.2,0,0.00907555
1,3.3,0,0.00936082
1,3.4,0,0.00964458
1,3.5,0,0.00992835
1,3.6,0,0.0102072
1,3.7,0,0.010486
1,3.8,0,0.0107611
1,3.9,0,0.0110326
1,4,0,0.011304
1,4.1,0,0.0115651
1,4.2,0,0.0118263
1,4.3,0,0.0120804
1,4.4,0,0.0123277
1,4.5,0,0.0125749
1,4.6,0,0.0128041
1,4.7,0,0.0130333
1,4.8,0,0.0132324
1,4.9,0,0.0134013
1,5,0,0.0135702
1,5.1,0,0.0138547
1,5.2,0,0.0140314
1,5.3,0,0.0141958
1,5.4,0,0.014347
1,5.5,0,0.0144844
1,5.6,0,0.0146072
1,5.7,0,0.0147147
1,5.8,0,0.0148064
1,5.9,0,0.0148817
1,6,0,0.0149401
1,6.1,0,0.0149812
1,6.2,0,0.0150046
1,6.3,0,0.0150102
1,6.4,0,0.0149979
1,6.5,0,0.0149675
1,6.6,0,0.0149192
1,6.7,0,0.0148531
1,6.8,0,0.0147696
1,6.9,0,0.014669
1,7,0,0.0144787
1,7.1,0,0.0143562
1,7.2,0,0.0142337
1,7.3,0,0.0141014
1,7.4,0,0.0139135
1,7.5,0,0.0137257
1,7.6,0,0.0135278
1,7.7,0,0.0133064
1,7.8,0,0.013085
1,7.9,0,0.0128517
1,8,0,0.012604
1,8.1,0,0.0123563
1,8.2,0,0.012097
1,8.3,0,0.01183
1,8.4,0,0.011563
1,8.5,0,0.0112864
1,8.6,0,0.0110064
1,8.7,0,0.0107265
1,8.8,0,0.0104399
1,8.9,0,0.0101525
1,9,0,0.00986494
1,9.1,0,0.00957449
1,9.2,0,0.00928404
1,9.3,0,0.00899366
1,9.4,0,0.00870354
1,9.5,0,0.00841343
1,9.6,0,0.00812429
1,9.7,0,0.00783698
1,9.8,0,0.00754967
1,9.9,0,0.00726459
1,10,0,0.00698175
1,10.1,0,0.00669891
1,10.2,0,0.00641962
1,10.3,0,0.00614224
1,10.4,0,0.00586485
1,10.5,0,0.0055922
1,10.6,0,0.00532072
1,10.7,0,0.00504924
1,10.8,0,0.00478339
1,10.9,0,0.00451784
1,11,0,0.00425284
1,11.1,0,0.00399289
1,11.2,0,0.00373294
1,11.3,0,0.00347425
1,11.4,0,0.00321932
1,11.5,0,0.00296439
1,11.6,0,0.00271117
1,11.7,0,0.0024605
1,11.8,0,0.00220983
1,11.9,0,0.001961
1,12,0,0.00171367
1,12.1,0,0.00146635
1,12.2,0,0.00122068
1,12.3,0,0.000975716
1,12.4,0,0.000730756
1,12.5,0,0.000487026
1,12.6,0,0.000243513
1,12.7,0,0
1.1,0,0,0
1.1,0.1,0,0.000277027
1.1,0.2,0,0.000554493
1.1,0.3,0,0.000831892
1.1,0.4,0,0.00110978
1.1,0.5,0,0.00138746
1.1,0.6,0,0.0016659
1.1,0.7,0,0.00194461
1.1,0.8,0,0.00222365
1.1,0.9,0,0.00250342
1.1,1,0,0.00278308
1.1,1.1,0,0.0030641
1.1,1.2,0,0.00334527
1.1,1.3,0,0.00362717
1.1,1.4,0,0.00390986
1.1,1.5,0,0.00419263
1.1,1.6,0,0.00447714
1.1,1.7,0,0.00476156
1.1,1.8,0,0.00504704
1.1,1.9,0,0.00533311
1.1,2,0,0.00561956
1.1,2.1,0,0.0059077
1.1,2.2,0,0.00619536
1.1,2.3,0,0.0064843
1.1,2.4,0,0.00677319
1.1,2.5,0,0.00706291
1.1,2.6,0,0.0073536
1.1,2.7,0,0.00764327
1.1,2.8,0,0.00793414
1.1,2.9,0,0.00822377
1.1,3,0,0.00851482
1.1,3.1,0,0.00880509
1.1,3.2,0,0.00909361
1.1,3.3,0,0.00938282
1.1,3.4,0,0.00966876
1.1,3.5,0,0.00995686
1.1,3.6,0,0.0102409
1.1,3.7,0,0.0105224
1.1,3.8,0,0.0108032
1.1,3.9,0,0.0110778
1.1,4,0,0.0113552
1.1,4.1,0,0.0116235
1.1,4.2,0,0.011888
1.1,4.3,0,0.0121496
1.1,4.4,0,0.0124009
1.1,4.5,0,0.0126555
1.1,4.6,0,0.0128935
1.1,4.7,0,0.0131266
1.1,4.8,0,0.0133529
1.1,4.9,0,0.0135453
1.1,5,0,0.0136809
1.1,5.1,0,0.0139754
1.1,5.2,0,0.0141587
1.1,5.3,0,0.0143295
1.1,5.4,0,0.0144869
1.1,5.5,0,0.0146301
1.1,5.6,0,0.0147583
1.1,5.7,0,0.0148708
1.1,5.8,0,0.0149669
1.1,5.9,0,0.0150461
1.1,6,0,0.0151076
1.1,6.1,0,0.0151511
1.1,6.2,0,0.0151763
1.1,6.3,0,0.0151828
1.1,6.4,0,0.0151705
1.1,6.5,0,0.0151394
1.1,6.6,0,0.0150895
1.1,6.7,0,0.015021
1.1,6.8,0,0.0149343
1.1,6.9,0,0.0148298
1.1,7,0,0.0146321
1.1,7.1,0,0.0145363
1.1,7.2,0,0.0144063
1.1,7.3,0,0.0142406
1.1,7.4,0,0.0140495
1.1,7.5,0,0.0138554
1.1,7.6,0,0.0136458
1.1,7.7,0,0.0134198
1.1,7.8,0,0.0131902
1.1,7.9,0,0.0129464
1.1,8,0,0.0126941
1.1,8.1,0,0.012437
1.1,8.2,0,0.0121683
1.1,8.3,0,0.0118975
1.1,8.4,0,0.0116206
1.1,8.5,0,0.0113359