/*--------------------------------*- C++ -*----------------------------------*\
| =========                 |                                                 |
| \\      /  F ield         | OpenFOAM: The Open Source CFD Toolbox           |
|  \\    /   O peration     | Version:  v1806                                 |
|   \\  /    A nd           | Web:      www.OpenFOAM.com                      |
|    \\/     M anipulation  |                                                 |
\*---------------------------------------------------------------------------*/
FoamFile
{
    version     2.0;
    format      ascii;
    class       surfaceScalarField;
    location    "1";
    object      phi;
}
// * * * * * * * * * * * * * * * * * * * * * * * * * * * * * * * * * * * * * //

dimensions      [0 3 -1 0 0 0 0];
oriented        oriented;


internalField   nonuniform List<scalar> 
68400
(
0.0757449
0.000971756
0.0132833
0.062539
0.00124764
0.0119583
0.0516932
0.00106988
0.00977589
0.0432036
0.000947595
0.00754203
0.0382025
0.000882419
0.00411871
0.0358501
0.000752714
0.00159965
0.0346759
0.000542353
0.000631886
0.0340466
0.000325475
0.000303807
0.0337916
0.000139098
0.000115917
0.0337506
-1.29297e-06
4.22577e-05
0.0337847
-7.5317e-05
4.12027e-05
0.0338532
-0.000111297
4.28396e-05
0.0339508
-0.000126429
2.88097e-05
0.0340682
-0.000131567
1.41821e-05
0.0341911
-0.0001289
5.92482e-06
0.0343107
-0.000119555
8.59012e-09
0.0344187
-0.000104511
-3.49061e-06
0.0345089
-8.27509e-05
-7.47533e-06
0.0345742
-5.55612e-05
-9.76242e-06
-2.36143e-05
-1.22798e-05
0.0346101
0.0769653
0.000589616
0.0134169
0.0651816
0.000934639
0.0120967
0.0556041
0.000905991
0.00974141
0.0477062
0.000866854
0.00797859
0.0429568
0.000814464
0.00481735
0.0409082
0.000668334
0.00213297
0.0400602
0.000445112
0.00094532
0.039686
0.000218273
0.000481349
0.0396081
2.89148e-05
0.000188048
0.039681
-0.000121883
4.77356e-05
0.039781
-0.000213257
3.79168e-05
0.0398841
-0.000258104
4.37373e-05
0.0400036
-0.000276749
3.08198e-05
0.0401386
-0.000282126
1.55545e-05
0.0402778
-0.000276839
8.69741e-06
0.0404147
-0.000260229
3.83432e-06
0.040541
-0.000232088
1.24923e-06
0.0406502
-0.000191055
-8.65933e-07
0.0407338
-0.0001376
-1.60137e-06
-7.39179e-05
-1.97994e-07
0.0407843
0.0768099
0.000350625
0.0134291
0.0649982
0.000661434
0.0120849
0.0555244
0.000734807
0.00964496
0.0477264
0.000743402
0.00792151
0.0430485
0.000691159
0.00480116
0.0410631
0.000548972
0.00210481
0.0402715
0.000346566
0.000890093
0.0399437
0.000138991
0.000407068
0.0399069
-4.21796e-05
0.000107903
0.0400031
-0.000179085
-3.89511e-05
0.0401102
-0.000278101
-4.22732e-05
0.0402079
-0.000345127
-1.06987e-05
0.0403198
-0.000387534
-1.07394e-06
0.040452
-0.000410037
-4.36812e-06
0.0405933
-0.000414099
-3.97132e-06
0.0407359
-0.000398768
-4.13548e-06
0.0408705
-0.000363364
-3.26682e-06
0.0409891
-0.0003069
-2.75874e-06
0.0410819
-0.000229087
-1.32229e-06
-0.00013418
1.78924e-06
0.0411404
0.0766829
0.000217334
0.0134504
0.0647387
0.000467376
0.0121383
0.0552184
0.000564013
0.0096911
0.0474288
0.000582442
0.00795053
0.0427792
0.000530688
0.00481014
0.0408307
0.000402891
0.00209456
0.0400801
0.000224848
0.000872353
0.0397869
4.11582e-05
0.000391012
0.0397782
-0.000132941
9.94132e-05
0.0399064
-0.000279468
-2.78127e-05
0.0400437
-0.000391987
-2.33418e-05
0.0401692
-0.000473145
2.44008e-06
0.0403033
-0.000528602
7.04037e-06
0.0404539
-0.000561532
8.50722e-07
0.0406116
-0.000571242
-5.29571e-07
0.0407706
-0.000555662
-2.14803e-06
0.0409212
-0.000511998
-1.98242e-06
0.0410552
-0.000439092
-1.81046e-06
0.0411612
-0.00033493
-7.48026e-08
-0.000205682
2.96226e-06
0.0412297
0.0766171
0.000141471
0.0134588
0.0645979
0.00032682
0.0121597
0.0550405
0.000419202
0.00970227
0.0472441
0.00043964
0.00793919
0.0426016
0.000388062
0.00478511
0.0406668
0.000269855
0.00206779
0.0399372
0.000104865
0.000849644
0.0396731
-7.11127e-05
0.000376295
0.0396933
-0.00023334
8.02636e-05
0.0398462
-0.000377746
-5.46301e-05
0.0400003
-0.000500269
-4.58644e-05
0.0401381
-0.000599026
-1.19313e-05
0.0402846
-0.000672833
-2.2379e-06
0.0404505
-0.000721934
-5.50353e-06
0.0406255
-0.000742211
-3.98914e-06
0.0408047
-0.000730494
-4.39978e-06
0.0409767
-0.000681059
-2.88433e-06
0.0411325
-0.000592372
-2.60022e-06
0.0412573
-0.000459882
1.81531e-07
-0.000292541
4.49794e-06
0.0413397
0.0765869
9.11581e-05
0.0134634
0.0645202
0.000217768
0.0121758
0.0549224
0.000291107
0.00972589
0.0471038
0.000303172
0.00795508
0.042453
0.000246659
0.00479215
0.0405186
0.000131418
0.00207285
0.0397947
-2.30855e-05
0.000851896
0.0395392
-0.000195913
0.000380273
0.0395727
-0.000361609
9.47859e-05
0.0397435
-0.00051153
-3.70905e-05
0.039919
-0.000642523
-3.31695e-05
0.0400784
-0.000754846
-3.62027e-06
0.0402457
-0.000843854
3.71094e-06
0.0404346
-0.000908653
-2.20457e-06
0.0406343
-0.00094012
-1.7234e-06
0.0408418
-0.000934295
-3.75957e-06
0.0410436
-0.000880589
-2.19779e-06
0.0412302
-0.000776239
-2.79459e-06
0.0413818
-0.000612449
9.51472e-07
-0.000401485
5.73556e-06
0.041485
0.0765688
5.60223e-05
0.0134663
0.0644667
0.000133564
0.0121863
0.0548333
0.000181694
0.00974282
0.0469915
0.000180538
0.00796446
0.0423299
0.000115904
0.00479235
0.040393
-3.08019e-06
0.00207133
0.0396751
-0.000154703
0.000849582
0.0394298
-0.000322144
0.000371542
0.0394738
-0.000488213
8.25931e-05
0.0396549
-0.000645915
-4.67026e-05
0.0398413
-0.000789485
-3.95336e-05
0.0400159
-0.000920749
-8.67422e-06
0.0402006
-0.0010296
1.02249e-06
0.0404135
-0.00111697
-4.48878e-06
0.0406408
-0.0011652
-2.29691e-06
0.0408833
-0.00117201
-4.72172e-06
0.0411234
-0.00111856
-2.16726e-06
0.0413512
-0.00100048
-3.5457e-06
0.0415397
-0.000802817
1.81398e-06
-0.000541754
7.04393e-06
0.041673
0.0765581
2.99385e-05
0.013468
0.0644319
6.6913e-05
0.0121929
0.0547698
8.94063e-05
0.00975435
0.046907
7.2547e-05
0.00797083
0.0422326
-1.63474e-06
0.00479186
0.0402859
-0.000125338
0.00206896
0.0395616
-0.000280601
0.000850262
0.0393152
-0.000451447
0.00037564
0.0393623
-0.000622779
8.74534e-05
0.0395507
-0.000791498
-4.27653e-05
0.0397458
-0.00094949
-3.51391e-05
0.0399357
-0.001104
-6.64524e-06
0.0401379
-0.0012352
3.47958e-06
0.0403787
-0.00135375
-4.10125e-06
0.0406384
-0.00142402
-8.52584e-07
0.0409247
-0.00145364
-4.67327e-06
0.0412146
-0.00140696
-1.45426e-06
0.0414971
-0.00127885
-4.12847e-06
0.0417364
-0.00104566
3.53935e-06
-0.00072698
8.27235e-06
0.0419133
0.076551
9.75219e-06
0.0134691
0.0644071
1.34382e-05
0.0121974
0.0547203
1.21198e-05
0.00976412
0.046835
-2.10265e-05
0.0079788
0.0421451
-0.00010706
0.00479534
0.0401872
-0.000237872
0.00207047
0.0394545
-0.000397713
0.000849757
0.039204
-0.000574051
0.000373087
0.0392485
-0.000753006
8.57566e-05
0.0394391
-0.000937025
-4.50218e-05
0.0396364
-0.00111215
-3.4698e-05
0.0398396
-0.00129834
-8.86688e-06
0.0400546
-0.00145526
5.07466e-06
0.0403275
-0.0016207
-5.97772e-06
0.0406211
-0.00171826
6.80366e-07
0.040962
-0.00178993
-4.58251e-06
0.0413149
-0.00175894
-9.31062e-07
0.0416691
-0.00162885
-4.24825e-06
0.0419786
-0.00136146
6.30734e-06
-0.000976669
8.04784e-06
0.0422203
0.0765457
-6.18084e-06
0.0134702
0.0643877
-2.94564e-05
0.0122009
0.0546796
-5.13636e-05
0.00977166
0.0467735
-9.97807e-05
0.00798485
0.0420668
-0.000196813
0.00479647
0.0400945
-0.000336017
0.00207044
0.0393489
-0.000502102
0.000849985
0.0390894
-0.00068643
0.00037185
0.039125
-0.000874876
8.62777e-05
0.0393136
-0.001079
-4.66858e-05
0.0395054
-0.00127248
-3.14495e-05
0.0397216
-0.00150207
-1.24186e-05
0.0399405
-0.00168436
1.01973e-05
0.040253
-0.00192305
-1.01423e-05
0.0405764
-0.00204618
4.52297e-06
0.040988
-0.00219763
-3.93764e-06
0.0414189
-0.00218837
-1.42891e-06
0.0418666
-0.00207502
-1.58121e-06
0.042275
-0.00178086
1.10029e-05
-0.0013192
4.66624e-06
0.0426129
0.0765416
-1.86058e-05
0.0134708
0.0643715
-6.3163e-05
0.0122038
0.054644
-0.000102263
0.00977842
0.0467173
-0.000163996
0.00799091
0.0419926
-0.000271319
0.00479924
0.0400039
-0.00041849
0.00207113
0.0392419
-0.000590814
0.000850746
0.0389694
-0.000784135
0.000370194
0.0389893
-0.000982481
8.77207e-05
0.0391724
-0.00121131
-5.08486e-05
0.0393471
-0.0014218
-2.53229e-05
0.0395782
-0.00171113
-2.20186e-05
0.0397824
-0.00191025
2.16128e-05
0.0401495
-0.00226762
-2.2522e-05
0.0404836
-0.00239488
1.46879e-05
0.0409958
-0.00270388
-6.02225e-06
0.041513
-0.00270143
-4.11739e-06
0.0420861
-0.00265664
8.52045e-06
0.0426369
-0.00234787
1.62433e-05
-0.00180029
8.88332e-08
0.0431179
0.0765378
-2.79612e-05
0.0134715
0.064357
-8.85983e-05
0.0122063
0.0546114
-0.000141043
0.00978431
0.0466644
-0.000213479
0.00799654
0.0419209
-0.000329346
0.00480154
0.0399139
-0.000482812
0.0020713
0.0391319
-0.000660631
0.000851821
0.0388425
-0.000862207
0.000367503
0.0388389
-0.00107019
9.12216e-05
0.0390136
-0.00132681
-5.91147e-05
0.0391542
-0.0015502
-1.22743e-05
0.0394061
-0.00191961
-4.34246e-05
0.0395624
-0.00211389
4.74087e-05
0.0400142
-0.00266422
-5.52701e-05
0.0403089
-0.00272968
4.01302e-05
0.0409819
-0.00335902
-1.78728e-05
0.0415675
-0.00327211
-1.48549e-05
0.0423203
-0.00344933
3.97969e-05
0.0430787
-0.00311268
6.47089e-06
-0.00249534
3.29413e-06
0.0437704
0.0765344
-3.45306e-05
0.0134721
0.0643435
-0.000106315
0.0122086
0.0545807
-0.000168196
0.00978996
0.0466133
-0.000247991
0.00800194
0.0418503
-0.000370333
0.00480394
0.0398232
-0.000526892
0.00207124
0.0390181
-0.000708985
0.000853404
0.0387074
-0.000915282
0.000363782
0.0386729
-0.00113322
9.75074e-05
0.0388355
-0.00141606
-7.33116e-05
0.038922
-0.00164852
1.17922e-05
0.039202
-0.0021157
-8.3902e-05
0.0392609
-0.00227146
9.86868e-05
0.0398442
-0.00311799
-0.000129451
0.0400071
-0.00298997
9.73717e-05
0.0409533
-0.00423333
-7.19374e-05
0.0415179
-0.00381459
-2.20863e-05
0.0425714
-0.00459569
9.27963e-05
0.0436151
-0.00411733
-3.9033e-05
-0.00349966
-3.0683e-05
0.0446501
0.0765314
-3.8602e-05
0.0134727
0.064331
-0.000116742
0.0122108
0.0545515
-0.000183894
0.00979527
0.0465632
-0.000267338
0.00800763
0.0417809
-0.000394126
0.00480612
0.0397313
-0.000548806
0.00207151
0.0389017
-0.000734286
0.000854884
0.0385634
-0.000936593
0.000359627
0.0384932
-0.00116989
0.000106814
0.0386361
-0.00146314
-9.57737e-05
0.0386508
-0.00171666
5.33771e-05
0.0389599
-0.00226854
-0.000156164
0.0388673
-0.00237675
0.00019781
0.0396268
-0.00359609
-0.000281354
0.0395296
-0.00311216
0.000219404
0.0409207
-0.00538347
-0.000240947
0.041265
-0.0041405
-1.84123e-05
0.0428618
-0.00636362
0.000171089
0.0441401
-0.00519854
-0.000197041
-0.00521825
5.98546e-05
0.0457988
0.0765288
-4.05365e-05
0.0134732
0.0643196
-0.000120214
0.0122126
0.0545235
-0.000188248
0.00980047
0.0465137
-0.000271276
0.00801375
0.0417133
-0.000401539
0.00480783
0.0396386
-0.000545762
0.0020716
0.0387851
-0.000737182
0.000856447
0.0384096
-0.000916474
0.000355386
0.0383058
-0.00118493
0.000118864
0.0384101
-0.00144241
-0.000125095
0.0383524
-0.00176808
0.000109137
0.0386593
-0.00232169
-0.000253755
0.0384038
-0.00245566
0.000334409
0.0393104
-0.00400484
-0.00049787
0.0388855
-0.00308345
0.00039622
0.0408157
-0.00674208
-0.000571591
0.0407231
-0.00406838
2.04178e-05
0.0432286
-0.00900105
0.000132017
0.0446925
-0.00613998
-0.000522497
-0.00806788
0.000488471
0.0470536
0.0765271
-4.08645e-05
0.0134733
0.0643097
-0.000117095
0.0122143
0.0544969
-0.000180926
0.0098054
0.0464641
-0.000260712
0.00802227
0.0416502
-0.000393438
0.0048058
0.0395445
-0.000517634
0.00207759
0.0386765
-0.000715556
0.000846346
0.0382383
-0.000850524
0.000372265
0.0381354
-0.00118151
9.95025e-05
0.0381314
-0.00132401
-0.000114395
0.0380762
-0.00183218
0.000119329
0.0382476
-0.0021734
-0.000319692
0.0379368
-0.00258984
0.000444943
0.0388156
-0.00411542
-0.000768225
0.0381295
-0.00304755
0.000650187
0.0405305
-0.00796801
-0.00117507
0.0397447
-0.00362923
0.000346652
0.0435626
-0.0125958
-0.000223114
0.0448468
-0.00635928
-0.00106484
-0.0141636
0.000811086
0.0501314
0.0765267
-4.07669e-05
0.0134732
0.0643019
-0.000107
0.0122148
0.0544716
-0.000161391
0.00981077
0.0464158
-0.000235633
0.00803071
0.0415938
-0.000374847
0.0048034
0.0394529
-0.000457287
0.00208057
0.0385753
-0.000680985
0.000842965
0.0380608
-0.000712407
0.000376366
0.0379719
-0.00119349
0.000100924
0.0378326
-0.00104356
-0.000141147
0.0377926
-0.00196813
0.000175927
0.0378017
-0.00176719
-0.000415254
0.0374343
-0.00288359
0.000661091
0.0381761
-0.00395688
-0.00090029
0.0372527
-0.00324601
0.00112177
0.0398053
-0.00897313
-0.00154749
0.0383495
-0.00336973
0.00119638
0.0436031
-0.0170759
-0.000773534
0.043874
-0.0052704
-0.00135979
-0.0240917
0.00306487
0.0507372
0.0765299
-4.21211e-05
0.0134715
0.0642958
-8.92571e-05
0.0122163
0.0544448
-0.000128092
0.00981769
0.0463665
-0.000204448
0.00804713
0.0415537
-0.000338947
0.00477689
0.0393593
-0.000384118
0.0021213
0.0385157
-0.000600651
0.000763189
0.0378455
-0.000576431
0.000534279
0.0379251
-0.00112926
-0.000143803
0.0373577
-0.000725548
0.000249326
0.0377655
-0.00200251
-0.000373407
0.0368841
-0.00105558
0.000169852
0.0373641
-0.0031586
-0.000205034
0.0369587
-0.00284326
-0.0007082
0.0366622
-0.00387454
0.000925022
0.0380177
-0.00833197
-0.00199668
0.0370174
-0.00453005
0.00216062
0.042915
-0.0200566
-0.0029169
0.0424156
-0.00418914
-0.000581894
-0.044977
0.00238889
0.060912
0.0765398
-5.084e-05
0.013469
0.0642952
-5.50706e-05
0.0122104
0.0544158
-8.21465e-05
0.00983344
0.0463228
-0.000169344
0.00805793
0.0415231
-0.000301953
0.00476262
0.0392825
-0.000267932
0.00212447
0.0384369
-0.000513626
0.000758548
0.0376975
-0.000353919
0.000516897
0.0377755
-0.00106057
-0.000146736
0.0371566
-0.00029833
0.000191733
0.0374124
-0.00196629
-0.000292074
0.0365951
-0.000294458
5.61719e-05
0.0365996
-0.00313245
-3.05894e-05
0.0362619
-0.00143566
-0.00106985
0.0353979
-0.0044014
0.00139079
0.0357063
-0.00610973
-0.00253059
0.0344951
-0.00809802
0.00477916
0.0376829
-0.018816
-0.00442842
0.0351458
-0.0117457
0.0100937
-0.0688753
-0.000772637
0.0598167
0.0765524
0.0134635
-6.67334e-05
0.0642854
0.0122182
-6.22978e-06
0.0543826
0.00985267
-3.19501e-05
0.0462951
0.00806607
-0.00014794
0.0415212
0.00470251
-0.000230548
0.0392116
0.00223527
-0.000193662
0.0384094
0.000606358
-0.00031774
0.037578
0.000790102
-0.000312605
0.0376884
-0.000585042
-0.00058596
0.0370536
0.000746667
-0.000410231
0.0371167
-0.00115512
-0.000874253
0.0365439
0.00107846
-0.000800119
0.0360419
-0.00133829
-0.00129209
0.0352185
0.00174871
-0.00236106
0.0345969
-0.00104461
-0.00273514
0.0325328
0.00269393
-0.00673953
0.0340587
-0.000286222
-0.00933771
0.0335351
0.00306627
-0.0213587
0.046905
0.0115736
-0.0366893
-0.0171371
0.0862839
-0.091117
0.0915343
0.00103363
0.0107154
0.0905855
0.00151264
0.0113944
0.0884983
0.00144778
0.0104153
0.0849782
0.00143065
0.0096315
0.0812972
0.0015699
0.00622986
0.0783979
0.00164941
0.00284948
0.0762891
0.00148239
0.00125831
0.0748676
0.00113479
0.000590559
0.0740337
0.000736819
0.000212998
0.0736299
0.000380308
6.57584e-05
0.0734937
0.000119374
5.80182e-05
0.0735152
-4.03359e-05
6.16369e-05
0.0736299
-0.000128919
4.30347e-05
0.073799
-0.000178857
2.39587e-05
0.0739971
-0.000204724
1.25105e-05
0.0742073
-0.000213702
3.54203e-06
0.0744157
-0.000210886
-9.96729e-07
0.0746123
-0.000197182
-6.88141e-06
0.0747849
-0.000172002
-1.03489e-05
-0.000138384
-1.43904e-05
0.0749254
0.0929743
0.000628738
0.0108474
0.0939039
0.00113104
0.0115487
0.0936609
0.0012015
0.0102307
0.091847
0.00126071
0.00996242
0.0897387
0.00141709
0.00707847
0.0883738
0.00149863
0.00364866
0.0876341
0.00135171
0.00181578
0.0872787
0.00102396
0.000947497
0.0871789
0.000633405
0.000391284
0.0872186
0.000272694
0.000115692
0.0873203
-2.60203e-06
5.81124e-05
0.0874638
-0.000202438
6.24175e-05
0.0876441
-0.000321958
4.35338e-05
0.0878524
-0.000394377
2.27705e-05
0.0880796
-0.00043703
1.38123e-05
0.0883186
-0.000455511
6.62112e-06
0.0885582
-0.000452697
3.47828e-06
0.0887912
-0.00043111
8.9867e-08
0.089004
-0.000384989
-1.48575e-06
-0.00032332
-1.34439e-06
0.0891901
0.0928333
0.00036857
0.010856
0.0937518
0.000762455
0.0115349
0.0935572
0.000904057
0.010137
0.0918427
0.001007
0.00988976
0.089881
0.00113703
0.00704291
0.0886888
0.0011884
0.00360718
0.0881088
0.00106555
0.00175631
0.0878732
0.000798667
0.000867935
0.0878548
0.000467755
0.000291922
0.0879406
0.000141513
6.50995e-06
0.0880588
-0.00012723
-3.59096e-05
0.0881939
-0.000331845
-1.63869e-05
0.0883573
-0.000483103
-3.27675e-06
0.0885533
-0.000588798
-5.97657e-06
0.0887756
-0.000658995
-4.33073e-06
0.0890173
-0.000696414
-4.96378e-06
0.0892654
-0.000700728
-3.2913e-06
0.0895118
-0.000676841
-3.37624e-06
0.0897408
-0.000613188
-2.15234e-06
-0.000525383
-2.76022e-07
0.0899449
0.0927207
0.000227894
0.0108703
0.0935128
0.000527788
0.0115809
0.0932459
0.000675594
0.0101864
0.0914912
0.000778765
0.00993351
0.0895037
0.000878014
0.00705662
0.0882989
0.000906097
0.00358169
0.0877287
0.000793718
0.00171436
0.0875268
0.000560428
0.000831141
0.0875543
0.000268419
0.000271258
0.0876929
-2.86993e-05
3.85287e-06
0.087868
-0.000302142
-2.35642e-05
0.088061
-0.000521792
-6.17857e-07
0.0882733
-0.000693319
4.97591e-06
0.088508
-0.000821663
-1.00029e-06
0.0887614
-0.000911927
-9.33448e-07
0.0890307
-0.000964788
-3.07916e-06
0.0893046
-0.000974631
-2.02247e-06
0.0895766
-0.000948305
-2.3471e-06
0.08983
-0.000865804
-8.31757e-07
-0.000751038
1.28128e-06
0.0900573
0.0926619
0.00014894
0.0108759
0.0933856
0.000361159
0.0116026
0.0930723
0.00048336
0.0102077
0.0912814
0.000573647
0.00993529
0.0892631
0.000646587
0.00703483
0.0880368
0.000651631
0.00354854
0.0874609
0.000536797
0.00168241
0.0872767
0.00031453
0.00080645
0.0873429
3.49436e-05
0.000247508
0.0875275
-0.000242941
-2.49761e-05
0.0877389
-0.000505173
-5.4206e-05
0.0879582
-0.000733838
-1.92069e-05
0.088193
-0.000924049
-6.32503e-06
0.0884509
-0.00107626
-8.84236e-06
0.0887289
-0.00118876
-5.12663e-06
0.0890263
-0.00126065
-5.95672e-06
0.0893308
-0.00127901
-2.92551e-06
0.0896367
-0.00125345
-3.41552e-06
0.0899235
-0.00115191
-4.98011e-07
-0.00100985
1.86654e-06
0.090185
0.0926358
9.71977e-05
0.0108794
0.0933165
0.000236926
0.0116194
0.0929633
0.000325655
0.0102367
0.0911356
0.000395237
0.00996125
0.0890818
0.000443048
0.00704942
0.0878268
0.000423071
0.00355647
0.087234
0.000296135
0.00168531
0.0870428
7.64481e-05
0.000809618
0.0871116
-0.000196965
0.000257867
0.0873136
-0.000477183
-4.82392e-06
0.0875539
-0.000740741
-3.79526e-05
0.0878061
-0.000980195
-9.48116e-06
0.0880731
-0.001188
7.20065e-07
0.088364
-0.00136444
-4.96657e-06
0.0886759
-0.00150014
-2.24345e-06
0.0890113
-0.00159454
-5.28382e-06
0.0893567
-0.00162474
-1.82336e-06
0.0897085
-0.00160443
-3.6172e-06
0.0900404
-0.00148328
3.48905e-07
-0.00131442
2.64586e-06
0.0903481
0.0926203
6.15591e-05
0.0108816
0.0932692
0.000143883
0.0116305
0.0928836
0.000196149
0.010258
0.0910225
0.000241792
0.00997901
0.0889377
0.000264904
0.00705534
0.0876564
0.000218518
0.00355712
0.0870489
7.0166e-05
0.00168307
0.0868561
-0.000160237
0.000801038
0.0869308
-0.000433586
0.000244486
0.0871416
-0.00071701
-1.767e-05
0.0873935
-0.000986792
-4.53655e-05
0.0876627
-0.00124279
-1.52381e-05
0.0879494
-0.00147144
-2.31846e-06
0.0882677
-0.00167944
-7.70571e-06
0.0886121
-0.00184413
-2.72911e-06
0.0889894
-0.0019701
-6.49374e-06
0.0893837
-0.00201984
-1.33985e-06
0.0897933
-0.0020131
-4.51057e-06
0.0901838
-0.00187338
1.45729e-06
-0.00168094
3.29372e-06
0.090554
0.0926113
3.52924e-05
0.010883
0.0932392
7.13951e-05
0.0116374
0.0928279
8.9226e-05
0.0102725
0.0909397
0.000109324
0.00999146
0.0888295
0.000108199
0.00705878
0.0875238
3.67275e-05
0.0035565
0.0868931
-0.000132315
0.00168347
0.0866827
-0.000379582
0.000805329
0.0867483
-0.000662246
0.000250534
0.0869588
-0.000956959
-1.33065e-05
0.0872148
-0.00123766
-4.02905e-05
0.0874972
-0.00151903
-1.27852e-05
0.0877999
-0.00177143
7.60255e-07
0.0881466
-0.00202311
-7.18364e-06
0.0885253
-0.002223
-6.63116e-07
0.0889516
-0.00239453
-6.54237e-06
0.0894055
-0.0024753
1.47919e-07
0.089888
-0.00249463
-5.15825e-06
0.090354
-0.00233954
3.6992e-06
-0.0021317
3.86287e-06
0.0908092
0.0926054
1.50032e-05
0.0108841
0.0932184
1.37999e-05
0.011642
0.0927859
1.56103e-06
0.0102843
0.0908718
-1.8545e-06
0.010004
0.0887356
-2.61171e-05
0.00706592
0.0874056
-0.000123046
0.00356023
0.086753
-0.000313889
0.00168395
0.0865246
-0.000580117
0.00080197
0.0865749
-0.00087514
0.000248405
0.0867773
-0.00118831
-1.60728e-05
0.0870264
-0.00148174
-3.97757e-05
0.0873155
-0.00180162
-1.52977e-05
0.0876237
-0.00207735
2.73808e-06
0.0879989
-0.00239494
-9.33554e-06
0.0884082
-0.00263313
1.52697e-06
0.0888905
-0.0028749
-6.56045e-06
0.0894153
-0.00300276
1.75272e-06
0.0899879
-0.00306623
-5.21584e-06
0.0905511
-0.00290379
7.38317e-06
-0.00269717
3.00666e-06
0.0911216
0.0926009
-6.6267e-07
0.010885
0.0932024
-3.22835e-05
0.0116454
0.0927517
-7.00928e-05
0.010294
0.0908148
-9.476e-05
0.0100146
0.0886546
-0.000139541
0.00707012
0.0873001
-0.000259307
0.00356123
0.0866222
-0.00047098
0.00168497
0.0863709
-0.00075743
0.000800435
0.0863981
-0.00106488
0.000248768
0.0865859
-0.00140457
-1.82306e-05
0.0868165
-0.00170773
-3.60128e-05
0.0871088
-0.00208695
-1.94133e-05
0.0874069
-0.0023741
8.85067e-06
0.0878156
-0.00279966
-1.40988e-05
0.0882436
-0.00306295
6.31624e-06
0.0887937
-0.00342319
-5.73644e-06
0.089401
-0.00361363
2.16823e-06
0.0900828
-0.00374774
-1.91646e-06
0.0907723
-0.00359655
1.42692e-05
-0.00342022
-2.39547e-06
0.0915024
0.0925977
-1.33429e-05
0.0108858
0.0931892
-6.82688e-05
0.0116483
0.0927221
-0.000126684
0.0103021
0.0907636
-0.000169271
0.0100239
0.0885797
-0.00023221
0.00707579
0.0872002
-0.000372168
0.0035635
0.086495
-0.000601575
0.00168652
0.086217
-0.000907763
0.00079852
0.0862139
-0.0012243
0.000250274
0.0863816
-0.00159978
-2.33816e-05
0.0865783
-0.00190101
-2.87026e-05
0.0868743
-0.00237428
-3.07404e-05
0.087134
-0.00263438
2.22426e-05
0.0875925
-0.00325211
-2.85222e-05
0.0880049
-0.00347875
1.80186e-05
0.0886494
-0.00406647
-7.26889e-06
0.0893407
-0.00430782
-1.18466e-06
0.090157
-0.00456606
1.05531e-05
0.0910117
-0.00445822
2.31923e-05
-0.00436291
-7.40381e-06
0.0919619
0.0925945
-2.27826e-05
0.0108864
0.0931774
-9.54094e-05
0.0116506
0.0926952
-0.000169531
0.0103093
0.0907159
-0.000226192
0.0100328
0.0885087
-0.000304339
0.00708082
0.0871033
-0.000460413
0.00356499
0.0863686
-0.000703517
0.00168841
0.0860598
-0.0010267
0.000795321
0.0860188
-0.0013464
0.000254313
0.0861613
-0.00176792
-3.34964e-05
0.086304
-0.00204283
-1.31841e-05
0.0866101
-0.0026675
-5.6325e-05
0.0867824
-0.00281209
5.28995e-05
0.0873324
-0.00379007
-6.73818e-05
0.0876472
-0.00379969
4.62437e-05
0.0884528
-0.0048729
-1.70025e-05
0.0891947
-0.00504586
-1.87135e-05
0.0901833
-0.00556589
5.10252e-05
0.0912621
-0.00554362
1.30475e-05
-0.00561402
-4.90247e-06
0.0925214
0.0925918
-2.94901e-05
0.010887
0.0931666
-0.000114278
0.0116527
0.0926701
-0.000199394
0.0103163
0.0906702
-0.000265639
0.0100413
0.0884401
-0.000356059
0.00708583
0.0870073
-0.000522523
0.00356609
0.0862417
-0.00077546
0.00169095
0.0858965
-0.0011086
0.000790898
0.0858122
-0.00142633
0.00026179
0.0859221
-0.00190032
-5.08365e-05
0.0859905
-0.00211531
1.58946e-05
0.0863149
-0.00297004
-0.000105839
0.0863284
-0.00284196
0.000115146
0.0870464
-0.00447945
-0.000158133
0.0871078
-0.00387467
0.00011093
0.0882202
-0.00598643
-7.07951e-05
0.0888873
-0.00569308
-4.19099e-05
0.0901346
-0.00684718
0.000126726
0.0914827
-0.00690142
-2.93512e-05
-0.00730814
-8.45332e-05
0.0932307
0.0925893
-3.37202e-05
0.0108877
0.0931565
-0.000125416
0.0116546
0.0926466
-0.000216881
0.0103228
0.0906259
-0.000287278
0.01005
0.0883734
-0.00038803
0.0070905
0.0869109
-0.000556076
0.00356758
0.0861157
-0.000818711
0.00169336
0.0857246
-0.00114377
0.000785919
0.0855986
-0.00146683
0.000273265
0.0856586
-0.00197694
-7.91525e-05
0.0856432
-0.00211444
6.79848e-05
0.0859852
-0.00327085
-0.000197396
0.0857557
-0.00265389
0.000239275
0.0867537
-0.00540645
-0.000352399
0.0863023
-0.00345953
0.000255636
0.0880004
-0.00767563
-0.000249815
0.0883033
-0.005934
-8.0385e-05
0.0900111
-0.00866649
0.000282549
0.0914732
-0.00835428
-0.000206265
-0.00971671
2.67591e-05
0.0939149
0.092587
-3.57989e-05
0.0108882
0.0931474
-0.000129364
0.0116562
0.0926245
-0.000222535
0.010329
0.0905824
-0.000290535
0.0100592
0.0883095
-0.000401884
0.00709458
0.0868142
-0.00055795
0.00356872
0.0859933
-0.000837384
0.00169606
0.0855422
-0.00111787
0.000780553
0.0853872
-0.00148125
0.000288336
0.0853618
-0.00196062
-0.000116007
0.0852834
-0.00206472
0.000137783
0.0855959
-0.00351363
-0.000323512
0.0850963
-0.00223286
0.000413028
0.0864193
-0.0065843
-0.000643029
0.0852383
-0.0023556
0.000473294
0.0877397
-0.0101351
-0.000613612
0.0873693
-0.00545354
-8.96281e-05
0.089776
-0.011339
0.000397862
0.0913214
-0.00980786
-0.000614357
-0.0132763
0.000406902
0.0949626
0.0925853
-3.62965e-05
0.0108885
0.0931396
-0.000126887
0.0116575
0.0926044
-0.000216647
0.0103347
0.0905393
-0.00027443
0.0100713
0.0882502
-0.000401097
0.00709404
0.0867159
-0.000523046
0.00357707
0.085884
-0.00084326
0.0016841
0.0853376
-0.00100065
0.000801384
0.0852132
-0.00152304
0.000265719
0.0849871
-0.0017433
-0.000105613
0.0849923
-0.0021055
0.000154974
0.0850587
-0.00347889
-0.00042086
0.0844513
-0.00173602
0.000555512
0.0859554
-0.00780718
-0.00104949
0.0839553
-0.000544596
0.000839313
0.0873853
-0.0133746
-0.00136554
0.0858964
-0.00385889
0.000240871
0.0892714
-0.0152538
0.000316681
0.0903011
-0.010556
-0.00134638
-0.019623
0.000861883
0.096597
0.0925843
-3.62236e-05
0.0108888
0.0931337
-0.000118849
0.0116574
0.0925863
-0.000199091
0.0103406
0.090498
-0.00023872
0.0100832
0.0881969
-0.000389462
0.0070929
0.0866216
-0.00044828
0.00358115
0.0857831
-0.000843144
0.00168132
0.0851324
-0.00077888
0.000805249
0.0850458
-0.00160505
0.000269554
0.0846088
-0.00130879
-0.000138664
0.0846854
-0.00223719
0.000231032
0.0845171
-0.0031924
-0.000533465
0.0837277
-0.00113366
0.000848189
0.0853332
-0.00904218
-0.00127078
0.082513
0.00194171
0.00145561
0.0864741
-0.0168431
-0.00204001
0.0838289
-0.00117496
0.00115765
0.0883543
-0.0204893
-6.35193e-05
0.0885056
-0.0100298
-0.00203725
-0.0268344
0.00310763
0.0956742
0.092586
-3.79709e-05
0.0108873
0.09313
-0.000105047
0.0116584
0.0925665
-0.000165544
0.0103477
0.0904583
-0.000189396
0.010106
0.0881515
-0.00036704
0.00706135
0.0865384
-0.000346576
0.00363269
0.0857041
-0.000827047
0.00158135
0.084918
-0.000465623
0.00100713
0.0849773
-0.00176678
-4.13598e-05
0.0840723
-0.000499512
0.000345053
0.0847093
-0.002768
-0.000479558
0.0833786
-0.00183577
0.000143841
0.0838152
-0.00160282
-0.000172462
0.0835138
-0.00827189
-0.00117713
0.0818027
0.0028856
0.00169232
0.0839761
-0.0179215
-0.00309179
0.0813289
0.00102733
0.00260553
0.0868742
-0.0262745
-0.00267697
0.0847216
-0.00656513
-0.00189399
-0.0423235
0.00213499
0.100465
0.092593
-4.77567e-05
0.0108858
0.0931314
-8.22244e-05
0.0116491
0.0925488
-0.000112451
0.010363
0.0904244
-0.000126953
0.0101199
0.0881123
-0.000336403
0.00704405
0.0864787
-0.000223962
0.0036355
0.0855891
-0.000755953
0.00157702
0.0848385
-0.000179302
0.000981238
0.0846667
-0.00169438
-4.73402e-05
0.0841189
-5.08272e-05
0.000290762
0.0839735
-0.00253105
-0.000383589
0.0834801
-0.00123955
-4.66177e-05
0.082691
-0.000879576
3.52386e-05
0.082093
-0.0070003
-0.00174346
0.0806317
0.00323524
0.00250241
0.0794599
-0.015366
-0.00391419
0.0766952
0.00200064
0.0065706
0.080473
-0.0284172
-0.00606356
0.0736905
-0.00080083
0.0111118
-0.0622187
-0.00133759
0.0941506
0.0926036
0.0108762
-6.40905e-05
0.0931247
0.0116555
-4.06696e-05
0.0925162
0.0103885
-3.97964e-05
0.0904157
0.0101336
-9.40529e-05
0.0880586
0.00696323
-0.000240018
0.0865042
0.00377845
-0.000212671
0.0853805
0.00138239
-0.000408329
0.085021
0.00133527
-0.000364938
0.0840417
-0.000639599
-0.000660529
0.08463
0.000989809
-0.000882314
0.0827395
-0.00153986
-0.000255761
0.0838626
0.00146243
-0.00274661
0.0818762
-0.00173979
0.00150831
0.0807308
0.00252526
-0.00663142
0.0819091
-0.00135382
0.0023661
0.0767506
0.00349982
-0.0110135
0.0800146
0.000457026
-0.0020066
0.0766592
0.00167019
-0.0236656
0.0918605
0.0141421
-0.0185707
-0.0192912
0.126608
-0.0948118
0.0927511
0.00102915
0.00693513
0.0948655
0.00153081
0.0077492
0.096537
0.00146115
0.00728264
0.097241
0.00146463
0.00746291
0.0965614
0.00164584
0.00526364
0.0949859
0.00183684
0.00258816
0.0932173
0.00181466
0.00121225
0.0916847
0.00154127
0.000581826
0.0905627
0.00112199
0.000213031
0.0898782
0.00068693
6.33533e-05
0.0895553
0.000331929
4.89742e-05
0.0894777
8.79968e-05
5.11817e-05
0.0895467
-6.17667e-05
3.58008e-05
0.0897003
-0.000150284
2.07154e-05
0.0899023
-0.000201017
1.15361e-05
0.0901286
-0.000226924
4.09581e-06
0.0903627
-0.000235602
5.01682e-07
0.0905924
-0.000232174
-4.37187e-06
0.0908036
-0.000214141
-7.37494e-06
-0.000187899
-1.12676e-05
0.0909883
0.094221
0.000626336
0.00702925
0.0982869
0.00115281
0.00786083
0.101631
0.00122102
0.00712712
0.104148
0.00128314
0.00762661
0.105479
0.00148154
0.00591154
0.106014
0.00167514
0.0032757
0.10624
0.00167299
0.00173097
0.106359
0.00143392
0.000935817
0.106423
0.0010411
0.000408231
0.106477
0.00061254
0.000136039
0.106562
0.000240359
6.45239e-05
0.106693
-3.66702e-05
5.67366e-05
0.106868
-0.000232072
3.85137e-05
0.107078
-0.00035695
1.98991e-05
0.107315
-0.000436596
1.22071e-05
0.107572
-0.000483576
5.96454e-06
0.107838
-0.000501813
3.30387e-06
0.108107
-0.000501198
4.61878e-07
0.108363
-0.000470405
-1.11702e-06
-0.00042551
-3.30589e-06
0.108603
0.0940827
0.000368434
0.00703115
0.0981432
0.000778832
0.00784845
0.101519
0.000915597
0.00706703
0.104109
0.00101261
0.00757028
0.10558
0.00117701
0.00587603
0.106304
0.00132263
0.00323555
0.10673
0.00131779
0.00168593
0.107021
0.00112964
0.00088129
0.107207
0.000810324
0.00033678
0.107329
0.000442056
5.4805e-05
0.107444
9.54727e-05
-6.29013e-06
0.107577
-0.000181762
-4.66679e-06
0.107739
-0.000397494
4.53389e-07
0.107935
-0.00055571
-3.34595e-06
0.108165
-0.000667928
-2.38659e-06
0.108422
-0.000742169
-3.40494e-06
0.108694
-0.000775449
-2.14943e-06
0.108975
-0.00078288
-2.57543e-06
0.109247
-0.000742493
-1.89659e-06
-0.000681656
-3.89423e-06
0.109507
0.0939726
0.000228319
0.0070378
0.0979205
0.000538568
0.00787332