/*--------------------------------*- C++ -*----------------------------------*\
| =========                 |                                                 |
| \\      /  F ield         | OpenFOAM: The Open Source CFD Toolbox           |
|  \\    /   O peration     | Version:  v1806                                 |
|   \\  /    A nd           | Web:      www.OpenFOAM.com                      |
|    \\/     M anipulation  |                                                 |
\*---------------------------------------------------------------------------*/
FoamFile
{
    version     2.0;
    format      ascii;
    class       volScalarField;
    location    "12";
    object      p;
}
// * * * * * * * * * * * * * * * * * * * * * * * * * * * * * * * * * * * * * //

dimensions      [0 2 -2 0 0 0 0];


internalField   nonuniform List<scalar> 
24000
(
13.77
12.8979
12.341
11.9241
11.5471
11.2065
10.9064
10.642
10.4044
10.1855
9.97955
9.78239
9.59148
9.40524
9.22287
9.04372
8.86756
8.69411
8.5232
8.35535
13.585
12.8282
12.3103
11.9046
11.5349
11.1983
10.8994
10.6353
10.398
10.1799
9.97494
9.77892
9.58896
9.40366
9.22169
9.04324
8.86682
8.69412
8.52211
8.35467
13.5419
12.8073
12.2993
11.8971
11.5296
11.1948
10.8974
10.6343
10.3978
10.1803
9.97592
9.78051
9.59102
9.40611
9.22426
9.04586
8.86914
8.69615
8.52342
8.35529
13.4896
12.7692
12.2734
11.8788
11.5164
11.1852
10.8905
10.6296
10.3948
10.1787
9.97543
9.78096
9.59222
9.40782
9.22621
9.04782
8.87077
8.69728
8.52365
8.35444
13.46
12.7468
12.2577
11.8679
11.5087
11.1799
10.8874
10.6284
10.3952
10.1804
9.97822
9.78458
9.59643
9.41234
9.23072
9.05203
8.87436
8.69994
8.52509
8.35442
13.4376
12.7275
12.2423
11.856
11.4998
11.1736
10.8833
10.6263
10.3949
10.1816
9.98066
9.78797
9.60053
9.41681
9.23531
9.05626
8.87787
8.70231
8.52591
8.35347
13.4213
12.713
12.2307
11.8471
11.4935
11.1695
10.8815
10.6264
10.3969
10.1851
9.98567
9.79398
9.60735
9.42393
9.24242
9.0628
8.8835
8.70642
8.52817
8.35345
13.4096
12.7025
12.222
11.8405
11.489
11.167
10.881
10.6277
10.4001
10.1899
9.99211
9.8014
9.61592
9.43258
9.25144
9.07065
8.89077
8.71141
8.5313
8.35426
13.4013
12.695
12.216
11.8361
11.4864
11.1661
10.8822
10.6307
10.4053
10.1967
10.0009
9.81133
9.62727
9.44417
9.26345
9.08147
8.90056
8.71839
8.53575
8.35521
13.3956
12.6901
12.2123
11.8336
11.4856
11.167
10.885
10.6356
10.4123
10.2058
10.0119
9.82409
9.64152
9.45924
9.27877
9.096
8.91345
8.72868
8.54277
8.35821
13.3918
12.6877
12.2104
11.833
11.4863
11.1696
10.8895
10.6423
10.4212
10.2171
10.0256
9.83998
9.65941
9.47839
9.29892
9.11505
8.93166
8.74127
8.55292
8.35771
13.3895
12.687
12.2101
11.8338
11.4883
11.1735
10.8954
10.6507
10.432
10.2308
10.042
9.85938
9.68136
9.50273
9.32458
9.1412
8.95616
8.76266
8.56823
8.36451
13.3879
12.6881
12.2109
11.8356
11.4914
11.1786
10.9025
10.6605
10.4444
10.2466
10.0612
9.88237
9.70789
9.53284
9.35742
9.17568
8.99012
8.79295
8.59096
8.37699
13.3867
12.6907
12.2123
11.8382
11.4949
11.1847
10.9104
10.6717
10.458
10.2647
10.0826
9.90927
9.73892
9.56986
9.39829
9.22117
9.03599
8.83778
8.62484
8.38861
13.3845
12.6946
12.2133
11.8414
11.4985
11.1912
10.9181
10.6836
10.472
10.2842
10.1056
9.93938
9.77405
9.61376
9.44805
9.2792
9.09618
8.90013
8.68057
8.44867
13.385
12.6972
12.2139
11.8443
11.5023
11.1978
10.9261
10.6955
10.4865
10.3046
10.13
9.97233
9.81313
9.66507
9.50794
9.35456
9.17757
8.98907
8.73537
8.45566
13.3817
12.7008
12.2121
11.8481
11.504
11.2045
10.9302
10.7076
10.4961
10.3254
10.1482
10.0068
9.84623
9.72154
9.56571
9.44538
9.2749
9.14311
8.90788
8.74023
13.3898
12.6911
12.2126
11.8472
11.5084
11.206
10.9378
10.7124
10.5101
10.3376
10.1737
10.0323
9.89134
9.77218
9.6451
9.53539
9.39094
9.2237
8.91717
8.6594
13.3944
12.6842
12.2095
11.8511
11.5101
11.2104
10.9392
10.7213
10.5149
10.3544
10.1834
10.0644
9.91206
9.83719
9.69415
9.68669
9.53721
9.67994
9.40448
9.83639
13.4078
12.6596
12.2154
11.8435
11.5191
11.1998
10.9515
10.7104
10.5347
10.3434
10.215
10.0543
9.96501
9.83107
9.78735
9.68722
9.65144
9.51116
8.92577
7.32003
13.5327
12.8688
12.3392
11.9259
11.5554
11.2175
10.9158
10.6489
10.4095
10.1895
9.98253
9.78462
9.59311
9.40647
9.2238
9.04445
8.86821
8.69453
8.52366
8.35486
13.3486
12.8025
12.3144
11.9086
11.5439
11.2102
10.91
10.6434
10.4042
10.1848
9.97878
9.78192
9.59124
9.40551
9.22314
9.04454
8.86797
8.6946
8.52176
8.35816
13.3054
12.7818
12.3042
11.9016
11.5388
11.2068
10.908
10.6424
10.404
10.1853
9.97982
9.7836
9.59339
9.40807
9.22582
9.0473
8.87041
8.69663
8.52301
8.35986
13.2527
12.7432
12.2779
11.8833
11.5255
11.197
10.9011
10.6377
10.401
10.1836
9.97931
9.78403
9.59456
9.40977
9.22775
9.04924
8.87203
8.69773
8.5232
8.35901
13.2228
12.7206
12.2623
11.8725
11.5179
11.1919
10.8981
10.6365
10.4014
10.1854
9.98209
9.78763
9.59875
9.41427
9.23226
9.05345
8.87561
8.70038
8.52461
8.35896
13.2003
12.7012
12.2467
11.8606
11.509
11.1855
10.894
10.6344
10.4011
10.1865
9.98453
9.79103
9.60286
9.41874
9.23681
9.05764
8.8791
8.70276
8.52546
8.35788
13.184
12.6866
12.235
11.8517
11.5027
11.1815
10.8921
10.6345
10.4031
10.1901
9.98954
9.79705
9.6097
9.42588
9.24397
9.06423
8.88477
8.70691
8.52761
8.35751
13.1722
12.6759
12.2262
11.845
11.4982
11.1789
10.8916
10.6358
10.4064
10.1949
9.99598
9.80443
9.61823
9.43446
9.25297
9.07195
8.89238
8.71217
8.53278
8.34863
13.1639
12.6684
12.2202
11.8405
11.4955
11.178
10.8928
10.6389
10.4116
10.2017
10.0047
9.81436
9.62961
9.44604
9.26498
9.08269
8.9022
8.71895
8.53661
8.34857
13.1582
12.6636
12.2164
11.838
11.4947
11.1789
10.8957
10.6437
10.4186
10.2107
10.0158
9.82712
9.64385
9.4611
9.28026
9.09715
8.91499
8.72942
8.54445
8.35175
13.1543
12.6611
12.2145
11.8373
11.4953
11.1815
10.9001
10.6504
10.4275
10.2221
10.0295
9.84302
9.66174
9.48028
9.30028
9.1163
8.93241
8.74306
8.55627
8.35923
13.1519
12.6605
12.2142
11.8381
11.4973
11.1854
10.906
10.6588
10.4382
10.2357
10.0459
9.86243
9.68367
9.50463
9.32591
9.14239
8.95689
8.76459
8.57245
8.36651
13.1502
12.6615
12.215
11.8398
11.5003
11.1905
10.9131
10.6686
10.4507
10.2516
10.065
9.88544
9.71019
9.53476
9.35872
9.17693
8.99084
8.79482
8.59442
8.37794
13.1488
12.6643
12.2164
11.8424
11.5038
11.1966
10.9209
10.6799
10.4642
10.2698
10.0864
9.91243
9.74115
9.57191
9.39945
9.22256
9.03653
8.84021
8.62995
8.39186
13.1465
12.6685
12.2172
11.8455
11.5073
11.2033
10.9285
10.6918
10.4781
10.2895
10.1093
9.94271
9.77613
9.61607
9.44903
9.28088
9.09594
8.90114
8.68293
8.44871
13.147
12.6712
12.2177
11.8483
11.5111
11.2099
10.9364
10.7039
10.4927
10.31
10.1337
9.97585
9.81516
9.66782
9.50871
9.35765
9.17692
8.99388
8.73459
8.45732
13.1437
12.6752
12.2155
11.8522
11.5128
11.2169
10.9401
10.7161
10.5019
10.3311
10.1514
10.0107
9.84749
9.72493
9.56502
9.44958
9.27128
9.14534
8.90069
8.73384
13.1524
12.6647
12.2162
11.851
11.5173
11.2178
10.9481
10.7204
10.5161
10.3424
10.1771
10.0352
9.89323
9.77451
9.64615
9.53929
9.38985
9.24041
8.89602
8.58786
13.158
12.6567
12.213
11.8547
11.5197
11.2219
10.9497
10.7286
10.5216
10.3585
10.1875
10.0654
9.91451
9.83575
9.69373
9.68328
9.52965
9.68354
9.37123
9.74134
13.1726
12.6301
12.2164
11.8484
11.5296
11.2106
10.9614
10.7176
10.5409
10.3476
10.218
10.0569
9.96581
9.83373
9.78702
9.69041
9.64489
9.45658
8.80529
6.77849
13.4355
12.865
12.3516
11.9345
11.5687
11.2331
10.9285
10.657
10.4144
10.1927
9.98465
9.78596
9.59395
9.40704
9.22421
9.04475
8.86841
8.69498
8.52514
8.35316
13.2536
12.8017
12.3296
11.9204
11.5586
11.2273
10.9252
10.6542
10.4113
10.1897
9.98245
9.78444
9.59312
9.40648
9.2243
9.04464
8.86977
8.69577
8.52725
8.33664
13.2105
12.7811
12.32
11.9142
11.5536
11.224
10.9235
10.6535
10.4112
10.1902
9.98356
9.78623
9.59541
9.40911
9.22711
9.04744
8.87263
8.6981
8.52903
8.3346
13.1576
12.7422
12.2938
11.896
11.5404
11.2142
10.9165
10.6488
10.4083
10.1886
9.98311
9.78671
9.59665
9.41083
9.22909
9.04938
8.87429
8.69915
8.52931
8.33342
13.1276
12.7194
12.2782
11.8854
11.5329
11.2091
10.9136
10.6477
10.4088
10.1904
9.98588
9.79029
9.60082
9.41532
9.2336
9.05359
8.87788
8.70179
8.53073
8.33354
13.105
12.6999
12.2625
11.8733
11.524
11.2027
10.9094
10.6456
10.4085
10.1916
9.98831
9.79369
9.60491
9.41981
9.23812
9.05779
8.88129
8.70415
8.53166
8.33304
13.0886
12.6852
12.2507
11.8644
11.5177
11.1987
10.9076
10.6457
10.4104
10.1951
9.9933
9.79971
9.61174
9.42698
9.24528
9.06438
8.88687
8.70839
8.53426
8.33317
13.0768
12.6745
12.2419
11.8577
11.5131
11.1962
10.907
10.647
10.4137
10.2
9.99965
9.80722
9.62007
9.43578
9.25379
9.07238
8.89268
8.71372
8.54084
8.34058
13.0684
12.6669
12.2358
11.8531
11.5105
11.1953
10.9082
10.6501
10.4188
10.2068
10.0083
9.81721
9.63133
9.44748
9.26564
9.08316
8.90199
8.72054
8.5468
8.34491
13.0627
12.662
12.2319
11.8506
11.5095
11.1962
10.911
10.6549
10.4258
10.2159
10.0194
9.82998
9.64552
9.46253
9.28081
9.0975
8.91447
8.73065
8.55544
8.35161
13.0588
12.6595
12.23
11.8499
11.5102
11.1987
10.9155
10.6617
10.4346
10.2272
10.033
9.84595
9.66325
9.4819
9.30045
9.11711
8.93027
8.74085
8.54852
8.38333
13.0564
12.659
12.2296
11.8506
11.5121
11.2027
10.9214
10.67
10.4454
10.2409
10.0494
9.86534
9.68518
9.50621
9.32608
9.14304
8.95456
8.76186
8.56532
8.3932
13.0547
12.6602
12.2302
11.8523
11.515
11.2078
10.9284
10.6798
10.4578
10.2568
10.0685
9.88834
9.71166
9.53632
9.35889
9.17764
8.9887
8.79219
8.58643
8.40174
13.0534
12.6632
12.2313
11.8547
11.5184
11.214
10.9362
10.691
10.4713
10.275
10.0899
9.91532
9.74259
9.57344
9.39962
9.22314
9.03456
8.83752
8.62263
8.41525
13.0511
12.6678
12.2317
11.8577
11.5218
11.2212
10.9435
10.7031
10.4849
10.295
10.1125
9.94585
9.77723
9.61793
9.44888
9.28179
9.09316
8.89679
8.67256
8.46758
13.0517
12.6708
12.2318
11.8603
11.5257
11.2281
10.9513
10.7153
10.4995
10.3158
10.1369
9.97926
9.81595
9.67013
9.50796
9.35971
9.17422
8.99426
8.73242
8.4619
13.0485
12.6749
12.229
11.8639
11.5275
11.2357
10.9544
10.7277
10.5082
10.3373
10.1539
10.0145
9.84716
9.72809
9.5623
9.45325
9.2643
9.144
8.88836
8.72502
13.0569
12.6634
12.2308
11.8625
11.532
11.2355
10.9631
10.7313
10.5231
10.348
10.1807
10.0388
9.89511
9.77831
9.6478
9.54575
9.38968
9.2531
8.87653
8.52971
13.0631
12.6538
12.2289
11.8656
11.5352
11.2388
10.9651
10.7385
10.5287
10.363
10.1907
10.0671
9.91428
9.83594
9.68917
9.68217
9.51732
9.6807
9.34948
9.81286
13.0791
12.6267
12.2302
11.8611
11.5464
11.2274
10.9758
10.7272
10.5477
10.3514
10.2205
10.0566
9.96606
9.83062
9.78874
9.68012
9.66702
9.41702
8.9976
6.69745
13.3602
12.8534
12.3554
11.9384
11.5762
11.2432
10.9376
10.6634
10.4185
10.1957
9.98696
9.78778
9.59519
9.40807
9.22481
9.0455
8.86828
8.69482
8.52206
8.36388
13.1793
12.7903
12.3352
11.9269
11.5668
11.2381
10.9357
10.6622
10.417
10.1941
9.98597
9.78726
9.59535
9.40818
9.22572
9.04559
8.87073
8.6975
8.53626
8.33558
13.1363
12.7697
12.326
11.9211
11.5619
11.2348
10.9341
10.6617
10.417
10.1946
9.98712
9.78911
9.59772
9.41085
9.22862
9.04845
8.87391
8.70051
8.53942
8.33158
13.0833
12.7305
12.2998
11.9032
11.5487
11.225
10.9272
10.6572
10.4142
10.1931
9.98677
9.78966
9.59903
9.41261
9.23065
9.05038
8.87561
8.70148
8.53952
8.33041
13.0532
12.7077
12.2843
11.8926
11.5414
11.22
10.9243
10.6561
10.4147
10.1949
9.98953
9.79323
9.60318
9.41711
9.23516
9.0546
8.87919
8.70412
8.54097
8.33084
13.0305
12.6881
12.2686
11.8805
11.5324
11.2136
10.9201
10.654
10.4144
10.1961
9.99197
9.79666
9.60727
9.42161
9.23965
9.05879
8.88256
8.70633
8.54138
8.32993
13.0141
12.6734
12.2567
11.8716
11.5261
11.2096
10.9183
10.6541
10.4164
10.1997
9.99694
9.80268
9.6141
9.42882
9.24685
9.06543
8.88805
8.71027
8.544
8.33136
13.0023
12.6626
12.2479
11.8649
11.5215
11.2071
10.9178
10.6555
10.4195
10.2046
10.0031
9.81043
9.6221
9.43817
9.25467
9.07467
8.89105
8.71166
8.52392
8.38788
12.9939
12.655
12.2417
11.8603
11.5188
11.2063
10.9189
10.6586
10.4245
10.2115
10.0117
9.82051
9.63324
9.4499
9.26636
9.08519
8.90005
8.71631
8.52571
8.38764
12.9881
12.6502
12.2378
11.8578
11.5179
11.2072
10.9217
10.6635
10.4315
10.2206
10.0227
9.83328
9.64743
9.46489
9.28144
9.09928
8.91253
8.72642
8.53484
8.39272
12.9843
12.6476
12.2358
11.857
11.5184
11.2097
10.9261
10.6702
10.4404
10.232
10.0363
9.84924
9.66516
9.48417
9.30112
9.11828
8.92876
8.73939
8.54717
8.40669
12.9819
12.647
12.2353
11.8577
11.5204
11.2136
10.932
10.6785
10.4511
10.2456
10.0527
9.86863
9.68709
9.50845
9.32672
9.14413
8.95293
8.76049
8.56473
8.41694
12.9802
12.6482
12.2359
11.8593
11.5232
11.2188
10.939
10.6883
10.4634
10.2616
10.0718
9.89163
9.71354
9.53856
9.35955
9.17882
8.98721
8.79081
8.5855
8.42402
12.9789
12.6512
12.2368
11.8617
11.5267
11.2252
10.9468
10.6994
10.477
10.2798
10.0932
9.91859
9.74442
9.5757
9.4002
9.22437
9.03281
8.83795
8.62589
8.44305
12.9768
12.656
12.2369
11.8644
11.53
11.2327
10.9539
10.7116
10.4904
10.3
10.1156
9.94938
9.77872
9.62046
9.44931
9.28309
9.09129
8.89366
8.66982
8.48626
12.9776
12.6589
12.237
11.8668
11.5342
11.2399
10.9616
10.7238
10.5049
10.3212
10.1398
9.98309
9.81704
9.67318
9.50787
9.362
9.1729
8.99234
8.73069
8.47421
12.9747
12.6628
12.2341
11.87
11.536
11.2478
10.9645
10.7362
10.5132
10.343
10.1562
10.0189
9.84706
9.73236
9.55995
9.45769
9.25946
9.14209
8.88153
8.71929
12.983
12.651
12.2365
11.8686
11.5405
11.2469
10.9738
10.7396
10.529
10.3534
10.1844
10.0433
9.89761
9.78361
9.64992
9.55293
9.38998
9.26242
8.86931
8.4857
12.9903
12.6393
12.2364
11.8708
11.5447
11.2488
10.9766
10.7454
10.5354
10.3667
10.1947
10.0693
9.91542
9.83759
9.68634
9.68322
9.50512
9.68019
9.34282
9.84743
13.0053
12.614
12.2357
11.8666
11.5559
11.238
10.986
10.734
10.5538
10.3543
10.2245
10.056
9.97049
9.82591
9.79875
9.66822
9.70744
9.39881
9.14512
6.68395
13.3237
12.8478
12.3584
11.9413
11.5802
11.2487
10.9429
10.6672
10.4209
10.1974
9.98832
9.78884
9.59593
9.40864
9.22524
9.04588
8.86832
8.69408
8.52025
8.36553
13.1432
12.785
12.3392
11.9311
11.5712
11.2438
10.9416
10.667
10.4203
10.1968
9.98786
9.78921
9.59639
9.40978
9.22588
9.04737
8.8677
8.69348
8.51176
8.3877
13.1003
12.7643
12.3304
11.9256
11.5664
11.2406
10.9401
10.6667
10.4204
10.1973
9.989
9.79114
9.59875
9.4126
9.22864
9.05031
8.86992
8.69569
8.51322
8.39494
13.0472
12.7251
12.3042
11.9077
11.5532
11.2308
10.9332
10.6622
10.4176
10.1959
9.98868
9.79174
9.60009
9.41439
9.23068
9.05223
8.87153
8.6965
8.51317
8.39378
13.0171
12.7023
12.2886
11.8972
11.5459
11.2258
10.9304
10.6612
10.4182
10.1977
9.99144
9.79531
9.60423
9.41888
9.23517
9.05646
8.87511
8.69916
8.51447
8.3935
12.9944
12.6826
12.2729
11.8851
11.5369
11.2194
10.9262
10.659
10.4178
10.1989
9.99389
9.79873
9.60834
9.42337
9.23969
9.06061
8.87856
8.70156
8.51573
8.39257
12.9779
12.6678
12.261
11.8761
11.5306
11.2154
10.9243
10.6592
10.4198
10.2025
9.99886
9.80475
9.61517
9.43058
9.24693
9.0673
8.88419
8.70549
8.51774
8.39305
12.9661
12.657
12.2522
11.8694
11.5261
11.2129
10.9238
10.6605
10.423
10.2073
10.0052
9.81221
9.62343
9.43934
9.25556
9.07558
8.89143
8.71116
8.51978
8.39013
12.9577
12.6495
12.2459
11.8649
11.5233
11.2121
10.9249
10.6636
10.428
10.2143
10.0136
9.82246
9.63437
9.45136
9.26682
9.08625
8.89862
8.71773
8.53138
8.40845
12.9519
12.6447
12.242
11.8623
11.5223
11.213
10.9277
10.6685
10.4349
10.2234
10.0246
9.83526
9.64852
9.46636
9.28176
9.10016
8.91081
8.72835
8.54164
8.4147
12.9481
12.6421
12.24
11.8616
11.5229
11.2156
10.9321
10.6752
10.4438
10.2348
10.0382
9.85118
9.66628
9.48548
9.30155
9.11886
8.92798
8.73873
8.54869
8.41647
12.9457
12.6415
12.2395
11.8622
11.5249
11.2195
10.938
10.6836
10.4545
10.2484
10.0546
9.87054
9.68822
9.50973
9.32716
9.14466
8.95218
8.75975
8.5652
8.42628
12.944
12.6427
12.24
11.8639
11.5277
11.2247
10.945
10.6934
10.4668
10.2644
10.0737
9.89356
9.71465
9.53986
9.36001
9.17948
8.9867
8.78972
8.5845
8.43307
12.9428
12.6456
12.2409
11.8663
11.5312
11.2311
10.9528
10.7044
10.4804
10.2825
10.0952
9.9204
9.74567
9.57672
9.40093
9.22464
9.03361
8.83468
8.6186
8.43886
12.9406
12.6505
12.2408
11.8689
11.5345
11.2388
10.9598
10.7167
10.4936
10.303
10.1173
9.95146
9.77958
9.62191
9.44962
9.28382
9.09046
8.89177
8.66824
8.49394
12.9415
12.6534
12.2408
11.8712
11.5388
11.2461
10.9673
10.7289
10.5081
10.3243
10.1415
9.98529
9.81772
9.67489
9.50799
9.36316
9.17236
8.99026
8.73152
8.48062
12.9387
12.6573
12.2379
11.8741
11.5407
11.2542
10.9702
10.7412
10.5163
10.3462
10.1575
10.0214
9.84705
9.73477
9.55863
9.46018
9.25694
9.14048
8.87894
8.71663
12.947
12.6453
12.2407
11.8729
11.5451
11.253
10.9799
10.7446
10.5326
10.3566
10.1867
10.046
9.89919
9.78651
9.65135
9.55651
9.39065
9.26702
8.86649
8.46335
12.9551
12.6325
12.2416
11.8746
11.5499
11.2544
10.9835
10.7498
10.5396
10.3691
10.1975
10.0709
9.91648
9.83875
9.68529
9.68413
9.49802
9.68195
9.33974
9.8731
12.9697
12.6083
12.2399
11.8703
11.5612
11.2441
10.9922
10.7382
10.5581
10.3562
10.2281
10.0557
9.97516
9.82241
9.80724
9.65953
9.73638
9.39142
9.23154
6.69773
13.3237
12.8478
12.3584
11.9413
11.5802
11.2487
10.9429
10.6672
10.4209
10.1974
9.98836
9.7888
9.59601
9.40851
9.22546
9.04565
8.86968
8.69606
8.52857
8.34848
13.1432
12.785
12.3392
11.9311
11.5712
11.2438
10.9416
10.667
10.4203
10.1968
9.98787
9.7892
9.59641
9.40977
9.22593
9.0474
8.8679
8.69361
8.51161
8.38679
13.1003
12.7643
12.3304
11.9256
11.5664
11.2405
10.9401
10.6667
10.4204
10.1973
9.98901
9.79113
9.59877
9.41259
9.22868
9.05034
8.87005
8.69589
8.51351
8.39459
13.0472
12.7251
12.3042
11.9077
11.5532
11.2308
10.9332
10.6622
10.4176
10.1959
9.98869
9.79174
9.6001
9.4144
9.23069
9.05225
8.87155
8.69652
8.51309
8.39354
13.0171
12.7022
12.2886
11.8972
11.5459
11.2258
10.9304
10.6612
10.4182
10.1977
9.99145
9.79531
9.60424
9.41889
9.23518
9.05647
8.87514
8.69923
8.51454
8.39335
12.9944
12.6826
12.2729
11.8851
11.5369
11.2194
10.9262
10.659
10.4178
10.1989
9.9939
9.79872
9.60837
9.42336
9.23972
9.06059
8.87858
8.70179
8.51606
8.39246
12.9779
12.6678
12.261
11.8761
11.5306
11.2154
10.9243
10.6592
10.4198
10.2024
9.99889
9.80472
9.61522
9.43055
9.24706
9.06734
8.88454
8.70547
8.51719
8.39105
12.9661
12.657
12.2522
11.8694
11.5261
11.2129
10.9239
10.6604
10.4231
10.2071
10.0054
9.81188
9.62388
9.43858
9.25656
9.07451
8.89673
8.71842
8.55043
8.32602
12.9577
12.6495
12.2459
11.8649
11.5233
11.2121
10.9249
10.6636
10.428
10.2143
10.0137
9.82235
9.63456
9.45111
9.26727
9.08602
8.90023
8.71521
8.52162
8.391
12.9518
12.6447
12.242
11.8623
11.5223
11.2131
10.9277
10.6686
10.4349
10.2234
10.0247
9.83517
9.6487
9.46608
9.28223
9.09972
8.91205
8.72442
8.5327
8.398
12.9481
12.6421
12.24
11.8616
11.5229
11.2156
10.9321
10.6752
10.4438
10.2348
10.0382
9.85117
9.66629
9.48547
9.30157
9.11886
8.928
8.73844
8.54752
8.4161
12.9456
12.6415
12.2395
11.8622
11.5249
11.2195
10.938
10.6836
10.4545
10.2484
10.0546
9.87052
9.68824
9.5097
9.32721
9.14461
8.95219
8.75991
8.56607
8.42721
12.944
12.6427
12.24
11.8639
11.5277
11.2247
10.945
10.6934
10.4668
10.2643
10.0737
9.89355
9.71467
9.53985
9.36008
9.17956
8.98711
8.79011
8.58389
8.42948
12.9428
12.6456
12.2409
11.8662
11.5312
11.2311
10.9528
10.7044
10.4805
10.2824
10.0953
9.92022
9.74599
9.57629
9.4015
9.22365
9.03768
8.84437
8.65201
8.38646
12.9406
12.6505
12.2408
11.8689
11.5345
11.2388
10.9598
10.7167
10.4936
10.303
10.1173
9.95147
9.77955
9.62192
9.44962
9.28393
9.09067
8.89256
8.66829
8.49245
12.9415
12.6534
12.2408
11.8712
11.5388
11.2461
10.9673
10.7289
10.5081
10.3243
10.1415
9.98529
9.81772
9.67491
9.50799
9.36319
9.1723
8.99044
8.73186
8.48111
12.9387
12.6573
12.2379
11.8741
11.5407
11.2542
10.9702
10.7412
10.5163
10.3462
10.1575
10.0214
9.84705
9.73477
9.55863
9.46019
9.25695
9.14049
8.87896
8.71658
12.947
12.6453
12.2407
11.8729
11.5451
11.253
10.9799
10.7446
10.5326
10.3566
10.1867
10.046
9.89919
9.78651
9.65134
9.55651
9.39064
9.26703
8.86648
8.46335
12.9551
12.6325
12.2416
11.8746
11.5499
11.2544
10.9835
10.7498
10.5396
10.3691
10.1975
10.0709
9.91648
9.83875
9.68529
9.68413
9.49802
9.68195
9.33973
9.87309
12.9697
12.6083
12.2399
11.8703
11.5612
11.2441
10.9922
10.7382
10.5581
10.3562
10.2281
10.0557
9.97516
9.82241
9.80724
9.65953
9.73638
9.39142
9.23153
6.69775
13.3602
12.8534
12.3554
11.9384
11.5762
11.2432
10.9376
10.6634
10.4185
10.1957
9.98698
9.78776
9.59526
9.40797
9.22505
9.04539
8.8696
8.69602
8.52648
8.34781
13.1793
12.7903
12.3352
11.9269
11.5668
11.2381
10.9357
10.6622
10.417
10.1941
9.98598
9.78727
9.59537
9.4082
9.22582
9.04572
8.87103
8.69755
8.53572
8.33434
13.1363
12.7696
12.3261
11.9211
11.5619
11.2347
10.9342
10.6617
10.417
10.1946
9.98716
9.78909
9.59776
9.41087
9.22869
9.04863
8.87413
8.70118
8.53978
8.33172
13.0833
12.7305
12.2999
11.9032
11.5487
11.225
10.9272
10.6572
10.4142
10.1931
9.98678
9.78966
9.59904
9.41264
9.2307
9.05045
8.87566
8.70148
8.53936
8.32995
13.0532
12.7077
12.2843
11.8926
11.5414
11.22
10.9243
10.6561
10.4147
10.1949
9.98954
9.79324
9.60319
9.41713
9.23518
9.05466
8.87923
8.70422
8.54088
8.33063
13.0305
12.6881
12.2686
11.8805
11.5324
11.2136
10.9201
10.654
10.4144
10.1961
9.99198
9.79665
9.60731
9.4216
9.23971
9.05881
8.88266
8.70659
8.54183
8.32929
13.0141
12.6734
12.2567
11.8716
11.5261
11.2096
10.9183
10.6541
10.4164
10.1996
9.99696
9.80266
9.61414
9.42881
9.24697
9.06554
8.8884
8.71033
8.54328
8.33039
13.0022
12.6626
12.2479
11.8648
11.5216
11.2071
10.9178
10.6554
10.4196
10.2044
10.0034
9.81005
9.62262
9.43733
9.25597
9.07374
8.89745
8.71681
8.54103
8.31541
12.9939
12.6551
12.2417
11.8603
11.5188
11.2063
10.9189
10.6585
10.4246
10.2114
10.0119
9.82023
9.63359
9.44929
9.26729
9.08432
8.90431
8.72214
8.55207
8.33608
12.988
12.6503
12.2377
11.8578
11.5178
11.2072
10.9217
10.6635
10.4315
10.2206
10.0228
9.83314
9.64765
9.46447
9.28204
9.09836
8.91533
8.73273
8.56371
8.3487
12.9843
12.6477
12.2357
11.857
11.5184
11.2097
10.9261
10.6702
10.4403
10.232
10.0363
9.84924
9.66516
9.48415
9.3011
9.11824
8.92872
8.73963
8.54756
8.40638
12.9818
12.6471
12.2353
11.8577
11.5204
11.2137
10.932
10.6785
10.4511
10.2456
10.0527
9.8686
9.68711
9.50842
9.32676
9.14406
8.95295
8.76063
8.56527
8.41719
12.9802
12.6482
12.2359
11.8593
11.5232
11.2188
10.939
10.6883
10.4634
10.2616
10.0718
9.89163
9.71354
9.53858
9.35962
9.17899
8.98756
8.7907
8.58409
8.42391
12.979
12.6512
12.2368
11.8617
11.5267
11.2252
10.9468
10.6994
10.477
10.2797
10.0933
9.91848
9.74455
9.57541
9.40054
9.22423
9.03473
8.83661
8.61978
8.43099
12.9768
12.656
12.2369
11.8644
11.53
11.2327
10.9539
10.7116
10.4904
10.3
10.1156
9.94938
9.7787
9.62046
9.44936
9.28326
9.09156
8.8939
8.66871
8.4862
12.9776
12.6589
12.237
11.8668
11.5342
11.2398
10.9616
10.7238
10.5049
10.3212
10.1398
9.98307
9.81706
9.67316
9.50792
9.362
9.17295
8.9924
8.73076
8.47391
12.9747
12.6628
12.2341
11.87
11.536
11.2478
10.9645
10.7362
10.5132
10.343
10.1562
10.0189
9.84707
9.73237
9.55995
9.45771
9.25947
9.14212
8.88148
8.71921
12.983
12.651
12.2365
11.8686
11.5405
11.2469
10.9738
10.7396
10.529
10.3534
10.1844
10.0433
9.89761
9.78362
9.64993
9.55293
9.38998
9.26241
8.8693
8.48565
12.9903
12.6393
12.2364
11.8708
11.5447
11.2488
10.9766
10.7454
10.5354
10.3667
10.1947
10.0693
9.91542
9.83759
9.68634
9.68322
9.50512
9.68018
9.34279
9.84739
13.0053
12.614
12.2357
11.8666
11.5559
11.238
10.986
10.734
10.5538
10.3543
10.2245
10.056
9.97049
9.82591
9.79875
9.66822
9.70743
9.3988
9.14509
6.68399
13.4355
12.865
12.3516
11.9345
11.5687
11.2331
10.9285
10.657
10.4144
10.1927
9.98462
9.78601
9.59393
9.40713
9.22423
9.04503
8.8685
8.69465
8.52181
8.35745
13.2536
12.8017
12.3296
11.9204
11.5586
11.2273
10.9252
10.6542
10.4113
10.1897
9.98244
9.78446
9.59314
9.40654
9.22438
9.0448
8.86991
8.69566
8.52671
8.33643
13.2106
12.781
12.3201
11.9141
11.5537
11.2239
10.9235
10.6534
10.4113
10.1902
9.98363
9.78618
9.59549
9.4091
9.22726
9.04766
8.87323
8.69902
8.52918
8.33256
13.1576
12.7421
12.2938
11.896
11.5404
11.2142
10.9165
10.6488
10.4083
10.1886
9.98312
9.78672
9.59667
9.41087
9.22916
9.04947
8.87437
8.69907
8.52882
8.33281
13.1276
12.7194
12.2782
11.8854
11.5329
11.2091
10.9136
10.6477
10.4088
10.1904
9.98588
9.79031
9.60083
9.41536
9.23364
9.05368
8.87796
8.70193
8.5307
8.33331
13.105
12.6999
12.2625
11.8734
11.524
11.2027
10.9094
10.6456
10.4085
10.1916
9.98831
9.79372
9.60492
9.41985
9.23814
9.05786
8.88135
8.70427
8.53164
8.33263
13.0886
12.6852
12.2507
11.8644
11.5177
11.1987
10.9076
10.6457
10.4104
10.1951
9.9933
9.79972
9.61177
9.42701
9.2454
9.0645
8.88709
8.70824
8.53365
8.33228
13.0768
12.6744
12.2419
11.8577
11.5131
11.1962
10.907
10.647
10.4137
10.2
9.99965
9.8072
9.62012
9.43576
9.25414
9.07289
8.89441
8.71503
8.53941
8.33529
13.0684
12.6669
12.2357
11.8532
11.5104
11.1954
10.9082
10.6501
10.4187
10.2068
10.0083
9.8172
9.63135
9.4474
9.26592
9.0833
8.90334
8.71984
8.54102
8.33494
13.0625
12.6623
12.2318
11.8507
11.5094
11.1963
10.9109
10.6551
10.4256
10.216
10.0192
9.83014
9.64534
9.46273
9.28061
9.09793
8.91357
8.72596
8.53432
8.37092
13.0589
12.6596
12.2299
11.8499
11.5101
11.1987
10.9155
10.6617
10.4346
10.2272
10.033
9.84595
9.66324
9.48188
9.30043
9.11699
8.9301
8.74029
8.54868
8.38531
13.0564
12.659
12.2296
11.8506
11.5121
11.2027
10.9213
10.67
10.4453
10.2409
10.0494
9.86533
9.68518
9.5062
9.32609
9.14301
8.95463
8.76194
8.56527
8.39221
13.0547
12.6602
12.2302
11.8523
11.515
11.2078
10.9284
10.6798
10.4577
10.2568
10.0685
9.88834
9.71166
9.53635
9.35895
9.17776
8.98884
8.79223
8.58645
8.40121
13.0534
12.6631
12.2313
11.8547
11.5184
11.214
10.9362
10.691
10.4713
10.275
10.0899
9.91533
9.74255
9.57352
9.39958
9.22348
9.03445
8.83903
8.62501
8.41867
13.0511
12.6678
12.2317
11.8577
11.5218
11.2212
10.9435
10.7031
10.4849
10.295
10.1125
9.94585
9.77723
9.61795
9.44895
9.28192
9.09332
8.89689
8.67282
8.46705
13.0517
12.6708
12.2318
11.8603
11.5257
11.2281
10.9513
10.7153
10.4995
10.3158
10.1369
9.97927
9.81594
9.67016
9.50796
9.35977
9.17421
8.99436
8.73244
8.462
13.0485
12.6749
12.229
11.8639
11.5275
11.2357
10.9544
10.7277
10.5082
10.3373
10.1539
10.0145
9.84717
9.7281
9.56232
9.45327
9.26432
9.14401
8.88834
8.72494
13.0569
12.6634
12.2308
11.8625
11.532
11.2355
10.9631
10.7313
10.5231
10.348
10.1807
10.0388
9.89511
9.77831
9.6478
9.54576
9.38968
9.25309
8.87649
8.52963
13.0631
12.6538
12.2289
11.8656
11.5352
11.2388
10.9651
10.7385
10.5287
10.363
10.1907
10.0671
9.91428
9.83594
9.68917
9.68217
9.51732
9.68068
9.34942
9.81276
13.0791
12.6267
12.2302
11.8611
11.5464
11.2274
10.9758
10.7272
10.5477
10.3514
10.2205
10.0566
9.96606
9.83062
9.78874
9.68012
9.66701
9.41699
8.99754
6.69743
13.5327
12.8687
12.3392
11.9259
11.5554
11.2175
10.9157
10.649
10.4095
10.1895
9.9825
9.78469
9.59308
9.4066
9.22377
9.04467
8.86807
8.69479
8.52365
8.35598
13.3486
12.8025
12.3144
11.9086
11.5439
11.2102
10.91
10.6434
10.4042
10.1849
9.97877
9.78195
9.59125
9.40558
9.22321
9.04468
8.86804
8.69453
8.52126
8.35708
13.3054
12.7817
12.3042
11.9016
11.5388
11.2067
10.9081
10.6423
10.404
10.1852
9.97991
9.78354
9.59351
9.40803
9.22604
9.04744
8.87126
8.6983
8.52654
8.35357
13.2527
12.7431
12.278
11.8833
11.5255
11.197
10.9011
10.6377
10.401
10.1836
9.97932
9.78405
9.59459
9.40982
9.22783
9.04934
8.8721
8.69762
8.52259
8.35784
13.2228
12.7206
12.2623
11.8725
11.5179
11.1919
10.8981
10.6365
10.4014
10.1854
9.98209
9.78765
9.59876
9.41432
9.23231
9.05355
8.87569
8.70055
8.5247
8.35904
13.2003
12.7012
12.2467
11.8606
11.509
11.1855
10.8939
10.6345
10.4011
10.1866
9.98451
9.79107
9.60285
9.4188
9.23683
9.05774
8.87913
8.70278
8.52536
8.35751
13.184
12.6866
12.235
11.8517
11.5027
11.1815
10.8921
10.6346
10.4031
10.1901
9.98952
9.79709
9.6097
9.42595
9.24401
9.06434
8.88479
8.70683
8.52734
8.35746
13.1722
12.6759
12.2262
11.845
11.4981
11.179
10.8916
10.6359
10.4063
10.195
9.99584
9.80462
9.61803
9.43478
9.25276
9.07258
8.89194
8.71242
8.52997
8.35453
13.1639
12.6685
12.2201
11.8405
11.4955
11.1781
10.8927
10.639
10.4115
10.2018
10.0046
9.81457
9.62935
9.44638
9.26463
9.08326
8.90122
8.71903
8.53526
8.35916
13.1579
12.6638
12.2162
11.8381
11.4945
11.1791
10.8955
10.6439
10.4184
10.211
10.0156
9.8274
9.64355
9.46145
9.27982
9.0974
8.91352
8.72892
8.54377
8.36329
13.1543
12.6611
12.2145
11.8373
11.4953
11.1815
10.9001
10.6504
10.4275
10.2221
10.0294
9.84304
9.66169
9.48029
9.30018
9.11619
8.93214
8.74299
8.55702
8.36031
13.1518
12.6605
12.2142
11.8381
11.4973
11.1854
10.906
10.6588
10.4382
10.2357
10.0459
9.86243
9.68366
9.50463
9.32591
9.14237
8.9569
8.76447
8.57232
8.36619
13.1502
12.6615
12.215
11.8398
11.5003
11.1905
10.9131
10.6686
10.4507
10.2516
10.065
9.88544
9.7102
9.53478
9.35878
9.177
8.99094
8.79478
8.59408
8.37767
13.1489
12.6643
12.2164
11.8424
11.5038
11.1966
10.9209
10.6798
10.4642
10.2697
10.0864
9.91243
9.74117
9.57192
9.39954
9.22267
9.03687
8.84033
8.6294
8.38922
13.1465
12.6685
12.2172
11.8455
11.5072
11.2033
10.9285
10.6918
10.4781
10.2895
10.1093
9.94271
9.77615
9.61609
9.44908
9.28098
9.09603
8.90122
8.68275
8.44845
13.147
12.6712
12.2177
11.8483
11.5111
11.2099
10.9364
10.7039
10.4927
10.31
10.1337
9.97586
9.81516
9.66785
9.50872
9.35771
9.17696
8.99394
8.7346
8.45717
13.1437
12.6752
12.2155
11.8522
11.5128
11.2169
10.9401
10.7161
10.5019
10.3311
10.1514
10.0107
9.8475
9.72494
9.56503
9.4496
9.27129
9.14534
8.90066
8.73374
13.1524
12.6647
12.2162
11.851
11.5173
11.2178
10.9481
10.7204
10.5161
10.3424
10.1771
10.0353
9.89323
9.77451
9.64615
9.5393
9.38985
9.2404
8.89597
8.58775
13.158
12.6567
12.213
11.8547
11.5197
11.2219
10.9497
10.7286
10.5216
10.3585
10.1875
10.0654
9.91451
9.83576
9.69373
9.68328
9.52964
9.68351
9.37115
9.74114
13.1726
12.6301
12.2164
11.8484
11.5296
11.2106
10.9614
10.7176
10.5409
10.3476
10.218
10.0569
9.96581
9.83374
9.78702
9.69041
9.64488
9.45654
8.80518
6.77821
13.77
12.8979
12.341
11.9241
11.5471
11.2065
10.9064
10.642
10.4043
10.1855
9.97952
9.78246
9.59144
9.40537
9.22284
9.04393
8.86753
8.6942
8.52303
8.35428
13.585
12.8282
12.3103
11.9046
11.5349
11.1983
10.8994
10.6353
10.398
10.1799
9.97494
9.77895
9.58898
9.40373
9.22176
9.04337
8.86687
8.69406
8.52172
8.35399
13.5419
12.8072
12.2994
11.897
11.5296
11.1948
10.8974
10.6342
10.3978
10.1802
9.97601
9.78045
9.59114
9.40608
9.22449
9.04604
8.86981
8.69715
8.52418
8.35508
13.4897
12.7691
12.2734
11.8788
11.5164
11.1852
10.8905
10.6296
10.3948
10.1787
9.97545
9.78098
9.59225
9.40787
9.22628
9.04791
8.87081
8.69718
8.52322
8.35372
13.46
12.7468
12.2577
11.8678
11.5087
11.1799
10.8874
10.6284
10.3952
10.1804
9.97823