/*--------------------------------*- C++ -*----------------------------------*\
| =========                 |                                                 |
| \\      /  F ield         | OpenFOAM: The Open Source CFD Toolbox           |
|  \\    /   O peration     | Version:  v1806                                 |
|   \\  /    A nd           | Web:      www.OpenFOAM.com                      |
|    \\/     M anipulation  |                                                 |
\*---------------------------------------------------------------------------*/
FoamFile
{
    version     2.0;
    format      ascii;
    class       volVectorField;
    location    "500";
    object      U;
}
// * * * * * * * * * * * * * * * * * * * * * * * * * * * * * * * * * * * * * //

dimensions      [0 1 -1 0 0 0 0];


internalField   nonuniform List<vector> 
2400
(
(0.3 -0.000778339 0)
(0.299997 -0.00233843 0)
(0.299991 -0.00390846 0)
(0.29998 -0.00549534 0)
(0.299966 -0.00710385 0)
(0.299948 -0.00873777 0)
(0.299927 -0.0103971 0)
(0.299906 -0.0120799 0)
(0.299887 -0.0137787 0)
(0.299874 -0.0154827 0)
(0.29987 -0.0171736 0)
(0.299882 -0.018829 0)
(0.299915 -0.0204174 0)
(0.299979 -0.0219037 0)
(0.30008 -0.0232431 0)
(0.300228 -0.0243909 0)
(0.300425 -0.025295 0)
(0.300681 -0.0259123 0)
(0.300992 -0.0261956 0)
(0.301371 -0.0261219 0)
(0.3 -0.000776554 0)
(0.299992 -0.00233309 0)
(0.299978 -0.00389945 0)
(0.299957 -0.00548293 0)
(0.29993 -0.00708844 0)
(0.299899 -0.00872043 0)
(0.299867 -0.0103792 0)
(0.299837 -0.0120637 0)
(0.299815 -0.0137668 0)
(0.299807 -0.0154792 0)
(0.29982 -0.017183 0)
(0.299863 -0.0188573 0)
(0.299946 -0.0204709 0)
(0.300082 -0.0219898 0)
(0.300278 -0.0233686 0)
(0.300546 -0.0245623 0)
(0.30089 -0.0255166 0)
(0.301314 -0.0261848 0)
(0.301812 -0.0265173 0)
(0.302377 -0.0264796 0)
(0.299999 -0.000772918 0)
(0.299987 -0.00232241 0)
(0.299963 -0.00388202 0)
(0.299928 -0.00545985 0)
(0.299884 -0.00706093 0)
(0.299835 -0.00869101 0)
(0.299785 -0.0103505 0)
(0.29974 -0.0120402 0)
(0.299708 -0.0137532 0)
(0.299698 -0.0154824 0)
(0.299723 -0.0172101 0)
(0.299795 -0.0189178 0)
(0.299929 -0.0205736 0)
(0.300143 -0.0221447 0)
(0.300448 -0.0235837 0)
(0.300859 -0.0248447 0)
(0.301381 -0.0258676 0)
(0.302016 -0.0266041 0)
(0.302753 -0.0269926 0)
(0.303571 -0.0270072 0)
(0.299999 -0.000767323 0)
(0.299982 -0.00230605 0)
(0.299947 -0.00385548 0)
(0.299896 -0.00542505 0)
(0.299833 -0.00701978 0)
(0.299762 -0.00864747 0)
(0.299688 -0.0103083 0)
(0.299622 -0.0120063 0)
(0.299573 -0.0137339 0)
(0.299555 -0.0154881 0)
(0.299583 -0.0172501 0)
(0.299676 -0.0190057 0)
(0.299854 -0.0207209 0)
(0.300139 -0.0223656 0)
(0.30055 -0.0238881 0)
(0.301105 -0.0252416 0)
(0.301811 -0.0263579 0)
(0.302672 -0.027184 0)
(0.303667 -0.0276459 0)
(0.304775 -0.027711 0)
(0.299999 -0.000759616 0)
(0.299976 -0.00228356 0)
(0.299929 -0.00381886 0)
(0.299861 -0.00537698 0)
(0.299775 -0.00696255 0)
(0.299678 -0.00858654 0)
(0.299578 -0.0102483 0)
(0.299484 -0.0119565 0)
(0.299411 -0.0137021 0)
(0.299374 -0.0154886 0)
(0.299395 -0.0172945 0)
(0.299498 -0.019113 0)
(0.299708 -0.0209054 0)
(0.300054 -0.0226477 0)
(0.300563 -0.0242803 0)
(0.301258 -0.0257572 0)
(0.302151 -0.0269979 0)
(0.303247 -0.0279432 0)
(0.304519 -0.0285017 0)
(0.305941 -0.0286311 0)
(0.299999 -0.000749572 0)
(0.299969 -0.00225428 0)
(0.299909 -0.00377095 0)
(0.299822 -0.00531386 0)
(0.29971 -0.00688661 0)
(0.299583 -0.00850487 0)
(0.299449 -0.0101657 0)
(0.299321 -0.0118854 0)
(0.299214 -0.0136508 0)
(0.299149 -0.0154766 0)
(0.29915 -0.0173342 0)
(0.299248 -0.0192312 0)
(0.299476 -0.0211178 0)
(0.299869 -0.0229841 0)
(0.300465 -0.024755 0)
(0.301294 -0.0263913 0)
(0.302374 -0.0277927 0)
(0.303715 -0.0288942 0)
(0.305287 -0.0295793 0)
(0.307055 -0.0297951 0)
(0.299998 -0.000736918 0)
(0.299961 -0.00221743 0)
(0.299886 -0.00371031 0)
(0.299777 -0.00523366 0)
(0.299636 -0.00678897 0)
(0.299475 -0.00839868 0)
(0.2993 -0.0100553 0)
(0.299129 -0.011787 0)
(0.298977 -0.0135717 0)
(0.29887 -0.0154432 0)
(0.298836 -0.0173577 0)
(0.298912 -0.0193494 0)
(0.299139 -0.0213453 0)
(0.299561 -0.0233653 0)
(0.300228 -0.0253035 0)
(0.30118 -0.0271425 0)
(0.302448 -0.0287464 0)
(0.304047 -0.030051 0)
(0.305946 -0.0309015 0)
(0.308103 -0.0312317 0)
(0.299998 -0.000721358 0)
(0.299953 -0.00217214 0)
(0.299861 -0.00363534 0)
(0.299727 -0.00513409 0)
(0.299553 -0.00666625 0)
(0.299351 -0.00826367 0)
(0.299128 -0.00991103 0)
(0.298904 -0.0116539 0)
(0.298695 -0.0134548 0)
(0.298531 -0.0153778 0)
(0.298443 -0.0173506 0)
(0.298474 -0.0194545 0)
(0.298677 -0.0215704 0)
(0.299102 -0.0237796 0)
(0.299821 -0.0259123 0)
(0.300879 -0.0280088 0)
(0.302335 -0.0298623 0)
(0.304204 -0.0314316 0)
(0.306464 -0.032498 0)
(0.309068 -0.0329805 0)
(0.299997 -0.000702591 0)
(0.299943 -0.00211748 0)
(0.299833 -0.00354438 0)
(0.299671 -0.00501267 0)
(0.299459 -0.00651477 0)
(0.299211 -0.00809509 0)
(0.298932 -0.00972603 0)
(0.298645 -0.0114782 0)
(0.298363 -0.0132886 0)
(0.298124 -0.015268 0)
(0.297959 -0.0172947 0)
(0.297921 -0.0195305 0)
(0.29807 -0.0217698 0)
(0.298466 -0.0242123 0)
(0.29921 -0.0265602 0)
(0.300348 -0.0289877 0)
(0.301987 -0.0311392 0)
(0.304134 -0.03306 0)
(0.306802 -0.0344065 0)
(0.309924 -0.0350954 0)
(0.299997 -0.000680332 0)
(0.299933 -0.00205246 0)
(0.299802 -0.00343576 0)
(0.29961 -0.00486683 0)
(0.299356 -0.0063308 0)
(0.299056 -0.00788783 0)
(0.29871 -0.00949305 0)
(0.298349 -0.0112509 0)
(0.297978 -0.0130598 0)
(0.297646 -0.0150996 0)
(0.297377 -0.0171687 0)
(0.297239 -0.0195586 0)
(0.297297 -0.0219124 0)
(0.297623 -0.0246457 0)
(0.298355 -0.0272136 0)
(0.299531 -0.0300775 0)
(0.301347 -0.0325659 0)
(0.30377 -0.0349697 0)
(0.306907 -0.0366729 0)
(0.310638 -0.0376499 0)
(0.299996 -0.000654333 0)
(0.299922 -0.00197615 0)
(0.299769 -0.00330793 0)
(0.299544 -0.00469396 0)
(0.299242 -0.00611074 0)
(0.298885 -0.00763655 0)
(0.298464 -0.00920478 0)
(0.298018 -0.010962 0)
(0.29754 -0.0127546 0)
(0.297095 -0.0148563 0)
(0.29669 -0.0169477 0)
(0.296418 -0.0195158 0)
(0.296337 -0.0219588 0)
(0.296544 -0.0250579 0)
(0.29721 -0.0278214 0)
(0.298366 -0.031278 0)
(0.300345 -0.0341087 0)
(0.303018 -0.0372114 0)
(0.30671 -0.0393472 0)
(0.311157 -0.0407487 0)
(0.299996 -0.000624407 0)
(0.29991 -0.00188762 0)
(0.299733 -0.0031596 0)
(0.299473 -0.00449154 0)
(0.299121 -0.00585145 0)
(0.2987 -0.00733585 0)
(0.298196 -0.00885448 0)
(0.297654 -0.010601 0)
(0.297051 -0.0123594 0)
(0.296471 -0.0145192 0)
(0.295895 -0.0166055 0)
(0.295454 -0.0193737 0)
(0.295172 -0.0218617 0)
(0.295202 -0.0254192 0)
(0.295726 -0.0283103 0)
(0.296782 -0.0325904 0)
(0.298892 -0.0356938 0)
(0.301745 -0.0398657 0)
(0.306125 -0.0424629 0)
(0.311396 -0.0445479 0)
(0.299996 -0.000590437 0)
(0.299897 -0.00178609 0)
(0.299697 -0.00298985 0)
(0.299398 -0.00425733 0)
(0.298994 -0.00555048 0)
(0.298503 -0.00698047 0)
(0.297911 -0.00843653 0)
(0.297259 -0.0101565 0)
(0.296518 -0.0118618 0)
(0.295779 -0.0140658 0)
(0.294997 -0.0161163 0)
(0.294345 -0.0190945 0)
(0.293789 -0.02157 0)
(0.293582 -0.0256849 0)
(0.293841 -0.028587 0)
(0.294711 -0.0340107 0)
(0.296863 -0.0371866 0)
(0.299779 -0.0430613 0)
(0.305042 -0.0459885 0)
(0.311192 -0.0492929 0)
(0.299996 -0.000552375 0)
(0.299884 -0.00167101 0)
(0.299661 -0.00279814 0)
(0.299319 -0.00398958 0)
(0.298865 -0.00520627 0)
(0.298297 -0.00656572 0)
(0.297617 -0.00794689 0)
(0.296839 -0.00961694 0)
(0.295954 -0.0112523 0)
(0.295024 -0.0134701 0)
(0.29401 -0.0154583 0)
(0.293095 -0.0186265 0)
(0.292187 -0.0210368 0)
(0.291671 -0.0257786 0)
(0.29149 -0.0285522 0)
(0.292106 -0.0355037 0)
(0.294069 -0.0383892 0)
(0.296941 -0.046983 0)
(0.303289 -0.0497617 0)
(0.310217 -0.0553979 0)
(0.299997 -0.00051023 0)
(0.299869 -0.00154217 0)
(0.299626 -0.00258442 0)
(0.299238 -0.00368735 0)
(0.298739 -0.00481821 0)
(0.298083 -0.00608824 0)
(0.297324 -0.00738328 0)
(0.296398 -0.00897224 0)
(0.295379 -0.0105246 0)
(0.294211 -0.0127045 0)
(0.29297 -0.0146163 0)
(0.291699 -0.0179023 0)
(0.290402 -0.0202273 0)
(0.289442 -0.0255698 0)
(0.288642 -0.0281282 0)
(0.288921 -0.0369416 0)
(0.290236 -0.0390867 0)
(0.293133 -0.0518366 0)
(0.300472 -0.0534067 0)
(0.307924 -0.0636632 0)
(0.299999 -0.00046407 0)
(0.299854 -0.00139978 0)
(0.299595 -0.00234907 0)
(0.299157 -0.00335084 0)
(0.29862 -0.00438657 0)
(0.297868 -0.00554683 0)
(0.297044 -0.00674492 0)
(0.295944 -0.00821571 0)
(0.29482 -0.00967463 0)
(0.293349 -0.0117448 0)
(0.291932 -0.0135796 0)
(0.290151 -0.0168464 0)
(0.288529 -0.0191204 0)
(0.286826 -0.0248583 0)
(0.285376 -0.0272848 0)
(0.284997 -0.0379874 0)
(0.285119 -0.0391789 0)
(0.288352 -0.0576832 0)
(0.295557 -0.0562475 0)
(0.303847 -0.0756509 0)
(0.300001 -0.000414038 0)
(0.299838 -0.00124458 0)
(0.299567 -0.00209294 0)
(0.299078 -0.00298157 0)
(0.298512 -0.00391256 0)
(0.297657 -0.00494321 0)
(0.296788 -0.00603216 0)
(0.295491 -0.00734678 0)
(0.294305 -0.0086994 0)
(0.292456 -0.0105785 0)
(0.290958 -0.0123365 0)
(0.288456 -0.0153983 0)
(0.286717 -0.0176919 0)
(0.283714 -0.0234107 0)
(0.281984 -0.0260213 0)
(0.279856 -0.0379797 0)
(0.278928 -0.0388547 0)
(0.282137 -0.0639616 0)
(0.286689 -0.057615 0)
(0.29875 -0.0935955 0)
(0.300004 -0.000360409 0)
(0.299824 -0.00107766 0)
(0.299543 -0.00181761 0)
(0.299004 -0.00258228 0)
(0.298418 -0.00339875 0)
(0.29746 -0.00428184 0)
(0.296563 -0.00524746 0)
(0.295061 -0.00637163 0)
(0.293848 -0.00759707 0)
(0.291579 -0.00921073 0)
(0.290092 -0.0108688 0)
(0.286687 -0.0135417 0)
(0.285093 -0.0158816 0)
(0.280114 -0.0210742 0)
(0.278874 -0.024238 0)
(0.272791 -0.0360982 0)
(0.272756 -0.0384102 0)
(0.272033 -0.0687644 0)
(0.2737 -0.0584229 0)
(0.295097 -0.120417 0)
(0.300006 -0.000303843 0)
(0.299811 -0.000900305 0)
(0.299524 -0.00152588 0)
(0.298941 -0.00215646 0)
(0.298339 -0.00285053 0)
(0.297291 -0.00356877 0)
(0.296371 -0.00439887 0)
(0.294686 -0.00530016 0)
(0.293454 -0.00637599 0)
(0.290797 -0.0076581 0)
(0.289328 -0.00916937 0)
(0.285034 -0.0113045 0)
(0.283636 -0.0136006 0)
(0.276411 -0.0178638 0)
(0.27609 -0.0215775 0)
(0.263959 -0.0319284 0)
(0.267495 -0.03743 0)
(0.253323 -0.0686503 0)
(0.263742 -0.0643433 0)
(0.289634 -0.165677 0)
(0.300008 -0.000245387 0)
(0.2998 -0.000714705 0)
(0.299509 -0.00122142 0)
(0.298891 -0.00170941 0)
(0.298278 -0.00227509 0)
(0.297159 -0.00281317 0)
(0.296217 -0.00349912 0)
(0.294395 -0.00414728 0)
(0.293125 -0.00505744 0)
(0.290189 -0.00594535 0)
(0.288652 -0.00726682 0)
(0.283747 -0.00873489 0)
(0.282214 -0.0108314 0)
(0.273422 -0.0139074 0)
(0.272972 -0.0175885 0)
(0.255707 -0.0258474 0)
(0.260808 -0.0332943 0)
(0.225885 -0.0622486 0)
(0.256163 -0.0767199 0)
(0.251235 -0.229569 0)
(0.301667 -0.025817 0)
(0.301797 -0.025649 0)
(0.30192 -0.0254516 0)
(0.302043 -0.0252262 0)
(0.302169 -0.0249729 0)
(0.302298 -0.0246918 0)
(0.30243 -0.0243834 0)
(0.302562 -0.0240488 0)
(0.302695 -0.0236876 0)
(0.302825 -0.0233066 0)
(0.302765 -0.0262165 0)
(0.302939 -0.0260699 0)
(0.303113 -0.0258914 0)
(0.303289 -0.0256807 0)
(0.303465 -0.0254386 0)
(0.303642 -0.025166 0)
(0.303818 -0.0248637 0)
(0.303993 -0.0245331 0)
(0.304166 -0.0241733 0)
(0.304336 -0.0237939 0)
(0.304133 -0.0267454 0)
(0.304383 -0.0265941 0)
(0.304632 -0.0264091 0)
(0.30488 -0.0261914 0)
(0.305126 -0.0259418 0)
(0.30537 -0.0256609 0)
(0.30561 -0.0253492 0)
(0.305846 -0.0250081 0)
(0.306078 -0.0246366 0)
(0.306302 -0.0242454 0)
(0.305534 -0.0274571 0)
(0.30587 -0.0273069 0)
(0.306201 -0.027121 0)
(0.306528 -0.0269002 0)
(0.306853 -0.026645 0)
(0.307174 -0.0263558 0)
(0.307489 -0.0260333 0)
(0.307798 -0.0256791 0)
(0.3081 -0.0252914 0)
(0.30839 -0.0248852 0)
(0.306917 -0.0283889 0)
(0.307347 -0.0282401 0)
(0.307769 -0.0280513 0)
(0.308187 -0.0278235 0)
(0.3086 -0.0275573 0)
(0.309008 -0.0272533 0)
(0.309408 -0.0269124 0)
(0.309798 -0.0265366 0)
(0.310179 -0.026123 0)
(0.310542 -0.025693 0)
(0.308273 -0.029565 0)
(0.308809 -0.0294158 0)
(0.309336 -0.0292211 0)
(0.309854 -0.0289822 0)
(0.310367 -0.0286998 0)
(0.310872 -0.0283748 0)
(0.311367 -0.0280081 0)
(0.311848 -0.0276027 0)
(0.312315 -0.0271538 0)
(0.312759 -0.0266923 0)
(0.309599 -0.0310159 0)
(0.310258 -0.0308654 0)
(0.310902 -0.0306621 0)
(0.311537 -0.0304077 0)
(0.312163 -0.030103 0)
(0.312778 -0.0297494 0)
(0.31338 -0.0293479 0)
(0.313963 -0.0289027 0)
(0.314527 -0.0284063 0)
(0.315062 -0.0279039 0)
(0.310889 -0.0327836 0)
(0.311691 -0.0326312 0)
(0.312474 -0.0324162 0)
(0.313243 -0.0321405 0)
(0.314002 -0.0318055 0)
(0.314745 -0.031413 0)
(0.315469 -0.0309646 0)
(0.316169 -0.0304663 0)
(0.316843 -0.0299068 0)
(0.317479 -0.0293516 0)
(0.312135 -0.0349252 0)
(0.313109 -0.0347707 0)
(0.314058 -0.0345396 0)
(0.314989 -0.0342346 0)
(0.315904 -0.033858 0)
(0.316798 -0.0334126 0)
(0.317666 -0.0329006 0)
(0.3185 -0.0323312 0)
(0.319301 -0.0316877 0)
(0.320051 -0.0310638 0)
(0.313326 -0.0375197 0)
(0.314512 -0.0373629 0)
(0.315667 -0.0371094 0)
(0.316795 -0.0367631 0)
(0.317901 -0.0363279 0)
(0.318977 -0.0358088 0)
(0.320014 -0.0352094 0)
(0.321006 -0.034543 0)
(0.321951 -0.0337862 0)
(0.32283 -0.033071 0)
(0.314446 -0.0406806 0)
(0.315903 -0.0405211 0)
(0.317321 -0.0402342 0)
(0.318701 -0.0398268 0)
(0.320043 -0.0393064 0)
(0.321341 -0.0386816 0)
(0.322583 -0.0379583 0)
(0.32376 -0.0371565 0)
(0.32487 -0.0362445 0)
(0.325893 -0.0354037 0)
(0.315475 -0.0445789 0)
(0.317295 -0.0444126 0)
(0.319064 -0.0440699 0)
(0.320771 -0.0435663 0)
(0.322415 -0.0429165 0)
(0.323989 -0.042135 0)
(0.325481 -0.0412319 0)
(0.326877 -0.0402364 0)
(0.328175 -0.0391081 0)
(0.329355 -0.0380887 0)
(0.316387 -0.0494828 0)
(0.318728 -0.0492931 0)
(0.320984 -0.0488474 0)
(0.323128 -0.0481826 0)
(0.325165 -0.0473276 0)
(0.327091 -0.0463057 0)
(0.32889 -0.0451339 0)
(0.330546 -0.0438541 0)
(0.332059 -0.0424184 0)
(0.333402 -0.0411373 0)
(0.317172 -0.0558205 0)
(0.320322 -0.0555584 0)
(0.323289 -0.0549165 0)
(0.326034 -0.0539779 0)
(0.328592 -0.0527919 0)
(0.33097 -0.0513923 0)
(0.33315 -0.0498067 0)
(0.335108 -0.0480954 0)
(0.336845 -0.0462091 0)
(0.338327 -0.044527 0)
(0.317982 -0.0643046 0)
(0.322466 -0.0638221 0)
(0.32649 -0.0627928 0)
(0.330064 -0.0613829 0)
(0.333308 -0.0596573 0)
(0.336249 -0.0576529 0)
(0.338851 -0.055412 0)
(0.341077 -0.05302 0)
(0.342932 -0.0504443 0)
(0.34439 -0.0481071 0)
(0.319752 -0.0762091 0)
(0.326376 -0.0751089 0)
(0.331777 -0.0732228 0)
(0.336261 -0.0708708 0)
(0.340163 -0.0681315 0)
(0.343524 -0.0650388 0)
(0.346264 -0.0616602 0)
(0.348326 -0.0581086 0)
(0.349752 -0.0544109 0)
(0.350538 -0.0509296 0)
(0.324712 -0.093374 0)
(0.334165 -0.0909396 0)
(0.340503 -0.0872613 0)
(0.344911 -0.0828904 0)
(0.348259 -0.077993 0)
(0.350659 -0.0726857 0)
(0.352014 -0.0671275 0)
(0.35228 -0.0614655 0)
(0.351642 -0.0558473 0)
(0.350029 -0.0503229 0)
(0.331642 -0.114779 0)
(0.342268 -0.109068 0)
(0.346503 -0.101956 0)
(0.347226 -0.0939209 0)
(0.346196 -0.0852331 0)
(0.343785 -0.0762769 0)
(0.340066 -0.067406 0)
(0.335175 -0.0588124 0)
(0.329614 -0.0506891 0)
(0.322846 -0.0426384 0)
(0.321821 -0.127089 0)
(0.322826 -0.109843 0)
(0.314846 -0.0951358 0)
(0.304222 -0.0814137 0)
(0.29274 -0.0681502 0)
(0.280509 -0.0556711 0)
(0.26789 -0.0442519 0)
(0.255466 -0.0339517 0)
(0.243831 -0.0246762 0)
(0.232146 -0.0161667 0)
(0.248883 -0.140602 0)
(0.20313 -0.103813 0)
(0.158516 -0.0736807 0)
(0.128939 -0.0493535 0)
(0.108485 -0.0304363 0)
(0.0929335 -0.0166193 0)
(0.0813876 -0.00701281 0)
(0.0733868 -0.000473561 0)
(0.0680383 0.00400425 0)
(0.0646559 0.00698903 0)
(0.30348 -0.0212266 0)
(0.304631 -0.0160933 0)
(0.305409 -0.0107111 0)
(0.306047 -0.00562531 0)
(0.306397 -0.000813251 0)
(0.306304 0.00250357 0)
(0.306099 0.00445748 0)
(0.305691 0.00463222 0)
(0.305891 0.00403088 0)
(0.306442 0.00486216 0)
(0.306739 0.00581627 0)
(0.307469 0.00832389 0)
(0.307058 0.010516 0)
(0.306825 0.0103604 0)
(0.305913 0.010281 0)
(0.304799 0.00584261 0)
(0.30539 0.00339155 0)
(0.305336 0.00157436 0)
(0.306705 -0.000137046 0)
(0.307706 0.00439773 0)
(0.305169 -0.0216465 0)
(0.306268 -0.0163934 0)
(0.306843 -0.0109204 0)
(0.307218 -0.00575651 0)
(0.307228 -0.000833487 0)
(0.30678 0.00257362 0)
(0.306252 0.00456684 0)
(0.305683 0.00466544 0)
(0.305954 0.00390985 0)
(0.306647 0.00471265 0)
(0.307049 0.00566073 0)
(0.307747 0.00827397 0)
(0.307144 0.0106048 0)
(0.306765 0.0105455 0)
(0.305657 0.0105969 0)
(0.304476 0.00593835 0)
(0.30527 0.0033043 0)
(0.305316 0.00132086 0)
(0.307075 -0.00068415 0)
(0.308135 0.00419743 0)
(0.307388 -0.022034 0)
(0.308581 -0.0166371 0)
(0.309032 -0.0110502 0)
(0.309168 -0.00577226 0)
(0.308772 -0.000706869 0)
(0.30782 0.00278277 0)
(0.306764 0.00477738 0)
(0.305872 0.00470416 0)
(0.306213 0.00374684 0)
(0.307113 0.0045144 0)
(0.307696 0.00548922 0)
(0.308377 0.00828886 0)
(0.307442 0.0107831 0)
(0.306794 0.0108322 0)
(0.305287 0.0109682 0)
(0.303929 0.00597882 0)
(0.305063 0.00314106 0)
(0.30531 0.0010017 0)
(0.307723 -0.00105055 0)
(0.308839 0.00405594 0)
(0.309794 -0.022514 0)
(0.311139 -0.0168756 0)
(0.311541 -0.0111271 0)
(0.311512 -0.0056859 0)
(0.310748 -0.000443643 0)
(0.309264 0.00315123 0)
(0.307585 0.00512009 0)
(0.306272 0.00477868 0)
(0.306679 0.00355398 0)
(0.307838 0.00426199 0)
(0.30867 0.00530505 0)
(0.309371 0.00837631 0)
(0.308009 0.011051 0)
(0.306991 0.0112244 0)
(0.304912 0.0114081 0)
(0.303261 0.00598316 0)
(0.304814 0.00290807 0)
(0.305269 0.000554467 0)
(0.308568 -0.00162602 0)
(0.309788 0.00390272 0)
(0.312298 -0.0230893 0)
(0.313797 -0.0171365 0)
(0.314179 -0.0111861 0)
(0.314037 -0.00553069 0)
(0.312947 -5.4104e-05 0)
(0.310928 0.00368812 0)
(0.308576 0.00561878 0)
(0.306787 0.00490127 0)
(0.307277 0.00331457 0)
(0.308764 0.0039272 0)
(0.309923 0.00507941 0)
(0.310693 0.00852813 0)
(0.308847 0.0114317 0)
(0.307376 0.0117706 0)
(0.304585 0.0119833 0)
(0.302525 0.00597435 0)
(0.304534 0.00259063 0)
(0.30518 -7.50742e-05 0)
(0.309549 -0.00235 0)
(0.310914 0.0037401 0)
(0.314905 -0.0237635 0)
(0.316517 -0.0174256 0)
(0.316887 -0.0112368 0)
(0.316659 -0.00531627 0)
(0.315266 0.000461609 0)
(0.312687 0.004403 0)
(0.309605 0.00628586 0)
(0.3073 0.00507083 0)
(0.307904 0.00301032 0)
(0.309809 0.00348307 0)
(0.31139 0.00479014 0)
(0.312281 0.00874502 0)
(0.30992 0.0119473 0)
(0.307915 0.01251 0)
(0.304304 0.0127305 0)
(0.301727 0.00596169 0)
(0.304202 0.00218617 0)
(0.305006 -0.00090281 0)
(0.31058 -0.00325601 0)
(0.312126 0.00356406 0)
(0.317638 -0.0245324 0)
(0.319297 -0.0177414 0)
(0.319651 -0.011282 0)
(0.319361 -0.00504486 0)
(0.31767 0.00110719 0)
(0.314473 0.00531124 0)
(0.310574 0.00713513 0)
(0.307711 0.00528642 0)
(0.308456 0.00262287 0)
(0.310889 0.00290035 0)
(0.312999 0.00441786 0)
(0.314056 0.00902614 0)
(0.311165 0.0126123 0)
(0.308532 0.0134692 0)
(0.304025 0.013672 0)
(0.300829 0.00595907 0)
(0.303752 0.00170427 0)
(0.304661 -0.0019425 0)
(0.311522 -0.00436399 0)
(0.313284 0.00337327 0)
(0.320532 -0.0253873 0)
(0.322139 -0.0180806 0)
(0.322475 -0.0113242 0)
(0.322151 -0.00471944 0)
(0.320158 0.00189488 0)
(0.316248 0.00643942 0)
(0.311412 0.00818713 0)
(0.307935 0.00555021 0)
(0.308834 0.00213314 0)
(0.31191 0.00214616 0)
(0.314658 0.00394239 0)
(0.315923 0.00936842 0)
(0.312488 0.0134402 0)
(0.309114 0.0146725 0)
(0.303677 0.0148265 0)
(0.299761 0.005987 0)
(0.303069 0.00116215 0)
(0.303995 -0.00319858 0)
(0.312145 -0.00568253 0)
(0.314174 0.00316562 0)
(0.323631 -0.0263148 0)
(0.325054 -0.018439 0)
(0.325368 -0.0113669 0)
(0.325045 -0.00434333 0)
(0.322736 0.00284491 0)
(0.317973 0.00782464 0)
(0.31205 0.00946865 0)
(0.307892 0.00586916 0)
(0.308918 0.00152596 0)
(0.312734 0.00118762 0)
(0.316218 0.00334453 0)
(0.31773 0.0097689 0)
(0.313748 0.0144475 0)
(0.309508 0.0161423 0)
(0.30316 0.0162074 0)
(0.298416 0.00607485 0)
(0.301974 0.000589999 0)
(0.302765 -0.00465657 0)
(0.312094 -0.00721068 0)
(0.314485 0.00293554 0)
(0.326984 -0.0272956 0)
(0.328058 -0.0188109 0)
(0.328335 -0.0114121 0)
(0.328046 -0.00391927 0)
(0.325382 0.00398687 0)
(0.319574 0.00951466 0)
(0.312394 0.0110121 0)
(0.307467 0.00625933 0)
(0.308523 0.000800135 0)
(0.313109 -6.46322e-07 0)
(0.317392 0.00260666 0)
(0.319218 0.0102214 0)
(0.314714 0.0156486 0)
(0.309503 0.0178928 0)
(0.302342 0.0178209 0)
(0.296633 0.00626693 0)
(0.300208 4.38268e-05 0)
(0.300614 -0.00627099 0)
(0.310864 -0.00893696 0)
(0.313799 0.00266879 0)
(0.330667 -0.0283041 0)
(0.331181 -0.0191869 0)
(0.331353 -0.0114549 0)
(0.331083 -0.00344443 0)
(0.327982 0.00536461 0)
(0.32088 0.0115676 0)
(0.31228 0.0128558 0)
(0.306463 0.00675465 0)
(0.307316 -2.87585e-05 0)
(0.312565 -0.00142452 0)
(0.317652 0.00170989 0)
(0.319932 0.0107054 0)
(0.315005 0.0170443 0)
(0.308812 0.0199183 0)
(0.301034 0.019665 0)
(0.294178 0.00662899 0)
(0.297417 -0.000387352 0)
(0.297066 -0.00795506 0)
(0.307815 -0.0108407 0)
(0.311607 0.00233608 0)
(0.33479 -0.029306 0)
(0.334438 -0.0195434 0)
(0.334272 -0.011469 0)
(0.333868 -0.00289952 0)
(0.330187 0.00703829 0)
(0.321523 0.014046 0)
(0.311393 0.015044 0)
(0.304495 0.00742237 0)
(0.304702 -0.000886094 0)
(0.310284 -0.00305195 0)
(0.31612 0.000637775 0)
(0.319143 0.0111692 0)
(0.314048 0.0185999 0)
(0.307051 0.0221773 0)
(0.298963 0.0217303 0)
(0.290717 0.00725238 0)
(0.293145 -0.000581246 0)
(0.291562 -0.00957832 0)
(0.302252 -0.0128984 0)
(0.307382 0.00188635 0)
(0.339516 -0.0302477 0)
(0.337684 -0.0198039 0)
(0.33655 -0.0113653 0)
(0.335594 -0.00222846 0)
(0.331164 0.00907142 0)
(0.320777 0.0169955 0)
(0.309144 0.01762 0)
(0.300863 0.00837996 0)
(0.299705 -0.00161086 0)
(0.305015 -0.00480421 0)
(0.311522 -0.000639065 0)
(0.315823 0.0115091 0)
(0.311074 0.0202174 0)
(0.303753 0.0245758 0)
(0.295751 0.0240021 0)
(0.285812 0.00825171 0)
(0.286884 -0.00039122 0)
(0.283566 -0.0109793 0)
(0.2936 -0.0150981 0)
(0.300697 0.00124179 0)
(0.344919 -0.0310162 0)
(0.34016 -0.0197495 0)
(0.336705 -0.0109172 0)
(0.334417 -0.00131696 0)
(0.329237 0.0114991 0)
(0.31735 0.0204019 0)
(0.304509 0.0206153 0)
(0.294405 0.00980095 0)
(0.290915 -0.00197276 0)
(0.295155 -0.00656135 0)
(0.302338 -0.00221365 0)
(0.308763 0.0115379 0)
(0.305209 0.0217074 0)
(0.298415 0.0269562 0)
(0.290917 0.026464 0)
(0.27897 0.00975392 0)
(0.278176 0.000326613 0)
(0.272745 -0.0120027 0)
(0.281632 -0.0174518 0)
(0.291385 0.000306742 0)
(0.350307 -0.031269 0)
(0.339484 -0.0188586 0)
(0.331462 -0.00970672 0)
(0.326865 -8.56453e-05 0)
(0.321568 0.0142422 0)
(0.309237 0.0241155 0)
(0.295907 0.0240295 0)
(0.283458 0.0119059 0)
(0.276672 -0.00170774 0)
(0.279135 -0.00819909 0)
(0.287242 -0.00424413 0)
(0.296914 0.0109695 0)
(0.295706 0.0227803 0)
(0.290598 0.0291071 0)
(0.28393 0.0291021 0)
(0.269753 0.0118632 0)
(0.266784 0.00168892 0)
(0.259189 -0.0125522 0)
(0.266698 -0.0200027 0)
(0.279672 -0.00102871 0)
(0.352252 -0.0298556 0)
(0.330044 -0.0160987 0)
(0.315006 -0.00718116 0)
(0.307752 0.00141419 0)
(0.304364 0.0169483 0)
(0.293909 0.0277543 0)
(0.281317 0.0277888 0)
(0.266148 0.0148934 0)
(0.255645 -0.000656607 0)
(0.256204 -0.00969012 0)
(0.265809 -0.00694945 0)
(0.279888 0.00945084 0)
(0.282262 0.0230825 0)
(0.280047 0.0308027 0)
(0.274319 0.0319038 0)
(0.257965 0.0146111 0)
(0.2529 0.00369949 0)
(0.243589 -0.0126391 0)
(0.249817 -0.0228153 0)
(0.266211 -0.00284539 0)
(0.34088 -0.0244508 0)
(0.301804 -0.0100887 0)
(0.279774 -0.00295492 0)
(0.271794 0.00277674 0)
(0.274293 0.0188212 0)
(0.269179 0.030664 0)
(0.258869 0.0316947 0)
(0.241197 0.0187851 0)
(0.227817 0.00117559 0)
(0.227347 -0.011199 0)
(0.239183 -0.0105913 0)
(0.258383 0.0066538 0)
(0.265248 0.0222934 0)
(0.266782 0.031873 0)
(0.261843 0.034843 0)
(0.243847 0.0179029 0)
(0.237287 0.00619317 0)
(0.227276 -0.0123994 0)
(0.23255 -0.025937 0)
(0.25197 -0.00514976 0)
(0.297141 -0.0135315 0)
(0.243094 -0.00079293 0)
(0.221264 0.00199457 0)
(0.218016 0.00277297 0)
(0.231334 0.0186198 0)
(0.234735 0.0320746 0)
(0.22799 0.0354088 0)
(0.209197 0.0232245 0)
(0.195438 0.00337463 0)
(0.195676 -0.0130561 0)
(0.210135 -0.0153542 0)
(0.234162 0.00242993 0)
(0.245679 0.0202565 0)
(0.251107 0.0322692 0)
(0.246676 0.0378481 0)
(0.228226 0.0214744 0)
(0.221281 0.00884645 0)
(0.212026 -0.0120749 0)
(0.216673 -0.0293368 0)
(0.238029 -0.00786176 0)
(0.202554 0.00647739 0)
(0.153972 0.00994447 0)
(0.14729 0.00501635 0)
(0.154363 -0.000370025 0)
(0.180654 0.0152805 0)
(0.193173 0.0315413 0)
(0.190589 0.0385482 0)
(0.173544 0.0274034 0)
(0.163111 0.00509871 0)
(0.165854 -0.0156199 0)
(0.182328 -0.0211795 0)
(0.209551 -0.003082 0)
(0.224925 0.0170762 0)
(0.233618 0.032079 0)
(0.229564 0.0407707 0)
(0.212515 0.0249166 0)
(0.206597 0.0112374 0)
(0.199693 -0.0119162 0)
(0.203802 -0.0328541 0)
(0.2254 -0.010807 0)
(0.0819971 0.0145254 0)
(0.0621759 0.0126331 0)
(0.0782331 0.00241255 0)
(0.0941891 -0.00742941 0)
(0.130195 0.00887328 0)
(0.149504 0.0292795 0)
(0.151465 0.0407385 0)
(0.14012 0.0303646 0)
(0.1365 0.00557196 0)
(0.142656 -0.0188916 0)
(0.159314 -0.0275961 0)
(0.186859 -0.0094078 0)
(0.204488 0.0131082 0)
(0.215306 0.0314673 0)
(0.211919 0.0433899 0)
(0.198526 0.0277665 0)
(0.194974 0.0129677 0)
(0.191784 -0.012038 0)
(0.195128 -0.0361964 0)
(0.214938 -0.0137473 0)
(0.0421096 0.00742127 0)
(0.0197829 0.011418 0)
(0.0448173 -0.00164046 0)
(0.0620023 -0.0133281 0)
(0.100172 0.00308436 0)
(0.122048 0.0266864 0)
(0.127837 0.0410462 0)
(0.122894 0.0310032 0)
(0.125212 0.0048375 0)
(0.133567 -0.0212467 0)
(0.148553 -0.03181 0)
(0.173785 -0.0138341 0)
(0.191548 0.0101507 0)
(0.203 0.0307078 0)
(0.200643 0.0447111 0)
(0.19125 0.0290003 0)
(0.189959 0.013416 0)
(0.189928 -0.0122769 0)
(0.19247 -0.0381893 0)
(0.209623 -0.015585 0)
(0.0239752 0.0047816 0)
(0.000949209 0.0109654 0)
(0.0299917 -0.00411041 0)
(0.0469002 -0.0165984 0)
(0.0850135 -0.000325312 0)
(0.107719 0.0250095 0)
(0.115761 0.040838 0)
(0.114909 0.030923 0)
(0.120751 0.00410736 0)
(0.130288 -0.0225902 0)
(0.143969 -0.0340259 0)
(0.167242 -0.0162361 0)
(0.184668 0.00847762 0)
(0.196254 0.0301884 0)
(0.194614 0.0452912 0)
(0.18779 0.0294799 0)
(0.187888 0.0134352 0)
(0.18972 -0.0124824 0)
(0.191775 -0.0392241 0)
(0.207127 -0.0165345 0)
(0.0106794 0.00426625 0)
(-0.0125038 0.0104885 0)
(0.0197042 -0.00674531 0)
(0.0354458 -0.0197615 0)
(0.0722726 -0.00373146 0)
(0.0951704 0.0231677 0)
(0.105498 0.0402404 0)
(0.109039 0.0303872 0)
(0.118382 0.00310683 0)
(0.128955 -0.0239112 0)
(0.141016 -0.0360254 0)
(0.161745 -0.0184778 0)
(0.178425 0.00683977 0)
(0.189921 0.0296089 0)
(0.189126 0.0456715 0)
(0.185105 0.0297207 0)
(0.186644 0.0132496 0)
(0.190346 -0.0127616 0)
(0.191893 -0.0401259 0)
(0.205199 -0.0173775 0)
(0.00206859 0.00506948 0)
(-0.020637 0.00982616 0)
(0.0141172 -0.00946523 0)
(0.0279367 -0.0227376 0)
(0.0623491 -0.00702587 0)
(0.0848013 0.0211994 0)
(0.0973911 0.0392566 0)
(0.105461 0.0294003 0)
(0.118132 0.00185881 0)
(0.129542 -0.0251844 0)
(0.139733 -0.0377667 0)
(0.157407 -0.0205101 0)
(0.172945 0.0052693 0)
(0.184132 0.028987 0)
(0.184297 0.0458354 0)
(0.183257 0.0297133 0)
(0.186245 0.0128746 0)
(0.191773 -0.0131127 0)
(0.192797 -0.0408756 0)
(0.20386 -0.0181047 0)
(-0.00207317 0.00654443 0)
(-0.0235219 0.00894157 0)
(0.0132956 -0.0121825 0)
(0.0245925 -0.0254199 0)
(0.0555984 -0.0101145 0)
(0.076972 0.0191438 0)
(0.0917219 0.0378889 0)
(0.104269 0.0279754 0)
(0.119958 0.000384244 0)
(0.131972 -0.0263842 0)
(0.14012 -0.039209 0)
(0.154325 -0.0222828 0)
(0.168354 0.00380176 0)
(0.179021 0.0283291 0)
(0.180241 0.0457696 0)
(0.182291 0.0294514 0)
(0.186687 0.0123137 0)
(0.19395 -0.0135307 0)
(0.194452 -0.0414633 0)
(0.203124 -0.0187054 0)
(-0.00186681 0.00813728 0)
(-0.0212433 0.00785407 0)
(0.017196 -0.0148413 0)
(0.0255355 -0.0277236 0)
(0.0523081 -0.0129088 0)
(0.0719867 0.017044 0)
(0.0886944 0.0361522 0)
(0.105473 0.0261412 0)
(0.123755 -0.00127895 0)
(0.136124 -0.0274885 0)
(0.142141 -0.040323 0)
(0.152577 -0.0237541 0)
(0.164772 0.00246938 0)
(0.174719 0.0276405 0)
(0.177059 0.0454648 0)
(0.182232 0.0289343 0)
(0.187949 0.0115745 0)
(0.196818 -0.0140092 0)
(0.196812 -0.0418832 0)
(0.202999 -0.0191717 0)
(0.00275638 0.00932662 0)
(-0.0138958 0.00655685 0)
(0.0256576 -0.017388 0)
(0.0307686 -0.0295884 0)
(0.0526724 -0.0153317 0)
(0.0700781 0.0149486 0)
(0.0884301 0.0340798 0)
(0.109006 0.0239444 0)
(0.129368 -0.00308743 0)
(0.141837 -0.0284807 0)
(0.145718 -0.0410935 0)
(0.152214 -0.0248934 0)
(0.162303 0.00129985 0)
(0.171349 0.0269289 0)
(0.17484 0.0449184 0)
(0.183089 0.0281691 0)
(0.189996 0.0106711 0)
(0.200305 -0.0145411 0)
(0.199821 -0.0421335 0)
(0.203483 -0.0194989 0)
(0.0120728 0.00958274 0)
(-0.00156835 0.00502229 0)
(0.0384101 -0.0197607 0)
(0.0401559 -0.0309722 0)
(0.056766 -0.0173223 0)
(0.0713957 0.0129129 0)
(0.0909689 0.031726 0)
(0.11474 0.0214486 0)
(0.136607 -0.00499772 0)
(0.148919 -0.0293504 0)
(0.150733 -0.0415184 0)
(0.153252 -0.0256832 0)
(0.161034 0.000314216 0)
(0.169023 0.0262035 0)
(0.173655 0.0441348 0)
(0.184853 0.0271713 0)
(0.192783 0.00962351 0)
(0.204336 -0.0151199 0)
(0.203415 -0.0422159 0)
(0.204564 -0.0196837 0)
(0.0265089 0.00818713 0)
(0.0156592 0.00334064 0)
(0.0550742 -0.0219035 0)
(0.0534141 -0.0318532 0)
(0.0645233 -0.0188371 0)
(0.0759959 0.0109924 0)
(0.0962768 0.0291629 0)
(0.122499 0.018732 0)
(0.145254 -0.00695941 0)
(0.157158 -0.0300882 0)
(0.157035 -0.0416039 0)
(0.15567 -0.0261155 0)
(0.161025 -0.000475264 0)
(0.167836 0.0254736 0)
(0.173561 0.0431264 0)
(0.187501 0.0259643 0)
(0.196252 0.00845758 0)
(0.208831 -0.0157367 0)
(0.207525 -0.0421353 0)
(0.206223 -0.0197276 0)
(0.0464831 0.00418374 0)
(0.0377224 0.00181236 0)
(0.0751574 -0.023788 0)
(0.0701176 -0.0322474 0)
(0.0757242 -0.019835 0)
(0.0838309 0.00921568 0)
(0.104258 0.0264445 0)
(0.132076 0.0158605 0)
(0.155077 -0.00892073 0)
(0.166327 -0.030672 0)
(0.164444 -0.0413488 0)
(0.159406 -0.0261762 0)
(0.162306 -0.00105618 0)
(0.16786 0.0247518 0)
(0.1746 0.0419093 0)
(0.191003 0.0245611 0)
(0.200343 0.00718886 0)
(0.213708 -0.0163678 0)
(0.212075 -0.0418963 0)
(0.208431 -0.0196507 0)
(0.10209 -0.00491547 0)
(0.0960669 -0.00411436 0)
(0.124971 -0.0274061 0)
(0.112747 -0.03214 0)
(0.10676 -0.0207829 0)
(0.107544 0.00566282 0)
(0.127124 0.020167 0)
(0.15639 0.00931137 0)
(0.1785 -0.0131175 0)
(0.187793 -0.0315536 0)
(0.182535 -0.0400592 0)
(0.170176 -0.0254588 0)
(0.167868 -0.00165152 0)
(0.170651 0.0232509 0)
(0.179379 0.0388281 0)
(0.200391 0.0210389 0)
(0.210456 0.00416689 0)