/*--------------------------------*- C++ -*----------------------------------*\
| =========                 |                                                 |
| \\      /  F ield         | OpenFOAM: The Open Source CFD Toolbox           |
|  \\    /   O peration     | Version:  v1806                                 |
|   \\  /    A nd           | Web:      www.OpenFOAM.com                      |
|    \\/     M anipulation  |                                                 |
\*---------------------------------------------------------------------------*/
FoamFile
{
    version     2.0;
    format      ascii;
    class       surfaceScalarField;
    location    "160";
    object      phi;
}
// * * * * * * * * * * * * * * * * * * * * * * * * * * * * * * * * * * * * * //

dimensions      [0 3 -1 0 0 0 0];
oriented        oriented;


internalField   nonuniform List<scalar> 
8600
(
0.115401
-0.0685225
-0.106388
0.0595095
0.102884
-0.0713532
0.0838694
0.0854326
-0.0717656
0.0892173
0.0706053
-0.0728068
0.0876341
0.0598837
-0.0744537
0.0851752
0.0523782
-0.076228
0.0837335
0.0469459
-0.0777924
0.0832248
0.042851
-0.0790632
0.083158
0.0397077
-0.0800891
0.0832324
0.0372931
-0.0809347
0.0833493
0.035448
-0.081644
0.0834892
0.0340465
-0.0822437
0.0836452
0.0329881
-0.0827515
0.0838099
0.0321937
-0.083182
0.0839764
0.0316031
-0.083548
0.0841386
0.0311724
-0.0838604
0.084291
0.0308721
-0.0841279
0.0844283
0.0306828
-0.0843551
0.0845444
0.0305915
-0.0845352
0.0846265
-0.0846392
0.0846505
0.0188271
-0.0663569
-0.0209926
0.0160974
-0.0686235
0.0162156
-0.0718838
0.0187173
-0.0753084
0.0217399
-0.0774763
0.0242968
-0.0787849
0.0261481
-0.0796437
0.0274027
-0.0803178
0.0282254
-0.0809118
0.0287383
-0.0814475
0.0290208
-0.0819266
0.0291311
-0.0823539
0.0291183
-0.0827386
0.0290265
-0.0830902
0.0288953
-0.0834168
0.0287589
-0.083724
0.028645
-0.084014
0.0285739
-0.084284
0.0285571
-0.0845184
-0.0846751
0.0258845
-0.0732155
-0.019026
0.0319817
-0.0747206
0.0358668
-0.0757689
0.0368729
-0.0763145
0.0362262
-0.0768296
0.034915
-0.0774738
0.0334677
-0.0781963
0.032094
-0.0789442
0.0308523
-0.0796701
0.0297557
-0.0803509
0.0288111
-0.080982
0.0280226
-0.0815654
0.027388
-0.0821041
0.0268984
-0.0826006
0.0265392
-0.0830577
0.0262936
-0.0834784
0.0261445
-0.0838649
0.0260767
-0.0842162
0.0260785
-0.0845202
-0.0847332
0.00983969
-0.0749617
-0.00809352
0.0104269
-0.0753078
0.0105953
-0.0759373
0.011165
-0.0768842
0.0123055
-0.0779701
0.0138286
-0.0789968
0.0154118
-0.0797795
0.0168772
-0.0804097
0.0181588
-0.0809516
0.0192488
-0.0814409
0.0201596
-0.0818928
0.0209072
-0.0823131
0.0215088
-0.0827057
0.021983
-0.0830747
0.0223499
-0.0834246
0.0226306
-0.0837591
0.0228456
-0.0840799
0.0230132
-0.0843837
0.0231471
-0.0846541
-0.0848455
0.00971282
-0.0780102
-0.00666429
0.0129179
-0.0785129
0.0159343
-0.0789537
0.0183475
-0.0792974
0.0199482
-0.0795708
0.0207739
-0.0798226
0.0211407
-0.0801463
0.0212531
-0.0805221
0.0212286
-0.0809271
0.0211313
-0.0813437
0.0209988
-0.0817602
0.0208563
-0.0821706
0.0207225
-0.0825718
0.0206102
-0.0829624
0.0205271
-0.0833415
0.0204762
-0.0837082
0.0204573
-0.084061
0.0204689
-0.0843953
0.020511
-0.0846962
-0.0849165
0.00573628
-0.0791746
-0.00457188
0.00648969
-0.0792663
0.00699978
-0.0794638
0.00748478
-0.0797824
0.00811992
-0.0802059
0.00897421
-0.0806769
0.00997411
-0.0811462
0.011016
-0.081564
0.0120268
-0.0819379
0.0129668
-0.0822837
0.013818
-0.0826114
0.0145737
-0.0829262
0.0152324
-0.0832306
0.0157959
-0.083526
0.0162681
-0.0838137
0.0166546
-0.0840947
0.0169623
-0.0843687
0.0171982
-0.0846312
0.0173689
-0.0848669
-0.0850362
0.00493637
-0.0807995
-0.00331145
0.00670202
-0.0810319
0.00847697
-0.0812388
0.0101199
-0.0814253
0.0115013
-0.0815874
0.0125637
-0.0817393
0.0133162
-0.0818987
0.0138411
-0.0820889
0.0142132
-0.08231
0.0144816
-0.0825521
0.014678
-0.0828078
0.0148234
-0.0830717
0.014933
-0.0833403
0.0150184
-0.0836113
0.0150881
-0.0838834
0.0151482
-0.0841548
0.015203
-0.0844235
0.015256
-0.0846842
0.0153128
-0.0849237
-0.0851009
0.00364948
-0.0816067
-0.00284225
0.004254
-0.0816364
0.00474013
-0.0817249
0.00517722
-0.0818624
0.00564232
-0.0820525
0.00618495
-0.0822819
0.00681545
-0.0825292
0.00750371
-0.0827771
0.00820649
-0.0830127
0.00889202
-0.0832376
0.00953975
-0.0834555
0.0101373
-0.0836692
0.0106772
-0.0838802
0.011155
-0.0840892
0.0115682
-0.0842965
0.0119155
-0.0845021
0.0121968
-0.0847048
0.0124131
-0.0849005
0.0125664
-0.085077
-0.0852046
0.00290725
-0.0825731
-0.00194085
0.00397013
-0.0826993
0.00505328
-0.0828081
0.00610466
-0.0829138
0.00706401
-0.0830118
0.00788717
-0.0831051
0.00855917
-0.0832012
0.00908944
-0.0833074
0.00950689
-0.0834302
0.00983875
-0.0835695
0.010105
-0.0837218
0.0103199
-0.0838841
0.0104935
-0.0840538
0.0106337
-0.0842293
0.0107463
-0.0844092
0.0108364
-0.0845922
0.0109081
-0.0847764
0.0109656
-0.084958
0.0110152
-0.0851266
-0.0852521
0.00239648
-0.083141
-0.00182865
0.00284763
-0.0831505
0.00323539
-0.0831958
0.00358604
-0.0832644
0.0039334
-0.0833592
0.00430551
-0.0834772
0.00471493
-0.0836106
0.00515862
-0.0837511
0.0056208
-0.0838924
0.0060824
-0.0840311
0.00652845
-0.0841679
0.00694811
-0.0843037
0.00733372
-0.0844394
0.00767981
-0.0845754
0.00798234
-0.0847117
0.00823833
-0.0848482
0.00844569
-0.0849838
0.00860347
-0.0851158
0.00871256
-0.0852357
-0.0853234
0.00182063
-0.0837452
-0.00121641
0.00248776
-0.0838176
0.00316983
-0.0838779
0.00384399
-0.0839386
0.00448178
-0.083997
0.00505789
-0.0840533
0.00555764
-0.0841104
0.00597858
-0.084172
0.00632734
-0.0842411
0.0066158
-0.0843195
0.00685482
-0.0844069
0.00705295
-0.0845019
0.00721663
-0.0846031
0.00735078
-0.0847096
0.00745932
-0.0848203
0.0075455
-0.0849344
0.00761228
-0.0850506
0.00766295
-0.0851664
0.00770245
-0.0852752
-0.0853567
0.00159525
-0.0841425
-0.0011979
0.00192196
-0.0841443
0.00221201
-0.0841679
0.00247688
-0.0842035
0.00273227
-0.0842524
0.00299305
-0.0843141
0.00326832
-0.0843856
0.00355955
-0.0844633
0.00386215
-0.0845437
0.00416732
-0.0846247
0.00446596
-0.0847055
0.00475049
-0.0847864
0.00501488
-0.0848675
0.00525444
-0.0849491
0.0054654
-0.0850312
0.00564475
-0.0851137
0.00579018
-0.085196
0.00590036
-0.0852766
0.00597566
-0.0853505
-0.0854055
0.00116635
-0.0845282
-0.000780675
0.00159214
-0.0845701
0.00202774
-0.0846035
0.00246178
-0.0846375
0.00287993
-0.0846705
0.00326809
-0.0847022
0.00361618
-0.0847337
0.00391977
-0.0847669
0.00417946
-0.0848034
0.00439923
-0.0848445
0.0045843
-0.0848906
0.00473944
-0.0849415
0.00486854
-0.0849966
0.00497476
-0.0850553
0.00506067
-0.0851171
0.00512844
-0.0851815
0.00518013
-0.0852477
0.00521797
-0.0853144
0.00524546
-0.085378
-0.0854265
0.00103846
-0.0847948
-0.000771881
0.00126134
-0.084793
0.00146201
-0.0848042
0.0016459
-0.0848214
0.00182065
-0.0848453
0.00199416
-0.0848757
0.00217214
-0.0849117
0.00235672
-0.0849514
0.00254662
-0.0849933
0.00273825
-0.0850361
0.00292676
-0.0850791
0.00310748
-0.0851222
0.00327635
-0.0851655
0.00343
-0.085209
0.00356562
-0.0852528
0.00368087
-0.0852967
0.00377391
-0.0853408
0.00384359
-0.0853841
0.00389009
-0.0854245
-0.0854555
0.000722889
-0.0850339
-0.000483761
0.000987657
-0.0850578
0.00125897
-0.0850755
0.00153078
-0.0850932
0.00179551
-0.08511
0.00204527
-0.0851255
0.00227368
-0.0851401
0.00247705
-0.0851548
0.00265441
-0.0851707
0.0028068
-0.0851885
0.00293647
-0.0852088
0.0030459
-0.0852317
0.0031374
-0.085257
0.00321289
-0.0852845
0.00327401
-0.0853139
0.00332217
-0.0853449
0.0033586
-0.0853772
0.00338467
-0.0854102
0.00340249
-0.0854424
-0.0854676
0.000647739
-0.0852025
-0.000479128
0.000789275
-0.0851993
0.000917263
-0.0852035
0.00103444
-0.0852104
0.00114467
-0.0852202
0.00125223
-0.085233
0.00136059
-0.0852485
0.00147152
-0.0852657
0.00158495
-0.0852841
0.00169939
-0.085303
0.00181249
-0.0853219
0.00192155
-0.0853407
0.00202407
-0.0853595
0.0021178
-0.0853782
0.00220083
-0.0853969
0.00227151
-0.0854156
0.00232851
-0.0854342
0.00237091
-0.0854526
0.00239862
-0.0854701
-0.0854841
0.000407447
-0.0853384
-0.000271555
0.000559721
-0.0853516
0.000716517
-0.0853603
0.000874559
-0.0853684
0.00102978
-0.0853755
0.00117777
-0.085381
0.00131466
-0.0853854
0.00143787
-0.0853889
0.00154626
-0.0853925
0.00163993
-0.0853966
0.00171978
-0.0854017
0.00178709
-0.085408
0.00184318
-0.0854156
0.00188924
-0.0854243
0.00192635
-0.085434
0.00195539
-0.0854446
0.00197717
-0.085456
0.00199242
-0.0854678
0.00200222
-0.0854799
-0.0854899
0.00034334
-0.0854255
-0.000256277
0.00041297
-0.0854212
0.000474819
-0.0854221
0.000530473
-0.0854241
0.000582007
-0.085427
0.000631811
-0.0854308
0.000681989
-0.0854355
0.000733838
-0.0854408
0.000787675
-0.0854463
0.000842962
-0.0854519
0.000898587
-0.0854574
0.000953126
-0.0854626
0.00100511
-0.0854676
0.00105317
-0.0854723
0.0010961
-0.0854769
0.00113285
-0.0854814
0.00116255
-0.0854857
0.00118453
-0.0854898
0.00119847
-0.0854938
-0.0854974
0.000148891
-0.0854792
-9.51803e-05
0.000214831
-0.0854871
0.000285014
-0.0854923
0.000357335
-0.0854964
0.000429443
-0.0854991
0.000498776
-0.0855002
0.000563016
-0.0854998
0.000620503
-0.0854983
0.00067039
-0.0854962
0.000712567
-0.0854941
0.000747456
-0.0854922
0.000775788
-0.0854909
0.000798409
-0.0854902
0.000816146
-0.0854901
0.000829751
-0.0854905
0.000839882
-0.0854915
0.000847091
-0.0854929
0.000851836
-0.0854946
0.00085458
-0.0854965
-0.0854985
7.51983e-05
-5.43824e-05
8.80556e-05
9.57298e-05
9.93181e-05
0.000100224
0.000100049
0.000100276
0.000101991
0.000105764
0.000111673
0.000119427
0.000128512
0.000138319
0.000148233
0.000157688
0.000166188
0.000173318
0.000178745
0.000182203
-0.0709435
-0.00984524
0.0807887
-0.0613761
-0.00956742
-0.0519963
-0.00937982
-0.0427531
-0.00924321
-0.0336129
-0.00914019
-0.0245499
-0.00906301
-0.0155416
-0.00900828
-0.00656693
-0.00897465
0.00239477
-0.0089617
0.0113642
-0.00896943
0.0203622
-0.00899796
0.0294096
-0.00904743
0.0385276
-0.00911798
0.0477373
-0.00920971
0.0570602
-0.00932289
0.0665185
-0.0094583
0.0761367
-0.00961827
0.085946
-0.00980923
0.0959939
-0.0100479
-0.0103938
-0.0122664
-0.0112279
0.0136491
-0.010663
-0.0111708
-0.00892989
-0.0111129
-0.00711552
-0.0110576
-0.00524812
-0.0110076
-0.00334598
-0.0109651
-0.00142231
-0.010932
0.000512285
-0.0109092
0.00244846
-0.0108979
0.00437752
-0.0108985
0.00629103
-0.0109115
0.00818062
-0.010937
0.0100379
-0.0109752
0.0118541
-0.0110259
0.0136199
-0.0110887
0.0153245
-0.0111629
0.0169533
-0.0112471
0.0184834
-0.0113393
0.0198726
-0.0114371
-0.0115138
-0.00764122
-0.0125271
0.00894043
-0.00630763
-0.0125044
-0.00493447
-0.0124861
-0.0035202
-0.0124719
-0.00206642
-0.0124614
-0.000577403
-0.0124542
0.000940501
-0.0124499
0.00247933
-0.0124481
0.00402995
-0.0124485
0.00558237
-0.0124509
0.00712604
-0.0124551
0.00865007
-0.0124611
0.0101435
-0.0124687
0.0115956
-0.012478
0.0129962
-0.0124894
0.0143363
-0.012503
0.0156086
-0.0125193
0.0168084
-0.0125392
0.0179346
-0.0125633
-0.0126052
-0.00377758
-0.0130908
0.00434127
-0.00319454
-0.0130875
-0.00259629
-0.0130843
-0.00198657
-0.0130816
-0.00136847
-0.0130795
-0.000744445
-0.0130782
-0.000116306
-0.013078
0.000514678
-0.0130791
0.0011477
-0.0130815
0.00178233
-0.0130855
0.00241834
-0.0130911
0.00305568
-0.0130984
0.00369424
-0.0131072
0.0043338
-0.0131176
0.00497377
-0.0131293
0.00561309
-0.0131423
0.00624995
-0.0131562
0.00688158
-0.0131708
0.00750416
-0.0131859
-0.0131945
-0.00160356
-0.0135641
0.00207681
-0.00113353
-0.0135575
-0.000666047
-0.0135518
-0.000200619
-0.013547
0.000262999
-0.0135431
0.000724791
-0.01354
0.00118449
-0.0135377
0.00164158
-0.0135362
0.00209539
-0.0135353
0.00254505
-0.0135352
0.00298966
-0.0135358
0.00342825
-0.013537
0.00385993
-0.0135389
0.00428393
-0.0135416
0.00469965
-0.0135451
0.00510675
-0.0135494
0.00550518
-0.0135546
0.00589527
-0.0135609
0.00627765
-0.0135682
-0.0135812
-0.00209526
-0.0138795
0.00241068
-0.0017726
-0.0138801
-0.00144344
-0.0138809
-0.00110855
-0.0138819
-0.000768615
-0.013883
-0.000424285
-0.0138843
-7.61365e-05
-0.0138858
0.000275313
-0.0138876
0.000629599
-0.0138896
0.000986297
-0.0138919
0.001345
-0.0138945
0.00170532
-0.0138973
0.0020668
-0.0139004
0.00242898
-0.0139038
0.00279131
-0.0139074
0.00315314
-0.0139112
0.00351373
-0.0139152
0.0038722
-0.0139194
0.0042276
-0.0139236
-0.0139255
-0.000628254
-0.0141144
0.000863193
-0.000397016
-0.0141114
-0.000169282
-0.0141087
5.51387e-05
-0.0141063
0.000276424
-0.0141043
0.000494732
-0.0141026
0.000710202
-0.0141013
0.000922952
-0.0141003
0.00113308
-0.0140997
0.00134069
-0.0140995
0.00154587
-0.0140996
0.0017487
-0.0141001
0.0019493
-0.014101
0.0021478
-0.0141023
0.00234437
-0.014104
0.00253922
-0.0141061
0.00273258
-0.0141086
0.00292478
-0.0141116
0.00311614
-0.014115
-0.0141208
-0.00135995
-0.0143157
0.00156125
-0.00115491
-0.0143164
-0.000946409
-0.0143172
-0.000734702
-0.014318
-0.000520072
-0.0143189
-0.000302803
-0.0143199
-8.31801e-05
-0.0143209
0.000138508
-0.014322
0.000361969
-0.0143232
0.00058691
-0.0143244
0.000813029
-0.0143257
0.00104002
-0.0143271
0.00126755
-0.0143285
0.00149531
-0.01433
0.00172292
-0.0143316
0.00195003
-0.0143332
0.00217624
-0.0143348
0.00240114
-0.0143365
0.0026243
-0.0143382
-0.0143387
-0.000375312
-0.0144536
0.000513199
-0.000239748
-0.014452
-0.000106415
-0.0144505
2.47873e-05
-0.0144492
0.000153967
-0.0144481
0.000281238
-0.0144472
0.00040672
-0.0144464
0.000530535
-0.0144459
0.000652813
-0.0144455
0.000773685
-0.0144453
0.000893289
-0.0144454
0.00101177
-0.0144456
0.00112927
-0.0144461
0.00124596
-0.0144467
0.00136199
-0.0144476
0.00147755
-0.0144487
0.00159281
-0.0144501
0.00170797
-0.0144516
0.00182323
-0.0144534
-0.0144563
-0.000918181
-0.014587
0.00105158
-0.000782717
-0.0145874
-0.000645309
-0.0145879
-0.000506091
-0.0145884
-0.000365206
-0.014589
-0.000222806
-0.0145896
-7.90472e-05
-0.0145902
6.5903e-05
-0.0145908
0.000211873
-0.0145915
0.000358686
-0.0145921
0.000506157
-0.0145928
0.000654098
-0.0145935
0.000802314
-0.0145943
0.000950604
-0.014595
0.00109876
-0.0145958
0.00124659
-0.0145965
0.00139386
-0.0145973
0.00154035
-0.0145981
0.00168585
-0.0145989
-0.0145991
-0.000258609
-0.0146738
0.000345392
-0.000173196
-0.0146729
-8.91021e-05
-0.014672
-6.27006e-06
-0.0146713
7.53647e-05
-0.0146706
0.000155873
-0.0146701
0.000235331
-0.0146696
0.000313822
-0.0146693
0.00039143
-0.0146691
0.000468247
-0.0146689
0.000544369
-0.0146689
0.000619892
-0.0146691
0.000694921
-0.0146693
0.000769559
-0.0146696
0.000843913
-0.0146701
0.000918094
-0.0146707
0.000992212
-0.0146714
0.00106638
-0.0146723
0.00114072
-0.0146733
-0.0146748
-0.000623887
-0.0147632
0.000713338
-0.000533248
-0.0147635
-0.000441491
-0.0147638
-0.000348688
-0.0147641
-0.000254922
-0.0147644
-0.000160278
-0.0147647
-6.48483e-05
-0.0147651
3.12711e-05
-0.0147654
0.000127979
-0.0147658
0.000225171
-0.0147661
0.000322739
-0.0147665
0.000420571
-0.0147669
0.000518554
-0.0147673
0.00061657
-0.0147677
0.000714503
-0.0147681
0.000812232
-0.0147685
0.000909639
-0.0147688
0.0010066
-0.0147692
0.00110299
-0.0147697
-0.0147697
-0.000181483
-0.0148192
0.000237433
-0.000126339
-0.0148186
-7.19705e-05
-0.0148181
-1.83441e-05
-0.0148177
3.45789e-05
-0.0148173
8.68412e-05
-0.014817
0.00013849
-0.0148167
0.000189574
-0.0148165
0.000240148
-0.0148163
0.000290267
-0.0148163
0.00033999
-0.0148162
0.000389377
-0.0148163
0.000438491
-0.0148164
0.000487396
-0.0148166
0.000536156
-0.0148168
0.000584836
-0.0148171
0.000633502
-0.0148175
0.000682221
-0.014818
0.000731056
-0.0148185
-0.0148193
-0.000414214
-0.0148778
0.000472853
-0.000354876
-0.014878
-0.000294878
-0.0148781
-0.000234263
-0.0148783
-0.000173081
-0.0148785
-0.000111382
-0.0148787
-4.92203e-05
-0.0148789
1.33467e-05
-0.0148791
7.62594e-05
-0.0148793
0.000139456
-0.0148795
0.000202871
-0.0148797
0.000266441
-0.0148799
0.000330097
-0.01488
0.000393772
-0.0148802
0.000457396
-0.0148804
0.000520902
-0.0148806
0.000584219
-0.0148808
0.000647277
-0.014881
0.000710008
-0.0148812
-0.0148812
-0.000115386
-0.0149125
0.000150061
-8.11925e-05
-0.0149122
-4.74613e-05
-0.0149119
-1.41719e-05
-0.0149116
1.86992e-05
-0.0149114
5.11781e-05
-0.0149112
8.32933e-05
-0.014911
0.000115075
-0.0149108
0.000146556
-0.0149107
0.00017777
-0.0149107
0.000208753
-0.0149106
0.000239541
-0.0149106
0.000270171
-0.0149107
0.000300682
-0.0149108
0.000331113
-0.0149109
0.000361502
-0.014911
0.000391887
-0.0149112
0.000422308
-0.0149114
0.000452802
-0.0149117
-0.0149122
-0.000263872
-0.0149493
0.000300715
-0.00022661
-0.0149494
-0.000188955
-0.0149495
-0.000150932
-0.0149496
-0.000112571
-0.0149497
-7.39021e-05
-0.0149498
-3.49577e-05
-0.0149499
4.22814e-06
-0.01495
4.36197e-05
-0.0149501
8.318e-05
-0.0149502
0.000122871
-0.0149503
0.000162654
-0.0149504
0.00020249
-0.0149505
0.000242337
-0.0149506
0.000282156
-0.0149507
0.000321907
-0.0149508
0.000361547
-0.0149509
0.000401037
-0.0149509
0.000440337
-0.014951
-0.014951
-5.89733e-05
-0.0149686
7.82289e-05
-4.00089e-05
-0.0149684
-2.1324e-05
-0.0149682
-2.90504e-06
-0.014968
1.52629e-05
-0.0149679
3.31965e-05
-0.0149678
5.09135e-05
-0.0149676
6.84331e-05
-0.0149676
8.57757e-05
-0.0149675
0.000102963
-0.0149674
0.000120016
-0.0149674
0.000136958
-0.0149674
0.000153812
-0.0149674
0.000170603
-0.0149674
0.000187354
-0.0149674
0.000204088
-0.0149675
0.000220831
-0.0149676
0.000237605
-0.0149677
0.000254435
-0.0149678
-0.0149681
-0.000147574
-0.0149884
0.000167389
-0.000127507
-0.0149885
-0.000107201
-0.0149885
-8.66725e-05
-0.0149886
-6.59368e-05
-0.0149886
-4.50114e-05
-0.0149887
-2.39147e-05
-0.0149887
-2.66587e-06
-0.0149888
1.87149e-05
-0.0149889
4.02071e-05
-0.0149889
6.17893e-05
-0.014989
8.34398e-05
-0.014989
0.000105137
-0.0149891
0.000126858
-0.0149891
0.00014858
-0.0149892
0.000170283
-0.0149892
0.000191944
-0.0149893
0.000213539
-0.0149893
0.00023505
-0.0149894
-0.0149893
-4.80387e-06
-0.0149949
1.12662e-05
1.46975e-06
-0.0149947
7.56299e-06
-0.0149946
1.34848e-05
-0.0149945
1.92452e-05
-0.0149944
2.48552e-05
-0.0149943
3.03263e-05
-0.0149942
3.56711e-05
-0.0149941
4.09025e-05
-0.0149941
4.60342e-05
-0.014994
5.10803e-05
-0.014994
5.60551e-05
-0.014994
6.09732e-05
-0.014994
6.58496e-05
-0.014994
7.06988e-05
-0.014994
7.55356e-05
-0.014994
8.03744e-05
-0.0149941
8.52296e-05
-0.0149942
9.01145e-05
-0.0149942
-0.0149944
-5.56665e-05
6.07899e-05
-5.04083e-05
-4.50246e-05
-3.95248e-05
-3.39192e-05
-2.82186e-05
-2.24346e-05
-1.65793e-05
-1.06651e-05
-4.70515e-06
1.2874e-06
7.299e-06
1.33159e-05
1.93244e-05
2.53107e-05
3.12612e-05
3.71624e-05
4.30012e-05
4.87649e-05
-0.0718662
-0.01236
0.0144954
0.0697308
-0.0741083
-0.0123335
0.0145756
-0.0764742
-0.0122979
0.0146638
-0.0789428
-0.0122662
0.0147347
-0.0814858
-0.0122378
0.0147809
-0.084067
-0.0122122
0.0147934
-0.0866416
-0.0121878
0.0147623
-0.0891551
-0.0121629
0.0146764
-0.091544
-0.0121347
0.0145235
-0.0937345
-0.0121
0.0142905
-0.0956431
-0.0120547
0.0139633
-0.0971765
-0.011994
0.0135274
-0.0982314
-0.0119124
0.0129673
-0.0986943
-0.0118036
0.0122665
-0.0984408
-0.0116607
0.0114073
-0.0973336
-0.0114768
0.0103696
-0.0952181
-0.011245
0.00912952
-0.0919155
-0.010959
0.00765639
-0.08721
-0.0106136
0.00590807
-0.0102054
0.00378415
-0.0146775
-0.0126697
0.0149873
-0.0144269
-0.0125842
-0.0142313
-0.0124935
-0.0140981
-0.0123994
-0.014033
-0.0123029
-0.0140395
-0.0122057
-0.0141183
-0.012109
-0.0142665
-0.0120146
-0.0144771
-0.011924
-0.0147385
-0.0118386
-0.0150338
-0.0117593
-0.0153407
-0.0116871
-0.015631
-0.0116221
-0.0158706
-0.011564
-0.0160193
-0.011512
-0.0160316
-0.0114645
-0.0158568
-0.0114198
-0.0154402
-0.0113756
-0.0147241
-0.0113297
-0.0112805
-0.0286045
-0.0131504
0.0290852
-0.0280569
-0.0131318
-0.0274375
-0.0131129
-0.0267444
-0.0130925
-0.0259771
-0.0130702
-0.0251367
-0.0130461
-0.0242258
-0.0130199
-0.0232488
-0.0129916
-0.0222119
-0.012961
-0.0211223
-0.0129281
-0.0199886
-0.0128931
-0.0188196
-0.0128561
-0.0176242
-0.0128175
-0.0164105
-0.0127777
-0.0151852
-0.0127373
-0.0139526
-0.0126971
-0.0127147
-0.0126577
-0.0114701
-0.0126203
-0.0102142
-0.0125855
-0.0125543
-0.00982098
-0.0133155
0.00998608
-0.00966045
-0.0132923
-0.00950526
-0.0132681
-0.00935228
-0.0132454
-0.00919807
-0.0132244
-0.00903891
-0.0132053
-0.00887083
-0.013188
-0.00868971
-0.0131727
-0.00849137
-0.0131593
-0.00827168
-0.0131478
-0.00802675
-0.013138
-0.00775301
-0.0131298
-0.00744748
-0.013123
-0.00710782
-0.0131174
-0.00673257
-0.0131126
-0.00632122
-0.0131084
-0.00587431
-0.0131047
-0.00539345
-0.0131011
-0.00488126
-0.0130977
-0.0130942
-0.0117168
-0.0137726
0.0121739
-0.0112468
-0.0137623
-0.0107615
-0.0137533
-0.010263
-0.0137439
-0.00975339
-0.0137341
-0.00923482
-0.0137238
-0.00870965
-0.0137132
-0.00818021
-0.0137021
-0.00764875
-0.0136908
-0.00711741
-0.0136791
-0.00658811
-0.0136673
-0.00606251
-0.0136555
-0.00554194
-0.0136436
-0.00502741
-0.0136319
-0.0045195
-0.0136205
-0.00401848
-0.0136094
-0.00352422
-0.0135989
-0.00303631
-0.013589
-0.00255411
-0.0135799
-0.0135715
-0.00663973
-0.0139296
0.00679671
-0.00647897
-0.0139231
-0.00631634
-0.013916
-0.00615075
-0.0139095
-0.00598113
-0.0139037
-0.00580636
-0.0138986
-0.00562538
-0.0138942
-0.00543716
-0.0138904
-0.00524075
-0.0138872
-0.00503533
-0.0138846
-0.00482017
-0.0138825
-0.00459474
-0.0138809
-0.00435863
-0.0138797
-0.00411164
-0.0138789
-0.00385373
-0.0138784
-0.00358504
-0.0138781
-0.00330587
-0.0138781
-0.00301669
-0.0138782
-0.00271806
-0.0138785
-0.0138789
-0.00599155
-0.0142095
0.0062715
-0.00571075
-0.0142039
-0.00542759
-0.0141991
-0.00514281
-0.0141943
-0.00485716
-0.0141894
-0.00457142
-0.0141844
-0.00428631
-0.0141793
-0.00400254
-0.0141741
-0.00372076
-0.014169
-0.00344157
-0.0141638
-0.00316548
-0.0141586
-0.00289292
-0.0141534
-0.00262423
-0.0141484
-0.00235968
-0.0141434
-0.00209942
-0.0141386
-0.00184355
-0.014134
-0.00159208
-0.0141296
-0.00134494
-0.0141254
-0.00110203
-0.0141214
-0.0141178
-0.00456232
-0.0143321
0.00468491
-0.00443652
-0.0143297
-0.00430878
-0.0143269
-0.0041787
-0.0143244
-0.00404594
-0.0143221
-0.00391011
-0.0143202
-0.00377088
-0.0143185
-0.00362793
-0.0143171
-0.00348097
-0.0143159
-0.00332973
-0.014315
-0.00317403
-0.0143143
-0.0030137
-0.0143138
-0.00284862
-0.0143135
-0.00267874
-0.0143133
-0.00250404
-0.0143133
-0.00232457
-0.0143135
-0.00214041
-0.0143137
-0.00195169
-0.0143141
-0.00175857
-0.0143145
-0.0143151
-0.00355202
-0.0145047
0.00372462
-0.00338026
-0.0145014
-0.00320843
-0.0144987
-0.00303684
-0.014496
-0.00286579
-0.0144932
-0.00269557
-0.0144904
-0.00252645
-0.0144876
-0.0023587
-0.0144848
-0.00219256
-0.0144821
-0.00202824
-0.0144793
-0.00186594
-0.0144766
-0.00170582
-0.0144739
-0.00154801
-0.0144713
-0.00139262
-0.0144687
-0.00123971
-0.0144662
-0.00108934
-0.0144638
-0.000941519
-0.0144615
-0.000796245
-0.0144594
-0.000653488
-0.0144573
-0.0144554
-0.00314114
-0.0145941
0.0032305
-0.00304964
-0.014593
-0.00295672
-0.0145916
-0.00286225
-0.0145904
-0.00276606
-0.0145894
-0.00266801
-0.0145885
-0.00256797
-0.0145877
-0.00246581
-0.014587
-0.00236142
-0.0145865
-0.00225471
-0.014586
-0.00214559
-0.0145857
-0.002034
-0.0145855
-0.00191991
-0.0145854
-0.0018033
-0.0145853
-0.00168414
-0.0145854
-0.00156247
-0.0145855
-0.00143832
-0.0145857
-0.00131174
-0.0145859
-0.0011828
-0.0145862
-0.0145866
-0.00224502
-0.0147031
0.00235405
-0.00213682
-0.0147012
-0.0020289
-0.0146995
-0.00192141
-0.0146979
-0.00181449
-0.0146963
-0.00170827
-0.0146947
-0.00160286
-0.0146931
-0.00149839
-0.0146915
-0.00139497
-0.0146899
-0.00129269
-0.0146883
-0.00119164
-0.0146868
-0.00109188
-0.0146852
-0.000993492
-0.0146838
-0.000896512
-0.0146823
-0.000800979
-0.0146809
-0.000706914
-0.0146796
-0.00061433
-0.0146783
-0.000523225
-0.014677
-0.000433587
-0.0146759
-0.0146748
-0.00215596
-0.0147665
0.00221934
-0.00209118
-0.0147659
-0.00202546
-0.0147653
-0.0019587
-0.0147647
-0.00189086
-0.0147641
-0.00182186
-0.0147637
-0.00175164
-0.0147633
-0.00168014
-0.014763
-0.00160733
-0.0147627
-0.00153315
-0.0147625
-0.00145757
-0.0147623
-0.00138057
-0.0147622
-0.00130213
-0.0147622
-0.00122225
-0.0147622
-0.00114093
-0.0147622
-0.00105817
-0.0147623
-0.000973999
-0.0147624
-0.000888444
-0.0147626
-0.000801542
-0.0147628
-0.014763
-0.00145045
-0.0148362
0.00152017
-0.00138132
-0.0148351
-0.00131246
-0.0148341
-0.00124395
-0.0148332
-0.00117585
-0.0148322
-0.00110823
-0.0148313
-0.00104116
-0.0148304
-0.000974677
-0.0148294
-0.000908852
-0.0148285
-0.000843729
-0.0148276
-0.00077935
-0.0148267
-0.000715753
-0.0148258
-0.000652967
-0.014825
-0.000591018
-0.0148241
-0.000529922
-0.0148233
-0.000469692
-0.0148226
-0.000410332
-0.0148218
-0.000351842
-0.0148211
-0.000294213
-0.0148204
-0.0148198
-0.00143297
-0.0148789
0.00147566
-0.00138937
-0.0148787
-0.00134513
-0.0148784
-0.00130022
-0.0148781
-0.00125461
-0.0148778
-0.00120827
-0.0148776
-0.00116116
-0.0148775
-0.00111325
-0.0148773
-0.00106454
-0.0148772
-0.00101499
-0.0148772
-0.000964597
-0.0148771
-0.000913348
-0.0148771
-0.000861237
-0.0148771
-0.000808263
-0.0148771
-0.00075443
-0.0148772
-0.000699747
-0.0148772
-0.000644227
-0.0148773
-0.000587889
-0.0148774
-0.000530755
-0.0148775
-0.0148777
-0.000900272
-0.0149222
0.000943563
-0.00085739
-0.0149215
-0.00081472
-0.014921
-0.000772299
-0.0149205
-0.000730164
-0.01492
-0.00068835
-0.0149195
-0.00064689
-0.0149189
-0.000605815
-0.0149184
-0.000565154
-0.0149179
-0.000524931
-0.0149174
-0.00048517
-0.0149169
-0.000445888
-0.0149164
-0.000407102
-0.0149159
-0.000368823
-0.0149154
-0.000331062
-0.0149149
-0.000293822
-0.0149145
-0.000257105
-0.014914
-0.00022091
-0.0149136
-0.000185232
-0.0149132
-0.0149129
-0.000907239
-0.0149492
0.000934251
-0.000879642
-0.0149491
-0.00085163
-0.014949
-0.000823184
-0.014949
-0.000794288
-0.0149489
-0.000764926
-0.0149488
-0.000735084
-0.0149488
-0.000704748
-0.0149487
-0.000673908
-0.0149487
-0.000642556
-0.0149487
-0.000610685
-0.0149487
-0.000578291
-0.0149488
-0.000545374
-0.0149488
-0.000511934
-0.0149488
-0.000477974
-0.0149489
-0.000443503
-0.0149489
-0.000408528
-0.014949
-0.000373061
-0.0149491
-0.000337118
-0.0149492
-0.0149493
-0.000501132
-0.014974
0.000525914
-0.000476636
-0.0149736
-0.000452299
-0.0149734
-0.000428144
-0.0149731
-0.000404189
-0.0149728
-0.000380455
-0.0149726
-0.000356957
-0.0149723
-0.000333714
-0.014972
-0.00031074
-0.0149717
-0.000288049
-0.0149714
-0.00026565
-0.0149711
-0.000243556
-0.0149709
-0.000221772
-0.0149706
-0.000200305
-0.0149703
-0.000179159
-0.01497
-0.000158335
-0.0149698
-0.000137834
-0.0149695
-0.000117652
-0.0149693
-9.77857e-05
-0.014969
-0.0149688
-0.000488031
-0.0149879
0.000501972
-0.000473732
-0.0149879
-0.000459187
-0.0149879
-0.000444383
-0.0149879
-0.000429312
-0.0149879
-0.000413962
-0.0149879
-0.000398326
-0.0149879
-0.000382396
-0.0149879
-0.000366166
-0.0149879
-0.00034963
-0.014988
-0.000332786
-0.014988
-0.00031563
-0.014988
-0.000298161
-0.014988
-0.000280382
-0.0149881
-0.000262293
-0.0149881
-0.000243898
-0.0149882
-0.000225203
-0.0149882
-0.000206214
-0.0149883
-0.000186939
-0.0149883
-0.0149884
-0.000172394
-0.0149982
0.000182684
-0.000162312
-0.014998
-0.00015236
-0.0149979
-0.000142551
-0.0149977
-0.000132895
-0.0149976
-0.000123402
-0.0149974
-0.000114083
-0.0149972
-0.000104947
-0.0149971
-9.60003e-05
-0.0149969
-8.72506e-05
-0.0149967
-7.87035e-05
-0.0149965
-7.03634e-05
-0.0149964
-6.2234e-05
-0.0149962
-5.43174e-05
-0.014996
-4.66148e-05
-0.0149958
-3.91261e-05
-0.0149957
-3.185e-05
-0.0149955
-2.47839e-05
-0.0149953
-1.79244e-05
-0.0149952
-0.014995
-0.000126803
0.000128604
-0.000124823
-0.000122696
-0.000120415
-0.000117976
-0.000115373
-0.000112602
-0.00010966
-0.000106544
-0.000103251
-9.9781e-05
-9.61333e-05
-9.23083e-05
-8.83074e-05
-8.41328e-05
-7.97874e-05
-7.52752e-05
-7.06009e-05
-6.57702e-05
-0.0139788
-0.00359533
0.0175741
-0.0111001
-0.00287867
-0.00876453
-0.00233558
-0.00685793
-0.0019066
-0.00529932
-0.00155861
-0.00402779
-0.00127153
-0.00299591
-0.00103189
-0.00216578
-0.000830128
-0.00150648
-0.000659296
-0.000992279
-0.000514203
-0.000601366
-0.000390914
-0.00031493
-0.000286436
-0.000116407
-0.000198523
9.16918e-06
-0.000125576
7.57904e-05
-6.66213e-05
9.72911e-05
-2.15006e-05
8.64178e-05
1.08733e-05
5.53711e-05
3.10466e-05
2.03422e-05
3.5029e-05
2.03421e-05
-0.0125522
-0.00483298
0.0137898
-0.0111965
-0.00423433
-0.00983135
-0.00370076
-0.00851511
-0.00322284
-0.0072802
-0.00279353
-0.00614429
-0.00240743
-0.00511604
-0.00206014
-0.00419823
-0.00174794
-0.00338983
-0.00146769
-0.00268726
-0.00121678
-0.00208518
-0.000992987
-0.00157712
-0.000794496
-0.00115584
-0.000619802
-0.000813699
-0.000467721
-0.000542943
-0.000337377
-0.000336252
-0.000228192
-0.000185511
-0.000139867
-8.20614e-05
-7.24028e-05
-2.09576e-05
-2.60748e-05
-6.15424e-07
-0.0100693
-0.00566093
0.0108973
-0.00917126
-0.0051324
-0.00824386
-0.00462817
-0.00731697
-0.00414973
-0.00641304
-0.00369746
-0.00554877
-0.0032717
-0.00473627
-0.00287264
-0.0039839
-0.00250031
-0.00329704
-0.00215456
-0.00267865
-0.00183517
-0.0021298
-0.00154183
-0.00165008
-0.00127422
-0.0012379
-0.00103198
-0.000890848
-0.000814773
-0.00060594
-0.000622284
-0.000379897
-0.000454235
-0.000209366
-0.000310398
-9.11701e-05
-0.000190599
-2.25316e-05
-9.47133e-05
-2.3147e-05
-0.008256
-0.00637993
0.00897499
-0.00752406
-0.00586433
-0.00679095
-0.00536128
-0.00606762
-0.00487305
-0.00536354
-0.00440155
-0.00468678
-0.00394846
-0.00404414
-0.00351528
-0.00344118
-0.00310327
-0.00288224
-0.0027135
-0.00237057
-0.00234684
-0.00190841
-0.00200399
-0.00149711
-0.00168551
-0.00113725
-0.00139184
-0.000828739
-0.00112328
-0.000570963
-0.000880061
-0.000362893
-0.000662305
-0.000203209
-0.000470083
-9.04082e-05
-0.0003034
-2.29102e-05
-0.000162211
-4.60572e-05
-0.00753128
-0.0070692
0.00822056
-0.00684473
-0.00655089
-0.00616768
-0.00603833
-0.00550654
-0.00553419
-0.00486721
-0.00504087
-0.00425504
-0.00456064
-0.0036747
-0.00409562
-0.00313021
-0.00364776
-0.00262488
-0.00321883
-0.00216134
-0.00281038
-0.00174154
-0.00242379
-0.00136683
-0.00206022
-0.001038
-0.00172067
-0.000755339
-0.00140594
-0.000518717
-0.00111668
-0.00032764
-0.000853381
-0.000181336
-0.000616387
-7.88156e-05
-0.00040592
-1.89518e-05
-0.000222075
-6.5009e-05
-0.00721824