/*--------------------------------*- C++ -*----------------------------------*\
| =========                 |                                                 |
| \\      /  F ield         | OpenFOAM: The Open Source CFD Toolbox           |
|  \\    /   O peration     | Version:  v1806                                 |
|   \\  /    A nd           | Web:      www.OpenFOAM.com                      |
|    \\/     M anipulation  |                                                 |
\*---------------------------------------------------------------------------*/
FoamFile
{
    version     2.0;
    format      ascii;
    class       surfaceScalarField;
    location    "4";
    object      phi;
}
// * * * * * * * * * * * * * * * * * * * * * * * * * * * * * * * * * * * * * //

dimensions      [0 3 -1 0 0 0 0];
oriented        oriented;


internalField   nonuniform List<scalar> 
8600
(
0.895685
-0.662417
-0.872334
0.639065
0.801553
-0.66004
0.754173
0.660143
-0.651152
0.792561
0.576717
-0.657041
0.740468
0.512563
-0.688404
0.752557
0.489628
-0.699085
0.722021
0.465013
-0.715368
0.739982
0.443156
-0.723838
0.745695
0.436751
-0.717266
0.723671
0.4393
-0.735131
0.732582
0.441
-0.728803
0.727103
0.443262
-0.735543
0.733282
0.4586
-0.730488
0.71515
0.477966
-0.740667
0.721301
0.502121
-0.735704
0.711549
0.523141
-0.750945
0.729925
0.542791
-0.740276
0.720626
0.566868
-0.757881
0.733803
0.59617
-0.750777
0.721475
-0.77351
0.739951
0.193854
-0.581887
-0.274383
0.147063
-0.61325
0.161465
-0.665554
0.205717
-0.701293
0.234676
-0.717363
0.266573
-0.730982
0.28033
-0.729125
0.293683
-0.73719
0.318056
-0.741639
0.333456
-0.750531
0.34979
-0.745138
0.364317
-0.75007
0.388413
-0.754584
0.406254
-0.758508
0.427294
-0.756745
0.440446
-0.764098
0.459769
-0.759599
0.481735
-0.779846
0.505822
-0.774864
-0.795489
0.395737
-0.643453
-0.334171
0.452365
-0.669877
0.469783
-0.682972
0.455778
-0.687288
0.428692
-0.690277
0.406837
-0.709127
0.389728
-0.712017
0.382016
-0.729478
0.379205
-0.738829
0.370201
-0.741527
0.373587
-0.748524
0.378844
-0.755326
0.38753
-0.763271
0.393065
-0.764043
0.406009
-0.769689
0.417369
-0.775457
0.438972
-0.781203
0.454648
-0.795522
0.470943
-0.791159
-0.810227
0.118876
-0.657885
-0.104444
0.115817
-0.666818
0.107658
-0.674813
0.122177
-0.701807
0.155534
-0.723634
0.189048
-0.742642
0.225426
-0.748394
0.252787
-0.756839
0.275175
-0.761216
0.296209
-0.762561
0.322079
-0.774395
0.341514
-0.774761
0.358038
-0.779795
0.375782
-0.781786
0.396288
-0.790195
0.415583
-0.794753
0.436149
-0.801769
0.448075
-0.807448
0.465742
-0.808825
-0.825568
0.229073
-0.699462
-0.187496
0.275009
-0.712753
0.32436
-0.724164
0.357134
-0.734581
0.365798
-0.732298
0.361738
-0.738581
0.360422
-0.747078
0.355158
-0.751575
0.355312
-0.76137
0.362147
-0.769396
0.366723
-0.778971
0.371974
-0.780012
0.38022
-0.788041
0.394453
-0.796019
0.406653
-0.802394
0.419123
-0.807223
0.430623
-0.813269
0.442519
-0.819343
0.460426
-0.826733
-0.840383
0.0860712
-0.721499
-0.0640351
0.0980566
-0.724739
0.102888
-0.728996
0.104294
-0.735987
0.122372
-0.750376
0.149612
-0.765821
0.178883
-0.776349
0.208481
-0.781173
0.237029
-0.789919
0.261034
-0.7934
0.276911
-0.794848
0.296694
-0.799795
0.314488
-0.805834
0.32972
-0.811251
0.339804
-0.812478
0.350687
-0.818106
0.361811
-0.824393
0.374398
-0.83193
0.384801
-0.837136
-0.848384
0.141997
-0.749312
-0.114183
0.17023
-0.752972
0.204539
-0.763304
0.235683
-0.767132
0.25804
-0.772732
0.265753
-0.773534
0.265592
-0.776189
0.265113
-0.780694
0.261819
-0.786624
0.258642
-0.790223
0.259173
-0.79538
0.263168
-0.80379
0.263716
-0.806382
0.263307
-0.810843
0.2658
-0.81497
0.270104
-0.82241
0.273468
-0.827758
0.274242
-0.832704
0.273277
-0.836172
-0.848801
0.0469732
-0.761601
-0.0346835
0.0596328
-0.765632
0.0620127
-0.765684
0.0637736
-0.768892
0.0658101
-0.774768
0.0733902
-0.781115
0.0878308
-0.79063
0.1054
-0.798263
0.120223
-0.801447
0.136972
-0.806972
0.152913
-0.811321
0.163047
-0.813923
0.172132
-0.815468
0.181225
-0.819936
0.190567
-0.824312
0.195336
-0.827179
0.19699
-0.829411
0.197155
-0.832869
0.198799
-0.837816
-0.846831
0.0925077
-0.781527
-0.0725818
0.11036
-0.783484
0.132935
-0.788259
0.158418
-0.794375
0.179308
-0.795659
0.198849
-0.800655
0.207308
-0.799089
0.209737
-0.800693
0.212397
-0.804107
0.213093
-0.807669
0.210645
-0.808873
0.208511
-0.811789
0.211188
-0.818145
0.212905
-0.821653
0.213294
-0.824701
0.213455
-0.827341
0.215996
-0.831952
0.219761
-0.836634
0.22265
-0.840705
-0.844877
0.0447208
-0.794419
-0.0318295
0.0580168
-0.79678
0.0673825
-0.797625
0.0712933
-0.798286
0.0765101
-0.800876
0.081334
-0.805479
0.0917219
-0.809476
0.107632
-0.816603
0.124628
-0.821103
0.140593
-0.823634
0.158172
-0.826451
0.176981
-0.830598
0.191653
-0.832818
0.20269
-0.83269
0.214017
-0.836027
0.2267
-0.840024
0.237654
-0.842906
0.245696
-0.844676
0.252366
-0.847375
-0.849494
0.0718331
-0.811573
-0.0546788
0.0871988
-0.812146
0.104846
-0.815273
0.124235
-0.817674
0.144975
-0.821616
0.161336
-0.82184
0.175376
-0.823517
0.183205
-0.824432
0.187228
-0.825125
0.190507
-0.826913
0.195017
-0.830961
0.197235
-0.832816
0.198365
-0.833947
0.203507
-0.837832
0.209278
-0.841798
0.213319
-0.844065
0.215849
-0.845436
0.219949
-0.848776
0.225164
-0.85259
-0.855671
0.0273643
-0.818935
-0.0200019
0.0360799
-0.820861
0.0421735
-0.821366
0.0469838
-0.822485
0.0486393
-0.823272
0.0518825
-0.825083
0.0574844
-0.829118
0.0629221
-0.829869
0.0717219
-0.833925
0.0817954
-0.836987
0.0891415
-0.838307
0.0952213
-0.838896
0.103858
-0.842584
0.111882
-0.845855
0.115445
-0.845362
0.117987
-0.846607
0.122808
-0.850258
0.127067
-0.853034
0.128816
-0.854339
-0.857307
0.0390495
-0.828418
-0.0295669
0.0466278
-0.828439
0.0545714
-0.82931
0.0631407
-0.831054
0.0721146
-0.832246
0.0814937
-0.834463
0.086094
-0.833719
0.0920431
-0.835819
0.0948397
-0.836722
0.0944769
-0.836624
0.0938265
-0.837657
0.0947697
-0.839839
0.0939508
-0.841765
0.0891093
-0.841014
0.086123
-0.842375
0.0862321
-0.846716
0.0851735
-0.849199
0.0805942
-0.848455
0.076233
-0.849978
-0.853735
0.0213591
-0.834187
-0.0155904
0.0283499
-0.83543
0.0354036
-0.836364
0.0409419
-0.836592
0.0458155
-0.837119
0.0489226
-0.83757
0.0535714
-0.838367
0.058212
-0.840459
0.061741
-0.840251
0.0677578
-0.842641
0.0741882
-0.844087
0.0794823
-0.845134
0.0825725
-0.844855
0.087001
-0.845442
0.0927841
-0.848159
0.0949602
-0.848892
0.0936035
-0.847842
0.0936455
-0.848497
0.0947145
-0.851047
-0.852017
0.0331289
-0.842793
-0.0245222
0.0401289
-0.84243
0.0464087
-0.842643
0.0531679
-0.843351
0.060727
-0.844678
0.0681609
-0.845004
0.0763492
-0.846556
0.0820258
-0.846136
0.0887693
-0.846994
0.0941904
-0.848062
0.0976443
-0.847541
0.100879
-0.848368
0.105414
-0.849391
0.110681
-0.850709
0.113238
-0.850716
0.11454
-0.850194
0.11765
-0.850952
0.121889
-0.852737
0.124105
-0.853263
-0.853229
0.0159203
-0.847217
-0.0114961
0.0215485
-0.848058
0.0274321
-0.848527
0.0328872
-0.848806
0.0367666
-0.848558
0.0407242
-0.848961
0.043234
-0.849066
0.046306
-0.849208
0.0504228
-0.851111
0.0524141
-0.850053
0.056238
-0.851365
0.0604699
-0.8526
0.0635876
-0.852509
0.0658283
-0.85295
0.0691952
-0.854082
0.0741941
-0.855193
0.078082
-0.85484
0.0802352
-0.85489
0.0828136
-0.855841
-0.856536
0.0128348
-0.850267
-0.00978536
0.0146844
-0.849908
0.0160891
-0.849932
0.0177117
-0.850429
0.0201915
-0.851037
0.0229526
-0.851722
0.0255986
-0.851712
0.0291646
-0.852774
0.0299275
-0.851874
0.032113
-0.852239
0.0345368
-0.853789
0.0340732
-0.852136
0.0334472
-0.851883
0.0342028
-0.853706
0.0346516
-0.854531
0.0327407
-0.853282
0.0312638
-0.853363
0.0318795
-0.855506
0.0324204
-0.856382
-0.855993
0.00798142
-0.852431
-0.00581692
0.0108644
-0.852791
0.0139783
-0.853046
0.0165054
-0.852956
0.018361
-0.852893
0.0193197
-0.852681
0.0204778
-0.85287
0.0205807
-0.852877
0.0213068
-0.8526
0.0231294
-0.854061
0.022379
-0.853038
0.0229867
-0.852744
0.0256446
-0.854541
0.0266538
-0.854715
0.0247717
-0.852649
0.0238665
-0.852377
0.0255994
-0.855096
0.0257098
-0.855616
0.0231425
-0.853814
-0.853479
0.00698769
-0.854207
-0.00521217
0.00814448
-0.853948
0.00905104
-0.853952
0.0103741
-0.854279
0.0121869
-0.854706
0.014461
-0.854955
0.0168485
-0.855257
0.0189146
-0.854943
0.0216488
-0.855334
0.0226155
-0.855028
0.0238137
-0.854237
0.0263069
-0.855237
0.027114
-0.855348
0.0265074
-0.854108
0.0277718
-0.853914
0.0307458
-0.855351
0.0311899
-0.85554
0.0295888
-0.854015
0.029546
-0.853772
-0.854467
0.00209132
-0.00129821
0.0031435
0.0041912
0.00491197
0.0052062
0.00525116
0.00499395
0.00505126
0.00471697
0.00468908
0.00545256
0.00521546
0.00486768
0.00575946
0.00684587
0.00649516
0.00595534
0.00694045
0.00816872
-0.330442
-0.0652022
0.395644
-0.26658
-0.0638622
-0.205194
-0.0613855
-0.145487
-0.0597074
-0.0871432
-0.0583435
-0.0297711
-0.0573721
0.0270201
-0.0567912
0.0836044
-0.0565843
0.140325
-0.0567208
0.197504
-0.0571783
0.255455
-0.0579517
0.314495
-0.0590395
0.374985
-0.0604901
0.437204
-0.062219
0.501749
-0.0645451
0.568606
-0.0668574
0.639138
-0.0705313
0.712315
-0.073177
0.79143
-0.0791157
-0.0809039
-0.0717301
-0.0824758
0.0890036
-0.0543699
-0.0812223
-0.0355296
-0.0802258
-0.0158369
-0.0794
0.00458259
-0.078763
0.0255157
-0.0783052
0.0467453
-0.0780208
0.0680672
-0.0779062
0.0893067
-0.0779603
0.110312
-0.0781841
0.130942
-0.0785816
0.151063
-0.0791602
0.1705
-0.0799275
0.189187
-0.0809057
0.206729
-0.082087
0.223425
-0.0835529
0.238093
-0.0852
0.252246
-0.0873297
0.262578
-0.0894481
-0.0927089
-0.0494716
-0.0989722
0.0659681
-0.0318016
-0.0988923
-0.0131939
-0.0988335
0.00621408
-0.098808
0.0262804
-0.0988293
0.0468857
-0.0989106
0.067926
-0.099061
0.0893072
-0.0992875
0.110942
-0.0995952
0.132745
-0.0999873
0.15463
-0.100466
0.176502
-0.101033
0.198262
-0.101687
0.219782
-0.102426
0.240945
-0.103251
0.26154
-0.104148
0.281468
-0.105128
0.300311
-0.106173
0.318102
-0.107239
-0.108778
-0.0236813
-0.107624
0.0323328
-0.0151704
-0.107403
-0.00678585
-0.107218
0.00148585
-0.10708
0.0096486
-0.106992
0.0176946
-0.106957
0.0256071
-0.106973
0.0333629
-0.107043
0.0409345
-0.107167
0.048292
-0.107345
0.0554045
-0.107579
0.0622413
-0.107869
0.0687729
-0.108218
0.0749743
-0.108627
0.0808202
-0.109097
0.0863032
-0.109631
0.0914055
-0.11023
0.0961394
-0.110907
0.100595
-0.111694
-0.112628
-0.0129293
-0.117394
0.0226994
-0.00288987
-0.117443
0.00740534
-0.117513
0.0179269
-0.117601
0.0286403
-0.117706
0.0395106
-0.117827
0.0505035
-0.117966
0.0615851
-0.118125
0.0727216
-0.118303
0.0838785
-0.118502
0.0950198
-0.11872
0.106108
-0.118957
0.117102
-0.119213
0.127959
-0.119485
0.138634
-0.119772
0.149076
-0.120072
0.159233
-0.120387
0.169046
-0.12072
0.178448
-0.121096
-0.121675
-0.0217998
-0.122918
0.0273236
-0.0163846
-0.122858
-0.0110858
-0.122812
-0.00590266
-0.122784
-0.000831015
-0.122777
0.00413329
-0.122791
0.00899365
-0.122827
0.0137525
-0.122884
0.0184118
-0.122963
0.0229731
-0.123063
0.0274385
-0.123185
0.0318107
-0.123329
0.0360935
-0.123495
0.0402926
-0.123684
0.0444154
-0.123895
0.0484722
-0.124129
0.0524751
-0.124389
0.0564367
-0.124682
0.0603612
-0.125021
-0.125349
-0.00453908
-0.128971
0.0105925
0.00161518
-0.129012
0.00786595
-0.129063
0.0142027
-0.129121
0.0206114
-0.129186
0.0270766
-0.129256
0.0335826
-0.129333
0.0401131
-0.129414
0.046652
-0.129502
0.053183
-0.129594
0.0596894
-0.129692
0.0661538
-0.129794
0.0725584
-0.1299
0.0788847
-0.13001
0.0851132
-0.130123
0.0912237
-0.13024
0.0971953
-0.130361
0.103006
-0.130493
0.10863
-0.130644
-0.130903
-0.0145351
-0.132036
0.0176001
-0.0115339
-0.132013
-0.00859974
-0.131997
-0.00573207
-0.131989
-0.00292805
-0.13199
-0.000183682
-0.132001
0.00250546
-0.132022
0.00514398
-0.132053
0.00773658
-0.132094
0.0102881
-0.132146
0.0128036
-0.132207
0.0152887
-0.132279
0.0177492
-0.132361
0.0201919
-0.132453
0.022624
-0.132555
0.0250532
-0.132669
0.0274865
-0.132794
0.0299285
-0.132935
0.032381
-0.133097
-0.133205
-0.00151592
-0.135871
0.00535058
0.00236704
-0.135896
0.00629621
-0.135926
0.0102666
-0.135959
0.0142716
-0.135995
0.0183031
-0.136032
0.0223528
-0.136071
0.026412
-0.136112
0.0304717
-0.136154
0.0345231
-0.136197
0.0385571
-0.136241
0.0425644
-0.136286
0.0465355
-0.136332
0.0504609
-0.136378
0.0543306
-0.136425
0.0581344
-0.136473
0.0618622
-0.136522
0.0655021
-0.136575
0.0690334
-0.136628
-0.136754
-0.0154601
-0.138564
0.0181535
-0.0128039
-0.138552
-0.0101858
-0.138544
-0.00760468
-0.13854
-0.00505804
-0.138541
-0.00254245
-0.138548
-5.40006e-05
-0.13856
0.00241152
-0.138578
0.00485848
-0.138601
0.00729135
-0.13863
0.00971474
-0.138664
0.0121334
-0.138705
0.0145523
-0.138751
0.0169765
-0.138802
0.0194113
-0.13886
0.0218617
-0.138923
0.024333
-0.138993
0.0268309
-0.139072
0.0293687
-0.139166
-0.139214
-0.00429017
-0.141646
0.00737189
-0.00118106
-0.141662
0.00195407
-0.141679
0.00511238
-0.141699
0.00828998
-0.141719
0.0114823
-0.14174
0.0146842
-0.141762
0.0178905
-0.141784
0.0210957
-0.141806
0.0242943
-0.141828
0.0274807
-0.141851
0.0306492
-0.141873
0.0337941
-0.141896
0.0369095
-0.141918
0.0399894
-0.14194
0.0430275
-0.141961
0.0460168
-0.141983
0.0489476
-0.142003
0.051802
-0.14202
-0.142091
-0.0106789
-0.143375
0.0124074
-0.00897393
-0.143367
-0.00729253
-0.143361
-0.00563383
-0.143357
-0.00399609
-0.143357
-0.00237704
-0.143359
-0.000773995
-0.143365
0.000815943
-0.143374
0.00239583
-0.143386
0.00396884
-0.143401
0.0055382
-0.14342
0.00710725
-0.143442
0.00867937
-0.143468
0.010258
-0.143496
0.0118466
-0.143528
0.0134488
-0.143564
0.0150687
-0.143603
0.0167118
-0.143646
0.0183889
-0.143697
-0.143704
0.000311709
-0.144909
0.00122322
0.001864
-0.144919
0.00343243
-0.144929
0.00501501
-0.14494
0.00660914
-0.144951
0.0082118
-0.144962
0.00981962
-0.144973
0.0114291
-0.144983
0.0130365
-0.144993
0.0146382
-0.145003
0.0162304
-0.145012
0.0178094
-0.145021
0.0193714
-0.14503
0.0209126
-0.145038
0.0224294
-0.145045
0.0239179
-0.145052
0.0253735
-0.145058
0.0267904
-0.145063
0.0281581
-0.145065
-0.145113
-0.00867017
-0.146239
0.00999944
-0.00735538
-0.146234
-0.0060549
-0.14623
-0.0047679
-0.146227
-0.00349311
-0.146226
-0.00222886
-0.146226
-0.000973204
-0.146228
0.000275974
-0.146232
0.00152093
-0.146238
0.00276399
-0.146246
0.00400757
-0.146256
0.0052541
-0.146268
0.00650602
-0.146282
0.00776584
-0.146297
0.00903607
-0.146315
0.0103195
-0.146335
0.0116195
-0.146358
0.0129408
-0.146384
0.0142911
-0.146415
-0.146412
-0.00211767
-0.147644
0.00352287
-0.000702456
-0.147649
0.000722154
-0.147654
0.00215508
-0.14766
0.00359487
-0.147666
0.00503976
-0.147671
0.00648775
-0.147676
0.00793669
-0.147681
0.00938431
-0.147686
0.0108283
-0.14769
0.0122661
-0.147694
0.0136954
-0.147697
0.0151136
-0.1477
0.0165182
-0.147702
0.0179063
-0.147703
0.0192747
-0.147704
0.0206196
-0.147703
0.0219355
-0.1477
0.0232146
-0.147695
-0.14772
-0.00664513
-0.14862
0.00762086
-0.00567709
-0.148617
-0.00471669
-0.148615
-0.00376352
-0.148613
-0.00281688
-0.148612
-0.0018758
-0.148612
-0.000939163
-0.148613
-5.67873e-06
-0.148615
0.000926024
-0.148618
0.00185739
-0.148622
0.00278992
-0.148626
0.00372515
-0.148632
0.00466467
-0.148639
0.00561012
-0.148647
0.00656335
-0.148657
0.00752656
-0.148667
0.00850268
-0.148679
0.00949569
-0.148693
0.0105115
-0.14871
-0.148704
0.000986997
-0.149105
-0.000502118
0.00147597
-0.149106
0.00196869
-0.149107
0.00246454
-0.149109
0.00296268
-0.14911
0.00346207
-0.149112
0.00396151
-0.149112
0.00445971
-0.149113
0.00495526
-0.149113
0.00544671
-0.149113
0.00593255
-0.149112
0.00641126
-0.149111
0.00688122
-0.149109
0.00734075
-0.149107
0.00778799
-0.149104
0.00822073
-0.1491
0.00863615
-0.149095
0.00903065
-0.149088
0.00939923
-0.149079
-0.149091
-0.00350013
-0.14958
0.00397557
-0.00302675
-0.149579
-0.00255539
-0.149579
-0.00208582
-0.149578
-0.00161763
-0.149578
-0.00115025
-0.149579
-0.000683015
-0.14958
-0.000215128
-0.149581
0.000254272
-0.149583
0.000726114
-0.149585
0.00120139
-0.149588
0.00168113
-0.149591
0.00216647
-0.149595
0.0026586
-0.149599
0.00315894
-0.149604
0.00366918
-0.14961
0.00419149
-0.149617
0.00472862
-0.149625
0.00528421
-0.149635
-0.149623
0.000258286
-0.149867
2.89493e-05
0.000545926
-0.149867
0.000833875
-0.149867
0.0011219
-0.149866
0.00140963
-0.149866
0.00169659
-0.149866
0.00198218
-0.149865
0.00226577
-0.149865
0.00254664
-0.149863
0.00282404
-0.149862
0.00309716
-0.149861
0.00336517
-0.149859
0.00362719
-0.149857
0.00388222
-0.149854
0.00412912
-0.149851
0.00436645
-0.149847
0.00459236
-0.149843
0.00480456
-0.149837
0.00500009
-0.14983
-0.149835
-0.00144013
0.00157292
-0.00130704
-0.00117373
-0.00104022
-0.000906447
-0.000772284
-0.00063756
-0.000502062
-0.000365552
-0.000227767
-8.84318e-05
5.2751e-05
0.000196106
0.000342013
0.000490952
0.00064357
0.000800745
0.000963609
0.00113358
-0.450737
-0.0933985
0.0907869
0.453348
-0.449573
-0.0919237
0.0907606
-0.449175
-0.0904834
0.0900844
-0.449758
-0.0891365
0.0897202
-0.451326
-0.0878424
0.0894105
-0.453922
-0.0866307
0.0892261
-0.457503
-0.0855112
0.089092
-0.461978
-0.0844941
0.0889697
-0.467182
-0.0835852
0.0887895
-0.472871
-0.0827833
0.0884721
-0.47871
-0.082079
0.0879176
-0.484259
-0.0814516
0.0870005
-0.488953
-0.0808663
0.0855605
-0.492074
-0.0802697
0.0833905
-0.492704
-0.0795827
0.0802136
-0.489652
-0.0786897
0.0756374
-0.481314
-0.0774202
0.0690819
-0.465456
-0.0755108
0.0596528
-0.43882
-0.0725542
0.0459183
-0.0681738
0.0249977
-0.28413
-0.103126
0.293857
-0.273763
-0.10229
-0.26288
-0.101366
-0.251643
-0.100374
-0.24017
-0.0993153
-0.228614
-0.098186
-0.217137
-0.0969882
-0.205894
-0.0957372
-0.195029
-0.0944508
-0.184663
-0.0931491
-0.174885
-0.091857
-0.165734
-0.0906022
-0.157187
-0.0894136
-0.149139
-0.0883177
-0.141389
-0.0873331
-0.133615
-0.0864637
-0.125345
-0.0856901
-0.115891
-0.0849645
-0.104227
-0.0842185
-0.0833972
-0.273749
-0.107728
0.278351
-0.26882
-0.107219
-0.263438
-0.106748
-0.257513
-0.1063
-0.250956
-0.105871
-0.243681
-0.105462
-0.235605
-0.105064
-0.226673
-0.104669
-0.216851
-0.104273
-0.206133
-0.103867
-0.194544
-0.103446
-0.182144
-0.103002
-0.169027
-0.102531
-0.155315
-0.102029
-0.141148
-0.1015
-0.126659
-0.100953
-0.111938
-0.100411
-0.0969959
-0.0999064
-0.0817349
-0.0994795
-0.099164
-0.165102
-0.114482
0.171856
-0.158372
-0.113949
-0.151703
-0.113417
-0.145114
-0.112889
-0.138616
-0.112369
-0.132214
-0.111864
-0.125899
-0.111379
-0.119647
-0.110921
-0.113424
-0.110496
-0.107183
-0.110108
-0.100869
-0.10976
-0.0944177
-0.109453
-0.0877607
-0.109188
-0.0808306
-0.108959
-0.0735691
-0.108761
-0.065938
-0.108584
-0.0579326
-0.108417
-0.0495945
-0.108245
-0.0410171
-0.108057
-0.107848
-0.183636
-0.120611
0.189765
-0.177183
-0.120402
-0.170398
-0.120203
-0.163278
-0.120009
-0.155828
-0.119819
-0.148061
-0.11963
-0.139999
-0.119442
-0.131667
-0.119253
-0.123102
-0.119061
-0.114342
-0.118867
-0.105432
-0.11867
-0.0964161
-0.11847
-0.087334
-0.11827
-0.0782191
-0.118074
-0.0690922
-0.117888
-0.0599571
-0.11772
-0.0507969
-0.117577
-0.0415729
-0.117469
-0.0322285
-0.117401
-0.117377
-0.124473
-0.125523
0.129384
-0.1196
-0.125274
-0.114776
-0.125028
-0.109991
-0.124794
-0.105235
-0.124575
-0.100492
-0.124372
-0.0957477
-0.124187
-0.0909811
-0.124019
-0.0861718
-0.123871
-0.0812984
-0.123741
-0.0763402
-0.123628
-0.071279
-0.123531
-0.0661013
-0.123448
-0.0608002
-0.123375
-0.0553784
-0.12331
-0.0498496
-0.123248
-0.0442396
-0.123187
-0.0385855
-0.123123
-0.0329316
-0.123055
-0.122985
-0.117441
-0.130351
0.12227
-0.112477
-0.130238
-0.107361
-0.130144
-0.102105
-0.13005
-0.0967232
-0.129957
-0.0912325
-0.129863
-0.0856509
-0.129768
-0.0799973
-0.129673
-0.0742909
-0.129577
-0.0685498
-0.129482
-0.0627905
-0.129387
-0.0570262
-0.129295
-0.0512659
-0.129208
-0.0455131
-0.129128
-0.0397649
-0.129058
-0.0340121
-0.129001
-0.0282391
-0.12896
-0.0224257
-0.128936
-0.0165501
-0.128931
-0.128943
-0.0739043
-0.133124
0.0766767
-0.0711128
-0.13303
-0.0683394
-0.132917
-0.0655772
-0.132812
-0.0628172
-0.132717
-0.0600494
-0.132631
-0.0572638
-0.132554
-0.0544502
-0.132487
-0.0515994
-0.132428
-0.0487033
-0.132378
-0.0457558
-0.132335
-0.0427538
-0.132297
-0.0396971
-0.132265
-0.0365899
-0.132235
-0.0334406
-0.132208
-0.0302617
-0.13218
-0.0270696
-0.132152
-0.0238828
-0.132123
-0.0207205
-0.132093
-0.132063
-0.0750571
-0.13657
0.0785034
-0.0715861
-0.136501
-0.0680528
-0.13645
-0.0644661
-0.136399
-0.0608357
-0.136347
-0.0571715
-0.136295
-0.0534835
-0.136242
-0.0497812
-0.136189
-0.0460731
-0.136136
-0.0423665
-0.136084
-0.0386666
-0.136034
-0.0349766
-0.135987
-0.0312969
-0.135944
-0.0276252
-0.135907
-0.0239565
-0.135876
-0.0202831
-0.135853
-0.0165957
-0.135839
-0.012884
-0.135834
-0.00913829
-0.135839
-0.135851
-0.0689455
-0.139102
0.0714771
-0.0663917
-0.139054
-0.063845
-0.138997
-0.0612981
-0.138946
-0.0587447
-0.138901
-0.0561791
-0.13886
-0.0535959
-0.138825
-0.0509905
-0.138794
-0.048359
-0.138768
-0.0456988
-0.138745
-0.0430088
-0.138724
-0.0402896
-0.138707
-0.0375438
-0.13869
-0.034776
-0.138675
-0.0319928
-0.138659
-0.0292024
-0.138644
-0.0264139
-0.138628
-0.0236371
-0.138611
-0.0208811
-0.138595
-0.138579
-0.0643669
-0.142065
0.0673302
-0.061408
-0.142013
-0.058425
-0.14198
-0.0554248
-0.141946
-0.052413
-0.141912
-0.0493949
-0.141878
-0.0463754
-0.141845
-0.0433584
-0.141811
-0.0403472
-0.141779
-0.0373441
-0.141748
-0.0343499
-0.141719
-0.0313644
-0.141692
-0.0283858
-0.141669
-0.0254112
-0.141649
-0.0224362
-0.141634
-0.0194557
-0.141624
-0.0164641
-0.141619
-0.013456
-0.141619
-0.0104265
-0.141624
-0.141633
-0.0453756
-0.143655
0.0469659
-0.0437423
-0.143647
-0.0421027
-0.14362
-0.0404541
-0.143595
-0.0387941
-0.143572
-0.0371201
-0.143552
-0.0354301
-0.143535
-0.0337224
-0.143519
-0.0319963
-0.143505
-0.0302516
-0.143492
-0.0284893
-0.143481
-0.0267112
-0.14347
-0.0249203
-0.14346
-0.0231203
-0.143449
-0.0213159
-0.143439
-0.0195123
-0.143428
-0.0177147
-0.143417
-0.0159285
-0.143406
-0.0141581
-0.143395
-0.143384
-0.0290311
-0.145137
0.0305132
-0.0275811
-0.145097
-0.0261243
-0.145076
-0.0246629
-0.145056
-0.0231988
-0.145036
-0.0217343
-0.145017
-0.0202712
-0.144998
-0.0188108
-0.144979
-0.0173541
-0.144962
-0.0159012
-0.144945
-0.0144518
-0.14493
-0.0130047
-0.144917
-0.0115582
-0.144906
-0.0101098
-0.144898
-0.00865687
-0.144892
-0.00719633
-0.144889
-0.00572516
-0.144888
-0.00424062
-0.14489
-0.00274047
-0.144895
-0.144901
-0.0353542
-0.146336
0.0365525
-0.0341108
-0.14634
-0.0328565
-0.146331
-0.0315899
-0.146323
-0.03031
-0.146316
-0.0290161
-0.146311
-0.0277077
-0.146306
-0.0263848
-0.146302
-0.0250479
-0.146299
-0.0236979
-0.146295
-0.0223364
-0.146292
-0.0209654
-0.146288
-0.0195874
-0.146284
-0.0182052
-0.14628
-0.0168221
-0.146275
-0.0154412
-0.146269
-0.0140658
-0.146263
-0.0126988
-0.146257
-0.0113427
-0.146251
-0.146245
-0.0299105
-0.147805
0.0313801
-0.0284726
-0.147778
-0.0270397
-0.147764
-0.0256132
-0.147749
-0.0241945
-0.147735
-0.0227842
-0.147721
-0.0213829
-0.147708
-0.0199905
-0.147695
-0.0186066
-0.147682
-0.0172305
-0.147671
-0.0158609
-0.147661
-0.0144965
-0.147653
-0.0131353
-0.147646
-0.0117752
-0.14764
-0.0104142
-0.147636
-0.00904989
-0.147634
-0.00768026
-0.147633
-0.00630344
-0.147634
-0.00491798
-0.147636
-0.14764
-0.02582
-0.148634
0.0266484
-0.0249562
-0.148642
-0.024079
-0.148641
-0.0231878
-0.148641
-0.0222825
-0.14864
-0.021363
-0.148641
-0.0204297
-0.148641
-0.019483
-0.148641
-0.0185238
-0.148642
-0.0175533
-0.148642
-0.0165728
-0.148642
-0.0155842
-0.148641
-0.0145893
-0.14864
-0.0135901
-0.148639
-0.0125889
-0.148637
-0.0115878
-0.148635
-0.0105887
-0.148632
-0.00959363
-0.148629
-0.00860395
-0.148626
-0.148623
-0.00891101
-0.149207
0.00948439
-0.00836267
-0.14919
-0.00782105
-0.149183
-0.00728666
-0.149175
-0.00675987
-0.149167
-0.00624097
-0.149159
-0.00573009
-0.149152
-0.00522711
-0.149144
-0.00473169
-0.149137
-0.00424322
-0.14913
-0.00376089
-0.149124
-0.00328364
-0.149119
-0.00281028
-0.149114
-0.00233948
-0.14911
-0.00186989
-0.149107
-0.00140017
-0.149105
-0.00092906
-0.149103
-0.000455494
-0.149103
2.1374e-05
-0.149103
-0.149103
-0.0124518
-0.14956
0.0128053
-0.0120711
-0.149571
-0.0116822
-0.149571
-0.0112846
-0.149573
-0.0108781
-0.149574
-0.0104625
-0.149575
-0.0100378
-0.149576
-0.00960418
-0.149578
-0.00916195
-0.149579
-0.00871166
-0.149581
-0.00825405
-0.149582
-0.00779001
-0.149583
-0.00732056
-0.149583
-0.00684683
-0.149584
-0.00636997
-0.149584
-0.00589113
-0.149583
-0.00541138
-0.149583
-0.00493171
-0.149582
-0.0044529
-0.149582
-0.149581
-0.0060519
-0.149951
0.00644246
-0.00568269
-0.14994
-0.00531934
-0.149935
-0.0049624
-0.149929
-0.0046122
-0.149924
-0.00426903
-0.149918
-0.00393301
-0.149912
-0.00360412
-0.149907
-0.00328216
-0.149901
-0.00296678
-0.149896
-0.0026575
-0.149891
-0.00235369
-0.149886
-0.00205463
-0.149882
-0.00175953
-0.149879
-0.00146757
-0.149876
-0.00117794
-0.149873
-0.000889881
-0.149871
-0.000602706
-0.14987
-0.000315865
-0.149868
-0.149868
-0.00354618
0.00359518
-0.00348611
-0.00342092
-0.00335037
-0.00327427
-0.00319249
-0.00310499
-0.00301181
-0.0029131
-0.00280909
-0.0027001
-0.00258652
-0.00246882
-0.00234751
-0.00222312
-0.00209619
-0.00196726
-0.0018368
-0.00170524
-0.064057
-0.015207
0.079264
-0.0463534
-0.0177036
-0.0368143
-0.00953903
-0.0272024
-0.00961196
-0.0202686
-0.00693377
-0.014236
-0.0060326
-0.00945543
-0.00478058
-0.00565593
-0.0037995
-0.00276616
-0.00288977
-0.000687181
-0.00207898
0.000694954
-0.00138213
0.00149309
-0.000798139
0.00183116
-0.000338063
0.00183592
-4.75978e-06
0.00161421
0.000221709
0.00125844
0.000355772
0.000841796
0.00041664
0.000432396
0.000409399
0.000115111
0.000317285
0.000115112
-0.0874173
-0.0319953
0.104206
-0.0717477
-0.0333732
-0.0586488
-0.0226379
-0.0463848
-0.0218759
-0.0362428
-0.0170758
-0.027154
-0.0151214
-0.0194703
-0.0124643
-0.0130008
-0.010269
-0.00775273
-0.00813789
-0.00367488
-0.00615682
-0.000698163
-0.00435885
0.00129529
-0.00279159
0.00243342
-0.00147619
0.00287518
-0.000446523
0.00279248
0.000304413
0.00234192
0.00080633
0.00167694
0.00108162
0.000947193
0.00113915
0.000317701
0.000946777
0.000432813
-0.0889429
-0.0463945
0.103342
-0.0775827
-0.0447335
-0.0649415
-0.035279
-0.0539344
-0.0328831
-0.0434886
-0.0275217
-0.0340987
-0.0245112
-0.0257305
-0.0208325
-0.0184112
-0.0175883
-0.0122109
-0.0143381
-0.00714978
-0.011218
-0.00322527
-0.00828336
-0.000393536
-0.00562332
0.00145208
-0.00332181
0.00243115
-0.00142559
0.00271161
2.39544e-05
0.0024569
0.00106104
0.00185476
0.00168376
0.00109409
0.00189982
0.000385918
0.00165495
0.000818732
-0.0891489
-0.0574741
0.100228
-0.0797382
-0.0541442
-0.0686947
-0.0463225
-0.0588899
-0.0426879
-0.0489336
-0.0374779
-0.0398028
-0.033642
-0.0312858
-0.0293495
-0.0236001
-0.025274
-0.0168443
-0.0210939
-0.0111105
-0.0169518
-0.00646103
-0.0129328
-0.00290709
-0.00917726
-0.000406464
-0.00582244
0.00114575
-0.0029778
0.00187726
-0.000707557
0.0019688
0.000969505
0.00160282
0.00204974
0.00098727
0.00251537
0.000355998
0.00228622
0.00117473
-0.0887838
-0.0658
0.0971097
-0.0809662
-0.0619618
-0.0717855
-0.0555032
-0.0630305
-0.0514429
-0.0539582
-0.0465503
-0.0452599
-0.0423402
-0.0368549
-0.0377546
-0.028997
-0.0331318
-0.0218309
-0.0282601
-0.0155186
-0.023264
-0.010193
-0.0182584
-0.00593428
-0.013436
-0.0027554
-0.00900131
-0.00059906
-0.00513414
0.00065246
-0.00195908
0.00116329
0.000458677
0.00112338
0.00208965
0.000747901
0.00289085
0.000278387
0.00275573
0.00145312
-0.0875821
-0.0719342
0.0937164
-0.0812461
-0.0682978
-0.0738351
-0.0629142
-0.0662673
-0.0590108
-0.058276
-0.0545415
-0.0502508
-0.0503654
-0.042227
-0.0457784
-0.0344243
-0.0409346
-0.0270234
-0.035661
-0.0202386
-0.0300488
-0.0142752
-0.0242218
-0.00929796
-0.0184132
-0.00539916
-0.0129001
-0.00258016
-0.00795314
-0.000755477
-0.00378376
0.000226644
-0.000523445
0.000559163
0.00175713
0.000465881
0.00298413
0.000189524
0.00303209
0.00164264
-0.085746
-0.0764772
0.0902889
-0.0807321
-0.0733117
-0.0748218
-0.0688245
-0.0684879
-0.0653446
-0.0616444
-0.0613851
-0.0544947
-0.0575151
-0.0470957
-0.0531774
-0.0396091
-0.0484212
-0.0322089
-0.0430612
-0.0251254
-0.0371323
-0.0186169
-0.0307303
-0.0129343
-0.0240958
-0.00827132
-0.0175631
-0.00472027
-0.0115042
-0.00225547
-0.00624856
-0.000750118
-0.00202879
-8.87323e-06
0.00101588
0.000193433
0.00278183
0.000110236
0.00311529
0.00175288
-0.083557
-0.0798792
0.086959
-0.0796278
-0.0772409
-0.0749445
-0.0735077
-0.069757
-0.0705321
-0.0640256
-0.0671165
-0.0578471
-0.0636936
-0.0512459
-0.0597786
-0.0443138
-0.0553533
-0.0371753
-0.0501997
-0.0300304
-0.0442773
-0.0231465
-0.0376142
-0.016835
-0.0304073
-0.0113951
-0.023003
-0.00704142
-0.0158579
-0.00384997
-0.00944001
-0.00175064
-0.00412812
-0.000564546
-0.000170213
-5.1674e-05
0.00226895
4.80372e-05
0.00301558
0.00180092
-0.0812021
-0.0824426
0.0837655
-0.0781306
-0.0803123
-0.0744278
-0.0772105
-0.0702316
-0.0747284
-0.0655066
-0.0718415
-0.0602905
-0.0689097
-0.0545665
-0.0655025
-0.0483589
-0.0615609
-0.0417202
-0.0568384
-0.0347805
-0.051217
-0.0277627
-0.044632
-0.0209857
-0.0371842
-0.0148241
-0.0291646
-0.00962522
-0.0210568
-0.00561166
-0.0134536
-0.00282161
-0.00691817
-0.00112229
-0.00186954
-0.000275475
0.00142214
1.56756e-06
0.00273853
0.00180248
-0.0787935
-0.0843983
0.0807492
-0.0763936
-0.0827122
-0.0734667
-0.0801374
-0.0700936
-0.0781015
-0.0662365
-0.0756987
-0.0619022
-0.073244
-0.0570464
-0.0703583
-0.0516429
-0.0669643
-0.0456754
-0.0628059
-0.039187
-0.0577054
-0.0323137
-0.0515053
-0.0253178
-0.0441801
-0.0185855
-0.0358969
-0.0125663
-0.0270761
-0.0076526
-0.0183672
-0.00405343
-0.0105173
-0.0017413
-0.00418167
-0.000505058
0.000185897
-3.68256e-05
0.0022703
0.00176566
-0.0763988
-0.0858969
0.0778973
-0.0745214
-0.0845896
-0.0722087
-0.0824501
-0.0695071
-0.0808032
-0.0663772
-0.0788285
-0.0628115
-0.0768097
-0.058754
-0.0744157
-0.0541509
-0.0715675
-0.0489378
-0.068019
-0.0430807
-0.0635625
-0.0366132
-0.0579728
-0.0296922
-0.0511012
-0.0226377
-0.0429514
-0.0159254
-0.0337884
-0.010092
-0.0242006
-0.00556378
-0.0150456
-0.0025018
-0.00724364
-0.000777451
-0.00153845
-7.71886e-05
0.00157004
0.00168847
-0.0740545
-0.0870583
0.0752159
-0.0725857
-0.0860584
-0.0707586
-0.0842772
-0.0686021