x,y,z,p
0,0,0,1.95686e-05
0,0.1,0,3.88109e-05
0,0.2,0,5.80531e-05
0,0.3,0,8.1028e-05
0,0.4,0,0.000107736
0,0.5,0,0.000134443
0,0.6,0,0.000160953
0,0.7,0,0.000187463
0,0.8,0,0.000213817
0,0.9,0,0.000240014
0,1,0,0.000266211
0,1.1,0,0.000291976
0,1.2,0,0.000317741
0,1.3,0,0.000343244
0,1.4,0,0.000368487
0,1.5,0,0.000393729
0,1.6,0,0.000418355
0,1.7,0,0.000442982
0,1.8,0,0.000467253
0,1.9,0,0.000491169
0,2,0,0.000515085
0,2.1,0,0.000538199
0,2.2,0,0.000561313
0,2.3,0,0.000583984
0,2.4,0,0.00060621
0,2.5,0,0.000628436
0,2.6,0,0.000649691
0,2.7,0,0.000670946
0,2.8,0,0.000691675
0,2.9,0,0.000711879
0,3,0,0.000732082
0,3.1,0,0.00075116
0,3.2,0,0.000770237
0,3.3,0,0.000788716
0,3.4,0,0.000806597
0,3.5,0,0.000824477
0,3.6,0,0.000841094
0,3.7,0,0.000857711
0,3.8,0,0.000873667
0,3.9,0,0.00088896
0,4,0,0.000904253
0,4.1,0,0.000918166
0,4.2,0,0.000932079
0,4.3,0,0.000945277
0,4.4,0,0.000957759
0,4.5,0,0.000970241
0,4.6,0,0.000981249
0,4.7,0,0.000992258
0,4.8,0,0.00100166
0,4.9,0,0.00100946
0,5,0,0.00101726
0,5.1,0,0.00102997
0,5.2,0,0.00103774
0,5.3,0,0.00104488
0,5.4,0,0.00105137
0,5.5,0,0.00105722
0,5.6,0,0.00106242
0,5.7,0,0.00106697
0,5.8,0,0.00107086
0,5.9,0,0.0010741
0,6,0,0.00107668
0,6.1,0,0.0010786
0,6.2,0,0.00107987
0,6.3,0,0.00108047
0,6.4,0,0.0010804
0,6.5,0,0.00107968
0,6.6,0,0.0010783
0,6.7,0,0.00107625
0,6.8,0,0.00107355
0,6.9,0,0.00107019
0,7,0,0.00106364
0,7.1,0,0.00105924
0,7.2,0,0.00105484
0,7.3,0,0.00105003
0,7.4,0,0.00104296
0,7.5,0,0.00103589
0,7.6,0,0.00102828
0,7.7,0,0.00101943
0,7.8,0,0.00101059
0,7.9,0,0.00100096
0,8,0,0.000990379
0,8.1,0,0.000979798
0,8.2,0,0.000968206
0,8.3,0,0.00095594
0,8.4,0,0.000943674
0,8.5,0,0.000930188
0,8.6,0,0.000916295
0,8.7,0,0.000902402
0,8.8,0,0.000887104
0,8.9,0,0.000871649
0,9,0,0.000856121
0,9.1,0,0.000839179
0,9.2,0,0.000822237
0,9.3,0,0.000805014
0,9.4,0,0.000786666
0,9.5,0,0.000768318
0,9.6,0,0.000749509
0,9.7,0,0.000729843
0,9.8,0,0.000710177
0,9.9,0,0.0006899
0,10,0,0.000669011
0,10.1,0,0.000648122
0,10.2,0,0.000626504
0,10.3,0,0.000604494
0,10.4,0,0.000582483
0,10.5,0,0.000559661
0,10.6,0,0.000536636
0,10.7,0,0.00051361
0,10.8,0,0.000489728
0,10.9,0,0.0004658
0,11,0,0.000441794
0,11.1,0,0.000417082
0,11.2,0,0.000392371
0,11.3,0,0.000367493
0,11.4,0,0.000342119
0,11.5,0,0.000316745
0,11.6,0,0.000291152
0,11.7,0,0.000265229
0,11.8,0,0.000239307
0,11.9,0,0.000213158
0,12,0,0.000186823
0,12.1,0,0.000160489
0,12.2,0,0.00013398
0,12.3,0,0.000107395
0,12.4,0,8.08103e-05
0,12.5,0,6.05114e-05
0,12.6,0,4.13218e-05
0,12.7,0,2.21323e-05
0.1,0,0,1.75088e-05
0.1,0.1,0,3.68258e-05
0.1,0.2,0,5.60681e-05
0.1,0.3,0,8.10485e-05
0.1,0.4,0,0.000107756
0.1,0.5,0,0.000134751
0.1,0.6,0,0.000160984
0.1,0.7,0,0.000187494
0.1,0.8,0,0.000213867
0.1,0.9,0,0.000240064
0.1,1,0,0.000266919
0.1,1.1,0,0.000292038
0.1,1.2,0,0.000317803
0.1,1.3,0,0.000343319
0.1,1.4,0,0.000368561
0.1,1.5,0,0.000394808
0.1,1.6,0,0.000418443
0.1,1.7,0,0.000443069
0.1,1.8,0,0.000467353
0.1,1.9,0,0.000491268
0.1,2,0,0.000516511
0.1,2.1,0,0.00053831
0.1,2.2,0,0.000561425
0.1,2.3,0,0.000584106
0.1,2.4,0,0.000606333
0.1,2.5,0,0.000630181
0.1,2.6,0,0.000649825
0.1,2.7,0,0.000671079
0.1,2.8,0,0.000691819
0.1,2.9,0,0.000712022
0.1,3,0,0.000734114
0.1,3.1,0,0.000751313
0.1,3.2,0,0.00077039
0.1,3.3,0,0.000788878
0.1,3.4,0,0.000806759
0.1,3.5,0,0.000826759
0.1,3.6,0,0.000841265
0.1,3.7,0,0.000857882
0.1,3.8,0,0.000873845
0.1,3.9,0,0.000889138
0.1,4,0,0.000906747
0.1,4.1,0,0.000918351
0.1,4.2,0,0.000932265
0.1,4.3,0,0.000945468
0.1,4.4,0,0.00095795
0.1,4.5,0,0.000972902
0.1,4.6,0,0.000981446
0.1,4.7,0,0.000992454
0.1,4.8,0,0.00100231
0.1,4.9,0,0.00101011
0.1,5,0,0.00102003
0.1,5.1,0,0.00103277
0.1,5.2,0,0.00104055
0.1,5.3,0,0.0010477
0.1,5.4,0,0.00105421
0.1,5.5,0,0.00106008
0.1,5.6,0,0.00106529
0.1,5.7,0,0.00106985
0.1,5.8,0,0.00107375
0.1,5.9,0,0.001077
0.1,6,0,0.00107958
0.1,6.1,0,0.00108151
0.1,6.2,0,0.00108278
0.1,6.3,0,0.00108338
0.1,6.4,0,0.00108332
0.1,6.5,0,0.0010826
0.1,6.6,0,0.00108122
0.1,6.7,0,0.00107917
0.1,6.8,0,0.00107646
0.1,6.9,0,0.00107309
0.1,7,0,0.00106654
0.1,7.1,0,0.00105977
0.1,7.2,0,0.00105537
0.1,7.3,0,0.0010516
0.1,7.4,0,0.00104323
0.1,7.5,0,0.00103615
0.1,7.6,0,0.00102854
0.1,7.7,0,0.0010197
0.1,7.8,0,0.00101085
0.1,7.9,0,0.00100122
0.1,8,0,0.000990636
0.1,8.1,0,0.000980055
0.1,8.2,0,0.000968455
0.1,8.3,0,0.000956189
0.1,8.4,0,0.000944314
0.1,8.5,0,0.000930427
0.1,8.6,0,0.000916534
0.1,8.7,0,0.000904142
0.1,8.8,0,0.000887333
0.1,8.9,0,0.000871878
0.1,9,0,0.000858133
0.1,9.1,0,0.000839396
0.1,9.2,0,0.000822455
0.1,9.3,0,0.000805897
0.1,9.4,0,0.000786871
0.1,9.5,0,0.000768523
0.1,9.6,0,0.0007497
0.1,9.7,0,0.000730034
0.1,9.8,0,0.000710368
0.1,9.9,0,0.000690076
0.1,10,0,0.000669187
0.1,10.1,0,0.000648298
0.1,10.2,0,0.000626665
0.1,10.3,0,0.000604654
0.1,10.4,0,0.000583123
0.1,10.5,0,0.000559805
0.1,10.6,0,0.00053678
0.1,10.7,0,0.000514812
0.1,10.8,0,0.000489854
0.1,10.9,0,0.000465927
0.1,11,0,0.000442643
0.1,11.1,0,0.000417191
0.1,11.2,0,0.000392479
0.1,11.3,0,0.000367738
0.1,11.4,0,0.00034221
0.1,11.5,0,0.000316835
0.1,11.6,0,0.000291226
0.1,11.7,0,0.000265303
0.1,11.8,0,0.000239381
0.1,11.9,0,0.000213207
0.1,12,0,0.000186873
0.1,12.1,0,0.000160539
0.1,12.2,0,0.000134005
0.1,12.3,0,0.000107421
0.1,12.4,0,8.08818e-05
0.1,12.5,0,5.82671e-05
0.1,12.6,0,3.90776e-05
0.1,12.7,0,1.98026e-05
0.2,0,0,1.54489e-05
0.2,0.1,0,3.48408e-05
0.2,0.2,0,5.42907e-05
0.2,0.3,0,8.10761e-05
0.2,0.4,0,0.000107777
0.2,0.5,0,0.000135059
0.2,0.6,0,0.000161016
0.2,0.7,0,0.000187574
0.2,0.8,0,0.000213965
0.2,0.9,0,0.000240115
0.2,1,0,0.000267627
0.2,1.1,0,0.000292101
0.2,1.2,0,0.000317949
0.2,1.3,0,0.000343476
0.2,1.4,0,0.000368636
0.2,1.5,0,0.000395887
0.2,1.6,0,0.00041853
0.2,1.7,0,0.000443273
0.2,1.8,0,0.000467568
0.2,1.9,0,0.000491368
0.2,2,0,0.000517937
0.2,2.1,0,0.000538421
0.2,2.2,0,0.000561684
0.2,2.3,0,0.000584375
0.2,2.4,0,0.000606455
0.2,2.5,0,0.000631926
0.2,2.6,0,0.000649958
0.2,2.7,0,0.000671389
0.2,2.8,0,0.000692137
0.2,2.9,0,0.000712166
0.2,3,0,0.000736146
0.2,3.1,0,0.000751466
0.2,3.2,0,0.000770744
0.2,3.3,0,0.00078924
0.2,3.4,0,0.000806921
0.2,3.5,0,0.000829042
0.2,3.6,0,0.000841435
0.2,3.7,0,0.000858275
0.2,3.8,0,0.000874244
0.2,3.9,0,0.000889316
0.2,4,0,0.00090924
0.2,4.1,0,0.000918537
0.2,4.2,0,0.000932689
0.2,4.3,0,0.000945899
0.2,4.4,0,0.000958142
0.2,4.5,0,0.000975563
0.2,4.6,0,0.000981642
0.2,4.7,0,0.000992903
0.2,4.8,0,0.00100317
0.2,4.9,0,0.00101076
0.2,5,0,0.00102279
0.2,5.1,0,0.00103556
0.2,5.2,0,0.00104337
0.2,5.3,0,0.00105053
0.2,5.4,0,0.00105706
0.2,5.5,0,0.00106293
0.2,5.6,0,0.00106816
0.2,5.7,0,0.00107273
0.2,5.8,0,0.00107664
0.2,5.9,0,0.00107989
0.2,6,0,0.00108249
0.2,6.1,0,0.00108442
0.2,6.2,0,0.00108569
0.2,6.3,0,0.0010863
0.2,6.4,0,0.00108624
0.2,6.5,0,0.00108551
0.2,6.6,0,0.00108413
0.2,6.7,0,0.00108208
0.2,6.8,0,0.00107937
0.2,6.9,0,0.001076
0.2,7,0,0.00106943
0.2,7.1,0,0.00106031
0.2,7.2,0,0.0010559
0.2,7.3,0,0.00105448
0.2,7.4,0,0.0010435
0.2,7.5,0,0.00103642
0.2,7.6,0,0.00103137
0.2,7.7,0,0.00101996
0.2,7.8,0,0.00101153
0.2,7.9,0,0.00100273
0.2,8,0,0.000990893
0.2,8.1,0,0.000981933
0.2,8.2,0,0.000968704
0.2,8.3,0,0.000956438
0.2,8.4,0,0.00094691
0.2,8.5,0,0.000930666
0.2,8.6,0,0.000916774
0.2,8.7,0,0.000906632
0.2,8.8,0,0.000887562
0.2,8.9,0,0.000872107
0.2,9,0,0.000860504
0.2,9.1,0,0.000839614
0.2,9.2,0,0.000822672
0.2,9.3,0,0.000808136
0.2,9.4,0,0.000787076
0.2,9.5,0,0.000768728
0.2,9.6,0,0.000751477
0.2,9.7,0,0.000730224
0.2,9.8,0,0.000711142
0.2,9.9,0,0.00069084
0.2,10,0,0.000669363
0.2,10.1,0,0.000649806
0.2,10.2,0,0.000626825
0.2,10.3,0,0.000604814
0.2,10.4,0,0.000584721
0.2,10.5,0,0.000559949
0.2,10.6,0,0.000536924
0.2,10.7,0,0.000516225
0.2,10.8,0,0.000489981
0.2,10.9,0,0.000466053
0.2,11,0,0.000443862
0.2,11.1,0,0.000417299
0.2,11.2,0,0.000392588
0.2,11.3,0,0.000368755
0.2,11.4,0,0.0003423
0.2,11.5,0,0.000316926
0.2,11.6,0,0.000291789
0.2,11.7,0,0.000265377
0.2,11.8,0,0.000239715
0.2,11.9,0,0.000213347
0.2,12,0,0.000186922
0.2,12.1,0,0.000160904
0.2,12.2,0,0.000134031
0.2,12.3,0,0.000107446
0.2,12.4,0,8.09991e-05
0.2,12.5,0,5.60229e-05
0.2,12.6,0,3.68333e-05
0.2,12.7,0,1.74728e-05
0.3,0,0,1.33891e-05
0.3,0.1,0,3.28558e-05
0.3,0.2,0,5.43819e-05
0.3,0.3,0,8.11673e-05
0.3,0.4,0,0.000107797
0.3,0.5,0,0.000135367
0.3,0.6,0,0.000161047
0.3,0.7,0,0.00018809
0.3,0.8,0,0.000214481
0.3,0.9,0,0.000240166
0.3,1,0,0.000268335
0.3,1.1,0,0.000292164
0.3,1.2,0,0.000318845
0.3,1.3,0,0.000344371
0.3,1.4,0,0.000368711
0.3,1.5,0,0.000396966
0.3,1.6,0,0.000418618
0.3,1.7,0,0.000444529
0.3,1.8,0,0.000468824
0.3,1.9,0,0.000491468
0.3,2,0,0.000519363
0.3,2.1,0,0.000538533
0.3,2.2,0,0.000563273
0.3,2.3,0,0.000585965
0.3,2.4,0,0.000606577
0.3,2.5,0,0.000633671
0.3,2.6,0,0.000650091
0.3,2.7,0,0.000673281
0.3,2.8,0,0.000694029
0.3,2.9,0,0.000712309
0.3,3,0,0.000738177
0.3,3.1,0,0.000751619
0.3,3.2,0,0.000772906
0.3,3.3,0,0.000791402
0.3,3.4,0,0.000807083
0.3,3.5,0,0.000831324
0.3,3.6,0,0.000841605
0.3,3.7,0,0.000860668
0.3,3.8,0,0.000876637
0.3,3.9,0,0.000889494
0.3,4,0,0.000911734
0.3,4.1,0,0.000918722
0.3,4.2,0,0.000935272
0.3,4.3,0,0.000948482
0.3,4.4,0,0.000958333
0.3,4.5,0,0.000978224
0.3,4.6,0,0.000981838
0.3,4.7,0,0.00099563
0.3,4.8,0,0.00100589
0.3,4.9,0,0.00101141
0.3,5,0,0.00102556
0.3,5.1,0,0.00103836
0.3,5.2,0,0.00104618
0.3,5.3,0,0.00105336
0.3,5.4,0,0.0010599
0.3,5.5,0,0.00106579
0.3,5.6,0,0.00107103
0.3,5.7,0,0.0010756
0.3,5.8,0,0.00107953
0.3,5.9,0,0.00108279
0.3,6,0,0.00108539
0.3,6.1,0,0.00108733
0.3,6.2,0,0.00108861
0.3,6.3,0,0.00108921
0.3,6.4,0,0.00108916
0.3,6.5,0,0.00108843
0.3,6.6,0,0.00108705
0.3,6.7,0,0.001085
0.3,6.8,0,0.00108228
0.3,6.9,0,0.0010789
0.3,7,0,0.00107232
0.3,7.1,0,0.00106084
0.3,7.2,0,0.00105683
0.3,7.3,0,0.00105735
0.3,7.4,0,0.00104377
0.3,7.5,0,0.0010384
0.3,7.6,0,0.0010342
0.3,7.7,0,0.00102022
0.3,7.8,0,0.0010143
0.3,7.9,0,0.00100549
0.3,8,0,0.00099115
0.3,8.1,0,0.000984621
0.3,8.2,0,0.000971392
0.3,8.3,0,0.000956686
0.3,8.4,0,0.000949507
0.3,8.5,0,0.000932084
0.3,8.6,0,0.000917013
0.3,8.7,0,0.000909123
0.3,8.8,0,0.000887791
0.3,8.9,0,0.000872336
0.3,9,0,0.000862875
0.3,9.1,0,0.000839831
0.3,9.2,0,0.000823563
0.3,9.3,0,0.000810375
0.3,9.4,0,0.00078728
0.3,9.5,0,0.000770508
0.3,9.6,0,0.000753573
0.3,9.7,0,0.000730415
0.3,9.8,0,0.000713082
0.3,9.9,0,0.00069278
0.3,10,0,0.000669539
0.3,10.1,0,0.00065158
0.3,10.2,0,0.00062833
0.3,10.3,0,0.000604975
0.3,10.4,0,0.000586319
0.3,10.5,0,0.000560578
0.3,10.6,0,0.000537068
0.3,10.7,0,0.000517638
0.3,10.8,0,0.000490108
0.3,10.9,0,0.00046618
0.3,11,0,0.000445081
0.3,11.1,0,0.000417408
0.3,11.2,0,0.00039315
0.3,11.3,0,0.000369772
0.3,11.4,0,0.00034239
0.3,11.5,0,0.000317734
0.3,11.6,0,0.000292597
0.3,11.7,0,0.000265451
0.3,11.8,0,0.00024031
0.3,11.9,0,0.000213942
0.3,12,0,0.000186972
0.3,12.1,0,0.00016127
0.3,12.2,0,0.000134284
0.3,12.3,0,0.000107472
0.3,12.4,0,8.11164e-05
0.3,12.5,0,5.41722e-05
0.3,12.6,0,3.4589e-05
0.3,12.7,0,1.51431e-05
0.4,0,0,1.13292e-05
0.4,0.1,0,3.08558e-05
0.4,0.2,0,5.44731e-05
0.4,0.3,0,8.12585e-05
0.4,0.4,0,0.000107875
0.4,0.5,0,0.000135675
0.4,0.6,0,0.000161134
0.4,0.7,0,0.000188606
0.4,0.8,0,0.000214996
0.4,0.9,0,0.000240349
0.4,1,0,0.000269043
0.4,1.1,0,0.000292356
0.4,1.2,0,0.000319741
0.4,1.3,0,0.000345267
0.4,1.4,0,0.000368986
0.4,1.5,0,0.000398045
0.4,1.6,0,0.000418903
0.4,1.7,0,0.000445786
0.4,1.8,0,0.00047008
0.4,1.9,0,0.000491833
0.4,2,0,0.00052079
0.4,2.1,0,0.000538907
0.4,2.2,0,0.000564862
0.4,2.3,0,0.000587554
0.4,2.4,0,0.000607024
0.4,2.5,0,0.000635416
0.4,2.6,0,0.000650547
0.4,2.7,0,0.000675174
0.4,2.8,0,0.000695922
0.4,2.9,0,0.00071283
0.4,3,0,0.000740209
0.4,3.1,0,0.000752148
0.4,3.2,0,0.000775068
0.4,3.3,0,0.000793564
0.4,3.4,0,0.000807669
0.4,3.5,0,0.000833607
0.4,3.6,0,0.000842198
0.4,3.7,0,0.000863061
0.4,3.8,0,0.000879031
0.4,3.9,0,0.000890135
0.4,4,0,0.000914228
0.4,4.1,0,0.000919369
0.4,4.2,0,0.000937855
0.4,4.3,0,0.000951065
0.4,4.4,0,0.000959019
0.4,4.5,0,0.000980885
0.4,4.6,0,0.000982528
0.4,4.7,0,0.000998357
0.4,4.8,0,0.00100862
0.4,4.9,0,0.00101248
0.4,5,0,0.00102832
0.4,5.1,0,0.00104116
0.4,5.2,0,0.001049
0.4,5.3,0,0.00105619
0.4,5.4,0,0.00106275
0.4,5.5,0,0.00106865
0.4,5.6,0,0.0010739
0.4,5.7,0,0.00107849
0.4,5.8,0,0.00108242
0.4,5.9,0,0.00108569
0.4,6,0,0.0010883
0.4,6.1,0,0.00109024
0.4,6.2,0,0.00109152
0.4,6.3,0,0.00109213
0.4,6.4,0,0.00109207
0.4,6.5,0,0.00109135
0.4,6.6,0,0.00108996
0.4,6.7,0,0.00108791
0.4,6.8,0,0.00108519
0.4,6.9,0,0.00108181
0.4,7,0,0.00107521
0.4,7.1,0,0.00106294
0.4,7.2,0,0.0010597
0.4,7.3,0,0.00106022
0.4,7.4,0,0.00104447
0.4,7.5,0,0.00104122
0.4,7.6,0,0.00103703
0.4,7.7,0,0.00102049
0.4,7.8,0,0.00101706
0.4,7.9,0,0.00100826
0.4,8,0,0.000991407
0.4,8.1,0,0.00098731
0.4,8.2,0,0.00097408
0.4,8.3,0,0.000956935
0.4,8.4,0,0.000952103
0.4,8.5,0,0.000934681
0.4,8.6,0,0.000918003
0.4,8.7,0,0.000911613
0.4,8.8,0,0.000890281
0.4,8.9,0,0.000874351
0.4,9,0,0.000865246
0.4,9.1,0,0.000841125
0.4,9.2,0,0.000825802
0.4,9.3,0,0.000812615
0.4,9.4,0,0.000787485
0.4,9.5,0,0.000772603
0.4,9.6,0,0.000755668
0.4,9.7,0,0.000730606
0.4,9.8,0,0.000715022
0.4,9.9,0,0.00069472
0.4,10,0,0.000669715
0.4,10.1,0,0.000653354
0.4,10.2,0,0.000630104
0.4,10.3,0,0.000605135
0.4,10.4,0,0.000587918
0.4,10.5,0,0.000562176
0.4,10.6,0,0.000537846
0.4,10.7,0,0.000519051
0.4,10.8,0,0.000491307
0.4,10.9,0,0.000467399
0.4,11,0,0.000446301
0.4,11.1,0,0.000417886
0.4,11.2,0,0.000394167
0.4,11.3,0,0.000370788
0.4,11.4,0,0.000342481
0.4,11.5,0,0.000318541
0.4,11.6,0,0.000293405
0.4,11.7,0,0.000265525
0.4,11.8,0,0.000240904
0.4,11.9,0,0.000214537
0.4,12,0,0.000187021
0.4,12.1,0,0.000161636
0.4,12.2,0,0.000134649
0.4,12.3,0,0.000107513
0.4,12.4,0,8.12338e-05
0.4,12.5,0,5.42895e-05
0.4,12.6,0,3.22878e-05
0.4,12.7,0,1.28134e-05
0.5,0,0,9.26935e-06
0.5,0.1,0,2.87959e-05
0.5,0.2,0,5.45643e-05
0.5,0.3,0,8.13497e-05
0.5,0.4,0,0.000108183
0.5,0.5,0,0.000135984
0.5,0.6,0,0.000161442
0.5,0.7,0,0.000189122
0.5,0.8,0,0.000215512
0.5,0.9,0,0.000241057
0.5,1,0,0.000269751
0.5,1.1,0,0.000293064
0.5,1.2,0,0.000320636
0.5,1.3,0,0.000346163
0.5,1.4,0,0.000370065
0.5,1.5,0,0.000399124
0.5,1.6,0,0.000419982
0.5,1.7,0,0.000447042
0.5,1.8,0,0.000471336
0.5,1.9,0,0.000493259
0.5,2,0,0.000522216
0.5,2.1,0,0.000540333
0.5,2.2,0,0.000566452
0.5,2.3,0,0.000589143
0.5,2.4,0,0.000608769
0.5,2.5,0,0.000637161
0.5,2.6,0,0.000652292
0.5,2.7,0,0.000677066
0.5,2.8,0,0.000697815
0.5,2.9,0,0.000714862
0.5,3,0,0.000742241
0.5,3.1,0,0.000754179
0.5,3.2,0,0.000777229
0.5,3.3,0,0.000795725
0.5,3.4,0,0.000809951
0.5,3.5,0,0.000835889
0.5,3.6,0,0.000844481
0.5,3.7,0,0.000865454
0.5,3.8,0,0.000881424
0.5,3.9,0,0.000892629
0.5,4,0,0.000916721
0.5,4.1,0,0.000921862
0.5,4.2,0,0.000940438
0.5,4.3,0,0.000953648
0.5,4.4,0,0.00096168
0.5,4.5,0,0.000983546
0.5,4.6,0,0.000985189
0.5,4.7,0,0.00100108
0.5,4.8,0,0.00101135
0.5,4.9,0,0.00101524
0.5,5,0,0.00103109
0.5,5.1,0,0.00104395
0.5,5.2,0,0.00105181
0.5,5.3,0,0.00105902
0.5,5.4,0,0.00106559
0.5,5.5,0,0.00107151
0.5,5.6,0,0.00107677
0.5,5.7,0,0.00108136
0.5,5.8,0,0.00108531
0.5,5.9,0,0.00108859
0.5,6,0,0.0010912
0.5,6.1,0,0.00109315
0.5,6.2,0,0.00109443
0.5,6.3,0,0.00109505
0.5,6.4,0,0.00109499
0.5,6.5,0,0.00109427
0.5,6.6,0,0.00109288
0.5,6.7,0,0.00109082
0.5,6.8,0,0.0010881
0.5,6.9,0,0.00108471
0.5,7,0,0.0010781
0.5,7.1,0,0.00106584
0.5,7.2,0,0.00106257
0.5,7.3,0,0.00106309
0.5,7.4,0,0.00104734
0.5,7.5,0,0.00104405
0.5,7.6,0,0.00103985
0.5,7.7,0,0.00102246
0.5,7.8,0,0.00101983
0.5,7.9,0,0.00101103
0.5,8,0,0.000992892
0.5,8.1,0,0.000989998
0.5,8.2,0,0.000976769
0.5,8.3,0,0.00095914
0.5,8.4,0,0.0009547
0.5,8.5,0,0.000937277
0.5,8.6,0,0.000920493
0.5,8.7,0,0.000914104
0.5,8.8,0,0.000892772
0.5,8.9,0,0.000876722
0.5,9,0,0.000867617
0.5,9.1,0,0.000843496
0.5,9.2,0,0.000828041
0.5,9.3,0,0.000814854
0.5,9.4,0,0.000789724
0.5,9.5,0,0.000774698
0.5,9.6,0,0.000757763
0.5,9.7,0,0.000731749
0.5,9.8,0,0.000716962
0.5,9.9,0,0.00069666
0.5,10,0,0.00067069
0.5,10.1,0,0.000655128
0.5,10.2,0,0.000631878
0.5,10.3,0,0.000606734
0.5,10.4,0,0.000589516
0.5,10.5,0,0.000563774
0.5,10.6,0,0.000539259
0.5,10.7,0,0.000520465
0.5,10.8,0,0.00049272
0.5,10.9,0,0.000468619
0.5,11,0,0.00044752
0.5,11.1,0,0.000419105
0.5,11.2,0,0.000395183
0.5,11.3,0,0.000371805
0.5,11.4,0,0.000343343
0.5,11.5,0,0.000319349
0.5,11.6,0,0.000294213
0.5,11.7,0,0.000265931
0.5,11.8,0,0.000241499
0.5,11.9,0,0.000215131
0.5,12,0,0.000187281
0.5,12.1,0,0.000162002
0.5,12.2,0,0.000135015
0.5,12.3,0,0.00010763
0.5,12.4,0,8.13511e-05
0.5,12.5,0,5.44068e-05
0.5,12.6,0,2.99581e-05
0.5,12.7,0,1.04837e-05
0.6,0,0,7.20949e-06
0.6,0.1,0,2.73589e-05
0.6,0.2,0,5.46555e-05
0.6,0.3,0,8.14409e-05
0.6,0.4,0,0.000108512
0.6,0.5,0,0.000136292
0.6,0.6,0,0.000161896
0.6,0.7,0,0.000189638
0.6,0.8,0,0.000216028
0.6,0.9,0,0.000241904
0.6,1,0,0.000270459
0.6,1.1,0,0.000294022
0.6,1.2,0,0.000321532
0.6,1.3,0,0.000347058
0.6,1.4,0,0.000371391
0.6,1.5,0,0.000400203
0.6,1.6,0,0.000421412
0.6,1.7,0,0.000448298
0.6,1.8,0,0.000472592
0.6,1.9,0,0.000495032
0.6,2,0,0.000523642
0.6,2.1,0,0.000542203
0.6,2.2,0,0.000568041
0.6,2.3,0,0.000590733
0.6,2.4,0,0.000610954
0.6,2.5,0,0.000638906
0.6,2.6,0,0.000654564
0.6,2.7,0,0.000678959
0.6,2.8,0,0.000699707
0.6,2.9,0,0.000717418
0.6,3,0,0.000744272
0.6,3.1,0,0.000756814
0.6,3.2,0,0.000779391
0.6,3.3,0,0.000797887
0.6,3.4,0,0.000812834
0.6,3.5,0,0.000838172
0.6,3.6,0,0.00084743
0.6,3.7,0,0.000867847
0.6,3.8,0,0.000883817
0.6,3.9,0,0.000895787
0.6,4,0,0.000919215
0.6,4.1,0,0.000925075
0.6,4.2,0,0.000943022
0.6,4.3,0,0.000956231
0.6,4.4,0,0.000965058
0.6,4.5,0,0.000986207
0.6,4.6,0,0.000988609
0.6,4.7,0,0.00100381
0.6,4.8,0,0.00101407
0.6,4.9,0,0.00101863
0.6,5,0,0.00103385
0.6,5.1,0,0.00104675
0.6,5.2,0,0.00105462
0.6,5.3,0,0.00106185
0.6,5.4,0,0.00106844
0.6,5.5,0,0.00107436
0.6,5.6,0,0.00107964
0.6,5.7,0,0.00108424
0.6,5.8,0,0.0010882
0.6,5.9,0,0.00109148
0.6,6,0,0.00109411
0.6,6.1,0,0.00109606
0.6,6.2,0,0.00109735
0.6,6.3,0,0.00109796
0.6,6.4,0,0.00109791
0.6,6.5,0,0.00109718
0.6,6.6,0,0.00109579
0.6,6.7,0,0.00109374
0.6,6.8,0,0.00109101
0.6,6.9,0,0.00108762
0.6,7,0,0.00108099
0.6,7.1,0,0.00106873
0.6,7.2,0,0.00106544
0.6,7.3,0,0.00106596
0.6,7.4,0,0.00105106
0.6,7.5,0,0.00104688
0.6,7.6,0,0.00104268
0.6,7.7,0,0.00102737
0.6,7.8,0,0.00102259
0.6,7.9,0,0.00101379
0.6,8,0,0.00099809
0.6,8.1,0,0.000992687
0.6,8.2,0,0.000979457
0.6,8.3,0,0.000963363
0.6,8.4,0,0.000957296
0.6,8.5,0,0.000939874
0.6,8.6,0,0.000923376
0.6,8.7,0,0.000916594
0.6,8.8,0,0.000895262
0.6,8.9,0,0.000879093
0.6,9,0,0.000869989
0.6,9.1,0,0.000845867
0.6,9.2,0,0.000830281
0.6,9.3,0,0.000817093
0.6,9.4,0,0.000792908
0.6,9.5,0,0.000776793
0.6,9.6,0,0.000759858
0.6,9.7,0,0.000735593
0.6,9.8,0,0.000718902
0.6,9.9,0,0.0006986
0.6,10,0,0.000674228
0.6,10.1,0,0.000656902
0.6,10.2,0,0.000633652
0.6,10.3,0,0.000609139
0.6,10.4,0,0.000591114
0.6,10.5,0,0.000565372
0.6,10.6,0,0.000540672
0.6,10.7,0,0.000521878
0.6,10.8,0,0.000494133
0.6,10.9,0,0.000469838
0.6,11,0,0.000448739
0.6,11.1,0,0.000420476
0.6,11.2,0,0.0003962
0.6,11.3,0,0.000372822
0.6,11.4,0,0.000344838
0.6,11.5,0,0.000320157
0.6,11.6,0,0.00029502
0.6,11.7,0,0.000267259
0.6,11.8,0,0.000242094
0.6,11.9,0,0.000215726
0.6,12,0,0.000188102
0.6,12.1,0,0.000162368
0.6,12.2,0,0.000135381
0.6,12.3,0,0.000107861
0.6,12.4,0,8.14684e-05
0.6,12.5,0,5.45242e-05
0.6,12.6,0,2.76284e-05
0.6,12.7,0,8.154e-06
0.7,0,0,5.14964e-06
0.7,0.1,0,2.73753e-05
0.7,0.2,0,5.47467e-05
0.7,0.3,0,8.15321e-05
0.7,0.4,0,0.000108891
0.7,0.5,0,0.0001366
0.7,0.6,0,0.000162688
0.7,0.7,0,0.000190154
0.7,0.8,0,0.000216544
0.7,0.9,0,0.000243077
0.7,1,0,0.000271167
0.7,1.1,0,0.000295562
0.7,1.2,0,0.000322428
0.7,1.3,0,0.000347954
0.7,1.4,0,0.000373291
0.7,1.5,0,0.000401282
0.7,1.6,0,0.00042366
0.7,1.7,0,0.000449554
0.7,1.8,0,0.000473848
0.7,1.9,0,0.000497615
0.7,2,0,0.000525068
0.7,2.1,0,0.000545107
0.7,2.2,0,0.00056963
0.7,2.3,0,0.000592322
0.7,2.4,0,0.000614166
0.7,2.5,0,0.000640651
0.7,2.6,0,0.000658069
0.7,2.7,0,0.000680851
0.7,2.8,0,0.0007016
0.7,2.9,0,0.000721199
0.7,3,0,0.000746304
0.7,3.1,0,0.000760854
0.7,3.2,0,0.000781553
0.7,3.3,0,0.000800049
0.7,3.4,0,0.000817116
0.7,3.5,0,0.000840454
0.7,3.6,0,0.000851935
0.7,3.7,0,0.000870241
0.7,3.8,0,0.00088621
0.7,3.9,0,0.000900496
0.7,4,0,0.000921708
0.7,4.1,0,0.000929967
0.7,4.2,0,0.000945605
0.7,4.3,0,0.000958814
0.7,4.4,0,0.000970111
0.7,4.5,0,0.000988868
0.7,4.6,0,0.0009938
0.7,4.7,0,0.00100654
0.7,4.8,0,0.0010168
0.7,4.9,0,0.00102348
0.7,5,0,0.00103662
0.7,5.1,0,0.00104955
0.7,5.2,0,0.00105744
0.7,5.3,0,0.00106468
0.7,5.4,0,0.00107128
0.7,5.5,0,0.00107722
0.7,5.6,0,0.0010825
0.7,5.7,0,0.00108712
0.7,5.8,0,0.00109109
0.7,5.9,0,0.00109438
0.7,6,0,0.00109701
0.7,6.1,0,0.00109897
0.7,6.2,0,0.00110026
0.7,6.3,0,0.00110088
0.7,6.4,0,0.00110083
0.7,6.5,0,0.0011001
0.7,6.6,0,0.00109871
0.7,6.7,0,0.00109665
0.7,6.8,0,0.00109392
0.7,6.9,0,0.00109052
0.7,7,0,0.00108389
0.7,7.1,0,0.00107357
0.7,7.2,0,0.0010691
0.7,7.3,0,0.00106884
0.7,7.4,0,0.00105649
0.7,7.5,0,0.00104971
0.7,7.6,0,0.00104551
0.7,7.7,0,0.0010327
0.7,7.8,0,0.00102536
0.7,7.9,0,0.00101656
0.7,8,0,0.00100329
0.7,8.1,0,0.000995375
0.7,8.2,0,0.000982146
0.7,8.3,0,0.000968399
0.7,8.4,0,0.000959892
0.7,8.5,0,0.00094247
0.7,8.6,0,0.000928224
0.7,8.7,0,0.000919085
0.7,8.8,0,0.000898824
0.7,8.9,0,0.000882972
0.7,9,0,0.00087236
0.7,9.1,0,0.00085026
0.7,9.2,0,0.000832879
0.7,9.3,0,0.000819332
0.7,9.4,0,0.000797038
0.7,9.5,0,0.000778888
0.7,9.6,0,0.000761953
0.7,9.7,0,0.000739438
0.7,9.8,0,0.000720842
0.7,9.9,0,0.00070054
0.7,10,0,0.000677766
0.7,10.1,0,0.000658676
0.7,10.2,0,0.000635427
0.7,10.3,0,0.000612351
0.7,10.4,0,0.000592712
0.7,10.5,0,0.000567182
0.7,10.6,0,0.00054354
0.7,10.7,0,0.000523291
0.7,10.8,0,0.000496275
0.7,10.9,0,0.0004717
0.7,11,0,0.000449958
0.7,11.1,0,0.000422604
0.7,11.2,0,0.000397217
0.7,11.3,0,0.000373838
0.7,11.4,0,0.000346572
0.7,11.5,0,0.000320965
0.7,11.6,0,0.000295828
0.7,11.7,0,0.000268588
0.7,11.8,0,0.000242689
0.7,11.9,0,0.000216321
0.7,12,0,0.000189013
0.7,12.1,0,0.000162733
0.7,12.2,0,0.000135747
0.7,12.3,0,0.000108319
0.7,12.4,0,8.15857e-05
0.7,12.5,0,5.4613e-05
0.7,12.6,0,2.72666e-05
0.7,12.7,0,5.82428e-06
0.8,0,0,3.08978e-06
0.8,0.1,0,2.73917e-05
0.8,0.2,0,5.4808e-05
0.8,0.3,0,8.17384e-05
0.8,0.4,0,0.00010927
0.8,0.5,0,0.000136908
0.8,0.6,0,0.000163481
0.8,0.7,0,0.00019078
0.8,0.8,0,0.000217323
0.8,0.9,0,0.00024425
0.8,1,0,0.000271875
0.8,1.1,0,0.000297103
0.8,1.2,0,0.000323581
0.8,1.3,0,0.000349251
0.8,1.4,0,0.000375191
0.8,1.5,0,0.000402361
0.8,1.6,0,0.000425907
0.8,1.7,0,0.000451207
0.8,1.8,0,0.000475635
0.8,1.9,0,0.000500197
0.8,2,0,0.000526495
0.8,2.1,0,0.000548012
0.8,2.2,0,0.000571746
0.8,2.3,0,0.00059456
0.8,2.4,0,0.000617378
0.8,2.5,0,0.000642396
0.8,2.6,0,0.000661573
0.8,2.7,0,0.000683388
0.8,2.8,0,0.000704247
0.8,2.9,0,0.00072498
0.8,3,0,0.000748336
0.8,3.1,0,0.000764894
0.8,3.2,0,0.000784466
0.8,3.3,0,0.000803059
0.8,3.4,0,0.000821398
0.8,3.5,0,0.000842737
0.8,3.6,0,0.000856441
0.8,3.7,0,0.000873479
0.8,3.8,0,0.00088953
0.8,3.9,0,0.000905204
0.8,4,0,0.000924202
0.8,4.1,0,0.000934858
0.8,4.2,0,0.000949111
0.8,4.3,0,0.000962385
0.8,4.4,0,0.000975163
0.8,4.5,0,0.000991529
0.8,4.6,0,0.000998992
0.8,4.7,0,0.00101025
0.8,4.8,0,0.00102037
0.8,4.9,0,0.00102832
0.8,5,0,0.00103938
0.8,5.1,0,0.00105234
0.8,5.2,0,0.00106025
0.8,5.3,0,0.00106751
0.8,5.4,0,0.00107412
0.8,5.5,0,0.00108008
0.8,5.6,0,0.00108537
0.8,5.7,0,0.00109
0.8,5.8,0,0.00109398
0.8,5.9,0,0.00109728
0.8,6,0,0.00109991
0.8,6.1,0,0.00110188
0.8,6.2,0,0.00110317
0.8,6.3,0,0.00110379
0.8,6.4,0,0.00110374
0.8,6.5,0,0.00110302
0.8,6.6,0,0.00110163
0.8,6.7,0,0.00109956
0.8,6.8,0,0.00109683
0.8,6.9,0,0.00109343
0.8,7,0,0.00108678
0.8,7.1,0,0.0010788
0.8,7.2,0,0.00107433
0.8,7.3,0,0.00107171
0.8,7.4,0,0.00106193
0.8,7.5,0,0.0010547
0.8,7.6,0,0.00104833
0.8,7.7,0,0.00103803
0.8,7.8,0,0.00102898
0.8,7.9,0,0.00101932
0.8,8,0,0.00100848
0.8,8.1,0,0.000998063
0.8,8.2,0,0.000986008
0.8,8.3,0,0.000973435
0.8,8.4,0,0.000962489
0.8,8.5,0,0.000947317
0.8,8.6,0,0.000933071
0.8,8.7,0,0.000921575
0.8,8.8,0,0.000903456
0.8,8.9,0,0.000887604
0.8,9,0,0.000874731
0.8,9.1,0,0.000854653
0.8,9.2,0,0.000837272
0.8,9.3,0,0.000821571
0.8,9.4,0,0.000801168
0.8,9.5,0,0.00078234
0.8,9.6,0,0.000764049
0.8,9.7,0,0.000743282
0.8,9.8,0,0.000723099
0.8,9.9,0,0.000702746
0.8,10,0,0.000681304
0.8,10.1,0,0.000660451
0.8,10.2,0,0.000638159
0.8,10.3,0,0.000615563
0.8,10.4,0,0.000594311
0.8,10.5,0,0.00057005
0.8,10.6,0,0.000546407
0.8,10.7,0,0.000524704
0.8,10.8,0,0.00049878
0.8,10.9,0,0.000474206
0.8,11,0,0.000451177
0.8,11.1,0,0.000424731
0.8,11.2,0,0.000399344
0.8,11.3,0,0.000374855
0.8,11.4,0,0.000348306
0.8,11.5,0,0.000322236
0.8,11.6,0,0.000296636
0.8,11.7,0,0.000269916
0.8,11.8,0,0.000243283
0.8,11.9,0,0.000217021
0.8,12,0,0.000189924
0.8,12.1,0,0.000163099
0.8,12.2,0,0.000136189
0.8,12.3,0,0.000108776
0.8,12.4,0,8.17031e-05
0.8,12.5,0,5.46449e-05
0.8,12.6,0,2.72985e-05
0.8,12.7,0,3.49457e-06
0.9,0,0,1.02993e-06
0.9,0.1,0,2.74081e-05
0.9,0.2,0,5.48244e-05
0.9,0.3,0,8.21172e-05
0.9,0.4,0,0.000109649
0.9,0.5,0,0.000137216
0.9,0.6,0,0.000164273
0.9,0.7,0,0.000191573
0.9,0.8,0,0.000218496
0.9,0.9,0,0.000245423
0.9,1,0,0.000272583
0.9,1.1,0,0.000298644
0.9,1.2,0,0.000325122
0.9,1.3,0,0.000351151
0.9,1.4,0,0.00037709
0.9,1.5,0,0.00040344
0.9,1.6,0,0.000428155
0.9,1.7,0,0.000453454
0.9,1.8,0,0.000478218
0.9,1.9,0,0.00050278
0.9,2,0,0.000527921
0.9,2.1,0,0.000550916
0.9,2.2,0,0.00057465
0.9,2.3,0,0.000597772
0.9,2.4,0,0.00062059
0.9,2.5,0,0.000644141
0.9,2.6,0,0.000665077
0.9,2.7,0,0.000686893
0.9,2.8,0,0.000708028
0.9,2.9,0,0.00072876
0.9,3,0,0.000750367
0.9,3.1,0,0.000768935
0.9,3.2,0,0.000788507
0.9,3.3,0,0.000807341
0.9,3.4,0,0.00082568
0.9,3.5,0,0.000845019
0.9,3.6,0,0.000860946
0.9,3.7,0,0.000877984
0.9,3.8,0,0.000894239
0.9,3.9,0,0.000909913
0.9,4,0,0.000926696
0.9,4.1,0,0.00093975
0.9,4.2,0,0.000954002
0.9,4.3,0,0.000967437
0.9,4.4,0,0.000980216
0.9,4.5,0,0.00099419
0.9,4.6,0,0.00100418
0.9,4.7,0,0.00101544
0.9,4.8,0,0.00102522
0.9,4.9,0,0.00103316
0.9,5,0,0.00104215
0.9,5.1,0,0.00105514
0.9,5.2,0,0.00106307
0.9,5.3,0,0.00107034
0.9,5.4,0,0.00107697
0.9,5.5,0,0.00108294
0.9,5.6,0,0.00108824
0.9,5.7,0,0.00109289
0.9,5.8,0,0.00109687
0.9,5.9,0,0.00110018
0.9,6,0,0.00110282
0.9,6.1,0,0.00110479
0.9,6.2,0,0.00110609
0.9,6.3,0,0.00110671
0.9,6.4,0,0.00110666
0.9,6.5,0,0.00110594
0.9,6.6,0,0.00110454
0.9,6.7,0,0.00110248
0.9,6.8,0,0.00109974
0.9,6.9,0,0.00109633
0.9,7,0,0.00108967
0.9,7.1,0,0.00108403
0.9,7.2,0,0.00107956
0.9,7.3,0,0.00107458
0.9,7.4,0,0.00106736
0.9,7.5,0,0.00106013
0.9,7.6,0,0.00105241
0.9,7.7,0,0.00104336
0.9,7.8,0,0.00103431
0.9,7.9,0,0.00102452
0.9,8,0,0.00101368
0.9,8.1,0,0.00100284
0.9,8.2,0,0.000991044
0.9,8.3,0,0.000978471
0.9,8.4,0,0.000965898
0.9,8.5,0,0.000952165
0.9,8.6,0,0.000937919
0.9,8.7,0,0.000924065
0.9,8.8,0,0.000908089
0.9,8.9,0,0.000892237
0.9,9,0,0.000877102
0.9,9.1,0,0.000859046
0.9,9.2,0,0.000841665
0.9,9.3,0,0.000824125
0.9,9.4,0,0.000805298
0.9,9.5,0,0.00078647
0.9,9.6,0,0.00076731
0.9,9.7,0,0.000747127
0.9,9.8,0,0.000726943
0.9,9.9,0,0.000706284
0.9,10,0,0.000684842
0.9,10.1,0,0.000663401
0.9,10.2,0,0.000641371
0.9,10.3,0,0.000618775
0.9,10.4,0,0.000596178
0.9,10.5,0,0.000572917
0.9,10.6,0,0.000549275
0.9,10.7,0,0.000526117
0.9,10.8,0,0.000501286
0.9,10.9,0,0.000476712
0.9,11,0,0.000452397
0.9,11.1,0,0.000426859
0.9,11.2,0,0.000401472
0.9,11.3,0,0.000376111
0.9,11.4,0,0.000350041
0.9,11.5,0,0.00032397
0.9,11.6,0,0.000297878
0.9,11.7,0,0.000271245
0.9,11.8,0,0.000244612
0.9,11.9,0,0.000217932
0.9,12,0,0.000190835
0.9,12.1,0,0.000163738
0.9,12.2,0,0.000136646
0.9,12.3,0,0.000109233
0.9,12.4,0,8.18204e-05
0.9,12.5,0,5.46768e-05
0.9,12.6,0,2.73304e-05
0.9,12.7,0,1.16486e-06
1,0,0,0
1,0.1,0,2.73767e-05
1,0.2,0,5.4793e-05
1,0.3,0,8.25134e-05
1,0.4,0,0.000110045
1,0.5,0,0.000137942
1,0.6,0,0.000165109
1,0.7,0,0.000192409
1,0.8,0,0.000219723
1,0.9,0,0.00024665
1,1,0,0.000274076
1,1.1,0,0.000300249
1,1.2,0,0.000326727
1,1.3,0,0.000353129
1,1.4,0,0.000379068
1,1.5,0,0.000405668
1,1.6,0,0.000430494
1,1.7,0,0.000455793
1,1.8,0,0.000480903
1,1.9,0,0.000505466
1,2,0,0.000530839
1,2.1,0,0.000553935
1,2.2,0,0.000577669
1,2.3,0,0.000601111
1,2.4,0,0.000623928
1,2.5,0,0.000647697
1,2.6,0,0.000668719
1,2.7,0,0.000690534
1,2.8,0,0.000711957
1,2.9,0,0.000732689
1,3,0,0.0007545
1,3.1,0,0.000773133
1,3.2,0,0.000792705
1,3.3,0,0.00081179
1,3.4,0,0.000830129
1,3.5,0,0.00084966
1,3.6,0,0.000865627
1,3.7,0,0.000882665
1,3.8,0,0.000899131
1,3.9,0,0.000914806
1,4,0,0.000931769
1,4.1,0,0.000944832
1,4.2,0,0.000959085
1,4.3,0,0.000972687
1,4.4,0,0.000985466
1,4.5,0,0.000999614
1,4.6,0,0.00100958
1,4.7,0,0.00102084
1,4.8,0,0.00103073
1,4.9,0,0.00103868
1,5,0,0.00104781
1,5.1,0,0.00106087
1,5.2,0,0.00106883
1,5.3,0,0.00107614
1,5.4,0,0.0010828
1,5.5,0,0.0010888
1,5.6,0,0.00109413
1,5.7,0,0.0010988
1,5.8,0,0.0011028
1,5.9,0,0.00110613
1,6,0,0.00110878
1,6.1,0,0.00111076
1,6.2,0,0.00111207
1,6.3,0,0.00111269
1,6.4,0,0.00111265
1,6.5,0,0.00111192
1,6.6,0,0.00111052
1,6.7,0,0.00110844
1,6.8,0,0.00110569
1,6.9,0,0.00110227
1,7,0,0.00109558
1,7.1,0,0.00108981
1,7.2,0,0.00108534
1,7.3,0,0.00108029
1,7.4,0,0.00107306
1,7.5,0,0.00106584
1,7.6,0,0.00105801
1,7.7,0,0.00104896
1,7.8,0,0.00103991
1,7.9,0,0.00102998
1,8,0,0.00101914
1,8.1,0,0.0010083
1,8.2,0,0.000996336
1,8.3,0,0.000983763
1,8.4,0,0.00097119
1,8.5,0,0.000957259
1,8.6,0,0.000943013
1,8.7,0,0.000929146
1,8.8,0,0.000912957
1,8.9,0,0.000897105
1,9,0,0.000881848
1,9.1,0,0.000863663
1,9.2,0,0.000846281
1,9.3,0,0.000828465
1,9.4,0,0.000809638
1,9.5,0,0.00079081
1,9.6,0,0.000771351
1,9.7,0,0.000751168
1,9.8,0,0.000730984
1,9.9,0,0.000710003
1,10,0,0.000688562
1,10.1,0,0.00066712
1,10.2,0,0.000644748
1,10.3,0,0.000622152
1,10.4,0,0.000599555
1,10.5,0,0.000575933
1,10.6,0,0.000552291
1,10.7,0,0.00052905
1,10.8,0,0.000503923
1,10.9,0,0.000479349
1,11,0,0.000454725
1,11.1,0,0.000429099
1,11.2,0,0.000403712
1,11.3,0,0.000377937
1,11.4,0,0.000351867
1,11.5,0,0.000325797
1,11.6,0,0.000299283
1,11.7,0,0.00027265
1,11.8,0,0.000246017
1,11.9,0,0.000218906
1,12,0,0.000191809
1,12.1,0,0.000164712
1,12.2,0,0.000137136
1,12.3,0,0.000109723
1,12.4,0,8.23096e-05
1,12.5,0,5.46568e-05
1,12.6,0,2.73104e-05
1,12.7,0,0
1.1,0,0,0
1.1,0.1,0,2.72976e-05