/*--------------------------------*- C++ -*----------------------------------*\
| =========                 |                                                 |
| \\      /  F ield         | OpenFOAM: The Open Source CFD Toolbox           |
|  \\    /   O peration     | Version:  v1806                                 |
|   \\  /    A nd           | Web:      www.OpenFOAM.com                      |
|    \\/     M anipulation  |                                                 |
\*---------------------------------------------------------------------------*/
FoamFile
{
    version     2.0;
    format      ascii;
    class       surfaceScalarField;
    location    "310";
    object      phi;
}
// * * * * * * * * * * * * * * * * * * * * * * * * * * * * * * * * * * * * * //

dimensions      [0 3 -1 0 0 0 0];
oriented        oriented;


internalField   nonuniform List<scalar> 
8600
(
0.0515863
-0.0732712
-0.0502383
0.0719232
0.041265
-0.081336
0.0916573
0.0304726
-0.0850693
0.0958618
0.0235269
-0.0882426
0.0951883
0.0193962
-0.0901151
0.0942457
0.0167111
-0.0909957
0.0936808
0.0148108
-0.0913108
0.0932111
0.0133637
-0.0912972
0.0927443
0.0122043
-0.0910949
0.0922543
0.0112493
-0.0907799
0.0917349
0.0104518
-0.0903934
0.0911909
0.00978214
-0.0899601
0.0906298
0.00921953
-0.0894965
0.0900591
0.00874893
-0.0890137
0.0894843
0.00835909
-0.0885194
0.0889092
0.0080416
-0.0880187
0.0883362
0.00779006
-0.0875148
0.0877664
0.00759922
-0.0870115
0.0872023
0.00746379
-0.086522
0.0866574
-0.0861147
0.0862042
0.0278354
-0.0668743
-0.0342323
0.0229856
-0.0764863
0.020762
-0.0828457
0.0190509
-0.0865315
0.0173499
-0.088414
0.0157118
-0.0893576
0.0142319
-0.089831
0.0129582
-0.0900234
0.0118837
-0.0900204
0.0109801
-0.0898763
0.0102187
-0.089632
0.00957612
-0.0893175
0.00903448
-0.0889548
0.00858042
-0.0885596
0.00820384
-0.0881428
0.00789713
-0.087712
0.00765451
-0.0872722
0.00747152
-0.0868285
0.00734359
-0.0863941
-0.0860288
0.0250968
-0.0683102
-0.0236608
0.024407
-0.0757965
0.0220695
-0.0805082
0.0193066
-0.0837685
0.0169085
-0.086016
0.015035
-0.0874841
0.0135742
-0.0883702
0.0123969
-0.0888461
0.0114191
-0.0890426
0.0105928
-0.08905
0.00988937
-0.0889286
0.00928995
-0.0887181
0.00878087
-0.0884458
0.00835179
-0.0881305
0.00799468
-0.0877857
0.00770333
-0.0874206
0.00747299
-0.0870419
0.0072999
-0.0866554
0.00717968
-0.0862739
-0.0859506
0.0173491
-0.0700936
-0.0155657
0.0170731
-0.0755206
0.0163204
-0.0797555
0.0154736
-0.0829217
0.0145491
-0.0850915
0.0135643
-0.0864992
0.0125847
-0.0873907
0.011668
-0.0879294
0.010843
-0.0882176
0.0101163
-0.0883233
0.00948329
-0.0882956
0.00893618
-0.088171
0.008467
-0.0879766
0.00806878
-0.0877323
0.00773576
-0.0874527
0.00746331
-0.0871482
0.00724778
-0.0868264
0.00708616
-0.0864938
0.00697483
-0.0861625
-0.0858798
0.0141824
-0.0727228
-0.0115532
0.0151798
-0.076518
0.0151534
-0.0797291
0.0144831
-0.0822513
0.0135467
-0.0841552
0.0125888
-0.0855413
0.0117029
-0.0865048
0.0109075
-0.0871339
0.0101979
-0.0875081
0.00956748
-0.0876929
0.00901049
-0.0877386
0.00852232
-0.0876828
0.00809878
-0.087553
0.00773607
-0.0873696
0.00743079
-0.0871474
0.00717999
-0.0868974
0.00698127
-0.0866276
0.00683249
-0.086345
0.0067308
-0.0860608
-0.0858165
0.010804
-0.0748737
-0.00865313
0.0118021
-0.0775161
0.0120883
-0.0800152
0.0119781
-0.0821412
0.0116421
-0.0838192
0.0111668
-0.0850659
0.0106164
-0.0859544
0.0100439
-0.0865614
0.00948584
-0.08695
0.00896341
-0.0871704
0.00848694
-0.0872621
0.00806055
-0.0872564
0.00768521
-0.0871777
0.00736037
-0.0870448
0.00708488
-0.0868719
0.00685743
-0.0866699
0.00667677
-0.086447
0.00654164
-0.0862099
0.00644993
-0.0859691
-0.0857605
0.00874269
-0.0768644
-0.00675197
0.00996655
-0.07874
0.0105508
-0.0805995
0.0106604
-0.0822508
0.0104639
-0.0836227
0.010103
-0.084705
0.00966856
-0.08552
0.00921143
-0.0861043
0.00875928
-0.0864979
0.00832778
-0.0867389
0.0079263
-0.0868607
0.00756054
-0.0868907
0.00723376
-0.0868509
0.00694765
-0.0867587
0.0067029
-0.0866272
0.00649963
-0.0864667
0.00633767
-0.086285
0.00621659
-0.0860888
0.00613493
-0.0858875
-0.0857116
0.007024
-0.078476
-0.00541241
0.00810171
-0.0798177
0.00872222
-0.08122
0.00899807
-0.0825266
0.00902888
-0.0836535
0.00889305
-0.0845692
0.00864941
-0.0852763
0.00834299
-0.0857978
0.0080078
-0.0861627
0.00766789
-0.086399
0.00733922
-0.086532
0.00703195
-0.0865834
0.00675237
-0.0865713
0.00650431
-0.0865106
0.00629006
-0.0864129
0.00611094
-0.0862876
0.0059677
-0.0861418
0.00586059
-0.0859817
0.0057888
-0.0858157
-0.0856695
0.00576835
-0.0798768
-0.00436755
0.00679742
-0.0808468
0.00746371
-0.0818863
0.00782208
-0.082885
0.00794305
-0.0837745
0.00789672
-0.0845229
0.00774246
-0.0851221
0.00752361
-0.085579
0.00727024
-0.0859093
0.00700331
-0.0861321
0.00673757
-0.0862663
0.00648336
-0.0863292
0.00624787
-0.0863359
0.00603602
-0.0862988
0.00585116
-0.0862281
0.00569549
-0.0861319
0.00557048
-0.0860167
0.00547697
-0.0858882
0.00541464
-0.0857534
-0.0856336
0.00476089
-0.0810259
-0.0036118
0.00564552
-0.0817314
0.00626537
-0.0825061
0.0066517
-0.0832713
0.00684796
-0.0839708
0.00689795
-0.0845729
0.00684121
-0.0850653
0.00671156
-0.0854493
0.00653621
-0.085734
0.00633622
-0.0859321
0.00612743
-0.0860575
0.00592137
-0.0861231
0.0057263
-0.0861408
0.00554807
-0.0861205
0.00539079
-0.0860708
0.00525732
-0.0859984
0.00514965
-0.0859091
0.00506904
-0.0858076
0.00501561
-0.0856999
-0.0856034
0.00394988
-0.0820084
-0.00296736
0.0047377
-0.0825192
0.00531941
-0.0830879
0.00570876
-0.0836606
0.00593353
-0.0841955
0.00602702
-0.0846663
0.00602205
-0.0850604
0.00594747
-0.0853747
0.00582683
-0.0856133
0.0056785
-0.0857838
0.00551664
-0.0858956
0.00535203
-0.0859585
0.0051928
-0.0859816
0.00504498
-0.0859727
0.00491301
-0.0859388
0.00480011
-0.0858855
0.00470859
-0.0858176
0.00464001
-0.085739
0.00459479
-0.0856547
-0.0855783
0.00328678
-0.0828198
-0.00247539
0.0039557
-0.0831881
0.00447106
-0.0836032
0.00483822
-0.0840278
0.00507362
-0.0844309
0.00519889
-0.0847916
0.00523682
-0.0850983
0.005209
-0.0853469
0.00513465
-0.085539
0.00502998
-0.0856791
0.00490806
-0.0857737
0.00477921
-0.0858297
0.00465137
-0.0858537
0.0045306
-0.0858519
0.00442143
-0.0858296
0.00432723
-0.0857913
0.00425049
-0.0857408
0.00419291
-0.0856814
0.00415517
-0.085617
-0.0855579
0.00272097
-0.0835035
-0.00203725
0.00329628
-0.0837634
0.00375189
-0.0840588
0.00408877
-0.0843647
0.00431698
-0.0846591
0.00445181
-0.0849264
0.00451069
-0.0851572
0.0045109
-0.0853471
0.00446815
-0.0854962
0.004396
-0.085607
0.00430572
-0.0856834
0.00420641
-0.0857304
0.00410531
-0.0857526
0.00400808
-0.0857547
0.00391909
-0.0857406
0.00384165
-0.0857139
0.00377823
-0.0856774
0.00373058
-0.0856338
0.00369952
-0.0855859
-0.0855414
0.00224065
-0.084063
-0.00168121
0.00271946
-0.0842423
0.00310803
-0.0844474
0.003405
-0.0846617
0.00361584
-0.08487
0.00375054
-0.0850611
0.00382133
-0.0852279
0.00384103
-0.0853668
0.00382193
-0.0854771
0.00377517
-0.0855602
0.00371032
-0.0856186
0.00363539
-0.0856554
0.00355687
-0.0856741
0.00347991
-0.0856777
0.00340856
-0.0856693
0.00334593
-0.0856513
0.00329437
-0.0856258
0.00325559
-0.085595
0.00323045
-0.0855608
-0.0855285
0.00181337
-0.0845208
-0.00135559
0.00220954
-0.0846384
0.002536
-0.0847739
0.00279076
-0.0849164
0.002977
-0.0850562
0.00310154
-0.0851857
0.00317332
-0.0852997
0.00320213
-0.0853956
0.0031976
-0.0854726
0.00316865
-0.0855312
0.0031231
-0.085573
0.00306763
-0.0856
0.00300777
-0.0856142
0.00294802
-0.085618
0.00289192
-0.0856132
0.00284227
-0.0856016
0.0028012
-0.0855848
0.00277026
-0.085564
0.00275032
-0.0855408
-0.0855185
0.00143462
-0.084881
-0.00107434
0.00174965
-0.0849534
0.00201301
-0.0850372
0.00222236
-0.0851258
0.00237918
-0.085213
0.00248785
-0.0852944
0.00255458
-0.0853665
0.00258647
-0.0854275
0.00259076
-0.0854769
0.00257434
-0.0855148
0.00254344
-0.0855421
0.00250347
-0.08556
0.00245901
-0.0855698
0.0024138
-0.0855728
0.00237085
-0.0855702
0.00233253
-0.0855633
0.00230069
-0.0855529
0.00227667
-0.08554
0.00226128
-0.0855254
-0.0855111
0.00108497
-0.0851556
-0.000810437
0.00132654
-0.085195
0.00153013
-0.0852408
0.00169374
-0.0852894
0.00181818
-0.0853375
0.00190635
-0.0853825
0.00196257
-0.0854227
0.00199194
-0.0854569
0.00199976
-0.0854847
0.00199116
-0.0855062
0.00197087
-0.0855218
0.00194302
-0.0855321
0.00191116
-0.0855379
0.00187823
-0.0855399
0.00184662
-0.0855386
0.00181824
-0.0855349
0.00179456
-0.0855292
0.00177667
-0.0855221
0.00176527
-0.085514
-0.0855059
0.00076098
-0.0853474
-0.000569172
0.000930937
-0.085365
0.00107513
-0.085385
0.00119206
-0.0854063
0.00128204
-0.0854275
0.00134684
-0.0854473
0.00138923
-0.0854651
0.00141259
-0.0854803
0.00142052
-0.0854926
0.00141654
-0.0855022
0.00140396
-0.0855092
0.00138571
-0.0855139
0.00136432
-0.0855165
0.00134192
-0.0855175
0.00132025
-0.085517
0.00130069
-0.0855153
0.00128432
-0.0855129
0.00127194
-0.0855097
0.00126408
-0.0855062
-0.0855025
0.000451292
-0.0854629
-0.000335803
0.000552939
-0.0854666
0.000639332
-0.0854714
0.000709648
-0.0854766
0.000764056
-0.0854819
0.000803539
-0.0854868
0.000829684
-0.0854912
0.000844442
-0.085495
0.000849918
-0.0854981
0.000848197
-0.0855005
0.000841232
-0.0855023
0.000830776
-0.0855034
0.000818349
-0.0855041
0.000805236
-0.0855043
0.000792496
-0.0855042
0.000780973
-0.0855038
0.000771314
-0.0855032
0.000763999
-0.0855024
0.000759359
-0.0855015
-0.0855006
0.000150751
-0.000113627
0.000184127
0.00021273
0.000236111
0.000254253
0.000267453
0.000276225
0.000281207
0.000283095
0.000282577
0.000280305
0.000276862
0.000272757
0.000268417
0.000264193
0.000260369
0.00025716
0.000254729
0.000253198
-0.0380713
-0.00704317
0.0451145
-0.031947
-0.00612427
-0.0264778
-0.00546923
-0.0215113
-0.00496648
-0.0169389
-0.00457241
-0.0126732
-0.00426572
-0.00863989
-0.00403328
-0.00477431
-0.00386559
-0.00101808
-0.00375623
0.00268306
-0.00370114
0.00638131
-0.00369824
0.0101286
-0.00374729
0.0139785
-0.00384987
0.0179881
-0.00400968
0.0222211
-0.00423299
0.0267507
-0.0045296
0.0316649
-0.00491417
0.0370783
-0.00541339
0.0431606
-0.00608227
-0.00707774
-0.0235154
-0.00911148
0.0255837
-0.0209884
-0.00865125
-0.0182133
-0.00824432
-0.0152826
-0.00789727
-0.0122464
-0.00760857
-0.009137
-0.00737512
-0.00597648
-0.00719381
-0.00278011
-0.00706195
0.000441175
-0.00697751
0.00367919
-0.00693915
0.00692715
-0.00694621
0.0101786
-0.00699876
0.0134264
-0.0070976
0.0166611
-0.00724439
0.0198699
-0.00744187
0.0230345
-0.00769416
0.0261277
-0.00800739
0.0291052
-0.00839085
0.0318837
-0.00886079
-0.00942629
-0.0148675
-0.0103741
0.0161301
-0.0133651
-0.0101537
-0.0116573
-0.00995208
-0.00978237
-0.00977222
-0.00777462
-0.00961632
-0.00566353
-0.00948621
-0.00347398
-0.00938336
-0.00122703
-0.0093089
0.00105913
-0.00926367
0.00336826
-0.00924828
0.00568521
-0.00926316
0.00799506
-0.00930861
0.0102823
-0.00938482
0.0125298
-0.0094919
0.0147178
-0.00962986
0.0168223
-0.00979862
0.018813
-0.00999814
0.020651
-0.0102289
0.0222834
-0.0104931
-0.0108037
-0.00880362
-0.0113678
0.0097973
-0.00772377
-0.0112335
-0.00656544
-0.0111104
-0.00533697
-0.0110007
-0.00404717
-0.0109061
-0.00270538
-0.010828
-0.00132136
-0.0107674
9.47104e-05
-0.010725
0.00153238
-0.0107013
0.00298098
-0.0106969
0.00442966
-0.0107118
0.00586743
-0.0107464
0.00728312
-0.0108005
0.00866541
-0.0108742
0.0100028
-0.0109672
0.0112836
-0.0110794
0.0124958
-0.0112103
0.0136266
-0.0113597
0.014661
-0.0115275
-0.0117085
-0.00611855
-0.0121064
0.00685716
-0.00532141
-0.0120307
-0.0044696
-0.0119622
-0.00356838
-0.0119019
-0.002624
-0.0118505
-0.00164334
-0.0118087
-0.000633659
-0.0117771
0.00039755
-0.0117562
0.00144264
-0.0117464
0.00249385
-0.0117481
0.00354332
-0.0117613
0.0045831
-0.0117862
0.00560512
-0.0118225
0.00660114
-0.0118702
0.00756279
-0.0119289
0.00848146
-0.0119981
0.00934838
-0.0120773
0.0101545
-0.0121658
0.0108902
-0.0122632
-0.0123714
-0.00407703
-0.0126996
0.00467023
-0.00345706
-0.0126506
-0.00281263
-0.0126067
-0.00214629
-0.0125683
-0.00146088
-0.0125359
-0.000759518
-0.01251
-4.55721e-05
-0.012491
0.000677379
-0.0124791
0.00140558
-0.0124746
0.00213514
-0.0124776
0.00286208
-0.0124883
0.0035824
-0.0125065
0.00429213
-0.0125323
0.00498736
-0.0125654
0.00566432
-0.0126058
0.00631942
-0.0126532
0.00694931
-0.0127071
0.00755081
-0.0127673
0.00812101
-0.0128334
-0.0129035
-0.00297534
-0.0131606
0.00343632
-0.00249574
-0.0131302
-0.00199898
-0.0131034
-0.00148681
-0.0130804
-0.000961263
-0.0130614
-0.000424593
-0.0130467
0.00012075
-0.0130363
0.000672164
-0.0130305
0.00122693
-0.0130294
0.00178224
-0.013033
0.00233524
-0.0130413
0.00288306
-0.0130543
0.00342283
-0.013072
0.0039517
-0.0130943
0.00446691
-0.0131211
0.00496579
-0.0131521
0.00544579
-0.0131871
0.00590453
-0.0132261
0.00633978
-0.0132687
-0.0133157
-0.00215897
-0.0135365
0.00253494
-0.00177304
-0.0135161
-0.00137821
-0.0134983
-0.000975608
-0.013483
-0.000566442
-0.0134706
-0.000151994
-0.0134611
0.000266387
-0.0134547
0.000687301
-0.0134515
0.0011093
-0.0134514
0.00153093
-0.0134546
0.00195069
-0.013461
0.0023671
-0.0134707
0.00277872
-0.0134836
0.00318411
-0.0134997
0.00358191
-0.0135188
0.0039708
-0.013541
0.00434957
-0.0135659
0.00471705
-0.0135936
0.00507215
-0.0136238
-0.013656
-0.00163958
-0.0138381
0.0019411
-0.00133109
-0.0138246
-0.00101633
-0.013813
-0.000696097
-0.0138033
-0.000371227
-0.0137955
-4.26455e-05
-0.0137897
0.000288674
-0.013786
0.000621709
-0.0137845
0.000955403
-0.0137851
0.00128868
-0.0137879
0.00162044
-0.0137928
0.00194959
-0.0137999
0.00227506
-0.0138091
0.00259578
-0.0138204
0.00291072
-0.0138338
0.00321891
-0.0138491
0.00351942
-0.0138664
0.0038114
-0.0138855
0.00409405
-0.0139064
-0.0139295
-0.00125705
-0.0140874
0.00150636
-0.00100354
-0.0140781
-0.000746329
-0.0140702
-0.000485975
-0.0140636
-0.000223041
-0.0140584
4.18836e-05
-0.0140546
0.00030819
-0.0140524
0.000575256
-0.0140516
0.00084245
-0.0140523
0.00110913
-0.0140545
0.00137467
-0.0140583
0.00163841
-0.0140636
0.00189975
-0.0140704
0.00215806
-0.0140787
0.00241274
-0.0140885
0.00266322
-0.0140996
0.00290895
-0.0141122
0.00314939
-0.014126
0.00338403
-0.0141411
-0.0141573
-0.00098324
-0.0142911
0.00118697
-0.000776548
-0.0142848
-0.000567248
-0.0142795
-0.000355727
-0.0142751
-0.000142392
-0.0142717
7.23301e-05
-0.0142694
0.000287995
-0.014268
0.000504144
-0.0142677
0.00072031
-0.0142685
0.00093602
-0.0142702
0.0011508
-0.0142731
0.00136417
-0.014277
0.00157566
-0.0142819
0.00178482
-0.0142879
0.00199119
-0.0142948
0.00219435
-0.0143028
0.00239389
-0.0143117
0.00258942
-0.0143215
0.00278057
-0.0143322
-0.014344
-0.00077693
-0.0144603
0.000946158
-0.000605741
-0.014456
-0.000432862
-0.0144524
-0.000258574
-0.0144494
-8.3164e-05
-0.0144472
9.30703e-05
-0.0144456
0.000269826
-0.0144448
0.000446796
-0.0144447
0.000623669
-0.0144453
0.000800134
-0.0144467
0.000975877
-0.0144488
0.00115059
-0.0144517
0.00132396
-0.0144553
0.0014957
-0.0144596
0.0016655
-0.0144646
0.00183307
-0.0144704
0.00199814
-0.0144768
0.00216043
-0.0144838
0.00231968
-0.0144915
-0.0144997
-0.000616671
-0.014599
0.000755384
-0.000476562
-0.0145961
-0.000335251
-0.0145937
-0.000192943
-0.0145917
-4.98498e-05
-0.0145903
9.38106e-05
-0.0145893
0.000237814
-0.0145888
0.000381932
-0.0145888
0.000525933
-0.0145893
0.000669584
-0.0145904
0.000812652
-0.0145919
0.000954904
-0.014594
0.00109611
-0.0145965
0.00123605
-0.0145996
0.00137449
-0.0146031
0.00151123
-0.0146071
0.00164606
-0.0146116
0.00177877
-0.0146165
0.00190919
-0.0146219
-0.0146278
-0.000490384
-0.014713
0.000604381
-0.000375412
-0.0147111
-0.000259614
-0.0147095
-0.000143142
-0.0147082
-2.61495e-05
-0.0147072
9.12032e-05
-0.0147066
0.000208755
-0.0147063
0.000326344
-0.0147064
0.000443806
-0.0147068
0.000560976
-0.0147075
0.000677689
-0.0147086
0.000793783
-0.0147101
0.000909094
-0.0147118
0.00102346
-0.0147139
0.00113673
-0.0147164
0.00124875
-0.0147191
0.00135936
-0.0147222
0.00146842
-0.0147256
0.00157578
-0.0147293
-0.0147332
-0.0003859
-0.0148047
0.00047756
-0.000293544
-0.0148035
-0.000200599
-0.0148024
-0.000107177
-0.0148016
-1.33932e-05
-0.014801
8.06354e-05
-0.0148006
0.00017479
-0.0148005
0.000268949
-0.0148005
0.000362992
-0.0148008
0.000456796
-0.0148013
0.000550239
-0.0148021
0.000643199
-0.014803
0.000735557
-0.0148042
0.000827193
-0.0148056
0.000917991
-0.0148072
0.00100784
-0.014809
0.00109662
-0.014811
0.00118423
-0.0148132
0.00127057
-0.0148156
-0.0148183
-0.000298634
-0.0148771
0.000371053
-0.000225722
-0.0148764
-0.000152398
-0.0148758
-7.8744e-05
-0.0148753
-4.84426e-06
-0.0148749
6.92159e-05
-0.0148747
0.00014335
-0.0148746
0.000217471
-0.0148747
0.000291492
-0.0148748
0.000365323
-0.0148752
0.000438879
-0.0148756
0.000512072
-0.0148762
0.000584814
-0.0148769
0.00065702
-0.0148778
0.000728607
-0.0148787
0.00079949
-0.0148798
0.000869588
-0.0148811
0.000938821
-0.0148824
0.00100711
-0.0148839
-0.0148855
-0.00022213
-0.0149317
0.000276668
-0.000167251
-0.0149313
-0.000112087
-0.0149309
-5.66969e-05
-0.0149307
-1.14065e-06
-0.0149305
5.45212e-05
-0.0149304
0.000110227
-0.0149303
0.000165916
-0.0149304
0.000221524
-0.0149305
0.00027699
-0.0149306
0.000332252
-0.0149309
0.000387247
-0.0149312
0.000441914
-0.0149316
0.000496192
-0.014932
0.000550022
-0.0149326
0.000603343
-0.0149332
0.000656098
-0.0149338
0.000708232
-0.0149346
0.000759688
-0.0149353
-0.0149362
-0.000153948
-0.0149699
0.000192188
-0.000115482
-0.0149697
-7.6831e-05
-0.0149696
-3.80328e-05
-0.0149695
8.71902e-07
-0.0149694
3.98424e-05
-0.0149693
7.88376e-05
-0.0149693
0.000117816
-0.0149693
0.000156736
-0.0149694
0.000195556
-0.0149695
0.000234234
-0.0149696
0.00027273
-0.0149697
0.000311001
-0.0149699
0.000349007
-0.0149701
0.000386708
-0.0149703
0.000424063
-0.0149705
0.000461031
-0.0149708
0.000497572
-0.0149711
0.000533645
-0.0149714
-0.0149718
-9.04995e-05
-0.0149925
0.000113064
-6.78076e-05
-0.0149924
-4.50107e-05
-0.0149924
-2.21319e-05
-0.0149923
8.05692e-07
-0.0149923
2.37784e-05
-0.0149923
4.67625e-05
-0.0149923
6.97339e-05
-0.0149923
9.26686e-05
-0.0149923
0.000115542
-0.0149923
0.000138331
-0.0149923
0.000161012
-0.0149924
0.00018356
-0.0149924
0.000205952
-0.0149924
0.000228165
-0.0149925
0.000250176
-0.0149925
0.000271963
-0.0149926
0.000293502
-0.0149926
0.000314767
-0.0149927
-0.0149928
-3.00444e-05
3.75883e-05
-2.24573e-05
-1.48347e-05
-7.18337e-06
4.89455e-07
8.17656e-06
1.58707e-05
2.35648e-05
3.12517e-05
3.89245e-05
4.65768e-05
5.4202e-05
6.17943e-05
6.93485e-05
7.68598e-05
8.43246e-05
9.17401e-05
9.91048e-05
0.00010642
-0.0245348
-0.0144568
0.0153454
0.0236462
-0.0255215
-0.0143734
0.0153601
-0.0266568
-0.0142726
0.0154079
-0.0279595
-0.0141685
0.0154712
-0.0294446
-0.0140639
0.0155491
-0.0311208
-0.0139615
0.0156377
-0.0329865
-0.0138634
0.0157292
-0.035027
-0.0137702
0.0158106
-0.0372109
-0.01368
0.015864
-0.0394889
-0.0135874
0.0158654
-0.0417921
-0.013483
0.0157862
-0.044034
-0.0133522
0.0155941
-0.0461125
-0.0131754
0.0152538
-0.0479138
-0.012928
0.0147293
-0.0493168
-0.0125811
0.0139841
-0.0501934
-0.0121033
0.0129798
-0.0504036
-0.0114636
0.0116738
-0.0497837
-0.0106328
0.010013
-0.048133
-0.00957752
0.00792683
-0.00825489
0.00523631
-0.0176689
-0.0142603
0.0174723
-0.0178781
-0.0141641
-0.0180904
-0.0140603
-0.0183177
-0.0139413
-0.0185755
-0.0138062
-0.018883
-0.0136539
-0.0192623
-0.0134842
-0.0197353
-0.0132972
-0.0203215
-0.0130938
-0.0210335
-0.0128755
-0.0218729
-0.0126436
-0.0228258
-0.0123992
-0.0238591
-0.0121421
-0.0249167
-0.0118703
-0.0259185
-0.0115793
-0.0267591
-0.0112626
-0.0273104
-0.0109123
-0.027424
-0.0105193
-0.0269241
-0.0100774
-0.00959528
-0.0188023
-0.0139609
0.0185028
-0.0190883
-0.0138782
-0.0193618
-0.0137867
-0.0196138
-0.0136893
-0.0198351
-0.0135848
-0.0200173
-0.0134718
-0.0201527
-0.0133488
-0.0202356
-0.0132143
-0.0202629
-0.0130665
-0.0202343
-0.0129041
-0.0201517
-0.0127262
-0.0200186
-0.0125324
-0.0198376
-0.0123231
-0.0196084
-0.0120995
-0.0193241
-0.0118636
-0.0189688
-0.011618
-0.0185153
-0.0113658
-0.017924
-0.0111106
-0.0171445
-0.0108569
-0.0106097
-0.0138353
-0.0138741
0.0137486
-0.0139275
-0.013786
-0.0140208
-0.0136934
-0.0141139
-0.0135962
-0.0142042
-0.0134945
-0.0142876
-0.0133885
-0.014358
-0.0132784
-0.0144078
-0.0131645
-0.0144274
-0.0130468
-0.0144061
-0.0129254
-0.0143322
-0.0128001
-0.0141938
-0.0126708
-0.0139797
-0.0125372
-0.01368
-0.0123992
-0.0132868
-0.0122568
-0.0127943
-0.0121105
-0.0121991
-0.011961
-0.0114999
-0.0118098
-0.010698
-0.0116588
-0.0115105
-0.0126499
-0.0139081
0.0126839
-0.0125954
-0.0138404
-0.0125203
-0.0137686
-0.0124233
-0.0136932
-0.0123034
-0.0136143
-0.01216
-0.0135319
-0.0119925
-0.0134459
-0.0118006
-0.0133564
-0.0115838
-0.0132636
-0.0113412
-0.013168
-0.0110716
-0.0130698
-0.0107727
-0.0129696
-0.0104418
-0.0128681
-0.0100749
-0.012766
-0.0096676
-0.0126642
-0.00921474
-0.0125634
-0.00871127
-0.0124645
-0.00815259
-0.0123685
-0.00753519
-0.0122762
-0.0121885
-0.010078
-0.0139652
0.0101351
-0.0100107
-0.0139077
-0.00993096
-0.0138484
-0.00983652
-0.0137877
-0.00972513
-0.0137257
-0.00959437
-0.0136626
-0.00944176
-0.0135985
-0.00926479
-0.0135334
-0.00906103
-0.0134674
-0.00882824
-0.0134007
-0.00856445
-0.0133336
-0.00826803
-0.013266
-0.00793779
-0.0131983
-0.00757297
-0.0131308
-0.0071733
-0.0130638
-0.00673891
-0.0129977
-0.00627036
-0.012933
-0.00576853
-0.0128703
-0.00523465
-0.01281
-0.0127529
-0.00860692
-0.0140819
0.00872361
-0.00847748
-0.0140371
-0.00833468
-0.0139912
-0.00817824
-0.0139441
-0.00800785
-0.0138961
-0.00782317
-0.0138473
-0.00762383
-0.0137978
-0.0074094
-0.0137478
-0.00717938
-0.0136974
-0.00693319
-0.0136469
-0.00667019
-0.0135966
-0.00638964
-0.0135465
-0.00609079
-0.0134972
-0.00577288
-0.0134487
-0.00543518
-0.0134015
-0.00507711
-0.0133558
-0.00469824
-0.0133119
-0.00429837
-0.0132702
-0.00387759
-0.0132308
-0.0131942
-0.00712208
-0.0141948
0.00723497
-0.00699932
-0.0141599
-0.00686611
-0.0141244
-0.0067217
-0.0140885
-0.00656537
-0.0140525
-0.00639643
-0.0140163
-0.00621427
-0.01398
-0.00601832
-0.0139437
-0.00580811
-0.0139076
-0.00558327
-0.0138718
-0.00534356
-0.0138363
-0.00508883
-0.0138013
-0.00481908
-0.0137669
-0.00453442
-0.0137334
-0.00423509
-0.0137008
-0.00392146
-0.0136694
-0.00359399
-0.0136394
-0.00325328
-0.0136109
-0.00290001
-0.0135841
-0.0135592
-0.00598738
-0.0143194
0.00611196
-0.00585487
-0.0142924
-0.00571397
-0.0142653
-0.00556456
-0.0142379
-0.0054065
-0.0142105
-0.00523969
-0.0141831
-0.00506398
-0.0141557
-0.00487927
-0.0141285
-0.00468543
-0.0141015
-0.00448235
-0.0140748
-0.00426996
-0.0140487
-0.00404816
-0.0140231
-0.00381692
-0.0139982
-0.00357623
-0.0139741
-0.00332614
-0.0139509
-0.00306677
-0.0139288
-0.00279828
-0.0139079
-0.00252093
-0.0138882
-0.00223506
-0.01387
-0.0138532
-0.00502583
-0.014434
0.00514042
-0.00490456
-0.0144137
-0.00477656
-0.0143933
-0.00464163
-0.0143729
-0.0044996
-0.0143525
-0.00435033
-0.0143323
-0.00419369
-0.0143123
-0.0040296
-0.0142925
-0.00385801
-0.0142731
-0.00367893
-0.0142539
-0.00349239
-0.0142352
-0.00329848
-0.014217
-0.00309732
-0.0141993
-0.00288909
-0.0141823
-0.002674
-0.014166
-0.00245233
-0.0141505
-0.00222436
-0.0141358
-0.00199045
-0.0141221
-0.00175098
-0.0141094
-0.0140978
-0.00421253
-0.0145427
0.00432131
-0.0040988
-0.0145274
-0.00397992
-0.0145121
-0.00385584
-0.0144969
-0.00372655
-0.0144818
-0.00359204
-0.0144669
-0.00345229
-0.0144521
-0.00330733
-0.0144375
-0.00315718
-0.0144232
-0.00300186
-0.0144092
-0.00284144
-0.0143956
-0.00267599
-0.0143824
-0.00250559
-0.0143697
-0.00233036
-0.0143576
-0.00215043
-0.0143459
-0.00196596
-0.014335
-0.00177715
-0.0143246
-0.00158421
-0.0143151
-0.00138739
-0.0143062
-0.0142982
-0.00353793
-0.0146395
0.00363467
-0.00343703
-0.0146283
-0.00333203
-0.0146172
-0.00322288
-0.0146061
-0.00310957
-0.0145951
-0.00299209
-0.0145843
-0.00287046
-0.0145737
-0.0027447
-0.0145633
-0.00261484
-0.0145531
-0.00248095
-0.0145431
-0.00234311
-0.0145335
-0.0022014
-0.0145242
-0.00205595
-0.0145152
-0.00190688
-0.0145066
-0.00175435
-0.0144985
-0.00159851
-0.0144908
-0.00143957
-0.0144836
-0.00127772
-0.0144769
-0.00111317
-0.0144708
-0.0144653
-0.00294247
-0.0147254
0.00302843
-0.00285345
-0.0147173
-0.0027613
-0.0147093
-0.00266601
-0.0147014
-0.00256761
-0.0146935
-0.00246612
-0.0146858
-0.00236157
-0.0146782
-0.00225401
-0.0146708
-0.00214348
-0.0146636
-0.00203003
-0.0146566
-0.00191374
-0.0146498
-0.00179469
-0.0146432
-0.00167295
-0.0146369
-0.00154863
-0.0146309
-0.00142184
-0.0146253
-0.0012927
-0.0146199
-0.00116133
-0.014615
-0.00102788
-0.0146104
-0.000892513
-0.0146062
-0.0146024
-0.00243552
-0.0147991
0.00250923
-0.0023593
-0.0147936
-0.0022806
-0.014788
-0.00219945
-0.0147825
-0.00211586
-0.0147771
-0.00202985
-0.0147718
-0.00194146
-0.0147666
-0.00185073
-0.0147616
-0.0017577
-0.0147566
-0.00166243
-0.0147518
-0.00156498
-0.0147472
-0.00146543
-0.0147428
-0.00136385
-0.0147385
-0.00126033
-0.0147345
-0.00115496
-0.0147306
-0.00104786
-0.014727
-0.000939131
-0.0147237
-0.000828889
-0.0147206
-0.000717262
-0.0147178
-0.0147153
-0.00197531
-0.0148612
0.00203738
-0.00191139
-0.0148575
-0.00184561
-0.0148538
-0.00177798
-0.0148502
-0.00170853
-0.0148466
-0.00163728
-0.0148431
-0.00156426
-0.0148397
-0.00148951
-0.0148363
-0.00141307
-0.0148331
-0.00133498
-0.0148299
-0.00125531
-0.0148269
-0.0011741
-0.014824
-0.00109141
-0.0148212
-0.00100732
-0.0148186
-0.000921885
-0.0148161
-0.000835196
-0.0148137
-0.00074733
-0.0148116
-0.000658373
-0.0148096
-0.000568417
-0.0148077
-0.0148061
-0.00156728
-0.0149115
0.00161756
-0.00151554
-0.0149092
-0.00146238
-0.0149069
-0.00140781
-0.0149047
-0.00135186
-0.0149025
-0.00129454
-0.0149004
-0.00123589
-0.0148983
-0.00117594
-0.0148963
-0.00111471
-0.0148943
-0.00105226
-0.0148924
-0.000988611
-0.0148905
-0.00092382
-0.0148888
-0.000857936
-0.0148871
-0.000791011
-0.0148855
-0.000723103
-0.014884
-0.000654272
-0.0148826
-0.000584582
-0.0148812
-0.000514102
-0.01488
-0.000442901
-0.014879
-0.014878
-0.00118632
-0.0149504
0.00122519
-0.00114643
-0.0149491
-0.00110551
-0.0149479
-0.00106359
-0.0149466
-0.00102067
-0.0149455
-0.000976782
-0.0149443
-0.00093194
-0.0149432
-0.00088617
-0.014942
-0.000839499
-0.014941
-0.000791956
-0.0149399
-0.000743573
-0.0149389
-0.000694383
-0.014938
-0.000644422
-0.014937
-0.000593729
-0.0149362
-0.000542346
-0.0149354
-0.000490315
-0.0149346
-0.000437683
-0.0149339
-0.000384497
-0.0149332
-0.000330808
-0.0149326
-0.0149321
-0.000833302
-0.0149779
0.000860834
-0.000805024
-0.0149774
-0.000776035
-0.0149769
-0.000746347
-0.0149763
-0.000715976
-0.0149758
-0.000684937
-0.0149753
-0.000653246
-0.0149748
-0.000620922
-0.0149744
-0.000587983
-0.0149739
-0.000554451
-0.0149735
-0.000520347
-0.014973
-0.000485696
-0.0149726
-0.000450523
-0.0149722
-0.000414856
-0.0149718
-0.000378723
-0.0149715
-0.000342155
-0.0149712
-0.000305184
-0.0149709
-0.000267842
-0.0149706
-0.000230165
-0.0149703
-0.0149701
-0.000492908
-0.0149944
0.000509376
-0.000476069
-0.0149942
-0.000458813
-0.0149941
-0.000441152
-0.014994
-0.000423096
-0.0149939
-0.000404655
-0.0149938
-0.000385837
-0.0149937
-0.000366655
-0.0149935
-0.00034712
-0.0149934
-0.000327244
-0.0149933
-0.000307039
-0.0149932
-0.000286521
-0.0149931
-0.000265704
-0.014993
-0.000244605
-0.0149929
-0.000223239
-0.0149929
-0.000201625
-0.0149928
-0.000179781
-0.0149927
-0.000157726
-0.0149926
-0.000135481
-0.0149926
-0.0149925
-0.000165313
0.00017095
-0.00015953
-0.000153638
-0.000147635
-0.00014152
-0.000135291
-0.000128949
-0.000122496
-0.000115932
-0.000109262
-0.000102487
-9.5612e-05
-8.86409e-05
-8.15784e-05
-7.44295e-05
-6.71995e-05
-5.98942e-05
-5.25196e-05
-4.5082e-05
-0.0189417
-0.00470046
0.0236421
-0.0151708
-0.0037709
-0.0120923
-0.00307851
-0.00956012
-0.00253217
-0.00747311
-0.002087
-0.00575599
-0.00171712
-0.00435017
-0.00140582
-0.00320861
-0.00114156
-0.00229258
-0.000916025
-0.00156952
-0.000723057
-0.00101155
-0.000557973
-0.000594373
-0.000417179
-0.000296433
-0.000297939
-9.81892e-05
-0.000198244
1.85797e-05
-0.000116769
7.15284e-05
-5.29487e-05
7.91666e-05
-7.63824e-06
5.5931e-05
2.32356e-05
2.18052e-05
3.41258e-05
2.18052e-05
-0.0155961
-0.00619739
0.017093
-0.0139244
-0.00544255
-0.012235
-0.00476796
-0.0106037
-0.00416338
-0.00907174
-0.00361901
-0.00766096
-0.0031279
-0.00638222
-0.00268456
-0.00523927
-0.00228452
-0.0042312
-0.00192409
-0.00335402
-0.00160024
-0.00260154
-0.00131045
-0.00196611
-0.00105261
-0.00143904
-0.000825006
-0.00101104
-0.000626248
-0.000672516
-0.000455292
-0.000414024
-0.00031144
-0.00022734
-0.000194322
-0.000100245
-0.00010386
-2.57379e-05
-4.03809e-05
-3.93266e-06
-0.0122554
-0.00716314
0.0132211
-0.0111927
-0.0065052
-0.0100827
-0.00587797
-0.00896502
-0.0052811
-0.00786916
-0.00471488
-0.00681719
-0.00417987
-0.00582515
-0.0036766
-0.00490422
-0.00320544
-0.00406174
-0.00276657
-0.00330195
-0.00236002
-0.00262669
-0.00198572
-0.00203582
-0.00164348
-0.00152772
-0.00133311
-0.00109964
-0.00105432
-0.000748063
-0.000806869
-0.000469025
-0.000590479
-0.000258444
-0.000404903
-0.000112382
-0.000249922
-2.74307e-05
-0.000125332
-3.13634e-05
-0.00975138
-0.00797916
0.0105674
-0.00890744
-0.00734914
-0.0080545
-0.00673092
-0.00720735
-0.00612824
-0.00637852
-0.00554371
-0.00557861
-0.00497978
-0.00481656
-0.00443865
-0.0040997
-0.0039223
-0.00343387
-0.00343241
-0.00282346
-0.00297043
-0.00227161
-0.00253757
-0.00178028
-0.00213481
-0.00135045
-0.00176294
-0.0009822
-0.00142257
-0.000674924
-0.00111414
-0.000427437
-0.000837966
-0.000238124
-0.000594215
-0.00010508
-0.000382966
-2.62155e-05
-0.000204197
-5.75788e-05
-0.00872991
-0.00873649
0.00948724
-0.00796573
-0.00811333
-0.00720302
-0.00749362
-0.00645077
-0.0068805
-0.00571725
-0.00627723
-0.00500998
-0.00568705
-0.00433561
-0.00511302
-0.00369987
-0.00455804
-0.00310751
-0.00402477
-0.00256236
-0.00351558
-0.00206734
-0.00303259
-0.00162452
-0.00257763
-0.00123522
-0.00215224
-0.00090007
-0.00175772
-0.000619116
-0.0013951
-0.000391922
-0.00106516
-0.000217658
-0.00076848
-9.51967e-05
-0.000505427
-2.32143e-05
-0.000276179
-8.07932e-05
-0.00819359
-0.00947255
0.00892965
-0.00745826
-0.00884866
-0.00673102
-0.00822086
-0.00601869
-0.00759282
-0.00532776