/*--------------------------------*- C++ -*----------------------------------*\
| =========                 |                                                 |
| \\      /  F ield         | OpenFOAM: The Open Source CFD Toolbox           |
|  \\    /   O peration     | Version:  v1806                                 |
|   \\  /    A nd           | Web:      www.OpenFOAM.com                      |
|    \\/     M anipulation  |                                                 |
\*---------------------------------------------------------------------------*/
FoamFile
{
    version     2.0;
    format      ascii;
    class       volVectorField;
    location    "1";
    object      U;
}
// * * * * * * * * * * * * * * * * * * * * * * * * * * * * * * * * * * * * * //

dimensions      [0 1 -1 0 0 0 0];


internalField   nonuniform List<vector> 
2400
(
(2.91578 0.129727 0)
(3.15637 -0.177931 0)
(2.91745 -1.48503 0)
(2.45861 -2.5327 0)
(1.89224 -2.86929 0)
(1.37392 -2.75694 0)
(0.973895 -2.46243 0)
(0.677217 -2.13007 0)
(0.466865 -1.81311 0)
(0.320983 -1.52918 0)
(0.221256 -1.28286 0)
(0.153657 -1.07285 0)
(0.107911 -0.895559 0)
(0.0768341 -0.746786 0)
(0.0555563 -0.622359 0)
(0.0408283 -0.518447 0)
(0.0305087 -0.431647 0)
(0.0231906 -0.359007 0)
(0.0179112 -0.297975 0)
(0.0140533 -0.246578 0)
(2.9152 0.094282 0)
(3.11912 -0.172849 0)
(2.91908 -1.28807 0)
(2.52824 -2.20394 0)
(2.03986 -2.52745 0)
(1.56896 -2.47327 0)
(1.1891 -2.25608 0)
(0.888037 -1.98678 0)
(0.658387 -1.71578 0)
(0.48592 -1.46356 0)
(0.357857 -1.23867 0)
(0.263911 -1.04303 0)
(0.195542 -0.875342 0)
(0.145953 -0.73296 0)
(0.109958 -0.612804 0)
(0.083732 -0.511767 0)
(0.0645134 -0.426917 0)
(0.050345 -0.355614 0)
(0.0397728 -0.295498 0)
(0.0318316 -0.244709 0)
(2.93436 0.112891 0)
(3.13622 -0.159435 0)
(2.9176 -1.29635 0)
(2.47598 -2.22797 0)
(1.98283 -2.54841 0)
(1.52137 -2.45926 0)
(1.15073 -2.21582 0)
(0.864148 -1.93887 0)
(0.653326 -1.67073 0)
(0.498916 -1.42532 0)
(0.383803 -1.20782 0)
(0.296837 -1.01887 0)
(0.230633 -0.856771 0)
(0.180049 -0.718842 0)
(0.141328 -0.602122 0)
(0.111643 -0.503693 0)
(0.0888489 -0.42081 0)
(0.0713317 -0.350981 0)
(0.0577695 -0.291946 0)
(0.0472515 -0.241926 0)
(2.86418 0.0645805 0)
(3.1327 -0.155758 0)
(2.87659 -1.05688 0)
(2.5214 -1.89732 0)
(2.12814 -2.2398 0)
(1.72848 -2.22861 0)
(1.37344 -2.05699 0)
(1.06056 -1.82985 0)
(0.807824 -1.59509 0)
(0.615544 -1.37189 0)
(0.472099 -1.16915 0)
(0.36524 -0.990279 0)
(0.285042 -0.835282 0)
(0.224255 -0.702506 0)
(0.177759 -0.589609 0)
(0.141938 -0.494061 0)
(0.114197 -0.413369 0)
(0.0926619 -0.345215 0)
(0.0758088 -0.287434 0)
(0.062602 -0.238328 0)
(2.92568 0.0902169 0)
(3.122 -0.119192 0)
(2.86743 -1.15381 0)
(2.53225 -1.98948 0)
(2.07359 -2.26025 0)
(1.63044 -2.18209 0)
(1.30316 -1.98153 0)
(1.04547 -1.75259 0)
(0.834179 -1.52789 0)
(0.662256 -1.31792 0)
(0.524472 -1.12732 0)
(0.415691 -0.958211 0)
(0.330484 -0.8107 0)
(0.263863 -0.683578 0)
(0.211706 -0.574953 0)
(0.170789 -0.482661 0)
(0.138634 -0.404474 0)
(0.11338 -0.33826 0)
(0.0934249 -0.281942 0)
(0.0776686 -0.233916 0)
(2.90052 0.048301 0)
(3.07331 -0.125888 0)
(2.989 -0.874241 0)
(2.71498 -1.59861 0)
(2.33225 -1.95411 0)
(1.8935 -1.98441 0)
(1.50189 -1.85379 0)
(1.18093 -1.66256 0)
(0.930098 -1.4593 0)
(0.736624 -1.26401 0)
(0.586104 -1.08475 0)
(0.468237 -0.924668 0)
(0.375565 -0.784305 0)
(0.302452 -0.662798 0)
(0.244594 -0.55857 0)
(0.198719 -0.469728 0)
(0.162317 -0.394262 0)
(0.133504 -0.330203 0)
(0.110591 -0.275531 0)
(0.0924259 -0.228738 0)
(2.88578 0.0705735 0)
(3.13865 -0.0994095 0)
(2.83215 -0.999634 0)
(2.41231 -1.75431 0)
(2.04894 -1.98945 0)
(1.73223 -1.92077 0)
(1.46094 -1.75903 0)
(1.20726 -1.57365 0)
(0.981629 -1.38605 0)
(0.793138 -1.20584 0)
(0.639846 -1.03887 0)
(0.516637 -0.888445 0)
(0.418046 -0.755626 0)
(0.339201 -0.640027 0)
(0.276095 -0.54045 0)
(0.22557 -0.455297 0)
(0.185146 -0.382779 0)
(0.15296 -0.321092 0)
(0.127248 -0.268245 0)
(0.106843 -0.222845 0)
(2.90086 0.0388358 0)
(3.08191 -0.0954548 0)
(2.97077 -0.735402 0)
(2.78241 -1.38822 0)
(2.41294 -1.73094 0)
(1.96083 -1.76964 0)
(1.58603 -1.65574 0)
(1.28808 -1.49023 0)
(1.04643 -1.31608 0)
(0.85049 -1.148 0)
(0.691441 -0.991834 0)
(0.562571 -0.850505 0)
(0.458374 -0.725114 0)
(0.37419 -0.615502 0)
(0.306179 -0.520735 0)
(0.251281 -0.439465 0)
(0.207054 -0.370096 0)
(0.171685 -0.310989 0)
(0.143341 -0.260141 0)
(0.120895 -0.216302 0)
(2.88908 0.0492264 0)
(3.10142 -0.0760049 0)
(2.90286 -0.825995 0)
(2.55494 -1.48064 0)
(2.21604 -1.70609 0)
(1.89148 -1.67188 0)
(1.59962 -1.55122 0)
(1.33315 -1.40077 0)
(1.09896 -1.24255 0)
(0.90208 -1.08792 0)
(0.739278 -0.942888 0)
(0.605645 -0.810729 0)
(0.496427 -0.692837 0)
(0.40735 -0.589325 0)
(0.334785 -0.499522 0)
(0.275788 -0.422309 0)
(0.227972 -0.356279 0)
(0.189615 -0.299955 0)
(0.15881 -0.251278 0)
(0.134565 -0.209193 0)
(2.89059 0.0352501 0)
(3.09142 -0.0775825 0)
(2.94172 -0.657343 0)
(2.70309 -1.23759 0)
(2.37183 -1.5293 0)
(1.99177 -1.55438 0)
(1.66492 -1.45574 0)
(1.38785 -1.31698 0)
(1.15025 -1.17039 0)
(0.950433 -1.02728 0)
(0.783934 -0.892649 0)
(0.645986 -0.769412 0)
(0.532213 -0.658978 0)
(0.438649 -0.561632 0)
(0.361862 -0.476913 0)
(0.299033 -0.403911 0)
(0.247838 -0.341394 0)
(0.206689 -0.288055 0)
(0.173591 -0.241723 0)
(0.147849 -0.201624 0)
(2.8891 0.0331783 0)
(3.09014 -0.0571153 0)
(2.93347 -0.653556 0)
(2.6677 -1.21801 0)
(2.35226 -1.45041 0)
(2.00804 -1.44881 0)
(1.70176 -1.35544 0)
(1.43251 -1.23036 0)
(1.19631 -1.09696 0)
(0.994895 -0.965527 0)
(0.825348 -0.841127 0)
(0.683601 -0.72668 0)
(0.565724 -0.623673 0)
(0.468058 -0.532541 0)
(0.387368 -0.453005 0)
(0.320964 -0.384348 0)
(0.266588 -0.325506 0)
(0.222843 -0.275355 0)
(0.187612 -0.231548 0)
(0.160757 -0.19374 0)
(2.88767 0.0288168 0)
(3.08709 -0.0568074 0)
(2.94292 -0.575838 0)
(2.70055 -1.08321 0)
(2.39551 -1.32324 0)
(2.05039 -1.341 0)
(1.74345 -1.25996 0)
(1.47518 -1.14585 0)
(1.2389 -1.02371 0)
(1.03589 -0.903109 0)
(0.863653 -0.788536 0)
(0.718533 -0.682693 0)
(0.596962 -0.587057 0)
(0.495557 -0.502167 0)
(0.411268 -0.427893 0)
(0.341536 -0.363696 0)
(0.284165 -0.308676 0)
(0.238012 -0.261917 0)
(0.200782 -0.220838 0)
(0.173322 -0.185736 0)
(2.88692 0.0243759 0)
(3.08517 -0.0460447 0)
(2.94576 -0.529112 0)
(2.71031 -1.00653 0)
(2.41698 -1.22413 0)
(2.08125 -1.23776 0)
(1.77914 -1.16419 0)
(1.51348 -1.06108 0)
(1.27769 -0.950119 0)
(1.07346 -0.84002 0)
(0.898916 -0.734992 0)
(0.750818 -0.637586 0)
(0.625933 -0.549257 0)
(0.521132 -0.470617 0)
(0.433534 -0.401665 0)
(0.360707 -0.342023 0)
(0.300508 -0.29096 0)
(0.252126 -0.247802 0)
(0.212981 -0.20969 0)
(0.185616 -0.177874 0)
(2.88608 0.0212056 0)
(3.08321 -0.040465 0)
(2.95028 -0.477416 0)
(2.72445 -0.911684 0)
(2.44025 -1.11662 0)
(2.11062 -1.13487 0)
(1.81194 -1.06999 0)
(1.54836 -0.97699 0)
(1.31299 -0.876471 0)
(1.10776 -0.776405 0)
(0.93122 -0.680621 0)
(0.780498 -0.591482 0)
(0.652649 -0.510389 0)
(0.544773 -0.437995 0)
(0.454142 -0.374406 0)
(0.378441 -0.319393 0)
(0.315563 -0.272411 0)
(0.265107 -0.233056 0)
(0.224053 -0.198226 0)
(0.197775 -0.170509 0)
(2.88546 0.0180256 0)
(3.08163 -0.0340305 0)
(2.95376 -0.429633 0)
(2.73608 -0.826974 0)
(2.46064 -1.01585 0)
(2.137 -1.0344 0)
(1.84152 -0.976689 0)
(1.57982 -0.893242 0)
(1.34494 -0.802733 0)
(1.13889 -0.712335 0)
(0.960639 -0.625531 0)
(0.807612 -0.544496 0)
(0.677125 -0.470561 0)
(0.566477 -0.404398 0)
(0.473076 -0.346198 0)
(0.39471 -0.295867 0)
(0.329278 -0.253069 0)
(0.27686 -0.217712 0)
(0.233778 -0.186606 0)
(0.210049 -0.164137 0)
(2.88494 0.0152694 0)
(3.08024 -0.0285919 0)
(2.95704 -0.38385 0)
(2.7468 -0.742587 0)
(2.47883 -0.915666 0)
(2.16052 -0.935053 0)
(1.86804 -0.884289 0)
(1.60807 -0.809901 0)
(1.37366 -0.728961 0)
(1.16696 -0.647887 0)
(0.987241 -0.569816 0)
(0.8322 -0.496732 0)
(0.699376 -0.429877 0)
(0.586244 -0.36992 0)
(0.490328 -0.317116 0)
(0.40949 -0.271496 0)
(0.341605 -0.232965 0)
(0.287269 -0.201768 0)
(0.241847 -0.175052 0)
(0.222886 -0.159428 0)
(2.88453 0.0127453 0)
(3.07903 -0.0235686 0)
(2.95987 -0.340122 0)
(2.75636 -0.661111 0)
(2.49497 -0.817934 0)
(2.18147 -0.837197 0)
(1.8917 -0.792702 0)
(1.63323 -0.726911 0)
(1.39928 -0.65517 0)
(1.19206 -0.583119 0)
(1.01109 -0.513562 0)
(0.8543 -0.448285 0)
(0.719421 -0.388432 0)
(0.60408 -0.334648 0)
(0.505894 -0.287236 0)
(0.422768 -0.246325 0)
(0.352511 -0.21211 0)
(0.296173 -0.185157 0)
(0.247833 -0.163909 0)
(0.237073 -0.157503 0)
(2.88421 0.0104647 0)
(3.07793 -0.0190475 0)
(2.96236 -0.29834 0)
(2.76499 -0.581471 0)
(2.50914 -0.721756 0)
(2.19992 -0.740533 0)
(1.9126 -0.70183 0)
(1.65542 -0.644247 0)
(1.4219 -0.581381 0)
(1.21427 -0.518085 0)
(1.03225 -0.456841 0)
(0.873947 -0.39924 0)
(0.737279 -0.346314 0)
(0.619991 -0.298668 0)
(0.51978 -0.256628 0)
(0.434542 -0.220395 0)
(0.361991 -0.190488 0)
(0.303339 -0.167702 0)
(0.251128 -0.153606 0)
(0.253425 -0.160421 0)
(2.88393 0.00840893 0)
(3.07677 -0.0146799 0)
(2.96458 -0.258148 0)
(2.77276 -0.503553 0)
(2.5214 -0.626978 0)
(2.21599 -0.644917 0)
(1.93087 -0.611598 0)
(1.67474 -0.561889 0)
(1.44161 -0.507629 0)
(1.23367 -0.452852 0)
(1.05076 -0.399741 0)
(0.891173 -0.349694 0)
(0.752966 -0.30362 0)
(0.633989 -0.262069 0)
(0.531997 -0.225368 0)
(0.444826 -0.193748 0)
(0.370087 -0.168045 0)
(0.308434 -0.149091 0)
(0.251219 -0.145101 0)
(0.266885 -0.161868 0)
(2.88361 0.00631419 0)
(3.07562 -0.0106845 0)
(2.96663 -0.218953 0)
(2.77961 -0.427196 0)
(2.53174 -0.533355 0)
(2.22966 -0.549873 0)
(1.94647 -0.521808 0)
(1.6912 -0.479786 0)
(1.45843 -0.433912 0)
(1.25028 -0.387474 0)
(1.06665 -0.342351 0)
(0.905999 -0.299754 0)
(0.766495 -0.260465 0)
(0.646081 -0.224968 0)
(0.542562 -0.193567 0)
(0.45366 -0.166478 0)
(0.376921 -0.144712 0)
(0.310776 -0.128903 0)
(0.252654 -0.137615 0)
(0.245114 -0.192773 0)
(0.0123106 -0.221828 0)
(0.0119259 -0.216136 0)
(0.0115563 -0.210573 0)
(0.0111977 -0.205138 0)
(0.0108504 -0.199831 0)
(0.0105141 -0.194647 0)
(0.0101888 -0.189586 0)
(0.00987412 -0.184645 0)
(0.00956973 -0.179822 0)
(0.00927408 -0.175116 0)
(0.0281598 -0.220179 0)
(0.0273387 -0.214538 0)
(0.0265436 -0.209026 0)
(0.0257708 -0.20364 0)
(0.0250202 -0.198379 0)
(0.0242911 -0.19324 0)
(0.0235826 -0.188223 0)
(0.0228938 -0.183324 0)
(0.0222233 -0.178543 0)
(0.0215714 -0.173878 0)
(0.0422474 -0.217699 0)
(0.0411175 -0.212128 0)
(0.0400178 -0.206682 0)
(0.038944 -0.201359 0)
(0.0378959 -0.196157 0)
(0.0368729 -0.191076 0)
(0.0358742 -0.186114 0)
(0.0348988 -0.181268 0)
(0.0339449 -0.176539 0)
(0.0330137 -0.171923 0)
(0.056246 -0.214444 0)
(0.0548039 -0.208951 0)
(0.0533972 -0.203579 0)
(0.0520201 -0.198328 0)
(0.0506723 -0.193196 0)
(0.0493534 -0.188181 0)
(0.0480626 -0.183283 0)
(0.0467988 -0.1785 0)
(0.0455601 -0.173831 0)
(0.0443482 -0.169276 0)
(0.0700245 -0.210416 0)
(0.0682812 -0.205009 0)
(0.0665769 -0.199722 0)
(0.0649049 -0.194551 0)
(0.0632648 -0.189496 0)
(0.0616563 -0.184556 0)
(0.0600786 -0.179731 0)
(0.0585307 -0.175019 0)
(0.0570108 -0.17042 0)
(0.0555209 -0.165933 0)
(0.0835677 -0.205648 0)
(0.081535 -0.200334 0)
(0.0795426 -0.195135 0)
(0.0775841 -0.190049 0)
(0.0756586 -0.185077 0)
(0.073766 -0.180217 0)
(0.0719056 -0.17547 0)
(0.0700768 -0.170836 0)
(0.068278 -0.166313 0)
(0.0665112 -0.161903 0)
(0.0968647 -0.200172 0)
(0.0945564 -0.194951 0)
(0.0922857 -0.189841 0)
(0.090049 -0.184842 0)
(0.0878446 -0.179953 0)
(0.0856725 -0.175175 0)
(0.0835325 -0.170509 0)
(0.0814243 -0.165955 0)
(0.0793468 -0.161513 0)
(0.0773023 -0.157183 0)
(0.109918 -0.194026 0)
(0.10735 -0.18889 0)
(0.104811 -0.183865 0)
(0.102303 -0.178947 0)
(0.0998252 -0.174137 0)
(0.0973764 -0.169437 0)
(0.0949573 -0.164849 0)
(0.0925683 -0.160375 0)
(0.0902093 -0.156014 0)
(0.0878829 -0.151768 0)
(0.122749 -0.187248 0)
(0.119938 -0.182184 0)
(0.117139 -0.177227 0)
(0.114367 -0.172377 0)
(0.111618 -0.167635 0)
(0.108891 -0.163004 0)
(0.106189 -0.158486 0)
(0.103514 -0.154085 0)
(0.100865 -0.149803 0)
(0.0982479 -0.14564 0)
(0.135404 -0.179885 0)
(0.132371 -0.174861 0)
(0.129318 -0.169947 0)
(0.126282 -0.16514 0)
(0.123259 -0.160444 0)
(0.120248 -0.155862 0)
(0.117253 -0.1514 0)
(0.114278 -0.147062 0)
(0.111325 -0.142849 0)
(0.108399 -0.138766 0)
(0.147973 -0.171981 0)
(0.144735 -0.166946 0)
(0.141426 -0.162029 0)
(0.13812 -0.157227 0)
(0.134812 -0.152542 0)
(0.131501 -0.147981 0)
(0.128192 -0.14355 0)
(0.124892 -0.139255 0)
(0.121607 -0.135101 0)
(0.118345 -0.131089 0)
(0.1606 -0.163577 0)
(0.157171 -0.158449 0)
(0.153589 -0.153459 0)
(0.149992 -0.148602 0)
(0.146373 -0.143878 0)
(0.142729 -0.139294 0)
(0.139068 -0.134861 0)
(0.135402 -0.130585 0)
(0.131743 -0.12647 0)
(0.128102 -0.122519 0)
(0.173519 -0.154696 0)
(0.169895 -0.149344 0)
(0.165996 -0.14418 0)
(0.162061 -0.139183 0)
(0.158079 -0.13435 0)
(0.154043 -0.129688 0)
(0.149967 -0.125209 0)
(0.145872 -0.12092 0)
(0.141773 -0.116823 0)
(0.137688 -0.112922 0)
(0.187085 -0.145314 0)
(0.183223 -0.139542 0)
(0.178908 -0.134055 0)
(0.174542 -0.128808 0)
(0.170106 -0.123778 0)
(0.16558 -0.118973 0)
(0.160992 -0.1144 0)
(0.156371 -0.110065 0)
(0.151739 -0.105967 0)
(0.147122 -0.102106 0)
(0.201828 -0.135317 0)
(0.197604 -0.128826 0)
(0.192673 -0.122816 0)
(0.187708 -0.11718 0)
(0.182657 -0.111859 0)
(0.177487 -0.106847 0)
(0.172241 -0.102143 0)
(0.166959 -0.0977397 0)
(0.161671 -0.0936312 0)
(0.156411 -0.0898063 0)
(0.218517 -0.124351 0)
(0.213631 -0.116713 0)
(0.207709 -0.109934 0)
(0.201841 -0.103774 0)
(0.195916 -0.0980974 0)
(0.18987 -0.0928596 0)
(0.183766 -0.0880291 0)
(0.177655 -0.0835735 0)
(0.171568 -0.0794644 0)
(0.165553 -0.0756671 0)
(0.238135 -0.11159 0)
(0.23192 -0.102165 0)
(0.224335 -0.0943604 0)
(0.21707 -0.0876472 0)
(0.209876 -0.0817077 0)
(0.202642 -0.0764016 0)
(0.195453 -0.071636 0)
(0.188366 -0.0673378 0)
(0.18141 -0.0634604 0)
(0.174674 -0.0599571 0)
(0.26159 -0.0969215 0)
(0.252566 -0.0848153 0)
(0.242071 -0.075589 0)
(0.232597 -0.0682549 0)
(0.223571 -0.0621597 0)
(0.214742 -0.0569404 0)
(0.206174 -0.052352 0)
(0.197862 -0.0482065 0)
(0.189755 -0.044343 0)
(0.182017 -0.0405662 0)
(0.284643 -0.0687539 0)
(0.271188 -0.0547819 0)
(0.256887 -0.0459525 0)
(0.24466 -0.0399949 0)
(0.233534 -0.0356697 0)
(0.223172 -0.0322505 0)
(0.213657 -0.0293321 0)
(0.204995 -0.0266923 0)
(0.197142 -0.024165 0)
(0.190942 -0.0215006 0)
(0.252499 -0.0473851 0)
(0.226997 -0.0273212 0)
(0.211909 -0.0169978 0)
(0.20164 -0.0121895 0)
(0.192513 -0.0100463 0)
(0.184076 -0.00897418 0)
(0.176377 -0.00827794 0)
(0.169352 -0.00771327 0)
(0.162932 -0.00710941 0)
(0.156675 -0.0053927 0)
(0.00845976 -0.161922 0)
(0.00727314 -0.142601 0)
(0.00626126 -0.125509 0)
(0.00539879 -0.110423 0)
(0.00466884 -0.09711 0)
(0.00405384 -0.0853493 0)
(0.00353695 -0.0749346 0)
(0.00310283 -0.0656804 0)
(0.00273808 -0.0574238 0)
(0.00243139 -0.0500223 0)
(0.00217347 -0.0433526 0)
(0.00195681 -0.0373071 0)
(0.00177542 -0.0317916 0)
(0.00162456 -0.0267227 0)
(0.00150049 -0.0220256 0)
(0.00140032 -0.0176324 0)
(0.00132186 -0.0134803 0)
(0.00126355 -0.00951015 0)
(0.00122494 -0.00566681 0)
(0.00120402 -0.00199554 0)
(0.019782 -0.1608 0)
(0.0171376 -0.141629 0)
(0.0148476 -0.124675 0)
(0.0128745 -0.109712 0)
(0.0111896 -0.0965085 0)
(0.00975914 -0.0848425 0)
(0.00854899 -0.0745083 0)
(0.00752677 -0.0653222 0)
(0.00666356 -0.0571226 0)
(0.00593456 -0.0497691 0)
(0.00531915 -0.0431398 0)
(0.00480053 -0.0371287 0)
(0.0043652 -0.0316429 0)
(0.00400243 -0.0265999 0)
(0.00370377 -0.0219257 0)
(0.00346267 -0.0175532 0)
(0.00327417 -0.0134201 0)
(0.00313478 -0.00946793 0)
(0.00304345 -0.00564224 0)
(0.00299526 -0.00198727 0)
(0.0304461 -0.158985 0)
(0.0265907 -0.140028 0)
(0.0232012 -0.123279 0)
(0.0202465 -0.108507 0)
(0.017698 -0.0954773 0)
(0.015516 -0.0839645 0)
(0.0136562 -0.0737632 0)
(0.0120749 -0.0646906 0)
(0.0107317 -0.0565876 0)
(0.00959133 -0.049316 0)
(0.0086242 -0.0427567 0)
(0.00780595 -0.0368058 0)
(0.00711688 -0.0313722 0)
(0.00654127 -0.0263753 0)
(0.00606673 -0.0217423 0)
(0.00568359 -0.0174073 0)
(0.0053846 -0.013309 0)
(0.00516458 -0.00938975 0)
(0.00502166 -0.00559642 0)
(0.00494839 -0.00197162 0)
(0.0409964 -0.156506 0)
(0.0359243 -0.13782 0)
(0.0314362 -0.121337 0)
(0.0275068 -0.106819 0)
(0.0241059 -0.0940242 0)
(0.0211855 -0.0827212 0)
(0.0186896 -0.0727031 0)
(0.0165616 -0.0637884 0)
(0.0147492 -0.0558203 0)
(0.0132067 -0.048664 0)
(0.0118954 -0.0422036 0)
(0.0107836 -0.0363383 0)
(0.00984562 -0.0309796 0)
(0.00906103 -0.0260491 0)
(0.00841361 -0.0214758 0)
(0.00789078 -0.0171953 0)
(0.00748304 -0.0131478 0)
(0.00718354 -0.00927685 0)
(0.00698931 -0.00553064 0)
(0.00689072 -0.0019492 0)
(0.051388 -0.153361 0)
(0.0451004 -0.135003 0)
(0.0395171 -0.118851 0)
(0.0346216 -0.104654 0)
(0.0303813 -0.0921567 0)
(0.0267376 -0.0811206 0)
(0.0236208 -0.0713362 0)
(0.0209605 -0.0626228 0)
(0.0186917 -0.0548271 0)
(0.0167578 -0.0478185 0)
(0.0151112 -0.0414851 0)
(0.013713 -0.03573 0)
(0.012532 -0.0304681 0)
(0.0115429 -0.0256236 0)
(0.0107262 -0.021128 0)
(0.0100664 -0.0169187 0)
(0.00955177 -0.0129375 0)
(0.00917393 -0.00912976 0)
(0.00892866 -0.00544491 0)
(0.00880451 -0.0019199 0)
(0.0615954 -0.149549 0)
(0.0540869 -0.131577 0)
(0.0474089 -0.115824 0)
(0.0415564 -0.102018 0)
(0.036492 -0.0898828 0)
(0.0321437 -0.0791718 0)
(0.0284253 -0.0696711 0)
(0.0252506 -0.0612018 0)
(0.022541 -0.053615 0)
(0.0202288 -0.0467852 0)
(0.0182577 -0.0406058 0)
(0.016582 -0.0349847 0)
(0.0151648 -0.0298406 0)
(0.0139769 -0.0251011 0)
(0.0129951 -0.0207006 0)
(0.0122015 -0.0165786 0)
(0.0115825 -0.012679 0)
(0.0111278 -0.00894894 0)
(0.0108321 -0.00533925 0)
(0.0106824 -0.00188361 0)
(0.0715944 -0.145067 0)
(0.0628502 -0.12754 0)
(0.0550745 -0.112259 0)
(0.0482748 -0.0989164 0)
(0.0424053 -0.0872128 0)
(0.0373754 -0.0768858 0)
(0.0330787 -0.0677186 0)
(0.0294111 -0.0595352 0)
(0.0262795 -0.0521921 0)
(0.0236047 -0.0455709 0)
(0.021322 -0.0395713 0)
(0.019379 -0.0341067 0)
(0.0177338 -0.0291006 0)
(0.0163534 -0.0244845 0)
(0.0152117 -0.0201958 0)
(0.0142882 -0.0161768 0)
(0.0135674 -0.0123735 0)
(0.0130377 -0.00873503 0)
(0.0126926 -0.0052139 0)
(0.0125177 -0.00184037 0)
(0.0813626 -0.139901 0)
(0.071354 -0.122885 0)
(0.0624736 -0.108156 0)
(0.0547382 -0.0953595 0)
(0.0480871 -0.0841589 0)
(0.0424038 -0.0742762 0)
(0.0375572 -0.0654918 0)
(0.0334224 -0.0576343 0)
(0.0298906 -0.0505684 0)
(0.0268713 -0.0441838 0)
(0.0242916 -0.0383881 0)
(0.0220929 -0.0331013 0)
(0.0202291 -0.0282524 0)
(0.0186636 -0.023777 0)
(0.0173676 -0.0196162 0)
(0.0163185 -0.0157151 0)
(0.0154992 -0.0120223 0)
(0.0148966 -0.00848885 0)
(0.0145033 -0.00506922 0)
(0.0143037 -0.00179027 0)
(0.0908777 -0.134027 0)
(0.0795572 -0.117601 0)
(0.0695612 -0.103517 0)
(0.0609046 -0.0913572 0)
(0.0535018 -0.0807366 0)
(0.0472002 -0.0713596 0)
(0.0418377 -0.0630062 0)
(0.0372656 -0.0555128 0)
(0.0333587 -0.0487549 0)
(0.0300154 -0.0426329 0)
(0.0271549 -0.0370635 0)
(0.0247136 -0.0319743 0)
(0.0226414 -0.0273004 0)
(0.0208988 -0.0229821 0)
(0.0194548 -0.0189645 0)
(0.018285 -0.0151956 0)
(0.0173707 -0.0116268 0)
(0.0166977 -0.00821136 0)
(0.0162577 -0.00490571 0)
(0.016034 -0.00173344 0)
(0.100116 -0.127405 0)
(0.0874105 -0.111671 0)
(0.0762854 -0.0983438 0)
(0.0667278 -0.0869236 0)
(0.0586121 -0.0769652 0)
(0.0517357 -0.0681562 0)
(0.0458977 -0.0602801 0)
(0.0409232 -0.0531862 0)
(0.0366696 -0.0467644 0)
(0.0330247 -0.0409283 0)
(0.0299013 -0.0356055 0)
(0.0272314 -0.0307321 0)
(0.0249619 -0.0262496 0)
(0.0230509 -0.0221039 0)
(0.0214658 -0.0182437 0)
(0.0201805 -0.0146206 0)
(0.0191751 -0.0111887 0)
(0.0184345 -0.00790367 0)
(0.0179494 -0.00472397 0)
(0.0177025 -0.00167008 0)
(0.10905 -0.119975 0)
(0.0948515 -0.105071 0)
(0.082585 -0.092638 0)
(0.0721562 -0.0820775 0)
(0.0633793 -0.0728696 0)
(0.0559819 -0.0646904 0)
(0.0497167 -0.057335 0)
(0.0443792 -0.0506721 0)
(0.0398103 -0.0446109 0)
(0.0358885 -0.0390811 0)
(0.0325213 -0.0340228 0)
(0.0296377 -0.0293813 0)
(0.0271825 -0.0251055 0)
(0.0251125 -0.0211464 0)
(0.0233933 -0.0174571 0)
(0.0219982 -0.0139926 0)
(0.020906 -0.0107098 0)
(0.0201007 -0.00756698 0)
(0.0195724 -0.00452466 0)
(0.0193031 -0.00160042 0)
(0.117641 -0.11164 0)
(0.101797 -0.0977718 0)
(0.0883859 -0.0864063 0)
(0.0771319 -0.0768453 0)
(0.0677632 -0.0684816 0)
(0.0599119 -0.060992 0)
(0.0532759 -0.0541956 0)
(0.0476201 -0.0479902 0)
(0.0427701 -0.0423097 0)
(0.0385975 -0.0371031 0)
(0.0350065 -0.0323244 0)
(0.0319247 -0.0279292 0)
(0.029296 -0.0238736 0)
(0.0270764 -0.0201141 0)
(0.0252309 -0.0166081 0)
(0.0237317 -0.0133142 0)
(0.022557 -0.0101921 0)
(0.0216902 -0.00720261 0)
(0.0211208 -0.00430854 0)
(0.0208301 -0.00152469 0)
(0.125832 -0.102262 0)
(0.10813 -0.0897392 0)
(0.0935974 -0.0796634 0)
(0.0815898 -0.071265 0)
(0.0717233 -0.0638423 0)
(0.063501 -0.0570969 0)
(0.0565599 -0.0508905 0)
(0.0506351 -0.0451621 0)
(0.0455404 -0.039877 0)
(0.041144 -0.0350065 0)
(0.0373497 -0.0305199 0)
(0.0340855 -0.0263831 0)
(0.0312958 -0.0225596 0)
(0.0289364 -0.0190115 0)
(0.0269722 -0.0157004 0)
(0.025375 -0.0125882 0)
(0.0241226 -0.00963754 0)
(0.0231976 -0.00681196 0)
(0.0225892 -0.00407641 0)
(0.0222781 -0.00144319 0)
(0.133535 -0.0916446 0)
(0.113687 -0.0809365 0)
(0.0981074 -0.0724396 0)
(0.0854583 -0.0653911 0)
(0.0752203 -0.0590052 0)
(0.0667289 -0.0530479 0)
(0.0595576 -0.0474516 0)
(0.0534169 -0.0422109 0)
(0.0481153 -0.0373297 0)
(0.0435223 -0.0328039 0)
(0.0395452 -0.0286186 0)
(0.0361143 -0.0247502 0)
(0.0331758 -0.0211694 0)
(0.0306866 -0.0178433 0)
(0.0286116 -0.0147375 0)
(0.0269226 -0.0118174 0)
(0.0255972 -0.00904833 0)
(0.0246175 -0.0063965 0)
(0.0239722 -0.00382913 0)
(0.0236419 -0.00135621 0)
(0.140618 -0.0794958 0)
(0.118232 -0.0713252 0)
(0.101777 -0.0647938 0)
(0.0886601 -0.0593031 0)
(0.07822 -0.0540391 0)
(0.0695823 -0.0488957 0)
(0.0622639 -0.0439139 0)
(0.0559626 -0.0391608 0)
(0.0504916 -0.0346846 0)
(0.0457288 -0.0305074 0)
(0.0415885 -0.0266299 0)
(0.0380062 -0.023038 0)
(0.034931 -0.0197087 0)
(0.0323216 -0.016614 0)
(0.0301437 -0.0137232 0)
(0.0283693 -0.0110047 0)
(0.0269757 -0.00842664 0)
(0.0259448 -0.00595775 0)
(0.0252652 -0.00356761 0)
(0.0249168 -0.00126405 0)
(0.146896 -0.0652398 0)
(0.121412 -0.0608786 0)
(0.104433 -0.0568391 0)
(0.0911182 -0.053115 0)
(0.0806985 -0.0490302 0)
(0.0720586 -0.044698 0)
(0.0646816 -0.0403142 0)
(0.0582746 -0.0360356 0)
(0.0526698 -0.031958 0)
(0.0477617 -0.0281288 0)
(0.0434765 -0.0245626 0)
(0.039757 -0.0212533 0)
(0.0365568 -0.0181833 0)
(0.0338368 -0.0153284 0)
(0.0315639 -0.0126613 0)
(0.0297103 -0.0101531 0)
(0.0282534 -0.0077747 0)
(0.0271751 -0.0054973 0)
(0.0264634 -0.00329278 0)
(0.0260982 -0.00116706 0)
(0.152165 -0.0502427 0)
(0.122613 -0.0499747 0)
(0.105862 -0.048765 0)
(0.0927701 -0.0469789 0)
(0.0826512 -0.0440804 0)
(0.0741704 -0.0405164 0)
(0.0668235 -0.0366894 0)
(0.0603608 -0.0328577 0)
(0.0546532 -0.0291645 0)
(0.0496212 -0.0256786 0)
(0.0452072 -0.0224248 0)
(0.0413637 -0.0194027 0)
(0.0380494 -0.0165985 0)
(0.0352279 -0.0139909 0)
(0.0328676 -0.0115553 0)
(0.0309412 -0.00926547 0)
(0.0294261 -0.00709477 0)
(0.0283039 -0.00501674 0)
(0.0275627 -0.00300561 0)
(0.027182 -0.00106557 0)
(0.155708 -0.0264697 0)
(0.122113 -0.0369183 0)
(0.106012 -0.0405553 0)
(0.0935853 -0.04106 0)
(0.0841018 -0.0393072 0)
(0.0759497 -0.0364142 0)
(0.068713 -0.0330723 0)
(0.0622353 -0.0296456 0)
(0.0564484 -0.026316 0)
(0.051309 -0.0231655 0)
(0.0467796 -0.0202235 0)
(0.0428235 -0.0174921 0)
(0.0394051 -0.0149593 0)
(0.0364911 -0.0126058 0)
(0.0340509 -0.010409 0)
(0.032058 -0.00834488 0)
(0.0304896 -0.00638916 0)
(0.0293274 -0.00451772 0)
(0.0285592 -0.00270711 0)
(0.0281643 -0.000959916 0)
(0.15876 -0.010852 0)
(0.114863 -0.0267199 0)
(0.103696 -0.033701 0)
(0.0934337 -0.0358291 0)
(0.0850996 -0.034875 0)
(0.0774534 -0.0324541 0)
(0.0703864 -0.0294885 0)
(0.063917 -0.026412 0)
(0.0580639 -0.0234208 0)
(0.0528279 -0.020596 0)
(0.0481932 -0.0179646 0)
(0.0441343 -0.0155269 0)
(0.0406211 -0.0132706 0)
(0.0376228 -0.0111773 0)
(0.0351102 -0.00922589 0)
(0.0330569 -0.00739421 0)
(0.0314404 -0.00566015 0)
(0.030242 -0.00400187 0)
(0.0294494 -0.00239829 0)
(0.0290415 -0.000850439 0)
(0.142047 0.0307773 0)
(0.108101 -0.00919679 0)
(0.1012 -0.0271771 0)
(0.0929877 -0.0313974 0)
(0.0858849 -0.030876 0)
(0.0787868 -0.0286655 0)
(0.0718936 -0.0259472 0)
(0.0654288 -0.0231622 0)
(0.0595093 -0.0204841 0)
(0.0541805 -0.0179762 0)
(0.0494474 -0.0156543 0)
(0.0452939 -0.0135132 0)
(0.0416943 -0.0115382 0)
(0.0386198 -0.00971063 0)
(0.036042 -0.00801042 0)
(0.0339346 -0.00641711 0)
(0.032275 -0.00491059 0)
(0.0310443 -0.00347125 0)
(0.03023 -0.00208043 0)
(0.0298105 -0.000737514 0)
(0.0606302 0.0214448 0)
(0.0859768 -0.00967561 0)
(0.09529 -0.0257986 0)
(0.0920851 -0.0292515 0)
(0.086371 -0.0284011 0)
(0.0796761 -0.0261169 0)
(0.0728677 -0.023487 0)
(0.0663831 -0.0208724 0)
(0.0604074 -0.0184011 0)
(0.0550121 -0.0161114 0)
(0.0502128 -0.0140067 0)
(0.0459978 -0.0120755 0)
(0.0423433 -0.0103004 0)
(0.0392211 -0.00866233 0)
(0.0366027 -0.00714143 0)
(0.0344619 -0.00571839 0)
(0.0327758 -0.00437448 0)
(0.0315252 -0.00309163 0)
(0.0306977 -0.00185286 0)
(0.030271 -0.000656712 0)
(0.0415104 0.00134132 0)
(0.0811683 -0.0159678 0)
(0.0934153 -0.0266812 0)
(0.091882 -0.0284929 0)
(0.0867238 -0.0271148 0)
(0.080196 -0.024695 0)
(0.0734129 -0.0220846 0)
(0.0669073 -0.0195566 0)
(0.0608956 -0.0172 0)
(0.0554613 -0.0150346 0)
(0.0506245 -0.0130545 0)
(0.0463753 -0.0112442 0)
(0.0426906 -0.00958467 0)
(0.0395423 -0.00805602 0)
(0.0369019 -0.0066388 0)
(0.034743 -0.00531421 0)
(0.0330426 -0.00406434 0)
(0.0317813 -0.002872 0)
(0.0309466 -0.00172112 0)
(0.0305161 -0.000610097 0)
(0.0338529 -0.00708549 0)
(0.0776841 -0.0217521 0)
(0.0923302 -0.0278456 0)
(0.0919458 -0.027927 0)
(0.087163 -0.0258946 0)
(0.0807336 -0.0232898 0)
(0.0739489 -0.0206808 0)
(0.067411 -0.0182336 0)
(0.061359 -0.0159902 0)
(0.0558844 -0.013949 0)
(0.0510104 -0.0120943 0)
(0.046728 -0.0104059 0)
(0.0430142 -0.00886265 0)
(0.039841 -0.00744438 0)
(0.0371798 -0.00613172 0)
(0.0350038 -0.00490645 0)
(0.0332898 -0.00375144 0)
(0.0320185 -0.00265041 0)
(0.0311771 -0.00158816 0)
(0.030743 -0.000563078 0)
(0.0315761 -0.0205983 0)
(0.0763483 -0.0283315 0)
(0.0920418 -0.0292396 0)
(0.0922801 -0.0274704 0)
(0.0876981 -0.0247069 0)
(0.0812933 -0.0218881 0)
(0.0744772 -0.0192709 0)
(0.0678946 -0.0169021 0)
(0.0617974 -0.0147718 0)
(0.0562813 -0.0128555 0)
(0.0513703 -0.011127 0)
(0.0470555 -0.00956119 0)
(0.0433139 -0.00813525 0)
(0.0401171 -0.00682819 0)
(0.0374361 -0.00562087 0)
(0.035244 -0.00449566 0)
(0.0335175 -0.0034362 0)
(0.0322367 -0.00242716 0)
(0.031389 -0.00145419 0)
(0.0309516 -0.000515668 0)
(0.0308968 -0.0311864 0)
(0.0760876 -0.0350185 0)
(0.0925023 -0.0307643 0)
(0.0928958 -0.0270675 0)
(0.0883372 -0.0235271 0)
(0.0818778 -0.0204793 0)
(0.0749985 -0.0178504 0)
(0.0683581 -0.0155601 0)
(0.0622108 -0.0135439 0)
(0.0566517 -0.0117537 0)
(0.0517038 -0.0101524 0)
(0.0473577 -0.00871038 0)
(0.0435895 -0.00740261 0)
(0.0403703 -0.00620761 0)
(0.0376708 -0.00510641 0)
(0.0354637 -0.00408198 0)
(0.0337253 -0.00311875 0)
(0.0324357 -0.00220232 0)
(0.0315823 -0.00131926 0)
(0.0311417 -0.000467894 0)
(0.0311416 -0.0424286 0)
(0.0769283 -0.0418584 0)
(0.0937148 -0.0323266 0)
(0.0938016 -0.026656 0)
(0.0890841 -0.022328 0)
(0.0824879 -0.0190519 0)
(0.0755126 -0.0164148 0)
(0.0688012 -0.0142059 0)
(0.0625988 -0.0123059 0)
(0.0569953 -0.0106434 0)
(0.0520109 -0.00917076 0)
(0.0476344 -0.00785357 0)
(0.0438408 -0.00666494 0)
(0.0406005 -0.00558284 0)
(0.0378836 -0.00458853 0)
(0.0356625 -0.00366557 0)
(0.0339132 -0.00279922 0)
(0.0326155 -0.00197601 0)
(0.0317566 -0.00118343 0)
(0.0313132 -0.00041979 0)
(0.0327039 -0.0540385 0)
(0.0789456 -0.0488183 0)
(0.0957053 -0.0338207 0)
(0.0950004 -0.0261682 0)
(0.089937 -0.0210811 0)
(0.083122 -0.0175943 0)
(0.0760184 -0.0149593 0)
(0.069223 -0.0128375 0)
(0.0629608 -0.0110572 0)
(0.0573117 -0.00952456 0)
(0.0522912 -0.00818215 0)
(0.0478853 -0.00699102 0)
(0.0440676 -0.00592252 0)
(0.0408075 -0.00495416 0)
(0.0380744 -0.00406747 0)
(0.0358404 -0.00324663 0)
(0.034081 -0.00247776 0)
(0.0327759 -0.00174833 0)
(0.0319121 -0.00104677 0)
(0.0314661 -0.000371392 0)
(0.0375728 -0.0657185 0)
(0.0824018 -0.0556713 0)
(0.0985182 -0.0351273 0)
(0.0964892 -0.0255398 0)
(0.0908887 -0.0197597 0)
(0.0837761 -0.0160957 0)
(0.0765138 -0.0134799 0)
(0.0696226 -0.0114535 0)
(0.0632962 -0.00979727 0)
(0.0576006 -0.00839721 0)
(0.0525443 -0.00718678 0)
(0.0481101 -0.00612301 0)
(0.0442697 -0.00517565 0)
(0.0409911 -0.00432186 0)
(0.0382431 -0.00354348 0)
(0.0359972 -0.0028254 0)
(0.0342286 -0.00215456 0)
(0.0329168 -0.00151943 0)
(0.0320485 -0.000909351 0)
(0.0316002 -0.000322742 0)
(0.0509677 -0.0766683 0)
(0.0879383 -0.0623258 0)
(0.102238 -0.0362353 0)
(0.0982666 -0.02474 0)
(0.0919293 -0.0183448 0)
(0.0844445 -0.0145477 0)
(0.0769959 -0.0119731 0)
(0.0699985 -0.0100525 0)
(0.0636044 -0.00852573 0)
(0.0578615 -0.00726134 0)
(0.0527701 -0.00618487 0)
(0.0483088 -0.00524982 0)
(0.0444469 -0.00442462 0)
(0.0411512 -0.00368621 0)
(0.0383895 -0.00301683 0)
(0.0361328 -0.00240207 0)
(0.034356 -0.00182978 0)
(0.0330381 -0.00128941 0)
(0.0321657 -0.000771248 0)
(0.0317154 -0.000273876 0)
(0.0821204 -0.102441 0)
(0.096938 -0.0692254 0)
(0.107151 -0.0370826 0)
(0.10038 -0.0236624 0)
(0.0930576 -0.0167888 0)
(0.0851223 -0.0129328 0)
(0.0774617 -0.0104319 0)
(0.0703492 -0.00863133 0)
(0.0638844 -0.00724108 0)
(0.0580939 -0.00611619 0)
(0.0529683 -0.00517602 0)
(0.0484811 -0.00437127 0)
(0.0445992 -0.00366936 0)
(0.0412877 -0.00304721 0)
(0.0385137 -0.00248752 0)
(0.0362473 -0.00197668 0)
(0.034463 -0.00150345 0)
(0.0331398 -0.0010583 0)
(0.0322638 -0.000632507 0)
(0.0318117 -0.000224736 0)
(0.213634 -0.0980347 0)
(0.136463 -0.0590014 0)
(0.121986 -0.0316724 0)
(0.105951 -0.018974 0)
(0.0957038 -0.0126903 0)
(0.0866025 -0.00916739 0)
(0.0784317 -0.0069689 0)
(0.0710537 -0.00548135 0)
(0.0644309 -0.00441041 0)
(0.0585369 -0.00360046 0)
(0.0533387 -0.00296345 0)
(0.0487982 -0.00244644 0)
(0.0448758 -0.00201574 0)
(0.0415332 -0.00164874 0)
(0.0387349 -0.00132947 0)
(0.0364498 -0.00104618 0)
(0.0346514 -0.000789742 0)
(0.033318 -0.00055287 0)
(0.0324351 -0.000329208 0)
(0.0319798 -0.000116875 0)
(0.202833 -0.0381349 0)