/*--------------------------------*- C++ -*----------------------------------*\
| =========                 |                                                 |
| \\      /  F ield         | OpenFOAM: The Open Source CFD Toolbox           |
|  \\    /   O peration     | Version:  v1806                                 |
|   \\  /    A nd           | Web:      www.OpenFOAM.com                      |
|    \\/     M anipulation  |                                                 |
\*---------------------------------------------------------------------------*/
FoamFile
{
    version     2.0;
    format      ascii;
    class       volScalarField;
    location    "110";
    object      p;
}
// * * * * * * * * * * * * * * * * * * * * * * * * * * * * * * * * * * * * * //

dimensions      [0 2 -2 0 0 0 0];


internalField   nonuniform List<scalar> 
2400
(
0.000308899
0.000308423
0.000307369
0.000305663
0.000303171
0.000299706
0.000295035
0.000288893
0.000280999
0.000271071
0.000258834
0.000244053
0.000226547
0.000206215
0.000183065
0.000157232
0.000128993
9.87849e-05
6.71716e-05
3.47026e-05
0.000927232
0.000925914
0.000923001
0.000918252
0.000911278
0.000901527
0.000888319
0.000870882
0.000848388
0.000819991
0.000784875
0.000742317
0.000691756
0.000632863
0.000565618
0.000490372
0.000407888
0.000319361
0.000226369
0.000130849
0.00154705
0.00154505
0.00154061
0.00153332
0.00152252
0.00150729
0.00148648
0.00145878
0.00142277
0.00137699
0.00132002
0.00125057
0.00116759
0.00107044
0.00095896
0.000833635
0.000695661
0.000547011
0.000390391
0.000229249
0.00216916
0.00216669
0.0021612
0.00215211
0.00213847
0.00211894
0.00209188
0.00205539
0.00200741
0.00194577
0.00186833
0.0017731
0.00165841
0.00152315
0.0013669
0.00119017
0.00099452
0.000782716
0.000558657
0.000327317
0.00279405
0.00279143
0.00278556
0.00277568
0.00276055
0.00273839
0.00270701
0.00266387
0.00260615
0.00253087
0.00243501
0.00231572
0.00217051
0.00199757
0.001796
0.00156617
0.00130992
0.00103077
0.000733906
0.00042613
0.00342187
0.00341951
0.00341411
0.00340478
0.00338993
0.00336733
0.00333417
0.0032872
0.00322275
0.00313688
0.00302548
0.0028846
0.00271065
0.00250081
0.00225341
0.00196841
0.00164771
0.00129558
0.000918652
0.000525913
0.00405229
0.00405067
0.00404681
0.00403968
0.00402733
0.00400703
0.00397532
0.00392816
0.0038609
0.00376846
0.00364543
0.00348643
0.00328637
0.00304104
0.00274752
0.00240497
0.00201506
0.00158267
0.00111604
0.000626834
0.00468439
0.00468412
0.00468307
0.0046801
0.00467292
0.00465827
0.004632
0.0045892
0.00452412
0.00443037
0.00430091
0.00412861
0.00390633
0.00362794
0.00328858
0.00288602
0.00242118
0.00189931
0.00133039
0.000729368
0.00531659
0.00531833
0.00532156
0.00532506
0.00532618
0.00532115
0.00530511
0.00527226
0.00521562
0.0051273
0.0049983
0.00481933
0.0045805
0.00427309
0.00388921
0.00342454
0.00287815
0.00225533
0.00156774
0.000834384
0.00594648
0.005951
0.00596016
0.00597271
0.00598571
0.00599491
0.00599476
0.00597859
0.00593807
0.00586373
0.00574418
0.00556758
0.00532033
0.00499038
0.00456517
0.00403731
0.00340207
0.00266431
0.00183665
0.000943268
0.00657078
0.00657891
0.00659579
0.00662024
0.00664908
0.00667769
0.00669993
0.00670834
0.00669326
0.00664353
0.00654502
0.00638296
0.00613885
0.00579651
0.0053361
0.00474628
0.00401468
0.00314555
0.00214974
0.00105842
0.00718524
0.00719784
0.00722432
0.00726366
0.00731258
0.00736625
0.00741813
0.00746016
0.00748149
0.00746939
0.00740665
0.0072753
0.00705053
0.00671128
0.00622648
0.00558033
0.00474533
0.00372687
0.00252579
0.00118486
0.00778463
0.00780254
0.00784048
0.00789772
0.00797105
0.00805566
0.00814495
0.00823061
0.00830096
0.00834193
0.00833334
0.00825378
0.00807078
0.00775761
0.0072668
0.00657761
0.00563411
0.00444872
0.00299139
0.00133274
0.00836273
0.00838671
0.00843784
0.00851578
0.00861767
0.00873902
0.00887366
0.00901347
0.00914672
0.00925845
0.0093263
0.00932525
0.00921476
0.00896074
0.00849442
0.0077885
0.00673782
0.00537191
0.0035822
0.00151827
0.00891242
0.00894311
0.00900883
0.00910984
0.00924391
0.00940721
0.00959467
0.00979901
0.0100096
0.0102114
0.0103816
0.0104916
0.0104947
0.0103457
0.00995333
0.00927649
0.00814008
0.00659409
0.00435598
0.00176639
0.00942586
0.00946367
0.00954493
0.00967063
0.00983949
0.0100488
0.0102953
0.0105733
0.010875
0.0111861
0.0114872
0.0117457
0.0119152
0.0119325
0.0116918
0.0111139
0.00995836
0.00826591
0.00544593
0.00216228
0.00989477
0.00993979
0.0100368
0.0101878
0.0103926
0.0106501
0.0109595
0.0113177
0.0117215
0.0121593
0.012619
0.0130663
0.0134651
0.0137279
0.0137564
0.0133793
0.012342
0.010557
0.007138
0.0030503
0.0103107
0.0103627
0.010475
0.0106505
0.0108905
0.0111956
0.0115684
0.0120091
0.0125208
0.0130969
0.0137373
0.014411
0.0151045
0.0157095
0.0161692
0.0161635
0.0155035
0.0136111
0.0097631
0.00470049
0.0106657
0.0107238
0.0108499
0.0110476
0.0113198
0.0116689
0.012101
0.0126205
0.0132377
0.0139536
0.0147832
0.0157083
0.0167473
0.0177985
0.0188744
0.0195316
0.0197566
0.0178267
0.0136763
0.00431382
0.0109525
0.0110153
0.0111528
0.011369
0.0116678
0.0120536
0.012536
0.0131234
0.0138329
0.014675
0.0156801
0.0168518
0.0182456
0.0198099
0.0216452
0.0233758
0.0252141
0.0245049
0.0217962
-0.00375221
4.43535e-06
-2.19049e-05
-4.65047e-05
-6.95751e-05
-9.11257e-05
-0.000110764
-0.00012848
-0.000143758
-0.000157381
-0.000168004
4.47642e-05
-3.03066e-05
-0.000102727
-0.000171379
-0.000235504
-0.000294134
-0.000346916
-0.000392682
-0.000432117
-0.000462836
8.3511e-05
-4.40203e-05
-0.00016719
-0.000284005
-0.000392981
-0.000492564
-0.000581976
-0.000659741
-0.00072665
-0.000780552
0.00011737
-6.64984e-05
-0.000243924
-0.000412045
-0.000568639
-0.000711494
-0.000839348
-0.000950421
-0.00104542
-0.00112197
0.000146054
-9.94146e-05
-0.000336158
-0.000560162
-0.000768278
-0.000957528
-0.00112608
-0.00127186
-0.00139548
-0.00149462
0.000167374
-0.000147153
-0.000450246
-0.000736354
-0.00100115
-0.00124073
-0.00145267
-0.00163466
-0.00178738
-0.00190879
0.000178459
-0.000215248
-0.000594103
-0.000950472
-0.00127849
-0.00157316
-0.00183151
-0.0020511
-0.00223296
-0.00237548
0.000175832
-0.000310705
-0.000777897
-0.00121518
-0.00161463
-0.00196995
-0.00227781
-0.00253594
-0.00274614
-0.00290747
0.000154971
-0.000442901
-0.00101533
-0.00154742
-0.00202836
-0.00245053
-0.00281067
-0.00310729
-0.00334358
-0.00351972
0.00010963
-0.000624987
-0.00132556
-0.00197043
-0.00254479
-0.00304009
-0.00345419
-0.00378751
-0.00404534
-0.00422983
3.08212e-05
-0.000876472
-0.00173669
-0.00251713
-0.00319794
-0.00377147
-0.00423881
-0.00460403
-0.00487535
-0.00505825
-9.4099e-05
-0.00122757
-0.00229204
-0.0032359
-0.00403511
-0.00468811
-0.00520316
-0.00559039
-0.0058616
-0.00602798
-0.00028234
-0.00172574
-0.00305892
-0.00419839
-0.00512302
-0.00584904
-0.00639784
-0.00678845
-0.00703706
-0.00716413
-0.000564166
-0.00244968
-0.00413819
-0.00550353
-0.00655008
-0.00733118
-0.00788738
-0.00824962
-0.00844014
-0.00849378
-0.00102683
-0.00355726
-0.00568601
-0.00727865
-0.00842017
-0.00922025
-0.00973876
-0.0100226
-0.0101041
-0.0100386
-0.00194272
-0.00542864
-0.00800777
-0.00973191
-0.010878
-0.0116106
-0.012001
-0.0121234
-0.0120267
-0.0117884
-0.00386708
-0.00877812
-0.011656
-0.0132564
-0.0141705
-0.0146117
-0.0146824
-0.0144981
-0.0141249
-0.0136554
-0.00720142
-0.0138076
-0.0167414
-0.0179552
-0.0182977
-0.0180999
-0.0175751
-0.0168997
-0.016152
-0.0154179
-0.012686
-0.0190755
-0.0217352
-0.0223703
-0.0217048
-0.0205523
-0.0193869
-0.0183463
-0.017415
-0.0165748
-0.0429102
-0.0306465
-0.0284262
-0.0273169
-0.0252446
-0.0229869
-0.0210147
-0.0194193
-0.0182039
-0.0173984
-0.00018693
-0.000180196
-0.00013967
-8.12657e-05
-4.0733e-05
-1.14334e-05
6.51461e-07
-4.09664e-05
-6.07287e-05
3.53946e-05
0.000198203
0.000379691
0.000669795
0.00105322
0.00131538
0.0012756
0.00103393
0.000740575
0.000526992
0.000196748
-0.000541026
-0.0005156
-0.00040655
-0.00025054
-0.000105366
3.69079e-07
7.678e-06
-0.000102484
-0.000128434
8.53725e-05
0.000488022
0.00105603
0.00174603
0.00233349
0.00252058
0.00223633
0.00175525
0.00125236
0.000905512
0.000321974
-0.000908696
-0.00085828
-0.000679427
-0.000420487
-0.000159355
2.19871e-05
1.7669e-05
-0.000164433
-0.000211709
0.000106522
0.000752298
0.00166679
0.00268639
0.00349509
0.00373098
0.00329102
0.00255773
0.00179518
0.00125881
0.000427787
-0.00129899
-0.00121631
-0.000961558
-0.000590726
-0.000205561
5.49142e-05
3.3294e-05
-0.000239109
-0.00032258
0.000101275
0.000987781
0.00221974
0.00352894
0.0044774
0.004651
0.00402859
0.00310766
0.00217366
0.00150111
0.000502381
-0.00171932
-0.00159282
-0.00125516
-0.000762329
-0.000239571
0.00010699
5.69736e-05
-0.000330403
-0.000467045
5.73654e-05
0.00118287
0.00271416
0.00426426
0.00528549
0.00537132
0.00459046
0.0035196
0.00245128
0.0016665
0.000551627
-0.00217796
-0.00199217
-0.00156382
-0.000935276
-0.000256302
0.000184819
9.17997e-05
-0.000442796
-0.000657184
-3.97432e-05
0.00132788
0.00314252
0.00489065
0.00593488
0.00591019
0.00498722
0.00380294
0.00264027
0.00177187
0.000582008
-0.00268381
-0.00241923
-0.00189146
-0.00110959
-0.000251019
0.00029584
0.000141521
-0.000582543
-0.000906589
-0.000203621
0.00141181
0.0034961
0.00540362
0.00643172
0.00628817
0.00524585
0.00398168
0.00275784
0.00183143
0.000598405
-0.00324638
-0.00287897
-0.00224259
-0.00128575
-0.000218438
0.000449128
0.000210517
-0.000755926
-0.00122836
-0.000447365
0.0014222
0.00376287
0.00579532
0.0067813
0.00652303
0.00538701
0.00407371
0.00281748
0.00185603
0.000604404
-0.00387561
-0.00337642
-0.00262272
-0.00146467
-0.000152626
0.000655195
0.000304487
-0.000966776
-0.00163254
-0.000781867
0.00134555
0.00392828
0.00605733
0.00698828
0.00662969
0.00542785
0.0040941
0.00283044
0.00185413
0.000602744
-0.00458163
-0.00391663
-0.00303887
-0.00164802
-4.74376e-05
0.000925393
0.000431186
-0.00121285
-0.00212048
-0.00121192
0.00116957
0.00397763
0.00618258
0.007058
0.00662107
0.00538272
0.00405542
0.00280615
0.0018324
0.000595546
-0.00537419
-0.00450459
-0.00349999
-0.00183912
0.000101562
0.00126986
0.000600835
-0.00148218
-0.00267993
-0.00173232
0.000885783
0.00389968
0.00616734
0.00699715
0.00650856
0.00526372
0.00396824
0.00275246
0.00179615
0.000584474
-0.00626159
-0.0051447
-0.00401738
-0.00204376
0.000292586
0.00169143
0.000824855
-0.0017485
-0.00327808
-0.00232878
0.000497265
0.00369112
0.00601297
0.00681282
0.00630227
0.00508108
0.00384144
0.00267602
0.00174969
0.000570854
-0.00724849
-0.00583838
-0.00460407
-0.00227151
0.00051326
0.00217711
0.00110913
-0.00197172
-0.00385985
-0.002955
2.0541e-05
0.00336059
0.005729
0.00651682
0.00601113
0.00484349
0.00368257
0.0025825
0.0016966
0.00055576
-0.00833259
-0.00657952
-0.00526951
-0.00253674
0.000731576
0.00268749
0.00144019
-0.00210886
-0.00435777
-0.00356046
-0.000510422
0.00293023
0.00533087
0.00611828
0.00564304
0.00455844
0.00349807
0.00247682
0.00163993
0.000540084
-0.00949743
-0.00734619
-0.00600965
-0.00285288
0.000890768
0.00314614
0.00177602
-0.00213393
-0.00470804
-0.00408248
-0.00104523
0.00243443
0.00483934
0.00562745
0.00520531
0.00423251
0.00329359
0.00236331
0.00158234
0.00052458
-0.010696
-0.00808547
-0.00680523
-0.00323934
0.000903729
0.0034451
0.00204098
-0.00205162
-0.00486467
-0.00445649
-0.00152294
0.00191501
0.00427705
0.00505423
0.00470483
0.00387163
0.00307423
0.00224591
0.00152621
0.000509903
-0.01183
-0.0087023
-0.00756943
-0.00367917
0.000702947
0.00346936
0.00213807
-0.00188995
-0.00480185
-0.0046225
-0.00188093
0.00141416
0.00366494
0.00440794
0.00414864
0.0034814
0.0028447
0.00212833
0.00147366
0.000496649
-0.0127676
-0.00910658
-0.00817134
-0.00411474
0.000272688
0.00312963
0.00198465
-0.001685
-0.00450636
-0.00452889
-0.00206454
0.00096741
0.00301974
0.00369771
0.00354443
0.00306756
0.00260955
0.00201423
0.00142651
0.000485359
-0.0133857
-0.00928347
-0.00847339
-0.00444187
-0.000356013
0.00239668
0.00155472
-0.0014624
-0.00397257
-0.004139
-0.0020367
0.000598092
0.00235296
0.0029333
0.00290028
0.00263657
0.00237377
0.00190713
0.0013867
0.000476388
-0.0138566
-0.00927232
-0.0084068
-0.00457031
-0.00110466
0.00132424
0.000882617
-0.00122441
-0.00320621
-0.00344549
-0.0017862
0.000314444
0.00167179
0.00212608
0.0022269
0.00219616
0.00214448
0.00180964
0.00135789
0.000469529
-0.0140992
-0.0091067
-0.00810699
-0.00450198
-0.00165883
0.000433223
0.00030207
-0.00103355
-0.00251708
-0.002762
-0.00146437
0.00017456
0.00119054
0.00153936
0.00174479
0.00188732
0.00199496
0.00174919
0.00134938
0.000465799
-0.013947
-0.00902168
-0.00788824
-0.00442967
-0.00197017
-9.82599e-05
-4.26777e-05
-0.000920192
-0.00209373
-0.00233217
-0.00125392
0.000102222
0.000913387
0.00120162
0.0014684
0.00171242
0.00191146
0.00171767
0.00134554
0.000464747
-0.0139013
-0.00893583
-0.00762862
-0.00432798
-0.00227217
-0.000639661
-0.000390638
-0.000799417
-0.00164354
-0.00186656
-0.00101985
3.65288e-05
0.000634856
0.000862674
0.00119226
0.00153983
0.00183057
0.00168934
0.00134306
0.000464718
-0.0139002
-0.00884079
-0.00733711
-0.00420135
-0.00256491
-0.001179
-0.00073382
-0.000668906
-0.00116993
-0.00136944
-0.000763926
-2.1722e-05
0.000356005
0.0005231
0.000917319
0.00137006
0.00175306
0.00166413
0.00134258
0.000465452
-0.0139301
-0.00874314
-0.00702314
-0.00405624
-0.00284663
-0.00170578
-0.00106383
-0.000527231
-0.000677268
-0.000846415
-0.000489741
-7.35848e-05
7.74371e-05
0.000184056
0.000644765
0.00120392
0.00167937
0.00164222
0.00134423
0.000466926
-0.013999
-0.00864082
-0.00669597
-0.00390034
-0.00311498
-0.0022103
-0.00137244
-0.0003733
-0.00017045
-0.000303916
-0.000201881
-0.000120859
-0.000200244
-0.00015299
0.000375926
0.00104227
0.00160996
0.00162382
0.00134805
0.000469171
-0.0141052
-0.00853493
-0.00636388
-0.00374145
-0.00336795
-0.00268344
-0.00165224
-0.000206443
0.000345138
0.000251102
9.48772e-05
-0.000165244
-0.000476263
-0.000486471
0.000112282
0.000886121
0.0015454
0.00160913
0.00135418
0.000472182
-0.0142437
-0.00842757
-0.00603814
-0.00358679
-0.00360377
-0.00311643
-0.00189691
-2.64587e-05
0.000863797
0.000811314
0.000395735
-0.0002082
-0.00074965
-0.000814701
-0.000144518
0.000736524
0.00148637
0.00159827
0.00136283
0.000475931
-0.0144293
-0.00831545
-0.00572519
-0.00344403
-0.00382111
-0.00350284
-0.00210046
0.00016693
0.00138067
0.00136983
0.00069609
-0.000251074
-0.00101942
-0.00113602
-0.000393349
0.000594144
0.00143286
0.0015916
0.00137372
0.000480589
-0.014644
-0.00822147
-0.00543391
-0.00332619
-0.00402167
-0.00383735
-0.00225615
0.000374653
0.00189292
0.00192173
0.00099217
-0.000295862
-0.00128554
-0.00144961
-0.000635134
0.000458313
0.00138282
0.00159006
0.00138512
0.000486857
-0.014691
-0.00810235
-0.00486716
-0.00314523
-0.00442965
-0.00444987
-0.00248914
0.000853402
0.00298385
0.00309416
0.00161718
-0.000403118
-0.00185717
-0.00211396
-0.00114533
0.000177617
0.00128078
0.00159854
0.00140994
0.000503912
-0.0134576
-0.00750047
-0.0042585
-0.00305836
-0.0047603
-0.00479811
-0.00238375
0.00162787
0.0043905
0.00460882
0.00238627
-0.000596677
-0.00264012
-0.002981
-0.00176469
-0.000123726
0.00122007
0.00166265
0.0014882
0.000532704
-0.0120842
-0.00702334
-0.00405561
-0.00318803
-0.00477767
-0.00458425
-0.00189364
0.00231259
0.00533894
0.00557887
0.00286304
-0.000834347
-0.00328872
-0.00363445
-0.00218041
-0.000273431
0.00125672
0.00178192
0.00159829
0.000566659
-0.0101206
-0.00642451
-0.00397932
-0.00328653
-0.00446763
-0.00400798
-0.00127647
0.00275881
0.00575576
0.00597074
0.00300891
-0.00109069
-0.00374562
-0.00402612
-0.00235883
-0.000255293
0.00139536
0.0019562
0.00173731
0.000606009
-0.00847914
-0.00583952
-0.00389292
-0.00324671
-0.00393496
-0.00328387
-0.000723854
0.00291279
0.0056669
0.00583179
0.00286693
-0.00130825
-0.00395951
-0.00411324
-0.00228746
-7.01383e-05
0.00163006
0.00217962
0.00190089
0.000649636
-0.00700915
-0.00521835
-0.00370278
-0.00306294
-0.00334194
-0.00258552
-0.000311654
0.00281158
0.0052028
0.00532329
0.00254809
-0.00142193
-0.00389942
-0.0038916
-0.00198259
0.000260511
0.00194343
0.00244122
0.00208267
0.00069611
-0.00576058
-0.00460692
-0.00343531
-0.00281279
-0.00280151
-0.00201693
-5.17545e-05
0.0025354
0.00453964
0.00462877
0.00217409
-0.0013868
-0.0035665
-0.00338871
-0.00149413
0.000695705
0.00230816
0.00272566
0.00227484
0.000743966
-0.00472155
-0.00402701
-0.00312757
-0.00253963
-0.00234182
-0.00157598
9.36485e-05
0.00221187
0.00383483
0.00390097
0.0018295
-0.00119921
-0.00302004
-0.00274019
-0.000898837
0.00118103
0.00269057
0.00301473
0.00246882
0.000791787
-0.00385883
-0.00348685
-0.00280372
-0.00226518
-0.00196307
-0.00124266
0.000162906
0.00188285
0.00317622
0.00322772
0.00155299
-0.000911735
-0.00236234
-0.00201118
-0.000277341
0.00165932
0.00305589
0.00328949
0.00265609
0.000838253
-0.00314483
-0.0029918
-0.00248088
-0.00200067
-0.00165027
-0.000990784
0.000184155
0.00157619
0.00260004
0.00264575
0.0013375
-0.000598006
-0.00170193
-0.00129791
0.000307975
0.00208319
0.00337434
0.00353328
0.00283009
0.000882318
-0.00255506
-0.00254399
-0.00216922
-0.00175049
-0.00138891
-0.000798072
0.000178108
0.00130295
0.00211455
0.00215879
0.00116157
-0.000315412
-0.00111746
-0.000679966
0.000786663
0.00242059
0.00362554
0.00373226
0.00298197
0.000922743
-0.0020675
-0.00214267
-0.0018739
-0.00151596
-0.00116748
-0.000647674
0.000158473
0.00106598
0.00171105
0.00175471
0.00100875
-9.23762e-05
-0.00064618
-0.0001919
0.00114277
0.00264762
0.00378994
0.0038737
0.00310622
0.000957911
-0.00166322
-0.00178499
-0.00159716
-0.00129706
-0.000976874
-0.000527403
0.000133406
0.00086246
0.00137573
0.00141894
0.000869205
6.37872e-05
-0.000295834
0.000160942
0.00137271
0.00276212
0.00386121
0.00394781
0.00319562
0.00098568
-0.00132617
-0.00146681
-0.00133937
-0.00109289
-0.000809927
-0.000428621
0.000107357
0.000688438
0.00109575
0.00113776
0.000737857
0.000158942
-5.56178e-05
0.000389306
0.00148384
0.00276599
0.0038329
0.00394368
0.00324122
0.00100305
-0.00104282
-0.00118319
-0.00109962
-0.000902006
-0.000661031
-0.000345094
8.27599e-05
0.000539755
0.000859998
0.000899441
0.000612793
0.00020462
9.33796e-05
0.000511723
0.00148844
0.00266296
0.00369925
0.00384867
0.00322923
0.00100491
-0.000801722
-0.000928847
-0.000876182
-0.000722656
-0.00052573
-0.000272181
6.08565e-05
0.000412212
0.000659141
0.000694357
0.000492933
0.000211941
0.000169268
0.000546633
0.00140058
0.00245636
0.003447
0.00364452
0.00314655
0.000987531
-0.000593177
-0.000698444
-0.000666783
-0.000552865
-0.000400441
-0.000206409
4.21995e-05
0.00030183
0.000485276
0.000514534
0.000377202
0.000190623
0.000188962
0.000509175
0.00122711
0.00215115
0.00307023
0.00329605
0.00292824
0.000925431
-0.000408722
-0.000486787
-0.000468945
-0.000390629
-0.000282208
-0.000145297
2.67546e-05
0.000205109
0.000331692
0.000353017
0.000264485
0.00014844
0.000167248
0.000417756
0.000977433
0.00172355
0.0025368
0.00282209
0.00265409
0.000856126
-0.000240917
-0.000288854
-0.000280305
-0.000234564
-0.00016888
-8.69167e-05
1.36737e-05
0.000118257
0.000193168
0.000204417
0.000152862
9.11078e-05
0.000114013
0.000281804
0.000668898
0.00119893
0.00175182
0.00191004
0.0018274
0.000583506
-8.45518e-05
-9.90562e-05
-9.66187e-05
-8.18699e-05
-5.84511e-05
-2.94177e-05
3.3055e-06
3.71463e-05
6.3707e-05
6.68591e-05
4.47694e-05
2.35687e-05
3.84046e-05
0.000102781
0.000271682
0.000575615
0.000998792
0.00125946
0.00137343
0.000580178
-0.0373494
-0.026128
-0.0220315
-0.0222594
-0.0221574
-0.0215807
-0.0207649
-0.0198567
-0.0189751
-0.0182525
-0.00164725
-0.00805207
-0.0124307
-0.0155245
-0.0172841
-0.0178856
-0.0177731
-0.0173393
-0.0167436
-0.0161155
-0.00261709
-0.00754388
-0.0104336
-0.0121815
-0.0133542
-0.014089
-0.0144237
-0.014453
-0.014234
-0.0138564
-0.000267197
-0.00324209
-0.00556451
-0.00732484
-0.00869145
-0.00972524
-0.0104262
-0.0108224
-0.0109468
-0.0108659
0.000676261
-0.0014222
-0.00332269
-0.00489531
-0.0061461
-0.00711531
-0.00782774
-0.00830618
-0.00857292
-0.00866163
0.000894071
-0.000633513
-0.00206308
-0.00330308
-0.00433357
-0.00516814
-0.00582267
-0.00630806
-0.00663594
-0.00681961
0.000992742
-0.000134739
-0.00120733
-0.00217626
-0.00302019
-0.00373495
-0.00432321
-0.00478725
-0.00513328
-0.0053668
0.00104402
0.000183773
-0.000645643
-0.00141607
-0.00210947
-0.00271573
-0.00323134
-0.00365473
-0.00398923
-0.00423667
0.00104875
0.000372267
-0.000284586
-0.000903704
-0.00147186
-0.0019797
-0.00242245
-0.00279719
-0.00310517
-0.00334647
0.00101767
0.000476512
-5.03264e-05
-0.000550977
-0.00101645
-0.0014396
-0.00181592
-0.00214219
-0.00241823
-0.00264339
0.000962967
0.000525966
9.98748e-05
-0.000307412
-0.000689741
-0.00104181
-0.00135974
-0.00164057
-0.00188328
-0.00208707
0.000891633
0.00053684
0.000190438
-0.000142136
-0.000456506
-0.000748732
-0.00101563
-0.00125473
-0.0014647
-0.00164482
0.000807575
0.000519252
0.000237469
-3.39079e-05
-0.000291694
-0.000532966
-0.000755202
-0.000956443
-0.00113532
-0.00129128
0.000713672
0.000480495
0.000252476
3.24026e-05
-0.000177388
-0.000374738
-0.000557678
-0.000724708
-0.000874566
-0.00100684
0.000612285
0.000426012
0.000243808
6.76875e-05
-0.000100637
-0.000259577
-0.00040762
-0.000543633
-0.000666529
-0.000776025
0.000505343
0.000359912
0.000217649
7.99984e-05
-5.17971e-05
-0.000176586
-0.000293231
-0.000400898
-0.000498693
-0.000586432
0.000394515
0.000285485
0.00017883
7.55729e-05
-2.34023e-05
-0.000117286
-0.000205257
-0.000286739
-0.000361042
-0.000428058
0.000281269
0.000205567
0.000131462
5.96714e-05
-9.18475e-06
-7.45669e-05
-0.000135912
-0.000192856
-0.000244918
-0.000292162
0.000165867
0.00012138
7.78354e-05
3.56533e-05
-4.82863e-06
-4.33106e-05
-7.94456e-05
-0.000112988
-0.000143541
-0.000171108
4.88041e-05
3.31869e-05
1.84086e-05
4.27242e-06
-9.28772e-06
-2.22085e-05
-3.43577e-05
-4.57492e-05
-5.62684e-05
-6.59501e-05
0.011204
0.0112664
0.0114019
0.0116145
0.0119082
0.0122877
0.0127613
0.0133376
0.0140316
0.0148536
0.0158284
0.0169581
0.0182801
0.019735
0.0213617
0.0227475
0.0238843
0.0220459
0.0170654
-0.00670224
0.0109323
0.0109873
0.0111057
0.0112907
0.0115446
0.0118694
0.012269
0.0127461
0.0133061
0.0139474
0.0146734
0.0154625
0.0163063
0.0171127
0.017835
0.0181675
0.0179838
0.0166283
0.0137572
0.00894834
0.0105454
0.0105911
0.0106888
0.0108407
0.0110473
0.0113078
0.0116219
0.0119874
0.0124015
0.0128546
0.0133353
0.0138137
0.014256
0.0145847
0.014714
0.0144844
0.0136966
0.0121495
0.00903107
0.00466845
0.0100631
0.0100986
0.0101745
0.0102916
0.0104488
0.0106435
0.010872
0.0111288
0.0114059
0.0116898
0.0119615
0.0121916
0.0123377
0.0123429
0.0121182
0.0115811
0.0105415
0.0089523
0.00641634
0.00333654
0.00950607
0.00953184
0.00958655
0.0096702
0.00978055
0.00991371
0.0100643
0.0102248
0.0103849
0.01053
0.0106396
0.0106874
0.0106347
0.0104404
0.0100377
0.00938163
0.0083646
0.00698922
0.00512914
0.00294992
0.00889477
0.00891167
0.00894728
0.00900097
0.00906994
0.00914973
0.00923418
0.00931536
0.00938243
0.00942173
0.00941453
0.00933919
0.00916585
0.00886619
0.0083976
0.00773323
0.00682222
0.00566495
0.00422698
0.00256473
0.00824764
0.00825698
0.00827638
0.00830483
0.0083394
0.00837558
0.00840732
0.00842699
0.00842471
0.00838855
0.00830323
0.00815203
0.00791391
0.00756887
0.00709128
0.00646386
0.00566408
0.00469074
0.00354192
0.00224794
0.00758042
0.00758367
0.00759007
0.00759843
0.00760595
0.00760849
0.00760055
0.00757538
0.00752459
0.0074384
0.00730515
0.00711227
0.0068452
0.00649006
0.00603187
0.00546023
0.00476627
0.00395144
0.0030241
0.00200771
0.00690585
0.00690446
0.00690101
0.00689426
0.00688173
0.00685983
0.00682388
0.0067682
0.00668604
0.00656974
0.00641058
0.00619934
0.00592613
0.00558182
0.00515791
0.00464898
0.0040526
0.00337242
0.00261823
0.00180781
0.00623363
0.00622894
0.00621851
0.00620114
0.00617477
0.00613642
0.00608227
0.00600776
0.00590762
0.00577602
0.00560656
0.00539269
0.0051279
0.00480645
0.00442377
0.00397752
0.00346816
0.00290001
0.00228166
0.00162632
0.0055707
0.00556387
0.00554893
0.0055248
0.00548982
0.00544161
0.00537717
0.00529295
0.00518494
0.0050488
0.00487994
0.00467388
0.00442643
0.00413417
0.00379482
0.00340782
0.00297475
0.00249985
0.00199019
0.00145576
0.0049216
0.00491359
0.00489619
0.00486846
0.00482909
0.00477629
0.00470773
0.00462073
0.0045123
0.00437927
0.00421848
0.00402692
0.00380198
0.00354174
0.00324527
0.00291295
0.00254673
0.00215044
0.00172982
0.00129251
0.00428886
0.00428043
0.00426222
0.0042334
0.004193
0.00413966
0.00407167
0.00398702
0.00388353
0.00375898
0.00361121
0.00343828
0.00323863
0.00301128
0.00275608
0.00247384
0.00216656
0.00183752
0.00149133
0.00113381
0.00367341
0.00366517
0.00364742
0.00361947
0.00358058
0.00352978
0.00346582
0.00338725
0.00329252
0.00318011
0.00304858
0.00289671
0.00272365
0.00252901
0.00231302
0.00207667
0.0018218
0.00155114
0.00126834
0.000977824
0.00307494
0.00306735
0.00305103
0.00302541
0.00298995
0.00294396
0.00288656
0.00281674
0.00273343
0.00263559
0.00252231
0.00239288
0.00224685
0.00208418
0.00190531
0.0017112
0.00150345
0.00128428
0.00105652
0.000823527
0.00249218
0.00248559
0.00247141
0.00244918
0.00241854
0.00237901
0.00233
0.00227081
0.00220072
0.00211906
0.00202527
0.00191895
0.00179993
0.00166834
0.00152464
0.00136973
0.00120491
0.00103192
0.000852926
0.000670425
0.00192314
0.00191777
0.00190624
0.00188819
0.00186337
0.00183149
0.00179215
0.00174489
0.00168925
0.00162481
0.00155124
0.00146833
0.00137608
0.00127465
0.0011645
0.00104634
0.000921204
0.000790398
0.000655513
0.000518359
0.00136529
0.00136131
0.00135277
0.00133944
0.00132116
0.00129775
0.00126897
0.00123452
0.00119414
0.00114757
0.00109464
0.00103527
0.000969486
0.000897473
0.000819582
0.000736348
0.000648495
0.000556943
0.000462787
0.000367288
0.000815729
0.000813258
0.000807961
0.00079971
0.000788428
0.000774023
0.000756365
0.000735299
0.000710678
0.000682377
0.000650314
0.000614463
0.000574871
0.000531669
0.000485083
0.000435447
0.000383198
0.00032887
0.000273083
0.00021656
0.000271303
0.000270426
0.000268555
0.000265661
0.000261723
0.000256713
0.000250589
0.000243304
0.000234811
0.000225072
0.000214065
0.000201784
0.000188249
0.000173509
0.000157645
0.000140775
0.000123052
0.000104671
8.58305e-05
6.66429e-05
0.0111023
0.0111664
0.0113098
0.0115355
0.0118476
0.0122518
0.0127601
0.0133823
0.0141412
0.0150496
0.0161535
0.0174622
0.0190728
0.0209559
0.0233313
0.025952
0.0293858
0.0321765
0.0368575
0.0286427
0.0111752
0.0112401
0.0113862
0.0116161
0.0119344
0.0123473
0.0128677
0.0135062
0.0142882
0.0152285
0.016379
0.0177551
0.0194697
0.0215165
0.0241558
0.0272473
0.0314219
0.0357775
0.0416667
0.0413997
0.0112354
0.0113008
0.011449
0.0116822
0.0120051
0.0124245
0.012954
0.013605
0.0144045
0.0153695
0.0165555
0.0179851
0.0197799
0.0219599
0.0248053
0.028278
0.0329969
0.0384489
0.0451784
0.0490096
0.0112827
0.0113486
0.0114982
0.0117335
0.0120595
0.0124832
0.0130189
0.0136783
0.0144895
0.0154712
0.0166814
0.0181476
0.0199977
0.0222709
0.02526
0.0289993
0.0340883
0.0402588
0.0475821
0.0534319
0.0113172
0.0113834
0.0115335
0.0117699
0.0120974
0.0125233
0.0130619
0.0137254
0.0145425
0.0155325
0.0167546
0.0182393
0.0201174
0.0224384
0.0255023
0.0293823
0.0346683
0.0412159
0.0488523
0.0556003
0.0113388
0.0114049
0.011555
0.0117913
0.0121187
0.0125444
0.0130828
0.0137462
0.0145629
0.0155526
0.0167742
0.0182582
0.0201354
0.0224562
0.0255217
0.0294107
0.0347165
0.0413145
0.0490007
0.0558851
0.0113474
0.0114133
0.0115627
0.0117977
0.0121234
0.0125466
0.0130817
0.0137405
0.0145509
0.0155315
0.01674
0.0182043
0.0200517
0.0223239
0.025317
0.0290818
0.0342288
0.0405495
0.0480223
0.0543271
0.0113432
0.0114086
0.0115566
0.0117892
0.0121116
0.0125302
0.0130588
0.0137087
0.0145068
0.0154701
0.0166535
0.0180798
0.0198699
0.0220472
0.0248968
0.0284073
0.0332196
0.0389234
0.0459011
0.0506613
0.0113262
0.011391
0.0115368
0.0117661
0.0120835
0.0124953
0.0130145
0.0136515
0.0144316
0.0153696
0.0165166
0.0178882
0.0195954
0.0216363
0.0242751
0.0274065
0.0317021
0.0364232
0.0426841
0.044205
0.0112964
0.0113606
0.0115035
0.0117283
0.0120393
0.0124422
0.0129489
0.0135692
0.0143257
0.0152314
0.0163307
0.0176336
0.0192332
0.0211039
0.0234631
0.0260997
0.0296237
0.0328335
0.0381976
0.0333909
)
;

boundaryField
{
    inlet
    {
        type            zeroGradient;
    }
    outlet
    {
        type            fixedValue;
        value           uniform 0;
    }
    upAndBottom
    {
        type            empty;
    }
    obstacle
    {
        type            zeroGradient;
    }
}


// ************************************************************************* //
