x,y,z,U_0,U_1,U_2
0,0,0,3.00095,-0.00172118,0
0,0.1,0,3.00068,-0.00122941,0
0,0.2,0,3.00041,-0.000737647,0
0,0.3,0,3.00014,-0.000245882,0
0,0.4,0,3,0,0
0,0.5,0,3,0,0
0,0.6,0,3,0,0
0,0.7,0,3,-1.40362e-18,0
0,0.8,0,3,0,0
0,0.9,0,3,0,0
0,1,0,3,0,0
0,1.1,0,3,0,0
0,1.2,0,3,0,0
0,1.3,0,3,0,0
0,1.4,0,3,-1.53514e-18,0
0,1.5,0,3,0,0
0,1.6,0,3,0,0
0,1.7,0,3,0,0
0,1.8,0,3,0,0
0,1.9,0,3,0,0
0,2,0,3,0,0
0,2.1,0,3,0,0
0,2.2,0,3,0,0
0,2.3,0,3,0,0
0,2.4,0,3,0,0
0,2.5,0,3,0,0
0,2.6,0,3,0,0
0,2.7,0,3,0,0
0,2.8,0,3,-1.23817e-18,0
0,2.9,0,3,0,0
0,3,0,3,0,0
0,3.1,0,3,0,0
0,3.2,0,3,0,0
0,3.3,0,3,0,0
0,3.4,0,3,0,0
0,3.5,0,3,0,0
0,3.6,0,3,0,0
0,3.7,0,3,0,0
0,3.8,0,3,0,0
0,3.9,0,3,0,0
0,4,0,3,0,0
0,4.1,0,3,0,0
0,4.2,0,3,0,0
0,4.3,0,3,0,0
0,4.4,0,3,0,0
0,4.5,0,3,0,0
0,4.6,0,3,0,0
0,4.7,0,3,0,0
0,4.8,0,3,0,0
0,4.9,0,3,0,0
0,5,0,3,0,0
0,5.1,0,3,0,0
0,5.2,0,3,0,0
0,5.3,0,3,0,0
0,5.4,0,3,0,0
0,5.5,0,3,0,0
0,5.6,0,3,0,0
0,5.7,0,3,0,0
0,5.8,0,3,0,0
0,5.9,0,3,0,0
0,6,0,3,0,0
0,6.1,0,3,0,0
0,6.2,0,3,0,0
0,6.3,0,3,0,0
0,6.4,0,3,0,0
0,6.5,0,3,0,0
0,6.6,0,3,0,0
0,6.7,0,3,0,0
0,6.8,0,3,0,0
0,6.9,0,3,0,0
0,7,0,3,0,0
0,7.1,0,3,0,0
0,7.2,0,3,0,0
0,7.3,0,3,0,0
0,7.4,0,3,0,0
0,7.5,0,3,0,0
0,7.6,0,3,1.94324e-19,0
0,7.7,0,3,0,0
0,7.8,0,3,0,0
0,7.9,0,3,4.10141e-19,0
0,8,0,3,0,0
0,8.1,0,3,0,0
0,8.2,0,3,0,0
0,8.3,0,3,0,0
0,8.4,0,3,0,0
0,8.5,0,3,0,0
0,8.6,0,3,0,0
0,8.7,0,3,0,0
0,8.8,0,3,0,0
0,8.9,0,3,0,0
0,9,0,3,0,0
0,9.1,0,3,0,0
0,9.2,0,3,0,0
0,9.3,0,3,0,0
0,9.4,0,3,0,0
0,9.5,0,3,0,0
0,9.6,0,3,0,0
0,9.7,0,3,0,0
0,9.8,0,3,0,0
0,9.9,0,3,0,0
0,10,0,3,0,0
0,10.1,0,3,0,0
0,10.2,0,3,0,0
0,10.3,0,3,0,0
0,10.4,0,3,0,0
0,10.5,0,3,0,0
0,10.6,0,3,0,0
0,10.7,0,3,0,0
0,10.8,0,3,0,0
0,10.9,0,3,0,0
0,11,0,3,0,0
0,11.1,0,3,0,0
0,11.2,0,3,0,0
0,11.3,0,3,0,0
0,11.4,0,3,0,0
0,11.5,0,3,0,0
0,11.6,0,3,0,0
0,11.7,0,3,0,0
0,11.8,0,3,0,0
0,11.9,0,3,0,0
0,12,0,3,0,0
0,12.1,0,3,0,0
0,12.2,0,3,0,0
0,12.3,0,3,0,0
0,12.4,0,3,0,0
0,12.5,0,3.00007,0.000101886,0
0,12.6,0,3.00026,0.000392988,0
0,12.7,0,3.00045,0.00068409,0
0.1,0,0,3.00089,-0.00478093,0
0.1,0.1,0,3.00132,-0.00240365,0
0.1,0.2,0,3.00105,-0.00191189,0
0.1,0.3,0,3.00055,-0.00214671,0
0.1,0.4,0,3.00088,-0.00245989,0
0.1,0.5,0,3.00137,-0.0020439,0
0.1,0.6,0,3.00137,-0.0020439,0
0.1,0.7,0,2.99963,-0.00280949,0
0.1,0.8,0,3.00046,-0.00107804,0
0.1,0.9,0,3.00046,-0.00107804,0
0.1,1,0,3.00019,-0.00168465,0
0.1,1.1,0,2.99925,-0.00115154,0
0.1,1.2,0,2.999,-0.000248756,0
0.1,1.3,0,2.999,-0.000248756,0
0.1,1.4,0,3.0003,-0.00307273,0
0.1,1.5,0,2.99996,-0.00104022,0
0.1,1.6,0,2.99996,-0.00104022,0
0.1,1.7,0,3.00011,-0.00175348,0
0.1,1.8,0,3.0008,-0.00240071,0
0.1,1.9,0,3.00104,-0.00204703,0
0.1,2,0,3.00104,-0.00204703,0
0.1,2.1,0,2.99988,-0.00265053,0
0.1,2.2,0,3.0006,-0.00150014,0
0.1,2.3,0,3.0006,-0.00150014,0
0.1,2.4,0,3.00026,-0.001826,0
0.1,2.5,0,2.99966,-0.00132878,0
0.1,2.6,0,2.99966,-0.000726693,0
0.1,2.7,0,2.99966,-0.000726693,0
0.1,2.8,0,2.99993,-0.00247832,0
0.1,2.9,0,3.00006,-0.000387226,0
0.1,3,0,3.00006,-0.000387226,0
0.1,3.1,0,3.00004,-0.00111467,0
0.1,3.2,0,3.00055,-0.00123624,0
0.1,3.3,0,3.00086,-0.000576338,0
0.1,3.4,0,3.00086,-0.000576338,0
0.1,3.5,0,2.99968,-0.00209679,0
0.1,3.6,0,3.00029,0.001168,0
0.1,3.7,0,3.00029,0.001168,0
0.1,3.8,0,3.00002,4.17319e-05,0
0.1,3.9,0,3.00003,0.0011544,0
0.1,4,0,3.0003,0.00289882,0
0.1,4.1,0,3.0003,0.00289882,0
0.1,4.2,0,2.99946,-0.00201269,0
0.1,4.3,0,3.0009,0.00522236,0
0.1,4.4,0,3.0009,0.00522236,0
0.1,4.5,0,3.00032,0.00263961,0
0.1,4.6,0,3.00057,0.00484364,0
0.1,4.7,0,3.0013,0.00865084,0
0.1,4.8,0,3.0013,0.00865084,0
0.1,4.9,0,2.99917,-0.00209086,0
0.1,5,0,3.00263,0.0115256,0
0.1,5.1,0,3.00263,0.0115256,0
0.1,5.2,0,3.00138,0.00661984,0
0.1,5.3,0,3.00315,0.00935099,0
0.1,5.4,0,3.00539,0.0157741,0
0.1,5.5,0,3.00539,0.0157741,0
0.1,5.6,0,2.99913,-0.00233051,0
0.1,5.7,0,3.01032,0.0162947,0
0.1,5.8,0,3.01032,0.0162947,0
0.1,5.9,0,3.00637,0.00961598,0
0.1,6,0,3.01338,0.0123566,0
0.1,6.1,0,3.02122,0.0205579,0
0.1,6.2,0,3.02122,0.0205579,0
0.1,6.3,0,2.99937,-0.00178768,0
0.1,6.4,0,3.0372,0.0124875,0
0.1,6.5,0,3.0372,0.0124875,0
0.1,6.6,0,3.02339,0.00765717,0
0.1,6.7,0,3.05485,0.0100689,0
0.1,6.8,0,3.08615,0.0162391,0
0.1,6.9,0,3.08615,0.0162391,0
0.1,7,0,2.99885,-0.000573911,0
0.1,7.1,0,3.00033,-0.000210722,0
0.1,7.2,0,3.001,-0.000123556,0
0.1,7.3,0,3.00145,-1.54333e-05,0
0.1,7.4,0,3.0017,0.000109089,0
0.1,7.5,0,3.00179,0.000245034,0
0.1,7.6,0,3.00178,0.000388959,0
0.1,7.7,0,3.00168,0.000538375,0
0.1,7.8,0,3.00148,0.000683711,0
0.1,7.9,0,3.00112,0.000820939,0
0.1,8,0,3.00029,0.00103953,0
0.1,8.1,0,3.04892,-0.00411604,0
0.1,8.2,0,3.03264,-0.00230884,0
0.1,8.3,0,3.06862,-0.0055616,0
0.1,8.4,0,3.06862,-0.0055616,0
0.1,8.5,0,3.03761,-0.00437775,0
0.1,8.6,0,3.06541,-0.0089588,0
0.1,8.7,0,3.00721,0.00121497,0
0.1,8.8,0,3.0474,-0.0127813,0
0.1,8.9,0,3.03659,-0.00915948,0
0.1,9,0,3.02964,-0.016741,0
0.1,9.1,0,3.02964,-0.016741,0
0.1,9.2,0,3.00948,-0.00765254,0
0.1,9.3,0,3.01916,-0.0192547,0
0.1,9.4,0,3.00346,-0.00113147,0
0.1,9.5,0,3.01571,-0.0201407,0
0.1,9.6,0,3.01342,-0.0169114,0
0.1,9.7,0,3.01544,-0.0192758,0
0.1,9.8,0,3.01544,-0.0192758,0
0.1,9.9,0,3.00504,-0.00466427,0
0.1,10,0,3.01464,-0.0174178,0
0.1,10.1,0,3.00374,-0.00263467,0
0.1,10.2,0,3.0122,-0.0155149,0
0.1,10.3,0,3.01167,-0.0147113,0
0.1,10.4,0,3.00893,-0.0128873,0
0.1,10.5,0,3.00935,-0.0136099,0
0.1,10.6,0,3.00173,-0.000920119,0
0.1,10.7,0,3.00695,-0.0116025,0
0.1,10.8,0,3.00246,-0.00234651,0
0.1,10.9,0,3.00481,-0.00968156,0
0.1,11,0,3.00481,-0.00968156,0
0.1,11.1,0,3.0025,-0.00632688,0
0.1,11.2,0,3.00296,-0.00788902,0
0.1,11.3,0,2.99998,0.00156133,0
0.1,11.4,0,3.00144,-0.00612076,0
0.1,11.5,0,3.00043,-0.00119595,0
0.1,11.6,0,3.00057,-0.0044154,0
0.1,11.7,0,3.00057,-0.0044154,0
0.1,11.8,0,3.00026,-0.00128553,0
0.1,11.9,0,3.00052,-0.00267684,0
0.1,12,0,2.99952,0.00284824,0
0.1,12.1,0,3.00088,-0.00109963,0
0.1,12.2,0,3.00031,0.000780031,0
0.1,12.3,0,3.0008,-8.20769e-05,0
0.1,12.4,0,3.0008,-8.20769e-05,0
0.1,12.5,0,3.0002,0.0015343,0
0.1,12.6,0,3.00058,0.000869572,0
0.1,12.7,0,3.00019,0.00394164,0
0.2,0,0,3.00083,-0.00784068,0
0.2,0.1,0,3.00147,-0.00492469,0
0.2,0.2,0,3.00165,-0.00323145,0
0.2,0.3,0,3.00055,-0.00535539,0
0.2,0.4,0,3.00087,-0.00566857,0
0.2,0.5,0,3.00264,-0.00417099,0
0.2,0.6,0,3.00149,-0.00463464,0
0.2,0.7,0,2.99925,-0.00561897,0
0.2,0.8,0,3.00033,-0.00339283,0
0.2,0.9,0,3.00087,-0.0022774,0
0.2,1,0,2.9999,-0.00446119,0
0.2,1.1,0,2.99896,-0.00392808,0
0.2,1.2,0,2.99804,-0.000678068,0
0.2,1.3,0,2.99892,-0.00251464,0
0.2,1.4,0,3.0006,-0.00614547,0
0.2,1.5,0,3.00017,-0.00353224,0
0.2,1.6,0,2.99996,-0.0022231,0
0.2,1.7,0,3.00048,-0.00479082,0
0.2,1.8,0,3.00117,-0.00543805,0
0.2,1.9,0,3.00202,-0.0041648,0
0.2,2,0,3.00124,-0.00452513,0
0.2,2.1,0,2.99975,-0.00530106,0
0.2,2.2,0,3.00068,-0.00382199,0
0.2,2.3,0,3.00112,-0.00306546,0
0.2,2.4,0,2.99992,-0.00423854,0
0.2,2.5,0,2.99931,-0.00374133,0
0.2,2.6,0,2.99932,-0.0015738,0
0.2,2.7,0,2.99951,-0.00270455,0
0.2,2.8,0,2.99986,-0.00495665,0
0.2,2.9,0,3.00002,-0.00226809,0
0.2,3,0,3.00011,-0.00091994,0
0.2,3.1,0,3.00004,-0.00353874,0
0.2,3.2,0,3.00056,-0.00366031,0
0.2,3.3,0,3.00166,-0.00128466,0
0.2,3.4,0,3.00088,-0.00223871,0
0.2,3.5,0,2.99935,-0.00419357,0
0.2,3.6,0,3.00015,4.00341e-06,0
0.2,3.7,0,3.00053,0.00211074,0
0.2,3.8,0,2.99956,-0.00194381,0
0.2,3.9,0,2.99957,-0.000831139,0
0.2,4,0,3.00054,0.00544875,0
0.2,4.1,0,2.99999,0.00228941,0
0.2,4.2,0,2.99891,-0.00402538,0
0.2,4.3,0,3.00077,0.00527682,0
0.2,4.4,0,3.00169,0.00992816,0
0.2,4.5,0,2.99959,0.000630284,0
0.2,4.6,0,2.99985,0.00283431,0
0.2,4.7,0,3.00245,0.0165402,0
0.2,4.8,0,3.00108,0.00962905,0
0.2,4.9,0,2.99835,-0.00418171,0
0.2,5,0,3.00279,0.0133252,0
0.2,5.1,0,3.005,0.0220701,0
0.2,5.2,0,3.00051,0.00440924,0
0.2,5.3,0,3.00228,0.00714039,0
0.2,5.4,0,3.01033,0.0302636,0
0.2,5.5,0,3.00631,0.0186163,0
0.2,5.6,0,2.99826,-0.00466101,0
0.2,5.7,0,3.01265,0.0192856,0
0.2,5.8,0,3.01986,0.0312536,0
0.2,5.9,0,3.00564,0.00721031,0
0.2,6,0,3.01264,0.00995097,0
0.2,6.1,0,3.04088,0.0394756,0
0.2,6.2,0,3.02684,0.0251547,0
0.2,6.3,0,2.99874,-0.00357536,0
0.2,6.4,0,3.04738,0.0147784,0
0.2,6.5,0,3.07165,0.0240089,0
0.2,6.6,0,3.02192,0.00661979,0
0.2,6.7,0,3.05338,0.00903156,0
0.2,6.8,0,3.16603,0.0312442,0
0.2,6.9,0,3.10994,0.0204689,0
0.2,7,0,2.9977,-0.00114782,0
0.2,7.1,0,3.00065,-0.000421444,0
0.2,7.2,0,3.00199,-0.000247111,0
0.2,7.3,0,3.0029,-3.08667e-05,0
0.2,7.4,0,3.0034,0.000218178,0
0.2,7.5,0,3.00359,0.000490068,0
0.2,7.6,0,3.00356,0.000777919,0
0.2,7.7,0,3.00336,0.00107675,0
0.2,7.8,0,3.00296,0.00136742,0
0.2,7.9,0,3.00224,0.00164188,0
0.2,8,0,3.00059,0.00207907,0
0.2,8.1,0,3.09371,-0.00779332,0
0.2,8.2,0,3.03219,-0.000944966,0
0.2,8.3,0,3.08507,-0.00589226,0
0.2,8.4,0,3.09202,-0.00626327,0
0.2,8.5,0,3.03768,-0.00257107,0
0.2,8.6,0,3.13083,-0.0179176,0
0.2,8.7,0,3.00827,0.00350717,0
0.2,8.8,0,3.08642,-0.0228365,0
0.2,8.9,0,3.03778,-0.00646578,0
0.2,9,0,3.03507,-0.0169418,0
0.2,9.1,0,3.0429,-0.02235,0
0.2,9.2,0,3.01007,-0.00465006,0
0.2,9.3,0,3.03831,-0.0385093,0
0.2,9.4,0,3.0032,0.0020294,0
0.2,9.5,0,3.027,-0.0338363,0
0.2,9.6,0,3.01256,-0.0137018,0
0.2,9.7,0,3.01545,-0.0172622,0
0.2,9.8,0,3.02322,-0.0280068,0
0.2,9.9,0,3.00413,-0.00141256,0
0.2,10,0,3.02929,-0.0348356,0
0.2,10.1,0,3.00309,0.000688029,0
0.2,10.2,0,3.01962,-0.0240159,0
0.2,10.3,0,3.01122,-0.0113403,0
0.2,10.4,0,3.00848,-0.00951629,0
0.2,10.5,0,3.01507,-0.020892,0
0.2,10.6,0,3.00135,0.0024646,0
0.2,10.7,0,3.0139,-0.023205,0
0.2,10.8,0,3.00212,0.00105208,0
0.2,10.9,0,3.00722,-0.0132405,0
0.2,11,0,3.00477,-0.00697123,0
0.2,11.1,0,3.00219,-0.00292038,0
0.2,11.2,0,3.00499,-0.0126609,0
0.2,11.3,0,2.99961,0.00494209,0
0.2,11.4,0,3.00288,-0.0122415,0
0.2,11.5,0,2.99994,0.00213088,0
0.2,11.6,0,3.00054,-0.00446551,0
0.2,11.7,0,3.00012,-0.00229189,0
0.2,11.8,0,2.99963,0.0019823,0
0.2,11.9,0,3.00084,-0.00427886,0
0.2,12,0,2.9989,0.00611448,0
0.2,12.1,0,3.00176,-0.00219926,0
0.2,12.2,0,2.99986,0.00409761,0
0.2,12.3,0,3.00078,0.00207817,0
0.2,12.4,0,3.00081,0.00244698,0
0.2,12.5,0,2.99995,0.00490923,0
0.2,12.6,0,3.00085,0.00158283,0
0.2,12.7,0,2.99992,0.0071992,0
0.3,0,0,3.00078,-0.0109004,0
0.3,0.1,0,3.00141,-0.00798444,0
0.3,0.2,0,3.00135,-0.0072482,0
0.3,0.3,0,3.00054,-0.00856406,0
0.3,0.4,0,3.00087,-0.00887725,0
0.3,0.5,0,3.00189,-0.00770778,0
0.3,0.6,0,3.00112,-0.00744413,0
0.3,0.7,0,2.99888,-0.00842846,0
0.3,0.8,0,2.99995,-0.00620231,0
0.3,0.9,0,3.00022,-0.00579599,0
0.3,1,0,2.99961,-0.00723774,0
0.3,1.1,0,2.99867,-0.00670463,0
0.3,1.2,0,2.99831,-0.00466489,0
0.3,1.3,0,2.99922,-0.00558737,0
0.3,1.4,0,3.0009,-0.0092182,0
0.3,1.5,0,3.00047,-0.00660497,0
0.3,1.6,0,3.00048,-0.00613151,0
0.3,1.7,0,3.00086,-0.00782816,0
0.3,1.8,0,3.00154,-0.00847539,0
0.3,1.9,0,3.0019,-0.00746078,0
0.3,2,0,3.00112,-0.00717566,0
0.3,2.1,0,2.99963,-0.00795159,0
0.3,2.2,0,3.00055,-0.00647252,0
0.3,2.3,0,3.00047,-0.00597102,0
0.3,2.4,0,2.99957,-0.00665109,0
0.3,2.5,0,2.99897,-0.00615387,0
0.3,2.6,0,2.99909,-0.00473705,0
0.3,2.7,0,2.99944,-0.00518287,0
0.3,2.8,0,2.99979,-0.00743497,0
0.3,2.9,0,2.99995,-0.00474642,0
0.3,3,0,3.00006,-0.00424019,0
0.3,3.1,0,3.00004,-0.0059628,0
0.3,3.2,0,3.00056,-0.00608438,0
0.3,3.3,0,3.00116,-0.00436035,0
0.3,3.4,0,3.00055,-0.0043355,0
0.3,3.5,0,2.99903,-0.00629036,0
0.3,3.6,0,2.99982,-0.00209278,0
0.3,3.7,0,2.99981,-0.001274,0
0.3,3.8,0,2.9991,-0.00392935,0
0.3,3.9,0,2.99911,-0.00281668,0
0.3,4,0,2.99972,0.00135828,0
0.3,4.1,0,2.99945,0.000276722,0
0.3,4.2,0,2.99837,-0.00603808,0
0.3,4.3,0,3.00023,0.00326413,0
0.3,4.4,0,3.00034,0.0048181,0
0.3,4.5,0,2.99886,-0.00137904,0
0.3,4.6,0,2.99912,0.000824985,0
0.3,4.7,0,3.00081,0.00992733,0
0.3,4.8,0,3.00025,0.00753819,0
0.3,4.9,0,2.99752,-0.00627257,0
0.3,5,0,3.00196,0.0112344,0
0.3,5.1,0,3.00266,0.0140239,0
0.3,5.2,0,2.99964,0.00219864,0
0.3,5.3,0,3.00142,0.00492979,0
0.3,5.4,0,3.00678,0.0202938,0
0.3,5.5,0,3.00544,0.0162858,0
0.3,5.6,0,2.99739,-0.00699152,0
0.3,5.7,0,3.01179,0.0169551,0
0.3,5.8,0,3.01433,0.0208657,0
0.3,5.9,0,3.0049,0.00480464,0
0.3,6,0,3.01191,0.0075453,0
0.3,6.1,0,3.03077,0.0274932,0
0.3,6.2,0,3.02621,0.023367,0
0.3,6.3,0,2.99811,-0.00536303,0
0.3,6.4,0,3.04675,0.0129907,0
0.3,6.5,0,3.05396,0.0168536,0
0.3,6.6,0,3.02045,0.00558241,0
0.3,6.7,0,3.05191,0.00799418,0
0.3,6.8,0,3.12715,0.0230012,0
0.3,6.9,0,3.10879,0.019895,0
0.3,7,0,2.99655,-0.00172173,0
0.3,7.1,0,3.00098,-0.000632167,0
0.3,7.2,0,3.00298,-0.000370667,0
0.3,7.3,0,3.00434,-4.63e-05,0
0.3,7.4,0,3.0051,0.000327267,0
0.3,7.5,0,3.00538,0.000735102,0
0.3,7.6,0,3.00534,0.00116688,0
0.3,7.7,0,3.00504,0.00161513,0
0.3,7.8,0,3.00444,0.00205113,0
0.3,7.9,0,3.00337,0.00246282,0
0.3,8,0,3.00088,0.0031186,0
0.3,8.1,0,3.07352,-0.0044802,0
0.3,8.2,0,3.03174,0.000418907,0
0.3,8.3,0,3.08462,-0.00452839,0
0.3,8.4,0,3.0921,-0.00445659,0
0.3,8.5,0,3.03775,-0.00076439,0
0.3,8.6,0,3.0992,-0.0102478,0
0.3,8.7,0,3.00932,0.00579936,0
0.3,8.8,0,3.07272,-0.0156055,0
0.3,8.9,0,3.03898,-0.00377208,0
0.3,9,0,3.03627,-0.0142481,0
0.3,9.1,0,3.04349,-0.0193475,0
0.3,9.2,0,3.01066,-0.00164758,0
0.3,9.3,0,3.02886,-0.0242367,0
0.3,9.4,0,3.00294,0.00519026,0
0.3,9.5,0,3.02304,-0.0254589,0
0.3,9.6,0,3.01171,-0.0104921,0
0.3,9.7,0,3.0146,-0.0140525,0
0.3,9.8,0,3.02178,-0.0240375,0
0.3,9.9,0,3.00322,0.00183914,0
0.3,10,0,3.0208,-0.0211925,0
0.3,10.1,0,3.00244,0.00401073,0
0.3,10.2,0,3.01735,-0.0182822,0
0.3,10.3,0,3.01077,-0.0079693,0
0.3,10.4,0,3.00804,-0.0061453,0
0.3,10.5,0,3.01344,-0.0153395,0
0.3,10.6,0,3.00097,0.00584931,0
0.3,10.7,0,3.00989,-0.0123169,0
0.3,10.8,0,3.00179,0.00445066,0
0.3,10.9,0,3.00672,-0.00942421,0
0.3,11,0,3.00446,-0.00356473,0
0.3,11.1,0,3.00187,0.000486124,0
0.3,11.2,0,3.00389,-0.00675663,0
0.3,11.3,0,2.99924,0.00832286,0
0.3,11.4,0,3.00153,-0.00414269,0
0.3,11.5,0,2.99945,0.00545771,0
0.3,11.6,0,3.00005,-0.00113868,0
0.3,11.7,0,2.9995,0.000975946,0
0.3,11.8,0,2.99901,0.00525013,0
0.3,11.9,0,2.99986,0.000884623,0
0.3,12,0,2.99828,0.00938073,0
0.3,12.1,0,3.00048,0.00327613,0
0.3,12.2,0,2.99941,0.00741518,0
0.3,12.3,0,3.00033,0.00539575,0
0.3,12.4,0,3.00056,0.0058219,0
0.3,12.5,0,2.9997,0.00828415,0
0.3,12.6,0,3.00034,0.00604289,0
0.3,12.7,0,2.99966,0.0104568,0
0.4,0,0,3.00072,-0.0139602,0
0.4,0.1,0,3.00084,-0.0126427,0
0.4,0.2,0,3.00064,-0.0123424,0
0.4,0.3,0,3.00044,-0.0120421,0
0.4,0.4,0,3.00062,-0.0121953,0
0.4,0.5,0,3.00014,-0.011682,0
0.4,0.6,0,2.99967,-0.0111688,0
0.4,0.7,0,2.9985,-0.0112379,0
0.4,0.8,0,2.99899,-0.0103463,0
0.4,0.9,0,2.9991,-0.010304,0
0.4,1,0,2.9992,-0.0102616,0
0.4,1.1,0,2.99857,-0.00988459,0
0.4,1.2,0,2.99933,-0.0102654,0
0.4,1.3,0,3.00009,-0.0106462,0
0.4,1.4,0,3.0012,-0.0122909,0
0.4,1.5,0,3.00109,-0.0112469,0
0.4,1.6,0,3.00118,-0.0112014,0
0.4,1.7,0,3.00128,-0.0111559,0
0.4,1.8,0,3.00175,-0.0115989,0
0.4,1.9,0,3.00111,-0.0111016,0
0.4,2,0,3.00047,-0.0106043,0
0.4,2.1,0,2.9995,-0.0106021,0
0.4,2.2,0,2.99969,-0.00983994,0
0.4,2.3,0,2.99941,-0.00953395,0
0.4,2.4,0,2.99913,-0.00922797,0
0.4,2.5,0,2.99867,-0.00881665,0
0.4,2.6,0,2.99902,-0.00890122,0
0.4,2.7,0,2.99937,-0.00898579,0
0.4,2.8,0,2.99971,-0.00991329,0
0.4,2.9,0,2.99984,-0.00882511,0
0.4,3,0,2.99993,-0.00875536,0
0.4,3.1,0,3.00002,-0.0086856,0
0.4,3.2,0,3.00039,-0.00872565,0
0.4,3.3,0,2.99997,-0.00830486,0
0.4,3.4,0,2.99955,-0.00788407,0
0.4,3.5,0,2.99871,-0.00838715,0
0.4,3.6,0,2.99891,-0.00666735,0
0.4,3.7,0,2.99873,-0.00652432,0
0.4,3.8,0,2.99856,-0.00638129,0
0.4,3.9,0,2.99853,-0.00550387,0
0.4,4,0,2.99842,-0.00553878,0
0.4,4.1,0,2.99831,-0.00557368,0
0.4,4.2,0,2.99782,-0.00805077,0
0.4,4.3,0,2.9984,-0.0044306,0
0.4,4.4,0,2.99817,-0.00442628,0
0.4,4.5,0,2.99793,-0.00442195,0
0.4,4.6,0,2.99809,-0.00271887,0
0.4,4.7,0,2.99796,-0.00282369,0
0.4,4.8,0,2.99784,-0.00292851,0
0.4,4.9,0,2.9967,-0.00836342,0
0.4,5,0,2.99839,-0.00164926,0
0.4,5.1,0,2.99834,-0.00180321,0
0.4,5.2,0,2.99828,-0.00195717,0
0.4,5.3,0,2.99965,0.000132815,0
0.4,5.4,0,2.99965,-2.13492e-05,0
0.4,5.5,0,2.99965,-0.000175513,0
0.4,5.6,0,2.99653,-0.00932202,0
0.4,5.7,0,3.00223,-6.84913e-05,0
0.4,5.8,0,3.0024,-0.000165127,0
0.4,5.9,0,3.00257,-0.000261763,0
0.4,6,0,3.00805,0.00194741,0
0.4,6.1,0,3.00819,0.00274196,0
0.4,6.2,0,3.00832,0.00353652,0
0.4,6.3,0,2.99748,-0.00715071,0
0.4,6.4,0,3.01574,0.000576383,0
0.4,6.5,0,3.01465,0.00154105,0
0.4,6.6,0,3.01357,0.00250573,0
0.4,6.7,0,3.03796,0.00455494,0
0.4,6.8,0,3.03838,0.00515083,0
0.4,6.9,0,3.03879,0.00574671,0
0.4,7,0,2.9954,-0.00229564,0
0.4,7.1,0,3.00131,-0.000842889,0
0.4,7.2,0,3.00398,-0.000494222,0
0.4,7.3,0,3.00579,-6.17333e-05,0
0.4,7.4,0,3.0068,0.000436356,0
0.4,7.5,0,3.00718,0.000980136,0
0.4,7.6,0,3.00712,0.00155584,0
0.4,7.7,0,3.00672,0.0021535,0
0.4,7.8,0,3.00592,0.00273484,0
0.4,7.9,0,3.00449,0.00328375,0
0.4,8,0,3.00117,0.00415813,0
0.4,8.1,0,3.02444,0.00203925,0
0.4,8.2,0,3.02302,0.00266032,0
0.4,8.3,0,3.03313,0.0023225,0
0.4,8.4,0,3.03412,0.00317043,0
0.4,8.5,0,3.03303,0.00188013,0
0.4,8.6,0,3.03491,0.00280984,0
0.4,8.7,0,3.01037,0.00809155,0
0.4,8.8,0,3.02757,0.00216168,0
0.4,8.9,0,3.02785,0.00293052,0
0.4,9,0,3.01862,0.00125784,0
0.4,9.1,0,3.01746,0.00184911,0
0.4,9.2,0,3.01125,0.0013549,0
0.4,9.3,0,3.01003,0.00118127,0
0.4,9.4,0,3.00268,0.00835113,0
0.4,9.5,0,3.00622,0.00105236,0
0.4,9.6,0,3.00508,0.00114577,0
0.4,9.7,0,3.0047,0.00161915,0
0.4,9.8,0,3.00458,0.00169968,0
0.4,9.9,0,3.0023,0.00509085,0
0.4,10,0,3.00459,0.00279972,0
0.4,10.1,0,3.00178,0.00733343,0
0.4,10.2,0,3.00405,0.00392644,0
0.4,10.3,0,3.00444,0.0040189,0
0.4,10.4,0,3.00314,0.00499981,0
0.4,10.5,0,3.00327,0.00502609,0
0.4,10.6,0,3.00059,0.00923403,0
0.4,10.7,0,3.00222,0.00606887,0
0.4,10.8,0,3.00145,0.00784924,0
0.4,10.9,0,3.00126,0.00706243,0
0.4,11,0,3.00129,0.00707759,0
0.4,11.1,0,3.00035,0.00796893,0
0.4,11.2,0,3.00026,0.00791965,0
0.4,11.3,0,2.99888,0.0117036,0
0.4,11.4,0,2.99924,0.00868566,0
0.4,11.5,0,2.99896,0.00878454,0
0.4,11.6,0,2.99844,0.00938097,0
0.4,11.7,0,2.99819,0.00926799,0
0.4,11.8,0,2.99808,0.0100986,0
0.4,11.9,0,2.99809,0.0100955,0
0.4,12,0,2.99766,0.012647,0
0.4,12.1,0,2.99853,0.0109596,0
0.4,12.2,0,2.99885,0.0110579,0
0.4,12.3,0,2.999,0.0116187,0
0.4,12.4,0,2.99938,0.0117285,0
0.4,12.5,0,2.99935,0.0121324,0
0.4,12.6,0,2.99951,0.0121988,0
0.4,12.7,0,2.99939,0.0137143,0
0.5,0,0,3.00028,-0.0169173,0
0.5,0.1,0,3.00029,-0.0179704,0
0.5,0.2,0,3.00009,-0.0176701,0
0.5,0.3,0,2.99989,-0.0173698,0
0.5,0.4,0,2.99893,-0.0161016,0
0.5,0.5,0,2.99845,-0.0155884,0
0.5,0.6,0,2.99798,-0.0150751,0
0.5,0.7,0,2.99824,-0.0144084,0
0.5,0.8,0,2.99735,-0.014556,0
0.5,0.9,0,2.99746,-0.0145137,0
0.5,1,0,2.99757,-0.0144713,0
0.5,1.1,0,2.99959,-0.0154543,0
0.5,1.2,0,3.00035,-0.0158351,0
0.5,1.3,0,3.00111,-0.0162159,0
0.5,1.4,0,3.00137,-0.0156104,0
0.5,1.5,0,3.00232,-0.0166791,0
0.5,1.6,0,3.00241,-0.0166336,0
0.5,1.7,0,3.0025,-0.0165881,0
0.5,1.8,0,3.00102,-0.0152288,0
0.5,1.9,0,3.00038,-0.0147315,0
0.5,2,0,2.99974,-0.0142342,0
0.5,2.1,0,2.99912,-0.0132931,0
0.5,2.2,0,2.9983,-0.013265,0
0.5,2.3,0,2.99802,-0.012959,0
0.5,2.4,0,2.99774,-0.0126531,0
0.5,2.5,0,2.99843,-0.0128149,0
0.5,2.6,0,2.99878,-0.0128995,0
0.5,2.7,0,2.99913,-0.012984,0
0.5,2.8,0,2.99969,-0.0127239,0
0.5,2.9,0,3.00007,-0.0136262,0
0.5,3,0,3.00016,-0.0135565,0
0.5,3.1,0,3.00025,-0.0134867,0
0.5,3.2,0,2.99924,-0.0126572,0
0.5,3.3,0,2.99882,-0.0122364,0
0.5,3.4,0,2.99841,-0.0118157,0
0.5,3.5,0,2.99817,-0.0106683,0
0.5,3.6,0,2.99761,-0.0117146,0
0.5,3.7,0,2.99743,-0.0115715,0
0.5,3.8,0,2.99725,-0.0114285,0
0.5,3.9,0,2.9974,-0.0124656,0
0.5,4,0,2.99729,-0.0125005,0
0.5,4.1,0,2.99718,-0.0125354,0
0.5,4.2,0,2.99722,-0.0100544,0
0.5,4.3,0,2.99616,-0.0136408,0
0.5,4.4,0,2.99592,-0.0136365,0
0.5,4.5,0,2.99568,-0.0136321,0
0.5,4.6,0,2.99522,-0.0154192,0
0.5,4.7,0,2.99509,-0.015524,0
0.5,4.8,0,2.99497,-0.0156288,0
0.5,4.9,0,2.99599,-0.00995283,0
0.5,5,0,2.99403,-0.0174888,0
0.5,5.1,0,2.99398,-0.0176428,0
0.5,5.2,0,2.99392,-0.0177967,0
0.5,5.3,0,2.99253,-0.0201697,0
0.5,5.4,0,2.99253,-0.0203239,0
0.5,5.5,0,2.99253,-0.0204781,0
0.5,5.6,0,2.99606,-0.0103907,0
0.5,5.7,0,2.99017,-0.0211567,0
0.5,5.8,0,2.99034,-0.0212533,0
0.5,5.9,0,2.99051,-0.02135,0
0.5,6,0,2.98562,-0.0234396,0
0.5,6.1,0,2.98575,-0.0226451,0
0.5,6.2,0,2.98589,-0.0218505,0
0.5,6.3,0,2.99765,-0.00749882,0
0.5,6.4,0,2.97722,-0.0142327,0
0.5,6.5,0,2.97614,-0.013268,0
0.5,6.6,0,2.97505,-0.0123033,0
0.5,6.7,0,2.94724,-0.0135121,0
0.5,6.8,0,2.94765,-0.0129162,0
0.5,6.9,0,2.94806,-0.0123203,0
0.5,7,0,2.99614,-0.00193083,0
0.5,7.1,0,3.00219,-0.000369933,0
0.5,7.2,0,3.00486,1.9025e-05,0
0.5,7.3,0,3.00664,0.000503619,0
0.5,7.4,0,3.00761,0.00106159,0
0.5,7.5,0,3.00796,0.00167323,0
0.5,7.6,0,3.00789,0.00232369,0
0.5,7.7,0,3.00748,0.00300299,0
0.5,7.8,0,3.00669,0.00367131,0
0.5,7.9,0,3.00529,0.00430772,0
0.5,8,0,3.00208,0.00528615,0
0.5,8.1,0,2.97488,0.0085418,0
0.5,8.2,0,2.97346,0.00916288,0
0.5,8.3,0,2.96335,0.0109531,0
0.5,8.4,0,2.96435,0.011801,0
0.5,8.5,0,2.96907,0.0149967,0
0.5,8.6,0,2.97094,0.0159264,0
0.5,8.7,0,2.99861,0.0120083,0
0.5,8.8,0,2.98293,0.019954,0
0.5,8.9,0,2.98321,0.0207229,0
0.5,9,0,2.99101,0.0237626,0
0.5,9.1,0,2.98985,0.0243538,0
0.5,9.2,0,2.99325,0.0258673,0
0.5,9.3,0,2.99121,0.0266821,0
0.5,9.4,0,2.99567,0.0196855,0
0.5,9.5,0,2.98914,0.0275904,0
0.5,9.6,0,2.988,0.0276838,0
0.5,9.7,0,2.98722,0.0273362,0
0.5,9.8,0,2.9871,0.0274167,0
0.5,9.9,0,2.98968,0.024151,0
0.5,10,0,2.98833,0.026783,0
0.5,10.1,0,2.99202,0.0224428,0
0.5,10.2,0,2.99085,0.0261666,0
0.5,10.3,0,2.99125,0.0262591,0
0.5,10.4,0,2.993,0.0253684,0
0.5,10.5,0,2.99313,0.0253947,0
0.5,10.6,0,2.99578,0.0213017,0
0.5,10.7,0,2.99455,0.0244515,0
0.5,10.8,0,2.99536,0.0228031,0
0.5,10.9,0,2.99583,0.0235581,0
0.5,11,0,2.99586,0.0235733,0
0.5,11.1,0,2.99675,0.0226698,0
0.5,11.2,0,2.99665,0.0226205,0
0.5,11.3,0,2.99761,0.019125,0
0.5,11.4,0,2.99697,0.0215176,0
0.5,11.5,0,2.99677,0.0212474,0
0.5,11.6,0,2.99673,0.0203925,0
0.5,11.7,0,2.99648,0.0202795,0
0.5,11.8,0,2.99621,0.0192506,0
0.5,11.9,0,2.99622,0.0192476,0
0.5,12,0,2.99691,0.0174627,0
0.5,12.1,0,2.99652,0.018649,0
0.5,12.2,0,2.99684,0.0187473,0
0.5,12.3,0,2.99752,0.0183813,0
0.5,12.4,0,2.99791,0.0184911,0
0.5,12.5,0,2.9986,0.018323,0
0.5,12.6,0,2.99877,0.0183893,0
0.5,12.7,0,2.99916,0.0176364,0
0.6,0,0,2.99946,-0.0197718,0
0.6,0.1,0,2.99981,-0.0229517,0
0.6,0.2,0,2.99969,-0.0232314,0
0.6,0.3,0,2.99913,-0.0206775,0
0.6,0.4,0,2.998,-0.0191631,0
0.6,0.5,0,2.99682,-0.0194268,0
0.6,0.6,0,2.99666,-0.0188478,0
0.6,0.7,0,2.99808,-0.0179399,0
0.6,0.8,0,2.99563,-0.018386,0
0.6,0.9,0,2.99532,-0.018425,0
0.6,1,0,2.9978,-0.0185438,0
0.6,1.1,0,3.00027,-0.0197593,0
0.6,1.2,0,3.00137,-0.021374,0
0.6,1.3,0,3.00191,-0.0213321,0
0.6,1.4,0,3.0014,-0.0191767,0
0.6,1.5,0,3.0037,-0.0219962,0
0.6,1.6,0,3.00416,-0.0224282,0
0.6,1.7,0,3.00197,-0.0197409,0
0.6,1.8,0,3.00014,-0.0180707,0
0.6,1.9,0,2.99969,-0.0183504,0
0.6,2,0,2.99906,-0.0176629,0
0.6,2.1,0,2.99846,-0.0160247,0
0.6,2.2,0,2.99681,-0.0164332,0
0.6,2.3,0,2.9963,-0.0162463,0
0.6,2.4,0,2.99761,-0.0158705,0
0.6,2.5,0,2.99849,-0.0161102,0
0.6,2.6,0,2.99839,-0.0167318,0
0.6,2.7,0,2.99883,-0.0166686,0
0.6,2.8,0,2.9997,-0.0158668,0
0.6,2.9,0,3.00053,-0.0182967,0
0.6,3,0,3.00075,-0.0186436,0
0.6,3.1,0,2.99971,-0.0164053,0
0.6,3.2,0,2.99846,-0.0154089,0
0.6,3.3,0,2.99772,-0.0161551,0
0.6,3.4,0,2.99738,-0.0154229,0
0.6,3.5,0,2.99742,-0.0131339,0
0.6,3.6,0,2.99624,-0.016049,0
0.6,3.7,0,2.9959,-0.0164157,0
0.6,3.8,0,2.99659,-0.0142602,0
0.6,3.9,0,2.99682,-0.0156091,0
0.6,4,0,2.99633,-0.019527,0
0.6,4.1,0,2.99629,-0.0184836,0
0.6,4.2,0,2.99656,-0.0120489,0
0.6,4.3,0,2.99419,-0.0212779,0
0.6,4.4,0,2.9936,-0.0228124,0
0.6,4.5,0,2.99474,-0.0162891,0
0.6,4.6,0,2.9942,-0.0185724,0
0.6,4.7,0,2.99221,-0.0281737,0
0.6,4.8,0,2.99258,-0.025801,0
0.6,4.9,0,2.99539,-0.0110408,0
0.6,5,0,2.99045,-0.0301772,0
0.6,5.1,0,2.98958,-0.0334948,0
0.6,5.2,0,2.99296,-0.0204457,0
0.6,5.3,0,2.99118,-0.0234527,0
0.6,5.4,0,2.9854,-0.0406138,0
0.6,5.5,0,2.98691,-0.0363788,0
0.6,5.6,0,2.99599,-0.0101977,0
0.6,5.7,0,2.98058,-0.0377297,0
0.6,5.8,0,2.97815,-0.042399,0
0.6,5.9,0,2.98917,-0.02357,0
0.6,6,0,2.98284,-0.0263563,0
0.6,6.1,0,2.96347,-0.0486678,0
0.6,6.2,0,2.96859,-0.0420631,0
0.6,6.3,0,2.99862,-0.00640735,0
0.6,6.4,0,2.94779,-0.0252389,0
0.6,6.5,0,2.93842,-0.0275736,0
0.6,6.6,0,2.97164,-0.0133612,0
0.6,6.7,0,2.93597,-0.0151382,0
0.6,6.8,0,2.85496,-0.0311998,0
0.6,6.9,0,2.8758,-0.0264067,0
0.6,7,0,2.99879,-0.000627291,0
0.6,7.1,0,3.00364,0.0007867,0
0.6,7.2,0,3.00562,0.00116907,0
0.6,7.3,0,3.0069,0.00164976,0
0.6,7.4,0,3.00755,0.00220298,0
0.6,7.5,0,3.00774,0.00281438,0
0.6,7.6,0,3.00764,0.00347042,0
0.6,7.7,0,3.00732,0.0041636,0
0.6,7.8,0,3.00674,0.00486054,0
0.6,7.9,0,3.00578,0.00553472,0
0.6,8,0,3.0036,0.00650266,0
0.6,8.1,0,2.92484,0.0150275,0
0.6,8.2,0,2.96683,0.0112578,0
0.6,8.3,0,2.91138,0.0176094,0
0.6,8.4,0,2.90527,0.0191535,0
0.6,8.5,0,2.96565,0.0170482,0
0.6,8.6,0,2.9073,0.0291018,0
0.6,8.7,0,2.99876,0.0131917,0
0.6,8.8,0,2.9388,0.0377715,0
0.6,8.9,0,2.97139,0.0264326,0
0.6,9,0,2.97321,0.038875,0
0.6,9.1,0,2.96426,0.045584,0
0.6,9.2,0,2.99372,0.0274132,0
0.6,9.3,0,2.97239,0.0522657,0
0.6,9.4,0,2.99659,0.0216076,0
0.6,9.5,0,2.9718,0.0541552,0
0.6,9.6,0,2.98205,0.0387815,0
0.6,9.7,0,2.97763,0.042594,0
0.6,9.8,0,2.96936,0.0531137,0
0.6,9.9,0,2.98915,0.0267948,0
0.6,10,0,2.97202,0.0507575,0
0.6,10.1,0,2.99072,0.0253789,0
0.6,10.2,0,2.97776,0.0484384,0
0.6,10.3,0,2.98443,0.0382434,0
0.6,10.4,0,2.98754,0.0364834,0
0.6,10.5,0,2.98302,0.0457662,0
0.6,10.6,0,2.99426,0.0250019,0
0.6,10.7,0,2.98687,0.0428311,0
0.6,10.8,0,2.9939,0.0268689,0
0.6,10.9,0,2.99043,0.0400629,0
0.6,11,0,2.99231,0.0346786,0
0.6,11.1,0,2.99465,0.0308175,0
0.6,11.2,0,2.99309,0.037346,0
0.6,11.3,0,2.99667,0.0238704,0
0.6,11.4,0,2.99475,0.0343532,0
0.6,11.5,0,2.99622,0.0262342,0
0.6,11.6,0,2.99507,0.0310208,0
0.6,11.7,0,2.99525,0.0292115,0
0.6,11.8,0,2.99547,0.025402,0
0.6,11.9,0,2.99424,0.0283408,0
0.6,12,0,2.99661,0.0224667,0
0.6,12.1,0,2.99444,0.0263443,0
0.6,12.2,0,2.99632,0.0238073,0
0.6,12.3,0,2.99625,0.0248283,0
0.6,12.4,0,2.99675,0.0247138,0
0.6,12.5,0,2.99823,0.0232685,0
0.6,12.6,0,2.9981,0.0246145,0
0.6,12.7,0,2.99894,0.022223,0
0.7,0,0,2.99864,-0.0226263,0
0.7,0.1,0,2.99899,-0.0258062,0
0.7,0.2,0,2.99906,-0.0272903,0
0.7,0.3,0,2.99832,-0.0236095,0
0.7,0.4,0,2.99718,-0.0220952,0
0.7,0.5,0,2.99565,-0.0227473,0
0.7,0.6,0,2.9965,-0.0223793,0
0.7,0.7,0,2.99793,-0.0214714,0
0.7,0.8,0,2.99548,-0.0219175,0
0.7,0.9,0,2.99475,-0.0224438,0
0.7,1,0,2.99842,-0.0226431,0
0.7,1.1,0,3.00089,-0.0238587,0
0.7,1.2,0,3.00216,-0.0260903,0
0.7,1.3,0,3.00194,-0.0248984,0
0.7,1.4,0,3.00143,-0.022743,0
0.7,1.5,0,3.00373,-0.0255625,0
0.7,1.6,0,3.00438,-0.0264616,0
0.7,1.7,0,3.00107,-0.0224533,0
0.7,1.8,0,2.99923,-0.0207832,0
0.7,1.9,0,2.99888,-0.0214513,0
0.7,2,0,2.99841,-0.0203944,0
0.7,2.1,0,2.99781,-0.0187562,0
0.7,2.2,0,2.99615,-0.0191647,0
0.7,2.3,0,2.99564,-0.019487,0
0.7,2.4,0,2.99774,-0.0190763,0
0.7,2.5,0,2.99863,-0.019316,0
0.7,2.6,0,2.9983,-0.0202061,0
0.7,2.7,0,2.99884,-0.0198115,0
0.7,2.8,0,2.99972,-0.0190097,0
0.7,2.9,0,3.00055,-0.0214396,0
0.7,3,0,3.00058,-0.0222849,0
0.7,3.1,0,2.99898,-0.0189624,0
0.7,3.2,0,2.99772,-0.017966,0
0.7,3.3,0,2.99682,-0.0192957,0
0.7,3.4,0,2.99663,-0.0178885,0
0.7,3.5,0,2.99667,-0.0155994,0
0.7,3.6,0,2.99549,-0.0185146,0
0.7,3.7,0,2.99495,-0.0199181,0
0.7,3.8,0,2.99608,-0.0167564,0
0.7,3.9,0,2.99631,-0.0181053,0
0.7,4,0,2.99563,-0.0239648,0
0.7,4.1,0,2.99562,-0.0204782,0
0.7,4.2,0,2.99589,-0.0140434,0
0.7,4.3,0,2.99353,-0.0232724,0
0.7,4.4,0,2.9922,-0.0276424,0
0.7,4.5,0,2.99403,-0.0178595,0
0.7,4.6,0,2.99349,-0.0201429,0
0.7,4.7,0,2.99057,-0.0344923,0
0.7,4.8,0,2.99198,-0.0268889,0
0.7,4.9,0,2.99479,-0.0121288,0
0.7,5,0,2.98984,-0.0312651,0
0.7,5.1,0,2.98747,-0.0405448,0
0.7,5.2,0,2.99257,-0.0208941,0
0.7,5.3,0,2.99079,-0.0239011,0
0.7,5.4,0,2.98212,-0.0495657,0
0.7,5.5,0,2.98684,-0.0361857,0
0.7,5.6,0,2.99592,-0.0100046,0
0.7,5.7,0,2.98051,-0.0375367,0
0.7,5.8,0,2.9732,-0.0509275,0
0.7,5.9,0,2.98965,-0.0226356,0
0.7,6,0,2.98332,-0.025422,0
0.7,6.1,0,2.9542,-0.0592866,0
0.7,6.2,0,2.96957,-0.0409716,0
0.7,6.3,0,2.9996,-0.00531588,0
0.7,6.4,0,2.94877,-0.0241475,0
0.7,6.5,0,2.92357,-0.0330474,0
0.7,6.6,0,2.97394,-0.012211,0
0.7,6.7,0,2.93827,-0.013988,0
0.7,6.8,0,2.81655,-0.0383785,0
0.7,6.9,0,2.87845,-0.0251032,0
0.7,7,0,3.00144,0.000676248,0
0.7,7.1,0,3.00508,0.00194333,0
0.7,7.2,0,3.00638,0.00231912,0
0.7,7.3,0,3.00716,0.0027959,0
0.7,7.4,0,3.00749,0.00334437,0
0.7,7.5,0,3.00752,0.00395553,0
0.7,7.6,0,3.00739,0.00461716,0
0.7,7.7,0,3.00715,0.0053242,0
0.7,7.8,0,3.00679,0.00604977,0
0.7,7.9,0,3.00626,0.00676172,0
0.7,8,0,3.00512,0.00771916,0
0.7,8.1,0,2.90497,0.0184301,0
0.7,8.2,0,2.96911,0.0124521,0
0.7,8.3,0,2.91366,0.0188037,0
0.7,8.4,0,2.9067,0.02031,0
0.7,8.5,0,2.96708,0.0182047,0
0.7,8.6,0,2.87557,0.0362809,0
0.7,8.7,0,2.9989,0.0143751,0
0.7,8.8,0,2.92482,0.0442637,0
0.7,8.9,0,2.97127,0.0277555,0
0.7,9,0,2.97309,0.0401979,0
0.7,9.1,0,2.96472,0.0471299,0
0.7,9.2,0,2.99418,0.0289591,0
0.7,9.3,0,2.96339,0.0659786,0
0.7,9.4,0,2.99751,0.0235297,0
0.7,9.5,0,2.96864,0.0615826,0
0.7,9.6,0,2.98255,0.0411146,0
0.7,9.7,0,2.97813,0.0449271,0
0.7,9.8,0,2.96828,0.0564934,0
0.7,9.9,0,2.98863,0.0294387,0
0.7,10,0,2.96337,0.0641537,0
0.7,10.1,0,2.98941,0.0283151,0
0.7,10.2,0,2.97495,0.053843,0
0.7,10.3,0,2.98289,0.0415539,0
0.7,10.4,0,2.98601,0.0397939,0
0.7,10.5,0,2.9804,0.0515946,0
0.7,10.6,0,2.99274,0.028702,0
0.7,10.7,0,2.98228,0.0539448,0
0.7,10.8,0,2.99243,0.0309348,0
0.7,10.9,0,2.98884,0.0445258,0
0.7,11,0,2.99103,0.039099,0
0.7,11.1,0,2.99337,0.0352378,0
0.7,11.2,0,2.99156,0.0443209,0
0.7,11.3,0,2.99573,0.0286158,0
0.7,11.4,0,2.99321,0.0431694,0
0.7,11.5,0,2.99567,0.031221,0
0.7,11.6,0,2.99452,0.0360076,0
0.7,11.7,0,2.99495,0.034297,0
0.7,11.8,0,2.99517,0.0304875,0
0.7,11.9,0,2.9934,0.0346499,0
0.7,12,0,2.99631,0.0274707,0
0.7,12.1,0,2.99326,0.0326923,0
0.7,12.2,0,2.99593,0.0286552,0
0.7,12.3,0,2.99586,0.0296763,0
0.7,12.4,0,2.99643,0.0293968,0
0.7,12.5,0,2.99791,0.0279515,0
0.7,12.6,0,2.99771,0.029881,0
0.7,12.7,0,2.99873,0.0268096,0
0.8,0,0,2.99782,-0.0254807,0
0.8,0.1,0,2.99805,-0.0279094,0
0.8,0.2,0,2.99785,-0.0277088,0
0.8,0.3,0,2.9975,-0.0265415,0
0.8,0.4,0,2.99637,-0.0250272,0
0.8,0.5,0,2.99621,-0.0253943,0
0.8,0.6,0,2.99658,-0.0256518,0
0.8,0.7,0,2.99777,-0.0250029,0
0.8,0.8,0,2.99611,-0.0255027,0
0.8,0.9,0,2.99723,-0.0261904,0