/*--------------------------------*- C++ -*----------------------------------*\
| =========                 |                                                 |
| \\      /  F ield         | OpenFOAM: The Open Source CFD Toolbox           |
|  \\    /   O peration     | Version:  v1806                                 |
|   \\  /    A nd           | Web:      www.OpenFOAM.com                      |
|    \\/     M anipulation  |                                                 |
\*---------------------------------------------------------------------------*/
FoamFile
{
    version     2.0;
    format      ascii;
    class       volScalarField;
    location    "5";
    object      p;
}
// * * * * * * * * * * * * * * * * * * * * * * * * * * * * * * * * * * * * * //

dimensions      [0 2 -2 0 0 0 0];


internalField   nonuniform List<scalar> 
24000
(
14.2712
13.2299
12.5817
12.0932
11.6689
11.3021
10.9823
10.6941
10.4256
10.1685
9.91774
9.66999
9.42359
9.17687
8.92946
8.68007
8.42907
8.1764
7.9234
7.67046
14.0976
13.1812
12.5633
12.0817
11.6611
11.2955
10.9763
10.6894
10.4226
10.1672
9.91814
9.67169
9.42632
9.18019
8.93314
8.68369
8.43257
8.17877
7.92503
7.67068
14.0494
13.1653
12.5568
12.0767
11.6581
11.2945
10.9769
10.6915
10.4263
10.1726
9.92515
9.68016
9.43591
9.19055
8.94385
8.69418
8.44231
8.18706
7.93156
7.67489
13.9921
13.1328
12.5382
12.0644
11.6502
11.29
10.9753
10.6924
10.4296
10.1782
9.93286
9.68984
9.44727
9.20307
8.95695
8.70703
8.45421
8.19695
7.93873
7.67851
13.9567
13.1118
12.5261
12.0568
11.6459
11.2888
10.977
10.6969
10.4366
10.1876
9.9445
9.70356
9.46278
9.21991
8.97442
8.72423
8.47006
8.21025
7.94828
7.68312
13.9292
13.0928
12.513
12.048
11.6405
11.2868
10.9782
10.7012
10.4439
10.1979
9.95756
9.71926
9.48074
9.23965
8.99511
8.7448
8.48914
8.22628
7.95958
7.68818
13.9079
13.0777
12.5021
12.041
11.6368
11.2866
10.9813
10.7079
10.4536
10.2109
9.97366
9.73849
9.50262
9.26381
9.02053
8.77034
8.51299
8.24651
7.97391
7.69444
13.8911
13.0663
12.4932
12.0354
11.6341
11.2875
10.9853
10.7157
10.4648
10.2259
9.99211
9.76075
9.52806
9.29227
9.05072
8.80112
8.54203
8.2715
7.99174
7.7023
13.8773
13.0582
12.486
12.0311
11.6324
11.2896
10.9904
10.7252
10.4775
10.2432
10.0131
9.78655
9.55751
9.32589
9.08663
8.83857
8.57774
8.30299
8.01455
7.71272
13.8656
13.053
12.4801
12.0283
11.6317
11.293
10.9965
10.7361
10.4917
10.2628
10.0365
9.81599
9.591
9.36519
9.12884
8.88391
8.62147
8.34283
8.04381
7.72698
13.8555
13.0504
12.475
12.0268
11.6317
11.2978
11.0033
10.7486
10.5069
10.2847
10.0619
9.84928
9.62835
9.41099
9.17777
8.93907
8.67468
8.39436
8.08142
7.74701
13.8467
13.0493
12.4705
12.0262
11.6322
11.3034
11.0104
10.7621
10.5227
10.3086
10.0889
9.88622
9.66941
9.46357
9.23387
9.00559
8.73921
8.46133
8.13032
7.77728
13.8391
13.0488
12.4663
12.0264
11.633
11.3095
11.0175
10.7763
10.5386
10.3339
10.1168
9.92654
9.71331
9.52329
9.29672
9.08551
8.81568
8.54993
8.19195
7.83001
13.833
13.0477
12.4623
12.0267
11.6338
11.3154
11.0241
10.7901
10.5541
10.3593
10.1451
9.96852
9.75984
9.58823
9.36685
9.17776
8.90696
8.66237
8.27059
7.91631
13.8286
13.0444
12.4582
12.0264
11.6344
11.3201
11.03
10.8024
10.5686
10.3833
10.1727
10.0103
9.80752
9.65677
9.44258
9.28194
9.01233
8.80316
8.36793
8.06686
13.8271
13.0379
12.4539
12.0252
11.6346
11.3232
11.0348
10.8125
10.5815
10.405
10.1988
10.0507
9.85459
9.72736
9.52205
9.39682
9.13026
8.97119
8.48433
8.28131
13.8274
13.0285
12.4492
12.024
11.6341
11.3252
11.0379
10.8203
10.5916
10.4234
10.2207
10.0875
9.89755
9.79563
9.60089
9.51512
9.25943
9.13753
8.63891
8.49483
13.8364
13.01
12.4474
12.0197
11.6371
11.3224
11.0451
10.8221
10.607
10.4339
10.2503
10.1152
9.95225
9.8573
9.70054
9.641
9.43519
9.3307
8.8293
8.77463
13.8468
12.9925
12.4465
12.0178
11.6415
11.3227
11.053
10.8269
10.6224
10.4476
10.2796
10.1455
10.0078
9.92043
9.80909
9.77161
9.62504
9.60012
9.0858
9.1028
13.858
12.9644
12.4535
12.0072
11.6527
11.3063
11.0709
10.8108
10.6509
10.4304
10.3251
10.1275
10.0883
9.90699
9.9667
9.7727
9.94465
9.53615
8.76177
5.76431
14.0798
13.2128
12.5825
12.0997
11.6787
11.3101
10.9876
10.6976
10.428
10.1701
9.91877
9.67062
9.42396
9.17706
8.92957
8.68014
8.42913
8.17651
7.92358
7.67079
13.9088
13.1688
12.568
12.089
11.6718
11.3049
10.9829
10.6941
10.4261
10.1697
9.91995
9.67301
9.42731
9.18092
8.93366
8.68412
8.43287
8.17918
7.92572
7.67187
13.8605
13.1537
12.5626
12.0843
11.6688
11.304
10.9836
10.6963
10.4299
10.1753
9.92715
9.68168
9.43713
9.19158
8.9447
8.6949
8.44287
8.18767
7.93263
7.67639
13.8026
13.1207
12.544
12.072
11.6607
11.2994
10.9821
10.6972
10.4332
10.1808
9.93487
9.69134
9.44844
9.20402
8.95773
8.70772
8.45474
8.19758
7.93987
7.68
13.7669
13.0997
12.532
12.0646
11.6565
11.2982
10.9838
10.7017
10.4402
10.1903
9.94656
9.70516
9.46404
9.22092
8.97524
8.72493
8.4706
8.21088
7.94938
7.68462
13.7391
13.0804
12.5189
12.0557
11.6511
11.2962
10.985
10.7061
10.4474
10.2005
9.95952
9.72076
9.48196
9.24065
8.99593
8.7455
8.48968
8.22691
7.9607
7.68972
13.7177
13.0653
12.508
12.0487
11.6474
11.296
10.988
10.7127
10.4572
10.2136
9.97568
9.74003
9.50384
9.26481
9.02136
8.77106
8.51355
8.24715
7.975
7.69607
13.7006
13.0538
12.4991
12.043
11.6446
11.2969
10.9921
10.7205
10.4683
10.2286
9.9941
9.7623
9.52927
9.29327
9.05154
8.80183
8.54258
8.27212
7.99281
7.70405
13.6866
13.0457
12.4919
12.0387
11.6429
11.2991
10.9972
10.73
10.481
10.2459
10.0151
9.78812
9.5587
9.32693
9.08743
8.83931
8.57828
8.3036
8.01555
7.71461
13.6748
13.0406
12.486
12.0359
11.6421
11.3026
11.0033
10.741
10.4952
10.2656
10.0385
9.81761
9.59214
9.36629
9.12958
8.88471
8.62194
8.34342
8.04476
7.72891
13.6645
13.0381
12.4808
12.0343
11.642
11.3073
11.01
10.7535
10.5103
10.2875
10.0638
9.851
9.62938
9.41224
9.17836
8.9401
8.67493
8.39508
8.08215
7.74881
13.6556
13.0372
12.4762
12.0338
11.6426
11.313
11.0171
10.7672
10.5261
10.3114
10.0907
9.88806
9.67034
9.46505
9.23424
9.00706
8.73904
8.46257
8.13068
7.77799
13.648
13.0369
12.4718
12.034
11.6433
11.3191
11.024
10.7814
10.5419
10.3368
10.1185
9.92855
9.71413
9.52512
9.29681
9.08775
8.81472
8.55252
8.19123
7.83168
13.6419
13.0359
12.4676
12.0344
11.6441
11.325
11.0306
10.7953
10.5574
10.3623
10.1468
9.97071
9.76057
9.59051
9.36664
9.18107
8.90482
8.6668
8.26675
7.91531
13.6375
13.0327
12.4633
12.0341
11.6447
11.3297
11.0364
10.8076
10.5719
10.3864
10.1743
10.0126
9.80824
9.65937
9.4422
9.28618
9.00904
8.8094
8.3582
8.05959
13.6361
13.026
12.459
12.0329
11.645
11.3328
11.0412
10.8176
10.5847
10.408
10.2002
10.0529
9.8551
9.72982
9.52165
9.40153
9.12603
8.97888
8.46621
8.26042
13.6365
13.016
12.4544
12.0314
11.6444
11.3345
11.0443
10.8251
10.5948
10.4259
10.2222
10.0884
9.89808
9.79551
9.60038
9.51498
9.25588
9.13934
8.61274
8.43662
13.6464
12.9965
12.4527
12.0267
11.648
11.3312
11.052
10.826
10.611
10.4355
10.2531
10.1141
9.95537
9.85204
9.7056
9.62705
9.4402
9.31748
8.75873
8.67122
13.6584
12.9779
12.4514
12.0249
11.6531
11.3311
11.0606
10.8304
10.6272
10.4478
10.2836
10.1428
10.0129
9.91305
9.81716
9.75304
9.62938
9.56511
8.94914
8.9672
13.6698
12.9484
12.4582
12.015
11.6643
11.314
11.0781
10.8142
10.655
10.4311
10.3277
10.1269
10.0898
9.90542
9.9671
9.77271
9.93207
9.49434
8.45028
4.96663
14.0011
13.2151
12.5935
12.1115
11.692
11.3202
10.993
10.7005
10.4297
10.1711
9.91935
9.67095
9.42413
9.17712
8.92954
8.68002
8.42893
8.17625
7.92346
7.67062
13.8318
13.1748
12.5835
12.1025
11.687
11.3178
10.9911
10.6989
10.4292
10.1719
9.9213
9.67393
9.42787
9.18141
8.93391
8.6844
8.43261
8.17887
7.92403
7.67408
13.7838
13.1604
12.5786
12.0981
11.6842
11.3172
10.9921
10.7012
10.4332
10.1776
9.92862
9.68273
9.43784
9.19228
8.9451
8.69543
8.44271
8.1875
7.93075
7.68006
13.7257
13.1273
12.5601
12.0859
11.676
11.3126
10.9906
10.7023
10.4366
10.1832
9.93642
9.69245
9.44919
9.20475
8.95814
8.70824
8.45455
8.19736
7.93801
7.68379
13.6898
13.1062
12.5483
12.0788
11.6718
11.3115
10.9924
10.7068
10.4435
10.1926
9.94813
9.7063
9.46485
9.22174
8.97574
8.72552
8.47047
8.21072
7.94752
7.68851
13.6619
13.0869
12.5351
12.0698
11.6663
11.3094
10.9935
10.7112
10.4508
10.2028
9.96104
9.72184
9.48268
9.24138
8.99639
8.74608
8.48957
8.22676
7.95895
7.69361
13.6404
13.0716
12.5241
12.0628
11.6626
11.3092
10.9966
10.7178
10.4605
10.2159
9.97722
9.74116
9.5046
9.26554
9.02182
8.77163
8.51346
8.24703
7.97333
7.69996
13.6233
13.0602
12.515
12.0572
11.6598
11.3101
11.0006
10.7256
10.4716
10.2309
9.99557
9.76338
9.53001
9.29399
9.052
8.80238
8.5425
8.272
7.99124
7.7079
13.6093
13.0523
12.5075
12.0529
11.658
11.3123
11.0057
10.7351
10.4842
10.2482
10.0166
9.78921
9.55942
9.32764
9.08788
8.83981
8.57822
8.30345
8.01417
7.71847
13.5975
13.0474
12.5013
12.05
11.6571
11.3159
11.0117
10.7462
10.4983
10.2679
10.0399
9.81873
9.59279
9.36702
9.12999
8.88517
8.6219
8.34312
8.04366
7.73255
13.5872
13.0451
12.4957
12.0485
11.6571
11.3208
11.0183
10.7588
10.5134
10.2899
10.065
9.85223
9.6299
9.41309
9.17864
8.94061
8.67483
8.39444
8.08115
7.75207
13.5784
13.0444
12.4906
12.048
11.6577
11.3266
11.0251
10.7726
10.5291
10.314
10.0917
9.88949
9.67057
9.46617
9.23415
9.00788
8.73865
8.46183
8.12967
7.77779
13.5709
13.0443
12.4858
12.0484
11.6585
11.3328
11.0319
10.787
10.5448
10.3395
10.1193
9.93015
9.71402
9.52653
9.29615
9.08908
8.81351
8.55242
8.19079
7.82476
13.5649
13.0434
12.4812
12.0489
11.6593
11.3388
11.0383
10.8011
10.5601
10.3652
10.1473
9.97259
9.75987
9.59249
9.36479
9.1835
8.90119
8.66828
8.26297
7.90107
13.5605
13.0402
12.4768
12.0487
11.6599
11.3436
11.044
10.8135
10.5746
10.3894
10.1748
10.0147
9.80759
9.66146
9.43983
9.28881
9.00257
8.81121
8.34764
8.03308
13.559
13.0333
12.4726
12.0473
11.6603
11.3466
11.0489
10.8234
10.5876
10.411
10.201
10.055
9.85483
9.73223
9.5197
9.40444
9.11691
8.98033
8.44201
8.21953
13.5589
13.0226
12.4685
12.0452
11.6599
11.3479
11.052
10.8304
10.5978
10.4284
10.2233
10.0898
9.8988
9.79667
9.60036
9.51754
9.24937
9.14227
8.56025
8.37801
13.5689
13.0013
12.4683
12.0394
11.664
11.3431
11.0604
10.8296
10.6145
10.4353
10.2551
10.1124
9.95717
9.84933
9.70763
9.62605
9.43748
9.33209
8.70212
8.54923
13.5824
12.9805
12.4682
12.0374
11.6704
11.3417
11.0701
10.8329
10.6322
10.4469
10.2865
10.14
10.0147
9.90896
9.81486
9.74558
9.60931
9.56325
8.87605
9.07811
13.596
12.9512
12.4725
12.0295
11.6812
11.3253
11.0861
10.8182
10.6579
10.432
10.3272
10.1273
10.0861
9.90884
9.95571
9.78874
9.88979
9.48348
8.6016
4.76372
13.9385
13.2106
12.5994
12.1179
11.7008
11.3277
10.9976
10.7032
10.4316
10.1724
9.92026
9.67153
9.42451
9.17736
8.92967
8.68005
8.42891
8.17617
7.92373
7.67067
13.7703
13.1724
12.5909
12.11
11.6967
11.3269
10.9975
10.7032
10.4324
10.1743
9.92314
9.67537
9.42887
9.18235
8.93449
8.68505
8.43253
8.17875
7.92285
7.67732
13.7226
13.1583
12.5864
12.1058
11.694
11.3265
10.9987
10.7056
10.4363
10.1801
9.93054
9.68429
9.43897
9.1934
8.94581
8.69625
8.4427
8.18745
7.92978
7.68497
13.6643
13.1251
12.568
12.0938
11.6858
11.322
10.9974
10.7068
10.4399
10.1859
9.93843
9.69409
9.45036
9.2059
8.95884
8.70905
8.45452
8.19729
7.93699
7.68873
13.6284
13.104
12.5564
12.0869
11.6816
11.3208
10.9992
10.7114
10.4468
10.1953
9.95014
9.70796
9.46607
9.22297
8.97651
8.7264
8.47049
8.21067
7.9466
7.69361
13.6004
13.0845
12.5431
12.078
11.6761
11.3187
11.0004
10.7157
10.4541
10.2054
9.96302
9.72345
9.48382
9.24253
8.99711
8.74695
8.48959
8.22673
7.95804
7.69863
13.5788
13.0692
12.532
12.071
11.6724
11.3186
11.0034
10.7223
10.4638
10.2185
9.97922
9.74281
9.5058
9.26669
9.02255
8.77249
8.5135
8.24701
7.97247
7.70498
13.5617
13.0578
12.5229
12.0653
11.6696
11.3195
11.0074
10.7302
10.4748
10.2335
9.99754
9.765
9.53118
9.29512
9.05273
8.8032
8.54256
8.27198
7.99044
7.71289
13.5477
13.0498
12.5152
12.061
11.6678
11.3218
11.0125
10.7397
10.4874
10.2509
10.0185
9.79083
9.56057
9.32877
9.08862
8.84058
8.5783
8.3034
8.01349
7.72342
13.536
13.0449
12.5088
12.0581
11.6669
11.3254
11.0185
10.7508
10.5015
10.2706
10.0417
9.82039
9.59388
9.36815
9.13071
8.88587
8.62202
8.34295
8.04308
7.73721
13.5258
13.0425
12.503
12.0566
11.6668
11.3304
11.025
10.7635
10.5164
10.2927
10.0667
9.85399
9.63085
9.41432
9.17926
8.94125
8.6751
8.39377
8.08107
7.75623
13.5172
13.0418
12.4977
12.0563
11.6675
11.3363
11.0316
10.7774
10.5319
10.3169
10.0931
9.89151
9.67113
9.46777
9.23436
9.00891
8.73888
8.46087
8.12879
7.77774
13.5099
13.0415
12.4927
12.0567
11.6684
11.3426
11.0382
10.7919
10.5475
10.3426
10.1204
9.93232
9.71421
9.5284
9.29582
9.09043
8.81364
8.55155
8.19844
7.81848
13.5041
13.0405
12.488
12.0572
11.6693
11.3486
11.0444
10.8062
10.5627
10.3685
10.1481
9.97522
9.75927
9.59529
9.36283
9.18668
8.89812
8.66919
8.26175
7.88472
13.4997
13.0372
12.4835
12.0571
11.67
11.3534
11.05
10.8186
10.5771
10.3927
10.1756
10.0174
9.80688
9.6645
9.43676
9.29298
8.99637
8.81323
8.34252
8.00578
13.4982
13.0302
12.4796
12.0555
11.6706
11.3564
11.0552
10.8284
10.5905
10.4142
10.2021
10.0577
9.85439
9.73546
9.51637
9.40969
9.10756
8.98435
8.42876
8.18041
13.498
13.0193
12.476
12.0528
11.6705
11.3574
11.0589
10.835
10.6014
10.4312
10.2255
10.0916
9.89984
9.79882
9.59905
9.52334
9.23873
9.15586
8.52379
8.33492
13.5077
12.997
12.4772
12.0458
11.675
11.3514
11.068
10.8325
10.6191
10.4363
10.2588
10.1119
9.9609
9.84912
9.71138
9.63116
9.43776
9.35155
8.67919
8.47415
13.5226
12.974
12.478
12.0431
11.6825
11.3476
11.0787
10.834
10.6383
10.4456
10.2916
10.1379
10.0201
9.90825
9.81977
9.74581
9.60693
9.57156
8.83895
9.16294
13.5372
12.9461
12.4793
12.0374
11.6922
11.3331
11.0925
10.8216
10.6611
10.4335
10.3286
10.1292
10.0864
9.9129
9.95592
9.79371
9.9049
9.45736
8.87342
4.74402
13.9077
13.2091
12.6031
12.1214
11.7055
11.3321
11.0004
10.7048
10.4327
10.1732
9.9208
9.67189
9.42475
9.17755
8.9298
8.68013
8.42896
8.17617
7.92402
7.67065
13.7401
13.1718
12.5954
12.1142
11.702
11.3321
11.0013
10.7057
10.4342
10.1758
9.92423
9.67624
9.42948
9.18294
8.9349
8.68548
8.43257
8.17868
7.92242
7.67902
13.6925
13.1577
12.591
12.1103
11.6993
11.3319
11.0027
10.7082
10.4382
10.1816
9.93167
9.6852
9.43965
9.19406
8.94629
8.69671
8.4428
8.18741
7.92984
7.68717
13.6342
13.1245
12.5728
12.0984
11.6911
11.3274
11.0015
10.7095
10.4418
10.1874
9.9396
9.69506
9.45105
9.20659
8.95929
8.70952
8.45457
8.19723
7.93686
7.69117
13.5983
13.1033
12.5612
12.0915
11.687
11.3263
11.0033
10.714
10.4487
10.1968
9.95131
9.70893
9.46679
9.22368
8.97701
8.72689
8.47061
8.21062
7.94664
7.696
13.5702
13.0838
12.5479
12.0826
11.6815
11.3241
11.0044
10.7184
10.456
10.207
9.96418
9.7244
9.48449
9.24321
8.99757
8.74745
8.48968
8.2267
7.95795
7.70112
13.5486
13.0685
12.5368
12.0757
11.6778
11.324
11.0075
10.725
10.4657
10.2201
9.98039
9.74378
9.50651
9.26737
9.02302
8.77299
8.5136
8.24698
7.97242
7.70749
13.5315
13.057
12.5276
12.07
11.675
11.3249
11.0115
10.7329
10.4767
10.235
9.99869
9.76594
9.53188
9.29579
9.05319
8.80368
8.54266
8.27195
7.99041
7.71537
13.5175
13.049
12.5199
12.0657
11.6731
11.3272
11.0166
10.7424
10.4893
10.2524
10.0196
9.79178
9.56125
9.32944
9.08909
8.84103
8.57843
8.30335
8.01354
7.72606
13.5058
13.0441
12.5133
12.0628
11.6722
11.3309
11.0226
10.7535
10.5033
10.2722
10.0428
9.82136
9.59453
9.36884
9.13117
8.8863
8.62216
8.34288
8.04304
7.73931
13.4957
13.0418
12.5075
12.0613
11.6722
11.3359
11.0289
10.7662
10.5182
10.2943
10.0677
9.85501
9.63143
9.41503
9.1797
8.9416
8.6754
8.39325
8.08191
7.75806
13.487
13.0411
12.502
12.0609
11.6729
11.3418
11.0355
10.7802
10.5336
10.3186
10.0939
9.8927
9.67145
9.46873
9.2345
9.00955
8.73906
8.46024
8.12819
7.77784
13.4798
13.0408
12.497
12.0614
11.6739
11.3482
11.0419
10.7948
10.5492
10.3443
10.1211
9.93359
9.71432
9.5295
9.29567
9.09122
8.81387
8.55098
8.20098
7.81135
13.474
13.0397
12.4922
12.0619
11.6748
11.3542
11.0481
10.8091
10.5642
10.3704
10.1485
9.97674
9.75895
9.59692
9.36171
9.18852
8.89671
8.66945
8.26151
7.87464
13.4697
13.0364
12.4876
12.0618
11.6755
11.359
11.0537
10.8215
10.5787
10.3946
10.176
10.0189
9.80631
9.66632
9.43511
9.29552
8.99322
8.81443
8.34128
7.98911
13.4683
13.0294
12.4839
12.0601
11.6763
11.3619
11.059
10.8312
10.5923
10.416
10.2027
10.0592
9.85408
9.73732
9.51482
9.41284
9.10314
8.9869
8.42315
8.15811
13.4682
13.0183
12.4807
12.0571
11.6764
11.3628
11.063
10.8374
10.6037
10.4327
10.2269
10.0926
9.90048
9.80025
9.59836
9.52734
9.23392
9.16258
8.50411
8.31083
13.4779
12.9955
12.4826
12.0496
11.6811
11.3564
11.0728
10.8344
10.6223
10.4373
10.2615
10.1126
9.96417
9.85116
9.71596
9.63723
9.44342
9.36013
8.67172
8.43335
13.4935
12.971
12.4839
12.0463
11.6893
11.351
11.0843
10.8347
10.6428
10.4452
10.2962
10.1378
10.0262
9.91125
9.82717
9.75274
9.61156
9.58075
8.8213
9.20753
13.5086
12.944
12.4834
12.0417
11.6984
11.3376
11.0968
10.824
10.6641
10.435
10.3313
10.1312
10.0901
9.91641
9.96237
9.79567
9.92606
9.43245
9.04679
4.76966
13.9077
13.2091
12.6031
12.1214
11.7055
11.3321
11.0004
10.7048
10.4327
10.1732
9.9208
9.67189
9.42475
9.17755
8.9298
8.68013
8.42896
8.17617
7.92402
7.67066
13.7401
13.1718
12.5954
12.1142
11.702
11.3321
11.0013
10.7057
10.4342
10.1758
9.92423
9.67624
9.42948
9.18294
8.9349
8.68548
8.43257
8.17868
7.92242
7.67901
13.6925
13.1577
12.591
12.1103
11.6993
11.3319
11.0027
10.7082
10.4382
10.1816
9.93167
9.6852
9.43965
9.19406
8.94629
8.6967
8.44282
8.18743
7.93005
7.6871
13.6342
13.1245
12.5728
12.0984
11.6911
11.3274
11.0015
10.7095
10.4418
10.1874
9.9396
9.69506
9.45105
9.20659
8.95929
8.70953
8.45457
8.19723
7.93685
7.69112
13.5983
13.1033
12.5612
12.0915
11.687
11.3263
11.0033
10.714
10.4487
10.1968
9.95131
9.70893
9.46679
9.22368
8.97701
8.72688
8.47062
8.21063
7.9469
7.69596
13.5702
13.0838
12.5479
12.0826
11.6815
11.3241
11.0044
10.7184
10.456
10.207
9.96418
9.7244
9.48449
9.24321
8.99756
8.74745
8.48967
8.22671
7.95788
7.70105
13.5486
13.0685
12.5368
12.0757
11.6778
11.324
11.0075
10.725
10.4657
10.2201
9.98039
9.74378
9.50651
9.26737
9.02302
8.77299
8.5136
8.24697
7.97241
7.7075
13.5315
13.057
12.5276
12.07
11.675
11.3249
11.0115
10.7329
10.4767
10.235
9.99869
9.76594
9.53188
9.29579
9.05319
8.80368
8.54266
8.27195
7.99043
7.71537
13.5175
13.049
12.5199
12.0657
11.6731
11.3272
11.0166
10.7424
10.4893
10.2524
10.0196
9.79178
9.56125
9.32944
9.08909
8.84103
8.57843
8.30335
8.01353
7.72606
13.5058
13.0441
12.5133
12.0628
11.6722
11.3309
11.0226
10.7535
10.5033
10.2722
10.0428
9.82136
9.59453
9.36884
9.13117
8.88629
8.62216
8.34288
8.04305
7.73932
13.4957
13.0418
12.5075
12.0613
11.6722
11.3359
11.0289
10.7662
10.5182
10.2943
10.0677
9.85501
9.63143
9.41503
9.1797
8.9416
8.6754
8.39325
8.08192
7.75806
13.487
13.0411
12.502
12.0609
11.6729
11.3418
11.0355
10.7802
10.5336
10.3186
10.0939
9.8927
9.67145
9.46873
9.2345
9.00955
8.73906
8.46024
8.12819
7.77784
13.4798
13.0408
12.497
12.0614
11.6739
11.3482
11.0419
10.7948
10.5492
10.3443
10.1211
9.93359
9.71432
9.5295
9.29567
9.09122
8.81387
8.55098
8.20098
7.81135
13.474
13.0397
12.4922
12.0619
11.6748
11.3542
11.0481
10.8091
10.5642
10.3704
10.1485
9.97674
9.75895
9.59692
9.36171
9.18852
8.89671
8.66945
8.26153
7.87464
13.4697
13.0364
12.4876
12.0618
11.6755
11.359
11.0537
10.8215
10.5787
10.3946
10.176
10.0189
9.80631
9.66632
9.43511
9.29552
8.99322
8.81443
8.34128
7.98911
13.4683
13.0294
12.4839
12.0601
11.6763
11.3619
11.059
10.8312
10.5923
10.416
10.2027
10.0592
9.85408
9.73732
9.51482
9.41284
9.10314
8.9869
8.42315
8.15811
13.4682
13.0183
12.4807
12.0571
11.6764
11.3628
11.063
10.8374
10.6037
10.4327
10.2269
10.0926
9.90048
9.80025
9.59836
9.52734
9.23392
9.16258
8.50411
8.31083
13.4779
12.9955
12.4826
12.0496
11.6811
11.3564
11.0728
10.8344
10.6223
10.4373
10.2615
10.1126
9.96417
9.85116
9.71596
9.63723
9.44342
9.36013
8.67172
8.43335
13.4935
12.971
12.4839
12.0463
11.6893
11.351
11.0843
10.8347
10.6428
10.4452
10.2962
10.1378
10.0262
9.91125
9.82717
9.75274
9.61156
9.58075
8.8213
9.20753
13.5086
12.944
12.4834
12.0417
11.6984
11.3376
11.0968
10.824
10.6641
10.435
10.3313
10.1312
10.0901
9.91641
9.96237
9.79567
9.92606
9.43245
9.04679
4.76966
13.9385
13.2106
12.5994
12.1179
11.7008
11.3277
10.9976
10.7032
10.4316
10.1724
9.92026
9.67153
9.42451
9.17736
8.92967
8.68005
8.42891
8.17617
7.92373
7.67067
13.7703
13.1724
12.5909
12.11
11.6967
11.3269
10.9975
10.7032
10.4324
10.1743
9.92314
9.67537
9.42887
9.18235
8.93449
8.68505
8.43253
8.17875
7.92285
7.67731
13.7226
13.1583
12.5864
12.1058
11.694
11.3265
10.9987
10.7056
10.4363
10.1801
9.93054
9.68429
9.43897
9.1934
8.94582
8.69624
8.44271
8.18747
7.92978
7.68484
13.6643
13.1251
12.568
12.0938
11.6858
11.322
10.9974
10.7068
10.4399
10.1859
9.93843
9.69409
9.45036
9.2059
8.95884
8.70905
8.45452
8.19729
7.93694
7.68869
13.6284
13.104
12.5564
12.0869
11.6816
11.3209
10.9992
10.7114
10.4468
10.1953
9.95014
9.70796
9.46608
9.22297
8.97651
8.72639
8.4705
8.21068
7.94666
7.69349
13.6004
13.0845
12.5431
12.078
11.6761
11.3187
11.0004
10.7157
10.4541
10.2054
9.96302
9.72345
9.48382
9.24253
8.99711
8.74695
8.48959
8.22674
7.95801
7.69865
13.5788
13.0692
12.532
12.071
11.6724
11.3186
11.0034
10.7223
10.4638
10.2185
9.97922
9.74281
9.5058
9.26669
9.02255
8.77249
8.5135
8.247
7.97247
7.705
13.5617
13.0578
12.5229
12.0653
11.6696
11.3195
11.0074
10.7302
10.4748
10.2335
9.99754
9.765
9.53118
9.29512
9.05273
8.8032
8.54256
8.27198
7.99045
7.71288
13.5477
13.0498
12.5152
12.061
11.6678
11.3218
11.0125
10.7397
10.4874
10.2509
10.0185
9.79083
9.56057
9.32877
9.08862
8.84058
8.5783
8.3034
8.01348
7.72342
13.536
13.0449
12.5088
12.0581
11.6669
11.3254
11.0185
10.7508
10.5015
10.2706
10.0417
9.82039
9.59388
9.36815
9.13071
8.88587
8.62202
8.34295
8.04309
7.73721
13.5258
13.0425
12.503
12.0566
11.6668
11.3304
11.025
10.7635
10.5164
10.2927
10.0667
9.85399
9.63085
9.41432
9.17927
8.94125
8.6751
8.39378
8.08107
7.75622
13.5172
13.0418
12.4977
12.0563
11.6675
11.3363
11.0316
10.7774
10.5319
10.3169
10.0931
9.89151
9.67113
9.46777
9.23436
9.00891
8.73888
8.46087
8.12879
7.77774
13.5099
13.0415
12.4927
12.0567
11.6684
11.3426
11.0382
10.7919
10.5475
10.3426
10.1204
9.93232
9.7142
9.5284
9.29582
9.09043
8.81364
8.55155
8.19844
7.81847
13.5041
13.0405
12.488
12.0572
11.6693
11.3486
11.0444
10.8062
10.5627
10.3685
10.1481
9.97521
9.75927
9.59529
9.36283
9.18668
8.89812
8.66919
8.26175
7.88471
13.4997
13.0372
12.4835
12.0571
11.67
11.3534
11.05
10.8186
10.5771
10.3927
10.1756
10.0174
9.80688
9.6645
9.43676
9.29298
8.99637
8.81323
8.34252
8.00577
13.4982
13.0302
12.4796
12.0555
11.6706
11.3564
11.0552
10.8284
10.5905
10.4142
10.2021
10.0577
9.85439
9.73546
9.51637
9.40969
9.10756
8.98435
8.42876
8.18041
13.498
13.0193
12.476
12.0528
11.6705
11.3574
11.0589
10.835
10.6014
10.4312
10.2255
10.0916
9.89984
9.79882
9.59905
9.52334
9.23873
9.15586
8.52379
8.33492
13.5077
12.997
12.4772
12.0458
11.675
11.3514
11.068
10.8325
10.6191
10.4363
10.2588
10.1119
9.9609
9.84912
9.71138
9.63116
9.43776
9.35155
8.67919
8.47415
13.5226
12.974
12.478
12.0431
11.6825
11.3476
11.0787
10.834
10.6383
10.4456
10.2916
10.1379
10.0201
9.90825
9.81977
9.74581
9.60693
9.57156
8.83895
9.16294
13.5372
12.9461
12.4793
12.0374
11.6922
11.3331
11.0925
10.8216
10.6611
10.4335
10.3286
10.1292
10.0864
9.9129
9.95592
9.79371
9.9049
9.45736
8.87342
4.74402
14.0011
13.2151
12.5935
12.1115
11.692
11.3202
10.993
10.7005
10.4297
10.1711
9.91935
9.67095
9.42413
9.17712
8.92954
8.68002
8.42893
8.17625
7.92346
7.67062
13.8318
13.1748
12.5835
12.1025
11.687
11.3178
10.9911
10.6989
10.4292
10.1719
9.9213
9.67393
9.42787
9.18141
8.93391
8.6844
8.43261
8.17887
7.92403
7.67408
13.7838
13.1604
12.5786
12.0981
11.6842
11.3172
10.9921
10.7012
10.4332
10.1776
9.92862
9.68273
9.43784
9.19228
8.9451
8.69543
8.44271
8.1875
7.93072
7.68011
13.7257
13.1273
12.5601
12.0859
11.676
11.3126
10.9906
10.7023
10.4366
10.1832
9.93642
9.69245
9.44919
9.20475
8.95814
8.70824
8.45455
8.19735
7.93799
7.6838
13.6898
13.1062
12.5483
12.0788
11.6718
11.3115
10.9924
10.7068
10.4435
10.1926
9.94813
9.7063
9.46485
9.22174
8.97574
8.72552
8.47047
8.21072
7.9475
7.68857
13.6619
13.0869
12.5351
12.0698
11.6663
11.3094
10.9935
10.7112
10.4508
10.2028
9.96104
9.72184
9.48268
9.24138
8.99639
8.74608
8.48957
8.22676
7.95895
7.69359
13.6404
13.0716
12.5241
12.0628
11.6626
11.3092
10.9966
10.7178
10.4605
10.2159
9.97722
9.74116
9.5046
9.26554
9.02182
8.77163
8.51345
8.24702
7.97333
7.69996
13.6233
13.0602
12.515
12.0572
11.6598
11.3101
11.0006
10.7256
10.4716
10.2309
9.99557
9.76338
9.53001
9.29399
9.052
8.80238
8.5425
8.27199
7.99124
7.70791
13.6093
13.0523
12.5075
12.0529
11.658
11.3123
11.0057
10.7351
10.4842
10.2482
10.0166
9.78922
9.55942
9.32764
9.08788
8.83981
8.57821
8.30345
8.01417
7.71847
13.5975
13.0474
12.5013
12.05
11.6571
11.3159
11.0117
10.7462
10.4983
10.2679
10.0399
9.81873
9.59279
9.36702
9.12999
8.88517
8.6219
8.34312
8.04366
7.73255
13.5872
13.0451
12.4957
12.0485
11.6571
11.3208
11.0183
10.7588
10.5134
10.2899
10.065
9.85223
9.6299
9.41309
9.17864
8.94061
8.67483
8.39444
8.08115
7.75207
13.5784
13.0444
12.4906
12.048
11.6577
11.3266
11.0251
10.7726
10.5291
10.314
10.0917
9.88949
9.67057
9.46617
9.23415
9.00788
8.73865
8.46183
8.12967
7.77779
13.5709
13.0443
12.4858
12.0484
11.6585
11.3328
11.0319
10.787
10.5448
10.3395
10.1193
9.93015
9.71402
9.52653
9.29615
9.08908
8.81351
8.55242
8.19079
7.82476
13.5649
13.0434
12.4812
12.0489
11.6593
11.3388
11.0383
10.8011
10.5601
10.3652
10.1473
9.97259
9.75987
9.59249
9.36479
9.1835
8.90119
8.66828
8.26297
7.90107
13.5605
13.0402
12.4768
12.0487
11.6599
11.3436
11.044
10.8135
10.5746
10.3894
10.1748
10.0147
9.80759
9.66146
9.43983
9.28881
9.00257
8.81121
8.34764
8.03308
13.559
13.0333
12.4726
12.0473
11.6603
11.3466
11.0489
10.8234
10.5876
10.411
10.201
10.055
9.85483
9.73223
9.5197
9.40444
9.11691
8.98033
8.44201
8.21953
13.5589
13.0226
12.4685
12.0452
11.6599
11.3479
11.052
10.8304
10.5978
10.4284
10.2233
10.0898
9.8988
9.79667
9.60036
9.51754
9.24937
9.14227
8.56025
8.37801
13.5689
13.0013
12.4683
12.0394
11.664
11.3431
11.0604
10.8296
10.6145
10.4353
10.2551
10.1124
9.95717
9.84933
9.70763
9.62605
9.43748
9.33209
8.70212
8.54923
13.5824
12.9805
12.4682
12.0374
11.6704
11.3417
11.0701
10.8329
10.6322
10.4469
10.2865
10.14
10.0147
9.90896
9.81486
9.74558
9.60931
9.56325
8.87605
9.07811
13.596
12.9512
12.4725
12.0295
11.6812
11.3253
11.0861
10.8182
10.6579
10.432
10.3272
10.1273
10.0861
9.90884
9.95571
9.78874
9.88979
9.48348
8.6016
4.76372
14.0798
13.2128
12.5825
12.0997
11.6787
11.3101
10.9876
10.6976
10.428
10.1701
9.91877
9.67062
9.42396
9.17706
8.92957
8.68014
8.42913
8.17651
7.92358
7.67079
13.9088
13.1688
12.568
12.089
11.6718
11.3049
10.9829
10.6941
10.4261
10.1697
9.91995
9.67301
9.42731
9.18092
8.93366
8.68411
8.43287
8.17918
7.92572
7.67187
13.8605
13.1537
12.5626
12.0843
11.6688
11.304
10.9836
10.6963
10.4299
10.1753
9.92715
9.68168
9.43713
9.19158
8.9447
8.6949
8.44287
8.18767
7.93264
7.6764
13.8026
13.1207
12.544
12.072
11.6607
11.2994
10.9821
10.6972
10.4332
10.1808
9.93487
9.69134
9.44844
9.20402
8.95774
8.70772
8.45474
8.19757
7.93987
7.68
13.7669
13.0997
12.532
12.0646
11.6565
11.2982
10.9838
10.7017
10.4402
10.1903
9.94656
9.70516
9.46404
9.22092
8.97524
8.72493
8.4706
8.21088
7.94937
7.68464
13.7391
13.0804
12.5189
12.0557
11.6511
11.2962
10.985
10.7061
10.4474
10.2005
9.95952
9.72076
9.48196
9.24065
8.99593
8.7455
8.48968
8.22691
7.9607
7.68973
13.7177
13.0653
12.508
12.0487
11.6474
11.296
10.988
10.7127
10.4572
10.2136
9.97568
9.74003
9.50384
9.26481
9.02136
8.77106
8.51354
8.24714
7.975
7.69607
13.7006
13.0538
12.4991
12.043
11.6446
11.2969
10.9921
10.7205
10.4683
10.2286
9.9941
9.7623
9.52927
9.29327
9.05154
8.80183
8.54258
8.27212
7.99281
7.70405
13.6866
13.0457
12.4919
12.0387
11.6429
11.2991
10.9972
10.73
10.481
10.2459
10.0151
9.78812
9.5587
9.32693
9.08743
8.83931
8.57828
8.3036
8.01554
7.71461
13.6748
13.0406
12.486
12.0359
11.6421
11.3026
11.0033
10.741
10.4952
10.2656
10.0385
9.81761
9.59214
9.36629
9.12958
8.88471
8.62194
8.34342
8.04476
7.72892
13.6645
13.0381
12.4808
12.0343
11.642
11.3073
11.01
10.7535
10.5103
10.2875
10.0638
9.851
9.62938
9.41224
9.17836
8.9401
8.67493
8.39508
8.08215
7.74881
13.6556
13.0372
12.4762
12.0338
11.6426
11.313
11.0171
10.7672
10.5261
10.3114
10.0907
9.88806
9.67034
9.46505
9.23424
9.00706
8.73904
8.46257
8.13068
7.77799
13.648
13.0369
12.4718
12.034
11.6433
11.3191
11.024
10.7814
10.5419
10.3368
10.1185
9.92855
9.71413
9.52512
9.29681
9.08775
8.81472
8.55252
8.19123
7.83168
13.6419
13.0359
12.4676
12.0344
11.6441
11.325
11.0306
10.7953
10.5574
10.3623
10.1468
9.97071
9.76057
9.59051
9.36664
9.18107
8.90483
8.6668
8.26675
7.91531
13.6375
13.0327
12.4633
12.0341
11.6447
11.3297
11.0364
10.8076
10.5719
10.3864
10.1743
10.0126
9.80824
9.65937
9.4422
9.28618
9.00904
8.8094
8.3582
8.05959
13.6361
13.026
12.459
12.0329
11.645
11.3328
11.0412
10.8176
10.5847
10.408
10.2002
10.0529
9.8551
9.72982
9.52165
9.40153
9.12603
8.97888
8.46621
8.26042
13.6365
13.016
12.4544
12.0314
11.6444
11.3345
11.0443
10.8251
10.5948
10.4259
10.2222
10.0884
9.89808
9.79551
9.60038
9.51498
9.25588
9.13934
8.61274
8.43662
13.6464
12.9965
12.4527
12.0267
11.648
11.3312
11.052
10.826
10.611
10.4355
10.2531
10.1141
9.95537
9.85204
9.7056
9.62705
9.4402
9.31748
8.75873
8.67122
13.6584
12.9779
12.4514
12.0249
11.6531
11.3311
11.0606
10.8304
10.6272
10.4478
10.2836
10.1428
10.0129
9.91305
9.81716
9.75304
9.62938
9.56511
8.94914
8.9672
13.6698
12.9484
12.4582
12.015
11.6643
11.314
11.0781
10.8142
10.655
10.4311
10.3277
10.1269
10.0898
9.90542
9.9671
9.77271
9.93207
9.49434
8.45028
4.96663
14.2712
13.2299
12.5817
12.0932
11.6689
11.3021
10.9823
10.6941
10.4256
10.1685
9.91774
9.66999
9.42359
9.17687
8.92946
8.68007
8.42907
8.1764
7.9234
7.67046
14.0976
13.1812
12.5633
12.0817
11.6611
11.2955
10.9763
10.6894
10.4226
10.1672
9.91814
9.67169
9.42632
9.18019
8.93314
8.68369
8.43257
8.17877
7.92503
7.67068
14.0494
13.1653
12.5568
12.0767
11.6581
11.2945
10.9769
10.6915
10.4263
10.1726
9.92515
9.68016
9.43591
9.19055
8.94384
8.69418
8.44231
8.18706
7.93155
7.67489
13.9921
13.1328
12.5382
12.0644
11.6502
11.29
10.9753
10.6924
10.4296
10.1782
9.93286
9.68984
9.44727
9.20307
8.95695
8.70703
8.45421
8.19694
7.93873
7.6785
13.9567
13.1118
12.5261
12.0568
11.6459
11.2888
10.977
10.6969
10.4366
10.1876
9.9445
9.70356
9.46277
9.21991
8.97441
8.72423
8.47006
8.21025