/*--------------------------------*- C++ -*----------------------------------*\
| =========                 |                                                 |
| \\      /  F ield         | OpenFOAM: The Open Source CFD Toolbox           |
|  \\    /   O peration     | Version:  v1806                                 |
|   \\  /    A nd           | Web:      www.OpenFOAM.com                      |
|    \\/     M anipulation  |                                                 |
\*---------------------------------------------------------------------------*/
FoamFile
{
    version     2.0;
    format      ascii;
    class       surfaceScalarField;
    location    "4";
    object      phi;
}
// * * * * * * * * * * * * * * * * * * * * * * * * * * * * * * * * * * * * * //

dimensions      [0 3 -1 0 0 0 0];
oriented        oriented;


internalField   nonuniform List<scalar> 
68400
(
0.0714956
0.00142861
0.0170758
0.0558854
0.00157792
0.0140322
0.0445954
0.00126327
0.0100268
0.0373338
0.00105005
0.00621148
0.033083
0.000909071
0.00334181
0.0304255
0.000800209
0.00185731
0.0285705
0.000708747
0.00114624
0.0271747
0.000620517
0.000775211
0.0261019
0.000523461
0.00054935
0.0252337
0.000418911
0.000449269
0.0245312
0.000317205
0.000385368
0.0239424
0.000245885
0.000342923
0.0234868
0.000173878
0.000281683
0.0231242
0.000116219
0.00024635
0.0228696
1.9572e-05
0.000235084
0.0226358
-2.79548e-05
0.000261685
0.0224688
-7.68669e-05
0.000243927
0.0222763
-1.21144e-05
0.000204559
0.0221493
1.53926e-05
0.000111627
0.000119326
9.0872e-06
0.0220209
0.0732528
0.000954913
0.0172209
0.0592391
0.00129617
0.0142954
0.0490955
0.00115561
0.0102513
0.0423466
0.00102879
0.00677023
0.0383593
0.000920841
0.00397554
0.0359904
0.000804546
0.00236448
0.0344637
0.000695093
0.00154043
0.0334078
0.000592268
0.00108409
0.0326499
0.000481248
0.000800156
0.0320739
0.00035711
0.000637819
0.0316205
0.000219702
0.000550872
0.0312732
0.000111404
0.000481813
0.031019
1.11182e-05
0.000416955
0.0308557
-7.15407e-05
0.000351026
0.0307498
-0.000190799
0.000316226
0.0306751
-0.00028671
0.000333532
0.0306487
-0.000360908
0.000310365
0.0305887
-0.000319151
0.000367121
0.0306321
-0.000233509
0.000205511
-8.84749e-05
0.000406964
0.0304329
0.0730902
0.000631456
0.0172332
0.0591033
0.00102506
0.014258
0.0491347
0.00102356
0.0101006
0.0425304
0.000956574
0.00667657
0.0386451
0.000868769
0.00393736
0.0363716
0.000746536
0.00233152
0.0349363
0.000616393
0.00151396
0.0339732
0.000491145
0.00106424
0.0333037
0.000359373
0.000791394
0.0328209
0.000217559
0.000622385
0.0324542
5.91342e-05
0.000527237
0.0321925
-7.90092e-05
0.000452125
0.0320164
-0.000211711
0.000398872
0.0319365
-0.000325348
0.000333784
0.0319138
-0.000454952
0.000286844
0.0319258
-0.000568697
0.000269939
0.0319764
-0.000641267
0.000229748
0.0319679
-0.000621337
0.00031073
0.0320746
-0.000523418
0.00018318
-0.00036705
0.000424865
0.0319283
0.072915
0.000438962
0.0172775
0.0588012
0.000802876
0.014336
0.0488282
0.000868026
0.0101285
0.0422608
0.000828721
0.00669518
0.0384134
0.000757389
0.00395886
0.0361786
0.00063785
0.00234348
0.0347772
0.000504059
0.00151367
0.0338427
0.000363309
0.00106239
0.0331971
0.000218666
0.000786315
0.0327386
6.18361e-05
0.000614231
0.0323975
-0.000108546
0.000508778
0.0321581
-0.000277774
0.000438177
0.0320039
-0.000443522
0.000385928
0.0319435
-0.000598336
0.000333382
0.0319522
-0.000747727
0.000284122
0.031997
-0.000877695
0.000264186
0.0320963
-0.000955405
0.000214871
0.0321194
-0.000952248
0.000307778
0.0322719
-0.000854398
0.000178518
-0.000672949
0.000438238
0.0321395
0.0728098
0.000327319
0.0173019
0.0586193
0.000630408
0.014363
0.0486412
0.000733016
0.0101131
0.0420958
0.000713534
0.0066606
0.0382618
0.000662453
0.0039289
0.0360422
0.000541252
0.00231625
0.0346504
0.000410055
0.00148578
0.0337226
0.000252389
0.00103869
0.0330766
9.61954e-05
0.000768446
0.0326207
-8.50418e-05
0.000602869
0.032285
-0.000266721
0.000493821
0.0320557
-0.000465219
0.000416722
0.0319125
-0.000657464
0.000357187
0.0318622
-0.000852641
0.000304544
0.0318882
-0.00103111
0.000257425
0.0319621
-0.00118995
0.000238324
0.0321022
-0.00128544
0.000189936
0.0321671
-0.00129681
0.000279676
0.0323544
-0.00119434
0.00015269
-0.000981122
0.000420325
0.0322422
0.0727439
0.00026209
0.0173213
0.0584986
0.000486716
0.014389
0.0484953
0.000606377
0.0101299
0.041947
0.000587741
0.00667411
0.0381058
0.000556835
0.00394685
0.03589
0.000424417
0.00233259
0.0344993
0.000303525
0.00149727
0.0335765
0.000127644
0.00104748
0.0329278
-2.85755e-05
0.000773457
0.0324716
-0.000238772
0.000610002
0.0321321
-0.000433885
0.000506628
0.0319022
-0.000671837
0.000436495
0.0317603
-0.000893205
0.000377647
0.0317176
-0.00113625
0.000326359
0.0317593
-0.00134998
0.000277174
0.0318616
-0.00154726
0.000254943
0.0320438
-0.00166957
0.000201935
0.0321575
-0.00169969
0.00028924
0.0323959
-0.00159503
0.000162299
-0.00134091
0.000422207
0.0323334
0.0726913
0.000228398
0.0173424
0.058409
0.000364047
0.014405
0.048381
0.000495877
0.0101385
0.0418316
0.000462645
0.0066745
0.0379766
0.00046048
0.00395133
0.0357662
0.000304206
0.0023306
0.0343677
0.000206256
0.00149582
0.0334495
-6.53377e-07
0.00104647
0.0327909
-0.000146218
0.000776209
0.0323382
-0.000390894
0.00060489
0.0319927
-0.000586024
0.000497588
0.0317687
-0.000872854
0.000424981
0.0316262
-0.00111531
0.00036465
0.0315946
-0.00142131
0.00031665
0.0316503
-0.00167254
0.000266902
0.0317855
-0.00193064
0.000248153
0.0320133
-0.00209129
0.000193951
0.0321877
-0.00215668
0.000282506
0.0324928
-0.00205433
0.00015425
-0.00175459
0.000410779
0.0324957
0.0726434
0.000217064
0.017368
0.058344
0.000253973
0.0144094
0.0482917
0.000407894
0.0101403
0.0417435
0.000340243
0.00667057
0.037863
0.000379482
0.00396157
0.0356607
0.000178881
0.0023276
0.0342445
0.00012278
0.00149963
0.0333347
-0.000130892
0.00104007
0.0326546
-0.00024523
0.000779155
0.0322048
-0.000549363
0.000608217
0.0318363
-0.000725446
0.000507912
0.0316164
-0.00108639
0.000433473
0.0314605
-0.00133238
0.000372952
0.0314432
-0.00172993
0.000325938
0.0315074
-0.00200956
0.000272794
0.0316819
-0.00236363
0.000258531
0.031958
-0.00256673
0.000199279
0.0322079
-0.00269642
0.000289897
0.0325977
-0.00260318
0.000159057
-0.00225913
0.000411996
0.0326902
0.0725938
0.000220278
0.017403
0.0582958
0.00015093
0.014401
0.0482166
0.000345551
0.0101416
0.041676
0.000220185
0.00666062
0.0377565
0.000319132
0.00397986
0.035571
4.65488e-05
0.00231781
0.0341212
6.271e-05
0.00150988
0.0332306
-0.00027271
0.00103249
0.0325122
-0.000315114
0.000788198
0.032079
-0.000716191
0.00060009
0.0316711
-0.000829559
0.000511997
0.0314672
-0.00131109
0.000428558
0.0312786
-0.00151687
0.000373177
0.0312865
-0.00206308
0.000325192
0.0313434
-0.00233472
0.000268276
0.0315703
-0.0028541
0.000263578
0.0318927
-0.00308248
0.000193333
0.0322397
-0.00334103
0.000297568
0.0327386
-0.00325572
0.000153702
-0.0028819
0.000409029
0.0329523
0.0725404
0.000229116
0.0174507
0.0582628
5.43762e-05
0.0143743
0.0481519
0.000314798
0.0101416
0.0416284
0.000101737
0.00664199
0.0376573
0.000285756
0.00400441
0.0355031
-9.44377e-05
0.00229521
0.0340025
3.82612e-05
0.00152508
0.0331458
-0.00042556
0.0010096
0.0323666
-0.000336406
0.000800431
0.0319631
-0.000896073
0.00058341
0.0314882
-0.000879032
0.000524394
0.0313162
-0.00155773
0.000418603
0.0310645
-0.0016441
0.000378939
0.0311168
-0.00243812
0.000322773
0.0311343
-0.00261841
0.000266184
0.0314378
-0.00343043
0.000272818
0.0317859
-0.00361564
0.000185062
0.0322691
-0.0041423
0.000318045
0.032895
-0.00403307
0.000151512
-0.00367549
0.000416014
0.0332725
0.0724869
0.000232615
0.0175096
0.0582443
-3.51136e-05
0.0143321
0.0480952
0.000316599
0.0101474
0.0416022
-1.2651e-05
0.0066074
0.0375673
0.000284159
0.00403646
0.0354635
-0.000239682
0.00224899
0.0338873
5.88633e-05
0.0015556
0.033078
-0.000582823
0.000966643
0.0322132
-0.000303991
0.000832335
0.0318579
-0.00108599
0.000545189
0.0312851
-0.000861636
0.000555461
0.0311677
-0.00182482
0.000384496
0.0308113
-0.00169022
0.000402484
0.0309395
-0.00286088
0.0002946
0.0308646
-0.00281809
0.000274554
0.0312923
-0.00412114
0.000262952
0.0316125
-0.00410753
0.00017168
0.0323142
-0.00518313
0.000339177
0.0330614
-0.00491929
0.000139035
-0.00476328
0.000491707
0.0336575
0.0724423
0.000222844
0.0175675
0.0582426
-0.00010865
0.0142732
0.0480452
0.000339747
0.0101743
0.0415923
-0.000123865
0.0065641
0.0374885
0.000317649
0.00407026
0.0354396
-0.000377457
0.0021867
0.0337787
0.000123089
0.00159672
0.0330237
-0.000733711
0.000905889
0.0320587
-0.000212685
0.000873625
0.031762
-0.0012769
0.000487669
0.0310688
-0.000762092
0.000593595
0.0310202
-0.00210473
0.000328527
0.0305228
-0.00162509
0.000432268
0.0307452
-0.00333428
0.000250995
0.0305271
-0.00287849
0.000278577
0.0311151
-0.00495871
0.000249539
0.0313474
-0.00446467
0.000124785
0.0323578
-0.00657267
0.000379129
0.0332119
-0.00579173
1.83524e-05
-0.00639964
0.00071015
0.0341381
0.0724135
0.000189177
0.0176202
0.0582557
-0.000156384
0.0142055
0.0480051
0.00037575
0.0102145
0.041586
-0.000218512
0.00651374
0.0374196
0.000373435
0.00411061
0.0354217
-0.000495195
0.00211573
0.0336773
0.000220072
0.00164736
0.0329767
-0.000863495
0.000830386
0.0319086
-7.05407e-05
0.000925938
0.0316705
-0.00144371
0.000404938
0.0308442
-0.000592785
0.000656961
0.030864
-0.00236191
0.000237393
0.030204
-0.00145722
0.000492164
0.0305202
-0.00380141
0.000150905
0.0301102
-0.00280235
0.000333915
0.0308838
-0.00587819
0.000145837
0.0309316
-0.00466936
0.000156913
0.0323776
-0.00833691
0.000318214
0.0332433
-0.00653348
-0.000123991
-0.00881623
0.000727054
0.0349329
0.0724133
0.000131971
0.0176439
0.0582718
-0.000176199
0.0141614
0.0479823
0.00041326
0.010252
0.0415784
-0.000284444
0.00646979
0.0373693
0.00044169
0.00414083
0.0354031
-0.000579537
0.00205062
0.0335893
0.00033789
0.00169591
0.0329245
-0.000953477
0.000754832
0.0317592
0.000104917
0.00098988
0.0315669
-0.00156776
0.000316296
0.0306107
-0.000355621
0.000719086
0.0306898
-0.00256844
0.000127394
0.0298475
-0.00116477
0.000549837
0.0302588
-0.00422912
1.64308e-05
0.0295908
-0.00252854
0.000394159
0.0305649
-0.00687193
1.96476e-05
0.0303451
-0.00455513
0.000105628
0.0322887
-0.0106811
0.000400601
0.033098
-0.00679945
-0.000543381
-0.0129753
0.00162586
0.0356313
0.0724377
4.02974e-05
0.0176539
0.0582927
-0.000164429
0.0141332
0.0479615
0.000441147
0.0103034
0.0415598
-0.000338053
0.00645529
0.0373099
0.000503573
0.004188
0.035372
-0.000654897
0.00201331
0.0334911
0.000468971
0.0017498
0.0328596
-0.00104006
0.000718031
0.031604
0.000327126
0.00103342
0.0314484
-0.00168547
0.000273349
0.0303664
-3.47319e-05
0.000761057
0.0304773
-0.00275737
7.81109e-05
0.0294464
-0.000755602
0.000621666
0.0299039
-0.00463675
-4.98567e-05
0.0289853
-0.00206138
0.000451403
0.0300783
-0.00792244
-4.24088e-05
0.029589
-0.00408646
2.06272e-05
0.0320555
-0.013564
0.000416338
0.0325139
-0.00635035
-0.000907458
-0.019941
0.00276234
0.0367172
0.0725292
-7.71933e-05
0.0175883
0.0582957
-0.000120628
0.0141897
0.0479843
0.000446799
0.0103058
0.0414983
-0.000369464
0.00651734
0.0372915
0.000529859
0.00418054
0.0352846
-0.000703718
0.00205567
0.0334289
0.000562831
0.00176188
0.0327259
-0.00108689
0.000749816
0.0314766
0.000502728
0.0010737
0.0312473
-0.00173043
0.00027432
0.0301483
0.00022396
0.000840252
0.0301875
-0.00283303
3.65055e-05
0.0290925
-0.000343734
0.000683107
0.0294807
-0.00486203
-0.00016288
0.0284476
-0.00146856
0.000440239
0.0295449
-0.0087168
-0.000302915
0.0287448
-0.00330878
2.23793e-05
0.0318602
-0.0168486
0.000169199
0.0315625
-0.00453598
-0.00151676
-0.0322132
0.00441398
0.0394208
0.0726487
-0.000262517
0.0175366
0.0583055
4.14426e-06
0.0142184
0.0479801
0.000318305
0.0104539
0.0414029
-0.000355251
0.00656294
0.0372296
0.000388274
0.00431493
0.0351594
-0.000687932
0.00205436
0.0333018
0.000449159
0.00197133
0.0325438
-0.0010631
0.000734152
0.0312825
0.000432461
0.00133161
0.031013
-0.00167168
0.000210761
0.0298729
0.000223542
0.00114052
0.0298678
-0.00273926
-8.87254e-05
0.028672
-0.000256302
0.00110839
0.0290115
-0.00481659
-0.000384944
0.0277489
-0.00135126
0.00114529
0.0289477
-0.00923625
-0.000679359
0.0277745
-0.00299786
0.00086233
0.0319016
-0.0206664
-0.000309224
0.0309542
-0.00166066
-0.00192796
-0.0499461
0.00625193
0.0424352
0.0728744
-0.000389437
0.0172525
0.0582902
0.000225885
0.0143624
0.0480967
7.78179e-05
0.010434
0.0411299
-0.000216403
0.00682793
0.0373213
-3.42665e-05
0.00423111
0.0348312
-0.000465015
0.00226723
0.0333738
-3.7564e-05
0.00194414
0.0321504
-0.000789055
0.000949328
0.0313192
-0.000140091
0.00140379
0.0305353
-0.00126388
0.00037605
0.029877
-0.000420594
0.0013025
0.0292875
-0.0021379
-1.19294e-05
0.0286148
-0.0010089
0.00142532
0.0282787
-0.00394645
-0.000534058
0.0276571
-0.00233763
0.001608
0.028116
-0.0082731
-0.00142208
0.0280767
-0.00463005
0.00167155
0.0336911
-0.0223276
-0.00395323
0.0325725
0.00182149
-0.00236359
-0.0769144
0.00373606
0.0558048
0.0730853
-0.000608125
0.0171334
0.0582574
0.000764658
0.0142891
0.0482802
-0.000454672
0.0105097
0.0410349
0.000477614
0.0065513
0.0376294
-0.0009247
0.00429598
0.0347423
0.000586151
0.00183594
0.0336941
-0.0011974
0.00220799
0.03205
0.000588119
0.000266929
0.0316528
-0.00166526
0.00192238
0.030422
0.000587834
-0.000620889
0.0301802
-0.00238292
0.00220411
0.0290623
0.000435287
-0.00145535
0.0287968
-0.00367562
0.00293223
0.0277123
-0.000157398
-0.00270452
0.0274155
-0.0063055
0.00426472
0.0262741
-0.0023574
-0.00477436
0.0261083
-0.012079
0.00761471
0.0261579
-0.0134409
-0.00893636
0.021404
-0.013705
0.0202805
-0.101998
-0.0113882
0.0578755
0.0730255
0.0170622
-0.000695822
0.0583231
0.0144501
0.00101689
0.0482742
0.0104223
-0.000827995
0.0411899
0.00663884
0.000923061
0.0378172
0.00386395
-0.00141591
0.0349212
0.00222121
0.00126092
0.0340166
0.00159716
-0.00188994
0.0322777
0.000843881
0.00148314
0.032115
0.00105186
-0.0025545
0.0306588
0.000341765
0.00170227
0.0306768
0.00110241
-0.00350333
0.0291975
6.24814e-05
0.00185217
0.0290985
0.00144241
-0.00501902
0.0273912
-0.000124308
0.00167421
0.026947
0.00201126
-0.00787257
0.0246802
0.000136271
-0.000226949
0.0257737
0.002742
-0.0159144
0.0228388
0.004585
-0.015091
0.03394
0.0258671
-0.0506734
-0.0219768
0.0789074
-0.124988
0.0911815
0.00156536
0.014329
0.0887656
0.00203305
0.0144151
0.0849629
0.00198336
0.0118461
0.0804914
0.00194182
0.00874114
0.0762036
0.00187402
0.00575563
0.072366
0.00177525
0.00391962
0.0689909
0.00165772
0.0028636
0.0660415
0.0015599
0.00216471
0.0635138
0.00143857
0.00163852
0.0613417
0.0012989
0.00132247
0.0595092
0.00110197
0.00111584
0.0579321
0.000968761
0.000951329
0.0566197
0.000825308
0.000768709
0.0555026
0.000752604
0.000610824
0.0546277
0.000567271
0.000542738
0.0538773
0.000429175
0.000582951
0.0533165
0.000233672
0.000571031
0.052767
0.000231332
0.000522747
0.0523163
0.000238353
0.000323909
0.000374311
3.04911e-05
0.0519206
0.0932983
0.0010491
0.0144389
0.0932476
0.00165808
0.014721
0.0917641
0.00176946
0.0119487
0.0893939
0.00182702
0.00925524
0.0869262
0.00184087
0.00647636
0.0846947
0.00178883
0.00458246
0.082734
0.00168321
0.00347563
0.0810624
0.00158805
0.0027275
0.0796644
0.00147109
0.00216569
0.0785065
0.00133453
0.00176
0.0775178
0.00110251
0.00153904
0.0767315
0.000901743
0.00133512
0.0761102
0.000701804
0.00116178
0.0756897
0.000592142
0.000932055
0.0753601
0.000417486
0.000795555
0.075112
0.000199393
0.000811409
0.0749593
-6.12347e-05
0.000757999
0.074786
-0.000209629
0.000981357
0.0748326
-0.000201771
0.000599022
-1.39796e-05
0.00132682
0.0743011
0.0931528
0.000678342
0.0144512
0.0931259
0.00124292
0.0147
0.0917877
0.00144515
0.0117632
0.0896247
0.00155269
0.00911385
0.0874015
0.00160465
0.00639678
0.0854386
0.00158105
0.00450228
0.0837456
0.00148574
0.0034044
0.082343
0.00137823
0.00267663
0.081205
0.00124248
0.00215804
0.0803235
0.00108246
0.00175594
0.0795954
0.000845513
0.00151239
0.0790557
0.000610128
0.00128345
0.0786416
0.000372254
0.00114249
0.0784338
0.000181076
0.000952638
0.0783361
-2.54956e-05
0.000827504
0.0783313
-0.000283273
0.000757389
0.0784087
-0.000538236
0.000629421
0.0783769
-0.000724982
0.000857873
0.0785449
-0.000745819
0.00055923
-0.000597292
0.00145631
0.0780967
0.0930004
0.000469087
0.0144864
0.09284
0.000952382
0.014787
0.0914292
0.00119153
0.0117929
0.089234
0.00130844
0.00913463
0.0870048
0.0013715
0.00642124
0.0850646
0.00135241
0.00451233
0.0834075
0.00126423
0.00339227
0.0820491
0.00113851
0.00266048
0.0809553
0.000984401
0.00213824
0.0801252
0.000791437
0.00173535
0.079454
0.000549143
0.00147632
0.0789692
0.00028427
0.00124879
0.0786064
1.61672e-05
0.00110481
0.0784386
-0.00025374
0.000936001
0.0783991
-0.000515553
0.000813711
0.078452
-0.000814944
0.00074302
0.078614
-0.00108151
0.000596047
0.0786465
-0.00129057
0.00084093
0.0789033
-0.00134627
0.0005221
-0.00124218
0.00149122
0.0784953
0.0929091
0.000352301
0.0145096
0.0926696
0.000730796
0.0148241
0.091211
0.000974651
0.0117886
0.0889968
0.00107869
0.00910456
0.0867501
0.0011547
0.00639238
0.0848093
0.00112703
0.00448243
0.083154
0.00104965
0.0033556
0.0818009
0.000904851
0.00262543
0.0807032
0.000742787
0.00210776
0.0798708
0.000513968
0.00171276
0.0792034
0.00025863
0.00145179
0.0787331
-4.96021e-05
0.00122085
0.0783889
-0.000354337
0.00107189
0.078231
-0.000686762
0.000895447
0.0782033
-0.00100575
0.000775327
0.0782855
-0.00135775
0.000698984
0.0785026
-0.00165934
0.000550662
0.0786071
-0.00190406
0.000788672
0.0789327
-0.00199055
0.00047135
-0.00191305
0.00145591
0.078568
0.0928524
0.00029185
0.0145294
0.0925604
0.000555472
0.0148563
0.0910491
0.000800213
0.0118157
0.088804
0.000869339
0.00912854
0.0865196
0.000962668
0.00642334
0.0845605
0.00090632
0.00451238
0.0828871
0.000842549
0.00337781
0.0815276
0.000667446
0.00264433
0.0804174
0.000505861
0.00212059
0.0795779
0.000237831
0.00172564
0.0789002
-2.12357e-05
0.00146425
0.0784235
-0.000377483
0.00124108
0.0780735
-0.00072362
0.00109685
0.0779134
-0.00112955
0.00092929
0.0778898
-0.00151497
0.000809962
0.0779924
-0.00193393
0.000728512
0.0782531
-0.00229187
0.000573779
0.0784203
-0.00258853
0.0008065
0.0788204
-0.00271693
0.000488602
-0.00266763
0.00146299
0.0785342
0.0928059
0.000274619
0.0145537
0.092482
0.000409097
0.0148752
0.0909204
0.0006658
0.0118346
0.0886571
0.000670881
0.00913622
0.0863338
0.000799136
0.00643815
0.0843661
0.000686614
0.00451808
0.082667
0.000655894
0.00338151
0.0813042
0.000430188
0.00264653
0.0801703
0.00028981
0.00212621
0.0793262
-4.01376e-05
0.00172693
0.0786321
-0.000291584
0.00146207
0.0781585
-0.000711368
0.00123241
0.0778018
-0.00108032
0.00107806
0.0776475
-0.00157442
0.000915814
0.0776269
-0.00202136
0.00079394
0.0777549
-0.00253222
0.000718375
0.0780597
-0.00296549
0.000562814
0.0782997
-0.0033428
0.000796789
0.0787913
-0.00353111
0.000476871
-0.00351143
0.00144565
0.0786002
0.0927608
0.000294557
0.0145872
0.092431
0.000271477
0.0148769
0.0908149
0.000574476
0.0118477
0.0885471
0.00047517
0.00913411
0.0861757
0.000674437
0.00645763
0.0842088
0.000462003
0.00451912
0.082471
0.000503281
0.00339002
0.0811134
0.000184253
0.00264359
0.0799418
0.00011038
0.0021302
0.079096
-0.000316731
0.00173067
0.078361
-0.000521513
0.00147281
0.0778842
-0.00105065
0.00124959
0.0774953
-0.00140909
0.00109056
0.077345
-0.0020325
0.000934307
0.0773144
-0.00252082
0.000802851
0.0774714
-0.003167
0.000736402
0.0778162
-0.00368439
0.000573373
0.0781372
-0.00418266
0.000808678
0.0787328
-0.00445501
0.00048741
-0.00448264
0.0014468
0.0786692
0.0927109
0.000349238
0.0146374
0.0924052
0.000125163
0.014853
0.0907191
0.000533088
0.011869
0.0884644
0.000271687
0.00911883
0.0860301
0.000602094
0.0064865
0.0840825
0.000219641
0.00450778
0.0822842
0.0004062
0.0034052
0.0809498
-8.42926e-05
0.00263546
0.0797138
-7.92132e-06
0.00214251
0.078887
-0.000615835
0.00172598
0.0780871
-0.000685693
0.00147607
0.0776271
-0.0014122
0.00125011
0.0771776
-0.00167304
0.0010867
0.0770474
-0.00251912
0.000941957
0.0769815
-0.00297903
0.000792391
0.077181
-0.00385244
0.000749556
0.0775546
-0.00442913
0.000564468
0.0779746
-0.00512468
0.00081955
0.0786961
-0.00550505
0.000482238
-0.00561209
0.00143369
0.0788009
0.0926533
0.000435829
0.0147109
0.0924154
-4.67039e-05
0.014784
0.0906284
0.000553141
0.0119085
0.088409
4.67379e-05
0.0090863
0.0858944
0.000597327
0.00652382
0.0839929
-5.72149e-05
0.00447354
0.0821098
0.000387622
0.00342678
0.0808253
-0.000393721
0.00260348
0.0794918
-3.21668e-05
0.0021582
0.0787088
-0.000957545
0.00170807
0.0778024
-0.000740554
0.00148574
0.0773837
-0.00182315
0.00124818
0.0768269
-0.00181986
0.00108263
0.0767431
-0.00306844
0.000955818
0.0765924
-0.00333778
0.000775636
0.0768607
-0.00462674
0.000778861
0.0772245
-0.00515512
0.000547194
0.0777807
-0.00620967
0.000846903
0.0786375
-0.00669677
0.000486378
-0.0069406
0.00139806
0.078984
0.0925934
0.000544765
0.0148072
0.0924665
-0.000257905
0.0146702
0.0905415
0.000643913
0.0119815
0.0883852
-0.000213233
0.0090237
0.0857709
0.000672512
0.0065756
0.0839477
-0.000380727
0.00439567
0.0819462
0.000471938
0.00347285
0.0807388
-0.00075592
0.00253622
0.0792683
7.24483e-05
0.0021982
0.0785635
-0.00136344
0.00165587
0.0774997
-0.000641463
0.00152022
0.077164
-0.00231734
0.0012144
0.076431
-0.0017821
0.00109765
0.0764481
-0.00373426
0.000943382
0.0761273
-0.00350276
0.000760302
0.0765293
-0.00556536
0.000799608
0.076793
-0.0057552
0.000508041
0.077575
-0.00753621
0.000883658
0.0785405
-0.00799972
0.00047655
-0.00854508
0.00142226
0.0792144
0.092541
0.00066228
0.0149089
0.0925082
-0.000493837
0.014542
0.0904616
0.000793188
0.0120716
0.0883862
-0.0005134
0.00893962
0.0856631
0.0008316
0.00663427
0.083932
-0.00074513
0.0042822
0.0817984
0.000665619
0.00353669
0.0806878
-0.00117152
0.00243202
0.0790524
0.000322932
0.00225854
0.0784513
-0.00184408
0.00156947
0.0771882
-0.000351004
0.00156617
0.0769698
-0.00292036
0.00114994
0.0759983
-0.00149193
0.00111367
0.0761548
-0.00456758
0.00092778
0.0755821
-0.00336142
0.000709962
0.0761676
-0.00676855
0.000867231
0.0762366
-0.00606326
0.000363842
0.0773199
-0.00925399
0.00101362
0.0783626
-0.00928224
0.000258128
-0.0106422
0.00156366
0.0796062
0.0925041
0.000767814
0.0150106
0.0925443
-0.000737396
0.0144089
0.0903982
0.000987598
0.0121662
0.0883985
-0.000838276
0.00883831
0.0855746
0.00105799
0.00670814
0.0839322
-0.00113617
0.00414913
0.0816679
0.000956619
0.00362064
0.0806568
-0.00163091
0.00230096
0.078851
0.000716861
0.00233774
0.0783585
-0.00238771
0.00144111
0.0768765
0.000139827
0.00164813
0.0767802
-0.00361926
0.00103259
0.0755341
-0.000927525
0.00117385
0.0758439
-0.00555928
0.000832773
0.074933
-0.00285077
0.000734225
0.0757512
-0.00826715
0.000826182
0.0754668
-0.00594942
0.000327527
0.0769794
-0.0114861
0.00103766
0.0779086
-0.0103537
1.82408e-05
-0.0132948
0.00127396
0.0800143
0.0924972
0.000845019
0.0150695
0.0925695
-0.000969086
0.0143208
0.0903618
0.00120028
0.012247
0.0884182
-0.00116469
0.00873984
0.0855166
0.00132956
0.00677085
0.0839477
-0.00153081
0.00401419
0.081562
0.00133094
0.00370724
0.0806386
-0.00210864
0.00215594
0.0786507
0.0012452
0.00244948
0.078263
-0.00297121
0.00128741
0.0765391
0.000815811
0.00176708
0.0765858
-0.00440827
0.000869665
0.0749937
-5.87052e-05
0.00127314
0.0755155
-0.00675277
0.00068812
0.0741264
-0.00183018
0.000762639
0.0752308
-0.0101978
0.000845934
0.0744603
-0.00512486
5.15284e-05
0.0763826
-0.0145788
0.00157102
0.0772324
-0.0109334
-0.000813482
-0.0170826
0.00283908
0.0798071
0.0925141
0.000867784
0.0151171
0.0926059
-0.00117967
0.0142519
0.0903402
0.00143588
0.0123335
0.0884383
-0.00150693
0.00869937
0.085448
0.00164196
0.00686594
0.0839452
-0.00196131
0.00394666
0.0814324
0.00178576
0.00380773
0.0805897
-0.00264895
0.00210109
0.0784337
0.00190104
0.00253355
0.0781359
-0.00363569
0.00123567
0.0761887
0.00169731
0.00182676
0.0763434
-0.0053109
0.000826021
0.0744175
0.00116929
0.00131951
0.0750766
-0.00812317
0.000661532
0.0732214
-0.000266324
0.000742698
0.0745342
-0.0124944
0.000941374
0.0731884
-0.00354476
-0.000213679
0.0755864
-0.018553
0.00199247
0.0760113
-0.0108206
-0.00144515
-0.0223463
0.00441154
0.0796258
0.0926111
0.000809866
0.0150351
0.09259
-0.00132249
0.0143536
0.090421
0.00161436
0.0122964
0.0884178
-0.00176576
0.00877936
0.0854796
0.00188261
0.00687807
0.0838842
-0.00230729
0.00399705
0.0813988
0.00218291
0.00385017
0.080459
-0.00308887
0.00212954
0.0783032
0.00251112
0.00261942
0.0779178
-0.00417414
0.00119813
0.0759313
0.00257573
0.00194835
0.0760321
-0.00608936
0.000714184
0.0739789
0.00248064
0.00142496
0.0746556
-0.00942075
0.000457983
0.0724938
0.00161099
0.000724739
0.0740407
-0.0150024
0.000658264
0.0718632
-0.00100134
-0.00034358
0.0750316
-0.0238348
0.00228271
0.074486
-0.00922481
-0.00256694
-0.0301328
0.00671786
0.0799686
0.0928007
0.000535022
0.0150108
0.0925381
-0.00121444
0.014373
0.0905185
0.00160244
0.0124854
0.0883438
-0.00185137
0.00882323
0.0854613
0.00189153
0.00718856
0.0837198
-0.00248371
0.00397222
0.0812599
0.0023127
0.0043015
0.0801981
-0.00335589
0.00206296
0.0780576
0.00281974
0.0031635
0.0776085
-0.00452515
0.00101079
0.0755928
0.00316288
0.00256907
0.0757064
-0.00665485
0.000363195
0.073505
0.00360118
0.00218929
0.0743507
-0.0104988
-0.000152693
0.071686
0.00367206
0.00174898
0.0738763
-0.0175437
-0.000328456
0.0705782
0.0025437
0.000615443
0.0753791
-0.0300534
0.00110837
0.0738328
-0.00655804
-0.00304836
-0.0401092
0.00898691
0.0810742
0.0931704
2.29036e-05
0.0145943
0.0923538
-0.000670958
0.0146355
0.0908994
0.00112129
0.0123696
0.0879952
-0.00135682
0.00923759
0.0857597
0.00118717
0.00717089
0.0832196
-0.0019663
0.00428993
0.0814866
0.00156033
0.00442953
0.0795746
-0.00278738
0.00229282
0.0782732
0.00199682
0.00352812
0.0769384
-0.00382848
0.00101421
0.0758571
0.00240937
0.00313726
0.0750824
-0.00586936
-2.2679e-05
0.0739305
0.00309553
0.00308284
0.0740383
-0.00978957
-0.00135103
0.0724372
0.00404418
0.00283699
0.074709
-0.0180764
-0.00316114
0.0722025
0.0056717
0.00105
0.0804495
-0.036974
-0.00527962
0.0766988
0.00292498
-0.00809588
-0.0596649
0.00840705
0.0915835
0.0936597
-0.000991747
0.0144884
0.0921858
0.000846233
0.0142458
0.0914898
-0.000328519
0.0126554
0.087724
0.000466423
0.00849385
0.0863925
-0.000746938
0.0075616
0.0828241
0.000244396
0.00319365
0.0820288
-0.000804615
0.00536821
0.0789757
-9.78265e-05
0.000630551
0.0786934
-0.000979462
0.00518094
0.0760894
-0.000458487
-0.00138693
0.076037
-0.00121945
0.00588532
0.0737079
-0.00148455
-0.00351104
0.0735512
-0.00144242
0.00762694
0.07149
-0.00388931
-0.00654363
0.0706388
-0.00141319
0.0105733
0.069375
-0.0106167
-0.0109702
0.0659512
0.000361111
0.0163491
0.0693501
-0.0319466
-0.0173626
0.0543602
0.0125907
0.0256047
-0.090415
-0.0145456
0.0882677
0.093289
0.0142659
-0.00148439
0.0924222
0.0144292
0.00173383
0.0914301
0.0123974
-0.00131157
0.0881314
0.0087411
0.00166285
0.086621
0.00655419
-0.00192674
0.0834144
0.00388492
0.00178727
0.0825612
0.00396492
-0.00231912
0.0797789
0.00171983
0.00180846
0.0794652
0.00319115
-0.00280504
0.077023
0.000520368
0.00180512
0.0769347
0.0033948
-0.0034235
0.0743995
-0.000280186
0.00139326
0.0741875
0.00435857
-0.00414657
0.0708908
-0.000708184
-8.68178e-06
0.0703225
0.00625381
-0.00508741
0.0644178
-0.000473832
-0.00410195
0.0642393
0.0102246
-0.00694293
0.0563812
0.00220564
-0.0217092
0.0693097
0.039597
-0.0140677
-0.0368591
0.122444
-0.128666
0.0933943
0.00155491
0.00937977
0.0955883
0.00206104
0.0101601
0.0965635
0.00205606
0.00881484
0.0960999
0.00211794
0.00708679
0.0946182
0.00212732
0.00510999
0.0926339
0.00210185
0.00380211
0.0904685
0.00201689
0.00301214
0.0882356
0.0019527
0.00244483
0.0860439
0.00186746
0.00196279
0.0839334
0.00180404
0.00162895
0.0820093
0.00163348
0.00140644
0.0802465
0.00149538
0.00121879
0.0786755
0.00132097
0.00101867
0.0772191
0.00125816
0.000809091
0.0759714
0.00111804
0.000672394
0.0748796
0.000998969
0.000675786
0.0740359
0.000760037
0.000654742
0.0732598
0.000668543
0.000630288
0.0725909
0.000549958
0.000442786
0.000712216
-7.09926e-05
0.0719802
0.0955031
0.00104441
0.00944628
0.100163
0.00168906
0.0104329
0.103492
0.00184209
0.00883434
0.10546
0.00198427
0.00742001
0.106353
0.00207507
0.00563583
0.106622
0.00211431
0.00430099
0.106545
0.00206074
0.0035089
0.106291
0.00200614
0.00292854
0.10594
0.00192351
0.00246026
0.105572
0.00187788
0.00205391
0.105182
0.00172096
0.00184132
0.10484
0.00154048
0.00163299
0.104538
0.00130918
0.0014753
0.104355
0.00116124
0.0012119
0.104218
0.00104797
0.00100255
0.104146
0.000906801
0.000975555
0.10411
0.000659208
0.000894446
0.104146
0.000432661
0.00118113
0.104306
0.000197168
0.000792129
0.000301687
0.00148134
0.104562
0.0953654
0.000678389
0.00945186
0.100089
0.00126177
0.0104041
0.103486
0.00149326
0.00871451
0.105624
0.00165874
0.00730167
0.106764
0.00177145
0.00556063
0.107332
0.00183136
0.00421671
0.107572
0.00179974
0.00342508
0.107659
0.00174144
0.00285514
0.10765
0.00165325
0.00243695
0.107659
0.00157241
0.00205247
0.107651
0.00141533
0.00182585
0.107689
0.0012113
0.00157484
0.107729
0.000974174
0.00143742
0.107865
0.000750395
0.00122759
0.108069
0.000589778
0.00108166
0.10836
0.000384666
0.000988797
0.108692
0.000137404
0.000819133
0.109047
-0.000117754
0.00105342
0.109436
-0.000345074
0.000712248
-0.00033389
0.00154861
0.109979
0.0952239
0.000470581
0.00947029
0.0998581
0.000961284
0.0104533
0.103177
0.00122459
0.00874276
0.105272
0.00138669
0.00731152
0.106392
0.00149952
0.00557361
0.106965
0.00155081
0.00421948
0.107221
0.00152863
0.00340708
0.107337
0.00145486
0.00283127
0.107362
0.00135783
0.00240862
0.107414
0.00123125
0.00202477
0.10746
0.00105876
0.00178666
0.107557
0.000828398
0.00153478
0.107663
0.000579058
0.00139364
0.107851
0.00030224
0.00119646
0.108123
7.22479e-05
0.001059
0.108481
-0.000201792
0.00097192
0.108905
-0.000476588
0.000785371
0.109343
-0.000752768
0.00103812
0.109835
-0.000972781
0.000658313
-0.00102103
0.00158147
0.110432
0.0951385
0.000356925
0.00948474
0.0997172
0.000732231
0.0104744
0.102981
0.000998598
0.00875036
0.105048
0.0011318
0.00729296
0.106139
0.00124646
0.0055543
0.106698
0.00127499
0.00419901
0.106943
0.00126105