/*--------------------------------*- C++ -*----------------------------------*\
| =========                 |                                                 |
| \\      /  F ield         | OpenFOAM: The Open Source CFD Toolbox           |
|  \\    /   O peration     | Version:  v1806                                 |
|   \\  /    A nd           | Web:      www.OpenFOAM.com                      |
|    \\/     M anipulation  |                                                 |
\*---------------------------------------------------------------------------*/
FoamFile
{
    version     2.0;
    format      ascii;
    class       volScalarField;
    location    "3";
    object      p;
}
// * * * * * * * * * * * * * * * * * * * * * * * * * * * * * * * * * * * * * //

dimensions      [0 2 -2 0 0 0 0];


internalField   nonuniform List<scalar> 
2400
(
0.0448534
0.0449712
0.0451332
0.0452029
0.0448371
0.0448537
0.0452092
0.0448939
0.0440917
0.0439317
0.0438579
0.0429767
0.0426267
0.0418726
0.0401238
0.0382082
0.0376246
0.03827
0.0357434
0.0337194
0.13459
0.134792
0.135133
0.135666
0.135156
0.134821
0.13503
0.1342
0.133024
0.133019
0.131925
0.12839
0.126473
0.125807
0.121824
0.115857
0.11281
0.111912
0.106904
0.101858
0.224153
0.224818
0.225177
0.225905
0.225725
0.224845
0.225042
0.224632
0.22232
0.221355
0.220561
0.216057
0.211248
0.208786
0.203621
0.19425
0.187804
0.185055
0.177462
0.169145
0.313396
0.314663
0.31529
0.316458
0.316473
0.314872
0.315302
0.315398
0.312358
0.310826
0.310083
0.304202
0.296782
0.293281
0.286041
0.272918
0.262923
0.256691
0.247518
0.235907
0.402147
0.404396
0.405659
0.407068
0.406932
0.405424
0.406204
0.406457
0.403177
0.401552
0.400511
0.393122
0.383994
0.378639
0.368425
0.352505
0.338663
0.328242
0.31601
0.300343
0.490154
0.494035
0.495968
0.497731
0.497564
0.496361
0.497278
0.498315
0.495721
0.493538
0.49171
0.483793
0.473189
0.465381
0.451937
0.433287
0.414998
0.399255
0.382529
0.361163
0.576936
0.583522
0.586333
0.588397
0.587877
0.587476
0.589136
0.591299
0.589432
0.587304
0.585099
0.577055
0.564746
0.553788
0.537587
0.516107
0.492673
0.470839
0.446436
0.418056
0.66238
0.672865
0.676224
0.678391
0.677827
0.679059
0.681369
0.68544
0.684631
0.683439
0.680831
0.67346
0.65951
0.645632
0.626676
0.601366
0.571729
0.541006
0.508085
0.473447
0.746563
0.761476
0.764884
0.767795
0.766806
0.77048
0.774035
0.781142
0.780864
0.782238
0.7797
0.773575
0.758459
0.742326
0.719746
0.690215
0.65234
0.612486
0.569504
0.524842
0.829135
0.84903
0.852066
0.855451
0.854207
0.862098
0.866662
0.877644
0.877892
0.884258
0.881364
0.878295
0.86228
0.845865
0.818158
0.783877
0.737626
0.687649
0.630363
0.571978
0.910287
0.934265
0.936076
0.940667
0.940462
0.952702
0.958224
0.974686
0.976318
0.988509
0.985031
0.988938
0.971209
0.957364
0.923243
0.887387
0.829899
0.767008
0.690241
0.613338
0.990119
1.01534
1.01628
1.02239
1.02453
1.04105
1.04949
1.07117
1.07413
1.09445
1.09264
1.10469
1.08454
1.07751
1.03792
1.00312
0.928351
0.853191
0.750685
0.653817
1.06886
1.09048
1.09059
1.09908
1.10607
1.12671
1.13891
1.16439
1.17308
1.20061
1.20292
1.22332
1.20542
1.20891
1.16076
1.13202
1.03692
0.954496
0.816005
0.689848
1.14758
1.15803
1.15807
1.17007
1.18435
1.20777
1.22579
1.25475
1.27097
1.30445
1.31645
1.34566
1.33506
1.34718
1.29947
1.27963
1.16317
1.07667
0.881246
0.727609
1.22637
1.21837
1.22025
1.2364
1.25768
1.28436
1.30935
1.3405
1.36726
1.40692
1.43211
1.46817
1.47363
1.49621
1.45819
1.44584
1.31565
1.2291
0.96816
0.780371
1.30113
1.27207
1.28349
1.30125
1.33244
1.35653
1.3883
1.42301
1.46193
1.50763
1.54841
1.59274
1.62155
1.65296
1.63769
1.63306
1.51174
1.42371
1.09862
0.867213
1.36648
1.32465
1.34776
1.36424
1.40781
1.42525
1.47454
1.50342
1.56482
1.60723
1.67389
1.72359
1.78237
1.82578
1.84632
1.84712
1.7543
1.66029
1.29823
1.02849
1.42023
1.377
1.4056
1.4233
1.4742
1.49178
1.55564
1.5838
1.67001
1.70836
1.81496
1.8597
1.97549
2.01675
2.10959
2.11315
2.08377
1.94765
1.56725
1.24985
1.46421
1.42612
1.45513
1.47557
1.52983
1.55293
1.62409
1.6602
1.7612
1.80915
1.94677
2.00125
2.18312
2.22684
2.45585
2.43658
2.60782
2.38601
2.11597
1.33541
1.49992
1.46986
1.49624
1.52042
1.57439
1.60639
1.67862
1.72816
1.83203
1.90287
2.04788
2.14164
2.34575
2.45369
2.75485
2.83009
3.26863
3.04099
3.45556
1.35824
0.0345794
0.0349156
0.0386329
0.051135
0.0691717
0.0894305
0.110176
0.129195
0.142579
0.14763
0.100452
0.103995
0.115842
0.143712
0.186656
0.242169
0.302902
0.357126
0.393171
0.405853
0.163975
0.167493
0.185461
0.225612
0.288602
0.374998
0.472327
0.558957
0.615819
0.63589
0.224981
0.229131
0.25152
0.298069
0.37691
0.491485
0.619592
0.732241
0.805935
0.831558
0.282719
0.285171
0.308067
0.359746
0.455028
0.594913
0.749034
0.883955
0.973877
1.00763
0.334614
0.334173
0.358553
0.413604
0.517115
0.675356
0.854554
1.01126
1.11244
1.15007
0.382423
0.37511
0.395433
0.451222
0.561864
0.737779
0.94227
1.12548
1.24523
1.28722
0.423711
0.406606
0.422054
0.475573
0.590153
0.784693
1.01357
1.21214
1.34032
1.39032
0.458018
0.429393
0.432953
0.481617
0.599632
0.813956
1.07541
1.30537
1.44374
1.489
0.482653
0.439391
0.425937
0.474001
0.599394
0.832833
1.10536
1.34358
1.50003
1.55923
0.497814
0.438388
0.397086
0.445965
0.574151
0.831265
1.14524
1.40782
1.56035
1.60972
0.498071
0.41503
0.338761
0.405204
0.539465
0.8117
1.12327
1.40809
1.58524
1.652
0.474759
0.373709
0.257736
0.336074
0.457
0.771943
1.1289
1.42034
1.58801
1.6493
0.423025
0.290266
0.13695
0.258377
0.364652
0.675007
1.01261
1.36313
1.585
1.66134
0.32144
0.163275
-0.0173672
0.12788
0.21734
0.624154
0.939799
1.2985
1.50455
1.60192
0.138928
-0.0169396
-0.187898
-0.025003
-0.0380026
0.43783
0.757902
1.24441
1.46619
1.56674
-0.209101
-0.33957
-0.39627
-0.176963
-0.294391
0.337471
0.537943
1.17274
1.37407
1.49803
-0.756688
-0.883187
-0.735924
-0.302905
-0.562848
0.294315
0.397762
1.15376
1.31202
1.43416
-1.16304
-1.31178
-1.01648
-0.296987
-0.736854
0.363157
0.371959
1.16569
1.26886
1.37419
-3.12694
-1.30938
-1.27709
-0.148083
-0.556912
0.381225
0.43458
1.17251
1.25067
1.30332
0.141917
0.123797
0.101665
0.0817181
0.0653037
0.0524481
0.0424792
0.0346639
0.0284304
0.0233739
0.0192136
0.0157515
0.0128434
0.0103787
0.00826879
0.00643992
0.00482778
0.00337237
0.00201896
0.000678223
0.391718
0.342947
0.283597
0.230035
0.185773
0.150712
0.123122
0.101173
0.083437
0.0688874
0.0568067
0.0466814
0.0381293
0.0308506
0.0245997
0.0191676
0.0143698
0.0100325
0.00599547
0.00200967
0.615917
0.542586
0.451757
0.368586
0.299214
0.243935
0.200172
0.165127
0.13662
0.113094
0.0934565
0.0769252
0.0629114
0.0509486
0.0406499
0.0316821
0.023749
0.0165689
0.00988181
0.00330478
0.807177
0.715049
0.600088
0.493959
0.404182
0.331617
0.273479
0.226473
0.187941
0.155942
0.129102
0.106417
0.0871256
0.070614
0.0563688
0.0439423
0.0329338
0.0229607
0.0136687
0.00456186
0.980595
0.871583
0.733909
0.607532
0.500436
0.413187
0.342558
0.28487
0.237166
0.197272
0.163625
0.135066
0.110698
0.089787
0.0717083
0.0559107
0.041897
0.0291908
0.0173494
0.00578001
1.12391
1.00627
0.853004
0.710907
0.589267
0.489314
0.40767
0.340371
0.284258
0.237012
0.196947
0.162798
0.133564
0.108413
0.0866235
0.0675522
0.0506131
0.035243
0.020917
0.00695787
1.25489
1.12439
0.956526
0.80254
0.669824
0.559627
0.468641
0.392868
0.329131
0.275083
0.228997
0.189547
0.155666
0.126441
0.101073
0.0788338
0.059058
0.0411019
0.0243644
0.0080938
1.36236
1.22862
1.04918
0.885198
0.743266
0.624545
0.525599
0.442372
0.371748
0.311431
0.259713
0.215255
0.176949
0.143825
0.115017
0.089725
0.0672092
0.0467529
0.0276845
0.00918598
1.45196
1.3142
1.12738
0.957714
0.809421
0.684125
0.578596
0.488894
0.412086
0.346013
0.289044
0.23987
0.197365
0.160523
0.128421
0.100197
0.0750456
0.0521822
0.0308704
0.0102325
1.52863
1.39043
1.19593
1.02202
0.869008
0.738669
0.627765
0.532478
0.45014
0.378798
0.316951
0.263346
0.216872
0.176495
0.141251
0.110224
0.0825478
0.0573769
0.0339155
0.0112315
1.57847
1.44892
1.2522
1.0779
0.922287
0.788416
0.673251
0.57319
0.485924
0.409771
0.343399
0.285647
0.23543
0.191706
0.153478
0.119781
0.0896973
0.062325
0.0368131
0.0121811
1.62253
1.49948
1.29951
1.12666
0.96984
0.833689
0.715232
0.611114
0.519464
0.438922
0.368364
0.306738
0.253005
0.206125
0.165072
0.128846
0.0964774
0.067015
0.0395574
0.0130795
1.63601
1.53597
1.33674
1.16871
1.01212
0.874814
0.753903
0.646348
0.550794
0.466251
0.391824
0.326591
0.269567
0.219721
0.17601
0.137398
0.102872
0.0714364
0.0421426
0.0139251
1.64469
1.56668
1.3663
1.20517
1.04967
0.91216
0.789475
0.679
0.579958
0.491762
0.413765
0.345181
0.285088
0.232469
0.186267
0.145417
0.108868
0.0755795
0.0445633
0.0147161
1.6208
1.58705
1.38807
1.23676
1.08304
0.946107
0.822171
0.709183
0.607002
0.515463
0.434174
0.362487
0.299543
0.244344
0.195823
0.152886
0.11445
0.0794353
0.0468146
0.0154512
1.59002
1.60417
1.40433
1.26453
1.11285
0.977052
0.852215
0.737009
0.631971
0.537364
0.453041
0.378488
0.31291
0.255325
0.204657
0.159789
0.119607
0.0829954
0.0488919
0.0161289
1.54037
1.6178
1.41614
1.28934
1.13974
1.00539
0.879824
0.762582
0.654909
0.557472
0.470356
0.393168
0.325168
0.26539
0.212751
0.166112
0.124327
0.0862522
0.0507911
0.0167479
1.47956
1.63025
1.42525
1.31205
1.16439
1.03152
0.905199
0.785995
0.675849
0.575792
0.486108
0.406508
0.336297
0.274522
0.220089
0.171839
0.128601
0.0891987
0.0525081
0.0173071
1.40331
1.64069
1.43164
1.33328
1.18751
1.05579
0.928503
0.807313
0.694815
0.592325
0.500287
0.418492
0.346279
0.282702
0.226655
0.17696
0.132418
0.0918284
0.0540396
0.0178054
1.31411
1.64722
1.43281
1.35342
1.20982
1.07855
0.949848
0.826579
0.711815
0.607062
0.512876
0.429101
0.355096
0.289914
0.232434
0.181461
0.13577
0.0941353
0.0553823
0.0182417
1.26626
1.62536
1.43002
1.36674
1.22519
1.09355
0.963461
0.838642
0.722339
0.616116
0.520567
0.435555
0.360442
0.294275
0.235922
0.184171
0.137786
0.0955208
0.0561881
0.018503
1.26516
1.60491
1.4279
1.37405
1.23394
1.10189
0.97093
0.845209
0.728036
0.620998
0.524703
0.439018
0.363306
0.296607
0.237785
0.185618
0.138861
0.0962593
0.0566174
0.0186422
1.25418
1.57867
1.42662
1.38125
1.24268
1.10999
0.978086
0.851446
0.733416
0.625588
0.528578
0.442255
0.365977
0.298779
0.239518
0.186963
0.139859
0.0969445
0.0570154
0.0187714
1.23903
1.54934
1.42705
1.38835
1.25137
1.11783
0.984921
0.85735
0.738474
0.629884
0.532193
0.445266
0.368455
0.300791
0.24112
0.188204
0.140779
0.0975762
0.0573821
0.0188903
1.22499
1.5189
1.42979
1.39539
1.25993
1.12539
0.991423
0.862916
0.74321
0.633885
0.535545
0.448049
0.37074
0.302642
0.242591
0.189342
0.141622
0.0981542
0.0577174
0.0189991
1.21422
1.49003
1.43467
1.40228
1.26828
1.13264
0.997579
0.868138
0.74762
0.637589
0.538634
0.450602
0.37283
0.30433
0.24393
0.190377
0.142388
0.0986781
0.0580211
0.0190977
1.2085
1.47065
1.4412
1.40886
1.27627
1.13952
1.00337
0.87301
0.7517
0.640992
0.541456
0.452925
0.374724
0.305854
0.245137
0.191306
0.143074
0.0991479
0.0582931
0.019186
1.20029
1.46952
1.44924
1.41502
1.28377
1.14598
1.00879
0.877522
0.755446
0.644094
0.544012
0.455017
0.376421
0.307215
0.24621
0.192131
0.143682
0.0995631
0.0585332
0.019264
1.21322
1.48803
1.45864
1.4208
1.29076
1.152
1.0138
0.881671
0.758856
0.646891
0.546298
0.456875
0.37792
0.308412
0.247149
0.192851
0.144211
0.0999238
0.0587414
0.0193317
1.14011
1.50054
1.4682
1.42628
1.29737
1.15761
1.01843
0.885454
0.761928
0.649383
0.548315
0.4585
0.379221
0.309443
0.247955
0.193465
0.144661
0.10023
0.0589176
0.0193891
1.18997
1.5004
1.48826
1.43736
1.31088
1.16896
1.02762
0.892874
0.767865
0.654134
0.55211
0.461524
0.381617
0.311325
0.249414
0.19457
0.145466
0.100775
0.0592311
0.0194914
1.28242
1.55948
1.53154
1.45428
1.32377
1.17976
1.03652
0.899759
0.772989
0.657896
0.554848
0.463504
0.383041
0.312343
0.250134
0.195073
0.145807
0.100994
0.0593516
0.0195302
1.41222
1.5846
1.55885
1.47045
1.33609
1.18761
1.04108
0.902236
0.774074
0.658033
0.554413
0.462758
0.382162
0.311451
0.249309
0.194362
0.145239
0.100584
0.0591063
0.0194499
1.51709
1.62739
1.58157
1.47795
1.33882
1.1881
1.03993
0.899781
0.770812
0.654398
0.550722
0.459234
0.37895
0.308633
0.246927
0.192431
0.143759
0.0995444
0.0584941
0.0192499
1.57751
1.64146
1.58909
1.47857
1.33597
1.18304
1.03329
0.89234
0.763135
0.646909
0.543714
0.452895
0.37338
0.303874
0.24298
0.189276
0.141364
0.0978736
0.0575144
0.0189302
1.63987
1.66272
1.59219
1.47139
1.32521
1.17099
1.02062
0.879624
0.750869
0.635462
0.533327
0.443702
0.365432
0.297164
0.237466
0.184897
0.138055
0.095573
0.056168
0.018491
1.65729
1.65662
1.5804
1.45479
1.30662
1.15193
1.00171
0.861444
0.733875
0.619964
0.519506
0.431626
0.355093
0.2885
0.230385
0.179299
0.133837
0.092646
0.0544566
0.0179329
1.65695
1.64137
1.55834
1.42905
1.27974
1.12542
0.97627
0.837597
0.712018
0.600333
0.502201
0.416645
0.342357
0.277886
0.221748
0.172489
0.128719
0.0890985
0.0523838
0.0172567
1.6552
1.61845
1.52593
1.39357
1.24407
1.09109
0.944015
0.807889
0.685172
0.576493
0.481378
0.398748
0.32723
0.265334
0.211568
0.164484
0.122711
0.0849393
0.0499542
0.016464
1.60435
1.57189
1.47882
1.34692
1.19897
1.04856
0.904673
0.772137
0.653223
0.548385
0.457012
0.377936
0.309725
0.250867
0.19987
0.155305
0.115833
0.0801802
0.0471743
0.0155566
1.57287
1.52319
1.42258
1.28997
1.14421
0.997488
0.857984
0.730169
0.616073
0.515963
0.429099
0.354226
0.289873
0.234518
0.186685
0.144979
0.108104
0.074836
0.0440523
0.0145368
1.48931
1.44488
1.34838
1.21992
1.07878
0.937393
0.803667
0.681821
0.573642
0.479205
0.397649
0.327651
0.267715
0.216331
0.172054
0.133541
0.0995526
0.0689252
0.0405982
0.0134078
1.4131
1.36469
1.26552
1.13898
1.00282
0.868007
0.741486
0.626954
0.52587
0.438109
0.362696
0.298263
0.243312
0.196364
0.156032
0.121036
0.0902113
0.06247
0.0368241
0.0121729
1.30452
1.25341
1.16012
1.04186
0.914419
0.788602
0.671122
0.565431
0.472724
0.3927
0.324301
0.266137
0.21674
0.174692
0.13868
0.107514
0.0801191
0.0554963
0.0327438
0.0108363
1.17737
1.13364
1.04571
0.933706
0.814883
0.699278
0.592471
0.49719
0.414211
0.343039
0.282551
0.231372
0.188099
0.151402
0.120076
0.0930376
0.0693214
0.0480343
0.0283734
0.0094025
1.03867
0.98963
0.906064
0.805338
0.700211
0.598499
0.504986
0.422077
0.350347
0.289216
0.237565
0.194094
0.157506
0.126601
0.100307
0.0776767
0.0578703
0.0401182
0.0237305
0.00787657
0.857437
0.817004
0.748436
0.663438
0.573819
0.487569
0.409121
0.340302
0.281293
0.231392
0.18951
0.154461
0.125106
0.100413
0.0794783
0.0615124
0.0458252
0.0317865
0.0188343
0.00626362
0.663585
0.628518
0.57046
0.501099
0.430228
0.363488
0.303545
0.251395
0.206989
0.169678
0.138553
0.112651
0.0910623
0.0729802
0.0577052
0.044636
0.0332522
0.0230817
0.0137051
0.00456871
0.424715
0.399398
0.360517
0.315917
0.270792
0.228157
0.189713
0.156326
0.128074
0.104522
0.0850308
0.0689262
0.0555869
0.0444718
0.0351221
0.0271501
0.0202253
0.0140506
0.00836361
0.00279611
0.155043
0.146022
0.131868
0.115133
0.0978178
0.0814576
0.0669411
0.0545734
0.0443012
0.0358894
0.0290325
0.023435
0.0188415
0.0150409
0.0118612
0.00916115
0.00682324
0.00474324
0.00283014
0.000948858
-4.15006
0.898293
0.326534
0.714375
0.664071
0.714434
0.952231
1.08155
1.26354
1.14079
0.0880979
1.31054
0.754906
0.811906
0.729775
0.743666
0.961166
1.12528
1.25974
1.29734
-0.292413
0.839896
0.600072
0.684027
0.773084
0.862573
1.04691
1.19726
1.31538
1.37629
0.877394
1.16214
1.02346
0.984535
1.0098
1.07397
1.19647
1.32477
1.41835
1.48092
0.883353
0.963424
0.911925
0.890584
0.941824
1.05423
1.2089
1.35413
1.45657
1.52623
1.02943
1.05425
1.07064
1.0869
1.14082
1.23697
1.3553
1.46584
1.54693
1.60135
1.06698
1.04003
1.02943
1.02697
1.06455
1.17774
1.32803
1.46809
1.56254
1.62223
1.04763
1.02475
1.05251
1.11379
1.19245
1.28694
1.39011
1.49362
1.57234
1.62403
1.01799
1.01112
1.02809
1.0558
1.10193
1.20748
1.35744
1.49421
1.59274
1.64151
0.968922
0.976966
1.01557
1.08753
1.16686
1.24385
1.34807
1.45405
1.5327
1.57961
0.917355
0.933781
0.97058
1.03851
1.1204
1.20564
1.30514
1.41474
1.50766
1.56016
0.849656
0.881727
0.918775
0.969241
1.05038
1.15645
1.27589
1.3753
1.44245
1.47731
0.775196
0.809338
0.864785
0.935106
1.01006
1.0971
1.18937
1.2776
1.34867
1.39477
0.698626
0.734243
0.781474
0.853777
0.947673
1.05155
1.14679
1.22379
1.27482
1.30201
0.610353
0.650789
0.695438
0.759844
0.849519
0.943761
1.02489
1.09083
1.13889
1.16827
0.514267
0.550746
0.593422
0.651476
0.728823
0.819934
0.908138
0.977752
1.02242
1.04274
0.41312
0.442853
0.486852
0.54274
0.604864
0.67863
0.754348
0.812631
0.847279
0.86122
0.304522
0.326467
0.364125
0.419802
0.477353
0.530443
0.580381
0.622839
0.652072
0.666103
0.190276
0.205892
0.229302
0.268852
0.311792
0.346726
0.37607
0.402271
0.420846
0.428801
0.0667255
0.0694075
0.0796887
0.0996653
0.11781
0.130027
0.13951
0.148152
0.154376
0.157023
1.5617
1.53629
1.5608
1.58254
1.63408
1.66263
1.73456
1.77746
1.88207
1.93717
2.08771
2.1484
2.36635
2.40811
2.73128
2.67031
3.13961
2.66944
2.96543
0.530979
1.53484
1.52269
1.53823
1.5605
1.6002
1.63253
1.68602
1.73298
1.804
1.86652
1.95674
2.0297
2.12955
2.20262
2.28075
2.3097
2.28537
2.19868
1.85506
1.65182
1.49399
1.49366
1.50427
1.52403
1.55361
1.58442
1.62573
1.67001
1.71897
1.77577
1.83439
1.89465
1.94788
2.00479
2.01969
2.05008
1.95279
1.9356
1.53673
1.39136
1.44016
1.45043
1.45878
1.47573
1.49603
1.52393
1.55469
1.59494
1.62803
1.67789
1.71191
1.76467
1.7818
1.83203
1.80488
1.83772
1.71929
1.70328
1.42046
1.31885
1.37917
1.39528
1.40142
1.41585
1.42884
1.45427
1.4758
1.51236
1.53295
1.57618
1.59343
1.63752
1.63549
1.6751
1.63674
1.65469
1.55055
1.51998
1.33396
1.23126
1.31332
1.32833
1.3337
1.34544
1.35516
1.37521
1.39198
1.42071
1.43566
1.46695
1.47967
1.5077
1.50448
1.52228
1.49456
1.48753
1.4217
1.3722
1.26961
1.17971
1.24154
1.25297
1.25793
1.26718
1.27518
1.28946
1.30302
1.32407
1.33545
1.35594
1.36612
1.38148
1.37854
1.38314
1.36522
1.34545
1.30468
1.26138
1.20348
1.14827
1.16427
1.17188
1.1762
1.18334
1.19013
1.19996
1.21056
1.22549
1.23403
1.24686
1.25591
1.26166
1.2593
1.25789
1.24679
1.22889
1.20212
1.17577
1.14097
1.10138
1.08211
1.08678
1.09022
1.09573
1.10146
1.10783
1.1165
1.12694
1.13278
1.14041
1.14803
1.15084
1.14756
1.14683
1.13978
1.1249
1.10809
1.09201
1.07235
1.04853
0.996044
0.998723
1.00124
1.00552
1.0103
1.0145
1.02074
1.02877
1.0326
1.03785
1.0441
1.04502
1.04279
1.04239
1.03992
1.02959
1.01905
1.01345
1.00136
0.984064
0.906755
0.908423
0.910167
0.913519
0.917262
0.92015
0.925207
0.931085
0.933266
0.936929
0.943239
0.944048
0.942441
0.943795
0.943072
0.935643
0.928755
0.929714
0.92738
0.920713
0.815322
0.816316
0.817463
0.820132
0.823263
0.824936
0.828841
0.833979
0.83575
0.838237
0.843602
0.844719
0.843103
0.846727
0.848697
0.845473
0.844106
0.846274
0.846856
0.844232
0.722238
0.722851
0.72366
0.725715
0.728238
0.729389
0.732754
0.736824
0.737506
0.740555
0.745781
0.747442
0.746503
0.750237
0.753942
0.750738
0.753045
0.762178
0.767332
0.768174
0.627821
0.628304
0.628716
0.630628
0.632733
0.633144
0.636031
0.639938
0.64038
0.642378
0.648025
0.649538
0.649237
0.654572
0.659749
0.659143
0.660581
0.670207
0.678789
0.684241
0.532545
0.532963
0.533211
0.53471
0.536524
0.536828
0.539279
0.542593
0.542593
0.544422
0.550093
0.551794
0.55219
0.558106
0.563316
0.56375
0.567256
0.577921
0.586383
0.592007
0.436621
0.436773
0.437043
0.43847
0.43977
0.439746
0.442242
0.44498
0.444883
0.446968
0.451705
0.452935
0.453052
0.459712
0.465844
0.466912
0.472086
0.482591
0.490401
0.496648
0.340176
0.340216
0.340203
0.341536
0.342619
0.342304
0.344607
0.347035
0.346261
0.348455
0.353479
0.354463
0.354205
0.360108
0.365415
0.365299
0.371694
0.382928
0.388276
0.395039
0.243218
0.243379
0.243329
0.244179
0.244863
0.244681
0.246377
0.248224
0.247614
0.250007
0.253991
0.25377
0.254566
0.259114
0.263213
0.263405
0.268649
0.278964
0.282199
0.287844
0.146024
0.146111
0.146166
0.146774
0.146949
0.146783
0.14816
0.149088
0.148373
0.150323
0.153188
0.152651
0.15342
0.156698
0.159284
0.15925
0.162948
0.170443
0.17121
0.175099
0.048715
0.0487146
0.0487252
0.0490126
0.0489972
0.0488566
0.0495222
0.0497928
0.0492186
0.0501881
0.051394
0.0509429
0.0511469
0.0523696
0.0536874
0.0529525
0.0545682
0.0582214
0.0566994
0.0592447
1.5204
1.4938
1.52069
1.54482
1.59934
1.63441
1.70807
1.76363
1.86911
1.95135
2.09956
2.21617
2.42617
2.58661
2.89822
3.10461
3.56854
3.7142
4.43364
3.54318
1.53062
1.5058
1.53276
1.55698
1.61196
1.64797
1.7231
1.78041
1.888
1.97372
2.12584
2.25026
2.46742
2.64709
2.97179
3.23096
3.717
4.03097
4.67622
4.59477
1.53955
1.51611
1.54296
1.56751
1.6225
1.65955
1.73524
1.79441
1.90276
1.99212
2.14565
2.2779
2.49791
2.6957
3.02693
3.33014
3.83768
4.26828
5.00604
5.20969
1.54726
1.52459
1.55151
1.57617
1.63126
1.66874
1.74501
1.80506
1.91429
2.00541
2.16051
2.29702
2.5197
2.7289
3.06467
3.40027
3.91569
4.43731
5.13593
5.58026
1.55356
1.53132
1.55836
1.58294
1.63815
1.67555
1.75233
1.81237
1.92246
2.01354
2.17027
2.30727
2.53309
2.74473
3.08685
3.43216
3.96367
4.51144
5.25506
5.75299
1.55846
1.53632
1.56353
1.58783
1.64316
1.67996
1.75717
1.81632
1.92716
2.01656
2.17465
2.30883
2.53709
2.74402
3.08966
3.42916
3.96829
4.51428
5.2643
5.78685
1.56197
1.53963
1.56702
1.59083
1.64628
1.68196
1.75955
1.81687
1.9284
2.01439
2.1737
2.3017
2.53172
2.72684
3.07258
3.38991
3.92696
4.43721
5.17094
5.60787
1.56411
1.54133
1.56883
1.59203
1.64749
1.68163
1.75943
1.81408
1.9262
2.00693
2.16757
2.28512
2.51805
2.69101
3.04531
3.30925
3.86544
4.2581
5.07649
5.29827
1.56498
1.5415
1.56892
1.59152
1.64674
1.67917
1.75669
1.80834
1.92021
1.99501
2.15547
2.26097
2.49363
2.64063
2.98981
3.20085
3.74094
4.0077
4.72215
4.63299
1.56473
1.54041
1.56733
1.58947
1.64404
1.6748
1.75134
1.79982
1.91049
1.97872
2.13773
2.22899
2.45994
2.57461
2.92688
3.05096
3.60862
3.65411
4.58134
3.55683
)
;

boundaryField
{
    inlet
    {
        type            zeroGradient;
    }
    outlet
    {
        type            fixedValue;
        value           uniform 0;
    }
    upAndBottom
    {
        type            empty;
    }
    obstacle
    {
        type            zeroGradient;
    }
}


// ************************************************************************* //
