x,y,z,U_0,U_1,U_2
0,0,0,0.299999,-0.000110587,0
0,0.1,0,0.299999,-6.63523e-05,0
0,0.2,0,0.3,-2.21174e-05,0
0,0.3,0,0.3,0,0
0,0.4,0,0.3,0,0
0,0.5,0,0.3,0,0
0,0.6,0,0.3,0,0
0,0.7,0,0.3,0,0
0,0.8,0,0.3,0,0
0,0.9,0,0.3,0,0
0,1,0,0.3,0,0
0,1.1,0,0.3,0,0
0,1.2,0,0.3,0,0
0,1.3,0,0.3,0,0
0,1.4,0,0.3,0,0
0,1.5,0,0.3,0,0
0,1.6,0,0.3,0,0
0,1.7,0,0.3,0,0
0,1.8,0,0.3,0,0
0,1.9,0,0.3,0,0
0,2,0,0.3,0,0
0,2.1,0,0.3,0,0
0,2.2,0,0.3,0,0
0,2.3,0,0.3,0,0
0,2.4,0,0.3,0,0
0,2.5,0,0.3,0,0
0,2.6,0,0.3,0,0
0,2.7,0,0.3,0,0
0,2.8,0,0.3,0,0
0,2.9,0,0.3,0,0
0,3,0,0.3,0,0
0,3.1,0,0.3,0,0
0,3.2,0,0.3,0,0
0,3.3,0,0.3,0,0
0,3.4,0,0.3,0,0
0,3.5,0,0.3,0,0
0,3.6,0,0.3,0,0
0,3.7,0,0.3,0,0
0,3.8,0,0.3,0,0
0,3.9,0,0.3,0,0
0,4,0,0.3,0,0
0,4.1,0,0.3,0,0
0,4.2,0,0.3,0,0
0,4.3,0,0.3,0,0
0,4.4,0,0.3,0,0
0,4.5,0,0.3,0,0
0,4.6,0,0.3,0,0
0,4.7,0,0.3,0,0
0,4.8,0,0.3,0,0
0,4.9,0,0.3,0,0
0,5,0,0.3,0,0
0,5.1,0,0.3,0,0
0,5.2,0,0.3,0,0
0,5.3,0,0.3,0,0
0,5.4,0,0.3,0,0
0,5.5,0,0.3,0,0
0,5.6,0,0.3,0,0
0,5.7,0,0.3,0,0
0,5.8,0,0.3,0,0
0,5.9,0,0.3,0,0
0,6,0,0.3,0,0
0,6.1,0,0.3,0,0
0,6.2,0,0.3,0,0
0,6.3,0,0.3,0,0
0,6.4,0,0.3,0,0
0,6.5,0,0.3,0,0
0,6.6,0,0.3,0,0
0,6.7,0,0.3,0,0
0,6.8,0,0.3,0,0
0,6.9,0,0.3,0,0
0,7,0,0.3,0,0
0,7.1,0,0.3,0,0
0,7.2,0,0.3,0,0
0,7.3,0,0.3,0,0
0,7.4,0,0.3,0,0
0,7.5,0,0.3,0,0
0,7.6,0,0.3,0,0
0,7.7,0,0.3,0,0
0,7.8,0,0.3,0,0
0,7.9,0,0.3,0,0
0,8,0,0.3,0,0
0,8.1,0,0.3,0,0
0,8.2,0,0.3,0,0
0,8.3,0,0.3,0,0
0,8.4,0,0.3,0,0
0,8.5,0,0.3,0,0
0,8.6,0,0.3,0,0
0,8.7,0,0.3,0,0
0,8.8,0,0.3,0,0
0,8.9,0,0.3,0,0
0,9,0,0.3,0,0
0,9.1,0,0.3,0,0
0,9.2,0,0.3,0,0
0,9.3,0,0.3,0,0
0,9.4,0,0.3,0,0
0,9.5,0,0.3,0,0
0,9.6,0,0.3,0,0
0,9.7,0,0.3,0,0
0,9.8,0,0.3,0,0
0,9.9,0,0.3,0,0
0,10,0,0.3,0,0
0,10.1,0,0.3,0,0
0,10.2,0,0.3,0,0
0,10.3,0,0.3,0,0
0,10.4,0,0.3,0,0
0,10.5,0,0.3,0,0
0,10.6,0,0.3,0,0
0,10.7,0,0.3,0,0
0,10.8,0,0.3,0,0
0,10.9,0,0.3,0,0
0,11,0,0.3,0,0
0,11.1,0,0.3,0,0
0,11.2,0,0.3,0,0
0,11.3,0,0.3,0,0
0,11.4,0,0.3,0,0
0,11.5,0,0.3,0,0
0,11.6,0,0.3,0,0
0,11.7,0,0.3,0,0
0,11.8,0,0.3,0,0
0,11.9,0,0.3,0,0
0,12,0,0.3,0,0
0,12.1,0,0.3,0,0
0,12.2,0,0.3,0,0
0,12.3,0,0.3,0,0
0,12.4,0,0.3,1.32389e-05,0
0,12.5,0,0.3,5.10643e-05,0
0,12.6,0,0.3,8.88897e-05,0
0,12.7,0,0.3,0.000126715,0
0.1,0,0,0.299998,-0.000187079,0
0.1,0.1,0,0.299998,-0.000122737,0
0.1,0.2,0,0.299999,-7.85025e-05,0
0.1,0.3,0,0.299998,-7.26726e-05,0
0.1,0.4,0,0.299998,-7.26726e-05,0
0.1,0.5,0,0.299999,-9.28837e-05,0
0.1,0.6,0,0.299998,-7.13474e-05,0
0.1,0.7,0,0.299998,-7.13474e-05,0
0.1,0.8,0,0.299997,-6.94542e-05,0
0.1,0.9,0,0.299997,-6.94542e-05,0
0.1,1,0,0.299998,-9.10013e-05,0
0.1,1.1,0,0.299996,-6.70818e-05,0
0.1,1.2,0,0.299996,-6.70818e-05,0
0.1,1.3,0,0.299995,-6.43462e-05,0
0.1,1.4,0,0.299995,-6.43462e-05,0
0.1,1.5,0,0.299997,-8.78217e-05,0
0.1,1.6,0,0.299994,-6.13843e-05,0
0.1,1.7,0,0.299994,-6.13843e-05,0
0.1,1.8,0,0.299993,-5.8356e-05,0
0.1,1.9,0,0.299993,-5.8356e-05,0
0.1,2,0,0.299997,-8.32565e-05,0
0.1,2.1,0,0.299992,-5.54391e-05,0
0.1,2.2,0,0.299992,-5.54391e-05,0
0.1,2.3,0,0.299991,-5.28209e-05,0
0.1,2.4,0,0.299991,-5.28209e-05,0
0.1,2.5,0,0.299997,-7.71818e-05,0
0.1,2.6,0,0.299991,-5.06769e-05,0
0.1,2.7,0,0.299991,-5.06769e-05,0
0.1,2.8,0,0.299992,-4.91415e-05,0
0.1,2.9,0,0.299992,-4.91415e-05,0
0.1,3,0,0.299997,-6.94577e-05,0
0.1,3.1,0,0.299995,-4.82649e-05,0
0.1,3.2,0,0.299995,-4.82649e-05,0
0.1,3.3,0,0.3,-4.79723e-05,0
0.1,3.4,0,0.3,-4.79723e-05,0
0.1,3.5,0,0.299997,-6.00429e-05,0
0.1,3.6,0,0.300009,-4.80332e-05,0
0.1,3.7,0,0.300009,-4.80332e-05,0
0.1,3.8,0,0.300021,-4.80646e-05,0
0.1,3.9,0,0.300021,-4.80646e-05,0
0.1,4,0,0.299994,-4.91848e-05,0
0.1,4.1,0,0.300036,-4.75622e-05,0
0.1,4.2,0,0.300036,-4.75622e-05,0
0.1,4.3,0,0.300054,-4.60022e-05,0
0.1,4.4,0,0.300054,-4.60022e-05,0
0.1,4.5,0,0.29999,-3.73857e-05,0
0.1,4.6,0,0.300072,-4.31089e-05,0
0.1,4.7,0,0.300072,-4.31089e-05,0
0.1,4.8,0,0.300088,-3.86612e-05,0
0.1,4.9,0,0.300088,-3.86612e-05,0
0.1,5,0,0.299986,-2.64412e-05,0
0.1,5.1,0,0.299985,-2.37213e-05,0
0.1,5.2,0,0.299984,-2.18691e-05,0
0.1,5.3,0,0.299984,-2.00319e-05,0
0.1,5.4,0,0.299984,-1.81854e-05,0
0.1,5.5,0,0.299984,-1.63342e-05,0
0.1,5.6,0,0.299984,-1.44816e-05,0
0.1,5.7,0,0.299984,-1.26326e-05,0
0.1,5.8,0,0.299984,-1.07953e-05,0
0.1,5.9,0,0.299985,-8.93805e-06,0
0.1,6,0,0.299986,-5.68638e-06,0
0.1,6.1,0,0.300085,1.46387e-05,0
0.1,6.2,0,0.300085,1.46387e-05,0
0.1,6.3,0,0.300054,1.03859e-05,0
0.1,6.4,0,0.300064,1.66527e-05,0
0.1,6.5,0,0.300064,1.66527e-05,0
0.1,6.6,0,0.300064,1.66527e-05,0
0.1,6.7,0,0.30002,1.46615e-05,0
0.1,6.8,0,0.300041,1.76633e-05,0
0.1,6.9,0,0.300041,1.76633e-05,0
0.1,7,0,0.299998,1.89781e-05,0
0.1,7.1,0,0.300022,1.7481e-05,0
0.1,7.2,0,0.300022,1.7481e-05,0
0.1,7.3,0,0.300016,1.96771e-05,0
0.1,7.4,0,0.300009,1.7624e-05,0
0.1,7.5,0,0.300009,1.7624e-05,0
0.1,7.6,0,0.300009,1.7624e-05,0
0.1,7.7,0,0.299998,2.71813e-05,0
0.1,7.8,0,0.300001,1.90575e-05,0
0.1,7.9,0,0.300001,1.90575e-05,0
0.1,8,0,0.299996,3.72903e-05,0
0.1,8.1,0,0.299997,2.22029e-05,0
0.1,8.2,0,0.299997,2.22029e-05,0
0.1,8.3,0,0.299997,2.54558e-05,0
0.1,8.4,0,0.299996,2.69873e-05,0
0.1,8.5,0,0.299996,2.69873e-05,0
0.1,8.6,0,0.299996,2.69873e-05,0
0.1,8.7,0,0.299995,4.54858e-05,0
0.1,8.8,0,0.299995,3.30197e-05,0
0.1,8.9,0,0.299995,3.30197e-05,0
0.1,9,0,0.299995,5.10143e-05,0
0.1,9.1,0,0.299996,3.97914e-05,0
0.1,9.2,0,0.299996,3.97914e-05,0
0.1,9.3,0,0.299996,4.04824e-05,0
0.1,9.4,0,0.299996,4.72961e-05,0
0.1,9.5,0,0.299996,4.68148e-05,0
0.1,9.6,0,0.299996,4.68148e-05,0
0.1,9.7,0,0.299995,6.31602e-05,0
0.1,9.8,0,0.299997,5.36862e-05,0
0.1,9.9,0,0.299997,5.36862e-05,0
0.1,10,0,0.299996,6.41319e-05,0
0.1,10.1,0,0.299998,6.01028e-05,0
0.1,10.2,0,0.299998,6.01028e-05,0
0.1,10.3,0,0.299998,6.01028e-05,0
0.1,10.4,0,0.299998,6.69002e-05,0
0.1,10.5,0,0.299998,6.58588e-05,0
0.1,10.6,0,0.299998,6.58588e-05,0
0.1,10.7,0,0.299997,7.57888e-05,0
0.1,10.8,0,0.299998,7.08314e-05,0
0.1,10.9,0,0.299998,7.08314e-05,0
0.1,11,0,0.299998,7.52891e-05,0
0.1,11.1,0,0.299999,7.49612e-05,0
0.1,11.2,0,0.299999,7.49612e-05,0
0.1,11.3,0,0.299999,7.49612e-05,0
0.1,11.4,0,0.299999,7.89824e-05,0
0.1,11.5,0,0.299999,7.82354e-05,0
0.1,11.6,0,0.299999,7.82354e-05,0
0.1,11.7,0,0.299998,8.29696e-05,0
0.1,11.8,0,0.3,8.06643e-05,0
0.1,11.9,0,0.3,8.06643e-05,0
0.1,12,0,0.299999,8.22287e-05,0
0.1,12.1,0,0.3,8.22655e-05,0
0.1,12.2,0,0.3,8.22655e-05,0
0.1,12.3,0,0.3,8.22655e-05,0
0.1,12.4,0,0.3,8.37398e-05,0
0.1,12.5,0,0.3,0.000114652,0
0.1,12.6,0,0.3,0.000152478,0
0.1,12.7,0,0.3,0.000192594,0
0.2,0,0,0.299998,-0.000263571,0
0.2,0.1,0,0.299998,-0.000179122,0
0.2,0.2,0,0.299998,-0.000160763,0
0.2,0.3,0,0.299998,-0.00015982,0
0.2,0.4,0,0.299997,-0.000145345,0
0.2,0.5,0,0.299998,-0.000185767,0
0.2,0.6,0,0.299995,-0.000142695,0
0.2,0.7,0,0.299996,-0.000157223,0
0.2,0.8,0,0.299994,-0.000154761,0
0.2,0.9,0,0.299993,-0.000138908,0
0.2,1,0,0.299995,-0.000182003,0
0.2,1.1,0,0.299991,-0.000134164,0
0.2,1.2,0,0.299993,-0.000149911,0
0.2,1.3,0,0.299991,-0.000146355,0
0.2,1.4,0,0.29999,-0.000128692,0
0.2,1.5,0,0.299994,-0.000175643,0
0.2,1.6,0,0.299988,-0.000122769,0
0.2,1.7,0,0.29999,-0.000139803,0
0.2,1.8,0,0.299989,-0.000135866,0
0.2,1.9,0,0.299986,-0.000116712,0
0.2,2,0,0.299993,-0.000166513,0
0.2,2.1,0,0.299984,-0.000110878,0
0.2,2.2,0,0.299987,-0.000128363,0
0.2,2.3,0,0.299986,-0.000124959,0
0.2,2.4,0,0.299983,-0.000105642,0
0.2,2.5,0,0.299993,-0.000154364,0
0.2,2.6,0,0.299983,-0.000101354,0
0.2,2.7,0,0.299987,-0.000117353,0
0.2,2.8,0,0.299988,-0.000115357,0
0.2,2.9,0,0.299985,-9.82831e-05,0
0.2,3,0,0.299994,-0.000138915,0
0.2,3.1,0,0.29999,-9.65298e-05,0
0.2,3.2,0,0.299992,-0.000108213,0
0.2,3.3,0,0.299998,-0.000107833,0
0.2,3.4,0,0.300001,-9.59446e-05,0
0.2,3.5,0,0.299993,-0.000120086,0
0.2,3.6,0,0.300017,-9.60665e-05,0
0.2,3.7,0,0.300008,-0.000100778,0
0.2,3.8,0,0.300024,-0.000100819,0
0.2,3.9,0,0.300042,-9.61292e-05,0
0.2,4,0,0.299989,-9.83696e-05,0
0.2,4.1,0,0.300073,-9.51243e-05,0
0.2,4.2,0,0.300042,-9.2194e-05,0
0.2,4.3,0,0.300065,-9.0166e-05,0
0.2,4.4,0,0.300108,-9.20043e-05,0
0.2,4.5,0,0.29998,-7.47713e-05,0
0.2,4.6,0,0.300143,-8.62178e-05,0
0.2,4.7,0,0.300085,-7.79538e-05,0
0.2,4.8,0,0.300106,-7.21718e-05,0
0.2,4.9,0,0.300176,-7.73225e-05,0
0.2,5,0,0.299972,-5.28823e-05,0
0.2,5.1,0,0.29997,-4.74426e-05,0
0.2,5.2,0,0.299969,-4.37381e-05,0
0.2,5.3,0,0.299968,-4.00639e-05,0
0.2,5.4,0,0.299967,-3.63708e-05,0
0.2,5.5,0,0.299967,-3.26684e-05,0
0.2,5.6,0,0.299967,-2.89632e-05,0
0.2,5.7,0,0.299968,-2.52653e-05,0
0.2,5.8,0,0.299969,-2.15907e-05,0
0.2,5.9,0,0.29997,-1.78761e-05,0
0.2,6,0,0.299972,-1.13728e-05,0
0.2,6.1,0,0.300165,2.8064e-05,0
0.2,6.2,0,0.30017,2.92774e-05,0
0.2,6.3,0,0.300043,1.17715e-05,0
0.2,6.4,0,0.300072,2.20261e-05,0
0.2,6.5,0,0.300127,3.33055e-05,0
0.2,6.6,0,0.300081,2.93441e-05,0
0.2,6.7,0,0.300012,2.51419e-05,0
0.2,6.8,0,0.300082,3.53266e-05,0
0.2,6.9,0,0.300082,3.53266e-05,0
0.2,7,0,0.299992,3.80975e-05,0
0.2,7.1,0,0.30004,3.52188e-05,0
0.2,7.2,0,0.300044,3.49621e-05,0
0.2,7.3,0,0.300011,4.6967e-05,0
0.2,7.4,0,0.300006,4.3327e-05,0
0.2,7.5,0,0.300017,3.52479e-05,0
0.2,7.6,0,0.30001,4.46236e-05,0
0.2,7.7,0,0.299993,6.20154e-05,0
0.2,7.8,0,0.300002,3.8115e-05,0
0.2,7.9,0,0.300002,3.8115e-05,0
0.2,8,0,0.299991,7.897e-05,0
0.2,8.1,0,0.299993,4.93476e-05,0
0.2,8.2,0,0.299994,4.44057e-05,0
0.2,8.3,0,0.299991,7.32991e-05,0
0.2,8.4,0,0.299991,7.34299e-05,0
0.2,8.5,0,0.299991,5.39746e-05,0
0.2,8.6,0,0.299991,6.57972e-05,0
0.2,8.7,0,0.299989,9.8877e-05,0
0.2,8.8,0,0.299991,6.60394e-05,0
0.2,8.9,0,0.299991,6.60394e-05,0
0.2,9,0,0.299989,0.000109416,0
0.2,9.1,0,0.299991,8.61102e-05,0
0.2,9.2,0,0.299992,7.95828e-05,0
0.2,9.3,0,0.299991,0.000103422,0
0.2,9.4,0,0.299991,0.000110236,0
0.2,9.5,0,0.299993,9.36295e-05,0
0.2,9.6,0,0.299992,0.000100727,0
0.2,9.7,0,0.29999,0.00013021,0
0.2,9.8,0,0.299994,0.000107372,0
0.2,9.9,0,0.299994,0.000107372,0
0.2,10,0,0.299991,0.000134888,0
0.2,10.1,0,0.299994,0.000124976,0
0.2,10.2,0,0.299995,0.000120206,0
0.2,10.3,0,0.299993,0.000133233,0
0.2,10.4,0,0.299994,0.000140968,0
0.2,10.5,0,0.299996,0.000131718,0
0.2,10.6,0,0.299996,0.00013454,0
0.2,10.7,0,0.299993,0.000152771,0
0.2,10.8,0,0.299997,0.000141663,0
0.2,10.9,0,0.299997,0.000141663,0
0.2,11,0,0.299995,0.000154777,0
0.2,11.1,0,0.299997,0.000152389,0
0.2,11.2,0,0.299998,0.000149922,0
0.2,11.3,0,0.299997,0.000155448,0
0.2,11.4,0,0.299997,0.000160554,0
0.2,11.5,0,0.299999,0.000156471,0
0.2,11.6,0,0.299999,0.000157252,0
0.2,11.7,0,0.299996,0.000166187,0
0.2,11.8,0,0.299999,0.000161329,0
0.2,11.9,0,0.299999,0.000161329,0
0.2,12,0,0.299998,0.000166636,0
0.2,12.1,0,0.299999,0.000165906,0
0.2,12.2,0,0.299999,0.000164531,0
0.2,12.3,0,0.299999,0.000166648,0
0.2,12.4,0,0.299999,0.00016887,0
0.2,12.5,0,0.3,0.000178241,0
0.2,12.6,0,0.3,0.000216203,0
0.2,12.7,0,0.299999,0.000258474,0
0.3,0,0,0.299998,-0.000340063,0
0.3,0.1,0,0.299997,-0.00024355,0
0.3,0.2,0,0.299998,-0.000254114,0
0.3,0.3,0,0.299997,-0.00025317,0
0.3,0.4,0,0.299996,-0.000226102,0
0.3,0.5,0,0.299996,-0.000278651,0
0.3,0.6,0,0.299993,-0.000222657,0
0.3,0.7,0,0.299994,-0.000249324,0
0.3,0.8,0,0.299993,-0.000246863,0
0.3,0.9,0,0.29999,-0.000216981,0
0.3,1,0,0.299993,-0.000273004,0
0.3,1.1,0,0.299988,-0.000210813,0
0.3,1.2,0,0.29999,-0.000239489,0
0.3,1.3,0,0.299989,-0.000235933,0
0.3,1.4,0,0.299985,-0.000202429,0
0.3,1.5,0,0.299991,-0.000263465,0
0.3,1.6,0,0.299983,-0.000194728,0
0.3,1.7,0,0.299987,-0.000225522,0
0.3,1.8,0,0.299985,-0.000221586,0
0.3,1.9,0,0.29998,-0.000185028,0
0.3,2,0,0.29999,-0.00024977,0
0.3,2.1,0,0.299978,-0.000177444,0
0.3,2.2,0,0.299984,-0.00020878,0
0.3,2.3,0,0.299983,-0.000205376,0
0.3,2.4,0,0.299976,-0.000168207,0
0.3,2.5,0,0.29999,-0.000231545,0
0.3,2.6,0,0.299976,-0.000162633,0
0.3,2.7,0,0.299984,-0.000190886,0
0.3,2.8,0,0.299985,-0.00018889,0
0.3,2.9,0,0.299979,-0.000155551,0
0.3,3,0,0.299991,-0.000208373,0
0.3,3.1,0,0.299986,-0.000153272,0
0.3,3.2,0,0.299988,-0.000173168,0
0.3,3.3,0,0.299995,-0.000172788,0
0.3,3.4,0,0.299999,-0.000148745,0
0.3,3.5,0,0.29999,-0.000180129,0
0.3,3.6,0,0.300021,-0.000148904,0
0.3,3.7,0,0.300004,-0.000155542,0
0.3,3.8,0,0.30002,-0.000155582,0
0.3,3.9,0,0.300052,-0.000144642,0
0.3,4,0,0.299983,-0.000147554,0
0.3,4.1,0,0.300092,-0.000143336,0
0.3,4.2,0,0.300034,-0.00013557,0
0.3,4.3,0,0.300057,-0.000133542,0
0.3,4.4,0,0.300136,-0.00013456,0
0.3,4.5,0,0.29997,-0.000112157,0
0.3,4.6,0,0.300182,-0.000127037,0
0.3,4.7,0,0.300072,-0.000109257,0
0.3,4.8,0,0.300094,-0.000103475,0
0.3,4.9,0,0.300223,-0.000111096,0
0.3,5,0,0.299958,-7.93235e-05,0
0.3,5.1,0,0.299955,-7.11638e-05,0
0.3,5.2,0,0.299953,-6.56072e-05,0
0.3,5.3,0,0.299952,-6.00958e-05,0
0.3,5.4,0,0.299951,-5.45562e-05,0
0.3,5.5,0,0.299951,-4.90026e-05,0
0.3,5.6,0,0.299951,-4.34447e-05,0
0.3,5.7,0,0.299952,-3.78979e-05,0
0.3,5.8,0,0.299953,-3.2386e-05,0
0.3,5.9,0,0.299955,-2.68141e-05,0
0.3,6,0,0.299958,-1.70591e-05,0
0.3,6.1,0,0.300151,2.23776e-05,0
0.3,6.2,0,0.300219,3.88721e-05,0
0.3,6.3,0,0.300031,1.31572e-05,0
0.3,6.4,0,0.30006,2.34118e-05,0
0.3,6.5,0,0.300191,4.99582e-05,0
0.3,6.6,0,0.300072,3.98245e-05,0
0.3,6.7,0,0.300003,3.56223e-05,0
0.3,6.8,0,0.300099,4.95593e-05,0
0.3,6.9,0,0.300077,5.43917e-05,0
0.3,7,0,0.299985,5.72168e-05,0
0.3,7.1,0,0.300033,5.43382e-05,0
0.3,7.2,0,0.300059,5.52248e-05,0
0.3,7.3,0,0.300006,7.4257e-05,0
0.3,7.4,0,0.3,7.0617e-05,0
0.3,7.5,0,0.300026,5.28719e-05,0
0.3,7.6,0,0.300005,7.94577e-05,0
0.3,7.7,0,0.299988,9.68495e-05,0
0.3,7.8,0,0.299999,6.62382e-05,0
0.3,7.9,0,0.299998,7.67559e-05,0
0.3,8,0,0.299986,0.00012065,0
0.3,8.1,0,0.299988,9.10273e-05,0
0.3,8.2,0,0.29999,7.13923e-05,0
0.3,8.3,0,0.299986,0.000121143,0
0.3,8.4,0,0.299985,0.000121273,0
0.3,8.5,0,0.299987,8.09619e-05,0
0.3,8.6,0,0.299985,0.000119188,0
0.3,8.7,0,0.299984,0.000152268,0
0.3,8.8,0,0.299986,0.000112741,0
0.3,8.9,0,0.299985,0.000118569,0
0.3,9,0,0.299984,0.000167817,0
0.3,9.1,0,0.299986,0.000144512,0
0.3,9.2,0,0.299988,0.000121447,0
0.3,9.3,0,0.299985,0.000166362,0
0.3,9.4,0,0.299985,0.000173175,0
0.3,9.5,0,0.299989,0.000141888,0
0.3,9.6,0,0.299987,0.000167776,0
0.3,9.7,0,0.299985,0.000197259,0
0.3,9.8,0,0.299989,0.00017133,0
0.3,9.9,0,0.29999,0.000172523,0
0.3,10,0,0.299986,0.000205644,0
0.3,10.1,0,0.299989,0.000195732,0
0.3,10.2,0,0.299993,0.000180308,0
0.3,10.3,0,0.299989,0.000207301,0
0.3,10.4,0,0.299989,0.000215036,0
0.3,10.5,0,0.299994,0.000199108,0
0.3,10.6,0,0.299992,0.000211522,0
0.3,10.7,0,0.299989,0.000229753,0
0.3,10.8,0,0.299994,0.000217819,0
0.3,10.9,0,0.299995,0.000217469,0
0.3,11,0,0.299992,0.000234266,0
0.3,11.1,0,0.299994,0.000231877,0
0.3,11.2,0,0.299997,0.000224884,0
0.3,11.3,0,0.299994,0.00023702,0
0.3,11.4,0,0.299994,0.000242126,0
0.3,11.5,0,0.299998,0.000235652,0
0.3,11.6,0,0.299997,0.000240469,0
0.3,11.7,0,0.299995,0.000249404,0
0.3,11.8,0,0.299998,0.000244451,0
0.3,11.9,0,0.299999,0.000243781,0
0.3,12,0,0.299997,0.000251044,0
0.3,12.1,0,0.299998,0.000250314,0
0.3,12.2,0,0.299999,0.000246797,0
0.3,12.3,0,0.299999,0.000251778,0
0.3,12.4,0,0.299999,0.000254001,0
0.3,12.5,0,0.3,0.000250028,0
0.3,12.6,0,0.3,0.000282082,0
0.3,12.7,0,0.299999,0.000324353,0
0.4,0,0,0.299998,-0.000416555,0
0.4,0.1,0,0.299997,-0.000323739,0
0.4,0.2,0,0.299997,-0.000347464,0
0.4,0.3,0,0.299996,-0.00034652,0
0.4,0.4,0,0.299994,-0.000321054,0
0.4,0.5,0,0.299995,-0.000371535,0
0.4,0.6,0,0.299992,-0.000317616,0
0.4,0.7,0,0.299992,-0.000341426,0
0.4,0.8,0,0.299991,-0.000338964,0
0.4,0.9,0,0.299988,-0.000310247,0
0.4,1,0,0.299991,-0.000364005,0
0.4,1.1,0,0.299986,-0.000304064,0
0.4,1.2,0,0.299987,-0.000329068,0
0.4,1.3,0,0.299986,-0.000325511,0
0.4,1.4,0,0.299982,-0.000292774,0
0.4,1.5,0,0.299988,-0.000351287,0
0.4,1.6,0,0.29998,-0.000284983,0
0.4,1.7,0,0.299983,-0.000311242,0
0.4,1.8,0,0.299982,-0.000307305,0
0.4,1.9,0,0.299977,-0.000271021,0
0.4,2,0,0.299987,-0.000333026,0
0.4,2.1,0,0.299975,-0.000263199,0
0.4,2.2,0,0.29998,-0.000289196,0
0.4,2.3,0,0.29998,-0.000285793,0
0.4,2.4,0,0.299973,-0.000248149,0
0.4,2.5,0,0.299987,-0.000308727,0
0.4,2.6,0,0.299974,-0.0002421,0
0.4,2.7,0,0.29998,-0.000264419,0
0.4,2.8,0,0.299982,-0.000262423,0
0.4,2.9,0,0.299976,-0.000227448,0
0.4,3,0,0.299988,-0.000277831,0
0.4,3.1,0,0.299983,-0.000224399,0
0.4,3.2,0,0.299986,-0.000238123,0
0.4,3.3,0,0.299992,-0.000237743,0
0.4,3.4,0,0.299996,-0.000210486,0
0.4,3.5,0,0.299986,-0.000240172,0
0.4,3.6,0,0.300016,-0.000209619,0
0.4,3.7,0,0.3,-0.000210305,0
0.4,3.8,0,0.300016,-0.000210346,0
0.4,3.9,0,0.300044,-0.000194497,0
0.4,4,0,0.299978,-0.000196739,0
0.4,4.1,0,0.300082,-0.000192102,0
0.4,4.2,0,0.300027,-0.000178946,0
0.4,4.3,0,0.30005,-0.000176918,0
0.4,4.4,0,0.30012,-0.000171683,0
0.4,4.5,0,0.299961,-0.000149543,0
0.4,4.6,0,0.300164,-0.000163243,0
0.4,4.7,0,0.30006,-0.00014056,0
0.4,4.8,0,0.300081,-0.000134778,0
0.4,4.9,0,0.300199,-0.000136801,0
0.4,5,0,0.299943,-0.000105765,0
0.4,5.1,0,0.299939,-9.48851e-05,0
0.4,5.2,0,0.299937,-8.74763e-05,0
0.4,5.3,0,0.299936,-8.01278e-05,0
0.4,5.4,0,0.299935,-7.27415e-05,0
0.4,5.5,0,0.299934,-6.53367e-05,0
0.4,5.6,0,0.299935,-5.79263e-05,0
0.4,5.7,0,0.299936,-5.05306e-05,0
0.4,5.8,0,0.299938,-4.31814e-05,0
0.4,5.9,0,0.29994,-3.57522e-05,0
0.4,6,0,0.299944,-2.27455e-05,0
0.4,6.1,0,0.300137,1.66912e-05,0
0.4,6.2,0,0.300195,3.78309e-05,0
0.4,6.3,0,0.30002,1.45429e-05,0
0.4,6.4,0,0.300049,2.47974e-05,0
0.4,6.5,0,0.300144,5.00902e-05,0
0.4,6.6,0,0.300064,5.03049e-05,0
0.4,6.7,0,0.299994,4.61027e-05,0
0.4,6.8,0,0.300089,6.00723e-05,0
0.4,6.9,0,0.300071,7.3511e-05,0
0.4,7,0,0.299979,7.63362e-05,0
0.4,7.1,0,0.300027,7.34575e-05,0
0.4,7.2,0,0.300047,8.28693e-05,0
0.4,7.3,0,0.3,0.000101547,0
0.4,7.4,0,0.299995,9.79069e-05,0
0.4,7.5,0,0.300014,8.95551e-05,0
0.4,7.6,0,0.3,0.000114292,0
0.4,7.7,0,0.299984,0.000131684,0
0.4,7.8,0,0.299995,0.000101072,0
0.4,7.9,0,0.299993,0.000118436,0
0.4,8,0,0.299981,0.000162329,0
0.4,8.1,0,0.299984,0.000132707,0
0.4,8.2,0,0.299985,0.00012534,0
0.4,8.3,0,0.299981,0.000168986,0
0.4,8.4,0,0.29998,0.000169117,0
0.4,8.5,0,0.299981,0.000142049,0
0.4,8.6,0,0.29998,0.00017258,0
0.4,8.7,0,0.299979,0.000205659,0
0.4,8.8,0,0.29998,0.000166133,0
0.4,8.9,0,0.29998,0.00017697,0
0.4,9,0,0.299978,0.000226219,0
0.4,9.1,0,0.29998,0.000202913,0
0.4,9.2,0,0.299982,0.000192025,0
0.4,9.3,0,0.29998,0.000229301,0
0.4,9.4,0,0.29998,0.000236115,0
0.4,9.5,0,0.299983,0.000213133,0
0.4,9.6,0,0.299982,0.000234826,0
0.4,9.7,0,0.29998,0.000264309,0
0.4,9.8,0,0.299984,0.00023838,0
0.4,9.9,0,0.299985,0.000243279,0
0.4,10,0,0.299982,0.0002764,0
0.4,10.1,0,0.299985,0.000266488,0
0.4,10.2,0,0.299987,0.000259678,0
0.4,10.3,0,0.299985,0.000281368,0
0.4,10.4,0,0.299985,0.000289104,0
0.4,10.5,0,0.299989,0.000276662,0
0.4,10.6,0,0.299989,0.000288504,0
0.4,10.7,0,0.299986,0.000306735,0
0.4,10.8,0,0.29999,0.000294801,0
0.4,10.9,0,0.299991,0.000296957,0
0.4,11,0,0.299988,0.000313754,0
0.4,11.1,0,0.299991,0.000311366,0
0.4,11.2,0,0.299994,0.000308501,0
0.4,11.3,0,0.299992,0.000318591,0
0.4,11.4,0,0.299992,0.000323698,0
0.4,11.5,0,0.299995,0.000318302,0
0.4,11.6,0,0.299995,0.000323686,0
0.4,11.7,0,0.299993,0.000332621,0
0.4,11.8,0,0.299996,0.000327668,0
0.4,11.9,0,0.299997,0.000328246,0
0.4,12,0,0.299996,0.000335452,0
0.4,12.1,0,0.299996,0.000334721,0
0.4,12.2,0,0.299998,0.000332852,0
0.4,12.3,0,0.299998,0.000336908,0
0.4,12.4,0,0.299998,0.000339131,0
0.4,12.5,0,0.299999,0.000335432,0
0.4,12.6,0,0.299999,0.000347961,0
0.4,12.7,0,0.299999,0.000390232,0
0.5,0,0,0.299998,-0.000493047,0
0.5,0.1,0,0.299997,-0.000437196,0
0.5,0.2,0,0.299996,-0.000440814,0
0.5,0.3,0,0.299996,-0.000439871,0
0.5,0.4,0,0.299994,-0.000434615,0
0.5,0.5,0,0.299994,-0.000464418,0
0.5,0.6,0,0.299991,-0.000431253,0
0.5,0.7,0,0.29999,-0.000433527,0
0.5,0.8,0,0.299989,-0.000431066,0
0.5,0.9,0,0.299987,-0.000423896,0
0.5,1,0,0.299989,-0.000455007,0
0.5,1.1,0,0.299985,-0.000417562,0
0.5,1.2,0,0.299985,-0.000418646,0
0.5,1.3,0,0.299983,-0.00041509,0
0.5,1.4,0,0.299982,-0.000405827,0
0.5,1.5,0,0.299985,-0.000439109,0
0.5,1.6,0,0.29998,-0.00039714,0
0.5,1.7,0,0.29998,-0.000396961,0
0.5,1.8,0,0.299979,-0.000393024,0
0.5,1.9,0,0.299978,-0.000381641,0
0.5,2,0,0.299983,-0.000416283,0
0.5,2.1,0,0.299976,-0.000371433,0
0.5,2.2,0,0.299977,-0.000369613,0
0.5,2.3,0,0.299976,-0.00036621,0
0.5,2.4,0,0.299975,-0.000352926,0
0.5,2.5,0,0.299983,-0.000385909,0
0.5,2.6,0,0.299976,-0.000342138,0
0.5,2.7,0,0.299977,-0.000337952,0
0.5,2.8,0,0.299978,-0.000335956,0
0.5,2.9,0,0.299978,-0.000321297,0
0.5,3,0,0.299985,-0.000347288,0
0.5,3.1,0,0.299982,-0.000310546,0
0.5,3.2,0,0.299982,-0.000303078,0
0.5,3.3,0,0.299989,-0.000302698,0
0.5,3.4,0,0.299989,-0.000287512,0
0.5,3.5,0,0.299983,-0.000300214,0
0.5,3.6,0,0.3,-0.000276393,0
0.5,3.7,0,0.299996,-0.000265069,0
0.5,3.8,0,0.300012,-0.00026511,0
0.5,3.9,0,0.300013,-0.000250381,0
0.5,4,0,0.299972,-0.000245924,0
0.5,4.1,0,0.300033,-0.0002371,0
0.5,4.2,0,0.300019,-0.000222322,0
0.5,4.3,0,0.300042,-0.000220294,0
0.5,4.4,0,0.300049,-0.000206442,0
0.5,4.5,0,0.299951,-0.000186928,0
0.5,4.6,0,0.30007,-0.000188822,0
0.5,4.7,0,0.300048,-0.000171863,0
0.5,4.8,0,0.300069,-0.000166081,0
0.5,4.9,0,0.300085,-0.000155884,0
0.5,5,0,0.299929,-0.000132206,0
0.5,5.1,0,0.299924,-0.000118606,0
0.5,5.2,0,0.299922,-0.000109345,0
0.5,5.3,0,0.29992,-0.00010016,0
0.5,5.4,0,0.299918,-9.09269e-05,0
0.5,5.5,0,0.299918,-8.16709e-05,0
0.5,5.6,0,0.299918,-7.24079e-05,0
0.5,5.7,0,0.29992,-6.31632e-05,0
0.5,5.8,0,0.299922,-5.39767e-05,0
0.5,5.9,0,0.299925,-4.46902e-05,0
0.5,6,0,0.29993,-2.84319e-05,0
0.5,6.1,0,0.30008,5.16954e-06,0
0.5,6.2,0,0.300085,1.88914e-05,0
0.5,6.3,0,0.300008,1.59286e-05,0
0.5,6.4,0,0.300037,2.61831e-05,0
0.5,6.5,0,0.30006,4.53036e-05,0
0.5,6.6,0,0.300055,6.07853e-05,0
0.5,6.7,0,0.299986,5.65831e-05,0
0.5,6.8,0,0.300033,7.20087e-05,0
0.5,6.9,0,0.300037,8.87709e-05,0
0.5,7,0,0.299972,9.54555e-05,0
0.5,7.1,0,0.300011,9.59441e-05,0
0.5,7.2,0,0.300013,0.000111798,0
0.5,7.3,0,0.299995,0.000128837,0
0.5,7.4,0,0.29999,0.000125197,0
0.5,7.5,0,0.299995,0.000134055,0
0.5,7.6,0,0.299995,0.000149126,0
0.5,7.7,0,0.299979,0.000166518,0
0.5,7.8,0,0.299984,0.00015684,0
0.5,7.9,0,0.299984,0.000170123,0
0.5,8,0,0.299977,0.000204009,0
0.5,8.1,0,0.299978,0.000180701,0
0.5,8.2,0,0.299978,0.000192661,0
0.5,8.3,0,0.299976,0.000216829,0
0.5,8.4,0,0.299975,0.00021696,0
0.5,8.5,0,0.299975,0.000216296,0
0.5,8.6,0,0.299975,0.00022706,0
0.5,8.7,0,0.299973,0.000259051,0
0.5,8.8,0,0.299974,0.000240549,0
0.5,8.9,0,0.299974,0.000250271,0
0.5,9,0,0.299973,0.00028462,0
0.5,9.1,0,0.299975,0.00026477,0
0.5,9.2,0,0.299975,0.000273575,0
0.5,9.3,0,0.299974,0.000292241,0
0.5,9.4,0,0.299975,0.000299055,0
0.5,9.5,0,0.299976,0.000296308,0
0.5,9.6,0,0.299976,0.000304282,0
0.5,9.7,0,0.299975,0.000331359,0
0.5,9.8,0,0.299978,0.000317914,0
0.5,9.9,0,0.299978,0.000325105,0
0.5,10,0,0.299977,0.000347156,0
0.5,10.1,0,0.29998,0.000337973,0
0.5,10.2,0,0.299981,0.000344399,0
0.5,10.3,0,0.299981,0.000355436,0
0.5,10.4,0,0.299981,0.000363172,0
0.5,10.5,0,0.299983,0.000361854,0
0.5,10.6,0,0.299984,0.000367508,0
0.5,10.7,0,0.299982,0.000383718,0
0.5,10.8,0,0.299985,0.000377275,0
0.5,10.9,0,0.299986,0.000382137,0
0.5,11,0,0.299985,0.000393243,0
0.5,11.1,0,0.299988,0.000390854,0
0.5,11.2,0,0.299989,0.0003946,0
0.5,11.3,0,0.299989,0.000400163,0
0.5,11.4,0,0.299989,0.00040527,0
0.5,11.5,0,0.299991,0.000404856,0
0.5,11.6,0,0.299992,0.000408049,0
0.5,11.7,0,0.299991,0.000415838,0
0.5,11.8,0,0.299993,0.000412896,0
0.5,11.9,0,0.299995,0.000415206,0
0.5,12,0,0.299994,0.000419859,0
0.5,12.1,0,0.299995,0.000419129,0
0.5,12.2,0,0.299996,0.000420125,0
0.5,12.3,0,0.299997,0.000422039,0
0.5,12.4,0,0.299997,0.000424261,0
0.5,12.5,0,0.299998,0.000422853,0
0.5,12.6,0,0.299999,0.000423325,0
0.5,12.7,0,0.299998,0.000456111,0
0.6,0,0,0.299998,-0.000569539,0
0.6,0.1,0,0.299997,-0.000550654,0
0.6,0.2,0,0.299996,-0.00055025,0
0.6,0.3,0,0.299995,-0.00054939,0
0.6,0.4,0,0.299994,-0.000548177,0
0.6,0.5,0,0.299993,-0.000557302,0
0.6,0.6,0,0.299991,-0.000544891,0
0.6,0.7,0,0.299989,-0.000542858,0
0.6,0.8,0,0.299988,-0.000540405,0
0.6,0.9,0,0.299987,-0.000537545,0
0.6,1,0,0.299986,-0.000546008,0
0.6,1.1,0,0.299985,-0.00053106,0
0.6,1.2,0,0.299984,-0.00052736,0
0.6,1.3,0,0.299983,-0.000523448,0
0.6,1.4,0,0.299982,-0.000518881,0
0.6,1.5,0,0.299982,-0.00052693,0
0.6,1.6,0,0.29998,-0.000509297,0
0.6,1.7,0,0.299979,-0.00050383,0
0.6,1.8,0,0.299979,-0.000498664,0
0.6,1.9,0,0.299978,-0.000492261,0
0.6,2,0,0.29998,-0.000499539,0
0.6,2.1,0,0.299978,-0.000479667,0
0.6,2.2,0,0.299977,-0.000472284,0
0.6,2.3,0,0.299977,-0.000466115,0
0.6,2.4,0,0.299977,-0.000457704,0
0.6,2.5,0,0.29998,-0.000463091,0
0.6,2.6,0,0.299978,-0.000442176,0
0.6,2.7,0,0.299978,-0.000432689,0
0.6,2.8,0,0.299979,-0.000425742,0
0.6,2.9,0,0.29998,-0.000415146,0
0.6,3,0,0.299982,-0.000416746,0
0.6,3.1,0,0.299981,-0.000396694,0
0.6,3.2,0,0.299981,-0.000384987,0
0.6,3.3,0,0.299983,-0.000377309,0
0.6,3.4,0,0.299982,-0.000364538,0
0.6,3.5,0,0.29998,-0.000360257,0
0.6,3.6,0,0.299984,-0.000343166,0
0.6,3.7,0,0.299982,-0.000329441,0
0.6,3.8,0,0.299986,-0.00032077,0
0.6,3.9,0,0.299982,-0.000306265,0
0.6,4,0,0.299966,-0.000295109,0
0.6,4.1,0,0.299983,-0.000282099,0
0.6,4.2,0,0.299978,-0.000266996,0
0.6,4.3,0,0.299984,-0.000256777,0
0.6,4.4,0,0.299978,-0.000241202,0
0.6,4.5,0,0.299941,-0.000224314,0
0.6,4.6,0,0.299977,-0.000214402,0
0.6,4.7,0,0.29997,-0.000198587,0
0.6,4.8,0,0.299975,-0.000187608,0
0.6,4.9,0,0.29997,-0.000174967,0
0.6,5,0,0.299915,-0.000158647,0
0.6,5.1,0,0.299909,-0.000142328,0
0.6,5.2,0,0.299906,-0.000131214,0
0.6,5.3,0,0.299904,-0.000120192,0
0.6,5.4,0,0.299902,-0.000109112,0
0.6,5.5,0,0.299902,-9.80051e-05,0
0.6,5.6,0,0.299902,-8.68895e-05,0
0.6,5.7,0,0.299904,-7.57958e-05,0
0.6,5.8,0,0.299906,-6.47721e-05,0
0.6,5.9,0,0.29991,-5.36283e-05,0
0.6,6,0,0.299916,-3.41183e-05,0
0.6,6.1,0,0.299969,-1.37699e-05,0
0.6,6.2,0,0.299974,-4.79684e-08,0
0.6,6.3,0,0.299979,1.36739e-05,0
0.6,6.4,0,0.299971,2.28704e-05,0
0.6,6.5,0,0.299976,4.05169e-05,0
0.6,6.6,0,0.299982,5.81633e-05,0
0.6,6.7,0,0.299973,6.7183e-05,0
0.6,6.8,0,0.299977,8.39451e-05,0
0.6,6.9,0,0.299981,0.000100707,0
0.6,7,0,0.299966,0.000114575,0
0.6,7.1,0,0.299977,0.000124872,0
0.6,7.2,0,0.299979,0.000140726,0
0.6,7.3,0,0.299982,0.000156579,0
0.6,7.4,0,0.299976,0.000163917,0
0.6,7.5,0,0.299977,0.000178555,0
0.6,7.6,0,0.299977,0.000193193,0
0.6,7.7,0,0.299974,0.000201352,0
0.6,7.8,0,0.299974,0.000214297,0
0.6,7.9,0,0.299974,0.000227579,0
0.6,8,0,0.299972,0.000245689,0
0.6,8.1,0,0.299971,0.000248021,0
0.6,8.2,0,0.299971,0.000259981,0
0.6,8.3,0,0.29997,0.00027194,0
0.6,8.4,0,0.299969,0.000279779,0
0.6,8.5,0,0.299969,0.000290543,0
0.6,8.6,0,0.299968,0.000301308,0
0.6,8.7,0,0.299968,0.000312442,0
0.6,8.8,0,0.299968,0.000319322,0
0.6,8.9,0,0.299968,0.000329044,0
0.6,9,0,0.299967,0.000343022,0
0.6,9.1,0,0.299968,0.000346319,0
0.6,9.2,0,0.299968,0.000355125,0
0.6,9.3,0,0.299968,0.00036393,0
0.6,9.4,0,0.299969,0.000371508,0
0.6,9.5,0,0.299969,0.000379482,0
0.6,9.6,0,0.29997,0.000387457,0
0.6,9.7,0,0.29997,0.000398408,0
0.6,9.8,0,0.299971,0.000402033,0
0.6,9.9,0,0.299972,0.000409225,0
0.6,10,0,0.299972,0.000417912,0
0.6,10.1,0,0.299973,0.000422695,0
0.6,10.2,0,0.299974,0.000429121,0
0.6,10.3,0,0.299975,0.000435546,0
0.6,10.4,0,0.299976,0.00044139,0
0.6,10.5,0,0.299977,0.000447045,0
0.6,10.6,0,0.299978,0.0004527,0
0.6,10.7,0,0.299978,0.0004607,0
0.6,10.8,0,0.29998,0.000462914,0
0.6,10.9,0,0.299981,0.000467777,0
0.6,11,0,0.299982,0.000472731,0
0.6,11.1,0,0.299983,0.000476657,0
0.6,11.2,0,0.299984,0.000480699,0
0.6,11.3,0,0.299986,0.000484742,0
0.6,11.4,0,0.299986,0.000488217,0
0.6,11.5,0,0.299988,0.00049141,0
0.6,11.6,0,0.299989,0.000494602,0
0.6,11.7,0,0.299989,0.000499056,0
0.6,11.8,0,0.299991,0.000499857,0
0.6,11.9,0,0.299992,0.000502167,0
0.6,12,0,0.299993,0.000504477,0
0.6,12.1,0,0.299994,0.000505995,0
0.6,12.2,0,0.299995,0.000507397,0
0.6,12.3,0,0.299996,0.0005088,0
0.6,12.4,0,0.299997,0.000509802,0
0.6,12.5,0,0.299997,0.000510274,0
0.6,12.6,0,0.299998,0.000510747,0
0.6,12.7,0,0.299998,0.00052199,0
0.7,0,0,0.299997,-0.000654158,0
0.7,0.1,0,0.299997,-0.000664266,0
0.7,0.2,0,0.299996,-0.000663863,0
0.7,0.3,0,0.299995,-0.000663108,0
0.7,0.4,0,0.299993,-0.000661895,0
0.7,0.5,0,0.29999,-0.000649556,0
0.7,0.6,0,0.29999,-0.000658688,0
0.7,0.7,0,0.299989,-0.000656654,0
0.7,0.8,0,0.299987,-0.000654213,0
0.7,0.9,0,0.299986,-0.000651353,0
0.7,1,0,0.299982,-0.000635831,0
0.7,1.1,0,0.299984,-0.000644721,0
0.7,1.2,0,0.299983,-0.000641021,0
0.7,1.3,0,0.299982,-0.000636672,0
0.7,1.4,0,0.299981,-0.000632105,0
0.7,1.5,0,0.299976,-0.000612814,0
0.7,1.6,0,0.29998,-0.000621629,0
0.7,1.7,0,0.299979,-0.000616163,0
0.7,1.8,0,0.299979,-0.000609468,0
0.7,1.9,0,0.299979,-0.000603065,0
0.7,2,0,0.299972,-0.000580066,0
0.7,2.1,0,0.299979,-0.000588095,0
0.7,2.2,0,0.299979,-0.000580712,0
0.7,2.3,0,0.299979,-0.000571096,0
0.7,2.4,0,0.299979,-0.000562685,0
0.7,2.5,0,0.299971,-0.000536993,0
0.7,2.6,0,0.29998,-0.000542425,0
0.7,2.7,0,0.299981,-0.000532938,0
0.7,2.8,0,0.299981,-0.000519806,0
0.7,2.9,0,0.299981,-0.00050921,0
0.7,3,0,0.299972,-0.000482955,0
0.7,3.1,0,0.29998,-0.000483054,0
0.7,3.2,0,0.29998,-0.000471347,0
0.7,3.3,0,0.299977,-0.000454532,0
0.7,3.4,0,0.299976,-0.000441761,0
0.7,3.5,0,0.299969,-0.000417909,0
0.7,3.6,0,0.299968,-0.000410109,0
0.7,3.7,0,0.299966,-0.000396384,0
0.7,3.8,0,0.299956,-0.000376785,0
0.7,3.9,0,0.299952,-0.000362279,0
0.7,4,0,0.299955,-0.000343472,0
0.7,4.1,0,0.299934,-0.000327197,0
0.7,4.2,0,0.299929,-0.000312094,0
0.7,4.3,0,0.299913,-0.000291619,0
0.7,4.4,0,0.299907,-0.000276044,0
0.7,4.5,0,0.29993,-0.00026271,0
0.7,4.6,0,0.299883,-0.000239992,0
0.7,4.7,0,0.299876,-0.000224177,0
0.7,4.8,0,0.29986,-0.00020546,0
0.7,4.9,0,0.299855,-0.000192819,0
0.7,5,0,0.299904,-0.000187154,0
0.7,5.1,0,0.299898,-0.00016771,0
0.7,5.2,0,0.299895,-0.000154248,0
0.7,5.3,0,0.299893,-0.000140856,0
0.7,5.4,0,0.299891,-0.000127398,0
0.7,5.5,0,0.299891,-0.000113906,0
0.7,5.6,0,0.299891,-0.0001004,0
0.7,5.7,0,0.299893,-8.69156e-05,0
0.7,5.8,0,0.299895,-7.34996e-05,0
0.7,5.9,0,0.299898,-5.99548e-05,0
0.7,6,0,0.299905,-3.67617e-05,0
0.7,6.1,0,0.299858,-3.5001e-05,0
0.7,6.2,0,0.299862,-2.12791e-05,0
0.7,6.3,0,0.299867,-7.55718e-06,0
0.7,6.4,0,0.299887,1.83528e-05,0
0.7,6.5,0,0.299893,3.59993e-05,0
0.7,6.6,0,0.299898,5.36457e-05,0
0.7,6.7,0,0.299917,7.93061e-05,0
0.7,6.8,0,0.299922,9.60682e-05,0
0.7,6.9,0,0.299926,0.00011283,0