x,y,z,p
0,0,0,0.000242529
0,0.1,0,0.000533653
0,0.2,0,0.000824778
0,0.3,0,0.00116457
0,0.4,0,0.00155304
0,0.5,0,0.0019415
0,0.6,0,0.00233056
0,0.7,0,0.00271963
0,0.8,0,0.00310908
0,0.9,0,0.00349891
0,1,0,0.00388873
0,1.1,0,0.00427935
0,1.2,0,0.00466995
0,1.3,0,0.00506087
0,1.4,0,0.00545208
0,1.5,0,0.0058433
0,1.6,0,0.00623471
0,1.7,0,0.00662612
0,1.8,0,0.00701729
0,1.9,0,0.00740821
0,2,0,0.00779913
0,2.1,0,0.00818853
0,2.2,0,0.00857794
0,2.3,0,0.0089659
0,2.4,0,0.00935242
0,2.5,0,0.00973894
0,2.6,0,0.0101208
0,2.7,0,0.0105027
0,2.8,0,0.0108811
0,2.9,0,0.0112561
0,3,0,0.0116311
0,3.1,0,0.0119966
0,3.2,0,0.0123621
0,3.3,0,0.0127214
0,3.4,0,0.0130743
0,3.5,0,0.0134272
0,3.6,0,0.0137641
0,3.7,0,0.014101
0,3.8,0,0.0144279
0,3.9,0,0.0147448
0,4,0,0.0150618
0,4.1,0,0.0153547
0,4.2,0,0.0156476
0,4.3,0,0.0159262
0,4.4,0,0.0161907
0,4.5,0,0.0164552
0,4.6,0,0.016687
0,4.7,0,0.0169188
0,4.8,0,0.0171152
0,4.9,0,0.0172763
0,5,0,0.0174374
0,5.1,0,0.0176921
0,5.2,0,0.0178426
0,5.3,0,0.0179757
0,5.4,0,0.0180911
0,5.5,0,0.0181881
0,5.6,0,0.0182665
0,5.7,0,0.0183261
0,5.8,0,0.0183666
0,5.9,0,0.0183878
0,6,0,0.0183896
0,6.1,0,0.0183721
0,6.2,0,0.0183352
0,6.3,0,0.0182791
0,6.4,0,0.0182041
0,6.5,0,0.0181103
0,6.6,0,0.0179982
0,6.7,0,0.017868
0,6.8,0,0.0177204
0,6.9,0,0.0175558
0,7,0,0.0172651
0,7.1,0,0.0170928
0,7.2,0,0.0169205
0,7.3,0,0.0167368
0,7.4,0,0.0164887
0,7.5,0,0.0162405
0,7.6,0,0.0159828
0,7.7,0,0.0157027
0,7.8,0,0.0154226
0,7.9,0,0.0151313
0,8,0,0.0148262
0,8.1,0,0.014521
0,8.2,0,0.0142049
0,8.3,0,0.0138814
0,8.4,0,0.0135579
0,8.5,0,0.0132253
0,8.6,0,0.0128896
0,8.7,0,0.0125539
0,8.8,0,0.0122121
0,8.9,0,0.0118696
0,9,0,0.011527
0,9.1,0,0.0111823
0,9.2,0,0.0108376
0,9.3,0,0.0104932
0,9.4,0,0.0101499
0,9.5,0,0.00980661
0,9.6,0,0.00946478
0,9.7,0,0.00912567
0,9.8,0,0.00878655
0,9.9,0,0.00845048
0,10,0,0.00811746
0,10.1,0,0.00778444
0,10.2,0,0.00745615
0,10.3,0,0.00713042
0,10.4,0,0.00680468
0,10.5,0,0.00648523
0,10.6,0,0.00616734
0,10.7,0,0.00584946
0,10.8,0,0.00553907
0,10.9,0,0.00522908
0,11,0,0.00491983
0,11.1,0,0.00461733
0,11.2,0,0.00431483
0,11.3,0,0.00401402
0,11.4,0,0.00371828
0,11.5,0,0.00342253
0,11.6,0,0.00312908
0,11.7,0,0.00283907
0,11.8,0,0.00254906
0,11.9,0,0.00226154
0,12,0,0.00197604
0,12.1,0,0.00169054
0,12.2,0,0.00140723
0,12.3,0,0.00112486
0,12.4,0,0.000842483
0,12.5,0,0.0006208
0,12.6,0,0.000409827
0,12.7,0,0.000198855
0.1,0,0,0.000145518
0.1,0.1,0,0.000436553
0.1,0.2,0,0.000776153
0.1,0.3,0,0.00116438
0.1,0.4,0,0.0015528
0.1,0.5,0,0.00194123
0.1,0.6,0,0.0023302
0.1,0.7,0,0.00271928
0.1,0.8,0,0.0031087
0.1,0.9,0,0.0034985
0.1,1,0,0.00388838
0.1,1.1,0,0.00427897
0.1,1.2,0,0.00466962
0.1,1.3,0,0.00506061
0.1,1.4,0,0.00545185
0.1,1.5,0,0.00584318
0.1,1.6,0,0.00623475
0.1,1.7,0,0.00662623
0.1,1.8,0,0.0070176
0.1,1.9,0,0.00740866
0.1,2,0,0.00779972
0.1,2.1,0,0.00818959
0.1,2.2,0,0.00857905
0.1,2.3,0,0.00896741
0.1,2.4,0,0.00935426
0.1,2.5,0,0.00974087
0.1,2.6,0,0.0101236
0.1,2.7,0,0.0105055
0.1,2.8,0,0.0108845
0.1,2.9,0,0.0112601
0.1,3,0,0.0116351
0.1,3.1,0,0.0120021
0.1,3.2,0,0.0123675
0.1,3.3,0,0.0127276
0.1,3.4,0,0.0130814
0.1,3.5,0,0.013434
0.1,3.6,0,0.0137731
0.1,3.7,0,0.0141097
0.1,3.8,0,0.0144376
0.1,3.9,0,0.0147558
0.1,4,0,0.015072
0.1,4.1,0,0.0153678
0.1,4.2,0,0.0156601
0.1,4.3,0,0.0159399
0.1,4.4,0,0.016206
0.1,4.5,0,0.0164691
0.1,4.6,0,0.0167044
0.1,4.7,0,0.0169353
0.1,4.8,0,0.0171496
0.1,4.9,0,0.0173296
0.1,5,0,0.0174539
0.1,5.1,0,0.017709
0.1,5.2,0,0.0178599
0.1,5.3,0,0.0179934
0.1,5.4,0,0.0181091
0.1,5.5,0,0.0182064
0.1,5.6,0,0.0182852
0.1,5.7,0,0.0183449
0.1,5.8,0,0.0183856
0.1,5.9,0,0.0184069
0.1,6,0,0.0184087
0.1,6.1,0,0.0183911
0.1,6.2,0,0.0183541
0.1,6.3,0,0.0182978
0.1,6.4,0,0.0182226
0.1,6.5,0,0.0181285
0.1,6.6,0,0.018016
0.1,6.7,0,0.0178854
0.1,6.8,0,0.0177373
0.1,6.9,0,0.0175722
0.1,7,0,0.0172809
0.1,7.1,0,0.0171529
0.1,7.2,0,0.0169736
0.1,7.3,0,0.0167519
0.1,7.4,0,0.0165089
0.1,7.5,0,0.0162575
0.1,7.6,0,0.0159959
0.1,7.7,0,0.015719
0.1,7.8,0,0.0154353
0.1,7.9,0,0.0151418
0.1,8,0,0.0148385
0.1,8.1,0,0.0145298
0.1,8.2,0,0.0142127
0.1,8.3,0,0.01389
0.1,8.4,0,0.0135633
0.1,8.5,0,0.0132303
0.1,8.6,0,0.0128948
0.1,8.7,0,0.0125566
0.1,8.8,0,0.0122145
0.1,8.9,0,0.0118717
0.1,9,0,0.0115277
0.1,9.1,0,0.0111825
0.1,9.2,0,0.0108375
0.1,9.3,0,0.0104924
0.1,9.4,0,0.0101482
0.1,9.5,0,0.00980492
0.1,9.6,0,0.00946271
0.1,9.7,0,0.00912263
0.1,9.8,0,0.0087839
0.1,9.9,0,0.00844744
0.1,10,0,0.00811355
0.1,10.1,0,0.0077813
0.1,10.2,0,0.00745244
0.1,10.3,0,0.00712602
0.1,10.4,0,0.00680143
0.1,10.5,0,0.00648114
0.1,10.6,0,0.00616291
0.1,10.7,0,0.00584639
0.1,10.8,0,0.00553487
0.1,10.9,0,0.00522497
0.1,11,0,0.00491688
0.1,11.1,0,0.00461327
0.1,11.2,0,0.00431126
0.1,11.3,0,0.00401124
0.1,11.4,0,0.00371468
0.1,11.5,0,0.00341962
0.1,11.6,0,0.00312664
0.1,11.7,0,0.00283613
0.1,11.8,0,0.00254687
0.1,11.9,0,0.0022596
0.1,12,0,0.00197384
0.1,12.1,0,0.00168909
0.1,12.2,0,0.00140593
0.1,12.3,0,0.00112349
0.1,12.4,0,0.000841769
0.1,12.5,0,0.000560973
0.1,12.6,0,0.000329858
0.1,12.7,0,0.000119313
0.2,0,0,4.85059e-05
0.2,0.1,0,0.000388017
0.2,0.2,0,0.000776004
0.2,0.3,0,0.00116423
0.2,0.4,0,0.00155257
0.2,0.5,0,0.00194096
0.2,0.6,0,0.00232994
0.2,0.7,0,0.00271893
0.2,0.8,0,0.00310836
0.2,0.9,0,0.00349817
0.2,1,0,0.00388802
0.2,1.1,0,0.00427866
0.2,1.2,0,0.00466933
0.2,1.3,0,0.00506032
0.2,1.4,0,0.0054517
0.2,1.5,0,0.00584306
0.2,1.6,0,0.00623469
0.2,1.7,0,0.00662639
0.2,1.8,0,0.00701777
0.2,1.9,0,0.00740911
0.2,2,0,0.00780031
0.2,2.1,0,0.00819024
0.2,2.2,0,0.00858023
0.2,2.3,0,0.00896858
0.2,2.4,0,0.00935585
0.2,2.5,0,0.00974279
0.2,2.6,0,0.0101256
0.2,2.7,0,0.0105084
0.2,2.8,0,0.0108874
0.2,2.9,0,0.0112635
0.2,3,0,0.0116391
0.2,3.1,0,0.012006
0.2,3.2,0,0.0123728
0.2,3.3,0,0.0127329
0.2,3.4,0,0.0130873
0.2,3.5,0,0.0134408
0.2,3.6,0,0.0137796
0.2,3.7,0,0.0141181
0.2,3.8,0,0.014446
0.2,3.9,0,0.0147647
0.2,4,0,0.0150822
0.2,4.1,0,0.0153774
0.2,4.2,0,0.0156722
0.2,4.3,0,0.0159519
0.2,4.4,0,0.0162183
0.2,4.5,0,0.016483
0.2,4.6,0,0.0167174
0.2,4.7,0,0.0169509
0.2,4.8,0,0.0171652
0.2,4.9,0,0.0173272
0.2,5,0,0.0174704
0.2,5.1,0,0.017726
0.2,5.2,0,0.0178773
0.2,5.3,0,0.0180111
0.2,5.4,0,0.0181272
0.2,5.5,0,0.0182248
0.2,5.6,0,0.0183038
0.2,5.7,0,0.0183638
0.2,5.8,0,0.0184046
0.2,5.9,0,0.018426
0.2,6,0,0.0184278
0.2,6.1,0,0.0184102
0.2,6.2,0,0.018373
0.2,6.3,0,0.0183166
0.2,6.4,0,0.018241
0.2,6.5,0,0.0181466
0.2,6.6,0,0.0180337
0.2,6.7,0,0.0179028
0.2,6.8,0,0.0177542
0.2,6.9,0,0.0175886
0.2,7,0,0.0172966
0.2,7.1,0,0.017149
0.2,7.2,0,0.0169755
0.2,7.3,0,0.0167663
0.2,7.4,0,0.0165191
0.2,7.5,0,0.0162688
0.2,7.6,0,0.0160078
0.2,7.7,0,0.015727
0.2,7.8,0,0.0154446
0.2,7.9,0,0.0151511
0.2,8,0,0.0148444
0.2,8.1,0,0.0145366
0.2,8.2,0,0.0142194
0.2,8.3,0,0.0138938
0.2,8.4,0,0.0135678
0.2,8.5,0,0.0132343
0.2,8.6,0,0.0128968
0.2,8.7,0,0.012559
0.2,8.8,0,0.0122165
0.2,8.9,0,0.0118725
0.2,9,0,0.0115285
0.2,9.1,0,0.0111829
0.2,9.2,0,0.010837
0.2,9.3,0,0.0104918
0.2,9.4,0,0.0101475
0.2,9.5,0,0.00980334
0.2,9.6,0,0.00946106
0.2,9.7,0,0.00912119
0.2,9.8,0,0.00878153
0.2,9.9,0,0.00844508
0.2,10,0,0.0081116
0.2,10.1,0,0.0077785
0.2,10.2,0,0.00744974
0.2,10.3,0,0.00712383
0.2,10.4,0,0.00679843
0.2,10.5,0,0.00647845
0.2,10.6,0,0.00616056
0.2,10.7,0,0.00584338
0.2,10.8,0,0.0055324
0.2,10.9,0,0.00522254
0.2,11,0,0.00491403
0.2,11.1,0,0.00461115
0.2,11.2,0,0.0043089
0.2,11.3,0,0.00400869
0.2,11.4,0,0.00371288
0.2,11.5,0,0.00341748
0.2,11.6,0,0.00312448
0.2,11.7,0,0.00283469
0.2,11.8,0,0.00254517
0.2,11.9,0,0.0022579
0.2,12,0,0.00197284
0.2,12.1,0,0.00168791
0.2,12.2,0,0.00140484
0.2,12.3,0,0.00112296
0.2,12.4,0,0.000841155
0.2,12.5,0,0.000560478
0.2,12.6,0,0.000280271
0.2,12.7,0,3.97709e-05
0.3,0,0,0
0.3,0.1,0,0.000387858
0.3,0.2,0,0.000775845
0.3,0.3,0,0.00116379
0.3,0.4,0,0.00155214
0.3,0.5,0,0.00194039
0.3,0.6,0,0.0023293
0.3,0.7,0,0.00271829
0.3,0.8,0,0.00310762
0.3,0.9,0,0.00349744
0.3,1,0,0.00388726
0.3,1.1,0,0.00427796
0.3,1.2,0,0.00466864
0.3,1.3,0,0.00505985
0.3,1.4,0,0.00545124
0.3,1.5,0,0.00584277
0.3,1.6,0,0.00623468
0.3,1.7,0,0.00662638
0.3,1.8,0,0.00701845
0.3,1.9,0,0.0074098
0.3,2,0,0.00780149
0.3,2.1,0,0.00819192
0.3,2.2,0,0.00858191
0.3,2.3,0,0.0089716
0.3,2.4,0,0.00935886
0.3,2.5,0,0.00974672
0.3,2.6,0,0.0101303
0.3,2.7,0,0.010513
0.3,2.8,0,0.0108942
0.3,2.9,0,0.0112703
0.3,3,0,0.0116473
0.3,3.1,0,0.0120152
0.3,3.2,0,0.012382
0.3,3.3,0,0.0127448
0.3,3.4,0,0.0130993
0.3,3.5,0,0.0134548
0.3,3.6,0,0.0137947
0.3,3.7,0,0.0141332
0.3,3.8,0,0.0144646
0.3,3.9,0,0.0147833
0.3,4,0,0.0151033
0.3,4.1,0,0.0153996
0.3,4.2,0,0.0156944
0.3,4.3,0,0.0159779
0.3,4.4,0,0.0162442
0.3,4.5,0,0.0165118
0.3,4.6,0,0.016747
0.3,4.7,0,0.0169805
0.3,4.8,0,0.017198
0.3,4.9,0,0.01736
0.3,5,0,0.0175055
0.3,5.1,0,0.0177626
0.3,5.2,0,0.017915
0.3,5.3,0,0.0180498
0.3,5.4,0,0.0181667
0.3,5.5,0,0.0182651
0.3,5.6,0,0.0183447
0.3,5.7,0,0.0184052
0.3,5.8,0,0.0184463
0.3,5.9,0,0.0184679
0.3,6,0,0.0184698
0.3,6.1,0,0.0184521
0.3,6.2,0,0.0184147
0.3,6.3,0,0.0183578
0.3,6.4,0,0.0182816
0.3,6.5,0,0.0181865
0.3,6.6,0,0.0180726
0.3,6.7,0,0.0179407
0.3,6.8,0,0.017791
0.3,6.9,0,0.0176242
0.3,7,0,0.0173301
0.3,7.1,0,0.01718
0.3,7.2,0,0.0170065
0.3,7.3,0,0.0167953
0.3,7.4,0,0.0165454
0.3,7.5,0,0.0162951
0.3,7.6,0,0.0160306
0.3,7.7,0,0.0157483
0.3,7.8,0,0.0154658
0.3,7.9,0,0.0151678
0.3,8,0,0.0148604
0.3,8.1,0,0.014552
0.3,8.2,0,0.0142305
0.3,8.3,0,0.013905
0.3,8.4,0,0.0135779
0.3,8.5,0,0.0132411
0.3,8.6,0,0.0129036
0.3,8.7,0,0.0125643
0.3,8.8,0,0.0122195
0.3,8.9,0,0.0118755
0.3,9,0,0.0115298
0.3,9.1,0,0.0111829
0.3,9.2,0,0.010837
0.3,9.3,0,0.01049
0.3,9.4,0,0.0101451
0.3,9.5,0,0.0098009
0.3,9.6,0,0.00945716
0.3,9.7,0,0.00911703
0.3,9.8,0,0.00877728
0.3,9.9,0,0.00843983
0.3,10,0,0.00810631
0.3,10.1,0,0.00777298
0.3,10.2,0,0.00744383
0.3,10.3,0,0.00711791
0.3,10.4,0,0.00679229
0.3,10.5,0,0.00647235
0.3,10.6,0,0.00615446
0.3,10.7,0,0.00583713
0.3,10.8,0,0.00552648
0.3,10.9,0,0.00521662
0.3,11,0,0.00490819
0.3,11.1,0,0.00460569
0.3,11.2,0,0.00430345
0.3,11.3,0,0.00400362
0.3,11.4,0,0.00370812
0.3,11.5,0,0.00341272
0.3,11.6,0,0.0031204
0.3,11.7,0,0.0028308
0.3,11.8,0,0.00254135
0.3,11.9,0,0.00225497
0.3,12,0,0.00196993
0.3,12.1,0,0.00168523
0.3,12.2,0,0.00140303
0.3,12.3,0,0.00112115
0.3,12.4,0,0.000839737
0.3,12.5,0,0.000559831
0.3,12.6,0,0.000279624
0.3,12.7,0,0
0.4,0,0,0
0.4,0.1,0,0.000387729
0.4,0.2,0,0.000775363
0.4,0.3,0,0.00116331
0.4,0.4,0,0.00155135
0.4,0.5,0,0.00193952
0.4,0.6,0,0.00232835
0.4,0.7,0,0.00271717
0.4,0.8,0,0.0031065
0.4,0.9,0,0.00349626
0.4,1,0,0.00388608
0.4,1.1,0,0.00427682
0.4,1.2,0,0.00466767
0.4,1.3,0,0.00505888
0.4,1.4,0,0.00545064
0.4,1.5,0,0.00584231
0.4,1.6,0,0.00623443
0.4,1.7,0,0.00662681
0.4,1.8,0,0.00701889
0.4,1.9,0,0.00741121
0.4,2,0,0.00780325
0.4,2.1,0,0.00819413
0.4,2.2,0,0.00858549
0.4,2.3,0,0.00897518
0.4,2.4,0,0.00936422
0.4,2.5,0,0.00975266
0.4,2.6,0,0.0101369
0.4,2.7,0,0.0105219
0.4,2.8,0,0.0109031
0.4,2.9,0,0.0112819
0.4,3,0,0.0116597
0.4,3.1,0,0.0120287
0.4,3.2,0,0.0123985
0.4,3.3,0,0.0127614
0.4,3.4,0,0.0131194
0.4,3.5,0,0.013476
0.4,3.6,0,0.0138174
0.4,3.7,0,0.0141597
0.4,3.8,0,0.014491
0.4,3.9,0,0.014814
0.4,4,0,0.0151354
0.4,4.1,0,0.0154333
0.4,4.2,0,0.0157323
0.4,4.3,0,0.0160158
0.4,4.4,0,0.0162868
0.4,4.5,0,0.0165557
0.4,4.6,0,0.0167925
0.4,4.7,0,0.01703
0.4,4.8,0,0.0172475
0.4,4.9,0,0.0174302
0.4,5,0,0.0175591
0.4,5.1,0,0.017819
0.4,5.2,0,0.017973
0.4,5.3,0,0.0181094
0.4,5.4,0,0.0182277
0.4,5.5,0,0.0183273
0.4,5.6,0,0.0184079
0.4,5.7,0,0.0184692
0.4,5.8,0,0.0185109
0.4,5.9,0,0.0185328
0.4,6,0,0.0185347
0.4,6.1,0,0.0185168
0.4,6.2,0,0.018479
0.4,6.3,0,0.0184214
0.4,6.4,0,0.0183443
0.4,6.5,0,0.018248
0.4,6.6,0,0.0181327
0.4,6.7,0,0.0179992
0.4,6.8,0,0.0178476
0.4,6.9,0,0.0176789
0.4,7,0,0.0173813
0.4,7.1,0,0.017249
0.4,7.2,0,0.0170649
0.4,7.3,0,0.0168407
0.4,7.4,0,0.0165914
0.4,7.5,0,0.0163337
0.4,7.6,0,0.0160682
0.4,7.7,0,0.0157846
0.4,7.8,0,0.0154951
0.4,7.9,0,0.0151971
0.4,8,0,0.014887
0.4,8.1,0,0.0145733
0.4,8.2,0,0.0142518
0.4,8.3,0,0.0139225
0.4,8.4,0,0.0135918
0.4,8.5,0,0.0132547
0.4,8.6,0,0.0129132
0.4,8.7,0,0.0125718
0.4,8.8,0,0.0122264
0.4,8.9,0,0.0118787
0.4,9,0,0.0115319
0.4,9.1,0,0.0111841
0.4,9.2,0,0.0108353
0.4,9.3,0,0.0104879
0.4,9.4,0,0.0101417
0.4,9.5,0,0.00979563
0.4,9.6,0,0.00945181
0.4,9.7,0,0.00911028
0.4,9.8,0,0.00876971
0.4,9.9,0,0.00843226
0.4,10,0,0.00809743
0.4,10.1,0,0.00776405
0.4,10.2,0,0.00743479
0.4,10.3,0,0.00710797
0.4,10.4,0,0.00678275
0.4,10.5,0,0.00646256
0.4,10.6,0,0.00614442
0.4,10.7,0,0.0058276
0.4,10.8,0,0.00551665
0.4,10.9,0,0.0052072
0.4,11,0,0.00489919
0.4,11.1,0,0.0045964
0.4,11.2,0,0.00429513
0.4,11.3,0,0.00399554
0.4,11.4,0,0.00370001
0.4,11.5,0,0.00340584
0.4,11.6,0,0.00311356
0.4,11.7,0,0.00282427
0.4,11.8,0,0.00253599
0.4,11.9,0,0.0022496
0.4,12,0,0.00196528
0.4,12.1,0,0.00168151
0.4,12.2,0,0.00139937
0.4,12.3,0,0.00111857
0.4,12.4,0,0.000837799
0.4,12.5,0,0.000558082
0.4,12.6,0,0.000279184
0.4,12.7,0,0
0.5,0,0,0
0.5,0.1,0,0.000387505
0.5,0.2,0,0.00077501
0.5,0.3,0,0.00116274
0.5,0.4,0,0.00155069
0.5,0.5,0,0.00193865
0.5,0.6,0,0.00232739
0.5,0.7,0,0.00271613
0.5,0.8,0,0.00310538
0.5,0.9,0,0.00349514
0.5,1,0,0.00388491
0.5,1.1,0,0.00427578
0.5,1.2,0,0.00466666
0.5,1.3,0,0.00505805
0.5,1.4,0,0.00544996
0.5,1.5,0,0.00584186
0.5,1.6,0,0.00623445
0.5,1.7,0,0.00662704
0.5,1.8,0,0.00701967
0.5,1.9,0,0.00741234
0.5,2,0,0.00780501
0.5,2.1,0,0.00819682
0.5,2.2,0,0.00858863
0.5,2.3,0,0.00897935
0.5,2.4,0,0.00936897
0.5,2.5,0,0.0097586
0.5,2.6,0,0.0101443
0.5,2.7,0,0.0105301
0.5,2.8,0,0.0109128
0.5,2.9,0,0.0112925
0.5,3,0,0.0116721
0.5,3.1,0,0.0120431
0.5,3.2,0,0.012414
0.5,3.3,0,0.012779
0.5,3.4,0,0.0131382
0.5,3.5,0,0.0134973
0.5,3.6,0,0.013841
0.5,3.7,0,0.0141847
0.5,3.8,0,0.0145187
0.5,3.9,0,0.0148431
0.5,4,0,0.0151674
0.5,4.1,0,0.015468
0.5,4.2,0,0.0157686
0.5,4.3,0,0.016055
0.5,4.4,0,0.0163272
0.5,4.5,0,0.0165995
0.5,4.6,0,0.0168386
0.5,4.7,0,0.0170778
0.5,4.8,0,0.0172805
0.5,4.9,0,0.0174466
0.5,5,0,0.0176128
0.5,5.1,0,0.0178753
0.5,5.2,0,0.018031
0.5,5.3,0,0.018169
0.5,5.4,0,0.0182887
0.5,5.5,0,0.0183895
0.5,5.6,0,0.0184711
0.5,5.7,0,0.0185332
0.5,5.8,0,0.0185754
0.5,5.9,0,0.0185976
0.5,6,0,0.0185997
0.5,6.1,0,0.0185815
0.5,6.2,0,0.0185433
0.5,6.3,0,0.018485
0.5,6.4,0,0.018407
0.5,6.5,0,0.0183095
0.5,6.6,0,0.0181929
0.5,6.7,0,0.0180577
0.5,6.8,0,0.0179043
0.5,6.9,0,0.0177335
0.5,7,0,0.0174326
0.5,7.1,0,0.017254
0.5,7.2,0,0.0170754
0.5,7.3,0,0.016885
0.5,7.4,0,0.0166278
0.5,7.5,0,0.0163705
0.5,7.6,0,0.0161035
0.5,7.7,0,0.0158139
0.5,7.8,0,0.0155244
0.5,7.9,0,0.0152236
0.5,8,0,0.0149093
0.5,8.1,0,0.014595
0.5,8.2,0,0.01427
0.5,8.3,0,0.0139381
0.5,8.4,0,0.0136061
0.5,8.5,0,0.0132658
0.5,8.6,0,0.0129227
0.5,8.7,0,0.0125795
0.5,8.8,0,0.0122314
0.5,8.9,0,0.0118827
0.5,9,0,0.011534
0.5,9.1,0,0.0111843
0.5,9.2,0,0.0108347
0.5,9.3,0,0.0104855
0.5,9.4,0,0.0101385
0.5,9.5,0,0.00979154
0.5,9.6,0,0.00944639
0.5,9.7,0,0.0091047
0.5,9.8,0,0.00876301
0.5,9.9,0,0.00842486
0.5,10,0,0.00809026
0.5,10.1,0,0.00775566
0.5,10.2,0,0.00742636
0.5,10.3,0,0.00709991
0.5,10.4,0,0.00677347
0.5,10.5,0,0.00645388
0.5,10.6,0,0.006136
0.5,10.7,0,0.00581813
0.5,10.8,0,0.00550831
0.5,10.9,0,0.00519892
0.5,11,0,0.00489032
0.5,11.1,0,0.00458889
0.5,11.2,0,0.00428745
0.5,11.3,0,0.0039878
0.5,11.4,0,0.00369348
0.5,11.5,0,0.00339917
0.5,11.6,0,0.00310725
0.5,11.7,0,0.00281894
0.5,11.8,0,0.00253063
0.5,11.9,0,0.00224492
0.5,12,0,0.00196132
0.5,12.1,0,0.00167772
0.5,12.2,0,0.00139642
0.5,12.3,0,0.00111611
0.5,12.4,0,0.000835792
0.5,12.5,0,0.000557014
0.5,12.6,0,0.000278507
0.5,12.7,0,0
0.6,0,0,0
0.6,0.1,0,0.000387014
0.6,0.2,0,0.000774321
0.6,0.3,0,0.00116165
0.6,0.4,0,0.0015494
0.6,0.5,0,0.00193704
0.6,0.6,0,0.00232548
0.6,0.7,0,0.00271413
0.6,0.8,0,0.00310322
0.6,0.9,0,0.00349292
0.6,1,0,0.00388266
0.6,1.1,0,0.00427362
0.6,1.2,0,0.00466461
0.6,1.3,0,0.00505628
0.6,1.4,0,0.00544836
0.6,1.5,0,0.00584076
0.6,1.6,0,0.00623401
0.6,1.7,0,0.00662702
0.6,1.8,0,0.00702059
0.6,1.9,0,0.00741377
0.6,2,0,0.00780768
0.6,2.1,0,0.00820093
0.6,2.2,0,0.00859358
0.6,2.3,0,0.00898609
0.6,2.4,0,0.00937667
0.6,2.5,0,0.00976847
0.6,2.6,0,0.0101566
0.6,2.7,0,0.0105437
0.6,2.8,0,0.0109292
0.6,2.9,0,0.0113103
0.6,3,0,0.0116932
0.6,3.1,0,0.0120676
0.6,3.2,0,0.0124404
0.6,3.3,0,0.0128093
0.6,3.4,0,0.0131704
0.6,3.5,0,0.0135338
0.6,3.6,0,0.0138819
0.6,3.7,0,0.014228
0.6,3.8,0,0.0145668
0.6,3.9,0,0.0148936
0.6,4,0,0.015223
0.6,4.1,0,0.0155287
0.6,4.2,0,0.0158319
0.6,4.3,0,0.0161235
0.6,4.4,0,0.0163984
0.6,4.5,0,0.0166759
0.6,4.6,0,0.0169203
0.6,4.7,0,0.017162
0.6,4.8,0,0.0173874
0.6,4.9,0,0.0175737
0.6,5,0,0.0177074
0.6,5.1,0,0.0179753
0.6,5.2,0,0.0181343
0.6,5.3,0,0.0182752
0.6,5.4,0,0.0183975
0.6,5.5,0,0.0185006
0.6,5.6,0,0.0185841
0.6,5.7,0,0.0186476
0.6,5.8,0,0.0186908
0.6,5.9,0,0.0187137
0.6,6,0,0.0187159
0.6,6.1,0,0.0186974
0.6,6.2,0,0.0186584
0.6,6.3,0,0.0185989
0.6,6.4,0,0.0185191
0.6,6.5,0,0.0184195
0.6,6.6,0,0.0183002
0.6,6.7,0,0.018162
0.6,6.8,0,0.0180052
0.6,6.9,0,0.0178307
0.6,7,0,0.017523
0.6,7.1,0,0.0173851
0.6,7.2,0,0.0171977
0.6,7.3,0,0.0169644
0.6,7.4,0,0.0167053
0.6,7.5,0,0.0164433
0.6,7.6,0,0.0161679
0.6,7.7,0,0.0158757
0.6,7.8,0,0.0155804
0.6,7.9,0,0.0152726
0.6,8,0,0.0149556
0.6,8.1,0,0.0146349
0.6,8.2,0,0.0143041
0.6,8.3,0,0.0139699
0.6,8.4,0,0.0136315
0.6,8.5,0,0.0132863
0.6,8.6,0,0.0129413
0.6,8.7,0,0.0125925
0.6,8.8,0,0.0122402
0.6,8.9,0,0.0118897
0.6,9,0,0.0115368
0.6,9.1,0,0.0111835
0.6,9.2,0,0.0108326
0.6,9.3,0,0.0104805
0.6,9.4,0,0.0101306
0.6,9.5,0,0.00978273
0.6,9.6,0,0.00943557
0.6,9.7,0,0.00909183
0.6,9.8,0,0.00874966
0.6,9.9,0,0.00841012
0.6,10,0,0.0080742
0.6,10.1,0,0.00773965
0.6,10.2,0,0.00740937
0.6,10.3,0,0.00708217
0.6,10.4,0,0.00675636
0.6,10.5,0,0.00643606
0.6,10.6,0,0.00611793
0.6,10.7,0,0.0058012
0.6,10.8,0,0.00549085
0.6,10.9,0,0.00518169
0.6,11,0,0.00487439
0.6,11.1,0,0.00457275
0.6,11.2,0,0.00427196
0.6,11.3,0,0.0039736
0.6,11.4,0,0.00367942
0.6,11.5,0,0.00338607
0.6,11.6,0,0.00309541
0.6,11.7,0,0.00280746
0.6,11.8,0,0.0025204
0.6,11.9,0,0.00223591
0.6,12,0,0.00195277
0.6,12.1,0,0.00167067
0.6,12.2,0,0.00139062
0.6,12.3,0,0.00111075
0.6,12.4,0,0.000832146
0.6,12.5,0,0.000554661
0.6,12.6,0,0.000276753
0.6,12.7,0,0
0.7,0,0,0
0.7,0.1,0,0.000386816
0.7,0.2,0,0.000773435
0.7,0.3,0,0.00116076
0.7,0.4,0,0.00154799
0.7,0.5,0,0.00193543
0.7,0.6,0,0.00232378
0.7,0.7,0,0.00271203
0.7,0.8,0,0.00310112
0.7,0.9,0,0.00349074
0.7,1,0,0.00388042
0.7,1.1,0,0.00427149
0.7,1.2,0,0.00466267
0.7,1.3,0,0.00505434
0.7,1.4,0,0.00544709
0.7,1.5,0,0.00583967
0.7,1.6,0,0.00623334
0.7,1.7,0,0.00662743
0.7,1.8,0,0.007021
0.7,1.9,0,0.00741593
0.7,2,0,0.00781035
0.7,2.1,0,0.00820444
0.7,2.2,0,0.00859937
0.7,2.3,0,0.00899188
0.7,2.4,0,0.00938559
0.7,2.5,0,0.00977834
0.7,2.6,0,0.0101678
0.7,2.7,0,0.0105586
0.7,2.8,0,0.0109442
0.7,2.9,0,0.01133
0.7,3,0,0.0117143
0.7,3.1,0,0.0120906
0.7,3.2,0,0.0124688
0.7,3.3,0,0.0128376
0.7,3.4,0,0.013205
0.7,3.5,0,0.0135703
0.7,3.6,0,0.0139208
0.7,3.7,0,0.0142737
0.7,3.8,0,0.0146125
0.7,3.9,0,0.0149467
0.7,4,0,0.0152785
0.7,4.1,0,0.0155869
0.7,4.2,0,0.0158978
0.7,4.3,0,0.0161895
0.7,4.4,0,0.0164722
0.7,4.5,0,0.0167524
0.7,4.6,0,0.0169993
0.7,4.7,0,0.0172487
0.7,4.8,0,0.0174741
0.7,4.9,0,0.0176481
0.7,5,0,0.017802
0.7,5.1,0,0.0180754
0.7,5.2,0,0.0182376
0.7,5.3,0,0.0183814
0.7,5.4,0,0.0185063
0.7,5.5,0,0.0186116
0.7,5.6,0,0.018697
0.7,5.7,0,0.018762
0.7,5.8,0,0.0188063
0.7,5.9,0,0.0188297
0.7,6,0,0.0188321
0.7,6.1,0,0.0188133
0.7,6.2,0,0.0187735
0.7,6.3,0,0.0187128
0.7,6.4,0,0.0186313
0.7,6.5,0,0.0185294
0.7,6.6,0,0.0184076
0.7,6.7,0,0.0182663
0.7,6.8,0,0.0181061
0.7,6.9,0,0.0179278
0.7,7,0,0.0176133
0.7,7.1,0,0.0174539
0.7,7.2,0,0.0172659
0.7,7.3,0,0.017044
0.7,7.4,0,0.0167787
0.7,7.5,0,0.0165088
0.7,7.6,0,0.0162332
0.7,7.7,0,0.0159334
0.7,7.8,0,0.0156311
0.7,7.9,0,0.0153232
0.7,8,0,0.0149975
0.7,8.1,0,0.0146715
0.7,8.2,0,0.0143404
0.7,8.3,0,0.0139971
0.7,8.4,0,0.0136552
0.7,8.5,0,0.0133089
0.7,8.6,0,0.0129559
0.7,8.7,0,0.0126049
0.7,8.8,0,0.0122512
0.7,8.9,0,0.0118943
0.7,9,0,0.0115398
0.7,9.1,0,0.0111852
0.7,9.2,0,0.010829
0.7,9.3,0,0.0104761
0.7,9.4,0,0.0101249
0.7,9.5,0,0.00977307
0.7,9.6,0,0.00942566
0.7,9.7,0,0.00908079
0.7,9.8,0,0.00873595
0.7,9.9,0,0.0083964
0.7,10,0,0.0080598
0.7,10.1,0,0.00772365
0.7,10.2,0,0.00739343
0.7,10.3,0,0.00706612
0.7,10.4,0,0.00673938
0.7,10.5,0,0.00641935
0.7,10.6,0,0.00610156
0.7,10.7,0,0.00578432
0.7,10.8,0,0.00547453
0.7,10.9,0,0.00516599
0.7,11,0,0.00485849
0.7,11.1,0,0.00455773
0.7,11.2,0,0.00425776
0.7,11.3,0,0.00395936
0.7,11.4,0,0.00366641
0.7,11.5,0,0.00337403
0.7,11.6,0,0.00308338
0.7,11.7,0,0.00279705
0.7,11.8,0,0.00251097
0.7,11.9,0,0.00222649
0.7,12,0,0.0019454
0.7,12.1,0,0.00166415
0.7,12.2,0,0.00138432
0.7,12.3,0,0.00110675
0.7,12.4,0,0.000828759
0.7,12.5,0,0.000551765
0.7,12.6,0,0.00027623
0.7,12.7,0,0
0.8,0,0,0
0.8,0.1,0,0.000386225
0.8,0.2,0,0.000772844
0.8,0.3,0,0.00115914
0.8,0.4,0,0.00154637
0.8,0.5,0,0.00193335
0.8,0.6,0,0.00232136
0.8,0.7,0,0.00270962
0.8,0.8,0,0.00309826
0.8,0.9,0,0.00348788
0.8,1,0,0.00387745
0.8,1.1,0,0.00426866
0.8,1.2,0,0.00465983
0.8,1.3,0,0.00505214
0.8,1.4,0,0.00544489
0.8,1.5,0,0.00583795
0.8,1.6,0,0.0062325
0.8,1.7,0,0.0066266
0.8,1.8,0,0.00702239
0.8,1.9,0,0.00741733
0.8,2,0,0.00781308
0.8,2.1,0,0.00820905
0.8,2.2,0,0.00860398
0.8,2.3,0,0.00900082
0.8,2.4,0,0.00939452
0.8,2.5,0,0.00978971
0.8,2.6,0,0.0101823
0.8,2.7,0,0.0105731
0.8,2.8,0,0.0109654
0.8,2.9,0,0.0113512
0.8,3,0,0.0117393
0.8,3.1,0,0.01212
0.8,3.2,0,0.0124981
0.8,3.3,0,0.0128765
0.8,3.4,0,0.0132438
0.8,3.5,0,0.0136141
0.8,3.6,0,0.0139703
0.8,3.7,0,0.0143232
0.8,3.8,0,0.0146736
0.8,3.9,0,0.0150079
0.8,4,0,0.0153456
0.8,4.1,0,0.0156605
0.8,4.2,0,0.0159715
0.8,4.3,0,0.0162761
0.8,4.4,0,0.0165588
0.8,4.5,0,0.0168452
0.8,4.6,0,0.0170988
0.8,4.7,0,0.0173482
0.8,4.8,0,0.0175857
0.8,4.9,0,0.0177598
0.8,5,0,0.0179171
0.8,5.1,0,0.018197
0.8,5.2,0,0.0183632
0.8,5.3,0,0.0185106
0.8,5.4,0,0.0186387
0.8,5.5,0,0.0187469
0.8,5.6,0,0.0188346
0.8,5.7,0,0.0189015
0.8,5.8,0,0.0189471
0.8,5.9,0,0.0189713
0.8,6,0,0.0189739
0.8,6.1,0,0.0189547
0.8,6.2,0,0.018914
0.8,6.3,0,0.0188517
0.8,6.4,0,0.0187681
0.8,6.5,0,0.0186636
0.8,6.6,0,0.0185386
0.8,6.7,0,0.0183936
0.8,6.8,0,0.0182292
0.8,6.9,0,0.0180463
0.8,7,0,0.0177236
0.8,7.1,0,0.0175594
0.8,7.2,0,0.0173714
0.8,7.3,0,0.0171388
0.8,7.4,0,0.0168671
0.8,7.5,0,0.0165973
0.8,7.6,0,0.0163078
0.8,7.7,0,0.0160038
0.8,7.8,0,0.0157011
0.8,7.9,0,0.0153775
0.8,8,0,0.01505
0.8,8.1,0,0.0147214
0.8,8.2,0,0.0143762
0.8,8.3,0,0.0140329
0.8,8.4,0,0.0136865
0.8,8.5,0,0.0133298
0.8,8.6,0,0.0129768
0.8,8.7,0,0.0126202
0.8,8.8,0,0.0122595
0.8,8.9,0,0.0119026
0.8,9,0,0.0115422
0.8,9.1,0,0.0111833
0.8,9.2,0,0.0108272
0.8,9.3,0,0.0104687
0.8,9.4,0,0.0101153
0.8,9.5,0,0.00976343
0.8,9.6,0,0.00941135
0.8,9.7,0,0.00906557
0.8,9.8,0,0.00872045
0.8,9.9,0,0.00837777
0.8,10,0,0.008041
0.8,10.1,0,0.00770438
0.8,10.2,0,0.00737277
0.8,10.3,0,0.00704546
0.8,10.4,0,0.00671843
0.8,10.5,0,0.00639826
0.8,10.6,0,0.00608047
0.8,10.7,0,0.00576341
0.8,10.8,0,0.0054542
0.8,10.9,0,0.00514566
0.8,11,0,0.00483903
0.8,11.1,0,0.00453909
0.8,11.2,0,0.00423912
0.8,11.3,0,0.00394241
0.8,11.4,0,0.00365019
0.8,11.5,0,0.00335781
0.8,11.6,0,0.00306968
0.8,11.7,0,0.00278383
0.8,11.8,0,0.0024981
0.8,11.9,0,0.00221661
0.8,12,0,0.00193559
0.8,12.1,0,0.0016552
0.8,12.2,0,0.00137822
0.8,12.3,0,0.00110065
0.8,12.4,0,0.0008241
0.8,12.5,0,0.000549614
0.8,12.6,0,0.000274078
0.8,12.7,0,0
0.9,0,0,0
0.9,0.1,0,0.000385832
0.9,0.2,0,0.000771455
0.9,0.3,0,0.00115776
0.9,0.4,0,0.00154408
0.9,0.5,0,0.0019308
0.9,0.6,0,0.00231858
0.9,0.7,0,0.00270625
0.9,0.8,0,0.0030949
0.9,0.9,0,0.00348422
0.9,1,0,0.00387374
0.9,1.1,0,0.00426498
0.9,1.2,0,0.00465642
0.9,1.3,0,0.00504872
0.9,1.4,0,0.00544224
0.9,1.5,0,0.00583561
0.9,1.6,0,0.00623062
0.9,1.7,0,0.00662628
0.9,1.8,0,0.00702207
0.9,1.9,0,0.00741929
0.9,2,0,0.00781587
0.9,2.1,0,0.00821288
0.9,2.2,0,0.00861111
0.9,2.3,0,0.00900795
0.9,2.4,0,0.0094059
0.9,2.5,0,0.00980256
0.9,2.6,0,0.0101969
0.9,2.7,0,0.0105932
0.9,2.8,0,0.0109855
0.9,2.9,0,0.0113778
0.9,3,0,0.0117681
0.9,3.1,0,0.0121514
0.9,3.2,0,0.0125373
0.9,3.3,0,0.0129156
0.9,3.4,0,0.0132919
0.9,3.5,0,0.0136651
0.9,3.6,0,0.0140247
0.9,3.7,0,0.0143874
0.9,3.8,0,0.0147379
0.9,3.9,0,0.015083
0.9,4,0,0.0154243
0.9,4.1,0,0.0157431
0.9,4.2,0,0.0160653
0.9,4.3,0,0.0163699
0.9,4.4,0,0.0166644
0.9,4.5,0,0.0169545
0.9,4.6,0,0.0172121
0.9,4.7,0,0.0174725
0.9,4.8,0,0.0177101
0.9,4.9,0,0.0179122
0.9,5,0,0.0180528
0.9,5.1,0,0.0183403
0.9,5.2,0,0.0185111
0.9,5.3,0,0.0186629
0.9,5.4,0,0.0187948
0.9,5.5,0,0.0189063
0.9,5.6,0,0.0189969
0.9,5.7,0,0.0190659
0.9,5.8,0,0.0191132
0.9,5.9,0,0.0191384
0.9,6,0,0.0191412
0.9,6.1,0,0.0191217
0.9,6.2,0,0.0190799
0.9,6.3,0,0.0190158
0.9,6.4,0,0.0189297
0.9,6.5,0,0.018822
0.9,6.6,0,0.0186932
0.9,6.7,0,0.0185438
0.9,6.8,0,0.0183744
0.9,6.9,0,0.018186
0.9,7,0,0.0178537
0.9,7.1,0,0.0177075
0.9,7.2,0,0.0175014
0.9,7.3,0,0.0172533
0.9,7.4,0,0.0169789
0.9,7.5,0,0.0166925
0.9,7.6,0,0.0164011
0.9,7.7,0,0.0160906
0.9,7.8,0,0.0157728
0.9,7.9,0,0.0154492
0.9,8,0,0.0151122
0.9,8.1,0,0.0147723
0.9,8.2,0,0.0144269
0.9,8.3,0,0.0140723
0.9,8.4,0,0.0137187
0.9,8.5,0,0.0133607
0.9,8.6,0,0.0129967
0.9,8.7,0,0.012636
0.9,8.8,0,0.0122734
0.9,8.9,0,0.0119072
0.9,9,0,0.0115446
0.9,9.1,0,0.0111833
0.9,9.2,0,0.0108201
0.9,9.3,0,0.0104607
0.9,9.4,0,0.0101044
0.9,9.5,0,0.00974784
0.9,9.6,0,0.00939555
0.9,9.7,0,0.00904686
0.9,9.8,0,0.00869943
0.9,9.9,0,0.00835675
0.9,10,0,0.00801755
0.9,10.1,0,0.00768032
0.9,10.2,0,0.00734857
0.9,10.3,0,0.00701985
0.9,10.4,0,0.00669318
0.9,10.5,0,0.00637276
0.9,10.6,0,0.00605489
0.9,10.7,0,0.00573849
0.9,10.8,0,0.0054291
0.9,10.9,0,0.00512169
0.9,11,0,0.00481567
0.9,11.1,0,0.00451577
0.9,11.2,0,0.0042179
0.9,11.3,0,0.00392157
0.9,11.4,0,0.00362998
0.9,11.5,0,0.00334018
0.9,11.6,0,0.00305212
0.9,11.7,0,0.00276769
0.9,11.8,0,0.00248438
0.9,11.9,0,0.0022029
0.9,12,0,0.00192415
0.9,12.1,0,0.00164574
0.9,12.2,0,0.00136896
0.9,12.3,0,0.00109433
0.9,12.4,0,0.000819203
0.9,12.5,0,0.000545204
0.9,12.6,0,0.000272979
0.9,12.7,0,0
1,0,0,0
1,0.1,0,0.00038523
1,0.2,0,0.000770459
1,0.3,0,0.00115611
1,0.4,0,0.00154218
1,0.5,0,0.00192825
1,0.6,0,0.00231568
1,0.7,0,0.00270312
1,0.8,0,0.00309148
1,0.9,0,0.00348075
1,1,0,0.00387003
1,1.1,0,0.0042615
1,1.2,0,0.00465297
1,1.3,0,0.00504562
1,1.4,0,0.00543945
1,1.5,0,0.00583327
1,1.6,0,0.00622938
1,1.7,0,0.0066255
1,1.8,0,0.00702257
1,1.9,0,0.00742062
1,2,0,0.00781866
1,2.1,0,0.00821793
1,2.2,0,0.00861721
1,2.3,0,0.00901656
1,2.4,0,0.00941599
1,2.5,0,0.00981542
1,2.6,0,0.0102134
1,2.7,0,0.0106115
1,2.8,0,0.0110078
1,2.9,0,0.0114023
1,3,0,0.0117969
1,3.1,0,0.0121854
1,3.2,0,0.0125739
1,3.3,0,0.0129577
1,3.4,0,0.0133369
1,3.5,0,0.0137161
1,3.6,0,0.0140823
1,3.7,0,0.0144484
1,3.8,0,0.0148057
1,3.9,0,0.0151543
1,4,0,0.0155029
1,4.1,0,0.0158291
1,4.2,0,0.0161552
1,4.3,0,0.0164674
1,4.4,0,0.0167656
1,4.5,0,0.0170638
1,4.6,0,0.0173283
1,4.7,0,0.0175928
1,4.8,0,0.0178177
1,4.9,0,0.018003
1,5,0,0.0181884
1,5.1,0,0.0184836
1,5.2,0,0.0186591
1,5.3,0,0.0188151
1,5.4,0,0.0189509
1,5.5,0,0.0190658
1,5.6,0,0.0191591
1,5.7,0,0.0192304
1,5.8,0,0.0192793
1,5.9,0,0.0193055
1,6,0,0.0193086
1,6.1,0,0.0192887
1,6.2,0,0.0192457
1,6.3,0,0.0191799
1,6.4,0,0.0190913
1,6.5,0,0.0189805
1,6.6,0,0.0188478
1,6.7,0,0.018694
1,6.8,0,0.0185197
1,6.9,0,0.0183258
1,7,0,0.0179838
1,7.1,0,0.0177821
1,7.2,0,0.0175804
1,7.3,0,0.0173657
1,7.4,0,0.0170773
1,7.5,0,0.0167889
1,7.6,0,0.0164906
1,7.7,0,0.0161692
1,7.8,0,0.0158478
1,7.9,0,0.0155158
1,8,0,0.0151709
1,8.1,0,0.014826
1,8.2,0,0.0144721
1,8.3,0,0.0141123
1,8.4,0,0.0137525
1,8.5,0,0.0133871
1,8.6,0,0.0130198
1,8.7,0,0.0126525
1,8.8,0,0.012284
1,8.9,0,0.0119153
1,9,0,0.0115468
1,9.1,0,0.0111815
1,9.2,0,0.0108161
1,9.3,0,0.0104521
1,9.4,0,0.0100935
1,9.5,0,0.00973483
1,9.6,0,0.00937935
1,9.7,0,0.00902974
1,9.8,0,0.00868012
1,9.9,0,0.00833569
1,10,0,0.00799643
1,10.1,0,0.00765716
1,10.2,0,0.00732499
1,10.3,0,0.00699664
1,10.4,0,0.00666829
1,10.5,0,0.00634862
1,10.6,0,0.00603112
1,10.7,0,0.00571363
1,10.8,0,0.00540594
1,10.9,0,0.00509876
1,11,0,0.00479253
1,11.1,0,0.00449477
1,11.2,0,0.00419702
1,11.3,0,0.00390132
1,11.4,0,0.00361181
1,11.5,0,0.0033223
1,11.6,0,0.00303553
1,11.7,0,0.00275288
1,11.8,0,0.00247023
1,11.9,0,0.00219052
1,12,0,0.0019132
1,12.1,0,0.00163588
1,12.2,0,0.0013612
1,12.3,0,0.00108763
1,12.4,0,0.000814067
1,12.5,0,0.000542479
1,12.6,0,0.00027124
1,12.7,0,0
1.1,0,0,0
1.1,0.1,0,0.000384054
1.1,0.2,0,0.000768848
1.1,0.3,0,0.00115358
1.1,0.4,0,0.00153917
1.1,0.5,0,0.00192445
1.1,0.6,0,0.00231116
1.1,0.7,0,0.00269831
1.1,0.8,0,0.00308616
1.1,0.9,0,0.00347523
1.1,1,0,0.00386424
1.1,1.1,0,0.00425569
1.1,1.2,0,0.00464723
1.1,1.3,0,0.00504019
1.1,1.4,0,0.00543427
1.1,1.5,0,0.00582873
1.1,1.6,0,0.00622596
1.1,1.7,0,0.00662269
1.1,1.8,0,0.0070213
1.1,1.9,0,0.00742027
1.1,2,0,0.00782023
1.1,2.1,0,0.0082222
1.1,2.2,0,0.00862283
1.1,2.3,0,0.00902534
1.1,2.4,0,0.00942658
1.1,2.5,0,0.0098296
1.1,2.6,0,0.0102323
1.1,2.7,0,0.0106326
1.1,2.8,0,0.011034
1.1,2.9,0,0.0114315
1.1,3,0,0.0118315
1.1,3.1,0,0.0122269
1.1,3.2,0,0.0126187
1.1,3.3,0,0.0130098
1.1,3.4,0,0.0133931
1.1,3.5,0,0.0137798
1.1,3.6,0,0.014155
1.1,3.7,0,0.0145253
1.1,3.8,0,0.0148919
1.1,3.9,0,0.0152456
1.1,4,0,0.0156032
1.1,4.1,0,0.0159402
1.1,4.2,0,0.0162711
1.1,4.3,0,0.0165937
1.1,4.4,0,0.0168976
1.1,4.5,0,0.0172053
1.1,4.6,0,0.0174812
1.1,4.7,0,0.0177502
1.1,4.8,0,0.0180048
1.1,4.9,0,0.0182154
1.1,5,0,0.0183659
1.1,5.1,0,0.0186717
1.1,5.2,0,0.0188538
1.1,5.3,0,0.0190159
1.1,5.4,0,0.0191571
1.1,5.5,0,0.0192767
1.1,5.6,0,0.0193741
1.1,5.7,0,0.0194486
1.1,5.8,0,0.0194999
1.1,5.9,0,0.0195275
1.1,6,0,0.0195311
1.1,6.1,0,0.0195107
1.1,6.2,0,0.0194663
1.1,6.3,0,0.019398
1.1,6.4,0,0.0193061
1.1,6.5,0,0.0191909
1.1,6.6,0,0.019053
1.1,6.7,0,0.018893
1.1,6.8,0,0.0187118
1.1,6.9,0,0.0185102
1.1,7,0,0.018155
1.1,7.1,0,0.0179972
1.1,7.2,0,0.0177834
1.1,7.3,0,0.0175142
1.1,7.4,0,0.0172189
1.1,7.5,0,0.0169224
1.1,7.6,0,0.0166086
1.1,7.7,0,0.0162797
1.1,7.8,0,0.0159483
1.1,7.9,0,0.0156027
1.1,8,0,0.0152511
1.1,8.1,0,0.0148952
1.1,8.2,0,0.0145297
1.1,8.3,0,0.0141646
1.1,8.4,0,0.0137938
1.1,8.5,0,0.0134186
1.1,8.6,0,0.0130474
1.1,8.7,0,0.0126703
1.1,8.8,0,0.0122936
1.1,8.9,0,0.0119217
1.1,9,0,0.0115459
1.1,9.1,0,0.0111739
1.1,9.2,0,0.0108062
1.1,9.3,0,0.010437
1.1,9.4,0,0.0100733
1.1,9.5,0,0.00971315