/*--------------------------------*- C++ -*----------------------------------*\
| =========                 |                                                 |
| \\      /  F ield         | OpenFOAM: The Open Source CFD Toolbox           |
|  \\    /   O peration     | Version:  v1806                                 |
|   \\  /    A nd           | Web:      www.OpenFOAM.com                      |
|    \\/     M anipulation  |                                                 |
\*---------------------------------------------------------------------------*/
FoamFile
{
    version     2.0;
    format      ascii;
    class       volVectorField;
    location    "7";
    object      U;
}
// * * * * * * * * * * * * * * * * * * * * * * * * * * * * * * * * * * * * * //

dimensions      [0 1 -1 0 0 0 0];


internalField   nonuniform List<vector> 
24000
(
(2.53168 0.0324552 0.0897192)
(2.07023 0.034935 0.0721244)
(1.59695 0.0272509 0.045248)
(1.27124 0.0215136 0.0222181)
(1.09101 0.0182815 0.00757228)
(0.981437 0.0162236 0.00217708)
(0.905554 0.0144459 0.000695924)
(0.847441 0.0123568 0.000354854)
(0.80365 0.0102305 0.000350226)
(0.767631 0.00819269 0.000557342)
(0.740354 0.00628573 0.000680859)
(0.717149 0.00452024 0.000872634)
(0.701087 0.0027987 0.000939215)
(0.68751 0.00136592 0.00109702)
(0.680496 -0.000174315 0.0010867)
(0.674709 -0.00119038 0.00120803)
(0.674202 -0.00237116 0.00114895)
(0.67358 -0.00201793 0.00105118)
(0.675198 -0.00267831 0.00100563)
(0.676292 -0.00107887 0.000249102)
(2.5914 0.0431609 0.090921)
(2.19936 0.0482021 0.0745506)
(1.79753 0.0395164 0.0487261)
(1.4996 0.0330836 0.0271427)
(1.32697 0.0292176 0.0116601)
(1.22482 0.0260403 0.00462713)
(1.16073 0.023351 0.00217659)
(1.11379 0.0201282 0.00131268)
(1.0822 0.0167548 0.000997614)
(1.055 0.0131505 0.00100743)
(1.03753 0.00963657 0.0010417)
(1.01984 0.00605067 0.0011313)
(1.01162 0.0024075 0.00113141)
(1.00073 -0.000941182 0.00122821)
(1.00082 -0.00434585 0.00126238)
(0.995659 -0.00694885 0.00138296)
(1.00268 -0.00974903 0.00134946)
(1.00051 -0.00987049 0.00140182)
(1.01107 -0.0106492 0.00119207)
(1.00802 -0.00814055 -0.000579636)
(2.59052 0.0219994 0.090958)
(2.19097 0.0309209 0.0740597)
(1.79992 0.0295204 0.0477796)
(1.51293 0.0273883 0.026809)
(1.34654 0.0256307 0.011702)
(1.24932 0.0226003 0.00463633)
(1.1905 0.0199332 0.00214382)
(1.14845 0.0165988 0.00122029)
(1.12221 0.0133412 0.000876237)
(1.09962 0.00936139 0.000808339)
(1.08718 0.00547586 0.000832152)
(1.07325 0.00104626 0.000874453)
(1.06958 -0.00347744 0.000861767)
(1.06165 -0.00811407 0.000822316)
(1.06622 -0.0126601 0.000728849)
(1.06319 -0.0164658 0.000748522)
(1.0753 -0.0199738 0.000705275)
(1.07403 -0.0210884 0.000892797)
(1.08975 -0.0212507 0.00062453)
(1.08702 -0.0186021 -0.00167286)
(2.58949 0.0190301 0.0912845)
(2.17863 0.0299707 0.0743856)
(1.78674 0.0308393 0.0477042)
(1.50274 0.0287177 0.0268555)
(1.33866 0.0269708 0.0118441)
(1.24336 0.023176 0.00468572)
(1.1866 0.0200874 0.00214082)
(1.14598 0.0158643 0.00119979)
(1.12151 0.0122353 0.000842997)
(1.10006 0.00742587 0.000720804)
(1.08937 0.00302463 0.000692647)
(1.0764 -0.00236892 0.00069341)
(1.07443 -0.00761346 0.000683089)
(1.0672 -0.0135117 0.000699801)
(1.07354 -0.0190249 0.000596923)
(1.07121 -0.0241184 0.000644019)
(1.08564 -0.028252 0.000506504)
(1.08557 -0.0303104 0.000750153)
(1.10364 -0.030122 0.000420957)
(1.10279 -0.0267467 -0.00203642)
(2.58872 0.0140634 0.0914938)
(2.17042 0.0228772 0.0744785)
(1.77761 0.0259704 0.0474737)
(1.49544 0.0247233 0.0265549)
(1.3325 0.0242277 0.0116432)
(1.23792 0.020343 0.00447868)
(1.18188 0.017838 0.00196871)
(1.1416 0.0130387 0.00104069)
(1.11749 0.0096844 0.000737723)
(1.09599 0.00412463 0.000635623)
(1.08551 -0.000345701 0.000645361)
(1.07242 -0.0068754 0.000601051)
(1.0709 -0.0125246 0.000523813)
(1.06378 -0.0197966 0.000511971)
(1.0709 -0.0260845 0.000402623)
(1.06906 -0.0327031 0.000485974)
(1.08488 -0.0375474 0.000331005)
(1.08627 -0.0406744 0.000595196)
(1.1063 -0.0403511 0.000252867)
(1.10773 -0.036156 -0.00219369)
(2.58806 0.0116352 0.0916601)
(2.16497 0.0191373 0.0745877)
(1.77085 0.0243161 0.0474825)
(1.48918 0.0231603 0.0265401)
(1.3262 0.0236981 0.0117401)
(1.23189 0.0191154 0.00451485)
(1.17594 0.0173609 0.00204521)
(1.13582 0.0115101 0.0010568)
(1.11181 0.00864264 0.000794613)
(1.09015 0.00182052 0.000621285)
(1.07976 -0.00237598 0.000653052)
(1.0662 -0.0104835 0.00064485)
(1.06475 -0.0163316 0.000613508)
(1.05724 -0.0255009 0.000591617)
(1.06489 -0.0324372 0.000445934)
(1.06326 -0.0411296 0.000547066)
(1.08039 -0.046841 0.000353131)
(1.08337 -0.0514031 0.000631955)
(1.10577 -0.0511894 0.00026334)
(1.11016 -0.0462325 -0.00222566)
(2.58734 0.0101212 0.0918152)
(2.16105 0.0154796 0.0746544)
(1.7656 0.0220992 0.0475162)
(1.48435 0.0203806 0.0264701)
(1.32077 0.0222526 0.011785)
(1.22697 0.0166038 0.00443602)
(1.17068 0.0162086 0.00207069)
(1.13086 0.00888715 0.00097798)
(1.10658 0.0072617 0.000829254)
(1.0847 -0.00140767 0.000598525)
(1.07408 -0.00458345 0.000699896)
(1.05998 -0.0149154 0.000573331)
(1.05868 -0.0201704 0.000578036)
(1.05047 -0.0320248 0.000538441)
(1.05885 -0.0390254 0.000408123)
(1.0571 -0.0506724 0.000523779)
(1.07601 -0.0570786 0.000294428)
(1.08049 -0.0638366 0.000638131)
(1.10605 -0.063859 0.000187626)
(1.11405 -0.0583257 -0.00225898)
(2.58647 0.0092072 0.0919676)
(2.15821 0.0123265 0.0746747)
(1.76147 0.0203931 0.0475483)
(1.48085 0.0177395 0.0263617)
(1.3159 0.0212865 0.0118616)
(1.22304 0.0141121 0.00432965)
(1.16568 0.0157074 0.00215082)
(1.12657 0.00628468 0.000870333)
(1.10142 0.00678694 0.000916457)
(1.0796 -0.00455256 0.000499547)
(1.06841 -0.00570658 0.000782989)
(1.05357 -0.0194181 0.000514202)
(1.05224 -0.0229196 0.000662577)
(1.04286 -0.0388956 0.000496223)
(1.05215 -0.0447804 0.000449732)
(1.04952 -0.0611147 0.00053484)
(1.07092 -0.0673726 0.000273582)
(1.07638 -0.0780964 0.000738157)
(1.10634 -0.0781512 7.61066e-05)
(1.11864 -0.0727139 -0.00219261)
(2.58546 0.00861045 0.0921132)
(2.15618 0.00958181 0.0746925)
(1.7581 0.0192069 0.0475996)
(1.47843 0.0151026 0.0262414)
(1.3113 0.0207305 0.011965)
(1.22003 0.0113415 0.00418693)
(1.16077 0.015745 0.00227505)
(1.12292 0.00332652 0.00072114)
(1.09624 0.0070413 0.0010476)
(1.0748 -0.00818955 0.000368809)
(1.06253 -0.00589259 0.000914974)
(1.04711 -0.0245154 0.000367131)
(1.04552 -0.0244898 0.000765118)
(1.03467 -0.0466901 0.000347394)
(1.04506 -0.0493773 0.000524997)
(1.04064 -0.0733195 0.000440793)
(1.06554 -0.0773295 0.000247116)
(1.07088 -0.095509 0.000841798)
(1.10735 -0.0944317 -0.000205052)
(1.12417 -0.090652 -0.00197918)
(2.58425 0.00807128 0.0922502)
(2.15501 0.00728157 0.0746371)
(1.75516 0.0185015 0.047701)
(1.477 0.0125222 0.0261107)
(1.30671 0.0205821 0.0120871)
(1.21811 0.0084924 0.0039916)
(1.15573 0.0163311 0.00244222)
(1.12023 0.000289274 0.000513483)
(1.09073 0.00804675 0.00123051)
(1.07081 -0.0119278 0.000114769)
(1.05623 -0.00498695 0.00111371)
(1.04105 -0.0298451 8.42771e-05)
(1.03824 -0.0245786 0.000985756)
(1.02599 -0.0551494 3.64476e-05)
(1.03723 -0.0522338 0.000731386)
(1.02998 -0.0873684 0.000127285)
(1.05972 -0.0859523 0.000328141)
(1.06255 -0.116986 0.000809501)
(1.10967 -0.111913 -0.000501437)
(1.12943 -0.113666 -0.00130378)
(2.58305 0.00741022 0.0923616)
(2.15456 0.00550996 0.074519)
(1.75264 0.0182068 0.0478243)
(1.47608 0.0100896 0.025979)
(1.30244 0.0208442 0.0122042)
(1.21672 0.00574768 0.00378825)
(1.15098 0.0174696 0.0026216)
(1.11791 -0.00267528 0.000277094)
(1.08548 0.00987753 0.00142334)
(1.0669 -0.0156699 -0.000146312)
(1.0501 -0.00280802 0.00132818)
(1.03461 -0.0353854 -0.000230763)
(1.03095 -0.0227633 0.00120301)
(1.0161 -0.0644367 -0.000350814)
(1.0291 -0.0524935 0.000961369)
(1.01662 -0.103886 -0.000354376)
(1.05359 -0.0915333 0.000457603)
(1.04941 -0.144759 0.000542278)
(1.11466 -0.127907 -0.000964537)
(1.13151 -0.146209 0.00184869)
(2.58205 0.00652718 0.092434)
(2.15476 0.00430637 0.0744083)
(1.75055 0.0181564 0.0479572)
(1.47551 0.00802011 0.025855)
(1.29853 0.021357 0.0123132)
(1.21575 0.00336079 0.00358027)
(1.14642 0.0189622 0.00279215)
(1.116 -0.00524743 3.67991e-05)
(1.08007 0.0123072 0.00161455)
(1.06343 -0.0189568 -0.00043674)
(1.04331 0.000353341 0.00155051)
(1.02861 -0.0403798 -0.000625329)
(1.02213 -0.0194059 0.00148371)
(1.00638 -0.0733709 -0.000930316)
(1.01802 -0.0505164 0.00135847)
(1.0026 -0.121428 -0.00127884)
(1.04272 -0.0942092 0.000944067)
(1.03383 -0.178522 -0.000495725)
(1.11587 -0.141288 -0.0012563)
(1.12878 -0.192453 0.00435806)
(2.58163 0.00529718 0.0924674)
(2.15514 0.00370335 0.0743255)
(1.74949 0.0182955 0.0480817)
(1.47421 0.00639791 0.0257679)
(1.29606 0.0220216 0.0124075)
(1.21358 0.00141731 0.00343653)
(1.14352 0.0207377 0.00295035)
(1.11239 -0.00735179 -0.000154895)
(1.07658 0.0152776 0.00178674)
(1.05757 -0.0216634 -0.000688825)
(1.03884 0.00449335 0.00175044)
(1.01909 -0.0446383 -0.000977807)
(1.01618 -0.0143428 0.0017111)
(0.991133 -0.0816699 -0.00147489)
(1.01041 -0.0457849 0.00169637)
(0.979507 -0.139797 -0.00223442)
(1.036 -0.092653 0.00136106)
(1.00437 -0.219552 -0.00156805)
(1.12291 -0.148389 -0.00191834)
(1.11038 -0.262272 0.00821276)
(2.58189 0.00384447 0.0924293)
(2.15602 0.0035638 0.0743337)
(1.74914 0.0186883 0.0481657)
(1.47252 0.00503773 0.0257538)
(1.29441 0.0228708 0.0124576)
(1.21117 -0.000343424 0.00334035)
(1.14137 0.0227862 0.00305369)
(1.10865 -0.00912865 -0.000258078)
(1.07344 0.0187962 0.00192415)
(1.05187 -0.0238338 -0.000841891)
(1.03415 0.00972024 0.0019354)
(1.01011 -0.0481032 -0.00123336)
(1.00891 -0.00723298 0.0019597)
(0.976786 -0.0890447 -0.00186757)
(0.99969 -0.0376891 0.00199569)
(0.957601 -0.158729 -0.0030613)
(1.02362 -0.0850721 0.00180937)
(0.974861 -0.270483 -0.00287466)
(1.12531 -0.142597 -0.00296554)
(1.07691 -0.371138 0.0142968)
(2.58259 0.00158403 0.0923206)
(2.15782 0.0041454 0.0744369)
(1.74887 0.0187505 0.0482886)
(1.47073 0.00438442 0.0258394)
(1.29281 0.0232113 0.0125187)
(1.20879 -0.00127235 0.00343942)
(1.13907 0.0243696 0.00319159)
(1.10526 -0.0101851 -0.000208164)
(1.07022 0.0219821 0.00207447)
(1.04698 -0.0253785 -0.00081074)
(1.02963 0.0149354 0.00209719)
(1.0026 -0.0509551 -0.00119857)
(1.00215 0.000451633 0.00207372)
(0.964701 -0.0958254 -0.00189748)
(0.989363 -0.0275288 0.00218876)
(0.938425 -0.178174 -0.00343656)
(1.01107 -0.0724665 0.00196889)
(0.950383 -0.331588 -0.00423206)
(1.13018 -0.12009 -0.00515551)
(1.03403 -0.53753 0.0247753)
(2.58326 -0.000343606 0.0920408)
(2.16262 0.00445609 0.0746605)
(1.74709 0.0190531 0.0483623)
(1.47188 0.0027805 0.026103)
(1.28834 0.0237327 0.0123901)
(1.21201 -0.00352798 0.00358646)
(1.13243 0.0264142 0.00321062)
(1.10989 -0.0124821 -1.54459e-05)
(1.06063 0.0261144 0.00220972)
(1.05343 -0.0279071 -0.000677112)
(1.01629 0.0219634 0.00246345)
(1.01063 -0.0541545 -0.00118542)
(0.983415 0.01163 0.00289513)
(0.972767 -0.101796 -0.0020811)
(0.963745 -0.0115034 0.00340302)
(0.944208 -0.195051 -0.00424899)
(0.9817 -0.0497994 0.00320863)
(0.956759 -0.395825 -0.00784674)
(1.12681 -0.0648947 -0.00449504)
(1.02024 -0.810114 0.0292079)
(2.58212 -0.00404069 0.0916556)
(2.17198 0.00739401 0.074907)
(1.74023 0.0160751 0.0486989)
(1.47886 0.00451061 0.0263812)
(1.27552 0.0199889 0.0124405)
(1.22396 -0.00120419 0.00384373)
(1.11387 0.0226035 0.00367843)
(1.12566 -0.00915959 9.7595e-05)
(1.03602 0.022633 0.00293772)
(1.07334 -0.0232072 -0.000711576)
(0.984844 0.0188923 0.00351688)
(1.03479 -0.0478621 -0.00115054)
(0.943122 0.00941483 0.00428491)
(1.00086 -0.095542 -0.00194577)
(0.910632 -0.0129645 0.00557247)
(0.975089 -0.200462 -0.00346726)
(0.916522 -0.0466019 0.00835737)
(0.992077 -0.47276 -0.00774725)
(1.13088 -0.00228094 -0.00529095)
(1.08392 -1.2606 0.0157287)
(2.58296 -0.00673562 0.0907528)
(2.18137 0.00988975 0.0759365)
(1.73516 0.012537 0.0485767)
(1.48457 0.00520627 0.0272848)
(1.26377 0.0149813 0.0115499)
(1.23601 0.000259046 0.00452111)
(1.09488 0.0171841 0.00289702)
(1.14366 -0.0075203 0.000891009)
(1.00742 0.0170465 0.00231004)
(1.09878 -0.020914 4.5479e-05)
(0.943232 0.0135462 0.00312883)
(1.0696 -0.0450865 -0.00026689)
(0.883744 0.00421677 0.00422159)
(1.04702 -0.0928561 -0.000372411)
(0.823899 -0.0194431 0.00560754)
(1.03968 -0.203223 -0.000208195)
(0.780073 -0.0558291 0.0133391)
(1.10554 -0.542418 -0.018901)
(1.01297 0.101658 0.0343465)
(1.20844 -1.67369 -0.0382608)
(2.58062 -0.00910431 0.0900009)
(2.19622 0.0157858 0.0764089)
(1.72203 0.00458076 0.0484897)
(1.50299 0.0130543 0.027038)
(1.24123 0.00162557 0.0109901)
(1.26678 0.0136274 0.00433369)
(1.05786 -0.000692309 0.00265351)
(1.1854 0.0116302 0.000153483)
(0.954925 -0.00681511 0.00224974)
(1.15303 0.00740722 -0.00109113)
(0.871043 -0.0181423 0.00322257)
(1.13849 -0.00240806 -0.00269719)
(0.784979 -0.0398017 0.00478977)
(1.13183 -0.0268561 -0.00488777)
(0.685155 -0.0876169 0.00737959)
(1.13688 -0.100108 -0.0102308)
(0.562662 -0.192732 0.0158936)
(1.21109 -0.405288 -0.0220294)
(0.398406 0.0201835 0.124706)
(1.20242 -2.10035 -0.11042)
(2.59674 -0.0131771 0.0898989)
(2.17839 0.0254473 0.0769695)
(1.7511 -0.00768497 0.0483967)
(1.46595 0.0278085 0.0270569)
(1.2965 -0.0154157 0.010459)
(1.21325 0.0351236 0.00530659)
(1.13518 -0.0233946 0.00177961)
(1.11145 0.0404308 0.00165753)
(1.05975 -0.0368554 0.00118927)
(1.04998 0.0466731 0.00144964)
(1.01104 -0.0585251 0.00180468)
(0.990626 0.0531073 0.00211289)
(0.97102 -0.0958831 0.00275016)
(0.911278 0.0563724 0.00221148)
(0.930163 -0.169607 0.0035214)
(0.782739 0.0368583 0.00279962)
(0.86465 -0.353856 -0.00117398)
(0.696125 -0.192792 0.0338777)
(0.736001 -0.819665 0.0378166)
(1.47118 -3.17591 -0.141592)
(2.92196 0.0359659 0.139393)
(2.97721 0.0459359 0.12778)
(2.84357 0.044278 0.0988807)
(2.64748 0.0416188 0.0666144)
(2.47019 0.0388078 0.0386261)
(2.31059 0.0359621 0.0224005)
(2.17076 0.0333221 0.0138394)
(2.04501 0.0303515 0.0091758)
(1.94064 0.0269395 0.00640248)
(1.8484 0.0236037 0.0049725)
(1.77489 0.0200907 0.00401898)
(1.70911 0.0168696 0.00366553)
(1.66012 0.0132325 0.00340309)
(1.61587 0.0104524 0.00346457)
(1.58739 0.0070675 0.00332567)
(1.56127 0.00479486 0.00359892)
(1.54897 0.00140203 0.00367974)
(1.53781 0.00107459 0.00370383)
(1.53382 -0.00127564 0.00351828)
(1.53166 -0.000634988 0.00335997)
(2.99001 0.0478198 0.140928)
(3.13325 0.0628904 0.1313)
(3.12084 0.062703 0.103259)
(3.02741 0.0614087 0.07541)
(2.93563 0.0598664 0.0490717)
(2.845 0.0573313 0.0316999)
(2.76884 0.0545057 0.0216278)
(2.69312 0.0510636 0.0154618)
(2.63661 0.0467123 0.0115932)
(2.57817 0.0418609 0.00920979)
(2.54071 0.0363585 0.00762496)
(2.49658 0.0309846 0.00655034)
(2.476 0.0245409 0.00586008)
(2.44333 0.0187282 0.00539351)
(2.43833 0.0119359 0.00504801)
(2.41681 0.00686824 0.00490524)
(2.42623 -1.57197e-05 0.00474862)
(2.41302 -0.00335772 0.00541336)
(2.43057 -0.00724931 0.00450219)
(2.42427 -0.00850236 0.00845542)
(2.99073 0.0241855 0.141009)
(3.125 0.0388785 0.13077)
(3.1221 0.0438407 0.101183)
(3.04329 0.0463584 0.0740352)
(2.96697 0.0484408 0.0485566)
(2.89154 0.0479459 0.031394)
(2.8325 0.0466645 0.0216175)
(2.77218 0.0439114 0.0155173)
(2.73243 0.0406532 0.0117528)
(2.68815 0.035883 0.00924789)
(2.66618 0.0305706 0.00772228)
(2.63372 0.0244155 0.0065007)
(2.62689 0.017449 0.00577378)
(2.60335 0.0100781 0.00498767)
(2.61091 0.00186976 0.00451374)
(2.59523 -0.00549744 0.00410341)
(2.61717 -0.0133927 0.00358512)
(2.60739 -0.0193131 0.00451644)
(2.63629 -0.0236807 0.00317401)
(2.63241 -0.0258551 0.00843085)
(2.99092 0.0209098 0.141487)
(3.11376 0.036416 0.13157)
(3.10757 0.0438424 0.101145)
(3.02889 0.0464091 0.0740141)
(2.9536 0.0491381 0.0486849)
(2.87947 0.0480676 0.0313279)
(2.82378 0.0468647 0.0214559)
(2.76592 0.0430548 0.0153021)
(2.73038 0.039547 0.0115357)
(2.6889 0.0336019 0.00897354)
(2.67145 0.0277774 0.00739544)
(2.64165 0.0201291 0.00611876)
(2.63929 0.012293 0.00534341)
(2.61793 0.00304858 0.00458926)
(2.62988 -0.00641267 0.00403933)
(2.61572 -0.0161357 0.0037269)
(2.64196 -0.0252871 0.00308293)
(2.63416 -0.0333774 0.00419914)
(2.66709 -0.0386095 0.0026951)
(2.66615 -0.0412204 0.00822284)
(2.99088 0.0157893 0.14187)
(3.10635 0.0269431 0.131915)
(3.09758 0.0357273 0.100941)
(3.01871 0.0380106 0.0735374)
(2.94341 0.042354 0.048306)
(2.86903 0.0409618 0.0308647)
(2.81398 0.0411083 0.0210046)
(2.75626 0.0365847 0.0148447)
(2.72154 0.0339202 0.0111581)
(2.68004 0.0270056 0.00864055)
(2.66332 0.0215279 0.00713046)
(2.63336 0.0123986 0.00586026)
(2.63186 0.00428023 0.00500992)
(2.61055 -0.00687975 0.0042474)
(2.62373 -0.0173052 0.00359899)
(2.61007 -0.0294408 0.0033006)
(2.63792 -0.0399609 0.00257583)
(2.63182 -0.0502383 0.00375706)
(2.66713 -0.0565757 0.00222346)
(2.66914 -0.0597834 0.00780502)
(2.99059 0.0136434 0.142222)
(3.10153 0.0216075 0.132152)
(3.09036 0.0325935 0.101152)
(3.01076 0.0339 0.0735785)
(2.93424 0.0401384 0.048561)
(2.85899 0.0373635 0.0309784)
(2.80345 0.0391862 0.0211777)
(2.74514 0.0330181 0.0148948)
(2.71046 0.0315891 0.0112745)
(2.66827 0.0227658 0.00866391)
(2.65191 0.018078 0.00714199)
(2.62098 0.00669922 0.00592167)
(2.61975 -0.00136591 0.0050636)
(2.59741 -0.015163 0.00438429)
(2.61106 -0.0264204 0.00369169)
(2.59703 -0.0415697 0.00350109)
(2.62584 -0.0538057 0.0026599)
(2.62113 -0.0667981 0.00387381)
(2.65878 -0.0747073 0.00226909)
(2.66422 -0.0789522 0.00777015)
(2.98992 0.0128123 0.142615)
(3.09822 0.0164915 0.132195)
(3.0846 0.02961 0.101437)
(3.00487 0.0284885 0.0735062)
(2.92661 0.037283 0.048765)
(2.85107 0.031901 0.0308764)
(2.79458 0.0364969 0.0212693)
(2.73589 0.027516 0.0147512)
(2.70096 0.0286984 0.0113291)
(2.65779 0.0167725 0.00860399)
(2.64152 0.0142627 0.00720301)
(2.60903 -0.000563276 0.0058776)
(2.60838 -0.00726136 0.00500864)
(2.58425 -0.0248467 0.00435221)
(2.59888 -0.036 0.00353167)
(2.58379 -0.0551555 0.00349025)
(2.61418 -0.0688766 0.00248812)
(2.61051 -0.0854279 0.00388057)
(2.65109 -0.0952777 0.00214956)
(2.66066 -0.10109 0.00768162)
(2.98877 0.0129387 0.143075)
(3.09611 0.0117592 0.131997)
(3.07968 0.0278588 0.101778)
(3.00092 0.0231699 0.0733032)
(2.91993 0.0357446 0.0490294)
(2.84503 0.0263119 0.0306574)
(2.78668 0.0352825 0.0214748)
(2.72813 0.0217729 0.0145166)
(2.69234 0.027555 0.0115104)
(2.64818 0.010573 0.00842719)
(2.63204 0.0124646 0.00732684)
(2.59723 -0.00806029 0.00579988)
(2.59756 -0.0110541 0.00507362)
(2.57017 -0.0348459 0.00440599)
(2.58656 -0.0438283 0.00349866)
(2.5686 -0.0693382 0.00367043)
(2.60157 -0.0833632 0.00236795)
(2.59781 -0.105417 0.00413524)
(2.64225 -0.117418 0.00206812)
(2.65666 -0.125822 0.0077058)
(2.98711 0.0137931 0.143593)
(3.09502 0.00700505 0.131583)
(3.07518 0.0274141 0.102208)
(2.9986 0.0175246 0.073025)
(2.91366 0.0355954 0.0493776)
(2.84062 0.0199562 0.0303043)
(2.77933 0.0355952 0.0217901)
(2.72166 0.0149858 0.0141626)
(2.68435 0.0282234 0.0117974)
(2.63933 0.00307399 0.00813727)
(2.62314 0.0127699 0.00756721)
(2.5854 -0.0170812 0.00558588)
(2.58737 -0.0124309 0.00517479)
(2.55515 -0.0465946 0.00430298)
(2.57484 -0.0492941 0.00341468)
(2.55147 -0.0856757 0.00378701)
(2.58915 -0.0967693 0.00207609)
(2.58304 -0.128282 0.00447115)
(2.63325 -0.141757 0.00185214)
(2.65275 -0.154527 0.00780261)
(2.98476 0.0150343 0.144153)
(3.09523 0.00216906 0.130973)
(3.07065 0.028149 0.102711)
(2.99806 0.0115291 0.0726353)
(2.9072 0.0367506 0.0498106)
(2.83819 0.0129635 0.0297653)
(2.77191 0.0374448 0.0222353)
(2.71707 0.00733363 0.0136026)
(2.67629 0.0308372 0.0122569)
(2.63194 -0.0055475 0.00755858)
(2.61438 0.0156245 0.00801827)
(2.57414 -0.0275703 0.00500434)
(2.57774 -0.0105371 0.00553513)
(2.53902 -0.060337 0.0038635)
(2.56401 -0.0510205 0.00354317)
(2.5309 -0.104837 0.00368603)
(2.5777 -0.107327 0.00170275)
(2.56351 -0.154935 0.00490128)
(2.62483 -0.167441 0.00110496)
(2.64752 -0.187364 0.00854209)
(2.98232 0.0164258 0.144651)
(3.09615 -0.00268585 0.130374)
(3.06664 0.0300191 0.103254)
(2.99818 0.00513764 0.0721874)
(2.90139 0.0393147 0.0502623)
(2.83648 0.00529448 0.029141)
(2.7654 0.0411063 0.0227358)
(2.71293 -0.00137699 0.012929)
(2.66945 0.035926 0.0127805)
(2.62439 -0.0157245 0.00684706)
(2.60719 0.0219186 0.00853318)
(2.56168 -0.0403929 0.00430098)
(2.57007 -0.00388812 0.00595337)
(2.51985 -0.0776021 0.0032936)
(2.5556 -0.0465891 0.00363138)
(2.50442 -0.129357 0.00360236)
(2.56891 -0.111453 0.000937663)
(2.53504 -0.189053 0.0058267)
(2.61908 -0.19132 -0.0013134)
(2.63837 -0.227782 0.0102663)
(2.98009 0.0176656 0.145051)
(3.09766 -0.00728084 0.129817)
(3.06323 0.0325781 0.103741)
(2.99888 -0.00120215 0.0717556)
(2.89604 0.0428465 0.0507038)
(2.83557 -0.00249258 0.0285273)
(2.75903 0.0460715 0.0232435)
(2.70983 -0.0104544 0.012235)
(2.66216 0.0428787 0.0133454)
(2.61808 -0.0265633 0.00604729)
(2.59867 0.0309041 0.0091702)
(2.55051 -0.0543481 0.00334405)
(2.5599 0.00676168 0.0066501)
(2.50142 -0.0969843 0.00220136)
(2.54309 -0.0363727 0.00430827)
(2.47672 -0.158206 0.00257881)
(2.5542 -0.108494 0.00115221)
(2.50142 -0.231334 0.0054743)
(2.60684 -0.211422 -0.00262278)
(2.62087 -0.279113 0.0098074)
(2.97999 0.0185362 0.145325)
(3.09743 -0.0115615 0.129399)
(3.06314 0.0356827 0.104185)
(2.9966 -0.00740067 0.07141)
(2.89489 0.0472346 0.0511207)
(2.83066 -0.0103771 0.0280337)
(2.75772 0.0522944 0.0237497)
(2.70138 -0.0199577 0.0116442)
(2.66106 0.0517679 0.0139169)
(2.60441 -0.0382264 0.00532014)
(2.59805 0.0428811 0.00980617)
(2.52893 -0.0698627 0.00245812)
(2.56016 0.0222179 0.00730144)
(2.46774 -0.119387 0.00124768)
(2.54446 -0.0186065 0.00470414)
(2.42623 -0.193351 0.00216864)
(2.55633 -0.0951322 5.2978e-05)
(2.43743 -0.285687 0.00797018)
(2.60756 -0.223644 -0.00814407)
(2.57974 -0.346207 0.0208204)
(2.98111 0.0192338 0.145324)
(3.09718 -0.0156772 0.129328)
(3.06472 0.0394847 0.104457)
(2.99381 -0.0135973 0.0713049)
(2.89516 0.0525644 0.0513968)
(2.82565 -0.0184991 0.0277748)
(2.7575 0.0597781 0.0240669)
(2.69356 -0.0299261 0.0113334)
(2.66013 0.0626256 0.0143196)
(2.59238 -0.0506592 0.00491691)
(2.59627 0.058081 0.0102968)
(2.51045 -0.086764 0.0019037)
(2.55729 0.0430906 0.00785522)
(2.43853 -0.144614 0.000579777)
(2.54052 0.00822181 0.00512871)
(2.38006 -0.23553 0.00157721)
(2.55302 -0.0677332 -0.000406392)
(2.37059 -0.356312 0.00956501)
(2.60869 -0.222733 -0.0124079)
(2.52082 -0.434367 0.0328333)
(2.98217 0.018407 0.145098)
(3.09851 -0.0187464 0.129677)
(3.06646 0.0425262 0.104705)
(2.99198 -0.0186564 0.0715746)
(2.89537 0.0572205 0.0516648)
(2.82201 -0.0256068 0.0280068)
(2.75699 0.0668949 0.0244375)
(2.68774 -0.0391959 0.0114883)
(2.65919 0.0736498 0.0146613)
(2.5835 -0.0629364 0.00502065)
(2.59537 0.074241 0.0105453)
(2.49685 -0.104335 0.00198574)
(2.55702 0.066625 0.0078377)
(2.41628 -0.172165 0.000511265)
(2.54231 0.0412174 0.00466948)
(2.34111 -0.284115 0.00161899)
(2.5615 -0.0287351 -0.00273297)
(2.30585 -0.444118 0.0124232)
(2.6339 -0.210214 -0.0204639)
(2.44965 -0.542801 0.0510951)
(2.97795 0.0183467 0.144193)
(3.10939 -0.0225721 0.130804)
(3.06084 0.0468593 0.104568)
(3.00208 -0.0251184 0.0722497)
(2.88481 0.0633592 0.0516106)
(2.83579 -0.0347167 0.0282971)
(2.74275 0.0760382 0.024634)
(2.70571 -0.0505612 0.0115782)
(2.6404 0.0877481 0.0152162)
(2.60651 -0.0772364 0.00463998)
(2.57244 0.0951974 0.0116408)
(2.52486 -0.123488 0.000756327)
(2.53102 0.0980764 0.00975546)
(2.44551 -0.200759 -0.00201316)
(2.51787 0.0873295 0.00727635)
(2.3606 -0.335026 -0.00299596)
(2.55449 0.0325892 -0.00168981)
(2.29229 -0.545507 0.00715154)
(2.67788 -0.168952 -0.0270293)
(2.3943 -0.68758 0.068164)
(2.96193 0.0120121 0.14313)
(3.13684 -0.018707 0.131749)
(3.03744 0.0432295 0.105257)
(3.03266 -0.0228254 0.072808)
(2.84957 0.0597956 0.0524954)
(2.87583 -0.0332184 0.0282735)
(2.69622 0.07324 0.026594)
(2.75496 -0.0495416 0.0109744)
(2.58223 0.0874092 0.0181693)
(2.66636 -0.0772715 0.00324416)
(2.50302 0.0989782 0.0157902)
(2.59612 -0.126837 -0.00167873)
(2.45163 0.110804 0.0155097)
(2.52689 -0.214379 -0.00673303)
(2.4358 0.117896 0.0157638)
(2.44017 -0.382563 -0.0124802)
(2.50096 0.0948133 0.0102471)
(2.32886 -0.690354 -0.0100379)
(2.75136 -0.0900951 -0.0369982)
(2.3942 -0.978803 0.0763472)
(2.94629 0.00676486 0.140236)
(3.16625 -0.0149085 0.13396)
(3.01346 0.0392186 0.104544)
(3.06497 -0.0216452 0.0753962)
(2.81012 0.0555337 0.0510684)
(2.92145 -0.0330172 0.0298504)
(2.63999 0.0705287 0.0258304)
(2.81611 -0.0505226 0.0122269)
(2.505 0.0877849 0.0186797)
(2.7482 -0.0794888 0.0035148)
(2.40022 0.105044 0.018625)
(2.7026 -0.131856 -0.00384755)
(2.32057 0.127748 0.0225574)
(2.66163 -0.226506 -0.0138721)
(2.28232 0.157787 0.0299621)
(2.60354 -0.419415 -0.031767)
(2.36622 0.183262 0.0382853)
(2.50176 -0.81861 -0.0666184)
(2.8272 0.0168459 -0.025399)
(2.42339 -1.22964 0.0109058)
(2.9145 -0.00712842 0.138292)
(3.22043 0.00547464 0.134083)
(2.95811 0.0168887 0.104814)
(3.13593 0.00310539 0.0741884)
(2.72481 0.0237744 0.0509768)
(3.02106 0.000104775 0.0275828)
(2.5158 0.0301564 0.0277962)
(2.94369 -0.0072592 0.00797079)
(2.33353 0.0360857 0.0227008)
(2.9082 -0.021456 -0.00364391)
(2.16752 0.0407142 0.0256864)
(2.89743 -0.0533158 -0.0157531)
(2.00252 0.0488169 0.0358142)
(2.89319 -0.123141 -0.034872)
(1.83242 0.0702724 0.0575026)
(2.86346 -0.30453 -0.0723348)
(1.66648 0.144713 0.105811)
(2.76091 -0.840815 -0.136068)
(1.63586 0.366243 0.241637)
(2.15576 -1.71163 -0.183542)
(2.99195 -0.0263599 0.137228)
(3.13316 0.0345184 0.134452)
(3.07169 -0.0135273 0.10355)
(3.01208 0.0380719 0.0745093)
(2.88625 -0.0156948 0.0477594)
(2.86133 0.0448909 0.0298425)
(2.72957 -0.0197884 0.0233515)
(2.73501 0.0498151 0.0120065)
(2.61213 -0.0287887 0.0162239)
(2.63124 0.0534571 0.00409193)
(2.52619 -0.043995 0.0160518)
(2.52473 0.0487215 -0.000732967)
(2.45256 -0.0670317 0.0196155)
(2.3874 0.0226469 -0.0045262)
(2.35932 -0.095988 0.027136)
(2.18322 -0.0817686 -0.00524847)
(2.12328 -0.107635 0.0428238)
(1.95057 -0.565019 0.0142433)
(1.58163 0.227745 0.323686)
(2.78693 -3.18272 -0.267368)
(2.93899 0.0356969 0.0837927)
(3.11304 0.0464828 0.0896533)
(3.15314 0.0462354 0.0781493)
(3.1057 0.0458919 0.0605149)
(3.03146 0.0445898 0.0420228)
(2.93617 0.0426302 0.0298799)
(2.83547 0.040595 0.0224206)
(2.72746 0.0384532 0.0172568)
(2.62794 0.0355727 0.013317)
(2.52939 0.0326655 0.0105511)
(2.44493 0.0292636 0.00838234)
(2.36277 0.0262177 0.00696415)
(2.29725 0.0222615 0.00597464)
(2.23447 0.0190871 0.00545899)
(2.18965 0.015277 0.00488908)
(2.1462 0.0126761 0.00492756)
(2.1204 0.00831035 0.00498953)
(2.09602 0.00739764 0.00513574)
(2.083 0.00411984 0.00500925)
(2.07143 0.00610605 0.00407015)
(3.00737 0.0475379 0.0845342)
(3.26832 0.0637676 0.0923499)
(3.43131 0.0652631 0.0799949)
(3.49892 0.0671219 0.0660858)
(3.53669 0.0678151 0.049872)
(3.53896 0.0671977 0.0378122)
(3.53602 0.0658212 0.0302665)
(3.50978 0.0640131 0.0246821)
(3.49346 0.0610593 0.0205041)
(3.45901 0.0576905 0.0172477)
(3.44282 0.0530362 0.0147861)
(3.40824 0.0486517 0.0126172)
(3.39834 0.0427207 0.0111035)
(3.36812 0.0373487 0.00993699)
(3.3675 0.0302704 0.00886445)
(3.34492 0.0251542 0.00833812)
(3.35596 0.0177534 0.00724155)
(3.34185 0.0134623 0.00898198)
(3.36041 0.00770691 0.00634052)
(3.35261 0.00694474 0.0144324)
(3.00823 0.0242648 0.0845942)
(3.26073 0.0395582 0.092012)
(3.43118 0.0456595 0.0780464)
(3.51112 0.0501592 0.0644549)
(3.5648 0.0540732 0.0488769)
(3.58355 0.0555325 0.0368745)
(3.60122 0.0561596 0.0296908)
(3.59478 0.0551222 0.0243414)
(3.60108 0.0536194 0.0205428)
(3.58738 0.050605 0.0172982)
(3.59393 0.0466601 0.0150974)
(3.57905 0.0418435 0.0129211)
(3.59028 0.0358829 0.0115185)
(3.57741 0.0294385 0.0100322)
(3.59602 0.0217545 0.00890712)
(3.58716 0.0143817 0.00834554)
(3.6152 0.00644055 0.00660105)
(3.61223 -0.000544529 0.00874496)
(3.64526 -0.00655671 0.0053131)
(3.64627 -0.0104218 0.0150491)
(3.00844 0.0211956 0.084871)
(3.25064 0.0368486 0.092491)
(3.41822 0.0455609 0.0779844)
(3.49777 0.0496771 0.0642946)
(3.55217 0.0542938 0.0488528)
(3.57119 0.0551206 0.0366324)
(3.59161 0.0560675 0.0292974)
(3.58711 0.0540451 0.0238628)
(3.59746 0.0525249 0.0200688)
(3.58686 0.0483983 0.0167905)
(3.59834 0.0441545 0.0145815)
(3.58715 0.0379212 0.0123967)
(3.60377 0.0312817 0.0109595)
(3.59453 0.0230516 0.00950159)
(3.61882 0.0144024 0.00823844)
(3.61335 0.00472371 0.00782192)
(3.64665 -0.00439844 0.00591373)
(3.64711 -0.0137397 0.00841693)
(3.68498 -0.0206934 0.00468584)
(3.68985 -0.0263456 0.0150031)
(3.00847 0.0163662 0.0851699)
(3.24387 0.0269041 0.0927021)
(3.40923 0.0370053 0.0779241)
(3.48801 0.0399935 0.0639341)
(3.54214 0.0460966 0.0485742)
(3.56017 0.0461529 0.0362369)
(3.58076 0.048498 0.028845)
(3.57581 0.0456337 0.023366)
(3.58667 0.0450944 0.0196001)
(3.57583 0.0400159 0.0163499)
(3.58791 0.0363284 0.0141647)
(3.57659 0.0287554 0.0120261)
(3.59396 0.0220411 0.0105454)
(3.58477 0.0120706 0.00913048)
(3.6101 0.00273325 0.00776901)
(3.60524 -0.00913588 0.00733823)
(3.63993 -0.0195747 0.00531853)
(3.64193 -0.031166 0.00785419)
(3.68189 -0.0393963 0.00410671)
(3.68929 -0.0464473 0.0144093)
(3.00831 0.0146774 0.0854875)
(3.23937 0.0210725 0.0927954)
(3.40299 0.0338409 0.0782269)
(3.48075 0.0350019 0.0640174)
(3.53405 0.0432614 0.0488874)
(3.55071 0.0414354 0.0364212)
(3.57078 0.0456456 0.0290623)
(3.56464 0.0409275 0.0234752)
(3.57538 0.0418203 0.0197338)
(3.56334 0.0348096 0.0164378)
(3.57549 0.0320677 0.0141881)
(3.56297 0.022355 0.0121097)
(3.58043 0.0158261 0.0105259)
(3.57017 0.00346167 0.00923316)
(3.59561 -0.00659058 0.00780567)
(3.59025 -0.0211283 0.00755939)
(3.62535 -0.033221 0.00544258)
(3.62812 -0.0474971 0.00800912)
(3.66969 -0.0575118 0.00419635)
(3.67955 -0.0663011 0.0143952)
(3.00786 0.0145976 0.085893)
(3.2361 0.0152448 0.0926622)
(3.39813 0.0311882 0.0786281)
(3.47516 0.0286533 0.0639842)
(3.52747 0.0401391 0.04918)
(3.543 0.0348271 0.0364089)
(3.56254 0.042249 0.0292219)
(3.55514 0.0341999 0.0234122)
(3.56589 0.038028 0.0198082)
(3.55222 0.0277328 0.0164354)
(3.56458 0.0273612 0.0142164)
(3.55011 0.014291 0.0121621)
(3.56795 0.00916856 0.0104752)
(3.55579 -0.00658587 0.00930303)
(3.58168 -0.0165794 0.00762041)
(3.57523 -0.0345665 0.00757324)
(3.61107 -0.0481336 0.00526386)
(3.61442 -0.0657198 0.00799408)
(3.6579 -0.0778332 0.0041047)
(3.67073 -0.0888536 0.0143021)
(3.00698 0.0158845 0.0864177)