x,y,z,U_0,U_1,U_2
0,0,0,0.3,-0.000459381,0
0,0.1,0,0.3,-0.000275628,0
0,0.2,0,0.3,-9.18761e-05,0
0,0.3,0,0.3,0,0
0,0.4,0,0.3,0,0
0,0.5,0,0.3,-2.2829e-19,0
0,0.6,0,0.3,0,0
0,0.7,0,0.3,0,0
0,0.8,0,0.3,0,0
0,0.9,0,0.3,0,0
0,1,0,0.3,0,0
0,1.1,0,0.3,0,0
0,1.2,0,0.3,0,0
0,1.3,0,0.3,0,0
0,1.4,0,0.3,0,0
0,1.5,0,0.3,0,0
0,1.6,0,0.3,0,0
0,1.7,0,0.3,0,0
0,1.8,0,0.3,0,0
0,1.9,0,0.3,0,0
0,2,0,0.3,0,0
0,2.1,0,0.3,0,0
0,2.2,0,0.3,0,0
0,2.3,0,0.3,0,0
0,2.4,0,0.3,0,0
0,2.5,0,0.3,0,0
0,2.6,0,0.3,0,0
0,2.7,0,0.3,0,0
0,2.8,0,0.3,0,0
0,2.9,0,0.3,0,0
0,3,0,0.3,-1.71073e-19,0
0,3.1,0,0.3,0,0
0,3.2,0,0.3,0,0
0,3.3,0,0.3,0,0
0,3.4,0,0.3,0,0
0,3.5,0,0.3,0,0
0,3.6,0,0.3,0,0
0,3.7,0,0.3,0,0
0,3.8,0,0.3,0,0
0,3.9,0,0.3,0,0
0,4,0,0.3,-1.2651e-19,0
0,4.1,0,0.3,0,0
0,4.2,0,0.3,0,0
0,4.3,0,0.3,0,0
0,4.4,0,0.3,0,0
0,4.5,0,0.3,0,0
0,4.6,0,0.3,0,0
0,4.7,0,0.3,0,0
0,4.8,0,0.3,0,0
0,4.9,0,0.3,0,0
0,5,0,0.3,0,0
0,5.1,0,0.3,0,0
0,5.2,0,0.3,0,0
0,5.3,0,0.3,0,0
0,5.4,0,0.3,-5.03694e-20,0
0,5.5,0,0.3,0,0
0,5.6,0,0.3,0,0
0,5.7,0,0.3,0,0
0,5.8,0,0.3,-2.69344e-20,0
0,5.9,0,0.3,0,0
0,6,0,0.3,-1.509e-20,0
0,6.1,0,0.3,0,0
0,6.2,0,0.3,-3.24179e-21,0
0,6.3,0,0.3,0,0
0,6.4,0,0.3,0,0
0,6.5,0,0.3,0,0
0,6.6,0,0.3,0,0
0,6.7,0,0.3,0,0
0,6.8,0,0.3,3.17401e-20,0
0,6.9,0,0.3,0,0
0,7,0,0.3,0,0
0,7.1,0,0.3,0,0
0,7.2,0,0.3,0,0
0,7.3,0,0.3,0,0
0,7.4,0,0.3,0,0
0,7.5,0,0.3,0,0
0,7.6,0,0.3,0,0
0,7.7,0,0.3,0,0
0,7.8,0,0.3,0,0
0,7.9,0,0.3,0,0
0,8,0,0.3,0,0
0,8.1,0,0.3,0,0
0,8.2,0,0.3,0,0
0,8.3,0,0.3,0,0
0,8.4,0,0.3,0,0
0,8.5,0,0.3,0,0
0,8.6,0,0.3,0,0
0,8.7,0,0.3,0,0
0,8.8,0,0.3,0,0
0,8.9,0,0.3,0,0
0,9,0,0.3,0,0
0,9.1,0,0.3,0,0
0,9.2,0,0.3,0,0
0,9.3,0,0.3,0,0
0,9.4,0,0.3,0,0
0,9.5,0,0.3,0,0
0,9.6,0,0.3,0,0
0,9.7,0,0.3,0,0
0,9.8,0,0.3,0,0
0,9.9,0,0.3,0,0
0,10,0,0.3,0,0
0,10.1,0,0.3,0,0
0,10.2,0,0.3,0,0
0,10.3,0,0.3,0,0
0,10.4,0,0.3,0,0
0,10.5,0,0.3,0,0
0,10.6,0,0.3,0,0
0,10.7,0,0.3,0,0
0,10.8,0,0.3,0,0
0,10.9,0,0.3,0,0
0,11,0,0.3,0,0
0,11.1,0,0.3,0,0
0,11.2,0,0.3,0,0
0,11.3,0,0.3,0,0
0,11.4,0,0.3,0,0
0,11.5,0,0.3,0,0
0,11.6,0,0.3,0,0
0,11.7,0,0.3,0,0
0,11.8,0,0.3,0,0
0,11.9,0,0.3,0,0
0,12,0,0.3,0,0
0,12.1,0,0.3,0,0
0,12.2,0,0.3,0,0
0,12.3,0,0.3,0,0
0,12.4,0,0.3,0,0
0,12.5,0,0.3,0.000135712,0
0,12.6,0,0.3,0.000295374,0
0,12.7,0,0.3,0.000455035,0
0.1,0,0,0.299999,-0.000752342,0
0.1,0.1,0,0.299999,-0.000544106,0
0.1,0.2,0,0.3,-0.000360354,0
0.1,0.3,0,0.299999,-0.000350056,0
0.1,0.4,0,0.299999,-0.000350056,0
0.1,0.5,0,0.299997,-0.000373864,0
0.1,0.6,0,0.299998,-0.000346391,0
0.1,0.7,0,0.299998,-0.000346391,0
0.1,0.8,0,0.299997,-0.0003411,0
0.1,0.9,0,0.299997,-0.0003411,0
0.1,1,0,0.299993,-0.000366006,0
0.1,1.1,0,0.299997,-0.00033437,0
0.1,1.2,0,0.299997,-0.00033437,0
0.1,1.3,0,0.299997,-0.0003264,0
0.1,1.4,0,0.299997,-0.0003264,0
0.1,1.5,0,0.29999,-0.000352818,0
0.1,1.6,0,0.299999,-0.000317388,0
0.1,1.7,0,0.299999,-0.000317388,0
0.1,1.8,0,0.300001,-0.000307516,0
0.1,1.9,0,0.300001,-0.000307516,0
0.1,2,0,0.299988,-0.000334122,0
0.1,2.1,0,0.300004,-0.000296913,0
0.1,2.2,0,0.300004,-0.000296913,0
0.1,2.3,0,0.30001,-0.000285625,0
0.1,2.4,0,0.30001,-0.000285625,0
0.1,2.5,0,0.299984,-0.000309833,0
0.1,2.6,0,0.300017,-0.000273592,0
0.1,2.7,0,0.300017,-0.000273592,0
0.1,2.8,0,0.300027,-0.00026065,0
0.1,2.9,0,0.300027,-0.00026065,0
0.1,3,0,0.29998,-0.000280162,0
0.1,3.1,0,0.300038,-0.000246569,0
0.1,3.2,0,0.300038,-0.000246569,0
0.1,3.3,0,0.30005,-0.000231133,0
0.1,3.4,0,0.30005,-0.000231133,0
0.1,3.5,0,0.299976,-0.000245704,0
0.1,3.6,0,0.300061,-0.000214231,0
0.1,3.7,0,0.300061,-0.000214231,0
0.1,3.8,0,0.30007,-0.000195936,0
0.1,3.9,0,0.30007,-0.000195936,0
0.1,4,0,0.299972,-0.000207182,0
0.1,4.1,0,0.300076,-0.000176526,0
0.1,4.2,0,0.300076,-0.000176526,0
0.1,4.3,0,0.300079,-0.000156443,0
0.1,4.4,0,0.300079,-0.000156443,0
0.1,4.5,0,0.29997,-0.000165052,0
0.1,4.6,0,0.300077,-0.000136241,0
0.1,4.7,0,0.300077,-0.000136241,0
0.1,4.8,0,0.300073,-0.000116259,0
0.1,4.9,0,0.300073,-0.000116259,0
0.1,5,0,0.29997,-0.000120989,0
0.1,5.1,0,0.300068,-9.7848e-05,0
0.1,5.2,0,0.29997,-0.000101309,0
0.1,5.3,0,0.300064,-8.11265e-05,0
0.1,5.4,0,0.299971,-8.24886e-05,0
0.1,5.5,0,0.30006,-6.46647e-05,0
0.1,5.6,0,0.299971,-6.34014e-05,0
0.1,5.7,0,0.300057,-4.85113e-05,0
0.1,5.8,0,0.299971,-4.41097e-05,0
0.1,5.9,0,0.300056,-3.25016e-05,0
0.1,6,0,0.299971,-2.47125e-05,0
0.1,6.1,0,0.300056,-1.64782e-05,0
0.1,6.2,0,0.299971,-5.30899e-06,0
0.1,6.3,0,0.300058,-2.94574e-07,0
0.1,6.4,0,0.299971,1.39992e-05,0
0.1,6.5,0,0.300061,1.61914e-05,0
0.1,6.6,0,0.29997,3.31105e-05,0
0.1,6.7,0,0.300065,3.31402e-05,0
0.1,6.8,0,0.29997,5.19799e-05,0
0.1,6.9,0,0.300069,5.04047e-05,0
0.1,7,0,0.299969,7.25687e-05,0
0.1,7.1,0,0.300073,7.05342e-05,0
0.1,7.2,0,0.300073,7.05342e-05,0
0.1,7.3,0,0.3,9.59068e-05,0
0.1,7.4,0,0.300076,9.30425e-05,0
0.1,7.5,0,0.300076,9.30425e-05,0
0.1,7.6,0,0.30003,0.000118789,0
0.1,7.7,0,0.300075,0.000115823,0
0.1,7.8,0,0.300075,0.000115823,0
0.1,7.9,0,0.300056,0.000139493,0
0.1,8,0,0.300069,0.000138252,0
0.1,8.1,0,0.300047,0.000145818,0
0.1,8.2,0,0.300059,0.000159617,0
0.1,8.3,0,0.300059,0.000159617,0
0.1,8.4,0,0.300015,0.000177444,0
0.1,8.5,0,0.300046,0.000179561,0
0.1,8.6,0,0.300046,0.000179561,0
0.1,8.7,0,0.29999,0.000208564,0
0.1,8.8,0,0.300033,0.000198055,0
0.1,8.9,0,0.300033,0.000198055,0
0.1,9,0,0.299983,0.000233646,0
0.1,9.1,0,0.300022,0.000215326,0
0.1,9.2,0,0.300022,0.000215326,0
0.1,9.3,0,0.299993,0.000245544,0
0.1,9.4,0,0.300013,0.000231698,0
0.1,9.5,0,0.300013,0.000231698,0
0.1,9.6,0,0.299999,0.00025519,0
0.1,9.7,0,0.300006,0.000247433,0
0.1,9.8,0,0.300005,0.000248815,0
0.1,9.9,0,0.300001,0.000263488,0
0.1,10,0,0.300001,0.00026264,0
0.1,10.1,0,0.299996,0.000274989,0
0.1,10.2,0,0.299999,0.000277262,0
0.1,10.3,0,0.299999,0.000277262,0
0.1,10.4,0,0.299992,0.00029919,0
0.1,10.5,0,0.299997,0.000291119,0
0.1,10.6,0,0.299997,0.000291119,0
0.1,10.7,0,0.29999,0.000320566,0
0.1,10.8,0,0.299997,0.000303965,0
0.1,10.9,0,0.299997,0.000303965,0
0.1,11,0,0.299992,0.000329584,0
0.1,11.1,0,0.299997,0.000315541,0
0.1,11.2,0,0.299997,0.000315541,0
0.1,11.3,0,0.299994,0.00033342,0
0.1,11.4,0,0.299997,0.000325604,0
0.1,11.5,0,0.299997,0.000325604,0
0.1,11.6,0,0.299997,0.000336931,0
0.1,11.7,0,0.299998,0.000333947,0
0.1,11.8,0,0.299997,0.000336315,0
0.1,11.9,0,0.299999,0.000340389,0
0.1,12,0,0.299999,0.000340389,0
0.1,12.1,0,0.299998,0.000346735,0
0.1,12.2,0,0.299999,0.000344781,0
0.1,12.3,0,0.299999,0.000344781,0
0.1,12.4,0,0.299998,0.000353869,0
0.1,12.5,0,0.3,0.000400058,0
0.1,12.6,0,0.3,0.000559719,0
0.1,12.7,0,0.299999,0.000730578,0
0.2,0,0,0.299998,-0.0010453,0
0.2,0.1,0,0.299999,-0.000812585,0
0.2,0.2,0,0.299998,-0.000725447,0
0.2,0.3,0,0.299997,-0.000723307,0
0.2,0.4,0,0.299998,-0.000700113,0
0.2,0.5,0,0.299993,-0.000747728,0
0.2,0.6,0,0.299996,-0.000692781,0
0.2,0.7,0,0.299993,-0.000714563,0
0.2,0.8,0,0.299993,-0.000708744,0
0.2,0.9,0,0.299995,-0.0006822,0
0.2,1,0,0.299987,-0.000732011,0
0.2,1.1,0,0.299994,-0.00066874,0
0.2,1.2,0,0.299989,-0.000691887,0
0.2,1.3,0,0.29999,-0.00068312,0
0.2,1.4,0,0.299995,-0.000652799,0
0.2,1.5,0,0.299981,-0.000705636,0
0.2,1.6,0,0.299997,-0.000634776,0
0.2,1.7,0,0.299989,-0.000658878,0
0.2,1.8,0,0.299991,-0.000648019,0
0.2,1.9,0,0.300001,-0.000615032,0
0.2,2,0,0.299975,-0.000668244,0
0.2,2.1,0,0.300009,-0.000593825,0
0.2,2.2,0,0.299992,-0.000617009,0
0.2,2.3,0,0.299998,-0.000604593,0
0.2,2.4,0,0.30002,-0.00057125,0
0.2,2.5,0,0.299969,-0.000619665,0
0.2,2.6,0,0.300034,-0.000547185,0
0.2,2.7,0,0.300003,-0.000567028,0
0.2,2.8,0,0.300013,-0.000552791,0
0.2,2.9,0,0.300053,-0.0005213,0
0.2,3,0,0.299961,-0.000560323,0
0.2,3.1,0,0.300076,-0.000493139,0
0.2,3.2,0,0.300022,-0.000508362,0
0.2,3.3,0,0.300035,-0.000491382,0
0.2,3.4,0,0.3001,-0.000462266,0
0.2,3.5,0,0.299951,-0.000491407,0
0.2,3.6,0,0.300122,-0.000428461,0
0.2,3.7,0,0.300043,-0.000439875,0
0.2,3.8,0,0.300053,-0.000419751,0
0.2,3.9,0,0.30014,-0.000391871,0
0.2,4,0,0.299943,-0.000414364,0
0.2,4.1,0,0.300153,-0.000353052,0
0.2,4.2,0,0.300057,-0.000362078,0
0.2,4.3,0,0.30006,-0.000339986,0
0.2,4.4,0,0.300157,-0.000312886,0
0.2,4.5,0,0.299939,-0.000330104,0
0.2,4.6,0,0.300154,-0.000272481,0
0.2,4.7,0,0.300057,-0.000278339,0
0.2,4.8,0,0.300053,-0.000256359,0
0.2,4.9,0,0.300146,-0.000232519,0
0.2,5,0,0.29994,-0.000241977,0
0.2,5.1,0,0.300137,-0.000195696,0
0.2,5.2,0,0.299941,-0.000202619,0
0.2,5.3,0,0.300128,-0.000162253,0
0.2,5.4,0,0.299941,-0.000164977,0
0.2,5.5,0,0.30012,-0.000129329,0
0.2,5.6,0,0.299942,-0.000126803,0
0.2,5.7,0,0.300114,-9.70225e-05,0
0.2,5.8,0,0.299942,-8.82195e-05,0
0.2,5.9,0,0.300112,-6.50032e-05,0
0.2,6,0,0.299942,-4.9425e-05,0
0.2,6.1,0,0.300113,-3.29564e-05,0
0.2,6.2,0,0.299942,-1.0618e-05,0
0.2,6.3,0,0.300116,-5.89148e-07,0
0.2,6.4,0,0.299941,2.79984e-05,0
0.2,6.5,0,0.300122,3.23828e-05,0
0.2,6.6,0,0.29994,6.6221e-05,0
0.2,6.7,0,0.30013,6.62804e-05,0
0.2,6.8,0,0.299939,0.00010396,0
0.2,6.9,0,0.300139,0.000100809,0
0.2,7,0,0.299938,0.000145137,0
0.2,7.1,0,0.30014,0.000141211,0
0.2,7.2,0,0.300109,0.000150613,0
0.2,7.3,0,0.299969,0.000192981,0
0.2,7.4,0,0.300153,0.000186085,0
0.2,7.5,0,0.300083,0.000205445,0
0.2,7.6,0,0.3,0.000241655,0
0.2,7.7,0,0.30015,0.000231645,0
0.2,7.8,0,0.300052,0.000261547,0
0.2,7.9,0,0.300027,0.000287174,0
0.2,8,0,0.300138,0.000276505,0
0.2,8.1,0,0.300019,0.000317244,0
0.2,8.2,0,0.300045,0.000329178,0
0.2,8.3,0,0.300118,0.000319233,0
0.2,8.4,0,0.29999,0.000371508,0
0.2,8.5,0,0.300053,0.000367136,0
0.2,8.6,0,0.300092,0.000359121,0
0.2,8.7,0,0.299967,0.000424063,0
0.2,8.8,0,0.300052,0.000400701,0
0.2,8.9,0,0.300058,0.000402368,0
0.2,9,0,0.299963,0.000469249,0
0.2,9.1,0,0.300044,0.000430652,0
0.2,9.2,0,0.300025,0.000448406,0
0.2,9.3,0,0.299975,0.00049979,0
0.2,9.4,0,0.300025,0.000463396,0
0.2,9.5,0,0.300003,0.00049295,0
0.2,9.6,0,0.299982,0.000526525,0
0.2,9.7,0,0.300012,0.000494865,0
0.2,9.8,0,0.29999,0.000535632,0
0.2,9.9,0,0.299986,0.000550306,0
0.2,10,0,0.300003,0.00052528,0
0.2,10.1,0,0.299982,0.000575678,0
0.2,10.2,0,0.299988,0.000571991,0
0.2,10.3,0,0.299998,0.000554524,0
0.2,10.4,0,0.299979,0.000612164,0
0.2,10.5,0,0.29999,0.000592206,0
0.2,10.6,0,0.299995,0.000582237,0
0.2,10.7,0,0.299978,0.000644278,0
0.2,10.8,0,0.299993,0.000611221,0
0.2,10.9,0,0.299992,0.000615555,0
0.2,11,0,0.299982,0.000662526,0
0.2,11.1,0,0.299994,0.000631081,0
0.2,11.2,0,0.299991,0.000644988,0
0.2,11.3,0,0.299986,0.000674125,0
0.2,11.4,0,0.299995,0.000651209,0
0.2,11.5,0,0.299991,0.000669253,0
0.2,11.6,0,0.29999,0.000683963,0
0.2,11.7,0,0.299996,0.000667893,0
0.2,11.8,0,0.299992,0.000688264,0
0.2,11.9,0,0.299994,0.000691628,0
0.2,12,0,0.299997,0.000680779,0
0.2,12.1,0,0.299994,0.000702196,0
0.2,12.2,0,0.299996,0.000696495,0
0.2,12.3,0,0.299998,0.000689563,0
0.2,12.4,0,0.299996,0.000711439,0
0.2,12.5,0,0.299999,0.000697931,0
0.2,12.6,0,0.3,0.00082485,0
0.2,12.7,0,0.299998,0.00100612,0
0.3,0,0,0.299997,-0.00133826,0
0.3,0.1,0,0.299998,-0.00110065,0
0.3,0.2,0,0.299996,-0.00110127,0
0.3,0.3,0,0.299995,-0.00109913,0
0.3,0.4,0,0.299995,-0.00106922,0
0.3,0.5,0,0.29999,-0.00112159,0
0.3,0.6,0,0.299993,-0.00106115,0
0.3,0.7,0,0.299988,-0.00108516,0
0.3,0.8,0,0.299988,-0.00107934,0
0.3,0.9,0,0.299989,-0.00104322,0
0.3,1,0,0.29998,-0.00109802,0
0.3,1.1,0,0.299988,-0.00102842,0
0.3,1.2,0,0.299981,-0.00105198,0
0.3,1.3,0,0.299982,-0.00104321,0
0.3,1.4,0,0.299987,-0.00100033,0
0.3,1.5,0,0.299971,-0.00105845,0
0.3,1.6,0,0.299989,-0.000980508,0
0.3,1.7,0,0.299978,-0.00100305,0
0.3,1.8,0,0.29998,-0.000992188,0
0.3,1.9,0,0.299992,-0.000943833,0
0.3,2,0,0.299963,-0.00100237,0
0.3,2.1,0,0.3,-0.000920506,0
0.3,2.2,0,0.299978,-0.000939682,0
0.3,2.3,0,0.299984,-0.000927266,0
0.3,2.4,0,0.300009,-0.000876241,0
0.3,2.5,0,0.299953,-0.000929498,0
0.3,2.6,0,0.300025,-0.000849769,0
0.3,2.7,0,0.299985,-0.000862668,0
0.3,2.8,0,0.299996,-0.000848432,0
0.3,2.9,0,0.300043,-0.00079756,0
0.3,3,0,0.299941,-0.000840485,0
0.3,3.1,0,0.300067,-0.000766582,0
0.3,3.2,0,0.3,-0.000771845,0
0.3,3.3,0,0.300013,-0.000754865,0
0.3,3.4,0,0.30009,-0.000705056,0
0.3,3.5,0,0.299927,-0.000737111,0
0.3,3.6,0,0.300115,-0.00066787,0
0.3,3.7,0,0.300017,-0.000666788,0
0.3,3.8,0,0.300027,-0.000646663,0
0.3,3.9,0,0.300132,-0.000596804,0
0.3,4,0,0.299915,-0.000621547,0
0.3,4.1,0,0.300145,-0.000554103,0
0.3,4.2,0,0.300028,-0.000548632,0
0.3,4.3,0,0.30003,-0.000526541,0
0.3,4.4,0,0.300149,-0.000476216,0
0.3,4.5,0,0.299909,-0.000495155,0
0.3,4.6,0,0.300145,-0.000431771,0
0.3,4.7,0,0.300027,-0.000421088,0
0.3,4.8,0,0.300023,-0.000399108,0
0.3,4.9,0,0.300137,-0.000352561,0
0.3,5,0,0.29991,-0.000362966,0
0.3,5.1,0,0.300156,-0.000300194,0
0.3,5.2,0,0.299911,-0.000303928,0
0.3,5.3,0,0.300145,-0.000248766,0
0.3,5.4,0,0.299912,-0.000247466,0
0.3,5.5,0,0.300135,-0.000198134,0
0.3,5.6,0,0.299913,-0.000190204,0
0.3,5.7,0,0.300128,-0.000148156,0
0.3,5.8,0,0.299914,-0.000132329,0
0.3,5.9,0,0.300126,-9.84596e-05,0
0.3,6,0,0.299914,-7.41376e-05,0
0.3,6.1,0,0.300126,-4.87008e-05,0
0.3,6.2,0,0.299913,-1.5927e-05,0
0.3,6.3,0,0.300131,1.43612e-06,0
0.3,6.4,0,0.299912,4.19976e-05,0
0.3,6.5,0,0.300138,5.22559e-05,0
0.3,6.6,0,0.29991,9.93315e-05,0
0.3,6.7,0,0.300148,0.000104123,0
0.3,6.8,0,0.299909,0.00015594,0
0.3,6.9,0,0.300158,0.000157149,0
0.3,7,0,0.299908,0.000217706,0
0.3,7.1,0,0.300109,0.00021378,0
0.3,7.2,0,0.300078,0.000247687,0
0.3,7.3,0,0.299938,0.000290054,0
0.3,7.4,0,0.300145,0.000282275,0
0.3,7.5,0,0.300053,0.000328311,0
0.3,7.6,0,0.299969,0.000364522,0
0.3,7.7,0,0.300172,0.000351207,0
0.3,7.8,0,0.300022,0.000409228,0
0.3,7.9,0,0.299997,0.000434854,0
0.3,8,0,0.300158,0.000426553,0
0.3,8.1,0,0.299991,0.00048867,0
0.3,8.2,0,0.300017,0.000500604,0
0.3,8.3,0,0.300127,0.000499095,0
0.3,8.4,0,0.299964,0.000565572,0
0.3,8.5,0,0.300027,0.0005612,0
0.3,8.6,0,0.300078,0.000570207,0
0.3,8.7,0,0.299944,0.000639562,0
0.3,8.8,0,0.300029,0.0006162,0
0.3,8.9,0,0.300037,0.000637971,0
0.3,9,0,0.299942,0.000704852,0
0.3,9.1,0,0.300024,0.000665721,0
0.3,9.2,0,0.300007,0.000702652,0
0.3,9.3,0,0.299956,0.000754037,0
0.3,9.4,0,0.300017,0.000710522,0
0.3,9.5,0,0.299987,0.000764285,0
0.3,9.6,0,0.299965,0.00079786,0
0.3,9.7,0,0.300007,0.000755879,0
0.3,9.8,0,0.299975,0.000822449,0
0.3,9.9,0,0.29997,0.000837123,0
0.3,10,0,0.299997,0.000805484,0
0.3,10.1,0,0.299969,0.000876366,0
0.3,10.2,0,0.299974,0.00087268,0
0.3,10.3,0,0.299989,0.000856221,0
0.3,10.4,0,0.299967,0.000925138,0
0.3,10.5,0,0.299978,0.00090518,0
0.3,10.6,0,0.299984,0.000905091,0
0.3,10.7,0,0.299967,0.000967989,0
0.3,10.8,0,0.299982,0.000934932,0
0.3,10.9,0,0.299983,0.000948497,0
0.3,11,0,0.299972,0.000995469,0
0.3,11.1,0,0.299985,0.000961887,0
0.3,11.2,0,0.299983,0.000985693,0
0.3,11.3,0,0.299978,0.00101483,0
0.3,11.4,0,0.299989,0.000985688,0
0.3,11.5,0,0.299985,0.00101629,0
0.3,11.6,0,0.299983,0.001031,0
0.3,11.7,0,0.299991,0.00100937,0
0.3,11.8,0,0.299987,0.00104021,0
0.3,11.9,0,0.299988,0.00104358,0
0.3,12,0,0.299995,0.00102867,0
0.3,12.1,0,0.299991,0.00105766,0
0.3,12.2,0,0.299993,0.00105196,0
0.3,12.3,0,0.299996,0.00104433,0
0.3,12.4,0,0.299995,0.00106901,0
0.3,12.5,0,0.299997,0.0010555,0
0.3,12.6,0,0.299999,0.00110039,0
0.3,12.7,0,0.299997,0.00128166,0
0.4,0,0,0.299996,-0.00163123,0
0.4,0.1,0,0.299996,-0.00146876,0
0.4,0.2,0,0.299994,-0.0014771,0
0.4,0.3,0,0.299993,-0.00147496,0
0.4,0.4,0,0.299991,-0.00146112,0
0.4,0.5,0,0.299986,-0.00149546,0
0.4,0.6,0,0.299987,-0.00145196,0
0.4,0.7,0,0.299983,-0.00145575,0
0.4,0.8,0,0.299982,-0.00144993,0
0.4,0.9,0,0.299981,-0.00142988,0
0.4,1,0,0.299973,-0.00146402,0
0.4,1.1,0,0.299978,-0.00141243,0
0.4,1.2,0,0.299973,-0.00141206,0
0.4,1.3,0,0.299973,-0.0014033,0
0.4,1.4,0,0.299973,-0.00137673,0
0.4,1.5,0,0.299962,-0.00141127,0
0.4,1.6,0,0.299973,-0.00135207,0
0.4,1.7,0,0.299967,-0.00134722,0
0.4,1.8,0,0.299969,-0.00133636,0
0.4,1.9,0,0.299971,-0.00130361,0
0.4,2,0,0.299951,-0.00133649,0
0.4,2.1,0,0.299975,-0.00127266,0
0.4,2.2,0,0.299965,-0.00126235,0
0.4,2.3,0,0.299971,-0.00124994,0
0.4,2.4,0,0.299977,-0.00121201,0
0.4,2.5,0,0.299938,-0.00123933,0
0.4,2.6,0,0.299985,-0.00117504,0
0.4,2.7,0,0.299968,-0.00115831,0
0.4,2.8,0,0.299978,-0.00114407,0
0.4,2.9,0,0.299992,-0.00110221,0
0.4,3,0,0.299921,-0.00112065,0
0.4,3.1,0,0.300006,-0.00105858,0
0.4,3.2,0,0.299978,-0.00103533,0
0.4,3.3,0,0.299991,-0.00101835,0
0.4,3.4,0,0.300015,-0.000973405,0
0.4,3.5,0,0.299902,-0.000982815,0
0.4,3.6,0,0.300029,-0.000922451,0
0.4,3.7,0,0.29999,-0.0008937,0
0.4,3.8,0,0.3,-0.000873576,0
0.4,3.9,0,0.300035,-0.00082567,0
0.4,4,0,0.299886,-0.000828729,0
0.4,4.1,0,0.300042,-0.000768305,0
0.4,4.2,0,0.299998,-0.000735187,0
0.4,4.3,0,0.3,-0.000713096,0
0.4,4.4,0,0.300042,-0.000662346,0
0.4,4.5,0,0.299879,-0.000660207,0
0.4,4.6,0,0.30004,-0.000601379,0
0.4,4.7,0,0.299997,-0.000563837,0
0.4,4.8,0,0.299992,-0.000541857,0
0.4,4.9,0,0.300034,-0.000492093,0
0.4,5,0,0.299879,-0.000483954,0
0.4,5.1,0,0.300028,-0.000424644,0
0.4,5.2,0,0.299881,-0.000405237,0
0.4,5.3,0,0.300022,-0.000351437,0
0.4,5.4,0,0.299883,-0.000329954,0
0.4,5.5,0,0.300017,-0.00027936,0
0.4,5.6,0,0.299884,-0.000253605,0
0.4,5.7,0,0.300013,-0.000207156,0
0.4,5.8,0,0.299885,-0.000176439,0
0.4,5.9,0,0.300012,-0.00013478,0
0.4,6,0,0.299885,-9.88501e-05,0
0.4,6.1,0,0.300012,-6.22442e-05,0
0.4,6.2,0,0.299884,-2.12359e-05,0
0.4,6.3,0,0.300014,1.04209e-05,0
0.4,6.4,0,0.299883,5.59968e-05,0
0.4,6.5,0,0.300018,8.31742e-05,0
0.4,6.6,0,0.299881,0.000132442,0
0.4,6.7,0,0.300022,0.000156073,0
0.4,6.8,0,0.299879,0.00020792,0
0.4,6.9,0,0.300028,0.000231293,0
0.4,7,0,0.299877,0.000290275,0
0.4,7.1,0,0.300033,0.000297756,0
0.4,7.2,0,0.300033,0.000345046,0
0.4,7.3,0,0.299907,0.000387128,0
0.4,7.4,0,0.300037,0.000400801,0
0.4,7.5,0,0.300022,0.000451178,0
0.4,7.6,0,0.299938,0.000487389,0
0.4,7.7,0,0.300037,0.000505932,0
0.4,7.8,0,0.299993,0.000556909,0
0.4,7.9,0,0.299967,0.000582535,0
0.4,8,0,0.300032,0.000607407,0
0.4,8.1,0,0.299964,0.000660096,0
0.4,8.2,0,0.299989,0.00067203,0
0.4,8.3,0,0.300022,0.000703932,0
0.4,8.4,0,0.299939,0.000759635,0
0.4,8.5,0,0.300002,0.000755263,0
0.4,8.6,0,0.30001,0.000794739,0
0.4,8.7,0,0.299921,0.000855062,0
0.4,8.8,0,0.299993,0.000840592,0
0.4,8.9,0,0.299998,0.000879388,0
0.4,9,0,0.299921,0.000940454,0
0.4,9.1,0,0.299982,0.000921809,0
0.4,9.2,0,0.299986,0.000957788,0
0.4,9.3,0,0.299938,0.00100828,0
0.4,9.4,0,0.299974,0.000997104,0
0.4,9.5,0,0.29997,0.00103562,0
0.4,9.6,0,0.299948,0.0010692,0
0.4,9.7,0,0.299969,0.0010666,0
0.4,9.8,0,0.299959,0.00110927,0
0.4,9.9,0,0.299955,0.00112394,0
0.4,10,0,0.299966,0.00113035,0
0.4,10.1,0,0.299955,0.00117706,0
0.4,10.2,0,0.29996,0.00117337,0
0.4,10.3,0,0.299966,0.00118831,0
0.4,10.4,0,0.299954,0.00123811,0
0.4,10.5,0,0.299965,0.00121958,0
0.4,10.6,0,0.299967,0.0012403,0
0.4,10.7,0,0.299956,0.0012917,0
0.4,10.8,0,0.299968,0.0012683,0
0.4,10.9,0,0.299971,0.00128612,0
0.4,11,0,0.299962,0.00132841,0
0.4,11.1,0,0.299972,0.0013105,0
0.4,11.2,0,0.299975,0.0013264,0
0.4,11.3,0,0.29997,0.00135553,0
0.4,11.4,0,0.299977,0.00134594,0
0.4,11.5,0,0.299978,0.00136332,0
0.4,11.6,0,0.299976,0.00137803,0
0.4,11.7,0,0.299982,0.00137441,0
0.4,11.8,0,0.299982,0.00139216,0
0.4,11.9,0,0.299983,0.00139552,0
0.4,12,0,0.299987,0.00139569,0
0.4,12.1,0,0.299987,0.00141312,0
0.4,12.2,0,0.299989,0.00140742,0
0.4,12.3,0,0.299993,0.00140958,0
0.4,12.4,0,0.299993,0.00142658,0
0.4,12.5,0,0.299995,0.00141464,0
0.4,12.6,0,0.299997,0.00141601,0
0.4,12.7,0,0.299996,0.0015572,0
0.5,0,0,0.299995,-0.00192419,0
0.5,0.1,0,0.299994,-0.00186907,0
0.5,0.2,0,0.299992,-0.00186762,0
0.5,0.3,0,0.29999,-0.00186507,0
0.5,0.4,0,0.299987,-0.00186075,0
0.5,0.5,0,0.299983,-0.00186932,0
0.5,0.6,0,0.299981,-0.00185002,0
0.5,0.7,0,0.299977,-0.00184283,0
0.5,0.8,0,0.299975,-0.00183547,0
0.5,0.9,0,0.299971,-0.00182537,0
0.5,1,0,0.299967,-0.00183003,0
0.5,1.1,0,0.299966,-0.00180415,0
0.5,1.2,0,0.299963,-0.00179113,0
0.5,1.3,0,0.299961,-0.00177924,0
0.5,1.4,0,0.299958,-0.00176324,0
0.5,1.5,0,0.299952,-0.00176409,0
0.5,1.6,0,0.299954,-0.00173167,0
0.5,1.7,0,0.299951,-0.00171264,0
0.5,1.8,0,0.29995,-0.00169649,0
0.5,1.9,0,0.299947,-0.00167439,0
0.5,2,0,0.299938,-0.00167061,0
0.5,2.1,0,0.299944,-0.00163254,0
0.5,2.2,0,0.299941,-0.00160735,0
0.5,2.3,0,0.299941,-0.00158714,0
0.5,2.4,0,0.299938,-0.00155889,0
0.5,2.5,0,0.299922,-0.00154916,0
0.5,2.6,0,0.299935,-0.00150692,0
0.5,2.7,0,0.299931,-0.00147569,0
0.5,2.8,0,0.299933,-0.00145142,0
0.5,2.9,0,0.299928,-0.00141737,0
0.5,3,0,0.299902,-0.00140081,0
0.5,3.1,0,0.299926,-0.00135566,0
0.5,3.2,0,0.299921,-0.00131897,0
0.5,3.3,0,0.299924,-0.00129058,0
0.5,3.4,0,0.299919,-0.00125146,0
0.5,3.5,0,0.299878,-0.00122852,0
0.5,3.6,0,0.299917,-0.00118084,0
0.5,3.7,0,0.299912,-0.0011395,0
0.5,3.8,0,0.299914,-0.00110724,0
0.5,3.9,0,0.29991,-0.00106383,0
0.5,4,0,0.299857,-0.00103591,0
0.5,4.1,0,0.299908,-0.000985516,0
0.5,4.2,0,0.299905,-0.000940136,0
0.5,4.3,0,0.299905,-0.000904816,0
0.5,4.4,0,0.299904,-0.00085751,0
0.5,4.5,0,0.299848,-0.000825259,0
0.5,4.6,0,0.299902,-0.000772939,0
0.5,4.7,0,0.299902,-0.000723872,0
0.5,4.8,0,0.2999,-0.000687443,0
0.5,4.9,0,0.2999,-0.000639571,0
0.5,5,0,0.299849,-0.000604943,0
0.5,5.1,0,0.2999,-0.000549094,0
0.5,5.2,0,0.299852,-0.000506547,0
0.5,5.3,0,0.299899,-0.000454109,0
0.5,5.4,0,0.299854,-0.000412443,0
0.5,5.5,0,0.299899,-0.000360585,0
0.5,5.6,0,0.299855,-0.000317007,0
0.5,5.7,0,0.299898,-0.000266156,0
0.5,5.8,0,0.299856,-0.000220549,0
0.5,5.9,0,0.299898,-0.000171101,0
0.5,6,0,0.299856,-0.000123563,0
0.5,6.1,0,0.299898,-7.57875e-05,0
0.5,6.2,0,0.299855,-2.65449e-05,0
0.5,6.3,0,0.299898,1.94057e-05,0
0.5,6.4,0,0.299853,6.99961e-05,0
0.5,6.5,0,0.299897,0.000114093,0
0.5,6.6,0,0.299851,0.000165552,0
0.5,6.7,0,0.299897,0.000208024,0
0.5,6.8,0,0.299848,0.0002599,0
0.5,6.9,0,0.299897,0.000305437,0
0.5,7,0,0.299846,0.000362844,0
0.5,7.1,0,0.299898,0.000396864,0
0.5,7.2,0,0.299897,0.000444155,0
0.5,7.3,0,0.299876,0.000484202,0
0.5,7.4,0,0.299899,0.000527699,0
0.5,7.5,0,0.2999,0.000577475,0
0.5,7.6,0,0.299899,0.000612771,0
0.5,7.7,0,0.299902,0.000660657,0
0.5,7.8,0,0.299904,0.000708544,0
0.5,7.9,0,0.299902,0.000742438,0
0.5,8,0,0.299906,0.000788262,0
0.5,8.1,0,0.299909,0.000834086,0
0.5,8.2,0,0.299906,0.000866118,0
0.5,8.3,0,0.29991,0.000909805,0
0.5,8.4,0,0.299913,0.000953699,0
0.5,8.5,0,0.29991,0.000983374,0
0.5,8.6,0,0.299915,0.00102474,0
0.5,8.7,0,0.299898,0.00107056,0
0.5,8.8,0,0.299916,0.00109364,0
0.5,8.9,0,0.29992,0.00113244,0
0.5,9,0,0.2999,0.00117606,0
0.5,9.1,0,0.299921,0.00119633,0
0.5,9.2,0,0.299925,0.00123231,0
0.5,9.3,0,0.299919,0.00126253,0
0.5,9.4,0,0.299926,0.00129099,0
0.5,9.5,0,0.299929,0.00132397,0
0.5,9.6,0,0.299928,0.00134744,0
0.5,9.7,0,0.299931,0.00137732,0
0.5,9.8,0,0.299933,0.0014072,0
0.5,9.9,0,0.299932,0.00142845,0
0.5,10,0,0.299935,0.00145522,0
0.5,10.1,0,0.299938,0.00148199,0
0.5,10.2,0,0.299938,0.001501,0
0.5,10.3,0,0.29994,0.00152471,0
0.5,10.4,0,0.299941,0.00155109,0
0.5,10.5,0,0.299943,0.00156515,0
0.5,10.6,0,0.299946,0.00158587,0
0.5,10.7,0,0.299945,0.00161541,0
0.5,10.8,0,0.29995,0.00162099,0
0.5,10.9,0,0.299953,0.00163881,0
0.5,11,0,0.299952,0.00166135,0
0.5,11.1,0,0.299957,0.00166861,0
0.5,11.2,0,0.29996,0.00168359,0
0.5,11.3,0,0.299961,0.00169624,0
0.5,11.4,0,0.299964,0.00170807,0
0.5,11.5,0,0.299967,0.00172028,0
0.5,11.6,0,0.299969,0.00172995,0
0.5,11.7,0,0.299972,0.00173944,0
0.5,11.8,0,0.299975,0.00174893,0
0.5,11.9,0,0.299977,0.00175593,0
0.5,12,0,0.29998,0.00176271,0
0.5,12.1,0,0.299983,0.00176949,0
0.5,12.2,0,0.299985,0.00177376,0
0.5,12.3,0,0.299988,0.00177783,0
0.5,12.4,0,0.299991,0.00178415,0
0.5,12.5,0,0.299993,0.00178341,0
0.5,12.6,0,0.299994,0.00178477,0
0.5,12.7,0,0.299995,0.00183275,0
0.6,0,0,0.299992,-0.00225961,0
0.6,0.1,0,0.299992,-0.00227003,0
0.6,0.2,0,0.29999,-0.00226859,0
0.6,0.3,0,0.299986,-0.00226536,0
0.6,0.4,0,0.299982,-0.00226104,0
0.6,0.5,0,0.299976,-0.0022434,0
0.6,0.6,0,0.299974,-0.00224875,0
0.6,0.7,0,0.29997,-0.00224155,0
0.6,0.8,0,0.299966,-0.00223162,0
0.6,0.9,0,0.299962,-0.00222153,0
0.6,1,0,0.299954,-0.00219533,0
0.6,1.1,0,0.299954,-0.00219655,0
0.6,1.2,0,0.299951,-0.00218353,0
0.6,1.3,0,0.299946,-0.00216643,0
0.6,1.4,0,0.299943,-0.00215043,0
0.6,1.5,0,0.299934,-0.00211514,0
0.6,1.6,0,0.299935,-0.00211196,0
0.6,1.7,0,0.299932,-0.00209294,0
0.6,1.8,0,0.299926,-0.00206796,0
0.6,1.9,0,0.299923,-0.00204586,0
0.6,2,0,0.299914,-0.00200212,0
0.6,2.1,0,0.299913,-0.00199313,0
0.6,2.2,0,0.29991,-0.00196794,0
0.6,2.3,0,0.299902,-0.0019347,0
0.6,2.4,0,0.299899,-0.00190646,0
0.6,2.5,0,0.299893,-0.00185609,0
0.6,2.6,0,0.299885,-0.00183946,0
0.6,2.7,0,0.299881,-0.00180824,0
0.6,2.8,0,0.299869,-0.00176719,0
0.6,2.9,0,0.299865,-0.00173314,0
0.6,3,0,0.299869,-0.00167836,0
0.6,3.1,0,0.299847,-0.00165331,0
0.6,3.2,0,0.299842,-0.00161662,0
0.6,3.3,0,0.299828,-0.00156916,0
0.6,3.4,0,0.299823,-0.00153004,0
0.6,3.5,0,0.299841,-0.0014721,0
0.6,3.6,0,0.299804,-0.00143971,0
0.6,3.7,0,0.299799,-0.00139837,0
0.6,3.8,0,0.299788,-0.00134585,0
0.6,3.9,0,0.299784,-0.00130244,0
0.6,4,0,0.299818,-0.00124126,0
0.6,4.1,0,0.299773,-0.00120317,0
0.6,4.2,0,0.29977,-0.00115779,0
0.6,4.3,0,0.299766,-0.00110041,0
0.6,4.4,0,0.299765,-0.00105311,0
0.6,4.5,0,0.299805,-0.000988736,0
0.6,4.6,0,0.299764,-0.000944865,0
0.6,4.7,0,0.299764,-0.000895799,0
0.6,4.8,0,0.299766,-0.000834012,0
0.6,4.9,0,0.299767,-0.000786139,0
0.6,5,0,0.299803,-0.000724922,0
0.6,5.1,0,0.299771,-0.000672545,0
0.6,5.2,0,0.299804,-0.000606992,0
0.6,5.3,0,0.299776,-0.00055692,0
0.6,5.4,0,0.299806,-0.000494189,0
0.6,5.5,0,0.299781,-0.000441936,0
0.6,5.6,0,0.299806,-0.000379874,0
0.6,5.7,0,0.299784,-0.000325234,0
0.6,5.8,0,0.299807,-0.000264418,0
0.6,5.9,0,0.299785,-0.000207449,0
0.6,6,0,0.299807,-0.000148364,0
0.6,6.1,0,0.299784,-8.93097e-05,0
0.6,6.2,0,0.299806,-3.22568e-05,0
0.6,6.3,0,0.299782,2.84647e-05,0
0.6,6.4,0,0.299804,8.33467e-05,0
0.6,6.5,0,0.299777,0.000145134,0
0.6,6.6,0,0.299802,0.000197889,0
0.6,6.7,0,0.299772,0.000260093,0
0.6,6.8,0,0.299801,0.000311084,0
0.6,6.9,0,0.299767,0.000377742,0
0.6,7,0,0.2998,0.00043451,0
0.6,7.1,0,0.299762,0.000494236,0
0.6,7.2,0,0.299762,0.000541527,0
0.6,7.3,0,0.299777,0.000598256,0
0.6,7.4,0,0.299761,0.000655045,0
0.6,7.5,0,0.299761,0.000704821,0
0.6,7.6,0,0.299764,0.000768027,0
0.6,7.7,0,0.299766,0.000815913,0
0.6,7.8,0,0.299768,0.0008638,0
0.6,7.9,0,0.299775,0.00092383,0
0.6,8,0,0.299779,0.000969654,0
0.6,8.1,0,0.299782,0.00101548,0
0.6,8.2,0,0.299794,0.00107256,0
0.6,8.3,0,0.299798,0.00111625,0
0.6,8.4,0,0.299803,0.00115961,0
0.6,8.5,0,0.299816,0.00121401,0
0.6,8.6,0,0.29982,0.00125538,0
0.6,8.7,0,0.299838,0.00129004,0
0.6,8.8,0,0.299839,0.00134739,0
0.6,8.9,0,0.299843,0.00138618,0
0.6,9,0,0.29986,0.00141664,0
0.6,9.1,0,0.29986,0.00147161,0
0.6,9.2,0,0.299864,0.00150759,0
0.6,9.3,0,0.299874,0.0015472,0
0.6,9.4,0,0.299878,0.00158567,0
0.6,9.5,0,0.299881,0.00161865,0
0.6,9.6,0,0.299889,0.00165897,0
0.6,9.7,0,0.299892,0.00168885,0
0.6,9.8,0,0.299895,0.00171873,0
0.6,9.9,0,0.299902,0.00175411,0
0.6,10,0,0.299904,0.00178088,0
0.6,10.1,0,0.299907,0.00180765,0
0.6,10.2,0,0.299912,0.00183818,0
0.6,10.3,0,0.299915,0.00186189,0
0.6,10.4,0,0.299916,0.00188229,0
0.6,10.5,0,0.299922,0.00191148,0
0.6,10.6,0,0.299925,0.0019322,0
0.6,10.7,0,0.299924,0.00194242,0
0.6,10.8,0,0.299932,0.00197442,0
0.6,10.9,0,0.299934,0.00199224,0
0.6,11,0,0.299935,0.00200391,0
0.6,11.1,0,0.299942,0.00202744,0
0.6,11.2,0,0.299944,0.00204242,0
0.6,11.3,0,0.299949,0.00205831,0
0.6,11.4,0,0.299952,0.00207092,0
0.6,11.5,0,0.299955,0.00208313,0
0.6,11.6,0,0.299959,0.00209569,0
0.6,11.7,0,0.299962,0.00210518,0
0.6,11.8,0,0.299965,0.00211466,0
0.6,11.9,0,0.29997,0.00212366,0
0.6,12,0,0.299973,0.00213044,0
0.6,12.1,0,0.299976,0.00213721,0
0.6,12.2,0,0.299981,0.00214271,0
0.6,12.3,0,0.299984,0.00214678,0
0.6,12.4,0,0.299987,0.00214909,0
0.6,12.5,0,0.299991,0.00215289,0
0.6,12.6,0,0.299992,0.00215425,0
0.6,12.7,0,0.299993,0.00215164,0
0.7,0,0,0.299989,-0.00263751,0
0.7,0.1,0,0.299991,-0.00267166,0
0.7,0.2,0,0.299987,-0.00266034,0
0.7,0.3,0,0.299981,-0.00265669,0
0.7,0.4,0,0.299978,-0.00266197,0
0.7,0.5,0,0.299967,-0.00261768,0
0.7,0.6,0,0.299967,-0.00264813,0
0.7,0.7,0,0.299961,-0.00262925,0
0.7,0.8,0,0.299954,-0.00261778,0
0.7,0.9,0,0.299953,-0.00261835,0
0.7,1,0,0.299936,-0.00255993,0
0.7,1.1,0,0.299942,-0.00258961,0
0.7,1.2,0,0.299934,-0.00256242,0
0.7,1.3,0,0.299927,-0.0025422,0
0.7,1.4,0,0.299927,-0.00253831,0
0.7,1.5,0,0.299907,-0.00246443,0
0.7,1.6,0,0.299916,-0.00249295,0
0.7,1.7,0,0.299908,-0.0024574,0
0.7,1.8,0,0.299899,-0.00242715,0
0.7,1.9,0,0.299899,-0.00241804,0
0.7,2,0,0.299879,-0.00233102,0
0.7,2.1,0,0.299883,-0.00235441,0
0.7,2.2,0,0.299876,-0.00231151,0
0.7,2.3,0,0.299864,-0.00227046,0
0.7,2.4,0,0.29986,-0.00225472,0
0.7,2.5,0,0.299851,-0.00216012,0
0.7,2.6,0,0.299835,-0.00217267,0
0.7,2.7,0,0.299833,-0.00212417,0
0.7,2.8,0,0.299814,-0.00207304,0
0.7,2.9,0,0.299801,-0.00204954,0
0.7,3,0,0.299822,-0.0019533,0
0.7,3.1,0,0.299768,-0.00195154,0
0.7,3.2,0,0.299775,-0.00189906,0
0.7,3.3,0,0.299751,-0.00184013,0
0.7,3.4,0,0.299726,-0.00180915,0
0.7,3.5,0,0.299792,-0.00171356,0
0.7,3.6,0,0.299692,-0.00169906,0
0.7,3.7,0,0.299712,-0.00164319,0
0.7,3.8,0,0.299693,-0.0015785,0
0.7,3.9,0,0.299658,-0.00154151,0
0.7,4,0,0.299767,-0.00144477,0
0.7,4.1,0,0.299638,-0.00142127,0
0.7,4.2,0,0.299668,-0.00136188,0
0.7,4.3,0,0.299661,-0.00129126,0
0.7,4.4,0,0.299626,-0.00124914,0
0.7,4.5,0,0.29975,-0.00115064,0
0.7,4.6,0,0.299626,-0.00111716,0
0.7,4.7,0,0.299657,-0.00105525,0
0.7,4.8,0,0.299662,-0.000977478,0
0.7,4.9,0,0.299633,-0.000931798,0
0.7,5,0,0.299741,-0.000843893,0
0.7,5.1,0,0.299643,-0.000794998,0
0.7,5.2,0,0.29974,-0.000706573,0
0.7,5.3,0,0.299654,-0.000659872,0
0.7,5.4,0,0.299739,-0.000575192,0
0.7,5.5,0,0.299663,-0.000523414,0
0.7,5.6,0,0.299738,-0.000442208,0
0.7,5.7,0,0.299669,-0.00038439,0
0.7,5.8,0,0.299738,-0.000308047,0
0.7,5.9,0,0.299672,-0.000243825,0
0.7,6,0,0.299737,-0.000173254,0
0.7,6.1,0,0.29967,-0.000102811,0
0.7,6.2,0,0.299737,-3.83714e-05,0
0.7,6.3,0,0.299665,3.75979e-05,0
0.7,6.4,0,0.299736,9.60487e-05,0
0.7,6.5,0,0.299657,0.000176297,0
0.7,6.6,0,0.299736,0.000229452,0
0.7,6.7,0,0.299647,0.000312281,0
0.7,6.8,0,0.299736,0.000361473,0
0.7,6.9,0,0.299636,0.000448209,0
0.7,7,0,0.299738,0.000505276,0
0.7,7.1,0,0.299627,0.000589872,0
0.7,7.2,0,0.299626,0.000637163,0
0.7,7.3,0,0.299718,0.00069274,0
0.7,7.4,0,0.299622,0.000782839,0
0.7,7.5,0,0.299635,0.00083135,0
0.7,7.6,0,0.299701,0.000890217,0