/*--------------------------------*- C++ -*----------------------------------*\
| =========                 |                                                 |
| \\      /  F ield         | OpenFOAM: The Open Source CFD Toolbox           |
|  \\    /   O peration     | Version:  v1806                                 |
|   \\  /    A nd           | Web:      www.OpenFOAM.com                      |
|    \\/     M anipulation  |                                                 |
\*---------------------------------------------------------------------------*/
FoamFile
{
    version     2.0;
    format      ascii;
    class       surfaceScalarField;
    location    "70";
    object      phi;
}
// * * * * * * * * * * * * * * * * * * * * * * * * * * * * * * * * * * * * * //

dimensions      [0 3 -1 0 0 0 0];
oriented        oriented;


internalField   nonuniform List<scalar> 
4680
(
0.0750013
-0.000718108
0.0750056
-0.00215365
0.0750137
-0.0035849
0.0750264
-0.00500654
0.075045
-0.00641406
0.0750707
-0.00780273
0.0751054
-0.00916734
0.0751507
-0.0105023
0.075209
-0.0118013
0.0752825
-0.0130579
0.0753738
-0.0142652
0.0754856
-0.0154156
0.0756206
-0.0165025
0.0757811
-0.0175175
0.0759697
-0.0184557
0.076188
-0.0193078
0.0764374
-0.0200735
0.0767189
-0.0207412
0.0770335
-0.0213205
-0.0217889
0.0773705
0.0750033
-0.000721434
0.0750135
-0.00216381
0.0750309
-0.00360236
0.0750568
-0.00503244
0.0750927
-0.00644991
0.0751404
-0.00785046
0.0752023
-0.0092292
0.0752809
-0.0105809
0.0753792
-0.0118996
0.0755002
-0.0131789
0.075647
-0.014412
0.0758227
-0.0155914
0.0760303
-0.01671
0.0762721
-0.0177593
0.07655
-0.0187336
0.0768648
-0.0196227
0.0772171
-0.0204258
0.077605
-0.021129
0.0780267
-0.0217423
-0.0222425
0.0784803
0.0750052
-0.000726672
0.0750211
-0.00217965
0.0750481
-0.00362941
0.0750878
-0.00507206
0.0751418
-0.00650396
0.0752127
-0.0079214
0.0753033
-0.00931979
0.0754169
-0.0106944
0.0755567
-0.0120394
0.0757266
-0.0133488
0.07593
-0.0146154
0.0761705
-0.0158318
0.0764507
-0.0169903
0.0767731
-0.0180816
0.0771388
-0.0190994
0.077548
-0.0200318
0.0779997
-0.0208776
0.0784907
-0.0216199
0.0790184
-0.02227
-0.0227996
0.0795755
0.0750069
-0.000733562
0.0750277
-0.00220047
0.0750632
-0.00366494
0.0751151
-0.00512394
0.0751856
-0.00657444
0.0752777
-0.00801347
0.0753947
-0.00943677
0.0755406
-0.0108404
0.0757194
-0.0122182
0.0759356
-0.013565
0.0761931
-0.0148729
0.076496
-0.0161348
0.0768473
-0.0173415
0.0772493
-0.0184837
0.077703
-0.019553
0.0782077
-0.0205365
0.0787613
-0.0214312
0.0793593
-0.0222179
0.0799966
-0.0229074
-0.0234669
0.0806639
0.0750082
-0.000741789
0.0750331
-0.00222536
0.0750755
-0.00370737
0.0751375
-0.00518594
0.0752218
-0.00665865
0.0753318
-0.00812356
0.0754717
-0.00957661
0.0756463
-0.011015
0.0758601
-0.0124321
0.0761191
-0.013824
0.0764272
-0.015181
0.0767901
-0.0164977
0.0772104
-0.0177618
0.0776918
-0.018965
0.0782342
-0.0200954
0.0788371
-0.0211394
0.0794969
-0.022091
0.0802076
-0.0229286
0.0809616
-0.0236614
-0.0242527
0.0817475
0.0750092
-0.000750964
0.0750369
-0.00225312
0.0750843
-0.00375475
0.0751537
-0.00525536
0.0752483
-0.00675321
0.0753724
-0.00824772
0.0755307
-0.00973484
0.0757293
-0.0112136
0.0759732
-0.012676
0.0762702
-0.014121
0.0766246
-0.0155354
0.0770443
-0.0169174
0.0775313
-0.0182488
0.0780916
-0.0195254
0.0787237
-0.0207275
0.0794285
-0.0218442
0.0801999
-0.0228625
0.0810311
-0.0237599
0.0819113
-0.0245416
-0.0251674
0.082826
0.0750096
-0.000760602
0.0750388
-0.00228232
0.0750888
-0.00380467
0.0751623
-0.0053289
0.075263
-0.00685394
0.0753964
-0.00838104
0.0755674
-0.00990586
0.0757841
-0.0114302
0.0760518
-0.0129438
0.0763811
-0.0144503
0.0767758
-0.0159301
0.0772482
-0.0173897
0.077798
-0.0187987
0.0784369
-0.0201643
0.0791593
-0.0214499
0.0799707
-0.0226556
0.0808603
-0.0237521
0.0818222
-0.0247218
0.0828406
-0.0255599
-0.0262242
0.0838974
0.0750095
-0.000770121
0.0750384
-0.00231121
0.075088
-0.00385426
0.0751617
-0.00540258
0.0752635
-0.0069558
0.0754
-0.00851754
0.075577
-0.0100828
0.0758043
-0.0116576
0.0760878
-0.0132273
0.0764419
-0.0148043
0.076869
-0.0163572
0.0773885
-0.0179092
0.0779954
-0.0194056
0.0787122
-0.0208811
0.079524
-0.0222616
0.0804484
-0.0235801
0.0814632
-0.0247668
0.0825695
-0.0258281
0.0837411
-0.0267316
-0.0274411
0.084958
0.0750087
-0.000778836
0.0750352
-0.00233771
0.0750811
-0.0039001
0.0751501
-0.00547162
0.075247
-0.00705271
0.0753794
-0.00864992
0.0755538
-0.0102572
0.0757825
-0.0118863
0.0760717
-0.0135165
0.0764407
-0.0151733
0.0768896
-0.0168061
0.0774488
-0.0184684
0.0781037
-0.0200605
0.0788974
-0.0216748
0.0797946
-0.0231587
0.0808411
-0.0246267
0.0819871
-0.0259128
0.0832569
-0.0270979
0.0845998
-0.0280744
-0.0288433
0.086002
0.0750071
-0.000785949
0.0750288
-0.00235943
0.0750669
-0.00393819
0.0751257
-0.00553041
0.0752105
-0.00713752
0.07533
-0.00876937
0.0754917
-0.0104189
0.0757102
-0.0121048
0.0759925
-0.0137987
0.0763633
-0.0155442
0.0768204
-0.0172632
0.0774083
-0.0190563
0.0780981
-0.0207504
0.0789666
-0.0225433
0.0799399
-0.024132
0.0811219
-0.0258087
0.0824011
-0.027192
0.0838629
-0.0285597
0.0853975
-0.029609
-0.0304691
0.0870233
0.0750046
-0.000790552
0.0750188
-0.00237361
0.0750446
-0.00396399
0.0750866
-0.00557247
0.075151
-0.0072019
0.0752471
-0.00886549
0.0753841
-0.0105558
0.0755781
-0.0122988
0.0758381
-0.0140587
0.0761935
-0.0158996
0.0766414
-0.0177111
0.0772416
-0.0196565
0.0779488
-0.0214575
0.0788864
-0.023481
0.079919
-0.0251645
0.0812558
-0.0271455
0.0826609
-0.0285971
0.0843596
-0.0302584
0.0861072
-0.0313566
-0.0323763
0.0880144
0.0750011
-0.000791631
0.0750047
-0.00237721
0.0750131
-0.00397236
0.0750311
-0.00559048
0.0750655
-0.00723635
0.0751262
-0.0089262
0.0752242
-0.0106538
0.0753763
-0.012451
0.0755955
-0.0142779
0.0759128
-0.0162169
0.0763307
-0.0181289
0.0769178
-0.0202437
0.0776215
-0.0221612
0.0786128
-0.0244722
0.0796812
-0.0262329
0.0811964
-0.0286607
0.0827017
-0.0301023
0.0847133
-0.03227
0.086688
-0.0333314
-0.0346536
0.0889653
0.0749965
-0.000788084
0.0749861
-0.0023669
0.0749715
-0.00395774
0.0749575
-0.00557643
0.0749514
-0.00723026
0.0749631
-0.00893795
0.0750057
-0.0106963
0.0750956
-0.0125409
0.0752516
-0.0144339
0.0755023
-0.0164676
0.0758642
-0.0184909
0.0764009
-0.0207804
0.0770787
-0.022839
0.0780867
-0.0254803
0.0791709
-0.027317
0.0808752
-0.030365
0.0824348
-0.031662
0.0848859
-0.0347212
0.0870663
-0.0355118
-0.0374475
0.0898603
0.0749907
-0.000778756
0.074963
-0.00233923
0.0749195
-0.0039142
0.0748648
-0.00552179
0.0748067
-0.00717215
0.0747547
-0.00888598
0.0747233
-0.0106649
0.0747281
-0.0125456
0.0747939
-0.0144998
0.0749441
-0.0166178
0.0752166
-0.0187634
0.0756531
-0.0212168
0.0762777
-0.0234636
0.0772317
-0.0264343
0.0783318
-0.0284171
0.0801793
-0.0322126
0.0817651
-0.0332477
0.0848195
-0.0377756
0.0870926
-0.0377849
-0.0410632
0.0907082
0.0749837
-0.000762489
0.0749352
-0.0022907
0.0748568
-0.00383578
0.0747529
-0.00541789
0.0746308
-0.0070501
0.0744997
-0.00875486
0.0743742
-0.0105394
0.074269
-0.0124404
0.0742128
-0.0144435
0.0742247
-0.0166297
0.0743622
-0.0189009
0.0746412
-0.0214959
0.0751667
-0.0239891
0.0759659
-0.0272335
0.077098
-0.0295492
0.0789302
-0.0340448
0.0806343
-0.0349519
0.0843505
-0.0414917
0.0865218
-0.0399562
-0.0461936
0.0916522
0.0749757
-0.000738183
0.074903
-0.002218
0.074784
-0.00371675
0.0746224
-0.00525632
0.0744248
-0.00685246
0.0741991
-0.00852919
0.0739589
-0.0102993
0.073718
-0.0121995
0.0735044
-0.0142299
0.0733368
-0.0164621
0.0732798
-0.0188438
0.0733408
-0.0215569
0.0736827
-0.0243311
0.0742306
-0.0277813
0.0753568
-0.0306754
0.0769003
-0.0355883
0.0790116
-0.0370632
0.0830407
-0.0455209
0.085216
-0.0421315
-0.053987
0.0930094
0.0749667
-0.000704874
0.0748669
-0.00211819
0.0747022
-0.00355206
0.0744754
-0.00502953
0.0741916
-0.00656864
0.073857
-0.00819461
0.0734827
-0.00992501
0.0730805
-0.0117972
0.0726742
-0.0138237
0.0722831
-0.016071
0.0719641
-0.0185249
0.0717365
-0.0213293
0.0717624
-0.024357
0.0719774
-0.0279963
0.0729071
-0.0316051
0.0740053
-0.0366864
0.0767359
-0.0397938
0.0801487
-0.0489337
0.0835554
-0.0455381
-0.0650077
0.0945761
0.0749569
-0.000661818
0.0748277
-0.00198899
0.0746134
-0.0033377
0.0743153
-0.00473149
0.0739367
-0.00619004
0.0734813
-0.00773913
0.0729565
-0.00940025
0.0723701
-0.0112108
0.0717399
-0.0131934
0.0710809
-0.015412
0.0704361
-0.0178802
0.0698337
-0.0207268
0.0693926
-0.0239159
0.0691395
-0.0277432
0.0695045
-0.0319701
0.0701524
-0.0373343
0.0729371
-0.0425785
0.0751015
-0.0510981
0.0822818
-0.0527184
-0.0763262
0.0936003
0.0749467
-0.000608554
0.0747868
-0.00182903
0.0745203
-0.00307119
0.0741471
-0.00435828
0.0736679
-0.00571091
0.0730833
-0.00715448
0.0723963
-0.00871325
0.0716089
-0.0104234
0.0707308
-0.0123153
0.0697676
-0.0144488
0.0687464
-0.0168589
0.0676821
-0.0196625
0.0666493
-0.022883
0.0657
-0.0267939
0.0650696
-0.0313397
0.06494
-0.0372047
0.0665112
-0.0441497
0.0683815
-0.0529684
0.0790707
-0.0634076
-0.080902
0.0836465
0.0749364
-0.000544947
0.0747453
-0.00163795
0.0744259
-0.00275178
0.0739763
-0.00390867
0.0733945
-0.00512915
0.0726774
-0.00643735
0.0718227
-0.00785859
0.0708259
-0.00942663
0.0696868
-0.0111762
0.0683989
-0.013161
0.0669702
-0.0154303
0.0653892
-0.0180814
0.0636877
-0.0211816
0.0618431
-0.0249493
0.0599555
-0.0294522
0.0581051
-0.0353543
0.0565879
-0.0426325
0.0571419
-0.0535224
0.0639561
-0.0702218
0.0590045
-0.0759504
0.0779809
-0.035677
0.0786533
-0.0362576
0.0793791
-0.0365155
0.0801347
-0.0364728
0.0809159
-0.0361571
0.0817054
-0.0357094
0.0824911
-0.0350622
0.0832831
-0.0343509
0.0840558
-0.0335896
-0.0326252
0.0848237
0.0792643
-0.036461
0.0800917
-0.037085
0.0809566
-0.0373805
0.0818221
-0.0373383
0.0826915
-0.0370264
0.0835421
-0.03656
0.0843742
-0.0358942
0.0851942
-0.035171
0.0859807
-0.0343761
-0.0334174
0.0867729
0.0805221
-0.0374076
0.0814976
-0.0380604
0.0824919
-0.0383748
0.0834613
-0.0383077
0.084415
-0.0379801
0.0853251
-0.0374701
0.0862066
-0.0367758
0.0870587
-0.036023
0.0878777
-0.0351951
-0.0342342
0.0886945
0.081783
-0.0385267
0.0829172
-0.0391946
0.0840478
-0.0395054
0.0851255
-0.0393854
0.0861643
-0.0390189
0.0871319
-0.0384378
0.0880589
-0.0377028
0.0889375
-0.0369016
0.0897807
-0.0360384
-0.0350698
0.0906163
0.0830517
-0.039831
0.0843565
-0.0404993
0.0856294
-0.0407783
0.0868181
-0.0405741
0.0879392
-0.04014
0.0889595
-0.0394581
0.0899253
-0.0386687
0.090821
-0.0377973
0.0916806
-0.036898
-0.0359116
0.0925225
0.0843321
-0.0413371
0.0858213
-0.0419885
0.0872423
-0.0421994
0.0885431
-0.0418749
0.0897405
-0.0413373
0.0908071
-0.0405247
0.0918014
-0.039663
0.0927022
-0.0386981
0.0935639
-0.0377597
-0.0367356
0.0943879
0.0856276
-0.0430672
0.0873168
-0.0436777
0.0888912
-0.0437738
0.090303
-0.0432867
0.0915684
-0.0426028
0.0926737
-0.04163
0.0936817
-0.040671
0.094569
-0.0395854
0.0954003
-0.038591
-0.0374921
0.0961568
0.0869409
-0.0450502
0.0888469
-0.0455837
0.0905795
-0.0455064
0.0920996
-0.0448068
0.0934256
-0.0439287
0.094559
-0.0427634
0.0955544
-0.0416664
0.0963864
-0.0404175
0.0971114
-0.039316
-0.0380748
0.0976942
0.0882739
-0.047322
0.0904148
-0.0477247
0.0923122
-0.0474037
0.0939407
-0.0464353
0.0953196
-0.0453077
0.0964545
-0.0438982
0.0973751
-0.042587
0.0980459
-0.0410882
0.0984998
-0.0397699
-0.0382731
0.0986981
0.0896261
-0.0499248
0.0920267
-0.0501254
0.0941051
-0.049482
0.0958452
-0.0481755
0.0972496
-0.0467121
0.0982994
-0.044948
0.098987
-0.0432746
0.099257
-0.0413582
0.0991305
-0.0396434
-0.0377229
0.0985803
0.0909972
-0.0529075
0.0937069
-0.0528352
0.0959968
-0.0517718
0.0978251
-0.0500038
0.0991338
-0.0480208
0.0998581
-0.0456723
0.0999617
-0.0433782
0.0993863
-0.0407829
0.0981938
-0.0384509
-0.0359076
0.0963785
0.0924025
-0.0563448
0.095522
-0.0559547
0.0980248
-0.0542746
0.0997725
-0.0517515
0.100619
-0.0488673
0.100493
-0.0455458
0.0993853
-0.0422709
0.0973126
-0.0387102
0.0944508
-0.0355891
-0.0322824
0.0908256
0.0939093
-0.0603938
0.097561
-0.0596064
0.100059
-0.0567723
0.10117
-0.0528627
0.10076
-0.0484573
0.0988988
-0.0436848
0.0957296
-0.0391017
0.0914665
-0.0344471
0.0864365
-0.0305591
-0.0265726
0.0807267
0.0956381
-0.0653237
0.0997145
-0.0636828
0.101364
-0.0584218
0.100646
-0.052145
0.0977204
-0.0455315
0.0930506
-0.0390149
0.0870739
-0.0331249
0.080287
-0.0276603
0.073107
-0.0233792
-0.0191833
0.0657178
0.0976107
-0.0712821
0.101066
-0.067138
0.0999888
-0.0573446
0.0956737
-0.0478299
0.0888977
-0.0387556
0.0807458
-0.030863
0.0719764
-0.0243555
0.0632674
-0.0189513
0.054926
-0.0150378
-0.0114398
0.0471825
0.0989082
-0.0771809
0.0990644
-0.0672943
0.0925171
-0.0507973
0.0830437
-0.0383565
0.0720259
-0.0277378
0.0611228
-0.0199599
0.0510714
-0.0143041
0.0423215
-0.0102014
0.0347556
-0.00747188
-0.00513304
0.0284489
0.0963652
-0.07897
0.0893059
-0.060235
0.0751167
-0.0366082
0.0609428
-0.0241826
0.0476241
-0.0144191
0.0368872
-0.00922299
0.0284594
-0.0058763
0.0220355
-0.00377751
0.0169645
-0.00240094
-0.00135774
0.0131892
0.0842002
-0.0695699
0.0671492
-0.043184
0.0469905
-0.0164495
0.0323735
-0.00956556
0.0216273
-0.00367284
0.0147974
-0.00239311
0.0101247
-0.00120361
0.00692353
-0.000576313
0.00461184
-8.92557e-05
4.7431e-05
0.00320667
0.0568859
-0.0428093
0.0325102
-0.0188083
0.0159646
9.61134e-05
0.00743864
-0.00103959
0.00331867
0.000447127
0.000865102
6.04606e-05
-0.000481948
0.000143439
-0.00130023
0.000241968
-0.0017263
0.000336819
3.62678e-05
-0.00171514
0.0161952
-0.00261311
-0.002517
-0.00355658
-0.00310946
-0.003049
-0.00290556
-0.00266359
-0.00232677
-0.0022905
0.0863778
-0.0648627
0.0877238
-0.0596465
0.0893378
-0.0535877
0.0909563
-0.0490061
0.0911556
-0.0433076
0.090585
-0.035373
0.0908995
-0.0375338
0.0881129
-0.0599652
0.0755754
-0.090127
0.0543785
-0.10966
0.033049
-0.111399
0.0180846
-0.0983393
0.00980167
-0.0785613
0.00565274
-0.0594869
0.00354655
-0.0441385
0.00241676
-0.0323741
0.00178028
-0.0232321
0.00141847
-0.0158206
0.00122608
-0.00959679
-0.00455035
0.0883343
-0.0664241
0.0897374
-0.0610496
0.0913892
-0.0552395
0.0927683
-0.0503852
0.0925161
-0.0430554
0.0913862
-0.0342432
0.0903932
-0.0365408
0.0854073
-0.0549793
0.0719222
-0.0766418
0.0524433
-0.090181
0.0336196
-0.0925757
0.0198028
-0.0845225
0.0114063
-0.0701648
0.00679947
-0.0548801
0.00431787
-0.0416569
0.00294445
-0.0310007
0.00215997
-0.0224477
0.00171186
-0.0153724
0.00147497
-0.0093599
-0.00446222
0.0902987
-0.0680282
0.0918333
-0.0625842
0.0935767
-0.0569829
0.0947225
-0.0515311
0.094057
-0.0423898
0.0923069
-0.0324931
0.0898125
-0.0340464
0.0829598
-0.0481266
0.0690285
-0.0627105
0.0508301
-0.0719826
0.0336748
-0.0754205
0.020882
-0.0717297
0.0127205
-0.0620033
0.00793379
-0.0500933
0.00519158
-0.0389146
0.00360468
-0.0294138
0.00267181
-0.0215148
0.00213006
-0.0148307
0.00184236
-0.00907219
-0.00435199
0.0922554
-0.0696672
0.0939096
-0.0642385
0.0956937
-0.058767
0.0965595
-0.0523969
0.0954399
-0.0412702
0.0929389
-0.0299921
0.0888939
-0.0300014
0.0803477
-0.0395804
0.0660205
-0.0483833
0.0488774
-0.0548396
0.0332532
-0.0597962
0.0215093
-0.0599858
0.013723
-0.054217
0.00891396
-0.0452843
0.00601867
-0.0360194
0.004275
-0.0276701
0.00322025
-0.0204601
0.00259647
-0.0142069
0.00226234
-0.00873807
-0.0042211
0.0941759
-0.0713207
0.0958985
-0.065961
0.0976057
-0.0604742
0.0980728
-0.052864
0.0963835
-0.0395808
0.0930037
-0.0266123
0.0874212
-0.024419
0.0773488
-0.0295079
0.0627232
-0.0337577
0.0466674
-0.0387838
0.0325322
-0.0456611
0.0218143
-0.0492679
0.0144638
-0.0468665
0.00972864
-0.0405491
0.00675997
-0.0330507
0.0049105
-0.0258206
0.00376281
-0.0193124
0.00307224
-0.0135163
0.00269867
-0.00836449
-0.0040719
0.0959968
-0.0729296
0.09765
-0.0676142
0.099052
-0.0618762
0.0989202
-0.0527322
0.0965296
-0.0371903
0.0921786
-0.0222613
0.0851144
-0.0173548
0.0737718
-0.0181652
0.0591003
-0.0190863
0.0441991
-0.0238826
0.0315127
-0.0329747
0.0218213
-0.0395764
0.0149678
-0.040013
0.0103836
-0.0359649
0.00740539
-0.0300725
0.00549352
-0.0239088
0.00427941
-0.0180983
0.00353687
-0.0127738
0.00313083
-0.00795845
-0.0039067
0.0975683
-0.0743411
0.0988585
-0.0689043
0.0995902
-0.0626079
0.0986096
-0.0517516
0.095418
-0.0339986
0.0900854
-0.0169286
0.0817178
-0.00898727
0.0694678
-0.00591526
0.0550808
-0.00469923
0.0414817
-0.0102835
0.0302506
-0.0217436
0.0215844
-0.0309102
0.0152673
-0.0336959
0.0108916
-0.0315892
0.00795491
-0.0271358
0.00601729
-0.0219712
0.00476021
-0.0168412
0.00397922
-0.0119928
0.00354715
-0.00752637
-0.00372767
0.0985739
-0.0752209
0.0989989
-0.0693293
0.0985909
-0.0621999
0.0965392
-0.0496999
0.0925474
-0.0300069
0.086367
-0.0107482
0.0770259
0.000353844
0.0643471
0.00676354
0.0506558
0.008992
0.0385539
0.00181843
0.0287975
-0.0119872
0.0211493
-0.0232619
0.0153926
-0.0279392
0.0112675
-0.0274641
0.00841288
-0.0242812
0.0064802
-0.0200385
0.00520055
-0.0155615
0.00439322
-0.0111855
0.00394096
-0.00707411
-0.00353684
0.0984424
-0.0749652
0.0973166
-0.0682035
0.0953198
-0.0602031
0.0921268
-0.0465069
0.0875012
-0.0253813
0.0807841
-0.00403112
0.0709277
0.0102103
0.0584089
0.0192824
0.0458907
0.0215102
0.0354728
0.0122363
0.0272081
-0.00372252
0.0205594
-0.0166133
0.0153728
-0.0227526
0.0115272
-0.0236185
0.00878585
-0.0215399
0.00688335
-0.018136
0.00559868
-0.0142769
0.00477572
-0.0103625
0.00430858
-0.00660697
-0.0033361
0.0963128
-0.0726977
0.0929401
-0.0648309
0.0891464
-0.0564095
0.0850181
-0.0423785
0.0801147
-0.020478
0.0732735
0.0028101
0.0634957
0.019988
0.051768
0.0310101
0.0408889
0.0323893
0.0323353
0.0207899
0.0255406
0.00307213
0.0198556
-0.0109282
0.0152349
-0.0181318
0.0116863
-0.0200699
0.00908145
-0.018935
0.00722943
-0.016284
0.00595455
-0.013002
0.00512534
-0.00953333
0.00464815
-0.00612978
-0.00312725
0.0911479
-0.0674671
0.0851694
-0.0588524
0.0798613
-0.0511014
0.0753154
-0.0378326
0.0705896
-0.0157521
0.0640886
0.00931106
0.0549738
0.0291029
0.044658
0.0413259
0.0358242
0.0412231
0.0292323
0.0273818
0.0238475
0.00845695
0.0190749
-0.00615557
0.0150038
-0.0140608
0.0117601
-0.0168263
0.00930781
-0.0164827
0.00752208
-0.0144982
0.00626923
-0.0117491
0.00544184
-0.00870594
0.00495891
-0.00564685
-0.00291198
0.0820817
-0.0587232
0.0739069
-0.0506776
0.0679633
-0.0451577
0.06369
-0.0335593
0.059524
-0.0115861
0.0537285
0.0151066
0.0457805
0.0370509
0.0374019
0.0497044
0.0308945
0.0477304
0.0262537
0.0320226
0.0221825
0.0125282
0.0182502
-0.00222327
0.0147022
-0.0105128
0.0117631
-0.0138871
0.00947315
-0.0141928
0.00776543
-0.0127905
0.00654443
-0.0105281
0.0057257
-0.00788721
0.00524088
-0.00516202
-0.00269189
0.0689776
-0.0469741
0.0600351
-0.0417351
0.0546882
-0.0398108
0.0512172
-0.0300882
0.0477369
-0.00810591
0.0428357
0.0200079
0.0364335
0.043453
0.0303675
0.0557704
0.0262948
0.0518032
0.0234826
0.0348348
0.0205834
0.0154274
0.0174094
0.000950752
0.0143503
-0.00745373
0.0117084
-0.0112453
0.00958553
-0.0120699
0.00796389
-0.0111689
0.00678233
-0.00934657
0.00597786
-0.00708274
0.00549449
-0.00467865
-0.00246846
0.0529719
-0.0342282
0.0453773
-0.0341405
0.0415821
-0.0360156
0.0389563
-0.0274624
0.0360175
-0.00516714
0.0320704
0.023955
0.0274693
0.0480541
0.0239071
0.0593327
0.0221835
0.0535268
0.0209752
0.0360431
0.0190805
0.0173221
0.0165737
0.00345756
0.0139654
-0.00484544
0.0116084
-0.00888822
0.00965263
-0.0101141
0.00812194
-0.00963816
0.00698534
-0.00820997
0.0061996
-0.006297
0.00572051
-0.00419957
-0.00224303
0.0364967
-0.0235424
0.0319799
-0.0296238
0.0297968
-0.0338326
0.0276119
-0.0252775
0.0249822
-0.00253746
0.0220221
0.0269151
0.0193706
0.0507055
0.0182993
0.0604039
0.0186569
0.0531692
0.0187582
0.0359418
0.0176899
0.0183905
0.0157636
0.00538384
0.0135626
-0.0026445
0.0114737
-0.00679926
0.00968167
-0.00832211
0.00824399
-0.00820048
0.00715601
-0.00712199
0.00639236
-0.00553335
0.00591989
-0.0037271
-0.00201681
0.0222789
-0.0173723
0.0210883
-0.0284332
0.0197439
-0.0324881
0.0175203
-0.0230539
0.0150868
-0.000103936
0.0131829
0.0288191
0.0125113
0.0513771
0.0137068
0.0592084
0.0157391
0.051137
0.0168324
0.0348485
0.0164218
0.0188011
0.0149913
0.0068143
0.0131543
-0.000807536
0.011314
-0.00495886
0.00967928
-0.00668744
0.00833427
-0.00685547
0.00729689
-0.00608461
0.00655771
-0.00479416
0.0060937
-0.00326309
-0.00179086
0.011848
-0.0160311
0.0127672
-0.0293524
0.011362
-0.0310829
0.00886391
-0.0205559
0.00668732
0.00207266
0.00591502
0.0295914
0.00710226
0.0501899
0.0101561
0.0561546
0.0133919
0.0479012
0.0151803
0.03306
0.0152792
0.0187022
0.0142662
0.00782726
0.0127507
0.00070796
0.0111376
-0.00334571
0.00965144
-0.00520128
0.00839679
-0.00560082
0.00741052
-0.00509834
0.00669724
-0.00408088
0.00624305
-0.0028089
-0.0015661
0.00509644
-0.0179209
0.0064777
-0.0307337
0.00452266
-0.0291279
0.00178976
-0.017823
3.19273e-05
0.00383049
0.000425093
0.0291982
0.00316172
0.0474533
0.00755122
0.0517651
0.0115376
0.0439148
0.013775
0.0308226
0.0142604
0.0182168
0.0135953
0.00849236
0.0123596
0.0019437
0.0109518
-0.00193792
0.00960352
-0.00385301
0.00843524
-0.00443254
0.00749933
-0.00416243
0.00681255
-0.00339409
0.00636909
-0.00236544
-0.00134329
0.0011248
-0.0207608
0.00174565
-0.0313545
-0.000828522
-0.0265537
-0.00358405
-0.0150675
-0.0049217
0.00516814
-0.00350779
0.0277843
0.000537512
0.043408
0.00571944
0.0465832
0.0100856
0.0395487
0.0125874
0.0283208
0.0133611
0.017443
0.0129821
0.00887143
0.0119881
0.00293764
0.0107627
-0.000712466
0.0095403
-0.00263062
0.00845302
-0.00334527
0.00756558
-0.00327499
0.00690517
-0.00273368
0.00647294
-0.00193321
-0.00112306
-0.00081095
-0.0222404
-0.00167749
-0.030488
-0.00465061
-0.0235806
-0.00737841
-0.0123397
-0.00816781
0.00595755
-0.00591381
0.0255303
-0.00109422
0.0385884
0.00446743
0.0410215
0.00895217
0.0350639
0.0115913
0.0256817
0.0125768
0.0164575
0.01243
0.00901817
0.0116417
0.003726
0.0105756
0.000353555
0.00946608
-0.00152106
0.00845317
-0.00233235
0.00761139
-0.00243321
0.0069764
-0.00209869
0.0065559
-0.00151271
-0.000905333
-0.00158775
-0.0206526
-0.0051457
-0.02693
-0.00908514
-0.0196412
-0.0120628
-0.00936203
-0.0122423
0.0061371
-0.00872479
0.0220127
-0.00247748
0.0323411
0.00426221
0.0342818
0.00958389
0.0297422
0.0128217
0.0224439
0.0142046
0.0150746
0.0142729
0.00894992
0.0135531
0.00444582
0.0124529
0.00145367
0.0112524
-0.000320499
0.0101245
-0.00120452
0.00916991
-0.00147857
0.00843841
-0.0013672
0.00795159
-0.00102589
-0.000644334
-0.00268423
-0.0179684
-0.00734956
-0.0222647
-0.0113218
-0.015669
-0.0137929
-0.00689087
-0.0132553
0.00559944
-0.0092564
0.0180139
-0.00297507
0.0260597
0.00352082
0.0277859
0.00864743
0.0246156
0.0118824
0.0192088
0.013408
0.013549
0.0136751
0.00868287
0.0131489
0.00497203
0.0122084
0.00239414
0.011127
0.000760899
0.0100818
-0.000159337
0.00918047
-0.000577213
0.00848046
-0.000667192
0.00800927
-0.000554695
-0.000387849
-0.00358647
-0.0143819
-0.00870982
-0.0171413
-0.0124966
-0.0118822
-0.0144265
-0.00496089
-0.0133459
0.00451882
-0.0091555
0.0138235
-0.00307502
0.0199792
0.00307664
0.0216343
0.00797598
0.0197163
0.0111671
0.0160177
0.0127775
0.0119386
0.0131842
0.00827615
0.0128021
0.00535417
0.0119853
0.00321087
0.0109987
0.00174756
0.0100213
0.000818092
0.00916503
0.000279006
0.00849276
5.07629e-06
0.00803563
-9.75664e-05
-0.000136385
-0.00419281
-0.0101891
-0.00949659
-0.0118376
-0.0130289
-0.00834994
-0.0144877
-0.00350204
-0.0130356
0.00306667
-0.00881229
0.00960019
-0.00299047
0.0141574
0.002837
0.0158068
0.00752721
0.0150261
0.0106553
0.0128896
0.0123051
0.0102888
0.0127995
0.00778174
0.0125155
0.00563818
0.0117872
0.0039392
0.0108713
0.00266341
0.00994625
0.00174317
0.00912615
0.00109911
0.0084768
0.000654418
0.00803234
0.0003469
0.000110244
-0.00454249
-0.0056466
-0.00990238
-0.00647766
-0.01321
-0.00504233
-0.0143228
-0.00238923
-0.0126368
0.00138066
-0.00843449
0.00539789
-0.00282693
0.00854985
0.00275223
0.0102276
0.00727396
0.0105044
0.0103318
0.00983175
0.0119837
0.00863699
0.0125191
0.0072463
0.0122902
0.00586713
0.0116162
0.00461311
0.0107471
0.00353256
0.00985872
0.00263155
0.00906545
0.00189237
0.00843436
0.00128551
0.0080006
0.000780666
0.000352367
-0.00468441
-0.000962193
-0.0100446
-0.00111748
-0.013212
-0.00187495
-0.0141245
-0.00147668
-0.0123079
-0.000435996
-0.00811624
0.00120625
-0.00263028
0.0030639
0.00279804
0.0047993
0.00720043
0.00610198
0.0101864
0.00684576
0.0118077
0.00701569
0.0123409
0.00671314
0.012126
0.00608205
0.0114735
0.00526558
0.0106273
0.00437873
0.00976001
0.00349887
0.00898418
0.0026682
0.00836624
0.00190345
0.00794124
0.00120567
0.000590368
-0.00464752
0.00368533
-0.00996959
0.00420459
-0.0131029
0.00125835
-0.0139692
-0.000610322
-0.0121092
-0.00229608
-0.00789068
-0.00301222
-0.00241602
-0.00241077
0.00296521
-0.000581928
0.0072994
0.00176779
0.0102136
0.0039316
0.0117734
0.00545582
0.0122626
0.006224
0.0120218
0.00632278
0.0113586
0.00592877
0.0105122
0.00522517
0.00965056
0.00436052
0.00888285
0.00343592
0.00827298
0.00251332
0.00785478
0.00162386
0.000824658
-0.00443835
0.00812368
-0.00964987
0.0094161
-0.0128509
0.00445935
-0.0138357
0.000374498
-0.012031
-0.00410081
-0.00775417
-0.00728902
-0.00218155
-0.00798339
0.003255
-0.00601848
0.00757095
-0.00254816
0.0104119
0.00109061
0.0118787
0.00398911
0.0122819
0.00582078
0.0119758
0.00662885
0.0112703
0.00663428
0.0104009
0.00609455
0.00953001
0.00523143
0.00876142
0.0042045
0.00815474
0.00312
0.00774147
0.00203713
0.00105564
-0.00405614
0.0121798
-0.00897027
0.0143302
-0.0123082
0.00779728
-0.0135886
0.00165488
-0.0119843
-0.00570504
-0.00766384
-0.0116095
-0.00190657
-0.0137407
0.0036807
-0.0116057
0.00802266
-0.00689012
0.0107846
-0.00167131
0.0121229
0.00265079
0.0123964
0.00554728
0.011985
0.00704028
0.0112059
0.00741336
0.0102916
0.00700885
0.00939718
0.00612583
0.00861929
0.0049824
0.00801125
0.00372803
0.00760122
0.00244716
0.00128368
-0.00357144
0.0157513
-0.00770511
0.0184639
-0.0111796
0.0112718
-0.0129359
0.00341117
-0.011752
-0.00688889
-0.00750326
-0.0158583
-0.00153863
-0.0197053
0.00426717
-0.0174115
0.00866921
-0.0112922
0.0113378
-0.00433987
0.0125062
0.00148231
0.0126028
0.00545075
0.0120449
0.00759819
0.0111613
0.00829693
0.0101811
0.00798908
0.00925002
0.00705689
0.00845518
0.00577723
0.00784205
0.00434116
0.0074334
0.00285582
0.0015084
-0.00260991
0.0159196
0.00244156
-0.00447322
0.0203272
-0.00723108
0.0140296
-0.0090412
0.00522129
-0.00862021
-0.00730988
-0.00553925
-0.0189393
-0.000802647
-0.0244419
0.00389673
-0.0221109
0.00739191
-0.0147873
0.00939746
-0.00634543
0.0101591
0.000720705
0.0100753
0.00553449
0.00950682
0.00816669
0.008721
0.00908275
0.00789371
0.00881637
0.00713105
0.00781955
0.00649184
0.00641644
0.00600711
0.0048259
0.0056845
0.00317842
0.00167854
-0.00141124
0.0146993
0.00263158
-0.00233844
0.0212544
-0.0051142
0.0168054
-0.00734752
0.00745461
-0.00752323
-0.00713417
-0.00487834
-0.0215841
-0.000235717
-0.0290845
0.00452895
-0.0268756
0.00804821
-0.0183066
0.0099549
-0.00825212
0.0105502
0.000125419
0.0102973
0.00578735
0.00959096
0.00887306
0.00870761
0.00996611
0.00781862
0.00970536
0.00702101
0.00861716
0.00636458
0.00707287
0.00587355
0.00531693
0.00555051
0.00350145
0.00184644
0.00120985
0.013799
-0.000309597
0.000789178
0.0216751
-0.00200175
0.0195963
-0.00463694
0.0100898
-0.00554033
-0.00623078
-0.00360545
-0.023519
0.000636105
-0.0333261
0.00535851
-0.031598
0.00885147
-0.0217996
0.0106217
-0.0100223
0.0110129
-0.000265842
0.010559
0.00624127
0.00969179
0.00974029
0.00869625
0.0109616
0.00773709
0.0106645
0.00689998
0.00945427
0.00622422
0.00774864
0.00572584
0.00581531
0.00540262
0.00382467
0.00201257
0.00576069
0.0146881
-0.00664974
0.00516051
0.0222753
0.00235614
0.0224007
-0.000671981
0.0131179
-0.00236004
-0.00454272
-0.0014121
-0.024467
0.00203438
-0.0367725
0.00646768
-0.0360313
0.00983078
-0.0251627
0.0114066
-0.0115982
0.0115476
-0.000406827
0.010857
0.00693186
0.0098051
0.0107922
0.00868325
0.0120835
0.00764641
0.0117014
0.00676625
0.0103344
0.00606967
0.00844521
0.00556355
0.00632144
0.00524012
0.00414809
0.00217666
0.0127368
0.0189221
-0.0169708
0.0110168
0.0239953
0.00811654
0.0253009
0.0047361
0.0164984
0.00223578
-0.0020424
0.00193158
-0.0241628
0.00419275
-0.0390337
0.00797043
-0.039809
0.0110269
-0.0282191
0.0123219
-0.0128932
0.0121552
-0.000240096
0.0111878
0.0078992
0.00992641
0.0120537
0.00866469
0.0133452
0.00754371
0.0128223
0.00661794
0.0112602
0.00589981
0.00916334
0.00538599
0.00683526
0.00506259
0.00447148
0.00233838
0.0225846
0.0272679
-0.0309304
0.0186952
0.0278847
0.0153124
0.0286837
0.0116175
0.0201932
0.00834866
0.00122646
0.00663982
-0.0224539
0.00733812
-0.039732
0.0100058
-0.0424766
0.012492
-0.0307053
0.0133819
-0.0137831
0.0128359
0.000305935
0.0115468
0.00918823
0.0100503
0.0135502
0.00863607
0.0147594
0.00742584
0.0140326
0.00645302
0.012233
0.00571343
0.00990294
0.00519247
0.00735621
0.00486959
0.00479437
0.00249735
0.0350719
0.0390694
-0.0468734
0.0284218
0.0345348
0.0240147
0.0330909
0.0199227
0.0242852
0.0159654
0.00518375
0.0128372
-0.0193257
0.0116432
-0.0385381
0.0127171
-0.0435505
0.014287
-0.0322753
0.0146027
-0.0140988
0.0135886
0.00132007
0.011928
0.0108488
0.0101703
0.0153079
0.00859225
0.0163375
0.00728932
0.0153355
0.00626935
0.013253
0.00550929
0.010663
0.00498231
0.0078832
0.00466067
0.00511601
0.00265309
0.048985
0.0523088
-0.0622243
0.0399658
0.043554
0.0341621
0.0388946
0.0294809
0.0289663
0.024895
0.00976964
0.0204223
-0.0148529
0.0171669
-0.0352827
0.0162176
-0.0426012
0.0164736
-0.0325314
0.0159997
-0.0136249
0.0144108
0.00290896
0.0123235
0.0129361
0.0102786
0.0173528
0.00852754
0.0180886
0.00713035
0.0167327
0.00606465
0.0143187
0.00528617
0.0114415
0.00475483
0.00841453
0.00443545
0.00543539
0.00280509
0.0624933
0.0645893
-0.0747738
0.0524331
0.0536141
0.0453925
0.0459352
0.0399929
0.0343659
0.0348021
0.0149605
0.0291302
-0.00918103
0.0238213
-0.0299738
0.0205538
-0.0393336
0.0191011
-0.0310787
0.0175852
-0.012109
0.0152972
0.00519701
0.0127233
0.01551
0.0103664
0.0197097
0.00843544
0.0200195
0.00694485
0.0182233
0.0058366
0.0154269
0.00504286
0.0122352
0.00450947
0.00894792
0.00419362
0.00575124
0.00295276
0.0739344
0.0741747
-0.0835197
0.0644851
0.0630635
0.0569436
0.0534767
0.0509534
0.040356
0.0452247
0.0206893
0.038559
-0.00251537
0.0313745
-0.0227893