x,y,z,U_0,U_1,U_2
0,0,0,0.300004,-0.000297865,0
0,0.1,0,0.300003,-0.000178719,0
0,0.2,0,0.300001,-5.9573e-05,0
0,0.3,0,0.3,0,0
0,0.4,0,0.3,0,0
0,0.5,0,0.3,0,0
0,0.6,0,0.3,0,0
0,0.7,0,0.3,0,0
0,0.8,0,0.3,0,0
0,0.9,0,0.3,0,0
0,1,0,0.3,0,0
0,1.1,0,0.3,0,0
0,1.2,0,0.3,0,0
0,1.3,0,0.3,0,0
0,1.4,0,0.3,0,0
0,1.5,0,0.3,0,0
0,1.6,0,0.3,0,0
0,1.7,0,0.3,0,0
0,1.8,0,0.3,0,0
0,1.9,0,0.3,0,0
0,2,0,0.3,0,0
0,2.1,0,0.3,0,0
0,2.2,0,0.3,0,0
0,2.3,0,0.3,0,0
0,2.4,0,0.3,0,0
0,2.5,0,0.3,0,0
0,2.6,0,0.3,0,0
0,2.7,0,0.3,0,0
0,2.8,0,0.3,0,0
0,2.9,0,0.3,0,0
0,3,0,0.3,0,0
0,3.1,0,0.3,0,0
0,3.2,0,0.3,0,0
0,3.3,0,0.3,0,0
0,3.4,0,0.3,0,0
0,3.5,0,0.3,0,0
0,3.6,0,0.3,0,0
0,3.7,0,0.3,0,0
0,3.8,0,0.3,0,0
0,3.9,0,0.3,0,0
0,4,0,0.3,0,0
0,4.1,0,0.3,0,0
0,4.2,0,0.3,0,0
0,4.3,0,0.3,0,0
0,4.4,0,0.3,0,0
0,4.5,0,0.3,0,0
0,4.6,0,0.3,0,0
0,4.7,0,0.3,0,0
0,4.8,0,0.3,0,0
0,4.9,0,0.3,0,0
0,5,0,0.3,0,0
0,5.1,0,0.3,0,0
0,5.2,0,0.3,0,0
0,5.3,0,0.3,0,0
0,5.4,0,0.3,0,0
0,5.5,0,0.3,0,0
0,5.6,0,0.3,0,0
0,5.7,0,0.3,0,0
0,5.8,0,0.3,0,0
0,5.9,0,0.3,0,0
0,6,0,0.3,0,0
0,6.1,0,0.3,0,0
0,6.2,0,0.3,0,0
0,6.3,0,0.3,0,0
0,6.4,0,0.3,0,0
0,6.5,0,0.3,0,0
0,6.6,0,0.3,0,0
0,6.7,0,0.3,0,0
0,6.8,0,0.3,0,0
0,6.9,0,0.3,0,0
0,7,0,0.3,0,0
0,7.1,0,0.3,0,0
0,7.2,0,0.3,0,0
0,7.3,0,0.3,0,0
0,7.4,0,0.3,0,0
0,7.5,0,0.3,0,0
0,7.6,0,0.3,0,0
0,7.7,0,0.3,0,0
0,7.8,0,0.3,0,0
0,7.9,0,0.3,0,0
0,8,0,0.3,0,0
0,8.1,0,0.3,0,0
0,8.2,0,0.3,0,0
0,8.3,0,0.3,0,0
0,8.4,0,0.3,0,0
0,8.5,0,0.3,0,0
0,8.6,0,0.3,0,0
0,8.7,0,0.3,0,0
0,8.8,0,0.3,0,0
0,8.9,0,0.3,0,0
0,9,0,0.3,0,0
0,9.1,0,0.3,0,0
0,9.2,0,0.3,0,0
0,9.3,0,0.3,0,0
0,9.4,0,0.3,0,0
0,9.5,0,0.3,0,0
0,9.6,0,0.3,0,0
0,9.7,0,0.3,0,0
0,9.8,0,0.3,0,0
0,9.9,0,0.3,0,0
0,10,0,0.3,0,0
0,10.1,0,0.3,0,0
0,10.2,0,0.3,0,0
0,10.3,0,0.3,0,0
0,10.4,0,0.3,0,0
0,10.5,0,0.3,0,0
0,10.6,0,0.3,0,0
0,10.7,0,0.3,0,0
0,10.8,0,0.3,0,0
0,10.9,0,0.3,0,0
0,11,0,0.3,0,0
0,11.1,0,0.3,0,0
0,11.2,0,0.3,0,0
0,11.3,0,0.3,0,0
0,11.4,0,0.3,0,0
0,11.5,0,0.3,0,0
0,11.6,0,0.3,0,0
0,11.7,0,0.3,0,0
0,11.8,0,0.3,0,0
0,11.9,0,0.3,0,0
0,12,0,0.3,0,0
0,12.1,0,0.3,0,0
0,12.2,0,0.3,0,0
0,12.3,0,0.3,0,0
0,12.4,0,0.3,0,0
0,12.5,0,0.3,9.42006e-05,0
0,12.6,0,0.300001,0.000205025,0
0,12.7,0,0.300001,0.000315849,0
0.1,0,0,0.300002,-0.00050247,0
0.1,0.1,0,0.300005,-0.000330591,0
0.1,0.2,0,0.300003,-0.000211445,0
0.1,0.3,0,0.300002,-0.000196423,0
0.1,0.4,0,0.300002,-0.000196423,0
0.1,0.5,0,0.299997,-0.000248636,0
0.1,0.6,0,0.300002,-0.000194251,0
0.1,0.7,0,0.300002,-0.000194251,0
0.1,0.8,0,0.300002,-0.00019129,0
0.1,0.9,0,0.300002,-0.00019129,0
0.1,1,0,0.299995,-0.000243252,0
0.1,1.1,0,0.300002,-0.00018767,0
0.1,1.2,0,0.300002,-0.00018767,0
0.1,1.3,0,0.300003,-0.000183543,0
0.1,1.4,0,0.300003,-0.000183543,0
0.1,1.5,0,0.299993,-0.000234189,0
0.1,1.6,0,0.300005,-0.000179056,0
0.1,1.7,0,0.300005,-0.000179056,0
0.1,1.8,0,0.300008,-0.000174327,0
0.1,1.9,0,0.300008,-0.000174327,0
0.1,2,0,0.299991,-0.000221329,0
0.1,2.1,0,0.300014,-0.000169407,0
0.1,2.2,0,0.300014,-0.000169407,0
0.1,2.3,0,0.300022,-0.000164256,0
0.1,2.4,0,0.300022,-0.000164256,0
0.1,2.5,0,0.299989,-0.000204688,0
0.1,2.6,0,0.300033,-0.000158735,0
0.1,2.7,0,0.300033,-0.000158735,0
0.1,2.8,0,0.300047,-0.00015262,0
0.1,2.9,0,0.300047,-0.00015262,0
0.1,3,0,0.299985,-0.000184557,0
0.1,3.1,0,0.300063,-0.000145652,0
0.1,3.2,0,0.300063,-0.000145652,0
0.1,3.3,0,0.30008,-0.000137612,0
0.1,3.4,0,0.30008,-0.000137612,0
0.1,3.5,0,0.29998,-0.000161487,0
0.1,3.6,0,0.300096,-0.000128398,0
0.1,3.7,0,0.300096,-0.000128398,0
0.1,3.8,0,0.30011,-0.000118078,0
0.1,3.9,0,0.30011,-0.000118078,0
0.1,4,0,0.299976,-0.000136015,0
0.1,4.1,0,0.30012,-0.00010689,0
0.1,4.2,0,0.30012,-0.00010689,0
0.1,4.3,0,0.300126,-9.52111e-05,0
0.1,4.4,0,0.300126,-9.52111e-05,0
0.1,4.5,0,0.299974,-0.000108364,0
0.1,4.6,0,0.300127,-8.35394e-05,0
0.1,4.7,0,0.300127,-8.35394e-05,0
0.1,4.8,0,0.300125,-7.21145e-05,0
0.1,4.9,0,0.300125,-7.21145e-05,0
0.1,5,0,0.299975,-7.96205e-05,0
0.1,5.1,0,0.300122,-6.12157e-05,0
0.1,5.2,0,0.299975,-6.69696e-05,0
0.1,5.3,0,0.300118,-5.10677e-05,0
0.1,5.4,0,0.299976,-5.49486e-05,0
0.1,5.5,0,0.300114,-4.11557e-05,0
0.1,5.6,0,0.299976,-4.27537e-05,0
0.1,5.7,0,0.300112,-3.15498e-05,0
0.1,5.8,0,0.299976,-3.04088e-05,0
0.1,5.9,0,0.30011,-2.20761e-05,0
0.1,6,0,0.299976,-1.79846e-05,0
0.1,6.1,0,0.300111,-1.25728e-05,0
0.1,6.2,0,0.299976,-5.55106e-06,0
0.1,6.3,0,0.300113,-2.89573e-06,0
0.1,6.4,0,0.299975,6.81905e-06,0
0.1,6.5,0,0.300116,7.09142e-06,0
0.1,6.6,0,0.299975,1.90487e-05,0
0.1,6.7,0,0.300119,1.7552e-05,0
0.1,6.8,0,0.299974,3.11331e-05,0
0.1,6.9,0,0.300123,2.83193e-05,0
0.1,7,0,0.299974,4.44845e-05,0
0.1,7.1,0,0.300125,4.03806e-05,0
0.1,7.2,0,0.300125,4.03806e-05,0
0.1,7.3,0,0.300025,5.80347e-05,0
0.1,7.4,0,0.300125,5.29249e-05,0
0.1,7.5,0,0.300125,5.29249e-05,0
0.1,7.6,0,0.300073,6.96581e-05,0
0.1,7.7,0,0.300119,6.58258e-05,0
0.1,7.8,0,0.300119,6.58258e-05,0
0.1,7.9,0,0.300108,7.86098e-05,0
0.1,8,0,0.300108,7.86098e-05,0
0.1,8.1,0,0.300096,8.14225e-05,0
0.1,8.2,0,0.300092,9.06443e-05,0
0.1,8.3,0,0.300092,9.06443e-05,0
0.1,8.4,0,0.300044,0.000105875,0
0.1,8.5,0,0.300074,0.00010166,0
0.1,8.6,0,0.300074,0.00010166,0
0.1,8.7,0,0.300002,0.000131873,0
0.1,8.8,0,0.300055,0.000111669,0
0.1,8.9,0,0.300055,0.000111669,0
0.1,9,0,0.29999,0.000150878,0
0.1,9.1,0,0.300038,0.000120916,0
0.1,9.2,0,0.300038,0.000120916,0
0.1,9.3,0,0.300003,0.000150437,0
0.1,9.4,0,0.300025,0.000129767,0
0.1,9.5,0,0.300025,0.000129767,0
0.1,9.6,0,0.300009,0.000146882,0
0.1,9.7,0,0.300015,0.000138559,0
0.1,9.8,0,0.300015,0.000138559,0
0.1,9.9,0,0.300008,0.000147499,0
0.1,10,0,0.300008,0.000147499,0
0.1,10.1,0,0.300004,0.00015822,0
0.1,10.2,0,0.300003,0.000156619,0
0.1,10.3,0,0.300003,0.000156619,0
0.1,10.4,0,0.299996,0.000185308,0
0.1,10.5,0,0.300001,0.000165794,0
0.1,10.6,0,0.300001,0.000165794,0
0.1,10.7,0,0.299992,0.000211155,0
0.1,10.8,0,0.299999,0.000174783,0
0.1,10.9,0,0.299999,0.000174783,0
0.1,11,0,0.299993,0.000214353,0
0.1,11.1,0,0.299998,0.000183289,0
0.1,11.2,0,0.299998,0.000183289,0
0.1,11.3,0,0.299996,0.000207337,0
0.1,11.4,0,0.299998,0.000191002,0
0.1,11.5,0,0.299998,0.000191002,0
0.1,11.6,0,0.299998,0.00020077,0
0.1,11.7,0,0.299998,0.000197628,0
0.1,11.8,0,0.299998,0.000197628,0
0.1,11.9,0,0.299999,0.0002029,0
0.1,12,0,0.299999,0.0002029,0
0.1,12.1,0,0.299998,0.0002144,0
0.1,12.2,0,0.3,0.000206602,0
0.1,12.3,0,0.3,0.000206602,0
0.1,12.4,0,0.299999,0.000229082,0
0.1,12.5,0,0.300001,0.000254264,0
0.1,12.6,0,0.300002,0.000365089,0
0.1,12.7,0,0.3,0.000508512,0
0.2,0,0,0.300001,-0.000707075,0
0.2,0.1,0,0.300007,-0.000482463,0
0.2,0.2,0,0.300002,-0.000431993,0
0.2,0.3,0,0.300002,-0.000430335,0
0.2,0.4,0,0.300005,-0.000392846,0
0.2,0.5,0,0.299994,-0.000497273,0
0.2,0.6,0,0.300004,-0.000388502,0
0.2,0.7,0,0.3,-0.000425005,0
0.2,0.8,0,0.299999,-0.000421156,0
0.2,0.9,0,0.300003,-0.000382581,0
0.2,1,0,0.29999,-0.000486505,0
0.2,1.1,0,0.300004,-0.00037534,0
0.2,1.2,0,0.299998,-0.000411403,0
0.2,1.3,0,0.299999,-0.000406038,0
0.2,1.4,0,0.300006,-0.000367086,0
0.2,1.5,0,0.299986,-0.000468377,0
0.2,1.6,0,0.300009,-0.000358113,0
0.2,1.7,0,0.300001,-0.00039254,0
0.2,1.8,0,0.300005,-0.000386392,0
0.2,1.9,0,0.300017,-0.000348654,0
0.2,2,0,0.299982,-0.000442659,0
0.2,2.1,0,0.300028,-0.000338814,0
0.2,2.2,0,0.300011,-0.000369658,0
0.2,2.3,0,0.300022,-0.000362963,0
0.2,2.4,0,0.300044,-0.000328513,0
0.2,2.5,0,0.299977,-0.000409376,0
0.2,2.6,0,0.300066,-0.000317471,0
0.2,2.7,0,0.300034,-0.000342876,0
0.2,2.8,0,0.300052,-0.000334925,0
0.2,2.9,0,0.300094,-0.000305239,0
0.2,3,0,0.29997,-0.000369115,0
0.2,3.1,0,0.300126,-0.000291303,0
0.2,3.2,0,0.300069,-0.000310693,0
0.2,3.3,0,0.300091,-0.000300242,0
0.2,3.4,0,0.300159,-0.000275224,0
0.2,3.5,0,0.29996,-0.000322974,0
0.2,3.6,0,0.300192,-0.000256797,0
0.2,3.7,0,0.300109,-0.000271237,0
0.2,3.8,0,0.300127,-0.000257821,0
0.2,3.9,0,0.30022,-0.000236157,0
0.2,4,0,0.299952,-0.000272031,0
0.2,4.1,0,0.300241,-0.00021378,0
0.2,4.2,0,0.300139,-0.000224682,0
0.2,4.3,0,0.300146,-0.000209499,0
0.2,4.4,0,0.300252,-0.000190422,0
0.2,4.5,0,0.299949,-0.000216728,0
0.2,4.6,0,0.300255,-0.000167079,0
0.2,4.7,0,0.300148,-0.000174236,0
0.2,4.8,0,0.300145,-0.000159384,0
0.2,4.9,0,0.30025,-0.000144229,0
0.2,5,0,0.299949,-0.000159241,0
0.2,5.1,0,0.300243,-0.000122431,0
0.2,5.2,0,0.29995,-0.000133939,0
0.2,5.3,0,0.300236,-0.000102135,0
0.2,5.4,0,0.299951,-0.000109897,0
0.2,5.5,0,0.300228,-8.23114e-05,0
0.2,5.6,0,0.299952,-8.55073e-05,0
0.2,5.7,0,0.300223,-6.30997e-05,0
0.2,5.8,0,0.299952,-6.08176e-05,0
0.2,5.9,0,0.300221,-4.41521e-05,0
0.2,6,0,0.299952,-3.59693e-05,0
0.2,6.1,0,0.300222,-2.51456e-05,0
0.2,6.2,0,0.299952,-1.11021e-05,0
0.2,6.3,0,0.300225,-5.79145e-06,0
0.2,6.4,0,0.299951,1.36381e-05,0
0.2,6.5,0,0.300231,1.41828e-05,0
0.2,6.6,0,0.29995,3.80973e-05,0
0.2,6.7,0,0.300239,3.51039e-05,0
0.2,6.8,0,0.299949,6.22661e-05,0
0.2,6.9,0,0.300246,5.66386e-05,0
0.2,7,0,0.299948,8.8969e-05,0
0.2,7.1,0,0.30025,8.07612e-05,0
0.2,7.2,0,0.300241,8.20084e-05,0
0.2,7.3,0,0.299999,0.000118727,0
0.2,7.4,0,0.30025,0.00010585,0
0.2,7.5,0,0.300189,0.000115952,0
0.2,7.6,0,0.300047,0.000147619,0
0.2,7.7,0,0.300239,0.000131652,0
0.2,7.8,0,0.300131,0.000153134,0
0.2,7.9,0,0.300087,0.000172825,0
0.2,8,0,0.300216,0.00015722,0
0.2,8.1,0,0.300073,0.000192096,0
0.2,8.2,0,0.300112,0.000193939,0
0.2,8.3,0,0.300185,0.000181289,0
0.2,8.4,0,0.300023,0.000231954,0
0.2,8.5,0,0.30012,0.000210389,0
0.2,8.6,0,0.300148,0.00020332,0
0.2,8.7,0,0.299984,0.000272672,0
0.2,8.8,0,0.300111,0.000223337,0
0.2,8.9,0,0.300111,0.000223337,0
0.2,9,0,0.299973,0.000305613,0
0.2,9.1,0,0.300077,0.000241833,0
0.2,9.2,0,0.300068,0.000250053,0
0.2,9.3,0,0.299989,0.000318211,0
0.2,9.4,0,0.30005,0.000259534,0
0.2,9.5,0,0.30003,0.000285435,0
0.2,9.6,0,0.299996,0.000326697,0
0.2,9.7,0,0.30003,0.000277118,0
0.2,9.8,0,0.300007,0.000322012,0
0.2,9.9,0,0.299999,0.000332206,0
0.2,10,0,0.300016,0.000294998,0
0.2,10.1,0,0.299993,0.000358857,0
0.2,10.2,0,0.299999,0.00033602,0
0.2,10.3,0,0.300007,0.000313239,0
0.2,10.4,0,0.299986,0.000394678,0
0.2,10.5,0,0.3,0.000339233,0
0.2,10.6,0,0.300002,0.000331588,0
0.2,10.7,0,0.299982,0.000428148,0
0.2,10.8,0,0.299999,0.000349566,0
0.2,10.9,0,0.299999,0.000349566,0
0.2,11,0,0.299985,0.000437883,0
0.2,11.1,0,0.299997,0.000366578,0
0.2,11.2,0,0.299995,0.000379812,0
0.2,11.3,0,0.299989,0.000436344,0
0.2,11.4,0,0.299997,0.000382004,0
0.2,11.5,0,0.299994,0.000408812,0
0.2,11.6,0,0.299992,0.000434218,0
0.2,11.7,0,0.299997,0.000395257,0
0.2,11.8,0,0.299994,0.000433475,0
0.2,11.9,0,0.299995,0.000431135,0
0.2,12,0,0.299998,0.000405799,0
0.2,12.1,0,0.299995,0.000453717,0
0.2,12.2,0,0.299999,0.000426405,0
0.2,12.3,0,0.3,0.000413204,0
0.2,12.4,0,0.299997,0.000469853,0
0.2,12.5,0,0.300002,0.000419284,0
0.2,12.6,0,0.300002,0.000525153,0
0.2,12.7,0,0.299999,0.000701174,0
0.3,0,0,0.299999,-0.00091168,0
0.3,0.1,0,0.300007,-0.000655429,0
0.3,0.2,0,0.300001,-0.000681972,0
0.3,0.3,0,0.3,-0.000680315,0
0.3,0.4,0,0.300005,-0.000610154,0
0.3,0.5,0,0.299992,-0.000745909,0
0.3,0.6,0,0.300004,-0.000604507,0
0.3,0.7,0,0.299996,-0.000671403,0
0.3,0.8,0,0.299995,-0.000667555,0
0.3,0.9,0,0.300002,-0.000594656,0
0.3,1,0,0.299985,-0.000729757,0
0.3,1.1,0,0.300003,-0.000585243,0
0.3,1.2,0,0.299992,-0.000650592,0
0.3,1.3,0,0.299993,-0.000645226,0
0.3,1.4,0,0.300004,-0.000570887,0
0.3,1.5,0,0.299979,-0.000702566,0
0.3,1.6,0,0.300009,-0.000559222,0
0.3,1.7,0,0.299993,-0.000620778,0
0.3,1.8,0,0.299997,-0.00061463,0
0.3,1.9,0,0.300018,-0.000541782,0
0.3,2,0,0.299973,-0.000663988,0
0.3,2.1,0,0.300032,-0.000528989,0
0.3,2.2,0,0.300001,-0.000583129,0
0.3,2.3,0,0.300012,-0.000576433,0
0.3,2.4,0,0.300053,-0.000508942,0
0.3,2.5,0,0.299966,-0.000614063,0
0.3,2.6,0,0.300082,-0.000494587,0
0.3,2.7,0,0.300021,-0.000537904,0
0.3,2.8,0,0.300038,-0.000529954,0
0.3,2.9,0,0.300116,-0.000470634,0
0.3,3,0,0.299954,-0.000553672,0
0.3,3.1,0,0.300157,-0.000452517,0
0.3,3.2,0,0.300052,-0.000484045,0
0.3,3.3,0,0.300074,-0.000473594,0
0.3,3.4,0,0.300199,-0.000422386,0
0.3,3.5,0,0.29994,-0.000484461,0
0.3,3.6,0,0.300242,-0.000398431,0
0.3,3.7,0,0.300087,-0.000420264,0
0.3,3.8,0,0.300105,-0.000406848,0
0.3,3.9,0,0.300276,-0.00036141,0
0.3,4,0,0.299929,-0.000408046,0
0.3,4.1,0,0.300303,-0.000332321,0
0.3,4.2,0,0.300114,-0.000347146,0
0.3,4.3,0,0.300121,-0.000331963,0
0.3,4.4,0,0.300317,-0.000290894,0
0.3,4.5,0,0.299923,-0.000325093,0
0.3,4.6,0,0.300321,-0.000260548,0
0.3,4.7,0,0.300122,-0.000268,0
0.3,4.8,0,0.300119,-0.000253148,0
0.3,4.9,0,0.300315,-0.000219346,0
0.3,5,0,0.299924,-0.000238861,0
0.3,5.1,0,0.300365,-0.000183647,0
0.3,5.2,0,0.299925,-0.000200909,0
0.3,5.3,0,0.300354,-0.000153203,0
0.3,5.4,0,0.299927,-0.000164846,0
0.3,5.5,0,0.300342,-0.000123467,0
0.3,5.6,0,0.299928,-0.000128261,0
0.3,5.7,0,0.300335,-9.46495e-05,0
0.3,5.8,0,0.299928,-9.12263e-05,0
0.3,5.9,0,0.300331,-6.62282e-05,0
0.3,6,0,0.299928,-5.39539e-05,0
0.3,6.1,0,0.300332,-3.77184e-05,0
0.3,6.2,0,0.299927,-1.66532e-05,0
0.3,6.3,0,0.300338,-8.68718e-06,0
0.3,6.4,0,0.299926,2.04571e-05,0
0.3,6.5,0,0.300347,2.12742e-05,0
0.3,6.6,0,0.299925,5.7146e-05,0
0.3,6.7,0,0.300358,5.26559e-05,0
0.3,6.8,0,0.299923,9.33992e-05,0
0.3,6.9,0,0.300368,8.49579e-05,0
0.3,7,0,0.299922,0.000133453,0
0.3,7.1,0,0.300267,0.000124094,0
0.3,7.2,0,0.300215,0.0001427,0
0.3,7.3,0,0.299973,0.000179418,0
0.3,7.4,0,0.300318,0.000161704,0
0.3,7.5,0,0.300163,0.000193914,0
0.3,7.6,0,0.300021,0.000225581,0
0.3,7.7,0,0.300353,0.000197903,0
0.3,7.8,0,0.300106,0.000247771,0
0.3,7.9,0,0.300062,0.000267462,0
0.3,8,0,0.300324,0.00023583,0
0.3,8.1,0,0.30005,0.00030277,0
0.3,8.2,0,0.300088,0.000304612,0
0.3,8.3,0,0.30026,0.000277217,0
0.3,8.4,0,0.300002,0.000358033,0
0.3,8.5,0,0.300099,0.000336467,0
0.3,8.6,0,0.300176,0.000324206,0
0.3,8.7,0,0.299965,0.000413471,0
0.3,8.8,0,0.300096,0.000362603,0
0.3,8.9,0,0.300106,0.000370894,0
0.3,9,0,0.299957,0.000460347,0
0.3,9.1,0,0.300082,0.000383218,0
0.3,9.2,0,0.300053,0.000417827,0
0.3,9.3,0,0.299974,0.000485984,0
0.3,9.4,0,0.300064,0.000399302,0
0.3,9.5,0,0.300017,0.00046525,0
0.3,9.6,0,0.299983,0.000506511,0
0.3,9.7,0,0.300045,0.000415676,0
0.3,9.8,0,0.299995,0.000512794,0
0.3,9.9,0,0.299987,0.000522989,0
0.3,10,0,0.300024,0.000442496,0
0.3,10.1,0,0.299982,0.000559494,0
0.3,10.2,0,0.299988,0.000536657,0
0.3,10.3,0,0.300007,0.00048374,0
0.3,10.4,0,0.299975,0.000604048,0
0.3,10.5,0,0.299989,0.000548603,0
0.3,10.6,0,0.299996,0.000528371,0
0.3,10.7,0,0.299973,0.000645141,0
0.3,10.8,0,0.299991,0.000559524,0
0.3,10.9,0,0.299991,0.000570531,0
0.3,11,0,0.299976,0.000661414,0
0.3,11.1,0,0.299992,0.000569635,0
0.3,11.2,0,0.299988,0.000608818,0
0.3,11.3,0,0.299981,0.00066535,0
0.3,11.4,0,0.299995,0.000578674,0
0.3,11.5,0,0.299988,0.000642259,0
0.3,11.6,0,0.299986,0.000667665,0
0.3,11.7,0,0.299995,0.000592885,0
0.3,11.8,0,0.299989,0.000670354,0
0.3,11.9,0,0.299991,0.000668015,0
0.3,12,0,0.299997,0.000609977,0
0.3,12.1,0,0.299992,0.000693034,0
0.3,12.2,0,0.299995,0.000665722,0
0.3,12.3,0,0.299999,0.000632695,0
0.3,12.4,0,0.299995,0.000710624,0
0.3,12.5,0,0.3,0.000660055,0
0.3,12.6,0,0.300002,0.000708665,0
0.3,12.7,0,0.299998,0.000893837,0
0.4,0,0,0.299997,-0.00111629,0
0.4,0.1,0,0.300005,-0.000869845,0
0.4,0.2,0,0.299999,-0.000931952,0
0.4,0.3,0,0.299999,-0.000930295,0
0.4,0.4,0,0.300002,-0.000864146,0
0.4,0.5,0,0.299989,-0.000994546,0
0.4,0.6,0,0.3,-0.000858358,0
0.4,0.7,0,0.299992,-0.000917802,0
0.4,0.8,0,0.299991,-0.000913953,0
0.4,0.9,0,0.299997,-0.000843419,0
0.4,1,0,0.29998,-0.00097301,0
0.4,1.1,0,0.299997,-0.000833648,0
0.4,1.2,0,0.299986,-0.00088978,0
0.4,1.3,0,0.299988,-0.000884415,0
0.4,1.4,0,0.299997,-0.00081064,0
0.4,1.5,0,0.299972,-0.000936755,0
0.4,1.6,0,0.300001,-0.000798329,0
0.4,1.7,0,0.299985,-0.000849016,0
0.4,1.8,0,0.29999,-0.000842868,0
0.4,1.9,0,0.300008,-0.000768503,0
0.4,2,0,0.299965,-0.000885318,0
0.4,2.1,0,0.300021,-0.000754725,0
0.4,2.2,0,0.299991,-0.000796599,0
0.4,2.3,0,0.300002,-0.000789904,0
0.4,2.4,0,0.300038,-0.000718551,0
0.4,2.5,0,0.299954,-0.000818751,0
0.4,2.6,0,0.300066,-0.000702904,0
0.4,2.7,0,0.300008,-0.000732932,0
0.4,2.8,0,0.300025,-0.000724982,0
0.4,2.9,0,0.300094,-0.000659432,0
0.4,3,0,0.299939,-0.00073823,0
0.4,3.1,0,0.300134,-0.000639845,0
0.4,3.2,0,0.300034,-0.000657397,0
0.4,3.3,0,0.300056,-0.000646945,0
0.4,3.4,0,0.30017,-0.000587447,0
0.4,3.5,0,0.299921,-0.000645948,0
0.4,3.6,0,0.30021,-0.000561981,0
0.4,3.7,0,0.300065,-0.000569292,0
0.4,3.8,0,0.300083,-0.000555876,0
0.4,3.9,0,0.300239,-0.00050052,0
0.4,4,0,0.299905,-0.000544061,0
0.4,4.1,0,0.300265,-0.000469893,0
0.4,4.2,0,0.300089,-0.000469609,0
0.4,4.3,0,0.300096,-0.000454427,0
0.4,4.4,0,0.300276,-0.000401984,0
0.4,4.5,0,0.299898,-0.000433457,0
0.4,4.6,0,0.30028,-0.000369935,0
0.4,4.7,0,0.300096,-0.000361765,0
0.4,4.8,0,0.300094,-0.000346912,0
0.4,4.9,0,0.300275,-0.000301131,0
0.4,5,0,0.299899,-0.000318482,0
0.4,5.1,0,0.300266,-0.000262982,0
0.4,5.2,0,0.299901,-0.000267878,0
0.4,5.3,0,0.300258,-0.000219108,0
0.4,5.4,0,0.299902,-0.000219794,0
0.4,5.5,0,0.300249,-0.000176166,0
0.4,5.6,0,0.299904,-0.000171015,0
0.4,5.7,0,0.300243,-0.000133746,0
0.4,5.8,0,0.299904,-0.000121635,0
0.4,5.9,0,0.30024,-9.14852e-05,0
0.4,6,0,0.299904,-7.19386e-05,0
0.4,6.1,0,0.300241,-4.90838e-05,0
0.4,6.2,0,0.299903,-2.22042e-05,0
0.4,6.3,0,0.300245,-6.28832e-06,0
0.4,6.4,0,0.299902,2.72762e-05,0
0.4,6.5,0,0.300252,3.71293e-05,0
0.4,6.6,0,0.2999,7.61946e-05,0
0.4,6.7,0,0.30026,8.15162e-05,0
0.4,6.8,0,0.299897,0.000124532,0
0.4,6.9,0,0.300268,0.000127511,0
0.4,7,0,0.299895,0.000177938,0
0.4,7.1,0,0.300241,0.000168578,0
0.4,7.2,0,0.300188,0.000203392,0
0.4,7.3,0,0.299946,0.00024011,0
0.4,7.4,0,0.300273,0.000225471,0
0.4,7.5,0,0.300137,0.000271875,0
0.4,7.6,0,0.299995,0.000303542,0
0.4,7.7,0,0.30026,0.000289259,0
0.4,7.8,0,0.300081,0.000342408,0
0.4,7.9,0,0.300037,0.0003621,0
0.4,8,0,0.300234,0.000351422,0
0.4,8.1,0,0.300027,0.000413444,0
0.4,8.2,0,0.300065,0.000415286,0
0.4,8.3,0,0.300199,0.000410324,0
0.4,8.4,0,0.299981,0.000484111,0
0.4,8.5,0,0.300078,0.000462546,0
0.4,8.6,0,0.300157,0.00046522,0
0.4,8.7,0,0.299947,0.00055427,0
0.4,8.8,0,0.300077,0.000503402,0
0.4,8.9,0,0.30009,0.000525629,0
0.4,9,0,0.29994,0.000615082,0
0.4,9.1,0,0.300066,0.000537953,0
0.4,9.2,0,0.300038,0.0005856,0
0.4,9.3,0,0.299959,0.000653757,0
0.4,9.4,0,0.300041,0.000578929,0
0.4,9.5,0,0.300004,0.000645065,0
0.4,9.6,0,0.29997,0.000686326,0
0.4,9.7,0,0.300018,0.000622469,0
0.4,9.8,0,0.299983,0.000703577,0
0.4,9.9,0,0.299974,0.000713772,0
0.4,10,0,0.300003,0.000663997,0
0.4,10.1,0,0.29997,0.000760131,0
0.4,10.2,0,0.299977,0.000737294,0
0.4,10.3,0,0.299993,0.000703535,0
0.4,10.4,0,0.299965,0.000813417,0
0.4,10.5,0,0.299979,0.000757973,0
0.4,10.6,0,0.299987,0.000745365,0
0.4,10.7,0,0.299963,0.000862135,0
0.4,10.8,0,0.299981,0.000776518,0
0.4,10.9,0,0.299982,0.000794062,0
0.4,11,0,0.299968,0.000884944,0
0.4,11.1,0,0.299983,0.000793566,0
0.4,11.2,0,0.29998,0.000837825,0
0.4,11.3,0,0.299974,0.000894356,0
0.4,11.4,0,0.299986,0.000822573,0
0.4,11.5,0,0.299982,0.000875706,0
0.4,11.6,0,0.29998,0.000901112,0
0.4,11.7,0,0.299988,0.00084662,0
0.4,11.8,0,0.299984,0.000907234,0
0.4,11.9,0,0.299986,0.000904894,0
0.4,12,0,0.299992,0.000865091,0
0.4,12.1,0,0.299988,0.000932351,0
0.4,12.2,0,0.299992,0.000905039,0
0.4,12.3,0,0.299997,0.000877483,0
0.4,12.4,0,0.299993,0.000951395,0
0.4,12.5,0,0.299998,0.000900826,0
0.4,12.6,0,0.3,0.000901327,0
0.4,12.7,0,0.299996,0.0010865,0
0.5,0,0,0.299995,-0.00132089,0
0.5,0.1,0,0.3,-0.00117256,0
0.5,0.2,0,0.299997,-0.00118193,0
0.5,0.3,0,0.299997,-0.00118027,0
0.5,0.4,0,0.299995,-0.00116634,0
0.5,0.5,0,0.299986,-0.00124318,0
0.5,0.6,0,0.299992,-0.00115914,0
0.5,0.7,0,0.299988,-0.0011642,0
0.5,0.8,0,0.299987,-0.00116035,0
0.5,0.9,0,0.299986,-0.00114178,0
0.5,1,0,0.299975,-0.00121626,0
0.5,1.1,0,0.299984,-0.00112842,0
0.5,1.2,0,0.29998,-0.00112897,0
0.5,1.3,0,0.299982,-0.0011236,0
0.5,1.4,0,0.299981,-0.00110047,0
0.5,1.5,0,0.299965,-0.00117094,0
0.5,1.6,0,0.299982,-0.0010817,0
0.5,1.7,0,0.299977,-0.00107725,0
0.5,1.8,0,0.299982,-0.00107111,0
0.5,1.9,0,0.299983,-0.00104374,0
0.5,2,0,0.299956,-0.00110665,0
0.5,2.1,0,0.299989,-0.00102012,0
0.5,2.2,0,0.299981,-0.00101007,0
0.5,2.3,0,0.299992,-0.00100337,0
0.5,2.4,0,0.299995,-0.000972453,0
0.5,2.5,0,0.299943,-0.00102344,0
0.5,2.6,0,0.300008,-0.000943885,0
0.5,2.7,0,0.299995,-0.00092796,0
0.5,2.8,0,0.300012,-0.00092001,0
0.5,2.9,0,0.300019,-0.000886398,0
0.5,3,0,0.299924,-0.000922787,0
0.5,3.1,0,0.300038,-0.000852102,0
0.5,3.2,0,0.300017,-0.000830749,0
0.5,3.3,0,0.300039,-0.000820297,0
0.5,3.4,0,0.300053,-0.000784674,0
0.5,3.5,0,0.299901,-0.000807435,0
0.5,3.6,0,0.300072,-0.000744097,0
0.5,3.7,0,0.300043,-0.000718319,0
0.5,3.8,0,0.300061,-0.000704903,0
0.5,3.9,0,0.300083,-0.000667484,0
0.5,4,0,0.299881,-0.000680077,0
0.5,4.1,0,0.300096,-0.000621482,0
0.5,4.2,0,0.300064,-0.000592073,0
0.5,4.3,0,0.300071,-0.00057689,0
0.5,4.4,0,0.3001,-0.000537601,0
0.5,4.5,0,0.299872,-0.000541821,0
0.5,4.6,0,0.300102,-0.000488524,0
0.5,4.7,0,0.300071,-0.000455529,0
0.5,4.8,0,0.300068,-0.000440677,0
0.5,4.9,0,0.300099,-0.000402402,0
0.5,5,0,0.299873,-0.000398102,0
0.5,5.1,0,0.300095,-0.000348356,0
0.5,5.2,0,0.299876,-0.000334848,0
0.5,5.3,0,0.300091,-0.000289958,0
0.5,5.4,0,0.299878,-0.000274743,0
0.5,5.5,0,0.300086,-0.000232712,0
0.5,5.6,0,0.29988,-0.000213768,0
0.5,5.7,0,0.300084,-0.000175359,0
0.5,5.8,0,0.299881,-0.000152044,0
0.5,5.9,0,0.300082,-0.000117803,0
0.5,6,0,0.29988,-8.99232e-05,0
0.5,6.1,0,0.300082,-6.00467e-05,0
0.5,6.2,0,0.299879,-2.77553e-05,0
0.5,6.3,0,0.300084,-2.12461e-06,0
0.5,6.4,0,0.299877,3.40952e-05,0
0.5,6.5,0,0.300087,5.59056e-05,0
0.5,6.6,0,0.299874,9.52433e-05,0
0.5,6.7,0,0.30009,0.000114146,0
0.5,6.8,0,0.299872,0.000155665,0
0.5,6.9,0,0.300093,0.00017481,0
0.5,7,0,0.299869,0.000222422,0
0.5,7.1,0,0.300096,0.00022892,0
0.5,7.2,0,0.300096,0.000265884,0
0.5,7.3,0,0.29992,0.000300802,0
0.5,7.4,0,0.300095,0.000311199,0
0.5,7.5,0,0.300096,0.000350585,0
0.5,7.6,0,0.299969,0.000381503,0
0.5,7.7,0,0.30009,0.000396032,0
0.5,7.8,0,0.300056,0.000437045,0
0.5,7.9,0,0.300012,0.000456737,0
0.5,8,0,0.300078,0.000478123,0
0.5,8.1,0,0.300004,0.000524117,0
0.5,8.2,0,0.300042,0.00052596,0
0.5,8.3,0,0.300062,0.000556432,0
0.5,8.4,0,0.29996,0.00061019,0
0.5,8.5,0,0.300038,0.000596865,0
0.5,8.6,0,0.300043,0.000630438,0
0.5,8.7,0,0.299928,0.000695069,0
0.5,8.8,0,0.300019,0.000668001,0
0.5,8.9,0,0.300024,0.000699784,0
0.5,9,0,0.299924,0.000769817,0
0.5,9.1,0,0.300002,0.000734612,0
0.5,9.2,0,0.300006,0.00076435,0
0.5,9.3,0,0.299945,0.000821531,0
0.5,9.4,0,0.299988,0.00079675,0
0.5,9.5,0,0.29999,0.000824879,0
0.5,9.6,0,0.299956,0.00086614,0
0.5,9.7,0,0.299978,0.000854507,0
0.5,9.8,0,0.29997,0.000894359,0
0.5,9.9,0,0.299962,0.000904554,0
0.5,10,0,0.299971,0.000907918,0
0.5,10.1,0,0.299959,0.000960768,0
0.5,10.2,0,0.299966,0.000937931,0
0.5,10.3,0,0.299968,0.000956922,0
0.5,10.4,0,0.299954,0.00102279,0
0.5,10.5,0,0.299965,0.00098396,0
0.5,10.6,0,0.299967,0.00100135,0
0.5,10.7,0,0.299954,0.00107913,0
0.5,10.8,0,0.299967,0.00102601,0
0.5,10.9,0,0.299969,0.00104092,0
0.5,11,0,0.299959,0.00110847,0
0.5,11.1,0,0.299969,0.00106281,0
0.5,11.2,0,0.299972,0.0010753,0
0.5,11.3,0,0.299966,0.00112336,0
0.5,11.4,0,0.299974,0.00109402,0
0.5,11.5,0,0.299976,0.00110915,0
0.5,11.6,0,0.299974,0.00113456,0
0.5,11.7,0,0.299979,0.00111932,0
0.5,11.8,0,0.299979,0.00114411,0
0.5,11.9,0,0.299981,0.00114177,0
0.5,12,0,0.299985,0.00113839,0
0.5,12.1,0,0.299985,0.00117167,0
0.5,12.2,0,0.299989,0.00114765,0
0.5,12.3,0,0.299992,0.00115097,0
0.5,12.4,0,0.299992,0.00119217,0
0.5,12.5,0,0.299995,0.0011559,0
0.5,12.6,0,0.299997,0.001157,0
0.5,12.7,0,0.299995,0.00127916,0
0.6,0,0,0.299993,-0.0015255,0
0.6,0.1,0,0.299994,-0.00147527,0
0.6,0.2,0,0.299993,-0.0014741,0
0.6,0.3,0,0.299991,-0.00147202,0
0.6,0.4,0,0.299988,-0.00146853,0
0.6,0.5,0,0.299983,-0.00149182,0
0.6,0.6,0,0.299983,-0.00145993,0
0.6,0.7,0,0.29998,-0.00145411,0
0.6,0.8,0,0.299978,-0.00144832,0
0.6,0.9,0,0.299976,-0.00144014,0
0.6,1,0,0.29997,-0.00145951,0
0.6,1.1,0,0.299972,-0.00142319,0
0.6,1.2,0,0.299969,-0.00141262,0
0.6,1.3,0,0.299968,-0.00140331,0
0.6,1.4,0,0.299965,-0.00139031,0
0.6,1.5,0,0.299958,-0.00140513,0
0.6,1.6,0,0.299962,-0.00136507,0
0.6,1.7,0,0.29996,-0.0013496,0
0.6,1.8,0,0.29996,-0.00133695,0
0.6,1.9,0,0.299958,-0.00131898,0
0.6,2,0,0.299947,-0.00132798,0
0.6,2.1,0,0.299956,-0.00128551,0
0.6,2.2,0,0.299953,-0.00126508,0
0.6,2.3,0,0.299955,-0.00124919,0
0.6,2.4,0,0.299951,-0.00122635,0
0.6,2.5,0,0.299932,-0.00122813,0
0.6,2.6,0,0.29995,-0.00118487,0
0.6,2.7,0,0.299946,-0.00115975,0
0.6,2.8,0,0.299949,-0.00114059,0
0.6,2.9,0,0.299944,-0.00111336,0
0.6,3,0,0.299909,-0.00110734,0
0.6,3.1,0,0.299943,-0.00106436,0
0.6,3.2,0,0.299937,-0.00103523,0
0.6,3.3,0,0.299942,-0.00101275,0
0.6,3.4,0,0.299936,-0.000981901,0
0.6,3.5,0,0.299881,-0.000968922,0
0.6,3.6,0,0.299934,-0.000926213,0
0.6,3.7,0,0.299929,-0.000893817,0
0.6,3.8,0,0.299932,-0.00086828,0
0.6,3.9,0,0.299928,-0.000834449,0
0.6,4,0,0.299857,-0.000816092,0
0.6,4.1,0,0.299927,-0.000773071,0
0.6,4.2,0,0.299924,-0.000737837,0
0.6,4.3,0,0.299925,-0.000709877,0
0.6,4.4,0,0.299923,-0.000673218,0
0.6,4.5,0,0.299847,-0.000650185,0
0.6,4.6,0,0.299923,-0.000607113,0
0.6,4.7,0,0.299923,-0.000569153,0
0.6,4.8,0,0.299922,-0.000540446,0
0.6,4.9,0,0.299923,-0.000503672,0
0.6,5,0,0.299848,-0.000477723,0
0.6,5.1,0,0.299923,-0.000433731,0
0.6,5.2,0,0.299851,-0.000401818,0
0.6,5.3,0,0.299923,-0.000360809,0
0.6,5.4,0,0.299853,-0.000329691,0
0.6,5.5,0,0.299924,-0.000289259,0
0.6,5.6,0,0.299856,-0.000256522,0
0.6,5.7,0,0.299924,-0.000216972,0
0.6,5.8,0,0.299857,-0.000182453,0
0.6,5.9,0,0.299924,-0.00014412,0
0.6,6,0,0.299856,-0.000107908,0
0.6,6.1,0,0.299923,-7.10096e-05,0
0.6,6.2,0,0.299855,-3.33063e-05,0
0.6,6.3,0,0.299922,2.0391e-06,0
0.6,6.4,0,0.299852,4.09143e-05,0
0.6,6.5,0,0.299921,7.46819e-05,0
0.6,6.6,0,0.299849,0.000114292,0
0.6,6.7,0,0.29992,0.000146776,0
0.6,6.8,0,0.299846,0.000186798,0
0.6,6.9,0,0.299919,0.000222108,0
0.6,7,0,0.299843,0.000266907,0
0.6,7.1,0,0.299918,0.000293715,0
0.6,7.2,0,0.299918,0.00033068,0
0.6,7.3,0,0.299893,0.000361494,0
0.6,7.4,0,0.299918,0.000396927,0
0.6,7.5,0,0.299919,0.000436314,0
0.6,7.6,0,0.299917,0.000464772,0
0.6,7.7,0,0.299919,0.000502804,0
0.6,7.8,0,0.299922,0.000540837,0
0.6,7.9,0,0.299918,0.00056825,0
0.6,8,0,0.299922,0.000604824,0
0.6,8.1,0,0.299926,0.000641399,0
0.6,8.2,0,0.299921,0.000667406,0
0.6,8.3,0,0.299926,0.00070254,0
0.6,8.4,0,0.299931,0.000737675,0
0.6,8.5,0,0.299924,0.000762083,0
0.6,8.6,0,0.29993,0.000795656,0
0.6,8.7,0,0.299909,0.000835868,0
0.6,8.8,0,0.299929,0.000851866,0
0.6,8.9,0,0.299934,0.000883649,0
0.6,9,0,0.299907,0.000924551,0
0.6,9.1,0,0.299932,0.000936204,0
0.6,9.2,0,0.299936,0.000965941,0
0.6,9.3,0,0.29993,0.000989304,0
0.6,9.4,0,0.299935,0.00101457,0
0.6,9.5,0,0.299938,0.00104203,0
0.6,9.6,0,0.299935,0.00106153,0
0.6,9.7,0,0.299938,0.00108655,0
0.6,9.8,0,0.29994,0.00111156,0
0.6,9.9,0,0.299938,0.00112936,0
0.6,10,0,0.29994,0.00115184,0
0.6,10.1,0,0.299942,0.00117431,0
0.6,10.2,0,0.299941,0.00119039,0
0.6,10.3,0,0.299943,0.00121031,0
0.6,10.4,0,0.299944,0.00123216,0
0.6,10.5,0,0.299945,0.00124453,0
0.6,10.6,0,0.299947,0.00126192,0
0.6,10.7,0,0.299944,0.00129612,0
0.6,10.8,0,0.299949,0.00129175,0
0.6,10.9,0,0.299951,0.00130666,0
0.6,11,0,0.299951,0.00133201,0
0.6,11.1,0,0.299955,0.00133206,0
0.6,11.2,0,0.299957,0.00134455,0
0.6,11.3,0,0.299959,0.00135535,0
0.6,11.4,0,0.299962,0.00136548,0
0.6,11.5,0,0.299964,0.0013756,0
0.6,11.6,0,0.299966,0.00138419,0
0.6,11.7,0,0.299969,0.00139202,0
0.6,11.8,0,0.299972,0.00139984,0
0.6,11.9,0,0.299974,0.00140613,0
0.6,12,0,0.299978,0.00141168,0
0.6,12.1,0,0.299981,0.00141724,0
0.6,12.2,0,0.299983,0.00142114,0
0.6,12.3,0,0.299987,0.00142446,0
0.6,12.4,0,0.29999,0.00143294,0
0.6,12.5,0,0.299992,0.00142926,0
0.6,12.6,0,0.299993,0.00143037,0
0.6,12.7,0,0.299994,0.00147182,0
0.7,0,0,0.299991,-0.00175031,0
0.7,0.1,0,0.299989,-0.00177843,0
0.7,0.2,0,0.299987,-0.00177726,0
0.7,0.3,0,0.299984,-0.00177466,0
0.7,0.4,0,0.299981,-0.00177117,0
0.7,0.5,0,0.299978,-0.00173738,0
0.7,0.6,0,0.299975,-0.00176116,0
0.7,0.7,0,0.299972,-0.00175534,0
0.7,0.8,0,0.299968,-0.00174713,0
0.7,0.9,0,0.299965,-0.00173895,0
0.7,1,0,0.299961,-0.00169904,0
0.7,1.1,0,0.299959,-0.00171842,0
0.7,1.2,0,0.299956,-0.00170786,0
0.7,1.3,0,0.299952,-0.00169362,0
0.7,1.4,0,0.29995,-0.00168062,0
0.7,1.5,0,0.299944,-0.00163492,0
0.7,1.6,0,0.299943,-0.00164892,0
0.7,1.7,0,0.299941,-0.00163345,0
0.7,1.8,0,0.299935,-0.00161266,0
0.7,1.9,0,0.299933,-0.0015947,0
0.7,2,0,0.299929,-0.00154457,0
0.7,2.1,0,0.299923,-0.00155138,0
0.7,2.2,0,0.29992,-0.00153094,0
0.7,2.3,0,0.299912,-0.00150355,0
0.7,2.4,0,0.299908,-0.00148071,0
0.7,2.5,0,0.29991,-0.0014283,0
0.7,2.6,0,0.299893,-0.00142627,0
0.7,2.7,0,0.299888,-0.00140116,0
0.7,2.8,0,0.299874,-0.00136794,0
0.7,2.9,0,0.299869,-0.00134072,0
0.7,3,0,0.299884,-0.00128809,0
0.7,3.1,0,0.299847,-0.00127696,0
0.7,3.2,0,0.299842,-0.00124783,0
0.7,3.3,0,0.299825,-0.00121029,0
0.7,3.4,0,0.299819,-0.00117944,0
0.7,3.5,0,0.299855,-0.00112741,0
0.7,3.6,0,0.299796,-0.00110861,0
0.7,3.7,0,0.299791,-0.00107622,0
0.7,3.8,0,0.299776,-0.00103551,0
0.7,3.9,0,0.299772,-0.00100168,0
0.7,4,0,0.299829,-0.00094973,0
0.7,4.1,0,0.299757,-0.000924931,0
0.7,4.2,0,0.299754,-0.000889697,0
0.7,4.3,0,0.299748,-0.000845771,0
0.7,4.4,0,0.299747,-0.000809112,0
0.7,4.5,0,0.299816,-0.000756839,0
0.7,4.6,0,0.299744,-0.000725925,0
0.7,4.7,0,0.299744,-0.000687965,0
0.7,4.8,0,0.299746,-0.000641037,0
0.7,4.9,0,0.299746,-0.000604263,0
0.7,5,0,0.299816,-0.000556539,0
0.7,5.1,0,0.299751,-0.000518393,0
0.7,5.2,0,0.299818,-0.000468156,0
0.7,5.3,0,0.299756,-0.000431741,0
0.7,5.4,0,0.29982,-0.000384098,0
0.7,5.5,0,0.299761,-0.000345898,0
0.7,5.6,0,0.299821,-0.000298896,0
0.7,5.7,0,0.299764,-0.000258642,0
0.7,5.8,0,0.299822,-0.000212726,0
0.7,5.9,0,0.299766,-0.000170459,0
0.7,6,0,0.299822,-0.000126032,0
0.7,6.1,0,0.299764,-8.19606e-05,0
0.7,6.2,0,0.29982,-3.92538e-05,0
0.7,6.3,0,0.299761,6.25438e-06,0
0.7,6.4,0,0.299818,4.71524e-05,0
0.7,6.5,0,0.299756,9.35471e-05,0
0.7,6.6,0,0.299815,0.000132703,0
0.7,6.7,0,0.29975,0.000179462,0
0.7,6.8,0,0.299813,0.000217335,0
0.7,6.9,0,0.299744,0.000268083,0
0.7,7,0,0.29981,0.000310664,0
0.7,7.1,0,0.29974,0.000357184,0
0.7,7.2,0,0.29974,0.000394148,0