/*--------------------------------*- C++ -*----------------------------------*\
| =========                 |                                                 |
| \\      /  F ield         | OpenFOAM: The Open Source CFD Toolbox           |
|  \\    /   O peration     | Version:  v1806                                 |
|   \\  /    A nd           | Web:      www.OpenFOAM.com                      |
|    \\/     M anipulation  |                                                 |
\*---------------------------------------------------------------------------*/
FoamFile
{
    version     2.0;
    format      ascii;
    class       volScalarField;
    location    "470";
    object      p;
}
// * * * * * * * * * * * * * * * * * * * * * * * * * * * * * * * * * * * * * //

dimensions      [0 2 -2 0 0 0 0];


internalField   nonuniform List<scalar> 
2400
(
5.60726e-05
5.71123e-05
6.16794e-05
6.76276e-05
7.65798e-05
8.74951e-05
0.000101483
0.000119265
0.000138754
0.000165749
0.00018952
0.000228301
0.000250164
0.000301623
0.000303909
0.000362349
0.000310805
0.000352165
0.000222252
0.000186381
0.000167817
0.000171069
0.000184304
0.000202057
0.0002281
0.000260758
0.000301381
0.000354655
0.000411009
0.000491903
0.000560208
0.000676207
0.000738356
0.000891574
0.000896571
0.00106951
0.000918274
0.00104123
0.000658441
0.000558988
0.0002789
0.000284292
0.000306057
0.000335372
0.000378327
0.000432227
0.000499396
0.000587137
0.000680677
0.000813398
0.000927781
0.00111695
0.00122389
0.00147169
0.00148939
0.00176715
0.0015306
0.00173141
0.00109515
0.000948322
0.000388959
0.000396258
0.000426681
0.000467178
0.000527226
0.000601596
0.00069577
0.000816528
0.000948388
0.00113029
0.00129346
0.00155119
0.00170891
0.0020441
0.00208585
0.00246041
0.00215205
0.00243249
0.00153184
0.00136602
0.000497588
0.000506509
0.000545768
0.000596959
0.000674319
0.000768189
0.000889905
0.00104195
0.00121342
0.00144153
0.0016565
0.00197801
0.00219311
0.00260885
0.0026871
0.00315171
0.00278621
0.00315128
0.00197025
0.0018241
0.00060439
0.000614601
0.000662877
0.000724185
0.000819067
0.000931308
0.00108113
0.00126249
0.00147499
0.00174606
0.0020162
0.00239652
0.00267638
0.00316588
0.00329484
0.00384285
0.00343839
0.00389311
0.00241506
0.00233499
0.000708971
0.000720108
0.000777566
0.000848354
0.000960943
0.00109032
0.00126881
0.00147736
0.00173238
0.002043
0.00237192
0.00280597
0.00315872
0.00371506
0.003911
0.00453487
0.00411475
0.00466171
0.00287374
0.0029108
0.000810938
0.000822624
0.000889395
0.000968994
0.00109941
0.00124465
0.00145228
0.00168583
0.00198478
0.00233149
0.00272295
0.00320563
0.0036401
0.00425609
0.00453747
0.00522793
0.00482189
0.00545882
0.00335725
0.00356252
0.000909898
0.000921772
0.00099792
0.00108566
0.00123391
0.00139376
0.00163082
0.00188722
0.00223134
0.00261073
0.00306844
0.0035948
0.00412046
0.00478867
0.00517628
0.00592139
0.00556644
0.00628345
0.00388059
0.00429977
0.00100546
0.0010172
0.0011027
0.00119795
0.00136387
0.00153714
0.00180366
0.00208091
0.00247106
0.00287987
0.0034073
0.00397271
0.0045995
0.0053128
0.00582993
0.00661454
0.00635539
0.0071302
0.00446194
0.0051312
0.00109724
0.00110857
0.0012033
0.00130545
0.00148873
0.00167434
0.00197
0.00226632
0.00270276
0.00313815
0.00373812
0.0043383
0.00507641
0.00582893
0.00650166
0.00730808
0.00719771
0.00798804
0.00511948
0.00606228
0.00118484
0.00119557
0.00129929
0.0014078
0.00160792
0.00180489
0.00212901
0.00244289
0.00292516
0.00338487
0.00405894
0.00469031
0.0055493
0.00633696
0.00719472
0.00800658
0.00810779
0.00884303
0.00586793
0.00708656
0.00126791
0.00127792
0.00139027
0.00150464
0.00172087
0.00192839
0.00227988
0.00261008
0.0031369
0.00361932
0.00436731
0.00502777
0.00601469
0.00683409
0.00791029
0.0087198
0.00910888
0.00968915
0.00672232
0.00816332
0.00134607
0.00135532
0.00147585
0.00159564
0.00182709
0.00204442
0.00242185
0.00276733
0.00333668
0.0038407
0.00466061
0.0053496
0.00646698
0.00731795
0.00864269
0.00945512
0.0102314
0.0105446
0.00771895
0.0091675
0.00141897
0.00142753
0.0015557
0.00168047
0.0019261
0.00215258
0.0025542
0.00291411
0.00352328
0.00404819
0.00493633
0.00565442
0.00689985
0.00778673
0.00937958
0.0102031
0.0114991
0.0114723
0.00896716
0.00981866
0.00148629
0.00149428
0.00162949
0.00175881
0.00201747
0.00225248
0.00267633
0.00304982
0.00369563
0.00424086
0.00519221
0.00594061
0.00730731
0.00823782
0.0101015
0.0109565
0.0128962
0.0125651
0.0107185
0.00974305
0.00154773
0.00155535
0.00169694
0.00183038
0.00210083
0.00234372
0.00278768
0.00317389
0.00385281
0.00441771
0.00542636
0.00620627
0.00768423
0.00866772
0.0107897
0.011713
0.0143776
0.013855
0.0133219
0.00878538
0.00160301
0.00161058
0.00175776
0.00189489
0.00217581
0.00242597
0.00288775
0.00328577
0.00399402
0.0045777
0.00563714
0.00644918
0.00802636
0.00907185
0.011429
0.0124689
0.0158627
0.0152998
0.0170205
0.00711461
0.00165184
0.00165982
0.00181172
0.00195212
0.00224212
0.0024989
0.00297615
0.00338489
0.00411859
0.0047197
0.00582329
0.00666669
0.00833045
0.00944363
0.0120075
0.0132137
0.0172785
0.0169447
0.0217445
0.00571596
0.00169407
0.00170273
0.00185889
0.00200152
0.00229985
0.00256175
0.00305302
0.0034701
0.00422673
0.0048417
0.00598481
0.00685471
0.00859531
0.00977313
0.0125182
0.013924
0.0185615
0.0188703
0.0272335
0.00850735
7.84586e-05
-1.66585e-05
-7.40621e-05
-0.000100468
-0.00011574
-0.000123708
-0.000122128
-0.000112671
-9.94407e-05
-8.50729e-05
0.00023327
-4.60543e-05
-0.000213112
-0.000291369
-0.000337155
-0.000360627
-0.000355881
-0.000328178
-0.000289587
-0.00024824
0.000377239
-9.06358e-05
-0.000362863
-0.000492613
-0.000569592
-0.000606923
-0.000596325
-0.000548182
-0.000482521
-0.000412329
0.000500217
-0.00016381
-0.000532697
-0.000711331
-0.000819266
-0.000867353
-0.000846339
-0.000774032
-0.000678558
-0.000577437
0.000590344
-0.000277403
-0.000730506
-0.000954647
-0.00109257
-0.00114664
-0.00110878
-0.00100716
-0.000878167
-0.000743314
0.000632169
-0.000444262
-0.000964671
-0.00123098
-0.00139678
-0.00144976
-0.00138663
-0.0012492
-0.00108188
-0.000909636
0.000606854
-0.000678961
-0.00124488
-0.00155013
-0.00173977
-0.00178175
-0.00168286
-0.00150171
-0.00129006
-0.0010758
0.000492496
-0.000996931
-0.00158346
-0.00192397
-0.00213015
-0.00214773
-0.00200048
-0.00176623
-0.00150274
-0.00124073
0.000260507
-0.00141104
-0.00199671
-0.00236724
-0.00257746
-0.00255308
-0.0023426
-0.002044
-0.00171933
-0.00140248
-0.000125979
-0.00193482
-0.00250643
-0.00289851
-0.00309249
-0.00300335
-0.00271202
-0.00233544
-0.0019381
-0.00155781
-0.000713293
-0.00258942
-0.00314209
-0.00354122
-0.00368723
-0.00350337
-0.00310996
-0.002639
-0.00215551
-0.0017021
-0.00156115
-0.00340938
-0.00394352
-0.00432251
-0.00437213
-0.0040542
-0.00353336
-0.00294937
-0.00236587
-0.00183011
-0.00274856
-0.00444736
-0.00495957
-0.00526558
-0.00514822
-0.00464742
-0.00397108
-0.00325619
-0.00256217
-0.00193805
-0.00439034
-0.00577587
-0.00623536
-0.00637245
-0.00599399
-0.00525775
-0.0044015
-0.00354516
-0.00273875
-0.00202631
-0.00667423
-0.00747198
-0.00778601
-0.00759909
-0.00685257
-0.00584131
-0.00479632
-0.00380336
-0.00289476
-0.00210075
-0.00984644
-0.00955009
-0.00957283
-0.00882995
-0.00763771
-0.00634959
-0.00513305
-0.00402561
-0.00303417
-0.00217047
-0.0140005
-0.011847
-0.0114607
-0.00989279
-0.00827653
-0.00675621
-0.00540546
-0.00421326
-0.00316018
-0.00224352
-0.0189477
-0.01384
-0.0131632
-0.0106567
-0.00875398
-0.0070621
-0.00561672
-0.00436629
-0.00327018
-0.00232373
-0.0245014
-0.0150676
-0.0144229
-0.0111081
-0.00909901
-0.0072774
-0.00577026
-0.00448238
-0.00335737
-0.00240837
-0.0337223
-0.0164373
-0.015746
-0.0114852
-0.00938655
-0.0074317
-0.00588542
-0.00457253
-0.00342422
-0.0025766
-7.49553e-05
-6.84776e-05
-6.1827e-05
-5.55717e-05
-4.98201e-05
-4.45959e-05
-3.97845e-05
-3.54568e-05
-3.13829e-05
-2.77748e-05
-2.41778e-05
-2.11478e-05
-1.7755e-05
-1.52719e-05
-1.17699e-05
-9.92991e-06
-5.86769e-06
-4.85499e-06
2.34407e-07
-1.17016e-06
-0.000216884
-0.000195559
-0.000175769
-0.000157459
-0.000140543
-0.000125082
-0.0001109
-9.81003e-05
-8.62504e-05
-7.57087e-05
-6.56097e-05
-5.70267e-05
-4.81029e-05
-4.14988e-05
-3.30589e-05
-2.88471e-05
-1.97399e-05
-1.89055e-05
-7.58101e-06
-1.31312e-05
-0.00035926
-0.000323422
-0.000290215
-0.000259595
-0.000231371
-0.000205591
-0.000182025
-0.000160756
-0.000141193
-0.000123741
-0.000107248
-9.31118e-05
-7.88222e-05
-6.80657e-05
-5.49478e-05
-4.83685e-05
-3.45179e-05
-3.39584e-05
-1.55332e-05
-2.48599e-05
-0.000501663
-0.000450717
-0.000403622
-0.000360395
-0.000320759
-0.00028467
-0.000251803
-0.000222157
-0.000194997
-0.000170699
-0.000147907
-0.000128211
-0.000108635
-9.36785e-05
-7.59916e-05
-6.70993e-05
-4.85439e-05
-4.88177e-05
-2.2693e-05
-3.92562e-05
-0.000643282
-0.000576366
-0.000514881
-0.000458812
-0.000407727
-0.000361409
-0.00031939
-0.000281519
-0.000246934
-0.000215892
-0.000186929
-0.000161674
-0.000136932
-0.000117704
-9.56671e-05
-8.44613e-05
-6.15826e-05
-6.33849e-05
-2.96974e-05
-5.71842e-05
-0.000783339
-0.000699429
-0.000622973
-0.000553832
-0.000491307
-0.000434908
-0.000383967
-0.000338111
-0.000296344
-0.000258724
-0.000223768
-0.000192977
-0.000163229
-0.000139612
-0.000113549
-9.98654e-05
-7.34238e-05
-7.70512e-05
-3.6665e-05
-7.80658e-05
-0.000920743
-0.000818596
-0.000726501
-0.00064409
-0.000570239
-0.000504044
-0.000444554
-0.000391094
-0.000342512
-0.000298586
-0.000257886
-0.000221641
-0.000187084
-0.000158954
-0.000129247
-0.00011274
-8.37661e-05
-8.88119e-05
-4.35146e-05
-0.000100345
-0.00105384
-0.000931987
-0.000823559
-0.000727815
-0.000642964
-0.000567497
-0.000500065
-0.000439607
-0.000384764
-0.000334977
-0.000288905
-0.000247414
-0.000208295
-0.000175593
-0.000142606
-0.000122815
-9.23862e-05
-9.76791e-05
-5.00898e-05
-0.00012153
-0.00118009
-0.00103692
-0.000911625
-0.000802816
-0.000707677
-0.000623851
-0.000549453
-0.000482941
-0.000422674
-0.000367722
-0.000316833
-0.000270496
-0.000227137
-0.000189939
-0.000153945
-0.000130404
-9.93455e-05
-0.000103118
-5.61911e-05
-0.000138684
-0.00129578
-0.00112982
-0.000987637
-0.000866704
-0.000762627
-0.00067194
-0.000592073
-0.000520895
-0.000456393
-0.00039727
-0.000342341
-0.000291765
-0.000244571
-0.000203093
-0.000164208
-0.000136524
-0.000105132
-0.000105357
-6.16332e-05
-0.000149374
-0.00139617
-0.00120654
-0.0010486
-0.000917575
-0.000806805
-0.000711492
-0.000628248
-0.000554239
-0.000487009
-0.000424941
-0.000366894
-0.000312799
-0.000262176
-0.00021668
-0.000174805
-0.00014265
-0.000110559
-0.00010535
-6.62905e-05
-0.000152605
-0.0014766
-0.00126375
-0.00109291
-0.000955181
-0.000840906
-0.000743882
-0.000659786
-0.000584985
-0.000516586
-0.000452753
-0.000392413
-0.000335391
-0.000281587
-0.000232223
-0.000187025
-0.000150116
-0.00011642
-0.000104385
-7.01425e-05
-0.000149192
-0.00153484
-0.00130116
-0.00112207
-0.000982046
-0.000867991
-0.000772368
-0.000689806
-0.000615893
-0.000547434
-0.000482558
-0.000420329
-0.000360615
-0.000303613
-0.000250362
-0.000201403
-0.000159564
-0.000123168
-0.000103663
-7.33232e-05
-0.000141353
-0.00157317
-0.00132303
-0.00114132
-0.00100336
-0.000892835
-0.000800985
-0.000721365
-0.000649006
-0.000580715
-0.000514808
-0.000450588
-0.000388081
-0.000327729
-0.000270545
-0.000217534
-0.000170831
-0.000130867
-0.000104054
-7.60614e-05
-0.000131842
-0.00159833
-0.00133716
-0.00115771
-0.00102476
-0.000919588
-0.000832267
-0.000755487
-0.000684177
-0.000615468
-0.000548036
-0.000481483
-0.00041603
-0.000352304
-0.000291344
-0.000234371
-0.000183206
-0.000139324
-0.000106002
-7.8428e-05
-0.000123068
-0.00161814
-0.00135115
-0.00117659
-0.0010493
-0.000949291
-0.000865532
-0.000790276
-0.000718822
-0.000648827
-0.000579363
-0.000510301
-0.00044202
-0.000375252
-0.000311044
-0.000250668
-0.000195802
-0.000148276
-0.000109558
-7.98449e-05
-0.000116879
-0.00163685
-0.00136861
-0.00119855
-0.00107543
-0.000978837
-0.000896702
-0.000821367
-0.00074874
-0.000676981
-0.000605462
-0.000534225
-0.000463724
-0.000394709
-0.000328188
-0.000265384
-0.000207876
-0.000157572
-0.000114648
-7.84443e-05
-0.000116461
-0.00165041
-0.00138563
-0.00121739
-0.00109626
-0.00100123
-0.000919327
-0.000843271
-0.000769484
-0.000696438
-0.000623656
-0.000551237
-0.000479636
-0.000409558
-0.000341947
-0.000277925
-0.000218971
-0.000166993
-0.000121375
-7.37874e-05
-0.000125472
-0.00164808
-0.00138966
-0.00122029
-0.00110107
-0.00100794
-0.00092703
-0.00085155
-0.000778126
-0.000705364
-0.000632864
-0.000560747
-0.000489459
-0.000419638
-0.000352202
-0.000288167
-0.000228879
-0.000175614
-0.000127521
-8.6415e-05
-0.000103191
-0.00165119
-0.00136309
-0.001189
-0.00107826
-0.000992515
-0.000916554
-0.000844923
-0.000774535
-0.00070426
-0.000633878
-0.000563612
-0.000493957
-0.000425589
-0.000359348
-0.000296226
-0.000237408
-0.000183545
-0.000134204
-9.77156e-05
-9.1534e-05
-0.00128596
-0.00119083
-0.00109797
-0.00102322
-0.000956229
-0.000891807
-0.000827676
-0.000762643
-0.000696455
-0.00062934
-0.00056178
-0.000494417
-0.000428004
-0.00036339
-0.000301542
-0.000243538
-0.000189698
-0.00013973
-0.00010369
-8.79042e-05
-0.00104036
-0.00106062
-0.00101614
-0.000969443
-0.000919434
-0.000865976
-0.00080936
-0.000749789
-0.000687752
-0.000623913
-0.000559017
-0.00049387
-0.000429314
-0.000366224
-0.000305555
-0.000248294
-0.000194537
-0.000144205
-0.000107858
-8.56537e-05
-0.000888569
-0.00096566
-0.000948177
-0.000921704
-0.000885569
-0.000841726
-0.000792021
-0.00073757
-0.000679436
-0.00061866
-0.000556233
-0.000493115
-0.000430236
-0.000368503
-0.000308863
-0.000252222
-0.000198519
-0.000147916
-0.000111104
-8.40021e-05
-0.000801742
-0.000904669
-0.000901792
-0.000887877
-0.000861035
-0.000823996
-0.00077935
-0.000728711
-0.000673507
-0.000615036
-0.000554467
-0.000492869
-0.000431232
-0.000370483
-0.000311561
-0.000255313
-0.000201581
-0.000150693
-0.000113337
-8.30688e-05
-0.000767925
-0.000878996
-0.000881942
-0.000873196
-0.000850365
-0.000816382
-0.000774072
-0.000725235
-0.000671448
-0.000614119
-0.000554489
-0.000493666
-0.000432653
-0.000372374
-0.000313748
-0.000257591
-0.000203707
-0.000152481
-0.000114555
-8.272e-05
-0.000783617
-0.000889405
-0.000890481
-0.000879741
-0.000855448
-0.000820421
-0.000777363
-0.000728012
-0.00067389
-0.000616357
-0.000556607
-0.000495705
-0.000434616
-0.000374229
-0.000315436
-0.000259043
-0.00020487
-0.000153252
-0.000114764
-8.28597e-05
-0.000849536
-0.000935059
-0.000926449
-0.000906555
-0.000875437
-0.000835418
-0.000788666
-0.000736597
-0.000680477
-0.00062146
-0.000560585
-0.000498797
-0.00043697
-0.000375932
-0.000316537
-0.000259605
-0.000205029
-0.000152991
-0.000113939
-8.35127e-05
-0.000970395
-0.0010135
-0.000986011
-0.000949653
-0.000906827
-0.000858536
-0.000805776
-0.000749308
-0.000689931
-0.000628461
-0.000565691
-0.000502389
-0.000439307
-0.000377193
-0.000316861
-0.000259164
-0.00020413
-0.000151691
-0.000112032
-8.48124e-05
-0.00116254
-0.00112122
-0.00106206
-0.001002
-0.000943711
-0.000885127
-0.000825145
-0.000763463
-0.000700229
-0.000635833
-0.000570776
-0.000505628
-0.000441008
-0.000377586
-0.000316137
-0.000257567
-0.000202107
-0.000149386
-0.000108972
-8.68816e-05
-0.00146818
-0.00125278
-0.00114503
-0.0010548
-0.000979232
-0.000909984
-0.000842867
-0.000776144
-0.000709193
-0.000641953
-0.000574646
-0.000507658
-0.000441492
-0.000376754
-0.000314197
-0.000254784
-0.000199003
-0.000146258
-0.000104714
-8.97442e-05
-0.00178298
-0.00142282
-0.00123594
-0.0011085
-0.00101334
-0.000932779
-0.00085848
-0.000786824
-0.000716268
-0.000646259
-0.000576729
-0.000507905
-0.00044018
-0.000374118
-0.00031047
-0.000250277
-0.000194368
-0.000142008
-9.77367e-05
-9.63169e-05
-0.0017171
-0.00141965
-0.00124188
-0.0011146
-0.00101596
-0.0009324
-0.000855972
-0.000782775
-0.00071105
-0.000640104
-0.00056979
-0.000500283
-0.000431981
-0.000365478
-0.00030158
-0.00024146
-0.000186533
-0.000136022
-8.59418e-05
-0.000116632
-0.00171053
-0.00141104
-0.00122719
-0.00109659
-0.000995514
-0.000911052
-0.000834908
-0.000762554
-0.000691863
-0.000621971
-0.000552666
-0.000484119
-0.000416763
-0.000351265
-0.00028852
-0.000229789
-0.000176535
-0.000129058
-8.99638e-05
-0.00010621
-0.0016952
-0.00139834
-0.00120735
-0.00107129
-0.00096584
-0.000878875
-0.000802222
-0.000730708
-0.000661595
-0.000593648
-0.000526461
-0.000460118
-0.000395034
-0.000331924
-0.000271738
-0.000215837
-0.000165704
-0.000122917
-8.93577e-05
-0.000106298
-0.00167997
-0.00139217
-0.00119463
-0.00105099
-0.00093867
-0.00084649
-0.000766947
-0.000694609
-0.000626124
-0.000559764
-0.000494793
-0.000431111
-0.000369013
-0.00030921
-0.000252589
-0.000200682
-0.000154603
-0.000117769
-8.57803e-05
-0.000112244
-0.00166182
-0.0013901
-0.00119003
-0.00103941
-0.000919698
-0.000820858
-0.000736402
-0.00066126
-0.000591824
-0.00052595
-0.000462539
-0.000401254
-0.00034217
-0.000285974
-0.000233276
-0.000186022
-0.000144036
-0.00011429
-8.1458e-05
-0.000120666
-0.00162788
-0.00137923
-0.00118414
-0.00103111
-0.000906733
-0.000802554
-0.000713246
-0.000634583
-0.000563193
-0.000496825
-0.00043413
-0.000374624
-0.000318086
-0.000265274
-0.000216176
-0.000173673
-0.000134926
-0.000112747
-7.70469e-05
-0.000128825
-0.00156883
-0.00134744
-0.0011648
-0.00101575
-0.000891561
-0.000785721
-0.000694024
-0.000613198
-0.000540425
-0.000473674
-0.000411513
-0.000353492
-0.00029904
-0.000249231
-0.000202987
-0.000164863
-0.00012791
-0.000112658
-7.25834e-05
-0.000133173
-0.00148413
-0.00129094
-0.00112556
-0.00098591
-0.000866646
-0.000763225
-0.000672508
-0.000592095
-0.000519758
-0.00045387
-0.000393002
-0.000336913
-0.000284587
-0.000237706
-0.000193683
-0.000159395
-0.000122881
-0.000112793
-6.80498e-05
-0.000130533
-0.00137902
-0.00121281
-0.00106661
-0.000939645
-0.000828734
-0.000730979
-0.000644206
-0.000566752
-0.000496896
-0.000433476
-0.000375071
-0.000321785
-0.000272046
-0.000228342
-0.00018634
-0.000155373
-0.000118716
-0.00011137
-6.33677e-05
-0.000119749
-0.00126009
-0.00111859
-0.00099152
-0.000878647
-0.000778089
-0.000688153
-0.000607445
-0.000534915
-0.000469223
-0.000409659
-0.000354798
-0.000305142
-0.000258554
-0.000218307
-0.000178508
-0.000150345
-0.000113903
-0.000106875
-5.83413e-05
-0.000102353
-0.00113268
-0.00101338
-0.000904442
-0.000805892
-0.000716621
-0.00063575
-0.000562459
-0.000496179
-0.000435854
-0.000381161
-0.000330674
-0.000285248
-0.000242324
-0.00020569
-0.000168519
-0.000142659
-0.000107439
-9.89399e-05
-5.28706e-05
-8.17348e-05
-0.00100055
-0.000901029
-0.000808899
-0.000724308
-0.000646598
-0.000575412
-0.000510323
-0.00045112
-0.000396965
-0.000347823
-0.000302318
-0.000261515
-0.000222703
-0.000189747
-0.000155748
-0.000131849
-9.90521e-05
-8.83271e-05
-4.7046e-05
-6.14391e-05
-0.000866129
-0.000784243
-0.000707575
-0.000636315
-0.000570069
-0.000508792
-0.000452315
-0.000400671
-0.000353204
-0.000310059
-0.00026998
-0.000234067
-0.000199756
-0.000170549
-0.00014026
-0.000118272
-8.89295e-05
-7.62512e-05
-4.10237e-05
-4.38926e-05
-0.000731023
-0.000664906
-0.000602435
-0.000543783
-0.000488704
-0.000437323
-0.000389636
-0.000345814
-0.000305364
-0.000268509
-0.000234183
-0.000203369
-0.000173882
-0.000148565
-0.00012243
-0.000102603
-7.73989e-05
-6.37499e-05
-3.49068e-05
-3.00887e-05
-0.000596221
-0.000544303
-0.000494895
-0.000448125
-0.000403827
-0.000362199
-0.000323333
-0.00028746
-0.000254226
-0.000223861
-0.000195526
-0.00017
-0.00014559
-0.000124378
-0.000102709
-8.54956e-05
-6.47774e-05
-5.1436e-05
-2.87325e-05
-1.99293e-05
-0.000462288
-0.000423269
-0.000385955
-0.000350405
-0.000316486
-0.000284412
-0.000254317
-0.000226436
-0.000200529
-0.000176791
-0.000154612
-0.000134546
-0.000115394
-9.85401e-05
-8.15351e-05
-6.74551e-05
-5.13402e-05
-3.95445e-05
-2.25074e-05
-1.27397e-05
-0.00032949
-0.000302294
-0.000276264
-0.00025136
-0.000227457
-0.00020474
-0.000183339
-0.000163453
-0.000144929
-0.000127915
-0.000112
-9.75473e-05
-8.37758e-05
-7.15256e-05
-5.92976e-05
-4.8834e-05
-3.7325e-05
-2.8084e-05
-1.62218e-05
-7.66478e-06
-0.000198071
-0.000181925
-0.000166493
-0.000151678
-0.000137425
-0.000123856
-0.000111048
-9.91265e-05
-8.80027e-05
-7.77718e-05
-6.81903e-05
-5.94691e-05
-5.11607e-05
-4.37172e-05
-3.63324e-05
-2.98682e-05
-2.29441e-05
-1.70018e-05
-9.92099e-06
-3.82637e-06
-6.81591e-05
-6.33799e-05
-5.81865e-05
-5.30585e-05
-4.8148e-05
-4.34963e-05
-3.91098e-05
-3.50334e-05
-3.12291e-05
-2.77365e-05
-2.44627e-05
-2.14861e-05
-1.86467e-05
-1.60936e-05
-1.35662e-05
-1.13083e-05
-8.94416e-06
-6.78141e-06
-4.40661e-06
-1.8155e-06
-0.0327989
-0.0163459
-0.0159688
-0.0116919
-0.00954752
-0.00758357
-0.00602285
-0.00469945
-0.00355375
-0.00265781
-0.0219484
-0.0147395
-0.0141999
-0.0111909
-0.00917343
-0.00738526
-0.00587665
-0.00458493
-0.00345573
-0.0024599
-0.0160508
-0.0130377
-0.0125759
-0.0105417
-0.00871699
-0.00708969
-0.00567363
-0.00443583
-0.00334573
-0.00238039
-0.0109764
-0.0104337
-0.0103659
-0.00939221
-0.00803722
-0.00665897
-0.00538497
-0.00423502
-0.00320711
-0.00229725
-0.00701022
-0.00786654
-0.00818205
-0.00793675
-0.00713742
-0.00608758
-0.00500949
-0.00398676
-0.00304956
-0.00221906
-0.00420172
-0.00581262
-0.00633167
-0.00648306
-0.00612947
-0.00541058
-0.00455581
-0.00369192
-0.00287287
-0.00213933
-0.00228189
-0.00426263
-0.00485701
-0.00520312
-0.00514816
-0.00470508
-0.00406097
-0.00336106
-0.00267285
-0.00204395
-0.000957191
-0.00307992
-0.00371763
-0.00414532
-0.00427112
-0.00403438
-0.00356815
-0.00301631
-0.00245327
-0.00192604
-5.69444e-05
-0.00216001
-0.00284314
-0.00329809
-0.00352011
-0.00342802
-0.00310434
-0.00267742
-0.00222373
-0.0017875
0.0005275
-0.00144026
-0.00216902
-0.00262463
-0.00288837
-0.00289226
-0.00267974
-0.00235529
-0.00199309
-0.00163473
0.000875523
-0.000884121
-0.00164447
-0.00208661
-0.00235942
-0.00242327
-0.00229519
-0.00205374
-0.00176698
-0.00147422
0.00105003
-0.000472111
-0.00123234
-0.00165322
-0.0019169
-0.00201436
-0.00194812
-0.00177306
-0.0015483
-0.00131072
0.00109719
-0.000184742
-0.000907131
-0.00130144
-0.00154647
-0.00165854
-0.00163517
-0.00151219
-0.0013383
-0.00114725
0.00105184
2.78281e-06
-0.00065186
-0.00101434
-0.00123552
-0.00134886
-0.00135289
-0.00126967
-0.00113729
-0.000985534
0.000944493
0.000112591
-0.000454817
-0.000779026
-0.000972905
-0.0010784
-0.00109771
-0.00104383
-0.000945028
-0.000826524
0.000799358
0.000162622
-0.00030667
-0.000585068
-0.000748706
-0.000840325
-0.000865877
-0.000832762
-0.000760902
-0.000670627
0.000633216
0.000167627
-0.000198569
-0.000423584
-0.000554174
-0.000628096
-0.000653444
-0.000634317
-0.000583986
-0.000517882
0.000456348
0.000140037
-0.000121479
-0.000286689
-0.000381677
-0.000435568
-0.000456333
-0.0004461
-0.000413085
-0.00036805
0.000274479
9.05956e-05
-6.64463e-05
-0.000167296
-0.000224756
-0.000257285
-0.000270638
-0.000265731
-0.000246936
-0.000220733
9.13247e-05
2.98419e-05
-2.34502e-05
-5.7817e-05
-7.71986e-05
-8.80806e-05
-9.25903e-05
-9.0966e-05
-8.45414e-05
-7.53417e-05
0.00176992
0.00178168
0.00193738
0.00209046
0.00239115
0.00266766
0.00316117
0.00359813
0.00435492
0.00499406
0.00613062
0.00702727
0.00874811
0.00995217
0.0126563
0.0140799
0.0186503
0.0189243
0.0270121
0.008007
0.00173978
0.00175136
0.00190253
0.00205506
0.00234739
0.00262102
0.00309986
0.00353135
0.00426306
0.00489126
0.00598237
0.00685428
0.00848361
0.00962075
0.0121065
0.0133195
0.0171864
0.0168641
0.020731
0.00648836
0.00170057
0.00171272
0.00185866
0.00200921
0.00229223
0.00256108
0.00302352
0.00344644
0.00415009
0.00476284
0.00580293
0.00664417
0.00816975
0.00923757
0.0114706
0.0125222
0.0155666
0.0151323
0.0157441
0.00867699
0.00165257
0.00166606
0.00180566
0.00195357
0.00222554
0.00248881
0.00293197
0.00334502
0.00401587
0.00461164
0.00559258
0.00640278
0.00780888
0.00881627
0.0107624
0.0117156
0.0139051
0.0136131
0.0122448
0.0101707
0.00159621
0.00161145
0.00174383
0.00188843
0.00214777
0.00240463
0.00282585
0.00322782
0.00386152
0.00443921
0.00535363
0.00613371
0.00740723
0.0083651
0.0100046
0.0109092
0.0123336
0.0123229
0.0100241
0.0104771
0.00153188
0.00154908
0.0016735
0.00181415
0.00205942
0.00230899
0.00270591
0.00309561
0.00368837
0.00424704
0.005089
0.00583999
0.00697276
0.00788995
0.00922627
0.0101062
0.0109233
0.0112565
0.00852736
0.00977663
0.00145999
0.00147923
0.00159506
0.00173111
0.00196102
0.00220242
0.00257299
0.00294921
0.00349797
0.00403653
0.00480211
0.00552424
0.00651482
0.00739492
0.00845744
0.00931658
0.00970147
0.0102927
0.00738036
0.00861896
0.00138097
0.00140219
0.00150891
0.00163972
0.00185319
0.00208542
0.00242803
0.00278941
0.00329206
0.00380896
0.00449677
0.00518858
0.00604311
0.00688315
0.00771353
0.00855743
0.00863304
0.0093464
0.00642889
0.00739185
0.00129532
0.00131828
0.00141553
0.0015404
0.00173662
0.00195856
0.00227208
0.00261697
0.00307251
0.00356549
0.00417681
0.00483477
0.00556465
0.00636062
0.00699992
0.0078187
0.00767623
0.00839977
0.00562209
0.00625097
0.00120352
0.00122784
0.00131542
0.00143362
0.00161203
0.00182238
0.00210623
0.00243264
0.00284119
0.00330719
0.00384533
0.00446514
0.00508316
0.0058311
0.00631428
0.00708967
0.00680287
0.00746523
0.00493432
0.00523993
0.00110608
0.00113125
0.00120913
0.00131983
0.00148017
0.00167746
0.00193157
0.00223719
0.00259969
0.00303537
0.00350438
0.00408206
0.00460052
0.005295
0.00565232
0.0063675
0.00599693
0.00656196
0.00433992
0.00436235
0.00100351
0.00102891
0.00109721
0.00119955
0.00134179
0.00152443
0.00174907
0.00203152
0.00234929
0.00275135
0.00315558
0.00368703
0.00411757
0.00475281
0.00501048
0.00565369
0.00524788
0.00570226
0.00381159
0.00360913
0.000896347
0.000921257
0.000980233
0.00107332
0.00119761
0.00136397
0.00155965
0.00181651
0.00209115
0.00245633
0.00280017
0.00328136
0.00363459
0.00420561
0.00438611
0.00495064
0.00454646
0.00489083
0.00332571
0.00296635
0.000785114
0.000808783
0.000858766
0.000941724
0.00104834
0.00119679
0.00136417
0.00159311
0.00182631
0.00215147
0.0024391
0.0028663
0.0031517
0.00365461
0.00377679
0.00425997
0.0038835
0.00412762
0.00286513
0.0024169
0.000670348
0.000692012
0.00073339
0.000805371
0.000894665
0.00102365
0.00116347
0.00136223
0.00155571
0.00183786
0.00207319
0.002443
0.0026689
0.00310077
0.00317998
0.00358214
0.00325026
0.00340985
0.00241855
0.00194229
0.000552588
0.000571511
0.000604693
0.000664907
0.000737273
0.000845324
0.000958362
0.00112482
0.00128024
0.00151656
0.00170315
0.00201243
0.00218601
0.0025446
0.00259293
0.00291652
0.00263889
0.00273299
0.00197871
0.00152501
0.000432372
0.000447888
0.000473268
0.000521008
0.000576845
0.000662629
0.000749636
0.000881832
0.00100075
0.0011886
0.00132963
0.00157541
0.00170274
0.00198614
0.0020129
0.00226145
0.00204259
0.00209102
0.00154115
0.00114968
0.000310235
0.000321783
0.000339719
0.000374379
0.000414073
0.00047643
0.000538122
0.000634297
0.000718138
0.000855044
0.000953338
0.00113266
0.00121889
0.00142508
0.00143741
0.0016143
0.00145574
0.00147665
0.00110327
0.000803256
0.000186726
0.000193842
0.000204642
0.000225703
0.000249626
0.000287551
0.000324623
0.000383182
0.000433312
0.000516862
0.000575056
0.000684764
0.000734522
0.00086072
0.000864745
0.000971638
0.000874412
0.000881654
0.000664119
0.000475337
6.23948e-05
6.47472e-05
6.85127e-05
7.5541e-05
8.3787e-05
9.64624e-05
0.000109235
0.000128794
0.000146095
0.000174005
0.000194148
0.000230827
0.000248143
0.000290354
0.000292052
0.000327556
0.000294936
0.000296097
0.000223619
0.000158132
0.00172628
0.00173505
0.00189554
0.0020383
0.00234452
0.0026083
0.00311242
0.00353286
0.00431001
0.00493127
0.00610874
0.00699333
0.00879829
0.0100219
0.0129123
0.0144999
0.0195568
0.0207944
0.0312745
0.0214398
0.00175048
0.00175989
0.00192278
0.00206652
0.00237763
0.00264397
0.00315621
0.00358072
0.00437108
0.00499914
0.00619924
0.00709771
0.00894662
0.0102098
0.0132041
0.014949
0.0203089
0.0223981
0.0334268
0.0306795
0.00177037
0.0017805
0.00194489
0.00208996
0.00240439
0.00267349
0.00319131
0.00362004
0.00441957
0.00505434
0.00627036
0.00718162
0.00906227
0.01036
0.0134323
0.0153129
0.0209047
0.0236888
0.0350696
0.0366429
0.00178598
0.00179665
0.00196208
0.00210831
0.00242508
0.00269639
0.0032181
0.00365017
0.00445597
0.00509587
0.00632258
0.00724327
0.00914507
0.0104678
0.0135925
0.0155724
0.021317
0.0245999
0.0361175
0.040237
0.00179726
0.00180831
0.00197432
0.0021215
0.00243966
0.00271262
0.00323654
0.003671
0.00448019
0.00512351
0.00635566
0.00728202
0.00919417
0.0105307
0.0136811
0.0157137
0.0215335
0.0250764
0.0366436
0.0419411
0.00180417
0.00181549
0.00198157
0.00212953
0.00244806
0.00272217
0.00324654
0.00368254
0.0044921
0.00513725
0.00636937
0.00729765
0.00920898
0.0105473
0.013696
0.0157301
0.021549
0.0250959
0.0366798
0.0420122
0.00180672
0.00181818
0.0019838
0.00213241
0.00245029
0.00272505
0.00324809
0.00368478
0.00449172
0.00513708
0.00636375
0.0072902
0.00918954
0.0105176
0.0136364
0.0156215
0.021363
0.0246578
0.0362249
0.0404508
0.00180489
0.00181634
0.00198105
0.00213009
0.00244639
0.00272121
0.00324129
0.0036777
0.00447918
0.00512304
0.00633907
0.00725996
0.00913658
0.0104433
0.0135061
0.0153954
0.0209805
0.0237836
0.0352384
0.0369925
0.00179877
0.0018099
0.00197334
0.0021226
0.0024364
0.00271069
0.00322618
0.00366139
0.0044546
0.00509539
0.00629559
0.00720771
0.00905097
0.0103275
0.0133081
0.0150664
0.0204135
0.0225296
0.0336457
0.0311288
0.00178829
0.00179918
0.00196029
0.0021104
0.00241985
0.00269416
0.00320209
0.00363684
0.00441708
0.00505559
0.0062323
0.00713589
0.00893222
0.0101753
0.013046
0.0146542
0.0196898
0.0209566
0.0315749
0.0219676
)
;

boundaryField
{
    inlet
    {
        type            zeroGradient;
    }
    outlet
    {
        type            fixedValue;
        value           uniform 0;
    }
    upAndBottom
    {
        type            empty;
    }
    obstacle
    {
        type            zeroGradient;
    }
}


// ************************************************************************* //
