x,y,z,U_0,U_1,U_2
0,0,0,0.29999,-0.000129809,0
0,0.1,0,0.299993,-9.27204e-05,0
0,0.2,0,0.299996,-5.56322e-05,0
0,0.3,0,0.299999,-1.85441e-05,0
0,0.4,0,0.3,0,0
0,0.5,0,0.3,0,0
0,0.6,0,0.3,0,0
0,0.7,0,0.3,-3.51108e-20,0
0,0.8,0,0.3,0,0
0,0.9,0,0.3,0,0
0,1,0,0.3,0,0
0,1.1,0,0.3,0,0
0,1.2,0,0.3,0,0
0,1.3,0,0.3,0,0
0,1.4,0,0.3,0,0
0,1.5,0,0.3,0,0
0,1.6,0,0.3,0,0
0,1.7,0,0.3,0,0
0,1.8,0,0.3,0,0
0,1.9,0,0.3,0,0
0,2,0,0.3,0,0
0,2.1,0,0.3,0,0
0,2.2,0,0.3,0,0
0,2.3,0,0.3,0,0
0,2.4,0,0.3,0,0
0,2.5,0,0.3,0,0
0,2.6,0,0.3,0,0
0,2.7,0,0.3,0,0
0,2.8,0,0.3,0,0
0,2.9,0,0.3,0,0
0,3,0,0.3,0,0
0,3.1,0,0.3,0,0
0,3.2,0,0.3,0,0
0,3.3,0,0.3,0,0
0,3.4,0,0.3,0,0
0,3.5,0,0.3,0,0
0,3.6,0,0.3,0,0
0,3.7,0,0.3,0,0
0,3.8,0,0.3,0,0
0,3.9,0,0.3,0,0
0,4,0,0.3,0,0
0,4.1,0,0.3,0,0
0,4.2,0,0.3,0,0
0,4.3,0,0.3,0,0
0,4.4,0,0.3,0,0
0,4.5,0,0.3,0,0
0,4.6,0,0.3,0,0
0,4.7,0,0.3,0,0
0,4.8,0,0.3,0,0
0,4.9,0,0.3,-1.42899e-20,0
0,5,0,0.3,0,0
0,5.1,0,0.3,0,0
0,5.2,0,0.3,0,0
0,5.3,0,0.3,0,0
0,5.4,0,0.3,0,0
0,5.5,0,0.3,0,0
0,5.6,0,0.3,-7.80588e-21,0
0,5.7,0,0.3,0,0
0,5.8,0,0.3,0,0
0,5.9,0,0.3,0,0
0,6,0,0.3,0,0
0,6.1,0,0.3,0,0
0,6.2,0,0.3,0,0
0,6.3,0,0.3,-1.08865e-21,0
0,6.4,0,0.3,0,0
0,6.5,0,0.3,0,0
0,6.6,0,0.3,0,0
0,6.7,0,0.3,0,0
0,6.8,0,0.3,0,0
0,6.9,0,0.3,0,0
0,7,0,0.3,0,0
0,7.1,0,0.3,0,0
0,7.2,0,0.3,7.66189e-21,0
0,7.3,0,0.3,8.64978e-21,0
0,7.4,0,0.3,9.63026e-21,0
0,7.5,0,0.3,0,0
0,7.6,0,0.3,1.15694e-20,0
0,7.7,0,0.3,0,0
0,7.8,0,0.3,1.34777e-20,0
0,7.9,0,0.3,0,0
0,8,0,0.3,0,0
0,8.1,0,0.3,0,0
0,8.2,0,0.3,0,0
0,8.3,0,0.3,0,0
0,8.4,0,0.3,0,0
0,8.5,0,0.3,0,0
0,8.6,0,0.3,0,0
0,8.7,0,0.3,0,0
0,8.8,0,0.3,0,0
0,8.9,0,0.3,0,0
0,9,0,0.3,0,0
0,9.1,0,0.3,0,0
0,9.2,0,0.3,0,0
0,9.3,0,0.3,0,0
0,9.4,0,0.3,0,0
0,9.5,0,0.3,0,0
0,9.6,0,0.3,0,0
0,9.7,0,0.3,0,0
0,9.8,0,0.3,0,0
0,9.9,0,0.3,0,0
0,10,0,0.3,0,0
0,10.1,0,0.3,0,0
0,10.2,0,0.3,0,0
0,10.3,0,0.3,0,0
0,10.4,0,0.3,0,0
0,10.5,0,0.3,0,0
0,10.6,0,0.3,0,0
0,10.7,0,0.3,0,0
0,10.8,0,0.3,0,0
0,10.9,0,0.3,0,0
0,11,0,0.3,0,0
0,11.1,0,0.3,0,0
0,11.2,0,0.3,0,0
0,11.3,0,0.3,0,0
0,11.4,0,0.3,0,0
0,11.5,0,0.3,0,0
0,11.6,0,0.3,0,0
0,11.7,0,0.3,0,0
0,11.8,0,0.3,0,0
0,11.9,0,0.3,0,0
0,12,0,0.3,0,0
0,12.1,0,0.3,0,0
0,12.2,0,0.3,0,0
0,12.3,0,0.3,0,0
0,12.4,0,0.3,0,0
0,12.5,0,0.299997,1.82408e-05,0
0,12.6,0,0.29999,7.03574e-05,0
0,12.7,0,0.299982,0.000122474,0
0.1,0,0,0.299989,-0.000148598,0
0.1,0.1,0,0.299989,-0.000141962,0
0.1,0.2,0,0.299992,-0.000104874,0
0.1,0.3,0,0.299995,-6.77859e-05,0
0.1,0.4,0,0.299995,-6.09705e-05,0
0.1,0.5,0,0.299995,-6.09705e-05,0
0.1,0.6,0,0.299995,-6.09705e-05,0
0.1,0.7,0,0.299997,-3.32895e-05,0
0.1,0.8,0,0.299995,-5.90884e-05,0
0.1,0.9,0,0.299995,-5.90884e-05,0
0.1,1,0,0.299995,-5.90884e-05,0
0.1,1.1,0,0.299995,-5.68379e-05,0
0.1,1.2,0,0.299995,-5.68379e-05,0
0.1,1.3,0,0.299995,-5.68379e-05,0
0.1,1.4,0,0.299997,-3.30477e-05,0
0.1,1.5,0,0.299995,-5.42888e-05,0
0.1,1.6,0,0.299995,-5.42888e-05,0
0.1,1.7,0,0.299995,-5.42888e-05,0
0.1,1.8,0,0.299996,-5.15019e-05,0
0.1,1.9,0,0.299996,-5.15019e-05,0
0.1,2,0,0.299996,-5.15019e-05,0
0.1,2.1,0,0.299996,-3.14001e-05,0
0.1,2.2,0,0.299996,-4.84627e-05,0
0.1,2.3,0,0.299996,-4.84627e-05,0
0.1,2.4,0,0.299996,-4.84627e-05,0
0.1,2.5,0,0.299996,-4.51747e-05,0
0.1,2.6,0,0.299996,-4.51747e-05,0
0.1,2.7,0,0.299996,-4.51747e-05,0
0.1,2.8,0,0.299995,-2.83971e-05,0
0.1,2.9,0,0.299996,-4.16501e-05,0
0.1,3,0,0.299996,-4.16501e-05,0
0.1,3.1,0,0.299996,-4.16501e-05,0
0.1,3.2,0,0.299996,-3.79027e-05,0
0.1,3.3,0,0.299996,-3.79027e-05,0
0.1,3.4,0,0.299996,-3.79027e-05,0
0.1,3.5,0,0.299995,-2.42681e-05,0
0.1,3.6,0,0.299996,-3.39495e-05,0
0.1,3.7,0,0.299996,-3.39495e-05,0
0.1,3.8,0,0.299996,-3.39495e-05,0
0.1,3.9,0,0.299996,-2.98099e-05,0
0.1,4,0,0.299996,-2.98099e-05,0
0.1,4.1,0,0.299996,-2.98099e-05,0
0.1,4.2,0,0.299994,-1.92449e-05,0
0.1,4.3,0,0.299996,-2.55036e-05,0
0.1,4.4,0,0.299996,-2.55036e-05,0
0.1,4.5,0,0.299996,-2.55036e-05,0
0.1,4.6,0,0.299995,-2.1051e-05,0
0.1,4.7,0,0.299995,-2.1051e-05,0
0.1,4.8,0,0.299995,-2.1051e-05,0
0.1,4.9,0,0.299994,-1.35487e-05,0
0.1,5,0,0.299995,-1.64728e-05,0
0.1,5.1,0,0.299995,-1.64728e-05,0
0.1,5.2,0,0.299995,-1.64728e-05,0
0.1,5.3,0,0.299995,-1.17902e-05,0
0.1,5.4,0,0.299995,-1.17902e-05,0
0.1,5.5,0,0.299995,-1.17902e-05,0
0.1,5.6,0,0.299994,-7.40096e-06,0
0.1,5.7,0,0.299995,-7.02644e-06,0
0.1,5.8,0,0.299995,-7.02644e-06,0
0.1,5.9,0,0.299995,-7.02644e-06,0
0.1,6,0,0.299995,-2.20975e-06,0
0.1,6.1,0,0.299995,-2.20975e-06,0
0.1,6.2,0,0.299995,-2.20975e-06,0
0.1,6.3,0,0.299994,-1.03218e-06,0
0.1,6.4,0,0.299995,2.63198e-06,0
0.1,6.5,0,0.299995,2.63198e-06,0
0.1,6.6,0,0.299995,2.63198e-06,0
0.1,6.7,0,0.299994,7.48453e-06,0
0.1,6.8,0,0.299994,7.48453e-06,0
0.1,6.9,0,0.299994,7.48453e-06,0
0.1,7,0,0.299994,4.81596e-06,0
0.1,7.1,0,0.299994,6.32278e-06,0
0.1,7.2,0,0.299994,7.26444e-06,0
0.1,7.3,0,0.299994,8.20108e-06,0
0.1,7.4,0,0.299994,9.1307e-06,0
0.1,7.5,0,0.299994,1.00535e-05,0
0.1,7.6,0,0.299994,1.09692e-05,0
0.1,7.7,0,0.299994,1.18776e-05,0
0.1,7.8,0,0.299994,1.27786e-05,0
0.1,7.9,0,0.299994,1.36706e-05,0
0.1,8,0,0.299994,1.48364e-05,0
0.1,8.1,0,0.299994,2.44587e-05,0
0.1,8.2,0,0.299994,2.44587e-05,0
0.1,8.3,0,0.299993,2.74032e-05,0
0.1,8.4,0,0.299993,2.74032e-05,0
0.1,8.5,0,0.299993,3.02811e-05,0
0.1,8.6,0,0.299993,3.02811e-05,0
0.1,8.7,0,0.299994,2.23261e-05,0
0.1,8.8,0,0.299993,3.30724e-05,0
0.1,8.9,0,0.299993,3.30724e-05,0
0.1,9,0,0.299993,3.57663e-05,0
0.1,9.1,0,0.299993,3.57663e-05,0
0.1,9.2,0,0.299993,3.83516e-05,0
0.1,9.3,0,0.299993,3.83516e-05,0
0.1,9.4,0,0.299994,3.06275e-05,0
0.1,9.5,0,0.299993,4.08181e-05,0
0.1,9.6,0,0.299993,4.08181e-05,0
0.1,9.7,0,0.299992,4.31575e-05,0
0.1,9.8,0,0.299992,4.31575e-05,0
0.1,9.9,0,0.299993,4.20917e-05,0
0.1,10,0,0.299992,4.53636e-05,0
0.1,10.1,0,0.299994,3.91373e-05,0
0.1,10.2,0,0.299992,4.74314e-05,0
0.1,10.3,0,0.299992,4.74314e-05,0
0.1,10.4,0,0.299992,4.93587e-05,0
0.1,10.5,0,0.299992,4.93587e-05,0
0.1,10.6,0,0.299993,4.3482e-05,0
0.1,10.7,0,0.299991,5.11451e-05,0
0.1,10.8,0,0.299992,4.75784e-05,0
0.1,10.9,0,0.299991,5.27912e-05,0
0.1,11,0,0.299991,5.27912e-05,0
0.1,11.1,0,0.299991,5.42983e-05,0
0.1,11.2,0,0.299991,5.42983e-05,0
0.1,11.3,0,0.299995,4.25889e-05,0
0.1,11.4,0,0.299991,5.56686e-05,0
0.1,11.5,0,0.299991,5.56686e-05,0
0.1,11.6,0,0.299991,5.69055e-05,0
0.1,11.7,0,0.299991,5.69055e-05,0
0.1,11.8,0,0.299991,5.8e-05,0
0.1,11.9,0,0.299991,5.8e-05,0
0.1,12,0,0.299997,3.92309e-05,0
0.1,12.1,0,0.299991,5.89189e-05,0
0.1,12.2,0,0.299991,5.89189e-05,0
0.1,12.3,0,0.299991,5.96872e-05,0
0.1,12.4,0,0.299991,5.96872e-05,0
0.1,12.5,0,0.29999,6.57539e-05,0
0.1,12.6,0,0.299983,0.00011787,0
0.1,12.7,0,0.299983,0.000143097,0
0.2,0,0,0.299988,-0.000167387,0
0.2,0.1,0,0.299985,-0.000191204,0
0.2,0.2,0,0.299988,-0.000154116,0
0.2,0.3,0,0.299992,-0.000106461,0
0.2,0.4,0,0.299992,-0.000103835,0
0.2,0.5,0,0.29999,-0.000121941,0
0.2,0.6,0,0.29999,-0.000121941,0
0.2,0.7,0,0.299995,-6.65789e-05,0
0.2,0.8,0,0.29999,-0.000118177,0
0.2,0.9,0,0.29999,-0.000118177,0
0.2,1,0,0.299991,-0.000101631,0
0.2,1.1,0,0.299991,-9.85767e-05,0
0.2,1.2,0,0.29999,-0.000113676,0
0.2,1.3,0,0.29999,-0.000113676,0
0.2,1.4,0,0.299993,-6.60955e-05,0
0.2,1.5,0,0.299991,-0.000108578,0
0.2,1.6,0,0.299991,-0.000108578,0
0.2,1.7,0,0.299991,-9.45088e-05,0
0.2,1.8,0,0.299992,-9.07265e-05,0
0.2,1.9,0,0.299991,-0.000103004,0
0.2,2,0,0.299991,-0.000103004,0
0.2,2.1,0,0.299992,-6.28002e-05,0
0.2,2.2,0,0.299992,-9.69255e-05,0
0.2,2.3,0,0.299992,-9.69255e-05,0
0.2,2.4,0,0.299991,-8.50914e-05,0
0.2,2.5,0,0.299991,-8.06291e-05,0
0.2,2.6,0,0.299992,-9.03495e-05,0
0.2,2.7,0,0.299992,-9.03495e-05,0
0.2,2.8,0,0.299991,-5.67943e-05,0
0.2,2.9,0,0.299992,-8.33002e-05,0
0.2,3,0,0.299992,-8.33002e-05,0
0.2,3.1,0,0.299991,-7.35342e-05,0
0.2,3.2,0,0.299991,-6.84485e-05,0
0.2,3.3,0,0.299992,-7.58055e-05,0
0.2,3.4,0,0.299992,-7.58055e-05,0
0.2,3.5,0,0.299989,-4.85362e-05,0
0.2,3.6,0,0.299992,-6.78989e-05,0
0.2,3.7,0,0.299992,-6.78989e-05,0
0.2,3.8,0,0.299991,-6.01235e-05,0
0.2,3.9,0,0.29999,-5.45055e-05,0
0.2,4,0,0.299991,-5.96198e-05,0
0.2,4.1,0,0.299991,-5.96198e-05,0
0.2,4.2,0,0.299988,-3.84899e-05,0
0.2,4.3,0,0.299991,-5.10072e-05,0
0.2,4.4,0,0.299991,-5.10072e-05,0
0.2,4.5,0,0.29999,-4.51981e-05,0
0.2,4.6,0,0.29999,-3.91553e-05,0
0.2,4.7,0,0.299991,-4.2102e-05,0
0.2,4.8,0,0.299991,-4.2102e-05,0
0.2,4.9,0,0.299988,-2.70973e-05,0
0.2,5,0,0.29999,-3.29456e-05,0
0.2,5.1,0,0.29999,-3.29456e-05,0
0.2,5.2,0,0.299989,-2.91169e-05,0
0.2,5.3,0,0.299989,-2.2762e-05,0
0.2,5.4,0,0.29999,-2.35805e-05,0
0.2,5.5,0,0.29999,-2.35805e-05,0
0.2,5.6,0,0.299987,-1.48019e-05,0
0.2,5.7,0,0.299989,-1.40529e-05,0
0.2,5.8,0,0.299989,-1.40529e-05,0
0.2,5.9,0,0.299989,-1.22545e-05,0
0.2,6,0,0.299989,-5.71753e-06,0
0.2,6.1,0,0.299989,-4.41949e-06,0
0.2,6.2,0,0.299989,-4.41949e-06,0
0.2,6.3,0,0.299987,-2.06436e-06,0
0.2,6.4,0,0.299989,5.26396e-06,0
0.2,6.5,0,0.299989,5.26396e-06,0
0.2,6.6,0,0.299988,4.96017e-06,0
0.2,6.7,0,0.299988,1.15458e-05,0
0.2,6.8,0,0.299989,1.49691e-05,0
0.2,6.9,0,0.299989,1.49691e-05,0
0.2,7,0,0.299987,9.63192e-06,0
0.2,7.1,0,0.299987,1.26456e-05,0
0.2,7.2,0,0.299987,1.45289e-05,0
0.2,7.3,0,0.299987,1.64022e-05,0
0.2,7.4,0,0.299987,1.82614e-05,0
0.2,7.5,0,0.299988,2.0107e-05,0
0.2,7.6,0,0.299988,2.19385e-05,0
0.2,7.7,0,0.299988,2.37553e-05,0
0.2,7.8,0,0.299988,2.55572e-05,0
0.2,7.9,0,0.299988,2.73412e-05,0
0.2,8,0,0.299988,2.96727e-05,0
0.2,8.1,0,0.299987,4.89175e-05,0
0.2,8.2,0,0.299988,4.42852e-05,0
0.2,8.3,0,0.299987,5.48063e-05,0
0.2,8.4,0,0.299987,5.48063e-05,0
0.2,8.5,0,0.299987,5.12555e-05,0
0.2,8.6,0,0.299987,6.05621e-05,0
0.2,8.7,0,0.299989,4.26369e-05,0
0.2,8.8,0,0.299987,6.61448e-05,0
0.2,8.9,0,0.299987,6.19385e-05,0
0.2,9,0,0.299986,7.15326e-05,0
0.2,9.1,0,0.299986,7.15326e-05,0
0.2,9.2,0,0.299988,6.22904e-05,0
0.2,9.3,0,0.299986,7.67032e-05,0
0.2,9.4,0,0.299989,5.60138e-05,0
0.2,9.5,0,0.299985,8.16362e-05,0
0.2,9.6,0,0.299986,7.91168e-05,0
0.2,9.7,0,0.299985,8.63149e-05,0
0.2,9.8,0,0.299985,8.63149e-05,0
0.2,9.9,0,0.299989,7.03686e-05,0
0.2,10,0,0.299984,9.07272e-05,0
0.2,10.1,0,0.29999,6.86829e-05,0
0.2,10.2,0,0.299984,9.48627e-05,0
0.2,10.3,0,0.299984,9.48627e-05,0
0.2,10.4,0,0.299983,9.87175e-05,0
0.2,10.5,0,0.299983,9.87175e-05,0
0.2,10.6,0,0.29999,7.51587e-05,0
0.2,10.7,0,0.299983,0.00010229,0
0.2,10.8,0,0.299989,8.00974e-05,0
0.2,10.9,0,0.299982,0.000105582,0
0.2,11,0,0.299982,0.000105582,0
0.2,11.1,0,0.299983,0.000104781,0
0.2,11.2,0,0.299982,0.000108597,0
0.2,11.3,0,0.299992,7.63023e-05,0
0.2,11.4,0,0.299982,0.000111337,0
0.2,11.5,0,0.299988,8.99535e-05,0
0.2,11.6,0,0.299981,0.000113811,0
0.2,11.7,0,0.299981,0.000113811,0
0.2,11.8,0,0.299984,0.000106897,0
0.2,11.9,0,0.299981,0.000116,0
0.2,12,0,0.299995,7.34741e-05,0
0.2,12.1,0,0.299982,0.000117838,0
0.2,12.2,0,0.299988,9.82684e-05,0
0.2,12.3,0,0.299982,0.000119374,0
0.2,12.4,0,0.299982,0.000119374,0
0.2,12.5,0,0.299987,0.000105193,0
0.2,12.6,0,0.299976,0.000165384,0
0.2,12.7,0,0.299984,0.000163719,0
0.3,0,0,0.299988,-0.000186176,0
0.3,0.1,0,0.299982,-0.000231745,0
0.3,0.2,0,0.299984,-0.000203358,0
0.3,0.3,0,0.29999,-0.000139267,0
0.3,0.4,0,0.29999,-0.00013664,0
0.3,0.5,0,0.299985,-0.000182912,0
0.3,0.6,0,0.299986,-0.000175003,0
0.3,0.7,0,0.299992,-9.98684e-05,0
0.3,0.8,0,0.299986,-0.000169894,0
0.3,0.9,0,0.299985,-0.000177265,0
0.3,1,0,0.299988,-0.000134981,0
0.3,1.1,0,0.299988,-0.000131927,0
0.3,1.2,0,0.299985,-0.000170514,0
0.3,1.3,0,0.299986,-0.000163716,0
0.3,1.4,0,0.29999,-9.91432e-05,0
0.3,1.5,0,0.299986,-0.000156798,0
0.3,1.6,0,0.299986,-0.000162867,0
0.3,1.7,0,0.299988,-0.000126913,0
0.3,1.8,0,0.299988,-0.00012313,0
0.3,1.9,0,0.299987,-0.000154506,0
0.3,2,0,0.299987,-0.000148762,0
0.3,2.1,0,0.299988,-9.42002e-05,0
0.3,2.2,0,0.299987,-0.000140513,0
0.3,2.3,0,0.299987,-0.000145388,0
0.3,2.4,0,0.299987,-0.000115146,0
0.3,2.5,0,0.299987,-0.000110683,0
0.3,2.6,0,0.299987,-0.000135524,0
0.3,2.7,0,0.299987,-0.000130731,0
0.3,2.8,0,0.299986,-8.51914e-05,0
0.3,2.9,0,0.299988,-0.000121164,0
0.3,3,0,0.299988,-0.00012495,0
0.3,3.1,0,0.299986,-9.99929e-05,0
0.3,3.2,0,0.299986,-9.49071e-05,0
0.3,3.3,0,0.299987,-0.000113708,0
0.3,3.4,0,0.299987,-0.000109813,0
0.3,3.5,0,0.299984,-7.28042e-05,0
0.3,3.6,0,0.299987,-9.90823e-05,0
0.3,3.7,0,0.299987,-0.000101848,0
0.3,3.8,0,0.299985,-8.19778e-05,0
0.3,3.9,0,0.299985,-7.63598e-05,0
0.3,4,0,0.299987,-8.94297e-05,0
0.3,4.1,0,0.299986,-8.64111e-05,0
0.3,4.2,0,0.299983,-5.77348e-05,0
0.3,4.3,0,0.299986,-7.47226e-05,0
0.3,4.4,0,0.299987,-7.65107e-05,0
0.3,4.5,0,0.299984,-6.16654e-05,0
0.3,4.6,0,0.299984,-5.56226e-05,0
0.3,4.7,0,0.299986,-6.3153e-05,0
0.3,4.8,0,0.299986,-6.10094e-05,0
0.3,4.9,0,0.299982,-4.0646e-05,0
0.3,5,0,0.299985,-4.85829e-05,0
0.3,5.1,0,0.299985,-4.94184e-05,0
0.3,5.2,0,0.299983,-3.9634e-05,0
0.3,5.3,0,0.299983,-3.32791e-05,0
0.3,5.4,0,0.299985,-3.53707e-05,0
0.3,5.5,0,0.299984,-3.41166e-05,0
0.3,5.6,0,0.299981,-2.22029e-05,0
0.3,5.7,0,0.299984,-2.11863e-05,0
0.3,5.8,0,0.299984,-2.10793e-05,0
0.3,5.9,0,0.299982,-1.64834e-05,0
0.3,6,0,0.299982,-9.94644e-06,0
0.3,6.1,0,0.299984,-6.62924e-06,0
0.3,6.2,0,0.299984,-6.29279e-06,0
0.3,6.3,0,0.299981,-3.09654e-06,0
0.3,6.4,0,0.299983,6.84903e-06,0
0.3,6.5,0,0.299984,7.89594e-06,0
0.3,6.6,0,0.299982,7.11959e-06,0
0.3,6.7,0,0.299982,1.37052e-05,0
0.3,6.8,0,0.299983,2.24536e-05,0
0.3,6.9,0,0.299983,2.16911e-05,0
0.3,7,0,0.299981,1.44479e-05,0
0.3,7.1,0,0.299981,1.89683e-05,0
0.3,7.2,0,0.299981,2.17933e-05,0
0.3,7.3,0,0.299981,2.46032e-05,0
0.3,7.4,0,0.299981,2.73921e-05,0
0.3,7.5,0,0.299981,3.01605e-05,0
0.3,7.6,0,0.299981,3.29077e-05,0
0.3,7.7,0,0.299982,3.56329e-05,0
0.3,7.8,0,0.299982,3.83358e-05,0
0.3,7.9,0,0.299982,4.10117e-05,0
0.3,8,0,0.299982,4.45091e-05,0
0.3,8.1,0,0.299981,7.33762e-05,0
0.3,8.2,0,0.299982,6.0827e-05,0
0.3,8.3,0,0.299981,7.81653e-05,0
0.3,8.4,0,0.299981,8.06871e-05,0
0.3,8.5,0,0.299982,6.97146e-05,0
0.3,8.6,0,0.29998,9.08432e-05,0
0.3,8.7,0,0.299983,6.29477e-05,0
0.3,8.8,0,0.29998,9.92173e-05,0
0.3,8.9,0,0.299982,8.40276e-05,0
0.3,9,0,0.29998,9.94418e-05,0
0.3,9.1,0,0.299979,0.000107299,0
0.3,9.2,0,0.299983,8.60743e-05,0
0.3,9.3,0,0.299979,0.000115055,0
0.3,9.4,0,0.299984,8.14e-05,0
0.3,9.5,0,0.299978,0.000122454,0
0.3,9.6,0,0.299981,0.000106004,0
0.3,9.7,0,0.29998,0.000116837,0
0.3,9.8,0,0.299977,0.000129472,0
0.3,9.9,0,0.299984,9.86456e-05,0
0.3,10,0,0.299977,0.000136091,0
0.3,10.1,0,0.299986,9.82284e-05,0
0.3,10.2,0,0.299975,0.000142294,0
0.3,10.3,0,0.29998,0.000125901,0
0.3,10.4,0,0.299979,0.000129797,0
0.3,10.5,0,0.299975,0.000148076,0
0.3,10.6,0,0.299986,0.000106835,0
0.3,10.7,0,0.299974,0.000153435,0
0.3,10.8,0,0.299986,0.000112616,0
0.3,10.9,0,0.299973,0.000158373,0
0.3,11,0,0.299978,0.000143159,0
0.3,11.1,0,0.29998,0.000137981,0
0.3,11.2,0,0.299973,0.000162895,0
0.3,11.3,0,0.299989,0.000110016,0
0.3,11.4,0,0.299973,0.000167006,0
0.3,11.5,0,0.299986,0.000124008,0
0.3,11.6,0,0.299972,0.000170716,0
0.3,11.7,0,0.299976,0.000157691,0
0.3,11.8,0,0.299982,0.000141128,0
0.3,11.9,0,0.299972,0.000174,0
0.3,12,0,0.299993,0.000107717,0
0.3,12.1,0,0.299973,0.000176757,0
0.3,12.2,0,0.299986,0.000132329,0
0.3,12.3,0,0.299974,0.000174699,0
0.3,12.4,0,0.299976,0.000169391,0
0.3,12.5,0,0.299986,0.000138908,0
0.3,12.6,0,0.299969,0.000212897,0
0.3,12.7,0,0.299985,0.000184342,0
0.4,0,0,0.299987,-0.000204966,0
0.4,0.1,0,0.299982,-0.000250534,0
0.4,0.2,0,0.299981,-0.0002526,0
0.4,0.3,0,0.299988,-0.000172072,0
0.4,0.4,0,0.299988,-0.000169445,0
0.4,0.5,0,0.29998,-0.000243882,0
0.4,0.6,0,0.299983,-0.000208292,0
0.4,0.7,0,0.299989,-0.000133158,0
0.4,0.8,0,0.299983,-0.000203184,0
0.4,0.9,0,0.29998,-0.000236354,0
0.4,1,0,0.299985,-0.000168332,0
0.4,1.1,0,0.299985,-0.000165278,0
0.4,1.2,0,0.299981,-0.000227352,0
0.4,1.3,0,0.299982,-0.000196764,0
0.4,1.4,0,0.299986,-0.000132191,0
0.4,1.5,0,0.299983,-0.000189845,0
0.4,1.6,0,0.299981,-0.000217155,0
0.4,1.7,0,0.299984,-0.000159316,0
0.4,1.8,0,0.299984,-0.000155534,0
0.4,1.9,0,0.299982,-0.000206008,0
0.4,2,0,0.299983,-0.000180162,0
0.4,2.1,0,0.299984,-0.0001256,0
0.4,2.2,0,0.299983,-0.000171913,0
0.4,2.3,0,0.299983,-0.000193851,0
0.4,2.4,0,0.299983,-0.0001452,0
0.4,2.5,0,0.299983,-0.000140738,0
0.4,2.6,0,0.299983,-0.000180699,0
0.4,2.7,0,0.299983,-0.000159128,0
0.4,2.8,0,0.299981,-0.000113589,0
0.4,2.9,0,0.299983,-0.000149561,0
0.4,3,0,0.299984,-0.0001666,0
0.4,3.1,0,0.299981,-0.000126451,0
0.4,3.2,0,0.299981,-0.000121366,0
0.4,3.3,0,0.299983,-0.000151611,0
0.4,3.4,0,0.299982,-0.000134081,0
0.4,3.5,0,0.299979,-9.70723e-05,0
0.4,3.6,0,0.299982,-0.00012335,0
0.4,3.7,0,0.299983,-0.000135798,0
0.4,3.8,0,0.29998,-0.000103832,0
0.4,3.9,0,0.299979,-9.82141e-05,0
0.4,4,0,0.299982,-0.00011924,0
0.4,4.1,0,0.299981,-0.000105656,0
0.4,4.2,0,0.299977,-7.69798e-05,0
0.4,4.3,0,0.299981,-9.39675e-05,0
0.4,4.4,0,0.299982,-0.000102014,0
0.4,4.5,0,0.299978,-7.81326e-05,0
0.4,4.6,0,0.299978,-7.20898e-05,0
0.4,4.7,0,0.299981,-8.4204e-05,0
0.4,4.8,0,0.29998,-7.45581e-05,0
0.4,4.9,0,0.299975,-5.41946e-05,0
0.4,5,0,0.299979,-6.21316e-05,0
0.4,5.1,0,0.299981,-6.58912e-05,0
0.4,5.2,0,0.299977,-5.01511e-05,0
0.4,5.3,0,0.299977,-4.37962e-05,0
0.4,5.4,0,0.29998,-4.71609e-05,0
0.4,5.5,0,0.299978,-4.15176e-05,0
0.4,5.6,0,0.299975,-2.96038e-05,0
0.4,5.7,0,0.299978,-2.85873e-05,0
0.4,5.8,0,0.299979,-2.81058e-05,0
0.4,5.9,0,0.299976,-2.07123e-05,0
0.4,6,0,0.299976,-1.41754e-05,0
0.4,6.1,0,0.299979,-8.83899e-06,0
0.4,6.2,0,0.299977,-7.32498e-06,0
0.4,6.3,0,0.299974,-4.12873e-06,0
0.4,6.4,0,0.299977,5.81685e-06,0
0.4,6.5,0,0.299978,1.05279e-05,0
0.4,6.6,0,0.299976,9.27901e-06,0
0.4,6.7,0,0.299975,1.58646e-05,0
0.4,6.8,0,0.299977,2.99381e-05,0
0.4,6.9,0,0.299976,2.65071e-05,0
0.4,7,0,0.299974,1.92638e-05,0
0.4,7.1,0,0.299974,2.52911e-05,0
0.4,7.2,0,0.299975,2.90578e-05,0
0.4,7.3,0,0.299975,3.28043e-05,0
0.4,7.4,0,0.299975,3.65228e-05,0
0.4,7.5,0,0.299975,4.02139e-05,0
0.4,7.6,0,0.299975,4.38769e-05,0
0.4,7.7,0,0.299975,4.75105e-05,0
0.4,7.8,0,0.299976,5.11144e-05,0
0.4,7.9,0,0.299976,5.46823e-05,0
0.4,8,0,0.299976,5.93454e-05,0
0.4,8.1,0,0.299975,9.78349e-05,0
0.4,8.2,0,0.299976,7.73688e-05,0
0.4,8.3,0,0.299975,9.47071e-05,0
0.4,8.4,0,0.299975,9.91462e-05,0
0.4,8.5,0,0.299976,8.81737e-05,0
0.4,8.6,0,0.299973,0.000121124,0
0.4,8.7,0,0.299978,8.32585e-05,0
0.4,8.8,0,0.299973,0.000130253,0
0.4,8.9,0,0.299976,0.000106117,0
0.4,9,0,0.299975,0.000121531,0
0.4,9.1,0,0.299974,0.000131465,0
0.4,9.2,0,0.299978,0.000109858,0
0.4,9.3,0,0.299971,0.000153406,0
0.4,9.4,0,0.29998,0.000106786,0
0.4,9.5,0,0.299971,0.000157691,0
0.4,9.6,0,0.299977,0.000132891,0
0.4,9.7,0,0.299975,0.000143724,0
0.4,9.8,0,0.299972,0.000161232,0
0.4,9.9,0,0.29998,0.000126923,0
0.4,10,0,0.299969,0.000181454,0
0.4,10.1,0,0.299982,0.000127774,0
0.4,10.2,0,0.29997,0.000179641,0
0.4,10.3,0,0.299976,0.000156584,0
0.4,10.4,0,0.299975,0.000160479,0
0.4,10.5,0,0.299969,0.000187465,0
0.4,10.6,0,0.299983,0.000138512,0
0.4,10.7,0,0.299965,0.00020458,0
0.4,10.8,0,0.299983,0.000145135,0
0.4,10.9,0,0.299969,0.000195637,0
0.4,11,0,0.299975,0.00017636,0
0.4,11.1,0,0.299977,0.000171182,0
0.4,11.2,0,0.299966,0.000209748,0
0.4,11.3,0,0.299987,0.000143729,0
0.4,11.4,0,0.299964,0.000222675,0
0.4,11.5,0,0.299984,0.000158063,0
0.4,11.6,0,0.29997,0.000205501,0
0.4,11.7,0,0.299974,0.000191922,0
0.4,11.8,0,0.29998,0.00017536,0
0.4,11.9,0,0.299964,0.000228209,0
0.4,12,0,0.299991,0.00014196,0
0.4,12.1,0,0.299964,0.000235676,0
0.4,12.2,0,0.299985,0.000166389,0
0.4,12.3,0,0.299973,0.00020876,0
0.4,12.4,0,0.299975,0.000203105,0
0.4,12.5,0,0.299984,0.000172622,0
0.4,12.6,0,0.299962,0.00026041,0
0.4,12.7,0,0.299985,0.000204965,0
0.5,0,0,0.299986,-0.000223755,0
0.5,0.1,0,0.299981,-0.000269324,0
0.5,0.2,0,0.299978,-0.000286579,0
0.5,0.3,0,0.299986,-0.000204877,0
0.5,0.4,0,0.299985,-0.000202251,0
0.5,0.5,0,0.299977,-0.000278699,0
0.5,0.6,0,0.29998,-0.000241582,0
0.5,0.7,0,0.299987,-0.000166447,0
0.5,0.8,0,0.29998,-0.000236473,0
0.5,0.9,0,0.299977,-0.000271543,0
0.5,1,0,0.299982,-0.000201682,0
0.5,1.1,0,0.299982,-0.000198628,0
0.5,1.2,0,0.299977,-0.00026238,0
0.5,1.3,0,0.299979,-0.000229812,0
0.5,1.4,0,0.299983,-0.000165239,0
0.5,1.5,0,0.29998,-0.000222893,0
0.5,1.6,0,0.299978,-0.000251122,0
0.5,1.7,0,0.29998,-0.00019172,0
0.5,1.8,0,0.29998,-0.000187938,0
0.5,1.9,0,0.299979,-0.000239776,0
0.5,2,0,0.299979,-0.000211562,0
0.5,2.1,0,0.299979,-0.000157,0
0.5,2.2,0,0.299979,-0.000203313,0
0.5,2.3,0,0.299979,-0.00022522,0
0.5,2.4,0,0.299978,-0.000175254,0
0.5,2.5,0,0.299978,-0.000170792,0
0.5,2.6,0,0.299979,-0.000211833,0
0.5,2.7,0,0.299978,-0.000187525,0
0.5,2.8,0,0.299976,-0.000141986,0
0.5,2.9,0,0.299978,-0.000177958,0
0.5,3,0,0.299979,-0.000194144,0
0.5,3.1,0,0.299976,-0.00015291,0
0.5,3.2,0,0.299976,-0.000147824,0
0.5,3.3,0,0.299978,-0.000178887,0
0.5,3.4,0,0.299976,-0.000158349,0
0.5,3.5,0,0.299973,-0.00012134,0
0.5,3.6,0,0.299976,-0.000147618,0
0.5,3.7,0,0.299978,-0.000158516,0
0.5,3.8,0,0.299974,-0.000125686,0
0.5,3.9,0,0.299974,-0.000120068,0
0.5,4,0,0.299977,-0.000141662,0
0.5,4.1,0,0.299975,-0.000124901,0
0.5,4.2,0,0.299971,-9.62247e-05,0
0.5,4.3,0,0.299975,-0.000113212,0
0.5,4.4,0,0.299976,-0.000119127,0
0.5,4.5,0,0.299972,-9.45999e-05,0
0.5,4.6,0,0.299972,-8.85571e-05,0
0.5,4.7,0,0.299976,-0.000100999,0
0.5,4.8,0,0.299973,-8.81068e-05,0
0.5,4.9,0,0.299969,-6.77433e-05,0
0.5,5,0,0.299973,-7.56802e-05,0
0.5,5.1,0,0.299974,-7.68337e-05,0
0.5,5.2,0,0.299971,-6.06682e-05,0
0.5,5.3,0,0.29997,-5.43133e-05,0
0.5,5.4,0,0.299974,-5.7769e-05,0
0.5,5.5,0,0.299972,-4.89185e-05,0
0.5,5.6,0,0.299968,-3.70048e-05,0
0.5,5.7,0,0.299971,-3.59882e-05,0
0.5,5.8,0,0.299973,-3.25345e-05,0
0.5,5.9,0,0.299969,-2.49412e-05,0
0.5,6,0,0.299969,-1.84043e-05,0
0.5,6.1,0,0.299973,-1.29237e-05,0
0.5,6.2,0,0.299971,-8.35716e-06,0
0.5,6.3,0,0.299968,-5.16091e-06,0
0.5,6.4,0,0.29997,4.78467e-06,0
0.5,6.5,0,0.299972,1.27211e-05,0
0.5,6.6,0,0.299969,1.14384e-05,0
0.5,6.7,0,0.299969,1.8024e-05,0
0.5,6.8,0,0.299971,3.24779e-05,0
0.5,6.9,0,0.29997,3.13231e-05,0
0.5,7,0,0.299968,2.40798e-05,0
0.5,7.1,0,0.299968,3.16139e-05,0
0.5,7.2,0,0.299968,3.63222e-05,0
0.5,7.3,0,0.299969,4.10054e-05,0
0.5,7.4,0,0.299969,4.56535e-05,0
0.5,7.5,0,0.299969,5.02674e-05,0
0.5,7.6,0,0.299969,5.48462e-05,0
0.5,7.7,0,0.299969,5.93882e-05,0
0.5,7.8,0,0.299969,6.38929e-05,0
0.5,7.9,0,0.29997,6.83529e-05,0
0.5,8,0,0.29997,7.41818e-05,0
0.5,8.1,0,0.299969,0.000113081,0
0.5,8.2,0,0.29997,9.39106e-05,0
0.5,8.3,0,0.299969,0.000111249,0
0.5,8.4,0,0.299969,0.000117605,0
0.5,8.5,0,0.29997,0.000106633,0
0.5,8.6,0,0.299967,0.000143875,0
0.5,8.7,0,0.299972,0.000103569,0
0.5,8.8,0,0.299968,0.000150564,0
0.5,8.9,0,0.299971,0.000128206,0
0.5,9,0,0.299969,0.00014362,0
0.5,9.1,0,0.299969,0.000155249,0
0.5,9.2,0,0.299972,0.000133642,0
0.5,9.3,0,0.299965,0.000184586,0
0.5,9.4,0,0.299975,0.000132172,0
0.5,9.5,0,0.299967,0.000183077,0
0.5,9.6,0,0.299972,0.000159778,0
0.5,9.7,0,0.29997,0.000170611,0
0.5,9.8,0,0.299968,0.000189509,0
0.5,9.9,0,0.299976,0.0001552,0
0.5,10,0,0.299963,0.00021872,0
0.5,10.1,0,0.299977,0.000157319,0
0.5,10.2,0,0.299965,0.000209186,0
0.5,10.3,0,0.299972,0.000187266,0
0.5,10.4,0,0.299972,0.000191162,0
0.5,10.5,0,0.299966,0.000219142,0
0.5,10.6,0,0.299979,0.000170189,0
0.5,10.7,0,0.299959,0.000246117,0
0.5,10.8,0,0.29998,0.000177654,0
0.5,10.9,0,0.299966,0.000228156,0
0.5,11,0,0.299972,0.00020956,0
0.5,11.1,0,0.299974,0.000204382,0
0.5,11.2,0,0.299963,0.000243461,0
0.5,11.3,0,0.299984,0.000177442,0
0.5,11.4,0,0.299958,0.000266198,0
0.5,11.5,0,0.299981,0.000192118,0
0.5,11.6,0,0.299967,0.000239556,0
0.5,11.7,0,0.299972,0.000226153,0
0.5,11.8,0,0.299978,0.000209591,0
0.5,11.9,0,0.299962,0.000262452,0
0.5,12,0,0.299989,0.000176204,0
0.5,12.1,0,0.29996,0.000275957,0
0.5,12.2,0,0.299983,0.00020045,0
0.5,12.3,0,0.299971,0.00024282,0
0.5,12.4,0,0.299973,0.00023682,0
0.5,12.5,0,0.299983,0.000206337,0
0.5,12.6,0,0.299962,0.000282177,0
0.5,12.7,0,0.299986,0.000225587,0
0.6,0,0,0.299985,-0.000242544,0
0.6,0.1,0,0.29998,-0.000288113,0
0.6,0.2,0,0.299978,-0.000301983,0
0.6,0.3,0,0.299984,-0.000237683,0
0.6,0.4,0,0.299983,-0.000235056,0
0.6,0.5,0,0.299977,-0.000295687,0
0.6,0.6,0,0.299978,-0.000274871,0
0.6,0.7,0,0.299984,-0.000199737,0
0.6,0.8,0,0.299978,-0.000269763,0
0.6,0.9,0,0.299975,-0.000290151,0
0.6,1,0,0.299979,-0.000235033,0
0.6,1.1,0,0.299979,-0.000231979,0
0.6,1.2,0,0.299975,-0.000282136,0
0.6,1.3,0,0.299976,-0.00026286,0
0.6,1.4,0,0.29998,-0.000198286,0
0.6,1.5,0,0.299976,-0.000255941,0
0.6,1.6,0,0.299975,-0.000271388,0
0.6,1.7,0,0.299976,-0.000224124,0
0.6,1.8,0,0.299977,-0.000220342,0
0.6,1.9,0,0.299975,-0.000260693,0
0.6,2,0,0.299975,-0.000242963,0
0.6,2.1,0,0.299975,-0.0001884,0
0.6,2.2,0,0.299975,-0.000234713,0
0.6,2.3,0,0.299974,-0.000245524,0
0.6,2.4,0,0.299974,-0.000205308,0
0.6,2.5,0,0.299974,-0.000200846,0
0.6,2.6,0,0.299974,-0.0002323,0
0.6,2.7,0,0.299973,-0.000215922,0
0.6,2.8,0,0.299972,-0.000170383,0
0.6,2.9,0,0.299974,-0.000206355,0
0.6,3,0,0.299974,-0.00021303,0
0.6,3.1,0,0.299971,-0.000179369,0
0.6,3.2,0,0.299971,-0.000174283,0
0.6,3.3,0,0.299973,-0.000197554,0
0.6,3.4,0,0.299971,-0.000182617,0
0.6,3.5,0,0.299968,-0.000145608,0
0.6,3.6,0,0.299971,-0.000171887,0
0.6,3.7,0,0.299972,-0.000174838,0
0.6,3.8,0,0.299969,-0.000147541,0
0.6,3.9,0,0.299968,-0.000141923,0
0.6,4,0,0.299971,-0.000157479,0
0.6,4.1,0,0.299969,-0.000144146,0
0.6,4.2,0,0.299965,-0.00011547,0
0.6,4.3,0,0.299969,-0.000132457,0
0.6,4.4,0,0.29997,-0.000132018,0
0.6,4.5,0,0.299966,-0.000111067,0
0.6,4.6,0,0.299966,-0.000105024,0
0.6,4.7,0,0.299969,-0.000113179,0
0.6,4.8,0,0.299967,-0.000101655,0
0.6,4.9,0,0.299963,-8.12919e-05,0
0.6,5,0,0.299967,-8.92289e-05,0
0.6,5.1,0,0.299967,-8.56798e-05,0
0.6,5.2,0,0.299964,-7.11853e-05,0
0.6,5.3,0,0.299964,-6.48304e-05,0
0.6,5.4,0,0.299967,-6.57779e-05,0
0.6,5.5,0,0.299965,-5.63195e-05,0
0.6,5.6,0,0.299962,-4.44057e-05,0
0.6,5.7,0,0.299965,-4.33892e-05,0
0.6,5.8,0,0.299966,-3.69774e-05,0
0.6,5.9,0,0.299963,-2.91701e-05,0
0.6,6,0,0.299963,-2.26332e-05,0
0.6,6.1,0,0.299966,-1.64797e-05,0
0.6,6.2,0,0.299965,-9.38934e-06,0
0.6,6.3,0,0.299961,-6.19309e-06,0
0.6,6.4,0,0.299964,3.75249e-06,0
0.6,6.5,0,0.299965,1.27867e-05,0
0.6,6.6,0,0.299963,1.35978e-05,0
0.6,6.7,0,0.299962,2.01834e-05,0
0.6,6.8,0,0.299964,3.31124e-05,0
0.6,6.9,0,0.299963,3.6139e-05,0
0.6,7,0,0.299961,2.88958e-05,0
0.6,7.1,0,0.299962,3.79367e-05,0
0.6,7.2,0,0.299962,4.35866e-05,0
0.6,7.3,0,0.299962,4.92065e-05,0
0.6,7.4,0,0.299962,5.47842e-05,0
0.6,7.5,0,0.299963,6.03209e-05,0
0.6,7.6,0,0.299963,6.58154e-05,0
0.6,7.7,0,0.299963,7.12658e-05,0
0.6,7.8,0,0.299963,7.66715e-05,0
0.6,7.9,0,0.299964,8.20235e-05,0
0.6,8,0,0.299964,8.90182e-05,0
0.6,8.1,0,0.299963,0.000123622,0
0.6,8.2,0,0.299964,0.000110452,0
0.6,8.3,0,0.299963,0.000127791,0
0.6,8.4,0,0.299963,0.000136064,0
0.6,8.5,0,0.299964,0.000125092,0
0.6,8.6,0,0.299962,0.000155382,0
0.6,8.7,0,0.299966,0.00012388,0
0.6,8.8,0,0.299963,0.000167136,0
0.6,8.9,0,0.299966,0.000150295,0
0.6,9,0,0.299964,0.000165709,0
0.6,9.1,0,0.299964,0.000179033,0
0.6,9.2,0,0.299967,0.000157426,0
0.6,9.3,0,0.299963,0.000196179,0
0.6,9.4,0,0.29997,0.000157559,0
0.6,9.5,0,0.299962,0.000206537,0
0.6,9.6,0,0.299967,0.000186665,0
0.6,9.7,0,0.299966,0.000197498,0
0.6,9.8,0,0.299964,0.000217786,0
0.6,9.9,0,0.299971,0.000183477,0
0.6,10,0,0.299962,0.000231179,0
0.6,10.1,0,0.299973,0.000186865,0
0.6,10.2,0,0.299961,0.000238732,0
0.6,10.3,0,0.299968,0.000217948,0
0.6,10.4,0,0.299968,0.000221844,0
0.6,10.5,0,0.299962,0.000250819,0
0.6,10.6,0,0.299976,0.000201866,0
0.6,10.7,0,0.299961,0.000259167,0
0.6,10.8,0,0.299976,0.000210173,0
0.6,10.9,0,0.299963,0.000260675,0
0.6,11,0,0.299969,0.000242761,0
0.6,11.1,0,0.299971,0.000237583,0
0.6,11.2,0,0.299962,0.000274257,0
0.6,11.3,0,0.299981,0.000211156,0
0.6,11.4,0,0.299962,0.000279447,0
0.6,11.5,0,0.299979,0.000226173,0
0.6,11.6,0,0.299965,0.00027361,0
0.6,11.7,0,0.29997,0.000260385,0
0.6,11.8,0,0.299976,0.000243822,0
0.6,11.9,0,0.299963,0.000288604,0
0.6,12,0,0.299987,0.000210447,0
0.6,12.1,0,0.299964,0.000291688,0
0.6,12.2,0,0.299982,0.00023451,0
0.6,12.3,0,0.29997,0.000276881,0
0.6,12.4,0,0.299972,0.000270534,0
0.6,12.5,0,0.299982,0.000240051,0
0.6,12.6,0,0.299966,0.000295313,0
0.6,12.7,0,0.299987,0.00024621,0
0.7,0,0,0.299984,-0.000261334,0
0.7,0.1,0,0.29998,-0.00030338,0
0.7,0.2,0,0.299979,-0.000304336,0
0.7,0.3,0,0.299981,-0.000270488,0
0.7,0.4,0,0.299981,-0.000267861,0
0.7,0.5,0,0.299977,-0.000300811,0
0.7,0.6,0,0.299976,-0.000302125,0
0.7,0.7,0,0.299981,-0.000233026,0
0.7,0.8,0,0.299975,-0.000297537,0
0.7,0.9,0,0.299974,-0.000297702,0
0.7,1,0,0.299976,-0.000268383,0
0.7,1.1,0,0.299976,-0.000265329,0
0.7,1.2,0,0.299974,-0.000291696,0
0.7,1.3,0,0.299973,-0.000290874,0
0.7,1.4,0,0.299976,-0.000231334,0
0.7,1.5,0,0.299973,-0.000284299,0
0.7,1.6,0,0.299972,-0.000282551,0
0.7,1.7,0,0.299972,-0.000256528,0
0.7,1.8,0,0.299973,-0.000252746,0
0.7,1.9,0,0.299971,-0.000272995,0
0.7,2,0,0.299971,-0.00027027,0
0.7,2.1,0,0.299971,-0.000219801,0
0.7,2.2,0,0.299971,-0.000262169,0
0.7,2.3,0,0.29997,-0.000258516,0
0.7,2.4,0,0.299969,-0.000235362,0
0.7,2.5,0,0.299969,-0.0002309,0
0.7,2.6,0,0.299969,-0.000245577,0
0.7,2.7,0,0.299968,-0.000241079,0
0.7,2.8,0,0.299967,-0.00019878,0
0.7,2.9,0,0.299969,-0.000231497,0
0.7,3,0,0.299968,-0.000226235,0
0.7,3.1,0,0.299966,-0.000205827,0
0.7,3.2,0,0.299966,-0.000200742,0
0.7,3.3,0,0.299966,-0.000210378,0
0.7,3.4,0,0.299966,-0.000204433,0
0.7,3.5,0,0.299963,-0.000169877,0
0.7,3.6,0,0.299966,-0.000193563,0
0.7,3.7,0,0.299965,-0.000187011,0
0.7,3.8,0,0.299963,-0.000169395,0
0.7,3.9,0,0.299963,-0.000163777,0
0.7,4,0,0.299964,-0.000168769,0
0.7,4.1,0,0.299963,-0.000161686,0
0.7,4.2,0,0.29996,-0.000134715,0
0.7,4.3,0,0.299963,-0.000149766,0
0.7,4.4,0,0.299962,-0.000142227,0
0.7,4.5,0,0.29996,-0.000127534,0
0.7,4.6,0,0.29996,-0.000121492,0
0.7,4.7,0,0.299961,-0.000122144,0
0.7,4.8,0,0.299961,-0.000114222,0
0.7,4.9,0,0.299957,-9.48406e-05,0
0.7,5,0,0.29996,-0.000101501,0
0.7,5.1,0,0.29996,-9.32728e-05,0
0.7,5.2,0,0.299958,-8.17024e-05,0
0.7,5.3,0,0.299958,-7.53475e-05,0
0.7,5.4,0,0.299959,-7.19057e-05,0
0.7,5.5,0,0.299959,-6.34476e-05,0
0.7,5.6,0,0.299955,-5.18067e-05,0
0.7,5.7,0,0.299958,-5.01907e-05,0
0.7,5.8,0,0.299958,-4.15809e-05,0
0.7,5.9,0,0.299957,-3.3399e-05,0
0.7,6,0,0.299957,-2.68621e-05,0
0.7,6.1,0,0.299958,-1.9531e-05,0
0.7,6.2,0,0.299958,-1.08542e-05,0