x,y,z,U_0,U_1,U_2
0,0,0,3.00104,-0.00345838,0
0,0.1,0,3.00062,-0.00207503,0
0,0.2,0,3.00021,-0.000691675,0
0,0.3,0,3,0,0
0,0.4,0,3,0,0
0,0.5,0,3,0,0
0,0.6,0,3,0,0
0,0.7,0,3,0,0
0,0.8,0,3,0,0
0,0.9,0,3,0,0
0,1,0,3,0,0
0,1.1,0,3,0,0
0,1.2,0,3,0,0
0,1.3,0,3,0,0
0,1.4,0,3,0,0
0,1.5,0,3,0,0
0,1.6,0,3,0,0
0,1.7,0,3,0,0
0,1.8,0,3,0,0
0,1.9,0,3,0,0
0,2,0,3,0,0
0,2.1,0,3,0,0
0,2.2,0,3,0,0
0,2.3,0,3,0,0
0,2.4,0,3,0,0
0,2.5,0,3,0,0
0,2.6,0,3,0,0
0,2.7,0,3,0,0
0,2.8,0,3,0,0
0,2.9,0,3,0,0
0,3,0,3,0,0
0,3.1,0,3,0,0
0,3.2,0,3,0,0
0,3.3,0,3,0,0
0,3.4,0,3,0,0
0,3.5,0,3,4.93212e-18,0
0,3.6,0,3,0,0
0,3.7,0,3,0,0
0,3.8,0,3,0,0
0,3.9,0,3,0,0
0,4,0,3,3.86478e-18,0
0,4.1,0,3,0,0
0,4.2,0,3,0,0
0,4.3,0,3,0,0
0,4.4,0,3,0,0
0,4.5,0,3,0,0
0,4.6,0,3,0,0
0,4.7,0,3,0,0
0,4.8,0,3,0,0
0,4.9,0,3,0,0
0,5,0,3,0,0
0,5.1,0,3,1.53805e-18,0
0,5.2,0,3,0,0
0,5.3,0,3,1.07194e-18,0
0,5.4,0,3,8.07003e-19,0
0,5.5,0,3,0,0
0,5.6,0,3,2.54348e-19,0
0,5.7,0,3,-2.45304e-20,0
0,5.8,0,3,-2.92022e-19,0
0,5.9,0,3,-5.42949e-19,0
0,6,0,3,0,0
0,6.1,0,3,0,0
0,6.2,0,3,0,0
0,6.3,0,3,0,0
0,6.4,0,3,0,0
0,6.5,0,3,0,0
0,6.6,0,3,0,0
0,6.7,0,3,0,0
0,6.8,0,3,0,0
0,6.9,0,3,0,0
0,7,0,3,0,0
0,7.1,0,3,0,0
0,7.2,0,3,0,0
0,7.3,0,3,0,0
0,7.4,0,3,0,0
0,7.5,0,3,0,0
0,7.6,0,3,0,0
0,7.7,0,3,0,0
0,7.8,0,3,0,0
0,7.9,0,3,0,0
0,8,0,3,0,0
0,8.1,0,3,0,0
0,8.2,0,3,0,0
0,8.3,0,3,0,0
0,8.4,0,3,0,0
0,8.5,0,3,0,0
0,8.6,0,3,0,0
0,8.7,0,3,0,0
0,8.8,0,3,0,0
0,8.9,0,3,0,0
0,9,0,3,0,0
0,9.1,0,3,0,0
0,9.2,0,3,0,0
0,9.3,0,3,0,0
0,9.4,0,3,0,0
0,9.5,0,3,0,0
0,9.6,0,3,0,0
0,9.7,0,3,0,0
0,9.8,0,3,0,0
0,9.9,0,3,0,0
0,10,0,3,0,0
0,10.1,0,3,0,0
0,10.2,0,3,0,0
0,10.3,0,3,0,0
0,10.4,0,3,0,0
0,10.5,0,3,0,0
0,10.6,0,3,0,0
0,10.7,0,3,0,0
0,10.8,0,3,0,0
0,10.9,0,3,0,0
0,11,0,3,0,0
0,11.1,0,3,0,0
0,11.2,0,3,0,0
0,11.3,0,3,0,0
0,11.4,0,3,0,0
0,11.5,0,3,0,0
0,11.6,0,3,0,0
0,11.7,0,3,0,0
0,11.8,0,3,0,0
0,11.9,0,3,0,0
0,12,0,3,0,0
0,12.1,0,3,0,0
0,12.2,0,3,0,0
0,12.3,0,3,0,0
0,12.4,0,3.00006,0.000253498,0
0,12.5,0,3.00023,0.000977778,0
0,12.6,0,3.0004,0.00170206,0
0,12.7,0,3.00057,0.00242634,0
0.1,0,0,3.00083,-0.0103596,0
0.1,0.1,0,3.00153,-0.00509438,0
0.1,0.2,0,3.00081,-0.00509563,0
0.1,0.3,0,3.001,-0.0052493,0
0.1,0.4,0,3.00147,-0.00422699,0
0.1,0.5,0,2.99957,-0.00725429,0
0.1,0.6,0,3.00017,-0.00296073,0
0.1,0.7,0,3.00003,-0.00423469,0
0.1,0.8,0,2.99962,-0.00365076,0
0.1,0.9,0,2.99958,-0.00212654,0
0.1,1,0,3.00011,-0.00728022,0
0.1,1.1,0,3.00156,-0.00231481,0
0.1,1.2,0,3.00104,-0.00371059,0
0.1,1.3,0,3.00182,-0.00337357,0
0.1,1.4,0,3.00267,-0.00183336,0
0.1,1.5,0,2.99916,-0.00653069,0
0.1,1.6,0,3.0018,0.00062192,0
0.1,1.7,0,3.00095,-0.00149121,0
0.1,1.8,0,3.00078,0.000210263,0
0.1,1.9,0,3.00156,0.00305259,0
0.1,2,0,2.99901,-0.00648458,0
0.1,2.1,0,3.00289,0.00567462,0
0.1,2.2,0,3.00163,0.00205404,0
0.1,2.3,0,3.00236,0.00412749,0
0.1,2.4,0,3.00393,0.00863669,0
0.1,2.5,0,2.99833,-0.00623834,0
0.1,2.6,0,3.00348,0.0131318,0
0.1,2.7,0,3.00201,0.00727753,0
0.1,2.8,0,3.00268,0.00967653,0
0.1,2.9,0,3.00445,0.0165589,0
0.1,3,0,2.999,-0.00654634,0
0.1,3.1,0,3.00658,0.0184634,0
0.1,3.2,0,3.00444,0.0109604,0
0.1,3.3,0,3.0084,0.0117999,0
0.1,3.4,0,3.01224,0.0196626,0
0.1,3.5,0,3.00012,-0.00634636,0
0.1,3.6,0,3.02175,0.0174467,0
0.1,3.7,0,3.01534,0.0104774,0
0.1,3.8,0,3.02585,0.00805876,0
0.1,3.9,0,3.03676,0.0139916,0
0.1,4,0,2.99977,-0.00497298,0
0.1,4.1,0,3.05414,0.0105821,0
0.1,4.2,0,3.03746,0.00618215,0
0.1,4.3,0,3.04407,0.00482647,0
0.1,4.4,0,3.06358,0.00864543,0
0.1,4.5,0,2.99759,-0.00333099,0
0.1,4.6,0,3.05618,0.00835966,0
0.1,4.7,0,3.03879,0.00499378,0
0.1,4.8,0,3.02293,0.00449178,0
0.1,4.9,0,3.03353,0.00764251,0
0.1,5,0,2.99973,-0.00240614,0
0.1,5.1,0,3.00061,-0.00197907,0
0.1,5.2,0,3.00091,-0.00169612,0
0.1,5.3,0,3.00106,-0.00137931,0
0.1,5.4,0,3.0011,-0.00103841,0
0.1,5.5,0,3.00104,-0.000686484,0
0.1,5.6,0,3.00083,-0.000327281,0
0.1,5.7,0,3.00045,3.15643e-05,0
0.1,5.8,0,2.99985,0.000375757,0
0.1,5.9,0,2.99903,0.000698636,0
0.1,6,0,2.99744,0.00139987,0
0.1,6.1,0,3.06461,-0.0136856,0
0.1,6.2,0,3.06461,-0.0136856,0
0.1,6.3,0,3.02183,-0.00362064,0
0.1,6.4,0,3.01691,-0.00450202,0
0.1,6.5,0,3.02623,-0.00766017,0
0.1,6.6,0,3.01877,-0.00481325,0
0.1,6.7,0,3.00228,-0.00177141,0
0.1,6.8,0,3.0107,-0.0120845,0
0.1,6.9,0,3.0107,-0.0120845,0
0.1,7,0,2.99947,0.00276263,0
0.1,7.1,0,3.00394,-0.00852435,0
0.1,7.2,0,3.00398,-0.00861537,0
0.1,7.3,0,3.00107,-0.00146919,0
0.1,7.4,0,3.00051,-0.00273333,0
0.1,7.5,0,3.00142,-0.00653971,0
0.1,7.6,0,3.00093,-0.00432567,0
0.1,7.7,0,2.99953,0.00176295,0
0.1,7.8,0,3.00054,-0.00368976,0
0.1,7.9,0,3.00054,-0.00368976,0
0.1,8,0,2.99947,0.00301359,0
0.1,8.1,0,3.00018,-0.000973296,0
0.1,8.2,0,3.00023,-0.00127609,0
0.1,8.3,0,2.99985,0.00149279,0
0.1,8.4,0,2.99984,0.00197055,0
0.1,8.5,0,3.00008,0.000505472,0
0.1,8.6,0,3.00001,0.00110477,0
0.1,8.7,0,2.99973,0.00364172,0
0.1,8.8,0,3.00003,0.00169581,0
0.1,8.9,0,3.00003,0.00169581,0
0.1,9,0,2.99982,0.00397546,0
0.1,9.1,0,3.00003,0.00279643,0
0.1,9.2,0,3.00006,0.00259441,0
0.1,9.3,0,2.99998,0.00360183,0
0.1,9.4,0,2.99974,0.00362395,0
0.1,9.5,0,2.9996,0.00263674,0
0.1,9.6,0,2.99962,0.002877,0
0.1,9.7,0,2.99988,0.00454348,0
0.1,9.8,0,3.0003,0.00325423,0
0.1,9.9,0,3.0003,0.00325423,0
0.1,10,0,3.00009,0.00475549,0
0.1,10.1,0,3.00037,0.0040242,0
0.1,10.2,0,3.00043,0.00380266,0
0.1,10.3,0,3.00034,0.00455262,0
0.1,10.4,0,2.99952,0.00380234,0
0.1,10.5,0,2.99874,0.00181501,0
0.1,10.6,0,2.9988,0.00202249,0
0.1,10.7,0,2.99976,0.00511236,0
0.1,10.8,0,3.00002,0.00358715,0
0.1,10.9,0,3.00002,0.00358715,0
0.1,11,0,2.99982,0.00497759,0
0.1,11.1,0,3.0009,0.00431568,0
0.1,11.2,0,3.00122,0.0039971,0
0.1,11.3,0,3.00091,0.00476915,0
0.1,11.4,0,3.00023,0.00488575,0
0.1,11.5,0,3.00003,0.00324157,0
0.1,11.6,0,3.00004,0.00326376,0
0.1,11.7,0,3.00036,0.00596974,0
0.1,11.8,0,2.99898,0.00150598,0
0.1,11.9,0,2.99898,0.00150598,0
0.1,12,0,2.99965,0.00456949,0
0.1,12.1,0,2.99993,0.00333067,0
0.1,12.2,0,2.99993,0.00236183,0
0.1,12.3,0,2.99988,0.00354133,0
0.1,12.4,0,3.0001,0.00484606,0
0.1,12.5,0,3.00072,0.00306389,0
0.1,12.6,0,3.00089,0.00378817,0
0.1,12.7,0,3.00028,0.00805114,0
0.2,0,0,3.00062,-0.0172608,0
0.2,0.1,0,3.00177,-0.0104429,0
0.2,0.2,0,3.00072,-0.0127303,0
0.2,0.3,0,3.0009,-0.012884,0
0.2,0.4,0,3.0018,-0.0102704,0
0.2,0.5,0,2.99913,-0.0145086,0
0.2,0.6,0,2.99997,-0.0084976,0
0.2,0.7,0,2.99974,-0.011442,0
0.2,0.8,0,2.99933,-0.010858,0
0.2,0.9,0,2.99947,-0.00734529,0
0.2,1,0,3.00022,-0.0145604,0
0.2,1.1,0,3.00225,-0.00760887,0
0.2,1.2,0,3.00085,-0.010678,0
0.2,1.3,0,3.00163,-0.010341,0
0.2,1.4,0,3.00324,-0.00648512,0
0.2,1.5,0,2.99832,-0.0130614,0
0.2,1.6,0,3.00202,-0.00304773,0
0.2,1.7,0,2.99991,-0.00791305,0
0.2,1.8,0,2.99974,-0.00621158,0
0.2,1.9,0,3.00159,0.000382886,0
0.2,2,0,2.99802,-0.0129692,0
0.2,2.1,0,3.00345,0.00405372,0
0.2,2.2,0,3.00034,-0.00433992,0
0.2,2.3,0,3.00107,-0.00226648,0
0.2,2.4,0,3.0045,0.00834836,0
0.2,2.5,0,2.99666,-0.0124767,0
0.2,2.6,0,3.00387,0.0146415,0
0.2,2.7,0,3.00058,0.000895157,0
0.2,2.8,0,3.00125,0.00329416,0
0.2,2.9,0,3.00563,0.0192547,0
0.2,3,0,2.99801,-0.0130927,0
0.2,3.1,0,3.00861,0.0219209,0
0.2,3.2,0,3.00388,0.00441408,0
0.2,3.3,0,3.00784,0.00525356,0
0.2,3.4,0,3.01721,0.0237199,0
0.2,3.5,0,3.00024,-0.0126927,0
0.2,3.6,0,3.03053,0.0206176,0
0.2,3.7,0,3.01572,0.00469282,0
0.2,3.8,0,3.02623,0.00227422,0
0.2,3.9,0,3.05132,0.0166045,0
0.2,4,0,2.99953,-0.00994596,0
0.2,4.1,0,3.07565,0.0118312,0
0.2,4.2,0,3.03601,0.00209773,0
0.2,4.3,0,3.04262,0.000742052,0
0.2,4.4,0,3.08756,0.010105,0
0.2,4.5,0,2.99519,-0.00666197,0
0.2,4.6,0,3.07721,0.00970493,0
0.2,4.7,0,3.03699,0.00213384,0
0.2,4.8,0,3.02113,0.00163184,0
0.2,4.9,0,3.04678,0.00925584,0
0.2,5,0,2.99947,-0.00481228,0
0.2,5.1,0,3.00121,-0.00395814,0
0.2,5.2,0,3.00182,-0.00339224,0
0.2,5.3,0,3.00212,-0.00275861,0
0.2,5.4,0,3.00221,-0.00207681,0
0.2,5.5,0,3.00208,-0.00137297,0
0.2,5.6,0,3.00167,-0.000654561,0
0.2,5.7,0,3.0009,6.31286e-05,0
0.2,5.8,0,2.99969,0.000751514,0
0.2,5.9,0,2.99805,0.00139727,0
0.2,6,0,2.99488,0.00279974,0
0.2,6.1,0,3.06506,-0.0129612,0
0.2,6.2,0,3.08946,-0.0180167,0
0.2,6.3,0,3.01899,-0.00143913,0
0.2,6.4,0,3.01407,-0.0023205,0
0.2,6.5,0,3.03822,-0.0102304,0
0.2,6.6,0,3.01721,-0.00187653,0
0.2,6.7,0,3.00073,0.0011653,0
0.2,6.8,0,3.01353,-0.0145285,0
0.2,6.9,0,3.0107,-0.0100233,0
0.2,7,0,2.99832,0.0063436,0
0.2,7.1,0,3.00279,-0.00494338,0
0.2,7.2,0,3.00528,-0.0106343,0
0.2,7.3,0,3.00006,0.00219221,0
0.2,7.4,0,2.9995,0.000928072,0
0.2,7.5,0,3.00166,-0.00797385,0
0.2,7.6,0,3.0001,-0.000634994,0
0.2,7.7,0,2.99869,0.00545363,0
0.2,7.8,0,3.00013,-0.00225727,0
0.2,7.9,0,3.00006,-0.00101134,0
0.2,8,0,2.9988,0.00680924,0
0.2,8.1,0,2.99951,0.00282235,0
0.2,8.2,0,3.0001,5.84161e-05,0
0.2,8.3,0,2.99936,0.00544248,0
0.2,8.4,0,2.99935,0.00592024,0
0.2,8.5,0,2.99989,0.00275765,0
0.2,8.6,0,2.99965,0.0052605,0
0.2,8.7,0,2.99937,0.00779745,0
0.2,8.8,0,2.99977,0.00522738,0
0.2,8.9,0,2.99986,0.00555023,0
0.2,9,0,2.99961,0.00837457,0
0.2,9.1,0,2.99982,0.00719554,0
0.2,9.2,0,3.00003,0.006223,0
0.2,9.3,0,2.99987,0.00830553,0
0.2,9.4,0,2.99963,0.00832765,0
0.2,9.5,0,2.99934,0.0063123,0
0.2,9.6,0,2.99943,0.00766008,0
0.2,9.7,0,2.99969,0.00932656,0
0.2,9.8,0,3.0002,0.00772926,0
0.2,9.9,0,3.0004,0.00792474,0
0.2,10,0,3.00013,0.00990755,0
0.2,10.1,0,3.00041,0.00917625,0
0.2,10.2,0,3.00074,0.00843746,0
0.2,10.3,0,3.00055,0.0101184,0
0.2,10.4,0,2.99973,0.00936807,0
0.2,10.5,0,2.9982,0.00550127,0
0.2,10.6,0,2.99853,0.0073128,0
0.2,10.7,0,2.99949,0.0104027,0
0.2,10.8,0,2.9998,0.00862325,0
0.2,10.9,0,2.99986,0.00848047,0
0.2,11,0,2.99957,0.0104468,0
0.2,11.1,0,3.00065,0.00978485,0
0.2,11.2,0,3.00191,0.00892627,0
0.2,11.3,0,3.00128,0.0108353,0
0.2,11.4,0,3.00061,0.0109519,0
0.2,11.5,0,3.00025,0.00800084,0
0.2,11.6,0,3.00047,0.00947953,0
0.2,11.7,0,3.00079,0.0121855,0
0.2,11.8,0,2.99927,0.00726484,0
0.2,11.9,0,2.99858,0.00587568,0
0.2,12,0,2.9996,0.0105375,0
0.2,12.1,0,2.99989,0.00929872,0
0.2,12.2,0,2.99982,0.00654594,0
0.2,12.3,0,2.99967,0.00957879,0
0.2,12.4,0,2.99989,0.0108835,0
0.2,12.5,0,3.00079,0.00747953,0
0.2,12.6,0,3.00063,0.00925452,0
0.2,12.7,0,2.99998,0.0136759,0
0.3,0,0,3.00041,-0.024162,0
0.3,0.1,0,3.00066,-0.0214979,0
0.3,0.2,0,3.00039,-0.0211414,0
0.3,0.3,0,3.00042,-0.0211241,0
0.3,0.4,0,2.99996,-0.0205916,0
0.3,0.5,0,2.9987,-0.0217629,0
0.3,0.6,0,2.99913,-0.0195738,0
0.3,0.7,0,2.99933,-0.019508,0
0.3,0.8,0,2.99915,-0.019096,0
0.3,0.9,0,2.9997,-0.0191982,0
0.3,1,0,3.00033,-0.0218407,0
0.3,1.1,0,3.00079,-0.0190764,0
0.3,1.2,0,3.00038,-0.0186385,0
0.3,1.3,0,3.00074,-0.0182478,0
0.3,1.4,0,2.99982,-0.0176365,0
0.3,1.5,0,2.99748,-0.0195921,0
0.3,1.6,0,2.99862,-0.0159178,0
0.3,1.7,0,2.99833,-0.0157654,0
0.3,1.8,0,2.99819,-0.0145409,0
0.3,1.9,0,2.99826,-0.0146287,0
0.3,2,0,2.99703,-0.0194537,0
0.3,2.1,0,2.9987,-0.0132926,0
0.3,2.2,0,2.99827,-0.0131657,0
0.3,2.3,0,2.99866,-0.0116354,0
0.3,2.4,0,2.99813,-0.0114176,0
0.3,2.5,0,2.995,-0.018715,0
0.3,2.6,0,2.99778,-0.00915959,0
0.3,2.7,0,2.99812,-0.00936124,0
0.3,2.8,0,2.99873,-0.00770926,0
0.3,2.9,0,2.99934,-0.00793881,0
0.3,3,0,2.99701,-0.019639,0
0.3,3.1,0,3.00119,-0.00713419,0
0.3,3.2,0,3.0018,-0.00713424,0
0.3,3.3,0,3.00486,-0.00649461,0
0.3,3.4,0,3.00581,-0.0062146,0
0.3,3.5,0,3.00037,-0.0190391,0
0.3,3.6,0,3.01142,-0.00663689,0
0.3,3.7,0,3.01178,-0.00585033,0
0.3,3.8,0,3.01921,-0.00730323,0
0.3,3.9,0,3.01835,-0.00616705,0
0.3,4,0,2.9993,-0.0149189,0
0.3,4.1,0,3.02539,-0.00634169,0
0.3,4.2,0,3.02369,-0.00509771,0
0.3,4.3,0,3.02797,-0.00573765,0
0.3,4.4,0,3.02663,-0.00468284,0
0.3,4.5,0,2.99278,-0.00999296,0
0.3,4.6,0,3.02262,-0.00372369,0
0.3,4.7,0,3.02347,-0.00306422,0
0.3,4.8,0,3.01257,-0.00323782,0
0.3,4.9,0,3.01472,-0.00260251,0
0.3,5,0,2.9992,-0.00721842,0
0.3,5.1,0,3.00182,-0.00593721,0
0.3,5.2,0,3.00273,-0.00508835,0
0.3,5.3,0,3.00318,-0.00413792,0
0.3,5.4,0,3.00331,-0.00311522,0
0.3,5.5,0,3.00311,-0.00205945,0
0.3,5.6,0,3.0025,-0.000981842,0
0.3,5.7,0,3.00135,9.46929e-05,0
0.3,5.8,0,2.99954,0.00112727,0
0.3,5.9,0,2.99708,0.00209591,0
0.3,6,0,2.99232,0.00419961,0
0.3,6.1,0,3.02575,-0.0029173,0
0.3,6.2,0,3.02547,-0.00210066,0
0.3,6.3,0,3.01616,0.000742389,0
0.3,6.4,0,3.00626,0.00175896,0
0.3,6.5,0,3.00759,0.00254797,0
0.3,6.6,0,3.00893,0.00333699,0
0.3,6.7,0,2.99917,0.00410201,0
0.3,6.8,0,3.00181,0.00185246,0
0.3,6.9,0,3.00223,0.00252557,0
0.3,7,0,2.99717,0.00992457,0
0.3,7.1,0,2.99918,0.00468436,0
0.3,7.2,0,2.99932,0.00476839,0
0.3,7.3,0,2.99904,0.00585361,0
0.3,7.4,0,2.9982,0.00588736,0
0.3,7.5,0,2.99839,0.00591795,0
0.3,7.6,0,2.99858,0.00594854,0
0.3,7.7,0,2.99786,0.00914431,0
0.3,7.8,0,2.99833,0.00746642,0
0.3,7.9,0,2.99851,0.00757609,0
0.3,8,0,2.99814,0.0106049,0
0.3,8.1,0,2.99854,0.0089189,0
0.3,8.2,0,2.99872,0.00907984,0
0.3,8.3,0,2.99887,0.00939217,0
0.3,8.4,0,2.99883,0.0101423,0
0.3,8.5,0,2.99897,0.0103576,0
0.3,8.6,0,2.99911,0.0105729,0
0.3,8.7,0,2.99902,0.0119532,0
0.3,8.8,0,2.99923,0.0114207,0
0.3,8.9,0,2.99938,0.011675,0
0.3,9,0,2.9994,0.0127737,0
0.3,9.1,0,2.99954,0.0124132,0
0.3,9.2,0,2.99964,0.0127314,0
0.3,9.3,0,2.99975,0.0130496,0
0.3,9.4,0,2.99952,0.0130794,0
0.3,9.5,0,2.99943,0.0131623,0
0.3,9.6,0,2.99935,0.0132453,0
0.3,9.7,0,2.9995,0.0141096,0
0.3,9.8,0,2.99983,0.0138436,0
0.3,9.9,0,3.00007,0.0142291,0
0.3,10,0,3.00017,0.0150596,0
0.3,10.1,0,3.00037,0.0149204,0
0.3,10.2,0,3.00055,0.0153526,0
0.3,10.3,0,3.00073,0.0157848,0
0.3,10.4,0,2.99994,0.0149338,0
0.3,10.5,0,2.99941,0.0145423,0
0.3,10.6,0,2.99891,0.0142545,0
0.3,10.7,0,2.99922,0.015693,0
0.3,10.8,0,2.99935,0.0151355,0
0.3,10.9,0,2.99937,0.0153223,0
0.3,11,0,2.99932,0.0159159,0
0.3,11.1,0,3.00016,0.0158408,0
0.3,11.2,0,3.00081,0.0164645,0
0.3,11.3,0,3.00147,0.0170883,0
0.3,11.4,0,3.00098,0.0170181,0
0.3,11.5,0,3.00101,0.0169303,0
0.3,11.6,0,3.00107,0.0170865,0
0.3,11.7,0,3.00123,0.0184013,0
0.3,11.8,0,3.00029,0.0161445,0
0.3,11.9,0,2.99979,0.0158857,0
0.3,12,0,2.99956,0.0165056,0
0.3,12.1,0,2.99981,0.0161171,0
0.3,12.2,0,2.99963,0.0161896,0
0.3,12.3,0,2.99946,0.0162621,0
0.3,12.4,0,2.99967,0.016921,0
0.3,12.5,0,2.99987,0.0167388,0
0.3,12.6,0,2.99995,0.0170319,0
0.3,12.7,0,2.99969,0.0193007,0
0.4,0,0,2.99984,-0.0324853,0
0.4,0.1,0,2.99963,-0.0332691,0
0.4,0.2,0,2.99937,-0.0329126,0
0.4,0.3,0,2.99838,-0.0316573,0
0.4,0.4,0,2.99791,-0.0311247,0
0.4,0.5,0,2.99837,-0.0304911,0
0.4,0.6,0,2.9978,-0.0308701,0
0.4,0.7,0,2.99801,-0.0308043,0
0.4,0.8,0,2.99958,-0.0315415,0
0.4,0.9,0,3.00013,-0.0316437,0
0.4,1,0,3.00003,-0.0304385,0
0.4,1.1,0,2.99966,-0.0313104,0
0.4,1.2,0,2.99925,-0.0308725,0
0.4,1.3,0,2.99689,-0.0297352,0
0.4,1.4,0,2.99598,-0.0291239,0
0.4,1.5,0,2.99679,-0.0276723,0
0.4,1.6,0,2.99462,-0.0293417,0
0.4,1.7,0,2.99434,-0.0291893,0
0.4,1.8,0,2.99465,-0.0304788,0
0.4,1.9,0,2.99472,-0.0305666,0
0.4,2,0,2.99644,-0.0273312,0
0.4,2.1,0,2.99384,-0.0320201,0
0.4,2.2,0,2.99341,-0.0318933,0
0.4,2.3,0,2.99154,-0.032795,0
0.4,2.4,0,2.99101,-0.0325772,0
0.4,2.5,0,2.99419,-0.0261158,0
0.4,2.6,0,2.99082,-0.0347218,0
0.4,2.7,0,2.99116,-0.0349234,0
0.4,2.8,0,2.99205,-0.0373672,0
0.4,2.9,0,2.99266,-0.0375968,0
0.4,3,0,2.9965,-0.0263527,0
0.4,3.1,0,2.99287,-0.0386838,0
0.4,3.2,0,2.99348,-0.0386839,0
0.4,3.3,0,2.99212,-0.0392564,0
0.4,3.4,0,2.99308,-0.0389764,0
0.4,3.5,0,3.0002,-0.0245403,0
0.4,3.6,0,2.99064,-0.0363699,0
0.4,3.7,0,2.99101,-0.0355833,0
0.4,3.8,0,2.98299,-0.0321467,0
0.4,3.9,0,2.98213,-0.0310105,0
0.4,4,0,2.99941,-0.0189409,0
0.4,4.1,0,2.96978,-0.0259638,0
0.4,4.2,0,2.96807,-0.0247199,0
0.4,4.3,0,2.96007,-0.0216807,0
0.4,4.4,0,2.95873,-0.0206259,0
0.4,4.5,0,2.99363,-0.0129164,0
0.4,4.6,0,2.96114,-0.0181096,0
0.4,4.7,0,2.96199,-0.0174502,0
0.4,4.8,0,2.97712,-0.0162938,0
0.4,4.9,0,2.97927,-0.0156585,0
0.4,5,0,3.00007,-0.00919815,0
0.4,5.1,0,3.00245,-0.00764905,0
0.4,5.2,0,3.00326,-0.00659661,0
0.4,5.3,0,3.00366,-0.00544367,0
0.4,5.4,0,3.00374,-0.00421571,0
0.4,5.5,0,3.0035,-0.00295634,0
0.4,5.6,0,3.00286,-0.00167735,0
0.4,5.7,0,3.00169,-0.000403011,0
0.4,5.8,0,2.99988,0.000819636,0
0.4,5.9,0,2.99746,0.0019674,0
0.4,6,0,2.99275,0.00439293,0
0.4,6.1,0,2.95366,0.0147058,0
0.4,6.2,0,2.95338,0.0155224,0
0.4,6.3,0,2.96351,0.0138577,0
0.4,6.4,0,2.97617,0.0142077,0
0.4,6.5,0,2.9775,0.0149967,0
0.4,6.6,0,2.97884,0.0157857,0
0.4,6.7,0,2.991,0.0166304,0
0.4,6.8,0,2.98874,0.0208952,0
0.4,6.9,0,2.98916,0.0215683,0
0.4,7,0,2.99564,0.0139183,0
0.4,7.1,0,2.99297,0.0206653,0
0.4,7.2,0,2.99311,0.0207494,0
0.4,7.3,0,2.99378,0.0196726,0
0.4,7.4,0,2.99494,0.0197071,0
0.4,7.5,0,2.99513,0.0197377,0
0.4,7.6,0,2.99532,0.0197683,0
0.4,7.7,0,2.99654,0.0165732,0
0.4,7.8,0,2.99629,0.0186389,0
0.4,7.9,0,2.99647,0.0187486,0
0.4,8,0,2.99729,0.0159686,0
0.4,8.1,0,2.99716,0.0178949,0
0.4,8.2,0,2.99734,0.0180558,0
0.4,8.3,0,2.99755,0.0180873,0
0.4,8.4,0,2.99794,0.0177357,0
0.4,8.5,0,2.99808,0.017951,0
0.4,8.6,0,2.99822,0.0181663,0
0.4,8.7,0,2.99851,0.0175385,0
0.4,8.8,0,2.9986,0.0182489,0
0.4,8.9,0,2.99874,0.0185032,0
0.4,9,0,2.99894,0.0183721,0
0.4,9.1,0,2.99922,0.0188912,0
0.4,9.2,0,2.99933,0.0192094,0
0.4,9.3,0,2.99944,0.0195276,0
0.4,9.4,0,2.99973,0.0201851,0
0.4,9.5,0,2.99964,0.020268,0
0.4,9.6,0,2.99955,0.0203509,0
0.4,9.7,0,2.99907,0.0199962,0
0.4,9.8,0,2.99895,0.0199793,0
0.4,9.9,0,2.99919,0.0203648,0
0.4,10,0,2.99958,0.0210311,0
0.4,10.1,0,3.00067,0.022336,0
0.4,10.2,0,3.00085,0.0227682,0
0.4,10.3,0,3.00103,0.0232004,0
0.4,10.4,0,3.00122,0.0239969,0
0.4,10.5,0,3.00078,0.0237719,0
0.4,10.6,0,3.00028,0.0234842,0
0.4,10.7,0,2.99905,0.0223838,0
0.4,10.8,0,2.99815,0.0216649,0
0.4,10.9,0,2.99816,0.0218518,0
0.4,11,0,2.99851,0.0224204,0
0.4,11.1,0,2.99912,0.0236038,0
0.4,11.2,0,2.99977,0.0242275,0
0.4,11.3,0,3.00042,0.0248513,0
0.4,11.4,0,3.00199,0.0258607,0
0.4,11.5,0,3.00229,0.0261934,0
0.4,11.6,0,3.00236,0.0263496,0
0.4,11.7,0,3.00144,0.0260938,0
0.4,11.8,0,3.00174,0.026997,0
0.4,11.9,0,3.00123,0.0267381,0
0.4,12,0,3.00051,0.0261573,0
0.4,12.1,0,2.99929,0.025269,0
0.4,12.2,0,2.99911,0.0253416,0
0.4,12.3,0,2.99893,0.0254141,0
0.4,12.4,0,2.99896,0.0261379,0
0.4,12.5,0,2.99895,0.0265955,0
0.4,12.6,0,2.99904,0.0268886,0
0.4,12.7,0,2.99931,0.026397,0
0.5,0,0,2.9989,-0.0422307,0
0.5,0.1,0,2.99878,-0.0450668,0
0.5,0.2,0,2.99851,-0.043147,0
0.5,0.3,0,2.99728,-0.0415674,0
0.5,0.4,0,2.99601,-0.0415088,0
0.5,0.5,0,2.99813,-0.0406934,0
0.5,0.6,0,2.99619,-0.0418729,0
0.5,0.7,0,2.99778,-0.0413833,0
0.5,0.8,0,2.99982,-0.0424082,0
0.5,0.9,0,3.00061,-0.0439123,0
0.5,1,0,2.99933,-0.0403539,0
0.5,1.1,0,2.99904,-0.0435837,0
0.5,1.2,0,2.9981,-0.0409316,0
0.5,1.3,0,2.99507,-0.0395494,0
0.5,1.4,0,2.99233,-0.0402659,0
0.5,1.5,0,2.99626,-0.0373022,0
0.5,1.6,0,2.9907,-0.0422508,0
0.5,1.7,0,2.99358,-0.0396098,0
0.5,1.8,0,2.99405,-0.041428,0
0.5,1.9,0,2.99157,-0.0458189,0
0.5,2,0,2.99625,-0.0366015,0
0.5,2.1,0,2.98971,-0.049959,0
0.5,2.2,0,2.9921,-0.0426629,0
0.5,2.3,0,2.98967,-0.0439943,0
0.5,2.4,0,2.9844,-0.0523787,0
0.5,2.5,0,2.99425,-0.0346791,0
0.5,2.6,0,2.98422,-0.0584128,0
0.5,2.7,0,2.98993,-0.0464368,0
0.5,2.8,0,2.99099,-0.0497719,0
0.5,2.9,0,2.9868,-0.0651304,0
0.5,3,0,2.99647,-0.0332337,0
0.5,3.1,0,2.9852,-0.0677609,0
0.5,3.2,0,2.99167,-0.0496377,0
0.5,3.3,0,2.98945,-0.0504953,0
0.5,3.4,0,2.98152,-0.0691135,0
0.5,3.5,0,2.99974,-0.0291964,0
0.5,3.6,0,2.97234,-0.063735,0
0.5,3.7,0,2.98655,-0.04447,0
0.5,3.8,0,2.97543,-0.0400433,0
0.5,3.9,0,2.94994,-0.0537617,0
0.5,4,0,2.99987,-0.0220119,0
0.5,4.1,0,2.91996,-0.0439152,0
0.5,4.2,0,2.95882,-0.0308639,0
0.5,4.3,0,2.94822,-0.0270689,0
0.5,4.4,0,2.8976,-0.0351203,0
0.5,4.5,0,2.99773,-0.0154324,0
0.5,4.6,0,2.90525,-0.0311604,0
0.5,4.7,0,2.95261,-0.0218784,0
0.5,4.8,0,2.9732,-0.0205185,0
0.5,4.9,0,2.94771,-0.0276968,0
0.5,5,0,3.00206,-0.0107515,0
0.5,5.1,0,3.00309,-0.00909366,0
0.5,5.2,0,3.00342,-0.00791702,0
0.5,5.3,0,3.00355,-0.00667589,0
0.5,5.4,0,3.00349,-0.00537828,0
0.5,5.5,0,3.00324,-0.00406364,0
0.5,5.6,0,3.00274,-0.00274108,0
0.5,5.7,0,3.00192,-0.00142998,0
0.5,5.8,0,3.00072,-0.000171393,0
0.5,5.9,0,2.99919,0.00101175,0
0.5,6,0,2.99617,0.00337969,0
0.5,6.1,0,2.91481,0.0240392,0
0.5,6.2,0,2.88615,0.0318474,0
0.5,6.3,0,2.96689,0.0133646,0
0.5,6.4,0,2.97365,0.0159735,0
0.5,6.5,0,2.94795,0.0271158,0
0.5,6.6,0,2.97328,0.0187677,0
0.5,6.7,0,2.99267,0.0168623,0
0.5,6.8,0,2.97805,0.0376489,0
0.5,6.9,0,2.98187,0.0335609,0
0.5,7,0,2.99642,0.0148134,0
0.5,7.1,0,2.99028,0.0290515,0
0.5,7.2,0,2.98708,0.0363259,0
0.5,7.3,0,2.99388,0.0216361,0
0.5,7.4,0,2.99462,0.0231655,0
0.5,7.5,0,2.99189,0.0334853,0
0.5,7.6,0,2.99423,0.0258003,0
0.5,7.7,0,2.9963,0.0195511,0
0.5,7.8,0,2.9946,0.0282185,0
0.5,7.9,0,2.995,0.027355,0
0.5,8,0,2.99685,0.0198318,0
0.5,8.1,0,2.99631,0.0239891,0
0.5,8.2,0,2.99596,0.0269863,0
0.5,8.3,0,2.99705,0.0226809,0
0.5,8.4,0,2.99741,0.0225527,0
0.5,8.5,0,2.99723,0.0255379,0
0.5,8.6,0,2.99762,0.0241879,0
0.5,8.7,0,2.99803,0.0227686,0
0.5,8.8,0,2.99797,0.0246604,0
0.5,8.9,0,2.99811,0.0249655,0
0.5,9,0,2.99842,0.024047,0
0.5,9.1,0,2.99881,0.0248659,0
0.5,9.2,0,2.9991,0.025657,0
0.5,9.3,0,2.9991,0.0256918,0
0.5,9.4,0,2.9994,0.0263697,0
0.5,9.5,0,2.99996,0.0276293,0
0.5,9.6,0,2.99953,0.0273458,0
0.5,9.7,0,2.99883,0.0267587,0
0.5,9.8,0,2.99796,0.0259197,0
0.5,9.9,0,2.99802,0.0261929,0
0.5,10,0,2.9988,0.0275863,0
0.5,10.1,0,3.00041,0.0293483,0
0.5,10.2,0,3.00163,0.0306844,0
0.5,10.3,0,3.00082,0.0305587,0
0.5,10.4,0,3.00094,0.0313102,0
0.5,10.5,0,3.00232,0.0331902,0
0.5,10.6,0,3.00122,0.0322074,0
0.5,10.7,0,2.99951,0.0305603,0
0.5,10.8,0,2.9971,0.0283546,0
0.5,10.9,0,2.99656,0.0280485,0
0.5,11,0,2.99803,0.0299058,0
0.5,11.1,0,2.99849,0.0312316,0
0.5,11.2,0,2.99879,0.0322152,0
0.5,11.3,0,2.99932,0.0322707,0
0.5,11.4,0,3.00087,0.0331975,0
0.5,11.5,0,3.00398,0.035599,0
0.5,11.6,0,3.00309,0.0353006,0
0.5,11.7,0,3.00114,0.0345257,0
0.5,11.8,0,3.0025,0.0369782,0
0.5,11.9,0,3.00254,0.0375205,0
0.5,12,0,3.00077,0.0354585,0
0.5,12.1,0,2.99929,0.0344219,0
0.5,12.2,0,2.99824,0.0340018,0
0.5,12.3,0,2.99865,0.0342818,0
0.5,12.4,0,2.99881,0.0350509,0
0.5,12.5,0,2.99819,0.0366232,0
0.5,12.6,0,2.99837,0.0363115,0
0.5,12.7,0,2.99883,0.0349648,0
0.6,0,0,2.99796,-0.051976,0
0.6,0.1,0,2.99783,-0.0539165,0
0.6,0.2,0,2.99765,-0.0529336,0
0.6,0.3,0,2.99642,-0.051354,0
0.6,0.4,0,2.99626,-0.0514639,0
0.6,0.5,0,2.99789,-0.0508956,0
0.6,0.6,0,2.99672,-0.0518188,0
0.6,0.7,0,2.99793,-0.0518341,0
0.6,0.8,0,2.99998,-0.052859,0
0.6,0.9,0,2.99973,-0.052996,0
0.6,1,0,2.99862,-0.0502694,0
0.6,1.1,0,2.99807,-0.0522611,0
0.6,1.2,0,2.99682,-0.0503718,0
0.6,1.3,0,2.99379,-0.0489895,0
0.6,1.4,0,2.99288,-0.0491478,0
0.6,1.5,0,2.99572,-0.046932,0
0.6,1.6,0,2.99194,-0.0504542,0
0.6,1.7,0,2.9937,-0.0493171,0
0.6,1.8,0,2.99417,-0.0511353,0
0.6,1.9,0,2.99282,-0.0526053,0
0.6,2,0,2.99605,-0.0458717,0
0.6,2.1,0,2.99114,-0.0551631,0
0.6,2.2,0,2.9916,-0.0513994,0
0.6,2.3,0,2.98917,-0.0527308,0
0.6,2.4,0,2.9872,-0.0560165,0
0.6,2.5,0,2.99431,-0.0432424,0
0.6,2.6,0,2.98734,-0.0600469,0
0.6,2.7,0,2.99023,-0.0544856,0
0.6,2.8,0,2.99129,-0.0578207,0
0.6,2.9,0,2.98949,-0.0632996,0
0.6,3,0,2.99644,-0.0401147,0
0.6,3.1,0,2.98852,-0.0643472,0
0.6,3.2,0,2.99153,-0.0554442,0
0.6,3.3,0,2.98931,-0.0563018,0
0.6,3.4,0,2.98613,-0.0629049,0
0.6,3.5,0,2.99929,-0.0338525,0
0.6,3.6,0,2.9798,-0.0578903,0
0.6,3.7,0,2.98606,-0.0481062,0
0.6,3.8,0,2.97494,-0.0436795,0
0.6,3.9,0,2.96452,-0.048312,0
0.6,4,0,3.00032,-0.0250828,0
0.6,4.1,0,2.94349,-0.0402558,0
0.6,4.2,0,2.96111,-0.0336428,0
0.6,4.3,0,2.95051,-0.0298478,0
0.6,4.4,0,2.92996,-0.0324177,0
0.6,4.5,0,3.00182,-0.0179483,0
0.6,4.6,0,2.93594,-0.0287798,0
0.6,4.7,0,2.95653,-0.0238584,0
0.6,4.8,0,2.97712,-0.0224984,0
0.6,4.9,0,2.96539,-0.0247608,0
0.6,5,0,3.00406,-0.0123048,0
0.6,5.1,0,3.00373,-0.0105383,0
0.6,5.2,0,3.00358,-0.00923742,0
0.6,5.3,0,3.00343,-0.0079081,0
0.6,5.4,0,3.00324,-0.00654085,0
0.6,5.5,0,3.00298,-0.00517094,0
0.6,5.6,0,3.00263,-0.0038048,0
0.6,5.7,0,3.00215,-0.00245695,0
0.6,5.8,0,3.00156,-0.00116242,0
0.6,5.9,0,3.00092,5.61e-05,0
0.6,6,0,2.99959,0.00236645,0
0.6,6.1,0,2.92171,0.0221988,0
0.6,6.2,0,2.92138,0.0235588,0
0.6,6.3,0,2.97027,0.0128714,0
0.6,6.4,0,2.97703,0.0154803,0
0.6,6.5,0,2.96656,0.0208414,0
0.6,6.6,0,2.97495,0.0189996,0
0.6,6.7,0,2.99434,0.0170942,0
0.6,6.8,0,2.98455,0.0312223,0
0.6,6.9,0,2.98405,0.0325882,0
0.6,7,0,2.99719,0.0157084,0
0.6,7.1,0,2.99105,0.0299465,0
0.6,7.2,0,2.99045,0.0312523,0
0.6,7.3,0,2.99399,0.0235995,0
0.6,7.4,0,2.99473,0.025129,0
0.6,7.5,0,2.99343,0.030238,0
0.6,7.6,0,2.99399,0.0287782,0
0.6,7.7,0,2.99606,0.0225291,0
0.6,7.8,0,2.99485,0.0289611,0
0.6,7.9,0,2.99483,0.0299956,0
0.6,8,0,2.99642,0.0236949,0
0.6,8.1,0,2.99588,0.0278523,0
0.6,8.2,0,2.99594,0.0290353,0
0.6,8.3,0,2.99655,0.0272745,0
0.6,8.4,0,2.99692,0.0271463,0
0.6,8.5,0,2.99692,0.0290291,0
0.6,8.6,0,2.99714,0.029418,0
0.6,8.7,0,2.99755,0.0279988,0
0.6,8.8,0,2.99753,0.0296057,0
0.6,8.9,0,2.99763,0.0303246,0
0.6,9,0,2.9979,0.0297218,0
0.6,9.1,0,2.99829,0.0305408,0
0.6,9.2,0,2.9986,0.0313959,0
0.6,9.3,0,2.99876,0.0318496,0
0.6,9.4,0,2.99905,0.0325275,0
0.6,9.5,0,2.99934,0.0335282,0
0.6,9.6,0,2.99929,0.0341083,0
0.6,9.7,0,2.99859,0.0335211,0
0.6,9.8,0,2.99783,0.0328765,0
0.6,9.9,0,2.9975,0.0330454,0
0.6,10,0,2.99801,0.0341415,0
0.6,10.1,0,2.99962,0.0359034,0
0.6,10.2,0,3.0005,0.0372267,0
0.6,10.3,0,3.00054,0.037872,0
0.6,10.4,0,3.00066,0.0386234,0
0.6,10.5,0,3.00151,0.0398955,0
0.6,10.6,0,3.00168,0.0403839,0
0.6,10.7,0,2.99998,0.0387368,0
0.6,10.8,0,2.99777,0.0367698,0
0.6,10.9,0,2.99679,0.0362346,0
0.6,11,0,2.99754,0.0373912,0
0.6,11.1,0,2.998,0.038717,0
0.6,11.2,0,2.99803,0.0393264,0
0.6,11.3,0,2.9982,0.0396076,0
0.6,11.4,0,2.99975,0.0405344,0
0.6,11.5,0,3.00189,0.0424482,0
0.6,11.6,0,3.00278,0.0437325,0
0.6,11.7,0,3.00083,0.0429576,0
0.6,11.8,0,3.00207,0.0452427,0
0.6,11.9,0,3.00217,0.0458921,0
0.6,12,0,3.00104,0.0447597,0
0.6,12.1,0,2.99955,0.0437231,0
0.6,12.2,0,2.99875,0.0433221,0
0.6,12.3,0,2.99851,0.0431947,0
0.6,12.4,0,2.99866,0.0439638,0
0.6,12.5,0,2.99818,0.0448919,0
0.6,12.6,0,2.99793,0.0448244,0
0.6,12.7,0,2.99835,0.0435326,0
0.7,0,0,2.99702,-0.0617214,0
0.7,0.1,0,2.99687,-0.0614226,0
0.7,0.2,0,2.99673,-0.0611239,0
0.7,0.3,0,2.99685,-0.0609992,0
0.7,0.4,0,2.99725,-0.0610485,0
0.7,0.5,0,2.99765,-0.0610978,0
0.7,0.6,0,2.9984,-0.06138,0
0.7,0.7,0,2.99915,-0.0616622,0
0.7,0.8,0,2.99921,-0.0614796,0
0.7,0.9,0,2.99856,-0.0608322,0
0.7,1,0,2.99791,-0.0601848,0
0.7,1.1,0,2.9967,-0.0590814,0
0.7,1.2,0,2.99548,-0.057978,0
0.7,1.3,0,2.99494,-0.0572535,0
0.7,1.4,0,2.99506,-0.0569077,0
0.7,1.5,0,2.99519,-0.0565619,0
0.7,1.6,0,2.99583,-0.0565179,0
0.7,1.7,0,2.99646,-0.0564739,0
0.7,1.8,0,2.9966,-0.0561899,0
0.7,1.9,0,2.99623,-0.055666,0
0.7,2,0,2.99586,-0.055142,0
0.7,2.1,0,2.99501,-0.0542679,0
0.7,2.2,0,2.99415,-0.0533937,0
0.7,2.3,0,2.99386,-0.0527265,0
0.7,2.4,0,2.99411,-0.052266,0
0.7,2.5,0,2.99437,-0.0518056,0
0.7,2.6,0,2.99504,-0.051287,0
0.7,2.7,0,2.99571,-0.0507684,0
0.7,2.8,0,2.99612,-0.0498064,0
0.7,2.9,0,2.99626,-0.048401,0
0.7,3,0,2.99641,-0.0469957,0
0.7,3.1,0,2.99687,-0.0454914,0
0.7,3.2,0,2.99733,-0.0439871,0
0.7,3.3,0,2.99781,-0.0422897,0
0.7,3.4,0,2.99832,-0.0403992,0
0.7,3.5,0,2.99883,-0.0385086,0
0.7,3.6,0,2.99914,-0.0362943,0
0.7,3.7,0,2.99945,-0.0340799,0
0.7,3.8,0,2.99984,-0.0320089,0
0.7,3.9,0,3.00031,-0.0300813,0
0.7,4,0,3.00077,-0.0281538,0
0.7,4.1,0,3.00164,-0.0265009,0
0.7,4.2,0,3.0025,-0.024848,0
0.7,4.3,0,3.00353,-0.0233101,0
0.7,4.4,0,3.00473,-0.0218872,0
0.7,4.5,0,3.00592,-0.0204643,0
0.7,4.6,0,3.00652,-0.0190545,0
0.7,4.7,0,3.00711,-0.0176446,0
0.7,4.8,0,3.00714,-0.0163234,0
0.7,4.9,0,3.0066,-0.0150908,0
0.7,5,0,3.00606,-0.0138581,0
0.7,5.1,0,3.00437,-0.0119829,0
0.7,5.2,0,3.00374,-0.0105578,0
0.7,5.3,0,3.00332,-0.00914031,0
0.7,5.4,0,3.003,-0.00770342,0
0.7,5.5,0,3.00272,-0.00627824,0
0.7,5.6,0,3.00251,-0.00486853,0
0.7,5.7,0,3.00239,-0.00348393,0
0.7,5.8,0,3.0024,-0.00215345,0
0.7,5.9,0,3.00265,-0.00089955,0
0.7,6,0,3.00302,0.00135321,0
0.7,6.1,0,3.00269,0.00271324,0
0.7,6.2,0,3.00236,0.00407328,0
0.7,6.3,0,3.00203,0.00543331,0
0.7,6.4,0,3.00162,0.00691456,0
0.7,6.5,0,3.00116,0.00846107,0
0.7,6.6,0,3.00071,0.0100076,0
0.7,6.7,0,3.00024,0.0114999,0
0.7,6.8,0,2.99974,0.0128659,0
0.7,6.9,0,2.99923,0.0142318,0
0.7,7,0,2.99873,0.0155978,0
0.7,7.1,0,2.99817,0.0168064,0
0.7,7.2,0,2.99761,0.0180067,0
0.7,7.3,0,2.99705,0.0192069,0
0.7,7.4,0,2.99672,0.0203413,0
0.7,7.5,0,2.99654,0.0214318,0
0.7,7.6,0,2.99637,0.0225223,0
0.7,7.7,0,2.99623,0.0235988,0
0.7,7.8,0,2.99621,0.0246333,0
0.7,7.9,0,2.9962,0.0256678,0
0.7,8,0,2.99618,0.0267023,0
0.7,8.1,0,2.99627,0.0276374,0
0.7,8.2,0,2.99638,0.0285615,0
0.7,8.3,0,2.9965,0.0294856,0
0.7,8.4,0,2.99663,0.0303857,0
0.7,8.5,0,2.99679,0.031266,0
0.7,8.6,0,2.99695,0.0321463,0
0.7,8.7,0,2.9971,0.0329944,0
0.7,8.8,0,2.9972,0.0337133,0
0.7,8.9,0,2.9973,0.0344322,0
0.7,9,0,2.9974,0.0351511,0
0.7,9.1,0,2.99767,0.0359582,0
0.7,9.2,0,2.99797,0.0367809,0
0.7,9.3,0,2.99826,0.0376036,0
0.7,9.4,0,2.99842,0.0383724,0
0.7,9.5,0,2.99844,0.0390872,0
0.7,9.6,0,2.99846,0.0398019,0
0.7,9.7,0,2.99843,0.0404348,0
0.7,9.8,0,2.9981,0.0406037,0
0.7,9.9,0,2.99777,0.0407726,0
0.7,10,0,2.99744,0.0409415,0
0.7,10.1,0,2.99794,0.0419547,0
0.7,10.2,0,2.99865,0.043179,0
0.7,10.3,0,2.99935,0.0444032,0
0.7,10.4,0,2.99987,0.0453529,0
0.7,10.5,0,3.00015,0.045967,0
0.7,10.6,0,3.00043,0.0465812,0
0.7,10.7,0,3.00059,0.0470804,0
0.7,10.8,0,2.99961,0.0465451,0
0.7,10.9,0,2.99864,0.0460099,0
0.7,11,0,2.99766,0.0454747,0
0.7,11.1,0,2.99741,0.0456924,0
0.7,11.2,0,2.99741,0.0461609,0
0.7,11.3,0,2.9974,0.0466295,0
0.7,11.4,0,2.99776,0.0474308,0
0.7,11.5,0,2.99868,0.0487312,0
0.7,11.6,0,2.99959,0.0500315,0
0.7,11.7,0,3.00046,0.0512993,0
0.7,11.8,0,3.00056,0.0519487,0
0.7,11.9,0,3.00065,0.0525981,0
0.7,12,0,3.00074,0.0532475,0
0.7,12.1,0,3.00034,0.0532092,0
0.7,12.2,0,2.99974,0.0528761,0
0.7,12.3,0,2.99913,0.052543,0
0.7,12.4,0,2.99864,0.0523028,0
0.7,12.5,0,2.99838,0.0522353,0
0.7,12.6,0,2.99813,0.0521678,0
0.7,12.7,0,2.99787,0.0521004,0
0.8,0,0,2.99739,-0.0642564,0
0.8,0.1,0,2.99612,-0.0693555,0
0.8,0.2,0,2.99637,-0.0676335,0
0.8,0.3,0,2.99703,-0.0680182,0
0.8,0.4,0,2.99726,-0.0697091,0
0.8,0.5,0,2.99809,-0.0647618,0
0.8,0.6,0,3.00055,-0.0715326,0
0.8,0.7,0,3.00045,-0.0697503,0
0.8,0.8,0,2.99925,-0.068462,0
0.8,0.9,0,2.99893,-0.0694051,0
0.8,1,0,2.99665,-0.063429,0
0.8,1.1,0,2.99462,-0.0658165,0
0.8,1.2,0,2.99391,-0.0638978,0
0.8,1.3,0,2.9955,-0.0631927,0
0.8,1.4,0,2.99604,-0.0636705,0
0.8,1.5,0,2.99513,-0.0608253,0
0.8,1.6,0,3.0002,-0.0631474,0