/*--------------------------------*- C++ -*----------------------------------*\
| =========                 |                                                 |
| \\      /  F ield         | OpenFOAM: The Open Source CFD Toolbox           |
|  \\    /   O peration     | Version:  v1806                                 |
|   \\  /    A nd           | Web:      www.OpenFOAM.com                      |
|    \\/     M anipulation  |                                                 |
\*---------------------------------------------------------------------------*/
FoamFile
{
    version     2.0;
    format      ascii;
    class       volVectorField;
    location    "250";
    object      U;
}
// * * * * * * * * * * * * * * * * * * * * * * * * * * * * * * * * * * * * * //

dimensions      [0 1 -1 0 0 0 0];


internalField   nonuniform List<vector> 
2400
(
(0.3 -0.0010635 0)
(0.300002 -0.00318931 0)
(0.300008 -0.0053101 0)
(0.300017 -0.00742169 0)
(0.30003 -0.00951918 0)
(0.300051 -0.0115966 0)
(0.300079 -0.0136466 0)
(0.300118 -0.0156601 0)
(0.300169 -0.0176262 0)
(0.300236 -0.0195322 0)
(0.300323 -0.0213635 0)
(0.300431 -0.0231037 0)
(0.300565 -0.0247351 0)
(0.300727 -0.026239 0)
(0.300922 -0.0275964 0)
(0.301149 -0.0287885 0)
(0.301413 -0.0297986 0)
(0.301713 -0.0306104 0)
(0.30205 -0.0312139 0)
(0.302417 -0.0315976 0)
(0.3 -0.00106536 0)
(0.300006 -0.0031951 0)
(0.300018 -0.00532062 0)
(0.300037 -0.00743822 0)
(0.300065 -0.00954351 0)
(0.300104 -0.011631 0)
(0.300157 -0.0136938 0)
(0.300229 -0.0157234 0)
(0.300322 -0.0177093 0)
(0.300442 -0.0196392 0)
(0.300592 -0.0214986 0)
(0.300778 -0.0232715 0)
(0.301004 -0.0249398 0)
(0.301273 -0.0264844 0)
(0.301589 -0.0278858 0)
(0.301952 -0.0291241 0)
(0.302363 -0.030181 0)
(0.302819 -0.0310394 0)
(0.303318 -0.0316864 0)
(0.303851 -0.0321128 0)
(0.3 -0.00106885 0)
(0.300009 -0.00320589 0)
(0.300027 -0.00533978 0)
(0.300056 -0.00746768 0)
(0.300098 -0.00958595 0)
(0.300157 -0.0116899 0)
(0.300237 -0.0137733 0)
(0.300345 -0.0158282 0)
(0.300485 -0.0178446 0)
(0.300663 -0.0198106 0)
(0.300888 -0.0217117 0)
(0.301164 -0.0235315 0)
(0.301498 -0.0252515 0)
(0.301894 -0.0268513 0)
(0.302356 -0.0283099 0)
(0.302885 -0.0296054 0)
(0.303479 -0.0307174 0)
(0.304133 -0.031626 0)
(0.304842 -0.0323166 0)
(0.305592 -0.0327744 0)
(0.300001 -0.00107358 0)
(0.300011 -0.00322048 0)
(0.300034 -0.00536573 0)
(0.30007 -0.00750761 0)
(0.300122 -0.0096436 0)
(0.300197 -0.0117701 0)
(0.300301 -0.0138817 0)
(0.300439 -0.0159715 0)
(0.300621 -0.01803 0)
(0.300855 -0.0200456 0)
(0.301149 -0.0220038 0)
(0.301514 -0.0238879 0)
(0.301956 -0.0256781 0)
(0.302481 -0.0273525 0)
(0.303095 -0.0288877 0)
(0.303797 -0.030259 0)
(0.304586 -0.0314425 0)
(0.305455 -0.0324147 0)
(0.306392 -0.0331576 0)
(0.307381 -0.0336537 0)
(0.300001 -0.00107895 0)
(0.300012 -0.00323716 0)
(0.300036 -0.00539565 0)
(0.300076 -0.00755426 0)
(0.300134 -0.00971189 0)
(0.300219 -0.0118664 0)
(0.300338 -0.0140136 0)
(0.3005 -0.0161478 0)
(0.300715 -0.0182601 0)
(0.300995 -0.02034 0)
(0.301352 -0.0223724 0)
(0.301798 -0.0243405 0)
(0.302342 -0.0262226 0)
(0.302994 -0.0279953 0)
(0.30376 -0.0296313 0)
(0.30464 -0.0311023 0)
(0.305633 -0.0323793 0)
(0.306728 -0.033434 0)
(0.30791 -0.0342433 0)
(0.309157 -0.0347857 0)
(0.300001 -0.00108423 0)
(0.300011 -0.00325369 0)
(0.300034 -0.00542586 0)
(0.300072 -0.00760253 0)
(0.30013 -0.00978437 0)
(0.300216 -0.0119711 0)
(0.300341 -0.0141601 0)
(0.300515 -0.0163475 0)
(0.300753 -0.0185252 0)
(0.301068 -0.020684 0)
(0.301476 -0.0228083 0)
(0.301992 -0.0248818 0)
(0.30263 -0.0268798 0)
(0.303403 -0.0287777 0)
(0.304319 -0.0305423 0)
(0.305382 -0.0321416 0)
(0.306587 -0.0335389 0)
(0.307924 -0.0346994 0)
(0.309372 -0.0355927 0)
(0.310903 -0.0361909 0)
(0.3 -0.00108849 0)
(0.300008 -0.0032673 0)
(0.300025 -0.00545173 0)
(0.300055 -0.00764597 0)
(0.300105 -0.00985276 0)
(0.300183 -0.0120744 0)
(0.300301 -0.0143099 0)
(0.300475 -0.016558 0)
(0.300719 -0.0188116 0)
(0.301054 -0.0210639 0)
(0.301497 -0.0232983 0)
(0.302069 -0.0255004 0)
(0.302789 -0.0276408 0)
(0.303675 -0.0296954 0)
(0.304739 -0.0316214 0)
(0.305987 -0.0333848 0)
(0.307417 -0.034935 0)
(0.309016 -0.0362318 0)
(0.310758 -0.0372316 0)
(0.312605 -0.0378984 0)
(0.3 -0.0010906 0)
(0.300003 -0.00327462 0)
(0.30001 -0.00546762 0)
(0.300024 -0.00767666 0)
(0.300055 -0.00990686 0)
(0.300112 -0.0121638 0)
(0.30021 -0.0144483 0)
(0.300366 -0.0167632 0)
(0.300599 -0.0191017 0)
(0.300932 -0.0214621 0)
(0.30139 -0.0238247 0)
(0.301998 -0.0261813 0)
(0.302784 -0.0284928 0)
(0.303769 -0.0307423 0)
(0.304975 -0.032868 0)
(0.306411 -0.0348417 0)
(0.308081 -0.0365852 0)
(0.309965 -0.0380604 0)
(0.31204 -0.0391949 0)
(0.314246 -0.0399497 0)
(0.3 -0.00108925 0)
(0.299994 -0.00327169 0)
(0.299985 -0.00546689 0)
(0.299976 -0.00768525 0)
(0.299976 -0.00993451 0)
(0.299998 -0.0122244 0)
(0.300057 -0.0145577 0)
(0.300175 -0.016943 0)
(0.300373 -0.0193732 0)
(0.30068 -0.0218554 0)
(0.301125 -0.0243635 0)
(0.301744 -0.0269034 0)
(0.30257 -0.029417 0)
(0.303636 -0.0319086 0)
(0.304974 -0.0342775 0)
(0.306596 -0.0365242 0)
(0.308522 -0.0385094 0)
(0.310721 -0.0402249 0)
(0.313179 -0.0415281 0)
(0.315802 -0.0424035 0)
(0.299999 -0.00108295 0)
(0.299983 -0.00325405 0)
(0.299951 -0.00544197 0)
(0.299909 -0.00766099 0)
(0.299865 -0.00992157 0)
(0.299835 -0.0122387 0)
(0.299835 -0.0146168 0)
(0.299889 -0.017073 0)
(0.300023 -0.0195981 0)
(0.300272 -0.0222144 0)
(0.30067 -0.0248831 0)
(0.301264 -0.0276381 0)
(0.302096 -0.0303846 0)
(0.303213 -0.0331786 0)
(0.304664 -0.0358378 0)
(0.306467 -0.038447 0)
(0.308667 -0.0407274 0)
(0.311212 -0.0427822 0)
(0.314126 -0.0442888 0)
(0.317238 -0.0453473 0)
(0.299998 -0.00107008 0)
(0.299967 -0.00321674 0)
(0.299907 -0.00538449 0)
(0.299821 -0.00759184 0)
(0.299719 -0.00985203 0)
(0.299617 -0.0121863 0)
(0.299534 -0.0146007 0)
(0.299496 -0.0171237 0)
(0.299531 -0.019742 0)
(0.299682 -0.0225015 0)
(0.299989 -0.0253412 0)
(0.30051 -0.0283465 0)
(0.301302 -0.0313538 0)
(0.302426 -0.034528 0)
(0.303959 -0.0375226 0)
(0.305922 -0.0406276 0)
(0.308415 -0.0432527 0)
(0.31134 -0.045816 0)
(0.31481 -0.0475463 0)
(0.318506 -0.0489198 0)
(0.299997 -0.0010489 0)
(0.299949 -0.00315454 0)
(0.299852 -0.00528555 0)
(0.299711 -0.00746483 0)
(0.299535 -0.0097084 0)
(0.299342 -0.0120448 0)
(0.299149 -0.0144811 0)
(0.298985 -0.0170605 0)
(0.298882 -0.0197634 0)
(0.298886 -0.0226695 0)
(0.299046 -0.0256836 0)
(0.299432 -0.0289749 0)
(0.300119 -0.0322637 0)
(0.301185 -0.0359184 0)
(0.302748 -0.0392821 0)
(0.304829 -0.0430859 0)
(0.307631 -0.046079 0)
(0.310958 -0.0494546 0)
(0.315131 -0.0513752 0)
(0.319528 -0.0533518 0)
(0.299996 -0.00101769 0)
(0.299926 -0.00306218 0)
(0.299786 -0.00513606 0)
(0.299578 -0.00726651 0)
(0.299314 -0.00947231 0)
(0.299006 -0.0117896 0)
(0.298677 -0.0142267 0)
(0.29835 -0.0168439 0)
(0.298064 -0.0196137 0)
(0.297862 -0.0226599 0)
(0.29781 -0.0258417 0)
(0.297978 -0.0294495 0)
(0.298476 -0.0330304 0)
(0.299383 -0.0372869 0)
(0.3009 -0.0410323 0)
(0.303013 -0.0458378 0)
(0.306133 -0.0491578 0)
(0.309843 -0.0538932 0)
(0.314955 -0.0558334 0)
(0.320154 -0.0590365 0)
(0.299995 -0.000974829 0)
(0.2999 -0.00293463 0)
(0.29971 -0.00492733 0)
(0.299426 -0.00698376 0)
(0.299058 -0.0091255 0)
(0.298614 -0.0113956 0)
(0.29812 -0.0138048 0)
(0.297591 -0.0164302 0)
(0.297074 -0.0192388 0)
(0.296598 -0.022402 0)
(0.296258 -0.0257324 0)
(0.296097 -0.0296684 0)
(0.2963 -0.0335423 0)
(0.296901 -0.0385263 0)
(0.298258 -0.0426487 0)
(0.300251 -0.0488718 0)
(0.303667 -0.0523732 0)
(0.307663 -0.0594144 0)
(0.314083 -0.0609156 0)
(0.320072 -0.0666404 0)
(0.299994 -0.000918902 0)
(0.299871 -0.00276755 0)
(0.299627 -0.00465171 0)
(0.299256 -0.00660483 0)
(0.298772 -0.00865111 0)
(0.298173 -0.0108391 0)
(0.29749 -0.0131831 0)
(0.296718 -0.0157742 0)
(0.295925 -0.0185803 0)
(0.295095 -0.0218143 0)
(0.294387 -0.0252591 0)
(0.293754 -0.0294955 0)
(0.293539 -0.0336586 0)
(0.293607 -0.0394503 0)
(0.294652 -0.0439682 0)
(0.29626 -0.0520829 0)
(0.299872 -0.0555455 0)
(0.303975 -0.0663726 0)
(0.312134 -0.0664765 0)
(0.318686 -0.0772931 0)
(0.299992 -0.000848894 0)
(0.29984 -0.00255777 0)
(0.299538 -0.00430347 0)
(0.299076 -0.00612056 0)
(0.298466 -0.00803546 0)
(0.297697 -0.0100995 0)
(0.296805 -0.0123324 0)
(0.295754 -0.0148331 0)
(0.294643 -0.0175799 0)
(0.293379 -0.0208093 0)
(0.292223 -0.024313 0)
(0.290944 -0.0287596 0)
(0.290175 -0.0332058 0)
(0.289372 -0.0397567 0)
(0.289925 -0.044792 0)
(0.29067 -0.0551195 0)
(0.294282 -0.0585228 0)
(0.298229 -0.0750214 0)
(0.308183 -0.0721858 0)
(0.315316 -0.0928808 0)
(0.299991 -0.000764335 0)
(0.299809 -0.00230379 0)
(0.299448 -0.00387961 0)
(0.298891 -0.00552581 0)
(0.298153 -0.00726994 0)
(0.297206 -0.00916316 0)
(0.296092 -0.0112307 0)
(0.294739 -0.0135721 0)
(0.293275 -0.0161843 0)
(0.291512 -0.0193041 0)
(0.289828 -0.0227767 0)
(0.287724 -0.0272711 0)
(0.286247 -0.0319636 0)
(0.284123 -0.0390277 0)
(0.283982 -0.0448463 0)
(0.282951 -0.0571795 0)
(0.286442 -0.0613442 0)
(0.289439 -0.0848748 0)
(0.300474 -0.0778663 0)
(0.310046 -0.116181 0)
(0.299989 -0.000665464 0)
(0.29978 -0.00200612 0)
(0.299362 -0.00338065 0)
(0.298714 -0.00482067 0)
(0.297849 -0.00635311 0)
(0.296727 -0.00802556 0)
(0.295389 -0.00986722 0)
(0.293731 -0.0119713 0)
(0.291892 -0.0143545 0)
(0.289597 -0.017235 0)
(0.287305 -0.0205354 0)
(0.284251 -0.0248521 0)
(0.281861 -0.0296455 0)
(0.277978 -0.0368002 0)
(0.276797 -0.0436249 0)
(0.272576 -0.0570454 0)
(0.276017 -0.0640451 0)
(0.275242 -0.0935035 0)
(0.287832 -0.0852578 0)
(0.302763 -0.150309 0)
(0.299988 -0.00055361 0)
(0.299753 -0.00166789 0)
(0.299284 -0.00281166 0)
(0.298554 -0.00401197 0)
(0.297573 -0.00529322 0)
(0.296292 -0.00669515 0)
(0.294743 -0.00824898 0)
(0.2928 -0.0100332 0)
(0.290586 -0.0120813 0)
(0.287782 -0.0145748 0)
(0.284817 -0.0175113 0)
(0.280809 -0.0213746 0)
(0.277219 -0.0259393 0)
(0.271408 -0.0326578 0)
(0.268346 -0.040185 0)
(0.259808 -0.0535178 0)
(0.262152 -0.065287 0)
(0.252154 -0.0969181 0)
(0.271086 -0.101405 0)
(0.284632 -0.195301 0)
(0.299987 -0.000431993 0)
(0.299733 -0.00129635 0)
(0.29922 -0.00218459 0)
(0.298423 -0.00311643 0)
(0.297346 -0.00411223 0)
(0.295934 -0.00519883 0)
(0.294202 -0.00640923 0)
(0.292022 -0.0077958 0)
(0.289468 -0.00940732 0)
(0.286232 -0.0113647 0)
(0.282601 -0.0137316 0)
(0.27777 -0.0168364 0)
(0.272755 -0.0207093 0)
(0.265259 -0.0263603 0)
(0.258954 -0.0335059 0)
(0.24644 -0.0455942 0)
(0.242257 -0.0606331 0)
(0.219765 -0.0919666 0)
(0.239611 -0.127064 0)
(0.221802 -0.235606 0)
(0.303011 -0.0318489 0)
(0.303913 -0.0313117 0)
(0.304879 -0.0299605 0)
(0.305865 -0.0279285 0)
(0.306811 -0.0253803 0)
(0.307714 -0.0225012 0)
(0.308526 -0.019379 0)
(0.309275 -0.016214 0)
(0.309919 -0.0129379 0)
(0.310487 -0.00988091 0)
(0.304695 -0.0324096 0)
(0.305895 -0.0319013 0)
(0.307097 -0.0305536 0)
(0.308234 -0.0285052 0)
(0.309245 -0.025921 0)
(0.310137 -0.0229969 0)
(0.310881 -0.0198197 0)
(0.311516 -0.0166009 0)
(0.312013 -0.0132654 0)
(0.312409 -0.0101596 0)
(0.306762 -0.0331089 0)
(0.308374 -0.0326108 0)
(0.309932 -0.0312224 0)
(0.311332 -0.0291096 0)
(0.312512 -0.0264427 0)
(0.313479 -0.0234383 0)
(0.314229 -0.0201768 0)
(0.314804 -0.0168837 0)
(0.315193 -0.0134721 0)
(0.315434 -0.0103001 0)
(0.308911 -0.0340219 0)
(0.310989 -0.0335051 0)
(0.312954 -0.0320289 0)
(0.314663 -0.029805 0)
(0.316056 -0.0270076 0)
(0.31714 -0.0238862 0)
(0.317944 -0.0205055 0)
(0.318505 -0.0171127 0)
(0.318837 -0.0135993 0)
(0.318965 -0.0103433 0)
(0.31108 -0.0351884 0)
(0.313669 -0.0346264 0)
(0.316071 -0.0330154 0)
(0.31811 -0.0306353 0)
(0.319727 -0.02766 0)
(0.320939 -0.024387 0)
(0.32181 -0.0208521 0)
(0.322372 -0.017336 0)
(0.322672 -0.0136927 0)
(0.322708 -0.0103337 0)
(0.313258 -0.0366304 0)
(0.316409 -0.0359911 0)
(0.319279 -0.034191 0)
(0.321658 -0.031605 0)
(0.323498 -0.0284005 0)
(0.324833 -0.0249421 0)
(0.325768 -0.0212177 0)
(0.326328 -0.0175586 0)
(0.326602 -0.0137568 0)
(0.326547 -0.0102788 0)
(0.315447 -0.0383782 0)
(0.319225 -0.0376168 0)
(0.322593 -0.0355627 0)
(0.325319 -0.0327139 0)
(0.327372 -0.0292234 0)
(0.328816 -0.0255462 0)
(0.329802 -0.0215962 0)
(0.330351 -0.0177784 0)
(0.330595 -0.0137866 0)
(0.330438 -0.0101778 0)
(0.317651 -0.0404717 0)
(0.322135 -0.0395238 0)
(0.326035 -0.0371388 0)
(0.329109 -0.0339603 0)
(0.331358 -0.0301215 0)
(0.33289 -0.0261926 0)
(0.333908 -0.0219803 0)
(0.334431 -0.0179922 0)
(0.334634 -0.0137745 0)
(0.334356 -0.0100284 0)
(0.319877 -0.0429616 0)
(0.325164 -0.041734 0)
(0.32963 -0.038928 0)
(0.333048 -0.0353392 0)
(0.335467 -0.0310845 0)
(0.337056 -0.0268718 0)
(0.338076 -0.0223606 0)
(0.338551 -0.0181947 0)
(0.338686 -0.0137088 0)
(0.338254 -0.00982357 0)
(0.322147 -0.0459098 0)
(0.328341 -0.0442697 0)
(0.333408 -0.04094 0)
(0.337154 -0.0368398 0)
(0.33971 -0.0320982 0)
(0.341303 -0.0275682 0)
(0.342275 -0.022723 0)
(0.342647 -0.0183715 0)
(0.342654 -0.0135679 0)
(0.341995 -0.00954534 0)
(0.324493 -0.0493883 0)
(0.331705 -0.0471574 0)
(0.337417 -0.0431872 0)
(0.341459 -0.038442 0)
(0.344092 -0.0331395 0)
(0.34557 -0.0282507 0)
(0.346388 -0.0230366 0)
(0.346516 -0.0184839 0)
(0.346255 -0.0133076 0)
(0.345215 -0.00914967 0)
(0.326982 -0.0534693 0)
(0.335325 -0.050444 0)
(0.341739 -0.0456878 0)
(0.345981 -0.040108 0)
(0.34853 -0.0341592 0)
(0.349609 -0.0288455 0)
(0.350018 -0.0232225 0)
(0.349572 -0.0184338 0)
(0.348771 -0.0128336 0)
(0.347052 -0.0085428 0)
(0.329752 -0.0582014 0)
(0.33934 -0.0542316 0)
(0.346464 -0.0484458 0)
(0.350592 -0.0417436 0)
(0.352586 -0.0350251 0)
(0.352611 -0.0291687 0)
(0.352065 -0.023091 0)
(0.350393 -0.0180102 0)
(0.348614 -0.0119717 0)
(0.345737 -0.00755486 0)
(0.333165 -0.0636164 0)
(0.343957 -0.0586748 0)
(0.351426 -0.0513176 0)
(0.354485 -0.0430598 0)
(0.354751 -0.0353768 0)
(0.352466 -0.0288103 0)
(0.34999 -0.0222594 0)
(0.346096 -0.0168487 0)
(0.342816 -0.010469 0)
(0.338211 -0.00595169 0)
(0.338112 -0.0698053 0)
(0.349013 -0.063826 0)
(0.355213 -0.0536655 0)
(0.354923 -0.0432807 0)
(0.351202 -0.0344191 0)
(0.344743 -0.0270373 0)
(0.339052 -0.0201328 0)
(0.331924 -0.0144917 0)
(0.326865 -0.00808553 0)
(0.32022 -0.00354486 0)
(0.346048 -0.0770807 0)
(0.352135 -0.0692252 0)
(0.353013 -0.0539222 0)
(0.345289 -0.0409364 0)
(0.334512 -0.0308971 0)
(0.322179 -0.0229258 0)
(0.312449 -0.0161189 0)
(0.301962 -0.0106603 0)
(0.295707 -0.00484643 0)
(0.287575 -0.000438847 0)
(0.356575 -0.0860221 0)
(0.344599 -0.0728319 0)
(0.333949 -0.0492746 0)
(0.31394 -0.0341193 0)
(0.294288 -0.0236231 0)
(0.276559 -0.0159964 0)
(0.263996 -0.0102305 0)
(0.252111 -0.0057556 0)
(0.246622 -0.00137434 0)
(0.238752 0.00271208 0)
(0.359359 -0.0915317 0)
(0.307083 -0.0681997 0)
(0.281196 -0.0361323 0)
(0.247669 -0.0217042 0)
(0.223095 -0.0128708 0)
(0.205154 -0.0074651 0)
(0.194072 -0.00400887 0)
(0.184758 -0.00139045 0)
(0.182582 0.000989677 0)
(0.1769 0.00492643 0)
(0.323856 -0.0695464 0)
(0.210941 -0.0427799 0)
(0.181408 -0.0112945 0)
(0.145691 -0.00565834 0)
(0.128868 -0.00230251 0)
(0.118699 -0.0010033 0)
(0.113482 -0.000248997 0)
(0.109517 0.00051699 0)
(0.111166 0.00124503 0)
(0.107912 0.00553048 0)
(0.196 -0.0610904 0)
(0.0418244 -0.0163133 0)
(0.0515319 0.00216994 0)
(0.037002 0.000570434 0)
(0.0366495 0.00068169 0)
(0.0354183 0.000365622 0)
(0.0352864 0.000266334 0)
(0.0352661 0.000324383 0)
(0.037786 0.000525175 0)
(0.0362672 0.00297218 0)
(0.311091 -0.00587234 0)
(0.311605 -0.00188621 0)
(0.312004 0.00183922 0)
(0.312175 0.00444969 0)
(0.312436 0.00672585 0)
(0.312453 0.00819603 0)
(0.312597 0.00924236 0)
(0.312605 0.00997849 0)
(0.312612 0.00994812 0)
(0.312711 0.0101456 0)
(0.312555 0.00943873 0)
(0.312869 0.00901083 0)
(0.312623 0.00835307 0)
(0.313116 0.00739657 0)
(0.31305 0.00765041 0)
(0.313444 0.00651465 0)
(0.313685 0.0078357 0)
(0.313734 0.00701353 0)
(0.31398 0.00836633 0)
(0.313746 0.00764796 0)
(0.312769 -0.00608074 0)
(0.312971 -0.00204079 0)
(0.31307 0.00174024 0)
(0.312994 0.00438795 0)
(0.313054 0.00669176 0)
(0.312915 0.00817968 0)
(0.31295 0.00922878 0)
(0.312864 0.00997825 0)
(0.31282 0.00993975 0)
(0.312869 0.0101544 0)
(0.312689 0.00941767 0)
(0.313012 0.00899971 0)
(0.312758 0.00831131 0)
(0.313321 0.00732495 0)
(0.313266 0.00759083 0)
(0.313727 0.00640618 0)
(0.31399 0.00778201 0)
(0.314013 0.00696619 0)
(0.314261 0.00835907 0)
(0.313924 0.00769212 0)
(0.31555 -0.00614003 0)
(0.315389 -0.00202928 0)
(0.315095 0.00178456 0)
(0.314664 0.00443215 0)
(0.314416 0.00673912 0)
(0.314011 0.00822106 0)
(0.313849 0.00926262 0)
(0.313577 0.0100119 0)
(0.313414 0.00995724 0)
(0.313349 0.0101829 0)
(0.313094 0.0093973 0)
(0.313407 0.00899089 0)
(0.313108 0.00824546 0)
(0.313774 0.00723242 0)
(0.313719 0.00750628 0)
(0.314287 0.00627013 0)
(0.314592 0.00773206 0)
(0.314565 0.0069213 0)
(0.31483 0.00838182 0)
(0.314297 0.0077698 0)
(0.318893 -0.0060793 0)
(0.318405 -0.00188729 0)
(0.317741 0.00195502 0)
(0.316951 0.00459633 0)
(0.316382 0.00689496 0)
(0.315673 0.00834976 0)
(0.315279 0.00937476 0)
(0.314767 0.0101039 0)
(0.314443 0.0100257 0)
(0.314213 0.0102491 0)
(0.313835 0.00939797 0)
(0.314108 0.00899933 0)
(0.313724 0.00817083 0)
(0.314497 0.00713317 0)
(0.314425 0.00740638 0)
(0.315112 0.00611647 0)
(0.315475 0.00769256 0)
(0.315368 0.00688706 0)
(0.31567 0.00843999 0)
(0.314857 0.00788746 0)
(0.322487 -0.0059361 0)
(0.321699 -0.00164265 0)
(0.320707 0.0022307 0)
(0.319587 0.0048656 0)
(0.318724 0.00715124 0)
(0.317721 0.00856468 0)
(0.317101 0.00956882 0)
(0.316339 0.0102625 0)
(0.315836 0.010156 0)
(0.315416 0.0103664 0)
(0.314883 0.00943134 0)
(0.315092 0.00903647 0)
(0.31459 0.00809347 0)
(0.315457 0.00702801 0)
(0.315358 0.00728888 0)
(0.316157 0.00593615 0)
(0.316594 0.0076604 0)
(0.31637 0.00686001 0)
(0.316732 0.00853986 0)
(0.31556 0.00806004 0)
(0.32619 -0.00571445 0)
(0.325097 -0.0013021 0)
(0.323801 0.00260248 0)
(0.322366 0.00522984 0)
(0.32124 0.00749772 0)
(0.319963 0.00885782 0)
(0.319137 0.00983998 0)
(0.318138 0.0104868 0)
(0.317454 0.010351 0)
(0.316838 0.0105398 0)
(0.316134 0.00950444 0)
(0.316254 0.00910951 0)
(0.31562 0.00801721 0)
(0.316555 0.00692054 0)
(0.316432 0.00715274 0)
(0.31732 0.00572725 0)
(0.317856 0.0076378 0)
(0.317471 0.00684091 0)
(0.317922 0.00869206 0)
(0.316316 0.00830102 0)
(0.329944 -0.00540695 0)
(0.328507 -0.00086423 0)
(0.326906 0.00306804 0)
(0.325149 0.00568544 0)
(0.323772 0.00792772 0)
(0.322232 0.00922287 0)
(0.32121 0.0101828 0)
(0.31999 0.0107732 0)
(0.319122 0.0106115 0)
(0.318312 0.0107701 0)
(0.317422 0.00962321 0)
(0.317431 0.00922318 0)
(0.316659 0.00794692 0)
(0.317622 0.00681675 0)
(0.317491 0.00699821 0)
(0.318428 0.0054926 0)
(0.319099 0.0076276 0)
(0.318506 0.00683145 0)
(0.319082 0.00890556 0)
(0.316973 0.00862131 0)
(0.333707 -0.00499934 0)
(0.331857 -0.000320316 0)
(0.329922 0.00363286 0)
(0.327807 0.00623651 0)
(0.326166 0.00844039 0)
(0.324353 0.00965881 0)
(0.32313 0.0105951 0)
(0.321696 0.0111202 0)
(0.320625 0.0109396 0)
(0.319623 0.0110583 0)
(0.318524 0.00979539 0)
(0.318394 0.00938213 0)
(0.317476 0.00788962 0)
(0.318411 0.00672388 0)
(0.318297 0.0068259 0)
(0.319226 0.00523644 0)
(0.320079 0.00763045 0)
(0.31923 0.00683147 0)
(0.319977 0.00918643 0)
(0.31731 0.00902958 0)
(0.337403 -0.00446552 0)
(0.335024 0.000340733 0)
(0.332695 0.00431121 0)
(0.330153 0.00689593 0)
(0.328209 0.00904222 0)
(0.326091 0.0101718 0)
(0.32464 0.0110798 0)
(0.322987 0.0115313 0)
(0.321679 0.0113411 0)
(0.320481 0.0114081 0)
(0.319132 0.0100325 0)
(0.318832 0.009593 0)
(0.317749 0.00785628 0)
(0.318584 0.00665138 0)
(0.318512 0.00663784 0)
(0.319359 0.00496427 0)
(0.320454 0.00764414 0)
(0.319306 0.00683801 0)
(0.320285 0.00953692 0)
(0.317031 0.00953091 0)
(0.340841 -0.00376107 0)
(0.337747 0.00114442 0)
(0.33492 0.00513165 0)
(0.331841 0.00768678 0)
(0.329531 0.00974762 0)
(0.327053 0.0107748 0)
(0.325339 0.0116447 0)
(0.323451 0.012015 0)
(0.321865 0.0118251 0)
(0.320468 0.0118272 0)
(0.318816 0.0103501 0)
(0.318317 0.00986515 0)
(0.31703 0.00786317 0)
(0.317688 0.00661157 0)
(0.317674 0.00643889 0)
(0.318353 0.00468231 0)
(0.319772 0.00766212 0)
(0.318296 0.0068434 0)
(0.319592 0.00995196 0)
(0.315766 0.010124 0)
(0.343563 -0.00281177 0)
(0.339467 0.00213645 0)
(0.335989 0.00614203 0)
(0.332231 0.00864181 0)
(0.329481 0.0105774 0)
(0.326582 0.0114852 0)
(0.324583 0.0122987 0)
(0.322451 0.0125806 0)
(0.320563 0.0123993 0)
(0.318982 0.0123233 0)
(0.316973 0.0107637 0)
(0.31627 0.0102091 0)
(0.314719 0.00793057 0)
(0.315139 0.00661827 0)
(0.315185 0.00623657 0)
(0.31562 0.00439485 0)
(0.317469 0.00767053 0)
(0.315666 0.0068314 0)
(0.317405 0.0104136 0)
(0.313088 0.0107975 0)
(0.344595 -0.0014966 0)
(0.339105 0.00337731 0)
(0.334804 0.00740788 0)
(0.330228 0.00979605 0)
(0.327001 0.0115516 0)
(0.323655 0.0123146 0)
(0.321409 0.0130429 0)
(0.31906 0.0132294 0)
(0.316912 0.0130608 0)
(0.315201 0.0128978 0)
(0.312819 0.0112812 0)
(0.311952 0.0106315 0)
(0.310071 0.0080779 0)
(0.310236 0.00668262 0)
(0.310329 0.00603811 0)
(0.310486 0.00409849 0)
(0.312904 0.00764389 0)
(0.310828 0.006772 0)
(0.313191 0.0108846 0)
(0.308544 0.0115271 0)
(0.342122 0.000343887 0)
(0.334809 0.00493457 0)
(0.32961 0.00899733 0)
(0.324179 0.0111653 0)
(0.320553 0.0126712 0)
(0.316847 0.0132514 0)
(0.31452 0.0138536 0)
(0.312075 0.0139385 0)
(0.309832 0.0137822 0)
(0.308119 0.0135336 0)
(0.305436 0.0118911 0)
(0.304514 0.0111283 0)
(0.30226 0.0083148 0)
(0.302232 0.00680615 0)
(0.302353 0.0058443 0)
(0.302286 0.00377405 0)
(0.305439 0.00754044 0)
(0.303222 0.00661568 0)
(0.306454 0.0113043 0)
(0.301722 0.0122737 0)
(0.33329 0.00285203 0)
(0.323866 0.00683837 0)
(0.318014 0.0109332 0)
(0.31194 0.0127041 0)
(0.308238 0.0138864 0)
(0.304478 0.0142309 0)
(0.302433 0.0146603 0)
(0.300168 0.0146405 0)
(0.298175 0.0144946 0)
(0.296691 0.0141806 0)
(0.293917 0.012549 0)
(0.29313 0.0116749 0)
(0.290524 0.00862949 0)
(0.290476 0.00697203 0)
(0.290613 0.00564015 0)
(0.290511 0.00337867 0)
(0.294578 0.00729949 0)
(0.29245 0.00628998 0)
(0.296839 0.0115885 0)
(0.292325 0.0129859 0)
(0.314486 0.00605694 0)
(0.303098 0.0090121 0)
(0.297437 0.0131179 0)
(0.291327 0.0142548 0)
(0.288224 0.0150594 0)
(0.285009 0.0151063 0)
(0.283846 0.0153241 0)
(0.28223 0.0152055 0)
(0.281023 0.0150768 0)
(0.280105 0.014745 0)
(0.277615 0.0131699 0)
(0.277219 0.0122195 0)
(0.274399 0.00897741 0)
(0.274615 0.00713732 0)
(0.2748 0.005385 0)
(0.275001 0.00284247 0)
(0.280131 0.00684366 0)
(0.278424 0.00570256 0)
(0.284246 0.0116405 0)
(0.280262 0.0136071 0)
(0.282565 0.00971046 0)
(0.269985 0.0111914 0)
(0.266122 0.0152607 0)
(0.260981 0.0155168 0)
(0.259508 0.0159417 0)
(0.257708 0.0156374 0)
(0.258197 0.015636 0)
(0.257857 0.0154432 0)
(0.25809 0.0153614 0)
(0.258144 0.0150921 0)
(0.256444 0.013632 0)
(0.256727 0.0126804 0)
(0.253982 0.009275 0)
(0.254826 0.00722979 0)
(0.255161 0.00500728 0)
(0.256123 0.0020755 0)
(0.262378 0.00608935 0)
(0.261493 0.00475568 0)
(0.268909 0.0113723 0)
(0.265719 0.0140874 0)
(0.236838 0.0131812 0)
(0.224316 0.0128942 0)
(0.224408 0.0168689 0)
(0.221407 0.0160751 0)
(0.222762 0.016199 0)
(0.223319 0.0155237 0)
(0.226213 0.0153514 0)
(0.227797 0.0151361 0)
(0.230079 0.0151669 0)
(0.231499 0.0150686 0)
(0.231132 0.0137956 0)
(0.232366 0.0129506 0)
(0.23014 0.00940358 0)
(0.23198 0.00715291 0)
(0.232662 0.00441149 0)
(0.234849 0.000988062 0)
(0.242142 0.00496656 0)
(0.242478 0.00337447 0)
(0.25141 0.0107314 0)
(0.249196 0.0143918 0)
(0.180409 0.015653 0)
(0.169324 0.013544 0)
(0.175505 0.0173499 0)
(0.175573 0.0155262 0)
(0.180758 0.0155048 0)
(0.184366 0.0144916 0)
(0.190148 0.0142622 0)
(0.194131 0.0141028 0)
(0.198824 0.0143475 0)
(0.201902 0.0145385 0)
(0.203318 0.0135315 0)
(0.205724 0.0129069 0)
(0.204566 0.00922591 0)
(0.20767 0.00680031 0)
(0.208967 0.00350157 0)
(0.212683 -0.000472928 0)
(0.220739 0.00344277 0)
(0.222586 0.00154311 0)
(0.232636 0.00972453 0)
(0.231515 0.0145014 0)
(0.119624 0.0164427 0)
(0.111554 0.0126137 0)
(0.125142 0.0161901 0)
(0.128589 0.0136291 0)
(0.138005 0.0136548 0)
(0.144829 0.0123938 0)
(0.153518 0.0122687 0)
(0.160032 0.0122568 0)
(0.167121 0.0128358 0)
(0.171989 0.0134139 0)
(0.175429 0.0127482 0)
(0.17916 0.0124299 0)
(0.179594 0.00861765 0)
(0.184033 0.00608111 0)
(0.186218 0.00221193 0)
(0.191441 -0.00228577 0)
(0.199813 0.0015414 0)
(0.203252 -0.000674772 0)
(0.213703 0.00842966 0)
(0.213785 0.0144053 0)
(0.0638393 0.014982 0)
(0.0596178 0.00984446 0)
(0.0801303 0.0131847 0)
(0.0865079 0.0104408 0)
(0.0997276 0.0106455 0)
(0.109338 0.00928597 0)
(0.120455 0.0094208 0)
(0.129231 0.00963867 0)
(0.138313 0.0106521 0)
(0.144918 0.01168 0)
(0.150345 0.0114019 0)
(0.155451 0.0114471 0)
(0.157825 0.00751759 0)
(0.163415 0.00496285 0)
(0.16668 0.000547799 0)
(0.172981 -0.00436307 0)
(0.181116 -0.000639031 0)
(0.185962 -0.00314548 0)
(0.195891 0.00693963 0)
(0.197318 0.014097 0)
(0.037143 0.00870847 0)
(0.032897 0.00715575 0)
(0.0565693 0.0100111 0)
(0.0643742 0.00772035 0)
(0.0794431 0.00787942 0)
(0.0904021 0.00666542 0)
(0.102606 0.006989 0)
(0.112529 0.00741985 0)
(0.122518 0.00873173 0)
(0.130158 0.0101117 0)
(0.136754 0.0100678 0)
(0.142747 0.0104131 0)
(0.146514 0.00644412 0)
(0.152613 0.00391148 0)
(0.156646 -0.000706141 0)
(0.163182 -0.00591274 0)
(0.170742 -0.00217195 0)
(0.17626 -0.00484873 0)
(0.185164 0.00574704 0)
(0.187643 0.0137744 0)
(0.0248959 0.00488682 0)
(0.0205674 0.00566601 0)
(0.0454521 0.00802576 0)
(0.0539172 0.00611613 0)
(0.0698016 0.00618203 0)
(0.0813681 0.00511421 0)
(0.0940114 0.00553102 0)
(0.104455 0.00609672 0)
(0.114821 0.0075672 0)
(0.122978 0.00914965 0)
(0.13016 0.00922493 0)
(0.136618 0.00974238 0)
(0.141159 0.00576762 0)
(0.147471 0.0032504 0)
(0.151926 -0.0014248 0)
(0.15847 -0.00679455 0)
(0.165612 -0.0030223 0)
(0.171411 -0.00578211 0)
(0.179583 0.00504372 0)
(0.182666 0.0135752 0)
(0.01584 0.00259035 0)
(0.0112816 0.0041866 0)
(0.0369242 0.00592562 0)
(0.0458759 0.00444586 0)
(0.062325 0.00440245 0)
(0.0743193 0.00351324 0)
(0.0872098 0.00402207 0)
(0.0980254 0.00472812 0)
(0.108616 0.00635116 0)
(0.117198 0.00812486 0)
(0.124874 0.00831574 0)
(0.131739 0.00899457 0)
(0.137014 0.00503245 0)
(0.143452 0.00254648 0)
(0.148297 -0.00215868 0)
(0.154721 -0.00764828 0)
(0.161356 -0.00385312 0)
(0.167327 -0.00667363 0)
(0.174633 0.0043448 0)
(0.178312 0.013344 0)
(0.00994105 0.00140958 0)
(0.00509826 0.00270182 0)
(0.0311738 0.0037576 0)
(0.040423 0.00271909 0)
(0.0571832 0.00257369 0)
(0.0694127 0.00187945 0)
(0.0823527 0.00248392 0)
(0.0933797 0.00333074 0)
(0.10404 0.00510049 0)
(0.11294 0.00704734 0)
(0.121007 0.00735333 0)
(0.128204 0.00817685 0)
(0.134154 0.00424695 0)
(0.140627 0.00181231 0)
(0.145814 -0.00290364 0)
(0.151995 -0.00845602 0)
(0.158038 -0.00465738 0)
(0.16407 -0.00751234 0)
(0.170394 0.00366674 0)
(0.174646 0.013074 0)
(0.00711878 0.000791714 0)
(0.0020655 0.00122568 0)
(0.0283276 0.00155432 0)
(0.0376765 0.000965899 0)
(0.0544941 0.000724963 0)
(0.0667599 0.00023913 0)
(0.0795513 0.000940257 0)
(0.0906231 0.0019257 0)
(0.101196 0.0038326 0)
(0.110295 0.00593173 0)
(0.118643 0.00634985 0)
(0.126081 0.00729909 0)
(0.132632 0.00342188 0)
(0.139043 0.00105709 0)
(0.144512 -0.00364703 0)
(0.150336 -0.00920523 0)
(0.15571 -0.00542144 0)
(0.161693 -0.00828317 0)
(0.166935 0.00301762 0)
(0.171725 0.0127675 0)
(0.00732585 0.000328507 0)
(0.00221294 -0.000241328 0)
(0.0284486 -0.000655185 0)
(0.0376974 -0.000782923 0)
(0.05432 -0.00111493 0)
(0.0664238 -0.0013811 0)
(0.078872 -0.000585229 0)
(0.0898206 0.000534331 0)
(0.100151 0.00256555 0)
(0.10932 0.00479383 0)
(0.117832 0.00531858 0)
(0.125407 0.00637286 0)
(0.132474 0.00256887 0)
(0.138725 0.000290439 0)
(0.144409 -0.00437656 0)
(0.149773 -0.00988475 0)
(0.154408 -0.0061325 0)
(0.160236 -0.00897267 0)
(0.164315 0.00240495 0)
(0.169593 0.012428 0)
(0.0105844 -0.000333486 0)
(0.00554962 -0.00170875 0)
(0.0315357 -0.00284172 0)
(0.0404883 -0.00249813 0)
(0.0566659 -0.00291739 0)
(0.068416 -0.00295586 0)
(0.0803346 -0.00206946 0)
(0.0909951 -0.000822361 0)
(0.100935 0.00131767 0)
(0.110039 0.00364987 0)
(0.118597 0.00427418 0)
(0.126195 0.00541121 0)
(0.133679 0.00170025 0)
(0.139674 -0.00047673 0)
(0.145497 -0.00508135 0)
(0.150314 -0.0104844 0)
(0.154152 -0.00677974 0)
(0.159729 -0.00956979 0)
(0.162584 0.00183668 0)
(0.168285 0.0120596 0)
(0.0169815 -0.00159793 0)
(0.0120618 -0.00316959 0)
(0.0375234 -0.00497506 0)
(0.0459929 -0.0041488 0)
(0.0614787 -0.00465516 0)
(0.0726957 -0.00446038 0)
(0.0839107 -0.00349028 0)
(0.0941261 -0.0021246 0)
(0.103538 0.000107578 0)
(0.112439 0.0025164 0)
(0.120926 0.00323274 0)
(0.128425 0.00442862 0)
(0.136222 0.000829079 0)
(0.141868 -0.00123224 0)
(0.14775 -0.0057519 0)
(0.151952 -0.0109952 0)
(0.154944 -0.0073543 0)
(0.160185 -0.0100659 0)
(0.161776 0.00132039 0)
(0.167825 0.0116671 0)
(0.0266296 -0.00404463 0)
(0.0217166 -0.00459881 0)
(0.0462821 -0.00702 0)
(0.0540972 -0.00570597 0)
(0.0686488 -0.00630127 0)
(0.0791713 -0.0058722 0)
(0.0895243 -0.00482673 0)
(0.0991497 -0.00335435 0)
(0.107913 -0.00104646 0)
(0.116472 0.00141001 0)
(0.124778 0.00221088 0)
(0.132052 0.00344052 0)
(0.140053 -3.14249e-05 0)
(0.145262 -0.00196418 0)
(0.15112 -0.00637964 0)
(0.154657 -0.0114101 0)
(0.156771 -0.00784872 0)
(0.161602 -0.0104543 0)
(0.161915 0.00086372 0)
(0.168223 0.0112558 0)
(0.0395769 -0.00812143 0)
(0.0344697 -0.00602427 0)
(0.0576192 -0.00892928 0)
(0.0646319 -0.00716873 0)
(0.0780129 -0.00782277 0)
(0.0877017 -0.00718024 0)
(0.0970537 -0.00606049 0)
(0.10596 -0.00449564 0)
(0.113973 -0.00213189 0)
(0.12206 0.000346242 0)
(0.130082 0.00121901 0)
(0.137005 0.00245996 0)
(0.145099 -0.000871444 0)
(0.149792 -0.00266729 0)
(0.155542 -0.00695265 0)
(0.158385 -0.0117286 0)
(0.159599 -0.00825275 0)
(0.163963 -0.0107262 0)
(0.163007 0.000474538 0)
(0.169477 0.0108293 0)
(0.0744692 -0.0161315 0)
(0.0687458 -0.00932886 0)
(0.08735 -0.012683 0)
(0.0923486 -0.0102175 0)
(0.102695 -0.0107834 0)
(0.110317 -0.00980579 0)
(0.117242 -0.00849242 0)
(0.124344 -0.00675813 0)
(0.130554 -0.0043367 0)
(0.137347 -0.00184657 0)
(0.14456 -0.000881008 0)
(0.150459 0.000359623 0)
(0.158513 -0.00264759 0)
(0.161938 -0.00414809 0)
(0.167264 -0.00804308 0)
(0.168581 -0.0122335 0)
(0.167819 -0.00890255 0)