/*--------------------------------*- C++ -*----------------------------------*\
| =========                 |                                                 |
| \\      /  F ield         | OpenFOAM: The Open Source CFD Toolbox           |
|  \\    /   O peration     | Version:  v1806                                 |
|   \\  /    A nd           | Web:      www.OpenFOAM.com                      |
|    \\/     M anipulation  |                                                 |
\*---------------------------------------------------------------------------*/
FoamFile
{
    version     2.0;
    format      ascii;
    class       surfaceScalarField;
    location    "40";
    object      phi;
}
// * * * * * * * * * * * * * * * * * * * * * * * * * * * * * * * * * * * * * //

dimensions      [0 3 -1 0 0 0 0];
oriented        oriented;


internalField   nonuniform List<scalar> 
4680
(
0.105045
-0.000435995
0.104908
-0.00439306
0.104719
-0.00852182
0.104936
-0.00802908
0.105201
-0.00931318
0.104648
-0.019623
0.103426
-0.0331724
0.102605
-0.0398205
0.102263
-0.0414506
0.10074
-0.0500158
0.0960838
-0.0713982
0.0877073
-0.0991887
0.0765472
-0.122768
0.0641386
-0.135991
0.0518658
-0.138815
0.0406942
-0.134182
0.0311591
-0.125016
0.0234348
-0.113421
0.0174298
-0.100746
-0.087953
0.0127955
0.105042
-0.000478192
0.104877
-0.0042283
0.104627
-0.00827104
0.104756
-0.00815872
0.104925
-0.00948215
0.104294
-0.0189914
0.102914
-0.0317931
0.101655
-0.0385609
0.100576
-0.0403718
0.0983054
-0.0477452
0.0934116
-0.0665044
0.0856643
-0.0914414
0.075862
-0.112966
0.0651012
-0.12523
0.0543317
-0.128046
0.0442407
-0.124091
0.0352587
-0.116034
0.0276101
-0.105773
0.0213371
-0.094473
-0.0830046
0.0163887
0.105031
-0.000509452
0.104843
-0.00403985
0.104552
-0.00798022
0.104571
-0.0081773
0.104589
-0.00950106
0.103871
-0.0182728
0.102387
-0.0303097
0.100786
-0.0369594
0.0991893
-0.0387751
0.0966651
-0.0452211
0.0920468
-0.0618861
0.0848741
-0.0842688
0.0755933
-0.103685
0.0652329
-0.114869
0.0548471
-0.11766
0.0451945
-0.114438
0.0366818
-0.107521
0.0294561
-0.0985471
0.0234643
-0.0884812
-0.0781083
0.018568
0.105017
-0.000526846
0.104818
-0.00384067
0.10449
-0.00765157
0.104385
-0.00807226
0.104264
-0.00938103
0.103471
-0.0174796
0.101881
-0.0287199
0.10001
-0.0350882
0.0980673
-0.0368321
0.0953452
-0.042499
0.0908019
-0.0573428
0.0840174
-0.0774842
0.0754388
-0.0951064
0.0659456
-0.105376
0.0563464
-0.108061
0.0472293
-0.105321
0.0389772
-0.099269
0.0318192
-0.0913892
0.0257946
-0.0824565
-0.0731664
0.0208527
0.105006
-0.000532456
0.104797
-0.00363158
0.104427
-0.00728157
0.104215
-0.00786049
0.103976
-0.00914243
0.103096
-0.0165997
0.101402
-0.0270252
0.099344
-0.0330307
0.0971736
-0.0346616
0.0943236
-0.039649
0.0898753
-0.0528944
0.0833997
-0.0710086
0.0752388
-0.0869455
0.066191
-0.0963284
0.0570585
-0.0989281
0.0484133
-0.0966757
0.0405669
-0.0914225
0.0336865
-0.0845088
0.0277891
-0.0765591
-0.0682244
0.0228472
0.104995
-0.0005279
0.104775
-0.003411
0.104366
-0.00687292
0.104064
-0.00755827
0.103718
-0.00879662
0.102753
-0.0156344
0.100971
-0.0252431
0.0987753
-0.0308352
0.0964376
-0.032324
0.0934983
-0.0367097
0.0891378
-0.0485339
0.0829544
-0.0648252
0.0752441
-0.0792352
0.0667042
-0.0877884
0.0580253
-0.0902492
0.0497278
-0.0883782
0.0421258
-0.0838206
0.0354109
-0.0777939
0.0296002
-0.0707484
-0.0633135
0.0246893
0.104987
-0.00051445
0.104754
-0.00317825
0.10431
-0.00642876
0.103929
-0.0071778
0.10349
-0.00835724
0.102446
-0.0145911
0.100586
-0.0233829
0.0982855
-0.0285344
0.0958377
-0.0298762
0.0928519
-0.0337239
0.0885663
-0.0442483
0.0825896
-0.0588485
0.0751869
-0.0718326
0.0670147
-0.0796162
0.0587194
-0.081954
0.050773
-0.0804317
0.0434455
-0.076493
0.0369232
-0.0712716
0.0312187
-0.065044
-0.0584519
0.0263572
0.104979
-0.000493058
0.104734
-0.00293341
0.104257
-0.00595247
0.103809
-0.00672975
0.103289
-0.00783642
0.102175
-0.0134776
0.100249
-0.0214572
0.0978704
-0.0261554
0.0953419
-0.0273477
0.0923239
-0.0307059
0.0881155
-0.04004
0.0823458
-0.0530788
0.0752405
-0.0647273
0.067393
-0.0717687
0.0594025
-0.0739634
0.0517226
-0.0727519
0.0446108
-0.0693812
0.0382588
-0.0649196
0.0326619
-0.0594471
-0.0536695
0.0278795
0.104971
-0.000464541
0.104715
-0.00267722
0.10421
-0.00544736
0.103703
-0.00622304
0.103112
-0.00724531
0.101938
-0.0123032
0.0999569
-0.0194762
0.097517
-0.0237155
0.0949329
-0.0247636
0.0919036
-0.0276766
0.0877642
-0.0359006
0.0821518
-0.0474664
0.0752748
-0.0578503
0.0676942
-0.0641881
0.0599707
-0.06624
0.0525315
-0.0653126
0.0456152
-0.062465
0.0394259
-0.0587303
0.0339399
-0.0539611
-0.048997
0.0292673
0.104965
-0.000429716
0.104699
-0.00241063
0.104168
-0.00491668
0.10361
-0.00566554
0.102959
-0.00659369
0.101732
-0.0110767
0.0997061
-0.0174499
0.0972188
-0.0212282
0.0945936
-0.0221384
0.091561
-0.024644
0.0874886
-0.0318282
0.0820205
-0.0419983
0.075341
-0.0511709
0.0679785
-0.0568255
0.0604673
-0.0587288
0.0532221
-0.0580675
0.0464701
-0.055713
0.040432
-0.0526922
0.035058
-0.0485871
-0.0444765
0.0305375
0.10496
-0.00038933
0.104684
-0.00213472
0.104131
-0.00436366
0.103529
-0.00506424
0.102826
-0.00589047
0.101556
-0.00980659
0.0994927
-0.0153866
0.0969682
-0.0187037
0.0943137
-0.0194838
0.0912843
-0.0216146
0.0872701
-0.0278139
0.0819188
-0.036647
0.0753994
-0.0446515
0.0682161
-0.0496422
0.0608799
-0.0513926
0.0537944
-0.050982
0.0471792
-0.0490978
0.0412802
-0.0467931
0.0360174
-0.0433243
-0.0401649
0.0317058
0.104955
-0.000344073
0.104671
-0.00185069
0.104098
-0.00379144
0.10346
-0.0044255
0.102713
-0.00514371
0.101407
-0.00850038
0.0993134
-0.0132932
0.0967595
-0.0161499
0.094083
-0.0168073
0.0910596
-0.0185911
0.087097
-0.0238514
0.0818448
-0.0313948
0.0754561
-0.0382627
0.0684145
-0.0426006
0.0612139
-0.044192
0.0542514
-0.0440195
0.0477435
-0.0425899
0.0419682
-0.0410178
0.0368143
-0.0381704
-0.0361411
0.0327906
0.104951
-0.000294621
0.10466
-0.00155974
0.104071
-0.00320298
0.103401
-0.00375523
0.102618
-0.0043608
0.101282
-0.00716464
0.0991647
-0.0111757
0.0965877
-0.0135728
0.0938946
-0.0141142
0.0908777
-0.0155743
0.0869584
-0.019932
0.0817863
-0.0262227
0.0755007
-0.0319771
0.0685684
-0.0356684
0.0614686
-0.0370922
0.0545933
-0.0371442
0.0481607
-0.0361574
0.0424877
-0.0353448
0.0374381
-0.0331209
-0.0325148
0.0338118
0.104947
-0.000241639
0.10465
-0.00126308
0.104048
-0.00260112
0.103352
-0.00305906
0.10254
-0.00354843
0.10118
-0.0058051
0.0990437
-0.00903902
0.0964485
-0.0109776
0.0937426
-0.0114083
0.0907313
-0.012563
0.0868465
-0.0160473
0.0817371
-0.0211133
0.0755301
-0.0257701
0.0686773
-0.0288156
0.0616453
-0.0300602
0.0548198
-0.0303187
0.0484272
-0.0297647
0.0428226
-0.0297403
0.0378706
-0.0281688
-0.0294356
0.0347913
0.104944
-0.0001858
0.104643
-0.000961908
0.10403
-0.0019885
0.103314
-0.00234229
0.102478
-0.00271286
0.1011
-0.00442683
0.0989481
-0.00688733
0.0963386
-0.00836816
0.0936222
-0.00869188
0.0906146
-0.00955539
0.0867554
-0.0121881
0.0816927
-0.0160506
0.0755419
-0.0196193
0.0687416
-0.0220152
0.0617458
-0.0230644
0.0549314
-0.0235043
0.0485397
-0.0233731
0.0429478
-0.0241483
0.0380853
-0.0233063
-0.0270965
0.0357462
0.104942
-0.000127817
0.104638
-0.000657419
0.104017
-0.00136758
0.103284
-0.00161
0.102431
-0.00186001
0.101039
-0.00303436
0.0988757
-0.00472403
0.0962551
-0.00574758
0.0935298
-0.00596658
0.0905233
-0.00654885
0.0866809
-0.0083457
0.08165
-0.0110196
0.0755354
-0.0135048
0.0687633
-0.0152431
0.0617739
-0.016075
0.0549301
-0.0166604
0.0484912
-0.0169341
0.0428254
-0.0184826
0.0380474
-0.0185283
-0.0257161
0.0366671
0.104941
-6.84516e-05
0.104634
-0.000350759
0.104007
-0.000740667
0.103264
-0.000867062
0.1024
-0.000995562
0.100997
-0.00163197
0.0988253
-0.002552
0.0961958
-0.00311813
0.0934625
-0.00323325
0.0904543
-0.00354065
0.0866203
-0.00451179
0.0816077
-0.00600703
0.0755113
-0.00740834
0.0687462
-0.00847801
0.0617356
-0.00906439
0.0548226
-0.00974749
0.0482748
-0.0103863
0.0424031
-0.0126108
0.037706
-0.0138311
-0.0254594
0.0374492
0.10494
-8.58232e-06
0.104632
-4.29163e-05
0.104002
-0.000110016
0.103253
-0.000118196
0.102382
-0.000124938
0.100974
-0.000223808
0.0987957
-0.000373688
0.0961589
-0.000481331
0.0934181
-0.000492457
0.0904059
-0.000528436
0.0865729
-0.000678764
0.0815664
-0.00100057
0.0754715
-0.00131348
0.0686955
-0.00170195
0.0616388
-0.00200776
0.0546228
-0.00273144
0.0478885
-0.00365208
0.0416264
-0.00634875
0.0369424
-0.00914711
-0.026171
0.037654
0.104941
5.07466e-05
0.104633
0.000265205
0.104
0.000522323
0.10325
0.000632011
0.102379
0.000746361
0.100969
0.00118584
0.0987866
0.00180874
0.0961433
0.00216201
0.0933957
0.00225514
0.0903782
0.00248903
0.08654
0.00315948
0.0815281
0.00401136
0.0754194
0.00479519
0.0686167
0.0051007
0.0614936
0.00511539
0.0543513
0.0044108
0.0473416
0.00335767
0.0405036
0.000489301
0.035471
-0.00411453
-0.0261877
0.0354877
0.104942
0.000108969
0.104634
0.000572574
0.104004
0.00115298
0.103258
0.00137814
0.102391
0.00161261
0.100985
0.00259197
0.098803
0.00399098
0.0961562
0.0048088
0.0934049
0.00500646
0.0903819
0.00551199
0.0865321
0.00700931
0.0814989
0.00904457
0.0753583
0.0109358
0.068513
0.011946
0.0613146
0.0123138
0.0540308
0.0116947
0.0466508
0.0107377
0.0390489
0.00809115
0.0324874
0.00244696
0.0250538
-0.0187542
0.0122962
-0.0107991
0.011841
-0.0105896
0.0114002
-0.0103707
0.0109753
-0.0101551
0.0105666
-0.00994224
0.0101746
-0.00973232
0.00979944
-0.00952543
0.0094416
-0.00932164
0.00910177
-0.00912121
-0.00891989
0.00876864
0.0158065
-0.0102169
0.0152306
-0.0100136
0.0146772
-0.00981736
0.0141447
-0.00962257
0.013632
-0.00942959
0.0131381
-0.00923847
0.012662
-0.00904925
0.0122024
-0.00886205
0.0117581
-0.0086769
-0.00849573
0.0113339
0.0179948
-0.00964371
0.0174464
-0.00946523
0.016914
-0.00928497
0.0163974
-0.00910597
0.0158961
-0.00892822
0.0154095
-0.00875186
0.0149372
-0.00857702
0.014479
-0.00840379
0.0140343
-0.00823225
-0.00806164
0.0136002
0.020264
-0.00905502
0.0196879
-0.00888917
0.0191277
-0.00872474
0.0185828
-0.00856105
0.0180528
-0.00839825
0.0175374
-0.00823644
0.0170361
-0.00807572
0.0165485
-0.00791619
0.0160742
-0.00775794
-0.00760132
0.0156138
0.0222522
-0.00846002
0.0216734
-0.00831043
0.0211091
-0.00816039
0.0205588
-0.00801073
0.020022
-0.00786153
0.0194985
-0.0077129
0.0189878
-0.00756497
0.0184894
-0.00741783
0.018003
-0.00727159
-0.00712616
0.0175279
0.0240928
-0.0078636
0.0235092
-0.00772677
0.0229385
-0.00758973
0.0223805
-0.0074527
0.0218348
-0.0073158
0.021301
-0.00717913
0.0207788
-0.00704282
0.020268
-0.00690698
0.0197681
-0.00677171
-0.0066371
0.0192791
0.0257619
-0.00726833
0.025179
-0.00714382
0.0246078
-0.00701856
0.024048
-0.00689295
0.0234993
-0.0067671
0.0229613
-0.00664113
0.0224337
-0.00651516
0.021916
-0.00638932
0.021408
-0.00626372
-0.00613839
0.0209093
0.0272898
-0.00667863
0.0267109
-0.00656486
0.0261423
-0.00645002
0.0255838
-0.00633444
0.025035
-0.00621823
0.0244953
-0.00610151
0.0239646
-0.00598443
0.0234424
-0.00586712
0.0229284
-0.00574971
-0.00563226
0.0224223
0.0286873
-0.00609856
0.0281167
-0.00599431
0.0275552
-0.00588848
0.0270022
-0.00578144
0.0264572
-0.00567329
0.0259199
-0.00556417
0.0253897
-0.00545427
0.0248664
-0.00534373
0.0243493
-0.0052327
-0.00512125
0.0238383
0.0299725
-0.00553356
0.0294155
-0.0054373
0.0288658
-0.00533885
0.0283229
-0.00523855
0.0277862
-0.00513654
0.027255
-0.00503299
0.0267289
-0.00492812
0.0262073
-0.00482212
0.0256897
-0.00471516
-0.00460732
0.0251758
0.0311628
-0.0049905
0.0306259
-0.00490047
0.0300945
-0.00480737
0.0295675
-0.00471158
0.0290442
-0.00461326
0.0285238
-0.00451263
0.0280057
-0.00440997
0.0274891
-0.00430555
0.0269735
-0.00419958
-0.00409213
0.0264584
0.0322786
-0.00447855
0.0317706
-0.00439248
0.0312654
-0.00430209
0.0307616
-0.00420783
0.0302582
-0.00410988
0.0297542
-0.00400856
0.0292484
-0.00390425
0.0287402
-0.00379733
0.0282287
-0.00368809
-0.00357656
0.0277132
0.0333431
-0.00400985
0.0328753
-0.00392464
0.0324065
-0.00383333
0.0319351
-0.00373643
0.0314595
-0.0036342
0.030978
-0.00352708
0.0304894
-0.00341565
0.0299925
-0.00330046
0.0294863
-0.0031819
-0.00305995
0.0289697
0.0343813
-0.00359989
0.0339678
-0.0035111
0.0335481
-0.0034136
0.0331197
-0.00330803
0.0326802
-0.00319476
0.0322276
-0.00307446
0.03176
-0.00294799
0.0312757
-0.00281622
0.0307736
-0.00267974
-0.00253837
0.030252
0.0354131
-0.0032668
0.0350695
-0.00316748
0.0347117
-0.0030558
0.0343362
-0.00293252
0.0339396
-0.00279825
0.0335192
-0.00265405
0.0330725
-0.00250128
0.0325976
-0.00234124
0.0320926
-0.0021748
-0.00200153
0.0315558
0.0364256
-0.00302533
0.0361627
-0.00290454
0.035873
-0.00276608
0.0355519
-0.00261144
0.0351954
-0.00244183
0.0348004
-0.00225904
0.0343642
-0.00206508
0.0338848
-0.00186178
0.0333601
-0.00165014
-0.00142904
0.0327876
0.0372836
-0.00285973
0.0370824
-0.00270327
0.0368361
-0.00251984
0.0365407
-0.00231605
0.0361934
-0.00209446
0.0357923
-0.00185794
0.0353361
-0.00160895
0.0348234
-0.00134902
0.0342512
-0.00107799
-0.00079235
0.0336145
0.0374684
-0.00267413
0.0372068
-0.00244175
0.0368791
-0.0021921
0.0364895
-0.00192643
0.0360444
-0.00164938
0.0355503
-0.00136384
0.0350116
-0.00107023
0.0344285
-0.000765962
0.033795
-0.000444448
-9.42725e-05
0.0330969
0.0349276
-0.00211398
0.0342756
-0.00178975
0.0335679
-0.00148438
0.0328435
-0.00120205
0.0321334
-0.000939315
0.0314597
-0.000690125
0.0308343
-0.000444837
0.030257
-0.00018868
0.0297053
0.000107229
0.000498276
0.0291128
0.0229399
0.0211501
0.0196657
0.0184637
0.0175244
0.0168342
0.0163894
0.0162007
0.0163079
0.0168062
0.00724246
-0.0396569
0.00602305
-0.0355501
0.00503345
-0.0317304
0.00422497
-0.028216
0.00356153
-0.0250057
0.00301565
-0.0220896
0.00256576
-0.0194516
0.00219459
-0.0170715
0.0018882
-0.0149269
0.00163528
-0.0129944
0.0014267
-0.0112504
0.00125508
-0.00967183
0.00111452
-0.00823639
0.0010003
-0.00692305
0.000908769
-0.00571198
0.000837126
-0.00458512
0.000783313
-0.00352832
0.000745736
-0.00253883
0.000722881
-0.00164807
-0.000989473
0.00958527
-0.0379082
0.00809603
-0.0340609
0.00684311
-0.0304774
0.00579295
-0.0271658
0.00491525
-0.024128
0.00418301
-0.0213574
0.00357288
-0.0188415
0.00306509
-0.0165637
0.00264298
-0.0145048
0.0022926
-0.0126441
0.0020024
-0.0109602
0.00176282
-0.00943225
0.00156609
-0.00803966
0.00140595
-0.0067629
0.00127745
-0.00558348
0.00117687
-0.00448453
0.00110144
-0.0034529
0.00104906
-0.00248645
0.0010173
-0.00161631
-0.000972714
0.011682
-0.03599
0.0100343
-0.0324132
0.00861865
-0.0290618
0.00740548
-0.0259526
0.0063685
-0.0230911
0.00548495
-0.0204739
0.0047347
-0.0180912
0.0040998
-0.0159288
0.00356431
-0.0139693
0.00311426
-0.012194
0.0027375
-0.0105835
0.00242368
-0.00911843
0.00216408
-0.00778007
0.00195154
-0.00655036
0.0017803
-0.00541225
0.00164596
-0.00435018
0.00154518
-0.00335213
0.0014753
-0.00241657
0.00143276
-0.00157377
-0.000949175
0.0136084
-0.0339845
0.0118441
-0.030649
0.0102985
-0.0275161
0.00894917
-0.0246033
0.0077764
-0.0219183
0.00676186
-0.0194593
0.00588839
-0.0172177
0.00513993
-0.0151803
0.00450158
-0.013331
0.00395973
-0.0116522
0.00350219
-0.0101259
0.00311822
-0.00873446
0.00279861
-0.00746045
0.00253562
-0.00628737
0.00232295
-0.00519959
0.00215568
-0.00418291
0.00203002
-0.00322647
0.00194271
-0.00232926
0.00188918
-0.00152024
-0.000918903
0.0154203
-0.0318769
0.0135442
-0.0287729
0.0118783
-0.0258501
0.0104051
-0.0231302
0.00910922
-0.0206224
0.00797587
-0.018326
0.00699051
-0.0162324
0.00613876
-0.0143286
0.00540663
-0.0125988
0.00478085
-0.0110264
0.00424917
-0.00959426
0.00380059
-0.00828588
0.00342547
-0.00708534
0.00311564
-0.00597753
0.00286433
-0.00494828
0.00266618
-0.00398476
0.00251697
-0.00307725
0.00241289
-0.00222518
0.0023485
-0.00145585
-0.00088196
0.0170985
-0.0296963
0.0151276
-0.0268021
0.0133538
-0.0240763
0.0117668
-0.0215432
0.010357
-0.0192126
0.0091137
-0.0170827
0.00802518
-0.0151439
0.00707855
-0.0133819
0.00626054
-0.0117808
0.00555804
-0.0103239
0.00495866
-0.00899488
0.00445106
-0.00777827
0.00402518
-0.00665946
0.0036724
-0.00562476
0.00338555
-0.00466142
0.00315882
-0.00375803
0.00298757
-0.00290601
0.00286753
-0.00210513
0.00279255
-0.00138087
-0.000838459
0.0186628
-0.0274498
0.0166041
-0.0247434
0.0147282
-0.0222004
0.0130331
-0.019848
0.0115154
-0.0176949
0.0101689
-0.0157363
0.00898445
-0.0139594
0.00795037
-0.0123479
0.00705379
-0.0108842
0.00628151
-0.00955161
0.00562076
-0.00833413
0.00505975
-0.00721726
0.00458795
-0.00618766
0.00419625
-0.00523306
0.00387706
-0.00434223
0.00362418
-0.00350515
0.00343256
-0.00271439
0.0032975
-0.00197007
0.00321235
-0.00129572
-0.000788607
0.0201209
-0.0251484
0.0179795
-0.022602
0.0160043
-0.0202252
0.0142035
-0.0180473
0.0125815
-0.016073
0.011137
-0.0142917
0.00986276
-0.0126852
0.00874816
-0.0112332
0.00778015
-0.00991623
0.00694502
-0.00871648
0.00622935
-0.00761846
0.0056207
-0.00660861
0.00510795
-0.00567491
0.00468153
-0.00480664
0.00433337
-0.00399408
0.00405691
-0.00322869
0.00384674
-0.00250423
0.00369781
-0.00182114
0.00360308
-0.00120098
-0.000732724
0.0214874
-0.0227975
0.0192627
-0.0203773
0.0171855
-0.018148
0.0152776
-0.0161393
0.0135524
-0.0143477
0.0120132
-0.0127525
0.0106549
-0.0113269
0.00946665
-0.010045
0.00843451
-0.0088841
0.00754373
-0.0078257
0.00677986
-0.00685459
0.00612959
-0.00595834
0.00558113
-0.00512645
0.00512435
-0.00434986
0.00475079
-0.00362052
0.00445351
-0.00293141
0.0042268
-0.00227751
0.00406532
-0.00165966
0.00396178
-0.00109745
-0.000671239
0.022777
-0.0203987
0.0204624
-0.0180626
0.0182747
-0.0159603
0.0162536
-0.0141182
0.0144235
-0.0125176
0.0127923
-0.0111213
0.0113554
-0.00989003
0.0101006
-0.00879016
0.00901212
-0.00779565
0.0080734
-0.00688698
0.00726849
-0.00604968
0.00658299
-0.00527283
0.00600432
-0.00454778
0.00552181
-0.00386735
0.00512658
-0.00322529
0.00481141
-0.00261623
0.00457032
-0.00203643
0.0043978
-0.00148714
0.00428637
-0.000986026
-0.000604682
0.024007
-0.0179474
0.0215868
-0.0156425
0.0192725
-0.013646
0.0171273
-0.011973
0.0151882
-0.0105786
0.013467
-0.00940011
0.0119575
-0.00838055
0.0106443
-0.00747697
0.00950833
-0.00665964
0.00853017
-0.00590882
0.00769199
-0.0052115
0.00697807
-0.00455891
0.006375
-0.00394471
0.00587158
-0.00336393
0.00545861
-0.00281232
0.00512861
-0.00228624
0.00487547
-0.00178329
0.00469354
-0.0013052
0.00457528
-0.00086777
-0.000533661
0.0251944
-0.0154286
0.0226415
-0.0130895
0.0201753
-0.0111799
0.01789
-0.00968762
0.0158366
-0.00852517
0.0140281
-0.00759163
0.0124537
-0.00680617
0.011092
-0.00611519
0.00991859
-0.00548626
0.00891056
-0.00490079
0.00804761
-0.00434856
0.00731257
-0.00382388
0.00669122
-0.00332336
0.00617192
-0.00284463
0.00574525
-0.00238565
0.00540362
-0.00194462
0.00514085
-0.00152051
0.00495124
-0.00111559
0.00482729
-0.000743823
-0.000458848
0.0263517
-0.0128106
0.0236231
-0.0103609
0.0209702
-0.00852697
0.0185253
-0.00724269
0.0163531
-0.00635294
0.0144631
-0.00570164
0.0128348
-0.00517786
0.0114371
-0.00471749
0.0102386
-0.00428777
0.00921163
-0.00387384
0.00833326
-0.00347019
0.00758489
-0.0030755
0.00695163
-0.00269011
0.00642162
-0.00231461
0.00598538
-0.00194941
0.00563536
-0.0015946
0.00536542
-0.00125057
0.00516994
-0.000920115
0.00504151
-0.000615393
-0.000380951
0.0274746
-0.0100333
0.0245088
-0.00739519
0.0216268
-0.0056449
0.0190041
-0.00461997
0.0167144
-0.00406329
0.0147555
-0.00374271
0.01309
-0.0035124
0.0116732
-0.00330069
0.0104646
-0.00307912
0.00943124
-0.00284051
0.00854766
-0.0025866
0.00779415
-0.00232199
0.00715555
-0.0020515
0.00662004
-0.00177911
0.00617836
-0.00150773
0.00582318
-0.00123942
0.00554855
-0.000975946
0.00534901
-0.00072058
0.00521734
-0.000483721
-0.000300691
0.0285149
-0.00699241
0.0252346
-0.00411484
0.0220828
-0.00249315
0.019277
-0.00181412
0.0168868
-0.00167313
0.0148847
-0.00174058
0.0132081
-0.00183579
0.0117947
-0.00188731
0.010594
-0.00187848
0.00956848
-0.00181494
0.00869061
-0.00170874
0.00794041
-0.00157179
0.00730301
-0.00141411
0.00676713
-0.00124323
0.00632404
-0.00106463
0.00596683
-0.00088221
0.00568993
-0.000699042
0.00548812
-0.000518776
0.00535446
-0.000350059
-0.000218762
0.0293242
-0.00352904
0.025657
-0.000447564
0.022223
0.000940801
0.0192657
0.00114325
0.016824
0.000768522
0.0148265
0.000256898
0.0131779
-0.000187163
0.0117975
-0.000506885
0.0106264
-0.000707373
0.00962413
-0.000812698
0.00876331
-0.000847917
0.00802476
-0.000833236
0.00739488
-0.00078423
0.0068635
-0.000711847
0.00642276
-0.000623898
0.00606649
-0.000525932
0.00578959
-0.000422147
0.00558722
-0.000316407
0.00545282
-0.000215657
-0.000135789
0.0295437
0.000541836
0.0254961
0.00360003
0.021851
0.00458584
0.0188574
0.00413683
0.0164704
0.00315552
0.014557
0.00217031
0.0129918
0.00137804
0.0116815
0.000803481
0.0105641
0.000409965
0.0096013
0.000150138
0.00876857
-1.51854e-05
0.00804941
-0.000114081
0.0074328
-0.000167621
0.0069103
-0.000189343
0.00647535
-0.00018895
0.00612268
-0.000173259
0.00584789
-0.000147367
0.00564653
-0.000115038
0.00551265
-8.17781e-05
-5.22485e-05
0.0284296
0.00520919
0.0242485
0.0077811
0.0206704
0.00816392
0.0179145
0.0068927
0.0157715
0.00529856
0.0140638
0.003878
0.0126537
0.00278816
0.0114545
0.00200262
0.0104151
0.00144941
0.00950622
0.00105902
0.00871062
0.000780421
0.00801763
0.000578902
0.00741917
0.000430837
0.00690925
0.000320577
0.006483
0.000237303
0.00613625
0.000173496
0.00586545
0.000123433
0.00566645
8.39595e-05
0.00553443
5.02418e-05
3.16432e-05
0.024593
0.009729
0.021142
0.0112321
0.0183542
0.0109517
0.0163387
0.00890814
0.0147171
0.00692014
0.0133637
0.00523142
0.0121839
0.00396794
0.011134
0.00305251
0.0101922
0.00239128
0.00934831
0.00190288
0.00859692
0.00153181
0.00793438
0.00124145
0.00735734
0.00100788
0.00686266
0.000815256
0.00644733
0.000652634
0.00610834
0.000512479
0.00584308
0.000388695
0.0056476
0.000279442
0.00551884
0.000179007
0.000115894
0.0165063
0.0100289
0.0157645
0.011974
0.0149718
0.0117444
0.0142658
0.00961411
0.0134184
0.00776753
0.012535
0.00611478
0.0116321
0.00487085
0.0107512
0.00393344
0.00991506
0.00322743
0.00914008
0.00267785
0.00843515
0.00223673
0.00780493
0.00187167
0.00725101
0.0015618
0.0067732
0.00129307
0.00637035
0.00105548
0.00604049
0.000842334
0.00578216
0.000647028
0.00559079
0.000470814
0.00546621
0.000303587
0.000199136
0.00268712
0.00734181
0.0033293
0.0113318
0.00364312
0.0114306
0.00368715
0.00957008
0.00359853
0.00785614
0.00342911
0.0062842
0.00321991
0.00508005
0.00299692
0.00415643
0.00277605
0.0034483
0.0025664
0.0028875
0.00237311
0.00243003
0.00219884
0.00204593
0.00204486
0.00171577
0.00191159
0.00142635
0.00179894
0.00116813
0.00170663
0.000934644
0.00163409
0.00071957
0.00158088
0.000524023
0.00154418
0.000340286
0.000218978
0.00198784
0.00535397
0.00286849
0.0104511
0.00338026
0.0109188
0.0035256
0.00942475
0.0035002
0.00788154
0.0033642
0.0064202
0.00317499
0.00526927
0.00296378
0.00436764
0.00275037
0.0036617
0.00254566
0.00309221
0.00235579
0.00261989
0.00218402
0.00221771
0.0020319
0.00186789
0.00190006
0.00155819
0.00178851
0.00127968
0.00169707
0.00102608
0.00162511
0.000791528
0.00157251
0.000576624
0.00153593
0.000376865
0.000238265
0.00146678
0.00388719
0.00249547
0.00942245
0.00314524
0.010269
0.00338034
0.00918965
0.00340857
0.00785331
0.00330275
0.00652602
0.00313138
0.00544063
0.00293094
0.00456808
0.00272441
0.00386824
0.00252431
0.00329231
0.00233771
0.00280649
0.00216833
0.00238708
0.00201804
0.00201818
0.00188761
0.00168863
0.00177717
0.00139012
0.0016866
0.00111665
0.00161528
0.000862841
0.00156319
0.000628715
0.00152704
0.000413014
0.000257526
0.00109879
0.0027884
0.00220196
0.00831928
0.00294681
0.00952419
0.00325265
0.00888382
0.00332529
0.00778066
0.00324524
0.00660608
0.00308943
0.00559644
0.00289856
0.00475895
0.00269825
0.00406855
0.00250241
0.00348815
0.00231889
0.00299002
0.00215182
0.00255415
0.00200332
0.00216668
0.00187429
0.00181765
0.00176496
0.00149945
0.00167527
0.00120634
0.00160462
0.000933489
0.00155305
0.000680286
0.00151731
0.000448749
0.000276697
0.000858854
0.00192955
0.00198562
0.00719251
0.00278815
0.00872166
0.00314489
0.00852708
0.00325161
0.00767394
0.00319232
0.00666537
0.00304946
0.00573929
0.0028668
0.00494161
0.00267199
0.00426335
0.00248003
0.00368012
0.00229937
0.00317068
0.00213451
0.00271901
0.00198774
0.00231345
0.0018601
0.00194529
0.00175188
0.00160767
0.00166308
0.00129515
0.00159312
0.00100345
0.00154208
0.00073133
0.00150675
0.000484073
0.000295736
0.000728685
0.00120087
0.0018435
0.0060777
0.00267083
0.00789433
0.00305848
0.00813943
0.00318844
0.00754398
0.00314447
0.00670934
0.00301172
0.00587205
0.0028358
0.00511753
0.00264571
0.00445344
0.0024572
0.00386862
0.00227919
0.00334869
0.00211642
0.00288178
0.00197133
0.00245854
0.00184506
0.00207156
0.00173795
0.00171478
0.00165005
0.00138305
0.0015808
0.0010727
0.00153029
0.000781835
0.00149537
0.000518996
0.000314602
0.000696701
0.000504164
0.00177258
0.00500182
0.00259511
0.0070718
0.00299407
0.00774047
0.00313629
0.00740176
0.00310201
0.00674362
0.00297639
0.00599767
0.00280566
0.00528825
0.00261946
0.00463965
0.00243397
0.00405412
0.00225836
0.00352429
0.00209756
0.00304259
0.0019541
0.002602
0.00182918
0.00219648
0.00172318
0.00182077
0.00163619
0.00147004
0.00156766
0.00114124
0.0015177
0.00083179
0.00148317
0.000553527
0.000333251
0.000758732
-0.000254568
0.0017703
0.00399025
0.00256022
0.00628188
0.00295167
0.00734902
0.00309534
0.00725809
0.00306508
0.00677388
0.00294356
0.00611919
0.00277645
0.00545536
0.00259329
0.00482281
0.00241036
0.00423705
0.00223692
0.00369773
0.00207795
0.00320155
0.00193606
0.0027439
0.00181246
0.00232008
0.00170758
0.00192566
0.00162149
0.00155613
0.0015537
0.00120903
0.00150431
0.000881185
0.00147016
0.000587672
0.000351646
0.000918264
-0.00117283
0.00183497
0.00307354
0.00256463
0.00555222
0.00293064
0.00698301
0.00306542
0.0071233
0.00303366
0.00680564
0.00291326
0.0062396
0.00274819
0.00562042
0.00256722
0.00500378
0.00238638
0.00441789
0.00221486
0.00386926
0.00205761
0.00335881
0.00191722
0.00288429
0.00179492
0.00244237
0.00169114
0.00202943
0.00160598
0.00164129
0.00153894
0.00127606
0.00149012
0.000930011
0.00145634
0.000621445
0.000369737
0.00118484
-0.00235767
0.00196905
0.00228933
0.0026045
0.00491678
0.00293078
0.00665673
0.00304594
0.00700815
0.00300772
0.00684387
0.00288543
0.00636189
0.00272088
0.00578497
0.00254125
0.00518342
0.00236206
0.00459708
0.0021922
0.00403911
0.00203653
0.00351448
0.00189757
0.00302324
0.00177655
0.0025634
0.00167388
0.0021321
0.00158963
0.00172555
0.00152339
0.0013423
0.00147507
0.000978329
0.00144187
0.000654647
0.000387857
0.0043241
-0.00292608
-0.00375569
0.00541859
0.00119484
0.00639532
0.00394005
0.00697125
0.0060808
0.00711912
0.00686028
0.00698738
0.0069756
0.00668093
0.00666833
0.00629048
0.00617542
0.00587018
0.00560371
0.00545369
0.00501357
0.00506003
0.00443277
0.00469984
0.00387467
0.00437866
0.00334442
0.00409912
0.00284295
0.00386217
0.00236904
0.0036677
0.00192002
0.00351544
0.00149456
0.00340311
0.00109066
0.00333032
0.000727442
0.000435861
0.00716868
-0.00126422
-0.00883053
0.00697567
0.00138784
0.00712265
0.00379307
0.00725497
0.00594847
0.00717266
0.00694259
0.00692568
0.00722259
0.00656646
0.00702755
0.006154
0.00658789
0.00572744
0.00603027
0.00531235
0.00542866
0.00492373
0.0048214
0.00457006
0.00422834
0.00425577
0.00365871
0.00398284
0.00311587
0.00375191
0.00259997
0.0035627
0.00210923
0.00341477
0.00164249
0.00330606
0.00119937
0.00323549
0.000798008
0.000482154
0.00990698
0.00167246
-0.0128437
0.00861997
0.00267485
0.00798391
0.00442913
0.00763687
0.00629552
0.00728905
0.0072904
0.00689925
0.00761239
0.00646858
0.00745822
0.00602256
0.00703392
0.00558277
0.00647005
0.00516504
0.00584639
0.00477919
0.00520725
0.00443086
0.00457666
0.00412291
0.00396667
0.00385642
0.00338236
0.00363152
0.00282487
0.00344769
0.00229307
0.00330423
0.00178595
0.00319925
0.00130436
0.00313084
0.000866419
0.000526116
0.0121661
0.00524532
-0.015739
0.0100911
0.00474985
0.00881935
0.00570091
0.00803401
0.00708086
0.00742473
0.00789969
0.00688593
0.00815119
0.00637606
0.00796809
0.0058904
0.00751958
0.00543321
0.00692724
0.00501024
0.00626937
0.00462566
0.00559183
0.0042819
0.00492042
0.00397995
0.00426861
0.00371985
0.00364246
0.00350107
0.00304365
0.00332274
0.00247139
0.00318393
0.00192476
0.00308278
0.00140551
0.0030168
0.0009324
0.000567829
0.0137778
0.0089796
-0.0175121
0.0112373
0.00729032
0.00951691
0.00742131
0.00837916
0.00821861
0.00754152
0.00873733
0.00686468
0.00882803
0.00627747
0.00855529
0.00575133
0.00804572
0.00527541
0.00740316
0.00484615
0.00669862
0.00446222
0.00597576
0.00412276
0.00525989
0.00382678
0.00456459
0.00357317
0.00389608
0.00336069
0.00325613
0.00318807
0.00264401
0.0030541
0.00205873
0.0029569
0.0015027
0.00289358
0.000995723
0.000607338
0.01475
0.012586
-0.0183564
0.0120077
0.0100327
0.0100163
0.00941269
0.00862769
0.00960722
0.00761064
0.00975437
0.00681803
0.00962064
0.00616259
0.00921074
0.00559943
0.00860888
0.00510601
0.00789658
0.00467093
0.0071337
0.0042879
0.00635878
0.00395297
0.00559482
0.00366325
0.00485431
0.00341641
0.00414291
0.00321052
0.00346203
0.00304387
0.00281066
0.00291496
0.00218764
0.00282186
0.0015958
0.0027614
0.00105619
0.000644671
0.0151769
0.0159224
-0.0185134
0.0124172
0.0127924
0.0102997
0.0115303
0.00875657
0.0111503
0.00761359
0.0108974
0.0067331
0.0105011
0.0060231
0.00992073
0.00542959
0.00920239
0.00492195
0.00840422
0.00448279
0.00757286
0.00410173
0.00673985
0.00377207
0.00592448
0.00348918
0.0051372
0.00324961
0.00438248
0.0030507
0.00366094
0.00289034
0.00297102
0.00276676
0.00231122
0.00267792
0.00168464
0.00262048
0.00111363
0.000679827
0.0151778
0.0189442
-0.0181996
0.0125142
0.015456
0.0103766
0.0136679
0.00875963
0.0127673
0.00754096
0.012116
0.00660159
0.0114405
0.00585292
0.0106694
0.00523767
0.00981764
0.0047206
0.00892129
0.00428017
0.00801329
0.00390283
0.00711719
0.00357965
0.00624766
0.00330446
0.00541238
0.00307282
0.00461413
0.00288141
0.00385235
0.00272772
0.00312471
0.00260975
0.00242919
0.00252535
0.00176904
0.00247108
0.0011679
0.000712785
0.0148654
0.0216609
-0.0175821
0.0123576
0.0179637
0.0102709
0.0157546
0.00864171
0.0143964
0.00739022
0.0133675
0.0064191