/*--------------------------------*- C++ -*----------------------------------*\
| =========                 |                                                 |
| \\      /  F ield         | OpenFOAM: The Open Source CFD Toolbox           |
|  \\    /   O peration     | Version:  v1806                                 |
|   \\  /    A nd           | Web:      www.OpenFOAM.com                      |
|    \\/     M anipulation  |                                                 |
\*---------------------------------------------------------------------------*/
FoamFile
{
    version     2.0;
    format      ascii;
    class       surfaceScalarField;
    location    "12";
    object      phi;
}
// * * * * * * * * * * * * * * * * * * * * * * * * * * * * * * * * * * * * * //

dimensions      [0 3 -1 0 0 0 0];
oriented        oriented;


internalField   nonuniform List<scalar> 
4680
(
1.04988
-0.000897275
1.04964
-0.00741883
1.0502
-0.00765278
1.05033
-0.00573741
1.04973
-0.0143825
1.04945
-0.0249223
1.04957
-0.0253556
1.04966
-0.018687
1.04979
-0.0240767
1.04978
-0.0477606
1.04926
-0.0555137
1.0494
-0.0345247
1.05039
-0.0364676
1.04925
-0.0732828
1.04739
-0.0858101
1.04838
-0.0634556
1.05068
-0.0630209
1.05219
-0.0897384
1.05442
-0.104659
-0.103424
1.05303
1.04982
-0.000717883
1.04978
-0.00737735
1.05019
-0.00806175
1.05004
-0.00558817
1.04954
-0.0138861
1.04888
-0.0242633
1.04897
-0.0254425
1.04946
-0.0191753
1.0496
-0.024215
1.0492
-0.0473589
1.04805
-0.0543716
1.04793
-0.0343974
1.04919
-0.0377354
1.0484
-0.0724842
1.04674
-0.08415
1.04811
-0.0648268
1.04992
-0.0648371
1.04757
-0.0873904
1.04279
-0.099876
-0.103579
1.04295
1.04997
-0.000691838
1.05006
-0.00746054
1.04967
-0.00767684
1.04954
-0.00545189
1.04928
-0.0136312
1.04846
-0.0234377
1.04892
-0.025905
1.04946
-0.0197199
1.04905
-0.0238066
1.04802
-0.0463246
1.04651
-0.052857
1.0465
-0.0343893
1.04801
-0.0392507
1.04786
-0.0723269
1.04644
-0.0827355
1.04632
-0.0647105
1.04804
-0.0665545
1.05088
-0.0902245
1.05405
-0.103048
-0.102454
1.05292
1.05018
-0.00086796
1.04971
-0.00699177
1.04899
-0.00696162
1.04945
-0.00591008
1.04928
-0.0134583
1.04845
-0.0226105
1.04894
-0.0263965
1.0488
-0.0195812
1.04788
-0.0228796
1.04658
-0.045032
1.04519
-0.0514624
1.04562
-0.0348236
1.04798
-0.0416068
1.04714
-0.0714883
1.04531
-0.0809021
1.04484
-0.0642434
1.04757
-0.069289
1.04594
-0.0885933
1.04301
-0.100117
-0.102211
1.04277
1.04995
-0.000817471
1.04932
-0.00636242
1.04852
-0.00616078
1.04978
-0.00717513
1.04928
-0.0129509
1.04864
-0.0219709
1.04777
-0.0255248
1.0477
-0.0195139
1.04667
-0.0218542
1.04631
-0.0446694
1.04394
-0.049096
1.0458
-0.0366832
1.04659
-0.042392
1.04573
-0.0706279
1.04252
-0.077697
1.04402
-0.0657371
1.04644
-0.0717095
1.05012
-0.0922779
1.05129
-0.101289
-0.103369
1.05245
1.04977
-0.000587765
1.04875
-0.00534399
1.04899
-0.00639833
1.04971
-0.00789866
1.04955
-0.0127879
1.04787
-0.0202958
1.04678
-0.0244314
1.04608
-0.0188097
1.04675
-0.0225238
1.04568
-0.0436063
1.04345
-0.0468603
1.04419
-0.0374249
1.04477
-0.0429704
1.04326
-0.0691174
1.04136
-0.0758027
1.04303
-0.0673993
1.04605
-0.0747318
1.04852
-0.0947457
1.05004
-0.102818
-0.105183
1.05186
1.04925
0.000160082
1.04927
-0.00536206
1.04929
-0.00641995
1.04912
-0.00772838
1.04884
-0.0125066
1.04727
-0.0187239
1.04579
-0.02295
1.04533
-0.018354
1.04677
-0.0239613
1.04479
-0.0416317
1.04216
-0.0442245
1.04198
-0.0372421
1.0429
-0.0438952
1.04145
-0.0676637
1.04085
-0.0752085
1.04159
-0.0681392
1.04456
-0.0776973
1.04196
-0.0921435
1.04056
-0.101418
-0.106763
1.04214
1.04873
0.00142528
1.05012
-0.00674481
1.04835
-0.00465012
1.0484
-0.00777592
1.04757
-0.0116773
1.04729
-0.0184448
1.04534
-0.0210005
1.04558
-0.0185975
1.04527
-0.0236491
1.04362
-0.0399815
1.04001
-0.0406132
1.0405
-0.0377316
1.04066
-0.044058
1.04057
-0.0675776
1.03804
-0.0726717
1.03886
-0.0689596
1.04157
-0.0804106
1.0454
-0.0959732
1.05079
-0.106812
-0.107869
1.0519
1.04827
0.00315076
1.04992
-0.00838618
1.04731
-0.00203987
1.0484
-0.00887186
1.04689
-0.0101623
1.0474
-0.0189555
1.04518
-0.0187874
1.04501
-0.0184213
1.04314
-0.0217814
1.04211
-0.0389552
1.03858
-0.0370823
1.03932
-0.038473
1.03872
-0.043452
1.03818
-0.0670352
1.03532
-0.0698106
1.03695
-0.0705981
1.04006
-0.0835162
1.03932
-0.0952322
1.0386
-0.106094
-0.110908
1.04164
1.04714
0.00601387
1.04965
-0.0108974
1.0465
0.00111326
1.0492
-0.0115728
1.04594
-0.00690569
1.04742
-0.0204335
1.04371
-0.0150777
1.04428
-0.0189976
1.04084
-0.0183365
1.04187
-0.0399894
1.03675
-0.0319639
1.03882
-0.0405416
1.03535
-0.0399759
1.03619
-0.0678748
1.032
-0.0656245
1.03458
-0.0731759
1.03683
-0.0857725
1.04086
-0.099262
1.0484
-0.113629
-0.11397
1.05146
1.04603
0.00998748
1.04992
-0.014789
1.04646
0.00457413
1.04955
-0.0146658
1.04483
-0.00218648
1.04695
-0.0225575
1.04186
-0.00998233
1.04408
-0.0212213
1.03968
-0.013933
1.04161
-0.0419147
1.03389
-0.0242533
1.03805
-0.0446933
1.03148
-0.0334063
1.03451
-0.0709104
1.02809
-0.0592055
1.03319
-0.0782723
1.03278
-0.0853673
1.03363
-0.100109
1.03609
-0.116083
-0.118063
1.04018
1.04555
0.0144364
1.05058
-0.0198206
1.04575
0.00940696
1.04927
-0.0181822
1.04381
0.00327355
1.04663
-0.0253837
1.04086
-0.00421452
1.0445
-0.0248563
1.03797
-0.00740467
1.04091
-0.0448532
1.03071
-0.014052
1.03743
-0.0514148
1.02708
-0.0230603
1.03321
-0.0770339
1.02244
-0.0484419
1.03106
-0.0868837
1.0268
-0.0811156
1.03532
-0.108626
1.04403
-0.124791
-0.123617
1.04958
1.04553
0.018911
1.05049
-0.0247894
1.04477
0.0151337
1.04932
-0.0227373
1.04364
0.00895171
1.04679
-0.0285253
1.04033
0.00223963
1.04409
-0.0286126
1.03606
0.000618535
1.04003
-0.0488226
1.02826
-0.0022817
1.03646
-0.0596099
1.02272
-0.0093214
1.03129
-0.0856
1.01626
-0.033416
1.02851
-0.0991355
1.01936
-0.0719621
1.0318
-0.121071
1.03475
-0.127742
-0.134973
1.04611
1.04561
0.0233036
1.05028
-0.0294646
1.04496
0.0204592
1.04953
-0.0273136
1.04384
0.0146467
1.04623
-0.0309185
1.03999
0.00848166
1.04304
-0.0316588
1.0352
0.00845719
1.0387
-0.0523265
1.02645
0.00996995
1.03459
-0.0677551
1.01855
0.00671932
1.02883
-0.0958771
1.00957
-0.0141586
1.0247
-0.114263
1.01019
-0.057455
1.02718
-0.138055
1.02689
-0.127454
-0.150028
1.04195
1.04606
0.0272407
1.05088
-0.0342827
1.0456
0.025738
1.04919
-0.0309005
1.04362
0.0202132
1.04603
-0.0333302
1.0392
0.0153113
1.04282
-0.0352707
1.03457
0.0167032
1.03737
-0.0551274
1.02484
0.0224981
1.03296
-0.0758728
1.01465
0.0250317
1.0257
-0.10693
1.00262
0.00892222
1.02039
-0.132028
0.998639
-0.0357088
1.02142
-0.160836
1.01802
-0.124053
-0.175051
1.04304
1.04869
0.0285489
1.05021
-0.0358043
1.04722
0.0287319
1.04844
-0.032118
1.04492
0.0237341
1.04521
-0.0336202
1.04045
0.0200647
1.04103
-0.0358471
1.03555
0.0221801
1.0343
-0.0538751
1.02537
0.0314261
1.02805
-0.0785471
1.01308
0.0399969
1.01995
-0.113797
0.995862
0.0330087
1.01233
-0.148492
0.985466
-0.00884922
1.01263
-0.187998
1.00045
-0.111871
-0.222739
1.04813
1.0517
0.026847
1.04865
-0.0327495
1.04843
0.0289504
1.04761
-0.0312952
1.04566
0.0256815
1.0449
-0.0328659
1.04019
0.0247797
1.04099
-0.0366487
1.03467
0.0284977
1.03281
-0.0520134
1.02485
0.0393857
1.02455
-0.0782469
1.01033
0.0542215
1.01446
-0.117928
0.989459
0.0580078
1.00448
-0.163513
0.969692
0.025939
1.00362
-0.221929
0.97441
-0.0826595
-0.281592
1.03326
1.05581
0.0210407
1.04684
-0.0237874
1.0535
0.0222922
1.04498
-0.0227726
1.05006
0.0205981
1.04171
-0.0245166
1.04442
0.0220716
1.03725
-0.0294779
1.03987
0.0258778
1.02773
-0.0398744
1.03166
0.0354594
1.01599
-0.0625805
1.02064
0.0495704
0.99852
-0.0958051
1.00061
0.055919
0.982366
-0.14527
0.967619
0.0406861
0.988992
-0.243302
0.955489
-0.049156
-0.440933
1.11483
1.05759
0.0134502
1.04627
-0.0124649
1.05483
0.0137323
1.0437
-0.0116423
1.05131
0.0129903
1.03917
-0.0123778
1.04495
0.0162877
1.03438
-0.0189084
1.03782
0.022442
1.024
-0.0260581
1.02764
0.0318162
1.00837
-0.04331
1.01384
0.0440989
0.983237
-0.0651969
0.987397
0.0517591
0.953525
-0.111398
0.935032
0.0591789
0.930634
-0.238904
0.851791
0.0296869
-0.654734
1.06559
1.05485
0.00859824
1.04779
-0.00540003
1.05322
0.00829941
1.04617
-0.00459473
1.05091
0.00825049
1.04254
-0.00400347
1.04588
0.0129407
1.03887
-0.011895
1.03998
0.0213326
1.03024
-0.0163146
1.0316
0.0304534
1.01753
-0.0292403
1.02098
0.0406496
0.995289
-0.0395061
1.00438
0.0426661
0.957829
-0.0648453
0.982076
0.034932
0.914394
-0.171222
1.03903
-0.094952
1.36483
-0.980535
1.05065
-0.0174573
1.04886
-0.0175212
1.04764
-0.0176976
1.04711
-0.0177736
1.04747
-0.0181826
1.048
-0.0179988
1.04846
-0.0180141
1.04881
-0.0177055
1.04897
-0.0177844
-0.0176108
1.04919
1.04524
-0.019754
1.04706
-0.01934
1.04839
-0.0190238
1.04914
-0.0185205
1.04901
-0.0180621
1.04881
-0.0177892
1.04869
-0.0178972
1.04876
-0.0177796
1.04899
-0.0180111
-0.0179178
1.0493
1.05074
-0.0175674
1.04909
-0.0176981
1.04799
-0.0179195
1.04756
-0.0180958
1.04805
-0.0185504
1.04866
-0.0183934
1.04917
-0.0184065
1.04955
-0.0181641
1.04981
-0.0182712
-0.0180818
1.04998
1.04507
-0.0198694
1.04707
-0.0196937
1.04862
-0.0194766
1.04939
-0.0188611
1.04933
-0.0184949
1.0492
-0.0182571
1.04913
-0.0183404
1.04921
-0.0182442
1.04941
-0.018468
-0.0184625
1.04979
1.05103
-0.018446
1.05002
-0.018682
1.04922
-0.0186821
1.04897
-0.0186097
1.04914
-0.0186653
1.04946
-0.0185727
1.0498
-0.0186869
1.05015
-0.0185956
1.05048
-0.0187937
-0.0187131
1.05073
1.05121
-0.017794
1.05036
-0.0178347
1.0497
-0.018022
1.04958
-0.0184943
1.04982
-0.0189
1.05021
-0.0189657
1.0506
-0.019078
1.05102
-0.0190167
1.05137
-0.0191404
-0.0190423
1.0517
1.04477
-0.0204281
1.04709
-0.02015
1.04894
-0.0198743
1.04997
-0.0195292
1.05017
-0.0190999
1.05029
-0.0190876
1.05043
-0.0192113
1.05072
-0.019308
1.05105
-0.0194687
-0.0195764
1.05158
1.05007
-0.0185927
1.04879
-0.0188786
1.04805
-0.0191298
1.04799
-0.0194723
1.04881
-0.0199223
1.04976
-0.0200326
1.05055
-0.019998
1.05122
-0.0199838
1.05171
-0.0199559
-0.0199829
1.05212
1.04461
-0.021567
1.04705
-0.0213184
1.04896
-0.0210321
1.05024
-0.0207523
1.05059
-0.0202758
1.05082
-0.0202673
1.0511
-0.0202766
1.05155
-0.0204307
1.05206
-0.0204668
-0.0205822
1.05266
1.0498
-0.0199066
1.04874
-0.020254
1.04828
-0.0205766
1.04853
-0.0209968
1.0497
-0.0214499
1.05094
-0.0215103
1.05203
-0.0213689
1.05294
-0.0213347
1.05361
-0.0211356
-0.0211752
1.0542
1.04368
-0.0234093
1.04675
-0.0233266
1.04938
-0.0232045
1.05124
-0.0228596
1.05215
-0.0223554
1.05283
-0.022191
1.05354
-0.0220764
1.05434
-0.0221325
1.05515
-0.0219542
-0.0219203
1.0559
1.04916
-0.0229889
1.04935
-0.0235084
1.04995
-0.0238114
1.0509
-0.0238118
1.05229
-0.0237381
1.05367
-0.023579
1.05502
-0.0234257
1.05619
-0.023297
1.05721
-0.0229788
-0.0227847
1.05808
1.04843
-0.0253067
1.05074
-0.0258244
1.05286
-0.0259326
1.05455
-0.025499
1.05604
-0.0252288
1.05729
-0.0248241
1.05834
-0.0244737
1.05921
-0.024169
1.05992
-0.0236923
-0.0237363
1.06087
1.04667
-0.0300274
1.05014
-0.0292937
1.05344
-0.0292386
1.05643
-0.0284842
1.05934
-0.0281422
1.06187
-0.0273543
1.06427
-0.0268738
1.06631
-0.0262117
1.06813
-0.0255114
-0.0248194
1.06921
1.04597
-0.0329595
1.04911
-0.0324263
1.05203
-0.0321618
1.05441
-0.0308651
1.05668
-0.0304159
1.05855
-0.0292173
1.06038
-0.0287084
1.06187
-0.0276987
1.06331
-0.0269573
-0.0264398
1.06494
1.05805
-0.0428732
1.06539
-0.0397654
1.0722
-0.0389741
1.0771
-0.0357656
1.08177
-0.0350812
1.08484
-0.032293
1.08794
-0.0318091
1.08966
-0.0294156
1.09141
-0.0287063
-0.0264959
1.09146
1.04027
-0.0498814
1.04686
-0.0463556
1.05284
-0.0449533
1.05792
-0.0408472
1.06309
-0.0402504
1.06751
-0.036709
1.07209
-0.0363891
1.07579
-0.0331205
1.07963
-0.032542
-0.0300037
1.08314
1.1312
-0.0662519
1.13873
-0.0538868
1.14279
-0.049015
1.14344
-0.0414985
1.14388
-0.040681
1.14193
-0.0347643
1.14054
-0.0350029
1.13672
-0.0292951
1.13404
-0.0298596
-0.0244293
1.12846
1.08027
-0.0809341
1.09223
-0.0658467
1.10065
-0.0574274
1.10807
-0.0489241
1.11288
-0.0454915
1.11748
-0.0393578
1.11956
-0.037087
1.12263
-0.0323643
1.12324
-0.030468
-0.0286141
1.12742
1.2839
1.21805
1.16063
1.1117
1.06621
1.02685
0.989765
0.9574
0.926932
0.898318
1.05031
-0.12602
1.05045
-0.145949
1.04964
-0.15113
1.04841
-0.143025
1.04915
-0.147804
1.05014
-0.16681
1.04809
-0.172579
1.04663
-0.164875
1.04715
-0.178715
1.04432
-0.196196
1.03693
-0.216535
1.03173
-0.232405
1.0258
-0.285606
1.01077
-0.310762
0.980328
-0.38234
0.941441
-0.430678
0.882266
-0.555584
0.814453
-0.578178
0.71125
-0.655544
-0.56486
1.05089
-0.127612
1.05103
-0.146089
1.04915
-0.149253
1.04805
-0.14192
1.05063
-0.150392
1.0513
-0.167473
1.04708
-0.168367
1.04551
-0.163304
1.04645
-0.179651
1.04029
-0.190037
1.02966
-0.205904
1.02133
-0.224072
1.00947
-0.273751
0.98555
-0.286841
0.950868
-0.347659
0.906984
-0.386794
0.848954
-0.497553
0.784313
-0.513537
0.711756
-0.582987
-0.508147
1.05143
-0.129063
1.05155
-0.146217
1.04986
-0.147554
1.04961
-0.141677
1.05258
-0.153357
1.05204
-0.166938
1.04746
-0.163788
1.04656
-0.162397
1.04634
-0.179434
1.03896
-0.182657
1.02856
-0.195503
1.01854
-0.214055
1.00246
-0.257666
0.980779
-0.265162
0.952968
-0.319847
0.917176
-0.351002
0.86108
-0.441457
0.794315
-0.446773
0.712855
-0.501527
-0.444836
1.05194
-0.131213
1.05243
-0.146711
1.04975
-0.144868
1.04987
-0.141795
1.05391
-0.157403
1.05254
-0.165571
1.04791
-0.159155
1.04744
-0.161929
1.04531
-0.1773
1.03659
-0.173934
1.02612
-0.18504
1.0138
-0.20173
0.993508
-0.237376
0.968158
-0.239812
0.934757
-0.286446
0.889576
-0.305821
0.828677
-0.380558
0.769006
-0.387102
0.71245
-0.444971
-0.400904
1.05309
-0.13357
1.05229
-0.14591
1.04962
-0.142204
1.05183
-0.144
1.05477
-0.160345
1.05223
-0.163028
1.05049
-0.157423
1.04981
-0.161245
1.04351
-0.170996
1.0352
-0.165631
1.02734
-0.177177
1.01185
-0.186236
0.987248
-0.212777
0.961376
-0.213941
0.935089
-0.260158
0.901099
-0.271832
0.848795
-0.328254
0.78766
-0.325967
0.715664
-0.372975
-0.347976
1.05291
-0.134784
1.05182
-0.144821
1.05228
-0.142664
1.0537
-0.145421
1.05312
-0.159755
1.05309
-0.162998
1.05467
-0.159003
1.05132
-0.157897
1.04267
-0.162348
1.03584
-0.158805
1.02727
-0.168601
1.00972
-0.168684
0.984804
-0.187866
0.959176
-0.188313
0.92391
-0.224891
0.879136
-0.227058
0.82278
-0.271898
0.771609
-0.274796
0.723871
-0.325238
-0.309125
1.05209
-0.135293
1.05267
-0.145401
1.05422
-0.144213
1.05304
-0.144242
1.05162
-0.158336
1.05507
-0.166449
1.05872
-0.162649
1.0537
-0.15288
1.04303
-0.151675
1.03547
-0.151252
1.02829
-0.161416
1.01128
-0.151674
0.982295
-0.158881
0.952237
-0.158254
0.922552
-0.195206
0.888728
-0.193235
0.840121
-0.223291
0.782893
-0.217567
0.71953
-0.261875
-0.26325
1.05301
-0.13619
1.05394
-0.146333
1.05442
-0.14469
1.05264
-0.142459
1.05198
-0.157676
1.05756
-0.172025
1.06278
-0.167877
1.05648
-0.146579
1.04383
-0.139025
1.03749
-0.144905
1.03098
-0.154905
1.01115
-0.131848
0.980517
-0.128249
0.95368
-0.131417
0.922563
-0.16409
0.878072
-0.148744
0.818956
-0.164175
0.768101
-0.166712
0.724222
-0.217996
-0.228113
1.05388
-0.137411
1.05515
-0.147601
1.05367
-0.143209
1.05056
-0.139353
1.05225
-0.159365
1.06136
-0.18114
1.06681
-0.173323
1.05832
-0.138089
1.04558
-0.126285
1.04033
-0.13965
1.03337
-0.147947
1.01387
-0.112347
0.982576
-0.0969581
0.949427
-0.0982687
0.915958
-0.13062
0.882109
-0.114895
0.837407
-0.119472
0.787914
-0.11722
0.733664
-0.163745
-0.185953
1.05519
-0.138397
1.05776
-0.150173
1.05211
-0.137562
1.04631
-0.133551
1.05393
-0.166979
1.06706
-0.194277
1.07025
-0.17651
1.06029
-0.128133
1.04931
-0.115299
1.04555
-0.135893
1.03748
-0.139878
1.0155
-0.0903612
0.984786
-0.0662484
0.954572
-0.0680544
0.916286
-0.092335
0.87327
-0.0718794
0.827254
-0.0734557
0.788966
-0.0789319
0.747452
-0.122231
-0.148481
1.05738
-0.13988
1.05879
-0.151582
1.04849
-0.127265
1.03991
-0.124965
1.05477
-0.181845
1.07417
-0.213674
1.07289
-0.175224
1.06197
-0.11722
1.05592
-0.109251
1.05015
-0.130119
1.0381
-0.127826
1.02077
-0.0730323
0.992172
-0.0376523
0.95326
-0.029142
0.909355
-0.0484302
0.871567
-0.0340919
0.833475
-0.035363
0.797895
-0.0433527
0.753598
-0.0779341
-0.107632
1.05979
-0.141589
1.06576
-0.157554
1.05045
-0.11196
1.03104
-0.105553
1.04875
-0.199557
1.08048
-0.2454
1.08145
-0.1762
1.06274
-0.0985025
1.05631
-0.102823
1.05678
-0.130595
1.04557
-0.116611
1.02661
-0.0540675
0.99885
-0.00989761
0.95728
0.0124283
0.904946
0.00390398
0.865019
0.00583495
0.834782
-0.00512584
0.80975
-0.0183203
0.76965
-0.0378344
-0.066671
1.06065
-0.141364
1.06174
-0.158648
1.04201
-0.092226
1.01951
-0.0830547
1.04464
-0.224681
1.09002
-0.290788
1.09078
-0.176956
1.06494
-0.0726655
1.05709
-0.0949737
1.06123
-0.134733
1.05137
-0.106749
1.03314
-0.0358425
1.00644
0.0168011
0.963185
0.0556876
0.905469
0.0616204
0.857448
0.0538559
0.821489
0.0308329
0.794779
0.00839006
0.757613
-0.000668849
-0.0276566
1.06925
-0.141399
1.07891
-0.168308
1.04851
-0.0618282
1.0001
-0.0346391
1.027
-0.251583
1.09536
-0.359149
1.10487
-0.186467
1.06394
-0.0317341
1.04856
-0.0795902
1.06111
-0.147289
1.05847
-0.104103
1.04544
-0.0228145
1.01783
0.0444077
0.959679
0.11384
0.888244
0.133056
0.843501
0.0985987
0.819173
0.0551603
0.798358
0.029206
0.758212
0.0394766
0.013195
1.07025
-0.146713
1.0726
-0.170659
1.0226
-0.0118309
0.97762
0.0103447
1.02137
-0.295335
1.10888
-0.446653
1.12289
-0.200477
1.06746
0.0236921
1.0375
-0.0496275
1.06278
-0.172574
1.07613
-0.117447
1.05647
-0.00316129
1.01612
0.0847572
0.96559
0.164374
0.909079
0.189566
0.853842
0.153836
0.796277
0.112726
0.745076
0.0804065
0.702298
0.0822546
0.0437245
1.09156
-0.146807
1.11573
-0.19483
1.019
0.0848987
0.921889
0.107454
0.980064
-0.35351
1.09202
-0.558605
1.10795
-0.216411
1.04565
0.0859887
1.0116
-0.015573
1.04895
-0.209923
1.0799
-0.148398
1.05534
0.0213997
0.998919
0.141176
0.947387
0.215906
0.893879
0.243074
0.823733
0.223982
0.74535
0.191109
0.68551
0.140247
0.653625
0.114139
0.0626192
1.10563
-0.169298
1.12587
-0.215075
0.997558
0.213213
0.895597
0.209414
0.937194
-0.395107
1.03012
-0.651534
1.0475
-0.233792
1.00125
0.132239
0.970281
0.0153997
0.992172
-0.231813
1.03158
-0.187805
1.02254
0.030442
0.972198
0.191514
0.929148
0.258956
0.891674
0.280548
0.842238
0.273418
0.782076
0.251271
0.733263
0.18906
0.695308
0.152094
0.0918514
1.13532
-0.176154
1.13167
-0.211428
0.919909
0.424975
0.801657
0.327667
0.800572
-0.394022
0.847052
-0.698014
0.851317
-0.238057
0.842289
0.141267
0.813548
0.0441406
0.792166
-0.210431
0.827019
-0.222659
0.872483
-0.0150222
0.882933
0.181065
0.868897
0.272992
0.842309
0.307136
0.813664
0.302063
0.78179
0.283146
0.752411
0.218438
0.713442
0.191064
0.127532
1.11132
-0.160054
1.1143
-0.214404
0.912601
0.626673
0.743282
0.496986
0.628968
-0.279708
0.63107
-0.700116
0.654621
-0.261607
0.653447
0.14244
0.546936
0.150652
0.465496
-0.128991
0.513637
-0.2708
0.625433
-0.126819
0.717366
0.0891321
0.763579
0.22678
0.772525
0.298189
0.770069
0.304518
0.756778
0.296437
0.73494
0.240276
0.697512
0.228492
0.161313
0.675607
0.0626578
0.888127
-0.426923
0.801408
0.713392
0.50986
0.788534
0.399671
-0.169519
0.479059
-0.779504
0.459968
-0.242517
0.299287
0.303122
0.119318
0.33062
0.0774335
-0.0871058
0.183025
-0.376392
0.358229
-0.302023
0.516591
-0.0692299
0.623647
0.119724
0.680056
0.24178
0.707688
0.276886
0.709435
0.29469
0.694147
0.255564
0.664133
0.258507
0.188284
-0.00464679
0.0673046
0.200333
-0.631904
0.204326
0.709399
0.134358
0.858501
0.113352
-0.148513
0.119036
-0.785188
0.102789
-0.226269
0.0471662
0.358744
-0.00219889
0.379985
-0.0150555
-0.0742492
0.0100577
-0.401505
0.0629652
-0.35493
0.116168
-0.122432
0.155247
0.0806447
0.178411
0.218616
0.190548
0.264749
0.193196
0.292042
0.190235
0.258525
0.183469
0.265272
0.194606
-0.0453856
0.11269
0.153164
-0.830453
0.193058
0.669505
0.128311
0.923248
0.111508
-0.13171
0.1108
-0.784481
0.0904688
-0.205938
0.0336962
0.415517
-0.0101876
0.423869
-0.0216965
-0.0627403
-0.00109007
-0.422111
0.0494477
-0.405468
0.104006
-0.176991
0.145766
0.0388844
0.171514
0.192868
0.185345
0.250918
0.188859
0.288529
0.186565
0.260819
0.180699
0.271138
0.20036
-0.0640102
0.1767
0.107006
-1.00147
0.181017
0.595495
0.123381
0.980884
0.110527
-0.118856
0.104608
-0.778561
0.079336
-0.180666
0.0239551
0.470898
-0.0135202
0.461344
-0.0247169
-0.0515435
-0.00941195
-0.437416
0.0384917
-0.453371
0.0937183
-0.232217
0.137411
-0.00480806
0.165206
0.165073
0.180359
0.235765
0.184662
0.284226
0.183041
0.26244
0.178051
0.276128
0.205503
-0.0488674
0.225568
0.0880047
-1.13834
0.166492
0.517007
0.118864
1.02851
0.111014
-0.111006
0.0993909
-0.766938
0.0700346
-0.15131
0.0182768
0.522656
-0.0118626
0.491484
-0.0223452
-0.041061
-0.0126199
-0.447142
0.0302752
-0.496267
0.0851562
-0.287098
0.130068
-0.0497201
0.15934
0.135801
0.175525
0.21958
0.180549
0.279202
0.179627
0.263361
0.17552
0.280236
0.21006
-0.0185683
0.244136
0.083112
-1.24002
0.154803
0.445315
0.115806
1.06751
0.112588
-0.107788
0.0958836
-0.750234
0.0630683
-0.118494
0.0160879
0.569636
-0.00665652
0.514228
-0.0157862
-0.0319313
-0.0112741
-0.451654
0.0250477
-0.532588
0.0782438
-0.340295
0.123708
-0.0951843
0.15394
0.105569
0.170894
0.202627
0.176578
0.273518
0.176374
0.263566
0.173133
0.283477
0.214071
0.0279931
0.216143
0.080535
-1.29256
0.138347
0.387503
0.112464
1.09339
0.115982
-0.111306
0.0941857
-0.728438
0.0592937
-0.0836023
0.0173491
0.611581
0.00138016
0.530197
-0.00594772
-0.0246034
-0.00568779
-0.451914
0.0230923
-0.561368
0.0729459
-0.390148
0.118277
-0.140516
0.149016
0.0748302
0.166513
0.18513
0.172805
0.267226
0.17332
0.263051
0.17091
0.285887
0.217582
0.0904753
0.125668
0.080872
-1.28296
0.127693
0.340682
0.112078
1.10901
0.121021
-0.120249
0.0942135
-0.70163
0.0576448
-0.0470336
0.0218073
0.647418
0.0123148
0.539689
0.00596951
-0.0182581
0.00336284
-0.449307
0.0245047
-0.58251
0.069362
-0.435005
0.113751
-0.184905
0.144581
0.0440004
0.162431
0.167279
0.169284
0.260373
0.170503
0.261832
0.168869
0.287521
0.220651
0.155322
-0.0296541
0.0790079
-1.20665
0.113387
0.306303
0.112552
1.10984
0.126921
-0.134619
0.0957915
-0.6705
0.0585237
-0.00976579
0.0291254
0.676816
0.024725
0.54409
0.0190946
-0.0126277
0.0147997
-0.445012
0.0291224
-0.596833
0.0677116
-0.473595
0.110169
-0.227362
0.140667
0.0135031
0.158697
0.149249
0.166055
0.253015
0.167945
0.259943
0.167014
0.288452
0.223338
0.188024
-0.217678
0.0760991
-1.09472
0.100659
0.281743
0.115577
1.09493
0.133599
-0.152641
0.0985183
-0.63542
0.0617637
0.0269889
0.0388054
0.699775
0.0381469
0.544748
0.0332955
-0.00777633
0.0284024
-0.440119
0.0366245
-0.605055
0.068197
-0.505167
0.107649
-0.266815
0.137337
-0.0161849
0.155374
0.131212
0.163172
0.245216
0.165675
0.25744
0.165355
0.288772
0.225713
0.18879
-0.406469
0.0836239
-0.989555
0.0949564
0.27041
0.121766
1.06812
0.140364
-0.171239
0.103639
-0.598695
0.0680128
0.0626146
0.0505747
0.717213
0.052089
0.543234
0.0480322
-0.00371951
0.0434188
-0.435505
0.0465779
-0.608214
0.070981
-0.52957
0.106412
-0.302245
0.134694
-0.0444677
0.152504
0.113402
0.160645
0.237076
0.163668
0.254416
0.163871
0.288569
0.227849
0.50537
-0.328469
-0.58337
0.206953
-0.691138
0.163543
0.313821
0.339409
0.892251
0.362009
-0.193839
0.263607
-0.500292
0.185636
0.140585
0.171
0.731849
0.177963
0.536271
0.171905
0.00233899
0.165237
-0.428838
0.156861
-0.599838
0.185691
-0.5584
0.25058
-0.367134
0.309767
-0.103655
0.349384
0.073785
0.369314
0.217146
0.378235
0.245495
0.380172
0.286632
0.232028
0.815959
-0.318956
-0.825472
0.517121
-0.3923
0.298474
0.532467
0.427245
0.763481
0.421183
-0.187777
0.332899
-0.412009
0.271667
0.201818
0.266321
0.737194
0.259635
0.542957
0.257109
0.00486477
0.263063
-0.434792
0.245333
-0.582109
0.234315
-0.547381
0.265215
-0.398034
0.30979
-0.14823
0.343967
0.0396086
0.362997
0.198116
0.372533
0.235958
0.375098
0.284067
0.235947
0.677766
-0.202548
-0.794174
0.457655
-0.172189
0.387113
0.603009
0.535076
0.615518
0.496228
-0.148929
0.38756
-0.303341
0.345907
0.243471
0.356882
0.726219
0.347762
0.552077
0.345209
0.0074179
0.355015
-0.444598
0.339152
-0.566246
0.301329
-0.509559
0.294843
-0.391548
0.319105
-0.172492
0.345598
0.0131152
0.362037
0.181677
0.370441
0.227554
0.372023
0.282485
0.240434
0.674062
-0.11987
-0.75674
0.553222
-0.0513492
0.543575
0.612656
0.643652
0.515441
0.607106
-0.112383
0.514532
-0.210767
0.461742
0.296261
0.462407
0.725553
0.45926
0.555225
0.456769
0.00990928
0.453928
-0.441757
0.429896
-0.542214
0.374165
-0.453828
0.334973
-0.352356
0.335106
-0.172625
0.351022
-0.00280065
0.363172
0.169528
0.369244
0.221481
0.369184
0.282545
0.245624
0.662204
-0.0333789
-0.748695
0.588353
0.0225015
0.662311
0.538698
0.724214
0.453539
0.639731
-0.0279003
0.559979
-0.131015
0.541341
0.314899
0.556969
0.709926
0.567127
0.545066
0.564623
0.0124138
0.545216
-0.42235
0.509741
-0.506738
0.443327
-0.387415
0.38007
-0.289099
0.356044
-0.148599
0.359331
-0.00608737
0.366443
0.162416
0.369753
0.218171
0.367421
0.284878
0.251909
0.651275
0.04779
-0.732444
0.61433
0.0594465
0.728394
0.424634
0.781164
0.400768
0.690254
0.0630105
0.619152
-0.0599129
0.614331
0.31972
0.642403
0.681854
0.66904
0.518429
0.664866
0.0165875
0.62408
-0.381564
0.571834
-0.454492
0.499532
-0.315113
0.422959
-0.212527
0.378934
-0.104574
0.368065
0.00478253
0.368377
0.162104
0.368319
0.218229
0.364117
0.289079
0.258783
0.668424
0.110773
-0.731407
0.622793
0.105078
0.731894
0.315533
0.789362
0.3433
0.717068
0.135305
0.651135
0.00601991
0.661705
0.309149
0.707568
0.635992
0.749815
0.476182
0.74031
0.0260932
0.677805
-0.31906
0.609911
-0.386598
0.536802
-0.242004
0.457463
-0.133188
0.400989
-0.0481002
0.377766
0.028006
0.371469
0.168401
0.36836
0.221338
0.362142
0.295298
0.266639
0.683146
0.152132
-0.724506
0.643062
0.145162
0.717286
0.241309
0.771371
0.289215
0.722624
0.184052
0.66944
0.0592041
0.684412
0.294177
0.746477
0.573927
0.799157
0.423502
0.782445
0.0428046
0.707708
-0.244323
0.634765
-0.313654
0.567499
-0.174737
0.491041
-0.0567306
0.425873
0.0170684
0.389869
0.0640101
0.374606
0.183663
0.366596
0.229348
0.358139
0.303755
0.274998
0.697372
0.174757
-0.719997
0.666213
0.176321
0.70353
0.203992
0.744665
0.24808
0.72379
0.204927
0.679737
0.103256
0.690389
0.283525
0.75811
0.506207
0.813549
0.368063
0.791825
0.0645289
0.712656
-0.165154
0.640686
-0.241684
0.582728
-0.116779
0.513136
0.0128616
0.444383
0.0858218
0.399582
0.108811
0.377851
0.205395
0.366857
0.240341
0.356591
0.314021
0.28444
0.703115
0.186773
-0.715132
0.687102
0.192334
0.701138
0.189956
0.722122
0.227097
0.717023
0.210026
0.687102
0.133178
0.692013
0.278613
0.753308
0.444912
0.801576
0.319795
0.780179
0.0859259
0.708255
-0.0932301
0.639931
-0.17336
0.589132
-0.0659805
0.530717
0.0712767
0.466374
0.150165
0.416063
0.159121
0.38562
0.235838
0.367467
0.258494
0.353078
0.328411
0.295026
0.704245
0.194044
-0.711516
0.700248
0.196332
0.704888
0.185315
0.709273
0.222711
0.707964
0.211334
0.690886
0.150256
0.696312
0.273188
0.744016
0.397207
0.780171
0.28364
0.762225
0.103872
0.699383
-0.0303875
0.636825
-0.110803
0.595091
-0.0242457
0.54599
0.120377
0.481345
0.21481
0.424195
0.21627
0.388169
0.271865
0.368033
0.278629
0.352472
0.343972
0.306874
0.703603
0.199249
-0.708807
0.704977
0.194957
0.708974
0.181318
0.70552
0.226166
0.70063
0.216224
0.692246
0.158641
0.701943
0.26349
0.737342
0.361809
0.761486
0.259496
0.746477
0.11888
0.694113
0.0219768
0.63758
-0.0542699
0.598895
0.0144395
0.557095
0.162177
0.501038
0.270868
0.445144
0.272164
0.402443
0.314566
0.372757
0.308315
0.349899
0.36683
0.321119
0.70297
0.203075
-0.706796
0.704696
0.193231
0.710401
0.175613
0.706437
0.23013
0.697391
0.22527
0.692018
0.164013
0.705876
0.249633
0.733163
0.334521
0.747875
0.244784
0.736138
0.130618
0.692602
0.0655127
0.639419
-0.00108734
0.604228
0.049631
0.569489
0.196915
0.513828
0.326529
0.451331
0.334662
0.40308
0.362817
0.372712
0.338682
0.350125
0.389417
0.336545
0.70317
0.205475
-0.70557
0.70279
0.193611
0.709347
0.169056
0.708923
0.230554
0.697835
0.236358
0.691794
0.170055
0.707585
0.233842
0.729705
0.312401
0.738077
0.236412
0.728806
0.13989
0.693414
0.100905
0.644725
0.0476015
0.609927
0.0844294
0.578987
0.227855
0.532572
0.372944
0.475766
0.391468
0.423582
0.415001
0.381785
0.380479
0.348037
0.423165
0.356094
0.703808
0.206221
-0.704553
0.701061
0.196357
0.706289
0.163828
0.710271
0.226572
0.70061
0.246019
0.692375
0.17829
0.70689
0.219326
0.725904
0.293387
0.730322
0.231994
0.723007
0.147205
0.695224
0.128688
0.650802
0.0920236
0.617013
0.118218
0.5895
0.255368
0.542669
0.419775
0.479414
0.454723
0.421526
0.47289
0.380119
0.421885
0.348448
0.454836
0.376368
0.704775
0.205552
-0.704106
0.700246
0.200886
0.703221
0.160853
0.710444
0.21935
0.703592
0.252871
0.694075
0.187807
0.705812
0.20759
0.721442
0.277757
0.723529
0.229906
0.718611
0.152123
0.69762
0.149679
0.658026
0.131617
0.624806
0.151438
0.600229
0.279945
0.562375
0.457628
0.5065
0.510597
0.446209
0.533181
0.392011
0.476084
0.345938
0.50091
0.402852
0.705496
0.203577
-0.703521
0.700195
0.206187
0.699872
0.161176
0.7091
0.210121
0.706374
0.255598
0.695656
0.198525
0.703848
0.199397
0.717511
0.264094
0.717274
0.230143
0.713247
0.15615
0.700064
0.162862
0.666806
0.164875
0.633733
0.184511
0.608265
0.305413
0.568515
0.497378
0.507231
0.571882
0.442782
0.59763
0.389696
0.529169
0.345975
0.544631
0.429485
0.706062
0.200873
-0.703358
0.701089
0.21116
0.698122
0.164143
0.707186
0.201058
0.708134
0.254649
0.698122
0.208537
0.702329
0.19519
0.713351
0.253072
0.712974
0.230521
0.709735
0.159389
0.701049
0.171547
0.674731
0.191194
0.645477
0.213765
0.623374
0.327516
0.591061
0.529692
0.536264
0.626679
0.468255
0.665638
0.401801
0.595623
0.341185
0.605247
0.465375
0.706042
0.197439
-0.702608
0.701868
0.215334
0.695844
0.170167
0.704531
0.192371
0.709261
0.249918
0.699455
0.218344
0.700507
0.194138
0.710047
0.243532
0.708518
0.23205
0.706581
0.161327
0.704902
0.173226
0.684092
0.212004
0.65324
0.244617
0.627625
0.353131
0.593026
0.564291
0.5352
0.684506
0.465541
0.735297
0.399725
0.661439
0.34125
0.663722
0.500326
0.705988
-0.702939
0.70358
0.696195
0.70178
0.708589
0.701191
0.698679
0.705791
0.704796
0.702082
0.704927
0.696792
0.67456
0.651257
0.619541
0.565155
0.488673
0.41034
0.329917
0.899337
0.09014
-0.989477
0.827628
0.0717091
0.774221
0.0534071
0.724864
0.0493568
0.687949