/*--------------------------------*- C++ -*----------------------------------*\
| =========                 |                                                 |
| \\      /  F ield         | OpenFOAM: The Open Source CFD Toolbox           |
|  \\    /   O peration     | Version:  v1806                                 |
|   \\  /    A nd           | Web:      www.OpenFOAM.com                      |
|    \\/     M anipulation  |                                                 |
\*---------------------------------------------------------------------------*/
FoamFile
{
    version     2.0;
    format      ascii;
    class       volVectorField;
    location    "240";
    object      U;
}
// * * * * * * * * * * * * * * * * * * * * * * * * * * * * * * * * * * * * * //

dimensions      [0 1 -1 0 0 0 0];


internalField   nonuniform List<vector> 
5228
(
(-0.0168303 0.00236768 0.000263855)
(-0.0168253 0.00237116 2.97432e-08)
(-0.0168253 0.00237116 -2.97438e-08)
(-0.0168303 0.00236768 -0.000263855)
(-0.0139257 0.0017178 0.000265672)
(-0.0139157 0.00171712 -6.12698e-08)
(-0.0139157 0.00171712 6.12689e-08)
(-0.0139257 0.0017178 -0.000265672)
(-0.0109901 0.00102428 0.000281984)
(-0.0109898 0.00102592 -2.35526e-08)
(-0.0109898 0.00102593 2.35519e-08)
(-0.0109901 0.00102428 -0.000281984)
(-0.0099078 -3.26104e-05 0.000306505)
(-0.00989604 -3.76591e-05 -2.07928e-08)
(-0.00989604 -3.7659e-05 2.07928e-08)
(-0.0099078 -3.26103e-05 -0.000306505)
(0.0324951 0.00251133 0.000369028)
(0.0324932 0.00252571 -9.80109e-08)
(0.0324932 0.00252571 9.80093e-08)
(0.0324951 0.00251133 -0.000369028)
(0.000978885 0.00271905 0.000370781)
(0.000981498 0.00273305 -7.80468e-08)
(0.000981498 0.00273305 7.80451e-08)
(0.000978885 0.00271905 -0.000370781)
(0.000845514 -0.000456839 0.000343061)
(0.000856765 -0.000454275 -2.53157e-08)
(0.000856765 -0.000454275 2.53146e-08)
(0.000845514 -0.00045684 -0.000343061)
(0.0353987 0.00211536 0.000341745)
(0.0354175 0.00211647 -3.77268e-08)
(0.0354175 0.00211647 3.77247e-08)
(0.0353987 0.00211536 -0.000341745)
(0.226498 0.0164986 0.000404557)
(0.226466 0.0164646 -3.41002e-07)
(0.226466 0.0164646 3.41002e-07)
(0.226498 0.0164986 -0.000404557)
(0.208319 0.0215839 0.000511032)
(0.208258 0.0216009 -4.5757e-08)
(0.208258 0.0216009 4.57575e-08)
(0.208319 0.0215839 -0.000511032)
(0.108395 -0.00480455 0.000484262)
(0.108376 -0.00488125 1.28862e-07)
(0.108376 -0.00488125 -1.28863e-07)
(0.108395 -0.00480455 -0.000484262)
(0.140498 -0.00467033 0.000649539)
(0.140476 -0.00463495 3.88597e-07)
(0.140476 -0.00463495 -3.886e-07)
(0.140498 -0.00467033 -0.000649539)
(0.1292 -0.00128696 0.000720629)
(0.129144 -0.00116426 2.73397e-07)
(0.129144 -0.00116426 -2.73401e-07)
(0.1292 -0.00128696 -0.000720629)
(0.0658505 -0.00858298 0.000518756)
(0.0658037 -0.00860291 -3.2746e-07)
(0.0658037 -0.00860291 3.27459e-07)
(0.0658505 -0.00858298 -0.000518756)
(0.0545948 -0.00224802 0.000525446)
(0.0546046 -0.0022368 6.72285e-08)
(0.0546046 -0.0022368 -6.72296e-08)
(0.0545948 -0.00224802 -0.000525446)
(0.124548 -0.00344649 0.000570826)
(0.124486 -0.00343416 4.12616e-08)
(0.124486 -0.00343416 -4.12633e-08)
(0.124548 -0.00344649 -0.000570826)
(0.049218 0.00419213 0.000384311)
(0.049258 0.00417918 -4.21304e-09)
(0.049258 0.00417918 4.2124e-09)
(0.049218 0.00419213 -0.000384311)
(0.00636775 -5.0195e-05 0.000352253)
(0.00639695 -7.6343e-05 4.4484e-10)
(0.00639695 -7.63429e-05 -4.45881e-10)
(0.00636775 -5.01948e-05 -0.000352253)
(0.0292646 0.000428385 0.000354515)
(0.0292762 0.000431349 -2.1573e-07)
(0.0292762 0.000431349 2.1573e-07)
(0.0292646 0.000428385 -0.000354515)
(0.0733233 0.00253019 0.000619149)
(0.073305 0.00250909 2.94667e-07)
(0.073305 0.00250909 -2.94667e-07)
(0.0733233 0.00253019 -0.000619149)
(0.0502914 -0.000108971 0.000508212)
(0.0502576 -9.86103e-05 -1.79259e-07)
(0.0502576 -9.86102e-05 1.79258e-07)
(0.0502914 -0.000108971 -0.000508212)
(0.269369 0.0324818 0.000544843)
(0.269366 0.0324588 -2.28044e-08)
(0.269366 0.0324588 2.28048e-08)
(0.269369 0.0324818 -0.000544843)
(0.28712 0.0484084 0.000541334)
(0.28712 0.0484053 2.42501e-07)
(0.28712 0.0484053 -2.42502e-07)
(0.28712 0.0484084 -0.000541334)
(0.221476 -0.00535837 -0.000914674)
(0.221376 -0.00535594 -3.97357e-07)
(0.221376 -0.00535594 3.97333e-07)
(0.221476 -0.00535837 0.000914674)
(0.200011 -0.00722954 -0.00118056)
(0.199916 -0.00725562 -9.08481e-07)
(0.199916 -0.00725562 9.08476e-07)
(0.200011 -0.00722954 0.00118056)
(-0.00959136 0.00353482 0.000340965)
(-0.00959271 0.00353302 -7.1245e-08)
(-0.00959271 0.00353302 7.12461e-08)
(-0.00959136 0.00353482 -0.000340965)
(-0.00550575 0.003832 0.000343061)
(-0.00550662 0.0038259 -5.23376e-08)
(-0.00550662 0.0038259 5.23384e-08)
(-0.00550575 0.003832 -0.000343061)
(-0.00848402 0.0023445 0.000320507)
(-0.00846745 0.00233575 -5.64399e-08)
(-0.00846745 0.00233575 5.64389e-08)
(-0.00848402 0.0023445 -0.000320507)
(0.278588 0.000989413 -0.000359999)
(0.278598 0.00100281 7.45349e-08)
(0.278598 0.00100282 -1.30753e-07)
(0.278588 0.000989465 0.000360055)
(0.282205 0.00106642 -0.000322265)
(0.282209 0.00107371 -5.50435e-08)
(0.282209 0.00107371 4.40357e-08)
(0.282205 0.00106643 0.000322276)
(0.245327 -0.00312579 -0.00073215)
(0.245315 -0.00310562 -2.73587e-07)
(0.245315 -0.00310562 2.7348e-07)
(0.245327 -0.00312579 0.00073215)
(0.255115 -0.00273521 -0.000601376)
(0.255086 -0.00270172 -1.69526e-07)
(0.255086 -0.00270171 1.69081e-07)
(0.255115 -0.00273521 0.000601376)
(0.26634 -0.0016129 -0.000503545)
(0.266333 -0.00158594 -1.75766e-07)
(0.266333 -0.00158594 1.737e-07)
(0.26634 -0.0016129 0.000503547)
(0.271996 -0.00161998 -0.000427883)
(0.271965 -0.00160256 -2.14887e-07)
(0.271965 -0.00160256 2.055e-07)
(0.271996 -0.00161998 0.000427892)
(0.278214 -0.0035058 -0.000369742)
(0.278202 -0.00347664 -1.69652e-07)
(0.278202 -0.00347665 1.39123e-07)
(0.278214 -0.00350583 0.000369773)
(0.281588 -0.00186923 -0.000325984)
(0.281576 -0.00187106 -9.72394e-08)
(0.281576 -0.00187106 8.73498e-08)
(0.281588 -0.00186924 0.000325993)
(0.28526 -0.0024372 -0.00028872)
(0.285253 -0.00242117 -8.07259e-08)
(0.285253 -0.00242117 7.77762e-08)
(0.28526 -0.0024372 0.000288723)
(0.285269 0.00068637 -0.00028645)
(0.285261 0.000688932 -3.09382e-08)
(0.285261 0.000688933 2.8635e-08)
(0.285269 0.000686372 0.000286452)
(0.129647 -0.0172054 -0.00152184)
(0.129362 -0.0172375 -7.77849e-07)
(0.129362 -0.0172375 7.77847e-07)
(0.129647 -0.0172054 0.00152184)
(0.208937 -0.071908 -0.000923891)
(0.208763 -0.0720266 -2.39202e-07)
(0.208763 -0.0720266 2.39198e-07)
(0.208937 -0.071908 0.000923891)
(0.227166 -0.0456371 -0.000834585)
(0.227176 -0.0456976 1.66801e-09)
(0.227176 -0.0456976 -1.68012e-09)
(0.227166 -0.0456371 0.000834585)
(0.24002 -0.0271258 -0.000736847)
(0.240001 -0.0271319 2.90294e-08)
(0.240001 -0.0271319 -2.90708e-08)
(0.24002 -0.0271258 0.000736847)
(0.251679 -0.019297 -0.000640574)
(0.251697 -0.0193007 1.30052e-08)
(0.251697 -0.0193007 -1.31374e-08)
(0.251679 -0.019297 0.000640574)
(0.259815 -0.0129252 -0.000555366)
(0.25981 -0.0129247 -3.4731e-08)
(0.25981 -0.0129247 3.42911e-08)
(0.259815 -0.0129252 0.000555367)
(0.26778 -0.00972438 -0.000479245)
(0.267778 -0.00973606 -1.02159e-07)
(0.267778 -0.00973606 1.00703e-07)
(0.26778 -0.00972438 0.000479246)
(0.273196 -0.00761171 -0.000416538)
(0.273185 -0.00762276 -8.60384e-08)
(0.273185 -0.00762276 8.17318e-08)
(0.273196 -0.00761171 0.000416542)
(0.278356 -0.00684015 -0.000365121)
(0.278348 -0.00683944 -1.34984e-07)
(0.278348 -0.00683945 1.25951e-07)
(0.278356 -0.00684016 0.00036513)
(0.281886 -0.00562148 -0.000321279)
(0.281876 -0.00562372 -7.93735e-08)
(0.281876 -0.00562372 7.47604e-08)
(0.281886 -0.00562148 0.000321284)
(0.285419 -0.00507429 -0.000285114)
(0.285411 -0.00507316 -1.10616e-07)
(0.285411 -0.00507316 1.08775e-07)
(0.285419 -0.00507429 0.000285116)
(0.28806 -0.00398497 -0.000252204)
(0.288047 -0.00399211 -9.4885e-08)
(0.288047 -0.00399211 9.42553e-08)
(0.28806 -0.00398497 0.000252204)
(0.28782 -0.00169447 -0.00025711)
(0.28781 -0.00169687 -8.69063e-08)
(0.28781 -0.00169687 8.60585e-08)
(0.28782 -0.00169447 0.00025711)
(0.28802 0.000525711 -0.000256572)
(0.288014 0.000530148 -8.06213e-08)
(0.288014 0.000530148 8.0103e-08)
(0.28802 0.000525712 0.000256573)
(0.288342 0.00270003 -0.000250886)
(0.288333 0.00270759 -8.05485e-08)
(0.288333 0.00270759 8.11567e-08)
(0.288342 0.00270003 0.000250885)
(0.285639 0.00401403 -0.000281076)
(0.285633 0.00400357 -6.07477e-08)
(0.285633 0.00400357 6.34772e-08)
(0.285639 0.00401404 0.000281073)
(0.282509 0.00361342 -0.000316268)
(0.282509 0.00362689 -3.80288e-08)
(0.282509 0.00362689 5.1223e-08)
(0.282509 0.00361343 0.000316254)
(0.278773 0.00641716 -0.000357915)
(0.278777 0.00640417 2.47642e-08)
(0.278777 0.00640418 4.66719e-08)
(0.278773 0.0064172 0.000357843)
(0.273315 0.00382304 -0.00041689)
(0.273302 0.00383667 -9.36271e-08)
(0.273302 0.00383667 1.00433e-07)
(0.273315 0.00382306 0.000416883)
(0.267928 0.0062984 -0.000478499)
(0.267947 0.00632737 4.05276e-08)
(0.267947 0.00632737 -3.91452e-08)
(0.267928 0.00629841 0.000478497)
(0.261004 0.00774983 -0.000545195)
(0.261002 0.00776912 6.85556e-08)
(0.261002 0.00776912 -6.82189e-08)
(0.261004 0.00774983 0.000545194)
(0.25285 0.0127167 -0.00062821)
(0.252851 0.0127409 -5.74968e-08)
(0.252851 0.0127409 5.75802e-08)
(0.25285 0.0127167 0.00062821)
(0.241253 0.0170061 -0.000727601)
(0.241209 0.0170071 -8.61684e-08)
(0.241209 0.0170071 8.61919e-08)
(0.241253 0.0170061 0.000727601)
(0.226235 0.031372 -0.000847523)
(0.226238 0.0314089 -1.71848e-07)
(0.226238 0.0314089 1.7185e-07)
(0.226235 0.031372 0.000847523)
(0.202696 0.0448805 -0.00101062)
(0.202576 0.0449401 -2.25166e-07)
(0.202576 0.0449401 2.25165e-07)
(0.202696 0.0448805 0.00101062)
(0.191611 -0.127937 -0.000833902)
(0.191635 -0.127972 -3.60701e-08)
(0.191635 -0.127972 3.60606e-08)
(0.191611 -0.127937 0.000833902)
(0.241842 -0.0999732 -0.000558196)
(0.241906 -0.10001 -6.18713e-08)
(0.241906 -0.10001 6.18702e-08)
(0.241842 -0.0999732 0.000558196)
(0.240026 -0.0677739 -0.000697749)
(0.239941 -0.0678019 -4.13325e-07)
(0.239941 -0.0678019 4.13321e-07)
(0.240026 -0.0677739 0.000697749)
(0.240924 -0.0505572 -0.000701251)
(0.240918 -0.0505307 -2.73784e-07)
(0.240918 -0.0505307 2.73772e-07)
(0.240924 -0.0505572 0.000701251)
(0.249933 -0.0355869 -0.000644165)
(0.249905 -0.0355856 -1.89802e-07)
(0.249905 -0.0355856 1.8977e-07)
(0.249933 -0.0355869 0.000644165)
(0.256865 -0.027007 -0.000574124)
(0.256857 -0.0269988 -2.13782e-07)
(0.256857 -0.0269988 2.13682e-07)
(0.256865 -0.027007 0.000574124)
(0.264554 -0.0201327 -0.000504067)
(0.264525 -0.0201441 -2.05747e-07)
(0.264525 -0.0201441 2.05478e-07)
(0.264554 -0.0201327 0.000504068)
(0.270463 -0.0157675 -0.00044096)
(0.270449 -0.0157842 -1.60022e-07)
(0.270449 -0.0157842 1.59332e-07)
(0.270463 -0.0157675 0.000440961)
(0.27559 -0.0126544 -0.000388647)
(0.275581 -0.0126692 -7.44902e-08)
(0.275581 -0.0126692 7.28691e-08)
(0.27559 -0.0126544 0.000388648)
(0.279511 -0.0106296 -0.000345583)
(0.279508 -0.0106413 -8.30649e-08)
(0.279508 -0.0106413 8.03993e-08)
(0.279511 -0.0106296 0.000345585)
(0.282963 -0.00881367 -0.000307395)
(0.282954 -0.00882085 -8.57342e-08)
(0.282954 -0.00882085 8.39415e-08)
(0.282963 -0.00881368 0.000307397)
(0.286058 -0.00742673 -0.000272927)
(0.286048 -0.0074405 -1.03441e-07)
(0.286048 -0.0074405 1.02569e-07)
(0.286058 -0.00742673 0.000272927)
(0.288673 -0.0061369 -0.000242834)
(0.288662 -0.00614524 -7.33269e-08)
(0.288662 -0.00614524 7.29655e-08)
(0.288673 -0.0061369 0.000242834)
(0.290969 -0.00553664 -0.000216783)
(0.290961 -0.0055442 -6.9926e-08)
(0.290961 -0.0055442 6.97918e-08)
(0.290969 -0.00553664 0.000216784)
(0.290625 -0.0036572 -0.000224692)
(0.290616 -0.00365826 -8.54305e-08)
(0.290616 -0.00365826 8.52249e-08)
(0.290625 -0.0036572 0.000224692)
(0.290357 -0.00173546 -0.000229502)
(0.290348 -0.00172794 -7.45645e-08)
(0.290348 -0.00172794 7.43229e-08)
(0.290357 -0.00173546 0.000229503)
(0.290277 0.000450438 -0.000229597)
(0.290268 0.000453647 -4.13486e-08)
(0.290268 0.000453647 4.12228e-08)
(0.290277 0.000450438 0.000229597)
(0.290525 0.00283383 -0.000225489)
(0.290517 0.00283065 -5.22862e-08)
(0.290517 0.00283065 5.24432e-08)
(0.290525 0.00283383 0.000225489)
(0.290872 0.00485494 -0.000218348)
(0.290864 0.00485385 -6.50845e-08)
(0.290864 0.00485385 6.53306e-08)
(0.290872 0.00485494 0.000218348)
(0.288839 0.00496116 -0.000242369)
(0.288827 0.00496696 -7.67271e-08)
(0.288827 0.00496696 7.7514e-08)
(0.288839 0.00496116 0.000242368)
(0.286147 0.00641486 -0.000271999)
(0.286146 0.00641336 -6.65186e-08)
(0.286146 0.00641336 6.91065e-08)
(0.286147 0.00641486 0.000271996)
(0.283161 0.00700384 -0.000306364)
(0.283164 0.00701598 1.60431e-08)
(0.283164 0.00701598 -7.84444e-09)
(0.283161 0.00700383 0.000306356)
(0.279299 0.0089489 -0.000348138)
(0.279307 0.00894885 -2.99611e-09)
(0.279307 0.00894884 2.44877e-08)
(0.279299 0.00894886 0.000348116)
(0.275441 0.00955259 -0.000393068)
(0.275444 0.00957113 3.86892e-08)
(0.275444 0.00957113 -3.23682e-08)
(0.275441 0.00955259 0.000393062)
(0.269859 0.0127344 -0.00044677)
(0.269852 0.0127514 -6.55872e-08)
(0.269852 0.0127514 6.75592e-08)
(0.269859 0.0127344 0.000446768)
(0.264233 0.0148428 -0.000513482)
(0.264206 0.0148444 -1.52175e-07)
(0.264206 0.0148444 1.52746e-07)
(0.264233 0.0148428 0.000513482)
(0.255246 0.0202343 -0.000591872)
(0.255219 0.0202336 -2.61703e-07)
(0.255219 0.0202336 2.61872e-07)
(0.255246 0.0202343 0.000591872)
(0.247747 0.0241788 -0.000683091)
(0.247689 0.0241834 -3.68731e-07)
(0.247689 0.0241834 3.68782e-07)
(0.247747 0.0241788 0.000683091)
(0.233742 0.0361533 -0.000780251)
(0.2337 0.0361489 -4.82419e-07)
(0.2337 0.0361489 4.82432e-07)
(0.233742 0.0361533 0.000780251)
(0.228944 0.0464471 -0.000850472)
(0.228891 0.0464702 -4.43408e-07)
(0.228891 0.0464702 4.43412e-07)
(0.228944 0.0464471 0.000850472)
(0.171141 0.0902272 -0.00114845)
(0.171175 0.0902472 -3.76239e-07)
(0.171175 0.0902472 3.76241e-07)
(0.171141 0.0902272 0.00114845)
(0.217542 0.0809976 -0.000840325)
(0.217587 0.0810042 -2.134e-07)
(0.217587 0.0810042 2.134e-07)
(0.217542 0.0809976 0.000840325)
(0.250582 0.109821 -0.000484165)
(0.250773 0.109866 8.79361e-07)
(0.250773 0.109866 -8.79356e-07)
(0.250582 0.109821 0.000484165)
(0.287547 -0.12014 -2.14092e-05)
(0.287719 -0.120205 1.2339e-06)
(0.287719 -0.120205 -1.2339e-06)
(0.287547 -0.12014 2.14092e-05)
(0.000246649 0.00442417 0.00023098)
(0.000250554 0.0044278 -5.12647e-08)
(0.000250554 0.0044278 5.12636e-08)
(0.000246649 0.00442417 -0.00023098)
(-0.0145741 0.00164789 0.000226481)
(-0.014565 0.0016528 -4.95437e-08)
(-0.014565 0.0016528 4.95434e-08)
(-0.0145741 0.00164789 -0.000226481)
(-0.0140036 0.000423589 0.000320319)
(-0.013987 0.000419176 -3.44716e-08)
(-0.013987 0.000419176 3.44704e-08)
(-0.0140036 0.000423589 -0.000320319)
(-0.0118474 -0.000953545 0.000331541)
(-0.0118295 -0.000959157 -2.0234e-08)
(-0.0118295 -0.000959157 2.02305e-08)
(-0.0118474 -0.000953545 -0.000331541)
(-0.0140598 0.000262179 0.000298707)
(-0.0140561 0.000256966 -4.74341e-09)
(-0.0140561 0.000256966 4.74237e-09)
(-0.0140598 0.000262179 -0.000298707)
(-0.00349727 -0.00100744 0.000316666)
(-0.0034865 -0.00100954 -6.11808e-08)
(-0.0034865 -0.00100954 6.11801e-08)
(-0.00349727 -0.00100744 -0.000316666)
(0.0295073 0.000925725 0.000319924)
(0.0295279 0.000913765 -3.19648e-08)
(0.0295279 0.000913765 3.19629e-08)
(0.0295073 0.000925725 -0.000319924)
(0.0213911 0.00191468 0.000302078)
(0.0214003 0.00190223 2.0082e-08)
(0.0214003 0.00190223 -2.0084e-08)
(0.0213911 0.00191468 -0.000302078)
(0.0182859 0.00274573 0.000269206)
(0.0182756 0.00273803 -2.05605e-09)
(0.0182756 0.00273803 2.05477e-09)
(0.0182859 0.00274573 -0.000269206)
(0.0237317 0.00390524 0.000237278)
(0.0237392 0.00390263 -2.36946e-08)
(0.0237392 0.00390263 2.36936e-08)
(0.0237317 0.00390524 -0.000237278)
(-0.0112285 0.00168931 0.000215798)
(-0.0112233 0.00168551 4.01886e-08)
(-0.0112233 0.00168551 -4.01888e-08)
(-0.0112285 0.00168931 -0.000215798)
(0.00439418 0.00422612 0.000211295)
(0.00439189 0.00421814 1.55256e-08)
(0.00439189 0.00421814 -1.55262e-08)
(0.00439418 0.00422612 -0.000211295)
(0.0392214 0.00715933 0.000215296)
(0.0392137 0.00715218 7.18956e-08)
(0.0392137 0.00715218 -7.18969e-08)
(0.0392214 0.00715933 -0.000215296)
(-0.00710502 -0.00116467 0.000255935)
(-0.00709527 -0.00117511 -3.63925e-08)
(-0.00709527 -0.00117511 3.63917e-08)
(-0.00710502 -0.00116467 -0.000255935)
(-0.00440017 0.000423615 0.000236872)
(-0.00438897 0.000434352 -1.19182e-08)
(-0.00438897 0.000434352 1.19179e-08)
(-0.00440017 0.000423615 -0.000236872)
(-0.00181015 -0.00139399 0.00021411)
(-0.00181189 -0.00139191 -1.34714e-10)
(-0.00181189 -0.00139191 1.34569e-10)
(-0.00181015 -0.00139399 -0.00021411)
(0.0255743 -6.48841e-05 0.000418393)
(0.0255761 -8.25587e-05 -8.96096e-09)
(0.0255761 -8.25587e-05 8.95879e-09)
(0.0255743 -6.48842e-05 -0.000418393)
(0.0354007 0.000883607 0.000451095)
(0.0354143 0.000898664 -1.13184e-07)
(0.0354143 0.000898665 1.13183e-07)
(0.0354007 0.000883607 -0.000451095)
(0.0409256 -0.00137994 0.000495625)
(0.0408918 -0.00137844 -9.91013e-08)
(0.0408918 -0.00137844 9.91001e-08)
(0.0409256 -0.00137994 -0.000495625)
(0.114074 -0.00122607 0.000503032)
(0.114029 -0.00119744 -4.36234e-08)
(0.114029 -0.00119744 4.36222e-08)
(0.114074 -0.00122607 -0.000503032)
(0.106241 0.00061837 0.000453145)
(0.106253 0.000629728 -6.15005e-08)
(0.106253 0.000629727 6.14995e-08)
(0.106241 0.00061837 -0.000453145)
(0.0941255 0.0027386 0.000421791)
(0.0941187 0.00273084 8.9528e-08)
(0.0941187 0.00273084 -8.95294e-08)
(0.0941255 0.0027386 -0.000421791)
(0.0985611 0.00341604 0.000367939)
(0.0985343 0.00343022 -1.32312e-07)
(0.0985343 0.00343022 1.3231e-07)
(0.0985611 0.00341604 -0.000367939)
(0.0984297 0.00415918 0.000342533)
(0.0984461 0.0041707 -7.74013e-10)
(0.0984461 0.0041707 7.72494e-10)
(0.0984297 0.00415918 -0.000342533)
(0.0917731 0.00446984 0.000319763)
(0.0917933 0.00446301 -9.98102e-09)
(0.0917933 0.00446301 9.97969e-09)
(0.0917731 0.00446984 -0.000319763)
(0.0849945 0.0061668 0.000294549)
(0.0849997 0.00615588 3.04307e-08)
(0.0849997 0.00615588 -3.04319e-08)
(0.0849945 0.0061668 -0.000294549)
(0.0826214 0.00720361 0.000261394)
(0.0825969 0.0071981 -4.69454e-08)
(0.0825969 0.0071981 4.69446e-08)
(0.0826214 0.00720361 -0.000261394)
(0.0865791 0.00740259 0.000230191)
(0.0865808 0.00740621 -6.10351e-08)
(0.0865808 0.00740621 6.10341e-08)
(0.0865791 0.00740259 -0.000230191)
(0.0941137 0.00941966 0.000205425)
(0.0941198 0.00942969 5.01929e-08)
(0.0941198 0.00942969 -5.01945e-08)
(0.0941137 0.00941966 -0.000205425)
(0.001051 -0.00152034 0.000187921)
(0.00105013 -0.00151684 -2.32478e-08)
(0.00105013 -0.00151684 2.32475e-08)
(0.001051 -0.00152034 -0.000187921)
(-0.00934625 0.00191081 0.000183681)
(-0.00934959 0.00191618 -3.28947e-08)
(-0.00934959 0.00191618 3.28946e-08)
(-0.00934625 0.00191081 -0.000183681)
(0.00756427 0.00477624 0.00017747)
(0.00756261 0.00478296 -3.88677e-08)
(0.00756261 0.00478296 3.88673e-08)
(0.00756427 0.00477624 -0.00017747)
(0.0467184 0.00721584 0.00017588)
(0.0467085 0.00722194 -5.78521e-08)
(0.0467085 0.00722194 5.78514e-08)
(0.0467184 0.00721584 -0.00017588)
(0.103466 0.00917938 0.000175085)
(0.103465 0.00918279 -5.92343e-08)
(0.103465 0.00918279 5.92332e-08)
(0.103466 0.00917938 -0.000175085)
(0.0350878 0.00462301 0.00034726)
(0.0350921 0.00463529 -9.79303e-08)
(0.0350921 0.00463529 9.793e-08)
(0.0350878 0.00462301 -0.00034726)
(0.0301523 0.00365078 0.000321508)
(0.0301796 0.00364452 -6.14261e-08)
(0.0301796 0.00364452 6.14252e-08)
(0.0301523 0.00365078 -0.000321508)
(0.0294425 0.000672343 0.000304399)
(0.0294632 0.000671203 -8.50516e-09)
(0.0294632 0.000671203 8.50392e-09)
(0.0294425 0.000672343 -0.000304399)
(0.0293946 -0.000629318 0.000279366)
(0.0293925 -0.000625741 -3.54589e-08)
(0.0293925 -0.000625741 3.5458e-08)
(0.0293946 -0.000629318 -0.000279366)
(0.031637 -0.00135144 0.000255326)
(0.0316455 -0.00135017 -4.47589e-08)
(0.0316455 -0.00135017 4.47584e-08)
(0.031637 -0.00135144 -0.000255326)
(0.0321412 -0.00192761 0.00023793)
(0.0321592 -0.00191945 -7.17444e-09)
(0.0321592 -0.00191945 7.17446e-09)
(0.0321412 -0.00192761 -0.00023793)
(0.0345628 -0.00293397 0.000217241)
(0.0345589 -0.00292035 2.61479e-08)
(0.0345589 -0.00292035 -2.61482e-08)
(0.0345628 -0.00293397 -0.000217241)
(0.037745 -0.003916 0.000191115)
(0.0377369 -0.00391673 -2.46318e-08)
(0.0377369 -0.00391673 2.46315e-08)
(0.037745 -0.003916 -0.000191115)
(0.240626 0.0383981 0.000612239)
(0.240614 0.0384305 1.39055e-07)
(0.240614 0.0384305 -1.39056e-07)
(0.240626 0.0383981 -0.000612239)
(0.272363 0.062085 0.000585382)
(0.272424 0.0620891 3.71646e-07)
(0.272424 0.0620891 -3.71647e-07)
(0.272363 0.062085 -0.000585382)
(0.286236 0.0862234 0.00045965)
(0.286307 0.0862319 3.4796e-07)
(0.286307 0.0862319 -3.4796e-07)
(0.286236 0.0862234 -0.00045965)
(0.292092 0.0982522 0.00024413)
(0.292156 0.0983074 1.99276e-07)
(0.292156 0.0983074 -1.99276e-07)
(0.292092 0.0982522 -0.00024413)
(0.283238 0.109005 -2.06494e-05)
(0.283203 0.108902 -8.37938e-07)
(0.283203 0.108902 8.3794e-07)
(0.283238 0.109005 2.06493e-05)
(0.26926 0.116313 -0.000231443)
(0.269281 0.116278 2.27394e-07)
(0.269281 0.116278 -2.27392e-07)
(0.26926 0.116313 0.000231443)
(0.249225 0.0811264 -0.000499049)
(0.249242 0.0811643 -1.05192e-07)
(0.249242 0.0811643 1.05194e-07)
(0.249225 0.0811264 0.000499049)
(0.252188 0.0624074 -0.000573911)
(0.252142 0.0624445 -1.13777e-07)
(0.252142 0.0624445 1.13782e-07)
(0.252188 0.0624074 0.000573911)
(0.2521 0.0465067 -0.000576254)
(0.252085 0.0465371 -1.45568e-07)
(0.252085 0.0465371 1.45582e-07)
(0.2521 0.0465067 0.000576254)
(0.259271 0.0357343 -0.00054668)
(0.259247 0.0357532 -5.89788e-08)
(0.259247 0.0357532 5.90236e-08)
(0.259271 0.0357343 0.00054668)
(0.262608 0.0278806 -0.000503917)
(0.262604 0.0278949 -6.80582e-08)
(0.262604 0.0278949 6.81976e-08)
(0.262608 0.0278806 0.000503917)
(0.269105 0.0217528 -0.000454274)
(0.26909 0.0217658 -5.27608e-08)
(0.26909 0.0217658 5.31763e-08)
(0.269105 0.0217528 0.000454274)
(0.272935 0.017819 -0.000406411)
(0.272934 0.0178282 -2.08001e-08)
(0.272934 0.0178282 2.19509e-08)
(0.272935 0.017819 0.00040641)
(0.27767 0.0146171 -0.000363342)
(0.277676 0.0146216 5.54476e-08)
(0.277676 0.0146216 -5.25115e-08)
(0.27767 0.0146171 0.000363339)
(0.280785 0.0124504 -0.000325119)
(0.280794 0.0124583 1.88027e-08)
(0.280794 0.0124583 -1.25747e-08)
(0.280785 0.0124504 0.000325113)
(0.284329 0.0101858 -0.000289468)
(0.284331 0.0101895 8.532e-09)
(0.284331 0.0101895 -5.06624e-09)
(0.284329 0.0101858 0.000289464)
(0.286916 0.00893359 -0.000258063)
(0.286914 0.00894248 -4.98087e-08)
(0.286914 0.00894248 5.12156e-08)
(0.286916 0.00893359 0.000258061)
(0.289479 0.00738071 -0.000230567)
(0.28947 0.00738559 -6.06211e-08)
(0.28947 0.00738559 6.11362e-08)
(0.289479 0.00738071 0.000230567)
(0.291362 0.00674406 -0.000207696)
(0.291354 0.00674722 -6.17653e-08)
(0.291354 0.00674722 6.19682e-08)
(0.291362 0.00674406 0.000207696)
(0.121328 -0.00321842 0.000387852)
(0.121335 -0.00324727 -8.85348e-08)
(0.121335 -0.00324727 8.85348e-08)
(0.121328 -0.00321842 -0.000387852)
(0.110463 -0.000886638 0.000357177)
(0.110469 -0.000872239 2.89497e-08)
(0.110469 -0.000872239 -2.89498e-08)
(0.110463 -0.000886638 -0.000357177)
(0.103831 0.00019434 0.000324795)
(0.103831 0.000190167 -1.02544e-07)
(0.103831 0.000190167 1.02544e-07)
(0.103831 0.00019434 -0.000324795)
(0.099505 -0.000550188 0.000300273)
(0.0995311 -0.000550748 -1.53275e-08)
(0.0995311 -0.000550748 1.53271e-08)
(0.099505 -0.000550188 -0.000300273)
(0.0992345 -0.00136944 0.000276781)
(0.0992414 -0.00135903 -1.66467e-08)
(0.0992414 -0.00135903 1.66464e-08)
(0.0992345 -0.00136944 -0.000276781)
(0.0983981 -0.0020002 0.000254991)
(0.0984026 -0.00199771 -3.31618e-08)
(0.0984026 -0.00199771 3.31617e-08)
(0.0983981 -0.0020002 -0.000254991)
(0.0963338 -0.00276556 0.000235318)
(0.0963506 -0.00275445 3.91151e-09)
(0.0963506 -0.00275445 -3.91151e-09)
(0.0963338 -0.00276556 -0.000235318)
(0.0933989 -0.00382918 0.000215199)
(0.093394 -0.0038177 3.81348e-08)
(0.093394 -0.0038177 -3.81352e-08)
(0.0933989 -0.00382918 -0.000215199)
(0.0975098 -0.00480673 0.000188413)
(0.0974978 -0.00480709 -4.93535e-08)
(0.0974978 -0.00480709 4.93526e-08)
(0.0975098 -0.00480673 -0.000188413)
(0.0978651 -0.00558392 0.000167687)
(0.0978705 -0.00557693 3.46588e-08)
(0.0978705 -0.00557693 -3.46591e-08)
(0.0978651 -0.00558392 -0.000167687)
(0.0411018 -0.0048364 0.000168225)
(0.0411067 -0.00482913 6.17737e-09)
(0.0411067 -0.00482913 -6.17725e-09)
(0.0411018 -0.0048364 -0.000168225)
(0.00514439 -0.00271082 0.000166275)
(0.00515026 -0.00270914 4.54576e-09)
(0.00515026 -0.00270914 -4.54501e-09)
(0.00514439 -0.00271082 -0.000166275)
(-0.00520999 0.000727342 0.000162557)
(-0.00520231 0.000729338 1.31797e-08)
(-0.00520231 0.000729338 -1.31789e-08)
(-0.00520999 0.000727342 -0.000162557)
(0.0115677 0.00386563 0.000155568)
(0.0115778 0.00386462 1.10076e-09)
(0.0115778 0.00386462 -1.09994e-09)
(0.0115677 0.00386563 -0.000155568)
(0.0508547 0.00621983 0.00015313)
(0.0508654 0.00620766 1.40954e-08)
(0.0508654 0.00620766 -1.40944e-08)
(0.0508547 0.00621983 -0.00015313)
(0.105484 0.00866015 0.000152991)
(0.105493 0.00865402 5.65457e-08)
(0.105493 0.00865402 -5.65448e-08)
(0.105484 0.00866015 -0.000152991)
(0.172398 0.00917756 0.000147643)
(0.172404 0.00918634 3.82136e-08)
(0.172404 0.00918634 -3.82122e-08)
(0.172398 0.00917756 -0.000147643)
(0.172489 0.00877356 0.000170339)
(0.172484 0.00876693 -5.14144e-08)
(0.172484 0.00876693 5.14133e-08)
(0.172489 0.00877356 -0.000170339)
(0.169246 0.00868702 0.00019741)
(0.169253 0.00869768 4.34272e-08)
(0.169253 0.00869768 -4.34293e-08)
(0.169246 0.00868702 -0.00019741)
(0.168634 0.00769709 0.000222924)
(0.168626 0.00768871 -7.06598e-08)
(0.168626 0.00768871 7.06587e-08)
(0.168634 0.00769709 -0.000222924)
(0.16932 0.00725913 0.000252839)
(0.169309 0.00725134 -2.31838e-08)
(0.169309 0.00725134 2.31833e-08)
(0.16932 0.00725913 -0.000252839)
(0.175012 0.00588235 0.000281569)
(0.175029 0.00587687 4.2139e-08)
(0.175029 0.00587687 -4.214e-08)
(0.175012 0.00588234 -0.000281569)
(0.18487 0.00399322 0.000306426)
(0.184895 0.00400419 3.45481e-08)
(0.184895 0.00400419 -3.45495e-08)
(0.18487 0.00399322 -0.000306426)
(0.194273 0.00216542 0.000328687)
(0.194281 0.00217976 -3.80399e-08)
(0.194281 0.00217976 3.80383e-08)
(0.194273 0.00216542 -0.000328687)
(0.200017 0.000708623 0.000353838)
(0.199987 0.000697499 -1.98085e-07)
(0.199987 0.000697499 1.98083e-07)
(0.200017 0.000708623 -0.000353838)
(0.206326 -0.000437386 0.000390364)
(0.206327 -0.000433777 2.16669e-08)
(0.206327 -0.000433777 -2.16688e-08)
(0.206326 -0.000437386 -0.000390364)
(0.221941 -0.0046123 0.000422239)
(0.221953 -0.00461152 -5.92809e-08)
(0.221953 -0.00461152 5.92796e-08)
(0.221941 -0.0046123 -0.000422239)
(0.23724 -0.00790567 0.000460217)
(0.237206 -0.00786277 -1.90366e-07)
(0.237206 -0.00786277 1.90365e-07)
(0.23724 -0.00790567 -0.000460217)
(0.254113 -0.0135089 0.000509738)
(0.254111 -0.0134557 1.57192e-07)
(0.254111 -0.0134557 -1.57194e-07)
(0.254113 -0.0135089 -0.000509738)
(0.281789 -0.0228143 0.000531049)
(0.281784 -0.02273 -7.01427e-08)
(0.281784 -0.02273 7.01404e-08)
(0.281789 -0.0228143 -0.000531049)
(0.287473 -0.0332719 0.000577067)
(0.287357 -0.0332284 -4.01272e-07)
(0.287357 -0.0332284 4.01272e-07)
(0.287473 -0.0332719 -0.000577067)
(0.278597 -0.0410442 0.000655802)
(0.278581 -0.0410318 6.18009e-07)
(0.278581 -0.0410318 -6.18009e-07)
(0.278597 -0.0410442 -0.000655802)
(0.326758 -0.0657098 0.000583253)
(0.326771 -0.0657019 6.38304e-08)
(0.326771 -0.0657019 -6.38353e-08)
(0.326758 -0.0657098 -0.000583253)
(0.315307 -0.0972258 0.00043257)
(0.315252 -0.097161 -1.41344e-07)
(0.315252 -0.097161 1.41334e-07)
(0.315307 -0.0972258 -0.000432569)
(0.307392 -0.122018 0.000174797)
(0.307478 -0.122056 6.93417e-07)
(0.307478 -0.122056 -6.93421e-07)
(0.307392 -0.122018 -0.000174797)
(0.268798 -0.0872697 -0.000251787)
(0.268874 -0.0873182 4.91747e-07)
(0.268874 -0.0873182 -4.91749e-07)
(0.268798 -0.0872697 0.000251787)
(0.265232 -0.074315 -0.000423774)
(0.265251 -0.0743321 8.66328e-08)
(0.265251 -0.0743321 -8.66362e-08)
(0.265232 -0.074315 0.000423774)
(0.259123 -0.0548843 -0.000483166)
(0.259126 -0.0548954 -9.18321e-08)
(0.259126 -0.0548954 9.18228e-08)
(0.259123 -0.0548843 0.000483166)
(0.263594 -0.0435135 -0.000494206)
(0.26358 -0.0435252 -9.43175e-08)
(0.26358 -0.0435252 9.42988e-08)
(0.263594 -0.0435135 0.000494206)
(0.265123 -0.0322002 -0.000470579)
(0.265115 -0.0322277 -1.30074e-07)
(0.265115 -0.0322277 1.30016e-07)
(0.265123 -0.0322002 0.000470579)
(0.270771 -0.0257157 -0.000433206)
(0.270751 -0.0257346 -1.36887e-07)
(0.270751 -0.0257346 1.36746e-07)
(0.270771 -0.0257157 0.000433206)
(0.274036 -0.0202352 -0.00039179)
(0.274027 -0.0202544 -9.01789e-08)
(0.274027 -0.0202544 8.98769e-08)
(0.274036 -0.0202352 0.000391791)
(0.278434 -0.0169219 -0.000352948)
(0.278433 -0.0169337 -2.78616e-08)
(0.278433 -0.0169337 2.72812e-08)
(0.278434 -0.0169219 0.000352949)
(0.28129 -0.0140515 -0.000317499)
(0.281289 -0.0140679 -5.39131e-08)
(0.281289 -0.0140679 5.30929e-08)
(0.28129 -0.0140515 0.000317499)
(0.284653 -0.0116587 -0.000284274)
(0.284644 -0.0116696 -8.02606e-08)
(0.284644 -0.0116696 7.96215e-08)
(0.284653 -0.0116587 0.000284274)
(0.287097 -0.00981131 -0.000254903)
(0.287089 -0.00982401 -6.8425e-08)
(0.287089 -0.00982401 6.80503e-08)
(0.287097 -0.00981131 0.000254903)
(0.289537 -0.00845525 -0.000228721)
(0.289531 -0.00846106 -5.04778e-08)
(0.289531 -0.00846106 5.0298e-08)
(0.289537 -0.00845525 0.000228721)
(0.291512 -0.00720427 -0.000205061)
(0.291505 -0.00721193 -5.58177e-08)
(0.291505 -0.00721193 5.57417e-08)
(0.291512 -0.00720427 0.000205061)
(0.293342 -0.00618575 -0.000184178)
(0.293335 -0.00619046 -4.07154e-08)
(0.293335 -0.00619046 4.06875e-08)
(0.293342 -0.00618575 0.000184178)
(0.292853 -0.00456644 -0.000194392)
(0.292844 -0.00457282 -5.18336e-08)
(0.292844 -0.00457282 5.17867e-08)
(0.292853 -0.00456644 0.000194392)
(0.292482 -0.00293654 -0.000201834)
(0.292473 -0.00294224 -6.49809e-08)