/*--------------------------------*- C++ -*----------------------------------*\
| =========                 |                                                 |
| \\      /  F ield         | OpenFOAM: The Open Source CFD Toolbox           |
|  \\    /   O peration     | Version:  v1806                                 |
|   \\  /    A nd           | Web:      www.OpenFOAM.com                      |
|    \\/     M anipulation  |                                                 |
\*---------------------------------------------------------------------------*/
FoamFile
{
    version     2.0;
    format      ascii;
    class       volVectorField;
    location    "100";
    object      U;
}
// * * * * * * * * * * * * * * * * * * * * * * * * * * * * * * * * * * * * * //

dimensions      [0 1 -1 0 0 0 0];


internalField   nonuniform List<vector> 
2400
(
(0.299951 -0.000555874 0)
(0.300064 -0.00196344 0)
(0.299886 -0.00294974 0)
(0.300027 -0.00463661 0)
(0.299794 -0.00598507 0)
(0.299795 -0.00870749 0)
(0.299565 -0.00952984 0)
(0.299393 -0.0129901 0)
(0.29938 -0.014875 0)
(0.298568 -0.0208346 0)
(0.298692 -0.0222897 0)
(0.297319 -0.0290872 0)
(0.297786 -0.031927 0)
(0.295794 -0.0431087 0)
(0.295555 -0.0465998 0)
(0.293014 -0.0582741 0)
(0.292548 -0.0628928 0)
(0.289766 -0.0757418 0)
(0.288504 -0.0826146 0)
(0.285729 -0.0908376 0)
(0.299952 -0.000558249 0)
(0.300052 -0.00194905 0)
(0.299849 -0.00294184 0)
(0.299966 -0.00461581 0)
(0.299679 -0.00594474 0)
(0.299656 -0.00865544 0)
(0.299315 -0.00945598 0)
(0.299127 -0.0129471 0)
(0.298941 -0.0147221 0)
(0.298101 -0.0207005 0)
(0.297998 -0.022024 0)
(0.296486 -0.0289393 0)
(0.296786 -0.0315691 0)
(0.294458 -0.0427603 0)
(0.294175 -0.0458912 0)
(0.291121 -0.0578554 0)
(0.290767 -0.0619901 0)
(0.287526 -0.0752147 0)
(0.286827 -0.0815256 0)
(0.283854 -0.0899585 0)
(0.299954 -0.000559242 0)
(0.300038 -0.00192522 0)
(0.299805 -0.00292641 0)
(0.29989 -0.00457359 0)
(0.299528 -0.00588815 0)
(0.299476 -0.00857092 0)
(0.298975 -0.00935718 0)
(0.298777 -0.0128578 0)
(0.298337 -0.0145191 0)
(0.297489 -0.0205192 0)
(0.297048 -0.0216761 0)
(0.295412 -0.0287526 0)
(0.295453 -0.0310747 0)
(0.292779 -0.0424106 0)
(0.292443 -0.0450583 0)
(0.288834 -0.0575261 0)
(0.288697 -0.0609955 0)
(0.285029 -0.0749977 0)
(0.285017 -0.0805519 0)
(0.281917 -0.0895849 0)
(0.299958 -0.000558728 0)
(0.300023 -0.00189239 0)
(0.299763 -0.00290213 0)
(0.299809 -0.00451034 0)
(0.299372 -0.00581893 0)
(0.299283 -0.00845161 0)
(0.298612 -0.00923474 0)
(0.298402 -0.0127192 0)
(0.297676 -0.0142806 0)
(0.296842 -0.0202866 0)
(0.295995 -0.0212514 0)
(0.294302 -0.028521 0)
(0.293978 -0.0304629 0)
(0.291033 -0.042061 0)
(0.290598 -0.0440774 0)
(0.286428 -0.0572507 0)
(0.286599 -0.0598698 0)
(0.282402 -0.0749847 0)
(0.283159 -0.0795101 0)
(0.279869 -0.0894999 0)
(0.299964 -0.000556871 0)
(0.300004 -0.00185055 0)
(0.299727 -0.00286895 0)
(0.299721 -0.00442604 0)
(0.299224 -0.00573446 0)
(0.299079 -0.0082938 0)
(0.298257 -0.00908626 0)
(0.298015 -0.0125262 0)
(0.297006 -0.0140025 0)
(0.296194 -0.0199844 0)
(0.2949 -0.0207494 0)
(0.293226 -0.0282247 0)
(0.292416 -0.0297304 0)
(0.28933 -0.0416798 0)
(0.288672 -0.0429326 0)
(0.283997 -0.0570085 0)
(0.284511 -0.0585984 0)
(0.279626 -0.0751419 0)
(0.281283 -0.0783956 0)
(0.277703 -0.0897784 0)
(0.299973 -0.000553416 0)
(0.29998 -0.00180029 0)
(0.299698 -0.00282655 0)
(0.299625 -0.00432088 0)
(0.299092 -0.00563371 0)
(0.298862 -0.00809737 0)
(0.297926 -0.00891265 0)
(0.297616 -0.0122741 0)
(0.296355 -0.0136878 0)
(0.295547 -0.0196015 0)
(0.293797 -0.0201841 0)
(0.292201 -0.0278438 0)
(0.290786 -0.0288895 0)
(0.28772 -0.0412489 0)
(0.286633 -0.0416297 0)
(0.28161 -0.0567995 0)
(0.282398 -0.0571672 0)
(0.276668 -0.075463 0)
(0.279435 -0.077212 0)
(0.27539 -0.0904778 0)
(0.299985 -0.000547975 0)
(0.29995 -0.0017425 0)
(0.299679 -0.00277428 0)
(0.299519 -0.00419613 0)
(0.298979 -0.00551627 0)
(0.298628 -0.00786372 0)
(0.297628 -0.00871486 0)
(0.297195 -0.0119607 0)
(0.295747 -0.0133424 0)
(0.294886 -0.019129 0)
(0.292717 -0.0195725 0)
(0.291214 -0.0273561 0)
(0.289104 -0.0279635 0)
(0.286225 -0.0407429 0)
(0.284434 -0.040181 0)
(0.279345 -0.0566223 0)
(0.280166 -0.055545 0)
(0.273531 -0.0759599 0)
(0.277671 -0.0759527 0)
(0.272837 -0.0916397 0)
(0.3 -0.000540122 0)
(0.299914 -0.00167819 0)
(0.299669 -0.00271137 0)
(0.299403 -0.00405364 0)
(0.298888 -0.00538115 0)
(0.298375 -0.0075952 0)
(0.297374 -0.0084929 0)
(0.296744 -0.0115866 0)
(0.295201 -0.0129702 0)
(0.294191 -0.0185601 0)
(0.291699 -0.0189306 0)
(0.29023 -0.0267376 0)
(0.287411 -0.0269814 0)
(0.284825 -0.0401215 0)
(0.282048 -0.0386124 0)
(0.277278 -0.0564602 0)
(0.277664 -0.0536941 0)
(0.270304 -0.076673 0)
(0.276016 -0.0745843 0)
(0.269861 -0.0932806 0)
(0.300018 -0.000529432 0)
(0.299874 -0.00160842 0)
(0.299669 -0.00263708 0)
(0.299276 -0.00389555 0)
(0.29882 -0.00522685 0)
(0.2981 -0.0072952 0)
(0.297167 -0.00824543 0)
(0.296257 -0.0111547 0)
(0.294736 -0.0125717 0)
(0.293438 -0.0178923 0)
(0.290785 -0.0182701 0)
(0.289196 -0.0259653 0)
(0.285771 -0.0259745 0)
(0.283459 -0.0393299 0)
(0.279495 -0.03697 0)
(0.275443 -0.0562656 0)
(0.274713 -0.0515936 0)
(0.267181 -0.0776698 0)
(0.274385 -0.0730148 0)
(0.266198 -0.0954051 0)
(0.300038 -0.00051553 0)
(0.299829 -0.00153425 0)
(0.299676 -0.00255067 0)
(0.299141 -0.00372412 0)
(0.298773 -0.00505167 0)
(0.297808 -0.00696787 0)
(0.297008 -0.0079698 0)
(0.295731 -0.0106708 0)
(0.294363 -0.0121438 0)
(0.29261 -0.0171289 0)
(0.290016 -0.0175951 0)
(0.288054 -0.0250241 0)
(0.284276 -0.0249709 0)
(0.282017 -0.0383036 0)
(0.276874 -0.0353189 0)
(0.273779 -0.0559451 0)
(0.271168 -0.0492699 0)
(0.264439 -0.0790185 0)
(0.272475 -0.0710709 0)
(0.261613 -0.0980728 0)
(0.300059 -0.000498142 0)
(0.299782 -0.00145662 0)
(0.29969 -0.00245157 0)
(0.299002 -0.00354159 0)
(0.298745 -0.00485392 0)
(0.297503 -0.00661783 0)
(0.296895 -0.00766247 0)
(0.29517 -0.0101425 0)
(0.294086 -0.0116801 0)
(0.2917 -0.0162797 0)
(0.289424 -0.0169001 0)
(0.286755 -0.0239128 0)
(0.283026 -0.0239862 0)
(0.280361 -0.036981 0)
(0.274367 -0.0337327 0)
(0.27209 -0.0553506 0)
(0.267019 -0.0468262 0)
(0.262315 -0.0807273 0)
(0.269704 -0.0685187 0)
(0.256152 -0.101526 0)
(0.300081 -0.000477143 0)
(0.299734 -0.00137624 0)
(0.299706 -0.00233951 0)
(0.298863 -0.0033499 0)
(0.298729 -0.00463232 0)
(0.297193 -0.00624954 0)
(0.296817 -0.00731979 0)
(0.294588 -0.00957872 0)
(0.293894 -0.0111719 0)
(0.290718 -0.0153599 0)
(0.289015 -0.0161705 0)
(0.285275 -0.0226466 0)
(0.282102 -0.0230123 0)
(0.278358 -0.0353298 0)
(0.272216 -0.0322727 0)
(0.270039 -0.0542852 0)
(0.262504 -0.0444509 0)
(0.260787 -0.0826532 0)
(0.26529 -0.0651605 0)
(0.250477 -0.106329 0)
(0.300101 -0.000452583 0)
(0.299689 -0.00129358 0)
(0.299723 -0.00221463 0)
(0.29873 -0.00315051 0)
(0.298719 -0.00438631 0)
(0.296891 -0.00586683 0)
(0.296761 -0.00693892 0)
(0.294005 -0.00898828 0)
(0.293767 -0.0106101 0)
(0.289692 -0.0143879 0)
(0.28877 -0.0153848 0)
(0.283631 -0.0212562 0)
(0.281537 -0.022014 0)
(0.275928 -0.0333649 0)
(0.270662 -0.0309591 0)
(0.267227 -0.0525446 0)
(0.258156 -0.0423865 0)
(0.259343 -0.0844203 0)
(0.258554 -0.0610126 0)
(0.24605 -0.11343 0)
(0.30012 -0.0004247 0)
(0.299649 -0.00120878 0)
(0.299737 -0.00207756 0)
(0.298607 -0.00294427 0)
(0.298707 -0.00411637 0)
(0.296608 -0.00547232 0)
(0.296711 -0.0065187 0)
(0.293447 -0.00837825 0)
(0.293673 -0.00998736 0)
(0.288672 -0.0133814 0)
(0.288635 -0.01452 0)
(0.28189 -0.0197804 0)
(0.281284 -0.0209362 0)
(0.273088 -0.031148 0)
(0.269842 -0.0297306 0)
(0.263329 -0.050031 0)
(0.254714 -0.0408367 0)
(0.256886 -0.0854014 0)
(0.249458 -0.056513 0)
(0.244753 -0.124042 0)
(0.300135 -0.000393904 0)
(0.299614 -0.00112169 0)
(0.299745 -0.00192943 0)
(0.2985 -0.00273133 0)
(0.298687 -0.00382414 0)
(0.296356 -0.00506712 0)
(0.296653 -0.00606031 0)
(0.292939 -0.00775281 0)
(0.293575 -0.00930097 0)
(0.287715 -0.0123538 0)
(0.288535 -0.013558 0)
(0.280165 -0.0182573 0)
(0.281217 -0.019718 0)
(0.269996 -0.0287725 0)
(0.269688 -0.028436 0)
(0.258276 -0.0468324 0)
(0.25282 -0.0398416 0)
(0.251972 -0.0848166 0)
(0.23921 -0.0526381 0)
(0.247585 -0.139101 0)
(0.300147 -0.000360732 0)
(0.299587 -0.00103193 0)
(0.299746 -0.00177176 0)
(0.298412 -0.00251127 0)
(0.298655 -0.00351228 0)
(0.296143 -0.0046509 0)
(0.296572 -0.00556747 0)
(0.292506 -0.00711268 0)
(0.293442 -0.00855369 0)
(0.28688 -0.0113108 0)
(0.288389 -0.0124919 0)
(0.278594 -0.0167126 0)
(0.281149 -0.0183114 0)
(0.266934 -0.02633 0)
(0.269881 -0.0268902 0)
(0.252386 -0.0431759 0)
(0.252597 -0.0391789 0)
(0.243439 -0.0820434 0)
(0.230411 -0.050786 0)
(0.252864 -0.158038 0)
(0.300155 -0.000325777 0)
(0.299568 -0.000939018 0)
(0.29974 -0.00160633 0)
(0.298343 -0.00228331 0)
(0.298608 -0.0031843 0)
(0.295976 -0.00422215 0)
(0.296462 -0.00504608 0)
(0.292162 -0.00645534 0)
(0.29325 -0.00775415 0)
(0.286211 -0.0102501 0)
(0.288131 -0.0113291 0)
(0.277303 -0.015152 0)
(0.280894 -0.0167 0)
(0.264246 -0.0238774 0)
(0.269927 -0.0249371 0)
(0.246392 -0.0393341 0)
(0.253327 -0.0382702 0)
(0.231232 -0.0771493 0)
(0.226044 -0.0522021 0)
(0.255417 -0.17797 0)
(0.300159 -0.000289632 0)
(0.299556 -0.000842406 0)
(0.299726 -0.0014351 0)
(0.298294 -0.00204645 0)
(0.298549 -0.00284423 0)
(0.295853 -0.00377858 0)
(0.296325 -0.00450369 0)
(0.291911 -0.00577586 0)
(0.292996 -0.00691588 0)
(0.285727 -0.00916144 0)
(0.28773 -0.0100917 0)
(0.276372 -0.0135591 0)
(0.280321 -0.0149087 0)
(0.262228 -0.021411 0)
(0.269338 -0.0225155 0)
(0.241281 -0.035493 0)
(0.253526 -0.0363618 0)
(0.217018 -0.0709645 0)
(0.226633 -0.0569694 0)
(0.247783 -0.194708 0)
(0.300161 -0.000252913 0)
(0.29955 -0.000741561 0)
(0.299707 -0.00126008 0)
(0.298262 -0.00179975 0)
(0.29848 -0.00249625 0)
(0.295769 -0.00331789 0)
(0.296168 -0.0039484 0)
(0.291745 -0.00506865 0)
(0.292694 -0.00605463 0)
(0.285419 -0.00803157 0)
(0.287201 -0.00881015 0)
(0.275809 -0.0119032 0)
(0.279414 -0.0129974 0)
(0.261016 -0.0188661 0)
(0.267846 -0.0197 0)
(0.237896 -0.0316122 0)
(0.251547 -0.0330451 0)
(0.204105 -0.0642958 0)
(0.227175 -0.0629025 0)
(0.222549 -0.203675 0)
(0.30016 -0.000215859 0)
(0.299548 -0.000637075 0)
(0.299686 -0.00108183 0)
(0.298242 -0.00154432 0)
(0.298409 -0.00214188 0)
(0.295715 -0.00284151 0)
(0.296005 -0.00338367 0)
(0.291644 -0.0043344 0)
(0.29237 -0.00517883 0)
(0.28525 -0.00685677 0)
(0.286601 -0.007506 0)
(0.275548 -0.0101646 0)
(0.278273 -0.011026 0)
(0.260524 -0.0161673 0)
(0.265561 -0.0166511 0)
(0.236461 -0.0274599 0)
(0.246626 -0.0284502 0)
(0.196032 -0.0572341 0)
(0.218116 -0.0649696 0)
(0.1739 -0.194916 0)
(0.283815 -0.0960836 0)
(0.282519 -0.0990327 0)
(0.281162 -0.101402 0)
(0.27957 -0.103759 0)
(0.277723 -0.106203 0)
(0.27513 -0.108461 0)
(0.271719 -0.110752 0)
(0.267179 -0.112794 0)
(0.262554 -0.116145 0)
(0.25802 -0.122325 0)
(0.28257 -0.0952194 0)
(0.281838 -0.0981277 0)
(0.280786 -0.100436 0)
(0.279314 -0.102636 0)
(0.277416 -0.104703 0)
(0.274632 -0.106391 0)
(0.271069 -0.108023 0)
(0.266661 -0.109651 0)
(0.26253 -0.112982 0)
(0.257903 -0.118201 0)
(0.281465 -0.0948942 0)
(0.281355 -0.097706 0)
(0.280585 -0.0999045 0)
(0.27917 -0.101887 0)
(0.277183 -0.103569 0)
(0.274319 -0.104855 0)
(0.270895 -0.106226 0)
(0.266962 -0.107842 0)
(0.263351 -0.111053 0)
(0.258289 -0.115027 0)
(0.280442 -0.094809 0)
(0.280963 -0.0974072 0)
(0.280394 -0.0993964 0)
(0.278984 -0.101072 0)
(0.276962 -0.102341 0)
(0.274239 -0.103293 0)
(0.271259 -0.104488 0)
(0.26797 -0.106033 0)
(0.264648 -0.108776 0)
(0.258625 -0.111013 0)
(0.279533 -0.094997 0)
(0.280645 -0.0972613 0)
(0.280171 -0.0989593 0)
(0.278778 -0.100288 0)
(0.276906 -0.101201 0)
(0.274644 -0.101966 0)
(0.272353 -0.103097 0)
(0.269648 -0.104471 0)
(0.266072 -0.106292 0)
(0.258387 -0.106254 0)
(0.278723 -0.0954325 0)
(0.280332 -0.0972311 0)
(0.27988 -0.0985851 0)
(0.278659 -0.0995931 0)
(0.277267 -0.100276 0)
(0.275787 -0.100988 0)
(0.274216 -0.102011 0)
(0.271655 -0.102861 0)
(0.266945 -0.103128 0)
(0.256783 -0.100331 0)
(0.277943 -0.0960649 0)
(0.279961 -0.0973105 0)
(0.279607 -0.0983471 0)
(0.278907 -0.0991433 0)
(0.27839 -0.0997361 0)
(0.27782 -0.100402 0)
(0.276584 -0.101042 0)
(0.273266 -0.100796 0)
(0.266282 -0.0988455 0)
(0.252872 -0.0929642 0)
(0.277118 -0.0968477 0)
(0.279576 -0.097574 0)
(0.27965 -0.0984205 0)
(0.279962 -0.0991381 0)
(0.280558 -0.0996661 0)
(0.280566 -0.100043 0)
(0.278704 -0.0997481 0)
(0.273297 -0.0976913 0)
(0.262834 -0.0929602 0)
(0.245648 -0.08393 0)
(0.276282 -0.0978198 0)
(0.279473 -0.0982264 0)
(0.280559 -0.0990638 0)
(0.282265 -0.0997171 0)
(0.283701 -0.0999282 0)
(0.283242 -0.0994401 0)
(0.279199 -0.0974398 0)
(0.270155 -0.0928837 0)
(0.255233 -0.0850873 0)
(0.234202 -0.0731941 0)
(0.275771 -0.0991947 0)
(0.280292 -0.0996115 0)
(0.282973 -0.100504 0)
(0.285891 -0.100772 0)
(0.287015 -0.100008 0)
(0.284249 -0.0977827 0)
(0.276102 -0.0932737 0)
(0.262035 -0.0857842 0)
(0.242254 -0.0750701 0)
(0.217946 -0.0609854 0)
(0.276382 -0.101399 0)
(0.28289 -0.102102 0)
(0.287163 -0.102693 0)
(0.290022 -0.101732 0)
(0.288636 -0.0989482 0)
(0.281172 -0.0940216 0)
(0.267118 -0.08645 0)
(0.247302 -0.0760769 0)
(0.223142 -0.0631124 0)
(0.196848 -0.0478481 0)
(0.279304 -0.10497 0)
(0.287792 -0.105797 0)
(0.292315 -0.104997 0)
(0.292467 -0.101437 0)
(0.285601 -0.0954502 0)
(0.271125 -0.0871247 0)
(0.250154 -0.0764932 0)
(0.225 -0.0639213 0)
(0.197977 -0.0498562 0)
(0.171612 -0.0346221 0)
(0.285543 -0.110196 0)
(0.294233 -0.110094 0)
(0.295854 -0.105981 0)
(0.28958 -0.0982548 0)
(0.274292 -0.0882061 0)
(0.25148 -0.0764576 0)
(0.224058 -0.0635452 0)
(0.195376 -0.0500786 0)
(0.16791 -0.0363523 0)
(0.143703 -0.0223259 0)
(0.2948 -0.116582 0)
(0.299182 -0.113375 0)
(0.293307 -0.10351 0)
(0.276831 -0.0905043 0)
(0.25143 -0.0764078 0)
(0.220902 -0.0621943 0)
(0.189374 -0.0485589 0)
(0.160215 -0.0358742 0)
(0.135136 -0.0238769 0)
(0.115114 -0.0119455 0)
(0.30426 -0.12239 0)
(0.297052 -0.113066 0)
(0.27909 -0.0952793 0)
(0.250109 -0.0771535 0)
(0.215486 -0.0603136 0)
(0.180403 -0.0455994 0)
(0.14878 -0.0332528 0)
(0.122695 -0.0229217 0)
(0.102435 -0.0136099 0)
(0.0878822 -0.00419035 0)
(0.30816 -0.124443 0)
(0.280633 -0.106149 0)
(0.248236 -0.0797678 0)
(0.207589 -0.05862 0)
(0.168175 -0.0416515 0)
(0.133926 -0.0289667 0)
(0.10676 -0.0196985 0)
(0.0865886 -0.0126367 0)
(0.0723992 -0.0062894 0)
(0.0635398 0.000702281 0)
(0.29856 -0.118279 0)
(0.243115 -0.0901482 0)
(0.198784 -0.057375 0)
(0.151819 -0.0373697 0)
(0.115273 -0.0235245 0)
(0.0877037 -0.0149854 0)
(0.0682731 -0.00956417 0)
(0.0550902 -0.00570983 0)
(0.0467577 -0.00197465 0)
(0.0428054 0.00298228 0)
(0.266888 -0.0989841 0)
(0.180831 -0.0642529 0)
(0.134521 -0.0312359 0)
(0.0910624 -0.017715 0)
(0.0655084 -0.00941512 0)
(0.0480925 -0.00556781 0)
(0.0370633 -0.00339212 0)
(0.0300567 -0.00189502 0)
(0.0262259 -8.6514e-05 0)
(0.0256852 0.00321688 0)
(0.205101 -0.0628535 0)
(0.0972194 -0.0312638 0)
(0.0669704 -0.00756164 0)
(0.0378543 -0.00423354 0)
(0.0269807 -0.00143676 0)
(0.0191948 -0.000902575 0)
(0.014883 -0.000538554 0)
(0.0121649 -0.000318899 0)
(0.0109849 0.000235815 0)
(0.0119981 0.00212646 0)
(0.101619 -0.0317026 0)
(0.010945 -0.00754233 0)
(0.0132515 0.00126048 0)
(0.00355438 0.000112528 0)
(0.00368051 0.000433948 0)
(0.00236081 0.000165667 0)
(0.00199633 9.76685e-05 0)
(0.00157615 1.86784e-05 0)
(0.00141895 6.46275e-05 0)
(0.00218304 0.000778 0)
(0.252325 -0.1276 0)
(0.247017 -0.131304 0)
(0.240001 -0.134516 0)
(0.230791 -0.136645 0)
(0.21898 -0.137079 0)
(0.204362 -0.135365 0)
(0.187061 -0.131462 0)
(0.167591 -0.125841 0)
(0.146846 -0.119213 0)
(0.12597 -0.11207 0)
(0.106121 -0.104476 0)
(0.0882242 -0.0962643 0)
(0.0728217 -0.0873414 0)
(0.0600715 -0.0778136 0)
(0.04985 -0.0679227 0)
(0.0418833 -0.0579259 0)
(0.0358562 -0.0480358 0)
(0.031489 -0.0384622 0)
(0.028534 -0.0295976 0)
(0.0265701 -0.0227008 0)
(0.251477 -0.121495 0)
(0.245357 -0.123177 0)
(0.237295 -0.123724 0)
(0.227008 -0.12261 0)
(0.214326 -0.119421 0)
(0.199324 -0.114066 0)
(0.18237 -0.106985 0)
(0.164064 -0.0991481 0)
(0.145137 -0.0916574 0)
(0.126366 -0.0851714 0)
(0.108491 -0.0796217 0)
(0.092125 -0.0744377 0)
(0.0776887 -0.0690044 0)
(0.0653819 -0.0629688 0)
(0.0552129 -0.0562763 0)
(0.0470592 -0.0490575 0)
(0.0407356 -0.0415185 0)
(0.036061 -0.0339233 0)
(0.0328443 -0.026733 0)
(0.0304706 -0.0211468 0)
(0.250834 -0.116633 0)
(0.243761 -0.11688 0)
(0.234662 -0.11581 0)
(0.223379 -0.113055 0)
(0.209904 -0.108412 0)
(0.194487 -0.101986 0)
(0.177657 -0.0943302 0)
(0.160113 -0.0863837 0)
(0.142556 -0.0791115 0)
(0.125563 -0.0730352 0)
(0.109558 -0.0680419 0)
(0.0948584 -0.0635957 0)
(0.081704 -0.0591166 0)
(0.0702499 -0.0542317 0)
(0.060555 -0.0488172 0)
(0.0525905 -0.0429225 0)
(0.0462697 -0.0366907 0)
(0.0414938 -0.030345 0)
(0.0381335 -0.0243022 0)
(0.0354687 -0.0195959 0)
(0.249811 -0.110501 0)
(0.241621 -0.10895 0)
(0.231385 -0.105886 0)
(0.219098 -0.101089 0)
(0.204916 -0.0945534 0)
(0.189228 -0.0866085 0)
(0.172627 -0.0780091 0)
(0.155787 -0.0697975 0)
(0.139318 -0.0629013 0)
(0.123669 -0.0577098 0)
(0.109118 -0.0539563 0)
(0.0958331 -0.0509726 0)
(0.0839284 -0.0480715 0)
(0.0734804 -0.0447934 0)
(0.0645244 -0.0409489 0)
(0.0570527 -0.036547 0)
(0.051022 -0.0317118 0)
(0.0463802 -0.0266556 0)
(0.0430472 -0.0217598 0)
(0.0402578 -0.0179023 0)
(0.24781 -0.10342 0)
(0.238294 -0.100071 0)
(0.226806 -0.0951884 0)
(0.213485 -0.0887271 0)
(0.19863 -0.0808658 0)
(0.18274 -0.072096 0)
(0.166455 -0.0632495 0)
(0.150407 -0.0553231 0)
(0.135091 -0.0491006 0)
(0.120801 -0.0448075 0)
(0.107662 -0.0420686 0)
(0.0957186 -0.0401752 0)
(0.085 -0.0384314 0)
(0.0755377 -0.0363649 0)
(0.0673554 -0.0337602 0)
(0.0604559 -0.0305949 0)
(0.054818 -0.0269666 0)
(0.0504127 -0.023061 0)
(0.0471932 -0.0192091 0)
(0.0443808 -0.0161359 0)
(0.244082 -0.0950637 0)
(0.233108 -0.0899504 0)
(0.220363 -0.0834094 0)
(0.206117 -0.0755553 0)
(0.190775 -0.0667233 0)
(0.174898 -0.0575226 0)
(0.159118 -0.0488133 0)
(0.14399 -0.0415005 0)
(0.129886 -0.0361912 0)
(0.116954 -0.032936 0)
(0.105195 -0.031256 0)
(0.0945545 -0.0304154 0)
(0.0849983 -0.0297282 0)
(0.076523 -0.0287318 0)
(0.069141 -0.0272071 0)
(0.0628599 -0.0251189 0)
(0.0576718 -0.022548 0)
(0.0535614 -0.0196584 0)
(0.0505074 -0.016734 0)
(0.0477415 -0.014367 0)
(0.237828 -0.0853148 0)
(0.225394 -0.0786027 0)
(0.211522 -0.070694 0)
(0.196585 -0.0618418 0)
(0.181053 -0.0524947 0)
(0.165501 -0.0433213 0)
(0.150504 -0.0351468 0)
(0.136508 -0.0287372 0)
(0.123742 -0.0245041 0)
(0.112224 -0.0223334 0)
(0.101849 -0.0216682 0)
(0.0924944 -0.0217741 0)
(0.0840815 -0.0220006 0)
(0.0765854 -0.0219154 0)
(0.0700115 -0.0213105 0)
(0.0643708 -0.020146 0)
(0.0596642 -0.0184899 0)
(0.055886 -0.0164855 0)
(0.0530341 -0.0143745 0)
(0.0503689 -0.0126367 0)
(0.228296 -0.0741557 0)
(0.21459 -0.0661456 0)
(0.199906 -0.0572674 0)
(0.184672 -0.0478759 0)
(0.169375 -0.0384863 0)
(0.15455 -0.0297721 0)
(0.140674 -0.0224717 0)
(0.128054 -0.0171817 0)
(0.116776 -0.0141183 0)
(0.106742 -0.0130251 0)
(0.0977676 -0.0132992 0)
(0.0896862 -0.0142344 0)
(0.0823976 -0.0152349 0)
(0.0758668 -0.0159119 0)
(0.0700977 -0.0160775 0)
(0.0651055 -0.0156927 0)
(0.0608982 -0.0148154 0)
(0.0574773 -0.01357 0)
(0.0548555 -0.0121617 0)
(0.0523355 -0.0109769 0)
(0.214932 -0.061773 0)
(0.200376 -0.0528936 0)
(0.185392 -0.0435288 0)
(0.170407 -0.0340924 0)
(0.15587 -0.0251184 0)
(0.142229 -0.0172373 0)
(0.129828 -0.0110639 0)
(0.118822 -0.00701322 0)
(0.109167 -0.00512636 0)
(0.100673 -0.00504284 0)
(0.0931051 -0.00614575 0)
(0.0862784 -0.0077787 0)
(0.0800884 -0.00941237 0)
(0.0745017 -0.0107093 0)
(0.0695256 -0.0115057 0)
(0.0651805 -0.011766 0)
(0.061481 -0.0115393 0)
(0.0584348 -0.0109334 0)
(0.0560649 -0.0101218 0)
(0.0537274 -0.00941416 0)
(0.197552 -0.0485913 0)
(0.182803 -0.0393617 0)
(0.168199 -0.0300296 0)
(0.154112 -0.0210242 0)
(0.140902 -0.0128585 0)
(0.128896 -0.00608272 0)
(0.118288 -0.00118395 0)
(0.109087 0.00160316 0)
(0.101141 0.00238671 0)
(0.0942019 0.00158987 0)
(0.0880211 -0.000192782 0)
(0.0824159 -0.00237682 0)
(0.0772893 -0.00450626 0)
(0.0726169 -0.00628856 0)
(0.0684143 -0.00758516 0)
(0.0647077 -0.00836514 0)
(0.0615175 -0.00866971 0)
(0.058857 -0.00859126 0)
(0.0567554 -0.00827613 0)
(0.0546314 -0.00797107 0)
(0.176494 -0.0352731 0)
(0.162383 -0.0262352 0)
(0.14893 -0.0174205 0)
(0.136404 -0.00923995 0)
(0.12505 -0.00216643 0)
(0.115042 0.00334333 0)
(0.10644 0.00694773 0)
(0.0991493 0.00855978 0)
(0.0929384 0.00838975 0)
(0.0875301 0.00688338 0)
(0.0826824 0.00458586 0)
(0.0782359 0.00200267 0)
(0.0741219 -0.000481296 0)
(0.0703288 -0.00262275 0)
(0.0668746 -0.00429984 0)
(0.0637922 -0.00548402 0)
(0.0611073 -0.00620932 0)
(0.0588381 -0.00655406 0)
(0.0570166 -0.00664145 0)
(0.0551308 -0.00666613 0)
(0.152687 -0.0226505 0)
(0.140092 -0.0142801 0)
(0.128519 -0.00635119 0)
(0.118111 0.000739684 0)
(0.108985 0.00658405 0)
(0.101204 0.0108199 0)
(0.0947114 0.0132384 0)
(0.0893253 0.0138556 0)
(0.084784 0.0129332 0)
(0.0808204 0.0109051 0)
(0.077224 0.00825481 0)
(0.0738693 0.00541327 0)
(0.0707074 0.00270157 0)
(0.067744 0.00031928 0)
(0.065008 -0.0016285 0)
(0.0625317 -0.00311185 0)
(0.0603438 -0.00415638 0)
(0.0584665 -0.00482791 0)
(0.0569326 -0.00522997 0)
(0.0553037 -0.00551418 0)
(0.127556 -0.0115836 0)
(0.117229 -0.00419874 0)
(0.108072 0.00263487 0)
(0.100123 0.00855379 0)
(0.0934137 0.0132042 0)
(0.087902 0.0163037 0)
(0.083455 0.0177298 0)
(0.0798564 0.0175722 0)
(0.0768517 0.0161138 0)
(0.0742082 0.0137528 0)
(0.071758 0.0109049 0)
(0.0694109 0.00792969 0)
(0.0671406 0.00509425 0)
(0.0649617 0.00257196 0)
(0.0629082 0.000452535 0)
(0.061016 -0.0012344 0)
(0.0593136 -0.00250543 0)
(0.0578251 -0.00341483 0)
(0.0565821 -0.00404971 0)
(0.0552226 -0.00452643 0)
(0.102744 -0.00277336 0)
(0.0951319 0.00350983 0)
(0.088639 0.00924492 0)
(0.0832409 0.0140862 0)
(0.0788919 0.0177041 0)
(0.0755002 0.019876 0)
(0.0729062 0.0205487 0)
(0.070898 0.0198527 0)
(0.0692531 0.0180651 0)
(0.0677849 0.0155376 0)
(0.0663687 0.0126219 0)
(0.064945 0.00961818 0)
(0.0635038 0.00675213 0)
(0.0620649 0.00417415 0)
(0.0606615 0.00196845 0)
(0.0593294 0.000164785 0)
(0.0580977 -0.00124791 0)
(0.0569911 -0.00231324 0)
(0.0560388 -0.00310473 0)
(0.0549554 -0.00371054 0)
(0.079703 0.00340661 0)
(0.0748936 0.00867891 0)
(0.0709977 0.0134816 0)
(0.0679623 0.0174425 0)
(0.0657205 0.0202551 0)
(0.0641706 0.0217458 0)
(0.0631613 0.021907 0)
(0.0625096 0.0208861 0)
(0.0620372 0.0189407 0)
(0.0616026 0.0163767 0)
(0.061117 0.0134924 0)
(0.060541 0.0105421 0)
(0.0598725 0.00772091 0)
(0.059131 0.00516262 0)
(0.0583463 0.00294608 0)
(0.0575504 0.00110323 0)
(0.0567721 -0.000372852 0)
(0.056037 -0.00151815 0)
(0.0553716 -0.00239528 0)
(0.0545651 -0.00307066 0)
(0.0593594 0.00697924 0)
(0.0570967 0.011466 0)
(0.0554707 0.0155737 0)
(0.0544381 0.0189007 0)
(0.0539427 0.0211533 0)
(0.0539021 0.0221945 0)
(0.0541944 0.0220473 0)
(0.054676 0.0208652 0)
(0.0552104 0.018885 0)
(0.0556914 0.0163745 0)
(0.0560521 0.0135913 0)
(0.0562622 0.0107564 0)
(0.0563186 0.00804191 0)
(0.0562359 0.00556908 0)
(0.0560384 0.00341141 0)
(0.0557537 0.00160063 0)
(0.0554094 0.000133556 0)
(0.0550315 -0.00102114 0)
(0.0546451 -0.00191779 0)
(0.0541105 -0.00260735 0)
(0.0419654 0.0082821 0)
(0.0417866 0.0122371 0)
(0.0419838 0.0159052 0)
(0.0425326 0.0188338 0)
(0.0434087 0.0207346 0)
(0.0445654 0.0215032 0)
(0.0459171 0.021189 0)
(0.0473552 0.0199514 0)
(0.0487731 0.0180115 0)
(0.0500842 0.0156104 0)
(0.0512295 0.0129763 0)
(0.0521771 0.0103053 0)
(0.0529172 0.00775145 0)
(0.0534569 0.00542415 0)
(0.0538138 0.00339032 0)
(0.0540123 0.00167918 0)
(0.0540785 0.000288403 0)
(0.0540394 -0.000810077 0)
(0.0539201 -0.00166479 0)
(0.0536465 -0.00231751 0)
(0.0273055 0.00779983 0)
(0.0286939 0.0114426 0)
(0.0302627 0.0148912 0)
(0.0319974 0.0176034 0)
(0.0339217 0.0192948 0)
(0.0360296 0.0198988 0)
(0.0382644 0.019496 0)
(0.0405386 0.0182571 0)
(0.0427588 0.016397 0)
(0.044842 0.014139 0)
(0.0467253 0.0116902 0)
(0.0483683 0.00922616 0)
(0.0497518 0.00688387 0)
(0.0508747 0.00475975 0)
(0.0517494 0.00291173 0)
(0.0523978 0.00136397 0)
(0.0528461 0.000112607 0)
(0.0531224 -0.000868639 0)
(0.0532533 -0.00162467 0)
(0.053224 -0.00219437 0)
(0.0151815 0.00604953 0)
(0.0176308 0.0095177 0)
(0.0201404 0.012906 0)
(0.0227012 0.0155104 0)
(0.0254055 0.01706 0)
(0.028278 0.017541 0)
(0.0312711 0.017075 0)
(0.0342987 0.0158531 0)
(0.037262 0.0140911 0)
(0.0400687 0.0120007 0)
(0.0426437 0.00977056 0)
(0.0449353 0.00755646 0)
(0.0469146 0.00547682 0)
(0.048574 0.00361248 0)
(0.0499223 0.00200979 0)
(0.0509803 0.000685463 0)
(0.0517756 -0.0003677 0)
(0.0523383 -0.00117576 0)
(0.0526969 -0.00178136 0)
(0.0528898 -0.00222768 0)
(0.00601838 0.00363116 0)
(0.00883787 0.00694077 0)
(0.0117757 0.0103238 0)
(0.0147696 0.0128243 0)
(0.0179903 0.0142141 0)
(0.0214563 0.0145495 0)
(0.0250949 0.014004 0)
(0.0287954 0.0127943 0)
(0.0324363 0.0111394 0)
(0.0359053 0.00923913 0)
(0.0391112 0.00726257 0)
(0.0419895 0.00534298 0)
(0.0445035 0.0035772 0)
(0.0466406 0.00202753 0)
(0.0484079 0.000726352 0)
(0.0498267 -0.000318913 0)
(0.0509266 -0.00112038 0)
(0.0517401 -0.00170503 0)
(0.0522976 -0.0021139 0)
(0.0526862 -0.00240233 0)
(0.00169959 0.000948779 0)
(0.00347463 0.00456937 0)
(0.00615603 0.00789499 0)
(0.00912208 0.0101652 0)
(0.0125487 0.0112936 0)
(0.01638 0.0114132 0)
(0.0204812 0.0107454 0)
(0.0246942 0.00952494 0)
(0.0288628 0.00796774 0)
(0.0328496 0.00625722 0)
(0.0365466 0.00453973 0)
(0.0398789 0.00292398 0)
(0.0428035 0.00148396 0)
(0.0453051 0.000262821 0)
(0.0473903 -0.000721855 0)
(0.0490814 -0.0014723 0)
(0.0504102 -0.00200578 0)
(0.0514121 -0.00235072 0)
(0.0521167 -0.00254762 0)
(0.0526538 -0.00266449 0)
(0.000194176 -4.56063e-05 0)
(0.000775831 0.00319866 0)
(0.00262535 0.00605779 0)
(0.0052833 0.00785901 0)
(0.00872825 0.00858504 0)
(0.0127689 0.0084072 0)
(0.0171908 0.00757148 0)
(0.0217801 0.00631503 0)
(0.0263428 0.00484022 0)
(0.0307177 0.00330834 0)
(0.0347819 0.00184005 0)
(0.0384519 0.000518886 0)
(0.0416806 -0.000604531 0)
(0.0444508 -0.00150589 0)
(0.0467692 -0.0021818 0)
(0.0486592 -0.00264393 0)
(0.0501546 -0.00291444 0)
(0.0512933 -0.0030235 0)
(0.0521041 -0.00301178 0)
(0.0527481 -0.00295643 0)
(-0.00041816 0.000183025 0)
(-0.000732113 0.00266427 0)
(0.000304619 0.00466963 0)
(0.00259712 0.00571061 0)
(0.00598284 0.00583883 0)
(0.0101506 0.00524468 0)
(0.0148102 0.00417673 0)
(0.0196909 0.0028559 0)
(0.0245621 0.00145809 0)
(0.0292407 0.00011355 0)
(0.0335913 -0.00108873 0)
(0.0375237 -0.00209452 0)
(0.040987 -0.00287852 0)
(0.0439635 -0.00343691 0)
(0.0464601 -0.00378128 0)
(0.0485014 -0.00393325 0)
(0.050123 -0.00392051 0)
(0.0513646 -0.00377509 0)
(0.0522552 -0.0035381 0)
(0.0529781 -0.00329572 0)
(-0.00065173 0.000838106 0)
(-0.00149367 0.00267441 0)
(-0.00103128 0.00365125 0)
(0.000988016 0.00372512 0)
(0.00432733 0.00308677 0)
(0.00858466 0.00197295 0)
(0.0134151 0.000618 0)
(0.0185031 -0.000790276 0)
(0.0235909 -0.00211475 0)
(0.0284797 -0.00326446 0)
(0.0330264 -0.00418708 0)
(0.0371366 -0.00486116 0)
(0.040758 -0.00528819 0)
(0.0438723 -0.0054858 0)
(0.0464872 -0.00548136 0)
(0.0486281 -0.00530694 0)
(0.0503319 -0.00499594 0)
(0.0516401 -0.00458241 0)
(0.0525817 -0.00410788 0)
(0.0533532 -0.00366777 0)
(-0.000735096 0.001707 0)
(-0.00179228 0.00298492 0)
(-0.00154879 0.00284266 0)
(0.000395519 0.00182077 0)
(0.00376551 0.000313861 0)
(0.00811612 -0.00138103 0)
(0.0130662 -0.00305308 0)
(0.0182792 -0.00455867 0)
(0.0234865 -0.00580831 0)
(0.0284849 -0.00675584 0)
(0.0331294 -0.00738876 0)
(0.0373258 -0.00771968 0)
(0.0410221 -0.00777814 0)
(0.0442006 -0.00760366 0)
(0.0468693 -0.00723964 0)
(0.0490545 -0.00672877 0)
(0.0507938 -0.00611034 0)
(0.0521296 -0.00542047 0)
(0.0530918 -0.00470108 0)
(0.0538796 -0.00405618 0)
(-0.000749613 0.0026331 0)
(-0.00173668 0.00333459 0)
(-0.00131051 0.00203021 0)
(0.000811711 -0.000133256 0)
(0.00433281 -0.00252794 0)
(0.00879528 -0.00480695 0)
(0.0138177 -0.00679009 0)
(0.0190707 -0.00838344 0)
(0.0242948 -0.00954853 0)
(0.0292948 -0.0102854 0)
(0.0339322 -0.0106218 0)
(0.038117 -0.010604 0)
(0.0417998 -0.0102892 0)
(0.0449642 -0.00973852 0)
(0.0476188 -0.00901118 0)
(0.0497901 -0.0081605 0)
(0.0515158 -0.0072317 0)
(0.0528388 -0.00626304 0)
(0.0537896 -0.0052966 0)
(0.0545602 -0.0044438 0)
(-0.000680829 0.00347771 0)
(-0.00128201 0.00344168 0)
(-0.000238154 0.000973203 0)
(0.00231809 -0.00228041 0)
(0.00609997 -0.00549388 0)
(0.0106822 -0.00829528 0)
(0.0157177 -0.0105431 0)
(0.0209153 -0.0121935 0)
(0.026045 -0.0132559 0)
(0.0309322 -0.0137733 0)
(0.0354522 -0.0138103 0)
(0.0395234 -0.0134446 0)
(0.0431009 -0.0127594 0)
(0.0461704 -0.011836 0)
(0.0487407 -0.0107492 0)
(0.0508382 -0.0095624 0)
(0.0525001 -0.00832685 0)
(0.0537684 -0.00708292 0)
(0.054675 -0.00587258 0)
(0.0553939 -0.00481304 0)
(-0.000398837 0.0040623 0)
(-0.000197329 0.00301522 0)
(0.00189217 -0.000574314 0)
(0.00507213 -0.00474975 0)
(0.00916955 -0.00861579 0)
(0.0138345 -0.0118166 0)
(0.0187954 -0.0142485 0)
(0.0238261 -0.0159087 0)
(0.0287415 -0.016845 0)
(0.0333973 -0.0171353 0)
(0.0376877 -0.0168752 0)
(0.0415424 -0.0161697 0)
(0.0449224 -0.0151247 0)
(0.0478157 -0.0138405 0)
(0.0502315 -0.0124057 0)
(0.0521951 -0.0108939 0)
(0.0537425 -0.00936197 0)
(0.0549144 -0.00785237 0)
(0.0557438 -0.00640671 0)
(0.0563766 -0.00514609 0)
(0.000476355 0.00407132 0)
(0.00198258 0.00175752 0)
(0.00542845 -0.0027977 0)
(0.00929172 -0.00759584 0)
(0.0136408 -0.011869 0)
(0.0182797 -0.0153052 0)
(0.023041 -0.0178221 0)
(0.0277765 -0.0194388 0)
(0.0323533 -0.0202263 0)
(0.0366604 -0.0202865 0)
(0.0406127 -0.0197383 0)
(0.044152 -0.0187084 0)
(0.0472459 -0.0173223 0)
(0.0498846 -0.0156968 0)
(0.0520778 -0.0139333 0)
(0.0538492 -0.0121147 0)
(0.0552329 -0.0103033 0)
(0.0562672 -0.00854369 0)
(0.056987 -0.00687661 0)
(0.0575001 -0.00542534 0)
(0.00293283 0.00189859 0)
(0.00609174 -0.000877316 0)
(0.0108057 -0.00576382 0)
(0.0151721 -0.0107573 0)
(0.0195614 -0.0151585 0)
(0.023986 -0.0186615 0)
(0.0283886 -0.0211685 0)
(0.0326919 -0.0226946 0)
(0.0368092 -0.0233173 0)
(0.040659 -0.0231505 0)
(0.0441749 -0.0223293 0)
(0.0473096 -0.020997 0)
(0.0500368 -0.0192951 0)