x,y,z,U_0,U_1,U_2
0,0,0,3.01233,0.0112806,0
0,0.1,0,3.00881,0.00805757,0
0,0.2,0,3.00528,0.00483454,0
0,0.3,0,3.00176,0.00161151,0
0,0.4,0,3,0,0
0,0.5,0,3,0,0
0,0.6,0,3,0,0
0,0.7,0,3,0,0
0,0.8,0,3,0,0
0,0.9,0,3,0,0
0,1,0,3,0,0
0,1.1,0,3,0,0
0,1.2,0,3,0,0
0,1.3,0,3,0,0
0,1.4,0,3,0,0
0,1.5,0,3,0,0
0,1.6,0,3,0,0
0,1.7,0,3,0,0
0,1.8,0,3,0,0
0,1.9,0,3,0,0
0,2,0,3,0,0
0,2.1,0,3,0,0
0,2.2,0,3,0,0
0,2.3,0,3,0,0
0,2.4,0,3,0,0
0,2.5,0,3,0,0
0,2.6,0,3,0,0
0,2.7,0,3,0,0
0,2.8,0,3,0,0
0,2.9,0,3,0,0
0,3,0,3,0,0
0,3.1,0,3,0,0
0,3.2,0,3,0,0
0,3.3,0,3,0,0
0,3.4,0,3,0,0
0,3.5,0,3,1.37541e-17,0
0,3.6,0,3,0,0
0,3.7,0,3,0,0
0,3.8,0,3,0,0
0,3.9,0,3,0,0
0,4,0,3,0,0
0,4.1,0,3,0,0
0,4.2,0,3,0,0
0,4.3,0,3,0,0
0,4.4,0,3,0,0
0,4.5,0,3,0,0
0,4.6,0,3,0,0
0,4.7,0,3,0,0
0,4.8,0,3,0,0
0,4.9,0,3,6.88697e-18,0
0,5,0,3,0,0
0,5.1,0,3,0,0
0,5.2,0,3,0,0
0,5.3,0,3,0,0
0,5.4,0,3,0,0
0,5.5,0,3,0,0
0,5.6,0,3,0,0
0,5.7,0,3,0,0
0,5.8,0,3,0,0
0,5.9,0,3,0,0
0,6,0,3,0,0
0,6.1,0,3,0,0
0,6.2,0,3,0,0
0,6.3,0,3,0,0
0,6.4,0,3,0,0
0,6.5,0,3,0,0
0,6.6,0,3,0,0
0,6.7,0,3,0,0
0,6.8,0,3,0,0
0,6.9,0,3,0,0
0,7,0,3,0,0
0,7.1,0,3,-3.07297e-18,0
0,7.2,0,3,0,0
0,7.3,0,3,0,0
0,7.4,0,3,0,0
0,7.5,0,3,-5.06933e-18,0
0,7.6,0,3,0,0
0,7.7,0,3,-6.08094e-18,0
0,7.8,0,3,0,0
0,7.9,0,3,0,0
0,8,0,3,0,0
0,8.1,0,3,0,0
0,8.2,0,3,0,0
0,8.3,0,3,0,0
0,8.4,0,3,0,0
0,8.5,0,3,0,0
0,8.6,0,3,0,0
0,8.7,0,3,0,0
0,8.8,0,3,0,0
0,8.9,0,3,0,0
0,9,0,3,0,0
0,9.1,0,3,0,0
0,9.2,0,3,0,0
0,9.3,0,3,0,0
0,9.4,0,3,0,0
0,9.5,0,3,0,0
0,9.6,0,3,0,0
0,9.7,0,3,0,0
0,9.8,0,3,0,0
0,9.9,0,3,0,0
0,10,0,3,0,0
0,10.1,0,3,0,0
0,10.2,0,3,0,0
0,10.3,0,3,0,0
0,10.4,0,3,0,0
0,10.5,0,3,0,0
0,10.6,0,3,0,0
0,10.7,0,3,0,0
0,10.8,0,3,0,0
0,10.9,0,3,0,0
0,11,0,3,0,0
0,11.1,0,3,0,0
0,11.2,0,3,0,0
0,11.3,0,3,0,0
0,11.4,0,3,0,0
0,11.5,0,3,0,0
0,11.6,0,3,0,0
0,11.7,0,3,0,0
0,11.8,0,3,0,0
0,11.9,0,3,0,0
0,12,0,3,0,0
0,12.1,0,3,0,0
0,12.2,0,3,0,0
0,12.3,0,3,0,0
0,12.4,0,3,0,0
0,12.5,0,3.00218,-0.00130656,0
0,12.6,0,3.00841,-0.00503957,0
0,12.7,0,3.01465,-0.00877259,0
0.1,0,0,3.00972,-0.0448383,0
0.1,0.1,0,3.01938,0.0177267,0
0.1,0.2,0,3.01585,0.0145036,0
0.1,0.3,0,3.00762,-0.0172526,0
0.1,0.4,0,3.00482,-0.0207143,0
0.1,0.5,0,3.0085,0.00596874,0
0.1,0.6,0,3.0085,0.00596874,0
0.1,0.7,0,3.00161,-0.0445888,0
0.1,0.8,0,3.01543,0.00768051,0
0.1,0.9,0,3.01543,0.00768051,0
0.1,1,0,3.0079,-0.0158401,0
0.1,1.1,0,3.00743,-0.0210032,0
0.1,1.2,0,3.01449,-0.00264569,0
0.1,1.3,0,3.01449,-0.00264569,0
0.1,1.4,0,2.99926,-0.0334621,0
0.1,1.5,0,3.00553,0.0112971,0
0.1,1.6,0,3.00553,0.0112971,0
0.1,1.7,0,3.00298,-0.0105884,0
0.1,1.8,0,3.00571,-0.0164407,0
0.1,1.9,0,3.01098,-0.000407601,0
0.1,2,0,3.01098,-0.000407601,0
0.1,2.1,0,3.00038,-0.0280375,0
0.1,2.2,0,3.00899,0.00526865,0
0.1,2.3,0,3.00899,0.00526865,0
0.1,2.4,0,3.0045,-0.0100581,0
0.1,2.5,0,3.00423,-0.0115492,0
0.1,2.6,0,3.00845,0.00228637,0
0.1,2.7,0,3.00845,0.00228637,0
0.1,2.8,0,3.00035,-0.0226594,0
0.1,2.9,0,3.00827,0.00284535,0
0.1,3,0,3.00827,0.00284535,0
0.1,3.1,0,3.00425,-0.00859593,0
0.1,3.2,0,3.00411,-0.00899267,0
0.1,3.3,0,3.00798,0.00205186,0
0.1,3.4,0,3.00798,0.00205186,0
0.1,3.5,0,3.00026,-0.017698,0
0.1,3.6,0,3.00779,0.00180665,0
0.1,3.7,0,3.00779,0.00180665,0
0.1,3.8,0,3.00402,-0.00677381,0
0.1,3.9,0,3.00393,-0.00696355,0
0.1,4,0,3.00762,0.00142718,0
0.1,4.1,0,3.00762,0.00142718,0
0.1,4.2,0,3.00024,-0.0131348,0
0.1,4.3,0,3.0075,0.00109918,0
0.1,4.4,0,3.0075,0.00109918,0
0.1,4.5,0,3.00387,-0.00493778,0
0.1,4.6,0,3.00382,-0.0050869,0
0.1,4.7,0,3.00741,0.000800943,0
0.1,4.8,0,3.00741,0.000800943,0
0.1,4.9,0,3.00022,-0.00886176,0
0.1,5,0,3.00734,0.00053227,0
0.1,5.1,0,3.00734,0.00053227,0
0.1,5.2,0,3.00377,-0.0031246,0
0.1,5.3,0,3.00375,-0.00324284,0
0.1,5.4,0,3.00729,0.000295804,0
0.1,5.5,0,3.00729,0.000295804,0
0.1,5.6,0,3.00019,-0.00472302,0
0.1,5.7,0,3.00725,8.72629e-05,0
0.1,5.8,0,3.00725,8.72629e-05,0
0.1,5.9,0,3.00371,-0.00129945,0
0.1,6,0,3.00369,-0.00138932,0
0.1,6.1,0,3.00719,-9.24846e-05,0
0.1,6.2,0,3.00719,-9.24846e-05,0
0.1,6.3,0,3.00016,-0.000657775,0
0.1,6.4,0,3.00711,-0.000277296,0
0.1,6.5,0,3.00711,-0.000277296,0
0.1,6.6,0,3.00362,0.000528859,0
0.1,6.7,0,3.00357,0.000363875,0
0.1,6.8,0,3.00699,-0.000607263,0
0.1,6.9,0,3.00699,-0.000607263,0
0.1,7,0,3.00016,0.00298501,0
0.1,7.1,0,3.00019,0.00395412,0
0.1,7.2,0,3.00021,0.00459913,0
0.1,7.3,0,3.00021,0.00523565,0
0.1,7.4,0,3.00021,0.00587592,0
0.1,7.5,0,3.00021,0.00652293,0
0.1,7.6,0,3.00021,0.00717418,0
0.1,7.7,0,3.0002,0.00782461,0
0.1,7.8,0,3.0002,0.00847188,0
0.1,7.9,0,3.00019,0.00913775,0
0.1,8,0,3.00017,0.0100132,0
0.1,8.1,0,3.00704,-0.00116305,0
0.1,8.2,0,3.00374,0.00478894,0
0.1,8.3,0,3.00701,-0.00107477,0
0.1,8.4,0,3.00724,-0.00148174,0
0.1,8.5,0,3.00338,0.00629555,0
0.1,8.6,0,3.00739,-0.00167863,0
0.1,8.7,0,3.00069,0.0130669,0
0.1,8.8,0,3.00753,-0.00183166,0
0.1,8.9,0,3.00455,0.00529641,0
0.1,9,0,3.00686,-0.000111609,0
0.1,9.1,0,3.00766,-0.00200596,0
0.1,9.2,0,3.00301,0.0101088,0
0.1,9.3,0,3.00779,-0.00216723,0
0.1,9.4,0,3.00132,0.0158898,0
0.1,9.5,0,3.00793,-0.00237583,0
0.1,9.6,0,3.00537,0.00524577,0
0.1,9.7,0,3.00673,0.00167503,0
0.1,9.8,0,3.00817,-0.00253297,0
0.1,9.9,0,3.00259,0.0150205,0
0.1,10,0,3.00821,-0.00271465,0
0.1,10.1,0,3.00195,0.0182666,0
0.1,10.2,0,3.00876,-0.00327699,0
0.1,10.3,0,3.0066,0.00428143,0
0.1,10.4,0,3.00651,0.00497629,0
0.1,10.5,0,3.00864,-0.00234389,0
0.1,10.6,0,3.00206,0.020796,0
0.1,10.7,0,3.00911,-0.00543792,0
0.1,10.8,0,3.00285,0.0195594,0
0.1,10.9,0,3.01095,-0.000132806,0
0.1,11,0,3.00907,0.00591056,0
0.1,11.1,0,3.00494,0.00497464,0
0.1,11.2,0,3.00712,-0.00895509,0
0.1,11.3,0,3.00148,0.029314,0
0.1,11.4,0,3.01197,-5.89549e-05,0
0.1,11.5,0,3.0045,0.0237435,0
0.1,11.6,0,3.01569,-0.0068432,0
0.1,11.7,0,3.01414,-0.00176463,0
0.1,11.8,0,3.00432,0.0141611,0
0.1,11.9,0,3.00648,-0.00397997,0
0.1,12,0,3.00062,0.0392577,0
0.1,12.1,0,3.01111,-0.0090656,0
0.1,12.2,0,3.00452,0.0216637,0
0.1,12.3,0,3.01733,-0.00264688,0
0.1,12.4,0,3.01681,-0.000961617,0
0.1,12.5,0,3.00938,0.0187036,0
0.1,12.6,0,3.02123,-0.0127163,0
0.1,12.7,0,3.01255,0.0477564,0
0.2,0,0,3.00711,-0.100957,0
0.2,0.1,0,3.01676,-0.0383922,0
0.2,0.2,0,3.02171,-0.00436045,0
0.2,0.3,0,3.00876,-0.0646498,0
0.2,0.4,0,3.00597,-0.0681115,0
0.2,0.5,0,3.01333,-0.0147455,0
0.2,0.6,0,3.01011,-0.03862,0
0.2,0.7,0,3.00321,-0.0891775,0
0.2,0.8,0,3.01704,-0.0369083,0
0.2,0.9,0,3.02333,-0.00815962,0
0.2,1,0,3.00827,-0.0552009,0
0.2,1.1,0,3.0078,-0.060364,0
0.2,1.2,0,3.02192,-0.0236489,0
0.2,1.3,0,3.01375,-0.0361078,0
0.2,1.4,0,2.99852,-0.0669242,0
0.2,1.5,0,3.00479,-0.022165,0
0.2,1.6,0,3.0085,0.000708721,0
0.2,1.7,0,3.00341,-0.0430622,0
0.2,1.8,0,3.00614,-0.0489145,0
0.2,1.9,0,3.01669,-0.0168483,0
0.2,2,0,3.01136,-0.0284451,0
0.2,2.1,0,3.00076,-0.056075,0
0.2,2.2,0,3.00938,-0.0227689,0
0.2,2.3,0,3.0135,-0.00478941,0
0.2,2.4,0,3.00451,-0.0354428,0
0.2,2.5,0,3.00424,-0.036934,0
0.2,2.6,0,3.01268,-0.00926283,0
0.2,2.7,0,3.0088,-0.020373,0
0.2,2.8,0,3.0007,-0.0453188,0
0.2,2.9,0,3.00862,-0.019814,0
0.2,3,0,3.01252,-0.00575058,0
0.2,3.1,0,3.00448,-0.0286331,0
0.2,3.2,0,3.00433,-0.0290299,0
0.2,3.3,0,3.01209,-0.00694081,0
0.2,3.4,0,3.00824,-0.0156461,0
0.2,3.5,0,3.00051,-0.0353959,0
0.2,3.6,0,3.00805,-0.0158913,0
0.2,3.7,0,3.01182,-0.00496716,0
0.2,3.8,0,3.00427,-0.0221281,0
0.2,3.9,0,3.00418,-0.0223178,0
0.2,4,0,3.01155,-0.00553637,0
0.2,4.1,0,3.00786,-0.0117076,0
0.2,4.2,0,3.00049,-0.0262696,0
0.2,4.3,0,3.00775,-0.0120356,0
0.2,4.4,0,3.01137,-0.00383859,0
0.2,4.5,0,3.0041,-0.0159125,0
0.2,4.6,0,3.00405,-0.0160616,0
0.2,4.7,0,3.01123,-0.00428595,0
0.2,4.8,0,3.00763,-0.00806081,0
0.2,4.9,0,3.00044,-0.0177235,0
0.2,5,0,3.00756,-0.00832949,0
0.2,5.1,0,3.01111,-0.00259233,0
0.2,5.2,0,3.00398,-0.00990608,0
0.2,5.3,0,3.00396,-0.0100243,0
0.2,5.4,0,3.01103,-0.00294703,0
0.2,5.5,0,3.00748,-0.00442721,0
0.2,5.6,0,3.00039,-0.00944603,0
0.2,5.7,0,3.00744,-0.00463575,0
0.2,5.8,0,3.01096,-0.00121219,0
0.2,5.9,0,3.00389,-0.00398561,0
0.2,6,0,3.00386,-0.00407548,0
0.2,6.1,0,3.01088,-0.00148181,0
0.2,6.2,0,3.00735,-0.000750259,0
0.2,6.3,0,3.00031,-0.00131555,0
0.2,6.4,0,3.00727,-0.000935071,0
0.2,6.5,0,3.01073,0.000251563,0
0.2,6.6,0,3.00376,0.00186387,0
0.2,6.7,0,3.00371,0.00169889,0
0.2,6.8,0,3.01056,-0.000243387,0
0.2,6.9,0,3.00715,0.00237775,0
0.2,7,0,3.00032,0.00597002,0
0.2,7.1,0,3.00038,0.00790823,0
0.2,7.2,0,3.00041,0.00919827,0
0.2,7.3,0,3.00042,0.0104713,0
0.2,7.4,0,3.00043,0.0117518,0
0.2,7.5,0,3.00042,0.0130459,0
0.2,7.6,0,3.00042,0.0143484,0
0.2,7.7,0,3.00041,0.0156492,0
0.2,7.8,0,3.00039,0.0169438,0
0.2,7.9,0,3.00038,0.0182755,0
0.2,8,0,3.00034,0.0200263,0
0.2,8.1,0,3.01057,0.0033809,0
0.2,8.2,0,3.00388,0.0160589,0
0.2,8.3,0,3.00715,0.0101952,0
0.2,8.4,0,3.00768,0.0106495,0
0.2,8.5,0,3.00351,0.0190318,0
0.2,8.6,0,3.01117,0.00451187,0
0.2,8.7,0,3.00084,0.0273202,0
0.2,8.8,0,3.01074,0.0057481,0
0.2,8.9,0,3.00472,0.0210974,0
0.2,9,0,3.00702,0.0156893,0
0.2,9.1,0,3.00871,0.0131153,0
0.2,9.2,0,3.00319,0.0274999,0
0.2,9.3,0,3.01178,0.00604465,0
0.2,9.4,0,3.00151,0.0349395,0
0.2,9.5,0,3.01075,0.00938011,0
0.2,9.6,0,3.00556,0.0259806,0
0.2,9.7,0,3.00691,0.0224099,0
0.2,9.8,0,3.0099,0.0152094,0
0.2,9.9,0,3.0028,0.037565,0
0.2,10,0,3.0124,0.00770519,0
0.2,10.1,0,3.00209,0.042569,0
0.2,10.2,0,3.0112,0.0136904,0
0.2,10.3,0,3.00688,0.0306082,0
0.2,10.4,0,3.00679,0.0313031,0
0.2,10.5,0,3.01096,0.0178375,0
0.2,10.6,0,3.00209,0.0491387,0
0.2,10.7,0,3.01371,0.00640205,0
0.2,10.8,0,3.00305,0.0497237,0
0.2,10.9,0,3.01321,0.0242299,0
0.2,11,0,3.00958,0.039194,0
0.2,11.1,0,3.00546,0.0382581,0
0.2,11.2,0,3.00931,0.0107215,0
0.2,11.3,0,3.00112,0.0637682,0
0.2,11.4,0,3.01784,0.0176102,0
0.2,11.5,0,3.00457,0.0616072,0
0.2,11.6,0,3.01759,0.0257888,0
0.2,11.7,0,3.01528,0.0391307,0
0.2,11.8,0,3.00546,0.0550564,0
0.2,11.9,0,3.00904,0.0196136,0
0.2,12,0,3.0004,0.0824035,0
0.2,12.1,0,3.01652,0.00818755,0
0.2,12.2,0,3.00373,0.0681472,0
0.2,12.3,0,3.01731,0.041746,0
0.2,12.4,0,3.0179,0.0491964,0
0.2,12.5,0,3.01048,0.0688616,0
0.2,12.6,0,3.02643,0.0123929,0
0.2,12.7,0,3.01045,0.104285,0
0.3,0,0,3.0045,-0.157076,0
0.3,0.1,0,3.00944,-0.123044,0
0.3,0.2,0,3.00967,-0.117546,0
0.3,0.3,0,3.00991,-0.112047,0
0.3,0.4,0,3.00711,-0.115509,0
0.3,0.5,0,3.00757,-0.1127,0
0.3,0.6,0,3.00804,-0.109892,0
0.3,0.7,0,3.00482,-0.133766,0
0.3,0.8,0,3.01111,-0.105018,0
0.3,0.9,0,3.00987,-0.0997897,0
0.3,1,0,3.00864,-0.0945617,0
0.3,1.1,0,3.00817,-0.0997248,0
0.3,1.2,0,3.00706,-0.0938261,0
0.3,1.3,0,3.00595,-0.0879274,0
0.3,1.4,0,2.99778,-0.100386,0
0.3,1.5,0,3.0015,-0.0775125,0
0.3,1.6,0,3.00267,-0.0765243,0
0.3,1.7,0,3.00384,-0.075536,0
0.3,1.8,0,3.00657,-0.0813883,0
0.3,1.9,0,3.00652,-0.076952,0
0.3,2,0,3.00647,-0.0725157,0
0.3,2.1,0,3.00114,-0.0841125,0
0.3,2.2,0,3.00526,-0.0661331,0
0.3,2.3,0,3.00489,-0.0634803,0
0.3,2.4,0,3.00452,-0.0608276,0
0.3,2.5,0,3.00425,-0.0623187,0
0.3,2.6,0,3.00459,-0.0595934,0
0.3,2.7,0,3.00493,-0.056868,0
0.3,2.8,0,3.00104,-0.0679782,0
0.3,2.9,0,3.00494,-0.0539147,0
0.3,3,0,3.00482,-0.0512925,0
0.3,3.1,0,3.0047,-0.0486703,0
0.3,3.2,0,3.00456,-0.0490671,0
0.3,3.3,0,3.00459,-0.0467278,0
0.3,3.4,0,3.00462,-0.0443886,0
0.3,3.5,0,3.00077,-0.0530939,0
0.3,3.6,0,3.00453,-0.0421698,0
0.3,3.7,0,3.00453,-0.0398261,0
0.3,3.8,0,3.00452,-0.0374824,0
0.3,3.9,0,3.00443,-0.0376721,0
0.3,4,0,3.00443,-0.0354526,0
0.3,4.1,0,3.00442,-0.0332332,0
0.3,4.2,0,3.00073,-0.0394044,0
0.3,4.3,0,3.00436,-0.0312074,0
0.3,4.4,0,3.00435,-0.0290473,0
0.3,4.5,0,3.00434,-0.0268872,0
0.3,4.6,0,3.00429,-0.0270364,0
0.3,4.7,0,3.00428,-0.0249234,0
0.3,4.8,0,3.00426,-0.0228104,0
0.3,4.9,0,3.00067,-0.0265853,0
0.3,5,0,3.00422,-0.0208481,0
0.3,5.1,0,3.0042,-0.0187678,0
0.3,5.2,0,3.00419,-0.0166876,0
0.3,5.3,0,3.00417,-0.0168058,0
0.3,5.4,0,3.00415,-0.0147473,0
0.3,5.5,0,3.00414,-0.0126889,0
0.3,5.6,0,3.00058,-0.014169,0
0.3,5.7,0,3.0041,-0.0107455,0
0.3,5.8,0,3.00408,-0.00870863,0
0.3,5.9,0,3.00407,-0.00667177,0
0.3,6,0,3.00404,-0.00676164,0
0.3,6.1,0,3.00402,-0.00473326,0
0.3,6.2,0,3.004,-0.00270487,0
0.3,6.3,0,3.00047,-0.00197332,0
0.3,6.4,0,3.00394,-0.000786691,0
0.3,6.5,0,3.00392,0.0012061,0
0.3,6.6,0,3.0039,0.00319889,0
0.3,6.7,0,3.00385,0.0030339,0
0.3,6.8,0,3.00386,0.0046839,0
0.3,6.9,0,3.00388,0.0063339,0
0.3,7,0,3.00048,0.00895503,0
0.3,7.1,0,3.00058,0.0118623,0
0.3,7.2,0,3.00062,0.0137974,0
0.3,7.3,0,3.00063,0.015707,0
0.3,7.4,0,3.00064,0.0176278,0
0.3,7.5,0,3.00064,0.0195688,0
0.3,7.6,0,3.00063,0.0215225,0
0.3,7.7,0,3.00061,0.0234738,0
0.3,7.8,0,3.00059,0.0254156,0
0.3,7.9,0,3.00057,0.0274132,0
0.3,8,0,3.00051,0.0300395,0
0.3,8.1,0,3.00391,0.0256948,0
0.3,8.2,0,3.00387,0.0275667,0
0.3,8.3,0,3.00397,0.0281204,0
0.3,8.4,0,3.00396,0.0303042,0
0.3,8.5,0,3.00365,0.031768,0
0.3,8.6,0,3.00406,0.03318,0
0.3,8.7,0,3.00099,0.0415735,0
0.3,8.8,0,3.00415,0.0361333,0
0.3,8.9,0,3.00417,0.0384383,0
0.3,9,0,3.00424,0.0391253,0
0.3,9.1,0,3.00426,0.0414937,0
0.3,9.2,0,3.00337,0.044891,0
0.3,9.3,0,3.00435,0.0446528,0
0.3,9.4,0,3.00169,0.0539893,0
0.3,9.5,0,3.00443,0.0478527,0
0.3,9.6,0,3.00443,0.0503623,0
0.3,9.7,0,3.00456,0.0511481,0
0.3,9.8,0,3.00459,0.0538434,0
0.3,9.9,0,3.003,0.0601094,0
0.3,10,0,3.00454,0.0572666,0
0.3,10.1,0,3.00224,0.0668713,0
0.3,10.2,0,3.00485,0.060668,0
0.3,10.3,0,3.00506,0.0636832,0
0.3,10.4,0,3.00497,0.0651383,0
0.3,10.5,0,3.00459,0.0681407,0
0.3,10.6,0,3.00212,0.0774814,0
0.3,10.7,0,3.00484,0.070347,0
0.3,10.8,0,3.00326,0.079888,0
0.3,10.9,0,3.0062,0.0775012,0
0.3,11,0,3.00667,0.0821467,0
0.3,11.1,0,3.0047,0.0789303,0
0.3,11.2,0,3.0034,0.0806741,0
0.3,11.3,0,3.00077,0.0982225,0
0.3,11.4,0,3.00558,0.0899871,0
0.3,11.5,0,3.00464,0.0994709,0
0.3,11.6,0,3.00868,0.0931081,0
0.3,11.7,0,3.01027,0.0976234,0
0.3,11.8,0,3.00595,0.100464,0
0.3,11.9,0,3.00393,0.103816,0
0.3,12,0,3.00018,0.125549,0
0.3,12.1,0,3.00439,0.106882,0
0.3,12.2,0,3.00294,0.114631,0
0.3,12.3,0,3.00771,0.116879,0
0.3,12.4,0,3.01051,0.122352,0
0.3,12.5,0,3.01125,0.120386,0
0.3,12.6,0,3.01273,0.126141,0
0.3,12.7,0,3.00835,0.160814,0
0.4,0,0,2.99618,-0.216165,0
0.4,0.1,0,2.99717,-0.241728,0
0.4,0.2,0,2.99741,-0.236229,0
0.4,0.3,0,2.99764,-0.230731,0
0.4,0.4,0,3.00136,-0.205275,0
0.4,0.5,0,3.00183,-0.202466,0
0.4,0.6,0,3.00229,-0.199658,0
0.4,0.7,0,2.99972,-0.183912,0
0.4,0.8,0,2.99936,-0.207256,0
0.4,0.9,0,2.99812,-0.202028,0
0.4,1,0,2.99688,-0.1968,0
0.4,1.1,0,2.99148,-0.159965,0
0.4,1.2,0,2.99037,-0.154066,0
0.4,1.3,0,2.98926,-0.148167,0
0.4,1.4,0,2.99303,-0.142729,0
0.4,1.5,0,2.99521,-0.159772,0
0.4,1.6,0,2.99638,-0.158784,0
0.4,1.7,0,2.99755,-0.157796,0
0.4,1.8,0,2.99808,-0.139913,0
0.4,1.9,0,2.99803,-0.135477,0
0.4,2,0,2.99798,-0.131041,0
0.4,2.1,0,2.99648,-0.119244,0
0.4,2.2,0,2.9953,-0.124619,0
0.4,2.3,0,2.99493,-0.121967,0
0.4,2.4,0,2.99456,-0.119314,0
0.4,2.5,0,2.9968,-0.112926,0
0.4,2.6,0,2.99714,-0.110201,0
0.4,2.7,0,2.99748,-0.107476,0
0.4,2.8,0,2.99725,-0.0972252,0
0.4,2.9,0,2.99706,-0.0990762,0
0.4,3,0,2.99694,-0.0964541,0
0.4,3.1,0,2.99682,-0.0938319,0
0.4,3.2,0,2.9971,-0.0889516,0
0.4,3.3,0,2.99712,-0.0866124,0
0.4,3.4,0,2.99715,-0.0842731,0
0.4,3.5,0,2.99718,-0.0764023,0
0.4,3.6,0,2.99724,-0.0769357,0
0.4,3.7,0,2.99723,-0.074592,0
0.4,3.8,0,2.99723,-0.0722483,0
0.4,3.9,0,2.99731,-0.0675571,0
0.4,4,0,2.99731,-0.0653376,0
0.4,4.1,0,2.9973,-0.0631182,0
0.4,4.2,0,2.99732,-0.0568526,0
0.4,4.3,0,2.99733,-0.056388,0
0.4,4.4,0,2.99732,-0.0542279,0
0.4,4.5,0,2.99731,-0.0520678,0
0.4,4.6,0,2.99734,-0.0476548,0
0.4,4.7,0,2.99733,-0.0455419,0
0.4,4.8,0,2.99732,-0.0434289,0
0.4,4.9,0,2.99735,-0.0383676,0
0.4,5,0,2.99731,-0.0370099,0
0.4,5.1,0,2.9973,-0.0349296,0
0.4,5.2,0,2.99729,-0.0328493,0
0.4,5.3,0,2.99729,-0.028598,0
0.4,5.4,0,2.99727,-0.0265395,0
0.4,5.5,0,2.99726,-0.0244811,0
0.4,5.6,0,2.99731,-0.0203966,0
0.4,5.7,0,2.99723,-0.0182284,0
0.4,5.8,0,2.99721,-0.0161915,0
0.4,5.9,0,2.99719,-0.0141547,0
0.4,6,0,2.99718,-0.0100181,0
0.4,6.1,0,2.99716,-0.00798976,0
0.4,6.2,0,2.99714,-0.00596137,0
0.4,6.3,0,2.99723,-0.00268408,0
0.4,6.4,0,2.99712,0.000208492,0
0.4,6.5,0,2.9971,0.00220128,0
0.4,6.6,0,2.99709,0.00419407,0
0.4,6.7,0,2.99712,0.00826333,0
0.4,6.8,0,2.99714,0.00991333,0
0.4,6.9,0,2.99716,0.0115633,0
0.4,7,0,2.99731,0.0133937,0
0.4,7.1,0,2.99745,0.017589,0
0.4,7.2,0,2.9975,0.0203002,0
0.4,7.3,0,2.99753,0.0229919,0
0.4,7.4,0,2.99753,0.0257091,0
0.4,7.5,0,2.99753,0.0284542,0
0.4,7.6,0,2.99751,0.0312164,0
0.4,7.7,0,2.99747,0.0339769,0
0.4,7.8,0,2.99743,0.0367204,0
0.4,7.9,0,2.99739,0.0395165,0
0.4,8,0,2.99729,0.0432496,0
0.4,8.1,0,2.99717,0.0479714,0
0.4,8.2,0,2.99713,0.0498432,0
0.4,8.3,0,2.99698,0.0535686,0
0.4,8.4,0,2.99698,0.0557524,0
0.4,8.5,0,2.99694,0.059181,0
0.4,8.6,0,2.99694,0.0618371,0
0.4,8.7,0,2.99699,0.0619895,0
0.4,8.8,0,2.99694,0.0679997,0
0.4,8.9,0,2.99696,0.0703047,0
0.4,9,0,2.99693,0.0743003,0
0.4,9.1,0,2.99695,0.0766687,0
0.4,9.2,0,2.99692,0.0794887,0
0.4,9.3,0,2.99693,0.0832155,0
0.4,9.4,0,2.9969,0.0830999,0
0.4,9.5,0,2.99688,0.090032,0
0.4,9.6,0,2.99688,0.0925417,0
0.4,9.7,0,2.99675,0.0968169,0
0.4,9.8,0,2.99678,0.0995121,0
0.4,9.9,0,2.99683,0.101602,0
0.4,10,0,2.99679,0.107023,0
0.4,10.1,0,2.99656,0.106571,0
0.4,10.2,0,2.99621,0.114112,0
0.4,10.3,0,2.99642,0.117127,0
0.4,10.4,0,2.99736,0.122622,0
0.4,10.5,0,2.99698,0.125625,0
0.4,10.6,0,2.99535,0.125997,0
0.4,10.7,0,2.99482,0.134016,0
0.4,10.8,0,2.99539,0.133109,0
0.4,10.9,0,2.99695,0.14006,0
0.4,11,0,2.99742,0.144706,0
0.4,11.1,0,2.99794,0.158593,0
0.4,11.2,0,2.99664,0.160336,0
0.4,11.3,0,2.9935,0.148439,0
0.4,11.4,0,2.99183,0.157156,0
0.4,11.5,0,2.99288,0.160997,0
0.4,11.6,0,2.99504,0.184296,0
0.4,11.7,0,2.99663,0.188812,0
0.4,11.8,0,3.00196,0.18368,0
0.4,11.9,0,2.99993,0.187032,0
0.4,12,0,2.99391,0.183451,0
0.4,12.1,0,2.98992,0.209295,0
0.4,12.2,0,2.98938,0.211719,0
0.4,12.3,0,2.99057,0.212113,0
0.4,12.4,0,2.99338,0.217586,0
0.4,12.5,0,2.99842,0.238614,0
0.4,12.6,0,2.9999,0.244369,0
0.4,12.7,0,2.99957,0.219142,0
0.5,0,0,2.98216,-0.278225,0
0.5,0.1,0,2.98391,-0.334849,0
0.5,0.2,0,2.9849,-0.360412,0
0.5,0.3,0,2.98626,-0.290235,0
0.5,0.4,0,2.98999,-0.264779,0
0.5,0.5,0,2.99608,-0.284044,0
0.5,0.6,0,2.99352,-0.268298,0
0.5,0.7,0,2.98792,-0.239616,0
0.5,0.8,0,2.98843,-0.291531,0
0.5,0.9,0,2.98806,-0.314874,0
0.5,1,0,2.98331,-0.248185,0
0.5,1.1,0,2.9779,-0.21135,0
0.5,1.2,0,2.97185,-0.204368,0
0.5,1.3,0,2.97562,-0.19893,0
0.5,1.4,0,2.98426,-0.193952,0
0.5,1.5,0,2.98746,-0.229028,0
0.5,1.6,0,2.98964,-0.246071,0
0.5,1.7,0,2.98927,-0.205093,0
0.5,1.8,0,2.98979,-0.18721,0
0.5,1.9,0,2.99122,-0.192423,0
0.5,2,0,2.98971,-0.180626,0
0.5,2.1,0,2.98676,-0.161469,0
0.5,2.2,0,2.98478,-0.174873,0
0.5,2.3,0,2.98361,-0.180248,0
0.5,2.4,0,2.98653,-0.159802,0
0.5,2.5,0,2.98877,-0.153414,0
0.5,2.6,0,2.99034,-0.161086,0
0.5,2.7,0,2.9901,-0.150836,0
0.5,2.8,0,2.9893,-0.13306,0
0.5,2.9,0,2.98906,-0.139384,0
0.5,3,0,2.98888,-0.141235,0
0.5,3.1,0,2.98909,-0.126523,0
0.5,3.2,0,2.98936,-0.121642,0
0.5,3.3,0,2.9897,-0.126594,0
0.5,3.4,0,2.98973,-0.118724,0
0.5,3.5,0,2.98976,-0.105321,0
0.5,3.6,0,2.98988,-0.108732,0
0.5,3.7,0,2.98993,-0.109265,0
0.5,3.8,0,2.99,-0.0975871,0
0.5,3.9,0,2.99008,-0.0928959,0
0.5,4,0,2.99019,-0.0951914,0
0.5,4.1,0,2.99021,-0.0889258,0
0.5,4.2,0,2.99025,-0.078614,0
0.5,4.3,0,2.99028,-0.0798449,0
0.5,4.4,0,2.99029,-0.0793804,0
0.5,4.5,0,2.99036,-0.0702875,0
0.5,4.6,0,2.99039,-0.0658745,0
0.5,4.7,0,2.99038,-0.0661414,0
0.5,4.8,0,2.99041,-0.0610801,0
0.5,4.9,0,2.99049,-0.0530705,0
0.5,5,0,2.99043,-0.0524353,0
0.5,5.1,0,2.99039,-0.0510776,0
0.5,5.2,0,2.99049,-0.0440611,0
0.5,5.3,0,2.99049,-0.0398098,0
0.5,5.4,0,2.99039,-0.0383237,0
0.5,5.5,0,2.99044,-0.0342392,0
0.5,5.6,0,2.99056,-0.0281288,0
0.5,5.7,0,2.99042,-0.0258292,0
0.5,5.8,0,2.99033,-0.0236609,0
0.5,5.9,0,2.99049,-0.0184101,0
0.5,6,0,2.99048,-0.0142736,0
0.5,6.1,0,2.99031,-0.0112513,0
0.5,6.2,0,2.9904,-0.00797401,0
0.5,6.3,0,2.9906,-0.00344781,0
0.5,6.4,0,2.99039,0.000344541,0
0.5,6.5,0,2.99028,0.00323711,0
0.5,6.6,0,2.99053,0.00703023,0
0.5,6.7,0,2.99056,0.0110995,0
0.5,6.8,0,2.99038,0.0154449,0
0.5,6.9,0,2.99053,0.0172753,0
0.5,7,0,2.99082,0.0192861,0
0.5,7.1,0,2.991,0.0250882,0
0.5,7.2,0,2.99106,0.0287067,0
0.5,7.3,0,2.9911,0.0323261,0
0.5,7.4,0,2.99111,0.0359959,0
0.5,7.5,0,2.9911,0.0397021,0
0.5,7.6,0,2.99106,0.0434298,0
0.5,7.7,0,2.991,0.0471584,0
0.5,7.8,0,2.99092,0.050858,0
0.5,7.9,0,2.99084,0.0545851,0
0.5,8,0,2.99067,0.0596566,0
0.5,8.1,0,2.99043,0.0700176,0
0.5,8.2,0,2.99041,0.0685325,0
0.5,8.3,0,2.99013,0.0753635,0
0.5,8.4,0,2.99003,0.0792309,0
0.5,8.5,0,2.99006,0.0803705,0
0.5,8.6,0,2.98983,0.0904831,0
0.5,8.7,0,2.98995,0.085684,0
0.5,8.8,0,2.98973,0.0991528,0
0.5,8.9,0,2.98975,0.0970296,0
0.5,9,0,2.98968,0.104013,0
0.5,9.1,0,2.98961,0.10934,0
0.5,9.2,0,2.98955,0.108163,0
0.5,9.3,0,2.98951,0.121733,0
0.5,9.4,0,2.98937,0.114251,0
0.5,9.5,0,2.98934,0.130467,0
0.5,9.6,0,2.98918,0.127681,0
0.5,9.7,0,2.98898,0.134285,0
0.5,9.8,0,2.98893,0.142124,0
0.5,9.9,0,2.98892,0.137686,0
0.5,10,0,2.98915,0.156975,0
0.5,10.1,0,2.9884,0.145423,0
0.5,10.2,0,2.98744,0.163787,0
0.5,10.3,0,2.98777,0.160863,0
0.5,10.4,0,2.98921,0.167574,0
0.5,10.5,0,2.98974,0.180363,0
0.5,10.6,0,2.98704,0.170208,0
0.5,10.7,0,2.98367,0.197408,0
0.5,10.8,0,2.98581,0.178592,0
0.5,10.9,0,2.98829,0.196645,0
0.5,11,0,2.98841,0.197402,0
0.5,11.1,0,2.98904,0.212945,0
0.5,11.2,0,2.98973,0.238016,0
0.5,11.3,0,2.98483,0.200033,0
0.5,11.4,0,2.97658,0.219116,0
0.5,11.5,0,2.98095,0.213272,0
0.5,11.6,0,2.98258,0.264028,0
0.5,11.7,0,2.98442,0.260155,0
0.5,11.8,0,2.99102,0.240774,0
0.5,11.9,0,2.99691,0.263628,0
0.5,12,0,2.98446,0.240531,0
0.5,12.1,0,2.97308,0.315425,0
0.5,12.2,0,2.97854,0.269974,0
0.5,12.3,0,2.97626,0.288231,0
0.5,12.4,0,2.97789,0.291428,0
0.5,12.5,0,2.98451,0.29855,0
0.5,12.6,0,2.98802,0.365803,0
0.5,12.7,0,2.98412,0.279269,0
0.6,0,0,2.96813,-0.340285,0
0.6,0.1,0,2.96989,-0.396909,0
0.6,0.2,0,2.97277,-0.388855,0
0.6,0.3,0,2.97489,-0.34974,0
0.6,0.4,0,2.97862,-0.324284,0
0.6,0.5,0,2.98168,-0.330611,0
0.6,0.6,0,2.98172,-0.324002,0
0.6,0.7,0,2.97612,-0.295319,0
0.6,0.8,0,2.97663,-0.347234,0
0.6,0.9,0,2.97362,-0.337688,0
0.6,1,0,2.96974,-0.29957,0
0.6,1.1,0,2.96433,-0.262735,0
0.6,1.2,0,2.96315,-0.256214,0
0.6,1.3,0,2.96685,-0.250153,0
0.6,1.4,0,2.9755,-0.245175,0
0.6,1.5,0,2.97869,-0.280251,0
0.6,1.6,0,2.98034,-0.275336,0
0.6,1.7,0,2.98098,-0.252389,0
0.6,1.8,0,2.98151,-0.234506,0
0.6,1.9,0,2.98148,-0.232359,0
0.6,2,0,2.98,-0.222851,0
0.6,2.1,0,2.97705,-0.203694,0
0.6,2.2,0,2.97507,-0.217098,0
0.6,2.3,0,2.97638,-0.212708,0
0.6,2.4,0,2.9785,-0.20029,0
0.6,2.5,0,2.98074,-0.193902,0
0.6,2.6,0,2.98174,-0.194049,0
0.6,2.7,0,2.98216,-0.18667,0
0.6,2.8,0,2.98136,-0.168895,0
0.6,2.9,0,2.98112,-0.175219,0
0.6,3,0,2.98121,-0.169453,0
0.6,3.1,0,2.98136,-0.159213,0
0.6,3.2,0,2.98163,-0.154333,0
0.6,3.3,0,2.98197,-0.153753,0
0.6,3.4,0,2.9823,-0.147642,0
0.6,3.5,0,2.98233,-0.13424,0
0.6,3.6,0,2.98245,-0.13765,0
0.6,3.7,0,2.98264,-0.131727,0
0.6,3.8,0,2.98277,-0.122926,0
0.6,3.9,0,2.98285,-0.118235,0
0.6,4,0,2.98299,-0.116484,0
0.6,4.1,0,2.98314,-0.110687,0
0.6,4.2,0,2.98318,-0.100375,0
0.6,4.3,0,2.98321,-0.101606,0
0.6,4.4,0,2.98332,-0.0959045,0
0.6,4.5,0,2.98341,-0.0885072,0
0.6,4.6,0,2.98344,-0.0840942,0
0.6,4.7,0,2.98347,-0.0814127,0
0.6,4.8,0,2.98355,-0.075783,0
0.6,4.9,0,2.98363,-0.0677734,0
0.6,5,0,2.98357,-0.0671382,0
0.6,5.1,0,2.98362,-0.0615668,0
0.6,5.2,0,2.98369,-0.0552729,0
0.6,5.3,0,2.98369,-0.0510215,0
0.6,5.4,0,2.98366,-0.0475095,0
0.6,5.5,0,2.9837,-0.0419714,0
0.6,5.6,0,2.98382,-0.035861,0
0.6,5.7,0,2.98367,-0.0335613,0
0.6,5.8,0,2.9837,-0.0280477,0
0.6,5.9,0,2.98379,-0.0226655,0
0.6,6,0,2.98378,-0.018529,0
0.6,6.1,0,2.98372,-0.0142578,0
0.6,6.2,0,2.98377,-0.00873775,0
0.6,6.3,0,2.98398,-0.00421154,0
0.6,6.4,0,2.98376,-0.000419191,0
0.6,6.5,0,2.98382,0.00517349,0
0.6,6.6,0,2.98397,0.00986639,0
0.6,6.7,0,2.98401,0.0139357,0
0.6,6.8,0,2.98396,0.0184615,0
0.6,6.9,0,2.98404,0.0231677,0
0.6,7,0,2.98433,0.0251785,0
0.6,7.1,0,2.98455,0.0325874,0
0.6,7.2,0,2.98463,0.0371131,0
0.6,7.3,0,2.98467,0.0416603,0
0.6,7.4,0,2.98469,0.0462827,0
0.6,7.5,0,2.98467,0.0509501,0
0.6,7.6,0,2.98461,0.0556433,0
0.6,7.7,0,2.98452,0.0603398,0
0.6,7.8,0,2.98441,0.0649956,0
0.6,7.9,0,2.98429,0.0696538,0
0.6,8,0,2.98405,0.0760637,0
0.6,8.1,0,2.98382,0.0847158,0
0.6,8.2,0,2.98368,0.0871474,0
0.6,8.3,0,2.98341,0.0939785,0
0.6,8.4,0,2.98317,0.100131,0
0.6,8.5,0,2.98319,0.10156,0
0.6,8.6,0,2.98291,0.110289,0
0.6,8.7,0,2.9829,0.109378,0
0.6,8.8,0,2.98269,0.120497,0
0.6,8.9,0,2.98254,0.123212,0
0.6,9,0,2.98247,0.130196,0
0.6,9.1,0,2.98225,0.136965,0
0.6,9.2,0,2.98218,0.136838,0
0.6,9.3,0,2.98202,0.14762,0
0.6,9.4,0,2.98184,0.145403,0
0.6,9.5,0,2.98174,0.158723,0
0.6,9.6,0,2.98144,0.161373,0
0.6,9.7,0,2.98125,0.167977,0
0.6,9.8,0,2.98104,0.175942,0
0.6,9.9,0,2.98102,0.173769,0
0.6,10,0,2.98091,0.188304,0
0.6,10.1,0,2.98024,0.184275,0
0.6,10.2,0,2.97939,0.199383,0
0.6,10.3,0,2.97923,0.201603,0
0.6,10.4,0,2.98066,0.208314,0
0.6,10.5,0,2.98099,0.219996,0
0.6,10.6,0,2.97872,0.21442,0
0.6,10.7,0,2.97587,0.232935,0
0.6,10.8,0,2.97622,0.224075,0
0.6,10.9,0,2.97849,0.239642,0
0.6,11,0,2.97904,0.245954,0
0.6,11.1,0,2.97968,0.261497,0
0.6,11.2,0,2.98011,0.278008,0
0.6,11.3,0,2.97616,0.251627,0
0.6,11.4,0,2.96911,0.265962,0
0.6,11.5,0,2.96901,0.265548,0
0.6,11.6,0,2.97076,0.311396,0
0.6,11.7,0,2.97259,0.314992,0
0.6,11.8,0,2.97919,0.29561,0
0.6,11.9,0,2.98356,0.310926,0
0.6,12,0,2.97502,0.29761,0
0.6,12.1,0,2.96654,0.348642,0
0.6,12.2,0,2.9677,0.328228,0
0.6,12.3,0,2.96556,0.345098,0
0.6,12.4,0,2.96394,0.350013,0
0.6,12.5,0,2.97056,0.357136,0
0.6,12.6,0,2.97154,0.394852,0
0.6,12.7,0,2.96867,0.339396,0
0.7,0,0,2.95411,-0.402346,0
0.7,0.1,0,2.95699,-0.394292,0
0.7,0.2,0,2.95987,-0.386238,0
0.7,0.3,0,2.96276,-0.378183,0
0.7,0.4,0,2.96422,-0.370852,0
0.7,0.5,0,2.96425,-0.364242,0
0.7,0.6,0,2.96429,-0.357633,0
0.7,0.7,0,2.96432,-0.351023,0
0.7,0.8,0,2.96131,-0.341477,0
0.7,0.9,0,2.9583,-0.33193,0
0.7,1,0,2.95529,-0.322384,0
0.7,1.1,0,2.95563,-0.31458,0
0.7,1.2,0,2.95933,-0.308519,0
0.7,1.3,0,2.96303,-0.302459,0
0.7,1.4,0,2.96673,-0.296398,0
0.7,1.5,0,2.96838,-0.291483,0
0.7,1.6,0,2.97003,-0.286568,0
0.7,1.7,0,2.97168,-0.281654,0
0.7,1.8,0,2.97177,-0.274442,0
0.7,1.9,0,2.97029,-0.264934,0
0.7,2,0,2.96881,-0.255427,0
0.7,2.1,0,2.96734,-0.245919,0
0.7,2.2,0,2.96865,-0.241529,0
0.7,2.3,0,2.96996,-0.237139,0
0.7,2.4,0,2.97128,-0.232749,0
0.7,2.5,0,2.97215,-0.226865,0
0.7,2.6,0,2.97257,-0.219487,0
0.7,2.7,0,2.97299,-0.212108,0
0.7,2.8,0,2.97342,-0.20473,0
0.7,2.9,0,2.97351,-0.198963,0
0.7,3,0,2.9736,-0.193197,0
0.7,3.1,0,2.97369,-0.187431,0
0.7,3.2,0,2.9739,-0.181492,0
0.7,3.3,0,2.97424,-0.175381,0
0.7,3.4,0,2.97457,-0.16927,0
0.7,3.5,0,2.97491,-0.163159,0
0.7,3.6,0,2.9751,-0.157235,0
0.7,3.7,0,2.97529,-0.151311,0
0.7,3.8,0,2.97548,-0.145388,0
0.7,3.9,0,2.97565,-0.139527,0
0.7,4,0,2.97581,-0.133731,0
0.7,4.1,0,2.97596,-0.127934,0
0.7,4.2,0,2.97612,-0.122137,0
0.7,4.3,0,2.97622,-0.116435,0
0.7,4.4,0,2.97633,-0.110733,0
0.7,4.5,0,2.97643,-0.105031,0
0.7,4.6,0,2.97653,-0.0993655,0
0.7,4.7,0,2.97661,-0.0937358,0
0.7,4.8,0,2.97669,-0.088106,0
0.7,4.9,0,2.97677,-0.0824763,0
0.7,5,0,2.97682,-0.0769049,0
0.7,5.1,0,2.97687,-0.0713335,0
0.7,5.2,0,2.97692,-0.0657621,0
0.7,5.3,0,2.97696,-0.0602073,0
0.7,5.4,0,2.977,-0.0546693,0
0.7,5.5,0,2.97703,-0.0491312,0
0.7,5.6,0,2.97707,-0.0435931,0
0.7,5.7,0,2.9771,-0.0380795,0
0.7,5.8,0,2.97713,-0.0325659,0
0.7,5.9,0,2.97716,-0.0270523,0
0.7,6,0,2.9772,-0.0215355,0
0.7,6.1,0,2.97725,-0.0160154,0
0.7,6.2,0,2.97729,-0.0104954,0
0.7,6.3,0,2.97735,-0.00497527,0
0.7,6.4,0,2.9774,0.000617406,0
0.7,6.5,0,2.97746,0.00621008,0
0.7,6.6,0,2.97751,0.0118028,0
0.7,6.7,0,2.97759,0.0169522,0
0.7,6.8,0,2.97767,0.0216584,0
0.7,6.9,0,2.97776,0.0263647,0
0.7,7,0,2.97785,0.0310709,0
0.7,7.1,0,2.97811,0.0400866,0
0.7,7.2,0,2.97819,0.0455196,0
0.7,7.3,0,2.97824,0.0509944,0
0.7,7.4,0,2.97826,0.0565694,0
0.7,7.5,0,2.97824,0.062198,0
0.7,7.6,0,2.97817,0.0678567,0
0.7,7.7,0,2.97805,0.0735213,0
0.7,7.8,0,2.9779,0.0791333,0
0.7,7.9,0,2.97773,0.0847224,0
0.7,8,0,2.97744,0.0924707,0
0.7,8.1,0,2.97723,0.097631,0
0.7,8.2,0,2.97703,0.102791,0
0.7,8.3,0,2.97681,0.108509,0
0.7,8.4,0,2.97657,0.114527,0
0.7,8.5,0,2.97634,0.120537,0
0.7,8.6,0,2.97611,0.126527,0
0.7,8.7,0,2.97587,0.132518,0
0.7,8.8,0,2.97565,0.138527,0
0.7,8.9,0,2.97543,0.144538,0
0.7,9,0,2.97521,0.15059,0
0.7,9.1,0,2.97499,0.15667,0
0.7,9.2,0,2.97476,0.16277,0
0.7,9.3,0,2.97454,0.168929,0
0.7,9.4,0,2.97432,0.175088,0
0.7,9.5,0,2.97402,0.181368,0
0.7,9.6,0,2.97371,0.187661,0
0.7,9.7,0,2.97345,0.193935,0
0.7,9.8,0,2.97323,0.200192,0
0.7,9.9,0,2.97295,0.206546,0
0.7,10,0,2.97249,0.213287,0
0.7,10.1,0,2.97202,0.220029,0
0.7,10.2,0,2.97164,0.225993,0
0.7,10.3,0,2.97127,0.23182,0
0.7,10.4,0,2.97106,0.23882,0
0.7,10.5,0,2.97103,0.246992,0
0.7,10.6,0,2.97075,0.25463,0
0.7,10.7,0,2.96912,0.259237,0
0.7,10.8,0,2.96748,0.263845,0
0.7,10.9,0,2.96779,0.272139,0
0.7,11,0,2.96859,0.281354,0
0.7,11.1,0,2.9689,0.289246,0
0.7,11.2,0,2.96864,0.295522,0
0.7,11.3,0,2.96798,0.301779,0
0.7,11.4,0,2.96375,0.307871,0
0.7,11.5,0,2.95952,0.313963,0
0.7,11.6,0,2.95977,0.321733,0
0.7,11.7,0,2.96151,0.330063,0
0.7,11.8,0,2.96317,0.337738,0
0.7,11.9,0,2.9647,0.344431,0
0.7,12,0,2.96601,0.351124,0
0.7,12.1,0,2.96308,0.357845,0
0.7,12.2,0,2.96015,0.364566,0
0.7,12.3,0,2.958,0.370758,0
0.7,12.4,0,2.95618,0.376724,0
0.7,12.5,0,2.95473,0.38342,0
0.7,12.6,0,2.95398,0.391471,0
0.7,12.7,0,2.95322,0.399523,0
0.8,0,0,2.95332,-0.342325,0
0.8,0.1,0,2.93833,-0.407782,0
0.8,0.2,0,2.94121,-0.399728,0
0.8,0.3,0,2.95246,-0.363266,0
0.8,0.4,0,2.96027,-0.356506,0
0.8,0.5,0,2.95828,-0.378876,0
0.8,0.6,0,2.95832,-0.372266,0
0.8,0.7,0,2.9625,-0.312714,0
0.8,0.8,0,2.94064,-0.360589,0
0.8,0.9,0,2.93762,-0.351043,0
0.8,1,0,2.94561,-0.319619,0
0.8,1.1,0,2.95036,-0.312491,0
0.8,1.2,0,2.94745,-0.328983,0
0.8,1.3,0,2.95115,-0.322923,0
0.8,1.4,0,2.9655,-0.280289,0
0.8,1.5,0,2.97023,-0.332266,0
0.8,1.6,0,2.97188,-0.327351,0
0.8,1.7,0,2.97063,-0.291944,0
0.8,1.8,0,2.96124,-0.270448,0
0.8,1.9,0,2.9532,-0.277146,0
0.8,2,0,2.95172,-0.267638,0
0.8,2.1,0,2.96535,-0.236101,0
0.8,2.2,0,2.96256,-0.276088,0
0.8,2.3,0,2.96387,-0.271698,0
0.8,2.4,0,2.96704,-0.244884,0
0.8,2.5,0,2.9671,-0.232364,0
0.8,2.6,0,2.96486,-0.240773,0
0.8,2.7,0,2.96528,-0.233395,0
0.8,2.8,0,2.97058,-0.197433,0
0.8,2.9,0,2.96511,-0.223634,0
0.8,3,0,2.9652,-0.217868,0
0.8,3.1,0,2.9681,-0.19692,0
0.8,3.2,0,2.9688,-0.189342,0