/*--------------------------------*- C++ -*----------------------------------*\
| =========                 |                                                 |
| \\      /  F ield         | OpenFOAM: The Open Source CFD Toolbox           |
|  \\    /   O peration     | Version:  v1806                                 |
|   \\  /    A nd           | Web:      www.OpenFOAM.com                      |
|    \\/     M anipulation  |                                                 |
\*---------------------------------------------------------------------------*/
FoamFile
{
    version     2.0;
    format      ascii;
    class       volScalarField;
    location    "7";
    object      p;
}
// * * * * * * * * * * * * * * * * * * * * * * * * * * * * * * * * * * * * * //

dimensions      [0 2 -2 0 0 0 0];


internalField   nonuniform List<scalar> 
2400
(
0.00949395
0.0100238
0.00965678
0.0111898
0.0124433
0.0132945
0.0147533
0.0175242
0.0198136
0.023504
0.0240012
0.0319137
0.0324312
0.0408244
0.0355629
0.0449021
0.0363716
0.0468049
0.0319671
0.0307584
0.0284995
0.0298615
0.0315849
0.0335312
0.0362201
0.0397657
0.044963
0.0534031
0.0579869
0.0683563
0.0723737
0.0945354
0.0974944
0.118484
0.106733
0.131467
0.10957
0.134264
0.0935605
0.089798
0.0475533
0.049502
0.0515546
0.0552832
0.0606561
0.0662631
0.0743613
0.0872842
0.0962028
0.113167
0.120981
0.154294
0.160561
0.193097
0.179215
0.216135
0.182715
0.21924
0.153566
0.149355
0.0665595
0.0686825
0.0721379
0.0768652
0.0847249
0.0921961
0.103691
0.120769
0.133653
0.155932
0.169062
0.212226
0.223331
0.265554
0.25124
0.299259
0.25638
0.303274
0.210608
0.210488
0.0854691
0.0875001
0.0922835
0.097808
0.108874
0.11785
0.132752
0.152977
0.170656
0.197837
0.216644
0.267585
0.284425
0.335765
0.324316
0.381922
0.330233
0.386193
0.264836
0.273739
0.1042
0.105778
0.112151
0.118394
0.132715
0.142862
0.161867
0.184481
0.207426
0.238265
0.263389
0.320754
0.344773
0.404007
0.397291
0.46351
0.405675
0.469792
0.317423
0.340564
0.122661
0.123478
0.131596
0.138409
0.156258
0.167416
0.190917
0.214947
0.24413
0.277722
0.30949
0.371303
0.40368
0.46984
0.470971
0.545216
0.483734
0.554346
0.367935
0.408893
0.140744
0.140539
0.150552
0.157905
0.179272
0.191322
0.219923
0.244673
0.281108
0.316013
0.35541
0.419468
0.461116
0.532996
0.544673
0.626125
0.565232
0.640847
0.420152
0.479854
0.158328
0.156973
0.168931
0.176709
0.201531
0.214549
0.248371
0.273562
0.318364
0.353557
0.401696
0.465351
0.51767
0.593189
0.617905
0.70543
0.651068
0.730551
0.47543
0.551486
0.175304
0.172778
0.18662
0.194814
0.222913
0.236811
0.275936
0.301703
0.355189
0.390246
0.449002
0.510041
0.574444
0.650337
0.690402
0.782668
0.740902
0.823851
0.538985
0.625782
0.191545
0.187965
0.203515
0.212174
0.243232
0.2581
0.302269
0.328757
0.390602
0.426096
0.497014
0.553722
0.633321
0.706305
0.762697
0.855743
0.832728
0.920642
0.616336
0.705349
0.206983
0.202499
0.219465
0.228825
0.262466
0.278386
0.327001
0.354587
0.424274
0.460615
0.544258
0.597384
0.695878
0.762327
0.836892
0.924835
0.925576
1.01533
0.708483
0.796538
0.221512
0.216316
0.234487
0.244764
0.280342
0.297578
0.350081
0.379139
0.455615
0.493545
0.589797
0.64103
0.759736
0.819037
0.918113
0.992076
1.01869
1.10314
0.813248
0.903345
0.235067
0.229394
0.248495
0.25977
0.29691
0.315661
0.371246
0.402398
0.484457
0.52457
0.632235
0.683782
0.822756
0.877268
1.00759
1.06282
1.11958
1.17917
0.921686
1.02195
0.247575
0.241631
0.261473
0.273824
0.312182
0.332511
0.390555
0.424246
0.510508
0.553349
0.671168
0.72469
0.881955
0.936666
1.1044
1.1408
1.24531
1.24499
1.02987
1.13294
0.258993
0.253025
0.273391
0.286732
0.326201
0.348106
0.408065
0.444431
0.533861
0.579857
0.705722
0.763389
0.936184
0.994834
1.2013
1.22682
1.40297
1.33037
1.14866
1.18508
0.26937
0.263432
0.284179
0.298625
0.338942
0.362282
0.423919
0.462848
0.554739
0.604083
0.736185
0.799354
0.984187
1.05014
1.2919
1.31829
1.5859
1.45657
1.35158
1.15042
0.278636
0.272817
0.294111
0.309253
0.350313
0.375197
0.438283
0.479241
0.573688
0.62619
0.763168
0.832219
1.02646
1.10122
1.37315
1.40958
1.76992
1.61444
1.71127
1.02712
0.286855
0.281222
0.302745
0.318605
0.360645
0.386731
0.451022
0.493902
0.590951
0.646046
0.787837
0.861637
1.0647
1.14816
1.44551
1.4991
1.94509
1.78308
2.23474
0.842567
0.293969
0.28852
0.31047
0.326835
0.369581
0.396753
0.462604
0.506668
0.606208
0.663863
0.810338
0.887477
1.10002
1.19179
1.51119
1.58783
2.1034
1.99197
2.87776
0.833935
0.0263713
0.0172186
0.0158946
0.0245438
0.0328463
0.0391882
0.0488455
0.0634711
0.08048
0.0940825
0.0734802
0.0490667
0.0452152
0.0658889
0.0875783
0.104592
0.131197
0.173275
0.220344
0.256064
0.114377
0.0775629
0.0723897
0.099782
0.130213
0.157324
0.200974
0.269085
0.343286
0.398499
0.149059
0.0996152
0.0943863
0.125205
0.159642
0.194432
0.255373
0.349229
0.446498
0.514724
0.175983
0.115138
0.110973
0.140916
0.175148
0.217637
0.297248
0.416922
0.536721
0.618377
0.196426
0.123609
0.119422
0.145484
0.176502
0.225631
0.325373
0.470611
0.607748
0.694725
0.207373
0.125695
0.118789
0.136822
0.163727
0.222076
0.343583
0.513024
0.668859
0.765175
0.207639
0.122352
0.107843
0.115567
0.137484
0.204377
0.34828
0.540004
0.704105
0.800728
0.19371
0.112942
0.0847732
0.0786179
0.0974785
0.176476
0.340863
0.551811
0.732601
0.833037
0.164998
0.0959437
0.0509751
0.0304145
0.0437092
0.130817
0.314184
0.536786
0.716876
0.825778
0.121055
0.0708953
0.00208418
-0.0325285
-0.0238674
0.0695291
0.259073
0.500461
0.696982
0.806431
0.0623204
0.0367046
-0.0622753
-0.112743
-0.119904
-0.0250591
0.170677
0.409345
0.619138
0.757995
-0.00781137
-0.0128851
-0.149038
-0.222007
-0.249336
-0.164093
0.0372019
0.312516
0.5385
0.689963
-0.0898909
-0.085266
-0.253766
-0.357699
-0.419222
-0.334012
-0.148641
0.152604
0.422778
0.616423
-0.194557
-0.190518
-0.383334
-0.508039
-0.618781
-0.511121
-0.308833
0.0455707
0.327439
0.540276
-0.359503
-0.333386
-0.526117
-0.637006
-0.784737
-0.656173
-0.469489
-0.0427474
0.253431
0.480322
-0.629215
-0.515357
-0.673544
-0.700888
-0.883425
-0.687638
-0.530075
-0.0723568
0.20861
0.437798
-0.997692
-0.718476
-0.826241
-0.680032
-0.910173
-0.660561
-0.519031
-0.0610705
0.19432
0.410724
-1.09501
-0.695768
-0.925137
-0.643186
-0.87892
-0.606111
-0.467711
-0.0447481
0.192275
0.393893
-2.0867
-0.68017
-0.995244
-0.611592
-0.848539
-0.579897
-0.435275
-0.0346849
0.199563
0.377728
0.0998701
0.10009
0.0956906
0.088208
0.0791141
0.0695831
0.0603834
0.0519349
0.0444255
0.037886
0.0322497
0.027402
0.0232131
0.0195556
0.0163112
0.013369
0.0106226
0.00793937
0.00518403
0.00188759
0.268453
0.266107
0.253169
0.233209
0.209689
0.185348
0.161946
0.140412
0.121142
0.104178
0.0893556
0.0764153
0.065063
0.0550053
0.0459618
0.037663
0.0298393
0.0221555
0.0142763
0.00513679
0.4173
0.41354
0.393276
0.362368
0.326206
0.288855
0.252914
0.219801
0.19013
0.163948
0.140988
0.120844
0.103068
0.0872154
0.0728642
0.0596054
0.0470336
0.0346578
0.0220096
0.00780541
0.535026
0.528391
0.503012
0.465226
0.421084
0.375061
0.330242
0.288491
0.250681
0.216993
0.187193
0.160838
0.137406
0.11636
0.0971786
0.0793537
0.0623784
0.0456562
0.0286497
0.0100388
0.641238
0.631539
0.599511
0.553744
0.501131
0.447117
0.395003
0.346528
0.302454
0.262904
0.227621
0.196141
0.167912
0.142353
0.11889
0.0969518
0.0759743
0.0553034
0.0343824
0.0119316
0.716519
0.705636
0.672133
0.623403
0.566498
0.507334
0.449836
0.396092
0.346991
0.30268
0.262887
0.227127
0.19482
0.165355
0.138124
0.112522
0.0879546
0.0637433
0.0393435
0.013547
0.785442
0.769472
0.730009
0.676309
0.615793
0.553635
0.493185
0.43633
0.38395
0.336264
0.293066
0.253918
0.218261
0.185495
0.15501
0.126194
0.0984494
0.0711016
0.0436365
0.0149303
0.823542
0.810031
0.772071
0.717609
0.65511
0.590782
0.528194
0.469145
0.414463
0.364349
0.31861
0.276828
0.238473
0.202964
0.169709
0.138112
0.10759
0.0774915
0.0473451
0.0161159
0.851361
0.833743
0.794519
0.741206
0.680077
0.616556
0.554082
0.494522
0.438824
0.387306
0.339865
0.296156
0.255702
0.217968
0.182398
0.148426
0.115504
0.0830167
0.0505403
0.0171312
0.854148
0.844173
0.808304
0.756574
0.696847
0.634573
0.572931
0.513714
0.457854
0.405719
0.357275
0.312248
0.270228
0.230735
0.193263
0.157292
0.122318
0.0877736
0.0532848
0.0179995
0.834546
0.829128
0.801471
0.757072
0.702658
0.64414
0.585001
0.527288
0.47215
0.420115
0.371279
0.325463
0.282341
0.2415
0.202497
0.164866
0.128156
0.0918526
0.0556351
0.0187407
0.806357
0.81214
0.790285
0.751517
0.702243
0.647859
0.591832
0.53627
0.482461
0.431077
0.382337
0.336172
0.292339
0.250505
0.210294
0.171301
0.133135
0.0953384
0.0576429
0.0193726
0.753707
0.770838
0.76358
0.736051
0.694752
0.646169
0.594224
0.541454
0.489475
0.439168
0.390909
0.344742
0.30052
0.257989
0.216845
0.176748
0.137369
0.0983109
0.0593557
0.0199112
0.699366
0.731203
0.735771
0.717845
0.683984
0.641204
0.593523
0.543792
0.493909
0.444954
0.397445
0.351537
0.307175
0.264185
0.222334
0.18135
0.140965
0.100844
0.0608171
0.0203707
0.637597
0.684804
0.703208
0.69561
0.670457
0.633943
0.590688
0.544099
0.496427
0.448969
0.402375
0.356904
0.312583
0.269315
0.226936
0.185242
0.144024
0.103007
0.062067
0.0207641
0.583811
0.642869
0.672803
0.675066
0.657297
0.626251
0.58692
0.543219
0.497667
0.451713
0.406102
0.361166
0.317004
0.273586
0.230816
0.18855
0.146638
0.104863
0.0631416
0.0211029
0.538558
0.606377
0.645545
0.656463
0.645356
0.61888
0.582912
0.541761
0.498151
0.453625
0.408986
0.364619
0.320677
0.277191
0.234123
0.191388
0.148891
0.106467
0.0640733
0.0213971
0.505195
0.579212
0.624811
0.642611
0.6363
0.613216
0.579624
0.540413
0.498395
0.455111
0.411356
0.367527
0.323815
0.280298
0.236991
0.19386
0.150859
0.107872
0.0648905
0.0216555
0.478773
0.559352
0.610191
0.633824
0.630453
0.609085
0.577202
0.539424
0.498694
0.456464
0.413474
0.370115
0.326603
0.283057
0.239536
0.196053
0.152605
0.10912
0.0656179
0.0218855
0.470746
0.545731
0.601555
0.630612
0.628073
0.607367
0.576055
0.539186
0.499399
0.457978
0.415581
0.372579
0.3292
0.285594
0.241858
0.198045
0.154187
0.110248
0.0662767
0.0220932
0.481841
0.547851
0.599841
0.630435
0.627211
0.606981
0.575982
0.539685
0.500531
0.459647
0.417625
0.374822
0.33148
0.287771
0.243821
0.199711
0.155503
0.111184
0.0668238
0.0222645
0.5061
0.547596
0.600833
0.629715
0.626395
0.606947
0.576467
0.540683
0.501983
0.461438
0.419623
0.376899
0.333518
0.289673
0.24551
0.20113
0.156614
0.111971
0.0672836
0.0224091
0.512214
0.549272
0.6002
0.628099
0.625777
0.60751
0.577648
0.542326
0.503944
0.46359
0.421852
0.3791
0.335604
0.291571
0.247165
0.202503
0.157682
0.112724
0.0677222
0.0225474
0.520228
0.547953
0.596937
0.625522
0.625385
0.608668
0.57957
0.544655
0.506454
0.46614
0.424342
0.381454
0.337761
0.293485
0.248803
0.203844
0.158715
0.113448
0.0681435
0.0226804
0.514359
0.53941
0.588904
0.621529
0.625122
0.610453
0.582266
0.547685
0.509521
0.469095
0.427104
0.383971
0.34
0.295425
0.250432
0.205159
0.159718
0.114147
0.0685497
0.0228088
0.49737
0.519277
0.576306
0.615896
0.624911
0.612878
0.585741
0.551406
0.513132
0.472447
0.43013
0.386647
0.342318
0.29739
0.252054
0.20645
0.160693
0.114823
0.0689415
0.0229329
0.476437
0.496097
0.559385
0.608841
0.624867
0.615949
0.589958
0.555765
0.51724
0.476157
0.433396
0.389464
0.344705
0.299373
0.253663
0.207714
0.161639
0.115474
0.0693185
0.0230525
0.433672
0.457504
0.537901
0.60163
0.625624
0.619697
0.594808
0.560655
0.521762
0.480166
0.436856
0.39239
0.347136
0.301357
0.255248
0.208942
0.162549
0.116097
0.0696785
0.0231671
0.416929
0.429652
0.524704
0.59848
0.628043
0.624073
0.600028
0.56587
0.526562
0.484384
0.44045
0.395382
0.349578
0.303318
0.25679
0.21012
0.163414
0.116685
0.0700182
0.0232759
0.379679
0.42513
0.523228
0.600524
0.631821
0.628636
0.605278
0.571189
0.531494
0.488709
0.444103
0.398382
0.351988
0.305222
0.258264
0.21123
0.164221
0.117231
0.0703329
0.0233782
0.406212
0.44237
0.5398
0.609898
0.637957
0.63435
0.611626
0.577725
0.537597
0.494036
0.448556
0.40198
0.354819
0.307422
0.25994
0.212487
0.165119
0.117833
0.0706787
0.0234936
0.438561
0.503032
0.58184
0.633434
0.651689
0.644242
0.620254
0.58565
0.544662
0.500071
0.453514
0.405902
0.357895
0.309731
0.261643
0.213714
0.165982
0.118405
0.0710111
0.0236041
0.501832
0.560681
0.622872
0.661876
0.672887
0.660904
0.633361
0.595998
0.552752
0.506332
0.458259
0.409496
0.360502
0.3116
0.262952
0.214612
0.166588
0.118798
0.0712416
0.0236831
0.564079
0.617855
0.667724
0.694095
0.69486
0.676509
0.645079
0.605035
0.559707
0.511614
0.462159
0.412257
0.362388
0.31283
0.263717
0.215068
0.166856
0.118957
0.0713414
0.0237225
0.640474
0.683097
0.716224
0.728992
0.719583
0.694071
0.657647
0.614
0.566215
0.516119
0.465139
0.414074
0.363368
0.313245
0.263786
0.214961
0.166697
0.118824
0.0712764
0.0237119
0.708407
0.740404
0.759383
0.76025
0.741484
0.709265
0.668036
0.621003
0.570694
0.518804
0.466491
0.414459
0.363103
0.312596
0.26297
0.214148
0.166009
0.118329
0.0710081
0.023639
0.776358
0.796823
0.800631
0.788458
0.761122
0.722109
0.676101
0.625729
0.573
0.519391
0.465891
0.41309
0.361301
0.310637
0.261072
0.212476
0.164677
0.117395
0.0704929
0.02349
0.815584
0.827459
0.82403
0.805724
0.772651
0.729181
0.679645
0.626642
0.572017
0.517104
0.462773
0.409528
0.357617
0.307092
0.257872
0.209775
0.162576
0.115937
0.0696824
0.023249
0.850557
0.858384
0.84599
0.818337
0.778688
0.730851
0.67824
0.623128
0.567116
0.511366
0.456636
0.403352
0.351697
0.301669
0.253136
0.205861
0.15957
0.113863
0.0685238
0.0228992
0.856961
0.858713
0.8438
0.814683
0.773528
0.724135
0.670184
0.61408
0.557479
0.50153
0.446947
0.394115
0.34317
0.294063
0.246614
0.200539
0.15551
0.111069
0.0669587
0.0224239
0.850636
0.855053
0.838566
0.805865
0.761743
0.71053
0.655567
0.599055
0.542524
0.487021
0.433192
0.381374
0.331659
0.283957
0.238047
0.193598
0.150237
0.107446
0.0649227
0.0218034
0.831408
0.830323
0.811557
0.779188
0.736292
0.68627
0.63231
0.576805
0.521395
0.467181
0.414829
0.364671
0.316775
0.271024
0.227161
0.184819
0.143579
0.102872
0.0623429
0.0210133
0.791625
0.793848
0.778124
0.746844
0.704206
0.654624
0.601579
0.547439
0.493757
0.441538
0.39138
0.343566
0.298132
0.254929
0.213674
0.173967
0.135352
0.0972101
0.0591364
0.0200245
0.747694
0.746186
0.727942
0.696673
0.656214
0.609737
0.559946
0.508977
0.458404
0.409283
0.362242
0.317578
0.275327
0.235332
0.197294
0.160796
0.125354
0.0903109
0.0552073
0.0188022
0.67795
0.677739
0.663301
0.636535
0.600001
0.556862
0.510258
0.462626
0.41562
0.370254
0.327081
0.286333
0.248002
0.211904
0.177729
0.145051
0.11337
0.0820043
0.0504427
0.0173034
0.604594
0.60322
0.588118
0.562152
0.528044
0.488836
0.447137
0.404824
0.363191
0.323092
0.285031
0.249237
0.215712
0.18429
0.154676
0.126464
0.0991632
0.0720944
0.044705
0.0154733
0.503729
0.502063
0.489843
0.468797
0.441064
0.408772
0.373801
0.337917
0.302484
0.268423
0.236261
0.206215
0.17827
0.152253
0.127882
0.104778
0.0824848
0.0603545
0.0378195
0.0132379
0.392084
0.391148
0.38137
0.364169
0.341337
0.314919
0.286738
0.258221
0.230423
0.203986
0.179228
0.156253
0.135006
0.115331
0.0969933
0.079687
0.0630407
0.0465022
0.0295456
0.0104899
0.252167
0.251099
0.244511
0.233241
0.218435
0.201425
0.183391
0.165192
0.147427
0.130492
0.114609
0.099862
0.0862448
0.073678
0.0620242
0.0510906
0.0406321
0.0302595
0.019575
0.00707748
0.0934631
0.0936548
0.0915736
0.0876076
0.0821831
0.0757938
0.0688923
0.0618331
0.0548934
0.0482799
0.0421222
0.0364757
0.0313396
0.0266742
0.0224142
0.0184733
0.0147463
0.0110705
0.00727671
0.00266986
-2.55873
-0.37207
-1.01831
-0.588551
-0.652162
-0.270752
-0.147813
0.136563
0.312771
0.379747
-0.862805
-0.357342
-0.960041
-0.576057
-0.674136
-0.29927
-0.172683
0.117196
0.304833
0.418205
-0.894572
-0.40872
-0.745985
-0.611521
-0.616835
-0.286758
-0.136662
0.121045
0.317325
0.447473
-0.455632
-0.0980411
-0.423513
-0.413453
-0.403067
-0.184296
-0.0299834
0.174173
0.357364
0.501247
-0.229502
0.0362358
-0.223055
-0.247031
-0.221163
-0.0676652
0.0865533
0.264868
0.441883
0.575347
-0.0690394
0.117817
-0.0667451
-0.0979959
-0.0531411
0.0874882
0.241315
0.396981
0.537745
0.649382
0.068796
0.181393
0.0621585
0.0326658
0.078986
0.190859
0.322846
0.471326
0.61696
0.726101
0.183173
0.224694
0.155912
0.133107
0.174107
0.274896
0.413457
0.564585
0.690682
0.778546
0.266349
0.25784
0.227902
0.215203
0.250982
0.339156
0.460816
0.596328
0.722335
0.811767
0.325965
0.282407
0.270223
0.272679
0.310788
0.390365
0.504032
0.635716
0.752042
0.829027
0.359658
0.295961
0.298218
0.316336
0.354984
0.42286
0.521382
0.635299
0.741238
0.819355
0.370084
0.302175
0.309939
0.337444
0.380826
0.445935
0.536036
0.641037
0.738905
0.80668
0.365724
0.303671
0.310445
0.343549
0.390073
0.450345
0.529571
0.619459
0.703377
0.765748
0.346666
0.295575
0.298094
0.333218
0.383143
0.443524
0.516268
0.596532
0.672319
0.72751
0.317192
0.278345
0.277442
0.311525
0.361399
0.418202
0.482178
0.550697
0.614005
0.660173
0.275442
0.249415
0.248355
0.279474
0.326971
0.380042
0.436248
0.494623
0.549027
0.589256
0.226118
0.211184
0.209866
0.235664
0.277975
0.324155
0.370474
0.417331
0.460563
0.492182
0.168031
0.16231
0.162361
0.182359
0.216619
0.253447
0.28923
0.325045
0.358225
0.382713
0.105172
0.103949
0.103878
0.117493
0.141067
0.165188
0.187926
0.210534
0.231348
0.2466
0.0371465
0.0374667
0.0374244
0.0430131
0.0523134
0.0611959
0.069451
0.0775948
0.0851785
0.0909022
0.306144
0.301949
0.323871
0.341026
0.384029
0.412727
0.478379
0.524295
0.623183
0.682698
0.826891
0.903138
1.11189
1.19803
1.51252
1.56331
2.07263
1.87139
2.77345
0.312863
0.300891
0.296887
0.318455
0.335091
0.377596
0.405446
0.469645
0.514328
0.611466
0.668776
0.807103
0.879924
1.07839
1.15643
1.44019
1.47579
1.88287
1.68622
1.95754
0.843531
0.29404
0.290369
0.311571
0.327635
0.369222
0.396093
0.459232
0.501974
0.596595
0.651564
0.785881
0.85237
1.04107
1.1088
1.36064
1.38554
1.68088
1.53808
1.48794
1.17882
0.285621
0.282525
0.302956
0.318364
0.359179
0.385003
0.445887
0.486921
0.578705
0.630852
0.757765
0.820829
0.995931
1.05682
1.27164
1.29515
1.48871
1.41544
1.26749
1.26525
0.275627
0.273295
0.292941
0.30762
0.346952
0.372037
0.430483
0.4694
0.556917
0.607212
0.723941
0.78539
0.941592
1.00253
1.17384
1.21493
1.32926
1.33297
1.10418
1.22766
0.264221
0.262865
0.2812
0.295556
0.333034
0.357274
0.41217
0.450257
0.531554
0.580663
0.685945
0.747506
0.881592
0.946901
1.07831
1.14222
1.19916
1.26115
0.975795
1.12974
0.251393
0.25127
0.26819
0.281941
0.317175
0.340984
0.391466
0.428937
0.503318
0.551574
0.644066
0.7084
0.819801
0.892342
0.990325
1.07102
1.09132
1.17665
0.859361
1.02492
0.23734
0.23844
0.253732
0.26732
0.299465
0.323009
0.368595
0.405897
0.471938
0.51989
0.59939
0.66847
0.759078
0.837821
0.909898
0.999657
0.98688
1.08358
0.764248
0.932098
0.222131
0.224498
0.237995
0.251325
0.280414
0.30353
0.343961
0.381097
0.438754
0.486522
0.553727
0.626918
0.701266
0.781656
0.832261
0.925187
0.889693
0.989447
0.688109
0.841988
0.205865
0.209389
0.22115
0.234133
0.260004
0.282453
0.317796
0.354909
0.404577
0.45188
0.509019
0.582522
0.643444
0.723458
0.757519
0.848307
0.797254
0.896483
0.628923
0.755234
0.188745
0.1932
0.203243
0.215633
0.238434
0.259952
0.290587
0.327372
0.370386
0.415543
0.464018
0.53606
0.585946
0.662851
0.683092
0.769609
0.712444
0.805392
0.576698
0.670006
0.170817
0.175888
0.184444
0.196116
0.215712
0.236265
0.262998
0.298114
0.335269
0.377689
0.418835
0.487261
0.527596
0.600263
0.610425
0.689794
0.632183
0.715855
0.528743
0.588127
0.152226
0.157557
0.16475
0.175733
0.192344
0.211451
0.234516
0.267298
0.299228
0.338057
0.372576
0.436654
0.46903
0.535142
0.538216
0.609858
0.556498
0.627631
0.47889
0.510109
0.133033
0.138416
0.14434
0.154378
0.1683
0.185585
0.205217
0.234925
0.2619
0.297059
0.325499
0.38369
0.409688
0.468453
0.466474
0.52899
0.484159
0.542129
0.42714
0.436599
0.113363
0.118547
0.123315
0.132175
0.143586
0.158544
0.175182
0.20169
0.223727
0.25452
0.277487
0.328899
0.349302
0.400185
0.395513
0.448546
0.412581
0.457292
0.372713
0.368163
0.0932847
0.0980535
0.101651
0.10909
0.118308
0.130862
0.144358
0.167249
0.184958
0.210933
0.228413
0.272206
0.287908
0.330789
0.32478
0.368272
0.341246
0.3737
0.314292
0.301528
0.072861
0.0768601
0.0796693
0.0855616
0.0924236
0.102592
0.113089
0.131901
0.145262
0.165438
0.178276
0.214412
0.225925
0.26026
0.253162
0.287114
0.268797
0.291764
0.252911
0.23728
0.0522539
0.0552318
0.0570322
0.0615593
0.0663674
0.0739801
0.08114
0.0950103
0.104704
0.119128
0.127453
0.154901
0.162502
0.188568
0.181912
0.206416
0.194344
0.209626
0.186495
0.171642
0.0313211
0.0332709
0.0344589
0.0372891
0.0397448
0.0444913
0.0491423
0.0578359
0.0631175
0.071421
0.0761315
0.0947329
0.0990521
0.115391
0.108995
0.12473
0.118167
0.127647
0.115681
0.104768
0.010531
0.0110423
0.0113059
0.0124978
0.0135947
0.01502
0.0159142
0.0190678
0.0214691
0.0244326
0.0252583
0.0317004
0.0330689
0.0396907
0.0365002
0.0420991
0.0398546
0.0443144
0.0405359
0.0360147
0.299349
0.294116
0.316348
0.332989
0.376452
0.404519
0.471319
0.516258
0.6182
0.677776
0.827365
0.907513
1.12854
1.2275
1.56489
1.66682
2.22686
2.22852
3.29713
2.08586
0.303422
0.298351
0.320745
0.337718
0.381645
0.410299
0.477838
0.523674
0.627005
0.688073
0.840261
0.922777
1.14915
1.25484
1.60573
1.72826
2.32422
2.42088
3.47469
3.00061
0.306762
0.301835
0.324401
0.341584
0.385842
0.415063
0.483169
0.529587
0.634009
0.696517
0.850165
0.934802
1.16505
1.2769
1.63537
1.77868
2.39662
2.56931
3.68919
3.56563
0.309376
0.304573
0.327232
0.344581
0.389136
0.418713
0.487194
0.534065
0.639338
0.702592
0.857593
0.943345
1.17643
1.29169
1.65683
1.81309
2.44321
2.67936
3.74581
3.92633
0.311239
0.306544
0.329269
0.346738
0.39141
0.421257
0.489924
0.537107
0.642676
0.706552
0.86189
0.948342
1.18253
1.2997
1.66737
1.82896
2.4685
2.72253
3.81915
4.05709
0.312353
0.307761
0.330492
0.348009
0.392722
0.422677
0.491336
0.53864
0.644197
0.70812
0.86331
0.949563
1.18362
1.29977
1.66766
1.82558
2.47012
2.71532
3.82706
4.06443
0.312718
0.308215
0.330898
0.348417
0.393059
0.422968
0.491447
0.538697
0.643861
0.707324
0.861828
0.94697
1.17949
1.29211
1.65698
1.80368
2.43804
2.65274
3.75858
3.89289
0.312329
0.307905
0.330504
0.347975
0.392399
0.422194
0.490289
0.537366
0.641621
0.704571
0.857281
0.941157
1.16985
1.27804
1.63411
1.76402
2.39259
2.52163
3.71909
3.50649
0.311197
0.306845
0.329293
0.346668
0.390828
0.420323
0.487881
0.534638
0.637836
0.699566
0.850652
0.931955
1.15743
1.25717
1.60838
1.70941
2.31613
2.3564
3.48052
2.88661
0.309325
0.305022
0.327319
0.344518
0.388319
0.417427
0.484288
0.530535
0.632279
0.692857
0.840749
0.91996
1.13727
1.23211
1.56201
1.64587
2.20778
2.1444
3.34845
1.87841
)
;

boundaryField
{
    inlet
    {
        type            zeroGradient;
    }
    outlet
    {
        type            fixedValue;
        value           uniform 0;
    }
    upAndBottom
    {
        type            empty;
    }
    obstacle
    {
        type            zeroGradient;
    }
}


// ************************************************************************* //
