/*--------------------------------*- C++ -*----------------------------------*\
| =========                 |                                                 |
| \\      /  F ield         | OpenFOAM: The Open Source CFD Toolbox           |
|  \\    /   O peration     | Version:  v1806                                 |
|   \\  /    A nd           | Web:      www.OpenFOAM.com                      |
|    \\/     M anipulation  |                                                 |
\*---------------------------------------------------------------------------*/
FoamFile
{
    version     2.0;
    format      ascii;
    class       volScalarField;
    location    "13";
    object      p;
}
// * * * * * * * * * * * * * * * * * * * * * * * * * * * * * * * * * * * * * //

dimensions      [0 2 -2 0 0 0 0];


internalField   nonuniform List<scalar> 
2400
(
0.105384
0.10267
0.101695
0.103312
0.101083
0.10212
0.0984201
0.0990201
0.0955347
0.0926552
0.0914714
0.0861316
0.0852204
0.0794493
0.0747785
0.0713192
0.0649542
0.0609893
0.0572265
0.0527569
0.314717
0.309315
0.305347
0.309758
0.304579
0.305523
0.297844
0.295662
0.289078
0.279156
0.275314
0.262015
0.254644
0.241335
0.224337
0.214897
0.196627
0.184795
0.17312
0.160088
0.522637
0.518217
0.511427
0.515094
0.510807
0.50789
0.499723
0.492641
0.483891
0.469358
0.459795
0.441724
0.424698
0.404695
0.376301
0.359163
0.330352
0.310097
0.287951
0.265758
0.728709
0.728365
0.722114
0.721513
0.718157
0.711691
0.702328
0.692299
0.679049
0.662414
0.645836
0.622728
0.598516
0.56941
0.534171
0.505063
0.467075
0.43494
0.400676
0.367864
0.934681
0.939714
0.936091
0.930698
0.925637
0.917821
0.906084
0.89504
0.876846
0.858584
0.83568
0.806305
0.777071
0.736792
0.69737
0.653204
0.605305
0.560136
0.511022
0.46862
1.14213
1.15165
1.15026
1.14254
1.13343
1.12634
1.1118
1.10146
1.07914
1.05963
1.03092
0.994891
0.960108
0.908209
0.863317
0.804548
0.743981
0.686457
0.619227
0.566092
1.35218
1.36372
1.36185
1.35528
1.3416
1.33728
1.32023
1.31222
1.28648
1.26707
1.23183
1.19189
1.14751
1.08662
1.0311
0.959002
0.883994
0.811877
0.725833
0.657274
1.56343
1.57597
1.57131
1.56723
1.55098
1.55053
1.53162
1.52722
1.49762
1.48134
1.43761
1.39898
1.34068
1.27412
1.20311
1.11703
1.02609
0.935124
0.829525
0.740795
1.77194
1.78793
1.77981
1.7785
1.76168
1.76606
1.74547
1.74613
1.71183
1.70166
1.64808
1.61585
1.54129
1.47328
1.38265
1.28033
1.17242
1.0558
0.928595
0.814141
1.97634
1.99813
1.98695
1.98886
1.97346
1.98315
1.96286
1.96783
1.9315
1.92622
1.86507
1.84108
1.75033
1.68775
1.57153
1.45644
1.32455
1.17548
1.02295
0.87392
2.17674
2.20242
2.19073
2.19617
2.18638
2.19961
2.18479
2.19037
2.15887
2.15485
2.09279
2.07446
1.97038
1.91921
1.77291
1.65547
1.48515
1.29888
1.11372
0.915887
2.37879
2.39689
2.38881
2.39819
2.39873
2.41331
2.40894
2.41315
2.3937
2.38854
2.33501
2.31821
2.20732
2.1678
1.9925
1.88447
1.65942
1.44112
1.20014
0.935416
2.59058
2.58177
2.58037
2.59525
2.60888
2.62319
2.63111
2.6371
2.63257
2.62932
2.59006
2.57434
2.4669
2.43241
2.23474
2.14236
1.85394
1.62223
1.28327
0.930423
2.81327
2.76157
2.78169
2.79745
2.82496
2.83586
2.8548
2.86706
2.87618
2.87834
2.85682
2.84473
2.75023
2.71498
2.50494
2.42216
2.072
1.85265
1.37303
0.917052
3.02839
2.95204
3.00039
3.00508
3.05965
3.05467
3.10655
3.10877
3.14792
3.14947
3.15262
3.1403
3.0721
3.02238
2.81632
2.71935
2.31691
2.11933
1.47106
0.94822
3.22027
3.15253
3.20385
3.21605
3.28422
3.28501
3.36565
3.36636
3.45466
3.44384
3.51173
3.47771
3.4699
3.38867
3.24091
3.04983
2.61694
2.36264
1.54655
1.03338
3.39024
3.35557
3.39098
3.42299
3.4883
3.52061
3.60314
3.63696
3.74296
3.75747
3.87482
3.84363
3.94089
3.80741
3.79784
3.49782
3.15825
2.59408
1.61539
0.980177
3.55409
3.542
3.56954
3.61616
3.68007
3.74374
3.82404
3.90006
4.00443
4.07738
4.19774
4.2332
4.35763
4.27333
4.3777
4.03974
3.96411
3.12998
2.2119
0.731893
3.72134
3.7082
3.74107
3.79338
3.8662
3.94465
4.03789
4.13909
4.25611
4.37527
4.5009
4.61992
4.73
4.79571
4.86105
4.71641
4.69985
3.95777
3.38544
1.11904
3.86654
3.85757
3.89993
3.95352
4.038
4.123
4.23926
4.35388
4.49986
4.64312
4.80426
4.96754
5.11974
5.27423
5.37798
5.45315
5.42366
5.12775
4.72131
2.62269
0.0487403
0.0454558
0.0493148
0.0295523
0.0435339
0.0475241
0.0234201
0.0649051
0.013685
0.00497508
0.146082
0.134059
0.13699
0.109731
0.137964
0.145769
0.0763677
0.137914
0.0637357
0.014062
0.237017
0.215488
0.2155
0.195771
0.23669
0.245346
0.171982
0.177216
0.0815806
0.0151885
0.325317
0.299722
0.287226
0.281975
0.343868
0.347922
0.332297
0.251572
0.0950903
0.00531106
0.413314
0.388352
0.357164
0.373761
0.454719
0.453667
0.544286
0.390585
0.162511
-0.0267837
0.495487
0.469913
0.423625
0.461313
0.56405
0.574243
0.756419
0.576139
0.322741
-0.0604185
0.568642
0.529492
0.478426
0.537286
0.670247
0.718116
0.943464
0.787039
0.537723
-0.07326
0.628061
0.561046
0.514303
0.592407
0.770218
0.895124
1.13086
1.06912
0.788986
-0.00971801
0.668264
0.564107
0.518743
0.618777
0.852398
1.08414
1.36502
1.44127
1.1385
0.231441
0.682927
0.529259
0.478559
0.601086
0.896856
1.2636
1.66096
1.87465
1.59622
0.629775
0.666256
0.442991
0.371666
0.516227
0.890416
1.42817
1.98991
2.32527
2.07205
1.06462
0.609812
0.285001
0.171146
0.339972
0.821693
1.57948
2.31191
2.72171
2.45581
1.392
0.496461
0.0226712
-0.170913
0.0381455
0.678698
1.68648
2.56416
2.97538
2.62398
1.5259
0.307009
-0.416858
-0.74132
-0.469292
0.39348
1.67998
2.65689
3.0193
2.58796
1.56256
-5.21881e-05
-1.12174
-1.69744
-1.33142
-0.140475
1.43659
2.5322
2.85155
2.4314
1.54978
-0.549149
-2.20366
-3.0665
-2.65086
-0.978971
0.998577
2.15668
2.46998
2.19805
1.46381
-1.49018
-3.67589
-4.71227
-4.25064
-2.23543
0.244174
1.66415
2.07948
1.84312
1.33433
-2.66367
-5.03077
-6.59074
-5.38946
-2.79312
-0.115114
1.11833
1.74161
1.37243
1.26053
-3.38613
-4.30932
-5.69292
-5.40944
-2.74447
-0.171045
1.11251
1.64421
1.31771
1.48057
-2.57233
-3.76428
-4.94096
-4.36904
-1.88412
0.215329
1.2214
1.74417
1.37862
1.74189
-0.0210624
-0.26079
-0.141763
-0.0120766
-0.309998
-0.335204
-0.21988
-0.186263
0.00447693
-0.058738
-0.0332516
0.0322968
0.0683357
0.0319138
0.0267129
0.0545893
0.0229161
-0.00166319
0.00918993
0.0044273
-0.0902709
-0.765077
-0.578924
-0.548818
-1.0148
-0.984894
-0.679632
-0.687224
-0.689839
-0.247393
-0.094307
0.0637641
0.101072
0.0702347
0.0969745
0.136622
0.0678422
0.0572658
0.0529847
0.0186643
-0.204331
-1.29148
-1.11217
-1.13163
-1.59637
-1.52716
-1.19376
-1.1584
-0.85469
-0.466083
-0.179246
0.0700956
0.129031
0.114111
0.166082
0.204613
0.159856
0.141872
0.0986216
0.0316927
-0.410796
-1.85923
-1.73273
-1.75032
-2.00804
-1.92109
-1.74561
-1.73046
-1.2664
-0.737186
-0.273842
0.0835305
0.169961
0.169348
0.236898
0.290854
0.25671
0.213118
0.138047
0.044435
-0.847575
-2.55381
-2.45956
-2.4057
-2.30015
-2.2209
-2.33791
-2.36047
-1.74512
-1.05902
-0.365812
0.101488
0.216065
0.232545
0.32334
0.382945
0.337711
0.270894
0.175448
0.0584424
-1.51102
-3.41171
-3.3039
-3.08093
-2.46355
-2.37855
-2.93787
-3.06326
-2.29437
-1.39849
-0.438451
0.1258
0.265883
0.302418
0.411082
0.465843
0.410412
0.32887
0.215811
0.0735572
-2.27205
-4.34252
-4.22781
-3.72694
-2.50766
-2.47898
-3.56775
-3.83587
-2.91588
-1.74826
-0.496486
0.147044
0.311871
0.372662
0.489547
0.548729
0.493956
0.391514
0.254211
0.0858904
-2.81582
-5.04296
-4.91625
-4.18181
-2.4857
-2.56495
-4.21377
-4.6411
-3.53897
-2.073
-0.550084
0.165608
0.356437
0.442309
0.572257
0.642618
0.583023
0.454075
0.286935
0.0934479
-2.84816
-5.20383
-5.2137
-4.367
-2.44223
-2.71226
-4.89145
-5.48515
-4.17299
-2.36424
-0.576593
0.199956
0.414067
0.524306
0.666887
0.740793
0.664632
0.507856
0.309661
0.0978711
-2.45913
-4.88226
-5.05962
-4.26993
-2.45228
-2.95635
-5.5698
-6.29489
-4.75209
-2.59713
-0.560513
0.248321
0.493845
0.631033
0.778757
0.83875
0.734881
0.553218
0.329366
0.104144
-1.86747
-4.25009
-4.61238
-3.97818
-2.55018
-3.29966
-6.22048
-7.03193
-5.21365
-2.73657
-0.514019
0.308514
0.588259
0.749416
0.897631
0.940022
0.805944
0.600202
0.355726
0.115714
-1.28103
-3.53934
-4.07932
-3.76482
-2.77431
-3.72953
-6.8065
-7.599
-5.49896
-2.73612
-0.42138
0.393559
0.687704
0.861739
1.01067
1.05177
0.890149
0.658297
0.392433
0.129897
-0.829672
-2.91242
-3.64202
-3.65563
-3.06955
-4.2036
-7.28932
-7.98245
-5.60052
-2.60529
-0.283812
0.502424
0.798025
0.980223
1.12739
1.17533
0.988634
0.726362
0.433206
0.143651
-0.534536
-2.44213
-3.29549
-3.61102
-3.38227
-4.65727
-7.62345
-8.12691
-5.51963
-2.3897
-0.118824
0.627167
0.925347
1.12007
1.26358
1.30642
1.09102
0.795328
0.473382
0.156959
-0.27025
-2.05674
-2.99416
-3.53063
-3.65387
-5.03328
-7.78978
-8.01785
-5.24896
-2.09005
0.0689251
0.762727
1.07018
1.27939
1.41637
1.43668
1.19003
0.86352
0.514632
0.170634
0.00333668
-1.62518
-2.70584
-3.40736
-3.86519
-5.3121
-7.79206
-7.67118
-4.81061
-1.71147
0.260814
0.903236
1.22901
1.45311
1.58248
1.56769
1.29145
0.935429
0.558582
0.184973
0.171685
-1.19172
-2.41416
-3.2542
-3.98968
-5.49384
-7.65896
-7.18347
-4.26333
-1.29449
0.44473
1.05239
1.40939
1.64706
1.76413
1.70134
1.3981
1.01286
0.604695
0.200701
0.331177
-0.843125
-2.1074
-3.07031
-4.03869
-5.59852
-7.39216
-6.62575
-3.66116
-0.863789
0.639856
1.22299
1.61293
1.85363
1.95736
1.83685
1.50882
1.09566
0.65131
0.219065
0.72803
-0.540804
-1.80412
-2.87573
-4.03931
-5.63691
-7.06989
-6.06344
-3.06574
-0.457114
0.83787
1.40709
1.83157
2.06324
2.15523
1.97179
1.61982
1.18187
0.69814
0.242002
1.18333
-0.257561
-1.54304
-2.72503
-4.03528
-5.62512
-6.75045
-5.50902
-2.53955
-0.10931
1.02104
1.60127
2.06596
2.26895
2.34706
2.10276
1.72669
1.26829
0.74544
0.269948
1.26585
-0.0198738
-1.30894
-2.62722
-4.08305
-5.60756
-6.39766
-4.93014
-2.04586
0.212996
1.22204
1.83686
2.33804
2.4838
2.54377
2.24011
1.83526
1.36419
0.803202
0.304007
1.29278
0.172159
-1.16503
-2.63831
-4.25388
-5.64372
-5.99511
-4.30435
-1.55424
0.524579
1.46309
2.11131
2.62026
2.68123
2.72593
2.37113
1.9427
1.46486
0.872318
0.33737
1.28228
0.26919
-1.1476
-2.80976
-4.59386
-5.81729
-5.64087
-3.73824
-1.10315
0.80776
1.72226
2.37034
2.85167
2.81947
2.86677
2.47083
2.0379
1.55322
0.940533
0.362715
1.2344
0.263834
-1.24992
-3.116
-5.12655
-6.18589
-5.49999
-3.30651
-0.730801
1.07946
2.02887
2.61943
3.04852
2.92019
2.9748
2.54814
2.13001
1.62835
0.992618
0.376427
1.11974
0.197064
-1.46926
-3.57222
-5.82216
-6.75446
-5.56928
-3.02649
-0.466287
1.34896
2.39399
2.89691
3.25911
3.02226
3.07039
2.61765
2.20468
1.68677
1.01731
0.374646
1.00331
0.053278
-1.77417
-4.14697
-6.61638
-7.46975
-5.82309
-2.88203
-0.287677
1.62099
2.77942
3.21266
3.47821
3.12191
3.14078
2.67254
2.24852
1.73005
1.01103
0.354652
0.828671
-0.11417
-2.1504
-4.72909
-7.36871
-8.23283
-6.1817
-2.81729
-0.131255
1.90631
3.15858
3.51149
3.68464
3.18725
3.17393
2.70749
2.2594
1.7622
0.974413
0.31616
0.77243
-0.267056
-2.52758
-5.27902
-8.0251
-8.98422
-6.63006
-2.83571
-0.00406166
2.16919
3.46455
3.76521
3.83842
3.20609
3.16475
2.71993
2.23427
1.78494
0.910786
0.258829
0.714385
-0.351954
-2.87118
-5.75473
-8.60989
-9.74204
-7.20804
-2.95268
0.0340268
2.29355
3.65892
3.9433
3.94051
3.17714
3.11185
2.71003
2.19432
1.79982
0.827387
0.18339
0.821863
-0.426872
-3.15295
-6.11654
-9.09762
-10.4806
-7.84734
-3.09291
-0.0138882
2.25372
3.71353
4.01303
3.97211
3.09514
3.01778
2.67426
2.13907
1.80557
0.738155
0.102488
0.918667
-0.369465
-3.32084
-6.32252
-9.35114
-10.8607
-8.17376
-3.14761
-0.0914596
2.10959
3.66686
3.9668
3.8962
3.01135
2.9002
2.62257
2.10683
1.79296
0.706071
0.0638141
1.00079
-0.330012
-3.41723
-6.40104
-9.39847
-10.9945
-8.31731
-3.17137
-0.163446
1.90388
3.58196
3.87899
3.77156
2.94829
2.77769
2.56944
2.09557
1.75965
0.708673
0.0637271
1.16927
-0.341883
-3.47174
-6.38332
-9.32442
-11.0213
-8.36637
-3.14742
-0.221007
1.6436
3.41641
3.7442
3.61684
2.88882
2.64093
2.51094
2.08831
1.69799
0.724014
0.0917559
1.33649
-0.390901
-3.48925
-6.3031
-9.15631
-10.8871
-8.25754
-3.09257
-0.272861
1.37558
3.17134
3.56928
3.43874
2.79027
2.48706
2.43003
2.04709
1.61029
0.73027
0.132935
1.09692
-0.476352
-3.474
-6.12951
-8.78709
-10.5052
-8.03087
-3.02623
-0.313949
1.11728
2.85835
3.35818
3.24128
2.63587
2.30777
2.29539
1.9457
1.49935
0.714499
0.162253
0.828764
-0.590865
-3.41371
-5.83457
-8.21619
-9.90935
-7.69545
-2.95054
-0.341916
0.897503
2.50576
3.12307
3.02946
2.44065
2.10809
2.11994
1.8061
1.36548
0.67829
0.172025
0.428568
-0.730575
-3.34081
-5.51423
-7.59332
-9.16872
-7.24004
-2.86035
-0.379261
0.708163
2.16409
2.8857
2.82028
2.26747
1.90738
1.94068
1.66225
1.21682
0.622192
0.167671
0.123735
-0.846119
-3.25979
-5.18703
-6.91078
-8.27257
-6.70422
-2.762
-0.410015
0.545517
1.85475
2.66379
2.62453
2.11431
1.73542
1.77983
1.52728
1.07048
0.549515
0.153999
-0.107555
-0.908407
-3.09085
-4.82617
-6.17153
-7.30513
-6.12774
-2.65619
-0.449768
0.40768
1.59007
2.45882
2.44218
1.96847
1.58076
1.625
1.39175
0.935589
0.472828
0.136641
-0.244816
-0.923171
-2.92327
-4.53126
-5.51333
-6.48903
-5.53903
-2.52252
-0.495613
0.282474
1.3559
2.25662
2.26209
1.82406
1.43271
1.46855
1.25527
0.815228
0.401903
0.118954
-0.315274
-0.926849
-2.86453
-4.38728
-4.98184
-5.83318
-4.9222
-2.33601
-0.523318
0.165183
1.12898
2.04418
2.07417
1.67697
1.28936
1.31483
1.12242
0.709002
0.33787
0.102
-0.351772
-0.951572
-2.98151
-4.43139
-4.58656
-5.19205
-4.27728
-2.11307
-0.531572
0.067503
0.913254
1.81332
1.87479
1.52483
1.14881
1.16395
0.988965
0.611403
0.280782
0.0863347
-0.379646
-0.973782
-3.17076
-4.47285
-4.35166
-4.51421
-3.62774
-1.86355
-0.51286
0.00161289
0.736075
1.57825
1.66566
1.36938
1.01675
1.01833
0.855935
0.515514
0.228389
0.07148
-0.403444
-0.987826
-3.30963
-4.38708
-4.04773
-3.80943
-2.99685
-1.59387
-0.471595
-0.0385019
0.593059
1.35613
1.45586
1.21471
0.895497
0.882428
0.734823
0.42348
0.1793
0.0563206
-0.423074
-0.990162
-3.25495
-4.09857
-3.62116
-3.12278
-2.40768
-1.32258
-0.416566
-0.0673162
0.459711
1.14113
1.24439
1.05966
0.783039
0.75078
0.625356
0.34521
0.136063
0.0409966
-0.444062
-0.982147
-2.95426
-3.63943
-3.07557
-2.47267
-1.86162
-1.05658
-0.344969
-0.0785269
0.32502
0.915043
1.01922
0.899723
0.669363
0.618019
0.508956
0.280008
0.104592
0.0285211
-0.435721
-0.918072
-2.42393
-2.9815
-2.4248
-1.86124
-1.36346
-0.79662
-0.264112
-0.0707631
0.202391
0.673251
0.785258
0.724325
0.534203
0.484308
0.384322
0.208921
0.080513
0.0225039
-0.364508
-0.77775
-1.76075
-2.18469
-1.72656
-1.30158
-0.920997
-0.558442
-0.184142
-0.044263
0.124724
0.426443
0.544929
0.541189
0.380986
0.335294
0.269769
0.128584
0.0465474
0.0171623
-0.221258
-0.50534
-1.02809
-1.31579
-0.996171
-0.752545
-0.496029
-0.336661
-0.10748
-0.00350025
0.0877381
0.206586
0.301788
0.336905
0.208893
0.16502
0.166822
0.0614939
0.00371491
0.00397809
-0.0600037
-0.169463
-0.314033
-0.126383
-0.271586
-0.209202
-0.11994
-0.110732
-0.0380456
0.0152303
0.0418411
0.0536076
0.0837215
0.129542
0.0643553
0.0275278
0.0571727
0.0223413
-0.0135091
-0.00722003
-8.77612
-1.3114
-3.34569
-4.01159
-8.77183
-9.71913
-6.75294
-3.8083
-1.55134
0.781809
-3.37419
-0.98625
-2.72572
-4.72139
-10.2638
-11.1594
-7.48522
-4.04515
-1.85945
0.669019
-2.91509
-1.52825
-2.90153
-6.11496
-12.1565
-12.8281
-8.69794
-4.242
-2.20172
0.510547
-1.87538
-1.51947
-3.19003
-7.19989
-13.4775
-13.7399
-9.43084
-4.47316
-2.12124
0.239052
-1.28689
-1.74587
-3.69217
-7.76241
-13.4899
-13.4974
-9.24869
-4.32384
-1.88359
-0.0644826
-1.00066
-1.91544
-3.76937
-7.19326
-11.7143
-11.6061
-8.01503
-3.96847
-1.67017
-0.267066
-0.851269
-1.80165
-3.26747
-5.54641
-8.62123
-8.75737
-6.28725
-3.28285
-1.43085
-0.395756
-0.720333
-1.53947
-2.66479
-4.05769
-6.04808
-6.35436
-4.70451
-2.65549
-1.29324
-0.498927
-0.581619
-1.26378
-2.14298
-3.00746
-4.26242
-4.6103
-3.57397
-2.1417
-1.15067
-0.55129
-0.457178
-1.0345
-1.74525
-2.31255
-3.10588
-3.40982
-2.75315
-1.73061
-1.00881
-0.57761
-0.361617
-0.847121
-1.42104
-1.80907
-2.31888
-2.57265
-2.17683
-1.44276
-0.886567
-0.577463
-0.284838
-0.689517
-1.15208
-1.43083
-1.78636
-1.98427
-1.74817
-1.21818
-0.774125
-0.564119
-0.221204
-0.557816
-0.931179
-1.13291
-1.40282
-1.55251
-1.40686
-1.03546
-0.673244
-0.54633
-0.166804
-0.450578
-0.743197
-0.882534
-1.10675
-1.20889
-1.11994
-0.875164
-0.587386
-0.525532
-0.121563
-0.358732
-0.577479
-0.670434
-0.854062
-0.921752
-0.881449
-0.726918
-0.510575
-0.492195
-0.0853657
-0.274464
-0.427453
-0.494411
-0.640846
-0.682346
-0.685889
-0.604606
-0.443536
-0.450999
-0.0613068
-0.201131
-0.304856
-0.351501
-0.451844
-0.495439
-0.535292
-0.512379
-0.393324
-0.402706
-0.044848
-0.150871
-0.213148
-0.240194
-0.297446
-0.346876
-0.424001
-0.44013
-0.334574
-0.329609
-0.0310061
-0.102607
-0.141917
-0.149213
-0.164383
-0.229142
-0.307532
-0.308566
-0.225469
-0.215972
-0.011568
-0.0398408
-0.054794
-0.0575345
-0.0511525
-0.0837175
-0.128805
-0.101211
-0.0742588
-0.0737598
3.64988
3.64027
3.67206
3.71753
3.78638
3.85387
3.9472
4.02925
4.14823
4.23718
4.37021
4.44372
4.56972
4.57072
4.66207
4.42247
4.52349
3.29525
3.21853
-1.77952
3.49531
3.47809
3.5043
3.5448
3.6038
3.66098
3.73561
3.79995
3.89258
3.95158
4.04977
4.07148
4.15834
4.05763
4.14583
3.66947
3.78601
2.32084
1.95248
-0.609259
3.31819
3.3089
3.32582
3.36163
3.40704
3.45749
3.51018
3.56145
3.6258
3.6602
3.73272
3.6962
3.78255
3.5646
3.67991
3.05337
3.0644
1.90584
0.986512
0.079223
3.13839
3.12352
3.14126
3.16721
3.21025
3.23945
3.28803
3.30721
3.37264
3.35281
3.4416
3.31295
3.43239
3.10222
3.19806
2.57457
2.31513
1.59657
0.546871
0.414324
2.95839
2.92255
2.95097
2.96279
3.01204
3.00826
3.0673
3.04142
3.12016
3.04345
3.13571
2.96044
3.0389
2.71329
2.62649
2.21352
1.78415
1.47864
0.651346
0.464207
2.7679
2.71822
2.75066
2.75461
2.79948
2.78069
2.82955
2.78723
2.84162
2.75846
2.79058
2.64881
2.60372
2.40754
2.20594
1.99388
1.57978
1.42811
0.679903
0.290967
2.56473
2.52538
2.53998
2.54776
2.57183
2.56187
2.57765
2.54815
2.55364
2.50078
2.46804
2.38262
2.28121
2.17178
1.95314
1.83804
1.43969
1.25881
0.584645
0.122052
2.35549
2.34349
2.34021
2.346
2.35106
2.34914
2.34427
2.32424
2.30268
2.26635
2.20974
2.1596
2.03843
1.97188
1.74584
1.64164
1.25648
1.02301
0.468352
0.0278945
2.1537
2.16122
2.15357
2.15261
2.1423
2.14536
2.12622
2.11785
2.07888
2.05837
1.98659
1.9506
1.82046
1.75856
1.53622
1.4119
1.06996
0.822846
0.388776
0.00362878
1.95793
1.97755
1.96673
1.96238
1.94125
1.94814
1.92091
1.91916
1.87212
1.85475
1.77846
1.73771
1.61182
1.53405
1.33545
1.1937
0.911138
0.674797
0.341427
0.0123297
1.76234
1.79286
1.77802
1.77335
1.74637
1.75472
1.72351
1.7212
1.67319
1.64979
1.57803
1.52486
1.41366
1.32115
1.15349
1.00814
0.780468
0.570334
0.30595
0.0256783
1.5662
1.60744
1.58875
1.58536
1.55582
1.56218
1.53002
1.52279
1.47807
1.44679
1.38384
1.32194
1.22729
1.13074
0.990846
0.856314
0.669693
0.4866
0.271943
0.0353473
1.37463
1.41957
1.40092
1.39678
1.36789
1.36894
1.33963
1.32615
1.28781
1.25046
1.19753
1.13319
1.05305
0.961929
0.843639
0.724658
0.570976
0.413478
0.237398
0.0404638
1.18871
1.22747
1.21388
1.20685
1.18253
1.17615
1.15312
1.13383
1.10318
1.06323
1.01859
0.957588
0.889077
0.807985
0.709063
0.605519
0.479544
0.346923
0.203163
0.0415561
1.00593
1.03292
1.02667
1.01682
0.99899
0.986393
0.969779
0.947827
0.923058
0.884961
0.846477
0.792496
0.735232
0.664868
0.584422
0.496249
0.393424
0.285167
0.169623
0.0399837
0.822479
0.840083
0.838799
0.828599
0.815808
0.801742
0.788226
0.768256
0.746466
0.714477
0.681407
0.635962
0.590225
0.530197
0.467551
0.394177
0.313245
0.227237
0.137298
0.0356237
0.637041
0.651398
0.650753
0.642122
0.632909
0.620733
0.609139
0.593193
0.574285
0.549905
0.523031
0.486254
0.452282
0.402728
0.356467
0.298985
0.238148
0.173395
0.105723
0.0287532
0.45271
0.465988
0.463029
0.457256
0.450104
0.44244
0.432438
0.42202
0.406452
0.390286
0.369839
0.342143
0.319377
0.281075
0.250853
0.208745
0.167796
0.122421
0.0752208
0.0198198
0.268072
0.282074
0.27675
0.27417
0.268564
0.26508
0.258149
0.252255
0.242317
0.232772
0.220494
0.201769
0.190206
0.16448
0.149147
0.122788
0.099582
0.0730897
0.0445279
0.0111445
0.0880001
0.0948473
0.0920562
0.0912874
0.0892446
0.0879299
0.0859671
0.0836385
0.0803219
0.0772349
0.072771
0.0661669
0.0628873
0.0534006
0.0494048
0.0400601
0.032677
0.0236124
0.0142907
0.00223486
3.99423
4.00511
4.051
4.11103
4.19881
4.29756
4.42872
4.56546
4.73687
4.90839
5.11488
5.31289
5.54303
5.74728
5.9735
6.14321
6.30298
6.36296
6.44218
5.06701
4.10847
4.13258
4.17804
4.24952
4.3389
4.4571
4.59421
4.7617
4.94526
5.16
5.38839
5.6447
5.91179
6.19486
6.48649
6.76316
7.04058
7.22783
7.35536
7.42971
4.19819
4.22196
4.26825
4.34528
4.44385
4.57111
4.7206
4.9012
5.10402
5.34033
5.59552
5.88689
6.18995
6.52913
6.86546
7.22365
7.54586
7.84321
8.07147
8.07214
4.25423
4.27303
4.32374
4.40083
4.50857
4.63803
4.79967
4.98462
5.20477
5.44916
5.72926
6.03366
6.37072
6.72709
7.10311
7.48188
7.84883
8.18849
8.42952
8.60647
4.26275
4.28989
4.34227
4.42093
4.52614
4.65952
4.82094
5.01287
5.23404
5.48642
5.77013
6.08295
6.42637
6.79162
7.179
7.56754
7.94922
8.27589
8.5264
8.63938
4.23839
4.2675
4.31821
4.39587
4.49838
4.63022
4.78863
4.97792
5.19385
5.44302
5.71877
6.02903
6.36178
6.72398
7.09535
7.47665
7.84167
8.1643
8.44077
8.56394
4.18499
4.20301
4.25268
4.32551
4.42663
4.55041
4.70435
4.88008
5.08802
5.3177
5.58256
5.86634
6.18431
6.51429
6.86602
7.21095
7.53032
7.82511
8.0156
8.22369
4.08575
4.10769
4.15312
4.21963
4.3117
4.42704
4.56799
4.72917
4.91674
5.12435
5.36074
5.61206
5.89039
6.17396
6.47501
6.76738
7.06756
7.30343
7.53571
7.26278
3.9501
3.98214
4.0174
4.07901
4.15687
4.2647
4.38229
4.53004
4.6828
4.87113
5.05573
5.27742
5.48556
5.72088
5.93599
6.13309
6.28869
6.33848
6.25973
6.15934
3.80181
3.81784
3.84802
3.90228
3.97326
4.06328
4.16496
4.28402
4.41272
4.55969
4.70627
4.86556
5.0161
5.15338
5.28339
5.31914
5.38798
5.08849
5.4316
1.92733
)
;

boundaryField
{
    inlet
    {
        type            zeroGradient;
    }
    outlet
    {
        type            fixedValue;
        value           uniform 0;
    }
    upAndBottom
    {
        type            empty;
    }
    obstacle
    {
        type            zeroGradient;
    }
}


// ************************************************************************* //
