/*--------------------------------*- C++ -*----------------------------------*\
| =========                 |                                                 |
| \\      /  F ield         | OpenFOAM: The Open Source CFD Toolbox           |
|  \\    /   O peration     | Version:  v1806                                 |
|   \\  /    A nd           | Web:      www.OpenFOAM.com                      |
|    \\/     M anipulation  |                                                 |
\*---------------------------------------------------------------------------*/
FoamFile
{
    version     2.0;
    format      ascii;
    class       volScalarField;
    location    "80";
    object      p;
}
// * * * * * * * * * * * * * * * * * * * * * * * * * * * * * * * * * * * * * //

dimensions      [0 2 -2 0 0 0 0];


internalField   nonuniform List<scalar> 
2400
(
0.000323513
0.000323094
0.000322166
0.000320655
0.000318435
0.00031532
0.000311085
0.000305474
0.000298219
0.000289045
0.000277695
0.000263947
0.000247634
0.000228678
0.000207098
0.00018306
0.000156867
0.000129067
0.00010012
6.90354e-05
0.000971007
0.000969851
0.00096729
0.000963093
0.000956882
0.000948117
0.000936137
0.000920195
0.000899493
0.000873221
0.000840604
0.000800965
0.000753789
0.000698808
0.000636055
0.000565946
0.000489279
0.000407246
0.00032128
0.000233556
0.0016198
0.00161806
0.00161418
0.00160778
0.0015982
0.00158456
0.00156572
0.00154043
0.00150732
0.00146498
0.00141207
0.00134737
0.00126994
0.00117921
0.00107515
0.000958329
0.000830031
0.00069231
0.000547959
0.00040076
0.00227057
0.00226846
0.00226373
0.00225583
0.00224384
0.00222646
0.00220209
0.00216888
0.00212484
0.0020679
0.00199601
0.0019073
0.00180027
0.00167392
0.001528
0.00136319
0.00118121
0.000984982
0.000778505
0.000566703
0.00292372
0.00292154
0.0029166
0.00290821
0.00289512
0.00287562
0.00284756
0.00280849
0.00275566
0.00268624
0.00259732
0.00248622
0.00235065
0.00218899
0.0020006
0.00178609
0.00154752
0.00128864
0.00101472
0.00073251
0.00357929
0.00357743
0.00357313
0.00356552
0.00355307
0.00353357
0.00350429
0.00346207
0.00340336
0.00332435
0.00322113
0.00308994
0.00292743
0.0027311
0.00249958
0.00223319
0.00193415
0.00160706
0.00125867
0.000897986
0.00423686
0.00423581
0.00423318
0.00422797
0.0042183
0.00420146
0.0041741
0.00413225
0.00407142
0.00398668
0.00387285
0.00372481
0.00353778
0.00330793
0.00303277
0.00271194
0.00234757
0.00194504
0.0015128
0.0010626
0.00489546
0.00489579
0.00489607
0.00489519
0.00489089
0.00487999
0.0048584
0.00482133
0.00476319
0.00467777
0.00455829
0.00439793
0.00418994
0.00392867
0.0036098
0.0032318
0.00279617
0.00230897
0.00178049
0.00122595
0.00555343
0.00555581
0.00556044
0.00556612
0.00557028
0.00556917
0.00555804
0.00553117
0.00548177
0.00540216
0.00528362
0.0051172
0.00489351
0.00460439
0.00424269
0.00380493
0.00329107
0.00270755
0.00206655
0.00138773
0.00620834
0.00621352
0.00622411
0.00623891
0.00625501
0.00626821
0.00627305
0.00626294
0.00622976
0.0061642
0.00605525
0.00589136
0.00565962
0.00534852
0.00494654
0.00444724
0.00384727
0.00315299
0.00237797
0.00154763
0.00685688
0.00686567
0.006884
0.0069107
0.00694264
0.00697523
0.00700241
0.00701678
0.00700888
0.00696771
0.00687955
0.00672986
0.00650104
0.00617731
0.00574041
0.00517977
0.0044853
0.00366286
0.0027252
0.00170562
0.0074948
0.00750805
0.00753596
0.00757752
0.00762948
0.00768701
0.00774366
0.00779138
0.00781952
0.00781542
0.00776237
0.00764248
0.00743212
0.00711025
0.00664833
0.00603046
0.00523343
0.00426298
0.00312448
0.00186285
0.00811687
0.00813541
0.00817474
0.00823413
0.0083104
0.00839869
0.00849247
0.00858339
0.00865995
0.00870807
0.00870811
0.00863851
0.00846834
0.0081702
0.00770052
0.00703661
0.00613085
0.00499159
0.00360027
0.00202384
0.00871687
0.00874148
0.00879395
0.00887396
0.00897865
0.00910346
0.00924223
0.00938677
0.00952545
0.00964325
0.00971825
0.00972515
0.00962513
0.00938272
0.00893452
0.00824819
0.00723364
0.00590669
0.00418777
0.0021984
0.00928772
0.00931903
0.00938605
0.00948907
0.00962578
0.00979232
0.00998352
0.010192
0.0104071
0.0106137
0.0107892
0.0109048
0.0109152
0.0107737
0.010395
0.00973
0.00862554
0.00710278
0.00494454
0.00240316
0.00982161
0.00986002
0.00994255
0.0100702
0.0102416
0.010454
0.0107038
0.0109854
0.0112907
0.0116054
0.0119096
0.0121712
0.0123437
0.0123642
0.0121305
0.011558
0.0104269
0.00873566
0.00600368
0.00269555
0.0103102
0.0103559
0.0104542
0.0106071
0.0108144
0.0110748
0.0113873
0.0117488
0.0121553
0.0125956
0.0130562
0.0135041
0.0139005
0.0141622
0.014187
0.0138122
0.0127875
0.0110018
0.00766523
0.00338871
0.0107452
0.0107978
0.0109114
0.0110889
0.0113315
0.0116396
0.0120154
0.0124591
0.012973
0.0135507
0.0141902
0.0148623
0.0155481
0.0161474
0.0165882
0.0165804
0.0159007
0.0140562
0.0102558
0.00499085
0.0111184
0.0111772
0.0113047
0.0115047
0.0117796
0.0121319
0.0125672
0.0130898
0.013709
0.0144262
0.0152537
0.0161756
0.0172034
0.0182438
0.0192878
0.0199289
0.0200725
0.0182082
0.0140133
0.00550944
0.0114225
0.0114861
0.0116253
0.011844
0.0121459
0.0125354
0.0130214
0.0136124
0.0143244
0.015168
0.0161712
0.0173389
0.0187203
0.0202691
0.0220677
0.0237599
0.0254856
0.0246476
0.0213777
-0.00508061
4.08691e-05
2.50982e-05
1.31466e-05
2.75593e-06
-7.47417e-06
-1.75795e-05
-2.72388e-05
-3.61136e-05
-4.41093e-05
-5.00457e-05
0.00017417
0.00014138
0.00010882
7.67546e-05
4.54478e-05
1.51159e-05
-1.40376e-05
-4.17877e-05
-6.82102e-05
-9.25934e-05
0.00029811
0.000239863
0.000182659
0.000126821
7.25177e-05
1.99305e-05
-3.07264e-05
-7.92326e-05
-0.000125453
-0.000168901
0.00041754
0.000333384
0.000251369
0.00017141
9.34566e-05
1.77572e-05
-5.53056e-05
-0.000125433
-0.000192231
-0.000255673
0.000533341
0.000420999
0.000311457
0.000204574
0.000100294
-1.02089e-06
-9.88195e-05
-0.000192736
-0.000282061
-0.000367323
0.000642565
0.000498385
0.000357843
0.000220797
8.71717e-05
-4.25657e-05
-0.000167682
-0.000287735
-0.000401662
-0.000510607
0.000742418
0.000561643
0.000385649
0.000214257
4.7339e-05
-0.000114502
-0.000270302
-0.000419498
-0.000560663
-0.000695532
0.000829567
0.00060577
0.000388311
0.000176976
-2.84383e-05
-0.000227136
-0.000417849
-0.000599831
-0.000771319
-0.000934494
0.000899491
0.000623864
0.000356762
9.79746e-05
-0.000152787
-0.000394454
-0.000625355
-0.000844454
-0.00104973
-0.00124353
0.00094582
0.000606105
0.000278028
-3.84815e-05
-0.000343773
-0.000636374
-0.000914065
-0.00117538
-0.00141818
-0.00164453
0.000959312
0.000537997
0.000132838
-0.000255797
-0.000628217
-0.000982324
-0.00131515
-0.00162464
-0.0019087
-0.00216875
0.000926456
0.000397531
-0.000108377
-0.000589784
-0.00104684
-0.00147661
-0.00187515
-0.0022397
-0.00256837
-0.00286188
0.000827958
0.000150314
-0.000493376
-0.00109805
-0.00166379
-0.00218741
-0.00266424
-0.00309081
-0.00346564
-0.00378932
0.000635906
-0.000258858
-0.00110257
-0.00187854
-0.00258703
-0.00322713
-0.00379508
-0.00428744
-0.00470378
-0.00504584
0.000292799
-0.000931048
-0.00207002
-0.00308712
-0.00398687
-0.00477426
-0.00544721
-0.00600286
-0.00644366
-0.00677461
-0.00038871
-0.00214388
-0.00368311
-0.00499005
-0.00611396
-0.00707242
-0.00785633
-0.00845827
-0.00888524
-0.00914943
-0.0018416
-0.004643
-0.00675042
-0.00832706
-0.00961458
-0.0106818
-0.0115037
-0.0120618
-0.0123683
-0.0124516
-0.00424792
-0.00895143
-0.0120565
-0.0140595
-0.015504
-0.0165561
-0.0172271
-0.0175433
-0.017549
-0.0173034
-0.00795788
-0.0136391
-0.0172572
-0.0198647
-0.0216793
-0.0226618
-0.0229447
-0.0227631
-0.0223053
-0.0216933
-0.0385012
-0.0367596
-0.0323283
-0.0307968
-0.0304694
-0.0299766
-0.0291703
-0.0281865
-0.0271501
-0.0260505
-8.95965e-05
-0.000107068
-7.55698e-05
-7.43276e-05
-7.11253e-05
5.95246e-05
0.000267157
0.000466838
0.000720674
0.00105434
0.00133618
0.00137675
0.00118228
0.000917932
0.000693124
0.000521536
0.000389313
0.000278344
0.000181919
6.37861e-05
-0.00023869
-0.000293636
-0.00023178
-0.000212266
-0.000147775
0.000174756
0.000686626
0.00131249
0.00198924
0.00257907
0.00286344
0.00272307
0.00230636
0.00185535
0.00148339
0.00118313
0.000927546
0.000688056
0.00046024
0.000162073
-0.000396967
-0.000486699
-0.000393331
-0.000348629
-0.000235847
0.000264237
0.00108386
0.00211011
0.00314988
0.0039862
0.00435739
0.00412424
0.00349159
0.00281361
0.00225708
0.00180872
0.00142463
0.00105949
0.00070662
0.000246845
-0.000573992
-0.000691368
-0.000559651
-0.000494607
-0.00034676
0.000331476
0.00145836
0.00286219
0.00423081
0.00523798
0.00557728
0.00519534
0.00439863
0.00358233
0.00291026
0.00235603
0.00186788
0.00139236
0.000924895
0.000320998
-0.000779429
-0.000910804
-0.00073213
-0.000653041
-0.000485152
0.000366328
0.00180115
0.00357077
0.0052285
0.00633986
0.00660837
0.00608888
0.00516156
0.00423997
0.0034785
0.00283833
0.00226118
0.00168727
0.0011152
0.000384529
-0.0010238
-0.00114921
-0.000910523
-0.000826384
-0.000661581
0.000355568
0.00210632
0.00423393
0.00614378
0.00730074
0.00745851
0.00680339
0.00577778
0.00478914
0.00396817
0.0032622
0.00260967
0.00194784
0.00128031
0.000438476
-0.00131983
-0.00141063
-0.00109334
-0.00101832
-0.000888903
0.000286067
0.00236704
0.00484819
0.0069724
0.00812174
0.00814602
0.00736878
0.00627482
0.00524847
0.00439056
0.00363482
0.00291844
0.00217805
0.00142363
0.00048426
-0.00168254
-0.00169875
-0.00127784
-0.00123283
-0.00118169
0.000143497
0.00257434
0.00540584
0.00770575
0.00880336
0.00868512
0.00780423
0.00666994
0.00563109
0.00475503
0.0039628
0.00319233
0.00238166
0.00154834
0.000523188
-0.00212975
-0.00201664
-0.00145949
-0.00147391
-0.00155668
-8.78887e-05
0.00271591
0.00589389
0.00833137
0.00934436
0.00908826
0.00812732
0.00697938
0.00594934
0.00507026
0.00425231
0.00343591
0.00256221
0.00165727
0.000556387
-0.00268264
-0.0023663
-0.0016311
-0.00174496
-0.00203212
-0.000424831
0.00277532
0.00629325
0.00883333
0.00974323
0.00936641
0.00835325
0.0072172
0.00621415
0.00534418
0.00450907
0.00365343
0.00272294
0.00175291
0.000584817
-0.00336637
-0.00274818
-0.00178158
-0.00204578
-0.00262425
-0.000883444
0.00273168
0.0065791
0.0091939
0.00999911
0.00952941
0.00849542
0.00739586
0.00643532
0.00558396
0.00473831
0.00384879
0.00286679
0.00183747
0.000609282
-0.00421079
-0.00316087
-0.00189473
-0.00236767
-0.00333763
-0.00147334
0.00256163
0.00672341
0.00939632
0.0101124
0.00958616
0.00856588
0.00752651
0.00662159
0.00579611
0.00494481
0.00402556
0.00299641
0.00191285
0.000630478
-0.00525135
-0.00360165
-0.00194805
-0.0026874
-0.00415569
-0.00218824
0.00224667
0.00670055
0.00942815
0.0100854
0.00954503
0.00857568
0.00761917
0.00678085
0.00598653
0.00513292
0.00418694
0.00311417
0.00198068
0.000648995
-0.00653032
-0.00407104
-0.00191499
-0.00295928
-0.0050246
-0.00303492
0.00177829
0.00649461
0.0092371
0.00992184
0.00941428
0.00853512
0.00768297
0.00692019
0.00616052
0.00530653
0.00433582
0.00322216
0.00204239
0.000665333
-0.00809195
-0.00458233
-0.00178451
-0.00311489
-0.00583774
-0.00388492
0.00117905
0.00611274
0.00891952
0.0096299
0.0092028
0.00845401
0.00772627
0.00704607
0.00632289
0.00546913
0.00447474
0.0033222
0.00209918
0.000679908
-0.00995732
-0.00516604
-0.00159414
-0.00309787
-0.00645661
-0.00466283
0.000506291
0.00558339
0.00844429
0.00921745
0.00892043
0.00834182
0.0077568
0.00716434
0.00647792
0.00562378
0.00460594
0.00341589
0.00215206
0.000693059
-0.0121084
-0.00587279
-0.00145442
-0.00293364
-0.00675883
-0.00523417
-0.000145238
0.00495793
0.00783498
0.00869418
0.00857826
0.00820791
0.00778179
0.00728032
0.00662941
0.00577317
0.00473133
0.00350457
0.0022019
0.00070507
-0.0145006
-0.0067622
-0.00157987
-0.00274585
-0.00668997
-0.00547055
-0.000663615
0.00429813
0.00711678
0.00807316
0.00818892
0.00806168
0.00780809
0.00739883
0.00678062
0.00591958
0.00485249
0.00358943
0.00224933
0.000716221
-0.0162417
-0.00776293
-0.00218813
-0.00273315
-0.006261
-0.00527065
-0.000948796
0.00365884
0.00631224
0.00737236
0.00776709
0.00791324
0.00784242
0.00752422
0.00693435
0.00606489
0.00497073
0.00367141
0.0022949
0.000726719
-0.017841
-0.00875336
-0.00338125
-0.00296943
-0.00550858
-0.00458867
-0.000943644
0.00307414
0.00544227
0.00661427
0.00733051
0.00777437
0.00789173
0.00766052
0.00709308
0.00621052
0.00508726
0.00375082
0.00233962
0.000736022
-0.0173628
-0.00913274
-0.00446168
-0.00326803
-0.00477605
-0.00377967
-0.000735552
0.00271304
0.00480561
0.00606636
0.00702913
0.0076928
0.00794154
0.00776608
0.00720924
0.00631342
0.00516854
0.00380424
0.00237173
0.000740273
-0.0170037
-0.00935198
-0.00513142
-0.00346476
-0.00432152
-0.00325079
-0.000576166
0.00251214
0.00443702
0.00575204
0.00686013
0.00765039
0.00797359
0.00782866
0.0072766
0.00637252
0.00521468
0.00383489
0.00238937
0.000743498
-0.0166951
-0.0095786
-0.00583232
-0.0036729
-0.00383159
-0.00266118
-0.000381056
0.0023156
0.00406578
0.0054394
0.00669607
0.00761318
0.00800974
0.00789376
0.00734508
0.00643196
0.00526058
0.00386558
0.00240643
0.000747384
-0.0164233
-0.00979671
-0.00654502
-0.00387869
-0.00330889
-0.0020188
-0.000154956
0.00212446
0.00369376
0.00513082
0.00653831
0.00758194
0.00805035
0.00796153
0.00741478
0.00649174
0.00530634
0.00389614
0.00242323
0.000751463
-0.016189
-0.00999921
-0.00725287
-0.00407045
-0.00275841
-0.00133473
9.54376e-05
0.0019378
0.0033231
0.00482868
0.00638832
0.00755734
0.00809565
0.00803204
0.00748573
0.00655188
0.00535197
0.00392654
0.00243984
0.000755681
-0.0159991
-0.0101877
-0.00793583
-0.00423682
-0.00218621
-0.000621959
0.000362087
0.001754
0.00295634
0.00453552
0.00624765
0.00754004
0.00814585
0.00810534
0.00755792
0.00661236
0.00539745
0.00395681
0.00245622
0.00076008
-0.0158587
-0.0103617
-0.00857538
-0.00436732
-0.0015992
0.000105209
0.000636625
0.00157174
0.00259623
0.00425404
0.00611792
0.0075307
0.00820114
0.00818144
0.00763133
0.00667316
0.00544279
0.00398693
0.00247238
0.00076466
-0.0157734
-0.0105164
-0.00915007
-0.00445325
-0.00100488
0.000831631
0.000910803
0.00139029
0.00224587
0.00398702
0.00600081
0.00753
0.00826165
0.00826033
0.00770593
0.00673425
0.00548797
0.00401686
0.00248836
0.000769373
-0.0157521
-0.0106511
-0.009647
-0.00448765
-0.000409594
0.00154249
0.00117665
0.00120913
0.0019083
0.00373658
0.00589724
0.00753819
0.00832747
0.008342
0.00778167
0.00679561
0.00553296
0.00404665
0.00250408
0.000774343
-0.0157794
-0.0107968
-0.0100631
-0.00446543
0.000182667
0.00222534
0.00142566
0.00102533
0.00158478
0.00350232
0.00580609
0.00755441
0.00839838
0.00842647
0.00785852
0.00685734
0.00557764
0.00407668
0.002519
0.00078035
-0.0152278
-0.0112682
-0.0108023
-0.00429941
0.0014414
0.00362538
0.00190944
0.000611966
0.000912404
0.00302924
0.00563533
0.00760692
0.0085632
0.00861571
0.00802768
0.00699221
0.00567391
0.00414269
0.00254937
0.000796139
-0.0131495
-0.0106195
-0.010434
-0.0035502
0.00296473
0.00513132
0.00231899
4.02934e-05
0.000158895
0.00259502
0.00558142
0.00780952
0.00887637
0.00893256
0.00829641
0.00719864
0.00581935
0.00423795
0.0025986
0.000813347
-0.0110975
-0.00971141
-0.00907145
-0.00261232
0.00377419
0.00564514
0.00232579
-0.000423152
-0.000348951
0.00247855
0.00573594
0.0081196
0.00923523
0.00926507
0.0085667
0.00740033
0.00595866
0.00432763
0.00264591
0.000829352
-0.00842624
-0.00799308
-0.00718204
-0.00184722
0.0038463
0.00536513
0.00206706
-0.000632744
-0.000334662
0.00269192
0.00607726
0.00851169
0.00961964
0.00959912
0.00882924
0.00759146
0.00608827
0.00441028
0.00268996
0.000844394
-0.00639419
-0.00641804
-0.00562401
-0.00134122
0.00341143
0.00469304
0.00179944
-0.000513828
7.77349e-05
0.00317243
0.0065467
0.00894348
0.0100025
0.00991746
0.00907303
0.0077654
0.0062045
0.00448325
0.00272936
0.000858154
-0.00468742
-0.00502387
-0.00431755
-0.000987067
0.00283281
0.0039502
0.00165581
-8.73682e-05
0.000785011
0.00380215
0.00706177
0.00936416
0.0103537
0.0102013
0.00928675
0.00791475
0.00630153
0.00454358
0.00276265
0.000870325
-0.00335997
-0.00387468
-0.00330203
-0.000743839
0.00228195
0.00329026
0.00165351
0.000498603
0.00155031
0.00444672
0.00753865
0.009725
0.0106438
0.010433
0.00945829
0.00803106
0.00637431
0.00458776
0.00278787
0.000880469
-0.00235364
-0.00296028
-0.002528
-0.000555109
0.00183001
0.00276453
0.00171524
0.00108108
0.00226709
0.00500912
0.00791436
0.00998868
0.0108499
0.0105957
0.00957585
0.00810581
0.00641656
0.00461169
0.00280275
0.000887985
-0.00159813
-0.00223644
-0.00192888
-0.000402191
0.00148754
0.00235552
0.00177446
0.00156104
0.00284008
0.00541545
0.00815
0.0101293
0.0109527
0.0106758
0.00962769
0.0081296
0.00642137
0.00461072
0.00280462
0.000892081
-0.00103824
-0.00166651
-0.00146192
-0.000277096
0.00123133
0.00203133
0.00180012
0.00190409
0.00323469
0.00564992
0.00822938
0.0101336
0.0109403
0.0106599
0.00960178
0.00809259
0.00638112
0.0045795
0.00279032
0.000891745
-0.000630151
-0.00122192
-0.00109766
-0.000177141
0.00103601
0.00176652
0.00178115
0.00210765
0.00345199
0.00571529
0.00815424
0.00999727
0.0108021
0.0105356
0.00948608
0.00798418
0.00628725
0.00451181
0.00275608
0.000885702
-0.000339826
-0.000879252
-0.000814424
-9.94765e-05
0.000881638
0.00154162
0.00171836
0.00218854
0.00351231
0.00562638
0.00793134
0.00971857
0.0105294
0.0102908
0.00926772
0.00779261
0.00613007
0.00440048
0.00269736
0.000872345
-0.000140671
-0.000619041
-0.000595643
-4.14418e-05
0.000753411
0.0013422
0.00161663
0.00216666
0.00343857
0.00539976
0.00756855
0.00929626
0.0101133
0.00991184
0.00893205
0.00750453
0.00589849
0.00423712
0.00260865
0.000849666
-1.18025e-05
-0.000425091
-0.000428408
-7.87436e-07
0.000640908
0.00115766
0.00148029
0.00205852
0.00325031
0.00504961
0.00707135
0.00872621
0.00954279
0.00938374
0.00846276
0.00710474
0.0055798
0.00401194
0.00248325
0.000815157
6.32423e-05
-0.00028383
-0.000302336
2.46237e-05
0.000537112
0.000980291
0.00131289
0.0018776
0.00296263
0.00458524
0.0064425
0.0080015
0.00879921
0.00868188
0.00783695
0.00657453
0.0051591
0.0037135
0.002313
0.000765699
9.75581e-05
-0.000183765
-0.00020872
3.69805e-05
0.000437511
0.000805072
0.00111764
0.00163446
0.00258821
0.00401315
0.00567471
0.00710795
0.00787282
0.00779638
0.00703865
0.00589545
0.0046199
0.00332861
0.00208794
0.000697429
0.000101785
-0.000115032
-0.000140011
3.87068e-05
0.000339479
0.00062907
0.000898661
0.00133822
0.00213353
0.00333677
0.00476878
0.00602165
0.00669821
0.00665053
0.00601166
0.00503306
0.0039405
0.00284175
0.00179601
0.000605564
8.44068e-05
-6.90906e-05
-8.96076e-05
3.21424e-05
0.000241827
0.000451132
0.00065963
0.00099921
0.00160954
0.00254635
0.00369445
0.00474267
0.00533918
0.0053215
0.00479446
0.00398908
0.00310682
0.00223692
0.00142301
0.000484444
5.36203e-05
-3.8205e-05
-5.10852e-05
1.97901e-05
0.000143156
0.000271007
0.00040518
0.000622814
0.00102465
0.00166197
0.00243037
0.00309523
0.00345474
0.00344532
0.00313251
0.00263304
0.00206313
0.00149021
0.000955357
0.000329053
1.43398e-05
-1.55617e-05
-1.86553e-05
5.96658e-06
4.49663e-05
8.70267e-05
0.000137963
0.000217798
0.000368316
0.000654929
0.00106601
0.00145764
0.00168225
0.00168736
0.00150791
0.00122295
0.00091664
0.000635387
0.000397015
0.000135927
-0.031171
-0.0299211
-0.0246505
-0.0219508
-0.0211751
-0.0209109
-0.0207085
-0.0205291
-0.0203755
-0.0201185
0.00342671
-0.00058645
-0.00369171
-0.00638661
-0.00880794
-0.0108164
-0.012306
-0.0132811
-0.0138003
-0.013964
0.000352319
-0.00261872
-0.00471933
-0.006183
-0.00735078
-0.00834403
-0.00915558
-0.00976963
-0.0101949
-0.0104582
0.00245523
0.00103922
-0.000221855
-0.00133967
-0.00236477
-0.00331182
-0.00416624
-0.00491203
-0.00554359
-0.00606981
0.0027646
0.00175191
0.000768124
-0.000149745
-0.00099832
-0.00177967
-0.00249161
-0.00313122
-0.00369591
-0.00419202
0.00269567
0.00197129
0.00127778
0.000622192
7.97391e-07
-0.000587202
-0.00113946
-0.00165358
-0.00212776
-0.00256399
0.00260557
0.00207752
0.00156549
0.00106972
0.000588467
0.000123528
-0.000321531
-0.000743569
-0.00114058
-0.00151087
0.00247956
0.00207462
0.0016773
0.00128874
0.000908869
0.000539425
0.000182933
-0.000158264
-0.000482964
-0.000788665
0.00232352
0.00200479
0.00169132
0.00138376
0.00108196
0.000786966
0.000500458
0.000224136
-4.11784e-05
-0.000293077
0.00215085
0.00189651
0.00164615
0.00139988
0.00115748
0.000919688
0.000687745
0.000462941
0.000245937
3.86356e-05
0.0019678
0.00176292
0.00156101
0.00136208
0.00116595
0.000973199
0.000784737
0.000601512
0.000424066
0.000253737
0.00177684
0.00161094
0.00144731
0.00128597
0.00112679
0.000970214
0.000816906
0.000667558
0.000522626
0.000383005
0.00157936
0.00144496
0.00131237
0.00118158
0.00105253
0.000925524
0.000801075
0.000679688
0.000561744
0.000447834
0.00137649
0.00126817
0.0011613
0.00105589
0.000951876
0.000849504
0.000749148
0.00065119
0.000555935
0.000463779
0.00116926
0.00108301
0.000997934
0.000914021
0.000831238
0.000749767
0.000669892
0.000591893
0.00051601
0.000442513
0.000958597
0.000891464
0.000825273
0.000759993
0.000695596
0.000632221
0.000570083
0.000509392
0.000450329
0.00039309
0.000745428
0.000695166
0.000645699
0.000596969
0.000548925
0.000501658
0.000455315
0.000410045
0.000365969
0.000323226
0.000531346
0.00049636
0.00046173
0.000427603
0.000394036
0.000361084
0.000328827
0.000297354
0.000266755
0.000237153
0.000316907
0.000297552
0.000277902
0.000258226
0.000238772
0.00021964
0.000200876
0.000182521
0.00016458
0.000147095
9.38426e-05
8.44181e-05
7.72684e-05
7.10981e-05
6.49778e-05
5.88053e-05
5.2752e-05
4.69608e-05
4.15351e-05
3.66034e-05
0.0117459
0.0118101
0.011949
0.0121671
0.0124682
0.0128569
0.0133415
0.0139307
0.0146391
0.0154776
0.0164699
0.0176199
0.0189619
0.0204428
0.0220882
0.0235076
0.0246266
0.0228332
0.0176377
-0.00594573
0.0114857
0.0115426
0.0116651
0.0118565
0.0121192
0.0124551
0.012868
0.0133611
0.0139397
0.0146028
0.0153534
0.0161724
0.0170491
0.0179008
0.0186717
0.0190961
0.0190267
0.0179635
0.0154911
0.0114463
0.0111063
0.0111541
0.0112564
0.0114156
0.011632
0.0119052
0.0122348
0.012619
0.0130551
0.0135345
0.0140457
0.0145613
0.0150474
0.0154327
0.015632
0.0154995
0.0148348
0.0134183
0.0104262
0.00594314
0.0106268
0.0106647
0.0107457
0.0108706
0.0110386
0.0112471
0.0114927
0.0117701
0.0120717
0.0123849
0.012691
0.0129622
0.0131576
0.0132224
0.0130711
0.0126178
0.0116851
0.0102043
0.00786964
0.0049948
0.0100679
0.0100961
0.0101561
0.010248
0.0103697
0.0105174
0.0106859
0.0108682
0.0110541
0.0112298
0.0113754
0.0114655
0.0114628
0.0113266
0.0109936
0.0104164
0.00950037
0.00823601
0.00652225
0.0044658
0.0094495
0.00946891
0.0095099
0.009572
0.00965252
0.0097471
0.00984982
0.00995297
0.0100461
0.010116
0.0101446
0.0101106
0.00998535
0.00974061
0.00933649
0.00874472
0.00791951
0.00685433
0.00551848
0.00394915
0.00879005
0.00880188
0.00882662
0.00886341
0.0089094
0.00896021
0.00900992
0.00905115
0.00907429
0.00906772
0.00901663
0.00890456
0.00871124
0.00841677
0.00799671
0.00743304
0.00670433
0.00580706
0.00473949
0.00352948
0.00810533
0.00811098
0.00812256
0.00813898
0.00815754
0.00817416
0.00818347
0.00817889
0.00815223
0.00809392
0.00799258
0.00783585
0.00760953
0.00729985
0.00689215
0.00637576
0.00574188
0.00499144
0.00413207
0.00318591
0.00740822
0.00740911
0.00741057
0.00741145
0.00740936
0.00740073
0.00738098
0.00734453
0.00728478
0.00719418
0.00706419
0.0068857
0.00664898
0.00634491
0.00596504
0.0055038
0.00495853
0.00433248
0.00363427
0.00287993
0.00670869
0.00670612
0.00670025
0.00668998
0.00667328
0.0066472
0.00660797
0.00655108
0.00647137
0.00636306
0.00621984
0.00603521
0.00580268
0.00551648
0.00517195
0.0047666
0.00430051
0.00377756
0.00320535
0.00259584
0.00601401
0.00600912
0.00599834
0.00598069
0.00595451
0.00591744
0.0058665
0.00579817
0.00570848
0.00559312
0.00544754
0.00526724
0.00504799
0.00478631
0.00447976
0.00412762
0.00373109
0.00329406
0.00282289
0.00232678
0.00532911
0.00532283
0.00530917
0.00528724
0.00525575
0.00521288
0.00515634
0.00508343
0.00499117
0.00487643
0.00473599
0.00456684
0.00436628
0.00413232
0.00386385
0.00356108
0.00322569
0.00286121
0.0024729
0.00206783
0.00465693
0.00465003
0.0046351
0.00461138
0.00457789
0.00453327
0.00447578
0.00440341
0.00431398
0.00420526
0.00407504
0.00392133
0.0037425
0.00353749
0.00330597
0.00304863
0.00276723
0.00246486
0.00214574
0.00181534
0.00399883
0.00399191
0.00397699
0.00395342
0.00392048
0.00387717
0.00382221
0.00375415
0.00367141
0.00357245
0.00345579
0.00332015
0.00316461
0.00298867
0.00279247
0.00257686
0.00234351
0.00209501
0.00183474
0.00156689
0.00335494
0.00334846
0.00333451
0.00331257
0.0032821
0.00324238
0.00319252
0.00313147
0.00305815
0.00297149
0.00287053
0.0027545
0.00262291
0.00247561
0.00231296
0.00213582
0.00194567
0.00174462
0.00153532
0.001321
0.00272443
0.00271873
0.00270648
0.00268725
0.00266065
0.00262621
0.0025833
0.0025312
0.00246917
0.00239651
0.00231261
0.00221703
0.00210954
0.00199021
0.00185944
0.00171803
0.0015672
0.00140864
0.00124438
0.00107682
0.00210574
0.00210106
0.00209102
0.00207529
0.0020536
0.00202564
0.001991
0.0019492
0.00189975
0.00184221
0.00177621
0.00170152
0.00161806
0.00152597
0.00142564
0.00131774
0.00120323
0.00108341
0.000959781
0.000834045
0.00149677
0.00149328
0.00148581
0.00147413
0.00145808
0.00143746
0.00141201
0.00138143
0.00134544
0.00130375
0.00125616
0.00120257
0.00114298
0.00107752
0.00100652
0.000930462
0.00085003
0.000766128
0.000679879
0.0005926
0.000895046
0.000892876
0.000888221
0.000880964
0.000871024
0.000858298
0.000842644
0.0008239
0.000801905
0.000776521
0.00074765
0.000715246
0.000679338
0.000640034
0.00059754
0.000552165
0.000504305
0.000454417
0.00040307
0.000351429
0.000297819
0.000297049
0.000295405
0.000292856
0.000289381
0.000284948
0.000279512
0.000273021
0.000265423
0.000256676
0.000246752
0.00023564
0.000223352
0.000209931
0.000195451
0.000180036
0.000163856
0.000147146
0.000129904
0.000110991
0.0115839
0.0116489
0.0117941
0.0120225
0.0123381
0.0127465
0.0132591
0.0138855
0.0146476
0.0155587
0.0166614
0.0179673
0.0195658
0.0214344
0.0237732
0.0263553
0.0296949
0.0323994
0.0368897
0.0283939
0.0116633
0.011729
0.0118771
0.01211
0.012432
0.0128493
0.0133743
0.0140176
0.0148034
0.0157469
0.016897
0.0182712
0.0199747
0.022008
0.0246131
0.027668
0.0317626
0.0360487
0.041798
0.0413583
0.0117297
0.0117961
0.0119463
0.0121826
0.0125096
0.0129337
0.0134683
0.0141247
0.0149286
0.0158976
0.0170842
0.0185129
0.0202984
0.0224664
0.0252812
0.0287213
0.0333735
0.0387693
0.0454013
0.0491392
0.0117831
0.01185
0.0120017
0.0122404
0.0125707
0.0129997
0.0135408
0.0142063
0.0150227
0.0160094
0.0172213
0.0186881
0.0205309
0.0227943
0.0257573
0.029469
0.0345035
0.0406321
0.0478908
0.0536982
0.0118235
0.0118907
0.0120432
0.0122831
0.0126153
0.0130467
0.0135914
0.0142617
0.0150848
0.0160809
0.0173062
0.0187931
0.0206662
0.0229805
0.0260229
0.0298816
0.035124
0.0416447
0.04924
0.0559817
0.0118507
0.011918
0.0120706
0.0123107
0.012643
0.0130748
0.0136199
0.0142907
0.0151145
0.0161114
0.0173377
0.0188261
0.020701
0.0230185
0.0260673
0.0299421
0.0352137
0.0418006
0.0494621
0.0563731
0.0118648
0.0119319
0.0120839
0.012323
0.012654
0.0130838
0.0136262
0.0142932
0.0151116
0.0161008
0.0173159
0.0187866
0.0206347
0.0229077
0.0258891
0.0296475
0.0347683
0.0410949
0.0485531
0.0549227
0.0118658
0.0119325
0.0120832
0.0123203
0.0126483
0.0130739
0.0136105
0.0142696
0.0150768
0.0160501
0.0172418
0.0186771
0.020471
0.0226536
0.0254963
0.0290089
0.0338019
0.0395316
0.0464967
0.0513746
0.0118538
0.01192
0.0120687
0.0123026
0.0126261
0.0130455
0.0135733
0.0142203
0.0150108
0.0159603
0.0171176
0.0185008
0.0202152
0.022266
0.0249029
0.0280454
0.0323267
0.0370993
0.0433386
0.0450733
0.0118287
0.0118943
0.0120404
0.01227
0.0125875
0.0129985
0.0135146
0.0141458
0.0149139
0.0158326
0.0169445
0.0182617
0.0198722
0.0217579
0.0241206
0.0267762
0.0302881
0.0335736
0.0388957
0.0345149
)
;

boundaryField
{
    inlet
    {
        type            zeroGradient;
    }
    outlet
    {
        type            fixedValue;
        value           uniform 0;
    }
    upAndBottom
    {
        type            empty;
    }
    obstacle
    {
        type            zeroGradient;
    }
}


// ************************************************************************* //
