/*--------------------------------*- C++ -*----------------------------------*\
| =========                 |                                                 |
| \\      /  F ield         | OpenFOAM: The Open Source CFD Toolbox           |
|  \\    /   O peration     | Version:  v1806                                 |
|   \\  /    A nd           | Web:      www.OpenFOAM.com                      |
|    \\/     M anipulation  |                                                 |
\*---------------------------------------------------------------------------*/
FoamFile
{
    version     2.0;
    format      ascii;
    class       surfaceScalarField;
    location    "8";
    object      phi;
}
// * * * * * * * * * * * * * * * * * * * * * * * * * * * * * * * * * * * * * //

dimensions      [0 3 -1 0 0 0 0];
oriented        oriented;


internalField   nonuniform List<scalar> 
68400
(
0.0530109
0.0010768
0.00591232
0.0452181
0.00144031
0.00635242
0.0385696
0.00131186
0.00533667
0.0329089
0.00112617
0.00453457
0.0285205
0.000888999
0.00349936
0.0254129
0.000650295
0.00245729
0.0233223
0.000461277
0.00162935
0.02192
0.00032367
0.00107863
0.0209622
0.000215965
0.000741881
0.0203166
0.000115045
0.000530555
0.0198959
1.41767e-05
0.000406464
0.0196487
-8.16172e-05
0.000328883
0.0195324
-0.000173468
0.000289718
0.0195231
-0.000257879
0.000267153
0.019591
-0.000324218
0.000256335
0.0197174
-0.000371255
0.000244841
0.0198742
-0.000391008
0.000234209
0.0200439
-0.000384713
0.000215068
0.0201969
-0.00034546
0.000192386
-0.000279827
0.000160876
0.0203159
0.0544895
0.000634208
0.00595305
0.0483415
0.00104838
0.00653994
0.0432019
0.00103562
0.00541585
0.0386692
0.000911116
0.00474779
0.03492
0.000720578
0.00391762
0.0320589
0.000491446
0.0030199
0.0300194
0.000271956
0.00222885
0.0286321
7.70315e-05
0.00163397
0.0277222
-9.90023e-05
0.00122488
0.0271702
-0.000270953
0.000938004
0.0268764
-0.000432025
0.000739922
0.0267836
-0.000592864
0.000604084
0.0268334
-0.000737977
0.000514668
0.0269935
-0.000870773
0.000452792
0.0272304
-0.000969886
0.000408797
0.0275255
-0.00103726
0.000370908
0.0278497
-0.00105447
0.000339269
0.0281853
-0.0010285
0.000308143
0.0285039
-0.000939656
0.000275651
-0.000802933
0.000239817
0.0287872
0.0543304
0.0003572
0.00594666
0.0481704
0.000671366
0.006537
0.0431459
0.000699094
0.00536104
0.0387994
0.000597737
0.00465988
0.0352439
0.000428703
0.00384735
0.0325445
0.000210641
0.00298021
0.0306292
-2.1206e-05
0.00220846
0.02934
-0.000250764
0.00161699
0.0285118
-0.000473642
0.0012028
0.0280332
-0.000698362
0.000906004
0.0278149
-0.000909922
0.000696252
0.0277997
-0.0011196
0.000541963
0.0279288
-0.00130424
0.000437074
0.0281712
-0.00147395
0.000360784
0.0284918
-0.00159548
0.000305065
0.0288692
-0.00167716
0.000262508
0.0292773
-0.00168918
0.000226531
0.0296986
-0.00164284
0.000193111
0.0301047
-0.00150776
0.000162009
-0.00130456
0.000131189
0.0304751
0.054207
0.000197334
0.00595289
0.0479156
0.000388919
0.00657382
0.0428192
0.000400486
0.00539501
0.0384543
0.000295601
0.00466705
0.034913
0.000125743
0.0038442
0.0322502
-0.000101341
0.00297479
0.0303744
-0.000343407
0.002198
0.0291305
-0.000611313
0.00160448
0.0283405
-0.000869915
0.00118631
0.0278982
-0.00114229
0.000886207
0.0277143
-0.00139701
0.000670924
0.0277353
-0.00165195
0.00051138
0.0279049
-0.00187356
0.000399703
0.0281941
-0.00208011
0.000317035
0.0285664
-0.00222379
0.00025592
0.0290007
-0.00232099
0.000209602
0.0294714
-0.00232991
0.00016999
0.0299584
-0.00226341
0.000133595
0.0304313
-0.00208274
0.000102032
-0.00181114
7.07033e-05
0.0308672
0.0541302
0.000108011
0.00595908
0.0477524
0.000173707
0.00659302
0.0425942
0.000144751
0.00541398
0.0382001
1.83795e-05
0.00467131
0.0346489
-0.000157174
0.00383413
0.0319957
-0.000402666
0.00295448
0.0301345
-0.00065336
0.00217116
0.0289111
-0.000958054
0.00157021
0.028138
-0.00124382
0.00114701
0.0277141
-0.0015679
0.000849452
0.0275474
-0.00186416
0.000633887
0.0275889
-0.0021718
0.000478302
0.027784
-0.00243579
0.000367138
0.0281091
-0.00268969
0.000284542
0.0285246
-0.00286228
0.000222991
0.0290122
-0.00298624
0.00017765
0.0295448
-0.00299961
0.000137042
0.0300993
-0.00291885
0.00010092
0.0306432
-0.00269617
6.95794e-05
-0.00235267
3.87708e-05
0.031146
0.054084
5.5959e-05
0.00596803
0.0476612
-6.6551e-06
0.00660315
0.0424501
-7.56252e-05
0.00543148
0.0380116
-0.000234655
0.00469156
0.0344227
-0.000426171
0.00385792
0.0317545
-0.000706783
0.00297232
0.0298765
-0.000965549
0.00219015
0.0286564
-0.00132187
0.00158391
0.0278796
-0.00162423
0.00115728
0.0274681
-0.00201624
0.000859825
0.0273113
-0.00234526
0.000637845
0.0273731
-0.00272133
0.0004878
0.027593
-0.00302837
0.000372688
0.0279586
-0.00334648
0.000291177
0.0284211
-0.00355265
0.000227851
0.0289727
-0.0037218
0.000183978
0.0295787
-0.00374644
0.000140772
0.0302162
-0.00366121
0.000104875
0.0308498
-0.00340101
7.13e-05
-0.00297874
3.72844e-05
0.0314386
0.0540405
3.10722e-05
0.00598437
0.0475972
-0.00016561
0.00660223
0.0423354
-0.000256198
0.00544239
0.0378628
-0.000472185
0.00471016
0.0342333
-0.000668516
0.0038718
0.0315525
-0.00100263
0.00297668
0.0296458
-0.00125496
0.00219609
0.0284303
-0.00168827
0.00158194
0.027632
-0.00198271
0.00115682
0.0272369
-0.0024797
0.000858493
0.0270776
-0.00281337
0.000627487
0.0271636
-0.00329773
0.000490328
0.0274035
-0.00363195
0.000363736
0.0278166
-0.00405144
0.000291794
0.0283268
-0.00428569
0.000222909
0.0289571
-0.00453791
0.000185714
0.0296463
-0.00457395
0.000138307
0.0303871
-0.00450891
0.000106894
0.0311352
-0.00421854
6.94812e-05
-0.00370656
3.33096e-05
0.0318297
0.0539933
2.51453e-05
0.00601261
0.0475595
-0.00031303
0.00658126
0.042241
-0.00039158
0.00545384
0.0377462
-0.000698383
0.00472101
0.0340592
-0.000871707
0.00389018
0.0313716
-0.00129267
0.00297766
0.0294144
-0.00150665
0.00220891
0.0282101
-0.00206285
0.00157886
0.0273629
-0.00230162
0.00116611
0.0269978
-0.00297425
0.00085966
0.0268112
-0.00324564
0.000618883
0.0269336
-0.00392475
0.000504591
0.0271781
-0.00422807
0.000351606
0.0276503
-0.00483147
0.00030781
0.0282016
-0.00505496
0.000217989
0.028933
-0.00547065
0.000201383
0.0297082
-0.00548992
0.000140706
0.0305835
-0.00550727
0.000123114
0.0314761
-0.0051863
7.51442e-05
-0.00457086
3.78434e-05
0.0323026
0.0539385
3.14143e-05
0.00605523
0.0475447
-0.000452361
0.00653317
0.0421543
-0.000476561
0.00547533
0.0376525
-0.000915991
0.00471937
0.0338863
-0.0010217
0.00391624
0.0312066
-0.00157831
0.00296535
0.0291754
-0.00170382
0.00222839
0.0280003
-0.00244802
0.00156025
0.0270668
-0.002551
0.00118284
0.0267604
-0.00351106
0.000843213
0.0265038
-0.0035956
0.000606639
0.0266916
-0.00462672
0.000514146
0.0269087
-0.00476543
0.000320256
0.0274635
-0.00571733
0.000331018
0.0280377
-0.00581791
0.000188806
0.0289047
-0.00656524
0.000227541
0.0297494
-0.00645962
0.000124999
0.0308142
-0.00672575
0.000153671
0.031879
-0.00632465
7.35941e-05
-0.00560676
4.82187e-05
0.0328667
0.0538792
4.34057e-05
0.00610876
0.047553
-0.000580746
0.00645466
0.0420682
-0.000509815
0.00551802
0.0375758
-0.0011231
0.00469948
0.0337108
-0.00110667
0.00395004
0.0310514
-0.00185434
0.00293535
0.0289239
-0.00183064
0.00225436
0.0277914
-0.00283609
0.00152056
0.0267343
-0.00270492
0.00121106
0.0265143
-0.00408953
0.000798398
0.026135
-0.00381759
0.000601367
0.026423
-0.00542234
0.000507538
0.026564
-0.00518358
0.000277208
0.0272311
-0.00674444
0.000360051
0.0277964
-0.00651249
0.000129277
0.0288422
-0.00789495
0.000283876
0.0297148
-0.00740726
7.50602e-05
0.0310558
-0.00830467
0.000237881
0.0322903
-0.00762827
6.91827e-05
-0.00690138
9.9359e-05
0.0334855
0.0538231
5.72601e-05
0.00616301
0.0475806
-0.000694315
0.00635615
0.0419816
-0.000491772
0.00558091
0.0375068
-0.0013143
0.00466602
0.0335336
-0.00111912
0.00398565
0.0308937
-0.00211558
0.00290112
0.0286567
-0.00187081
0.00227723
0.0275687
-0.00321856
0.00147042
0.0263592
-0.00274061
0.00124514
0.0262424
-0.00469892
0.000726224
0.0256903
-0.00387699
0.000611548
0.0261041
-0.00630901
0.000472872
0.0261181
-0.00543454
0.000236883
0.0269192
-0.00792919
0.000383678
0.0274428
-0.00708037
4.43081e-05
0.0287115
-0.00954734
0.000383623
0.0295645
-0.00822839
-3.17906e-05
0.0312892
-0.0104649
0.000435496
0.0326316
-0.00902646
5.57398e-05
-0.00868514
0.000265569
0.0341498
0.0537813
6.92144e-05
0.00620672
0.0476178
-0.000787555
0.00625675
0.0418967
-0.000427579
0.00565692
0.0374363
-0.00148826
0.00463436
0.033356
-0.00105109
0.00401229
0.0307249
-0.00237242
0.00288789
0.0283784
-0.00179766
0.00227335
0.0273267
-0.00360787
0.001441
0.0259545
-0.00263312
0.00126471
0.0259397
-0.0053368
0.000652706
0.0251844
-0.00375447
0.000632778
0.0257367
-0.00728404
0.000422689
0.0255879
-0.00547653
0.000190839
0.0265371
-0.00929323
0.000414858
0.0269981
-0.00745288
-8.85407e-05
0.0285235
-0.011623
0.000550248
0.029329
-0.00881854
-0.000215324
0.0315349
-0.0134925
0.00082167
0.0329573
-0.0104395
-9.24654e-06
-0.0113669
0.000710775
0.0349282
0.0537697
6.26491e-05
0.00623685
0.0476525
-0.00084382
0.00617345
0.0418231
-0.000345379
0.00574719
0.0373641
-0.00163832
0.00460913
0.0331866
-0.000911085
0.00403746
0.0305527
-0.00264473
0.00290625
0.0281129
-0.00159967
0.00224178
0.0270865
-0.00403412
0.00145265
0.0255725
-0.0023884
0.00126931
0.0256489
-0.00601651
0.000603297
0.0247041
-0.0034683
0.000658586
0.0254119
-0.00837989
0.000388079
0.025082
-0.00523896
9.22951e-05
0.0262347
-0.0109609
0.000514916
0.0265883
-0.00739973
-0.000406667
0.0284162
-0.0142691
0.000818173
0.0291283
-0.00893987
-0.000590833
0.0318868
-0.0177159
0.00146493
0.0333557
-0.0116863
-0.000222137
-0.0155114
0.00168962
0.0358106
0.0538072
2.79527e-06
0.00625262
0.0476672
-0.000822974
0.00611916
0.0417846
-0.000315735
0.00585296
0.0372945
-0.00171488
0.00456672
0.0330485
-0.000797867
0.00413275
0.0303917
-0.00289925
0.00291129
0.0278914
-0.00137773
0.00227836
0.0268628
-0.00446385
0.00145832
0.0252731
-0.0021451
0.00134648
0.0253989
-0.00667066
0.000528334
0.024348
-0.0032177
0.000800309
0.0252221
-0.00953517
0.000281089
0.0247338
-0.0048071
5.64782e-05
0.0262212
-0.0130484
0.000600132
0.0263562
-0.00660326
-0.00093152
0.0286699
-0.0176847
0.00110197
0.0290469
-0.00791773
-0.00139915
0.0325129
-0.0233789
0.00219705
0.0336977
-0.011927
-0.000944158
-0.0220324
0.00382322
0.0363955
0.0539042
-0.000141226
0.00623979
0.0476451
-0.000674915
0.00611107
0.0417963
-0.000424715
0.00595777
0.0372201
-0.00160513
0.00446651
0.0329601
-0.000887585
0.00434967
0.0302136
-0.00293183
0.00277908
0.0276948
-0.00141629
0.00255737
0.0265575
-0.00462181
0.00129528
0.0249837
-0.00227263
0.0017013
0.0249912
-0.00689102
0.000212911
0.0239788
-0.00356788
0.0013626
0.0248376
-0.0101151
-0.000278891
0.0243136
-0.00499095
0.000707825
0.0261386
-0.0148809
7.48356e-06
0.0260578
-0.00582787
-0.000694585
0.0292458
-0.0216856
0.000812957
0.029016
-0.00531883
-0.00236912
0.0337129
-0.0304606
0.00238486
0.033513
-0.00907116
-0.00265595
-0.033655
0.0079948
0.0371408
0.0540421
-0.000348648
0.00616533
0.0475722
-0.000407397
0.00620239
0.0418389
-0.000662135
0.00597073
0.0371119
-0.00125616
0.004378
0.0328892
-0.00123297
0.00456809
0.0299442
-0.00251029
0.00252346
0.0274494
-0.00191015
0.00298866
0.0260083
-0.00406344
0.000882684
0.0245015
-0.00306479
0.00229898
0.0241115
-0.00607318
-0.000427828
0.0232111
-0.00489457
0.00222714
0.0235704
-0.00916978
-0.00130464
0.0231658
-0.00690275
0.00231641
0.0245324
-0.0145848
-0.00166268
0.0246904
-0.00818973
0.00220383
0.027949
-0.0237206
-0.00122363
0.0280276
-0.00613219
0.000734806
0.0356118
-0.03928
0.00123517
0.0328723
-0.000857151
-0.00547451
-0.0539081
0.0124565
0.0406689
0.0541603
-0.00048525
0.00597633
0.0475023
-0.000161066
0.00641167
0.041856
-0.000828277
0.00581246
0.0369613
-0.000867694
0.00450621
0.0327755
-0.0015902
0.00454298
0.0295934
-0.00184635
0.00251818
0.0271014
-0.00254219
0.00312408
0.02531
-0.00305793
0.000785863
0.0238246
-0.00406864
0.00248928
0.0229725
-0.00473658
-0.000484569
0.0220767
-0.00637228
0.0023735
0.0218354
-0.00751533
-0.00141312
0.0215361
-0.00952648
0.00292307
0.0218312
-0.0124554
-0.00242461
0.0227851
-0.0139003
0.00475669
0.0238345
-0.0211417
-0.00362829
0.0264695
-0.0187118
0.0099446
0.0331022
-0.042131
-0.00378175
0.0298154
-0.00557196
0.00800159
-0.081724
0.0116842
0.0459471
0.0542384
-0.000403646
0.00567995
0.0474984
-8.63131e-05
0.00666533
0.0418466
-0.000764196
0.00558772
0.0367356
-0.000717375
0.00496068
0.0326854
-0.00162912
0.0040891
0.0292295
-0.00146705
0.00307661
0.0268441
-0.00273864
0.00258184
0.0246723
-0.00251135
0.00162525
0.0233403
-0.00440757
0.00167084
0.0219641
-0.00419824
0.000837883
0.0212415
-0.00692521
0.00127552
0.0203403
-0.00703808
0.000423971
0.0201529
-0.0109668
0.00162781
0.0197554
-0.0119275
-0.000130393
0.0206941
-0.0179979
0.00315887
0.0208796
-0.0202478
-0.00107941
0.0256257
-0.0317599
0.00830207
0.025816
-0.0384283
-0.00389302
0.0280471
-0.0360916
0.0282886
-0.104219
-0.000884661
0.0514268
0.054245
-0.000218423
0.00556977
0.0474861
-0.00018299
0.00685562
0.041809
-0.00057349
0.00548638
0.0366268
-0.000785087
0.00524992
0.0325202
-0.00132042
0.00379784
0.0290208
-0.00154319
0.00357558
0.0265845
-0.00233499
0.00203261
0.0243297
-0.00270211
0.00244558
0.0229852
-0.00393528
0.00087225
0.021422
-0.00455763
0.00192254
0.0207315
-0.00658982
0.000355173
0.0194994
-0.00769404
0.00188798
0.0191946
-0.0111489
0.000486951
0.0182576
-0.0132417
0.00225119
0.0181307
-0.0193326
0.00146167
0.0180655
-0.0232591
0.00307647
0.0191384
-0.0357276
0.00289479
0.0191223
-0.0417155
0.00330339
0.0266987
-0.061978
0.0183099
-0.107287
-0.023673
0.0534397
0.0542905
0.00544
5.10886e-05
0.0474125
0.00720001
-0.000504976
0.0418664
0.00525089
-0.000278342
0.0364666
0.00569022
-0.00107546
0.0324794
0.00343534
-0.000768548
0.0287989
0.0040754
-0.00193813
0.0265267
0.00149448
-0.00155725
0.0240421
0.00305323
-0.0032708
0.0229336
5.92725e-05
-0.00288599
0.0209933
0.00275231
-0.0053697
0.0205776
-0.000932603
-0.0052415
0.0187388
0.00289239
-0.0087476
0.0185053
-0.00143328
-0.00948219
0.0164958
0.00304854
-0.0142807
0.0155002
-0.00101459
-0.0173224
0.0132231
0.00309268
-0.0240747
0.00996357
0.00012512
-0.0325932
0.00624422
0.0050152
-0.0430114
0.0137348
-0.00416213
-0.0653064
-0.0432237
0.0423878
-0.0927163
0.060477
0.00111318
0.00432217
0.0593993
0.00162464
0.00580547
0.0578829
0.0016082
0.00524485
0.0559431
0.00157746
0.00489694
0.0536967
0.00148888
0.00425683
0.0514467
0.00134481
0.00336249
0.0493755
0.00119198
0.00250859
0.0475446
0.00104075
0.00186882
0.0459476
0.000898551
0.00144026
0.0445973
0.000747757
0.00113311
0.0434892
0.000598544
0.00091604
0.0426275
0.000436494
0.000754074
0.0419898
0.000279166
0.000648225
0.0415654
0.000117647
0.000573947
0.0413223
-2.62487e-05
0.000525683
0.0412374
-0.000155506
0.000485206
0.0412721
-0.000255573
0.000455147
0.0414008
-0.000339508
0.000425864
0.0415777
-0.000379038
0.00039449
-0.000393446
0.000359059
0.041773
0.0620758
0.000657635
0.00433285
0.063127
0.00118715
0.0059262
0.0634242
0.00129412
0.00543274
0.0633669
0.00129575
0.00508679
0.0628998
0.00124541
0.0046282
0.0622067
0.00112235
0.00393542
0.0614645
0.000966566
0.00319648
0.0607874
0.000779443
0.00257233
0.0602039
0.000592738
0.00211417
0.0597443
0.000380753
0.00176464
0.0594153
0.00017168
0.0014958
0.0592386
-6.6131e-05
0.00128335
0.0592045
-0.00030051
0.00112848
0.0593165
-0.00054878
0.00100718
0.0595534
-0.000762378
0.000908105
0.0599111
-0.000971241
0.000828929
0.0603569
-0.00112143
0.000759304
0.0608786
-0.0012537
0.000700614
0.0614396
-0.00130519
0.000640802
-0.00131677
0.0005851
0.0620177
0.0619168
0.000369637
0.00431783
0.0629803
0.000743894
0.00591676
0.0633704
0.000863639
0.00540141
0.0634848
0.000852902
0.00498834
0.0632528
0.000792877
0.00453188
0.0628337
0.000657445
0.00386429
0.0623736
0.000493708
0.00314136
0.0619767
0.000271567
0.00252179
0.0616668
3.74387e-05
0.00206796
0.0614678
-0.00023222
0.001718
0.0613874
-0.00050118
0.00144955
0.061448
-0.00081317
0.00122838
0.0616309
-0.00110106
0.00105474
0.0619464
-0.0014208
0.000917283
0.0623732
-0.00168995
0.000805821
0.0629043
-0.00195841
0.000718634
0.063515
-0.00214569
0.000640051
0.0641945
-0.00231188
0.000571749
0.0649134
-0.00236871
0.000506643
-0.00236685
0.000446538
0.0656481
0.0618
0.000207106
0.00431541
0.0627422
0.000430748
0.00594475
0.0630638
0.00050796
0.00542909
0.0631318
0.000463766
0.00498817
0.0628733
0.000378176
0.00451747
0.0624518
0.000204873
0.00384883
0.0620049
2.05471e-05
0.00311808
0.0616385
-0.000250691
0.00249317
0.0613609
-0.000525249
0.00202658
0.061204
-0.000863451
0.00167436
0.0611703
-0.00119544
0.00139888
0.0612814
-0.00158212
0.00116919
0.06152
-0.00193114
0.000991206
0.0618974
-0.00232866
0.000847496
0.0623911
-0.00265735
0.000729572
0.0629924
-0.00298691
0.000636783
0.0636807
-0.00321674
0.000552763
0.064443
-0.003419
0.000478406
0.0652503
-0.00348438
0.000410442
-0.00347009
0.000346896
0.0660773
0.0617266
0.000121898
0.0043177
0.0625913
0.000196291
0.00596276
0.0628543
0.000210163
0.00544874
0.06288
0.000113144
0.00499626
0.0625848
-4.2862e-06
0.00451182
0.062141
-0.000228848
0.00383194
0.0616789
-0.00044138
0.00309526
0.0613078
-0.000767328
0.00245793
0.0610281
-0.00107961
0.00198108
0.0608745
-0.00148763
0.0016272
0.0608482
-0.00188209
0.00134684
0.0609715
-0.00234713
0.00112002
0.0612263
-0.00276272
0.000943835
0.0616338
-0.00325034
0.000798787
0.0621651
-0.00364537
0.000679644
0.0628143
-0.00404662
0.000588174
0.0635632
-0.00433145
0.00050288
0.0643968
-0.00458027
0.000428571
0.0652873
-0.00466617
0.000360902
-0.0046419
0.0002969
0.066201
0.0616807
8.35585e-05
0.00432566
0.062511
-2.00907e-06
0.00597115
0.0627218
-3.52051e-05
0.00546601
0.0627059
-0.000202142
0.00502282
0.0623567
-0.000331942
0.00453473
0.0618821
-0.000639141
0.00385718
0.0613715
-0.000858459
0.0031179
0.0609794
-0.00127325
0.00248186
0.060665
-0.00160551
0.00199765
0.0604988
-0.00210855
0.00164696
0.0604603
-0.00255984
0.00135408
0.0605826
-0.00311625
0.00113464
0.0608404
-0.00360281
0.000954952
0.0612743
-0.00420175
0.000808671
0.0618369
-0.00466804
0.000687893
0.0625359
-0.00516101
0.000599413
0.0633506
-0.00551727
0.000511874
0.0642651
-0.00582849
0.000438601
0.0652554
-0.00595494
0.000369718
-0.00592874
0.000302299
0.0662773
0.0616328
9.10699e-05
0.00434403
0.06246
-0.000192893
0.00596595
0.0626119
-0.000221968
0.00547723
0.0625678
-0.000497708
0.00504981
0.0621677
-0.000612721
0.00455272
0.0616724
-0.00103939
0.0038722
0.0611043
-0.00122053
0.00312631
0.0607041
-0.00178415
0.00249299
0.0603337
-0.00207725
0.00199892
0.0601667
-0.00274217
0.00165914
0.0601
-0.00320655
0.00134096
0.0602247
-0.00389662
0.00114594
0.0604748
-0.00443843
0.000949312
0.0609425
-0.00519019
0.000812524
0.0615283
-0.00571743
0.000686424
0.0622878
-0.00634199
0.000607272
0.0631738
-0.00678173
0.000516717
0.0641818
-0.0071783
0.000448757
0.0652982
-0.00738077
0.000378905
-0.00735586
0.000308815
0.0664498
0.0615744
0.000150421
0.00437887
0.0624393
-0.000409274
0.00593273
0.0625125
-0.000331228
0.00548985
0.0624665
-0.000801796
0.00507115
0.0619921
-0.000820623
0.00457244
0.0614958
-0.00144947
0.00388403
0.060843
-0.00149303
0.00313425
0.0604572
-0.00232758
0.00250808
0.0599879
-0.00244457
0.00200274
0.0598467
-0.00342692
0.00168559
0.0597142
-0.00377334
0.00131822
0.0598536
-0.00471511
0.00118364
0.0600701
-0.00523746
0.000934183
0.0605836
-0.00623626
0.000840321
0.0611682
-0.00677104
0.00068698
0.062009
-0.0076192
0.000637788
0.0629591
-0.00812654
0.00053543
0.0640765
-0.0086533
0.00048078
0.0653504
-0.00898866
0.000409063
-0.00896033
0.000335482
0.0666573
0.0614999
0.000271494
0.00443423
0.0624428
-0.000682253
0.00586332
0.06241
-0.00033836
0.00551517
0.0623981
-0.00114451
0.00507404
0.0618158
-0.000923593
0.00460152
0.0613433
-0.00189538
0.00388373
0.0605725
-0.0016355
0.00314171
0.0602382
-0.00294927
0.00251616
0.0596096
-0.00263507
0.00200198
0.0595455
-0.00423377
0.00171411
0.0592829
-0.00417256
0.00126855
0.0594729
-0.00563955
0.00124857
0.0596112
-0.00593205
0.000876475
0.0601977
-0.00739323
0.000901486
0.0607342
-0.00777024
0.000651548
0.0617063
-0.00906323
0.000699515
0.0626755
-0.00951378
0.000542952
0.0639421
-0.0103007
0.000534496
0.0654047
-0.0108328
0.000455199
-0.0107777
0.000384622
0.0668856
0.0614145
0.000459407
0.00450637
0.0624641
-0.00102952
0.00575233
0.062296
-0.000223184
0.00557093
0.0623541
-0.00155039
0.0050472
0.0616289
-0.000890954
0.00464266
0.0612054
-0.00240271
0.00386619
0.0602807
-0.00160563
0.00314918
0.0600281
-0.00369256
0.00251646
0.0591789
-0.00257392
0.00199911
0.0592429
-0.00523944
0.00174007
0.0587691
-0.00429736
0.0011999
0.0590494
-0.00676542
0.00135313
0.0590527
-0.00642681
0.00076865
0.0597282
-0.00874637
0.0010377
0.0601576
-0.00861792
0.000547542
0.0613282
-0.0108129
0.000863012
0.0622166
-0.0108377
0.000510538
0.0637233
-0.0122393
0.000669725
0.0653582
-0.0129459
0.000547451
-0.0128649
0.000511436
0.0670333
0.0613344
0.000708143
0.00457991
0.0624947
-0.001445
0.00561125
0.0621698
2.57377e-05
0.00565698
0.0623239
-0.00203309
0.00499453
0.061419
-0.00069088
0.00469055
0.0610666
-0.00300304
0.00385383
0.0599555
-0.00136111
0.00314382
0.059797
-0.00459491
0.00253128
0.058682
-0.00220398
0.00199021
0.0589026
-0.00649885
0.00176496
0.0581355
-0.00405516
0.00113653
0.0585351
-0.00818139
0.00148919
0.0583496
-0.00662744
0.000622972
0.0590909
-0.0103921
0.0012882
0.0593881
-0.00920665
0.000335841
0.0607992
-0.0130669
0.00122653
0.061519
-0.0119536
0.000364314
0.0634049
-0.014683
0.000993373
0.0650749
-0.0152496
0.000689424
-0.0153898
0.000793842
0.0670715
0.0612906
0.000987175
0.00463709
0.0625345
-0.00188854
0.00545635
0.0620384
0.000406828
0.00577201
0.0623137
-0.00260557
0.00493148
0.0611781
-0.000272108
0.00472916
0.0609294
-0.00375563
0.00388918
0.0596061
-0.000845278
0.00308083
0.0595337
-0.00569081
0.00260932
0.0581541
-0.00150524
0.00194557
0.0585254
-0.00801623
0.00179874
0.0573981
-0.00339614
0.00110105
0.0579674
-0.00995294
0.00162495
0.0575196
-0.00643121
0.000442387
0.0583116
-0.0124508
0.00168155
0.0585134
-0.00942432
-7.26507e-05
0.0601215
-0.0160274
0.00190263
0.0607043
-0.0127531
1.36089e-06
0.0631092
-0.0179247
0.00165847
0.0646585
-0.017547
0.000738902
-0.0186362
0.00138826
0.0672274
0.0613261
0.00121659
0.00468135
0.0625932
-0.00226654
0.00528436
0.0619343
0.00088928
0.00592361
0.0623556
-0.00325457
0.00483684
0.0609433
0.000404693
0.00477302
0.0608461
-0.00471456
0.00396234
0.0593163
-1.51754e-05
0.0029415
0.0593162
-0.00697395
0.00273584
0.0577549
-0.000522236
0.00184762
0.058265
-0.00970325
0.00178029
0.0567604
-0.00232565
0.00109269
0.0576613
-0.0121008
0.00163502
0.0567622
-0.00560096
0.000161123
0.0577901
-0.01518
0.00221624
0.057876
-0.00900876
-0.000908098
0.0595333
-0.0198788
0.00301225
0.0601782
-0.0131754
-0.000813462
0.0631118
-0.0222838
0.00289034
0.0645029
-0.0196855
0.000525286
-0.0228767
0.00270538
0.0677277
0.0614676
0.00125774
0.00474389
0.0626539
-0.0024106
0.00507693
0.0619283
0.00129366
0.00617415
0.0624542
-0.00382357
0.00460985
0.0608202
0.00119145
0.00497992
0.060882
-0.00574361
0.00387861
0.0592365
0.000983063
0.00292555
0.0592834
-0.00823138
0.00266889
0.0577297
0.00052691
0.00185105
0.0583501
-0.0112024
0.00140715
0.0565789
-0.00102244
0.00126822
0.0580687
-0.0144171
0.00110765
0.0564229
-0.00379472
-0.00010395
0.0582119
-0.0188616
0.00249276
0.057821
-0.00712018
-0.00242921
0.0595425
-0.0249857
0.00448738
0.0602888
-0.0126932
-0.00262772
0.0634878
-0.0280465
0.00476078
0.0647553
-0.0216536
-0.000243633
-0.0279748
0.00547299
0.0682037
0.0616742
0.000970318
0.00485299
0.06265
-0.00213162
0.00485635
0.0620489
0.00127227
0.00658022
0.0624628
-0.00389312
0.00412216
0.0608669
0.0015295
0.00560752
0.0608769
-0.00622786
0.00325331
0.0593143
0.00153911
0.00356392
0.0592373
-0.00877281
0.00191368
0.0579145
0.00102205
0.00252898
0.0584331
-0.0117281
0.000219996
0.0566717
-0.00014713
0.00224859
0.0587097
-0.0160414
-0.000692595
0.0563005
-0.0013981
0.000720381
0.0593511
-0.0229906
0.00108588
0.0580288
-0.00295645
-0.00353609
0.060414
-0.0315295
0.00497161
0.0604639
-0.00935222
-0.00576
0.0640866
-0.0363695
0.00708525
0.0650276
-0.023022
-0.00222853
-0.0330138
0.0100308
0.0680306
0.0618294
0.000375357
0.00493093
0.0625381
-0.00141767
0.00477968
0.0622208
0.000637034
0.00692324
0.0621632
-0.00306318
0.00360568
0.0609663
0.000824911
0.00646956
0.0603425
-0.00529636
0.0022158
0.0591344
0.000709754
0.0050261
0.0583569
-0.00754894
0.000436343
0.0573182
-6.79006e-05
0.00442761
0.0571005
-0.0102441
-0.0016941
0.0556001
-0.00114543
0.00472584
0.0570543
-0.0152809
-0.0035193
0.0546109
-0.0010005
0.0043622
0.0581239
-0.0249264
-0.00323993
0.0564624
0.00101516
-0.000106264
0.0603809
-0.0380098
0.00133817
0.0591652
-0.000941229
-0.00646047
0.0651942
-0.0486546
0.00749123
0.0642219
-0.0202749
-0.00724936
-0.0400142
0.0153543
0.0683246
0.0618246
-0.000213837
0.00474095
0.0623981
-0.000621762
0.0050422
0.0623196
-0.000186344
0.00671436
0.0617446
-0.00173102
0.0037491
0.0610598
-0.000574077
0.00662677
0.0595269
-0.00321081
0.00196547
0.058726
-0.00130505
0.00593985
0.0569097
-0.00477284
-0.000174011
0.0560682
-0.0027138
0.00597669
0.0545978
-0.00690354
-0.00235467
0.0535337
-0.00449855
0.00679066
0.0525201
-0.0112095
-0.00447084
0.0514626
-0.00549431
0.00847437
0.0512585
-0.0205175
-0.00662931
0.0512839
-0.00344938
0.00919587
0.0539974
-0.0375054
-0.00684621
0.0538041
0.00272358
0.00647305
0.0639407
-0.0619833
-0.000589568
0.0605278
-0.00558237
-0.00327798
-0.0567452
0.0174286
0.0715143
0.0616933
-0.000344363
0.00411717
0.0622272
-0.000249931
0.0057596
0.0623613
-0.000564588
0.00583186
0.0615947
-0.000888524
0.00488482
0.0610711
-0.00140715
0.00544579
0.0593101
-0.00169055
0.00331735
0.0585861
-0.00263733
0.00463803
0.0565913
-0.00275597
0.00160322
0.0557063
-0.00449403
0.00433607
0.0538333
-0.00443039
0.000237719
0.0531029
-0.00725968
0.00476705
0.0508279
-0.00737864
-0.00113188
0.0511852
-0.0110413
0.00681748
0.0474006
-0.0133199
-0.00354341
0.0503137
-0.0153426
0.012139
0.0457255
-0.0261205
-0.00787613
0.0501502
-0.0152592
0.0218601
0.0554493
-0.0603999
-0.0107757
0.0557312
-0.000851399
0.0232757
-0.0877214
0.00599368
0.0798291
0.0615888
9.89543e-05
0.0035377
0.0622179
-0.000556693
0.0065332
0.0621952
-0.000184725
0.00512921
0.0616685
-0.00109351
0.00598162
0.06075
-0.000961869
0.00427111
0.0594837
-0.00184456
0.00499589
0.0582668
-0.00199989
0.00261208
0.0567764
-0.00302916
0.00420911
0.0554936
-0.00368106
0.00134218
0.0540311
-0.00480239
0.00375701
0.0528795
-0.00653536
0.000782374
0.0514084
-0.00762525
0.00360572
0.0509702
-0.0115313
0.00141521
0.0489538
-0.0121064
0.0030541
0.0503212
-0.020841
0.00559266
0.0468884
-0.0206103
0.000999079
0.052648
-0.0346307
0.0165067
0.0454239
-0.044506
-0.0053664
0.0557393
-0.0339801
0.0411233
-0.113065
-0.025019
0.0824286
0.0617044
0.0030466
0.000787994
0.0622043
0.00746789
-0.00132451
0.0623867
0.00436311
0.000520635
0.0617384
0.00716194
-0.00191693
0.0609761
0.00313124
0.000104535
0.0596805
0.00639553
-0.00286903
0.0587484
0.000913115
-0.000486492
0.0571722
0.0059834
-0.00438311
0.0564073
-0.00123979
-0.00161706
0.0547369
0.00627786
-0.0066576
0.0543125
-0.00328175
-0.00376177
0.0525965
0.00715017
-0.010167
0.0523527
-0.00475008
-0.00797082
0.0507203
0.0078624
-0.0152878
0.0489436
-0.00386863
-0.0162103
0.0472777
0.00832383
-0.0241755
0.0453886
-0.00010488
-0.0325116
0.0386365
0.00705912
-0.0397978
0.0499448
0.0138546
-0.0633052
-0.0539256
0.0495966
-0.102015
0.0605984
0.00110405
0.00261976
0.060902
0.00160281
0.00389905
0.0609318
0.00159763
0.00361741
0.0607817
0.00157681
0.00347025
0.0603132
0.00153892
0.00318638
0.0595618
0.00144595
0.00266794
0.0586403
0.00133529
0.00209482
0.0576539
0.00121597
0.00163924
0.0566575
0.00110524
0.00133136
0.0557105
0.000978373
0.00110174
0.0548451
0.000854456
0.00092706
0.0541026
0.000710647
0.000785861
0.0534933
0.000573456
0.000684078
0.0530375
0.000422594
0.000607129
0.0527256
0.000287804
0.000549796
0.0525588
0.000149113
0.000502933
0.0525094
3.96433e-05
0.000464876
0.0525658
-6.35966e-05
0.000433071
0.052688
-0.000127112
0.000399408
-0.000177881
0.000369247
0.0528557
0.0621657
0.00065354
0.00261771
0.0645399
0.00118001
0.0039747
0.0664646
0.0013029
0.00380286
0.0682062
0.00131022
0.00361174
0.0696325
0.00130278
0.00343802
0.0707074
0.00123037
0.00307616
0.0714901
0.00113044
0.00261861
0.0720968
0.000984344
0.00219724
0.072589
0.000844686
0.00188257
0.0730272
0.000666023
0.00163873
0.0734359
0.000498178
0.00144342
0.0738634
0.000286588
0.00127985
0.0743179
9.88911e-05
0.00114854
0.07483
-0.000131596
0.00104927
0.0753982
-0.000331052
0.000958757
0.0760367
-0.000545473
0.000885027
0.0767236
-0.000702631
0.000814711
0.0774634
-0.000862274
0.000759522
0.078229
-0.00095501
0.000703121
-0.00102663
0.000651645
0.0790112
0.0619993
0.000370682
0.00260136
0.0643822
0.000745208
0.00396865
0.0664172
0.000881773
0.00378759
0.0682992
0.000875028
0.00354154
0.0699233
0.000848498
0.00336209
0.0712538
0.000749812
0.00301436
0.0723244
0.00063817
0.00256302
0.0732316
0.000458435
0.00214051
0.074029
0.000285226
0.00183002
0.0747783
4.43287e-05
0.00159038
0.075495
-0.000167734
0.00139875
0.0762274
-0.000450783
0.00123336
0.0769754
-0.000692675
0.00109824
0.0777707
-0.000993964
0.000984353
0.0786057
-0.00124776
0.00088758
0.0794931
-0.00152609
0.000811776
0.0804188
-0.00172689
0.000738686
0.0813816
-0.00192908
0.000675772
0.082366
-0.00204715
0.000614377
-0.00212911
0.000556809
0.0833582
0.06188
0.000211677
0.0025944
0.0641543
0.000430843
0.0039848
0.0661393
0.000525383
0.00380051
0.0679803
0.0004839
0.00353825
0.0695754
0.000428117
0.00334275
0.0708971
0.000283121
0.00299388
0.0719732
0.000143179
0.00253693
0.0728986
-8.2887e-05
0.00210907
0.0737201
-0.000297171
0.00178753
0.0744962
-0.000598629
0.00154123
0.0752495
-0.00086817
0.00134597
0.0760262
-0.00123136
0.00117312
0.0768217
-0.00152979
0.00103278
0.0776693
-0.00190976
0.000915744
0.0785657
-0.00222886
0.000814209
0.0795175
-0.00257505
0.000733918
0.0805131
-0.00282673
0.000656992
0.0815486
-0.00307537
0.000589208
0.0826121
-0.0032254
0.000525204
-0.0033222
0.000464523
0.0836876
0.0618049