/*--------------------------------*- C++ -*----------------------------------*\
| =========                 |                                                 |
| \\      /  F ield         | OpenFOAM: The Open Source CFD Toolbox           |
|  \\    /   O peration     | Version:  v1806                                 |
|   \\  /    A nd           | Web:      www.OpenFOAM.com                      |
|    \\/     M anipulation  |                                                 |
\*---------------------------------------------------------------------------*/
FoamFile
{
    version     2.0;
    format      ascii;
    class       surfaceScalarField;
    location    "30";
    object      phi;
}
// * * * * * * * * * * * * * * * * * * * * * * * * * * * * * * * * * * * * * //

dimensions      [0 3 -1 0 0 0 0];
oriented        oriented;


internalField   nonuniform List<scalar> 
8600
(
0.0474361
-0.0591104
-0.04127
0.0529443
0.0433373
-0.0711948
0.0752936
0.0365835
-0.0769258
0.0836796
0.0310299
-0.0808211
0.0863747
0.0271403
-0.0833159
0.0872056
0.0245512
-0.0848266
0.0874157
0.0228565
-0.0856567
0.0873513
0.0217445
-0.0860431
0.0871551
0.0210146
-0.0861664
0.0868963
0.0205468
-0.0861406
0.0866084
0.0202677
-0.0860322
0.0863113
0.0201297
-0.0858816
0.0860195
0.0200995
-0.0857151
0.0857453
0.0201516
-0.0855509
0.0854989
0.0202652
-0.0854033
0.0852896
0.0204214
-0.0852817
0.0851255
0.0206046
-0.0851958
0.0850127
0.0207946
-0.0851499
0.0849599
0.0209787
-0.0851497
0.0849657
-0.08518
0.085054
0.029984
-0.0584452
-0.0306492
0.0268112
-0.0680221
0.0245116
-0.0746262
0.023058
-0.0793675
0.0219949
-0.0822528
0.0210753
-0.083907
0.0202825
-0.0848639
0.0196501
-0.0854108
0.019184
-0.0857003
0.018866
-0.0858226
0.0186707
-0.0858369
0.0185736
-0.0857844
0.0185532
-0.0856946
0.0185918
-0.0855895
0.0186735
-0.085485
0.0187855
-0.0853937
0.0189139
-0.0853242
0.0190472
-0.0852832
0.0191697
-0.0852722
-0.085289
0.0243546
-0.061571
-0.0212288
0.0253307
-0.0689981
0.0249955
-0.074291
0.0237162
-0.0780882
0.0222221
-0.0807587
0.0209229
-0.0826078
0.0199208
-0.0838617
0.019186
-0.0846759
0.0186601
-0.0851744
0.018293
-0.0854555
0.0180481
-0.085592
0.0178987
-0.0856351
0.0178246
-0.0856205
0.017809
-0.085574
0.017838
-0.0855141
0.0178986
-0.0854543
0.017979
-0.0854045
0.0180667
-0.085371
0.01815
-0.0853555
-0.0853559
0.0181328
-0.0650246
-0.0146792
0.0192498
-0.0701151
0.0193391
-0.0743803
0.0190481
-0.0777973
0.0186684
-0.080379
0.0182696
-0.082209
0.01787
-0.0834621
0.0174995
-0.0843054
0.0171848
-0.0848597
0.0169384
-0.0852091
0.0167605
-0.0854141
0.0166448
-0.0855194
0.0165825
-0.0855582
0.0165641
-0.0855555
0.0165799
-0.0855299
0.0166209
-0.0854952
0.0166779
-0.0854616
0.0167423
-0.0854353
0.0168069
-0.0854201
-0.0854126
0.0144845
-0.0684776
-0.0110315
0.0164098
-0.0720404
0.017358
-0.0753285
0.0176239
-0.0780632
0.0174666
-0.0802217
0.0171236
-0.0818661
0.0167459
-0.0830844
0.0164025
-0.0839621
0.0161166
-0.0845737
0.0158909
-0.0849834
0.0157214
-0.0852446
0.0156018
-0.0853998
0.0155253
-0.0854817
0.0154848
-0.085515
0.0154732
-0.0855183
0.0154834
-0.0855054
0.0155083
-0.0854864
0.0155409
-0.085468
0.0155744
-0.0854536
-0.0854423
0.0114398
-0.071416
-0.00850141
0.013289
-0.0738896
0.0143226
-0.0763621
0.0148332
-0.0785737
0.0150395
-0.080428
0.0150737
-0.0819003
0.0150095
-0.0830202
0.0148942
-0.0838468
0.0147618
-0.0844413
0.0146353
-0.0848569
0.0145277
-0.085137
0.0144447
-0.0853168
0.0143873
-0.0854243
0.0143538
-0.0854815
0.0143408
-0.0855053
0.0143441
-0.0855088
0.0143592
-0.0855015
0.0143813
-0.0854901
0.0144063
-0.0854786
-0.0854664
0.00932651
-0.0739709
-0.00677159
0.0111651
-0.0757282
0.0123862
-0.0775833
0.0131257
-0.0793132
0.0135113
-0.0808136
0.0136638
-0.0820528
0.0136808
-0.0830373
0.0136288
-0.0837948
0.0135481
-0.0843606
0.0134617
-0.0847705
0.0133821
-0.0850574
0.0133156
-0.0852503
0.0132648
-0.0853736
0.01323
-0.0854466
0.0132097
-0.085485
0.0132016
-0.0855007
0.0132028
-0.0855027
0.01321
-0.0854974
0.0132202
-0.0854887
-0.0854782
0.00765841
-0.0761047
-0.00552461
0.00929625
-0.077366
0.0104623
-0.0787493
0.0112449
-0.0800958
0.0117424
-0.0813111
0.0120388
-0.0823492
0.0121988
-0.0831972
0.012269
-0.083865
0.0122833
-0.084375
0.0122667
-0.0847538
0.012236
-0.0850268
0.0122025
-0.0852168
0.0121727
-0.0853437
0.0121498
-0.0854237
0.0121349
-0.0854702
0.0121277
-0.0854935
0.0121271
-0.085502
0.0121312
-0.0855015
0.0121384
-0.085496
-0.085487
0.00637597
-0.0779288
-0.00455183
0.0078535
-0.0788435
0.00897886
-0.0798747
0.00979173
-0.0809086
0.0103476
-0.0818669
0.0107053
-0.0827069
0.0109203
-0.0834122
0.0110384
-0.0839832
0.0110942
-0.0844308
0.0111119
-0.0847715
0.0111082
-0.085023
0.0110943
-0.0852029
0.0110772
-0.0853267
0.0110615
-0.085408
0.0110493
-0.085458
0.0110416
-0.0854858
0.0110382
-0.0854986
0.0110383
-0.0855017
0.0110413
-0.0854989
-0.0854922
0.00534112
-0.0794602
-0.00380978
0.00662521
-0.0801276
0.00764434
-0.0808938
0.00841679
-0.0816811
0.00897944
-0.0824296
0.00937412
-0.0831016
0.00963995
-0.083678
0.00981055
-0.0841538
0.00991339
-0.0845336
0.00996987
-0.0848279
0.00999627
-0.0850494
0.0100045
-0.0852111
0.010003
-0.0853251
0.00999723
-0.0854022
0.00999078
-0.0854515
0.00998556
-0.0854806
0.00998247
-0.0854955
0.00998167
-0.0855009
0.00998301
-0.0855002
-0.0854955
0.00448753
-0.0807633
-0.00318436
0.0056083
-0.0812484
0.00652796
-0.0818135
0.00725187
-0.082405
0.00780023
-0.0829779
0.00820041
-0.0835018
0.00848181
-0.0839594
0.00867225
-0.0843442
0.00879574
-0.0846571
0.00887169
-0.0849039
0.00891504
-0.0850928
0.008937
-0.0852331
0.00894575
-0.0853339
0.00894708
-0.0854036
0.00894489
-0.0854493
0.0089417
-0.0854774
0.00893895
-0.0854927
0.00893741
-0.0854993
0.00893741
-0.0855002
-0.0854974
0.00377201
-0.0818571
-0.00267826
0.00473128
-0.0822077
0.00553785
-0.0826201
0.00619056
-0.0830577
0.006701
-0.0834884
0.00708777
-0.0838885
0.00737189
-0.0842435
0.00757403
-0.0845463
0.00771288
-0.084796
0.00780447
-0.0849955
0.00786195
-0.0851503
0.0078957
-0.0852668
0.00791366
-0.0853519
0.00792172
-0.0854116
0.00792406
-0.0854517
0.00792357
-0.0854769
0.00792212
-0.0854913
0.00792085
-0.0854981
0.00792043
-0.0854998
-0.0854984
0.00315335
-0.0827776
-0.00223283
0.00397159
-0.0830259
0.00467217
-0.0833206
0.00525141
-0.083637
0.00571508
-0.083952
0.00607497
-0.0842484
0.0063461
-0.0845146
0.00654436
-0.0847446
0.00668493
-0.0849365
0.00678127
-0.0850918
0.00684476
-0.0852137
0.00688458
-0.0853067
0.00690798
-0.0853753
0.00692047
-0.0854241
0.00692615
-0.0854574
0.00692795
-0.0854787
0.00692788
-0.0854912
0.00692729
-0.0854975
0.00692702
-0.0854995
-0.0854991
0.00261355
-0.083539
-0.00185216
0.00329816
-0.0837105
0.00389282
-0.0839153
0.00439269
-0.0841368
0.00480022
-0.0843596
0.00512307
-0.0845713
0.00537183
-0.0847634
0.00555824
-0.084931
0.00569397
-0.0850723
0.00578975
-0.0851876
0.00585501
-0.085279
0.00589765
-0.0853493
0.00592409
-0.0854017
0.00593938
-0.0854394
0.00594737
-0.0854654
0.00595091
-0.0854822
0.00595203
-0.0854923
0.00595212
-0.0854975
0.00595209
-0.0854995
-0.0854995
0.00212848
-0.0841614
-0.00150605
0.00269229
-0.0842743
0.00318704
-0.08441
0.00360808
-0.0845579
0.00395612
-0.0847076
0.00423588
-0.0848511
0.00445472
-0.0849822
0.00462133
-0.0850976
0.0047447
-0.0851956
0.00483341
-0.0852763
0.00489515
-0.0853407
0.00493651
-0.0853907
0.00496298
-0.0854282
0.00497892
-0.0854553
0.00498778
-0.0854742
0.00499214
-0.0854866
0.0049939
-0.0854941
0.00499439
-0.085498
0.0049945
-0.0854996
-0.0854998
0.00168906
-0.0846544
-0.00119606
0.00213865
-0.0847239
0.00253651
-0.0848079
0.00287836
-0.0848997
0.00316391
-0.0849932
0.00339608
-0.0850832
0.00357993
-0.0851661
0.00372174
-0.0852394
0.00382819
-0.0853021
0.00390584
-0.085354
0.00396072
-0.0853956
0.00399812
-0.0854281
0.00402252
-0.0854526
0.00403759
-0.0854704
0.00404623
-0.0854829
0.0040507
-0.0854911
0.00405267
-0.0854961
0.00405333
-0.0854987
0.00405349
-0.0854998
-0.0854999
0.00128114
-0.0850293
-0.000906265
0.00162451
-0.0850673
0.00193
-0.0851134
0.00219415
-0.0851639
0.00241644
-0.0852155
0.0025986
-0.0852654
0.00274403
-0.0853115
0.00285714
-0.0853525
0.00294278
-0.0853877
0.0030058
-0.085417
0.00305076
-0.0854406
0.0030817
-0.085459
0.00310211
-0.085473
0.00311488
-0.0854832
0.00312233
-0.0854903
0.00312626
-0.085495
0.00312805
-0.0854979
0.0031287
-0.0854993
0.00312886
-0.0854999
-0.0855
0.000898464
-0.085292
-0.000635763
0.00114023
-0.0853091
0.00135598
-0.0853291
0.00154334
-0.0853512
0.00170178
-0.0853739
0.00183229
-0.0853959
0.00193705
-0.0854163
0.00201899
-0.0854345
0.00208136
-0.0854501
0.0021275
-0.0854631
0.00216057
-0.0854736
0.00218344
-0.0854819
0.00219859
-0.0854881
0.00220809
-0.0854927
0.00221364
-0.0854959
0.00221657
-0.0854979
0.0022179
-0.0854992
0.00221837
-0.0854998
0.00221848
-0.0855
-0.0855
0.000532816
-0.0854494
-0.000375407
0.000676549
-0.0854528
0.000804996
-0.0854576
0.000916779
-0.085463
0.00101153
-0.0854686
0.00108976
-0.0854741
0.00115269
-0.0854792
0.00120197
-0.0854838
0.00123952
-0.0854877
0.0012673
-0.0854909
0.00128719
-0.0854935
0.00130089
-0.0854956
0.00130992
-0.0854971
0.00131551
-0.0854983
0.00131872
-0.0854991
0.00132035
-0.0854996
0.00132103
-0.0854999
0.00132122
-0.0855
0.00132123
-0.0855
-0.0855
0.000177186
-0.000126588
0.000224385
0.000266808
0.000303794
0.000335149
0.000361021
0.000381804
0.000398051
0.000410395
0.000419488
0.000425955
0.000430368
0.000433226
0.000434954
0.000435897
0.00043633
0.000436465
0.000436457
0.000436408
-0.0371545
-0.00650906
0.0436635
-0.0315029
-0.00565155
-0.0264626
-0.0050403
-0.0218919
-0.00457071
-0.0176911
-0.00420084
-0.0137809
-0.00391013
-0.010095
-0.00368594
-0.00657572
-0.00351926
-0.00317178
-0.00340394
0.00016417
-0.00333595
0.00347719
-0.00331302
0.00681166
-0.00333447
0.0102129
-0.0034012
0.0137288
-0.00351591
0.0174123
-0.00368351
0.0213244
-0.00391213
0.0255395
-0.00421509
0.0301547
-0.00461523
0.0353123
-0.00515755
-0.00595766
-0.0251406
-0.00857664
0.0272081
-0.0226566
-0.00813554
-0.0199523
-0.0077446
-0.017114
-0.00740902
-0.0141879
-0.00712693
-0.0112027
-0.00689527
-0.00817767
-0.00671101
-0.00512535
-0.00657159
-0.0020543
-0.00647498
0.00102955
-0.0064198
0.0041218
-0.00640527
0.00721859
-0.00643127
0.0103157
-0.00649831
0.0134074
-0.00660765
0.0164854
-0.00676146
0.0195363
-0.00696306
0.0225386
-0.00721742
0.0254555
-0.00753207
0.0282176
-0.00791971
-0.00838919
-0.0164894
-0.00983748
0.0177503
-0.015007
-0.00961796
-0.0133361
-0.00941556
-0.0115119
-0.00923314
-0.00956607
-0.0090728
-0.00752519
-0.00893614
-0.0054118
-0.00882441
-0.00324486
-0.00873852
-0.00104071
-0.00867913
0.00118619
-0.0086467
0.00342247
-0.00864155
0.00565511
-0.00866391
0.00787074
-0.00871394
0.0100548
-0.00879175
0.0121908
-0.00889739
0.0142586
-0.00903088
0.0162334
-0.00919225
0.0180831
-0.00938177
0.019764
-0.00960064
-0.00985395
-0.0105785
-0.0108521
0.0115932
-0.00948008
-0.0107164
-0.00830471
-0.0105909
-0.00706022
-0.0104776
-0.00575494
-0.0103781
-0.00439761
-0.0102935
-0.00299733
-0.0102247
-0.00156341
-0.0101724
-0.000105338
-0.0101372
0.00136732
-0.0101194
0.00284491
-0.0101191
0.00431767
-0.0101367
0.00577572
-0.010172
0.00720899
-0.010225
0.00860721
-0.0102956
0.00995988
-0.0103835
0.0112561
-0.0104885
0.0124845
-0.0106102
0.0136323
-0.0107484
-0.0109008
-0.0076984
-0.0116325
0.00847879
-0.0068627
-0.0115521
-0.00597531
-0.0114783
-0.00504099
-0.011412
-0.00406531
-0.0113538
-0.00305435
-0.0113044
-0.00201448
-0.0112646
-0.000952298
-0.0112346
0.000125521
-0.011215
0.00121221
-0.0112061
0.00230094
-0.0112079
0.00338485
-0.0112206
0.00445698
-0.0112441
0.00551034
-0.0112784
0.00653782
-0.0113231
0.0075322
-0.0113779
0.00848615
-0.0114425
0.00939217
-0.0115162
0.0102423
-0.0115986
-0.0116901
-0.00552226
-0.0122726
0.0061623
-0.00485492
-0.0122195
-0.00416225
-0.012171
-0.00344656
-0.0121276
-0.00271042
-0.0120899
-0.00195671
-0.0120581
-0.00118852
-0.0120327
-0.000409174
-0.012014
0.000377846
-0.012002
0.00116893
-0.0119971
0.00196039
-0.0119993
0.00274848
-0.0120087
0.00352946
-0.0120251
0.00429964
-0.0120486
0.00505542
-0.0120789
0.00579332
-0.0121158
0.00651004
-0.0121592
0.00720248
-0.0122086
0.00786771
-0.0122638
-0.0123238
-0.00424642
-0.0127867
0.00476059
-0.00371361
-0.0127523
-0.00316349
-0.0127211
-0.00259765
-0.0126935
-0.00201789
-0.0126697
-0.00142623
-0.0126498
-0.000824843
-0.0126341
-0.000216031
-0.0126228
0.000397797
-0.0126159
0.00101416
-0.0126135
0.00163053
-0.0126157
0.00224436
-0.0126225
0.00285311
-0.0126338
0.00345426
-0.0126497
0.00404535
-0.01267
0.004624
-0.0126945
0.00518793
-0.0127231
0.00573499
-0.0127557
0.00626314
-0.0127919
-0.0128322
-0.00327082
-0.0132144
0.00369847
-0.00283247
-0.0131906
-0.00238432
-0.0131692
-0.00192742
-0.0131504
-0.00146286
-0.0131342
-0.000991833
-0.0131208
-0.000515598
-0.0131104
-3.54751e-05
-0.0131029
0.000447169
-0.0130985
0.000930931
-0.0130973
0.00141439
-0.0130992
0.00189611
-0.0131042
0.00237467
-0.0131124
0.00284868
-0.0131237
0.00331677
-0.0131381
0.00377765
-0.0131554
0.00423007
-0.0131755
0.00467286
-0.0131985
0.00510492
-0.013224
-0.0132519
-0.00261092
-0.013567
0.00296355
-0.00225079
-0.0135508
-0.00188382
-0.0135362
-0.00151071
-0.0135235
-0.00113226
-0.0135127
-0.000749288
-0.0135038
-0.000362701
-0.013497
2.65719e-05
-0.0134922
0.000417566
-0.0134895
0.00080929
-0.013489
0.00120074
-0.0134906
0.00159092
-0.0134944
0.00197881
-0.0135003
0.00236343
-0.0135083
0.00274383
-0.0135184
0.00311906
-0.0135306
0.00348825
-0.0135447
0.00385056
-0.0135608
0.0042052
-0.0135787
-0.0135986
-0.00209438
-0.0138633
0.00239064
-0.00179331
-0.0138518
-0.00148791
-0.0138416
-0.0011787
-0.0138327
-0.000866192
-0.0138252
-0.000550954
-0.013819
-0.000233566
-0.0138143
8.5374e-05
-0.0138111
0.000405254
-0.0138094
0.000725452
-0.0138092
0.00104534
-0.0138105
0.00136429
-0.0138133
0.00168168
-0.0138177
0.00199689
-0.0138235
0.00230932
-0.0138309
0.00261839
-0.0138397
0.00292352
-0.0138499
0.00322418
-0.0138614
0.00351985
-0.0138743
-0.0138885
-0.00170692
-0.0141105
0.00195418
-0.00145623
-0.0141025
-0.00120242
-0.0140954
-0.000945878
-0.0140893
-0.000686979
-0.0140841
-0.000426129
-0.0140799
-0.000163749
-0.0140767
9.97274e-05
-0.0140746
0.000363855
-0.0140735
0.000628181
-0.0140735
0.000892251
-0.0140746
0.00115561
-0.0140767
0.0014178
-0.0140799
0.00167837
-0.0140841
0.00193689
-0.0140894
0.00219292
-0.0140957
0.00244606
-0.014103
0.0026959
-0.0141113
0.00294208
-0.0141205
-0.0141308
-0.00139316
-0.0143183
0.00160093
-0.00118301
-0.0143127
-0.000970737
-0.0143077
-0.000756613
-0.0143034
-0.000540916
-0.0142998
-0.000323932
-0.0142969
-0.000105958
-0.0142947
0.000112704
-0.0142933
0.000331746
-0.0142926
0.000550859
-0.0142926
0.00076973
-0.0142934
0.000988046
-0.014295
0.0012055
-0.0142973
0.00142178
-0.0143004
0.00163658
-0.0143042
0.00184962
-0.0143087
0.00206059
-0.014314
0.00226922
-0.0143199
0.00247524
-0.0143265
-0.0143338
-0.00114017
-0.0144912
0.00131306
-0.000965531
-0.0144873
-0.000789342
-0.0144839
-0.000611799
-0.0144809
-0.000433109
-0.0144785
-0.000253485
-0.0144765
-7.31468e-05
-0.014475
0.000107682
-0.0144741
0.000288774
-0.0144737
0.000469898
-0.0144737
0.000650823
-0.0144744
0.000831317
-0.0144755
0.00101115
-0.0144772
0.00119009
-0.0144793
0.00136791
-0.014482
0.0015444
-0.0144852
0.00171933
-0.0144889
0.00189251
-0.0144931
0.00206372
-0.0144977
-0.0145029
-0.00092688
-0.0146344
0.00107004
-0.000782462
-0.0146317
-0.000636934
-0.0146294
-0.000490446
-0.0146274
-0.00034315
-0.0146258
-0.000195205
-0.0146244
-4.67716e-05
-0.0146235
0.000101987
-0.0146228
0.000250906
-0.0146226
0.000399818
-0.0146227
0.000548555
-0.0146231
0.000696951
-0.0146239
0.000844837
-0.014625
0.00099205
-0.0146265
0.00113842
-0.0146284
0.0012838
-0.0146306
0.00142802
-0.0146331
0.00157093
-0.014636
0.00171238
-0.0146392
-0.0146427
-0.000744568
-0.0147506
0.000860804
-0.000627406
-0.0147489
-0.000509427
-0.0147474
-0.000390741
-0.0147461
-0.000271465
-0.014745
-0.000151713
-0.0147442
-3.16081e-05
-0.0147436
8.87298e-05
-0.0147432
0.000209177
-0.014743
0.00032961
-0.0147431
0.000449902
-0.0147434
0.000569931
-0.0147439
0.000689571
-0.0147447
0.000808698
-0.0147457
0.000927192
-0.0147469
0.00104493
-0.0147483
0.0011618
-0.01475
0.00127768
-0.0147519
0.00139246
-0.014754
-0.0147563
-0.000583924
-0.0148428
0.000676095
-0.000491083
-0.0148417
-0.000397654
-0.0148408
-0.000303719
-0.01484
-0.000209363
-0.0148394
-0.000114673
-0.0148389
-1.9736e-05
-0.0148385
7.53584e-05
-0.0148383
0.000170521
-0.0148382
0.00026566
-0.0148382
0.000360686
-0.0148384
0.000455509
-0.0148387
0.000550037
-0.0148392
0.000644181
-0.0148398
0.000737851
-0.0148406
0.000830961
-0.0148414
0.000923422
-0.0148425
0.00101515
-0.0148436
0.00110606
-0.0148449
-0.0148463
-0.000439506
-0.0149125
0.000509286
-0.00036925
-0.014912
-0.000298575
-0.0149115
-0.000227542
-0.0149111
-0.000156211
-0.0149107
-8.46439e-05
-0.0149104
-1.29037e-05
-0.0149102
5.89459e-05
-0.0149101
0.000130841
-0.0149101
0.000202716
-0.0149101
0.000274506
-0.0149102
0.000346148
-0.0149104
0.000417576
-0.0149106
0.000488725
-0.014911
0.000559533
-0.0149114
0.000629935
-0.0149118
0.00069987
-0.0149124
0.000769274
-0.014913
0.000838089
-0.0149137
-0.0149145
-0.000306348
-0.0149615
0.000355276
-0.000257102
-0.0149612
-0.000207579
-0.014961
-0.000157819
-0.0149608
-0.000107862
-0.0149607
-5.77508e-05
-0.0149606
-7.52794e-06
-0.0149605
4.27638e-05
-0.0149604
9.30811e-05
-0.0149604
0.000143381
-0.0149604
0.000193619
-0.0149604
0.000243751
-0.0149605
0.000293736
-0.0149606
0.000343528
-0.0149608
0.000393085
-0.0149609
0.000442363
-0.0149611
0.000491317
-0.0149613
0.000539904
-0.0149616
0.000588079
-0.0149619
-0.0149621
-0.000180833
-0.0149904
0.000209751
-0.000151733
-0.0149903
-0.000122474
-0.0149903
-9.30788e-05
-0.0149902
-6.35722e-05
-0.0149902
-3.39785e-05
-0.0149902
-4.32251e-06
-0.0149901
2.53706e-05
-0.0149901
5.50755e-05
-0.0149901
8.47665e-05
-0.0149901
0.000114418
-0.0149901
0.000144005
-0.0149901
0.000173502
-0.0149901
0.000202883
-0.0149901
0.000232123
-0.0149902
0.000261198
-0.0149902
0.000290082
-0.0149902
0.00031875
-0.0149903
0.000347173
-0.0149903
-0.0149904
-5.98369e-05
6.94493e-05
-5.01633e-05
-4.04358e-05
-3.06614e-05
-2.08475e-05
-1.10013e-05
-1.13006e-06
8.75889e-06
1.86585e-05
2.85617e-05
3.8462e-05
4.83529e-05
5.82289e-05
6.80846e-05
7.7916e-05
8.77199e-05
9.74948e-05
0.000107241
0.000116962
-0.0278891
-0.0136956
0.0144923
0.0270924
-0.0287881
-0.013614
0.014513
-0.0298295
-0.0135207
0.0145621
-0.031025
-0.013427
0.0146224
-0.0323807
-0.0133345
0.0146902
-0.0338951
-0.0132449
0.0147593
-0.0355566
-0.0131585
0.0148201
-0.0373422
-0.0130737
0.0148593
-0.0392153
-0.0129869
0.01486
-0.0411257
-0.0128911
0.0148015
-0.0430102
-0.0127761
0.0146605
-0.0447938
-0.0126278
0.0144114
-0.0463924
-0.0124286
0.0140273
-0.0477156
-0.0121575
0.0134807
-0.0486686
-0.0117904
0.0127434
-0.0491519
-0.0113021
0.0117853
-0.0490543
-0.010668
0.0105704
-0.0482415
-0.00986533
0.00905254
-0.0465428
-0.00886695
0.0071682
-0.00763545
0.00475622
-0.0210175
-0.0135764
0.0208983
-0.0211553
-0.0134762
-0.0213086
-0.0133674
-0.021491
-0.0132446
-0.0217179
-0.0131076
-0.0220068
-0.012956
-0.0223752
-0.01279
-0.0228389
-0.0126101
-0.0234088
-0.012417
-0.0240884
-0.0122115
-0.0248705
-0.0119939
-0.0257342
-0.0117641
-0.0266423
-0.0115206
-0.0275397
-0.01126
-0.0283522
-0.0109779
-0.0289861
-0.0106681
-0.0293299
-0.0103241
-0.0292563
-0.00993893
-0.0286148
-0.00950843
-0.00904216
-0.0216732
-0.0133876
0.0214843
-0.0218461
-0.0133033
-0.0220029
-0.0132105
-0.0221364
-0.0131112
-0.02224
-0.013004
-0.022308
-0.012888
-0.0223362
-0.0127618
-0.0223223
-0.012624
-0.0222656
-0.0124737
-0.0221673
-0.0123098
-0.0220292
-0.012132
-0.0218532
-0.0119401
-0.0216389
-0.0117349
-0.0213818
-0.0115172
-0.021071
-0.0112887
-0.0206878
-0.0110513
-0.0202044
-0.0108076
-0.019583
-0.0105602
-0.0187786
-0.0103129
-0.0100704
-0.0169078
-0.0133643
0.0168845
-0.0169352
-0.0132759
-0.0169624
-0.0131834
-0.0169869
-0.0130867
-0.0170051
-0.0129858
-0.0170123
-0.0128808
-0.0170023
-0.0127718
-0.0169675
-0.0126588
-0.0168994
-0.0125418
-0.0167887
-0.0124205
-0.0166257
-0.0122949
-0.0164011
-0.0121648
-0.016106
-0.01203
-0.0157327
-0.0118905
-0.0152747
-0.0117467
-0.014727
-0.011599
-0.0140863
-0.0114484
-0.0133502
-0.0112963
-0.0125185
-0.0111446
-0.0109957
-0.0152808
-0.013468
0.0153844
-0.0151587
-0.0133979
-0.0150182
-0.0133238
-0.0148586
-0.0132463
-0.014679
-0.0131653
-0.0144788
-0.013081
-0.0142574
-0.0129933
-0.0140139
-0.0129024
-0.0137472
-0.0128085
-0.0134559
-0.0127119
-0.0131378
-0.012613
-0.0127902
-0.0125123
-0.0124097
-0.0124104
-0.0119925
-0.0123078
-0.011534
-0.0122052
-0.0110297
-0.0121033
-0.0104752
-0.0120028
-0.0098668
-0.0119047
-0.00920174
-0.0118097
-0.0117187
-0.0126671
-0.0135868
0.012786
-0.0125371
-0.0135279
-0.0123938
-0.0134672
-0.012235
-0.0134051
-0.0120587
-0.0133416
-0.0118628
-0.0132769
-0.0116451
-0.0132109
-0.0114036
-0.0131439
-0.0111362
-0.0130758
-0.0108411
-0.0130069
-0.0105168
-0.0129373
-0.0101619
-0.0128672
-0.00977543
-0.0127969
-0.00935658
-0.0127266
-0.00890498
-0.0126568
-0.00842053
-0.0125877
-0.0079034
-0.01252
-0.00735409
-0.012454
-0.00677337
-0.0123904
-0.0123297
-0.0109145
-0.0137564
0.011084
-0.0107328
-0.0137096
-0.0105384
-0.0136616
-0.010331
-0.0136126
-0.01011
-0.0135626
-0.00987496
-0.0135119
-0.00962545
-0.0134605
-0.00936083
-0.0134085
-0.00908043
-0.0133562
-0.00878357
-0.0133038
-0.00846947
-0.0132514
-0.00813736
-0.0131993
-0.00778648
-0.0131478
-0.0074161
-0.013097
-0.00702558
-0.0130473
-0.00661442
-0.0129989
-0.0061823
-0.0129521
-0.00572913
-0.0129072
-0.00525507
-0.0128645
-0.0128242
-0.00925589
-0.0139208
0.00942033
-0.00908134
-0.0138842
-0.00889611
-0.0138468
-0.00869951
-0.0138092
-0.00849094
-0.0137712
-0.00826981
-0.013733
-0.00803557
-0.0136947
-0.00778776
-0.0136563
-0.00752597
-0.013618
-0.00724988
-0.0135799
-0.00695927
-0.013542
-0.00665398
-0.0135046
-0.00633397
-0.0134678
-0.00599929
-0.0134317
-0.00565009
-0.0133965
-0.00528662
-0.0133623
-0.00490923
-0.0133295
-0.00451836
-0.0132981
-0.00411456
-0.0132683
-0.0132403
-0.00790375
-0.0140899
0.00807281
-0.00772664
-0.0140613
-0.0075411
-0.0140324
-0.00734694
-0.0140033
-0.00714399
-0.0139741
-0.00693207
-0.0139449
-0.00671101
-0.0139158
-0.00648065
-0.0138867
-0.00624082
-0.0138579
-0.00599138
-0.0138293
-0.00573222
-0.0138012
-0.00546326
-0.0137736
-0.00518442
-0.0137466
-0.00489572
-0.0137204
-0.0045972
-0.013695
-0.00428897
-0.0136706
-0.00397119
-0.0136473
-0.00364413
-0.0136251
-0.00330812
-0.0136043
-0.0135849
-0.00674123
-0.0142463
0.00689765
-0.00657797
-0.0142245
-0.00640776
-0.0142026
-0.00623043
-0.0141807
-0.00604582
-0.0141588
-0.00585381
-0.014137
-0.00565428
-0.0141153
-0.00544716
-0.0140938
-0.00523242
-0.0140726
-0.00501003
-0.0140517
-0.00478003
-0.0140312
-0.00454247
-0.0140111
-0.00429747
-0.0139916
-0.00404516
-0.0139727
-0.00378573
-0.0139544
-0.00351938
-0.0139369
-0.00324639
-0.0139202
-0.00296704
-0.0139045
-0.00268166
-0.0138897
-0.0138759
-0.00573227
-0.0143916
0.00587756
-0.00558176
-0.014375
-0.00542587
-0.0143585
-0.00526455
-0.014342
-0.00509775
-0.0143256
-0.00492545
-0.0143093
-0.00474762
-0.0142931
-0.00456426
-0.0142772
-0.00437537
-0.0142615
-0.00418098
-0.0142461
-0.00398113
-0.0142311
-0.00377588
-0.0142164
-0.00356531
-0.0142022
-0.00334951
-0.0141885
-0.00312863
-0.0141753
-0.00290281
-0.0141627
-0.00267224
-0.0141508
-0.00243711
-0.0141396
-0.00219767
-0.0141291
-0.0141194
-0.00486469
-0.0145212
0.00499434
-0.00473071
-0.014509
-0.00459238
-0.0144968
-0.00444968
-0.0144847
-0.00430259
-0.0144726
-0.0041511
-0.0144607
-0.00399523
-0.014449
-0.00383499
-0.0144374
-0.00367042
-0.0144261
-0.00350157
-0.0144149
-0.00332851
-0.0144041
-0.00315132
-0.0143936
-0.00297011
-0.0143834
-0.00278499
-0.0143736
-0.0025961
-0.0143642
-0.00240358
-0.0143553
-0.00220761
-0.0143468
-0.00200838
-0.0143388
-0.00180608
-0.0143314
-0.0143246
-0.00409109
-0.0146356
0.00420547
-0.0039734
-0.0146267
-0.00385235
-0.0146179
-0.00372792
-0.0146091
-0.00360014
-0.0146004
-0.00346901
-0.0145919
-0.00333456
-0.0145834
-0.00319683
-0.0145751
-0.00305585
-0.014567
-0.00291168
-0.0145591
-0.00276438
-0.0145514
-0.00261402
-0.014544
-0.00246068
-0.0145368
-0.00230445
-0.0145298
-0.00214543
-0.0145232
-0.00198375
-0.0145169
-0.00181953
-0.014511
-0.00165291
-0.0145054
-0.00148403
-0.0145003
-0.0144955
-0.00340821
-0.0147338
0.00350643
-0.00330728
-0.0147276
-0.00320369
-0.0147215
-0.00309743
-0.0147154
-0.00298852
-0.0147093
-0.00287699
-0.0147034
-0.00276287
-0.0146976
-0.00264619
-0.0146918
-0.00252699
-0.0146862
-0.00240532
-0.0146808
-0.00228126
-0.0146755
-0.00215485
-0.0146704
-0.00202618
-0.0146654
-0.00189533
-0.0146607
-0.00176239
-0.0146562
-0.00162746
-0.0146519
-0.00149065
-0.0146478
-0.00135206
-0.014644
-0.00121181
-0.0146405
-0.0146373
-0.00278418
-0.0148163
0.00286662
-0.00269969
-0.0148121
-0.00261314
-0.014808
-0.00252456
-0.0148039
-0.00243396
-0.0147999
-0.00234137
-0.014796
-0.00224681
-0.0147921
-0.00215032
-0.0147883
-0.00205193
-0.0147846
-0.00195169
-0.014781
-0.00184965
-0.0147775
-0.00174586
-0.0147741
-0.00164038
-0.0147709
-0.00153328
-0.0147678
-0.00142462
-0.0147648
-0.00131448
-0.014762
-0.00120294
-0.0147594
-0.00109009
-0.0147569
-0.000976011
-0.0147546
-0.0147525
-0.00221557
-0.0148831
0.00228235
-0.0021472
-0.0148805
-0.00207725
-0.014878
-0.00200575
-0.0148754
-0.00193271
-0.014873
-0.00185815
-0.0148705
-0.0017821
-0.0148682
-0.00170458
-0.0148658
-0.00162564
-0.0148636
-0.00154531
-0.0148614
-0.00146362
-0.0148592
-0.00138062
-0.0148571
-0.00129636
-0.0148552
-0.0012109
-0.0148533
-0.00112428
-0.0148514
-0.00103657
-0.0148497
-0.000947829
-0.0148481
-0.000858122
-0.0148466
-0.00076752
-0.0148452
-0.0148439
-0.00168311
-0.0149345
0.00173459
-0.00163048
-0.0149331
-0.00157671
-0.0149317
-0.0015218
-0.0149304
-0.00146577
-0.014929
-0.00140864
-0.0149277
-0.00135042
-0.0149264
-0.00129116
-0.0149251
-0.00123086
-0.0149239
-0.00116956
-0.0149227
-0.00110728
-0.0149215
-0.00104406
-0.0149204
-0.000979944
-0.0149193
-0.000914957
-0.0149182
-0.000849144
-0.0149173
-0.000782549
-0.0149163
-0.000715216
-0.0149154
-0.000647195
-0.0149146
-0.000578534
-0.0149139
-0.0149132
-0.00118192
-0.0149709
0.00121831
-0.00114469
-0.0149703
-0.00110666
-0.0149698
-0.00106785
-0.0149692
-0.00102826
-0.0149686
-0.000987916
-0.014968
-0.000946829
-0.0149675
-0.000905019
-0.0149669
-0.000862504
-0.0149664
-0.000819304
-0.0149659
-0.000775441
-0.0149653
-0.000730939
-0.0149649
-0.000685823
-0.0149644
-0.000640119
-0.0149639
-0.000593857
-0.0149635
-0.000547067
-0.0149631
-0.000499779
-0.0149627
-0.000452028
-0.0149624
-0.000403849
-0.014962
-0.0149617
-0.000699422
-0.0149926
0.000721104
-0.00067732
-0.0149924
-0.000654744
-0.0149923
-0.000631707
-0.0149922
-0.000608216
-0.0149921
-0.000584283
-0.014992
-0.000559917
-0.0149918
-0.000535128
-0.0149917
-0.000509928
-0.0149916
-0.000484329
-0.0149915
-0.000458344
-0.0149913
-0.000431987
-0.0149912
-0.000405274
-0.0149911
-0.000378221
-0.014991
-0.000350843
-0.0149909
-0.00032316
-0.0149908
-0.000295189
-0.0149907
-0.00026695
-0.0149906
-0.000238464
-0.0149905
-0.0149905
-0.000233227
0.000240619
-0.000225673
-0.000218003
-0.000210211
-0.000202295
-0.000194252
-0.000186082
-0.000177786
-0.000169364
-0.000160819
-0.000152153
-0.000143371
-0.000134475
-0.00012547
-0.000116361
-0.000107153
-9.7852e-05
-8.84636e-05
-7.89939e-05
-0.0103035
-0.00252749
0.012831
-0.00825124
-0.00205228
-0.00656852
-0.00168273
-0.00518148
-0.00138703
-0.00403642
-0.00114506
-0.00309247
-0.000943953
-0.00231776
-0.000774707
-0.00168698
-0.000630782
-0.00117961
-0.000507375
-0.000778678
-0.000400927
-0.000469874
-0.000308804
-0.000240779
-0.000229094
-8.03019e-05
-0.000160477
2.18636e-05
-0.000102165
7.57656e-05
-5.39019e-05
9.19352e-05
-1.61696e-05
8.01704e-05
1.17648e-05
5.10555e-05
2.9115e-05
1.86994e-05
3.23561e-05
1.86995e-05
-0.0098199
-0.00347264
0.0107651
-0.00880104
-0.00307115
-0.00777308
-0.00271068
-0.00677518
-0.00238494
-0.00583056
-0.00208968
-0.0049531
-0.00182142
-0.00415058
-0.00157723
-0.0034267
-0.00135465
-0.0027824
-0.00115168
-0.00221665
-0.000966681
-0.00172702
-0.000798431
-0.00131008
-0.00064604
-0.000961599
-0.000508956
-0.000676811
-0.000386952
-0.000450586
-0.000280127
-0.000277862
-0.000188894
-0.000152134
-0.000113962
-6.66653e-05
-5.63539e-05
-1.70025e-05
-1.73065e-05
1.69723e-06
-0.0073486
-0.00404856
0.00792451
-0.00671822
-0.00370153
-0.006062
-0.0033669
-0.00540059
-0.00304635
-0.0047501
-0.00274017
-0.004123
-0.00244852
-0.00352874
-0.00217149
-0.00297429
-0.0019091
-0.00246458
-0.00166138
-0.00200288
-0.00142839
-0.00159104
-0.00121027
-0.00122978
-0.0010073
-0.000918862
-0.000819874
-0.00065725
-0.000648565
-0.000443271
-0.000494106
-0.000274752
-0.000357414
-0.000149124
-0.00023959
-6.35628e-05
-0.000141915
-1.50306e-05
-6.58386e-05
-1.33334e-05
-0.00528907
-0.00453153
0.00577204
-0.00480465
-0.00418595
-0.00432375
-0.0038478
-0.00385207
-0.00351804
-0.00339474
-0.00319749
-0.00295637
-0.00288689
-0.00254098
-0.00258688
-0.00215198
-0.0022981
-0.00179221
-0.00202116
-0.00146387
-0.00175673
-0.00116859
-0.00150555
-0.000907432
-0.00126845
-0.000680903
-0.0010464
-0.000488976
-0.000840493
-0.0003311
-0.000651981
-0.000206224
-0.00048229
-0.000112811
-0.000333003
-4.88627e-05
-0.000205864
-1.19519e-05
-0.000102749
-2.52852e-05
-0.00434151
-0.00501899
0.00482897
-0.00387463
-0.00465283
-0.00343025
-0.00429218
-0.00300986
-0.00393843
-0.00261483
-0.00359252
-0.00224636
-0.00325536
-0.00190547
-0.00292778
-0.00159295
-0.00261061
-0.0013094
-0.00230471
-0.00105514
-0.00201099
-0.000830269
-0.00173042
-0.000634617
-0.00146411
-0.000467729
-0.00121329
-0.000328852
-0.000979369
-0.000216922
-0.000763912
-0.000130542
-0.000568669
-6.79743e-05
-0.000395571
-2.71301e-05
-0.000246708
-5.57645e-06
-0.000124303
-3.08617e-05
-0.00411773
-0.00555269
0.00465143
-0.00361923
-0.00515132
-0.00315595
-0.00475546
-0.00272794
-0.00436644
-0.00233504
-0.00398543
-0.00197688
-0.00361351
-0.00165293
-0.00325173
-0.00136244
-0.0029011
-0.00110452
-0.00256263
-0.000878121