x,y,z,U_0,U_1,U_2
0,0,0,0.3,-0.000223657,0
0,0.1,0,0.3,-0.000159755,0
0,0.2,0,0.3,-9.58528e-05,0
0,0.3,0,0.3,-3.19509e-05,0
0,0.4,0,0.3,0,0
0,0.5,0,0.3,0,0
0,0.6,0,0.3,0,0
0,0.7,0,0.3,-1.03054e-19,0
0,0.8,0,0.3,0,0
0,0.9,0,0.3,0,0
0,1,0,0.3,0,0
0,1.1,0,0.3,0,0
0,1.2,0,0.3,0,0
0,1.3,0,0.3,0,0
0,1.4,0,0.3,0,0
0,1.5,0,0.3,0,0
0,1.6,0,0.3,0,0
0,1.7,0,0.3,0,0
0,1.8,0,0.3,0,0
0,1.9,0,0.3,0,0
0,2,0,0.3,0,0
0,2.1,0,0.3,0,0
0,2.2,0,0.3,0,0
0,2.3,0,0.3,0,0
0,2.4,0,0.3,0,0
0,2.5,0,0.3,0,0
0,2.6,0,0.3,0,0
0,2.7,0,0.3,0,0
0,2.8,0,0.3,-8.57412e-20,0
0,2.9,0,0.3,0,0
0,3,0,0.3,0,0
0,3.1,0,0.3,0,0
0,3.2,0,0.3,0,0
0,3.3,0,0.3,0,0
0,3.4,0,0.3,0,0
0,3.5,0,0.3,0,0
0,3.6,0,0.3,0,0
0,3.7,0,0.3,0,0
0,3.8,0,0.3,0,0
0,3.9,0,0.3,0,0
0,4,0,0.3,0,0
0,4.1,0,0.3,0,0
0,4.2,0,0.3,0,0
0,4.3,0,0.3,0,0
0,4.4,0,0.3,0,0
0,4.5,0,0.3,0,0
0,4.6,0,0.3,0,0
0,4.7,0,0.3,0,0
0,4.8,0,0.3,0,0
0,4.9,0,0.3,-4.72043e-20,0
0,5,0,0.3,0,0
0,5.1,0,0.3,0,0
0,5.2,0,0.3,0,0
0,5.3,0,0.3,0,0
0,5.4,0,0.3,0,0
0,5.5,0,0.3,0,0
0,5.6,0,0.3,0,0
0,5.7,0,0.3,0,0
0,5.8,0,0.3,0,0
0,5.9,0,0.3,0,0
0,6,0,0.3,0,0
0,6.1,0,0.3,0,0
0,6.2,0,0.3,0,0
0,6.3,0,0.3,-9.29456e-21,0
0,6.4,0,0.3,0,0
0,6.5,0,0.3,0,0
0,6.6,0,0.3,0,0
0,6.7,0,0.3,0,0
0,6.8,0,0.3,0,0
0,6.9,0,0.3,0,0
0,7,0,0.3,0,0
0,7.1,0,0.3,0,0
0,7.2,0,0.3,0,0
0,7.3,0,0.3,0,0
0,7.4,0,0.3,0,0
0,7.5,0,0.3,0,0
0,7.6,0,0.3,0,0
0,7.7,0,0.3,3.15194e-20,0
0,7.8,0,0.3,0,0
0,7.9,0,0.3,0,0
0,8,0,0.3,0,0
0,8.1,0,0.3,0,0
0,8.2,0,0.3,0,0
0,8.3,0,0.3,0,0
0,8.4,0,0.3,0,0
0,8.5,0,0.3,0,0
0,8.6,0,0.3,0,0
0,8.7,0,0.3,0,0
0,8.8,0,0.3,0,0
0,8.9,0,0.3,0,0
0,9,0,0.3,0,0
0,9.1,0,0.3,0,0
0,9.2,0,0.3,0,0
0,9.3,0,0.3,0,0
0,9.4,0,0.3,0,0
0,9.5,0,0.3,0,0
0,9.6,0,0.3,0,0
0,9.7,0,0.3,0,0
0,9.8,0,0.3,0,0
0,9.9,0,0.3,0,0
0,10,0,0.3,0,0
0,10.1,0,0.3,0,0
0,10.2,0,0.3,0,0
0,10.3,0,0.3,0,0
0,10.4,0,0.3,0,0
0,10.5,0,0.3,0,0
0,10.6,0,0.3,0,0
0,10.7,0,0.3,0,0
0,10.8,0,0.3,0,0
0,10.9,0,0.3,0,0
0,11,0,0.3,0,0
0,11.1,0,0.3,0,0
0,11.2,0,0.3,0,0
0,11.3,0,0.3,0,0
0,11.4,0,0.3,0,0
0,11.5,0,0.3,0,0
0,11.6,0,0.3,0,0
0,11.7,0,0.3,0,0
0,11.8,0,0.3,0,0
0,11.9,0,0.3,0,0
0,12,0,0.3,0,0
0,12.1,0,0.3,0,0
0,12.2,0,0.3,0,0
0,12.3,0,0.3,0,0
0,12.4,0,0.3,0,0
0,12.5,0,0.3,3.60583e-05,0
0,12.6,0,0.3,0.000139082,0
0,12.7,0,0.3,0.000242105,0
0.1,0,0,0.3,-0.00035365,0
0.1,0.1,0,0.3,-0.000288028,0
0.1,0.2,0,0.3,-0.000224126,0
0.1,0.3,0,0.3,-0.000169205,0
0.1,0.4,0,0.3,-0.000168442,0
0.1,0.5,0,0.3,-0.000167967,0
0.1,0.6,0,0.3,-0.000167967,0
0.1,0.7,0,0.299998,-0.000168768,0
0.1,0.8,0,0.3,-0.000166002,0
0.1,0.9,0,0.3,-0.000166002,0
0.1,1,0,0.299999,-0.000166091,0
0.1,1.1,0,0.299999,-0.000163751,0
0.1,1.2,0,0.3,-0.000163024,0
0.1,1.3,0,0.3,-0.000163024,0
0.1,1.4,0,0.299997,-0.000163121,0
0.1,1.5,0,0.3,-0.000159007,0
0.1,1.6,0,0.3,-0.000159007,0
0.1,1.7,0,0.299999,-0.00015898,0
0.1,1.8,0,0.299999,-0.000154972,0
0.1,1.9,0,0.299999,-0.000153906,0
0.1,2,0,0.299999,-0.000153906,0
0.1,2.1,0,0.299995,-0.000153688,0
0.1,2.2,0,0.299999,-0.000147671,0
0.1,2.3,0,0.299999,-0.000147671,0
0.1,2.4,0,0.299998,-0.000147641,0
0.1,2.5,0,0.299998,-0.000141815,0
0.1,2.6,0,0.299999,-0.000140255,0
0.1,2.7,0,0.299999,-0.000140255,0
0.1,2.8,0,0.299993,-0.000140416,0
0.1,2.9,0,0.299999,-0.000131634,0
0.1,3,0,0.299999,-0.000131634,0
0.1,3.1,0,0.299998,-0.000131784,0
0.1,3.2,0,0.299997,-0.000124074,0
0.1,3.3,0,0.299999,-0.000121822,0
0.1,3.4,0,0.299999,-0.000121822,0
0.1,3.5,0,0.299992,-0.000123283,0
0.1,3.6,0,0.299998,-0.000110898,0
0.1,3.7,0,0.299998,-0.000110898,0
0.1,3.8,0,0.299997,-0.000111406,0
0.1,3.9,0,0.299996,-0.000102085,0
0.1,4,0,0.299998,-9.90356e-05,0
0.1,4.1,0,0.299998,-9.90356e-05,0
0.1,4.2,0,0.29999,-0.000102279,0
0.1,4.3,0,0.299997,-8.65193e-05,0
0.1,4.4,0,0.299997,-8.65193e-05,0
0.1,4.5,0,0.299996,-8.73294e-05,0
0.1,4.6,0,0.299996,-7.7288e-05,0
0.1,4.7,0,0.299998,-7.37393e-05,0
0.1,4.8,0,0.299998,-7.37393e-05,0
0.1,4.9,0,0.299989,-7.73052e-05,0
0.1,5,0,0.299999,-6.1132e-05,0
0.1,5.1,0,0.299999,-6.1132e-05,0
0.1,5.2,0,0.299997,-6.15894e-05,0
0.1,5.3,0,0.299999,-5.20948e-05,0
0.1,5.4,0,0.300002,-4.9048e-05,0
0.1,5.5,0,0.300002,-4.9048e-05,0
0.1,5.6,0,0.299988,-4.81828e-05,0
0.1,5.7,0,0.300008,-3.75767e-05,0
0.1,5.8,0,0.300008,-3.75767e-05,0
0.1,5.9,0,0.300004,-3.64093e-05,0
0.1,6,0,0.300011,-2.76214e-05,0
0.1,6.1,0,0.300017,-2.63921e-05,0
0.1,6.2,0,0.300017,-2.63921e-05,0
0.1,6.3,0,0.299986,-1.52214e-05,0
0.1,6.4,0,0.300028,-1.46317e-05,0
0.1,6.5,0,0.300028,-1.46317e-05,0
0.1,6.6,0,0.300019,-1.09713e-05,0
0.1,6.7,0,0.300028,-1.55028e-06,0
0.1,6.8,0,0.30004,-2.64137e-06,0
0.1,6.9,0,0.30004,-2.64137e-06,0
0.1,7,0,0.299982,1.69422e-05,0
0.1,7.1,0,0.299982,2.44844e-05,0
0.1,7.2,0,0.299981,2.90348e-05,0
0.1,7.3,0,0.299981,3.35599e-05,0
0.1,7.4,0,0.299981,3.80876e-05,0
0.1,7.5,0,0.299981,4.26111e-05,0
0.1,7.6,0,0.299981,4.71232e-05,0
0.1,7.7,0,0.299981,5.16185e-05,0
0.1,7.8,0,0.299981,5.60919e-05,0
0.1,7.9,0,0.299981,6.05608e-05,0
0.1,8,0,0.299982,6.65967e-05,0
0.1,8.1,0,0.30005,7.75069e-05,0
0.1,8.2,0,0.300038,7.72465e-05,0
0.1,8.3,0,0.300043,8.82171e-05,0
0.1,8.4,0,0.300043,8.82171e-05,0
0.1,8.5,0,0.30002,9.47158e-05,0
0.1,8.6,0,0.300035,9.79022e-05,0
0.1,8.7,0,0.299992,9.80861e-05,0
0.1,8.8,0,0.300026,0.000106616,0
0.1,8.9,0,0.300023,0.000106748,0
0.1,9,0,0.300017,0.000114335,0
0.1,9.1,0,0.300017,0.000114335,0
0.1,9.2,0,0.300001,0.000120267,0
0.1,9.3,0,0.300009,0.000121252,0
0.1,9.4,0,0.299994,0.000126896,0
0.1,9.5,0,0.300003,0.000127612,0
0.1,9.6,0,0.300003,0.000127612,0
0.1,9.7,0,0.299999,0.00013365,0
0.1,9.8,0,0.299999,0.00013365,0
0.1,9.9,0,0.299994,0.000143224,0
0.1,10,0,0.299996,0.000139552,0
0.1,10.1,0,0.299994,0.000149208,0
0.1,10.2,0,0.299995,0.000145418,0
0.1,10.3,0,0.299995,0.000145418,0
0.1,10.4,0,0.299995,0.000151264,0
0.1,10.5,0,0.299995,0.000151264,0
0.1,10.6,0,0.299994,0.000164379,0
0.1,10.7,0,0.299995,0.00015703,0
0.1,10.8,0,0.299994,0.000166204,0
0.1,10.9,0,0.299996,0.000162604,0
0.1,11,0,0.299996,0.000162604,0
0.1,11.1,0,0.299996,0.000167851,0
0.1,11.2,0,0.299996,0.000167851,0
0.1,11.3,0,0.299995,0.000181374,0
0.1,11.4,0,0.299997,0.000172635,0
0.1,11.5,0,0.299996,0.000178964,0
0.1,11.6,0,0.299997,0.000176829,0
0.1,11.7,0,0.299997,0.000176829,0
0.1,11.8,0,0.299998,0.000181012,0
0.1,11.9,0,0.299998,0.000180328,0
0.1,12,0,0.299997,0.000192285,0
0.1,12.1,0,0.299999,0.000183041,0
0.1,12.2,0,0.299998,0.000186687,0
0.1,12.3,0,0.299999,0.000184892,0
0.1,12.4,0,0.299999,0.000184892,0
0.1,12.5,0,0.3,0.000187749,0
0.1,12.6,0,0.299999,0.000280912,0
0.1,12.7,0,0.299999,0.000394799,0
0.2,0,0,0.299999,-0.000483643,0
0.2,0.1,0,0.3,-0.000417038,0
0.2,0.2,0,0.3,-0.000352399,0
0.2,0.3,0,0.299999,-0.000339389,0
0.2,0.4,0,0.299999,-0.000338626,0
0.2,0.5,0,0.3,-0.000335934,0
0.2,0.6,0,0.299999,-0.000336277,0
0.2,0.7,0,0.299997,-0.000337537,0
0.2,0.8,0,0.299999,-0.00033319,0
0.2,0.9,0,0.299999,-0.000332004,0
0.2,1,0,0.299997,-0.000332506,0
0.2,1.1,0,0.299997,-0.000330166,0
0.2,1.2,0,0.299999,-0.000326048,0
0.2,1.3,0,0.299998,-0.000326089,0
0.2,1.4,0,0.299994,-0.000326241,0
0.2,1.5,0,0.299998,-0.000319777,0
0.2,1.6,0,0.299999,-0.000318015,0
0.2,1.7,0,0.299995,-0.000317861,0
0.2,1.8,0,0.299995,-0.000313853,0
0.2,1.9,0,0.299999,-0.000307812,0
0.2,2,0,0.299997,-0.000307719,0
0.2,2.1,0,0.29999,-0.000307376,0
0.2,2.2,0,0.299997,-0.00029792,0
0.2,2.3,0,0.299999,-0.000295341,0
0.2,2.4,0,0.299993,-0.000295176,0
0.2,2.5,0,0.299992,-0.000289349,0
0.2,2.6,0,0.299998,-0.00028051,0
0.2,2.7,0,0.299995,-0.000280579,0
0.2,2.8,0,0.299987,-0.000280832,0
0.2,2.9,0,0.299995,-0.000267031,0
0.2,3,0,0.299998,-0.000263268,0
0.2,3.1,0,0.29999,-0.000264116,0
0.2,3.2,0,0.29999,-0.000256406,0
0.2,3.3,0,0.299997,-0.000243644,0
0.2,3.4,0,0.299994,-0.00024427,0
0.2,3.5,0,0.299984,-0.000246567,0
0.2,3.6,0,0.299994,-0.000227104,0
0.2,3.7,0,0.299996,-0.000221796,0
0.2,3.8,0,0.299988,-0.000224674,0
0.2,3.9,0,0.299987,-0.000215353,0
0.2,4,0,0.299996,-0.000198071,0
0.2,4.1,0,0.299992,-0.000199461,0
0.2,4.2,0,0.299981,-0.000204558,0
0.2,4.3,0,0.299992,-0.000179793,0
0.2,4.4,0,0.299995,-0.000173039,0
0.2,4.5,0,0.299986,-0.000177629,0
0.2,4.6,0,0.299986,-0.000167588,0
0.2,4.7,0,0.299996,-0.000147479,0
0.2,4.8,0,0.299992,-0.000149007,0
0.2,4.9,0,0.299979,-0.00015461,0
0.2,5,0,0.299994,-0.000129195,0
0.2,5.1,0,0.299998,-0.000122264,0
0.2,5.2,0,0.299986,-0.000124856,0
0.2,5.3,0,0.299988,-0.000115361,0
0.2,5.4,0,0.300004,-9.8096e-05,0
0.2,5.5,0,0.299998,-9.77252e-05,0
0.2,5.6,0,0.299976,-9.63656e-05,0
0.2,5.7,0,0.300008,-7.96989e-05,0
0.2,5.8,0,0.300016,-7.51535e-05,0
0.2,5.9,0,0.299991,-6.8538e-05,0
0.2,6,0,0.299998,-5.97501e-05,0
0.2,6.1,0,0.300034,-5.27842e-05,0
0.2,6.2,0,0.300021,-4.79968e-05,0
0.2,6.3,0,0.299972,-3.04429e-05,0
0.2,6.4,0,0.300038,-2.95162e-05,0
0.2,6.5,0,0.300057,-2.92634e-05,0
0.2,6.6,0,0.300003,-8.52091e-06,0
0.2,6.7,0,0.300012,9.00073e-07,0
0.2,6.8,0,0.300081,-5.28273e-06,0
0.2,6.9,0,0.300056,3.11024e-06,0
0.2,7,0,0.299965,3.38845e-05,0
0.2,7.1,0,0.299963,4.89688e-05,0
0.2,7.2,0,0.299963,5.80695e-05,0
0.2,7.3,0,0.299962,6.71198e-05,0
0.2,7.4,0,0.299962,7.61753e-05,0
0.2,7.5,0,0.299961,8.52221e-05,0
0.2,7.6,0,0.299961,9.42465e-05,0
0.2,7.7,0,0.299962,0.000103237,0
0.2,7.8,0,0.299962,0.000112184,0
0.2,7.9,0,0.299963,0.000121122,0
0.2,8,0,0.299964,0.000133193,0
0.2,8.1,0,0.3001,0.000155014,0
0.2,8.2,0,0.300021,0.000153313,0
0.2,8.3,0,0.300057,0.000170618,0
0.2,8.4,0,0.300065,0.000176068,0
0.2,8.5,0,0.300004,0.000181921,0
0.2,8.6,0,0.30007,0.000195804,0
0.2,8.7,0,0.299977,0.000196197,0
0.2,8.8,0,0.300052,0.000213231,0
0.2,8.9,0,0.300011,0.000215432,0
0.2,9,0,0.300017,0.000225304,0
0.2,9.1,0,0.300028,0.000229782,0
0.2,9.2,0,0.29999,0.000239146,0
0.2,9.3,0,0.300019,0.000242503,0
0.2,9.4,0,0.299984,0.000255517,0
0.2,9.5,0,0.300007,0.000255223,0
0.2,9.6,0,0.299995,0.000264903,0
0.2,9.7,0,0.299992,0.000270283,0
0.2,9.8,0,0.299997,0.000268935,0
0.2,9.9,0,0.299985,0.000289678,0
0.2,10,0,0.299993,0.000279103,0
0.2,10.1,0,0.299986,0.00030364,0
0.2,10.2,0,0.29999,0.000290932,0
0.2,10.3,0,0.299988,0.000304378,0
0.2,10.4,0,0.299987,0.000311219,0
0.2,10.5,0,0.299989,0.000302711,0
0.2,10.6,0,0.299987,0.000332733,0
0.2,10.7,0,0.29999,0.00031406,0
0.2,10.8,0,0.299988,0.000340482,0
0.2,10.9,0,0.299991,0.000326698,0
0.2,11,0,0.29999,0.000337256,0
0.2,11.1,0,0.29999,0.000346739,0
0.2,11.2,0,0.299992,0.000335703,0
0.2,11.3,0,0.29999,0.000365419,0
0.2,11.4,0,0.299993,0.00034527,0
0.2,11.5,0,0.299992,0.000366854,0
0.2,11.6,0,0.299994,0.000356365,0
0.2,11.7,0,0.299994,0.000362128,0
0.2,11.8,0,0.299994,0.000372057,0
0.2,11.9,0,0.299996,0.000360656,0
0.2,12,0,0.299994,0.000385795,0
0.2,12.1,0,0.299997,0.000366083,0
0.2,12.2,0,0.299996,0.000381967,0
0.2,12.3,0,0.299998,0.000373542,0
0.2,12.4,0,0.299998,0.00037527,0
0.2,12.5,0,0.299998,0.0003841,0
0.2,12.6,0,0.299999,0.000422742,0
0.2,12.7,0,0.299998,0.000547492,0
0.3,0,0,0.299999,-0.000613636,0
0.3,0.1,0,0.299999,-0.000547031,0
0.3,0.2,0,0.3,-0.000507615,0
0.3,0.3,0,0.299998,-0.000509573,0
0.3,0.4,0,0.299998,-0.00050881,0
0.3,0.5,0,0.3,-0.000505326,0
0.3,0.6,0,0.299998,-0.000505046,0
0.3,0.7,0,0.299995,-0.000506305,0
0.3,0.8,0,0.299997,-0.000501958,0
0.3,0.9,0,0.299998,-0.000498272,0
0.3,1,0,0.299994,-0.000498921,0
0.3,1.1,0,0.299994,-0.000496581,0
0.3,1.2,0,0.299998,-0.000491252,0
0.3,1.3,0,0.299995,-0.00048921,0
0.3,1.4,0,0.299991,-0.000489362,0
0.3,1.5,0,0.299995,-0.000482898,0
0.3,1.6,0,0.299997,-0.000476941,0
0.3,1.7,0,0.299991,-0.000476742,0
0.3,1.8,0,0.299991,-0.000472734,0
0.3,1.9,0,0.299996,-0.000464917,0
0.3,2,0,0.299992,-0.000461407,0
0.3,2.1,0,0.299986,-0.000461064,0
0.3,2.2,0,0.299992,-0.000451608,0
0.3,2.3,0,0.299995,-0.000442924,0
0.3,2.4,0,0.299987,-0.00044271,0
0.3,2.5,0,0.299987,-0.000436883,0
0.3,2.6,0,0.299994,-0.000425444,0
0.3,2.7,0,0.299989,-0.000420995,0
0.3,2.8,0,0.29998,-0.000421248,0
0.3,2.9,0,0.299989,-0.000407448,0
0.3,3,0,0.299993,-0.000395351,0
0.3,3.1,0,0.299983,-0.000396448,0
0.3,3.2,0,0.299983,-0.000388739,0
0.3,3.3,0,0.299992,-0.000372222,0
0.3,3.4,0,0.299986,-0.000367554,0
0.3,3.5,0,0.299975,-0.00036985,0
0.3,3.6,0,0.299985,-0.000350388,0
0.3,3.7,0,0.29999,-0.000334218,0
0.3,3.8,0,0.299979,-0.000337942,0
0.3,3.9,0,0.299978,-0.000328621,0
0.3,4,0,0.299989,-0.000306256,0
0.3,4.1,0,0.299983,-0.00030174,0
0.3,4.2,0,0.299971,-0.000306836,0
0.3,4.3,0,0.299982,-0.000282071,0
0.3,4.4,0,0.299987,-0.000261988,0
0.3,4.5,0,0.299975,-0.000267929,0
0.3,4.6,0,0.299976,-0.000257888,0
0.3,4.7,0,0.299988,-0.000231864,0
0.3,4.8,0,0.299981,-0.000226312,0
0.3,4.9,0,0.299968,-0.000231916,0
0.3,5,0,0.299983,-0.000206501,0
0.3,5.1,0,0.29999,-0.000184768,0
0.3,5.2,0,0.299974,-0.000188122,0
0.3,5.3,0,0.299977,-0.000178628,0
0.3,5.4,0,0.299998,-0.000156284,0
0.3,5.5,0,0.299987,-0.000145908,0
0.3,5.6,0,0.299965,-0.000144548,0
0.3,5.7,0,0.299996,-0.000127882,0
0.3,5.8,0,0.300011,-0.000109228,0
0.3,5.9,0,0.299978,-0.000100667,0
0.3,6,0,0.299985,-9.18789e-05,0
0.3,6.1,0,0.300032,-8.28642e-05,0
0.3,6.2,0,0.300007,-6.32182e-05,0
0.3,6.3,0,0.299957,-4.56643e-05,0
0.3,6.4,0,0.300024,-4.47376e-05,0
0.3,6.5,0,0.300057,-3.29138e-05,0
0.3,6.6,0,0.299987,-6.07055e-06,0
0.3,6.7,0,0.299996,3.35043e-06,0
0.3,6.8,0,0.300085,-4.65085e-06,0
0.3,6.9,0,0.300038,2.00525e-05,0
0.3,7,0,0.299947,5.08267e-05,0
0.3,7.1,0,0.299945,7.34532e-05,0
0.3,7.2,0,0.299944,8.71043e-05,0
0.3,7.3,0,0.299943,0.00010068,0
0.3,7.4,0,0.299942,0.000114263,0
0.3,7.5,0,0.299942,0.000127833,0
0.3,7.6,0,0.299942,0.00014137,0
0.3,7.7,0,0.299942,0.000154855,0
0.3,7.8,0,0.299943,0.000168276,0
0.3,7.9,0,0.299944,0.000181682,0
0.3,8,0,0.299945,0.00019979,0
0.3,8.1,0,0.300105,0.000225325,0
0.3,8.2,0,0.300003,0.00022938,0
0.3,8.3,0,0.30004,0.000246684,0
0.3,8.4,0,0.300049,0.000263273,0
0.3,8.5,0,0.299988,0.000269126,0
0.3,8.6,0,0.300078,0.00029382,0
0.3,8.7,0,0.299963,0.000294307,0
0.3,8.8,0,0.300046,0.000313242,0
0.3,8.9,0,0.299998,0.000324117,0
0.3,9,0,0.300004,0.000333989,0
0.3,9.1,0,0.300017,0.000348661,0
0.3,9.2,0,0.299978,0.000358024,0
0.3,9.3,0,0.300019,0.000366714,0
0.3,9.4,0,0.299974,0.000384139,0
0.3,9.5,0,0.299998,0.000383737,0
0.3,9.6,0,0.299986,0.000402738,0
0.3,9.7,0,0.299983,0.000408118,0
0.3,9.8,0,0.299988,0.00041539,0
0.3,9.9,0,0.299977,0.000436133,0
0.3,10,0,0.299987,0.000424568,0
0.3,10.1,0,0.299978,0.000458072,0
0.3,10.2,0,0.299982,0.000445364,0
0.3,10.3,0,0.29998,0.000466115,0
0.3,10.4,0,0.29998,0.000472956,0
0.3,10.5,0,0.299982,0.000471065,0
0.3,10.6,0,0.29998,0.000501087,0
0.3,10.7,0,0.299984,0.000477887,0
0.3,10.8,0,0.299981,0.000514759,0
0.3,10.9,0,0.299985,0.000500976,0
0.3,11,0,0.299984,0.000516764,0
0.3,11.1,0,0.299984,0.000526246,0
0.3,11.2,0,0.299987,0.000518024,0
0.3,11.3,0,0.299985,0.000549463,0
0.3,11.4,0,0.299989,0.000523896,0
0.3,11.5,0,0.299987,0.000554744,0
0.3,11.6,0,0.29999,0.000544255,0
0.3,11.7,0,0.29999,0.000553173,0
0.3,11.8,0,0.299991,0.000563102,0
0.3,11.9,0,0.299994,0.000551221,0
0.3,12,0,0.299992,0.000579306,0
0.3,12.1,0,0.299995,0.000554804,0
0.3,12.2,0,0.299994,0.000577248,0
0.3,12.3,0,0.299996,0.000568822,0
0.3,12.4,0,0.299997,0.000571622,0
0.3,12.5,0,0.299997,0.000580451,0
0.3,12.6,0,0.299999,0.000571738,0
0.3,12.7,0,0.299998,0.000700185,0
0.4,0,0,0.299999,-0.00074363,0
0.4,0.1,0,0.299999,-0.000680018,0
0.4,0.2,0,0.299998,-0.000679273,0
0.4,0.3,0,0.299998,-0.000679757,0
0.4,0.4,0,0.299998,-0.000678994,0
0.4,0.5,0,0.299997,-0.000676197,0
0.4,0.6,0,0.299996,-0.000673973,0
0.4,0.7,0,0.299994,-0.000675074,0
0.4,0.8,0,0.299996,-0.000670756,0
0.4,0.9,0,0.299994,-0.000667058,0
0.4,1,0,0.299992,-0.000665336,0
0.4,1.1,0,0.299992,-0.000662996,0
0.4,1.2,0,0.299993,-0.00065775,0
0.4,1.3,0,0.299992,-0.000652573,0
0.4,1.4,0,0.299987,-0.000652483,0
0.4,1.5,0,0.299992,-0.00064601,0
0.4,1.6,0,0.29999,-0.000639347,0
0.4,1.7,0,0.299987,-0.000635623,0
0.4,1.8,0,0.299987,-0.000631615,0
0.4,1.9,0,0.299988,-0.000623611,0
0.4,2,0,0.299987,-0.00061545,0
0.4,2.1,0,0.299981,-0.000614752,0
0.4,2.2,0,0.299987,-0.000605286,0
0.4,2.3,0,0.299985,-0.000595616,0
0.4,2.4,0,0.299981,-0.000590244,0
0.4,2.5,0,0.299981,-0.000584418,0
0.4,2.6,0,0.299983,-0.000573117,0
0.4,2.7,0,0.299982,-0.000561931,0
0.4,2.8,0,0.299974,-0.000561664,0
0.4,2.9,0,0.299982,-0.000547914,0
0.4,3,0,0.299981,-0.000535211,0
0.4,3.1,0,0.299975,-0.000528781,0
0.4,3.2,0,0.299975,-0.000521071,0
0.4,3.3,0,0.299979,-0.000505808,0
0.4,3.4,0,0.299977,-0.000491588,0
0.4,3.5,0,0.299967,-0.000493134,0
0.4,3.6,0,0.299977,-0.000473841,0
0.4,3.7,0,0.299975,-0.000458102,0
0.4,3.8,0,0.29997,-0.00045121,0
0.4,3.9,0,0.299969,-0.000441889,0
0.4,4,0,0.299974,-0.000422304,0
0.4,4.1,0,0.299972,-0.000405035,0
0.4,4.2,0,0.299961,-0.000409115,0
0.4,4.3,0,0.299972,-0.00038462,0
0.4,4.4,0,0.299971,-0.000365796,0
0.4,4.5,0,0.299965,-0.000358229,0
0.4,4.6,0,0.299965,-0.000348188,0
0.4,4.7,0,0.299971,-0.00032522,0
0.4,4.8,0,0.29997,-0.0003048,0
0.4,4.9,0,0.299957,-0.000309221,0
0.4,5,0,0.299972,-0.000283958,0
0.4,5.1,0,0.299971,-0.000261897,0
0.4,5.2,0,0.299963,-0.000251389,0
0.4,5.3,0,0.299966,-0.000241894,0
0.4,5.4,0,0.299975,-0.000218809,0
0.4,5.5,0,0.299974,-0.000195106,0
0.4,5.6,0,0.299953,-0.000192731,0
0.4,5.7,0,0.299982,-0.000175675,0
0.4,5.8,0,0.299981,-0.000150448,0
0.4,5.9,0,0.299965,-0.000132796,0
0.4,6,0,0.299972,-0.000124008,0
0.4,6.1,0,0.299992,-0.000105418,0
0.4,6.2,0,0.29999,-7.88494e-05,0
0.4,6.3,0,0.299943,-6.08858e-05,0
0.4,6.4,0,0.300007,-5.87389e-05,0
0.4,6.5,0,0.300004,-3.09689e-05,0
0.4,6.6,0,0.299971,-3.6202e-06,0
0.4,6.7,0,0.29998,5.80079e-06,0
0.4,6.8,0,0.300019,1.45854e-05,0
0.4,6.9,0,0.300017,3.73584e-05,0
0.4,7,0,0.29993,6.77689e-05,0
0.4,7.1,0,0.299927,9.79377e-05,0
0.4,7.2,0,0.299925,0.000116139,0
0.4,7.3,0,0.299924,0.00013424,0
0.4,7.4,0,0.299923,0.000152351,0
0.4,7.5,0,0.299923,0.000170444,0
0.4,7.6,0,0.299923,0.000188493,0
0.4,7.7,0,0.299923,0.000206474,0
0.4,7.8,0,0.299924,0.000224368,0
0.4,7.9,0,0.299925,0.000242243,0
0.4,8,0,0.299927,0.000266387,0
0.4,8.1,0,0.30003,0.000290711,0
0.4,8.2,0,0.299986,0.000305447,0
0.4,8.3,0,0.300022,0.00032273,0
0.4,8.4,0,0.300025,0.000348798,0
0.4,8.5,0,0.299973,0.00035633,0
0.4,8.6,0,0.300016,0.000381688,0
0.4,8.7,0,0.299949,0.000392418,0
0.4,8.8,0,0.300005,0.000412849,0
0.4,8.9,0,0.299986,0.000432802,0
0.4,9,0,0.299992,0.000442674,0
0.4,9.1,0,0.299998,0.000466097,0
0.4,9.2,0,0.299967,0.000476903,0
0.4,9.3,0,0.299988,0.000492962,0
0.4,9.4,0,0.299964,0.00051276,0
0.4,9.5,0,0.29998,0.000518557,0
0.4,9.6,0,0.299977,0.000540573,0
0.4,9.7,0,0.299974,0.000545953,0
0.4,9.8,0,0.299977,0.000563403,0
0.4,9.9,0,0.299969,0.000582588,0
0.4,10,0,0.299974,0.000585903,0
0.4,10.1,0,0.29997,0.000612505,0
0.4,10.2,0,0.299973,0.000607782,0
0.4,10.3,0,0.299973,0.000627852,0
0.4,10.4,0,0.299973,0.000634693,0
0.4,10.5,0,0.299974,0.000644544,0
0.4,10.6,0,0.299973,0.000669441,0
0.4,10.7,0,0.299976,0.000663488,0
0.4,10.8,0,0.299975,0.000689037,0
0.4,10.9,0,0.299978,0.000681547,0
0.4,11,0,0.299978,0.000696271,0
0.4,11.1,0,0.299978,0.000705753,0
0.4,11.2,0,0.29998,0.000709137,0
0.4,11.3,0,0.299979,0.000733507,0
0.4,11.4,0,0.299983,0.000723195,0
0.4,11.5,0,0.299983,0.000742634,0
0.4,11.6,0,0.299985,0.000735774,0
0.4,11.7,0,0.299987,0.000744218,0
0.4,11.8,0,0.299987,0.000754147,0
0.4,11.9,0,0.299989,0.000752484,0
0.4,12,0,0.299989,0.000772816,0
0.4,12.1,0,0.299992,0.000760033,0
0.4,12.2,0,0.299993,0.000772528,0
0.4,12.3,0,0.299994,0.000765688,0
0.4,12.4,0,0.299996,0.000768194,0
0.4,12.5,0,0.299996,0.000776803,0
0.4,12.6,0,0.299998,0.000770252,0
0.4,12.7,0,0.299997,0.000852878,0
0.5,0,0,0.299998,-0.000873623,0
0.5,0.1,0,0.299998,-0.000851922,0
0.5,0.2,0,0.299997,-0.000851177,0
0.5,0.3,0,0.299997,-0.000850432,0
0.5,0.4,0,0.299996,-0.000849407,0
0.5,0.5,0,0.299995,-0.000847182,0
0.5,0.6,0,0.299994,-0.000844958,0
0.5,0.7,0,0.299992,-0.000843842,0
0.5,0.8,0,0.299992,-0.000839938,0
0.5,0.9,0,0.299991,-0.000836239,0
0.5,1,0,0.299989,-0.000832541,0
0.5,1.1,0,0.299989,-0.000829439,0
0.5,1.2,0,0.299988,-0.000824262,0
0.5,1.3,0,0.299987,-0.000819085,0
0.5,1.4,0,0.299984,-0.000815604,0
0.5,1.5,0,0.299985,-0.000809004,0
0.5,1.6,0,0.299983,-0.000802342,0
0.5,1.7,0,0.299982,-0.000795679,0
0.5,1.8,0,0.299981,-0.000790434,0
0.5,1.9,0,0.29998,-0.000782273,0
0.5,2,0,0.299979,-0.000774113,0
0.5,2.1,0,0.299976,-0.00076844,0
0.5,2.2,0,0.299977,-0.000758838,0
0.5,2.3,0,0.299976,-0.000749168,0
0.5,2.4,0,0.299974,-0.000739498,0
0.5,2.5,0,0.299974,-0.000731998,0
0.5,2.6,0,0.299972,-0.000720812,0
0.5,2.7,0,0.299971,-0.000709627,0
0.5,2.8,0,0.299967,-0.00070208,0
0.5,2.9,0,0.299969,-0.000689028,0
0.5,3,0,0.299968,-0.000676325,0
0.5,3.1,0,0.299967,-0.000663622,0
0.5,3.2,0,0.299966,-0.000653821,0
0.5,3.3,0,0.299965,-0.000639602,0
0.5,3.4,0,0.299963,-0.000625382,0
0.5,3.5,0,0.299959,-0.000616418,0
0.5,3.6,0,0.299961,-0.000599494,0
0.5,3.7,0,0.29996,-0.000583755,0
0.5,3.8,0,0.299959,-0.000568017,0
0.5,3.9,0,0.299958,-0.000556084,0
0.5,4,0,0.299957,-0.000538815,0
0.5,4.1,0,0.299956,-0.000521547,0
0.5,4.2,0,0.299951,-0.000511394,0
0.5,4.3,0,0.299954,-0.00049068,0
0.5,4.4,0,0.299954,-0.000471856,0
0.5,4.5,0,0.299953,-0.000453032,0
0.5,4.6,0,0.299953,-0.000439507,0
0.5,4.7,0,0.299952,-0.000419086,0
0.5,4.8,0,0.299951,-0.000398666,0
0.5,4.9,0,0.299947,-0.000386526,0
0.5,5,0,0.299951,-0.000363398,0
0.5,5.1,0,0.29995,-0.000341337,0
0.5,5.2,0,0.299949,-0.000319276,0
0.5,5.3,0,0.299951,-0.000304914,0
0.5,5.4,0,0.29995,-0.000281211,0
0.5,5.5,0,0.299949,-0.000257508,0
0.5,5.6,0,0.299941,-0.000240914,0
0.5,5.7,0,0.29995,-0.00021841,0
0.5,5.8,0,0.299948,-0.000193182,0
0.5,5.9,0,0.299947,-0.000167955,0
0.5,6,0,0.299951,-0.000152945,0
0.5,6.1,0,0.299948,-0.000126376,0
0.5,6.2,0,0.299946,-9.98075e-05,0
0.5,6.3,0,0.299929,-7.61072e-05,0
0.5,6.4,0,0.299948,-5.68783e-05,0
0.5,6.5,0,0.299945,-2.91083e-05,0
0.5,6.6,0,0.299942,-1.33834e-06,0
0.5,6.7,0,0.299947,1.38465e-05,0
0.5,6.8,0,0.299945,3.66194e-05,0
0.5,6.9,0,0.299943,5.93924e-05,0
0.5,7,0,0.299912,8.47112e-05,0
0.5,7.1,0,0.299908,0.000122422,0
0.5,7.2,0,0.299906,0.000145174,0
0.5,7.3,0,0.299905,0.000167799,0
0.5,7.4,0,0.299904,0.000190438,0
0.5,7.5,0,0.299904,0.000213055,0
0.5,7.6,0,0.299904,0.000235616,0
0.5,7.7,0,0.299904,0.000258092,0
0.5,7.8,0,0.299905,0.00028046,0
0.5,7.9,0,0.299906,0.000302804,0
0.5,8,0,0.299909,0.000332984,0
0.5,8.1,0,0.299945,0.000355868,0
0.5,8.2,0,0.299947,0.000378032,0
0.5,8.3,0,0.299946,0.000397784,0
0.5,8.4,0,0.299949,0.000423852,0
0.5,8.5,0,0.299947,0.000443578,0
0.5,8.6,0,0.299951,0.000469101,0
0.5,8.7,0,0.299935,0.000490528,0
0.5,8.8,0,0.299952,0.000513029,0
0.5,8.9,0,0.299956,0.000537777,0
0.5,9,0,0.299953,0.000555467,0
0.5,9.1,0,0.299956,0.000579325,0
0.5,9.2,0,0.299954,0.000596409,0
0.5,9.3,0,0.299957,0.00061921,0
0.5,9.4,0,0.299954,0.000641381,0
0.5,9.5,0,0.299958,0.000657402,0
0.5,9.6,0,0.29996,0.000678966,0
0.5,9.7,0,0.299959,0.000693868,0
0.5,9.8,0,0.299961,0.000714042,0
0.5,9.9,0,0.29996,0.000729043,0
0.5,10,0,0.299962,0.000747238,0
0.5,10.1,0,0.299962,0.000766937,0
0.5,10.2,0,0.299963,0.000778533,0
0.5,10.3,0,0.299964,0.00079563,0
0.5,10.4,0,0.299964,0.000807884,0
0.5,10.5,0,0.299965,0.000823371,0
0.5,10.6,0,0.299966,0.000837795,0
0.5,10.7,0,0.299967,0.000849089,0
0.5,10.8,0,0.299968,0.000863314,0
0.5,10.9,0,0.29997,0.000872728,0
0.5,11,0,0.299971,0.000884968,0
0.5,11.1,0,0.299972,0.000894219,0
0.5,11.2,0,0.299973,0.000904837,0
0.5,11.3,0,0.299974,0.000917552,0
0.5,11.4,0,0.299976,0.000922495,0
0.5,11.5,0,0.299978,0.000931495,0
0.5,11.6,0,0.299979,0.00093788,0
0.5,11.7,0,0.299981,0.000945265,0
0.5,11.8,0,0.299983,0.000950942,0
0.5,11.9,0,0.299985,0.000956712,0
0.5,12,0,0.299986,0.000966326,0
0.5,12.1,0,0.299988,0.000965782,0
0.5,12.2,0,0.29999,0.000969925,0
0.5,12.3,0,0.299992,0.000972427,0
0.5,12.4,0,0.299994,0.000974934,0
0.5,12.5,0,0.299995,0.000976621,0
0.5,12.6,0,0.299996,0.000977466,0
0.5,12.7,0,0.299997,0.00100557,0
0.6,0,0,0.299997,-0.00102599,0
0.6,0.1,0,0.299997,-0.0010243,0
0.6,0.2,0,0.299997,-0.00102356,0
0.6,0.3,0,0.299996,-0.00102281,0
0.6,0.4,0,0.299994,-0.00102086,0
0.6,0.5,0,0.299993,-0.00101864,0
0.6,0.6,0,0.299992,-0.00101641,0
0.6,0.7,0,0.299989,-0.00101461,0
0.6,0.8,0,0.299988,-0.00100959,0
0.6,0.9,0,0.299987,-0.00100589,0
0.6,1,0,0.299986,-0.00100219,0
0.6,1.1,0,0.299984,-0.000996421,0
0.6,1.2,0,0.299983,-0.000991244,0
0.6,1.3,0,0.299981,-0.000986067,0
0.6,1.4,0,0.299978,-0.000980683,0
0.6,1.5,0,0.299978,-0.000972473,0
0.6,1.6,0,0.299977,-0.000965811,0
0.6,1.7,0,0.299975,-0.000959149,0
0.6,1.8,0,0.299973,-0.000949575,0
0.6,1.9,0,0.299972,-0.000941415,0
0.6,2,0,0.299971,-0.000933254,0
0.6,2.1,0,0.299967,-0.000923974,0
0.6,2.2,0,0.299967,-0.000912872,0
0.6,2.3,0,0.299966,-0.000903202,0
0.6,2.4,0,0.299965,-0.000893532,0
0.6,2.5,0,0.299962,-0.000880176,0
0.6,2.6,0,0.299961,-0.00086899,0
0.6,2.7,0,0.29996,-0.000857805,0
0.6,2.8,0,0.299955,-0.000844055,0
0.6,2.9,0,0.299956,-0.000830626,0
0.6,3,0,0.299955,-0.000817923,0
0.6,3.1,0,0.299954,-0.00080522,0
0.6,3.2,0,0.299952,-0.000788098,0
0.6,3.3,0,0.29995,-0.000773878,0
0.6,3.4,0,0.299949,-0.000759658,0
0.6,3.5,0,0.299943,-0.000740678,0
0.6,3.6,0,0.299946,-0.000725632,0
0.6,3.7,0,0.299945,-0.000709893,0
0.6,3.8,0,0.299943,-0.000694154,0
0.6,3.9,0,0.299942,-0.000673085,0
0.6,4,0,0.299941,-0.000655816,0
0.6,4.1,0,0.299939,-0.000638547,0
0.6,4.2,0,0.299933,-0.000613762,0
0.6,4.3,0,0.299937,-0.00059724,0
0.6,4.4,0,0.299936,-0.000578416,0
0.6,4.5,0,0.299935,-0.000559592,0
0.6,4.6,0,0.299934,-0.000533888,0
0.6,4.7,0,0.299933,-0.000513468,0
0.6,4.8,0,0.299933,-0.000493048,0
0.6,4.9,0,0.299925,-0.000463068,0
0.6,5,0,0.29993,-0.000443366,0
0.6,5.1,0,0.299929,-0.000421305,0
0.6,5.2,0,0.299929,-0.000399244,0
0.6,5.3,0,0.299926,-0.000367832,0
0.6,5.4,0,0.299925,-0.000344129,0
0.6,5.5,0,0.299924,-0.000320426,0
0.6,5.6,0,0.299918,-0.000288308,0
0.6,5.7,0,0.299918,-0.000261598,0
0.6,5.8,0,0.299916,-0.000236371,0
0.6,5.9,0,0.299914,-0.000211143,0
0.6,6,0,0.299907,-0.000174303,0
0.6,6.1,0,0.299905,-0.000147734,0
0.6,6.2,0,0.299902,-0.000121165,0
0.6,6.3,0,0.299905,-9.19154e-05,0
0.6,6.4,0,0.29989,-5.53823e-05,0
0.6,6.5,0,0.299887,-2.76123e-05,0
0.6,6.6,0,0.299884,1.57664e-07,0
0.6,6.7,0,0.299873,3.9425e-05,0
0.6,6.8,0,0.29987,6.21979e-05,0
0.6,6.9,0,0.299868,8.49709e-05,0
0.6,7,0,0.299888,9.92937e-05,0
0.6,7.1,0,0.299884,0.000144892,0
0.6,7.2,0,0.299882,0.000172633,0
0.6,7.3,0,0.299881,0.000200258,0
0.6,7.4,0,0.29988,0.000227892,0
0.6,7.5,0,0.29988,0.000255498,0
0.6,7.6,0,0.29988,0.000283039,0
0.6,7.7,0,0.29988,0.00031048,0
0.6,7.8,0,0.299881,0.000337795,0
0.6,7.9,0,0.299883,0.000365057,0
0.6,8,0,0.299886,0.000401683,0
0.6,8.1,0,0.29986,0.00041928,0
0.6,8.2,0,0.299862,0.000441444,0
0.6,8.3,0,0.29987,0.000472915,0
0.6,8.4,0,0.299873,0.000498983,0
0.6,8.5,0,0.299882,0.000531147,0
0.6,8.6,0,0.299886,0.000556671,0
0.6,8.7,0,0.299903,0.000587269,0
0.6,8.8,0,0.299899,0.000613383,0
0.6,8.9,0,0.299903,0.000638131,0
0.6,9,0,0.299912,0.0006689,0
0.6,9.1,0,0.299915,0.000692758,0
0.6,9.2,0,0.299924,0.000722903,0
0.6,9.3,0,0.299926,0.000745704,0
0.6,9.4,0,0.299929,0.000769117,0
0.6,9.5,0,0.299935,0.000796529,0
0.6,9.6,0,0.299938,0.000818093,0
0.6,9.7,0,0.299943,0.00084482,0
0.6,9.8,0,0.299944,0.000864994,0
0.6,9.9,0,0.299947,0.000889719,0
0.6,10,0,0.299949,0.000908904,0
0.6,10.1,0,0.299948,0.000926345,0
0.6,10.2,0,0.299952,0.000949626,0
0.6,10.3,0,0.299953,0.000966723,0
0.6,10.4,0,0.299955,0.000987057,0
0.6,10.5,0,0.299956,0.00100254,0
0.6,10.6,0,0.299955,0.00101848,0
0.6,10.7,0,0.299959,0.00103504,0
0.6,10.8,0,0.29996,0.00104853,0
0.6,10.9,0,0.299962,0.00106425,0
0.6,11,0,0.299963,0.0010765,0
0.6,11.1,0,0.299964,0.00109027,0
0.6,11.2,0,0.299966,0.00110088,0
0.6,11.3,0,0.299966,0.00110932,0
0.6,11.4,0,0.29997,0.00112214,0
0.6,11.5,0,0.299971,0.00113114,0
0.6,11.6,0,0.299973,0.00114033,0
0.6,11.7,0,0.299975,0.00114772,0
0.6,11.8,0,0.299978,0.00115551,0
0.6,11.9,0,0.29998,0.00116128,0
0.6,12,0,0.299981,0.00116403,0
0.6,12.1,0,0.299985,0.00117188,0
0.6,12.2,0,0.299987,0.00117602,0
0.6,12.3,0,0.29999,0.00117952,0
0.6,12.4,0,0.299992,0.00118202,0
0.6,12.5,0,0.299994,0.0011842,0
0.6,12.6,0,0.299995,0.00118504,0
0.6,12.7,0,0.299996,0.00118232,0
0.7,0,0,0.299996,-0.00120074,0
0.7,0.1,0,0.299997,-0.00119715,0
0.7,0.2,0,0.299996,-0.00119641,0
0.7,0.3,0,0.299994,-0.00119665,0
0.7,0.4,0,0.299992,-0.00119444,0
0.7,0.5,0,0.299991,-0.00119056,0
0.7,0.6,0,0.29999,-0.00118833,0
0.7,0.7,0,0.299985,-0.00118739,0
0.7,0.8,0,0.299985,-0.00117971,0
0.7,0.9,0,0.299983,-0.00117601,0
0.7,1,0,0.29998,-0.0011725,0
0.7,1.1,0,0.299978,-0.00116597,0
0.7,1.2,0,0.299978,-0.0011587,0
0.7,1.3,0,0.299976,-0.00115352,0
0.7,1.4,0,0.299969,-0.00114772,0
0.7,1.5,0,0.299971,-0.00113642,0
0.7,1.6,0,0.29997,-0.00112975,0
0.7,1.7,0,0.299965,-0.00112221,0
0.7,1.8,0,0.299963,-0.00111141,0
0.7,1.9,0,0.299964,-0.00110103,0
0.7,2,0,0.299962,-0.00109287,0
0.7,2.1,0,0.299953,-0.00108135,0
0.7,2.2,0,0.299958,-0.00106739,0
0.7,2.3,0,0.299957,-0.00105772,0
0.7,2.4,0,0.299951,-0.00104553,0
0.7,2.5,0,0.299948,-0.00103051,0
0.7,2.6,0,0.29995,-0.00101765,0
0.7,2.7,0,0.299948,-0.00100647,0
0.7,2.8,0,0.299937,-0.000987588,0
0.7,2.9,0,0.299944,-0.000972706,0
0.7,3,0,0.299942,-0.000960004,0
0.7,3.1,0,0.299935,-0.000942209,0
0.7,3.2,0,0.299933,-0.000922995,0
0.7,3.3,0,0.299936,-0.000908637,0
0.7,3.4,0,0.299935,-0.000894417,0
0.7,3.5,0,0.29992,-0.000865914,0
0.7,3.6,0,0.29993,-0.000852254,0
0.7,3.7,0,0.299929,-0.000836515,0
0.7,3.8,0,0.299921,-0.00081204,0
0.7,3.9,0,0.299919,-0.000788361,0
0.7,4,0,0.299924,-0.000773306,0
0.7,4.1,0,0.299923,-0.000756037,0
0.7,4.2,0,0.299905,-0.00071622,0
0.7,4.3,0,0.299919,-0.0007043,0
0.7,4.4,0,0.299918,-0.000685476,0
0.7,4.5,0,0.299908,-0.000654134,0
0.7,4.6,0,0.299907,-0.000624956,0
0.7,4.7,0,0.299915,-0.000608365,0
0.7,4.8,0,0.299914,-0.000587945,0
0.7,4.9,0,0.299893,-0.000538847,0
0.7,5,0,0.299909,-0.000523862,0
0.7,5.1,0,0.299909,-0.000501801,0
0.7,5.2,0,0.299899,-0.000466098,0
0.7,5.3,0,0.299895,-0.000429812,0
0.7,5.4,0,0.2999,-0.000407565,0
0.7,5.5,0,0.299899,-0.000383862,0
0.7,5.6,0,0.299883,-0.000334914,0
0.7,5.7,0,0.299885,-0.00030524,0
0.7,5.8,0,0.299884,-0.000280012,0
0.7,5.9,0,0.29988,-0.000246162,0
0.7,6,0,0.299869,-0.000203069,0
0.7,6.1,0,0.299861,-0.000169492,0
0.7,6.2,0,0.299859,-0.000142923,0
0.7,6.3,0,0.299871,-0.00010831,0
0.7,6.4,0,0.299831,-5.42509e-05,0
0.7,6.5,0,0.299828,-2.64809e-05,0
0.7,6.6,0,0.299844,-3.52428e-07,0
0.7,6.7,0,0.299828,4.69125e-05,0
0.7,6.8,0,0.299795,9.1321e-05,0