/*--------------------------------*- C++ -*----------------------------------*\
| =========                 |                                                 |
| \\      /  F ield         | OpenFOAM: The Open Source CFD Toolbox           |
|  \\    /   O peration     | Version:  v1806                                 |
|   \\  /    A nd           | Web:      www.OpenFOAM.com                      |
|    \\/     M anipulation  |                                                 |
\*---------------------------------------------------------------------------*/
FoamFile
{
    version     2.0;
    format      ascii;
    class       volScalarField;
    location    "15";
    object      p;
}
// * * * * * * * * * * * * * * * * * * * * * * * * * * * * * * * * * * * * * //

dimensions      [0 2 -2 0 0 0 0];


internalField   nonuniform List<scalar> 
2400
(
0.109587
0.106063
0.103404
0.107076
0.105656
0.104525
0.101288
0.0991468
0.0981706
0.0954535
0.0911548
0.0883671
0.0811252
0.0776975
0.0700387
0.0611508
0.0567519
0.0436268
0.0409455
0.028303
0.326552
0.316973
0.31346
0.319633
0.317429
0.313152
0.305236
0.299733
0.29375
0.2884
0.273533
0.266057
0.245951
0.233639
0.213259
0.186557
0.172609
0.136999
0.124299
0.089968
0.541182
0.531573
0.526659
0.531456
0.529665
0.520972
0.511403
0.501617
0.491535
0.481528
0.45821
0.443695
0.414067
0.390799
0.358984
0.317974
0.289259
0.236185
0.208809
0.154514
0.755978
0.748362
0.742724
0.743366
0.743019
0.729482
0.720482
0.705684
0.692542
0.676435
0.646523
0.622645
0.58482
0.550637
0.506308
0.455332
0.406994
0.340022
0.292653
0.218076
0.969197
0.967346
0.962636
0.957161
0.958227
0.940262
0.933293
0.912603
0.899096
0.873553
0.842294
0.805439
0.761746
0.715646
0.657646
0.600505
0.527232
0.451171
0.375926
0.28276
1.18052
1.18848
1.18608
1.17478
1.17549
1.15438
1.15068
1.12409
1.11267
1.07529
1.04904
0.996073
0.950649
0.8925
0.818348
0.756825
0.652843
0.574473
0.460242
0.351631
1.39183
1.41168
1.41081
1.39643
1.39464
1.37378
1.37161
1.34278
1.33164
1.28704
1.26419
1.19962
1.1546
1.08221
0.995508
0.925373
0.790482
0.709179
0.547067
0.429004
1.60598
1.63679
1.635
1.62187
1.6151
1.59929
1.59456
1.56934
1.55406
1.5123
1.48424
1.42026
1.36762
1.28523
1.18645
1.1003
0.940399
0.84738
0.642265
0.509986
1.82456
1.86083
1.85853
1.84791
1.83685
1.82899
1.81782
1.80279
1.77995
1.74955
1.70876
1.65595
1.58663
1.50102
1.38534
1.27939
1.1013
0.979902
0.74751
0.584603
2.04751
2.08179
2.08059
2.0723
2.06006
2.05944
2.04287
2.04174
2.00823
1.99641
1.94195
1.90167
1.81791
1.73206
1.59999
1.47186
1.27599
1.11162
0.862143
0.646904
2.27384
2.29917
2.30006
2.29456
2.28524
2.29021
2.2747
2.28338
2.24637
2.24833
2.18218
2.16176
2.06097
1.98762
1.84079
1.69229
1.47268
1.26029
0.975747
0.69404
2.501
2.51353
2.51647
2.51556
2.51251
2.5238
2.51439
2.52843
2.49668
2.50179
2.4398
2.42783
2.32241
2.26588
2.10281
1.95567
1.69778
1.44876
1.09184
0.738279
2.72792
2.72545
2.73003
2.73729
2.74273
2.76243
2.76094
2.77943
2.75805
2.76293
2.71403
2.70015
2.60208
2.55429
2.37352
2.25565
1.94655
1.70504
1.24284
0.810405
2.95407
2.93391
2.94401
2.9606
2.97822
3.00467
3.01591
3.03416
3.03725
3.03495
3.01385
2.98373
2.90158
2.8396
2.65042
2.55753
2.19485
2.01028
1.42153
0.933252
3.17187
3.14159
3.15999
3.18396
3.21744
3.24331
3.2785
3.29165
3.33253
3.32037
3.34463
3.2902
3.25311
3.13865
2.96684
2.84504
2.45702
2.302
1.58255
1.11091
3.37386
3.35239
3.37192
3.40282
3.4478
3.47679
3.53801
3.54825
3.63437
3.6105
3.70117
3.61689
3.66936
3.50805
3.4217
3.18759
2.85074
2.5829
1.77165
1.34593
3.56026
3.56261
3.57847
3.61244
3.66477
3.70777
3.78129
3.81298
3.91076
3.9208
4.03308
3.98364
4.09884
3.92815
4.00167
3.63066
3.45915
2.93169
2.17644
1.6959
3.73873
3.75387
3.77652
3.81011
3.87035
3.92999
4.01065
4.07968
4.17022
4.24864
4.34154
4.38816
4.48906
4.41215
4.52794
4.16531
4.19371
3.39932
2.87091
2.06206
3.91507
3.92388
3.95653
3.99631
4.06439
4.14039
4.23111
4.33246
4.43318
4.5581
4.66289
4.78153
4.87556
4.93357
4.99689
4.82907
4.86145
4.04466
3.70377
2.17973
4.07714
4.07638
4.11737
4.16913
4.24378
4.3341
4.43952
4.56275
4.6922
4.83809
4.99135
5.13666
5.29692
5.40428
5.52483
5.51083
5.54312
4.96556
4.64104
1.64226
0.0250377
0.0163746
0.0128305
0.00557577
0.000639746
-0.004103
-0.00846003
-0.0116804
-0.0176873
-0.0160997
0.075062
0.0544988
0.0389842
0.0186483
0.000347248
-0.0136196
-0.0272793
-0.0349801
-0.0509571
-0.0553059
0.124729
0.0935218
0.0620531
0.0289562
-0.00488655
-0.0274283
-0.0524105
-0.0670913
-0.0908775
-0.10441
0.171598
0.128563
0.0796204
0.0322841
-0.0159548
-0.046809
-0.0820086
-0.106813
-0.136773
-0.161123
0.214059
0.154639
0.086044
0.0261075
-0.0362891
-0.0761342
-0.120166
-0.155543
-0.189495
-0.223306
0.257351
0.173488
0.0851776
0.0118941
-0.0621484
-0.115229
-0.164647
-0.212963
-0.246317
-0.286992
0.305447
0.189162
0.0848516
-0.00666231
-0.085419
-0.157219
-0.210405
-0.269976
-0.302806
-0.346096
0.35379
0.200382
0.0811129
-0.0337427
-0.114806
-0.206884
-0.263756
-0.324581
-0.354934
-0.39185
0.396884
0.202588
0.0592795
-0.084963
-0.175037
-0.282265
-0.343546
-0.393018
-0.41181
-0.427748
0.426281
0.192801
0.00718143
-0.175062
-0.289305
-0.406664
-0.469114
-0.499227
-0.489388
-0.463213
0.435484
0.161322
-0.0845575
-0.314771
-0.475036
-0.612811
-0.671629
-0.672979
-0.609385
-0.507261
0.415743
0.0758008
-0.245317
-0.530333
-0.763638
-0.945147
-1.0006
-0.961795
-0.809637
-0.581662
0.384335
-0.0747349
-0.508158
-0.878091
-1.21817
-1.4651
-1.52863
-1.438
-1.14617
-0.724607
0.350287
-0.277563
-0.879862
-1.41394
-1.92333
-2.27649
-2.37993
-2.22311
-1.73124
-1.01869
0.262632
-0.57885
-1.42042
-2.23811
-3.06551
-3.63615
-3.84721
-3.57206
-2.79931
-1.70974
0.058266
-1.06023
-2.25138
-3.53645
-4.91637
-5.84827
-6.20225
-5.66062
-4.35741
-2.60594
-0.18842
-1.58283
-3.154
-5.1214
-7.34673
-8.77016
-9.33786
-8.66575
-7.04138
-4.3348
0.00552192
-1.41368
-3.05386
-4.90206
-7.8206
-9.35032
-9.75281
-8.85766
-6.95961
-4.34054
1.27003
0.556242
-1.59772
-3.55282
-5.55894
-6.99962
-7.58845
-7.14217
-5.93214
-3.91129
-1.32491
-0.237826
-1.74431
-2.42689
-3.61816
-5.13358
-5.56897
-5.52592
-4.82583
-3.80032
-0.0196252
-0.0608605
-0.130909
-0.0328539
-0.0128228
-0.0825893
-0.12188
-0.124727
-0.153939
-0.1675
-0.110821
-0.0154671
0.0538768
0.0618368
0.0794288
0.0531842
0.00236422
-0.0310267
-0.00200485
0.00558297
-0.0761446
-0.169028
-0.410454
-0.183273
-0.0775532
-0.147247
-0.201107
-0.337877
-0.472075
-0.620367
-0.361498
-0.157263
0.0165761
0.136262
0.187186
0.132816
0.0349252
-0.0124419
0.0299055
0.0154298
-0.150831
-0.333382
-0.736625
-0.402083
-0.204836
-0.188434
-0.273933
-0.534817
-0.809204
-1.08565
-0.661727
-0.272468
-0.0932603
0.176796
0.260851
0.214883
0.136372
0.0963407
0.0703704
0.0249831
-0.23194
-0.561792
-1.15526
-0.719448
-0.386057
-0.23737
-0.307422
-0.69582
-1.15163
-1.57682
-0.925856
-0.381747
-0.215097
0.231953
0.344275
0.316653
0.264475
0.204173
0.103827
0.0329394
-0.324508
-0.877574
-1.64659
-1.12927
-0.606189
-0.275632
-0.320458
-0.841473
-1.48309
-2.07862
-1.14892
-0.51529
-0.345677
0.310668
0.450828
0.427359
0.377278
0.282951
0.132198
0.0418272
-0.410687
-1.26265
-2.20566
-1.59745
-0.83468
-0.320228
-0.341805
-0.969385
-1.7877
-2.54085
-1.3326
-0.662938
-0.467796
0.420624
0.566338
0.531977
0.466579
0.345763
0.157793
0.0494269
-0.482596
-1.66895
-2.78597
-2.10255
-1.05572
-0.355463
-0.371181
-1.08065
-2.06379
-2.97354
-1.47266
-0.820093
-0.567208
0.555577
0.67449
0.634395
0.558958
0.405326
0.177023
0.056144
-0.508981
-2.03439
-3.36312
-2.60194
-1.24081
-0.374956
-0.409826
-1.17726
-2.32248
-3.34255
-1.54692
-0.967711
-0.633667
0.703723
0.783081
0.747303
0.66735
0.459601
0.190489
0.0626762
-0.471359
-2.30958
-3.89555
-3.11533
-1.40099
-0.385722
-0.44606
-1.23819
-2.55613
-3.65787
-1.56454
-1.10517
-0.662968
0.872002
0.904207
0.870805
0.78475
0.504418
0.199544
0.0697609
-0.35519
-2.44004
-4.35068
-3.50473
-1.50006
-0.477734
-0.523259
-1.28993
-2.76844
-3.89713
-1.52193
-1.21987
-0.634969
1.07571
1.03807
0.996709
0.902688
0.539394
0.203644
0.0779775
-0.148854
-2.40285
-4.67889
-3.82934
-1.57341
-0.455491
-0.557589
-1.30174
-2.96679
-4.08786
-1.42032
-1.27861
-0.507728
1.30934
1.17967
1.12639
1.0227
0.571428
0.201668
0.0873209
0.156936
-2.22917
-4.87699
-4.04218
-1.61596
-0.510174
-0.633545
-1.2934
-3.14531
-4.22885
-1.25216
-1.24545
-0.26527
1.54734
1.32731
1.26442
1.14948
0.608896
0.195691
0.0977136
0.561633
-1.9678
-4.92679
-4.17395
-1.65566
-0.570517
-0.684555
-1.256
-3.32857
-4.34969
-1.03243
-1.1359
0.054835
1.7906
1.4834
1.41528
1.282
0.658859
0.195319
0.108953
1.05799
-1.65633
-4.79448
-4.21576
-1.72468
-0.693031
-0.748885
-1.20983
-3.51047
-4.44677
-0.780923
-0.978859
0.430649
2.07139
1.64667
1.57623
1.40562
0.727344
0.215914
0.120241
1.53974
-1.33194
-4.48932
-4.15597
-1.83056
-0.846872
-0.840734
-1.21106
-3.68003
-4.48947
-0.508148
-0.736882
0.883296
2.365
1.8175
1.73784
1.50806
0.813573
0.267795
0.131409
1.86957
-1.07576
-4.05479
-3.99991
-1.98937
-1.02656
-0.954015
-1.26509
-3.74028
-4.31187
-0.214719
-0.359054
1.41465
2.62452
2.00236
1.89253
1.57337
0.905068
0.346485
0.140643
2.10204
-1.00242
-3.59866
-3.76708
-2.19245
-1.33048
-1.18788
-1.39082
-3.69631
-3.87124
0.087271
0.131107
1.96496
2.82651
2.18468
2.03403
1.60091
0.995249
0.429933
0.14585
1.64208
-1.10341
-3.22478
-3.57798
-2.43405
-1.73462
-1.55517
-1.61379
-3.68336
-3.41128
0.393726
0.656017
2.4859
2.95879
2.33883
2.15917
1.5921
1.0934
0.513374
0.141831
0.952049
-1.09803
-2.93729
-3.44653
-2.73063
-2.23807
-2.02234
-1.93474
-3.81597
-2.96237
0.687474
1.07988
2.9223
3.02426
2.44074
2.26658
1.52969
1.20122
0.596809
0.122415
0.18125
-1.03469
-2.64851
-3.37188
-3.06851
-2.83303
-2.62331
-2.46498
-4.10956
-2.45222
0.949668
1.40648
3.24883
3.03628
2.50019
2.35779
1.45432
1.30846
0.659195
0.0954262
0.342314
-0.77047
-2.37957
-3.34767
-3.48969
-3.60124
-3.47327
-3.25937
-4.17136
-1.80638
1.16013
1.48841
3.48803
3.00573
2.58083
2.43792
1.3954
1.41494
0.690609
0.0573782
0.463503
-0.558051
-2.10034
-3.41
-4.03971
-4.55844
-4.5097
-4.16306
-3.82635
-1.00003
1.40257
1.51655
3.61043
2.94692
2.73033
2.48254
1.40337
1.50412
0.694258
0.0195853
0.71601
-0.295084
-1.87526
-3.60024
-4.69121
-5.61048
-5.62004
-5.05447
-3.67982
-0.453736
1.48687
1.62781
3.68211
2.90579
2.90282
2.48925
1.49219
1.56074
0.693079
0.0180783
0.919938
0.0527915
-1.74581
-3.8868
-5.4535
-6.68802
-6.73942
-5.87977
-3.68693
-0.253422
1.53962
1.7691
3.6598
2.868
3.03434
2.48931
1.62202
1.58809
0.696245
0.0342851
1.14524
0.280952
-1.66349
-4.28229
-6.25091
-7.74455
-7.74322
-6.56824
-3.73648
-0.16571
1.56973
1.87524
3.52771
2.85438
3.11812
2.48995
1.78351
1.60164
0.709707
0.0593542
1.3696
0.538362
-1.67856
-4.74053
-7.0094
-8.58787
-8.61237
-7.15047
-4.02417
-0.243778
1.50931
1.99933
3.37833
2.87233
3.15905
2.50501
1.94324
1.60606
0.773384
0.128614
1.43921
0.669052
-1.76432
-5.18887
-7.69935
-9.22139
-9.38241
-7.73315
-4.49602
-0.416592
1.40828
2.12916
3.24001
2.92598
3.18388
2.50711
2.0381
1.61502
0.876411
0.235269
1.7338
0.785372
-1.86554
-5.60943
-8.30818
-9.79339
-10.1461
-8.51974
-5.02388
-0.614447
1.36086
2.19062
3.0778
2.99563
3.14665
2.48597
2.12673
1.61899
0.947539
0.31668
1.64773
0.846821
-1.97828
-5.9943
-8.79921
-10.3999
-10.8949
-9.32053
-5.46658
-0.987432
1.23253
2.16722
2.89802
3.03075
3.03988
2.45763
2.18841
1.60509
0.977632
0.361624
2.11578
0.691764
-2.09351
-6.3168
-9.09301
-10.7565
-11.2968
-9.76039
-5.68231
-1.40061
1.03141
2.06632
2.73515
3.00933
2.92467
2.42391
2.19568
1.57402
0.991664
0.392714
1.72813
0.644289
-2.16002
-6.53209
-9.1647
-10.8198
-11.3553
-9.94731
-5.77545
-1.72994
0.834489
1.96128
2.61633
2.9467
2.80854
2.37152
2.15727
1.52931
0.990583
0.416827
2.69941
0.785795
-2.17146
-6.64786
-9.10613
-10.7225
-11.2699
-9.97713
-5.81587
-1.97151
0.622196
1.85078
2.48222
2.86909
2.69472
2.30856
2.10542
1.47827
0.981237
0.432929
2.74073
1.06146
-2.15956
-6.6558
-8.93925
-10.4859
-11.055
-9.80043
-5.76053
-2.13899
0.434695
1.74811
2.31655
2.76412
2.57835
2.24008
2.03839
1.41914
0.966705
0.438862
2.63707
1.12993
-2.15718
-6.59364
-8.6766
-10.1275
-10.7183
-9.48743
-5.6111
-2.25289
0.287183
1.64329
2.16728
2.64248
2.47553
2.17915
1.95602
1.35462
0.9424
0.428805
2.175
0.982251
-2.18893
-6.46077
-8.28117
-9.64119
-10.2656
-9.10536
-5.40399
-2.28508
0.147868
1.53746
2.0132
2.5142
2.38584
2.11382
1.86048
1.28184
0.903867
0.402755
1.56195
0.692218
-2.24293
-6.19415
-7.77421
-9.08322
-9.72976
-8.64226
-5.1467
-2.25847
0.0347769
1.44261
1.86178
2.37981
2.29374
2.03371
1.75513
1.19813
0.850127
0.368702
1.06904
0.352543
-2.29862
-5.87432
-7.23675
-8.46357
-9.12735
-8.11215
-4.8503
-2.18807
-0.051393
1.33232
1.7107
2.24139
2.19326
1.93997
1.64146
1.11143
0.784418
0.336339
0.682516
0.016161
-2.38603
-5.55365
-6.65996
-7.74945
-8.46743
-7.52747
-4.50928
-2.05386
-0.115309
1.2218
1.55603
2.0919
2.07876
1.83675
1.52274
1.0293
0.712005
0.307333
0.365719
-0.297455
-2.45208
-5.17895
-6.03959
-7.07699
-7.79155
-6.90443
-4.12676
-1.88615
-0.152269
1.11203
1.411
1.93758
1.95317
1.72321
1.40167
0.952443
0.637844
0.280994
0.130386
-0.55495
-2.49191
-4.81702
-5.51272
-6.40564
-7.09313
-6.23031
-3.71618
-1.70717
-0.179688
1.00242
1.27154
1.78033
1.82529
1.60221
1.28121
0.877444
0.563763
0.255741
-0.0179375
-0.726959
-2.60548
-4.4894
-5.09111
-5.71388
-6.31078
-5.49493
-3.29463
-1.51294
-0.187622
0.893006
1.13624
1.61247
1.69068
1.4768
1.16621
0.801312
0.490115
0.228469
-0.0777759
-0.77659
-2.81278
-4.20383
-4.69775
-5.01312
-5.47153
-4.7284
-2.87045
-1.31401
-0.17038
0.781004
1.00247
1.43454
1.54667
1.34377
1.05437
0.68937
0.417275
0.198775
-0.0842074
-0.685675
-2.96005
-4.01945
-4.295
-4.3629
-4.62465
-3.96423
-2.45574
-1.13027
-0.143857
0.680716
0.867475
1.24922
1.39491
1.20258
0.938636
0.611184
0.352353
0.16758
-0.0676258
-0.541835
-2.95486
-3.96186
-3.86274
-3.78418
-3.82975
-3.24521
-2.06748
-0.97419
-0.123234
0.596075
0.748529
1.06671
1.22763
1.05461
0.819253
0.534167
0.29718
0.137455
-0.0466189
-0.448464
-2.73745
-3.782
-3.38953
-3.25708
-3.10444
-2.57872
-1.70032
-0.817625
-0.10877
0.503499
0.642646
0.897282
1.04737
0.899159
0.698592
0.457265
0.248186
0.109719
-0.0168457
-0.401084
-2.30054
-3.3511
-2.85973
-2.74307
-2.44775
-1.97972
-1.36017
-0.663634
-0.0934514
0.401915
0.525084
0.722118
0.862919
0.736636
0.576552
0.380244
0.204822
0.0851391
0.0101599
-0.333253
-1.72744
-2.64983
-2.25885
-2.206
-1.84869
-1.44567
-1.03433
-0.514976
-0.0709396
0.310668
0.396353
0.519759
0.670548
0.571669
0.451104
0.300121
0.163818
0.0636943
0.0231716
-0.23791
-1.12644
-1.7633
-1.60302
-1.62547
-1.29193
-0.96924
-0.707929
-0.355691
-0.0305046
0.238802
0.281485
0.309413
0.456703
0.405791
0.336424
0.218475
0.121493
0.0441661
0.0131677
-0.139103
-0.581219
-0.982584
-0.927088
-1.00228
-0.766493
-0.539815
-0.392524
-0.177671
0.0159732
0.173723
0.198449
0.130312
0.225611
0.234001
0.235871
0.134638
0.0763162
0.0249514
0.00211985
-0.0537055
-0.158334
-0.206776
-0.285896
-0.346097
-0.256817
-0.16523
-0.13059
-0.017206
0.0157235
0.0700202
0.0934093
0.0343673
0.0476944
0.0669783
0.0405943
0.0460309
0.0285881
0.00823302
-2.59
-1.42897
-3.47765
-4.78519
-7.64414
-9.18439
-9.32896
-7.93548
-6.10537
-3.91632
-0.596828
-1.37679
-4.02562
-7.04663
-10.2447
-11.8479
-11.6264
-9.57235
-7.13017
-4.3305
-1.62551
-3.71249
-6.07391
-8.91187
-12.4902
-14.0926
-13.8099
-11.3818
-8.04543
-4.74158
-1.72512
-3.60091
-5.7997
-8.40852
-10.9588
-12.1396
-11.8029
-9.9049
-6.97098
-4.13407
-1.22638
-2.59416
-4.20459
-5.80326
-7.31064
-8.16302
-8.00637
-6.84856
-4.93418
-2.85909
-0.749894
-1.73191
-2.86032
-3.77987
-4.65827
-5.20229
-5.10696
-4.40261
-3.18031
-1.82795
-0.451204
-1.19004
-1.95613
-2.51793
-3.05483
-3.35013
-3.25359
-2.86797
-2.10241
-1.21228
-0.278625
-0.810793
-1.33991
-1.70114
-2.05899
-2.21125
-2.1298
-1.92368
-1.43256
-0.837358
-0.145929
-0.525559
-0.907987
-1.15498
-1.395
-1.48746
-1.42925
-1.31968
-1.01547
-0.623357
-0.0407817
-0.317898
-0.614721
-0.797928
-0.94434
-1.00966
-0.977129
-0.91903
-0.740018
-0.491047
0.0316723
-0.173565
-0.414142
-0.555458
-0.633851
-0.686554
-0.67624
-0.643678
-0.544083
-0.393658
0.075474
-0.0802252
-0.265914
-0.377207
-0.422097
-0.472121
-0.473463
-0.453549
-0.398584
-0.307902
0.097983
-0.0243173
-0.153665
-0.245857
-0.281775
-0.330779
-0.333667
-0.321979
-0.288128
-0.229092
0.105046
0.00879386
-0.0810086
-0.157959
-0.190449
-0.234372
-0.23481
-0.230911
-0.207077
-0.165661
0.101682
0.0250688
-0.0426258
-0.103673
-0.13151
-0.167
-0.167202
-0.169074
-0.14807
-0.118666
0.0922036
0.0323296
-0.0228007
-0.0680981
-0.0912278
-0.116474
-0.120272
-0.122394
-0.10105
-0.0806221
0.0801357
0.0343426
-0.0099529
-0.0425684
-0.0607139
-0.0761329
-0.0833777
-0.0817192
-0.062655
-0.0486294
0.0643656
0.030502
-0.00254808
-0.0242911
-0.0375128
-0.0445743
-0.0534902
-0.0477329
-0.0354391
-0.0242443
0.0410978
0.0188078
0.000361566
-0.0140124
-0.0199014
-0.0231414
-0.0298179
-0.0243126
-0.01878
-0.00985687
0.013127
0.00441324
0.000448625
-0.00606461
-0.00604733
-0.00828447
-0.00987216
-0.00854727
-0.00585927
-0.00447379
3.95502
3.95449
3.99299
4.04302
4.11504
4.19713
4.29904
4.40904
4.53719
4.66437
4.8144
4.9333
5.09206
5.16076
5.28171
5.21352
5.21677
4.58201
4.222
1.05183
3.79473
3.7925
3.82425
3.86603
3.93048
4.00096
4.08454
4.1776
4.273
4.38491
4.48015
4.58139
4.6604
4.69623
4.72952
4.54335
4.48334
3.63551
3.13495
1.15802
3.61572
3.61908
3.6415
3.67714
3.73269
3.78972
3.8595
3.92561
4.00472
4.07957
4.15314
4.20008
4.26144
4.19141
4.25354
3.85913
3.82279
2.89825
2.25011
0.961823
3.4321
3.42934
3.44655
3.47868
3.52742
3.56786
3.63086
3.66044
3.74273
3.75304
3.8479
3.79542
3.88618
3.69345
3.75865
3.30186
3.12775
2.397
1.4856
0.741924
3.24677
3.22261
3.24404
3.27015
3.3145
3.33785
3.39496
3.39543
3.47403
3.4366
3.52504
3.42374
3.47412
3.25954
3.19177
2.87838
2.52171
2.04935
1.06785
0.513278
3.05289
3.01056
3.03705
3.05245
3.09182
3.10385
3.14687
3.13899
3.18753
3.14079
3.17225
3.08787
3.0468
2.89299
2.70948
2.49972
2.06541
1.79008
0.937008
0.332231
2.84514
2.80504
2.82479
2.83161
2.85958
2.86925
2.88835
2.88835
2.89413
2.86342
2.8378
2.77581
2.67841
2.58597
2.34178
2.21306
1.783
1.53946
0.863265
0.232276
2.62395
2.60591
2.61109
2.61219
2.62426
2.63518
2.63346
2.63954
2.61953
2.60444
2.54222
2.50243
2.37134
2.32231
2.07747
1.95642
1.57118
1.28007
0.773612
0.200617
2.39876
2.40479
2.40125
2.39775
2.39779
2.40583
2.38997
2.39963
2.36319
2.359
2.28436
2.25134
2.1179
2.0592
1.84299
1.69371
1.37693
1.05846
0.685348
0.210975
2.17645
2.2017
2.19157
2.18892
2.17878
2.18493
2.16072
2.16688
2.1246
2.11733
2.04658
2.00466
1.88402
1.80091
1.61506
1.44841
1.19059
0.901744
0.613727
0.238729
1.95778
1.996
1.98221
1.98097
1.96411
1.96793
1.94168
1.93953
1.89691
1.88035
1.81546
1.76486
1.65838
1.56082
1.40185
1.2402
1.02412
0.791683
0.553545
0.257105
1.74373
1.78727
1.77192
1.77089
1.75029
1.75128
1.72661
1.71717
1.6768
1.6515
1.59271
1.53499
1.4446
1.34134
1.20927
1.06502
0.879401
0.696739
0.488793
0.261589
1.53548
1.57477
1.5601
1.55916
1.53687
1.53585
1.51307
1.49949
1.46354
1.43028
1.38105
1.31555
1.24366
1.14219
1.03475
0.90606
0.754074
0.6048
0.4245
0.260132
1.33046
1.36009
1.34791
1.34744
1.32511
1.32228
1.30216
1.28478
1.25637
1.21507
1.1787
1.10914
1.05396
0.957256
0.874057
0.758642
0.639211
0.517311
0.364411
0.248933
1.12692
1.14679
1.13798
1.13631
1.11597
1.11052
1.09421
1.07365
1.05266
1.00835
0.982396
0.915054
0.873582
0.785251
0.720315
0.622112
0.526145
0.431835
0.304641
0.221563
0.921244
0.936114
0.931834
0.926182
0.909719
0.900883
0.889949
0.867895
0.851981
0.811148
0.792006
0.733266
0.700592
0.626658
0.57186
0.496383
0.414852
0.346415
0.245833
0.181635
0.714458
0.72706
0.728046
0.717663
0.705752
0.695067
0.68835
0.669516
0.655674
0.623493
0.606745
0.562676
0.534182
0.479599
0.432527
0.379321
0.312946
0.263806
0.190308
0.137806
0.507396
0.518648
0.524054
0.511158
0.503567
0.492767
0.489545
0.475845
0.46389
0.44235
0.426943
0.398728
0.375068
0.33936
0.303289
0.268387
0.219785
0.186834
0.137332
0.0957984
0.301706
0.310249
0.317464
0.305361
0.30266
0.293071
0.292674
0.285201
0.275479
0.265048
0.251816
0.238301
0.222056
0.201954
0.180521
0.160779
0.130885
0.112078
0.0837967
0.0549913
0.0998732
0.101589
0.106972
0.100881
0.101092
0.0971585
0.0969364
0.0956324
0.0903666
0.0891679
0.082132
0.0794396
0.0729332
0.0665484
0.0597408
0.0530346
0.0434153
0.0366863
0.0279309
0.0172861
4.22204
4.23211
4.27499
4.34012
4.41999
4.52344
4.64573
4.78813
4.94946
5.11749
5.32025
5.49723
5.73533
5.88959
6.13954
6.2203
6.42088
6.26601
6.5677
4.36436
4.34571
4.37428
4.41758
4.49019
4.5786
4.6957
4.83237
4.99697
5.18044
5.38728
5.6139
5.86061
6.11653
6.39107
6.64767
6.91428
7.11548
7.27875
7.29658
7.31425
4.44885
4.47695
4.52197
4.5992
4.69888
4.82622
4.97668
5.15609
5.35989
5.59214
5.84527
6.13054
6.4231
6.75435
7.06445
7.4125
7.6996
7.94881
8.1858
8.06412
4.5205
4.53869
4.59089
4.66875
4.77943
4.91024
5.07472
5.26046
5.48356
5.72644
6.00815
6.30671
6.64363
6.9864
7.35941
7.71262
8.07007
8.37588
8.59118
8.73758
4.53958
4.56823
4.62314
4.70342
4.81171
4.94867
5.11392
5.31065
5.53467
5.79231
6.07594
6.39331
6.73212
7.099
7.47357
7.85629
8.21542
8.5288
8.77672
8.88527
4.52696
4.55672
4.60999
4.69023
4.79757
4.9348
5.09933
5.29507
5.51817
5.77476
6.0575
6.37385
6.71013
7.07649
7.44522
7.8287
8.17777
8.49671
8.73239
8.86024
4.48367
4.5018
4.55331
4.63038
4.73848
4.86835
5.03064
5.21371
5.43443
5.67292
5.95405
6.24372
6.58217
6.91126
7.2889
7.62412
7.98422
8.26893
8.48991
8.6385
4.3895
4.4137
4.46021
4.53487
4.63301
4.75741
4.90447
5.07998
5.2776
5.50613
5.75204
6.02985
6.31561
6.63465
6.93971
7.27198
7.54962
7.79195
7.97564
7.876
4.26151
4.28938
4.33143
4.40082
4.48689
4.60073
4.73167
4.89182
5.06569
5.27071
5.48094
5.72722
5.95989
6.23431
6.45994
6.72117
6.8867
7.03548
7.03613
7.02568
4.1126
4.12712
4.16689
4.22771
4.30528
4.40213
4.52008
4.65204
4.80846
4.96407
5.15778
5.31752
5.54215
5.67555
5.90287
5.96123
6.11772
5.9433
6.12124
3.95607
)
;

boundaryField
{
    inlet
    {
        type            zeroGradient;
    }
    outlet
    {
        type            fixedValue;
        value           uniform 0;
    }
    upAndBottom
    {
        type            empty;
    }
    obstacle
    {
        type            zeroGradient;
    }
}


// ************************************************************************* //
