/*--------------------------------*- C++ -*----------------------------------*\
| =========                 |                                                 |
| \\      /  F ield         | OpenFOAM: The Open Source CFD Toolbox           |
|  \\    /   O peration     | Version:  v1806                                 |
|   \\  /    A nd           | Web:      www.OpenFOAM.com                      |
|    \\/     M anipulation  |                                                 |
\*---------------------------------------------------------------------------*/
FoamFile
{
    version     2.0;
    format      ascii;
    class       volVectorField;
    location    "9";
    object      U;
}
// * * * * * * * * * * * * * * * * * * * * * * * * * * * * * * * * * * * * * //

dimensions      [0 1 -1 0 0 0 0];


internalField   nonuniform List<vector> 
2400
(
(2.99993 -0.00263303 0)
(3.00035 -0.0188487 0)
(2.99937 -0.0394874 0)
(2.9992 -0.0348916 0)
(2.99962 -0.0489841 0)
(2.99998 -0.0790559 0)
(2.99705 -0.0994244 0)
(2.99871 -0.101077 0)
(2.99913 -0.0993657 0)
(2.99723 -0.139294 0)
(2.99681 -0.188678 0)
(2.99328 -0.194676 0)
(2.993 -0.172803 0)
(2.99653 -0.212707 0)
(2.99831 -0.289809 0)
(2.98927 -0.306357 0)
(2.98685 -0.281481 0)
(2.99161 -0.300414 0)
(2.99704 -0.352004 0)
(2.99433 -0.392475 0)
(2.99966 -0.00275925 0)
(3.00034 -0.0184092 0)
(2.99904 -0.0390592 0)
(2.99818 -0.0351183 0)
(2.99825 -0.0494974 0)
(2.9989 -0.0775893 0)
(2.99466 -0.0985922 0)
(2.99616 -0.101823 0)
(2.99468 -0.0991544 0)
(2.9939 -0.138444 0)
(2.99285 -0.186549 0)
(2.98763 -0.192766 0)
(2.98517 -0.17427 0)
(2.98983 -0.216027 0)
(2.99184 -0.286584 0)
(2.98228 -0.300771 0)
(2.97767 -0.282707 0)
(2.98568 -0.305804 0)
(2.99064 -0.353826 0)
(2.9924 -0.388972 0)
(2.99945 -0.00259339 0)
(3.00039 -0.0179929 0)
(2.99838 -0.0389136 0)
(2.99698 -0.0347732 0)
(2.99692 -0.049604 0)
(2.99676 -0.0760873 0)
(2.99269 -0.0979384 0)
(2.99352 -0.100801 0)
(2.9907 -0.0983878 0)
(2.99006 -0.138474 0)
(2.98897 -0.184644 0)
(2.98158 -0.190889 0)
(2.97962 -0.173717 0)
(2.9826 -0.217591 0)
(2.98539 -0.284407 0)
(2.97516 -0.29924 0)
(2.97439 -0.28362 0)
(2.98108 -0.309051 0)
(2.98927 -0.354827 0)
(2.99038 -0.390205 0)
(2.9995 -0.0022639 0)
(3.00037 -0.0177598 0)
(2.99657 -0.0381489 0)
(2.99597 -0.0343099 0)
(2.99501 -0.0498043 0)
(2.99524 -0.0737192 0)
(2.99031 -0.0971099 0)
(2.99118 -0.0996794 0)
(2.98664 -0.098227 0)
(2.98731 -0.137643 0)
(2.9833 -0.181395 0)
(2.97576 -0.187803 0)
(2.97233 -0.173791 0)
(2.97585 -0.22031 0)
(2.97913 -0.281651 0)
(2.9694 -0.295974 0)
(2.96766 -0.285285 0)
(2.97581 -0.314863 0)
(2.98368 -0.35837 0)
(2.98895 -0.389941 0)
(3.00018 -0.00128402 0)
(2.99898 -0.0179472 0)
(2.99474 -0.0368633 0)
(2.9949 -0.0342184 0)
(2.99344 -0.0490594 0)
(2.99373 -0.0718158 0)
(2.98857 -0.0962179 0)
(2.98846 -0.0977432 0)
(2.98255 -0.0974382 0)
(2.98325 -0.136341 0)
(2.97754 -0.177821 0)
(2.96943 -0.184837 0)
(2.96603 -0.172815 0)
(2.96871 -0.222828 0)
(2.97296 -0.278993 0)
(2.96121 -0.294501 0)
(2.96191 -0.286156 0)
(2.96851 -0.320184 0)
(2.98152 -0.36203 0)
(2.98605 -0.394794 0)
(3.00074 0.000675035 0)
(2.99676 -0.0189836 0)
(2.99353 -0.0345899 0)
(2.99402 -0.0349561 0)
(2.99196 -0.0473161 0)
(2.99297 -0.070601 0)
(2.98607 -0.0940575 0)
(2.98548 -0.0957891 0)
(2.97756 -0.0963071 0)
(2.97969 -0.134403 0)
(2.97091 -0.173644 0)
(2.96433 -0.180987 0)
(2.95875 -0.172481 0)
(2.96251 -0.225371 0)
(2.96481 -0.275593 0)
(2.95258 -0.292052 0)
(2.95353 -0.287242 0)
(2.96199 -0.3284 0)
(2.97435 -0.364149 0)
(2.98327 -0.403985 0)
(3.00136 0.00399447 0)
(2.99403 -0.0215296 0)
(2.99368 -0.0310612 0)
(2.99222 -0.0369743 0)
(2.99153 -0.0436756 0)
(2.99123 -0.0710717 0)
(2.98382 -0.0896594 0)
(2.98156 -0.0946843 0)
(2.97328 -0.0933933 0)
(2.97509 -0.132961 0)
(2.96522 -0.168764 0)
(2.95908 -0.177261 0)
(2.95204 -0.171982 0)
(2.95466 -0.225579 0)
(2.95498 -0.273891 0)
(2.94269 -0.287095 0)
(2.94594 -0.294134 0)
(2.95453 -0.329227 0)
(2.96775 -0.374333 0)
(2.97919 -0.393709 0)
(3.00189 0.00885858 0)
(2.99195 -0.0262363 0)
(2.99427 -0.0252886 0)
(2.99015 -0.0410126 0)
(2.99166 -0.0376073 0)
(2.98858 -0.0739053 0)
(2.98177 -0.0813513 0)
(2.97741 -0.0968944 0)
(2.96965 -0.0861654 0)
(2.97013 -0.135815 0)
(2.96052 -0.158692 0)
(2.95312 -0.178413 0)
(2.94452 -0.164677 0)
(2.94556 -0.231896 0)
(2.94507 -0.263598 0)
(2.93138 -0.2913 0)
(2.93788 -0.290876 0)
(2.94403 -0.34287 0)
(2.96346 -0.373965 0)
(2.97004 -0.409259 0)
(3.00293 0.0141944 0)
(2.99014 -0.0315871 0)
(2.99488 -0.0188357 0)
(2.98814 -0.0453047 0)
(2.99172 -0.0307504 0)
(2.98502 -0.0767336 0)
(2.98059 -0.0725854 0)
(2.97325 -0.0988757 0)
(2.967 -0.0785509 0)
(2.96502 -0.138226 0)
(2.95551 -0.148936 0)
(2.94628 -0.177767 0)
(2.93607 -0.158184 0)
(2.93695 -0.234743 0)
(2.93326 -0.256754 0)
(2.92 -0.291128 0)
(2.92589 -0.29322 0)
(2.93302 -0.350659 0)
(2.952 -0.382689 0)
(2.96286 -0.419736 0)
(3.00501 0.0206381 0)
(2.98768 -0.0386441 0)
(2.99621 -0.010153 0)
(2.98549 -0.0517238 0)
(2.99256 -0.0208932 0)
(2.98081 -0.082527 0)
(2.98138 -0.0601388 0)
(2.96778 -0.104568 0)
(2.96688 -0.0660783 0)
(2.95718 -0.14498 0)
(2.95219 -0.132516 0)
(2.93681 -0.182694 0)
(2.92995 -0.144639 0)
(2.92577 -0.244044 0)
(2.92197 -0.240946 0)
(2.90429 -0.297896 0)
(2.91406 -0.289812 0)
(2.91801 -0.364559 0)
(2.94336 -0.389426 0)
(2.95341 -0.431313 0)
(3.00747 0.0269982 0)
(2.98501 -0.045567 0)
(2.99809 -0.00124061 0)
(2.983 -0.0580295 0)
(2.99445 -0.0105295 0)
(2.97691 -0.0885441 0)
(2.98308 -0.0469151 0)
(2.96153 -0.110316 0)
(2.96828 -0.0520552 0)
(2.94765 -0.151487 0)
(2.95108 -0.114834 0)
(2.92563 -0.188293 0)
(2.92528 -0.12803 0)
(2.91194 -0.254328 0)
(2.90958 -0.220433 0)
(2.8866 -0.308997 0)
(2.90064 -0.28135 0)
(2.90057 -0.383033 0)
(2.92842 -0.39522 0)
(2.94343 -0.448647 0)
(3.00936 0.033679 0)
(2.98298 -0.0530056 0)
(3.0014 0.00837693 0)
(2.98031 -0.0653365 0)
(2.99815 0.00106201 0)
(2.97212 -0.0955514 0)
(2.98653 -0.0316416 0)
(2.9537 -0.117643 0)
(2.97269 -0.0355871 0)
(2.93564 -0.159651 0)
(2.95491 -0.094259 0)
(2.90916 -0.195642 0)
(2.925 -0.107238 0)
(2.89147 -0.266518 0)
(2.90116 -0.19353 0)
(2.86316 -0.326268 0)
(2.88917 -0.265267 0)
(2.87467 -0.409688 0)
(2.91538 -0.393536 0)
(2.92989 -0.472665 0)
(3.01012 0.0399774 0)
(2.98363 -0.0607265 0)
(3.00465 0.0180881 0)
(2.97833 -0.0726212 0)
(3.00242 0.0131626 0)
(2.96739 -0.102734 0)
(2.99136 -0.0153533 0)
(2.94608 -0.125863 0)
(2.97912 -0.0171558 0)
(2.92256 -0.16861 0)
(2.96157 -0.0709073 0)
(2.88804 -0.203352 0)
(2.93004 -0.083225 0)
(2.865 -0.278481 0)
(2.89788 -0.162586 0)
(2.83282 -0.345938 0)
(2.87853 -0.242091 0)
(2.84098 -0.441592 0)
(2.89741 -0.386572 0)
(2.90693 -0.507149 0)
(3.01163 0.0448215 0)
(2.98511 -0.0677237 0)
(3.00835 0.0280495 0)
(2.97673 -0.079649 0)
(3.00708 0.0252383 0)
(2.96283 -0.109525 0)
(2.9975 0.00107651 0)
(2.93853 -0.133858 0)
(2.98606 0.0023531 0)
(2.90839 -0.177198 0)
(2.96967 -0.0448744 0)
(2.86386 -0.210802 0)
(2.94145 -0.0575419 0)
(2.83091 -0.288948 0)
(2.90401 -0.128425 0)
(2.78964 -0.365673 0)
(2.87597 -0.212953 0)
(2.78892 -0.47706 0)
(2.88464 -0.375881 0)
(2.86795 -0.545404 0)
(3.017 0.0470399 0)
(2.98383 -0.0723183 0)
(3.01562 0.0362741 0)
(2.97318 -0.0847907 0)
(3.01313 0.0356489 0)
(2.95726 -0.114508 0)
(3.00375 0.0158818 0)
(2.93031 -0.139817 0)
(2.99145 0.0213358 0)
(2.89611 -0.184917 0)
(2.97533 -0.0195905 0)
(2.84369 -0.22026 0)
(2.95099 -0.0304512 0)
(2.79677 -0.301186 0)
(2.91289 -0.0916511 0)
(2.7395 -0.389 0)
(2.87925 -0.173742 0)
(2.71858 -0.521954 0)
(2.88019 -0.350439 0)
(2.7993 -0.610068 0)
(3.03116 0.0454968 0)
(2.97445 -0.07099 0)
(3.03154 0.040803 0)
(2.96204 -0.0850791 0)
(3.0253 0.0428384 0)
(2.94505 -0.11479 0)
(3.01344 0.02941 0)
(2.91837 -0.141973 0)
(2.99784 0.0402306 0)
(2.88446 -0.189459 0)
(2.97752 0.0105105 0)
(2.82822 -0.226999 0)
(2.95329 0.00473011 0)
(2.76836 -0.309235 0)
(2.91499 -0.0435987 0)
(2.69142 -0.408809 0)
(2.87894 -0.120662 0)
(2.63856 -0.565324 0)
(2.88326 -0.312138 0)
(2.69971 -0.69488 0)
(3.06055 0.0367683 0)
(2.94834 -0.0587096 0)
(3.0613 0.0339438 0)
(2.93429 -0.0731037 0)
(3.05084 0.0365423 0)
(2.91754 -0.100732 0)
(3.0358 0.0258002 0)
(2.89313 -0.127934 0)
(3.01408 0.0398374 0)
(2.8641 -0.177072 0)
(2.98407 0.0195795 0)
(2.80942 -0.219362 0)
(2.95096 0.0225734 0)
(2.74491 -0.311346 0)
(2.90081 -0.0106326 0)
(2.65535 -0.433065 0)
(2.8555 -0.0772446 0)
(2.57217 -0.637536 0)
(2.87139 -0.263071 0)
(2.58131 -0.864605 0)
(3.11349 0.0302438 0)
(2.89415 -0.0486271 0)
(3.11815 0.0290686 0)
(2.8766 -0.0631405 0)
(3.10939 0.0330596 0)
(2.85833 -0.0880653 0)
(3.09523 0.0250507 0)
(2.83384 -0.112823 0)
(3.06852 0.0409409 0)
(2.80757 -0.159647 0)
(3.0269 0.0306631 0)
(2.76017 -0.203932 0)
(2.97245 0.0445725 0)
(2.70193 -0.296703 0)
(2.89093 0.0363322 0)
(2.61536 -0.431078 0)
(2.79562 0.0056147 0)
(2.53221 -0.684189 0)
(2.7564 -0.142874 0)
(2.48507 -0.984164 0)
(3.17856 0.0181966 0)
(2.82043 -0.0306501 0)
(3.19698 0.0144981 0)
(2.79281 -0.0420153 0)
(3.20192 0.0163623 0)
(2.76425 -0.0599032 0)
(3.20253 0.00524931 0)
(2.72732 -0.0752923 0)
(3.19006 0.0141595 0)
(2.69049 -0.108632 0)
(3.15737 0.000174856 0)
(2.63489 -0.135625 0)
(3.10349 0.00397131 0)
(2.56895 -0.20378 0)
(3.00182 -0.00808824 0)
(2.47346 -0.322349 0)
(2.84111 -0.0238793 0)
(2.39436 -0.648589 0)
(2.63888 -0.124955 0)
(2.45409 -1.41572 0)
(3.19514 0.0154665 0)
(2.79603 -0.0255502 0)
(3.22882 0.012406 0)
(2.75548 -0.0375436 0)
(3.25263 0.0166834 0)
(2.71139 -0.0550602 0)
(3.2791 0.00927426 0)
(2.65062 -0.0698339 0)
(3.30486 0.0207605 0)
(2.58059 -0.102488 0)
(3.32519 0.0153874 0)
(2.48117 -0.131126 0)
(3.3468 0.0289915 0)
(2.35269 -0.199348 0)
(3.35681 0.0369761 0)
(2.17353 -0.320859 0)
(3.35496 0.0492186 0)
(1.97741 -0.708417 0)
(3.37746 -0.00196993 0)
(2.67036 -2.23084 0)
(2.98549 -0.395906 0)
(2.98626 -0.396724 0)
(2.98817 -0.39652 0)
(2.98926 -0.394756 0)
(2.98864 -0.394184 0)
(2.98799 -0.390076 0)
(2.98758 -0.390116 0)
(2.98703 -0.384157 0)
(2.98763 -0.385791 0)
(2.98703 -0.378852 0)
(2.99636 -0.392204 0)
(2.995 -0.393812 0)
(2.99051 -0.393628 0)
(2.98826 -0.392787 0)
(2.98706 -0.392032 0)
(2.98701 -0.389247 0)
(2.98728 -0.389226 0)
(2.98734 -0.385069 0)
(2.98853 -0.386785 0)
(2.98843 -0.381772 0)
(2.9826 -0.392834 0)
(2.98444 -0.394384 0)
(2.98798 -0.394024 0)
(2.99082 -0.393506 0)
(2.99141 -0.392748 0)
(2.99197 -0.390507 0)
(2.99239 -0.390453 0)
(2.993 -0.386927 0)
(2.99457 -0.388511 0)
(2.99523 -0.384164 0)
(2.99632 -0.39175 0)
(2.99642 -0.393724 0)
(2.99319 -0.393289 0)
(2.99233 -0.393809 0)
(2.99207 -0.393187 0)
(2.99326 -0.392482 0)
(2.99426 -0.392545 0)
(2.9956 -0.390761 0)
(2.99751 -0.392311 0)
(2.99872 -0.389649 0)
(2.98106 -0.395112 0)
(2.98402 -0.396794 0)
(2.98848 -0.395987 0)
(2.99233 -0.397124 0)
(2.99375 -0.396651 0)
(2.99556 -0.397062 0)
(2.99697 -0.397077 0)
(2.99908 -0.396331 0)
(3.00168 -0.397413 0)
(3.00381 -0.395776 0)
(2.99651 -0.397222 0)
(2.9973 -0.396555 0)
(2.99347 -0.394382 0)
(2.99215 -0.396388 0)
(2.99224 -0.396063 0)
(2.99492 -0.398069 0)
(2.99784 -0.398031 0)
(3.00138 -0.399062 0)
(3.00495 -0.399899 0)
(3.00774 -0.400172 0)
(2.99298 -0.403594 0)
(2.99382 -0.410872 0)
(2.99124 -0.412117 0)
(2.99085 -0.415004 0)
(2.99238 -0.413359 0)
(2.99592 -0.414883 0)
(3.00007 -0.413483 0)
(3.00438 -0.41489 0)
(3.00902 -0.41466 0)
(3.01256 -0.415664 0)
(2.97433 -0.411915 0)
(2.97928 -0.41645 0)
(2.98729 -0.415687 0)
(2.99303 -0.418951 0)
(2.99796 -0.416871 0)
(3.00148 -0.419567 0)
(3.00626 -0.417549 0)
(3.00984 -0.420298 0)
(3.01565 -0.4192 0)
(3.01895 -0.421733 0)
(2.98603 -0.421166 0)
(2.98936 -0.42624 0)
(2.99222 -0.425383 0)
(2.99429 -0.430053 0)
(2.99999 -0.428207 0)
(3.00368 -0.432598 0)
(3.0105 -0.43031 0)
(3.01387 -0.434498 0)
(3.02138 -0.432453 0)
(3.02395 -0.436316 0)
(2.96843 -0.43329 0)
(2.97472 -0.439833 0)
(2.98691 -0.438926 0)
(2.99358 -0.444889 0)
(3.00302 -0.442432 0)
(3.0067 -0.447884 0)
(3.01592 -0.444421 0)
(3.01851 -0.449504 0)
(3.02858 -0.445818 0)
(3.02976 -0.450485 0)
(2.97719 -0.449902 0)
(2.98233 -0.457979 0)
(2.99052 -0.456213 0)
(2.99424 -0.46334 0)
(3.00567 -0.459431 0)
(3.00967 -0.465823 0)
(3.02209 -0.460484 0)
(3.02379 -0.466518 0)
(3.03672 -0.460673 0)
(3.03556 -0.466298 0)
(2.95574 -0.473119 0)
(2.96549 -0.482953 0)
(2.98326 -0.479152 0)
(2.99302 -0.486959 0)
(3.00808 -0.479999 0)
(3.0127 -0.487166 0)
(3.02681 -0.478676 0)
(3.02767 -0.485934 0)
(3.04256 -0.476856 0)
(3.03944 -0.483946 0)
(2.95571 -0.504894 0)
(2.96929 -0.515771 0)
(2.98398 -0.507373 0)
(2.99421 -0.514397 0)
(3.00851 -0.501736 0)
(3.01505 -0.508963 0)
(3.02817 -0.495438 0)
(3.03028 -0.504341 0)
(3.04386 -0.490654 0)
(3.04168 -0.500294 0)
(2.92326 -0.54528 0)
(2.9508 -0.558614 0)
(2.97728 -0.545131 0)
(2.99818 -0.54999 0)
(3.01051 -0.529348 0)
(3.01958 -0.535146 0)
(3.02525 -0.514311 0)
(3.03131 -0.523735 0)
(3.0372 -0.503491 0)
(3.04221 -0.515451 0)
(2.90163 -0.595617 0)
(2.94558 -0.602963 0)
(2.98214 -0.581175 0)
(3.01033 -0.5838 0)
(3.01994 -0.556672 0)
(3.03155 -0.562244 0)
(3.02859 -0.532846 0)
(3.03983 -0.541963 0)
(3.03321 -0.510562 0)
(3.04813 -0.523179 0)
(2.8931 -0.658116 0)
(2.95171 -0.652357 0)
(3.00059 -0.623099 0)
(3.02695 -0.621842 0)
(3.03976 -0.598144 0)
(3.05119 -0.607154 0)
(3.0503 -0.583257 0)
(3.06541 -0.596943 0)
(3.05553 -0.568514 0)
(3.07727 -0.585807 0)
(2.93387 -0.753784 0)
(2.99996 -0.706934 0)
(3.04738 -0.637304 0)
(3.04311 -0.596702 0)
(3.05056 -0.544588 0)
(3.04375 -0.524489 0)
(3.05084 -0.483469 0)
(3.0565 -0.474798 0)
(3.05696 -0.438909 0)
(3.07259 -0.438466 0)
(3.11388 -0.938001 0)
(3.22018 -0.907705 0)
(3.27706 -0.866231 0)
(3.23473 -0.850278 0)
(3.22702 -0.81653 0)
(3.17654 -0.806419 0)
(3.17898 -0.767589 0)
(3.13793 -0.759185 0)
(3.13999 -0.715651 0)
(3.10016 -0.712859 0)
(3.13273 -0.745815 0)
(3.22189 -0.514797 0)
(3.22071 -0.3759 0)
(3.14348 -0.318929 0)
(3.12665 -0.270616 0)
(3.06347 -0.241597 0)
(3.06649 -0.208072 0)
(2.9984 -0.192556 0)
(2.99521 -0.177854 0)
(2.91489 -0.171187 0)
(3.73603 -1.57416 0)
(3.50845 -1.33689 0)
(3.01372 -1.14813 0)
(2.65021 -1.04435 0)
(2.4481 -0.926179 0)
(2.27172 -0.857482 0)
(2.11531 -0.749464 0)
(1.93126 -0.718586 0)
(1.78303 -0.620779 0)
(1.60918 -0.638504 0)
(2.99441 -0.395801 0)
(2.99135 -0.390315 0)
(2.99549 -0.422128 0)
(3.00441 -0.44354 0)
(2.98593 -0.405395 0)
(2.96789 -0.440418 0)
(2.96071 -0.575341 0)
(2.90351 -0.716611 0)
(2.79987 -0.882915 0)
(2.70095 -1.11881 0)
(2.55849 -1.34171 0)
(2.28267 -1.46623 0)
(1.87844 -1.49086 0)
(1.43766 -1.43884 0)
(1.04779 -1.32313 0)
(0.741129 -1.15689 0)
(0.517249 -0.961769 0)
(0.351189 -0.749004 0)
(0.242676 -0.540543 0)
(0.155669 -0.239029 0)
(2.99878 -0.399385 0)
(2.99795 -0.390604 0)
(3.00652 -0.427901 0)
(3.01793 -0.439462 0)
(2.98863 -0.392672 0)
(2.95937 -0.434351 0)
(2.93046 -0.559393 0)
(2.83233 -0.673095 0)
(2.70733 -0.829246 0)
(2.6117 -1.05451 0)
(2.46644 -1.22325 0)
(2.19585 -1.26767 0)
(1.834 -1.24197 0)
(1.45947 -1.19537 0)
(1.12578 -1.12212 0)
(0.850388 -1.00747 0)
(0.638666 -0.856578 0)
(0.473485 -0.677952 0)
(0.365251 -0.493915 0)
(0.268672 -0.220432 0)
(3.00741 -0.400858 0)
(3.00696 -0.391542 0)
(3.01809 -0.432618 0)
(3.02975 -0.433693 0)
(2.99149 -0.381682 0)
(2.95037 -0.424033 0)
(2.90512 -0.538097 0)
(2.8006 -0.644381 0)
(2.69388 -0.807045 0)
(2.61558 -1.03379 0)
(2.47223 -1.20003 0)
(2.19733 -1.25429 0)
(1.82497 -1.24143 0)
(1.43878 -1.19456 0)
(1.10226 -1.11098 0)
(0.83507 -0.985795 0)
(0.636628 -0.829859 0)
(0.488461 -0.651521 0)
(0.40246 -0.472529 0)
(0.342297 -0.209471 0)
(3.01225 -0.405718 0)
(3.01262 -0.393488 0)
(3.02962 -0.441479 0)
(3.04017 -0.426415 0)
(2.9899 -0.362701 0)
(2.94376 -0.409338 0)
(2.88436 -0.513757 0)
(2.75399 -0.605306 0)
(2.63594 -0.770846 0)
(2.55001 -0.98704 0)
(2.38594 -1.09744 0)
(2.10611 -1.07355 0)
(1.77561 -1.016 0)
(1.45695 -0.98129 0)
(1.17247 -0.943845 0)
(0.927764 -0.869829 0)
(0.732284 -0.754243 0)
(0.574257 -0.603527 0)
(0.474684 -0.446701 0)
(0.41268 -0.201721 0)
(3.01925 -0.408933 0)
(3.02162 -0.396371 0)
(3.04248 -0.44984 0)
(3.05169 -0.415062 0)
(2.99791 -0.342959 0)
(2.94568 -0.391544 0)
(2.85768 -0.481774 0)
(2.7104 -0.56678 0)
(2.61278 -0.740446 0)
(2.54644 -0.949475 0)
(2.38693 -1.05226 0)
(2.10286 -1.04825 0)
(1.7538 -1.01344 0)
(1.41652 -0.977978 0)
(1.13318 -0.923011 0)
(0.906918 -0.833393 0)
(0.73696 -0.713649 0)
(0.605782 -0.567597 0)
(0.523989 -0.423432 0)
(0.472048 -0.193785 0)
(3.02637 -0.411586 0)
(3.03 -0.398971 0)
(3.05405 -0.460322 0)
(3.06488 -0.403399 0)
(3.00712 -0.320462 0)
(2.94249 -0.368252 0)
(2.82817 -0.443612 0)
(2.67181 -0.525806 0)
(2.58236 -0.71377 0)
(2.49807 -0.912086 0)
(2.29638 -0.958246 0)
(1.99943 -0.882485 0)
(1.6995 -0.815958 0)
(1.4319 -0.801288 0)
(1.19249 -0.793143 0)
(0.978962 -0.747288 0)
(0.803032 -0.657502 0)
(0.662479 -0.530307 0)
(0.576521 -0.402597 0)
(0.525556 -0.187429 0)
(3.03482 -0.421044 0)
(3.03981 -0.407341 0)
(3.06332 -0.474529 0)
(3.0782 -0.390835 0)
(3.02311 -0.295969 0)
(2.9466 -0.338255 0)
(2.79998 -0.399704 0)
(2.63329 -0.488886 0)
(2.5576 -0.684062 0)
(2.47608 -0.857588 0)
(2.27888 -0.892686 0)
(1.98045 -0.84652 0)
(1.65782 -0.808535 0)
(1.37525 -0.791852 0)
(1.14679 -0.763623 0)
(0.962496 -0.704072 0)
(0.817764 -0.61448 0)
(0.698214 -0.495278 0)
(0.621053 -0.381513 0)
(0.572572 -0.180992 0)
(3.04726 -0.422621 0)
(3.049 -0.407755 0)
(3.0688 -0.486119 0)
(3.0969 -0.375902 0)
(3.04788 -0.267177 0)
(2.94923 -0.301764 0)
(2.76483 -0.349285 0)
(2.60025 -0.447272 0)
(2.54209 -0.658963 0)
(2.42666 -0.817065 0)
(2.16477 -0.797359 0)
(1.85883 -0.695367 0)
(1.60037 -0.643864 0)
(1.38629 -0.655228 0)
(1.19116 -0.668313 0)
(1.01036 -0.640185 0)
(0.86033 -0.570081 0)
(0.73945 -0.463038 0)
(0.663502 -0.362044 0)
(0.614846 -0.174905 0)
(3.06051 -0.431321 0)
(3.05424 -0.414756 0)
(3.07087 -0.506472 0)
(3.11999 -0.367535 0)
(3.07847 -0.238978 0)
(2.95228 -0.254167 0)
(2.73377 -0.294596 0)
(2.57466 -0.417959 0)
(2.51219 -0.62614 0)
(2.37361 -0.739913 0)
(2.11248 -0.713519 0)
(1.80135 -0.652464 0)
(1.52831 -0.633415 0)
(1.3178 -0.641118 0)
(1.14953 -0.635546 0)
(1.0037 -0.597909 0)
(0.879368 -0.530591 0)
(0.771884 -0.431717 0)
(0.701298 -0.342594 0)
(0.65263 -0.168633 0)
(3.0778 -0.436986 0)
(3.0539 -0.415638 0)
(3.06802 -0.527842 0)
(3.15295 -0.357319 0)
(3.12402 -0.203426 0)
(2.95795 -0.199102 0)
(2.69835 -0.232642 0)
(2.5538 -0.376337 0)
(2.48961 -0.59211 0)
(2.28408 -0.680043 0)
(1.96083 -0.609893 0)
(1.678 -0.521582 0)
(1.48173 -0.509014 0)
(1.32619 -0.546097 0)
(1.1766 -0.569498 0)
(1.0321 -0.550139 0)
(0.908533 -0.493769 0)
(0.804279 -0.403041 0)
(0.736381 -0.323966 0)
(0.686764 -0.162251 0)
(3.097 -0.442549 0)
(3.03917 -0.414098 0)
(3.06262 -0.559855 0)
(3.20624 -0.357981 0)
(3.18223 -0.165481 0)
(2.96127 -0.128763 0)
(2.67386 -0.171549 0)
(2.535 -0.348233 0)
(2.42349 -0.53851 0)
(2.17998 -0.577425 0)
(1.85829 -0.518919 0)
(1.577 -0.483342 0)
(1.39163 -0.500935 0)
(1.26298 -0.531026 0)
(1.14846 -0.538774 0)
(1.03351 -0.512947 0)
(0.927501 -0.459537 0)
(0.832071 -0.375466 0)
(0.768123 -0.305527 0)
(0.717578 -0.155574 0)
(3.11153 -0.44503 0)
(3.00938 -0.411435 0)
(3.06491 -0.607225 0)
(3.2872 -0.364244 0)
(3.26068 -0.114344 0)
(2.96639 -0.0482737 0)
(2.64182 -0.104147 0)
(2.51374 -0.299466 0)
(2.35072 -0.474141 0)
(2.00821 -0.487389 0)
(1.67173 -0.415085 0)
(1.46784 -0.385273 0)
(1.3575 -0.422741 0)
(1.26552 -0.473986 0)
(1.16204 -0.495353 0)
(1.05126 -0.47649 0)
(0.949716 -0.428266 0)
(0.858568 -0.349861 0)
(0.797373 -0.287542 0)
(0.745559 -0.148612 0)
(3.10865 -0.440359 0)
(2.97712 -0.411001 0)
(3.08706 -0.678602 0)
(3.4024 -0.380337 0)
(3.34457 -0.0535795 0)
(2.96684 0.0535029 0)
(2.62377 -0.029438 0)
(2.45354 -0.249109 0)
(2.20352 -0.377953 0)
(1.83534 -0.364513 0)
(1.51539 -0.339429 0)
(1.34928 -0.368766 0)
(1.28005 -0.423434 0)
(1.22371 -0.462444 0)
(1.14916 -0.469812 0)
(1.05795 -0.44538 0)
(0.967528 -0.398861 0)
(0.882285 -0.325369 0)
(0.824053 -0.269746 0)
(0.770977 -0.141297 0)
(3.07141 -0.429747 0)
(2.98107 -0.423016 0)
(3.13065 -0.779217 0)
(3.51626 -0.403934 0)
(3.42384 0.0340539 0)
(2.93253 0.165777 0)
(2.57377 0.0497772 0)
(2.3752 -0.167835 0)
(1.99808 -0.270394 0)
(1.58019 -0.258131 0)
(1.34685 -0.261106 0)
(1.27989 -0.319652 0)
(1.2629 -0.390195 0)
(1.22584 -0.434049 0)
(1.15823 -0.441457 0)
(1.07198 -0.416459 0)
(0.98625 -0.371669 0)
(0.904604 -0.302244 0)
(0.848609 -0.252197 0)
(0.794137 -0.133628 0)
(3.00823 -0.383853 0)
(3.0593 -0.4348 0)
(3.15261 -0.888009 0)
(3.54396 -0.422795 0)
(3.42438 0.139275 0)
(2.85376 0.302736 0)
(2.46016 0.146035 0)
(2.18357 -0.060307 0)
(1.73604 -0.124092 0)
(1.34231 -0.15353 0)
(1.19962 -0.23565 0)
(1.20455 -0.332981 0)
(1.22543 -0.399899 0)
(1.21075 -0.42659 0)
(1.15859 -0.420751 0)
(1.08258 -0.390198 0)
(1.00313 -0.345752 0)
(0.925087 -0.27999 0)
(0.871115 -0.234746 0)
(0.815239 -0.125585 0)
(2.97265 -0.441738 0)
(3.19588 -0.535918 0)
(3.01526 -0.996517 0)
(3.37175 -0.452302 0)
(3.23014 0.267281 0)
(2.65138 0.442343 0)
(2.2714 0.254005 0)
(1.87119 0.0631359 0)
(1.37726 0.00331423 0)
(1.12348 -0.0824319 0)
(1.12375 -0.219623 0)
(1.19184 -0.333411 0)
(1.2311 -0.395818 0)
(1.22033 -0.413358 0)
(1.16999 -0.400006 0)
(1.09668 -0.36555 0)
(1.02017 -0.321131 0)
(0.944324 -0.258573 0)
(0.89182 -0.217359 0)
(0.834476 -0.117175 0)
(3.0012 -0.304391 0)
(3.25588 -0.434781 0)
(2.60259 -0.937445 0)
(2.87963 -0.422217 0)
(2.88077 0.365135 0)
(2.35338 0.571747 0)
(1.97651 0.402167 0)
(1.44794 0.229893 0)
(1.01297 0.116984 0)
(0.969606 -0.0699698 0)
(1.08745 -0.252739 0)
(1.19042 -0.363393 0)
(1.23684 -0.406849 0)
(1.22845 -0.406305 0)
(1.18084 -0.381341 0)
(1.11046 -0.341851 0)
(1.03644 -0.297142 0)
(0.962218 -0.237664 0)
(0.910815 -0.199933 0)
(0.851985 -0.108395 0)
(3.04466 -0.51031 0)
(2.92516 -0.522153 0)
(1.79817 -0.950921 0)
(2.1431 -0.466036 0)
(2.07691 0.461345 0)
(1.75636 0.683554 0)
(1.50253 0.526838 0)
(0.930921 0.374979 0)
(0.76759 0.161772 0)
(0.942987 -0.105103 0)
(1.12665 -0.291974 0)
(1.23434 -0.384242 0)
(1.26941 -0.409602 0)
(1.25064 -0.395546 0)
(1.19781 -0.361979 0)
(1.12615 -0.318537 0)
(1.05259 -0.273606 0)
(0.978999 -0.217121 0)
(0.92823 -0.182416 0)
(0.86788 -0.0992472 0)
(2.85494 -0.18147 0)
(2.15621 -0.0245048 0)
(0.889623 -0.633233 0)
(1.35268 -0.419426 0)
(1.4146 0.503096 0)
(1.27203 0.724203 0)
(0.822684 0.676701 0)
(0.462938 0.466902 0)
(0.694843 0.112629 0)
(1.00462 -0.181247 0)
(1.20675 -0.343212 0)
(1.2974 -0.407197 0)
(1.31081 -0.411061 0)
(1.27704 -0.382894 0)
(1.21673 -0.341391 0)
(1.14234 -0.294809 0)
(1.06827 -0.250038 0)
(0.994634 -0.196679 0)
(0.944121 -0.164726 0)
(0.882242 -0.0897324 0)
(1.01345 -0.154825 0)
(0.411946 0.0366297 0)
(0.151961 -0.814358 0)
(0.5775 -0.589614 0)
(0.77718 0.498265 0)
(0.495012 0.829724 0)
(0.0920471 0.780709 0)
(0.284501 0.408692 0)
(0.775355 -0.0090825 0)
(1.1301 -0.266951 0)
(1.31835 -0.385595 0)
(1.37876 -0.418363 0)
(1.36336 -0.403579 0)
(1.30957 -0.365237 0)
(1.23842 -0.318579 0)
(1.15929 -0.2703 0)
(1.08352 -0.226211 0)
(1.00916 -0.176192 0)
(0.958527 -0.146784 0)
(0.895124 -0.0798508 0)
(0.382967 0.161056 0)
(0.223367 0.175266 0)
(-0.0487917 -0.721354 0)
(0.00881391 -0.603777 0)
(0.302316 0.526191 0)
(-0.0478333 0.894949 0)
(-0.227704 0.7654 0)
(0.327333 0.295866 0)
(0.8852 -0.110768 0)
(1.22832 -0.32623 0)
(1.3903 -0.410263 0)
(1.4282 -0.42037 0)
(1.39619 -0.393398 0)
(1.33121 -0.349543 0)
(1.25347 -0.300774 0)
(1.17101 -0.252348 0)
(1.09371 -0.209151 0)
(1.01853 -0.161802 0)
(0.967575 -0.133974 0)
(0.903119 -0.0726767 0)
(0.171105 -0.0264279 0)
(0.135846 0.167414 0)
(-0.192531 -0.730441 0)
(-0.306006 -0.626287 0)
(0.0268271 0.534994 0)
(-0.347981 0.925828 0)
(-0.349163 0.729764 0)
(0.392969 0.214272 0)
(0.955575 -0.168336 0)
(1.28098 -0.35732 0)
(1.42525 -0.421978 0)
(1.45151 -0.420087 0)
(1.41225 -0.38678 0)
(1.34246 -0.340101 0)
(1.26172 -0.290315 0)
(1.17757 -0.241941 0)
(1.09942 -0.199319 0)
(1.02374 -0.153568 0)
(0.972552 -0.126579 0)
(0.907477 -0.068523 0)
(0.0205873 0.0773938 0)
(0.0202383 0.20398 0)
(-0.284013 -0.683671 0)
(-0.59705 -0.62814 0)
(-0.248199 0.541211 0)
(-0.625794 0.942363 0)
(-0.366384 0.669002 0)
(0.480973 0.124573 0)
(1.03274 -0.224403 0)
(1.33531 -0.38614 0)
(1.45917 -0.431885 0)
(1.47307 -0.418607 0)
(1.42705 -0.37938 0)
(1.35316 -0.330147 0)
(1.26975 -0.279547 0)
(1.18402 -0.231365 0)
(1.10499 -0.189394 0)
(1.02876 -0.145285 0)
(0.977311 -0.119126 0)
(0.911616 -0.0643178 0)
(-0.0551731 0.00217924 0)
(-0.0503766 0.215887 0)
(-0.342341 -0.649067 0)
(-0.845872 -0.619721 0)
(-0.522323 0.548232 0)
(-0.885407 0.936845 0)
(-0.266015 0.584799 0)
(0.58398 0.0336647 0)
(1.11747 -0.277866 0)
(1.39065 -0.41175 0)
(1.49057 -0.439467 0)
(1.49157 -0.415875 0)
(1.43985 -0.371343 0)
(1.36293 -0.31981 0)
(1.27746 -0.268528 0)
(1.19032 -0.220633 0)
(1.11041 -0.179374 0)
(1.0336 -0.136944 0)
(0.981847 -0.111616 0)
(0.915531 -0.0600625 0)
(-0.0994561 0.068225 0)
(-0.0966511 0.234564 0)
(-0.353432 -0.593231 0)
(-1.03542 -0.597721 0)
(-0.771092 0.557637 0)
(-1.11534 0.902987 0)
(-0.0936032 0.475497 0)
(0.70221 -0.0534126 0)
(1.20908 -0.327713 0)
(1.4474 -0.433604 0)
(1.52038 -0.444536 0)
(1.50766 -0.411942 0)
(1.45085 -0.362799 0)
(1.37182 -0.309195 0)
(1.28481 -0.257307 0)
(1.19645 -0.209758 0)
(1.11568 -0.169258 0)
(1.03825 -0.128544 0)
(0.986158 -0.104049 0)
(0.919223 -0.0557581 0)
(-0.110299 0.0375816 0)
(-0.104505 0.246359 0)
(-0.30835 -0.534169 0)
(-1.15482 -0.562879 0)
(-0.943625 0.569531 0)
(-1.22693 0.841509 0)
(0.0879838 0.344868 0)
(0.834136 -0.135884 0)
(1.30559 -0.373198 0)
(1.50497 -0.451247 0)
(1.54872 -0.446827 0)
(1.52153 -0.406752 0)
(1.46015 -0.353826 0)
(1.3798 -0.298391 0)
(1.29179 -0.245932 0)
(1.20241 -0.198755 0)
(1.12078 -0.159044 0)
(1.04271 -0.120079 0)
(0.990245 -0.0964192 0)
(0.922692 -0.0514055 0)
(-0.088184 0.113162 0)
(-0.0653475 0.264812 0)
(-0.202922 -0.465326 0)
(-1.19956 -0.515141 0)
(-1.04835 0.575278 0)
(-1.09876 0.762209 0)
(0.26011 0.207516 0)
(0.976514 -0.214322 0)
(1.40463 -0.413638 0)
(1.56269 -0.464409 0)
(1.57595 -0.446239 0)
(1.53371 -0.400303 0)
(1.46801 -0.344486 0)
(1.38698 -0.287468 0)
(1.29841 -0.234447 0)
(1.20818 -0.187637 0)
(1.12572 -0.148733 0)
(1.04698 -0.111547 0)
(0.994109 -0.0887248 0)
(0.92594 -0.0470061 0)
(-0.0464228 0.0251433 0)
(0.000168532 0.247735 0)
(-0.029067 -0.389499 0)
(-1.15998 -0.451022 0)
(-1.15094 0.568124 0)
(-0.739322 0.666566 0)
(0.44675 0.0808492 0)
(1.12698 -0.287722 0)
(1.50423 -0.448162 0)
(1.6198 -0.472805 0)
(1.60245 -0.442709 0)
(1.54482 -0.392621 0)
(1.47483 -0.334833 0)
(1.39348 -0.276473 0)
(1.3047 -0.222877 0)
(1.21377 -0.176415 0)
(1.13049 -0.138323 0)
(1.05107 -0.102948 0)
(0.997752 -0.0809622 0)
(0.928968 -0.0425619 0)
(0.0773397 0.168451 0)
(0.137257 0.284608 0)
(0.221266 -0.307696 0)
(-1.0169 -0.370913 0)
(-1.21531 0.526841 0)
(-0.312766 0.549698 0)
(0.663647 -0.0284306 0)
(1.28343 -0.353987 0)
(1.60274 -0.475935 0)
(1.67564 -0.476116 0)
(1.62864 -0.436097 0)
(1.55566 -0.383703 0)
(1.48115 -0.324945 0)
(1.39955 -0.265472 0)
(1.31073 -0.211248 0)
(1.2192 -0.165088 0)
(1.13511 -0.127809 0)
(1.05497 -0.0942742 0)
(1.00118 -0.0731296 0)
(0.931779 -0.0380737 0)
(0.353929 -0.0621183 0)
(0.288685 0.191864 0)
(0.544639 -0.277331 0)
(-0.760964 -0.277726 0)
(-1.08211 0.489949 0)
(0.0535948 0.41882 0)
(0.903293 -0.124429 0)
(1.44346 -0.412355 0)
(1.69876 -0.496985 0)
(1.7296 -0.474483 0)
(1.65498 -0.426309 0)
(1.56711 -0.373336 0)
(1.48761 -0.314789 0)
(1.40547 -0.25455 0)
(1.31658 -0.199637 0)
(1.22447 -0.153676 0)
(1.13956 -0.117193 0)
(1.05869 -0.0854992 0)
(1.00439 -0.0652361 0)
(0.934378 -0.0335325 0)
(1.83012 0.384531 0)
(1.38838 0.431398 0)
(1.42115 0.082011 0)
(0.00532237 -0.0344734 0)
(-0.154147 0.30577 0)
(0.797286 0.141201 0)
(1.45781 -0.313726 0)
(1.79419 -0.5213 0)
(1.89971 -0.530056 0)
(1.84203 -0.462416 0)
(1.71364 -0.39929 0)
(1.59534 -0.34736 0)
(1.50354 -0.291499 0)
(1.41876 -0.230749 0)
(1.32915 -0.174484 0)
(1.23563 -0.128759 0)
(1.14887 -0.0939312 0)
(1.06636 -0.0661423 0)
(1.01091 -0.0479681 0)
(0.939569 -0.0234995 0)
(3.04135 0.116497 0)
(2.52879 0.228172 0)
(2.97085 0.0942699 0)
(2.26572 0.218515 0)
(1.73337 0.239396 0)
(2.13446 -0.102814 0)
(2.36694 -0.462792 0)
(2.31143 -0.572007 0)
(2.15209 -0.507749 0)
(1.98433 -0.403188 0)
(1.81883 -0.335284 0)
(1.66952 -0.294871 0)
(1.54816 -0.248483 0)
(1.44648 -0.189615 0)
(1.34941 -0.132608 0)
(1.25135 -0.0880915 0)
(1.16081 -0.0565039 0)
(1.07534 -0.0351972 0)
(1.01786 -0.0206408 0)
(0.944751 -0.00755673 0)
(3.08282 0.595484 0)
(2.79673 0.514092 0)
(3.08432 0.256157 0)
(2.83282 0.462518 0)
(2.71929 0.406989 0)
(2.93681 -0.0731337 0)
(2.83137 -0.378685 0)
(2.51217 -0.423838 0)
(2.24033 -0.370813 0)
(2.10427 -0.302066 0)
(2.01184 -0.252095 0)
(1.8691 -0.226216 0)
(1.6888 -0.196701 0)
(1.52285 -0.147532 0)
(1.38668 -0.091833 0)
(1.27036 -0.0477357 0)
(1.17154 -0.0184568 0)
(1.08183 -0.00343802 0)
(1.02193 0.00748632 0)
(0.947202 0.00874043 0)
(3.0862 0.285413 0)
(3.02153 0.270605 0)
(3.12909 0.0918741 0)
(3.01087 0.318416 0)
(3.1446 0.245284 0)
(3.21428 -0.125166 0)
(2.95253 -0.3297 0)
(2.69793 -0.361376 0)
(2.5127 -0.351986 0)
(2.35657 -0.317552 0)
(2.23207 -0.241551 0)
(2.0813 -0.156539 0)
(1.86764 -0.0955949 0)
(1.64011 -0.0542975 0)
(1.44862 -0.0202475 0)
(1.29873 0.00665918 0)
(1.18364 0.02528 0)
(1.08656 0.0307134 0)
(1.02315 0.0367458 0)
(0.946818 0.0253793 0)
(3.08019 0.492482 0)
(3.12417 0.451106 0)
(3.12656 0.255905 0)
(3.0102 0.378291 0)
(3.18777 0.315459 0)
(3.22872 0.0281354 0)
(2.94851 -0.167023 0)
(2.67864 -0.228221 0)
(2.50386 -0.205219 0)
(2.27498 -0.169821 0)
(2.00717 -0.132311 0)
(1.80139 -0.0759222 0)
(1.65868 -0.0151107 0)
(1.53563 0.0286453 0)
(1.41262 0.0528 0)
(1.29111 0.0654284 0)
(1.18302 0.0722266 0)
(1.08564 0.0666641 0)
(1.02047 0.0668911 0)
(0.943292 0.0422113 0)
(3.05281 0.355748 0)
(3.16168 0.307174 0)
(3.11175 0.18732 0)
(3.03031 0.280081 0)
(3.16923 0.197836 0)
(3.17169 0.00978531 0)
(2.97882 -0.107592 0)
(2.74922 -0.187758 0)
(2.55287 -0.18318 0)
(2.32779 -0.0983813 0)
(2.05692 -0.0247901 0)
(1.82553 0.00520447 0)
(1.66333 0.024729 0)
(1.53563 0.0565253 0)
(1.41369 0.0896236 0)
(1.29209 0.108882 0)
(1.18179 0.115023 0)
(1.08175 0.102361 0)
(1.01429 0.0973959 0)
(0.936552 0.0590322 0)
(3.0739 0.386312 0)