/*--------------------------------*- C++ -*----------------------------------*\
| =========                 |                                                 |
| \\      /  F ield         | OpenFOAM: The Open Source CFD Toolbox           |
|  \\    /   O peration     | Version:  v1806                                 |
|   \\  /    A nd           | Web:      www.OpenFOAM.com                      |
|    \\/     M anipulation  |                                                 |
\*---------------------------------------------------------------------------*/
FoamFile
{
    version     2.0;
    format      ascii;
    class       volVectorField;
    location    "300";
    object      U;
}
// * * * * * * * * * * * * * * * * * * * * * * * * * * * * * * * * * * * * * //

dimensions      [0 1 -1 0 0 0 0];


internalField   nonuniform List<vector> 
2400
(
(0.3 -0.00159101 0)
(0.300008 -0.00476972 0)
(0.300025 -0.00793308 0)
(0.300054 -0.0110685 0)
(0.300096 -0.0141627 0)
(0.300156 -0.0172011 0)
(0.300237 -0.0201676 0)
(0.300342 -0.023044 0)
(0.300477 -0.0258102 0)
(0.300646 -0.0284439 0)
(0.300855 -0.0309212 0)
(0.301108 -0.0332167 0)
(0.301412 -0.0353042 0)
(0.301771 -0.0371573 0)
(0.302188 -0.0387506 0)
(0.302668 -0.0400604 0)
(0.303209 -0.0410664 0)
(0.303814 -0.0417523 0)
(0.304477 -0.042107 0)
(0.305198 -0.0421259 0)
(0.300001 -0.00159736 0)
(0.30002 -0.00478932 0)
(0.300059 -0.00796775 0)
(0.30012 -0.011121 0)
(0.300206 -0.0142367 0)
(0.300321 -0.0173011 0)
(0.30047 -0.0202987 0)
(0.30066 -0.0232123 0)
(0.300896 -0.0260222 0)
(0.301186 -0.0287067 0)
(0.301536 -0.0312422 0)
(0.301953 -0.0336031 0)
(0.302443 -0.0357626 0)
(0.30301 -0.0376934 0)
(0.303658 -0.0393685 0)
(0.304386 -0.0407624 0)
(0.305193 -0.0418519 0)
(0.306073 -0.042618 0)
(0.307018 -0.0430468 0)
(0.308017 -0.0431297 0)
(0.300002 -0.00160959 0)
(0.300032 -0.00482655 0)
(0.300093 -0.00803184 0)
(0.300188 -0.0112152 0)
(0.300321 -0.0143654 0)
(0.300497 -0.0174699 0)
(0.300723 -0.0205142 0)
(0.301008 -0.0234818 0)
(0.30136 -0.0263535 0)
(0.301787 -0.0291079 0)
(0.302299 -0.031721 0)
(0.302905 -0.0341664 0)
(0.30361 -0.0364158 0)
(0.304421 -0.0384401 0)
(0.30534 -0.0402092 0)
(0.306365 -0.0416945 0)
(0.30749 -0.0428691 0)
(0.308706 -0.0437103 0)
(0.309998 -0.0441997 0)
(0.311347 -0.0443279 0)
(0.300002 -0.00162705 0)
(0.300042 -0.00487956 0)
(0.300122 -0.00812264 0)
(0.300248 -0.0113478 0)
(0.300424 -0.0145455 0)
(0.300656 -0.0177046 0)
(0.300954 -0.020812 0)
(0.301329 -0.0238521 0)
(0.301791 -0.0268064 0)
(0.302352 -0.0296537 0)
(0.303024 -0.0323693 0)
(0.303818 -0.0349257 0)
(0.304741 -0.0372926 0)
(0.305802 -0.0394378 0)
(0.307 -0.0413275 0)
(0.308335 -0.0429286 0)
(0.309797 -0.0442087 0)
(0.311372 -0.0451403 0)
(0.313039 -0.0456993 0)
(0.314772 -0.0458719 0)
(0.300003 -0.00164885 0)
(0.30005 -0.00494575 0)
(0.300147 -0.00823609 0)
(0.300297 -0.0115136 0)
(0.300508 -0.0147709 0)
(0.300788 -0.0179989 0)
(0.301149 -0.021186 0)
(0.301603 -0.0243181 0)
(0.302165 -0.0273774 0)
(0.30285 -0.0303429 0)
(0.303672 -0.0331892 0)
(0.304646 -0.0358875 0)
(0.305783 -0.0384046 0)
(0.307092 -0.0407045 0)
(0.308576 -0.0427482 0)
(0.31023 -0.0444966 0)
(0.312046 -0.0459101 0)
(0.314003 -0.0469541 0)
(0.316073 -0.0475968 0)
(0.318222 -0.0478193 0)
(0.300003 -0.00167389 0)
(0.300056 -0.00502187 0)
(0.300164 -0.00836685 0)
(0.300332 -0.0117055 0)
(0.300569 -0.0150328 0)
(0.300885 -0.0183425 0)
(0.301295 -0.0216247 0)
(0.301814 -0.0248675 0)
(0.302461 -0.0280538 0)
(0.303255 -0.0311637 0)
(0.304214 -0.0341704 0)
(0.305358 -0.0370441 0)
(0.306701 -0.0397476 0)
(0.308257 -0.0422408 0)
(0.310028 -0.0444776 0)
(0.312015 -0.0464112 0)
(0.314203 -0.0479923 0)
(0.316569 -0.0491766 0)
(0.319078 -0.0499223 0)
(0.321684 -0.0502029 0)
(0.300003 -0.00170079 0)
(0.300059 -0.00510379 0)
(0.300172 -0.00850811 0)
(0.300349 -0.0119139 0)
(0.3006 -0.0153193 0)
(0.300938 -0.0187212 0)
(0.30138 -0.0221123 0)
(0.301946 -0.0254834 0)
(0.302659 -0.0288184 0)
(0.303542 -0.0320994 0)
(0.30462 -0.0352979 0)
(0.305918 -0.038384 0)
(0.307456 -0.0413149 0)
(0.309252 -0.0440467 0)
(0.311316 -0.0465235 0)
(0.313647 -0.0486892 0)
(0.316231 -0.0504815 0)
(0.319042 -0.0518433 0)
(0.322033 -0.0527184 0)
(0.32515 -0.05307 0)
(0.300003 -0.00172788 0)
(0.300057 -0.00518648 0)
(0.300168 -0.0086515 0)
(0.300344 -0.0121273 0)
(0.300595 -0.0156156 0)
(0.300937 -0.0191178 0)
(0.301391 -0.0226288 0)
(0.30198 -0.0261444 0)
(0.302734 -0.0296487 0)
(0.303681 -0.0331285 0)
(0.304853 -0.0365515 0)
(0.306282 -0.0398915 0)
(0.307999 -0.043096 0)
(0.310026 -0.0461205 0)
(0.312382 -0.0488938 0)
(0.315069 -0.0513511 0)
(0.318077 -0.0534114 0)
(0.321375 -0.0550001 0)
(0.324907 -0.0560417 0)
(0.328603 -0.0564837 0)
(0.300003 -0.00175314 0)
(0.300052 -0.00526393 0)
(0.300152 -0.00878701 0)
(0.300313 -0.0123318 0)
(0.300546 -0.015904 0)
(0.30087 -0.0195108 0)
(0.30131 -0.0231497 0)
(0.301895 -0.0268235 0)
(0.302657 -0.0305156 0)
(0.303635 -0.0342221 0)
(0.304868 -0.0379032 0)
(0.306399 -0.0415438 0)
(0.308268 -0.0450731 0)
(0.310508 -0.0484566 0)
(0.313152 -0.051594 0)
(0.316207 -0.0544201 0)
(0.319671 -0.0568213 0)
(0.323507 -0.0587044 0)
(0.327653 -0.0599656 0)
(0.332019 -0.0605267 0)
(0.300002 -0.00177422 0)
(0.300041 -0.0053291 0)
(0.300121 -0.00890285 0)
(0.300251 -0.0125108 0)
(0.300446 -0.0161632 0)
(0.300728 -0.0198742 0)
(0.301123 -0.0236443 0)
(0.301667 -0.0274866 0)
(0.302399 -0.0313818 0)
(0.303365 -0.0353429 0)
(0.304615 -0.0393144 0)
(0.306204 -0.0433089 0)
(0.308188 -0.0472175 0)
(0.310613 -0.0510433 0)
(0.313533 -0.0546227 0)
(0.31696 -0.0579214 0)
(0.320913 -0.0607564 0)
(0.325349 -0.0630283 0)
(0.3302 -0.0645848 0)
(0.335355 -0.0653086 0)
(0.300001 -0.00178846 0)
(0.300024 -0.00537391 0)
(0.300072 -0.00898545 0)
(0.300154 -0.0126452 0)
(0.300288 -0.0163681 0)
(0.300497 -0.0201774 0)
(0.300811 -0.0240761 0)
(0.301272 -0.028092 0)
(0.301924 -0.0322002 0)
(0.302825 -0.0364416 0)
(0.304033 -0.0407326 0)
(0.305623 -0.0451418 0)
(0.307667 -0.0494837 0)
(0.310231 -0.0538602 0)
(0.313402 -0.0579646 0)
(0.317192 -0.0618845 0)
(0.321674 -0.065263 0)
(0.326771 -0.0680638 0)
(0.332449 -0.0700216 0)
(0.338553 -0.0709731 0)
(0.3 -0.00179287 0)
(0.300001 -0.00538932 0)
(0.300004 -0.00901964 0)
(0.30002 -0.0127131 0)
(0.300065 -0.0164902 0)
(0.300167 -0.0203844 0)
(0.300359 -0.0244016 0)
(0.300685 -0.0285885 0)
(0.301198 -0.0329121 0)
(0.301965 -0.037455 0)
(0.303059 -0.0420882 0)
(0.304571 -0.046979 0)
(0.306597 -0.0518022 0)
(0.30923 -0.0568733 0)
(0.312603 -0.0615766 0)
(0.316727 -0.066347 0)
(0.321778 -0.0703772 0)
(0.327594 -0.0739399 0)
(0.334265 -0.076434 0)
(0.341523 -0.0777125 0)
(0.299999 -0.00178423 0)
(0.29997 -0.00536561 0)
(0.299916 -0.00898891 0)
(0.299844 -0.0126908 0)
(0.299773 -0.0164978 0)
(0.299729 -0.0204544 0)
(0.299752 -0.024571 0)
(0.299883 -0.0289153 0)
(0.30019 -0.0334471 0)
(0.300737 -0.0383013 0)
(0.301625 -0.0432917 0)
(0.302952 -0.0487303 0)
(0.304855 -0.0540739 0)
(0.30745 -0.0600233 0)
(0.310938 -0.0653704 0)
(0.315334 -0.0713576 0)
(0.320986 -0.0760897 0)
(0.327555 -0.0808626 0)
(0.335478 -0.0840196 0)
(0.344125 -0.0858062 0)
(0.299997 -0.00175921 0)
(0.299933 -0.00529266 0)
(0.299808 -0.008876 0)
(0.299625 -0.0125529 0)
(0.29941 -0.0163569 0)
(0.299178 -0.0203428 0)
(0.298983 -0.0245283 0)
(0.29885 -0.0290016 0)
(0.298875 -0.0337222 0)
(0.299094 -0.038878 0)
(0.299673 -0.0442318 0)
(0.300662 -0.0502658 0)
(0.302315 -0.0561689 0)
(0.304701 -0.0632009 0)
(0.308169 -0.0692058 0)
(0.312723 -0.0769604 0)
(0.31895 -0.0822828 0)
(0.326278 -0.0891834 0)
(0.335864 -0.0929604 0)
(0.346099 -0.0957329 0)
(0.299995 -0.00171453 0)
(0.299888 -0.00516045 0)
(0.299679 -0.00866363 0)
(0.299366 -0.012274 0)
(0.298976 -0.0160324 0)
(0.298515 -0.0200027 0)
(0.298052 -0.0242134 0)
(0.297579 -0.0287692 0)
(0.297242 -0.0336422 0)
(0.297002 -0.0390605 0)
(0.29716 -0.0447727 0)
(0.297596 -0.0514026 0)
(0.298866 -0.0579257 0)
(0.300743 -0.0661967 0)
(0.304052 -0.0729182 0)
(0.308507 -0.0831179 0)
(0.315169 -0.0887027 0)
(0.323276 -0.0994472 0)
(0.334999 -0.103176 0)
(0.346908 -0.108422 0)
(0.299992 -0.00164713 0)
(0.299838 -0.00495976 0)
(0.299533 -0.00833564 0)
(0.299069 -0.01183 0)
(0.298478 -0.0154901 0)
(0.29775 -0.019388 0)
(0.296966 -0.0235642 0)
(0.29608 -0.0281363 0)
(0.295295 -0.0331013 0)
(0.294456 -0.0387081 0)
(0.294062 -0.0447482 0)
(0.293673 -0.0519035 0)
(0.294418 -0.0591336 0)
(0.295294 -0.0686468 0)
(0.298389 -0.0763637 0)
(0.302104 -0.0895151 0)
(0.309123 -0.0951615 0)
(0.317935 -0.112266 0)
(0.331805 -0.113927 0)
(0.345764 -0.125725 0)
(0.29999 -0.0015545 0)
(0.299782 -0.00468285 0)
(0.299372 -0.00787837 0)
(0.298744 -0.0112 0)
(0.297928 -0.0147001 0)
(0.296901 -0.0184568 0)
(0.29575 -0.0225221 0)
(0.294388 -0.0270236 0)
(0.293062 -0.0319883 0)
(0.291497 -0.0376735 0)
(0.290383 -0.0439573 0)
(0.288897 -0.0514966 0)
(0.288889 -0.059484 0)
(0.288116 -0.0700349 0)
(0.29098 -0.0793333 0)
(0.292614 -0.0952964 0)
(0.300613 -0.102057 0)
(0.308965 -0.127674 0)
(0.324476 -0.124067 0)
(0.34265 -0.151556 0)
(0.299987 -0.00143489 0)
(0.299725 -0.00432429 0)
(0.299203 -0.00728206 0)
(0.298401 -0.0103688 0)
(0.297344 -0.0136393 0)
(0.295999 -0.0171756 0)
(0.294441 -0.0210378 0)
(0.292564 -0.0253615 0)
(0.2906 -0.0301988 0)
(0.28823 -0.0358153 0)
(0.286174 -0.0421769 0)
(0.283412 -0.0499002 0)
(0.282194 -0.0585206 0)
(0.279267 -0.0697901 0)
(0.281367 -0.0811854 0)
(0.279172 -0.0991249 0)
(0.28935 -0.110337 0)
(0.293173 -0.143621 0)
(0.313026 -0.135854 0)
(0.338594 -0.193345 0)
(0.299984 -0.00128773 0)
(0.299667 -0.0038819 0)
(0.299032 -0.0065425 0)
(0.298057 -0.0093289 0)
(0.296753 -0.0122956 0)
(0.295085 -0.0155245 0)
(0.293097 -0.0190798 0)
(0.29069 -0.0230994 0)
(0.288016 -0.0276539 0)
(0.284804 -0.0330119 0)
(0.281584 -0.0392067 0)
(0.277491 -0.0468373 0)
(0.274386 -0.0557077 0)
(0.26924 -0.0673341 0)
(0.268774 -0.08051 0)
(0.261985 -0.0997052 0)
(0.272534 -0.118533 0)
(0.266224 -0.155534 0)
(0.300672 -0.163363 0)
(0.326595 -0.258958 0)
(0.299981 -0.0011141 0)
(0.299612 -0.00335861 0)
(0.29887 -0.00566399 0)
(0.297728 -0.00808522 0)
(0.296185 -0.0106739 0)
(0.294206 -0.0135056 0)
(0.291794 -0.0166462 0)
(0.288865 -0.0202241 0)
(0.285466 -0.024325 0)
(0.281407 -0.0291986 0)
(0.276911 -0.0349361 0)
(0.271472 -0.0420895 0)
(0.265954 -0.0506578 0)
(0.25872 -0.0620318 0)
(0.253284 -0.0757136 0)
(0.242918 -0.0955983 0)
(0.244355 -0.119757 0)
(0.226079 -0.15911 0)
(0.268109 -0.210516 0)
(0.267066 -0.319184 0)
(0.305894 -0.0418404 0)
(0.306535 -0.0413771 0)
(0.307192 -0.0407131 0)
(0.307863 -0.0398613 0)
(0.308546 -0.0388307 0)
(0.309229 -0.0376396 0)
(0.309918 -0.0362971 0)
(0.310587 -0.034827 0)
(0.311275 -0.0332421 0)
(0.311895 -0.0315458 0)
(0.308949 -0.042896 0)
(0.309793 -0.0424732 0)
(0.310642 -0.0418386 0)
(0.311488 -0.0410044 0)
(0.312325 -0.0399793 0)
(0.31314 -0.038785 0)
(0.313936 -0.0374273 0)
(0.314686 -0.0359388 0)
(0.315425 -0.034321 0)
(0.316074 -0.0326039 0)
(0.312592 -0.0441132 0)
(0.313707 -0.0436914 0)
(0.314815 -0.0430445 0)
(0.315903 -0.0421868 0)
(0.316962 -0.0411261 0)
(0.317976 -0.0398878 0)
(0.318948 -0.0384755 0)
(0.319847 -0.0369277 0)
(0.320713 -0.0352422 0)
(0.321452 -0.0334507 0)
(0.316363 -0.0456711 0)
(0.317778 -0.0452433 0)
(0.319173 -0.0445716 0)
(0.320532 -0.0436726 0)
(0.321842 -0.0425536 0)
(0.323084 -0.0412453 0)
(0.324259 -0.0397483 0)
(0.325333 -0.0381121 0)
(0.326349 -0.0363237 0)
(0.327207 -0.0344394 0)
(0.32019 -0.0476284 0)
(0.321933 -0.0471843 0)
(0.323643 -0.0464704 0)
(0.325298 -0.0455069 0)
(0.326881 -0.0443012 0)
(0.328372 -0.0428914 0)
(0.329764 -0.0412753 0)
(0.331029 -0.0395168 0)
(0.332202 -0.0375896 0)
(0.33319 -0.0355784 0)
(0.324068 -0.0500173 0)
(0.326175 -0.0495437 0)
(0.328233 -0.0487666 0)
(0.330216 -0.0477105 0)
(0.332097 -0.0463845 0)
(0.333857 -0.0448364 0)
(0.33548 -0.0430618 0)
(0.336947 -0.0411416 0)
(0.338278 -0.0390355 0)
(0.339406 -0.0368601 0)
(0.328002 -0.0528858 0)
(0.33052 -0.0523683 0)
(0.332969 -0.0515031 0)
(0.335316 -0.0503205 0)
(0.337525 -0.0488338 0)
(0.339577 -0.0471025 0)
(0.341445 -0.0451233 0)
(0.343125 -0.0429947 0)
(0.344612 -0.0406655 0)
(0.345885 -0.0382829 0)
(0.331993 -0.0562984 0)
(0.334981 -0.0557196 0)
(0.337877 -0.0547349 0)
(0.340636 -0.0533824 0)
(0.343209 -0.0516839 0)
(0.345579 -0.049713 0)
(0.347705 -0.0474738 0)
(0.349605 -0.0450801 0)
(0.35124 -0.0424786 0)
(0.352661 -0.0398364 0)
(0.336035 -0.0603392 0)
(0.339574 -0.059677 0)
(0.342989 -0.0585317 0)
(0.346221 -0.0569505 0)
(0.349201 -0.0549739 0)
(0.351917 -0.0526909 0)
(0.354308 -0.0501245 0)
(0.356434 -0.0473956 0)
(0.3582 -0.0444675 0)
(0.359767 -0.0415014 0)
(0.34012 -0.0651207 0)
(0.344318 -0.0643463 0)
(0.34835 -0.0629821 0)
(0.35213 -0.0610901 0)
(0.355566 -0.0587461 0)
(0.358653 -0.0560564 0)
(0.361316 -0.0530807 0)
(0.363659 -0.0499294 0)
(0.365534 -0.0466159 0)
(0.367228 -0.0432464 0)
(0.344231 -0.0707962 0)
(0.349239 -0.0698705 0)
(0.354023 -0.0682007 0)
(0.358449 -0.0658781 0)
(0.362394 -0.0630438 0)
(0.365871 -0.0598221 0)
(0.368798 -0.0563349 0)
(0.371336 -0.0526528 0)
(0.373277 -0.0488902 0)
(0.375054 -0.0450206 0)
(0.348342 -0.0775796 0)
(0.354386 -0.0764462 0)
(0.360114 -0.0743358 0)
(0.365308 -0.0714065 0)
(0.369814 -0.0679115 0)
(0.373684 -0.0639904 0)
(0.376838 -0.0598594 0)
(0.379511 -0.0555077 0)
(0.381427 -0.0512219 0)
(0.383186 -0.0467324 0)
(0.352413 -0.0857888 0)
(0.35985 -0.0843425 0)
(0.366809 -0.0815716 0)
(0.372924 -0.0777819 0)
(0.378019 -0.0733921 0)
(0.382235 -0.0685435 0)
(0.38549 -0.0635833 0)
(0.388126 -0.0583707 0)
(0.389769 -0.0534585 0)
(0.391261 -0.0481867 0)
(0.356417 -0.0959417 0)
(0.365871 -0.0939267 0)
(0.374468 -0.0901077 0)
(0.381628 -0.0850787 0)
(0.387208 -0.0794464 0)
(0.391509 -0.0733306 0)
(0.394434 -0.0672535 0)
(0.396516 -0.0608987 0)
(0.39723 -0.0551946 0)
(0.397845 -0.0489021 0)
(0.360599 -0.108947 0)
(0.373159 -0.105734 0)
(0.383727 -0.100117 0)
(0.391627 -0.0931611 0)
(0.396957 -0.0856328 0)
(0.400309 -0.0776574 0)
(0.40163 -0.0699751 0)
(0.401791 -0.0620709 0)
(0.400131 -0.055327 0)
(0.39856 -0.0477177 0)
(0.36618 -0.126413 0)
(0.383058 -0.12064 0)
(0.394665 -0.111705 0)
(0.401178 -0.101302 0)
(0.403592 -0.0904618 0)
(0.403076 -0.0795228 0)
(0.399899 -0.0694215 0)
(0.395428 -0.0595106 0)
(0.389022 -0.0514995 0)
(0.38319 -0.0424562 0)
(0.375099 -0.15006 0)
(0.394501 -0.138659 0)
(0.401766 -0.123162 0)
(0.400635 -0.10619 0)
(0.394076 -0.0896253 0)
(0.38427 -0.0743082 0)
(0.372205 -0.0610788 0)
(0.35967 -0.0492484 0)
(0.346333 -0.0402263 0)
(0.334637 -0.0304921 0)
(0.383097 -0.174244 0)
(0.392093 -0.150196 0)
(0.382086 -0.122933 0)
(0.362824 -0.0961725 0)
(0.339359 -0.0731138 0)
(0.315167 -0.054363 0)
(0.291955 -0.0396463 0)
(0.271314 -0.0280231 0)
(0.253026 -0.0197343 0)
(0.238406 -0.0118576 0)
(0.363755 -0.17189 0)
(0.325468 -0.127015 0)
(0.283198 -0.0849478 0)
(0.240301 -0.0501426 0)
(0.201124 -0.0258614 0)
(0.170449 -0.0110135 0)
(0.148203 -0.00315068 0)
(0.13259 0.000655507 0)
(0.121547 0.00243748 0)
(0.114439 0.00404139 0)
(0.254839 -0.167853 0)
(0.0980792 -0.0776329 0)
(0.0528047 -0.0210537 0)
(0.0295127 0.00211808 0)
(0.0182601 0.00798028 0)
(0.015291 0.00792373 0)
(0.0158107 0.00617507 0)
(0.0176548 0.00450266 0)
(0.0198079 0.00341221 0)
(0.0216949 0.00244301 0)
(0.313794 -0.0267092 0)
(0.316097 -0.0164305 0)
(0.317374 -0.0100586 0)
(0.319163 -0.00178401 0)
(0.318931 -0.000608547 0)
(0.320413 0.00279755 0)
(0.32212 0.0027078 0)
(0.323345 0.00634029 0)
(0.326283 0.0216106 0)
(0.324565 0.0247393 0)
(0.325693 0.0461505 0)
(0.322486 0.0489236 0)
(0.320988 0.0516881 0)
(0.320199 0.0530258 0)
(0.31957 0.0339471 0)
(0.309905 0.0145695 0)
(0.305343 -0.0300409 0)
(0.30231 -0.050472 0)
(0.31535 -0.0818142 0)
(0.332144 -0.0539468 0)
(0.318037 -0.02761 0)
(0.319772 -0.0169592 0)
(0.320385 -0.0104693 0)
(0.321211 -0.00200446 0)
(0.320381 -0.000823895 0)
(0.321379 0.0022156 0)
(0.323457 0.0021087 0)
(0.325142 0.00571036 0)
(0.327909 0.0214 0)
(0.325637 0.0248995 0)
(0.326015 0.0463519 0)
(0.322322 0.0495354 0)
(0.320454 0.0520568 0)
(0.319352 0.0530191 0)
(0.318519 0.0355214 0)
(0.307942 0.0172048 0)
(0.302601 -0.0285107 0)
(0.298177 -0.0521025 0)
(0.312298 -0.0875756 0)
(0.332685 -0.0568655 0)
(0.323636 -0.0282635 0)
(0.325017 -0.0172243 0)
(0.325048 -0.0105527 0)
(0.324773 -0.00187089 0)
(0.323184 -0.000766731 0)
(0.323432 0.00181594 0)
(0.326031 0.0014654 0)
(0.32852 0.00509485 0)
(0.331218 0.0213576 0)
(0.328117 0.0253617 0)
(0.327111 0.0468984 0)
(0.322255 0.0504583 0)
(0.319711 0.0526092 0)
(0.317926 0.0533287 0)
(0.316374 0.0374693 0)
(0.304612 0.0193364 0)
(0.298856 -0.0271397 0)
(0.292822 -0.0534779 0)
(0.305576 -0.0926268 0)
(0.330935 -0.0593839 0)
(0.329672 -0.0289297 0)
(0.330859 -0.017361 0)
(0.330405 -0.0103848 0)
(0.329085 -0.00147325 0)
(0.326755 -0.000504648 0)
(0.326176 0.00144619 0)
(0.329468 0.000585952 0)
(0.333109 0.00438688 0)
(0.336028 0.0214666 0)
(0.332084 0.0261915 0)
(0.329241 0.0478575 0)
(0.322574 0.0516377 0)
(0.319126 0.0534158 0)
(0.316096 0.0538566 0)
(0.313318 0.0395194 0)
(0.300771 0.0216223 0)
(0.294717 -0.0253233 0)
(0.286738 -0.0541622 0)
(0.294671 -0.0981828 0)
(0.325682 -0.0625045 0)
(0.335935 -0.0296401 0)
(0.336993 -0.0174202 0)
(0.336054 -0.0100108 0)
(0.333691 -0.000835031 0)
(0.330611 -4.55216e-05 0)
(0.329173 0.00107303 0)
(0.333358 -0.000629822 0)
(0.338484 0.00346904 0)
(0.342024 0.0216319 0)
(0.337386 0.0274072 0)
(0.332488 0.0493268 0)
(0.323516 0.0532172 0)
(0.318989 0.0545728 0)
(0.314064 0.0546907 0)
(0.309678 0.0418803 0)
(0.297055 0.0240163 0)
(0.290344 -0.0230542 0)
(0.280017 -0.0538187 0)
(0.279692 -0.103633 0)
(0.316424 -0.0662454 0)
(0.342398 -0.0303878 0)
(0.343365 -0.0174009 0)
(0.341871 -0.00941376 0)
(0.338387 5.85578e-05 0)
(0.334467 0.000623566 0)
(0.332088 0.000688239 0)
(0.337371 -0.00225589 0)
(0.344284 0.00224399 0)
(0.348889 0.0217735 0)
(0.343731 0.0289944 0)
(0.336778 0.0513945 0)
(0.325201 0.0553009 0)
(0.319481 0.0561819 0)
(0.311993 0.0560381 0)
(0.305822 0.0445198 0)
(0.293857 0.0264346 0)
(0.285646 -0.0202006 0)
(0.272626 -0.0519596 0)
(0.261557 -0.108443 0)
(0.303381 -0.0706002 0)
(0.34907 -0.0311694 0)
(0.349987 -0.0172969 0)
(0.347832 -0.0085598 0)
(0.343081 0.00124517 0)
(0.33815 0.00153376 0)
(0.334691 0.000272231 0)
(0.341237 -0.00435653 0)
(0.350215 0.000615507 0)
(0.35635 0.0218181 0)
(0.35078 0.0309152 0)
(0.341933 0.0540902 0)
(0.327629 0.0579259 0)
(0.320651 0.0583504 0)
(0.309973 0.0580167 0)
(0.302131 0.0473201 0)
(0.291312 0.0289306 0)
(0.280417 -0.0165832 0)
(0.264588 -0.0483111 0)
(0.242 -0.112212 0)
(0.287503 -0.0754998 0)
(0.355959 -0.0319783 0)
(0.356889 -0.0171007 0)
(0.35393 -0.00740356 0)
(0.347698 0.00277895 0)
(0.341501 0.00274008 0)
(0.336774 -0.000190906 0)
(0.344639 -0.00699998 0)
(0.355945 -0.00149924 0)
(0.364129 0.0216953 0)
(0.358188 0.0331237 0)
(0.347706 0.0573942 0)
(0.330708 0.0610969 0)
(0.322405 0.0611604 0)
(0.308049 0.0606621 0)
(0.298955 0.0501889 0)
(0.289299 0.0316499 0)
(0.274496 -0.0120668 0)
(0.256159 -0.0428953 0)
(0.22321 -0.114731 0)
(0.270239 -0.0807812 0)
(0.363073 -0.0328071 0)
(0.364088 -0.0168016 0)
(0.360134 -0.00588342 0)
(0.352118 0.00473396 0)
(0.344295 0.00431405 0)
(0.338088 -0.000668041 0)
(0.347074 -0.0102265 0)
(0.360907 -0.00418817 0)
(0.371784 0.0213251 0)
(0.365559 0.0355667 0)
(0.353806 0.0612567 0)
(0.334278 0.0648018 0)
(0.32453 0.064669 0)
(0.306256 0.0639555 0)
(0.29654 0.0530754 0)
(0.287504 0.0347933 0)
(0.267884 -0.00661325 0)
(0.24787 -0.0360246 0)
(0.207222 -0.115965 0)
(0.253146 -0.0861956 0)
(0.370414 -0.0336475 0)
(0.371548 -0.0163795 0)
(0.366313 -0.00391503 0)
(0.356098 0.00721608 0)
(0.346152 0.0063516 0)
(0.338235 -0.00107981 0)
(0.347659 -0.0140141 0)
(0.364047 -0.00757911 0)
(0.378489 0.0205713 0)
(0.372333 0.0381533 0)
(0.359858 0.0655952 0)
(0.338111 0.0690152 0)
(0.326745 0.0689086 0)
(0.304653 0.0678244 0)
(0.294963 0.0559847 0)
(0.28554 0.0385754 0)
(0.260782 -0.000321946 0)
(0.240401 -0.0282233 0)
(0.195418 -0.115979 0)
(0.237535 -0.0914381 0)
(0.377949 -0.0344857 0)
(0.379063 -0.0157846 0)
(0.372095 -0.00139973 0)
(0.359139 0.0103677 0)
(0.346399 0.00898009 0)
(0.336501 -0.00127674 0)
(0.344935 -0.0182191 0)
(0.363564 -0.0117852 0)
(0.382779 0.0192096 0)
(0.377615 0.0406991 0)
(0.365342 0.0702681 0)
(0.341885 0.0736916 0)
(0.328735 0.0738727 0)
(0.303312 0.0721542 0)
(0.294107 0.0589852 0)
(0.283063 0.0431681 0)
(0.253534 0.00657734 0)
(0.234362 -0.0200852 0)
(0.18835 -0.114868 0)
(0.224309 -0.0962024 0)
(0.385449 -0.0352711 0)
(0.385967 -0.0149123 0)
(0.376571 0.00187088 0)
(0.360283 0.0143759 0)
(0.343916 0.0123608 0)
(0.33159 -0.000962164 0)
(0.336749 -0.0224995 0)
(0.356856 -0.0169027 0)
(0.382411 0.0168965 0)
(0.380028 0.0428703 0)
(0.369505 0.0750343 0)
(0.345141 0.0787424 0)
(0.330183 0.0794977 0)
(0.302276 0.0768114 0)
(0.293693 0.0621978 0)
(0.279848 0.0486545 0)
(0.246538 0.0137521 0)
(0.230121 -0.012168 0)
(0.185864 -0.112727 0)
(0.213993 -0.100248 0)
(0.391998 -0.0358203 0)
(0.390581 -0.0135304 0)
(0.377869 0.00607737 0)
(0.357806 0.019437 0)
(0.336964 0.016702 0)
(0.321377 0.000233496 0)
(0.320417 -0.0262971 0)
(0.340965 -0.0230178 0)
(0.374613 0.0131158 0)
(0.37774 0.0441257 0)
(0.371323 0.079509 0)
(0.34725 0.0840018 0)
(0.330781 0.0856468 0)
(0.301512 0.0816659 0)
(0.293331 0.0657646 0)
(0.275795 0.0550269 0)
(0.240143 0.0207949 0)
(0.227754 -0.00496214 0)
(0.187344 -0.109695 0)
(0.206817 -0.103425 0)
(0.394916 -0.0356407 0)
(0.389307 -0.0112103 0)
(0.372656 0.0113345 0)
(0.349022 0.0256791 0)
(0.323083 0.0222675 0)
(0.302949 0.00287348 0)
(0.293496 -0.0290286 0)
(0.313778 -0.0301796 0)
(0.356943 0.00722208 0)
(0.368864 0.043706 0)
(0.369602 0.0831402 0)
(0.347442 0.0891959 0)
(0.33022 0.0920987 0)
(0.300867 0.0866007 0)
(0.292598 0.0698188 0)
(0.270899 0.0621868 0)
(0.234588 0.027308 0)
(0.227097 0.00117929 0)
(0.191943 -0.106001 0)
(0.202793 -0.105671 0)
(0.388054 -0.0337352 0)
(0.375902 -0.00746554 0)
(0.356029 0.0176272 0)
(0.330365 0.0330326 0)
(0.299363 0.0292899 0)
(0.273424 0.00748567 0)
(0.255139 -0.0304567 0)
(0.275587 -0.0384698 0)
(0.328586 -0.00138501 0)
(0.352218 0.0407638 0)
(0.363273 0.085255 0)
(0.344915 0.0939373 0)
(0.328202 0.0985478 0)
(0.300069 0.0915126 0)
(0.291086 0.0744593 0)
(0.265218 0.0699527 0)
(0.229983 0.0329569 0)
(0.22781 0.00597153 0)
(0.19875 -0.101915 0)
(0.201754 -0.106996 0)
(0.360559 -0.0287405 0)
(0.342148 -0.00212166 0)
(0.322681 0.024429 0)
(0.298352 0.0410818 0)
(0.26334 0.0377763 0)
(0.231706 0.0140254 0)
(0.207557 -0.0309557 0)
(0.229757 -0.0481027 0)
(0.291136 -0.0130631 0)
(0.328021 0.0345954 0)
(0.351778 0.0851965 0)
(0.339029 0.0977674 0)
(0.324469 0.104625 0)
(0.29876 0.0963107 0)
(0.288439 0.0797262 0)
(0.258842 0.078092 0)
(0.226302 0.0374755 0)
(0.229473 0.00927946 0)
(0.206915 -0.0977034 0)
(0.203359 -0.107467 0)
(0.299693 -0.0197453 0)
(0.282457 0.00357232 0)
(0.270388 0.0304053 0)
(0.251713 0.0490465 0)
(0.21484 0.0472686 0)
(0.18033 0.0216626 0)
(0.156059 -0.0314385 0)
(0.181364 -0.0591956 0)
(0.248002 -0.0276512 0)
(0.297918 0.0248844 0)
(0.335265 0.0825001 0)
(0.32948 0.100236 0)
(0.318871 0.109939 0)
(0.296552 0.100918 0)
(0.284369 0.085591 0)
(0.251874 0.0863397 0)
(0.223441 0.0406934 0)
(0.231657 0.0111218 0)
(0.215708 -0.0936116 0)
(0.207133 -0.107212 0)
(0.203868 -0.00929225 0)
(0.20301 0.00686342 0)
(0.204635 0.033882 0)
(0.193713 0.0561074 0)
(0.157699 0.0568182 0)
(0.12548 0.0289109 0)
(0.107066 -0.0328768 0)
(0.134899 -0.0713972 0)
(0.202877 -0.0445396 0)
(0.264225 0.0117676 0)
(0.314432 0.0770052 0)
(0.316364 0.100979 0)
(0.311406 0.114135 0)
(0.29308 0.10528 0)
(0.27868 0.0919672 0)
(0.244434 0.0944086 0)
(0.221234 0.0425185 0)
(0.23399 0.0115158 0)
(0.224578 -0.0898631 0)
(0.212539 -0.106413 0)
(0.102678 -0.00546078 0)
(0.12439 0.00470245 0)
(0.136879 0.0343293 0)
(0.131461 0.0619286 0)
(0.099054 0.0653294 0)
(0.0744381 0.0343566 0)
(0.0657821 -0.035742 0)
(0.0934344 -0.0839333 0)
(0.158807 -0.062952 0)
(0.229108 -0.00427991 0)
(0.290203 0.0688418 0)
(0.30014 0.0997422 0)
(0.302236 0.116941 0)
(0.288048 0.109374 0)
(0.271289 0.098721 0)
(0.236665 0.101999 0)
(0.219501 0.0429008 0)
(0.236192 0.0105061 0)
(0.233173 -0.0866536 0)
(0.219064 -0.105249 0)
(0.0358384 -0.0121595 0)
(0.0623148 -0.00141784 0)
(0.0762262 0.0332835 0)
(0.0725267 0.0666678 0)
(0.0463728 0.0718663 0)
(0.0328388 0.0371302 0)
(0.0355672 -0.0397239 0)
(0.0597531 -0.0957663 0)
(0.118424 -0.0819221 0)
(0.19428 -0.0226108 0)
(0.263563 0.0583485 0)
(0.281556 0.0963797 0)
(0.291654 0.118202 0)
(0.281248 0.113215 0)
(0.262227 0.105679 0)
(0.228726 0.108823 0)
(0.218088 0.0418435 0)
(0.238108 0.00816259 0)
(0.241328 -0.0841553 0)
(0.226277 -0.103858 0)
(0.0139238 -0.0188796 0)
(0.0229507 -0.00516425 0)
(0.0319091 0.0325501 0)
(0.0280229 0.0699273 0)
(0.00926214 0.0754822 0)
(0.00694109 0.0370806 0)
(0.0202017 -0.0437088 0)
(0.0394722 -0.104745 0)
(0.0879803 -0.0983577 0)
(0.164557 -0.0403914 0)
(0.238578 0.0471582 0)
(0.263799 0.0914311 0)
(0.281258 0.117949 0)
(0.27345 0.116531 0)
(0.25276 0.111896 0)
(0.221609 0.113966 0)
(0.217062 0.0396804 0)
(0.239561 0.00492383 0)
(0.248264 -0.0826621 0)
(0.233095 -0.102488 0)
(0.00106316 -0.0208014 0)
(-0.00249761 -0.00591119 0)
(0.000576022 0.032486 0)
(-0.00361692 0.0720795 0)
(-0.014972 0.0767832 0)
(-0.00688882 0.034841 0)
(0.0156164 -0.0477359 0)
(0.0307534 -0.111063 0)
(0.0674637 -0.111562 0)
(0.140465 -0.0564232 0)
(0.21653 0.0361794 0)
(0.247962 0.0857035 0)
(0.271596 0.116785 0)
(0.265351 0.119428 0)
(0.243577 0.117253 0)
(0.215412 0.117688 0)
(0.216407 0.0369732 0)
(0.240739 0.0012958 0)
(0.25421 -0.0818765 0)
(0.239241 -0.101253 0)
(-0.00704406 -0.0189776 0)
(-0.0200955 -0.00493085 0)
(-0.0223113 0.033029 0)
(-0.0262834 0.0733962 0)
(-0.029772 0.0760715 0)
(-0.0112901 0.0305049 0)
(0.019709 -0.0522125 0)
(0.0314878 -0.115577 0)
(0.0548081 -0.122747 0)
(0.119691 -0.0720035 0)
(0.19566 0.0244251 0)
(0.232786 0.0787374 0)
(0.261686 0.114844 0)
(0.256146 0.122307 0)
(0.23383 0.122291 0)
(0.209476 0.120457 0)
(0.21619 0.0334988 0)
(0.241974 -0.00305942 0)
(0.26001 -0.0816298 0)
(0.245419 -0.100041 0)
(-0.0117835 -0.0150326 0)
(-0.0309454 -0.00259012 0)
(-0.0367555 0.0340049 0)
(-0.039687 0.0737357 0)
(-0.0350466 0.0733435 0)
(-0.00669619 0.0242656 0)
(0.0315181 -0.0571421 0)
(0.0410673 -0.118312 0)
(0.0510604 -0.131277 0)
(0.103158 -0.0864074 0)
(0.176953 0.0121807 0)
(0.218871 0.0707272 0)
(0.251633 0.112369 0)
(0.245931 0.125194 0)
(0.22376 0.126851 0)
(0.203959 0.12217 0)
(0.216703 0.0292765 0)
(0.243518 -0.0080831 0)
(0.265761 -0.0818983 0)
(0.251573 -0.0988653 0)
(-0.0139682 -0.00991825 0)
(-0.035868 0.00058137 0)
(-0.0430913 0.0349937 0)
(-0.0440615 0.0729884 0)
(-0.0311486 0.0687347 0)
(0.00586703 0.0163521 0)
(0.0495759 -0.0624738 0)
(0.0579683 -0.119537 0)
(0.0563891 -0.136741 0)
(0.0916258 -0.0989331 0)
(0.161095 -0.000249592 0)
(0.206527 0.0619813 0)
(0.241435 0.109626 0)
(0.234844 0.128101 0)
(0.213644 0.130772 0)
(0.199092 0.122705 0)
(0.21833 0.0243376 0)
(0.245677 -0.0136903 0)
(0.271563 -0.0826259 0)
(0.257665 -0.0977176 0)
(-0.0140134 -0.00440924 0)
(-0.0355172 0.00390243 0)
(-0.0418805 0.0356322 0)
(-0.039981 0.0710666 0)
(-0.0188216 0.0624645 0)
(0.0249957 0.00708895 0)
(0.0721904 -0.0681404 0)
(0.0802 -0.119622 0)
(0.0698706 -0.139019 0)
(0.0857553 -0.108935 0)
(0.148303 -0.012448 0)
(0.19568 0.0528834 0)
(0.230987 0.106869 0)
(0.223067 0.131008 0)
(0.203786 0.133883 0)
(0.195211 0.121926 0)
(0.221478 0.0187152 0)
(0.248745 -0.0197663 0)
(0.27749 -0.0837226 0)
(0.263662 -0.0965772 0)
(-0.0120718 0.000751508 0)
(-0.0304011 0.00673358 0)
(-0.033802 0.0356287 0)
(-0.0282393 0.0679111 0)
(0.000887585 0.0547261 0)
(0.0492427 -0.00303798 0)
(0.0977817 -0.0740528 0)
(0.105731 -0.118976 0)
(0.0896879 -0.138308 0)
(0.0860915 -0.115891 0)
(0.138415 -0.0239289 0)
(0.185931 0.0438331 0)
(0.220133 0.1043 0)
(0.210837 0.133843 0)
(0.19454 0.135995 0)
(0.192769 0.119689 0)
(0.226482 0.0124476 0)
(0.252953 -0.0261516 0)
(0.283583 -0.0850688 0)
(0.269528 -0.0954111 0)
(-0.0079672 0.00485335 0)
(-0.0208123 0.0086586 0)
(-0.0196119 0.0347656 0)
(-0.00979115 0.0634993 0)
(0.0267711 0.0457523 0)
(0.0774607 -0.0134902 0)
(0.125144 -0.0800215 0)
(0.132784 -0.117933 0)
(0.113642 -0.135065 0)
(0.0927967 -0.119491 0)
(0.131213 -0.0341296 0)
(0.176823 0.0351962 0)
(0.208766 0.102039 0)
(0.198463 0.136476 0)
(0.186348 0.136894 0)
(0.192304 0.11586 0)
(0.233521 0.00559198 0)
(0.258413 -0.0326406 0)
(0.289833 -0.0865214 0)
(0.275224 -0.0941797 0)
(-0.0010007 0.00712715 0)
(-0.00659217 0.00933656 0)
(1.46673e-05 0.0329093 0)
(0.0143779 0.0577984 0)
(0.057622 0.0359209 0)
(0.108867 -0.0238179 0)
(0.153544 -0.0857399 0)
(0.159993 -0.116667 0)
(0.139636 -0.129861 0)
(0.105389 -0.119668 0)
(0.12674 -0.0423887 0)
(0.168115 0.0272983 0)
(0.196925 0.100127 0)
(0.186351 0.138725 0)
(0.179769 0.136344 0)
(0.194333 0.110346 0)
(0.242568 -0.00177603 0)
(0.2651 -0.0390156 0)
(0.296182 -0.0879167 0)
(0.280704 -0.0928475 0)
(0.0104089 0.00649073 0)
(0.0133319 0.00852235 0)
(0.0248267 0.029946 0)
(0.043469 0.0508722 0)
(0.092419 0.0255543 0)
(0.142886 -0.0336589 0)
(0.182605 -0.0908074 0)
(0.186423 -0.115185 0)
(0.165934 -0.123259 0)
(0.122719 -0.116585 0)
(0.125397 -0.0481063 0)
(0.159972 0.0204772 0)
(0.184905 0.0985101 0)
(0.175074 0.140314 0)
(0.175467 0.134131 0)
(0.199223 0.103157 0)
(0.253392 -0.00948139 0)
(0.272863 -0.0451056 0)
(0.302531 -0.0890754 0)
(0.285918 -0.0913972 0)
(0.0329658 0.000930453 0)
(0.0474887 0.00540272 0)
(0.0619618 0.0249475 0)
(0.084402 0.0411246 0)
(0.138482 0.0125979 0)
(0.186507 -0.0446149 0)
(0.218245 -0.095718 0)
(0.216812 -0.113063 0)
(0.196567 -0.114237 0)
(0.147625 -0.109449 0)
(0.128204 -0.0514157 0)
(0.151539 0.013976 0)
(0.170371 0.0970609 0)
(0.16283 0.141292 0)
(0.173957 0.129084 0)
(0.208923 0.0924333 0)
(0.268192 -0.018978 0)
(0.283271 -0.0519868 0)
(0.310087 -0.0900243 0)
(0.291855 -0.0894786 0)
(0.11751 -0.00250098 0)
(0.114489 0.0013679 0)
(0.121331 0.0180832 0)
(0.142347 0.0285013 0)
(0.197294 -0.0024729 0)
(0.239474 -0.055323 0)
(0.25959 -0.0988639 0)
(0.248935 -0.109841 0)
(0.228393 -0.10318 0)
(0.180551 -0.0970049 0)
(0.139437 -0.0492786 0)