/*--------------------------------*- C++ -*----------------------------------*\
| =========                 |                                                 |
| \\      /  F ield         | OpenFOAM: The Open Source CFD Toolbox           |
|  \\    /   O peration     | Version:  v1806                                 |
|   \\  /    A nd           | Web:      www.OpenFOAM.com                      |
|    \\/     M anipulation  |                                                 |
\*---------------------------------------------------------------------------*/
FoamFile
{
    version     2.0;
    format      ascii;
    class       surfaceScalarField;
    location    "5";
    object      phi;
}
// * * * * * * * * * * * * * * * * * * * * * * * * * * * * * * * * * * * * * //

dimensions      [0 3 -1 0 0 0 0];
oriented        oriented;


internalField   nonuniform List<scalar> 
68400
(
0.0805593
0.000527307
0.00891335
0.0699745
0.000822944
0.00976186
0.0610173
0.000838817
0.00811844
0.0531592
0.000781364
0.00707669
0.0467294
0.000683579
0.00574628
0.0418454
0.000575519
0.00430849
0.0383094
0.000479869
0.0030561
0.0357635
0.00040687
0.00213897
0.0338861
0.000354447
0.00152302
0.0324625
0.000315688
0.00110792
0.0313552
0.000283824
0.000823394
0.030473
0.000255817
0.000626433
0.0297478
0.000228885
0.000496281
0.0291337
0.000204326
0.00040985
0.0285988
0.000182187
0.00035267
0.0281235
0.000165083
0.000310192
0.0276933
0.000152453
0.000277788
0.0272973
0.000146152
0.000249841
0.0269268
0.000144639
0.00022585
0.00014869
0.000203225
0.0265749
0.0813161
0.000275042
0.0089362
0.0716877
0.000534408
0.00991687
0.0637425
0.000601805
0.00818226
0.0568021
0.000588709
0.00713301
0.0510383
0.000531461
0.00591596
0.0465562
0.000453766
0.00460387
0.0432498
0.000372604
0.00341363
0.0408648
0.000299604
0.00249232
0.0391373
0.000238181
0.00184367
0.0378762
0.000188541
0.00138833
0.0369484
0.000146897
0.00106473
0.0362597
0.000112025
0.000832465
0.0357376
8.17377e-05
0.000669282
0.0353299
5.71502e-05
0.000554851
0.0349987
3.82892e-05
0.0004751
0.034719
2.70496e-05
0.000417727
0.0344757
2.36587e-05
0.000372049
0.0342536
2.8634e-05
0.000339637
0.0340519
4.24486e-05
0.000303925
6.35006e-05
0.000287036
0.03385
0.0812024
0.000138322
0.00893432
0.0715016
0.0003077
0.00992746
0.0635522
0.000380332
0.00817094
0.0566681
0.000386772
0.00708598
0.0509873
0.000351715
0.00586054
0.0465912
0.000293878
0.00455606
0.0433645
0.000225307
0.00337393
0.0410501
0.000154442
0.00245956
0.0393858
8.64802e-05
0.00181601
0.0381819
2.48191e-05
0.00136766
0.0373078
-2.68191e-05
0.00104777
0.0366721
-6.89483e-05
0.000816755
0.036205
-0.000103371
0.000652184
0.0358546
-0.000129129
0.000536647
0.0355834
-0.000145163
0.000454665
0.0353638
-0.000151005
0.000397654
0.0351815
-0.000145123
0.00035103
0.0350183
-0.000128137
0.000320065
0.0348754
-9.84491e-05
0.000283738
-5.81352e-05
0.000265587
0.0347315
0.0811345
6.42412e-05
0.00893961
0.0713264
0.00015965
0.00995612
0.0632891
0.000203573
0.00821405
0.0563536
0.000200514
0.00712176
0.0506536
0.000164399
0.00588734
0.0462665
0.000108092
0.00457289
0.0430646
4.19952e-05
0.00338521
0.040783
-2.94242e-05
0.00246547
0.0391543
-0.000101759
0.00181695
0.0379823
-0.000168147
0.00136488
0.0371389
-0.00022618
0.00104278
0.0365318
-0.000275054
0.000813197
0.0360918
-0.000313114
0.000649791
0.035768
-0.00033998
0.00053463
0.0355235
-0.000353581
0.000452907
0.0353317
-0.000353876
0.000394674
0.0351778
-0.000338387
0.000347168
0.0350436
-0.000308378
0.000314486
0.0349305
-0.000261409
0.000276019
-0.000200901
0.000259993
0.0348133
0.0810988
2.39955e-05
0.00894142
0.0712355
5.56197e-05
0.00996736
0.0631496
6.06398e-05
0.00822879
0.0561838
3.64723e-05
0.00712986
0.0504717
-1.05356e-05
0.00588705
0.0460869
-7.00833e-05
0.00456296
0.0428981
-0.000140052
0.00337091
0.0406339
-0.000215161
0.00244986
0.0390244
-0.000289757
0.00179751
0.0378753
-0.000361164
0.00134213
0.0370533
-0.000424941
0.00102074
0.0364669
-0.000480122
0.000791519
0.0360474
-0.00052289
0.00062924
0.0357444
-0.000552927
0.000515954
0.035522
-0.000566325
0.000435181
0.0353529
-0.000563256
0.000378397
0.0352226
-0.000539725
0.000331629
0.0351112
-0.000497671
0.000300758
0.035019
-0.00043323
0.000264009
-0.000351167
0.00024925
0.03492
0.0810893
-8.18603e-06
0.00894292
0.0711999
-2.88103e-05
0.00997383
0.063081
-6.15868e-05
0.0082411
0.0560813
-0.000111106
0.00714725
0.0503403
-0.000174314
0.00590479
0.0459373
-0.000249084
0.00458201
0.04274
-0.000329755
0.003387
0.0404767
-0.000414232
0.00246234
0.0388752
-0.000497283
0.00180909
0.0377374
-0.000577929
0.0013545
0.0369307
-0.00065051
0.00103233
0.0363624
-0.000714832
0.000803023
0.0359642
-0.00076466
0.000639943
0.0356852
-0.000800399
0.000526498
0.0354899
-0.000815161
0.000444118
0.0353494
-0.000810374
0.000387596
0.0352498
-0.000779012
0.000338849
0.0351686
-0.000724402
0.000307977
0.0351046
-0.000640855
0.000271659
-0.000534152
0.000248431
0.0350391
0.0810806
-3.27327e-05
0.00894398
0.0711714
-9.75594e-05
0.00997788
0.0630274
-0.000166277
0.00824876
0.0560036
-0.000243881
0.00715656
0.0502445
-0.000328351
0.00591315
0.0458308
-0.00042004
0.00458459
0.0426296
-0.000514455
0.00338597
0.0403681
-0.00061182
0.00245906
0.0387723
-0.000707044
0.00180551
0.0376454
-0.000800455
0.00134945
0.0368532
-0.000885759
0.00102745
0.0363047
-0.000962768
0.000796492
0.0359296
-0.00102404
0.000634425
0.0356792
-0.00106902
0.000519
0.035515
-0.00108965
0.000438733
0.0354107
-0.00108571
0.000379634
0.0353471
-0.00104938
0.000333989
0.0353051
-0.000982261
0.000299799
0.0352768
-0.000878401
0.000265916
-0.000742744
0.000240661
0.0352447
0.0810754
-5.29535e-05
0.00894478
0.0711532
-0.000155941
0.00998064
0.0629912
-0.00025806
0.00825375
0.0559476
-0.000363941
0.00716372
0.0501697
-0.000471039
0.00592055
0.045741
-0.000583032
0.0045917
0.0425296
-0.000694894
0.00339185
0.0402629
-0.000810339
0.00246518
0.0386677
-0.000922411
0.0018106
0.0375466
-0.00103484
0.00135548
0.036767
-0.0011379
0.00103177
0.0362361
-0.00123467
0.00080275
0.0358867
-0.00131265
0.000638046
0.0356661
-0.00137448
0.000526048
0.0355405
-0.00140563
0.000441547
0.0354765
-0.00140917
0.000387431
0.0354615
-0.00137004
0.000335657
0.0354645
-0.00129362
0.000308419
0.0354849
-0.00116719
0.00026835
-0.00100093
0.00024794
0.0354952
0.0810708
-6.96727e-05
0.00894593
0.0711384
-0.000206231
0.00998263
0.0629606
-0.000338517
0.00825835
0.0558983
-0.000471554
0.00716989
0.0501007
-0.000601601
0.00592817
0.0456555
-0.000735654
0.00459779
0.042431
-0.000867711
0.00339729
0.0401576
-0.00100483
0.00246791
0.0385604
-0.00113843
0.00181326
0.0374451
-0.0012749
0.00135538
0.0366767
-0.00140242
0.00103288
0.0361667
-0.00152556
0.000800881
0.035844
-0.00162905
0.000639078
0.0356618
-0.00171539
0.000523142
0.0355796
-0.00176686
0.000443382
0.0355715
-0.00178462
0.000383575
0.0356132
-0.00175046
0.000338701
0.0356824
-0.00166647
0.000303715
0.0357626
-0.00151799
0.000270611
-0.00131206
0.000237187
0.0358365
0.0810654
-8.23321e-05
0.00894727
0.0711239
-0.000249541
0.00998481
0.0629309
-0.000407761
0.00826228
0.0558502
-0.000566742
0.00717589
0.0500313
-0.000717496
0.00593472
0.0455668
-0.000875617
0.00460451
0.0423257
-0.00102828
0.00340167
0.0400414
-0.00119248
0.00247196
0.0384383
-0.00134994
0.0018146
0.037324
-0.00151909
0.00135842
0.036565
-0.00167624
0.00103286
0.036073
-0.00183802
0.000804516
0.0357806
-0.00197485
0.00063816
0.035638
-0.00210098
0.000528184
0.0356116
-0.00218206
0.000441599
0.0356667
-0.00222962
0.000389953
0.0357884
-0.00220756
0.00033539
0.0359375
-0.00212644
0.00031085
0.0361054
-0.00195572
0.000269813
-0.00170817
0.000248404
0.0362531
0.0810571
-8.96462e-05
0.00895019
0.0711076
-0.000286327
0.00998633
0.0628984
-0.000465137
0.00826657
0.0557992
-0.000648276
0.00718075
0.0499544
-0.000815771
0.005943
0.0454673
-0.000999455
0.00461094
0.0422024
-0.001172
0.00340868
0.0399026
-0.00136809
0.00247536
0.0382856
-0.00155211
0.00181921
0.0371692
-0.00176213
0.00135941
0.036412
-0.00195616
0.00103714
0.035939
-0.00216929
0.000804271
0.0356727
-0.00235192
0.000643349
0.03558
-0.00253531
0.000527025
0.0356124
-0.00266301
0.000448588
0.0357543
-0.00276002
0.000388466
0.0359689
-0.00276644
0.000344258
0.0362347
-0.00270059
0.000308376
0.0365181
-0.0025111
0.000271956
-0.00221409
0.00023741
0.0367866
0.0810423
-8.90534e-05
0.00895712
0.0710884
-0.000318481
0.00998608
0.0628595
-0.000507115
0.00827084
0.0557422
-0.000715952
0.00718497
0.0498632
-0.000889726
0.00595295
0.0453507
-0.00110586
0.00461893
0.0420515
-0.00128866
0.00341582
0.0397314
-0.00152908
0.00248112
0.0380883
-0.00173125
0.0018222
0.0369643
-0.0020019
0.00136381
0.0361999
-0.00222808
0.00103631
0.0357412
-0.00252028
0.000809715
0.0354984
-0.00275009
0.000640931
0.0354563
-0.00302858
0.000535387
0.035559
-0.0032115
0.000445759
0.0358031
-0.00340395
0.000399824
0.0361447
-0.00345156
0.000343604
0.0365628
-0.00344124
0.000322474
0.0370037
-0.00323693
0.000284988
-0.00288791
0.000248787
0.0374287
0.0810161
-7.73132e-05
0.00897218
0.071067
-0.00034881
0.00997938
0.0628108
-0.000527295
0.00827637
0.0556796
-0.000769654
0.0071849
0.0497506
-0.000929657
0.005969
0.0452148
-0.00119402
0.00462389
0.0418634
-0.00136315
0.00342594
0.0395226
-0.00167223
0.00248391
0.0378299
-0.00186676
0.00182828
0.0366976
-0.00223465
0.00136506
0.035902
-0.00246769
0.00103519
0.0354599
-0.00289043
0.000812256
0.0352192
-0.00314593
0.000636517
0.0352383
-0.00359212
0.000544476
0.035402
-0.00381512
0.00043989
0.0357803
-0.00420136
0.000419068
0.0362697
-0.00427741
0.000336478
0.0369115
-0.00443429
0.000351297
0.0375994
-0.00420384
0.000278944
-0.00383106
0.000289233
0.0382533
0.0809715
-5.2726e-05
0.0090039
0.0710481
-0.000380527
0.00995515
0.0627473
-0.000514076
0.00828761
0.055616
-0.000812421
0.00717399
0.0496071
-0.000918483
0.00599777
0.0450639
-0.00126816
0.00461732
0.0416278
-0.00136802
0.00344093
0.039279
-0.00180102
0.00247761
0.037495
-0.00192081
0.00183804
0.0363651
-0.0024634
0.00135869
0.0354894
-0.00262262
0.00103067
0.0350772
-0.00328655
0.000808295
0.0347895
-0.00347815
0.000619915
0.0348926
-0.00424936
0.000554153
0.0350777
-0.00441354
0.000413295
0.0356447
-0.00522218
0.000453792
0.0362689
-0.00520382
0.000302192
0.0372474
-0.0058251
0.000412382
0.0381829
-0.00540883
0.000269444
-0.00527386
0.000281421
0.0393443
0.0809066
-1.67366e-05
0.00905739
0.0710408
-0.000414532
0.00989988
0.0626658
-0.000452259
0.00831315
0.0555567
-0.000848548
0.00714521
0.0494219
-0.000833806
0.00605013
0.0449088
-0.00133708
0.00458199
0.0413386
-0.00126728
0.00346952
0.0390174
-0.0019274
0.00244759
0.0370729
-0.001834
0.0018577
0.0359794
-0.00270101
0.00133107
0.0349371
-0.00260293
0.00102265
0.0345892
-0.00372732
0.000788597
0.0341493
-0.00362006
0.000581823
0.034379
-0.0050462
0.000567134
0.0344907
-0.0048522
0.000326995
0.0353162
-0.0065956
0.000547932
0.0360572
-0.00607559
0.000130778
0.0375701
-0.00797484
0.000636835
0.0387821
-0.0067873
0.000166455
-0.00761703
0.000804437
0.0403208
0.0808395
1.15863e-05
0.00913216
0.0710555
-0.000441854
0.00981131
0.0625782
-0.000339008
0.00836412
0.0555084
-0.000863996
0.00708523
0.0492114
-0.000665907
0.00612907
0.0447684
-0.0013845
0.0044904
0.0410129
-0.0010426
0.00353085
0.0387605
-0.00203171
0.00235673
0.0365756
-0.00156731
0.00191817
0.0355677
-0.00292187
0.00122872
0.0342443
-0.00233405
0.00105454
0.0340207
-0.00418757
0.000683856
0.0332602
-0.00343698
0.000577479
0.0337149
-0.00599377
0.000492867
0.0335356
-0.00490324
0.00023029
0.0347867
-0.00846267
0.000615971
0.0353705
-0.00648332
-0.000176015
0.0376729
-0.011497
0.00121964
0.0392676
-0.00776718
-0.000614746
-0.0126256
0.00152166
0.0427545
0.0807921
7.919e-06
0.00921154
0.0710942
-0.000427955
0.00968402
0.0624946
-0.000212752
0.00847332
0.0554595
-0.000824479
0.0069956
0.049
-0.000480963
0.00627456
0.0446247
-0.00136275
0.00435358
0.0406751
-0.000778144
0.00368509
0.0384884
-0.00204041
0.00219546
0.0360439
-0.00122061
0.00209775
0.0351171
-0.00301254
0.00101749
0.033464
-0.00192602
0.00124509
0.0333567
-0.00448451
0.000404175
0.0321761
-0.00303717
0.000780799
0.0328801
-0.00681002
0.000112253
0.0322157
-0.00466028
0.000421472
0.0341633
-0.0105493
0.000139083
0.0343067
-0.00642398
-0.00020276
0.0376846
-0.0162871
0.00141226
0.0379937
-0.00694653
-0.00112976
-0.0219764
0.00533937
0.0420051
0.0808936
-0.000107568
0.00922186
0.071109
-0.0002908
0.00964748
0.0625336
-0.000172381
0.00853503
0.0553915
-0.000613945
0.00693159
0.0489444
-0.00042485
0.00639092
0.0444389
-0.00109124
0.00423401
0.0404834
-0.000681023
0.00385834
0.038143
-0.0016758
0.00197588
0.0356557
-0.00108013
0.00234679
0.0345526
-0.00254573
0.000636269
0.032782
-0.00176464
0.0016092
0.0324604
-0.00394187
-0.000220988
0.0310282
-0.00295796
0.00135296
0.0315239
-0.00634835
-0.000957386
0.0303704
-0.00495606
0.00144934
0.0325325
-0.0108393
-0.00187218
0.0322695
-0.00789042
0.00172945
0.0386184
-0.0208123
-0.00182378
0.0371296
-0.00508385
-0.000373838
-0.0445598
0.010009
0.0497041
0.0810277
-0.000369546
0.00923431
0.0711393
6.56781e-05
0.0095319
0.062561
-0.000290009
0.00869591
0.0553291
-0.000165953
0.00678397
0.0488815
-0.000633712
0.00665637
0.0442499
-0.000468465
0.00400882
0.0402245
-0.000947312
0.0042917
0.037686
-0.000824341
0.00168703
0.0350357
-0.00143361
0.00300387
0.033651
-0.00139674
0.000235689
0.0315605
-0.00226567
0.00259154
0.0307982
-0.00241723
-0.000762358
0.0288081
-0.00380272
0.00283478
0.0285128
-0.00443045
-0.00162259
0.0264347
-0.00677286
0.00389494
0.0270634
-0.00874035
-0.00272763
0.0252819
-0.0132126
0.00710363
0.027529
-0.0195467
-0.00351274
0.0244929
-0.01877
0.0167224
-0.0668433
-0.000942782
0.0477192
0.0813617
0.00860862
-0.00033989
0.0711296
0.010142
0.000155856
0.0627796
0.00831784
-0.000257897
0.0549574
0.00776348
-0.000107184
0.0490702
0.00583968
-0.000586198
0.0437189
0.00521315
-0.000330366
0.0402676
0.0033224
-0.000818425
0.036795
0.00331435
-0.000666037
0.034805
0.00174754
-0.00119111
0.0322246
0.00241688
-0.00123329
0.0308836
0.000913859
-0.00183847
0.0285065
0.00225799
-0.00229814
0.027344
0.000532894
-0.00317316
0.0248636
0.00267607
-0.0046261
0.0240362
0.000630757
-0.00657619
0.0220454
0.00396271
-0.0107122
0.0218208
0.00448823
-0.0174763
0.0201246
0.010786
-0.0286364
0.0315056
0.0177673
-0.0479184
-0.0299289
0.0748451
-0.0802538
0.0918768
0.000542857
0.00649367
0.0918426
0.000912058
0.00888401
0.0908653
0.00100522
0.00809059
0.089294
0.00104089
0.00760701
0.0871377
0.00103891
0.00686368
0.0847008
0.00100787
0.00573752
0.0822591
0.000960948
0.00453693
0.0799394
0.000910657
0.00354793
0.0777631
0.000861053
0.00283835
0.0757363
0.00081442
0.00232022
0.0738684
0.000767057
0.00192431
0.0721691
0.000722023
0.00160366
0.07063
0.000676408
0.00135894
0.0692376
0.000632585
0.00116969
0.067976
0.000589921
0.0010244
0.0668306
0.000550887
0.0009047
0.065786
0.000516279
0.000806078
0.0648283
0.000486727
0.000720848
0.0639428
0.000464918
0.000646405
0.000446328
0.000582455
0.0631172
0.0927163
0.000283236
0.0064795
0.0939754
0.000592043
0.00897782
0.0941951
0.000721886
0.00824585
0.0939531
0.000781818
0.00763411
0.0931395
0.000802564
0.0069659
0.0919703
0.000794717
0.00598627
0.090694
0.000764159
0.00488672
0.0894501
0.000722273
0.00392459
0.0882759
0.000672263
0.00320667
0.0871865
0.000621846
0.00267032
0.0861949
0.000569166
0.00225422
0.0853124
0.000517351
0.00191963
0.0845357
0.000466059
0.00165631
0.0838607
0.000417207
0.00144522
0.0832717
0.000372575
0.00128148
0.0827609
0.000332622
0.00114673
0.0823117
0.000302129
0.00103541
0.0819183
0.000277701
0.000942023
0.0815502
0.000266847
0.000870115
0.000261696
0.000805647
0.0812162
0.0926055
0.000141051
0.00647105
0.0938063
0.0003307
0.00898797
0.0940158
0.000438301
0.00824502
0.0938059
0.000491108
0.00758656
0.093058
0.000508058
0.00690302
0.0919827
0.000500128
0.00592585
0.0908189
0.000472001
0.00482996
0.0897
0.000430081
0.00387067
0.0886578
0.00037622
0.00315422
0.0877047
0.000316432
0.00262614
0.0868521
0.000253112
0.00221646
0.0861111
0.000188539
0.00188658
0.0854782
0.000126718
0.00162438
0.0849486
6.76833e-05
0.00141576
0.0845087
1.67189e-05
0.00125042
0.0841449
-2.58687e-05
0.00111999
0.0838469
-5.32796e-05
0.00100437
0.083596
-7.27892e-05
0.000921482
0.0833837
-7.28051e-05
0.000835729
-6.36178e-05
0.000792798
0.0831818
0.0925433
6.54433e-05
0.00647191
0.0936437
0.000170789
0.00901566
0.0937771
0.000235628
0.00828333
0.0935048
0.000262048
0.00762314
0.0927077
0.000260003
0.00693241
0.0915977
0.000235466
0.00594758
0.090415
0.000193782
0.0048461
0.0892921
0.000138045
0.00388048
0.0882574
7.24693e-05
0.00315535
0.0873179
9.58519e-07
0.00261984
0.0864877
-8.00482e-05
0.00220619
0.0857736
-0.000160002
0.00187579
0.0851721
-0.000234443
0.00161249
0.084678
-0.000304539
0.00140091
0.0842754
-0.000362477
0.00123477
0.0839547
-0.000411277
0.00110073
0.0836998
-0.000440929
0.000989737
0.0835011
-0.000457622
0.00089798
0.0833261
-0.000449477
0.000827736
-0.00042731
0.000762213
0.0831876
0.0925104
2.47488e-05
0.00647176
0.0935597
5.98715e-05
0.00902893
0.0936506
7.46165e-05
0.00829895
0.093343
6.41827e-05
0.00763529
0.0925183
3.38029e-05
0.00693795
0.0913891
-1.55345e-05
0.00594314
0.0901943
-7.53903e-05
0.00483487
0.089066
-0.000150518
0.00386678
0.0880321
-0.000234194
0.00313809
0.0871029
-0.000327246
0.00259955
0.0862842
-0.00042131
0.00218067
0.0855867
-0.000517893
0.00184692
0.0850049
-0.000607324
0.00158391
0.0845331
-0.000692117
0.00137533
0.0841568
-0.0007614
0.00121037
0.0838646
-0.000819003
0.00107831
0.0836417
-0.000852735
0.000966414
0.0834758
-0.000868503
0.000877529
0.0833369
-0.000853959
0.000807345
-0.000814941
0.000745347
0.0832284
0.0925023
-7.60625e-06
0.00647296
0.0935281
-2.86445e-05
0.00903658
0.0935914
-5.86463e-05
0.00831103
0.0932532
-0.000105839
0.00765545
0.0923966
-0.000165536
0.0069608
0.0912358
-0.000241883
0.00596913
0.0900157
-0.000328152
0.00485988
0.0888679
-0.000428727
0.00388833
0.0878209
-0.0005353
0.00315718
0.0868829
-0.000652311
0.00261753
0.0860631
-0.000768212
0.00219908
0.0853699
-0.000888134
0.00186644
0.0847993
-0.000997981
0.00160119
0.0843444
-0.00110383
0.00139316
0.0839933
-0.00118895
0.0012228
0.0837283
-0.00126152
0.00109506
0.0835437
-0.00130211
0.000972817
0.0834086
-0.00132232
0.000896915
0.0833242
-0.00130034
0.000802418
-0.00125642
0.000764476
0.0832497
0.0924948
-3.21423e-05
0.00647376
0.0935029
-0.000100231
0.00904133
0.0935447
-0.000170725
0.00831904
0.0931838
-0.000255087
0.0076667
0.0923053
-0.000346969
0.00697307
0.0911261
-0.000454671
0.00597662
0.0898894
-0.000569187
0.00486365
0.0887296
-0.000698826
0.003889
0.0876744
-0.000832302
0.00315767
0.0867338
-0.000977927
0.00261565
0.0859163
-0.00112092
0.00219766
0.0852327
-0.00126957
0.00186158
0.0846773
-0.00140608
0.00159789
0.0842464
-0.00153879
0.00138486
0.0839241
-0.00164688
0.00121894
0.0836982
-0.00173988
0.00108398
0.083554
-0.00179415
0.000970187
0.083471
-0.00182223
0.000882683
0.0834379
-0.00179888
0.000797538
-0.00173958
0.00073405
0.0834277
0.0924902
-5.2099e-05
0.00647452
0.0934869
-0.000160896
0.00904463
0.0935137
-0.000268173
0.0083244
0.0931352
-0.000388484
0.00767557
0.0922371
-0.000511471
0.00698318
0.0910382
-0.000651621
0.00598758
0.0897825
-0.000795084
0.00487339
0.0886061
-0.000957013
0.00389984
0.0875377
-0.00112023
0.00316684
0.0865887
-0.00130037
0.00262702
0.0857693
-0.00147514
0.00220537
0.0850899
-0.00166083
0.00187341
0.0845489
-0.00183036
0.00160332
0.0841385
-0.0020003
0.00139797
0.0838502
-0.00213877
0.00122166
0.0836623
-0.00226347
0.00109899
0.0835721
-0.00233817
0.000969845
0.0835408
-0.00238421
0.000901758
0.0835701
-0.00236225
0.000802328
-0.00229974
0.000775692
0.0836026
0.0924861
-6.8069e-05
0.00647578
0.0934746
-0.000213297
0.00904653
0.0934876
-0.000352376
0.00832962
0.0930929
-0.000506902
0.00768293
0.092175
-0.000658906
0.0069935
0.0909564
-0.000832144
0.00599697
0.0896801
-0.00100503
0.00488348
0.0884863
-0.00120198
0.00390674
0.0874027
-0.00139823
0.00317483
0.0864448
-0.00161776
0.0026307
0.0856214
-0.00183049
0.00221164
0.0849484
-0.00206059
0.00187357
0.0844206
-0.00227259
0.00160918
0.0840384
-0.0024897
0.00139472
0.0837853
-0.00267088
0.00122856
0.0836515
-0.0028388
0.00109271
0.0836198
-0.00294691
0.000979187
0.083666
-0.00302008
0.000893356
0.0837738
-0.00300796
0.000808533
-0.00293938
0.000737383
0.0839132
0.0924809
-7.89285e-05
0.00647725
0.0934628
-0.0002589
0.00904848
0.0934619
-0.000423356
0.00833418
0.0930518
-0.000611535
0.00769064
0.0921128
-0.00078727
0.00700208
0.090873
-0.000995575
0.00600769
0.089573
-0.00119463
0.0048913
0.0883586
-0.00143187
0.00391625
0.0872551
-0.00165962
0.00317952
0.0862828
-0.00192694
0.00263986
0.0854511
-0.00217967
0.00221375
0.0847782
-0.0024672
0.00188406
0.0842634
-0.0027279
0.00160823
0.0839045
-0.00301003
0.00140746
0.0836954
-0.00324442
0.00122416
0.0836153
-0.00347686
0.00110815
0.0836644
-0.00363094
0.000970347
0.0837966
-0.00375323
0.000911783
0.0840163
-0.00376222
0.000804403
-0.00370944
0.000780771
0.084254
0.0924728
-8.19933e-05
0.00648041
0.0934505
-0.000299121
0.00904889
0.0934333
-0.000479453
0.00833987
0.0930076
-0.000702461
0.00769743
0.0920434
-0.000892858
0.00701274
0.0907805
-0.00113938
0.00601764
0.0894497
-0.00135818
0.00490298
0.0882102
-0.0016412
0.00392421
0.0870771
-0.00189769
0.00319038
0.0860853
-0.00222078
0.00264504
0.0852334
-0.00251608
0.0022255
0.0845581
-0.00287376
0.00188609
0.0840443
-0.00319303
0.00162231
0.0837145
-0.00355886
0.00140569
0.0835415
-0.0038651
0.0012422
0.0835354
-0.00418544
0.00110319
0.0836658
-0.00441023
0.000993111
0.0839207
-0.00460239
0.000902625
0.084267
-0.00465191
0.000815379
-0.00461676
0.000732112
0.0846796
0.0924563
-7.00384e-05
0.00648886
0.093439
-0.000340586
0.00904487
0.0933957
-0.0005124
0.0083471
0.0929581
-0.00078496
0.00770502
0.0919578
-0.000963526
0.00702395
0.0906737
-0.00126812
0.0060317
0.0892986
-0.00147924
0.004912
0.0880317
-0.00183275
0.00393958
0.0868519
-0.00209103
0.0031953
0.0858352
-0.00250166
0.00266141
0.0849473
-0.00281664
0.00222474
0.0842606
-0.00328241
0.00190509
0.0837365
-0.00364582
0.00161783
0.0834273
-0.00414215
0.0014279
0.0832918
-0.00452071
0.00123686
0.0833603
-0.00498257
0.00112842
0.0835983
-0.00529649
0.000991935
0.0839962
-0.00560992
0.000932076
0.0845195
-0.00572463
0.000834437
-0.0057356
0.000770348
0.0851168
0.0924259
-3.0983e-05
0.00650724
0.0934319
-0.000396348
0.00902916
0.0933433
-0.000506255
0.00835883
0.0929036
-0.000870059
0.00770964
0.091846
-0.000978245
0.00704133
0.0905521
-0.00139331
0.00604302
0.0891076
-0.00153015
0.00492137
0.0878203
-0.00201654
0.003955
0.0865606
-0.00220392
0.00320082
0.0855238
-0.00277894
0.00267918
0.0845624
-0.00304022
0.00222013
0.0838688
-0.00370262
0.00192606
0.0832943
-0.00404303
0.00160826
0.0830143
-0.00477226
0.00145456
0.0828816
-0.00517716
0.00122908
0.0830487
-0.0058925
0.00116191
0.0833841
-0.00628766
0.000992261
0.0839804
-0.00682689
0.000971924
0.0847614
-0.00707377
0.000847067
-0.00717302
0.000833051
0.085655
0.0923705
5.40554e-05
0.0065484
0.093437
-0.000493134
0.00898539
0.093263
-0.000427194
0.00838252
0.092851
-0.000987774
0.00770376
0.0916886
-0.000893021
0.00707496
0.0904232
-0.00155189
0.00604123
0.0888587
-0.00145221
0.00492756
0.0875854
-0.00223343
0.0039678
0.0861827
-0.0021626
0.00319935
0.085156
-0.00309743
0.0027039
0.0840455
-0.00309201
0.00219298
0.0833738
-0.00418597
0.00196329
0.0826678
-0.00427764
0.00156053
0.0824467
-0.00550889
0.00151195
0.0822358
-0.00572736
0.00117437
0.0825558
-0.00699253
0.00123379
0.0829217
-0.00731419
0.000962843
0.0838066
-0.00833445
0.00103503
0.0847111
-0.00861783
0.000908994
-0.00897056
0.000813675
0.0859764
0.0922838
0.000207452
0.00662016
0.0934605
-0.000665781
0.00889585
0.093145
-0.000227359
0.00842887
0.0928189
-0.00118321
0.00766674
0.0914734
-0.000644292
0.00714685
0.0903055
-0.0018018
0.00599983
0.0885354
-0.00115834
0.00494577
0.0873549
-0.00255893
0.00395357
0.0856969
-0.00184623
0.0031993
0.0847556
-0.00354995
0.00272487
0.0833621
-0.00280755
0.00213169
0.0827818
-0.00484635
0.00202934
0.0817937
-0.00413622
0.00142846
0.0816903
-0.00650214
0.00166378
0.0812628
-0.00593046
0.000957639
0.0817793
-0.00846046
0.00149931
0.0820923
-0.00818999
0.000693575
0.0834652
-0.0104615
0.00139105
0.0846003
-0.010456
0.000869495
-0.0113465
0.00136839
0.0864123
0.092192
0.000421468
0.0067261
0.0934994
-0.00091576
0.00875397
0.0930129
0.000103839
0.00851943
0.0928239
-0.0014644
0.0075554
0.0912348
-0.000201677
0.0072755
0.090229
-0.0021624
0.0058568
0.0881677
-0.000588985
0.00502283
0.0871727
-0.00303418
0.00382692
0.0851285
-0.00114865
0.00326482
0.0843949
-0.00420878
0.00262121
0.0825263
-0.00200629
0.00212185
0.0821906
-0.00580849
0.00198166
0.0806528
-0.00332193
0.00130105
0.0808417
-0.00796431
0.00176608
0.0798984
-0.00536892
0.000612074
0.0807854
-0.0106419
0.00191037
0.0807484
-0.00839698
6.79722e-05
0.0826387
-0.0134609
0.00232872
0.083847
-0.0124792
0.000200203
-0.0153099
0.00204445
0.0872876
0.0921518
0.00060093
0.00688028
0.093545
-0.00115177
0.00852681
0.0929188
0.000485629
0.00871771
0.0928509
-0.00173514
0.00733427
0.0910369
0.000337156
0.00754971
0.090187
-0.00252325
0.00556432
0.0878415
0.000144567
0.00529708
0.0870487
-0.00352537
0.00347941
0.0845984
-0.000179752
0.00357921
0.0841253
-0.0049147
0.00219646
0.0816982
-0.000764749
0.0024307
0.0817265
-0.00689781
0.00146516
0.0794316
-0.00180158
0.00155535
0.08014
-0.00978027
0.00121979
0.0782814
-0.00372584
0.000636967
0.0799432
-0.0137428
0.00157835
0.0792193
-0.00735239
-0.000523476
0.0818477
-0.017867
0.00318993
0.082418
-0.0135692
-0.000610063
-0.0188238
0.0057598
0.0855114
0.0923368
0.000482897
0.00700314
0.0935557
-0.00106392
0.00834066
0.0930681
0.000569734
0.00893859
0.0928129
-0.00157495
0.00702656
0.0911304
0.000509191
0.00790136
0.0900608
-0.00234844
0.00512884
0.0878245
0.000455198
0.00578395
0.0868047
-0.0033356
0.00280592
0.0844081
0.000321599
0.00424203
0.083731
-0.00475961
0.00115835
0.081215
1.64277e-05
0.00334403
0.081132
-0.00694403
-9.17779e-05
0.0784413
-0.000536753
0.0027788
0.0793064
-0.0105052
-0.00109757
0.0764083
-0.00162321
0.00224485
0.0788532
-0.0165364
-0.00152349
0.0762821
-0.00396861
0.000916738
0.0820631
-0.0262306
0.000758846
0.0805524
-0.00930509
-0.00312726
-0.0281413
0.0109116
0.0889673
0.0925757
-9.29256e-05
0.00723439
0.0935435
-0.000351867
0.00785205
0.0931859
0.000147572
0.00947574
0.092699
-0.000693797
0.00638974
0.0911266
2.98961e-06
0.00873496
0.0897267
-0.00124216
0.00430237
0.0875363
-0.000107958
0.00704533
0.0860597
-0.00191154
0.00173959
0.0835961
-0.000323136
0.00611211
0.0822553
-0.00289943
-0.000283598
0.0794953
-0.000729089
0.00609705
0.0784101
-0.00451241
-0.00210879
0.0752017
-0.00148148
0.00698788
0.074502
-0.00745271
-0.00397534
0.0704902
-0.00278998
0.00907351
0.0705779
-0.0134359
-0.00591585
0.0652399
-0.00495564
0.0134286
0.0683612
-0.0269189
-0.00594566
0.0617268
-0.00477233
0.018824
-0.0484745
0.00230383
0.0788133
0.0926894
0.00599061
-0.000164344
0.0932324
0.00938108
-0.000133928
0.0935098
0.00811841
6.95964e-05
0.0924496
0.00858321
-0.000453329
0.0913943
0.00696056
-6.26164e-05
0.0892365
0.00701866
-0.000889872
0.0877058
0.00484949
-0.000104335
0.0851612
0.00538452
-0.00143707
0.0835123
0.0033173
-0.000244074
0.0806714
0.00457536
-0.00221698
0.0789777
0.00246556
-0.000587109
0.0757107
0.00445798
-0.00344542
0.0739643
0.00225845
-0.00146064
0.070011
0.00486568
-0.00568902
0.0684427
0.00330222
-0.00389312
0.0639607
0.00567774
-0.0106689
0.0649452
0.00978263
-0.0112345
0.0665575
0.00567267
-0.0234179
0.0821415
0.0281206
-0.0307096
-0.0338866
0.118968
-0.0813429
0.0920316
0.00053784
0.00392428
0.0940516
0.000907781
0.00595615
0.0954907
0.00100777
0.00564371
0.0966601
0.00104616
0.00539147
0.0973503
0.00106836
0.00510512
0.0975091
0.00106988
0.00450884
0.0972479
0.0010514
0.00374679
0.0967028
0.00102611
0.00306686
0.0959651
0.000998012
0.00257799
0.0950967
0.000971904
0.00221674
0.0941493
0.000942303
0.00192946
0.0931584
0.000911595
0.00168295
0.0921551
0.000877836
0.00148436
0.0911596
0.000843693
0.0013215
0.0901837
0.000809675
0.00119062
0.0892358
0.000776802
0.00107589
0.088318
0.00074616
0.000977664
0.0874332
0.000718165
0.000887466
0.0865764
0.000695518
0.000807718
0.000680386
0.00073414
0.0857443
0.0928401
0.000280447
0.00389677
0.0961139
0.000592779
0.0060191
0.098858
0.000728005
0.00578148
0.101331
0.000792924
0.00541421
0.103381
0.000828885
0.0051556
0.104927
0.000846977
0.00466327
0.106034
0.000842483
0.00398803
0.106823
0.000826379
0.00333603
0.107383
0.00079947
0.00284536
0.107779
0.000769747
0.00247637
0.108054
0.000737058
0.00218436
0.108248
0.000701286
0.00193596
0.108386
0.000665042
0.00173104
0.108489
0.000625655
0.00155984
0.108567
0.000590927
0.00142203
0.108634
0.000554232
0.00130277
0.108687
0.00052732
0.0012012
0.108743
0.000499894
0.00110421
0.108811
0.000485045
0.00101251
0.000469112
0.000910127
0.108918
0.0927256
0.0001401
0.00388583
0.0959452
0.000333998
0.00602716
0.0986973
0.00044322
0.00577762
0.10119
0.000500858
0.00538583
0.103286
0.000526584
0.00510957
0.104909
0.000534191
0.00461599
0.106116
0.000523624
0.00394145
0.107023
0.000501591
0.00328881
0.107712
0.000468594
0.00279558
0.108249
0.000427564
0.00243147
0.108675
0.000383653
0.0021441
0.109029
0.000333996
0.00189981
0.109335
0.000286606
0.00169658
0.109614
0.000235478
0.00152678
0.109873
0.000192539
0.00138999
0.110127
0.000147838
0.00127208
0.11037
0.000117026
0.00117209
0.110625
8.7691e-05
0.00107829
0.110869
7.63618e-05
0.00100065
7.12594e-05
0.000920574
0.111139
0.0926631
6.51318e-05
0.00388375
0.0957943
0.000172948
0.00604557
0.0984801
0.000238776
0.00580195
0.100926
0.000268963
0.00540901
0.102985
0.000273972
0.0051266
0.104576
0.000260533
0.00462976
0.105762
0.000232886
0.00395128
0.106657
0.000192504
0.0032946
0.107342
0.000143909
0.00279408
0.10788
8.51866e-05
0.0024244
0.108313
2.57203e-05
0.00213135
0.108679
-4.28464e-05
0.00188708
0.109004
-0.000107404
0.00168157
0.109305
-0.000174691
0.00150967
0.109593
-0.00023058
0.00137009
0.109877
-0.000286449
0.00125033
0.110157
-0.000324337
0.00115166
0.110451
-0.000358437
0.0010499
0.110766