/*--------------------------------*- C++ -*----------------------------------*\
| =========                 |                                                 |
| \\      /  F ield         | OpenFOAM: The Open Source CFD Toolbox           |
|  \\    /   O peration     | Version:  v1806                                 |
|   \\  /    A nd           | Web:      www.OpenFOAM.com                      |
|    \\/     M anipulation  |                                                 |
\*---------------------------------------------------------------------------*/
FoamFile
{
    version     2.0;
    format      ascii;
    class       surfaceScalarField;
    location    "370";
    object      phi;
}
// * * * * * * * * * * * * * * * * * * * * * * * * * * * * * * * * * * * * * //

dimensions      [0 3 -1 0 0 0 0];
oriented        oriented;


internalField   nonuniform List<scalar> 
8600
(
0.0512893
-0.0677481
-0.0468738
0.0633326
0.0436434
-0.0792955
0.0869414
0.0338889
-0.0842076
0.0939621
0.0266614
-0.0877217
0.0949492
0.0217933
-0.0898105
0.0946785
0.0184479
-0.0908607
0.0942062
0.0160731
-0.0912564
0.0936311
0.0143249
-0.0912625
0.0930107
0.0129945
-0.0910508
0.0923811
0.0119546
-0.0907175
0.0917574
0.0111241
-0.0903141
0.0911445
0.0104501
-0.0898696
0.0905437
0.0098973
-0.0894018
0.0899545
0.00944213
-0.0889213
0.0893764
0.00906855
-0.0884349
0.0888085
0.00876555
-0.0879464
0.0882494
0.00852546
-0.0874581
0.0876981
0.00834245
-0.0869719
0.087155
0.00821118
-0.0864991
0.0866304
-0.0861037
0.0861899
0.0292535
-0.0640372
-0.0329644
0.024299
-0.074341
0.0213339
-0.0812425
0.0193418
-0.0857296
0.0176229
-0.0880916
0.0160425
-0.0892803
0.0146323
-0.0898461
0.0134195
-0.0900498
0.0123936
-0.0900248
0.0115283
-0.0898522
0.0107982
-0.0895839
0.0101821
-0.0892535
0.00966329
-0.088883
0.00922887
-0.0884869
0.00886881
-0.0880748
0.00857541
-0.087653
0.00834276
-0.0872254
0.00816646
-0.0867956
0.00804244
-0.0863751
-0.086019
0.0250263
-0.0663778
-0.0226856
0.0250013
-0.0743161
0.0233173
-0.0795585
0.0207488
-0.0831611
0.0182551
-0.0855979
0.0161745
-0.0871996
0.0145123
-0.088184
0.0131844
-0.0887218
0.0121106
-0.0889509
0.011231
-0.0889727
0.0105032
-0.0888562
0.00989721
-0.0886475
0.00939138
-0.0883771
0.00897026
-0.0880657
0.00862259
-0.0877272
0.00834022
-0.0873707
0.00811726
-0.0870024
0.00794939
-0.0866278
0.00783207
-0.0862578
-0.0859421
0.0176527
-0.0688586
-0.015172
0.0176789
-0.0743422
0.0169064
-0.078786
0.0159565
-0.0822112
0.0149967
-0.0846382
0.0140254
-0.0862284
0.0130704
-0.087229
0.012175
-0.0878264
0.0113661
-0.088142
0.0106519
-0.0882584
0.0100298
-0.0882342
0.00949332
-0.088111
0.00903462
-0.0879184
0.00864653
-0.0876777
0.00832281
-0.0874034
0.00805836
-0.0871062
0.00784911
-0.0867932
0.00769182
-0.0864705
0.00758287
-0.0861488
-0.0858725
0.0141759
-0.071798
-0.0112365
0.0154704
-0.0756367
0.0156946
-0.0790102
0.0151869
-0.0817035
0.0142997
-0.0837509
0.0133164
-0.085245
0.0123765
-0.0862892
0.0115276
-0.0869775
0.0107778
-0.0873922
0.0101223
-0.0876029
0.00955269
-0.0876646
0.00906066
-0.0876189
0.00863872
-0.0874965
0.00828052
-0.0873195
0.00798088
-0.0871038
0.00773565
-0.086861
0.00754162
-0.0865992
0.0073962
-0.086325
0.00729641
-0.0860491
-0.0858102
0.0108503
-0.0741853
-0.00846298
0.0120501
-0.0768365
0.012445
-0.0794052
0.0123762
-0.0816347
0.0120577
-0.0834325
0.0115996
-0.0847869
0.0110667
-0.0857563
0.0105082
-0.0864189
0.00996004
-0.0868441
0.00944484
-0.0870877
0.00897442
-0.0871942
0.00855388
-0.0871984
0.00818448
-0.0871271
0.00786561
-0.0870006
0.00759581
-0.086834
0.0073734
-0.0866386
0.0071968
-0.0864226
0.00706451
-0.0861928
0.00697442
-0.085959
-0.0857551
0.00875042
-0.076328
-0.00660767
0.0101235
-0.0782096
0.0108416
-0.0801232
0.0110559
-0.0818491
0.0109216
-0.0832981
0.0105859
-0.0844512
0.0101545
-0.0853248
0.00969085
-0.0859553
0.00923069
-0.0863839
0.00879343
-0.0866504
0.00838948
-0.0867902
0.00802416
-0.0868331
0.00769986
-0.0868028
0.00741741
-0.0867181
0.00717671
-0.0865933
0.00697731
-0.0864392
0.00681859
-0.0862638
0.00669982
-0.086074
0.00661951
-0.0858786
-0.085707
0.00703859
-0.0780597
-0.00530687
0.00823161
-0.0794026
0.00894135
-0.080833
0.00927902
-0.0821867
0.00935178
-0.0833709
0.00924502
-0.0843445
0.00902293
-0.0851027
0.00873252
-0.0856649
0.00840891
-0.0860603
0.00807747
-0.086319
0.00775538
-0.0864682
0.00745368
-0.0865314
0.00717914
-0.0865283
0.00693575
-0.0864747
0.00672574
-0.0863833
0.00655029
-0.0862637
0.00640998
-0.0861235
0.00630494
-0.085969
0.00623435
-0.0858081
-0.0856655
0.00577884
-0.0795503
-0.00428829
0.00689703
-0.0805208
0.00764516
-0.0815811
0.00807242
-0.082614
0.00824512
-0.0835436
0.00823305
-0.0843324
0.0080991
-0.0849688
0.00789176
-0.0854575
0.00764518
-0.0858137
0.00738292
-0.0860567
0.00712115
-0.0862064
0.0068708
-0.086281
0.00663921
-0.0862967
0.0064312
-0.0862667
0.00624993
-0.086202
0.00609742
-0.0861112
0.00597495
-0.0860011
0.00588325
-0.0858772
0.00582199
-0.0857468
-0.0856302
0.00477108
-0.0807721
-0.0035493
0.00572755
-0.0814773
0.00641086
-0.0822644
0.00684903
-0.0830521
0.00708591
-0.0837805
0.00716713
-0.0844136
0.00713405
-0.0849357
0.00702221
-0.0853457
0.00686024
-0.0856518
0.00667038
-0.0858669
0.00646941
-0.0860054
0.00626961
-0.0860812
0.00607975
-0.0861068
0.00590594
-0.0860929
0.0057524
-0.0860485
0.00562202
-0.0859808
0.00551675
-0.0858958
0.00543783
-0.0857983
0.00538541
-0.0856944
-0.0856006
0.0039604
-0.0818124
-0.00292006
0.00480594
-0.0823228
0.00544194
-0.0829004
0.00587916
-0.0834894
0.00614348
-0.0840448
0.00626765
-0.0845378
0.00628536
-0.0849534
0.00622713
-0.0852875
0.00611834
-0.085543
0.00597889
-0.0857274
0.00582397
-0.0858505
0.00566504
-0.0859223
0.00551059
-0.0859524
0.00536686
-0.0859492
0.00523834
-0.08592
0.00512828
-0.0858708
0.00503896
-0.0858065
0.00497192
-0.0857313
0.00492764
-0.0856501
-0.085576
0.00329621
-0.0826713
-0.00243735
0.00401248
-0.0830391
0.00457194
-0.0834599
0.00497794
-0.0838954
0.00524616
-0.084313
0.00539834
-0.08469
0.00545784
-0.0850129
0.00544705
-0.0852767
0.00538599
-0.0854819
0.00529169
-0.0856331
0.00517792
-0.0857367
0.00505553
-0.0857999
0.00493291
-0.0858297
0.00481638
-0.0858326
0.00471066
-0.0858143
0.00461921
-0.0857793
0.00454456
-0.0857318
0.00448844
-0.0856752
0.00445156
-0.0856132
-0.0855561
0.00273053
-0.0833935
-0.00200831
0.00334441
-0.083653
0.00383685
-0.0839523
0.00420727
-0.0842658
0.00446463
-0.0845704
0.00462375
-0.0848491
0.00470221
-0.0850914
0.00471786
-0.0852923
0.00468717
-0.0854512
0.00462444
-0.0855704
0.00454161
-0.0856539
0.00444827
-0.0857066
0.00435201
-0.0857335
0.00425872
-0.0857394
0.00417292
-0.0857285
0.00409801
-0.0857044
0.00403651
-0.0856703
0.0039902
-0.0856289
0.00395994
-0.085583
-0.0855401
0.00224901
-0.0839844
-0.00165813
0.00275931
-0.0841633
0.00317794
-0.0843709
0.00350237
-0.0845902
0.00373741
-0.0848054
0.0038928
-0.0850045
0.00398085
-0.0851794
0.00401469
-0.0853262
0.00400701
-0.0854436
0.00396938
-0.0855328
0.00391183
-0.0855963
0.00384274
-0.0856375
0.0037689
-0.0856596
0.00369571
-0.0856662
0.00362735
-0.0856601
0.00356707
-0.0856441
0.00351727
-0.0856205
0.0034797
-0.0855913
0.0034553
-0.0855586
-0.0855275
0.00182118
-0.0844673
-0.00133821
0.00224262
-0.0845847
0.00259348
-0.0847218
0.00287088
-0.0848676
0.00307738
-0.0850119
0.00321945
-0.0851465
0.00330599
-0.085266
0.00334697
-0.0853671
0.00335232
-0.0854489
0.00333132
-0.0855118
0.00329216
-0.0855572
0.00324183
-0.0855871
0.00318611
-0.0856039
0.00312968
-0.0856097
0.00307624
-0.0856067
0.00302865
-0.0855965
0.00298913
-0.085581
0.00295926
-0.0855614
0.00293996
-0.0855393
-0.0855179
0.00144108
-0.0848474
-0.00106096
0.00177601
-0.0849197
0.0020586
-0.0850044
0.00228586
-0.0850949
0.00245883
-0.0851849
0.00258166
-0.0852694
0.00266052
-0.0853448
0.00270258
-0.0854092
0.00271528
-0.0854616
0.00270572
-0.0855022
0.00268038
-0.0855318
0.0026449
-0.0855517
0.00260404
-0.0855631
0.00256171
-0.0855674
0.00252104
-0.085566
0.0024845
-0.08556
0.00245398
-0.0855505
0.00243088
-0.0855383
0.00241603
-0.0855244
-0.0855107
0.00109032
-0.0851369
-0.000800871
0.00134689
-0.0851762
0.00156505
-0.0852225
0.00174233
-0.0852722
0.0018792
-0.0853217
0.00197835
-0.0853685
0.00204403
-0.0854105
0.00208137
-0.0854465
0.00209581
-0.085476
0.00209264
-0.085499
0.00207676
-0.085516
0.00205249
-0.0855274
0.0020235
-0.0855341
0.00199288
-0.0855368
0.0019631
-0.0855362
0.00193614
-0.085533
0.00191351
-0.0855278
0.00189636
-0.0855212
0.0018854
-0.0855135
-0.0855057
0.000764803
-0.0853392
-0.000562546
0.00094528
-0.0853567
0.00109968
-0.0853769
0.00122621
-0.0853987
0.00132494
-0.0854205
0.00139752
-0.0854411
0.00144667
-0.0854597
0.00147578
-0.0854756
0.00148852
-0.0854888
0.00148851
-0.085499
0.00147918
-0.0855066
0.00146356
-0.0855118
0.0014443
-0.0855148
0.0014236
-0.0855161
0.00140327
-0.0855159
0.00138475
-0.0855145
0.00136915
-0.0855122
0.0013573
-0.0855093
0.00134977
-0.0855059
-0.0855024
0.00045371
-0.0854609
-0.000332003
0.000561573
-0.0854646
0.00065402
-0.0854694
0.000730051
-0.0854747
0.000789693
-0.0854801
0.000833843
-0.0854852
0.000864047
-0.0854899
0.000882263
-0.0854939
0.000890635
-0.0854971
0.000891307
-0.0854997
0.0008863
-0.0855016
0.000877435
-0.0855029
0.00086629
-0.0855037
0.000854202
-0.085504
0.000842271
-0.085504
0.000831372
-0.0855036
0.000822179
-0.0855031
0.000815187
-0.0855023
0.000810739
-0.0855015
-0.0855005
0.000151559
-0.000112418
0.000186993
0.000217606
0.000242886
0.000262768
0.00027752
0.000287644
0.000293782
0.00029664
0.000296926
0.000295313
0.000292405
0.000288731
0.000284736
0.000280784
0.00027717
0.000274118
0.000271795
0.000270328
-0.0390406
-0.00703164
0.0460723
-0.0329312
-0.00610937
-0.0274812
-0.00545002
-0.0225393
-0.00494194
-0.0179976
-0.00454169
-0.0137698
-0.00422784
-0.00978236
-0.00398741
-0.00597155
-0.00381081
-0.00228013
-0.00369142
0.00134483
-0.00362496
0.00495388
-0.00360905
0.00859697
-0.00364309
0.0123252
-0.00372827
0.016193
-0.00386773
0.0202601
-0.00406709
0.0245955
-0.00433542
0.0292824
-0.00468697
0.0344288
-0.00514637
0.0401933
-0.00576447
-0.00668047
-0.024614
-0.0090858
0.0266682
-0.022105
-0.00861834
-0.0193508
-0.00820427
-0.0164428
-0.00784993
-0.0134309
-0.00755361
-0.0103467
-0.00731205
-0.00721207
-0.00712201
-0.00404216
-0.00698071
-0.00084755
-0.00688603
0.002364
-0.00683651
0.00558635
-0.00683139
0.00881385
-0.00687059
0.0120403
-0.00695477
0.015258
-0.00708538
0.0184558
-0.00726487
0.0216174
-0.007497
0.0247177
-0.00778735
0.0277158
-0.00814439
0.0305341
-0.0085828
-0.00911078
-0.0158299
-0.0103319
0.017076
-0.0143428
-0.0101054
-0.0126498
-0.00989724
-0.0107895
-0.00971027
-0.00879634
-0.00954676
-0.00669986
-0.00940853
-0.0045248
-0.00929706
-0.00229205
-0.00921346
-1.95505e-05
-0.00915853
0.0022768
-0.00913286
0.00458226
-0.00913685
0.00688246
-0.0091708
0.00916257
-0.00923488
0.0114064
-0.0093292
0.0135953
-0.00945379
0.0157069
-0.0096086
0.0177131
-0.00979357
0.0195777
-0.010009
0.0212514
-0.0102564
-0.0105451
-0.00955319
-0.0113192
0.0105405
-0.00847893
-0.0111797
-0.0073251
-0.0110511
-0.00609972
-0.0109356
-0.00481135
-0.0108351
-0.00346908
-0.0107508
-0.00208245
-0.0106837
-0.000661395
-0.0106345
0.000783883
-0.0106038
0.00224299
-0.010592
0.00370539
-0.0105993
0.00516039
-0.0106258
0.00659715
-0.0106716
0.00800466
-0.0107367
0.00937174
-0.0108209
0.010687
-0.0109239
0.0119389
-0.0110454
0.0131151
-0.0111852
0.0142018
-0.0113432
-0.0115152
-0.0067645
-0.0120564
0.00750173
-0.00596768
-0.0119765
-0.0051151
-0.0119037
-0.00421202
-0.0118387
-0.0032646
-0.0117825
-0.00227962
-0.0117358
-0.00126421
-0.0116991
-0.000225692
-0.011673
0.000828464
-0.011658
0.00189072
-0.0116542
0.00295347
-0.011662
0.00400903
-0.0116814
0.00504964
-0.0117122
0.0060674
-0.0117545
0.00705432
-0.0118078
0.00800219
-0.0118718
0.00890264
-0.0119459
0.00974705
-0.0120296
0.0105262
-0.0121223
-0.0122255
-0.004579
-0.0126528
0.00517538
-0.00395498
-0.0126005
-0.00330552
-0.0125531
-0.00263305
-0.0125112
-0.00194035
-0.0124752
-0.00123042
-0.0124457
-0.000506552
-0.012423
0.000227746
-0.0124073
0.000968782
-0.012399
0.00171272
-0.0123982
0.00245564
-0.0124049
0.00319356
-0.0124193
0.00392251
-0.0124412
0.00463861
-0.0124706
0.00533805
-0.0125072
0.00601721
-0.0125509
0.00667269
-0.0126014
0.00730128
-0.0126582
0.00790005
-0.0127211
-0.0127885
-0.00340309
-0.0131182
0.00386841
-0.00291835
-0.0130853
-0.00241561
-0.0130559
-0.0018966
-0.0130302
-0.00136331
-0.0130085
-0.000817937
-0.0129911
-0.000262893
-0.012978
0.000299273
-0.0129695
0.000865897
-0.0129656
0.00143423
-0.0129665
0.00200148
-0.0129722
0.00256481
-0.0129826
0.00312142
-0.0129978
0.00366851
-0.0130177
0.00420335
-0.0130421
0.0047233
-0.0130709
0.00522582
-0.0131039
0.00570853
-0.0131409
0.00616916
-0.0131817
-0.013227
-0.00249806
-0.0134998
0.00287968
-0.00210591
-0.0134774
-0.00170423
-0.0134575
-0.00129414
-0.0134403
-0.000876818
-0.0134259
-0.000453523
-0.0134144
-2.55882e-05
-0.013406
0.000405598
-0.0134007
0.0008386
-0.0133986
0.00127195
-0.0133999
0.00170415
-0.0134044
0.00213372
-0.0134122
0.00255919
-0.0134233
0.00297909
-0.0134376
0.00339204
-0.013455
0.0037967
-0.0134755
0.0041918
-0.013499
0.00457612
-0.0135252
0.00494858
-0.0135542
-0.0135853
-0.00192725
-0.0138068
0.00223425
-0.00161278
-0.0137919
-0.00129153
-0.0137788
-0.000964274
-0.0137676
-0.000631845
-0.0137583
-0.000295152
-0.0137511
4.48394e-05
-0.0137459
0.000387117
-0.013743
0.000730634
-0.0137421
0.00107431
-0.0137435
0.00141707
-0.0137471
0.00175781
-0.0137529
0.00209546
-0.0137609
0.00242893
-0.013771
0.00275721
-0.0137833
0.00307928
-0.0137976
0.0033942
-0.0138139
0.00370109
-0.0138321
0.00399912
-0.0138522
-0.0138744
-0.00148972
-0.0140615
0.00174448
-0.00123041
-0.0140512
-0.000967034
-0.0140421
-0.000700147
-0.0140344
-0.000430308
-0.0140281
-0.000158106
-0.0140233
0.000115852
-0.0140199
0.000390942
-0.014018
0.000666528
-0.0140177
0.000941965
-0.014019
0.0012166
-0.0140218
0.0014898
-0.0140261
0.00176091
-0.014032
0.00202932
-0.0140394
0.00229439
-0.0140484
0.00255555
-0.0140587
0.0028122
-0.0140706
0.00306381
-0.0140837
0.00330985
-0.0140982
-0.0141139
-0.00117962
-0.0142702
0.00138828
-0.000967698
-0.0142631
-0.000752864
-0.014257
-0.000535504
-0.0142518
-0.000316025
-0.0142476
-9.48528e-05
-0.0142444
0.000127568
-0.0142423
0.000350778
-0.0142413
0.000574307
-0.0142413
0.000797679
-0.0142423
0.00102041
-0.0142445
0.00124202
-0.0142477
0.00146204
-0.014252
0.00167999
-0.0142574
0.00189541
-0.0142638
0.00210786
-0.0142712
0.00231691
-0.0142796
0.00252217
-0.014289
0.00272324
-0.0142993
-0.0143107
-0.000937387
-0.0144439
0.0011111
-0.000761501
-0.014439
-0.000583711
-0.0144348
-0.000404297
-0.0144312
-0.00022355
-0.0144284
-4.17682e-05
-0.0144262
0.000140744
-0.0144248
0.000323674
-0.0144242
0.000506708
-0.0144243
0.000689528
-0.0144252
0.000871815
-0.0144268
0.00105325
-0.0144292
0.00123353
-0.0144323
0.00141232
-0.0144362
0.00158934
-0.0144408
0.00176428
-0.0144461
0.00193685
-0.0144522
0.00210677
-0.0144589
0.00227376
-0.0144663
-0.0144743
-0.000750542
-0.0145865
0.000893169
-0.000606341
-0.0145832
-0.000460762
-0.0145803
-0.000314011
-0.014578
-0.0001663
-0.0145761
-1.78495e-05
-0.0145747
0.000131114
-0.0145738
0.00028036
-0.0145734
0.000429654
-0.0145736
0.000578757
-0.0145743
0.000727433
-0.0145755
0.000875442
-0.0145772
0.00102255
-0.0145794
0.00116852
-0.0145822
0.00131313
-0.0145854
0.00145616
-0.0145892
0.00159738
-0.0145934
0.00173659
-0.0145981
0.0018736
-0.0146033
-0.014609
-0.000599053
-0.0147039
0.000716423
-0.000480579
-0.0147017
-0.000361153
-0.0146998
-0.000240925
-0.0146982
-0.000120054
-0.0146969
1.29995e-06
-0.014696
0.000122973
-0.0146955
0.0002448
-0.0146953
0.000366614
-0.0146954
0.000488245
-0.0146959
0.000609526
-0.0146967
0.00073029
-0.0146979
0.000850368
-0.0146995
0.000969596
-0.0147014
0.00108781
-0.0147036
0.00120485
-0.0147062
0.00132057
-0.0147091
0.0014348
-0.0147123
0.0015474
-0.0147159
-0.0147197
-0.000474106
-0.0147984
0.000568588
-0.000378823
-0.014797
-0.00028285
-0.0147957
-0.000186298
-0.0147947
-8.92849e-05
-0.014794
8.07127e-06
-0.0147934
0.000105649
-0.0147931
0.000203326
-0.0147929
0.000300977
-0.0147931
0.000398478
-0.0147934
0.000495702
-0.014794
0.000592526
-0.0147948
0.000688824
-0.0147958
0.000784474
-0.014797
0.000879354
-0.0147985
0.000973346
-0.0148002
0.00106633
-0.0148021
0.00115821
-0.0148042
0.00124885
-0.0148065
-0.0148091
-0.000367679
-0.0148731
0.000442385
-0.000292406
-0.0148722
-0.000216647
-0.0148715
-0.000140485
-0.0148709
-6.40073e-05
-0.0148704
1.27008e-05
-0.0148701
8.9551e-05
-0.0148699
0.000166454
-0.0148698
0.000243321
-0.0148699
0.00032006
-0.0148701
0.000396584
-0.0148705
0.0004728
-0.014871
0.000548621
-0.0148716
0.000623958
-0.0148724
0.000698722
-0.0148733
0.000772829
-0.0148743
0.000846192
-0.0148755
0.00091873
-0.0148768
0.000990361
-0.0148782
-0.0148797
-0.000274419
-0.0149294
0.000330722
-0.000217719
-0.0149289
-0.000160678
-0.0149285
-0.000103356
-0.0149282
-4.58148e-05
-0.014928
1.1885e-05
-0.0149278
6.96802e-05
-0.0149277
0.000127508
-0.0149277
0.000185303
-0.0149277
0.000243003
-0.0149278
0.000300544
-0.014928
0.00035786
-0.0149283
0.000414889
-0.0149286
0.000471567
-0.0149291
0.000527833
-0.0149295
0.000583623
-0.0149301
0.000638879
-0.0149307
0.00069354
-0.0149314
0.000747549
-0.0149322
-0.014933
-0.000190344
-0.0149689
0.000229835
-0.000150591
-0.0149687
-0.000110615
-0.0149685
-7.04561e-05
-0.0149684
-3.01559e-05
-0.0149683
1.02444e-05
-0.0149682
5.07028e-05
-0.0149682
9.11767e-05
-0.0149681
0.000131624
-0.0149682
0.000172001
-0.0149682
0.000212265
-0.0149683
0.000252374
-0.0149684
0.000292286
-0.0149686
0.000331957
-0.0149687
0.000371346
-0.0149689
0.000410411
-0.0149692
0.00044911
-0.0149694
0.000487399
-0.0149697
0.000525238
-0.01497
-0.0149703
-0.0001121
-0.0149922
0.000135414
-8.86372e-05
-0.0149922
-6.50475e-05
-0.0149921
-4.13543e-05
-0.0149921
-1.75813e-05
-0.0149921
6.24745e-06
-0.014992
3.01075e-05
-0.014992
5.39744e-05
-0.014992
7.78231e-05
-0.014992
0.000101629
-0.014992
0.000125367
-0.014992
0.000149013
-0.0149921
0.000172542
-0.0149921
0.000195929
-0.0149921
0.000219152
-0.0149922
0.000242184
-0.0149922
0.000265004
-0.0149922
0.000287587
-0.0149923
0.000309905
-0.0149923
-0.0149924
-3.71837e-05
4.49769e-05
-2.93401e-05
-2.14541e-05
-1.35325e-05
-5.5826e-06
2.38817e-06
1.03725e-05
1.8363e-05
2.63525e-05
3.4334e-05
4.23006e-05
5.02459e-05
5.81637e-05
6.60488e-05
7.38961e-05
8.1702e-05
8.94636e-05
9.71795e-05
0.000104851
-0.0252449
-0.0144949
0.0154073
0.0243325
-0.0262592
-0.0144114
0.0154257
-0.0274264
-0.0143108
0.015478
-0.0287652
-0.0142076
0.0155464
-0.0302902
-0.0141045
0.0156295
-0.0320087
-0.0140043
0.0157228
-0.0339174
-0.0139091
0.0158179
-0.0359995
-0.0138192
0.0159012
-0.0382211
-0.0137323
0.015954
-0.0405301
-0.0136428
0.0159518
-0.0428556
-0.0135404
0.0158659
-0.0451093
-0.0134101
0.0156638
-0.0471885
-0.0132317
0.015311
-0.0489803
-0.0129804
0.0147722
-0.0503652
-0.0126272
0.014012
-0.0512182
-0.0121407
0.0129937
-0.0514031
-0.0114906
0.0116756
-0.0507608
-0.0106485
0.0100062
-0.0490948
-0.00958178
0.00791579
-0.00824816
0.00522563
-0.0182394
-0.0142913
0.0180359
-0.0184565
-0.0141942
-0.0186783
-0.014089
-0.0189177
-0.0139683
-0.019191
-0.0138311
-0.0195186
-0.0136767
-0.019923
-0.0135047
-0.0204267
-0.0133156
-0.0210488
-0.0131103
-0.0218012
-0.0128903
-0.0226844
-0.0126572
-0.0236825
-0.0124119
-0.0247604
-0.0121539
-0.02586
-0.0118808
-0.0268993
-0.0115878
-0.0277718
-0.0112682
-0.0283487
-0.0109137
-0.028482
-0.0105152
-0.0279971
-0.0100666
-0.0095771
-0.0194603
-0.0139798
0.0191488
-0.019758
-0.0138965
-0.0200426
-0.0138045
-0.0203047
-0.0137062
-0.0205353
-0.0136005
-0.0207259
-0.0134861
-0.0208693
-0.0133613
-0.0209604
-0.0132245
-0.0209966
-0.013074
-0.0209784
-0.0129085
-0.0209085
-0.0127272
-0.0207907
-0.0125297
-0.0206281
-0.0123165
-0.0204201
-0.0120889
-0.020159
-0.0118489
-0.0198279
-0.0115993
-0.0193987
-0.011343
-0.0188304
-0.0110835
-0.0180719
-0.0108251
-0.010573
-0.0143888
-0.013882
0.014291
-0.0144929
-0.0137925
-0.0145989
-0.0136985
-0.0147053
-0.0135997
-0.0148094
-0.0134965
-0.0149066
-0.0133889
-0.0149907
-0.0132772
-0.0150537
-0.0131615
-0.0150857
-0.013042
-0.0150757
-0.0129186
-0.0150119
-0.012791
-0.0148824
-0.0126591
-0.0146762
-0.0125227
-0.0143836
-0.0123815
-0.0139969
-0.0122356
-0.0135108
-0.0120854
-0.0129221
-0.0119317
-0.0122297
-0.011776
-0.0114346
-0.0116202
-0.011467
-0.0131778
-0.0139109
0.0132067
-0.0131284
-0.0138419
-0.0130583
-0.0137686
-0.0129665
-0.0136916
-0.012852
-0.0136109
-0.0127144
-0.0135265
-0.0125532
-0.0134384
-0.012368
-0.0133467
-0.0121584
-0.0132516
-0.0119235
-0.0131534
-0.0116619
-0.0130527
-0.0113712
-0.0129498
-0.0110484
-0.0128455
-0.0106894
-0.0127405
-0.0102893
-0.0126356
-0.00984304
-0.0125317
-0.00934522
-0.0124295
-0.00879116
-0.01233
-0.0081773
-0.0122341
-0.0121426
-0.0105493
-0.0139626
0.0106011
-0.0104873
-0.0139039
-0.0104127
-0.0138432
-0.0103231
-0.0137812
-0.0102163
-0.0137178
-0.0100897
-0.0136531
-0.00994078
-0.0135873
-0.00976704
-0.0135205
-0.00956602
-0.0134526
-0.00933545
-0.013384
-0.00907339
-0.0133147
-0.00877825
-0.0132449
-0.00844886
-0.0131749
-0.0080845
-0.0131049
-0.0076849
-0.0130352
-0.0072502
-0.0129664
-0.00678091
-0.0128988
-0.00627787
-0.0128331
-0.00574222
-0.0127697
-0.0127094
-0.00902637
-0.0140769
0.00914065
-0.00889933
-0.0140309
-0.00875891
-0.0139836
-0.00860482
-0.0139352
-0.00843674
-0.0138858
-0.00825434
-0.0138355
-0.00805722
-0.0137844
-0.00784491
-0.0137328
-0.00761687
-0.0136807
-0.00737247
-0.0136284
-0.00711098
-0.0135762
-0.00683162
-0.0135243
-0.00653355
-0.0134729
-0.00621595
-0.0134225
-0.00587804
-0.0133731
-0.00551916
-0.0133253
-0.00513885
-0.0132791
-0.00473686
-0.0132351
-0.00431325
-0.0131933
-0.0131543
-0.00749541
-0.0141882
0.00760674
-0.00737398
-0.0141523
-0.00724188
-0.0141157
-0.00709834
-0.0140788
-0.0069426
-0.0140416
-0.00677397
-0.0140041
-0.0065918
-0.0139666
-0.00639552
-0.013929
-0.00618466
-0.0138915
-0.00595884
-0.0138542
-0.00571779
-0.0138172
-0.00546138
-0.0137807
-0.00518959
-0.0137447
-0.00490252
-0.0137095
-0.0046004
-0.0136753
-0.00428357
-0.0136421
-0.00395248
-0.0136102
-0.00360768
-0.0135799
-0.00324984
-0.0135512
-0.0135244
-0.00631376
-0.0143123
0.00643785
-0.00618163
-0.0142845
-0.00604099
-0.0142564
-0.00589169
-0.0142281
-0.0057336
-0.0141997
-0.00556657
-0.0141712
-0.00539046
-0.0141427
-0.00520512
-0.0141144
-0.00501043
-0.0140862
-0.00480624
-0.0140584
-0.00459244
-0.014031
-0.00436893
-0.0140042
-0.00413564
-0.013978
-0.00389255
-0.0139526
-0.00363967
-0.0139281
-0.0033771
-0.0139047
-0.003105
-0.0138823
-0.00282359
-0.0138613
-0.0025332
-0.0138416
-0.0138234
-0.00531204
-0.0144271
0.00542685
-0.00519037
-0.0144061
-0.00506178
-0.014385
-0.00492607
-0.0143638
-0.00478305
-0.0143427
-0.00463257
-0.0143217
-0.0044745
-0.0143008
-0.00430875
-0.0142801
-0.00413526
-0.0142597
-0.00395403
-0.0142397
-0.00376508
-0.01422
-0.0035685
-0.0142008
-0.0033644
-0.0141821
-0.00315294
-0.0141641
-0.00293435
-0.0141467
-0.00270886
-0.0141302
-0.00247678
-0.0141144
-0.00223844
-0.0140996
-0.0019942
-0.0140858
-0.0140731
-0.00446011
-0.0145365
0.00456946
-0.00434568
-0.0145206
-0.00422595
-0.0145047
-0.00410089
-0.0144889
-0.00397046
-0.0144731
-0.00383463
-0.0144575
-0.0036934
-0.014442
-0.00354677
-0.0144268
-0.00339475
-0.0144117
-0.00323737
-0.014397
-0.00307466
-0.0143827
-0.00290669
-0.0143688
-0.00273353
-0.0143553
-0.0025553
-0.0143423
-0.00237211
-0.0143299
-0.00218413
-0.0143181
-0.00199153
-0.014307
-0.00179452
-0.0142966
-0.00159335
-0.014287
-0.0142782
-0.00375135
-0.0146341
0.00384899
-0.00364941
-0.0146225
-0.00354323
-0.0146109
-0.00343275
-0.0145993
-0.00331796
-0.0145879
-0.00319885
-0.0145766
-0.00307542
-0.0145654
-0.00294769
-0.0145545
-0.0028157
-0.0145437
-0.0026795
-0.0145332
-0.00253917
-0.014523
-0.00239479
-0.0145131
-0.00224647
-0.0145036
-0.00209435
-0.0144944
-0.00193857
-0.0144857
-0.00177929
-0.0144774
-0.0016167
-0.0144696
-0.00145099
-0.0144623
-0.00128238
-0.0144556
-0.0144495
-0.00312408
-0.014721
0.00321101
-0.00303399
-0.0147126
-0.00294065
-0.0147042
-0.00284407
-0.0146959
-0.00274425
-0.0146877
-0.00264121
-0.0146796
-0.00253499
-0.0146717
-0.00242561
-0.0146639
-0.00231313
-0.0146562
-0.00219759
-0.0146488
-0.00207905
-0.0146416
-0.0019576
-0.0146346
-0.0018333
-0.0146279
-0.00170627
-0.0146215
-0.00157659
-0.0146154
-0.0014444
-0.0146096
-0.00130981
-0.0146042
-0.00117297
-0.0145992
-0.00103404
-0.0145945
-0.0145903
-0.00258816
-0.0147958
0.00266289
-0.00251082
-0.0147899
-0.0024309
-0.0147841
-0.00234843
-0.0147784
-0.00226341
-0.0147727
-0.00217587
-0.0147672
-0.00208584
-0.0147617
-0.00199335
-0.0147563
-0.00189845
-0.0147511
-0.00180119
-0.014746
-0.00170163
-0.0147411
-0.00159985
-0.0147364
-0.00149591
-0.0147318
-0.00138991
-0.0147275
-0.00128194
-0.0147233
-0.00117211
-0.0147194
-0.00106052
-0.0147158
-0.000947292
-0.0147124
-0.000832549
-0.0147093
-0.0147064
-0.00210103
-0.0148588
0.00216404
-0.00203611
-0.0148549
-0.00196924
-0.014851
-0.00190044
-0.0148472
-0.00182973
-0.0148434
-0.00175713
-0.0148398
-0.00168268
-0.0148361
-0.00160641
-0.0148326
-0.00152836
-0.0148292
-0.00144857
-0.0148258
-0.00136709
-0.0148226
-0.00128398
-0.0148195
-0.0011993
-0.0148165
-0.0011131
-0.0148137
-0.00102547
-0.014811
-0.000936479
-0.0148084
-0.000846205
-0.0148061
-0.000754736
-0.0148039
-0.000662165
-0.0148018
-0.0148
-0.00166787
-0.0149099
0.00171899
-0.00161523
-0.0149075
-0.0015611
-0.0149051
-0.0015055
-0.0149028
-0.00144844
-0.0149005
-0.00138996
-0.0148982
-0.00133007
-0.014896
-0.0012688
-0.0148939
-0.0012062
-0.0148918
-0.00114228
-0.0148897
-0.00107711
-0.0148878
-0.00101071
-0.0148859
-0.00094315
-0.0148841
-0.000874471
-0.0148823
-0.000804732
-0.0148807
-0.000733994
-0.0148792
-0.000662321
-0.0148777
-0.000589781
-0.0148764
-0.000516444
-0.0148752
-0.0148741
-0.0012632
-0.0149494
0.00130275
-0.00122259
-0.0149481
-0.0011809
-0.0149468
-0.00113816
-0.0149455
-0.00109437
-0.0149443
-0.00104956
-0.0149431
-0.00100374
-0.0149419
-0.00095694
-0.0149407
-0.000909187
-0.0149395
-0.000860508
-0.0149384
-0.000810931
-0.0149374
-0.000760492
-0.0149363
-0.000709226
-0.0149353
-0.00065717
-0.0149344
-0.000604367
-0.0149335
-0.000550858
-0.0149327
-0.00049669
-0.0149319
-0.000441911
-0.0149312
-0.000386571
-0.0149305
-0.0149299
-0.000887495
-0.0149775
0.000915533
-0.000858677
-0.0149769
-0.000829114
-0.0149764
-0.000798817
-0.0149758
-0.000767801
-0.0149753
-0.000736082
-0.0149748
-0.000703674
-0.0149743
-0.000670596
-0.0149738
-0.000636866
-0.0149733
-0.000602504
-0.0149728
-0.000567533
-0.0149723
-0.000531977
-0.0149719
-0.00049586
-0.0149715
-0.00045921
-0.0149711
-0.000422055
-0.0149707
-0.000384427
-0.0149703
-0.000346357
-0.01497
-0.000307878
-0.0149697
-0.000269025
-0.0149694
-0.0149691
-0.000525169
-0.0149943
0.000541943
-0.000508003
-0.0149941
-0.000490401
-0.014994
-0.000472374
-0.0149939
-0.000453931
-0.0149938
-0.000435081
-0.0149936
-0.000415834
-0.0149935
-0.0003962
-0.0149934
-0.000376191
-0.0149933
-0.000355818
-0.0149932
-0.000335095
-0.014993
-0.000314035
-0.0149929
-0.000292654
-0.0149928
-0.000270966
-0.0149927
-0.00024899
-0.0149926
-0.000226741
-0.0149926
-0.00020424
-0.0149925
-0.000181505
-0.0149924
-0.000158556
-0.0149923
-0.0149923
-0.000176057
0.000181801
-0.00017016
-0.000164148
-0.000158018
-0.000151769
-0.0001454
-0.000138911
-0.000132303
-0.000125579
-0.00011874
-0.000111789
-0.000104731
-9.75697e-05
-9.03093e-05
-8.29551e-05
-7.55124e-05
-6.7987e-05
-6.03849e-05
-5.27125e-05
-0.0178883
-0.00446718
0.0223554
-0.0142957
-0.00359256
-0.0113615
-0.00293419
-0.00894973
-0.00241177
-0.00696491
-0.00198482
-0.00533533
-0.00162957
-0.00400486
-0.00133047
-0.0029282
-0.00107665
-0.00206797
-0.000860236
-0.00139264
-0.00067533
-0.00087519
-0.000517448
-0.000492056
-0.000383134
-0.000222302
-0.000269753
-4.69243e-05
-0.000175378
5.18281e-05
-9.87523e-05
9.12414e-05
-3.94133e-05
9.02417e-05
9.99633e-07
6.02707e-05
2.9971e-05
2.26828e-05
3.75879e-05
2.26828e-05
-0.0149945
-0.00597069
0.0164981
-0.0133483
-0.00523878
-0.0116988
-0.00458376
-0.0101142
-0.00399638
-0.00863143
-0.00346755
-0.00727032
-0.00299068
-0.00604024
-0.00256056
-0.004944
-0.00217289
-0.00398011
-0.00182413
-0.0031441
-0.00151134
-0.0024295
-0.00123204
-0.00182844
-0.000984195
-0.0013321
-0.000766101
-0.000931066
-0.000576408
-0.000615719
-0.000414099
-0.000376634
-0.000278499
-0.000206378
-0.000169256
-9.01322e-05
-8.62745e-05
-2.2625e-05
-2.99193e-05
5.77979e-08
-0.0119183
-0.00694926
0.0128968
-0.0108551
-0.00630195
-0.00975379
-0.00568506
-0.00865166
-0.00509851
-0.00757641
-0.0045428
-0.00654853
-0.00401856
-0.00558279
-0.0035263
-0.00468935
-0.00306633
-0.0038747
-0.00263878
-0.00314241
-0.00224363
-0.00249369
-0.00188076
-0.00192794
-0.00154994
-0.00144313
-0.00125092
-0.00103613
-0.000983404
-0.00070312
-0.00074711
-0.000439854
-0.000541764
-0.000241991
-0.00036712
-0.000105286
-0.00022298
-2.60297e-05
-0.000109175
-2.59719e-05
-0.00956173
-0.00777969
0.0103922
-0.00871112
-0.00715256
-0.00785764
-0.00653853
-0.00701482
-0.00594133
-0.00619419
-0.00536343
-0.00540556
-0.0048072
-0.00465713
-0.00427473
-0.00395559
-0.00376787
-0.00330616
-0.0032882
-0.00271272
-0.00283707
-0.0021779
-0.00241558
-0.00170322
-0.00202462
-0.00128923
-0.00166491
-0.000935651
-0.00133698
-0.000641538
-0.00104122
-0.000405398
-0.000777905
-0.000225337
-0.00054718
-9.92022e-05
-0.000349115
-2.46774e-05
-0.0001837
-5.06492e-05
-0.00861849
-0.00854882
0.00938761
-0.00784656
-0.00792449
-0.00707982
-0.00730527
-0.00632692
-0.00669423
-0.00559574
-0.00609461
-0.00489339
-0.00550954
-0.00422611
-0.00494201
-0.00359918
-0.0043948
-0.00301692
-0.00387046
-0.00248275
-0.00337125
-0.00199916
-0.00289916
-0.00156787
-0.00245592
-0.0011898
-0.00204297
-0.000865276
-0.00166151
-0.000594014
-0.00131249
-0.00037529
-0.000996629
-0.000208005
-0.000714465
-9.07861e-05
-0.000466334
-2.20827e-05
-0.000252404
-7.27319e-05
-0.00812774
-0.00929708
0.008876
-0.00738339
-0.00866884
-0.00665016
-0.0080385
-0.00593465
-0.00740974
-0.00524308
-0.00678618
-0.00458112