/*--------------------------------*- C++ -*----------------------------------*\
| =========                 |                                                 |
| \\      /  F ield         | OpenFOAM: The Open Source CFD Toolbox           |
|  \\    /   O peration     | Version:  v1806                                 |
|   \\  /    A nd           | Web:      www.OpenFOAM.com                      |
|    \\/     M anipulation  |                                                 |
\*---------------------------------------------------------------------------*/
FoamFile
{
    version     2.0;
    format      ascii;
    class       volScalarField;
    location    "3";
    object      p;
}
// * * * * * * * * * * * * * * * * * * * * * * * * * * * * * * * * * * * * * //

dimensions      [0 2 -2 0 0 0 0];


internalField   nonuniform List<scalar> 
2400
(
0.0869569
0.0866242
0.0862308
0.0852969
0.0836003
0.0816039
0.0796238
0.0770855
0.0733387
0.0697648
0.0651389
0.0592873
0.0550504
0.0508484
0.0428953
0.0326482
0.0235371
0.0182476
0.0142769
0.00899924
0.261081
0.260292
0.259004
0.256215
0.251863
0.245859
0.239151
0.23164
0.221706
0.211304
0.197778
0.18033
0.165594
0.151939
0.130907
0.103078
0.075944
0.0564485
0.0405529
0.0225962
0.435935
0.435202
0.432932
0.428354
0.421698
0.411443
0.400902
0.389128
0.372281
0.354554
0.334142
0.307293
0.280047
0.253767
0.220179
0.17716
0.133228
0.0978121
0.066291
0.0318989
0.611774
0.611806
0.609021
0.60269
0.593552
0.579101
0.565528
0.549528
0.526646
0.502451
0.474344
0.43777
0.398822
0.36054
0.314334
0.255111
0.192455
0.139034
0.0911782
0.0404646
0.788666
0.791033
0.788059
0.779411
0.767748
0.750237
0.73412
0.713606
0.68587
0.655422
0.619343
0.574264
0.523725
0.471828
0.411717
0.337021
0.25701
0.184051
0.114467
0.0422001
0.966776
0.973474
0.969937
0.959172
0.94495
0.925431
0.907029
0.882713
0.851719
0.814287
0.770681
0.718064
0.656216
0.590307
0.514953
0.42384
0.325043
0.229415
0.135321
0.0390896
1.14652
1.1594
1.15432
1.14215
1.12479
1.10542
1.08516
1.05791
1.02425
0.980767
0.931662
0.87131
0.797883
0.717424
0.625656
0.517731
0.399226
0.276531
0.151851
0.0266041
1.32896
1.34857
1.34033
1.32791
1.30756
1.29095
1.26778
1.24055
1.20338
1.15684
1.10315
1.03516
0.951603
0.857049
0.7479
0.620837
0.478865
0.325396
0.166904
0.00603923
1.51495
1.53904
1.52775
1.51626
1.49331
1.48157
1.45445
1.43125
1.38806
1.34462
1.28481
1.21268
1.11959
1.01104
0.884246
0.735363
0.567948
0.381822
0.185107
-0.0224096
1.70569
1.72874
1.71587
1.70526
1.68278
1.67643
1.64532
1.6288
1.57838
1.54494
1.47409
1.40763
1.30159
1.18424
1.03709
0.863467
0.66785
0.444033
0.201875
-0.0594229
1.9027
1.91561
1.90332
1.89424
1.87696
1.87346
1.84159
1.83251
1.77618
1.75552
1.67121
1.62049
1.49281
1.38404
1.20824
1.01365
0.78283
0.510384
0.210582
-0.11374
2.10516
2.09869
2.08996
2.08389
2.07454
2.07395
2.04582
2.04241
1.98549
1.97625
1.88127
1.8457
1.69263
1.61097
1.39362
1.20689
0.921397
0.595302
0.221796
-0.191964
2.31138
2.27742
2.27449
2.27645
2.27609
2.28061
2.25812
2.26248
2.21267
2.20937
2.11463
2.08092
1.91271
1.85145
1.59098
1.44779
1.08538
0.744482
0.266409
-0.268417
2.51074
2.45401
2.46515
2.47391
2.4833
2.49461
2.48037
2.49543
2.45927
2.45572
2.3847
2.33134
2.18025
2.09504
1.82143
1.70719
1.26823
0.967241
0.336897
-0.296933
2.69584
2.6397
2.65619
2.67573
2.6928
2.71654
2.71451
2.73768
2.72429
2.71314
2.69186
2.60146
2.51937
2.36992
2.13548
1.96313
1.48677
1.21355
0.386922
-0.225977
2.8689
2.83442
2.84712
2.88076
2.90406
2.94139
2.95589
2.98037
3.00307
2.97913
3.0178
2.90539
2.91259
2.71205
2.56714
2.25939
1.83779
1.44552
0.476202
-0.0835212
3.04036
3.02999
3.04098
3.08067
3.11434
3.15744
3.19649
3.22004
3.28307
3.25898
3.35352
3.24319
3.33254
3.09969
3.10915
2.65009
2.38281
1.72472
0.819739
0.160498
3.21518
3.21116
3.23003
3.2687
3.31681
3.36312
3.42595
3.46449
3.54532
3.56743
3.65419
3.64124
3.70459
3.58452
3.60505
3.16881
3.084
2.13174
1.4532
0.420379
3.38918
3.37588
3.40296
3.44622
3.50494
3.56432
3.6374
3.71243
3.79188
3.88828
3.95496
4.05683
4.07971
4.11896
4.06921
3.85547
3.73918
2.77516
2.21269
0.363662
3.54231
3.52936
3.55961
3.61233
3.67712
3.75564
3.83762
3.94502
4.04076
4.17467
4.27752
4.41227
4.50815
4.58752
4.64641
4.53583
4.49249
3.71853
3.28626
-0.380959
0.00196749
-0.00520607
-0.0132276
-0.0213633
-0.0244812
-0.0224735
-0.0166309
-0.0104903
-0.00416229
0.004098
0.00285162
-0.0159114
-0.0361055
-0.0563772
-0.0658292
-0.0627552
-0.0498261
-0.0347128
-0.0172826
0.00696599
-0.00250002
-0.0332725
-0.0629412
-0.0906068
-0.105655
-0.104552
-0.088731
-0.0671984
-0.0398963
-0.00175553
-0.00917959
-0.0544302
-0.0964276
-0.133564
-0.155676
-0.15792
-0.139705
-0.110234
-0.0717988
-0.0214482
-0.0247514
-0.0852845
-0.139348
-0.185687
-0.216446
-0.225617
-0.209472
-0.174387
-0.127682
-0.065911
-0.0476533
-0.126894
-0.197821
-0.257793
-0.30056
-0.319869
-0.306402
-0.264741
-0.206809
-0.131297
-0.0834174
-0.184622
-0.276534
-0.354419
-0.412015
-0.442882
-0.434966
-0.39028
-0.324074
-0.234211
-0.134853
-0.265429
-0.385857
-0.489261
-0.566957
-0.611976
-0.6082
-0.560593
-0.483995
-0.374181
-0.207137
-0.377771
-0.534763
-0.669786
-0.774201
-0.838208
-0.844789
-0.797807
-0.708779
-0.577188
-0.296329
-0.519243
-0.728062
-0.912255
-1.05765
-1.15228
-1.17392
-1.12699
-1.01692
-0.845742
-0.408621
-0.697267
-0.978213
-1.23636
-1.44473
-1.58514
-1.63246
-1.58817
-1.44843
-1.23054
-0.569294
-0.939522
-1.31503
-1.67899
-1.98646
-2.20476
-2.29904
-2.25119
-2.06372
-1.76354
-0.780165
-1.27972
-1.79241
-2.30682
-2.75711
-3.10763
-3.27833
-3.242
-2.9755
-2.54826
-1.00459
-1.71322
-2.44899
-3.20371
-3.8944
-4.46475
-4.76922
-4.74048
-4.33626
-3.67652
-1.2699
-2.27997
-3.35164
-4.47069
-5.5797
-6.53848
-7.06376
-7.05592
-6.41466
-5.36333
-1.67003
-3.03439
-4.56899
-6.27809
-8.12641
-9.66668
-10.4823
-10.4422
-9.47404
-7.79893
-2.09828
-3.80761
-5.85726
-8.40594
-11.4683
-13.8318
-14.9606
-14.6217
-12.9626
-10.3746
-2.00617
-3.74103
-5.89264
-8.36142
-12.3987
-15.5254
-17.2155
-16.9805
-15.177
-12.065
-1.04737
-1.87757
-4.30374
-6.92273
-10.3566
-13.2775
-14.9141
-14.9159
-13.4932
-10.6685
-3.85724
-2.82013
-4.53879
-5.05239
-7.67584
-10.5941
-12.4655
-12.9034
-12.2194
-10.4153
0.0280985
0.096605
0.14389
0.152004
0.134907
0.108485
0.0824601
0.06105
0.0450842
0.0335955
0.0253395
0.0193108
0.0148077
0.0113652
0.00867252
0.0065171
0.00474562
0.00324016
0.00190764
0.000635205
0.0739456
0.261533
0.392708
0.416241
0.369553
0.298203
0.229208
0.172385
0.129248
0.0974919
0.0741914
0.0568887
0.0438043
0.0337144
0.0257739
0.0193903
0.0141275
0.00964529
0.00567188
0.00188536
0.107187
0.400586
0.605736
0.646352
0.57938
0.471613
0.364741
0.276007
0.208408
0.158271
0.121118
0.0932676
0.0720404
0.0555695
0.042546
0.0320383
0.0233522
0.01594
0.0093604
0.00310554
0.126553
0.514193
0.783298
0.837552
0.754335
0.6207
0.485727
0.371255
0.282532
0.215913
0.166047
0.128351
0.0994206
0.0768477
0.0589219
0.0444099
0.0323823
0.0220996
0.0129608
0.00429265
0.127424
0.602589
0.931792
1.00626
0.911145
0.752959
0.593178
0.457359
0.350928
0.269995
0.208724
0.161974
0.125829
0.0974642
0.0748383
0.0564583
0.0411847
0.0281031
0.0164632
0.00544442
0.103672
0.664566
1.04742
1.13904
1.04034
0.867981
0.689553
0.535745
0.414037
0.320549
0.249062
0.194032
0.151174
0.117345
0.0902379
0.0681406
0.0497289
0.0339307
0.0198581
0.00655844
0.0544572
0.706192
1.15169
1.26093
1.15243
0.965298
0.772942
0.605637
0.471606
0.367446
0.286956
0.224433
0.175377
0.136425
0.105069
0.0794174
0.0579864
0.0395639
0.0231362
0.00763227
-0.0242937
0.716203
1.21764
1.35357
1.2462
1.05054
0.846477
0.668
0.52385
0.410687
0.322348
0.253106
0.19837
0.154647
0.119285
0.0902529
0.0659314
0.0449858
0.0262886
0.00866346
-0.140946
0.721326
1.28455
1.43496
1.32047
1.11946
0.908804
0.722719
0.570817
0.450277
0.355204
0.280001
0.220101
0.171962
0.132846
0.100615
0.0735401
0.0501805
0.0293072
0.00964965
-0.294562
0.669585
1.31103
1.49537
1.38377
1.17816
0.962009
0.770382
0.612694
0.486267
0.385516
0.305085
0.240529
0.188332
0.145716
0.110475
0.0807911
0.0551338
0.0321841
0.0105886
-0.494958
0.6422
1.33702
1.53997
1.42714
1.22293
1.00557
0.811175
0.649648
0.518735
0.4133
0.328341
0.259624
0.203722
0.157866
0.119807
0.0876651
0.0598325
0.0349125
0.0114783
-0.766029
0.501638
1.33076
1.57848
1.46388
1.25865
1.04091
0.845588
0.681907
0.547785
0.438592
0.349768
0.277368
0.218108
0.169269
0.128591
0.0941452
0.0642652
0.0374859
0.0123168
-1.05628
0.445314
1.31892
1.59132
1.48158
1.28245
1.0679
0.873928
0.709704
0.573546
0.461447
0.369379
0.293749
0.231471
0.179905
0.136806
0.100216
0.0684213
0.0398986
0.0131024
-1.46841
0.247039
1.28308
1.61721
1.4952
1.29803
1.08766
0.896684
0.733314
0.596167
0.481935
0.387196
0.308768
0.243797
0.189758
0.144437
0.105866
0.0722919
0.0421456
0.0138337
-1.76134
0.0926365
1.23117
1.59525
1.48592
1.30234
1.10017
0.914242
0.753022
0.615814
0.500139
0.403254
0.322428
0.25508
0.198815
0.151472
0.111082
0.075869
0.0442224
0.0145092
-2.14907
-0.227768
1.14922
1.58522
1.47455
1.29961
1.10668
0.92716
0.76915
0.632669
0.516153
0.417592
0.334744
0.265315
0.207066
0.157898
0.115856
0.0791457
0.0461251
0.015128
-2.14911
-0.524868
1.04956
1.53946
1.43697
1.28797
1.10753
0.93592
0.782027
0.646924
0.530079
0.430259
0.34573
0.274504
0.214505
0.163708
0.12018
0.0821163
0.0478506
0.0156889
-2.13774
-0.748235
0.957851
1.5041
1.40564
1.27131
1.104
0.941137
0.792006
0.658777
0.542023
0.441305
0.355407
0.282651
0.221128
0.168895
0.124047
0.0847758
0.0493959
0.0161911
-1.58234
-0.89862
0.881464
1.44162
1.35605
1.24768
1.09653
0.943348
0.799432
0.668428
0.552092
0.450784
0.363798
0.289761
0.226933
0.173455
0.127453
0.0871202
0.0507587
0.016634
-1.72126
-0.60337
0.774158
1.35727
1.30221
1.22269
1.08687
0.943271
0.804661
0.676072
0.560392
0.458749
0.370926
0.295842
0.231921
0.177384
0.130393
0.0891463
0.0519371
0.017017
-1.58349
-0.873504
0.694167
1.2681
1.24544
1.19469
1.07457
0.941213
0.808334
0.682471
0.567687
0.465903
0.377406
0.30141
0.236509
0.181009
0.133112
0.0910222
0.0530288
0.0173719
-1.47728
-0.593995
0.639613
1.18481
1.18979
1.16566
1.06061
0.937333
0.810131
0.687094
0.573391
0.47168
0.382727
0.30603
0.240341
0.184051
0.135399
0.0926036
0.0539501
0.0176715
-1.22772
-0.450675
0.594473
1.118
1.14345
1.14022
1.0475
0.932615
0.810189
0.689619
0.576983
0.475503
0.386338
0.309212
0.243006
0.186179
0.137007
0.0937177
0.0546002
0.017883
-1.29865
-0.375355
0.555677
1.06803
1.10826
1.11995
1.03641
0.927682
0.80889
0.690259
0.578578
0.477434
0.388271
0.31097
0.244508
0.187395
0.137933
0.0943634
0.0549784
0.0180063
-1.26974
-0.349424
0.525864
1.0342
1.08555
1.10594
1.02794
0.922974
0.806323
0.689152
0.578253
0.477517
0.388548
0.311317
0.244853
0.1877
0.138179
0.0945406
0.0550845
0.0180412
-1.46759
-0.362897
0.505807
1.01717
1.0761
1.09883
1.02251
0.918728
0.80295
0.686423
0.57607
0.475785
0.387188
0.310261
0.244046
0.187097
0.137746
0.09425
0.0549188
0.0179879
-1.77025
-0.450687
0.494055
1.01772
1.08008
1.09882
1.02024
0.914994
0.798628
0.682067
0.572033
0.472244
0.384196
0.307808
0.242092
0.18559
0.136636
0.0934932
0.0544823
0.0178466
-2.19144
-0.518276
0.502433
1.03708
1.09907
1.10593
1.02101
0.911654
0.793282
0.676036
0.566119
0.466886
0.379573
0.303961
0.238995
0.183182
0.134852
0.0922726
0.0537762
0.0176177
-2.78751
-0.71471
0.521613
1.07598
1.12998
1.11946
1.0243
0.908388
0.786712
0.668212
0.558272
0.459684
0.373309
0.29872
0.234758
0.179878
0.1324
0.0905914
0.0528024
0.0173017
-3.74532
-0.775981
0.574746
1.13532
1.17362
1.13852
1.02931
0.904678
0.778603
0.658416
0.5484
0.450595
0.365386
0.292083
0.229384
0.175685
0.129283
0.0884538
0.0515634
0.0168995
-4.04085
-0.775526
0.67783
1.20624
1.22095
1.15864
1.03421
0.900316
0.769612
0.647714
0.537684
0.440757
0.356824
0.284914
0.223583
0.171158
0.125919
0.0861456
0.050225
0.0164649
-4.8285
-1.07282
0.815189
1.27876
1.26664
1.17694
1.03784
0.895221
0.760214
0.636806
0.526874
0.430884
0.348256
0.277754
0.217796
0.166645
0.122566
0.0838447
0.0488906
0.0160313
-6.27215
-1.2943
0.894462
1.34829
1.31206
1.19483
1.04011
0.888408
0.74906
0.62425
0.514593
0.419745
0.33863
0.26973
0.21132
0.161599
0.118819
0.0812741
0.0473994
0.0155467
-7.14765
-1.33757
1.00634
1.41357
1.35151
1.20973
1.0399
0.879333
0.735863
0.609888
0.500761
0.407303
0.327932
0.260841
0.204159
0.156026
0.114683
0.0784378
0.0457537
0.0150117
-7.11987
-1.03092
1.13007
1.47724
1.38642
1.2204
1.03626
0.867455
0.720318
0.593557
0.485295
0.393521
0.316148
0.251085
0.19632
0.149934
0.110165
0.0753404
0.0439563
0.0144272
-5.8212
-0.645697
1.24146
1.52766
1.41108
1.22476
1.02818
0.852225
0.702115
0.57509
0.468111
0.378363
0.303269
0.240465
0.187807
0.14333
0.105272
0.071987
0.0420101
0.013794
-4.35659
-0.312518
1.31559
1.56961
1.42696
1.2224
1.01496
0.833135
0.680954
0.554325
0.449128
0.361795
0.289286
0.228985
0.178631
0.136224
0.100013
0.0683838
0.0399185
0.0131131
-2.9328
0.0401682
1.37263
1.56976
1.42372
1.21003
0.995476
0.809648
0.656541
0.531106
0.428273
0.343789
0.274194
0.21665
0.168802
0.128627
0.0943954
0.0645372
0.0376852
0.0123858
-1.95736
0.255294
1.40205
1.57337
1.41317
1.18941
0.96943
0.781341
0.628607
0.505288
0.405479
0.32432
0.257993
0.203472
0.158333
0.120551
0.088431
0.0604548
0.0353144
0.0116132
-1.23468
0.492312
1.41361
1.548
1.38393
1.15739
0.93579
0.747743
0.596897
0.476742
0.380689
0.303375
0.240687
0.189463
0.14724
0.112011
0.0821314
0.0561448
0.0328107
0.0107967
-0.745919
0.57869
1.3919
1.51164
1.34551
1.11601
0.894484
0.708525
0.561193
0.445357
0.35386
0.280946
0.222288
0.174643
0.135543
0.103025
0.0755099
0.0516163
0.030179
0.00993786
-0.40696
0.682594
1.36504
1.45692
1.28791
1.06145
0.844327
0.663249
0.521292
0.411043
0.324965
0.257037
0.202815
0.159033
0.123263
0.0936112
0.0685811
0.0468794
0.0274249
0.00903822
-0.177751
0.708001
1.29735
1.37937
1.21762
0.996355
0.785579
0.611708
0.477042
0.373737
0.293992
0.231665
0.182294
0.142662
0.110426
0.0837907
0.0613612
0.0419451
0.0245541
0.00809948
-0.0288399
0.716365
1.22514
1.28728
1.12797
0.915896
0.716595
0.553427
0.428291
0.333397
0.26095
0.204859
0.16076
0.125564
0.0970613
0.0735878
0.0538682
0.0368251
0.021573
0.00712345
0.062611
0.684483
1.11455
1.16492
1.01906
0.823072
0.638295
0.488453
0.374994
0.290023
0.225871
0.176661
0.138256
0.107779
0.0832031
0.0630288
0.0461214
0.0315324
0.0184883
0.00611198
0.109904
0.626033
0.98833
1.02765
0.892211
0.713597
0.548312
0.416077
0.317005
0.243626
0.188806
0.147129
0.114837
0.0893521
0.0688882
0.0521425
0.0381419
0.0260808
0.0153069
0.00506695
0.12357
0.538335
0.829624
0.854952
0.738523
0.5876
0.448054
0.336879
0.254527
0.194315
0.149842
0.11634
0.0905665
0.0703358
0.0541579
0.0409604
0.0299524
0.0204849
0.0120361
0.00399024
0.109554
0.421912
0.641093
0.658499
0.566104
0.445602
0.335736
0.249858
0.187277
0.142093
0.109058
0.0843783
0.065517
0.0507885
0.0390574
0.0295167
0.0215773
0.0147605
0.00868359
0.00288367
0.0765112
0.27607
0.415271
0.423472
0.360751
0.281465
0.210575
0.155625
0.1158
0.0872928
0.0666545
0.0513729
0.0397786
0.0307758
0.0236358
0.0178476
0.0130426
0.00892421
0.00525705
0.00174896
0.0288118
0.101661
0.151914
0.15458
0.131571
0.1021
0.0754168
0.0548514
0.040225
0.0299832
0.0227106
0.0174075
0.0134288
0.0103637
0.00794632
0.00599424
0.0043783
0.002996
0.00176684
0.000588768
-5.4476
-3.24868
-3.53427
-0.775233
-1.25908
-1.75573
-3.67158
-5.87665
-7.92558
-9.07615
-2.13368
-2.73381
-2.22823
-0.520407
-1.04419
-2.08554
-4.45115
-7.15039
-9.3099
-9.87133
-0.424477
-0.953411
-0.275275
0.574256
-0.816192
-3.00202
-6.21165
-9.39887
-12.1538
-12.4771
0.196559
-0.485737
-0.526265
-0.595153
-1.42519
-3.7661
-7.53834
-10.8037
-13.4605
-13.8695
0.250438
-0.410882
-0.90896
-1.27616
-2.39138
-4.3588
-7.53724
-10.2577
-12.2217
-12.6921
0.184151
-0.390558
-1.00275
-1.49506
-2.51048
-3.87941
-5.79395
-7.61366
-8.75617
-9.04746
0.184783
-0.295606
-0.825697
-1.32564
-2.01577
-2.87826
-3.92229
-5.04131
-5.73109
-5.93485
0.238435
-0.164375
-0.584598
-1.02773
-1.47909
-2.03968
-2.62612
-3.26849
-3.67098
-3.778
0.280133
-0.0524865
-0.378902
-0.750503
-1.09044
-1.48264
-1.8542
-2.20253
-2.41589
-2.44656
0.291572
0.0206275
-0.235758
-0.529601
-0.795251
-1.0639
-1.30099
-1.48882
-1.5978
-1.59086
0.289855
0.0750129
-0.125536
-0.349346
-0.554356
-0.74385
-0.902575
-1.00676
-1.06214
-1.03054
0.28571
0.112687
-0.0493473
-0.219651
-0.377033
-0.514762
-0.621205
-0.678722
-0.698643
-0.657776
0.271491
0.129757
-0.00266861
-0.133845
-0.252935
-0.353283
-0.422655
-0.448743
-0.447044
-0.397618
0.24643
0.134137
0.0295131
-0.0714804
-0.162533
-0.235896
-0.281597
-0.289371
-0.274503
-0.225771
0.218821
0.131378
0.0488308
-0.0317213
-0.103249
-0.157801
-0.185156
-0.17979
-0.156606
-0.107543
0.185968
0.118031
0.0539383
-0.00955014
-0.0643264
-0.101928
-0.116133
-0.10543
-0.0817595
-0.0382751
0.150609
0.0985413
0.0487928
-0.00176125
-0.0433733
-0.0671053
-0.0701613
-0.0564447
-0.0329794
0.00524318
0.109867
0.0730234
0.0372211
-0.000233441
-0.0286544
-0.0411532
-0.0387849
-0.0275649
-0.00927067
0.0207084
0.0699493
0.0475112
0.0236053
-0.00307327
-0.0203275
-0.0253023
-0.0203801
-0.0120565
0.000935943
0.0224302
0.0247559
0.0163137
0.0067671
-0.00421385
-0.0102534
-0.0112073
-0.00731324
-0.00334632
0.00199775
0.00989456
3.5634
3.56758
3.59396
3.64676
3.71867
3.7951
3.90105
3.9914
4.132
4.23113
4.3958
4.49317
4.64703
4.71621
4.82294
4.72909
4.77143
3.88355
3.40881
-0.358164
3.42752
3.42347
3.44517
3.49649
3.55373
3.62701
3.70904
3.79008
3.90214
3.97319
4.11645
4.14429
4.29335
4.2324
4.36256
4.01876
4.07359
3.03448
2.35367
0.49466
3.27531
3.26724
3.28821
3.32942
3.37731
3.44215
3.50368
3.57781
3.65808
3.7118
3.82641
3.80056
3.94567
3.77174
3.90618
3.46748
3.37095
2.66717
1.75924
1.3371
3.1109
3.10123
3.12368
3.14852
3.19652
3.2379
3.29565
3.34333
3.41425
3.43721
3.53645
3.46411
3.5876
3.3744
3.41993
3.06382
2.72199
2.43125
1.53094
1.46331
2.93922
2.92739
2.94768
2.96066
3.0122
3.02516
3.08812
3.09476
3.17021
3.15378
3.23829
3.14852
3.20942
3.03343
2.93984
2.73852
2.31907
2.22432
1.41618
1.19705
2.76243
2.74557
2.75995
2.77115
2.81823
2.81768
2.87299
2.85423
2.91647
2.88116
2.92689
2.8539
2.83049
2.73331
2.57027
2.47186
2.04606
1.98105
1.23641
0.978454
2.58077
2.56089
2.56593
2.58125
2.61209
2.61613
2.64573
2.6288
2.65504
2.62932
2.62764
2.58641
2.51675
2.46183
2.26617
2.21686
1.80542
1.70434
1.06947
0.797248
2.39271
2.37832
2.37175
2.38887
2.40356
2.41402
2.42223
2.41273
2.41198
2.39676
2.36701
2.3451
2.24884
2.21646
2.00834
1.95973
1.6004
1.45102
0.974204
0.665945
2.19803
2.19644
2.18253
2.19622
2.19803
2.21235
2.20381
2.20687
2.18405
2.18468
2.13282
2.12241
2.01281
1.97843
1.78759
1.71046
1.42844
1.23754
0.898992
0.586836
1.99988
2.01171
1.99705
2.00478
1.99694
2.0125
1.99377
2.00532
1.9708
1.9761
1.91553
1.90027
1.79702
1.74488
1.58812
1.47911
1.2667
1.06277
0.808852
0.52753
1.80215
1.82398
1.81104
1.81397
1.79979
1.81433
1.79267
1.80267
1.76637
1.76452
1.70818
1.67873
1.59298
1.52135
1.39694
1.27418
1.10856
0.923043
0.718027
0.48046
1.60707
1.63303
1.62265
1.62256
1.6064
1.61559
1.59608
1.59894
1.56666
1.55293
1.50677
1.46414
1.39414
1.31614
1.21417
1.09853
0.961002
0.802922
0.63611
0.443136
1.41479
1.43955
1.43244
1.42976
1.41485
1.41673
1.40162
1.39605
1.36994
1.34646
1.30925
1.26232
1.20153
1.12937
1.04298
0.941122
0.825793
0.693799
0.556319
0.402456
1.22451
1.24458
1.24113
1.2365
1.22402
1.21922
1.20819
1.19692
1.17578
1.14864
1.11621
1.07279
1.0185
0.955817
0.883189
0.795868
0.699292
0.590753
0.475909
0.352751
1.03576
1.04967
1.04882
1.04354
1.03383
1.02473
1.01597
1.00299
0.984508
0.959324
0.929847
0.89205
0.845389
0.793351
0.73352
0.658519
0.576453
0.489992
0.398526
0.302537
0.847715
0.855856
0.856268
0.851546
0.843999
0.833521
0.826095
0.81407
0.796944
0.776627
0.751182
0.718621
0.680207
0.638699
0.590741
0.527906
0.45972
0.39418
0.32512
0.251851
0.659679
0.663649
0.664231
0.660641
0.654987
0.645158
0.638683
0.629305
0.614281
0.598642
0.578249
0.551085
0.5216
0.490624
0.453753
0.403433
0.348368
0.300337
0.252816
0.200955
0.471317
0.472996
0.473357
0.470719
0.466857
0.459357
0.453939
0.447263
0.435491
0.424283
0.409428
0.388907
0.368542
0.346875
0.319754
0.283127
0.243505
0.211384
0.180689
0.145838
0.282749
0.283353
0.28364
0.281902
0.279628
0.275098
0.271207
0.267069
0.259919
0.253448
0.243516
0.229845
0.219052
0.207434
0.190381
0.166962
0.141801
0.123392
0.10799
0.0905884
0.0942345
0.0942873
0.0945462
0.0939871
0.0929679
0.0914604
0.0903838
0.088923
0.0861575
0.0840247
0.0803791
0.0757479
0.0730671
0.0693001
0.0626115
0.054057
0.04529
0.0400176
0.0363391
0.031913
3.68379
3.68733
3.71701
3.77722
3.8502
3.94349
4.0468
4.17086
4.30699
4.45396
4.63013
4.77164
4.98621
5.08098
5.31819
5.28606
5.49254
5.14701
5.53609
2.90924
3.80683
3.83283
3.86726
3.9296
4.01176
4.11614
4.24249
4.38376
4.55221
4.72934
4.9426
5.14804
5.39095
5.62073
5.85585
6.07518
6.23604
6.34639
6.31661
6.27462
3.90904
3.93971
3.98319
4.04909
4.13982
4.25412
4.39515
4.55784
4.74333
4.95865
5.19085
5.45747
5.72323
6.04274
6.31424
6.6584
6.89124
7.14448
7.29696
7.18098
3.99074
4.01053
4.05954
4.13167
4.22963
4.35128
4.5025
4.67938
4.88063
5.11541
5.37545
5.6616
5.97954
6.31108
6.66978
7.013
7.36815
7.66266
7.88228
7.99835
4.02717
4.05095
4.09985
4.17639
4.27733
4.4035
4.56057
4.7435
4.95546
5.19869
5.47339
5.77288
6.10731
6.46263
6.83626
7.21482
7.5734
7.89141
8.09855
8.21435
4.03018
4.05416
4.10291
4.18027
4.28109
4.40846
4.56488
4.75023
4.96092
5.20795
5.48066
5.78508
6.11659
6.47468
6.84598
7.21909
7.59862
7.91075
8.23397
8.33611
3.99926
4.01904
4.06884
4.14237
4.24155
4.36352
4.51769
4.694
4.90166
5.13367
5.40364
5.68714
6.01583
6.35147
6.70934
7.0717
7.39483
7.74202
7.89139
8.12072
3.9249
3.95264
3.99905
4.06721
4.15796
4.27564
4.41677
4.58607
4.77246
4.99396
5.23469
5.49968
5.79243
6.09503
6.42262
6.73942
7.08825
7.31644
7.61198
7.29342
3.82317
3.85203
3.8922
3.95293
4.03722
4.14474
4.27233
4.42558
4.58681
4.78992
4.98722
5.22853
5.4599
5.72036
5.97395
6.20691
6.40959
6.54057
6.46449
6.58859
3.69905
3.71541
3.74865
3.80221
3.88414
3.97249
4.09264
4.2118
4.36144
4.51864
4.68917
4.87343
5.04955
5.23249
5.39067
5.4891
5.59782
5.38638
5.85263
2.61968
)
;

boundaryField
{
    inlet
    {
        type            zeroGradient;
    }
    outlet
    {
        type            fixedValue;
        value           uniform 0;
    }
    upAndBottom
    {
        type            empty;
    }
    obstacle
    {
        type            zeroGradient;
    }
}


// ************************************************************************* //
