x,y,z,U_0,U_1,U_2
0,0,0,2.99998,-0.00510895,0
0,0.1,0,2.99999,-0.00306537,0
0,0.2,0,3,-0.00102179,0
0,0.3,0,3,0,0
0,0.4,0,3,0,0
0,0.5,0,3,0,0
0,0.6,0,3,0,0
0,0.7,0,3,0,0
0,0.8,0,3,0,0
0,0.9,0,3,0,0
0,1,0,3,0,0
0,1.1,0,3,0,0
0,1.2,0,3,0,0
0,1.3,0,3,0,0
0,1.4,0,3,0,0
0,1.5,0,3,0,0
0,1.6,0,3,0,0
0,1.7,0,3,0,0
0,1.8,0,3,0,0
0,1.9,0,3,0,0
0,2,0,3,0,0
0,2.1,0,3,0,0
0,2.2,0,3,0,0
0,2.3,0,3,0,0
0,2.4,0,3,0,0
0,2.5,0,3,0,0
0,2.6,0,3,0,0
0,2.7,0,3,0,0
0,2.8,0,3,0,0
0,2.9,0,3,0,0
0,3,0,3,0,0
0,3.1,0,3,0,0
0,3.2,0,3,0,0
0,3.3,0,3,0,0
0,3.4,0,3,0,0
0,3.5,0,3,0,0
0,3.6,0,3,0,0
0,3.7,0,3,0,0
0,3.8,0,3,0,0
0,3.9,0,3,0,0
0,4,0,3,0,0
0,4.1,0,3,0,0
0,4.2,0,3,0,0
0,4.3,0,3,0,0
0,4.4,0,3,0,0
0,4.5,0,3,0,0
0,4.6,0,3,0,0
0,4.7,0,3,0,0
0,4.8,0,3,0,0
0,4.9,0,3,0,0
0,5,0,3,0,0
0,5.1,0,3,0,0
0,5.2,0,3,0,0
0,5.3,0,3,0,0
0,5.4,0,3,0,0
0,5.5,0,3,0,0
0,5.6,0,3,0,0
0,5.7,0,3,0,0
0,5.8,0,3,0,0
0,5.9,0,3,0,0
0,6,0,3,0,0
0,6.1,0,3,0,0
0,6.2,0,3,0,0
0,6.3,0,3,0,0
0,6.4,0,3,0,0
0,6.5,0,3,0,0
0,6.6,0,3,0,0
0,6.7,0,3,0,0
0,6.8,0,3,0,0
0,6.9,0,3,0,0
0,7,0,3,0,0
0,7.1,0,3,0,0
0,7.2,0,3,0,0
0,7.3,0,3,0,0
0,7.4,0,3,0,0
0,7.5,0,3,0,0
0,7.6,0,3,0,0
0,7.7,0,3,0,0
0,7.8,0,3,0,0
0,7.9,0,3,0,0
0,8,0,3,0,0
0,8.1,0,3,0,0
0,8.2,0,3,0,0
0,8.3,0,3,0,0
0,8.4,0,3,0,0
0,8.5,0,3,0,0
0,8.6,0,3,0,0
0,8.7,0,3,0,0
0,8.8,0,3,0,0
0,8.9,0,3,0,0
0,9,0,3,0,0
0,9.1,0,3,0,0
0,9.2,0,3,0,0
0,9.3,0,3,0,0
0,9.4,0,3,0,0
0,9.5,0,3,0,0
0,9.6,0,3,0,0
0,9.7,0,3,0,0
0,9.8,0,3,0,0
0,9.9,0,3,0,0
0,10,0,3,0,0
0,10.1,0,3,0,0
0,10.2,0,3,0,0
0,10.3,0,3,0,0
0,10.4,0,3,0,0
0,10.5,0,3,0,0
0,10.6,0,3,0,0
0,10.7,0,3,0,0
0,10.8,0,3,0,0
0,10.9,0,3,0,0
0,11,0,3,0,0
0,11.1,0,3,0,0
0,11.2,0,3,0,0
0,11.3,0,3,0,0
0,11.4,0,3,0,0
0,11.5,0,3,0,0
0,11.6,0,3,0,0
0,11.7,0,3,0,0
0,11.8,0,3,0,0
0,11.9,0,3,0,0
0,12,0,3,0,0
0,12.1,0,3,0,0
0,12.2,0,3,0,0
0,12.3,0,3,0,0
0,12.4,0,3,0,0
0,12.5,0,2.99998,0.0012364,0
0,12.6,0,2.99996,0.00269098,0
0,12.7,0,2.99994,0.00414557,0
0.1,0,0,3.00003,-0.0113297,0
0.1,0.1,0,2.99997,-0.00919611,0
0.1,0.2,0,3.00001,-0.0082217,0
0.1,0.3,0,3.00006,-0.00829834,0
0.1,0.4,0,3.00008,-0.0083276,0
0.1,0.5,0,3.00005,-0.00827311,0
0.1,0.6,0,3.00019,-0.00843168,0
0.1,0.7,0,3.00012,-0.00835325,0
0.1,0.8,0,3.00016,-0.00840145,0
0.1,0.9,0,3.00028,-0.00852808,0
0.1,1,0,3.00002,-0.00827574,0
0.1,1.1,0,3.00034,-0.00857256,0
0.1,1.2,0,3.00016,-0.00842334,0
0.1,1.3,0,3.00015,-0.00839578,0
0.1,1.4,0,3.0003,-0.00851744,0
0.1,1.5,0,2.99994,-0.00827496,0
0.1,1.6,0,3.0002,-0.00833592,0
0.1,1.7,0,3.00005,-0.00830784,0
0.1,1.8,0,2.99998,-0.00813338,0
0.1,1.9,0,3.00006,-0.007987,0
0.1,2,0,2.99987,-0.00828682,0
0.1,2.1,0,3.00001,-0.00746957,0
0.1,2.2,0,2.99993,-0.00787828,0
0.1,2.3,0,3.00005,-0.00752848,0
0.1,2.4,0,3.00025,-0.00676998,0
0.1,2.5,0,2.99984,-0.00826781,0
0.1,2.6,0,3.00102,-0.00586587,0
0.1,2.7,0,3.00042,-0.0070394,0
0.1,2.8,0,3.00121,-0.00646719,0
0.1,2.9,0,3.0026,-0.00472145,0
0.1,3,0,2.99973,-0.00809757,0
0.1,3.1,0,3.00537,-0.00326154,0
0.1,3.2,0,3.00246,-0.00557301,0
0.1,3.3,0,3.00453,-0.00455691,0
0.1,3.4,0,3.00951,-0.00122934,0
0.1,3.5,0,2.9992,-0.00757342,0
0.1,3.6,0,3.01442,0.00215272,0
0.1,3.7,0,3.00654,-0.00256458,0
0.1,3.8,0,3.00846,0.000546985,0
0.1,3.9,0,3.01826,0.00837584,0
0.1,4,0,2.99809,-0.00719258,0
0.1,4.1,0,3.0197,0.0183471,0
0.1,4.2,0,3.00869,0.00547231,0
0.1,4.3,0,3.00952,0.0117557,0
0.1,4.4,0,3.02135,0.0309138,0
0.1,4.5,0,2.99763,-0.00778102,0
0.1,4.6,0,3.03007,0.0435634,0
0.1,4.7,0,3.01397,0.0178527,0
0.1,4.8,0,3.02381,0.0220156,0
0.1,4.9,0,3.04976,0.051889,0
0.1,5,0,2.99823,-0.00736869,0
0.1,5.1,0,2.99868,-0.00665472,0
0.1,5.2,0,2.99901,-0.00618846,0
0.1,5.3,0,2.99914,-0.00565371,0
0.1,5.4,0,2.99898,-0.00504558,0
0.1,5.5,0,2.99865,-0.00440527,0
0.1,5.6,0,2.99843,-0.00380008,0
0.1,5.7,0,2.99866,-0.00328283,0
0.1,5.8,0,2.99938,-0.00285565,0
0.1,5.9,0,3.00034,-0.00246882,0
0.1,6,0,3.00125,-0.00205623,0
0.1,6.1,0,3.00191,-0.0015753,0
0.1,6.2,0,3.00235,-0.00101977,0
0.1,6.3,0,3.00263,-0.00040756,0
0.1,6.4,0,3.00281,0.00023542,0
0.1,6.5,0,3.00292,0.000883729,0
0.1,6.6,0,3.00299,0.00151422,0
0.1,6.7,0,3.00304,0.00210253,0
0.1,6.8,0,3.00313,0.00261974,0
0.1,6.9,0,3.00322,0.0030092,0
0.1,7,0,3.00255,0.00373658,0
0.1,7.1,0,3.07833,-0.0285234,0
0.1,7.2,0,3.06664,-0.0233096,0
0.1,7.3,0,3.01953,-0.00310385,0
0.1,7.4,0,3.13997,-0.0579759,0
0.1,7.5,0,3.08609,-0.0328156,0
0.1,7.6,0,3.03167,-0.0148693,0
0.1,7.7,0,3.11931,-0.0766976,0
0.1,7.8,0,3.05739,-0.0321396,0
0.1,7.9,0,3.03212,-0.0321167,0
0.1,8,0,3.0819,-0.095772,0
0.1,8.1,0,3.02779,-0.026516,0
0.1,8.2,0,3.02793,-0.0449248,0
0.1,8.3,0,3.05438,-0.0951848,0
0.1,8.4,0,3.00997,-0.0122437,0
0.1,8.5,0,3.02338,-0.0512982,0
0.1,8.6,0,3.03545,-0.0804208,0
0.1,8.7,0,3.00045,0.00209977,0
0.1,8.8,0,3.01793,-0.0490043,0
0.1,8.9,0,3.0191,-0.0524408,0
0.1,9,0,2.99775,0.00705025,0
0.1,9.1,0,3.0123,-0.0422993,0
0.1,9.2,0,3.00881,-0.0301551,0
0.1,9.3,0,2.99916,0.00197993,0
0.1,9.4,0,3.00682,-0.030404,0
0.1,9.5,0,3.00312,-0.0137255,0
0.1,9.6,0,2.99969,0.000320328,0
0.1,9.7,0,3.00302,-0.0179143,0
0.1,9.8,0,3.00068,-0.00331782,0
0.1,9.9,0,2.99996,0.000455025,0
0.1,10,0,3.00139,-0.00931224,0
0.1,10.1,0,2.99994,0.00262477,0
0.1,10.2,0,3.00024,0.00124887,0
0.1,10.3,0,3.00094,-0.0037751,0
0.1,10.4,0,2.99981,0.0057905,0
0.1,10.5,0,3.00048,0.00219221,0
0.1,10.6,0,3.00078,0.000426562,0
0.1,10.7,0,2.99976,0.00741106,0
0.1,10.8,0,3.00056,0.00312729,0
0.1,10.9,0,3.00053,0.00335454,0
0.1,11,0,2.99986,0.00734682,0
0.1,11.1,0,3.00049,0.00400012,0
0.1,11.2,0,3.0003,0.00513941,0
0.1,11.3,0,2.99998,0.00702587,0
0.1,11.4,0,3.00038,0.0050255,0
0.1,11.5,0,3.00016,0.00619423,0
0.1,11.6,0,3.00003,0.00689488,0
0.1,11.7,0,3.00023,0.0057887,0
0.1,11.8,0,3.00008,0.00676778,0
0.1,11.9,0,3.00005,0.00685108,0
0.1,12,0,3.00014,0.00625546,0
0.1,12.1,0,3.00004,0.00705242,0
0.1,12.2,0,3.00002,0.0068391,0
0.1,12.3,0,3.00002,0.00652611,0
0.1,12.4,0,3.00002,0.0071863,0
0.1,12.5,0,2.99994,0.00677762,0
0.1,12.6,0,2.99991,0.00771789,0
0.1,12.7,0,3,0.00975152,0
0.2,0,0,3.00008,-0.0175503,0
0.2,0.1,0,3.00005,-0.016486,0
0.2,0.2,0,3.00006,-0.0164908,0
0.2,0.3,0,3.00011,-0.0165674,0
0.2,0.4,0,3.00011,-0.0165715,0
0.2,0.5,0,3.0001,-0.0165462,0
0.2,0.6,0,3.00017,-0.0166264,0
0.2,0.7,0,3.00016,-0.0166281,0
0.2,0.8,0,3.0002,-0.0166763,0
0.2,0.9,0,3.00018,-0.0166772,0
0.2,1,0,3.00004,-0.0165515,0
0.2,1.1,0,3.00018,-0.0166991,0
0.2,1.2,0,3.00015,-0.0166974,0
0.2,1.3,0,3.00013,-0.0166699,0
0.2,1.4,0,3.00009,-0.0166707,0
0.2,1.5,0,2.99989,-0.0165499,0
0.2,1.6,0,3,-0.0165828,0
0.2,1.7,0,2.99995,-0.0165876,0
0.2,1.8,0,2.99988,-0.0164131,0
0.2,1.9,0,2.99985,-0.0164202,0
0.2,2,0,2.99974,-0.0165736,0
0.2,2.1,0,2.9998,-0.0161651,0
0.2,2.2,0,2.99978,-0.0161653,0
0.2,2.3,0,2.9999,-0.0158155,0
0.2,2.4,0,2.99989,-0.0157963,0
0.2,2.5,0,2.99968,-0.0165356,0
0.2,2.6,0,3.00026,-0.0153072,0
0.2,2.7,0,3.00023,-0.0152523,0
0.2,2.8,0,3.00102,-0.0146801,0
0.2,2.9,0,3.00094,-0.0145648,0
0.2,3,0,2.99947,-0.0161951,0
0.2,3.1,0,3.00219,-0.0136706,0
0.2,3.2,0,3.00201,-0.0134575,0
0.2,3.3,0,3.00408,-0.0124414,0
0.2,3.4,0,3.00373,-0.0121303,0
0.2,3.5,0,2.9984,-0.0151468,0
0.2,3.6,0,3.00574,-0.010138,0
0.2,3.7,0,3.00521,-0.00984645,0
0.2,3.8,0,3.00713,-0.00673489,0
0.2,3.9,0,3.00655,-0.0066456,0
0.2,4,0,2.99618,-0.0143852,0
0.2,4.1,0,3.00678,-0.00172027,0
0.2,4.2,0,3.00638,-0.00193018,0
0.2,4.3,0,3.00721,0.00435318,0
0.2,4.4,0,3.00715,0.00397465,0
0.2,4.5,0,2.99525,-0.015562,0
0.2,4.6,0,3.0116,0.0100717,0
0.2,4.7,0,3.01184,0.0099948,0
0.2,4.8,0,3.02168,0.0141576,0
0.2,4.9,0,3.02205,0.0146469,0
0.2,5,0,2.99647,-0.0147374,0
0.2,5.1,0,2.99736,-0.0133094,0
0.2,5.2,0,2.99802,-0.0123769,0
0.2,5.3,0,2.99829,-0.0113074,0
0.2,5.4,0,2.99797,-0.0100912,0
0.2,5.5,0,2.99729,-0.00881054,0
0.2,5.6,0,2.99687,-0.00760016,0
0.2,5.7,0,2.99732,-0.00656566,0
0.2,5.8,0,2.99875,-0.0057113,0
0.2,5.9,0,3.00069,-0.00493764,0
0.2,6,0,3.00249,-0.00411246,0
0.2,6.1,0,3.00383,-0.0031506,0
0.2,6.2,0,3.0047,-0.00203954,0
0.2,6.3,0,3.00526,-0.00081512,0
0.2,6.4,0,3.00561,0.00047084,0
0.2,6.5,0,3.00583,0.00176746,0
0.2,6.6,0,3.00597,0.00302844,0
0.2,6.7,0,3.00608,0.00420505,0
0.2,6.8,0,3.00626,0.00523948,0
0.2,6.9,0,3.00645,0.0060184,0
0.2,7,0,3.0051,0.00747315,0
0.2,7.1,0,3.04782,-0.0103593,0
0.2,7.2,0,3.0467,-0.00906669,0
0.2,7.3,0,3.02081,0.00210625,0
0.2,7.4,0,3.07144,-0.0201542,0
0.2,7.5,0,3.07065,-0.018398,0
0.2,7.6,0,3.03205,-0.00765711,0
0.2,7.7,0,3.05976,-0.0261311,0
0.2,7.8,0,3.05705,-0.022742,0
0.2,7.9,0,3.03178,-0.0227191,0
0.2,8,0,3.03958,-0.0326147,0
0.2,8.1,0,3.02634,-0.0155964,0
0.2,8.2,0,3.02498,-0.0312095,0
0.2,8.3,0,3.02406,-0.0310912,0
0.2,8.4,0,3.00746,-0.00118927,0
0.2,8.5,0,3.01458,-0.0253901,0
0.2,8.6,0,3.0141,-0.0260064,0
0.2,8.7,0,2.9974,0.0124516,0
0.2,8.8,0,3.00721,-0.01713,0
0.2,8.9,0,3.00727,-0.0178617,0
0.2,9,0,2.99476,0.016568,0
0.2,9.1,0,3.00255,-0.00936648,0
0.2,9.2,0,3.003,-0.00993455,0
0.2,9.3,0,2.99669,0.0108501,0
0.2,9.4,0,3.00008,-0.00215718,0
0.2,9.5,0,3.00068,-0.00257048,0
0.2,9.6,0,2.9979,0.0087193,0
0.2,9.7,0,2.99927,0.00342695,0
0.2,9.8,0,2.99953,0.00476788,0
0.2,9.9,0,2.99881,0.00854072,0
0.2,10,0,2.99934,0.00733181,0
0.2,10.1,0,2.99925,0.0105381,0
0.2,10.2,0,2.99945,0.00997629,0
0.2,10.3,0,2.99968,0.00989946,0
0.2,10.4,0,2.99938,0.0136162,0
0.2,10.5,0,2.99982,0.0116244,0
0.2,10.6,0,2.99995,0.011567,0
0.2,10.7,0,2.99948,0.0151713,0
0.2,10.8,0,2.99996,0.0127145,0
0.2,10.9,0,3.00004,0.0126454,0
0.2,11,0,2.99967,0.0150283,0
0.2,11.1,0,2.99999,0.0134118,0
0.2,11.2,0,3.00005,0.0133296,0
0.2,11.3,0,2.99985,0.0146137,0
0.2,11.4,0,3.00003,0.0138378,0
0.2,11.5,0,3.00008,0.0137545,0
0.2,11.6,0,2.99996,0.0143877,0
0.2,11.7,0,3.00004,0.0140706,0
0.2,11.8,0,3.00005,0.0141741,0
0.2,11.9,0,3.00002,0.0142574,0
0.2,12,0,3.00006,0.0141777,0
0.2,12.1,0,3.00004,0.0143895,0
0.2,12.2,0,3.00002,0.0142628,0
0.2,12.3,0,3.00004,0.0142184,0
0.2,12.4,0,3.00005,0.0144726,0
0.2,12.5,0,2.99999,0.0142261,0
0.2,12.6,0,3,0.0142067,0
0.2,12.7,0,3.00005,0.0153575,0
0.3,0,0,3.00009,-0.0247283,0
0.3,0.1,0,3.00016,-0.0248402,0
0.3,0.2,0,3.00017,-0.024845,0
0.3,0.3,0,3.00013,-0.0247876,0
0.3,0.4,0,3.00014,-0.0247916,0
0.3,0.5,0,3.00011,-0.0247514,0
0.3,0.6,0,3.00007,-0.0247394,0
0.3,0.7,0,3.00006,-0.0247411,0
0.3,0.8,0,2.99999,-0.0247027,0
0.3,0.9,0,2.99997,-0.0247037,0
0.3,1,0,3.00005,-0.0247928,0
0.3,1.1,0,2.99986,-0.0246749,0
0.3,1.2,0,2.99982,-0.0246733,0
0.3,1.3,0,2.99976,-0.0247005,0
0.3,1.4,0,2.99972,-0.0247013,0
0.3,1.5,0,2.9999,-0.0248418,0
0.3,1.6,0,2.99964,-0.0247987,0
0.3,1.7,0,2.9996,-0.0248035,0
0.3,1.8,0,2.99959,-0.0249934,0
0.3,1.9,0,2.99956,-0.0250005,0
0.3,2,0,2.99971,-0.0248964,0
0.3,2.1,0,2.9995,-0.0252756,0
0.3,2.2,0,2.99948,-0.0252757,0
0.3,2.3,0,2.99934,-0.0256134,0
0.3,2.4,0,2.99933,-0.0255943,0
0.3,2.5,0,2.99953,-0.0248148,0
0.3,2.6,0,2.99891,-0.0259446,0
0.3,2.7,0,2.99889,-0.0258897,0
0.3,2.8,0,2.99801,-0.0263071,0
0.3,2.9,0,2.99793,-0.0261917,0
0.3,3,0,2.99911,-0.0242965,0
0.3,3.1,0,2.99618,-0.0264509,0
0.3,3.2,0,2.99599,-0.0262378,0
0.3,3.3,0,2.99341,-0.0267081,0
0.3,3.4,0,2.99306,-0.026397,0
0.3,3.5,0,2.99762,-0.0228453,0
0.3,3.6,0,2.98928,-0.0270884,0
0.3,3.7,0,2.98875,-0.0267968,0
0.3,3.8,0,2.98561,-0.0294406,0
0.3,3.9,0,2.98503,-0.0293513,0
0.3,4,0,2.99453,-0.0214658,0
0.3,4.1,0,2.9827,-0.0345079,0
0.3,4.2,0,2.98231,-0.0347178,0
0.3,4.3,0,2.98099,-0.0417301,0
0.3,4.4,0,2.98093,-0.0421087,0
0.3,4.5,0,2.99336,-0.0216821,0
0.3,4.6,0,2.9769,-0.0494463,0
0.3,4.7,0,2.97714,-0.0495232,0
0.3,4.8,0,2.96802,-0.0532085,0
0.3,4.9,0,2.96838,-0.0527193,0
0.3,5,0,2.99583,-0.0192477,0
0.3,5.1,0,2.99721,-0.017231,0
0.3,5.2,0,2.99808,-0.0159452,0
0.3,5.3,0,2.99845,-0.0145037,0
0.3,5.4,0,2.99822,-0.0128872,0
0.3,5.5,0,2.99775,-0.0111821,0
0.3,5.6,0,2.99766,-0.00954799,0
0.3,5.7,0,2.99849,-0.00812393,0
0.3,5.8,0,3.00023,-0.00693425,0
0.3,5.9,0,3.0023,-0.00586944,0
0.3,6,0,3.00407,-0.00476311,0
0.3,6.1,0,3.00528,-0.00349634,0
0.3,6.2,0,3.00604,-0.00204135,0
0.3,6.3,0,3.00651,-0.00043648,0
0.3,6.4,0,3.00683,0.00125582,0
0.3,6.5,0,3.00706,0.0029729,0
0.3,6.6,0,3.00725,0.0046585,0
0.3,6.7,0,3.00746,0.00625588,0
0.3,6.8,0,3.00782,0.00770093,0
0.3,6.9,0,3.00832,0.00886777,0
0.3,7,0,3.00785,0.010778,0
0.3,7.1,0,2.96279,0.0311773,0
0.3,7.2,0,2.96168,0.0324699,0
0.3,7.3,0,2.98686,0.0234247,0
0.3,7.4,0,2.93268,0.0501654,0
0.3,7.5,0,2.93189,0.0519216,0
0.3,7.6,0,2.97092,0.0434798,0
0.3,7.7,0,2.94074,0.0670717,0
0.3,7.8,0,2.94227,0.0673713,0
0.3,7.9,0,2.96622,0.0706207,0
0.3,8,0,2.95602,0.0842425,0
0.3,8.1,0,2.96777,0.068262,0
0.3,8.2,0,2.96642,0.0865685,0
0.3,8.3,0,2.9655,0.0866868,0
0.3,8.4,0,2.98109,0.0544345,0
0.3,8.5,0,2.97187,0.0799559,0
0.3,8.6,0,2.9714,0.0793396,0
0.3,8.7,0,2.98819,0.0371078,0
0.3,8.8,0,2.97735,0.0674855,0
0.3,8.9,0,2.97741,0.0667538,0
0.3,9,0,2.99098,0.0293285,0
0.3,9.1,0,2.98335,0.0556623,0
0.3,9.2,0,2.9838,0.0550943,0
0.3,9.3,0,2.99145,0.0326797,0
0.3,9.4,0,2.98899,0.0454393,0
0.3,9.5,0,2.98958,0.045026,0
0.3,9.6,0,2.99365,0.03287,0
0.3,9.7,0,2.99337,0.0377446,0
0.3,9.8,0,2.99421,0.0358484,0
0.3,9.9,0,2.99591,0.0316686,0
0.3,10,0,2.9962,0.0325835,0
0.3,10.1,0,2.99702,0.0290909,0
0.3,10.2,0,2.99746,0.0294652,0
0.3,10.3,0,2.99769,0.0293884,0
0.3,10.4,0,2.99836,0.0255271,0
0.3,10.5,0,2.99828,0.0274155,0
0.3,10.6,0,2.9984,0.0273581,0
0.3,10.7,0,2.99907,0.0235967,0
0.3,10.8,0,2.99876,0.0259658,0
0.3,10.9,0,2.99884,0.0258967,0
0.3,11,0,2.99938,0.0233013,0
0.3,11.1,0,2.99915,0.0248195,0
0.3,11.2,0,2.99921,0.0247373,0
0.3,11.3,0,2.99955,0.0232284,0
0.3,11.4,0,2.99946,0.0238895,0
0.3,11.5,0,2.99951,0.0238062,0
0.3,11.6,0,2.99972,0.0229804,0
0.3,11.7,0,2.99972,0.023176,0
0.3,11.8,0,2.99979,0.0228988,0
0.3,11.9,0,2.99988,0.0226918,0
0.3,12,0,2.9999,0.0226534,0
0.3,12.1,0,2.99996,0.0222748,0
0.3,12.2,0,3.00003,0.0223537,0
0.3,12.3,0,3.00005,0.0223092,0
0.3,12.4,0,3.00005,0.0218964,0
0.3,12.5,0,3.00014,0.0221504,0
0.3,12.6,0,3.00015,0.0221309,0
0.3,12.7,0,3.00006,0.0216983,0
0.4,0,0,3.00006,-0.0328634,0
0.4,0.1,0,3.0002,-0.0330825,0
0.4,0.2,0,3.00013,-0.0329753,0
0.4,0.3,0,3.0001,-0.0329178,0
0.4,0.4,0,3.00014,-0.0329731,0
0.4,0.5,0,3.00008,-0.0328887,0
0.4,0.6,0,3.00001,-0.0328629,0
0.4,0.7,0,3.00004,-0.0329064,0
0.4,0.8,0,2.99997,-0.0328681,0
0.4,0.9,0,2.99987,-0.0328223,0
0.4,1,0,3.00005,-0.0329996,0
0.4,1.1,0,2.9997,-0.0327655,0
0.4,1.2,0,2.99986,-0.0329319,0
0.4,1.3,0,2.9998,-0.0329591,0
0.4,1.4,0,2.99957,-0.0328705,0
0.4,1.5,0,2.99996,-0.0331506,0
0.4,1.6,0,2.99949,-0.0330596,0
0.4,1.7,0,2.99969,-0.0331497,0
0.4,1.8,0,2.99968,-0.0333396,0
0.4,1.9,0,2.99944,-0.0334703,0
0.4,2,0,2.99978,-0.0332552,0
0.4,2.1,0,2.99939,-0.0340133,0
0.4,2.2,0,2.99947,-0.0336164,0
0.4,2.3,0,2.99933,-0.0339541,0
0.4,2.4,0,2.99898,-0.0346451,0
0.4,2.5,0,2.99937,-0.0331054,0
0.4,2.6,0,2.99817,-0.0354199,0
0.4,2.7,0,2.99857,-0.0341001,0
0.4,2.8,0,2.99769,-0.0345174,0
0.4,2.9,0,2.99621,-0.0360767,0
0.4,3,0,2.99864,-0.0324016,0
0.4,3.1,0,2.99297,-0.0369236,0
0.4,3.2,0,2.99541,-0.0342173,0
0.4,3.3,0,2.99283,-0.0346875,0
0.4,3.4,0,2.9874,-0.0374612,0
0.4,3.5,0,2.99687,-0.0306688,0
0.4,3.6,0,2.98071,-0.0394465,0
0.4,3.7,0,2.98771,-0.0343512,0
0.4,3.8,0,2.98457,-0.036995,0
0.4,3.9,0,2.97356,-0.0441162,0
0.4,4,0,2.99314,-0.0284345,0
0.4,4.1,0,2.96989,-0.0543087,0
0.4,4.2,0,2.98071,-0.0406266,0
0.4,4.3,0,2.9794,-0.047639,0
0.4,4.4,0,2.96703,-0.0673728,0
0.4,4.5,0,2.99195,-0.0261412,0
0.4,4.6,0,2.95878,-0.0815926,0
0.4,4.7,0,2.9766,-0.0523355,0
0.4,4.8,0,2.96748,-0.0560208,0
0.4,4.9,0,2.94179,-0.0873535,0
0.4,5,0,2.99631,-0.0208996,0
0.4,5.1,0,2.99823,-0.0184194,0
0.4,5.2,0,2.99917,-0.0168934,0
0.4,5.3,0,2.99962,-0.0152427,0
0.4,5.4,0,2.99975,-0.0134338,0
0.4,5.5,0,3.00001,-0.01152,0
0.4,5.6,0,3.00079,-0.00964356,0
0.4,5.7,0,3.00218,-0.00795764,0
0.4,5.8,0,3.00383,-0.00652451,0
0.4,5.9,0,3.00518,-0.00526423,0
0.4,6,0,3.00597,-0.00400817,0
0.4,6.1,0,3.00627,-0.00261251,0
0.4,6.2,0,3.00635,-0.0010252,0
0.4,6.3,0,3.00638,0.00072836,0
0.4,6.4,0,3.00645,0.00259035,0
0.4,6.5,0,3.00658,0.00450007,0
0.4,6.6,0,3.00681,0.00640441,0
0.4,6.7,0,3.00717,0.00825501,0
0.4,6.8,0,3.0078,0.0100041,0
0.4,6.9,0,3.00883,0.0115573,0
0.4,7,0,3.0108,0.0136511,0
0.4,7.1,0,2.93259,0.0484643,0
0.4,7.2,0,2.94509,0.0443915,0
0.4,7.3,0,2.99253,0.0258506,0
0.4,7.4,0,2.86592,0.0864914,0
0.4,7.5,0,2.92133,0.0613329,0
0.4,7.6,0,2.97692,0.0450615,0
0.4,7.7,0,2.88411,0.114316,0
0.4,7.8,0,2.94646,0.068273,0
0.4,7.9,0,2.97041,0.0715225,0
0.4,8,0,2.9158,0.143671,0
0.4,8.1,0,2.96975,0.0697713,0
0.4,8.2,0,2.9668,0.0911538,0
0.4,8.3,0,2.93632,0.147273,0
0.4,8.4,0,2.98112,0.0575119,0
0.4,8.5,0,2.96511,0.0992153,0
0.4,8.6,0,2.9508,0.130892,0
0.4,8.7,0,2.98705,0.0417324,0
0.4,8.8,0,2.96781,0.0952402,0
0.4,8.9,0,2.96627,0.098898,0
0.4,9,0,2.98935,0.0352803,0
0.4,9.1,0,2.97426,0.0864466,0
0.4,9.2,0,2.97855,0.0737283,0
0.4,9.3,0,2.98977,0.0396128,0
0.4,9.4,0,2.98259,0.0726985,0
0.4,9.5,0,2.98741,0.0553836,0
0.4,9.6,0,2.99215,0.0404229,0
0.4,9.7,0,2.98977,0.0586902,0
0.4,9.8,0,2.99301,0.0436779,0
0.4,9.9,0,2.99471,0.0394981,0
0.4,10,0,2.99419,0.0491095,0
0.4,10.1,0,2.99615,0.0369686,0
0.4,10.2,0,2.99651,0.038156,0
0.4,10.3,0,2.99644,0.0430259,0
0.4,10.4,0,2.9978,0.0333306,0
0.4,10.5,0,2.99753,0.0368312,0
0.4,10.6,0,2.99759,0.0384511,0
0.4,10.7,0,2.99876,0.0312706,0
0.4,10.8,0,2.99816,0.0355023,0
0.4,10.9,0,2.9984,0.0350862,0
0.4,11,0,2.99923,0.0308318,0
0.4,11.1,0,2.99868,0.0341547,0
0.4,11.2,0,2.99904,0.0327679,0
0.4,11.3,0,2.9995,0.030625,0
0.4,11.4,0,2.99915,0.0326007,0
0.4,11.5,0,2.99948,0.0311593,0
0.4,11.6,0,2.99971,0.0302607,0
0.4,11.7,0,2.99955,0.0313453,0
0.4,11.8,0,2.99978,0.0300871,0
0.4,11.9,0,2.99987,0.0298801,0
0.4,12,0,2.99982,0.0304554,0
0.4,12.1,0,2.99994,0.0293965,0
0.4,12.2,0,3.00002,0.0295852,0
0.4,12.3,0,3.00004,0.0298941,0
0.4,12.4,0,3.00002,0.0289811,0
0.4,12.5,0,3.00016,0.0294359,0
0.4,12.6,0,3.00018,0.0295184,0
0.4,12.7,0,3.00002,0.028774,0
0.5,0,0,3.00002,-0.0409985,0
0.5,0.1,0,3.00003,-0.0409984,0
0.5,0.2,0,3.00004,-0.0409984,0
0.5,0.3,0,3.00004,-0.0410039,0
0.5,0.4,0,3.00005,-0.0410149,0
0.5,0.5,0,3.00005,-0.041026,0
0.5,0.6,0,3.00005,-0.0410557,0
0.5,0.7,0,3.00005,-0.0410855,0
0.5,0.8,0,3.00005,-0.0411216,0
0.5,0.9,0,3.00005,-0.041164,0
0.5,1,0,3.00005,-0.0412064,0
0.5,1.1,0,3.00005,-0.0412566,0
0.5,1.2,0,3.00005,-0.0413067,0
0.5,1.3,0,3.00004,-0.0413573,0
0.5,1.4,0,3.00004,-0.0414083,0
0.5,1.5,0,3.00003,-0.0414594,0
0.5,1.6,0,3.00001,-0.0415016,0
0.5,1.7,0,2.99999,-0.0415438,0
0.5,1.8,0,2.99996,-0.0415748,0
0.5,1.9,0,2.9999,-0.0415944,0
0.5,2,0,2.99985,-0.041614,0
0.5,2.1,0,2.99975,-0.0415961,0
0.5,2.2,0,2.99965,-0.0415782,0
0.5,2.3,0,2.99952,-0.0415346,0
0.5,2.4,0,2.99937,-0.0414653,0
0.5,2.5,0,2.99922,-0.041396,0
0.5,2.6,0,2.99902,-0.0412609,0
0.5,2.7,0,2.99883,-0.0411258,0
0.5,2.8,0,2.99863,-0.0409479,0
0.5,2.9,0,2.9984,-0.0407273,0
0.5,3,0,2.99818,-0.0405066,0
0.5,3.1,0,2.99787,-0.0401679,0
0.5,3.2,0,2.99756,-0.0398292,0
0.5,3.3,0,2.99715,-0.0394263,0
0.5,3.4,0,2.99663,-0.0389593,0
0.5,3.5,0,2.99611,-0.0384923,0
0.5,3.6,0,2.99529,-0.0379317,0
0.5,3.7,0,2.99448,-0.0373711,0
0.5,3.8,0,2.9936,-0.0367532,0
0.5,3.9,0,2.99268,-0.0360782,0
0.5,4,0,2.99175,-0.0354032,0
0.5,4.1,0,2.99115,-0.0345533,0
0.5,4.2,0,2.99054,-0.0337034,0
0.5,4.3,0,2.9903,-0.0327428,0
0.5,4.4,0,2.99042,-0.0316715,0
0.5,4.5,0,2.99055,-0.0306002,0
0.5,4.6,0,2.99166,-0.0290304,0
0.5,4.7,0,2.99277,-0.0274605,0
0.5,4.8,0,2.99402,-0.0258508,0
0.5,4.9,0,2.9954,-0.0242012,0
0.5,5,0,2.99679,-0.0225515,0
0.5,5.1,0,2.99925,-0.0196079,0
0.5,5.2,0,3.00027,-0.0178415,0
0.5,5.3,0,3.0008,-0.0159816,0
0.5,5.4,0,3.00128,-0.0139804,0
0.5,5.5,0,3.00227,-0.0118579,0
0.5,5.6,0,3.00393,-0.00973913,0
0.5,5.7,0,3.00587,-0.00779135,0
0.5,5.8,0,3.00741,-0.00611477,0
0.5,5.9,0,3.00806,-0.00465902,0
0.5,6,0,3.00787,-0.00325323,0
0.5,6.1,0,3.00726,-0.00172868,0
0.5,6.2,0,3.00666,-9.05e-06,0
0.5,6.3,0,3.00625,0.0018932,0
0.5,6.4,0,3.00607,0.00392488,0
0.5,6.5,0,3.00611,0.00602723,0
0.5,6.6,0,3.00637,0.00815032,0
0.5,6.7,0,3.00689,0.0102541,0
0.5,6.8,0,3.00779,0.0123073,0
0.5,6.9,0,3.00934,0.0142468,0
0.5,7,0,3.01374,0.0165242,0
0.5,7.1,0,3.01502,0.0174245,0
0.5,7.2,0,3.0163,0.0183249,0
0.5,7.3,0,3.01731,0.0192425,0
0.5,7.4,0,3.0168,0.0202582,0
0.5,7.5,0,3.01629,0.0212739,0
0.5,7.6,0,3.01527,0.0223811,0
0.5,7.7,0,3.01306,0.0237016,0
0.5,7.8,0,3.01085,0.0250221,0
0.5,7.9,0,3.00832,0.026589,0
0.5,8,0,3.0054,0.028457,0
0.5,8.1,0,3.00248,0.030325,0
0.5,8.2,0,2.99973,0.0319685,0
0.5,8.3,0,2.9971,0.0334622,0
0.5,8.4,0,2.99447,0.0349559,0
0.5,8.5,0,2.99269,0.035885,0
0.5,8.6,0,2.99119,0.0366259,0
0.5,8.7,0,2.9897,0.0373669,0
0.5,8.8,0,2.98921,0.0378303,0
0.5,8.9,0,2.98884,0.0382629,0
0.5,9,0,2.9885,0.0386885,0
0.5,9.1,0,2.9889,0.0389812,0
0.5,9.2,0,2.98931,0.0392739,0
0.5,9.3,0,2.98978,0.0395341,0
0.5,9.4,0,2.99053,0.0396645,0
0.5,9.5,0,2.99129,0.0397949,0
0.5,9.6,0,2.99206,0.0398684,0
0.5,9.7,0,2.99288,0.0398363,0
0.5,9.8,0,2.9937,0.0398042,0
0.5,9.9,0,2.99445,0.0397336,0
0.5,10,0,2.99515,0.0396246,0
0.5,10.1,0,2.99584,0.0395156,0
0.5,10.2,0,2.99641,0.0393852,0
0.5,10.3,0,2.99692,0.0392434,0
0.5,10.4,0,2.99743,0.0391015,0
0.5,10.5,0,2.9978,0.0389363,0
0.5,10.6,0,2.99814,0.0387652,0
0.5,10.7,0,2.99849,0.0385941,0
0.5,10.8,0,2.99872,0.0384004,0
0.5,10.9,0,2.99894,0.0382055,0
0.5,11,0,2.99916,0.0380101,0
0.5,11.1,0,2.99931,0.0378104,0
0.5,11.2,0,2.99945,0.0376107,0
0.5,11.3,0,2.99958,0.0374146,0
0.5,11.4,0,2.99966,0.0372292,0
0.5,11.5,0,2.99975,0.0370439,0
0.5,11.6,0,2.99981,0.0368701,0
0.5,11.7,0,2.99986,0.0367135,0
0.5,11.8,0,2.9999,0.036557,0
0.5,11.9,0,2.99992,0.0364209,0
0.5,12,0,2.99994,0.0363017,0
0.5,12.1,0,2.99996,0.0361825,0
0.5,12.2,0,2.99997,0.0360929,0
0.5,12.3,0,2.99998,0.036016,0
0.5,12.4,0,2.99998,0.0359391,0
0.5,12.5,0,2.99999,0.0359044,0
0.5,12.6,0,2.99999,0.035877,0
0.5,12.7,0,2.99999,0.0358496,0
0.6,0,0,3.00007,-0.049263,0
0.6,0.1,0,2.99985,-0.0489145,0
0.6,0.2,0,2.99998,-0.0490942,0
0.6,0.3,0,3.00003,-0.0491514,0
0.6,0.4,0,2.99996,-0.0490344,0
0.6,0.5,0,3.00016,-0.0493271,0
0.6,0.6,0,3.0001,-0.0492335,0
0.6,0.7,0,3.00014,-0.0493402,0
0.6,0.8,0,3.00021,-0.049453,0
0.6,0.9,0,3.00024,-0.0494954,0
0.6,1,0,3.00018,-0.049569,0
0.6,1.1,0,3.00039,-0.0497426,0
0.6,1.2,0,3.00027,-0.0497456,0
0.6,1.3,0,3.00033,-0.0498237,0
0.6,1.4,0,3.00051,-0.0499493,0
0.6,1.5,0,3.00009,-0.0498772,0
0.6,1.6,0,3.00055,-0.0499582,0
0.6,1.7,0,3.00025,-0.0499922,0
0.6,1.8,0,3.0002,-0.0498722,0
0.6,1.9,0,3.00041,-0.0497491,0
0.6,2,0,2.99977,-0.0500761,0
0.6,2.1,0,3.00016,-0.0492234,0
0.6,2.2,0,2.99978,-0.049633,0
0.6,2.3,0,2.99967,-0.049215,0
0.6,2.4,0,2.9998,-0.0483437,0
0.6,2.5,0,2.99903,-0.0498873,0
0.6,2.6,0,2.99991,-0.047175,0
0.6,2.7,0,2.99915,-0.0483221,0
0.6,2.8,0,2.99961,-0.0475614,0
0.6,2.9,0,3.00063,-0.0454758,0
0.6,3,0,2.9978,-0.0489485,0
0.6,3.1,0,3.0029,-0.0435505,0
0.6,3.2,0,2.99979,-0.0457116,0
0.6,3.3,0,3.00162,-0.0444256,0
0.6,3.4,0,3.00616,-0.0405757,0
0.6,3.5,0,2.99525,-0.0467735,0
0.6,3.6,0,3.01017,-0.0364859,0
0.6,3.7,0,3.00135,-0.0407006,0
0.6,3.8,0,3.00256,-0.0368666,0
0.6,3.9,0,3.01172,-0.0282001,0
0.6,4,0,2.9904,-0.0432638,0
0.6,4.1,0,3.01183,-0.0149879,0
0.6,4.2,0,3.0001,-0.0277277,0
0.6,4.3,0,3.00077,-0.0188255,0
0.6,4.4,0,3.01293,0.00377715,0
0.6,4.5,0,2.98851,-0.0379811,0
0.6,4.6,0,3.02344,0.0227873,0
0.6,4.7,0,3.00718,-0.00514903,0
0.6,4.8,0,3.01962,0.00242057,0
0.6,4.9,0,3.04957,0.0395363,0
0.6,5,0,2.99282,-0.0295742,0
0.6,5.1,0,2.99469,-0.0263164,0
0.6,5.2,0,2.9955,-0.0241684,0
0.6,5.3,0,2.99564,-0.0218504,0
0.6,5.4,0,2.99542,-0.0193229,0
0.6,5.5,0,2.9955,-0.0166499,0
0.6,5.6,0,2.99642,-0.014006,0
0.6,5.7,0,2.99826,-0.0115739,0
0.6,5.8,0,3.0004,-0.00942393,0
0.6,5.9,0,3.00201,-0.00745796,0
0.6,6,0,3.00268,-0.00547789,0
0.6,6.1,0,3.00265,-0.00331708,0
0.6,6.2,0,3.00236,-0.00091441,0
0.6,6.3,0,3.00211,0.00170376,0
0.6,6.4,0,3.00204,0.00447533,0
0.6,6.5,0,3.00215,0.0073363,0
0.6,6.6,0,3.00245,0.0102326,0
0.6,6.7,0,3.00299,0.0131188,0
0.6,6.8,0,3.00393,0.0159523,0
0.6,6.9,0,3.00548,0.0186753,0
0.6,7,0,3.00873,0.0219597,0
0.6,7.1,0,3.0976,-0.0137102,0
0.6,7.2,0,3.08531,-0.0070672,0
0.6,7.3,0,3.0317,0.0161525,0
0.6,7.4,0,3.17049,-0.0457711,0
0.6,7.5,0,3.10798,-0.0163161,0
0.6,7.6,0,3.04437,0.00393848,0
0.6,7.7,0,3.14309,-0.067812,0
0.6,7.8,0,3.07076,-0.0145454,0
0.6,7.9,0,3.0406,-0.0136675,0
0.6,8,0,3.09553,-0.0871064,0
0.6,8.1,0,3.0317,-0.00398988,0
0.6,8.2,0,3.02933,-0.0227499,0
0.6,8.3,0,3.05667,-0.0791457,0
0.6,8.4,0,3.00572,0.0179533,0
0.6,8.5,0,3.01857,-0.0247896,0
0.6,8.6,0,3.03026,-0.0569627,0
0.6,8.7,0,2.99203,0.0377836,0
0.6,8.8,0,3.00962,-0.0183367,0
0.6,8.9,0,3.01056,-0.0216088,0
0.6,9,0,2.98851,0.045575,0
0.6,9.1,0,3.00308,-0.0080785,0
0.6,9.2,0,3.00006,0.0056246,0
0.6,9.3,0,2.99087,0.0414729,0
0.6,9.4,0,2.99825,0.00687146,0
0.6,9.5,0,2.99564,0.0249965,0
0.6,9.6,0,2.99297,0.0404065,0
0.6,9.7,0,2.99607,0.0211121,0
0.6,9.8,0,2.99511,0.0365461,0
0.6,9.9,0,2.99497,0.0405479,0
0.6,10,0,2.99631,0.0301854,0
0.6,10.1,0,2.99628,0.0425608,0
0.6,10.2,0,2.99686,0.0409315,0
0.6,10.3,0,2.99761,0.0354901,0
0.6,10.4,0,2.99771,0.0453082,0
0.6,10.5,0,2.99841,0.0412232,0
0.6,10.6,0,2.99889,0.0391465,0
0.6,10.7,0,2.99874,0.046318,0
0.6,10.8,0,2.99945,0.0413823,0
0.6,10.9,0,2.99965,0.0414123,0
0.6,11,0,2.99943,0.0455085,0
0.6,11.1,0,3.00002,0.0414723,0
0.6,11.2,0,3.00001,0.0425526,0
0.6,11.3,0,2.99987,0.0444341,0
0.6,11.4,0,3.00023,0.0418315,0
0.6,11.5,0,3.00014,0.0430382,0
0.6,11.6,0,3.00006,0.043635,0
0.6,11.7,0,3.00019,0.0420425,0
0.6,11.8,0,3.00013,0.043147,0
0.6,11.9,0,3.00008,0.0430557,0
0.6,12,0,3.00008,0.0421022,0
0.6,12.1,0,3.0001,0.0431026,0
0.6,12.2,0,2.99999,0.0426462,0
0.6,12.3,0,2.99992,0.0420873,0
0.6,12.4,0,3.00006,0.0430467,0
0.6,12.5,0,2.99985,0.0423721,0
0.6,12.6,0,2.99981,0.0422017,0
0.6,12.7,0,3.00005,0.0430945,0
0.7,0,0,3.00012,-0.0575276,0
0.7,0.1,0,3.00002,-0.0573588,0
0.7,0.2,0,3.00005,-0.0573697,0
0.7,0.3,0,3.0001,-0.0574269,0
0.7,0.4,0,3.00014,-0.0574636,0
0.7,0.5,0,3.00026,-0.0576283,0
0.7,0.6,0,3.00025,-0.0576116,0
0.7,0.7,0,3.00027,-0.0576717,0
0.7,0.8,0,3.00034,-0.0577846,0
0.7,0.9,0,3.00034,-0.0578581,0
0.7,1,0,3.00032,-0.0579316,0
0.7,1.1,0,3.00041,-0.0580581,0
0.7,1.2,0,3.00038,-0.0581374,0
0.7,1.3,0,3.00044,-0.0582155,0
0.7,1.4,0,3.00038,-0.0582926,0
0.7,1.5,0,3.00014,-0.0582951,0
0.7,1.6,0,3.00033,-0.0583679,0
0.7,1.7,0,3.00024,-0.0584325,0
0.7,1.8,0,3.00019,-0.0583125,0
0.7,1.9,0,3.00007,-0.058354,0
0.7,2,0,2.99968,-0.0585382,0
0.7,2.1,0,2.9998,-0.0581131,0
0.7,2.2,0,2.99964,-0.0581155,0
0.7,2.3,0,2.99953,-0.0576975,0
0.7,2.4,0,2.99933,-0.0576371,0
0.7,2.5,0,2.99884,-0.0583787,0
0.7,2.6,0,2.99915,-0.0569486,0
0.7,2.7,0,2.99889,-0.0568006,0
0.7,2.8,0,2.99936,-0.05604,0
0.7,2.9,0,2.99901,-0.0557827,0
0.7,3,0,2.99742,-0.0573904,0
0.7,3.1,0,2.99972,-0.0544922,0
0.7,3.2,0,2.99921,-0.0540938,0
0.7,3.3,0,3.00104,-0.0528078,0
0.7,3.4,0,3.00025,-0.0522398,0
0.7,3.5,0,2.9944,-0.0550547,0
0.7,3.6,0,3.00131,-0.0495424,0
0.7,3.7,0,3.00021,-0.0488054,0
0.7,3.8,0,3.00142,-0.0449714,0
0.7,3.9,0,3.00028,-0.0440522,0
0.7,4,0,2.98905,-0.0511244,0
0.7,4.1,0,2.99935,-0.0364382,0
0.7,4.2,0,2.99853,-0.0353417,0
0.7,4.3,0,2.9992,-0.0264395,0
0.7,4.4,0,2.99886,-0.025135,0
0.7,4.5,0,2.98647,-0.0453619,0
0.7,4.6,0,3.00403,-0.0140997,0
0.7,4.7,0,3.00421,-0.0123438,0
0.7,4.8,0,3.01665,-0.00477416,0
0.7,4.9,0,3.01704,-0.00295246,0
0.7,5,0,2.98886,-0.0365968,0
0.7,5.1,0,2.99012,-0.033025,0
0.7,5.2,0,2.99074,-0.0304953,0
0.7,5.3,0,2.99049,-0.0277192,0
0.7,5.4,0,2.98956,-0.0246654,0
0.7,5.5,0,2.98872,-0.0214419,0
0.7,5.6,0,2.98892,-0.0182728,0
0.7,5.7,0,2.99065,-0.0153565,0
0.7,5.8,0,2.9934,-0.0127331,0
0.7,5.9,0,2.99596,-0.0102569,0
0.7,6,0,2.9975,-0.00770255,0
0.7,6.1,0,2.99803,-0.00490547,0
0.7,6.2,0,2.99806,-0.00181977,0
0.7,6.3,0,2.99798,0.00151432,0
0.7,6.4,0,2.99801,0.00502578,0
0.7,6.5,0,2.99818,0.00864538,0
0.7,6.6,0,2.99852,0.0123148,0
0.7,6.7,0,2.9991,0.0159835,0
0.7,6.8,0,3.00007,0.0195973,0
0.7,6.9,0,3.00161,0.0231038,0
0.7,7,0,3.00372,0.0273952,0
0.7,7.1,0,3.05428,0.00783173,0
0.7,7.2,0,3.05406,0.00961865,0
0.7,7.3,0,3.02497,0.0225987,0
0.7,7.4,0,3.08345,-0.00247255,0
0.7,7.5,0,3.08274,-0.000397196,0
0.7,7.6,0,3.03742,0.0115927,0
0.7,7.7,0,3.06861,-0.00980387,0
0.7,7.8,0,3.06531,-0.00568872,0
0.7,7.9,0,3.03515,-0.0048108,0
0.7,8,0,3.04364,-0.0154634,0
0.7,8.1,0,3.02799,0.00561332,0
0.7,8.2,0,3.02399,-0.00992407,0
0.7,8.3,0,3.02258,-0.00821143,0
0.7,8.4,0,3.0034,0.0278061,0
0.7,8.5,0,3.00963,0.00198416,0
0.7,8.6,0,3.009,0.00269388,0
0.7,8.7,0,2.99069,0.0476008,0
0.7,8.8,0,3.0005,0.0156072,0
0.7,8.9,0,3.00069,0.0158351,0
0.7,9,0,2.98782,0.0551589,0
0.7,9.1,0,2.99575,0.0272921,0
0.7,9.2,0,2.99648,0.0273607,0
0.7,9.3,0,2.99056,0.0508013,0
0.7,9.4,0,2.99403,0.037119,0
0.7,9.5,0,2.99497,0.0370244,0
0.7,9.6,0,2.99286,0.0494786,0
0.7,9.7,0,2.9944,0.0439131,0
0.7,9.8,0,2.99512,0.045371,0
0.7,9.9,0,2.99499,0.0493728,0
0.7,10,0,2.99584,0.0479395,0
0.7,10.1,0,2.9964,0.0511371,0
0.7,10.2,0,2.99694,0.0503554,0
0.7,10.3,0,2.99752,0.0499938,0
0.7,10.4,0,2.99791,0.053634,0
0.7,10.5,0,2.9985,0.0512378,0
0.7,10.6,0,2.99887,0.0508607,0
0.7,10.7,0,2.99897,0.0544089,0
0.7,10.8,0,2.99948,0.0514473,0
0.7,10.9,0,2.9997,0.0510692,0
0.7,11,0,2.99966,0.0533907,0
0.7,11.1,0,3.00001,0.0513024,0
0.7,11.2,0,3.00014,0.0509417,0
0.7,11.3,0,3.00008,0.0521326,0
0.7,11.4,0,3.00026,0.0509843,0
0.7,11.5,0,3.00033,0.0506608,0
0.7,11.6,0,3.00026,0.0511761,0
0.7,11.7,0,3.0003,0.050596,0
0.7,11.8,0,3.00031,0.0505594,0
0.7,11.9,0,3.00025,0.0504681,0
0.7,12,0,3.00024,0.0502411,0
0.7,12.1,0,3.00024,0.0504226,0
0.7,12.2,0,3.00014,0.0501022,0
0.7,12.3,0,3.00011,0.0499768,0
0.7,12.4,0,3.00015,0.0503113,0
0.7,12.5,0,3.00001,0.0498944,0
0.7,12.6,0,2.99999,0.0498497,0
0.7,12.7,0,3.00012,0.0503394,0
0.8,0,0,3.00013,-0.0657595,0
0.8,0.1,0,3.00029,-0.0659719,0
0.8,0.2,0,3.00031,-0.0659828,0
0.8,0.3,0,3.00037,-0.0659695,0
0.8,0.4,0,3.00041,-0.0660061,0
0.8,0.5,0,3.0003,-0.0658704,0
0.8,0.6,0,3.00044,-0.0660578,0
0.8,0.7,0,3.00047,-0.0661179,0
0.8,0.8,0,3.00043,-0.0661429,0
0.8,0.9,0,3.00043,-0.0662164,0
0.8,1,0,3.00039,-0.0662186,0
0.8,1.1,0,3.00032,-0.0663252,0
0.8,1.2,0,3.00029,-0.0664045,0
0.8,1.3,0,3.00015,-0.0664877,0
0.8,1.4,0,3.00009,-0.0665648,0
0.8,1.5,0,3.00023,-0.0666574,0
0.8,1.6,0,2.99985,-0.0667783,0
0.8,1.7,0,2.99976,-0.0668429,0
0.8,1.8,0,2.9996,-0.0670743,0
0.8,1.9,0,2.99948,-0.0671158,0
0.8,2,0,2.99971,-0.0669903,0
0.8,2.1,0,2.99918,-0.0674553,0
0.8,2.2,0,2.99902,-0.0674577,0