/*--------------------------------*- C++ -*----------------------------------*\
| =========                 |                                                 |
| \\      /  F ield         | OpenFOAM: The Open Source CFD Toolbox           |
|  \\    /   O peration     | Version:  v1806                                 |
|   \\  /    A nd           | Web:      www.OpenFOAM.com                      |
|    \\/     M anipulation  |                                                 |
\*---------------------------------------------------------------------------*/
FoamFile
{
    version     2.0;
    format      ascii;
    class       surfaceScalarField;
    location    "440";
    object      phi;
}
// * * * * * * * * * * * * * * * * * * * * * * * * * * * * * * * * * * * * * //

dimensions      [0 3 -1 0 0 0 0];
oriented        oriented;


internalField   nonuniform List<scalar> 
4680
(
0.104999
-0.00012676
0.104998
-0.000440833
0.104993
-0.000711582
0.104989
-0.00106245
0.104979
-0.00137941
0.104971
-0.00180375
0.104955
-0.00220937
0.104941
-0.00274526
0.104918
-0.00328077
0.104898
-0.0039616
0.104869
-0.00466222
0.104844
-0.00550613
0.104813
-0.00637946
0.10479
-0.00736013
0.104768
-0.00834364
0.10476
-0.00934346
0.104766
-0.0102491
0.104792
-0.0110157
0.104834
-0.0115095
-0.0116902
0.104917
0.104996
-0.000123149
0.104995
-0.000439414
0.104984
-0.00070096
0.104977
-0.0010554
0.104959
-0.0013607
0.104945
-0.00179038
0.104917
-0.00218153
0.104897
-0.00272472
0.10486
-0.00324351
0.104832
-0.00393417
0.104788
-0.00461843
0.104758
-0.00547581
0.104718
-0.00633892
0.104696
-0.00733905
0.10468
-0.00832741
0.104693
-0.00935603
0.104731
-0.0102877
0.104807
-0.0110916
0.104921
-0.0116236
-0.011833
0.105064
0.104994
-0.000117178
0.104992
-0.000437264
0.104974
-0.00068349
0.104964
-0.00104459
0.104933
-0.0013305
0.104914
-0.00177057
0.10487
-0.00213748
0.10484
-0.00269533
0.104782
-0.00318569
0.104745
-0.00389654
0.104678
-0.00455207
0.10464
-0.00543704
0.104581
-0.00628027
0.10456
-0.00731843
0.104543
-0.00831052
0.104578
-0.00939064
0.104651
-0.0103606
0.104785
-0.0112256
0.104974
-0.0118125
-0.0120616
0.105203
0.104992
-0.000108882
0.104989
-0.000434413
0.104964
-0.000658979
0.10495
-0.00102998
0.104907
-0.00128817
0.104881
-0.00174409
0.104819
-0.00207569
0.10478
-0.0026567
0.104699
-0.00310443
0.104651
-0.00384822
0.104557
-0.00445828
0.104509
-0.00538934
0.104425
-0.00619632
0.104405
-0.00729786
0.104379
-0.00828461
0.104436
-0.00944726
0.104538
-0.010463
0.104732
-0.0114192
0.105001
-0.012082
-0.01239
0.10533
0.104989
-9.8338e-05
0.104986
-0.000430932
0.104954
-0.000627347
0.104936
-0.00101175
0.104881
-0.00123335
0.104849
-0.00171136
0.104768
-0.00199511
0.104721
-0.0026095
0.104614
-0.00299734
0.104556
-0.00379023
0.10443
-0.00433235
0.104375
-0.00533419
0.104257
-0.00607896
0.104239
-0.00727926
0.104192
-0.00823844
0.104274
-0.00952837
0.104397
-0.010586
0.104654
-0.0116766
0.105009
-0.0124368
-0.0128264
0.105445
0.104987
-8.57141e-05
0.104983
-0.000426791
0.104945
-0.000588663
0.104923
-0.000990042
0.104855
-0.00116593
0.104817
-0.00167279
0.104717
-0.00189504
0.104662
-0.00255453
0.104527
-0.00286232
0.104461
-0.00372398
0.104298
-0.00416943
0.104237
-0.00527383
0.104077
-0.00591871
0.104064
-0.00726626
0.103983
-0.00815695
0.104094
-0.00963971
0.104222
-0.0107145
0.104553
-0.0120068
0.104996
-0.0128799
-0.0133828
0.105552
0.104986
-7.13115e-05
0.104981
-0.000421791
0.104935
-0.000543221
0.10491
-0.000964793
0.10483
-0.00108614
0.104786
-0.00162853
0.104666
-0.00177517
0.104604
-0.00249227
0.104439
-0.00269773
0.104366
-0.00365047
0.104161
-0.00396491
0.104098
-0.00521025
0.103884
-0.00570519
0.103881
-0.00726307
0.103745
-0.00802125
0.103896
-0.00979024
0.104006
-0.0108251
0.104426
-0.0124264
0.104955
-0.0134088
-0.0140785
0.105651
0.104984
-5.55984e-05
0.104978
-0.000415489
0.104926
-0.00049163
0.104897
-0.00093561
0.104806
-0.000994665
0.104755
-0.00157825
0.104616
-0.00163591
0.104546
-0.00242249
0.104352
-0.00250284
0.104271
-0.00356971
0.104021
-0.00371508
0.103955
-0.0051441
0.103678
-0.00542827
0.103688
-0.00727275
0.103476
-0.00780989
0.103677
-0.00999068
0.103736
-0.0108849
0.104271
-0.0129606
0.10487
-0.014008
-0.0149464
0.105738
0.104984
-3.92429e-05
0.104975
-0.000407139
0.104919
-0.000434905
0.104885
-0.000901674
0.104783
-0.000892844
0.104726
-0.00152095
0.104568
-0.00147859
0.10449
-0.00234393
0.104265
-0.00227828
0.104175
-0.0034801
0.103878
-0.00341806
0.103808
-0.00507364
0.103459
-0.00507968
0.103482
-0.00729503
0.103173
-0.00750127
0.103432
-0.0102498
0.103401
-0.0108534
0.104082
-0.0136422
0.104716
-0.0146415
-0.0160411
0.10581
0.104984
-2.31365e-05
0.104972
-0.000395633
0.104912
-0.000374553
0.104872
-0.000861649
0.104762
-0.000782782
0.104696
-0.00145478
0.104523
-0.00130577
0.104433
-0.002254
0.104181
-0.00202651
0.104079
-0.00337796
0.103736
-0.00307461
0.103656
-0.00499374
0.103231
-0.00465447
0.10326
-0.00732427
0.102835
-0.00707649
0.103155
-0.0105698
0.102989
-0.010687
0.103853
-0.0145068
0.104469
-0.0152572
-0.0174393
0.105867
0.104985
-8.4034e-06
0.104969
-0.000379456
0.104907
-0.000312643
0.104859
-0.000813586
0.104744
-0.000667518
0.104666
-0.00137689
0.104482
-0.00112149
0.104376
-0.00214851
0.104102
-0.00175231
0.103981
-0.00325706
0.103595
-0.00268891
0.103497
-0.00489514
0.102995
-0.00415243
0.103018
-0.00734782
0.102464
-0.00652189
0.102835
-0.0109414
0.102491
-0.0103427
0.10357
-0.0155855
0.104103
-0.0157905
-0.0192471
0.105911
0.104988
3.62048e-06
0.104965
-0.000356678
0.104904
-0.000251849
0.104846
-0.000754851
0.104729
-0.000551154
0.104636
-0.00128318
0.104446
-0.000931623
0.104318
-0.00202127
0.10403
-0.0014634
0.103881
-0.003108
0.103461
-0.00226961
0.10333
-0.00476359
0.102757
-0.00357954
0.102754
-0.00734467
0.102063
-0.00583107
0.102462
-0.011341
0.1019
-0.00978061
0.103213
-0.0168977
0.103586
-0.0161638
-0.0216126
0.105951
0.104992
1.15021e-05
0.10496
-0.000325046
0.104904
-0.000195391
0.104831
-0.000682162
0.104719
-0.000438923
0.104604
-0.00116813
0.104417
-0.000744276
0.104259
-0.00186343
0.103967
-0.00117146
0.103776
-0.00291702
0.103338
-0.0018316
0.103152
-0.00457805
0.102523
-0.00295063
0.102462
-0.00728336
0.101639
-0.00500777
0.102026
-0.011728
0.101211
-0.00896571
0.102756
-0.0184426
0.102873
-0.016281
-0.0247511
0.106012
0.104997
1.40683e-05
0.104955
-0.000282438
0.104906
-0.000146642
0.104816
-0.000591938
0.104714
-0.000336906
0.104571
-0.00102498
0.104396
-0.000569924
0.104196
-0.00166308
0.103918
-0.000893255
0.103665
-0.00266403
0.103232
-0.00139918
0.102961
-0.00430657
0.102305
-0.00229498
0.102138
-0.00711583
0.101204
-0.00407374
0.101514
-0.0120378
0.100421
-0.00787345
0.102172
-0.020193
0.101898
-0.0160071
-0.0289846
0.106131
0.105003
1.07919e-05
0.104949
-0.000227677
0.10491
-0.000107981
0.1048
-0.000481655
0.104713
-0.000250129
0.104536
-0.000847687
0.104385
-0.000419467
0.104129
-0.00140658
0.103886
-0.000650876
0.103543
-0.00232096
0.103154
-0.00101048
0.102747
-0.00389921
0.102119
-0.00166684
0.101766
-0.00676248
0.100779
-0.00308755
0.100903
-0.0121612
0.0995391
-0.00650978
0.101434
-0.0220883
0.100567
-0.0151394
-0.0347845
0.106367
0.105008
2.36684e-06
0.104942
-0.000161368
0.104914
-7.9781e-05
0.104784
-0.000351533
0.104714
-0.000180378
0.104501
-0.000634697
0.10438
-0.000298406
0.10406
-0.00108692
0.103869
-0.000459373
0.103413
-0.00186477
0.103111
-0.000708348
0.1025
-0.00328867
0.101995
-0.00116183
0.101312
-0.0060798
0.100405
-0.00217993
0.100133
-0.0118896
0.0986032
-0.00497993
0.10047
-0.0239555
0.0987785
-0.0134476
-0.0429298
0.106924
0.105011
-9.00073e-06
0.104936
-8.64468e-05
0.104916
-5.95584e-05
0.104771
-0.000205866
0.104714
-0.00012426
0.104472
-0.000391812
0.104376
-0.000203174
0.104
-0.000710257
0.103858
-0.000317287
0.10329
-0.00129694
0.103083
-0.00050166
0.102248
-0.00245321
0.101927
-0.000841693
0.100768
-0.00492059
0.100172
-0.00158357
0.0990346
-0.0107523
0.0977114
-0.00365674
0.0989594
-0.0252035
0.0964351
-0.0109232
-0.0551451
0.10865
0.105011
-1.95781e-05
0.104932
-8.11443e-06
0.104915
-4.22572e-05
0.104762
-5.27816e-05
0.104711
-7.32393e-05
0.104452
-0.00013264
0.104368
-0.000119738
0.103957
-0.000298932
0.103841
-0.000201806
0.103197
-0.00065207
0.103051
-0.000356435
0.102036
-0.0014379
0.101862
-0.000667216
0.100252
-0.00331079
0.100019
-0.00135115
0.0976291
-0.00836201
0.0970649
-0.00309254
0.0961219
-0.0242606
0.0936565
-0.00845781
-0.0737184
0.11223
0.105006
-2.55763e-05
0.104929
6.84716e-05
0.10491
-2.29132e-05
0.104758
9.93461e-05
0.104703
-1.81919e-05
0.104443
0.000127646
0.104354
-3.13324e-05
0.103936
0.000119285
0.103816
-8.13302e-05
0.103147
1.67414e-05
0.102998
-0.000208058
0.101913
-0.000352318
0.101748
-0.000502525
0.0999051
-0.00146788
0.0997532
-0.00119918
0.096447
-0.00505588
0.0964857
-0.00313117
0.0916357
-0.0194106
0.0914617
-0.00828388
-0.0948963
0.11264
0.104994
-1.92909e-05
0.104937
0.000124831
0.104894
2.04728e-05
0.10477
0.000223744
0.104678
7.30616e-05
0.10446
0.000345546
0.104315
0.000113737
0.10396
0.000474366
0.103749
0.000129791
0.103178
0.000588156
0.102883
8.68081e-05
0.101934
0.00059624
0.101523
-9.13083e-05
0.0998497
0.000205482
0.0992375
-0.000586918
0.0959303
-0.00174867
0.0948788
-0.00207971
0.0875895
-0.0121213
0.0918984
-0.0125928
0.0984414
-0.101439
0.104935
-0.0015412
0.104945
-0.00153214
0.104956
-0.00152531
0.104968
-0.00151741
0.104979
-0.00150855
0.104991
-0.00149875
0.105003
-0.00148802
0.105015
-0.00147637
0.105026
-0.00146379
-0.00145021
0.105037
0.10508
-0.00155747
0.1051
-0.00155207
0.10512
-0.00154524
0.10514
-0.00153743
0.10516
-0.00152861
0.10518
-0.0015188
0.1052
-0.00150801
0.10522
-0.00149626
0.10524
-0.00148357
-0.00147002
0.10526
0.105235
-0.00158961
0.105267
-0.00158406
0.105299
-0.00157718
0.10533
-0.00156921
0.105362
-0.00156017
0.105393
-0.00155005
0.105424
-0.00153888
0.105454
-0.00152665
0.105484
-0.0015134
-0.00149916
0.105513
0.105375
-0.00163481
0.10542
-0.0016291
0.105465
-0.00162213
0.105509
-0.00161394
0.105554
-0.00160455
0.105598
-0.00159397
0.105641
-0.00158221
0.105684
-0.00156928
0.105725
-0.00155521
-0.00154006
0.105766
0.105505
-0.00169444
0.105565
-0.00168887
0.105624
-0.0016818
0.105684
-0.00167333
0.105742
-0.00166346
0.105801
-0.00165221
0.105858
-0.0016396
0.105914
-0.00162565
0.10597
-0.00161039
-0.00159389
0.106023
0.105629
-0.00177094
0.105705
-0.00176563
0.105782
-0.00175845
0.105858
-0.00174959
0.105934
-0.00173906
0.106009
-0.00172688
0.106082
-0.00171309
0.106154
-0.00169773
0.106225
-0.00168081
-0.00166247
0.106293
0.105747
-0.00186766
0.105844
-0.0018626
0.105941
-0.0018553
0.106037
-0.00184589
0.106133
-0.00183442
0.106227
-0.00182096
0.106319
-0.00180553
0.10641
-0.0017882
0.106498
-0.00176902
-0.00174814
0.106584
0.10586
-0.00198953
0.105982
-0.00198457
0.106103
-0.00197699
0.106224
-0.00196673
0.106344
-0.00195388
0.106461
-0.00193855
0.106576
-0.0019208
0.106689
-0.00190072
0.106798
-0.00187838
-0.001854
0.106904
0.105965
-0.00214369
0.106118
-0.0021384
0.106272
-0.00213013
0.106423
-0.00211837
0.106573
-0.00210337
0.106719
-0.00208525
0.106863
-0.00206411
0.107002
-0.00204008
0.107137
-0.00201327
-0.00198401
0.107267
0.106064
-0.00234013
0.106259
-0.00233354
0.106452
-0.00232362
0.106643
-0.00230921
0.10683
-0.00229072
0.107014
-0.00226833
0.107192
-0.00224215
0.107364
-0.00221239
0.10753
-0.00217919
-0.00214305
0.107689
0.106163
-0.00259255
0.106412
-0.00258259
0.106658
-0.00256925
0.106899
-0.00255017
0.107134
-0.00252606
0.107363
-0.00249708
0.107584
-0.00246335
0.107797
-0.00242518
0.108
-0.00238279
-0.00233689
0.108194
0.106277
-0.00291815
0.106596
-0.00290205
0.106909
-0.00288225
0.107214
-0.0028553
0.107511
-0.00282221
0.107797
-0.00278309
0.108071
-0.00273805
0.108334
-0.00268755
0.108583
-0.00263191
-0.0025722
0.108818
0.106432
-0.00333845
0.106842
-0.00331252
0.107242
-0.00328179
0.107629
-0.0032423
0.108002
-0.00319533
0.10836
-0.00314084
0.108701
-0.00307899
0.109024
-0.00301048
0.109328
-0.00293578
-0.00285656
0.109612
0.106677
-0.00388426
0.107205
-0.00384029
0.107715
-0.0037923
0.108207
-0.00373377
0.108678
-0.00366617
0.109126
-0.00358917
0.10955
-0.00350299
0.109948
-0.00340864
0.110319
-0.0033067
-0.00319956
0.110662
0.107099
-0.00461645
0.107791
-0.00453294
0.108454
-0.00445528
0.109086
-0.00436539
0.109685
-0.00426513
0.11025
-0.00415382
0.110778
-0.00403159
0.11127
-0.00389994
0.111722
-0.00375931
-0.0036162
0.112139
0.107917
-0.00561004
0.108852
-0.00546747
0.109737
-0.00534016
0.110568
-0.00519702
0.111344
-0.00504088
0.112061
-0.0048711
0.112718
-0.00468801
0.113312
-0.00449395
0.113841
-0.00428858
-0.00407859
0.114304
0.109793
-0.00675238
0.11096
-0.00663474
0.112032
-0.00641255
0.113018
-0.00618223
0.113914
-0.00593734
0.114717
-0.00567368
0.115421
-0.00539269
0.116027
-0.00509942
0.116532
-0.00479356
-0.00450015
0.116953
0.113772
-0.00829425
0.114847
-0.00770977
0.115701
-0.00726676
0.116362
-0.00684371
0.116846
-0.00642132
0.117164
-0.00599172
0.117328
-0.00555613
0.117346
-0.00511717
0.117223
-0.00467136
-0.00423127
0.116955
0.112815
-0.00846994
0.112737
-0.00763183
0.112304
-0.0068336
0.111578
-0.00611777
0.110601
-0.0054436
0.109419
-0.00480984
0.108082
-0.00421979
0.106636
-0.00367045
0.105115
-0.00315113
-0.00263662
0.103521
0.0899715
0.0823396
0.075506
0.0693883
0.0639447
0.0591348
0.054915
0.0512446
0.0480935
0.0454568
0.105097
-0.00669688
0.105156
-0.00629225
0.10521
-0.00581915
0.105259
-0.00529727
0.105301
-0.00474743
0.105336
-0.00418864
0.105364
-0.0036388
0.105385
-0.00311024
0.1054
-0.00261432
0.10541
-0.00215635
0.105415
-0.00174273
0.105416
-0.00137346
0.105413
-0.00105203
0.105409
-0.000774728
0.105402
-0.0005439
0.105393
-0.000353651
0.105382
-0.000206455
0.105369
-9.6079e-05
0.105357
-2.58401e-05
9.94971e-06
0.105347
-0.00678409
0.105424
-0.00636883
0.105485
-0.00588103
0.105532
-0.00534346
0.105562
-0.00477834
0.105579
-0.00420563
0.105585
-0.00364385
0.10558
-0.0031056
0.105568
-0.00260218
0.10555
-0.00213873
0.105529
-0.00172136
0.105505
-0.00134977
0.10548
-0.00102711
0.105455
-0.000749294
0.105429
-0.000518475
0.105404
-0.000328369
0.105379
-0.000181709
0.105355
-7.16021e-05
0.10533
-6.26317e-07
3.59591e-05
0.105643
-0.00691405
0.105751
-0.00647681
0.105833
-0.00596297
0.105888
-0.00539782
0.105916
-0.00480636
0.10592
-0.0042104
0.105906
-0.00362935
0.105876
-0.00307604
0.105836
-0.00256159
0.105788
-0.00209069
0.105735
-0.00166895
0.105681
-0.00129538
0.105626
-0.000972621
0.105573
-0.000695864
0.105521
-0.000466925
0.105472
-0.000278883
0.105425
-0.000134373
0.105379
-2.55265e-05
0.105334
4.37719e-05
8.01921e-05
0.105946
-0.00709388
0.106093
-0.0066233
0.1062
-0.00607018
0.106267
-0.00546449
0.106295
-0.004835
0.106291
-0.00420598
0.106259
-0.00359799
0.106207
-0.00302396
0.10614
-0.00249463
0.106064
-0.002014
0.105982
-0.00158684
0.105898
-0.0012113
0.105814
-0.000889061
0.105733
-0.000614527
0.105654
-0.000388748
0.10558
-0.000204271
0.105509
-6.31188e-05
0.10544
4.28082e-05
0.105374
0.000109908
0.000145046
0.106259
-0.00732927
0.106447
-0.00681167
0.106581
-0.00620419
0.10666
-0.00554349
0.106689
-0.00486336
0.106674
-0.00419116
0.106624
-0.00354856
0.106549
-0.00294845
0.106455
-0.00240078
0.10635
-0.00190861
0.106238
-0.00147545
0.106125
-0.00109831
0.106014
-0.000777483
0.105906
-0.000506501
0.105802
-0.000285272
0.105704
-0.000105891
0.10561
3.06742e-05
0.10552
0.000132511
0.105434
0.000196686
0.000229927
0.106591
-0.00762691
0.106824
-0.00704531
0.106986
-0.00636533
0.107075
-0.00563286
0.1071
-0.00488816
0.107071
-0.00416209
0.106999
-0.00347725
0.106897
-0.00284603
0.106773
-0.00227717
0.106637
-0.00177236
0.106495
-0.00133339
0.106352
-0.000955687
0.106213
-0.000637789
0.106078
-0.000372215
0.10595
-0.000157365
0.10583
1.5067e-05
0.105714
0.000145828
0.105605
0.000241984
0.105499
0.000302525
0.000333372
0.106952
-0.00799538
0.107235
-0.00732794
0.107422
-0.00655309
0.107519
-0.00572913
0.107535
-0.00490433
0.107486
-0.0041131
0.107387
-0.00337843
0.107253
-0.00271156
0.107095
-0.00211944
0.106924
-0.00160182
0.106749
-0.00115814
0.106575
-0.000781739
0.106406
-0.000469077
0.106246
-0.000211319
0.106094
-5.54427e-06
0.10595
0.000158479
0.105815
0.000280865
0.105687
0.000370056
0.105564
0.000425955
0.00045388
0.107354
-0.0084454
0.10769
-0.00766342
0.107902
-0.00676575
0.108
-0.00582701
0.108001
-0.00490481
0.107924
-0.00403663
0.107791
-0.00324479
0.107617
-0.00253846
0.10742
-0.00192213
0.107211
-0.00139271
0.106999
-0.000946517
0.106792
-0.000574281
0.106593
-0.000270076
0.106405
-2.36182e-05
0.106229
0.000171201
0.106064
0.000322972
0.10591
0.000435054
0.105764
0.000515565
0.105625
0.000565562
0.000590001
0.107811
-0.00898978
0.108203
-0.00805512
0.108437
-0.00699953
0.108528
-0.00591861
0.108504
-0.00488003
0.10839
-0.00392285
0.108212
-0.00306714
0.107992
-0.00231875
0.107749
-0.00167884
0.107497
-0.00114005
0.107245
-0.000694963
0.107002
-0.000330915
0.106771
-3.97202e-05
0.106555
0.000192707
0.106355
0.000371515
0.106169
0.000508393
0.105997
0.000607395
0.105835
0.000677325
0.105681
0.000719922
0.000740367
0.108342
-0.00964302
0.108792
-0.00850467
0.109039
-0.00724732
0.109113
-0.00599256
0.109051
-0.00481725
0.108887
-0.00375918
0.108654
-0.00283411
0.108378
-0.00204304
0.108081
-0.00138214
0.10778
-0.000838294
0.107484
-0.000399556
0.107203
-4.9452e-05
0.106938
0.000224755
0.106694
0.000437035
0.10647
0.000595707
0.106264
0.000714326
0.106074
0.000797003
0.105897
0.000854446
0.105729
0.000887874
0.000904106
0.108972
-0.0104203
0.109477
-0.00901006
0.109727
-0.00749712
0.109767
-0.00603296
0.10965
-0.0046998
0.10942
-0.0035298
0.109118
-0.0025319
0.108775
-0.0017004
0.108417
-0.00102346
0.10806
-0.000481043
0.107716
-5.62584e-05
0.107392
0.000274893
0.107093
0.000524002
0.106819
0.000711041
0.10657
0.000844683
0.106343
0.000941372
0.106135
0.0010042
0.105942
0.00104746
0.105761
0.00106973
0.00108213
0.109734
-0.0113356
0.110287
-0.00956333
0.11052
-0.00773041
0.110505
-0.00601832
0.110312
-0.00450615
0.109997
-0.00321473
0.109608
-0.00214352
0.109185
-0.00127703
0.108753
-0.000591881
0.108333
-6.04046e-05
0.107932
0.000344213
0.107561
0.000645892
0.107222
0.000863395
0.106914
0.00101925
0.106636
0.00112283
0.106383
0.00119378
0.106154
0.00123343
0.10594
0.00126102
0.10574
0.00127015
0.00127974
0.110677
-0.0124006
0.111262
-0.0101481
0.111452
-0.00792037
0.111352
-0.0059186
0.111052
-0.00420605
0.110624
-0.00278657
0.110125
-0.00164454
0.109599
-0.000750921
0.109077
-6.99009e-05
0.108573
0.000442945
0.108103
0.000814366
0.107671
0.00107789
0.107278
0.00125687
0.106922
0.0013747
0.106601
0.00144383
0.10631
0.00148462
0.106045
0.0014986
0.105798
0.00150835
0.105565
0.00150285
0.00151023
0.111883
-0.0136212
0.112468
-0.0107338
0.112571
-0.0080225
0.112333
-0.00568125
0.111872
-0.00374436
0.111279
-0.00219386
0.110623
-0.00098915
0.109952
-7.94789e-05
0.109294
0.000587866
0.108675
0.00106215
0.1081
0.00138985
0.107574
0.00160394
0.107094
0.00173669
0.106661
0.00180762
0.106266
0.00183842
0.105909
0.00184198
0.105579
0.00182885
0.105272
0.00181493
0.104981
0.00179428
0.00179589
0.113483
-0.0149654
0.113984
-0.0112351
0.113888
-0.00792605
0.113388
-0.005182
0.112641
-0.00299729
0.111766
-0.00131891
0.110853
-7.53453e-05
0.109941
0.000832292
0.109071
0.00145789
0.108261
0.00187241
0.107512
0.00213795
0.106832
0.00228454
0.10621
0.00235896
0.105649
0.00236837
0.105133
0.00235441
0.104668
0.00230681
0.104232
0.00226447
0.103836
0.00221184
0.103453
0.00217637
0.0021575
0.115546
-0.0162079
0.11565
-0.0113387
0.115029
-0.00730559
0.113973
-0.00412529
0.112677
-0.0017017
0.111296
6.15131e-05
0.109922
0.00129878
0.108626
0.00212834
0.107421
0.00266316
0.10632
0.00297392
0.105318
0.00313918
0.104418
0.00318458
0.103602
0.00317561
0.102873
0.00309732
0.102204
0.00302347
0.101611
0.00289956
0.101054
0.0028217
0.100564
0.00270126
0.100089
0.00265147
0.00257992
0.117197
-0.0164518
0.116088
-0.0102293
0.114203
-0.00542129
0.11201
-0.0019315
0.109765
0.000542566
0.107594
0.0022325
0.105602
0.00329155
0.103811
0.00391927
0.102218
0.00425581
0.100815
0.0043769
0.0995808
0.00437346
0.0985012
0.00426416
0.0975481
0.00412868
0.09672
0.0039255
0.0959774
0.00376602
0.0953428
0.00353421
0.0947543
0.00341017
0.09427
0.00318557
0.0937973
0.0031241
0.00295605
0.113831
-0.0133283
0.110126
-0.00652409
0.10607
-0.00136503
0.102309
0.00182914
0.0989919
0.00385967
0.0961897
0.00503466
0.0938375
0.00564374
0.0918867
0.00587003
0.0902794
0.00586317
0.0889568
0.00569945
0.0878682
0.00546208
0.0869757
0.00515665
0.0862387
0.0048657
0.0856425
0.00452175
0.0851416
0.00426683
0.0847578
0.00391809
0.0844146
0.00375335
0.0841939
0.00340622
0.0839646
0.00335342
0.00305632
0.0942336
-0.00404122
0.08747
0.000239546
0.0817109
0.00439403
0.0777226
0.00581749
0.0748121
0.00677014
0.0728304
0.00701638
0.0714864
0.00698769
0.0706119
0.00674454
0.0700766
0.00639848
0.0697845
0.00599158
0.0696701
0.00557648
0.0696842
0.00514246
0.0697928
0.00475718
0.0699769
0.00433765
0.0702042
0.00403948
0.0704948
0.00362755
0.0707794
0.00346873
0.0711543
0.00303126
0.0714688
0.003039
0.00261435
0.0416489
-0.000233276
0.0396412
0.0022472
0.0389575
0.00507775
0.0395095
0.00526546
0.0404349
0.00584481
0.04176
0.00569128
0.0432082
0.00553949
0.0447258
0.00522697
0.0462489
0.00487537
0.0477481
0.00449239
0.0492094
0.00411518
0.0506176
0.00373423
0.0519754
0.00339937
0.0532755
0.00303756
0.0545215
0.0027935
0.0557237
0.00242532
0.0568561
0.00233635
0.0579921
0.00189528
0.0590094
0.00202163
0.00151253
0.00387658
-0.00410986
0.00455516
0.00156863
0.00521015
0.00442275
0.00588887
0.00458674
0.00666788
0.00506581
0.00747062
0.00488853
0.00827228
0.00473783
0.00904976
0.00444949
0.00979219
0.00413294
0.0104945
0.0037901
0.0111566
0.00345307
0.0117777
0.00311312
0.0123634
0.00281366
0.0129096
0.00249134
0.0134308
0.00227233
0.0139097
0.00194641
0.0143814
0.00186467
0.0147989
0.00147772
0.0152349
0.00158562
0.00114043
0.00141465
-0.0055245
0.00207189
0.000911377
0.00298439
0.00351026
0.00384875
0.00372237
0.00481887
0.00409569
0.00577985
0.00392755
0.00672931
0.00378837
0.00763769
0.00354111
0.00849821
0.00327242
0.00930615
0.00298216
0.0100632
0.00269607
0.0107692
0.00240708
0.0114318
0.00215105
0.0120463
0.00187685
0.012631
0.00168766
0.013164
0.00141336
0.0136904
0.00133825
0.0141485
0.00101963
0.0146351
0.00109902
0.000740132
-0.000279662
-0.00524484
0.000191446
0.000440268
0.00122919
0.00247251
0.00223161
0.00271996
0.00334591
0.00298139
0.00443432
0.00283914
0.00550127
0.00272141
0.00651531
0.00252707
0.00747147
0.00231626
0.0083655
0.00208813
0.00920018
0.00186139
0.00997591
0.00163135
0.0107017
0.00142529
0.0113725
0.00120605
0.012009
0.00105115
0.0125873
0.000835035
0.0131571
0.000768482
0.0136512
0.000525494
0.0141742
0.00057603
0.000309753
-0.00140283
-0.00384201
-0.00105983
9.72711e-05
9.02265e-06
0.00140366
0.00108042
0.00164856
0.00229679
0.00176502
0.00347643
0.00165951
0.00462834
0.0015695
0.00571926
0.00143616
0.00674553
0.00128999
0.00770307
0.00113059
0.00859533
0.000969125
0.00942292
0.000803764
0.0101958
0.00065243
0.0109086
0.000493249
0.0115838
0.000375949
0.0121959
0.000222959
0.0127979
0.00016642
0.0133189
4.55667e-06
0.0138689
2.59609e-05
-0.000142711
-0.00196368
-0.00187833
-0.00175326
-0.000113153
-0.000712841
0.000363244
0.000426755
0.00050896
0.00170415
0.000487628
0.00293734
0.000426321
0.00413948
0.000367359
0.00527622
0.000299414
0.00634474
0.000221466
0.00734094
0.000134395
0.00826858
4.14888e-05
0.00912821
-5.58614e-05
0.0099303
-0.000149662
0.0106692
-0.000245673
0.0113685
-0.000323302
0.0120015
-0.000410101
0.0126236
-0.000455618
0.0131612
-0.000533042
0.0137279
-0.000540778
-0.000608755
-0.00204402
0.000165684
-0.00188926
-0.000267912
-0.000860992
-0.000665021
0.000291949
-0.000643981
0.00158681
-0.000807232
0.00283509
-0.000821957
0.00405138
-0.00084893
0.00520149
-0.000850704
0.00628297
-0.000860009
0.0072916
-0.000874232
0.00823106
-0.000897978
0.0091017
-0.000926496
0.00991403
-0.000962
0.0106622
-0.000993812
0.0113699
-0.00103107
0.0120104
-0.00105058
0.0126394
-0.00108462
0.0131829
-0.00107651
0.0137554
-0.00111327
-0.00107939
-0.00166324
0.00182892
-0.00147037
-0.000460781
-0.000444604
-0.00169078
0.000683437
-0.00177202
0.00194993
-0.00207372
0.00317423
-0.00204626
0.00436798
-0.00204268
0.00549846
-0.00198118
0.00656305
-0.0019246
0.00755736
-0.00186854
0.00848464
-0.00182526
0.00934481
-0.00178667
0.010148
-0.0017652
0.0108881
-0.00173392
0.0115886
-0.00173151
0.0122226
-0.00168465
0.0128454
-0.00170736
0.0133837
-0.00161487
0.0139509
-0.00168043
-0.00154551
-0.000790066
0.00261899
-0.000501366
-0.000749481
0.000518611
-0.00271076
0.00158911
-0.00284252
0.00278477
-0.00326938
0.00394565
-0.00320714
0.00508028
-0.00317731
0.00615841
-0.00305932
0.00717667
-0.00294287
0.00813033
-0.0028222
0.00902178
-0.00271671
0.00985038
-0.00261526
0.0106254
-0.00254021
0.0113405
-0.00244908
0.0120181
-0.00240908
0.0126322
-0.00229878
0.0132357
-0.00231084
0.0137583
-0.00213742
0.0143092
-0.00223134
-0.00199823
0.000616849
0.00200214
0.00105119
-0.00118382
0.00201009
-0.00366966
0.00298706
-0.00381949
0.00406863
-0.00435096
0.0051266
-0.0042651
0.00616652
-0.00421722
0.0071608
-0.0040536
0.00810463
-0.00388669
0.0089926
-0.00371017
0.00982585
-0.00354996
0.0106029
-0.00339234
0.0113318
-0.00326906
0.012006
-0.00312331
0.0126461
-0.00304916
0.0132275
-0.0028802
0.0137996
-0.00288289
0.0142962
-0.00263406
0.0148207
-0.00275585
-0.00242898
0.0026146
-0.000612465
0.00319325
-0.00176247
0.00401075
-0.00448717
0.00484509
-0.00465383
0.0057636
-0.00526947
0.00668186
-0.00518337
0.00759279
-0.00512814
0.00847415
-0.00493496
0.00931768
-0.00473023
0.0101171
-0.00450964
0.0108719
-0.00430472
0.0115794
-0.00409985
0.0122458
-0.0039355
0.0128649
-0.0037424
0.013454
-0.00363822
0.0139919
-0.00341815
0.0145202
-0.00341118
0.0149844
-0.00309819
0.0154689
-0.00324038
-0.00283644
0.0172948
-0.00153705
-0.0163703
0.0182165
-0.00268412
0.0191047
-0.00537537
0.0203303
-0.00587941
0.0216321
-0.0065713
0.0231122
-0.00666346
0.024622
-0.00663791
0.0261472
-0.00646019
0.0276458
-0.00622884
0.0290978
-0.00596162
0.0304937
-0.00570059
0.0318214
-0.00542752
0.0330861
-0.00520025
0.0342778
-0.00493413
0.0354113
-0.00477163
0.0364768
-0.00448374
0.0374889
-0.00442323
0.0384551
-0.00406443
0.0393544
-0.00413961
-0.00374161
0.0430518
0.00562403
-0.0502129
0.039609
0.000758686
0.0374944
-0.00326072
0.0366483
-0.00503333
0.0363029
-0.0062259
0.0364034
-0.006764
0.0367506
-0.00698508
0.0372693
-0.0069789
0.0378933
-0.00685288
0.0385786
-0.00664687
0.0392981
-0.00642009
0.0400273
-0.00615675
0.0407571
-0.00593001
0.0414736
-0.00565062
0.0421741
-0.00547215
0.042858
-0.00516771
0.0435113
-0.00507646
0.0441681
-0.00472125
0.0447699
-0.00474144
-0.00438255
0.0648174
0.0126703
-0.0718637
0.0597475
0.0058286
0.055802
0.000684851
0.0531746
-0.002406
0.0513311
-0.00438241
0.0501109
-0.00554375
0.0493228
-0.00619699
0.0488512
-0.00650729
0.0486087
-0.00661036
0.0485312
-0.00656939
0.0485748
-0.0064637
0.048704
-0.00628599
0.0488956
-0.00612159
0.0491319
-0.00588692
0.0493953
-0.0057355
0.049689
-0.00546145
0.0499807
-0.00536815
0.0503138
-0.00505436
0.0506148
-0.0050424
-0.00474359
0.0763943
0.0166018
-0.0803258
0.0725496
0.00967328
0.0689161
0.00431832
0.0659007
0.000609421
0.0634714
-0.00195315
0.0615618
-0.00363411
0.06008
-0.00471518
0.0589449
-0.00537221
0.0580849
-0.00575039
0.0574409
-0.00592541
0.0569667
-0.00598945
0.0566258
-0.00594511
0.0563875
-0.00588329
0.0562348
-0.00573419
0.0561394
-0.00564008
0.0561086
-0.00543072
0.0560981
-0.00535763
0.0561549
-0.00511112
0.0561987
-0.00508618
-0.00486045
0.0801562
0.0178509
-0.0814052
0.0781255
0.011704
0.0756939
0.00674991
0.0733184
0.00298498
0.0711366
0.000228667
0.0692445
-0.00174209
0.0676366
-0.00310726
0.0662938
-0.00402937
0.0651845
-0.00464114
0.0642751
-0.00501595
0.0635318
-0.00524618
0.062929
-0.00534231
0.0624373
-0.0053916
0.0620459
-0.00534273
0.0617225
-0.00531676
0.0614792
-0.00518736
0.0612671
-0.00514557
0.0611322
-0.00497623
0.0609974
-0.00495133
-0.00479932
0.0800123
0.0176283
-0.0797898
0.0792957
0.0124206
0.0779946
0.00805108
0.0764452
0.00453428
0.0748602
0.00181372
0.0733432
-0.00022512
0.0719662
-0.0017302
0.0707444
-0.0028076
0.069679
-0.00357575
0.0687617
-0.00409866
0.067975
-0.00445949
0.067307
-0.00467432
0.0667348
-0.00481938
0.0662554
-0.00486332
0.0658388
-0.00490016
0.0654998
-0.00484836
0.0651933
-0.00483904
0.0649591
-0.00474209
0.0647319
-0.00472408
-0.00463549
0.0786224
0.0168556
-0.0778497
0.0785858
0.0124572
0.0780032
0.00863372
0.0770988
0.00543867
0.0760464
0.00286608
0.0749621
0.000859198
0.0739108
-0.000678888
0.0729355
-0.00183233
0.07205
-0.00269026
0.0712612
-0.00330984
0.0705629
-0.00376117
0.0699534
-0.00406478
0.0694164
-0.00428241
0.0689546
-0.00440153
0.0685433
-0.00448887
0.0681971
-0.00450217
0.0678794
-0.00452132
0.0676205
-0.00448319
0.0673712
-0.0044748
-0.00443338
0.0771933
0.0159902
-0.0763279
0.0774186
0.0122318
0.0771963
0.00885606
0.0766767
0.00595827
0.0759896
0.00355316
0.075231
0.00161784
0.0744601
9.20289e-05
0.0737194
-0.00109166
0.0730278
-0.00199864
0.0723976
-0.00267965
0.0718282
-0.00319179
0.0713229
-0.00355944
0.0708705
-0.00383003
0.0704756
-0.00400663
0.0701195
-0.00413284
0.0698138
-0.00419648
0.069532
-0.00423943
0.0692933
-0.00424457
0.0690652
-0.00424664
-0.00423573
0.076048
0.0151807
-0.0752385
0.0763438
0.0119361
0.0762751
0.00892476
0.0759555
0.00627787
0.0754816
0.00402703
0.0749301
0.00216933
0.0743539
0.000668304
0.0737861
-0.000523886
0.0732479
-0.00146042
0.0727515
-0.00218327
0.0722986
-0.00273889
0.0718937
-0.00315449
0.0715291
-0.00346549
0.0712088
-0.00368633
0.0709196
-0.00384363
0.0706684
-0.0039453
0.0704378
-0.00400884
0.0702374
-0.00404418
0.0700478
-0.00405697
-0.00406344
0.0751597
0.0144496
-0.0744286
0.0754648
0.011631
0.0754619
0.00892764
0.0752454
0.00649432
0.0748926
0.00437983
0.0744669
0.00259502
0.0740131
0.00112217
0.0735607
-7.15292e-05
0.0731286
-0.00102832
0.0727284
-0.00178305
0.0723626
-0.00237313
0.0720354
-0.00282726
0.0717417
-0.00317177
0.0714836
-0.00342825
0.0712523
-0.00361236