x,y,z,U_0,U_1,U_2
0,0,0,0.3,-0.00089239,0
0,0.1,0,0.3,-0.000535434,0
0,0.2,0,0.3,-0.000178478,0
0,0.3,0,0.3,0,0
0,0.4,0,0.3,0,0
0,0.5,0,0.3,0,0
0,0.6,0,0.3,0,0
0,0.7,0,0.3,0,0
0,0.8,0,0.3,0,0
0,0.9,0,0.3,0,0
0,1,0,0.3,0,0
0,1.1,0,0.3,0,0
0,1.2,0,0.3,0,0
0,1.3,0,0.3,0,0
0,1.4,0,0.3,0,0
0,1.5,0,0.3,0,0
0,1.6,0,0.3,0,0
0,1.7,0,0.3,0,0
0,1.8,0,0.3,0,0
0,1.9,0,0.3,0,0
0,2,0,0.3,0,0
0,2.1,0,0.3,0,0
0,2.2,0,0.3,0,0
0,2.3,0,0.3,0,0
0,2.4,0,0.3,0,0
0,2.5,0,0.3,0,0
0,2.6,0,0.3,0,0
0,2.7,0,0.3,0,0
0,2.8,0,0.3,0,0
0,2.9,0,0.3,0,0
0,3,0,0.3,0,0
0,3.1,0,0.3,0,0
0,3.2,0,0.3,0,0
0,3.3,0,0.3,0,0
0,3.4,0,0.3,0,0
0,3.5,0,0.3,0,0
0,3.6,0,0.3,0,0
0,3.7,0,0.3,0,0
0,3.8,0,0.3,0,0
0,3.9,0,0.3,0,0
0,4,0,0.3,0,0
0,4.1,0,0.3,0,0
0,4.2,0,0.3,0,0
0,4.3,0,0.3,0,0
0,4.4,0,0.3,0,0
0,4.5,0,0.3,0,0
0,4.6,0,0.3,0,0
0,4.7,0,0.3,0,0
0,4.8,0,0.3,0,0
0,4.9,0,0.3,0,0
0,5,0,0.3,0,0
0,5.1,0,0.3,0,0
0,5.2,0,0.3,0,0
0,5.3,0,0.3,0,0
0,5.4,0,0.3,0,0
0,5.5,0,0.3,0,0
0,5.6,0,0.3,0,0
0,5.7,0,0.3,0,0
0,5.8,0,0.3,0,0
0,5.9,0,0.3,0,0
0,6,0,0.3,0,0
0,6.1,0,0.3,0,0
0,6.2,0,0.3,0,0
0,6.3,0,0.3,0,0
0,6.4,0,0.3,0,0
0,6.5,0,0.3,0,0
0,6.6,0,0.3,0,0
0,6.7,0,0.3,0,0
0,6.8,0,0.3,0,0
0,6.9,0,0.3,0,0
0,7,0,0.3,0,0
0,7.1,0,0.3,0,0
0,7.2,0,0.3,0,0
0,7.3,0,0.3,0,0
0,7.4,0,0.3,0,0
0,7.5,0,0.3,0,0
0,7.6,0,0.3,0,0
0,7.7,0,0.3,0,0
0,7.8,0,0.3,0,0
0,7.9,0,0.3,0,0
0,8,0,0.3,0,0
0,8.1,0,0.3,0,0
0,8.2,0,0.3,0,0
0,8.3,0,0.3,0,0
0,8.4,0,0.3,0,0
0,8.5,0,0.3,0,0
0,8.6,0,0.3,0,0
0,8.7,0,0.3,0,0
0,8.8,0,0.3,0,0
0,8.9,0,0.3,0,0
0,9,0,0.3,0,0
0,9.1,0,0.3,0,0
0,9.2,0,0.3,0,0
0,9.3,0,0.3,0,0
0,9.4,0,0.3,0,0
0,9.5,0,0.3,0,0
0,9.6,0,0.3,0,0
0,9.7,0,0.3,0,0
0,9.8,0,0.3,0,0
0,9.9,0,0.3,0,0
0,10,0,0.3,0,0
0,10.1,0,0.3,0,0
0,10.2,0,0.3,0,0
0,10.3,0,0.3,0,0
0,10.4,0,0.3,0,0
0,10.5,0,0.3,0,0
0,10.6,0,0.3,0,0
0,10.7,0,0.3,0,0
0,10.8,0,0.3,0,0
0,10.9,0,0.3,0,0
0,11,0,0.3,0,0
0,11.1,0,0.3,0,0
0,11.2,0,0.3,0,0
0,11.3,0,0.3,0,0
0,11.4,0,0.3,0,0
0,11.5,0,0.3,0,0
0,11.6,0,0.3,0,0
0,11.7,0,0.3,0,0
0,11.8,0,0.3,0,0
0,11.9,0,0.3,0,0
0,12,0,0.3,0,0
0,12.1,0,0.3,0,0
0,12.2,0,0.3,0,0
0,12.3,0,0.3,0,0
0,12.4,0,0.3,0,0
0,12.5,0,0.3,0.000221059,0
0,12.6,0,0.3,0.000481129,0
0,12.7,0,0.3,0.000741198,0
0.1,0,0,0.300001,-0.00196247,0
0.1,0.1,0,0.3,-0.0016063,0
0.1,0.2,0,0.300001,-0.00142862,0
0.1,0.3,0,0.300002,-0.00143095,0
0.1,0.4,0,0.300001,-0.00143248,0
0.1,0.5,0,0.300005,-0.00143634,0
0.1,0.6,0,0.300001,-0.00144144,0
0.1,0.7,0,0.300004,-0.00144437,0
0.1,0.8,0,0.300004,-0.00145073,0
0.1,0.9,0,0.300002,-0.00145415,0
0.1,1,0,0.300009,-0.00146168,0
0.1,1.1,0,0.300002,-0.00146988,0
0.1,1.2,0,0.300006,-0.00147427,0
0.1,1.3,0,0.300006,-0.00148317,0
0.1,1.4,0,0.300002,-0.0014877,0
0.1,1.5,0,0.300011,-0.0014972,0
0.1,1.6,0,0.300002,-0.00150646,0
0.1,1.7,0,0.300006,-0.00151125,0
0.1,1.8,0,0.300006,-0.00152041,0
0.1,1.9,0,0.300002,-0.00152478,0
0.1,2,0,0.300009,-0.00153367,0
0.1,2.1,0,0.300002,-0.00154101,0
0.1,2.2,0,0.300004,-0.00154464,0
0.1,2.3,0,0.300004,-0.00155073,0
0.1,2.4,0,0.300001,-0.00155318,0
0.1,2.5,0,0.300004,-0.00155777,0
0.1,2.6,0,0.300001,-0.00155912,0
0.1,2.7,0,0.3,-0.00155948,0
0.1,2.8,0,0.299999,-0.0015581,0
0.1,2.9,0,0.299999,-0.00155637,0
0.1,3,0,0.299993,-0.00155191,0
0.1,3.1,0,0.299998,-0.00154231,0
0.1,3.2,0,0.299992,-0.00153681,0
0.1,3.3,0,0.299991,-0.00152278,0
0.1,3.4,0,0.299997,-0.00151425,0
0.1,3.5,0,0.299976,-0.00149533,0
0.1,3.6,0,0.299995,-0.00146954,0
0.1,3.7,0,0.29998,-0.00145548,0
0.1,3.8,0,0.299979,-0.00142359,0
0.1,3.9,0,0.299993,-0.00140575,0
0.1,4,0,0.299954,-0.00136735,0
0.1,4.1,0,0.29999,-0.00132093,0
0.1,4.2,0,0.299966,-0.00129619,0
0.1,4.3,0,0.299965,-0.00124262,0
0.1,4.4,0,0.299988,-0.00121378,0
0.1,4.5,0,0.29993,-0.00115285,0
0.1,4.6,0,0.299986,-0.00108393,0
0.1,4.7,0,0.299952,-0.00104786,0
0.1,4.8,0,0.29995,-0.000972121,0
0.1,4.9,0,0.299983,-0.00093244,0
0.1,5,0,0.299907,-0.000858419,0
0.1,5.1,0,0.299982,-0.000779275,0
0.1,5.2,0,0.299899,-0.000707028,0
0.1,5.3,0,0.29998,-0.000630019,0
0.1,5.4,0,0.299893,-0.000552682,0
0.1,5.5,0,0.299979,-0.000471454,0
0.1,5.6,0,0.299888,-0.000390141,0
0.1,5.7,0,0.299978,-0.000306135,0
0.1,5.8,0,0.299885,-0.000222028,0
0.1,5.9,0,0.299978,-0.000136636,0
0.1,6,0,0.299884,-5.10888e-05,0
0.1,6.1,0,0.299978,3.42581e-05,0
0.1,6.2,0,0.299885,0.000119781,0
0.1,6.3,0,0.299978,0.000203629,0
0.1,6.4,0,0.299888,0.000287661,0
0.1,6.5,0,0.299979,0.000368646,0
0.1,6.6,0,0.299893,0.000449822,0
0.1,6.7,0,0.29998,0.000526842,0
0.1,6.8,0,0.299899,0.000603628,0
0.1,6.9,0,0.299982,0.000675575,0
0.1,7,0,0.299908,0.000759259,0
0.1,7.1,0,0.299974,0.000828646,0
0.1,7.2,0,0.299967,0.000860658,0
0.1,7.3,0,0.299928,0.000936535,0
0.1,7.4,0,0.299986,0.00100596,0
0.1,7.5,0,0.299966,0.00103438,0
0.1,7.6,0,0.299948,0.00109672,0
0.1,7.7,0,0.299989,0.00114471,0
0.1,7.8,0,0.299968,0.00117508,0
0.1,7.9,0,0.299966,0.00122317,0
0.1,8,0,0.299992,0.0012535,0
0.1,8.1,0,0.299973,0.0012821,0
0.1,8.2,0,0.299979,0.00131645,0
0.1,8.3,0,0.299994,0.00133345,0
0.1,8.4,0,0.299979,0.00135729,0
0.1,8.5,0,0.299989,0.00137917,0
0.1,8.6,0,0.299996,0.00138772,0
0.1,8.7,0,0.299987,0.00140401,0
0.1,8.8,0,0.299996,0.00141514,0
0.1,8.9,0,0.299998,0.00141909,0
0.1,9,0,0.299996,0.00142626,0
0.1,9.1,0,0.3,0.00142888,0
0.1,9.2,0,0.300001,0.00142919,0
0.1,9.3,0,0.300002,0.00142865,0
0.1,9.4,0,0.300001,0.0014253,0
0.1,9.5,0,0.300004,0.0014227,0
0.1,9.6,0,0.300006,0.0014164,0
0.1,9.7,0,0.300002,0.00140998,0
0.1,9.8,0,0.300008,0.00140404,0
0.1,9.9,0,0.300008,0.00139379,0
0.1,10,0,0.300002,0.00138661,0
0.1,10.1,0,0.300011,0.00137725,0
0.1,10.2,0,0.300008,0.00136462,0
0.1,10.3,0,0.300003,0.00135823,0
0.1,10.4,0,0.300013,0.0013458,0
0.1,10.5,0,0.300007,0.00133213,0
0.1,10.6,0,0.300004,0.00132622,0
0.1,10.7,0,0.300015,0.00131261,0
0.1,10.8,0,0.300005,0.00129898,0
0.1,10.9,0,0.300006,0.00129323,0
0.1,11,0,0.300013,0.00128009,0
0.1,11.1,0,0.300003,0.00126733,0
0.1,11.2,0,0.300006,0.0012621,0
0.1,11.3,0,0.300011,0.00125021,0
0.1,11.4,0,0.300002,0.00124012,0
0.1,11.5,0,0.300006,0.00123447,0
0.1,11.6,0,0.300008,0.00122442,0
0.1,11.7,0,0.300002,0.00121742,0
0.1,11.8,0,0.300006,0.00121159,0
0.1,11.9,0,0.300005,0.00120381,0
0.1,12,0,0.300002,0.00119954,0
0.1,12.1,0,0.300005,0.0011944,0
0.1,12.2,0,0.300003,0.00118925,0
0.1,12.3,0,0.300001,0.00118716,0
0.1,12.4,0,0.300003,0.00118362,0
0.1,12.5,0,0.300001,0.00118135,0
0.1,12.6,0,0.3,0.0013653,0
0.1,12.7,0,0.300002,0.00162455,0
0.2,0,0,0.300003,-0.00303254,0
0.2,0.1,0,0.300003,-0.00285565,0
0.2,0.2,0,0.300004,-0.00285804,0
0.2,0.3,0,0.300004,-0.00286037,0
0.2,0.4,0,0.300007,-0.00286729,0
0.2,0.5,0,0.30001,-0.00287268,0
0.2,0.6,0,0.300009,-0.00288071,0
0.2,0.7,0,0.300011,-0.00289167,0
0.2,0.8,0,0.300011,-0.00289803,0
0.2,0.9,0,0.300013,-0.00291241,0
0.2,1,0,0.300017,-0.00292336,0
0.2,1.1,0,0.300014,-0.00293595,0
0.2,1.2,0,0.300016,-0.00295292,0
0.2,1.3,0,0.300016,-0.00296183,0
0.2,1.4,0,0.300017,-0.00298037,0
0.2,1.5,0,0.300021,-0.00299439,0
0.2,1.6,0,0.300017,-0.00300845,0
0.2,1.7,0,0.300017,-0.00302729,0
0.2,1.8,0,0.300016,-0.00303645,0
0.2,1.9,0,0.300015,-0.00305408,0
0.2,2,0,0.300019,-0.00306733,0
0.2,2.1,0,0.300014,-0.0030783,0
0.2,2.2,0,0.300012,-0.00309291,0
0.2,2.3,0,0.300011,-0.003099,0
0.2,2.4,0,0.300008,-0.0031085,0
0.2,2.5,0,0.300008,-0.00311555,0
0.2,2.6,0,0.300004,-0.00311725,0
0.2,2.7,0,0.299999,-0.00311932,0
0.2,2.8,0,0.299998,-0.00311794,0
0.2,2.9,0,0.299992,-0.00311001,0
0.2,3,0,0.299986,-0.00310382,0
0.2,3.1,0,0.299985,-0.00308872,0
0.2,3.2,0,0.299977,-0.00306812,0
0.2,3.3,0,0.299976,-0.00305409,0
0.2,3.4,0,0.299967,-0.00301811,0
0.2,3.5,0,0.299953,-0.00299066,0
0.2,3.6,0,0.299957,-0.00295081,0
0.2,3.7,0,0.299946,-0.0028969,0
0.2,3.8,0,0.299945,-0.002865,0
0.2,3.9,0,0.299933,-0.00279094,0
0.2,4,0,0.299908,-0.0027347,0
0.2,4.1,0,0.29992,-0.00266355,0
0.2,4.2,0,0.299908,-0.00256765,0
0.2,4.3,0,0.299907,-0.00251408,0
0.2,4.4,0,0.299895,-0.00239547,0
0.2,4.5,0,0.299859,-0.0023057,0
0.2,4.6,0,0.299881,-0.00220072,0
0.2,4.7,0,0.299869,-0.00205967,0
0.2,4.8,0,0.299868,-0.00198392,0
0.2,4.9,0,0.299857,-0.00183054,0
0.2,5,0,0.299814,-0.00171684,0
0.2,5.1,0,0.299845,-0.00156372,0
0.2,5.2,0,0.299798,-0.00141406,0
0.2,5.3,0,0.299834,-0.00125979,0
0.2,5.4,0,0.299785,-0.00110536,0
0.2,5.5,0,0.299825,-0.000942844,0
0.2,5.6,0,0.299776,-0.000780281,0
0.2,5.7,0,0.299819,-0.000612194,0
0.2,5.8,0,0.29977,-0.000444057,0
0.2,5.9,0,0.299816,-0.000273156,0
0.2,6,0,0.299768,-0.000102178,0
0.2,6.1,0,0.299816,6.86481e-05,0
0.2,6.2,0,0.29977,0.000239562,0
0.2,6.3,0,0.299819,0.000407396,0
0.2,6.4,0,0.299776,0.000575322,0
0.2,6.5,0,0.299826,0.000737435,0
0.2,6.6,0,0.299786,0.000899644,0
0.2,6.7,0,0.299834,0.00105351,0
0.2,6.8,0,0.299799,0.00120726,0
0.2,6.9,0,0.299846,0.00135995,0
0.2,7,0,0.299815,0.00151852,0
0.2,7.1,0,0.299858,0.00162097,0
0.2,7.2,0,0.299868,0.00176725,0
0.2,7.3,0,0.299848,0.00186255,0
0.2,7.4,0,0.29988,0.00197013,0
0.2,7.5,0,0.299892,0.00210484,0
0.2,7.6,0,0.299882,0.0021763,0
0.2,7.7,0,0.299904,0.00227101,0
0.2,7.8,0,0.299916,0.00237846,0
0.2,7.9,0,0.299914,0.00242655,0
0.2,8,0,0.299929,0.00250452,0
0.2,8.1,0,0.299935,0.00257966,0
0.2,8.2,0,0.299941,0.00261481,0
0.2,8.3,0,0.299952,0.00267308,0
0.2,8.4,0,0.299954,0.00272128,0
0.2,8.5,0,0.299963,0.00274609,0
0.2,8.6,0,0.299972,0.00278262,0
0.2,8.7,0,0.299973,0.00280964,0
0.2,8.8,0,0.299981,0.00282322,0
0.2,8.9,0,0.299989,0.0028412,0
0.2,9,0,0.299991,0.00285238,0
0.2,9.1,0,0.299996,0.00285511,0
0.2,9.2,0,0.300002,0.00285796,0
0.2,9.3,0,0.300005,0.00285802,0
0.2,9.4,0,0.300007,0.00285111,0
0.2,9.5,0,0.300012,0.00284223,0
0.2,9.6,0,0.300014,0.00283565,0
0.2,9.7,0,0.300016,0.00282028,0
0.2,9.8,0,0.300019,0.00280344,0
0.2,9.9,0,0.300019,0.0027932,0
0.2,10,0,0.300021,0.00277095,0
0.2,10.1,0,0.300025,0.00275034,0
0.2,10.2,0,0.300023,0.00273666,0
0.2,10.3,0,0.300024,0.00271039,0
0.2,10.4,0,0.300028,0.00268895,0
0.2,10.5,0,0.300024,0.00267215,0
0.2,10.6,0,0.300024,0.00264476,0
0.2,10.7,0,0.30003,0.00262454,0
0.2,10.8,0,0.300024,0.0026059,0
0.2,10.9,0,0.300023,0.00257909,0
0.2,11,0,0.300028,0.00256146,0
0.2,11.1,0,0.300022,0.00254229,0
0.2,11.2,0,0.300021,0.00251744,0
0.2,11.3,0,0.300023,0.00250325,0
0.2,11.4,0,0.300019,0.0024848,0
0.2,11.5,0,0.300018,0.00246301,0
0.2,11.6,0,0.300019,0.00245261,0
0.2,11.7,0,0.300015,0.00243615,0
0.2,11.8,0,0.300014,0.00241938,0
0.2,11.9,0,0.300014,0.0024116,0
0.2,12,0,0.300011,0.00239837,0
0.2,12.1,0,0.300011,0.00238697,0
0.2,12.2,0,0.300009,0.00238135,0
0.2,12.3,0,0.300007,0.00237303,0
0.2,12.4,0,0.300006,0.0023667,0
0.2,12.5,0,0.300004,0.0023642,0
0.2,12.6,0,0.300003,0.00236135,0
0.2,12.7,0,0.300003,0.0025079,0
0.3,0,0,0.300006,-0.00427915,0
0.3,0.1,0,0.300005,-0.00428189,0
0.3,0.2,0,0.300007,-0.00428428,0
0.3,0.3,0,0.300011,-0.00429149,0
0.3,0.4,0,0.300013,-0.00429841,0
0.3,0.5,0,0.300019,-0.00430744,0
0.3,0.6,0,0.30002,-0.00432102,0
0.3,0.7,0,0.300022,-0.00433198,0
0.3,0.8,0,0.300026,-0.00435133,0
0.3,0.9,0,0.300027,-0.00436571,0
0.3,1,0,0.300034,-0.00438409,0
0.3,1.1,0,0.300032,-0.00440533,0
0.3,1.2,0,0.300033,-0.0044223,0
0.3,1.3,0,0.300035,-0.00444948,0
0.3,1.4,0,0.300036,-0.00446802,0
0.3,1.5,0,0.300041,-0.0044916,0
0.3,1.6,0,0.300036,-0.00451542,0
0.3,1.7,0,0.300036,-0.00453426,0
0.3,1.8,0,0.300035,-0.0045624,0
0.3,1.9,0,0.300034,-0.00458002,0
0.3,2,0,0.300036,-0.00460237,0
0.3,2.1,0,0.300029,-0.00462123,0
0.3,2.2,0,0.300027,-0.00463583,0
0.3,2.3,0,0.300022,-0.00465496,0
0.3,2.4,0,0.300019,-0.00466446,0
0.3,2.5,0,0.300015,-0.00467644,0
0.3,2.6,0,0.300007,-0.00468008,0
0.3,2.7,0,0.300002,-0.00468214,0
0.3,2.8,0,0.299992,-0.00467898,0
0.3,2.9,0,0.299986,-0.00467105,0
0.3,3,0,0.299973,-0.00466088,0
0.3,3.1,0,0.299966,-0.00463665,0
0.3,3.2,0,0.299958,-0.00461605,0
0.3,3.3,0,0.299942,-0.00457483,0
0.3,3.4,0,0.299933,-0.00453885,0
0.3,3.5,0,0.299909,-0.00449317,0
0.3,3.6,0,0.299904,-0.00442759,0
0.3,3.7,0,0.299894,-0.00437368,0
0.3,3.8,0,0.299873,-0.0042786,0
0.3,3.9,0,0.299861,-0.00420453,0
0.3,4,0,0.299824,-0.00411071,0
0.3,4.1,0,0.299826,-0.00399268,0
0.3,4.2,0,0.299814,-0.00389678,0
0.3,4.3,0,0.299791,-0.00373608,0
0.3,4.4,0,0.299778,-0.00361747,0
0.3,4.5,0,0.299728,-0.00346745,0
0.3,4.6,0,0.299742,-0.00329242,0
0.3,4.7,0,0.29973,-0.00315137,0
0.3,4.8,0,0.299708,-0.00292306,0
0.3,4.9,0,0.299697,-0.00276968,0
0.3,5,0,0.29964,-0.00258251,0
0.3,5.1,0,0.299668,-0.0023481,0
0.3,5.2,0,0.299609,-0.00212713,0
0.3,5.3,0,0.299644,-0.00189423,0
0.3,5.4,0,0.299585,-0.00166284,0
0.3,5.5,0,0.299626,-0.00141766,0
0.3,5.6,0,0.299567,-0.00117372,0
0.3,5.7,0,0.299613,-0.000920351,0
0.3,5.8,0,0.299555,-0.0006677,0
0.3,5.9,0,0.299606,-0.000410342,0
0.3,6,0,0.299551,-0.000153115,0
0.3,6.1,0,0.299607,0.000103857,0
0.3,6.2,0,0.299555,0.000361254,0
0.3,6.3,0,0.299613,0.000613424,0
0.3,6.4,0,0.299567,0.000866558,0
0.3,6.5,0,0.299627,0.00110978,0
0.3,6.6,0,0.299586,0.00135451,0
0.3,6.7,0,0.299646,0.00158497,0
0.3,6.8,0,0.29961,0.00181711,0
0.3,6.9,0,0.29967,0.00204059,0
0.3,7,0,0.299643,0.00228528,0
0.3,7.1,0,0.2997,0.00246644,0
0.3,7.2,0,0.29971,0.00261272,0
0.3,7.3,0,0.299703,0.00281822,0
0.3,7.4,0,0.299747,0.00298441,0
0.3,7.5,0,0.299759,0.00311911,0
0.3,7.6,0,0.299768,0.00329911,0
0.3,7.7,0,0.299798,0.00342439,0
0.3,7.8,0,0.29981,0.00353392,0
0.3,7.9,0,0.29983,0.00367811,0
0.3,8,0,0.299848,0.00376648,0
0.3,8.1,0,0.299858,0.0038548,0
0.3,8.2,0,0.299885,0.00395615,0
0.3,8.3,0,0.299896,0.00401442,0
0.3,8.4,0,0.299904,0.00407967,0
0.3,8.5,0,0.299928,0.00414019,0
0.3,8.6,0,0.299938,0.00417672,0
0.3,8.7,0,0.299946,0.00421872,0
0.3,8.8,0,0.299965,0.00424691,0
0.3,8.9,0,0.299973,0.00426489,0
0.3,9,0,0.299983,0.00428418,0
0.3,9.1,0,0.299995,0.00428912,0
0.3,9.2,0,0.300001,0.00429197,0
0.3,9.3,0,0.300012,0.00429007,0
0.3,9.4,0,0.300018,0.00428016,0
0.3,9.5,0,0.300022,0.00427128,0
0.3,9.6,0,0.300031,0.00425209,0
0.3,9.7,0,0.300034,0.00423296,0
0.3,9.8,0,0.300038,0.00421476,0
0.3,9.9,0,0.300043,0.00418318,0
0.3,10,0,0.300045,0.00415931,0
0.3,10.1,0,0.300049,0.00413331,0
0.3,10.2,0,0.30005,0.00409585,0
0.3,10.3,0,0.300051,0.00406958,0
0.3,10.4,0,0.300056,0.00403807,0
0.3,10.5,0,0.300052,0.00399989,0
0.3,10.6,0,0.300052,0.0039725,0
0.3,10.7,0,0.300058,0.00393776,0
0.3,10.8,0,0.300051,0.00390204,0
0.3,10.9,0,0.30005,0.00387523,0
0.3,11,0,0.300054,0.00383964,0
0.3,11.1,0,0.300047,0.00380841,0
0.3,11.2,0,0.300046,0.00378356,0
0.3,11.3,0,0.300046,0.00374959,0
0.3,11.4,0,0.300041,0.0037239,0
0.3,11.5,0,0.300039,0.00370211,0
0.3,11.6,0,0.300037,0.00367194,0
0.3,11.7,0,0.300033,0.00365228,0
0.3,11.8,0,0.300032,0.00363342,0
0.3,11.9,0,0.300027,0.00360995,0
0.3,12,0,0.300025,0.00359643,0
0.3,12.1,0,0.300023,0.00358156,0
0.3,12.2,0,0.300017,0.00356685,0
0.3,12.3,0,0.300015,0.00355853,0
0.3,12.4,0,0.300013,0.00354893,0
0.3,12.5,0,0.300007,0.0035431,0
0.3,12.6,0,0.300006,0.00354025,0
0.3,12.7,0,0.300007,0.00353737,0
0.4,0,0,0.30001,-0.00570229,0
0.4,0.1,0,0.300009,-0.00570539,0
0.4,0.2,0,0.300014,-0.00571004,0
0.4,0.3,0,0.300019,-0.00571725,0
0.4,0.4,0,0.300024,-0.00572949,0
0.4,0.5,0,0.300033,-0.00574061,0
0.4,0.6,0,0.300032,-0.00575682,0
0.4,0.7,0,0.300042,-0.00577668,0
0.4,0.8,0,0.300045,-0.00579603,0
0.4,0.9,0,0.300047,-0.00582149,0
0.4,1,0,0.300058,-0.00584386,0
0.4,1.1,0,0.300052,-0.00586937,0
0.4,1.2,0,0.30006,-0.00589992,0
0.4,1.3,0,0.300062,-0.00592709,0
0.4,1.4,0,0.30006,-0.00596021,0
0.4,1.5,0,0.30007,-0.00598882,0
0.4,1.6,0,0.300061,-0.00601761,0
0.4,1.7,0,0.300065,-0.00605159,0
0.4,1.8,0,0.300063,-0.00607973,0
0.4,1.9,0,0.300056,-0.00611171,0
0.4,2,0,0.300062,-0.00613879,0
0.4,2.1,0,0.30005,-0.0061619,0
0.4,2.2,0,0.300047,-0.00618851,0
0.4,2.3,0,0.300042,-0.00620764,0
0.4,2.4,0,0.30003,-0.006226,0
0.4,2.5,0,0.300026,-0.00624045,0
0.4,2.6,0,0.300015,-0.00624566,0
0.4,2.7,0,0.300001,-0.0062502,0
0.4,2.8,0,0.29999,-0.00624703,0
0.4,2.9,0,0.299974,-0.0062355,0
0.4,3,0,0.299955,-0.00622309,0
0.4,3.1,0,0.299947,-0.00619523,0
0.4,3.2,0,0.299919,-0.00615974,0
0.4,3.3,0,0.299903,-0.00611852,0
0.4,3.4,0,0.299884,-0.00605824,0
0.4,3.5,0,0.299845,-0.00600285,0
0.4,3.6,0,0.299847,-0.00592562,0
0.4,3.7,0,0.299802,-0.00583116,0
0.4,3.8,0,0.299781,-0.00573608,0
0.4,3.9,0,0.299763,-0.00560895,0
0.4,4,0,0.299701,-0.00549538,0
0.4,4.1,0,0.299718,-0.0053552,0
0.4,4.2,0,0.299657,-0.00518619,0
0.4,4.3,0,0.299634,-0.00502548,0
0.4,4.4,0,0.299624,-0.00481952,0
0.4,4.5,0,0.299537,-0.00463808,0
0.4,4.6,0,0.299577,-0.00442908,0
0.4,4.7,0,0.299505,-0.00417981,0
0.4,4.8,0,0.299483,-0.0039515,0
0.4,4.9,0,0.29949,-0.00367638,0
0.4,5,0,0.299386,-0.00345542,0
0.4,5.1,0,0.299447,-0.0031374,0
0.4,5.2,0,0.299332,-0.00284625,0
0.4,5.3,0,0.299407,-0.00253417,0
0.4,5.4,0,0.29929,-0.00222512,0
0.4,5.5,0,0.299376,-0.00189655,0
0.4,5.6,0,0.299259,-0.00157045,0
0.4,5.7,0,0.299354,-0.00123099,0
0.4,5.8,0,0.299239,-0.000892959,0
0.4,5.9,0,0.299342,-0.000548299,0
0.4,6,0,0.299233,-0.000203902,0
0.4,6.1,0,0.299343,0.000140052,0
0.4,6.2,0,0.29924,0.000484856,0
0.4,6.3,0,0.299354,0.000822149,0
0.4,6.4,0,0.29926,0.00116137,0
0.4,6.5,0,0.299377,0.00148638,0
0.4,6.6,0,0.299292,0.00181441,0
0.4,6.7,0,0.299409,0.00212212,0
0.4,6.8,0,0.299335,0.00243318,0
0.4,6.9,0,0.299449,0.00272515,0
0.4,7,0,0.299391,0.00305954,0
0.4,7.1,0,0.299482,0.00326702,0
0.4,7.2,0,0.299506,0.00353176,0
0.4,7.3,0,0.299484,0.00376168,0
0.4,7.4,0,0.299571,0.00397195,0
0.4,7.5,0,0.299585,0.00420933,0
0.4,7.6,0,0.299589,0.00439722,0
0.4,7.7,0,0.29966,0.00457505,0
0.4,7.8,0,0.29967,0.00475567,0
0.4,7.9,0,0.299691,0.00489986,0
0.4,8,0,0.299749,0.00504089,0
0.4,8.1,0,0.299756,0.00516961,0
0.4,8.2,0,0.299784,0.005272,0
0.4,8.3,0,0.299831,0.00537519,0
0.4,8.4,0,0.299837,0.00545912,0
0.4,8.5,0,0.299866,0.00552378,0
0.4,8.6,0,0.299902,0.00558946,0
0.4,8.7,0,0.299909,0.00563764,0
0.4,8.8,0,0.299934,0.00566999,0
0.4,8.9,0,0.29996,0.00570069,0
0.4,9,0,0.299971,0.00572123,0
0.4,9.1,0,0.299988,0.00572811,0
0.4,9.2,0,0.300007,0.00573066,0
0.4,9.3,0,0.300019,0.00572802,0
0.4,9.4,0,0.300028,0.00571588,0
0.4,9.5,0,0.300044,0.00569755,0
0.4,9.6,0,0.300054,0.00567771,0
0.4,9.7,0,0.300057,0.00565007,0
0.4,9.8,0,0.300071,0.00561852,0
0.4,9.9,0,0.300076,0.00558694,0
0.4,10,0,0.300075,0.00554774,0
0.4,10.1,0,0.300088,0.005509,0
0.4,10.2,0,0.300087,0.00547046,0
0.4,10.3,0,0.300085,0.00542353,0
0.4,10.4,0,0.300097,0.0053823,0
0.4,10.5,0,0.300091,0.00534081,0
0.4,10.6,0,0.300088,0.00529101,0
0.4,10.7,0,0.3001,0.00524949,0
0.4,10.8,0,0.300088,0.00520832,0
0.4,10.9,0,0.300086,0.00515978,0
0.4,11,0,0.300093,0.00511977,0
0.4,11.1,0,0.30008,0.00508135,0
0.4,11.2,0,0.30008,0.00503669,0
0.4,11.3,0,0.300082,0.00500056,0
0.4,11.4,0,0.300069,0.00496547,0
0.4,11.5,0,0.300069,0.00492788,0
0.4,11.6,0,0.300067,0.0048974,0
0.4,11.7,0,0.300056,0.0048671,0
0.4,11.8,0,0.300056,0.00483798,0
0.4,11.9,0,0.300051,0.0048145,0
0.4,12,0,0.300041,0.00479074,0
0.4,12.1,0,0.300039,0.00477049,0
0.4,12.2,0,0.300033,0.00475504,0
0.4,12.3,0,0.300024,0.00473939,0
0.4,12.4,0,0.300021,0.00472797,0
0.4,12.5,0,0.300015,0.00472131,0
0.4,12.6,0,0.30001,0.00471586,0
0.4,12.7,0,0.300012,0.00471295,0
0.5,0,0,0.300015,-0.00712543,0
0.5,0.1,0,0.300019,-0.00713044,0
0.5,0.2,0,0.300023,-0.00713545,0
0.5,0.3,0,0.30003,-0.00714512,0
0.5,0.4,0,0.300038,-0.00715945,0
0.5,0.5,0,0.300046,-0.00717379,0
0.5,0.6,0,0.300054,-0.00719627,0
0.5,0.7,0,0.300062,-0.00721876,0
0.5,0.8,0,0.300069,-0.00724473,0
0.5,0.9,0,0.300075,-0.00727418,0
0.5,1,0,0.300082,-0.00730363,0
0.5,1.1,0,0.300086,-0.00733844,0
0.5,1.2,0,0.300091,-0.00737326,0
0.5,1.3,0,0.300094,-0.00740974,0
0.5,1.4,0,0.300096,-0.00744789,0
0.5,1.5,0,0.300099,-0.00748604,0
0.5,1.6,0,0.300098,-0.00752499,0
0.5,1.7,0,0.300098,-0.00756395,0
0.5,1.8,0,0.300095,-0.00760178,0
0.5,1.9,0,0.300091,-0.00763849,0
0.5,2,0,0.300088,-0.0076752,0
0.5,2.1,0,0.30008,-0.00770607,0
0.5,2.2,0,0.300072,-0.00773693,0
0.5,2.3,0,0.300062,-0.00776278,0
0.5,2.4,0,0.30005,-0.00778362,0
0.5,2.5,0,0.300037,-0.00780446,0
0.5,2.6,0,0.30002,-0.00781057,0
0.5,2.7,0,0.300003,-0.00781668,0
0.5,2.8,0,0.299983,-0.00781285,0
0.5,2.9,0,0.29996,-0.00779907,0
0.5,3,0,0.299937,-0.0077853,0
0.5,3.1,0,0.299909,-0.00774618,0
0.5,3.2,0,0.29988,-0.00770705,0
0.5,3.3,0,0.299849,-0.0076525,0
0.5,3.4,0,0.299816,-0.00758252,0
0.5,3.5,0,0.299782,-0.00751253,0
0.5,3.6,0,0.299743,-0.00740642,0
0.5,3.7,0,0.299704,-0.0073003,0
0.5,3.8,0,0.299663,-0.0071738,0
0.5,3.9,0,0.29962,-0.00702692,0
0.5,4,0,0.299577,-0.00688005,0
0.5,4.1,0,0.299532,-0.0066889,0
0.5,4.2,0,0.299486,-0.00649774,0
0.5,4.3,0,0.299439,-0.00628347,0
0.5,4.4,0,0.299392,-0.00604609,0
0.5,4.5,0,0.299345,-0.00580871,0
0.5,4.6,0,0.2993,-0.00552547,0
0.5,4.7,0,0.299254,-0.00524223,0
0.5,4.8,0,0.299212,-0.00494616,0
0.5,4.9,0,0.299172,-0.00463725,0
0.5,5,0,0.299132,-0.00432834,0
0.5,5.1,0,0.299094,-0.00394685,0
0.5,5.2,0,0.299055,-0.00356537,0
0.5,5.3,0,0.299025,-0.00317638,0
0.5,5.4,0,0.298996,-0.0027874,0
0.5,5.5,0,0.298974,-0.00237729,0
0.5,5.6,0,0.298952,-0.00196719,0
0.5,5.7,0,0.298938,-0.0015427,0
0.5,5.8,0,0.298924,-0.00111822,0
0.5,5.9,0,0.29892,-0.000686453,0
0.5,6,0,0.298915,-0.000254688,0
0.5,6.1,0,0.29892,0.000176885,0
0.5,6.2,0,0.298925,0.000608459,0
0.5,6.3,0,0.298939,0.00103232,0
0.5,6.4,0,0.298953,0.00145618,0
0.5,6.5,0,0.298976,0.00186524,0
0.5,6.6,0,0.298999,0.00227431,0
0.5,6.7,0,0.299029,0.00266178,0
0.5,6.8,0,0.299059,0.00304926,0
0.5,6.9,0,0.299099,0.00344153,0
0.5,7,0,0.29914,0.00383381,0
0.5,7.1,0,0.299179,0.0041285,0
0.5,7.2,0,0.299219,0.0044232,0
0.5,7.3,0,0.29926,0.00471425,0
0.5,7.4,0,0.299307,0.00498461,0
0.5,7.5,0,0.299354,0.00525497,0
0.5,7.6,0,0.299401,0.00550934,0
0.5,7.7,0,0.299448,0.0057264,0
0.5,7.8,0,0.299496,0.00594345,0
0.5,7.9,0,0.299543,0.00613674,0
0.5,8,0,0.299588,0.00630098,0
0.5,8.1,0,0.299634,0.00646522,0
0.5,8.2,0,0.299677,0.0065999,0
0.5,8.3,0,0.299718,0.00671488,0
0.5,8.4,0,0.29976,0.00682985,0
0.5,8.5,0,0.299797,0.00691196,0
0.5,8.6,0,0.299833,0.00698311,0
0.5,8.7,0,0.299869,0.00705425,0
0.5,8.8,0,0.2999,0.00709186,0
0.5,8.9,0,0.29993,0.00712575,0
0.5,9,0,0.299959,0.00715812,0
0.5,9.1,0,0.299983,0.00716176,0
0.5,9.2,0,0.300006,0.0071654,0
0.5,9.3,0,0.300029,0.00716437,0
0.5,9.4,0,0.300046,0.00714467,0
0.5,9.5,0,0.300064,0.00712497,0
0.5,9.6,0,0.30008,0.00709937,0
0.5,9.7,0,0.300092,0.00706279,0
0.5,9.8,0,0.300104,0.00702621,0
0.5,9.9,0,0.300114,0.00698407,0
0.5,10,0,0.300121,0.00693637,0
0.5,10.1,0,0.300129,0.00688866,0
0.5,10.2,0,0.300134,0.00683695,0
0.5,10.3,0,0.300137,0.00678308,0
0.5,10.4,0,0.300141,0.00672922,0
0.5,10.5,0,0.300141,0.00667373,0
0.5,10.6,0,0.300141,0.00661784,0
0.5,10.7,0,0.300141,0.00656194,0
0.5,10.8,0,0.300139,0.00650734,0
0.5,10.9,0,0.300136,0.00645281,0
0.5,11,0,0.300134,0.00639869,0
0.5,11.1,0,0.300129,0.00634827,0
0.5,11.2,0,0.300124,0.00629784,0
0.5,11.3,0,0.300119,0.00624898,0
0.5,11.4,0,0.300112,0.00620482,0
0.5,11.5,0,0.300106,0.00616065,0
0.5,11.6,0,0.300099,0.00611966,0
0.5,11.7,0,0.300091,0.00608342,0
0.5,11.8,0,0.300084,0.00604718,0
0.5,11.9,0,0.300076,0.00601598,0
0.5,12,0,0.300067,0.00598891,0
0.5,12.1,0,0.300058,0.00596184,0
0.5,12.2,0,0.300049,0.00594183,0
0.5,12.3,0,0.30004,0.00592484,0
0.5,12.4,0,0.300031,0.00590785,0
0.5,12.5,0,0.300026,0.0059003,0
0.5,12.6,0,0.300022,0.00589442,0
0.5,12.7,0,0.300017,0.00588854,0
0.6,0,0,0.300024,-0.00853993,0
0.6,0.1,0,0.300021,-0.00854547,0
0.6,0.2,0,0.300031,-0.00855176,0
0.6,0.3,0,0.300044,-0.00856458,0
0.6,0.4,0,0.300052,-0.00858078,0
0.6,0.5,0,0.30007,-0.00859979,0
0.6,0.6,0,0.300077,-0.00862806,0
0.6,0.7,0,0.30009,-0.00865402,0
0.6,0.8,0,0.300101,-0.00868731,0
0.6,0.9,0,0.300106,-0.00872061,0
0.6,1,0,0.300123,-0.00875895,0
0.6,1.1,0,0.300122,-0.00880305,0
0.6,1.2,0,0.300132,-0.0088431,0
0.6,1.3,0,0.300137,-0.00889003,0
0.6,1.4,0,0.300136,-0.00893338,0
0.6,1.5,0,0.300149,-0.00898307,0
0.6,1.6,0,0.300139,-0.00903296,0
0.6,1.7,0,0.300143,-0.00907791,0
0.6,1.8,0,0.30014,-0.0091271,0
0.6,1.9,0,0.30013,-0.00916917,0
0.6,2,0,0.300133,-0.00921755,0
0.6,2.1,0,0.300114,-0.00925803,0
0.6,2.2,0,0.300107,-0.00929411,0
0.6,2.3,0,0.300092,-0.00932891,0
0.6,2.4,0,0.300074,-0.00935349,0
0.6,2.5,0,0.300058,-0.00938242,0
0.6,2.6,0,0.300031,-0.00939269,0
0.6,2.7,0,0.300008,-0.00940103,0
0.6,2.8,0,0.299978,-0.00939921,0
0.6,2.9,0,0.299951,-0.00938521,0
0.6,3,0,0.299909,-0.00937081,0
0.6,3.1,0,0.299875,-0.00932524,0
0.6,3.2,0,0.299832,-0.00928247,0
0.6,3.3,0,0.299786,-0.00921732,0
0.6,3.4,0,0.299752,-0.0091404,0
0.6,3.5,0,0.299677,-0.00905472,0
0.6,3.6,0,0.299644,-0.00892587,0
0.6,3.7,0,0.299578,-0.00880691,0
0.6,3.8,0,0.299517,-0.0086511,0
0.6,3.9,0,0.299481,-0.00848775,0
0.6,4,0,0.29937,-0.0083038,0
0.6,4.1,0,0.299347,-0.0080683,0
0.6,4.2,0,0.299261,-0.00785239,0
0.6,4.3,0,0.299191,-0.00758508,0
0.6,4.4,0,0.29916,-0.00731941,0
0.6,4.5,0,0.299022,-0.00701952,0
0.6,4.6,0,0.29902,-0.00666684,0
0.6,4.7,0,0.298924,-0.00634608,0
0.6,4.8,0,0.298858,-0.00596294,0
0.6,4.9,0,0.298845,-0.00560449,0
0.6,5,0,0.298701,-0.0052349,0
0.6,5.1,0,0.298732,-0.00474876,0
0.6,5.2,0,0.298585,-0.0043128,0
0.6,5.3,0,0.298639,-0.00383813,0
0.6,5.4,0,0.298495,-0.00337188,0
0.6,5.5,0,0.298565,-0.00287229,0
0.6,5.6,0,0.298428,-0.00237911,0
0.6,5.7,0,0.298515,-0.00186317,0
0.6,5.8,0,0.298386,-0.00135098,0
0.6,5.9,0,0.298489,-0.000827502,0
0.6,6,0,0.298373,-0.000304955,0
0.6,6.1,0,0.29849,0.000216918,0
0.6,6.2,0,0.298388,0.000740596,0
0.6,6.3,0,0.298517,0.00125163,0
0.6,6.4,0,0.29843,0.00176718,0
0.6,6.5,0,0.298569,0.00225864,0
0.6,6.6,0,0.298499,0.00275739,0
0.6,6.7,0,0.298643,0.00322146,0
0.6,6.8,0,0.29859,0.00369458,0
0.6,6.9,0,0.298738,0.00413023,0
0.6,7,0,0.298713,0.00464286,0
0.6,7.1,0,0.298843,0.00499036,0
0.6,7.2,0,0.298883,0.00532133,0
0.6,7.3,0,0.298904,0.00570885,0
0.6,7.4,0,0.29904,0.00605721,0
0.6,7.5,0,0.299073,0.00635341,0
0.6,7.6,0,0.299123,0.0066682,0
0.6,7.7,0,0.299238,0.00693933,0
0.6,7.8,0,0.299273,0.00718221,0
0.6,7.9,0,0.299339,0.00742172,0
0.6,8,0,0.299431,0.00761991,0
0.6,8.1,0,0.299468,0.00780659,0
0.6,8.2,0,0.29954,0.00797428,0
0.6,8.3,0,0.299611,0.00810806,0
0.6,8.4,0,0.299649,0.00823945,0
0.6,8.5,0,0.299717,0.00834258,0
0.6,8.6,0,0.29977,0.0084226,0
0.6,8.7,0,0.299809,0.00850219,0
0.6,8.8,0,0.299866,0.00855043,0
0.6,8.9,0,0.299904,0.008587,0
0.6,9,0,0.299942,0.0086198,0
0.6,9.1,0,0.299984,0.0086254,0
0.6,9.2,0,0.300013,0.00862721,0
0.6,9.3,0,0.300046,0.0086205,0
0.6,9.4,0,0.300072,0.00859621,0
0.6,9.5,0,0.300095,0.00857143,0
0.6,9.6,0,0.30012,0.00853563,0
0.6,9.7,0,0.300133,0.00849126,0
0.6,9.8,0,0.300154,0.00844617,0
0.6,9.9,0,0.300168,0.00839077,0
0.6,10,0,0.300173,0.00833461,0
0.6,10.1,0,0.300191,0.00827514,0
0.6,10.2,0,0.300194,0.00820837,0
0.6,10.3,0,0.300194,0.00814708,0
0.6,10.4,0,0.300209,0.00807874,0
0.6,10.5,0,0.300203,0.00800743,0
0.6,10.6,0,0.300201,0.00794477,0
0.6,10.7,0,0.300212,0.00787385,0
0.6,10.8,0,0.300198,0.00780354,0
0.6,10.9,0,0.300195,0.00774267,0
0.6,11,0,0.300199,0.00767452,0
0.6,11.1,0,0.30018,0.00760923,0
0.6,11.2,0,0.300178,0.00755342,0
0.6,11.3,0,0.300175,0.007492,0
0.6,11.4,0,0.300157,0.00743595,0
0.6,11.5,0,0.300153,0.00738626,0
0.6,11.6,0,0.300145,0.00733457,0
0.6,11.7,0,0.300128,0.0072899,0
0.6,11.8,0,0.300122,0.00724821,0
0.6,11.9,0,0.300109,0.00720845,0
0.6,12,0,0.300094,0.007176,0
0.6,12.1,0,0.300086,0.00714443,0
0.6,12.2,0,0.300071,0.00711825,0
0.6,12.3,0,0.300057,0.00709839,0
0.6,12.4,0,0.300047,0.00707859,0
0.6,12.5,0,0.300032,0.00706707,0
0.6,12.6,0,0.300024,0.00706009,0
0.6,12.7,0,0.300026,0.00705499,0
0.7,0,0,0.300032,-0.00995444,0
0.7,0.1,0,0.300036,-0.00996125,0
0.7,0.2,0,0.300045,-0.00996935,0
0.7,0.3,0,0.300057,-0.00998217,0
0.7,0.4,0,0.300076,-0.0100049,0
0.7,0.5,0,0.300094,-0.0100258,0
0.7,0.6,0,0.300106,-0.0100575,0
0.7,0.7,0,0.300124,-0.0100927,0
0.7,0.8,0,0.300134,-0.010126,0
0.7,0.9,0,0.300149,-0.0101721,0
0.7,1,0,0.300164,-0.0102143,0
0.7,1.1,0,0.300169,-0.0102636,0
0.7,1.2,0,0.300179,-0.0103182,0
0.7,1.3,0,0.300184,-0.0103651,0
0.7,1.4,0,0.30019,-0.0104252,0
0.7,1.5,0,0.300199,-0.0104801,0
0.7,1.6,0,0.300193,-0.010536,0
0.7,1.7,0,0.300193,-0.0105979,0
0.7,1.8,0,0.300189,-0.0106471,0
0.7,1.9,0,0.300181,-0.0107062,0
0.7,2,0,0.300178,-0.0107599,0
0.7,2.1,0,0.30016,-0.0108056,0
0.7,2.2,0,0.300142,-0.0108565,0
0.7,2.3,0,0.300128,-0.0108913,0
0.7,2.4,0,0.3001,-0.0109277,0
0.7,2.5,0,0.300079,-0.0109604,0
0.7,2.6,0,0.300046,-0.0109729,0
0.7,2.7,0,0.300007,-0.0109876,0
0.7,2.8,0,0.299978,-0.0109858,0
0.7,2.9,0,0.299927,-0.0109709,0
0.7,3,0,0.29988,-0.0109563,0
0.7,3.1,0,0.299832,-0.0109071,0
0.7,3.2,0,0.299769,-0.0108542,0
0.7,3.3,0,0.299723,-0.0107891,0
0.7,3.4,0,0.299647,-0.0106895,0
0.7,3.5,0,0.299571,-0.0105969,0
0.7,3.6,0,0.299512,-0.0104552,0
0.7,3.7,0,0.299424,-0.0103007,0
0.7,3.8,0,0.299363,-0.0101449,0
0.7,3.9,0,0.299267,-0.00992798,0
0.7,4,0,0.299163,-0.00972756,0
0.7,4.1,0,0.2991,-0.0094673,0
0.7,4.2,0,0.298996,-0.00918229,0
0.7,4.3,0,0.298926,-0.00891498,0
0.7,4.4,0,0.29882,-0.00855851,0
0.7,4.5,0,0.298698,-0.00823033,0
0.7,4.6,0,0.298646,-0.00784013,0
0.7,4.7,0,0.298543,-0.0074124,0
0.7,4.8,0,0.298477,-0.00702926,0
0.7,4.9,0,0.298387,-0.00656059,0
0.7,5,0,0.298269,-0.00614146,0
0.7,5.1,0,0.298236,-0.0055883,0
0.7,5.2,0,0.298114,-0.00506023,0
0.7,5.3,0,0.298103,-0.00450619,0
0.7,5.4,0,0.297993,-0.00395637,0
0.7,5.5,0,0.298001,-0.0033721,0
0.7,5.6,0,0.297904,-0.00279104,0
0.7,5.7,0,0.29793,-0.00218645,0
0.7,5.8,0,0.297848,-0.00158375,0
0.7,5.9,0,0.297894,-0.000969251,0
0.7,6,0,0.29783,-0.000355221,0
0.7,6.1,0,0.297895,0.000258304,0
0.7,6.2,0,0.29785,0.000872733,0
0.7,6.3,0,0.297933,0.00147433,0
0.7,6.4,0,0.297907,0.00207819,0
0.7,6.5,0,0.298005,0.00265751,0
0.7,6.6,0,0.297999,0.00324047,0
0.7,6.7,0,0.29811,0.00378792,0
0.7,6.8,0,0.298122,0.0043399,0
0.7,6.9,0,0.298247,0.00487666,0
0.7,7,0,0.298286,0.00545191,0
0.7,7.1,0,0.298399,0.00584224,0
0.7,7.2,0,0.298489,0.00628934,0
0.7,7.3,0,0.298535,0.00669164,0
0.7,7.4,0,0.298653,0.00707485,0
0.7,7.5,0,0.298759,0.00748271,0
0.7,7.6,0,0.29882,0.00780774,0
0.7,7.7,0,0.298933,0.00812113,0
0.7,7.8,0,0.299038,0.00844504,0
0.7,7.9,0,0.299104,0.00868455,0
0.7,8,0,0.299208,0.00892468,0
0.7,8.1,0,0.299298,0.00916008,0
0.7,8.2,0,0.29937,0.00932832,0
0.7,8.3,0,0.299463,0.00949656,0
0.7,8.4,0,0.299538,0.00965366,0
0.7,8.5,0,0.299607,0.00975831,0
0.7,8.6,0,0.299687,0.00985978,0
0.7,8.7,0,0.299748,0.00995097,0
0.7,8.8,0,0.299808,0.00999933,0
0.7,8.9,0,0.299875,0.0100444,0
0.7,9,0,0.299924,0.0100814,0
0.7,9.1,0,0.299971,0.0100842,0
0.7,9.2,0,0.300023,0.0100839,0
0.7,9.3,0,0.30006,0.0100776,0
0.7,9.4,0,0.300095,0.0100465,0