x,y,z,U_0,U_1,U_2
0,0,0,0.300019,-0.00127729,-7.45674e-14
0,0.1,0,0.300015,-0.0010158,-5.93016e-14
0,0.2,0,0.300011,-0.000754307,-4.40358e-14
0,0.3,0,0.300007,-0.000492814,-2.87701e-14
0,0.4,0,0.300003,-0.000231321,-1.35043e-14
0,0.5,0,0.3,-1.28467e-19,-1.16752e-29
0,0.6,0,0.3,-1.5416e-19,-1.40102e-29
0,0.7,0,0.3,-1.79854e-19,-1.63452e-29
0,0.8,0,0.3,-2.05547e-19,-1.86803e-29
0,0.9,0,0.3,-2.31241e-19,-2.10153e-29
0,1,0,0.3,-2.46317e-19,-3.18261e-29
0,1.1,0,0.3,-2.70949e-19,-3.50087e-29
0,1.2,0,0.3,-2.95581e-19,-3.81913e-29
0,1.3,0,0.3,-3.20212e-19,-4.13739e-29
0,1.4,0,0.3,-3.44844e-19,-4.45565e-29
0,1.5,0,0.3,-3.49419e-19,-5.85808e-29
0,1.6,0,0.3,-3.72714e-19,-6.24862e-29
0,1.7,0,0.3,-3.96008e-19,-6.63916e-29
0,1.8,0,0.3,-4.19303e-19,-7.0297e-29
0,1.9,0,0.3,-4.42597e-19,-7.42023e-29
0,2,0,0.3,-4.33267e-19,-8.59208e-29
0,2.1,0,0.3,-4.5493e-19,-9.02168e-29
0,2.2,0,0.3,-4.76594e-19,-9.45129e-29
0,2.3,0,0.3,-4.98257e-19,-9.88089e-29
0,2.4,0,0.3,-5.1992e-19,-1.03105e-28
0,2.5,0,0.3,-4.92878e-19,-1.13907e-28
0,2.6,0,0.3,-5.12593e-19,-1.18463e-28
0,2.7,0,0.3,-5.32308e-19,-1.23019e-28
0,2.8,0,0.3,-5.52023e-19,-1.27575e-28
0,2.9,0,0.3,-5.71738e-19,-1.32132e-28
0,3,0,0.3,-5.23661e-19,-1.38641e-28
0,3.1,0,0.3,-5.41117e-19,-1.43262e-28
0,3.2,0,0.3,-5.58572e-19,-1.47883e-28
0,3.3,0,0.3,-5.76027e-19,-1.52505e-28
0,3.4,0,0.3,-5.93483e-19,-1.57126e-28
0,3.5,0,0.3,-5.22734e-19,-1.57191e-28
0,3.6,0,0.3,-5.3767e-19,-1.61682e-28
0,3.7,0,0.3,-5.52605e-19,-1.66173e-28
0,3.8,0,0.3,-5.6754e-19,-1.70665e-28
0,3.9,0,0.3,-5.82475e-19,-1.75156e-28
0,4,0,0.3,-4.87909e-19,-1.7444e-28
0,4.1,0,0.3,-5.00106e-19,-1.78801e-28
0,4.2,0,0.3,-5.12304e-19,-1.83162e-28
0,4.3,0,0.3,-5.24502e-19,-1.87523e-28
0,4.4,0,0.3,-4.09112e-19,-1.80428e-28
0,4.5,0,0.3,-4.1841e-19,-1.84529e-28
0,4.6,0,0.3,-4.27708e-19,-1.88629e-28
0,4.7,0,0.3,-4.37006e-19,-1.9273e-28
0,4.8,0,0.3,-4.46304e-19,-1.96831e-28
0,4.9,0,0.3,-3.07051e-19,-1.88174e-28
0,5,0,0.3,-3.13317e-19,-1.92014e-28
0,5.1,0,0.3,-3.19584e-19,-1.95854e-28
0,5.2,0,0.3,-3.2585e-19,-1.99695e-28
0,5.3,0,0.3,-3.32116e-19,-2.03535e-28
0,5.4,0,0.3,-1.69811e-19,-1.93316e-28
0,5.5,0,0.3,-1.72956e-19,-1.96896e-28
0,5.6,0,0.3,-1.76101e-19,-2.00476e-28
0,5.7,0,0.3,-1.79245e-19,-2.04056e-28
0,5.8,0,0.3,-1.8239e-19,-2.07635e-28
0,5.9,0,0.3,8.93326e-22,-1.95854e-28
0,6,0,0.3,9.08467e-22,-1.99174e-28
0,6.1,0,0.3,9.23608e-22,-2.02493e-28
0,6.2,0,0.3,9.38749e-22,-2.05813e-28
0,6.3,0,0.3,9.5389e-22,-2.09133e-28
0,6.4,0,0.3,2.03032e-19,-2.04121e-28
0,6.5,0,0.3,2.06205e-19,-2.0731e-28
0,6.6,0,0.3,2.09377e-19,-2.10499e-28
0,6.7,0,0.3,2.12549e-19,-2.13689e-28
0,6.8,0,0.3,2.15722e-19,-2.16878e-28
0,6.9,0,0.3,4.33969e-19,-2.02103e-28
0,7,0,0.3,4.40259e-19,-2.05032e-28
0,7.1,0,0.3,4.46548e-19,-2.07961e-28
0,7.2,0,0.3,4.52838e-19,-2.1089e-28
0,7.3,0,0.3,4.59127e-19,-2.13819e-28
0,7.4,0,0.3,6.89437e-19,-1.97482e-28
0,7.5,0,0.3,6.98754e-19,-2.0015e-28
0,7.6,0,0.3,7.08071e-19,-2.02819e-28
0,7.7,0,0.3,7.17387e-19,-2.05488e-28
0,7.8,0,0.3,7.26704e-19,-2.08156e-28
0,7.9,0,0.3,9.64406e-19,-1.90257e-28
0,8,0,0.3,9.76613e-19,-1.92665e-28
0,8.1,0,0.3,9.88821e-19,-1.95073e-28
0,8.2,0,0.3,1.00103e-18,-1.97482e-28
0,8.3,0,0.3,1.01324e-18,-1.9989e-28
0,8.4,0,0.3,1.25327e-18,-1.74961e-28
0,8.5,0,0.3,1.26819e-18,-1.77043e-28
0,8.6,0,0.3,1.28311e-18,-1.79126e-28
0,8.7,0,0.3,1.29803e-18,-1.81209e-28
0,8.8,0,0.3,1.53285e-18,-1.60381e-28
0,8.9,0,0.3,1.55027e-18,-1.62203e-28
0,9,0,0.3,1.56769e-18,-1.64026e-28
0,9.1,0,0.3,1.58511e-18,-1.65848e-28
0,9.2,0,0.3,1.60253e-18,-1.67671e-28
0,9.3,0,0.3,1.82925e-18,-1.39226e-28
0,9.4,0,0.3,1.84892e-18,-1.40723e-28
0,9.5,0,0.3,1.86859e-18,-1.42221e-28
0,9.6,0,0.3,1.88826e-18,-1.43718e-28
0,9.7,0,0.3,1.90793e-18,-1.45215e-28
0,9.8,0,0.3,2.12035e-18,-1.14818e-28
0,9.9,0,0.3,2.14198e-18,-1.15989e-28
0,10,0,0.3,2.16362e-18,-1.17161e-28
0,10.1,0,0.3,2.18526e-18,-1.18333e-28
0,10.2,0,0.3,2.20689e-18,-1.19504e-28
0,10.3,0,0.3,2.39797e-18,-8.71497e-29
0,10.4,0,0.3,2.42125e-18,-8.79958e-29
0,10.5,0,0.3,2.44453e-18,-8.8842e-29
0,10.6,0,0.3,2.46782e-18,-8.96881e-29
0,10.7,0,0.3,2.4911e-18,-9.05342e-29
0,10.8,0,0.3,2.65853e-18,-6.32694e-29
0,10.9,0,0.3,2.68315e-18,-6.38552e-29
0,11,0,0.3,2.70776e-18,-6.4441e-29
0,11.1,0,0.3,2.73238e-18,-6.50268e-29
0,11.2,0,0.3,2.75699e-18,-6.56127e-29
0,11.3,0,0.3,2.90509e-18,-4.41158e-29
0,11.4,0,0.3,2.9308e-18,-4.45062e-29
0,11.5,0,0.3,2.95651e-18,-4.48966e-29
0,11.6,0,0.3,2.98222e-18,-4.52871e-29
0,11.7,0,0.3,3.00792e-18,-4.56775e-29
0,11.8,0,0.3,3.03363e-18,-4.60679e-29
0,11.9,0,0.3,3.05934e-18,-4.64583e-29
0,12,0,0.3,3.08505e-18,-4.68487e-29
0,12.1,0,0.3,3.11076e-18,-4.72391e-29
0,12.2,0,0.3,3.13647e-18,-4.76295e-29
0,12.3,0,0.299997,0.000229044,-4.50144e-15
0,12.4,0,0.299993,0.000487964,-9.59003e-15
0,12.5,0,0.299989,0.000746883,-1.46786e-14
0,12.6,0,0.299985,0.0010058,-1.97672e-14
0,12.7,0,0.299981,0.00126472,-2.48558e-14
0.1,0,0,0.300016,-0.0020477,-8.96539e-14
0.1,0.1,0,0.300016,-0.00203729,-1.12233e-13
0.1,0.2,0,0.300012,-0.0017758,-9.69671e-14
0.1,0.3,0,0.300008,-0.0015143,-8.17014e-14
0.1,0.4,0,0.300004,-0.00125281,-6.64356e-14
0.1,0.5,0,0.3,-0.00101496,-5.66557e-14
0.1,0.6,0,0.299995,-0.000986849,-8.96854e-14
0.1,0.7,0,0.299995,-0.000986849,-8.96854e-14
0.1,0.8,0,0.299995,-0.000986849,-8.96854e-14
0.1,0.9,0,0.299995,-0.000986849,-8.96854e-14
0.1,1,0,0.299992,-0.000977665,-9.70176e-14
0.1,1.1,0,0.299983,-0.000946071,-1.2224e-13
0.1,1.2,0,0.299983,-0.000946071,-1.2224e-13
0.1,1.3,0,0.299983,-0.000946071,-1.2224e-13
0.1,1.4,0,0.299983,-0.000946071,-1.2224e-13
0.1,1.5,0,0.299979,-0.000928097,-1.31956e-13
0.1,1.6,0,0.299972,-0.000894714,-1.50001e-13
0.1,1.7,0,0.299972,-0.000894714,-1.50001e-13
0.1,1.8,0,0.299972,-0.000894714,-1.50001e-13
0.1,1.9,0,0.299972,-0.000894714,-1.50001e-13
0.1,2,0,0.299968,-0.000865114,-1.57089e-13
0.1,2.1,0,0.299964,-0.00083206,-1.65005e-13
0.1,2.2,0,0.299964,-0.00083206,-1.65005e-13
0.1,2.3,0,0.299964,-0.00083206,-1.65005e-13
0.1,2.4,0,0.299964,-0.00083206,-1.65005e-13
0.1,2.5,0,0.29996,-0.00078787,-1.70908e-13
0.1,2.6,0,0.299957,-0.000757231,-1.75e-13
0.1,2.7,0,0.299957,-0.000757231,-1.75e-13
0.1,2.8,0,0.299957,-0.000757231,-1.75e-13
0.1,2.9,0,0.299957,-0.000757231,-1.75e-13
0.1,3,0,0.299952,-0.000695724,-1.76772e-13
0.1,3.1,0,0.299951,-0.000670438,-1.775e-13
0.1,3.2,0,0.299951,-0.000670438,-1.775e-13
0.1,3.3,0,0.299951,-0.000670438,-1.775e-13
0.1,3.4,0,0.299951,-0.000670438,-1.775e-13
0.1,3.5,0,0.299946,-0.000590411,-1.73366e-13
0.1,3.6,0,0.299946,-0.000573643,-1.725e-13
0.1,3.7,0,0.299946,-0.000573643,-1.725e-13
0.1,3.8,0,0.299946,-0.000573643,-1.725e-13
0.1,3.9,0,0.299946,-0.000573643,-1.725e-13
0.1,4,0,0.299942,-0.000474293,-1.67776e-13
0.1,4.1,0,0.299942,-0.000468498,-1.675e-13
0.1,4.2,0,0.299942,-0.000468498,-1.675e-13
0.1,4.3,0,0.299942,-0.000468498,-1.675e-13
0.1,4.4,0,0.299942,-0.000464113,-1.67106e-13
0.1,4.5,0,0.299939,-0.000357123,-1.575e-13
0.1,4.6,0,0.299939,-0.000357123,-1.575e-13
0.1,4.7,0,0.299939,-0.000357123,-1.575e-13
0.1,4.8,0,0.299939,-0.000357123,-1.575e-13
0.1,4.9,0,0.299938,-0.000338786,-1.55925e-13
0.1,5,0,0.299936,-0.000240682,-1.475e-13
0.1,5.1,0,0.299936,-0.000240682,-1.475e-13
0.1,5.2,0,0.299936,-0.000240682,-1.475e-13
0.1,5.3,0,0.299936,-0.000240682,-1.475e-13
0.1,5.4,0,0.299936,-0.000207639,-1.44744e-13
0.1,5.5,0,0.299935,-0.000120782,-1.375e-13
0.1,5.6,0,0.299935,-0.000120782,-1.375e-13
0.1,5.7,0,0.299935,-0.000120782,-1.375e-13
0.1,5.8,0,0.299935,-0.000120782,-1.375e-13
0.1,5.9,0,0.299935,-7.30011e-05,-1.33563e-13
0.1,6,0,0.299934,5.8155e-07,-1.275e-13
0.1,6.1,0,0.299934,5.8155e-07,-1.275e-13
0.1,6.2,0,0.299934,5.8155e-07,-1.275e-13
0.1,6.3,0,0.299934,5.8155e-07,-1.275e-13
0.1,6.4,0,0.299934,6.26464e-05,-1.24941e-13
0.1,6.5,0,0.299935,0.000121847,-1.225e-13
0.1,6.6,0,0.299935,0.000121847,-1.225e-13
0.1,6.7,0,0.299935,0.000121847,-1.225e-13
0.1,6.8,0,0.299935,0.000121847,-1.225e-13
0.1,6.9,0,0.299936,0.000197262,-1.16201e-13
0.1,7,0,0.299936,0.000241568,-1.125e-13
0.1,7.1,0,0.299936,0.000241568,-1.125e-13
0.1,7.2,0,0.299936,0.000241568,-1.125e-13
0.1,7.3,0,0.299936,0.000241568,-1.125e-13
0.1,7.4,0,0.299938,0.000328545,-1.0502e-13
0.1,7.5,0,0.299938,0.000357843,-1.025e-13
0.1,7.6,0,0.299938,0.000357843,-1.025e-13
0.1,7.7,0,0.299938,0.000357843,-1.025e-13
0.1,7.8,0,0.299938,0.000357843,-1.025e-13
0.1,7.9,0,0.299941,0.000454017,-9.38386e-14
0.1,8,0,0.299942,0.00046888,-9.25e-14
0.1,8.1,0,0.299942,0.00046888,-9.25e-14
0.1,8.2,0,0.299942,0.00046888,-9.25e-14
0.1,8.3,0,0.299942,0.00046888,-9.25e-14
0.1,8.4,0,0.299946,0.000571411,-8.01969e-14
0.1,8.5,0,0.299946,0.000573051,-8e-14
0.1,8.6,0,0.299946,0.000573051,-8e-14
0.1,8.7,0,0.299946,0.000573051,-8e-14
0.1,8.8,0,0.299947,0.000580609,-7.92126e-14
0.1,8.9,0,0.299951,0.000669032,-7e-14
0.1,9,0,0.299951,0.000669032,-7e-14
0.1,9.1,0,0.299951,0.000669032,-7e-14
0.1,9.2,0,0.299951,0.000669032,-7e-14
0.1,9.3,0,0.299952,0.000686048,-6.75394e-14
0.1,9.4,0,0.299957,0.000755474,-5.75e-14
0.1,9.5,0,0.299957,0.000755474,-5.75e-14
0.1,9.6,0,0.299957,0.000755474,-5.75e-14
0.1,9.7,0,0.299957,0.000755474,-5.75e-14
0.1,9.8,0,0.299959,0.000779267,-5.3563e-14
0.1,9.9,0,0.299963,0.000831018,-4.5e-14
0.1,10,0,0.299963,0.000831018,-4.5e-14
0.1,10.1,0,0.299963,0.000831018,-4.5e-14
0.1,10.2,0,0.299963,0.000831018,-4.5e-14
0.1,10.3,0,0.299966,0.000858381,-3.95858e-14
0.1,10.4,0,0.29997,0.000894203,-3.24981e-14
0.1,10.5,0,0.29997,0.000894203,-3.24981e-14
0.1,10.6,0,0.29997,0.000894203,-3.24981e-14
0.1,10.7,0,0.29997,0.000894203,-3.24981e-14
0.1,10.8,0,0.299974,0.000922459,-2.69878e-14
0.1,10.9,0,0.299977,0.000945468,-2.25008e-14
0.1,11,0,0.299977,0.000945468,-2.25008e-14
0.1,11.1,0,0.299977,0.000945468,-2.25008e-14
0.1,11.2,0,0.299977,0.000945468,-2.25008e-14
0.1,11.3,0,0.299982,0.000973559,-1.74772e-14
0.1,11.4,0,0.299984,0.000987439,-1.4995e-14
0.1,11.5,0,0.299984,0.000987439,-1.4995e-14
0.1,11.6,0,0.299984,0.000987439,-1.4995e-14
0.1,11.7,0,0.299984,0.000987439,-1.4995e-14
0.1,11.8,0,0.299984,0.000987439,-1.4995e-14
0.1,11.9,0,0.299984,0.000987439,-1.4995e-14
0.1,12,0,0.299984,0.000987439,-1.4995e-14
0.1,12.1,0,0.299984,0.000987439,-1.4995e-14
0.1,12.2,0,0.299991,0.00101608,-8.43704e-15
0.1,12.3,0,0.299989,0.00124763,-1.19853e-14
0.1,12.4,0,0.299985,0.00150654,-1.70739e-14
0.1,12.5,0,0.299981,0.00176546,-2.21625e-14
0.1,12.6,0,0.299977,0.00202438,-2.7251e-14
0.1,12.7,0,0.299981,0.0020422,-2.48846e-14
0.2,0,0,0.300012,-0.0028181,-1.0474e-13
0.2,0.1,0,0.300012,-0.00280954,-1.27598e-13
0.2,0.2,0,0.300012,-0.00279729,-1.49898e-13
0.2,0.3,0,0.300008,-0.0025358,-1.34633e-13
0.2,0.4,0,0.300004,-0.0022743,-1.19367e-13
0.2,0.5,0,0.3,-0.00203364,-1.08935e-13
0.2,0.6,0,0.299995,-0.00200136,-1.46863e-13
0.2,0.7,0,0.29999,-0.0019737,-1.79371e-13
0.2,0.8,0,0.29999,-0.0019737,-1.79371e-13
0.2,0.9,0,0.29999,-0.0019737,-1.79371e-13
0.2,1,0,0.299987,-0.00196504,-1.8628e-13
0.2,1.1,0,0.299974,-0.00192295,-2.19884e-13
0.2,1.2,0,0.299965,-0.00189214,-2.44479e-13
0.2,1.3,0,0.299965,-0.00189214,-2.44479e-13
0.2,1.4,0,0.299965,-0.00189214,-2.44479e-13
0.2,1.5,0,0.299962,-0.00187451,-2.54009e-13
0.2,1.6,0,0.299951,-0.00182159,-2.82617e-13
0.2,1.7,0,0.299944,-0.00178943,-3.00001e-13
0.2,1.8,0,0.299944,-0.00178943,-3.00001e-13
0.2,1.9,0,0.299944,-0.00178943,-3.00001e-13
0.2,2,0,0.29994,-0.00175983,-3.0709e-13
0.2,2.1,0,0.299932,-0.00169569,-3.22449e-13
0.2,2.2,0,0.299928,-0.00166412,-3.3001e-13
0.2,2.3,0,0.299928,-0.00166412,-3.3001e-13
0.2,2.4,0,0.299928,-0.00166412,-3.3001e-13
0.2,2.5,0,0.299924,-0.00161993,-3.35913e-13
0.2,2.6,0,0.299916,-0.00154333,-3.46144e-13
0.2,2.7,0,0.299914,-0.00151446,-3.5e-13
0.2,2.8,0,0.299914,-0.00151446,-3.5e-13
0.2,2.9,0,0.299914,-0.00151446,-3.5e-13
0.2,3,0,0.299909,-0.00145295,-3.51772e-13
0.2,3.1,0,0.299903,-0.00136411,-3.54331e-13
0.2,3.2,0,0.299901,-0.00134088,-3.55e-13
0.2,3.3,0,0.299901,-0.00134088,-3.55e-13
0.2,3.4,0,0.299901,-0.00134088,-3.55e-13
0.2,3.5,0,0.299897,-0.00126085,-3.50866e-13
0.2,3.6,0,0.299892,-0.00116177,-3.45748e-13
0.2,3.7,0,0.299891,-0.00114729,-3.45e-13
0.2,3.8,0,0.299891,-0.00114729,-3.45e-13
0.2,3.9,0,0.299891,-0.00114729,-3.45e-13
0.2,4,0,0.299888,-0.00104794,-3.40276e-13
0.2,4.1,0,0.299884,-0.000940308,-3.35157e-13
0.2,4.2,0,0.299884,-0.000936996,-3.35e-13
0.2,4.3,0,0.299884,-0.000936996,-3.35e-13
0.2,4.4,0,0.299884,-0.000932611,-3.34606e-13
0.2,4.5,0,0.299881,-0.000818606,-3.2437e-13
0.2,4.6,0,0.299878,-0.000714247,-3.15e-13
0.2,4.7,0,0.299878,-0.000714247,-3.15e-13
0.2,4.8,0,0.299878,-0.000714247,-3.15e-13
0.2,4.9,0,0.299877,-0.00069591,-3.13425e-13
0.2,5,0,0.299875,-0.000576718,-3.03189e-13
0.2,5.1,0,0.299873,-0.000481364,-2.95e-13
0.2,5.2,0,0.299873,-0.000481364,-2.95e-13
0.2,5.3,0,0.299873,-0.000481364,-2.95e-13
0.2,5.4,0,0.299872,-0.000448321,-2.92244e-13
0.2,5.5,0,0.29987,-0.000325588,-2.82008e-13
0.2,5.6,0,0.299869,-0.000241564,-2.75e-13
0.2,5.7,0,0.299869,-0.000241564,-2.75e-13
0.2,5.8,0,0.299869,-0.000241564,-2.75e-13
0.2,5.9,0,0.299869,-0.000193783,-2.71063e-13
0.2,6,0,0.299869,-6.95527e-05,-2.60827e-13
0.2,6.1,0,0.299868,1.1631e-06,-2.55e-13
0.2,6.2,0,0.299868,1.1631e-06,-2.55e-13
0.2,6.3,0,0.299868,1.1631e-06,-2.55e-13
0.2,6.4,0,0.299869,6.3228e-05,-2.52441e-13
0.2,6.5,0,0.299869,0.000187358,-2.47323e-13
0.2,6.6,0,0.299869,0.000243694,-2.45e-13
0.2,6.7,0,0.299869,0.000243694,-2.45e-13
0.2,6.8,0,0.299869,0.000243694,-2.45e-13
0.2,6.9,0,0.29987,0.000319108,-2.38701e-13
0.2,7,0,0.299872,0.000441658,-2.28465e-13
0.2,7.1,0,0.299872,0.000483136,-2.25e-13
0.2,7.2,0,0.299872,0.000483136,-2.25e-13
0.2,7.3,0,0.299872,0.000483136,-2.25e-13
0.2,7.4,0,0.299874,0.000570113,-2.1752e-13
0.2,7.5,0,0.299876,0.000689134,-2.07283e-13
0.2,7.6,0,0.299877,0.000715685,-2.05e-13
0.2,7.7,0,0.299877,0.000715685,-2.05e-13
0.2,7.8,0,0.299877,0.000715685,-2.05e-13
0.2,7.9,0,0.29988,0.000811859,-1.96339e-13
0.2,8,0,0.299884,0.00092552,-1.86102e-13
0.2,8.1,0,0.299884,0.00093776,-1.85e-13
0.2,8.2,0,0.299884,0.00093776,-1.85e-13
0.2,8.3,0,0.299884,0.00093776,-1.85e-13
0.2,8.4,0,0.299888,0.00104029,-1.72697e-13
0.2,8.5,0,0.299892,0.0011461,-1.6e-13
0.2,8.6,0,0.299892,0.0011461,-1.6e-13
0.2,8.7,0,0.299892,0.0011461,-1.6e-13
0.2,8.8,0,0.299893,0.00115366,-1.59213e-13
0.2,8.9,0,0.299898,0.00125191,-1.48976e-13
0.2,9,0,0.299902,0.00133806,-1.4e-13
0.2,9.1,0,0.299902,0.00133806,-1.4e-13
0.2,9.2,0,0.299902,0.00133806,-1.4e-13
0.2,9.3,0,0.299904,0.00135508,-1.37539e-13
0.2,9.4,0,0.299909,0.00144356,-1.24744e-13
0.2,9.5,0,0.299914,0.00151095,-1.15e-13
0.2,9.6,0,0.299914,0.00151095,-1.15e-13
0.2,9.7,0,0.299914,0.00151095,-1.15e-13
0.2,9.8,0,0.299916,0.00153474,-1.11063e-13
0.2,9.9,0,0.299922,0.00161207,-9.82677e-14
0.2,10,0,0.299926,0.00166204,-9e-14
0.2,10.1,0,0.299926,0.00166204,-9e-14
0.2,10.2,0,0.299926,0.00166204,-9e-14
0.2,10.3,0,0.299929,0.0016894,-8.45858e-14
0.2,10.4,0,0.299936,0.00175408,-7.17886e-14
0.2,10.5,0,0.29994,0.00178841,-6.49962e-14
0.2,10.6,0,0.29994,0.00178841,-6.49962e-14
0.2,10.7,0,0.29994,0.00178841,-6.49962e-14
0.2,10.8,0,0.299944,0.00181666,-5.94859e-14
0.2,10.9,0,0.299952,0.00186914,-4.92525e-14
0.2,11,0,0.299955,0.00189094,-4.50017e-14
0.2,11.1,0,0.299955,0.00189094,-4.50017e-14
0.2,11.2,0,0.299955,0.00189094,-4.50017e-14
0.2,11.3,0,0.299959,0.00191903,-3.99781e-14
0.2,11.4,0,0.299967,0.00196199,-3.22949e-14
0.2,11.5,0,0.299969,0.00197488,-2.99899e-14
0.2,11.6,0,0.299969,0.00197488,-2.99899e-14
0.2,11.7,0,0.299969,0.00197488,-2.99899e-14
0.2,11.8,0,0.299969,0.00197488,-2.99899e-14
0.2,11.9,0,0.299969,0.00197488,-2.99899e-14
0.2,12,0,0.299969,0.00197488,-2.99899e-14
0.2,12.1,0,0.299975,0.00200275,-2.36077e-14
0.2,12.2,0,0.299983,0.00203599,-1.59958e-14
0.2,12.3,0,0.29998,0.00226621,-1.94691e-14
0.2,12.4,0,0.299977,0.00252513,-2.45577e-14
0.2,12.5,0,0.299973,0.00278405,-2.96463e-14
0.2,12.6,0,0.299976,0.00280834,-2.748e-14
0.2,12.7,0,0.29998,0.00281968,-2.49135e-14
0.3,0,0,0.300009,-0.0035885,-1.19827e-13
0.3,0.1,0,0.300009,-0.00357994,-1.42685e-13
0.3,0.2,0,0.300009,-0.00357139,-1.65543e-13
0.3,0.3,0,0.300009,-0.00355729,-1.87564e-13
0.3,0.4,0,0.300005,-0.00329579,-1.72298e-13
0.3,0.5,0,0.300001,-0.00305232,-1.61214e-13
0.3,0.6,0,0.299995,-0.00302004,-1.99142e-13
0.3,0.7,0,0.299989,-0.00298777,-2.3707e-13
0.3,0.8,0,0.299984,-0.00296055,-2.69056e-13
0.3,0.9,0,0.299984,-0.00296055,-2.69056e-13
0.3,1,0,0.299982,-0.00295242,-2.75543e-13
0.3,1.1,0,0.299969,-0.00291033,-3.09147e-13
0.3,1.2,0,0.299957,-0.00286824,-3.42751e-13
0.3,1.3,0,0.299948,-0.00283821,-3.66719e-13
0.3,1.4,0,0.299948,-0.00283821,-3.66719e-13
0.3,1.5,0,0.299944,-0.00282093,-3.76062e-13
0.3,1.6,0,0.299934,-0.00276801,-4.0467e-13
0.3,1.7,0,0.299923,-0.00271508,-4.33277e-13
0.3,1.8,0,0.299916,-0.00268414,-4.50002e-13
0.3,1.9,0,0.299916,-0.00268414,-4.50002e-13
0.3,2,0,0.299912,-0.00265454,-4.57091e-13
0.3,2.1,0,0.299904,-0.00259041,-4.7245e-13
0.3,2.2,0,0.299896,-0.00252627,-4.87808e-13
0.3,2.3,0,0.299892,-0.00249618,-4.95015e-13
0.3,2.4,0,0.299892,-0.00249618,-4.95015e-13
0.3,2.5,0,0.299888,-0.00245199,-5.00918e-13
0.3,2.6,0,0.299881,-0.00237539,-5.11149e-13
0.3,2.7,0,0.299873,-0.0022988,-5.2138e-13
0.3,2.8,0,0.299871,-0.00227169,-5.25e-13
0.3,2.9,0,0.299871,-0.00227169,-5.25e-13
0.3,3,0,0.299866,-0.00221019,-5.26772e-13
0.3,3.1,0,0.29986,-0.00212134,-5.29331e-13
0.3,3.2,0,0.299853,-0.0020325,-5.3189e-13
0.3,3.3,0,0.299852,-0.00201131,-5.325e-13
0.3,3.4,0,0.299852,-0.00201131,-5.325e-13
0.3,3.5,0,0.299847,-0.00193129,-5.28366e-13
0.3,3.6,0,0.299842,-0.00183221,-5.23248e-13
0.3,3.7,0,0.299837,-0.00173313,-5.1813e-13
0.3,3.8,0,0.299837,-0.00172093,-5.175e-13
0.3,3.9,0,0.299837,-0.00172093,-5.175e-13
0.3,4,0,0.299833,-0.00162158,-5.12776e-13
0.3,4.1,0,0.29983,-0.00151395,-5.07657e-13
0.3,4.2,0,0.299826,-0.00140632,-5.02539e-13
0.3,4.3,0,0.299826,-0.00140549,-5.025e-13
0.3,4.4,0,0.299826,-0.00140111,-5.02106e-13
0.3,4.5,0,0.299823,-0.0012871,-4.9187e-13
0.3,4.6,0,0.299819,-0.0011731,-4.81634e-13
0.3,4.7,0,0.299816,-0.00107137,-4.725e-13
0.3,4.8,0,0.299816,-0.00107137,-4.725e-13
0.3,4.9,0,0.299816,-0.00105303,-4.70925e-13
0.3,5,0,0.299813,-0.000933841,-4.60689e-13
0.3,5.1,0,0.299811,-0.000814649,-4.50453e-13
0.3,5.2,0,0.299809,-0.000722046,-4.425e-13
0.3,5.3,0,0.299809,-0.000722046,-4.425e-13
0.3,5.4,0,0.299808,-0.000689003,-4.39744e-13
0.3,5.5,0,0.299807,-0.00056627,-4.29508e-13
0.3,5.6,0,0.299805,-0.000443538,-4.19272e-13
0.3,5.7,0,0.299804,-0.000362346,-4.125e-13
0.3,5.8,0,0.299804,-0.000362346,-4.125e-13
0.3,5.9,0,0.299804,-0.000314565,-4.08563e-13
0.3,6,0,0.299803,-0.000190335,-3.98327e-13
0.3,6.1,0,0.299803,-6.61043e-05,-3.88091e-13
0.3,6.2,0,0.299803,1.74465e-06,-3.825e-13
0.3,6.3,0,0.299803,1.74465e-06,-3.825e-13
0.3,6.4,0,0.299803,6.38095e-05,-3.79941e-13
0.3,6.5,0,0.299803,0.000187939,-3.74823e-13
0.3,6.6,0,0.299804,0.000312069,-3.69705e-13
0.3,6.7,0,0.299804,0.00036554,-3.675e-13
0.3,6.8,0,0.299804,0.00036554,-3.675e-13
0.3,6.9,0,0.299805,0.000440955,-3.61201e-13
0.3,7,0,0.299806,0.000563504,-3.50965e-13
0.3,7.1,0,0.299808,0.000686053,-3.40728e-13
0.3,7.2,0,0.299808,0.000724704,-3.375e-13
0.3,7.3,0,0.299808,0.000724704,-3.375e-13
0.3,7.4,0,0.29981,0.000811681,-3.3002e-13
0.3,7.5,0,0.299812,0.000930702,-3.19783e-13
0.3,7.6,0,0.299815,0.00104972,-3.09547e-13
0.3,7.7,0,0.299815,0.00107353,-3.075e-13
0.3,7.8,0,0.299815,0.00107353,-3.075e-13
0.3,7.9,0,0.299818,0.0011697,-2.98839e-13
0.3,8,0,0.299822,0.00128336,-2.88602e-13
0.3,8.1,0,0.299826,0.00139702,-2.78366e-13
0.3,8.2,0,0.299826,0.00140664,-2.775e-13
0.3,8.3,0,0.299826,0.00140664,-2.775e-13
0.3,8.4,0,0.29983,0.00150917,-2.65197e-13
0.3,8.5,0,0.299834,0.0016158,-2.52402e-13
0.3,8.6,0,0.299839,0.00171915,-2.4e-13
0.3,8.7,0,0.299839,0.00171915,-2.4e-13
0.3,8.8,0,0.299839,0.00172671,-2.39213e-13
0.3,8.9,0,0.299844,0.00182496,-2.28976e-13
0.3,9,0,0.299849,0.00192321,-2.1874e-13
0.3,9.1,0,0.299854,0.0020071,-2.1e-13
0.3,9.2,0,0.299854,0.0020071,-2.1e-13
0.3,9.3,0,0.299855,0.00202411,-2.07539e-13
0.3,9.4,0,0.299861,0.0021126,-1.94744e-13
0.3,9.5,0,0.299866,0.00220108,-1.81949e-13
0.3,9.6,0,0.299871,0.00226642,-1.725e-13
0.3,9.7,0,0.299871,0.00226642,-1.725e-13
0.3,9.8,0,0.299873,0.00229022,-1.68563e-13
0.3,9.9,0,0.299879,0.00236754,-1.55768e-13
0.3,10,0,0.299885,0.00244487,-1.42972e-13
0.3,10.1,0,0.299889,0.00249305,-1.35e-13
0.3,10.2,0,0.299889,0.00249305,-1.35e-13
0.3,10.3,0,0.299892,0.00252042,-1.29586e-13
0.3,10.4,0,0.299899,0.00258509,-1.16789e-13
0.3,10.5,0,0.299906,0.00264977,-1.03991e-13
0.3,10.6,0,0.29991,0.00268261,-9.74943e-14
0.3,10.7,0,0.29991,0.00268261,-9.74943e-14
0.3,10.8,0,0.299914,0.00271087,-9.1984e-14
0.3,10.9,0,0.299922,0.00276334,-8.17506e-14
0.3,11,0,0.299929,0.00281582,-7.15172e-14
0.3,11.1,0,0.299932,0.00283641,-6.75025e-14
0.3,11.2,0,0.299932,0.00283641,-6.75025e-14
0.3,11.3,0,0.299937,0.0028645,-6.24789e-14
0.3,11.4,0,0.299944,0.00290746,-5.47957e-14
0.3,11.5,0,0.299951,0.00295042,-4.71125e-14
0.3,11.6,0,0.299953,0.00296232,-4.49849e-14
0.3,11.7,0,0.299953,0.00296232,-4.49849e-14
0.3,11.8,0,0.299953,0.00296232,-4.49849e-14
0.3,11.9,0,0.299953,0.00296232,-4.49849e-14
0.3,12,0,0.29996,0.00298942,-3.87783e-14
0.3,12.1,0,0.299967,0.00302266,-3.11664e-14
0.3,12.2,0,0.299975,0.0030559,-2.35545e-14
0.3,12.3,0,0.299972,0.00328479,-2.6953e-14
0.3,12.4,0,0.299969,0.00354371,-3.20416e-14
0.3,12.5,0,0.299972,0.00357447,-3.00755e-14
0.3,12.6,0,0.299976,0.00358581,-2.75089e-14
0.3,12.7,0,0.29998,0.00359716,-2.49423e-14
0.4,0,0,0.300005,-0.0043589,-1.34913e-13
0.4,0.1,0,0.300005,-0.00435035,-1.57771e-13
0.4,0.2,0,0.300006,-0.00434179,-1.80629e-13
0.4,0.3,0,0.300006,-0.00433324,-2.03487e-13
0.4,0.4,0,0.300006,-0.00431728,-2.2523e-13
0.4,0.5,0,0.300002,-0.004071,-2.13494e-13
0.4,0.6,0,0.299996,-0.00403872,-2.51422e-13
0.4,0.7,0,0.29999,-0.00400645,-2.89349e-13
0.4,0.8,0,0.299984,-0.00397417,-3.27277e-13
0.4,0.9,0,0.299979,-0.00394739,-3.58742e-13
0.4,1,0,0.299977,-0.0039398,-3.64806e-13
0.4,1.1,0,0.299964,-0.00389771,-3.9841e-13
0.4,1.2,0,0.299952,-0.00385561,-4.32014e-13
0.4,1.3,0,0.299939,-0.00381352,-4.65618e-13
0.4,1.4,0,0.299931,-0.00378429,-4.88959e-13
0.4,1.5,0,0.299927,-0.00376735,-4.98116e-13
0.4,1.6,0,0.299916,-0.00371442,-5.26723e-13
0.4,1.7,0,0.299905,-0.0036615,-5.55331e-13
0.4,1.8,0,0.299894,-0.00360858,-5.83938e-13
0.4,1.9,0,0.299888,-0.00357886,-6.00003e-13
0.4,2,0,0.299885,-0.00354926,-6.07091e-13
0.4,2.1,0,0.299876,-0.00348512,-6.2245e-13
0.4,2.2,0,0.299868,-0.00342099,-6.37809e-13
0.4,2.3,0,0.29986,-0.00335685,-6.53168e-13
0.4,2.4,0,0.299856,-0.00332824,-6.6002e-13
0.4,2.5,0,0.299852,-0.00328405,-6.65923e-13
0.4,2.6,0,0.299845,-0.00320745,-6.76154e-13
0.4,2.7,0,0.299837,-0.00313086,-6.86385e-13
0.4,2.8,0,0.29983,-0.00305426,-6.96616e-13
0.4,2.9,0,0.299827,-0.00302892,-7e-13
0.4,3,0,0.299823,-0.00296742,-7.01772e-13
0.4,3.1,0,0.299816,-0.00287857,-7.04331e-13
0.4,3.2,0,0.29981,-0.00278973,-7.0689e-13
0.4,3.3,0,0.299803,-0.00270089,-7.09449e-13
0.4,3.4,0,0.299802,-0.00268175,-7.1e-13
0.4,3.5,0,0.299798,-0.00260172,-7.05866e-13
0.4,3.6,0,0.299793,-0.00250264,-7.00748e-13
0.4,3.7,0,0.299788,-0.00240356,-6.9563e-13
0.4,3.8,0,0.299783,-0.00230448,-6.90512e-13
0.4,3.9,0,0.299782,-0.00229457,-6.9e-13
0.4,4,0,0.299779,-0.00219522,-6.85276e-13
0.4,4.1,0,0.299775,-0.00208759,-6.80157e-13
0.4,4.2,0,0.299772,-0.00197997,-6.75039e-13
0.4,4.3,0,0.299768,-0.00187399,-6.7e-13
0.4,4.4,0,0.299768,-0.00186961,-6.69606e-13
0.4,4.5,0,0.299765,-0.0017556,-6.5937e-13
0.4,4.6,0,0.299761,-0.0016416,-6.49134e-13
0.4,4.7,0,0.299758,-0.00152759,-6.38898e-13
0.4,4.8,0,0.299755,-0.00142849,-6.3e-13
0.4,4.9,0,0.299755,-0.00141016,-6.28425e-13
0.4,5,0,0.299752,-0.00129096,-6.18189e-13
0.4,5.1,0,0.29975,-0.00117177,-6.07953e-13
0.4,5.2,0,0.299747,-0.00105258,-5.97717e-13
0.4,5.3,0,0.299745,-0.000962728,-5.9e-13
0.4,5.4,0,0.299745,-0.000929685,-5.87244e-13
0.4,5.5,0,0.299743,-0.000806952,-5.77008e-13
0.4,5.6,0,0.299741,-0.00068422,-5.66772e-13
0.4,5.7,0,0.29974,-0.000561488,-5.56535e-13
0.4,5.8,0,0.299739,-0.000483128,-5.5e-13
0.4,5.9,0,0.299739,-0.000435347,-5.46063e-13
0.4,6,0,0.299738,-0.000311117,-5.35827e-13
0.4,6.1,0,0.299738,-0.000186886,-5.25591e-13
0.4,6.2,0,0.299737,-6.26559e-05,-5.15354e-13
0.4,6.3,0,0.299737,2.3262e-06,-5.1e-13
0.4,6.4,0,0.299737,6.43911e-05,-5.07441e-13
0.4,6.5,0,0.299737,0.000188521,-5.02323e-13
0.4,6.6,0,0.299738,0.000312651,-4.97205e-13
0.4,6.7,0,0.299738,0.00043678,-4.92087e-13
0.4,6.8,0,0.299739,0.000487387,-4.9e-13
0.4,6.9,0,0.299739,0.000562802,-4.83701e-13
0.4,7,0,0.299741,0.000685351,-4.73465e-13
0.4,7.1,0,0.299742,0.0008079,-4.63228e-13
0.4,7.2,0,0.299744,0.000930449,-4.52992e-13
0.4,7.3,0,0.299744,0.000966271,-4.5e-13
0.4,7.4,0,0.299746,0.00105325,-4.4252e-13
0.4,7.5,0,0.299749,0.00117227,-4.32283e-13
0.4,7.6,0,0.299751,0.00129129,-4.22047e-13
0.4,7.7,0,0.299754,0.00141031,-4.11811e-13
0.4,7.8,0,0.299754,0.00143137,-4.1e-13
0.4,7.9,0,0.299757,0.00152754,-4.01339e-13
0.4,8,0,0.299761,0.0016412,-3.91102e-13
0.4,8.1,0,0.299764,0.00175487,-3.80866e-13
0.4,8.2,0,0.299768,0.00186853,-3.7063e-13
0.4,8.3,0,0.299768,0.00187552,-3.7e-13
0.4,8.4,0,0.299772,0.00197805,-3.57697e-13
0.4,8.5,0,0.299776,0.00208468,-3.44902e-13
0.4,8.6,0,0.299781,0.00219131,-3.32106e-13
0.4,8.7,0,0.299785,0.0022922,-3.2e-13
0.4,8.8,0,0.299785,0.00229976,-3.19213e-13
0.4,8.9,0,0.29979,0.00239801,-3.08976e-13
0.4,9,0,0.299796,0.00249626,-2.9874e-13
0.4,9.1,0,0.299801,0.00259451,-2.88504e-13
0.4,9.2,0,0.299805,0.00267613,-2.8e-13
0.4,9.3,0,0.299806,0.00269314,-2.77539e-13
0.4,9.4,0,0.299812,0.00278163,-2.64744e-13
0.4,9.5,0,0.299818,0.00287011,-2.51949e-13
0.4,9.6,0,0.299823,0.0029586,-2.39154e-13
0.4,9.7,0,0.299828,0.0030219,-2.3e-13
0.4,9.8,0,0.29983,0.00304569,-2.26063e-13
0.4,9.9,0,0.299836,0.00312302,-2.13268e-13
0.4,10,0,0.299842,0.00320035,-2.00472e-13
0.4,10.1,0,0.299848,0.00327767,-1.87677e-13
0.4,10.2,0,0.299852,0.00332407,-1.8e-13
0.4,10.3,0,0.299855,0.00335143,-1.74586e-13
0.4,10.4,0,0.299862,0.00341611,-1.61789e-13
0.4,10.5,0,0.299869,0.00348079,-1.48991e-13
0.4,10.6,0,0.299876,0.00354547,-1.36194e-13
0.4,10.7,0,0.29988,0.00357681,-1.29992e-13
0.4,10.8,0,0.299884,0.00360507,-1.24482e-13
0.4,10.9,0,0.299891,0.00365754,-1.14249e-13
0.4,11,0,0.299899,0.00371002,-1.04015e-13
0.4,11.1,0,0.299907,0.0037625,-9.37819e-14
0.4,11.2,0,0.299909,0.00378187,-9.00034e-14
0.4,11.3,0,0.299914,0.00380996,-8.49797e-14
0.4,11.4,0,0.299921,0.00385293,-7.72965e-14
0.4,11.5,0,0.299929,0.00389589,-6.96134e-14
0.4,11.6,0,0.299936,0.00393885,-6.19302e-14
0.4,11.7,0,0.299938,0.00394976,-5.99798e-14
0.4,11.8,0,0.299938,0.00394976,-5.99798e-14
0.4,11.9,0,0.299944,0.00397609,-5.39489e-14
0.4,12,0,0.299951,0.00400933,-4.6337e-14
0.4,12.1,0,0.299959,0.00404257,-3.87252e-14
0.4,12.2,0,0.299967,0.00407581,-3.11133e-14
0.4,12.3,0,0.299964,0.00430337,-3.44368e-14
0.4,12.4,0,0.299968,0.00434061,-3.26709e-14
0.4,12.5,0,0.299971,0.00435195,-3.01043e-14
0.4,12.6,0,0.299975,0.00436329,-2.75377e-14
0.4,12.7,0,0.299979,0.00437464,-2.49712e-14
0.5,0,0,0.300002,-0.0051293,-1.5e-13
0.5,0.1,0,0.300002,-0.00512165,-1.72776e-13
0.5,0.2,0,0.300002,-0.005114,-1.95552e-13
0.5,0.3,0,0.300002,-0.00510635,-2.18328e-13
0.5,0.4,0,0.300002,-0.0050987,-2.41104e-13
0.5,0.5,0,0.300002,-0.00508936,-2.64675e-13
0.5,0.6,0,0.299996,-0.00505721,-3.03047e-13
0.5,0.7,0,0.29999,-0.00502507,-3.4142e-13
0.5,0.8,0,0.299985,-0.00499285,-3.79557e-13
0.5,0.9,0,0.299979,-0.00496058,-4.17484e-13
0.5,1,0,0.299972,-0.00492718,-4.54069e-13
0.5,1.1,0,0.299959,-0.00488508,-4.87673e-13
0.5,1.2,0,0.299947,-0.00484299,-5.21277e-13
0.5,1.3,0,0.299934,-0.0048009,-5.54881e-13
0.5,1.4,0,0.299922,-0.00475881,-5.88485e-13
0.5,1.5,0,0.29991,-0.00471376,-6.20169e-13
0.5,1.6,0,0.299899,-0.00466084,-6.48776e-13
0.5,1.7,0,0.299888,-0.00460792,-6.77384e-13
0.5,1.8,0,0.299877,-0.00455499,-7.05992e-13
0.5,1.9,0,0.299866,-0.00450207,-7.34599e-13
0.5,2,0,0.299857,-0.00444397,-7.57092e-13
0.5,2.1,0,0.299848,-0.00437984,-7.72451e-13
0.5,2.2,0,0.29984,-0.0043157,-7.8781e-13
0.5,2.3,0,0.299832,-0.00425157,-8.03169e-13
0.5,2.4,0,0.299824,-0.00418744,-8.18528e-13
0.5,2.5,0,0.299816,-0.00411611,-8.30928e-13
0.5,2.6,0,0.299809,-0.00403951,-8.41159e-13
0.5,2.7,0,0.299801,-0.00396292,-8.5139e-13
0.5,2.8,0,0.299794,-0.00388632,-8.61621e-13
0.5,2.9,0,0.299787,-0.00380972,-8.71852e-13
0.5,3,0,0.29978,-0.00372465,-8.76772e-13
0.5,3.1,0,0.299773,-0.0036358,-8.79331e-13
0.5,3.2,0,0.299767,-0.00354696,-8.8189e-13
0.5,3.3,0,0.29976,-0.00345812,-8.84449e-13
0.5,3.4,0,0.299754,-0.00336927,-8.87008e-13
0.5,3.5,0,0.299748,-0.00327216,-8.83366e-13
0.5,3.6,0,0.299743,-0.00317308,-8.78248e-13
0.5,3.7,0,0.299738,-0.003074,-8.7313e-13
0.5,3.8,0,0.299733,-0.00297492,-8.68012e-13
0.5,3.9,0,0.299728,-0.00287584,-8.62894e-13
0.5,4,0,0.299725,-0.00276887,-8.57776e-13
0.5,4.1,0,0.299721,-0.00266124,-8.52657e-13
0.5,4.2,0,0.299717,-0.00255361,-8.47539e-13
0.5,4.3,0,0.299714,-0.00244598,-8.42421e-13
0.5,4.4,0,0.29971,-0.00233811,-8.37106e-13
0.5,4.5,0,0.299707,-0.0022241,-8.2687e-13
0.5,4.6,0,0.299703,-0.00211009,-8.16634e-13
0.5,4.7,0,0.2997,-0.00199609,-8.06398e-13
0.5,4.8,0,0.299697,-0.00188208,-7.96161e-13
0.5,4.9,0,0.299694,-0.00176728,-7.85925e-13
0.5,5,0,0.299691,-0.00164809,-7.75689e-13
0.5,5.1,0,0.299688,-0.0015289,-7.65453e-13
0.5,5.2,0,0.299686,-0.0014097,-7.55217e-13
0.5,5.3,0,0.299683,-0.00129051,-7.4498e-13
0.5,5.4,0,0.299681,-0.00117037,-7.34744e-13
0.5,5.5,0,0.299679,-0.00104763,-7.24508e-13
0.5,5.6,0,0.299678,-0.000924902,-7.14272e-13
0.5,5.7,0,0.299676,-0.00080217,-7.04035e-13
0.5,5.8,0,0.299674,-0.000679438,-6.93799e-13
0.5,5.9,0,0.299673,-0.000556129,-6.83563e-13
0.5,6,0,0.299673,-0.000431899,-6.73327e-13
0.5,6.1,0,0.299672,-0.000307668,-6.63091e-13
0.5,6.2,0,0.299672,-0.000183438,-6.52854e-13
0.5,6.3,0,0.299671,-5.92075e-05,-6.42618e-13
0.5,6.4,0,0.299671,6.49726e-05,-6.34941e-13
0.5,6.5,0,0.299672,0.000189102,-6.29823e-13
0.5,6.6,0,0.299672,0.000313232,-6.24705e-13
0.5,6.7,0,0.299673,0.000437362,-6.19587e-13
0.5,6.8,0,0.299673,0.000561492,-6.14469e-13
0.5,6.9,0,0.299674,0.000684649,-6.06201e-13
0.5,7,0,0.299676,0.000807198,-5.95965e-13
0.5,7.1,0,0.299677,0.000929747,-5.85728e-13
0.5,7.2,0,0.299678,0.0010523,-5.75492e-13
0.5,7.3,0,0.29968,0.00117485,-5.65256e-13
0.5,7.4,0,0.299682,0.00129482,-5.5502e-13
0.5,7.5,0,0.299685,0.00141384,-5.44783e-13