x,y,z,p
0,0,0,0.000354103
0,0.1,0,0.000569283
0,0.2,0,0.000784464
0,0.3,0,0.000999645
0,0.4,0,0.00121483
0,0.5,0,0.00143787
0,0.6,0,0.0017212
0,0.7,0,0.00200454
0,0.8,0,0.00228787
0,0.9,0,0.00257121
0,1,0,0.00285277
0,1.1,0,0.00312841
0,1.2,0,0.00340406
0,1.3,0,0.00367971
0,1.4,0,0.00395535
0,1.5,0,0.00422809
0,1.6,0,0.00449534
0,1.7,0,0.00476259
0,1.8,0,0.00502983
0,1.9,0,0.00529708
0,2,0,0.00555995
0,2.1,0,0.00581773
0,2.2,0,0.0060755
0,2.3,0,0.00633328
0,2.4,0,0.00659106
0,2.5,0,0.00684121
0,2.6,0,0.00708576
0,2.7,0,0.00733032
0,2.8,0,0.00757488
0,2.9,0,0.00781943
0,3,0,0.00805098
0,3.1,0,0.00827674
0,3.2,0,0.0085025
0,3.3,0,0.00872827
0,3.4,0,0.00895403
0,3.5,0,0.00916076
0,3.6,0,0.00936297
0,3.7,0,0.00956517
0,3.8,0,0.00976738
0,3.9,0,0.00996958
0,4,0,0.0101458
0,4.1,0,0.0103198
0,4.2,0,0.0104939
0,4.3,0,0.0106679
0,4.4,0,0.0108407
0,4.5,0,0.0109821
0,4.6,0,0.0111235
0,4.7,0,0.0112649
0,4.8,0,0.0114063
0,4.9,0,0.011542
0,5,0,0.0116466
0,5.1,0,0.0117512
0,5.2,0,0.0118557
0,5.3,0,0.0119603
0,5.4,0,0.012054
0,5.5,0,0.0121183
0,5.6,0,0.0121826
0,5.7,0,0.0122469
0,5.8,0,0.0123112
0,5.9,0,0.0123592
0,6,0,0.0123811
0,6.1,0,0.012403
0,6.2,0,0.0124249
0,6.3,0,0.0124468
0,6.4,0,0.0124472
0,6.5,0,0.012426
0,6.6,0,0.0124048
0,6.7,0,0.0123836
0,6.8,0,0.0123624
0,6.9,0,0.0123151
0,7,0,0.0122516
0,7.1,0,0.0121881
0,7.2,0,0.0121245
0,7.3,0,0.012061
0,7.4,0,0.0119681
0,7.5,0,0.0118643
0,7.6,0,0.0117605
0,7.7,0,0.0116568
0,7.8,0,0.011553
0,7.9,0,0.011418
0,8,0,0.0112772
0,8.1,0,0.0111365
0,8.2,0,0.0109958
0,8.3,0,0.0108551
0,8.4,0,0.0106828
0,8.5,0,0.0105093
0,8.6,0,0.0103358
0,8.7,0,0.0101623
0,8.8,0,0.00998662
0,8.9,0,0.00978495
0,9,0,0.00958327
0,9.1,0,0.0093816
0,9.2,0,0.00917993
0,9.3,0,0.00897374
0,9.4,0,0.00874862
0,9.5,0,0.00852349
0,9.6,0,0.00829836
0,9.7,0,0.00807324
0,9.8,0,0.00784231
0,9.9,0,0.00759833
0,10,0,0.00735434
0,10.1,0,0.00711036
0,10.2,0,0.00686638
0,10.3,0,0.00661626
0,10.4,0,0.00635778
0,10.5,0,0.00609929
0,10.6,0,0.00584081
0,10.7,0,0.00558232
0,10.8,0,0.00531813
0,10.9,0,0.00504906
0,11,0,0.00477998
0,11.1,0,0.00451091
0,11.2,0,0.00424183
0,11.3,0,0.00396757
0,11.4,0,0.00369057
0,11.5,0,0.00341357
0,11.6,0,0.00313657
0,11.7,0,0.00285957
0,11.8,0,0.00257716
0,11.9,0,0.00229312
0,12,0,0.00200909
0,12.1,0,0.00172505
0,12.2,0,0.00144102
0,12.3,0,0.00121751
0,12.4,0,0.00100189
0,12.5,0,0.000786277
0,12.6,0,0.000570662
0,12.7,0,0.000355046
0.1,0,0,0.000283282
0.1,0.1,0,0.000567835
0.1,0.2,0,0.000783016
0.1,0.3,0,0.000998196
0.1,0.4,0,0.00121338
0.1,0.5,0,0.00143566
0.1,0.6,0,0.00171965
0.1,0.7,0,0.00200298
0.1,0.8,0,0.00228632
0.1,0.9,0,0.00256965
0.1,1,0,0.00285195
0.1,1.1,0,0.00312979
0.1,1.2,0,0.00340544
0.1,1.3,0,0.00368108
0.1,1.4,0,0.00395673
0.1,1.5,0,0.00423064
0.1,1.6,0,0.00449995
0.1,1.7,0,0.0047672
0.1,1.8,0,0.00503444
0.1,1.9,0,0.00530169
0.1,2,0,0.00556551
0.1,2.1,0,0.00582435
0.1,2.2,0,0.00608213
0.1,2.3,0,0.0063399
0.1,2.4,0,0.00659768
0.1,2.5,0,0.00684906
0.1,2.6,0,0.00709446
0.1,2.7,0,0.00733902
0.1,2.8,0,0.00758358
0.1,2.9,0,0.00782813
0.1,3,0,0.00806119
0.1,3.1,0,0.00828757
0.1,3.2,0,0.00851334
0.1,3.3,0,0.0087391
0.1,3.4,0,0.00896486
0.1,3.5,0,0.00917354
0.1,3.6,0,0.00937615
0.1,3.7,0,0.00957836
0.1,3.8,0,0.00978056
0.1,3.9,0,0.00998277
0.1,4,0,0.0101612
0.1,4.1,0,0.0103354
0.1,4.2,0,0.0105094
0.1,4.3,0,0.0106835
0.1,4.4,0,0.0108564
0.1,4.5,0,0.0109998
0.1,4.6,0,0.0111412
0.1,4.7,0,0.0112826
0.1,4.8,0,0.011424
0.1,4.9,0,0.01156
0.1,5,0,0.0116659
0.1,5.1,0,0.0117705
0.1,5.2,0,0.011875
0.1,5.3,0,0.0119796
0.1,5.4,0,0.0120736
0.1,5.5,0,0.0121387
0.1,5.6,0,0.012203
0.1,5.7,0,0.0122673
0.1,5.8,0,0.0123316
0.1,5.9,0,0.0123798
0.1,6,0,0.0124019
0.1,6.1,0,0.0124239
0.1,6.2,0,0.0124458
0.1,6.3,0,0.0124677
0.1,6.4,0,0.0124679
0.1,6.5,0,0.0124465
0.1,6.6,0,0.0124253
0.1,6.7,0,0.0124041
0.1,6.8,0,0.0123829
0.1,6.9,0,0.012335
0.1,7,0,0.012271
0.1,7.1,0,0.0122075
0.1,7.2,0,0.012144
0.1,7.3,0,0.0120805
0.1,7.4,0,0.0119863
0.1,7.5,0,0.0118821
0.1,7.6,0,0.0117784
0.1,7.7,0,0.0116746
0.1,7.8,0,0.0115709
0.1,7.9,0,0.0114341
0.1,8,0,0.0112931
0.1,8.1,0,0.0111524
0.1,8.2,0,0.0110117
0.1,8.3,0,0.0108709
0.1,8.4,0,0.0106965
0.1,8.5,0,0.010523
0.1,8.6,0,0.0103495
0.1,8.7,0,0.010176
0.1,8.8,0,0.0100001
0.1,8.9,0,0.00979628
0.1,9,0,0.00959461
0.1,9.1,0,0.00939294
0.1,9.2,0,0.00919126
0.1,9.3,0,0.00898462
0.1,9.4,0,0.00875761
0.1,9.5,0,0.00853248
0.1,9.6,0,0.00830736
0.1,9.7,0,0.00808223
0.1,9.8,0,0.00785061
0.1,9.9,0,0.00760511
0.1,10,0,0.00736113
0.1,10.1,0,0.00711715
0.1,10.2,0,0.00687316
0.1,10.3,0,0.00662216
0.1,10.4,0,0.00636252
0.1,10.5,0,0.00610404
0.1,10.6,0,0.00584555
0.1,10.7,0,0.00558707
0.1,10.8,0,0.00532185
0.1,10.9,0,0.00505194
0.1,11,0,0.00478286
0.1,11.1,0,0.00451379
0.1,11.2,0,0.00424471
0.1,11.3,0,0.00396933
0.1,11.4,0,0.00369177
0.1,11.5,0,0.00341477
0.1,11.6,0,0.00313777
0.1,11.7,0,0.00286077
0.1,11.8,0,0.00257836
0.1,11.9,0,0.00229432
0.1,12,0,0.00201029
0.1,12.1,0,0.00172625
0.1,12.2,0,0.00144255
0.1,12.3,0,0.00121869
0.1,12.4,0,0.00100307
0.1,12.5,0,0.000787457
0.1,12.6,0,0.000571841
0.1,12.7,0,0.000284037
0.2,0,0,0.000212462
0.2,0.1,0,0.000497526
0.2,0.2,0,0.000781568
0.2,0.3,0,0.000996748
0.2,0.4,0,0.00121193
0.2,0.5,0,0.00143337
0.2,0.6,0,0.00171745
0.2,0.7,0,0.00200143
0.2,0.8,0,0.00228476
0.2,0.9,0,0.00256809
0.2,1,0,0.00285045
0.2,1.1,0,0.00312902
0.2,1.2,0,0.00340681
0.2,1.3,0,0.00368246
0.2,1.4,0,0.00395811
0.2,1.5,0,0.00423205
0.2,1.6,0,0.00450257
0.2,1.7,0,0.00477181
0.2,1.8,0,0.00503905
0.2,1.9,0,0.0053063
0.2,2,0,0.00557012
0.2,2.1,0,0.00582996
0.2,2.2,0,0.00608875
0.2,2.3,0,0.00634652
0.2,2.4,0,0.0066043
0.2,2.5,0,0.00685568
0.2,2.6,0,0.00710236
0.2,2.7,0,0.00734772
0.2,2.8,0,0.00759228
0.2,2.9,0,0.00783684
0.2,3,0,0.00806989
0.2,3.1,0,0.00829784
0.2,3.2,0,0.00852417
0.2,3.3,0,0.00874993
0.2,3.4,0,0.0089757
0.2,3.5,0,0.00918438
0.2,3.6,0,0.00938899
0.2,3.7,0,0.00959154
0.2,3.8,0,0.00979375
0.2,3.9,0,0.00999595
0.2,4,0,0.0101744
0.2,4.1,0,0.0103509
0.2,4.2,0,0.010525
0.2,4.3,0,0.0106991
0.2,4.4,0,0.0108719
0.2,4.5,0,0.0110155
0.2,4.6,0,0.0111589
0.2,4.7,0,0.0113003
0.2,4.8,0,0.0114417
0.2,4.9,0,0.0115777
0.2,5,0,0.0116839
0.2,5.1,0,0.0117898
0.2,5.2,0,0.0118943
0.2,5.3,0,0.0119989
0.2,5.4,0,0.0120929
0.2,5.5,0,0.0121583
0.2,5.6,0,0.0122234
0.2,5.7,0,0.0122877
0.2,5.8,0,0.012352
0.2,5.9,0,0.0124001
0.2,6,0,0.0124225
0.2,6.1,0,0.0124447
0.2,6.2,0,0.0124666
0.2,6.3,0,0.0124885
0.2,6.4,0,0.0124887
0.2,6.5,0,0.0124672
0.2,6.6,0,0.0124458
0.2,6.7,0,0.0124246
0.2,6.8,0,0.0124034
0.2,6.9,0,0.0123555
0.2,7,0,0.0122909
0.2,7.1,0,0.012227
0.2,7.2,0,0.0121634
0.2,7.3,0,0.0120999
0.2,7.4,0,0.0120058
0.2,7.5,0,0.0119004
0.2,7.6,0,0.0117962
0.2,7.7,0,0.0116925
0.2,7.8,0,0.0115887
0.2,7.9,0,0.011452
0.2,8,0,0.0113092
0.2,8.1,0,0.0111683
0.2,8.2,0,0.0110276
0.2,8.3,0,0.0108868
0.2,8.4,0,0.0107124
0.2,8.5,0,0.0105367
0.2,8.6,0,0.0103632
0.2,8.7,0,0.0101897
0.2,8.8,0,0.0100138
0.2,8.9,0,0.00980972
0.2,9,0,0.00960595
0.2,9.1,0,0.00940427
0.2,9.2,0,0.0092026
0.2,9.3,0,0.00899595
0.2,9.4,0,0.00876843
0.2,9.5,0,0.00854147
0.2,9.6,0,0.00831635
0.2,9.7,0,0.00809122
0.2,9.8,0,0.0078596
0.2,9.9,0,0.00761336
0.2,10,0,0.00736791
0.2,10.1,0,0.00712393
0.2,10.2,0,0.00687995
0.2,10.3,0,0.00662895
0.2,10.4,0,0.00636837
0.2,10.5,0,0.00610878
0.2,10.6,0,0.0058503
0.2,10.7,0,0.00559181
0.2,10.8,0,0.0053266
0.2,10.9,0,0.00505561
0.2,11,0,0.00478575
0.2,11.1,0,0.00451667
0.2,11.2,0,0.0042476
0.2,11.3,0,0.00397221
0.2,11.4,0,0.00369349
0.2,11.5,0,0.00341597
0.2,11.6,0,0.00313897
0.2,11.7,0,0.00286197
0.2,11.8,0,0.00257956
0.2,11.9,0,0.00229552
0.2,12,0,0.00201149
0.2,12.1,0,0.00172778
0.2,12.2,0,0.00144413
0.2,12.3,0,0.00121987
0.2,12.4,0,0.00100425
0.2,12.5,0,0.000788636
0.2,12.6,0,0.00050277
0.2,12.7,0,0.000213028
0.3,0,0,0.000141641
0.3,0.1,0,0.000426706
0.3,0.2,0,0.00071177
0.3,0.3,0,0.0009953
0.3,0.4,0,0.00121048
0.3,0.5,0,0.00143108
0.3,0.6,0,0.00171516
0.3,0.7,0,0.00199924
0.3,0.8,0,0.00228321
0.3,0.9,0,0.00256654
0.3,1,0,0.00284895
0.3,1.1,0,0.00312753
0.3,1.2,0,0.0034061
0.3,1.3,0,0.00368384
0.3,1.4,0,0.00395948
0.3,1.5,0,0.00423346
0.3,1.6,0,0.00450398
0.3,1.7,0,0.0047745
0.3,1.8,0,0.00504366
0.3,1.9,0,0.00531091
0.3,2,0,0.00557474
0.3,2.1,0,0.00583457
0.3,2.2,0,0.0060944
0.3,2.3,0,0.00635314
0.3,2.4,0,0.00661092
0.3,2.5,0,0.0068623
0.3,2.6,0,0.00710898
0.3,2.7,0,0.00735567
0.3,2.8,0,0.00760098
0.3,2.9,0,0.00784554
0.3,3,0,0.00807859
0.3,3.1,0,0.00830654
0.3,3.2,0,0.00853448
0.3,3.3,0,0.00876077
0.3,3.4,0,0.00898653
0.3,3.5,0,0.00919521
0.3,3.6,0,0.00939982
0.3,3.7,0,0.00960443
0.3,3.8,0,0.00980693
0.3,3.9,0,0.0100091
0.3,4,0,0.0101876
0.3,4.1,0,0.0103641
0.3,4.2,0,0.0105406
0.3,4.3,0,0.0107146
0.3,4.4,0,0.0108875
0.3,4.5,0,0.0110311
0.3,4.6,0,0.0111746
0.3,4.7,0,0.011318
0.3,4.8,0,0.0114594
0.3,4.9,0,0.0115953
0.3,5,0,0.0117016
0.3,5.1,0,0.0118078
0.3,5.2,0,0.0119136
0.3,5.3,0,0.0120182
0.3,5.4,0,0.0121122
0.3,5.5,0,0.0121776
0.3,5.6,0,0.012243
0.3,5.7,0,0.012308
0.3,5.8,0,0.0123723
0.3,5.9,0,0.0124205
0.3,6,0,0.0124429
0.3,6.1,0,0.0124652
0.3,6.2,0,0.0124874
0.3,6.3,0,0.0125093
0.3,6.4,0,0.0125095
0.3,6.5,0,0.012488
0.3,6.6,0,0.0124665
0.3,6.7,0,0.0124451
0.3,6.8,0,0.0124239
0.3,6.9,0,0.012376
0.3,7,0,0.0123114
0.3,7.1,0,0.0122468
0.3,7.2,0,0.0121829
0.3,7.3,0,0.0121194
0.3,7.4,0,0.0120252
0.3,7.5,0,0.0119198
0.3,7.6,0,0.0118144
0.3,7.7,0,0.0117103
0.3,7.8,0,0.0116065
0.3,7.9,0,0.0114698
0.3,8,0,0.0113271
0.3,8.1,0,0.0111843
0.3,8.2,0,0.0110434
0.3,8.3,0,0.0109027
0.3,8.4,0,0.0107283
0.3,8.5,0,0.0105525
0.3,8.6,0,0.0103768
0.3,8.7,0,0.0102033
0.3,8.8,0,0.0100275
0.3,8.9,0,0.0098234
0.3,9,0,0.00961933
0.3,9.1,0,0.00941561
0.3,9.2,0,0.00921393
0.3,9.3,0,0.00900729
0.3,9.4,0,0.00877976
0.3,9.5,0,0.00855224
0.3,9.6,0,0.00832534
0.3,9.7,0,0.00810021
0.3,9.8,0,0.00786859
0.3,9.9,0,0.00762235
0.3,10,0,0.00737611
0.3,10.1,0,0.00713071
0.3,10.2,0,0.00688673
0.3,10.3,0,0.00663573
0.3,10.4,0,0.00637516
0.3,10.5,0,0.00611459
0.3,10.6,0,0.00585504
0.3,10.7,0,0.00559656
0.3,10.8,0,0.00533134
0.3,10.9,0,0.00506036
0.3,11,0,0.00478938
0.3,11.1,0,0.00451955
0.3,11.2,0,0.00425048
0.3,11.3,0,0.00397509
0.3,11.4,0,0.00369637
0.3,11.5,0,0.00341765
0.3,11.6,0,0.00314017
0.3,11.7,0,0.00286317
0.3,11.8,0,0.00258075
0.3,11.9,0,0.00229672
0.3,12,0,0.002013
0.3,12.1,0,0.00172936
0.3,12.2,0,0.00144571
0.3,12.3,0,0.00122105
0.3,12.4,0,0.00100543
0.3,12.5,0,0.000721503
0.3,12.6,0,0.000431761
0.3,12.7,0,0.000142019
0.4,0,0,7.08206e-05
0.4,0.1,0,0.000355885
0.4,0.2,0,0.000640949
0.4,0.3,0,0.000926014
0.4,0.4,0,0.00120903
0.4,0.5,0,0.00142879
0.4,0.6,0,0.00171287
0.4,0.7,0,0.00199695
0.4,0.8,0,0.00228103
0.4,0.9,0,0.00256498
0.4,1,0,0.00284746
0.4,1.1,0,0.00312603
0.4,1.2,0,0.00340461
0.4,1.3,0,0.00368318
0.4,1.4,0,0.00396086
0.4,1.5,0,0.00423487
0.4,1.6,0,0.00450539
0.4,1.7,0,0.00477591
0.4,1.8,0,0.00504644
0.4,1.9,0,0.00531552
0.4,2,0,0.00557935
0.4,2.1,0,0.00583918
0.4,2.2,0,0.00609901
0.4,2.3,0,0.00635885
0.4,2.4,0,0.00661754
0.4,2.5,0,0.00686892
0.4,2.6,0,0.00711561
0.4,2.7,0,0.00736229
0.4,2.8,0,0.00760898
0.4,2.9,0,0.00785424
0.4,3,0,0.0080873
0.4,3.1,0,0.00831524
0.4,3.2,0,0.00854319
0.4,3.3,0,0.00877113
0.4,3.4,0,0.00899736
0.4,3.5,0,0.00920604
0.4,3.6,0,0.00941065
0.4,3.7,0,0.00961527
0.4,3.8,0,0.00981988
0.4,3.9,0,0.0100223
0.4,4,0,0.0102008
0.4,4.1,0,0.0103773
0.4,4.2,0,0.0105538
0.4,4.3,0,0.0107302
0.4,4.4,0,0.0109031
0.4,4.5,0,0.0110466
0.4,4.6,0,0.0111902
0.4,4.7,0,0.0113338
0.4,4.8,0,0.011477
0.4,4.9,0,0.011613
0.4,5,0,0.0117192
0.4,5.1,0,0.0118255
0.4,5.2,0,0.0119317
0.4,5.3,0,0.0120375
0.4,5.4,0,0.0121315
0.4,5.5,0,0.0121969
0.4,5.6,0,0.0122623
0.4,5.7,0,0.0123277
0.4,5.8,0,0.0123927
0.4,5.9,0,0.0124409
0.4,6,0,0.0124632
0.4,6.1,0,0.0124856
0.4,6.2,0,0.012508
0.4,6.3,0,0.0125301
0.4,6.4,0,0.0125303
0.4,6.5,0,0.0125088
0.4,6.6,0,0.0124873
0.4,6.7,0,0.0124658
0.4,6.8,0,0.0124444
0.4,6.9,0,0.0123965
0.4,7,0,0.0123319
0.4,7.1,0,0.0122673
0.4,7.2,0,0.0122027
0.4,7.3,0,0.0121388
0.4,7.4,0,0.0120447
0.4,7.5,0,0.0119393
0.4,7.6,0,0.0118339
0.4,7.7,0,0.0117284
0.4,7.8,0,0.0116244
0.4,7.9,0,0.0114876
0.4,8,0,0.0113449
0.4,8.1,0,0.0112022
0.4,8.2,0,0.0110594
0.4,8.3,0,0.0109186
0.4,8.4,0,0.0107442
0.4,8.5,0,0.0105684
0.4,8.6,0,0.0103927
0.4,8.7,0,0.010217
0.4,8.8,0,0.0100412
0.4,8.9,0,0.00983708
0.4,9,0,0.00963301
0.4,9.1,0,0.00942894
0.4,9.2,0,0.00922527
0.4,9.3,0,0.00901862
0.4,9.4,0,0.0087911
0.4,9.5,0,0.00856357
0.4,9.6,0,0.00833605
0.4,9.7,0,0.00810921
0.4,9.8,0,0.00787758
0.4,9.9,0,0.00763134
0.4,10,0,0.0073851
0.4,10.1,0,0.00713886
0.4,10.2,0,0.00689352
0.4,10.3,0,0.00664252
0.4,10.4,0,0.00638194
0.4,10.5,0,0.00612137
0.4,10.6,0,0.0058608
0.4,10.7,0,0.0056013
0.4,10.8,0,0.00533609
0.4,10.9,0,0.0050651
0.4,11,0,0.00479412
0.4,11.1,0,0.00452314
0.4,11.2,0,0.00425336
0.4,11.3,0,0.00397798
0.4,11.4,0,0.00369925
0.4,11.5,0,0.00342053
0.4,11.6,0,0.0031418
0.4,11.7,0,0.00286437
0.4,11.8,0,0.00258195
0.4,11.9,0,0.00229823
0.4,12,0,0.00201458
0.4,12.1,0,0.00173094
0.4,12.2,0,0.0014473
0.4,12.3,0,0.00122223
0.4,12.4,0,0.000940236
0.4,12.5,0,0.000650494
0.4,12.6,0,0.000360751
0.4,12.7,0,7.10093e-05
0.5,0,0,0
0.5,0.1,0,0.000285325
0.5,0.2,0,0.000570649
0.5,0.3,0,0.000855974
0.5,0.4,0,0.0011413
0.5,0.5,0,0.00142656
0.5,0.6,0,0.00171062
0.5,0.7,0,0.00199467
0.5,0.8,0,0.00227874
0.5,0.9,0,0.00256282
0.5,1,0,0.00284596
0.5,1.1,0,0.00312454
0.5,1.2,0,0.00340311
0.5,1.3,0,0.00368169
0.5,1.4,0,0.00396026
0.5,1.5,0,0.00423628
0.5,1.6,0,0.0045068
0.5,1.7,0,0.00477732
0.5,1.8,0,0.00504785
0.5,1.9,0,0.00531837
0.5,2,0,0.00558396
0.5,2.1,0,0.00584379
0.5,2.2,0,0.00610362
0.5,2.3,0,0.00636346
0.5,2.4,0,0.00662329
0.5,2.5,0,0.00687554
0.5,2.6,0,0.00712223
0.5,2.7,0,0.00736891
0.5,2.8,0,0.0076156
0.5,2.9,0,0.00786229
0.5,3,0,0.008096
0.5,3.1,0,0.00832394
0.5,3.2,0,0.00855189
0.5,3.3,0,0.00877983
0.5,3.4,0,0.00900778
0.5,3.5,0,0.00921688
0.5,3.6,0,0.00942149
0.5,3.7,0,0.0096261
0.5,3.8,0,0.00983071
0.5,3.9,0,0.0100353
0.5,4,0,0.010214
0.5,4.1,0,0.0103905
0.5,4.2,0,0.010567
0.5,4.3,0,0.0107434
0.5,4.4,0,0.0109187
0.5,4.5,0,0.0110622
0.5,4.6,0,0.0112058
0.5,4.7,0,0.0113493
0.5,4.8,0,0.0114929
0.5,4.9,0,0.0116307
0.5,5,0,0.0117369
0.5,5.1,0,0.0118431
0.5,5.2,0,0.0119493
0.5,5.3,0,0.0120556
0.5,5.4,0,0.0121508
0.5,5.5,0,0.0122162
0.5,5.6,0,0.0122816
0.5,5.7,0,0.012347
0.5,5.8,0,0.0124124
0.5,5.9,0,0.0124613
0.5,6,0,0.0124836
0.5,6.1,0,0.012506
0.5,6.2,0,0.0125283
0.5,6.3,0,0.0125507
0.5,6.4,0,0.0125511
0.5,6.5,0,0.0125296
0.5,6.6,0,0.0125081
0.5,6.7,0,0.0124866
0.5,6.8,0,0.0124651
0.5,6.9,0,0.012417
0.5,7,0,0.0123524
0.5,7.1,0,0.0122878
0.5,7.2,0,0.0122232
0.5,7.3,0,0.0121586
0.5,7.4,0,0.0120642
0.5,7.5,0,0.0119587
0.5,7.6,0,0.0118533
0.5,7.7,0,0.0117479
0.5,7.8,0,0.0116425
0.5,7.9,0,0.0115055
0.5,8,0,0.0113627
0.5,8.1,0,0.01122
0.5,8.2,0,0.0110773
0.5,8.3,0,0.0109345
0.5,8.4,0,0.0107601
0.5,8.5,0,0.0105843
0.5,8.6,0,0.0104085
0.5,8.7,0,0.0102328
0.5,8.8,0,0.0100548
0.5,8.9,0,0.00985076
0.5,9,0,0.00964669
0.5,9.1,0,0.00944262
0.5,9.2,0,0.00923854
0.5,9.3,0,0.00902996
0.5,9.4,0,0.00880244
0.5,9.5,0,0.00857491
0.5,9.6,0,0.00834738
0.5,9.7,0,0.00811986
0.5,9.8,0,0.00788658
0.5,9.9,0,0.00764033
0.5,10,0,0.00739409
0.5,10.1,0,0.00714785
0.5,10.2,0,0.00690161
0.5,10.3,0,0.0066493
0.5,10.4,0,0.00638873
0.5,10.5,0,0.00612816
0.5,10.6,0,0.00586758
0.5,10.7,0,0.00560701
0.5,10.8,0,0.00534083
0.5,10.9,0,0.00506985
0.5,11,0,0.00479887
0.5,11.1,0,0.00452789
0.5,11.2,0,0.0042569
0.5,11.3,0,0.00398086
0.5,11.4,0,0.00370213
0.5,11.5,0,0.00342341
0.5,11.6,0,0.00314469
0.5,11.7,0,0.00286596
0.5,11.8,0,0.00258346
0.5,11.9,0,0.00229982
0.5,12,0,0.00201618
0.5,12.1,0,0.00173253
0.5,12.2,0,0.00144889
0.5,12.3,0,0.00115979
0.5,12.4,0,0.00086984
0.5,12.5,0,0.000579894
0.5,12.6,0,0.000289947
0.5,12.7,0,0
0.6,0,0,0
0.6,0.1,0,0.00028653
0.6,0.2,0,0.000571855
0.6,0.3,0,0.000857179
0.6,0.4,0,0.0011425
0.6,0.5,0,0.00142779
0.6,0.6,0,0.00171235
0.6,0.7,0,0.00199641
0.6,0.8,0,0.00228046
0.6,0.9,0,0.00256451
0.6,1,0,0.00284871
0.6,1.1,0,0.00313233
0.6,1.2,0,0.00341091
0.6,1.3,0,0.0036895
0.6,1.4,0,0.00396808
0.6,1.5,0,0.00424584
0.6,1.6,0,0.0045198
0.6,1.7,0,0.00479035
0.6,1.8,0,0.0050609
0.6,1.9,0,0.00533145
0.6,2,0,0.00560059
0.6,2.1,0,0.00586435
0.6,2.2,0,0.00612418
0.6,2.3,0,0.00638402
0.6,2.4,0,0.00664385
0.6,2.5,0,0.00689959
0.6,2.6,0,0.00714869
0.6,2.7,0,0.00739538
0.6,2.8,0,0.00764206
0.6,2.9,0,0.00788875
0.6,3,0,0.00812728
0.6,3.1,0,0.0083572
0.6,3.2,0,0.00858515
0.6,3.3,0,0.00881309
0.6,3.4,0,0.00904104
0.6,3.5,0,0.00925605
0.6,3.6,0,0.0094619
0.6,3.7,0,0.00966651
0.6,3.8,0,0.00987112
0.6,3.9,0,0.0100757
0.6,4,0,0.010261
0.6,4.1,0,0.0104379
0.6,4.2,0,0.0106144
0.6,4.3,0,0.0107909
0.6,4.4,0,0.0109663
0.6,4.5,0,0.011116
0.6,4.6,0,0.0112595
0.6,4.7,0,0.0114031
0.6,4.8,0,0.0115467
0.6,4.9,0,0.0116853
0.6,5,0,0.0117958
0.6,5.1,0,0.011902
0.6,5.2,0,0.0120082
0.6,5.3,0,0.0121144
0.6,5.4,0,0.0122106
0.6,5.5,0,0.0122784
0.6,5.6,0,0.0123438
0.6,5.7,0,0.0124092
0.6,5.8,0,0.0124746
0.6,5.9,0,0.012524
0.6,6,0,0.0125471
0.6,6.1,0,0.0125694
0.6,6.2,0,0.0125918
0.6,6.3,0,0.0126142
0.6,6.4,0,0.012614
0.6,6.5,0,0.012592
0.6,6.6,0,0.0125705
0.6,6.7,0,0.012549
0.6,6.8,0,0.0125275
0.6,6.9,0,0.0124774
0.6,7,0,0.0124116
0.6,7.1,0,0.012347
0.6,7.2,0,0.0122824
0.6,7.3,0,0.0122177
0.6,7.4,0,0.0121196
0.6,7.5,0,0.0120129
0.6,7.6,0,0.0119075
0.6,7.7,0,0.011802
0.6,7.8,0,0.0116966
0.6,7.9,0,0.0115542
0.6,8,0,0.0114106
0.6,8.1,0,0.0112679
0.6,8.2,0,0.0111252
0.6,8.3,0,0.0109824
0.6,8.4,0,0.0108011
0.6,8.5,0,0.0106252
0.6,8.6,0,0.0104495
0.6,8.7,0,0.0102737
0.6,8.8,0,0.0100952
0.6,8.9,0,0.00988457
0.6,9,0,0.00968049
0.6,9.1,0,0.00947642
0.6,9.2,0,0.00927235
0.6,9.3,0,0.0090624
0.6,9.4,0,0.0088293
0.6,9.5,0,0.00860178
0.6,9.6,0,0.00837425
0.6,9.7,0,0.00814673
0.6,9.8,0,0.00791139
0.6,9.9,0,0.00766068
0.6,10,0,0.00741444
0.6,10.1,0,0.00716819
0.6,10.2,0,0.00692195
0.6,10.3,0,0.00666717
0.6,10.4,0,0.00640335
0.6,10.5,0,0.00614278
0.6,10.6,0,0.00588221
0.6,10.7,0,0.00562164
0.6,10.8,0,0.00535191
0.6,10.9,0,0.00507812
0.6,11,0,0.00480713
0.6,11.1,0,0.00453615
0.6,11.2,0,0.00426517
0.6,11.3,0,0.00398907
0.6,11.4,0,0.00371035
0.6,11.5,0,0.00343162
0.6,11.6,0,0.0031529
0.6,11.7,0,0.00287012
0.6,11.8,0,0.00258637
0.6,11.9,0,0.00230273
0.6,12,0,0.00201909
0.6,12.1,0,0.00173545
0.6,12.2,0,0.00144742
0.6,12.3,0,0.00115762
0.6,12.4,0,0.000867676
0.6,12.5,0,0.00057773
0.6,12.6,0,0.000287783
0.6,12.7,0,0
0.7,0,0,0
0.7,0.1,0,0.000286539
0.7,0.2,0,0.000573061
0.7,0.3,0,0.000858385
0.7,0.4,0,0.00114371
0.7,0.5,0,0.001429
0.7,0.6,0,0.00171359
0.7,0.7,0,0.00199815
0.7,0.8,0,0.0022822
0.7,0.9,0,0.00256625
0.7,1,0,0.00285043
0.7,1.1,0,0.00313542
0.7,1.2,0,0.00341884
0.7,1.3,0,0.00369743
0.7,1.4,0,0.00397601
0.7,1.5,0,0.00425379
0.7,1.6,0,0.00452966
0.7,1.7,0,0.00480345
0.7,1.8,0,0.005074
0.7,1.9,0,0.00534455
0.7,2,0,0.00561371
0.7,2.1,0,0.00588116
0.7,2.2,0,0.00614474
0.7,2.3,0,0.00640458
0.7,2.4,0,0.00666441
0.7,2.5,0,0.00692015
0.7,2.6,0,0.00717288
0.7,2.7,0,0.00742184
0.7,2.8,0,0.00766853
0.7,2.9,0,0.00791521
0.7,3,0,0.00815374
0.7,3.1,0,0.00838865
0.7,3.2,0,0.00861841
0.7,3.3,0,0.00884636
0.7,3.4,0,0.0090743
0.7,3.5,0,0.00928931
0.7,3.6,0,0.00950124
0.7,3.7,0,0.00970693
0.7,3.8,0,0.00991154
0.7,3.9,0,0.0101161
0.7,4,0,0.0103014
0.7,4.1,0,0.0104851
0.7,4.2,0,0.0106618
0.7,4.3,0,0.0108383
0.7,4.4,0,0.0110138
0.7,4.5,0,0.0111638
0.7,4.6,0,0.0113133
0.7,4.7,0,0.0114569
0.7,4.8,0,0.0116004
0.7,4.9,0,0.011739
0.7,5,0,0.0118505
0.7,5.1,0,0.0119609
0.7,5.2,0,0.0120671
0.7,5.3,0,0.0121733
0.7,5.4,0,0.0122694
0.7,5.5,0,0.0123383
0.7,5.6,0,0.0124061
0.7,5.7,0,0.0124715
0.7,5.8,0,0.0125369
0.7,5.9,0,0.0125862
0.7,6,0,0.0126098
0.7,6.1,0,0.0126329
0.7,6.2,0,0.0126553
0.7,6.3,0,0.0126776
0.7,6.4,0,0.0126775
0.7,6.5,0,0.0126549
0.7,6.6,0,0.0126329
0.7,6.7,0,0.0126114
0.7,6.8,0,0.0125898
0.7,6.9,0,0.0125398
0.7,7,0,0.0124718
0.7,7.1,0,0.0124061
0.7,7.2,0,0.0123415
0.7,7.3,0,0.0122769
0.7,7.4,0,0.0121787
0.7,7.5,0,0.0120682
0.7,7.6,0,0.0119616
0.7,7.7,0,0.0118562
0.7,7.8,0,0.0117508
0.7,7.9,0,0.0116084
0.7,8,0,0.0114592
0.7,8.1,0,0.0113158
0.7,8.2,0,0.0111731
0.7,8.3,0,0.0110303
0.7,8.4,0,0.010849
0.7,8.5,0,0.0106662
0.7,8.6,0,0.0104904
0.7,8.7,0,0.0103146
0.7,8.8,0,0.0101361
0.7,8.9,0,0.00992477
0.7,9,0,0.0097143
0.7,9.1,0,0.00951022
0.7,9.2,0,0.00930615
0.7,9.3,0,0.0090962
0.7,9.4,0,0.00886158
0.7,9.5,0,0.00862865
0.7,9.6,0,0.00840112
0.7,9.7,0,0.0081736
0.7,9.8,0,0.00793826
0.7,9.9,0,0.00768534
0.7,10,0,0.00743478
0.7,10.1,0,0.00718854
0.7,10.2,0,0.0069423
0.7,10.3,0,0.00668751
0.7,10.4,0,0.00642109
0.7,10.5,0,0.00615741
0.7,10.6,0,0.00589683
0.7,10.7,0,0.00563626
0.7,10.8,0,0.00536654
0.7,10.9,0,0.00508897
0.7,11,0,0.0048154
0.7,11.1,0,0.00454442
0.7,11.2,0,0.00427344
0.7,11.3,0,0.00399729
0.7,11.4,0,0.00371856
0.7,11.5,0,0.00343984
0.7,11.6,0,0.00315717
0.7,11.7,0,0.00287304
0.7,11.8,0,0.00258929
0.7,11.9,0,0.00230565
0.7,12,0,0.00202201
0.7,12.1,0,0.00173409
0.7,12.2,0,0.00144528
0.7,12.3,0,0.00115546
0.7,12.4,0,0.000865512
0.7,12.5,0,0.000575565
0.7,12.6,0,0.000287738
0.7,12.7,0,0
0.8,0,0,0
0.8,0.1,0,0.000286539
0.8,0.2,0,0.000573078
0.8,0.3,0,0.000859591
0.8,0.4,0,0.00114492
0.8,0.5,0,0.00143021
0.8,0.6,0,0.0017148
0.8,0.7,0,0.00199939
0.8,0.8,0,0.00228394
0.8,0.9,0,0.00256799
0.8,1,0,0.00285215
0.8,1.1,0,0.00313715
0.8,1.2,0,0.00342214
0.8,1.3,0,0.00370536
0.8,1.4,0,0.00398395
0.8,1.5,0,0.00426174
0.8,1.6,0,0.00453761
0.8,1.7,0,0.00481348
0.8,1.8,0,0.00508709
0.8,1.9,0,0.00535764
0.8,2,0,0.00562683
0.8,2.1,0,0.00589428
0.8,2.2,0,0.00616173
0.8,2.3,0,0.00642514
0.8,2.4,0,0.00668497
0.8,2.5,0,0.00694071
0.8,2.6,0,0.00719344
0.8,2.7,0,0.00744617
0.8,2.8,0,0.00769499
0.8,2.9,0,0.00794168
0.8,3,0,0.00818021
0.8,3.1,0,0.00841511
0.8,3.2,0,0.00865001
0.8,3.3,0,0.00887962
0.8,3.4,0,0.00910756
0.8,3.5,0,0.00932257
0.8,3.6,0,0.00953451
0.8,3.7,0,0.00974644
0.8,3.8,0,0.00995195
0.8,3.9,0,0.0101566
0.8,4,0,0.0103418
0.8,4.1,0,0.0105255
0.8,4.2,0,0.0107091
0.8,4.3,0,0.0108857
0.8,4.4,0,0.0110612
0.8,4.5,0,0.0112112
0.8,4.6,0,0.0113613
0.8,4.7,0,0.0115106
0.8,4.8,0,0.0116542
0.8,4.9,0,0.0117928
0.8,5,0,0.0119042
0.8,5.1,0,0.0120157
0.8,5.2,0,0.0121259
0.8,5.3,0,0.0122322
0.8,5.4,0,0.0123283
0.8,5.5,0,0.0123972
0.8,5.6,0,0.012466
0.8,5.7,0,0.0125337
0.8,5.8,0,0.0125991
0.8,5.9,0,0.0126485
0.8,6,0,0.0126721
0.8,6.1,0,0.0126957
0.8,6.2,0,0.0127187
0.8,6.3,0,0.0127411
0.8,6.4,0,0.012741
0.8,6.5,0,0.0127183
0.8,6.6,0,0.0126957
0.8,6.7,0,0.0126737
0.8,6.8,0,0.0126522
0.8,6.9,0,0.0126022
0.8,7,0,0.0125342
0.8,7.1,0,0.0124663
0.8,7.2,0,0.0124007
0.8,7.3,0,0.012336
0.8,7.4,0,0.0122379
0.8,7.5,0,0.0121273
0.8,7.6,0,0.0120168
0.8,7.7,0,0.0119104
0.8,7.8,0,0.0118049
0.8,7.9,0,0.0116625
0.8,8,0,0.0115134
0.8,8.1,0,0.0113642
0.8,8.2,0,0.0112209
0.8,8.3,0,0.0110782
0.8,8.4,0,0.0108969
0.8,8.5,0,0.010714
0.8,8.6,0,0.0105313
0.8,8.7,0,0.0103556
0.8,8.8,0,0.0101771
0.8,8.9,0,0.0099657
0.8,9,0,0.00975433
0.8,9.1,0,0.00954402
0.8,9.2,0,0.00933995
0.8,9.3,0,0.00913
0.8,9.4,0,0.00889538
0.8,9.5,0,0.00866076
0.8,9.6,0,0.00842799
0.8,9.7,0,0.00820047
0.8,9.8,0,0.00796513
0.8,9.9,0,0.00771221
0.8,10,0,0.00745929
0.8,10.1,0,0.00720888
0.8,10.2,0,0.00696264
0.8,10.3,0,0.00670786
0.8,10.4,0,0.00644143
0.8,10.5,0,0.006175
0.8,10.6,0,0.00591146
0.8,10.7,0,0.00565089
0.8,10.8,0,0.00538116
0.8,10.9,0,0.0051036
0.8,11,0,0.00482603
0.8,11.1,0,0.00455268
0.8,11.2,0,0.0042817
0.8,11.3,0,0.0040055
0.8,11.4,0,0.00372677
0.8,11.5,0,0.00344422
0.8,11.6,0,0.00316008
0.8,11.7,0,0.00287595
0.8,11.8,0,0.00259221
0.8,11.9,0,0.00230857
0.8,12,0,0.00202076
0.8,12.1,0,0.00173195
0.8,12.2,0,0.00144313
0.8,12.3,0,0.00115329
0.8,12.4,0,0.000863348
0.8,12.5,0,0.000575477
0.8,12.6,0,0.000287738
0.8,12.7,0,0
0.9,0,0,0
0.9,0.1,0,0.000286539
0.9,0.2,0,0.000573078
0.9,0.3,0,0.000859617
0.9,0.4,0,0.00114612
0.9,0.5,0,0.00143142
0.9,0.6,0,0.00171601
0.9,0.7,0,0.0020006
0.9,0.8,0,0.00228519
0.9,0.9,0,0.00256973
0.9,1,0,0.00285387
0.9,1.1,0,0.00313887
0.9,1.2,0,0.00342386
0.9,1.3,0,0.00370885
0.9,1.4,0,0.00399188
0.9,1.5,0,0.00426969
0.9,1.6,0,0.00454556
0.9,1.7,0,0.00482143
0.9,1.8,0,0.0050973
0.9,1.9,0,0.00537074
0.9,2,0,0.00563996
0.9,2.1,0,0.0059074
0.9,2.2,0,0.00617485
0.9,2.3,0,0.0064423
0.9,2.4,0,0.00670553
0.9,2.5,0,0.00696127
0.9,2.6,0,0.007214
0.9,2.7,0,0.00746673
0.9,2.8,0,0.00771945
0.9,2.9,0,0.00796814
0.9,3,0,0.00820667
0.9,3.1,0,0.00844157
0.9,3.2,0,0.00867648
0.9,3.3,0,0.00891138
0.9,3.4,0,0.00914082
0.9,3.5,0,0.00935583
0.9,3.6,0,0.00956777
0.9,3.7,0,0.0097797
0.9,3.8,0,0.00999163
0.9,3.9,0,0.010197
0.9,4,0,0.0103822
0.9,4.1,0,0.0105659
0.9,4.2,0,0.0107496
0.9,4.3,0,0.0109331
0.9,4.4,0,0.0111086
0.9,4.5,0,0.0112586
0.9,4.6,0,0.0114087
0.9,4.7,0,0.0115587
0.9,4.8,0,0.0117079
0.9,4.9,0,0.0118466
0.9,5,0,0.011958
0.9,5.1,0,0.0120694
0.9,5.2,0,0.0121809
0.9,5.3,0,0.012291
0.9,5.4,0,0.0123872
0.9,5.5,0,0.012456
0.9,5.6,0,0.0125249
0.9,5.7,0,0.0125938
0.9,5.8,0,0.0126614
0.9,5.9,0,0.0127107
0.9,6,0,0.0127343
0.9,6.1,0,0.0127579
0.9,6.2,0,0.0127815
0.9,6.3,0,0.0128046
0.9,6.4,0,0.0128044
0.9,6.5,0,0.0127818
0.9,6.6,0,0.0127592
0.9,6.7,0,0.0127366
0.9,6.8,0,0.0127146
0.9,6.9,0,0.0126645
0.9,7,0,0.0125966
0.9,7.1,0,0.0125287
0.9,7.2,0,0.0124608
0.9,7.3,0,0.0123952
0.9,7.4,0,0.012297
0.9,7.5,0,0.0121865
0.9,7.6,0,0.012076
0.9,7.7,0,0.0119654
0.9,7.8,0,0.0118591
0.9,7.9,0,0.0117167
0.9,8,0,0.0115675
0.9,8.1,0,0.0114184
0.9,8.2,0,0.0112692
0.9,8.3,0,0.0111261
0.9,8.4,0,0.0109448
0.9,8.5,0,0.0107619
0.9,8.6,0,0.010579
0.9,8.7,0,0.0103965
0.9,8.8,0,0.010218
0.9,8.9,0,0.0100066
0.9,9,0,0.00979526
0.9,9.1,0,0.00958389
0.9,9.2,0,0.00937375
0.9,9.3,0,0.00916381
0.9,9.4,0,0.00892918
0.9,9.5,0,0.00869456
0.9,9.6,0,0.00845994
0.9,9.7,0,0.00822734
0.9,9.8,0,0.007992
0.9,9.9,0,0.00773908
0.9,10,0,0.00748616
0.9,10.1,0,0.00723324
0.9,10.2,0,0.00698299
0.9,10.3,0,0.0067282
0.9,10.4,0,0.00646178
0.9,10.5,0,0.00619535
0.9,10.6,0,0.00592892
0.9,10.7,0,0.00566551
0.9,10.8,0,0.00539579
0.9,10.9,0,0.00511822
0.9,11,0,0.00484066
0.9,11.1,0,0.00456309
0.9,11.2,0,0.00428997
0.9,11.3,0,0.00401371
0.9,11.4,0,0.00373126
0.9,11.5,0,0.00344713
0.9,11.6,0,0.00316299
0.9,11.7,0,0.00287886
0.9,11.8,0,0.00259513
0.9,11.9,0,0.00230743
0.9,12,0,0.00201862
0.9,12.1,0,0.0017298
0.9,12.2,0,0.00144099
0.9,12.3,0,0.00115113
0.9,12.4,0,0.000863215
0.9,12.5,0,0.000575477
0.9,12.6,0,0.000287738
0.9,12.7,0,0
1,0,0,0
1,0.1,0,0.000286539
1,0.2,0,0.000573078
1,0.3,0,0.000859617
1,0.4,0,0.00114616
1,0.5,0,0.00143263
1,0.6,0,0.00171722
1,0.7,0,0.00200181
1,0.8,0,0.0022864
1,0.9,0,0.00257099
1,1,0,0.0028556
1,1.1,0,0.00314059
1,1.2,0,0.00342558
1,1.3,0,0.00371058
1,1.4,0,0.00399557
1,1.5,0,0.00427765
1,1.6,0,0.00455352
1,1.7,0,0.00482938
1,1.8,0,0.00510525
1,1.9,0,0.00538112
1,2,0,0.00565308
1,2.1,0,0.00592052
1,2.2,0,0.00618797
1,2.3,0,0.00645542
1,2.4,0,0.00672287
1,2.5,0,0.00698183
1,2.6,0,0.00723456
1,2.7,0,0.00748729
1,2.8,0,0.00774001
1,2.9,0,0.00799274
1,3,0,0.00823313
1,3.1,0,0.00846804
1,3.2,0,0.00870294
1,3.3,0,0.00893784
1,3.4,0,0.00917275
1,3.5,0,0.0093891
1,3.6,0,0.00960103
1,3.7,0,0.00981296
1,3.8,0,0.0100249
1,3.9,0,0.0102368
1,4,0,0.0104227
1,4.1,0,0.0106063
1,4.2,0,0.01079
1,4.3,0,0.0109736
1,4.4,0,0.011156
1,4.5,0,0.011306
1,4.6,0,0.0114561
1,4.7,0,0.0116062
1,4.8,0,0.0117562
1,4.9,0,0.0119003
1,5,0,0.0120118
1,5.1,0,0.0121232
1,5.2,0,0.0122346
1,5.3,0,0.0123461
1,5.4,0,0.012446
1,5.5,0,0.0125149
1,5.6,0,0.0125838
1,5.7,0,0.0126526
1,5.8,0,0.0127215
1,5.9,0,0.0127729
1,6,0,0.0127965
1,6.1,0,0.0128202
1,6.2,0,0.0128438
1,6.3,0,0.0128674
1,6.4,0,0.0128679
1,6.5,0,0.0128453
1,6.6,0,0.0128227
1,6.7,0,0.0128
1,6.8,0,0.0127774
1,6.9,0,0.0127269
1,7,0,0.012659
1,7.1,0,0.0125911
1,7.2,0,0.0125232
1,7.3,0,0.0124552
1,7.4,0,0.0123562
1,7.5,0,0.0122456
1,7.6,0,0.0121351
1,7.7,0,0.0120246
1,7.8,0,0.011914
1,7.9,0,0.0117708
1,8,0,0.0116217
1,8.1,0,0.0114725
1,8.2,0,0.0113234
1,8.3,0,0.0111742
1,8.4,0,0.0109927
1,8.5,0,0.0108098
1,8.6,0,0.0106269
1,8.7,0,0.010444
1,8.8,0,0.0102589
1,8.9,0,0.0100476
1,9,0,0.0098362
1,9.1,0,0.00962482
1,9.2,0,0.00941345
1,9.3,0,0.00919761
1,9.4,0,0.00896299
1,9.5,0,0.00872836
1,9.6,0,0.00849374
1,9.7,0,0.00825912
1,9.8,0,0.00801887
1,9.9,0,0.00776595
1,10,0,0.00751303
1,10.1,0,0.00726011
1,10.2,0,0.00700718
1,10.3,0,0.00674855
1,10.4,0,0.00648212
1,10.5,0,0.00621569
1,10.6,0,0.00594927
1,10.7,0,0.00568284
1,10.8,0,0.00541041
1,10.9,0,0.00513285
1,11,0,0.00485528
1,11.1,0,0.00457772
1,11.2,0,0.00430015
1,11.3,0,0.00401831
1,11.4,0,0.00373418
1,11.5,0,0.00345004
1,11.6,0,0.00316591
1,11.7,0,0.00288177
1,11.8,0,0.0025941
1,11.9,0,0.00230528
1,12,0,0.00201647
1,12.1,0,0.00172766
1,12.2,0,0.00143884
1,12.3,0,0.00115095
1,12.4,0,0.000863215
1,12.5,0,0.000575477
1,12.6,0,0.000287738
1,12.7,0,0
1.1,0,0,0
1.1,0.1,0,0.000286539
1.1,0.2,0,0.000573078
1.1,0.3,0,0.000859617
1.1,0.4,0,0.0011462
1.1,0.5,0,0.00143583
1.1,0.6,0,0.00172584
1.1,0.7,0,0.00201039
1.1,0.8,0,0.00229494
1.1,0.9,0,0.00257949
1.1,1,0,0.00286444
1.1,1.1,0,0.00315405
1.1,1.2,0,0.00343896
1.1,1.3,0,0.00372388
1.1,1.4,0,0.00400879
1.1,1.5,0,0.00429385
1.1,1.6,0,0.00457591
1.1,1.7,0,0.00485176
1.1,1.8,0,0.0051276
1.1,1.9,0,0.00540345
1.1,2,0,0.00568026
1.1,2.1,0,0.00595315
1.1,2.2,0,0.0062209
1.1,2.3,0,0.00648865
1.1,2.4,0,0.0067564
1.1,2.5,0,0.0070211
1.1,2.6,0,0.00727772
1.1,2.7,0,0.00753045
1.1,2.8,0,0.00778318
1.1,2.9,0,0.00803591
1.1,3,0,0.00828476
1.1,3.1,0,0.00852314
1.1,3.2,0,0.00875805
1.1,3.3,0,0.00899295
1.1,3.4,0,0.00922785
1.1,3.5,0,0.00945489
1.1,3.6,0,0.00966906
1.1,3.7,0,0.00988099
1.1,3.8,0,0.0100929
1.1,3.9,0,0.0103049
1.1,4,0,0.0105027
1.1,4.1,0,0.010687
1.1,4.2,0,0.0108707
1.1,4.3,0,0.0110543
1.1,4.4,0,0.0112371
1.1,4.5,0,0.011398
1.1,4.6,0,0.011548
1.1,4.7,0,0.0116981
1.1,4.8,0,0.0118481
1.1,4.9,0,0.0119937
1.1,5,0,0.0121127
1.1,5.1,0,0.0122242
1.1,5.2,0,0.0123356
1.1,5.3,0,0.012447
1.1,5.4,0,0.0125487
1.1,5.5,0,0.0126219
1.1,5.6,0,0.0126908
1.1,5.7,0,0.0127596
1.1,5.8,0,0.0128285
1.1,5.9,0,0.0128808
1.1,6,0,0.0129057
1.1,6.1,0,0.0129294
1.1,6.2,0,0.012953
1.1,6.3,0,0.0129766
1.1,6.4,0,0.012976
1.1,6.5,0,0.0129524
1.1,6.6,0,0.0129298
1.1,6.7,0,0.0129072
1.1,6.8,0,0.0128846
1.1,6.9,0,0.0128304
1.1,7,0,0.0127603
1.1,7.1,0,0.0126923
1.1,7.2,0,0.0126244
1.1,7.3,0,0.0125565
1.1,7.4,0,0.0124507
1.1,7.5,0,0.012338
1.1,7.6,0,0.0122274
1.1,7.7,0,0.0121169
1.1,7.8,0,0.0120064
1.1,7.9,0,0.0118535
1.1,8,0,0.0117029
1.1,8.1,0,0.0115537