/*--------------------------------*- C++ -*----------------------------------*\
| =========                 |                                                 |
| \\      /  F ield         | OpenFOAM: The Open Source CFD Toolbox           |
|  \\    /   O peration     | Version:  v1806                                 |
|   \\  /    A nd           | Web:      www.OpenFOAM.com                      |
|    \\/     M anipulation  |                                                 |
\*---------------------------------------------------------------------------*/
FoamFile
{
    version     2.0;
    format      ascii;
    class       volVectorField;
    location    "3";
    object      U;
}
// * * * * * * * * * * * * * * * * * * * * * * * * * * * * * * * * * * * * * //

dimensions      [0 1 -1 0 0 0 0];


internalField   nonuniform List<vector> 
24000
(
(2.71579 0.0328845 0.084896)
(2.45471 0.0469794 0.0941336)
(2.11039 0.0436422 0.0773073)
(1.77586 0.0375308 0.0616837)
(1.51532 0.0297166 0.0437302)
(1.33178 0.0221153 0.0262449)
(1.20764 0.0165421 0.0138997)
(1.12387 0.0130223 0.00710094)
(1.06623 0.0105644 0.00371069)
(1.02686 0.00826217 0.00214904)
(1.00031 0.00582853 0.00163679)
(0.983821 0.00323651 0.00159896)
(0.974633 0.000710939 0.00174767)
(0.971643 -0.00149078 0.00193392)
(0.973219 -0.00335656 0.00207706)
(0.978487 -0.00474088 0.00220002)
(0.985849 -0.00542641 0.00216795)
(0.994523 -0.00531963 0.001956)
(1.00311 -0.00453991 0.00155492)
(1.01081 -0.00304463 0.00109171)
(2.76995 0.0412796 0.0857212)
(2.56352 0.060368 0.0981152)
(2.30326 0.056953 0.0794504)
(2.04242 0.0495661 0.0657514)
(1.82565 0.0397197 0.0511007)
(1.66095 0.0290036 0.0351345)
(1.54174 0.019619 0.0219827)
(1.45877 0.0121451 0.0133584)
(1.40237 0.00624997 0.00821335)
(1.36649 0.000882013 0.00525152)
(1.34562 -0.00451976 0.00354712)
(1.33612 -0.0100711 0.00281594)
(1.33495 -0.0153397 0.00248797)
(1.34023 -0.0199301 0.00242281)
(1.35042 -0.0235662 0.00241815)
(1.36393 -0.0261562 0.00241884)
(1.37973 -0.0274311 0.00230371)
(1.39637 -0.0269068 0.0021097)
(1.41334 -0.0246173 0.00173887)
(1.42899 -0.0203525 0.00141492)
(2.76944 0.0158705 0.0856986)
(2.55263 0.0287971 0.0982324)
(2.29441 0.0302702 0.0787464)
(2.04339 0.0267828 0.0645455)
(1.83745 0.0208659 0.0503158)
(1.68181 0.0130072 0.0349058)
(1.56945 0.00462281 0.0220519)
(1.49187 -0.00420033 0.0133709)
(1.43995 -0.0122209 0.00803074)
(1.40781 -0.0201088 0.00476029)
(1.39068 -0.0277195 0.00269991)
(1.38487 -0.0352813 0.00156059)
(1.38789 -0.0421944 0.000987485)
(1.39695 -0.0482681 0.000804664)
(1.41144 -0.0528341 0.00065554)
(1.42888 -0.0557204 0.000628947)
(1.44918 -0.0567515 0.000517692)
(1.46982 -0.0552463 0.000416654)
(1.49139 -0.0510814 0.000141274)
(1.511 -0.0438944 -4.21577e-05)
(2.769 0.0113729 0.085829)
(2.54306 0.0222044 0.0987934)
(2.27845 0.0242092 0.0792247)
(2.02532 0.0199838 0.064581)
(1.81992 0.01335 0.0502043)
(1.66587 0.00450585 0.0348105)
(1.55575 -0.00463734 0.0218507)
(1.48015 -0.0149866 0.0132082)
(1.43047 -0.0246558 0.00788965)
(1.40003 -0.0349253 0.00460944)
(1.3848 -0.0445058 0.0024478)
(1.38046 -0.0541221 0.00127078)
(1.38557 -0.0627603 0.000537819)
(1.39663 -0.0704856 0.000287678)
(1.41374 -0.0762971 2.75247e-05)
(1.43373 -0.079845 -5.48247e-05)
(1.45722 -0.080835 -0.000236703)
(1.48093 -0.0784519 -0.000319111)
(1.50607 -0.0726422 -0.00059527)
(1.52882 -0.0627492 -0.00068531)
(2.76863 0.00632807 0.0859618)
(2.53694 0.0104862 0.0990592)
(2.26789 0.0107759 0.0794998)
(2.01244 0.00576961 0.0645554)
(1.80631 -0.000573534 0.0500165)
(1.65242 -0.01005 0.0344724)
(1.54303 -0.0193675 0.0214253)
(1.46829 -0.0309209 0.0126484)
(1.41987 -0.0413584 0.00729392)
(1.3901 -0.0535915 0.00410583)
(1.37597 -0.0645003 0.0019887)
(1.3722 -0.0761275 0.000912758)
(1.37878 -0.0862206 0.0001273)
(1.39109 -0.0955824 -5.91853e-05)
(1.41046 -0.102517 -0.000399296)
(1.43263 -0.106742 -0.000427849)
(1.4592 -0.107814 -0.000640374)
(1.48601 -0.104556 -0.000697356)
(1.51487 -0.097117 -0.00101886)
(1.54094 -0.0842174 -0.00110661)
(2.76829 0.0039198 0.0861287)
(2.53316 0.00309634 0.099175)
(2.26143 0.00259314 0.0797493)
(2.00376 -0.00369582 0.0646824)
(1.79565 -0.0096125 0.0502546)
(1.64034 -0.0206244 0.0345886)
(1.5304 -0.0298929 0.0216073)
(1.45504 -0.0438084 0.0127425)
(1.40708 -0.0548836 0.00737635)
(1.377 -0.070134 0.00416227)
(1.36403 -0.0821946 0.00200692)
(1.36029 -0.0968945 0.00102557)
(1.36877 -0.108486 0.000136977)
(1.38202 -0.120436 9.17471e-05)
(1.40426 -0.12875 -0.000413061)
(1.42875 -0.134401 -0.000309435)
(1.45914 -0.136014 -0.000638426)
(1.4896 -0.132173 -0.000658454)
(1.52317 -0.123278 -0.0010917)
(1.55332 -0.107041 -0.00118158)
(2.76772 0.00272083 0.086394)
(2.52987 -0.0036946 0.0991354)
(2.2563 -0.00497049 0.080017)
(1.99685 -0.0143799 0.0647798)
(1.78659 -0.0196053 0.0504978)
(1.62997 -0.03354 0.0344113)
(1.51947 -0.0415504 0.0216004)
(1.44308 -0.0589623 0.0125254)
(1.39567 -0.0692135 0.00731266)
(1.36442 -0.0888307 0.00393475)
(1.35325 -0.100544 0.00185455)
(1.34846 -0.119987 0.000923331)
(1.35992 -0.131985 -4.41637e-05)
(1.37309 -0.148207 0.000141554)
(1.3995 -0.157326 -0.000656674)
(1.42589 -0.16572 -0.000192594)
(1.46128 -0.167998 -0.000798246)
(1.49598 -0.164076 -0.000626606)
(1.53541 -0.153855 -0.00123991)
(1.57073 -0.133867 -0.00133342)
(2.7667 0.00240159 0.0867724)
(2.52703 -0.00977681 0.0988069)
(2.2519 -0.0103823 0.0802832)
(1.99174 -0.0240569 0.064679)
(1.77846 -0.0269337 0.0508657)
(1.62097 -0.0457789 0.0339767)
(1.5093 -0.0505123 0.0217855)
(1.43141 -0.0740567 0.012141)
(1.38465 -0.0809585 0.00748177)
(1.35094 -0.108156 0.00351104)
(1.34281 -0.116509 0.00187688)
(1.33481 -0.144599 0.00067781)
(1.35162 -0.154004 -0.000147665)
(1.36207 -0.178632 0.000185531)
(1.39558 -0.186133 -0.00101149)
(1.42192 -0.200836 0.000161516)
(1.46485 -0.202825 -0.00117392)
(1.50383 -0.200559 -0.000378403)
(1.5509 -0.188921 -0.00144544)
(1.59269 -0.16481 -0.00142629)
(2.76502 0.00255499 0.0872388)
(2.52484 -0.0153184 0.0981513)
(2.24747 -0.0139122 0.0807429)
(1.98808 -0.0334194 0.0644208)
(1.77041 -0.0320075 0.0513825)
(1.61316 -0.0582893 0.0331919)
(1.49938 -0.0568492 0.0221766)
(1.42009 -0.0901719 0.0113293)
(1.37404 -0.0896041 0.00786949)
(1.33663 -0.129303 0.00247259)
(1.33333 -0.128951 0.00212649)
(1.3189 -0.172323 -0.000292329)
(1.34509 -0.172768 -0.000130645)
(1.3477 -0.21389 -0.000429694)
(1.3942 -0.213282 -0.001594)
(1.41503 -0.24256 0.000394127)
(1.47128 -0.239591 -0.00228783)
(1.51226 -0.244408 0.000151695)
(1.57016 -0.229759 -0.00212875)
(1.61971 -0.201792 -0.00152145)
(2.76286 0.00273825 0.0877002)
(2.52346 -0.0200719 0.0972165)
(2.24299 -0.0156476 0.0813579)
(1.98549 -0.0420241 0.0639921)
(1.76264 -0.0345522 0.0519668)
(1.60611 -0.0704296 0.0321474)
(1.48985 -0.0598955 0.0227458)
(1.40844 -0.10669 0.0100896)
(1.36402 -0.0939829 0.00848557)
(1.3204 -0.151835 0.000723216)
(1.32473 -0.135981 0.00276744)
(1.29872 -0.203327 -0.0023202)
(1.33999 -0.185166 0.000362804)
(1.32621 -0.255183 -0.00242753)
(1.39513 -0.234443 -0.00197004)
(1.39903 -0.29383 -0.000209577)
(1.48047 -0.273926 -0.00416693)
(1.51448 -0.299597 0.00126471)
(1.59091 -0.275598 -0.00362016)
(1.64745 -0.247645 -0.00106875)
(2.76108 0.0027656 0.0880469)
(2.52242 -0.0240876 0.0962298)
(2.23951 -0.0157483 0.0820134)
(1.98256 -0.0492859 0.0636177)
(1.75631 -0.0346141 0.0525026)
(1.59782 -0.0814129 0.0312113)
(1.48155 -0.0595886 0.0233551)
(1.3939 -0.122706 0.0088279)
(1.35491 -0.0937515 0.00917095)
(1.29909 -0.174809 -0.00128044)
(1.31642 -0.136765 0.00371763)
(1.27033 -0.236936 -0.00520134)
(1.33481 -0.189053 0.0014124)
(1.29232 -0.303148 -0.00609614)
(1.3963 -0.245528 -0.00162492)
(1.36552 -0.358384 -0.00256503)
(1.49114 -0.300131 -0.0062573)
(1.4981 -0.373751 0.00294119)
(1.61175 -0.323882 -0.00626049)
(1.66737 -0.310617 0.00188411)
(2.76065 0.00280555 0.0881744)
(2.52115 -0.0276011 0.0956991)
(2.23821 -0.0141798 0.0824499)
(1.97808 -0.0552661 0.0635068)
(1.75216 -0.0322449 0.0528882)
(1.58679 -0.0911446 0.0307929)
(1.47477 -0.0560183 0.0238376)
(1.37488 -0.137889 0.00815354)
(1.34628 -0.0890253 0.00972969)
(1.27088 -0.19776 -0.00257792)
(1.30721 -0.131422 0.00466542)
(1.23196 -0.272336 -0.00770954)
(1.32762 -0.183896 0.00271819)
(1.24399 -0.357532 -0.0103627)
(1.39598 -0.243729 -0.000437094)
(1.31068 -0.439286 -0.0065183)
(1.50396 -0.312481 -0.00757063)
(1.45403 -0.477692 0.00579558)
(1.63653 -0.371137 -0.0090949)
(1.6694 -0.407307 0.0103353)
(2.76097 0.00291881 0.0880925)
(2.52107 -0.0306833 0.0957847)
(2.23792 -0.0111734 0.0826083)
(1.9742 -0.0603478 0.0637699)
(1.74761 -0.0279961 0.0533036)
(1.57659 -0.100179 0.0311399)
(1.46552 -0.0497535 0.0243514)
(1.35675 -0.152646 0.00853364)
(1.33278 -0.0806474 0.0103933)
(1.24327 -0.221524 -0.00228255)
(1.29153 -0.120925 0.00567842)
(1.19369 -0.310893 -0.0081058)
(1.31449 -0.170739 0.00430076)
(1.19346 -0.420147 -0.0126679)
(1.394 -0.228334 0.0014731)
(1.24718 -0.539589 -0.0102815)
(1.52496 -0.304163 -0.00832935)
(1.38829 -0.623531 0.0101649)
(1.68336 -0.414508 -0.0137978)
(1.65009 -0.564146 0.0286254)
(2.76029 0.00245281 0.08774)
(2.5252 -0.032921 0.0965755)
(2.23546 -0.00800186 0.0824993)
(1.97544 -0.0640338 0.0643875)
(1.73735 -0.0238029 0.0537998)
(1.57514 -0.108009 0.03221)
(1.44539 -0.0434349 0.025239)
(1.35148 -0.166316 0.0099027)
(1.30274 -0.0720225 0.0118625)
(1.23346 -0.246044 -0.0002444)
(1.25418 -0.109131 0.00781935)
(1.17938 -0.354269 -0.00563303)
(1.27868 -0.153215 0.00814294)
(1.17168 -0.495387 -0.0110108)
(1.37868 -0.201214 0.00684254)
(1.21013 -0.666292 -0.0123725)
(1.55636 -0.268146 -0.00735917)
(1.32722 -0.821728 0.0117964)
(1.77733 -0.434033 -0.0249864)
(1.59821 -0.808429 0.0655577)
(2.75824 0.000264904 0.0868838)
(2.53478 -0.0328262 0.0979339)
(2.22979 -0.00707523 0.0821647)
(1.9832 -0.0643698 0.065348)
(1.7188 -0.0232991 0.0542035)
(1.58497 -0.11136 0.0337678)
(1.40927 -0.0430514 0.0259881)
(1.36426 -0.173694 0.011718)
(1.24564 -0.0719425 0.0134453)
(1.25129 -0.263175 0.00250799)
(1.1737 -0.109768 0.0112246)
(1.20669 -0.392114 -0.00148838)
(1.17992 -0.149779 0.0167504)
(1.21004 -0.575854 -0.00797)
(1.29193 -0.174832 0.0260194)
(1.24358 -0.82266 -0.0164799)
(1.55745 -0.200463 0.010299)
(1.31983 -1.09298 -0.00321029)
(1.90616 -0.355127 -0.0374487)
(1.50116 -1.17672 0.113113)
(2.75768 -0.00426942 0.0855552)
(2.54571 -0.0282098 0.099169)
(2.22568 -0.0108887 0.0817977)
(1.99081 -0.0582122 0.0664457)
(1.69915 -0.0302796 0.0543709)
(1.59473 -0.104395 0.0350087)
(1.36759 -0.0552592 0.0260589)
(1.37819 -0.164834 0.0125041)
(1.174 -0.0914965 0.0136643)
(1.27232 -0.254571 0.00342938)
(1.06301 -0.143525 0.0107511)
(1.24276 -0.389615 -0.000512562)
(1.01529 -0.204871 0.0187256)
(1.27801 -0.599043 -0.00653228)
(1.06056 -0.232314 0.0532692)
(1.34819 -0.951647 -0.031701)
(1.34152 -0.120997 0.102454)
(1.40639 -1.44988 -0.0351226)
(1.98547 -0.212727 -0.0342426)
(1.41968 -1.79293 0.105385)
(2.76631 -0.0106656 0.0841304)
(2.54544 -0.0177072 0.099584)
(2.2369 -0.0197482 0.0818311)
(1.97891 -0.0436448 0.0677246)
(1.703 -0.0455789 0.0541265)
(1.57364 -0.0840032 0.0355394)
(1.36229 -0.0791161 0.0258506)
(1.34598 -0.136262 0.0123292)
(1.15384 -0.129663 0.0133861)
(1.22559 -0.214708 0.00183092)
(1.0232 -0.20839 0.00801143)
(1.17998 -0.334139 -0.00222548)
(0.944895 -0.324422 0.00603782)
(1.20748 -0.522977 -0.00213958)
(0.928142 -0.472275 0.0218075)
(1.33703 -0.877223 -0.013099)
(1.02554 -0.449948 0.132272)
(1.55304 -1.75937 -0.0778872)
(1.56103 0.23026 0.288702)
(1.45448 -2.8196 -0.0114176)
(2.79048 -0.0136482 0.0830785)
(2.52274 -0.00674269 0.0998171)
(2.27505 -0.0260244 0.0822661)
(1.92818 -0.0289646 0.0699906)
(1.75524 -0.0587249 0.0516969)
(1.49542 -0.060531 0.0375204)
(1.43562 -0.0993025 0.0235246)
(1.23055 -0.104325 0.0158325)
(1.24741 -0.163056 0.0104748)
(1.06584 -0.171265 0.0071043)
(1.14002 -0.265189 0.00597613)
(0.961368 -0.27601 0.00754009)
(1.08981 -0.431033 0.00429632)
(0.91041 -0.447609 0.020068)
(1.10498 -0.713714 0.000758831)
(0.961861 -0.734387 0.048466)
(1.18009 -1.18461 0.00782798)
(1.3082 -1.49806 0.0489423)
(1.20826 -0.731673 0.338209)
(1.59385 -3.99135 -0.199634)
(2.81771 -0.0132036 0.0837818)
(2.49047 -5.96788e-05 0.100629)
(2.31682 -0.0246449 0.0824393)
(1.86729 -0.0210674 0.0713048)
(1.81883 -0.0581036 0.0508314)
(1.40636 -0.0482917 0.0390645)
(1.52459 -0.0995491 0.0221227)
(1.1085 -0.0919564 0.0191769)
(1.35964 -0.16621 0.00802365)
(0.914334 -0.164182 0.0127683)
(1.2695 -0.275865 0.00407043)
(0.781055 -0.287288 0.0150009)
(1.22268 -0.463107 0.00863629)
(0.689111 -0.502227 0.0224292)
(1.20781 -0.801107 0.0254222)
(0.626382 -0.880987 0.0393505)
(1.23269 -1.4733 0.0266022)
(0.75964 -1.51764 0.123415)
(1.10815 -2.41182 -0.022447)
(1.49828 -4.62781 -0.427258)
(2.82673 -0.00171582 0.0830484)
(2.48365 -0.0131378 0.103718)
(2.32887 -0.00962012 0.0810363)
(1.84448 -0.0363912 0.07549)
(1.83802 -0.0321378 0.0477488)
(1.37561 -0.0705602 0.0433615)
(1.54773 -0.0658017 0.0175518)
(1.07391 -0.122011 0.0250381)
(1.38193 -0.123784 0.00068246)
(0.887705 -0.205823 0.0197401)
(1.27383 -0.225338 -0.00604312)
(0.763679 -0.347324 0.022245)
(1.1744 -0.405359 -0.00682905)
(0.64726 -0.588889 0.0251122)
(1.05142 -0.735927 -0.00189452)
(0.444915 -1.01299 0.00900549)
(0.915165 -1.40898 0.0203507)
(0.0669824 -1.86047 -0.0125466)
(0.540199 -2.87415 -0.1938)
(0.984556 -4.17207 -0.634943)
(2.94044 0.0341153 0.122665)
(2.99521 0.053461 0.147745)
(2.96018 0.0541785 0.12991)
(2.85904 0.0532297 0.116399)
(2.74001 0.0503412 0.0975013)
(2.62425 0.045631 0.0742011)
(2.51676 0.0405056 0.0529632)
(2.41982 0.0356701 0.0374299)
(2.3329 0.0314575 0.0269141)
(2.25827 0.0274819 0.019736)
(2.19523 0.0232658 0.0150115)
(2.1454 0.0188505 0.0120138)
(2.10705 0.0144102 0.0101572)
(2.08045 0.0103698 0.00898321)
(2.06338 0.00662424 0.00816008)
(2.05544 0.00301158 0.00774707)
(2.05421 -2.24462e-05 0.00745118)
(2.05888 -0.00204991 0.00698602)
(2.06696 -0.00312787 0.00625254)
(2.07731 -0.00300308 0.00538675)
(2.99948 0.042864 0.123384)
(3.11744 0.0684004 0.151818)
(3.17932 0.0706338 0.133575)
(3.184 0.0698712 0.121405)
(3.15945 0.0667546 0.107101)
(3.12609 0.0608966 0.0882885)
(3.08967 0.0541258 0.0693338)
(3.05512 0.0465976 0.0538142)
(3.02235 0.0391295 0.0421323)
(2.99505 0.0318733 0.033441)
(2.97383 0.0244237 0.0268263)
(2.96011 0.0161245 0.0221878)
(2.95383 0.00744249 0.0187717)
(2.95455 -0.00122564 0.0163563)
(2.96319 -0.00889968 0.0142357)
(2.97787 -0.0153977 0.0127232)
(2.99827 -0.0213568 0.0117013)
(3.02194 -0.026047 0.0108373)
(3.04975 -0.0290938 0.00967838)
(3.07786 -0.0294301 0.00854227)
(2.99958 0.0165473 0.123195)
(3.1077 0.0319088 0.151681)
(3.17033 0.0374494 0.132738)
(3.18354 0.0380392 0.119298)
(3.17091 0.0366385 0.105128)
(3.15053 0.0324068 0.0869701)
(3.12803 0.0271464 0.068543)
(3.1074 0.0194059 0.053149)
(3.08917 0.0111282 0.0415548)
(3.07483 0.0019631 0.0329584)
(3.06691 -0.00749646 0.0261536)
(3.06478 -0.0181978 0.0211116)
(3.07062 -0.0292126 0.0171545)
(3.08138 -0.0405626 0.0143468)
(3.10015 -0.0510652 0.0120281)
(3.123 -0.0595042 0.0103676)
(3.1527 -0.0669691 0.00893554)
(3.18394 -0.0726381 0.00783036)
(3.2206 -0.0760368 0.00651701)
(3.25611 -0.0754012 0.00561988)
(2.99951 0.0121087 0.123287)
(3.09928 0.0241773 0.152402)
(3.15566 0.0299857 0.133577)
(3.16552 0.0291615 0.119451)
(3.15189 0.0265168 0.10495)
(3.13085 0.0202509 0.0867969)
(3.1092 0.0137367 0.0681143)
(3.08931 0.0037862 0.0526724)
(3.07311 -0.00618525 0.0408919)
(3.06028 -0.0181733 0.0322826)
(3.05503 -0.0304203 0.0253286)
(3.05478 -0.0440175 0.0202353)
(3.06354 -0.057876 0.0160488)
(3.07687 -0.072104 0.0131383)
(3.09933 -0.0857385 0.0106254)
(3.12536 -0.0967213 0.00891577)
(3.15899 -0.106386 0.00730285)
(3.19379 -0.113247 0.00611556)
(3.23528 -0.117348 0.00469001)
(3.27513 -0.115467 0.00389545)
(2.99935 0.00732616 0.123486)
(3.09388 0.0111046 0.152762)
(3.14603 0.0144649 0.134152)
(3.15296 0.0109194 0.119603)
(3.13767 0.00760769 0.104858)
(3.11515 -0.00091207 0.0864513)
(3.09292 -0.00812736 0.067559)
(3.07222 -0.0204261 0.0518387)
(3.05639 -0.0314502 0.0398057)
(3.04315 -0.0461607 0.0312618)
(3.03873 -0.0605444 0.0241893)
(3.03817 -0.0768757 0.019293)
(3.04814 -0.093462 0.0149829)
(3.06211 -0.110526 0.0121774)
(3.08698 -0.127229 0.00954343)
(3.11477 -0.140288 0.00797059)
(3.15137 -0.152228 0.00633476)
(3.18907 -0.160278 0.00514869)
(3.23511 -0.165334 0.00363166)
(3.27905 -0.162035 0.00289662)
(2.99918 0.00563546 0.123832)
(3.0904 0.00255372 0.152849)
(3.14023 0.0056374 0.134667)
(3.14463 -0.00128569 0.119966)
(3.12746 -0.00400602 0.105393)
(3.10218 -0.0159168 0.0869073)
(3.07887 -0.0228561 0.0679305)
(3.05557 -0.0387803 0.0522677)
(3.03924 -0.0501758 0.0400543)
(3.0237 -0.0690724 0.0315927)
(3.01992 -0.0852557 0.0241707)
(3.0175 -0.105504 0.0195935)
(3.02884 -0.125167 0.0149294)
(3.04238 -0.146095 0.0123861)
(3.07002 -0.166518 0.00946525)
(3.09922 -0.182231 0.00812229)
(3.13938 -0.197612 0.00638388)
(3.18014 -0.207496 0.00519543)
(3.23184 -0.214289 0.0035065)
(3.2802 -0.209435 0.00287916)
(2.99887 0.00597139 0.124495)
(3.08707 -0.00598036 0.152529)
(3.13569 -0.00136735 0.135257)
(3.13762 -0.0149265 0.120221)
(3.11911 -0.0153034 0.106058)
(3.09059 -0.0337602 0.0869314)
(3.06752 -0.0381157 0.067953)
(3.04043 -0.060285 0.0522209)
(3.02503 -0.069583 0.0398789)
(3.0054 -0.095318 0.0315133)
(3.00406 -0.110817 0.0236071)
(2.99768 -0.137133 0.0196293)
(3.01229 -0.158639 0.0142643)
(3.02378 -0.185079 0.0124184)
(3.05575 -0.209023 0.0088299)
(3.08571 -0.227994 0.00811298)
(3.13026 -0.247771 0.00612802)
(3.17463 -0.259951 0.00506897)
(3.23311 -0.269238 0.00325208)
(3.28682 -0.262638 0.00272807)
(2.99816 0.00850688 0.125578)
(3.08386 -0.0152801 0.151489)
(3.13196 -0.00453084 0.135971)
(3.13174 -0.0288808 0.119894)
(3.11239 -0.0217903 0.106989)
(3.07961 -0.0519127 0.0863326)
(3.05863 -0.0481191 0.0681535)
(3.02479 -0.0822392 0.0518666)
(3.01335 -0.0836824 0.0398302)
(2.98531 -0.1226 0.0313391)
(2.99068 -0.13143 0.0229354)
(2.97515 -0.169949 0.019845)
(2.99782 -0.188801 0.0131617)
(3.0027 -0.22569 0.0128595)
(3.0428 -0.250711 0.00769355)
(3.07087 -0.275534 0.00859259)
(3.12187 -0.300339 0.00562896)
(3.1699 -0.315973 0.00519904)
(3.23639 -0.328956 0.00317968)
(3.29646 -0.320431 0.00277677)
(2.99686 0.0133952 0.127102)
(3.08086 -0.0264219 0.149579)
(3.12873 -0.00329936 0.137275)
(3.12609 -0.0450489 0.118922)
(3.10697 -0.0229518 0.108423)
(3.06798 -0.0731483 0.0847882)
(3.05241 -0.0519192 0.0687821)
(3.00689 -0.108157 0.0506658)
(3.00545 -0.0909702 0.0399928)
(2.96122 -0.15499 0.0303592)
(2.98209 -0.144876 0.0221295)
(2.94696 -0.208566 0.0195966)
(2.98844 -0.213163 0.0112075)
(2.97598 -0.272315 0.0134382)
(3.03363 -0.289786 0.00521999)
(3.05188 -0.328707 0.00980319)
(3.11519 -0.355442 0.00381956)
(3.16474 -0.378167 0.00582073)
(3.24034 -0.39588 0.00307954)
(3.30811 -0.385411 0.00302063)
(2.99572 0.0205082 0.12884)
(3.0774 -0.0397496 0.146942)
(3.12695 0.00274682 0.13917)
(3.11899 -0.0641082 0.117224)
(3.10431 -0.0176483 0.110239)
(3.05351 -0.0984719 0.0822891)
(3.0506 -0.0473992 0.0699983)
(2.98351 -0.139784 0.0483958)
(3.00365 -0.088233 0.0406701)
(2.92861 -0.195162 0.0282628)
(2.98074 -0.146581 0.0217675)
(2.90645 -0.257215 0.0184933)
(2.98657 -0.225854 0.00896899)
(2.93421 -0.329919 0.0141235)
(3.02935 -0.319981 0.00142949)
(3.01705 -0.392894 0.0127568)
(3.10845 -0.408676 -0.000120904)
(3.1487 -0.449495 0.00886099)
(3.23715 -0.470241 0.00321056)
(3.31213 -0.459933 0.00493256)
(2.99728 0.0296708 0.130311)
(3.07104 -0.0552131 0.144255)
(3.12948 0.0133821 0.141139)
(3.10698 -0.0858971 0.11543)
(3.10745 -0.00560838 0.112067)
(3.03207 -0.127941 0.0797207)
(3.05579 -0.0336392 0.0716243)
(2.9495 -0.177912 0.0458091)
(3.01042 -0.0735154 0.0419283)
(2.88049 -0.245068 0.0257514)
(2.98839 -0.13315 0.0222893)
(2.84383 -0.320206 0.0167509)
(2.99378 -0.221091 0.00737946)
(2.86296 -0.405507 0.0149929)
(3.03113 -0.33382 -0.00270696)
(2.94757 -0.477698 0.0180932)
(3.10054 -0.453793 -0.00629011)
(3.10199 -0.538534 0.0173071)
(3.2201 -0.550666 0.00264133)
(3.29553 -0.550955 0.0120131)
(3.00329 0.0407551 0.13104)
(3.06089 -0.0724854 0.142607)
(3.13762 0.0281294 0.142525)
(3.08976 -0.109843 0.114299)
(3.11715 0.0126887 0.113607)
(3.00377 -0.160799 0.0783145)
(3.06766 -0.011105 0.0731478)
(2.90576 -0.221838 0.0441466)
(3.02502 -0.0465905 0.0434053)
(2.81732 -0.304535 0.0242753)
(3.00432 -0.103435 0.0233392)
(2.75821 -0.399183 0.015781)
(3.01106 -0.194813 0.00676557)
(2.75601 -0.504781 0.0168185)
(3.04419 -0.324116 -0.00653518)
(2.83137 -0.592941 0.0260524)
(3.09999 -0.483391 -0.0139224)
(3.00952 -0.658105 0.0335348)
(3.1981 -0.633273 0.000183417)
(3.25192 -0.670626 0.0306379)
(3.00883 0.0528356 0.131104)
(3.05452 -0.0903798 0.142314)
(3.14453 0.045789 0.143123)
(3.07845 -0.134312 0.113919)
(3.12438 0.0355322 0.115187)
(2.98354 -0.195221 0.0782077)
(3.07501 0.0182473 0.0749278)
(2.87213 -0.269007 0.0436035)
(3.03497 -0.00897277 0.0455372)
(2.76388 -0.370961 0.0237512)
(3.01818 -0.0580916 0.0251052)
(2.67849 -0.492785 0.0156172)
(3.03418 -0.145546 0.00706838)
(2.64213 -0.629984 0.0190204)
(3.07777 -0.286567 -0.010315)
(2.68918 -0.744468 0.0352636)
(3.13311 -0.489972 -0.0239736)
(2.88207 -0.817858 0.0569714)
(3.20703 -0.712956 -0.00558657)
(3.19948 -0.833883 0.0645533)
(3.00396 0.063034 0.130751)
(3.06525 -0.105911 0.143162)
(3.13713 0.0629276 0.143586)
(3.09105 -0.155217 0.113577)
(3.11152 0.0587812 0.117783)
(2.99588 -0.22626 0.0781021)
(3.05535 0.0496314 0.0789106)
(2.88111 -0.313442 0.0419531)
(3.01288 0.0346686 0.0509175)
(2.76416 -0.437596 0.0205029)
(3 -9.32531e-05 0.0313208)
(2.66259 -0.594826 0.0106238)
(3.03526 -0.0733774 0.012453)
(2.59278 -0.778289 0.0137432)
(3.12019 -0.218087 -0.0118194)
(2.58577 -0.934725 0.0367031)
(3.22739 -0.466883 -0.0411561)
(2.74738 -1.01903 0.08197)
(3.2998 -0.781952 -0.023979)
(3.15631 -1.04075 0.11805)
(2.98525 0.0664461 0.12969)
(3.09798 -0.113115 0.14454)
(3.10914 0.0729316 0.144766)
(3.13362 -0.164475 0.112629)
(3.06562 0.0740399 0.12229)
(3.05006 -0.242666 0.0765483)
(2.98633 0.0719498 0.0870821)
(2.94708 -0.340513 0.0367915)
(2.92241 0.0708176 0.0631706)
(2.84293 -0.484581 0.00983105)
(2.89393 0.0566517 0.0496905)
(2.75153 -0.682507 -0.00840682)
(2.93552 0.0137249 0.037114)
(2.67434 -0.933208 -0.0166681)
(3.08401 -0.107628 0.00975101)
(2.60503 -1.16917 0.00436736)
(3.331 -0.392761 -0.0554359)
(2.64057 -1.27767 0.0881883)
(3.49886 -0.834662 -0.0752205)
(3.0795 -1.24772 0.197116)
(2.96673 0.057108 0.127478)
(3.13525 -0.103189 0.145646)
(3.07547 0.0656812 0.146436)
(3.18254 -0.15001 0.111479)
(2.99944 0.0669948 0.127392)
(3.11665 -0.226805 0.0739438)
(2.8735 0.0644158 0.0974087)
(3.03404 -0.325055 0.0298235)
(2.74949 0.0690405 0.0802766)
(2.95732 -0.473133 -0.00580466)
(2.64642 0.0707133 0.0806959)
(2.89998 -0.696526 -0.04026)
(2.61481 0.0726111 0.0932029)
(2.85303 -1.02428 -0.0747493)
(2.75517 0.0391078 0.0997752)
(2.7692 -1.42479 -0.0858426)
(3.17324 -0.206931 0.0210855)
(2.64933 -1.66821 0.0312687)
(3.67722 -0.889176 -0.153866)
(2.8745 -1.44483 0.300824)
(2.991 0.0328337 0.12313)
(3.12214 -0.070699 0.147216)
(3.09684 0.0349066 0.145582)
(3.16428 -0.105572 0.113933)
(2.9998 0.0256588 0.127263)
(3.09922 -0.168998 0.0747715)
(2.83769 0.00863386 0.0999694)
(3.01656 -0.250342 0.0305913)
(2.65141 -0.00834204 0.0860037)
(2.94556 -0.372468 -0.00756542)
(2.44755 -0.0317303 0.0928296)
(2.90561 -0.575876 -0.0481958)
(2.24902 -0.0314663 0.126436)
(2.89932 -0.935841 -0.102008)
(2.13252 0.0592365 0.205207)
(2.91503 -1.54605 -0.163539)
(2.3577 0.17354 0.287777)
(2.87966 -2.24724 -0.121336)
(3.33029 -0.602642 0.0738081)
(2.67899 -1.89126 0.348158)
(3.09865 0.00924219 0.116927)
(3.00332 -0.0318261 0.151794)
(3.24094 -0.000333336 0.138821)
(3.00114 -0.0544793 0.124874)
(3.17704 -0.0254838 0.115266)
(2.89291 -0.0961559 0.0883974)
(3.05414 -0.063742 0.0826824)
(2.75723 -0.149679 0.0517045)
(2.90349 -0.121906 0.0611417)
(2.62319 -0.224962 0.0245353)
(2.74455 -0.215936 0.0544991)
(2.50757 -0.355486 0.00402527)
(2.58811 -0.344446 0.0665521)
(2.44647 -0.618919 -0.0169667)
(2.40979 -0.451843 0.125769)
(2.57168 -1.21826 -0.0525844)
(2.13851 -0.216196 0.343206)
(3.01811 -2.52491 -0.138291)
(2.39758 0.232814 0.682733)
(3.03811 -3.07851 0.113836)
(3.23504 0.000189253 0.111121)
(2.84042 -0.0110713 0.160618)
(3.42533 -0.0123519 0.129952)
(2.78381 -0.0280864 0.138062)
(3.41663 -0.0426073 0.101404)
(2.62044 -0.0578051 0.106218)
(3.3605 -0.087428 0.0607783)
(2.42477 -0.0991701 0.0786584)
(3.28519 -0.160642 0.0286223)
(2.22047 -0.157302 0.0660675)
(3.22528 -0.283781 0.00592952)
(2.01226 -0.251969 0.0711069)
(3.20167 -0.500054 -0.00720166)
(1.82972 -0.410865 0.0937269)
(3.2118 -0.882894 -0.0049896)
(1.80448 -0.746967 0.1329)
(3.12057 -1.39054 0.0783453)
(2.34334 -1.9325 0.101722)
(2.42035 -0.726338 0.714189)
(3.42778 -4.5725 -0.464572)
(3.26241 0.0320822 0.103186)
(2.80883 -0.0486639 0.175037)
(3.48116 0.028324 0.120031)
(2.73061 -0.0720708 0.156489)
(3.50428 0.0122936 0.0860564)
(2.5582 -0.109942 0.126622)
(3.48257 -0.017621 0.038482)
(2.36815 -0.165245 0.102245)
(3.43841 -0.0681288 -0.00271222)
(2.19544 -0.25014 0.0921517)
(3.39757 -0.156544 -0.0355813)
(2.04754 -0.389366 0.0969588)
(3.3683 -0.328289 -0.0605443)
(1.89758 -0.614684 0.114136)
(3.36225 -0.674619 -0.0764449)
(1.62615 -0.960659 0.156479)
(3.35592 -1.42188 -0.0969672)
(1.21438 -1.55073 0.261455)
(2.87887 -2.55428 -0.0884074)
(2.66912 -4.62616 -1.09059)
(2.94243 0.033859 0.0636723)
(3.02001 0.052817 0.0931434)
(3.05982 0.0539828 0.0865462)
(3.05686 0.0534671 0.0839675)
(3.03132 0.0522687 0.0767316)
(2.99674 0.0495189 0.0637815)
(2.9544 0.0459243 0.0499276)
(2.90746 0.0418335 0.0390744)
(2.85661 0.0379577 0.031479)
(2.80691 0.0344946 0.0257252)
(2.75921 0.0308468 0.0212965)
(2.7179 0.0268137 0.0180408)
(2.68248 0.0224375 0.0156781)
(2.65553 0.0183621 0.0138935)
(2.63547 0.0148075 0.0123539)
(2.62345 0.011277 0.0112547)
(2.61765 0.00779558 0.0105888)
(2.61821 0.00496345 0.00993202)
(2.62284 0.00283809 0.00911717)
(2.63105 0.00214178 0.00809144)
(3.00099 0.0425857 0.0635697)
(3.14336 0.0676781 0.0943278)
(3.27756 0.070539 0.0901737)
(3.37899 0.0701856 0.0870585)
(3.45202 0.0691948 0.0825628)
(3.51033 0.0657668 0.0733524)
(3.55513 0.0613238 0.0619976)
(3.59107 0.0557512 0.0519382)
(3.61759 0.0497822 0.0443354)
(3.63969 0.0435076 0.0384258)
(3.65901 0.0373601 0.0333715)
(3.67844 0.0306132 0.0294761)
(3.69945 0.0232961 0.0263595)
(3.72192 0.0154727 0.0241488)
(3.74819 0.00758719 0.0218447)
(3.77769 0.000846052 0.0196967)
(3.81123 -0.00498798 0.0181847)
(3.84594 -0.0101348 0.017091)
(3.88435 -0.0144783 0.0158785)
(3.92229 -0.0168598 0.014627)
(3.00116 0.0166009 0.0632512)
(3.1338 0.0318888 0.0940052)
(3.26888 0.0379711 0.0898046)
(3.37735 0.0387948 0.0853127)
(3.46125 0.0388523 0.0806335)
(3.53098 0.0360395 0.0718276)
(3.58967 0.0327567 0.0607305)
(3.63952 0.0271138 0.0506176)
(3.68242 0.0208418 0.042932)
(3.71941 0.0131792 0.0373151)
(3.75507 0.00534154 0.0324535)
(3.78913 -0.00341203 0.0285714)
(3.82597 -0.012798 0.0251221)
(3.86231 -0.0226259 0.0224566)
(3.90292 -0.0333704 0.0200513)
(3.94453 -0.0423944 0.0181338)
(3.99094 -0.0500016 0.0163925)
(4.03636 -0.0564089 0.0150001)
(4.08624 -0.0623113 0.0132723)
(4.13556 -0.0645612 0.0119739)
(3.00117 0.0124344 0.0631549)
(3.12552 0.0241812 0.0943396)
(3.2552 0.0306624 0.0902806)
(3.36061 0.0301313 0.085257)
(3.44391 0.0290954 0.0802215)
(3.51274 0.0237999 0.0714257)
(3.57199 0.0191757 0.0601196)
(3.62187 0.0112345 0.0499435)
(3.66637 0.00325046 0.0419679)
(3.70428 -0.0067526 0.0362499)
(3.74201 -0.0173789 0.0312523)
(3.77765 -0.0288221 0.0273333)
(3.81698 -0.0410473 0.0236924)
(3.85535 -0.0532478 0.0209627)
(3.89896 -0.0674707 0.0183015)
(3.94387 -0.0792278 0.0163148)
(3.99402 -0.0892602 0.0145099)
(4.04225 -0.0971032 0.0130677)
(4.09607 -0.105667 0.0111501)
(4.14998 -0.107739 0.00991223)
(3.00108 0.008009 0.0632231)
(3.12013 0.0107702 0.0945383)
(3.24625 0.0150622 0.0907207)
(3.349 0.0115868 0.0854137)
(3.43093 0.00996994 0.0801407)
(3.49827 0.00181779 0.0711689)
(3.55683 -0.00374524 0.0596548)
(3.60548 -0.0142167 0.0492716)
(3.64988 -0.0234976 0.0409908)
(3.6867 -0.035817 0.0353547)
(3.72468 -0.0490261 0.0301396)
(3.75978 -0.062876 0.0263564)
(3.7996 -0.07787 0.0225934)
(3.83759 -0.0923975 0.0199292)
(3.88256 -0.110678 0.0170633)
(3.92941 -0.124741 0.0151707)
(3.9819 -0.136814 0.013467)
(4.03148 -0.145965 0.0120238)
(4.08872 -0.157886 0.00983883)
(4.14664 -0.15947 0.00862605)
(3.00106 0.00693595 0.0634591)
(3.11648 0.00162381 0.0945277)
(3.24107 0.00642058 0.0911635)
(3.34133 -0.000880534 0.0858223)
(3.422 -0.00148517 0.0805385)
(3.48686 -0.0136789 0.0716575)
(3.54474 -0.0190765 0.0598838)
(3.59115 -0.033172 0.0497659)
(3.63506 -0.0428991 0.0412304)
(3.6692 -0.0586508 0.035841)
(3.7074 -0.0745145 0.030119)
(3.74081 -0.0914129 0.0267016)
(3.78104 -0.109498 0.0226172)
(3.81749 -0.127007 0.0201456)
(3.86399 -0.150806 0.0169134)
(3.91271 -0.167347 0.0151453)
(3.9677 -0.181959 0.0135961)
(4.01808 -0.193197 0.012135)
(4.07984 -0.210152 0.00955043)
(4.14229 -0.21092 0.00847534)
(3.00123 0.00845851 0.0639965)
(3.11257 -0.00809003 0.0941355)
(3.23741 5.56064e-05 0.0916739)
(3.33456 -0.0151327 0.0861851)
(3.41492 -0.0122321 0.08109)
(3.47616 -0.032186 0.0718927)
(3.53489 -0.0348779 0.059722)
(3.57785 -0.0554542 0.0499805)
(3.62257 -0.0629645 0.0410019)
(3.6522 -0.084606 0.0361253)
(3.69225 -0.101567 0.0294595)
(3.72254 -0.12262 0.0269516)
(3.76415 -0.142969 0.0220367)
(3.79795 -0.164354 0.0201816)
(3.84706 -0.19498 0.0161918)
(3.89784 -0.213713 0.0148744)
(3.95554 -0.231001 0.0135443)
(4.00702 -0.244987 0.0120148)
(4.07447 -0.268776 0.00908214)
(4.14237 -0.267866 0.00817962)
(3.00179 0.0132636 0.0649559)
(3.10771 -0.0197286 0.0930851)
(3.23539 -0.00150837 0.0922587)
(3.32774 -0.0306841 0.0860319)
(3.41005 -0.0174248 0.0818786)
(3.46469 -0.0516028 0.0716547)
(3.52772 -0.0451489 0.059448)
(3.56361 -0.0783858 0.0501286)
(3.61242 -0.0772161 0.0405606)
(3.63319 -0.111062 0.036627)
(3.67919 -0.124217 0.0282871)
(3.70223 -0.153701 0.0277761)
(3.74792 -0.173083 0.0207365)
(3.77659 -0.201685 0.0206382)
(3.83065 -0.239222 0.0149091)
(3.88206 -0.260483 0.0150297)