x,y,z,U_0,U_1,U_2
0,0,0,0.300003,-1.9385e-05,0
0,0.1,0,0.300002,-1.38464e-05,0
0,0.2,0,0.300001,-8.30787e-06,0
0,0.3,0,0.3,-2.76929e-06,0
0,0.4,0,0.3,0,0
0,0.5,0,0.3,0,0
0,0.6,0,0.3,0,0
0,0.7,0,0.3,-2.35062e-20,0
0,0.8,0,0.3,0,0
0,0.9,0,0.3,0,0
0,1,0,0.3,0,0
0,1.1,0,0.3,0,0
0,1.2,0,0.3,0,0
0,1.3,0,0.3,0,0
0,1.4,0,0.3,0,0
0,1.5,0,0.3,0,0
0,1.6,0,0.3,0,0
0,1.7,0,0.3,0,0
0,1.8,0,0.3,0,0
0,1.9,0,0.3,0,0
0,2,0,0.3,0,0
0,2.1,0,0.3,0,0
0,2.2,0,0.3,0,0
0,2.3,0,0.3,0,0
0,2.4,0,0.3,0,0
0,2.5,0,0.3,0,0
0,2.6,0,0.3,0,0
0,2.7,0,0.3,0,0
0,2.8,0,0.3,0,0
0,2.9,0,0.3,0,0
0,3,0,0.3,0,0
0,3.1,0,0.3,0,0
0,3.2,0,0.3,0,0
0,3.3,0,0.3,0,0
0,3.4,0,0.3,0,0
0,3.5,0,0.3,0,0
0,3.6,0,0.3,0,0
0,3.7,0,0.3,0,0
0,3.8,0,0.3,0,0
0,3.9,0,0.3,0,0
0,4,0,0.3,0,0
0,4.1,0,0.3,0,0
0,4.2,0,0.3,0,0
0,4.3,0,0.3,0,0
0,4.4,0,0.3,0,0
0,4.5,0,0.3,0,0
0,4.6,0,0.3,0,0
0,4.7,0,0.3,0,0
0,4.8,0,0.3,0,0
0,4.9,0,0.3,-1.18296e-20,0
0,5,0,0.3,0,0
0,5.1,0,0.3,0,0
0,5.2,0,0.3,0,0
0,5.3,0,0.3,0,0
0,5.4,0,0.3,0,0
0,5.5,0,0.3,0,0
0,5.6,0,0.3,-6.82664e-21,0
0,5.7,0,0.3,0,0
0,5.8,0,0.3,0,0
0,5.9,0,0.3,0,0
0,6,0,0.3,0,0
0,6.1,0,0.3,0,0
0,6.2,0,0.3,0,0
0,6.3,0,0.3,-8.61489e-22,0
0,6.4,0,0.3,0,0
0,6.5,0,0.3,0,0
0,6.6,0,0.3,0,0
0,6.7,0,0.3,0,0
0,6.8,0,0.3,0,0
0,6.9,0,0.3,0,0
0,7,0,0.3,0,0
0,7.1,0,0.3,0,0
0,7.2,0,0.3,5.81902e-21,0
0,7.3,0,0.3,6.2132e-21,0
0,7.4,0,0.3,6.61191e-21,0
0,7.5,0,0.3,0,0
0,7.6,0,0.3,7.41423e-21,0
0,7.7,0,0.3,0,0
0,7.8,0,0.3,8.22245e-21,0
0,7.9,0,0.3,0,0
0,8,0,0.3,0,0
0,8.1,0,0.3,0,0
0,8.2,0,0.3,0,0
0,8.3,0,0.3,0,0
0,8.4,0,0.3,0,0
0,8.5,0,0.3,0,0
0,8.6,0,0.3,0,0
0,8.7,0,0.3,0,0
0,8.8,0,0.3,0,0
0,8.9,0,0.3,0,0
0,9,0,0.3,0,0
0,9.1,0,0.3,0,0
0,9.2,0,0.3,0,0
0,9.3,0,0.3,0,0
0,9.4,0,0.3,0,0
0,9.5,0,0.3,0,0
0,9.6,0,0.3,0,0
0,9.7,0,0.3,0,0
0,9.8,0,0.3,0,0
0,9.9,0,0.3,0,0
0,10,0,0.3,0,0
0,10.1,0,0.3,0,0
0,10.2,0,0.3,0,0
0,10.3,0,0.3,0,0
0,10.4,0,0.3,0,0
0,10.5,0,0.3,0,0
0,10.6,0,0.3,0,0
0,10.7,0,0.3,0,0
0,10.8,0,0.3,0,0
0,10.9,0,0.3,0,0
0,11,0,0.3,0,0
0,11.1,0,0.3,0,0
0,11.2,0,0.3,0,0
0,11.3,0,0.3,0,0
0,11.4,0,0.3,0,0
0,11.5,0,0.3,0,0
0,11.6,0,0.3,0,0
0,11.7,0,0.3,0,0
0,11.8,0,0.3,0,0
0,11.9,0,0.3,0,0
0,12,0,0.3,0,0
0,12.1,0,0.3,0,0
0,12.2,0,0.3,0,0
0,12.3,0,0.3,0,0
0,12.4,0,0.3,0,0
0,12.5,0,0.299999,-9.02015e-06,0
0,12.6,0,0.299996,-3.4792e-05,0
0,12.7,0,0.299992,-6.05639e-05,0
0.1,0,0,0.300002,-3.97779e-05,0
0.1,0.1,0,0.300003,-2.12e-05,0
0.1,0.2,0,0.300002,-1.56614e-05,0
0.1,0.3,0,0.300002,-1.01228e-05,0
0.1,0.4,0,0.300001,-8.62379e-06,0
0.1,0.5,0,0.300001,-8.62379e-06,0
0.1,0.6,0,0.300001,-8.62379e-06,0
0.1,0.7,0,0.299999,-2.22868e-05,0
0.1,0.8,0,0.3,-7.48011e-06,0
0.1,0.9,0,0.3,-7.48011e-06,0
0.1,1,0,0.3,-7.48011e-06,0
0.1,1.1,0,0.299999,-5.91634e-06,0
0.1,1.2,0,0.299999,-5.91634e-06,0
0.1,1.3,0,0.299999,-5.91634e-06,0
0.1,1.4,0,0.299998,-2.17843e-05,0
0.1,1.5,0,0.299999,-3.97897e-06,0
0.1,1.6,0,0.299999,-3.97897e-06,0
0.1,1.7,0,0.299999,-3.97897e-06,0
0.1,1.8,0,0.299998,-1.75995e-06,0
0.1,1.9,0,0.299998,-1.75995e-06,0
0.1,2,0,0.299998,-1.75995e-06,0
0.1,2.1,0,0.299998,-2.08665e-05,0
0.1,2.2,0,0.299996,6.61027e-07,0
0.1,2.3,0,0.299996,6.61027e-07,0
0.1,2.4,0,0.299996,6.61027e-07,0
0.1,2.5,0,0.299995,3.16419e-06,0
0.1,2.6,0,0.299995,3.16419e-06,0
0.1,2.7,0,0.299995,3.16419e-06,0
0.1,2.8,0,0.299998,-1.94602e-05,0
0.1,2.9,0,0.299993,5.57789e-06,0
0.1,3,0,0.299993,5.57789e-06,0
0.1,3.1,0,0.299993,5.57789e-06,0
0.1,3.2,0,0.299991,7.71992e-06,0
0.1,3.3,0,0.299991,7.71992e-06,0
0.1,3.4,0,0.299991,7.71992e-06,0
0.1,3.5,0,0.299998,-1.74984e-05,0
0.1,3.6,0,0.299987,9.36421e-06,0
0.1,3.7,0,0.299987,9.36421e-06,0
0.1,3.8,0,0.299987,9.36421e-06,0
0.1,3.9,0,0.299983,1.02524e-05,0
0.1,4,0,0.299983,1.02524e-05,0
0.1,4.1,0,0.299983,1.02524e-05,0
0.1,4.2,0,0.299999,-1.4832e-05,0
0.1,4.3,0,0.299979,1.01218e-05,0
0.1,4.4,0,0.299979,1.01218e-05,0
0.1,4.5,0,0.299979,1.01218e-05,0
0.1,4.6,0,0.299976,8.76065e-06,0
0.1,4.7,0,0.299976,8.76065e-06,0
0.1,4.8,0,0.299976,8.76065e-06,0
0.1,4.9,0,0.300001,-1.12159e-05,0
0.1,5,0,0.299975,6.09244e-06,0
0.1,5.1,0,0.299975,6.09244e-06,0
0.1,5.2,0,0.299975,6.09244e-06,0
0.1,5.3,0,0.299979,2.25347e-06,0
0.1,5.4,0,0.299979,2.25347e-06,0
0.1,5.5,0,0.299979,2.25347e-06,0
0.1,5.6,0,0.300002,-6.47252e-06,0
0.1,5.7,0,0.299988,-2.23606e-06,0
0.1,5.8,0,0.299988,-2.23606e-06,0
0.1,5.9,0,0.299988,-2.23606e-06,0
0.1,6,0,0.300004,-6.62314e-06,0
0.1,6.1,0,0.300004,-6.62314e-06,0
0.1,6.2,0,0.300004,-6.62314e-06,0
0.1,6.3,0,0.299999,-8.168e-07,0
0.1,6.4,0,0.300025,-9.94137e-06,0
0.1,6.5,0,0.300025,-9.94137e-06,0
0.1,6.6,0,0.300025,-9.94137e-06,0
0.1,6.7,0,0.300048,-1.21943e-05,0
0.1,6.8,0,0.300048,-1.21943e-05,0
0.1,6.9,0,0.300048,-1.21943e-05,0
0.1,7,0,0.299994,4.34669e-06,0
0.1,7.1,0,0.299993,5.13251e-06,0
0.1,7.2,0,0.299993,5.51717e-06,0
0.1,7.3,0,0.299992,5.8909e-06,0
0.1,7.4,0,0.299992,6.26892e-06,0
0.1,7.5,0,0.299992,6.64866e-06,0
0.1,7.6,0,0.299992,7.02962e-06,0
0.1,7.7,0,0.299992,7.41209e-06,0
0.1,7.8,0,0.299992,7.79592e-06,0
0.1,7.9,0,0.299992,8.19305e-06,0
0.1,8,0,0.299993,8.80712e-06,0
0.1,8.1,0,0.30008,4.96777e-06,0
0.1,8.2,0,0.30008,4.96777e-06,0
0.1,8.3,0,0.300069,5.84989e-06,0
0.1,8.4,0,0.300069,5.84989e-06,0
0.1,8.5,0,0.300054,5.63175e-06,0
0.1,8.6,0,0.300054,5.63175e-06,0
0.1,8.7,0,0.30001,1.1766e-05,0
0.1,8.8,0,0.300037,4.20855e-06,0
0.1,8.9,0,0.300037,4.20855e-06,0
0.1,9,0,0.300019,1.58174e-06,0
0.1,9.1,0,0.300019,1.58174e-06,0
0.1,9.2,0,0.300001,-2.08888e-06,0
0.1,9.3,0,0.300001,-2.08888e-06,0
0.1,9.4,0,0.300004,1.01097e-05,0
0.1,9.5,0,0.299985,-6.51924e-06,0
0.1,9.6,0,0.299985,-6.51924e-06,0
0.1,9.7,0,0.299972,-1.13475e-05,0
0.1,9.8,0,0.299972,-1.13475e-05,0
0.1,9.9,0,0.299971,-9.0345e-06,0
0.1,10,0,0.299963,-1.62305e-05,0
0.1,10.1,0,0.29998,-9.53166e-07,0
0.1,10.2,0,0.299958,-2.08479e-05,0
0.1,10.3,0,0.299958,-2.08479e-05,0
0.1,10.4,0,0.299956,-2.49404e-05,0
0.1,10.5,0,0.299956,-2.49404e-05,0
0.1,10.6,0,0.299976,-7.54437e-06,0
0.1,10.7,0,0.299958,-2.83293e-05,0
0.1,10.8,0,0.299966,-1.80886e-05,0
0.1,10.9,0,0.299962,-3.09194e-05,0
0.1,11,0,0.299962,-3.09194e-05,0
0.1,11.1,0,0.299967,-3.26905e-05,0
0.1,11.2,0,0.299967,-3.26905e-05,0
0.1,11.3,0,0.29999,1.91098e-06,0
0.1,11.4,0,0.299974,-3.36808e-05,0
0.1,11.5,0,0.299974,-3.36808e-05,0
0.1,11.6,0,0.29998,-3.39707e-05,0
0.1,11.7,0,0.29998,-3.39707e-05,0
0.1,11.8,0,0.299986,-3.36712e-05,0
0.1,11.9,0,0.299986,-3.36712e-05,0
0.1,12,0,0.299996,1.46594e-05,0
0.1,12.1,0,0.299991,-3.28789e-05,0
0.1,12.2,0,0.299991,-3.28789e-05,0
0.1,12.3,0,0.299995,-3.15718e-05,0
0.1,12.4,0,0.299995,-3.15718e-05,0
0.1,12.5,0,0.299996,-3.25155e-05,0
0.1,12.6,0,0.299993,-5.82874e-05,0
0.1,12.7,0,0.29999,-2.73785e-05,0
0.2,0,0,0.300001,-6.01707e-05,0
0.2,0.1,0,0.300004,-2.85536e-05,0
0.2,0.2,0,0.300004,-2.3015e-05,0
0.2,0.3,0,0.300002,-2.71474e-05,0
0.2,0.4,0,0.300001,-2.6102e-05,0
0.2,0.5,0,0.300002,-1.72476e-05,0
0.2,0.6,0,0.300002,-1.72476e-05,0
0.2,0.7,0,0.299998,-4.45736e-05,0
0.2,0.8,0,0.3,-1.49602e-05,0
0.2,0.9,0,0.3,-1.49602e-05,0
0.2,1,0,0.299999,-2.43498e-05,0
0.2,1.1,0,0.299998,-2.22275e-05,0
0.2,1.2,0,0.299999,-1.18327e-05,0
0.2,1.3,0,0.299999,-1.18327e-05,0
0.2,1.4,0,0.299997,-4.35687e-05,0
0.2,1.5,0,0.299997,-7.95794e-06,0
0.2,1.6,0,0.299997,-7.95794e-06,0
0.2,1.7,0,0.299997,-1.91452e-05,0
0.2,1.8,0,0.299996,-1.61337e-05,0
0.2,1.9,0,0.299995,-3.5199e-06,0
0.2,2,0,0.299995,-3.5199e-06,0
0.2,2.1,0,0.299996,-4.17331e-05,0
0.2,2.2,0,0.299993,1.32205e-06,0
0.2,2.3,0,0.299993,1.32205e-06,0
0.2,2.4,0,0.299994,-1.21065e-05,0
0.2,2.5,0,0.299992,-8.70936e-06,0
0.2,2.6,0,0.29999,6.32838e-06,0
0.2,2.7,0,0.29999,6.32838e-06,0
0.2,2.8,0,0.299995,-3.89205e-05,0
0.2,2.9,0,0.299986,1.11558e-05,0
0.2,3,0,0.299986,1.11558e-05,0
0.2,3.1,0,0.299989,-4.35863e-06,0
0.2,3.2,0,0.299986,-1.4516e-06,0
0.2,3.3,0,0.299981,1.54398e-05,0
0.2,3.4,0,0.299981,1.54398e-05,0
0.2,3.5,0,0.299996,-3.49968e-05,0
0.2,3.6,0,0.299974,1.87284e-05,0
0.2,3.7,0,0.299974,1.87284e-05,0
0.2,3.8,0,0.299982,2.25124e-06,0
0.2,3.9,0,0.299976,3.45662e-06,0
0.2,4,0,0.299967,2.05048e-05,0
0.2,4.1,0,0.299967,2.05048e-05,0
0.2,4.2,0,0.299998,-2.9664e-05,0
0.2,4.3,0,0.299959,2.02435e-05,0
0.2,4.4,0,0.299959,2.02435e-05,0
0.2,4.5,0,0.299972,5.2772e-06,0
0.2,4.6,0,0.299968,3.42997e-06,0
0.2,4.7,0,0.299952,1.75213e-05,0
0.2,4.8,0,0.299952,1.75213e-05,0
0.2,4.9,0,0.300002,-2.24319e-05,0
0.2,5,0,0.299951,1.21849e-05,0
0.2,5.1,0,0.299951,1.21849e-05,0
0.2,5.2,0,0.299968,2.49157e-06,0
0.2,5.3,0,0.299972,-2.71846e-06,0
0.2,5.4,0,0.299957,4.50695e-06,0
0.2,5.5,0,0.299957,4.50695e-06,0
0.2,5.6,0,0.300003,-1.2945e-05,0
0.2,5.7,0,0.299976,-4.47213e-06,0
0.2,5.8,0,0.299976,-4.47213e-06,0
0.2,5.9,0,0.299984,-5.42173e-06,0
0.2,6,0,0.300006,-1.13756e-05,0
0.2,6.1,0,0.300008,-1.32463e-05,0
0.2,6.2,0,0.300008,-1.32463e-05,0
0.2,6.3,0,0.299998,-1.6336e-06,0
0.2,6.4,0,0.30005,-1.98827e-05,0
0.2,6.5,0,0.30005,-1.98827e-05,0
0.2,6.6,0,0.300032,-1.20808e-05,0
0.2,6.7,0,0.300063,-1.51383e-05,0
0.2,6.8,0,0.300096,-2.43885e-05,0
0.2,6.9,0,0.300096,-2.43885e-05,0
0.2,7,0,0.299989,8.69339e-06,0
0.2,7.1,0,0.299987,1.0265e-05,0
0.2,7.2,0,0.299985,1.10343e-05,0
0.2,7.3,0,0.299984,1.17818e-05,0
0.2,7.4,0,0.299984,1.25378e-05,0
0.2,7.5,0,0.299983,1.32973e-05,0
0.2,7.6,0,0.299983,1.40592e-05,0
0.2,7.7,0,0.299983,1.48242e-05,0
0.2,7.8,0,0.299984,1.55918e-05,0
0.2,7.9,0,0.299985,1.63861e-05,0
0.2,8,0,0.299986,1.76142e-05,0
0.2,8.1,0,0.300159,9.93554e-06,0
0.2,8.2,0,0.300109,1.28853e-05,0
0.2,8.3,0,0.300138,1.16998e-05,0
0.2,8.4,0,0.300138,1.16998e-05,0
0.2,8.5,0,0.300063,1.59881e-05,0
0.2,8.6,0,0.300109,1.12635e-05,0
0.2,8.7,0,0.30001,2.50861e-05,0
0.2,8.8,0,0.300074,8.41709e-06,0
0.2,8.9,0,0.30006,1.25613e-05,0
0.2,9,0,0.300037,3.16348e-06,0
0.2,9.1,0,0.300037,3.16348e-06,0
0.2,9.2,0,0.300005,1.44454e-05,0
0.2,9.3,0,0.300001,-4.17776e-06,0
0.2,9.4,0,0.300009,2.84971e-05,0
0.2,9.5,0,0.29997,-1.30385e-05,0
0.2,9.6,0,0.299974,-8.25338e-06,0
0.2,9.7,0,0.299944,-2.26951e-05,0
0.2,9.8,0,0.299944,-2.26951e-05,0
0.2,9.9,0,0.299978,1.23142e-05,0
0.2,10,0,0.299926,-3.24611e-05,0
0.2,10.1,0,0.299987,2.16291e-05,0
0.2,10.2,0,0.299915,-4.16957e-05,0
0.2,10.3,0,0.299915,-4.16957e-05,0
0.2,10.4,0,0.299912,-4.98808e-05,0
0.2,10.5,0,0.299912,-4.98808e-05,0
0.2,10.6,0,0.299981,1.69312e-05,0
0.2,10.7,0,0.299915,-5.66585e-05,0
0.2,10.8,0,0.29997,7.06126e-06,0
0.2,10.9,0,0.299923,-6.18387e-05,0
0.2,11,0,0.299923,-6.18387e-05,0
0.2,11.1,0,0.299941,-5.48265e-05,0
0.2,11.2,0,0.299934,-6.53811e-05,0
0.2,11.3,0,0.29999,2.79736e-05,0
0.2,11.4,0,0.299947,-6.73617e-05,0
0.2,11.5,0,0.299973,-7.96515e-06,0
0.2,11.6,0,0.29996,-6.79415e-05,0
0.2,11.7,0,0.29996,-6.79415e-05,0
0.2,11.8,0,0.299977,-4.42728e-05,0
0.2,11.9,0,0.299973,-6.73423e-05,0
0.2,12,0,0.299994,4.13618e-05,0
0.2,12.1,0,0.299982,-6.57579e-05,0
0.2,12.2,0,0.299987,-1.88086e-05,0
0.2,12.3,0,0.299989,-6.31436e-05,0
0.2,12.4,0,0.299989,-6.31436e-05,0
0.2,12.5,0,0.299993,-2.65893e-05,0
0.2,12.6,0,0.29999,-8.17828e-05,0
0.2,12.7,0,0.299987,5.80695e-06,0
0.3,0,0,0.300001,-8.05635e-05,0
0.3,0.1,0,0.300005,-3.96326e-05,0
0.3,0.2,0,0.300005,-3.03685e-05,0
0.3,0.3,0,0.300001,-4.95447e-05,0
0.3,0.4,0,0.3,-4.84993e-05,0
0.3,0.5,0,0.300003,-2.58714e-05,0
0.3,0.6,0,0.300002,-2.97751e-05,0
0.3,0.7,0,0.299997,-6.68604e-05,0
0.3,0.8,0,0.3,-2.66708e-05,0
0.3,0.9,0,0.300001,-2.24403e-05,0
0.3,1,0,0.299998,-4.64358e-05,0
0.3,1.1,0,0.299997,-4.43136e-05,0
0.3,1.2,0,0.299998,-1.7749e-05,0
0.3,1.3,0,0.299998,-2.22827e-05,0
0.3,1.4,0,0.299995,-6.5353e-05,0
0.3,1.5,0,0.299996,-1.70242e-05,0
0.3,1.6,0,0.299996,-1.19369e-05,0
0.3,1.7,0,0.299995,-4.05266e-05,0
0.3,1.8,0,0.299994,-3.75151e-05,0
0.3,1.9,0,0.299993,-5.27985e-06,0
0.3,2,0,0.299993,-1.07389e-05,0
0.3,2.1,0,0.299993,-6.25996e-05,0
0.3,2.2,0,0.29999,-4.16765e-06,0
0.3,2.3,0,0.299989,1.98308e-06,0
0.3,2.4,0,0.299991,-3.23344e-05,0
0.3,2.5,0,0.299989,-2.89372e-05,0
0.3,2.6,0,0.299985,9.49257e-06,0
0.3,2.7,0,0.299986,3.02845e-06,0
0.3,2.8,0,0.299993,-5.83807e-05,0
0.3,2.9,0,0.29998,9.57993e-06,0
0.3,3,0,0.299979,1.67337e-05,0
0.3,3.1,0,0.299987,-2.29143e-05,0
0.3,3.2,0,0.299983,-2.00072e-05,0
0.3,3.3,0,0.299972,2.31597e-05,0
0.3,3.4,0,0.299974,1.59545e-05,0
0.3,3.5,0,0.299994,-5.24951e-05,0
0.3,3.6,0,0.299965,2.04176e-05,0
0.3,3.7,0,0.299961,2.80926e-05,0
0.3,3.8,0,0.29998,-1.40157e-05,0
0.3,3.9,0,0.299975,-1.28103e-05,0
0.3,4,0,0.29995,3.07571e-05,0
0.3,4.1,0,0.299955,2.35902e-05,0
0.3,4.2,0,0.299997,-4.4496e-05,0
0.3,4.3,0,0.299944,2.32357e-05,0
0.3,4.4,0,0.299938,3.03653e-05,0
0.3,4.5,0,0.299972,-7.882e-06,0
0.3,4.6,0,0.299968,-9.72922e-06,0
0.3,4.7,0,0.299929,2.6282e-05,0
0.3,4.8,0,0.299936,2.05744e-05,0
0.3,4.9,0,0.300003,-3.36478e-05,0
0.3,5,0,0.299933,1.33321e-05,0
0.3,5.1,0,0.299926,1.82773e-05,0
0.3,5.2,0,0.299969,-6.49448e-06,0
0.3,5.3,0,0.299974,-1.17045e-05,0
0.3,5.4,0,0.299936,6.76042e-06,0
0.3,5.5,0,0.299943,4.26728e-06,0
0.3,5.6,0,0.300005,-1.94176e-05,0
0.3,5.7,0,0.299968,-7.91861e-06,0
0.3,5.8,0,0.299964,-6.70819e-06,0
0.3,5.9,0,0.299985,-9.13495e-06,0
0.3,6,0,0.300007,-1.50888e-05,0
0.3,6.1,0,0.300011,-1.98694e-05,0
0.3,6.2,0,0.30001,-1.82105e-05,0
0.3,6.3,0,0.299997,-2.4504e-06,0
0.3,6.4,0,0.300068,-2.72171e-05,0
0.3,6.5,0,0.300075,-2.98241e-05,0
0.3,6.6,0,0.300028,-9.88576e-06,0
0.3,6.7,0,0.30006,-1.29433e-05,0
0.3,6.8,0,0.300145,-3.65828e-05,0
0.3,6.9,0,0.300129,-3.18568e-05,0
0.3,7,0,0.299983,1.30401e-05,0
0.3,7.1,0,0.29998,1.53975e-05,0
0.3,7.2,0,0.299978,1.65515e-05,0
0.3,7.3,0,0.299977,1.76727e-05,0
0.3,7.4,0,0.299976,1.88068e-05,0
0.3,7.5,0,0.299975,1.9946e-05,0
0.3,7.6,0,0.299975,2.10889e-05,0
0.3,7.7,0,0.299975,2.22363e-05,0
0.3,7.8,0,0.299976,2.33878e-05,0
0.3,7.9,0,0.299977,2.45792e-05,0
0.3,8,0,0.299979,2.64214e-05,0
0.3,8.1,0,0.300239,1.49033e-05,0
0.3,8.2,0,0.300104,2.28944e-05,0
0.3,8.3,0,0.300179,1.90983e-05,0
0.3,8.4,0,0.300195,1.85341e-05,0
0.3,8.5,0,0.30006,2.76214e-05,0
0.3,8.6,0,0.300163,1.68952e-05,0
0.3,8.7,0,0.300009,3.84061e-05,0
0.3,8.8,0,0.300111,1.26256e-05,0
0.3,8.9,0,0.300062,2.75907e-05,0
0.3,9,0,0.300046,1.24705e-05,0
0.3,9.1,0,0.300056,4.74522e-06,0
0.3,9.2,0,0.300008,3.11799e-05,0
0.3,9.3,0,0.300002,-6.26664e-06,0
0.3,9.4,0,0.300015,4.68844e-05,0
0.3,9.5,0,0.299955,-1.95577e-05,0
0.3,9.6,0,0.29998,1.16862e-05,0
0.3,9.7,0,0.299943,-9.74517e-06,0
0.3,9.8,0,0.299916,-3.40426e-05,0
0.3,9.9,0,0.299985,3.3663e-05,0
0.3,10,0,0.299889,-4.86916e-05,0
0.3,10.1,0,0.299993,4.42113e-05,0
0.3,10.2,0,0.299873,-6.25436e-05,0
0.3,10.3,0,0.29992,-1.90176e-05,0
0.3,10.4,0,0.299917,-2.72898e-05,0
0.3,10.5,0,0.299869,-7.48213e-05,0
0.3,10.6,0,0.299985,4.14068e-05,0
0.3,10.7,0,0.299873,-8.49878e-05,0
0.3,10.8,0,0.299973,3.22111e-05,0
0.3,10.9,0,0.299885,-9.27581e-05,0
0.3,11,0,0.299916,-4.88111e-05,0
0.3,11.1,0,0.299942,-2.91566e-05,0
0.3,11.2,0,0.299901,-9.80716e-05,0
0.3,11.3,0,0.299991,5.40361e-05,0
0.3,11.4,0,0.299921,-0.000101043,0
0.3,11.5,0,0.299972,1.83892e-05,0
0.3,11.6,0,0.299941,-0.000101912,0
0.3,11.7,0,0.299951,-6.71358e-05,0
0.3,11.8,0,0.299976,-1.77069e-05,0
0.3,11.9,0,0.299959,-0.000101013,0
0.3,12,0,0.299991,6.80641e-05,0
0.3,12.1,0,0.299973,-9.86368e-05,0
0.3,12.2,0,0.299984,7.95065e-06,0
0.3,12.3,0,0.299984,-8.47867e-05,0
0.3,12.4,0,0.299984,-7.29853e-05,0
0.3,12.5,0,0.299989,1.99548e-07,0
0.3,12.6,0,0.299987,-0.000105278,0
0.3,12.7,0,0.299985,3.89924e-05,0
0.4,0,0,0.3,-0.000100956,0
0.4,0.1,0,0.300004,-6.00255e-05,0
0.4,0.2,0,0.300006,-3.77221e-05,0
0.4,0.3,0,0.3,-7.1942e-05,0
0.4,0.4,0,0.299999,-7.08966e-05,0
0.4,0.5,0,0.300003,-3.44952e-05,0
0.4,0.6,0,0.300001,-5.20619e-05,0
0.4,0.7,0,0.299996,-8.91472e-05,0
0.4,0.8,0,0.299999,-4.89576e-05,0
0.4,0.9,0,0.300001,-2.99204e-05,0
0.4,1,0,0.299997,-6.85219e-05,0
0.4,1.1,0,0.299995,-6.63997e-05,0
0.4,1.2,0,0.299997,-2.36653e-05,0
0.4,1.3,0,0.299996,-4.40671e-05,0
0.4,1.4,0,0.299993,-8.71373e-05,0
0.4,1.5,0,0.299994,-3.88085e-05,0
0.4,1.6,0,0.299994,-1.59159e-05,0
0.4,1.7,0,0.299993,-6.1908e-05,0
0.4,1.8,0,0.299992,-5.88965e-05,0
0.4,1.9,0,0.299991,-7.03981e-06,0
0.4,2,0,0.299991,-3.16054e-05,0
0.4,2.1,0,0.299991,-8.34662e-05,0
0.4,2.2,0,0.299987,-2.50342e-05,0
0.4,2.3,0,0.299986,2.64411e-06,0
0.4,2.4,0,0.299989,-5.25622e-05,0
0.4,2.5,0,0.299987,-4.91651e-05,0
0.4,2.6,0,0.29998,1.26568e-05,0
0.4,2.7,0,0.299983,-1.64318e-05,0
0.4,2.8,0,0.29999,-7.7841e-05,0
0.4,2.9,0,0.299978,-9.88031e-06,0
0.4,3,0,0.299972,2.23116e-05,0
0.4,3.1,0,0.299984,-4.14699e-05,0
0.4,3.2,0,0.299981,-3.85629e-05,0
0.4,3.3,0,0.299962,3.08797e-05,0
0.4,3.4,0,0.299972,-1.54386e-06,0
0.4,3.5,0,0.299992,-6.99935e-05,0
0.4,3.6,0,0.299962,2.91923e-06,0
0.4,3.7,0,0.299949,3.74568e-05,0
0.4,3.8,0,0.299978,-3.02827e-05,0
0.4,3.9,0,0.299973,-2.90773e-05,0
0.4,4,0,0.299933,4.10095e-05,0
0.4,4.1,0,0.299954,8.75818e-06,0
0.4,4.2,0,0.299996,-5.9328e-05,0
0.4,4.3,0,0.299943,8.40366e-06,0
0.4,4.4,0,0.299917,4.04871e-05,0
0.4,4.5,0,0.299972,-2.10412e-05,0
0.4,4.6,0,0.299968,-2.28884e-05,0
0.4,4.7,0,0.299905,3.50426e-05,0
0.4,4.8,0,0.299937,9.35842e-06,0
0.4,4.9,0,0.300004,-4.48638e-05,0
0.4,5,0,0.299934,2.11613e-06,0
0.4,5.1,0,0.299901,2.43698e-05,0
0.4,5.2,0,0.299971,-1.54805e-05,0
0.4,5.3,0,0.299975,-2.06906e-05,0
0.4,5.4,0,0.299915,9.01389e-06,0
0.4,5.5,0,0.299944,-2.20524e-06,0
0.4,5.6,0,0.300007,-2.58901e-05,0
0.4,5.7,0,0.29997,-1.43911e-05,0
0.4,5.8,0,0.299952,-8.94425e-06,0
0.4,5.9,0,0.299986,-1.28482e-05,0
0.4,6,0,0.300007,-1.88021e-05,0
0.4,6.1,0,0.300015,-2.64925e-05,0
0.4,6.2,0,0.300009,-1.90273e-05,0
0.4,6.3,0,0.299996,-3.2672e-06,0
0.4,6.4,0,0.300067,-2.80339e-05,0
0.4,6.5,0,0.3001,-3.97655e-05,0
0.4,6.6,0,0.300025,-7.69075e-06,0
0.4,6.7,0,0.300056,-1.07483e-05,0
0.4,6.8,0,0.300193,-4.87771e-05,0
0.4,6.9,0,0.300124,-2.75101e-05,0
0.4,7,0,0.299977,1.73868e-05,0
0.4,7.1,0,0.299973,2.05301e-05,0
0.4,7.2,0,0.299971,2.20687e-05,0
0.4,7.3,0,0.299969,2.35636e-05,0
0.4,7.4,0,0.299968,2.50757e-05,0
0.4,7.5,0,0.299967,2.65946e-05,0
0.4,7.6,0,0.299966,2.81185e-05,0
0.4,7.7,0,0.299967,2.96484e-05,0
0.4,7.8,0,0.299968,3.11837e-05,0
0.4,7.9,0,0.299969,3.27722e-05,0
0.4,8,0,0.299972,3.52285e-05,0
0.4,8.1,0,0.300318,1.98711e-05,0
0.4,8.2,0,0.300099,3.29035e-05,0
0.4,8.3,0,0.300174,2.91074e-05,0
0.4,8.4,0,0.300192,3.01674e-05,0
0.4,8.5,0,0.300057,3.92548e-05,0
0.4,8.6,0,0.300217,2.2527e-05,0
0.4,8.7,0,0.300008,5.17261e-05,0
0.4,8.8,0,0.300141,1.82882e-05,0
0.4,8.9,0,0.300064,4.26202e-05,0
0.4,9,0,0.300048,2.74999e-05,0
0.4,9.1,0,0.30006,2.09961e-05,0
0.4,9.2,0,0.300012,4.79144e-05,0
0.4,9.3,0,0.300003,-8.35552e-06,0
0.4,9.4,0,0.30002,6.52718e-05,0
0.4,9.5,0,0.299947,-1.70682e-05,0
0.4,9.6,0,0.299987,3.16258e-05,0
0.4,9.7,0,0.299949,1.01944e-05,0
0.4,9.8,0,0.299915,-2.03462e-05,0
0.4,9.9,0,0.299992,5.50117e-05,0
0.4,10,0,0.299852,-6.49221e-05,0
0.4,10.1,0,0.3,6.67935e-05,0
0.4,10.2,0,0.299858,-5.89043e-05,0
0.4,10.3,0,0.299926,4.60675e-06,0
0.4,10.4,0,0.299923,-3.66542e-06,0
0.4,10.5,0,0.299852,-7.18995e-05,0
0.4,10.6,0,0.29999,6.58824e-05,0
0.4,10.7,0,0.299831,-0.000113317,0
0.4,10.8,0,0.299976,5.73609e-05,0
0.4,10.9,0,0.299879,-8.07308e-05,0
0.4,11,0,0.299918,-2.31412e-05,0
0.4,11.1,0,0.299944,-3.48672e-06,0
0.4,11.2,0,0.299881,-0.000109511,0
0.4,11.3,0,0.299991,8.00987e-05,0
0.4,11.4,0,0.299895,-0.000134723,0
0.4,11.5,0,0.299971,4.47436e-05,0
0.4,11.6,0,0.299939,-7.74831e-05,0
0.4,11.7,0,0.299949,-4.05699e-05,0
0.4,11.8,0,0.299974,8.85905e-06,0
0.4,11.9,0,0.299947,-0.000125051,0
0.4,12,0,0.299989,9.47665e-05,0
0.4,12.1,0,0.299965,-0.000131516,0
0.4,12.2,0,0.299981,3.47099e-05,0
0.4,12.3,0,0.299981,-5.80274e-05,0
0.4,12.4,0,0.299981,-4.61965e-05,0
0.4,12.5,0,0.299986,2.69884e-05,0
0.4,12.6,0,0.299984,-0.000128774,0
0.4,12.7,0,0.299982,7.21778e-05,0
0.5,0,0,0.299999,-0.000121349,0
0.5,0.1,0,0.300003,-8.04183e-05,0
0.5,0.2,0,0.300005,-5.90448e-05,0
0.5,0.3,0,0.3,-9.43393e-05,0
0.5,0.4,0,0.299999,-9.32939e-05,0
0.5,0.5,0,0.300003,-5.59086e-05,0
0.5,0.6,0,0.3,-7.43487e-05,0
0.5,0.7,0,0.299995,-0.000111434,0
0.5,0.8,0,0.299998,-7.12444e-05,0
0.5,0.9,0,0.3,-5.09632e-05,0
0.5,1,0,0.299995,-9.0608e-05,0
0.5,1.1,0,0.299994,-8.84858e-05,0
0.5,1.2,0,0.299996,-4.45964e-05,0
0.5,1.3,0,0.299994,-6.58514e-05,0
0.5,1.4,0,0.299991,-0.000108922,0
0.5,1.5,0,0.299992,-6.05928e-05,0
0.5,1.6,0,0.299992,-3.60542e-05,0
0.5,1.7,0,0.299991,-8.32894e-05,0
0.5,1.8,0,0.29999,-8.02779e-05,0
0.5,1.9,0,0.299989,-2.70197e-05,0
0.5,2,0,0.299989,-5.2472e-05,0
0.5,2.1,0,0.299989,-0.000104333,0
0.5,2.2,0,0.299985,-4.59008e-05,0
0.5,2.3,0,0.299983,-1.60917e-05,0
0.5,2.4,0,0.299986,-7.27901e-05,0
0.5,2.5,0,0.299984,-6.93929e-05,0
0.5,2.6,0,0.299977,-5.90023e-06,0
0.5,2.7,0,0.299981,-3.5892e-05,0
0.5,2.8,0,0.299988,-9.73012e-05,0
0.5,2.9,0,0.299976,-2.93405e-05,0
0.5,3,0,0.29997,5.47976e-06,0
0.5,3.1,0,0.299982,-6.00256e-05,0
0.5,3.2,0,0.299979,-5.71185e-05,0
0.5,3.3,0,0.299959,1.42008e-05,0
0.5,3.4,0,0.299969,-1.90422e-05,0
0.5,3.5,0,0.299989,-8.74919e-05,0
0.5,3.6,0,0.29996,-1.45792e-05,0
0.5,3.7,0,0.299946,2.30207e-05,0
0.5,3.8,0,0.299977,-4.65496e-05,0
0.5,3.9,0,0.299971,-4.53442e-05,0
0.5,4,0,0.299931,2.66368e-05,0
0.5,4.1,0,0.299953,-6.07382e-06,0
0.5,4.2,0,0.299996,-7.416e-05,0
0.5,4.3,0,0.299942,-6.42833e-06,0
0.5,4.4,0,0.299916,2.89908e-05,0
0.5,4.5,0,0.299972,-3.42004e-05,0
0.5,4.6,0,0.299968,-3.60476e-05,0
0.5,4.7,0,0.299903,2.34491e-05,0
0.5,4.8,0,0.299937,-1.85752e-06,0
0.5,4.9,0,0.300004,-5.60797e-05,0
0.5,5,0,0.299935,-9.09981e-06,0
0.5,5.1,0,0.299901,1.64608e-05,0
0.5,5.2,0,0.299972,-2.44666e-05,0
0.5,5.3,0,0.299977,-2.96766e-05,0
0.5,5.4,0,0.299915,8.30668e-07,0
0.5,5.5,0,0.299946,-8.67776e-06,0
0.5,5.6,0,0.300008,-3.23626e-05,0
0.5,5.7,0,0.299971,-2.08636e-05,0
0.5,5.8,0,0.299952,-1.2552e-05,0
0.5,5.9,0,0.299987,-1.65614e-05,0
0.5,6,0,0.300008,-2.25153e-05,0
0.5,6.1,0,0.300016,-3.04136e-05,0
0.5,6.2,0,0.300008,-1.98441e-05,0
0.5,6.3,0,0.299996,-4.084e-06,0
0.5,6.4,0,0.300066,-2.88507e-05,0
0.5,6.5,0,0.300099,-3.84373e-05,0
0.5,6.6,0,0.300022,-5.49574e-06,0
0.5,6.7,0,0.300053,-8.55325e-06,0
0.5,6.8,0,0.300193,-4.76099e-05,0
0.5,6.9,0,0.300118,-2.31634e-05,0
0.5,7,0,0.299972,2.17335e-05,0
0.5,7.1,0,0.299966,2.56626e-05,0
0.5,7.2,0,0.299964,2.75858e-05,0
0.5,7.3,0,0.299961,2.94545e-05,0
0.5,7.4,0,0.299959,3.13446e-05,0
0.5,7.5,0,0.299958,3.32433e-05,0
0.5,7.6,0,0.299958,3.51481e-05,0
0.5,7.7,0,0.299959,3.70605e-05,0
0.5,7.8,0,0.29996,3.89796e-05,0
0.5,7.9,0,0.299962,4.09653e-05,0
0.5,8,0,0.299965,4.40356e-05,0
0.5,8.1,0,0.300315,2.85148e-05,0
0.5,8.2,0,0.300093,4.29126e-05,0
0.5,8.3,0,0.300169,3.91165e-05,0
0.5,8.4,0,0.300189,4.18007e-05,0
0.5,8.5,0,0.300054,5.08881e-05,0
0.5,8.6,0,0.30023,3.39658e-05,0
0.5,8.7,0,0.300008,6.50462e-05,0
0.5,8.8,0,0.300141,3.16082e-05,0
0.5,8.9,0,0.300066,5.76496e-05,0
0.5,9,0,0.30005,4.25294e-05,0
0.5,9.1,0,0.300064,3.77306e-05,0
0.5,9.2,0,0.300016,6.46489e-05,0
0.5,9.3,0,0.300006,8.82878e-07,0
0.5,9.4,0,0.300026,8.36591e-05,0
0.5,9.5,0,0.299952,1.31915e-06,0
0.5,9.6,0,0.299993,5.15653e-05,0
0.5,9.7,0,0.299956,3.0134e-05,0
0.5,9.8,0,0.299922,1.00255e-06,0
0.5,9.9,0,0.299999,7.63605e-05,0
0.5,10,0,0.299837,-6.193e-05,0
0.5,10.1,0,0.300006,8.93757e-05,0
0.5,10.2,0,0.299865,-3.63221e-05,0
0.5,10.3,0,0.299932,2.82311e-05,0
0.5,10.4,0,0.299929,1.99589e-05,0
0.5,10.5,0,0.299857,-4.74239e-05,0
0.5,10.6,0,0.299995,9.03581e-05,0
0.5,10.7,0,0.299812,-0.000115143,0
0.5,10.8,0,0.299979,8.25108e-05,0
0.5,10.9,0,0.299882,-5.5581e-05,0
0.5,11,0,0.29992,2.52867e-06,0
0.5,11.1,0,0.299946,2.21832e-05,0
0.5,11.2,0,0.299881,-8.34484e-05,0
0.5,11.3,0,0.299992,0.000106161,0
0.5,11.4,0,0.299883,-0.000135355,0
0.5,11.5,0,0.299971,7.1098e-05,0
0.5,11.6,0,0.299939,-5.11287e-05,0
0.5,11.7,0,0.299948,-1.4004e-05,0
0.5,11.8,0,0.299972,3.5425e-05,0
0.5,11.9,0,0.299945,-9.83482e-05,0
0.5,12,0,0.299987,0.000121469,0
0.5,12.1,0,0.299961,-0.000119392,0
0.5,12.2,0,0.299978,6.14692e-05,0
0.5,12.3,0,0.299978,-3.12681e-05,0
0.5,12.4,0,0.299978,-1.94077e-05,0
0.5,12.5,0,0.299983,5.37772e-05,0
0.5,12.6,0,0.299981,-9.80001e-05,0
0.5,12.7,0,0.29998,0.000105363,0
0.6,0,0,0.299998,-0.000141742,0
0.6,0.1,0,0.300003,-0.000100811,0
0.6,0.2,0,0.300004,-8.88932e-05,0
0.6,0.3,0,0.299999,-0.000116737,0
0.6,0.4,0,0.299998,-0.000115691,0
0.6,0.5,0,0.300001,-8.61134e-05,0
0.6,0.6,0,0.299999,-9.66355e-05,0
0.6,0.7,0,0.299994,-0.000133721,0
0.6,0.8,0,0.299997,-9.35312e-05,0
0.6,0.9,0,0.299997,-8.15103e-05,0
0.6,1,0,0.299994,-0.000112694,0
0.6,1.1,0,0.299993,-0.000110572,0
0.6,1.2,0,0.299994,-7.575e-05,0
0.6,1.3,0,0.299993,-8.76357e-05,0
0.6,1.4,0,0.29999,-0.000130706,0
0.6,1.5,0,0.29999,-8.23772e-05,0
0.6,1.6,0,0.29999,-6.76101e-05,0
0.6,1.7,0,0.299989,-0.000104671,0
0.6,1.8,0,0.299988,-0.000101659,0
0.6,1.9,0,0.299987,-5.93191e-05,0
0.6,2,0,0.299986,-7.33385e-05,0
0.6,2.1,0,0.299987,-0.000125199,0
0.6,2.2,0,0.299983,-6.67673e-05,0
0.6,2.3,0,0.299982,-4.8621e-05,0
0.6,2.4,0,0.299984,-9.30179e-05,0
0.6,2.5,0,0.299982,-8.96208e-05,0
0.6,2.6,0,0.299976,-3.90563e-05,0
0.6,2.7,0,0.299978,-5.53523e-05,0
0.6,2.8,0,0.299985,-0.000116761,0
0.6,2.9,0,0.299973,-4.88008e-05,0
0.6,3,0,0.29997,-2.73834e-05,0
0.6,3.1,0,0.29998,-7.85812e-05,0
0.6,3.2,0,0.299976,-7.56742e-05,0
0.6,3.3,0,0.299961,-1.87652e-05,0
0.6,3.4,0,0.299967,-3.65406e-05,0
0.6,3.5,0,0.299987,-0.00010499,0
0.6,3.6,0,0.299958,-3.20775e-05,0
0.6,3.7,0,0.299951,-8.59632e-06,0
0.6,3.8,0,0.299975,-6.28166e-05,0
0.6,3.9,0,0.29997,-6.16112e-05,0
0.6,4,0,0.299938,-3.96408e-06,0
0.6,4.1,0,0.299952,-2.09058e-05,0
0.6,4.2,0,0.299995,-8.8992e-05,0
0.6,4.3,0,0.299941,-2.12603e-05,0
0.6,4.4,0,0.299927,1.57231e-06,0
0.6,4.5,0,0.299972,-4.73596e-05,0
0.6,4.6,0,0.299968,-4.92068e-05,0
0.6,4.7,0,0.299917,-1.12528e-06,0
0.6,4.8,0,0.299938,-1.30735e-05,0
0.6,4.9,0,0.300005,-6.72957e-05,0
0.6,5,0,0.299936,-2.03158e-05,0
0.6,5.1,0,0.299917,-2.4158e-06,0
0.6,5.2,0,0.299974,-3.34526e-05,0
0.6,5.3,0,0.299978,-3.86627e-05,0
0.6,5.4,0,0.29993,-1.31417e-05,0
0.6,5.5,0,0.299948,-1.51503e-05,0
0.6,5.6,0,0.30001,-3.88351e-05,0
0.6,5.7,0,0.299973,-2.73362e-05,0
0.6,5.8,0,0.299961,-1.8686e-05,0
0.6,5.9,0,0.299988,-2.02746e-05,0
0.6,6,0,0.300009,-2.62285e-05,0
0.6,6.1,0,0.300014,-3.08089e-05,0
0.6,6.2,0,0.300007,-2.06609e-05,0
0.6,6.3,0,0.299995,-4.9008e-06,0
0.6,6.4,0,0.300065,-2.96675e-05,0
0.6,6.5,0,0.300081,-3.10283e-05,0
0.6,6.6,0,0.300018,-3.30072e-06,0
0.6,6.7,0,0.30005,-6.35824e-06,0
0.6,6.8,0,0.300159,-3.59629e-05,0
0.6,6.9,0,0.300112,-1.88167e-05,0
0.6,7,0,0.299966,2.60802e-05,0
0.6,7.1,0,0.29996,3.07951e-05,0
0.6,7.2,0,0.299956,3.3103e-05,0
0.6,7.3,0,0.299953,3.53454e-05,0
0.6,7.4,0,0.299951,3.76135e-05,0
0.6,7.5,0,0.29995,3.98919e-05,0
0.6,7.6,0,0.29995,4.21777e-05,0
0.6,7.7,0,0.29995,4.44726e-05,0
0.6,7.8,0,0.299952,4.67755e-05,0
0.6,7.9,0,0.299954,4.91583e-05,0
0.6,8,0,0.299958,5.28427e-05,0
0.6,8.1,0,0.300262,4.00571e-05,0
0.6,8.2,0,0.300088,5.29217e-05,0
0.6,8.3,0,0.300163,4.91256e-05,0
0.6,8.4,0,0.300185,5.3434e-05,0
0.6,8.5,0,0.300051,6.25214e-05,0
0.6,8.6,0,0.300187,5.17551e-05,0
0.6,8.7,0,0.300007,7.83662e-05,0
0.6,8.8,0,0.300128,4.86119e-05,0
0.6,8.9,0,0.300067,7.2679e-05,0
0.6,9,0,0.300051,5.75588e-05,0
0.6,9.1,0,0.300068,5.44651e-05,0
0.6,9.2,0,0.30002,8.13834e-05,0
0.6,9.3,0,0.300015,3.70924e-05,0
0.6,9.4,0,0.300031,0.000102046,0
0.6,9.5,0,0.299961,2.33657e-05,0
0.6,9.6,0,0.3,7.15049e-05,0
0.6,9.7,0,0.299962,5.00735e-05,0
0.6,9.8,0,0.299928,2.23513e-05,0
0.6,9.9,0,0.300006,9.77092e-05,0
0.6,10,0,0.299887,-1.76847e-06,0
0.6,10.1,0,0.300013,0.000111958,0
0.6,10.2,0,0.299871,-1.37399e-05,0
0.6,10.3,0,0.299937,5.18555e-05,0
0.6,10.4,0,0.299934,4.35833e-05,0
0.6,10.5,0,0.299861,-2.29482e-05,0
0.6,10.6,0,0.299999,0.000114834,0
0.6,10.7,0,0.299862,-3.71888e-05,0
0.6,10.8,0,0.299983,0.000107661,0
0.6,10.9,0,0.299885,-3.04312e-05,0
0.6,11,0,0.299922,2.81986e-05,0
0.6,11.1,0,0.299948,4.78531e-05,0
0.6,11.2,0,0.299886,-4.93147e-05,0
0.6,11.3,0,0.299992,0.000132224,0
0.6,11.4,0,0.299908,-5.24502e-05,0
0.6,11.5,0,0.29997,9.74523e-05,0
0.6,11.6,0,0.299938,-2.47744e-05,0
0.6,11.7,0,0.299946,1.25619e-05,0
0.6,11.8,0,0.29997,6.19909e-05,0
0.6,11.9,0,0.299946,-5.11395e-05,0
0.6,12,0,0.299984,0.000148171,0
0.6,12.1,0,0.299963,-4.8278e-05,0
0.6,12.2,0,0.299975,8.82285e-05,0
0.6,12.3,0,0.299975,-4.50881e-06,0
0.6,12.4,0,0.299975,7.38118e-06,0
0.6,12.5,0,0.29998,8.05661e-05,0
0.6,12.6,0,0.299978,-3.75328e-05,0
0.6,12.7,0,0.299977,0.000138549,0
0.7,0,0,0.299997,-0.000162135,0
0.7,0.1,0,0.300002,-0.000124428,0
0.7,0.2,0,0.300001,-0.00012433,0
0.7,0.3,0,0.299998,-0.000139134,0
0.7,0.4,0,0.299997,-0.000138089,0
0.7,0.5,0,0.299999,-0.000122174,0
0.7,0.6,0,0.299998,-0.000121874,0
0.7,0.7,0,0.299993,-0.000156008,0
0.7,0.8,0,0.299996,-0.000118948,0
0.7,0.9,0,0.299995,-0.000118403,0
0.7,1,0,0.299992,-0.00013478,0
0.7,1.1,0,0.299991,-0.000132658,0
0.7,1.2,0,0.299992,-0.000113704,0
0.7,1.3,0,0.299991,-0.000112885,0
0.7,1.4,0,0.299988,-0.00015249,0
0.7,1.5,0,0.299988,-0.000107891,0
0.7,1.6,0,0.299988,-0.000106797,0
0.7,1.7,0,0.299987,-0.000126052,0
0.7,1.8,0,0.299986,-0.000123041,0
0.7,1.9,0,0.299985,-9.98071e-05,0
0.7,2,0,0.299984,-9.84097e-05,0
0.7,2.1,0,0.299985,-0.000146066,0
0.7,2.2,0,0.299981,-9.211e-05,0
0.7,2.3,0,0.299981,-9.03764e-05,0
0.7,2.4,0,0.299982,-0.000113246,0
0.7,2.5,0,0.29998,-0.000109849,0
0.7,2.6,0,0.299977,-8.19086e-05,0
0.7,2.7,0,0.299976,-7.98251e-05,0
0.7,2.8,0,0.299983,-0.000136222,0
0.7,2.9,0,0.299972,-7.34325e-05,0
0.7,3,0,0.299972,-7.09772e-05,0
0.7,3.1,0,0.299977,-9.71368e-05,0
0.7,3.2,0,0.299974,-9.42298e-05,0
0.7,3.3,0,0.299966,-6.25392e-05,0
0.7,3.4,0,0.299967,-5.96695e-05,0
0.7,3.5,0,0.299985,-0.000122489,0
0.7,3.6,0,0.299959,-5.50683e-05,0
0.7,3.7,0,0.29996,-5.17259e-05,0
0.7,3.8,0,0.299973,-7.90835e-05,0
0.7,3.9,0,0.299968,-7.78781e-05,0
0.7,4,0,0.299952,-4.53154e-05,0
0.7,4.1,0,0.299954,-4.14205e-05,0
0.7,4.2,0,0.299994,-0.000103824,0
0.7,4.3,0,0.299945,-4.10811e-05,0
0.7,4.4,0,0.299947,-3.65406e-05,0
0.7,4.5,0,0.299972,-6.05188e-05,0
0.7,4.6,0,0.299968,-6.2366e-05,0
0.7,4.7,0,0.299942,-3.42611e-05,0
0.7,4.8,0,0.299944,-2.89865e-05,0
0.7,4.9,0,0.300006,-7.85116e-05,0
0.7,5,0,0.299943,-3.47628e-05,0
0.7,5.1,0,0.299944,-2.87102e-05,0
0.7,5.2,0,0.299975,-4.24387e-05,0
0.7,5.3,0,0.29998,-4.76487e-05,0
0.7,5.4,0,0.299954,-3.08537e-05,0
0.7,5.5,0,0.299954,-2.40313e-05,0
0.7,5.6,0,0.300012,-4.53076e-05,0
0.7,5.7,0,0.299977,-3.41252e-05,0
0.7,5.8,0,0.299975,-2.66357e-05,0
0.7,5.9,0,0.299989,-2.39878e-05,0
0.7,6,0,0.30001,-2.99417e-05,0
0.7,6.1,0,0.300011,-2.87158e-05,0
0.7,6.2,0,0.300006,-2.08541e-05,0