/*--------------------------------*- C++ -*----------------------------------*\
| =========                 |                                                 |
| \\      /  F ield         | OpenFOAM: The Open Source CFD Toolbox           |
|  \\    /   O peration     | Version:  v1806                                 |
|   \\  /    A nd           | Web:      www.OpenFOAM.com                      |
|    \\/     M anipulation  |                                                 |
\*---------------------------------------------------------------------------*/
FoamFile
{
    version     2.0;
    format      ascii;
    class       volVectorField;
    location    "14";
    object      U;
}
// * * * * * * * * * * * * * * * * * * * * * * * * * * * * * * * * * * * * * //

dimensions      [0 1 -1 0 0 0 0];


internalField   nonuniform List<vector> 
5735
(
(3.02171 1.69262 0.000648594)
(3.02365 1.69422 -1.50192e-05)
(3.0239 1.69442 1.91761e-09)
(3.02365 1.69422 1.5022e-05)
(3.02171 1.69262 -0.000648599)
(2.78262 1.56385 0.00280122)
(2.78199 1.56693 -7.54538e-06)
(2.78217 1.56723 2.79887e-12)
(2.78199 1.56693 7.54572e-06)
(2.78262 1.56385 -0.00280122)
(2.71995 1.68865 0.00529501)
(2.71831 1.69057 4.306e-06)
(2.71851 1.69059 -1.97734e-09)
(2.71831 1.69057 -4.30843e-06)
(2.71995 1.68865 -0.00529501)
(2.42362 -0.170159 0.0151016)
(2.4223 -0.170659 1.09224e-05)
(2.42218 -0.170698 -2.40909e-11)
(2.4223 -0.170659 -1.09226e-05)
(2.42362 -0.170159 -0.0151016)
(2.22545 -0.0291507 0.0169567)
(2.22394 -0.0284285 1.25331e-05)
(2.22403 -0.0282122 5.77643e-12)
(2.22394 -0.0284286 -1.25333e-05)
(2.22545 -0.0291509 -0.0169567)
(2.12839 0.0613951 0.0171341)
(2.12637 0.0602027 1.2472e-05)
(2.12666 0.0600101 -1.8577e-10)
(2.12637 0.0602027 -1.24723e-05)
(2.12839 0.0613951 -0.0171341)
(2.47922 0.0941345 0.0151399)
(2.47875 0.0952751 1.01057e-05)
(2.47858 0.0954572 -5.27851e-11)
(2.47875 0.0952751 -1.01058e-05)
(2.47922 0.0941344 -0.0151399)
(2.58177 -0.186346 0.0128175)
(2.57996 -0.186591 7.64029e-06)
(2.57962 -0.186556 -1.92634e-11)
(2.57996 -0.186591 -7.64041e-06)
(2.58177 -0.186346 -0.0128175)
(2.52731 0.00958557 0.0133997)
(2.52666 0.00968046 9.86357e-06)
(2.52683 0.00972722 -5.64446e-11)
(2.52666 0.00968046 -9.86367e-06)
(2.52731 0.00958555 -0.0133997)
(2.25326 -1.41753 0.0123796)
(2.25652 -1.42374 5.58379e-06)
(2.25752 -1.42447 -7.11981e-10)
(2.25652 -1.42374 -5.58494e-06)
(2.25326 -1.41753 -0.0123796)
(2.25671 -1.5281 0.0105074)
(2.25372 -1.52903 5.6962e-06)
(2.25306 -1.52883 -9.56048e-10)
(2.25372 -1.52903 -5.69782e-06)
(2.25671 -1.5281 -0.0105074)
(2.54455 -1.61352 0.00579328)
(2.54859 -1.61629 -5.84234e-06)
(2.5495 -1.61657 -1.71284e-09)
(2.54859 -1.61629 5.83914e-06)
(2.54455 -1.61352 -0.00579328)
(2.82547 -1.88435 0.00557343)
(2.82341 -1.88216 -1.56688e-05)
(2.82181 -1.88168 1.20612e-09)
(2.82341 -1.88216 1.56714e-05)
(2.82547 -1.88435 -0.00557343)
(2.18588 -0.197007 -0.00177689)
(2.17902 -0.218817 0.000127937)
(2.1759 -0.225801 -8.24793e-09)
(2.17902 -0.218815 -0.000127953)
(2.18588 -0.197003 0.00177691)
(1.52917 -0.402662 -0.00140389)
(1.47344 -0.403062 3.62428e-05)
(1.45575 -0.402278 -2.85926e-09)
(1.47344 -0.403062 -3.62497e-05)
(1.52918 -0.402662 0.0014039)
(1.57211 0.0853558 0.00353092)
(1.57675 0.093126 5.8772e-05)
(1.57789 0.0959615 -4.35197e-09)
(1.57675 0.0931253 -5.87821e-05)
(1.57211 0.0853543 -0.00353091)
(0.413721 -0.22405 0.00222734)
(0.397375 -0.225943 -5.45165e-05)
(0.392867 -0.227311 4.85449e-09)
(0.397376 -0.225943 5.452e-05)
(0.413724 -0.22405 -0.00222735)
(0.131731 -0.185131 0.00184409)
(0.11807 -0.198648 -5.75003e-05)
(0.114096 -0.203236 3.65692e-09)
(0.118071 -0.198647 5.75025e-05)
(0.131732 -0.18513 -0.00184409)
(0.410728 -0.0529546 0.00262046)
(0.391102 -0.0580116 -4.09988e-05)
(0.386 -0.0604339 4.47467e-09)
(0.391103 -0.0580109 4.09988e-05)
(0.410731 -0.0529533 -0.00262047)
(0.98749 -0.424001 0.0264573)
(0.983073 -0.428981 2.29412e-05)
(0.984285 -0.430096 -3.90553e-10)
(0.983072 -0.42898 -2.29416e-05)
(0.98749 -0.424 -0.0264573)
(1.61945 -0.110439 0.0245098)
(1.61845 -0.108301 1.40269e-05)
(1.61835 -0.107964 -9.8513e-11)
(1.61845 -0.108301 -1.40271e-05)
(1.61945 -0.110439 -0.0245098)
(1.5521 -0.0983424 0.0222868)
(1.54908 -0.0983864 1.48345e-05)
(1.5493 -0.0986152 -8.02909e-11)
(1.54908 -0.0983863 -1.48347e-05)
(1.5521 -0.0983423 -0.0222867)
(1.65558 -0.624626 0.0228117)
(1.64744 -0.624638 1.78508e-05)
(1.64635 -0.623955 -1.31197e-10)
(1.64744 -0.624638 -1.78509e-05)
(1.65558 -0.624626 -0.0228117)
(0.654466 -0.877449 0.000212978)
(0.653966 -0.881667 -4.5735e-05)
(0.654191 -0.882862 3.95002e-10)
(0.653966 -0.881667 4.57366e-05)
(0.654466 -0.877449 -0.00021298)
(0.544062 -0.759355 -0.00108134)
(0.545223 -0.764349 -5.45032e-05)
(0.545978 -0.765765 1.65094e-10)
(0.545223 -0.764348 5.45053e-05)
(0.544062 -0.759355 0.00108133)
(0.474893 -0.798166 0.000457427)
(0.475317 -0.804524 -4.81121e-05)
(0.475783 -0.806698 -1.54594e-09)
(0.475317 -0.804523 4.81119e-05)
(0.474893 -0.798165 -0.000457425)
(3.80941 1.33237 -0.0117901)
(3.81126 1.33443 -3.13988e-05)
(3.81147 1.33464 9.63565e-09)
(3.81126 1.33443 3.14109e-05)
(3.80941 1.33237 0.0117901)
(4.16569 1.07053 -0.0139997)
(4.1683 1.07067 -2.63019e-05)
(4.16848 1.07072 3.81944e-09)
(4.1683 1.07067 2.63072e-05)
(4.16569 1.07053 0.0139997)
(3.62598 1.7582 -0.0118908)
(3.62885 1.75816 -2.24513e-05)
(3.62915 1.75811 1.96514e-08)
(3.62885 1.75816 2.24706e-05)
(3.62598 1.7582 0.0118907)
(4.06549 -0.427802 -0.0120511)
(4.066 -0.427153 2.413e-05)
(4.06517 -0.427893 -2.06617e-09)
(4.066 -0.427152 -2.41338e-05)
(4.06549 -0.427802 0.0120511)
(3.74838 -1.26908 -0.0117331)
(3.748 -1.2658 3.748e-05)
(3.74713 -1.26522 -3.44243e-09)
(3.748 -1.2658 -3.74861e-05)
(3.74838 -1.26908 0.0117331)
(3.99885 -0.50742 -0.00969545)
(3.99468 -0.506341 3.83834e-05)
(3.99343 -0.505936 -2.45581e-09)
(3.99468 -0.506341 -3.8388e-05)
(3.99885 -0.50742 0.00969546)
(2.46088 -0.455027 0.0134063)
(2.45855 -0.455432 9.46505e-06)
(2.45822 -0.455369 4.50426e-11)
(2.45855 -0.455432 -9.46508e-06)
(2.46088 -0.455027 -0.0134063)
(2.61174 -0.263199 0.0123066)
(2.61155 -0.263728 8.02082e-06)
(2.61167 -0.26379 -2.48922e-11)
(2.61155 -0.263728 -8.02097e-06)
(2.61174 -0.263199 -0.0123066)
(2.6146 -0.335691 0.0116936)
(2.61352 -0.335784 8.04611e-06)
(2.61341 -0.335727 -4.80435e-11)
(2.61352 -0.335784 -8.04625e-06)
(2.6146 -0.335691 -0.0116936)
(0.285604 -0.466773 0.000738558)
(0.278728 -0.474931 -6.80635e-05)
(0.276512 -0.478074 3.55468e-09)
(0.278729 -0.47493 6.80685e-05)
(0.285605 -0.466773 -0.000738567)
(0.240184 -0.415181 0.00124273)
(0.233341 -0.425153 -6.20439e-05)
(0.231248 -0.428844 2.37286e-09)
(0.233342 -0.425152 6.20472e-05)
(0.240185 -0.41518 -0.00124274)
(0.57873 -0.339113 0.00213983)
(0.575392 -0.341034 -3.33453e-05)
(0.574516 -0.341719 1.20415e-10)
(0.575392 -0.341034 3.33458e-05)
(0.57873 -0.339113 -0.00213983)
(0.4944 -0.386863 0.00167561)
(0.490447 -0.389188 -4.08733e-05)
(0.489354 -0.390162 2.44954e-10)
(0.490447 -0.389188 4.08744e-05)
(0.4944 -0.386862 -0.00167561)
(0.260619 -0.568896 0.00118516)
(0.25888 -0.577126 -6.18342e-05)
(0.258661 -0.580162 -1.98578e-10)
(0.25888 -0.577125 6.18349e-05)
(0.260619 -0.568895 -0.00118516)
(0.260789 -0.545924 0.00108432)
(0.256269 -0.552834 -5.78783e-05)
(0.254905 -0.555468 1.19839e-10)
(0.256269 -0.552834 5.78786e-05)
(0.26079 -0.545923 -0.00108432)
(0.159246 -0.301833 0.00161936)
(0.153048 -0.313861 -5.98588e-05)
(0.151226 -0.31817 2.55186e-09)
(0.153048 -0.313861 5.98623e-05)
(0.159247 -0.301831 -0.00161937)
(0.088416 -0.434662 0.00132787)
(0.0828097 -0.444203 -6.78842e-05)
(0.0810981 -0.447625 1.02209e-09)
(0.08281 -0.444202 6.78867e-05)
(0.0884167 -0.434661 -0.00132787)
(0.284318 -0.47107 0.000790153)
(0.279335 -0.476767 -5.8886e-05)
(0.277777 -0.478978 2.19376e-09)
(0.279335 -0.476767 5.88893e-05)
(0.284319 -0.471069 -0.000790158)
(0.235515 -0.642289 0.00087651)
(0.23466 -0.648695 -5.63247e-05)
(0.234515 -0.651113 -1.27178e-09)
(0.23466 -0.648695 5.6324e-05)
(0.235515 -0.642288 -0.000876508)
(0.354776 -0.57332 0.00119505)
(0.351303 -0.578411 -5.32334e-05)
(0.35037 -0.580442 -8.48061e-10)
(0.351303 -0.578411 5.3232e-05)
(0.354777 -0.57332 -0.00119504)
(0.336483 -0.533534 0.00127517)
(0.332762 -0.537723 -5.06648e-05)
(0.331712 -0.539397 -4.58558e-11)
(0.332762 -0.537723 5.0665e-05)
(0.336484 -0.533534 -0.00127517)
(0.326838 -0.424306 0.00103038)
(0.321652 -0.427426 -5.11894e-05)
(0.320022 -0.428738 4.2663e-10)
(0.321653 -0.427426 5.11901e-05)
(0.326839 -0.424305 -0.00103038)
(0.337372 -0.385776 0.00112742)
(0.332368 -0.389316 -4.63995e-05)
(0.330744 -0.390703 6.89591e-10)
(0.332368 -0.389316 4.64e-05)
(0.337373 -0.385776 -0.00112742)
(0.319134 -0.447435 0.000662693)
(0.314042 -0.451252 -5.28617e-05)
(0.312415 -0.452817 2.01047e-09)
(0.314042 -0.451252 5.28644e-05)
(0.319134 -0.447434 -0.000662698)
(0.237002 -0.446321 0.000428422)
(0.230555 -0.451472 -5.8846e-05)
(0.228384 -0.453468 2.24553e-09)
(0.230555 -0.451472 5.88497e-05)
(0.237002 -0.446321 -0.000428428)
(0.487879 -0.782168 0.00101516)
(0.485625 -0.787439 -4.81204e-05)
(0.485663 -0.789319 -1.44743e-09)
(0.485625 -0.787438 4.81178e-05)
(0.487878 -0.782168 -0.00101516)
(0.222054 -0.475238 0.000105901)
(0.214505 -0.480867 -6.74847e-05)
(0.21196 -0.483153 2.04824e-09)
(0.214506 -0.480867 6.74881e-05)
(0.222054 -0.475238 -0.000105906)
(0.234521 -0.463722 0.00064515)
(0.227738 -0.469779 -6.55772e-05)
(0.225527 -0.4722 2.55703e-09)
(0.227739 -0.469779 6.55812e-05)
(0.234522 -0.463722 -0.000645157)
(0.210621 -0.485308 0.0010245)
(0.204837 -0.493075 -6.64281e-05)
(0.203085 -0.49609 2.75614e-10)
(0.204838 -0.493075 6.64285e-05)
(0.210621 -0.485307 -0.0010245)
(0.556811 -0.650782 0.00149376)
(0.554629 -0.654382 -4.63115e-05)
(0.554367 -0.655847 -2.69108e-10)
(0.554629 -0.654381 4.63114e-05)
(0.556811 -0.650781 -0.00149376)
(0.480217 -0.47354 0.00163675)
(0.476236 -0.476517 -4.32223e-05)
(0.475242 -0.477752 3.99433e-10)
(0.476236 -0.476517 4.32241e-05)
(0.480217 -0.47354 -0.00163675)
(0.266548 -0.522874 6.28434e-05)
(0.258473 -0.530098 -7.39242e-05)
(0.255696 -0.5329 2.6458e-09)
(0.258474 -0.530098 7.39286e-05)
(0.266549 -0.522874 -6.28504e-05)
(0.216671 -0.558186 -0.000832988)
(0.207571 -0.564374 -7.88124e-05)
(0.204316 -0.566805 4.80134e-10)
(0.207572 -0.564374 7.88138e-05)
(0.216672 -0.558186 0.000832987)
(0.181495 -0.479217 -0.00057909)
(0.173277 -0.484179 -6.92714e-05)
(0.170413 -0.486206 7.23016e-10)
(0.173277 -0.484179 6.92729e-05)
(0.181496 -0.479216 0.000579088)
(0.22098 -0.445533 -0.000202198)
(0.214035 -0.449936 -6.05361e-05)
(0.211621 -0.451682 9.91892e-10)
(0.214035 -0.449935 6.05381e-05)
(0.220981 -0.445533 0.000202194)
(0.246404 -0.371371 0.000257333)
(0.239793 -0.374235 -5.19865e-05)
(0.237514 -0.37541 1.39959e-09)
(0.239793 -0.374235 5.19886e-05)
(0.246405 -0.37137 -0.000257337)
(0.286979 -0.307221 0.000796381)
(0.281069 -0.309712 -4.50897e-05)
(0.279059 -0.310703 1.4375e-09)
(0.281069 -0.309712 4.50914e-05)
(0.28698 -0.307221 -0.000796384)
(0.426152 -0.259192 0.00147677)
(0.421135 -0.260804 -3.8612e-05)
(0.419522 -0.261475 4.83444e-10)
(0.421135 -0.260804 3.86131e-05)
(0.426152 -0.259192 -0.00147677)
(0.58314 -0.783033 0.00125864)
(0.581383 -0.785458 -4.26045e-05)
(0.581131 -0.78646 9.16175e-10)
(0.581383 -0.785458 4.26063e-05)
(0.58314 -0.783032 -0.00125864)
(0.590531 -0.598409 0.00172047)
(0.587842 -0.600804 -4.03352e-05)
(0.587286 -0.601742 4.44853e-10)
(0.587842 -0.600804 4.03364e-05)
(0.590531 -0.598408 -0.00172047)
(0.585118 -0.458819 0.00203944)
(0.581949 -0.461081 -3.6941e-05)
(0.581232 -0.46191 -1.44448e-10)
(0.581949 -0.461081 3.69423e-05)
(0.585118 -0.458818 -0.00203944)
(0.513407 -0.208872 0.00201854)
(0.509576 -0.209652 -3.1994e-05)
(0.50842 -0.209954 8.4135e-10)
(0.509576 -0.209652 3.19958e-05)
(0.513408 -0.208872 -0.00201854)
(0.358539 -0.338523 0.00145897)
(0.34727 -0.34476 -6.26533e-05)
(0.343774 -0.34739 4.28657e-09)
(0.347271 -0.344759 6.26581e-05)
(0.358541 -0.338523 -0.00145898)
(0.328828 -0.417155 0.000847404)
(0.318688 -0.425015 -7.21259e-05)
(0.315403 -0.428211 4.4454e-09)
(0.318689 -0.425015 7.21327e-05)
(0.32883 -0.417154 -0.000847415)
(0.310795 -0.52118 4.61197e-06)
(0.301504 -0.529225 -8.09221e-05)
(0.298333 -0.532498 1.36837e-09)
(0.301505 -0.529224 8.09256e-05)
(0.310796 -0.52118 -4.61682e-06)
(0.241003 -0.618028 -0.00109852)
(0.230971 -0.625428 -8.90151e-05)
(0.227462 -0.628467 -6.02875e-10)
(0.230971 -0.625428 8.90154e-05)
(0.241004 -0.618027 0.00109852)
(0.144843 -0.707425 -0.00251461)
(0.133698 -0.713867 -9.66104e-05)
(0.129638 -0.716495 -1.48088e-09)
(0.133698 -0.713867 9.66095e-05)
(0.144844 -0.707425 0.00251461)
(0.118633 -0.592444 -0.00194275)
(0.108603 -0.59754 -8.32454e-05)
(0.104924 -0.599562 -1.22204e-09)
(0.108604 -0.59754 8.32442e-05)
(0.118634 -0.592444 0.00194275)
(0.109679 -0.490005 -0.0014314)
(0.100784 -0.494003 -7.06754e-05)
(0.097578 -0.495648 -3.63942e-12)
(0.100784 -0.494003 7.06751e-05)
(0.10968 -0.490005 0.0014314)
(0.12937 -0.408581 -0.000891381)
(0.121329 -0.411764 -6.03713e-05)
(0.118449 -0.413042 1.22784e-09)
(0.12133 -0.411764 6.03728e-05)
(0.129371 -0.408581 0.000891378)
(0.175077 -0.311873 -0.00033943)
(0.16809 -0.313997 -5.23554e-05)
(0.16561 -0.314878 2.01825e-09)
(0.16809 -0.313997 5.23585e-05)
(0.175077 -0.311872 0.000339425)
(0.21989 -0.248144 0.000239574)
(0.213589 -0.250015 -4.56454e-05)
(0.211381 -0.25077 1.77476e-09)
(0.213589 -0.250015 4.56482e-05)
(0.21989 -0.248143 -0.000239579)
(0.336125 -0.151433 0.000966304)
(0.33034 -0.152315 -3.92245e-05)
(0.32836 -0.152698 3.34771e-10)
(0.330341 -0.152315 3.92258e-05)
(0.336126 -0.151433 -0.000966305)
(0.442737 -0.0784091 0.00155631)
(0.438428 -0.0787621 -3.29112e-05)
(0.436988 -0.0789093 6.3731e-10)
(0.438428 -0.0787621 3.29129e-05)
(0.442738 -0.078409 -0.00155631)
(0.333013 -0.293673 0.00194175)
(0.318452 -0.295285 -6.25216e-05)
(0.314218 -0.29628 4.32853e-09)
(0.318453 -0.295285 6.25264e-05)
(0.333015 -0.293673 -0.00194176)
(0.67974 0.047012 0.00241939)
(0.676332 0.0475848 -2.89573e-05)
(0.675176 0.0477976 9.57753e-10)
(0.676332 0.0475848 2.89587e-05)
(0.67974 0.0470121 -0.0024194)
(0.720414 -0.116747 0.0028016)
(0.717392 -0.117317 -2.72543e-05)
(0.7164 -0.117508 1.28521e-09)
(0.717391 -0.117317 2.72554e-05)
(0.720414 -0.116747 -0.0028016)
(0.774201 -0.274063 0.00302593)
(0.772122 -0.275762 -2.74971e-05)
(0.771454 -0.27637 7.55167e-10)
(0.772122 -0.275761 2.74981e-05)
(0.774201 -0.274063 -0.00302593)
(0.761321 -0.424466 0.00293568)
(0.759985 -0.426297 -3.02382e-05)
(0.759547 -0.42711 1.42564e-09)
(0.759985 -0.426297 3.02413e-05)
(0.761321 -0.424465 -0.00293569)
(0.759968 -0.608515 0.0026341)
(0.759178 -0.610108 -3.27329e-05)
(0.758939 -0.610974 2.2668e-09)
(0.759178 -0.610108 3.27366e-05)
(0.759968 -0.608514 -0.00263411)
(0.815536 -0.789793 0.00180091)
(0.814721 -0.791258 -3.42924e-05)
(0.814649 -0.792018 2.45174e-09)
(0.814721 -0.791258 3.42963e-05)
(0.815536 -0.789793 -0.00180091)
(0.328201 -0.285536 0.00156214)
(0.325881 -0.292781 -2.62566e-05)
(0.325212 -0.296018 3.29205e-09)
(0.325881 -0.29278 2.62588e-05)
(0.328201 -0.285535 -0.00156215)
(0.361891 -0.402644 0.00164542)
(0.360335 -0.410387 -4.6411e-05)
(0.36016 -0.413727 4.10002e-09)
(0.360335 -0.410386 4.6415e-05)
(0.361891 -0.402644 -0.00164543)
(0.443994 -0.519301 0.00113057)
(0.440169 -0.527048 -6.89482e-05)
(0.439091 -0.530271 2.26494e-09)
(0.440169 -0.527048 6.89523e-05)
(0.443995 -0.519301 -0.00113057)
(0.458699 -0.630789 0.000258843)
(0.451407 -0.638786 -8.48883e-05)
(0.448926 -0.642017 -3.13973e-10)
(0.451408 -0.638786 8.489e-05)
(0.458699 -0.630789 -0.000258844)
(0.372075 -0.744953 -0.001085)
(0.361136 -0.753464 -9.97027e-05)
(0.357178 -0.756853 -7.79798e-10)
(0.361137 -0.753464 9.97032e-05)
(0.372075 -0.744953 0.001085)
(0.231042 -0.870169 -0.00296115)
(0.218512 -0.878333 -0.000113047)
(0.213832 -0.881555 -8.19726e-10)
(0.218512 -0.878333 0.000113047)
(0.231043 -0.87017 0.00296115)
(-0.00430364 -0.964856 -0.00557979)
(-0.0174389 -0.970491 -0.000132979)
(-0.0224166 -0.972737 -5.71651e-10)
(-0.0174387 -0.970491 0.000132979)
(-0.00430314 -0.964857 0.00557979)
(-0.0542154 -0.763194 -0.0043137)
(-0.0672976 -0.7682 -0.000106149)
(-0.0721795 -0.770263 -4.49595e-10)
(-0.0672975 -0.7682 0.000106148)
(-0.0542152 -0.763194 0.0043137)
(-0.031226 -0.602021 -0.00326625)
(-0.0423949 -0.605839 -8.72782e-05)
(-0.0465662 -0.607381 -1.23953e-09)
(-0.0423947 -0.605839 8.72769e-05)
(-0.0312257 -0.602021 0.00326625)
(-0.00526609 -0.474708 -0.00242479)
(-0.0149953 -0.477586 -7.22021e-05)
(-0.0185816 -0.478782 -4.85712e-10)
(-0.0149951 -0.477585 7.22018e-05)
(-0.00526571 -0.474707 0.0024248)
(0.0354708 -0.370069 -0.0017215)
(0.027021 -0.372286 -6.01403e-05)
(0.0239288 -0.373194 1.2208e-09)
(0.0270213 -0.372285 6.01421e-05)
(0.0354713 -0.370068 0.0017215)
(0.0801629 -0.266645 -0.00107858)
(0.0726091 -0.268162 -5.24921e-05)
(0.0698633 -0.268802 2.15954e-09)
(0.0726094 -0.268162 5.24957e-05)
(0.0801634 -0.266645 0.00107858)
(0.125785 -0.174055 -0.000509746)
(0.118895 -0.175268 -4.69758e-05)
(0.116427 -0.17576 1.73613e-09)
(0.118895 -0.175268 4.69792e-05)
(0.125785 -0.174055 0.000509741)
(0.220816 -0.0584021 0.000150348)
(0.214489 -0.0586121 -4.13227e-05)
(0.212247 -0.058743 3.76111e-11)
(0.214489 -0.058612 4.13238e-05)
(0.220816 -0.0584019 -0.000150349)
(0.297552 0.0563738 0.000591)
(0.292228 0.0564488 -3.80856e-05)
(0.290372 0.0564573 -2.5688e-11)
(0.292229 0.0564488 3.8086e-05)
(0.297552 0.0563738 -0.000591)
(0.268949 -0.105704 0.00176347)
(0.260487 -0.115576 -1.31622e-06)
(0.257401 -0.119682 3.22902e-09)
(0.260487 -0.115575 1.31947e-06)
(0.268951 -0.105702 -0.00176347)
(0.524214 0.224789 0.00133807)
(0.520126 0.226295 -3.57292e-05)
(0.518694 0.22682 4.88447e-10)
(0.520126 0.226295 3.57293e-05)
(0.524214 0.224789 -0.00133807)
(2.0234 -0.384302 0.0203128)
(2.02192 -0.384486 1.24655e-05)
(2.02192 -0.384403 1.20973e-10)
(2.02192 -0.384486 -1.24654e-05)
(2.0234 -0.384302 -0.0203128)
(1.83624 -0.0489591 0.0207309)
(1.83347 -0.0472419 1.38046e-05)
(1.83339 -0.0468122 -9.36839e-11)
(1.83347 -0.047242 -1.38048e-05)
(1.83624 -0.0489593 -0.0207309)
(2.01263 -0.54645 0.0200686)
(2.01265 -0.54894 1.84837e-05)
(2.01333 -0.549258 -9.45283e-11)
(2.01265 -0.54894 -1.84835e-05)
(2.01263 -0.546449 -0.0200686)
(1.62415 0.0576626 0.0215789)
(1.62078 0.0545075 1.44603e-05)
(1.62121 0.0540319 -4.14145e-10)
(1.62078 0.0545076 -1.4461e-05)
(1.62415 0.0576628 -0.0215789)
(2.13509 0.152379 0.0193263)
(2.13394 0.154061 1.34544e-05)
(2.13363 0.154249 -2.86408e-10)
(2.13394 0.154061 -1.3455e-05)
(2.13509 0.152379 -0.0193263)
(1.89911 -0.0271425 0.0191082)
(1.89576 -0.0276746 1.22263e-05)
(1.89572 -0.0277426 -4.13867e-11)
(1.89576 -0.0276746 -1.22268e-05)
(1.89911 -0.0271425 -0.0191082)
(2.03369 -0.165876 0.0188822)
(2.03271 -0.167154 1.56467e-05)
(2.03299 -0.167364 3.62555e-11)
(2.03271 -0.167153 -1.56472e-05)
(2.03369 -0.165876 -0.0188822)
(2.22315 -0.335043 0.0179297)
(2.21871 -0.335001 1.31403e-05)
(2.21792 -0.334759 -1.53206e-11)
(2.21871 -0.335001 -1.31404e-05)
(2.22315 -0.335043 -0.0179297)
(2.4168 -0.304993 0.0171204)
(2.41772 -0.305467 1.31641e-05)
(2.41802 -0.305512 1.1993e-10)
(2.41772 -0.305467 -1.31641e-05)
(2.4168 -0.304993 -0.0171204)
(1.56382 0.52409 0.0225783)
(1.55843 0.526883 1.89836e-05)
(1.55829 0.526996 -8.9849e-10)
(1.55843 0.526883 -1.89851e-05)
(1.56382 0.52409 -0.0225783)
(2.02074 0.374716 0.0193589)
(2.01993 0.37517 1.51871e-05)
(2.02 0.375225 -5.05708e-10)
(2.01993 0.37517 -1.51878e-05)
(2.02074 0.374716 -0.0193588)
(2.19206 0.287878 0.0168629)
(2.18915 0.289093 1.1981e-05)
(2.18905 0.289208 -1.22726e-10)
(2.18915 0.289093 -1.19811e-05)
(2.19206 0.287878 -0.0168629)
(0.960552 0.668575 0.0250668)
(0.954621 0.669537 1.26894e-05)
(0.954386 0.6696 -1.06172e-09)
(0.954622 0.669537 -1.26914e-05)
(0.960553 0.668575 -0.0250668)
(2.15684 -0.739023 0.0166667)
(2.15586 -0.740789 5.96193e-06)
(2.15568 -0.740726 -8.4377e-11)
(2.15586 -0.740789 -5.9619e-06)
(2.15684 -0.739023 -0.0166667)
(1.7717 -1.10647 0.0176914)
(1.77462 -1.11141 -2.15252e-06)
(1.77573 -1.11161 -2.42701e-10)
(1.77462 -1.11141 2.15213e-06)
(1.7717 -1.10647 -0.0176914)
(1.85398 -1.54246 0.017077)
(1.85052 -1.53997 -1.20468e-05)
(1.84868 -1.53879 -1.59705e-09)
(1.85052 -1.53997 1.20443e-05)
(1.85398 -1.54246 -0.017077)
(2.11209 -0.496867 0.0160536)
(2.11137 -0.498314 6.13902e-06)
(2.11174 -0.498405 4.56204e-11)
(2.11137 -0.498314 -6.13902e-06)
(2.11209 -0.496867 -0.0160536)
(2.43671 -0.540409 0.0136662)
(2.43779 -0.541135 9.13855e-06)
(2.4383 -0.541224 5.8114e-11)
(2.43779 -0.541135 -9.13843e-06)
(2.43671 -0.540409 -0.0136662)
(2.34022 -0.813881 0.013955)
(2.33675 -0.813916 5.48961e-06)
(2.33606 -0.8136 5.69133e-10)
(2.33675 -0.813916 -5.48856e-06)
(2.34022 -0.813881 -0.013955)
(2.28373 -1.04514 0.0135911)
(2.28501 -1.04647 1.41567e-05)
(2.28565 -1.04669 1.22252e-09)
(2.28501 -1.04647 -1.4155e-05)
(2.28373 -1.04514 -0.0135911)
(2.35276 -0.315992 0.0156365)
(2.35041 -0.316639 8.27372e-06)
(2.34996 -0.316599 1.76104e-10)
(2.35041 -0.316639 -8.27373e-06)
(2.35276 -0.315992 -0.0156365)
(2.42569 -0.226429 0.0146885)
(2.42576 -0.226797 1.27946e-05)
(2.42613 -0.22681 -1.8351e-10)
(2.42576 -0.226797 -1.2795e-05)
(2.42569 -0.226429 -0.0146885)
(2.46553 0.213948 0.0147781)
(2.46575 0.214041 1.03508e-05)
(2.46589 0.214052 -7.51989e-11)
(2.46575 0.214041 -1.03508e-05)
(2.46553 0.213948 -0.0147781)
(1.02253 -0.871203 0.000331554)
(1.02158 -0.874174 -3.72134e-05)
(1.02165 -0.875202 1.5412e-09)
(1.02158 -0.874174 3.72159e-05)
(1.02253 -0.871203 -0.000331558)
(2.11336 0.778107 0.0174451)
(2.11554 0.777951 8.15588e-06)
(2.11583 0.777912 -2.44104e-09)
(2.11554 0.777951 -8.15931e-06)
(2.11336 0.778107 -0.0174451)
(2.12447 0.674765 0.0163456)
(2.12037 0.678309 5.98682e-06)
(2.1201 0.678556 -1.04694e-09)
(2.12037 0.678309 -5.9885e-06)
(2.12447 0.674765 -0.0163455)
(2.41987 0.436068 0.0152133)
(2.42174 0.435331 9.58566e-06)
(2.42205 0.435246 -3.06766e-10)
(2.42174 0.435331 -9.58614e-06)
(2.41987 0.436068 -0.0152133)
(2.40849 0.380725 0.0136398)
(2.40582 0.382716 6.64283e-06)
(2.40566 0.382914 -9.57808e-11)
(2.40582 0.382716 -6.64299e-06)
(2.40849 0.380725 -0.0136398)
(1.83652 1.24974 0.017221)
(1.83227 1.2575 -1.77107e-06)
(1.83206 1.25804 -5.50083e-09)
(1.83227 1.2575 1.76536e-06)
(1.83652 1.24974 -0.0172209)
(0.611675 0.066911 0.00088767)
(0.597799 0.0418703 6.05095e-07)
(0.591555 0.0338894 7.58974e-09)
(0.5978 0.0418723 -5.92186e-07)
(0.611678 0.0669149 -0.000887691)
(2.45648 0.0311764 0.0135154)
(2.45515 0.0304006 9.88991e-06)
(2.45533 0.0302855 -8.43799e-11)
(2.45515 0.0304007 -9.89009e-06)
(2.45648 0.0311765 -0.0135154)
(2.49768 0.191789 0.013085)
(2.49544 0.192424 9.33168e-06)
(2.4953 0.19252 -5.28672e-11)
(2.49544 0.192424 -9.33178e-06)
(2.49768 0.191789 -0.013085)
(2.66499 0.270021 0.0123313)
(2.66601 0.269341 8.98013e-06)
(2.66621 0.269242 -7.14195e-11)
(2.66601 0.269341 -8.98027e-06)
(2.66499 0.270021 -0.0123312)
(1.15353 -0.623177 -0.00155378)
(1.15445 -0.625494 -4.57257e-05)
(1.15507 -0.626592 -1.80858e-10)
(1.15445 -0.625493 4.57247e-05)
(1.15353 -0.623176 0.00155378)
(0.49452 -0.377948 0.00239546)
(0.486241 -0.372237 -2.2306e-05)
(0.484129 -0.369418 1.74396e-09)
(0.486242 -0.372238 2.22994e-05)
(0.494522 -0.377949 -0.00239546)
(0.56324 -0.235538 0.00254527)
(0.555958 -0.228848 -5.79267e-05)
(0.553787 -0.226422 4.07912e-09)
(0.555958 -0.228849 5.79315e-05)
(0.563241 -0.235539 -0.00254528)
(0.655539 -0.186152 0.0022524)
(0.644995 -0.18975 -7.07318e-05)
(0.641533 -0.191489 3.95987e-09)
(0.644996 -0.18975 7.07383e-05)
(0.655541 -0.186152 -0.00225241)
(0.621688 -0.315735 0.00157517)
(0.608515 -0.328154 -7.77572e-05)
(0.604 -0.333251 1.6722e-09)
(0.608516 -0.328154 7.77614e-05)
(0.621691 -0.315734 -0.00157517)
(0.593875 -0.553531 0.000490228)
(0.581097 -0.56832 -9.37003e-05)
(0.576571 -0.574297 1.12098e-09)
(0.581098 -0.56832 9.3704e-05)
(0.593877 -0.55353 -0.000490233)
(0.460717 -0.812211 -0.00118241)
(0.44715 -0.825045 -0.000110954)
(0.442222 -0.830249 1.52004e-09)
(0.44715 -0.825045 0.000110958)
(0.460719 -0.812211 0.00118241)
(0.36819 -1.03305 -0.0035446)
(0.35666 -1.04244 -0.000129149)
(0.352339 -1.04632 1.67121e-09)
(0.356661 -1.04244 0.000129152)
(0.368192 -1.03305 0.00354459)
(0.181143 -1.15877 -0.00697955)
(0.172342 -1.16265 -0.000154147)
(0.168924 -1.16435 1.17925e-09)
(0.172342 -1.16265 0.000154149)
(0.181144 -1.15877 0.00697955)
(0.160092 -1.04644 -0.0106803)
(0.157475 -1.04188 -0.000159265)
(0.156334 -1.0403 -1.70225e-09)
(0.157476 -1.04188 0.000159263)
(0.160094 -1.04644 0.0106803)
(-0.185851 -0.91904 -0.00832633)
(-0.195645 -0.919312 -0.000139766)
(-0.199439 -0.91947 -1.29699e-09)
(-0.195645 -0.919312 0.000139763)
(-0.185851 -0.919039 0.00832634)
(-0.249116 -0.738811 -0.00623059)
(-0.262507 -0.740907 -0.000109231)
(-0.267594 -0.741815 6.68868e-11)
(-0.262507 -0.740907 0.000109229)
(-0.249116 -0.73881 0.00623059)
(-0.196081 -0.561862 -0.00461148)
(-0.208188 -0.563693 -8.61357e-05)
(-0.212785 -0.564467 -7.0152e-10)
(-0.208188 -0.563692 8.61347e-05)
(-0.196081 -0.561862 0.00461148)
(-0.133205 -0.428363 -0.00341857)
(-0.143568 -0.429634 -7.06415e-05)
(-0.14746 -0.430192 -2.18953e-10)
(-0.143568 -0.429634 7.06416e-05)
(-0.133205 -0.428362 0.00341857)
(-0.0727636 -0.321254 -0.00253249)
(-0.0816623 -0.322291 -6.12488e-05)
(-0.0849798 -0.322734 1.56492e-09)
(-0.081662 -0.322291 6.12512e-05)
(-0.0727631 -0.321253 0.00253249)
(-0.0201675 -0.220318 -0.00185053)
(-0.0280547 -0.221062 -5.2944e-05)
(-0.0309714 -0.221384 2.97335e-09)
(-0.0280544 -0.221062 5.29483e-05)
(-0.020167 -0.220317 0.00185052)
(0.020788 -0.126107 -0.00133387)
(0.0134237 -0.126937 -4.86695e-05)
(0.0107356 -0.127263 2.1503e-09)
(0.013424 -0.126937 4.8673e-05)
(0.0207885 -0.126106 0.00133387)
(0.0859642 -0.0134546 -0.000887024)
(0.0791787 -0.0135983 -4.38687e-05)
(0.0767164 -0.0136852 -3.34431e-11)
(0.079179 -0.0135982 4.38692e-05)
(0.0859647 -0.0134544 0.000887024)
(0.151605 0.122945 -0.000748262)
(0.145791 0.12292 -4.45626e-05)
(0.14371 0.122902 -4.06266e-11)
(0.145791 0.12292 4.4563e-05)
(0.151605 0.122945 0.000748262)
(0.3637 0.297504 -0.000452041)
(0.359727 0.29856 -4.48163e-05)
(0.358312 0.298929 9.85725e-10)
(0.359727 0.29856 4.48178e-05)
(0.363701 0.297504 0.000452038)
(0.780782 0.45936 -0.000691499)
(0.782888 0.459611 -4.43877e-05)
(0.783712 0.459674 1.81591e-09)
(0.782887 0.459611 4.43896e-05)
(0.780782 0.45936 0.000691495)
(0.933 0.33874 0.00160634)
(0.932768 0.339857 -3.08402e-05)
(0.932832 0.340224 5.41328e-10)
(0.932768 0.339857 3.08408e-05)
(0.933 0.33874 -0.00160634)
(1.14333 0.0899778 0.00292544)
(1.14223 0.0910526 -2.1629e-05)
(1.14211 0.0913852 3.21191e-10)
(1.14223 0.0910526 2.16302e-05)
(1.14333 0.0899778 -0.00292544)
(1.15361 -0.10694 0.00329344)
(1.15136 -0.105997 -1.89862e-05)
(1.151 -0.105768 4.16719e-10)
(1.15136 -0.105997 1.89873e-05)
(1.15361 -0.10694 -0.00329344)
(1.10105 -0.328848 0.00332713)
(1.09895 -0.329001 -1.94155e-05)
(1.09879 -0.329175 1.51948e-09)
(1.09895 -0.329001 1.94175e-05)
(1.10105 -0.328848 -0.00332714)
(1.07385 -0.513814 0.00294714)
(1.07062 -0.514602 -2.57924e-05)
(1.07031 -0.515015 1.42449e-09)
(1.07062 -0.514601 2.57948e-05)
(1.07385 -0.513814 -0.00294714)
(1.28446 -0.605366 0.00292636)
(1.28046 -0.606934 -2.89454e-05)
(1.28019 -0.607481 1.73119e-09)
(1.28046 -0.606934 2.89493e-05)
(1.28446 -0.605366 -0.00292636)
(1.63269 -0.593844 0.00247526)
(1.62827 -0.596148 -2.77489e-05)
(1.62808 -0.596713 2.83839e-09)
(1.62827 -0.596148 2.77544e-05)
(1.63269 -0.593844 -0.00247527)
(1.96519 -0.531241 0.000743559)
(1.96279 -0.533873 -2.73929e-05)
(1.96311 -0.534498 3.86754e-09)
(1.96279 -0.533872 2.73997e-05)
(1.96519 -0.53124 -0.00074357)
(1.86889 1.50417 0.014212)
(1.87116 1.50806 -3.71421e-05)
(1.87132 1.50827 -7.1492e-09)
(1.87116 1.50806 3.71352e-05)
(1.86889 1.50417 -0.014212)
(2.1408 1.27426 0.0152424)
(2.14458 1.27622 -1.19479e-05)
(2.14499 1.27647 -3.33304e-08)
(2.14458 1.27621 1.19313e-05)
(2.1408 1.27426 -0.0152423)
(2.12985 0.852208 0.015038)
(2.12964 0.854487 -6.09003e-06)
(2.12977 0.854611 -5.66516e-09)
(2.12964 0.854487 6.08407e-06)
(2.12985 0.852208 -0.015038)
(2.39747 0.806237 0.0142728)
(2.39612 0.807544 6.67086e-06)
(2.3961 0.807709 -1.34326e-09)
(2.39612 0.807544 -6.67288e-06)
(2.39747 0.806237 -0.0142728)
(2.39673 0.520359 0.0133685)
(2.39738 0.521588 5.0104e-06)
(2.39764 0.521675 -2.7477e-10)
(2.39737 0.521588 -5.01092e-06)
(2.39673 0.520359 -0.0133685)
(2.59569 0.504004 0.0122457)
(2.59375 0.504594 8.37315e-06)
(2.59362 0.504677 -1.08669e-10)
(2.59375 0.504594 -8.37338e-06)
(2.59569 0.504004 -0.0122457)
(2.61826 0.33738 0.0112053)
(2.61929 0.338096 5.80218e-06)
(2.61955 0.338153 -3.55193e-11)
(2.61929 0.338096 -5.80227e-06)
(2.61826 0.33738 -0.0112053)
(2.57876 -0.516943 0.0119334)
(2.57902 -0.517656 8.26307e-06)
(2.57922 -0.517717 -2.60098e-11)
(2.57902 -0.517656 -8.26319e-06)
(2.57876 -0.516943 -0.0119334)
(2.68072 -0.29559 0.0108977)
(2.67965 -0.295971 7.31004e-06)
(2.67956 -0.295986 -2.17273e-11)
(2.67965 -0.295971 -7.31015e-06)
(2.68072 -0.29559 -0.0108977)
(2.4968 -1.22168 0.00998794)
(2.49719 -1.22508 3.27109e-06)
(2.49743 -1.22534 -4.22468e-09)
(2.49719 -1.22508 -3.27507e-06)
(2.4968 -1.22168 -0.00998793)
(2.41951 -1.05202 0.011792)
(2.41847 -1.05187 3.42661e-06)
(2.4182 -1.05168 5.95873e-09)
(2.41847 -1.05187 -3.42068e-06)
(2.41951 -1.05202 -0.011792)
(2.55466 -0.794343 0.0115572)
(2.55378 -0.796105 6.05978e-06)
(2.55373 -0.796173 1.31774e-09)
(2.55378 -0.796105 -6.05796e-06)
(2.55466 -0.794343 -0.0115572)
(2.52413 -0.719344 0.0116495)
(2.52434 -0.719835 7.23961e-06)
(2.52453 -0.719904 3.12831e-10)
(2.52434 -0.719835 -7.23922e-06)
(2.52413 -0.719344 -0.0116495)
(2.68122 -0.448663 0.0107563)
(2.6801 -0.449716 6.53561e-06)
(2.67997 -0.449748 9.02756e-11)
(2.6801 -0.449716 -6.53558e-06)
(2.68122 -0.448663 -0.0107563)
(2.69218 -0.493933 0.00983931)
(2.69204 -0.494136 6.63049e-06)
(2.69208 -0.494182 -3.8463e-11)
(2.69204 -0.494136 -6.63061e-06)
(2.69218 -0.493933 -0.00983931)
(2.79872 -0.302848 0.00908081)
(2.79815 -0.303598 5.97472e-06)
(2.79815 -0.303658 -1.46752e-10)