/*--------------------------------*- C++ -*----------------------------------*\
| =========                 |                                                 |
| \\      /  F ield         | OpenFOAM: The Open Source CFD Toolbox           |
|  \\    /   O peration     | Version:  v1806                                 |
|   \\  /    A nd           | Web:      www.OpenFOAM.com                      |
|    \\/     M anipulation  |                                                 |
\*---------------------------------------------------------------------------*/
FoamFile
{
    version     2.0;
    format      ascii;
    class       volVectorField;
    location    "13";
    object      U;
}
// * * * * * * * * * * * * * * * * * * * * * * * * * * * * * * * * * * * * * //

dimensions      [0 1 -1 0 0 0 0];


internalField   nonuniform List<vector> 
2400
(
(2.9998 -0.0137587 0)
(2.99412 -0.0594578 0)
(3.00734 -0.102153 0)
(2.98863 -0.127836 0)
(3.01331 -0.190315 0)
(2.989 -0.193445 0)
(3.01334 -0.267227 0)
(2.99401 -0.26534 0)
(3.00993 -0.331467 0)
(3.0041 -0.339662 0)
(3.00699 -0.382932 0)
(3.01578 -0.405644 0)
(3.00754 -0.425127 0)
(3.0265 -0.453721 0)
(3.01296 -0.457027 0)
(3.03434 -0.482312 0)
(3.02227 -0.478293 0)
(3.04173 -0.495198 0)
(3.03555 -0.488567 0)
(3.05079 -0.495258 0)
(2.99983 -0.00724827 0)
(2.99027 -0.0670419 0)
(3.01015 -0.100236 0)
(2.98404 -0.129127 0)
(3.02039 -0.195078 0)
(2.98684 -0.187644 0)
(3.02339 -0.279086 0)
(2.99357 -0.256109 0)
(3.02226 -0.345314 0)
(3.00884 -0.333905 0)
(3.01974 -0.394829 0)
(3.03002 -0.407174 0)
(3.02056 -0.432843 0)
(3.05395 -0.460905 0)
(3.03088 -0.462775 0)
(3.07408 -0.492056 0)
(3.05273 -0.484336 0)
(3.09137 -0.507538 0)
(3.08463 -0.496448 0)
(3.10806 -0.511814 0)
(2.99816 -0.00131409 0)
(2.99085 -0.0733154 0)
(3.00968 -0.0995556 0)
(2.98399 -0.130934 0)
(3.02435 -0.199803 0)
(2.985 -0.18563 0)
(3.03487 -0.288367 0)
(2.99014 -0.251507 0)
(3.03827 -0.356806 0)
(3.00904 -0.330148 0)
(3.03337 -0.407937 0)
(3.04034 -0.407658 0)
(3.02884 -0.44529 0)
(3.07622 -0.468545 0)
(3.0396 -0.473654 0)
(3.10541 -0.507497 0)
(3.07233 -0.493243 0)
(3.12744 -0.528559 0)
(3.12134 -0.50529 0)
(3.14716 -0.533448 0)
(2.99513 0.00613105 0)
(2.99397 -0.0818827 0)
(3.00821 -0.0959396 0)
(2.98431 -0.13752 0)
(3.02883 -0.201971 0)
(2.97953 -0.187515 0)
(3.04889 -0.298276 0)
(2.98228 -0.246595 0)
(3.05642 -0.37426 0)
(3.00635 -0.321843 0)
(3.04781 -0.429765 0)
(3.05052 -0.403779 0)
(3.03646 -0.464995 0)
(3.09995 -0.477211 0)
(3.04634 -0.487245 0)
(3.13971 -0.530312 0)
(3.08882 -0.502297 0)
(3.16755 -0.559494 0)
(3.15529 -0.515789 0)
(3.19138 -0.56288 0)
(2.99156 0.0130513 0)
(3.00007 -0.0918833 0)
(3.00395 -0.0887532 0)
(2.98832 -0.150142 0)
(3.02897 -0.197377 0)
(2.97619 -0.197468 0)
(3.0586 -0.302249 0)
(2.97408 -0.24721 0)
(3.07266 -0.391773 0)
(3.00018 -0.312585 0)
(3.06408 -0.458084 0)
(3.05546 -0.394917 0)
(3.0472 -0.494032 0)
(3.12001 -0.483665 0)
(3.05287 -0.507237 0)
(3.17474 -0.558134 0)
(3.09993 -0.514312 0)
(3.21148 -0.599944 0)
(3.18197 -0.528958 0)
(3.23838 -0.60074 0)
(2.98915 0.0190065 0)
(3.00743 -0.102983 0)
(2.99701 -0.0771154 0)
(2.99648 -0.169159 0)
(3.02222 -0.183848 0)
(2.97908 -0.217279 0)
(3.05766 -0.297101 0)
(2.97103 -0.257055 0)
(3.08011 -0.405809 0)
(2.99449 -0.306201 0)
(3.07855 -0.491167 0)
(3.05554 -0.382508 0)
(3.0621 -0.533147 0)
(3.13464 -0.486494 0)
(3.06248 -0.53551 0)
(3.20872 -0.588511 0)
(3.1073 -0.52963 0)
(3.25981 -0.648976 0)
(3.20049 -0.543293 0)
(3.29025 -0.648931 0)
(2.98887 0.0229546 0)
(3.01435 -0.113566 0)
(2.98647 -0.0628138 0)
(3.0109 -0.192257 0)
(3.00433 -0.161649 0)
(2.99607 -0.247727 0)
(3.03832 -0.278333 0)
(2.98311 -0.282984 0)
(3.0709 -0.406542 0)
(2.99625 -0.313602 0)
(3.08627 -0.519476 0)
(3.05139 -0.373714 0)
(3.08139 -0.579306 0)
(3.13835 -0.484495 0)
(3.08083 -0.576058 0)
(3.23257 -0.615839 0)
(3.11851 -0.552907 0)
(3.30521 -0.703205 0)
(3.2154 -0.559421 0)
(3.3447 -0.708788 0)
(2.99088 0.0260022 0)
(3.01789 -0.12313 0)
(2.97456 -0.0489149 0)
(3.02733 -0.215205 0)
(2.97908 -0.135451 0)
(3.02442 -0.284701 0)
(3.00301 -0.247582 0)
(3.01329 -0.325734 0)
(3.04146 -0.388562 0)
(3.01332 -0.344019 0)
(3.07933 -0.531626 0)
(3.0482 -0.381136 0)
(3.10072 -0.622636 0)
(3.12612 -0.483632 0)
(3.11373 -0.628278 0)
(3.23092 -0.637066 0)
(3.1472 -0.589456 0)
(3.33041 -0.757456 0)
(3.23647 -0.581226 0)
(3.39363 -0.778419 0)
(2.99735 0.0300891 0)
(3.01111 -0.132181 0)
(2.97145 -0.0366978 0)
(3.03064 -0.235093 0)
(2.96316 -0.110396 0)
(3.04357 -0.321731 0)
(2.96889 -0.211474 0)
(3.04596 -0.378523 0)
(2.99894 -0.353485 0)
(3.04252 -0.398751 0)
(3.05218 -0.518302 0)
(3.05009 -0.417698 0)
(3.11032 -0.646751 0)
(3.09594 -0.497907 0)
(3.1573 -0.682845 0)
(3.1919 -0.653776 0)
(3.1993 -0.644582 0)
(3.31745 -0.803221 0)
(3.2716 -0.619352 0)
(3.42613 -0.848863 0)
(3.01552 0.0390053 0)
(2.9826 -0.143802 0)
(2.99258 -0.0239121 0)
(3.00087 -0.2521 0)
(2.979 -0.090314 0)
(3.02468 -0.351484 0)
(2.96328 -0.18069 0)
(3.04853 -0.427308 0)
(2.96672 -0.311463 0)
(3.06004 -0.467109 0)
(3.01139 -0.477857 0)
(3.05442 -0.4886 0)
(3.09558 -0.635448 0)
(3.06171 -0.545856 0)
(3.186 -0.721628 0)
(3.13081 -0.677253 0)
(3.2541 -0.717624 0)
(3.27203 -0.83498 0)
(3.31744 -0.688021 0)
(3.43847 -0.90799 0)
(3.05002 0.0563005 0)
(2.93189 -0.162517 0)
(3.0392 -0.00574731 0)
(2.93953 -0.270045 0)
(3.02851 -0.0726946 0)
(2.9629 -0.37299 0)
(2.99916 -0.159921 0)
(3.00042 -0.461938 0)
(2.97308 -0.276457 0)
(3.03541 -0.529385 0)
(2.98423 -0.425506 0)
(3.04689 -0.578521 0)
(3.05708 -0.590118 0)
(3.04581 -0.633332 0)
(3.1719 -0.728433 0)
(3.09149 -0.72862 0)
(3.27806 -0.793711 0)
(3.2315 -0.864454 0)
(3.36408 -0.791694 0)
(3.44107 -0.954977 0)
(3.09047 0.0810969 0)
(2.88289 -0.188783 0)
(3.08741 0.0193581 0)
(2.88295 -0.292702 0)
(3.08074 -0.0508458 0)
(2.89628 -0.393979 0)
(3.05459 -0.140698 0)
(2.92395 -0.488575 0)
(3.02397 -0.250784 0)
(2.96107 -0.576723 0)
(3.00927 -0.382621 0)
(2.99827 -0.661197 0)
(3.04034 -0.535669 0)
(3.03199 -0.741399 0)
(3.13339 -0.704318 0)
(3.09118 -0.821668 0)
(3.26429 -0.848031 0)
(3.22969 -0.921217 0)
(3.40251 -0.913711 0)
(3.45346 -1.00779 0)
(3.11742 0.10527 0)
(2.86387 -0.215418 0)
(3.1124 0.046856 0)
(2.86485 -0.318913 0)
(3.10663 -0.0211605 0)
(2.86478 -0.424073 0)
(3.09623 -0.10823 0)
(2.86415 -0.527007 0)
(3.09044 -0.216258 0)
(2.8708 -0.627029 0)
(3.08731 -0.347 0)
(2.9015 -0.732287 0)
(3.09486 -0.496746 0)
(2.96732 -0.84317 0)
(3.13934 -0.673064 0)
(3.07277 -0.943841 0)
(3.2522 -0.871288 0)
(3.23804 -1.02777 0)
(3.43251 -1.02754 0)
(3.47818 -1.095 0)
(3.12893 0.118945 0)
(2.86664 -0.231709 0)
(3.12519 0.0689741 0)
(2.86566 -0.338289 0)
(3.11938 0.0100965 0)
(2.85388 -0.455767 0)
(3.12014 -0.0630077 0)
(2.83384 -0.576694 0)
(3.13358 -0.162205 0)
(2.8146 -0.695228 0)
(3.15213 -0.296252 0)
(2.81733 -0.817156 0)
(3.17488 -0.459927 0)
(2.86911 -0.946058 0)
(3.20779 -0.652206 0)
(2.98946 -1.07627 0)
(3.28953 -0.882984 0)
(3.1991 -1.17733 0)
(3.46636 -1.12383 0)
(3.50572 -1.23582 0)
(3.1435 0.113408 0)
(2.85669 -0.22286 0)
(3.1567 0.069164 0)
(2.84098 -0.330545 0)
(3.15472 0.0170839 0)
(2.82059 -0.457571 0)
(3.15403 -0.0400751 0)
(2.80348 -0.596047 0)
(3.15293 -0.117256 0)
(2.79875 -0.744759 0)
(3.15247 -0.233246 0)
(2.80971 -0.905021 0)
(3.17505 -0.397937 0)
(2.84685 -1.07603 0)
(3.2309 -0.614291 0)
(2.93246 -1.24118 0)
(3.33733 -0.890878 0)
(3.12903 -1.36087 0)
(3.51947 -1.21688 0)
(3.51312 -1.42481 0)
(3.16833 0.0940072 0)
(2.82828 -0.191938 0)
(3.19938 0.0436134 0)
(2.79437 -0.294165 0)
(3.20346 -0.0126901 0)
(2.76737 -0.414191 0)
(3.19983 -0.0716883 0)
(2.75626 -0.55276 0)
(3.1765 -0.140301 0)
(2.76961 -0.720687 0)
(3.13846 -0.225913 0)
(2.81171 -0.929946 0)
(3.10738 -0.342837 0)
(2.88679 -1.18614 0)
(3.13203 -0.534359 0)
(2.97472 -1.4542 0)
(3.27714 -0.853058 0)
(3.10837 -1.64525 0)
(3.54805 -1.29875 0)
(3.44265 -1.68667 0)
(3.18095 0.0732187 0)
(2.81672 -0.158366 0)
(3.21439 0.0129316 0)
(2.77812 -0.249963 0)
(3.21861 -0.0521817 0)
(2.74484 -0.352204 0)
(3.21462 -0.12797 0)
(2.72027 -0.471806 0)
(3.18962 -0.218107 0)
(2.71164 -0.625753 0)
(3.14365 -0.316976 0)
(2.73042 -0.84451 0)
(3.08231 -0.413648 0)
(2.79637 -1.1615 0)
(3.02326 -0.521284 0)
(2.92371 -1.58792 0)
(3.05022 -0.741773 0)
(3.11652 -2.01388 0)
(3.36425 -1.2889 0)
(3.33766 -2.12382 0)
(3.14867 0.0515103 0)
(2.85704 -0.125799 0)
(3.16798 -0.0146651 0)
(2.82774 -0.206601 0)
(3.15788 -0.0849727 0)
(2.79219 -0.29421 0)
(3.14486 -0.171873 0)
(2.74556 -0.395515 0)
(3.12622 -0.280579 0)
(2.68151 -0.522991 0)
(3.10724 -0.414331 0)
(2.60584 -0.703575 0)
(3.07874 -0.569956 0)
(2.55473 -0.990183 0)
(3.00898 -0.723654 0)
(2.61366 -1.47275 0)
(2.88078 -0.827224 0)
(2.88359 -2.20288 0)
(2.90128 -1.14669 0)
(3.31202 -2.81548 0)
(3.05861 0.0297541 0)
(2.95183 -0.0938727 0)
(3.0609 -0.0366116 0)
(2.9298 -0.164511 0)
(3.0347 -0.105872 0)
(2.89013 -0.24163 0)
(3.00424 -0.189105 0)
(2.82805 -0.334522 0)
(2.96962 -0.292177 0)
(2.72968 -0.452769 0)
(2.93879 -0.427613 0)
(2.58532 -0.610346 0)
(2.91777 -0.619617 0)
(2.3957 -0.830532 0)
(2.9047 -0.892929 0)
(2.21466 -1.19832 0)
(2.84571 -1.21843 0)
(2.26534 -2.00189 0)
(2.64597 -1.36826 0)
(3.03583 -3.53319 0)
(2.98664 0.0139333 0)
(3.02252 -0.0706466 0)
(2.97823 -0.0441207 0)
(3.0019 -0.13351 0)
(2.93926 -0.104654 0)
(2.96011 -0.20245 0)
(2.88611 -0.175451 0)
(2.89783 -0.287807 0)
(2.81253 -0.263181 0)
(2.80732 -0.398977 0)
(2.71439 -0.378601 0)
(2.68114 -0.551153 0)
(2.59621 -0.543826 0)
(2.4935 -0.76611 0)
(2.4838 -0.809852 0)
(2.18618 -1.07064 0)
(2.43076 -1.29936 0)
(1.74551 -1.57946 0)
(2.37531 -2.12624 0)
(1.85597 -3.41658 0)
(3.05562 -0.484928 0)
(3.06472 -0.454039 0)
(3.11638 -0.44835 0)
(3.08797 -0.368781 0)
(3.11069 -0.279549 0)
(3.21597 -0.384787 0)
(3.16775 -0.289761 0)
(3.11137 0.0524236 0)
(3.19706 0.0297572 0)
(3.20012 -0.0343117 0)
(3.13011 -0.492832 0)
(3.12177 -0.479593 0)
(3.20248 -0.463889 0)
(3.20673 -0.365253 0)
(3.20356 -0.332544 0)
(3.31031 -0.426547 0)
(3.30643 -0.252012 0)
(3.23328 0.0469077 0)
(3.29549 -0.0145404 0)
(3.30128 -0.0298735 0)
(3.18771 -0.499087 0)
(3.15804 -0.485959 0)
(3.22903 -0.496245 0)
(3.29137 -0.374132 0)
(3.31255 -0.327878 0)
(3.33712 -0.448457 0)
(3.35479 -0.254844 0)
(3.35205 0.062026 0)
(3.35987 -0.00839126 0)
(3.33823 -0.0229935 0)
(3.24332 -0.509104 0)
(3.2023 -0.488753 0)
(3.28236 -0.53846 0)
(3.36906 -0.405164 0)
(3.44178 -0.335068 0)
(3.43201 -0.461259 0)
(3.4038 -0.262446 0)
(3.43925 0.0629721 0)
(3.45587 -0.0110145 0)
(3.42519 -0.0261418 0)
(3.29048 -0.521015 0)
(3.24 -0.488796 0)
(3.35605 -0.590884 0)
(3.45122 -0.457113 0)
(3.56398 -0.336174 0)
(3.51894 -0.445827 0)
(3.42809 -0.266558 0)
(3.49963 0.0512327 0)
(3.54839 -0.0107773 0)
(3.52177 -0.0239559 0)
(3.32746 -0.53075 0)
(3.27198 -0.499298 0)
(3.46979 -0.657009 0)
(3.54572 -0.515888 0)
(3.66045 -0.340614 0)
(3.59744 -0.411148 0)
(3.45169 -0.258664 0)
(3.54128 0.0223868 0)
(3.63366 -0.0299501 0)
(3.6413 -0.0317957 0)
(3.35688 -0.534649 0)
(3.30889 -0.533599 0)
(3.61612 -0.744075 0)
(3.65039 -0.564071 0)
(3.71706 -0.32954 0)
(3.6281 -0.362032 0)
(3.47216 -0.246001 0)
(3.59929 -0.0223071 0)
(3.72508 -0.0718012 0)
(3.77583 -0.0506406 0)
(3.38165 -0.535077 0)
(3.37802 -0.600305 0)
(3.77485 -0.848751 0)
(3.72684 -0.585181 0)
(3.71923 -0.293 0)
(3.61199 -0.31286 0)
(3.50444 -0.251788 0)
(3.70486 -0.0893879 0)
(3.83263 -0.127289 0)
(3.91974 -0.0775378 0)
(3.40393 -0.546359 0)
(3.5099 -0.696842 0)
(3.9125 -0.938164 0)
(3.7258 -0.560569 0)
(3.66637 -0.235898 0)
(3.59713 -0.283942 0)
(3.57243 -0.303859 0)
(3.85397 -0.175259 0)
(3.93853 -0.188649 0)
(4.06227 -0.113918 0)
(3.43161 -0.593878 0)
(3.69837 -0.811461 0)
(3.99219 -0.96441 0)
(3.63753 -0.477119 0)
(3.61224 -0.190564 0)
(3.65446 -0.302622 0)
(3.69604 -0.399521 0)
(4.00457 -0.2658 0)
(3.99297 -0.243079 0)
(4.18939 -0.155285 0)
(3.49206 -0.699049 0)
(3.88312 -0.924163 0)
(3.99839 -0.908633 0)
(3.5373 -0.374119 0)
(3.67496 -0.198493 0)
(3.82839 -0.366661 0)
(3.83099 -0.501219 0)
(4.06667 -0.317838 0)
(3.98506 -0.294522 0)
(4.34601 -0.231063 0)
(3.60529 -0.855173 0)
(3.99169 -1.00813 0)
(3.98415 -0.804955 0)
(3.59737 -0.322799 0)
(3.92429 -0.274586 0)
(4.05568 -0.421939 0)
(3.87061 -0.536143 0)
(4.02715 -0.33045 0)
(4.00214 -0.409063 0)
(4.57124 -0.347649 0)
(3.74888 -1.02687 0)
(4.0248 -1.05634 0)
(4.06436 -0.732117 0)
(3.91635 -0.366371 0)
(4.24857 -0.352488 0)
(4.17174 -0.38806 0)
(3.76378 -0.502995 0)
(3.9699 -0.372824 0)
(4.13394 -0.617399 0)
(4.81506 -0.536217 0)
(3.87598 -1.20397 0)
(4.09581 -1.10617 0)
(4.29281 -0.75761 0)
(4.35531 -0.439053 0)
(4.43269 -0.345645 0)
(4.04376 -0.247038 0)
(3.59599 -0.430935 0)
(3.94602 -0.520487 0)
(4.29663 -0.92936 0)
(4.76164 -0.686267 0)
(3.99116 -1.41638 0)
(4.28941 -1.20339 0)
(4.60736 -0.877313 0)
(4.61346 -0.454345 0)
(4.33268 -0.0711961 0)
(3.76032 -0.0801304 0)
(3.48803 -0.4542 0)
(3.81617 -0.755066 0)
(4.01021 -1.1346 0)
(4.10351 -0.71849 0)
(4.14196 -1.64611 0)
(4.47639 -1.40066 0)
(4.68709 -0.935832 0)
(4.52846 -0.386393 0)
(3.98053 0.113797 0)
(3.37195 0.0969158 0)
(3.29521 -0.365789 0)
(3.18655 -0.793692 0)
(3.08597 -1.12272 0)
(2.85626 -0.613833 0)
(4.23852 -1.91253 0)
(4.29949 -1.54128 0)
(4.20696 -0.873044 0)
(3.63664 0.0236279 0)
(3.57631 0.578464 0)
(3.02865 0.0837745 0)
(2.65358 -0.306355 0)
(2.03774 -0.688495 0)
(1.75796 -0.985392 0)
(1.37879 -0.476479 0)
(4.01269 -2.19222 0)
(3.38394 -1.26679 0)
(2.69896 -0.876915 0)
(1.8912 -0.0219162 0)
(2.76684 0.512718 0)
(1.3782 0.497313 0)
(1.40286 0.200299 0)
(0.785209 -0.476495 0)
(0.586547 -0.827081 0)
(-0.0504614 -0.44813 0)
(3.07617 -1.9535 0)
(1.15227 -1.22581 0)
(-2.13362 0.169782 0)
(-0.912203 0.0744018 0)
(-0.294049 0.767501 0)
(-0.512718 0.482447 0)
(0.426992 0.0302452 0)
(-0.2343 -0.301733 0)
(-0.379036 -0.55419 0)
(-1.31595 -0.189656 0)
(0.71612 -0.667182 0)
(-2.76512 1.31656 0)
(0.582852 -0.0584644 0)
(-2.52948 -0.75093 0)
(-0.671582 0.484186 0)
(-0.285406 0.206936 0)
(0.520748 0.100445 0)
(0.0648983 -0.133786 0)
(-0.353391 -0.351349 0)
(-1.87543 -0.323148 0)
(3.1641 0.185513 0)
(3.17561 0.340693 0)
(3.17615 0.41092 0)
(3.16447 0.482012 0)
(3.16993 0.491468 0)
(3.11829 0.556286 0)
(3.11323 0.611644 0)
(3.15276 0.642986 0)
(3.26096 0.402707 0)
(3.18874 0.241265 0)
(3.22505 0.00965814 0)
(3.06191 -0.0209323 0)
(3.24889 -0.367904 0)
(3.12722 -0.506623 0)
(3.51339 -0.452665 0)
(3.26292 -0.279471 0)
(3.52206 0.127396 0)
(3.27477 -0.0236406 0)
(3.17504 0.587066 0)
(3.25875 0.426664 0)
(3.26103 0.195528 0)
(3.26196 0.334892 0)
(3.23722 0.40874 0)
(3.20527 0.478621 0)
(3.21106 0.497579 0)
(3.14283 0.572043 0)
(3.11859 0.610587 0)
(3.15677 0.609417 0)
(3.25271 0.390561 0)
(3.17702 0.249594 0)
(3.23366 0.0433344 0)
(3.04961 -0.0234537 0)
(3.19631 -0.392092 0)
(3.16034 -0.586818 0)
(3.61088 -0.498384 0)
(3.4574 -0.285049 0)
(3.61808 0.117621 0)
(3.30464 0.0741808 0)
(3.21225 0.600148 0)
(3.26043 0.408663 0)
(3.34485 0.202317 0)
(3.34946 0.345207 0)
(3.29812 0.424343 0)
(3.25355 0.4873 0)
(3.25169 0.516353 0)
(3.17002 0.592184 0)
(3.14681 0.604879 0)
(3.16806 0.59366 0)
(3.22995 0.391842 0)
(3.14825 0.25236 0)
(3.22522 0.0516139 0)
(3.02799 -0.0065845 0)
(3.19629 -0.414758 0)
(3.21722 -0.645727 0)
(3.70405 -0.542915 0)
(3.55738 -0.28551 0)
(3.67311 0.1733 0)
(3.37857 0.123616 0)
(3.26314 0.596531 0)
(3.25389 0.407633 0)
(3.45438 0.198912 0)
(3.45648 0.353221 0)
(3.37537 0.438787 0)
(3.30444 0.492357 0)
(3.29785 0.52999 0)
(3.218 0.609899 0)
(3.18734 0.609595 0)
(3.18715 0.584197 0)
(3.21213 0.394719 0)
(3.11748 0.251546 0)
(3.20425 0.0732517 0)
(3.0012 -0.00608976 0)
(3.16959 -0.459246 0)
(3.31404 -0.742571 0)
(3.8265 -0.592586 0)
(3.71151 -0.267524 0)
(3.77224 0.18004 0)
(3.44463 0.197023 0)
(3.31563 0.628497 0)
(3.25511 0.414924 0)
(3.56933 0.19596 0)
(3.56511 0.370986 0)
(3.44921 0.467411 0)
(3.3556 0.502894 0)
(3.34937 0.545116 0)
(3.26678 0.633964 0)
(3.23866 0.617685 0)
(3.22139 0.586322 0)
(3.18848 0.409405 0)
(3.08224 0.25636 0)
(3.18906 0.0856409 0)
(2.94797 0.0116291 0)
(3.12403 -0.52577 0)
(3.34551 -0.85698 0)
(3.97769 -0.65751 0)
(3.86816 -0.265764 0)
(3.86025 0.249121 0)
(3.53591 0.271729 0)
(3.372 0.654081 0)
(3.25879 0.431683 0)
(3.70452 0.189157 0)
(3.67459 0.394641 0)
(3.51575 0.502396 0)
(3.40597 0.514531 0)
(3.40359 0.563432 0)
(3.30834 0.655446 0)
(3.29398 0.626134 0)
(3.25263 0.600675 0)
(3.16813 0.437096 0)
(3.06871 0.253203 0)
(3.14616 0.111483 0)
(2.89746 0.0219737 0)
(3.10083 -0.611206 0)
(3.30985 -1.02241 0)
(4.01414 -0.749205 0)
(4.01163 -0.227177 0)
(3.98104 0.291653 0)
(3.60546 0.348344 0)
(3.4148 0.710526 0)
(3.27353 0.457382 0)
(3.85385 0.1889 0)
(3.77469 0.43315 0)
(3.5683 0.546802 0)
(3.46403 0.52532 0)
(3.45263 0.581903 0)
(3.3284 0.678883 0)
(3.34975 0.63826 0)
(3.27608 0.62782 0)
(3.13922 0.467121 0)
(3.07763 0.260306 0)
(3.0611 0.140277 0)
(2.8792 0.0289298 0)
(3.1785 -0.694766 0)
(3.22456 -1.1718 0)
(3.92476 -0.873613 0)
(4.04707 -0.246316 0)
(4.06493 0.36532 0)
(3.68352 0.441197 0)
(3.45881 0.757704 0)
(3.29879 0.483397 0)
(4.0157 0.192031 0)
(3.86159 0.48951 0)
(3.60279 0.597132 0)
(3.53141 0.534555 0)
(3.48985 0.612389 0)
(3.33799 0.700223 0)
(3.40794 0.645546 0)
(3.26808 0.668399 0)
(3.15042 0.500334 0)
(3.10417 0.275694 0)
(2.91968 0.179936 0)
(2.89435 -0.0112677 0)
(3.28943 -0.747905 0)
(3.12912 -1.26879 0)
(3.65336 -1.00567 0)
(3.92057 -0.264127 0)
(4.06519 0.40569 0)
(3.69521 0.523354 0)
(3.50326 0.829503 0)
(3.34866 0.516869 0)
(4.1797 0.210111 0)
(3.93146 0.566987 0)
(3.65135 0.645086 0)
(3.61322 0.543114 0)
(3.47225 0.65375 0)
(3.34305 0.7179 0)
(3.46301 0.663496 0)
(3.25446 0.713611 0)
(3.22291 0.521196 0)
(3.10864 0.33075 0)
(2.78091 0.217728 0)
(2.9341 -0.0841009 0)
(3.22853 -0.783966 0)
(2.90064 -1.28448 0)
(3.22866 -1.11089 0)
(3.58128 -0.354395 0)
(3.94631 0.427832 0)
(3.64491 0.596071 0)
(3.51921 0.875291 0)
(3.39194 0.541272 0)
(4.35844 0.235642 0)
(3.9772 0.661459 0)
(3.71538 0.688218 0)
(3.69878 0.567183 0)
(3.41772 0.70983 0)
(3.37753 0.716438 0)
(3.48718 0.67774 0)
(3.27373 0.747794 0)
(3.33442 0.548805 0)
(3.05899 0.414114 0)
(2.72801 0.246498 0)
(2.92933 -0.153726 0)
(2.99227 -0.766908 0)
(2.57115 -1.26284 0)
(2.71877 -1.20213 0)
(3.08405 -0.466294 0)
(3.67024 0.384943 0)
(3.49528 0.628794 0)
(3.52 0.913011 0)
(3.42919 0.560621 0)
(4.55867 0.278265 0)
(4.03043 0.780985 0)
(3.82966 0.721219 0)
(3.75498 0.612165 0)
(3.37263 0.769191 0)
(3.46621 0.708315 0)
(3.47156 0.701922 0)
(3.35183 0.765656 0)
(3.42356 0.591051 0)
(3.00609 0.52097 0)
(2.76617 0.269729 0)
(2.85479 -0.16797 0)
(2.67694 -0.701763 0)
(2.22978 -1.1902 0)
(2.22911 -1.25145 0)
(2.49933 -0.615221 0)
(3.25924 0.297628 0)
(3.22511 0.611837 0)
(3.46237 0.911326 0)
(3.43922 0.570524 0)
(4.82883 0.334912 0)
(4.19501 0.902795 0)
(3.97854 0.756362 0)
(3.70807 0.682504 0)
(3.37854 0.813536 0)
(3.63728 0.694171 0)
(3.52707 0.719525 0)
(3.5145 0.765918 0)
(3.46187 0.658491 0)
(2.97703 0.624317 0)
(2.80219 0.304194 0)
(2.70025 -0.119233 0)
(2.33469 -0.597438 0)
(1.86477 -1.11934 0)
(1.76426 -1.27339 0)
(1.90887 -0.754212 0)
(2.76837 0.162992 0)
(2.87363 0.530121 0)
(3.33292 0.860517 0)
(3.38052 0.560153 0)
(5.08254 0.369069 0)
(4.36 1.05791 0)
(4.09933 0.848036 0)
(3.60446 0.782054 0)
(3.48868 0.821393 0)
(3.88867 0.681611 0)
(3.71339 0.750489 0)
(3.73605 0.787368 0)
(3.49489 0.761378 0)
(2.9916 0.733454 0)
(2.79352 0.36862 0)
(2.48113 -0.0139011 0)
(1.99013 -0.462704 0)
(1.51138 -1.01514 0)
(1.32376 -1.26568 0)
(1.36791 -0.889831 0)
(2.24826 -0.00628161 0)
(2.47013 0.390895 0)
(3.12424 0.76398 0)
(3.22862 0.534898 0)
(4.98468 0.433765 0)
(4.49768 1.2021 0)
(4.12449 0.956405 0)
(3.41863 0.865038 0)
(3.6059 0.751753 0)
(4.08951 0.637659 0)
(3.95846 0.773178 0)
(3.94612 0.83843 0)
(3.49762 0.895833 0)
(2.99562 0.849255 0)
(2.71155 0.47588 0)
(2.20573 0.137879 0)
(1.68055 -0.31821 0)
(1.22562 -0.908518 0)
(0.974389 -1.2307 0)
(0.91298 -1.00846 0)
(1.73693 -0.192723 0)
(2.0587 0.208363 0)
(2.81571 0.63161 0)
(2.97492 0.49867 0)
(4.33595 0.429568 0)
(4.32583 1.34171 0)
(3.79713 1.14001 0)
(3.16026 0.935981 0)
(3.68304 0.62496 0)
(4.1785 0.580362 0)
(4.13319 0.798947 0)
(4.06662 0.925853 0)
(3.47735 1.05848 0)
(2.97347 0.984291 0)
(2.56067 0.627379 0)
(1.92665 0.319337 0)
(1.42859 -0.171814 0)
(1.01639 -0.791744 0)
(0.75157 -1.17482 0)
(0.588664 -1.09973 0)
(1.25645 -0.37736 0)
(1.63753 0.0127722 0)
(2.39522 0.488123 0)
(2.64033 0.451551 0)
(3.13866 0.328637 0)
(3.74189 1.37677 0)
(3.14106 1.26083 0)
(2.88282 0.890536 0)
(3.65064 0.442138 0)
(4.09832 0.509524 0)
(4.14575 0.818995 0)
(4.03884 1.03731 0)
(3.38159 1.23666 0)
(2.88713 1.13767 0)
(2.34861 0.810487 0)
(1.65072 0.504018 0)
(1.20883 -0.0420679 0)
(0.863487 -0.688909 0)
(0.643591 -1.10332 0)
(0.416436 -1.13931 0)
(0.846773 -0.530931 0)
(1.2459 -0.172512 0)
(1.91665 0.335143 0)
(2.29343 0.388169 0)
(1.69726 0.151114 0)
(2.81997 1.40644 0)
(2.31298 1.34086 0)
(2.58844 0.758709 0)
(3.49414 0.256221 0)
(3.93297 0.445251 0)
(4.06671 0.835058 0)
(3.88427 1.16079 0)
(3.2196 1.41544 0)
(2.72658 1.30565 0)
(2.08647 1.01613 0)
(1.39254 0.685424 0)
(1.03252 0.0696935 0)
(0.764714 -0.60997 0)
(0.608628 -1.04331 0)
(0.383369 -1.14115 0)
(0.606256 -0.650496 0)
(0.992497 -0.336405 0)
(1.51417 0.173539 0)
(2.0206 0.302792 0)
(0.270533 -0.245605 0)
(1.82215 1.30863 0)
(1.43482 1.25604 0)
(2.296 0.492457 0)
(3.26247 0.0288635 0)
(3.75397 0.355153 0)
(3.91416 0.855184 0)
(3.61012 1.30004 0)
(2.97144 1.59446 0)
(2.47962 1.48389 0)
(1.80088 1.22899 0)
(1.15335 0.845929 0)
(0.903585 0.153099 0)
(0.708526 -0.550132 0)
(0.614405 -0.994526 0)
(0.428752 -1.12427 0)
(0.550082 -0.741099 0)
(0.903036 -0.466321 0)
(1.27098 0.0132157 0)
(1.8566 0.2014 0)
(-0.433476 -0.474084 0)
(0.999288 1.12741 0)
(0.736475 1.10357 0)
(2.08364 0.135317 0)
(2.97063 -0.204009 0)
(3.5113 0.262711 0)
(3.6898 0.892893 0)
(3.28641 1.45214 0)
(2.68027 1.76355 0)
(2.20403 1.66671 0)
(1.50085 1.43688 0)
(0.954061 0.977514 0)
(0.829729 0.20755 0)
(0.686849 -0.504442 0)
(0.669686 -0.96096 0)
(0.531324 -1.10706 0)
(0.611034 -0.818065 0)
(0.92339 -0.567443 0)
(1.17687 -0.131786 0)
(1.78344 0.0944547 0)
(-0.782611 -1.22067 0)
(0.0810995 0.989731 0)
(0.531844 0.826193 0)
(1.84073 -0.246817 0)
(2.54938 -0.43087 0)
(3.08675 0.158048 0)
(3.29963 0.937794 0)
(2.86541 1.60451 0)
(2.34992 1.92252 0)
(1.89587 1.85183 0)
(1.19417 1.62716 0)
(0.833573 1.07298 0)
(0.737389 0.243075 0)
(0.601736 -0.474133 0)
(0.707586 -0.946693 0)
(0.682768 -1.09342 0)
(0.75319 -0.882139 0)
(1.01254 -0.646936 0)
(1.18963 -0.262541 0)
(1.7729 -0.00971163 0)
(-0.758415 -1.11877 0)
(-0.507483 0.75715 0)
(0.580777 0.514465 0)
(1.48245 -0.491078 0)
(2.06983 -0.584457 0)
(2.55237 0.0746318 0)
(2.79062 0.981543 0)
(2.40839 1.73208 0)
(2.03002 2.04658 0)
(1.60626 2.00986 0)
(0.953824 1.77347 0)
(0.750338 1.13235 0)
(0.545163 0.27816 0)
(0.406977 -0.480587 0)
(0.631035 -0.984853 0)
(0.793302 -1.10908 0)
(0.938748 -0.932638 0)
(1.14877 -0.70137 0)
(1.2692 -0.366373 0)
(1.8006 -0.0962266 0)
(-0.736761 -0.88041 0)
(-0.700099 0.586154 0)
(0.470181 0.245287 0)
(1.07376 -0.665979 0)
(1.61325 -0.714994 0)
(2.00037 -0.00075682 0)
(2.26326 1.00432 0)
(1.98812 1.81366 0)
(1.72852 2.13217 0)
(1.33917 2.14724 0)
(0.802556 1.87228 0)
(0.628583 1.18186 0)
(0.336791 0.327572 0)
(0.253054 -0.504303 0)
(0.513426 -1.05863 0)
(0.802241 -1.1667 0)
(1.10331 -0.987752 0)
(1.31017 -0.738566 0)
(1.38879 -0.443512 0)
(1.84956 -0.164395 0)
(-0.650431 -0.811136 0)
(-0.728801 0.465 0)
(0.23382 0.0372037 0)
(0.638676 -0.792975 0)
(1.16972 -0.81996 0)
(1.43587 -0.0628741 0)
(1.69139 1.00846 0)
(1.56064 1.86889 0)
(1.4463 2.2016 0)
(1.04839 2.25708 0)
(0.722556 1.94623 0)
(0.452526 1.24579 0)
(0.215852 0.368664 0)
(0.231781 -0.532639 0)
(0.490794 -1.13649 0)
(0.764186 -1.25728 0)
(1.21549 -1.06991 0)
(1.48566 -0.77599 0)
(1.55402 -0.505161 0)
(1.924 -0.222093 0)
(-0.650451 -0.555827 0)
(-0.79926 0.386782 0)
(-0.0816283 -0.125684 0)
(0.202659 -0.907487 0)
(0.726838 -0.90779 0)
(0.859724 -0.107589 0)
(1.12074 0.997208 0)
(1.15305 1.87919 0)
(1.20422 2.25633 0)
(0.769258 2.33582 0)
(0.652467 2.00913 0)
(0.299101 1.31497 0)
(0.182233 0.384595 0)
(0.281794 -0.563305 0)
(0.596416 -1.19799 0)
(0.773096 -1.35268 0)
(1.261 -1.18107 0)
(1.6308 -0.828821 0)
(1.75404 -0.555211 0)
(2.02966 -0.267047 0)
(-0.671319 -0.413031 0)
(-0.891842 0.355575 0)
(-0.478248 -0.239079 0)
(-0.180537 -1.00212 0)
(0.306955 -0.984192 0)
(0.361522 -0.145512 0)
(0.631688 0.954855 0)
(0.791397 1.84737 0)
(0.96288 2.30102 0)
(0.584465 2.38718 0)
(0.547792 2.05988 0)
(0.222692 1.37761 0)
(0.150669 0.3825 0)
(0.305958 -0.620856 0)
(0.744098 -1.26022 0)
(0.902353 -1.42792 0)
(1.29676 -1.29915 0)
(1.70647 -0.907195 0)
(1.94953 -0.605927 0)
(2.16243 -0.3009 0)
(-0.658096 -0.199133 0)
(-1.05777 0.37997 0)
(-0.917262 -0.328431 0)
(-0.50293 -1.1124 0)
(-0.0803087 -1.04166 0)
(-0.0232003 -0.174694 0)
(0.240957 0.89333 0)
(0.530121 1.79536 0)
(0.719859 2.30822 0)
(0.484898 2.42572 0)
(0.462146 2.10934 0)
(0.164295 1.42457 0)
(0.113625 0.365282 0)
(0.335055 -0.719077 0)
(0.850038 -1.35682 0)
(1.1001 -1.49573 0)
(1.4073 -1.39501 0)
(1.73162 -1.00125 0)
(2.09477 -0.669735 0)
(2.30016 -0.329941 0)
(-0.660982 0.0338863 0)
(-1.22531 0.454731 0)
(-1.28997 -0.410877 0)
(-0.791943 -1.2359 0)
(-0.439859 -1.11577 0)
(-0.21976 -0.225583 0)
(0.0442902 0.812788 0)
(0.356003 1.7244 0)
(0.489214 2.30016 0)
(0.439316 2.45137 0)
(0.427449 2.1428 0)
(0.109413 1.45691 0)
(0.190579 0.331323 0)
(0.499409 -0.816811 0)
(0.991894 -1.46669 0)
(1.28732 -1.57519 0)
(1.59754 -1.4647 0)
(1.77019 -1.08898 0)
(2.17813 -0.748091 0)
(2.41575 -0.361245 0)
(-0.768554 0.250094 0)
(-1.39354 0.588244 0)
(-1.45799 -0.483918 0)
(-1.08173 -1.33919 0)
(-0.767214 -1.19765 0)
(-0.344547 -0.29798 0)
(-0.142219 0.72688 0)
(0.230335 1.66565 0)
(0.297723 2.27922 0)
(0.450215 2.44255 0)
(0.401348 2.17959 0)
(0.140336 1.4835 0)
(0.377085 0.27386 0)
(0.765543 -0.912962 0)
(1.23825 -1.5643 0)
(1.48109 -1.6569 0)
(1.81234 -1.51941 0)
(1.86445 -1.1561 0)
(2.22713 -0.83087 0)
(2.49757 -0.397273 0)
(-0.528046 0.571547 0)
(-1.52025 0.658048 0)
(-1.44362 -0.520597 0)
(-1.27925 -1.41817 0)
(-0.981702 -1.28591 0)
(-0.494443 -0.362079 0)
(-0.265222 0.665241 0)
(0.212704 1.62393 0)
(0.167675 2.24791 0)
(0.487501 2.41241 0)
(0.410332 2.21767 0)
(0.260143 1.47444 0)
(0.600065 0.184412 0)
(1.05275 -1.03181 0)
(1.53871 -1.66093 0)
(1.71669 -1.72991 0)
(2.02279 -1.56296 0)
(2.00763 -1.20126 0)
(2.27567 -0.906735 0)
(2.55148 -0.435652 0)
(-0.532354 0.771805 0)
(-1.3721 0.874838 0)
(-1.32364 -0.547191 0)
(-1.28234 -1.48876 0)
(-1.01994 -1.40727 0)
(-0.57274 -0.490038 0)
(-0.183795 0.546297 0)
(0.0956143 1.55285 0)
(0.162937 2.20837 0)
(0.54415 2.36706 0)
(0.471467 2.241 0)
(0.433116 1.43885 0)
(0.892265 0.0801693 0)
(1.39791 -1.15412 0)
(1.87114 -1.75182 0)
(1.9896 -1.79011 0)
(2.23254 -1.59328 0)
(2.17552 -1.22569 0)
(2.34122 -0.968366 0)
(2.58883 -0.472708 0)
(-0.370664 1.07224 0)
(-1.16116 0.925165 0)
(-1.07207 -0.563763 0)
(-1.08373 -1.53449 0)
(-0.968242 -1.47876 0)
(-0.699905 -0.59722 0)
(-0.263055 0.489939 0)
(-0.135202 1.51704 0)
(0.31703 2.12798 0)
(0.64691 2.32179 0)
(0.604413 2.24311 0)
(0.746436 1.35548 0)
(1.3387 -0.0813646 0)
(1.87948 -1.30589 0)
(2.31412 -1.84588 0)
(2.3499 -1.83905 0)
(2.4899 -1.61247 0)
(2.38641 -1.23219 0)
(2.44385 -1.0191 0)
(2.62497 -0.511073 0)
(0.0256927 1.43259 0)
(-0.410944 1.12457 0)
(-0.632202 -0.52759 0)
(-0.533095 -1.54991 0)
(-0.647439 -1.52075 0)
(-0.664471 -0.696672 0)
(-0.344292 0.38264 0)
(-0.058197 1.37673 0)
(0.563763 1.95418 0)
(0.829262 2.25345 0)
(0.89058 2.19094 0)
(1.23544 1.20301 0)
(1.95185 -0.292451 0)
(2.49947 -1.4752 0)
(2.85788 -1.92968 0)
(2.79698 -1.85201 0)
(2.79071 -1.60052 0)
(2.62772 -1.2084 0)
(2.59043 -1.0387 0)
(2.66193 -0.53844 0)
(0.78846 1.54881 0)
(0.444327 1.26664 0)
(-0.000322756 -0.47365 0)
(0.210037 -1.52691 0)
(0.0201737 -1.44627 0)
(-0.232641 -0.700767 0)
(-0.0901553 0.273606 0)
(0.299813 1.18876 0)
(0.85184 1.79051 0)
(1.09665 2.18154 0)
(1.30529 2.09515 0)
(1.80199 1.01002 0)
(2.63003 -0.511857 0)
(3.14607 -1.62015 0)
(3.36875 -1.97791 0)
(3.2055 -1.81935 0)
(3.0668 -1.54597 0)
(2.82681 -1.15843 0)
(2.73835 -1.02257 0)
(2.70329 -0.544966 0)
(1.43709 1.40798 0)
(1.23075 1.41767 0)
(0.787453 -0.438039 0)
(0.924404 -1.5865 0)
(0.807453 -1.39571 0)
(0.50122 -0.690802 0)
(0.447732 0.159465 0)
(0.76495 1.00145 0)
(1.17719 1.64501 0)
(1.44914 2.07413 0)
(1.79321 1.9381 0)
(2.40482 0.769874 0)
(3.3006 -0.752916 0)
(3.74129 -1.74248 0)
(3.81136 -1.98275 0)
(3.5292 -1.74878 0)
(3.29574 -1.45745 0)
(2.98317 -1.08585 0)
(2.86373 -0.983276 0)
(2.74258 -0.533309 0)
(1.72337 1.32666 0)
(1.83749 1.54 0)
(1.85667 -0.343248 0)
(1.69062 -1.5597 0)
(1.51617 -1.3234 0)
(1.28099 -0.554591 0)
(1.05243 0.187525 0)
(1.20783 0.922605 0)
(1.5324 1.53938 0)
(1.88473 1.93649 0)
(2.32147 1.74688 0)
(3.0415 0.510162 0)
(3.94222 -0.977523 0)
(4.22499 -1.81871 0)
(4.13168 -1.93682 0)
(3.73185 -1.64046 0)
(3.4436 -1.3428 0)
(3.07908 -0.998655 0)
(2.9605 -0.92516 0)
(2.77944 -0.508314 0)
(2.13051 1.39974 0)
(2.44858 1.48492 0)
(2.8999 -0.319735 0)
(2.54816 -1.46725 0)
(2.15824 -1.33144 0)
(2.04053 -0.542511 0)
(1.79477 0.193775 0)
(1.70308 0.827934 0)
(1.95571 1.38522 0)
(2.38 1.7569 0)
(2.84475 1.5274 0)
(3.6736 0.234398 0)
(4.48775 -1.16352 0)
(4.54741 -1.83155 0)
(4.29744 -1.83586 0)
(3.79875 -1.50614 0)
(3.5085 -1.21553 0)
(3.1211 -0.907157 0)
(3.01603 -0.864365 0)
(2.80826 -0.472971 0)
(2.75479 1.53765 0)
(3.19931 1.36679 0)
(3.87688 -0.329131 0)
(3.34748 -1.28071 0)
(2.72088 -1.15441 0)
(2.43875 -0.4084 0)
(2.31648 0.328766 0)
(2.20036 0.849825 0)
(2.40926 1.26744 0)
(2.79747 1.57132 0)
(3.32219 1.28034 0)
(4.25209 -0.0366504 0)
(4.8564 -1.28041 0)
(4.65264 -1.77857 0)
(4.28334 -1.69517 0)
(3.73961 -1.35841 0)
(3.48104 -1.09135 0)
(3.12657 -0.818405 0)
(3.02794 -0.806961 0)
(2.83204 -0.43506 0)
(3.18689 1.6073 0)
(3.94172 1.21393 0)
(4.60321 -0.290249 0)
(3.78599 -1.09221 0)
(3.13599 -1.07844 0)
(2.91574 -0.402876 0)
(2.7526 0.318047 0)
(2.69101 0.809352 0)
(2.95066 1.1506 0)
(3.21046 1.39016 0)
(3.85219 1.00878 0)
(4.692 -0.265071 0)
(4.97922 -1.30033 0)
(4.55945 -1.65481 0)
(4.13045 -1.52415 0)
(3.6115 -1.21358 0)
(3.40328 -0.98669 0)