/*--------------------------------*- C++ -*----------------------------------*\
| =========                 |                                                 |
| \\      /  F ield         | OpenFOAM: The Open Source CFD Toolbox           |
|  \\    /   O peration     | Version:  v1806                                 |
|   \\  /    A nd           | Web:      www.OpenFOAM.com                      |
|    \\/     M anipulation  |                                                 |
\*---------------------------------------------------------------------------*/
FoamFile
{
    version     2.0;
    format      ascii;
    class       volVectorField;
    location    "8";
    object      U;
}
// * * * * * * * * * * * * * * * * * * * * * * * * * * * * * * * * * * * * * //

dimensions      [0 1 -1 0 0 0 0];


internalField   nonuniform List<vector> 
2400
(
(3.00107 -0.0123624 0)
(2.99866 -0.0314625 0)
(3.00148 -0.061702 0)
(2.99881 -0.0836941 0)
(3.00084 -0.115048 0)
(2.99902 -0.136405 0)
(3.00113 -0.170232 0)
(2.99978 -0.191558 0)
(3.00051 -0.225586 0)
(3.00144 -0.252536 0)
(2.99988 -0.280356 0)
(3.00273 -0.304674 0)
(3.00057 -0.331647 0)
(3.00596 -0.364123 0)
(3.00138 -0.381632 0)
(3.00857 -0.411469 0)
(3.00469 -0.427233 0)
(3.01269 -0.459852 0)
(3.00985 -0.466109 0)
(3.01797 -0.494504 0)
(3.00108 -0.012267 0)
(2.99856 -0.0314237 0)
(3.00193 -0.0623615 0)
(2.9986 -0.082639 0)
(3.00136 -0.115721 0)
(2.99883 -0.136081 0)
(3.00237 -0.171282 0)
(2.99999 -0.19069 0)
(3.00207 -0.227418 0)
(3.00269 -0.251952 0)
(3.00193 -0.28133 0)
(3.00557 -0.305225 0)
(3.00395 -0.334149 0)
(3.01174 -0.365421 0)
(3.00652 -0.383201 0)
(3.01779 -0.414707 0)
(3.01306 -0.429894 0)
(3.02639 -0.464212 0)
(3.02203 -0.468956 0)
(3.03709 -0.500917 0)
(3.00088 -0.0121927 0)
(2.99866 -0.0315192 0)
(3.00219 -0.0626989 0)
(2.99825 -0.0820066 0)
(3.00193 -0.116431 0)
(2.99875 -0.135917 0)
(3.00349 -0.17214 0)
(2.99995 -0.190462 0)
(3.0037 -0.229198 0)
(3.00332 -0.251952 0)
(3.0041 -0.282899 0)
(3.00773 -0.306401 0)
(3.00724 -0.337124 0)
(3.01586 -0.36767 0)
(3.01117 -0.386183 0)
(3.02466 -0.418729 0)
(3.01988 -0.433638 0)
(3.03645 -0.469617 0)
(3.03191 -0.473534 0)
(3.04997 -0.508496 0)
(3.00063 -0.0121121 0)
(2.99873 -0.0315976 0)
(3.00241 -0.063148 0)
(2.99778 -0.0810745 0)
(3.00239 -0.117455 0)
(2.99845 -0.135639 0)
(3.0045 -0.173487 0)
(2.9996 -0.189899 0)
(3.00505 -0.231931 0)
(3.00374 -0.251633 0)
(3.00584 -0.285267 0)
(3.00956 -0.307871 0)
(3.00975 -0.341603 0)
(3.02005 -0.370303 0)
(3.01483 -0.390212 0)
(3.03163 -0.423982 0)
(3.02547 -0.438816 0)
(3.04665 -0.476544 0)
(3.0391 -0.479202 0)
(3.06377 -0.51828 0)
(3.00021 -0.0119335 0)
(2.99902 -0.0317922 0)
(3.00227 -0.0633234 0)
(2.99725 -0.0803592 0)
(3.00267 -0.118592 0)
(2.99804 -0.135388 0)
(3.00522 -0.174857 0)
(2.99881 -0.189508 0)
(3.00627 -0.2349 0)
(3.00336 -0.251269 0)
(3.00746 -0.288525 0)
(3.01052 -0.309637 0)
(3.01198 -0.347015 0)
(3.02283 -0.373423 0)
(3.01829 -0.395664 0)
(3.0374 -0.430042 0)
(3.03036 -0.445389 0)
(3.05577 -0.484685 0)
(3.047 -0.486275 0)
(3.07643 -0.529101 0)
(2.99968 -0.0116959 0)
(2.99943 -0.0318874 0)
(3.00165 -0.0634788 0)
(2.99687 -0.0795214 0)
(3.00257 -0.119964 0)
(2.99752 -0.134927 0)
(3.00536 -0.176495 0)
(2.99778 -0.188851 0)
(3.0068 -0.238295 0)
(3.00237 -0.250574 0)
(3.00824 -0.292769 0)
(3.01069 -0.311496 0)
(3.01294 -0.353593 0)
(3.02469 -0.376863 0)
(3.02053 -0.402583 0)
(3.04238 -0.436865 0)
(3.03362 -0.453348 0)
(3.06393 -0.493971 0)
(3.05182 -0.494656 0)
(3.08874 -0.541837 0)
(2.99914 -0.0112538 0)
(2.9998 -0.0319006 0)
(3.00046 -0.0634697 0)
(2.99658 -0.0787083 0)
(3.00202 -0.121384 0)
(2.99678 -0.134204 0)
(3.00481 -0.178297 0)
(2.99635 -0.187939 0)
(3.0065 -0.241718 0)
(3.00024 -0.249599 0)
(3.00801 -0.297994 0)
(3.00939 -0.313141 0)
(3.01255 -0.361159 0)
(3.02468 -0.380675 0)
(3.02151 -0.411297 0)
(3.04559 -0.444086 0)
(3.03565 -0.46299 0)
(3.07095 -0.504534 0)
(3.05723 -0.504563 0)
(3.0999 -0.555199 0)
(2.99875 -0.0102648 0)
(2.99981 -0.0321569 0)
(2.99858 -0.06304 0)
(2.99641 -0.0781099 0)
(3.00061 -0.122481 0)
(2.99596 -0.133208 0)
(3.00296 -0.180077 0)
(2.99484 -0.186543 0)
(3.00431 -0.244937 0)
(2.99736 -0.248157 0)
(3.00548 -0.30394 0)
(3.00685 -0.314305 0)
(3.00965 -0.369646 0)
(3.02295 -0.384633 0)
(3.01995 -0.422157 0)
(3.04716 -0.451783 0)
(3.0361 -0.475073 0)
(3.07629 -0.516209 0)
(3.06012 -0.516683 0)
(3.11004 -0.569428 0)
(2.99872 -0.00801037 0)
(2.99904 -0.0336431 0)
(2.99602 -0.0613233 0)
(2.99624 -0.0787461 0)
(2.99801 -0.122054 0)
(2.99525 -0.132446 0)
(2.99904 -0.180863 0)
(2.9935 -0.184968 0)
(2.99918 -0.247152 0)
(2.99415 -0.246476 0)
(2.99957 -0.309896 0)
(3.00306 -0.314872 0)
(3.00353 -0.378492 0)
(3.01908 -0.388923 0)
(3.01554 -0.435128 0)
(3.04599 -0.460412 0)
(3.03557 -0.490027 0)
(3.07955 -0.529856 0)
(3.06571 -0.53252 0)
(3.11749 -0.583721 0)
(2.99901 -0.00342783 0)
(2.99762 -0.0378378 0)
(2.99269 -0.0569123 0)
(2.99655 -0.0822455 0)
(2.99368 -0.117889 0)
(2.99555 -0.133827 0)
(2.99188 -0.178353 0)
(2.99332 -0.185013 0)
(2.98959 -0.246433 0)
(2.99212 -0.245832 0)
(2.98871 -0.313853 0)
(2.99908 -0.315665 0)
(2.99305 -0.386413 0)
(3.01337 -0.393813 0)
(3.00786 -0.44943 0)
(3.04103 -0.470844 0)
(3.03465 -0.507679 0)
(3.07806 -0.546689 0)
(3.07309 -0.552385 0)
(3.12093 -0.605038 0)
(2.99975 0.00412209 0)
(2.99578 -0.0458844 0)
(2.98912 -0.0484875 0)
(2.99762 -0.0899871 0)
(2.98769 -0.107783 0)
(2.99728 -0.139985 0)
(2.98142 -0.169395 0)
(2.99457 -0.190378 0)
(2.97573 -0.23913 0)
(2.99174 -0.250088 0)
(2.97313 -0.311848 0)
(2.99503 -0.320056 0)
(2.9784 -0.390326 0)
(3.00488 -0.400585 0)
(2.99754 -0.463787 0)
(3.03008 -0.482331 0)
(3.03455 -0.530536 0)
(3.06904 -0.563618 0)
(3.08518 -0.578885 0)
(3.11805 -0.62337 0)
(3.00195 0.0144139 0)
(2.99333 -0.0575744 0)
(2.9874 -0.0357594 0)
(2.99816 -0.101812 0)
(2.98191 -0.0911363 0)
(2.99884 -0.152038 0)
(2.9698 -0.15157 0)
(2.99547 -0.204274 0)
(2.96019 -0.220572 0)
(2.99047 -0.264938 0)
(2.95547 -0.296522 0)
(2.98788 -0.336336 0)
(2.96167 -0.381069 0)
(2.9896 -0.418546 0)
(2.98639 -0.468089 0)
(3.00787 -0.502776 0)
(3.03608 -0.552589 0)
(3.04778 -0.585527 0)
(3.10533 -0.611007 0)
(3.10364 -0.647818 0)
(3.00927 0.0255458 0)
(2.98613 -0.0703091 0)
(2.99287 -0.0210323 0)
(2.99173 -0.1145 0)
(2.98284 -0.0710581 0)
(2.99247 -0.166234 0)
(2.96425 -0.127628 0)
(2.98804 -0.223383 0)
(2.94918 -0.192184 0)
(2.9801 -0.289071 0)
(2.94004 -0.266335 0)
(2.97036 -0.367029 0)
(2.94434 -0.352884 0)
(2.96179 -0.455417 0)
(2.97288 -0.452331 0)
(2.96734 -0.542231 0)
(3.03449 -0.564134 0)
(3.00783 -0.61873 0)
(3.12089 -0.652024 0)
(3.0776 -0.684791 0)
(3.0287 0.0362015 0)
(2.9653 -0.0824013 0)
(3.01538 -0.00613318 0)
(2.9664 -0.125626 0)
(3.00299 -0.050447 0)
(2.96312 -0.178768 0)
(2.97958 -0.101467 0)
(2.95545 -0.242159 0)
(2.95645 -0.158473 0)
(2.94438 -0.316459 0)
(2.93659 -0.225014 0)
(2.93007 -0.408188 0)
(2.92989 -0.305789 0)
(2.91496 -0.514336 0)
(2.9528 -0.409023 0)
(2.90726 -0.613073 0)
(3.02184 -0.551699 0)
(2.9442 -0.675158 0)
(3.11977 -0.700793 0)
(3.05456 -0.722391 0)
(3.06628 0.0453078 0)
(2.92368 -0.0915756 0)
(3.06327 0.00775704 0)
(2.91379 -0.132568 0)
(3.05334 -0.0314891 0)
(2.89973 -0.185286 0)
(3.03018 -0.0767126 0)
(2.88371 -0.25284 0)
(2.99948 -0.12536 0)
(2.86773 -0.335943 0)
(2.96283 -0.180551 0)
(2.85395 -0.446091 0)
(2.93073 -0.247637 0)
(2.8454 -0.584628 0)
(2.92849 -0.33807 0)
(2.83875 -0.722614 0)
(2.99508 -0.500614 0)
(2.86775 -0.779664 0)
(3.11446 -0.743653 0)
(3.05259 -0.775049 0)
(3.12063 0.0496284 0)
(2.86436 -0.0923879 0)
(3.13392 0.0172233 0)
(2.84003 -0.131362 0)
(3.13179 -0.0181322 0)
(2.80984 -0.181672 0)
(3.11756 -0.0578318 0)
(2.77886 -0.248736 0)
(3.08859 -0.0997216 0)
(2.75108 -0.335999 0)
(3.04105 -0.144992 0)
(2.73575 -0.461045 0)
(2.97814 -0.196127 0)
(2.74696 -0.638229 0)
(2.92398 -0.259851 0)
(2.77564 -0.849868 0)
(2.95987 -0.411946 0)
(2.81217 -0.954302 0)
(3.12684 -0.765701 0)
(3.05014 -0.883151 0)
(3.17737 0.0485428 0)
(2.80557 -0.0846941 0)
(3.20393 0.0193646 0)
(2.76936 -0.121824 0)
(3.2121 -0.0133301 0)
(2.72307 -0.167747 0)
(3.21469 -0.0490508 0)
(2.67156 -0.229945 0)
(3.20391 -0.0880819 0)
(2.6191 -0.314434 0)
(3.17231 -0.129002 0)
(2.58344 -0.443649 0)
(3.10701 -0.169167 0)
(2.59855 -0.6489 0)
(2.9985 -0.208527 0)
(2.68871 -0.945534 0)
(2.93425 -0.314121 0)
(2.80306 -1.18378 0)
(3.12073 -0.747926 0)
(3.01822 -1.04609 0)
(3.20075 0.0451651 0)
(2.78571 -0.0752057 0)
(3.23174 0.0177424 0)
(2.74672 -0.109545 0)
(3.24652 -0.0121112 0)
(2.69062 -0.149559 0)
(3.26445 -0.0451064 0)
(2.61866 -0.204193 0)
(3.27993 -0.0844419 0)
(2.52889 -0.279321 0)
(3.28919 -0.130238 0)
(2.43689 -0.398131 0)
(3.27659 -0.179983 0)
(2.38784 -0.603374 0)
(3.196 -0.216642 0)
(2.48303 -0.957308 0)
(3.00354 -0.272355 0)
(2.75406 -1.38522 0)
(3.01178 -0.677517 0)
(2.99329 -1.31024 0)
(3.14827 0.0396182 0)
(2.84698 -0.0666038 0)
(3.17326 0.0154351 0)
(2.81526 -0.0986298 0)
(3.18422 -0.0093169 0)
(2.76152 -0.134983 0)
(3.20207 -0.0371237 0)
(2.68333 -0.18412 0)
(3.22722 -0.073066 0)
(2.56788 -0.250462 0)
(3.26616 -0.122539 0)
(2.40938 -0.352339 0)
(3.3221 -0.194522 0)
(2.2229 -0.528623 0)
(3.36985 -0.284089 0)
(2.11154 -0.87183 0)
(3.30974 -0.364413 0)
(2.36443 -1.50757 0)
(3.07516 -0.561408 0)
(2.98763 -2.02108 0)
(3.04637 0.0312157 0)
(2.95786 -0.0563015 0)
(3.0565 0.0116018 0)
(2.93838 -0.0856417 0)
(3.04824 -0.00656644 0)
(2.89984 -0.119068 0)
(3.03882 -0.0261027 0)
(2.84086 -0.165088 0)
(3.02835 -0.0508293 0)
(2.74588 -0.229479 0)
(3.02492 -0.0865308 0)
(2.5953 -0.329624 0)
(3.04815 -0.149033 0)
(2.35655 -0.49241 0)
(3.12992 -0.268417 0)
(2.0091 -0.785195 0)
(3.29385 -0.485744 0)
(1.71134 -1.44204 0)
(3.55174 -0.796841 0)
(2.5981 -3.0938 0)
(3.01703 -0.496353 0)
(3.02073 -0.507188 0)
(3.0213 -0.506927 0)
(3.0249 -0.518982 0)
(3.0253 -0.517245 0)
(3.02876 -0.530474 0)
(3.02978 -0.526218 0)
(3.03302 -0.54079 0)
(3.03486 -0.532829 0)
(3.03751 -0.549445 0)
(3.03869 -0.502266 0)
(3.04457 -0.515683 0)
(3.04334 -0.51458 0)
(3.04937 -0.528982 0)
(3.04914 -0.52539 0)
(3.05618 -0.541252 0)
(3.05649 -0.534586 0)
(3.06374 -0.552393 0)
(3.06452 -0.541585 0)
(3.07153 -0.562106 0)
(3.04713 -0.50849 0)
(3.05552 -0.522989 0)
(3.05554 -0.520696 0)
(3.06493 -0.536877 0)
(3.06359 -0.531725 0)
(3.07319 -0.549946 0)
(3.07152 -0.541146 0)
(3.08185 -0.562015 0)
(3.0802 -0.548454 0)
(3.09098 -0.5729 0)
(3.06292 -0.516267 0)
(3.0734 -0.532966 0)
(3.07007 -0.528921 0)
(3.08145 -0.547894 0)
(3.07809 -0.540313 0)
(3.09126 -0.562124 0)
(3.0873 -0.550096 0)
(3.10176 -0.575508 0)
(3.09727 -0.557875 0)
(3.11278 -0.588048 0)
(3.06994 -0.524999 0)
(3.08359 -0.543763 0)
(3.08047 -0.537864 0)
(3.09606 -0.559755 0)
(3.09034 -0.54952 0)
(3.10728 -0.575237 0)
(3.09997 -0.559647 0)
(3.11903 -0.590208 0)
(3.11053 -0.567995 0)
(3.13154 -0.604882 0)
(3.083 -0.535164 0)
(3.09911 -0.556349 0)
(3.09156 -0.548165 0)
(3.10961 -0.573211 0)
(3.10044 -0.559786 0)
(3.12169 -0.589799 0)
(3.11032 -0.570033 0)
(3.1345 -0.606432 0)
(3.12101 -0.578986 0)
(3.14806 -0.623641 0)
(3.08763 -0.545957 0)
(3.10732 -0.569172 0)
(3.09919 -0.558669 0)
(3.12195 -0.586741 0)
(3.10927 -0.569947 0)
(3.13479 -0.604259 0)
(3.11848 -0.58006 0)
(3.14772 -0.622598 0)
(3.12829 -0.58957 0)
(3.16129 -0.642742 0)
(3.09912 -0.557914 0)
(3.12104 -0.583179 0)
(3.10892 -0.57054 0)
(3.13373 -0.601093 0)
(3.11796 -0.580849 0)
(3.14665 -0.618812 0)
(3.12633 -0.590053 0)
(3.15866 -0.638237 0)
(3.13429 -0.599496 0)
(3.17041 -0.660941 0)
(3.10312 -0.571115 0)
(3.12633 -0.597542 0)
(3.11749 -0.582914 0)
(3.14429 -0.614583 0)
(3.1293 -0.590943 0)
(3.15697 -0.631294 0)
(3.1365 -0.597988 0)
(3.16598 -0.650493 0)
(3.14188 -0.605802 0)
(3.17308 -0.674396 0)
(3.11574 -0.587232 0)
(3.13598 -0.610153 0)
(3.1334 -0.592379 0)
(3.1541 -0.623643 0)
(3.14674 -0.597241 0)
(3.16487 -0.638511 0)
(3.15404 -0.600794 0)
(3.16911 -0.655641 0)
(3.15738 -0.60458 0)
(3.16794 -0.678258 0)
(3.13923 -0.605575 0)
(3.1472 -0.627405 0)
(3.15744 -0.608839 0)
(3.16018 -0.637922 0)
(3.17271 -0.608374 0)
(3.16813 -0.647228 0)
(3.18284 -0.60427 0)
(3.16626 -0.657855 0)
(3.18575 -0.599217 0)
(3.15375 -0.674065 0)
(3.1578 -0.630674 0)
(3.14548 -0.649546 0)
(3.18557 -0.629762 0)
(3.16265 -0.653984 0)
(3.21108 -0.620381 0)
(3.16981 -0.653466 0)
(3.22684 -0.604282 0)
(3.16113 -0.652843 0)
(3.23137 -0.585437 0)
(3.1368 -0.65718 0)
(3.18256 -0.663354 0)
(3.14529 -0.67552 0)
(3.2207 -0.653188 0)
(3.16578 -0.670503 0)
(3.25896 -0.632491 0)
(3.17502 -0.656994 0)
(3.28392 -0.601312 0)
(3.16225 -0.641056 0)
(3.29349 -0.565262 0)
(3.12954 -0.62857 0)
(3.20492 -0.701693 0)
(3.14892 -0.713823 0)
(3.25472 -0.691018 0)
(3.18077 -0.700478 0)
(3.3136 -0.655732 0)
(3.20089 -0.668303 0)
(3.35255 -0.603287 0)
(3.1899 -0.630217 0)
(3.37064 -0.541582 0)
(3.1523 -0.592661 0)
(3.20715 -0.767969 0)
(3.15797 -0.783838 0)
(3.29091 -0.756355 0)
(3.23577 -0.754727 0)
(3.39057 -0.702713 0)
(3.28362 -0.69957 0)
(3.44931 -0.627509 0)
(3.28647 -0.628606 0)
(3.47927 -0.529269 0)
(3.25615 -0.542823 0)
(3.21114 -0.890099 0)
(3.21991 -0.901664 0)
(3.38228 -0.850255 0)
(3.36871 -0.839539 0)
(3.52279 -0.772288 0)
(3.44748 -0.763329 0)
(3.60657 -0.674615 0)
(3.48164 -0.659645 0)
(3.65661 -0.525718 0)
(3.44869 -0.505924 0)
(3.29657 -1.11407 0)
(3.40628 -1.09894 0)
(3.59107 -1.02126 0)
(3.58784 -0.992643 0)
(3.71404 -0.886826 0)
(3.65535 -0.850241 0)
(3.78773 -0.719758 0)
(3.716 -0.672361 0)
(3.85826 -0.503906 0)
(3.70797 -0.474826 0)
(3.46928 -1.48187 0)
(3.6965 -1.37987 0)
(3.85683 -1.35515 0)
(3.80781 -1.3011 0)
(3.9158 -1.19341 0)
(3.78677 -1.09511 0)
(3.89264 -0.903866 0)
(3.72815 -0.620397 0)
(3.81425 -0.325621 0)
(3.54147 -0.0679864 0)
(3.50745 -1.52072 0)
(3.71903 -1.05253 0)
(3.56391 -1.04869 0)
(3.47012 -0.886759 0)
(3.56742 -0.783232 0)
(3.38363 -0.878569 0)
(3.68742 -0.746026 0)
(3.6345 -0.612051 0)
(3.66898 -0.413828 0)
(3.23926 -0.294093 0)
(3.88968 -2.4157 0)
(3.20036 -1.84586 0)
(2.20685 -1.90096 0)
(1.74858 -1.19099 0)
(1.43134 -1.66464 0)
(0.66772 -1.67689 0)
(0.300059 -0.525231 0)
(0.0571823 0.141122 0)
(0.0920889 0.449313 0)
(0.0210793 0.740093 0)
(3.0534 -0.479754 0)
(3.02156 -0.620922 0)
(3.14707 -0.463127 0)
(3.26629 -0.42865 0)
(3.25397 -0.269887 0)
(3.11685 -0.208111 0)
(3.02173 -0.478142 0)
(3.10768 -0.86368 0)
(3.26727 -1.09799 0)
(3.2877 -1.19098 0)
(2.93005 -1.25335 0)
(2.24035 -1.31865 0)
(1.54256 -1.33948 0)
(1.01715 -1.27496 0)
(0.660603 -1.13033 0)
(0.426687 -0.942614 0)
(0.274732 -0.744743 0)
(0.173584 -0.550049 0)
(0.111108 -0.364044 0)
(0.0696716 -0.143974 0)
(3.08059 -0.474955 0)
(3.05688 -0.651496 0)
(3.27812 -0.504497 0)
(3.40235 -0.456004 0)
(3.32969 -0.246262 0)
(3.08847 -0.162828 0)
(2.9882 -0.474161 0)
(3.15659 -0.91226 0)
(3.2946 -1.13263 0)
(3.13742 -1.12178 0)
(2.61883 -1.03677 0)
(1.97401 -1.0308 0)
(1.44137 -1.08706 0)
(1.03622 -1.09405 0)
(0.729942 -1.01105 0)
(0.508515 -0.866987 0)
(0.354726 -0.697419 0)
(0.246105 -0.520931 0)
(0.175097 -0.346649 0)
(0.12206 -0.137624 0)
(3.08415 -0.467006 0)
(3.07267 -0.692321 0)
(3.37555 -0.525167 0)
(3.47779 -0.445836 0)
(3.32339 -0.197663 0)
(3.02877 -0.125566 0)
(2.98267 -0.494233 0)
(3.14997 -0.937374 0)
(3.1942 -1.09572 0)
(2.99043 -1.03831 0)
(2.54167 -0.984125 0)
(1.96302 -1.03077 0)
(1.43186 -1.09951 0)
(1.01921 -1.09354 0)
(0.719086 -0.997745 0)
(0.509196 -0.848398 0)
(0.366097 -0.679113 0)
(0.268894 -0.505506 0)
(0.210343 -0.335075 0)
(0.168561 -0.132437 0)
(3.08863 -0.455518 0)
(3.09673 -0.749133 0)
(3.50483 -0.564413 0)
(3.59492 -0.445232 0)
(3.35252 -0.146711 0)
(2.99205 -0.0869897 0)
(2.97661 -0.506959 0)
(3.15263 -0.958771 0)
(3.14829 -1.08626 0)
(2.8188 -0.968448 0)
(2.23613 -0.810476 0)
(1.70293 -0.797736 0)
(1.33251 -0.893604 0)
(1.03367 -0.947519 0)
(0.776662 -0.905223 0)
(0.573572 -0.792443 0)
(0.423893 -0.645176 0)
(0.316163 -0.484936 0)
(0.251793 -0.323404 0)
(0.212154 -0.128283 0)
(3.08279 -0.441381 0)
(3.12646 -0.826776 0)
(3.64764 -0.604094 0)
(3.70135 -0.419128 0)
(3.35076 -0.0683739 0)
(2.94466 -0.0417232 0)
(2.98928 -0.533588 0)
(3.11581 -0.975126 0)
(2.96524 -1.0157 0)
(2.57496 -0.835375 0)
(2.10872 -0.73285 0)
(1.67537 -0.801766 0)
(1.31143 -0.914809 0)
(1.00669 -0.945527 0)
(0.763161 -0.882526 0)
(0.579269 -0.763658 0)
(0.446314 -0.619657 0)
(0.349111 -0.46596 0)
(0.288942 -0.312001 0)
(0.252412 -0.124363 0)
(3.06909 -0.425523 0)
(3.15969 -0.923891 0)
(3.81373 -0.652864 0)
(3.81809 -0.381826 0)
(3.34455 0.0234167 0)
(2.91754 -0.00589666 0)
(2.99291 -0.554552 0)
(3.03507 -0.95373 0)
(2.81143 -0.95329 0)
(2.33804 -0.760114 0)
(1.80475 -0.60526 0)
(1.45555 -0.63585 0)
(1.23582 -0.762878 0)
(1.0215 -0.836887 0)
(0.80858 -0.814509 0)
(0.626079 -0.721114 0)
(0.48663 -0.59164 0)
(0.385518 -0.447254 0)
(0.324806 -0.301228 0)
(0.289817 -0.120802 0)
(3.04663 -0.407169 0)
(3.19285 -1.0484 0)
(3.99673 -0.706225 0)
(3.93076 -0.320624 0)
(3.32455 0.131465 0)
(2.89375 0.0348534 0)
(2.99058 -0.564173 0)
(2.91645 -0.929583 0)
(2.52918 -0.844135 0)
(2.0412 -0.615085 0)
(1.65628 -0.539171 0)
(1.40808 -0.652145 0)
(1.20197 -0.787492 0)
(0.991787 -0.830778 0)
(0.798865 -0.786433 0)
(0.63902 -0.689449 0)
(0.51373 -0.565411 0)
(0.41794 -0.42853 0)
(0.358552 -0.290541 0)
(0.324565 -0.117401 0)
(3.02801 -0.387026 0)
(3.1928 -1.19844 0)
(4.17609 -0.768513 0)
(4.02967 -0.237234 0)
(3.29455 0.258645 0)
(2.89275 0.0655439 0)
(2.95474 -0.563594 0)
(2.72054 -0.846709 0)
(2.26983 -0.744589 0)
(1.75393 -0.544552 0)
(1.40996 -0.459578 0)
(1.27048 -0.549214 0)
(1.16371 -0.68539 0)
(1.00914 -0.755404 0)
(0.832268 -0.736603 0)
(0.671678 -0.654742 0)
(0.544943 -0.539963 0)
(0.449567 -0.410404 0)
(0.390581 -0.280088 0)
(0.356918 -0.114099 0)
(3.03894 -0.359409 0)
(3.10206 -1.37531 0)
(4.3075 -0.84277 0)
(4.10541 -0.131181 0)
(3.25659 0.387038 0)
(2.88177 0.106224 0)
(2.8883 -0.531159 0)
(2.48761 -0.764414 0)
(1.90847 -0.605504 0)
(1.46407 -0.430629 0)
(1.27201 -0.435835 0)
(1.21147 -0.580699 0)
(1.12265 -0.706777 0)
(0.983032 -0.744113 0)
(0.830285 -0.707291 0)
(0.689095 -0.624184 0)
(0.571397 -0.515064 0)
(0.479113 -0.392398 0)
(0.420828 -0.269677 0)
(0.387065 -0.110813 0)
(3.12242 -0.31658 0)
(2.85459 -1.5658 0)
(4.33515 -0.947235 0)
(4.12026 -0.00679178 0)
(3.20777 0.530635 0)
(2.8881 0.141726 0)
(2.75636 -0.470054 0)
(2.19015 -0.625646 0)
(1.5927 -0.497946 0)
(1.20706 -0.384074 0)
(1.12801 -0.404191 0)
(1.15059 -0.528256 0)
(1.11401 -0.645252 0)
(1.00027 -0.694219 0)
(0.853661 -0.669584 0)
(0.713766 -0.594129 0)
(0.597991 -0.491216 0)
(0.507297 -0.374811 0)
(0.449432 -0.259306 0)
(0.415189 -0.107487 0)
(3.31498 -0.253924 0)
(2.45241 -1.74082 0)
(4.19675 -1.08125 0)
(4.06444 0.113854 0)
(3.13231 0.662282 0)
(2.85333 0.199663 0)
(2.59675 -0.375475 0)
(1.84547 -0.483938 0)
(1.25055 -0.370008 0)
(1.0144 -0.335687 0)
(1.04891 -0.426725 0)
(1.10642 -0.566122 0)
(1.08042 -0.658815 0)
(0.984573 -0.679103 0)
(0.85897 -0.641574 0)
(0.732327 -0.565938 0)
(0.622327 -0.467861 0)
(0.533873 -0.35744 0)
(0.476433 -0.248898 0)
(0.441439 -0.104075 0)
(3.61898 -0.166762 0)
(2.00049 -1.84532 0)
(3.89044 -1.25784 0)
(3.90374 0.234277 0)
(3.03764 0.792078 0)
(2.7925 0.256921 0)
(2.35355 -0.241434 0)
(1.5001 -0.31953 0)
(0.980772 -0.29049 0)
(0.887303 -0.330673 0)
(1.00151 -0.430477 0)
(1.09126 -0.544914 0)
(1.08515 -0.624471 0)
(0.99863 -0.645689 0)
(0.876559 -0.611354 0)
(0.753153 -0.538924 0)
(0.645936 -0.445312 0)
(0.559093 -0.340364 0)
(0.501917 -0.238427 0)
(0.46595 -0.100539 0)
(3.98867 -0.0824816 0)
(1.61763 -1.85167 0)
(3.4712 -1.45343 0)
(3.65283 0.307438 0)
(2.93728 0.894029 0)
(2.70824 0.348372 0)
(2.07024 -0.0812092 0)
(1.16423 -0.162193 0)
(0.801237 -0.224459 0)
(0.824901 -0.347918 0)
(0.971215 -0.473937 0)
(1.06395 -0.577445 0)
(1.06499 -0.630219 0)
(0.994091 -0.629145 0)
(0.886535 -0.5856 0)
(0.771491 -0.513049 0)
(0.668132 -0.423244 0)
(0.58293 -0.32349 0)
(0.52594 -0.22785 0)
(0.488838 -0.0968512 0)
(4.30601 0.0539011 0)
(1.32397 -1.75341 0)
(3.03 -1.6474 0)
(3.29022 0.37406 0)
(2.75613 0.981802 0)
(2.55557 0.450644 0)
(1.74009 0.107664 0)
(0.875692 -0.025398 0)
(0.706188 -0.20069 0)
(0.805728 -0.370669 0)
(0.968389 -0.490754 0)
(1.06789 -0.572704 0)
(1.07426 -0.61194 0)
(1.00648 -0.605343 0)
(0.902095 -0.559869 0)
(0.790448 -0.48818 0)
(0.689489 -0.401738 0)
(0.605512 -0.306812 0)
(0.548567 -0.21714 0)
(0.510204 -0.0929887 0)
(4.45672 0.124229 0)
(1.06781 -1.59777 0)
(2.62095 -1.8362 0)
(2.92572 0.396751 0)
(2.6406 1.03227 0)
(2.38063 0.580756 0)
(1.40033 0.304772 0)
(0.677575 0.0788908 0)
(0.663754 -0.204748 0)
(0.795739 -0.411082 0)
(0.95957 -0.532872 0)
(1.05717 -0.597051 0)
(1.06884 -0.612687 0)
(1.01104 -0.588937 0)
(0.915045 -0.536226 0)
(0.808336 -0.464066 0)
(0.70981 -0.380602 0)
(0.626863 -0.290267 0)
(0.569849 -0.206268 0)
(0.530133 -0.0889352 0)
(4.39154 0.412265 0)
(0.86202 -1.40643 0)
(2.26339 -2.02269 0)
(2.58102 0.389739 0)
(2.46669 1.06614 0)
(2.10332 0.729311 0)
(1.08282 0.493509 0)
(0.568129 0.148167 0)
(0.652812 -0.219824 0)
(0.805826 -0.442676 0)
(0.97426 -0.555189 0)
(1.07167 -0.601481 0)
(1.08224 -0.602785 0)
(1.0247 -0.570075 0)
(0.93073 -0.513044 0)
(0.826343 -0.440602 0)
(0.729339 -0.359803 0)
(0.647061 -0.27382 0)
(0.589836 -0.195209 0)
(0.5487 -0.0846786 0)
(4.15513 0.496182 0)
(0.657918 -1.24137 0)
(1.72192 -2.17821 0)
(2.20918 0.358258 0)
(2.26148 1.09695 0)
(1.81175 0.89417 0)
(0.818334 0.659567 0)
(0.495494 0.182427 0)
(0.644147 -0.251592 0)
(0.814028 -0.487162 0)
(0.983221 -0.592248 0)
(1.07843 -0.619358 0)
(1.09019 -0.600428 0)
(1.03639 -0.553914 0)
(0.945941 -0.490721 0)
(0.843865 -0.417544 0)
(0.748027 -0.339203 0)
(0.666137 -0.257413 0)
(0.608568 -0.18394 0)
(0.565967 -0.0802097 0)
(4.07361 1.16427 0)
(0.450685 -0.857928 0)
(0.882002 -2.3155 0)
(1.89773 0.276774 0)
(2.07552 1.12761 0)
(1.51326 1.06268 0)
(0.59639 0.799999 0)
(0.44448 0.191288 0)
(0.638186 -0.286356 0)
(0.826404 -0.525545 0)
(1.00201 -0.6184 0)
(1.09787 -0.627808 0)
(1.10772 -0.593583 0)
(1.05277 -0.536826 0)
(0.962629 -0.468618 0)
(0.861335 -0.394761 0)
(0.765976 -0.318723 0)
(0.684135 -0.240997 0)
(0.626079 -0.172442 0)
(0.581988 -0.0755226 0)
(3.55194 1.08247 0)
(-0.139081 -0.56687 0)
(-0.0122936 -2.51431 0)
(1.64928 0.0962646 0)
(1.93475 1.14831 0)
(1.20393 1.23361 0)
(0.419578 0.909791 0)
(0.39233 0.177032 0)
(0.623583 -0.332453 0)
(0.830374 -0.573871 0)
(1.0121 -0.653547 0)
(1.1115 -0.642509 0)
(1.12328 -0.589435 0)
(1.06921 -0.520423 0)
(0.979541 -0.446662 0)
(0.878526 -0.372046 0)
(0.783174 -0.298246 0)
(0.701076 -0.224514 0)
(0.642396 -0.160696 0)
(0.596804 -0.070613 0)
(1.67883 1.77626 0)
(-0.371859 -0.221937 0)
(-0.468884 -2.70554 0)
(1.43432 -0.15053 0)
(1.74497 1.2062 0)
(0.855602 1.4094 0)
(0.28335 0.985189 0)
(0.334823 0.147804 0)
(0.635881 -0.38656 0)
(0.860532 -0.621463 0)
(1.03684 -0.684696 0)
(1.13321 -0.654089 0)
(1.14367 -0.583852 0)
(1.08815 -0.503571 0)
(0.997314 -0.424578 0)
(0.895571 -0.349262 0)
(0.799654 -0.277678 0)
(0.71698 -0.207915 0)
(0.657537 -0.148676 0)
(0.610449 -0.0654753 0)
(0.690079 1.33206 0)
(-0.137261 -0.110337 0)
(-0.303477 -2.84706 0)
(1.2983 -0.379381 0)
(1.57396 1.26444 0)
(0.571974 1.54269 0)
(0.180325 1.01907 0)
(0.327375 0.107322 0)
(0.712344 -0.440786 0)
(0.936458 -0.661737 0)
(1.08103 -0.710325 0)
(1.15848 -0.664275 0)
(1.16281 -0.579457 0)
(1.10495 -0.489364 0)
(1.01251 -0.405935 0)
(0.909591 -0.330094 0)
(0.812786 -0.260384 0)
(0.729378 -0.193962 0)
(0.669184 -0.138411 0)
(0.620859 -0.0609986 0)
(0.160932 1.32006 0)
(0.0491625 -0.0661479 0)
(-0.044371 -2.94131 0)
(1.13508 -0.519481 0)
(1.40397 1.34288 0)
(0.348075 1.64195 0)
(0.0975405 1.0285 0)
(0.368525 0.0607387 0)
(0.809404 -0.487698 0)
(1.03091 -0.688794 0)
(1.13928 -0.724187 0)
(1.18904 -0.668774 0)
(1.1818 -0.574631 0)
(1.11963 -0.477533 0)
(1.02501 -0.390788 0)
(0.920733 -0.314615 0)
(0.822993 -0.246449 0)
(0.738867 -0.182731 0)
(0.678008 -0.130071 0)
(0.628691 -0.0573172 0)
(0.0533199 1.39812 0)
(0.395688 -0.0840969 0)
(0.186889 -2.99955 0)
(0.991196 -0.633508 0)
(1.25075 1.41211 0)
(0.143817 1.73435 0)
(0.0341543 1.01799 0)
(0.426182 0.00028431 0)
(0.904668 -0.538615 0)
(1.13478 -0.714499 0)
(1.21027 -0.73408 0)
(1.22678 -0.670447 0)
(1.20358 -0.568522 0)
(1.13529 -0.465125 0)
(1.03776 -0.375318 0)
(0.931754 -0.29893 0)
(0.832861 -0.232369 0)
(0.7479 -0.17139 0)
(0.686327 -0.121599 0)
(0.636025 -0.0535396 0)
(0.13173 1.2837 0)
(0.814853 -0.102553 0)
(0.553582 -2.99437 0)
(0.823927 -0.716101 0)
(1.05322 1.49132 0)
(-0.0353536 1.81788 0)
(0.0108591 0.988076 0)
(0.476479 -0.0697566 0)
(0.986223 -0.593024 0)
(1.24232 -0.738089 0)
(1.29463 -0.738011 0)
(1.27387 -0.667548 0)
(1.22918 -0.560313 0)
(1.15221 -0.451865 0)
(1.05082 -0.359432 0)
(0.942665 -0.282998 0)
(0.842396 -0.218122 0)
(0.756478 -0.159926 0)
(0.694138 -0.112992 0)
(0.642863 -0.0496677 0)
(0.199735 1.26361 0)
(1.26792 -0.162539 0)
(0.882907 -2.9419 0)
(0.698098 -0.739052 0)
(0.898659 1.58362 0)
(-0.186218 1.8902 0)
(0.0234454 0.94162 0)
(0.509517 -0.147356 0)
(1.0391 -0.654437 0)
(1.33529 -0.764259 0)
(1.3828 -0.738265 0)
(1.32808 -0.660083 0)
(1.25847 -0.549554 0)
(1.17043 -0.437498 0)
(1.06419 -0.343018 0)
(0.953449 -0.266765 0)
(0.851586 -0.20368 0)
(0.764597 -0.148327 0)
(0.701441 -0.104247 0)
(0.649207 -0.045703 0)
(0.150775 1.04285 0)
(1.74401 -0.240032 0)
(1.23167 -2.83195 0)
(0.627027 -0.768769 0)
(0.727239 1.6407 0)
(-0.31352 1.94755 0)
(0.0512667 0.88115 0)
(0.541045 -0.228406 0)
(1.06976 -0.720941 0)
(1.40779 -0.794547 0)
(1.46858 -0.73656 0)
(1.38746 -0.648147 0)
(1.29128 -0.535812 0)
(1.18996 -0.421761 0)
(1.07785 -0.325967 0)
(0.964094 -0.250182 0)
(0.860423 -0.189017 0)
(0.772251 -0.136579 0)
(0.708233 -0.0953613 0)
(0.655057 -0.041648 0)
(-0.0154417 1.01919 0)
(2.15787 -0.339223 0)
(1.55846 -2.71506 0)
(0.519822 -0.665688 0)
(0.560384 1.75759 0)
(-0.410673 1.98141 0)
(0.0920959 0.809753 0)
(0.598604 -0.308731 0)
(1.09296 -0.788152 0)
(1.45719 -0.828901 0)
(1.54545 -0.735114 0)
(1.44899 -0.632672 0)
(1.32706 -0.518944 0)
(1.21075 -0.404425 0)
(1.09178 -0.30817 0)
(0.974583 -0.233202 0)
(0.868896 -0.174111 0)
(0.779436 -0.12467 0)
(0.714512 -0.0863329 0)
(0.660414 -0.0375056 0)
(-0.0945266 0.669018 0)
(2.43473 -0.505542 0)
(1.87282 -2.598 0)
(0.610252 -0.690177 0)
(0.446662 1.80973 0)
(-0.481225 2.0173 0)
(0.170322 0.728142 0)
(0.697044 -0.38642 0)
(1.12641 -0.85231 0)
(1.48627 -0.865473 0)
(1.60863 -0.734817 0)
(1.50935 -0.614604 0)
(1.3649 -0.499031 0)
(1.23263 -0.38531 0)
(1.10594 -0.289518 0)
(0.984895 -0.215778 0)
(0.876995 -0.158939 0)
(0.786147 -0.112593 0)
(0.720273 -0.0771607 0)
(0.665276 -0.0332795 0)
(-0.168513 0.717051 0)
(2.60038 -0.61539 0)
(2.17268 -2.44734 0)
(0.538535 -0.423814 0)
(0.27785 1.93556 0)
(-0.476631 2.00909 0)
(0.298006 0.637546 0)
(0.829599 -0.460188 0)
(1.18344 -0.911351 0)
(1.50209 -0.904002 0)
(1.65554 -0.736793 0)
(1.56527 -0.594816 0)
(1.40363 -0.476278 0)
(1.25536 -0.364309 0)
(1.12027 -0.2699 0)
(0.995004 -0.197852 0)
(0.884713 -0.143474 0)
(0.792381 -0.100335 0)
(0.725517 -0.0678442 0)
(0.669643 -0.0289739 0)
(-0.499717 0.187354 0)
(2.59487 -0.915134 0)
(2.45242 -2.25241 0)
(0.726737 -0.5005 0)
(0.265933 1.98543 0)
(-0.494575 2.02219 0)
(0.458898 0.534738 0)
(0.977436 -0.528724 0)
(1.26789 -0.960966 0)
(1.51446 -0.943412 0)
(1.6859 -0.743425 0)
(1.6139 -0.574879 0)
(1.44181 -0.45099 0)
(1.27859 -0.341361 0)
(1.13465 -0.249236 0)
(1.00487 -0.17936 0)
(0.892039 -0.127673 0)
(0.79814 -0.0878618 0)
(0.730247 -0.0583776 0)
(0.673516 -0.024587 0)
(0.676154 0.6444 0)
(2.72419 -1.1625 0)
(2.83848 -1.86002 0)
(0.753784 0.237738 0)
(-0.0138935 2.23044 0)
(-0.38023 1.93588 0)
(0.720622 0.333641 0)
(1.21963 -0.631439 0)
(1.44304 -1.01901 0)
(1.54695 -0.997827 0)
(1.71188 -0.761496 0)
(1.67759 -0.546396 0)
(1.50022 -0.40755 0)
(1.31606 -0.301225 0)
(1.15773 -0.214095 0)
(1.02032 -0.148529 0)
(0.903198 -0.101548 0)
(0.806672 -0.0672859 0)
(0.737075 -0.0428173 0)
(0.678988 -0.0173368 0)
(3.56606 0.1598 0)
(3.31939 -1.34355 0)
(2.88497 -2.04637 0)
(1.85309 0.056192 0)
(0.18272 2.33166 0)
(0.153121 1.7872 0)
(1.08848 0.0943847 0)
(1.55176 -0.758054 0)
(1.7759 -1.03695 0)
(1.66161 -1.01357 0)
(1.69385 -0.781848 0)
(1.71162 -0.516692 0)
(1.56407 -0.344234 0)
(1.36527 -0.237503 0)
(1.1882 -0.159727 0)
(1.0394 -0.102809 0)
(0.915874 -0.0637613 0)
(0.815518 -0.0378691 0)
(0.743559 -0.0206886 0)
(0.683894 -0.00700437 0)
(3.95393 0.753748 0)
(3.46426 -0.772862 0)
(2.01572 -1.05172 0)
(1.08745 1.05494 0)
(0.32351 2.7029 0)
(0.753367 1.60977 0)
(1.57423 -0.136074 0)
(1.85505 -0.912999 0)
(2.13033 -1.05188 0)
(1.97324 -0.959943 0)
(1.72247 -0.763563 0)
(1.67347 -0.495205 0)
(1.57845 -0.291282 0)
(1.39821 -0.174646 0)
(1.21337 -0.103275 0)
(1.05521 -0.0551127 0)
(0.925576 -0.0245736 0)
(0.821406 -0.00744958 0)
(0.74712 0.00211545 0)
(0.686132 0.00359463 0)
(3.7412 0.276594 0)
(3.19704 -0.719965 0)
(3.46667 -1.37055 0)
(1.49465 0.756073 0)
(0.895607 2.64852 0)
(1.57769 1.40642 0)
(2.31966 -0.262588 0)
(2.33421 -0.981639 0)
(2.37055 -1.07571 0)
(2.37237 -0.877909 0)
(1.98258 -0.683722 0)
(1.68196 -0.461658 0)
(1.55006 -0.24534 0)
(1.40394 -0.108953 0)
(1.2305 -0.0395645 0)
(1.06808 -0.00276669 0)
(0.932582 0.0170575 0)
(0.824359 0.0242578 0)
(0.747657 0.0255883 0)
(0.685591 0.0144008 0)
(3.6917 0.66842 0)
(2.91354 -0.540011 0)
(3.04081 -0.513612 0)
(1.56454 1.55298 0)
(1.3692 2.63221 0)
(2.35091 1.18109 0)
(2.88278 -0.348607 0)
(2.85568 -0.956018 0)
(2.53572 -1.07329 0)
(2.49071 -0.819149 0)
(2.32987 -0.510782 0)
(1.89161 -0.334606 0)
(1.56847 -0.191415 0)
(1.37954 -0.066453 0)
(1.22036 0.0109733 0)
(1.06827 0.0468772 0)
(0.933908 0.0592749 0)
(0.823538 0.0568232 0)
(0.744907 0.0495453 0)
(0.682146 0.0253137 0)
(3.64696 0.554294 0)
(2.92517 -0.418386 0)
(3.09888 -0.812672 0)
(1.96632 1.50749 0)
(1.99557 2.44763 0)
(3.0552 0.927986 0)
(3.25864 -0.443135 0)
(3.17337 -0.911782 0)
(2.81895 -0.964919 0)
(2.38253 -0.8339 0)
(2.33584 -0.509596 0)
(2.19227 -0.219388 0)
(1.84234 -0.0671666 0)
(1.51288 0.0149532 0)
(1.26862 0.0706117 0)
(1.08223 0.0983358 0)
(0.935456 0.102575 0)
(0.819932 0.0902983 0)
(0.738909 0.073945 0)
(0.675682 0.0362691 0)
(3.53577 0.645512 0)
(3.17297 -0.275831 0)
(3.1061 -0.313674 0)
(2.28846 1.71464 0)
(2.68488 2.26144 0)
(3.70015 0.806489 0)
(3.75453 -0.391717 0)