/*--------------------------------*- C++ -*----------------------------------*\
| =========                 |                                                 |
| \\      /  F ield         | OpenFOAM: The Open Source CFD Toolbox           |
|  \\    /   O peration     | Version:  v1806                                 |
|   \\  /    A nd           | Web:      www.OpenFOAM.com                      |
|    \\/     M anipulation  |                                                 |
\*---------------------------------------------------------------------------*/
FoamFile
{
    version     2.0;
    format      ascii;
    class       surfaceScalarField;
    location    "100";
    object      phi;
}
// * * * * * * * * * * * * * * * * * * * * * * * * * * * * * * * * * * * * * //

dimensions      [0 3 -1 0 0 0 0];
oriented        oriented;


internalField   nonuniform List<scalar> 
15593
(
2.11855e-07
0.00690099
-0.0309572
-0.0219993
0.0460554
2.44711e-08
0.00691476
-0.0309489
-0.0220094
0.0460437
-2.447e-08
0.00691533
-0.0309497
-0.0220102
0.0460446
-2.11868e-07
0.00691476
-0.0309489
-0.0220094
0.0460437
0.00690099
-0.0309572
-0.0219993
0.0460554
1.42859e-07
-0.0364163
0.0381118
0.00520533
2.4162e-08
-0.0363755
0.0380898
0.00520055
-2.44704e-08
-0.036373
0.0380869
0.00520145
-1.42914e-07
-0.0363755
0.0380898
0.00520055
-0.0364163
0.0381118
0.00520533
1.68532e-07
0.00547858
-0.0388164
-0.0030786
2.47361e-08
0.00546199
-0.0387794
-0.00305799
-2.3864e-08
0.00546212
-0.038778
-0.00305706
-1.68355e-07
0.00546199
-0.0387794
-0.00305799
0.00547858
-0.0388164
-0.0030786
1.1533e-07
0.0171313
-0.0426101
2.02382e-08
0.0171111
-0.0425979
-2.0402e-08
0.0171121
-0.0425997
-1.15346e-07
0.0171111
-0.0425979
0.0171313
-0.0426101
1.65799e-07
-0.0387496
0.0338814
3.59481e-08
-0.0387783
0.0338802
-3.59551e-08
-0.0387808
0.0338828
-1.65809e-07
-0.0387783
0.0338802
-0.0387496
0.0338814
4.30345e-07
0.0140808
-0.0472969
-0.0056007
4.27537e-08
0.0140619
-0.0472867
-0.00555422
-4.28659e-08
0.0140632
-0.0472875
-0.00555365
-4.30339e-07
0.0140619
-0.0472867
-0.00555422
0.0140808
-0.0472969
-0.0056007
2.15503e-07
0.0239943
-0.0525237
3.6206e-08
0.0239977
-0.0525335
-3.65489e-08
0.0240003
-0.0525367
-2.15585e-07
0.0239977
-0.0525335
0.0239943
-0.0525237
2.7721e-07
-0.0444385
0.0296829
6.00788e-08
-0.04446
0.0296796
-6.00692e-08
-0.0444627
0.0296823
-2.77227e-07
-0.04446
0.0296796
-0.0444385
0.0296829
-7.57591e-07
-0.0139417
-0.026489
0.0110361
0.0293954
9.89377e-08
-0.0139744
-0.0264875
0.0110699
0.0293911
-9.89386e-08
-0.0139786
-0.0264866
0.0110738
0.0293916
7.57588e-07
-0.0139744
-0.0264875
0.0110699
0.0293911
-0.0139417
-0.026489
0.0110361
0.0293954
-1.14284e-06
-0.0228165
0.0163028
-0.00742685
1.39199e-07
-0.022803
0.0162778
-0.00745048
-1.39201e-07
-0.0228014
0.0162765
-0.00745333
1.14284e-06
-0.022803
0.0162778
-0.00745048
-0.0228165
0.0163028
-0.00742685
-9.56214e-07
0.00680594
-0.0282178
-0.0014037
6.71562e-08
0.00683419
-0.0282041
-0.00143408
-6.71576e-08
0.00683874
-0.0282016
-0.00143844
9.56212e-07
0.00683419
-0.0282041
-0.00143408
0.00680594
-0.0282178
-0.0014037
-8.03611e-07
-0.0316383
0.0119561
5.10158e-08
-0.0316359
0.0119818
-5.10173e-08
-0.0316341
0.0119864
8.03609e-07
-0.0316359
0.0119818
-0.0316383
0.0119561
-7.5065e-08
-0.00173104
0.000453908
0.00127721
-8.02629e-09
-0.00172542
0.000461088
0.00126426
8.02585e-09
-0.00172441
0.000462238
0.00126216
7.50834e-08
-0.00172542
0.000461088
0.00126426
-0.00173104
0.000453908
0.00127721
-1.23651e-07
-0.00107135
-0.000659571
-8.59115e-09
-0.00106851
-0.000657025
8.57216e-09
-0.00106792
-0.00065651
1.23705e-07
-0.00106851
-0.000657025
-0.00107135
-0.000659571
-1.21043e-07
-0.00134519
-0.00108704
0.00136101
-1.08192e-08
-0.0013403
-0.00108616
0.00135784
1.07988e-08
-0.00133924
-0.00108559
0.00135689
1.21098e-07
-0.0013403
-0.00108616
0.00135784
-0.00134519
-0.00108704
0.00136101
-5.75109e-07
0.024733
-0.0327895
0.0190932
7.17653e-08
0.0247131
-0.0327618
0.0191179
-7.17659e-08
0.0247121
-0.0327603
0.0191221
5.75106e-07
0.0247131
-0.0327618
0.0191179
0.024733
-0.0327895
0.0190932
-3.09646e-07
0.0196345
0.0249339
-0.0198351
9.59432e-08
0.0196195
0.0249786
-0.0198854
-9.59436e-08
0.0196183
0.0249849
-0.0198909
3.09642e-07
0.0196195
0.0249786
-0.0198854
0.0196345
0.0249339
-0.0198351
-1.08562e-08
-0.00114854
0.000124585
0.00102319
7.68215e-07
2.72694e-09
-0.00114696
0.000123869
0.00102138
1.70162e-06
-2.62288e-09
-0.00114657
0.000123755
0.00102096
1.85612e-06
1.07857e-08
-0.00114696
0.000123869
0.00102138
1.7019e-06
-0.00114854
0.000124585
0.00102319
7.68199e-07
-4.15578e-10
-0.00039018
-0.000775101
1.67447e-05
1.26588e-09
-0.000390171
-0.000774171
1.73776e-05
-1.25711e-09
-0.000390176
-0.000773927
1.7539e-05
4.03552e-10
-0.000390171
-0.000774171
1.73775e-05
-0.00039018
-0.000775101
1.67447e-05
-4.0219e-08
-0.000365859
0.00058645
-0.00061073
-1.46211e-09
-0.000365748
0.000585751
-0.000610213
1.46721e-09
-0.000365726
0.000585643
-0.000610096
4.02156e-08
-0.000365748
0.000585751
-0.000610213
-0.000365859
0.00058645
-0.00061073
2.71538e-06
-0.0143179
-0.0389981
5.20688e-05
0.0532612
1.94173e-07
-0.0142882
-0.0390005
4.16841e-05
0.0532495
-1.94126e-07
-0.0142759
-0.0389987
3.63598e-05
0.0532386
-2.71536e-06
-0.0142882
-0.0390005
4.1684e-05
0.0532495
-0.0143179
-0.0389981
5.20687e-05
0.0532612
1.75699e-06
-0.0442599
-0.0133877
0.043328
1.61027e-07
-0.0442855
-0.0133627
0.0433616
-1.60946e-07
-0.0442868
-0.0133553
0.0433665
-1.75696e-06
-0.0442855
-0.0133627
0.0433616
-0.0442599
-0.0133877
0.043328
-1.66169e-07
-0.0100571
-0.0402053
0.00600264
2.02748e-07
-0.0102021
-0.0401885
0.00610473
-2.02746e-07
-0.0102145
-0.0401883
0.00611645
1.66183e-07
-0.0102021
-0.0401885
0.00610473
-0.0100571
-0.0402053
0.00600264
-2.88181e-07
-0.0425592
-0.00649577
3.39741e-07
-0.0425012
-0.00670206
-3.39745e-07
-0.042497
-0.00671558
2.8819e-07
-0.0425012
-0.00670206
-0.0425592
-0.00649577
-1.35668e-07
-0.00389259
0.00084148
0.00428674
-0.0012355
-2.70241e-09
-0.00389054
0.000839545
0.0042859
-0.00123503
2.69381e-09
-0.00388979
0.000839244
0.00428541
-0.00123487
1.35679e-07
-0.00389054
0.000839545
0.0042859
-0.00123503
-0.00389259
0.00084148
0.00428674
-0.0012355
-8.86114e-08
-0.000603176
-0.00224461
-0.00104471
-5.87829e-09
-0.000603727
-0.00224149
-0.00104541
5.86799e-09
-0.000603641
-0.0022407
-0.00104546
8.86211e-08
-0.000603727
-0.00224149
-0.00104541
-0.000603176
-0.00224461
-0.00104471
-5.64001e-09
-0.000916701
-0.00173942
0.00205295
2.6956e-09
-0.000915743
-0.00173774
0.00204975
-2.70271e-09
-0.000915502
-0.00173715
0.00204902
5.64122e-09
-0.000915743
-0.00173774
0.00204975
-0.000916701
-0.00173942
0.00205295
-1.2463e-07
-0.00117297
-0.00106276
0.000890654
-1.01934e-08
-0.00117266
-0.00105746
0.000889712
1.01815e-08
-0.00117226
-0.00105634
0.000889337
1.24672e-07
-0.00117266
-0.00105746
0.000889713
-0.00117297
-0.00106276
0.000890654
2.1126e-08
0.000386046
-0.000947732
-0.0006113
-6.03296e-09
0.000389005
-0.000948218
-0.000613423
6.02688e-09
0.000389287
-0.000948126
-0.000613436
-2.10854e-08
0.000389005
-0.000948218
-0.000613423
0.000386046
-0.000947732
-0.0006113
6.73333e-08
-0.000736865
3.58014e-05
-3.84349e-09
-0.000736495
3.94133e-05
3.85104e-09
-0.000736032
3.97217e-05
-6.73092e-08
-0.000736495
3.94133e-05
-0.000736865
3.58015e-05
7.49359e-08
-0.0285846
-0.0132906
0.0387562
0.00311891
2.0275e-08
-0.028591
-0.0132982
0.038755
0.00313428
-2.02756e-08
-0.0285921
-0.0132977
0.0387563
0.0031335
-7.49394e-08
-0.028591
-0.0132982
0.038755
0.00313428
-0.0285846
-0.0132906
0.0387562
0.00311891
7.61049e-08
0.0179149
-0.0380917
-0.00840793
5.84895e-08
0.0179181
-0.0381259
-0.00838319
-5.8488e-08
0.0179198
-0.0381279
-0.00838384
-7.61078e-08
0.0179181
-0.0381259
-0.00838319
0.0179149
-0.0380917
-0.00840793
8.38727e-08
-0.0315172
0.0361414
3.43762e-08
-0.0315273
0.0361473
-3.43742e-08
-0.0315284
0.0361506
-8.3876e-08
-0.0315273
0.0361473
-0.0315172
0.0361414
2.94066e-07
0.0266273
-0.0325564
0.0519841
2.16202e-08
0.0266193
-0.0325528
0.0519776
-2.16204e-08
0.0266194
-0.032554
0.0519793
-2.94072e-07
0.0266193
-0.0325528
0.0519776
0.0266273
-0.0325564
0.0519841
4.6677e-07
0.0535917
0.0111469
1.96544e-08
0.0535889
0.0111207
-1.96525e-08
0.0535871
0.0111192
-4.66776e-07
0.0535889
0.0111207
0.0535917
0.0111469
-1.79848e-07
0.0174989
-0.0560754
-0.013947
3.45182e-08
0.0175105
-0.0560965
-0.0139477
-3.4583e-08
0.0175134
-0.0561002
-0.0139498
1.79843e-07
0.0175105
-0.0560965
-0.0139477
0.0174989
-0.0560754
-0.013947
-1.09504e-07
-0.0535446
0.026605
7.69835e-08
-0.0535664
0.0266167
-7.6995e-08
-0.0535701
0.0266209
1.09496e-07
-0.0535664
0.0266167
-0.0535446
0.026605
-1.00347e-08
-6.72433e-05
0.000194022
-0.000214109
8.73406e-05
-1.99186e-09
-6.7352e-05
0.000193442
-0.000213583
8.74849e-05
1.99341e-09
-6.74007e-05
0.000193288
-0.000213415
8.75239e-05
1.0041e-08
-6.7352e-05
0.000193442
-0.000213583
8.74849e-05
-6.72433e-05
0.000194022
-0.000214109
8.73406e-05
-1.61368e-08
0.000192659
-4.79415e-05
-0.000211945
-2.67338e-09
0.000192283
-4.80851e-05
-0.000211563
2.78286e-09
0.000192155
-4.81375e-05
-0.000211424
1.61616e-08
0.000192283
-4.80851e-05
-0.000211563
0.000192659
-4.79415e-05
-0.000211945
-6.26564e-07
-0.020583
0.0234856
0.00665879
-0.00956074
1.76451e-07
-0.0206243
0.0235237
0.006605
-0.00950516
-1.76451e-07
-0.0206291
0.0235271
0.00660315
-0.00950078
6.2656e-07
-0.0206243
0.0235237
0.006605
-0.00950516
-0.020583
0.0234856
0.00665879
-0.00956074
-5.67418e-07
-0.0114449
0.00716529
1.69961e-07
-0.0114584
0.00711121
-1.69961e-07
-0.0114611
0.00710874
5.67416e-07
-0.0114584
0.00711121
-0.0114449
0.00716529
-7.10153e-07
-0.00679684
-0.0351038
0.010263
1.79401e-08
-0.00680581
-0.0350985
0.0102677
-1.79416e-08
-0.00680835
-0.0350961
0.0102705
7.10151e-07
-0.00680581
-0.0350985
0.0102677
-0.00679684
-0.0351038
0.010263
-9.21394e-07
-0.0331757
-0.00183802
1.87892e-08
-0.0331619
-0.00184893
-1.87919e-08
-0.033159
-0.00185093
9.21393e-07
-0.0331619
-0.00184893
-0.0331757
-0.00183802
-7.80064e-07
0.00638766
-0.0379768
-0.00158577
-1.88858e-08
0.00639761
-0.0379641
-0.00159619
1.88758e-08
0.00640012
-0.0379608
-0.00159835
7.8006e-07
0.00639761
-0.0379641
-0.00159619
0.00638766
-0.0379768
-0.00158577
-7.39663e-07
0.00966629
-0.0383817
-1.1422e-08
0.00966944
-0.0383711
1.14217e-08
0.00967214
-0.0383682
7.3966e-07
0.00966944
-0.0383711
0.00966629
-0.0383817
-1.26525e-06
-0.0119666
-0.00963677
0.0101597
2.02776e-07
-0.0119193
-0.0096148
0.0100742
-2.02777e-07
-0.0119162
-0.00961424
0.0100697
1.26525e-06
-0.0119193
-0.0096148
0.0100742
-0.0119666
-0.00963677
0.0101597
-7.11022e-07
-0.0357805
0.0149478
5.0853e-08
-0.0357541
0.0149734
-5.08542e-08
-0.0357519
0.014978
7.11019e-07
-0.0357541
0.0149734
-0.0357805
0.0149478
-7.19009e-07
-0.0394607
0.0139438
2.27423e-08
-0.039449
0.0139619
-2.27446e-08
-0.0394467
0.0139653
7.19006e-07
-0.039449
0.0139619
-0.0394607
0.0139438
-7.32201e-07
-0.0413212
0.0115276
-6.09501e-09
-0.0413165
0.0115362
6.0862e-09
-0.0413141
0.0115395
7.32195e-07
-0.0413165
0.0115362
-0.0413212
0.0115276
-6.99018e-07
0.00554142
-0.00186091
-0.0416566
-4.47277e-08
0.00554419
-0.00186345
-0.0416455
4.46749e-08
0.00554591
-0.00186435
-0.0416424
6.99007e-07
0.00554419
-0.00186345
-0.0416455
0.00554142
-0.00186091
-0.0416566
-6.92222e-07
0.00952106
-0.0423606
-4.04599e-08
0.00952408
-0.0423516
4.04867e-08
0.00952642
-0.0423488
6.92216e-07
0.00952408
-0.0423516
0.00952106
-0.0423606
-6.73112e-07
-0.0439545
0.012155
-3.75235e-08
-0.0439508
0.0121578
3.74719e-08
-0.0439483
0.0121606
6.73101e-07
-0.0439508
0.0121578
-0.0439545
0.012155
-8.93696e-07
-0.0216269
0.00223435
1.13279e-07
-0.0215897
0.00221899
-1.1328e-07
-0.0215867
0.00221739
8.93695e-07
-0.0215897
0.00221899
-0.0216269
0.00223435
-1.2044e-06
-0.0248034
0.00177404
9.00386e-08
-0.024782
0.00175692
-9.00399e-08
-0.0247793
0.00175436
1.2044e-06
-0.024782
0.00175692
-0.0248034
0.00177404
-1.03299e-06
-0.0300526
0.00341218
2.45511e-08
-0.0300356
0.00340355
-2.45529e-08
-0.0300323
0.00340214
1.03299e-06
-0.0300356
0.00340355
-0.0300526
0.00341218
-8.50257e-07
-0.0353906
0.00375307
-1.63493e-08
-0.0353758
0.00374322
1.63467e-08
-0.0353725
0.00374177
8.50255e-07
-0.0353758
0.00374322
-0.0353906
0.00375307
1.10783e-07
0.032547
0.010573
1.65378e-07
0.0325828
0.0105604
-1.65375e-07
0.0325879
0.0105578
-1.10786e-07
0.0325828
0.0105604
0.032547
0.010573
-7.40806e-07
0.0040854
-0.0413362
-4.55286e-08
0.00408036
-0.0413203
4.5529e-08
0.00407997
-0.0413169
7.40797e-07
0.00408036
-0.0413203
0.0040854
-0.0413362
-9.77707e-07
-0.0210205
0.013619
1.41754e-07
-0.0209797
0.0135827
-1.41755e-07
-0.0209765
0.0135799
9.77708e-07
-0.0209797
0.0135827
-0.0210205
0.013619
-1.40536e-06
-0.0280831
0.00883806
1.04925e-07
-0.0280515
0.00882724
-1.04926e-07
-0.0280477
0.00882578
1.40536e-06
-0.0280515
0.00882724
-0.0280831
0.00883806
-1.06987e-06
-0.0320358
0.00736595
4.18843e-08
-0.0320072
0.00735814
-4.18848e-08
-0.0320034
0.00735788
1.06988e-06
-0.0320072
0.00735814
-0.0320358
0.00736595
-1.11607e-06
-0.0365059
0.0082243
-8.15845e-09
-0.0364849
0.00821986
8.15649e-09
-0.0364812
0.00821963
1.11607e-06
-0.0364849
0.00821986
-0.0365059
0.0082243
-8.45165e-07
-0.0412197
0.00880007
-4.77585e-08
-0.0412039
0.00879851
4.77472e-08
-0.0412001
0.00879877
8.45157e-07
-0.0412039
0.00879851
-0.0412197
0.00880007
-6.84994e-07
-0.00393922
0.00711091
-0.0443907
-6.69337e-08
-0.00393137
0.00710521
-0.0443784
6.68713e-08
-0.00393058
0.00710524
-0.0443749
6.84967e-07
-0.00393137
0.00710521
-0.0443784
-0.00393922
0.00711091
-0.0443907
-6.68004e-07
0.000386495
-0.0456612
-7.04485e-08
0.000392147
-0.0456444
7.05511e-08
0.000393486
-0.0456411
6.6793e-07
0.000392147
-0.0456444
0.000386494
-0.0456612
-6.51109e-07
0.00468971
-0.0459592
-7.14774e-08
0.00469287
-0.0459468
7.10757e-08
0.00469454
-0.0459436
6.51187e-07
0.00469287
-0.0459468
0.00468971
-0.0459592
-6.3397e-07
0.00856883
-0.0462391
-6.73463e-08
0.0085714
-0.0462307
6.76801e-08
0.00857347
-0.0462278
6.33848e-07
0.0085714
-0.0462307
0.00856883
-0.0462391
-5.83696e-07
0.0110556
-0.0464407
-6.30281e-08
0.0110578
-0.0464377
6.26258e-08
0.0110602
-0.0464352
5.8379e-07
0.0110578
-0.0464377
0.0110556
-0.0464407
-5.66065e-07
0.0456945
0.0137224
-0.0483608
-6.00843e-08
0.0456898
0.0137265
-0.0483591
6.04035e-08
0.0456875
0.0137293
-0.0483567
5.65905e-07
0.0456898
0.0137265
-0.0483591
0.0456945
0.0137224
-0.0483608
-6.52773e-07
0.0438201
0.0140301
-3.34091e-08
0.0438093
0.0140377
3.34134e-08
0.0438071
0.0140409
6.52752e-07
0.0438093
0.0140377
0.0438201
0.0140301
-6.66095e-07
0.0411898
0.0141586
-2.64303e-09
0.0411715
0.0141733
2.63568e-09
0.0411697
0.0141769
6.66087e-07
0.0411715
0.0141733
0.0411898
0.0141586
-6.1718e-07
0.0386051
0.0165292
2.5937e-08
0.0385869
0.0165459
-2.59389e-08
0.0385854
0.0165496
6.17177e-07
0.0385869
0.0165459
0.0386051
0.0165292
-5.39049e-07
0.0339005
0.0196529
4.81304e-08
0.0338899
0.0196697
-4.81311e-08
0.0338892
0.0196743
5.39047e-07
0.0338899
0.0196697
0.0339005
0.0196529
-2.98498e-07
0.0319599
0.0210341
6.44142e-08
0.0319665
0.021041
-6.44147e-08
0.0319668
0.0210447
2.98496e-07
0.0319665
0.021041
0.0319599
0.0210341
1.56042e-08
0.0303856
0.0265081
6.80691e-08
0.0304123
0.0265327
-6.80665e-08
0.0304138
0.026538
-1.56065e-08
0.0304123
0.0265327
0.0303856
0.0265081
9.74833e-08
0.0248409
8.02508e-08
0.0248692
-8.02486e-08
0.024874
-9.74869e-08
0.0248692
0.0248409
-2.752e-07
-0.0363261
0.0296501
4.00031e-08
-0.0363243
0.0296659
-4.00022e-08
-0.0363251
0.0296707
2.75197e-07
-0.0363243
0.0296659
-0.0363261
0.0296501
-1.93456e-07
-0.0362347
0.0264169
4.09302e-08
-0.0362267
0.0264349
-4.09292e-08
-0.0362265
0.0264395
1.93454e-07
-0.0362267
0.0264349
-0.0362347
0.0264169
-3.42983e-07
-0.0397477
0.0245475
5.4589e-08
-0.0397487
0.0245625
-5.45889e-08
-0.0397485
0.0245669
3.42981e-07
-0.0397487
0.0245625
-0.0397477
0.0245475
-4.4422e-07
-0.041445
0.0213507
4.37108e-08
-0.0414453
0.0213659
-4.37132e-08
-0.0414445
0.0213704
4.44217e-07
-0.0414453
0.0213659
-0.041445
0.0213507
-5.0251e-07
-0.044344
0.0194286
2.30808e-08
-0.0443399
0.0194399
-2.30918e-08
-0.0443385
0.0194437
5.02501e-07
-0.0443399
0.0194399
-0.044344
0.0194286
-5.68032e-07
-0.0450926
0.0149077
-3.49715e-09
-0.0450899
0.0149227
3.45815e-09
-0.0450881
0.0149265
5.68008e-07
-0.0450899
0.0149227
-0.0450926
0.0149077
-5.45232e-07
-0.0464195
0.0153575
-3.2227e-08
-0.0464189
0.0153663
3.20831e-08
-0.0464169
0.0153696
5.45176e-07
-0.0464189
0.0153663
-0.0464195
0.0153575
-4.72951e-07
-0.0480999
0.0154033
-5.5756e-08
-0.048101
0.0154081
5.50915e-08
-0.0480989
0.0154112
4.72976e-07
-0.048101
0.0154081
-0.0480999
0.0154033
-1.94092e-06
-0.017952
0.0181964
0.0133766
2.64158e-07
-0.0178887
0.0181736
0.0132957
-2.6416e-07
-0.0178837
0.0181718
0.0132924
1.94093e-06
-0.0178887
0.0181736
0.0132957
-0.017952
0.0181964
0.0133766
-1.51921e-06
-0.0263496
0.0172371
1.55315e-07
-0.026304
0.0172409
-1.55315e-07
-0.0262998
0.0172422
1.51921e-06
-0.026304
0.0172409
-0.0263496
0.0172371
-1.37924e-06
-0.0319418
0.0129596
5.9799e-08
-0.0319145
0.0129672
-5.97983e-08
-0.0319103
0.0129685
1.37924e-06
-0.0319145
0.0129672
-0.0319418
0.0129596
-1.10704e-06
-0.0365462
0.0128298
-6.78869e-09
-0.0365212
0.0128254
6.78975e-09
-0.0365171
0.0128264
1.10704e-06
-0.0365212
0.0128254
-0.0365462
0.0128298
-8.00251e-07
-0.0398655
0.0121201
-4.74059e-08
-0.0398433
0.0121199
4.74079e-08
-0.0398395
0.012121
8.0025e-07
-0.0398433
0.0121199
-0.0398655
0.0121201
-6.53719e-07
-0.0443119
0.011558
-6.07902e-08
-0.0442955
0.0115569
6.08069e-08
-0.0442921
0.0115578
6.53708e-07
-0.0442955
0.0115569
-0.0443119
0.011558
-6.00482e-07
-0.00576505
-0.0473756
0.00882936
-7.46143e-08
-0.005761
-0.0473661
0.00883105
7.48371e-08
-0.00576158
-0.047363
0.00883234
6.00362e-07
-0.005761
-0.0473661
0.00883105
-0.00576505
-0.0473756
0.00882936
-5.72359e-07
-0.00267867
-0.0474765
-8.08139e-08
-0.00267505
-0.0474648
8.02949e-08
-0.00267494
-0.0474617
5.72388e-07
-0.00267505
-0.0474648
-0.00267866
-0.0474765
-5.75644e-07
-9.34004e-05
-0.0482459
-8.56314e-08
-8.88836e-05
-0.0482311
8.12422e-08
-8.8133e-05
-0.0482281
5.74503e-07
-8.88855e-05
-0.0482311
-9.3401e-05
-0.0482459
-5.39674e-07
0.00324087
-0.0492929
-7.67212e-08
0.00324471
-0.0492809
8.57576e-08
0.00324606
-0.049278
5.41959e-07
0.00324472
-0.0492809
0.00324088
-0.0492929
-5.28408e-07
0.00604487
-0.0490426
-8.47566e-08
0.00604832
-0.0490348
7.47914e-08
0.00605013
-0.0490321
5.25937e-07
0.00604832
-0.0490348
0.00604487
-0.0490426
-4.97094e-07
0.00935236
-0.0497477
-7.11491e-08
0.00935437
-0.0497442
8.16867e-08
0.00935648
-0.0497417
4.99696e-07
0.00935437
-0.0497442
0.00935236
-0.0497477
-4.6793e-07
0.0110662
-0.0500742
-7.80098e-08
0.0110689
-0.050074
6.69431e-08
0.0110713
-0.0500717
4.65161e-07
0.0110689
-0.050074
0.0110662
-0.0500742
-4.10653e-07
0.0130154
-0.0500487
-6.06687e-08
0.0130185
-0.050051
7.12131e-08
0.0130212
-0.050049
4.13414e-07
0.0130185
-0.050051
0.0130154
-0.0500487
-8.33551e-08
-0.0184567
0.051918
0.00529507
2.77596e-08
-0.0184635
0.0519336
0.00528475
-2.77681e-08
-0.0184638
0.0519361
0.005284
8.33478e-08
-0.0184635
0.0519336
0.00528475
-0.0184567
0.051918
0.00529507
2.01034e-07
-0.0300756
0.04776
1.90698e-08
-0.0300872
0.0477711
-1.90726e-08
-0.0300883
0.0477751
-2.01039e-07
-0.0300872
0.0477711
-0.0300756
0.04776
-1.88616e-08
-6.27806e-05
7.78031e-05
-0.000203742
0.000188738
-2.12825e-09
-6.31026e-05
7.79294e-05
-0.000203325
0.000188482
2.13391e-09
-6.31992e-05
7.79692e-05
-0.000203249
0.000188475
1.88628e-08
-6.31026e-05
7.79294e-05
-0.000203325
0.000188482
-6.27806e-05
7.78031e-05
-0.000203742
0.000188738
-2.08115e-08
-6.45024e-05
-8.20403e-05
8.3783e-05
-1.92222e-09
-6.3734e-05
-8.21276e-05
8.27402e-05
1.92892e-09
-6.35513e-05
-8.21813e-05
8.25295e-05
2.08128e-08
-6.3734e-05
-8.21276e-05
8.27402e-05
-6.45024e-05
-8.20403e-05
8.3783e-05
-1.11558e-08
0.00022946
1.50464e-05
-0.000136256
-0.00010824
-1.62399e-09
0.000228937
1.47751e-05
-0.000136055
-0.000107667
1.66131e-09
0.000228823
1.47012e-05
-0.00013602
-0.000107508
1.11675e-08
0.000228937
1.47751e-05
-0.000136055
-0.000107667
0.00022946
1.50465e-05
-0.000136256
-0.00010824
-1.87361e-08
0.000180606
0.000126676
-1.97356e-09
0.000180024
0.000126826
1.97386e-09
0.000179914
0.000126875
1.87381e-08
0.000180024
0.000126826
0.000180606
0.000126676
-2.09502e-08
0.00019956
9.07447e-05
-0.000109678
-1.78524e-09
0.000199655
9.01755e-05
-0.000109826
1.78664e-09
0.000199659
9.00975e-05
-0.000109846
2.09502e-08
0.000199655
9.01755e-05
-0.000109826
0.00019956
9.07447e-05
-0.000109678
-1.68923e-08
-0.000141359
-4.73193e-05
-1.88796e-09
-0.000141039
-4.7526e-05
1.89429e-09
-0.000140945
-4.76074e-05
1.6895e-08
-0.000141039
-4.7526e-05
-0.000141359
-4.73193e-05
-1.13304e-08
-6.98876e-05
4.5436e-05
0.000218485
-2.00565e-09
-7.03321e-05
4.56742e-05
0.000218091
2.07399e-09
-7.04592e-05
4.57546e-05
0.000217989
1.13386e-08
-7.0332e-05
4.56742e-05
0.000218091
-6.98876e-05
4.5436e-05
0.000218485
-1.53338e-08
-0.000215603
-6.19968e-05
-2.10029e-09
-0.00021509
-6.20167e-05
2.12744e-09
-0.000214933
-6.20362e-05
1.53325e-08
-0.00021509
-6.20167e-05
-0.000215603
-6.19968e-05
-1.85447e-08
-9.28129e-05
-3.04569e-09
-9.31553e-05
2.67833e-09
-9.32421e-05
1.84479e-08
-9.31553e-05
-9.28129e-05
-1.08926e-08
-0.000144957
3.31463e-05
-1.39593e-09
-0.000143997
3.27277e-05
1.40147e-09
-0.000143768
3.26063e-05
1.08943e-08
-0.000143997
3.27277e-05
-0.000144957
3.31464e-05
-9.38199e-09
-0.000210447
3.50243e-06
-1.4182e-09
-0.000209665
3.64344e-06
1.41788e-09
-0.000209466
3.65912e-06
9.38252e-09
-0.000209665
3.64346e-06
-0.000210447
3.50244e-06
-1.04076e-08
-0.000230531
-7.27185e-05
-1.65635e-09
-0.000229855
-7.29743e-05
1.73731e-09
-0.000229646
-7.30657e-05
1.04307e-08
-0.000229855
-7.29743e-05
-0.000230531
-7.27185e-05
-4.63335e-09
-0.000212763
-6.5705e-05
-2.23975e-09
-0.00021231
-6.56329e-05
2.26294e-09
-0.000212155
-6.56329e-05
4.62912e-09
-0.00021231
-6.56328e-05
-0.000212763
-6.57049e-05
-5.28477e-09
7.37826e-05
-0.00019449
-9.20502e-05
-2.17518e-09
7.39852e-05
-0.000194029
-9.2269e-05
2.1418e-09
7.40458e-05
-0.000193864
-9.23408e-05
5.2941e-09
7.39852e-05
-0.000194029
-9.22691e-05
7.37826e-05
-0.00019449
-9.20502e-05
-1.64058e-08
5.4731e-05
-0.000192877
-2.81034e-09
5.48563e-05
-0.000192448
2.76701e-09
5.49077e-05
-0.000192292
1.63972e-08
5.48563e-05
-0.000192448
5.4731e-05
-0.000192877
-8.60174e-09
4.28224e-05
-0.000202192
-1.84613e-09
4.29877e-05
-0.000201721
1.85095e-09
4.30441e-05
-0.000201556
8.60379e-09
4.29877e-05
-0.000201721
4.28224e-05
-0.000202192
-1.13757e-08
0.000224375
-0.000209116
2.75746e-05
-2.15184e-09
0.000223961
-0.000208709
2.77266e-05
2.15327e-09
0.000223823
-0.000208566
2.77832e-05
1.13775e-08
0.000223961
-0.000208709
2.77266e-05
0.000224375
-0.000209116
2.75746e-05
-1.21724e-08
0.000273983
3.77455e-05
-2.34379e-09
0.000273558
3.78775e-05
2.33989e-09
0.000273407
3.79344e-05
1.21747e-08
0.000273558
3.78775e-05
0.000273983
3.77455e-05
-1.40247e-08
0.000264025
5.54078e-05
-2.3142e-09
0.000263635
5.55854e-05
2.37498e-09
0.000263504
5.56531e-05
1.40443e-08
0.000263635
5.55854e-05
0.000264025
5.54078e-05
-1.45349e-08
0.000283852
9.04406e-05
-0.000110253
-2.30471e-09
0.000283397
9.06419e-05
-0.000110416
2.28912e-09
0.000283265
9.07132e-05
-0.000110478
1.45353e-08
0.000283397
9.0642e-05
-0.000110416
0.000283852
9.04406e-05
-0.000110253
-1.79814e-08
0.000281878
0.000128668
-2.16278e-09
0.000281298
0.00012891
2.16252e-09
0.000281168
0.000128968
1.79821e-08
0.000281298
0.00012891
0.000281878
0.000128668
-1.59384e-08
0.000150455
0.000330999
-2.0011e-09
0.000150622
0.000330316
2.00042e-09
0.000150654
0.000330168
1.59387e-08
0.000150622
0.000330316
0.000150455
0.000330999
9.82163e-08
-0.0381796
0.037754
5.59665e-08
-0.0381798
0.0377585
-5.59638e-08
-0.0381809
0.0377634
-9.822e-08
-0.0381798
0.0377585
-0.0381796
0.037754
-1.21731e-07
-0.0412284
0.0294658
4.66706e-08
-0.041219
0.0294739
-4.6669e-08
-0.0412193
0.029478
1.21729e-07
-0.041219
0.0294739
-0.0412284
0.0294658
-3.14957e-07
-0.042437
0.0257564
4.87368e-08
-0.0424295
0.0257727
-4.87359e-08
-0.0424294
0.0257771
3.14955e-07
-0.0424295
0.0257727
-0.042437
0.0257564
-3.94672e-07
-0.0446371
0.0235512
3.20778e-08
-0.0446318
0.0235678
-3.20798e-08
-0.044631
0.023572
3.94669e-07
-0.0446318
0.0235678
-0.0446371
0.0235512
-4.39232e-07
-0.0466047
0.0213967
1.25075e-08
-0.0466072
0.0214149
-1.25237e-08
-0.0466062
0.021419
4.3922e-07
-0.0466072
0.0214149
-0.0466047
0.0213967
-4.5205e-07
-0.0490406
0.017344
-1.22787e-08
-0.0490436
0.0173586
1.22088e-08
-0.0490422
0.0173625
4.52011e-07
-0.0490436
0.0173586
-0.0490406
0.017344
-4.35255e-07
-0.0495906
0.015908
-3.53041e-08
-0.049594
0.0159163
3.50773e-08
-0.0495924
0.0159197
4.35165e-07
-0.049594
0.0159163
-0.0495906
0.015908
-3.84706e-07
-0.047439
0.0132521
-5.24325e-08
-0.0474443
0.0132581
5.19442e-08
-0.0474425
0.0132612
3.84612e-07
-0.0474443
0.0132581
-0.047439
0.0132521
-3.49409e-07
-0.0507404
0.0163172
-6.07777e-08
-0.0507457
0.0163197
5.6674e-08
-0.0507438
0.0163224
3.4846e-07
-0.0507457
0.0163197
-0.0507404
0.0163172
-5.59425e-07
-0.00523074
0.00810271
-0.050247
-8.74402e-08
-0.00522691
0.00810143
-0.0502411
7.86169e-08
-0.00522725
0.00810243
-0.0502384
5.57319e-07
-0.00522691
0.00810143
-0.0502411
-0.00523074
0.00810271
-0.050247
-5.27389e-07
-0.00272144
-0.0499853
-7.72412e-08
-0.00271724
-0.0499749
8.9603e-08
-0.00271694
-0.0499722
5.30743e-07
-0.00271724
-0.0499749
-0.00272144
-0.0499853
-5.0108e-07
0.000354394
-0.0513212
-8.56047e-08
0.000359195
-0.0513079
8.13558e-08
0.000360027
-0.0513052
5.00036e-07
0.000359194
-0.0513079
0.000354394
-0.0513212
-4.70618e-07
0.00255485
-0.0514929
-8.29515e-08
0.00255974
-0.0514818
8.22373e-08
0.00256101
-0.0514791
4.70514e-07
0.00255974
-0.0514818
0.00255485
-0.0514929
-4.29075e-07
0.00531124
-0.0517985
-7.97704e-08
0.00531497
-0.0517904
8.04748e-08
0.0053166
-0.0517878
4.29036e-07
0.00531497
-0.0517904
0.00531124
-0.0517985
-3.98556e-07
0.00682974
-0.0512658
-7.78518e-08
0.00683272
-0.0512623
7.72163e-08
0.00683468
-0.0512599
3.98606e-07
0.00683272
-0.0512623
0.00682974
-0.0512658
-3.80399e-07
0.00916512
-0.0524092
-7.47569e-08
0.00916755
-0.0524091
7.5263e-08
0.00916977
-0.0524069
3.80292e-07
0.00916755
-0.0524091
0.00916512
-0.0524092
-3.42324e-07
0.0113171
-0.0522003
-7.02658e-08
0.0113192
-0.052203
6.95314e-08
0.0113216
-0.0522009
3.4234e-07
0.0113192
-0.052203
0.0113171
-0.0522003
-2.88164e-07
0.0136108
-0.0530339
-6.67061e-08
0.0136127
-0.0530393
6.66901e-08
0.0136151
-0.0530374
2.88064e-07
0.0136127
-0.0530393
0.0136108
-0.0530339
-1.74041e-07
-0.00961051
0.0593748
0.00215387
5.6672e-08
-0.00959722
0.0593909
0.00213967
-5.67051e-08
-0.00959614
0.059394
0.00213843
1.74028e-07
-0.00959722
0.0593909
0.00213967
-0.00961051
0.0593748
0.00215387
-3.14333e-08
-0.0345149
0.0726645
3.60138e-09
-0.0345122
0.0726861
-3.61443e-09
-0.0345116
0.0726905
3.14216e-08
-0.0345122
0.0726861
-0.0345149
0.0726645
-1.51814e-09
6.78605e-05
-8.51513e-05
-0.000177198
-2.07431e-09
6.78712e-05
-8.50798e-05
-0.00017682
2.07666e-09
6.78846e-05
-8.50807e-05
-0.000176672
1.51951e-09
6.78712e-05
-8.50798e-05
-0.00017682
6.78605e-05
-8.51513e-05
-0.000177198
-1.43831e-08
5.13138e-05
-0.000176315
-2.60994e-09
5.13257e-05
-0.000175914
2.61271e-09
5.13454e-05
-0.000175758
1.4385e-08
5.13257e-05
-0.000175914
5.13138e-05
-0.000176315
-6.31988e-09
3.70804e-05
-0.000187952
-2.05567e-09
3.7155e-05
-0.000187555
2.05138e-09
3.71874e-05
-0.000187402
6.32266e-09
3.7155e-05
-0.000187555
3.70804e-05
-0.000187952
-1.00324e-08
1.80585e-05
-0.000190084
-1.97066e-09
1.81432e-05
-0.000189705
1.97222e-09
1.81837e-05
-0.000189566
1.00341e-08
1.81432e-05
-0.000189705
1.80585e-05
-0.000190084
-8.95537e-09
0.000207655
3.75563e-06
-0.000193343
-1.92671e-09
0.000207189
3.86941e-06
-0.000192922
1.92762e-09
0.000207027
3.92026e-06
-0.000192768
8.95633e-09
0.000207189
3.86941e-06
-0.000192922
0.000207655
3.75564e-06
-0.000193343
-1.12565e-08
0.00023963
-4.38873e-06
-2.18854e-09
0.000239109
-4.20321e-06
2.18893e-09
0.00023894
-4.13401e-06
1.12575e-08
0.000239109
-4.20321e-06
0.00023963
-4.38873e-06
-1.39659e-08
0.000270057
7.332e-06
-2.5011e-09
0.000269438
7.53719e-06
2.50268e-09
0.000269256
7.61315e-06
1.39666e-08
0.000269438
7.53719e-06
0.000270057
7.332e-06
-1.70346e-08
0.000309903
1.55792e-05
-2.85029e-09
0.000309213
1.57963e-05
2.82767e-09
0.000309034
1.58697e-05
1.70298e-08
0.000309213
1.57963e-05
0.000309903
1.55792e-05
-2.13287e-08
0.000350144
5.02208e-05
-3.16697e-09
0.000349443
5.03938e-05
3.16792e-09
0.00034928
5.04613e-05
2.13279e-08
0.000349443
5.03938e-05
0.000350144
5.02208e-05
-2.31191e-08
0.000389756
8.90795e-05
-2.8843e-09
0.000389171
8.91616e-05
2.88337e-09
0.000389039
8.92029e-05
2.31182e-08
0.000389171
8.91616e-05
0.000389756
8.90795e-05
-1.94241e-08
0.000397509
0.000142721
-2.08999e-09
0.000397006
0.00014277
2.08962e-09
0.000396888
0.000142801
1.94233e-08
0.000397006
0.00014277
0.000397509
0.000142721
-2.8222e-08
-0.000209758
0.000160893
-3.36927e-09
-0.000209206
0.000159781
3.37597e-09
-0.000209112
0.00015953
2.82233e-08
-0.000209206
0.000159781
-0.000209758
0.000160893
-2.61992e-08
-0.000240096
3.38662e-05
-3.765e-09
-0.00023951
3.39252e-05
3.71227e-09
-0.000239362
3.39021e-05
2.61941e-08
-0.00023951
3.39253e-05
-0.000240096
3.38663e-05
-2.78469e-08
-0.000222207
-9.05795e-05
-3.94367e-09
-0.000221453
-9.10549e-05
4.33023e-09
-0.000221252
-9.11838e-05
2.79434e-08
-0.000221453
-9.10548e-05
-0.000222207
-9.05795e-05
-2.41651e-08
-0.00019154
-9.63484e-05
-4.06903e-09
-0.000190933
-9.61737e-05
3.47097e-09
-0.000190744
-9.61487e-05
2.40154e-08
-0.000190933
-9.61737e-05
-0.00019154
-9.63484e-05
-2.49891e-08
-0.000178411
-0.000105154
-3.63945e-09
-0.000177893
-0.00010533
4.21368e-09
-0.000177709
-0.000105384
2.51445e-08
-0.000177893
-0.00010533
-0.000178411
-0.000105154
-1.90062e-06
-0.0249584
0.0281144
0.0150423
3.50843e-07
-0.0248763
0.0281262
0.0149214
-3.50843e-07
-0.0248688
0.0281291
0.0149122
1.90063e-06
-0.0248763
0.0281262
0.0149214
-0.0249584
0.0281144
0.0150423
-2.02332e-06
-0.0301055
0.0223862
1.78543e-07
-0.0300651
0.0224275
-1.78541e-07
-0.0300603
0.022434
2.02332e-06