/*--------------------------------*- C++ -*----------------------------------*\
| =========                 |                                                 |
| \\      /  F ield         | OpenFOAM: The Open Source CFD Toolbox           |
|  \\    /   O peration     | Version:  v1806                                 |
|   \\  /    A nd           | Web:      www.OpenFOAM.com                      |
|    \\/     M anipulation  |                                                 |
\*---------------------------------------------------------------------------*/
FoamFile
{
    version     2.0;
    format      ascii;
    class       volVectorField;
    location    "100";
    object      U;
}
// * * * * * * * * * * * * * * * * * * * * * * * * * * * * * * * * * * * * * //

dimensions      [0 1 -1 0 0 0 0];


internalField   nonuniform List<vector> 
5760
(
(0.257399 -0.210107 -0.000106221)
(0.257518 -0.210084 -9.59139e-07)
(0.257528 -0.210084 -4.27983e-12)
(0.257518 -0.210084 9.59187e-07)
(0.257399 -0.210107 0.000106221)
(0.224376 -0.176325 -0.000257769)
(0.224306 -0.176245 -5.37658e-07)
(0.224291 -0.17623 -1.07994e-10)
(0.224306 -0.176245 5.37722e-07)
(0.224376 -0.176325 0.000257769)
(0.204733 -0.185195 -0.000108446)
(0.20467 -0.185039 -7.69052e-07)
(0.204646 -0.185032 1.22291e-09)
(0.20467 -0.185039 7.6957e-07)
(0.204733 -0.185195 0.000108445)
(0.242136 -0.219464 9.82953e-05)
(0.242287 -0.219377 -7.29839e-07)
(0.242301 -0.219381 8.32315e-11)
(0.242287 -0.219377 7.3001e-07)
(0.242136 -0.219464 -9.82955e-05)
(0.267008 -0.216635 0.000144721)
(0.267146 -0.216671 -8.33599e-07)
(0.267161 -0.216688 2.10515e-11)
(0.267146 -0.216671 8.33659e-07)
(0.267008 -0.216635 -0.000144721)
(0.212812 -0.205652 0.000169182)
(0.212962 -0.205515 -1.78303e-06)
(0.212949 -0.205528 4.23088e-10)
(0.212962 -0.205515 1.78343e-06)
(0.212812 -0.205652 -0.000169183)
(0.243353 -0.222756 0.000328538)
(0.243558 -0.222709 -9.59748e-07)
(0.243579 -0.222722 -2.33405e-10)
(0.243558 -0.222709 9.59818e-07)
(0.243353 -0.222756 -0.000328538)
(0.258227 -0.215786 0.000355407)
(0.258368 -0.215844 -1.05123e-06)
(0.258387 -0.215868 -2.55708e-11)
(0.258368 -0.215844 1.05125e-06)
(0.258227 -0.215786 -0.000355407)
(0.137801 -0.0716839 0.00261879)
(0.137668 -0.0718488 1.43434e-06)
(0.137661 -0.071871 1.87107e-12)
(0.137668 -0.0718488 -1.43433e-06)
(0.137801 -0.0716839 -0.00261879)
(0.116509 -0.0558002 0.00283609)
(0.116441 -0.055945 2.11335e-06)
(0.116441 -0.0559609 2.243e-12)
(0.116441 -0.055945 -2.11334e-06)
(0.116509 -0.0558002 -0.00283609)
(0.149126 -0.0315956 0.00264277)
(0.148926 -0.0317519 2.00819e-06)
(0.148904 -0.0317733 3.07268e-12)
(0.148926 -0.0317519 -2.00818e-06)
(0.149126 -0.0315956 -0.00264277)
(0.1648 -0.0504624 0.0024958)
(0.164703 -0.0505809 1.63269e-06)
(0.164693 -0.050601 3.36679e-12)
(0.164703 -0.0505809 -1.63268e-06)
(0.1648 -0.0504624 -0.0024958)
(-0.00990632 -0.00608883 -0.000107365)
(-0.00986705 -0.00610556 1.61546e-07)
(-0.009859 -0.0061064 3.98686e-13)
(-0.00986705 -0.00610556 -1.61581e-07)
(-0.00990632 -0.00608883 0.000107365)
(-0.00675528 -0.00427507 -3.37508e-05)
(-0.00673273 -0.00426187 2.63222e-07)
(-0.00672945 -0.00425975 3.75143e-11)
(-0.00673273 -0.00426187 -2.63291e-07)
(-0.00675528 -0.00427507 3.37508e-05)
(-0.010258 -0.00875056 -4.16653e-05)
(-0.0102487 -0.00875426 2.46543e-07)
(-0.0102451 -0.00875285 3.74954e-11)
(-0.0102487 -0.00875426 -2.46609e-07)
(-0.010258 -0.00875056 4.16654e-05)
(0.1565 -0.0915489 0.00240759)
(0.156442 -0.0916892 1.14731e-06)
(0.156436 -0.0917089 1.3707e-12)
(0.156442 -0.0916892 -1.1473e-06)
(0.1565 -0.0915489 -0.00240759)
(0.142074 -0.11381 0.00243453)
(0.142084 -0.114153 4.95934e-07)
(0.142088 -0.114189 9.05807e-13)
(0.142084 -0.114153 -4.95925e-07)
(0.142074 -0.11381 -0.00243453)
(-0.00509506 0.000481882 -2.38128e-05)
(-0.00508929 0.000481519 1.66267e-08)
(-0.00508772 0.000480975 -2.13002e-10)
(-0.00508929 0.000481519 -1.66954e-08)
(-0.00509506 0.000481882 2.38131e-05)
(-0.00445425 0.000239529 -2.17252e-05)
(-0.00444735 0.000237847 -1.38797e-09)
(-0.00444587 0.000237346 -3.47553e-11)
(-0.00444735 0.000237847 1.37403e-09)
(-0.00445425 0.000239529 2.17253e-05)
(-0.00381151 0.00145915 -1.44696e-05)
(-0.00380982 0.00146185 7.71354e-08)
(-0.00380946 0.0014625 -9.45032e-12)
(-0.00380982 0.00146185 -7.71385e-08)
(-0.00381151 0.00145915 1.44697e-05)
(0.223048 0.270139 0.00014104)
(0.223131 0.270875 -5.97059e-06)
(0.223128 0.270967 -9.4973e-11)
(0.223131 0.270875 5.97044e-06)
(0.223048 0.270139 -0.00014104)
(0.235662 0.237201 0.000304983)
(0.236008 0.237619 -4.29548e-06)
(0.236008 0.237676 -1.79729e-10)
(0.236008 0.237619 4.29522e-06)
(0.235662 0.237201 -0.000304983)
(0.172556 0.214863 0.00126213)
(0.172347 0.215311 -6.82033e-08)
(0.172309 0.215349 -5.75003e-11)
(0.172347 0.215311 6.81146e-08)
(0.172556 0.214863 -0.00126213)
(0.125586 0.213651 0.00135655)
(0.124905 0.214064 -7.87769e-08)
(0.124835 0.214051 -2.00788e-11)
(0.124905 0.214064 7.87384e-08)
(0.125586 0.213651 -0.00135655)
(-0.0180315 0.00199548 -3.21339e-05)
(-0.0180168 0.00201732 2.40701e-07)
(-0.0180143 0.00202144 1.49757e-11)
(-0.0180168 0.00201732 -2.40705e-07)
(-0.0180315 0.00199548 3.21338e-05)
(-0.0122943 3.66592e-06 -2.29225e-05)
(-0.0122806 2.1736e-05 1.56342e-07)
(-0.0122768 2.51804e-05 1.70521e-11)
(-0.0122806 2.17355e-05 -1.56341e-07)
(-0.0122943 3.66539e-06 2.29225e-05)
(-0.0100602 -0.00116964 -4.19841e-05)
(-0.0100452 -0.00117252 5.7336e-09)
(-0.010041 -0.00117367 1.3847e-11)
(-0.0100452 -0.00117253 -5.72212e-09)
(-0.0100602 -0.00116964 4.1984e-05)
(-0.0105831 -0.00872722 -3.0891e-05)
(-0.0105713 -0.00875087 3.13783e-07)
(-0.0105671 -0.00875342 2.69534e-11)
(-0.0105713 -0.00875087 -3.13856e-07)
(-0.0105831 -0.00872722 3.0891e-05)
(-0.0037001 -0.00146227 -5.18277e-05)
(-0.00369197 -0.00145303 -3.48168e-08)
(-0.0036888 -0.00145075 1.40409e-11)
(-0.00369197 -0.00145303 3.47372e-08)
(-0.0037001 -0.00146227 5.18278e-05)
(-0.00262451 -0.00161987 -5.86183e-05)
(-0.00263208 -0.00159254 -1.16672e-07)
(-0.00263072 -0.00158665 -1.38671e-11)
(-0.00263208 -0.00159254 1.16614e-07)
(-0.00262451 -0.00161987 5.86183e-05)
(0.155294 -0.178634 0.00154438)
(0.155349 -0.178674 -3.57474e-07)
(0.155341 -0.178692 5.59441e-12)
(0.155349 -0.178674 3.57492e-07)
(0.155294 -0.178634 -0.00154438)
(0.138633 -0.166833 0.00188374)
(0.138732 -0.166901 -3.67038e-07)
(0.138733 -0.166923 -1.21891e-13)
(0.138732 -0.166901 3.67047e-07)
(0.138633 -0.166833 -0.00188374)
(0.170244 -0.179571 0.00165138)
(0.170397 -0.179652 -3.81432e-07)
(0.170408 -0.179671 1.11576e-12)
(0.170397 -0.179652 3.81444e-07)
(0.170244 -0.179571 -0.00165138)
(0.28006 -0.215568 -0.000118231)
(0.28017 -0.215606 -8.67493e-07)
(0.280185 -0.215613 6.45931e-13)
(0.28017 -0.215606 8.6751e-07)
(0.28006 -0.215568 0.000118231)
(0.237294 -0.17673 -0.000320029)
(0.237213 -0.176783 -1.19536e-06)
(0.237197 -0.176768 -4.75224e-12)
(0.237213 -0.176783 1.19537e-06)
(0.237294 -0.17673 0.000320029)
(0.237457 -0.218435 0.000556427)
(0.237543 -0.218388 4.61965e-07)
(0.237557 -0.218399 2.06324e-10)
(0.237543 -0.218388 -4.61746e-07)
(0.237457 -0.218435 -0.000556427)
(0.252794 -0.205865 0.000562)
(0.252824 -0.205959 8.75197e-08)
(0.252833 -0.205987 3.10984e-11)
(0.252824 -0.205959 -8.74674e-08)
(0.252794 -0.205865 -0.000562)
(-0.0012117 0.000390752 -1.21226e-05)
(-0.00120912 0.000392908 2.78208e-08)
(-0.00120822 0.000393534 -5.57579e-12)
(-0.00120912 0.000392908 -2.78404e-08)
(-0.0012117 0.000390752 1.21226e-05)
(-0.00122123 0.000202782 -1.11779e-05)
(-0.00121938 0.000201627 4.38444e-08)
(-0.00121871 0.000201395 3.43214e-11)
(-0.00121938 0.000201627 -4.38663e-08)
(-0.00122123 0.000202782 1.11779e-05)
(0.0977739 -0.101433 0.0026976)
(0.0975543 -0.101656 1.00034e-06)
(0.0975376 -0.101674 -7.10514e-13)
(0.0975543 -0.101656 -1.00033e-06)
(0.0977739 -0.101433 -0.0026976)
(0.0804693 -0.066729 0.00289869)
(0.080282 -0.0670106 9.40095e-07)
(0.0802738 -0.0670437 5.05424e-13)
(0.080282 -0.0670106 -9.4009e-07)
(0.0804693 -0.066729 -0.00289869)
(0.185442 -0.0398176 0.002331)
(0.185349 -0.0398768 1.61194e-06)
(0.185337 -0.0398914 3.32425e-12)
(0.185349 -0.0398768 -1.61193e-06)
(0.185442 -0.0398176 -0.002331)
(0.176285 -0.0209252 0.00244456)
(0.176151 -0.020989 1.93179e-06)
(0.176138 -0.0210005 5.8174e-12)
(0.176151 -0.020989 -1.93178e-06)
(0.176285 -0.0209252 -0.00244456)
(0.199437 -0.0148068 0.00223666)
(0.199309 -0.0148533 1.78102e-06)
(0.19929 -0.0148646 2.23443e-11)
(0.199309 -0.0148533 -1.78098e-06)
(0.199437 -0.0148068 -0.00223666)
(0.205033 -0.0319871 0.00216392)
(0.204927 -0.0320292 1.6873e-06)
(0.204912 -0.0320429 5.45346e-13)
(0.204927 -0.0320292 -1.6873e-06)
(0.205033 -0.0319871 -0.00216392)
(0.0602232 -0.00905929 0.00315844)
(0.0598875 -0.00925018 2.57903e-06)
(0.0598713 -0.00926842 1.05811e-12)
(0.0598875 -0.00925018 -2.57903e-06)
(0.0602232 -0.00905929 -0.00315844)
(0.17805 -0.0713411 0.00232302)
(0.177982 -0.0714455 1.33273e-06)
(0.177974 -0.071467 2.36795e-12)
(0.177982 -0.0714455 -1.33273e-06)
(0.17805 -0.0713411 -0.00232302)
(0.195165 -0.0587228 0.00218648)
(0.195091 -0.0587852 1.48706e-06)
(0.195081 -0.058801 4.88876e-12)
(0.195091 -0.0587852 -1.48705e-06)
(0.195165 -0.0587228 -0.00218648)
(0.212826 -0.0473241 0.00204439)
(0.212724 -0.0473791 1.58645e-06)
(0.212711 -0.0473955 1.89408e-11)
(0.212724 -0.0473791 -1.58641e-06)
(0.212826 -0.0473241 -0.00204439)
(0.217712 -0.0102064 0.00205094)
(0.217599 -0.0102342 1.67281e-06)
(0.217582 -0.0102418 1.18806e-10)
(0.217599 -0.0102342 -1.67267e-06)
(0.217712 -0.0102064 -0.00205094)
(0.22189 -0.0260247 0.00198776)
(0.221779 -0.0260661 1.60918e-06)
(0.221764 -0.0260776 -5.89561e-11)
(0.221779 -0.0260661 -1.60923e-06)
(0.22189 -0.0260247 -0.00198776)
(0.227578 -0.0394317 0.00189116)
(0.227475 -0.0394766 1.49678e-06)
(0.227462 -0.0394901 1.0868e-10)
(0.227475 -0.0394766 -1.49665e-06)
(0.227578 -0.0394317 -0.00189116)
(0.097993 -0.0219163 0.00294909)
(0.0977724 -0.0219829 2.11849e-06)
(0.0977573 -0.0219909 2.12596e-12)
(0.0977724 -0.0219829 -2.11849e-06)
(0.097993 -0.0219163 -0.00294909)
(0.13817 -0.00184237 0.00277446)
(0.137989 -0.00195942 2.51842e-06)
(0.137971 -0.00197834 2.87039e-12)
(0.137989 -0.00195942 -2.51842e-06)
(0.13817 -0.00184237 -0.00277446)
(0.166896 0.000614531 0.00252199)
(0.1667 0.000584198 2.16723e-06)
(0.166679 0.000578878 3.84791e-12)
(0.1667 0.000584198 -2.16723e-06)
(0.166896 0.000614531 -0.00252199)
(0.194919 0.00557562 0.00229231)
(0.194779 0.00550551 1.96887e-06)
(0.194759 0.00549443 5.95559e-12)
(0.194779 0.00550551 -1.96886e-06)
(0.194919 0.00557562 -0.00229231)
(0.11529 -0.137444 0.00237323)
(0.115293 -0.137778 -5.46844e-07)
(0.115286 -0.137812 -7.56009e-14)
(0.115293 -0.137778 5.46853e-07)
(0.11529 -0.137444 -0.00237323)
(0.214147 0.00571799 0.00208589)
(0.214017 0.00570193 1.76583e-06)
(0.213997 0.00569899 -1.02832e-12)
(0.214017 0.00570193 -1.76581e-06)
(0.214147 0.00571799 -0.00208589)
(0.0921843 0.0235682 0.0029539)
(0.0919587 0.023494 2.01307e-06)
(0.0919427 0.0234842 1.34395e-12)
(0.0919587 0.023494 -2.01307e-06)
(0.0921843 0.0235682 -0.0029539)
(0.134316 0.023417 0.00277847)
(0.134136 0.0233716 2.56131e-06)
(0.134118 0.0233678 4.79804e-13)
(0.134136 0.0233716 -2.56131e-06)
(0.134316 0.023417 -0.00277847)
(0.161932 0.0247688 0.00254224)
(0.161744 0.0246927 2.01737e-06)
(0.161721 0.0246852 1.11553e-12)
(0.161744 0.0246927 -2.01737e-06)
(0.161932 0.0247688 -0.00254224)
(0.191518 0.0244608 0.00230545)
(0.191373 0.0244314 2.24874e-06)
(0.191354 0.0244292 3.91046e-12)
(0.191373 0.0244314 -2.24874e-06)
(0.191518 0.0244608 -0.00230545)
(0.212721 0.022207 0.00207352)
(0.212567 0.0222078 1.84893e-06)
(0.212545 0.0222079 2.35238e-11)
(0.212567 0.0222078 -1.84889e-06)
(0.212721 0.022207 -0.00207352)
(0.231261 0.0211687 0.00188057)
(0.23116 0.0211489 1.65203e-06)
(0.231143 0.0211477 1.37193e-10)
(0.23116 0.0211489 -1.65183e-06)
(0.231261 0.0211687 -0.00188057)
(0.231444 0.00697264 0.00190008)
(0.231339 0.00694286 1.57663e-06)
(0.231322 0.00693719 -2.19258e-10)
(0.231339 0.00694286 -1.57669e-06)
(0.231444 0.00697264 -0.00190008)
(0.233695 -0.00781989 0.00187581)
(0.23359 -0.0078491 1.53534e-06)
(0.233573 -0.00785681 8.54011e-10)
(0.23359 -0.0078491 -1.53465e-06)
(0.233695 -0.00781989 -0.00187581)
(0.237152 -0.0207161 0.00182357)
(0.237051 -0.0207513 1.49174e-06)
(0.237035 -0.0207615 -7.10434e-10)
(0.237051 -0.0207513 -1.49219e-06)
(0.237152 -0.0207161 -0.00182357)
(0.241588 -0.0332084 0.00174155)
(0.241495 -0.0332507 1.37495e-06)
(0.241482 -0.0332633 8.55923e-10)
(0.241495 -0.0332507 -1.3743e-06)
(0.241588 -0.0332084 -0.00174155)
(0.246787 -0.0444372 0.00163555)
(0.246699 -0.044486 1.28973e-06)
(0.246687 -0.0445 -6.57946e-10)
(0.246699 -0.044486 -1.29006e-06)
(0.246787 -0.0444372 -0.00163555)
(0.234201 -0.0525305 0.00176696)
(0.234105 -0.0525879 1.40191e-06)
(0.234093 -0.0526032 -8.65112e-12)
(0.234105 -0.0525879 -1.40187e-06)
(0.234201 -0.0525305 -0.00176696)
(0.2214 -0.0625365 0.00189566)
(0.221317 -0.0626057 1.39942e-06)
(0.221307 -0.0626229 1.53899e-11)
(0.221317 -0.0626057 -1.39939e-06)
(0.2214 -0.0625365 -0.00189566)
(0.206485 -0.0745483 0.00200951)
(0.206421 -0.0746354 1.22421e-06)
(0.206412 -0.0746538 3.89021e-12)
(0.206421 -0.0746354 -1.2242e-06)
(0.206485 -0.0745483 -0.00200951)
(0.192738 -0.0893237 0.00210546)
(0.192711 -0.0894324 1.043e-06)
(0.192706 -0.089456 1.4859e-12)
(0.192711 -0.0894324 -1.04299e-06)
(0.192738 -0.0893237 -0.00210546)
(0.175462 -0.108739 0.00216222)
(0.175502 -0.108858 5.06641e-07)
(0.175498 -0.108879 9.69006e-13)
(0.175502 -0.108858 -5.06636e-07)
(0.175462 -0.108739 -0.00216222)
(0.164532 -0.130035 0.00214195)
(0.164646 -0.130245 -1.53971e-07)
(0.164658 -0.130276 1.14383e-12)
(0.164646 -0.130245 1.53977e-07)
(0.164532 -0.130035 -0.00214195)
(0.154917 -0.158488 0.00205382)
(0.154936 -0.158684 -3.39473e-07)
(0.154936 -0.158714 -4.05441e-13)
(0.154936 -0.158684 3.3948e-07)
(0.154917 -0.158488 -0.00205382)
(0.18094 -0.16529 0.00179005)
(0.180984 -0.16538 5.48161e-07)
(0.180987 -0.165405 -2.2927e-12)
(0.180984 -0.16538 -5.48156e-07)
(0.18094 -0.16529 -0.00179005)
(0.184627 -0.140358 0.00186247)
(0.184667 -0.140441 3.21914e-07)
(0.184672 -0.140464 -2.19674e-12)
(0.184667 -0.140441 -3.21912e-07)
(0.184627 -0.140358 -0.00186247)
(0.195414 -0.122114 0.00190381)
(0.195451 -0.122196 5.95601e-07)
(0.195449 -0.122216 -3.06634e-13)
(0.195451 -0.122196 -5.95598e-07)
(0.195414 -0.122114 -0.00190381)
(0.207248 -0.102152 0.00187692)
(0.207224 -0.102261 8.15948e-07)
(0.207221 -0.102284 4.76577e-12)
(0.207224 -0.102261 -8.15937e-07)
(0.207248 -0.102152 -0.00187692)
(0.218563 -0.0875631 0.00181355)
(0.218524 -0.0876558 9.73509e-07)
(0.218519 -0.0876748 2.23364e-11)
(0.218524 -0.0876558 -9.73469e-07)
(0.218563 -0.0875631 -0.00181355)
(0.230508 -0.0743803 0.00172809)
(0.230436 -0.074472 1.19665e-06)
(0.230427 -0.0744917 8.17144e-11)
(0.230436 -0.074472 -1.19652e-06)
(0.230508 -0.0743803 -0.00172809)
(0.241414 -0.0633154 0.00162487)
(0.24133 -0.0633893 1.19611e-06)
(0.24132 -0.0634062 2.98382e-10)
(0.24133 -0.0633893 -1.1957e-06)
(0.241414 -0.0633154 -0.00162487)
(0.25219 -0.0543078 0.00151381)
(0.252117 -0.0543644 1.09974e-06)
(0.252107 -0.0543797 1.38303e-09)
(0.252117 -0.0543643 -1.09841e-06)
(0.25219 -0.0543078 -0.00151382)
(0.0743383 0.0511076 0.00299777)
(0.0740006 0.0509798 2.78059e-06)
(0.0739849 0.050975 2.08142e-12)
(0.0740006 0.0509798 -2.7806e-06)
(0.0743383 0.0511076 -0.00299777)
(0.119941 0.0615534 0.00275193)
(0.119711 0.0614398 2.49218e-06)
(0.119686 0.0614275 -1.33133e-12)
(0.119711 0.0614398 -2.49218e-06)
(0.119941 0.0615534 -0.00275193)
(0.163085 0.0514252 0.00249171)
(0.16287 0.0514121 2.60668e-06)
(0.162847 0.0514147 -1.37912e-12)
(0.16287 0.0514121 -2.60668e-06)
(0.163085 0.0514252 -0.00249171)
(0.191288 0.0445522 0.00224302)
(0.19108 0.0445509 2.29361e-06)
(0.191055 0.0445525 -2.18198e-12)
(0.19108 0.0445509 -2.29362e-06)
(0.191288 0.0445522 -0.00224302)
(0.214212 0.0405713 0.00201846)
(0.214074 0.0405906 1.75921e-06)
(0.214054 0.0405951 -3.98473e-12)
(0.214074 0.0405906 -1.75921e-06)
(0.214212 0.0405713 -0.00201846)
(0.232019 0.0365577 0.00182493)
(0.231926 0.036549 1.57704e-06)
(0.231908 0.0365513 -3.68104e-11)
(0.231926 0.036549 -1.57705e-06)
(0.232019 0.0365577 -0.00182493)
(0.246107 0.0324807 0.0016587)
(0.246016 0.0324855 1.45482e-06)
(0.245999 0.0324904 -4.80403e-10)
(0.246016 0.0324855 -1.45504e-06)
(0.246107 0.0324807 -0.0016587)
(0.244943 0.0198919 0.00171158)
(0.244851 0.019879 1.4091e-06)
(0.244833 0.01988 1.12011e-09)
(0.244851 0.019879 -1.40804e-06)
(0.244943 0.0198919 -0.00171158)
(0.245291 0.00720075 0.00173161)
(0.245202 0.00718108 1.38925e-06)
(0.245186 0.00717891 -3.16796e-09)
(0.245202 0.00718109 -1.39002e-06)
(0.245291 0.00720075 -0.0017316)
(0.247165 -0.00528079 0.00171482)
(0.24708 -0.00530947 1.32417e-06)
(0.247065 -0.00531534 7.66273e-09)
(0.24708 -0.00530947 -1.32131e-06)
(0.247165 -0.00528079 -0.00171483)
(0.249653 -0.0172542 0.00167223)
(0.249566 -0.0172864 1.29523e-06)
(0.249552 -0.0172949 -7.77498e-09)
(0.249566 -0.0172864 -1.29778e-06)
(0.249653 -0.0172542 -0.00167222)
(0.253057 -0.0279519 0.00160309)
(0.252975 -0.0279874 1.22633e-06)
(0.252961 -0.0279979 8.45296e-09)
(0.252975 -0.0279874 -1.22335e-06)
(0.253057 -0.0279519 -0.0016031)
(0.256977 -0.0378137 0.00151226)
(0.2569 -0.0378511 1.13148e-06)
(0.256888 -0.0378632 -8.31904e-09)
(0.2569 -0.0378511 -1.13406e-06)
(0.256977 -0.0378137 -0.00151225)
(0.261187 -0.0467212 0.00140539)
(0.26112 -0.0467631 1.01395e-06)
(0.261109 -0.0467764 9.93498e-09)
(0.26112 -0.0467631 -1.00976e-06)
(0.261187 -0.0467212 -0.00140541)
(0.181092 -0.198932 0.00118809)
(0.18096 -0.199005 1.72885e-07)
(0.180954 -0.199025 2.67178e-11)
(0.18096 -0.199005 -1.72835e-07)
(0.181092 -0.198932 -0.00118809)
(0.195568 -0.195814 0.00134404)
(0.195707 -0.195902 -6.05024e-07)
(0.195726 -0.195919 7.91449e-12)
(0.195707 -0.195902 6.05047e-07)
(0.195568 -0.195814 -0.00134404)
(-0.000796086 0.000390752 -1.5667e-05)
(-0.000795057 0.000391482 4.73647e-08)
(-0.000794919 0.000391779 -1.2763e-11)
(-0.000795057 0.000391481 -4.73801e-08)
(-0.000796086 0.000390752 1.5667e-05)
(-0.000379399 0.000105645 -1.58726e-05)
(-0.000375828 0.000109805 5.2606e-08)
(-0.000375183 0.000110881 -1.55051e-11)
(-0.000375828 0.000109805 -5.26246e-08)
(-0.000379399 0.000105644 1.58727e-05)
(-0.00118388 0.000472507 -1.45398e-05)
(-0.00118088 0.000473997 3.44959e-08)
(-0.00118015 0.0004744 1.24783e-11)
(-0.00118088 0.000473997 -3.45148e-08)
(-0.00118388 0.000472507 1.45398e-05)
(-0.00104756 0.000588978 -1.44672e-05)
(-0.00104383 0.000589687 5.16619e-08)
(-0.00104299 0.000589958 -7.39033e-13)
(-0.00104383 0.000589687 -5.16677e-08)
(-0.00104756 0.000588978 1.44672e-05)
(-0.00079715 0.00068807 -1.47265e-05)
(-0.000794411 0.000690012 4.94401e-08)
(-0.000793933 0.000690259 -3.04256e-12)
(-0.000794411 0.000690011 -4.94431e-08)
(-0.00079715 0.000688069 1.47265e-05)
(-0.000975368 0.000216571 -1.4625e-05)
(-0.000972739 0.000216844 5.49033e-08)
(-0.000972051 0.000217013 -1.85092e-11)
(-0.000972739 0.000216844 -5.49298e-08)
(-0.000975368 0.000216571 1.4625e-05)
(-0.00124612 0.000473304 -1.32386e-05)
(-0.00124218 0.000475479 3.32558e-08)
(-0.00124113 0.000476138 -4.64648e-11)
(-0.00124218 0.000475478 -3.33221e-08)
(-0.00124612 0.000473304 1.32388e-05)
(-0.00116224 0.000158437 -1.3646e-05)
(-0.00115954 0.000157514 5.06641e-08)
(-0.00115885 0.000157336 -7.89435e-11)
(-0.00115954 0.000157514 -5.07391e-08)
(-0.00116224 0.000158437 1.36462e-05)
(-0.00120978 0.000263863 -1.24495e-05)
(-0.00120619 0.000264668 4.68582e-08)
(-0.00120524 0.000264821 -3.94282e-10)
(-0.00120619 0.000264668 -4.70424e-08)
(-0.00120978 0.000263863 1.24501e-05)
(-0.000609784 0.000196233 -1.71975e-05)
(-0.00060359 0.000199062 3.67154e-08)
(-0.000602086 0.000199989 -1.65561e-11)
(-0.00060359 0.000199062 -3.6737e-08)
(-0.000609784 0.000196233 1.71975e-05)
(-0.00097223 0.000388033 -1.72189e-05)
(-0.000968198 0.000390045 2.65022e-08)
(-0.000967047 0.00039073 -2.21033e-11)
(-0.000968198 0.000390045 -2.65256e-08)
(-0.00097223 0.000388033 1.72189e-05)
(-0.00115022 0.000643723 -1.62942e-05)
(-0.00114639 0.000647452 2.71658e-08)
(-0.0011453 0.000648563 5.05426e-11)
(-0.00114639 0.000647452 -2.7166e-08)
(-0.00115022 0.000643723 1.62942e-05)
(-0.00118416 0.000599374 -1.52947e-05)
(-0.0011812 0.000601848 1.35048e-08)
(-0.00118027 0.000602553 -5.4734e-11)
(-0.0011812 0.000601847 -1.35506e-08)
(-0.00118416 0.000599374 1.52948e-05)
(-0.00110504 0.000646932 -1.36892e-05)
(-0.00110261 0.00064991 1.50493e-08)
(-0.00110174 0.00065074 8.15837e-11)
(-0.00110261 0.00064991 -1.49873e-08)
(-0.00110504 0.000646932 1.36891e-05)
(-0.00110577 0.000194281 -9.95947e-06)
(-0.00110363 0.000193352 4.28604e-08)
(-0.00110283 0.000193164 -3.22387e-11)
(-0.00110363 0.000193352 -4.2874e-08)
(-0.00110577 0.000194281 9.95952e-06)
(-0.00112717 0.000336478 -1.10284e-05)
(-0.00112462 0.000338579 2.35637e-08)
(-0.00112371 0.000339215 -1.06562e-11)
(-0.00112462 0.000338579 -2.35788e-08)
(-0.00112717 0.000336478 1.10284e-05)
(-0.00118787 7.80959e-05 -9.78208e-06)
(-0.00118598 7.76968e-05 2.97606e-08)
(-0.00118521 7.76799e-05 -4.43855e-12)
(-0.00118598 7.76968e-05 -2.97688e-08)
(-0.00118787 7.80959e-05 9.7821e-06)
(-0.0012951 0.000141764 -1.10309e-05)
(-0.00129288 0.00014114 3.04281e-08)
(-0.00129212 0.000141086 5.87216e-13)
(-0.00129288 0.00014114 -3.04321e-08)
(-0.0012951 0.000141764 1.10309e-05)
(-0.00141995 0.000226947 -1.20953e-05)
(-0.00141759 0.000226455 3.50358e-08)
(-0.00141686 0.000226467 5.24891e-11)
(-0.00141759 0.000226455 -3.50241e-08)
(-0.00141995 0.000226947 1.20953e-05)
(-0.00148818 0.000424674 -1.33884e-05)
(-0.00148555 0.000424984 3.37606e-08)
(-0.00148486 0.000425124 -5.28044e-12)
(-0.00148555 0.000424984 -3.37667e-08)
(-0.00148818 0.000424674 1.33884e-05)
(-0.00148056 0.000635105 -1.42791e-05)
(-0.00147797 0.000635531 4.19066e-08)
(-0.00147723 0.000635612 5.38519e-13)
(-0.00147797 0.000635531 -4.19074e-08)
(-0.00148056 0.000635105 1.42791e-05)
(-0.00131826 0.00087559 -1.54556e-05)
(-0.00131542 0.000875489 3.81469e-08)
(-0.00131479 0.000875396 1.4599e-12)
(-0.00131542 0.000875489 -3.81461e-08)
(-0.00131826 0.00087559 1.54556e-05)
(0.201766 -0.170987 0.00150364)
(0.201866 -0.171119 -3.11615e-07)
(0.201872 -0.171146 -2.12264e-12)
(0.201866 -0.171119 3.11621e-07)
(0.201766 -0.170987 -0.00150364)
(0.204052 -0.150054 0.00159488)
(0.204125 -0.150135 1.52336e-07)
(0.204132 -0.150155 -3.24955e-12)
(0.204125 -0.150135 -1.52335e-07)
(0.204052 -0.150054 -0.00159488)
(0.213217 -0.131347 0.00164985)
(0.213233 -0.131449 5.37385e-07)
(0.213232 -0.131471 -1.72263e-12)
(0.213233 -0.131449 -5.37384e-07)
(0.213217 -0.131347 -0.00164985)
(0.220965 -0.11261 0.00164404)
(0.220936 -0.112719 7.31522e-07)
(0.220934 -0.112741 3.98483e-12)
(0.220936 -0.112719 -7.31512e-07)
(0.220965 -0.11261 -0.00164404)
(0.230821 -0.0976847 0.00160596)
(0.23078 -0.0977904 8.49519e-07)
(0.230775 -0.0978109 3.21818e-11)
(0.23078 -0.0977904 -8.49464e-07)
(0.230821 -0.0976847 -0.00160596)
(0.239836 -0.0840012 0.00154485)
(0.239775 -0.0841001 9.44671e-07)
(0.239767 -0.0841204 1.42322e-10)
(0.239775 -0.0841001 -9.44449e-07)
(0.239836 -0.0840012 -0.00154485)
(0.248983 -0.0725075 0.00146735)
(0.248923 -0.0725817 9.48546e-07)
(0.248915 -0.0725989 4.57303e-10)
(0.248923 -0.0725817 -9.47908e-07)
(0.248983 -0.0725075 -0.00146735)
(0.25745 -0.0628336 0.0013812)
(0.257392 -0.0628928 9.20172e-07)
(0.257383 -0.062909 1.02842e-09)
(0.257392 -0.0628928 -9.18945e-07)
(0.25745 -0.0628336 -0.00138121)
(0.265727 -0.0538281 0.00128675)
(0.265669 -0.053878 8.77985e-07)
(0.265659 -0.0538924 -1.79938e-09)
(0.265669 -0.053878 -8.77788e-07)
(0.265727 -0.0538281 -0.00128675)
(0.258532 0.0281118 0.00150821)
(0.25845 0.0281139 1.35084e-06)
(0.258435 0.0281172 -5.93675e-09)
(0.25845 0.0281139 -1.35238e-06)
(0.258532 0.0281118 -0.0015082)
(0.257626 0.0177887 0.00155949)
(0.257551 0.0177768 1.31011e-06)
(0.257536 0.0177771 1.23016e-08)
(0.257551 0.0177768 -1.30486e-06)
(0.257626 0.0177887 -0.00155951)
(0.257686 0.0069674 0.00158055)
(0.257613 0.00694465 1.23744e-06)
(0.257598 0.00694149 -2.48286e-09)
(0.257613 0.00694464 -1.23776e-06)
(0.257686 0.0069674 -0.00158055)
(0.258751 -0.00371309 0.00157203)
(0.258683 -0.0037419 1.17663e-06)
(0.258669 -0.00374738 1.13783e-10)
(0.258683 -0.0037419 -1.1763e-06)
(0.258751 -0.00371309 -0.00157203)
(0.260692 -0.0137192 0.00153738)
(0.260627 -0.0137533 1.10115e-06)
(0.260613 -0.0137612 -5.55205e-10)
(0.260627 -0.0137533 -1.10163e-06)
(0.260692 -0.0137192 -0.00153738)
(0.263219 -0.023271 0.00147894)
(0.263154 -0.0233045 1.04081e-06)
(0.263142 -0.0233141 7.10301e-10)
(0.263154 -0.0233045 -1.04021e-06)
(0.263219 -0.023271 -0.00147894)
(0.26631 -0.0319468 0.00139946)
(0.266247 -0.0319795 9.84344e-07)
(0.266236 -0.0319904 -6.04655e-10)
(0.266247 -0.0319795 -9.84725e-07)
(0.26631 -0.0319468 -0.00139946)
(0.26967 -0.0394717 0.00130396)
(0.269612 -0.0395084 8.96025e-07)
(0.269601 -0.0395205 1.04013e-09)
(0.269612 -0.0395084 -8.95017e-07)
(0.26967 -0.0394717 -0.00130396)
(0.272987 -0.0462109 0.00119613)
(0.272937 -0.0462473 7.60579e-07)
(0.272927 -0.0462597 1.96571e-11)
(0.272937 -0.0462473 -7.60356e-07)
(0.272987 -0.0462109 -0.00119613)
(0.197518 -0.208087 0.000926624)
(0.197305 -0.208199 3.18381e-07)
(0.197292 -0.208225 8.98583e-11)
(0.197305 -0.208199 -3.18256e-07)
(0.197518 -0.208087 -0.000926624)
(0.222479 -0.196883 0.00102482)
(0.222501 -0.196933 6.10586e-08)
(0.222516 -0.196953 2.8629e-11)
(0.222501 -0.196933 -6.10044e-08)
(0.222479 -0.196883 -0.00102482)
(-0.00098855 0.00057243 -1.21816e-05)
(-0.000986198 0.000574166 6.56669e-09)
(-0.000985299 0.000574711 6.37727e-12)
(-0.000986198 0.000574166 -6.5632e-09)
(-0.00098855 0.00057243 1.21815e-05)
(-0.000985715 0.000162171 -8.80333e-06)
(-0.000983456 0.000160674 3.75979e-08)
(-0.000982589 0.000160335 -9.979e-12)
(-0.000983456 0.000160674 -3.7612e-08)
(-0.000985715 0.000162171 8.80336e-06)
(-0.00102327 0.000285883 -9.92217e-06)
(-0.00102104 0.000287489 1.79246e-08)
(-0.00102018 0.000288001 -7.95329e-12)
(-0.00102104 0.000287489 -1.79385e-08)
(-0.00102327 0.000285883 9.92219e-06)
(-0.00106356 3.72702e-05 -8.63626e-06)
(-0.00106169 3.66205e-05 2.68033e-08)
(-0.00106093 3.65354e-05 -4.94211e-12)
(-0.00106169 3.66205e-05 -2.68119e-08)
(-0.00106356 3.72702e-05 8.63627e-06)
(-0.00107406 4.01085e-05 -8.23878e-06)
(-0.00107195 4.17311e-05 2.40992e-08)
(-0.00107114 4.22943e-05 -2.5246e-12)
(-0.00107195 4.17311e-05 -2.41038e-08)
(-0.00107406 4.01085e-05 8.23879e-06)
(-0.00121024 9.78749e-05 -9.24924e-06)
(-0.00120775 9.99246e-05 2.92115e-08)
(-0.00120686 0.000100597 -1.55677e-12)
(-0.00120775 9.99246e-05 -2.9215e-08)
(-0.00121024 9.78749e-05 9.24924e-06)
(-0.00136034 0.000177791 -1.02211e-05)
(-0.00135759 0.000179898 3.52599e-08)
(-0.00135669 0.000180588 8.48408e-14)
(-0.00135759 0.000179898 -3.52614e-08)
(-0.00136034 0.000177791 1.02211e-05)
(-0.0015211 0.000306505 -1.12127e-05)
(-0.00151767 0.000308798 4.15694e-08)
(-0.0015167 0.000309514 -1.1914e-11)
(-0.00151767 0.000308798 -4.15715e-08)
(-0.0015211 0.000306505 1.12127e-05)
(-0.00168727 0.00049321 -1.21352e-05)
(-0.00168363 0.000495207 5.09744e-08)
(-0.00168269 0.000495892 -2.04053e-12)
(-0.00168363 0.000495207 -5.09748e-08)
(-0.00168727 0.00049321 1.21352e-05)
(-0.00183664 0.000727605 -1.30845e-05)
(-0.00183428 0.000729586 5.4401e-08)
(-0.00183361 0.000730181 1.93677e-12)
(-0.00183428 0.000729586 -5.43971e-08)
(-0.00183664 0.000727605 1.30845e-05)
(-0.00191465 0.000987431 -1.40603e-05)
(-0.00191103 0.000988997 4.89683e-08)
(-0.00191032 0.000989488 8.56856e-13)
(-0.00191103 0.000988997 -4.89657e-08)
(-0.00191465 0.000987431 1.40603e-05)
(-0.00114049 -0.000499888 -1.6211e-05)
(-0.00113933 -0.000497977 7.43526e-08)
(-0.00113914 -0.000497473 -1.57747e-11)
(-0.00113933 -0.000497977 -7.43714e-08)
(-0.00114049 -0.000499888 1.62111e-05)
(-0.001312 -0.000538221 -1.40946e-05)
(-0.00130945 -0.00054214 6.74039e-08)
(-0.00130878 -0.000543017 -1.36325e-11)
(-0.00130946 -0.00054214 -6.74058e-08)
(-0.001312 -0.000538221 1.40946e-05)
(-0.0012526 -3.85827e-05 -1.22154e-05)
(-0.00124971 -3.96426e-05 6.90647e-08)
(-0.00124883 -3.98676e-05 3.19161e-10)
(-0.00124971 -3.96427e-05 -6.89517e-08)
(-0.0012526 -3.85828e-05 1.2215e-05)
(-0.00107364 4.07284e-05 -1.07193e-05)
(-0.00107007 3.73509e-05 6.26014e-08)
(-0.00106889 3.65658e-05 -4.8879e-10)
(-0.00107007 3.73509e-05 -6.27582e-08)
(-0.00107364 4.07283e-05 1.07199e-05)
(-0.00106488 0.000237311 -9.22776e-06)
(-0.00106203 0.00023598 6.27191e-08)
(-0.00106109 0.000235646 5.49182e-10)
(-0.00106203 0.00023598 -6.25005e-08)
(-0.00106488 0.000237311 9.227e-06)
(0.0698782 0.138251 0.00255683)
(0.06942 0.138259 2.33578e-06)
(0.0693697 0.138245 3.68548e-13)
(0.06942 0.138259 -2.33579e-06)
(0.0698782 0.138251 -0.00255683)
(0.142897 0.100398 0.00255934)
(0.142626 0.100511 3.17021e-06)
(0.142606 0.100531 -3.11294e-12)
(0.142626 0.100511 -3.17022e-06)
(0.142897 0.100398 -0.00255934)
(0.16466 0.079986 0.0023126)
(0.164385 0.0800537 2.24022e-06)
(0.164352 0.0800609 -2.99532e-12)
(0.164385 0.0800537 -2.24023e-06)
(0.16466 0.079986 -0.0023126)
(0.19963 0.0665882 0.00211069)
(0.199457 0.0666343 2.35541e-06)
(0.199435 0.0666445 -4.9774e-12)
(0.199457 0.0666343 -2.35542e-06)
(0.19963 0.0665882 -0.00211069)
(0.216105 0.0589428 0.00191493)
(0.215959 0.0589722 1.70044e-06)
(0.215935 0.0589808 -7.58784e-12)
(0.215959 0.0589722 -1.70045e-06)
(0.216105 0.0589428 -0.00191493)
(0.234885 0.051077 0.00173918)
(0.234796 0.0511057 1.64586e-06)
(0.234779 0.0511146 1.95647e-11)
(0.234796 0.0511057 -1.64585e-06)
(0.234885 0.051077 -0.00173918)
(0.247917 0.0448887 0.00157516)
(0.247816 0.0449215 1.41754e-06)
(0.247797 0.0449303 3.77058e-10)
(0.247816 0.0449215 -1.41733e-06)
(0.247917 0.0448887 -0.00157516)
(0.260524 0.0384574 0.00143091)
(0.260448 0.0384806 1.31261e-06)
(0.260434 0.0384879 4.90243e-09)
(0.260448 0.0384807 -1.31117e-06)
(0.260524 0.0384574 -0.00143092)
(-0.000898338 0.000201646 -8.06781e-06)
(-0.000895394 0.000198987 5.06652e-08)
(-0.00089436 0.000198333 -6.58259e-12)
(-0.000895394 0.000198987 -5.06489e-08)
(-0.000898338 0.000201646 8.0678e-06)