/*--------------------------------*- C++ -*----------------------------------*\
| =========                 |                                                 |
| \\      /  F ield         | OpenFOAM: The Open Source CFD Toolbox           |
|  \\    /   O peration     | Version:  v1806                                 |
|   \\  /    A nd           | Web:      www.OpenFOAM.com                      |
|    \\/     M anipulation  |                                                 |
\*---------------------------------------------------------------------------*/
FoamFile
{
    version     2.0;
    format      ascii;
    class       surfaceScalarField;
    location    "10";
    object      phi;
}
// * * * * * * * * * * * * * * * * * * * * * * * * * * * * * * * * * * * * * //

dimensions      [0 3 -1 0 0 0 0];
oriented        oriented;


internalField   nonuniform List<scalar> 
8600
(
0.00768471
-0.00406987
-0.00651807
0.00290324
0.00786999
-0.00448529
0.0043
0.00788051
-0.00458528
0.00457477
0.00797541
-0.00453281
0.00443791
0.00819802
-0.00441253
0.00418992
0.00852741
-0.00425831
0.00392893
0.00893164
-0.00408038
0.00367615
0.00938191
-0.00388137
0.0034311
0.00985489
-0.00366235
0.00318937
0.0103322
-0.00342432
0.00294699
0.0107995
-0.00316844
0.00270118
0.0112453
-0.002896
0.00245014
0.0116608
-0.00260835
0.00219284
0.0120389
-0.00230689
0.00192885
0.0123738
-0.00199309
0.00165821
0.0126609
-0.0016686
0.00138144
0.0128967
-0.00133598
0.00110015
0.0130788
-0.00100164
0.00081963
0.0132073
-0.000685684
0.000557116
-0.000447821
0.00036246
0.00543269
-0.00528473
-0.00421783
0.00631244
-0.00536504
0.00709916
-0.005372
0.00788325
-0.0053169
0.00867998
-0.00520927
0.00947945
-0.00505778
0.0102681
-0.00486901
0.0110345
-0.0046478
0.01177
-0.00439789
0.012468
-0.00412227
0.0131229
-0.00382336
0.01373
-0.00350308
0.0142848
-0.00316314
0.0147832
-0.00280528
0.0152214
-0.0024313
0.015596
-0.00204318
0.0159038
-0.00164383
0.0161425
-0.00124031
0.0163121
-0.000855249
-0.000559657
0.00535028
-0.00672058
-0.00391444
0.00666458
-0.00667934
0.00789486
-0.00660228
0.00906297
-0.00648501
0.0101819
-0.00632822
0.0112578
-0.00613363
0.0122919
-0.00590317
0.0132829
-0.00563876
0.0142273
-0.00534227
0.0151205
-0.00501555
0.0159577
-0.00466048
0.0167335
-0.00427892
0.0174431
-0.00387277
0.0180818
-0.00344399
0.0186452
-0.00299462
0.0191289
-0.00252693
0.0195292
-0.00204413
0.0198426
-0.00155373
0.020068
-0.00108062
-0.00070883
0.00562698
-0.0084163
-0.00393126
0.00726382
-0.00831618
0.00884043
-0.0081789
0.0103594
-0.00800393
0.011822
-0.00779083
0.0132279
-0.00753953
0.0145751
-0.00725042
0.0158607
-0.00692431
0.0170807
-0.00656232
0.0182309
-0.00616577
0.0193066
-0.00573615
0.0203028
-0.00527509
0.0212144
-0.00478441
0.0220364
-0.00426602
0.0227639
-0.00372206
0.0233919
-0.00315492
0.0239157
-0.00256791
0.0243306
-0.00196862
0.0246333
-0.00138337
-0.000910025
0.00662377
-0.0103803
-0.00465981
0.00855168
-0.0102441
0.0104394
-0.0100666
0.0122807
-0.00984525
0.0140696
-0.00957975
0.0158004
-0.00927025
0.0174672
-0.00891722
0.0190642
-0.00852136
0.0205855
-0.00808358
0.0220247
-0.00760501
0.0233756
-0.00708699
0.0246315
-0.00653104
0.025786
-0.0059389
0.0268325
-0.00531252
0.0277645
-0.00465407
0.0285756
-0.00396605
0.0292595
-0.00325179
0.0298094
-0.00251852
0.0302185
-0.00179243
-0.00118381
0.00777963
-0.0127372
-0.00542269
0.0101045
-0.012569
0.0123885
-0.0123506
0.0146238
-0.0120806
0.0168032
-0.0117591
0.0189192
-0.0113863
0.0209645
-0.0109625
0.0229315
-0.0104883
0.0248124
-0.00996448
0.0265993
-0.00939187
0.028284
-0.00877168
0.0298582
-0.00810527
0.0313136
-0.00739427
0.0326416
-0.00664054
0.0338337
-0.00584624
0.0348816
-0.00501388
0.0357765
-0.00414668
0.0365089
-0.00325101
0.0370669
-0.00235042
-0.00156106
0.00927924
-0.015542
-0.00647442
0.0120543
-0.015344
0.0147905
-0.0150868
0.0174786
-0.0147688
0.0201097
-0.0143901
0.0226744
-0.0139511
0.0251638
-0.0134519
0.0275682
-0.0128928
0.0298782
-0.0122745
0.0320838
-0.0115975
0.0341749
-0.0108628
0.0361411
-0.0100714
0.0379715
-0.00922469
0.0396553
-0.00832431
0.0411812
-0.00737221
0.0425381
-0.00637074
0.0437143
-0.00532286
0.0446969
-0.00423363
0.0454673
-0.0031208
-0.00208921
0.0110213
-0.0188861
-0.00767725
0.0143356
-0.0186584
0.0176102
-0.0183613
0.0208354
-0.017994
0.0240016
-0.0175564
0.0270989
-0.0170484
0.0301171
-0.01647
0.0330454
-0.0158211
0.0358728
-0.0151019
0.0385876
-0.0143123
0.0411778
-0.0134529
0.0436305
-0.0125241
0.0459325
-0.0115267
0.04807
-0.0104618
0.0500285
-0.00933072
0.0517931
-0.0081354
0.0533485
-0.00687823
0.0546777
-0.0055628
0.0557561
-0.00419925
-0.00284265
0.0130385
-0.0228504
-0.00907415
0.0169748
-0.0225946
0.0208719
-0.0222584
0.0247204
-0.0218425
0.0285105
-0.0213465
0.032232
-0.0207699
0.0358741
-0.0201121
0.0394253
-0.0193724
0.0428735
-0.01855
0.0462055
-0.0176443
0.0494074
-0.0166548
0.0524642
-0.015581
0.0553601
-0.0144226
0.0580779
-0.0131796
0.0605994
-0.0118523
0.0629055
-0.0104415
0.0649758
-0.00894847
0.066788
-0.00737504
0.0683187
-0.00572988
-0.00393926
0.0153406
-0.0275105
-0.0106805
0.019976
-0.02723
0.0245769
-0.0268594
0.0291345
-0.0264
0.0336393
-0.0258513
0.0380814
-0.0252119
0.0424498
-0.0244805
0.0467329
-0.0236555
0.0509182
-0.0227352
0.0549916
-0.0217178
0.0589381
-0.0206013
0.0627408
-0.0193837
0.0663816
-0.0180633
0.0698401
-0.0166381
0.0730944
-0.0151066
0.0761203
-0.0134674
0.0788919
-0.01172
0.0813774
-0.00986049
0.0835751
-0.00792765
-0.00556699
0.0178408
-0.0329548
-0.0123965
0.023266
-0.0326553
0.028661
-0.0322543
0.034019
-0.0317581
0.0393332
-0.0311655
0.0445956
-0.0304743
0.0497971
-0.0296821
0.0549276
-0.028786
0.0599753
-0.0277829
0.064927
-0.0266695
0.0697677
-0.025442
0.0744803
-0.0240964
0.0790454
-0.0226284
0.0834409
-0.0210336
0.0876419
-0.0193076
0.0916193
-0.0174447
0.0953446
-0.0154454
0.0987605
-0.0132764
0.101937
-0.0111045
-0.00802352
0.0206401
-0.0392114
-0.0143835
0.0268849
-0.0389001
0.0331158
-0.0384852
0.0393285
-0.0379708
0.0455183
-0.0373553
0.0516793
-0.0366353
0.0578048
-0.0358076
0.0638868
-0.034868
0.069916
-0.0338122
0.0758816
-0.0326351
0.0817708
-0.0313312
0.0875684
-0.029894
0.0932568
-0.0283167
0.0988141
-0.026591
0.104217
-0.0247106
0.10943
-0.0226576
0.114441
-0.0204563
0.119121
-0.0179566
0.123705
-0.015688
-0.0117679
0.0233701
-0.0463657
-0.0162158
0.0305225
-0.0460525
0.0376657
-0.0456284
0.0448036
-0.0451087
0.0519382
-0.0444899
0.0590703
-0.0437674
0.0661991
-0.0429364
0.0733225
-0.0419914
0.0804369
-0.0409265
0.0875371
-0.0397353
0.0946161
-0.0384102
0.101665
-0.0369428
0.108673
-0.0353243
0.115621
-0.0335396
0.122503
-0.0315928
0.12926
-0.0294147
0.135961
-0.0271573
0.142315
-0.0243101
0.148829
-0.0222021
-0.0174671
0.0264453
-0.0542939
-0.0185171
0.034363
-0.0539701
0.0423086
-0.053574
0.0502955
-0.0530957
0.0583305
-0.0525249
0.066415
-0.0518519
0.0745503
-0.0510717
0.0827383
-0.0501794
0.0909811
-0.0491692
0.0992804
-0.0480346
0.107638
-0.0467676
0.116054
-0.0453587
0.124531
-0.0438019
0.133053
-0.0420611
0.141667
-0.0402072
0.150233
-0.0379805
0.159026
-0.0359501
0.167513
-0.0327973
0.176453
-0.0311419
-0.0259351
0.0282741
-0.0630246
-0.0195434
0.037039
-0.062735
0.0458254
-0.0623604
0.0546538
-0.061924
0.0635428
-0.0614139
0.0725115
-0.0608206
0.0815762
-0.0601364
0.0907516
-0.0593549
0.100052
-0.0584698
0.109493
-0.0574751
0.119088
-0.0563634
0.128854
-0.0551238
0.138819
-0.0537669
0.148949
-0.052192
0.159418
-0.0506762
0.169929
-0.0484911
0.181015
-0.047036
0.19209
-0.0438727
0.203758
-0.0428101
-0.0378967
0.0298584
-0.07179
-0.021093
0.038613
-0.0714896
0.0474522
-0.0711997
0.0564085
-0.0708803
0.0655089
-0.0705143
0.074774
-0.0700857
0.0842224
-0.0695848
0.0938734
-0.0690058
0.103748
-0.0683442
0.113869
-0.0675958
0.124262
-0.0667572
0.134955
-0.0658159
0.146
-0.0648128
0.157365
-0.0635562
0.169289
-0.0626006
0.181484
-0.0606857
0.194394
-0.0599463
0.207951
-0.0574295
0.221989
-0.0568487
-0.0533413
0.024265
-0.0796832
-0.0163718
0.0323241
-0.0795487
0.0404911
-0.0793667
0.0487834
-0.0791726
0.0572218
-0.0789526
0.0658338
-0.0786977
0.0746507
-0.0784017
0.0837055
-0.0780606
0.0930335
-0.0776722
0.102672
-0.0772346
0.112663
-0.0767481
0.12305
-0.0762026
0.133881
-0.0756437
0.14522
-0.0748956
0.157101
-0.0744816
0.169685
-0.0732693
0.182815
-0.0730769
0.197164
-0.0717787
0.211833
-0.0715177
-0.0698729
0.0169917
-0.0844124
-0.0122625
0.0217733
-0.0843303
0.026716
-0.0843094
0.031826
-0.0842825
0.0371162
-0.0842428
0.0426059
-0.0841874
0.0483205
-0.0841163
0.0542901
-0.0840302
0.0605481
-0.0839302
0.0671302
-0.0838167
0.0740736
-0.0836915
0.0814251
-0.0835541
0.0891998
-0.0834184
0.0975476
-0.0832434
0.106242
-0.0831763
0.115873
-0.0828996
0.125778
-0.082982
0.136789
-0.0827903
0.148196
-0.0829239
-0.0829954
0.00129291
-0.0857141
8.73476e-06
0.00280978
-0.0858472
0.00438646
-0.0858861
0.00601164
-0.0859077
0.00768819
-0.0859194
0.00942738
-0.0859266
0.0112436
-0.0859325
0.0131528
-0.0859394
0.0151721
-0.0859494
0.0173194
-0.0859641
0.0196126
-0.0859846
0.0220717
-0.0860132
0.0247011
-0.0860478
0.0275612
-0.0861035
0.0305299
-0.086145
0.0338779
-0.0862476
0.0372055
-0.0863095
0.0408776
-0.0864624
0.04448
-0.0865262
-0.0866474
0.000865475
-0.00107953
0.000518272
0.000132175
-0.000275527
-0.000694907
-0.00112154
-0.00155405
-0.00199348
-0.0024429
-0.00290698
-0.00339161
-0.00390482
-0.00445263
-0.00505615
-0.0057012
-0.00644881
-0.00725835
-0.00822078
-0.009247
-0.00376326
-0.000611743
0.004375
-0.00317604
-0.000587215
-0.00260926
-0.000566782
-0.00205938
-0.000549882
-0.00152327
-0.000536107
-0.00099813
-0.000525143
-0.000481388
-0.000516741
2.93278e-05
-0.000510716
0.000536263
-0.000506935
0.00104158
-0.000505317
0.00154741
-0.000505827
0.00205588
-0.000508474
0.0025692
-0.000513315
0.00308965
-0.000520453
0.00361969
-0.000530043
0.00416199
-0.000542295
0.00471947
-0.000557484
0.00529543
-0.000575958
0.00589361
-0.000598181
-0.000624459
-0.00240061
-0.000899413
0.00268828
-0.00209179
-0.000896036
-0.00176558
-0.000892992
-0.00142515
-0.000890311
-0.00107325
-0.000888009
-0.000712289
-0.0008861
-0.000344433
-0.000884598
2.83649e-05
-0.000883514
0.000404284
-0.000882855
0.000781595
-0.000882628
0.00115861
-0.000882841
0.00153363
-0.000883498
0.00190492
-0.000884604
0.00227063
-0.000886161
0.00262876
-0.000888174
0.00297711
-0.000890641
0.00331318
-0.000893561
0.00363416
-0.000896932
0.00393673
-0.000900752
-0.00090556
-0.00172957
-0.00118882
0.00201898
-0.00143698
-0.00118863
-0.00114159
-0.00118838
-0.000843789
-0.00118811
-0.000543975
-0.00118782
-0.000242544
-0.00118753
6.01003e-05
-0.00118724
0.000363555
-0.00118697
0.000667412
-0.00118671
0.000971261
-0.00118648
0.00127469
-0.00118627
0.00157727
-0.00118608
0.00187859
-0.00118592
0.00217821
-0.00118578
0.00247569
-0.00118566
0.00277059
-0.00118554
0.00306246
-0.00118543
0.00335084
-0.00118531
0.00363526
-0.00118517
-0.00118474
-0.0018215
-0.00148919
0.00212186
-0.00152004
-0.00149009
-0.00121758
-0.00149084
-0.000914258
-0.00149143
-0.000610201
-0.00149188
-0.000305554
-0.00149218
-4.71241e-07
-0.00149233
0.00030489
-0.00149233
0.000610365
-0.00149219
0.000915788
-0.0014919
0.00122099
-0.00149147
0.0015258
-0.0014909
0.00183006
-0.00149018
0.00213359
-0.00148931
0.00243623
-0.0014883
0.00273783
-0.00148714
0.00303823
-0.00148583
0.00333729
-0.00148437
0.00363489
-0.00148276
-0.00148111
-0.00209441
-0.00184455
0.00244977
-0.0017386
-0.00184589
-0.00138242
-0.00184702
-0.00102593
-0.00184793
-0.0006692
-0.00184861
-0.000312305
-0.00184907
4.46829e-05
-0.00184931
0.000401689
-0.00184934
0.000758638
-0.00184914
0.00111546
-0.00184872
0.00147207
-0.00184808
0.00182839
-0.00184722
0.00218436
-0.00184614
0.0025399
-0.00184485
0.00289493
-0.00184333
0.00324938
-0.00184159
0.00360318
-0.00183963
0.00395625
-0.00183745
0.00430855
-0.00183505
-0.00183237
-0.00249506
-0.00226112
0.00291163
-0.00207817
-0.00226279
-0.001661
-0.00226419
-0.0012436
-0.00226532
-0.000826033
-0.00226618
-0.000408344
-0.00226676
9.41378e-06
-0.00226707
0.000427187
-0.00226711
0.000844922
-0.00226687
0.00126257
-0.00226636
0.00168007
-0.00226558
0.00209738
-0.00226453
0.00251443
-0.0022632
0.00293119
-0.0022616
0.0033476
-0.00225974
0.0037636
-0.00225759
0.00417915
-0.00225518
0.0045942
-0.0022525
0.0050087
-0.00224955
-0.00224636
-0.0029765
-0.00275862
0.003474
-0.0024787
-0.00276059
-0.00198066
-0.00276224
-0.00148242
-0.00276356
-0.000984043
-0.00276456
-0.00048557
-0.00276523
1.29457e-05
-0.00276559
0.000511453
-0.00276561
0.0010099
-0.00276532
0.00150824
-0.0027647
0.00200641
-0.00276376
0.00250438
-0.00276249
0.00300208
-0.0027609
0.00349947
-0.00275899
0.00399649
-0.00275676
0.00449311
-0.00275421
0.00498926
-0.00275133
0.00548489
-0.00274814
0.00597997
-0.00274463
-0.00274081
-0.00354586
-0.00334935
0.00413659
-0.00295484
-0.00335161
-0.00236358
-0.0033535
-0.00177212
-0.00335501
-0.00118053
-0.00335615
-0.000588838
-0.00335692
2.89512e-06
-0.00335732
0.000594623
-0.00335734
0.0011863
-0.00335699
0.00177787
-0.00335627
0.00236928
-0.00335518
0.0029605
-0.00335371
0.00355147
-0.00335187
0.00414213
-0.00334966
0.00473246
-0.00334708
0.00532238
-0.00334414
0.00591187
-0.00334082
0.00650087
-0.00333714
0.00708933
-0.00333309
-0.00332873
-0.00419944
-0.004048
0.00489808
-0.00350051
-0.00405053
-0.00280136
-0.00405265
-0.00210202
-0.00405435
-0.00140255
-0.00405563
-0.00070299
-0.00405648
-3.38812e-06
-0.00405692
0.000696208
-0.00405694
0.00139575
-0.00405654
0.0020952
-0.00405572
0.0027945
-0.00405448
0.00349361
-0.00405282
0.00419248
-0.00405074
0.00489106
-0.00404825
0.00558932
-0.00404534
0.0062872
-0.00404202
0.00698467
-0.00403828
0.00768167
-0.00403414
0.00837816
-0.00402959
-0.00402472
-0.00493131
-0.00486997
0.00575329
-0.0041091
-0.00487275
-0.00328669
-0.00487506
-0.00246414
-0.0048769
-0.00164148
-0.00487828
-0.000818769
-0.0048792
3.95455e-06
-0.00487964
0.000826645
-0.00487963
0.00164926
-0.00487915
0.00247175
-0.00487821
0.00329407
-0.0048768
0.00411619
-0.00487493
0.00493805
-0.0048726
0.00575961
-0.00486981
0.00658084
-0.00486657
0.00740168
-0.00486286
0.00822211
-0.00485871
0.00904207
-0.0048541
0.00986153
-0.00484905
-0.00484367
-0.00573991
-0.00582464
0.00669458
-0.00478506
-0.00582759
-0.00383007
-0.00583005
-0.00287496
-0.00583201
-0.00191976
-0.00583348
-0.000964516
-0.00583444
-9.25261e-06
-0.00583491
0.000945996
-0.00583488
0.0019012
-0.00583435
0.00285632
-0.00583333
0.00381133
-0.00583181
0.0047662
-0.0058298
0.0057209
-0.0058273
0.00667538
-0.0058243
0.00762963
-0.00582082
0.00858362
-0.00581685
0.00953731
-0.0058124
0.0104907
-0.00580747
0.0114437
-0.00580207
-0.00579643
-0.00658742
-0.0069296
0.00769238
-0.0054824
-0.00693261
-0.00437735
-0.0069351
-0.0032723
-0.00693706
-0.00216728
-0.00693849
-0.00106233
-0.00693939
4.25294e-05
-0.00693977
0.00114726
-0.00693961
0.00225184
-0.00693893
0.00335623
-0.00693772
0.00446041
-0.00693599
0.00556434
-0.00693373
0.00666799
-0.00693095
0.00777134
-0.00692765
0.00887435
-0.00692383
0.009977
-0.0069195
0.0110793
-0.00691467
0.0121811
-0.00690933
0.0132826
-0.00690351
-0.00689739
-0.00748362
-0.00817722
0.00873124
-0.00623603
-0.0081802
-0.00498848
-0.00818266
-0.00374094
-0.0081846
-0.00249343
-0.008186
-0.00124594
-0.00818688
1.52459e-06
-0.00818723
0.00124897
-0.00818706
0.00249639
-0.00818635
0.00374379
-0.00818512
0.00499115
-0.00818335
0.00623849
-0.00818106
0.00748579
-0.00817825
0.00873305
-0.00817491
0.00998026
-0.00817105
0.0112274
-0.00816667
0.0124745
-0.00816179
0.0137216
-0.0081564
0.0149686
-0.00815053
-0.00814458
-0.00829439
-0.00959172
0.00970889
-0.00688015
-0.00959443
-0.00546619
-0.00959663
-0.00405249
-0.00959829
-0.00263907
-0.00959942
-0.00122594
-0.00960002
0.000186907
-0.00960008
0.00159944
-0.0095996
0.00301166
-0.00959857
0.00442354
-0.00959699
0.00583505
-0.00959487
0.00724618
-0.00959219
0.00865689
-0.00958895
0.0100671
-0.00958516
0.0114769
-0.00958082
0.0128862
-0.00957593
0.0142949
-0.00957049
0.015703
-0.00956452
0.0171105
-0.00955804
-0.00955113
-0.00906256
-0.0110963
0.0105671
-0.00755831
-0.0110987
-0.00605425
-0.0111007
-0.00455031
-0.0111022
-0.00304641
-0.0111033
-0.00154247
-0.011104
-3.84219e-05
-0.0111041
0.0014658
-0.0111038
0.00297024
-0.011103
0.00447497
-0.0111017
0.00598002
-0.0110999
0.00748542
-0.0110976
0.00899121
-0.0110947
0.0104974
-0.0110913
0.012004
-0.0110874
0.013511
-0.0110829
0.0150184
-0.0110779
0.0165262
-0.0110723
0.0180344
-0.0110663
-0.0110601
-0.00910121
-0.0126857
0.0106906
-0.00751237
-0.0126875
-0.00592397
-0.0126891
-0.00433589
-0.0126903
-0.00274802
-0.0126912
-0.00116025
-0.0126917
0.000427523
-0.0126919
0.00201538
-0.0126917
0.0036034
-0.012691
0.00519167
-0.01269
0.00678024
-0.0126885
0.00836915
-0.0126865
0.00995845
-0.012684
0.0115482
-0.0126811
0.0131383
-0.0126775
0.0147288
-0.0126735
0.0163197
-0.0126688
0.017911
-0.0126636
0.0195027
-0.0126579
-0.0126505
-0.00828749
-0.0139802
0.009582
-0.00699368
-0.0139813
-0.00570039
-0.0139824
-0.00440743
-0.0139833
-0.00311463
-0.013984
-0.00182182
-0.0139845
-0.000528803
-0.0139849
0.000764579
-0.0139851
0.0020585
-0.013985
0.00335313
-0.0139846
0.00464863
-0.013984
0.00594515
-0.013983
0.00724284
-0.0139817
0.00854184
-0.0139801
0.00984227
-0.013978
0.0111443
-0.0139755
0.0124479
-0.0139725
0.0137533
-0.0139691
0.0150606
-0.0139652
-0.0139616
-0.00495526
-0.0148779
0.00585302
-0.00405814
-0.0148785
-0.00316146
-0.0148791
-0.00226498
-0.0148797
-0.00136849
-0.0148805
-0.000471736
-0.0148813
0.000425521
-0.0148822
0.00132354
-0.0148831
0.00222259
-0.014884
0.00312295
-0.014885
0.00402491
-0.0148859
0.00492878
-0.0148869
0.00583487
-0.0148878
0.00674351
-0.0148887
0.00765501
-0.0148895
0.00856971
-0.0148902
0.00948792
-0.0148907
0.0104099
-0.0148911
0.011336
-0.0148913
-0.014888
-0.0015448
-0.0149615
0.00162835
-0.00146175
-0.0149615
-0.00137922
-0.0149616
-0.0012972
-0.0149618
-0.00121569
-0.014962
-0.00113468
-0.0149623
-0.00105414
-0.0149627
-0.000974037
-0.0149632
-0.000894325
-0.0149637
-0.000814942
-0.0149644
-0.000735807
-0.0149651
-0.000656825
-0.0149659
-0.000577882
-0.0149668
-0.000498848
-0.0149677
-0.000419582
-0.0149687
-0.000339931
-0.0149698
-0.00025974
-0.0149709
-0.000178851
-0.014972
-9.71312e-05
-0.014973
-0.0149764
0.000438969
-0.000400441
0.000477468
0.000515872
0.000554109
0.000592108
0.000629795
0.000667092
0.000703921
0.000740198
0.000775839
0.000810761
0.000844879
0.000878114
0.000910392
0.000941652
0.000971849
0.00100096
0.00102898
0.00105595
-0.00701442
-0.000786106
0.000731638
0.00706888
-0.00696043
-0.00078901
0.000735022
-0.00690799
-0.000790685
0.000738246
-0.00685671
-0.00079184
0.000740563
-0.00680602
-0.000792396
0.000741709
-0.00675513
-0.00079226
0.000741362
-0.00670295
-0.000791327
0.000739149
-0.0066481
-0.000789482
0.000734631
-0.0065888
-0.000786595
0.000727299
-0.00652284
-0.000782522
0.000716557
-0.00644743
-0.000777111
0.000701704
-0.00635914
-0.000770196
0.000681911
-0.00625374
-0.000761599
0.00065619
-0.00612595
-0.000751136
0.000623346
-0.00596925
-0.000738609
0.000581909
-0.00577548
-0.000723811
0.000530043
-0.00553436
-0.00070653
0.000465409
-0.0052328
-0.000686541
0.00038498
-0.00485395
-0.000663596
0.000284747
-0.000637429
0.000158484
-0.00595297
-0.00093178
0.00609864
-0.00580924
-0.000932737
-0.00566617
-0.000933761
-0.00552352
-0.000934487
-0.00538101
-0.000934906
-0.00523826
-0.00093501
-0.0050948
-0.000934789
-0.00495004
-0.000934235
-0.0048033
-0.000933342
-0.00465372
-0.000932104
-0.00450031
-0.000930518
-0.00434192
-0.000928586
-0.00417721
-0.000926313
-0.00400463
-0.000923709
-0.00382245
-0.000920795
-0.00362866
-0.000917596
-0.00342104
-0.000914154
-0.00319706
-0.000910522
-0.00295388
-0.000906778
-0.000903028
-0.00687569
-0.00116048
0.00710438
-0.00664443
-0.00116399
-0.00641114
-0.00116706
-0.0061757
-0.00116992
-0.00593804
-0.00117257
-0.00569803
-0.00117502
-0.00545556
-0.00117726
-0.0052105
-0.00117929
-0.00496273
-0.00118112
-0.00471209
-0.00118274
-0.00445845
-0.00118416
-0.00420166
-0.00118538
-0.00394157
-0.0011864
-0.00367803
-0.00118725
-0.00341092
-0.00118791
-0.00314011
-0.0011884
-0.00286553
-0.00118874
-0.00258712
-0.00118893
-0.0023049
-0.001189
-0.00118895
-0.00757092
-0.00143391
0.00784435
-0.00729648
-0.00143842
-0.00702072
-0.00144282
-0.00674362
-0.00144702
-0.00646517
-0.00145102
-0.00618537
-0.00145482
-0.00590421
-0.00145842
-0.00562167
-0.00146183
-0.00533774
-0.00146504
-0.00505242
-0.00146806
-0.00476568
-0.00147089
-0.00447754
-0.00147352
-0.00418797
-0.00147597
-0.00389697
-0.00147824
-0.00360456
-0.00148032
-0.00331074
-0.00148223
-0.00301552
-0.00148395
-0.00271894
-0.00148551
-0.00242103
-0.0014869
-0.00148812
-0.00904493
-0.00176955
0.00938057
-0.00870778
-0.00177557
-0.00836931
-0.00178129
-0.00802955
-0.00178678
-0.00768853
-0.00179203
-0.0073463
-0.00179705
-0.00700288
-0.00180184
-0.00665832
-0.00180639
-0.00631266
-0.00181071
-0.00596592
-0.0018148
-0.00561816
-0.00181865
-0.00526942
-0.00182227
-0.00491973
-0.00182566
-0.00456916
-0.00182882
-0.00421773
-0.00183174
-0.00386551
-0.00183444
-0.00351255
-0.00183692
-0.0031589
-0.00183916
-0.00280462
-0.00184118
-0.00184297
-0.0107019
-0.00217005
0.0111024
-0.0103003
-0.00217719
-0.00989754
-0.00218408
-0.00949363
-0.00219069
-0.00908863
-0.00219704
-0.00868258
-0.0022031
-0.00827552
-0.0022089
-0.0078675
-0.00221442
-0.00745855
-0.00221966
-0.00704872
-0.00222463
-0.00663805
-0.00222932
-0.00622659
-0.00223373
-0.00581437
-0.00223787
-0.00540145
-0.00224174
-0.00498786
-0.00224533
-0.00457366
-0.00224865
-0.00415889
-0.00225169
-0.00374359
-0.00225445
-0.00332783
-0.00225695
-0.00225917
-0.0128044
-0.00265128
0.0132856
-0.0123219
-0.0026597
-0.0118382
-0.00266781
-0.0113532
-0.0026756
-0.0108672
-0.00268307
-0.0103801
-0.00269022
-0.00989194
-0.00269705
-0.0094028
-0.00270355
-0.00891273
-0.00270973
-0.00842177
-0.00271559
-0.00792996
-0.00272112
-0.00743737
-0.00272633
-0.00694403
-0.00273121
-0.00645
-0.00273577
-0.00595532
-0.00274001
-0.00546005
-0.00274392
-0.00496423
-0.00274751
-0.00446792
-0.00275077
-0.00397116
-0.00275371
-0.00275632
-0.01524
-0.00322594
0.0158147
-0.0146641
-0.0032356
-0.014087
-0.00324493
-0.0135087
-0.00325389
-0.0129293
-0.00326248
-0.0123488
-0.0032707
-0.0117673
-0.00327856
-0.0111848
-0.00328604
-0.0106014
-0.00329315
-0.0100171
-0.00329988
-0.00943198
-0.00330624
-0.00884608
-0.00331223
-0.00825944
-0.00331785
-0.00767212
-0.00332309
-0.00708416
-0.00332796
-0.00649562
-0.00333246
-0.00590654
-0.00333658
-0.00531698
-0.00334033
-0.00472698
-0.00334371
-0.00334671
-0.0180567
-0.00390911
0.0187399
-0.0173723
-0.00391995
-0.0166868
-0.00393046
-0.0160001
-0.00394056
-0.0153124
-0.00395024
-0.0146236
-0.0039595
-0.0139338
-0.00396834
-0.0132431
-0.00397677
-0.0125514
-0.00398477
-0.0118589
-0.00399236
-0.0111657
-0.00399952
-0.0104716
-0.00400626
-0.00977691
-0.00401258
-0.00908152
-0.00401848
-0.00838552
-0.00402396
-0.00768897
-0.00402902
-0.0069919
-0.00403365
-0.00629436
-0.00403787
-0.00559641
-0.00404166
-0.00404504
-0.0212651
-0.00471675
0.0220728
-0.0204564
-0.00472872
-0.0196465
-0.00474034
-0.0188355
-0.0047515
-0.0180236
-0.0047622
-0.0172106
-0.00477243
-0.0163968
-0.00478221
-0.015582
-0.00479151
-0.0147665
-0.00480035
-0.0139501
-0.00480873
-0.013133
-0.00481663
-0.0123152
-0.00482407
-0.0114967
-0.00483104
-0.0106777
-0.00483754
-0.00985806
-0.00484357
-0.00903794
-0.00484914
-0.00821736
-0.00485424
-0.00739636
-0.00485887
-0.00657499
-0.00486303
-0.00486673
-0.0247543
-0.00566082
0.0256984
-0.0238095
-0.00567354
-0.0228639
-0.00568599
-0.0219174
-0.00569794
-0.0209702
-0.0057094
-0.0200223
-0.00572036
-0.0190737
-0.00573082
-0.0181244
-0.00574079
-0.0171745
-0.00575025
-0.016224
-0.00575921
-0.015273
-0.00576766
-0.0143214
-0.00577562
-0.0133694
-0.00578307
-0.0124169
-0.00579001
-0.011464
-0.00579646
-0.0105108
-0.00580241
-0.00955716
-0.00580785
-0.00860323
-0.00581279
-0.00764903
-0.00581724
-0.00582119
-0.028634
-0.00675798
0.0297311
-0.0275361
-0.00677142
-0.0264376
-0.00678452
-0.0253384
-0.0067971
-0.0242386
-0.00680915
-0.0231383
-0.00682068
-0.0220375
-0.00683168
-0.0209361
-0.00684215
-0.0198343
-0.00685208
-0.018732
-0.00686147
-0.0176293
-0.00687033
-0.0165263
-0.00687866
-0.0154229
-0.00688645
-0.0143192
-0.0068937
-0.0132152
-0.00690043
-0.012111
-0.00690661
-0.0110066
-0.00691227
-0.00990201
-0.0069174
-0.00879726
-0.00692199
-0.00692606
-0.0324453
-0.0080068
0.0336941
-0.0311967
-0.00802001
-0.0299482
-0.00803306
-0.0286997
-0.00804559
-0.0274512
-0.0080576
-0.0262028
-0.00806908
-0.0249545
-0.00808002
-0.0237062
-0.00809043
-0.022458
-0.0081003
-0.0212098
-0.00810964
-0.0199617
-0.00811844
-0.0187137
-0.0081267
-0.0174657
-0.00813443
-0.0162178
-0.00814163
-0.0149699
-0.0081483
-0.0137221
-0.00815444
-0.0124743
-0.00816004
-0.0112266
-0.00816512
-0.00997889
-0.00816968
-0.00817371
-0.0366336
-0.00942552
0.0380523
-0.0352147
-0.00943894
-0.0337958
-0.00945189
-0.0323771
-0.0094643
-0.0309586
-0.00947616
-0.0295402
-0.00948746
-0.028122
-0.00949821
-0.0267041
-0.0095084
-0.0252863
-0.00951803
-0.0238688
-0.00952712
-0.0224516
-0.00953566
-0.0210347
-0.00954366
-0.019618
-0.00955112
-0.0182016
-0.00955804
-0.0167854
-0.00956443
-0.0153696
-0.00957029
-0.013954
-0.00957563
-0.0125387
-0.00958043
-0.0111237
-0.00958472
-0.00958848
-0.0393204
-0.0109525
0.0408474
-0.0377952
-0.0109641
-0.0362717
-0.0109755
-0.0347496
-0.0109864
-0.0332291
-0.0109967
-0.03171
-0.0110065
-0.0301924
-0.0110158
-0.0286762
-0.0110246
-0.0271614
-0.0110329
-0.0256479
-0.0110406
-0.0241356
-0.0110479
-0.0226245
-0.0110548
-0.0211144
-0.0110612
-0.0196054
-0.0110671
-0.0180972
-0.0110726
-0.0165899
-0.0110776
-0.0150833
-0.0110822
-0.0135774
-0.0110864
-0.012072
-0.0110901
-0.0110934
-0.0411495
-0.012574
0.0427709
-0.0395288
-0.0125847
-0.0379104
-0.0125939
-0.0362942
-0.0126025
-0.0346803
-0.0126107
-0.0330685
-0.0126183
-0.0314589
-0.0126254
-0.0298513
-0.0126321
-0.0282458
-0.0126384
-0.0266423
-0.0126442
-0.0250406
-0.0126497
-0.0234406
-0.0126547
-0.0218423
-0.0126595
-0.0202456
-0.0126638
-0.0186502
-0.0126679
-0.0170562
-0.0126716
-0.0154633
-0.0126751
-0.0138715
-0.0126782
-0.0122807
-0.012681
-0.0126835
-0.0345414
-0.0139193
0.0358867
-0.0332014
-0.0139247
-0.0318651
-0.0139302
-0.0305324
-0.0139352
-0.0292032
-0.0139399
-0.0278773
-0.0139442
-0.0265547
-0.0139481
-0.0252351
-0.0139517
-0.0239184
-0.013955
-0.0226046
-0.0139581
-0.0212933
-0.0139609
-0.0199845
-0.0139635
-0.018678
-0.013966
-0.0173737
-0.0139682
-0.0160712
-0.0139703
-0.0147706
-0.0139723
-0.0134715
-0.0139741
-0.0121738
-0.0139758
-0.0108774
-0.0139774
-0.0139788
-0.0233227
-0.0148739
0.0242773
-0.0223701
-0.0148773
-0.0214226
-0.0148776
-0.02048
-0.0148778
-0.0195421
-0.0148778
-0.0186085
-0.0148778
-0.017679
-0.0148776
-0.0167533
-0.0148774
-0.0158311
-0.0148772
-0.0149123
-0.0148769
-0.0139965
-0.0148767
-0.0130834
-0.0148765
-0.012173
-0.0148764
-0.0112648
-0.0148764
-0.0103588
-0.0148764
-0.0094547
-0.0148764
-0.00855227
-0.0148766
-0.00765132
-0.0148768
-0.00675164
-0.0148771
-0.0148775
-0.00331853
-0.0149771
0.0034217
-0.00322195
-0.0149739
-0.00312681
-0.0149728
-0.00303298
-0.0149716
-0.00294029
-0.0149705
-0.00284861
-0.0149694
-0.0027578
-0.0149684
-0.00266776
-0.0149674
-0.0025784
-0.0149665
-0.00248963
-0.0149657
-0.00240141
-0.0149649
-0.00231369
-0.0149643
-0.00222644
-0.0149637
-0.00213964
-0.0149632
-0.00205329
-0.0149627
-0.00196738
-0.0149623
-0.00188193
-0.014962
-0.00179693
-0.0149618
-0.0017124
-0.0149616
-0.0149615
-0.000245213
0.000268128
-0.000219105
-0.000191888
-0.000163537
-0.000134065
-0.000103504
-7.19044e-05
-3.93294e-05
-5.84991e-06
2.84581e-05
6.35168e-05
9.9248e-05
0.000135575
0.000172421
0.000209714
0.000247383
0.000285358
0.00032357
0.000361954
-0.000412666
-0.000130701
0.000543366
-0.000319854
-9.28117e-05
-0.000252744
-6.71105e-05
-0.000203018
-4.97253e-05
-0.000165166
-3.78527e-05
-0.000135456
-2.97092e-05
-0.000111386
-2.40708e-05
-9.12962e-05
-2.00894e-05
-7.41147e-05
-1.71815e-05
-5.9169e-05
-1.49457e-05
-4.60648e-05
-1.31042e-05
-3.46001e-05
-1.14647e-05
-2.47044e-05
-9.89568e-06
-1.63923e-05
-8.31217e-06
-9.72323e-06
-6.66904e-06
-4.76101e-06
-4.96223e-06
-1.52342e-06
-3.2376e-06
8.72268e-08
-1.61066e-06
4.0693e-07
-3.19716e-07
4.06917e-07
-0.000672786
-0.000195309
0.000737394
-0.000603661
-0.000161936
-0.000535343
-0.000135428
-0.000470703
-0.000114366
-0.000410857
-9.76989e-05
-0.000356069
-8.44967e-05
-0.000306182
-7.39587e-05
-0.000260859
-6.54117e-05
-0.000219736
-5.83053e-05
-0.000182483
-5.21979e-05
-0.000148847
-4.67403e-05
-0.000118653
-4.16593e-05
-9.18017e-05
-3.67466e-05
-6.82636e-05
-3.18503e-05
-4.80598e-05
-2.68728e-05
-3.12503e-05
-2.17717e-05
-1.79207e-05
-1.65672e-05
-8.17831e-06
-1.13531e-05
-2.18081e-06
-6.31724e-06
-1.77391e-06
-0.000734987
-0.000237785
0.000777463
-0.000683454
-0.000213469
-0.000627231
-0.000191652
-0.000569112
-0.000172484
-0.000511013
-0.000155798
-0.0004542
-0.000141309
-0.000399484
-0.000128675
-0.000347366
-0.00011753
-0.00029815
-0.000107521
-0.00025203
-9.83174e-05
-0.000209147
-8.96238e-05
-0.000169624
-8.11823e-05
-0.000133596
-7.27741e-05
-0.000101226
-6.42203e-05
-7.27159e-05
-5.53834e-05
-4.83193e-05
-4.61684e-05
-2.836e-05
-3.65265e-05
-1.32561e-05
-2.6457e-05
-3.56063e-06
-1.60127e-05
-5.33456e-06
-0.000712745
-0.000271489
0.000746449
-0.000672597
-0.000253618
-0.000627564
-0.000236685
-0.000579194
-0.000220854
-0.000528825
-0.000206167
-0.000477575
-0.00019256
-0.000426354
-0.000179895
-0.000375895
-0.000167989
-0.000326791
-0.000156626
-0.000279528
-0.00014558
-0.000234526
-0.000134626
-0.000192165
-0.000123544
-0.000152809
-0.000112129
-0.000116836
-0.000100194
-8.46495e-05
-8.75697e-05
-5.6709e-05
-7.41089e-05
-3.35504e-05
-5.96851e-05
-1.58169e-05
-4.41906e-05
-4.29512e-06
-2.75345e-05
-9.62968e-06
-0.000663576
-0.000301259
0.000693346
-0.000629124
-0.000288069
-0.000590753
-0.000275056
-0.000549275
-0.000262332
-0.000505506
-0.000249936
-0.000460225
-0.000237841
-0.000414147
-0.000225973
-0.000367928
-0.000214208
-0.00032216
-0.000202394
-0.000277385
-0.000190355
-0.000234111
-0.0001779
-0.000192825
-0.000164829
-0.000154013