/*--------------------------------*- C++ -*----------------------------------*\
| =========                 |                                                 |
| \\      /  F ield         | OpenFOAM: The Open Source CFD Toolbox           |
|  \\    /   O peration     | Version:  v1806                                 |
|   \\  /    A nd           | Web:      www.OpenFOAM.com                      |
|    \\/     M anipulation  |                                                 |
\*---------------------------------------------------------------------------*/
FoamFile
{
    version     2.0;
    format      ascii;
    class       volScalarField;
    location    "160";
    object      p;
}
// * * * * * * * * * * * * * * * * * * * * * * * * * * * * * * * * * * * * * //

dimensions      [0 2 -2 0 0 0 0];


internalField   nonuniform List<scalar> 
5028
(
0.0310863
0.0310988
0.0310988
0.0310863
0.0342142
0.0342172
0.0342172
0.0342142
0.0279506
0.0279606
0.0279606
0.0279506
0.0276797
0.0276827
0.0276827
0.0276797
0.0445278
0.044538
0.044538
0.0445278
0.0473736
0.0473819
0.0473819
0.0473736
0.0535019
0.0535139
0.0535139
0.0535019
0.0555403
0.0555417
0.0555417
0.0555403
0.051944
0.0519418
0.0519418
0.051944
-0.00118213
-0.00118115
-0.00118115
-0.00118213
-0.00167831
-0.00167786
-0.00167786
-0.00167831
-0.00125147
-0.00125023
-0.00125023
-0.00125147
-0.00164704
-0.00164294
-0.00164295
-0.00164704
-0.00107862
-0.00107762
-0.00107762
-0.00107862
-0.000472108
-0.00046929
-0.00046929
-0.000472108
-0.000556976
-0.00055544
-0.00055544
-0.000556977
-0.000447574
-0.000446339
-0.000446338
-0.000447574
-0.000386258
-0.000384853
-0.000384853
-0.000386257
-0.000630679
-0.000629474
-0.000629475
-0.00063068
-0.000627535
-0.00062517
-0.00062517
-0.000627536
-0.000436741
-0.000435062
-0.000435062
-0.000436741
-0.000642785
-0.000642355
-0.000642355
-0.000642786
-0.000596949
-0.000594132
-0.000594131
-0.000596949
-0.000219592
-0.000218522
-0.000218521
-0.000219591
-0.000244083
-0.00024206
-0.00024206
-0.000244084
-0.000345103
-0.00034402
-0.00034402
-0.000345103
-0.000321856
-0.000321218
-0.000321218
-0.000321856
0.0542817
0.0542834
0.0542834
0.0542817
0.0529184
0.0529209
0.0529209
0.0529184
0.0387518
0.0387559
0.0387559
0.0387518
0.0419622
0.0419693
0.0419693
0.0419622
0.0337047
0.0337052
0.0337052
0.0337047
0.0373894
0.0373919
0.0373919
0.0373894
0.0545695
0.0545826
0.0545826
0.0545695
0.0555891
0.0555878
0.0555878
0.055589
-0.000431328
-0.000429696
-0.000429696
-0.000431329
-0.00023433
-0.000231492
-0.000231492
-0.000234329
0.0374392
0.0374411
0.0374411
0.0374392
0.0408733
0.0408779
0.0408779
0.0408733
0.0492226
0.0492225
0.0492225
0.0492226
-0.000444753
-0.000444501
-0.000444501
-0.000444752
0.0496372
0.0496504
0.0496504
0.0496372
-0.000426372
-0.000424344
-0.000424343
-0.00042637
-0.000500668
-0.000499601
-0.000499601
-0.000500666
-0.000548501
-0.00054753
-0.000547529
-0.0005485
-0.00057507
-0.000574372
-0.000574372
-0.000575069
-0.000567317
-0.000566863
-0.000566864
-0.000567317
-0.00050779
-0.000507618
-0.000507618
-0.000507791
-0.000390062
-0.000390114
-0.000390114
-0.000390063
-0.000395524
-0.000395587
-0.000395588
-0.000395526
-0.000508643
-0.000508427
-0.000508428
-0.000508645
-0.000564677
-0.00056435
-0.000564351
-0.000564679
-0.000570753
-0.000570051
-0.000570052
-0.000570754
-0.000537267
-0.000536115
-0.000536115
-0.000537267
-0.000479345
-0.00047792
-0.00047792
-0.000479344
-0.000400554
-0.00039909
-0.000399089
-0.000400554
-0.000297684
-0.000295236
-0.000295235
-0.000297683
-0.000279192
-0.000277801
-0.0002778
-0.000279192
-0.000422228
-0.00042104
-0.000421039
-0.000422228
-0.000354209
-0.000353916
-0.000353915
-0.000354208
-0.000409486
-0.000409318
-0.000409318
-0.000409486
-0.000443682
-0.000442365
-0.000442365
-0.000443683
-0.000514022
-0.00051304
-0.00051304
-0.000514023
-0.000572833
-0.000571854
-0.000571855
-0.000572835
-0.000606971
-0.000606265
-0.000606266
-0.000606974
-0.000603624
-0.000603201
-0.000603202
-0.000603627
-0.000550679
-0.000550439
-0.00055044
-0.000550682
-0.000438733
-0.000438931
-0.000438931
-0.000438735
0.0491105
0.0491129
0.0491129
0.0491105
-0.000461606
-0.000459639
-0.000459638
-0.000461605
-0.00053347
-0.000532331
-0.00053233
-0.000533469
-0.000591313
-0.000590306
-0.000590306
-0.000591313
-0.00062433
-0.000623765
-0.000623765
-0.000624331
-0.000612604
-0.00061231
-0.00061231
-0.000612606
-0.000547698
-0.000547497
-0.000547498
-0.0005477
-0.000430338
-0.000430477
-0.000430478
-0.000430339
-0.000260917
-0.000261098
-0.000261098
-0.000260918
-0.000224485
-0.000224597
-0.000224598
-0.000224486
-0.000226552
-0.000226691
-0.000226692
-0.000226553
-0.00026266
-0.000262882
-0.000262882
-0.00026266
0.0460853
0.0460825
0.0460825
0.0460853
0.0432774
0.0432836
0.0432836
0.0432774
0.0401958
0.0401978
0.0401978
0.0401958
0.037013
0.0370149
0.0370149
0.037013
0.033824
0.0338293
0.0338293
0.033824
0.0307323
0.0307469
0.0307469
0.0307323
0.0274442
0.0274531
0.0274531
0.0274442
0.0249239
0.0249335
0.0249335
0.0249239
0.0252867
0.0252963
0.0252963
0.0252867
0.0253471
0.0253582
0.0253582
0.0253471
0.0251064
0.0251139
0.0251139
0.0251064
0.0277981
0.027808
0.027808
0.0277981
0.0306249
0.0306295
0.0306295
0.0306249
0.0337305
0.0337393
0.0337393
0.0337305
0.0370771
0.0370881
0.0370881
0.0370771
0.0405986
0.0406043
0.0406043
0.0405986
0.0444159
0.0444231
0.0444231
0.0444159
0.0479163
0.0479198
0.0479198
0.0479163
0.0506713
0.0506739
0.0506739
0.0506713
0.0494505
0.0494557
0.0494557
0.0494505
0.0504386
0.0504462
0.0504462
0.0504386
0.0536762
0.0536781
0.0536781
0.0536762
0.0517836
0.0517828
0.0517828
0.0517836
-0.000385566
-0.000382818
-0.000382819
-0.000385568
-0.000496065
-0.000494154
-0.000494155
-0.000496067
-0.000582133
-0.000580332
-0.000580333
-0.000582136
-0.000652477
-0.000651229
-0.00065123
-0.00065248
-0.000691842
-0.000691086
-0.000691087
-0.000691845
-0.000694
-0.000693548
-0.000693549
-0.000694001
-0.000639637
-0.000639333
-0.000639333
-0.000639638
-0.000522521
-0.000522595
-0.000522595
-0.000522521
-0.000334798
-0.000335024
-0.000335023
-0.000334795
0.0479117
0.0479133
0.0479133
0.0479117
0.0454164
0.0454186
0.0454186
0.0454164
0.0423045
0.0423063
0.0423063
0.0423045
0.0391064
0.0391172
0.0391172
0.0391064
0.0357301
0.0357444
0.0357444
0.0357301
0.0325588
0.0325713
0.0325713
0.0325588
0.0296226
0.0296316
0.0296316
0.0296226
0.0269186
0.0269266
0.0269266
0.0269186
0.0244413
0.0244478
0.0244478
0.0244413
0.0482023
0.0482004
0.0482004
0.0482023
0.0454032
0.0454102
0.0454102
0.0454032
0.0356681
0.0356764
0.0356764
0.0356681
0.0325793
0.0325891
0.0325891
0.0325793
0.0295978
0.0296035
0.0296035
0.0295978
0.0269839
0.0269934
0.0269934
0.0269839
0.0243213
0.0243277
0.0243277
0.0243213
0.0220913
0.0220993
0.0220993
0.0220913
0.0226894
0.0226974
0.0226974
0.0226894
0.023042
0.0230481
0.0230481
0.023042
0.0230718
0.0230796
0.0230796
0.0230718
0.0227951
0.0228015
0.0228015
0.0227951
0.0221783
0.0221838
0.0221838
0.0221783
0.0437525
0.0437644
0.0437644
0.0437525
0.0444669
0.0444744
0.0444744
0.0444669
-0.000525939
-0.000524365
-0.000524366
-0.00052594
-0.000606775
-0.000605682
-0.000605683
-0.000606776
-0.000670509
-0.000669622
-0.000669622
-0.000670511
-0.000707472
-0.000706818
-0.000706818
-0.000707474
-0.000700807
-0.000700568
-0.000700568
-0.000700808
-0.000634644
-0.0006343
-0.0006343
-0.000634644
-0.000516458
-0.000516048
-0.000516048
-0.000516457
-0.000341359
-0.000341599
-0.000341598
-0.000341358
-0.000103345
-0.000103507
-0.000103505
-0.000103341
-5.12209e-05
-5.1384e-05
-5.1383e-05
-5.12186e-05
-2.58568e-05
-2.59883e-05
-2.59878e-05
-2.58558e-05
-2.61051e-05
-2.62235e-05
-2.62233e-05
-2.61044e-05
-4.86466e-05
-4.88485e-05
-4.88481e-05
-4.86448e-05
-9.78391e-05
-9.80383e-05
-9.80369e-05
-9.78345e-05
0.0483869
0.0483941
0.0483941
0.0483869
0.049707
0.0497174
0.0497174
0.049707
-0.000621942
-0.000622165
-0.000622166
-0.000621943
-0.000629483
-0.000627973
-0.000627974
-0.000629486
-0.000704612
-0.000703577
-0.000703578
-0.000704615
-0.000784248
-0.000783244
-0.000783244
-0.000784249
-0.000841356
-0.000840801
-0.000840801
-0.000841356
-0.000849689
-0.00084927
-0.000849269
-0.000849687
-0.00079874
-0.000798368
-0.000798367
-0.000798738
-0.0006676
-0.000667651
-0.000667649
-0.000667597
-0.000456694
-0.000456917
-0.000456915
-0.000456691
-0.000183183
-0.000183403
-0.000183402
-0.000183177
0.0435212
0.0435248
0.0435248
0.0435212
0.0417806
0.0417873
0.0417873
0.0417806
0.0393376
0.0393447
0.0393447
0.0393376
0.0365178
0.0365317
0.0365317
0.0365178
0.0335555
0.0335683
0.0335683
0.0335555
0.0306917
0.0307013
0.0307013
0.0306917
0.028052
0.0280603
0.0280603
0.028052
0.0255782
0.0255861
0.0255861
0.0255782
0.0232709
0.0232769
0.0232769
0.0232709
0.0211719
0.0211767
0.0211767
0.0211719
0.0436405
0.0436435
0.0436435
0.0436405
0.0442075
0.0442165
0.0442165
0.0442075
0.0423021
0.0423145
0.0423145
0.0423021
0.0390617
0.0390663
0.0390663
0.0390617
0.0423045
0.0423085
0.0423085
0.0423045
0.0362582
0.0362598
0.0362598
0.0362582
0.0334893
0.033494
0.033494
0.0334893
0.0307782
0.0307861
0.0307861
0.0307782
0.0280878
0.0280951
0.0280951
0.0280878
0.0255716
0.0255787
0.0255787
0.0255716
0.0232782
0.0232852
0.0232852
0.0232782
0.0211251
0.0211312
0.0211312
0.0211251
0.0192166
0.0192221
0.0192221
0.0192166
0.0200933
0.0200998
0.0200998
0.0200933
0.0207182
0.0207252
0.0207252
0.0207182
0.021059
0.0210656
0.0210656
0.021059
0.0210524
0.0210585
0.0210585
0.0210524
0.0207617
0.0207673
0.0207673
0.0207617
0.0201503
0.0201547
0.0201547
0.0201503
0.0192489
0.0192529
0.0192529
0.0192489
-0.000627902
-0.000626282
-0.000626282
-0.000627904
-0.00071982
-0.000718522
-0.000718522
-0.000719821
-0.000802271
-0.000801279
-0.000801279
-0.000802273
-0.000855584
-0.000854714
-0.000854714
-0.000855584
-0.000866009
-0.000865769
-0.000865769
-0.000866008
-0.000808561
-0.000808235
-0.000808233
-0.000808559
-0.000682563
-0.000682149
-0.000682148
-0.00068256
-0.000477082
-0.00047736
-0.000477358
-0.000477077
-0.000189068
-0.000189213
-0.000189211
-0.000189063
0.000130099
0.000130072
0.000130074
0.000130103
0.000161924
0.000161825
0.000161826
0.000161927
0.000177386
0.000177287
0.000177288
0.000177389
0.000182738
0.000182639
0.000182641
0.00018274
0.000180743
0.000180661
0.000180662
0.000180745
0.000172658
0.000172537
0.000172538
0.000172661
0.000155008
0.000154902
0.000154904
0.000155012
0.000123148
0.000123101
0.000123102
0.000123152
5.37685e-05
5.37389e-05
5.3739e-05
5.37686e-05
-0.000329719
-0.000329898
-0.000329898
-0.000329719
-0.000661202
-0.000661397
-0.000661397
-0.000661204
-0.000908343
-0.000908304
-0.000908303
-0.000908342
-0.00105114
-0.00105087
-0.00105087
-0.00105113
-0.00109757
-0.00109706
-0.00109706
-0.00109757
-0.00106052
-0.00105972
-0.00105972
-0.00106052
-0.000969352
-0.000967888
-0.000967887
-0.000969349
-0.000860423
-0.000858599
-0.000858598
-0.000860421
-0.00075945
-0.000757119
-0.000757118
-0.000759447
-0.000698316
-0.000696776
-0.000696775
-0.000698313
0.000437574
0.000437589
0.000437589
0.000437575
0.000413499
0.00041351
0.00041351
0.0004135
0.000390167
0.000390167
0.000390167
0.000390168
0.000375718
0.000375724
0.000375725
0.00037572
0.000371033
0.000371075
0.000371076
0.000371036
0.000376666
0.000376678
0.000376679
0.000376669
0.000392477
0.000392478
0.000392479
0.000392481
0.000415221
0.000415292
0.000415292
0.000415223
0.000432847
0.000433018
0.000433016
0.000432844
-0.000703968
-0.000702444
-0.000702445
-0.000703969
-0.000781213
-0.000779493
-0.000779493
-0.000781214
-0.000886698
-0.000885364
-0.000885363
-0.000886698
-0.000997615
-0.00099654
-0.000996539
-0.000997614
-0.00108536
-0.00108448
-0.00108447
-0.00108535
-0.00112238
-0.00112173
-0.00112173
-0.00112238
-0.00108614
-0.0010856
-0.0010856
-0.00108614
-0.000949652
-0.00094959
-0.000949588
-0.000949646
-0.00069584
-0.000696197
-0.000696195
-0.000695835
-0.000343292
-0.000343415
-0.000343414
-0.000343288
5.84891e-05
5.86891e-05
5.86894e-05
5.84904e-05
0.000461293
0.000461449
0.000461447
0.00046129
0.0180755
0.018079
0.018079
0.0180755
0.0198492
0.0198535
0.0198535
0.0198492
0.0217818
0.0217869
0.0217869
0.0217818
0.0238664
0.0238725
0.0238725
0.0238664
0.0260954
0.0261015
0.0261015
0.0260954
0.0283898
0.0283978
0.0283978
0.0283898
0.0308504
0.0308604
0.0308604
0.0308504
0.0332819
0.0332922
0.0332922
0.0332819
0.0353458
0.0353535
0.0353535
0.0353458
0.0369975
0.0370064
0.0370064
0.0369975
0.0378698
0.0378774
0.0378774
0.0378698
0.0324677
0.0324707
0.0324707
0.0324677
0.0370657
0.0370585
0.0370585
0.0370657
0.038192
0.0382001
0.0382001
0.038192
0.0370412
0.0370509
0.0370509
0.0370412
0.0351036
0.0351084
0.0351084
0.0351036
0.033002
0.032999
0.032999
0.033002
0.0307623
0.0307604
0.0307604
0.0307623
0.0284321
0.0284381
0.0284381
0.0284321
0.0260953
0.026104
0.026104
0.0260953
0.0238524
0.0238598
0.0238598
0.0238524
0.021775
0.02178
0.02178
0.021775
0.0198966
0.0199025
0.0199025
0.0198966
0.0180462
0.0180523
0.0180523
0.0180462
0.0164554
0.0164597
0.0164597
0.0164554
0.0175299
0.0175341
0.0175341
0.0175299
0.018366
0.0183707
0.0183707
0.018366
0.0189461
0.01895
0.01895
0.0189461
0.0192415
0.019245
0.019245
0.0192415
0.0192453
0.0192492
0.0192492
0.0192453
0.0189614
0.0189656
0.0189656
0.0189614
0.0183867
0.0183901
0.0183901
0.0183867
0.0175572
0.0175602
0.0175602
0.0175572
0.0164744
0.0164772
0.0164772
0.0164744
0.0152374
0.0152396
0.0152396
0.0152374
0.0166916
0.016694
0.016694
0.0166916
0.0182698
0.0182729
0.0182729
0.0182698
0.0199857
0.0199899
0.0199899
0.0199857
0.0218269
0.0218312
0.0218312
0.0218269
0.0237338
0.0237375
0.0237375
0.0237338
0.0256682
0.0256729
0.0256729
0.0256682
0.0276507
0.0276585
0.0276585
0.0276507
0.0294823
0.0294898
0.0294898
0.0294823
0.0308446
0.0308457
0.0308457
0.0308446
0.0313794
0.0313797
0.0313797
0.0313794
0.0309662
0.0309659
0.0309659
0.0309662
0.0278909
0.0278858
0.0278858
0.0278909
0.0185727
0.0185606
0.0185606
0.0185727
0.0187618
0.0187493
0.0187493
0.0187618
0.028161
0.0281512
0.0281512
0.028161
0.031337
0.0313375
0.0313375
0.031337
0.0315574
0.0315651
0.0315651
0.0315574
0.0305902
0.0305931
0.0305931
0.0305902
0.0292059
0.0292
0.0292
0.0292059
0.0275914
0.0275861
0.0275861
0.0275914
0.0256805
0.0256844
0.0256844
0.0256805
0.0237106
0.0237168
0.0237168
0.0237106
0.0217914
0.021798
0.021798
0.0217914
0.0199741
0.0199798
0.0199798
0.0199741
0.0182534
0.0182597
0.0182597
0.0182534
0.0166687
0.0166738
0.0166738
0.0166687
0.0151985
0.0152025
0.0152025
0.0151985
0.0139123
0.013915
0.013915
0.0139123
0.0150978
0.0151004
0.0151004
0.0150978
0.0160901
0.0160925
0.0160925
0.0160901
0.0168673
0.0168694
0.0168694
0.0168673
0.0173953
0.0173976
0.0173976
0.0173953
0.0176625
0.0176653
0.0176653
0.0176625
0.0176629
0.0176656
0.0176656
0.0176629
0.0173949
0.0173968
0.0173968
0.0173949
0.0168767
0.0168781
0.0168781
0.0168767
0.0161023
0.0161036
0.0161036
0.0161023
0.0151015
0.0151028
0.0151028
0.0151015
0.0139179
0.0139194
0.0139194
0.0139179
-0.000849571
-0.000847993
-0.000847994
-0.000849573
-0.000812283
-0.000809794
-0.000809795
-0.000812284
-0.000874183
-0.000872689
-0.000872689
-0.000874183
-0.000969834
-0.000968315
-0.000968314
-0.000969834
-0.00110268
-0.00110169
-0.00110169
-0.00110268
-0.00125528
-0.00125458
-0.00125458
-0.00125528
-0.00139929
-0.00139809
-0.00139808
-0.00139928
-0.00149855
-0.00149766
-0.00149765
-0.00149855
-0.00149971
-0.00149945
-0.00149945
-0.00149971
-0.00135657
-0.00135693
-0.00135693
-0.00135657
-0.00105126
-0.00105153
-0.00105153
-0.00105126
-0.000600308
-0.000600321
-0.000600322
-0.000600309
-6.57559e-05
-6.55353e-05
-6.55374e-05
-6.57602e-05
0.000451239
0.000451541
0.000451538
0.000451231
0.000894986
0.000895395
0.000895392
0.000894979
0.000788474
0.000788723
0.000788719
0.000788466
0.00069144
0.000691636
0.000691633
0.000691434
0.000614405
0.000614579
0.000614578
0.000614401
0.000559856
0.000559987
0.000559986
0.000559854
0.000529547
0.000529715
0.000529715
0.000529548
0.000523174
0.000523352
0.000523353
0.000523177
0.000541024
0.00054116
0.000541162
0.000541029
0.000582841
0.000582971
0.000582973
0.000582845
0.000649441
0.000649604
0.000649604
0.000649443
0.000736063
0.000736319
0.000736318
0.00073606
0.000840969
0.000841404
0.000841401
0.000840965
0.000435763
0.000436159
0.000436155
0.000435754
-6.39975e-05
-6.38007e-05
-6.3803e-05
-6.40019e-05
-0.000567619
-0.000567735
-0.000567735
-0.00056762
-0.000992761
-0.000993069
-0.000993071
-0.000992764
-0.00128657
-0.00128687
-0.00128687
-0.00128657
-0.00143561
-0.00143533
-0.00143533
-0.00143561
-0.00144752
-0.00144706
-0.00144705
-0.00144752
-0.00136607
-0.00136545
-0.00136545
-0.00136607
-0.00122234
-0.00122123
-0.00122123
-0.00122234
-0.00107361
-0.00107241
-0.00107241
-0.00107361
-0.000948259
-0.000947033
-0.000947032
-0.000948259
-0.000861226
-0.000860562
-0.000860561
-0.000861225
-0.000809709
-0.000808156
-0.000808156
-0.000809708
-0.000798496
-0.00079632
-0.00079632
-0.000798496
-0.00100709
-0.00100614
-0.00100614
-0.00100709
-0.00093636
-0.000935175
-0.000935175
-0.000936359
-0.00098758
-0.000986205
-0.000986205
-0.00098758
-0.00112024
-0.00111858
-0.00111858
-0.00112024
-0.00130599
-0.00130406
-0.00130405
-0.00130599
-0.00152868
-0.00152705
-0.00152705
-0.00152867
-0.00176106
-0.00175957
-0.00175957
-0.00176106
-0.00193555
-0.00193442
-0.00193442
-0.00193554
-0.00198318
-0.0019827
-0.00198269
-0.00198318
-0.00185088
-0.00185075
-0.00185075
-0.00185088
-0.00149962
-0.00149932
-0.00149932
-0.00149963
-0.000944852
-0.000944076
-0.000944077
-0.000944852
-0.000272967
-0.0002717
-0.000271703
-0.000272972
0.000409512
0.000410335
0.000410334
0.000409507
0.000969147
0.000969521
0.000969521
0.000969148
0.00118869
0.0011891
0.00118909
0.00118869
0.0010007
0.00100099
0.00100099
0.00100069
0.000851063
0.000851427
0.000851423
0.000851054
0.000741465
0.00074189
0.000741887
0.00074146
0.000668066
0.000668374
0.000668373
0.000668063
0.000627959
0.000628254
0.000628255
0.00062796
0.000620468
0.00062078
0.000620782
0.000620472
0.0006452
0.000645483
0.000645485
0.000645205
0.000703678
0.000703913
0.000703915
0.000703681
0.000798471
0.000798749
0.000798749
0.00079847
0.00093189
0.000932181
0.00093218
0.000931886
0.00110588
0.00110637
0.00110637
0.00110587
0.00132293
0.00132356
0.00132356
0.00132293
0.0125921
0.012593
0.012593
0.0125921
0.013747
0.0137488
0.0137488
0.013747
0.0150168
0.0150191
0.0150191
0.0150168
0.0163921
0.0163946
0.0163946
0.0163921
0.0178676
0.017871
0.017871
0.0178676
0.0194616
0.0194651
0.0194651
0.0194616
0.0210626
0.0210639
0.0210639
0.0210626
0.0226127
0.0226152
0.0226152
0.0226127
0.0240699
0.0240758
0.0240758
0.0240699
0.0253843
0.0253922
0.0253922
0.0253843
0.0261116
0.0261072
0.0261072
0.0261116
0.0260367
0.0260373
0.0260373
0.0260367
0.0246496
0.0246376
0.0246376
0.0246496
0.021854
0.0218656
0.0218656
0.021854
0.0218312
0.021831
0.021831
0.0218312
0.025001
0.0249879
0.0249879
0.025001
0.0262346
0.0262443
0.0262443
0.0262346
0.0259161
0.025917
0.025917
0.0259161
0.0251764
0.0251699
0.0251699
0.0251764
0.0240489
0.0240413
0.0240413
0.0240489
0.0225933
0.0225955
0.0225955
0.0225933
0.0210087
0.0210129
0.0210129
0.0210087
0.0194026
0.0194086
0.0194086
0.0194026
0.017843
0.0178479
0.0178479
0.017843
0.0163634
0.0163686
0.0163686
0.0163634
0.0149706
0.0149748
0.0149748
0.0149706
0.0137079
0.0137125
0.0137125
0.0137079
0.0125423
0.012545
0.012545
0.0125423
0.0115504
0.0115513
0.0115513
0.0115504
0.0128283
0.0128288
0.0128288
0.0128283
0.0139416
0.0139416
0.0139416
0.0139416
0.0148659
0.014866
0.014866
0.0148659
0.0155741
0.0155744
0.0155744
0.0155741
0.0160532
0.016054
0.016054
0.0160532
0.0162954
0.0162964
0.0162964
0.0162954
0.0162965
0.0162975
0.0162975
0.0162965
0.0160576
0.0160582
0.0160582
0.0160576
0.0155831
0.015583
0.015583
0.0155831
0.0148754
0.0148753
0.0148753
0.0148754
0.0139477
0.0139479
0.0139479
0.0139477
0.0128281
0.0128283
0.0128283
0.0128281
-0.000963399
-0.000960733
-0.000960733
-0.000963401
-0.00102084
-0.001019
-0.001019
-0.00102084
-0.00114937
-0.00114742
-0.00114742
-0.00114937
-0.00133963
-0.00133779
-0.00133779
-0.00133963
-0.0015752
-0.00157333
-0.00157333
-0.0015752
-0.00181163
-0.00180972
-0.00180972
-0.00181163
-0.00200511
-0.0020036
-0.0020036
-0.0020051
-0.00208051
-0.00207976
-0.00207976
-0.00208051
-0.00195181
-0.00195194
-0.00195194
-0.00195181
-0.00158932
-0.00158918
-0.00158918
-0.00158932
-0.00101138
-0.0010105
-0.00101051
-0.00101138
-0.000306706
-0.000305604
-0.000305608
-0.000306712
0.000425634
0.000426377
0.000426374
0.000425627
0.00101516
0.00101569
0.00101569
0.00101515
0.00141986
0.00142024
0.00142024
0.00141986
0.0115746
0.0115746
0.0115746
0.0115746
0.0115615
0.0115357
0.0115357
0.0115615
0.012617
0.0126038
0.0126038
0.012617
0.000929717
0.000933567
0.000933572
0.000929717
0.00164875
0.00168163
0.00168164
0.00164875
-0.00329547
-0.0032849
-0.0032849
-0.00329546
-0.00464453
-0.00463573
-0.00463573
-0.00464453
-0.00275714
-0.00275884
-0.00275884
-0.00275714
-0.00136673
-0.00135949
-0.00135949
-0.00136673
-0.00126364
-0.00126336
-0.00126335
-0.00126364
-0.000946269
-0.000942617
-0.000942617
-0.000946271
-0.000935246
-0.000934985
-0.000934986
-0.00093525
-0.00105043
-0.00105045
-0.00105045
-0.00105044
-0.00127994
-0.00128092
-0.00128092
-0.00127995
-0.00157128
-0.00157253
-0.00157253
-0.00157129
-0.00190927
-0.00191077
-0.00191077
-0.00190927
-0.00226891
-0.00227043
-0.00227043
-0.00226891
-0.00257564
-0.00257685
-0.00257685
-0.00257564
-0.00273719
-0.00273802
-0.00273802
-0.00273719
-0.00264174
-0.00264342
-0.00264342
-0.00264175
-0.00221204
-0.00221269
-0.00221269
-0.00221204
-0.00146842
-0.00146805
-0.00146805
-0.00146841
-0.000562844
-0.000561957
-0.000561954
-0.000562836
0.00038078
0.000381571
0.000381573
0.000380787
0.00113591
0.00113606
0.00113606
0.00113593
0.00159688
0.0015965
0.00159651
0.00159689
0.00157066
0.00157109
0.00157109
0.00157067
0.00129873
0.00129901
0.00129901
0.00129873
0.00108093
0.00108114
0.00108114
0.00108092
0.000912705
0.000912953
0.000912948
0.000912697
0.000789779
0.000790068
0.000790064
0.000789773
0.000708042
0.000708321
0.00070832
0.00070804
0.000663802
0.000664072
0.000664073
0.000663804
0.000655632
0.000655902
0.000655905
0.000655636
0.000683313
0.000683566
0.000683568
0.000683316
0.000748389
0.00074866
0.00074866
0.000748391
0.000853388
0.000853727
0.000853725
0.000853386
0.00100318
0.00100355
0.00100355
0.00100318
0.00120205
0.00120245
0.00120244
0.00120205
0.00145282
0.00145335
0.00145335
0.00145282
0.00176567
0.00176496
0.00176496
0.00176568
-0.00170022
-0.00170815
-0.00170815
-0.00170023
0.0035919
0.00357306
0.00357306
0.00359189
0.0111086
0.0111273
0.0111273
0.0111086
0.016521
0.0165246
0.0165246
0.016521
0.0195843
0.0195769
0.019577
0.0195843
0.0211974
0.0212063
0.0212063
0.0211974
0.0213292
0.0213265
0.0213265
0.0213292
0.0211533
0.0211467
0.0211467
0.0211533
0.0203481
0.0203416
0.0203416
0.0203481
0.0192822
0.0192844
0.0192844
0.0192822
0.0180236
0.0180268
0.0180268
0.0180236
0.0167448
0.0167495
0.0167495
0.0167448
0.0154506
0.0154534
0.0154534
0.0154506
0.014225
0.0142282
0.0142282
0.014225
0.0130521
0.0130555
0.0130555
0.0130521
0.0119771
0.0119814
0.0119814
0.0119771
0.0109882
0.0109914
0.0109914
0.0109882
0.0101179
0.0101194
0.0101194
0.0101179
0.00938796
0.00938663
0.00938663
0.00938796
0.0107281
0.0107267
0.0107267
0.0107281
0.0119302
0.0119288
0.0119288
0.0119302
0.0129758
0.0129741
0.0129741
0.0129758
0.0138283
0.0138267
0.0138267
0.0138283
0.0144798
0.014479
0.014479
0.0144798
0.0149217
0.0149217
0.0149217
0.0149217
0.0151461
0.0151465
0.0151465
0.0151461
0.0151467
0.015147
0.015147
0.0151467
0.0149248
0.0149245
0.0149245
0.0149248
0.0144855
0.0144843
0.0144843
0.0144855
0.0138335
0.0138316
0.0138316
0.0138335
0.0129751
0.0129735
0.0129735
0.0129751
0.0119353
0.0119343
0.0119343
0.0119353
0.0107301
0.0107291
0.0107291
0.0107301
0.00941364
0.00941218
0.00941218
0.00941364
0.0101595
0.0101595
0.0101595
0.0101595
0.0110309
0.0110316
0.0110316
0.0110309
0.0119947
0.011996
0.011996
0.0119947
0.0130774
0.0130791
0.0130791
0.0130774
0.0142451
0.0142464
0.0142464
0.0142451
0.0154859
0.0154873
0.0154873
0.0154859
0.0167899
0.0167922
0.0167922
0.0167899
0.0180855
0.0180861
0.0180861
0.0180855
0.0192875
0.0192898
0.0192898
0.0192875
0.0203291
0.0203329
0.0203329
0.0203291
0.0212258
0.0212332
0.0212332
0.0212258
0.0215522
0.0215491
0.0215491
0.0215522
0.021115
0.0211183
0.0211183
0.021115
0.0194865
0.0194884
0.0194884
0.0194865
0.0168851
0.0169018
0.0169018
0.0168851
0.0117408
0.0117632
0.0117632
0.0117408
0.00349981
0.00347905
0.00347905
0.00349981
-0.00490133
-0.00491829
-0.00491828
-0.00490133
-0.00152475
-0.00155065
-0.00155065
-0.00152475
-0.00259893
-0.00257799
-0.00257799
-0.00259893
-0.00434224
-0.00434742
-0.00434741
-0.00434224
-0.00271086
-0.00270665
-0.00270665
-0.00271087
-0.00187537
-0.00187268
-0.00187268
-0.00187537
-0.00124778
-0.00124328
-0.00124328
-0.00124776
-0.00108666
-0.00108502
-0.00108502
-0.00108665
-0.000965778
-0.000964269
-0.00096427
-0.000965779
-0.00109782
-0.00109805
-0.00109805
-0.00109782
-0.00132213
-0.00132288
-0.00132288
-0.00132213
-0.00161112
-0.00161234
-0.00161234
-0.00161112
-0.00196123
-0.00196268
-0.00196268
-0.00196123
-0.00233872
-0.00234009
-0.00234009
-0.00233872
-0.00267321
-0.00267432
-0.00267432
-0.00267321
-0.00286347
-0.00286439
-0.00286439
-0.00286347
-0.00277353
-0.00277512
-0.00277512
-0.00277353
-0.00233584
-0.00233656
-0.00233656
-0.00233585
-0.00157036
-0.00157003
-0.00157003
-0.00157037
-0.00061563
-0.00061448
-0.000614483
-0.000615635
0.000384358
0.000385278
0.000385278
0.000384358
0.00118925
0.00118936
0.00118936
0.00118925
0.00171013
0.00171017
0.00171018
0.00171014
0.00190527
0.00190453
0.00190453
0.00190528
0.00795301
0.00795169
0.00795169
0.00795301
0.0085652
0.00856513
0.00856513
0.0085652
0.00927666
0.00927699
0.00927699
0.00927666
0.0100713
0.0100719
0.0100719
0.0100713
0.0109534
0.0109541
0.0109541
0.0109534
0.0119116
0.0119122
0.0119122
0.0119116
0.0129079
0.0129075
0.0129075
0.0129079
0.0139409
0.0139417
0.0139417
0.0139409
0.0149474
0.014948
0.014948
0.0149474
0.0158719
0.0158742
0.0158742
0.0158719
0.0166078
0.0166101
0.0166101
0.0166078
0.0171621
0.0171682
0.0171682
0.0171621
0.0172237
0.0172252
0.0172252
0.0172237
0.0166502
0.0166569
0.0166569
0.0166502
0.015237
0.0152455
0.0152455
0.015237
0.013027
0.0130336
0.0130336
0.013027
0.00965658
0.00965215
0.00965215
0.00965658
0.00441924
0.0043914
0.0043914
0.00441924
0.000179976
0.000160668
0.000160669
0.000179977
-0.00163417
-0.00163172
-0.00163172
-0.00163417
-0.00247959
-0.0024848
-0.0024848
-0.0024796
-0.0017699
-0.00176373
-0.00176373
-0.0017699
-0.00113479
-0.00112974
-0.00112974
-0.00113479
-0.000807431
-0.00080339
-0.000803391
-0.000807431
-0.000782858
-0.000780266
-0.000780267
-0.000782859
-0.000747411
-0.000742226
-0.000742226
-0.000747411
-0.000999903
-0.000995348
-0.000995347
-0.000999901
-0.00131713
-0.0013118
-0.00131179
-0.00131713
-0.00171823
-0.00171288
-0.00171288
-0.00171823
-0.00221072
-0.00220597
-0.00220597
-0.00221072
-0.00275393
-0.00275003
-0.00275003
-0.00275392
-0.0032571
-0.00325448
-0.00325448
-0.0032571
-0.00356874
-0.00356741
-0.00356741
-0.00356874
-0.00353714
-0.00353696
-0.00353696
-0.00353714
-0.00304379
-0.00304323
-0.00304323
-0.00304379
-0.00209389
-0.00209303
-0.00209304
-0.0020939
-0.00086995
-0.000869228
-0.000869229
-0.00086995
0.000394148
0.000394933
0.000394935
0.000394153
0.00143012
0.00143109
0.0014311
0.00143012
0.00207304
0.00207487
0.00207488
0.00207304
0.00231538
0.00231805
0.00231806
0.00231541
0.00220456
0.00220708
0.00220708
0.00220458
0.00181838
0.00181723
0.00181724
0.00181838
0.00151525
0.00151589
0.00151589
0.00151526
0.00125506
0.00125525
0.00125525
0.00125506
0.00104401
0.00104421
0.00104421
0.00104401
0.000881177
0.000881367
0.000881363
0.000881168
0.00076151
0.000761709
0.000761706
0.000761502
0.000681549
0.000681737
0.000681736
0.000681545
0.00063817
0.000638343
0.000638343
0.000638169
0.000630005
0.000630167
0.000630169
0.000630006
0.000656998
0.000657149
0.000657149
0.000656999
0.000720383
0.00072053
0.000720529
0.000720381
0.000822029
0.000822163
0.000822162
0.000822024
0.000964875
0.000965015
0.000965014
0.000964872
0.00115464
0.00115478
0.00115478
0.00115464
0.00139089
0.00139166
0.00139166
0.00139089
0.00166337
0.00166213
0.00166213
0.00166338
0.00204682
0.00204949
0.00204949
0.00204683
0.0021559
0.00215851
0.00215851
0.0021559
0.00195656
0.0019587
0.0019587
0.00195657
0.00137926
0.00138045
0.00138045
0.00137926
0.000405663
0.000406118
0.000406118
0.000405659
-0.000797226
-0.000796919
-0.000796916
-0.000797219
-0.001994
-0.00199284
-0.00199284
-0.001994
-0.00291626
-0.00291559
-0.00291559
-0.00291627
-0.00340862
-0.00340847
-0.00340847
-0.00340862
-0.00343708
-0.00343577
-0.00343577
-0.00343708
-0.00315136
-0.00314875
-0.00314875
-0.00315136
-0.00267385
-0.00267017
-0.00267017
-0.00267385
-0.00215414
-0.00214961
-0.00214961
-0.00215414
-0.00167979
-0.00167492
-0.00167492
-0.00167979
-0.00128206
-0.00127731
-0.00127731
-0.00128206
-0.000970156
-0.000965516
-0.000965516
-0.000970156
-0.000783933
-0.000781525
-0.000781525
-0.000783932
-0.000652271
-0.000648845
-0.000648846
-0.00065227
-0.0010281
-0.0010308
-0.0010308
-0.00102809
-0.000965945
-0.000960027
-0.000960028
-0.000965946
-0.0020838
-0.00208371
-0.00208371
-0.0020838
-0.0030468
-0.003052
-0.003052
-0.0030468
-0.0026675
-0.00268621
-0.00268621
-0.0026675
-9.13941e-05
-8.55745e-05
-8.55713e-05
-9.13961e-05
0.00385381
0.0038289
0.00382891
0.00385381
0.00973433
0.00975824
0.00975824
0.00973433
0.0126423
0.0126423
0.0126423
0.0126423
0.0151507
0.0151591
0.0151591
0.0151507
0.0166011
0.0166089
0.0166089
0.0166011
0.0170231
0.0170223
0.0170223
0.0170231
0.0171227
0.0171198
0.0171198
0.0171227
0.016638
0.0166345
0.0166345
0.016638
0.0158669
0.0158693
0.0158693
0.0158669
0.0149142
0.0149157
0.0149157
0.0149142
0.0139168
0.0139192
0.0139192
0.0139168
0.0128925
0.0128928
0.0128928
0.0128925
0.0119052
0.0119066
0.0119066
0.0119052
0.0109446
0.0109474
0.0109474
0.0109446
0.0100421
0.0100466
0.0100466
0.0100421
0.00922699
0.00923069
0.00923069
0.00922699