/*--------------------------------*- C++ -*----------------------------------*\
| =========                 |                                                 |
| \\      /  F ield         | OpenFOAM: The Open Source CFD Toolbox           |
|  \\    /   O peration     | Version:  v1806                                 |
|   \\  /    A nd           | Web:      www.OpenFOAM.com                      |
|    \\/     M anipulation  |                                                 |
\*---------------------------------------------------------------------------*/
FoamFile
{
    version     2.0;
    format      ascii;
    class       volScalarField;
    location    "490";
    object      p;
}
// * * * * * * * * * * * * * * * * * * * * * * * * * * * * * * * * * * * * * //

dimensions      [0 2 -2 0 0 0 0];


internalField   nonuniform List<scalar> 
4876
(
0.00499981
0.00497599
0.00497598
0.00499981
0.00866926
0.00861762
0.00861762
0.00866926
0.0222314
0.0222373
0.0222373
0.0222314
0.0255072
0.0255076
0.0255076
0.0255072
0.0493587
0.0493616
0.0493616
0.0493587
0.0438398
0.0438427
0.0438427
0.0438398
0.0441275
0.044136
0.044136
0.0441275
0.0378898
0.0378884
0.0378884
0.0378898
0.0410663
0.0410833
0.0410833
0.0410663
-0.00489564
-0.00488729
-0.00488729
-0.00489564
-0.00738553
-0.00739406
-0.00739406
-0.00738553
0.0159721
0.0159425
0.0159425
0.0159721
0.0186981
0.0187098
0.0187098
0.0186981
0.0212734
0.0212812
0.0212812
0.0212734
-0.00388634
-0.00388658
-0.00388658
-0.00388634
-0.00410668
-0.0041081
-0.0041081
-0.00410668
-0.00499454
-0.00499704
-0.00499704
-0.00499454
-0.00441303
-0.00441198
-0.00441198
-0.00441303
-0.00462789
-0.00463069
-0.00463069
-0.00462789
-0.00433827
-0.00433703
-0.00433703
-0.00433826
-0.00448612
-0.00448454
-0.00448454
-0.00448612
0.0207024
0.0207079
0.0207079
0.0207024
0.0135844
0.0135543
0.0135543
0.0135844
0.0377582
0.0377523
0.0377523
0.0377582
0.0501415
0.0501545
0.0501545
0.0501415
-0.00423534
-0.00423508
-0.00423508
-0.00423534
-0.00419131
-0.00419071
-0.00419071
-0.00419131
-0.00408506
-0.0040862
-0.0040862
-0.00408506
-0.00442502
-0.00442616
-0.00442616
-0.00442502
-0.00424292
-0.004243
-0.004243
-0.00424292
-0.00438559
-0.0043871
-0.0043871
-0.00438559
-0.00432457
-0.00432467
-0.00432467
-0.00432457
-0.00415
-0.00415043
-0.00415043
-0.00415
0.0350214
0.0350189
0.0350189
0.0350214
0.0305427
0.030544
0.030544
0.0305427
0.0323892
0.0323877
0.0323877
0.0323892
0.0325215
0.0325219
0.0325219
0.0325215
0.0307307
0.0307364
0.0307364
0.0307307
0.0353065
0.0353091
0.0353091
0.0353065
0.0404493
0.0404502
0.0404502
0.0404493
0.0446305
0.0446489
0.0446489
0.0446305
-0.00389512
-0.00389569
-0.00389569
-0.00389512
-0.00416694
-0.00416805
-0.00416805
-0.00416694
-0.00396201
-0.0039626
-0.0039626
-0.00396201
-0.00445581
-0.00445677
-0.00445677
-0.00445582
0.0287725
0.0287829
0.0287829
0.0287725
0.03116
0.0311621
0.0311621
0.03116
0.0297176
0.0297247
0.0297247
0.0297176
0.0269922
0.0269963
0.0269963
0.0269922
0.0272116
0.0272067
0.0272067
0.0272116
0.0243851
0.0243852
0.0243852
0.0243851
0.0265641
0.026561
0.026561
0.0265641
0.0279144
0.0279117
0.0279117
0.0279144
0.0280605
0.0280602
0.0280602
0.0280605
0.0267671
0.026772
0.026772
0.0267671
0.024345
0.0243482
0.0243482
0.024345
-0.00365469
-0.00365547
-0.00365547
-0.0036547
-0.0036851
-0.00368605
-0.00368605
-0.0036851
-0.00375458
-0.00375574
-0.00375574
-0.00375457
-0.00402027
-0.00402125
-0.00402125
-0.00402027
-0.00422362
-0.00422536
-0.00422536
-0.00422361
-0.00452598
-0.00452585
-0.00452585
-0.00452598
-0.00364756
-0.00364878
-0.00364878
-0.00364756
-0.00389901
-0.00389895
-0.00389895
-0.00389901
-0.00366383
-0.00366481
-0.00366481
-0.00366383
-0.00424061
-0.00424201
-0.00424201
-0.00424061
0.0297424
0.0297349
0.0297349
0.0297424
-0.00393189
-0.00393161
-0.00393161
-0.00393188
-0.00374724
-0.00374925
-0.00374925
-0.00374724
0.0422552
0.0422584
0.0422584
0.0422552
0.016342
0.0163166
0.0163166
0.016342
0.0314259
0.0314302
0.0314302
0.0314259
0.0232629
0.0232724
0.0232724
0.0232629
0.0234646
0.023462
0.023462
0.0234646
0.0227218
0.0227252
0.0227252
0.0227218
0.0209917
0.0209936
0.0209936
0.0209917
-0.0048301
-0.00482988
-0.00482988
-0.0048301
-0.00485944
-0.00486154
-0.00486154
-0.00485945
-0.00448532
-0.00448364
-0.00448364
-0.00448532
-0.00423275
-0.00423384
-0.00423384
-0.00423275
-0.00401766
-0.0040192
-0.0040192
-0.00401766
-0.00375125
-0.00375308
-0.00375308
-0.00375124
-0.00340635
-0.00340666
-0.00340666
-0.00340635
-0.00335802
-0.0033581
-0.0033581
-0.00335802
-0.00336018
-0.003361
-0.003361
-0.00336018
-0.00337066
-0.00337134
-0.00337134
-0.00337066
-0.00341132
-0.00341225
-0.00341225
-0.00341132
-0.00344037
-0.00344106
-0.00344106
-0.00344037
-0.00341846
-0.00341897
-0.00341896
-0.00341846
0.0217227
0.0217295
0.0217295
0.0217227
0.0234378
0.0234397
0.0234397
0.0234378
0.024378
0.0243783
0.0243783
0.024378
0.0244619
0.0244626
0.0244626
0.0244619
0.0236016
0.0236038
0.0236038
0.0236016
0.0217822
0.0217843
0.0217843
0.0217822
0.0193855
0.0193873
0.0193873
0.0193855
0.0240296
0.0240168
0.0240168
0.0240296
0.0229852
0.0229807
0.0229807
0.0229852
0.0214037
0.0214079
0.0214079
0.0214037
0.0194825
0.0194879
0.0194879
0.0194825
0.0244329
0.0244207
0.0244207
0.0244329
-0.00450604
-0.0045077
-0.0045077
-0.00450604
-0.0042562
-0.00425639
-0.00425639
-0.0042562
-0.00395218
-0.00395146
-0.00395146
-0.00395218
-0.0036943
-0.00369576
-0.00369576
-0.0036943
-0.0033834
-0.00338277
-0.00338277
-0.0033834
0.00211493
0.00214689
0.00214689
0.00211493
-0.0184302
-0.0184646
-0.0184646
-0.0184302
-0.0266064
-0.0265773
-0.0265773
-0.0266064
-0.0239435
-0.0239333
-0.0239333
-0.0239435
-0.0242629
-0.0242748
-0.0242748
-0.0242629
-0.0226997
-0.0226911
-0.0226911
-0.0226997
-0.0199186
-0.019908
-0.019908
-0.0199186
-0.0174109
-0.0174012
-0.0174012
-0.0174109
-0.0152411
-0.0152316
-0.0152316
-0.0152411
-0.0135697
-0.0135614
-0.0135614
-0.0135697
-0.0121713
-0.0121641
-0.0121641
-0.0121713
-0.0109984
-0.0109923
-0.0109923
-0.0109984
-0.0100122
-0.0100073
-0.0100073
-0.0100122
-0.00915278
-0.009148
-0.009148
-0.00915278
-0.00844027
-0.00843682
-0.00843682
-0.00844027
-0.0077667
-0.00776058
-0.00776058
-0.0077667
-0.00738731
-0.00738943
-0.00738943
-0.00738731
-0.00687064
-0.00686412
-0.00686412
-0.00687064
-0.00672337
-0.00672647
-0.00672647
-0.00672338
-0.00447222
-0.00446841
-0.00446841
-0.00447222
-0.00519231
-0.00520187
-0.00520187
-0.00519231
-0.00459428
-0.00459059
-0.00459059
-0.00459428
-0.00424762
-0.00424902
-0.00424902
-0.00424762
-0.00396742
-0.00396959
-0.00396959
-0.00396742
-0.00368347
-0.00368593
-0.00368593
-0.00368347
-0.00333285
-0.00333266
-0.00333266
-0.00333285
-0.00310718
-0.00311011
-0.00311011
-0.00310718
-0.00308955
-0.00309137
-0.00309137
-0.00308955
-0.00307989
-0.00308139
-0.00308139
-0.00307989
-0.0030343
-0.00303511
-0.00303511
-0.0030343
-0.00305487
-0.00305601
-0.00305601
-0.00305486
-0.00308648
-0.0030874
-0.0030874
-0.00308648
-0.00311869
-0.00312054
-0.00312054
-0.00311869
-0.00307464
-0.00307625
-0.00307625
-0.00307464
-0.00299926
-0.0030008
-0.0030008
-0.00299926
0.016768
0.016768
0.016768
0.016768
0.0177798
0.0177817
0.0177817
0.0177798
0.0183903
0.0183911
0.0183911
0.0183903
0.0183084
0.0183159
0.0183159
0.0183084
0.016476
0.0164805
0.0164805
0.016476
0.012696
0.0127239
0.0127239
0.012696
0.000263449
0.000209902
0.000209902
0.000263449
-0.015199
-0.0152241
-0.0152241
-0.015199
-0.0125778
-0.0126433
-0.0126433
-0.0125778
-0.0182707
-0.0182801
-0.0182801
-0.0182707
-0.0220748
-0.0220498
-0.0220498
-0.0220748
-0.0225464
-0.0225429
-0.0225429
-0.0225464
-0.0220673
-0.0220697
-0.0220697
-0.0220673
-0.0197399
-0.0197345
-0.0197345
-0.0197399
-0.0176019
-0.017596
-0.017596
-0.0176019
-0.0155988
-0.0155928
-0.0155928
-0.0155988
-0.0139383
-0.0139327
-0.0139327
-0.0139383
-0.0125396
-0.0125345
-0.0125345
-0.0125396
-0.011395
-0.0113908
-0.0113908
-0.011395
-0.0102926
-0.0102879
-0.0102879
-0.0102926
-0.00935526
-0.00935008
-0.00935008
-0.00935526
-0.00862972
-0.00862704
-0.00862704
-0.00862972
-0.00800558
-0.00800232
-0.00800232
-0.00800558
-0.00747807
-0.00747596
-0.00747596
-0.00747807
-0.00699234
-0.00698888
-0.00698888
-0.00699234
-0.00669097
-0.00669053
-0.00669053
-0.00669097
-0.00639151
-0.00639621
-0.00639621
-0.00639151
-0.00531561
-0.00531164
-0.00531164
-0.00531561
-0.00510571
-0.00511256
-0.00511256
-0.00510571
-0.00455371
-0.00455158
-0.00455159
-0.00455371
-0.00421165
-0.00421269
-0.00421269
-0.00421165
-0.00392061
-0.0039217
-0.0039217
-0.00392061
-0.00364926
-0.00365027
-0.00365027
-0.00364926
-0.00340302
-0.00340636
-0.00340636
-0.00340302
-0.00302485
-0.00302568
-0.00302568
-0.00302485
0.0190436
0.019053
0.019053
0.0190436
0.0181675
0.0181734
0.0181734
0.0181675
0.0170339
0.0170389
0.0170389
0.0170339
0.0157682
0.0157708
0.0157708
0.0157682
0.0177162
0.0177192
0.0177192
0.0177162
0.0194569
0.0194603
0.0194603
0.0194569
0.0208012
0.0208024
0.0208024
0.0208012
0.0215146
0.0215145
0.0215145
0.0215146
0.0215676
0.0215674
0.0215674
0.0215676
0.0209396
0.0209392
0.0209392
0.0209396
0.0195864
0.0195875
0.0195875
0.0195864
0.0176991
0.0176995
0.0176995
0.0176991
0.0156611
0.0156618
0.0156618
0.0156611
-0.00286264
-0.00286387
-0.00286387
-0.00286264
-0.0031769
-0.0031758
-0.0031758
-0.0031769
-0.00352981
-0.00353287
-0.00353287
-0.00352981
-0.00381409
-0.00381459
-0.00381459
-0.00381409
-0.00414462
-0.00414696
-0.00414696
-0.00414462
-0.00447173
-0.00447453
-0.00447453
-0.00447173
-0.00480638
-0.00480933
-0.00480933
-0.00480638
-0.00525357
-0.00524455
-0.00524455
-0.00525357
-0.00635198
-0.00635722
-0.00635722
-0.00635198
-0.00684346
-0.0068501
-0.0068501
-0.00684346
-0.00670933
-0.00670157
-0.00670157
-0.00670933
-0.00710998
-0.00710848
-0.00710848
-0.00710998
-0.0074707
-0.00746583
-0.00746583
-0.0074707
-0.00806471
-0.00806157
-0.00806157
-0.00806471
-0.00869029
-0.00868601
-0.00868601
-0.00869029
-0.0094723
-0.00946802
-0.00946802
-0.0094723
-0.0103872
-0.010382
-0.010382
-0.0103872
-0.0115063
-0.0115002
-0.0115002
-0.0115063
-0.0128252
-0.0128185
-0.0128185
-0.0128252
-0.0143593
-0.0143525
-0.0143525
-0.0143593
-0.0160179
-0.0160126
-0.0160126
-0.0160179
-0.0174874
-0.0174819
-0.0174819
-0.0174874
-0.0186484
-0.0186418
-0.0186418
-0.0186484
-0.0188631
-0.0188568
-0.0188568
-0.0188631
-0.0177413
-0.0177331
-0.0177331
-0.0177413
-0.0159361
-0.015919
-0.015919
-0.0159361
-0.00861287
-0.00859027
-0.00859027
-0.00861286
-0.00190051
-0.00193531
-0.00193531
-0.00190051
0.00674165
0.00672026
0.00672026
0.00674165
0.0113358
0.0112923
0.0112923
0.0113358
0.0140078
0.0139878
0.0139878
0.0140078
0.01497
0.0149744
0.0149744
0.01497
0.0149967
0.0150017
0.0150017
0.0149967
0.0144552
0.0144606
0.0144606
0.0144552
0.0136723
0.0136754
0.0136754
0.0136723
0.0128566
0.012858
0.012858
0.0128566
0.014596
0.0145977
0.0145977
0.014596
0.0162222
0.0162243
0.0162243
0.0162222
0.0176311
0.0176352
0.0176352
0.0176311
0.0186743
0.018677
0.018677
0.0186743
0.0192244
0.0192255
0.0192255
0.0192244
0.0192457
0.0192461
0.0192461
0.0192457
0.0187209
0.0187207
0.0187207
0.0187209
0.0176811
0.0176801
0.0176801
0.0176811
0.01622
0.0162199
0.0162199
0.01622
0.0144863
0.0144856
0.0144856
0.0144863
0.0127996
0.0127985
0.0127985
0.0127996
0.0136049
0.0136048
0.0136048
0.0136049
0.0142623
0.0142619
0.0142619
0.0142623
0.0147205
0.0147227
0.0147227
0.0147205
0.0146448
0.0146487
0.0146487
0.0146448
0.013969
0.0139772
0.0139772
0.013969
0.0119273
0.0119345
0.0119345
0.0119273
0.00823183
0.00823048
0.00823048
0.00823183
0.00131304
0.00128779
0.00128779
0.00131304
-0.00789567
-0.0079141
-0.0079141
-0.00789567
-0.012384
-0.0123562
-0.0123562
-0.012384
-0.0159336
-0.0159286
-0.0159286
-0.0159336
-0.0180544
-0.0180532
-0.0180532
-0.0180544
-0.018322
-0.0183168
-0.0183168
-0.018322
-0.0171236
-0.0171172
-0.0171172
-0.0171236
-0.0158684
-0.0158657
-0.0158657
-0.0158684
-0.0144818
-0.0144786
-0.0144786
-0.0144818
-0.0130779
-0.013073
-0.013073
-0.0130779
-0.0118087
-0.0118036
-0.0118036
-0.0118087
-0.010659
-0.0106534
-0.0106534
-0.010659
-0.0096985
-0.00969306
-0.00969306
-0.0096985
-0.00884343
-0.00883612
-0.00883612
-0.00884343
-0.00827937
-0.00827921
-0.00827921
-0.00827937
-0.00763649
-0.00763063
-0.00763063
-0.00763649
-0.00718782
-0.00718728
-0.00718728
-0.00718782
-0.00672037
-0.00672038
-0.00672038
-0.00672037
-0.00628088
-0.00627946
-0.00627946
-0.00628088
-0.00586064
-0.00586399
-0.00586399
-0.00586064
-0.00523394
-0.00523033
-0.00523033
-0.00523394
-0.00470369
-0.0046994
-0.0046994
-0.00470369
-0.0043833
-0.00438532
-0.00438532
-0.0043833
-0.00408261
-0.00408446
-0.00408446
-0.00408261
-0.00378784
-0.0037876
-0.0037876
-0.00378784
-0.00353797
-0.00354037
-0.00354037
-0.00353797
-0.00325756
-0.003261
-0.003261
-0.00325756
-0.00286398
-0.00286222
-0.00286222
-0.00286398
-0.00249978
-0.00249967
-0.00249967
-0.00249978
-0.00258537
-0.00258337
-0.00258337
-0.00258537
-0.00266471
-0.00266371
-0.00266371
-0.00266471
-0.00270178
-0.00270167
-0.00270167
-0.00270178
-0.00270578
-0.00270623
-0.00270623
-0.00270578
-0.00268938
-0.00269
-0.00269
-0.00268938
-0.00269942
-0.00270005
-0.00270005
-0.00269942
-0.00272145
-0.00272201
-0.00272201
-0.00272145
-0.00273551
-0.00273612
-0.00273612
-0.00273551
-0.00269635
-0.00269653
-0.00269653
-0.00269635
-0.00264622
-0.00264736
-0.00264736
-0.00264622
-0.00253665
-0.00253908
-0.00253908
-0.00253665
0.0109988
0.0109991
0.0109991
0.0109988
0.0115368
0.0115374
0.0115374
0.0115368
0.0118548
0.0118547
0.0118547
0.0118548
0.0119157
0.0119186
0.0119186
0.0119157
0.0115223
0.0115282
0.0115282
0.0115223
0.0105935
0.0106019
0.0106019
0.0105935
0.00875113
0.00875613
0.00875613
0.00875113
0.00569553
0.00568737
0.00568737
0.00569553
0.00110431
0.00108051
0.00108051
0.00110431
-0.00507972
-0.00511432
-0.00511432
-0.00507972
-0.00893172
-0.00892796
-0.00892796
-0.00893172
-0.0117352
-0.0117294
-0.0117294
-0.0117352
-0.0135497
-0.0135434
-0.0135434
-0.0135497
-0.0141692
-0.0141601
-0.0141601
-0.0141692
-0.0137635
-0.0137533
-0.0137533
-0.0137635
-0.0130278
-0.0130205
-0.0130205
-0.0130278
-0.0121674
-0.0121623
-0.0121623
-0.0121674
-0.0112463
-0.0112409
-0.0112409
-0.0112463
-0.0103625
-0.0103571
-0.0103571
-0.0103625
-0.00954126
-0.00953579
-0.00953579
-0.00954126
-0.00882578
-0.00882064
-0.00882064
-0.00882578
-0.00815489
-0.00814927
-0.00814927
-0.00815489
-0.00762121
-0.0076196
-0.0076196
-0.00762121
-0.00708329
-0.00707949
-0.00707949
-0.00708329
-0.00665418
-0.0066542
-0.0066542
-0.00665418
-0.00624423
-0.00624385
-0.00624386
-0.00624423
-0.00586168
-0.00586282
-0.00586282
-0.00586168
-0.00545103
-0.00545336
-0.00545336
-0.00545103
-0.00495817
-0.00495503
-0.00495503
-0.00495817
-0.0045293
-0.00453129
-0.00453129
-0.0045293
-0.00413934
-0.00414103
-0.00414103
-0.00413934
-0.00382613
-0.00382803
-0.00382803
-0.00382613
-0.00354274
-0.0035437
-0.0035437
-0.00354274
-0.00329248
-0.00329619
-0.00329619
-0.00329248
-0.00299152
-0.0029939
-0.0029939
-0.00299152
-0.00264205
-0.00264039
-0.00264039
-0.00264205
-0.00231521
-0.00231452
-0.00231452
-0.00231522
-0.00198125
-0.00198111
-0.00198111
-0.00198125
-0.00215087
-0.00215196
-0.00215196
-0.00215087
-0.00226089
-0.00226329
-0.00226329
-0.0022609
-0.00232899
-0.00233114
-0.00233114
-0.00232899
-0.00234576
-0.00234676
-0.00234676
-0.00234576
-0.00233989
-0.00234063
-0.00234063
-0.00233989
-0.00233028
-0.00233098
-0.00233098
-0.00233028
-0.00233295
-0.00233373
-0.00233373
-0.00233295
-0.00235198
-0.00235293
-0.00235293
-0.00235198
-0.00236641
-0.00236807
-0.00236807
-0.00236641
-0.00234309
-0.00234492
-0.00234492
-0.00234309
-0.00228037
-0.00228129
-0.00228129
-0.00228037
-0.00216324
-0.00216303
-0.00216303
-0.00216325
-0.00199211
-0.00199153
-0.00199153
-0.00199212
-0.00233135
-0.00233268
-0.00233269
-0.00233136
-0.00264324
-0.00264425
-0.00264425
-0.00264324
-0.00294609
-0.00294617
-0.00294617
-0.0029461
-0.00326066
-0.00326318
-0.00326318
-0.00326066
-0.00356303
-0.00356419
-0.00356419
-0.00356303
-0.00389934
-0.00390406
-0.00390406
-0.00389934
-0.00421631
-0.00422148
-0.00422148
-0.00421631
-0.00456437
-0.00456293
-0.00456293
-0.00456437
-0.00504422
-0.00503555
-0.00503555
-0.00504422
-0.00571778
-0.00572816
-0.00572816
-0.00571778
-0.00598633
-0.0059898
-0.0059898
-0.00598633
-0.0062758
-0.00627453
-0.00627453
-0.0062758
-0.00658791
-0.00658578
-0.00658578
-0.00658791
-0.00696469
-0.00696062
-0.00696062
-0.00696469
-0.00744094
-0.0074382
-0.0074382
-0.00744094
-0.00798355
-0.00798
-0.00798
-0.00798355
-0.00861398
-0.00861097
-0.00861097
-0.00861398
-0.00932338
-0.0093195
-0.0093195
-0.00932338
-0.0101341
-0.0101285
-0.0101285
-0.0101341
-0.0110563
-0.0110469
-0.0110469
-0.0110563
-0.0120984
-0.0120868
-0.0120868
-0.0120984
-0.0131986
-0.0131886
-0.0131886
-0.0131986
-0.0140749
-0.0140655
-0.0140655
-0.0140749
-0.0146199
-0.0146088
-0.0146088
-0.0146199
-0.0143829
-0.0143659
-0.0143659
-0.0143829
-0.0135061
-0.0134909
-0.0134909
-0.0135061
-0.0110142
-0.0110387
-0.0110387
-0.0110142
-0.00529049
-0.00529924
-0.00529924
-0.00529049
2.99197e-05
5.47806e-05
5.47803e-05
2.99193e-05
0.00433374
0.00433421
0.00433421
0.00433374
0.00813092
0.00811783
0.00811783
0.00813092
0.0105979
0.0105872
0.0105872
0.0105979
0.0117444
0.0117441
0.0117441
0.0117444
0.0120843
0.01209
0.01209
0.0120843
0.011999
0.0120046
0.0120046
0.011999
0.0115824
0.0115866
0.0115866
0.0115824
0.0110495
0.0110514
0.0110514
0.0110495
0.0104694
0.0104688
0.0104688
0.0104694
0.0120541
0.0120529
0.0120529
0.0120541
0.0135694
0.0135678
0.0135678
0.0135694
0.0149373
0.0149368
0.0149368
0.0149373
0.0160858
0.0160868
0.0160868
0.0160858
0.0169136
0.0169147
0.0169147
0.0169136
0.0173556
0.0173555
0.0173555
0.0173556
0.0173588
0.0173584
0.0173584
0.0173588
0.0169183
0.016917
0.016917
0.0169183
0.0160939
0.0160908
0.0160908
0.0160939
0.0149236
0.0149207
0.0149207
0.0149236
0.0135212
0.0135188
0.0135188
0.0135212
0.0119809
0.0119796
0.0119796
0.0119809
0.0104306
0.0104294
0.0104294
0.0104306
-0.00166979
-0.00167152
-0.00167152
-0.00166979
-0.00182103
-0.00182323
-0.00182323
-0.00182103
-0.00190971
-0.00191093
-0.00191093
-0.0019097
-0.00195491
-0.00195541
-0.00195541
-0.00195491
-0.00197827
-0.00197928
-0.00197928
-0.00197827
-0.00196906
-0.00196973
-0.00196973
-0.00196906
-0.00195745
-0.001958
-0.001958
-0.00195744
-0.00195736
-0.0019579
-0.0019579
-0.00195736
-0.00197002
-0.00197054
-0.00197054
-0.00197002
-0.00197902
-0.00197965
-0.00197965
-0.00197903
-0.00195911
-0.0019594
-0.0019594
-0.00195911
-0.00189919
-0.001899
-0.001899
-0.00189919
-0.00180377
-0.0018034
-0.0018034
-0.00180377
-0.00166333
-0.00166316
-0.00166316
-0.00166333
-0.00146532
-0.00146448
-0.00146448
-0.00146532
-0.00175634
-0.00175569
-0.00175569
-0.00175634
-0.002044
-0.00204414
-0.00204414
-0.002044
-0.00232341
-0.00232369
-0.00232369
-0.00232342
-0.00259947
-0.00260063
-0.00260063
-0.00259947
-0.00286477
-0.00286742
-0.00286742
-0.00286478
-0.00313181
-0.00313647
-0.00313647
-0.00313181
-0.00341024
-0.0034153
-0.0034153
-0.00341024
-0.00371349
-0.00371408
-0.00371408
-0.00371349
-0.00407152
-0.0040662
-0.0040662
-0.00407152
-0.0044959
-0.00449019
-0.00449019
-0.0044959
-0.00491952
-0.00492386
-0.00492386
-0.00491952
-0.0051998
-0.00520183
-0.00520183
-0.0051998
-0.00548321
-0.00548376
-0.00548376
-0.00548322
-0.00577229
-0.00577157
-0.00577157
-0.00577229
-0.00611502
-0.00611319
-0.00611319
-0.00611502
-0.00650981
-0.00650756
-0.00650756
-0.00650981
-0.00695853
-0.00695582
-0.00695582
-0.00695853
-0.00746274
-0.00746076
-0.00746076
-0.00746274
-0.00801557
-0.00801407
-0.00801407
-0.00801557
-0.00861474
-0.00861335
-0.00861335
-0.00861474
-0.00924793
-0.00924517
-0.00924517
-0.00924793
-0.00989623
-0.00989185
-0.00989185
-0.00989623
-0.0104949
-0.0104888
-0.0104888
-0.0104949
-0.0109066
-0.0108961
-0.0108961
-0.0109066
-0.0110269
-0.0110087
-0.0110087
-0.0110269
-0.0106694
-0.010646
-0.010646
-0.0106694
-0.00967615
-0.00966382
-0.00966382
-0.00967615
-0.00727362
-0.0072986
-0.0072986
-0.00727362
-0.00341291
-0.00343447
-0.00343447
-0.00341291
0.000314556
0.000315262
0.000315262
0.000314556
0.00345238
0.00344991
0.00344991
0.00345238
0.00611572
0.00610702
0.00610702
0.00611572
0.00798001
0.00797451
0.00797451
0.00798001
0.0090868
0.0090863
0.0090863
0.0090868
0.00960827
0.0096132
0.0096132
0.00960827
0.00971849
0.00972467
0.00972467
0.00971849
0.00955446
0.00955964
0.00955964
0.00955446
0.00923728
0.00924027
0.00924027
0.00923728
0.00884556
0.00884587
0.00884587
0.00884556
0.008461
0.00845863
0.00845863
0.008461
0.00993801
0.00993545
0.00993545
0.00993801
0.0113656
0.0113629
0.0113629
0.0113656
0.0126966
0.012694
0.012694
0.0126966
0.0138664
0.0138641
0.0138641
0.0138664
0.0148155
0.014815
0.014815
0.0148155
0.0154946
0.0154955
0.0154955
0.0154946
0.0158527
0.0158531
0.0158531
0.0158527
0.015847
0.0158466
0.0158466
0.015847
0.0154851
0.0154836
0.0154836
0.0154851
0.014801
0.0147974
0.0147974
0.014801
0.0138428
0.0138382
0.0138382
0.0138428
0.0126541
0.0126497
0.0126497
0.0126541
0.0112999
0.0112969
0.0112969
0.0112999
0.00988252
0.00987957
0.00987957
0.00988252
0.00842786
0.00842548
0.00842548
0.00842786
0.00881515
0.00881489
0.00881489
0.00881515
0.00919367
0.00919491
0.00919491
0.00919367
0.00949571
0.00949745
0.00949745
0.00949571
0.00961546
0.00961786
0.00961786
0.00961546
0.00947349
0.0094771
0.0094771
0.00947349
0.00899374
0.00899872
0.00899872
0.00899374
0.00801256
0.00801472
0.00801472
0.00801256
0.00643043
0.00643177
0.00643177
0.00643043
0.00397911
0.0039661
0.0039661
0.00397911
0.00074719
0.000730124
0.000730124
0.00074719
-0.00331624
-0.00334239
-0.00334239
-0.00331624
-0.00636464
-0.00636975
-0.00636975
-0.00636464
-0.00856321
-0.00855544
-0.00855544
-0.00856321
-0.00997261
-0.00996307
-0.00996307
-0.00997261
-0.0106811
-0.0106721
-0.0106721
-0.0106811
-0.010768
-0.0107566
-0.0107566
-0.010768
-0.0104346
-0.010425
-0.010425
-0.0104346
-0.00993262
-0.0099274
-0.0099274
-0.00993262
-0.00935584
-0.00935222
-0.00935222
-0.00935584
-0.00875058
-0.00874708
-0.00874708
-0.00875058
-0.00814461
-0.00814039
-0.00814039
-0.00814461
-0.00757685
-0.00757363
-0.00757363
-0.00757685
-0.00704516
-0.00704178
-0.00704178
-0.00704516
-0.00658044
-0.00657978
-0.00657978
-0.00658044
-0.00615766
-0.0061565
-0.0061565
-0.00615766
-0.00579093
-0.00578974
-0.00578974
-0.00579093
-0.00543716
-0.00543631
-0.00543631
-0.00543716
-0.00508522
-0.0050859
-0.0050859
-0.00508522
-0.00472422
-0.00472464
-0.00472464
-0.00472422
-0.00435549
-0.00435583
-0.00435583
-0.00435549
-0.00398771
-0.00398678
-0.00398678
-0.00398771
-0.00366202
-0.00366151
-0.00366151
-0.00366202
-0.00338343
-0.00338431
-0.00338431
-0.00338343
-0.00313082
-0.00313214
-0.00313214
-0.00313081
-0.00287398
-0.00287566
-0.00287566
-0.00287397
-0.00261182
-0.00261391
-0.00261391
-0.00261182
-0.00232468
-0.00232381
-0.00232381
-0.00232468
-0.00204297
-0.00204219
-0.00204219
-0.00204297
-0.00175081
-0.00175009
-0.00175009
-0.00175081
-0.00146076
-0.00146084
-0.00146084
-0.00146076
0.00693332
0.00693162
0.00693162
0.00693332
0.00718622
0.00718597
0.00718597
0.00718622
0.00742355
0.0074247
0.0074247
0.00742355
0.00755873
0.0075604
0.0075604
0.00755873
0.00756059
0.00756411
0.00756411
0.00756059
0.00734596
0.0073479
0.0073479
0.00734596
0.00686079
0.0068637
0.0068637
0.00686079
0.00594124
0.00594008
0.00594008
0.00594124
0.0046309
0.00463187
0.00463187
0.0046309
0.002743
0.00273323
0.00273323
0.002743
0.00051871
0.000510742
0.000510742
0.00051871
-0.00206584
-0.00208064
-0.00208064
-0.00206584
-0.00433608
-0.00434229
-0.00434229
-0.00433608
-0.0060215
-0.00601918
-0.00601918
-0.0060215
-0.00720237
-0.00719524
-0.00719524
-0.00720237
-0.0078892
-0.00788126
-0.00788126
-0.0078892
-0.00813036
-0.00812111
-0.00812111
-0.00813036
-0.00803537
-0.00802646
-0.00802646
-0.00803537
-0.0077601
-0.00775399
-0.00775399
-0.0077601
-0.00739217
-0.00738824
-0.00738824
-0.00739217
-0.00697904
-0.00697599
-0.00697599
-0.00697904
-0.0065501
-0.00654696
-0.00654696
-0.0065501
-0.00613493
-0.00613242
-0.00613242
-0.00613493
-0.0057447
-0.00574264
-0.00574264
-0.0057447
-0.00538769
-0.00538673
-0.00538673
-0.00538769
-0.00506188
-0.00506167
-0.00506167
-0.00506188
-0.00475506
-0.00475458
-0.00475458
-0.00475506
-0.00447686
-0.00447677
-0.00447677
-0.00447686
-0.00419768
-0.00419713
-0.00419713
-0.00419768
-0.0039185
-0.003918
-0.003918
-0.0039185
-0.00362581
-0.00362477
-0.00362477
-0.00362581
-0.00333306
-0.00333202
-0.00333202
-0.00333306
-0.00306146
-0.00306174
-0.00306174
-0.00306146
-0.00282308
-0.00282495
-0.00282495
-0.00282308
-0.00260518
-0.00260719
-0.00260719
-0.00260518
-0.00238775
-0.00238935
-0.00238935
-0.00238775
-0.00216873
-0.00217035
-0.00217035
-0.00216873
-0.0019372
-0.00193731
-0.00193731
-0.0019372
-0.00170065
-0.00169977
-0.00169977
-0.00170066
-0.00146201
-0.00146093
-0.00146093
-0.00146201
-0.00121934
-0.00121828
-0.00121828
-0.00121934
-0.000983371
-0.000983189
-0.000983188
-0.000983368
-0.00117655
-0.00117637
-0.00117637
-0.00117655
-0.00133956
-0.00133911
-0.00133911
-0.00133956
-0.0014559
-0.00145496
-0.00145496
-0.0014559
-0.00153573
-0.00153538
-0.00153538
-0.00153573
-0.00158039
-0.00158063
-0.00158062
-0.00158039
-0.001594
-0.00159428
-0.00159428
-0.001594
-0.0015866
-0.0015868
-0.0015868
-0.0015866
-0.0015776
-0.00157773
-0.00157773
-0.0015776
-0.00157821
-0.00157836
-0.00157836
-0.00157821
-0.00158858
-0.00158886
-0.00158886
-0.00158858
-0.00159665
-0.00159703
-0.00159703
-0.00159665
-0.00158787
-0.00158871
-0.00158871
-0.00158787
-0.00153863
-0.0015393
-0.0015393
-0.00153863
-0.00145546
-0.00145575
-0.00145574
-0.00145546
-0.00133802
-0.00133795
-0.00133795
-0.00133802
-0.00117902
-0.00117849
-0.00117848
-0.00117901
-0.000984889
-0.000983731
-0.000983728
-0.000984885
-0.00122468
-0.00122338
-0.00122338
-0.00122468
-0.00146738
-0.00146663
-0.00146663
-0.00146737
-0.0017039
-0.00170386
-0.00170386
-0.0017039
-0.00193486
-0.0019351
-0.0019351
-0.00193486
-0.00216441
-0.00216597
-0.00216597
-0.00216441
-0.00238864
-0.00239186
-0.00239186
-0.00238864
-0.00261002
-0.0026152
-0.0026152
-0.00261002
-0.00283427
-0.00283852
-0.00283851
-0.00283427
-0.0030982
-0.00309666
-0.00309666
-0.0030982
-0.0034034
-0.00339752
-0.00339752
-0.0034034
-0.00372541
-0.0037218
-0.0037218
-0.00372541
-0.00400832
-0.00400865
-0.00400865
-0.00400832
-0.00424328
-0.00424455
-0.00424455
-0.00424328
-0.00447727
-0.00447921
-0.00447921
-0.00447727
-0.00473066
-0.00473084
-0.00473084
-0.00473066
-0.0050124
-0.00501172
-0.00501172
-0.0050124
-0.00532235
-0.00532082
-0.00532082
-0.00532235
-0.00566885
-0.00566678
-0.00566678
-0.00566885
-0.00605147
-0.00604884
-0.00604884
-0.00605147
-0.00646895
-0.00646549
-0.00646549
-0.00646895
-0.00691314
-0.00690904
-0.00690904
-0.00691314
-0.00736349
-0.00735937
-0.00735937
-0.00736349
-0.00778063
-0.00777727
-0.00777727
-0.00778063
-0.0081029
-0.00809875
-0.00809875
-0.0081029
-0.00826135
-0.00825254
-0.00825254
-0.00826135
-0.00818262
-0.00816679
-0.00816679
-0.00818262
-0.00774925
-0.00773266
-0.00773266
-0.00774925
-0.00673737
-0.00673738
-0.00673738
-0.00673737
-0.00488789
-0.00490245
-0.00490245
-0.00488789
-0.00232804
-0.00234176
-0.00234176
-0.00232804
0.0001961
0.000187678
0.000187678
0.0001961
0.00249668
0.00249246
0.00249246
0.00249668
0.00444308
0.00443461
0.00443461
0.00444308
0.00595633
0.00595216
0.00595216
0.00595633
0.00690972
0.00690924
0.00690924
0.00690972
0.00743174
0.00743555
0.00743555
0.00743174
0.00762433
0.00762938
0.00762938
0.00762433
0.00759887
0.00760383
0.00760383
0.00759887
0.00743768
0.00744112
0.00744112
0.00743768
0.00720646
0.00720707
0.00720707
0.00720646
0.00695561
0.00695352
0.00695352
0.00695561
0.00669759
0.0066943
0.0066943
0.00669759
0.00810409
0.00809994
0.00809994
0.00810409
0.00947168
0.00946692
0.00946692
0.00947168
0.0107681
0.0107631
0.0107631
0.0107681
0.011948
0.0119436
0.0119436
0.011948
0.0129693
0.0129658
0.0129658
0.0129693
0.0137817
0.0137799
0.0137799
0.0137817
0.0143528
0.014352
0.014352
0.0143528
0.0146498
0.014649
0.014649
0.0146498
0.0146475
0.0146462
0.0146462
0.0146475
0.0143459
0.0143437
0.0143437
0.0143459
0.0137678
0.0137636
0.0137636
0.0137678
0.0129477
0.0129415
0.0129415
0.0129477
0.0119188
0.0119125
0.0119125
0.0119188
0.0107228
0.0107179
0.0107179
0.0107228
0.00942818
0.00942386
0.00942386
0.00942818
0.00806492
0.00806086
0.00806086
0.00806492
0.00667082
0.00666751
0.00666751
0.00667082
-0.00077386
-0.000772739
-0.000772737
-0.000773858
-0.000959478
-0.000958342
-0.00095834
-0.000959474
-0.00114278
-0.00114239
-0.00114239
-0.00114278
-0.00132349
-0.00132332
-0.00132332
-0.00132349
-0.00150427
-0.00150439
-0.0015044
-0.00150428
-0.00168319
-0.00168416
-0.00168416
-0.0016832
-0.00186024
-0.00186249
-0.00186249
-0.00186025
-0.00203698
-0.00203998
-0.00203998
-0.00203698
-0.00222041
-0.00222222
-0.00222222
-0.00222041
-0.00242205
-0.00242102
-0.00242102
-0.00242205
-0.00264266
-0.00264
-0.00264
-0.00264266
-0.00286737
-0.00286596
-0.00286596
-0.00286737
-0.00307052
-0.00307077
-0.00307077
-0.00307052
-0.00326398
-0.0032643
-0.0032643
-0.00326398
-0.00345651
-0.0034572
-0.0034572
-0.00345651
-0.00365364
-0.00365362
-0.00365362
-0.00365364
-0.00386766
-0.00386739
-0.00386739
-0.00386766
-0.00409854
-0.00409778
-0.00409778
-0.00409854
-0.00435135
-0.00435029
-0.00435029
-0.00435135
-0.00462457
-0.0046227
-0.0046227
-0.00462457
-0.00491791
-0.00491481
-0.00491481
-0.00491791
-0.00522348
-0.00521914
-0.00521914
-0.00522348
-0.00552399
-0.00551917
-0.00551917
-0.00552399
-0.00578478
-0.00578015
-0.00578015
-0.00578478
-0.00595916
-0.00595348
-0.00595348
-0.00595916
-0.00600266
-0.00599299
-0.00599299
-0.00600266
-0.00585815
-0.00584523
-0.00584523
-0.00585815
-0.00542355
-0.00541537
-0.00541537
-0.00542355
-0.0045504
-0.00455524
-0.00455524
-0.0045504
-0.00319837
-0.00320889
-0.00320889
-0.00319837
-0.00154016
-0.00154741
-0.00154741
-0.00154016
0.000147732
0.000143292
0.000143292
0.000147732
0.00174361
0.00174179
0.00174179
0.00174361
0.00314654
0.00314235
0.00314235
0.00314654
0.0042741
0.00427216
0.00427216
0.0042741
0.00503728
0.00503758
0.00503758
0.00503728
0.00550211