/*--------------------------------*- C++ -*----------------------------------*\
| =========                 |                                                 |
| \\      /  F ield         | OpenFOAM: The Open Source CFD Toolbox           |
|  \\    /   O peration     | Version:  v1806                                 |
|   \\  /    A nd           | Web:      www.OpenFOAM.com                      |
|    \\/     M anipulation  |                                                 |
\*---------------------------------------------------------------------------*/
FoamFile
{
    version     2.0;
    format      ascii;
    class       surfaceScalarField;
    location    "100";
    object      phi;
}
// * * * * * * * * * * * * * * * * * * * * * * * * * * * * * * * * * * * * * //

dimensions      [0 3 -1 0 0 0 0];
oriented        oriented;


internalField   nonuniform List<scalar> 
4680
(
0.0749985
-0.000679007
0.0749939
-0.00206569
0.074984
-0.00345184
0.07497
-0.00490819
0.0749481
-0.00638008
0.0749216
-0.00796679
0.0748844
-0.00957342
0.0748435
-0.0113363
0.0747891
-0.0131109
0.0747339
-0.0150717
0.0746639
-0.0170186
0.0745993
-0.0191479
0.0745233
-0.0212254
0.0744619
-0.0234231
0.074401
-0.0255189
0.0743657
-0.0275949
0.0743525
-0.0295111
0.0743746
-0.0312293
0.0744383
-0.0327063
-0.0338563
0.0745424
0.074996
-0.000675045
0.0749859
-0.00205553
0.0749662
-0.0034322
0.0749409
-0.00488284
0.0749032
-0.00634241
0.0748614
-0.00792498
0.0748033
-0.00951528
0.0747453
-0.0112784
0.0746665
-0.013032
0.074597
-0.0150022
0.0745033
-0.0169249
0.0744342
-0.0190788
0.0743437
-0.021135
0.074297
-0.0233763
0.0742453
-0.0254673
0.0742519
-0.0276015
0.0742868
-0.0295459
0.0743793
-0.0313218
0.0745285
-0.0328555
-0.0340493
0.0747214
0.0749935
-0.000668568
0.074977
-0.00203897
0.0749457
-0.00340092
0.0749061
-0.00484323
0.0748486
-0.00628496
0.0747866
-0.00786293
0.0747018
-0.00943054
0.0746209
-0.0111974
0.0745112
-0.0129224
0.0744215
-0.0149125
0.074298
-0.0168013
0.0742207
-0.0190016
0.074111
-0.0210252
0.0740798
-0.0233451
0.074034
-0.0254215
0.074089
-0.0276565
0.0741715
-0.0296284
0.0743433
-0.0314936
0.0745835
-0.0330958
-0.0343384
0.0748727
0.0749911
-0.000659659
0.0749679
-0.00201579
0.0749248
-0.00335783
0.07487
-0.00478843
0.0747919
-0.00620688
0.0747078
-0.00777876
0.0745948
-0.00931756
0.074488
-0.0110906
0.074345
-0.0127794
0.0742319
-0.0147995
0.0740746
-0.016644
0.0739867
-0.0189137
0.0738512
-0.0208897
0.0738359
-0.0233298
0.0737865
-0.0253721
0.0738951
-0.0277652
0.0740159
-0.0297491
0.0742755
-0.0317532
0.0746074
-0.0334277
-0.0347302
0.0749992
0.0749887
-0.000648388
0.0749587
-0.00198578
0.0749039
-0.00330297
0.0748334
-0.00471796
0.0747345
-0.00610796
0.074627
-0.00767132
0.074485
-0.00917558
0.0743504
-0.0109559
0.0741721
-0.0126011
0.0740327
-0.0146601
0.0738376
-0.0164488
0.0737362
-0.0188123
0.0735669
-0.0207204
0.0735674
-0.0233303
0.073501
-0.0253057
0.0736703
-0.0279344
0.073814
-0.0298929
0.0741759
-0.0321151
0.0745966
-0.0338484
-0.0352356
0.075102
0.0749864
-0.000634821
0.0749494
-0.00194873
0.0748828
-0.00323642
0.0747961
-0.00463127
0.0746763
-0.00598813
0.0745444
-0.0075394
0.0743729
-0.00900405
0.074208
-0.010791
0.0739928
-0.0123859
0.0738233
-0.0144906
0.0735862
-0.0162118
0.0734669
-0.0186931
0.0732553
-0.0205088
0.07327
-0.0233451
0.0731709
-0.0252065
0.0734093
-0.0281728
0.0735547
-0.0300383
0.0740421
-0.0326025
0.074542
-0.0343483
-0.0358756
0.075182
0.0749842
-0.000619029
0.0749399
-0.00190438
0.0748617
-0.00315824
0.0747582
-0.00452776
0.0746174
-0.00584737
0.0744596
-0.00738158
0.074258
-0.00880251
0.07406
-0.0105929
0.0738064
-0.0121323
0.0736018
-0.014286
0.073319
-0.015929
0.0731752
-0.0185492
0.0729126
-0.0202463
0.0729374
-0.0233698
0.0727886
-0.0250578
0.0731044
-0.0284886
0.0732249
-0.0301588
0.0738704
-0.0332479
0.0744287
-0.0349067
-0.0366892
0.0752424
0.074982
-0.000601068
0.0749301
-0.00185247
0.0748404
-0.00306853
0.0747194
-0.00440675
0.0745577
-0.00568566
0.0743723
-0.00719621
0.0741405
-0.00857066
0.0739057
-0.0103581
0.0736125
-0.0118392
0.0733661
-0.0140396
0.0730348
-0.0155976
0.0728564
-0.0183709
0.0725359
-0.0199257
0.0725617
-0.0233957
0.072347
-0.024843
0.0727455
-0.0288871
0.0728113
-0.0302246
0.0736538
-0.0340905
0.0742388
-0.0354917
-0.0377418
0.0752914
0.0749799
-0.000580968
0.0749202
-0.00179282
0.074819
-0.00296732
0.0746799
-0.00426764
0.0744972
-0.00550298
0.0742826
-0.00698157
0.0740202
-0.00830827
0.0737445
-0.0100824
0.0734112
-0.0115059
0.0731144
-0.0137428
0.0727331
-0.0152163
0.0725061
-0.0181439
0.0721231
-0.0195427
0.0721345
-0.0234071
0.0718395
-0.024548
0.0723202
-0.0293678
0.0722996
-0.030204
0.0733809
-0.0351718
0.0739541
-0.0360649
-0.039127
0.0753392
0.0749777
-0.000558712
0.0749102
-0.00172532
0.0747975
-0.0028546
0.0746399
-0.00410998
0.0744361
-0.0052992
0.0741906
-0.00673611
0.0738974
-0.00801502
0.0735765
-0.00976151
0.0732027
-0.0111321
0.0728454
-0.0133856
0.0724141
-0.0147849
0.0721192
-0.017849
0.0716739
-0.0190975
0.0716449
-0.023378
0.0712619
-0.024165
0.0718141
-0.0299201
0.0716734
-0.0300632
0.0730365
-0.0365349
0.0735582
-0.0365866
-0.0409551
0.0753863
0.0749755
-0.000534235
0.0749002
-0.00165002
0.0747759
-0.00273025
0.0745995
-0.00393361
0.0743743
-0.00507399
0.074097
-0.00645882
0.0737722
-0.00769022
0.0734025
-0.00939177
0.0729873
-0.010717
0.0725591
-0.0129573
0.0720784
-0.0143043
0.0716913
-0.0174619
0.0711895
-0.0185957
0.0710794
-0.0232679
0.0706142
-0.0236998
0.0712077
-0.0305135
0.0709146
-0.0297702
0.0726082
-0.0382285
0.0730276
-0.037006
-0.0433401
0.0754126
0.0749732
-0.000507428
0.0748903
-0.00156711
0.0747541
-0.00259406
0.0745592
-0.00373876
0.074312
-0.00482677
0.0740027
-0.00614946
0.0736449
-0.00733249
0.0732242
-0.00897103
0.0727654
-0.0102582
0.0722577
-0.0124496
0.0717265
-0.013773
0.0712201
-0.0169555
0.0706708
-0.0180464
0.070421
-0.0230182
0.0699021
-0.0231809
0.0704672
-0.0310787
0.0700153
-0.0293183
0.0720897
-0.0403028
0.0723048
-0.0372211
-0.0464313
0.075396
0.0749708
-0.000478181
0.0748806
-0.00147692
0.0747323
-0.0024458
0.0745195
-0.003526
0.0742495
-0.00455674
0.0739088
-0.00580871
0.0735159
-0.00693963
0.0730442
-0.00849928
0.0725372
-0.00975125
0.071946
-0.0118584
0.0713582
-0.0131852
0.0707113
-0.0163086
0.0701161
-0.0174512
0.0696526
-0.0225547
0.069131
-0.0226593
0.0695359
-0.0314835
0.0689967
-0.0287791
0.071455
-0.0427611
0.0712795
-0.0370456
-0.0505387
0.075387
0.0749683
-0.000446438
0.0748712
-0.00137984
0.0747107
-0.00228535
0.0744809
-0.00329614
0.0741874
-0.00426324
0.0738165
-0.00543788
0.073386
-0.00650912
0.0728652
-0.00797842
0.0723029
-0.00918901
0.0716302
-0.0111857
0.0709711
-0.0125261
0.0701785
-0.015516
0.0695221
-0.0167949
0.0687788
-0.0218113
0.0682927
-0.0221732
0.0683393
-0.0315302
0.0679105
-0.0283503
0.0705828
-0.0454334
0.0698556
-0.0363185
-0.056324
0.0756409
0.0749658
-0.000412249
0.0748622
-0.0012762
0.0746897
-0.0021129
0.0744436
-0.00304997
0.0741264
-0.00394612
0.073727
-0.00503841
0.073257
-0.00603911
0.0726897
-0.00741116
0.072065
-0.00856429
0.0713162
-0.0104369
0.0705644
-0.0117743
0.0696366
-0.0145882
0.0688728
-0.016031
0.0678483
-0.0207869
0.0673636
-0.0216885
0.0667908
-0.0309574
0.0667799
-0.0283394
0.0691809
-0.0478344
0.0681554
-0.035293
-0.0647811
0.0766126
0.0749636
-0.000375805
0.0748536
-0.00116626
0.0746697
-0.00192901
0.0744079
-0.00278815
0.0740679
-0.00360611
0.0736409
-0.00461142
0.0731313
-0.00552953
0.0725196
-0.00679945
0.0718282
-0.00787281
0.0710083
-0.00961704
0.0701441
-0.0109101
0.0690973
-0.0135414
0.0681588
-0.0150926
0.0668999
-0.0195279
0.0662689
-0.0210575
0.0650381
-0.0297265
0.0655073
-0.0288086
0.0668688
-0.0491959
0.066671
-0.0350952
-0.0765232
0.078413
0.0749616
-0.000337415
0.0748456
-0.0010502
0.0746512
-0.00173469
0.0743743
-0.0025112
0.0740131
-0.00324496
0.0735592
-0.00415752
0.0730123
-0.00498262
0.0723565
-0.00614365
0.0715994
-0.00711576
0.0707087
-0.0087263
0.0697243
-0.00992577
0.0685641
-0.0123812
0.0673981
-0.0139266
0.0659502
-0.01808
0.0649453
-0.0200526
0.0632673
-0.0280485
0.0638496
-0.0293909
0.0632752
-0.0486215
0.0658622
-0.0376822
-0.090365
0.079704
0.07496
-0.000297452
0.0748381
-0.000928226
0.0746346
-0.00153119
0.0743431
-0.00221969
0.0739632
-0.0028651
0.0734829
-0.00367727
0.0729028
-0.00440248
0.0722024
-0.00544319
0.0713861
-0.00629954
0.0704202
-0.00776034
0.0693232
-0.00882875
0.0680366
-0.0110946
0.0666338
-0.0125239
0.064986
-0.0164322
0.0634487
-0.0185153
0.0614701
-0.0260699
0.0612213
-0.0291421
0.0591042
-0.0465044
0.0652577
-0.0438357
-0.102181
0.0770734
0.0749588
-0.000256283
0.0748313
-0.00080068
0.07462
-0.00131991
0.0743149
-0.00191456
0.0739191
-0.00246929
0.0734136
-0.00317184
0.0728052
-0.00379409
0.0720605
-0.00469849
0.0711942
-0.00543324
0.0701489
-0.00671496
0.0689567
-0.00763656
0.0675219
-0.00965981
0.065915
-0.010917
0.0639908
-0.014508
0.0619292
-0.0164538
0.0595135
-0.0236542
0.0577324
-0.027361
0.0550674
-0.0438394
0.0627594
-0.0515277
-0.105525
0.066104
0.0749578
-0.000214132
0.0748254
-0.000668256
0.0746076
-0.00110204
0.0742904
-0.00159742
0.0738811
-0.00205994
0.0733532
-0.00264395
0.0727208
-0.0031617
0.0719356
-0.00391331
0.0710268
-0.00452443
0.0699054
-0.00559356
0.0686332
-0.00636432
0.0670437
-0.00807034
0.0652694
-0.00914264
0.0630011
-0.0122397
0.0605212
-0.0139738
0.0573131
-0.0204461
0.0539806
-0.0240285
0.0498944
-0.0397532
0.0513139
-0.0529472
0.042988
-0.0971993
0.0747065
-0.0385926
0.0749103
-0.0391679
0.075136
-0.039341
0.0753693
-0.0392154
0.0756002
-0.0389336
0.0758165
-0.0385758
0.0760147
-0.0382074
0.0761942
-0.0378812
0.0763483
-0.037646
-0.0374998
0.0764772
0.0749883
-0.0388595
0.0752796
-0.0394593
0.075566
-0.0396273
0.075835
-0.0394845
0.0760807
-0.0391793
0.0762933
-0.0387884
0.0764756
-0.0383897
0.0766291
-0.0380347
0.076753
-0.03777
-0.0375979
0.0768511
0.0752518
-0.0392386
0.0756366
-0.0398441
0.0759875
-0.0399783
0.0762954
-0.0397923
0.0765568
-0.0394408
0.0767662
-0.0389978
0.0769329
-0.0385564
0.0770615
-0.0381632
0.077158
-0.0378665
-0.0376672
0.0772273
0.0755017
-0.0397412
0.0759854
-0.0403277
0.0764037
-0.0403966
0.0767517
-0.0401403
0.0770278
-0.0397169
0.0772331
-0.039203
0.0773838
-0.0387072
0.0774892
-0.0382686
0.077561
-0.0379382
-0.0377066
0.0776003
0.0757433
-0.0403824
0.0763314
-0.0409159
0.0768198
-0.040885
0.0772081
-0.0405286
0.0774973
-0.0400061
0.0776979
-0.0394036
0.0778341
-0.0388434
0.0779191
-0.0383536
0.0779646
-0.0379837
-0.0377025
0.0779605
0.0759817
-0.0411822
0.0766799
-0.0416141
0.0772406
-0.0414456
0.0776691
-0.0409571
0.0779711
-0.0403082
0.0781696
-0.0396021
0.0782941
-0.0389679
0.0783565
-0.038416
0.0783574
-0.0379847
-0.0376116
0.0782666
0.0762227
-0.0421625
0.0770349
-0.0424262
0.0776714
-0.0420821
0.0781425
-0.0414283
0.0784621
-0.0406277
0.0786634
-0.0398034
0.0787729
-0.0390774
0.0787884
-0.0384314
0.0786863
-0.0378825
-0.0373352
0.0784098
0.0764702
-0.0433412
0.0773997
-0.0433558
0.0781221
-0.0428044
0.078647
-0.0419532
0.0789939
-0.0409747
0.079195
-0.0400045
0.0792563
-0.0391387
0.0791462
-0.0383213
0.0788098
-0.0375461
-0.0366938
0.0781684
0.0767228
-0.0447248
0.0777827
-0.0444157
0.0786184
-0.04364
0.0792185
-0.0425533
0.0795927
-0.0413489
0.0797485
-0.0401603
0.0796542
-0.0390444
0.0792433
-0.0379104
0.0784417
-0.0367445
-0.0354223
0.0771701
0.0769726
-0.0463111
0.0782138
-0.0456569
0.0792163
-0.0446425
0.0799016
-0.0432386
0.0802427
-0.04169
0.0802034
-0.040121
0.0797166
-0.0385576
0.0787039
-0.0368977
0.0771108
-0.0351514
-0.0332083
0.0748968
0.077208
-0.0481065
0.0787748
-0.0472237
0.0799943
-0.0458619
0.0806858
-0.0439302
0.0807809
-0.0417851
0.0802191
-0.0395592
0.0789435
-0.0372819
0.0769246
-0.0348789
0.0741855
-0.0324123
-0.0297926
0.0707699
0.0775281
-0.0502386
0.0796082
-0.0493039
0.080963
-0.0472167
0.0813517
-0.0443189
0.0807373
-0.0411707
0.079123
-0.0379449
0.0765558
-0.0347147
0.073135
-0.0314581
0.0690108
-0.0282881
-0.0251213
0.0643395
0.0781815
-0.0530331
0.0808011
-0.0519235
0.081834
-0.0482496
0.0812447
-0.0437297
0.0791977
-0.0391237
0.0759048
-0.034652
0.0716181
-0.030428
0.0666159
-0.0264559
0.061176
-0.0228482
-0.0194906
0.0555453
0.0793961
-0.0567883
0.0820562
-0.0545836
0.0816904
-0.0478838
0.0791159
-0.0411553
0.0748502
-0.0348579
0.0694443
-0.0292461
0.0633821
-0.0243658
0.0570772
-0.020151
0.0508475
-0.0166184
-0.0135777
0.0449346
0.0809039
-0.0610796
0.0821455
-0.0558252
0.0788038
-0.044542
0.0732699
-0.0356214
0.0663868
-0.0279748
0.0590456
-0.0219049
0.0518152
-0.0171355
0.0450635
-0.0133993
0.0389725
-0.0105274
-0.0082495
0.0336443
0.0811956
-0.0638622
0.0786912
-0.0533208
0.0709796
-0.0368305
0.0622555
-0.0268973
0.053321
-0.0190403
0.045163
-0.0137469
0.0380583
-0.0100307
0.0320673
-0.00740838
0.0270884
-0.00554847
-0.00419217
0.023031
0.0772754
-0.0614336
0.0688386
-0.044884
0.0566922
-0.024684
0.0461087
-0.0163138
0.0369457
-0.0098773
0.0298276
-0.00662871
0.0242941
-0.00449725
0.0200253
-0.00313961
0.0167031
-0.00222622
-0.00163251
0.0141434
0.0656049
-0.0499651
0.0508575
-0.0301366
0.0368902
-0.0107167
0.0273425
-0.00676616
0.020533
-0.00306785
0.0159902
-0.00208593
0.0127573
-0.00126433
0.0104326
-0.000814941
0.00871739
-0.000510963
-0.000366925
0.0074518
0.0441777
-0.0280387
0.0264218
-0.0123807
0.0163468
-0.00064169
0.0108072
-0.00122658
0.00778917
-4.98185e-05
0.0059227
-0.000219465
0.00470467
-4.62968e-05
0.00389629
-6.55614e-06
0.00335071
3.46174e-05
2.67618e-05
0.00295702
0.0149492
0.00256847
0.00192678
0.000700207
0.000650389
0.000430923
0.000384627
0.00037807
0.000412688
0.00043945
0.0766027
-0.0430922
0.0766787
-0.0432916
0.0766933
-0.043651
0.0766453
-0.0442653
0.0764114
-0.0453678
0.0758075
-0.0467566
0.0747137
-0.0484803
0.0727549
-0.051428
0.0689232
-0.0551003
0.0619144
-0.0570586
0.0513581
-0.0564657
0.0388856
-0.0547681
0.0272675
-0.0524823
0.0183736
-0.0486342
0.0124094
-0.0428006
0.00868049
-0.035755
0.00641396
-0.0284622
0.00507385
-0.0213995
0.00433827
-0.0147797
-0.00905398
0.0769366
-0.0431776
0.0769639
-0.0433188
0.0769115
-0.0435987
0.0767392
-0.044093
0.076269
-0.0448976
0.0752818
-0.0457694
0.0736074
-0.0468058
0.0707417
-0.0485623
0.0657072
-0.0500658
0.0578247
-0.0491761
0.0475626
-0.0462036
0.0365574
-0.0437629
0.0266564
-0.0425813
0.018886
-0.0408638
0.0133459
-0.0372606
0.00963806
-0.0320472
0.0072572
-0.0260813
0.00579582
-0.0199382
0.00498046
-0.0139643
-0.00871894
0.0772715
-0.0432219
0.0772413
-0.0432887
0.0770952
-0.0434526
0.0767386
-0.0437364
0.0759453
-0.0441042
0.0744842
-0.0443083
0.0721386
-0.0444603
0.0683529
-0.0447766
0.0623451
-0.0440579
0.0539893
-0.0408203
0.0442665
-0.0364809
0.0346175
-0.0341139
0.0261249
-0.0340887
0.0192984
-0.0340372
0.0142084
-0.0321706
0.0106334
-0.0284721
0.00823518
-0.0236831
0.0067121
-0.0184151
0.00584336
-0.0130956
-0.00833945
0.0775926
-0.0432141
0.0774754
-0.0431715
0.0771712
-0.0431484
0.0765264
-0.0430916
0.0752852
-0.0428631
0.0732178
-0.0422409
0.070077
-0.0413195
0.0653445
-0.0400441
0.0585537
-0.0372671
0.0500499
-0.0323166
0.0409893
-0.0274202
0.0325208
-0.0256455
0.0252461
-0.026814
0.0193379
-0.028129
0.0147868
-0.0276196
0.0114598
-0.0251451
0.00914349
-0.0213668
0.00762829
-0.0168999
0.00674537
-0.0122127
-0.00793485
0.0778634
-0.043117
0.0775859
-0.0428941
0.0770042
-0.0425666
0.0759174
-0.0420049
0.0740705
-0.0410161
0.0712596
-0.03943
0.0672507
-0.0373106
0.0616432
-0.0344366
0.0542917
-0.0299156
0.0458869
-0.0239118
0.0376406
-0.0191739
0.0303705
-0.0183755
0.0242383
-0.0206817
0.019178
-0.0230688
0.0151573
-0.0235988
0.0121177
-0.0221055
0.00993665
-0.0191857
0.00847458
-0.0154378
0.00760581
-0.0113439
-0.00751975
0.0779913
-0.0428417
0.0774155
-0.0423182
0.0763746
-0.0415257
0.074654
-0.0402843
0.0720416
-0.0384037
0.0683913
-0.0357797
0.0635216
-0.0324409
0.0571946
-0.0281096
0.049572
-0.0222929
0.0415689
-0.0159087
0.0342995
-0.0119045
0.0282152
-0.0122911
0.023138
-0.0156045
0.0188625
-0.0187933
0.015358
-0.0200943
0.012625
-0.0193725
0.01061
-0.0171708
0.00922904
-0.0140568
0.00839232
-0.0105072
-0.00710413
0.0777914
-0.0422233
0.076705
-0.0412318
0.0749766
-0.0397974
0.0724307
-0.0377384
0.0689417
-0.0349147
0.0644416
-0.0312796
0.0588248
-0.0268241
0.0520341
-0.0213189
0.0444851
-0.0147439
0.0371854
-0.00860899
0.0310294
-0.0057485
0.0261041
-0.00736585
0.0219954
-0.0114958
0.0184388
-0.0152367
0.0154258
-0.0170812
0.0130036
-0.0169504
0.0111715
-0.0153386
0.00988854
-0.0127739
0.00909518
-0.00971383
-0.00669493
0.0769554
-0.0410103
0.0750921
-0.0393685
0.0724507
-0.037156
0.0689517
-0.0342394
0.0645796
-0.0305426
0.0593402
-0.0260401
0.0532066
-0.0206906
0.0462905
-0.0144028
0.0391839
-0.00763733
0.0328577
-0.00228277
0.0279045
-0.000795316
0.0240857
-0.003547
0.0208531
-0.00826329
0.0179471
-0.0123307
0.0153932
-0.0145273
0.0132759
-0.0148332
0.0116334
-0.013696
0.0104582
-0.0115987
0.00971529
-0.00897097
-0.00629716
0.0750527
-0.0388929
0.0721555
-0.0364713
0.0684605
-0.0334609
0.0640162
-0.0297951
0.0589007
-0.0254271
0.0531624
-0.0203019
0.0468396
-0.0143678
0.0401818
-0.00774492
0.0338718
-0.00132738
0.0287238
0.00286527
0.0249956
0.00293284
0.0221998
-0.000751202
0.0197446
-0.00580808
0.0174194
-0.0100055
0.015288
-0.0123958
0.0134628
-0.013008
0.0120098
-0.012243
0.0109466
-0.0105355
0.0102585
-0.00828294
-0.00591443
0.0715903
-0.0355864
0.0675174
-0.0323984
0.0628061
-0.0287496
0.0576105
-0.0245995
0.0520415
-0.019858
0.0461459
-0.0144063
0.0400125
-0.00823441
0.0339956
-0.00172801
0.0287632
0.00390501
0.0249141
0.00671436
0.0223644
0.00548251
0.0204753
0.00113793
0.0186946
-0.00402734
0.0168812
-0.00819214
0.0151335
-0.0106482
0.0135831
-0.0114576
0.0123145
-0.0109744
0.011364
-0.00958494
0.010733
-0.007652
-0.0055493
0.0661512
-0.0309678
0.0609944
-0.0272416
0.0555433
-0.0232986
0.0499702
-0.0190263
0.0443382
-0.014226
0.0386656
-0.00873377
0.0330936
-0.00266235
0.0280296
0.00333595
0.0240723
0.0078623
0.0215274
0.00925926
0.0200444
0.0069655
0.0189268
0.00225553
0.0177195
-0.00282004
0.0163518
-0.0068244
0.0149491
-0.00924545
0.0136533
-0.0101618
0.0125608
-0.00988191
0.0117208
-0.00874492
0.0111476
-0.00707884
-0.00520349
0.0585926
-0.0252209
0.0527468
-0.0213959
0.0470488
-0.0176005
0.0415689
-0.0135465
0.0362736
-0.00893063
0.0311698
-0.00363001
0.0264588
0.00204866
0.0225733
0.00722145
0.0199516
0.0104841
0.0186182
0.0105927
0.0180411
0.00754259
0.0175589
0.00273774
0.0168292
-0.0020904
0.015846
-0.00584114
0.0147504
-0.00814988
0.0136879
-0.00909934
0.0127609
-0.00895483
0.0120271
-0.0080112
0.0115111
-0.00656282
-0.00487797
0.0492297
-0.0189053
0.0433403
-0.0155065
0.0379716
-0.0122318
0.0330167
-0.00859167
0.0283728
-0.00428669
0.0240916
0.000651146
0.0204453
0.00569497
0.0178289
0.00983785
0.0164829
0.01183
0.0161915
0.0108841
0.0163412
0.00739289
0.0163642
0.0027147
0.0160281
-0.00175423
0.0153744
-0.00518745
0.0145504
-0.00732594
0.0136995
-0.00824841
0.0129258
-0.00818107
0.0122926
-0.00737802
0.011832
-0.00610225
-0.00457306
0.038876
-0.0128467
0.0336361
-0.0102666
0.0290605
-0.00765617
0.0249042
-0.00443531
0.0210924
-0.000474917
0.0177788
0.00396475
0.0152797
0.00819404
0.0138993
0.0112183
0.0136716
0.0120577
0.0142126
0.010343
0.0149158
0.00668978
0.0153309
0.00229955
0.0153168
-0.00174011
0.0149446
-0.00481528
0.0143595
-0.00674083
0.0136987
-0.00758762
0.0130654
-0.00754772
0.0125259
-0.00683853
0.0121181
-0.00569452
-0.00428844
0.0286346
-0.00783695
0.0245212
-0.00615325
0.0209477
-0.0040826
0.0176697
-0.00115735
0.0147512
0.00244361
0.0124433
0.00627268
0.0110638
0.00957349
0.0107845
0.0114976
0.0114602
0.0113819
0.012622
0.00918125
0.0137289
0.00558293
0.0144446
0.0015838
0.0146941
-0.00198954
0.0145621
-0.00468329
0.014186
-0.00636472
0.0136946
-0.0070963
0.0131884
-0.00704149
0.0127349
-0.00638505
0.0123767
-0.00533626
-0.00402324
0.0195058
-0.00431167
0.0166322
-0.00327972
0.0140127
-0.00146308
0.0115603
0.00129506
0.00950194
0.00450197
0.00815559
0.00761902
0.00777927
0.00994982
0.00840245
0.0108745
0.00975362
0.0100308
0.0113511
0.00758378
0.0127445
0.00418948
0.0136912
0.000637109
0.0141576
-0.00245595
0.0142307
-0.00475633
0.0140366
-0.00617065
0.0136951
-0.00675476
0.0133026
-0.00664901
0.0129269
-0.00600934
0.0126141
-0.00502347
-0.00377604
0.0120784
-0.00224669
0.010248
-0.00144927
0.00838685
0.000398036
0.00663946
0.00304245
0.00535925
0.00578218
0.00486481
0.00811346
0.00531764
0.00949698
0.00662414
0.00956797
0.00844569
0.00820921
0.0103351
0.00569437
0.0119311
0.00259345
0.0130583
-0.00049003
0.0137051
-0.00310276
0.0139533
-0.00500455
0.013917
-0.00613436
0.0137066
-0.00654432
0.0134145
-0.00635696
0.0131079
-0.00570275
0.0128361
-0.0047516
-0.00354495
0.00649915
-0.00129403
0.00536326
-0.000313388
0.0040268
0.0017345
0.00284768
0.00422157
0.00222989
0.00639997
0.0024368
0.00790655
0.00352263
0.00841115
0.0053093
0.00778131
0.00743944
0.00607907
0.0095204
0.0036134
0.0112633
0.000850516
0.0125356
-0.00176224
0.0133342
-0.00390143
0.0137322
-0.00540257
0.0138318
-0.00623395
0.0137349
-0.00644734
0.0135301
-0.0061522
0.0132837
-0.00545633
0.0130477
-0.00451564
-0.00332761
0.00263461
-0.000971622
0.00182346
0.000497755
0.000791119
0.00276684
5.11717e-05
0.00496152
-3.79381e-05
0.00648908
0.000700417
0.00716819
0.0022313
0.00688026
0.0043331
0.00567951
0.00665775
0.00375442
0.0088668
0.00140435
0.0107225
-0.00100521
0.0121155
-0.00315518
0.0130435
-0.00482946
0.0135695
-0.00592853
0.013785
-0.00644948
0.0137847
-0.00644704
0.0136542
-0.00602175
0.0134588
-0.00526091
0.0132534
-0.00431022
-0.00312118
0.000242873
-0.000775045
-0.000578907
0.00131953
-0.00147824
0.00366617
-0.00192525
0.00540853
-0.00163524
0.00619907
-0.000518198
0.00605115
0.00130375
0.00505831
0.00360009
0.00338317
0.00604613
0.00130837
0.00834698
-0.000896495
0.0102952
-0.00295347
0.0117924
-0.0046523
0.0128317
-0.00586881
0.0134665
-0.00656336
0.0137797
-0.0067626
0.0138601
-0.0065275
0.013791
-0.00595266
0.0136376
-0.00510747
0.0134563
-0.00412895
-0.00292343
-0.00060338
-0.000171665
-0.00152868
0.00224484
-0.00225822
0.00439572
-0.00248729
0.00563759
-0.00207708
0.00578886
-0.00102019
0.00499426
0.00056412
0.003474
0.00248243
0.00146486
0.00449505
-0.000704246
0.00638681
-0.00278825
0.00800382
-0.00457048
0.009268
-0.00591648
0.0101689
-0.00676972
0.010743
-0.00713746
0.0110514
-0.00707095
0.0111631
-0.00663926
0.0111421
-0.00593158
0.0110447
-0.00501013
0.0109088
-0.00399307
-0.00277451
-0.000995314
0.000823648
-0.00213325
0.00338277
-0.00289415
0.00515662
-0.00305433
0.00579778
-0.00254522
0.00527975
-0.00140234
0.00385138
0.000244741
0.00182692
0.00220404
-0.000494435
0.00425284
-0.00275305
0.00618567
-0.00472109
0.00785155
-0.00623635
0.00916988
-0.00723481
0.0101253
-0.00772515
0.0107497
-0.00776185
0.0111009
-0.00742213
0.0112465
-0.00678491
0.0112499
-0.00593496
0.0111684
-0.00492864
0.0110404
-0.00386512
-0.00262758
-0.00119754
0.00202119
-0.00247212
0.00465735
-0.00326284
0.00594733
-0.00338836
0.0059233
-0.00283149
0.00472287
-0.00165332
0.00267321
1.9655e-05
0.000153947
0.00199446
-0.00246924
0.00406942
-0.00482801
0.00603985
-0.00669153
0.00775208
-0.00794857
0.00912024
-0.00860297
0.0101236
-0.00872853
0.0107902
-0.00842848
0.0111759
-0.00780774
0.0113475
-0.00695655
0.0113688
-0.00595624
0.0112978
-0.00485766
0.0111747
-0.00374198
-0.00248016
-0.00126745
0.00328864
-0.00259717
0.00598707
-0.00340028
0.00675044
-0.0035152
0.00603823
-0.00295332
0.00416099
-0.00178312
0.00150301
-0.000121422
-0.00150775
0.00185319
-0.00444385
0.0039455
-0.00692032
0.00595001
-0.00869603
0.00770597
-0.00970454
0.0091197
-0.0100167
0.0101646
-0.00977344
0.0108655
-0.00912942
0.0112772
-0.00821942
0.011467
-0.00714632
0.0114994
-0.00598867
0.0114338
-0.00479204
0.0113117
-0.00361982
-0.00233054
-0.00123538
0.00452402
-0.00253698
0.00728867
-0.00332521
0.00753867
-0.00344481
0.00615783
-0.00291307
0.00362924
-0.00178838
0.000378324
-0.000168746
-0.00312738
0.00178611
-0.0063987
0.00388531
-0.00901952
0.00591897
-0.0107297
0.00771517
-0.0115007
0.00916977
-0.0114713
0.0102496
-0.0108532
0.0109767
-0.0098566
0.011406
-0.00864866
0.0116059
-0.00734622
0.0116425
-0.00602534
0.0115769
-0.00472645
0.0114518
-0.00349471
-0.0021769
-0.00111379
0.00563781
-0.00230291
0.00847779
-0.00304084
0.0082766
-0.00317214
0.00628913
-0.00269887
0.00315598
-0.00165374
-0.00066681
-0.000104449
-0.00467667
0.00180542
-0.00830857
0.00389713
-0.0111112
0.00595194
-0.0127845
0.00778295
-0.0133317
0.00927267
-0.012961
0.0103801
-0.0119607
0.0111251
-0.0106016
0.0115631
-0.00908667
0.0117648
-0.00754796
0.0117986
-0.00605912
0.0117276
-0.00465541
0.0115954
-0.00336254
-0.00201734
-0.00090134
0.00653915
-0.00189177
0.00946822
-0.00253633
0.00892116
-0.00267847
0.00643127
-0.0022861
0.0027636
-0.00135189
-0.00160102
9.09767e-05
-0.00611953
0.00193044
-0.010148
0.00399419
-0.013175
0.0060571
-0.0148474
0.00791424
-0.0151889
0.0094315
-0.0144783
0.0105583
-0.0130875
0.011312
-0.0113553
0.0117495
-0.00952418
0.0119445
-0.00774296
0.011968
-0.00608263
0.0118859
-0.00457326
0.0117424
-0.00321909
-0.00184992
-0.000583677
0.00712283
-0.00128522
0.0101698
-0.00178812
0.00942405
-0.00193309
0.00657625
-0.00163782
0.00246832
-0.00084376
-0.00239507
0.00045431
-0.0074176
0.0021893
-0.011883
0.0041959
-0.0151816
0.0062464
-0.0168979
0.00811602
-0.0170585
0.00965037
-0.0160126
0.0107867
-0.0142238
0.011539
-0.0121076
0.0119662
-0.00995132
0.0121454
-0.00792217
0.012151
-0.00608822
0.0120518
-0.00447411
0.0118927
-0.00305996
-0.00167266
-0.000119049
0.00724188
-0.000449247
0.0105
-0.000761559
0.00973636
-0.000895641
0.00671033
-0.000706999
0.00227968
-7.667e-05
-0.0030254
0.00103524
-0.00852951
0.00261991
-0.0134677
0.00452903
-0.0170907
0.00653647
-0.0189054
0.00839781
-0.0189198
0.00993463
-0.0175494
0.0110683
-0.0153575
0.0118079
-0.0128472
0.0122139
-0.0103574
0.0123678
-0.008076
0.0123474
-0.00606786
0.0122252
-0.00435187
0.0120458
-0.00288057
-0.0014837
0.000561868
0.00668001
0.000691995
0.0103698
0.000597524
0.00983083
0.000482745
0.00682511
0.000559116
0.00220331
0.000992052
-0.00345834
0.00188732
-0.00942479
0.00326847
-0.0148488
0.00502732
-0.0188495
0.00694905
-0.0208271
0.00877258
-0.0207434
0.0102918
-0.0190686
0.0114075
-0.0164732
0.012121
-0.0135607
0.0124941
-0.0107305
0.0126121
-0.00819398
0.0125575
-0.00601332
0.0124052
-0.00419953
0.012202
-0.00267741
-0.00127932
0.00271198
0.00543097
-0.00146294
0.00367661
0.00940521
0.00389925
0.00960819
0.00376445
0.00695991
0.00366081
0.00230695
0.00390568
-0.00370321
0.0047305
-0.0102496
0.00624534
-0.0163637
0.00837997
-0.0209842
0.0108743
-0.0233215
0.0133396
-0.0232086
0.0154274
-0.0211564
0.0169523
-0.0179982
0.0178966
-0.014505
0.0183483
-0.0111821
0.0184341
-0.00827978
0.0182831
-0.00586237
0.0179971
-0.00391345
0.0176674
-0.00234777
-0.000944047
0.00755385
0.00485773
-0.00698061
0.00852838
0.00843067
0.00888779
0.00924878
0.00871592
0.00713178
0.00833853
0.00268434
0.0080952
-0.00345988
0.0082751
-0.0104295
0.00907822
-0.0171668
0.0105571
-0.0224631
0.0125517
-0.025316
0.0146949
-0.0253519
0.0165823
-0.0230437
0.0179583
-0.0193743
0.0187649
-0.0153115
0.0190803
-0.0114975
0.0190364
-0.00823592
0.0187701
-0.00559606
0.0183899
-0.00353323
0.0179882
-0.0019461
-0.000566943
0.0154492
0.00584791
-0.0164394
0.0155503
0.00832962
0.0155893
0.00920975
0.015205
0.00751609
0.0145014
0.00338795
0.0137322
-0.00269069
0.0131798
-0.00987709
0.0131043
-0.0170913
0.013688
-0.0230468
0.0149218
-0.0265498
0.0165221
-0.0269522
0.0180542
-0.0245758
0.0191807
-0.0205008
0.0197812
-0.015912
0.0199098
-0.0116261
0.0196976
-0.00802371
0.0192865
-0.00518494
0.0187914
-0.00303818
0.0183035
-0.00145816
-0.000142389
0.0266747
0.00891012
-0.0297369
0.0251618
0.00984251
0.0242908
0.0100808
0.0233808
0.00842611
0.0222228
0.00454593
0.0208769
-0.00134476
0.0195343
-0.00853458
0.0184559
-0.0160129
0.0179284
-0.0225193
0.0181259
-0.0267473
0.01892
-0.0277463
0.0198984
-0.0255543
0.0206448
-0.0212472
0.0209542
-0.0162215
0.0208371
-0.011509
0.0204135
-0.00760007
0.0198261
-0.00459753
0.0191941
-0.00240616
0.0186065
-0.000870633
0.000336361
0.0406414
0.0137961
-0.0455274
0.0373014
0.0131825
0.0350646
0.0123176
0.0332572
0.0102335
0.0314353
0.00636789
0.0294232
0.000667361
0.0272525
-0.00636393
0.0251087
-0.013869
0.0233235
-0.0207341
0.0222472
-0.025671
0.0219652
-0.0274643
0.022163
-0.025752
0.0223723
-0.0214565
0.0222894
-0.0161386
0.0218592
-0.0110788
0.0211769
-0.00691778
0.02038
-0.00380055
0.0195883
-0.00161449
0.0188881
-0.000170453
0.00087528
0.0555239
0.0194606
-0.0611883
0.0509309
0.0177755
0.0473885
0.01586
0.04451
0.0131119
0.0418455
0.00903245
0.0390685
0.00344435
0.0360482
-0.00334368
0.0328466
-0.0106674
0.0297609
-0.0176484
0.0272655
-0.0231755
0.0256829
-0.0258817
0.0248746
-0.0249438
0.0243757
-0.0209575
0.0237869
-0.0155498
0.0229692
-0.0102611
0.0219777
-0.00592621
0.0209364
-0.00275933
0.0199623
-0.00064039
0.0191372
0.000654637
0.00147953
0.0689196
0.0246721
-0.074131
0.0641382
0.0225569
0.0599465
0.0200517
0.0562599
0.0167985
0.0528025
0.0124899
0.0492727
0.00697413
0.0454394
0.000489565
0.0412686
-0.00649661
0.0369584
-0.0133382
0.0330303
-0.0192475
0.0300194
-0.0228708
0.028022
-0.0229464
0.0266506
-0.0195861
0.0254385
-0.0143378
0.0241551
-0.00897762
0.0228016
-0.00457271
0.0214808
-0.00143857
0.0203028
0.00053766
0.0193403
0.00161707
0.00215276
0.079149
0.0286684
-0.0831453
0.0750889
0.026617
0.0710951
0.0240455
0.0672099
0.0206837
0.063323
0.0163767
0.0592396
0.0110575
0.0547901
0.00493908
0.049833
-0.00153951
0.0444982
-0.00800343
0.0392689
-0.0140182
0.0348334
-0.0184353
0.0315446
-0.0196576
0.029169
-0.0172105
0.0272246
-0.0123934
0.0253983
-0.00715135
0.0236301
-0.00280449
0.0219964
0.000195138
0.0205919
0.00194212
0.0194822
0.00272679
0.00289735
0.0858283
0.031296
-0.088456
0.0828955
0.0295498
0.079681
0.02726
0.0761985
0.0241663
0.0723897
0.0201855
0.0681467
0.0153005
0.0633694
0.00971633
0.0579451
0.00388486
0.0518931
-0.00195148
0.0456275
-0.00775256
0.0399097
-0.0127175
0.0353321
-0.01508
0.0318765
-0.0137548
0.0291123
-0.00962927
0.0266732
-0.0047122
0.0244414
-0.000572671
0.0224614
0.00217506
0.0208107
0.00359286
0.0195454
0.00399209
0.00371407