/*--------------------------------*- C++ -*----------------------------------*\
| =========                 |                                                 |
| \\      /  F ield         | OpenFOAM: The Open Source CFD Toolbox           |
|  \\    /   O peration     | Version:  v1806                                 |
|   \\  /    A nd           | Web:      www.OpenFOAM.com                      |
|    \\/     M anipulation  |                                                 |
\*---------------------------------------------------------------------------*/
FoamFile
{
    version     2.0;
    format      ascii;
    class       volScalarField;
    location    "90";
    object      p;
}
// * * * * * * * * * * * * * * * * * * * * * * * * * * * * * * * * * * * * * //

dimensions      [0 2 -2 0 0 0 0];


internalField   nonuniform List<scalar> 
2400
(
3.60576e-05
3.77602e-05
4.0453e-05
4.47307e-05
4.98129e-05
5.77502e-05
6.85084e-05
8.03819e-05
9.41058e-05
0.000112062
0.000134853
0.000163201
0.00018664
0.00022248
0.00024792
0.000293346
0.000305134
0.000332544
0.000313907
0.000308322
0.000108442
0.000112942
0.000120632
0.000132991
0.000149296
0.000172807
0.000201676
0.000237261
0.000278605
0.000335257
0.000396362
0.000476977
0.000545484
0.000654737
0.000728976
0.000850552
0.000873641
0.000947529
0.000886633
0.000848164
0.000180476
0.000187473
0.000200171
0.000220594
0.000248147
0.00028629
0.000332873
0.000392395
0.00046133
0.000555057
0.000652814
0.000785031
0.00089994
0.00107952
0.00120097
0.00139495
0.00143294
0.00155181
0.00144204
0.0013663
0.000251771
0.000261221
0.000278972
0.000307295
0.000345806
0.0003983
0.000462918
0.000545789
0.000641931
0.00077116
0.000906383
0.0010891
0.00125105
0.00149792
0.00166735
0.00193308
0.00198784
0.00215204
0.00198527
0.00187433
0.000322084
0.000333925
0.000356678
0.000392673
0.00044202
0.000508595
0.000591162
0.000696553
0.000819782
0.000983252
0.00115632
0.0013877
0.00159761
0.00190963
0.00212856
0.00246586
0.0025392
0.00275229
0.00251916
0.00237498
0.000391146
0.00040527
0.000432959
0.000476401
0.000536464
0.00061664
0.000716968
0.000844061
0.000994315
0.0011905
0.0014016
0.00167977
0.00193893
0.00231416
0.00258486
0.00299443
0.00308952
0.00335753
0.00304688
0.00287504
0.000458683
0.000474967
0.000507525
0.000558149
0.000628747
0.000721967
0.000839878
0.000987751
0.00116489
0.0013921
0.00164155
0.0019645
0.00227444
0.00271089
0.00303679
0.00351994
0.00364198
0.00397259
0.00357301
0.00338323
0.000524426
0.000542746
0.000580083
0.000637586
0.000718503
0.000824177
0.000959431
0.00112705
0.00133088
0.00158737
0.00187555
0.00224103
0.00260357
0.00309911
0.00348494
0.00404303
0.00419992
0.00460207
0.00410335
0.00390989
0.000588117
0.000608342
0.000650342
0.000714399
0.000805382
0.000922877
0.00107515
0.0012614
0.00149168
0.00177561
0.00210291
0.00250843
0.00292573
0.0034779
0.00392974
0.00456367
0.00476685
0.00525018
0.00464551
0.00446762
0.000649503
0.0006715
0.000718025
0.000788293
0.000889039
0.00101769
0.00118657
0.0013903
0.00164667
0.00195612
0.00232286
0.00276577
0.00324029
0.00384614
0.00437156
0.0050812
0.00534636
0.00592029
0.00520958
0.00507146
0.000708342
0.000731977
0.000782863
0.000858985
0.000969137
0.00110825
0.00129323
0.00151325
0.0017952
0.00212822
0.00253457
0.00301206
0.00354648
0.00420262
0.00481077
0.00559439
0.00594213
0.00661422
0.0058087
0.00573921
0.0007644
0.000789544
0.000844597
0.000926208
0.00104535
0.00119423
0.00139468
0.00162979
0.00193661
0.00229123
0.0027371
0.00324624
0.00384327
0.00454596
0.00524769
0.0061018
0.00655838
0.00733158
0.00645887
0.00649102
0.000817455
0.000843982
0.000902982
0.000989712
0.00111736
0.00127532
0.00149046
0.00173951
0.00207022
0.00244453
0.00292937
0.00346715
0.00412919
0.00487456
0.00568232
0.00660231
0.00720082
0.00806964
0.00717851
0.00734569
0.000867295
0.000895089
0.000957787
0.00104926
0.00118489
0.00135122
0.00158017
0.001842
0.00219536
0.00258754
0.00311019
0.00367365
0.00440218
0.00518618
0.00611353
0.00709534
0.00787795
0.0088255
0.00798991
0.00831166
0.000913722
0.000942675
0.0010088
0.00110465
0.00124764
0.00142169
0.00166341
0.00193692
0.00231136
0.00271972
0.00327828
0.00386467
0.00465961
0.00547785
0.00653774
0.00757948
0.00860105
0.00960128
0.00892699
0.00937548
0.000956552
0.000986564
0.00105581
0.00115566
0.00130537
0.00148646
0.0017398
0.00202394
0.00241764
0.00284061
0.00343239
0.00403926
0.00489834
0.00574672
0.00694808
0.0080477
0.00937955
0.0104121
0.0100545
0.0104731
0.000995615
0.0010266
0.00109865
0.00120213
0.00135784
0.00154532
0.00180902
0.00210278
0.00251361
0.0029498
0.00357136
0.00419657
0.00511512
0.0059903
0.00733474
0.00848807
0.0102087
0.0112868
0.0114994
0.0114404
0.00103076
0.00106263
0.00113714
0.00124389
0.00140484
0.00159808
0.00187074
0.00217322
0.00259874
0.00304697
0.003694
0.00433608
0.00530664
0.00620673
0.00768542
0.00889052
0.0110556
0.012236
0.0134925
0.0120003
0.00106184
0.00109455
0.00117113
0.0012808
0.00144615
0.0016446
0.00192465
0.00223508
0.00267248
0.00313193
0.00379922
0.00445741
0.00546982
0.00639477
0.00798761
0.00924755
0.0118666
0.0132038
0.0163843
0.0120544
0.00108875
0.0011222
0.00120057
0.00131266
0.00148177
0.00168452
0.00197086
0.00228774
0.00273512
0.0032035
0.00388751
0.00455836
0.00560479
0.00654975
0.00823656
0.00954573
0.0125768
0.0141375
0.0202542
0.0128334
0.000337678
0.000356854
0.000363706
0.000363266
0.000362798
0.000363722
0.000365123
0.000365914
0.000364698
0.000359659
0.000780008
0.000756623
0.000741253
0.000732023
0.000724683
0.000718203
0.000713069
0.000709934
0.000709556
0.000712954
0.00125554
0.00123297
0.00121563
0.00120167
0.00118929
0.00117829
0.00116922
0.00116251
0.00115818
0.00115599
0.0016992
0.00165827
0.00162512
0.00159815
0.00157434
0.00155311
0.00153514
0.00152106
0.0015113
0.00150609
0.00211597
0.00205594
0.0020082
0.00196973
0.00193559
0.0019047
0.00187796
0.00185625
0.0018399
0.00182895
0.00250684
0.00242195
0.00235519
0.00230141
0.00225316
0.00220888
0.00216992
0.00213749
0.00211208
0.00209377
0.00286971
0.00275213
0.00266167
0.00258967
0.00252473
0.00246456
0.00241109
0.00236595
0.0023297
0.00230233
0.00320165
0.0030412
0.00292133
0.0028275
0.00274252
0.00266305
0.00259193
0.00253141
0.0024821
0.00244393
0.00349753
0.00328094
0.00312473
0.00300506
0.00289632
0.00279385
0.0027018
0.00262326
0.0025589
0.00250848
0.00374886
0.0034591
0.00325851
0.00310872
0.00297219
0.00284265
0.00272617
0.00262698
0.00254576
0.00248196
0.00394238
0.00355804
0.00330403
0.00311976
0.00295119
0.00279027
0.00264586
0.00252363
0.00242423
0.00234642
0.0040584
0.00355303
0.00323573
0.00301269
0.00280775
0.00261109
0.00243545
0.00228833
0.00217023
0.00207871
0.00406745
0.00340889
0.00301739
0.00275143
0.00250593
0.00226946
0.00206008
0.0018875
0.00175172
0.00164864
0.00392415
0.00307304
0.0025942
0.00228088
0.00199097
0.00171165
0.00146791
0.00127211
0.00112317
0.00101506
0.00355657
0.00246592
0.00188372
0.00151822
0.00118103
0.000858002
0.000582931
0.000371422
0.000220344
0.000122079
0.00283583
0.00145374
0.000753557
0.000336479
-4.32857e-05
-0.000401672
-0.000694232
-0.000902013
-0.00103164
-0.00109252
0.00153957
-0.000197991
-0.00102609
-0.00147874
-0.00187624
-0.00223739
-0.00250636
-0.00266345
-0.00272153
-0.00269617
-0.000528549
-0.00264058
-0.00355967
-0.00401362
-0.00439076
-0.00470141
-0.0048851
-0.00493073
-0.00485864
-0.00469122
-0.00353725
-0.00563931
-0.00629998
-0.00660755
-0.00684893
-0.0069685
-0.00694023
-0.00679988
-0.00658868
-0.00631746
-0.00938651
-0.0105065
-0.0101316
-0.0100331
-0.0100547
-0.00993606
-0.00965566
-0.00927576
-0.00886022
-0.00839666
0.000318809
0.000340266
0.000395459
0.000468899
0.000549947
0.000635342
0.0007412
0.000883942
0.00105236
0.00120033
0.00126805
0.0012237
0.00108764
0.000909606
0.000731228
0.000572117
0.000435337
0.000314034
0.00020048
6.303e-05
0.000741195
0.000797791
0.000898021
0.00103929
0.00120753
0.00140233
0.00163544
0.00190014
0.00214922
0.00231183
0.00233469
0.00221142
0.00198228
0.0017043
0.00142141
0.0011551
0.000909569
0.000674903
0.000438622
0.000137513
0.00115294
0.00122727
0.00137832
0.00159518
0.0018589
0.00216693
0.00252746
0.0029192
0.00326742
0.00347354
0.00347064
0.00325884
0.00290245
0.00248551
0.0020691
0.00168012
0.00132117
0.000976386
0.000628671
0.000196604
0.00150642
0.00159977
0.00179377
0.00207359
0.00241697
0.00281975
0.00328002
0.00375258
0.00413806
0.00433199
0.00427987
0.00399849
0.00356295
0.00306249
0.00256114
0.00208721
0.00164326
0.00121113
0.000773529
0.000242236
0.00181402
0.00191755
0.00214887
0.00248683
0.0029057
0.00339623
0.00394053
0.00446839
0.00486383
0.00502646
0.00491803
0.0045708
0.00406806
0.00350159
0.00293533
0.00239652
0.0018866
0.00138572
0.000878099
0.000275034
0.00206362
0.00217383
0.00244012
0.00283456
0.00332624
0.00389615
0.00450482
0.00505783
0.00543332
0.00554692
0.00538104
0.0049802
0.00442991
0.00381924
0.00320891
0.00262398
0.00206498
0.00151166
0.000951063
0.000297641
0.00225074
0.00236479
0.00266645
0.00311913
0.00368364
0.00432507
0.00497812
0.00552938
0.00586324
0.00591894
0.00569926
0.0052566
0.00467465
0.00403703
0.00339951
0.00278415
0.00219065
0.00159908
0.000999966
0.00031257
0.00236687
0.0024849
0.00282607
0.00334243
0.00398106
0.00468416
0.00535925
0.00588351
0.00616032
0.00615681
0.00589231
0.00542144
0.00482291
0.00417335
0.00352279
0.0028901
0.00227436
0.0016565
0.00103076
0.000321797
0.00240279
0.00252848
0.00291752
0.00350579
0.00421914
0.00497064
0.00564407
0.00612085
0.00633373
0.00627722
0.00598044
0.00549531
0.00489373
0.00424484
0.00359282
0.00295345
0.00232548
0.00169106
0.00104819
0.000326892
0.00234718
0.00248907
0.0029385
0.0036082
0.00439403
0.00517677
0.00582596
0.00624255
0.00639439
0.0062977
0.00598343
0.0054974
0.00490445
0.00426647
0.00362212
0.0029844
0.00235206
0.00170874
0.00105604
0.000329098
0.00218591
0.0023586
0.00288448
0.00364412
0.00449567
0.00529026
0.00589837
0.00625336
0.00635711
0.00623766
0.00592091
0.00544575
0.00487086
0.00425164
0.00362174
0.00299184
0.00236101
0.00171448
0.00105733
0.000329389
0.00189997
0.00212543
0.00274595
0.00360076
0.004507
0.00529676
0.00585851
0.00616401
0.00624095
0.00611775
0.00581186
0.00535694
0.00480712
0.00421214
0.00360131
0.00298342
0.00235815
0.00171237
0.0010545
0.000328519
0.00146258
0.00177115
0.00250494
0.0034563
0.00440634
0.00518507
0.00571138
0.00599254
0.00606808
0.00595842
0.00567368
0.00524566
0.00472555
0.00415815
0.00356907
0.00296563
0.00234837
0.00170578
0.0010495
0.000327059
0.000836941
0.00126858
0.00213363
0.00318296
0.00417492
0.00495382
0.00547279
0.00576264
0.00586083
0.0057777
0.00552104
0.00512422
0.00463645
0.00409819
0.00353192
0.00294388
0.00233572
0.00169745
0.0010439
0.000325435
-1.98635e-05
0.000588091
0.00160304
0.00276012
0.0038082
0.00461785
0.00516839
0.0054991
0.00563776
0.00558926
0.00536509
0.0050022
0.00454807
0.00403919
0.00349551
0.00292261
0.0023235
0.0016896
0.00103897
0.000323943
-0.00113798
-0.000280078
0.000905732
0.00219395
0.00332692
0.00420917
0.00482704
0.00522122
0.00541039
0.0054013
0.0052132
0.00488656
0.00446669
0.00398658
0.00346437
0.00290537
0.00231437
0.00168397
0.0010357
0.000322761
-0.0025037
-0.00129916
7.85818e-05
0.00153728
0.00277765
0.00376139
0.00447264
0.00493854
0.00518193
0.00521682
0.00506948
0.00478197
0.00439696
0.00394456
0.00344201
0.00289496
0.00231043
0.0016819
0.00103489
0.000321965
-0.00399049
-0.00234889
-0.000786066
0.000841528
0.00222949
0.00331974
0.00411326
0.00464883
0.00494952
0.0050354
0.00493586
0.00469154
0.00434225
0.00391628
0.00343114
0.00289353
0.00231323
0.00168443
0.00103707
0.00032158
-0.00515604
-0.00317636
-0.00151402
0.0002851
0.00173039
0.00288702
0.00374229
0.00434329
0.00470757
0.00485584
0.00481359
0.00461761
0.00430516
0.00390412
0.00343374
0.00290263
0.0023239
0.00169228
0.00104256
0.000321448
-0.00636704
-0.00372375
-0.00199648
-0.000128512
0.00128303
0.00245704
0.00334938
0.00401258
0.00445534
0.00468052
0.00470607
0.00456349
0.0042885
0.00391031
0.00345158
0.00292339
0.00234355
0.00170544
0.0010527
0.000319817
-0.0063598
-0.00357485
-0.00211432
-0.000304742
0.00100939
0.0021646
0.00306697
0.00377869
0.00428169
0.00456881
0.0046472
0.00454384
0.00429427
0.00392959
0.0034764
0.00294683
0.00236502
0.00171742
0.00106614
0.000313647
-0.0059852
-0.00351453
-0.0021645
-0.00040496
0.000850909
0.00199038
0.00289958
0.00364103
0.00418146
0.00450634
0.00461643
0.00453607
0.00430093
0.00394356
0.0034929
0.00296213
0.00237834
0.0017257
0.00107325
0.000311933
-0.00576262
-0.00347498
-0.00219742
-0.000506972
0.000691381
0.00181146
0.00272948
0.0035023
0.00408265
0.00444704
0.00458976
0.00453257
0.00431148
0.00396082
0.00351192
0.00297949
0.00239283
0.0017354
0.00107995
0.000311909
-0.00561717
-0.00342497
-0.00222041
-0.000605981
0.000533366
0.0016319
0.00255992
0.00336561
0.00398751
0.00439244
0.00456815
0.00453392
0.00432627
0.00398156
0.00353364
0.00299894
0.00240871
0.00174624
0.00108696
0.000312539
-0.00555555
-0.00337266
-0.00224024
-0.000701615
0.000377794
0.00145407
0.00239344
0.00323328
0.00389778
0.00434365
0.00455222
0.00454041
0.00434543
0.00400584
0.00355808
0.00302044
0.00242598
0.00175816
0.00109438
0.000313662
-0.00558454
-0.00332651
-0.00226034
-0.000795541
0.000225883
0.00128024
0.00223304
0.00310789
0.00381533
0.00430184
0.00454262
0.00455235
0.00436906
0.00403367
0.00358519
0.00304398
0.0024446
0.00177116
0.00110213
0.000315351
-0.00569998
-0.00328472
-0.00227883
-0.000889761
8.01304e-05
0.0011146
0.00208245
0.00299253
0.00374237
0.0042684
0.00454009
0.00457008
0.00439729
0.00406506
0.00361497
0.00306952
0.00246456
0.00178523
0.00111023
0.000317603
-0.00589505
-0.00324023
-0.00229085
-0.000978006
-5.51062e-05
0.000961609
0.00194603
0.0028907
0.00368136
0.00424483
0.00454543
0.00459395
0.00443023
0.00410003
0.0036474
0.00309703
0.00248582
0.00180029
0.00111871
0.000320346
-0.00619682
-0.00319277
-0.00228765
-0.00105533
-0.000175067
0.000825065
0.00182719
0.00280496
0.00363397
0.00423205
0.00455909
0.00462413
0.00446792
0.00413855
0.0036824
0.00312646
0.00250832
0.00181641
0.00112739
0.000323905
-0.00666544
-0.00316343
-0.00228415
-0.00113402
-0.000283404
0.00070259
0.00172489
0.00273439
0.00359927
0.00422918
0.00458031
0.00466008
0.00450996
0.00418037
0.00371974
0.0031578
0.00253169
0.00183407
0.00113509
0.00032997
-0.00538207
-0.00349205
-0.00244098
-0.00140247
-0.000518516
0.000465338
0.00154047
0.00261681
0.00355327
0.00424533
0.00464293
0.00475026
0.00461014
0.00427782
0.00380549
0.00322965
0.00258416
0.00187564
0.00114939
0.000348791
-0.00376731
-0.00240788
-0.00172845
-0.00108141
-0.000360886
0.000579195
0.00167131
0.00277708
0.00374333
0.00445797
0.00486783
0.00497495
0.00482185
0.00446654
0.00396486
0.00335788
0.0026803
0.0019433
0.00118615
0.000362689
-0.00198342
-0.00147801
-0.000999296
-0.000454209
0.000241702
0.00114285
0.00219622
0.00325242
0.00416517
0.00482959
0.0051958
0.00526444
0.00507443
0.00468171
0.0041421
0.00349831
0.00278531
0.00201583
0.00122734
0.000374704
-0.000177153
-0.000155976
0.000142713
0.000594283
0.00121855
0.00203681
0.00297716
0.0039279
0.00473448
0.00530212
0.005588
0.00559249
0.00534963
0.00491051
0.00432811
0.00364475
0.00289481
0.00209133
0.00127071
0.000386515
0.00117806
0.00100057
0.00119363
0.00159794
0.00218442
0.00294263
0.00380048
0.00463029
0.00532184
0.00578813
0.00598828
0.00592351
0.00562452
0.00513777
0.00451268
0.00379039
0.0030043
0.00216716
0.00131494
0.000398319
0.00217753
0.00194356
0.00208288
0.00246284
0.00302439
0.00372933
0.00450451
0.00524416
0.0058432
0.00622282
0.00634982
0.00622563
0.00587766
0.00534889
0.00468568
0.0039287
0.00310954
0.00224095
0.00135859
0.00041022
0.00288578
0.00266966
0.0027909
0.00315463
0.00369193
0.00434949
0.00505698
0.00572177
0.00624968
0.00656944
0.00664562
0.00647803
0.00609348
0.00553266
0.00484061
0.00405386
0.00320639
0.00231003
0.00140037
0.000422138
0.00336893
0.00320355
0.00332823
0.00367989
0.0041929
0.00480867
0.00545989
0.0060647
0.00653936
0.00681655
0.00685972
0.00666629
0.00626001
0.00567901
0.00496661
0.00415971
0.00329092
0.00237212
0.00143899
0.000433884
0.00367644
0.00357411
0.00371527
0.00405977
0.00455063
0.00512927
0.00573201
0.00628666
0.00671899
0.00696608
0.00699054
0.00678564
0.00637081
0.00578162
0.0050597
0.00424157
0.00335929
0.00242465
0.00147311
0.00044519
0.00384237
0.00380447
0.00396889
0.00431084
0.00478275
0.00532883
0.00588957
0.00640117
0.00679836
0.00702346
0.00703865
0.00683279
0.00642061
0.0058344
0.00511372
0.00429428
0.00340749
0.00246494
0.00150133
0.000455681
0.00389066
0.00391228
0.00410164
0.00444385
0.00489967
0.00541747
0.00594204
0.00641658
0.00678402
0.00699232
0.00700418
0.00680493
0.00640452
0.00583138
0.00512253
0.00431231
0.00343106
0.00248986
0.00152193
0.000464814
0.00383783
0.00391063
0.00412285
0.00446578
0.00490711
0.00539985
0.00589294
0.00633545
0.00667742
0.00687251
0.006885
0.00669781
0.00631656
0.0057656
0.00507894
0.00428902
0.00342448
0.00249544
0.00153267
0.000471806
0.00369485
0.00380879
0.00403906
0.00438084
0.00480744
0.00527656
0.00574108
0.00615496
0.00647446
0.00665882
0.00667473
0.00650383
0.00614805
0.00562777
0.00497368
0.00421583
0.00338055
0.00247637
0.00153045
0.000475508
0.00346878
0.0036127
0.00385424
0.00419078
0.00460011
0.00504462
0.00548131
0.00586846
0.00616754
0.00634287
0.00636406
0.00621251
0.00588747
0.00540578
0.00479472
0.00408156
0.00328968
0.00242536
0.00151085
0.00047424
0.00316304
0.00332545
0.00356954
0.00389461
0.00428192
0.00469797
0.00510379
0.00546203
0.0057394
0.00590551
0.00593333
0.00580456
0.0055163
0.00508202
0.00452553
0.00387109
0.00313883
0.00233222
0.00146737
0.000465535
0.00278114
0.0029488
0.00318501
0.00348934
0.00384671
0.00422854
0.0046004
0.00492884
0.00518443
0.00534087
0.00537445
0.00526848
0.00501951
0.00463889
0.00414725
0.00356574
0.00291085
0.00218282
0.00139043
0.000445792
0.0023175
0.0024797
0.00269655
0.00296926
0.00328442
0.00361748
0.00393941
0.00422283
0.00444486
0.00458536
0.00462481
0.00454761
0.00434859
0.00403568
0.00362577
0.0031365
0.00258097
0.00195679
0.00126557
0.000409724
0.0017863
0.00192039
0.0021026
0.00233152
0.00259628
0.0028772
0.00315053
0.00339277
0.00358397
0.00370705
0.0037459
0.00368808
0.0035304
0.00328079
0.00295418
0.00256555
0.00212503
0.0016285
0.00107123
0.000349429
0.00115231
0.00125778
0.00138063
0.00153123
0.00170281
0.00188112
0.00205127
0.00220102
0.00232149
0.00240487
0.00244188
0.00242301
0.00234263
0.00220128
0.00200488
0.00176136
0.00147728
0.00114961
0.00077221
0.000253747
0.000493215
0.000540103
0.000621155
0.000714979
0.000818922
0.000928097
0.0010336
0.00112671
0.00120177
0.00125464
0.00127944
0.00126914
0.00121974
0.00113308
0.00101606
0.000877234
0.000723533
0.000555463
0.000370925
0.000122007
-0.00561398
-0.00649874
-0.00571728
-0.00537059
-0.00550057
-0.00576088
-0.00600152
-0.00620617
-0.00638619
-0.006463
0.0028134
0.00078871
-0.000266692
-0.00102962
-0.00176929
-0.00244285
-0.00297932
-0.00336611
-0.00362039
-0.00376116
0.00372668
0.00195766
0.00104702
0.000515735
3.10935e-05
-0.000447192
-0.000868978
-0.00120739
-0.0014641
-0.00164764
0.00489568
0.00368159
0.00300803
0.00256142
0.0021305
0.0016941
0.00129051
0.000941668
0.000648098
0.000404213
0.00544629
0.00454857
0.00398638
0.00358674
0.00321137
0.00284066
0.00249692
0.00219413
0.00193311
0.0017101
0.00557016
0.00492393
0.00448761
0.00416597
0.00386735
0.00357438
0.00329992
0.00305339
0.00283599
0.00264545
0.00550389
0.005052
0.00472536
0.00447321
0.00423879
0.00400986
0.00379423
0.00359836
0.00342367
0.00326919
0.00533596
0.00502412
0.00478363
0.00458971
0.00440935
0.00423466
0.00407018
0.00392007
0.00378553
0.00366627
0.00510797
0.00489505
0.00472171
0.00457691
0.00444227
0.00431298
0.00419161
0.00408081
0.00398153
0.00389384
0.00484098
0.00469716
0.00457539
0.00447112
0.0043743
0.00428218
0.0041963
0.00411835
0.0040491
0.00398876
0.00454461
0.00444883
0.00436616
0.0042946
0.00422853
0.00416642
0.00410927
0.00405823
0.00401391
0.00397657
0.00422149
0.00415926
0.00410594
0.00406028
0.00401874
0.00398044
0.00394615
0.00391671
0.00389258
0.00387401
0.00387055
0.00383194
0.00380049
0.00377488
0.00375245
0.00373265
0.00371612
0.00370352
0.00369524
0.00369151
0.00348911
0.00346729
0.00345189
0.00344136
0.00343342
0.00342766
0.00342462
0.00342482
0.00342857
0.00343601
0.00307387
0.00306409
0.00306006
0.0030601
0.00306221
0.0030661
0.00307229
0.00308128
0.00309334
0.00310867
0.00262099
0.00261963
0.00262391
0.00263196
0.00264179
0.00265301
0.00266603
0.00268117
0.00269854
0.00271814
0.00212829
0.00213037
0.00213635
0.00214566
0.00215682
0.00216954
0.00218416
0.00220107
0.0022206
0.00224301
0.0015979
0.00161043
0.00162517
0.00164004
0.00165502
0.00167048
0.00168665
0.00170349
0.00172072
0.00173797
0.000981122
0.000973425
0.000975014
0.000983874
0.000994766
0.00100622
0.00101888
0.00103367
0.00105151
0.00107326
0.000451203
0.000480304
0.000496335
0.000503273
0.000509107
0.000515847
0.000522376
0.000527156
0.000528613
0.00052512
0.0011588
0.00119488
0.00127622
0.00139532
0.00157019
0.00178528
0.00207895
0.00241451
0.00286833
0.00336256
0.00404735
0.00475406
0.00578645
0.0067831
0.008418
0.00981413
0.0126806
0.0143965
0.0193978
0.0124769
0.00115746
0.00119369
0.00127439
0.00139322
0.00156651
0.00178084
0.00207119
0.00240504
0.00285165
0.00334235
0.0040105
0.00470967
0.00569913
0.00667795
0.00817755
0.00952432
0.0117925
0.0133479
0.0152764
0.0149331
0.00114817
0.00118443
0.00126382
0.00138175
0.00155202
0.00176467
0.00204891
0.00237988
0.00281422
0.00330005
0.00394225
0.00463239
0.0055606
0.00651991
0.00784936
0.00913556
0.0108511
0.0122104
0.0128855
0.0132312
0.00113106
0.00116712
0.00124462
0.00136088
0.00152692
0.00173653
0.00201255
0.00233851
0.00275717
0.00323494
0.00384574
0.00452142
0.00538049
0.00630934
0.00746751
0.00866777
0.0099411
0.0111492
0.0110689
0.0113894
0.00110629
0.00114187
0.001217
0.00133078
0.00149153
0.00169662
0.00196271
0.00228126
0.00268177
0.00314764
0.00372394
0.00437839
0.00516699
0.00605199
0.00705561
0.0081526
0.00910833
0.0101557
0.00971102
0.00984388
0.00107406
0.0011089
0.00118119
0.00129169
0.00144621
0.00164531
0.00190001
0.00220873
0.00258923
0.00303932
0.0035795
0.00420614
0.00492622
0.00575733
0.00662755
0.00761811
0.00834347
0.00921876
0.00864334
0.00856252
0.00103462
0.00106843
0.00113747
0.00124391
0.00139136
0.00158303
0.00182511
0.00212165
0.00248073
0.00291137
0.00341475
0.00400797
0.00466299
0.0054342
0.00619084
0.00707358
0.00763269
0.00834063
0.00776796
0.00752052
0.000988266
0.00102076
0.0010862
0.00118782
0.00132744
0.0015103
0.0017387
0.00202084
0.00235743
0.00276531
0.0032318
0.00378721
0.0043812
0.00508879
0.00574902
0.0065259
0.0069668
0.00752639
0.00702546
0.00668745
0.000935327
0.000966239
0.00102773
0.00112383
0.00125494
0.0014277
0.00164149
0.00190722
0.00222045
0.00260276
0.00303251
0.00354689
0.00408372
0.00472607
0.00530423
0.00598093
0.00633918
0.00677603
0.00637456
0.00601261
0.000876173
0.000905248
0.000962494
0.0010524
0.00117439
0.00133587
0.00153421
0.00178176
0.00207088
0.00242535
0.00281857
0.00328973
0.0037728
0.00435011
0.00485786
0.0054426
0.00574343
0.00608371
0.00578467
0.00544569
0.000811211
0.000838215
0.000890938
0.000974061
0.00108635
0.0012355
0.00141763
0.00164548
0.00190979
0.00223461
0.00259149
0.00301811
0.00345032
0.00396405
0.00441064
0.00491277
0.00517292
0.00544021
0.00523383
0.00494665
0.000740882
0.000765607
0.00081355
0.000889351
0.000991407
0.00112731
0.00129251
0.00149938
0.00173824
0.00203202
0.00235267
0.0027341
0.00311776
0.00357022
0.00396267
0.00439154
0.00462124
0.00483516
0.00470665
0.00448482
0.000665657
0.00068792
0.000730851
0.000798854
0.000890196
0.00101204
0.00115966
0.00134448
0.00155727
0.00181895
0.00210336
0.00243945
0.00277633
0.00317014
0.00351353
0.00387771
0.00408252
0.00425819
0.00419183
0.00403718
0.000586041
0.000605681
0.000643388
0.00070318
0.000783364
0.000890464
0.0010199
0.00118179
0.00136789
0.00159667
0.00184473
0.00213561
0.00242696
0.00276473
0.00306244
0.00336923
0.00355155
0.00369959
0.00368039
0.00358695
0.000502561
0.000519446
0.000551736
0.000602956
0.000671584
0.000763357
0.000874056
0.00101228
0.00117111
0.00136637
0.00157784
0.00182376
0.00207037
0.0023544
0.00260841
0.00286358
0.00302364
0.00315054
0.00316498
0.00312223
0.000415769
0.000429786
0.000456501
0.00049884
0.000555536
0.000631493
0.000722999
0.000836947
0.000967906
0.00112908
0.00130368
0.00150496
0.00170713
0.00193914
0.00215024
0.00235794
0.00249471
0.00260323
0.00263917
0.00263515
0.000326239
0.000337288
0.000358291
0.000391523
0.000435977
0.000495648
0.000567529
0.00065679
0.000759366
0.000885837
0.00102305
0.00117999
0.00133785
0.00151883
0.00168662
0.00184936
0.00196097
0.00205153
0.00209715
0.002119
0.000234567
0.000242581
0.000257731
0.000281623
0.000313666
0.000356794
0.000408587
0.000472622
0.000546449
0.000637902
0.000737135
0.000849567
0.000962847
0.00109338
0.00121675
0.00133523
0.00141901
0.00149002
0.00153606
0.00156886
0.000141321
0.000146278
0.000155585
0.000169839
0.000189074
0.000215613
0.00024748
0.000285747
0.000329778
0.000385654
0.000447225
0.000515421
0.000583005
0.000661921
0.000739528
0.000814242
0.000867458
0.000914302
0.00095374
0.000988624
4.71424e-05
4.88493e-05
5.22959e-05
5.70827e-05
6.30905e-05
7.20434e-05
8.38737e-05
9.70497e-05
0.000110933
0.00012893
0.000151375
0.000176515
0.000199285
0.000224137
0.000250718
0.000280521
0.000303448
0.00032234
0.000337556
0.000367979
0.00110468
0.00113843
0.00121807
0.00133114
0.00150299
0.00170725
0.00199847
0.00231695
0.00277259
0.00324179
0.00394034
0.00460965
0.00568517
0.00662357
0.00838232
0.00968654
0.0129842
0.0147211
0.0230172
0.0211576
0.00111306
0.00114703
0.00122723
0.00134096
0.00151399
0.0017194
0.00201257
0.00233264
0.00279139
0.00326246
0.0039662
0.00463747
0.00572335
0.00666351
0.0084498
0.00976048
0.0131736
0.0150339
0.0240916
0.0250592
0.00112072
0.00115494
0.00123556
0.00135002
0.00152392
0.00173062
0.00202514
0.00234715
0.00280782
0.00328158
0.00398819
0.00466313
0.00575451
0.00670002
0.0085022
0.0098258
0.0133171
0.0152973
0.0248155
0.0278398
0.00112768
0.00116213
0.00124312
0.00135824
0.00153289
0.00174076
0.0020364
0.00236017
0.00282234
0.00329853
0.00400717
0.00468543
0.00578034
0.00673066
0.00854268
0.00987735
0.0134195
0.0154895
0.0253035
0.0296908
0.00113395
0.00116861
0.00124991
0.00136562
0.00154089
0.0017498
0.00204635
0.00237166
0.00283498
0.00331323
0.00402322
0.00470423
0.00580099
0.00675513
0.00857147
0.00991402
0.0134802
0.0156026
0.0255715
0.0307029
0.0011395
0.00117436
0.00125591
0.00137216
0.00154792
0.00175775
0.00205498
0.00238165
0.0028457
0.00332574
0.00403627
0.00471961
0.00581629
0.00677358
0.0085882
0.00993586
0.0134979
0.0156334
0.0256183
0.0309061
0.00114435
0.00117939
0.00126113
0.00137785
0.00155398
0.00176461
0.0020623
0.00239012
0.0028545
0.00333604
0.00404633
0.00473158
0.00582627
0.00678602
0.00859285
0.00994287
0.0134726
0.0155817
0.0254421
0.0303026
0.00114848
0.00118368
0.00126557
0.00138268
0.00155908
0.00177035
0.00206831
0.00239705
0.00286144
0.00334407
0.0040535
0.00474
0.00583115
0.0067922
0.00858596
0.00993485
0.0134057
0.0154495
0.0250459
0.0288754
0.0011519
0.00118725
0.00126922
0.00138667
0.0015632
0.00177501
0.002073
0.00240247
0.00286647
0.00334992
0.00405773
0.00474503
0.00583091
0.00679244
0.00856773
0.00991284
0.0132977
0.015243
0.0244308
0.0265602
0.00115459
0.00119013
0.00127203
0.00138989
0.00156621
0.00177878
0.00207609
0.00240682
0.00286903
0.00335443
0.00405788
0.00474831
0.00582341
0.00678981
0.00853452
0.00988344
0.0131396
0.0149857
0.0234389
0.0230845
)
;

boundaryField
{
    inlet
    {
        type            zeroGradient;
    }
    outlet
    {
        type            fixedValue;
        value           uniform 0;
    }
    upAndBottom
    {
        type            empty;
    }
    obstacle
    {
        type            zeroGradient;
    }
}


// ************************************************************************* //
