x,y,z,p
0,0,0,0.0494
0,0.1,0,0.108797
0,0.2,0,0.168194
0,0.3,0,0.237582
0,0.4,0,0.316961
0,0.5,0,0.396341
0,0.6,0,0.47592
0,0.7,0,0.555499
0,0.8,0,0.635217
0,0.9,0,0.715072
0,1,0,0.794927
0,1.1,0,0.875115
0,1.2,0,0.955303
0,1.3,0,1.03566
0,1.4,0,1.11618
0,1.5,0,1.1967
0,1.6,0,1.27767
0,1.7,0,1.35864
0,1.8,0,1.43987
0,1.9,0,1.52136
0,2,0,1.60284
0,2.1,0,1.68521
0,2.2,0,1.76757
0,2.3,0,1.8505
0,2.4,0,1.93399
0,2.5,0,2.01748
0,2.6,0,2.1022
0,2.7,0,2.18692
0,2.8,0,2.27218
0,2.9,0,2.358
0,3,0,2.44381
0,3.1,0,2.52952
0,3.2,0,2.61522
0,3.3,0,2.70008
0,3.4,0,2.78408
0,3.5,0,2.86808
0,3.6,0,2.94854
0,3.7,0,3.02899
0,3.8,0,3.1071
0,3.9,0,3.18287
0,4,0,3.25863
0,4.1,0,3.33008
0,4.2,0,3.40153
0,4.3,0,3.47122
0,4.4,0,3.53916
0,4.5,0,3.6071
0,4.6,0,3.67118
0,4.7,0,3.73527
0,4.8,0,3.79787
0,4.9,0,3.85897
0,5,0,3.92007
0,5.1,0,3.96846
0,5.2,0,4.01684
0,5.3,0,4.06523
0,5.4,0,4.10564
0,5.5,0,4.14605
0,5.6,0,4.18646
0,5.7,0,4.21586
0,5.8,0,4.24525
0,5.9,0,4.27465
0,6,0,4.29238
0,6.1,0,4.31012
0,6.2,0,4.32785
0,6.3,0,4.33315
0,6.4,0,4.33844
0,6.5,0,4.34374
0,6.6,0,4.33622
0,6.7,0,4.3287
0,6.8,0,4.32118
0,6.9,0,4.30114
0,7,0,4.28109
0,7.1,0,4.26105
0,7.2,0,4.22919
0,7.3,0,4.19734
0,7.4,0,4.16548
0,7.5,0,4.12258
0,7.6,0,4.07967
0,7.7,0,4.03676
0,7.8,0,3.98661
0,7.9,0,3.93645
0,8,0,3.88629
0,8.1,0,3.82128
0,8.2,0,3.75626
0,8.3,0,3.68972
0,8.4,0,3.62235
0,8.5,0,3.55367
0,8.6,0,3.48192
0,8.7,0,3.41016
0,8.8,0,3.33567
0,8.9,0,3.26104
0,9,0,3.18471
0,9.1,0,3.10724
0,9.2,0,3.02879
0,9.3,0,2.94737
0,9.4,0,2.86595
0,9.5,0,2.78074
0,9.6,0,2.69511
0,9.7,0,2.60767
0,9.8,0,2.51875
0,9.9,0,2.42948
0,10,0,2.33879
0,10.1,0,2.24809
0,10.2,0,2.15754
0,10.3,0,2.06702
0,10.4,0,1.97701
0,10.5,0,1.88751
0,10.6,0,1.79822
0,10.7,0,1.7101
0,10.8,0,1.62198
0,10.9,0,1.53489
0,11,0,1.44805
0,11.1,0,1.36157
0,11.2,0,1.27552
0,11.3,0,1.18953
0,11.4,0,1.10409
0,11.5,0,1.01866
0,11.6,0,0.933421
0,11.7,0,0.84825
0,11.8,0,0.763137
0,11.9,0,0.678111
0,12,0,0.593092
0,12.1,0,0.508213
0,12.2,0,0.423335
0,12.3,0,0.338543
0,12.4,0,0.25379
0,12.5,0,0.176506
0,12.6,0,0.113093
0,12.7,0,0.049681
0.1,0,0,0.02964
0.1,0.1,0,0.08892
0.1,0.2,0,0.158236
0.1,0.3,0,0.23751
0.1,0.4,0,0.316855
0.1,0.5,0,0.396303
0.1,0.6,0,0.475827
0.1,0.7,0,0.555472
0.1,0.8,0,0.635145
0.1,0.9,0,0.714889
0.1,1,0,0.795127
0.1,1.1,0,0.874965
0.1,1.2,0,0.955452
0.1,1.3,0,1.03579
0.1,1.4,0,1.11599
0.1,1.5,0,1.19756
0.1,1.6,0,1.27739
0.1,1.7,0,1.35916
0.1,1.8,0,1.44041
0.1,1.9,0,1.52111
0.1,2,0,1.60456
0.1,2.1,0,1.68458
0.1,2.2,0,1.76815
0.1,2.3,0,1.85114
0.1,2.4,0,1.93349
0.1,2.5,0,2.01871
0.1,2.6,0,2.10147
0.1,2.7,0,2.18648
0.1,2.8,0,2.27193
0.1,2.9,0,2.35763
0.1,3,0,2.44132
0.1,3.1,0,2.52999
0.1,3.2,0,2.61284
0.1,3.3,0,2.69807
0.1,3.4,0,2.7853
0.1,3.5,0,2.86072
0.1,3.6,0,2.95086
0.1,3.7,0,3.0263
0.1,3.8,0,3.10444
0.1,3.9,0,3.18524
0.1,4,0,3.25279
0.1,4.1,0,3.33203
0.1,4.2,0,3.40109
0.1,4.3,0,3.47059
0.1,4.4,0,3.54072
0.1,4.5,0,3.60691
0.1,4.6,0,3.67347
0.1,4.7,0,3.7371
0.1,4.8,0,3.79891
0.1,4.9,0,3.85968
0.1,5,0,3.92235
0.1,5.1,0,3.97142
0.1,5.2,0,4.01995
0.1,5.3,0,4.06837
0.1,5.4,0,4.11155
0.1,5.5,0,4.15212
0.1,5.6,0,4.19055
0.1,5.7,0,4.22216
0.1,5.8,0,4.25167
0.1,5.9,0,4.27941
0.1,6,0,4.29922
0.1,6.1,0,4.31699
0.1,6.2,0,4.33284
0.1,6.3,0,4.34038
0.1,6.4,0,4.34568
0.1,6.5,0,4.34877
0.1,6.6,0,4.34347
0.1,6.7,0,4.33595
0.1,6.8,0,4.3262
0.1,6.9,0,4.30808
0.1,7,0,4.28801
0.1,7.1,0,4.26589
0.1,7.2,0,4.2357
0.1,7.3,0,4.20376
0.1,7.4,0,4.16979
0.1,7.5,0,4.12864
0.1,7.6,0,4.08558
0.1,7.7,0,4.04013
0.1,7.8,0,3.98908
0.1,7.9,0,3.93875
0.1,8,0,3.88864
0.1,8.1,0,3.82092
0.1,8.2,0,3.75706
0.1,8.3,0,3.69196
0.1,8.4,0,3.62442
0.1,8.5,0,3.55458
0.1,8.6,0,3.48346
0.1,8.7,0,3.4093
0.1,8.8,0,3.33683
0.1,8.9,0,3.25944
0.1,9,0,3.18435
0.1,9.1,0,3.10712
0.1,9.2,0,3.02457
0.1,9.3,0,2.94958
0.1,9.4,0,2.8589
0.1,9.5,0,2.78207
0.1,9.6,0,2.69192
0.1,9.7,0,2.60525
0.1,9.8,0,2.51906
0.1,9.9,0,2.42515
0.1,10,0,2.33912
0.1,10.1,0,2.24589
0.1,10.2,0,2.15683
0.1,10.3,0,2.06664
0.1,10.4,0,1.97665
0.1,10.5,0,1.88723
0.1,10.6,0,1.79923
0.1,10.7,0,1.70925
0.1,10.8,0,1.62346
0.1,10.9,0,1.5349
0.1,11,0,1.44874
0.1,11.1,0,1.36251
0.1,11.2,0,1.27524
0.1,11.3,0,1.19116
0.1,11.4,0,1.1039
0.1,11.5,0,1.01958
0.1,11.6,0,0.933646
0.1,11.7,0,0.848538
0.1,11.8,0,0.763613
0.1,11.9,0,0.678028
0.1,12,0,0.593622
0.1,12.1,0,0.508158
0.1,12.2,0,0.423541
0.1,12.3,0,0.338582
0.1,12.4,0,0.253799
0.1,12.5,0,0.169164
0.1,12.6,0,0.0930942
0.1,12.7,0,0.0298086
0.2,0,0,0.00988
0.2,0.1,0,0.0790794
0.2,0.2,0,0.158198
0.2,0.3,0,0.237472
0.2,0.4,0,0.316852
0.2,0.5,0,0.396266
0.2,0.6,0,0.475855
0.2,0.7,0,0.555512
0.2,0.8,0,0.635184
0.2,0.9,0,0.7152
0.2,1,0,0.795327
0.2,1.1,0,0.875464
0.2,1.2,0,0.9559
0.2,1.3,0,1.03624
0.2,1.4,0,1.11718
0.2,1.5,0,1.19843
0.2,1.6,0,1.27906
0.2,1.7,0,1.36048
0.2,1.8,0,1.44172
0.2,1.9,0,1.52361
0.2,2,0,1.60628
0.2,2.1,0,1.68751
0.2,2.2,0,1.76995
0.2,2.3,0,1.85294
0.2,2.4,0,1.93587
0.2,2.5,0,2.01994
0.2,2.6,0,2.103
0.2,2.7,0,2.18635
0.2,2.8,0,2.27179
0.2,2.9,0,2.35526
0.2,3,0,2.43884
0.2,3.1,0,2.52465
0.2,3.2,0,2.60761
0.2,3.3,0,2.69284
0.2,3.4,0,2.77471
0.2,3.5,0,2.85335
0.2,3.6,0,2.93848
0.2,3.7,0,3.0186
0.2,3.8,0,3.09674
0.2,3.9,0,3.17436
0.2,4,0,3.24694
0.2,4.1,0,3.32379
0.2,4.2,0,3.39825
0.2,4.3,0,3.46775
0.2,4.4,0,3.53834
0.2,4.5,0,3.60673
0.2,4.6,0,3.67283
0.2,4.7,0,3.73848
0.2,4.8,0,3.80029
0.2,4.9,0,3.86229
0.2,5,0,3.92462
0.2,5.1,0,3.97371
0.2,5.2,0,4.02282
0.2,5.3,0,4.07151
0.2,5.4,0,4.1139
0.2,5.5,0,4.15511
0.2,5.6,0,4.19465
0.2,5.7,0,4.22559
0.2,5.8,0,4.25555
0.2,5.9,0,4.28417
0.2,6,0,4.30322
0.2,6.1,0,4.32115
0.2,6.2,0,4.33783
0.2,6.3,0,4.34448
0.2,6.4,0,4.34981
0.2,6.5,0,4.3538
0.2,6.6,0,4.34761
0.2,6.7,0,4.34008
0.2,6.8,0,4.33121
0.2,6.9,0,4.31227
0.2,7,0,4.29208
0.2,7.1,0,4.27074
0.2,7.2,0,4.2397
0.2,7.3,0,4.2074
0.2,7.4,0,4.17409
0.2,7.5,0,4.13193
0.2,7.6,0,4.08824
0.2,7.7,0,4.0435
0.2,7.8,0,3.99246
0.2,7.9,0,3.94146
0.2,8,0,3.89099
0.2,8.1,0,3.82414
0.2,8.2,0,3.75855
0.2,8.3,0,3.69307
0.2,8.4,0,3.62476
0.2,8.5,0,3.55518
0.2,8.6,0,3.48218
0.2,8.7,0,3.40829
0.2,8.8,0,3.3334
0.2,8.9,0,3.2558
0.2,9,0,3.17959
0.2,9.1,0,3.09904
0.2,9.2,0,3.01803
0.2,9.3,0,2.93732
0.2,9.4,0,2.85075
0.2,9.5,0,2.76959
0.2,9.6,0,2.6842
0.2,9.7,0,2.59694
0.2,9.8,0,2.51029
0.2,9.9,0,2.41956
0.2,10,0,2.33283
0.2,10.1,0,2.2432
0.2,10.2,0,2.15425
0.2,10.3,0,2.06631
0.2,10.4,0,1.97645
0.2,10.5,0,1.88867
0.2,10.6,0,1.80059
0.2,10.7,0,1.71225
0.2,10.8,0,1.62555
0.2,10.9,0,1.53788
0.2,11,0,1.4511
0.2,11.1,0,1.36467
0.2,11.2,0,1.27824
0.2,11.3,0,1.19301
0.2,11.4,0,1.10642
0.2,11.5,0,1.0209
0.2,11.6,0,0.935249
0.2,11.7,0,0.849617
0.2,11.8,0,0.764501
0.2,11.9,0,0.67908
0.2,12,0,0.594185
0.2,12.1,0,0.508886
0.2,12.2,0,0.423871
0.2,12.3,0,0.338968
0.2,12.4,0,0.254041
0.2,12.5,0,0.169332
0.2,12.6,0,0.0845843
0.2,12.7,0,0.0099362
0.3,0,0,0
0.3,0.1,0,0.0790153
0.3,0.2,0,0.158134
0.3,0.3,0,0.237384
0.3,0.4,0,0.316764
0.3,0.5,0,0.396143
0.3,0.6,0,0.475792
0.3,0.7,0,0.555448
0.3,0.8,0,0.635405
0.3,0.9,0,0.715421
0.3,1,0,0.795241
0.3,1.1,0,0.876044
0.3,1.2,0,0.95648
0.3,1.3,0,1.03745
0.3,1.4,0,1.11839
0.3,1.5,0,1.19881
0.3,1.6,0,1.28132
0.3,1.7,0,1.36274
0.3,1.8,0,1.44474
0.3,1.9,0,1.52662
0.3,2,0,1.60726
0.3,2.1,0,1.69136
0.3,2.2,0,1.7738
0.3,2.3,0,1.85626
0.3,2.4,0,1.93919
0.3,2.5,0,2.02059
0.3,2.6,0,2.10461
0.3,2.7,0,2.18795
0.3,2.8,0,2.26963
0.3,2.9,0,2.3531
0.3,3,0,2.43715
0.3,3.1,0,2.51687
0.3,3.2,0,2.59983
0.3,3.3,0,2.67969
0.3,3.4,0,2.76156
0.3,3.5,0,2.849
0.3,3.6,0,2.92218
0.3,3.7,0,3.0023
0.3,3.8,0,3.08223
0.3,3.9,0,3.15985
0.3,4,0,3.24405
0.3,4.1,0,3.3149
0.3,4.2,0,3.38936
0.3,4.3,0,3.46528
0.3,4.4,0,3.53587
0.3,4.5,0,3.60911
0.3,4.6,0,3.67457
0.3,4.7,0,3.74022
0.3,4.8,0,3.80405
0.3,4.9,0,3.86605
0.3,5,0,3.93064
0.3,5.1,0,3.97903
0.3,5.2,0,4.02813
0.3,5.3,0,4.0789
0.3,5.4,0,4.12115
0.3,5.5,0,4.16235
0.3,5.6,0,4.20334
0.3,5.7,0,4.23473
0.3,5.8,0,4.26468
0.3,5.9,0,4.29388
0.3,6,0,4.31313
0.3,6.1,0,4.33106
0.3,6.2,0,4.34807
0.3,6.3,0,4.35454
0.3,6.4,0,4.35987
0.3,6.5,0,4.36418
0.3,6.6,0,4.35769
0.3,6.7,0,4.35015
0.3,6.8,0,4.3415
0.3,6.9,0,4.32225
0.3,7,0,4.30207
0.3,7.1,0,4.28059
0.3,7.2,0,4.2491
0.3,7.3,0,4.21679
0.3,7.4,0,4.18303
0.3,7.5,0,4.13976
0.3,7.6,0,4.09607
0.3,7.7,0,4.05114
0.3,7.8,0,3.9981
0.3,7.9,0,3.9471
0.3,8,0,3.89724
0.3,8.1,0,3.82785
0.3,8.2,0,3.76257
0.3,8.3,0,3.69531
0.3,8.4,0,3.627
0.3,8.5,0,3.55654
0.3,8.6,0,3.48237
0.3,8.7,0,3.40951
0.3,8.8,0,3.3292
0.3,8.9,0,3.25204
0.3,9,0,3.16922
0.3,9.1,0,3.08867
0.3,9.2,0,3.00791
0.3,9.3,0,2.92152
0.3,9.4,0,2.84351
0.3,9.5,0,2.75278
0.3,9.6,0,2.66791
0.3,9.7,0,2.58287
0.3,9.8,0,2.49622
0.3,9.9,0,2.41395
0.3,10,0,2.32455
0.3,10.1,0,2.23925
0.3,10.2,0,2.15179
0.3,10.3,0,2.06385
0.3,10.4,0,1.97787
0.3,10.5,0,1.89009
0.3,10.6,0,1.80236
0.3,10.7,0,1.71627
0.3,10.8,0,1.62799
0.3,10.9,0,1.54226
0.3,11,0,1.45548
0.3,11.1,0,1.36878
0.3,11.2,0,1.28248
0.3,11.3,0,1.19463
0.3,11.4,0,1.10957
0.3,11.5,0,1.02297
0.3,11.6,0,0.937381
0.3,11.7,0,0.851749
0.3,11.8,0,0.765789
0.3,11.9,0,0.680503
0.3,12,0,0.594563
0.3,12.1,0,0.509716
0.3,12.2,0,0.424479
0.3,12.3,0,0.339457
0.3,12.4,0,0.254531
0.3,12.5,0,0.169506
0.3,12.6,0,0.0847654
0.3,12.7,0,0
0.4,0,0,0
0.4,0.1,0,0.0789118
0.4,0.2,0,0.158107
0.4,0.3,0,0.237357
0.4,0.4,0,0.316558
0.4,0.5,0,0.395936
0.4,0.6,0,0.475578
0.4,0.7,0,0.555115
0.4,0.8,0,0.635071
0.4,0.9,0,0.715243
0.4,1,0,0.794867
0.4,1.1,0,0.876039
0.4,1.2,0,0.95618
0.4,1.3,0,1.03715
0.4,1.4,0,1.1188
0.4,1.5,0,1.1987
0.4,1.6,0,1.28229
0.4,1.7,0,1.36279
0.4,1.8,0,1.44478
0.4,1.9,0,1.52812
0.4,2,0,1.6075
0.4,2.1,0,1.69327
0.4,2.2,0,1.77407
0.4,2.3,0,1.85653
0.4,2.4,0,1.94077
0.4,2.5,0,2.02065
0.4,2.6,0,2.10533
0.4,2.7,0,2.18763
0.4,2.8,0,2.2693
0.4,2.9,0,2.35162
0.4,3,0,2.43626
0.4,3.1,0,2.51274
0.4,3.2,0,2.59856
0.4,3.3,0,2.67842
0.4,3.4,0,2.75464
0.4,3.5,0,2.84764
0.4,3.6,0,2.9139
0.4,3.7,0,3.00126
0.4,3.8,0,3.08119
0.4,3.9,0,3.15334
0.4,4,0,3.24412
0.4,4.1,0,3.31137
0.4,4.2,0,3.39155
0.4,4.3,0,3.46747
0.4,4.4,0,3.53816
0.4,4.5,0,3.61404
0.4,4.6,0,3.67932
0.4,4.7,0,3.74778
0.4,4.8,0,3.81161
0.4,4.9,0,3.87322
0.4,5,0,3.94041
0.4,5.1,0,3.98831
0.4,5.2,0,4.03867
0.4,5.3,0,4.09054
0.4,5.4,0,4.13348
0.4,5.5,0,4.17579
0.4,5.6,0,4.21663
0.4,5.7,0,4.24897
0.4,5.8,0,4.27984
0.4,5.9,0,4.30854
0.4,6,0,4.32868
0.4,6.1,0,4.34715
0.4,6.2,0,4.36354
0.4,6.3,0,4.37078
0.4,6.4,0,4.37628
0.4,6.5,0,4.37991
0.4,6.6,0,4.37411
0.4,6.7,0,4.36646
0.4,6.8,0,4.35706
0.4,6.9,0,4.33844
0.4,7,0,4.31778
0.4,7.1,0,4.29544
0.4,7.2,0,4.26449
0.4,7.3,0,4.23133
0.4,7.4,0,4.19658
0.4,7.5,0,4.1536
0.4,7.6,0,4.10881
0.4,7.7,0,4.06305
0.4,7.8,0,4.00866
0.4,7.9,0,3.95648
0.4,8,0,3.90738
0.4,8.1,0,3.83442
0.4,8.2,0,3.7709
0.4,8.3,0,3.70299
0.4,8.4,0,3.63292
0.4,8.5,0,3.56276
0.4,8.6,0,3.48567
0.4,8.7,0,3.4132
0.4,8.8,0,3.32972
0.4,8.9,0,3.25318
0.4,9,0,3.16896
0.4,9.1,0,3.08544
0.4,9.2,0,3.00715
0.4,9.3,0,2.91348
0.4,9.4,0,2.84183
0.4,9.5,0,2.74455
0.4,9.6,0,2.66604
0.4,9.7,0,2.58001
0.4,9.8,0,2.49039
0.4,9.9,0,2.41227
0.4,10,0,2.31987
0.4,10.1,0,2.2381
0.4,10.2,0,2.15011
0.4,10.3,0,2.06327
0.4,10.4,0,1.9774
0.4,10.5,0,1.89066
0.4,10.6,0,1.80245
0.4,10.7,0,1.71826
0.4,10.8,0,1.62843
0.4,10.9,0,1.54399
0.4,11,0,1.45633
0.4,11.1,0,1.36933
0.4,11.2,0,1.28466
0.4,11.3,0,1.19518
0.4,11.4,0,1.11129
0.4,11.5,0,1.02331
0.4,11.6,0,0.938217
0.4,11.7,0,0.85215
0.4,11.8,0,0.765932
0.4,11.9,0,0.681201
0.4,12,0,0.594648
0.4,12.1,0,0.510116
0.4,12.2,0,0.42458
0.4,12.3,0,0.339636
0.4,12.4,0,0.254721
0.4,12.5,0,0.169642
0.4,12.6,0,0.0848079
0.4,12.7,0,0
0.5,0,0,0
0.5,0.1,0,0.0790914
0.5,0.2,0,0.158183
0.5,0.3,0,0.237328
0.5,0.4,0,0.316528
0.5,0.5,0,0.395729
0.5,0.6,0,0.475259
0.5,0.7,0,0.554789
0.5,0.8,0,0.634542
0.5,0.9,0,0.714517
0.5,1,0,0.794493
0.5,1.1,0,0.875002
0.5,1.2,0,0.955512
0.5,1.3,0,1.03633
0.5,1.4,0,1.11746
0.5,1.5,0,1.19859
0.5,1.6,0,1.28017
0.5,1.7,0,1.36175
0.5,1.8,0,1.44358
0.5,1.9,0,1.52566
0.5,2,0,1.60774
0.5,2.1,0,1.69021
0.5,2.2,0,1.77267
0.5,2.3,0,1.85527
0.5,2.4,0,1.93799
0.5,2.5,0,2.02071
0.5,2.6,0,2.10367
0.5,2.7,0,2.18663
0.5,2.8,0,2.26957
0.5,2.9,0,2.35247
0.5,3,0,2.43537
0.5,3.1,0,2.51795
0.5,3.2,0,2.60054
0.5,3.3,0,2.68272
0.5,3.4,0,2.7645
0.5,3.5,0,2.84629
0.5,3.6,0,2.92672
0.5,3.7,0,3.00715
0.5,3.8,0,3.08673
0.5,3.9,0,3.16546
0.5,4,0,3.24419
0.5,4.1,0,3.32077
0.5,4.2,0,3.39735
0.5,4.3,0,3.4723
0.5,4.4,0,3.54564
0.5,4.5,0,3.61898
0.5,4.6,0,3.68725
0.5,4.7,0,3.75552
0.5,4.8,0,3.82176
0.5,4.9,0,3.88596
0.5,5,0,3.95017
0.5,5.1,0,4.00084
0.5,5.2,0,4.05151
0.5,5.3,0,4.10219
0.5,5.4,0,4.14476
0.5,5.5,0,4.18734
0.5,5.6,0,4.22992
0.5,5.7,0,4.26102
0.5,5.8,0,4.29211
0.5,5.9,0,4.3232
0.5,6,0,4.34181
0.5,6.1,0,4.36041
0.5,6.2,0,4.37902
0.5,6.3,0,4.38456
0.5,6.4,0,4.3901
0.5,6.5,0,4.39565
0.5,6.6,0,4.38797
0.5,6.7,0,4.3803
0.5,6.8,0,4.37262
0.5,6.9,0,4.35184
0.5,7,0,4.33107
0.5,7.1,0,4.31029
0.5,7.2,0,4.27691
0.5,7.3,0,4.24352
0.5,7.4,0,4.21014
0.5,7.5,0,4.16508
0.5,7.6,0,4.12002
0.5,7.7,0,4.07496
0.5,7.8,0,4.02248
0.5,7.9,0,3.97
0.5,8,0,3.91752
0.5,8.1,0,3.84966
0.5,8.2,0,3.7818
0.5,8.3,0,3.71219
0.5,8.4,0,3.64166
0.5,8.5,0,3.56943
0.5,8.6,0,3.49326
0.5,8.7,0,3.4171
0.5,8.8,0,3.33715
0.5,8.9,0,3.257
0.5,9,0,3.17539
0.5,9.1,0,3.09281
0.5,9.2,0,3.00985
0.5,9.3,0,2.92574
0.5,9.4,0,2.84162
0.5,9.5,0,2.75638
0.5,9.6,0,2.67102
0.5,9.7,0,2.58506
0.5,9.8,0,2.49861
0.5,9.9,0,2.41204
0.5,10,0,2.32499
0.5,10.1,0,2.23794
0.5,10.2,0,2.15071
0.5,10.3,0,2.06344
0.5,10.4,0,1.97625
0.5,10.5,0,1.88911
0.5,10.6,0,1.80201
0.5,10.7,0,1.71505
0.5,10.8,0,1.62809
0.5,10.9,0,1.54137
0.5,11,0,1.4547
0.5,11.1,0,1.36817
0.5,11.2,0,1.28181
0.5,11.3,0,1.19546
0.5,11.4,0,1.10924
0.5,11.5,0,1.02302
0.5,11.6,0,0.937078
0.5,11.7,0,0.851235
0.5,11.8,0,0.765555
0.5,11.9,0,0.680119
0.5,12,0,0.5947
0.5,12.1,0,0.50959
0.5,12.2,0,0.424481
0.5,12.3,0,0.339526
0.5,12.4,0,0.254637
0.5,12.5,0,0.169752
0.5,12.6,0,0.0848761
0.5,12.7,0,0
0.6,0,0,0
0.6,0.1,0,0.0792537
0.6,0.2,0,0.158166
0.6,0.3,0,0.237116
0.6,0.4,0,0.316299
0.6,0.5,0,0.395252
0.6,0.6,0,0.474479
0.6,0.7,0,0.554055
0.6,0.8,0,0.633619
0.6,0.9,0,0.71336
0.6,1,0,0.79366
0.6,1.1,0,0.873331
0.6,1.2,0,0.954218
0.6,1.3,0,1.0349
0.6,1.4,0,1.11552
0.6,1.5,0,1.19748
0.6,1.6,0,1.27776
0.6,1.7,0,1.35998
0.6,1.8,0,1.44143
0.6,1.9,0,1.5225
0.6,2,0,1.60664
0.6,2.1,0,1.68708
0.6,2.2,0,1.77052
0.6,2.3,0,1.85306
0.6,2.4,0,1.93476
0.6,2.5,0,2.01969
0.6,2.6,0,2.10197
0.6,2.7,0,2.18553
0.6,2.8,0,2.26981
0.6,2.9,0,2.35347
0.6,3,0,2.43599
0.6,3.1,0,2.52364
0.6,3.2,0,2.6046
0.6,3.3,0,2.68943
0.6,3.4,0,2.77549
0.6,3.5,0,2.85091
0.6,3.6,0,2.94112
0.6,3.7,0,3.01784
0.6,3.8,0,3.09719
0.6,3.9,0,3.17939
0.6,4,0,3.25351
0.6,4.1,0,3.33267
0.6,4.2,0,3.40903
0.6,4.3,0,3.48377
0.6,4.4,0,3.5571
0.6,4.5,0,3.63247
0.6,4.6,0,3.70133
0.6,4.7,0,3.77039
0.6,4.8,0,3.83695
0.6,4.9,0,3.9007
0.6,5,0,3.96834
0.6,5.1,0,4.02006
0.6,5.2,0,4.0712
0.6,5.3,0,4.12318
0.6,5.4,0,4.16851
0.6,5.5,0,4.21151
0.6,5.6,0,4.25348
0.6,5.7,0,4.28684
0.6,5.8,0,4.31825
0.6,5.9,0,4.34865
0.6,6,0,4.36965
0.6,6.1,0,4.38845
0.6,6.2,0,4.40567
0.6,6.3,0,4.41342
0.6,6.4,0,4.41904
0.6,6.5,0,4.42276
0.6,6.6,0,4.41695
0.6,6.7,0,4.40921
0.6,6.8,0,4.39938
0.6,6.9,0,4.3801
0.6,7,0,4.35914
0.6,7.1,0,4.33594
0.6,7.2,0,4.30334
0.6,7.3,0,4.26967
0.6,7.4,0,4.23402
0.6,7.5,0,4.18939
0.6,7.6,0,4.14393
0.6,7.7,0,4.09644
0.6,7.8,0,4.04162
0.6,7.9,0,3.98868
0.6,8,0,3.93623
0.6,8.1,0,3.86402
0.6,8.2,0,3.79727
0.6,8.3,0,3.7279
0.6,8.4,0,3.65676
0.6,8.5,0,3.58281
0.6,8.6,0,3.50552
0.6,8.7,0,3.42913
0.6,8.8,0,3.34741
0.6,8.9,0,3.26727
0.6,9,0,3.18623
0.6,9.1,0,3.10341
0.6,9.2,0,3.01956
0.6,9.3,0,2.93914
0.6,9.4,0,2.84863
0.6,9.5,0,2.76971
0.6,9.6,0,2.67968
0.6,9.7,0,2.59305
0.6,9.8,0,2.50806
0.6,9.9,0,2.41472
0.6,10,0,2.33041
0.6,10.1,0,2.23901
0.6,10.2,0,2.15154
0.6,10.3,0,2.06355
0.6,10.4,0,1.97477
0.6,10.5,0,1.88712
0.6,10.6,0,1.80044
0.6,10.7,0,1.71187
0.6,10.8,0,1.62653
0.6,10.9,0,1.53802
0.6,11,0,1.45209
0.6,11.1,0,1.3662
0.6,11.2,0,1.2789
0.6,11.3,0,1.19438
0.6,11.4,0,1.10693
0.6,11.5,0,1.02191
0.6,11.6,0,0.935369
0.6,11.7,0,0.849766
0.6,11.8,0,0.764627
0.6,11.9,0,0.678728
0.6,12,0,0.594153
0.6,12.1,0,0.508762
0.6,12.2,0,0.423921
0.6,12.3,0,0.339195
0.6,12.4,0,0.254363
0.6,12.5,0,0.169669
0.6,12.6,0,0.085032
0.6,12.7,0,0
0.7,0,0,0
0.7,0.1,0,0.0790748
0.7,0.2,0,0.157971
0.7,0.3,0,0.236921
0.7,0.4,0,0.315839
0.7,0.5,0,0.394775
0.7,0.6,0,0.474048
0.7,0.7,0,0.553366
0.7,0.8,0,0.63293
0.7,0.9,0,0.712761
0.7,1,0,0.792827
0.7,1.1,0,0.872875
0.7,1.2,0,0.953302
0.7,1.3,0,1.03399
0.7,1.4,0,1.11492
0.7,1.5,0,1.19637
0.7,1.6,0,1.27729
0.7,1.7,0,1.35884
0.7,1.8,0,1.44029
0.7,1.9,0,1.52241
0.7,2,0,1.60553
0.7,2.1,0,1.68695
0.7,2.2,0,1.76932
0.7,2.3,0,1.85186
0.7,2.4,0,1.93476
0.7,2.5,0,2.01868
0.7,2.6,0,2.10155
0.7,2.7,0,2.18502
0.7,2.8,0,2.2693
0.7,2.9,0,2.35334
0.7,3,0,2.43662
0.7,3.1,0,2.52264
0.7,3.2,0,2.60704
0.7,3.3,0,2.69188
0.7,3.4,0,2.77584
0.7,3.5,0,2.85553
0.7,3.6,0,2.94204
0.7,3.7,0,3.02483
0.7,3.8,0,3.10418
0.7,3.9,0,3.18524
0.7,4,0,3.26284
0.7,4.1,0,3.34178
0.7,4.2,0,3.4205
0.7,4.3,0,3.49524
0.7,4.4,0,3.5706
0.7,4.5,0,3.64596
0.7,4.6,0,3.7156
0.7,4.7,0,3.78603
0.7,4.8,0,3.8526
0.7,4.9,0,3.91932
0.7,5,0,3.9865
0.7,5.1,0,4.03875
0.7,5.2,0,4.09178
0.7,5.3,0,4.14418
0.7,5.4,0,4.18926
0.7,5.5,0,4.23397
0.7,5.6,0,4.27704
0.7,5.7,0,4.31012
0.7,5.8,0,4.34278
0.7,5.9,0,4.37409
0.7,6,0,4.39453
0.7,6.1,0,4.41414
0.7,6.2,0,4.43231
0.7,6.3,0,4.43934
0.7,6.4,0,4.44527
0.7,6.5,0,4.44988
0.7,6.6,0,4.4432
0.7,6.7,0,4.43523
0.7,6.8,0,4.42614
0.7,6.9,0,4.40589
0.7,7,0,4.38419
0.7,7.1,0,4.36159
0.7,7.2,0,4.32809
0.7,7.3,0,4.29324
0.7,7.4,0,4.25791
0.7,7.5,0,4.21231
0.7,7.6,0,4.16525
0.7,7.7,0,4.11793
0.7,7.8,0,4.06312
0.7,7.9,0,4.00833
0.7,8,0,3.95494
0.7,8.1,0,3.88345
0.7,8.2,0,3.8134
0.7,8.3,0,3.74372
0.7,8.4,0,3.67081
0.7,8.5,0,3.59671
0.7,8.6,0,3.51858
0.7,8.7,0,3.44114
0.7,8.8,0,3.35942
0.7,8.9,0,3.27755
0.7,9,0,3.19613
0.7,9.1,0,3.11152
0.7,9.2,0,3.02794
0.7,9.3,0,2.94323
0.7,9.4,0,2.85487
0.7,9.5,0,2.77158
0.7,9.6,0,2.68376
0.7,9.7,0,2.59638
0.7,9.8,0,2.50766
0.7,9.9,0,2.41667
0.7,10,0,2.32929
0.7,10.1,0,2.23924
0.7,10.2,0,2.15109
0.7,10.3,0,2.06272
0.7,10.4,0,1.97399
0.7,10.5,0,1.88637
0.7,10.6,0,1.79917
0.7,10.7,0,1.71166
0.7,10.8,0,1.6254
0.7,10.9,0,1.53785
0.7,11,0,1.4513
0.7,11.1,0,1.36519
0.7,11.2,0,1.27887
0.7,11.3,0,1.19345
0.7,11.4,0,1.10686
0.7,11.5,0,1.02123
0.7,11.6,0,0.935106
0.7,11.7,0,0.849361
0.7,11.8,0,0.764044
0.7,11.9,0,0.6786
0.7,12,0,0.593622
0.7,12.1,0,0.508439
0.7,12.2,0,0.423487
0.7,12.3,0,0.338778
0.7,12.4,0,0.254112
0.7,12.5,0,0.169444
0.7,12.6,0,0.0848271
0.7,12.7,0,0
0.8,0,0,0
0.8,0.1,0,0.0788684
0.8,0.2,0,0.157764
0.8,0.3,0,0.236303
0.8,0.4,0,0.315222
0.8,0.5,0,0.3938
0.8,0.6,0,0.473436
0.8,0.7,0,0.552754
0.8,0.8,0,0.632277
0.8,0.9,0,0.712109
0.8,1,0,0.791364
0.8,1.1,0,0.87249
0.8,1.2,0,0.952917
0.8,1.3,0,1.0337
0.8,1.4,0,1.11464
0.8,1.5,0,1.1945
0.8,1.6,0,1.27703
0.8,1.7,0,1.35859
0.8,1.8,0,1.44107
0.8,1.9,0,1.52318
0.8,2,0,1.60366
0.8,2.1,0,1.68766
0.8,2.2,0,1.77004
0.8,2.3,0,1.85248
0.8,2.4,0,1.93538
0.8,2.5,0,2.01689
0.8,2.6,0,2.10155
0.8,2.7,0,2.18502
0.8,2.8,0,2.26801
0.8,2.9,0,2.35204
0.8,3,0,2.43666
0.8,3.1,0,2.52005
0.8,3.2,0,2.60446
0.8,3.3,0,2.68836
0.8,3.4,0,2.77233
0.8,3.5,0,2.86076
0.8,3.6,0,2.94001
0.8,3.7,0,3.0228
0.8,3.8,0,3.10752
0.8,3.9,0,3.18859
0.8,4,0,3.27384
0.8,4.1,0,3.35204
0.8,4.2,0,3.43077
0.8,4.3,0,3.51073
0.8,4.4,0,3.58609
0.8,4.5,0,3.66208
0.8,4.6,0,3.7336
0.8,4.7,0,3.80403
0.8,4.8,0,3.87244
0.8,4.9,0,3.93917
0.8,5,0,4.00829
0.8,5.1,0,4.06161
0.8,5.2,0,4.11464
0.8,5.3,0,4.16916
0.8,5.4,0,4.2164
0.8,5.5,0,4.26111
0.8,5.6,0,4.30493
0.8,5.7,0,4.34043
0.8,5.8,0,4.3731
0.8,5.9,0,4.40427
0.8,6,0,4.42638
0.8,6.1,0,4.44599
0.8,6.2,0,4.46399
0.8,6.3,0,4.47214
0.8,6.4,0,4.47807
0.8,6.5,0,4.48211
0.8,6.6,0,4.47608
0.8,6.7,0,4.4681
0.8,6.8,0,4.45795
0.8,6.9,0,4.43787
0.8,7,0,4.41616
0.8,7.1,0,4.39203
0.8,7.2,0,4.35869
0.8,7.3,0,4.32383
0.8,7.4,0,4.28617
0.8,7.5,0,4.24027
0.8,7.6,0,4.19321
0.8,7.7,0,4.14335
0.8,7.8,0,4.08692
0.8,7.9,0,4.03213
0.8,8,0,3.97726
0.8,8.1,0,3.90331
0.8,8.2,0,3.83315
0.8,8.3,0,3.76103
0.8,8.4,0,3.68812
0.8,8.5,0,3.6129
0.8,8.6,0,3.5344
0.8,8.7,0,3.45576
0.8,8.8,0,3.37288
0.8,8.9,0,3.29084
0.8,9,0,3.20465
0.8,9.1,0,3.12004
0.8,9.2,0,3.03357
0.8,9.3,0,2.94509
0.8,9.4,0,2.86098
0.8,9.5,0,2.76881
0.8,9.6,0,2.6813
0.8,9.7,0,2.59207
0.8,9.8,0,2.50335
0.8,9.9,0,2.4161
0.8,10,0,2.32576
0.8,10.1,0,2.23775
0.8,10.2,0,2.14947
0.8,10.3,0,2.0611
0.8,10.4,0,1.97346
0.8,10.5,0,1.88584
0.8,10.6,0,1.79795
0.8,10.7,0,1.71223
0.8,10.8,0,1.62457
0.8,10.9,0,1.53943
0.8,11,0,1.45287
0.8,11.1,0,1.36588
0.8,11.2,0,1.27967
0.8,11.3,0,1.19232
0.8,11.4,0,1.1075
0.8,11.5,0,1.02091
0.8,11.6,0,0.935676
0.8,11.7,0,0.849931
0.8,11.8,0,0.763927
0.8,11.9,0,0.678676
0.8,12,0,0.592645
0.8,12.1,0,0.508154
0.8,12.2,0,0.422985
0.8,12.3,0,0.338243
0.8,12.4,0,0.253576
0.8,12.5,0,0.169124
0.8,12.6,0,0.0845891
0.8,12.7,0,0
0.9,0,0,0
0.9,0.1,0,0.078841
0.9,0.2,0,0.156806
0.9,0.3,0,0.235345
0.9,0.4,0,0.31409
0.9,0.5,0,0.392326
0.9,0.6,0,0.47228
0.9,0.7,0,0.55095
0.9,0.8,0,0.630473
0.9,0.9,0,0.710593
0.9,1,0,0.789272
0.9,1.1,0,0.871097
0.9,1.2,0,0.950492
0.9,1.3,0,1.03128
0.9,1.4,0,1.11308
0.9,1.5,0,1.19186
0.9,1.6,0,1.27538
0.9,1.7,0,1.35603
0.9,1.8,0,1.43851
0.9,1.9,0,1.52217
0.9,2,0,1.60102
0.9,2.1,0,1.68663
0.9,2.2,0,1.76737
0.9,2.3,0,1.84981
0.9,2.4,0,1.9342
0.9,2.5,0,2.01433
0.9,2.6,0,2.1002
0.9,2.7,0,2.18295
0.9,2.8,0,2.26594
0.9,2.9,0,2.35092
0.9,3,0,2.43612
0.9,3.1,0,2.51851
0.9,3.2,0,2.60665
0.9,3.3,0,2.69056
0.9,3.4,0,2.77368
0.9,3.5,0,2.86659
0.9,3.6,0,2.94229
0.9,3.7,0,3.03223
0.9,3.8,0,3.11695
0.9,3.9,0,3.19709
0.9,4,0,3.28654
0.9,4.1,0,3.36421
0.9,4.2,0,3.4465
0.9,4.3,0,3.52646
0.9,4.4,0,3.60421
0.9,4.5,0,3.68083
0.9,4.6,0,3.75344
0.9,4.7,0,3.826
0.9,4.8,0,3.89442
0.9,4.9,0,3.96218
0.9,5,0,4.03369
0.9,5.1,0,4.08721
0.9,5.2,0,4.1426
0.9,5.3,0,4.19811
0.9,5.4,0,4.24703
0.9,5.5,0,4.29393
0.9,5.6,0,4.33716
0.9,5.7,0,4.37455
0.9,5.8,0,4.40901
0.9,5.9,0,4.43919
0.9,6,0,4.46297
0.9,6.1,0,4.48376
0.9,6.2,0,4.5007
0.9,6.3,0,4.51032
0.9,6.4,0,4.51669
0.9,6.5,0,4.51946
0.9,6.6,0,4.51472
0.9,6.7,0,4.50642
0.9,6.8,0,4.49481
0.9,6.9,0,4.47581
0.9,7,0,4.45303
0.9,7.1,0,4.42728
0.9,7.2,0,4.39493
0.9,7.3,0,4.35834
0.9,7.4,0,4.31881
0.9,7.5,0,4.27368
0.9,7.6,0,4.22444
0.9,7.7,0,4.17272
0.9,7.8,0,4.11519
0.9,7.9,0,4.05811
0.9,8,0,4.00318
0.9,8.1,0,3.92569
0.9,8.2,0,3.85592
0.9,8.3,0,3.78329
0.9,8.4,0,3.70798
0.9,8.5,0,3.63268
0.9,8.6,0,3.55219
0.9,8.7,0,3.4727
0.9,8.8,0,3.38877
0.9,8.9,0,3.30508
0.9,9,0,3.21824
0.9,9.1,0,3.13092
0.9,9.2,0,3.045
0.9,9.3,0,2.95103
0.9,9.4,0,2.86927
0.9,9.5,0,2.7723
0.9,9.6,0,2.68603
0.9,9.7,0,2.59607
0.9,9.8,0,2.50284
0.9,9.9,0,2.41739
0.9,10,0,2.32376
0.9,10.1,0,2.23642
0.9,10.2,0,2.14796
0.9,10.3,0,2.05855
0.9,10.4,0,1.97093
0.9,10.5,0,1.88371
0.9,10.6,0,1.79511
0.9,10.7,0,1.71102
0.9,10.8,0,1.62194
0.9,10.9,0,1.53827
0.9,11,0,1.4509
0.9,11.1,0,1.36358
0.9,11.2,0,1.27867
0.9,11.3,0,1.19003
0.9,11.4,0,1.10668
0.9,11.5,0,1.01877
0.9,11.6,0,0.934297
0.9,11.7,0,0.848402
0.9,11.8,0,0.762084
0.9,11.9,0,0.677815
0.9,12,0,0.591057
0.9,12.1,0,0.507173
0.9,12.2,0,0.421655
0.9,12.3,0,0.337065
0.9,12.4,0,0.252719
0.9,12.5,0,0.168231
0.9,12.6,0,0.0844846
0.9,12.7,0,0
1,0,0,0
1,0.1,0,0.0779371
1,0.2,0,0.155874
1,0.3,0,0.234045
1,0.4,0,0.312449
1,0.5,0,0.390853
1,0.6,0,0.46984
1,0.7,0,0.548827
1,0.8,0,0.628093
1,0.9,0,0.707636
1,1,0,0.787179
1,1.1,0,0.867273
1,1.2,0,0.947367
1,1.3,0,1.02778
1,1.4,0,1.1085
1,1.5,0,1.18923
1,1.6,0,1.27086
1,1.7,0,1.35249
1,1.8,0,1.43431
1,1.9,0,1.51634
1,2,0,1.59837
1,2.1,0,1.68073
1,2.2,0,1.76308
1,2.3,0,1.84577
1,2.4,0,1.92877
1,2.5,0,2.01178
1,2.6,0,2.09573
1,2.7,0,2.17969
1,2.8,0,2.26445
1,2.9,0,2.35001
1,3,0,2.43558
1,3.1,0,2.52272
1,3.2,0,2.60986
1,3.3,0,2.69723
1,3.4,0,2.78482
1,3.5,0,2.87242
1,3.6,0,2.95881
1,3.7,0,3.0452
1,3.8,0,3.13057
1,3.9,0,3.2149
1,4,0,3.29923
1,4.1,0,3.38099
1,4.2,0,3.46274
1,4.3,0,3.54282
1,4.4,0,3.6212
1,4.5,0,3.69959
1,4.6,0,3.77324
1,4.7,0,3.84689
1,4.8,0,3.91879
1,4.9,0,3.98894
1,5,0,4.0591
1,5.1,0,4.11509
1,5.2,0,4.17108
1,5.3,0,4.22707
1,5.4,0,4.27451
1,5.5,0,4.32195
1,5.6,0,4.36939
1,5.7,0,4.4043
1,5.8,0,4.43921
1,5.9,0,4.47412
1,6,0,4.49521
1,6.1,0,4.51631
1,6.2,0,4.5374
1,6.3,0,4.54387
1,6.4,0,4.55034
1,6.5,0,4.55681
1,6.6,0,4.54843
1,6.7,0,4.54006
1,6.8,0,4.53168
1,6.9,0,4.50863
1,7,0,4.48557
1,7.1,0,4.46252
1,7.2,0,4.4255
1,7.3,0,4.38847
1,7.4,0,4.35145
1,7.5,0,4.30166
1,7.6,0,4.25187
1,7.7,0,4.20208
1,7.8,0,4.14442
1,7.9,0,4.08677
1,8,0,4.02911
1,8.1,0,3.95514
1,8.2,0,3.88118
1,8.3,0,3.80583
1,8.4,0,3.72974
1,8.5,0,3.65212
1,8.6,0,3.57093
1,8.7,0,3.48973
1,8.8,0,3.40505
1,8.9,0,3.32018
1,9,0,3.23369
1,9.1,0,3.1461
1,9.2,0,3.05798
1,9.3,0,2.96825
1,9.4,0,2.87852
1,9.5,0,2.78724
1,9.6,0,2.69579
1,9.7,0,2.60383
1,9.8,0,2.51145
1,9.9,0,2.41922
1,10,0,2.32756
1,10.1,0,2.23591
1,10.2,0,2.14592
1,10.3,0,2.05622
1,10.4,0,1.96741
1,10.5,0,1.8795
1,10.6,0,1.79179
1,10.7,0,1.70521
1,10.8,0,1.61863
1,10.9,0,1.53235
1,11,0,1.44615
1,11.1,0,1.35992
1,11.2,0,1.27366
1,11.3,0,1.18744
1,11.4,0,1.10165
1,11.5,0,1.01586
1,11.6,0,0.930339
1,11.7,0,0.844916
1,11.8,0,0.759618
1,11.9,0,0.67451
1,12,0,0.589421
1,12.1,0,0.504689
1,12.2,0,0.419957
1,12.3,0,0.335596
1,12.4,0,0.251395
1,12.5,0,0.167373
1,12.6,0,0.0836866
1,12.7,0,0
1.1,0,0,0
1.1,0.1,0,0.0767982
1.1,0.2,0,0.154871
1.1,0.3,0,0.232441
1.1,0.4,0,0.310109
1.1,0.5,0,0.389166
1.1,0.6,0,0.466934
1.1,0.7,0,0.546087
1.1,0.8,0,0.625005
1.1,0.9,0,0.704033
1.1,1,0,0.783843
1.1,1.1,0,0.862993
1.1,1.2,0,0.943329
1.1,1.3,0,1.02319
1.1,1.4,0,1.10312
1.1,1.5,0,1.18555
1.1,1.6,0,1.26533
1.1,1.7,0,1.34793
1.1,1.8,0,1.42971
1.1,1.9,0,1.51071
1.1,2,0,1.59502
1.1,2.1,0,1.67396
1.1,2.2,0,1.75828
1.1,2.3,0,1.84141
1.1,2.4,0,1.9229
1.1,2.5,0,2.009
1.1,2.6,0,2.08981
1.1,2.7,0,2.17545
1.1,2.8,0,2.26183
1.1,2.9,0,2.34734
1.1,3,0,2.43417
1.1,3.1,0,2.52553
1.1,3.2,0,2.61172
1.1,3.3,0,2.70349
1.1,3.4,0,2.79644
1.1,3.5,0,2.8765
1.1,3.6,0,2.97724
1.1,3.7,0,3.05829
1.1,3.8,0,3.14445
1.1,3.9,0,3.23492
1.1,4,0,3.31116
1.1,4.1,0,3.4007
1.1,4.2,0,3.48087
1.1,4.3,0,3.56148
1.1,4.4,0,3.642
1.1,4.5,0,3.72087
1.1,4.6,0,3.79872
1.1,4.7,0,3.87268
1.1,4.8,0,3.94588
1.1,4.9,0,4.01703
1.1,5,0,4.09024
1.1,5.1,0,4.14918
1.1,5.2,0,4.20606
1.1,5.3,0,4.26356
1.1,5.4,0,4.31509
1.1,5.5,0,4.36333
1.1,5.6,0,4.41064
1.1,5.7,0,4.44878
1.1,5.8,0,4.48427
1.1,5.9,0,4.51884
1.1,6,0,4.54349
1.1,6.1,0,4.56496
1.1,6.2,0,4.58434
1.1,6.3,0,4.59397
1.1,6.4,0,4.60059
1.1,6.5,0,4.60463
1.1,6.6,0,4.59874
1.1,6.7,0,4.59025
1.1,6.8,0,4.57881
1.1,6.9,0,4.55765
1.1,7,0,4.53426
1.1,7.1,0,4.50759
1.1,7.2,0,4.47114
1.1,7.3,0,4.43357
1.1,7.4,0,4.39324
1.1,7.5,0,4.34323
1.1,7.6,0,4.2927
1.1,7.7,0,4.23941
1.1,7.8,0,4.17865
1.1,7.9,0,4.12013
1.1,8,0,4.06129
1.1,8.1,0,3.98304
1.1,8.2,0,3.9087
1.1,8.3,0,3.83361
1.1,8.4,0,3.75637
1.1,8.5,0,3.67481
1.1,8.6,0,3.59371
1.1,8.7,0,3.50813
1.1,8.8,0,3.42418
1.1,8.9,0,3.33632
1.1,9,0,3.25045
1.1,9.1,0,3.16277
1.1,9.2,0,3.07031
1.1,9.3,0,2.98727
1.1,9.4,0,2.88617
1.1,9.5,0,2.80346
1.1,9.6,0,2.70534
1.1,9.7,0,2.61105
1.1,9.8,0,2.52015
1.1,9.9,0,2.41977
1.1,10,0,2.32973
1.1,10.1,0,2.23443
1.1,10.2,0,2.14194
1.1,10.3,0,2.05259
1.1,10.4,0,1.96299
1.1,10.5,0,1.87413
1.1,10.6,0,1.78841
1.1,10.7,0,1.6982
1.1,10.8,0,1.615
1.1,10.9,0,1.52684
1.1,11,0,1.4415
1.1,11.1,0,1.35584
1.1,11.2,0,1.26825
1.1,11.3,0,1.18437
1.1,11.4,0,1.09613
1.1,11.5,0,1.01212
1.1,11.6,0,0.926022
1.1,11.7,0,0.840895
1.1,11.8,0,0.756353
1.1,11.9,0,0.670821
1.1,12,0,0.587043
1.1,12.1,0,0.501882
1.1,12.2,0,0.418028
1.1,12.3,0,0.333576
1.1,12.4,0,0.249645
1.1,12.5,0,0.166493
1.1,12.6,0,0.0825966
1.1,12.7,0,0
1.2,0,0,0
1.2,0.1,0,0.0769337
1.2,0.2,0,0.154003
1.2,0.3,0,0.231573
1.2,0.4,0,0.309158
1.2,0.5,0,0.38748
1.2,0.6,0,0.465414
1.2,0.7,0,0.543514
1.2,0.8,0,0.622431
1.2,0.9,0,0.701212
1.2,1,0,0.780506
1.2,1.1,0,0.859898
1.2,1.2,0,0.939532
1.2,1.3,0,1.01939
1.2,1.4,0,1.10023
1.2,1.5,0,1.18187
1.2,1.6,0,1.26262
1.2,1.7,0,1.34434
1.2,1.8,0,1.42612
1.2,1.9,0,1.50839
1.2,2,0,1.59167
1.2,2.1,0,1.67258
1.2,2.2,0,1.75544
1.2,2.3,0,1.83857
1.2,2.4,0,1.92163
1.2,2.5,0,2.00622
1.2,2.6,0,2.08871
1.2,2.7,0,2.17289
1.2,2.8,0,2.25928
1.2,2.9,0,2.346
1.2,3,0,2.43277
1.2,3.1,0,2.52317
1.2,3.2,0,2.61262
1.2,3.3,0,2.70439
1.2,3.4,0,2.79516
1.2,3.5,0,2.88058
1.2,3.6,0,2.97598
1.2,3.7,0,3.06603
1.2,3.8,0,3.15219
1.2,3.9,0,3.24071
1.2,4,0,3.32309
1.2,4.1,0,3.41104
1.2,4.2,0,3.4974
1.2,4.3,0,3.57801
1.2,4.4,0,3.66115
1.2,4.5,0,3.74215
1.2,4.6,0,3.82031
1.2,4.7,0,3.89877
1.2,4.8,0,3.97197
1.2,4.9,0,4.04717
1.2,5,0,4.12138
1.2,5.1,0,4.18092
1.2,5.2,0,4.24137
1.2,5.3,0,4.30004
1.2,5.4,0,4.35153
1.2,5.5,0,4.40293
1.2,5.6,0,4.45188
1.2,5.7,0,4.48989
1.2,5.8,0,4.52769
1.2,5.9,0,4.56356
1.2,6,0,4.58753
1.2,6.1,0,4.61048
1.2,6.2,0,4.63129
1.2,6.3,0,4.63994
1.2,6.4,0,4.64714
1.2,6.5,0,4.65245
1.2,6.6,0,4.64534
1.2,6.7,0,4.63639
1.2,6.8,0,4.62595
1.2,6.9,0,4.60334
1.2,7,0,4.57856
1.2,7.1,0,4.55265
1.2,7.2,0,4.51489
1.2,7.3,0,4.47514
1.2,7.4,0,4.43504
1.2,7.5,0,4.38363
1.2,7.6,0,4.33012
1.2,7.7,0,4.27674
1.2,7.8,0,4.21551
1.2,7.9,0,4.15356
1.2,8,0,4.09348
1.2,8.1,0,4.01462
1.2,8.2,0,3.936
1.2,8.3,0,3.85989
1.2,8.4,0,3.77886
1.2,8.5,0,3.69747
1.2,8.6,0,3.61232
1.2,8.7,0,3.52628
1.2,8.8,0,3.43968
1.2,8.9,0,3.35024
1.2,9,0,3.2632
1.2,9.1,0,3.17134
1.2,9.2,0,3.0802
1.2,9.3,0,2.98962
1.2,9.4,0,2.89248
1.2,9.5,0,2.80353
1.2,9.6,0,2.70837
1.2,9.7,0,2.61322
1.2,9.8,0,2.51773
1.2,9.9,0,2.41987
1.2,10,0,2.32704
1.2,10.1,0,2.23226
1.2,10.2,0,2.14024
1.2,10.3,0,2.04965
1.2,10.4,0,1.96008
1.2,10.5,0,1.8725
1.2,10.6,0,1.78571
1.2,10.7,0,1.69765
1.2,10.8,0,1.61229
1.2,10.9,0,1.52527
1.2,11,0,1.43903
1.2,11.1,0,1.3531
1.2,11.2,0,1.26673
1.2,11.3,0,1.18158
1.2,11.4,0,1.09451
1.2,11.5,0,1.00902
1.2,11.6,0,0.923426
1.2,11.7,0,0.838156
1.2,11.8,0,0.753402
1.2,11.9,0,0.66883
1.2,12,0,0.58469
1.2,12.1,0,0.500271
1.2,12.2,0,0.416511
1.2,12.3,0,0.33241
1.2,12.4,0,0.249019
1.2,12.5,0,0.165737
1.2,12.6,0,0.0827155
1.2,12.7,0,0
1.3,0,0,0
1.3,0.1,0,0.07686
1.3,0.2,0,0.153929
1.3,0.3,0,0.231186
1.3,0.4,0,0.308772
1.3,0.5,0,0.386082
1.3,0.6,0,0.463716
1.3,0.7,0,0.541817
1.3,0.8,0,0.619788
1.3,0.9,0,0.698568
1.3,1,0,0.777487
1.3,1.1,0,0.856528
1.3,1.2,0,0.936161
1.3,1.3,0,1.01661
1.3,1.4,0,1.09745
1.3,1.5,0,1.17837
1.3,1.6,0,1.26069
1.3,1.7,0,1.34241
1.3,1.8,0,1.42446
1.3,1.9,0,1.50672
1.3,2,0,1.5883
1.3,2.1,0,1.67291
1.3,2.2,0,1.75578
1.3,2.3,0,1.83887
1.3,2.4,0,1.92193
1.3,2.5,0,2.00307
1.3,2.6,0,2.08813
1.3,2.7,0,2.17231