/*--------------------------------*- C++ -*----------------------------------*\
| =========                 |                                                 |
| \\      /  F ield         | OpenFOAM: The Open Source CFD Toolbox           |
|  \\    /   O peration     | Version:  v1806                                 |
|   \\  /    A nd           | Web:      www.OpenFOAM.com                      |
|    \\/     M anipulation  |                                                 |
\*---------------------------------------------------------------------------*/
FoamFile
{
    version     2.0;
    format      ascii;
    class       volVectorField;
    location    "1";
    object      U;
}
// * * * * * * * * * * * * * * * * * * * * * * * * * * * * * * * * * * * * * //

dimensions      [0 1 -1 0 0 0 0];


internalField   nonuniform List<vector> 
2400
(
(2.94188 0.176339 0)
(3.14888 -0.547515 0)
(2.72955 -1.95309 0)
(2.1696 -2.73229 0)
(1.54886 -2.79874 0)
(1.05859 -2.52731 0)
(0.706424 -2.15958 0)
(0.463997 -1.80262 0)
(0.303738 -1.4865 0)
(0.199593 -1.21778 0)
(0.132577 -0.994122 0)
(0.0894451 -0.810089 0)
(0.0614639 -0.65965 0)
(0.0430749 -0.537134 0)
(0.0307927 -0.437552 0)
(0.0224515 -0.356629 0)
(0.0167024 -0.290733 0)
(0.012705 -0.236822 0)
(0.00987543 -0.192179 0)
(0.00787202 -0.154972 0)
(2.93064 0.13916 0)
(3.12607 -0.484162 0)
(2.76102 -1.69586 0)
(2.2825 -2.3971 0)
(1.72972 -2.49393 0)
(1.26729 -2.30372 0)
(0.916395 -2.01021 0)
(0.653784 -1.70559 0)
(0.463751 -1.42434 0)
(0.328106 -1.17801 0)
(0.232734 -0.968597 0)
(0.166266 -0.793569 0)
(0.120009 -0.648817 0)
(0.0876834 -0.529916 0)
(0.0649165 -0.432663 0)
(0.0487393 -0.353268 0)
(0.0371525 -0.288393 0)
(0.0288423 -0.235182 0)
(0.022803 -0.191008 0)
(0.0184527 -0.154131 0)
(2.93891 0.158589 0)
(3.14749 -0.485716 0)
(2.73729 -1.71257 0)
(2.22823 -2.41956 0)
(1.68288 -2.49421 0)
(1.22767 -2.26931 0)
(0.890448 -1.9635 0)
(0.648556 -1.66103 0)
(0.478516 -1.38729 0)
(0.356202 -1.14912 0)
(0.266763 -0.946841 0)
(0.200879 -0.777505 0)
(0.152161 -0.637067 0)
(0.116027 -0.52134 0)
(0.0891361 -0.426388 0)
(0.0690684 -0.348664 0)
(0.0540715 -0.285011 0)
(0.0429392 -0.232708 0)
(0.0346069 -0.189169 0)
(0.0284904 -0.152778 0)
(2.86702 0.103873 0)
(3.13864 -0.40387 0)
(2.72645 -1.42213 0)
(2.32392 -2.09717 0)
(1.86693 -2.23416 0)
(1.44744 -2.09475 0)
(1.08973 -1.84987 0)
(0.801887 -1.58589 0)
(0.590011 -1.3364 0)
(0.437946 -1.11363 0)
(0.328619 -0.921429 0)
(0.249177 -0.758972 0)
(0.190699 -0.623378 0)
(0.147155 -0.511138 0)
(0.114434 -0.418737 0)
(0.0897076 -0.342911 0)
(0.0709787 -0.280686 0)
(0.0569164 -0.229482 0)
(0.04627 -0.18673 0)
(0.0384298 -0.150974 0)
(2.95051 0.139277 0)
(3.09737 -0.408586 0)
(2.72512 -1.53291 0)
(2.29587 -2.15387 0)
(1.77847 -2.21304 0)
(1.36702 -2.02589 0)
(1.0681 -1.77317 0)
(0.827954 -1.51936 0)
(0.637652 -1.28446 0)
(0.489885 -1.07478 0)
(0.376929 -0.892667 0)
(0.291238 -0.737614 0)
(0.226216 -0.607398 0)
(0.176688 -0.499085 0)
(0.138796 -0.409588 0)
(0.109737 -0.335947 0)
(0.0874538 -0.275394 0)
(0.0705809 -0.225505 0)
(0.0576983 -0.1837 0)
(0.0482365 -0.148743 0)
(2.88063 0.0880398 0)
(3.11847 -0.335544 0)
(2.88437 -1.19093 0)
(2.52896 -1.80504 0)
(2.05238 -1.97943 0)
(1.58337 -1.88382 0)
(1.20988 -1.67975 0)
(0.923505 -1.45128 0)
(0.709564 -1.23256 0)
(0.548486 -1.03502 0)
(0.426032 -0.86229 0)
(0.332478 -0.714418 0)
(0.260665 -0.589643 0)
(0.20528 -0.485445 0)
(0.162401 -0.399079 0)
(0.129173 -0.327852 0)
(0.10346 -0.269184 0)
(0.0838872 -0.22081 0)
(0.0688455 -0.180104 0)
(0.057893 -0.146125 0)
(2.89683 0.115552 0)
(3.13425 -0.347772 0)
(2.65317 -1.33505 0)
(2.22794 -1.8944 0)
(1.84451 -1.94546 0)
(1.51608 -1.79439 0)
(1.22938 -1.59036 0)
(0.974351 -1.37864 0)
(0.765466 -1.17651 0)
(0.600537 -0.992141 0)
(0.471759 -0.829416 0)
(0.371589 -0.689105 0)
(0.29361 -0.570068 0)
(0.232753 -0.470248 0)
(0.185152 -0.387254 0)
(0.147944 -0.318664 0)
(0.118936 -0.262087 0)
(0.0967835 -0.215428 0)
(0.079662 -0.175969 0)
(0.0673869 -0.143167 0)
(2.89344 0.078085 0)
(3.10065 -0.275457 0)
(2.89303 -1.02557 0)
(2.59656 -1.58891 0)
(2.11718 -1.7631 0)
(1.66123 -1.68235 0)
(1.31423 -1.50545 0)
(1.03916 -1.30931 0)
(0.821738 -1.12061 0)
(0.6503 -0.947939 0)
(0.515146 -0.794769 0)
(0.408777 -0.662002 0)
(0.32505 -0.548842 0)
(0.259057 -0.453596 0)
(0.206988 -0.374181 0)
(0.165988 -0.308432 0)
(0.133822 -0.254141 0)
(0.109219 -0.209395 0)
(0.0900947 -0.171328 0)
(0.0767132 -0.13993 0)
(2.88371 0.0916004 0)
(3.12241 -0.280027 0)
(2.76197 -1.1134 0)
(2.38662 -1.61079 0)
(2.01137 -1.68561 0)
(1.66051 -1.57836 0)
(1.3564 -1.4146 0)
(1.09125 -1.23628 0)
(0.872568 -1.06249 0)
(0.696603 -0.901854 0)
(0.555946 -0.758321 0)
(0.44396 -0.633198 0)
(0.354925 -0.526067 0)
(0.284132 -0.435572 0)
(0.22785 -0.359925 0)
(0.183251 -0.297205 0)
(0.148062 -0.245383 0)
(0.121144 -0.202745 0)
(0.100086 -0.166218 0)
(0.0858766 -0.136487 0)
(2.88332 0.0723275 0)
(3.11162 -0.239785 0)
(2.84178 -0.916359 0)
(2.53657 -1.40942 0)
(2.126 -1.55122 0)
(1.73141 -1.47846 0)
(1.41189 -1.32986 0)
(1.14244 -1.16473 0)
(0.920235 -1.00372 0)
(0.739879 -0.854402 0)
(0.594231 -0.720315 0)
(0.477123 -0.602849 0)
(0.383194 -0.501855 0)
(0.30793 -0.416264 0)
(0.247687 -0.34455 0)
(0.199678 -0.28503 0)
(0.161601 -0.235852 0)
(0.132508 -0.195517 0)
(0.109572 -0.160683 0)
(0.0948947 -0.132931 0)
(2.87966 0.071436 0)
(3.11366 -0.218957 0)
(2.82551 -0.901449 0)
(2.51053 -1.35221 0)
(2.13325 -1.45251 0)
(1.76535 -1.37679 0)
(1.45589 -1.24207 0)
(1.18832 -1.09179 0)
(0.964124 -0.943796 0)
(0.780083 -0.805626 0)
(0.629998 -0.68088 0)
(0.508248 -0.571083 0)
(0.40982 -0.476314 0)
(0.330407 -0.395755 0)
(0.266451 -0.328121 0)
(0.215221 -0.271955 0)
(0.174385 -0.225584 0)
(0.143259 -0.187754 0)
(0.118481 -0.15477 0)
(0.103802 -0.12937 0)
(2.877 0.0636741 0)
(3.11242 -0.200109 0)
(2.84358 -0.80081 0)
(2.54818 -1.22355 0)
(2.17542 -1.33917 0)
(1.80712 -1.27852 0)
(1.4984 -1.15657 0)
(1.2308 -1.01905 0)
(1.00463 -0.88314 0)
(0.817321 -0.755725 0)
(0.663276 -0.640168 0)
(0.537323 -0.538026 0)
(0.434778 -0.449547 0)
(0.351525 -0.374127 0)
(0.284101 -0.310701 0)
(0.229836 -0.258027 0)
(0.18636 -0.214616 0)
(0.153343 -0.179493 0)
(0.126728 -0.148541 0)
(0.112654 -0.125935 0)
(2.87485 0.0580549 0)
(3.11195 -0.177847 0)
(2.84999 -0.739747 0)
(2.56411 -1.13295 0)
(2.20383 -1.23665 0)
(1.84227 -1.18097 0)
(1.53646 -1.07084 0)
(1.26949 -0.945922 0)
(1.0418 -0.821759 0)
(0.85165 -0.704819 0)
(0.694085 -0.598309 0)
(0.564344 -0.503796 0)
(0.458042 -0.421654 0)
(0.371252 -0.351463 0)
(0.300601 -0.292353 0)
(0.243482 -0.243289 0)
(0.197476 -0.202983 0)
(0.162702 -0.170764 0)
(0.134213 -0.142083 0)
(0.121536 -0.122792 0)
(2.87288 0.0526793 0)
(3.11153 -0.159809 0)
(2.85862 -0.669253 0)
(2.58286 -1.031 0)
(2.23155 -1.13226 0)
(1.87468 -1.08473 0)
(1.5711 -0.985825 0)
(1.30473 -0.872719 0)
(1.07575 -0.759797 0)
(0.88314 -0.653034 0)
(0.722454 -0.555425 0)
(0.58931 -0.468502 0)
(0.479597 -0.392731 0)
(0.389562 -0.32784 0)
(0.315919 -0.273138 0)
(0.256123 -0.227785 0)
(0.207682 -0.190713 0)
(0.171266 -0.161579 0)
(0.140816 -0.135511 0)
(0.130577 -0.12014 0)
(2.87125 0.0474548 0)
(3.11115 -0.141864 0)
(2.86572 -0.604992 0)
(2.59894 -0.936858 0)
(2.25634 -1.03141 0)
(1.90392 -0.98973 0)
(1.60236 -0.90121 0)
(1.33662 -0.799403 0)
(1.1066 -0.69733 0)
(0.91185 -0.600479 0)
(0.748409 -0.511628 0)
(0.612223 -0.432252 0)
(0.499428 -0.362871 0)
(0.406434 -0.303336 0)
(0.330031 -0.253115 0)
(0.267727 -0.211554 0)
(0.216939 -0.177831 0)
(0.178949 -0.15193 0)
(0.146381 -0.128979 0)
(0.139966 -0.118232 0)
(2.86985 0.0424847 0)
(3.11086 -0.125458 0)
(2.87228 -0.542184 0)
(2.61342 -0.843344 0)
(2.27848 -0.931564 0)
(1.93013 -0.895703 0)
(1.6304 -0.817041 0)
(1.3653 -0.726031 0)
(1.13443 -0.634438 0)
(0.93784 -0.547253 0)
(0.771978 -0.467023 0)
(0.633088 -0.395144 0)
(0.517527 -0.332162 0)
(0.421851 -0.278025 0)
(0.342917 -0.232343 0)
(0.278267 -0.194631 0)
(0.225209 -0.164356 0)
(0.185643 -0.141786 0)
(0.150715 -0.122688 0)
(0.149973 -0.117373 0)
(2.86867 0.0376921 0)
(3.1106 -0.10993 0)
(2.87807 -0.481769 0)
(2.62625 -0.752456 0)
(2.29817 -0.833436 0)
(1.95348 -0.80266 0)
(1.65537 -0.733278 0)
(1.39089 -0.652625 0)
(1.15934 -0.571186 0)
(0.961164 -0.493443 0)
(0.793189 -0.421707 0)
(0.651912 -0.357272 0)
(0.533888 -0.30069 0)
(0.4358 -0.251983 0)
(0.354562 -0.21088 0)
(0.287726 -0.177051 0)
(0.232473 -0.150291 0)
(0.191208 -0.131084 0)
(0.153568 -0.116916 0)
(0.160965 -0.118053 0)
(2.86767 0.033063 0)
(3.11036 -0.0953147 0)
(2.88318 -0.42323 0)
(2.63754 -0.663292 0)
(2.31548 -0.736554 0)
(1.97407 -0.710455 0)
(1.67739 -0.649885 0)
(1.41348 -0.579206 0)
(1.1814 -0.507631 0)
(0.98187 -0.439128 0)
(0.812066 -0.375767 0)
(0.668702 -0.318726 0)
(0.548507 -0.268539 0)
(0.448273 -0.225281 0)
(0.36496 -0.188783 0)
(0.296092 -0.158847 0)
(0.238725 -0.135625 0)
(0.195456 -0.119709 0)
(0.154602 -0.111925 0)
(0.173141 -0.120844 0)
(2.86684 0.0285652 0)
(3.11014 -0.081451 0)
(2.88763 -0.366317 0)
(2.64734 -0.575792 0)
(2.33048 -0.640833 0)
(1.99198 -0.619 0)
(1.69656 -0.56684 0)
(1.43318 -0.505797 0)
(1.20066 -0.44383 0)
(1 -0.384387 0)
(0.828632 -0.329291 0)
(0.683468 -0.279592 0)
(0.561382 -0.23579 0)
(0.459264 -0.197993 0)
(0.374107 -0.166112 0)
(0.303366 -0.14005 0)
(0.243987 -0.120322 0)
(0.198167 -0.10751 0)
(0.15354 -0.107988 0)
(0.183396 -0.123403 0)
(2.86615 0.0241738 0)
(3.10997 -0.0683229 0)
(2.89143 -0.310682 0)
(2.65568 -0.48969 0)
(2.34324 -0.54605 0)
(2.00725 -0.528119 0)
(1.71292 -0.484095 0)
(1.45002 -0.432415 0)
(1.21718 -0.379838 0)
(1.01559 -0.329299 0)
(0.842904 -0.282369 0)
(0.696212 -0.239963 0)
(0.572512 -0.202532 0)
(0.468771 -0.170199 0)
(0.382007 -0.142931 0)
(0.309566 -0.120704 0)
(0.248311 -0.104313 0)
(0.199055 -0.0942416 0)
(0.151686 -0.106347 0)
(0.17006 -0.139392 0)
(0.00663881 -0.129641 0)
(0.0058191 -0.112712 0)
(0.00508562 -0.0975189 0)
(0.0044301 -0.083963 0)
(0.00384761 -0.0719366 0)
(0.00333436 -0.0613189 0)
(0.00288598 -0.0519802 0)
(0.0024974 -0.0437875 0)
(0.00216262 -0.0366095 0)
(0.00187862 -0.0303237 0)
(0.0157308 -0.128917 0)
(0.0138794 -0.112062 0)
(0.0122004 -0.0969337 0)
(0.0106819 -0.0834383 0)
(0.00931887 -0.0714701 0)
(0.00810748 -0.060908 0)
(0.0070414 -0.0516215 0)
(0.00611171 -0.043477 0)
(0.00530628 -0.0363428 0)
(0.00462024 -0.0300966 0)
(0.0245853 -0.127715 0)
(0.0218524 -0.110965 0)
(0.019335 -0.0959306 0)
(0.0170257 -0.0825274 0)
(0.0149279 -0.0706513 0)
(0.0130451 -0.0601801 0)
(0.0113743 -0.0509808 0)
(0.00990679 -0.0429182 0)
(0.00862744 -0.0358597 0)
(0.0075318 -0.0296833 0)
(0.0333839 -0.126066 0)
(0.0297712 -0.10944 0)
(0.0264181 -0.0945202 0)
(0.0233189 -0.0812348 0)
(0.0204879 -0.0694809 0)
(0.0179362 -0.0591333 0)
(0.0156642 -0.0500549 0)
(0.0136631 -0.0421071 0)
(0.0119138 -0.0351557 0)
(0.0104117 -0.0290788 0)
(0.0421197 -0.123971 0)
(0.0376252 -0.107488 0)
(0.0334372 -0.0927029 0)
(0.0295451 -0.0795606 0)
(0.0259785 -0.0679598 0)
(0.0227579 -0.0577695 0)
(0.0198871 -0.0488463 0)
(0.0173561 -0.0410465 0)
(0.0151412 -0.0342334 0)
(0.0132364 -0.0282853 0)
(0.050794 -0.121433 0)
(0.0454053 -0.105112 0)
(0.0403815 -0.0904767 0)
(0.0356902 -0.0775027 0)
(0.0313833 -0.066087 0)
(0.0274928 -0.0560893 0)
(0.0240257 -0.0473567 0)
(0.0209695 -0.0397387 0)
(0.0182943 -0.0330951 0)
(0.0159913 -0.0273047 0)
(0.0594155 -0.11845 0)
(0.0531032 -0.102313 0)
(0.0472415 -0.0878376 0)
(0.0417397 -0.0750573 0)
(0.036685 -0.0638606 0)
(0.0321229 -0.0540929 0)
(0.0280623 -0.0455882 0)
(0.0244869 -0.0381866 0)
(0.0213581 -0.0317436 0)
(0.0186625 -0.0261389 0)
(0.068002 -0.115015 0)
(0.0607112 -0.0990906 0)
(0.0540089 -0.0847785 0)
(0.0476784 -0.0722184 0)
(0.0418653 -0.0612779 0)
(0.0366289 -0.0517807 0)
(0.0319787 -0.0435432 0)
(0.0278917 -0.0363938 0)
(0.024318 -0.0301824 0)
(0.0212363 -0.0247904 0)
(0.0765826 -0.111116 0)
(0.0682217 -0.0954439 0)
(0.0606769 -0.0812866 0)
(0.0534895 -0.0689777 0)
(0.0469036 -0.0583354 0)
(0.0409901 -0.0491533 0)
(0.0357557 -0.0412253 0)
(0.0311672 -0.034365 0)
(0.0271597 -0.0284158 0)
(0.0237002 -0.0232622 0)
(0.0852001 -0.10673 0)
(0.0756266 -0.0913683 0)
(0.0672409 -0.0773406 0)
(0.0591533 -0.0653238 0)
(0.0517771 -0.0550284 0)
(0.0451837 -0.0462118 0)
(0.0393728 -0.038639 0)
(0.0342964 -0.0321066 0)
(0.0298693 -0.0264492 0)
(0.0260425 -0.0215578 0)
(0.0939144 -0.101823 0)
(0.0829178 -0.0868523 0)
(0.0736975 -0.0729075 0)
(0.0646447 -0.0612424 0)
(0.0564591 -0.0513519 0)
(0.0491845 -0.042958 0)
(0.0428081 -0.0357908 0)
(0.0372621 -0.0296268 0)
(0.032434 -0.0242896 0)
(0.0282533 -0.0196815 0)
(0.102807 -0.0963404 0)
(0.0900862 -0.0818682 0)
(0.0800433 -0.0679439 0)
(0.0699301 -0.0567173 0)
(0.0609187 -0.0473007 0)
(0.052964 -0.0393954 0)
(0.0460382 -0.0326892 0)
(0.040047 -0.0269365 0)
(0.0348419 -0.0219459 0)
(0.0303259 -0.0176394 0)
(0.111988 -0.0902068 0)
(0.0971189 -0.0763612 0)
(0.0862691 -0.0623982 0)
(0.0749651 -0.0517302 0)
(0.0651194 -0.0428702 0)
(0.0564899 -0.03553 0)
(0.0490374 -0.029346 0)
(0.0426337 -0.0240505 0)
(0.0370825 -0.0194295 0)
(0.0322589 -0.0154406 0)
(0.121611 -0.0833085 0)
(0.103993 -0.0702381 0)
(0.092353 -0.0562138 0)
(0.0796924 -0.0462605 0)
(0.069018 -0.0380581 0)
(0.0597256 -0.0313711 0)
(0.0517777 -0.0257772 0)
(0.0450053 -0.0209884 0)
(0.0391468 -0.0167555 0)
(0.0340606 -0.0131016 0)
(0.131879 -0.0754795 0)
(0.110664 -0.0633538 0)
(0.09825 -0.0493312 0)
(0.0840405 -0.0402842 0)
(0.0725632 -0.0328655 0)
(0.0626298 -0.0269328 0)
(0.0542285 -0.0220038 0)
(0.0471447 -0.0177759 0)
(0.0410257 -0.0139443 0)
(0.0357627 -0.0106554 0)
(0.143068 -0.0664682 0)
(0.117054 -0.0554914 0)
(0.103878 -0.0416905 0)
(0.0879217 -0.0337753 0)
(0.0756927 -0.0272997 0)
(0.0651558 -0.0222353 0)
(0.0563557 -0.0180527 0)
(0.0490352 -0.0144473 0)
(0.0427067 -0.0110261 0)
(0.0373877 -0.00812416 0)
(0.155528 -0.0558924 0)
(0.123011 -0.0463261 0)
(0.109095 -0.0332402 0)
(0.0912275 -0.0267151 0)
(0.0783297 -0.0213799 0)
(0.0672504 -0.0173082 0)
(0.0581202 -0.0139602 0)
(0.050657 -0.0110496 0)
(0.0441851 -0.00807891 0)
(0.0393392 -0.00564386 0)
(0.16958 -0.0438978 0)
(0.128164 -0.0355433 0)
(0.113581 -0.024015 0)
(0.0937704 -0.0191481 0)
(0.0803358 -0.0151665 0)
(0.0688159 -0.0122082 0)
(0.0594435 -0.00977729 0)
(0.0519416 -0.00763413 0)
(0.0453786 -0.00508777 0)
(0.0410518 -0.0032027 0)
(0.18322 -0.0266972 0)
(0.130674 -0.0218515 0)
(0.115644 -0.013612 0)
(0.0943244 -0.0108325 0)
(0.0807086 -0.0085056 0)
(0.0690278 -0.00681807 0)
(0.059626 -0.00542723 0)
(0.0523261 -0.00417202 0)
(0.0458061 -0.0024653 0)
(0.0447748 -0.000722117 0)
(0.163879 -0.012986 0)
(0.107529 -0.00723414 0)
(0.0967327 -0.00398378 0)
(0.0781238 -0.00319875 0)
(0.0669798 -0.00250102 0)
(0.0572761 -0.00200229 0)
(0.0495075 -0.00158923 0)
(0.0435616 -0.00120551 0)
(0.038427 -0.000679737 0)
(0.0382555 0.000428807 0)
(0.00171143 -0.0265903 0)
(0.00163243 -0.0247379 0)
(0.00155842 -0.022965 0)
(0.00148919 -0.0212672 0)
(0.00142474 -0.0196396 0)
(0.00136495 -0.0180775 0)
(0.00130971 -0.0165762 0)
(0.00125893 -0.015131 0)
(0.00121248 -0.0137375 0)
(0.00117028 -0.012391 0)
(0.00113223 -0.0110871 0)
(0.00109823 -0.00982144 0)
(0.00106819 -0.00858964 0)
(0.00104204 -0.00738743 0)
(0.00101971 -0.00621057 0)
(0.00100117 -0.00505485 0)
(0.000986386 -0.00391624 0)
(0.000975414 -0.00279243 0)
(0.000968237 -0.00169886 0)
(0.000964296 -0.000779679 0)
(0.00421464 -0.0263876 0)
(0.00402246 -0.0245478 0)
(0.00384222 -0.0227872 0)
(0.00367355 -0.0211013 0)
(0.0035164 -0.0194855 0)
(0.00337054 -0.0179348 0)
(0.00323572 -0.0164447 0)
(0.00311171 -0.0150105 0)
(0.00299829 -0.0136277 0)
(0.00289523 -0.0122917 0)
(0.00280232 -0.0109981 0)
(0.00271935 -0.00974242 0)
(0.00264612 -0.00852044 0)
(0.00258245 -0.00732788 0)
(0.00252819 -0.00616053 0)
(0.00248324 -0.00501426 0)
(0.00244754 -0.00388508 0)
(0.00242114 -0.00277078 0)
(0.00240394 -0.00168655 0)
(0.00239451 -0.000774473 0)
(0.00688095 -0.0260185 0)
(0.0065721 -0.0242011 0)
(0.00628209 -0.0224625 0)
(0.00601037 -0.0207981 0)
(0.00575696 -0.0192033 0)
(0.00552156 -0.0176733 0)
(0.00530384 -0.0162035 0)
(0.00510351 -0.0147892 0)
(0.00492025 -0.0134259 0)
(0.00475375 -0.012109 0)
(0.00460369 -0.0108341 0)
(0.00446976 -0.00959689 0)
(0.00435166 -0.00839298 0)
(0.00424911 -0.00721817 0)
(0.00416188 -0.00606833 0)
(0.00408976 -0.00493938 0)
(0.00403263 -0.00382747 0)
(0.00399045 -0.00273043 0)
(0.0039629 -0.00166304 0)
(0.00394785 -0.000764161 0)
(0.00951727 -0.0254773 0)
(0.00909249 -0.0236923 0)
(0.00869342 -0.0219854 0)
(0.00831927 -0.0203522 0)
(0.00797019 -0.0187882 0)
(0.00764582 -0.0172884 0)
(0.00734578 -0.0158484 0)
(0.0070697 -0.0144634 0)
(0.00681718 -0.0131288 0)
(0.00658782 -0.0118402 0)
(0.00638119 -0.010593 0)
(0.00619687 -0.00938297 0)
(0.00603444 -0.00820576 0)
(0.00589351 -0.00705721 0)
(0.00577372 -0.00593322 0)
(0.00567474 -0.00482982 0)
(0.00559633 -0.00374323 0)
(0.00553836 -0.00267132 0)
(0.00550031 -0.00162826 0)
(0.00547947 -0.000748697 0)
(0.0121003 -0.0247661 0)
(0.0115605 -0.0230232 0)
(0.0110532 -0.0213577 0)
(0.0105774 -0.0197654 0)
(0.0101334 -0.0182417 0)
(0.00972083 -0.0167818 0)
(0.00933924 -0.0153809 0)
(0.00898821 -0.0140345 0)
(0.00866726 -0.012738 0)
(0.00837589 -0.0114866 0)
(0.00811356 -0.0102761 0)
(0.0078797 -0.00910196 0)
(0.00767375 -0.00795999 0)
(0.00749516 -0.00684602 0)
(0.00734343 -0.00575605 0)
(0.00721809 -0.00468616 0)
(0.00711877 -0.00363267 0)
(0.00704518 -0.0025935 0)
(0.00699667 -0.00158207 0)
(0.00697001 -0.00072798 0)
(0.0146159 -0.0238864 0)
(0.013962 -0.0221951 0)
(0.0133473 -0.0205807 0)
(0.0127707 -0.0190389 0)
(0.0122326 -0.017565 0)
(0.0117326 -0.0161545 0)
(0.0112704 -0.0148024 0)
(0.0108454 -0.013504 0)
(0.010457 -0.0122547 0)
(0.0101048 -0.0110498 0)
(0.00978784 -0.00988475 0)
(0.00950557 -0.00875523 0)
(0.00925719 -0.00765694 0)
(0.00904198 -0.00658579 0)
(0.00885924 -0.00553781 0)
(0.00870832 -0.00450919 0)
(0.00858868 -0.00349636 0)
(0.00849992 -0.00249728 0)
(0.0084412 -0.0015246 0)
(0.00840883 -0.000702044 0)
(0.0170503 -0.0228396 0)
(0.0162833 -0.0212093 0)
(0.0155621 -0.0196554 0)
(0.0148854 -0.0181736 0)
(0.014254 -0.0167594 0)
(0.0136675 -0.0154078 0)
(0.0131256 -0.0141141 0)
(0.0126278 -0.0128733 0)
(0.0121733 -0.0116807 0)
(0.0117615 -0.0105314 0)
(0.0113915 -0.00942085 0)
(0.0110623 -0.00834461 0)
(0.0107729 -0.0072984 0)
(0.0105225 -0.00627813 0)
(0.01031 -0.00527993 0)
(0.0101346 -0.00430011 0)
(0.00999559 -0.00333522 0)
(0.00989232 -0.0023833 0)
(0.00982383 -0.00145618 0)
(0.00978599 -0.000671043 0)
(0.0193903 -0.0216273 0)
(0.0185111 -0.0200672 0)
(0.017684 -0.018583 0)
(0.0169079 -0.0171708 0)
(0.0161838 -0.0158258 0)
(0.0155116 -0.0145431 0)
(0.0148911 -0.0133177 0)
(0.0143217 -0.0121443 0)
(0.0138026 -0.011018 0)
(0.0133331 -0.00993378 0)
(0.0129118 -0.0088868 0)
(0.0125376 -0.00787255 0)
(0.0122093 -0.00688672 0)
(0.0119255 -0.00592527 0)
(0.011685 -0.00498442 0)
(0.0114866 -0.00406061 0)
(0.0113295 -0.0031506 0)
(0.0112126 -0.00225251 0)
(0.011135 -0.0013774 0)
(0.0110921 -0.000635236 0)
(0.0216234 -0.0202509 0)
(0.0206325 -0.0187695 0)
(0.0196998 -0.0173642 0)
(0.0188243 -0.016031 0)
(0.0180078 -0.0147653 0)
(0.0172506 -0.0135617 0)
(0.0165525 -0.0124149 0)
(0.015913 -0.0113193 0)
(0.0153313 -0.0102694 0)
(0.0148061 -0.00925989 0)
(0.0143361 -0.00828573 0)
(0.0139195 -0.00734223 0)
(0.0135548 -0.00642505 0)
(0.0132401 -0.00553017 0)
(0.0129738 -0.00465394 0)
(0.0127545 -0.00379299 0)
(0.0125809 -0.00294433 0)
(0.0124518 -0.00210627 0)
(0.012366 -0.00128907 0)
(0.0123183 -0.000594998 0)
(0.0237381 -0.0187115 0)
(0.0226354 -0.0173163 0)
(0.0215962 -0.0159985 0)
(0.0206206 -0.0147541 0)
(0.0197113 -0.0135781 0)
(0.0188693 -0.0124647 0)
(0.0180945 -0.0114077 0)
(0.0173867 -0.0104009 0)
(0.0167447 -0.00943814 0)
(0.0161669 -0.00851355 0)
(0.0156513 -0.00762177 0)
(0.0151958 -0.0067579 0)
(0.014798 -0.00591752 0)
(0.0144557 -0.00509672 0)
(0.0141667 -0.004292 0)
(0.0139291 -0.00350028 0)
(0.0137411 -0.00271886 0)
(0.0136015 -0.00194635 0)
(0.0135086 -0.00119228 0)
(0.013457 -0.00055084 0)
(0.0257251 -0.0170086 0)
(0.0245084 -0.0157058 0)
(0.0233602 -0.0144838 0)
(0.0222821 -0.0133383 0)
(0.0212784 -0.0122636 0)
(0.0203511 -0.0112527 0)
(0.0195007 -0.0102981 0)
(0.0187267 -0.00939244 0)
(0.0180275 -0.00852852 0)
(0.0174009 -0.00769979 0)
(0.0168442 -0.00690039 0)
(0.0163542 -0.00612515 0)
(0.0159279 -0.00536965 0)
(0.0155622 -0.00463008 0)
(0.0152545 -0.00390324 0)
(0.015002 -0.00318642 0)
(0.0148026 -0.00247737 0)
(0.0146547 -0.00177509 0)
(0.0145562 -0.0010885 0)
(0.0145014 -0.000503435 0)
(0.027578 -0.0151395 0)
(0.0262422 -0.013933 0)
(0.0249784 -0.0128147 0)
(0.0237924 -0.0117795 0)
(0.0226909 -0.0108195 0)
(0.0216771 -0.00992579 0)
(0.020752 -0.00908851 0)
(0.0199147 -0.00829827 0)
(0.0191628 -0.00754646 0)
(0.0184928 -0.00682552 0)
(0.0179008 -0.006129 0)
(0.0173825 -0.00545152 0)
(0.0169338 -0.0047887 0)
(0.0165505 -0.00413702 0)
(0.0162291 -0.00349369 0)
(0.0159661 -0.00285655 0)
(0.015759 -0.00222397 0)
(0.0156055 -0.0015955 0)
(0.0155033 -0.000979585 0)
(0.0154465 -0.000453648 0)
(0.0292967 -0.0130955 0)
(0.0278292 -0.0119851 0)
(0.0264366 -0.0109793 0)
(0.0251324 -0.0100686 0)
(0.0239265 -0.00924117 0)
(0.022824 -0.0084836 0)
(0.0218258 -0.00778225 0)
(0.0209296 -0.00712473 0)
(0.0201315 -0.00650036 0)
(0.0194259 -0.0059004 0)
(0.018807 -0.00531784 0)
(0.0182689 -0.00474723 0)
(0.0178057 -0.00418445 0)
(0.0174123 -0.00362647 0)
(0.0170837 -0.00307121 0)
(0.016816 -0.00251728 0)
(0.0166056 -0.00196389 0)
(0.01645 -0.00141137 0)
(0.0163465 -0.000867892 0)
(0.016289 -0.000402569 0)
(0.0308915 -0.0108508 0)
(0.0292642 -0.00983236 0)
(0.0277163 -0.00895173 0)
(0.0262755 -0.00818784 0)
(0.0249551 -0.0075197 0)
(0.0237613 -0.00692541 0)
(0.0226933 -0.00638502 0)
(0.021746 -0.00588186 0)
(0.0209118 -0.00540293 0)
(0.0201821 -0.0049385 0)
(0.0195482 -0.00448134 0)
(0.0190017 -0.00402623 0)
(0.0185349 -0.00356974 0)
(0.0181409 -0.00310984 0)
(0.0178136 -0.00264554 0)
(0.0175481 -0.00217661 0)
(0.0173402 -0.00170339 0)
(0.0171867 -0.0012272 0)
(0.0170846 -0.00075619 0)
(0.0170281 -0.000351474 0)
(0.0323938 -0.00841721 0)
(0.0305389 -0.00749952 0)
(0.0287856 -0.00676259 0)
(0.0271781 -0.00616731 0)
(0.02573 -0.00568146 0)
(0.024445 -0.00527358 0)
(0.0233166 -0.00491668 0)
(0.0223326 -0.00458903 0)
(0.0214791 -0.00427413 0)
(0.0207424 -0.00396007 0)
(0.0201103 -0.00363898 0)
(0.0195712 -0.00330648 0)
(0.0191149 -0.00296063 0)
(0.0187325 -0.00260106 0)
(0.0184169 -0.00222843 0)
(0.018162 -0.00184409 0)
(0.017963 -0.00144984 0)
(0.0178165 -0.00104826 0)
(0.0177193 -0.000647716 0)
(0.0176654 -0.000301853 0)
(0.0337996 -0.00535401 0)
(0.0316197 -0.00453661 0)
(0.029619 -0.00402188 0)
(0.0278202 -0.0037112 0)
(0.0262322 -0.00353245 0)
(0.024854 -0.00342139 0)
(0.0236713 -0.00333363 0)
(0.022664 -0.00324167 0)
(0.0218104 -0.0031294 0)
(0.0210895 -0.00298831 0)
(0.0204819 -0.00281523 0)
(0.0199707 -0.00261086 0)
(0.0195426 -0.00237738 0)
(0.0191868 -0.00211745 0)
(0.018895 -0.00183423 0)
(0.0186604 -0.0015312 0)
(0.018478 -0.00121199 0)
(0.018344 -0.000880725 0)
(0.0182551 -0.000546225 0)
(0.0182059 -0.000255418 0)
(0.0354339 -0.00249888 0)
(0.0324161 -0.00184442 0)
(0.0299617 -0.0015618 0)
(0.0278767 -0.00152238 0)
(0.0261437 -0.00161356 0)
(0.0247288 -0.00175514 0)
(0.0235732 -0.00189741 0)
(0.0226243 -0.00200872 0)
(0.021841 -0.00207436 0)
(0.0211912 -0.00209048 0)
(0.0206495 -0.00205666 0)
(0.0201966 -0.00197444 0)
(0.0198197 -0.00184737 0)
(0.0195085 -0.00168061 0)
(0.0192544 -0.00147989 0)
(0.0190509 -0.00125099 0)
(0.0188931 -0.000999551 0)
(0.0187773 -0.000731319 0)
(0.0187005 -0.00045576 0)
(0.018658 -0.000214001 0)
(0.0367102 0.00314218 0)
(0.0329036 0.00318923 0)
(0.0300744 0.00267481 0)
(0.0277467 0.00188861 0)
(0.0259 0.00108285 0)
(0.0244487 0.000369291 0)
(0.0233091 -0.000218546 0)
(0.0224112 -0.000677549 0)
(0.0216936 -0.00101546 0)
(0.0211148 -0.00124381 0)
(0.0206477 -0.00137385 0)
(0.0202697 -0.00141914 0)
(0.0199623 -0.00139399 0)
(0.0197118 -0.00131151 0)
(0.0195087 -0.00118266 0)
(0.0193467 -0.00101688 0)
(0.0192211 -0.000822408 0)
(0.0191289 -0.000606826 0)
(0.0190677 -0.000380361 0)
(0.0190339 -0.000179418 0)
(0.0389091 0.00696239 0)
(0.03152 0.00671154 0)
(0.0280758 0.00555447 0)
(0.0255999 0.00417383 0)
(0.0239738 0.00288475 0)
(0.0228706 0.00178583 0)
(0.0220784 0.000896895 0)
(0.0214863 0.000206226 0)
(0.0210323 -0.000306217 0)
(0.0206794 -0.000662368 0)
(0.020399 -0.000891543 0)
(0.0201679 -0.00101874 0)
(0.0199735 -0.00106291 0)
(0.0198103 -0.00103953 0)
(0.0196753 -0.000962099 0)
(0.0195656 -0.000842149 0)
(0.0194794 -0.000689543 0)
(0.0194155 -0.000513074 0)
(0.0193727 -0.000323388 0)
(0.0193489 -0.000153157 0)
(0.0367339 0.0227752 0)
(0.0297286 0.01822 0)
(0.0263018 0.0125193 0)
(0.0239297 0.0082325 0)
(0.0224949 0.00530672 0)
(0.0216126 0.00328694 0)
(0.0210545 0.00187241 0)
(0.0206936 0.000878847 0)
(0.0204534 0.000185859 0)
(0.020279 -0.000291059 0)
(0.0201388 -0.000602893 0)
(0.0200251 -0.000786802 0)
(0.0199327 -0.000872172 0)
(0.0198559 -0.000881372 0)
(0.0197908 -0.00083172 0)
(0.0197361 -0.000736933 0)
(0.0196917 -0.000608136 0)
(0.0196577 -0.000454796 0)
(0.0196344 -0.000287572 0)
(0.0196213 -0.000136416 0)
(0.00575074 0.0184062 0)
(0.0103005 0.018162 0)
(0.0144351 0.0128927 0)
(0.0163686 0.00859178 0)
(0.0176342 0.00556528 0)
(0.0184214 0.00345223 0)
(0.0189292 0.00197095 0)
(0.0192657 0.000934284 0)
(0.0194862 0.000219846 0)
(0.019635 -0.000262055 0)
(0.0197412 -0.000573017 0)
(0.0198104 -0.00075451 0)
(0.0198495 -0.000837333 0)
(0.019868 -0.00084509 0)
(0.0198733 -0.000795884 0)
(0.0198707 -0.000703733 0)
(0.0198642 -0.000579697 0)
(0.0198568 -0.000432922 0)
(0.0198505 -0.000273462 0)
(0.0198465 -0.000129503 0)
(0.00270088 0.007446 0)
(0.00768602 0.00944486 0)
(0.0117626 0.00749359 0)
(0.0142034 0.00537566 0)
(0.0158869 0.00359024 0)
(0.0170536 0.00219337 0)
(0.0178891 0.00113675 0)
(0.0185051 0.000366066 0)
(0.0189617 -0.000179348 0)
(0.0192909 -0.000539755 0)
(0.0195259 -0.000761863 0)
(0.0196959 -0.000880562 0)
(0.0198181 -0.000919348 0)
(0.0199034 -0.000896251 0)
(0.0199607 -0.000825843 0)
(0.0199976 -0.000719672 0)
(0.0200202 -0.000586968 0)
(0.0200333 -0.000435425 0)
(0.0200401 -0.000273832 0)
(0.0200432 -0.000129128 0)
(0.00142573 0.00507921 0)
(0.00514347 0.00605996 0)
(0.00901106 0.00474615 0)
(0.0118043 0.00324963 0)
(0.0139774 0.00196072 0)
(0.01561 0.000947147 0)
(0.0168371 0.000196573 0)
(0.0177595 -0.000339106 0)
(0.0184498 -0.000706518 0)
(0.0189685 -0.000939452 0)
(0.0193512 -0.00106346 0)
(0.0196301 -0.00110294 0)
(0.0198314 -0.00107918 0)
(0.0199747 -0.00100841 0)
(0.020075 -0.000902511 0)
(0.0201436 -0.000770498 0)
(0.0201893 -0.000619375 0)
(0.0202184 -0.000454897 0)
(0.0202354 -0.000284183 0)
(0.020244 -0.000133206 0)
(0.00124055 0.000875295 0)
(0.00456474 0.00104351 0)
(0.00817916 0.000549708 0)
(0.010979 -2.484e-05 0)
(0.0132501 -0.000541887 0)
(0.015036 -0.000951195 0)
(0.0164185 -0.00123848 0)
(0.0174726 -0.0014206 0)
(0.0182754 -0.00151018 0)
(0.0188829 -0.00152952 0)
(0.019339 -0.00149413 0)
(0.0196779 -0.00141582 0)
(0.0199261 -0.00130468 0)
(0.0201053 -0.00116885 0)
(0.0202326 -0.00101472 0)
(0.0203212 -0.000847208 0)
(0.0203812 -0.000670124 0)
(0.0204202 -0.000486612 0)
(0.0204435 -0.000301684 0)
(0.0204554 -0.000140452 0)
(0.00110061 -0.00168382 0)
(0.00418768 -0.00247392 0)
(0.00770516 -0.00268004 0)
(0.0105475 -0.00276205 0)
(0.0129179 -0.00277796 0)
(0.0148139 -0.0027345 0)
(0.0163007 -0.0026454 0)
(0.017449 -0.00251444 0)
(0.0183253 -0.00235219 0)
(0.0189868 -0.0021688 0)
(0.0194811 -0.00197224 0)
(0.0198466 -0.00176856 0)
(0.0201137 -0.00156134 0)
(0.0203061 -0.00135279 0)
(0.0204426 -0.00114422 0)
(0.0205375 -0.000936369 0)
(0.0206017 -0.000729551 0)
(0.0206435 -0.000524031 0)
(0.0206684 -0.000322476 0)
(0.0206811 -0.000149143 0)
(0.00114405 -0.00490543 0)
(0.00434659 -0.00667149 0)
(0.00797484 -0.00646194 0)
(0.01088 -0.00591045 0)
(0.0132827 -0.00530735 0)
(0.0151876 -0.00472297 0)
(0.01667 -0.00418025 0)
(0.0178078 -0.00368447 0)
(0.0186704 -0.00323502 0)
(0.0193171 -0.00282883 0)
(0.0197964 -0.00246105 0)
(0.0201475 -0.00212648 0)
(0.0204013 -0.00182001 0)
(0.020582 -0.00153692 0)
(0.0207085 -0.00127295 0)
(0.0207951 -0.00102434 0)
(0.0208528 -0.000787736 0)
(0.0208896 -0.000560401 0)
(0.0209112 -0.000342563 0)
(0.0209221 -0.000157487 0)
(0.0013535 -0.00771905 0)
(0.00499339 -0.0105261 0)
(0.00892001 -0.00997893 0)
(0.0119017 -0.00886788 0)
(0.0142777 -0.00770141 0)
(0.0161021 -0.00660985 0)
(0.0174876 -0.00563532 0)
(0.0185293 -0.00478804 0)
(0.0193031 -0.00406119 0)
(0.0198714 -0.00343998 0)
(0.0202838 -0.00290771 0)
(0.0205793 -0.00244859 0)
(0.0207875 -0.00204879 0)
(0.0209313 -0.00169654 0)
(0.0210284 -0.00138197 0)
(0.021092 -0.00109687 0)
(0.0211323 -0.00083433 0)
(0.0211566 -0.000588681 0)
(0.02117 -0.000357773 0)
(0.0211765 -0.000163615 0)
(0.00167692 -0.0125371 0)
(0.00601641 -0.0161989 0)
(0.0104497 -0.0146039 0)
(0.0135427 -0.0123555 0)
(0.0158682 -0.0102597 0)
(0.0175492 -0.00846535 0)
(0.0187521 -0.00697518 0)
(0.0196068 -0.0057539 0)
(0.0202111 -0.00475591 0)
(0.0206354 -0.00393679 0)
(0.0209295 -0.00325892 0)
(0.0211291 -0.00269276 0)
(0.0212608 -0.00221485 0)
(0.0213441 -0.00180633 0)
(0.0213938 -0.00145201 0)
(0.021421 -0.00113958 0)
(0.0214339 -0.00085893 0)
(0.0214387 -0.000601817 0)
(0.0214395 -0.000363941 0)
(0.021439 -0.00016566 0)
(0.00334613 -0.0150718 0)
(0.00938543 -0.0199466 0)
(0.0142346 -0.0175489 0)
(0.0169688 -0.0145496 0)
(0.0187364 -0.0118772 0)
(0.0198592 -0.00965618 0)
(0.0205878 -0.00784806 0)
(0.0210662 -0.00638417 0)
(0.0213801 -0.00519929 0)
(0.0215823 -0.00423875 0)
(0.0217057 -0.00345735 0)
(0.0217725 -0.00281702 0)
(0.0218006 -0.00228699 0)
(0.0218031 -0.00184295 0)
(0.0217904 -0.00146561 0)
(0.0217699 -0.00113957 0)
(0.0217473 -0.000852279 0)
(0.0217267 -0.000593559 0)
(0.0217112 -0.00035738 0)
(0.0217018 -0.000161974 0)
(0.00759842 -0.029339 0)
(0.0131091 -0.0311989 0)
(0.0181077 -0.0244478 0)
(0.0202335 -0.0185236 0)
(0.0215044 -0.0141664 0)
(0.0221706 -0.010974 0)
(0.0224997 -0.00859773 0)
(0.0226381 -0.0067984 0)
(0.0226652 -0.00541476 0)
(0.0226274 -0.00433645 0)