/*--------------------------------*- C++ -*----------------------------------*\
| =========                 |                                                 |
| \\      /  F ield         | OpenFOAM: The Open Source CFD Toolbox           |
|  \\    /   O peration     | Version:  v1806                                 |
|   \\  /    A nd           | Web:      www.OpenFOAM.com                      |
|    \\/     M anipulation  |                                                 |
\*---------------------------------------------------------------------------*/
FoamFile
{
    version     2.0;
    format      ascii;
    class       volScalarField;
    location    "490";
    object      p;
}
// * * * * * * * * * * * * * * * * * * * * * * * * * * * * * * * * * * * * * //

dimensions      [0 2 -2 0 0 0 0];


internalField   nonuniform List<scalar> 
5735
(
0.00946259
0.00947294
0.00946471
0.00947294
0.00946259
0.0159689
0.0159751
0.0159702
0.0159751
0.0159689
0.0208666
0.0208021
0.0207993
0.0208021
0.0208666
0.036764
0.036833
0.0368343
0.036833
0.036764
0.0405759
0.0406434
0.0406426
0.0406434
0.0405759
0.0407365
0.0408102
0.0408087
0.0408102
0.0407365
0.0365945
0.0366468
0.036648
0.0366468
0.0365945
0.0317354
0.0317788
0.0317823
0.0317788
0.0317354
0.0329272
0.0329806
0.0329841
0.0329806
0.0329271
0.0299519
0.0299427
0.0299245
0.0299426
0.0299519
0.0302164
0.0302494
0.0302387
0.0302493
0.0302163
0.0182397
0.0181452
0.0181324
0.018145
0.0182396
0.0143404
0.0142103
0.0141956
0.0142103
0.0143404
-0.000287196
-0.000283393
-0.000281065
-0.000283393
-0.000287197
0.000156658
0.000158835
0.000160892
0.000158835
0.000156658
0.000620502
0.000624453
0.000626384
0.000624453
0.000620502
0.00171076
0.00171564
0.00171611
0.00171563
0.00171075
0.00177281
0.00177934
0.0017795
0.00177934
0.00177281
0.00169097
0.00169513
0.00169574
0.00169512
0.00169096
0.0585104
0.0586615
0.0586338
0.0586615
0.0585104
0.055061
0.055183
0.055165
0.055183
0.055061
0.0511791
0.0512999
0.051288
0.0512999
0.0511791
0.0518526
0.0519751
0.05196
0.0519751
0.0518526
0.00167088
0.00167697
0.00167756
0.00167697
0.00167088
0.00166536
0.00167242
0.00167316
0.00167243
0.00166537
0.00169147
0.00169722
0.00169747
0.00169722
0.00169147
-0.00731515
-0.00746986
-0.00747605
-0.00746986
-0.00731515
-0.00615511
-0.00620531
-0.00620693
-0.00620531
-0.0061551
-0.00457215
-0.00468634
-0.00469094
-0.00468634
-0.00457214
-0.00877529
-0.00882562
-0.00882217
-0.00882562
-0.00877529
-0.00686192
-0.00688796
-0.00688685
-0.00688796
-0.00686192
-0.00583481
-0.00579709
-0.00579344
-0.00579709
-0.00583481
0.0333119
0.0333715
0.0333725
0.0333715
0.0333119
0.0304661
0.0305043
0.0305071
0.0305043
0.0304661
0.0289204
0.0289584
0.0289621
0.0289584
0.0289203
0.00165089
0.00165449
0.00165501
0.00165449
0.00165088
0.00171405
0.00171782
0.00171836
0.00171782
0.00171404
0.00150539
0.00150866
0.00150922
0.00150869
0.0015054
0.00155154
0.00155557
0.00155608
0.00155558
0.00155155
0.00175045
0.00175363
0.00175416
0.00175365
0.00175046
0.00173528
0.00173989
0.00174033
0.00173989
0.00173528
0.00175702
0.0017612
0.00176165
0.0017612
0.00175702
0.00192301
0.0019286
0.00192882
0.0019286
0.00192301
0.00166197
0.00166473
0.00166519
0.0016647
0.00166195
0.00192367
0.00192974
0.00192992
0.00192974
0.00192367
0.00183795
0.00184521
0.00184549
0.00184521
0.00183795
0.00170339
0.0017071
0.00170753
0.0017071
0.00170339
0.00172377
0.00173064
0.00173102
0.00173063
0.00172377
0.00152491
0.00152695
0.00152754
0.00152695
0.00152492
0.00154535
0.00154815
0.0015487
0.00154817
0.00154535
0.00158112
0.00158489
0.00158536
0.00158489
0.00158112
0.00170605
0.00171132
0.0017118
0.00171132
0.00170605
0.00158671
0.0015905
0.00159096
0.00159049
0.0015867
0.00170253
0.00170757
0.00170796
0.00170757
0.00170253
0.00180847
0.00181395
0.00181423
0.00181395
0.00180847
0.00168237
0.00168625
0.00168681
0.00168625
0.00168237
0.00163757
0.00164172
0.00164227
0.00164172
0.00163757
0.00155914
0.00156224
0.00156276
0.0015622
0.00155912
0.00144863
0.00145163
0.00145213
0.0014516
0.00144862
0.00146641
0.0014701
0.00147058
0.0014701
0.0014664
0.00146047
0.00146388
0.00146435
0.00146388
0.00146047
0.00144794
0.00145207
0.00145257
0.00145207
0.00144794
0.00144304
0.00144736
0.00144783
0.00144737
0.00144305
0.00143158
0.00143574
0.00143618
0.00143575
0.00143158
0.00168275
0.0016893
0.00168979
0.00168931
0.00168275
0.00165014
0.00165557
0.00165607
0.00165557
0.00165015
0.00159158
0.00159633
0.00159688
0.00159634
0.00159159
0.00140051
0.0014041
0.0014046
0.00140411
0.00140052
0.00168668
0.00169125
0.00169172
0.00169125
0.00168668
0.00162506
0.00162901
0.00162951
0.001629
0.00162506
0.00153932
0.00154273
0.00154325
0.00154271
0.00153931
0.00143281
0.00143581
0.00143635
0.00143584
0.00143282
0.00130777
0.00131039
0.00131091
0.00131039
0.00130777
0.001322
0.00132468
0.00132518
0.00132471
0.00132201
0.00133375
0.0013368
0.00133727
0.00133679
0.00133376
0.00132968
0.0013324
0.0013329
0.00133243
0.00132969
0.00131944
0.00132227
0.00132277
0.00132225
0.00131943
0.0013092
0.00131179
0.00131229
0.00131182
0.00130921
0.00129257
0.00129565
0.0012961
0.00129566
0.00129258
0.00126498
0.00126787
0.00126834
0.0012679
0.001265
0.00171845
0.0017236
0.00172404
0.0017236
0.00171844
0.0012297
0.00123243
0.00123298
0.00123243
0.0012297
0.00136057
0.00136382
0.00136446
0.00136383
0.00136057
0.00146673
0.00147049
0.00147116
0.00147044
0.00146671
0.00154597
0.00155008
0.00155082
0.00155012
0.00154599
0.00159115
0.00159523
0.00159602
0.00159522
0.00159115
0.00160896
0.00161313
0.00161403
0.00161313
0.00160895
0.00168235
0.00168619
0.00168684
0.00168614
0.00168233
0.00165798
0.00166193
0.00166258
0.00166195
0.00165798
0.00160197
0.00160586
0.00160647
0.00160584
0.00160196
0.00151935
0.00152289
0.00152352
0.00152292
0.00151936
0.00141435
0.00141734
0.00141796
0.00141734
0.00141435
0.00128936
0.00129187
0.00129247
0.00129187
0.00128936
0.00115031
0.00115233
0.0011529
0.00115233
0.00115031
0.0011701
0.0011723
0.00117281
0.0011723
0.0011701
0.00118564
0.001188
0.00118847
0.00118799
0.00118564
0.0011957
0.00119837
0.00119884
0.00119839
0.00119571
0.00119358
0.0011961
0.00119659
0.00119609
0.00119358
0.00118301
0.00118546
0.00118599
0.00118546
0.001183
0.00117396
0.00117653
0.00117701
0.00117651
0.00117395
0.00115475
0.0011576
0.00115804
0.00115761
0.00115476
0.00112611
0.00112876
0.00112921
0.00112878
0.00112612
0.0016675
0.00167099
0.00167175
0.00167098
0.0016675
0.00108699
0.00108938
0.00108987
0.00108938
0.001087
0.0471418
0.0472265
0.0472196
0.0472265
0.0471418
0.0480283
0.0481311
0.0481247
0.0481311
0.0480283
0.0467542
0.0468823
0.0468755
0.0468823
0.0467542
0.0499425
0.0500402
0.0500296
0.0500402
0.0499425
0.0451894
0.0452727
0.0452674
0.0452727
0.0451894
0.0445476
0.0446211
0.0446179
0.0446211
0.0445475
0.0445434
0.0446245
0.0446204
0.0446245
0.0445434
0.0426718
0.0427454
0.0427428
0.0427454
0.0426718
0.0410756
0.0411369
0.0411348
0.0411369
0.0410756
0.0514567
0.0516076
0.0515947
0.0516076
0.0514567
0.0452422
0.04534
0.045335
0.04534
0.0452422
0.0401946
0.0402767
0.0402757
0.0402767
0.0401946
0.0572089
0.0573506
0.0573227
0.0573506
0.0572089
0.039978
0.0400231
0.0400175
0.0400231
0.039978
0.0413818
0.0414115
0.0413989
0.0414115
0.0413818
0.0403561
0.0403119
0.0402941
0.0403119
0.0403561
0.0389255
0.0389524
0.0389508
0.0389524
0.0389255
0.0336504
0.0336651
0.0336652
0.0336651
0.0336504
0.0344679
0.0345202
0.0345179
0.0345202
0.0344679
0.0346117
0.0346616
0.0346541
0.0346616
0.0346117
0.0376746
0.0377381
0.0377368
0.0377381
0.0376746
0.0351326
0.0352001
0.0352014
0.0352001
0.0351326
0.0358508
0.0359131
0.0359144
0.0359131
0.0358508
0.00157828
0.00158112
0.00158218
0.00158111
0.00157827
0.0422082
0.0422622
0.0422545
0.0422622
0.0422082
0.0397605
0.0397936
0.0397893
0.0397936
0.0397605
0.0370029
0.0370595
0.0370578
0.0370595
0.0370029
0.0336855
0.0337307
0.0337314
0.0337307
0.0336855
0.0414719
0.0414901
0.0414766
0.0414901
0.0414719
0.00161567
0.00161789
0.00161892
0.00161789
0.00161567
0.0330354
0.0330922
0.0330952
0.0330922
0.0330354
0.0321873
0.0322452
0.0322483
0.0322452
0.0321873
0.0305366
0.0305896
0.0305925
0.0305896
0.0305366
0.00151472
0.00151664
0.00151808
0.00151664
0.00151472
0.00168313
0.00168636
0.00168714
0.00168636
0.00168313
0.00168505
0.00168741
0.00168808
0.00168741
0.00168504
0.00164949
0.00165136
0.00165198
0.00165136
0.00164949
0.00158517
0.00158663
0.00158718
0.00158662
0.00158517
0.00149769
0.00149893
0.00149944
0.00149893
0.00149769
0.00139019
0.0013914
0.00139189
0.0013914
0.00139019
0.00126534
0.00126652
0.00126701
0.00126652
0.00126534
0.00112685
0.00112811
0.00112859
0.0011281
0.00112685
0.000979299
0.000980546
0.000981006
0.000980546
0.000979299
0.00100702
0.00100865
0.00100916
0.00100865
0.00100702
0.00102863
0.00103051
0.00103099
0.00103051
0.00102863
0.00104483
0.00104689
0.00104734
0.00104689
0.00104483
0.00105316
0.00105543
0.00105587
0.00105542
0.00105316
0.00105213
0.00105425
0.00105472
0.00105425
0.00105213
0.00104375
0.00104583
0.00104632
0.00104583
0.00104375
0.00103477
0.00103708
0.00103752
0.00103709
0.00103478
0.00101416
0.00101656
0.00101696
0.00101653
0.00101415
0.000984273
0.000986487
0.000986912
0.000986485
0.000984273
0.000944106
0.000946111
0.000946577
0.000946111
0.000944106
0.000893637
0.00089541
0.000895898
0.00089541
0.000893638
0.00104295
0.00104505
0.00104555
0.00104505
0.00104296
0.00118604
0.00118796
0.00118848
0.00118797
0.00118604
0.00131387
0.00131562
0.0013162
0.00131562
0.00131387
0.00142409
0.00142593
0.00142657
0.00142593
0.00142408
0.00150977
0.00151183
0.00151254
0.00151183
0.00150977
0.00156879
0.00157119
0.00157198
0.00157119
0.00156879
0.00160284
0.0016058
0.0016067
0.00160579
0.00160283
0.00160272
0.00160627
0.00160734
0.00160626
0.00160271
0.036211
0.0361474
0.0361271
0.0361474
0.036211
0.038206
0.0382522
0.0382395
0.0382522
0.038206
0.0374108
0.0374866
0.0374776
0.0374866
0.0374108
0.0354974
0.0355621
0.0355586
0.0355621
0.0354974
0.0333436
0.0334025
0.0334014
0.0334025
0.0333436
0.0307236
0.0307699
0.0307715
0.0307698
0.0307235
0.0282376
0.0282807
0.028284
0.0282807
0.0282376
0.0292478
0.0292821
0.0292838
0.0292821
0.0292478
0.0271785
0.0272172
0.0272201
0.0272172
0.0271785
0.0263562
0.0263639
0.0263519
0.0263637
0.0263561
0.0294324
0.0294804
0.029472
0.0294804
0.0294323
0.0296502
0.0296895
0.0296861
0.0296895
0.0296502
0.0291341
0.0291773
0.0291763
0.0291773
0.0291341
0.0272413
0.0272822
0.0272829
0.0272822
0.0272413
0.0247584
0.0247766
0.0247795
0.0247767
0.0247584
0.023005
0.0230268
0.0230297
0.0230268
0.023005
0.0251728
0.0252055
0.0252093
0.0252055
0.0251728
0.0270467
0.0270782
0.0270829
0.027078
0.0270467
0.0288741
0.0289193
0.028924
0.0289193
0.0288741
0.0297119
0.029757
0.0297618
0.029757
0.0297118
0.0297611
0.029805
0.0298098
0.029805
0.0297611
0.0290055
0.0290522
0.029057
0.0290521
0.0290055
0.0276
0.0276414
0.0276465
0.0276415
0.0276
0.0256981
0.0257328
0.0257382
0.0257329
0.0256982
0.0234691
0.0234992
0.0235041
0.0234989
0.023469
0.0255424
0.0255779
0.0255813
0.0255779
0.0255423
0.0273819
0.027416
0.0274178
0.027416
0.0273819
0.0290965
0.0291331
0.0291325
0.0291331
0.0290965
0.0302815
0.0303149
0.0303121
0.0303149
0.0302815
0.0304142
0.0304275
0.0304212
0.0304275
0.0304142
0.0288172
0.028818
0.0288107
0.028818
0.0288172
0.0235516
0.0235802
0.0235819
0.0235802
0.0235516
0.0246883
0.0247281
0.0247264
0.0247281
0.0246883
0.0249085
0.0249418
0.0249375
0.0249418
0.0249085
0.0239376
0.0239548
0.0239472
0.0239548
0.0239376
0.021518
0.0215008
0.0214922
0.0215008
0.021518
0.0167096
0.016646
0.0166376
0.0166459
0.0167095
0.0110336
0.010981
0.0109785
0.010981
0.0110336
0.00440227
0.00435897
0.00435992
0.00435901
0.00440231
0.0221792
0.0221929
0.0221955
0.0221929
0.0221792
0.0206626
0.0206765
0.0206787
0.0206765
0.0206626
0.022352
0.0223925
0.0223872
0.0223925
0.0223521
0.0243757
0.0243887
0.0243862
0.0243887
0.0243757
0.0252309
0.0252529
0.0252521
0.0252529
0.0252308
0.0247815
0.0248011
0.0248017
0.0248011
0.0247815
0.0238549
0.0238794
0.0238813
0.0238794
0.0238549
0.0225144
0.022543
0.0225463
0.022543
0.0225144
0.0209531
0.0209776
0.0209825
0.0209777
0.0209531
0.019476
0.0194951
0.0195007
0.0194951
0.019476
0.0216652
0.0216884
0.0216944
0.0216883
0.0216652
0.0235803
0.0236066
0.0236128
0.0236066
0.0235803
0.0251929
0.0252248
0.025231
0.0252248
0.0251929
0.026381
0.0264175
0.0264232
0.0264172
0.0263809
0.0269724
0.0270087
0.0270143
0.0270088
0.0269725
0.0269468
0.0269823
0.0269879
0.0269821
0.0269467
0.0262676
0.0262976
0.0263034
0.0262976
0.0262676
0.024993
0.025022
0.0250275
0.0250221
0.0249931
0.0233937
0.0234269
0.0234315
0.0234269
0.0233937
0.0213977
0.021425
0.0214286
0.021425
0.0213977
0.019276
0.0193004
0.0193032
0.0193004
0.0192759
0.00338053
0.00337158
0.00336186
0.00337158
0.00338053
-0.00206951
-0.00216016
-0.00217047
-0.00216016
-0.00206951
0.00102683
0.0010339
0.00103475
0.00103392
0.00102684
0.00138066
0.00138958
0.00139137
0.00138958
0.00138066
0.00156258
0.00156734
0.00156859
0.00156733
0.00156257
0.0014945
0.00150029
0.00150166
0.00150028
0.0014945
0.00145124
0.00145645
0.00145822
0.00145646
0.00145125
0.00158641
0.00159436
0.00159609
0.00159436
0.00158641
0.00165635
0.00166282
0.00166426
0.00166281
0.00165634
0.00169434
0.00170188
0.00170309
0.00170181
0.0016943
0.001675
0.00168259
0.00168366
0.00168257
0.00167498
0.00161596
0.00162323
0.00162423
0.00162323
0.00161596
0.00152738
0.00153402
0.00153495
0.00153401
0.00152738
0.00141495
0.00142071
0.00142155
0.00142069
0.00141494
0.00128111
0.00128622
0.00128697
0.00128621
0.00128111
0.00113884
0.00114271
0.00114343
0.00114277
0.00113887
0.000988243
0.000990901
0.000991555
0.000990907
0.00098825
0.000835048
0.000836775
0.000837395
0.000836775
0.000835048
0.00101034
0.00101465
0.00101631
0.00101465
0.00101034
0.00134458
0.00135054
0.0013519
0.00135054
0.00134458
0.0016243
0.00162724
0.00162822
0.00162723
0.0016243
0.00154657
0.00155094
0.00155208
0.00155094
0.00154657
0.00146237
0.00146603
0.00146745
0.00146603
0.00146237
0.00160734
0.0016125
0.00161393
0.0016125
0.00160734
0.00170024
0.00170548
0.00170667
0.00170549
0.00170024
0.00175708
0.00176344
0.00176442
0.00176347
0.0017571
0.00175538
0.00176176
0.00176264
0.00176176
0.00175538
0.00170997
0.00171639
0.00171725
0.00171639
0.00170997
0.00163155
0.00163791
0.00163871
0.00163791
0.00163155
0.00152486
0.00153074
0.00153148
0.00153074
0.00152486
0.00139685
0.00140207
0.00140276
0.00140207
0.00139685
0.001253
0.00125728
0.00125795
0.0012573
0.00125301
0.0010992
0.00110244
0.00110305
0.00110243
0.0010992
0.000942902
0.000945219
0.000945767
0.000945218
0.000942901
0.000787524
0.000789131
0.000789606
0.00078913
0.000787523
0.000831292
0.00083255
0.000832973
0.00083255
0.000831291
0.00086308
0.000864489
0.000864941
0.000864488
0.00086308
0.000885544
0.000887126
0.000887567
0.000887125
0.000885543
0.000900653
0.000902413
0.000902835
0.000902413
0.000900652
0.000907788
0.00090967
0.000910094
0.000909669
0.000907788
0.000907914
0.000909729
0.00091017
0.000909728
0.000907913
0.000901794
0.000903621
0.000904069
0.000903621
0.000901795
0.0008911
0.000893047
0.000893463
0.000893048
0.000891101
0.00087142
0.000873396
0.0008738
0.000873396
0.000871419
0.000842111
0.000843921
0.000844344
0.000843921
0.000842111
0.000801956
0.000803539
0.000803998
0.000803539
0.000801956
0.000750784
0.000752075
0.000752562
0.000752075
0.000750784
0.000687185
0.000688276
0.000688826
0.000688275
0.000687184
0.000711452
0.000718737
0.000721076
0.000718742
0.00071146
-0.000715352
-0.000796043
-0.000802366
-0.000796039
-0.000715346
0.0040983
0.00403624
0.00402795
0.00403624
0.00409831
0.00941483
0.00939359
0.00938244
0.0093936
0.00941485
0.0143023
0.0143447
0.014336
0.0143447
0.0143023
0.0176939
0.0177308
0.0177253
0.0177308
0.0176939
0.0196616
0.0196893
0.0196878
0.0196893
0.0196616
0.0206546
0.0206734
0.0206734
0.0206734
0.0206546
0.0207536
0.0207677
0.0207687
0.0207677
0.0207536
0.0202739
0.0202946
0.0202964
0.0202946
0.0202739
0.0193594
0.019382
0.0193852
0.019382
0.0193594
0.0182594
0.0182791
0.0182834
0.0182791
0.0182594
0.0171511
0.0171666
0.0171716
0.0171666
0.0171511
0.0160523
0.0160648
0.0160704
0.0160648
0.0160523
0.0181681
0.0181825
0.0181886
0.0181825
0.0181681
0.0201036
0.020121
0.0201274
0.020121
0.0201036
0.0218226
0.0218411
0.0218476
0.0218411
0.0218226
0.0231945
0.0232169
0.0232234
0.0232169
0.0231945
0.024161
0.0241876
0.0241939
0.0241876
0.024161
0.0246387
0.024666
0.024672
0.024666
0.0246387
0.0246204
0.024648
0.0246539
0.024648
0.0246204
0.0241065
0.0241335
0.0241395
0.0241335
0.0241065
0.0230715
0.0230943
0.0231001
0.0230943
0.0230715
0.0216624
0.0216872
0.0216925
0.0216872
0.0216624
0.0199619
0.0199877
0.0199919
0.0199874
0.0199617
0.017987
0.0180133
0.0180169
0.0180133
0.0179869
0.0159116
0.015932
0.0159352
0.0159318
0.0159115
0.0169954
0.0170157
0.0170181
0.0170157
0.0169954
0.0181551
0.0181666
0.0181686
0.0181665
0.018155
0.0191488
0.0191592
0.0191612
0.0191593
0.0191488
0.0199041
0.0199308
0.0199324
0.0199308
0.0199041
0.0204991
0.0205356
0.0205341
0.0205356
0.0204991
0.0204825
0.0205086
0.0205042
0.0205086
0.0204825
0.0194047
0.0194002
0.0193939
0.0194001
0.0194047
0.0172238
0.0171991
0.0171931
0.0171991
0.0172237
0.0131755
0.0131208
0.0131171
0.0131208
0.0131755
0.00845788
0.0084387
0.00843757
0.00843871
0.00845789
0.00239183
0.00237797
0.00237841
0.00237798
0.00239184
-0.00335215
-0.00340825
-0.00341075
-0.00340824
-0.00335213
-0.00607165
-0.00611701
-0.00611978
-0.00611701
-0.00607164
-0.00790676
-0.00798994
-0.00799186
-0.00798993
-0.00790675
-0.00861426
-0.00866829
-0.00866716
-0.00866829
-0.00861426
-0.00657602
-0.00660591
-0.00660661
-0.0066059
-0.00657602
-0.00565265
-0.00569317
-0.00569472
-0.00569317
-0.00565264
-0.00370996
-0.0037475
-0.00374969
-0.0037475
-0.00370996
-0.00074694
-0.000790587
-0.000794169
-0.000790583
-0.000746935
0.00323018
0.003237
0.00323368
0.00323702
0.0032302
0.00687002
0.00685913
0.00685728
0.00685927
0.00687009
0.0104363
0.010416
0.0104137
0.0104161
0.0104363
0.0135536
0.0135336
0.0135293
0.0135336
0.0135536
0.015452
0.0154427
0.0154379
0.0154427
0.015452
0.0164796
0.0164974
0.0164935
0.0164974
0.0164796
0.0166872
0.0167148
0.0167135
0.0167148
0.0166872
0.0164626
0.0164857
0.0164864
0.0164857
0.0164626
0.0160186
0.0160303
0.0160318
0.0160303
0.0160186
0.0153789
0.0153914
0.0153932
0.0153913
0.0153789
0.0145481
0.0145621
0.0145645
0.0145622
0.0145481
0.0137125
0.0137264
0.0137294
0.0137264
0.0137124
-0.000703366
-0.000701994
-0.000699473
-0.000701997
-0.000703371
0.000888228
0.00089968
0.000902047
0.000899679
0.000888217
0.000913548
0.000918623
0.000920745
0.00091862
0.000913542
0.0013371
0.00134537
0.0013472
0.00134537
0.00133711
0.00150873
0.00151264
0.0015143
0.00151265
0.00150874
0.00162467
0.00162747
0.001629
0.0016275
0.00162469
0.00167643
0.00167711
0.00167836
0.00167711
0.00167643
0.00167553
0.00167486
0.00167593
0.00167485
0.00167552
0.00162181
0.00161963
0.00162054
0.00161962
0.0016218
0.00153691
0.00153431
0.00153512
0.00153431
0.0015369
0.00142566
0.00142266
0.00142337
0.00142266
0.00142566
0.00130244
0.00129979
0.00130037
0.00129978
0.00130244
0.00117196
0.00117
0.00117047
0.00117
0.00117196
0.00103341
0.00103203
0.00103245
0.00103204
0.00103342
0.000890392
0.000889652
0.000890084
0.000889653
0.000890393
0.000745279
0.000745031
0.000745482
0.000745026
0.000745274
0.000602856
0.000603106
0.000603562
0.000603104
0.000602853
0.000639449
0.000640561
0.000640975
0.00064056
0.000639449
0.000685907
0.000687042
0.00068743
0.000687042
0.000685907
0.000719458
0.000720702
0.000721098
0.000720702
0.000719457
0.000741232
0.000742597
0.000742992
0.000742596
0.000741232
0.000755091
0.000756605
0.000756996
0.000756604
0.000755091
0.000761397
0.000762934
0.000763332
0.000762934
0.000761397
0.000762049
0.000763597
0.000764003
0.000763597
0.000762049
0.000757206
0.000758754
0.00075916
0.000758754
0.000757207
0.000746708
0.000748317
0.00074871
0.000748317
0.000746708
0.000728632
0.00073021
0.000730601
0.00073021
0.000728632
0.000702241
0.000703676
0.000704082
0.000703676
0.000702241
0.000664235
0.000665449
0.000665878
0.000665449
0.000664235
0.000615046
0.000616119
0.000616563
0.000616119
0.000615046
0.000550916
0.000551859
0.000552322
0.000551858
0.000550915
0.000470721
0.000471277
0.000471707
0.000471276
0.00047072
-0.0055614
-0.00556877
-0.00556584
-0.00556877
-0.0055614
-0.00439535
-0.0043966
-0.00439188
-0.0043966
-0.00439535
-0.00305434
-0.00305085
-0.00304673
-0.00305085
-0.00305434
-0.00185488
-0.00184995
-0.00184696
-0.00184995
-0.00185488
-0.00105427
-0.00105497
-0.00105238
-0.00105497
-0.00105427
8.3047e-05
9.05649e-05
9.25985e-05
9.0565e-05
8.3047e-05
0.000465478
0.000467531
0.000469557
0.000467531
0.000465478
0.000940714
0.000945904
0.000947755
0.000945904
0.000940714
0.00129013
0.00129442
0.00129591
0.00129442
0.00129013
0.00153062
0.00153473
0.00153612
0.00153473
0.00153062
0.00166239
0.00166428
0.00166549
0.00166428
0.00166239
0.00174656
0.00174667
0.00174765
0.00174666
0.00174655
0.00177879
0.00177845
0.0017792
0.00177845
0.0017788
0.00173742
0.0017355
0.00173613
0.0017355
0.00173742
0.00165298
0.00165023
0.00165082
0.00165023
0.00165298
0.00154512
0.00154177
0.00154231
0.00154177
0.00154512
0.00142542
0.00142197
0.00142243
0.00142197
0.00142542
0.00129739
0.0012944
0.00129479
0.0012944
0.00129739
0.00115985
0.00115748
0.00115782
0.00115748
0.00115985
0.00101609
0.00101439
0.0010147
0.00101439
0.00101609
0.000868235
0.000867311
0.000867618
0.00086731
0.000868235
0.000719909
0.00071958
0.000719898
0.000719579
0.000719909
0.000575513
0.000575639
0.000575964
0.000575638
0.000575513
0.0150896
0.0150998
0.0151056
0.0150998
0.0150896
0.0170305
0.0170416
0.0170478
0.0170416
0.0170305
0.0187878
0.0188005
0.0188069
0.0188005
0.0187878
0.020305
0.0203203
0.0203267
0.0203203
0.020305
0.0214951
0.0215125
0.0215189
0.0215125
0.0214951
0.0223096
0.0223299
0.0223361
0.0223299
0.0223096
0.022721
0.0227443
0.0227503
0.0227443
0.022721
0.0227019
0.0227253
0.0227313
0.0227253
0.0227019
0.0222528
0.022273
0.022279
0.022273
0.0222528
0.0214086
0.0214276
0.0214335
0.0214276
0.0214086
0.0201813
0.0202023
0.0202079
0.0202023
0.0201812
0.0186496
0.0186698
0.0186748
0.0186698
0.0186496
0.0168858
0.0169078
0.0169123
0.0169078
0.0168858
0.0149768
0.0149953
0.0149994
0.0149953
0.0149768
0.0129386
0.0129527
0.0129564
0.0129527
0.0129386
-0.00118566
-0.00118542
-0.00118282
-0.00118543
-0.00118567
-0.00143769
-0.00142253
-0.00142069
-0.00142255
-0.00143772
-0.00268405
-0.00268021
-0.00267819
-0.00268021
-0.00268405
-0.00396494
-0.00396489
-0.00396239
-0.00396489
-0.00396494
-0.00527241
-0.0052886
-0.00528566
-0.0052886
-0.00527241
-0.00624162
-0.00628772
-0.00628525
-0.00628772
-0.00624162
-0.00663817
-0.00674702
-0.0067479
-0.00674702
-0.00663817
-0.00527798
-0.00535677
-0.00535947
-0.00535677
-0.00527798
-0.00293289
-0.00301746
-0.00302014
-0.00301745
-0.00293289
0.000301346
0.000235143
0.00023097
0.00023515
0.000301358
0.00388558
0.00382252
0.00381624
0.00382254
0.00388561
0.00796839
0.00792409
0.00791446
0.00792412
0.00796844
0.0115863
0.0115943
0.0115862
0.0115943
0.0115864
0.0140126
0.0140341
0.0140289
0.0140341
0.0140126
0.015704
0.0157258
0.0157236
0.0157258
0.015704
0.0166831
0.0166993
0.0166989
0.0166993
0.0166831
0.0169716
0.0169861
0.0169868
0.0169861
0.0169716
0.0167699
0.0167883
0.0167899
0.0167883
0.0167699
0.0162194
0.0162369
0.0162396
0.0162368
0.0162193
0.0154913
0.0155085
0.0155122
0.0155085
0.0154913
0.014651
0.0146653
0.0146697
0.0146653
0.014651
0.0138117
0.0138226
0.0138275
0.0138226
0.0138117
0.0130071
0.0130156
0.0130207
0.0130156
0.0130071
0.000379256
0.000380227
0.000380725
0.000380226
0.000379254
0.00050478
0.00050679
0.000507378
0.000506785
0.000504774
0.000658684
0.000662517
0.000663113
0.000662486
0.000658668
0.000838625
0.000844485
0.000845076
0.00084448
0.000838621
0.00103741
0.00104496
0.00104557
0.00104496
0.00103741
0.00124783
0.00125704
0.0012577
0.00125704
0.00124783
0.00146206
0.00147289
0.00147364
0.00147289
0.00146206
0.00167039
0.00168241
0.00168328
0.00168241
0.00167039
0.00185653
0.00186951
0.00187051
0.00186951
0.00185653
0.00198168
0.00199446
0.00199563
0.00199446
0.00198167
0.00203605
0.00204862
0.00205001
0.00204862
0.00203604
0.00199343
0.00200454
0.00200615
0.00200454
0.00199344
0.00187627
0.00188715
0.00188916
0.0018873
0.00187634
0.00166762
0.00167608
0.00167827
0.0016761
0.00166763
0.00144981
0.0014589
0.00146126
0.0014589
0.00144981
0.00104255
0.00104752
0.00105012
0.00104752
0.00104255
0.000779639
0.000788923
0.00079121
0.000788927
0.000779637
0.000132421
0.000139275
0.000141618
0.000139276
0.000132418
-0.000543683
-0.000539276
-0.000536984
-0.000539295
-0.000543706
-0.00116834
-0.0011555
-0.00115357
-0.00115557
-0.00116837
-0.00224575
-0.0022481
-0.00224639
-0.0022481
-0.00224575
-0.00318839
-0.00319964
-0.00319873
-0.00319964
-0.00318839
-0.00394507
-0.00395806
-0.00395724
-0.00395806
-0.00394507
-0.00442608
-0.00444428
-0.00444322
-0.00444428
-0.00442607
-0.00441312
-0.00445402
-0.00445355
-0.00445402
-0.00441312
-0.00351702
-0.0035697
-0.00357008
-0.0035697
-0.00351702
-0.00175274
-0.00181085
-0.00181222
-0.00181085
-0.00175274
0.000722033
0.000674267
0.000671747
0.00067428
0.00072205
0.00336822
0.00331921
0.00331512
0.00331927
0.00336828
0.00638316
0.0063461
0.00633988
0.00634654
0.00638337
0.00901498
0.00900673
0.00900091
0.0090068
0.00901505
0.0109081
0.0109171
0.0109128
0.0109172
0.0109081
0.0122553
0.0122706
0.0122682
0.0122706
0.0122553
0.0131013
0.0131161
0.0131152
0.0131161
0.0131013
0.0134698
0.0134825
0.0134827
0.0134825
0.0134698
0.0134487
0.0134625
0.0134637
0.0134625
0.0134487
0.0131381
0.0131519
0.0131539
0.0131518
0.0131381
0.0126444
0.0126596
0.0126625
0.0126597
0.0126445
0.0120495
0.0120629
0.0120666
0.0120629
0.0120495
0.0114187
0.0114289
0.0114331
0.0114289
0.0114187
0.01082
0.0108257
0.0108301
0.0108257
0.01082
0.0102804
0.0102829
0.0102873
0.0102829
0.0102804
0.0123245
0.012328
0.0123332
0.012328
0.0123245
0.0142698
0.0142743
0.01428
0.0142743
0.0142698
0.0160761
0.0160817
0.0160876
0.0160817
0.0160761
0.0176717
0.0176793
0.0176854
0.0176793
0.0176717
0.0190198
0.0190307
0.0190368
0.0190307
0.0190198
0.0200789
0.0200929
0.0200989
0.0200929
0.0200789
0.0207997
0.0208168
0.0208227
0.0208168
0.0207997
0.0211571
0.0211759
0.0211817
0.0211759
0.0211571
0.0211431
0.0211623
0.0211681
0.0211623
0.0211431
0.0207582
0.0207767
0.0207824
0.0207767
0.0207582
0.0200102
0.0200258
0.0200314
0.0200258
0.0200102
0.0189267
0.0189418
0.0189473
0.0189418
0.0189267
0.0175601
0.0175754
0.0175805
0.0175753
0.0175601
0.0159498
0.0159642
0.0159691
0.0159642
0.0159498
0.0141667
0.0141805
0.014185
0.0141805
0.0141667
0.0122539
0.0122657
0.0122699
0.0122657
0.0122538
0.0102189
0.010228
0.0102317
0.010228
0.0102189
0.0107529
0.0107632
0.0107665
0.0107632
0.0107529
0.0113333
0.0113445
0.0113472
0.0113445
0.0113333
0.011932
0.0119442
0.0119463
0.011944
0.0119319
0.0125296
0.0125424
0.012544
0.0125424
0.0125296
0.0129671
0.0129789
0.0129799
0.0129789
0.0129671
0.0132144
0.01323
0.0132301
0.01323
0.0132144
0.0132157
0.0132321
0.013231
0.0132321
0.0132157
0.0128852
0.0128949
0.0128919
0.0128949
0.0128852
0.0119615
0.0119578
0.011954
0.0119578
0.0119615
0.0104124
0.0104016
0.0103982
0.0104016
0.0104124
0.00830981
0.00830521
0.00830216
0.00830521
0.00830982
0.00568174
0.00566934
0.00566672
0.00566934
0.00568175
0.00317762
0.00317745
0.00317357
0.00317742
0.0031776
0.000354121
0.000310584
0.000306764
0.000310575
0.00035411
-0.00206868
-0.00211307
-0.00211483
-0.00211307
-0.00206868
-0.00385378
-0.00388512
-0.00388565
-0.00388512
-0.00385378
-0.00480225
-0.00481841
-0.00481935
-0.00481841
-0.00480225
-0.00534095
-0.00536634
-0.00536627
-0.00536634
-0.00534094
-0.00512509
-0.00515163
-0.00515001
-0.00515163
-0.00512509
-0.00422492
-0.00424083
-0.00423699
-0.00424083
-0.00422492
-0.00300375
-0.00300868
-0.00300423
-0.00300868
-0.00300375
-0.00168632
-0.00168003
-0.00167659
-0.00168003
-0.00168632
-0.0005888
-0.000586686
-0.000584267
-0.000586685
-0.0005888
0.00029748
0.000305222
0.000307062
0.000305222
0.00029748
0.000759845
0.00076365
0.000765577
0.00076365
0.000759845
0.00106471
0.00106697
0.0010692
0.00106697
0.00106471
0.00137893
0.00138298
0.00138506
0.00138298
0.00137893
0.00164027
0.00164521
0.00164701
0.00164521
0.00164027
0.00184161
0.00184879
0.00185047
0.00184879
0.00184161
0.00200224
0.00201106
0.00201238
0.00201101
0.00200222
0.00208166
0.00209187
0.002093
0.00209187
0.00208166
0.00207482
0.00208602
0.00208699
0.00208602
0.00207482
0.00199782
0.00200976
0.00201061
0.00200976
0.00199782
0.00185666
0.00186847
0.00186921
0.00186847
0.00185665
0.00167207
0.00168321
0.00168387
0.00168321
0.00167206
0.00146207
0.00147207
0.00147267
0.00147207
0.00146207
0.00124501
0.00125359
0.00125415
0.00125359
0.00124501
0.00103077
0.00103766
0.00103819
0.00103766
0.00103077
0.000833068
0.000838309
0.000838812
0.000838308
0.000833067
0.000655603
0.00065918
0.000659672
0.000659179
0.000655603
0.000501218
0.000503333
0.000503796
0.000503332
0.000501218
0.000371268
0.000372182
0.000372567
0.000372181
0.000371267
0.000443191
0.000443486
0.000443781
0.000443486
0.000443191
0.000502179
0.000502868
0.000503198
0.000502867
0.000502179
0.000545481
0.000546248
0.000546568
0.000546247
0.00054548
0.000576798
0.000577783
0.000578102
0.000577782
0.000576797
0.000597435
0.000598509
0.000598834
0.000598509
0.000597434
0.000609509
0.000610637
0.00061097
0.000610637
0.000609508
0.000615405
0.000616581
0.000616921
0.000616581
0.000615405
0.000616159
0.000617361
0.000617703
0.000617361
0.000616159
0.000612095
0.000613301
0.000613643
0.000613301
0.000612095
0.000602938
0.000604162
0.000604499
0.000604162
0.000602938
0.000587631
0.000588823
0.000589157
0.000588822
0.000587632
0.000564734
0.000565862
0.0005662
0.000565862
0.000564735
0.000531301
0.000532234
0.000532577
0.000532234
0.000531301
0.000485923
0.00048676
0.000487106
0.00048676
0.000485923
0.000426295
0.000426912
0.00042727
0.000426912
0.000426295
0.000354095
0.000354393
0.000354748
0.000354392
0.000354095
0.000272534