x,y,z,p
0,0,0,3.95965e-05
0,0.1,0,7.18554e-05
0,0.2,0,0.000104114
0,0.3,0,0.000136373
0,0.4,0,0.000174173
0,0.5,0,0.000217514
0,0.6,0,0.000260854
0,0.7,0,0.000304195
0,0.8,0,0.000347074
0,0.9,0,0.000389954
0,1,0,0.000432833
0,1.1,0,0.000475365
0,1.2,0,0.00051755
0,1.3,0,0.000559735
0,1.4,0,0.00060192
0,1.5,0,0.000643175
0,1.6,0,0.000684429
0,1.7,0,0.000725684
0,1.8,0,0.000766353
0,1.9,0,0.000806437
0,2,0,0.000846521
0,2.1,0,0.000886604
0,2.2,0,0.00092527
0,2.3,0,0.000963936
0,2.4,0,0.0010026
0,2.5,0,0.00104043
0,2.6,0,0.00107743
0,2.7,0,0.00111443
0,2.8,0,0.00115143
0,2.9,0,0.0011865
0,3,0,0.00122157
0,3.1,0,0.00125665
0,3.2,0,0.00129063
0,3.3,0,0.00132353
0,3.4,0,0.00135642
0,3.5,0,0.00138931
0,3.6,0,0.00141977
0,3.7,0,0.00145024
0,3.8,0,0.00148069
0,3.9,0,0.00150981
0,4,0,0.00153759
0,4.1,0,0.00156536
0,4.2,0,0.00159313
0,4.3,0,0.00161798
0,4.4,0,0.00164282
0,4.5,0,0.00166766
0,4.6,0,0.00169092
0,4.7,0,0.00171258
0,4.8,0,0.00173426
0,4.9,0,0.00175592
0,5,0,0.00177419
0,5.1,0,0.00179246
0,5.2,0,0.00181072
0,5.3,0,0.00182717
0,5.4,0,0.0018418
0,5.5,0,0.00185643
0,5.6,0,0.00187106
0,5.7,0,0.00188183
0,5.8,0,0.00189259
0,5.9,0,0.00190336
0,6,0,0.00191209
0,6.1,0,0.00191878
0,6.2,0,0.00192547
0,6.3,0,0.00193216
0,6.4,0,0.00193449
0,6.5,0,0.00193683
0,6.6,0,0.00193916
0,6.7,0,0.00193966
0,6.8,0,0.00193833
0,6.9,0,0.00193699
0,7,0,0.00193566
0,7.1,0,0.00192831
0,7.2,0,0.00192203
0,7.3,0,0.00191449
0,7.4,0,0.00190571
0,7.5,0,0.00189569
0,7.6,0,0.00188441
0,7.7,0,0.00187188
0,7.8,0,0.00185812
0,7.9,0,0.0018431
0,8,0,0.00182115
0,8.1,0,0.00180511
0,8.2,0,0.00178907
0,8.3,0,0.00176964
0,8.4,0,0.00174839
0,8.5,0,0.00172628
0,8.6,0,0.00170216
0,8.7,0,0.00167805
0,8.8,0,0.00165132
0,8.9,0,0.00162445
0,9,0,0.00159602
0,9.1,0,0.00156653
0,9.2,0,0.00153643
0,9.3,0,0.00150445
0,9.4,0,0.00147248
0,9.5,0,0.00143839
0,9.6,0,0.00140406
0,9.7,0,0.00136851
0,9.8,0,0.00133197
0,9.9,0,0.00129501
0,10,0,0.00125639
0,10.1,0,0.00121777
0,10.2,0,0.00117751
0,10.3,0,0.00113697
0,10.4,0,0.00109554
0,10.5,0,0.00105323
0,10.6,0,0.00101068
0,10.7,0,0.00096675
0,10.8,0,0.000922824
0,10.9,0,0.000877739
0,11,0,0.000832364
0,11.1,0,0.000786413
0,11.2,0,0.000739757
0,11.3,0,0.000692991
0,11.4,0,0.000645227
0,11.5,0,0.000597463
0,11.6,0,0.000549
0,11.7,0,0.000500305
0,11.8,0,0.000451308
0,11.9,0,0.00040186
0,12,0,0.000352384
0,12.1,0,0.000302366
0,12.2,0,0.000252348
0,12.3,0,0.000202063
0,12.4,0,0.000151664
0,12.5,0,0.00010586
0,12.6,0,6.85915e-05
0,12.7,0,3.13231e-05
0.1,0,0,3.23971e-05
0.1,0.1,0,6.46938e-05
0.1,0.2,0,9.69527e-05
0.1,0.3,0,0.000130783
0.1,0.4,0,0.000174296
0.1,0.5,0,0.000217623
0.1,0.6,0,0.000260964
0.1,0.7,0,0.000304539
0.1,0.8,0,0.000347258
0.1,0.9,0,0.000390138
0.1,1,0,0.000433089
0.1,1.1,0,0.000475679
0.1,1.2,0,0.000517808
0.1,1.3,0,0.000559993
0.1,1.4,0,0.000602618
0.1,1.5,0,0.000643509
0.1,1.6,0,0.000684763
0.1,1.7,0,0.000726137
0.1,1.8,0,0.000766867
0.1,1.9,0,0.000806848
0.1,2,0,0.000846932
0.1,2.1,0,0.000887689
0.1,2.2,0,0.000925761
0.1,2.3,0,0.000964427
0.1,2.4,0,0.00100326
0.1,2.5,0,0.00104116
0.1,2.6,0,0.001078
0.1,2.7,0,0.001115
0.1,2.8,0,0.00115293
0.1,2.9,0,0.00118715
0.1,3,0,0.00122223
0.1,3.1,0,0.00125753
0.1,3.2,0,0.00129158
0.1,3.3,0,0.00132426
0.1,3.4,0,0.00135716
0.1,3.5,0,0.00139124
0.1,3.6,0,0.00142059
0.1,3.7,0,0.00145105
0.1,3.8,0,0.00148179
0.1,3.9,0,0.00151097
0.1,4,0,0.00153848
0.1,4.1,0,0.00156626
0.1,4.2,0,0.00159542
0.1,4.3,0,0.00161895
0.1,4.4,0,0.00164379
0.1,4.5,0,0.00166894
0.1,4.6,0,0.00169225
0.1,4.7,0,0.00171363
0.1,4.8,0,0.0017353
0.1,4.9,0,0.0017584
0.1,5,0,0.00177531
0.1,5.1,0,0.00179358
0.1,5.2,0,0.00181213
0.1,5.3,0,0.00182864
0.1,5.4,0,0.00184299
0.1,5.5,0,0.00185762
0.1,5.6,0,0.00187348
0.1,5.7,0,0.00188309
0.1,5.8,0,0.00189386
0.1,5.9,0,0.00190485
0.1,6,0,0.00191363
0.1,6.1,0,0.0019201
0.1,6.2,0,0.0019268
0.1,6.3,0,0.00193438
0.1,6.4,0,0.00193594
0.1,6.5,0,0.00193827
0.1,6.6,0,0.00194077
0.1,6.7,0,0.00194083
0.1,6.8,0,0.00193922
0.1,6.9,0,0.00193788
0.1,7,0,0.00193783
0.1,7.1,0,0.00193041
0.1,7.2,0,0.00192414
0.1,7.3,0,0.00191661
0.1,7.4,0,0.00190784
0.1,7.5,0,0.00189781
0.1,7.6,0,0.00188652
0.1,7.7,0,0.00187398
0.1,7.8,0,0.0018602
0.1,7.9,0,0.00184516
0.1,8,0,0.00182321
0.1,8.1,0,0.00180671
0.1,8.2,0,0.00179076
0.1,8.3,0,0.00177026
0.1,8.4,0,0.00174901
0.1,8.5,0,0.0017273
0.1,8.6,0,0.00170276
0.1,8.7,0,0.00167989
0.1,8.8,0,0.00165189
0.1,8.9,0,0.00162512
0.1,9,0,0.00159656
0.1,9.1,0,0.00156708
0.1,9.2,0,0.00153758
0.1,9.3,0,0.00150497
0.1,9.4,0,0.00147418
0.1,9.5,0,0.00143888
0.1,9.6,0,0.00140455
0.1,9.7,0,0.00136897
0.1,9.8,0,0.00133242
0.1,9.9,0,0.00129629
0.1,10,0,0.00125682
0.1,10.1,0,0.00121921
0.1,10.2,0,0.00117791
0.1,10.3,0,0.00113736
0.1,10.4,0,0.00109591
0.1,10.5,0,0.00105359
0.1,10.6,0,0.00101197
0.1,10.7,0,0.000967077
0.1,10.8,0,0.000923877
0.1,10.9,0,0.000878031
0.1,11,0,0.000832656
0.1,11.1,0,0.000786668
0.1,11.2,0,0.000740013
0.1,11.3,0,0.000694089
0.1,11.4,0,0.000645445
0.1,11.5,0,0.000598077
0.1,11.6,0,0.00054918
0.1,11.7,0,0.000500485
0.1,11.8,0,0.000451502
0.1,11.9,0,0.000402002
0.1,12,0,0.000353046
0.1,12.1,0,0.000302468
0.1,12.2,0,0.000252569
0.1,12.3,0,0.000202124
0.1,12.4,0,0.000151725
0.1,12.5,0,0.00010126
0.1,12.6,0,6.29199e-05
0.1,12.7,0,2.5628e-05
0.2,0,0,2.51977e-05
0.2,0.1,0,5.7516e-05
0.2,0.2,0,8.97911e-05
0.2,0.3,0,0.000130956
0.2,0.4,0,0.000174469
0.2,0.5,0,0.000217733
0.2,0.6,0,0.000261174
0.2,0.7,0,0.000304882
0.2,0.8,0,0.000347511
0.2,0.9,0,0.000390322
0.2,1,0,0.000433607
0.2,1.1,0,0.000476197
0.2,1.2,0,0.000518066
0.2,1.3,0,0.00056044
0.2,1.4,0,0.000603317
0.2,1.5,0,0.000643999
0.2,1.6,0,0.000685097
0.2,1.7,0,0.000727023
0.2,1.8,0,0.000767753
0.2,1.9,0,0.00080726
0.2,2,0,0.000847632
0.2,2.1,0,0.000888773
0.2,2.2,0,0.000926507
0.2,2.3,0,0.000964918
0.2,2.4,0,0.00100455
0.2,2.5,0,0.00104245
0.2,2.6,0,0.00107857
0.2,2.7,0,0.00111597
0.2,2.8,0,0.00115443
0.2,2.9,0,0.00118817
0.2,3,0,0.00122288
0.2,3.1,0,0.00125925
0.2,3.2,0,0.0012933
0.2,3.3,0,0.001325
0.2,3.4,0,0.0013584
0.2,3.5,0,0.00139317
0.2,3.6,0,0.00142188
0.2,3.7,0,0.00145186
0.2,3.8,0,0.00148391
0.2,3.9,0,0.00151309
0.2,4,0,0.00153938
0.2,4.1,0,0.00156775
0.2,4.2,0,0.00159771
0.2,4.3,0,0.00162048
0.2,4.4,0,0.00164476
0.2,4.5,0,0.00167134
0.2,4.6,0,0.00169466
0.2,4.7,0,0.00171468
0.2,4.8,0,0.00173696
0.2,4.9,0,0.00176087
0.2,5,0,0.00177701
0.2,5.1,0,0.0017947
0.2,5.2,0,0.0018146
0.2,5.3,0,0.00183111
0.2,5.4,0,0.00184419
0.2,5.5,0,0.00185934
0.2,5.6,0,0.00187589
0.2,5.7,0,0.00188485
0.2,5.8,0,0.00189512
0.2,5.9,0,0.00190717
0.2,6,0,0.00191595
0.2,6.1,0,0.00192143
0.2,6.2,0,0.0019285
0.2,6.3,0,0.00193659
0.2,6.4,0,0.00193772
0.2,6.5,0,0.00193972
0.2,6.6,0,0.00194297
0.2,6.7,0,0.00194303
0.2,6.8,0,0.00194011
0.2,6.9,0,0.00193932
0.2,7,0,0.00194
0.2,7.1,0,0.00193251
0.2,7.2,0,0.00192625
0.2,7.3,0,0.00191874
0.2,7.4,0,0.00190997
0.2,7.5,0,0.00189994
0.2,7.6,0,0.00188864
0.2,7.7,0,0.00187608
0.2,7.8,0,0.00186228
0.2,7.9,0,0.00184722
0.2,8,0,0.00182528
0.2,8.1,0,0.00180832
0.2,8.2,0,0.00179282
0.2,8.3,0,0.00177157
0.2,8.4,0,0.00175014
0.2,8.5,0,0.00172933
0.2,8.6,0,0.00170336
0.2,8.7,0,0.00168191
0.2,8.8,0,0.00165246
0.2,8.9,0,0.00162714
0.2,9,0,0.00159799
0.2,9.1,0,0.00156799
0.2,9.2,0,0.00153962
0.2,9.3,0,0.00150549
0.2,9.4,0,0.00147623
0.2,9.5,0,0.00143936
0.2,9.6,0,0.00140652
0.2,9.7,0,0.00137056
0.2,9.8,0,0.00133308
0.2,9.9,0,0.00129832
0.2,10,0,0.00125724
0.2,10.1,0,0.00122119
0.2,10.2,0,0.00117832
0.2,10.3,0,0.00113902
0.2,10.4,0,0.00109756
0.2,10.5,0,0.00105397
0.2,10.6,0,0.00101379
0.2,10.7,0,0.000967404
0.2,10.8,0,0.000925569
0.2,10.9,0,0.000878501
0.2,11,0,0.000833838
0.2,11.1,0,0.000788141
0.2,11.2,0,0.000740268
0.2,11.3,0,0.000695456
0.2,11.4,0,0.000645663
0.2,11.5,0,0.00059925
0.2,11.6,0,0.000549603
0.2,11.7,0,0.000501131
0.2,11.8,0,0.000452464
0.2,11.9,0,0.000402143
0.2,12,0,0.000353783
0.2,12.1,0,0.000302571
0.2,12.2,0,0.00025307
0.2,12.3,0,0.000202344
0.2,12.4,0,0.000151878
0.2,12.5,0,0.000101515
0.2,12.6,0,5.72483e-05
0.2,12.7,0,1.99329e-05
0.3,0,0,1.79984e-05
0.3,0.1,0,5.03167e-05
0.3,0.2,0,8.73444e-05
0.3,0.3,0,0.000131129
0.3,0.4,0,0.000174641
0.3,0.5,0,0.000217883
0.3,0.6,0,0.000261517
0.3,0.7,0,0.000305226
0.3,0.8,0,0.000347854
0.3,0.9,0,0.00039072
0.3,1,0,0.000434125
0.3,1.1,0,0.000476715
0.3,1.2,0,0.000518491
0.3,1.3,0,0.000561138
0.3,1.4,0,0.000604015
0.3,1.5,0,0.000644697
0.3,1.6,0,0.000685787
0.3,1.7,0,0.00072791
0.3,1.8,0,0.00076864
0.3,1.9,0,0.000807977
0.3,2,0,0.000848716
0.3,2.1,0,0.000889857
0.3,2.2,0,0.000927591
0.3,2.3,0,0.000965923
0.3,2.4,0,0.00100584
0.3,2.5,0,0.00104374
0.3,2.6,0,0.00107961
0.3,2.7,0,0.00111747
0.3,2.8,0,0.00115593
0.3,2.9,0,0.00118967
0.3,3,0,0.00122422
0.3,3.1,0,0.00126097
0.3,3.2,0,0.00129501
0.3,3.3,0,0.00132636
0.3,3.4,0,0.00136033
0.3,3.5,0,0.0013951
0.3,3.6,0,0.00142381
0.3,3.7,0,0.00145352
0.3,3.8,0,0.00148603
0.3,3.9,0,0.00151521
0.3,4,0,0.00154106
0.3,4.1,0,0.00157003
0.3,4.2,0,0.00159999
0.3,4.3,0,0.00162277
0.3,4.4,0,0.00164666
0.3,4.5,0,0.00167375
0.3,4.6,0,0.00169706
0.3,4.7,0,0.0017166
0.3,4.8,0,0.00173943
0.3,4.9,0,0.00176334
0.3,5,0,0.00177948
0.3,5.1,0,0.00179669
0.3,5.2,0,0.00181708
0.3,5.3,0,0.00183358
0.3,5.4,0,0.0018462
0.3,5.5,0,0.00186176
0.3,5.6,0,0.00187831
0.3,5.7,0,0.00188727
0.3,5.8,0,0.00189707
0.3,5.9,0,0.00190949
0.3,6,0,0.00191827
0.3,6.1,0,0.0019234
0.3,6.2,0,0.00193072
0.3,6.3,0,0.00193881
0.3,6.4,0,0.00193993
0.3,6.5,0,0.00194165
0.3,6.6,0,0.00194517
0.3,6.7,0,0.00194523
0.3,6.8,0,0.00194184
0.3,6.9,0,0.00194149
0.3,7,0,0.00194217
0.3,7.1,0,0.00193461
0.3,7.2,0,0.00192836
0.3,7.3,0,0.00192086
0.3,7.4,0,0.0019121
0.3,7.5,0,0.00190206
0.3,7.6,0,0.00189076
0.3,7.7,0,0.00187819
0.3,7.8,0,0.00186436
0.3,7.9,0,0.00184928
0.3,8,0,0.00182735
0.3,8.1,0,0.00181023
0.3,8.2,0,0.00179489
0.3,8.3,0,0.00177364
0.3,8.4,0,0.00175216
0.3,8.5,0,0.00173135
0.3,8.6,0,0.00170473
0.3,8.7,0,0.00168392
0.3,8.8,0,0.00165416
0.3,8.9,0,0.00162917
0.3,9,0,0.00160001
0.3,9.1,0,0.00157003
0.3,9.2,0,0.00154166
0.3,9.3,0,0.00150678
0.3,9.4,0,0.00147828
0.3,9.5,0,0.00144125
0.3,9.6,0,0.00140857
0.3,9.7,0,0.00137262
0.3,9.8,0,0.00133511
0.3,9.9,0,0.00130035
0.3,10,0,0.00125846
0.3,10.1,0,0.00122318
0.3,10.2,0,0.0011803
0.3,10.3,0,0.00114094
0.3,10.4,0,0.00109947
0.3,10.5,0,0.00105579
0.3,10.6,0,0.00101561
0.3,10.7,0,0.000968452
0.3,10.8,0,0.000927261
0.3,10.9,0,0.000880193
0.3,11,0,0.000835379
0.3,11.1,0,0.000789682
0.3,11.2,0,0.000741517
0.3,11.3,0,0.000696823
0.3,11.4,0,0.000646441
0.3,11.5,0,0.000600423
0.3,11.6,0,0.000550776
0.3,11.7,0,0.000502092
0.3,11.8,0,0.000453425
0.3,11.9,0,0.000402747
0.3,12,0,0.00035452
0.3,12.1,0,0.000303017
0.3,12.2,0,0.000253571
0.3,12.3,0,0.000202845
0.3,12.4,0,0.000152133
0.3,12.5,0,0.00010177
0.3,12.6,0,5.15612e-05
0.3,12.7,0,1.42378e-05
0.4,0,0,1.0799e-05
0.4,0.1,0,4.36412e-05
0.4,0.2,0,8.74848e-05
0.4,0.3,0,0.000131301
0.4,0.4,0,0.000174814
0.4,0.5,0,0.000218256
0.4,0.6,0,0.000261865
0.4,0.7,0,0.000305569
0.4,0.8,0,0.000348222
0.4,0.9,0,0.000391375
0.4,1,0,0.000434642
0.4,1.1,0,0.000477233
0.4,1.2,0,0.000519387
0.4,1.3,0,0.000561855
0.4,1.4,0,0.000604713
0.4,1.5,0,0.000645435
0.4,1.6,0,0.000686986
0.4,1.7,0,0.000728797
0.4,1.8,0,0.000769527
0.4,1.9,0,0.00080944
0.4,2,0,0.000849834
0.4,2.1,0,0.000890941
0.4,2.2,0,0.000928732
0.4,2.3,0,0.000967722
0.4,2.4,0,0.00100714
0.4,2.5,0,0.00104503
0.4,2.6,0,0.0010817
0.4,2.7,0,0.00111903
0.4,2.8,0,0.00115744
0.4,2.9,0,0.00119125
0.4,3,0,0.00122666
0.4,3.1,0,0.00126268
0.4,3.2,0,0.00129673
0.4,3.3,0,0.0013291
0.4,3.4,0,0.00136233
0.4,3.5,0,0.00139703
0.4,3.6,0,0.00142583
0.4,3.7,0,0.00145659
0.4,3.8,0,0.00148815
0.4,3.9,0,0.00151733
0.4,4,0,0.00154437
0.4,4.1,0,0.0015724
0.4,4.2,0,0.00160228
0.4,4.3,0,0.00162516
0.4,4.4,0,0.00165019
0.4,4.5,0,0.00167616
0.4,4.6,0,0.00169947
0.4,4.7,0,0.00172022
0.4,4.8,0,0.001742
0.4,4.9,0,0.00176581
0.4,5,0,0.00178205
0.4,5.1,0,0.00180032
0.4,5.2,0,0.00181955
0.4,5.3,0,0.00183606
0.4,5.4,0,0.00184972
0.4,5.5,0,0.00186427
0.4,5.6,0,0.00188073
0.4,5.7,0,0.00188976
0.4,5.8,0,0.00190037
0.4,5.9,0,0.00191181
0.4,6,0,0.00192059
0.4,6.1,0,0.00192648
0.4,6.2,0,0.00193301
0.4,6.3,0,0.00194103
0.4,6.4,0,0.0019422
0.4,6.5,0,0.00194451
0.4,6.6,0,0.00194737
0.4,6.7,0,0.00194743
0.4,6.8,0,0.00194514
0.4,6.9,0,0.00194376
0.4,7,0,0.00194434
0.4,7.1,0,0.00193672
0.4,7.2,0,0.00193047
0.4,7.3,0,0.00192299
0.4,7.4,0,0.00191423
0.4,7.5,0,0.00190419
0.4,7.6,0,0.00189287
0.4,7.7,0,0.00188029
0.4,7.8,0,0.00186644
0.4,7.9,0,0.00185134
0.4,8,0,0.00182941
0.4,8.1,0,0.00181268
0.4,8.2,0,0.00179695
0.4,8.3,0,0.00177573
0.4,8.4,0,0.00175439
0.4,8.5,0,0.00173338
0.4,8.6,0,0.00170811
0.4,8.7,0,0.00168594
0.4,8.8,0,0.00165722
0.4,8.9,0,0.00163119
0.4,9,0,0.00160204
0.4,9.1,0,0.00157245
0.4,9.2,0,0.0015437
0.4,9.3,0,0.00151036
0.4,9.4,0,0.00148034
0.4,9.5,0,0.00144425
0.4,9.6,0,0.00141062
0.4,9.7,0,0.00137467
0.4,9.8,0,0.00133774
0.4,9.9,0,0.00130238
0.4,10,0,0.00126205
0.4,10.1,0,0.00122517
0.4,10.2,0,0.00118304
0.4,10.3,0,0.00114285
0.4,10.4,0,0.00110139
0.4,10.5,0,0.00105837
0.4,10.6,0,0.00101742
0.4,10.7,0,0.000971635
0.4,10.8,0,0.000928952
0.4,10.9,0,0.00088235
0.4,11,0,0.00083692
0.4,11.1,0,0.000791223
0.4,11.2,0,0.000743663
0.4,11.3,0,0.00069819
0.4,11.4,0,0.000648763
0.4,11.5,0,0.000601596
0.4,11.6,0,0.000552149
0.4,11.7,0,0.000503054
0.4,11.8,0,0.000454387
0.4,11.9,0,0.000404077
0.4,12,0,0.000355256
0.4,12.1,0,0.000304135
0.4,12.2,0,0.000254072
0.4,12.3,0,0.000203373
0.4,12.4,0,0.000152398
0.4,12.5,0,0.000102025
0.4,12.6,0,5.08469e-05
0.4,12.7,0,8.54267e-06
0.5,0,0,3.59968e-06
0.5,0.1,0,4.37761e-05
0.5,0.2,0,8.76197e-05
0.5,0.3,0,0.000131463
0.5,0.4,0,0.000175054
0.5,0.5,0,0.000218663
0.5,0.6,0,0.000262272
0.5,0.7,0,0.000305913
0.5,0.8,0,0.000348899
0.5,0.9,0,0.000392053
0.5,1,0,0.000435206
0.5,1.1,0,0.000477876
0.5,1.2,0,0.000520345
0.5,1.3,0,0.000562813
0.5,1.4,0,0.000605412
0.5,1.5,0,0.000646686
0.5,1.6,0,0.000688237
0.5,1.7,0,0.000729788
0.5,1.8,0,0.000770606
0.5,1.9,0,0.000811
0.5,2,0,0.000851394
0.5,2.1,0,0.000892026
0.5,2.2,0,0.000930616
0.5,2.3,0,0.000969605
0.5,2.4,0,0.0010086
0.5,2.5,0,0.00104659
0.5,2.6,0,0.00108392
0.5,2.7,0,0.00112125
0.5,2.8,0,0.00115894
0.5,2.9,0,0.00119382
0.5,3,0,0.00122923
0.5,3.1,0,0.00126464
0.5,3.2,0,0.00129879
0.5,3.3,0,0.00133201
0.5,3.4,0,0.00136524
0.5,3.5,0,0.00139895
0.5,3.6,0,0.00142906
0.5,3.7,0,0.00145983
0.5,3.8,0,0.00149059
0.5,3.9,0,0.00151985
0.5,4,0,0.00154788
0.5,4.1,0,0.00157591
0.5,4.2,0,0.00160456
0.5,4.3,0,0.00162887
0.5,4.4,0,0.00165391
0.5,4.5,0,0.00167894
0.5,4.6,0,0.00170228
0.5,4.7,0,0.00172405
0.5,4.8,0,0.00174583
0.5,4.9,0,0.00176828
0.5,5,0,0.00178587
0.5,5.1,0,0.00180414
0.5,5.2,0,0.00182241
0.5,5.3,0,0.00183888
0.5,5.4,0,0.00185342
0.5,5.5,0,0.00186796
0.5,5.6,0,0.00188314
0.5,5.7,0,0.00189323
0.5,5.8,0,0.00190385
0.5,5.9,0,0.00191446
0.5,6,0,0.00192316
0.5,6.1,0,0.00192969
0.5,6.2,0,0.00193622
0.5,6.3,0,0.00194324
0.5,6.4,0,0.00194517
0.5,6.5,0,0.00194748
0.5,6.6,0,0.00194979
0.5,6.7,0,0.00195
0.5,6.8,0,0.00194862
0.5,6.9,0,0.00194724
0.5,7,0,0.00194651
0.5,7.1,0,0.00193882
0.5,7.2,0,0.00193258
0.5,7.3,0,0.00192511
0.5,7.4,0,0.00191636
0.5,7.5,0,0.00190631
0.5,7.6,0,0.00189499
0.5,7.7,0,0.00188239
0.5,7.8,0,0.00186852
0.5,7.9,0,0.0018534
0.5,8,0,0.00183148
0.5,8.1,0,0.00181521
0.5,8.2,0,0.00179917
0.5,8.3,0,0.0017792
0.5,8.4,0,0.00175786
0.5,8.5,0,0.00173569
0.5,8.6,0,0.00171155
0.5,8.7,0,0.00168795
0.5,8.8,0,0.00166069
0.5,8.9,0,0.00163385
0.5,9,0,0.00160542
0.5,9.1,0,0.00157597
0.5,9.2,0,0.00154588
0.5,9.3,0,0.00151393
0.5,9.4,0,0.00148239
0.5,9.5,0,0.00144787
0.5,9.6,0,0.00141354
0.5,9.7,0,0.00137796
0.5,9.8,0,0.00134136
0.5,9.9,0,0.00130441
0.5,10,0,0.00126564
0.5,10.1,0,0.00122715
0.5,10.2,0,0.00118655
0.5,10.3,0,0.00114584
0.5,10.4,0,0.00110428
0.5,10.5,0,0.00106174
0.5,10.6,0,0.00101924
0.5,10.7,0,0.000974817
0.5,10.8,0,0.000930644
0.5,10.9,0,0.000885291
0.5,11,0,0.000839563
0.5,11.1,0,0.000793379
0.5,11.2,0,0.000746316
0.5,11.3,0,0.000699557
0.5,11.4,0,0.000651085
0.5,11.5,0,0.000602866
0.5,11.6,0,0.000554103
0.5,11.7,0,0.000504913
0.5,11.8,0,0.000455608
0.5,11.9,0,0.000405634
0.5,12,0,0.000355993
0.5,12.1,0,0.000305271
0.5,12.2,0,0.000254701
0.5,12.3,0,0.000204067
0.5,12.4,0,0.000153092
0.5,12.5,0,0.000102272
0.5,12.6,0,5.10783e-05
0.5,12.7,0,2.84756e-06
0.6,0,0,0
0.6,0.1,0,4.39515e-05
0.6,0.2,0,8.77951e-05
0.6,0.3,0,0.000131639
0.6,0.4,0,0.000175569
0.6,0.5,0,0.000219178
0.6,0.6,0,0.000262788
0.6,0.7,0,0.000306597
0.6,0.8,0,0.000349758
0.6,0.9,0,0.000392912
0.6,1,0,0.000436065
0.6,1.1,0,0.000479089
0.6,1.2,0,0.000521557
0.6,1.3,0,0.000564026
0.6,1.4,0,0.000606793
0.6,1.5,0,0.000648267
0.6,1.6,0,0.000689818
0.6,1.7,0,0.000731369
0.6,1.8,0,0.000772573
0.6,1.9,0,0.000812967
0.6,2,0,0.00085336
0.6,2.1,0,0.000894151
0.6,2.2,0,0.000932986
0.6,2.3,0,0.000971976
0.6,2.4,0,0.00101097
0.6,2.5,0,0.00104938
0.6,2.6,0,0.00108671
0.6,2.7,0,0.00112404
0.6,2.8,0,0.00116186
0.6,2.9,0,0.00119704
0.6,3,0,0.00123245
0.6,3.1,0,0.00126787
0.6,3.2,0,0.00130244
0.6,3.3,0,0.00133567
0.6,3.4,0,0.00136889
0.6,3.5,0,0.00140268
0.6,3.6,0,0.00143312
0.6,3.7,0,0.00146389
0.6,3.8,0,0.00149465
0.6,3.9,0,0.00152427
0.6,4,0,0.00155231
0.6,4.1,0,0.00158034
0.6,4.2,0,0.00160905
0.6,4.3,0,0.00163359
0.6,4.4,0,0.00165862
0.6,4.5,0,0.00168365
0.6,4.6,0,0.00170719
0.6,4.7,0,0.00172896
0.6,4.8,0,0.00175073
0.6,4.9,0,0.00177339
0.6,5,0,0.00179084
0.6,5.1,0,0.00180911
0.6,5.2,0,0.00182738
0.6,5.3,0,0.00184379
0.6,5.4,0,0.00185834
0.6,5.5,0,0.00187288
0.6,5.6,0,0.00188865
0.6,5.7,0,0.00189798
0.6,5.8,0,0.0019086
0.6,5.9,0,0.00191921
0.6,6,0,0.00192769
0.6,6.1,0,0.00193422
0.6,6.2,0,0.00194075
0.6,6.3,0,0.00194895
0.6,6.4,0,0.00194951
0.6,6.5,0,0.00195182
0.6,6.6,0,0.00195413
0.6,6.7,0,0.00195446
0.6,6.8,0,0.00195308
0.6,6.9,0,0.0019517
0.6,7,0,0.00195245
0.6,7.1,0,0.0019448
0.6,7.2,0,0.0019386
0.6,7.3,0,0.00193115
0.6,7.4,0,0.0019224
0.6,7.5,0,0.00191235
0.6,7.6,0,0.00190102
0.6,7.7,0,0.00188839
0.6,7.8,0,0.00187449
0.6,7.9,0,0.00185933
0.6,8,0,0.00183734
0.6,8.1,0,0.00181939
0.6,8.2,0,0.00180335
0.6,8.3,0,0.00178328
0.6,8.4,0,0.00176194
0.6,8.5,0,0.00173971
0.6,8.6,0,0.00171557
0.6,8.7,0,0.00169308
0.6,8.8,0,0.00166472
0.6,8.9,0,0.00163788
0.6,9,0,0.00160949
0.6,9.1,0,0.00158004
0.6,9.2,0,0.00154998
0.6,9.3,0,0.00151803
0.6,9.4,0,0.00148695
0.6,9.5,0,0.00145199
0.6,9.6,0,0.00141765
0.6,9.7,0,0.00138205
0.6,9.8,0,0.00134546
0.6,9.9,0,0.00130847
0.6,10,0,0.00126967
0.6,10.1,0,0.00123125
0.6,10.2,0,0.00119046
0.6,10.3,0,0.00114975
0.6,10.4,0,0.00110803
0.6,10.5,0,0.00106548
0.6,10.6,0,0.0010228
0.6,10.7,0,0.00097834
0.6,10.8,0,0.000934154
0.6,10.9,0,0.000888536
0.6,11,0,0.000842808
0.6,11.1,0,0.000796298
0.6,11.2,0,0.000749235
0.6,11.3,0,0.000702117
0.6,11.4,0,0.000653634
0.6,11.5,0,0.000605415
0.6,11.6,0,0.000556245
0.6,11.7,0,0.000507055
0.6,11.8,0,0.000457312
0.6,11.9,0,0.000407338
0.6,12,0,0.000357306
0.6,12.1,0,0.000306513
0.6,12.2,0,0.000255943
0.6,12.3,0,0.000204828
0.6,12.4,0,0.000153853
0.6,12.5,0,0.000102531
0.6,12.6,0,5.13371e-05
0.6,12.7,0,0
0.7,0,0,0
0.7,0.1,0,4.41673e-05
0.7,0.2,0,8.80109e-05
0.7,0.3,0,0.000132068
0.7,0.4,0,0.000176115
0.7,0.5,0,0.000219803
0.7,0.6,0,0.000263412
0.7,0.7,0,0.00030762
0.7,0.8,0,0.000350799
0.7,0.9,0,0.000393952
0.7,1,0,0.000437461
0.7,1.1,0,0.000480607
0.7,1.2,0,0.000523024
0.7,1.3,0,0.000565493
0.7,1.4,0,0.000608858
0.7,1.5,0,0.000650177
0.7,1.6,0,0.000691728
0.7,1.7,0,0.000733776
0.7,1.8,0,0.000775113
0.7,1.9,0,0.00081534
0.7,2,0,0.000855734
0.7,2.1,0,0.000897316
0.7,2.2,0,0.000935843
0.7,2.3,0,0.000974833
0.7,2.4,0,0.00101445
0.7,2.5,0,0.00105301
0.7,2.6,0,0.00109007
0.7,2.7,0,0.0011274
0.7,2.8,0,0.00116619
0.7,2.9,0,0.00120092
0.7,3,0,0.00123633
0.7,3.1,0,0.0012725
0.7,3.2,0,0.00130722
0.7,3.3,0,0.00134006
0.7,3.4,0,0.00137328
0.7,3.5,0,0.00140821
0.7,3.6,0,0.00143801
0.7,3.7,0,0.00146877
0.7,3.8,0,0.00150042
0.7,3.9,0,0.00153017
0.7,4,0,0.00155764
0.7,4.1,0,0.00158567
0.7,4.2,0,0.00161575
0.7,4.3,0,0.0016393
0.7,4.4,0,0.00166434
0.7,4.5,0,0.00169046
0.7,4.6,0,0.00171408
0.7,4.7,0,0.00173495
0.7,4.8,0,0.00175672
0.7,4.9,0,0.00178114
0.7,5,0,0.00179697
0.7,5.1,0,0.00181524
0.7,5.2,0,0.00183499
0.7,5.3,0,0.0018514
0.7,5.4,0,0.00186447
0.7,5.5,0,0.00187902
0.7,5.6,0,0.00189724
0.7,5.7,0,0.00190401
0.7,5.8,0,0.00191463
0.7,5.9,0,0.00192731
0.7,6,0,0.00193574
0.7,6.1,0,0.00194007
0.7,6.2,0,0.0019466
0.7,6.3,0,0.00195814
0.7,6.4,0,0.00195521
0.7,6.5,0,0.00195752
0.7,6.6,0,0.0019625
0.7,6.7,0,0.00196276
0.7,6.8,0,0.00195853
0.7,6.9,0,0.00195715
0.7,7,0,0.00196216
0.7,7.1,0,0.00195468
0.7,7.2,0,0.00194852
0.7,7.3,0,0.00194109
0.7,7.4,0,0.00193235
0.7,7.5,0,0.0019223
0.7,7.6,0,0.00191095
0.7,7.7,0,0.00189829
0.7,7.8,0,0.00188435
0.7,7.9,0,0.00186912
0.7,8,0,0.00184699
0.7,8.1,0,0.00182523
0.7,8.2,0,0.00181164
0.7,8.3,0,0.00178797
0.7,8.4,0,0.00176662
0.7,8.5,0,0.00174797
0.7,8.6,0,0.00172018
0.7,8.7,0,0.001702
0.7,8.8,0,0.00166932
0.7,8.9,0,0.00164474
0.7,9,0,0.00161448
0.7,9.1,0,0.00158466
0.7,9.2,0,0.00155793
0.7,9.3,0,0.00152266
0.7,9.4,0,0.00149484
0.7,9.5,0,0.0014566
0.7,9.6,0,0.00142354
0.7,9.7,0,0.00138723
0.7,9.8,0,0.00135002
0.7,9.9,0,0.00131549
0.7,10,0,0.00127414
0.7,10.1,0,0.00123779
0.7,10.2,0,0.00119479
0.7,10.3,0,0.00115464
0.7,10.4,0,0.00111278
0.7,10.5,0,0.00106961
0.7,10.6,0,0.00102829
0.7,10.7,0,0.000982202
0.7,10.8,0,0.000939089
0.7,10.9,0,0.000892085
0.7,11,0,0.000846531
0.7,11.1,0,0.000800009
0.7,11.2,0,0.00075242
0.7,11.3,0,0.000705891
0.7,11.4,0,0.000656411
0.7,11.5,0,0.000608553
0.7,11.6,0,0.000558575
0.7,11.7,0,0.000509406
0.7,11.8,0,0.000459561
0.7,11.9,0,0.000409189
0.7,12,0,0.00035924
0.7,12.1,0,0.000307862
0.7,12.2,0,0.000257256
0.7,12.3,0,0.000205655
0.7,12.4,0,0.00015468
0.7,12.5,0,0.000103074
0.7,12.6,0,5.16233e-05
0.7,12.7,0,0
0.8,0,0,0
0.8,0.1,0,4.41827e-05
0.8,0.2,0,8.82695e-05
0.8,0.3,0,0.000132583
0.8,0.4,0,0.000176631
0.8,0.5,0,0.000220411
0.8,0.6,0,0.000264407
0.8,0.7,0,0.000308644
0.8,0.8,0,0.000351823
0.8,0.9,0,0.000395063
0.8,1,0,0.000438998
0.8,1.1,0,0.000482144
0.8,1.2,0,0.000524501
0.8,1.3,0,0.000567515
0.8,1.4,0,0.000610922
0.8,1.5,0,0.000652231
0.8,1.6,0,0.000693738
0.8,1.7,0,0.000736383
0.8,1.8,0,0.000777719
0.8,1.9,0,0.000817747
0.8,2,0,0.000858843
0.8,2.1,0,0.000900482
0.8,2.2,0,0.000938987
0.8,2.3,0,0.000977816
0.8,2.4,0,0.0010182
0.8,2.5,0,0.00105675
0.8,2.6,0,0.00109348
0.8,2.7,0,0.00113166
0.8,2.8,0,0.00117052
0.8,2.9,0,0.00120522
0.8,3,0,0.00124036
0.8,3.1,0,0.00127743
0.8,3.2,0,0.00131215
0.8,3.3,0,0.00134452
0.8,3.4,0,0.00137873
0.8,3.5,0,0.00141375
0.8,3.6,0,0.0014435
0.8,3.7,0,0.00147384
0.8,3.8,0,0.00150655
0.8,3.9,0,0.0015363
0.8,4,0,0.00156309
0.8,4.1,0,0.00159228
0.8,4.2,0,0.00162245
0.8,4.3,0,0.00164593
0.8,4.4,0,0.00167027
0.8,4.5,0,0.00169771
0.8,4.6,0,0.00172132
0.8,4.7,0,0.00174111
0.8,4.8,0,0.00176434
0.8,4.9,0,0.00178889
0.8,5,0,0.0018046
0.8,5.1,0,0.00182166
0.8,5.2,0,0.00184319
0.8,5.3,0,0.0018596
0.8,5.4,0,0.0018709
0.8,5.5,0,0.00188743
0.8,5.6,0,0.00190583
0.8,5.7,0,0.00191242
0.8,5.8,0,0.00192107
0.8,5.9,0,0.00193623
0.8,6,0,0.00194466
0.8,6.1,0,0.00194636
0.8,6.2,0,0.00195556
0.8,6.3,0,0.00196734
0.8,6.4,0,0.00196416
0.8,6.5,0,0.00196376
0.8,6.6,0,0.00197194
0.8,6.7,0,0.0019722
0.8,6.8,0,0.00196454
0.8,6.9,0,0.00196655
0.8,7,0,0.00197186
0.8,7.1,0,0.00196455
0.8,7.2,0,0.00195845
0.8,7.3,0,0.00195104
0.8,7.4,0,0.0019423
0.8,7.5,0,0.00193225
0.8,7.6,0,0.00192088
0.8,7.7,0,0.0019082
0.8,7.8,0,0.0018942
0.8,7.9,0,0.00187891
0.8,8,0,0.00185664
0.8,8.1,0,0.00183168
0.8,8.2,0,0.00182107
0.8,8.3,0,0.0017973
0.8,8.4,0,0.00177519
0.8,8.5,0,0.00175716
0.8,8.6,0,0.00172497
0.8,8.7,0,0.00171092
0.8,8.8,0,0.00167511
0.8,8.9,0,0.00165335
0.8,9,0,0.0016231
0.8,9.1,0,0.00159199
0.8,9.2,0,0.0015662
0.8,9.3,0,0.00152728
0.8,9.4,0,0.00150272
0.8,9.5,0,0.0014625
0.8,9.6,0,0.001431
0.8,9.7,0,0.0013947
0.8,9.8,0,0.00135612
0.8,9.9,0,0.0013225
0.8,10,0,0.00127861
0.8,10.1,0,0.00124432
0.8,10.2,0,0.00120024
0.8,10.3,0,0.00116066
0.8,10.4,0,0.0011188
0.8,10.5,0,0.00107443
0.8,10.6,0,0.00103378
0.8,10.7,0,0.000986065
0.8,10.8,0,0.000944024
0.8,10.9,0,0.000896505
0.8,11,0,0.000850893
0.8,11.1,0,0.000804371
0.8,11.2,0,0.000755837
0.8,11.3,0,0.000709665
0.8,11.4,0,0.000659187
0.8,11.5,0,0.000611724
0.8,11.6,0,0.000561531
0.8,11.7,0,0.000511963
0.8,11.8,0,0.000462118
0.8,11.9,0,0.000411064
0.8,12,0,0.000361173
0.8,12.1,0,0.000309237
0.8,12.2,0,0.000258559
0.8,12.3,0,0.000206893
0.8,12.4,0,0.000155346
0.8,12.5,0,0.000103736
0.8,12.6,0,5.18638e-05
0.8,12.7,0,0
0.9,0,0,0
0.9,0.1,0,4.41827e-05
0.9,0.2,0,8.87076e-05
0.9,0.3,0,0.000133099
0.9,0.4,0,0.000177146
0.9,0.5,0,0.000221069
0.9,0.6,0,0.00026543
0.9,0.7,0,0.000309667
0.9,0.8,0,0.000352847
0.9,0.9,0,0.000396595
0.9,1,0,0.000440536
0.9,1.1,0,0.000483682
0.9,1.2,0,0.000526253
0.9,1.3,0,0.000569579
0.9,1.4,0,0.000612987
0.9,1.5,0,0.000654295
0.9,1.6,0,0.000696399
0.9,1.7,0,0.00073899
0.9,1.8,0,0.000780326
0.9,1.9,0,0.000820636
0.9,2,0,0.000862009
0.9,2.1,0,0.000903648
0.9,2.2,0,0.000942153
0.9,2.3,0,0.000981668
0.9,2.4,0,0.00102194
0.9,2.5,0,0.00106049
0.9,2.6,0,0.00109757
0.9,2.7,0,0.00113599
0.9,2.8,0,0.00117485
0.9,2.9,0,0.00120955
0.9,3,0,0.00124545
0.9,3.1,0,0.00128236
0.9,3.2,0,0.00131708
0.9,3.3,0,0.00134986
0.9,3.4,0,0.00138426
0.9,3.5,0,0.00141928
0.9,3.6,0,0.00144903
0.9,3.7,0,0.00148019
0.9,3.8,0,0.00151267
0.9,3.9,0,0.00154242
0.9,4,0,0.0015697
0.9,4.1,0,0.00159898
0.9,4.2,0,0.00162916
0.9,4.3,0,0.00165264
0.9,4.4,0,0.00167787
0.9,4.5,0,0.00170495
0.9,4.6,0,0.00172857
0.9,4.7,0,0.00174899
0.9,4.8,0,0.00177209
0.9,4.9,0,0.00179663
0.9,5,0,0.00181235
0.9,5.1,0,0.00183044
0.9,5.2,0,0.00185139
0.9,5.3,0,0.0018678
0.9,5.4,0,0.00187998
0.9,5.5,0,0.00189602
0.9,5.6,0,0.00191442
0.9,5.7,0,0.00192101
0.9,5.8,0,0.0019309
0.9,5.9,0,0.00194515
0.9,6,0,0.00195358
0.9,6.1,0,0.00195648
0.9,6.2,0,0.00196475
0.9,6.3,0,0.00197653
0.9,6.4,0,0.00197335
0.9,6.5,0,0.00197444
0.9,6.6,0,0.00198138
0.9,6.7,0,0.00198165
0.9,6.8,0,0.00197551
0.9,6.9,0,0.00197625
0.9,7,0,0.00198157
0.9,7.1,0,0.00197443
0.9,7.2,0,0.00196837
0.9,7.3,0,0.00196098
0.9,7.4,0,0.00195226
0.9,7.5,0,0.0019422
0.9,7.6,0,0.00193081
0.9,7.7,0,0.0019181
0.9,7.8,0,0.00190406
0.9,7.9,0,0.0018887
0.9,8,0,0.0018663
0.9,8.1,0,0.00184256
0.9,8.2,0,0.0018305
0.9,8.3,0,0.00180673
0.9,8.4,0,0.00178437
0.9,8.5,0,0.00176635
0.9,8.6,0,0.00173599
0.9,8.7,0,0.00171983
0.9,8.8,0,0.00168493
0.9,8.9,0,0.00166196
0.9,9,0,0.00163171
0.9,9.1,0,0.00160026
0.9,9.2,0,0.00157446
0.9,9.3,0,0.00153701
0.9,9.4,0,0.0015106
0.9,9.5,0,0.00147068
0.9,9.6,0,0.00143847
0.9,9.7,0,0.00140216
0.9,9.8,0,0.00136314
0.9,9.9,0,0.00132951
0.9,10,0,0.00128651
0.9,10.1,0,0.00125085
0.9,10.2,0,0.00120677
0.9,10.3,0,0.00116668
0.9,10.4,0,0.00112482
0.9,10.5,0,0.00107992
0.9,10.6,0,0.00103927
0.9,10.7,0,0.000991984
0.9,10.8,0,0.000948959
0.9,10.9,0,0.00090144
0.9,11,0,0.000855255
0.9,11.1,0,0.000808734
0.9,11.2,0,0.000759736
0.9,11.3,0,0.000713438
0.9,11.4,0,0.000663113
0.9,11.5,0,0.000614895
0.9,11.6,0,0.000564702
0.9,11.7,0,0.00051452
0.9,11.8,0,0.000464675
0.9,11.9,0,0.000413155
0.9,12,0,0.000363107
0.9,12.1,0,0.000311149
0.9,12.2,0,0.000259862
0.9,12.3,0,0.000208196
0.9,12.4,0,0.000156009
0.9,12.5,0,0.000104399
0.9,12.6,0,5.1992e-05
0.9,12.7,0,0
1,0,0,0
1,0.1,0,4.43538e-05
1,0.2,0,8.90069e-05
1,0.3,0,0.000133614
1,0.4,0,0.000177661
1,0.5,0,0.000221983
1,0.6,0,0.000266392
1,0.7,0,0.000310691
1,0.8,0,0.000354155
1,0.9,0,0.000398116
1,1,0,0.000442074
1,1.1,0,0.00048522
1,1.2,0,0.000528388
1,1.3,0,0.000571684
1,1.4,0,0.000615051
1,1.5,0,0.000656758
1,1.6,0,0.00069916
1,1.7,0,0.000741596
1,1.8,0,0.000782933
1,1.9,0,0.000824035
1,2,0,0.000865308
1,2.1,0,0.000906813
1,2.2,0,0.000945824
1,2.3,0,0.000985718
1,2.4,0,0.00102568
1,2.5,0,0.00106423
1,2.6,0,0.00110228
1,2.7,0,0.00114054
1,2.8,0,0.00117918
1,2.9,0,0.00121448
1,3,0,0.00125083
1,3.1,0,0.00128729
1,3.2,0,0.00132201
1,3.3,0,0.00135593
1,3.4,0,0.0013901
1,3.5,0,0.00142481
1,3.6,0,0.00145527
1,3.7,0,0.00148696
1,3.8,0,0.0015188
1,3.9,0,0.00154855
1,4,0,0.00157719
1,4.1,0,0.00160613
1,4.2,0,0.00163586
1,4.3,0,0.00166021
1,4.4,0,0.0016861
1,4.5,0,0.0017122
1,4.6,0,0.00173582
1,4.7,0,0.001758
1,4.8,0,0.00178056
1,4.9,0,0.00180438
1,5,0,0.00182129
1,5.1,0,0.00184026
1,5.2,0,0.00185959
1,5.3,0,0.001876
1,5.4,0,0.00189063
1,5.5,0,0.00190579
1,5.6,0,0.00192301
1,5.7,0,0.00193125
1,5.8,0,0.00194238
1,5.9,0,0.00195407
1,6,0,0.0019625
1,6.1,0,0.00196874
1,6.2,0,0.0019757
1,6.3,0,0.00198573
1,6.4,0,0.00198468
1,6.5,0,0.00198738
1,6.6,0,0.00199082
1,6.7,0,0.00199109
1,6.8,0,0.00198921
1,6.9,0,0.00198824
1,7,0,0.00199127
1,7.1,0,0.0019843
1,7.2,0,0.00197829
1,7.3,0,0.00197093
1,7.4,0,0.00196221
1,7.5,0,0.00195215
1,7.6,0,0.00194074
1,7.7,0,0.001928
1,7.8,0,0.00191392
1,7.9,0,0.00189849
1,8,0,0.00187595
1,8.1,0,0.0018558
1,8.2,0,0.00183993
1,8.3,0,0.00181851
1,8.4,0,0.00179659
1,8.5,0,0.00177553
1,8.6,0,0.00174948
1,8.7,0,0.00172875
1,8.8,0,0.00169786
1,8.9,0,0.00167058
1,9,0,0.00164179
1,9.1,0,0.00161154
1,9.2,0,0.00158273
1,9.3,0,0.00154853
1,9.4,0,0.00151848
1,9.5,0,0.00148142
1,9.6,0,0.00144611
1,9.7,0,0.00141033
1,9.8,0,0.00137268
1,9.9,0,0.00133653
1,10,0,0.00129558
1,10.1,0,0.00125738
1,10.2,0,0.00121498
1,10.3,0,0.00117308
1,10.4,0,0.00113108
1,10.5,0,0.00108729
1,10.6,0,0.00104476
1,10.7,0,0.000998546
1,10.8,0,0.000953894
1,10.9,0,0.000907084
1,11,0,0.000860016
1,11.1,0,0.000813128
1,11.2,0,0.000764687
1,11.3,0,0.000717212
1,11.4,0,0.000667281
1,11.5,0,0.000618066
1,11.6,0,0.000568044
1,11.7,0,0.000517416
1,11.8,0,0.000467231
1,11.9,0,0.000415793
1,12,0,0.00036504
1,12.1,0,0.000313036
1,12.2,0,0.000261165
1,12.3,0,0.000209394
1,12.4,0,0.00015692
1,12.5,0,0.000105061
1,12.6,0,5.23683e-05
1,12.7,0,0
1.1,0,0,0
1.1,0.1,0,4.46531e-05
1.1,0.2,0,8.93062e-05
1.1,0.3,0,0.000133959
1.1,0.4,0,0.00017849
1.1,0.5,0,0.000222898
1.1,0.6,0,0.000267306
1.1,0.7,0,0.000311714
1.1,0.8,0,0.000355676
1.1,0.9,0,0.000399637
1.1,1,0,0.000443599
1.1,1.1,0,0.000487228
1.1,1.2,0,0.000530524
1.1,1.3,0,0.00057382
1.1,1.4,0,0.000617116
1.1,1.5,0,0.000659519
1.1,1.6,0,0.000701921
1.1,1.7,0,0.000744324
1.1,1.8,0,0.000786162
1.1,1.9,0,0.000827434
1.1,2,0,0.000868707
1.1,2.1,0,0.000909979
1.1,2.2,0,0.000949874
1.1,2.3,0,0.000989768
1.1,2.4,0,0.00102966
1.1,2.5,0,0.00106874
1.1,2.6,0,0.001107
1.1,2.7,0,0.00114526
1.1,2.8,0,0.00118351
1.1,2.9,0,0.00121987
1.1,3,0,0.00125622