/*--------------------------------*- C++ -*----------------------------------*\
| =========                 |                                                 |
| \\      /  F ield         | OpenFOAM: The Open Source CFD Toolbox           |
|  \\    /   O peration     | Version:  v1806                                 |
|   \\  /    A nd           | Web:      www.OpenFOAM.com                      |
|    \\/     M anipulation  |                                                 |
\*---------------------------------------------------------------------------*/
FoamFile
{
    version     2.0;
    format      ascii;
    class       volVectorField;
    location    "3";
    object      U;
}
// * * * * * * * * * * * * * * * * * * * * * * * * * * * * * * * * * * * * * //

dimensions      [0 1 -1 0 0 0 0];


internalField   nonuniform List<vector> 
24000
(
(2.71576 0.0328824 0.0849049)
(2.45469 0.0469869 0.094128)
(2.11031 0.0436441 0.0772985)
(1.77592 0.0375377 0.0616672)
(1.51532 0.0297109 0.0437302)
(1.33193 0.0221335 0.0262425)
(1.20764 0.0165436 0.0139086)
(1.12404 0.013063 0.00708876)
(1.06613 0.0106275 0.00372169)
(1.02675 0.00834939 0.00214133)
(0.99979 0.00597465 0.00161957)
(0.983102 0.00343232 0.00157209)
(0.973322 0.00100154 0.00172208)
(0.969896 -0.00114387 0.00187966)
(0.970682 -0.0029323 0.00201789)
(0.975154 -0.00418557 0.00213412)
(0.981424 -0.00482294 0.0020836)
(0.988909 -0.00462758 0.00186489)
(0.996202 -0.00364871 0.00143879)
(1.00202 -0.00216373 0.000995987)
(2.76991 0.0412419 0.0857303)
(2.56355 0.060406 0.0981077)
(2.30316 0.0569694 0.0794424)
(2.04251 0.0495618 0.065737)
(1.82567 0.0396986 0.0510943)
(1.6611 0.0290116 0.0351322)
(1.54184 0.0196171 0.0219783)
(1.45898 0.0121909 0.0133459)
(1.40247 0.00646574 0.00822411)
(1.36644 0.00107736 0.00524708)
(1.34535 -0.00410425 0.00354179)
(1.33555 -0.00954994 0.00279933)
(1.33394 -0.0145964 0.00246018)
(1.33869 -0.019031 0.0023885)
(1.34829 -0.0223726 0.00236288)
(1.36073 -0.0247965 0.00240414)
(1.37585 -0.0256883 0.00222352)
(1.39093 -0.0250998 0.00205083)
(1.40693 -0.022145 0.00168357)
(1.42038 -0.017878 0.00133468)
(2.76942 0.0157711 0.0857027)
(2.55271 0.0288834 0.0982243)
(2.29437 0.0303189 0.0787349)
(2.04347 0.0267622 0.0645355)
(1.83758 0.0208679 0.0503103)
(1.68192 0.012995 0.0349046)
(1.56971 0.00463515 0.0220353)
(1.49211 -0.00412964 0.0133586)
(1.44024 -0.0118757 0.00804903)
(1.40786 -0.0197834 0.00475534)
(1.39067 -0.0270739 0.00270215)
(1.38447 -0.0344495 0.00155997)
(1.38722 -0.0410422 0.000982822)
(1.3957 -0.0469172 0.000790811)
(1.40978 -0.0508944 0.000641223)
(1.42618 -0.0536815 0.00063793)
(1.44582 -0.054047 0.000499412)
(1.46534 -0.0523539 0.000401567)
(1.48561 -0.0473278 0.000190223)
(1.50377 -0.0399195 -4.84487e-05)
(2.76905 0.0111846 0.0858189)
(2.54323 0.0223612 0.0987937)
(2.2785 0.024266 0.0792063)
(2.02544 0.0199478 0.0645817)
(1.82017 0.0133238 0.0501964)
(1.66602 0.00448024 0.0348127)
(1.55619 -0.00466928 0.0218262)
(1.48055 -0.0148564 0.0132)
(1.43094 -0.0242538 0.00790124)
(1.4003 -0.0344666 0.0045895)
(1.38506 -0.0436852 0.00245116)
(1.38033 -0.0530193 0.00127468)
(1.38519 -0.0612794 0.000540318)
(1.39578 -0.068734 0.00026671)
(1.4124 -0.0737956 4.14779e-05)
(1.43154 -0.0771619 -4.18125e-05)
(1.45423 -0.0774642 -0.000226909)
(1.47716 -0.0746375 -0.000330666)
(1.50077 -0.0679385 -0.000494002)
(1.52237 -0.0575996 -0.000685625)
(2.76879 0.00599374 0.0859281)
(2.53729 0.0107711 0.0990737)
(2.26802 0.0107803 0.0794721)
(2.01263 0.00574768 0.0645694)
(1.80672 -0.000690495 0.0499948)
(1.65271 -0.0100416 0.0344818)
(1.54371 -0.0195572 0.0213929)
(1.46892 -0.0306965 0.0126663)
(1.42051 -0.0409928 0.00732357)
(1.39059 -0.0529959 0.00408484)
(1.37646 -0.0635827 0.00200042)
(1.37237 -0.0747369 0.00091656)
(1.37867 -0.0845231 0.000139942)
(1.39071 -0.0934062 -0.00010222)
(1.40941 -0.0995286 -0.000352454)
(1.43094 -0.103467 -0.000425346)
(1.45658 -0.103797 -0.000627405)
(1.48284 -0.0999091 -0.000718179)
(1.51008 -0.0914775 -0.00089765)
(1.53508 -0.0780297 -0.00106474)
(2.7686 0.00336803 0.0860479)
(2.53373 0.00361323 0.0992406)
(2.26169 0.00242374 0.0797066)
(2.00404 -0.00363608 0.0647377)
(1.79626 -0.00993722 0.0502197)
(1.64075 -0.0204784 0.0346424)
(1.53133 -0.0304152 0.021556)
(1.4559 -0.0433697 0.0127963)
(1.40788 -0.0547507 0.00740148)
(1.37784 -0.0693058 0.0041478)
(1.3647 -0.0813665 0.00203792)
(1.36085 -0.0951271 0.00103423)
(1.36885 -0.106757 0.000166982)
(1.38214 -0.117735 1.8262e-05)
(1.40344 -0.125411 -0.000321647)
(1.42752 -0.130523 -0.00032902)
(1.45684 -0.131379 -0.000618776)
(1.487 -0.126742 -0.000712366)
(1.51879 -0.116737 -0.000937273)
(1.54799 -0.0999623 -0.00112236)
(2.76832 0.0019058 0.0862422)
(2.53061 -0.00285118 0.0992934)
(2.25677 -0.0055301 0.0799057)
(1.99713 -0.0141398 0.0648824)
(1.78762 -0.0204237 0.0503984)
(1.63041 -0.0330962 0.0345905)
(1.52073 -0.0427724 0.0215075)
(1.44406 -0.0581006 0.0126805)
(1.39657 -0.0697529 0.00731115)
(1.36558 -0.0875209 0.00399618)
(1.3538 -0.100268 0.00191161)
(1.3494 -0.117607 0.000985695)
(1.35981 -0.130669 1.81966e-05)
(1.37372 -0.144732 4.93327e-05)
(1.39853 -0.154012 -0.000478005)
(1.42507 -0.161136 -0.000239809)
(1.45899 -0.162869 -0.000734348)
(1.49375 -0.157874 -0.000732676)
(1.53118 -0.146515 -0.00100789)
(1.56562 -0.126074 -0.00121908)
(2.76776 0.00136278 0.0865343)
(2.52771 -0.00858592 0.0991528)
(2.25274 -0.0115678 0.0800719)
(1.99177 -0.0234866 0.064881)
(1.7802 -0.0285945 0.0506688)
(1.621 -0.0448037 0.0344199)
(1.51101 -0.0529525 0.021583)
(1.43213 -0.0723684 0.0125369)
(1.38553 -0.0829652 0.00737825)
(1.35225 -0.105889 0.00379947)
(1.34281 -0.117749 0.00190596)
(1.33623 -0.141116 0.000929801)
(1.35067 -0.154132 -5.75032e-05)
(1.36337 -0.17381 0.00017862)
(1.39373 -0.183833 -0.000687698)
(1.42156 -0.195102 0.000128214)
(1.46189 -0.19776 -0.000949602)
(1.50184 -0.193411 -0.000568933)
(1.54626 -0.181085 -0.000975313)
(1.58739 -0.156662 -0.00124379)
(2.76672 0.00146954 0.0869349)
(2.52501 -0.0139379 0.0987491)
(2.24891 -0.0158398 0.0803308)
(1.98756 -0.0325198 0.0647528)
(1.77311 -0.0347766 0.0510768)
(1.61231 -0.0567418 0.0339611)
(1.50181 -0.0610311 0.0217962)
(1.42006 -0.0873325 0.0121)
(1.37497 -0.0940587 0.00758892)
(1.3378 -0.125552 0.00319637)
(1.33245 -0.133066 0.00202006)
(1.32093 -0.167064 0.000421118)
(1.34259 -0.176017 -9.09639e-05)
(1.35015 -0.206902 -2.76598e-05)
(1.39064 -0.213908 -0.00117059)
(1.41583 -0.234686 0.000649143)
(1.46681 -0.236273 -0.00178243)
(1.51121 -0.235451 -0.000156064)
(1.56468 -0.222149 -0.00113408)
(1.61428 -0.193727 -0.0013087)
(2.7651 0.00190572 0.0873911)
(2.52279 -0.0188073 0.0980456)
(2.24491 -0.0182465 0.0807701)
(1.98433 -0.0411206 0.0644507)
(1.76608 -0.0383873 0.0515881)
(1.60429 -0.0686877 0.0331715)
(1.49303 -0.0660622 0.0221865)
(1.40765 -0.102893 0.0112577)
(1.36501 -0.101641 0.00801933)
(1.32157 -0.146482 0.00199736)
(1.32303 -0.144248 0.00243263)
(1.30181 -0.195896 -0.000920866)
(1.33608 -0.193278 0.000201838)
(1.33078 -0.245571 -0.0011718)
(1.39003 -0.240414 -0.00168832)
(1.40289 -0.282644 0.00106186)
(1.47399 -0.275827 -0.00357724)
(1.51751 -0.286672 0.00108693)
(1.58408 -0.27014 -0.00181136)
(1.64371 -0.239251 -0.00126201)
(2.76325 0.00242848 0.0878098)
(2.52105 -0.0230723 0.0971223)
(2.24108 -0.018878 0.0813081)
(1.98151 -0.0488553 0.0640402)
(1.75963 -0.0392249 0.0521257)
(1.59611 -0.0801004 0.0322358)
(1.48496 -0.0675561 0.0227005)
(1.39361 -0.118538 0.0101358)
(1.35597 -0.104812 0.00859582)
(1.30149 -0.168238 0.000247036)
(1.3149 -0.149719 0.00314405)
(1.27551 -0.227675 -0.00328754)
(1.33137 -0.202815 0.000997252)
(1.2999 -0.291493 -0.00396631)
(1.39204 -0.258545 -0.00168899)
(1.37448 -0.343079 0.000320541)
(1.48369 -0.311963 -0.0060944)
(1.51081 -0.353168 0.00369681)
(1.60137 -0.32443 -0.00347263)
(1.6698 -0.298424 -2.71692e-05)
(2.76185 0.00307032 0.0881026)
(2.51955 -0.0269584 0.0962289)
(2.2383 -0.0176353 0.081876)
(1.97812 -0.0553882 0.0637637)
(1.7543 -0.0372535 0.0525893)
(1.58655 -0.0903992 0.0314628)
(1.47785 -0.0652723 0.0231745)
(1.37636 -0.133599 0.00914153)
(1.34801 -0.102942 0.00911289)
(1.27504 -0.190206 -0.00149499)
(1.3083 -0.148133 0.00393849)
(1.23802 -0.262069 -0.00609576)
(1.32869 -0.20176 0.00203918)
(1.25205 -0.345289 -0.00812508)
(1.39648 -0.263716 -0.000975917)
(1.3228 -0.419186 -0.0027645)
(1.49791 -0.338871 -0.00828224)
(1.4775 -0.444903 0.00761596)
(1.62026 -0.383469 -0.00665525)
(1.68412 -0.382789 0.00614604)
(2.76081 0.00380006 0.0882258)
(2.51916 -0.0305737 0.0957413)
(2.23612 -0.014564 0.0823401)
(1.97537 -0.0609505 0.0637976)
(1.7483 -0.0328877 0.0530691)
(1.57767 -0.0996105 0.0311771)
(1.46863 -0.0593564 0.0236413)
(1.35919 -0.148232 0.00874775)
(1.33747 -0.0954971 0.00963623)
(1.24643 -0.213398 -0.00231205)
(1.29956 -0.138101 0.00484871)
(1.195 -0.300991 -0.00770386)
(1.32498 -0.188068 0.00324346)
(1.19485 -0.40823 -0.0113924)
(1.40266 -0.252972 6.9701e-05)
(1.2557 -0.512384 -0.00854997)
(1.52531 -0.34809 -0.00914654)
(1.41435 -0.573427 0.0110319)
(1.66498 -0.446125 -0.0121982)
(1.68136 -0.514072 0.0220442)
(2.75863 0.00387071 0.088162)
(2.523 -0.0333749 0.0957788)
(2.23159 -0.0108485 0.082639)
(1.97822 -0.0650898 0.064208)
(1.73589 -0.0280446 0.0537735)
(1.57776 -0.10736 0.0315146)
(1.44821 -0.0518093 0.0245666)
(1.35469 -0.162304 0.00926376)
(1.31078 -0.0841797 0.0110181)
(1.23473 -0.239324 -0.00154631)
(1.27033 -0.120967 0.00708871)
(1.17509 -0.348177 -0.0063422)
(1.29965 -0.163813 0.00644539)
(1.16776 -0.48523 -0.0104825)
(1.39769 -0.225999 0.00280809)
(1.21613 -0.62759 -0.0154648)
(1.57543 -0.32226 -0.00825835)
(1.34129 -0.751718 0.00875948)
(1.78167 -0.496243 -0.0254136)
(1.6445 -0.713722 0.0584871)
(2.75464 0.00146136 0.0876512)
(2.53306 -0.0335219 0.0964714)
(2.22322 -0.00944532 0.0825579)
(1.9893 -0.0651706 0.0649683)
(1.71368 -0.0272116 0.0544263)
(1.5921 -0.110233 0.0324058)
(1.40854 -0.0493046 0.0258857)
(1.37316 -0.170925 0.010135)
(1.25069 -0.0785883 0.0138949)
(1.25988 -0.261541 0.000143738)
(1.18704 -0.111552 0.0118512)
(1.21406 -0.395342 -0.00271894)
(1.19931 -0.147071 0.0152383)
(1.22402 -0.571588 -0.00703581)
(1.32378 -0.189092 0.0177386)
(1.26247 -0.781737 -0.021605)
(1.61488 -0.242298 0.00300706)
(1.31238 -1.01142 -0.00610896)
(1.96755 -0.44023 -0.0417686)
(1.52881 -1.00103 0.126172)
(2.75269 -0.00434744 0.0865499)
(2.54445 -0.0282753 0.0979462)
(2.21757 -0.0129491 0.0817915)
(1.99941 -0.0575585 0.0659404)
(1.69208 -0.0345332 0.0545724)
(1.60597 -0.101911 0.0335222)
(1.36343 -0.0600061 0.0264204)
(1.39408 -0.162524 0.010641)
(1.17 -0.0944978 0.0153095)
(1.29787 -0.256428 0.000266072)
(1.05476 -0.140052 0.0134006)
(1.28506 -0.398196 -0.00216324)
(1.00222 -0.192546 0.0176542)
(1.33532 -0.606252 -0.00515744)
(1.08769 -0.207975 0.0488442)
(1.37951 -0.961109 -0.0333019)
(1.4652 -0.0827276 0.0936889)
(1.39606 -1.41149 -0.0243322)
(2.09137 -0.291103 -0.0626256)
(1.41467 -1.55345 0.151522)
(2.76108 -0.0126295 0.0849525)
(2.54417 -0.0174297 0.0994375)
(2.22924 -0.0213405 0.0813156)
(1.98652 -0.0418512 0.0672312)
(1.69867 -0.0489833 0.0543634)
(1.58196 -0.0812105 0.0349565)
(1.35982 -0.0826679 0.0262585)
(1.35909 -0.1338 0.0111547)
(1.14491 -0.133955 0.0152473)
(1.25736 -0.211262 -0.00128357)
(0.994789 -0.215845 0.0107933)
(1.24507 -0.326613 -0.00514637)
(0.900953 -0.328869 0.00476342)
(1.29085 -0.524981 1.77716e-05)
(0.926016 -0.42758 0.022212)
(1.3705 -0.950385 -0.0138575)
(1.09358 -0.2885 0.176762)
(1.55066 -1.85201 -0.0738136)
(1.6818 0.285922 0.296726)
(1.50468 -2.70842 0.0511118)
(2.78719 -0.0154275 0.0832143)
(2.52113 -0.00738679 0.0997854)
(2.27214 -0.0265558 0.0813771)
(1.93176 -0.0284006 0.0700823)
(1.75646 -0.0602541 0.0519924)
(1.49596 -0.0597839 0.0377039)
(1.43788 -0.102444 0.0242974)
(1.23466 -0.10117 0.0147179)
(1.24111 -0.171159 0.0132537)
(1.08508 -0.160263 0.00305246)
(1.1198 -0.282457 0.00967386)
(0.998268 -0.252494 0.00459398)
(1.08059 -0.446116 0.0029938)
(0.934438 -0.433984 0.0242106)
(1.1358 -0.67772 -0.00181927)
(0.962556 -0.78345 0.0499988)
(1.17445 -1.11144 0.0233803)
(1.37548 -1.60422 0.0269794)
(1.24454 -0.603059 0.411248)
(1.69124 -4.09316 -0.174531)
(2.81583 -0.0148438 0.0840481)
(2.48792 0.000133055 0.100232)
(2.31589 -0.0246169 0.0824883)
(1.8684 -0.0211652 0.0709009)
(1.82141 -0.0596735 0.0515375)
(1.40328 -0.049118 0.038945)
(1.52995 -0.102803 0.0229714)
(1.10295 -0.0893892 0.0188557)
(1.36561 -0.174755 0.00908889)
(0.908365 -0.152925 0.0113724)
(1.28338 -0.288653 0.00488841)
(0.769431 -0.271524 0.0143984)
(1.26281 -0.461467 0.00915321)
(0.670601 -0.508781 0.0267023)
(1.24306 -0.766261 0.0304328)
(0.641395 -0.907963 0.0398371)
(1.20791 -1.48356 0.0121211)
(0.787514 -1.51619 0.101674)
(1.1668 -2.39756 -0.091919)
(1.61781 -4.72567 -0.475811)
(2.82962 -0.00456067 0.0833245)
(2.47677 -0.011363 0.103306)
(2.33428 -0.00989596 0.0811318)
(1.83948 -0.0365087 0.0750976)
(1.8477 -0.0343167 0.0484858)
(1.36836 -0.0728819 0.0433031)
(1.56031 -0.0685159 0.0184784)
(1.06517 -0.123738 0.0250786)
(1.39824 -0.129898 0.00129651)
(0.878696 -0.201634 0.0198838)
(1.29868 -0.234747 -0.00511889)
(0.75966 -0.343748 0.0236086)
(1.19671 -0.409091 -0.00261546)
(0.670088 -0.599709 0.0275459)
(1.03169 -0.742383 0.00376108)
(0.503852 -1.02708 0.00511036)
(0.872917 -1.4252 0.0166271)
(0.104144 -1.86 -0.0194502)
(0.549685 -2.82417 -0.193144)
(1.04732 -4.30105 -0.667646)
(2.94033 0.0341142 0.1227)
(2.9953 0.05347 0.147719)
(2.95996 0.0541823 0.129915)
(2.85915 0.0532375 0.116354)
(2.73985 0.0503118 0.0974973)
(2.62452 0.0456557 0.0741708)
(2.51661 0.0404868 0.0529735)
(2.42023 0.0356716 0.0374018)
(2.33284 0.0315253 0.0269046)
(2.25857 0.0274988 0.0197431)
(2.195 0.0234146 0.0149943)
(2.14526 0.0189772 0.011967)
(2.10613 0.0146917 0.0101456)
(2.07924 0.0107117 0.00887717)
(2.06109 0.00705823 0.00807838)
(2.0523 0.00364839 0.00767564)
(2.04956 0.00073702 0.00724713)
(2.05268 -0.00128849 0.00689441)
(2.05902 -0.00185494 0.00590608)
(2.06655 -0.00193465 0.00530371)
(2.99925 0.042825 0.123428)
(3.11768 0.0684153 0.151777)
(3.17905 0.0707157 0.133581)
(3.1841 0.0698226 0.121373)
(3.15936 0.0667096 0.107073)
(3.12625 0.0608335 0.0882764)
(3.08971 0.0541834 0.0693077)
(3.05534 0.0463805 0.0537891)
(3.0226 0.0393825 0.0421049)
(2.99523 0.0318947 0.033446)
(2.97387 0.0246791 0.0268209)
(2.96009 0.0164669 0.0221447)
(2.95333 0.00807973 0.0187524)
(2.95361 -0.0005923 0.0163109)
(2.96199 -0.0075923 0.0140802)
(2.97495 -0.0142977 0.0128171)
(2.99526 -0.0192996 0.0114577)
(3.0167 -0.0243546 0.0108101)
(3.04362 -0.0260925 0.00948386)
(3.06889 -0.0265377 0.00848697)
(2.99946 0.0164491 0.123226)
(3.10788 0.0319045 0.151656)
(3.1703 0.0376809 0.132735)
(3.1834 0.0378789 0.119264)
(3.17118 0.0366364 0.105086)
(3.15045 0.0322943 0.0869839)
(3.12838 0.0272337 0.0684864)
(3.10753 0.019096 0.05311)
(3.08968 0.0114673 0.0415662)
(3.07499 0.00207026 0.0329376)
(3.06728 -0.00713796 0.0261428)
(3.06477 -0.0176753 0.021106)
(3.07059 -0.0281593 0.0171465)
(3.08074 -0.0397795 0.0143427)
(3.09945 -0.048933 0.0119495)
(3.12112 -0.0577649 0.0104699)
(3.14997 -0.0641556 0.00884899)
(3.18092 -0.0697349 0.00776261)
(3.21515 -0.0716933 0.00662725)
(3.25015 -0.0706679 0.00559813)
(2.99954 0.0118948 0.123269)
(3.09948 0.0242028 0.152428)
(3.1558 0.03032 0.133553)
(3.16531 0.0289321 0.119413)
(3.15239 0.026424 0.104905)
(3.1308 0.0201781 0.0868245)
(3.10972 0.0136799 0.0680441)
(3.08967 0.00346684 0.052621)
(3.07382 -0.0058183 0.0409269)
(3.06067 -0.0180416 0.0322359)
(3.05571 -0.0299745 0.0253043)
(3.05511 -0.0433203 0.0202498)
(3.06378 -0.0565836 0.0160454)
(3.0769 -0.0710643 0.0130849)
(3.09894 -0.0831331 0.0106482)
(3.12427 -0.0941664 0.00898105)
(3.15657 -0.103214 0.00727525)
(3.19207 -0.109347 0.00602075)
(3.23044 -0.111809 0.00493385)
(3.27037 -0.10943 0.00389797)
(2.9995 0.00685084 0.123405)
(3.09428 0.0113209 0.15286)
(3.14627 0.0147825 0.134105)
(3.15277 0.0106978 0.119564)
(3.13843 0.00728498 0.10478)
(3.11527 -0.00079246 0.0864999)
(3.09371 -0.0085145 0.0674726)
(3.07294 -0.020701 0.051826)
(3.05733 -0.0311473 0.0399159)
(3.04386 -0.0460008 0.0312066)
(3.03971 -0.0601484 0.0241974)
(3.03894 -0.0759416 0.0193341)
(3.04855 -0.0921165 0.015004)
(3.06296 -0.109262 0.0120687)
(3.08683 -0.124102 0.00968188)
(3.11429 -0.137121 0.00801857)
(3.14947 -0.148722 0.00629116)
(3.18826 -0.155526 0.00505187)
(3.23103 -0.158499 0.00395175)
(3.27491 -0.154946 0.00297798)
(2.9995 0.00465729 0.123615)
(3.09108 0.00326572 0.153123)
(3.14057 0.00567628 0.134558)
(3.14453 -0.00132001 0.119962)
(3.12856 -0.00483723 0.105288)
(3.10245 -0.0153176 0.0870505)
(3.07991 -0.0239314 0.067817)
(3.05674 -0.0387334 0.0523099)
(3.04033 -0.0502056 0.0402398)
(3.02496 -0.0687039 0.0314981)
(3.0211 -0.0851463 0.0242732)
(3.01881 -0.104146 0.0196543)
(3.02939 -0.12406 0.0150065)
(3.04412 -0.14451 0.0122245)
(3.07 -0.162888 0.00977106)
(3.09921 -0.17864 0.00816384)
(3.13794 -0.193825 0.00631534)
(3.18021 -0.201927 0.00509296)
(3.22817 -0.206126 0.0039522)
(3.27661 -0.20152 0.00301463)
(2.99954 0.00416118 0.124052)
(3.08797 -0.0042818 0.153137)
(3.13622 -0.00210033 0.134972)
(3.13751 -0.0143673 0.120313)
(3.12077 -0.0172883 0.105788)
(3.09106 -0.0321164 0.0873104)
(3.06886 -0.0406735 0.0677796)
(3.04221 -0.0592926 0.0524608)
(3.02595 -0.0707027 0.0401703)
(3.00751 -0.094232 0.0314329)
(3.0049 -0.111649 0.0239359)
(2.9996 -0.134944 0.0197544)
(3.01243 -0.158435 0.0145066)
(3.02644 -0.182838 0.012213)
(3.05514 -0.205134 0.00945135)
(3.08597 -0.224221 0.00813881)
(3.12889 -0.2438 0.00610518)
(3.17511 -0.253547 0.00498978)
(3.22937 -0.259826 0.00387316)
(3.28327 -0.254264 0.00301063)
(2.9995 0.00552335 0.124821)
(3.08459 -0.0119658 0.152651)
(3.13287 -0.00680468 0.135356)
(3.13131 -0.0269896 0.120282)
(3.11494 -0.0258735 0.106427)
(3.07998 -0.0481517 0.0873001)
(3.06013 -0.0535344 0.0677649)
(3.02732 -0.0788899 0.0526005)
(3.01331 -0.0873974 0.0401793)
(2.98881 -0.119529 0.0314281)
(2.99 -0.134595 0.0235767)
(2.97816 -0.165846 0.0200975)
(2.99654 -0.191028 0.013722)
(3.00653 -0.22166 0.0126374)
(3.04049 -0.247648 0.00886233)
(3.07163 -0.271448 0.00852335)
(3.11967 -0.296503 0.0059341)
(3.1704 -0.308634 0.00508858)
(3.23206 -0.318481 0.00409228)
(3.29252 -0.312143 0.00330006)
(2.99922 0.00905907 0.126009)
(3.08082 -0.0210161 0.151487)
(3.13017 -0.00783357 0.136063)
(3.12508 -0.0410658 0.119766)
(3.11061 -0.030201 0.10744)
(3.06803 -0.0659885 0.0866161)
(3.05393 -0.0620529 0.0679413)
(3.01054 -0.100365 0.0522511)
(3.00343 -0.0995431 0.0402259)
(2.96717 -0.147798 0.0309546)
(2.97829 -0.152592 0.0229878)
(2.95245 -0.200531 0.0202323)
(2.98436 -0.220349 0.0121159)
(2.98204 -0.264136 0.0134357)
(3.02842 -0.290177 0.00708191)
(3.05498 -0.322601 0.00944127)
(3.1109 -0.353127 0.00505119)
(3.16607 -0.369376 0.00531437)
(3.23651 -0.384524 0.00437405)
(3.30431 -0.377469 0.00380904)
(2.99885 0.0149532 0.127545)
(3.07651 -0.032163 0.149548)
(3.12845 -0.00437576 0.137328)
(3.11775 -0.0577683 0.118535)
(3.10841 -0.0287911 0.108902)
(3.05381 -0.0869017 0.0849183)
(3.05142 -0.0639808 0.0685742)
(2.98962 -0.125451 0.0510026)
(2.99839 -0.104144 0.0405853)
(2.9391 -0.181469 0.0296209)
(2.97256 -0.161289 0.0224927)
(2.9171 -0.24283 0.0198949)
(2.97919 -0.240705 0.00972547)
(2.94539 -0.31425 0.0149085)
(3.02113 -0.32827 0.00363032)
(3.02853 -0.379967 0.0120253)
(3.10029 -0.411498 0.00280924)
(3.15626 -0.437684 0.00705011)
(3.23677 -0.458384 0.00518171)
(3.31204 -0.450992 0.00523699)
(2.99959 0.0232473 0.129142)
(3.07037 -0.0456837 0.147087)
(3.1294 0.00384529 0.139)
(3.10717 -0.0775075 0.116746)
(3.11028 -0.0208178 0.110728)
(3.03462 -0.111644 0.0824143)
(3.05475 -0.0576892 0.0698273)
(2.96031 -0.155683 0.048865)
(3.00151 -0.0984787 0.041481)
(2.89791 -0.223234 0.0274145)
(2.97683 -0.156152 0.0224224)
(2.86233 -0.298151 0.0190061)
(2.98524 -0.244961 0.00694787)
(2.88291 -0.379175 0.0171132)
(3.02142 -0.355905 -0.00123125)
(2.97695 -0.449278 0.0172676)
(3.08592 -0.468002 -0.00157486)
(3.1283 -0.519917 0.0131769)
(3.22311 -0.540313 0.00693983)
(3.30529 -0.535326 0.00938547)
(3.00288 0.0340416 0.130416)
(3.0614 -0.0617692 0.144741)
(3.1348 0.0167509 0.140629)
(3.09204 -0.0998801 0.115054)
(3.11752 -0.00637181 0.112669)
(3.00895 -0.139969 0.0798154)
(3.0653 -0.0424126 0.0714756)
(2.91962 -0.191671 0.0464789)
(3.01574 -0.0805667 0.0426996)
(2.8378 -0.274746 0.0252807)
(2.9952 -0.133382 0.0224547)
(2.77918 -0.371106 0.0186798)
(3.00686 -0.225903 0.00381453)
(2.78165 -0.466504 0.0205331)
(3.03509 -0.365981 -0.00684785)
(2.88068 -0.53859 0.0254445)
(3.07603 -0.517 -0.00855604)
(3.06536 -0.626643 0.0274086)
(3.19455 -0.628221 0.00802173)
(3.27871 -0.638786 0.021205)
(3.00564 0.0468424 0.131322)
(3.0551 -0.0800797 0.143106)
(3.14014 0.0337129 0.142009)
(3.08065 -0.1238 0.113784)
(3.12373 0.0134302 0.114998)
(2.98706 -0.17104 0.0777381)
(3.07552 -0.0182191 0.0736368)
(2.87961 -0.233642 0.0442573)
(3.03431 -0.0490043 0.0442097)
(2.77326 -0.33705 0.02398)
(3.02181 -0.0904999 0.0220685)
(2.68727 -0.464268 0.0199342)
(3.03999 -0.178855 2.34912e-05)
(2.66218 -0.582152 0.0249156)
(3.07317 -0.350486 -0.0136844)
(2.74101 -0.659013 0.0354162)
(3.10812 -0.550915 -0.0208747)
(2.96341 -0.766163 0.0516963)
(3.18327 -0.720359 0.00570114)
(3.25027 -0.781292 0.0482407)
(2.99781 0.0589061 0.132216)
(3.06671 -0.0980041 0.142055)
(3.13068 0.0518377 0.143564)
(3.09436 -0.145645 0.112338)
(3.10928 0.0356072 0.11875)
(2.99695 -0.201842 0.0754867)
(3.06014 0.0127368 0.077964)
(2.87871 -0.279413 0.0409053)
(3.02425 -0.00472659 0.0485927)
(2.75964 -0.407909 0.0208786)
(3.01651 -0.0278439 0.0250249)
(2.66487 -0.5749 0.017779)
(3.04728 -0.102324 -0.000322)
(2.61494 -0.731594 0.0225287)
(3.1313 -0.29577 -0.0219742)
(2.61634 -0.834708 0.041272)
(3.23856 -0.55306 -0.0477698)
(2.83161 -0.941917 0.0850769)
(3.2667 -0.817422 -0.0120242)
(3.24913 -0.977621 0.0974458)
(2.97332 0.0636932 0.132827)
(3.10514 -0.10802 0.141434)
(3.09554 0.063401 0.145689)
(3.14531 -0.156402 0.109974)
(3.05585 0.0521488 0.124508)
(3.05782 -0.22211 0.071992)
(2.98656 0.0403785 0.086929)
(2.95106 -0.31576 0.0338676)
(2.92842 0.0394447 0.0613975)
(2.85733 -0.46866 0.00943575)
(2.893 0.0393251 0.0431376)
(2.79802 -0.680402 -0.00228617)
(2.93127 -0.00233399 0.0218807)
(2.73327 -0.910724 -0.00823294)
(3.13354 -0.170964 -0.0146516)
(2.60448 -1.11127 0.0231095)
(3.41925 -0.484674 -0.0921703)
(2.70239 -1.18625 0.116411)
(3.49159 -0.909936 -0.0741236)
(3.22019 -1.18604 0.187364)
(2.9497 0.054176 0.131556)
(3.14674 -0.100046 0.142242)
(3.05571 0.0579415 0.146951)
(3.20098 -0.142965 0.107887)
(2.98429 0.0487438 0.129827)
(3.13153 -0.212337 0.0688321)
(2.86511 0.0413876 0.0978318)
(3.05649 -0.310894 0.0255185)
(2.72676 0.0459021 0.0809806)
(3.02438 -0.466741 -0.0104843)
(2.58055 0.0595961 0.080853)
(3.03204 -0.708751 -0.0450673)
(2.55184 0.0829257 0.0896962)
(2.94952 -1.06085 -0.0775277)
(2.86313 0.0459822 0.0661237)
(2.71726 -1.4819 -0.0475354)
(3.35332 -0.269194 -0.0657744)
(2.69643 -1.61384 0.0974354)
(3.70062 -1.00167 -0.201031)
(3.0378 -1.35997 0.329253)
(2.97457 0.0289579 0.126904)
(3.12949 -0.0707587 0.144582)
(3.08095 0.0286593 0.145884)
(3.17395 -0.0999059 0.110049)
(2.99499 0.0132525 0.129219)
(3.10233 -0.161063 0.0717947)
(2.83504 -0.00706881 0.100763)
(3.03774 -0.240539 0.0268462)
(2.61096 -0.033378 0.0897894)
(3.03747 -0.356752 -0.0167423)
(2.33029 -0.0616224 0.101313)
(3.07555 -0.577256 -0.06612)
(2.12793 -0.0190499 0.135895)
(2.99472 -1.02639 -0.117732)
(2.20472 0.162905 0.188626)
(2.82928 -1.69973 -0.130215)
(2.53329 0.228198 0.224653)
(2.92444 -2.26654 -0.0570696)
(3.40171 -0.754458 -0.0445406)
(2.87883 -1.81974 0.442991)
(3.09168 0.00764473 0.118844)
(2.99881 -0.0361591 0.150207)
(3.24131 -0.002174 0.13846)
(2.99112 -0.05297 0.123378)
(3.1923 -0.0304213 0.11563)
(2.87404 -0.092548 0.0881041)
(3.06747 -0.0760731 0.0839443)
(2.7583 -0.136639 0.0487416)
(2.88022 -0.153065 0.0674736)
(2.67899 -0.196392 0.0126456)
(2.67877 -0.260897 0.063797)
(2.58935 -0.339743 -0.0126214)
(2.56402 -0.345591 0.0680535)
(2.44483 -0.691556 -0.0211632)
(2.42979 -0.32468 0.124078)
(2.58525 -1.35323 -0.048604)
(2.00248 0.0677266 0.378773)
(3.14504 -2.64694 -0.182981)
(2.4528 0.375989 0.623249)
(3.1993 -3.00762 0.210698)
(3.23738 -0.00125129 0.113711)
(2.82795 -0.0149494 0.157607)
(3.4306 -0.0114005 0.131462)
(2.76712 -0.0294763 0.135355)
(3.43267 -0.0431929 0.103536)
(2.59387 -0.0585766 0.105644)
(3.38156 -0.0956402 0.0621491)
(2.39577 -0.0898986 0.0790163)
(3.30431 -0.186583 0.0295223)
(2.18932 -0.132829 0.0632276)
(3.26405 -0.314022 0.00521723)
(1.9465 -0.236547 0.0703271)
(3.2918 -0.492656 -0.0151617)
(1.76287 -0.430401 0.105529)
(3.22167 -0.846023 0.00206098)
(1.93162 -0.753871 0.124736)
(2.91507 -1.33186 0.13349)
(2.55809 -2.05052 0.0306269)
(2.19242 -0.288376 0.761216)
(3.52903 -4.51625 -0.552396)
(3.28673 0.0303993 0.105056)
(2.77798 -0.0513198 0.173053)
(3.50556 0.0311951 0.121203)
(2.70136 -0.0760801 0.154826)
(3.53202 0.0162815 0.0883385)
(2.5298 -0.117664 0.126301)
(3.51206 -0.0161859 0.0405726)
(2.33881 -0.167103 0.10336)
(3.47504 -0.0807143 -0.00194922)
(2.15483 -0.240144 0.0937453)
(3.45476 -0.170523 -0.0358909)
(2.0081 -0.390668 0.0997313)
(3.4106 -0.323241 -0.0530952)
(1.94749 -0.627135 0.108828)
(3.30392 -0.692194 -0.0398425)
(1.73794 -0.940848 0.134546)
(3.27114 -1.49558 -0.0470651)
(1.29601 -1.50624 0.245665)
(2.67441 -2.6434 -0.00824537)
(2.70878 -4.88423 -1.20504)
(2.94223 0.0338628 0.0637244)
(3.0202 0.052819 0.0930894)
(3.05951 0.0539912 0.0865715)
(3.05702 0.0534767 0.0839181)
(3.03099 0.0522292 0.0767327)
(2.9971 0.0495369 0.063748)
(2.95405 0.0459212 0.0499118)
(2.90787 0.0417831 0.0390655)
(2.85643 0.0380603 0.0314402)
(2.80721 0.0344624 0.0257211)
(2.75894 0.0309817 0.021295)
(2.71788 0.026898 0.0179877)
(2.68169 0.0226351 0.0156827)
(2.65473 0.0186513 0.0138191)
(2.63356 0.0151386 0.0122461)
(2.62096 0.0117632 0.0113092)
(2.61371 0.00852751 0.0103061)
(2.61272 0.00546267 0.00999768)
(2.6162 0.00408038 0.00865306)
(2.62085 0.00303858 0.00813061)
(3.00061 0.0425996 0.0636335)
(3.14372 0.0676009 0.0942636)
(3.27728 0.0707308 0.0901884)
(3.37908 0.0700801 0.087036)
(3.45181 0.0691897 0.0825199)
(3.51049 0.0655813 0.0733609)
(3.55508 0.0614774 0.0619279)
(3.59115 0.0554579 0.0519399)
(3.6177 0.0499331 0.0442877)
(3.63986 0.0435437 0.0384038)
(3.65887 0.0375863 0.0333811)
(3.67848 0.0306926 0.029426)
(3.69899 0.0239771 0.0263226)
(3.72106 0.0156579 0.024187)
(3.74752 0.00877757 0.0215449)
(3.77519 0.00169259 0.0199814)
(3.80887 -0.00345525 0.0178516)
(3.84156 -0.00872569 0.0171398)
(3.87968 -0.0122453 0.0156951)
(3.91467 -0.013922 0.0145035)
(3.00106 0.0166305 0.0633063)
(3.13386 0.0316736 0.0939649)
(3.2691 0.0384099 0.0898149)
(3.37697 0.0385766 0.0852865)
(3.46147 0.0388395 0.0805596)
(3.53088 0.0357925 0.071865)
(3.58991 0.0329449 0.0606445)
(3.63946 0.0267375 0.0505874)
(3.68283 0.0209982 0.042934)
(3.71948 0.0132525 0.0372722)
(3.75527 0.00571838 0.0324277)
(3.78916 -0.00330306 0.0285881)
(3.82571 -0.0116928 0.0250644)
(3.86191 -0.0224532 0.0225026)
(3.90224 -0.0317285 0.0198845)
(3.9437 -0.040592 0.0183135)
(3.98788 -0.0481974 0.0163182)
(4.03456 -0.054097 0.0148523)
(4.08205 -0.0592111 0.0134226)
(4.13118 -0.0596548 0.0118678)
(3.0013 0.0123997 0.0631539)
(3.12553 0.0239101 0.0943672)
(3.25569 0.0312492 0.0902744)
(3.36006 0.0299476 0.0852061)
(3.44433 0.028821 0.0801478)
(3.51278 0.0236247 0.0714715)
(3.5723 0.0192621 0.0600294)
(3.62201 0.0107683 0.0498924)
(3.66701 0.00343481 0.041996)
(3.70452 -0.00666583 0.036204)
(3.74247 -0.017002 0.0312117)
(3.77808 -0.0284978 0.027361)
(3.81679 -0.0398392 0.023671)
(3.85557 -0.0529189 0.02088)
(3.89865 -0.0657621 0.0182959)
(3.94391 -0.0763093 0.0164573)
(3.99073 -0.0872247 0.0144814)
(4.04173 -0.0946919 0.0128343)
(4.09297 -0.101226 0.0114265)
(4.14632 -0.101809 0.00996574)
(3.0013 0.00769908 0.0631677)
(3.12038 0.0106635 0.0946554)
(3.24689 0.015676 0.090685)
(3.34832 0.011563 0.0853475)
(3.43158 0.00919135 0.080026)
(3.4986 0.00193169 0.0712332)
(3.55731 -0.00391449 0.0595583)
(3.60598 -0.0147722 0.0492573)
(3.65082 -0.0233606 0.041115)
(3.68732 -0.0356865 0.0353002)
(3.72539 -0.0487977 0.0301356)
(3.76081 -0.0622528 0.0264359)
(3.79941 -0.0766112 0.0226123)
(3.83851 -0.0922386 0.019737)
(3.88311 -0.108651 0.0172292)
(3.92968 -0.120705 0.0153671)
(3.97876 -0.134705 0.0133972)
(4.03194 -0.143913 0.0117014)
(4.08702 -0.151705 0.0102506)
(4.14328 -0.152526 0.00887909)
(3.00136 0.00597731 0.0632771)
(3.11718 0.00210344 0.0948463)
(3.24183 0.00678081 0.0910529)
(3.34055 -0.000476394 0.0857335)
(3.42301 -0.00322677 0.0803983)
(3.48757 -0.0128483 0.0718113)
(3.54531 -0.0198813 0.059789)
(3.59217 -0.0335609 0.0497781)
(3.63628 -0.043031 0.0414838)
(3.67041 -0.0582821 0.035712)
(3.70841 -0.0746326 0.0302426)
(3.74258 -0.0902015 0.026834)
(3.78072 -0.108355 0.0226991)
(3.81933 -0.127325 0.019846)
(3.86565 -0.148084 0.0173228)
(3.91293 -0.162029 0.0155039)
(3.96448 -0.180238 0.0134262)
(4.01998 -0.191847 0.0116817)
(4.07938 -0.201736 0.0102334)
(4.13916 -0.202804 0.00898285)
(3.00163 0.00629172 0.0636013)
(3.11385 -0.00631808 0.0948216)
(3.23823 -0.000418814 0.0914227)
(3.33359 -0.0136536 0.0861357)
(3.41635 -0.0159155 0.0807834)
(3.47754 -0.0297653 0.0722391)
(3.53541 -0.0372149 0.0596316)
(3.57977 -0.054991 0.0501327)
(3.62385 -0.0640312 0.0414938)
(3.65437 -0.0835092 0.0359117)
(3.69329 -0.102581 0.0299203)
(3.72524 -0.120289 0.0271644)
(3.76322 -0.142428 0.0223261)
(3.80105 -0.165473 0.0197607)
(3.84962 -0.191059 0.0170733)
(3.8976 -0.206885 0.0154446)
(3.95202 -0.230455 0.0132648)
(4.01033 -0.244646 0.0114762)
(4.07508 -0.257383 0.0101409)
(4.139 -0.25843 0.00907847)
(3.00234 0.00913596 0.0642323)
(3.1096 -0.0155823 0.0943606)
(3.23614 -0.00386048 0.0917095)
(3.32656 -0.0269262 0.0862513)
(3.41188 -0.0246093 0.081257)
(3.46725 -0.045874 0.0725183)
(3.52753 -0.0506516 0.0592602)
(3.56717 -0.0755016 0.0505962)
(3.61307 -0.080604 0.0413865)
(3.63707 -0.107888 0.0363315)
(3.67945 -0.127388 0.0293199)
(3.70644 -0.148853 0.0279699)
(3.74585 -0.174431 0.0214592)
(3.78141 -0.20327 0.0200333)
(3.83335 -0.233923 0.0165717)
(3.88167 -0.251788 0.0156095)
(3.93922 -0.282465 0.013209)