/*--------------------------------*- C++ -*----------------------------------*\
| =========                 |                                                 |
| \\      /  F ield         | OpenFOAM: The Open Source CFD Toolbox           |
|  \\    /   O peration     | Version:  v1806                                 |
|   \\  /    A nd           | Web:      www.OpenFOAM.com                      |
|    \\/     M anipulation  |                                                 |
\*---------------------------------------------------------------------------*/
FoamFile
{
    version     2.0;
    format      ascii;
    class       volScalarField;
    location    "290";
    object      p;
}
// * * * * * * * * * * * * * * * * * * * * * * * * * * * * * * * * * * * * * //

dimensions      [0 2 -2 0 0 0 0];


internalField   nonuniform List<scalar> 
4400
(
-0.00944569
0.00405346
0.00329938
0.00184079
0.00135861
0.00116821
0.00102111
0.000901674
0.000803859
0.000717024
0.000635561
0.000557887
0.000483477
0.000411841
0.000342509
0.000275105
0.000209395
0.000145184
8.11213e-05
1.73955e-05
0.0188622
0.0129701
0.00867438
0.00598363
0.00452422
0.00362745
0.00297447
0.0024701
0.00207404
0.00175539
0.00149061
0.00126411
0.00106566
0.000888237
0.000726715
0.000577309
0.000437194
0.000304091
0.000175012
4.92686e-05
0.023773
0.0173182
0.0128666
0.00963844
0.00738713
0.00583654
0.00472508
0.00389119
0.00324355
0.00272519
0.00229806
0.00193668
0.00162382
0.00134739
0.0010986
0.000870836
0.000659072
0.000459217
0.000266945
8.05646e-05
0.0259587
0.0197648
0.0151433
0.0117471
0.00929144
0.00750039
0.00615498
0.00511086
0.0042794
0.00360266
0.00303988
0.00256177
0.00214729
0.00178115
0.00145196
0.00115105
0.000871685
0.000608331
0.00035558
0.000110766
0.0247772
0.0201216
0.0162536
0.013159
0.0107235
0.00882049
0.00732622
0.0061362
0.00517139
0.00437456
0.00370409
0.00312945
0.00262809
0.00218315
0.00178182
0.00141414
0.00107222
0.000749492
0.000439746
0.000139486
0.0234852
0.0199555
0.0166909
0.0138986
0.0115973
0.00972689
0.00820415
0.00695289
0.00591209
0.00503477
0.00428478
0.00363414
0.00306119
0.00254908
0.0020846
0.00165724
0.00125849
0.000881157
0.000518508
0.000166415
0.02187
0.019213
0.0165907
0.01421
0.0121334
0.0103613
0.00886239
0.007594
0.00651432
0.00558694
0.00478166
0.00407399
0.00344421
0.0028765
0.00235806
0.00187844
0.00142897
0.0010022
0.000591173
0.00019131
0.0204495
0.0184085
0.0162745
0.0142367
0.0123844
0.0107458
0.00931534
0.00807129
0.006987
0.00603678
0.00519773
0.00445008
0.0037771
0.00316475
0.00260126
0.00207674
0.00158277
0.00111194
0.00065729
0.000214011
0.0191234
0.017528
0.0157968
0.0140769
0.0124516
0.0109611
0.00961821
0.00841891
0.00735021
0.00639587
0.00553954
0.00476601
0.00406166
0.00341457
0.00281435
0.002252
0.00171961
0.00121006
0.000716637
0.000234432
0.0179907
0.0167137
0.0152866
0.0138211
0.0123926
0.0110445
0.00979757
0.00865702
0.00761909
0.00667513
0.00581463
0.00502674
0.00430103
0.00362785
0.00299839
0.00240473
0.00183968
0.00129663
0.000769196
0.000252557
0.0169951
0.0159532
0.0147642
0.0135116
0.0122572
0.0110418
0.00988964
0.00881229
0.00781251
0.00688764
0.00603196
0.00523836
0.00449929
0.00380726
0.00315508
0.00253599
0.00194362
0.00137196
0.000815116
0.000268428
0.0161526
0.0152832
0.0142753
0.0131908
0.0120806
0.0109813
0.00991747
0.00890321
0.00794519
0.0070448
0.0062001
0.00540715
0.00466094
0.00395597
0.0032866
0.00264721
0.00203235
0.00143661
0.000854681
0.000282136
0.0154318
0.0146929
0.0138256
0.0128767
0.011887
0.0108882
0.00990359
0.00894845
0.00803182
0.00715794
0.00632765
0.00553952
0.00479069
0.00407738
0.00339535
0.00274009
0.00210697
0.00149129
0.00088827
0.000293801
0.0148311
0.0141898
0.0134298
0.0125871
0.0116946
0.0107798
0.0098637
0.00896174
0.00808403
0.00723659
0.00642223
0.00564144
0.00489309
0.0041749
0.00348384
0.00281639
0.00216872
0.00153677
0.000916318
0.000303567
0.0143329
0.0137658
0.0130884
0.0123292
0.0115151
0.0106693
0.00981102
0.00895511
0.00811218
0.00728934
0.00649077
0.0057184
0.00497243
0.0042518
0.00355451
0.0028779
0.00221885
0.00157388
0.00093929
0.000311587
0.0139327
0.0134206
0.0128055
0.0121102
0.0113571
0.0105663
0.00975512
0.00893757
0.00812437
0.00732319
0.00653915
0.00577518
0.00503252
0.00431105
0.00360963
0.0029263
0.00225854
0.00160341
0.000957634
0.000318009
0.013621
0.0131494
0.0125805
0.0119332
0.0112265
0.010478
0.00970359
0.00891649
0.00812729
0.007344
0.00657229
0.00581584
0.00507662
0.00435522
0.00365114
0.00296303
0.00228884
0.00162604
0.000971748
0.000322968
0.0133947
0.0129515
0.012415
0.0118014
0.0111276
0.0104096
0.00966194
0.00889726
0.00812596
0.0073562
0.00659402
0.00584355
0.00510727
0.0043863
0.00368061
0.00298925
0.00231056
0.00164232
0.00098194
0.000326567
0.01325
0.0128247
0.0123084
0.0117161
0.0110631
0.0103644
0.00963382
0.00888354
0.00812382
0.00736289
0.00660699
0.00586053
0.00512632
0.00440576
0.00369914
0.00300579
0.0023243
0.00165265
0.000988431
0.000328873
0.0131841
0.0127662
0.012259
0.0116763
0.0110329
0.0103431
0.00962039
0.00887681
0.00812251
0.00736573
0.0066128
0.00586824
0.00513502
0.0044147
0.00370768
0.00301343
0.00233065
0.00165744
0.000991438
0.000329944
0.0338405
0.0410341
0.0462404
0.0502079
0.0532416
0.0555025
0.0571129
0.0581633
0.0587144
0.0588025
0.0584436
0.0576349
0.0563544
0.0545602
0.0521853
0.0491327
0.0452735
0.0404415
0.0343045
0.0259929
0.0422698
0.0446698
0.0466332
0.0482531
0.0495759
0.0506181
0.0513889
0.0518955
0.0521429
0.0521335
0.051868
0.0513453
0.0505625
0.0495153
0.0481964
0.046595
0.0447049
0.0425499
0.040106
0.0367378
0.0370516
0.0385804
0.0399674
0.0411823
0.0422099
0.0430409
0.0436691
0.0440904
0.0443022
0.0443025
0.0440898
0.0436627
0.0430199
0.0421602
0.0410827
0.0397872
0.0382778
0.0365666
0.034649
0.0324196
0.0344086
0.0352376
0.0359837
0.0366351
0.0371831
0.0376208
0.0379427
0.0381449
0.0382243
0.0381788
0.0380071
0.0377086
0.0372834
0.0367324
0.0360572
0.0352602
0.0343465
0.0333251
0.0321934
0.0308927
0.0303173
0.0308412
0.0313133
0.0317259
0.0320722
0.0323464
0.0325438
0.0326605
0.0326938
0.0326418
0.0325034
0.0322787
0.0319683
0.0315743
0.0310992
0.030547
0.0299228
0.0292337
0.0284855
0.0276761
0.0276114
0.0279373
0.0282249
0.0284704
0.0286709
0.0288235
0.0289259
0.0289762
0.028973
0.0289156
0.0288033
0.0286365
0.0284156
0.0281417
0.0278165
0.0274422
0.0270217
0.0265594
0.0260572
0.025504
0.0248491
0.0250628
0.025249
0.0254057
0.025531
0.0256231
0.0256806
0.0257024
0.0256877
0.0256359
0.0255469
0.0254209
0.0252583
0.0250602
0.0248276
0.0245622
0.0242659
0.0239411
0.0235901
0.0232136
0.0228406
0.0229845
0.0231075
0.0232083
0.0232861
0.0233399
0.0233689
0.0233727
0.0233508
0.023303
0.0232293
0.0231297
0.0230048
0.0228548
0.0226807
0.0224832
0.0222634
0.0220231
0.0217629
0.021479
0.0209818
0.0210812
0.0211647
0.0212318
0.0212817
0.021314
0.0213283
0.0213242
0.0213016
0.0212602
0.0212001
0.0211215
0.0210246
0.0209097
0.0207773
0.020628
0.0204624
0.0202815
0.0200861
0.0198761
0.0195492
0.0196204
0.019679
0.0197247
0.0197571
0.019776
0.0197811
0.0197722
0.0197492
0.0197121
0.0196608
0.0195956
0.0195165
0.0194237
0.0193176
0.0191985
0.0190669
0.0189233
0.0187682
0.0185998
0.0182753
0.0183272
0.0183691
0.0184009
0.0184223
0.0184331
0.0184333
0.0184226
0.0184011
0.0183687
0.0183255
0.0182714
0.0182068
0.0181316
0.0180461
0.0179505
0.0178451
0.0177303
0.0176064
0.0174732
0.0172608
0.0173
0.017331
0.0173537
0.0173679
0.0173735
0.0173706
0.0173589
0.0173385
0.0173093
0.0172714
0.0172249
0.0171698
0.0171062
0.0170342
0.0169541
0.016866
0.0167702
0.0166669
0.0165552
0.0163831
0.0164132
0.0164366
0.0164531
0.0164626
0.0164651
0.0164605
0.0164489
0.01643
0.0164041
0.016371
0.0163309
0.0162838
0.0162297
0.0161688
0.0161012
0.016027
0.0159465
0.0158597
0.0157664
0.0156785
0.0157025
0.0157206
0.015733
0.0157394
0.0157398
0.0157342
0.0157226
0.0157049
0.0156812
0.0156515
0.0156159
0.0155743
0.0155268
0.0154735
0.0154145
0.0153499
0.0152799
0.0152044
0.0151232
0.015089
0.0151086
0.0151231
0.0151325
0.0151368
0.015136
0.01513
0.0151188
0.0151023
0.0150808
0.015054
0.0150221
0.0149851
0.014943
0.014896
0.0148439
0.0147871
0.0147254
0.0146591
0.014588
0.014627
0.0146435
0.0146555
0.014663
0.0146659
0.0146642
0.0146579
0.014647
0.0146315
0.0146114
0.0145867
0.0145574
0.0145236
0.0144853
0.0144426
0.0143954
0.0143439
0.0142882
0.0142283
0.0141639
0.0142645
0.0142789
0.0142891
0.0142952
0.0142972
0.014295
0.0142887
0.0142781
0.0142634
0.0142446
0.0142216
0.0141944
0.0141632
0.0141278
0.0140885
0.0140451
0.0139978
0.0139466
0.0138915
0.0138325
0.0140061
0.0140191
0.0140282
0.0140334
0.0140348
0.0140323
0.0140259
0.0140156
0.0140014
0.0139833
0.0139614
0.0139356
0.013906
0.0138726
0.0138354
0.0137944
0.0137498
0.0137015
0.0136497
0.0135941
0.0138356
0.0138476
0.013856
0.0138607
0.0138618
0.0138591
0.0138528
0.0138427
0.013829
0.0138115
0.0137904
0.0137656
0.0137372
0.0137052
0.0136696
0.0136305
0.0135878
0.0135417
0.0134922
0.0134393
0.0137658
0.0137775
0.0137856
0.0137901
0.013791
0.0137882
0.0137818
0.0137718
0.0137581
0.0137409
0.01372
0.0136955
0.0136674
0.0136358
0.0136006
0.0135619
0.0135198
0.0134742
0.0134252
0.0133727
0.0117584
0.0121609
0.0125524
0.0129352
0.0133065
0.0136561
0.0139703
0.014234
0.0144322
0.0145537
0.0145957
0.0145695
0.0145072
0.0144719
0.0145685
0.014934
0.0156878
0.0169419
0.0192172
0.0242865
0.0136433
0.0139711
0.0143662
0.0148106
0.0153095
0.0158751
0.0165208
0.0172621
0.0181169
0.0191045
0.0202445
0.0215554
0.0230528
0.0247488
0.0266509
0.0287606
0.0310777
0.0336182
0.0364207
0.0394325
0.0168199
0.0173664
0.0179275
0.0185172
0.0191393
0.0197963
0.0204917
0.0212297
0.0220148
0.0228522
0.0237473
0.0247065
0.025737
0.0268468
0.0280442
0.0293365
0.0307285
0.0322212
0.0338035
0.0354371
0.0178088
0.0183366
0.018905
0.0195065
0.0201424
0.0208151
0.0215262
0.0222764
0.0230664
0.0238956
0.0247631
0.0256667
0.0266034
0.0275687
0.0285567
0.0295601
0.0305697
0.0315743
0.0325602
0.0335107
0.0184634
0.0189463
0.0194418
0.0199533
0.0204812
0.0210251
0.0215851
0.0221609
0.0227521
0.0233581
0.0239781
0.0246108
0.0252544
0.0259064
0.0265637
0.0272222
0.0278769
0.0285214
0.0291486
0.0297501
0.0184272
0.0188531
0.0192901
0.0197376
0.0201952
0.0206622
0.0211379
0.0216211
0.0221105
0.0226046
0.0231016
0.0235992
0.0240951
0.0245866
0.0250704
0.0255434
0.0260018
0.0264419
0.0268596
0.0272508
0.0180772
0.0184306
0.0187873
0.0191479
0.0195117
0.0198781
0.0202462
0.0206152
0.0209842
0.0213519
0.0217171
0.0220785
0.0224345
0.0227832
0.023123
0.0234516
0.023767
0.0240668
0.0243488
0.0246103
0.0175658
0.0178663
0.018167
0.0184685
0.0187702
0.0190715
0.0193715
0.0196694
0.0199643
0.0202552
0.0205411
0.0208207
0.0210928
0.0213563
0.0216097
0.0218516
0.0220808
0.0222956
0.0224948
0.0226769
0.016941
0.0171878
0.0174331
0.017677
0.0179192
0.0181589
0.0183956
0.0186287
0.0188575
0.0190813
0.0192994
0.019511
0.0197152
0.0199113
0.0200984
0.0202756
0.0204419
0.0205966
0.0207387
0.0208674
0.0163213
0.0165306
0.0167368
0.0169406
0.0171417
0.0173395
0.0175335
0.0177233
0.0179083
0.018088
0.0182618
0.0184292
0.0185895
0.0187423
0.0188868
0.0190226
0.019149
0.0192654
0.0193712
0.019466
0.0157
0.0158748
0.0160464
0.0162151
0.0163806
0.0165424
0.0167002
0.0168537
0.0170024
0.0171461
0.0172842
0.0174164
0.0175423
0.0176615
0.0177736
0.0178782
0.0179749
0.0180633
0.0181431
0.0182139
0.0151347
0.015285
0.0154318
0.0155753
0.0157155
0.0158519
0.0159844
0.0161125
0.0162362
0.0163549
0.0164686
0.0165768
0.0166793
0.0167758
0.0168661
0.0169497
0.0170266
0.0170964
0.0171588
0.0172137
0.0146138
0.0147429
0.0148687
0.0149912
0.0151104
0.0152259
0.0153376
0.0154452
0.0155486
0.0156475
0.0157417
0.0158311
0.0159153
0.0159943
0.0160678
0.0161356
0.0161975
0.0162534
0.016303
0.0163463
0.0141619
0.0142758
0.0143862
0.0144935
0.0145974
0.0146979
0.0147946
0.0148876
0.0149766
0.0150614
0.0151419
0.015218
0.0152894
0.0153561
0.0154179
0.0154747
0.0155263
0.0155726
0.0156134
0.0156488
0.0137704
0.0138716
0.0139696
0.0140645
0.0141562
0.0142445
0.0143294
0.0144108
0.0144884
0.0145621
0.014632
0.0146977
0.0147593
0.0148165
0.0148694
0.0149178
0.0149616
0.0150007
0.015035
0.0150645
0.0134489
0.0135411
0.01363
0.013716
0.0137989
0.0138786
0.013955
0.014028
0.0140975
0.0141634
0.0142257
0.0142841
0.0143387
0.0143893
0.014436
0.0144785
0.0145168
0.0145509
0.0145806
0.014606
0.013192
0.013277
0.0133591
0.0134382
0.0135144
0.0135875
0.0136574
0.0137241
0.0137875
0.0138476
0.0139041
0.0139571
0.0140065
0.0140522
0.0140942
0.0141324
0.0141667
0.0141971
0.0142236
0.0142461
0.0130035
0.0130839
0.0131613
0.0132359
0.0133076
0.0133763
0.013442
0.0135045
0.0135638
0.0136199
0.0136727
0.0137221
0.0137681
0.0138105
0.0138495
0.0138848
0.0139165
0.0139445
0.0139688
0.0139894
0.0128799
0.0129569
0.013031
0.0131025
0.0131711
0.0132368
0.0132995
0.0133592
0.0134159
0.0134693
0.0135196
0.0135666
0.0136103
0.0136507
0.0136876
0.0137211
0.0137511
0.0137776
0.0138005
0.0138198
0.0128264
0.0129026
0.0129758
0.0130462
0.0131138
0.0131785
0.0132402
0.013299
0.0133546
0.0134071
0.0134565
0.0135026
0.0135455
0.0135851
0.0136212
0.013654
0.0136834
0.0137093
0.0137316
0.0137505
0.00441159
0.00689551
0.00813157
0.0089373
0.00948251
0.00981489
0.00998959
0.0100559
0.0100492
0.00999485
0.00991135
0.00981274
0.00970954
0.00960975
0.0095195
0.0094436
0.00938549
0.00934521
0.00932892
0.00933955
0.00591111
0.00693843
0.00750548
0.00791982
0.00823673
0.00846337
0.00861554
0.00871086
0.00876346
0.00878425
0.00878193
0.00876339
0.00873402
0.0086979
0.00865797
0.0086161
0.00857411
0.00853518
0.00849487
0.00845013
0.00634216
0.00693957
0.00738299
0.00772795
0.00799341
0.00818804
0.00832217
0.00840688
0.00845227
0.00846715
0.00845902
0.00843419
0.00839779
0.00835391
0.00830567
0.00825548
0.00820517
0.0081554
0.00810385
0.0080496
0.00653862
0.00685963
0.00711509
0.00731899
0.00747765
0.00759511
0.00767625
0.00772646
0.0077511
0.00775511
0.00774301
0.00771876
0.00768573
0.00764675
0.0076041
0.00755963
0.00751496
0.00747074
0.00742463
0.0073748
0.00630781
0.00650589
0.00667542
0.00681493
0.00692565
0.00700945
0.00706862
0.00710586
0.00712412
0.00712641
0.00711565
0.00709459
0.00706571
0.00703121
0.00699294
0.00695252
0.00691138
0.00687015
0.00682693
0.00678075
0.0059391
0.00606802
0.00617964
0.00627039
0.00634084
0.00639238
0.00642652
0.00644499
0.00644974
0.00644281
0.00642623
0.006402
0.00637195
0.00633772
0.00630078
0.0062624
0.00622381
0.0061855
0.00614563
0.00610298
0.00542949
0.00551692
0.00559492
0.00565739
0.00570444
0.00573725
0.00575687
0.00576448
0.0057614
0.00574914
0.0057292
0.0057031
0.00567227
0.00563803
0.00560157
0.00556397
0.00552627
0.00548887
0.00544995
0.00540841
0.00486519
0.0049238
0.00497699
0.00501771
0.00504594
0.00506281
0.00506914
0.00506581
0.00505389
0.00503458
0.00500912
0.00497876
0.00494473
0.00490815
0.00487003
0.00483135
0.00479303
0.00475542
0.00471665
0.00467562
0.00424666
0.00428161
0.00431474
0.00433774
0.00435046
0.00435394
0.00434885
0.00433585
0.00431579
0.00428966
0.00425852
0.00422345
0.00418552
0.00414573
0.00410498
0.00406417
0.00402416
0.00398527
0.00394558
0.00390397
0.00360122
0.003614
0.00362739
0.00363247
0.00362906
0.00361816
0.00360031
0.00357602
0.00354602
0.00351116
0.00347236
0.00343059
0.00338681
0.00334194
0.00329685
0.00325235
0.00320931
0.00316799
0.00312644
0.00308349
0.00293458
0.00292322
0.00291426
0.00289866
0.00287634
0.00284827
0.00281489
0.00277664
0.00273412
0.00268805
0.00263925
0.00258856
0.00253685
0.00248496
0.00243368
0.00238381
0.00233618
0.00229105
0.00224637
0.00220092
0.00226411
0.00222307
0.002185
0.00214198
0.00209412
0.00204239
0.00198729
0.00192921
0.00186868
0.00180635
0.00174288
0.00167903
0.00161555
0.00155318
0.00149265
0.00143473
0.00138025
0.00132945
0.00128013
0.0012309
0.00161528
0.00153656
0.00145952
0.00137923
0.00129626
0.00121164
0.00112601
0.00103989
0.000953821
0.000868341
0.000784008
0.000701385
0.000621053
0.0005436
0.000469618
0.000399779
0.000334882
0.000275108
0.000218042
0.000162342
0.00101645
0.000885029
0.000751225
0.000615559
0.000479244
0.000343492
0.000209402
7.79287e-05
-5.01223e-05
-0.000174081
-0.000293393
-0.000407578
-0.000516197
-0.00061882
-0.00071499
-0.000804114
-0.000885364
-0.000958528
-0.00102644
-0.00109119
0.000554327
0.000359349
0.000153736
-5.36999e-05
-0.000260716
-0.000465697
-0.00066663
-0.000861621
-0.00104913
-0.001228
-0.00139745
-0.00155703
-0.00170654
-0.00184594
-0.00197522
-0.00209418
-0.00220228
-0.00229964
-0.00238958
-0.0024732
0.000272677
-1.72888e-05
-0.000330194
-0.000648725
-0.000970118
-0.00129218
-0.00161135
-0.00192386
-0.00222625
-0.0025155
-0.0027892
-0.00304558
-0.00328351
-0.00350243
-0.00370208
-0.00388204
-0.00404129
-0.00417921
-0.00430005
-0.00440852
0.000482053
0.000122965
-0.000278479
-0.000696181
-0.00112651
-0.00156677
-0.00201175
-0.00245524
-0.00289086
-0.00331248
-0.0037146
-0.00409292
-0.00444465
-0.00476872
-0.00506562
-0.00533665
-0.00558312
-0.00580747
-0.00601659
-0.00620811
0.0010183
0.000511583
-5.5163e-05
-0.000660444
-0.00130497
-0.00198828
-0.00270609
-0.00345159
-0.00421594
-0.0049884
-0.00575677
-0.00650807
-0.0072296
-0.00790998
-0.00854022
-0.00911364
-0.00962451
-0.0100694
-0.010458
-0.0108017
0.00325414
0.00291027
0.00248144
0.001989
0.00143247
0.000808352
0.000115878
-0.000642827
-0.00146269
-0.00233536
-0.00324912
-0.00418933
-0.00513971
-0.00608435
-0.00700967
-0.00790447
-0.00876259
-0.00960959
-0.0105547
-0.0116676
0.00490206
0.00430992
0.00365574
0.00290346
0.00203233
0.00102425
-0.000140781
-0.00148365
-0.00302487
-0.00478335
-0.00677492
-0.00901082
-0.0114963
-0.0142292
-0.0171966
-0.0203665
-0.023693
-0.027188
-0.0310364
-0.0351532
0.000215974
0.000661725
0.00111173
0.00156622
0.00202663
0.00249397
0.00296911
0.00345291
0.00394618
0.00444964
0.00496395
0.00548973
0.00602761
0.00657839
0.00714344
0.0077255
0.00833122
0.00897801
0.00970796
0.0106558
0.00023174
0.000707668
0.00118829
0.00167423
0.0021673
0.00266906
0.00318109
0.00370517
0.00424327
0.00479773
0.00537142
0.005968
0.00659237
0.00725123
0.0079538
0.00871237
0.00954335
0.0104728
0.0115551
0.0128515
0.00024673
0.000751319
0.00126097
0.00177664
0.00230052
0.00283466
0.00338126
0.00394285
0.00452243
0.00512364
0.00575111
0.00641084
0.00711093
0.00786264
0.00868208
0.00959329
0.0106334
0.0118585
0.013343
0.0152101
0.000260774
0.000792179
0.00132889
0.00187219
0.00242456
0.00298843
0.00356648
0.00416184
0.00477823
0.00542025
0.00609367
0.00680594
0.00756688
0.00838958
0.0092918
0.0102979
0.0114421
0.0127735
0.0143717
0.0163555
0.000273729
0.000829831
0.00139135
0.00195984
0.00253798
0.00312846
0.00373429
0.00435897
0.00500667
0.00568247
0.00639273
0.00714555
0.00795141
0.00882412
0.00978211
0.0108501
0.012061
0.0134581
0.0150968
0.0170456
0.000285488
0.000863961
0.00144783
0.00203884
0.00263977
0.00325346
0.00388308
0.00453226
0.00520532
0.00590745
0.00664503
0.00742596
0.00826017
0.00916018
0.0101419
0.0112251
0.0124353
0.0138049
0.0153742
0.0171832
0.000295984
0.000894375
0.00149801
0.00210876
0.00272939
0.00336277
0.00401206
0.00468085
0.00537335
0.00609452
0.00685034
0.00764803
0.00849643
0.00940631
0.0103907
0.0114652
0.0126479
0.013959
0.0154164
0.0170257
0.000305189
0.000921005
0.00154179
0.00216948
0.00280673
0.00345632
0.00412128
0.00480498
0.00551132
0.00624478
0.00701059
0.00781489
0.00866486
0.00956883
0.0105362
0.0115775
0.0127039
0.0139258
0.0152484
0.0166646
0.00031312
0.000943897
0.00157929
0.00222119
0.00287209
0.0035346
0.00421149
0.00490581
0.00562099
0.00636086
0.00712977
0.00793261
0.00877486
0.0096625
0.0106018
0.0115988
0.0126587
0.0137834
0.0149682
0.0161954
0.000319825
0.000963208
0.00161077
0.00226433
0.00292614
0.00359855
0.00428403
0.00498521
0.00570495
0.00644636
0.0072128
0.00800787
0.0088353
0.0096988
0.0106017
0.0115465
0.0125336
0.0135604
0.0146171
0.0156844
0.000325385
0.000979178
0.00163668
0.00229955
0.0029698
0.00364948
0.00434067
0.00504557
0.00576643
0.00650561
0.00726552
0.00804851
0.0088568
0.00969216
0.0105556
0.0114467
0.0123627
0.0132974
0.0142386
0.0151659
0.000329903
0.000992116
0.00165754
0.00232766
0.00300421
0.00368891
0.00438346
0.00508958
0.00580894
0.00654317
0.00729376
0.00806197
0.00884865
0.00965399
0.0104771
0.0113156
0.0121649
0.0130169
0.0138591
0.0146727
0.000333497
0.00100237
0.00167396
0.00234957
0.00303062
0.00371851
0.00441458
0.00512007
0.0058361
0.00656364
0.00730337
0.00805561
0.0088201
0.00959579
0.0103805
0.0111703
0.0119595
0.0127393
0.0134971
0.0142159
0.000336291
0.00101031
0.00168658
0.00236619
0.0030503
0.00373999
0.00443622
0.00513982
0.00585142
0.00657138
0.00729971
0.00803593
0.0087789
0.00952663
0.010276
0.0110223
0.0117591
0.0124776
0.0131661
0.0138097
0.000338411
0.00101631
0.00169603
0.00237847
0.00306452
0.00375498
0.00445048
0.00515149
0.00585818
0.00657042
0.00728766
0.00800878
0.008732
0.00945461
0.0101728
0.0108816
0.011574
0.0122417
0.0128737
0.0134568
0.000339978
0.00102072
0.00170291
0.00238726
0.00307445
0.003765
0.0044593
0.00515745
0.0058593
0.00656429
0.00727142
0.0079791
0.00868502
0.00938603
0.0100779
0.0107553
0.0114116
0.0120384
0.0126259
0.0131627
0.000341099
0.00102386
0.00170776
0.00239335
0.00308113
0.00377142
0.00446437
0.00515983
0.00585735
0.00655607
0.00725463
0.00795108
0.00864277
0.00932621
0.00999697
0.0106495
0.0112773
0.0118724
0.0124259
0.0129273
0.000341863
0.00102599
0.001711
0.00239737
0.00308542
0.00377534
0.00446709
0.00516033
0.00585441
0.00654823
0.00724018
0.00792808
0.00860901
0.00927929
0.00993434
0.0105686
0.0111756
0.0117478
0.0122767
0.0127532
0.000342334
0.00102729
0.00171297
0.00239978
0.00308795
0.00377756
0.00446846
0.0051602
0.00585197
0.00654253
0.00723014
0.00791243
0.00858635
0.0092481
0.00989301
0.0105156
0.0111093
0.0116669
0.0121802
0.0126404
0.000342546
0.00102787
0.00171386
0.00240086
0.00308907
0.00377852
0.004469
0.00516002
0.0058507
0.00653973
0.00722529
0.00790495
0.00857559
0.00923336
0.00987356
0.0104907
0.0110783
0.0116292
0.0121355
0.0125891
-0.000157274
-0.000405616
-0.000671728
-0.000947587
-0.00123464
-0.00153415
-0.00184869
-0.00218025
-0.00253117
-0.00290394
-0.0033013
-0.00372589
-0.00417933
-0.00466116
-0.00516531
-0.00567017
-0.00605898
-0.00594619
-0.0049039
-0.0089291
-0.000126772
-0.000347973
-0.000569797
-0.00080108
-0.00103932
-0.00128548
-0.00153973
-0.00180221
-0.0020722
-0.00234804
-0.00262635
-0.00290078
-0.00316046
-0.00338757
-0.00355173
-0.00357637
-0.00327252
-0.00230371
-0.000737059
0.000751465
-0.000106993
-0.000285174
-0.000466557
-0.000652631
-0.000842378
-0.00103548
-0.00123082
-0.00142659
-0.00161971
-0.00180519
-0.00197504
-0.00211665
-0.00221057
-0.00222656
-0.00211289
-0.0017696
-0.00103151
0.000233915
0.00193834
0.00410804
-8.73346e-05
-0.000223294
-0.000363025
-0.000504778
-0.000647166
-0.000789043
-0.000928354
-0.00106194
-0.00118504
-0.00129054
-0.00136786
-0.00140152
-0.00136916
-0.00123738
-0.000951847
-0.00042274
0.000464221
0.00177042
0.00345645
0.00540392
-6.6916e-05
-0.000162694
-0.000260908
-0.000359484
-0.000456309
-0.000549685
-0.000636923
-0.000714082
-0.000775494
-0.000813022
-0.000815079
-0.000765376
-0.000641087
-0.00040939
-2.17358e-05
0.000588201
0.00148481
0.00268761
0.00414111
0.00565033
-4.67441e-05
-0.000103446
-0.000161339
-0.000218285
-0.000271852
-0.000320002
-0.000359768
-0.000386956
-0.000395721
-0.000377963
-0.000322577
-0.000214516
-3.33838e-05
0.000248939
0.00067088
0.00127872
0.00210978
0.00316355
0.00436728
0.00551982
-2.70169e-05
-4.58401e-05
-6.48639e-05
-8.20289e-05
-9.48349e-05
-0.000101188
-9.81583e-05
-8.17296e-05
-4.64501e-05
1.5031e-05
0.000112508
0.000258879
0.00047105
0.000771012
0.00118595
0.00174425
0.00246385
0.00333384
0.00428743
0.00516132
-7.89681e-06
9.95699e-06
2.82832e-05
4.89878e-05
7.44469e-05
0.000106584
0.000148011
0.000202214
0.000273801
0.000368812
0.000495069
0.000662573
0.000884005
0.00117504
0.00155356
0.00203604
0.00262965
0.00331981
0.00405145
0.00469942
1.06476e-05
6.39722e-05
0.000118217
0.000175012
0.000236478
0.000304198
0.000380262
0.000467391
0.000569076
0.000689771
0.000835069
0.0010119
0.00122867
0.00149507
0.00182089
0.00221339
0.00267324
0.00318768
0.00371715
0.00416751
2.8658e-05
0.000116387
0.0002053
0.000296668
0.000392266
0.000493223
0.000600976
0.000717329
0.000844495
0.000985172
0.00114259
0.00132057
0.00152344
0.00175568
0.00202079
0.00231961
0.00264913
0.00299895
0.00333983
0.00359997
4.62375e-05
0.000167504
0.000290099
0.00041488
0.00054323
0.00067577
0.000813232
0.000956452
0.00110633
0.00126382
0.00142983
0.00160519
0.00179046
0.0019854
0.00218801
0.00239405
0.00259793
0.00279094
0.00294831
0.0030135
6.35005e-05
0.000217688
0.000373281
0.000530711
0.000690965
0.000854158
0.00102032
0.00118936
0.00136089
0.0015342
0.00170803
0.00188045
0.00204852
0.0022078
0.00235157
0.00247107
0.00255784
0.0026016
0.00257467
0.00243181
8.05728e-05
0.000267319
0.000455533
0.000645249
0.00083709
0.00103072
0.00122555
0.00142062
0.00161446
0.00180483
0.00198855
0.00216117
0.00231661
0.00244651
0.00253961
0.0025826
0.00256283
0.00246461
0.00225061
0.00188301
9.75661e-05
0.000316738
0.000537472
0.000759461
0.000983043
0.00120752
0.00143182
0.00165429
0.00187253
0.00208308
0.00228112
0.00246006
0.00261103
0.00272212
0.00277777
0.00275968
0.00264901
0.00242031
0.00202011
0.00140856
0.000114567
0.000366205
0.000619565
0.000874092
0.00112994
0.00138619
0.00164144
0.0018936
0.00213963
0.00237517
0.00259418
0.00278839
0.00294658
0.00305372
0.00309021
0.00303238
0.00285327
0.00251366
0.00193874
0.0010808
0.000131621
0.000415858
0.000702067
0.000989552
0.0012784
0.00156766
0.00185581
0.00214057
0.00241864
0.00268524
0.00293365
0.00315455
0.0033351
0.00345781
0.00349954
0.00343115
0.00321631
0.00279979
0.00208388
0.000999612
0.000148728
0.000465693
0.000784976
0.00110586
0.00142851
0.00175208
0.0020752
0.00239573
0.00271049
0.00301487
0.00330223
0.00356313
0.00378427
0.00394699
0.00402571
0.00398649
0.00378367
0.00334716
0.00256055
0.0013328
0.000165836
0.000515555
0.000868021
0.00122262
0.00157971
0.00193874
0.0022987
0.00265789
0.00301372
0.00336233
0.00369802
0.00401254
0.00429388
0.00452458
0.00467953
0.00472273
0.0046017
0.00423556
0.00349844
0.00222247
0.000182845
0.000565143
0.000950676
0.00133904
0.00173089
0.00212613
0.00252425
0.0029243
0.00332462
0.00372262
0.00411435
0.00449394
0.00485271
0.00517769
0.00544937
0.00563732
0.00569131
0.00552565
0.00500571
0.00401504
0.000199614
0.000614034
0.00103221
0.00145401
0.00188049
0.00231207
0.00274891
0.00319092
0.00363765
0.0040881
0.00454056
0.00499232
0.00543928
0.00587535
0.00629149
0.00667289
0.00699136
0.00718796
0.00713944
0.00650855
-0.000257533
-0.000609405
-0.00106122
-0.0014876
-0.00196188
-0.00245645
-0.00299506
-0.0035787
-0.00422152
-0.00493542
-0.00573616
-0.00664642
-0.00768079
-0.0088855
-0.0102204
-0.0118198
-0.0133672
-0.015442
-0.0167584
-0.0191824
-0.000258295
-0.000599347
-0.0010486
-0.0014677
-0.00193642
-0.00242383
-0.00295516
-0.0035306
-0.00416458
-0.00486896
-0.00565981
-0.00656089
-0.00758785
-0.00879243
-0.0101363
-0.0117777
-0.0133824
-0.0155891
-0.0169508
-0.0194398
-0.000258266
-0.000589411
-0.00103531
-0.00144723
-0.00190997
-0.00239007
-0.00291376
-0.00348065
-0.0041053
-0.00479955
-0.00557972
-0.00647043
-0.00748855
-0.00869045
-0.0100407
-0.0117186
-0.0133772
-0.0157082
-0.0171166
-0.0196194
-0.000257731
-0.000579563
-0.00102148
-0.00142628
-0.00188271
-0.00235531
-0.00287104
-0.00342902
-0.00404388
-0.00472737
-0.00549604
-0.00637516
-0.00738286
-0.0085794
-0.00993296
-0.0116407
-0.0133473
-0.015796
-0.0172683
-0.0198235
-0.000256752
-0.00056974
-0.00100713
-0.00140483
-0.00185461
-0.00231955
-0.00282698
-0.00337571
-0.0039803
-0.00465242
-0.00540873
-0.00627499
-0.00727059
-0.00845885
-0.00981228
-0.0115432
-0.0132914
-0.0158503
-0.0173979
-0.0200419
-0.000255387
-0.000559907
-0.000992275
-0.00138289
-0.00182571
-0.0022828
-0.00278162
-0.00332075
-0.00391459
-0.0045747
-0.0053178
-0.0061699
-0.00715159
-0.00832851
-0.00967795
-0.0114248
-0.0132076
-0.0158693
-0.0174996
-0.0202578
-0.000253693
-0.000550037
-0.000976928
-0.00136047
-0.00179601
-0.00224508
-0.00273498
-0.00326417
-0.00384681
-0.00449428
-0.00522328
-0.00605989
-0.00702577
-0.00818813
-0.00952935
-0.0112843
-0.0130941
-0.0158505
-0.0175684
-0.020464
-0.000251719
-0.000540109
-0.000961108
-0.00133757
-0.00176555
-0.00220642
-0.00268711
-0.00320601
-0.00377698
-0.00441121
-0.00512522
-0.00594499
-0.00689309
-0.00803752
-0.00936597
-0.0111208
-0.0129491
-0.0157913
-0.0175988
-0.0206551
-0.000249507
-0.000530108
-0.00094483
-0.00131421
-0.00173436
-0.00216684
-0.00263803
-0.00314633
-0.00370519
-0.00432553
-0.00502369
-0.00582525
-0.00675356
-0.00787657
-0.0091874
-0.0109333
-0.0127707
-0.0156889
-0.0175838
-0.0208258
-0.000247097
-0.00052002
-0.00092811
-0.00129041
-0.00170245
-0.00212639
-0.00258779
-0.00308516
-0.00363147
-0.00423735
-0.00491876
-0.00570078
-0.00660722
-0.00770526
-0.00899336
-0.010721
-0.012557
-0.0155399
-0.0175144
-0.0209708
-0.000244528
-0.000509838
-0.000910959
-0.00126617
-0.00166985
-0.00208508
-0.00253644
-0.00302258
-0.00355591
-0.00414673
-0.00481055
-0.00557168
-0.00645418
-0.00752367
-0.00878371
-0.0104832
-0.0123066
-0.0153407
-0.0173799
-0.0210853
-0.000241838
-0.000499556
-0.000893387
-0.00124153
-0.0016366
-0.00204296
-0.00248402
-0.00295863
-0.00347858
-0.00405377
-0.00469916
-0.00543812
-0.0062946
-0.00733193
-0.00855841
-0.0102193
-0.0120181
-0.0150876
-0.0171678
-0.0211662
-0.000239051
-0.000489176
-0.000875401
-0.00121649
-0.00160272
-0.00200005
-0.00243058
-0.00289338
-0.00339957
-0.00395859
-0.00458475
-0.00530028
-0.00612871
-0.00713031
-0.00831758
-0.00992892
-0.0116903
-0.0147759
-0.0168633
-0.0212128
-0.000236163
-0.000478717
-0.000857007
-0.00119108
-0.00156823
-0.00195639
-0.00237616
-0.00282688
-0.00331894
-0.00386129
-0.00446745
-0.00515833
-0.00595673
-0.0069191
-0.00806143
-0.00961179
-0.0113219
-0.0143995
-0.0164492
-0.0212253
-0.000233182
-0.000468187
-0.000838214
-0.00116531
-0.00153318
-0.00191201
-0.00232082
-0.0027592
-0.00323679
-0.00376198
-0.00434742
-0.00501252
-0.00577899
-0.00669876
-0.00779045
-0.00926811