/*--------------------------------*- C++ -*----------------------------------*\
| =========                 |                                                 |
| \\      /  F ield         | OpenFOAM: The Open Source CFD Toolbox           |
|  \\    /   O peration     | Version:  v1806                                 |
|   \\  /    A nd           | Web:      www.OpenFOAM.com                      |
|    \\/     M anipulation  |                                                 |
\*---------------------------------------------------------------------------*/
FoamFile
{
    version     2.0;
    format      ascii;
    class       surfaceScalarField;
    location    "420";
    object      phi;
}
// * * * * * * * * * * * * * * * * * * * * * * * * * * * * * * * * * * * * * //

dimensions      [0 3 -1 0 0 0 0];
oriented        oriented;


internalField   nonuniform List<scalar> 
4680
(
0.0750008
-0.000443933
0.0750038
-0.00133124
0.0750091
-0.00221551
0.0750175
-0.00309308
0.0750297
-0.00396078
0.0750465
-0.00481516
0.0750689
-0.00565229
0.0750982
-0.0064678
0.0751355
-0.00725674
0.0751823
-0.00801367
0.0752401
-0.00873261
0.0753102
-0.00940725
0.0753941
-0.010031
0.0754931
-0.0105971
0.0756082
-0.0110991
0.07574
-0.011531
0.0758888
-0.0118872
0.0760547
-0.012164
0.0762378
-0.0123577
-0.0124655
0.0764288
0.0750022
-0.000446158
0.075009
-0.00133803
0.0750206
-0.00222715
0.0750379
-0.0031103
0.0750616
-0.00398457
0.0750932
-0.00484675
0.0751341
-0.00569315
0.0751859
-0.0065196
0.0752504
-0.00732125
0.0753295
-0.0080928
0.0754251
-0.00882821
0.075539
-0.0095211
0.0756726
-0.0101645
0.075827
-0.0107516
0.076003
-0.0112751
0.0762004
-0.0117284
0.0764185
-0.0121053
0.0766554
-0.012401
0.0769084
-0.0126107
-0.0127334
0.0771763
0.0750035
-0.000449666
0.0750141
-0.00134862
0.0750322
-0.00224525
0.0750588
-0.00313686
0.0750951
-0.00402089
0.0751429
-0.00489454
0.0752041
-0.00575436
0.075281
-0.0065965
0.075376
-0.00741619
0.0754914
-0.00820829
0.0756298
-0.00896655
0.0757932
-0.00968452
0.0759833
-0.0103547
0.0762013
-0.0109696
0.0764475
-0.0115212
0.076721
-0.0120019
0.0770201
-0.0124044
0.0773416
-0.0127225
0.077682
-0.0129511
-0.0130873
0.0780358
0.0750046
-0.000454262
0.0750185
-0.00136251
0.0750422
-0.002269
0.0750771
-0.00317169
0.0751247
-0.00406849
0.0751872
-0.00495713
0.0752673
-0.00583445
0.0753679
-0.00669705
0.0754918
-0.00754017
0.0756426
-0.008359
0.0758228
-0.00914684
0.0760356
-0.00989729
0.0762827
-0.0106018
0.0765656
-0.0112525
0.0768842
-0.0118398
0.0772374
-0.0123551
0.0776222
-0.0127892
0.0780342
-0.0131345
0.0784678
-0.0133847
-0.0135343
0.0789149
0.0750054
-0.0004597
0.0750219
-0.00137896
0.0750501
-0.00229716
0.0750915
-0.00321311
0.0751483
-0.00412527
0.0752232
-0.00503208
0.0753195
-0.00593069
0.0754408
-0.0068184
0.0755909
-0.00769031
0.0757742
-0.00854229
0.0759941
-0.00936673
0.0762547
-0.0101578
0.0765579
-0.010905
0.0769062
-0.0116008
0.0772989
-0.0122325
0.0777351
-0.0127912
0.0782103
-0.0132644
0.0787189
-0.0136431
0.0792527
-0.0139185
-0.014083
0.0798014
0.075006
-0.000465664
0.075024
-0.00139703
0.075055
-0.00232815
0.0751009
-0.00325895
0.0751641
-0.0041885
0.0752482
-0.0051162
0.075357
-0.00603947
0.0754953
-0.00695675
0.0756677
-0.00786265
0.0758799
-0.00875449
0.076136
-0.00962283
0.0764419
-0.0104637
0.0767997
-0.0112628
0.0772137
-0.0120148
0.0776823
-0.012701
0.0782057
-0.0133146
0.078777
-0.0138358
0.0793905
-0.0142566
0.080034
-0.014562
-0.0147439
0.0806949
0.0750061
-0.000471756
0.0750246
-0.00141552
0.0750564
-0.00236002
0.075104
-0.0033065
0.0751702
-0.00425473
0.0752595
-0.00520544
0.0753762
-0.00615617
0.0755266
-0.00710717
0.0757159
-0.00805198
0.0759521
-0.00899072
0.0762397
-0.00991041
0.0765877
-0.0108117
0.0769974
-0.0116726
0.0774773
-0.0124947
0.0780232
-0.0132468
0.0786393
-0.0139307
0.0793138
-0.0145103
0.0800434
-0.0149861
0.0808084
-0.0153271
-0.0155315
0.081596
0.0750057
-0.000477495
0.0750232
-0.00143299
0.0750536
-0.00239036
0.0750995
-0.00335245
0.0751645
-0.00431976
0.0752539
-0.00529478
0.0753727
-0.00627498
0.0755289
-0.00726339
0.0757284
-0.0082515
0.0759822
-0.00924451
0.0762947
-0.0102229
0.07668
-0.011197
0.0771374
-0.01213
0.077683
-0.0130403
0.0783066
-0.0138705
0.0790225
-0.0146466
0.079808
-0.0152958
0.0806688
-0.015847
0.0815704
-0.0162287
-0.0164661
0.0825051
0.0750048
-0.000482315
0.0750196
-0.00144774
0.0750456
-0.00241635
0.075086
-0.00339285
0.0751447
-0.00437853
0.0752281
-0.0053781
0.0753418
-0.00638876
0.075496
-0.00741754
0.075697
-0.00845252
0.0759598
-0.00950734
0.0762883
-0.0105513
0.0767042
-0.0116129
0.0772021
-0.0126279
0.0778125
-0.0136507
0.0785122
-0.0145702
0.0793371
-0.0154715
0.0802412
-0.0161999
0.0812548
-0.0168606
0.0823108
-0.0172847
-0.0175779
0.0834226
0.0750032
-0.000485563
0.0750133
-0.0014578
0.0750317
-0.00243472
0.0750619
-0.00342308
0.0751084
-0.00442504
0.0751784
-0.00544807
0.0752785
-0.00648884
0.0754207
-0.00755977
0.0756123
-0.00864407
0.0758729
-0.00976801
0.0762051
-0.0108835
0.076642
-0.0120498
0.0771696
-0.0131555
0.0778424
-0.0143235
0.0786124
-0.0153402
0.0795589
-0.016418
0.0805867
-0.0172276
0.0817843
-0.0180582
0.0830151
-0.0185156
-0.0189124
0.0843497
0.0750009
-0.000486505
0.0750041
-0.00146096
0.0750111
-0.00244175
0.0750259
-0.00343785
0.0750533
-0.00445243
0.0751013
-0.00549603
0.0751773
-0.00656492
0.0752956
-0.007678
0.0754641
-0.0088126
0.0757079
-0.0100118
0.076028
-0.0112037
0.0764717
-0.0124935
0.077013
-0.0136968
0.0777428
-0.0150534
0.0785708
-0.0161682
0.0796552
-0.0175024
0.0808054
-0.0183779
0.082234
-0.0194868
0.0836603
-0.0199419
-0.0205409
0.0852887
0.0749978
-0.00048434
0.0749917
-0.0014548
0.0749833
-0.00243339
0.0749767
-0.00343128
0.0749773
-0.00445295
0.0749933
-0.00551208
0.0750334
-0.00660505
0.075113
-0.0077576
0.0752421
-0.00894172
0.0754497
-0.0102193
0.0757379
-0.0114919
0.0761673
-0.0129229
0.0767009
-0.0142304
0.0774751
-0.0158275
0.0783406
-0.0170337
0.0795815
-0.0187432
0.0808406
-0.019637
0.0825717
-0.0212179
0.0842089
-0.021579
-0.0225741
0.0862421
0.0749939
-0.000478219
0.0749758
-0.00143675
0.0749477
-0.00240528
0.0749135
-0.00339706
0.0748787
-0.00441818
0.0748518
-0.00548518
0.0748425
-0.00659569
0.0748663
-0.00778143
0.0749365
-0.00901194
0.0750834
-0.0103662
0.075315
-0.0117235
0.075699
-0.0133069
0.0761988
-0.0147301
0.0769895
-0.0166183
0.0778663
-0.0179105
0.0792746
-0.0201515
0.0806119
-0.0209742
0.0827508
-0.0233568
0.0845965
-0.0234247
-0.0251904
0.0872127
0.0749891
-0.000467288
0.0749566
-0.00140423
0.0749043
-0.00235302
0.0748359
-0.00332871
0.074757
-0.00433928
0.0746755
-0.00540361
0.0746018
-0.00652198
0.0745506
-0.00773023
0.0745392
-0.00900053
0.0745952
-0.0104223
0.0747398
-0.0118681
0.0750345
-0.0136015
0.0754689
-0.0151646
0.0762219
-0.0173713
0.0770877
-0.0187763
0.0786398
-0.0217036
0.0800204
-0.0223548
0.082698
-0.0260344
0.084702
-0.0254287
-0.0286936
0.0882053
0.0749834
-0.000450732
0.074934
-0.0013548
0.0748533
-0.00227236
0.0747446
-0.00321992
0.0746127
-0.00420745
0.0744647
-0.00525556
0.074311
-0.0063683
0.0741643
-0.00758358
0.0740454
-0.0088816
0.0739765
-0.0103534
0.0739953
-0.0118869
0.0741443
-0.0137505
0.0744704
-0.0154907
0.0750946
-0.0179954
0.0759389
-0.0196206
0.077529
-0.0232938
0.078973
-0.0237987
0.0822693
-0.0293307
0.0843263
-0.0274858
-0.033625
0.0892577
0.0749771
-0.000427845
0.0749086
-0.0012863
0.0747958
-0.00215953
0.0746409
-0.00306505
0.0744481
-0.00401458
0.0742224
-0.00502993
0.0739734
-0.00611925
0.073711
-0.00732116
0.0734565
-0.00862711
0.0732266
-0.0101235
0.0730709
-0.0117312
0.0730107
-0.0136904
0.0731593
-0.0156393
0.0735383
-0.0183744
0.0743278
-0.0204102
0.0757207
-0.0246866
0.077393
-0.025471
0.0811277
-0.0330654
0.0832767
-0.0296348
-0.0408499
0.0905016
0.0749702
-0.000398094
0.0748811
-0.00119713
0.0747332
-0.00201166
0.0745278
-0.00285965
0.0742673
-0.00375408
0.0739547
-0.00471736
0.0735968
-0.00576128
0.0732
-0.00692441
0.0727823
-0.00820944
0.0723556
-0.00969681
0.0719694
-0.011345
0.0716345
-0.0133555
0.0714965
-0.0155013
0.0715149
-0.0183928
0.0721148
-0.0210101
0.0730316
-0.0256034
0.0751267
-0.0275661
0.0786012
-0.0365399
0.0816299
-0.0326635
-0.0510701
0.0918501
0.0749631
-0.000361194
0.0748523
-0.00108637
0.0746678
-0.00182711
0.0744092
-0.00260103
0.0740769
-0.00342178
0.0736709
-0.00431143
0.0731942
-0.00528452
0.0726484
-0.00637859
0.0720446
-0.00760566
0.0713884
-0.0090406
0.0707171
-0.0106737
0.0700387
-0.0126771
0.0694796
-0.0149421
0.0690123
-0.0179255
0.0691009
-0.0210988
0.0693948
-0.0258972
0.0715996
-0.029771
0.0737963
-0.0387366
0.0797079
-0.0385751
-0.0626706
0.0913084
0.074956
-0.000317179
0.0748237
-0.000954092
0.0746024
-0.00160585
0.0742903
-0.00228889
0.0738853
-0.00301675
0.0733838
-0.00380993
0.0727839
-0.00468468
0.072081
-0.00567565
0.0712773
-0.00680199
0.0703676
-0.00813087
0.069371
-0.00967702
0.0682824
-0.0115886
0.0671809
-0.0138406
0.0660595
-0.0168041
0.0652316
-0.0202709
0.0646095
-0.0252751
0.0657006
-0.0308621
0.0669653
-0.0400012
0.0762997
-0.0479094
-0.0692534
0.0828825
0.0749493
-0.00026648
0.0747966
-0.000801412
0.0745405
-0.00134976
0.0741774
-0.00192579
0.0737026
-0.00254193
0.0731087
-0.00321601
0.0723885
-0.00396448
0.07153
-0.00481714
0.0705252
-0.00579722
0.0693551
-0.00696072
0.0680175
-0.0083395
0.0664803
-0.0100513
0.0647706
-0.0121309
0.0628271
-0.0148606
0.0607897
-0.0182335
0.0585777
-0.0230632
0.0568252
-0.0291095
0.0559887
-0.0391648
0.0616821
-0.0536028
0.0580293
-0.0656007
0.07686
-0.0250076
0.0773251
-0.0244667
0.0778011
-0.0233422
0.0782705
-0.0217655
0.0787172
-0.0198578
0.0791321
-0.0177503
0.0795092
-0.0155331
0.0798479
-0.0132738
0.0801484
-0.0110321
-0.00881409
0.0804095
0.0777409
-0.0255723
0.0783138
-0.0250396
0.0788646
-0.0238929
0.0793724
-0.0222733
0.0798252
-0.0203107
0.0802199
-0.018145
0.0805576
-0.0158707
0.0808432
-0.0135594
0.0810803
-0.0112692
-0.00901007
0.0812762
0.0787679
-0.0263043
0.0794843
-0.025756
0.0801457
-0.0245543
0.0807283
-0.0228559
0.0812225
-0.0208049
0.0816302
-0.0185528
0.0819583
-0.0161988
0.0822168
-0.0138178
0.082413
-0.0114654
-0.00915449
0.0825574
0.0798297
-0.0272192
0.0807034
-0.0266297
0.0814873
-0.0253381
0.0821555
-0.0235242
0.0827018
-0.0213512
0.0831346
-0.0189855
0.083467
-0.0165312
0.0837143
-0.0140652
0.0838871
-0.0116381
-0.0092659
0.0839985
0.080915
-0.0283328
0.0819568
-0.0276716
0.0828696
-0.0262509
0.0836259
-0.0242805
0.0842246
-0.0219498
0.0846822
-0.0194431
0.0850199
-0.0168689
0.0852586
-0.0143039
0.0854123
-0.0117919
-0.00935142
0.0854978
0.0820269
-0.0296647
0.0832486
-0.0288933
0.084296
-0.0272983
0.0851399
-0.0251244
0.085787
-0.0225969
0.0862646
-0.0199207
0.0866031
-0.0172075
0.0868296
-0.0145303
0.0869619
-0.0119242
-0.0094101
0.0870206
0.0831708
-0.0312396
0.0845857
-0.0303082
0.0857729
-0.0284855
0.0867016
-0.0260531
0.0873904
-0.0232858
0.0878803
-0.0204105
0.0882128
-0.01754
0.08842
-0.0147375
0.0885246
-0.0120288
-0.00943592
0.0885504
0.0843522
-0.0330867
0.0859751
-0.031931
0.0873071
-0.0298175
0.0883149
-0.0270609
0.0890363
-0.0240073
0.0895282
-0.0209025
0.0898443
-0.017856
0.0900202
-0.0149134
0.0900851
-0.0120937
-0.00941584
0.0900651
0.0855754
-0.0352395
0.0874241
-0.0337797
0.0889063
-0.0312997
0.0899848
-0.0281394
0.090726
-0.0247485
0.0912041
-0.0213805
0.0914846
-0.0181365
0.0916058
-0.0150347
0.0916061
-0.0120941
-0.00932242
0.0915127
0.0868425
-0.0377323
0.0889436
-0.0358808
0.090583
-0.0329391
0.0917183
-0.0292747
0.0924564
-0.0254866
0.0928876
-0.0218117
0.0930902
-0.0183391
0.0931062
-0.0150506
0.0929901
-0.011978
-0.00910119
0.0927688
0.0881531
-0.0405967
0.0905566
-0.0382843
0.0923582
-0.0347406
0.0935164
-0.030433
0.0941949
-0.0261651
0.0944996
-0.0221163
0.0945291
-0.0183686
0.0943375
-0.0148591
0.0940066
-0.0116471
-0.0086572
0.0935626
0.0895096
-0.0438642
0.0923129
-0.0410876
0.0942469
-0.0366747
0.095325
-0.031511
0.095797
-0.0266371
0.0957962
-0.0221155
0.0954635
-0.018036
0.0948845
-0.0142801
0.0941815
-0.0109441
-0.00785388
0.0933782
0.0909636
-0.047615
0.0942795
-0.0444036
0.096167
-0.0385622
0.096887
-0.032231
0.0968251
-0.0265752
0.0961806
-0.021471
0.0951777
-0.0170331
0.0939575
-0.0130599
0.0926871
-0.00967362
-0.0065475
0.0913807
0.0926205
-0.0520302
0.0964014
-0.0481845
0.097675
-0.0398359
0.0974498
-0.0320057
0.0962687
-0.0253941
0.0944831
-0.0196855
0.0924359
-0.0149859
0.0903277
-0.0109517
0.0883481
-0.00769402
-0.00467847
0.0864791
0.0944962
-0.0572687
0.0980606
-0.0517489
0.0975085
-0.0392837
0.0953844
-0.0298817
0.0923205
-0.0223302
0.0889103
-0.0162752
0.0855855
-0.0116611
0.0825492
-0.0079155
0.0799488
-0.00509361
-0.00240919
0.0776795
0.095932
-0.0626991
0.0973345
-0.0531514
0.0931437
-0.0350929
0.0880791
-0.0248171
0.0826081
-0.0168591
0.0775465
-0.0112137
0.073225
-0.00733955
0.0697028
-0.00439335
0.0669777
-0.00236851
-0.000208777
0.0647773
0.0944469
-0.065296
0.0904524
-0.0491569
0.0810172
-0.0256577
0.0728394
-0.0166394
0.0654641
-0.00948374
0.0597899
-0.00553948
0.0555719
-0.00312158
0.0525607
-0.00138216
0.0505147
-0.000322461
0.00132302
0.0489829
0.0849378
-0.0589254
0.0725147
-0.0367338
0.0585737
-0.0117167
0.0492359
-0.00730159
0.0424337
-0.00268151
0.0382445
-0.00135031
0.0355818
-0.000458852
0.034022
0.000177672
0.0331885
0.000511044
0.00187617
0.0326353
0.0610312
-0.037074
0.0411668
-0.0168695
0.0290729
0.000377287
0.0228533
-0.001082
0.0197796
0.000392147
0.0183027
0.000126617
0.0175926
0.000251248
0.017434
0.000336312
0.0175496
0.000395422
0.00146125
0.0179645
0.0209553
0.00408581
0.0044631
0.0033811
0.00377325
0.00389986
0.00415111
0.00448742
0.00488285
0.00634409
0.0807502
-0.00947068
0.0810272
-0.00457436
0.0812007
-0.000231159
0.0813582
0.00384122
0.0814586
0.00718508
0.0815234
0.0101878
0.08157
0.0123514
0.0816012
0.0141026
0.0816332
0.0153044
0.0816679
0.0160631
0.0817071
0.0169812
0.0817559
0.0173199
0.0817951
0.0186795
0.0818369
0.0190857
0.0818524
0.0211163
0.0818593
0.021644
0.0818373
0.0239029
0.0818037
0.0242587
0.081749
0.0258625
0.025842
0.0815043
-0.00969878
0.0816559
-0.00472588
0.081759
-0.000334305
0.0817985
0.00380169
0.0818059
0.00717776
0.0817873
0.0102064
0.0817655
0.0123731
0.0817438
0.0141243
0.0817412
0.015307
0.0817538
0.0160506
0.0817828
0.0169522
0.0818271
0.0172756
0.0818627
0.0186439
0.0819001
0.0190483
0.0819068
0.0211096
0.0819016
0.0216491
0.081866
0.0239384
0.0818182
0.0243066
0.081753
0.0259277
0.0259057
0.0826876
-0.00982891
0.0827358
-0.00477414
0.0827118
-0.000310267
0.082629
0.00388449
0.0825062
0.00730049
0.0823637
0.0103489
0.0822308
0.012506
0.0821159
0.0142392
0.0820439
0.015379
0.0820068
0.0160876
0.0820051
0.0169539
0.0820307
0.01725
0.0820494
0.0186251
0.0820719
0.0190258
0.0820543
0.0211272
0.0820222
0.0216813
0.0819543
0.0240063
0.081875
0.0243859
0.0817809
0.0260217
0.0259928
0.0840618
-0.00989217
0.0840292
-0.00474153
0.0839065
-0.000187622
0.0837123
0.00407873
0.0834649
0.00754784
0.0831948
0.010619
0.0829402
0.0127607
0.082716
0.0144633
0.082558
0.0155371
0.0824539
0.0161917
0.0824076
0.0170002
0.0824015
0.0172561
0.082392
0.0186347
0.082388
0.0190297
0.082331
0.0211843
0.082256
0.0217563
0.0821348
0.0241275
0.0820049
0.0245158
0.0818597
0.0261669
0.0261176
0.0855083
-0.00990265
0.0854134
-0.0046466
0.0852133
1.24994e-05
0.0849266
0.00436534
0.0845711
0.00790343
0.0841858
0.0110043
0.0838171
0.0131294
0.0834868
0.0147936
0.0832434
0.0157805
0.0830698
0.0163653
0.0829772
0.0170928
0.0829364
0.0172969
0.082895
0.018676
0.08286
0.0190647
0.0827537
0.0212906
0.0826249
0.0218851
0.0824322
0.0243202
0.0822342
0.0247138
0.0820159
0.0263852
0.0262966
0.0869792
-0.00986124
0.0868275
-0.00449492
0.0865577
0.000282294
0.0861881
0.00473494
0.0857349
0.00835665
0.085246
0.0114932
0.0847741
0.0136012
0.0843475
0.0152203
0.0840284
0.0160996
0.0837929
0.0166008
0.0836634
0.0172223
0.0835947
0.0173656
0.0835286
0.0187422
0.0834681
0.0191251
0.0833122
0.0214465
0.083128
0.0220693
0.082853
0.0245952
0.0825756
0.0249912
0.0822665
0.0266943
0.0265451
0.0884488
-0.00975959
0.0882349
-0.00428111
0.0878903
0.000626945
0.0874353
0.00518992
0.0868843
0.00890767
0.0862951
0.0120824
0.0857255
0.0141708
0.0852109
0.0157349
0.0848267
0.0164838
0.0845405
0.016887
0.0843889
0.0173739
0.0843063
0.0174481
0.0842315
0.018817
0.0841609
0.0191958
0.0839659
0.0216414
0.0837363
0.0222989
0.0833787
0.0249528
0.0830204
0.0253495
0.0826106
0.0271041
0.0268743
0.0898829
-0.00957743
0.0895891
-0.00398733
0.0891528
0.00106324
0.0885987
0.00574402
0.0879399
0.00956646
0.0872458
0.0127766
0.086577
0.0148396
0.0859785
0.0163334
0.0855368
0.0169255
0.0852108
0.017213
0.085054
0.0175307
0.084975
0.0175271
0.0849146
0.0188775
0.0848573
0.0192531
0.0846446
0.0218541
0.0843915
0.022552
0.0839634
0.0253809
0.0835341
0.0257788
0.0830247
0.0276135
0.0272874
0.0912087
-0.00927345
0.0907994
-0.003578
0.0902409
0.00162174
0.0895642
0.0064207
0.0887815
0.0103491
0.0879738
0.0135843
0.0872013
0.0156122
0.0865217
0.017013
0.0860284
0.0174188
0.0856737
0.0175676
0.0855299
0.0176745
0.0854745
0.0175825
0.0854581
0.0188939
0.0854451
0.0192661
0.0852473
0.0220519
0.0850051
0.0227942
0.0845319
0.0258541
0.084055
0.0262557
0.08346
0.0282085
0.0277785
0.0922678
-0.00877239
0.0916837
-0.00299387
0.0909585
0.00234693
0.090131
0.00724814
0.08921
0.0112701
0.0882848
0.0145095
0.0874093
0.0164876
0.0866573
0.0177651
0.0861217
0.0179543
0.0857544
0.017935
0.0856454
0.0177835
0.0856387
0.0175892
0.0857045
0.0188281
0.0857757
0.019195
0.085639
0.0221885
0.0854562
0.0229771
0.0849791
0.0263311
0.084493
0.0267418
0.0838408
0.0288607
0.0283303
0.0927473
-0.00795707
0.0919079
-0.00215443
0.0909675
0.00328732
0.0899703
0.00824537
0.0889135
0.0123269
0.0878858
0.0155372
0.086927
0.0174465
0.0861279
0.0185642
0.0855719
0.0185103
0.0852197
0.0182873
0.085176
0.0178272
0.0852528
0.0175124
0.0854514
0.0186295
0.0856589
0.0189875
0.0856475
0.0221999
0.0855894
0.0230351
0.0851685
0.026752
0.0847294
0.0271809
0.0840646
0.0295255
0.0289128
0.0921046
-0.00668351
0.090933
-0.000982806
0.089754
0.00446633
0.0886052
0.00939419
0.087457
0.0134751
0.0863812
0.016613
0.0853946
0.018433
0.0846033
0.0193555
0.0840713
0.0190423
0.0837818
0.0185768
0.0838474
0.0177617
0.0840577
0.0173021
0.0844545
0.0182327
0.0848661
0.0185759
0.0850652
0.0220008
0.0852168
0.0228835
0.0849341
0.0270347
0.0846182
0.0274969
0.0840038
0.0301399
0.0294816
0.0895416
-0.00484434
0.088023
0.000535738
0.0866594
0.00582996
0.085454
0.0105996
0.0843294
0.0145997
0.083319
0.0176234
0.0824107
0.0193413
0.0817201
0.020046
0.0812861
0.0194764
0.081131
0.0187318
0.0813654
0.0175273
0.0817767
0.0168908
0.082451
0.0175583
0.08315
0.0178769
0.0836655
0.0214853
0.0841297
0.0224193
0.0840903
0.0270741
0.0839934
0.0275938
0.0835118
0.0306215
0.029978
0.0841274
-0.00249262
0.0823962
0.00226692
0.081038
0.00718811
0.07998
0.0116576
0.0790774
0.0155023
0.0783076
0.0183932
0.0776325
0.0200164
0.0771684
0.0205101
0.0769331
0.0197117
0.0770028
0.0186621
0.0774771
0.017053
0.0781707
0.0161972
0.0792076
0.0165214
0.0802869
0.0167976
0.0812364
0.0205358
0.0821261
0.0215295
0.0824528
0.0267474
0.0826852
0.0273614
0.0824356
0.0308711
0.030331
0.0751569
3.00747e-05
0.0735778
0.00384602
0.0725602
0.0082057
0.0719459
0.0122719
0.0715131
0.0159351
0.0711859
0.0187204
0.0709148
0.0202875
0.0708085
0.0206165
0.0708807
0.0196395
0.0712663
0.0182765
0.0720517
0.0162676
0.0731097
0.0151392
0.0745844
0.0150468
0.0761342
0.0152477
0.0776286
0.0190414
0.0790513
0.0201068
0.0798709
0.0259279
0.0805448
0.0266876
0.0806355
0.0307804
0.0304635
0.0627273
0.00208002
0.0618218
0.00475159
0.0615395
0.00848801
0.0616513
0.01216
0.0618915
0.0156949
0.0621597
0.0184522
0.0624192
0.020028
0.0627633
0.0202724
0.0632289
0.0191738
0.0639961
0.0175093
0.0651482
0.0151155
0.0666352
0.0136522
0.0685942
0.0130878
0.0706845
0.0131574
0.0728033
0.0169225
0.0748411
0.0180691
0.0762635
0.0245054
0.077475
0.0254761
0.0780101
0.0302453
0.0303016
0.0480845
0.00297841
0.0482986
0.00453749
0.048996
0.00779064
0.0499442
0.0112118
0.0509043
0.0147349
0.0517963
0.0175601
0.0526128
0.0192115
0.053427
0.0194582
0.054323
0.0182778
0.0554913
0.016341
0.0570388
0.013568
0.0589821
0.0117089
0.061429
0.0106409
0.0640921
0.0104943
0.0668593
0.0141553
0.0695514
0.015377
0.0716463
0.0224105
0.0734567
0.0236657
0.0745199
0.0291821
0.0297885
0.0332454
0.00236833
0.0346968
0.00308611
0.0362918
0.00619558
0.037925
0.00957862
0.039457
0.0132028
0.0408614
0.0161558
0.0421529
0.01792
0.0433843
0.0182268
0.0446921
0.01697
0.0462334
0.0147997
0.0481747
0.0116267
0.050551
0.00933261
0.0534442
0.00774772
0.0566613
0.00727725
0.0600313
0.0107853
0.0633636
0.0120447
0.0661404
0.0196337
0.0685628
0.0212432
0.0702016
0.0275434
0.028896
0.02015
0.000182832
0.022506
0.000730142
0.0245937
0.0041079
0.0265612
0.00761112
0.0283957
0.0113683
0.0301174
0.0144341
0.0317375
0.0162998
0.0332938
0.0166705
0.0349531
0.0153107
0.0368097
0.0129431
0.0391137
0.00932265
0.0418492
0.0065972
0.0451097
0.00448712
0.0488028
0.00358423
0.0526628
0.0069252
0.0565643
0.00814328
0.0599623
0.0162356
0.0629583
0.0182473
0.0651707
0.0253309
0.0276328
0.0100844
-0.00355749
0.0125555
-0.00174097
0.0145829
0.0020805
0.0164977
0.00569633
0.0183657
0.00950029
0.020208
0.0125918
0.0220096
0.0144982
0.0237963
0.0148838
0.025731
0.0133761
0.0278388
0.0108353
0.0304453
0.00671609
0.0334322
0.00361031
0.0369526
0.000966715
0.040986
-0.00044912
0.0451687
0.00274246
0.049513
0.00379898
0.053407
0.0123417
0.0568848
0.0147695
0.0596167
0.022599
0.0260464
0.00331204
-0.00686953
0.00461486
-0.00304378
0.00586088
0.000834475
0.00715057
0.00440664
0.00854301
0.00810784
0.0100022
0.0111326
0.0115028
0.0129976
0.013042
0.0133447
0.0147433
0.0116748
0.016567
0.00901162
0.0188077
0.00447536
0.0212999
0.00111815
0.0241989
-0.0019323
0.0275498
-0.00380006
0.0309715
-0.000679207
0.0346419
0.0001286
0.0379986
0.00898499
0.0410019
0.0117661
0.0435171
0.0200838
0.0246255
0.000538976
-0.00740851
0.000933122
-0.00343793
0.00172219
4.54039e-05
0.00273417
0.00339466
0.00398928
0.00685273
0.00539963
0.00972226
0.0069245
0.0114727
0.00854747
0.0117217
0.0103567
0.00986551
0.0122954
0.00707293
0.014628
0.00214278
0.0171503
-0.00140417
0.0200672
-0.00484915
0.0233883
-0.00712115
0.0267914
-0.00408232
0.0305028
-0.00358284
0.0339476
0.00554023
0.0370859
0.00862781
0.0397849
0.0173847
0.0230836
-0.00132544
-0.00608307
-0.00171255
-0.00305082
-0.00140255
-0.000264593
-0.000656567
0.00264868
0.000466715
0.00572945
0.00181907
0.0083699
0.00336536
0.00992643
0.00506717
0.0100199
0.00697297
0.00795971
0.00901868
0.00502722
0.0113966
-0.000235176
0.0139042
-0.00391176
0.0167644
-0.00770928
0.0199314
-0.0102882
0.0232158
-0.00736679
0.0268245
-0.00719149
0.0302322
0.00213251
0.0334101
0.00544993
0.0361889
0.0146059
0.0214432
-0.00246656
-0.00361651
-0.00344485
-0.00207252
-0.00351197
-0.000197478
-0.00296294
0.00209965
-0.00195176
0.00471826
-0.000624656
0.0070428
0.000960064
0.00834171
0.00274612
0.00823385
0.004748
0.00595784
0.00689437
0.00288084
0.00927861
-0.00261941
0.0117372
-0.00637036
0.0144633
-0.0104354
0.0173687
-0.0131936
0.0204349
-0.0104329
0.0237908
-0.0105475
0.0270401
-0.00111674
0.0301437
0.0023463
0.0329031
0.0118465
0.0197243
-0.00301565
-0.000600856
-0.00431782
-0.000770356
-0.00458853
7.32315e-05
-0.00414993
0.00166105
-0.00318673
0.00375507
-0.00185176
0.00570783
-0.000202126
0.00669207
0.0016835
0.00634822
0.00378617
0.00385517
0.00602679
0.000640216
0.00839064
-0.00498326
0.0107727
-0.00875248
0.0132972
-0.0129598
0.0158587
-0.0157551
0.0186142
-0.0131884
0.021576
-0.0135092
0.0245545
-0.00409526
0.0274659
-0.000565137
0.030112
0.00920052
0.017937
-0.0030346
0.00243375
-0.00434923
0.000544274
-0.00462968
0.000353676
-0.00419569
0.00122706
-0.00320979
0.00276917
-0.0018216
0.00431964
-8.07093e-05
0.00495117
0.00192238
0.00434513
0.0041303
0.00164725
0.00645531
-0.00168479
0.00878336
-0.00731131
0.0110669
-0.011036
0.0133403
-0.0152332
0.0155095
-0.0179243
0.0178756
-0.0155545
0.0203302
-0.0159639
0.0229381
-0.0067032
0.0255485
-0.00317549
0.027999
0.00674996
0.0160879
-0.00251842
0.00495216
-0.00353782
0.00156368
-0.00363648
0.000452331
-0.00310336
0.000693945
-0.00202722
0.00169303
-0.000542799
0.00283522
0.00131353
0.00309485
0.0034427
0.00221596
0.00575047
-0.000660524
0.00814969
-0.00408401
0.010431
-0.00959265
0.0125971
-0.0132021
0.0146009
-0.017237
0.0163564
-0.0196798
0.0182794
-0.0174775
0.020157
-0.0178414
0.022318
-0.00886417
0.0245342
-0.0053917
0.0267244
0.00455978
0.0141878
-0.00139288
0.00634505
-0.00185978
0.00203058
-0.00161273
0.000205284
-0.000898746
-2.00366e-05
0.000320814
0.000473469
0.00193017
0.00122586
0.00391269
0.00111233
0.00616343
-3.47844e-05
0.00855538
-0.00305247
0.0110057
-0.00653438
0.0132319
-0.0118188
0.0152645
-0.0152346
0.0170033
-0.0189758
0.0183522
-0.0210287
0.0198171
-0.0189424
0.0210954
-0.0191198
0.0227614
-0.0105302
0.0245195
-0.00714983
0.0264018
0.00267752
0.0122598
0.00049345
0.00585159
0.000744325
0.0017797
0.00142898
-0.000479374
0.00237897
-0.00097002
0.00376012
-0.000907684
0.00550761
-0.000521626
0.00760431
-0.000984372
0.00995488
-0.00238535
0.0124002
-0.00549775
0.0148638
-0.00899806
0.0170208
-0.0139758
0.0189039
-0.0171177
0.0203947
-0.0204665
0.0213723
-0.0220063
0.0223977
-0.0199678
0.0231062
-0.0198283
0.0242634
-0.0116874
0.0255366
-0.00842308
0.0270819
0.00113221
0.0103426
0.00333966
0.00251194
0.00441655
0.000702806
0.00548916
-0.00155198
0.0066827
-0.00216356
0.00821245
-0.00243743
0.0100737
-0.00238292
0.0122485
-0.00315911
0.0146542
-0.00479109
0.0171061
-0.00794961
0.0195268
-0.0114187
0.0215887
-0.0160377
0.0233061
-0.0188352
0.0245625
-0.0217229
0.0252285
-0.0226724
0.0258534
-0.0205927
0.026072
-0.0200469
0.0267401
-0.0123555
0.0275454
-0.00922833
0.0287423
-6.47801e-05
0.0084817
0.012341
-0.00136327
-0.00846584
0.0147048
-0.00166091
0.0166495
-0.00349674
0.0186473
-0.00416132
0.0209795
-0.00476963
0.0237285
-0.00513194
0.0268615
-0.00629208
0.0302509
-0.0081805
0.0336598
-0.0113585
0.0368987
-0.0146577
0.039603
-0.018742
0.041743
-0.0209752
0.0431138
-0.0230937
0.0436686
-0.0232272
0.0439282
-0.0208522
0.0436157
-0.0197343
0.0437912
-0.0125311
0.0442363
-0.00967347
0.0453681
-0.00119655
0.00599712
0.0265346
-0.00291766
-0.0249802
0.0283319
-0.00345818
0.0300361
-0.00520097
0.0319176
-0.00604273
0.0340966
-0.00694872
0.0366746
-0.00770991
0.0395834
-0.0092009
0.0426875
-0.0112846
0.0457625
-0.0144335
0.0485675
-0.0174627
0.0508517
-0.0210263
0.0525279
-0.0226514
0.0534568
-0.0240226
0.0536321
-0.0234025
0.0534013
-0.0206215
0.0526218
-0.0189548
0.0521646
-0.0120738
0.0519768
-0.00948567
0.0525571
-0.00177688
0.00390237
0.0448713
-0.00230175
-0.0454872
0.0452059
-0.00379282
0.0459414
-0.0059364
0.0471493
-0.00725068
0.0487576
-0.00855705
0.0508046
-0.00975685
0.053184
-0.0115803
0.0557154
-0.013816
0.0582068
-0.0169249
0.0603766
-0.0196325
0.0620676
-0.0227172
0.0631921
-0.0237759
0.0636475
-0.0244779
0.0635151
-0.0232701
0.0629674
-0.0200737
0.0619938
-0.0179813
0.0612069
-0.0112868
0.0606676
-0.00894637
0.0608553
-0.0019646
0.00223771
0.0646009
8.83361e-05
-0.066991
0.0633985
-0.00259041
0.0628868
-0.00542473
0.0630812
-0.0074451
0.0638228
-0.00929857
0.0650548
-0.0109889
0.0666551
-0.0131805
0.0683852
-0.0155461
0.070091
-0.0186307
0.0714871
-0.0210286
0.0724596
-0.0236896
0.0729833
-0.0242996
0.0729439
-0.0244386
0.0725393
-0.0228655
0.0717925
-0.0193269
0.0708054
-0.0169942
0.0699537
-0.0104352
0.0693239
-0.0083166
0.0693327
-0.00197334
0.000948944
0.0821001
0.00327549
-0.0852873
0.0799656
-0.000455841
0.078523
-0.00398218
0.0778037
-0.0067258
0.0776889
-0.00918372
0.0780584
-0.0113585
0.0788061
-0.0139282
0.0796702
-0.0164102
0.080521
-0.0194815
0.0811244
-0.0216321
0.0813634
-0.0239286
0.0813111
-0.0242473
0.0808164
-0.0239439
0.0801757
-0.0222248
0.0793155
-0.0184667
0.0784023
-0.016081
0.0776635
-0.00969631
0.0771239
-0.00777707
0.0771485
-0.00199796
-7.71317e-05
0.0947525
0.00622576
-0.0977028
0.0924919
0.00180476
0.0907237
-0.00221404
0.0895121
-0.00551412
0.0888257
-0.00849734
0.0885368
-0.0110695
0.088571
-0.0139624
0.0886947
-0.016534
0.08879
-0.0195768
0.0887144
-0.0215565
0.0883301
-0.0235444
0.0878072
-0.0237243
0.0869635
-0.0231002
0.0861485
-0.0214098
0.085251
-0.0175692
0.0844439
-0.015274
0.0839036
-0.00915607
0.0835425
-0.00741589
0.0837058
-0.00216131
-0.00095598
0.102157
0.0084265
-0.104358
0.100285
0.00367686
0.0986755
-0.000604844
0.0973954
-0.00423396
0.0964844
-0.00758643
0.0958407
-0.0104258
0.0954154
-0.0135371
0.0950369
-0.0161555
0.0945918
-0.0191316
0.0940376
-0.0210024
0.0932219
-0.0227286
0.0923828
-0.0228852
0.0913328
-0.0220502
0.090424
-0.0205009
0.0895589
-0.0167041
0.0888669
-0.014582
0.0885417
-0.00883089
0.088376
-0.00725017
0.0887167
-0.00250198
-0.00177326
0.105461
0.00985287
-0.106887
0.104117
0.00502128
0.102874
0.000638219
0.101765
-0.00312567
0.100871
-0.00669218
0.100121
-0.00967536
0.0994761
-0.0128925
0.0988342
-0.0155136
0.0980827
-0.0183801
0.097261
-0.0201807
0.0962163
-0.0216839
0.0952166
-0.0218856
0.0940964
-0.0209299
0.0931712
-0.0195757
0.0923902
-0.0159231
0.0918132
-0.014005
0.091677
-0.00869471
0.0916827
-0.00725585
0.0921794
-0.00299866
-0.00256756
0.106176
0.0106987
-0.107022
0.105284
0.00591324
0.1044
0.00152255
0.103533
-0.00225865
0.10276
-0.00591933
0.102042
-0.00895725
0.10134
-0.0121903
0.100607
-0.0147806
0.0997329
-0.0175065
0.0988091
-0.0192568
0.0976961
-0.020571
0.0966573
-0.0208467
0.0955674
-0.0198401
0.0946834
-0.0186917
0.0940123
-0.015252
0.0935439
-0.0135366
0.0935516
-0.00870238
0.0936865
-0.00739076
0.0942865
-0.00359864
-0.00334347
0.105501
0.0111768
-0.105979
0.104923
0.00649049
0.104308
0.00213754
0.103655
-0.00160584
0.103019
-0.005283
0.102384
-0.00832249
0.101708
-0.0115136
0.100981
-0.0140538
0.1001
-0.0166262
0.0991784
-0.0183348
0.0980998
-0.0194924
0.0970991
-0.019846
0.0960979
-0.0188389
0.0952886
-0.0178824
0.0947303
-0.0146937
0.0943585
-0.0131647
0.0944615
-0.00880543
0.0946799
-0.00760917
0.0953248
-0.00424355
-0.0040872
0.104175
0.0114406
-0.104439
0.103795
0.00687009
0.103359
0.00257412
0.102864
-0.00111115
0.102342
-0.00476117
0.101795
-0.00777484
0.101175
-0.0108938