x,y,z,U_0,U_1,U_2
0,0,0,2.99992,-0.00915915,0
0,0.1,0,2.99995,-0.00549549,0
0,0.2,0,2.99998,-0.00183183,0
0,0.3,0,3,0,0
0,0.4,0,3,0,0
0,0.5,0,3,0,0
0,0.6,0,3,0,0
0,0.7,0,3,0,0
0,0.8,0,3,0,0
0,0.9,0,3,0,0
0,1,0,3,0,0
0,1.1,0,3,0,0
0,1.2,0,3,0,0
0,1.3,0,3,0,0
0,1.4,0,3,0,0
0,1.5,0,3,0,0
0,1.6,0,3,0,0
0,1.7,0,3,0,0
0,1.8,0,3,0,0
0,1.9,0,3,0,0
0,2,0,3,0,0
0,2.1,0,3,0,0
0,2.2,0,3,0,0
0,2.3,0,3,0,0
0,2.4,0,3,0,0
0,2.5,0,3,0,0
0,2.6,0,3,0,0
0,2.7,0,3,0,0
0,2.8,0,3,0,0
0,2.9,0,3,0,0
0,3,0,3,0,0
0,3.1,0,3,0,0
0,3.2,0,3,0,0
0,3.3,0,3,0,0
0,3.4,0,3,0,0
0,3.5,0,3,0,0
0,3.6,0,3,0,0
0,3.7,0,3,0,0
0,3.8,0,3,0,0
0,3.9,0,3,0,0
0,4,0,3,0,0
0,4.1,0,3,0,0
0,4.2,0,3,0,0
0,4.3,0,3,0,0
0,4.4,0,3,0,0
0,4.5,0,3,0,0
0,4.6,0,3,0,0
0,4.7,0,3,0,0
0,4.8,0,3,0,0
0,4.9,0,3,0,0
0,5,0,3,0,0
0,5.1,0,3,0,0
0,5.2,0,3,0,0
0,5.3,0,3,0,0
0,5.4,0,3,0,0
0,5.5,0,3,0,0
0,5.6,0,3,0,0
0,5.7,0,3,0,0
0,5.8,0,3,0,0
0,5.9,0,3,0,0
0,6,0,3,0,0
0,6.1,0,3,0,0
0,6.2,0,3,0,0
0,6.3,0,3,0,0
0,6.4,0,3,0,0
0,6.5,0,3,0,0
0,6.6,0,3,0,0
0,6.7,0,3,0,0
0,6.8,0,3,0,0
0,6.9,0,3,0,0
0,7,0,3,0,0
0,7.1,0,3,0,0
0,7.2,0,3,0,0
0,7.3,0,3,0,0
0,7.4,0,3,0,0
0,7.5,0,3,0,0
0,7.6,0,3,0,0
0,7.7,0,3,0,0
0,7.8,0,3,0,0
0,7.9,0,3,0,0
0,8,0,3,0,0
0,8.1,0,3,0,0
0,8.2,0,3,0,0
0,8.3,0,3,0,0
0,8.4,0,3,0,0
0,8.5,0,3,0,0
0,8.6,0,3,0,0
0,8.7,0,3,0,0
0,8.8,0,3,0,0
0,8.9,0,3,0,0
0,9,0,3,0,0
0,9.1,0,3,0,0
0,9.2,0,3,0,0
0,9.3,0,3,0,0
0,9.4,0,3,0,0
0,9.5,0,3,0,0
0,9.6,0,3,0,0
0,9.7,0,3,0,0
0,9.8,0,3,0,0
0,9.9,0,3,0,0
0,10,0,3,0,0
0,10.1,0,3,0,0
0,10.2,0,3,0,0
0,10.3,0,3,0,0
0,10.4,0,3,0,0
0,10.5,0,3,0,0
0,10.6,0,3,0,0
0,10.7,0,3,0,0
0,10.8,0,3,0,0
0,10.9,0,3,0,0
0,11,0,3,0,0
0,11.1,0,3,0,0
0,11.2,0,3,0,0
0,11.3,0,3,0,0
0,11.4,0,3,0,0
0,11.5,0,3,0,0
0,11.6,0,3,0,0
0,11.7,0,3,0,0
0,11.8,0,3,0,0
0,11.9,0,3,0,0
0,12,0,3,0,0
0,12.1,0,3,0,0
0,12.2,0,3,0,0
0,12.3,0,3,0,0
0,12.4,0,3,0,0
0,12.5,0,3.00001,0.00180036,0
0,12.6,0,3.00002,0.00391843,0
0,12.7,0,3.00003,0.0060365,0
0.1,0,0,2.99996,-0.020185,0
0.1,0.1,0,2.99985,-0.0164865,0
0.1,0.2,0,2.99994,-0.0146708,0
0.1,0.3,0,2.99993,-0.0146878,0
0.1,0.4,0,2.99985,-0.0146886,0
0.1,0.5,0,3,-0.0146737,0
0.1,0.6,0,3.00014,-0.0146803,0
0.1,0.7,0,3.00007,-0.0146688,0
0.1,0.8,0,2.99996,-0.0146631,0
0.1,0.9,0,2.99993,-0.014669,0
0.1,1,0,2.99998,-0.0146496,0
0.1,1.1,0,3.00028,-0.0143478,0
0.1,1.2,0,3.00014,-0.0144701,0
0.1,1.3,0,2.99986,-0.0145293,0
0.1,1.4,0,2.99972,-0.0144663,0
0.1,1.5,0,2.99998,-0.0144677,0
0.1,1.6,0,2.99989,-0.0149576,0
0.1,1.7,0,2.99991,-0.0146729,0
0.1,1.8,0,3.00003,-0.0140893,0
0.1,1.9,0,3.00014,-0.0137905,0
0.1,2,0,2.99992,-0.0142706,0
0.1,2.1,0,2.99975,-0.0143434,0
0.1,2.2,0,2.99983,-0.0141975,0
0.1,2.3,0,2.99999,-0.0138964,0
0.1,2.4,0,3.00007,-0.0137412,0
0.1,2.5,0,2.99986,-0.0137862,0
0.1,2.6,0,2.99978,-0.0135913,0
0.1,2.7,0,2.99979,-0.0135134,0
0.1,2.8,0,3.00002,-0.0132753,0
0.1,2.9,0,3.00022,-0.0131151,0
0.1,3,0,2.99974,-0.0130015,0
0.1,3.1,0,3.00023,-0.0124581,0
0.1,3.2,0,2.99995,-0.0124655,0
0.1,3.3,0,3.00025,-0.0120214,0
0.1,3.4,0,3.00082,-0.0115699,0
0.1,3.5,0,2.99959,-0.0117958,0
0.1,3.6,0,3.00046,-0.0105473,0
0.1,3.7,0,2.99998,-0.0107471,0
0.1,3.8,0,3.00007,-0.0103272,0
0.1,3.9,0,3.00064,-0.00970752,0
0.1,4,0,2.99933,-0.0100407,0
0.1,4.1,0,3.00165,-0.0070244,0
0.1,4.2,0,3.00041,-0.00805555,0
0.1,4.3,0,3.00124,-0.00681347,0
0.1,4.4,0,3.00332,-0.00454023,0
0.1,4.5,0,2.99901,-0.00804167,0
0.1,4.6,0,3.00638,-0.00127684,0
0.1,4.7,0,3.00265,-0.00409139,0
0.1,4.8,0,3.00363,-0.00247343,0
0.1,4.9,0,3.00833,0.00195907,0
0.1,5,0,2.99902,-0.00586483,0
0.1,5.1,0,2.9992,-0.00497771,0
0.1,5.2,0,2.99933,-0.00435538,0
0.1,5.3,0,2.99945,-0.00371722,0
0.1,5.4,0,2.99953,-0.00306192,0
0.1,5.5,0,2.99955,-0.00239224,0
0.1,5.6,0,2.99952,-0.00171293,0
0.1,5.7,0,2.99946,-0.00102909,0
0.1,5.8,0,2.99943,-0.000344124,0
0.1,5.9,0,2.99947,0.000341855,0
0.1,6,0,2.9996,0.00103203,0
0.1,6.1,0,2.99983,0.001731,0
0.1,6.2,0,3.00012,0.00244197,0
0.1,6.3,0,3.00043,0.00316439,0
0.1,6.4,0,3.00071,0.00389354,0
0.1,6.5,0,3.00097,0.00462089,0
0.1,6.6,0,3.0012,0.00533431,0
0.1,6.7,0,3.0014,0.00601759,0
0.1,6.8,0,3.0016,0.00664914,0
0.1,6.9,0,3.0018,0.00719094,0
0.1,7,0,3.00162,0.0080699,0
0.1,7.1,0,3.05186,-0.0300834,0
0.1,7.2,0,3.04401,-0.0240147,0
0.1,7.3,0,3.02379,0.00119791,0
0.1,7.4,0,3.17814,-0.0531276,0
0.1,7.5,0,3.10935,-0.0281838,0
0.1,7.6,0,3.04837,-0.0108466,0
0.1,7.7,0,3.1841,-0.0734156,0
0.1,7.8,0,3.08898,-0.0281092,0
0.1,7.9,0,3.04583,-0.0288337,0
0.1,8,0,3.11562,-0.0947048,0
0.1,8.1,0,3.04027,-0.0227947,0
0.1,8.2,0,3.0297,-0.0439435,0
0.1,8.3,0,3.05684,-0.0979608,0
0.1,8.4,0,3.011,-0.00884885,0
0.1,8.5,0,3.01516,-0.0486133,0
0.1,8.6,0,3.02308,-0.0788976,0
0.1,8.7,0,2.9994,0.00634251,0
0.1,8.8,0,3.00718,-0.0431692,0
0.1,8.9,0,3.00768,-0.0466696,0
0.1,9,0,2.99703,0.0111804,0
0.1,9.1,0,3.00445,-0.0294066,0
0.1,9.2,0,3.00273,-0.0196687,0
0.1,9.3,0,2.99818,0.00781709,0
0.1,9.4,0,3.0032,-0.0110857,0
0.1,9.5,0,3.00101,-0.00159306,0
0.1,9.6,0,2.99927,0.00870434,0
0.1,9.7,0,3.00191,0.0035245,0
0.1,9.8,0,3.00034,0.00755558,0
0.1,9.9,0,2.99994,0.0104778,0
0.1,10,0,3.00099,0.010187,0
0.1,10.1,0,3.00014,0.0105719,0
0.1,10.2,0,3.00017,0.0113694,0
0.1,10.3,0,3.00048,0.0118422,0
0.1,10.4,0,3.00013,0.0109903,0
0.1,10.5,0,3.00017,0.0114152,0
0.1,10.6,0,3.00022,0.0115987,0
0.1,10.7,0,3.00014,0.0107749,0
0.1,10.8,0,3.00012,0.011107,0
0.1,10.9,0,3.00012,0.011045,0
0.1,11,0,3.00013,0.0105509,0
0.1,11.1,0,3.00009,0.0107341,0
0.1,11.2,0,3.0001,0.0105855,0
0.1,11.3,0,3.00011,0.0103144,0
0.1,11.4,0,3.00009,0.0104174,0
0.1,11.5,0,3.00009,0.0102415,0
0.1,11.6,0,3.00009,0.0100843,0
0.1,11.7,0,3.00007,0.0101552,0
0.1,11.8,0,3.00008,0.0099654,0
0.1,11.9,0,3.00007,0.00988387,0
0.1,12,0,3.00006,0.0099292,0
0.1,12.1,0,3.00007,0.00975111,0
0.1,12.2,0,3.00007,0.00974666,0
0.1,12.3,0,3.00007,0.00978384,0
0.1,12.4,0,3.00005,0.0096257,0
0.1,12.5,0,3.00004,0.00961267,0
0.1,12.6,0,3.00005,0.0111157,0
0.1,12.7,0,3.00005,0.0132013,0
0.2,0,0,3,-0.0312109,0
0.2,0.1,0,2.99995,-0.0293604,0
0.2,0.2,0,2.99995,-0.0293579,0
0.2,0.3,0,2.99994,-0.0293748,0
0.2,0.4,0,2.99993,-0.0293615,0
0.2,0.5,0,3.00001,-0.0293474,0
0.2,0.6,0,3.00007,-0.0293425,0
0.2,0.7,0,3.00006,-0.0293259,0
0.2,0.8,0,2.99995,-0.0293203,0
0.2,0.9,0,2.99994,-0.0293126,0
0.2,1,0,2.99997,-0.0292991,0
0.2,1.1,0,3.00012,-0.0291196,0
0.2,1.2,0,3.00013,-0.0290624,0
0.2,1.3,0,2.99985,-0.0291217,0
0.2,1.4,0,2.99983,-0.028997,0
0.2,1.5,0,2.99995,-0.0289354,0
0.2,1.6,0,2.99988,-0.0291406,0
0.2,1.7,0,2.99984,-0.029061,0
0.2,1.8,0,2.99996,-0.0284774,0
0.2,1.9,0,2.99995,-0.0283599,0
0.2,2,0,2.99984,-0.0285411,0
0.2,2.1,0,2.99975,-0.0284681,0
0.2,2.2,0,2.99973,-0.0282491,0
0.2,2.3,0,2.99989,-0.027948,0
0.2,2.4,0,2.99985,-0.0276826,0
0.2,2.5,0,2.99972,-0.0275724,0
0.2,2.6,0,2.99965,-0.0272995,0
0.2,2.7,0,2.9996,-0.0269488,0
0.2,2.8,0,2.99983,-0.0267107,0
0.2,2.9,0,2.99976,-0.0262767,0
0.2,3,0,2.99948,-0.0260029,0
0.2,3.1,0,2.99969,-0.025467,0
0.2,3.2,0,2.99962,-0.0249384,0
0.2,3.3,0,2.99991,-0.0244943,0
0.2,3.4,0,2.99984,-0.0238172,0
0.2,3.5,0,2.99919,-0.0235916,0
0.2,3.6,0,2.99957,-0.0225429,0
0.2,3.7,0,2.99947,-0.021694,0
0.2,3.8,0,2.99956,-0.0212741,0
0.2,3.9,0,2.99939,-0.0203679,0
0.2,4,0,2.99865,-0.0200814,0
0.2,4.1,0,2.99973,-0.0180962,0
0.2,4.2,0,2.99957,-0.0171423,0
0.2,4.3,0,3.00041,-0.0159002,0
0.2,4.4,0,3.00026,-0.0148551,0
0.2,4.5,0,2.99803,-0.0160833,0
0.2,4.6,0,3.00167,-0.0121331,0
0.2,4.7,0,3.00158,-0.0109973,0
0.2,4.8,0,3.00256,-0.00937936,0
0.2,4.9,0,3.00264,-0.00833826,0
0.2,5,0,2.99803,-0.0117297,0
0.2,5.1,0,2.9984,-0.00995543,0
0.2,5.2,0,2.99867,-0.00871075,0
0.2,5.3,0,2.99891,-0.00743445,0
0.2,5.4,0,2.99906,-0.00612384,0
0.2,5.5,0,2.9991,-0.00478449,0
0.2,5.6,0,2.99904,-0.00342585,0
0.2,5.7,0,2.99893,-0.00205818,0
0.2,5.8,0,2.99886,-0.000688248,0
0.2,5.9,0,2.99893,0.000683709,0
0.2,6,0,2.99921,0.00206405,0
0.2,6.1,0,2.99967,0.00346201,0
0.2,6.2,0,3.00025,0.00488394,0
0.2,6.3,0,3.00086,0.00632879,0
0.2,6.4,0,3.00143,0.00778707,0
0.2,6.5,0,3.00194,0.00924178,0
0.2,6.6,0,3.00239,0.0106686,0
0.2,6.7,0,3.00279,0.0120352,0
0.2,6.8,0,3.0032,0.0132983,0
0.2,6.9,0,3.00361,0.0143819,0
0.2,7,0,3.00325,0.0161398,0
0.2,7.1,0,3.03142,-0.00509493,0
0.2,7.2,0,3.03035,-0.00390269,0
0.2,7.3,0,3.0242,0.010627,0
0.2,7.4,0,3.08942,-0.0113668,0
0.2,7.5,0,3.08898,-0.00955065,0
0.2,7.6,0,3.04827,0.000652921,0
0.2,7.7,0,3.09217,-0.0177769,0
0.2,7.8,0,3.0893,-0.0139835,0
0.2,7.9,0,3.04615,-0.0147081,0
0.2,8,0,3.05768,-0.0246586,0
0.2,8.1,0,3.03981,-0.00671895,0
0.2,8.2,0,3.02769,-0.024864,0
0.2,8.3,0,3.02645,-0.0247703,0
0.2,8.4,0,3.00912,0.00733375,0
0.2,8.5,0,3.00903,-0.0170875,0
0.2,8.6,0,3.00807,-0.018242,0
0.2,8.7,0,2.99643,0.021209,0
0.2,8.8,0,3.00038,-0.00750252,0
0.2,8.9,0,3.00006,-0.00895579,0
0.2,9,0,2.9937,0.0243902,0
0.2,9.1,0,2.99774,0.00270777,0
0.2,9.2,0,2.99813,0.00150529,0
0.2,9.3,0,2.99528,0.0196561,0
0.2,9.4,0,2.99781,0.0117515,0
0.2,9.5,0,2.99868,0.0110149,0
0.2,9.6,0,2.99737,0.0197035,0
0.2,9.7,0,2.9988,0.0180597,0
0.2,9.8,0,2.99945,0.0182605,0
0.2,9.9,0,2.99905,0.0211826,0
0.2,10,0,2.99969,0.0211814,0
0.2,10.1,0,2.99991,0.0213142,0
0.2,10.2,0,2.99991,0.0220393,0
0.2,10.3,0,3.00016,0.0220978,0
0.2,10.4,0,3.00019,0.0217994,0
0.2,10.5,0,3.00021,0.0220348,0
0.2,10.6,0,3.00029,0.0219687,0
0.2,10.7,0,3.00028,0.0215086,0
0.2,10.8,0,3.00027,0.0216244,0
0.2,10.9,0,3.00027,0.0214479,0
0.2,11,0,3.00027,0.0210835,0
0.2,11.1,0,3.00024,0.0210547,0
0.2,11.2,0,3.00023,0.0208379,0
0.2,11.3,0,3.00023,0.0205999,0
0.2,11.4,0,3.00021,0.020494,0
0.2,11.5,0,3.0002,0.0202839,0
0.2,11.6,0,3.00019,0.0201302,0
0.2,11.7,0,3.00018,0.0199978,0
0.2,11.8,0,3.00017,0.019807,0
0.2,11.9,0,3.00016,0.0197255,0
0.2,12,0,3.00014,0.0195945,0
0.2,12.1,0,3.00013,0.0194386,0
0.2,12.2,0,3.00014,0.0194134,0
0.2,12.3,0,3.00012,0.0193382,0
0.2,12.4,0,3.0001,0.0192274,0
0.2,12.5,0,3.00009,0.0192053,0
0.2,12.6,0,3.00008,0.0191858,0
0.2,12.7,0,3.00007,0.0203662,0
0.3,0,0,3.00002,-0.0440493,0
0.3,0.1,0,3.0001,-0.0440848,0
0.3,0.2,0,3.00011,-0.0440823,0
0.3,0.3,0,3.00012,-0.0440553,0
0.3,0.4,0,3.00011,-0.044042,0
0.3,0.5,0,3,-0.0439916,0
0.3,0.6,0,2.99991,-0.043988,0
0.3,0.7,0,2.9999,-0.0439715,0
0.3,0.8,0,3.00001,-0.0439542,0
0.3,0.9,0,3,-0.0439466,0
0.3,1,0,2.99994,-0.0439103,0
0.3,1.1,0,2.99979,-0.0440672,0
0.3,1.2,0,2.9998,-0.04401,0
0.3,1.3,0,3.00014,-0.0437294,0
0.3,1.4,0,3.00012,-0.0436048,0
0.3,1.5,0,2.99989,-0.0434372,0
0.3,1.6,0,2.99989,-0.0429796,0
0.3,1.7,0,2.99984,-0.0429001,0
0.3,1.8,0,2.99965,-0.0434427,0
0.3,1.9,0,2.99964,-0.0433252,0
0.3,2,0,2.9997,-0.0428378,0
0.3,2.1,0,2.99985,-0.042451,0
0.3,2.2,0,2.99983,-0.0422321,0
0.3,2.3,0,2.99956,-0.0420867,0
0.3,2.4,0,2.99952,-0.0418213,0
0.3,2.5,0,2.99945,-0.04142,0
0.3,2.6,0,2.99958,-0.0409731,0
0.3,2.7,0,2.99953,-0.0406223,0
0.3,2.8,0,2.99915,-0.0400724,0
0.3,2.9,0,2.99908,-0.0396385,0
0.3,3,0,2.999,-0.039074,0
0.3,3.1,0,2.99888,-0.0385379,0
0.3,3.2,0,2.99881,-0.0380094,0
0.3,3.3,0,2.99833,-0.0372871,0
0.3,3.4,0,2.99826,-0.0366099,0
0.3,3.5,0,2.99845,-0.0354564,0
0.3,3.6,0,2.99824,-0.0348162,0
0.3,3.7,0,2.99814,-0.0339673,0
0.3,3.8,0,2.99775,-0.0325337,0
0.3,3.9,0,2.99758,-0.0316275,0
0.3,4,0,2.9975,-0.0302305,0
0.3,4.1,0,2.99656,-0.0302675,0
0.3,4.2,0,2.9964,-0.0293135,0
0.3,4.3,0,2.99528,-0.0285111,0
0.3,4.4,0,2.99512,-0.0274661,0
0.3,4.5,0,2.99653,-0.0240205,0
0.3,4.6,0,2.99315,-0.0258718,0
0.3,4.7,0,2.99307,-0.024736,0
0.3,4.8,0,2.99208,-0.0239466,0
0.3,4.9,0,2.99217,-0.0229055,0
0.3,5,0,2.99655,-0.0172123,0
0.3,5.1,0,2.99695,-0.0145277,0
0.3,5.2,0,2.99724,-0.0126517,0
0.3,5.3,0,2.9975,-0.0107316,0
0.3,5.4,0,2.99769,-0.0087653,0
0.3,5.5,0,2.99777,-0.00675952,0
0.3,5.6,0,2.99777,-0.00472494,0
0.3,5.7,0,2.99774,-0.00267366,0
0.3,5.8,0,2.99777,-0.000615185,0
0.3,5.9,0,2.99795,0.00144657,0
0.3,6,0,2.99834,0.00351371,0
0.3,6.1,0,2.99891,0.00559134,0
0.3,6.2,0,2.9996,0.0076826,0
0.3,6.3,0,3.00033,0.00978389,0
0.3,6.4,0,3.00104,0.0118832,0
0.3,6.5,0,3.00171,0.0139609,0
0.3,6.6,0,3.00234,0.0159896,0
0.3,6.7,0,3.00296,0.0179346,0
0.3,6.8,0,3.00363,0.0197515,0
0.3,6.9,0,3.00438,0.0213609,0
0.3,7,0,3.0051,0.0238097,0
0.3,7.1,0,2.97534,0.0475331,0
0.3,7.2,0,2.97427,0.0487254,0
0.3,7.3,0,2.97941,0.0361,0
0.3,7.4,0,2.91009,0.0622738,0
0.3,7.5,0,2.90965,0.0640899,0
0.3,7.6,0,2.9534,0.0567983,0
0.3,7.7,0,2.90886,0.0811237,0
0.3,7.8,0,2.91249,0.0817703,0
0.3,7.9,0,2.95563,0.0864868,0
0.3,8,0,2.94256,0.101064,0
0.3,8.1,0,2.95892,0.0846272,0
0.3,8.2,0,2.96851,0.106382,0
0.3,8.3,0,2.96727,0.106476,0
0.3,8.4,0,2.98206,0.0713881,0
0.3,8.5,0,2.97984,0.0966649,0
0.3,8.6,0,2.97888,0.0955104,0
0.3,8.7,0,2.98893,0.0510579,0
0.3,8.8,0,2.98378,0.0791638,0
0.3,8.9,0,2.98346,0.0777105,0
0.3,9,0,2.98981,0.0404946,0
0.3,9.1,0,2.98599,0.0605855,0
0.3,9.2,0,2.98638,0.059383,0
0.3,9.3,0,2.99066,0.0392722,0
0.3,9.4,0,2.98967,0.0453748,0
0.3,9.5,0,2.99054,0.0446381,0
0.3,9.6,0,2.99385,0.0352926,0
0.3,9.7,0,2.99423,0.0359944,0
0.3,9.8,0,2.99533,0.0354114,0
0.3,9.9,0,2.99726,0.0324024,0
0.3,10,0,2.99779,0.0323546,0
0.3,10.1,0,2.99865,0.0325202,0
0.3,10.2,0,2.99939,0.0318062,0
0.3,10.3,0,2.99965,0.0318648,0
0.3,10.4,0,3.0001,0.0323815,0
0.3,10.5,0,3.00025,0.0319893,0
0.3,10.6,0,3.00032,0.0319232,0
0.3,10.7,0,3.00054,0.0322253,0
0.3,10.8,0,3.00044,0.0317503,0
0.3,10.9,0,3.00044,0.0315739,0
0.3,11,0,3.00055,0.0315347,0
0.3,11.1,0,3.00042,0.0311359,0
0.3,11.2,0,3.0004,0.0309192,0
0.3,11.3,0,3.00044,0.0307058,0
0.3,11.4,0,3.00034,0.0303958,0
0.3,11.5,0,3.00033,0.0301857,0
0.3,11.6,0,3.00034,0.029934,0
0.3,11.7,0,3.0003,0.0297071,0
0.3,11.8,0,3.0003,0.0295428,0
0.3,11.9,0,3.00026,0.0293074,0
0.3,12,0,3.00024,0.0291673,0
0.3,12.1,0,3.00024,0.0290718,0
0.3,12.2,0,3.00019,0.0288776,0
0.3,12.3,0,3.00017,0.0288024,0
0.3,12.4,0,3.00015,0.0288175,0
0.3,12.5,0,3.00012,0.0287478,0
0.3,12.6,0,3.0001,0.0287283,0
0.3,12.7,0,3.00009,0.0287822,0
0.4,0,0,3.00001,-0.0587001,0
0.4,0.1,0,3.00018,-0.0587737,0
0.4,0.2,0,3.00009,-0.0587178,0
0.4,0.3,0,3.00011,-0.0586908,0
0.4,0.4,0,3.0002,-0.0586936,0
0.4,0.5,0,2.99998,-0.0586061,0
0.4,0.6,0,2.99981,-0.0586155,0
0.4,0.7,0,2.99986,-0.0585717,0
0.4,0.8,0,2.99997,-0.0585544,0
0.4,0.9,0,3.00001,-0.0585481,0
0.4,1,0,2.9999,-0.0584832,0
0.4,1.1,0,2.99959,-0.0588541,0
0.4,1.2,0,2.99975,-0.0585552,0
0.4,1.3,0,3.00009,-0.0582747,0
0.4,1.4,0,3.00024,-0.0581836,0
0.4,1.5,0,2.9998,-0.0579731,0
0.4,1.6,0,2.99984,-0.0571376,0
0.4,1.7,0,2.9997,-0.0573541,0
0.4,1.8,0,2.99951,-0.0578968,0
0.4,1.9,0,2.99937,-0.0580178,0
0.4,2,0,2.9995,-0.0571605,0
0.4,2.1,0,2.99982,-0.056606,0
0.4,2.2,0,2.99954,-0.0563934,0
0.4,2.3,0,2.99927,-0.056248,0
0.4,2.4,0,2.99914,-0.0558663,0
0.4,2.5,0,2.99905,-0.055329,0
0.4,2.6,0,2.99935,-0.054786,0
0.4,2.7,0,2.99898,-0.0541997,0
0.4,2.8,0,2.9986,-0.0536498,0
0.4,2.9,0,2.99838,-0.0529097,0
0.4,3,0,2.99829,-0.0522148,0
0.4,3.1,0,2.99813,-0.0516711,0
0.4,3.2,0,2.99793,-0.0506011,0
0.4,3.3,0,2.99745,-0.0498788,0
0.4,3.4,0,2.99692,-0.0490201,0
0.4,3.5,0,2.99736,-0.0473901,0
0.4,3.6,0,2.99706,-0.0469586,0
0.4,3.7,0,2.99679,-0.0451498,0
0.4,3.8,0,2.9964,-0.0437162,0
0.4,3.9,0,2.99587,-0.0423758,0
0.4,4,0,2.99586,-0.0404881,0
0.4,4.1,0,2.99414,-0.0415161,0
0.4,4.2,0,2.99452,-0.0384437,0
0.4,4.3,0,2.9934,-0.0376412,0
0.4,4.4,0,2.99156,-0.0376992,0
0.4,4.5,0,2.99453,-0.0318532,0
0.4,4.6,0,2.98786,-0.0366914,0
0.4,4.7,0,2.99109,-0.0310914,0
0.4,4.8,0,2.9901,-0.030302,0
0.4,4.9,0,2.9859,-0.0326581,0
0.4,5,0,2.99457,-0.0223127,0
0.4,5.1,0,2.99487,-0.0186945,0
0.4,5.2,0,2.99507,-0.0161783,0
0.4,5.3,0,2.99525,-0.0136085,0
0.4,5.4,0,2.99541,-0.0109863,0
0.4,5.5,0,2.99557,-0.00831735,0
0.4,5.6,0,2.99573,-0.00561019,0
0.4,5.7,0,2.99592,-0.00287552,0
0.4,5.8,0,2.99617,-0.000124933,0
0.4,5.9,0,2.99653,0.00263045,0
0.4,6,0,2.99699,0.005381,0
0.4,6.1,0,2.99755,0.00811901,0
0.4,6.2,0,2.99818,0.0108379,0
0.4,6.3,0,2.99885,0.0135297,0
0.4,6.4,0,2.99955,0.0161821,0
0.4,6.5,0,3.00028,0.0187781,0
0.4,6.6,0,3.00105,0.0212971,0
0.4,6.7,0,3.00189,0.023716,0
0.4,6.8,0,3.00288,0.0260088,0
0.4,6.9,0,3.00412,0.0281279,0
0.4,7,0,3.00717,0.0310795,0
0.4,7.1,0,2.95577,0.0718002,0
0.4,7.2,0,2.9653,0.0669439,0
0.4,7.3,0,2.98552,0.0432117,0
0.4,7.4,0,2.82274,0.10243,0
0.4,7.5,0,2.8951,0.0775608,0
0.4,7.6,0,2.96025,0.062578,0
0.4,7.7,0,2.8204,0.133187,0
0.4,7.8,0,2.91567,0.0860779,0
0.4,7.9,0,2.95881,0.0907944,0
0.4,8,0,2.88599,0.166633,0
0.4,8.1,0,2.95872,0.0894735,0
0.4,8.2,0,2.96676,0.114582,0
0.4,8.3,0,2.93682,0.17588,0
0.4,8.4,0,2.97998,0.0783274,0
0.4,8.5,0,2.97343,0.120532,0
0.4,8.6,0,2.96366,0.153464,0
0.4,8.7,0,2.98612,0.0601856,0
0.4,8.8,0,2.97686,0.110721,0
0.4,8.9,0,2.97584,0.113891,0
0.4,9,0,2.98689,0.0514601,0
0.4,9.1,0,2.97918,0.0912065,0
0.4,9.2,0,2.98188,0.0807925,0
0.4,9.3,0,2.9881,0.0515226,0
0.4,9.4,0,2.98428,0.0681858,0
0.4,9.5,0,2.98824,0.0587997,0
0.4,9.6,0,2.992,0.0480081,0
0.4,9.7,0,2.99126,0.0511391,0
0.4,9.8,0,2.99436,0.0478117,0
0.4,9.9,0,2.99629,0.0448027,0
0.4,10,0,2.99671,0.0439001,0
0.4,10.1,0,2.99844,0.0442944,0
0.4,10.2,0,2.99917,0.0434436,0
0.4,10.3,0,2.99956,0.0424235,0
0.4,10.4,0,3.00034,0.0436177,0
0.4,10.5,0,3.00046,0.0429839,0
0.4,10.6,0,3.00061,0.0424294,0
0.4,10.7,0,3.00096,0.0430714,0
0.4,10.8,0,3.00079,0.0423702,0
0.4,10.9,0,3.00082,0.041997,0
0.4,11,0,3.00099,0.042062,0
0.4,11.1,0,3.00074,0.041458,0
0.4,11.2,0,3.00077,0.0411395,0
0.4,11.3,0,3.00085,0.0409513,0
0.4,11.4,0,3.0006,0.0404402,0
0.4,11.5,0,3.00066,0.0401883,0
0.4,11.6,0,3.00069,0.0399396,0
0.4,11.7,0,3.00051,0.0395126,0
0.4,11.8,0,3.00056,0.0393706,0
0.4,11.9,0,3.00052,0.0391353,0
0.4,12,0,3.00038,0.0388128,0
0.4,12.1,0,3.0004,0.0387851,0
0.4,12.2,0,3.00034,0.0385578,0
0.4,12.3,0,3.00023,0.0383484,0
0.4,12.4,0,3.00021,0.0384856,0
0.4,12.5,0,3.00016,0.0383796,0
0.4,12.6,0,3.00012,0.03834,0
0.4,12.7,0,3.0001,0.0384495,0
0.5,0,0,3,-0.0733509,0
0.5,0.1,0,3,-0.073333,0
0.5,0.2,0,3,-0.0733151,0
0.5,0.3,0,2.99999,-0.0732891,0
0.5,0.4,0,2.99997,-0.0732549,0
0.5,0.5,0,2.99995,-0.0732206,0
0.5,0.6,0,2.99993,-0.0731898,0
0.5,0.7,0,2.9999,-0.0731589,0
0.5,0.8,0,2.99988,-0.073126,0
0.5,0.9,0,2.99987,-0.0730911,0
0.5,1,0,2.99985,-0.0730561,0
0.5,1.1,0,2.99986,-0.0729713,0
0.5,1.2,0,2.99986,-0.0728865,0
0.5,1.3,0,2.99983,-0.0727771,0
0.5,1.4,0,2.99977,-0.072643,0
0.5,1.5,0,2.99971,-0.072509,0
0.5,1.6,0,2.99961,-0.0723476,0
0.5,1.7,0,2.99951,-0.0721861,0
0.5,1.8,0,2.99943,-0.071981,0
0.5,1.9,0,2.99936,-0.0717322,0
0.5,2,0,2.9993,-0.0714833,0
0.5,2.1,0,2.99919,-0.0711029,0
0.5,2.2,0,2.99908,-0.0707224,0
0.5,2.3,0,2.99895,-0.0702734,0
0.5,2.4,0,2.9988,-0.0697557,0
0.5,2.5,0,2.99864,-0.0692381,0
0.5,2.6,0,2.99845,-0.0685557,0
0.5,2.7,0,2.99826,-0.0678733,0
0.5,2.8,0,2.99805,-0.0670967,0
0.5,2.9,0,2.99782,-0.0662261,0
0.5,3,0,2.99759,-0.0653555,0
0.5,3.1,0,2.99734,-0.064278,0
0.5,3.2,0,2.99709,-0.0632004,0
0.5,3.3,0,2.99683,-0.0619941,0
0.5,3.4,0,2.99656,-0.060659,0
0.5,3.5,0,2.99629,-0.0593239,0
0.5,3.6,0,2.99592,-0.0577237,0
0.5,3.7,0,2.99554,-0.0561236,0
0.5,3.8,0,2.99513,-0.0544079,0
0.5,3.9,0,2.99468,-0.0525768,0
0.5,4,0,2.99423,-0.0507456,0
0.5,4.1,0,2.99383,-0.0486642,0
0.5,4.2,0,2.99343,-0.0465828,0
0.5,4.3,0,2.99309,-0.0443709,0
0.5,4.4,0,2.99281,-0.0420283,0
0.5,4.5,0,2.99253,-0.0396858,0
0.5,4.6,0,2.99247,-0.0370728,0
0.5,4.7,0,2.9924,-0.0344597,0
0.5,4.8,0,2.99242,-0.0320052,0
0.5,4.9,0,2.99251,-0.0297092,0
0.5,5,0,2.9926,-0.0274131,0
0.5,5.1,0,2.9928,-0.0228614,0
0.5,5.2,0,2.99289,-0.0197048,0
0.5,5.3,0,2.99299,-0.0164855,0
0.5,5.4,0,2.99314,-0.0132073,0
0.5,5.5,0,2.99336,-0.00987518,0
0.5,5.6,0,2.99368,-0.00649544,0
0.5,5.7,0,2.99409,-0.00307738,0
0.5,5.8,0,2.99458,0.000365318,0
0.5,5.9,0,2.99511,0.00381432,0
0.5,6,0,2.99565,0.00724829,0
0.5,6.1,0,2.99619,0.0106467,0
0.5,6.2,0,2.99676,0.0139933,0
0.5,6.3,0,2.99737,0.0172755,0
0.5,6.4,0,2.99806,0.0204809,0
0.5,6.5,0,2.99885,0.0235954,0
0.5,6.6,0,2.99975,0.0266047,0
0.5,6.7,0,3.00082,0.0294973,0
0.5,6.8,0,3.00213,0.0322661,0
0.5,6.9,0,3.00386,0.034895,0
0.5,7,0,3.00925,0.0383493,0
0.5,7.1,0,3.01173,0.0394028,0
0.5,7.2,0,3.0142,0.0404563,0
0.5,7.3,0,3.01634,0.0414489,0
0.5,7.4,0,3.01654,0.0420967,0
0.5,7.5,0,3.01675,0.0427445,0
0.5,7.6,0,3.01604,0.0435017,0
0.5,7.7,0,3.01318,0.0445141,0
0.5,7.8,0,3.01033,0.0455264,0
0.5,7.9,0,3.00711,0.0470656,0
0.5,8,0,3.00346,0.0492487,0
0.5,8.1,0,2.99981,0.0514317,0
0.5,8.2,0,2.99662,0.0534628,0
0.5,8.3,0,2.99372,0.0553925,0
0.5,8.4,0,2.99083,0.0573222,0
0.5,8.5,0,2.98891,0.0583785,0
0.5,8.6,0,2.98731,0.0591437,0
0.5,8.7,0,2.98572,0.059909,0
0.5,8.8,0,2.98518,0.0601285,0
0.5,8.9,0,2.98476,0.0602873,0
0.5,9,0,2.9844,0.0604345,0
0.5,9.1,0,2.9851,0.0603592,0
0.5,9.2,0,2.9858,0.0602838,0
0.5,9.3,0,2.98667,0.0601578,0
0.5,9.4,0,2.98816,0.0598291,0
0.5,9.5,0,2.98965,0.0595004,0
0.5,9.6,0,2.9912,0.0590996,0
0.5,9.7,0,2.99286,0.0585649,0
0.5,9.8,0,2.99451,0.0580302,0
0.5,9.9,0,2.99596,0.0575047,0
0.5,10,0,2.99721,0.0569883,0
0.5,10.1,0,2.99845,0.056472,0
0.5,10.2,0,2.99931,0.0560226,0
0.5,10.3,0,2.99996,0.0556093,0
0.5,10.4,0,3.00061,0.055196,0
0.5,10.5,0,3.00093,0.0547867,0
0.5,10.6,0,3.00115,0.0543783,0
0.5,10.7,0,3.00138,0.05397,0
0.5,10.8,0,3.00142,0.0535163,0
0.5,10.9,0,3.00144,0.0530602,0
0.5,11,0,3.00146,0.0526033,0
0.5,11.1,0,3.00141,0.0521393,0
0.5,11.2,0,3.00136,0.0516754,0
0.5,11.3,0,3.00131,0.0512223,0
0.5,11.4,0,3.00123,0.0508018,0
0.5,11.5,0,3.00116,0.0503813,0
0.5,11.6,0,3.00108,0.049995,0
0.5,11.7,0,3.00099,0.0496598,0
0.5,11.8,0,3.0009,0.0493245,0
0.5,11.9,0,3.00081,0.0490441,0
0.5,12,0,3.00071,0.0488084,0
0.5,12.1,0,3.00061,0.0485727,0
0.5,12.2,0,3.0005,0.0484216,0
0.5,12.3,0,3.00039,0.0483068,0
0.5,12.4,0,3.00028,0.048192,0
0.5,12.5,0,3.00022,0.0481574,0
0.5,12.6,0,3.00017,0.0481371,0
0.5,12.7,0,3.00012,0.0481168,0
0.6,0,0,2.99999,-0.0879686,0
0.6,0.1,0,2.99983,-0.0879281,0
0.6,0.2,0,2.99991,-0.0879286,0
0.6,0.3,0,2.99987,-0.0878841,0
0.6,0.4,0,2.99975,-0.087813,0
0.6,0.5,0,2.99995,-0.0878807,0
0.6,0.6,0,3.00005,-0.0877604,0
0.6,0.7,0,2.99996,-0.0877863,0
0.6,0.8,0,2.99979,-0.0877456,0
0.6,0.9,0,2.99968,-0.087646,0
0.6,1,0,2.99984,-0.0877696,0
0.6,1.1,0,3.00012,-0.0871761,0
0.6,1.2,0,2.99997,-0.0873565,0
0.6,1.3,0,2.99963,-0.0873798,0
0.6,1.4,0,2.99941,-0.0871132,0
0.6,1.5,0,2.99962,-0.087195,0
0.6,1.6,0,2.99932,-0.0876016,0
0.6,1.7,0,2.99928,-0.087121,0
0.6,1.8,0,2.99933,-0.0862114,0
0.6,1.9,0,2.99935,-0.0855773,0
0.6,2,0,2.99899,-0.0859844,0
0.6,2.1,0,2.99864,-0.0857322,0
0.6,2.2,0,2.99858,-0.0851931,0
0.6,2.3,0,2.99856,-0.0844452,0
0.6,2.4,0,2.99847,-0.0837872,0
0.6,2.5,0,2.998,-0.0833158,0
0.6,2.6,0,2.9976,-0.0825128,0
0.6,2.7,0,2.9974,-0.0817302,0
0.6,2.8,0,2.99736,-0.0807278,0
0.6,2.9,0,2.99729,-0.0797315,0
0.6,3,0,2.99646,-0.0787024,0
0.6,3.1,0,2.99654,-0.0771097,0
0.6,3.2,0,2.99597,-0.0760348,0
0.6,3.3,0,2.99595,-0.0743771,0
0.6,3.4,0,2.99623,-0.072588,0
0.6,3.5,0,2.99452,-0.0715494,0
0.6,3.6,0,2.99493,-0.0687288,0
0.6,3.7,0,2.99399,-0.0673576,0
0.6,3.8,0,2.99349,-0.065351,0
0.6,3.9,0,2.9935,-0.0629999,0
0.6,4,0,2.99174,-0.0613048,0
0.6,4.1,0,2.99341,-0.0560906,0
0.6,4.2,0,2.99177,-0.0550515,0
0.6,4.3,0,2.9922,-0.0514128,0
0.6,4.4,0,2.99393,-0.0466014,0
0.6,4.5,0,2.98921,-0.0479877,0
0.6,4.6,0,2.99677,-0.0377512,0
0.6,4.7,0,2.99267,-0.0382996,0
0.6,4.8,0,2.99384,-0.0335659,0
0.6,4.9,0,2.99912,-0.0258292,0
0.6,5,0,2.98855,-0.0333112,0
0.6,5.1,0,2.98867,-0.0278787,0
0.6,5.2,0,2.98875,-0.0240856,0
0.6,5.3,0,2.98883,-0.0202013,0
0.6,5.4,0,2.98889,-0.0162314,0
0.6,5.5,0,2.98896,-0.0121865,0
0.6,5.6,0,2.98905,-0.00808117,0
0.6,5.7,0,2.98919,-0.00393285,0
0.6,5.8,0,2.98942,0.000239808,0
0.6,5.9,0,2.98979,0.0044193,0
0.6,6,0,2.99029,0.00859066,0
0.6,6.1,0,2.99092,0.012742,0
0.6,6.2,0,2.99164,0.0168635,0
0.6,6.3,0,2.99242,0.0209447,0
0.6,6.4,0,2.99325,0.0249724,0
0.6,6.5,0,2.99414,0.0289307,0
0.6,6.6,0,2.99512,0.032802,0
0.6,6.7,0,2.99623,0.036569,0
0.6,6.8,0,2.99755,0.040213,0
0.6,6.9,0,2.99928,0.0437033,0
0.6,7,0,3.00378,0.0483197,0
0.6,7.1,0,3.06682,0.00741734,0
0.6,7.2,0,3.05964,0.0150455,0
0.6,7.3,0,3.0358,0.0432389,0
0.6,7.4,0,3.21543,-0.0174035,0
0.6,7.5,0,3.13591,0.011088,0
0.6,7.6,0,3.06162,0.0290425,0
0.6,7.7,0,3.20787,-0.0458237,0
0.6,7.8,0,3.1019,0.00927798,0
0.6,7.9,0,3.0507,0.00891187,0
0.6,8,0,3.12084,-0.0691406,0
0.6,8.1,0,3.03978,0.019521,0
0.6,8.2,0,3.02482,-0.00209208,0
0.6,8.3,0,3.049,-0.0635127,0
0.6,8.4,0,3.0029,0.0427576,0
0.6,8.5,0,3.0042,-0.000398826,0
0.6,8.6,0,3.00981,-0.0339673,0
0.6,8.7,0,2.98869,0.064242,0
0.6,8.8,0,2.99325,0.0108226,0
0.6,8.9,0,2.99327,0.00730338,0
0.6,9,0,2.98592,0.0714945,0
0.6,9.1,0,2.99024,0.0298899,0
0.6,9.2,0,2.98998,0.0399811,0
0.6,9.3,0,2.9882,0.068989,0
0.6,9.4,0,2.99145,0.0518257,0
0.6,9.5,0,2.99187,0.0601393,0
0.6,9.6,0,2.9923,0.0698025,0
0.6,9.7,0,2.99468,0.0661071,0
0.6,9.8,0,2.99559,0.06807,0
0.6,9.9,0,2.99677,0.0699075,0
0.6,10,0,2.99842,0.0699183,0
0.6,10.1,0,2.99914,0.0685773,0
0.6,10.2,0,3.0001,0.0685432,0
0.6,10.3,0,3.00101,0.0687184,0
0.6,10.4,0,3.00125,0.0668276,0
0.6,10.5,0,3.00172,0.0666594,0
0.6,10.6,0,3.00202,0.0663909,0
0.6,10.7,0,3.00202,0.0649124,0
0.6,10.8,0,3.00219,0.0647059,0
0.6,10.9,0,3.00221,0.064162,0
0.6,11,0,3.00211,0.0631606,0
0.6,11.1,0,3.00213,0.0627967,0
0.6,11.2,0,3.00204,0.0622067,0
0.6,11.3,0,3.00191,0.061505,0
0.6,11.4,0,3.00188,0.0610898,0
0.6,11.5,0,3.00173,0.0605663,0
0.6,11.6,0,3.00157,0.06005,0
0.6,11.7,0,3.00148,0.0596863,0
0.6,11.8,0,3.00132,0.0592672,0
0.6,11.9,0,3.00117,0.0589327,0
0.6,12,0,3.00106,0.0586977,0
0.6,12.1,0,3.00087,0.0583476,0
0.6,12.2,0,3.00069,0.0581895,0
0.6,12.3,0,3.00055,0.058096,0
0.6,12.4,0,3.00039,0.0578001,0
0.6,12.5,0,3.0002,0.0578785,0
0.6,12.6,0,3.00012,0.0578718,0
0.6,12.7,0,3.00016,0.0576073,0
0.7,0,0,2.99998,-0.102586,0
0.7,0.1,0,2.9999,-0.102564,0
0.7,0.2,0,2.9999,-0.10256,0
0.7,0.3,0,2.99986,-0.102516,0
0.7,0.4,0,2.99985,-0.10251,0
0.7,0.5,0,2.99994,-0.102541,0
0.7,0.6,0,2.99998,-0.102477,0
0.7,0.7,0,2.99996,-0.10247,0
0.7,0.8,0,2.99978,-0.10243,0
0.7,0.9,0,2.99976,-0.102424,0
0.7,1,0,2.99982,-0.102483,0
0.7,1.1,0,2.99995,-0.102155,0
0.7,1.2,0,2.99993,-0.102092,0
0.7,1.3,0,2.99959,-0.102115,0
0.7,1.4,0,2.99948,-0.101932,0
0.7,1.5,0,2.99953,-0.101881,0
0.7,1.6,0,2.99928,-0.101968,0
0.7,1.7,0,2.99909,-0.101737,0
0.7,1.8,0,2.99914,-0.100827,0
0.7,1.9,0,2.99896,-0.100464,0
0.7,2,0,2.99868,-0.100486,0
0.7,2.1,0,2.99838,-0.100075,0
0.7,2.2,0,2.99812,-0.0995052,0
0.7,2.3,0,2.9981,-0.0987573,0
0.7,2.4,0,2.99776,-0.0980053,0
0.7,2.5,0,2.99735,-0.0973936,0
0.7,2.6,0,2.99695,-0.0964904,0
0.7,2.7,0,2.99654,-0.095487,0
0.7,2.8,0,2.99649,-0.0944846,0
0.7,2.9,0,2.996,-0.0932041,0
0.7,3,0,2.99533,-0.0920493,0
0.7,3.1,0,2.99509,-0.0904592,0
0.7,3.2,0,2.99454,-0.0888718,0
0.7,3.3,0,2.99451,-0.087214,0
0.7,3.4,0,2.99391,-0.0852675,0
0.7,3.5,0,2.99275,-0.083775,0
0.7,3.6,0,2.9926,-0.0811833,0
0.7,3.7,0,2.99188,-0.0788206,0
0.7,3.8,0,2.99137,-0.076814,0
0.7,3.9,0,2.99054,-0.074079,0
0.7,4,0,2.98924,-0.071864,0
0.7,4.1,0,2.98968,-0.0676921,0
0.7,4.2,0,2.98888,-0.0645623,0
0.7,4.3,0,2.98931,-0.0609237,0
0.7,4.4,0,2.9886,-0.0573722,0
0.7,4.5,0,2.98588,-0.0562896,0
0.7,4.6,0,2.98941,-0.0492146,0
0.7,4.7,0,2.98889,-0.045301,0
0.7,4.8,0,2.99006,-0.0405673,0
0.7,4.9,0,2.98988,-0.0371679,0
0.7,5,0,2.98451,-0.0392092,0
0.7,5.1,0,2.98455,-0.032896,0
0.7,5.2,0,2.98462,-0.0284663,0
0.7,5.3,0,2.98467,-0.023917,0
0.7,5.4,0,2.98465,-0.0192555,0
0.7,5.5,0,2.98456,-0.0144978,0
0.7,5.6,0,2.98441,-0.0096669,0
0.7,5.7,0,2.98428,-0.00478832,0
0.7,5.8,0,2.98427,0.000114298,0
0.7,5.9,0,2.98447,0.00502428,0
0.7,6,0,2.98494,0.00993304,0
0.7,6.1,0,2.98565,0.0148373,0
0.7,6.2,0,2.98652,0.0197337,0
0.7,6.3,0,2.98746,0.0246138,0
0.7,6.4,0,2.98843,0.0294639,0
0.7,6.5,0,2.98944,0.0342659,0
0.7,6.6,0,2.99049,0.0389992,0
0.7,6.7,0,2.99164,0.0436407,0
0.7,6.8,0,2.99297,0.0481598,0
0.7,6.9,0,2.99469,0.0525117,0
0.7,7,0,2.99831,0.0582901,0
0.7,7.1,0,3.03446,0.0358459,0
0.7,7.2,0,3.03496,0.0378695,0
0.7,7.3,0,3.02808,0.0543151,0
0.7,7.4,0,3.10443,0.0297568,0
0.7,7.5,0,3.10468,0.0317765,0
0.7,7.6,0,3.05394,0.0416828,0
0.7,7.7,0,3.10102,0.0192876,0
0.7,7.8,0,3.09736,0.0234518,0
0.7,7.9,0,3.04616,0.0230857,0
0.7,8,0,3.0574,0.0118247,0
0.7,8.1,0,3.0379,0.0343554,0
0.7,8.2,0,3.02149,0.0162594,0
0.7,8.3,0,3.02018,0.0181103,0
0.7,8.4,0,3.00283,0.0575022,0
0.7,8.5,0,3.00062,0.0318857,0
0.7,8.6,0,2.99997,0.0320658,0
0.7,8.7,0,2.98971,0.0783195,0
0.7,8.8,0,2.99177,0.0478683,0
0.7,8.9,0,2.99164,0.0472017,0
0.7,9,0,2.98726,0.084631,0
0.7,9.1,0,2.98976,0.0626558,0
0.7,9.2,0,2.9903,0.0619458,0
0.7,9.3,0,2.98935,0.081402,0
0.7,9.4,0,2.99133,0.0742757,0
0.7,9.5,0,2.99249,0.0736753,0
0.7,9.6,0,2.99308,0.0819058,0
0.7,9.7,0,2.99474,0.0804141,0
0.7,9.8,0,2.99608,0.0800609,0
0.7,9.9,0,2.99727,0.0818985,0
0.7,10,0,2.99852,0.081235,0
0.7,10.1,0,2.99959,0.0803172,0
0.7,10.2,0,3.00052,0.0801574,0
0.7,10.3,0,3.00126,0.0793733,0
0.7,10.4,0,3.0018,0.0781449,0
0.7,10.5,0,3.00222,0.0777306,0
0.7,10.6,0,3.00251,0.0769465,0
0.7,10.7,0,3.00265,0.0758013,0
0.7,10.8,0,3.00277,0.0753606,0
0.7,10.9,0,3.00281,0.0746048,0
0.7,11,0,3.00276,0.0737078,0
0.7,11.1,0,3.00272,0.0731672,0
0.7,11.2,0,3.00263,0.07247,0
0.7,11.3,0,3.00251,0.0717863,0
0.7,11.4,0,3.00239,0.071242,0
0.7,11.5,0,3.00223,0.0706366,0
0.7,11.6,0,3.00207,0.0701205,0
0.7,11.7,0,3.00188,0.0696458,0
0.7,11.8,0,3.00168,0.0691552,0
0.7,11.9,0,3.00153,0.0688207,0
0.7,12,0,3.00131,0.0684526,0
0.7,12.1,0,3.00109,0.0680815,0
0.7,12.2,0,3.0009,0.0678997,0
0.7,12.3,0,3.00068,0.0676504,0
0.7,12.4,0,3.00049,0.0673807,0
0.7,12.5,0,3.00032,0.0673908,0
0.7,12.6,0,3.00022,0.0672913,0
0.7,12.7,0,3.0002,0.0670977,0
0.8,0,0,2.99999,-0.117271,0
0.8,0.1,0,3.00004,-0.117222,0
0.8,0.2,0,3.00004,-0.117219,0
0.8,0.3,0,3.00008,-0.117248,0
0.8,0.4,0,3.00006,-0.117242,0
0.8,0.5,0,2.99996,-0.117276,0
0.8,0.6,0,2.99984,-0.117253,0
0.8,0.7,0,2.99982,-0.117246,0
0.8,0.8,0,2.99996,-0.117269,0
0.8,0.9,0,2.99993,-0.117264,0
0.8,1,0,2.99982,-0.117251,0
0.8,1.1,0,2.99961,-0.11746,0
0.8,1.2,0,2.99959,-0.117397,0
0.8,1.3,0,2.9999,-0.117126,0
0.8,1.4,0,2.99979,-0.116942,0
0.8,1.5,0,2.9994,-0.116614,0
0.8,1.6,0,2.99929,-0.116005,0
0.8,1.7,0,2.9991,-0.115773,0
0.8,1.8,0,2.99865,-0.116241,0
0.8,1.9,0,2.99846,-0.115878,0
0.8,2,0,2.9983,-0.115025,0
0.8,2.1,0,2.99824,-0.114322,0
0.8,2.2,0,2.99799,-0.113753,0
0.8,2.3,0,2.99733,-0.113235,0
0.8,2.4,0,2.99699,-0.112483,0
0.8,2.5,0,2.99658,-0.111565,0
0.8,2.6,0,2.99636,-0.1105,0
0.8,2.7,0,2.99595,-0.109497,0
0.8,2.8,0,2.99504,-0.108228,0
0.8,2.9,0,2.99455,-0.106947,0
0.8,3,0,2.99399,-0.105544,0