x,y,z,p
0,0,0,0.000158346
0,0.1,0,0.000348476
0,0.2,0,0.000538606
0,0.3,0,0.000760623
0,0.4,0,0.00101453
0,0.5,0,0.00126843
0,0.6,0,0.00152315
0,0.7,0,0.00177787
0,0.8,0,0.00203313
0,0.9,0,0.00228895
0,1,0,0.00254477
0,1.1,0,0.00280183
0,1.2,0,0.00305889
0,1.3,0,0.00331656
0,1.4,0,0.00357484
0,1.5,0,0.00383313
0,1.6,0,0.00409238
0,1.7,0,0.00435164
0,1.8,0,0.00461113
0,1.9,0,0.00487086
0,2,0,0.00513059
0,2.1,0,0.00538996
0,2.2,0,0.00564933
0,2.3,0,0.00590795
0,2.4,0,0.0061658
0,2.5,0,0.00642366
0,2.6,0,0.00667844
0,2.7,0,0.00693322
0,2.8,0,0.00718549
0,2.9,0,0.00743525
0,3,0,0.007685
0,3.1,0,0.00792735
0,3.2,0,0.0081697
0,3.3,0,0.00840697
0,3.4,0,0.00863915
0,3.5,0,0.00887134
0,3.6,0,0.00909026
0,3.7,0,0.00930918
0,3.8,0,0.0095198
0,3.9,0,0.00972212
0,4,0,0.00992445
0,4.1,0,0.0101067
0,4.2,0,0.0102889
0,4.3,0,0.0104594
0,4.4,0,0.0106182
0,4.5,0,0.010777
0,4.6,0,0.0109091
0,4.7,0,0.0110412
0,4.8,0,0.0111523
0,4.9,0,0.0112425
0,5,0,0.0113327
0,5.1,0,0.0114462
0,5.2,0,0.0115146
0,5.3,0,0.0115697
0,5.4,0,0.0116115
0,5.5,0,0.01164
0,5.6,0,0.0116552
0,5.7,0,0.0116571
0,5.8,0,0.0116458
0,5.9,0,0.0116212
0,6,0,0.0115587
0,6.1,0,0.0115019
0,6.2,0,0.0114451
0,6.3,0,0.0113883
0,6.4,0,0.0113022
0,6.5,0,0.0112003
0,6.6,0,0.0110985
0,6.7,0,0.0109869
0,6.8,0,0.0108526
0,6.9,0,0.0107183
0,7,0,0.010584
0,7.1,0,0.0104248
0,7.2,0,0.0102644
0,7.3,0,0.0101039
0,7.4,0,0.00993163
0,7.5,0,0.00975142
0,7.6,0,0.00957121
0,7.7,0,0.00938756
0,7.8,0,0.00919359
0,7.9,0,0.00899963
0,8,0,0.00880567
0,8.1,0,0.0086041
0,8.2,0,0.00840168
0,8.3,0,0.00819927
0,8.4,0,0.00799464
0,8.5,0,0.00778818
0,8.6,0,0.00758173
0,8.7,0,0.00737517
0,8.8,0,0.00716815
0,8.9,0,0.00696113
0,9,0,0.00675411
0,9.1,0,0.0065488
0,9.2,0,0.00634379
0,9.3,0,0.00613878
0,9.4,0,0.00593567
0,9.5,0,0.00573444
0,9.6,0,0.00553321
0,9.7,0,0.00533271
0,9.8,0,0.00513634
0,9.9,0,0.00493997
0,10,0,0.00474361
0,10.1,0,0.00455155
0,10.2,0,0.00436058
0,10.3,0,0.0041696
0,10.4,0,0.00398109
0,10.5,0,0.00379558
0,10.6,0,0.00361008
0,10.7,0,0.0034251
0,10.8,0,0.0032448
0,10.9,0,0.00306451
0,11,0,0.00288422
0,11.1,0,0.00270744
0,11.2,0,0.00253183
0,11.3,0,0.00235622
0,11.4,0,0.0021822
0,11.5,0,0.00201056
0,11.6,0,0.00183891
0,11.7,0,0.00166742
0,11.8,0,0.00149888
0,11.9,0,0.00133033
0,12,0,0.00116179
0,12.1,0,0.000994741
0,12.2,0,0.000828333
0,12.3,0,0.000661924
0,12.4,0,0.000510177
0,12.5,0,0.000385657
0,12.6,0,0.000261137
0,12.7,0,0.000136617
0.1,0,0,9.50076e-05
0.1,0.1,0,0.000285023
0.1,0.2,0,0.000506783
0.1,0.3,0,0.000760367
0.1,0.4,0,0.00101421
0.1,0.5,0,0.00126807
0.1,0.6,0,0.00152265
0.1,0.7,0,0.00177738
0.1,0.8,0,0.00203259
0.1,0.9,0,0.00228835
0.1,1,0,0.00254421
0.1,1.1,0,0.00280118
0.1,1.2,0,0.00305829
0.1,1.3,0,0.003316
0.1,1.4,0,0.00357426
0.1,1.5,0,0.00383268
0.1,1.6,0,0.00409199
0.1,1.7,0,0.00435132
0.1,1.8,0,0.00461098
0.1,1.9,0,0.00487079
0.1,2,0,0.00513069
0.1,2.1,0,0.00539038
0.1,2.2,0,0.00564984
0.1,2.3,0,0.00590879
0.1,2.4,0,0.0061669
0.1,2.5,0,0.00642491
0.1,2.6,0,0.00668041
0.1,2.7,0,0.00693525
0.1,2.8,0,0.00718807
0.1,2.9,0,0.0074383
0.1,3,0,0.0076881
0.1,3.1,0,0.0079317
0.1,3.2,0,0.00817401
0.1,3.3,0,0.00841202
0.1,3.4,0,0.00864497
0.1,3.5,0,0.00887695
0.1,3.6,0,0.00909771
0.1,3.7,0,0.00931643
0.1,3.8,0,0.0095279
0.1,3.9,0,0.00973128
0.1,4,0,0.00993296
0.1,4.1,0,0.0101176
0.1,4.2,0,0.0102994
0.1,4.3,0,0.0104707
0.1,4.4,0,0.0106308
0.1,4.5,0,0.0107883
0.1,4.6,0,0.0109231
0.1,4.7,0,0.0110545
0.1,4.8,0,0.0111725
0.1,4.9,0,0.0112704
0.1,5,0,0.0113458
0.1,5.1,0,0.0114595
0.1,5.2,0,0.011528
0.1,5.3,0,0.0115832
0.1,5.4,0,0.0116251
0.1,5.5,0,0.0116537
0.1,5.6,0,0.0116689
0.1,5.7,0,0.0116707
0.1,5.8,0,0.0116592
0.1,5.9,0,0.0116345
0.1,6,0,0.0115717
0.1,6.1,0,0.0115326
0.1,6.2,0,0.0114818
0.1,6.3,0,0.0114069
0.1,6.4,0,0.01132
0.1,6.5,0,0.0112241
0.1,6.6,0,0.0111158
0.1,6.7,0,0.0109993
0.1,6.8,0,0.010872
0.1,6.9,0,0.0107355
0.1,7,0,0.0105927
0.1,7.1,0,0.0104381
0.1,7.2,0,0.0102797
0.1,7.3,0,0.0101129
0.1,7.4,0,0.0099401
0.1,7.5,0,0.00976255
0.1,7.6,0,0.00957936
0.1,7.7,0,0.00939247
0.1,7.8,0,0.00920069
0.1,7.9,0,0.0090061
0.1,8,0,0.00880867
0.1,8.1,0,0.00860767
0.1,8.2,0,0.00840571
0.1,8.3,0,0.00820145
0.1,8.4,0,0.00799594
0.1,8.5,0,0.00778957
0.1,8.6,0,0.00758261
0.1,8.7,0,0.00737518
0.1,8.8,0,0.0071676
0.1,8.9,0,0.00696049
0.1,9,0,0.00675342
0.1,9.1,0,0.00654724
0.1,9.2,0,0.00634173
0.1,9.3,0,0.00613722
0.1,9.4,0,0.00593376
0.1,9.5,0,0.00573144
0.1,9.6,0,0.00553072
0.1,9.7,0,0.00533089
0.1,9.8,0,0.00513309
0.1,9.9,0,0.00493664
0.1,10,0,0.00474158
0.1,10.1,0,0.00454863
0.1,10.2,0,0.00435687
0.1,10.3,0,0.00416703
0.1,10.4,0,0.00397869
0.1,10.5,0,0.00379196
0.1,10.6,0,0.00360709
0.1,10.7,0,0.00342328
0.1,10.8,0,0.00324175
0.1,10.9,0,0.00306128
0.1,11,0,0.00288236
0.1,11.1,0,0.00270514
0.1,11.2,0,0.00252891
0.1,11.3,0,0.00235421
0.1,11.4,0,0.00218059
0.1,11.5,0,0.00200817
0.1,11.6,0,0.00183693
0.1,11.7,0,0.0016664
0.1,11.8,0,0.00149728
0.1,11.9,0,0.0013286
0.1,12,0,0.00116086
0.1,12.1,0,0.00099384
0.1,12.2,0,0.000827238
0.1,12.3,0,0.000661209
0.1,12.4,0,0.000495538
0.1,12.5,0,0.000330622
0.1,12.6,0,0.0002062
0.1,12.7,0,8.19701e-05
0.2,0,0,3.16692e-05
0.2,0.1,0,0.000253315
0.2,0.2,0,0.00050659
0.2,0.3,0,0.000760174
0.2,0.4,0,0.00101391
0.2,0.5,0,0.00126772
0.2,0.6,0,0.0015223
0.2,0.7,0,0.00177689
0.2,0.8,0,0.00203211
0.2,0.9,0,0.00228785
0.2,1,0,0.00254366
0.2,1.1,0,0.00280068
0.2,1.2,0,0.00305775
0.2,1.3,0,0.00331545
0.2,1.4,0,0.00357383
0.2,1.5,0,0.00383223
0.2,1.6,0,0.00409162
0.2,1.7,0,0.00435108
0.2,1.8,0,0.00461074
0.2,1.9,0,0.00487081
0.2,2,0,0.00513079
0.2,2.1,0,0.00539057
0.2,2.2,0,0.00565044
0.2,2.3,0,0.00590939
0.2,2.4,0,0.00616791
0.2,2.5,0,0.00642617
0.2,2.6,0,0.00668173
0.2,2.7,0,0.00693735
0.2,2.8,0,0.00719016
0.2,2.9,0,0.00744092
0.2,3,0,0.00769121
0.2,3.1,0,0.00793477
0.2,3.2,0,0.0081783
0.2,3.3,0,0.0084163
0.2,3.4,0,0.00864981
0.2,3.5,0,0.00888255
0.2,3.6,0,0.00910311
0.2,3.7,0,0.00932347
0.2,3.8,0,0.00953494
0.2,3.9,0,0.00973874
0.2,4,0,0.00994148
0.2,4.1,0,0.0101257
0.2,4.2,0,0.0103094
0.2,4.3,0,0.0104807
0.2,4.4,0,0.0106408
0.2,4.5,0,0.0107996
0.2,4.6,0,0.0109337
0.2,4.7,0,0.0110669
0.2,4.8,0,0.011185
0.2,4.9,0,0.0112758
0.2,5,0,0.0113589
0.2,5.1,0,0.0114728
0.2,5.2,0,0.0115415
0.2,5.3,0,0.0115968
0.2,5.4,0,0.0116388
0.2,5.5,0,0.0116674
0.2,5.6,0,0.0116825
0.2,5.7,0,0.0116843
0.2,5.8,0,0.0116727
0.2,5.9,0,0.0116479
0.2,6,0,0.0115848
0.2,6.1,0,0.0115396
0.2,6.2,0,0.0114821
0.2,6.3,0,0.011419
0.2,6.4,0,0.0113321
0.2,6.5,0,0.0112291
0.2,6.6,0,0.011126
0.2,6.7,0,0.0110097
0.2,6.8,0,0.010877
0.2,6.9,0,0.0107412
0.2,7,0,0.0106011
0.2,7.1,0,0.0104446
0.2,7.2,0,0.0102826
0.2,7.3,0,0.0101192
0.2,7.4,0,0.0099464
0.2,7.5,0,0.00976509
0.2,7.6,0,0.00958343
0.2,7.7,0,0.00939683
0.2,7.8,0,0.00920305
0.2,7.9,0,0.00900781
0.2,8,0,0.00881132
0.2,8.1,0,0.00860985
0.2,8.2,0,0.00840638
0.2,8.3,0,0.00820268
0.2,8.4,0,0.00799717
0.2,8.5,0,0.00779
0.2,8.6,0,0.00758272
0.2,8.7,0,0.0073753
0.2,8.8,0,0.0071677
0.2,8.9,0,0.00696006
0.2,9,0,0.00675272
0.2,9.1,0,0.00654665
0.2,9.2,0,0.00634122
0.2,9.3,0,0.00613596
0.2,9.4,0,0.00593249
0.2,9.5,0,0.00573083
0.2,9.6,0,0.00552935
0.2,9.7,0,0.00532929
0.2,9.8,0,0.00513212
0.2,9.9,0,0.00493563
0.2,10,0,0.00473982
0.2,10.1,0,0.00454706
0.2,10.2,0,0.00435607
0.2,10.3,0,0.00416525
0.2,10.4,0,0.0039769
0.2,10.5,0,0.00379115
0.2,10.6,0,0.00360572
0.2,10.7,0,0.00342159
0.2,10.8,0,0.00324065
0.2,10.9,0,0.00306049
0.2,11,0,0.00288085
0.2,11.1,0,0.00270372
0.2,11.2,0,0.00252829
0.2,11.3,0,0.00235294
0.2,11.4,0,0.00217932
0.2,11.5,0,0.0020076
0.2,11.6,0,0.00183616
0.2,11.7,0,0.0016654
0.2,11.8,0,0.00149659
0.2,11.9,0,0.00132827
0.2,12,0,0.00116017
0.2,12.1,0,0.000993168
0.2,12.2,0,0.000827007
0.2,12.3,0,0.000660852
0.2,12.4,0,0.000495181
0.2,12.5,0,0.000330054
0.2,12.6,0,0.000165019
0.2,12.7,0,2.73234e-05
0.3,0,0,0
0.3,0.1,0,0.00025311
0.3,0.2,0,0.000506386
0.3,0.3,0,0.000759607
0.3,0.4,0,0.00101335
0.3,0.5,0,0.00126696
0.3,0.6,0,0.00152144
0.3,0.7,0,0.00177603
0.3,0.8,0,0.00203104
0.3,0.9,0,0.00228679
0.3,1,0,0.00254249
0.3,1.1,0,0.00279954
0.3,1.2,0,0.00305661
0.3,1.3,0,0.0033144
0.3,1.4,0,0.00357278
0.3,1.5,0,0.00383126
0.3,1.6,0,0.00409087
0.3,1.7,0,0.00435034
0.3,1.8,0,0.00461054
0.3,1.9,0,0.00487061
0.3,2,0,0.00513096
0.3,2.1,0,0.00539119
0.3,2.2,0,0.00565106
0.3,2.3,0,0.00591116
0.3,2.4,0,0.00616967
0.3,2.5,0,0.00642872
0.3,2.6,0,0.00668499
0.3,2.7,0,0.00694061
0.3,2.8,0,0.00719527
0.3,2.9,0,0.00744603
0.3,3,0,0.00769758
0.3,3.1,0,0.00794207
0.3,3.2,0,0.0081856
0.3,3.3,0,0.00842612
0.3,3.4,0,0.00865963
0.3,3.5,0,0.00889415
0.3,3.6,0,0.00911572
0.3,3.7,0,0.00933607
0.3,3.8,0,0.00955049
0.3,3.9,0,0.00975429
0.3,4,0,0.00995918
0.3,4.1,0,0.0101442
0.3,4.2,0,0.0103279
0.3,4.3,0,0.0105021
0.3,4.4,0,0.0106622
0.3,4.5,0,0.0108233
0.3,4.6,0,0.0109576
0.3,4.7,0,0.0110909
0.3,4.8,0,0.0112109
0.3,4.9,0,0.0113017
0.3,5,0,0.0113865
0.3,5.1,0,0.0115011
0.3,5.2,0,0.0115701
0.3,5.3,0,0.0116257
0.3,5.4,0,0.0116679
0.3,5.5,0,0.0116965
0.3,5.6,0,0.0117116
0.3,5.7,0,0.0117132
0.3,5.8,0,0.0117013
0.3,5.9,0,0.0116761
0.3,6,0,0.0116122
0.3,6.1,0,0.0115654
0.3,6.2,0,0.0115079
0.3,6.3,0,0.0114445
0.3,6.4,0,0.0113549
0.3,6.5,0,0.0112519
0.3,6.6,0,0.0111487
0.3,6.7,0,0.01103
0.3,6.8,0,0.0108958
0.3,6.9,0,0.01076
0.3,7,0,0.0106185
0.3,7.1,0,0.0104593
0.3,7.2,0,0.0102973
0.3,7.3,0,0.0101332
0.3,7.4,0,0.00995722
0.3,7.5,0,0.00977566
0.3,7.6,0,0.009594
0.3,7.7,0,0.00940502
0.3,7.8,0,0.00920993
0.3,7.9,0,0.00901469
0.3,8,0,0.00881698
0.3,8.1,0,0.00861359
0.3,8.2,0,0.00841012
0.3,8.3,0,0.00820602
0.3,8.4,0,0.00799862
0.3,8.5,0,0.00779122
0.3,8.6,0,0.00758393
0.3,8.7,0,0.00737524
0.3,8.8,0,0.00716698
0.3,8.9,0,0.00695935
0.3,9,0,0.00675141
0.3,9.1,0,0.00654457
0.3,9.2,0,0.00633914
0.3,9.3,0,0.00613374
0.3,9.4,0,0.00592961
0.3,9.5,0,0.00572787
0.3,9.6,0,0.00552638
0.3,9.7,0,0.00532592
0.3,9.8,0,0.00512868
0.3,9.9,0,0.00493219
0.3,10,0,0.00473622
0.3,10.1,0,0.00454345
0.3,10.2,0,0.00435246
0.3,10.3,0,0.00416162
0.3,10.4,0,0.00397332
0.3,10.5,0,0.00378763
0.3,10.6,0,0.0036022
0.3,10.7,0,0.00341813
0.3,10.8,0,0.00323741
0.3,10.9,0,0.00305725
0.3,11,0,0.00287767
0.3,11.1,0,0.00270091
0.3,11.2,0,0.00252548
0.3,11.3,0,0.00235014
0.3,11.4,0,0.00217689
0.3,11.5,0,0.00200531
0.3,11.6,0,0.00183388
0.3,11.7,0,0.00166336
0.3,11.8,0,0.00149489
0.3,11.9,0,0.00132657
0.3,12,0,0.00115862
0.3,12.1,0,0.000992114
0.3,12.2,0,0.000825953
0.3,12.3,0,0.000659807
0.3,12.4,0,0.000494632
0.3,12.5,0,0.000329679
0.3,12.6,0,0.000164644
0.3,12.7,0,0
0.4,0,0,0
0.4,0.1,0,0.000252944
0.4,0.2,0,0.000505766
0.4,0.3,0,0.000758988
0.4,0.4,0,0.00101232
0.4,0.5,0,0.00126581
0.4,0.6,0,0.00152017
0.4,0.7,0,0.00177448
0.4,0.8,0,0.00202948
0.4,0.9,0,0.00228504
0.4,1,0,0.00254071
0.4,1.1,0,0.00279774
0.4,1.2,0,0.00305482
0.4,1.3,0,0.00331262
0.4,1.4,0,0.0035712
0.4,1.5,0,0.00382977
0.4,1.6,0,0.00408952
0.4,1.7,0,0.0043495
0.4,1.8,0,0.0046097
0.4,1.9,0,0.00487055
0.4,2,0,0.00513119
0.4,2.1,0,0.00539179
0.4,2.2,0,0.00565283
0.4,2.3,0,0.00591293
0.4,2.4,0,0.00617298
0.4,2.5,0,0.00643256
0.4,2.6,0,0.00668948
0.4,2.7,0,0.00694707
0.4,2.8,0,0.00720173
0.4,2.9,0,0.0074549
0.4,3,0,0.00770724
0.4,3.1,0,0.00795268
0.4,3.2,0,0.00819899
0.4,3.3,0,0.00843951
0.4,3.4,0,0.00867622
0.4,3.5,0,0.00891174
0.4,3.6,0,0.00913451
0.4,3.7,0,0.00935821
0.4,3.8,0,0.00957264
0.4,3.9,0,0.00978008
0.4,4,0,0.00998606
0.4,4.1,0,0.0101723
0.4,4.2,0,0.0103594
0.4,4.3,0,0.0105336
0.4,4.4,0,0.0106972
0.4,4.5,0,0.0108592
0.4,4.6,0,0.0109947
0.4,4.7,0,0.0111306
0.4,4.8,0,0.0112506
0.4,4.9,0,0.0113498
0.4,5,0,0.0114286
0.4,5.1,0,0.0115443
0.4,5.2,0,0.0116139
0.4,5.3,0,0.01167
0.4,5.4,0,0.0117125
0.4,5.5,0,0.0117412
0.4,5.6,0,0.0117562
0.4,5.7,0,0.0117574
0.4,5.8,0,0.0117451
0.4,5.9,0,0.0117192
0.4,6,0,0.0116541
0.4,6.1,0,0.0116125
0.4,6.2,0,0.0115586
0.4,6.3,0,0.0114828
0.4,6.4,0,0.0113932
0.4,6.5,0,0.0112931
0.4,6.6,0,0.0111817
0.4,6.7,0,0.0110627
0.4,6.8,0,0.0109313
0.4,6.9,0,0.0107897
0.4,7,0,0.0106448
0.4,7.1,0,0.0104863
0.4,7.2,0,0.0103224
0.4,7.3,0,0.0101529
0.4,7.4,0,0.00997693
0.4,7.5,0,0.00979513
0.4,7.6,0,0.00960807
0.4,7.7,0,0.00941862
0.4,7.8,0,0.00922371
0.4,7.9,0,0.00902478
0.4,8,0,0.00882519
0.4,8.1,0,0.00862171
0.4,8.2,0,0.00841618
0.4,8.3,0,0.00820979
0.4,8.4,0,0.00800239
0.4,8.5,0,0.00779378
0.4,8.6,0,0.00758443
0.4,8.7,0,0.00737552
0.4,8.8,0,0.00716657
0.4,8.9,0,0.00695736
0.4,9,0,0.00674913
0.4,9.1,0,0.00654202
0.4,9.2,0,0.0063352
0.4,9.3,0,0.00612971
0.4,9.4,0,0.00592558
0.4,9.5,0,0.0057227
0.4,9.6,0,0.00552116
0.4,9.7,0,0.00532083
0.4,9.8,0,0.00512289
0.4,9.9,0,0.00492603
0.4,10,0,0.00473064
0.4,10.1,0,0.00453769
0.4,10.2,0,0.00434596
0.4,10.3,0,0.004156
0.4,10.4,0,0.0039677
0.4,10.5,0,0.00378124
0.4,10.6,0,0.00359655
0.4,10.7,0,0.0034128
0.4,10.8,0,0.00323167
0.4,10.9,0,0.00305168
0.4,11,0,0.00287291
0.4,11.1,0,0.00269608
0.4,11.2,0,0.00252044
0.4,11.3,0,0.00234612
0.4,11.4,0,0.00217287
0.4,11.5,0,0.002001
0.4,11.6,0,0.00183042
0.4,11.7,0,0.00166022
0.4,11.8,0,0.00149165
0.4,11.9,0,0.00132379
0.4,12,0,0.00115646
0.4,12.1,0,0.000989952
0.4,12.2,0,0.000824073
0.4,12.3,0,0.000658686
0.4,12.4,0,0.000493511
0.4,12.5,0,0.000328736
0.4,12.6,0,0.000164452
0.4,12.7,0,0
0.5,0,0,0
0.5,0.1,0,0.000252657
0.5,0.2,0,0.000505313
0.5,0.3,0,0.000758246
0.5,0.4,0,0.00101146
0.5,0.5,0,0.00126466
0.5,0.6,0,0.00151885
0.5,0.7,0,0.00177304
0.5,0.8,0,0.00202789
0.5,0.9,0,0.00228341
0.5,1,0,0.00253892
0.5,1.1,0,0.00279599
0.5,1.2,0,0.00305306
0.5,1.3,0,0.00331093
0.5,1.4,0,0.00356961
0.5,1.5,0,0.00382828
0.5,1.6,0,0.0040884
0.5,1.7,0,0.00434852
0.5,1.8,0,0.00460915
0.5,1.9,0,0.00487028
0.5,2,0,0.00513142
0.5,2.1,0,0.00539283
0.5,2.2,0,0.00565424
0.5,2.3,0,0.00591523
0.5,2.4,0,0.00617582
0.5,2.5,0,0.0064364
0.5,2.6,0,0.00669464
0.5,2.7,0,0.00695288
0.5,2.8,0,0.00720898
0.5,2.9,0,0.00746294
0.5,3,0,0.00771689
0.5,3.1,0,0.00796415
0.5,3.2,0,0.00821141
0.5,3.3,0,0.0084539
0.5,3.4,0,0.00869161
0.5,3.5,0,0.00892933
0.5,3.6,0,0.00915424
0.5,3.7,0,0.00937915
0.5,3.8,0,0.00959587
0.5,3.9,0,0.0098044
0.5,4,0,0.0100129
0.5,4.1,0,0.0102013
0.5,4.2,0,0.0103897
0.5,4.3,0,0.0105661
0.5,4.4,0,0.0107306
0.5,4.5,0,0.0108951
0.5,4.6,0,0.0110321
0.5,4.7,0,0.0111691
0.5,4.8,0,0.0112842
0.5,4.9,0,0.0113775
0.5,5,0,0.0114707
0.5,5.1,0,0.0115875
0.5,5.2,0,0.0116578
0.5,5.3,0,0.0117144
0.5,5.4,0,0.0117571
0.5,5.5,0,0.0117859
0.5,5.6,0,0.0118007
0.5,5.7,0,0.0118017
0.5,5.8,0,0.0117889
0.5,5.9,0,0.0117624
0.5,6,0,0.0116959
0.5,6.1,0,0.0116358
0.5,6.2,0,0.0115757
0.5,6.3,0,0.0115156
0.5,6.4,0,0.0114248
0.5,6.5,0,0.0113174
0.5,6.6,0,0.01121
0.5,6.7,0,0.0110926
0.5,6.8,0,0.010952
0.5,6.9,0,0.0108114
0.5,7,0,0.0106708
0.5,7.1,0,0.0105052
0.5,7.2,0,0.0103384
0.5,7.3,0,0.0101715
0.5,7.4,0,0.00999305
0.5,7.5,0,0.00980683
0.5,7.6,0,0.0096206
0.5,7.7,0,0.00943112
0.5,7.8,0,0.00923187
0.5,7.9,0,0.00903263
0.5,8,0,0.00883338
0.5,8.1,0,0.00862734
0.5,8.2,0,0.00842055
0.5,8.3,0,0.00821376
0.5,8.4,0,0.00800527
0.5,8.5,0,0.00779539
0.5,8.6,0,0.00758551
0.5,8.7,0,0.00737569
0.5,8.8,0,0.00716614
0.5,8.9,0,0.0069566
0.5,9,0,0.00674705
0.5,9.1,0,0.00653989
0.5,9.2,0,0.00633316
0.5,9.3,0,0.00612642
0.5,9.4,0,0.00592192
0.5,9.5,0,0.00571964
0.5,9.6,0,0.00551737
0.5,9.7,0,0.00531591
0.5,9.8,0,0.00511905
0.5,9.9,0,0.0049222
0.5,10,0,0.00472535
0.5,10.1,0,0.00453316
0.5,10.2,0,0.00434213
0.5,10.3,0,0.00415111
0.5,10.4,0,0.0039627
0.5,10.5,0,0.00377749
0.5,10.6,0,0.00359228
0.5,10.7,0,0.00340761
0.5,10.8,0,0.00322787
0.5,10.9,0,0.00304813
0.5,11,0,0.00286838
0.5,11.1,0,0.00269229
0.5,11.2,0,0.00251742
0.5,11.3,0,0.00234255
0.5,11.4,0,0.00216931
0.5,11.5,0,0.00199854
0.5,11.6,0,0.00182776
0.5,11.7,0,0.00165714
0.5,11.8,0,0.00148955
0.5,11.9,0,0.00132196
0.5,12,0,0.00115438
0.5,12.1,0,0.000988331
0.5,12.2,0,0.000822947
0.5,12.3,0,0.000657563
0.5,12.4,0,0.000492594
0.5,12.5,0,0.000328396
0.5,12.6,0,0.000164198
0.5,12.7,0,0
0.6,0,0,0
0.6,0.1,0,0.000252039
0.6,0.2,0,0.000504445
0.6,0.3,0,0.000756867
0.6,0.4,0,0.00100982
0.6,0.5,0,0.00126258
0.6,0.6,0,0.00151635
0.6,0.7,0,0.00177037
0.6,0.8,0,0.00202492
0.6,0.9,0,0.0022803
0.6,1,0,0.00253564
0.6,1.1,0,0.00279262
0.6,1.2,0,0.0030497
0.6,1.3,0,0.00330767
0.6,1.4,0,0.00356642
0.6,1.5,0,0.00382541
0.6,1.6,0,0.00408598
0.6,1.7,0,0.00434641
0.6,1.8,0,0.00460776
0.6,1.9,0,0.00486929
0.6,2,0,0.00513144
0.6,2.1,0,0.00539404
0.6,2.2,0,0.00565618
0.6,2.3,0,0.00591872
0.6,2.4,0,0.00618013
0.6,2.5,0,0.00644263
0.6,2.6,0,0.006703
0.6,2.7,0,0.00696246
0.6,2.8,0,0.00722109
0.6,2.9,0,0.00747635
0.6,3,0,0.00773325
0.6,3.1,0,0.00798363
0.6,3.2,0,0.00823261
0.6,3.3,0,0.00847859
0.6,3.4,0,0.00871809
0.6,3.5,0,0.00895965
0.6,3.6,0,0.00918849
0.6,3.7,0,0.00941547
0.6,3.8,0,0.00963635
0.6,3.9,0,0.00984695
0.6,4,0,0.0100598
0.6,4.1,0,0.0102523
0.6,4.2,0,0.0104428
0.6,4.3,0,0.0106234
0.6,4.4,0,0.0107898
0.6,4.5,0,0.0109582
0.6,4.6,0,0.0110988
0.6,4.7,0,0.0112374
0.6,4.8,0,0.0113621
0.6,4.9,0,0.0114633
0.6,5,0,0.0115453
0.6,5.1,0,0.0116644
0.6,5.2,0,0.011736
0.6,5.3,0,0.0117935
0.6,5.4,0,0.0118367
0.6,5.5,0,0.0118657
0.6,5.6,0,0.0118803
0.6,5.7,0,0.0118807
0.6,5.8,0,0.0118669
0.6,5.9,0,0.0118391
0.6,6,0,0.0117699
0.6,6.1,0,0.0117253
0.6,6.2,0,0.0116705
0.6,6.3,0,0.01159
0.6,6.4,0,0.011495
0.6,6.5,0,0.0113907
0.6,6.6,0,0.0112755
0.6,6.7,0,0.0111504
0.6,6.8,0,0.0110122
0.6,6.9,0,0.0108685
0.6,7,0,0.0107169
0.6,7.1,0,0.0105514
0.6,7.2,0,0.0103848
0.6,7.3,0,0.0102093
0.6,7.4,0,0.0100267
0.6,7.5,0,0.00983998
0.6,7.6,0,0.0096494
0.6,7.7,0,0.009454
0.6,7.8,0,0.00925322
0.6,7.9,0,0.00905252
0.6,8,0,0.00884779
0.6,8.1,0,0.00863938
0.6,8.2,0,0.0084317
0.6,8.3,0,0.00822157
0.6,8.4,0,0.00801016
0.6,8.5,0,0.00779851
0.6,8.6,0,0.00758741
0.6,8.7,0,0.00737534
0.6,8.8,0,0.00716354
0.6,8.9,0,0.00695348
0.6,9,0,0.0067429
0.6,9.1,0,0.00653378
0.6,9.2,0,0.00632599
0.6,9.3,0,0.00611918
0.6,9.4,0,0.00591366
0.6,9.5,0,0.00570976
0.6,9.6,0,0.00550778
0.6,9.7,0,0.00530658
0.6,9.8,0,0.00510805
0.6,9.9,0,0.00491103
0.6,10,0,0.00471525
0.6,10.1,0,0.00452215
0.6,10.2,0,0.00433037
0.6,10.3,0,0.00414044
0.6,10.4,0,0.00395228
0.6,10.5,0,0.00376608
0.6,10.6,0,0.00358154
0.6,10.7,0,0.00339818
0.6,10.8,0,0.00321761
0.6,10.9,0,0.00303781
0.6,11,0,0.00285964
0.6,11.1,0,0.00268353
0.6,11.2,0,0.00250834
0.6,11.3,0,0.0023346
0.6,11.4,0,0.00216218
0.6,11.5,0,0.00199116
0.6,11.6,0,0.00182093
0.6,11.7,0,0.00165166
0.6,11.8,0,0.00148409
0.6,11.9,0,0.00131656
0.6,12,0,0.00115023
0.6,12.1,0,0.000984757
0.6,12.2,0,0.000819556
0.6,12.3,0,0.000654912
0.6,12.4,0,0.000490823
0.6,12.5,0,0.00032714
0.6,12.6,0,0.000163261
0.6,12.7,0,0
0.7,0,0,0
0.7,0.1,0,0.000251789
0.7,0.2,0,0.000503326
0.7,0.3,0,0.000755748
0.7,0.4,0,0.00100799
0.7,0.5,0,0.0012605
0.7,0.6,0,0.0015141
0.7,0.7,0,0.00176753
0.7,0.8,0,0.00202208
0.7,0.9,0,0.00227715
0.7,1,0,0.00253235
0.7,1.1,0,0.00278935
0.7,1.2,0,0.00304637
0.7,1.3,0,0.00330434
0.7,1.4,0,0.00356348
0.7,1.5,0,0.00382254
0.7,1.6,0,0.00408342
0.7,1.7,0,0.00434462
0.7,1.8,0,0.00460597
0.7,1.9,0,0.00486891
0.7,2,0,0.00513146
0.7,2.1,0,0.00539479
0.7,2.2,0,0.00565884
0.7,2.3,0,0.00592139
0.7,2.4,0,0.00618554
0.7,2.5,0,0.00644887
0.7,2.6,0,0.00671045
0.7,2.7,0,0.00697325
0.7,2.8,0,0.00723188
0.7,2.9,0,0.0074914
0.7,3,0,0.00774961
0.7,3.1,0,0.00800171
0.7,3.2,0,0.00825552
0.7,3.3,0,0.0085015
0.7,3.4,0,0.00874663
0.7,3.5,0,0.00898998
0.7,3.6,0,0.00922089
0.7,3.7,0,0.00945388
0.7,3.8,0,0.00967475
0.7,3.9,0,0.00989171
0.7,4,0,0.0101066
0.7,4.1,0,0.0103013
0.7,4.2,0,0.0104981
0.7,4.3,0,0.0106786
0.7,4.4,0,0.0108509
0.7,4.5,0,0.0110213
0.7,4.6,0,0.0111635
0.7,4.7,0,0.0113073
0.7,4.8,0,0.011432
0.7,4.9,0,0.01153
0.7,5,0,0.01162
0.7,5.1,0,0.0117414
0.7,5.2,0,0.0118142
0.7,5.3,0,0.0118725
0.7,5.4,0,0.0119164
0.7,5.5,0,0.0119455
0.7,5.6,0,0.0119599
0.7,5.7,0,0.0119597
0.7,5.8,0,0.011945
0.7,5.9,0,0.0119158
0.7,6,0,0.0118438
0.7,6.1,0,0.0117925
0.7,6.2,0,0.0117273
0.7,6.3,0,0.0116573
0.7,6.4,0,0.0115622
0.7,6.5,0,0.0114474
0.7,6.6,0,0.0113324
0.7,6.7,0,0.0112074
0.7,6.8,0,0.0110623
0.7,6.9,0,0.0109132
0.7,7,0,0.0107625
0.7,7.1,0,0.0105944
0.7,7.2,0,0.0104189
0.7,7.3,0,0.0102433
0.7,7.4,0,0.0100607
0.7,7.5,0,0.00986696
0.7,7.6,0,0.0096727
0.7,7.7,0,0.00947725
0.7,7.8,0,0.0092733
0.7,7.9,0,0.00906704
0.7,8,0,0.00886165
0.7,8.1,0,0.00865238
0.7,8.2,0,0.00843982
0.7,8.3,0,0.0082277
0.7,8.4,0,0.00801628
0.7,8.5,0,0.00780218
0.7,8.6,0,0.0075878
0.7,8.7,0,0.00737545
0.7,8.8,0,0.0071631
0.7,8.9,0,0.00695026
0.7,9,0,0.0067386
0.7,9.1,0,0.00652945
0.7,9.2,0,0.00632049
0.7,9.3,0,0.00611189
0.7,9.4,0,0.00590637
0.7,9.5,0,0.00570267
0.7,9.6,0,0.00549906
0.7,9.7,0,0.00529751
0.7,9.8,0,0.0050995
0.7,9.9,0,0.00490204
0.7,10,0,0.00470538
0.7,10.1,0,0.00451246
0.7,10.2,0,0.00432141
0.7,10.3,0,0.00413053
0.7,10.4,0,0.00394237
0.7,10.5,0,0.00375724
0.7,10.6,0,0.00357244
0.7,10.7,0,0.00338882
0.7,10.8,0,0.00320893
0.7,10.9,0,0.00302993
0.7,11,0,0.00285128
0.7,11.1,0,0.0026753
0.7,11.2,0,0.00250141
0.7,11.3,0,0.00232757
0.7,11.4,0,0.00215514
0.7,11.5,0,0.00198514
0.7,11.6,0,0.00181552
0.7,11.7,0,0.00164617
0.7,11.8,0,0.00147908
0.7,11.9,0,0.00131277
0.7,12,0,0.00114645
0.7,12.1,0,0.000981015
0.7,12.2,0,0.000816991
0.7,12.3,0,0.00065296
0.7,12.4,0,0.000488871
0.7,12.5,0,0.00032583
0.7,12.6,0,0.000163089
0.7,12.7,0,0
0.8,0,0,0
0.8,0.1,0,0.000251056
0.8,0.2,0,0.000502594
0.8,0.3,0,0.000753709
0.8,0.4,0,0.00100595
0.8,0.5,0,0.00125786
0.8,0.6,0,0.00151097
0.8,0.7,0,0.0017644
0.8,0.8,0,0.00201816
0.8,0.9,0,0.00227322
0.8,1,0,0.00252813
0.8,1.1,0,0.00278506
0.8,1.2,0,0.00304208
0.8,1.3,0,0.00330024
0.8,1.4,0,0.00355938
0.8,1.5,0,0.00381869
0.8,1.6,0,0.00408019
0.8,1.7,0,0.00434139
0.8,1.8,0,0.00460443
0.8,1.9,0,0.00486738
0.8,2,0,0.00513099
0.8,2.1,0,0.0053959
0.8,2.2,0,0.00565996
0.8,2.3,0,0.00592623
0.8,2.4,0,0.00619038
0.8,2.5,0,0.00645585
0.8,2.6,0,0.00672021
0.8,2.7,0,0.00698301
0.8,2.8,0,0.00724779
0.8,2.9,0,0.00750732
0.8,3,0,0.0077689
0.8,3.1,0,0.00802503
0.8,3.2,0,0.00827884
0.8,3.3,0,0.00853341
0.8,3.4,0,0.00877853
0.8,3.5,0,0.0090264
0.8,3.6,0,0.00926236
0.8,3.7,0,0.00949534
0.8,3.8,0,0.00972645
0.8,3.9,0,0.00994342
0.8,4,0,0.0101635
0.8,4.1,0,0.0103635
0.8,4.2,0,0.0105603
0.8,4.3,0,0.0107509
0.8,4.4,0,0.0109233
0.8,4.5,0,0.0110985
0.8,4.6,0,0.0112451
0.8,4.7,0,0.0113889
0.8,4.8,0,0.0115213
0.8,4.9,0,0.0116193
0.8,5,0,0.0117116
0.8,5.1,0,0.0118359
0.8,5.2,0,0.0119103
0.8,5.3,0,0.0119698
0.8,5.4,0,0.0120143
0.8,5.5,0,0.0120436
0.8,5.6,0,0.0120577
0.8,5.7,0,0.0120568
0.8,5.8,0,0.0120409
0.8,5.9,0,0.01201
0.8,6,0,0.0119346
0.8,6.1,0,0.0118803
0.8,6.2,0,0.0118151
0.8,6.3,0,0.0117425
0.8,6.4,0,0.0116387
0.8,6.5,0,0.0115238
0.8,6.6,0,0.0114088
0.8,6.7,0,0.0112739
0.8,6.8,0,0.0111249
0.8,6.9,0,0.0109758
0.8,7,0,0.0108184
0.8,7.1,0,0.0106426
0.8,7.2,0,0.0104671
0.8,7.3,0,0.0102886
0.8,7.4,0,0.0100957
0.8,7.5,0,0.00990124
0.8,7.6,0,0.00970698
0.8,7.7,0,0.00950282
0.8,7.8,0,0.00929513
0.8,7.9,0,0.00908888
0.8,8,0,0.00887877
0.8,8.1,0,0.00866373
0.8,8.2,0,0.00845117
0.8,8.3,0,0.00823758
0.8,8.4,0,0.00801999
0.8,8.5,0,0.00780519
0.8,8.6,0,0.00759082
0.8,8.7,0,0.0073742
0.8,8.8,0,0.00715984
0.8,8.9,0,0.00694701
0.8,9,0,0.00673346
0.8,9.1,0,0.00652181
0.8,9.2,0,0.00631285
0.8,9.3,0,0.00610385
0.8,9.4,0,0.00589625
0.8,9.5,0,0.00569223
0.8,9.6,0,0.00548863
0.8,9.7,0,0.00528606
0.8,9.8,0,0.00508759
0.8,9.9,0,0.00489013
0.8,10,0,0.00469324
0.8,10.1,0,0.00450013
0.8,10.2,0,0.00430908
0.8,10.3,0,0.00411822
0.8,10.4,0,0.00393034
0.8,10.5,0,0.0037453
0.8,10.6,0,0.00356051
0.8,10.7,0,0.00337741
0.8,10.8,0,0.003198
0.8,10.9,0,0.003019
0.8,11,0,0.00284077
0.8,11.1,0,0.00266583
0.8,11.2,0,0.00249194
0.8,11.3,0,0.00231818
0.8,11.4,0,0.00214708
0.8,11.5,0,0.00197745
0.8,11.6,0,0.00180783
0.8,11.7,0,0.00163954
0.8,11.8,0,0.0014734
0.8,11.9,0,0.00130709
0.8,12,0,0.00114136
0.8,12.1,0,0.000977497
0.8,12.2,0,0.000813472
0.8,12.3,0,0.000649476
0.8,12.4,0,0.000487088
0.8,12.5,0,0.000324595
0.8,12.6,0,0.000161854
0.8,12.7,0,0
0.9,0,0,0
0.9,0.1,0,0.000250575
0.9,0.2,0,0.000500889
0.9,0.3,0,0.000752004
0.9,0.4,0,0.0010031
0.9,0.5,0,0.00125466
0.9,0.6,0,0.00150744
0.9,0.7,0,0.00176001
0.9,0.8,0,0.00201377
0.9,0.9,0,0.00226823
0.9,1,0,0.00252297
0.9,1.1,0,0.00277982
0.9,1.2,0,0.00303673
0.9,1.3,0,0.00329489
0.9,1.4,0,0.00355438
0.9,1.5,0,0.00381386
0.9,1.6,0,0.00407567
0.9,1.7,0,0.00433798
0.9,1.8,0,0.00460102
0.9,1.9,0,0.00486575
0.9,2,0,0.00513004
0.9,2.1,0,0.00539581
0.9,2.2,0,0.00566267
0.9,2.3,0,0.00592894
0.9,2.4,0,0.0061968
0.9,2.5,0,0.00646358
0.9,2.6,0,0.0067295
0.9,2.7,0,0.00699722
0.9,2.8,0,0.007262
0.9,2.9,0,0.00752747
0.9,3,0,0.0077911
0.9,3.1,0,0.00804957
0.9,3.2,0,0.00831053
0.9,3.3,0,0.0085651
0.9,3.4,0,0.00881832
0.9,3.5,0,0.00906892
0.9,3.6,0,0.00930785
0.9,3.7,0,0.00954976
0.9,3.8,0,0.00978087
0.9,3.9,0,0.0100073
0.9,4,0,0.0102304
0.9,4.1,0,0.0104336
0.9,4.2,0,0.0106397
0.9,4.3,0,0.0108304
0.9,4.4,0,0.0110117
0.9,4.5,0,0.0111898
0.9,4.6,0,0.0113392
0.9,4.7,0,0.0114905
0.9,4.8,0,0.0116229
0.9,4.9,0,0.0117336
0.9,5,0,0.0118203
0.9,5.1,0,0.011948
0.9,5.2,0,0.0120243
0.9,5.3,0,0.0120851
0.9,5.4,0,0.0121304
0.9,5.5,0,0.01216
0.9,5.6,0,0.0121738
0.9,5.7,0,0.012172
0.9,5.8,0,0.0121546
0.9,5.9,0,0.0121218
0.9,6,0,0.0120423
0.9,6.1,0,0.0119932
0.9,6.2,0,0.0119286
0.9,6.3,0,0.0118401
0.9,6.4,0,0.0117363
0.9,6.5,0,0.01162
0.9,6.6,0,0.0114915
0.9,6.7,0,0.0113562
0.9,6.8,0,0.0112075
0.9,6.9,0,0.011046
0.9,7,0,0.0108836
0.9,7.1,0,0.0107074
0.9,7.2,0,0.0105235
0.9,7.3,0,0.0103367
0.9,7.4,0,0.0101438
0.9,7.5,0,0.00994443
0.9,7.6,0,0.00974003
0.9,7.7,0,0.00953515
0.9,7.8,0,0.00932549
0.9,7.9,0,0.0091105
0.9,8,0,0.0088975
0.9,8.1,0,0.00868163
0.9,8.2,0,0.00846284
0.9,8.3,0,0.00824523
0.9,8.4,0,0.00802764
0.9,8.5,0,0.00780914
0.9,8.6,0,0.0075903
0.9,8.7,0,0.00737331
0.9,8.8,0,0.00715724
0.9,8.9,0,0.0069406
0.9,9,0,0.0067264
0.9,9.1,0,0.00651424
0.9,9.2,0,0.00630232
0.9,9.3,0,0.00609267
0.9,9.4,0,0.00588507
0.9,9.5,0,0.00567916
0.9,9.6,0,0.00547494
0.9,9.7,0,0.00527248
0.9,9.8,0,0.00507307
0.9,9.9,0,0.0048749
0.9,10,0,0.00467864
0.9,10.1,0,0.00448533
0.9,10.2,0,0.00429349
0.9,10.3,0,0.00410368
0.9,10.4,0,0.00391581
0.9,10.5,0,0.0037301
0.9,10.6,0,0.00354645
0.9,10.7,0,0.00336376
0.9,10.8,0,0.00318404
0.9,10.9,0,0.00300578
0.9,11,0,0.00282862
0.9,11.1,0,0.00265364
0.9,11.2,0,0.00248014
0.9,11.3,0,0.00230798
0.9,11.4,0,0.00213687
0.9,11.5,0,0.00196733
0.9,11.6,0,0.00179941
0.9,11.7,0,0.0016316
0.9,11.8,0,0.00146557
0.9,11.9,0,0.00130064
0.9,12,0,0.00113591
0.9,12.1,0,0.000972063
0.9,12.2,0,0.000809105
0.9,12.3,0,0.000646665
0.9,12.4,0,0.000484277
0.9,12.5,0,0.000322324
0.9,12.6,0,0.000161418
0.9,12.7,0,0
1,0,0,0
1,0.1,0,0.000249833
1,0.2,0,0.000499665
1,0.3,0,0.000749958
1,0.4,0,0.00100071
1,0.5,0,0.00125146
1,0.6,0,0.00150371
1,0.7,0,0.00175595
1,0.8,0,0.00200922
1,0.9,0,0.00226352
1,1,0,0.00251782
1,1.1,0,0.00277464
1,1.2,0,0.00303147
1,1.3,0,0.00328971
1,1.4,0,0.00354937
1,1.5,0,0.00380904
1,1.6,0,0.00407165
1,1.7,0,0.00433426
1,1.8,0,0.00459827
1,1.9,0,0.00486368
1,2,0,0.00512909
1,2.1,0,0.00539681
1,2.2,0,0.00566453
1,2.3,0,0.00593297
1,2.4,0,0.00620214
1,2.5,0,0.00647131
1,2.6,0,0.00674059
1,2.7,0,0.00700987
1,2.8,0,0.00727827
1,2.9,0,0.00754579
1,3,0,0.00781331
1,3.1,0,0.0080766
1,3.2,0,0.00833989
1,3.3,0,0.00859952
1,3.4,0,0.00885548
1,3.5,0,0.00911144
1,3.6,0,0.00935632
1,3.7,0,0.00960121
1,3.8,0,0.00983839
1,3.9,0,0.0100679
1,4,0,0.0102974
1,4.1,0,0.0105067
1,4.2,0,0.010716
1,4.3,0,0.0109127
1,4.4,0,0.0110969
1,4.5,0,0.0112811
1,4.6,0,0.0114352
1,4.7,0,0.0115894
1,4.8,0,0.011719
1,4.9,0,0.011824
1,5,0,0.011929
1,5.1,0,0.0120601
1,5.2,0,0.0121383
1,5.3,0,0.0122005
1,5.4,0,0.0122466
1,5.5,0,0.0122764
1,5.6,0,0.0122899
1,5.7,0,0.0122872
1,5.8,0,0.0122684
1,5.9,0,0.0122336
1,6,0,0.0121499
1,6.1,0,0.0120773
1,6.2,0,0.0120047
1,6.3,0,0.011932
1,6.4,0,0.0118244
1,6.5,0,0.011698
1,6.6,0,0.0115715
1,6.7,0,0.0114344
1,6.8,0,0.0112725
1,6.9,0,0.0111106
1,7,0,0.0109487
1,7.1,0,0.0107618
1,7.2,0,0.0105736
1,7.3,0,0.0103853
1,7.4,0,0.0101864
1,7.5,0,0.00998042
1,7.6,0,0.00977441
1,7.7,0,0.0095658
1,7.8,0,0.00934939
1,7.9,0,0.00913298
1,8,0,0.00891657
1,8.1,0,0.00869618
1,8.2,0,0.00847534
1,8.3,0,0.00825451
1,8.4,0,0.00803372
1,8.5,0,0.00781298
1,8.6,0,0.00759223
1,8.7,0,0.00737215
1,8.8,0,0.00715471
1,8.9,0,0.00693726
1,9,0,0.00671982
1,9.1,0,0.00650697
1,9.2,0,0.00629494
1,9.3,0,0.00608291
1,9.4,0,0.00587419
1,9.5,0,0.0056688
1,9.6,0,0.0054634
1,9.7,0,0.00525908
1,9.8,0,0.00506086
1,9.9,0,0.00486265
1,10,0,0.00466443
1,10.1,0,0.00447199
1,10.2,0,0.00428098
1,10.3,0,0.00408998
1,10.4,0,0.00390207
1,10.5,0,0.00371793
1,10.6,0,0.0035338
1,10.7,0,0.00335029
1,10.8,0,0.00317241
1,10.9,0,0.00299453
1,11,0,0.00281665
1,11.1,0,0.00264286
1,11.2,0,0.00247042
1,11.3,0,0.00229799
1,11.4,0,0.00212736
1,11.5,0,0.00195943
1,11.6,0,0.0017915
1,11.7,0,0.00162374
1,11.8,0,0.00145929
1,11.9,0,0.00129483
1,12,0,0.00113037
1,12.1,0,0.000967599
1,12.2,0,0.000805544
1,12.3,0,0.00064349
1,12.4,0,0.000481929
1,12.5,0,0.000321286
1,12.6,0,0.000160643
1,12.7,0,0
1.1,0,0,0
1.1,0.1,0,0.000248444
1.1,0.2,0,0.00049776
1.1,0.3,0,0.000746955
1.1,0.4,0,0.000997128
1.1,0.5,0,0.00124689
1.1,0.6,0,0.00149818
1.1,0.7,0,0.00175001
1.1,0.8,0,0.00200253
1.1,0.9,0,0.00225648
1.1,1,0,0.00251024
1.1,1.1,0,0.00276673
1.1,1.2,0,0.00302347
1.1,1.3,0,0.00328169
1.1,1.4,0,0.00354142
1.1,1.5,0,0.00380138
1.1,1.6,0,0.00406469
1.1,1.7,0,0.00432773
1.1,1.8,0,0.00459287
1.1,1.9,0,0.00485896
1.1,2,0,0.00512592
1.1,2.1,0,0.00539582
1.1,2.2,0,0.00566471
1.1,2.3,0,0.00593587
1.1,2.4,0,0.00620658
1.1,2.5,0,0.00647898
1.1,2.6,0,0.00675236
1.1,2.7,0,0.00702374
1.1,2.8,0,0.00729683
1.1,2.9,0,0.00756694
1.1,3,0,0.00783968
1.1,3.1,0,0.00810925
1.1,3.2,0,0.00837565
1.1,3.3,0,0.00864206
1.1,3.4,0,0.00890169
1.1,3.5,0,0.00916475
1.1,3.6,0,0.0094179
1.1,3.7,0,0.00966668
1.1,3.8,0,0.00991224
1.1,3.9,0,0.0101462
1.1,4,0,0.0103838
1.1,4.1,0,0.0106024
1.1,4.2,0,0.0108157
1.1,4.3,0,0.011021
1.1,4.4,0,0.0112097
1.1,4.5,0,0.0114014
1.1,4.6,0,0.0115637
1.1,4.7,0,0.011721
1.1,4.8,0,0.0118644
1.1,4.9,0,0.0119802
1.1,5,0,0.0120736
1.1,5.1,0,0.0122095
1.1,5.2,0,0.0122904
1.1,5.3,0,0.0123545
1.1,5.4,0,0.0124018
1.1,5.5,0,0.012432
1.1,5.6,0,0.012445
1.1,5.7,0,0.0124411
1.1,5.8,0,0.0124202
1.1,5.9,0,0.0123826
1.1,6,0,0.0122933
1.1,6.1,0,0.012238
1.1,6.2,0,0.0121712
1.1,6.3,0,0.012071
1.1,6.4,0,0.0119548
1.1,6.5,0,0.0118296
1.1,6.6,0,0.0116918
1.1,6.7,0,0.0115418
1.1,6.8,0,0.0113784
1.1,6.9,0,0.0112118
1.1,7,0,0.0110338
1.1,7.1,0,0.0108425
1.1,7.2,0,0.0106528
1.1,7.3,0,0.0104519