/*--------------------------------*- C++ -*----------------------------------*\
| =========                 |                                                 |
| \\      /  F ield         | OpenFOAM: The Open Source CFD Toolbox           |
|  \\    /   O peration     | Version:  v1806                                 |
|   \\  /    A nd           | Web:      www.OpenFOAM.com                      |
|    \\/     M anipulation  |                                                 |
\*---------------------------------------------------------------------------*/
FoamFile
{
    version     2.0;
    format      ascii;
    class       surfaceScalarField;
    location    "11";
    object      phi;
}
// * * * * * * * * * * * * * * * * * * * * * * * * * * * * * * * * * * * * * //

dimensions      [0 3 -1 0 0 0 0];
oriented        oriented;


internalField   nonuniform List<scalar> 
8600
(
0.911059
-0.859712
-0.934931
0.883584
0.763815
-0.779093
0.926337
0.595712
-0.756102
0.924205
0.492664
-0.781485
0.884533
0.413033
-0.794004
0.873635
0.352855
-0.804616
0.864794
0.3057
-0.813397
0.860552
0.268514
-0.821943
0.859129
0.239689
-0.83003
0.858855
0.217923
-0.837113
0.858878
0.202153
-0.843016
0.858786
0.191327
-0.847672
0.858499
0.184399
-0.851266
0.858194
0.180015
-0.853636
0.858019
0.176969
-0.854719
0.857765
0.174692
-0.855084
0.857361
0.173093
-0.85514
0.856739
0.172157
-0.854995
0.855931
0.171881
-0.854661
0.854937
-0.854376
0.854092
0.0675584
-0.72886
-0.19841
0.0283874
-0.739922
0.0481874
-0.775902
0.0805888
-0.813886
0.108901
-0.822316
0.130159
-0.825874
0.146894
-0.830131
0.159943
-0.834993
0.169372
-0.83946
0.175486
-0.843226
0.178648
-0.846178
0.179197
-0.848221
0.177497
-0.849566
0.174419
-0.850558
0.17116
-0.85146
0.168376
-0.852299
0.166414
-0.853179
0.165244
-0.853826
0.164535
-0.853952
-0.85435
0.40636
-0.801252
-0.333967
0.439293
-0.772856
0.435931
-0.77254
0.397753
-0.775708
0.357379
-0.781942
0.319737
-0.788232
0.285194
-0.795588
0.254139
-0.803937
0.227202
-0.812523
0.204782
-0.820805
0.187
-0.828396
0.173958
-0.835179
0.165288
-0.840897
0.159982
-0.845252
0.156677
-0.848156
0.154414
-0.850036
0.152294
-0.851058
0.150278
-0.85181
0.148237
-0.851911
-0.85284
0.0080925
-0.775984
-0.0333611
-0.0164252
-0.748338
-0.0272882
-0.761677
-0.00657105
-0.796425
0.0215633
-0.810076
0.0496844
-0.816353
0.0751425
-0.821046
0.0971698
-0.825965
0.1155
-0.830854
0.129892
-0.835198
0.140284
-0.838788
0.146733
-0.841628
0.149422
-0.843586
0.149073
-0.844903
0.146923
-0.846005
0.144247
-0.84736
0.141978
-0.84879
0.140152
-0.849984
0.139093
-0.850851
-0.852409
0.217814
-0.815905
-0.177893
0.264746
-0.795269
0.297206
-0.794138
0.297086
-0.796306
0.281165
-0.794155
0.261428
-0.796616
0.240712
-0.80033
0.219931
-0.805183
0.199986
-0.810909
0.182047
-0.817258
0.167122
-0.823863
0.155536
-0.830042
0.147462
-0.835512
0.142873
-0.840314
0.14143
-0.844562
0.141844
-0.847774
0.142979
-0.849924
0.144182
-0.851188
0.145972
-0.852641
-0.854176
-0.0139226
-0.804689
0.00270654
-0.0283014
-0.78089
-0.0414255
-0.781013
-0.0387054
-0.799026
-0.0185081
-0.814353
0.00569576
-0.82082
0.0296903
-0.824325
0.0521596
-0.827652
0.0726147
-0.831364
0.0906304
-0.835274
0.105605
-0.838837
0.117271
-0.841708
0.125751
-0.843992
0.131358
-0.84592
0.134261
-0.847464
0.135045
-0.848559
0.134671
-0.84955
0.134449
-0.850966
0.134322
-0.852514
-0.854132
0.141683
-0.831472
-0.1149
0.1774
-0.816607
0.210111
-0.813724
0.226046
-0.814961
0.222835
-0.811142
0.21251
-0.810494
0.199974
-0.811789
0.186428
-0.814107
0.172742
-0.817678
0.15956
-0.822092
0.147288
-0.826566
0.136433
-0.830853
0.127409
-0.834969
0.120323
-0.838834
0.114948
-0.84209
0.111294
-0.844905
0.109031
-0.847287
0.107457
-0.849391
0.106
-0.851057
-0.85303
-0.0230818
-0.822337
0.0139466
-0.034032
-0.805657
-0.0459568
-0.801799
-0.0500247
-0.810893
-0.0391559
-0.822011
-0.0210034
-0.828647
-0.00198951
-0.830803
0.0164542
-0.83255
0.0336104
-0.834834
0.048972
-0.837453
0.0624397
-0.840034
0.0740503
-0.842463
0.0836507
-0.844569
0.090787
-0.84597
0.0955787
-0.846881
0.098364
-0.84769
0.0997527
-0.848676
0.100377
-0.850015
0.100933
-0.851614
-0.853417
0.10232
-0.84284
-0.0818169
0.129022
-0.83236
0.156239
-0.829016
0.17383
-0.828484
0.178224
-0.826405
0.172489
-0.822912
0.16444
-0.822754
0.155619
-0.823729
0.146417
-0.825632
0.136936
-0.827972
0.127704
-0.830802
0.119251
-0.83401
0.11199
-0.837308
0.106505
-0.840485
0.103165
-0.843541
0.101855
-0.846381
0.102135
-0.848956
0.103203
-0.851082
0.104261
-0.852672
-0.854061
-0.025839
-0.834546
0.0175449
-0.0351006
-0.823098
-0.0454039
-0.818713
-0.0505562
-0.823332
-0.046663
-0.830298
-0.0327995
-0.836775
-0.0170379
-0.838515
-0.00111809
-0.839649
0.0143176
-0.841068
0.0294276
-0.843082
0.0439248
-0.845299
0.0570971
-0.847183
0.0682479
-0.848459
0.0770582
-0.849295
0.083416
-0.849899
0.0875159
-0.85048
0.089652
-0.851092
0.0903696
-0.8518
0.0904422
-0.852745
-0.853967
0.0790234
-0.851198
-0.062371
0.100123
-0.844198
0.122606
-0.841196
0.139201
-0.839926
0.147182
-0.83828
0.144704
-0.834297
0.139511
-0.833321
0.133045
-0.833183
0.125571
-0.833595
0.11709
-0.834601
0.107956
-0.836165
0.0988418
-0.838069
0.0905293
-0.840146
0.0836045
-0.84237
0.0784791
-0.844774
0.0751632
-0.847165
0.0734864
-0.849415
0.0729786
-0.851292
0.0730452
-0.852812
-0.854122
-0.0277978
-0.842789
0.0193885
-0.0369536
-0.835042
-0.0467335
-0.831416
-0.0530411
-0.833619
-0.0536227
-0.837698
-0.0451627
-0.842757
-0.0339116
-0.844573
-0.0214972
-0.845597
-0.00839266
-0.846699
0.00495863
-0.847952
0.0178693
-0.849076
0.0296415
-0.849841
0.0398726
-0.850377
0.0483656
-0.850863
0.0549083
-0.851317
0.0594957
-0.851752
0.0622446
-0.852164
0.0635788
-0.852626
0.0641635
-0.853396
-0.854495
0.061913
-0.856426
-0.0482756
0.078831
-0.85196
0.0970947
-0.84968
0.111783
-0.848306
0.120799
-0.846715
0.120838
-0.842797
0.116778
-0.840512
0.110635
-0.839455
0.103265
-0.839329
0.0953716
-0.840058
0.0875335
-0.841238
0.0802938
-0.842601
0.0739927
-0.844076
0.0688029
-0.845673
0.0648206
-0.847334
0.062079
-0.84901
0.0604539
-0.850539
0.0598387
-0.852011
0.0596899
-0.853248
-0.854272
-0.0270937
-0.848342
0.0190092
-0.0354794
-0.843574
-0.0439178
-0.841241
-0.0500622
-0.842162
-0.0523742
-0.844403
-0.0468507
-0.84832
-0.0370859
-0.850277
-0.0253041
-0.851237
-0.0128585
-0.851774
-0.000853335
-0.852063
0.0101026
-0.852194
0.0198818
-0.852381
0.0284961
-0.85269
0.0358056
-0.852983
0.0416438
-0.853173
0.045864
-0.853231
0.0486079
-0.853283
0.0500236
-0.853427
0.0505181
-0.853742
-0.854364
0.0506602
-0.859981
-0.0390207
0.0645266
-0.857441
0.0795945
-0.856309
0.0929648
-0.855532
0.102369
-0.853807
0.103624
-0.849575
0.099105
-0.845758
0.0920526
-0.844184
0.0841691
-0.843891
0.0763426
-0.844237
0.0689563
-0.844808
0.0621485
-0.845573
0.0559519
-0.846494
0.0505118
-0.847543
0.0461019
-0.848763
0.042969
-0.850098
0.0411561
-0.85147
0.0405236
-0.852794
0.0407523
-0.853971
-0.854803
-0.0284922
-0.851567
0.0200781
-0.0369216
-0.849011
-0.045669
-0.847562
-0.0530699
-0.848131
-0.0570093
-0.849868
-0.0541719
-0.852413
-0.0457925
-0.854137
-0.0358434
-0.854133
-0.0258998
-0.853834
-0.0165024
-0.853634
-0.00762514
-0.853685
0.000745151
-0.853943
0.00844011
-0.854188
0.015279
-0.854382
0.0210097
-0.854493
0.0253832
-0.854471
0.0283345
-0.854421
0.0300031
-0.854463
0.0305297
-0.854497
-0.854683
0.0407419
-0.861164
-0.0311446
0.0520093
-0.860279
0.0645747
-0.860127
0.0760309
-0.859587
0.0838581
-0.857695
0.084892
-0.853446
0.0810711
-0.850316
0.0754627
-0.848525
0.0692717
-0.847643
0.0629079
-0.847271
0.0564933
-0.84727
0.0500694
-0.847519
0.0438628
-0.847982
0.0381129
-0.848632
0.0330773
-0.849458
0.0290631
-0.850457
0.0262973
-0.851655
0.0246702
-0.852836
0.0240095
-0.853837
-0.854587
-0.026521
-0.853216
0.0185724
-0.0346351
-0.852165
-0.0433176
-0.851445
-0.0509247
-0.85198
-0.055304
-0.853315
-0.0539537
-0.854797
-0.0477644
-0.856506
-0.0405189
-0.855771
-0.0331278
-0.855035
-0.0256232
-0.854775
-0.0179313
-0.854962
-0.0101982
-0.855252
-0.00271333
-0.855467
0.00425553
-0.855601
0.0104491
-0.855651
0.0156249
-0.855633
0.0195249
-0.855555
0.0220601
-0.855371
0.023466
-0.855243
-0.855195
0.0322517
-0.861287
-0.02418
0.0419204
-0.861833
0.052725
-0.862249
0.0621873
-0.861443
0.0686055
-0.859734
0.0708704
-0.857062
0.0681402
-0.853775
0.0638274
-0.851458
0.0586253
-0.849833
0.0527472
-0.848897
0.0463712
-0.848586
0.0398264
-0.848708
0.0334699
-0.84911
0.0275753
-0.849706
0.0223179
-0.850394
0.0178627
-0.851178
0.0143102
-0.852003
0.0117964
-0.852857
0.0103012
-0.853747
-0.854612
-0.027617
0.0213296
-0.0344504
-0.0416999
-0.0481427
-0.0528764
-0.054938
-0.0537135
-0.0501712
-0.0450038
-0.0389009
-0.032487
-0.0261946
-0.0203048
-0.0150107
-0.0104046
-0.00658224
-0.00358511
-0.0014424
-0.000189844
-0.636719
-0.101363
0.738082
-0.539131
-0.0975878
-0.449357
-0.0897746
-0.363746
-0.0856105
-0.282624
-0.0811218
-0.204568
-0.0780566
-0.128961
-0.0756065
-0.0550593
-0.073902
0.0177939
-0.0728532
0.090218
-0.072424
0.162813
-0.0725953
0.236174
-0.0733612
0.310931
-0.0747567
0.387644
-0.0767128
0.467236
-0.0795918
0.549943
-0.0827071
0.637701
-0.0877578
0.729626
-0.0919251
0.829983
-0.100357
-0.104949
-0.0772966
-0.10686
0.0827932
-0.0714298
-0.103455
-0.0606094
-0.100595
-0.0483808
-0.0978391
-0.0338481
-0.0956545
-0.0180327
-0.0938721
-0.00111149
-0.0925277
0.016571
-0.0915844
0.0347387
-0.0910208
0.0531408
-0.0908261
0.0715425
-0.090997
0.0897201
-0.0915388
0.107428
-0.092465
0.124525
-0.0938099
0.140514
-0.0955804
0.155716
-0.0979095
0.168641
-0.100682
0.181082
-0.104367
0.188976
-0.108251
-0.114383
-0.130383
-0.121217
0.144741
-0.112866
-0.120972
-0.0931474
-0.120313
-0.0714094
-0.119577
-0.0482146
-0.118849
-0.0238417
-0.118245
0.00143678
-0.117806
0.0274127
-0.11756
0.0539155
-0.117524
0.0807956
-0.117706
0.107916
-0.118117
0.135142
-0.118765
0.162338
-0.119661
0.189344
-0.120816
0.216012
-0.122249
0.242065
-0.123962
0.267384
-0.126002
0.291361
-0.128344
0.314063
-0.130952
-0.134287
-0.00079103
-0.124285
0.0038594
0.0017816
-0.123545
0.00425627
-0.122788
0.00675969
-0.122081
0.009388
-0.121478
0.0121436
-0.121001
0.0150007
-0.120663
0.0179132
-0.120473
0.0208237
-0.120434
0.0236691
-0.120552
0.026382
-0.12083
0.0288933
-0.121276
0.0311325
-0.1219
0.0330314
-0.122714
0.0345161
-0.123734
0.0355335
-0.124979
0.0359986
-0.126467
0.0358803
-0.128226
0.0351945
-0.130266
-0.132454
-0.035661
-0.132761
0.0441367
-0.0264296
-0.132776
-0.0165073
-0.13271
-0.00599004
-0.132598
0.00501512
-0.132483
0.0164175
-0.132403
0.0281383
-0.132384
0.0401074
-0.132442
0.0522589
-0.132586
0.0645292
-0.132822
0.0768553
-0.133156
0.0891724
-0.133594
0.101413
-0.134141
0.113506
-0.134807
0.125371
-0.135599
0.136919
-0.136527
0.148049
-0.137597
0.158635
-0.138811
0.168531
-0.140163
-0.141816
0.00340262
-0.133893
-0.00227097
0.00421839
-0.133592
0.00478868
-0.13328
0.00518684
-0.132996
0.00546826
-0.132764
0.00566463
-0.132599
0.00578959
-0.132509
0.00584515
-0.132497
0.00582661
-0.132567
0.00572545
-0.132721
0.00553109
-0.132962
0.00523205
-0.133295
0.00481653
-0.133726
0.00427296
-0.134263
0.00359021
-0.134916
0.00275894
-0.135695
0.00177054
-0.136609
0.000619854
-0.137661
-0.000711833
-0.138831
-0.139821
-0.0110303
-0.139416
0.0165537
-0.00517471
-0.139448
0.00100123
-0.139456
0.00745568
-0.13945
0.0141373
-0.139446
0.0209968
-0.139459
0.0279906
-0.139503
0.0350804
-0.139587
0.0422316
-0.139718
0.0494112
-0.1399
0.0565868
-0.140137
0.0637252
-0.140433
0.0707916
-0.140792
0.0777487
-0.14122
0.0845555
-0.141723
0.091166
-0.142306
0.0975287
-0.142972
0.103586
-0.143718
0.109278
-0.144523
-0.145443
-5.4223e-05
-0.139696
0.000334438
2.74588e-05
-0.139529
-6.97978e-05
-0.139359
-0.000313644
-0.139207
-0.000672059
-0.139087
-0.00111986
-0.139011
-0.00164002
-0.138983
-0.00222237
-0.139005
-0.00286148
-0.139079
-0.00355494
-0.139207
-0.00430203
-0.13939
-0.00510294
-0.139632
-0.00595828
-0.139937
-0.00686875
-0.14031
-0.00783498
-0.140757
-0.00885749
-0.141283
-0.00993796
-0.141891
-0.0110825
-0.142574
-0.0123033
-0.143302
-0.1438
-0.00233219
-0.143535
0.00617073
0.00169762
-0.143559
0.00591639
-0.143578
0.0103034
-0.143594
0.0148289
-0.143613
0.0194612
-0.143643
0.0241703
-0.143692
0.0289296
-0.143764
0.0337151
-0.143865
0.0385048
-0.143997
0.0432773
-0.144163
0.0480115
-0.144366
0.0526855
-0.144611
0.0572757
-0.1449
0.0617569
-0.145238
0.0661013
-0.145628
0.0702789
-0.146069
0.0742577
-0.146552
0.0779997
-0.147044
-0.147617
-0.00309163
-0.14348
0.0030369
-0.00327805
-0.143373
-0.00359042
-0.143265
-0.00401327
-0.143171
-0.00452767
-0.143098
-0.00511579
-0.143055
-0.00576311
-0.143045
-0.00645891
-0.143068
-0.00719576
-0.143128
-0.00796864
-0.143224
-0.00877421
-0.143357
-0.00961015
-0.14353
-0.0104748
-0.143746
-0.0113668
-0.144008
-0.0122853
-0.14432
-0.0132297
-0.144683
-0.0142004
-0.145098
-0.0151975
-0.145555
-0.0162104
-0.146031
-0.146282
0.00113236
-0.146318
0.00170606
0.00409731
-0.146338
0.00718958
-0.146358
0.0103981
-0.146379
0.0137043
-0.146405
0.0170868
-0.146438
0.0205239
-0.146482
0.0239956
-0.14654
0.0274833
-0.146616
0.0309703
-0.146711
0.0344406
-0.146827
0.0378786
-0.146968
0.0412683
-0.147136
0.044593
-0.147333
0.0478349
-0.147562
0.0509747
-0.147823
0.0539912
-0.148115
0.0568601
-0.148424
0.0595491
-0.14872
-0.149104
-0.00469977
-0.146058
0.00443974
-0.00505079
-0.145987
-0.00549239
-0.145916
-0.00601711
-0.145855
-0.00661367
-0.145808
-0.00726992
-0.145781
-0.00797466
-0.145777
-0.00871857
-0.145796
-0.00949438
-0.14584
-0.0102966
-0.145908
-0.0111211
-0.146003
-0.0119646
-0.146125
-0.0128248
-0.146276
-0.0136996
-0.146458
-0.0145877
-0.146674
-0.0154877
-0.146923
-0.0163977
-0.147205
-0.0173122
-0.14751
-0.0182111
-0.147821
-0.147927
0.00347595
-0.148144
-0.00139008
0.00565226
-0.148163
0.0079205
-0.148184
0.0102741
-0.148208
0.0127007
-0.148235
0.0151852
-0.148266
0.0177114
-0.148303
0.0202637
-0.148348
0.0228274
-0.148404
0.0253889
-0.14847
0.0279354
-0.148549
0.0304546
-0.148644
0.0329341
-0.148755
0.0353613
-0.148885
0.0377228
-0.149035
0.0400041
-0.149204
0.0421887
-0.149389
0.0442574
-0.149578
0.0461842
-0.149748
-0.150018
-0.00588687
-0.147841
0.00558349
-0.00625689
-0.147793
-0.00669465
-0.147747
-0.00719621
-0.147707
-0.00775439
-0.147677
-0.00836057
-0.14766
-0.00900617
-0.147658
-0.00968348
-0.147671
-0.0103861
-0.147701
-0.0111088
-0.147747
-0.0118477
-0.147811
-0.0125996
-0.147892
-0.0133624
-0.147992
-0.0141343
-0.148113
-0.0149137
-0.148256
-0.0156985
-0.14842
-0.0164847
-0.148603
-0.017263
-0.1488
-0.0180106
-0.149
-0.14902
0.00430246
-0.149458
-0.00268523
0.00598847
-0.149479
0.00774492
-0.149503
0.00956763
-0.149529
0.0114481
-0.149557
0.0133751
-0.149587
0.0153364
-0.149619
0.0173194
-0.149654
0.0193123
-0.149694
0.0213038
-0.149739
0.0232835
-0.14979
0.025241
-0.149849
0.0271664
-0.149918
0.0290494
-0.149996
0.030879
-0.150085
0.032643
-0.150184
0.0343269
-0.150287
0.0359136
-0.150387
0.0373815
-0.150468
-0.150659
-0.00568965
-0.149006
0.00523728
-0.00619239
-0.148976
-0.00674742
-0.148948
-0.00735291
-0.148924
-0.00800436
-0.148906
-0.00869578
-0.148895
-0.00942072
-0.148894
-0.010173
-0.148902
-0.0109471
-0.14892
-0.0117384
-0.148947
-0.0125431
-0.148985
-0.0133581
-0.149034
-0.0141809
-0.149095
-0.0150094
-0.149168
-0.0158413
-0.149253
-0.0166731
-0.149352
-0.0174989
-0.149461
-0.018308
-0.149578
-0.0190798
-0.149696
-0.149661
0.00540836
-0.150189
-0.00422502
0.00664554
-0.150213
0.0079383
-0.150241
0.00928404
-0.150269
0.0106768
-0.150298
0.0121081
-0.150327
0.0135686
-0.150354
0.0150483
-0.150382
0.0165374
-0.150409
0.0180267
-0.150437
0.0195072
-0.150466
0.0209703
-0.150498
0.0224077
-0.150532
0.0238105
-0.150571
0.0251693
-0.150612
0.0264734
-0.150656
0.0277102
-0.150698
0.0288651
-0.150733
0.0299205
-0.150751
-0.150885
-0.00611285
-0.149748
0.00567192
-0.00659102
-0.149735
-0.00710837
-0.149723
-0.00766401
-0.149714
-0.0082549
-0.149707
-0.00887662
-0.149705
-0.0095241
-0.149707
-0.0101922
-0.149714
-0.0108761
-0.149725
-0.0115715
-0.149741
-0.0122747
-0.149763
-0.0129825
-0.14979
-0.0136921
-0.149823
-0.0144008
-0.149862
-0.0151052
-0.149908
-0.0158005
-0.14996
-0.0164794
-0.150019
-0.0171307
-0.150081
-0.0177372
-0.150145
-0.15005
0.00570021
-0.150577
-0.00487154
0.00657248
-0.150608
0.00748968
-0.150641
0.00844985
-0.150674
0.00944841
-0.150706
0.0104789
-0.150735
0.0115337
-0.150762
0.0126049
-0.150785
0.0136845
-0.150805
0.014765
-0.150822
0.0158389
-0.150837
0.0168993
-0.15085
0.0179391
-0.150862
0.018951
-0.150874
0.0199271
-0.150884
0.0208582
-0.150892
0.021734
-0.150895
0.0225431
-0.15089
0.023272
-0.150874
-0.150958
-0.00597777
0.00540087
-0.00658534
-0.00722597
-0.00789998
-0.00860598
-0.00934144
-0.0101032
-0.0108879
-0.0116925
-0.0125142
-0.0133509
-0.0142011
-0.0150636
-0.0159374
-0.0168213
-0.0177129
-0.0186078
-0.0194982
-0.0203721
-0.380969
-0.125859
0.133782
0.373046
-0.389939
-0.124724
0.133694
-0.399992
-0.123492
0.133545
-0.411531
-0.122071
0.13361
-0.425109
-0.120462
0.13404
-0.441326
-0.118703
0.13492
-0.460778
-0.116841
0.136293
-0.483992
-0.114941
0.138155
-0.511366
-0.113079
0.140454
-0.543117
-0.111352
0.143103
-0.579196
-0.109895
0.145974
-0.61915
-0.108897
0.148851
-0.661888
-0.108594
0.151331
-0.705382
-0.109214
0.152709
-0.746416
-0.11086
0.151893
-0.780545
-0.113317
0.147447
-0.8024
-0.115883
0.137738
-0.806116
-0.117437
0.121153
-0.786778
-0.115338
0.0960008
-0.107178
0.0584818
-0.146647
-0.130419
0.151206
-0.141039
-0.130331
-0.13442
-0.130111
-0.126711
-0.12978
-0.11791
-0.129263
-0.108135
-0.128478
-0.0976364
-0.12734
-0.0868039
-0.125774
-0.0761594
-0.123723
-0.0663456
-0.121166
-0.0581484
-0.118092
-0.0522845
-0.114761
-0.0492475
-0.111631
-0.049432
-0.10903
-0.0529696
-0.107322
-0.0595515
-0.106735
-0.0682607
-0.107174
-0.0775647
-0.108133
-0.0840934
-0.108809
-0.108478
-0.263842
-0.12935
0.262774
-0.265184
-0.128989
-0.266791
-0.128504
-0.268603
-0.127968
-0.270478
-0.127388
-0.272174
-0.126783
-0.273334
-0.12618
-0.273529
-0.125579
-0.272292
-0.12496
-0.269091
-0.124367
-0.263339
-0.123844
-0.254677
-0.123423
-0.243199
-0.123108
-0.229362
-0.122866
-0.214053
-0.122632
-0.198447
-0.122341
-0.183641
-0.12198
-0.170148
-0.121626
-0.157564
-0.121393
-0.121302
-0.0523647
-0.133289
0.0563033
-0.0483303
-0.133024
-0.0442165
-0.132618
-0.0401221
-0.132062
-0.0361663
-0.131344
-0.032489
-0.13046
-0.0292442
-0.129424
-0.0265465
-0.128277
-0.0244236
-0.127083
-0.02286
-0.125931
-0.0217822
-0.124922
-0.0210531
-0.124152
-0.0204721
-0.123689
-0.019779
-0.123559
-0.0186808
-0.12373
-0.0169102
-0.124111
-0.0143269
-0.124564
-0.0110294
-0.124924
-0.00738134
-0.125041
-0.124824
-0.166258
-0.135467
0.168436
-0.163962
-0.135319
-0.161431
-0.13515
-0.158563
-0.13493
-0.155239
-0.134668
-0.151326
-0.134372
-0.146693
-0.134058
-0.141225
-0.133744
-0.134855
-0.133452
-0.127584
-0.133203
-0.119497
-0.133008
-0.110778
-0.132871
-0.101689
-0.132779
-0.0925371
-0.132711
-0.0836187
-0.132649
-0.0751427
-0.132587
-0.0671639
-0.132542
-0.0595479
-0.13254
-0.0519958
-0.132593
-0.132683
-0.0213217
-0.13762
0.0234746
-0.0191896
-0.137451
-0.0171942
-0.137145
-0.0153634
-0.136761
-0.0137273
-0.136304
-0.0123106
-0.135789
-0.0111265
-0.135242
-0.0101719
-0.134699
-0.00942359
-0.134201
-0.00883646
-0.13379
-0.00834363
-0.133501
-0.00785876
-0.133356
-0.00728238
-0.133355
-0.00651478
-0.133478
-0.00547758
-0.133686
-0.00414206
-0.133923
-0.00255423
-0.13413
-0.000839963
-0.134254
0.000824325
-0.134257
-0.13413
-0.107203
-0.140253
0.109837
-0.10452
-0.140134
-0.101597
-0.140068
-0.0983828
-0.139975
-0.0948253
-0.139861
-0.090881
-0.139733
-0.0865214
-0.139602
-0.0817416
-0.139479
-0.0765672
-0.139375
-0.0710583
-0.139299
-0.0653074
-0.139252
-0.0594323
-0.139231
-0.0535612
-0.139226
-0.0478123
-0.139227
-0.0422697
-0.139228
-0.0369626
-0.13923
-0.0318535
-0.139239
-0.0268422
-0.139265
-0.0217895
-0.13931
-0.139365
-0.0102306
-0.141426
0.0114032
-0.00901334
-0.141352
-0.00793061
-0.14115
-0.00699585
-0.14091
-0.00621841
-0.140639
-0.00560144
-0.14035
-0.00513992
-0.140063
-0.0048189
-0.1398
-0.00461253
-0.139582
-0.00448409
-0.139427
-0.00438751
-0.139349
-0.00427071
-0.139348
-0.00408163
-0.139415
-0.00377717
-0.139532
-0.00333426
-0.139671
-0.00276009
-0.139804
-0.00209686
-0.139903
-0.00141643
-0.139946
-0.000803839
-0.139923
-0.139835
-0.0722004
-0.14377
0.0745449
-0.0698878
-0.143664
-0.0673983
-0.14364
-0.0647034
-0.143605
-0.0617811
-0.143561
-0.058619
-0.143513
-0.0552171
-0.143465
-0.0515912
-0.143426
-0.0477742
-0.143399
-0.0438154
-0.143386
-0.0397768
-0.143387
-0.0357268
-0.143398
-0.0317306
-0.143412
-0.0278392
-0.143423
-0.0240798
-0.143431
-0.0204482
-0.143436
-0.0169082
-0.143443
-0.0133977
-0.143456
-0.00984209
-0.143478
-0.143506
-0.00601208
-0.144368
0.0066093
-0.00532569
-0.144351
-0.00474812
-0.144217
-0.00428823
-0.144065
-0.0039493
-0.1439
-0.00372883
-0.143733
-0.00361818
-0.143576
-0.00360215
-0.143442
-0.00365882
-0.143342
-0.00376031
-0.143285
-0.00387449
-0.143273
-0.003968
-0.143304
-0.0040107
-0.143369
-0.00398114
-0.143453
-0.00387212
-0.14354
-0.0036946
-0.143613
-0.00347787
-0.143659
-0.00326501
-0.143669
-0.00310396
-0.143639
-0.143573
-0.0518517
-0.146376
0.0538601
-0.0499201
-0.146282
-0.0478579
-0.14628
-0.0456495
-0.146273
-0.0432856
-0.146264
-0.040765
-0.146254
-0.0380962
-0.146245
-0.0352975
-0.14624
-0.0323974
-0.146242
-0.0294325
-0.14625
-0.0264447
-0.146261
-0.0234758
-0.146273
-0.0205621
-0.146283
-0.017728
-0.146287
-0.0149819
-0.146286
-0.012313
-0.146282
-0.00969344
-0.146279
-0.00708235
-0.14628
-0.00443394
-0.146288
-0.146301
-0.00224332
-0.146541
0.00240803
-0.00196571
-0.14656
-0.00177359
-0.146472
-0.00167276
-0.146374
-0.00166445
-0.146272
-0.00174486
-0.146173
-0.00190531
-0.146084
-0.00213231
-0.146013
-0.00240789
-0.145966
-0.00271045
-0.145947
-0.00301648
-0.145955
-0.00330297
-0.145987
-0.00355056
-0.146035
-0.00374701
-0.14609
-0.00389014
-0.146143
-0.00398943
-0.146183
-0.00406528
-0.146203
-0.00414579
-0.1462
-0.00426152
-0.146172
-0.146123
-0.0357209
-0.148128
0.0373087
-0.0342348
-0.148046
-0.0326498
-0.148057
-0.0309575
-0.148066
-0.0291546
-0.148075
-0.0272442
-0.148084
-0.0252364
-0.148092
-0.0231479
-0.148102
-0.0210015
-0.148113
-0.0188242
-0.148124
-0.0166448
-0.148134
-0.0144901
-0.148141
-0.0123813
-0.148144
-0.0103307
-0.148141
-0.00833941
-0.148134
-0.00639653
-0.148126
-0.00448089
-0.148119
-0.00256433
-0.148116
-0.000616514
-0.14812
-0.148129
-0.00193379
-0.148117
0.00192211
-0.00182496
-0.148155
-0.00178598
-0.148096
-0.0018196
-0.148033
-0.00192527
-0.14797
-0.00209843
-0.14791
-0.00233079
-0.14786
-0.00261062
-0.147822
-0.00292325
-0.1478
-0.00325199
-0.147795
-0.00357958
-0.147807
-0.00389005
-0.147831
-0.00417088
-0.147863
-0.00441511
-0.147897
-0.004623
-0.147926
-0.00480253
-0.147946
-0.00496857
-0.147953
-0.00514056
-0.147944
-0.00533931
-0.147921
-0.147885
-0.0262755
-0.149429
0.0275873
-0.0250726
-0.149358
-0.0237908
-0.149377
-0.0224269
-0.149397
-0.0209814
-0.149415
-0.0194596
-0.149432
-0.0178719
-0.149447
-0.016233
-0.149461
-0.0145612
-0.149472
-0.0128769
-0.14948
-0.0112003
-0.149483
-0.00954904
-0.149482
-0.00793602
-0.149476
-0.00636714
-0.149466
-0.0048403
-0.149453
-0.00334556
-0.149441
-0.0018664
-0.149432
-0.000382229
-0.149428
0.00112853
-0.149432
-0.149442
0.00192391
-0.149149
-0.00220366
0.00176629
-0.1492
0.0015533
-0.149164
0.0012841
-0.149128
0.000960107
-0.149091
0.000585806
-0.149058
0.000168548
-0.14903
-0.000281816
-0.149011
-0.000753455
-0.149
-0.00123345
-0.149
-0.00170894
-0.149008
-0.00216855
-0.149023
-0.00260386
-0.149041
-0.00301083
-0.149059
-0.00339063
-0.149073
-0.00374985
-0.149082
-0.0040997
-0.149082
-0.0044544
-0.149074
-0.00482903
-0.149057
-0.149034
-0.0171351
-0.150173
0.0181591
-0.0162223
-0.150113
-0.0152501
-0.150137
-0.0142174
-0.15016
-0.0131259
-0.150183
-0.0119812
-0.150203
-0.0107922
-0.150219
-0.00957108
-0.150232
-0.0083323
-0.150239
-0.00709119
-0.150241
-0.00586232
-0.150237
-0.00465781
-0.150227
-0.00348563
-0.150213
-0.00234844
-0.150196
-0.00124309
-0.150179
-0.000160857
-0.150164
0.000911355
-0.150154
0.00198925
-0.150152
0.00308899
-0.150157
-0.15017
0.00176419
-0.149813
-0.0021238
0.00154404
-0.149893
0.00127787
-0.149871
0.000965849
-0.149848
0.000609901
-0.149827
0.000214425
-0.149807
-0.000214019
-0.149791
-0.000667071
-0.149779
-0.00113507
-0.149771
-0.00160776
-0.149768
-0.00207526
-0.149769
-0.00252909
-0.149773
-0.00296325
-0.149779
-0.0033751
-0.149784
-0.00376592
-0.149788
-0.00414085
-0.149789
-0.00450829
-0.149787
-0.00487871
-0.149781
-0.0052632
-0.149772
-0.149761
-0.00991993
-0.150584
0.0106908
-0.00928159
-0.150531
-0.00859914
-0.150553
-0.00787265
-0.150575
-0.00710416
-0.150595
-0.00629863
-0.150613
-0.00546369
-0.150626
-0.00460911
-0.150633
-0.00374598
-0.150634
-0.00288563
-0.150629
-0.00203837
-0.150617
-0.0012122
-0.150599
-0.00041176
-0.150579
0.000362397
-0.150558
0.00111397
-0.150539
0.00185052
-0.150526
0.00258256
-0.150519
0.00332219
-0.150521
0.00408159
-0.150532
-0.150551
0.00552793
-0.00611193
0.00499677
0.00444373
0.003869
0.00327389
0.00266129
0.00203558
0.00140238
0.000768141
0.00013961
-0.000476913
-0.00107632
-0.00165545
-0.00221363
-0.00275304
-0.0032786
-0.00379747
-0.00431826
-0.00484996
-0.125475
-0.0592366
0.184712
-0.0751851
-0.05029
-0.0380624
-0.0371227
-0.00990313
-0.0281592
0.0107095
-0.0206127
0.0250778
-0.0143683
0.034318
-0.00924016
0.0394277
-0.0051097
0.0412805
-0.00185286
0.0405747
0.000705887
0.0378349
0.0027398
0.0336966
0.00413828
0.0286825
0.00501403
0.0232411
0.00544142
0.0177498
0.0054913
0.0125193
0.00523056
0.00781698
0.00470229
0.00391482
0.00390215
0.00114798
0.00276684
0.00114798
-0.112458
-0.0929112
0.146133
-0.0858972
-0.0768511
-0.0596163
-0.0634036
-0.0374953
-0.0502802
-0.0194902
-0.0386178
-0.0055172
-0.0283412
0.00484392
-0.0196013
0.0120805
-0.0123463
0.0166815
-0.00645387
0.0191357
-0.00174822
0.0199965
0.0018789
0.0195277
0.00460713
0.0179663
0.00657545
0.0155697
0.00783799
0.0125965
0.00846452
0.0093184
0.00850866
0.00603855
0.00798214
0.00310682
0.00683387
0.000935706
0.00493796
0.00208369
-0.127006
-0.115765
0.14986
-0.103836
-0.100022
-0.0818312
-0.0854083
-0.0621089
-0.0700025
-0.0452029
-0.0555239
-0.0313072
-0.0422369
-0.0203298
-0.0305787
-0.0119627
-0.0207134
-0.00580415
-0.0126124
-0.00143835
-0.00611402
0.00143026
-0.000989704
0.00313656
0.00290082
0.00392611
0.0057859
0.00397971
0.00778439
0.00347783
0.00896639
0.00262255
0.00936394
0.00163821
0.00896649
0.000754004
0.00771808
0.000170014
0.00552195
0.0022537
-0.123677
-0.128408
0.13632
-0.108212
-0.115487
-0.0912301
-0.10239
-0.0739539
-0.0872787
-0.0577796
-0.0716982
-0.0435742
-0.0564423
-0.0318136
-0.0423393
-0.0225701
-0.0299568
-0.0156215
-0.0195611
-0.0105834
-0.0111521
-0.00702103
-0.00455204
-0.00461762
0.00049741
-0.00301194
0.00418023
-0.0019821
0.00675454
-0.00134595
0.00833025
-0.00095169
0.00896968
-0.000672589
0.00868739
-0.000419824
0.00746531
-0.000169377
0.0052715
0.00208433
-0.133535
-0.139295
0.144421
-0.119637
-0.129385
-0.104032
-0.117995
-0.0873467
-0.103964
-0.0706685
-0.0883764
-0.0550367
-0.0720741
-0.0412876
-0.0560884
-0.029912
-0.0413324
-0.0210216
-0.0284515
-0.0144187
-0.017755
-0.00971934
-0.00925145
-0.00647048
-0.00275145
-0.00430562
0.00201537
-0.00286852
0.00531744
-0.00190352
0.00736525
-0.00123232
0.00829848
-0.000740892
0.00819596
-0.000370467
0.00709489
-0.000111941
0.00501298
0.00197238
-0.13166
-0.14449
0.136855
-0.123028
-0.138017
-0.111463
-0.129559
-0.0973847
-0.118043
-0.0818166
-0.103945
-0.0659146
-0.0879761
-0.0508355
-0.0711675
-0.0374998
-0.0546681
-0.026454
-0.0394973
-0.0178444
-0.0263646
-0.0114976
-0.0155983
-0.00705189
-0.00719713
-0.00408206
-0.000954467
-0.00219224
0.00342762
-0.00104787
0.00622088
-0.000400066
0.00765067
-7.58112e-05
0.0078717
4.19755e-05
0.0069771
3.92096e-05
0.00501574
0.00201159
-0.136253
-0.148786
0.140549
-0.12931
-0.14496
-0.119836
-0.139034
-0.107739
-0.13014
-0.0934568
-0.118226
-0.07783
-0.103603
-0.0619745
-0.0870231
-0.0470346
-0.0696079
-0.0339291
-0.0526027
-0.0231852
-0.0371086
-0.014916
-0.0238674
-0.00891942
-0.0131937
-0.00482335
-0.00505054
-0.00220096
0.000805239
-0.000666645
0.00468656
0.000103227
0.0068808
0.00036292
0.00761201
0.000314135
0.00702589
0.000132862
0.00519702
0.00214446
-0.133246
-0.149677
0.134138
-0.129979
-0.148227
-0.124087
-0.144926
-0.115189
-0.139037
-0.103402
-0.130013
-0.0892474
-0.117758
-0.0736747
-0.102596
-0.0579015
-0.0853811
-0.0431513
-0.067353
-0.0303758
-0.0498841
-0.020083
-0.0341602
-0.0123329
-0.0209438
-0.00686735
-0.0105161
-0.00327546
-0.00278665
-0.00111983
0.00253093
-6.6061e-06
0.00576758
0.000396641
0.00720876
0.000368415
0.00705411
0.00015594
0.00540949
0.0023004
-0.133982
-0.150229
0.134534
-0.131968
-0.150241
-0.128044
-0.14885
-0.121637
-0.145444
-0.112364
-0.139287
-0.100243
-0.129879
-0.0857817
-0.117057
-0.0699698
-0.101193
-0.0540964
-0.0832264
-0.0394494
-0.0645311
-0.0269977
-0.0466119
-0.0172064
-0.0307351
-0.0100555
-0.017667
-0.00520585
-0.00763628
-0.0021899
-0.000485024
-0.000533182
0.00411086
0.000179111
0.00649647
0.000302111
0.00693111
0.000146219
0.00556538
0.00244661
-0.130384
-0.149116
0.129272
-0.130444
-0.150182
-0.128996
-0.150297
-0.125373
-0.149068
-0.119032
-0.145628
-0.109632
-0.139279
-0.0972354
-0.129453
-0.0824281
-0.116
-0.066305
-0.0993495
-0.050275
-0.0805611
-0.0357152
-0.0611717
-0.0236139
-0.0428364
-0.0143785
-0.0269024
-0.00788895
-0.0141259
-0.00370719
-0.00466679
-0.001298
0.00170167
-0.000142902
0.00534137
0.000205892
0.00658232
0.000136101
0.00563517
0.00258272
-0.129448
-0.148098
0.128429
-0.130025
-0.149604
-0.129736
-0.150586
-0.128006
-0.150798
-0.124127
-0.149507
-0.117475
-0.145931
-0.107663
-0.139265
-0.0947551
-0.128909
-0.0793956
-0.114709
-0.0627951
-0.0971616
-0.0464981
-0.0774686
-0.0319808
-0.0573537
-0.0202426
-0.0386406
-0.0116096
-0.0227588
-0.00583509
-0.0104413
-0.00236802
-0.0017654
-0.000586874
0.00356023
7.92192e-05
0.00591623
0.000126561
0.00558783
0.00270928
-0.126387
-0.146467
0.124756
-0.127843
-0.148148
-0.128814
-0.149615
-0.128804
-0.150808