/*--------------------------------*- C++ -*----------------------------------*\
| =========                 |                                                 |
| \\      /  F ield         | OpenFOAM: The Open Source CFD Toolbox           |
|  \\    /   O peration     | Version:  v1806                                 |
|   \\  /    A nd           | Web:      www.OpenFOAM.com                      |
|    \\/     M anipulation  |                                                 |
\*---------------------------------------------------------------------------*/
FoamFile
{
    version     2.0;
    format      ascii;
    class       volScalarField;
    location    "250";
    object      p;
}
// * * * * * * * * * * * * * * * * * * * * * * * * * * * * * * * * * * * * * //

dimensions      [0 2 -2 0 0 0 0];


internalField   nonuniform List<scalar> 
4400
(
0.0091767
0.0107067
0.0119825
0.0122163
0.0115684
0.0104595
0.00920493
0.00797819
0.00685421
0.00585248
0.00496991
0.00419328
0.00350745
0.00289843
0.00235338
0.00186028
0.00140792
0.000985908
0.000584704
0.000195001
0.0220282
0.0175557
0.0140508
0.0115893
0.00986728
0.00856687
0.00750191
0.00659012
0.00579695
0.00510176
0.00448543
0.00392881
0.00341478
0.00292975
0.00246365
0.00200917
0.00156105
0.00111565
0.000671154
0.000226412
0.0148505
0.0137653
0.0127105
0.0117037
0.0108153
0.01002
0.00925381
0.00848428
0.00770837
0.006936
0.00617856
0.00544311
0.00473248
0.00404683
0.00338472
0.00274358
0.00211993
0.00150943
0.000907082
0.000305678
0.013509
0.0126649
0.0116954
0.0106731
0.00968001
0.00876646
0.0079365
0.00717575
0.00646614
0.00579571
0.005158
0.00454901
0.00396511
0.0034024
0.00285679
0.0023243
0.00180127
0.00128464
0.000772263
0.000260934
0.00985174
0.00946757
0.00904931
0.00860365
0.00813252
0.00764336
0.00714999
0.00665423
0.00615179
0.00564027
0.0051202
0.00459365
0.00406277
0.00352918
0.00299379
0.00245683
0.00191803
0.00137673
0.000831918
0.000280747
0.00839895
0.00811433
0.0077655
0.00736243
0.006922
0.00646211
0.0059969
0.00553409
0.00507611
0.00462275
0.00417302
0.00372626
0.00328223
0.00284077
0.00240162
0.00196434
0.00152836
0.00109321
0.00065871
0.000222948
0.00635783
0.00618677
0.00598921
0.00576832
0.00552476
0.00526028
0.00497678
0.00467678
0.00436266
0.0040351
0.00369464
0.00334218
0.00297883
0.00260577
0.00222405
0.00183454
0.00143798
0.00103507
0.000626434
0.000211315
0.00531942
0.00518829
0.00502349
0.00482799
0.00460626
0.00436269
0.00410261
0.00383082
0.00355016
0.00326253
0.00296906
0.00267044
0.00236727
0.00206017
0.00174973
0.00143648
0.0011209
0.000803506
0.000484897
0.000164123
0.00408375
0.00399496
0.00388828
0.00376555
0.00362688
0.00347291
0.00330445
0.00312217
0.00292687
0.00271938
0.00250039
0.0022706
0.0020308
0.00178185
0.00152462
0.00125999
0.000988855
0.00071219
0.000430922
0.00014514
0.00338999
0.00331974
0.00322991
0.00312176
0.00299705
0.00285728
0.00270432
0.00254026
0.00236697
0.00218575
0.00199766
0.00180353
0.00160409
0.00139999
0.00119189
0.000980417
0.000766173
0.000549819
0.000332039
0.000112385
0.0026199
0.00256955
0.00250727
0.0024343
0.00235063
0.00225652
0.00215238
0.00203857
0.00191544
0.00178341
0.00164291
0.00149444
0.00133855
0.00117584
0.00100696
0.000832622
0.000653559
0.000470621
0.000284618
9.57666e-05
0.00217202
0.00213136
0.00207846
0.00201419
0.00193942
0.0018548
0.00176114
0.00165938
0.00155053
0.00143545
0.00131487
0.00118942
0.00105967
0.000926182
0.000789461
0.000650014
0.000508337
0.000364971
0.000220434
7.45094e-05
0.00169065
0.00166042
0.00162226
0.00157702
0.00152464
0.00146527
0.00139914
0.00132647
0.0012475
0.00116247
0.00107166
0.000975396
0.000874048
0.000768032
0.000657809
0.000543881
0.0004268
0.000307177
0.000185591
6.23309e-05
0.00141156
0.00138671
0.00135385
0.00131378
0.00126693
0.00121363
0.00115429
0.00108941
0.00101954
0.000945194
0.000866869
0.000785003
0.000700013
0.000612294
0.000522227
0.000430184
0.000336527
0.000241645
0.000145923
4.92782e-05
0.00111586
0.00109674
0.00107224
0.001043
0.00100895
0.000970152
0.000926767
0.000878951
0.000826864
0.000770679
0.000710589
0.000646815
0.000579613
0.000509271
0.00043611
0.000360481
0.000282773
0.00020341
0.000122795
4.11766e-05
0.000952284
0.000936749
0.000914994
0.00088865
0.00085778
0.000822522
0.000783126
0.000739891
0.000693134
0.000643184
0.000590366
0.000534989
0.000477351
0.000417734
0.000356419
0.000293673
0.000229762
0.000164965
9.9547e-05
3.35221e-05
0.000780915
0.000768187
0.000751455
0.000731184
0.000707448
0.00068031
0.000649876
0.000616268
0.000579621
0.000540077
0.000497791
0.000452934
0.000405698
0.000356294
0.000304955
0.000251935
0.000197509
0.000141965
8.55822e-05
2.86213e-05
0.000698484
0.000686569
0.000670952
0.00065175
0.000629297
0.000603688
0.000575091
0.000543694
0.000509699
0.000473318
0.000434764
0.000394255
0.000352002
0.000308213
0.000263094
0.000216851
0.000169687
0.000121813
7.34443e-05
2.46696e-05
0.000612315
0.000601248
0.000587576
0.000571431
0.000552769
0.000531595
0.000507947
0.000481881
0.000453466
0.000422782
0.000389928
0.000355018
0.000318188
0.000279593
0.000239414
0.000197852
0.00015513
0.000111481
6.71449e-05
2.24039e-05
0.000600648
0.000591289
0.000578575
0.000562624
0.000543664
0.00052187
0.000497418
0.000470492
0.000441279
0.000409964
0.000376731
0.000341763
0.000305241
0.000267348
0.000228264
0.000188172
0.000147251
0.000105682
6.366e-05
2.13267e-05
0.0348139
0.0351213
0.0352648
0.0353033
0.0352308
0.0350397
0.0347283
0.0342951
0.0337377
0.0330523
0.0322348
0.0312802
0.0301828
0.0289359
0.0275323
0.0259641
0.0242245
0.0223069
0.0201783
0.0177481
0.0282247
0.0284089
0.028552
0.0286563
0.0287233
0.0287536
0.0287472
0.0287039
0.0286236
0.0285054
0.0283488
0.0281527
0.027916
0.0276372
0.0273144
0.0269454
0.0265294
0.0260687
0.0255495
0.0248878
0.0178885
0.0178628
0.0178248
0.0177741
0.0177107
0.0176345
0.0175457
0.0174444
0.0173309
0.0172057
0.0170692
0.0169221
0.0167649
0.0165987
0.0164243
0.0162427
0.016055
0.0158618
0.0156656
0.0154739
0.0150155
0.0150209
0.0150196
0.0150114
0.0149963
0.0149741
0.0149449
0.0149087
0.0148655
0.0148154
0.0147585
0.0146947
0.0146243
0.0145474
0.0144641
0.0143745
0.0142789
0.0141779
0.0140708
0.0139519
0.0106369
0.0106269
0.0106142
0.0105986
0.0105803
0.0105592
0.0105355
0.0105091
0.0104801
0.0104486
0.0104146
0.0103781
0.0103393
0.0102982
0.010255
0.0102096
0.010162
0.0101121
0.0100604
0.0100104
0.00892912
0.00892872
0.00892615
0.0089214
0.00891448
0.0089054
0.00889417
0.00888081
0.00886532
0.00884772
0.00882803
0.00880626
0.00878243
0.00875656
0.00872866
0.00869872
0.00866686
0.00863335
0.00859785
0.00855723
0.00665056
0.00664881
0.00664586
0.00664172
0.00663639
0.00662987
0.00662218
0.00661332
0.0066033
0.00659212
0.0065798
0.00656634
0.00655175
0.00653604
0.00651921
0.0065013
0.00648225
0.00646191
0.00644053
0.0064201
0.00554716
0.00554811
0.00554804
0.00554696
0.00554488
0.00554179
0.00553769
0.0055326
0.00552651
0.00551942
0.00551135
0.00550229
0.00549225
0.00548122
0.00546921
0.00545622
0.00544228
0.00542756
0.00541188
0.00539348
0.00421334
0.00421401
0.00421402
0.00421335
0.00421202
0.00421003
0.00420736
0.00420404
0.00420005
0.00419541
0.0041901
0.00418414
0.00417752
0.00417025
0.00416233
0.00415377
0.00414453
0.00413453
0.00412391
0.00411381
0.00350082
0.00350219
0.003503
0.00350323
0.0035029
0.003502
0.00350054
0.00349851
0.00349592
0.00349276
0.00348905
0.00348477
0.00347993
0.00347453
0.00346856
0.00346204
0.00345497
0.00344745
0.0034394
0.00342976
0.00268292
0.0026841
0.00268487
0.00268522
0.00268517
0.00268471
0.00268384
0.00268256
0.00268088
0.00267878
0.00267628
0.00267337
0.00267005
0.00266633
0.0026622
0.00265767
0.00265273
0.00264731
0.00264149
0.00263599
0.00223098
0.00223223
0.00223314
0.0022337
0.00223391
0.00223378
0.0022333
0.00223248
0.00223131
0.00222979
0.00222793
0.00222573
0.00222318
0.00222029
0.00221705
0.00221347
0.00220955
0.00220534
0.0022008
0.0021954
0.00172347
0.00172456
0.00172539
0.00172596
0.00172626
0.0017263
0.00172609
0.00172561
0.00172487
0.00172387
0.00172261
0.00172108
0.0017193
0.00171726
0.00171495
0.00171239
0.00170957
0.00170644
0.00170305
0.00169986
0.00144545
0.00144643
0.00144718
0.00144772
0.00144803
0.00144812
0.001448
0.00144765
0.00144708
0.00144629
0.00144528
0.00144404
0.00144259
0.00144092
0.00143903
0.00143691
0.00143458
0.00143208
0.00142937
0.00142602
0.00113432
0.00113518
0.00113587
0.0011364
0.00113674
0.00113692
0.00113692
0.00113675
0.00113641
0.0011359
0.00113521
0.00113435
0.00113332
0.00113212
0.00113074
0.0011292
0.00112748
0.00112555
0.00112346
0.00112149
0.000973346
0.00097409
0.000974683
0.000975129
0.000975427
0.000975577
0.000975579
0.000975433
0.000975139
0.000974697
0.000974108
0.000973371
0.000972487
0.000971455
0.000970274
0.000968944
0.000967473
0.00096589
0.000964164
0.000961968
0.000792093
0.00079277
0.00079333
0.000793769
0.000794087
0.000794286
0.000794363
0.000794321
0.000794157
0.000793874
0.00079347
0.000792946
0.000792302
0.000791538
0.000790655
0.000789655
0.00078853
0.000787266
0.000785885
0.000784587
0.000712987
0.000713565
0.000714034
0.000714395
0.000714647
0.00071479
0.000714824
0.00071475
0.000714566
0.000714274
0.000713872
0.000713362
0.000712742
0.000712014
0.000711175
0.000710226
0.000709172
0.00070803
0.000706782
0.000705219
0.000623537
0.000624097
0.000624552
0.000624903
0.000625148
0.000625288
0.000625322
0.000625251
0.000625073
0.00062479
0.000624401
0.000623905
0.000623303
0.000622594
0.000621779
0.000620858
0.000619827
0.000618676
0.000617418
0.000616174
0.000608628
0.000609217
0.000609712
0.00061012
0.000610439
0.00061067
0.000610813
0.000610868
0.000610835
0.000610714
0.000610504
0.000610206
0.00060982
0.000609347
0.000608785
0.000608136
0.0006074
0.000606583
0.000605681
0.000604649
0.0245711
0.0251534
0.0257172
0.0262698
0.0268107
0.0273381
0.0278513
0.0283499
0.0288343
0.029305
0.0297632
0.0302108
0.0306504
0.0310856
0.0315214
0.0319638
0.0324208
0.0329118
0.0334824
0.0341671
0.0215518
0.0219235
0.0222943
0.0226643
0.0230331
0.0234004
0.0237656
0.0241282
0.0244878
0.0248437
0.0251955
0.0255425
0.0258838
0.0262186
0.0265458
0.0268638
0.027171
0.0274652
0.0277435
0.0280002
0.0164839
0.0166156
0.0167458
0.0168709
0.0169903
0.0171037
0.0172111
0.017312
0.017406
0.017493
0.0175726
0.0176445
0.0177083
0.0177638
0.0178107
0.0178486
0.0178771
0.0178959
0.0179045
0.0179022
0.0137146
0.0138251
0.0139289
0.0140291
0.0141259
0.0142188
0.0143076
0.014392
0.014472
0.0145473
0.0146177
0.0146831
0.0147432
0.0147979
0.0148471
0.0148905
0.014928
0.0149594
0.0149845
0.0150033
0.0102543
0.010296
0.0103381
0.0103778
0.0104146
0.0104489
0.0104806
0.0105097
0.0105361
0.0105598
0.0105808
0.010599
0.0106145
0.0106272
0.010637
0.0106441
0.0106483
0.0106497
0.0106483
0.010644
0.00849092
0.00853357
0.00857232
0.00860918
0.00864435
0.00867763
0.00870893
0.00873824
0.00876554
0.0087908
0.008814
0.00883512
0.00885414
0.00887105
0.00888582
0.00889845
0.00890893
0.00891724
0.00892338
0.00892734
0.00642979
0.00645101
0.0064727
0.0064932
0.00651231
0.00653016
0.0065468
0.00656221
0.00657639
0.00658933
0.00660105
0.00661153
0.00662077
0.00662879
0.00663557
0.00664112
0.00664545
0.00664855
0.00665044
0.00665111
0.00531446
0.00533665
0.00535664
0.00537564
0.00539378
0.00541095
0.00542712
0.00544229
0.00545645
0.0054696
0.00548174
0.00549287
0.00550298
0.00551207
0.00552014
0.00552719
0.00553322
0.00553823
0.00554223
0.0055452
0.00405839
0.00407171
0.00408539
0.00409839
0.0041106
0.00412212
0.00413295
0.00414311
0.00415259
0.00416139
0.0041695
0.00417694
0.00418369
0.00418977
0.00419516
0.00419988
0.00420392
0.00420728
0.00420997
0.00421199
0.00335319
0.00336661
0.0033787
0.00339023
0.00340128
0.00341177
0.0034217
0.00343106
0.00343985
0.00344807
0.00345572
0.0034628
0.00346931
0.00347524
0.00348061
0.00348541
0.00348963
0.00349329
0.00349637
0.00349888
0.00257345
0.00258226
0.00259133
0.00259998
0.00260816
0.00261591
0.00262326
0.0026302
0.00263672
0.00264284
0.00264854
0.00265383
0.00265871
0.00266318
0.00266723
0.00267088
0.00267411
0.00267693
0.00267934
0.00268134
0.00213304
0.00214163
0.00214938
0.00215679
0.00216391
0.0021707
0.00217714
0.00218323
0.00218898
0.00219438
0.00219944
0.00220415
0.00220852
0.00221254
0.00221621
0.00221954
0.00222252
0.00222515
0.00222744
0.00222938
0.00164735
0.00165325
0.00165932
0.00166514
0.00167065
0.0016759
0.00168089
0.00168562
0.0016901
0.00169431
0.00169826
0.00170196
0.00170539
0.00170856
0.00171148
0.00171413
0.00171652
0.00171865
0.00172052
0.00172212
0.00137951
0.00138516
0.00139026
0.00139515
0.00139985
0.00140435
0.00140862
0.00141268
0.00141652
0.00142014
0.00142354
0.00142672
0.00142968
0.00143242
0.00143495
0.00143725
0.00143933
0.00144119
0.00144284
0.00144426
0.00108122
0.00108524
0.00108938
0.00109335
0.00109713
0.00110073
0.00110416
0.00110742
0.00111052
0.00111344
0.00111619
0.00111878
0.00112119
0.00112343
0.0011255
0.0011274
0.00112913
0.00113068
0.00113207
0.00113328
0.000927613
0.000931476
0.000934963
0.000938307
0.000941532
0.000944617
0.000947555
0.000950348
0.000952995
0.000955497
0.000957853
0.000960062
0.000962126
0.000964043
0.000965813
0.000967435
0.000968911
0.00097024
0.000971421
0.000972454
0.000753694
0.000756541
0.000759492
0.000762326
0.000765021
0.000767595
0.000770055
0.000772399
0.000774626
0.000776734
0.000778725
0.000780598
0.000782353
0.000783988
0.000785505
0.000786902
0.00078818
0.000789338
0.000790376
0.000791295
0.000678758
0.000681618
0.000684204
0.000686687
0.000689083
0.000691377
0.000693565
0.000695646
0.000697622
0.000699491
0.000701254
0.00070291
0.00070446
0.000705903
0.000707238
0.000708466
0.000709586
0.000710598
0.000711503
0.0007123
0.000590478
0.000593012
0.000595566
0.000598016
0.000600349
0.000602576
0.000604701
0.000606723
0.00060864
0.000610454
0.000612165
0.000613771
0.000615273
0.000616672
0.000617966
0.000619156
0.000620242
0.000621224
0.000622101
0.000622873
0.00057906
0.000581351
0.000583521
0.000585614
0.000587631
0.000589569
0.000591425
0.0005932
0.000594893
0.000596503
0.000598029
0.000599472
0.000600831
0.000602105
0.000603294
0.000604398
0.000605416
0.000606347
0.000607192
0.00060795
0.0136265
0.0218256
0.0256962
0.0282044
0.0300536
0.0314054
0.0323662
0.0330157
0.0334136
0.0336083
0.0336412
0.0335481
0.0333616
0.0331115
0.0328263
0.0325334
0.0322602
0.0320354
0.0318912
0.0318506
0.0106921
0.0178785
0.0225185
0.0257961
0.0281583
0.0298584
0.0310724
0.0319173
0.0324749
0.0328063
0.0329604
0.0329781
0.0328943
0.0327404
0.0325447
0.0323335
0.0321314
0.0319612
0.0318474
0.0318089
0.0113293
0.0171724
0.0215042
0.0247941
0.0272362
0.029031
0.030337
0.031266
0.0318997
0.0323007
0.0325194
0.0325974
0.0325703
0.0324693
0.0323221
0.0321535
0.0319859
0.0318388
0.0317296
0.0316702
0.0130569
0.0177669
0.021507
0.0245151
0.026836
0.028593
0.0299017
0.0308522
0.0315158
0.0319503
0.0322031
0.0323144
0.032319
0.0322472
0.0321254
0.0319772
0.0318228
0.0316797
0.0315583
0.0314617
0.0147037
0.018584
0.021798
0.0244936
0.0266439
0.0283174
0.0295928
0.0305383
0.0312123
0.0316649
0.0319393
0.0320728
0.0320984
0.0320448
0.0319374
0.0317981
0.0316459
0.0314967
0.0313553
0.031215
0.0161178
0.0193918
0.0221766
0.0245837
0.0265575
0.0281316
0.0293575
0.0302845
0.0309583
0.031421
0.0317102
0.0318597
0.0318999
0.0318578
0.0317574
0.0316194
0.0314618
0.0312997
0.0311338
0.0309498
0.017302
0.0201169
0.0225541
0.0247081
0.0265154
0.0279885
0.0291592
0.0300616
0.0307304
0.0311993
0.0315004
0.0316631
0.0317149
0.0316809
0.0315835
0.0314421
0.0312744
0.0310956
0.0309034
0.030678
0.0182803
0.0207338
0.0228876
0.0248239
0.0264806
0.0278575
0.0289728
0.0298488
0.0305106
0.0309845
0.0312966
0.0314721
0.0315353
0.0315085
0.0314126
0.0312661
0.0310862
0.0308887
0.0306698
0.0304057
0.0190864
0.0212463
0.0231657
0.0249149
0.0264369
0.0277244
0.0287861
0.0296353
0.0302893
0.0307678
0.0310911
0.0312802
0.0313555
0.0313369
0.031243
0.0310913
0.0308989
0.0306821
0.0304363
0.030135
0.0197521
0.0216684
0.0233905
0.0249777
0.0263794
0.0275843
0.0285946
0.0294172
0.0300629
0.0305456
0.0308806
0.0310843
0.0311733
0.0311646
0.0310745
0.0309189
0.0307145
0.0304785
0.0302054
0.0298662
0.0203034
0.0220144
0.0235683
0.0250144
0.0263083
0.027437
0.0283982
0.0291943
0.0298311
0.0303175
0.0306644
0.0308836
0.0309883
0.0309919
0.0309082
0.030751
0.0305361
0.0302812
0.0299794
0.0295989
0.0207608
0.0222972
0.0237063
0.0250286
0.0262256
0.0272838
0.0281984
0.0289683
0.0295955
0.0300851
0.0304438
0.0306797
0.0308021
0.030821
0.030747
0.0305913
0.0303681
0.0300946
0.0297619
0.0293335
0.0211405
0.0225273
0.0238106
0.0250238
0.0261337
0.0271269
0.0279973
0.0287414
0.0293587
0.0298509
0.0302214
0.030475
0.0306175
0.0306551
0.0305951
0.0304452
0.0302168
0.0299259
0.0295587
0.0290721
0.0214551
0.0227129
0.0238865
0.0250032
0.0260346
0.0269682
0.0277969
0.028516
0.0291231
0.0296176
0.0300003
0.030273
0.0304383
0.030499
0.0304584
0.03032
0.0300917
0.0297856
0.0293799
0.0288194
0.021715
0.0228607
0.0239381
0.0249691
0.0259299
0.0268087
0.0275985
0.0282938
0.0288911
0.029388
0.0297836
0.0300772
0.0302687
0.0303579
0.030344
0.0302257
0.0300056
0.0296902
0.0292427
0.0285864
0.0219294
0.0229771
0.0239694
0.0249242
0.0258213
0.0266502
0.027404
0.0280772
0.0286653
0.0291653
0.0295747
0.0298916
0.0301136
0.030238
0.0302602
0.0301739
0.0299751
0.0296622
0.0291731
0.0283931
0.0221052
0.0230666
0.0239834
0.02487
0.0257098
0.0264933
0.0272142
0.0278669
0.0284471
0.0289511
0.0293762
0.0297192
0.029977
0.0301448
0.0302154
0.0301774
0.0300205
0.0297313
0.0292096
0.0282786
0.0222414
0.0231239
0.0239713
0.0247956
0.0255826
0.0263243
0.0270148
0.0276491
0.028223
0.0287332
0.0291769
0.0295511
0.0298528
0.0300771
0.0302157
0.0302547
0.0301785
0.0299604
0.0294478
0.0283758
0.0223331
0.0231399
0.0239205
0.024685
0.0254216
0.0261232
0.0267847
0.0274018
0.0279708
0.0284891
0.0289548
0.0293665
0.0297229
0.0300221
0.0302593
0.0304251
0.0305077
0.030474
0.0301329
0.0291433
0.0224352
0.0231875
0.0239161
0.0246329
0.025329
0.0259975
0.026634
0.0272348
0.0277972
0.0283192
0.0288001
0.0292405
0.0296419
0.0300067
0.0303378
0.0306381
0.0309142
0.0311528
0.031224
0.0309377
0.000304987
0.000899846
0.00149612
0.00209957
0.0027155
0.00335042
0.00401153
0.00470713
0.00544708
0.00624344
0.0071112
0.00806917
0.00914073
0.0103548
0.0117484
0.0133706
0.0152772
0.0174983
0.0200124
0.02276
0.000358418
0.00105623
0.0017539
0.00245771
0.00317291
0.00390558
0.00466235
0.00545036
0.00627741
0.00715198
0.00808327
0.00908102
0.0101555
0.011317
0.0125754
0.0139379
0.0154069
0.0169819
0.0186613
0.020438
0.000373965
0.00110069
0.00182298
0.00254619
0.00327356
0.00400889
0.00475598
0.00551851
0.00629993
0.00710341
0.00793169
0.00878681
0.00966975
0.0105797
0.0115134
0.0124636
0.0134184
0.0143602
0.0152642
0.016088
0.000348135
0.00102536
0.001697
0.00236719
0.00303745
0.00370965
0.00438564
0.005067
0.00575488
0.00644999
0.00715241
0.00786157
0.00857608
0.00929361
0.0100108
0.0107231
0.0114247
0.0121065
0.0127538
0.0133595
0.000308628
0.00090973
0.00150367
0.00209297
0.00267757
0.00325761
0.00383326
0.00440443
0.00497071
0.00553119
0.00608447
0.00662844
0.00716029
0.0076763
0.00817189
0.00864162
0.00907921
0.00947824
0.00983313
0.0101337
0.000261698
0.000771973
0.00127595
0.0017755
0.00227003
0.00275903
0.00324206
0.00371852
0.00418759
0.00464822
0.00509911
0.00553868
0.00596512
0.00637632
0.00676985
0.00714292
0.00749219
0.00781291
0.00809866
0.00834838
0.000215549
0.000636333
0.0010513
0.00146147
0.00186571
0.00226299
0.00265236
0.00303288
0.00340343
0.0037628
0.0041096
0.00444228
0.0047591
0.0050582
0.00533759
0.00559517
0.00582879
0.00603672
0.00621819
0.00637017
0.000175929
0.000520066
0.000859554
0.00119524
0.00152617
0.00185137
0.00217
0.00248117
0.00278399
0.00307748
0.00336063
0.00363236
0.00389154
0.00413699
0.00436741
0.00458141
0.00477748
0.0049536
0.00510728
0.00523929
0.000140047
0.000414241
0.000684704
0.000951824
0.0012146
0.001472
0.00172315
0.00196719
0.00220323
0.00243039
0.00264776
0.00285444
0.0030495
0.00323205
0.0034012
0.0035561
0.00369596
0.00382032
0.0039292
0.00402119
0.000113132
0.000334973
0.000553919
0.000770371
0.000983573
0.00119272
0.00139712
0.00159607
0.0017889
0.00197493
0.00215348
0.00232386
0.00248539
0.00263737
0.00277909
0.00290984
0.00302888
0.00313525
0.00322786
0.00330763
8.88457e-05
0.000263065
0.000435036
0.000604985
0.000772207
0.000935968
0.00109563
0.00125058
0.00140024
0.00154401
0.00168133
0.00181166
0.00193447
0.00204928
0.00215563
0.00225311
0.00234133
0.00242013
0.0024896
0.00254887
7.19072e-05
0.000213384
0.000353121
0.000491308
0.000627462
0.000761028
0.000891511
0.00101844
0.00114136
0.00125982
0.00137336
0.00148155
0.00158395
0.00168015
0.00176972
0.00185225
0.00192734
0.00199447
0.00205306
0.00210386
5.6292e-05
0.000167015
0.000276462
0.000384689
0.000491254
0.000595685
0.000697558
0.000796475
0.000892048
0.000983904
0.00107169
0.00115505
0.00123369
0.0013073
0.00137562
0.0014384
0.00149543
0.00154659
0.00159195
0.00163098
4.62147e-05
0.000137356
0.000227482
0.000316664
0.000404581
0.000490871
0.000575205
0.000657269
0.000736755
0.000813362
0.000886795
0.000956769
0.001023
0.00108522
0.00114317
0.00119659
0.00124525
0.00128883
0.00132699
0.00136028
3.65274e-05
0.000108547
0.000179818
0.000250345
0.000319842
0.000388005
0.000454558
0.000519238
0.000581794
0.00064198
0.000699566
0.000754332
0.000806074
0.000854601
0.000899742
0.000941338
0.000979244
0.00101338
0.00104377
0.00107015
3.08117e-05
9.18585e-05
0.000152313
0.000212143
0.000271145
0.000329082
0.000385728
0.000440868
0.000494292
0.000545795
0.000595177
0.000642244
0.000686809
0.00072869
0.000767713
0.00080372
0.000836555
0.000866011
0.000891856
0.00091449
2.51577e-05
7.49919e-05
0.00012441
0.000173325
0.000221548
0.000268879
0.000315128
0.000360116
0.000403665
0.000445607
0.00048578
0.000524029
0.00056021
0.000594188
0.000625839
0.000655048
0.000681702
0.000705711
0.000727095
0.000745942
2.22926e-05
6.66457e-05
0.000110651
0.000154215
0.000197191
0.000239413
0.000280719
0.000320954
0.000359965
0.000397604
0.000433725
0.000468191
0.000500864
0.000531614
0.000560315
0.000586846
0.000611089
0.000632897
0.000652128
0.000669029
1.92868e-05
5.7696e-05
9.58718e-05
0.000133669
0.000170939
0.000207538
0.000243326
0.000278165
0.000311926
0.000344484
0.000375723
0.000405533
0.000433816
0.000460482
0.000485453
0.000508659
0.00053004
0.00054957
0.000567315
0.000583184
1.9086e-05
5.72032e-05
9.50839e-05
0.000132584
0.000169561
0.000205872
0.000241374
0.000275928
0.000309397
0.00034165
0.000372559
0.000402001
0.00042986
0.000456023
0.000480384
0.000502843
0.000523306
0.000541677
0.000557823
0.000571721
0.000139832
0.000392185
0.00065477
0.000900898
0.00114145
0.00136518
0.0015717
0.00175313
0.00190292
0.00201007
0.00206044
0.00203193
0.00189406
0.00159255
0.00106497
0.000115617
-0.00138658
-0.00440153
-0.00440817
-0.0257234
0.000146892
0.000408176
0.000683443
0.000940807
0.00119465
0.00143239
0.00165504
0.00185495
0.00202666
0.00216025
0.00224345
0.00225664
0.00217405
0.00194693
0.0015282
0.000738886
-0.000430088
-0.00300745
-0.00199875
-0.0197871
0.00015386
0.000424392
0.000712259
0.000981054
0.00124822
0.00150013
0.00173907
0.00195766
0.00215155
0.00231195
0.00242846
0.00248408
0.00245765
0.00230653
0.00199851
0.00137416
0.000521749
-0.00156746
0.00018932
-0.0133961
0.000160776
0.000440784
0.000741207
0.00102158
0.00130211
0.00156833
0.00182366
0.00206111
0.00227738
0.00246489
0.00261509
0.00271364
0.00274396
0.00266978
0.00247299
0.0020151
0.00146105
-0.000132201
0.00218705
-0.00760841
0.000167655
0.000457323
0.00077026
0.00106235
0.00135627
0.0016369
0.00190871
0.00216515
0.00240397
0.00261878
0.00280294
0.00294476
0.0030321
0.00303524
0.00294911
0.00265656
0.00238115
0.00126828
0.0040093
-0.0026655
0.000174501
0.000473984
0.000799391
0.00110331
0.00141063
0.00170575
0.00199411
0.00226963
0.00253108
0.00277333
0.00299158
0.00317682
0.00332119
0.00340145
0.00342441
0.00329385
0.00327601
0.00261344
0.00566133
0.00146039
0.00018132
0.000490745
0.000828572
0.00114441
0.00146513
0.00177481
0.00207972
0.00237438
0.00265851
0.00292825
0.00318061
0.00340924
0.00361035
0.00376704
0.00389667
0.00392296
0.00414107
0.00389062
0.00715183
0.00486794
0.000188116
0.000507582
0.000857772
0.00118561
0.0015197
0.00184397
0.00216545
0.00247924
0.00278605
0.00308325
0.00336963
0.00364144
0.00389873
0.00413071
0.0043639
0.00454054
0.00497306
0.00509304
0.0084928
0.00767192
0.000194892
0.000524474
0.000886963
0.00122686
0.00157428
0.00191315
0.00225116
0.00258407
0.00291349
0.00323803
0.00355823
0.00387285
0.00418553
0.00449127
0.00482435
0.00514383
0.00576983
0.00621796
0.0096975
0.00998049
0.000201651
0.0005414
0.000916111
0.0012681
0.00162881
0.00198226
0.00233675
0.0026887
0.00304061
0.00339232
0.00374602
0.00410292
0.00447
0.00484761
0.00527647
0.00573066
0.00653012
0.00726547
0.0107792
0.0118862
0.000208394
0.000558339
0.000945184
0.00130931
0.00168322
0.00205122
0.0024221
0.00279298
0.00316721
0.00354583
0.00393263
0.00433114
0.00475141
0.00519874
0.00571897
0.00629933
0.0072534
0.00823752
0.0117505
0.0134649
0.000215126
0.000575272
0.000974149
0.00135042
0.00173745
0.00211994
0.00250709
0.00289676
0.00329308
0.00369829
0.00411769
0.00455701
0.00502911
0.00554376
0.00615077
0.00684863
0.00793979
0.00913733
0.0126231
0.0147776
0.000221846
0.000592185
0.00100297
0.00139139
0.00179143
0.00218834
0.00259162
0.00299989
0.00341803
0.00384944
0.00430084
0.00478007
0.00530247
0.00588188
0.00657093
0.00737766
0.00858979
0.00996882
0.0134078
0.0158734
0.000228546
0.00060907
0.00103163
0.0014322
0.00184513
0.00225634
0.00267559
0.00310224
0.0035419
0.00399904
0.00448177
0.00499985
0.00557089
0.00621232
0.00697861
0.00788571
0.00920406
0.0107361
0.0141142
0.0167914
0.000235233
0.000625913
0.0010601
0.00147281
0.00189849
0.0023239
0.00275892
0.00320371
0.00366452
0.00414687
0.00466016
0.00521593
0.0058338
0.00653435
0.00737302
0.00837221
0.00978339
0.0114434
0.0147509
0.0175631
0.00024199
0.000642638
0.00108832
0.00151312
0.00195139
0.00239084
0.00284141
0.00330405
0.0037856
0.00429261
0.00483563
0.00542791
0.00609081
0.00684763
0.00775407
0.00883757
0.0103298
0.0120958
0.0153266
0.0182142
0.000248965
0.000659106
0.00111613
0.00155291
0.00200355
0.00245682
0.00292268
0.00340281
0.00390468
0.00443578
0.00500779
0.00563553
0.00634196
0.00715272
0.00812317
0.00928444
0.0108481
0.0127014
0.0158514
0.0187662
0.000255965
0.000675458
0.00114343
0.00159216
0.00205491
0.00252178
0.00300261
0.00349988
0.0040216
0.00457621
0.00517647
0.00583868
0.00658728
0.00745001
0.00848124
0.00971498
0.0113419
0.0132683
0.0163329
0.0192364
0.000261662
0.000692774
0.00117066
0.00163189
0.00210662
0.00258712
0.00308277
0.00359693
0.00413799
0.00471526
0.00534237
0.00603692
0.00682445
0.00773456
0.00881977
0.0101177
0.0117957
0.0137852
0.0167602
0.0196363
0.000264675
0.000712243
0.00119917
0.00167394
0.00216103
0.00265565
0.00316634
0.0036973
0.00425706
0.00485544
0.00550649
0.00622843
0.00704701
0.00799289
0.0091161
0.010459
0.0121665
0.0142035
0.0171015
0.0199697
-2.95721e-05
-8.10651e-05
-0.000138805
-0.000202091
-0.000273748
-0.000355634
-0.000449277
-0.000555686
-0.000675004
-0.000806189
-0.000946443
-0.00109056
-0.00123049
-0.00135633
-0.00146092
-0.0015513
-0.00165899
-0.00180034
-0.00191724
-0.00237896
-2.92635e-05
-8.04442e-05
-0.000138288
-0.000202758
-0.000277058
-0.000363612
-0.000464558
-0.000581633
-0.000715824
-0.000867068
-0.00103363
-0.00121131
-0.00139255
-0.00156677
-0.00172392
-0.00186586
-0.00202175
-0.00221218
-0.00237646
-0.00265491
-2.84862e-05
-7.82793e-05
-0.000135259
-0.000199972
-0.000276047
-0.000366527
-0.000474216
-0.000601679
-0.000750875
-0.000922913
-0.00111742
-0.00133158
-0.00155895
-0.00178885
-0.00200849
-0.0022128
-0.00242387
-0.0026647
-0.00287016
-0.00312777
-2.71161e-05
-7.43666e-05
-0.000129325
-0.000193162
-0.000269936
-0.000363352
-0.000476938
-0.00061417
-0.000778104
-0.000971202
-0.00119471
-0.00144764
-0.00172518
-0.00201728
-0.00230864
-0.00258555
-0.00285826
-0.0031513
-0.00339481
-0.00363405
-2.50561e-05
-6.84794e-05
-0.000120087
-0.000181737
-0.000257909
-0.000353003
-0.000471314
-0.000617303
-0.000795239
-0.00100911
-0.00126205
-0.00155527
-0.0018862
-0.00224619
-0.00261801
-0.00297814
-0.00332073
-0.00366953
-0.00395368
-0.00418998
-2.22233e-05
-6.03844e-05
-0.000107142
-0.000165099
-0.000239133
-0.000334361
-0.000455872
-0.000609177
-0.000799852
-0.00103357
-0.0013156
-0.00164977
-0.00203636
-0.00246906
-0.0029297
-0.00338484
-0.003809
-0.00422007
-0.00455196
-0.00480119
-1.85381e-05
-4.98534e-05
-9.00954e-05
-0.000142655
-0.000212777
-0.000306295
-0.000429109
-0.000587815
-0.000789383
-0.00104131
-0.00135124
-0.001726
-0.00216941
-0.00267865
-0.00323614
-0.00379958
-0.00432128
-0.00480547
-0.00519594
-0.00547228
-1.39254e-05
-3.66696e-05
-6.85701e-05
-0.000113838
-0.000178033
-0.000267696
-0.000389521
-0.000551214
-0.000761189
-0.00102889
-0.00136455
-0.00177838
-0.00227848
-0.00286689
-0.00352878
-0.00421512
-0.00485508
-0.0054298
-0.00589265
-0.00621306
-8.3165e-06
-2.06346e-05
-4.22191e-05
-7.81174e-05
-0.000134141
-0.000217502
-0.000335649
-0.00049739
-0.0007126
-0.000992754
-0.00135086
-0.00180089
-0.00235598
-0.00302467
-0.00379755
-0.00462209
-0.0054059
-0.00609827
-0.0066496
-0.00704008
-1.65162e-06
-1.57573e-06
-1.07384e-05
-3.50276e-05
-8.04199e-05
-0.000154739
-0.000266127
-0.000424438
-0.00064099
-0.000929326
-0.00130535
-0.0017871
-0.00239358
-0.00314168
-0.00403037
-0.00500798
-0.00596601
-0.00681719
-0.00747405
-0.00797874
6.11748e-06
2.06469e-05
2.61194e-05
1.58189e-05
-1.62899e-05
-7.85647e-05
-0.000179731
-0.000330605
-0.000543867
-0.000835088
-0.00122311
-0.00173028
-0.00238225
-0.00320612
-0.00421251
-0.00535606
-0.0065232
-0.00759433
-0.00837103
-0.00906628
1.50245e-05
4.61322e-05
6.85315e-05
7.47065e-05
5.86899e-05
1.16943e-05
-7.54487e-05
-0.000214377
-0.000418982
-0.000706733
-0.00109933
-0.00162352
-0.00231229
-0.00320464
-0.00432596
-0.00564423
-0.0070589
-0.00843446
-0.00934279
-0.0103535
2.50865e-05
7.49306e-05
0.000116592
0.000141796
0.000144793
0.00011649
4.74581e-05
-7.45673e-05