/*--------------------------------*- C++ -*----------------------------------*\
| =========                 |                                                 |
| \\      /  F ield         | OpenFOAM: The Open Source CFD Toolbox           |
|  \\    /   O peration     | Version:  v1806                                 |
|   \\  /    A nd           | Web:      www.OpenFOAM.com                      |
|    \\/     M anipulation  |                                                 |
\*---------------------------------------------------------------------------*/
FoamFile
{
    version     2.0;
    format      ascii;
    class       surfaceScalarField;
    location    "13";
    object      phi;
}
// * * * * * * * * * * * * * * * * * * * * * * * * * * * * * * * * * * * * * //

dimensions      [0 3 -1 0 0 0 0];
oriented        oriented;


internalField   nonuniform List<scalar> 
8600
(
0.562682
-0.897847
-0.66523
1.0004
0.447373
-0.838721
0.95403
0.305539
-0.828688
0.970523
0.230952
-0.85874
0.933326
0.185172
-0.883615
0.929395
0.156056
-0.903319
0.932435
0.136561
-0.915724
0.93522
0.12063
-0.918965
0.934896
0.107365
-0.918343
0.931608
0.0963107
-0.915711
0.926765
0.087034
-0.911782
0.921059
0.0792382
-0.906977
0.914773
0.0726787
-0.901583
0.908143
0.0671958
-0.895856
0.901339
0.0626688
-0.889961
0.894488
0.0590246
-0.884001
0.887645
0.0562027
-0.878015
0.880837
0.0541447
-0.872018
0.874075
0.0527708
-0.866042
0.867416
-0.859442
0.860056
0.124691
-0.731652
-0.290885
0.122057
-0.836088
0.146673
-0.853304
0.155103
-0.86717
0.153578
-0.882091
0.144386
-0.894127
0.129717
-0.901055
0.115749
-0.904997
0.103996
-0.90659
0.0939751
-0.90569
0.0854203
-0.903227
0.0781212
-0.899678
0.0719499
-0.895412
0.0667785
-0.890685
0.0625006
-0.885683
0.0590194
-0.880519
0.0562843
-0.87528
0.054265
-0.869998
0.0529478
-0.864725
-0.858894
0.353234
-0.799359
-0.285527
0.324942
-0.807796
0.268095
-0.796457
0.215824
-0.814899
0.17417
-0.840436
0.144691
-0.864647
0.125982
-0.882346
0.112841
-0.891856
0.101602
-0.895351
0.0919808
-0.896069
0.0837751
-0.895022
0.0767878
-0.892691
0.0708437
-0.889468
0.0658438
-0.885685
0.0617147
-0.881554
0.0583947
-0.877199
0.0558048
-0.87269
0.0538778
-0.868071
0.0525573
-0.863404
-0.858312
0.0609481
-0.754348
-0.10596
0.0493183
-0.796167
0.0726582
-0.819797
0.097133
-0.839374
0.111958
-0.855261
0.115918
-0.868608
0.111505
-0.877933
0.102925
-0.883276
0.0943175
-0.886744
0.0866161
-0.888367
0.0797641
-0.88817
0.0737323
-0.886659
0.0685155
-0.884251
0.0640688
-0.881238
0.0603387
-0.877824
0.0572861
-0.874147
0.05489
-0.870294
0.0531415
-0.866323
0.0520139
-0.862277
-0.857849
0.219413
-0.806573
-0.167187
0.234634
-0.811388
0.213264
-0.798426
0.18167
-0.80778
0.151661
-0.825252
0.127855
-0.844802
0.1111
-0.861178
0.100224
-0.872399
0.0917082
-0.878228
0.0840778
-0.880737
0.0773432
-0.881435
0.0715058
-0.880821
0.0664984
-0.879243
0.0622588
-0.876998
0.0587295
-0.874295
0.0558518
-0.871269
0.0535856
-0.868027
0.0519031
-0.86464
0.0507915
-0.861165
-0.85739
0.0277029
-0.785788
-0.0484883
0.0163633
-0.800048
0.0314479
-0.813511
0.0557583
-0.83209
0.0758011
-0.845295
0.0870964
-0.856097
0.0901453
-0.864227
0.0872033
-0.869457
0.0818162
-0.872841
0.0765151
-0.875436
0.0715541
-0.876474
0.0669715
-0.876239
0.0628365
-0.875108
0.0592065
-0.873368
0.0561144
-0.871203
0.0535742
-0.868729
0.0515773
-0.86603
0.0501076
-0.863171
0.0491521
-0.86021
-0.857004
0.146645
-0.822844
-0.109589
0.169156
-0.822558
0.166485
-0.810841
0.148044
-0.813649
0.126787
-0.824037
0.108093
-0.837403
0.0943906
-0.850525
0.085409
-0.860476
0.0792632
-0.866695
0.0737642
-0.869937
0.0686879
-0.871398
0.0641409
-0.871692
0.0601632
-0.871131
0.0567351
-0.86994
0.0538312
-0.868299
0.05144
-0.866338
0.0495618
-0.864152
0.0481931
-0.861802
0.0473158
-0.859332
-0.856652
0.0103594
-0.809167
-0.0240368
0.000905775
-0.813105
0.00910763
-0.819042
0.0292369
-0.833779
0.0488718
-0.843672
0.0630535
-0.851585
0.070088
-0.85756
0.0711718
-0.86156
0.0686958
-0.864219
0.0652654
-0.866506
0.0618813
-0.868014
0.0586264
-0.868437
0.0555808
-0.868085
0.0528391
-0.867199
0.0504557
-0.865915
0.0484479
-0.86433
0.0468266
-0.862531
0.0456069
-0.860582
0.0448131
-0.858539
-0.856341
0.103624
-0.836305
-0.0764862
0.124162
-0.833642
0.130141
-0.825021
0.119313
-0.822951
0.103883
-0.828242
0.0889791
-0.836681
0.0775417
-0.846122
0.0700967
-0.854115
0.0655903
-0.859713
0.0619907
-0.862907
0.058507
-0.86453
0.0552355
-0.865166
0.0522856
-0.865135
0.0496951
-0.864608
0.0474791
-0.863699
0.0456519
-0.862503
0.0442138
-0.861093
0.0431572
-0.859526
0.0424667
-0.857848
-0.856061
0.000896412
-0.825463
-0.0117382
-0.00706387
-0.825682
-0.00341309
-0.828672
0.0120963
-0.838461
0.029446
-0.845592
0.0438876
-0.851122
0.0529113
-0.855146
0.0564601
-0.857663
0.0561413
-0.859394
0.0540745
-0.86084
0.0517662
-0.862222
0.0495216
-0.862921
0.0473872
-0.863001
0.0454069
-0.862628
0.0436323
-0.861925
0.0421117
-0.860982
0.0408837
-0.859865
0.039976
-0.858618
0.0394069
-0.857279
-0.855845
0.0762218
-0.846247
-0.055438
0.0937979
-0.843258
0.10173
-0.836604
0.0955316
-0.832262
0.0839938
-0.834054
0.071845
-0.838973
0.0619949
-0.845296
0.0556272
-0.851296
0.0520571
-0.855824
0.0498047
-0.858588
0.0476811
-0.860098
0.0455537
-0.860794
0.043537
-0.860984
0.0417162
-0.860807
0.0401301
-0.860339
0.0387948
-0.859647
0.0377221
-0.858792
0.0369241
-0.85782
0.0364146
-0.856769
-0.855653
-0.00460733
-0.836899
-0.00474047
-0.0118655
-0.836
-0.0109802
-0.837489
0.000778365
-0.844021
0.0154229
-0.848699
0.0288111
-0.852362
0.0383961
-0.854881
0.0432802
-0.85618
0.0443641
-0.856908
0.0433643
-0.857588
0.0417857
-0.85852
0.0402054
-0.859213
0.0386937
-0.859472
0.0372783
-0.859392
0.0360064
-0.859067
0.0349253
-0.858566
0.0340605
-0.857927
0.0334256
-0.857185
0.033022
-0.856366
-0.855493
0.0574345
-0.853374
-0.0409596
0.0720219
-0.850588
0.0797379
-0.845205
0.0759342
-0.840217
0.0669512
-0.839716
0.0568152
-0.842226
0.0481232
-0.846189
0.0423469
-0.850404
0.0393193
-0.85388
0.0379062
-0.856175
0.0368401
-0.857454
0.0356754
-0.858048
0.0344396
-0.858237
0.033229
-0.858181
0.0321166
-0.857954
0.031148
-0.857597
0.030362
-0.857141
0.0297849
-0.856608
0.0294446
-0.856026
-0.855384
-0.00854425
-0.844724
-0.000105258
-0.0152662
-0.843866
-0.0158598
-0.844612
-0.00717006
-0.848907
0.00494356
-0.851829
0.0166988
-0.853981
0.0258657
-0.855355
0.0312396
-0.855777
0.0331657
-0.855806
0.0329865
-0.855995
0.0320096
-0.856477
0.0308691
-0.856908
0.0297825
-0.85715
0.0287937
-0.857192
0.0279162
-0.857077
0.0271607
-0.856842
0.0265357
-0.856516
0.0260555
-0.856128
0.0257251
-0.855695
-0.855246
0.0436333
-0.858049
-0.0303083
0.0555578
-0.85579
0.0623811
-0.851435
0.059654
-0.84618
0.0522387
-0.844414
0.0436356
-0.845378
0.035914
-0.847634
0.0305693
-0.850433
0.0278332
-0.85307
0.0268481
-0.85501
0.0263378
-0.855966
0.0257606
-0.856331
0.0250809
-0.85647
0.024378
-0.856489
0.023712
-0.856411
0.023124
-0.856254
0.022642
-0.856034
0.0222855
-0.855771
0.0220657
-0.855475
-0.855165
-0.0114295
-0.849805
0.00318555
-0.0179516
-0.849268
-0.0196418
-0.849745
-0.013319
-0.852503
-0.0034382
-0.854295
0.00652205
-0.855338
0.0147585
-0.85587
0.0201014
-0.855776
0.0225098
-0.855479
0.0228348
-0.855335
0.0222484
-0.85538
0.0214628
-0.855545
0.0207341
-0.855742
0.0200949
-0.85585
0.0195339
-0.85585
0.0190524
-0.855772
0.0186614
-0.855643
0.01837
-0.85548
0.018187
-0.855292
-0.855099
0.0328745
-0.860516
-0.0221633
0.0424545
-0.858848
0.0477055
-0.854996
0.0456352
-0.850432
0.0393537
-0.848014
0.0319514
-0.847936
0.0251471
-0.849066
0.0202653
-0.850894
0.0176445
-0.852858
0.0165931
-0.854284
0.0162047
-0.854992
0.0159767
-0.855317
0.0157111
-0.855476
0.0153853
-0.855524
0.0150414
-0.855506
0.014716
-0.855447
0.0144377
-0.855365
0.0142262
-0.855268
0.0140946
-0.855161
-0.855052
-0.0140594
-0.852465
0.00600817
-0.0204751
-0.852432
-0.0228262
-0.852645
-0.0181948
-0.855064
-0.0102996
-0.855909
-0.00220056
-0.856035
0.00473855
-0.856005
0.00951904
-0.855674
0.0118959
-0.855235
0.0125352
-0.854923
0.0123505
-0.854807
0.011956
-0.854923
0.0115414
-0.855061
0.0111676
-0.85515
0.0108511
-0.855189
0.010598
-0.855194
0.0104045
-0.855172
0.0102682
-0.855132
0.0101904
-0.855083
-0.855026
0.0239083
-0.861585
-0.014788
0.0319414
-0.860466
0.0367642
-0.857468
0.0344831
-0.852783
0.0282555
-0.849681
0.0212478
-0.849027
0.0148745
-0.849632
0.0101994
-0.850999
0.00759008
-0.852626
0.00659026
-0.853923
0.00645408
-0.854671
0.00652764
-0.854996
0.00656419
-0.855098
0.00652257
-0.855109
0.0064283
-0.855095
0.00631026
-0.855076
0.00619469
-0.855056
0.00610147
-0.855039
0.00604342
-0.855025
-0.855008
-0.0161805
0.00959496
-0.021646
-0.0241137
-0.0218964
-0.0165776
-0.0106046
-0.00523642
-0.00123563
0.00113881
0.00221532
0.0025446
0.00254847
0.00245047
0.0023416
0.00224656
0.00217093
0.00211499
0.00207613
0.00205134
-0.453636
-0.0889272
0.542564
-0.371724
-0.0819124
-0.302306
-0.0694184
-0.237919
-0.0643863
-0.179988
-0.057931
-0.12575
-0.0542385
-0.0747929
-0.050957
-0.0262332
-0.0485596
0.0207934
-0.0470267
0.0671614
-0.046368
0.113586
-0.0464244
0.160791
-0.0472048
0.209822
-0.0490318
0.260844
-0.0510219
0.315496
-0.0546516
0.372822
-0.0573257
0.437106
-0.0642841
0.504252
-0.0671465
0.584287
-0.0800346
-0.080943
-0.128557
-0.098633
0.138263
-0.119326
-0.0911432
-0.102229
-0.086516
-0.084252
-0.0823628
-0.062692
-0.079491
-0.0397226
-0.0772079
-0.0150923
-0.0755873
0.0108271
-0.0744791
0.0376433
-0.0738428
0.0649172
-0.0736419
0.092343
-0.0738503
0.119603
-0.0744652
0.146048
-0.0754765
0.171995
-0.0769689
0.196129
-0.0787851
0.220179
-0.0813763
0.240031
-0.0841359
0.261077
-0.0881921
0.273615
-0.0925732
-0.0982131
-0.17149
-0.115496
0.188353
-0.150196
-0.112437
-0.127551
-0.109161
-0.103447
-0.106466
-0.0789056
-0.104033
-0.0540267
-0.102087
-0.029058
-0.100556
-0.00408078
-0.0994564
0.0208575
-0.0987811
0.0457415
-0.0985258
0.0705785
-0.0986873
0.0953754
-0.0992622
0.120153
-0.100254
0.144828
-0.101644
0.169526
-0.103483
0.193861
-0.105711
0.218135
-0.10841
0.241597
-0.111654
0.264073
-0.115049
-0.119667
-0.0278154
-0.118934
0.0312536
-0.0236084
-0.116644
-0.018074
-0.114696
-0.0115429
-0.112997
-0.00394809
-0.111627
0.00449843
-0.110533
0.0136482
-0.109706
0.0233137
-0.109122
0.0332966
-0.108764
0.0433882
-0.108617
0.0533741
-0.108673
0.0630393
-0.108927
0.0721661
-0.10938
0.0805669
-0.110045
0.0880091
-0.110926
0.0943596
-0.112061
0.0994146
-0.113465
0.102959
-0.115198
0.105197
-0.117287
-0.120429
-0.0789309
-0.128357
0.0883543
-0.0682969
-0.127278
-0.0568615
-0.126131
-0.0447883
-0.125071
-0.0322893
-0.124127
-0.0194808
-0.123342
-0.00645752
-0.122729
0.00671658
-0.122296
0.0200003
-0.122048
0.0333686
-0.121986
0.0468065
-0.122111
0.060304
-0.122425
0.0738516
-0.122928
0.0874282
-0.123622
0.101018
-0.124515
0.114567
-0.125611
0.128028
-0.126926
0.14135
-0.128521
0.154409
-0.130346
-0.133208
0.00328682
-0.130344
-0.00129984
0.00541207
-0.129403
0.00781073
-0.12853
0.0104936
-0.127753
0.0134657
-0.127099
0.0166909
-0.126567
0.0201185
-0.126157
0.0236843
-0.125862
0.0273133
-0.125677
0.0309236
-0.125596
0.0344302
-0.125618
0.0377468
-0.125741
0.0407889
-0.12597
0.0434782
-0.126311
0.0457391
-0.126776
0.0475116
-0.127383
0.0487452
-0.12816
0.0493731
-0.129148
0.0494838
-0.130457
-0.132212
-0.043256
-0.136377
0.0492891
-0.0366811
-0.135978
-0.0296861
-0.135525
-0.0223588
-0.135081
-0.0147754
-0.134682
-0.00699184
-0.134351
0.000949927
-0.134098
0.00901891
-0.133931
0.0171944
-0.133852
0.0254616
-0.133863
0.0338095
-0.133966
0.0422285
-0.13416
0.0507075
-0.134449
0.0592312
-0.134835
0.0677792
-0.135324
0.0763208
-0.135925
0.0848165
-0.136656
0.0932215
-0.137553
0.101438
-0.138673
-0.140363
0.0121197
-0.137486
-0.0110108
0.0131685
-0.137027
0.0142236
-0.13658
0.0153147
-0.136172
0.0164526
-0.13582
0.0176325
-0.135531
0.0188395
-0.135305
0.0200517
-0.135143
0.0212414
-0.135042
0.0223782
-0.135
0.0234296
-0.135017
0.0243627
-0.135094
0.0251461
-0.135232
0.0257505
-0.135439
0.0261501
-0.135723
0.0263242
-0.136099
0.026256
-0.136587
0.0259283
-0.137226
0.0253314
-0.138076
-0.139069
-0.0273494
-0.141653
0.0315163
-0.0228656
-0.141511
-0.0181194
-0.141326
-0.0131588
-0.141132
-0.00802375
-0.140955
-0.0027457
-0.140809
0.00265072
-0.140702
0.0081464
-0.140639
0.0137263
-0.140622
0.0193778
-0.140652
0.0250898
-0.140729
0.0308514
-0.140855
0.0366498
-0.141031
0.0424697
-0.141259
0.0482912
-0.141545
0.054089
-0.141896
0.0598307
-0.142329
0.0654756
-0.142871
0.0709657
-0.143566
-0.144589
0.0137103
-0.142194
-0.0131698
0.0141421
-0.141943
0.0145058
-0.14169
0.0148269
-0.141454
0.0151184
-0.141247
0.0153844
-0.141075
0.0156228
-0.14094
0.015827
-0.140843
0.015988
-0.140783
0.0160952
-0.140759
0.0161372
-0.140771
0.0161026
-0.14082
0.0159808
-0.140909
0.0157629
-0.141041
0.0154417
-0.141224
0.0150122
-0.141467
0.0144705
-0.141787
0.0138095
-0.14221
0.0130091
-0.142766
-0.143318
-0.0192439
-0.145209
0.0222591
-0.0160128
-0.145174
-0.0125957
-0.145107
-0.00902186
-0.145027
-0.00531702
-0.144951
-0.00150261
-0.144889
0.00240363
-0.144846
0.00638695
-0.144826
0.0104346
-0.14483
0.0145351
-0.144859
0.0186774
-0.144913
0.0228501
-0.144993
0.0270407
-0.1451
0.0312345
-0.145235
0.0354141
-0.145403
0.0395584
-0.145611
0.043642
-0.145871
0.0476343
-0.146202
0.0514937
-0.146625
-0.147263
0.0129457
-0.145377
-0.0127772
0.0130029
-0.145231
0.0129758
-0.14508
0.0128845
-0.144936
0.0127419
-0.144809
0.0125549
-0.144702
0.0123266
-0.144618
0.0120572
-0.144557
0.0117455
-0.144519
0.0113893
-0.144503
0.0109862
-0.14451
0.0105338
-0.144541
0.0100306
-0.144596
0.00947576
-0.14468
0.00886949
-0.144797
0.00821264
-0.144954
0.00750508
-0.145163
0.00674241
-0.145439
0.00591634
-0.145799
-0.146087
-0.014591
-0.147615
0.0168286
-0.0121934
-0.147629
-0.00965404
-0.147619
-0.00699262
-0.147598
-0.0042277
-0.147574
-0.00137558
-0.147554
0.00154959
-0.147543
0.00453542
-0.147543
0.00757072
-0.147554
0.010645
-0.147577
0.013748
-0.147613
0.0168689
-0.147662
0.0199965
-0.147724
0.0231178
-0.147802
0.0262182
-0.147897
0.0292809
-0.148017
0.0322867
-0.148169
0.0352133
-0.148366
0.0380262
-0.148612
-0.14902
0.0115231
-0.147526
-0.0116118
0.011334
-0.147439
0.0110635
-0.147349
0.0107274
-0.147261
0.010337
-0.147183
0.00990034
-0.147117
0.00942232
-0.147065
0.00890619
-0.147027
0.00835407
-0.147002
0.00776752
-0.146991
0.00714793
-0.146994
0.00649684
-0.147011
0.00581614
-0.147043
0.00510814
-0.147094
0.00437543
-0.147165
0.0036203
-0.147262
0.00284325
-0.147392
0.00204179
-0.147565
0.00121782
-0.147788
-0.147908
-0.0116333
-0.149198
0.0133052
-0.00983676
-0.149236
-0.00792767
-0.149258
-0.00592029
-0.149269
-0.00382876
-0.149275
-0.0016662
-0.14928
0.000555606
-0.149287
0.00282598
-0.149297
0.00513506
-0.149311
0.00747348
-0.149329
0.00983196
-0.149352
0.012201
-0.14938
0.0145706
-0.149413
0.0169297
-0.149453
0.0192666
-0.149501
0.0215677
-0.149563
0.0238183
-0.149643
0.0260002
-0.149746
0.0280829
-0.14987
-0.150133
0.0100184
-0.148919
-0.0102979
0.00965295
-0.148871
0.00921521
-0.14882
0.00871759
-0.148771
0.0081701
-0.148727
0.00758036
-0.14869
0.00695411
-0.148661
0.00629579
-0.148639
0.00560901
-0.148624
0.00489699
-0.148617
0.00416282
-0.148618
0.00340966
-0.148627
0.00264082
-0.148644
0.00185971
-0.148672
0.00106958
-0.148711
0.000272969
-0.148766
-0.000528988
-0.148841
-0.00133582
-0.14894
-0.00213783
-0.149068
-0.149085
-0.00962123
-0.15015
0.0108525
-0.00828922
-0.150203
-0.00686498
-0.150244
-0.00535919
-0.150277
-0.003783
-0.150304
-0.00214713
-0.150326
-0.00046148
-0.150346
0.00126484
-0.150365
0.00302331
-0.150383
0.00480581
-0.1504
0.00660432
-0.150416
0.00841071
-0.150433
0.0102165
-0.15045
0.0120129
-0.150468
0.0137903
-0.150489
0.0155383
-0.150514
0.0172451
-0.150548
0.018895
-0.15059
0.0204598
-0.150633
-0.150789
0.0086126
-0.149706
-0.00905639
0.00809582
-0.149686
0.00751639
-0.149665
0.00688421
-0.149645
0.00620794
-0.149627
0.00549479
-0.149613
0.00475076
-0.149602
0.00398093
-0.149595
0.00318987
-0.149592
0.00238184
-0.149592
0.00156104
-0.149596
0.000731659
-0.149604
-0.000102058
-0.149616
-0.000936004
-0.149634
-0.00176648
-0.149658
-0.00259063
-0.14969
-0.0034066
-0.149732
-0.00421167
-0.149785
-0.00499286
-0.149852
-0.149774
-0.00830493
-0.150571
0.00917023
-0.00735827
-0.150632
-0.00633662
-0.150686
-0.00524849
-0.150733
-0.00410315
-0.150773
-0.00290978
-0.150806
-0.00167709
-0.150835
-0.000413214
-0.150859
0.00087423
-0.150879
0.00217801
-0.150895
0.00349112
-0.150909
0.00480672
-0.150919
0.00611803
-0.150928
0.00741834
-0.150934
0.00870099
-0.150941
0.0099592
-0.150948
0.0111854
-0.150958
0.0123691
-0.150968
0.0134894
-0.150972
-0.151072
0.00705413
-0.00762552
0.00642167
0.00573533
0.00500243
0.00422978
0.00342337
0.00258842
0.00172944
0.000850432
-4.50478e-05
-0.000953795
-0.00187303
-0.00280054
-0.00373489
-0.00467579
-0.00562424
-0.00658214
-0.00755034
-0.00852262
-0.214555
-0.137734
0.144355
0.207933
-0.222558
-0.136285
0.144288
-0.231311
-0.135081
0.143834
-0.240643
-0.133839
0.143171
-0.250444
-0.132448
0.142249
-0.260863
-0.130753
0.141172
-0.272455
-0.128632
0.140224
-0.286292
-0.126057
0.139895
-0.303908
-0.123178
0.140794
-0.327023
-0.120339
0.143454
-0.357023
-0.118043
0.148044
-0.394276
-0.116848
0.1541
-0.437498
-0.117236
0.160459
-0.483402
-0.119506
0.16541
-0.526913
-0.1235
0.167012
-0.562245
-0.1281
0.163431
-0.584064
-0.131422
0.153242
-0.588014
-0.131606
0.135557
-0.57481
-0.122875
0.10967
-0.104206
0.0719597
-0.148569
-0.139119
0.149955
-0.146383
-0.138471
-0.143804
-0.137661
-0.140728
-0.136915
-0.136886
-0.13629
-0.131855
-0.135785
-0.125187
-0.1353
-0.116602
-0.134642
-0.106229
-0.133551
-0.0947882
-0.13178
-0.0836375
-0.129194
-0.0745959
-0.125889
-0.0695734
-0.122258
-0.0702203
-0.118859
-0.0781222
-0.115598
-0.0917215
-0.114501
-0.108778
-0.114366
-0.126864
-0.11352
-0.139219
-0.11052
-0.105162
-0.189206
-0.134811
0.184897
-0.193886
-0.133792
-0.198783
-0.132763
-0.204066
-0.131632
-0.209966
-0.13039
-0.216686
-0.129065
-0.224274
-0.127712
-0.232513
-0.126403
-0.240846
-0.125219
-0.248367
-0.124259
-0.253925
-0.123636
-0.256361
-0.123453
-0.254817
-0.123803
-0.249122
-0.124554
-0.239873
-0.124847
-0.22979
-0.124584
-0.220432
-0.123724
-0.211578
-0.122374
-0.2015
-0.120598
-0.118309
-0.0818661
-0.138132
0.0851875
-0.0779857
-0.137672
-0.0735608
-0.137188
-0.06852
-0.136673
-0.0628665
-0.136043
-0.056744
-0.135187
-0.0504634
-0.133993
-0.0444795
-0.132387
-0.0393195
-0.130379
-0.035497
-0.128081
-0.0334857
-0.125647
-0.0332188
-0.12372
-0.0343821
-0.122639
-0.036482
-0.122454
-0.0383623
-0.122967
-0.0391756
-0.12377
-0.0385606
-0.124339
-0.0367294
-0.124205
-0.0341907
-0.123136
-0.121246
-0.146576
-0.136561
0.145005
-0.14824
-0.136008
-0.150021
-0.135408
-0.151912
-0.134781
-0.153827
-0.134128
-0.155564
-0.13345
-0.156801
-0.132756
-0.157116
-0.132071
-0.15605
-0.131445
-0.153164
-0.130966
-0.148261
-0.13055
-0.141767
-0.130214
-0.134421
-0.129986
-0.127027
-0.129848
-0.120206
-0.129788
-0.114171
-0.129806
-0.108628
-0.129882
-0.10292
-0.129914
-0.0963227
-0.129733
-0.129215
-0.0433121
-0.139799
0.0465507
-0.0398525
-0.139467
-0.0361569
-0.139103
-0.0323077
-0.138631
-0.0284423
-0.137993
-0.0247476
-0.137145
-0.021437
-0.136067
-0.0187258
-0.134782
-0.0167093
-0.133462
-0.0154006
-0.132275
-0.0145839
-0.131367
-0.0139488
-0.130849
-0.0131758
-0.130759
-0.0119877
-0.131036
-0.0102398
-0.131536
-0.00798753
-0.132058
-0.00547429
-0.132396
-0.00299756
-0.132391
-0.00074211
-0.131989
-0.131257
-0.109575
-0.139622
0.109397
-0.109651
-0.139391
-0.109658
-0.139096
-0.109502
-0.138786
-0.109039
-0.138456
-0.108077
-0.138107
-0.106395
-0.137749
-0.103811
-0.137366
-0.100308
-0.136965
-0.0959976
-0.136585
-0.0911052
-0.136259
-0.0859419
-0.136012
-0.0808388
-0.135862
-0.0760515
-0.135823
-0.0716777
-0.135909
-0.0676244
-0.136111
-0.0636422
-0.136378
-0.059416
-0.136617
-0.0546781
-0.136727
-0.136646
-0.0216654
-0.142198
0.0242418
-0.019106
-0.14195
-0.0165279
-0.141674
-0.0140143
-0.1413
-0.0116678
-0.140803
-0.00958916
-0.140185
-0.00784671
-0.139491
-0.00643832
-0.138774
-0.00529683
-0.138107
-0.00431522
-0.137567
-0.0033568
-0.137218
-0.00227652
-0.137093
-0.000954969
-0.137183
0.000662121
-0.137441
0.00253573
-0.137783
0.0045365
-0.138112
0.00649083
-0.138332
0.00825066
-0.138377
0.00974903
-0.138225
-0.137907
-0.0819167
-0.14266
0.0823787
-0.0812811
-0.142586
-0.0804908
-0.142465
-0.0794609
-0.14233
-0.0780901
-0.142174
-0.0762931
-0.141982
-0.0740275
-0.141757
-0.0712928
-0.141509
-0.0681429
-0.141257
-0.0646878
-0.141022
-0.0610781
-0.140827
-0.0574766
-0.140694
-0.0540203
-0.14064
-0.050783
-0.140678
-0.0477542
-0.140812
-0.0448408
-0.141025
-0.0418959
-0.141277
-0.0387633
-0.141509
-0.0353226
-0.141666
-0.141714
-0.0092502
-0.144528
0.0111177
-0.00747501
-0.144361
-0.00577426
-0.144166
-0.00419655
-0.143907
-0.00278333
-0.143587
-0.00155128
-0.143214
-0.000494572
-0.142814
0.000417436
-0.142421
0.00123933
-0.142079
0.00204345
-0.141826
0.00290672
-0.141691
0.0038954
-0.141683
0.00504627
-0.141791
0.00635083
-0.141982
0.00775097
-0.142212
0.00915194
-0.142426
0.0104506
-0.142576
0.0115679
-0.142627
0.01247
-0.142568
-0.142413
-0.0618029
-0.145223
0.0624982
-0.0609526
-0.145212
-0.0599381
-0.14518
-0.0587174
-0.145128
-0.0572538
-0.145051
-0.0555222
-0.144946
-0.0535193
-0.144817
-0.0512691
-0.144671
-0.048825
-0.144523
-0.0462643
-0.144387
-0.0436759
-0.144279
-0.041143
-0.144216
-0.0387242
-0.144209
-0.0364374
-0.144269
-0.0342551
-0.144394
-0.0321101
-0.144571
-0.0299136
-0.144772
-0.0275778
-0.144962
-0.0250371
-0.145109
-0.145191
-0.00179828
-0.146499
0.00307462
-0.000604478
-0.146405
0.000498296
-0.146283
0.00149596
-0.146126
0.00237945
-0.145934
0.00315027
-0.145717
0.00382368
-0.14549
0.00442862
-0.145276
0.00500469
-0.145099
0.00559678
-0.144979
0.00624698
-0.144929
0.00698486
-0.144954
0.00781767
-0.145042
0.00872451
-0.145176
0.00965777
-0.145328
0.0105535
-0.145467
0.0113476
-0.145567
0.0119926
-0.145607
0.0124674
-0.145583
-0.145501
-0.0469265
-0.147205
0.0476326
-0.0461205
-0.147211
-0.0451831
-0.14722
-0.0440948
-0.147214
-0.0428402
-0.147189
-0.041414
-0.147143
-0.0398251
-0.147079
-0.0380991
-0.147002
-0.0362768
-0.146921
-0.0344096
-0.146846
-0.0325505
-0.146788
-0.0307443
-0.14676
-0.0290167
-0.14677
-0.0273682
-0.146824
-0.0257725
-0.146923
-0.0241823
-0.147057
-0.0225402
-0.147209
-0.0207913
-0.147356
-0.0188946
-0.14748
-0.147567
0.00307819
-0.148028
-0.00225575
0.0038575
-0.147991
0.0045582
-0.147921
0.00517597
-0.147832
0.0057112
-0.147724
0.00617118
-0.147603
0.00657135
-0.147479
0.0069346
-0.147365
0.00728871
-0.147275
0.00766221
-0.147219
0.00807884
-0.147205
0.00855152
-0.147232
0.00907738
-0.147296
0.00963581
-0.147383
0.010191
-0.147479
0.0106991
-0.147565
0.0111182
-0.147628
0.011417
-0.147655
0.011581
-0.147644
-0.147598
-0.035559
-0.148623
0.0361541
-0.0349146
-0.148635
-0.0341689
-0.148667
-0.0333122
-0.148688
-0.0323392
-0.148697
-0.0312517
-0.148691
-0.0300611
-0.14867
-0.0287891
-0.148638
-0.0274654
-0.148599
-0.0261245
-0.14856
-0.0247994
-0.14853
-0.0235152
-0.148517
-0.0222835
-0.148527
-0.0210991
-0.148567
-0.0199402
-0.148637
-0.018773
-0.148732
-0.017558
-0.148843
-0.0162583
-0.148955
-0.0148458
-0.149056
-0.149139
0.00666562
-0.1491
-0.00618887
0.00712637
-0.149096
0.0075219
-0.149062
0.00785192
-0.149018
0.00812002
-0.148965
0.00833463
-0.148905
0.00850923
-0.148844
0.00866146
-0.14879
0.00881093
-0.148748
0.00897614
-0.148726
0.00917074
-0.148725
0.00939987
-0.148746
0.00965754
-0.148785
0.00992625
-0.148836
0.0101794
-0.14889
0.010386
-0.148939
0.0105172
-0.148974
0.0105515
-0.148989
0.0104784
-0.148983
-0.148958
-0.0264446
-0.149511
0.0268557
-0.0260074
-0.149533
-0.0254916
-0.149578
-0.0248924
-0.149618
-0.0242088
-0.149649
-0.0234449
-0.149669
-0.0226115
-0.149678
-0.021726
-0.149675
-0.0208099
-0.149664
-0.019887
-0.149648
-0.0189785
-0.149633
-0.0180991
-0.149625
-0.0172538
-0.14963
-0.0164359
-0.149654
-0.0156282
-0.149698
-0.0148055
-0.149762
-0.0139397
-0.14984
-0.0130044
-0.149925
-0.0119792
-0.150008
-0.150085
0.00959155
-0.149717
-0.00938562
0.00980302
-0.149744
0.0099585
-0.149734
0.0100596
-0.149719
0.0101109
-0.1497
0.0101206
-0.149679
0.0101
-0.149657
0.0100629
-0.149638
0.0100234
-0.149625
0.00999381
-0.149619
0.00998236
-0.149622
0.00999049
-0.149633
0.0100118
-0.149652
0.0100321
-0.149674
0.0100313
-0.149697
0.0099873
-0.149718
0.00987939
-0.149732
0.0096923
-0.149737
0.00941812
-0.149734
-0.149723
-0.0192379
-0.149961
0.0194821
-0.01899
-0.149992
-0.0186813
-0.150042
-0.0183103
-0.15009
-0.0178776
-0.150133
-0.017388
-0.150168
-0.0168509
-0.150194
-0.0162793
-0.15021
-0.0156894
-0.150215
-0.0150975
-0.150211
-0.0145177
-0.150202
-0.0139588
-0.150192
-0.0134225
-0.150188
-0.0129024
-0.150194
-0.0123849
-0.150215
-0.011851
-0.150252
-0.0112798
-0.150303
-0.0106517
-0.150366
-0.00995155
-0.150434
-0.150504
0.0117305
-0.0116912
0.0117381
0.0116959
0.0116062
0.0114735
0.0113052
0.0111109
0.0109011
0.0106865
0.0104756
0.0102739
0.0100817
0.00989375
0.00969953
0.00948459
0.00923299
0.00892999
0.00856441
0.00812997
-0.166642
-0.0832686
0.249911
-0.0975217
-0.0691204
-0.0473134
-0.0502083
-0.00902068
-0.0382928
0.0188469
-0.0278676
0.0383575
-0.0195107
0.0511329
-0.0127753
0.0585718
-0.00743894
0.0618186
-0.00324682
0.0618809
-6.22518e-05
0.0590325
0.00284843
0.0540684
0.00496403
0.0475489
0.00651958
0.0399575
0.00759135
0.0317393
0.00821816
0.0233271
0.00841225
0.0151927
0.00813437
0.00794475
0.00724797
0.00245657
0.00548818
0.00245657
-0.133009
-0.123503
0.173243
-0.101567
-0.100562
-0.0685323
-0.0832432
-0.0413835
-0.0654415
-0.0195135
-0.0497376
-0.00290209
-0.0361221
0.0091832
-0.0248606
0.0174928
-0.0157485
0.0227229
-0.00847692
0.0253086
-0.00264797
0.026193
0.00196402
0.0255616
0.00559541
0.0235984
0.00848273
0.0205306
0.0106592
0.0166296
0.0121191
0.0122443
0.0127976
0.00783097
0.0125477
0.00392445
0.0111545
0.00111703
0.0082956
0.0035736
-0.142938
-0.146408
0.165843
-0.116349
-0.127151
-0.091286
-0.108306
-0.0686357
-0.0880918
-0.0495005
-0.0688727
-0.0342018
-0.0514208
-0.0225863
-0.0364761
-0.0140968
-0.024238
-0.0080672
-0.0145065
-0.00386516
-0.00685
-0.00112899
-0.000772148
0.000494428
0.003972
0.00124219
0.00773497
0.00131615
0.0105853
0.000937992
0.0124972
0.000361915
0.0133736
-0.000154834
0.0130645
-0.000389532
0.0113892
-0.00026993
0.008176
0.00330367
-0.130495
-0.156801
0.140888
-0.115437
-0.142209
-0.0974599
-0.126283
-0.0784323
-0.107119
-0.0605423
-0.0867628
-0.0451317
-0.0668314
-0.0329272
-0.0486807
-0.0239618
-0.0332034
-0.0177874
-0.0206809
-0.0137218
-0.0109157
-0.0110531
-0.00344077
-0.00929222
0.00221107
-0.00797921
0.00642196
-0.00686215
0.00946822
-0.00577034
0.0114054
-0.00459076
0.012194
-0.00327672
0.0117504
-0.00188999
0.0100025
-0.0006528
0.00693881
0.00265087
-0.140553
-0.166241
0.149993
-0.126577
-0.156185
-0.110152
-0.142708
-0.0919107
-0.125361
-0.0733842
-0.105289
-0.0561024
-0.0841131
-0.0412616
-0.0635215
-0.0295143
-0.0449507
-0.0209157
-0.0292794
-0.0150548
-0.0167766
-0.0112592
-0.0072364
-0.00883113
-0.000217008
-0.007228
0.00481883
-0.00597944
0.00821966
-0.00481324
0.0102392
-0.00361078
0.0109916
-0.00237962
0.0105193
-0.0012324
0.00885525
-0.000362524
0.00606893
0.00228835
-0.134098
-0.168751
0.136608
-0.12695
-0.163333
-0.115618
-0.15404
-0.100722
-0.140257
-0.0836489
-0.122362
-0.0660607
-0.101701
-0.0495741
-0.0800082
-0.0353905
-0.0591342
-0.0241205
-0.0405494
-0.0158058
-0.0250912
-0.0100803
-0.0129618
-0.00637835
-0.00391901
-0.00406415
0.00250463
-0.00262842
0.00678392
-0.00168329
0.0092941
-0.0010041
0.0103124
-0.000498412
0.0100136
-0.000159926
0.00851676
-4.2797e-06
0.00591329
0.00228407
-0.140489
-0.171631
0.143368
-0.134271
-0.169551
-0.124723
-0.163587
-0.111687
-0.153293
-0.0957578
-0.138291
-0.0781707
-0.119288
-0.0605006
-0.0976782
-0.0442632
-0.0753716
-0.0305264
-0.0542862
-0.0197487
-0.0358689
-0.0118565
-0.020854
-0.00644885
-0.00932664
-0.00297546
-0.000968763
-0.00091153
0.00472
0.00018664
0.00819593
0.000648663
0.00985038
0.000698167
0.00996407
0.000497049
0.00871788
0.000198076
0.00621226
0.00248214
-0.134634
-0.169832
0.132835
-0.133392
-0.170793
-0.128466
-0.168513
-0.119364
-0.162395
-0.1063
-0.151356
-0.0901793
-0.135409
-0.0724882
-0.115369
-0.054972
-0.0928878
-0.0391904
-0.0700679
-0.0261405
-0.0489188
-0.016144
-0.0308505
-0.00899848
-0.0164722
-0.00423575
-0.00573149
-0.00130464
0.00178888
0.00028199
0.0066093
0.000929451
0.00920292
0.000961554
0.00993197
0.000647181
0.00903225
0.000237734
0.00662171
0.00271988
-0.137411
-0.168913
0.136492
-0.136859
-0.171346
-0.133789
-0.171583
-0.127341
-0.168844
-0.116954
-0.161742
-0.102819
-0.149544
-0.0858827
-0.132306
-0.0677253
-0.111045
-0.0501665
-0.0876267
-0.0347578
-0.0643275
-0.0223913
-0.043217
-0.0132303
-0.0256332
-0.00692681
-0.0120349
-0.00291627
-0.00222166
-0.000620625
0.00431366
0.000459648
0.00812265
0.000735471
0.00965615
0.000549918
0.0092178
0.00020807
0.00696356
0.00292795
-0.131805
-0.165451
0.128344
-0.134326
-0.168826
-0.134794
-0.171114
-0.132087
-0.171551
-0.125378
-0.168451
-0.114349
-0.160574
-0.0994057
-0.147248
-0.0817371
-0.128714
-0.06313
-0.106234
-0.0455348
-0.0819227
-0.0305122
-0.0582397
-0.0188464
-0.037299
-0.0105369
-0.0203445
-0.00508779
-0.00767073
-0.00184237
0.00106824
-0.000170097
0.00645038
0.00045099
0.00903506
0.000449498
0.0092193
0.00018958
0.00722347
0.00311753
-0.132729
-0.163361
0.130638
-0.135111
-0.166444
-0.136672
-0.169553
-0.13631
-0.171912
-0.13273
-0.172031
-0.125013
-0.168291
-0.112851
-0.15941
-0.0967676
-0.144798
-0.0781294
-0.124872
-0.0589117
-0.10114
-0.0411842
-0.0759671
-0.0265
-0.0519832
-0.0155131
-0.0313314
-0.00803994
-0.0151438
-0.00342632
-0.00354538
-0.000917044
0.0039411
0.000170231
0.00794779
0.000389113
0.00900041
0.000196493
0.00741609
0.00331402
-0.128443
-0.160329
0.125411
-0.132065
-0.162822
-0.135524
-0.166094
-0.137772
-0.169664
-0.137558
-0.172245
-0.13363
-0.172219
-0.125124
-0.167916
-0.111866
-0.158055
-0.0945761
-0.142162
-0.0748622
-0.120854
-0.0549323
-0.095897
-0.0370043
-0.0699112
-0.0226304
-0.0457053
-0.0123228