/*--------------------------------*- C++ -*----------------------------------*\
| =========                 |                                                 |
| \\      /  F ield         | OpenFOAM: The Open Source CFD Toolbox           |
|  \\    /   O peration     | Version:  v1806                                 |
|   \\  /    A nd           | Web:      www.OpenFOAM.com                      |
|    \\/     M anipulation  |                                                 |
\*---------------------------------------------------------------------------*/
FoamFile
{
    version     2.0;
    format      ascii;
    class       surfaceScalarField;
    location    "80";
    object      phi;
}
// * * * * * * * * * * * * * * * * * * * * * * * * * * * * * * * * * * * * * //

dimensions      [0 3 -1 0 0 0 0];
oriented        oriented;


internalField   nonuniform List<scalar> 
4680
(
0.0750013
-0.000717604
0.0750056
-0.00215206
0.0750136
-0.00358215
0.0750263
-0.00500255
0.0750447
-0.00640875
0.0750704
-0.00779603
0.0751048
-0.00915922
0.0751499
-0.0104927
0.0752079
-0.0117904
0.0752811
-0.0130456
0.075372
-0.0142515
0.0754833
-0.0154007
0.0756176
-0.016486
0.0757775
-0.0175001
0.0759651
-0.0184364
0.0761824
-0.0192882
0.0764307
-0.0200509
0.0767108
-0.02072
0.0770237
-0.021294
-0.021767
0.0773592
0.0750033
-0.00072091
0.0750134
-0.00216216
0.0750308
-0.00359952
0.0750565
-0.0050283
0.0750922
-0.0064444
0.0751397
-0.00784351
0.0752012
-0.00922078
0.0752795
-0.010571
0.0753773
-0.0118882
0.0754977
-0.013166
0.0756439
-0.0143976
0.0758188
-0.0155756
0.0760255
-0.0166927
0.0762662
-0.0177407
0.0765428
-0.018713
0.0768563
-0.0196016
0.0772069
-0.0204016
0.077593
-0.0211061
0.0780125
-0.0217134
-0.0222188
0.0784642
0.0750052
-0.000726118
0.075021
-0.00217791
0.0750479
-0.00362641
0.0750873
-0.00506771
0.075141
-0.00649817
0.0752116
-0.00791409
0.0753017
-0.00931092
0.0754147
-0.010684
0.0755539
-0.0120274
0.0757231
-0.0133352
0.0759256
-0.0146002
0.076165
-0.015815
0.0764441
-0.0169717
0.0767651
-0.0180617
0.0771293
-0.0190773
0.0775368
-0.0200091
0.0779865
-0.0208513
0.0784754
-0.021595
0.0790005
-0.0222386
-0.0227736
0.0795554
0.0750068
-0.000732966
0.0750276
-0.00219861
0.0750629
-0.00366173
0.0751145
-0.00511929
0.0751845
-0.00656827
0.0752761
-0.00800568
0.0753925
-0.00942732
0.0755378
-0.0108292
0.0757158
-0.0122054
0.075931
-0.0135505
0.0761874
-0.0148566
0.0764891
-0.0161167
0.0768389
-0.0173216
0.0772394
-0.0184622
0.0776913
-0.0195291
0.078194
-0.0205118
0.0787454
-0.0214028
0.0793409
-0.0221905
0.0799754
-0.0228731
-0.0234382
0.08064
0.0750082
-0.000741142
0.0750329
-0.00222334
0.0750751
-0.0037039
0.0751367
-0.00518093
0.0752205
-0.00665201
0.07533
-0.00811519
0.0754691
-0.00956646
0.0756429
-0.011003
0.0758558
-0.0124182
0.0761136
-0.0138083
0.0764204
-0.0151634
0.0767819
-0.0164782
0.0772006
-0.0177403
0.0776801
-0.0189417
0.0782204
-0.0200695
0.0788211
-0.0211124
0.0794784
-0.0220601
0.0801863
-0.0228984
0.0809374
-0.0236242
-0.0242208
0.08172
0.0750091
-0.000750256
0.0750367
-0.00225092
0.0750838
-0.00375098
0.0751528
-0.00524993
0.0752468
-0.00674602
0.0753702
-0.00823867
0.0755277
-0.00972387
0.0757253
-0.0112006
0.0759681
-0.0126611
0.0762639
-0.014104
0.0766168
-0.0155163
0.0770348
-0.0168962
0.07752
-0.0182254
0.0780783
-0.0195
0.0787081
-0.0206994
0.0794104
-0.0218146
0.0801792
-0.0228289
0.0810073
-0.0237266
0.0818844
-0.0245013
-0.0251317
0.0827954
0.0750096
-0.000759825
0.0750386
-0.00227992
0.0750881
-0.00380056
0.0751612
-0.00532299
0.0752613
-0.00684613
0.0753939
-0.00837123
0.075564
-0.00989398
0.0757796
-0.0114162
0.0760461
-0.0129276
0.076374
-0.0144319
0.0767671
-0.0159094
0.0772376
-0.0173668
0.0777855
-0.0187733
0.0784221
-0.0201367
0.0791421
-0.0214193
0.0799507
-0.0226233
0.0808375
-0.0237157
0.0817961
-0.0246852
0.0828114
-0.0255166
-0.0261846
0.0838642
0.0750094
-0.000769267
0.0750381
-0.00230857
0.0750873
-0.00384977
0.0751605
-0.00539613
0.0752616
-0.00694729
0.0753973
-0.00850688
0.0755732
-0.0100699
0.0757994
-0.0116424
0.0760815
-0.0132098
0.076434
-0.0147844
0.0768594
-0.0163348
0.077377
-0.0178843
0.0779817
-0.019378
0.0786961
-0.0208511
0.0795053
-0.0222285
0.0804269
-0.0235449
0.0814387
-0.0247275
0.0825414
-0.025788
0.0837098
-0.026685
-0.0273972
0.0849225
0.0750086
-0.000777897
0.0750349
-0.00233483
0.0750803
-0.00389519
0.0751488
-0.0054646
0.0752449
-0.00704347
0.0753764
-0.00863834
0.0755497
-0.0102432
0.0757772
-0.0118698
0.0760649
-0.0134975
0.0764322
-0.0151517
0.0768793
-0.0167819
0.0774364
-0.0184414
0.0780891
-0.0200307
0.0788802
-0.0216422
0.0797747
-0.0231229
0.0808182
-0.0245884
0.081961
-0.0258704
0.0832272
-0.0270542
0.0845668
-0.0280245
-0.0287952
0.0859648
0.075007
-0.000784921
0.0750285
-0.00235628
0.0750661
-0.00393285
0.0751243
-0.00552277
0.0752083
-0.00712749
0.0753268
-0.00875684
0.0754874
-0.0104038
0.0757046
-0.012087
0.0759853
-0.0137782
0.0763544
-0.0155208
0.0768095
-0.017237
0.0773952
-0.0190271
0.0780827
-0.0207182
0.0789485
-0.022508
0.079919
-0.0240935
0.0810977
-0.0257671
0.0823739
-0.0271465
0.0838319
-0.0285122
0.0853632
-0.0295558
-0.0304165
0.0869845
0.0750045
-0.00078943
0.0750184
-0.00237019
0.0750437
-0.00395818
0.0750852
-0.00556419
0.0751487
-0.00719105
0.0752438
-0.00885195
0.0753796
-0.0105395
0.0755722
-0.0122796
0.0758306
-0.0140366
0.0761842
-0.0158744
0.0766301
-0.0176829
0.077228
-0.019625
0.0779328
-0.021423
0.0788676
-0.0234427
0.0798974
-0.0251233
0.0812308
-0.0271005
0.0826328
-0.0285486
0.0843276
-0.0302069
0.0860719
-0.0313001
-0.0323192
0.0879746
0.075001
-0.000790412
0.0750043
-0.0023735
0.0750122
-0.00396608
0.0750296
-0.00558155
0.0750632
-0.00722465
0.0751228
-0.00891163
0.0752196
-0.0106362
0.0753703
-0.0124304
0.0755878
-0.0142542
0.0759033
-0.0161899
0.0763191
-0.0180987
0.0769039
-0.0202098
0.0776052
-0.0221243
0.0785935
-0.0244311
0.0796593
-0.026189
0.0811707
-0.0286119
0.0826732
-0.030051
0.0846806
-0.0322143
0.0866521
-0.0332717
-0.0345919
0.0889248
0.0749964
-0.000786767
0.0749858
-0.0023629
0.0749707
-0.00395098
0.0749559
-0.00556683
0.074949
-0.0072177
0.0749597
-0.00892234
0.075001
-0.0106775
0.0750895
-0.0125188
0.0752438
-0.0144085
0.0754927
-0.0164387
0.0758525
-0.0184585
0.076387
-0.0207442
0.0770622
-0.0227995
0.0780673
-0.0254362
0.0791487
-0.0272704
0.0808492
-0.0303124
0.0824063
-0.0316081
0.0848527
-0.0346608
0.0870302
-0.0354492
-0.0373814
0.0898197
0.0749906
-0.000777342
0.0749626
-0.00233494
0.0749186
-0.00390697
0.0748633
-0.00551153
0.0748044
-0.00715875
0.0747514
-0.00886934
0.0747187
-0.0106449
0.0747221
-0.0125222
0.0747862
-0.0144727
0.0749346
-0.0165871
0.075205
-0.0187289
0.0756393
-0.0211785
0.0762612
-0.0234214
0.0772125
-0.0263875
0.0783096
-0.0283675
0.0801535
-0.0321563
0.0817368
-0.0331914
0.0847859
-0.0377099
0.0870568
-0.0377201
-0.0409925
0.0906679
0.0749836
-0.00076098
0.0749348
-0.00228614
0.0748559
-0.00382809
0.0747514
-0.00540699
0.0746285
-0.00703588
0.0744964
-0.00873722
0.0743697
-0.0105182
0.0742632
-0.0124156
0.0742054
-0.0144149
0.0742155
-0.0165973
0.0743509
-0.0188644
0.0746278
-0.0214554
0.0751507
-0.0239443
0.0759474
-0.0271843
0.077076
-0.0294961
0.0789053
-0.0339856
0.0806064
-0.0348924
0.0843171
-0.0414207
0.0864877
-0.0398906
-0.0461164
0.0916116
0.0749756
-0.000736583
0.0749026
-0.00221317
0.0747832
-0.00370862
0.074621
-0.00524482
0.0744226
-0.00683746
0.074196
-0.00851061
0.0739547
-0.010277
0.0737124
-0.0121733
0.0734973
-0.0141998
0.0733281
-0.016428
0.0732691
-0.0188054
0.073328
-0.0215143
0.0736674
-0.0242837
0.074213
-0.0277298
0.0753356
-0.0306187
0.0768771
-0.0355271
0.0789836
-0.036999
0.0830092
-0.0454462
0.0851835
-0.0420649
-0.0538998
0.092967
0.0749666
-0.00070319
0.0748665
-0.00211311
0.0747015
-0.00354352
0.0744741
-0.00501747
0.0741896
-0.00655293
0.0738541
-0.00817516
0.0734788
-0.00990167
0.0730754
-0.0117699
0.0726678
-0.0137922
0.072275
-0.0160353
0.0719544
-0.0184847
0.0717247
-0.0212846
0.0717484
-0.0243074
0.0719609
-0.0279423
0.0728876
-0.0315454
0.0739836
-0.0366231
0.0767086
-0.0397239
0.0801215
-0.0488591
0.0835225
-0.045466
-0.0649104
0.094533
0.0749569
-0.000660059
0.0748275
-0.00198369
0.0746127
-0.00332881
0.0743142
-0.00471893
0.073935
-0.00617371
0.0734787
-0.00771891
0.0729531
-0.009376
0.0723656
-0.0111825
0.0717342
-0.0131607
0.0710738
-0.0153749
0.0704275
-0.0178384
0.0698232
-0.0206804
0.0693803
-0.0238644
0.0691248
-0.0276869
0.0694875
-0.0319081
0.0701324
-0.037268
0.0729131
-0.0425046
0.0750773
-0.0510233
0.0822452
-0.0526338
-0.0762302
0.0935649
0.0749467
-0.000606733
0.0747865
-0.00182355
0.0745197
-0.003062
0.0741461
-0.00434531
0.0736665
-0.00569406
0.0730812
-0.00713363
0.0723934
-0.00868825
0.0716051
-0.0103942
0.070726
-0.0122816
0.0697617
-0.0144106
0.0687391
-0.0168159
0.0676734
-0.0196146
0.0666389
-0.02283
0.0656877
-0.0267357
0.0650556
-0.031276
0.0649232
-0.0371356
0.0664927
-0.0440741
0.0683586
-0.0528893
0.0790398
-0.063315
-0.0808202
0.0836298
0.0749363
-0.000543078
0.0747451
-0.00163233
0.0744255
-0.00274237
0.0739756
-0.00389539
0.0733934
-0.00511191
0.0726758
-0.00641602
0.0718206
-0.00783301
0.0708231
-0.00939667
0.0696832
-0.0111417
0.0683943
-0.0131218
0.0669646
-0.0153862
0.0653823
-0.0180323
0.0636795
-0.0211272
0.0618335
-0.0248896
0.0599444
-0.029387
0.0580925
-0.0352837
0.0565747
-0.0425563
0.0571246
-0.0534393
0.0639411
-0.0701314
0.0590012
-0.0758802
0.0779648
-0.0356241
0.078636
-0.0362142
0.0793537
-0.036477
0.0801064
-0.0364082
0.0808796
-0.0361423
0.0816571
-0.035644
0.0824396
-0.0350512
0.0832075
-0.0343507
0.0839765
-0.0335509
-0.0327669
0.0847199
0.0792418
-0.0364017
0.0800679
-0.0370403
0.0809224
-0.0373316
0.0817847
-0.0372705
0.0826425
-0.0370001
0.0834804
-0.0364819
0.0843048
-0.0358756
0.0850973
-0.0351432
0.0858766
-0.0343302
-0.0335273
0.0866371
0.0804951
-0.0373414
0.0814687
-0.0380138
0.0824511
-0.0383141
0.0834174
-0.0382367
0.0843557
-0.0379384
0.0852542
-0.0373805
0.0861219
-0.0367432
0.0869452
-0.0359666
0.0877521
-0.0351371
-0.0343025
0.0885273
0.0817522
-0.0384537
0.0828836
-0.0391451
0.0840014
-0.0394319
0.0850758
-0.0393112
0.086096
-0.0389586
0.0870533
-0.0383377
0.0879606
-0.0376505
0.08881
-0.0368159
0.0896351
-0.0359622
-0.0350876
0.0904202
0.0830178
-0.0397515
0.0843184
-0.0404457
0.0855784
-0.0406918
0.0867635
-0.0404963
0.0878638
-0.0400589
0.0888752
-0.0393492
0.089816
-0.0385913
0.0906832
-0.0376832
0.0915174
-0.0367964
-0.0358715
0.0923013
0.0842957
-0.0412518
0.0857792
-0.0419292
0.087188
-0.0421006
0.0884844
-0.0417928
0.0896604
-0.0412349
0.0907193
-0.040408
0.0916844
-0.0395564
0.0925587
-0.0385576
0.0933866
-0.0376243
-0.0366328
0.0941478
0.0855891
-0.0429768
0.0872711
-0.0436112
0.0888347
-0.0436642
0.0902411
-0.0431991
0.0914864
-0.0424802
0.0925845
-0.0415061
0.0935615
-0.0405334
0.0944247
-0.0394208
0.0952148
-0.0384144
-0.0373246
0.0959067
0.0869007
-0.044955
0.0887984
-0.0455089
0.0905221
-0.0453879
0.0920358
-0.0447128
0.0933444
-0.0437888
0.0944708
-0.0426325
0.0954366
-0.0414993
0.0962472
-0.0402314
0.0969281
-0.0390953
-0.0378448
0.0974482
0.088232
-0.0472222
0.0903643
-0.0476412
0.0922549
-0.0472785
0.0938763
-0.0463342
0.0952417
-0.0451541
0.09637
-0.0437608
0.0972661
-0.0423953
0.0979205
-0.0408858
0.0983358
-0.0395106
-0.0379884
0.0984794
0.0895829
-0.0498206
0.0919751
-0.0500334
0.0940487
-0.0493521
0.0957815
-0.0480671
0.0971766
-0.0465492
0.0982226
-0.0448068
0.0988947
-0.0430675
0.0991604
-0.0411515
0.0990115
-0.0393617
-0.0374035
0.0984266
0.0909533
-0.0527992
0.0936548
-0.052735
0.0959414
-0.0516387
0.0977626
-0.0498882
0.099068
-0.0478547
0.099795
-0.0455338
0.0998982
-0.0431706
0.0993416
-0.0405949
0.0981537
-0.0381738
-0.0355943
0.0963445
0.0923583
-0.0562327
0.0954694
-0.0558462
0.0979702
-0.0541394
0.0997129
-0.0516308
0.100566
-0.0487077
0.100453
-0.0454212
0.0993692
-0.0420865
0.0973483
-0.038574
0.0945268
-0.0353522
-0.0320412
0.0909737
0.0938649
-0.0602779
0.0975076
-0.0594889
0.100006
-0.0566379
0.101119
-0.0527437
0.10073
-0.0483192
0.0988991
-0.0435898
0.0957835
-0.0389709
0.0916045
-0.034395
0.0866563
-0.0304039
-0.0264838
0.0810988
0.0955919
-0.0652019
0.0996614
-0.0635585
0.101319
-0.0582958
0.100617
-0.0520416
0.0977312
-0.0454331
0.0931081
-0.0389668
0.087211
-0.0330738
0.0805241
-0.0277081
0.0734663
-0.0233462
-0.0193078
0.0662903
0.0975627
-0.0711531
0.10102
-0.0670158
0.099966
-0.0572418
0.0956846
-0.0477602
0.0889629
-0.0387114
0.0808671
-0.030871
0.0721801
-0.0243868
0.0635593
-0.0190874
0.0553623
-0.0151491
-0.0117668
0.0478212
0.0988645
-0.0770506
0.0990401
-0.0671913
0.0925334
-0.050735
0.0831061
-0.038333
0.0721417
-0.0277469
0.061282
-0.0200113
0.0512836
-0.0143884
0.042585
-0.0103888
0.0351357
-0.00769979
-0.00555897
0.0289279
0.0963391
-0.0788567
0.0893186
-0.0601709
0.0751779
-0.0365943
0.0610423
-0.0241973
0.0477524
-0.0144571
0.037021
-0.00927994
0.0285987
-0.00596604
0.0221761
-0.00396622
0.0171421
-0.00266575
-0.00173974
0.0133229
0.0842049
-0.0694967
0.0671983
-0.0431643
0.0470715
-0.0164675
0.0324626
-0.00958846
0.0217065
-0.00370088
0.0148525
-0.00242603
0.0101501
-0.00126363
0.00690204
-0.000718124
0.00452758
-0.000291282
-0.000203871
0.00299171
0.056916
-0.0427829
0.0325634
-0.0188117
0.0160141
8.18962e-05
0.00747311
-0.00104752
0.00333207
0.00044016
0.00085429
5.17525e-05
-0.000533042
0.000123703
-0.00142957
0.000178405
-0.00196394
0.000243085
-6.38101e-05
-0.002104
0.0162183
-0.00259343
-0.00251153
-0.00355905
-0.00311889
-0.00306714
-0.00294344
-0.00276503
-0.00252195
-0.00258576
0.086204
-0.0646227
0.0877861
-0.0604712
0.0892659
-0.0560706
0.0902952
-0.049427
0.0915084
-0.0400432
0.0931069
-0.031479
0.0931173
-0.0253483
0.091618
-0.0182146
0.091432
-0.0192243
0.0893028
-0.0434241
0.0773874
-0.0795174
0.0559339
-0.104603
0.0338917
-0.109261
0.0183919
-0.096877
0.00990403
-0.0765534
0.00573925
-0.0565088
0.00368655
-0.0400597
0.00264747
-0.0269872
0.00213695
-0.0163498
-0.00763887
0.0881448
-0.0661304
0.0897445
-0.062071
0.0912122
-0.0575383
0.0922778
-0.0504925
0.0934788
-0.0412441
0.0946752
-0.0326754
0.0939644
-0.0246375
0.0918438
-0.016094
0.0905777
-0.0179582
0.0862998
-0.0391463
0.0732594
-0.0664769
0.0535462
-0.0848902
0.0342534
-0.0899683
0.0200831
-0.0827067
0.0115338
-0.0680041
0.00691573
-0.0518908
0.00449294
-0.0376369
0.00322532
-0.0257196
0.00259661
-0.0157211
-0.00741885
0.0900961
-0.0676992
0.0917479
-0.0637228
0.0932441
-0.0590345
0.094438
-0.0516864
0.0957022
-0.0425084
0.0964438
-0.033417
0.0949802
-0.023174
0.092188
-0.0133018
0.0895481
-0.0153182
0.0833498
-0.032948
0.0698521
-0.0529792
0.0516201
-0.0666582
0.0342103
-0.0725585
0.0211815
-0.0696779
0.0129069
-0.0597294
0.00811621
-0.0471001
0.00543945
-0.0349602
0.00397667
-0.0242568
0.00323459
-0.014979
-0.00715036
0.0920303
-0.0693093
0.0937028
-0.0653953
0.0951979
-0.0605296
0.0964657
-0.0529542
0.0976769
-0.0437196
0.0978808
-0.0336208
0.0957076
-0.0210008
0.0921961
-0.00979026
0.0881237
-0.0112458
0.080243
-0.0250673
0.0664114
-0.0391476
0.0493811
-0.0496279
0.0336676
-0.0568451
0.0218068
-0.0578171
0.0139633
-0.0518859
0.0091712
-0.042308
0.00635542
-0.0321444
0.00475739
-0.0226588
0.00392829
-0.0141499
-0.00684173
0.0939167
-0.0709247
0.0955423
-0.0670208
0.0969414
-0.0619288
0.0981271
-0.0541398
0.0990774
-0.0446699
0.0986394
-0.0331828
0.0957686
-0.0181301
0.0915195
-0.00554108
0.0860906
-0.00581693
0.0767552
-0.0157319
0.0627109
-0.0251032
0.0469209
-0.0338379
0.0328492
-0.0427734
0.0221135
-0.0470814
0.0147555
-0.0445279
0.0100612
-0.0376137
0.00718981
-0.0292731
0.00550841
-0.0209774
0.00461818
-0.0132596
-0.00650166
0.0956918
-0.0724687
0.0971247
-0.0684537
0.0982207
-0.0630247
0.0990535
-0.0549727
0.0994772
-0.0450936
0.0983003
-0.0320059
0.0947836
-0.0146134
0.0898474
-0.000604934
0.0831938
0.000836678
0.0727108
-0.00524894
0.0587383
-0.0111307
0.044252
-0.0193516
0.0317568
-0.0302782
0.0221275
-0.0374521
0.015309
-0.0377094
0.0107893
-0.033094
0.00792695
-0.0264107
0.00620435
-0.0192548
0.00527469
-0.01233
-0.00613761
0.0972121
-0.0737741
0.0981691
-0.0694107
0.098602
-0.0634575
0.0987043
-0.0550751
0.0983283
-0.0447176
0.0963848
-0.0300624
0.0923632
-0.0105918
0.0868762
0.0048821
0.0792322
0.0084807
0.0679987
0.00598447
0.0544452
0.00242288
0.041392
-0.00629845
0.0304499
-0.0193362
0.0219051
-0.0289073
0.0156573
-0.0314615
0.0113674
-0.028804
0.00856414
-0.0236075
0.00683448
-0.0175251
0.00588332
-0.0113788
-0.00575594
0.0981807
-0.0745066
0.0981868
-0.0694168
0.0974518
-0.0627225
0.0964149
-0.0540382
0.0950614
-0.0433641
0.092458
-0.027459
0.0881786
-0.00631239
0.0823735
0.0106872
0.0740809
0.0167733
0.062581
0.0174844
0.0498406
0.0151632
0.038386
0.00515614
0.0289825
-0.00993267
0.021494
-0.0214187
0.0158315
-0.0257991
0.0118101
-0.0247826
0.00910436
-0.0209017
0.00739521
-0.015816
0.00643746
-0.0104211
-0.00536215
0.0980601
-0.0740873
0.0964547
-0.0678113
0.0940115
-0.0602793
0.0915597
-0.0515863
0.0892699
-0.0410744
0.0862838
-0.0244728
0.0820717
-0.00210033
0.0762474
0.0165115
0.0677206
0.0253001
0.056495
0.02871
0.045014
0.0266442
0.0353009
0.0148692
0.0274097
-0.00204146
0.0209375
-0.0149465
0.015861
-0.0207226
0.012133
-0.0210546
0.00955349
-0.0183222
0.00788683
-0.0141493
0.00693491
-0.00946913
-0.00496108
0.0960265
-0.0716873
0.0921051
-0.0638899
0.0876175
-0.0557917
0.0838226
-0.0477914
0.0809343
-0.0381861
0.077974
-0.0215125
0.0741373
0.00173633
0.0685924
0.0220565
0.0602796
0.0336128
0.0498895
0.0391002
0.040072
0.0364616
0.0322203
0.022721
0.0257847
0.00439414
0.0202755
-0.00943737
0.0157726
-0.0162197
0.0123517
-0.0176337
0.00991889
-0.0158894
0.00831183
-0.0125423
0.00737604
-0.00853334
-0.00455699
0.091057
-0.0663998
0.0843947
-0.0572276
0.0780512
-0.0494482
0.0734768
-0.043217
0.0705595
-0.0352688
0.0679977
-0.0189506
0.0647448
0.00498922
0.0596937
0.0271076
0.0520224
0.0412841
0.0429961
0.0481265
0.0351771
0.0442806
0.0292245
0.0286736
0.0241556
0.009463
0.0195429
-0.00482465
0.0155909
-0.0122676
0.0124813
-0.0145241
0.0102086
-0.0136167
0.00867399
-0.0110077
0.0077627
-0.00762205
-0.00415364
0.0822424
-0.0576685
0.0731419
-0.0481271
0.0658778
-0.0421841
0.0614727
-0.038812
0.0590732
-0.0328693
0.0570735
-0.016951
0.0544029
0.00765983
0.0499666
0.0315439
0.0433172
0.0479335
0.0361073
0.0553364
0.0305007
0.0498872
0.0263884
0.0327859
0.0225666
0.0132848
0.0187701
-0.00102812
0.0153376
-0.00883516
0.0125359
-0.0117224
0.0104308
-0.0115116
0.00897785
-0.0095547
0.00809766
-0.00674186
-0.00375423
0.0693284
-0.045898
0.0591504
-0.0379491
0.0524873
-0.035521
0.0491463
-0.035471
0.0474584
-0.0311815
0.0458817
-0.0153742
0.0436384
0.00990314
0.0398866
0.0352956
0.0345935
0.0532267
0.0295368
0.0603931
0.0261999
0.0532241
0.0237741
0.0352117
0.0210486
0.0160103
0.017982
0.00203847
0.0150321
-0.00588526
0.0125287
-0.00921901
0.0105938
-0.00957667
0.00922827
-0.00818921
0.00838419
-0.00589778
-0.0033615
0.053306
-0.0329137
0.0442649
-0.028908
0.0396062
-0.0308622
0.0376225
-0.0334873
0.0363799
-0.0299388
0.0349059
-0.0139002
0.0329197
0.0118893
0.0299451
0.0382702
0.0262959
0.0568759
0.0235747
0.0631143
0.0223927
0.0544061
0.0214196
0.0361847
0.0196243
0.0178056
0.0171984
0.00446432
0.0146909
-0.00337771
0.0124716
-0.00699973
0.0107052
-0.00781029
0.00943025
-0.00691425
0.00862582
-0.00509335
-0.00297769
0.0365458
-0.0216384
0.0307019
-0.0230641
0.0284813
-0.0286416
0.0274045
-0.0324105
0.0261153
-0.0286497
0.0244714
-0.0122562
0.0226779
0.0136827
0.020629
0.0403192
0.0188368
0.0586681
0.0184421
0.063509
0.0191408
0.0537074
0.0193385
0.035987
0.0183063
0.0188379
0.0164366
0.00633402
0.0143282
-0.00126928
0.0123752
-0.00504681
0.0107725
-0.00620759
0.00958874
-0.00573044
0.00882613
-0.00433073
-0.00260455
0.0219061
-0.0146165
0.0199297
-0.0210878
0.0194271
-0.028139
0.0184903
-0.0314736
0.0167756
-0.026935
0.014869
-0.0103496
0.0133436
0.0152081
0.0123957
0.0412671
0.0125417
0.0585221
0.0142563
0.0617944
0.0164463
0.0515175
0.0175245
0.0349087
0.0171018
0.0192606
0.0157078
0.00772802
0.0139557
0.000482754
0.012249
-0.00334008
0.0108025
-0.00476113
0.0097085
-0.00463643
0.00898869
-0.00361092
-0.00224338
0.0111754
-0.0124691
0.0120948
-0.0220072
0.0121218
-0.028166
0.0107629
-0.0301148
0.00850455
-0.0246767
0.00642296
-0.00826804
0.00532842
0.0163026
0.0056111
0.0409844
0.00759113
0.056542
0.0110166
0.058369
0.0142629
0.0482711
0.0159589
0.0332127
0.0160124
0.0192072
0.0150211
0.00871939
0.0135826
0.00192125
0.012101
-0.00185855
0.0108013
-0.00346136
0.00979404
-0.00362921
0.00911694
-0.00293381
-0.00189507
0.00441327
-0.0138907
0.00650825
-0.0241021
0.00617678
-0.0278345
0.004203
-0.028141
0.00148161
-0.0219553
-0.000566871
-0.00621956
-0.00106843
0.0168042
0.000489952
0.0394261
0.00398692
0.0530451
0.00862138
0.0537345
0.0125173
0.0443752
0.0146169
0.0311132
0.0150363
0.0187877
0.0143813
0.00937437
0.0132177
0.0030849
0.0119385
-0.000579381
0.0107744
-0.00229723
0.00984955
-0.00270438
0.00921413
-0.00229839
-0.0015601
0.000682628
-0.0166773
0.00245945
-0.025879
0.00137671
-0.0267518
-0.00112379
-0.0256405
-0.004
-0.0190791
-0.00593682
-0.00428274
-0.00581368
0.0166811
-0.00314413
0.0367565
0.00157184
0.0483291
0.00691078
0.0483956
0.0111295
0.0401565
0.0134729
0.0287697
0.0141697
0.018091
0.013793
0.00975101
0.012867
0.00401096
0.0117675
0.000520137
0.0107268
-0.0012566
0.00987886
-0.00185641
0.00928329
-0.00170282
-0.00123865
-0.000889283
-0.0183738
-0.000489039
-0.0262792
-0.00232986
-0.0249109
-0.00514751
-0.0228228
-0.00803134
-0.0161953
-0.00966162
-0.00265246
-0.00887336
0.0158928
-0.00534608
0.0332292
0.000105044
0.042878
0.00571531
0.0427853
0.0100284
0.0358433
0.0125048
0.0262933
0.0134087
0.0171871
0.0132595
0.0099002
0.0125359
0.00473464
0.011593
0.00146301
0.0106631
-0.000326732
0.00988521
-0.0010785
0.00932755
-0.00114516
-0.000929717
-0.00126941
-0.0171044
-0.00342985
-0.0241188
-0.00643904
-0.0219017
-0.0100234
-0.0192385
-0.0132258
-0.0129928
-0.0145931
-0.00128516
-0.0128443
0.014144
-0.00786847
0.0282534
-0.000970028
0.0359795
0.00577555
0.0360397
0.0108904
0.0307285
0.0139389
0.0232448
0.0152229
0.0159031
0.0152842
0.00983888
0.0146383
0.00538053
0.0136839
0.00241741
0.0126963
0.000660928
0.0118435
-0.00022573
0.0112237
-0.000525391
-0.000569991
-0.00204644
-0.0150579
-0.00557531
-0.0205899
-0.00907359
-0.0184035
-0.0125866
-0.0157255
-0.0153188
-0.0102606
-0.0159991
-0.000604877
-0.0136121
0.0117571
-0.00829658
0.0229378
-0.00147195
0.0291549
0.00501349
0.0295543
0.00994895
0.0257931
0.0130064
0.0201873
0.0144349
0.0144746
0.0146928
0.00958092
0.0142382
0.00583519
0.0134419
0.0032137
0.0125705
0.00153234
0.0117953
0.000549408
0.0112196
5.03527e-05
-0.000226528
-0.00280678
-0.0122512
-0.00701926
-0.0163774
-0.0107114
-0.0147113
-0.0139854
-0.0124515
-0.0161932
-0.00805278
-0.0162744
-0.000523698
-0.0134862
0.0089689
-0.00813828
0.0175899
-0.00160031
0.0226169
0.0045368
0.0234172
0.00926148
0.0210684
0.0122855
0.0171634
0.0138009
0.0129592
0.0141975
0.00918429
0.0138858
0.00614696
0.013212
0.00388744
0.012434
0.00231041
0.0117228
0.0012606
0.0111838
0.000589365
0.000101707
-0.00337106
-0.00888009
-0.0079428
-0.0118057
-0.01166
-0.0109942
-0.0146459
-0.00946553
-0.0163788
-0.00631989
-0.0160007
-0.000901797
-0.0129921
0.00596033
-0.00775311
0.0123508
-0.00154121
0.016405
0.00426689
0.0176091
0.00879155
0.0165437
0.0117582
0.0141967
0.013314
0.0114034
0.0137978
0.00870044
0.013584
0.00636083
0.0129986
0.00447286
0.0122905
0.0030185
0.011629
0.00192202
0.0111201
0.0010983
0.000417121
-0.00372789
-0.00515219
-0.00848336
-0.00705021
-0.0121547
-0.00732287
-0.0148893
-0.0067309
-0.0162589
-0.0049503
-0.0155625
-0.00159817
-0.0124392
0.00283702
-0.0073289
0.00724056
-0.00138581
0.0104619
0.0041608
0.0120625
0.00851501
0.0121895
0.0114106
0.0113011
0.0129673
0.00984667
0.0134919
0.00817586
0.0133338
0.00651892
0.0128038
0.00500286
0.0121427
0.00367956
0.0115167
0.00254801
0.0110307
0.0015843
0.000722028
-0.0039008
-0.0012514
-0.00872744
-0.00222357
-0.0123425
-0.00370782
-0.0149145
-0.00415887
-0.0160619
-0.00380291
-0.0151708
-0.00248935
-0.0119788
-0.000354952
-0.00694814
0.00220991
-0.00117315
0.00468692
0.00419705
0.00669228
0.00841729
0.00796926
0.0112328
0.00848558
0.0127554
0.00832414
0.0132774
0.00765383
0.013135
0.00666128
0.0126287
0.00550921
0.0119922
0.00431606
0.0113874
0.00315278
0.0109172
0.00205455
0.00101887
-0.00390895
0.00265755
-0.0087056
0.00257309
-0.0122781
-0.000135311
-0.0148023
-0.00163463
-0.0158836
-0.00272166
-0.0149121
-0.00346087
-0.0116689
-0.00359811
-0.006639
-0.00282
-0.000916059
-0.00103602
0.00436703
0.0014092
0.0084911
0.00384519
0.0112191
0.00575758
0.0126741
0.00686916
0.013152
0.00717593
0.0129866
0.00682662
0.0124731
0.00602274
0.0118393
0.00494986
0.0112418
0.00375029
0.0107802
0.00251614
0.00131008
-0.00376258
0.00642013
-0.00838444
0.00719494
-0.01192
0.00340023
-0.0145172
0.000962597
-0.0157031
-0.00153573
-0.0147831
-0.00438093
-0.0115091
-0.00687206
-0.00640078
-0.00792835
-0.000612367
-0.00682443
0.00467099
-0.00387416
0.00873529
-0.000219105
0.0113669
0.00312596
0.0127204
0.00551563
0.0131128
0.00678354
0.0128865
0.007053
0.0123356
0.00657355
0.0116833
0.00560218
0.0110796
0.00435397
0.0106199
0.00297589
0.00159802
-0.00348318
0.00990331
-0.00766213
0.0113739
-0.0111176
0.00685569
-0.0138974
0.00374244
-0.0153744
-5.87284e-05
-0.0146796
-0.00507581
-0.0114442
-0.0101074
-0.00620869
-0.0131639
-0.00024643
-0.0127867
0.00511796
-0.00923854
0.00915409
-0.00425524
0.0116773
0.000602739
0.0128928
0.00430014
0.013157
0.00651932
0.0128314
0.00737859
0.0122138
0.00719116
0.0115225
0.00629348
0.0108999
0.00497665
0.0104356
0.00344013
0.00188493
-0.00317615
0.0130795
-0.00634992
0.0145477
-0.00960717
0.0101129
-0.0126371
0.00677235
-0.0145957
0.00189988
-0.0143553
-0.00531615
-0.0113232
-0.0131395
-0.00599263
-0.0184944
0.000195565
-0.0189749
0.00572385
-0.0147668
0.00975856
-0.00828995
0.0121538
-0.00179252
0.0131897
0.00326427
0.0132805
0.00642846
0.012817
0.00784213
0.0121037
0.00790446
0.0113539
0.00704329
0.0107007
0.00562987
0.0102255
0.00391527
0.00217191
-0.00249502
0.0129127
0.00266177
-0.00343352
0.0154862
-0.00571144
0.0123909
-0.00826127
0.00932218
-0.0102359
0.0038745
-0.0105478
-0.00500425
-0.00852367
-0.0151637
-0.004412
-0.0226061
0.000570493
-0.0239574
0.00503881
-0.0192351
0.00820414
-0.0114553
0.00997034
-0.00355871
0.0106227
0.00261193
0.0105394
0.00651179
0.0100528
0.00832867
0.00940827
0.00854901
0.00876706
0.0076845
0.0082288
0.00616812
0.00784178
0.00430229
0.00239291
-0.00142113
0.0114924
0.00284146
-0.00139076
0.0154558
-0.00340599
0.0144061
-0.00607423
0.0119904
-0.00845179
0.00625206
-0.00931881
-0.00413723
-0.00779604
-0.0166864
-0.00392761
-0.0264745
0.00108026
-0.0289653
0.0056499
-0.0238048
0.00881104
-0.0146164
0.0104581
-0.00520582
0.0109416
0.00212848
0.0106957
0.00675773
0.0100802
0.00894416
0.00934605
0.00928313
0.0086492
0.00838134
0.00808107
0.00673626
0.00768164
0.00470172
0.00261514
0.00117105
0.0106804
-0.000359069
0.00154771
0.0150791
-0.00024443
0.0161982
-0.0029595
0.0147055
-0.0056993
0.00899186
-0.00718304
-0.00265349
-0.00636727
-0.0175022
-0.0030144
-0.0298274
0.00182029
-0.0337999
0.00641743
-0.0284019
0.00954487
-0.0177439
0.0110414
-0.00670239
0.011322
0.00184789
0.0108845
0.00719523
0.0101192
0.00970946
0.0092821
0.0101203
0.00852192
0.00914152
0.00791946
0.00733872
0.00750644
0.00511474
0.00283979
0.00586174
0.0120058
-0.00718717
0.00564642
0.0152945
0.0039989
0.0178458
0.00123429
0.0174701
-0.00179269
0.0120188
-0.00386535
-0.00058084
-0.00392397
-0.0174436
-0.00141065
-0.0323407
0.00292628
-0.0381369
0.00739429
-0.0328699
0.0104247
-0.0207742
0.0117258
-0.00800351
0.0117631
0.00181056
0.0111024
0.00785596
0.0101659
0.0106459
0.00921302
0.0110732
0.0083826
0.00997194
0.00774246
0.00797886
0.00731445
0.00554276
0.00306695
0.0132151
0.016887
-0.0180963
0.0113191
0.0171905
0.00939611
0.0197687
0.00665556
0.0202106
0.00344536
0.0152291
0.000830003
0.00203451
-0.000158006
-0.0164556
0.00113383
-0.0336326
0.00458055
-0.0415836
0.00865801
-0.0369474
0.0114777
-0.0235939
0.0125192
-0.009045
0.0122645
0.00206523
0.0113455
0.00877491
0.010216
0.0117754
0.00913515
0.012154
0.0082285
0.0108786
0.00754815
0.00865921
0.00710424
0.00598666
0.00329654
0.0236218
0.0258254
-0.0325601
0.0190152
0.021797
0.0161456
0.0226383
0.0132628
0.0230934
0.0099975
0.0184944
0.00693485
0.00509716
0.0049531
-0.0144738
0.00484169
-0.0335211
0.00699229
-0.0437342
0.0103121
-0.0402672
0.0127398
-0.0260216
0.0134311
-0.00973635
0.0128253
0.00267108
0.0116094
0.00999082
0.0102643
0.0131204
0.00904436
0.013374
0.00805659
0.0118664
0.00733442
0.00938138
0.0068743
0.00644679
0.0035283
0.0366544
0.0379068
-0.0487358
0.0289768
0.0294746
0.0244516
0.0271635
0.0210774
0.0264677
0.0177383
0.0218335
0.0143922
0.00844324
0.0115564
-0.0116381
0.0099213
-0.031886
0.0103611
-0.044174
0.0124788
-0.0423848
0.0142556
-0.0277984
0.0144724
-0.00995316
0.0134436
0.00369986
0.011888
0.0115464
0.0103049
0.0147035
0.00893595
0.014743
0.00786364
0.0129387
0.00709909
0.0101459
0.00662301
0.00692287
0.00376174
0.0508682
0.051026
-0.0639873
0.0408421
0.0395006
0.0343622
0.0336434
0.030087
0.0307429
0.0265243
0.0253963
0.022983
0.0119845
0.0194693
-0.00812431
0.0163622
-0.028779
0.014818
-0.0426298
0.015279
-0.0428459
0.0160757
-0.0285951
0.0156541
-0.00953153
0.0141161
0.00523785
0.012174
0.0134886
0.0103306
0.0165469
0.00880465
0.0162689
0.00764615
0.0140972
0.00683986
0.0109522
0.00634875
0.00741398
0.00399615
0.0643221
0.0629007
-0.0761967
0.0535214
0.0503013
0.0455211
0.0416437
0.0401582
0.0361058
0.0361603
0.0293942
0.0324124
0.0157324
0.028388
-0.00409992
0.0239907
-0.0243816
0.0203787
-0.0390179
0.0188026
-0.0412698
0.0182502
-0.0280427
0.0169864
-0.00826775
0.0148373
0.00738697
0.0124581
0.0158678
0.0103334
0.0186716
0.00864463
0.0179577
0.00740039
0.0153414
0.00655441
0.0117982
0.00604993
0.00791846
0.00423059
0.0754114
0.0720028
-0.0845136
0.0655472
0.0601655
0.0570788
0.0501121
0.0508902
0.0422944
0.0463563
0.033928
0.0423342
0.0197545
0.03792
0.000314247
0.0324925
-0.018954
0.026926
-0.0334513
0.023079
-0.0374228
0.0208175
-0.0257813
0.018476