x,y,z,U_0,U_1,U_2
0,0,0,0.3,-0.00026735,0
0,0.1,0,0.3,-0.000190964,0
0,0.2,0,0.3,-0.000114579,0
0,0.3,0,0.3,-3.81929e-05,0
0,0.4,0,0.3,0,0
0,0.5,0,0.3,0,0
0,0.6,0,0.3,0,0
0,0.7,0,0.3,0,0
0,0.8,0,0.3,0,0
0,0.9,0,0.3,0,0
0,1,0,0.3,0,0
0,1.1,0,0.3,0,0
0,1.2,0,0.3,0,0
0,1.3,0,0.3,0,0
0,1.4,0,0.3,0,0
0,1.5,0,0.3,0,0
0,1.6,0,0.3,0,0
0,1.7,0,0.3,0,0
0,1.8,0,0.3,0,0
0,1.9,0,0.3,0,0
0,2,0,0.3,0,0
0,2.1,0,0.3,0,0
0,2.2,0,0.3,0,0
0,2.3,0,0.3,0,0
0,2.4,0,0.3,0,0
0,2.5,0,0.3,0,0
0,2.6,0,0.3,0,0
0,2.7,0,0.3,0,0
0,2.8,0,0.3,0,0
0,2.9,0,0.3,0,0
0,3,0,0.3,0,0
0,3.1,0,0.3,0,0
0,3.2,0,0.3,0,0
0,3.3,0,0.3,0,0
0,3.4,0,0.3,0,0
0,3.5,0,0.3,2.32243e-19,0
0,3.6,0,0.3,0,0
0,3.7,0,0.3,0,0
0,3.8,0,0.3,0,0
0,3.9,0,0.3,0,0
0,4,0,0.3,0,0
0,4.1,0,0.3,0,0
0,4.2,0,0.3,0,0
0,4.3,0,0.3,0,0
0,4.4,0,0.3,0,0
0,4.5,0,0.3,0,0
0,4.6,0,0.3,0,0
0,4.7,0,0.3,0,0
0,4.8,0,0.3,0,0
0,4.9,0,0.3,1.87012e-19,0
0,5,0,0.3,0,0
0,5.1,0,0.3,0,0
0,5.2,0,0.3,0,0
0,5.3,0,0.3,0,0
0,5.4,0,0.3,0,0
0,5.5,0,0.3,0,0
0,5.6,0,0.3,0,0
0,5.7,0,0.3,0,0
0,5.8,0,0.3,0,0
0,5.9,0,0.3,0,0
0,6,0,0.3,0,0
0,6.1,0,0.3,0,0
0,6.2,0,0.3,0,0
0,6.3,0,0.3,0,0
0,6.4,0,0.3,0,0
0,6.5,0,0.3,0,0
0,6.6,0,0.3,0,0
0,6.7,0,0.3,0,0
0,6.8,0,0.3,0,0
0,6.9,0,0.3,0,0
0,7,0,0.3,0,0
0,7.1,0,0.3,-2.1651e-21,0
0,7.2,0,0.3,0,0
0,7.3,0,0.3,0,0
0,7.4,0,0.3,0,0
0,7.5,0,0.3,-4.7668e-20,0
0,7.6,0,0.3,0,0
0,7.7,0,0.3,-7.05725e-20,0
0,7.8,0,0.3,0,0
0,7.9,0,0.3,0,0
0,8,0,0.3,0,0
0,8.1,0,0.3,0,0
0,8.2,0,0.3,0,0
0,8.3,0,0.3,0,0
0,8.4,0,0.3,0,0
0,8.5,0,0.3,0,0
0,8.6,0,0.3,0,0
0,8.7,0,0.3,0,0
0,8.8,0,0.3,0,0
0,8.9,0,0.3,0,0
0,9,0,0.3,0,0
0,9.1,0,0.3,0,0
0,9.2,0,0.3,0,0
0,9.3,0,0.3,0,0
0,9.4,0,0.3,0,0
0,9.5,0,0.3,0,0
0,9.6,0,0.3,0,0
0,9.7,0,0.3,0,0
0,9.8,0,0.3,0,0
0,9.9,0,0.3,0,0
0,10,0,0.3,0,0
0,10.1,0,0.3,0,0
0,10.2,0,0.3,0,0
0,10.3,0,0.3,0,0
0,10.4,0,0.3,0,0
0,10.5,0,0.3,0,0
0,10.6,0,0.3,0,0
0,10.7,0,0.3,0,0
0,10.8,0,0.3,0,0
0,10.9,0,0.3,0,0
0,11,0,0.3,0,0
0,11.1,0,0.3,0,0
0,11.2,0,0.3,0,0
0,11.3,0,0.3,0,0
0,11.4,0,0.3,0,0
0,11.5,0,0.3,0,0
0,11.6,0,0.3,0,0
0,11.7,0,0.3,0,0
0,11.8,0,0.3,0,0
0,11.9,0,0.3,0,0
0,12,0,0.3,0,0
0,12.1,0,0.3,0,0
0,12.2,0,0.3,0,0
0,12.3,0,0.3,0,0
0,12.4,0,0.3,0,0
0,12.5,0,0.3,5.92852e-05,0
0,12.6,0,0.3,0.000228671,0
0,12.7,0,0.3,0.000398058,0
0.1,0,0,0.3,-0.000496524,0
0.1,0.1,0,0.3,-0.000420121,0
0.1,0.2,0,0.3,-0.000343736,0
0.1,0.3,0,0.3,-0.000305661,0
0.1,0.4,0,0.3,-0.000305874,0
0.1,0.5,0,0.3,-0.000305968,0
0.1,0.6,0,0.3,-0.000305968,0
0.1,0.7,0,0.300001,-0.000306406,0
0.1,0.8,0,0.3,-0.000306752,0
0.1,0.9,0,0.3,-0.000306752,0
0.1,1,0,0.3,-0.000307042,0
0.1,1.1,0,0.3,-0.000307542,0
0.1,1.2,0,0.3,-0.000307752,0
0.1,1.3,0,0.3,-0.000307752,0
0.1,1.4,0,0.300001,-0.000308381,0
0.1,1.5,0,0.3,-0.000308754,0
0.1,1.6,0,0.3,-0.000308754,0
0.1,1.7,0,0.3,-0.000309032,0
0.1,1.8,0,0.3,-0.000309396,0
0.1,1.9,0,0.3,-0.000309483,0
0.1,2,0,0.3,-0.000309483,0
0.1,2.1,0,0.3,-0.000309806,0
0.1,2.2,0,0.3,-0.000309591,0
0.1,2.3,0,0.3,-0.000309591,0
0.1,2.4,0,0.3,-0.000309541,0
0.1,2.5,0,0.3,-0.000309074,0
0.1,2.6,0,0.3,-0.000308658,0
0.1,2.7,0,0.3,-0.000308658,0
0.1,2.8,0,0.299999,-0.00030791,0
0.1,2.9,0,0.3,-0.000306193,0
0.1,3,0,0.3,-0.000306193,0
0.1,3.1,0,0.299999,-0.00030537,0
0.1,3.2,0,0.299999,-0.000303094,0
0.1,3.3,0,0.299999,-0.000301641,0
0.1,3.4,0,0.299999,-0.000301641,0
0.1,3.5,0,0.299996,-0.000298837,0
0.1,3.6,0,0.299999,-0.000294403,0
0.1,3.7,0,0.299999,-0.000294403,0
0.1,3.8,0,0.299997,-0.000292291,0
0.1,3.9,0,0.299997,-0.000287019,0
0.1,4,0,0.299999,-0.000283859,0
0.1,4.1,0,0.299999,-0.000283859,0
0.1,4.2,0,0.299992,-0.000277964,0
0.1,4.3,0,0.299999,-0.00026941,0
0.1,4.4,0,0.299999,-0.00026941,0
0.1,4.5,0,0.299994,-0.000265514,0
0.1,4.6,0,0.299994,-0.000256077,0
0.1,4.7,0,0.299998,-0.000250537,0
0.1,4.8,0,0.299998,-0.000250537,0
0.1,4.9,0,0.299988,-0.000240636,0
0.1,5,0,0.299998,-0.000226869,0
0.1,5.1,0,0.299998,-0.000226869,0
0.1,5.2,0,0.299991,-0.000220752,0
0.1,5.3,0,0.299991,-0.000206438,0
0.1,5.4,0,0.299998,-0.000198241,0
0.1,5.5,0,0.299998,-0.000198241,0
0.1,5.6,0,0.299982,-0.000183405,0
0.1,5.7,0,0.299999,-0.000164721,0
0.1,5.8,0,0.299999,-0.000164721,0
0.1,5.9,0,0.299989,-0.000155849,0
0.1,6,0,0.299989,-0.00013679,0
0.1,6.1,0,0.3,-0.000126603,0
0.1,6.2,0,0.3,-0.000126603,0
0.1,6.3,0,0.299976,-0.00010565,0
0.1,6.4,0,0.300002,-8.43829e-05,0
0.1,6.5,0,0.300002,-8.43829e-05,0
0.1,6.6,0,0.299988,-7.22344e-05,0
0.1,6.7,0,0.299989,-4.9872e-05,0
0.1,6.8,0,0.300003,-3.9658e-05,0
0.1,6.9,0,0.300003,-3.9658e-05,0
0.1,7,0,0.299973,-2.00264e-05,0
0.1,7.1,0,0.299972,2.78592e-06,0
0.1,7.2,0,0.299972,1.73126e-05,0
0.1,7.3,0,0.299972,3.19275e-05,0
0.1,7.4,0,0.299972,4.6609e-05,0
0.1,7.5,0,0.299972,6.13365e-05,0
0.1,7.6,0,0.299972,7.60801e-05,0
0.1,7.7,0,0.299972,9.08087e-05,0
0.1,7.8,0,0.299972,0.000105499,0
0.1,7.9,0,0.299972,0.000120128,0
0.1,8,0,0.299972,0.000139387,0
0.1,8.1,0,0.300005,0.000154315,0
0.1,8.2,0,0.29999,0.000160944,0
0.1,8.3,0,0.300002,0.000185634,0
0.1,8.4,0,0.300003,0.00018621,0
0.1,8.5,0,0.299987,0.00020807,0
0.1,8.6,0,0.300002,0.000217178,0
0.1,8.7,0,0.299978,0.000230765,0
0.1,8.8,0,0.300001,0.000246734,0
0.1,8.9,0,0.299991,0.000252614,0
0.1,9,0,0.299997,0.000273113,0
0.1,9.1,0,0.299999,0.000274522,0
0.1,9.2,0,0.299986,0.000293083,0
0.1,9.3,0,0.299999,0.000300385,0
0.1,9.4,0,0.299984,0.000312077,0
0.1,9.5,0,0.299998,0.000324242,0
0.1,9.6,0,0.299993,0.000328544,0
0.1,9.7,0,0.299995,0.000344465,0
0.1,9.8,0,0.299998,0.00034605,0
0.1,9.9,0,0.299988,0.000360467,0
0.1,10,0,0.299998,0.000365791,0
0.1,10.1,0,0.299989,0.000374414,0
0.1,10.2,0,0.299998,0.000383467,0
0.1,10.3,0,0.299995,0.000386004,0
0.1,10.4,0,0.299995,0.000397647,0
0.1,10.5,0,0.299998,0.000399102,0
0.1,10.6,0,0.299991,0.000408928,0
0.1,10.7,0,0.299998,0.000412747,0
0.1,10.8,0,0.299993,0.000418035,0
0.1,10.9,0,0.299998,0.000424483,0
0.1,11,0,0.299997,0.000425639,0
0.1,11.1,0,0.299997,0.000433244,0
0.1,11.2,0,0.299999,0.00043441,0
0.1,11.3,0,0.299994,0.000440177,0
0.1,11.4,0,0.299999,0.000442642,0
0.1,11.5,0,0.299996,0.000445387,0
0.1,11.6,0,0.299999,0.000449297,0
0.1,11.7,0,0.299999,0.00044967,0
0.1,11.8,0,0.299998,0.000453806,0
0.1,11.9,0,0.299999,0.000454487,0
0.1,12,0,0.299997,0.000457291,0
0.1,12.1,0,0.299999,0.000458309,0
0.1,12.2,0,0.299999,0.000459417,0
0.1,12.3,0,0.3,0.000460819,0
0.1,12.4,0,0.3,0.000460862,0
0.1,12.5,0,0.3,0.000462112,0
0.1,12.6,0,0.3,0.000577002,0
0.1,12.7,0,0.299999,0.000747114,0
0.2,0,0,0.3,-0.000725699,0
0.2,0.1,0,0.3,-0.000649296,0
0.2,0.2,0,0.3,-0.000611204,0
0.2,0.3,0,0.3,-0.000611441,0
0.2,0.4,0,0.3,-0.000611653,0
0.2,0.5,0,0.3,-0.000611842,0
0.2,0.6,0,0.300001,-0.000612374,0
0.2,0.7,0,0.300001,-0.000612811,0
0.2,0.8,0,0.300001,-0.000613158,0
0.2,0.9,0,0.3,-0.000613794,0
0.2,1,0,0.300001,-0.000614374,0
0.2,1.1,0,0.300001,-0.000614874,0
0.2,1.2,0,0.3,-0.000615294,0
0.2,1.3,0,0.300001,-0.000616133,0
0.2,1.4,0,0.300001,-0.000616762,0
0.2,1.5,0,0.300001,-0.000617135,0
0.2,1.6,0,0.3,-0.000617786,0
0.2,1.7,0,0.300001,-0.000618341,0
0.2,1.8,0,0.300001,-0.000618705,0
0.2,1.9,0,0.3,-0.000618879,0
0.2,2,0,0.3,-0.000619289,0
0.2,2.1,0,0.3,-0.000619611,0
0.2,2.2,0,0.3,-0.000619397,0
0.2,2.3,0,0.3,-0.000619132,0
0.2,2.4,0,0.3,-0.000619031,0
0.2,2.5,0,0.3,-0.000618565,0
0.2,2.6,0,0.3,-0.000617733,0
0.2,2.7,0,0.299999,-0.000616568,0
0.2,2.8,0,0.299998,-0.00061582,0
0.2,2.9,0,0.299999,-0.000614103,0
0.2,3,0,0.299999,-0.000611563,0
0.2,3.1,0,0.299997,-0.000609918,0
0.2,3.2,0,0.299996,-0.000607642,0
0.2,3.3,0,0.299998,-0.000604736,0
0.2,3.4,0,0.299996,-0.000600478,0
0.2,3.5,0,0.299993,-0.000597674,0
0.2,3.6,0,0.299996,-0.00059324,0
0.2,3.7,0,0.299996,-0.000586694,0
0.2,3.8,0,0.299992,-0.000582469,0
0.2,3.9,0,0.299991,-0.000577197,0
0.2,4,0,0.299996,-0.000570878,0
0.2,4.1,0,0.299991,-0.000561823,0
0.2,4.2,0,0.299985,-0.000555927,0
0.2,4.3,0,0.299991,-0.000547374,0
0.2,4.4,0,0.299993,-0.000534924,0
0.2,4.5,0,0.299985,-0.000527132,0
0.2,4.6,0,0.299984,-0.000517695,0
0.2,4.7,0,0.299992,-0.000506614,0
0.2,4.8,0,0.299986,-0.000491173,0
0.2,4.9,0,0.299975,-0.000481273,0
0.2,5,0,0.299986,-0.000467505,0
0.2,5.1,0,0.29999,-0.00044762,0
0.2,5.2,0,0.299976,-0.000435387,0
0.2,5.3,0,0.299976,-0.000421073,0
0.2,5.4,0,0.29999,-0.000404678,0
0.2,5.5,0,0.29998,-0.000381646,0
0.2,5.6,0,0.299964,-0.000366811,0
0.2,5.7,0,0.299981,-0.000348126,0
0.2,5.8,0,0.299988,-0.00032057,0
0.2,5.9,0,0.299968,-0.000302827,0
0.2,6,0,0.299968,-0.000283768,0
0.2,6.1,0,0.299989,-0.000263393,0
0.2,6.2,0,0.299976,-0.000232253,0
0.2,6.3,0,0.299952,-0.0002113,0
0.2,6.4,0,0.299978,-0.000190033,0
0.2,6.5,0,0.29999,-0.000156617,0
0.2,6.6,0,0.299962,-0.00013232,0
0.2,6.7,0,0.299963,-0.000109958,0
0.2,6.8,0,0.299992,-8.953e-05,0
0.2,6.9,0,0.299976,-5.96844e-05,0
0.2,7,0,0.299945,-4.00529e-05,0
0.2,7.1,0,0.299944,5.57184e-06,0
0.2,7.2,0,0.299944,3.46251e-05,0
0.2,7.3,0,0.299944,6.3855e-05,0
0.2,7.4,0,0.299944,9.3218e-05,0
0.2,7.5,0,0.299943,0.000122673,0
0.2,7.6,0,0.299943,0.00015216,0
0.2,7.7,0,0.299944,0.000181617,0
0.2,7.8,0,0.299944,0.000210997,0
0.2,7.9,0,0.299944,0.000240255,0
0.2,8,0,0.299945,0.000278773,0
0.2,8.1,0,0.299994,0.000301008,0
0.2,8.2,0,0.299963,0.000329107,0
0.2,8.3,0,0.299975,0.000353797,0
0.2,8.4,0,0.299979,0.000386306,0
0.2,8.5,0,0.299961,0.000408782,0
0.2,8.6,0,0.299991,0.000439709,0
0.2,8.7,0,0.299953,0.000462624,0
0.2,8.8,0,0.299987,0.000484765,0
0.2,8.9,0,0.299969,0.000513891,0
0.2,9,0,0.299974,0.00053439,0
0.2,9.1,0,0.299981,0.000561608,0
0.2,9.2,0,0.299965,0.000581835,0
0.2,9.3,0,0.299988,0.00060413,0
0.2,9.4,0,0.299964,0.000626199,0
0.2,9.5,0,0.299984,0.000641809,0
0.2,9.6,0,0.299975,0.000665833,0
0.2,9.7,0,0.299978,0.000681754,0
0.2,9.8,0,0.299985,0.000701929,0
0.2,9.9,0,0.299973,0.000718675,0
0.2,10,0,0.299989,0.000733158,0
0.2,10.1,0,0.299975,0.000751308,0
0.2,10.2,0,0.299987,0.000762109,0
0.2,10.3,0,0.299983,0.000779409,0
0.2,10.4,0,0.299983,0.000791052,0
0.2,10.5,0,0.299989,0.00080461,0
0.2,10.6,0,0.299981,0.000816757,0
0.2,10.7,0,0.299992,0.000825684,0
0.2,10.8,0,0.299984,0.000838313,0
0.2,10.9,0,0.299991,0.000845567,0
0.2,11,0,0.299989,0.000856514,0
0.2,11.1,0,0.299989,0.000864119,0
0.2,11.2,0,0.299994,0.000872339,0
0.2,11.3,0,0.299988,0.000879922,0
0.2,11.4,0,0.299995,0.000884841,0
0.2,11.5,0,0.299991,0.000892402,0
0.2,11.6,0,0.299995,0.000896579,0
0.2,11.7,0,0.299995,0.000902472,0
0.2,11.8,0,0.299994,0.000906608,0
0.2,11.9,0,0.299997,0.000910567,0
0.2,12,0,0.299994,0.0009145,0
0.2,12.1,0,0.299998,0.000916266,0
0.2,12.2,0,0.299997,0.00091973,0
0.2,12.3,0,0.299998,0.000921154,0
0.2,12.4,0,0.299999,0.000923029,0
0.2,12.5,0,0.299999,0.000924278,0
0.2,12.6,0,0.3,0.000925704,0
0.2,12.7,0,0.299999,0.00109617,0
0.3,0,0,0.3,-0.000954873,0
0.3,0.1,0,0.3,-0.000916781,0
0.3,0.2,0,0.300001,-0.000917001,0
0.3,0.3,0,0.300001,-0.00091722,0
0.3,0.4,0,0.300001,-0.000917433,0
0.3,0.5,0,0.300001,-0.000918059,0
0.3,0.6,0,0.300001,-0.000918685,0
0.3,0.7,0,0.300002,-0.000919217,0
0.3,0.8,0,0.300001,-0.000919854,0
0.3,0.9,0,0.300001,-0.00092078,0
0.3,1,0,0.300001,-0.000921707,0
0.3,1.1,0,0.300001,-0.000922207,0
0.3,1.2,0,0.300001,-0.000923256,0
0.3,1.3,0,0.300001,-0.000924304,0
0.3,1.4,0,0.300002,-0.000925143,0
0.3,1.5,0,0.300001,-0.000925794,0
0.3,1.6,0,0.300001,-0.000926722,0
0.3,1.7,0,0.300001,-0.000927649,0
0.3,1.8,0,0.300001,-0.000928014,0
0.3,1.9,0,0.300001,-0.000928511,0
0.3,2,0,0.300001,-0.000929007,0
0.3,2.1,0,0.300001,-0.000929417,0
0.3,2.2,0,0.3,-0.000929152,0
0.3,2.3,0,0.3,-0.000928837,0
0.3,2.4,0,0.299999,-0.000928522,0
0.3,2.5,0,0.299999,-0.000928055,0
0.3,2.6,0,0.299999,-0.000926475,0
0.3,2.7,0,0.299998,-0.000924894,0
0.3,2.8,0,0.299997,-0.00092373,0
0.3,2.9,0,0.299997,-0.00092119,0
0.3,3,0,0.299996,-0.000917828,0
0.3,3.1,0,0.299994,-0.000914466,0
0.3,3.2,0,0.299994,-0.00091219,0
0.3,3.3,0,0.299993,-0.000906479,0
0.3,3.4,0,0.299991,-0.000900768,0
0.3,3.5,0,0.299989,-0.000896511,0
0.3,3.6,0,0.29999,-0.000889965,0
0.3,3.7,0,0.299988,-0.000881306,0
0.3,3.8,0,0.299986,-0.000872646,0
0.3,3.9,0,0.299986,-0.000867374,0
0.3,4,0,0.299984,-0.00085516,0
0.3,4.1,0,0.299982,-0.000842946,0
0.3,4.2,0,0.299977,-0.000833891,0
0.3,4.3,0,0.299979,-0.000821441,0
0.3,4.4,0,0.299977,-0.000805095,0
0.3,4.5,0,0.299975,-0.000788749,0
0.3,4.6,0,0.299974,-0.000779312,0
0.3,4.7,0,0.299972,-0.000758331,0
0.3,4.8,0,0.299969,-0.00073735,0
0.3,4.9,0,0.299963,-0.000721909,0
0.3,5,0,0.299967,-0.000702025,0
0.3,5.1,0,0.299964,-0.000676023,0
0.3,5.2,0,0.299961,-0.000650022,0
0.3,5.3,0,0.299961,-0.000635708,0
0.3,5.4,0,0.299958,-0.000604478,0
0.3,5.5,0,0.299955,-0.000573249,0
0.3,5.6,0,0.299945,-0.000550216,0
0.3,5.7,0,0.299952,-0.00052266,0
0.3,5.8,0,0.299949,-0.000486232,0
0.3,5.9,0,0.299947,-0.000449804,0
0.3,6,0,0.299947,-0.000430745,0
0.3,6.1,0,0.299945,-0.000389418,0
0.3,6.2,0,0.299942,-0.00034809,0
0.3,6.3,0,0.299929,-0.00031695,0
0.3,6.4,0,0.29994,-0.000283534,0
0.3,6.5,0,0.299938,-0.00023797,0
0.3,6.6,0,0.299936,-0.000192407,0
0.3,6.7,0,0.299937,-0.000170044,0
0.3,6.8,0,0.299935,-0.000129985,0
0.3,6.9,0,0.299934,-8.99249e-05,0
0.3,7,0,0.299918,-6.00793e-05,0
0.3,7.1,0,0.299917,8.35776e-06,0
0.3,7.2,0,0.299916,5.19377e-05,0
0.3,7.3,0,0.299916,9.57825e-05,0
0.3,7.4,0,0.299915,0.000139827,0
0.3,7.5,0,0.299915,0.00018401,0
0.3,7.6,0,0.299915,0.00022824,0
0.3,7.7,0,0.299915,0.000272426,0
0.3,7.8,0,0.299916,0.000316496,0
0.3,7.9,0,0.299916,0.000360383,0
0.3,8,0,0.299917,0.00041816,0
0.3,8.1,0,0.299934,0.000454094,0
0.3,8.2,0,0.299935,0.000496952,0
0.3,8.3,0,0.299935,0.000528748,0
0.3,8.4,0,0.299936,0.000577227,0
0.3,8.5,0,0.299935,0.000609495,0
0.3,8.6,0,0.299938,0.000655101,0
0.3,8.7,0,0.299929,0.000694482,0
0.3,8.8,0,0.299941,0.000729929,0
0.3,8.9,0,0.299943,0.000773745,0
0.3,9,0,0.299943,0.000801269,0
0.3,9.1,0,0.299946,0.000842189,0
0.3,9.2,0,0.299944,0.000870587,0
0.3,9.3,0,0.299949,0.00090662,0
0.3,9.4,0,0.299945,0.000940322,0
0.3,9.5,0,0.299953,0.000966897,0
0.3,9.6,0,0.299955,0.0010014,0
0.3,9.7,0,0.299956,0.00102292,0
0.3,9.8,0,0.299959,0.00105408,0
0.3,9.9,0,0.299957,0.00107688,0
0.3,10,0,0.299962,0.00110247,0
0.3,10.1,0,0.299961,0.0011282,0
0.3,10.2,0,0.299966,0.00114662,0
0.3,10.3,0,0.299968,0.00117121,0
0.3,10.4,0,0.299969,0.00118659,0
0.3,10.5,0,0.299971,0.00120807,0
0.3,10.6,0,0.29997,0.00122459,0
0.3,10.7,0,0.299975,0.00124104,0
0.3,10.8,0,0.299975,0.00125859,0
0.3,10.9,0,0.299977,0.00127026,0
0.3,11,0,0.299979,0.00128605,0
0.3,11.1,0,0.29998,0.0012959,0
0.3,11.2,0,0.299982,0.00130911,0
0.3,11.3,0,0.299982,0.00131967,0
0.3,11.4,0,0.299985,0.00132896,0
0.3,11.5,0,0.299986,0.00133942,0
0.3,11.6,0,0.299988,0.00134576,0
0.3,11.7,0,0.299989,0.00135438,0
0.3,11.8,0,0.29999,0.00135967,0
0.3,11.9,0,0.299991,0.00136623,0
0.3,12,0,0.299991,0.00137171,0
0.3,12.1,0,0.299993,0.00137548,0
0.3,12.2,0,0.299995,0.00138004,0
0.3,12.3,0,0.299996,0.0013822,0
0.3,12.4,0,0.299997,0.00138496,0
0.3,12.5,0,0.299998,0.00138646,0
0.3,12.6,0,0.299998,0.00138738,0
0.3,12.7,0,0.299998,0.00144523,0
0.4,0,0,0.300001,-0.00122215,0
0.4,0.1,0,0.300001,-0.00122236,0
0.4,0.2,0,0.300001,-0.00122258,0
0.4,0.3,0,0.300001,-0.0012228,0
0.4,0.4,0,0.300002,-0.00122346,0
0.4,0.5,0,0.300002,-0.00122409,0
0.4,0.6,0,0.300002,-0.00122472,0
0.4,0.7,0,0.300002,-0.00122559,0
0.4,0.8,0,0.300002,-0.00122673,0
0.4,0.9,0,0.300003,-0.00122765,0
0.4,1,0,0.300003,-0.00122858,0
0.4,1.1,0,0.300003,-0.00123016,0
0.4,1.2,0,0.300003,-0.00123121,0
0.4,1.3,0,0.300003,-0.00123226,0
0.4,1.4,0,0.300003,-0.00123368,0
0.4,1.5,0,0.300003,-0.00123486,0
0.4,1.6,0,0.300002,-0.00123579,0
0.4,1.7,0,0.300002,-0.00123672,0
0.4,1.8,0,0.300002,-0.00123795,0
0.4,1.9,0,0.300002,-0.00123844,0
0.4,2,0,0.300002,-0.00123894,0
0.4,2.1,0,0.300001,-0.00123967,0
0.4,2.2,0,0.3,-0.00123937,0
0.4,2.3,0,0.3,-0.00123905,0
0.4,2.4,0,0.299999,-0.00123874,0
0.4,2.5,0,0.299998,-0.00123755,0
0.4,2.6,0,0.299997,-0.00123597,0
0.4,2.7,0,0.299997,-0.00123439,0
0.4,2.8,0,0.299995,-0.00123251,0
0.4,2.9,0,0.299994,-0.00122848,0
0.4,3,0,0.299992,-0.00122512,0
0.4,3.1,0,0.299991,-0.00122176,0
0.4,3.2,0,0.299989,-0.00121526,0
0.4,3.3,0,0.299988,-0.00120954,0
0.4,3.4,0,0.299986,-0.00120383,0
0.4,3.5,0,0.299982,-0.0011967,0
0.4,3.6,0,0.299981,-0.0011862,0
0.4,3.7,0,0.29998,-0.00117754,0
0.4,3.8,0,0.299978,-0.00116888,0
0.4,3.9,0,0.299974,-0.00115358,0
0.4,4,0,0.299972,-0.00114137,0
0.4,4.1,0,0.29997,-0.00112916,0
0.4,4.2,0,0.299963,-0.00111366,0
0.4,4.3,0,0.299963,-0.00109382,0
0.4,4.4,0,0.299961,-0.00107747,0
0.4,4.5,0,0.299959,-0.00106112,0
0.4,4.6,0,0.299954,-0.00103346,0
0.4,4.7,0,0.299951,-0.00101248,0
0.4,4.8,0,0.299949,-0.000991499,0
0.4,4.9,0,0.299939,-0.000964558,0
0.4,5,0,0.29994,-0.000933016,0
0.4,5.1,0,0.299938,-0.000907015,0
0.4,5.2,0,0.299935,-0.000881013,0
0.4,5.3,0,0.299929,-0.000838148,0
0.4,5.4,0,0.299926,-0.000806918,0
0.4,5.5,0,0.299923,-0.000775688,0
0.4,5.6,0,0.299911,-0.000735534,0
0.4,5.7,0,0.299914,-0.000690881,0
0.4,5.8,0,0.299911,-0.000654453,0
0.4,5.9,0,0.299908,-0.000618025,0
0.4,6,0,0.299902,-0.000559111,0
0.4,6.1,0,0.299899,-0.000517783,0
0.4,6.2,0,0.299897,-0.000476456,0
0.4,6.3,0,0.299885,-0.000424289,0
0.4,6.4,0,0.299889,-0.000366782,0
0.4,6.5,0,0.299886,-0.000321218,0
0.4,6.6,0,0.299884,-0.000275655,0
0.4,6.7,0,0.299879,-0.000203099,0
0.4,6.8,0,0.299877,-0.00016304,0
0.4,6.9,0,0.299876,-0.00012298,0
0.4,7,0,0.299868,-8.14874e-05,0
0.4,7.1,0,0.299866,1.00576e-05,0
0.4,7.2,0,0.299866,6.83752e-05,0
0.4,7.3,0,0.299865,0.000127077,0
0.4,7.4,0,0.299864,0.000186056,0
0.4,7.5,0,0.299864,0.000245222,0
0.4,7.6,0,0.299864,0.000304455,0
0.4,7.7,0,0.299864,0.00036363,0
0.4,7.8,0,0.299865,0.000422645,0
0.4,7.9,0,0.299865,0.000481396,0
0.4,8,0,0.299867,0.000558698,0
0.4,8.1,0,0.299874,0.000602952,0
0.4,8.2,0,0.299875,0.00064581,0
0.4,8.3,0,0.299878,0.000712016,0
0.4,8.4,0,0.29988,0.000760495,0
0.4,8.5,0,0.299883,0.000824202,0
0.4,8.6,0,0.299886,0.000871295,0
0.4,8.7,0,0.299883,0.000925369,0
0.4,8.8,0,0.299893,0.000977256,0
0.4,8.9,0,0.299895,0.00102107,0
0.4,9,0,0.2999,0.0010778,0
0.4,9.1,0,0.299903,0.00111872,0
0.4,9.2,0,0.299905,0.00117081,0
0.4,9.3,0,0.299911,0.00121019,0
0.4,9.4,0,0.299908,0.00125252,0
0.4,9.5,0,0.299918,0.00129519,0
0.4,9.6,0,0.299921,0.00132969,0
0.4,9.7,0,0.299925,0.00137349,0
0.4,9.8,0,0.299928,0.00140465,0
0.4,9.9,0,0.299929,0.00144308,0
0.4,10,0,0.299935,0.00147289,0
0.4,10.1,0,0.299935,0.00150319,0
0.4,10.2,0,0.299942,0.00153452,0
0.4,10.3,0,0.299944,0.00155911,0
0.4,10.4,0,0.299948,0.00158974,0
0.4,10.5,0,0.299951,0.00161122,0
0.4,10.6,0,0.299951,0.00163718,0
0.4,10.7,0,0.299957,0.00165736,0
0.4,10.8,0,0.299957,0.0016772,0
0.4,10.9,0,0.299962,0.00169783,0
0.4,11,0,0.299964,0.00171361,0
0.4,11.1,0,0.299968,0.00173294,0
0.4,11.2,0,0.29997,0.00174615,0
0.4,11.3,0,0.29997,0.00176203,0
0.4,11.4,0,0.299975,0.00177385,0
0.4,11.5,0,0.299976,0.00178522,0
0.4,11.6,0,0.299979,0.00179699,0
0.4,11.7,0,0.299981,0.00180561,0
0.4,11.8,0,0.299984,0.00181586,0
0.4,11.9,0,0.299985,0.00182242,0
0.4,12,0,0.299986,0.00183043,0
0.4,12.1,0,0.299989,0.00183533,0
0.4,12.2,0,0.299991,0.00184008,0
0.4,12.3,0,0.299993,0.00184447,0
0.4,12.4,0,0.299994,0.00184723,0
0.4,12.5,0,0.299996,0.00184997,0
0.4,12.6,0,0.299997,0.0018509,0
0.4,12.7,0,0.299997,0.00185243,0
0.5,0,0,0.300001,-0.00152751,0
0.5,0.1,0,0.300001,-0.00152772,0
0.5,0.2,0,0.300001,-0.00152794,0
0.5,0.3,0,0.300002,-0.00152842,0
0.5,0.4,0,0.300002,-0.00152909,0
0.5,0.5,0,0.300003,-0.00152993,0
0.5,0.6,0,0.300003,-0.00153081,0
0.5,0.7,0,0.300004,-0.00153194,0
0.5,0.8,0,0.300004,-0.00153328,0
0.5,0.9,0,0.300004,-0.00153441,0
0.5,1,0,0.300004,-0.001536,0
0.5,1.1,0,0.300004,-0.00153758,0
0.5,1.2,0,0.300004,-0.00153915,0
0.5,1.3,0,0.300004,-0.00154057,0
0.5,1.4,0,0.300005,-0.00154236,0
0.5,1.5,0,0.300004,-0.0015438,0
0.5,1.6,0,0.300004,-0.00154498,0
0.5,1.7,0,0.300004,-0.0015466,0
0.5,1.8,0,0.300004,-0.00154783,0
0.5,1.9,0,0.300003,-0.00154868,0
0.5,2,0,0.300002,-0.00154941,0
0.5,2.1,0,0.300002,-0.00155038,0
0.5,2.2,0,0.300001,-0.00155009,0
0.5,2.3,0,0.3,-0.00154978,0
0.5,2.4,0,0.299999,-0.00154952,0
0.5,2.5,0,0.299997,-0.00154833,0
0.5,2.6,0,0.299996,-0.00154622,0
0.5,2.7,0,0.299995,-0.00154434,0
0.5,2.8,0,0.299992,-0.00154215,0
0.5,2.9,0,0.299991,-0.00153746,0
0.5,3,0,0.299989,-0.00153344,0
0.5,3.1,0,0.299985,-0.00152852,0
0.5,3.2,0,0.299983,-0.00152202,0
0.5,3.3,0,0.299983,-0.00151393,0
0.5,3.4,0,0.299979,-0.0015068,0
0.5,3.5,0,0.299972,-0.00149825,0
0.5,3.6,0,0.299972,-0.00148591,0
0.5,3.7,0,0.299972,-0.00147541,0
0.5,3.8,0,0.299963,-0.00146225,0
0.5,3.9,0,0.299959,-0.00144695,0
0.5,4,0,0.29996,-0.00142951,0
0.5,4.1,0,0.299954,-0.00141401,0
0.5,4.2,0,0.299943,-0.00139522,0
0.5,4.3,0,0.299945,-0.00137189,0
0.5,4.4,0,0.299945,-0.00135205,0
0.5,4.5,0,0.299932,-0.00132664,0
0.5,4.6,0,0.299927,-0.00129897,0
0.5,4.7,0,0.299931,-0.00126906,0
0.5,4.8,0,0.299921,-0.00124212,0
0.5,4.9,0,0.299904,-0.00120922,0
0.5,5,0,0.29991,-0.00117214,0
0.5,5.1,0,0.299912,-0.00114059,0
0.5,5.2,0,0.299893,-0.00109964,0
0.5,5.3,0,0.299887,-0.00105677,0
0.5,5.4,0,0.299895,-0.001012,0
0.5,5.5,0,0.299883,-0.000971843,0
0.5,5.6,0,0.299861,-0.000922763,0
0.5,5.7,0,0.29987,-0.000869885,0
0.5,5.8,0,0.299873,-0.000825232,0
0.5,5.9,0,0.299851,-0.000768592,0
0.5,6,0,0.299845,-0.000709678,0
0.5,6.1,0,0.299854,-0.00064849,0
0.5,6.2,0,0.299842,-0.000596323,0
0.5,6.3,0,0.299822,-0.000533317,0
0.5,6.4,0,0.299831,-0.000463868,0
0.5,6.5,0,0.299834,-0.000406361,0
0.5,6.6,0,0.299816,-0.00033898,0
0.5,6.7,0,0.29981,-0.000266425,0
0.5,6.8,0,0.299819,-0.000188696,0
0.5,6.9,0,0.299811,-0.000147203,0
0.5,7,0,0.299797,-0.000104277,0
0.5,7.1,0,0.299794,1.06713e-05,0
0.5,7.2,0,0.299792,8.39376e-05,0
0.5,7.3,0,0.299791,0.000157739,0
0.5,7.4,0,0.29979,0.000231904,0
0.5,7.5,0,0.29979,0.000306311,0
0.5,7.6,0,0.29979,0.000380806,0
0.5,7.7,0,0.29979,0.000455229,0
0.5,7.8,0,0.299791,0.000529444,0
0.5,7.9,0,0.299792,0.000603296,0
0.5,8,0,0.299794,0.000700387,0
0.5,8.1,0,0.299814,0.000747403,0
0.5,8.2,0,0.299804,0.00081618,0
0.5,8.3,0,0.299814,0.000889005,0
0.5,8.4,0,0.299818,0.000953451,0
0.5,8.5,0,0.299814,0.00102794,0
0.5,8.6,0,0.299833,0.00108829,0
0.5,8.7,0,0.299817,0.00116043,0
0.5,8.8,0,0.299843,0.00122439,0
0.5,8.9,0,0.299835,0.00128412,0
0.5,9,0,0.299845,0.0013475,0
0.5,9.1,0,0.299854,0.00140187,0
0.5,9.2,0,0.299848,0.00146299,0
0.5,9.3,0,0.299872,0.00151485,0
0.5,9.4,0,0.299855,0.00157012,0
0.5,9.5,0,0.299881,0.00162271,0
0.5,9.6,0,0.299875,0.00166856,0
0.5,9.7,0,0.299883,0.00171778,0
0.5,9.8,0,0.299894,0.00175945,0
0.5,9.9,0,0.299886,0.00180484,0
0.5,10,0,0.299909,0.00184441,0
0.5,10.1,0,0.299896,0.00188366,0
0.5,10.2,0,0.299915,0.0019215,0
0.5,10.3,0,0.299913,0.00195411,0
0.5,10.4,0,0.299917,0.00198846,0
0.5,10.5,0,0.299928,0.00201707,0
0.5,10.6,0,0.299922,0.0020485,0
0.5,10.7,0,0.299939,0.00207464,0
0.5,10.8,0,0.299932,0.00210087,0
0.5,10.9,0,0.299944,0.00212481,0
0.5,11,0,0.299945,0.00214593,0
0.5,11.1,0,0.299948,0.00216771,0
0.5,11.2,0,0.299956,0.00218482,0
0.5,11.3,0,0.299953,0.00220487,0
0.5,11.4,0,0.299964,0.0022195,0
0.5,11.5,0,0.299962,0.00223516,0
0.5,11.6,0,0.299969,0.00224817,0
0.5,11.7,0,0.299971,0.00225975,0
0.5,11.8,0,0.299973,0.00227155,0
0.5,11.9,0,0.299979,0.00227954,0
0.5,12,0,0.299978,0.00229026,0
0.5,12.1,0,0.299985,0.00229581,0
0.5,12.2,0,0.299985,0.00230293,0
0.5,12.3,0,0.299989,0.00230734,0
0.5,12.4,0,0.299991,0.00231108,0
0.5,12.5,0,0.299993,0.00231466,0
0.5,12.6,0,0.299996,0.00231504,0
0.5,12.7,0,0.299995,0.00231778,0
0.6,0,0,0.300002,-0.00183289,0
0.6,0.1,0,0.300001,-0.00183309,0
0.6,0.2,0,0.300002,-0.00183357,0
0.6,0.3,0,0.300003,-0.00183405,0
0.6,0.4,0,0.300003,-0.00183471,0
0.6,0.5,0,0.300004,-0.00183581,0
0.6,0.6,0,0.300005,-0.00183716,0
0.6,0.7,0,0.300005,-0.00183829,0
0.6,0.8,0,0.300005,-0.00183963,0
0.6,0.9,0,0.300005,-0.00184163,0
0.6,1,0,0.300006,-0.00184343,0
0.6,1.1,0,0.300006,-0.00184501,0
0.6,1.2,0,0.300006,-0.00184695,0
0.6,1.3,0,0.300006,-0.00184926,0
0.6,1.4,0,0.300007,-0.00185105,0
0.6,1.5,0,0.300006,-0.00185248,0
0.6,1.6,0,0.300006,-0.00185461,0
0.6,1.7,0,0.300006,-0.00185648,0
0.6,1.8,0,0.300005,-0.00185771,0
0.6,1.9,0,0.300004,-0.0018588,0
0.6,2,0,0.300003,-0.00186012,0
0.6,2.1,0,0.300003,-0.00186109,0
0.6,2.2,0,0.300001,-0.00186079,0
0.6,2.3,0,0.299999,-0.00186055,0
0.6,2.4,0,0.299998,-0.0018603,0
0.6,2.5,0,0.299997,-0.00185912,0
0.6,2.6,0,0.299995,-0.0018567,0
0.6,2.7,0,0.299992,-0.00185398,0
0.6,2.8,0,0.299989,-0.00185179,0
0.6,2.9,0,0.299987,-0.00184711,0
0.6,3,0,0.299983,-0.00184086,0
0.6,3.1,0,0.299979,-0.00183528,0
0.6,3.2,0,0.299977,-0.00182878,0
0.6,3.3,0,0.299974,-0.00181927,0
0.6,3.4,0,0.299969,-0.00180835,0
0.6,3.5,0,0.299962,-0.0017998,0
0.6,3.6,0,0.299962,-0.00178746,0
0.6,3.7,0,0.299956,-0.00177062,0
0.6,3.8,0,0.299948,-0.00175562,0
0.6,3.9,0,0.299945,-0.00174032,0
0.6,4,0,0.299941,-0.00171959,0
0.6,4.1,0,0.299933,-0.00169557,0
0.6,4.2,0,0.299922,-0.00167679,0
0.6,4.3,0,0.299925,-0.00165345,0
0.6,4.4,0,0.299916,-0.00162105,0
0.6,4.5,0,0.299904,-0.00159215,0
0.6,4.6,0,0.299899,-0.00156448,0
0.6,4.7,0,0.299896,-0.00152861,0
0.6,4.8,0,0.299887,-0.00148678,0
0.6,4.9,0,0.29987,-0.00145388,0
0.6,5,0,0.299876,-0.0014168,0
0.6,5.1,0,0.299865,-0.00136476,0
0.6,5.2,0,0.29985,-0.00131826,0
0.6,5.3,0,0.299845,-0.0012754,0
0.6,5.4,0,0.299843,-0.0012217,0
0.6,5.5,0,0.299832,-0.00115907,0
0.6,5.6,0,0.299811,-0.00110999,0
0.6,5.7,0,0.29982,-0.00105711,0
0.6,5.8,0,0.29981,-0.000984024,0
0.6,5.9,0,0.299794,-0.000919158,0
0.6,6,0,0.299788,-0.000860244,0
0.6,6.1,0,0.299788,-0.000788217,0
0.6,6.2,0,0.299779,-0.000705351,0
0.6,6.3,0,0.299758,-0.000642345,0
0.6,6.4,0,0.299767,-0.000572896,0
0.6,6.5,0,0.29976,-0.000481629,0
0.6,6.6,0,0.299747,-0.000402305,0
0.6,6.7,0,0.299742,-0.00032975,0
0.6,6.8,0,0.299744,-0.000250588,0
0.6,6.9,0,0.29974,-0.000169993,0
0.6,7,0,0.299725,-0.000127067,0
0.6,7.1,0,0.299721,1.12851e-05,0
0.6,7.2,0,0.299719,9.95e-05,0
0.6,7.3,0,0.299718,0.0001884,0
0.6,7.4,0,0.299716,0.000277752,0
0.6,7.5,0,0.299716,0.0003674,0
0.6,7.6,0,0.299716,0.000457156,0
0.6,7.7,0,0.299716,0.000546827,0
0.6,7.8,0,0.299717,0.000636244,0
0.6,7.9,0,0.299719,0.000725196,0
0.6,8,0,0.299722,0.000842076,0
0.6,8.1,0,0.299736,0.000902036,0
0.6,8.2,0,0.299734,0.000987113,0
0.6,8.3,0,0.299743,0.00105994,0
0.6,8.4,0,0.299749,0.00115663,0
0.6,8.5,0,0.299746,0.00123167,0
0.6,8.6,0,0.299759,0.00131472,0
0.6,8.7,0,0.299752,0.00139549,0
0.6,8.8,0,0.299772,0.00146623,0
0.6,8.9,0,0.299773,0.00154874,0
0.6,9,0,0.299784,0.00161212,0
0.6,9.1,0,0.299794,0.00169253,0
0.6,9.2,0,0.29979,0.00175517,0
0.6,9.3,0,0.299808,0.00182269,0
0.6,9.4,0,0.299802,0.00188772,0
0.6,9.5,0,0.299823,0.00194419,0
0.6,9.6,0,0.299826,0.00200936,0
0.6,9.7,0,0.299834,0.00205858,0
0.6,9.8,0,0.299846,0.00211913,0
0.6,9.9,0,0.299842,0.0021666,0
0.6,10,0,0.29986,0.00221602,0
0.6,10.1,0,0.299857,0.00226412,0
0.6,10.2,0,0.299873,0.00230408,0
0.6,10.3,0,0.299879,0.00235107,0
0.6,10.4,0,0.299883,0.00238542,0
0.6,10.5,0,0.299895,0.00242648,0
0.6,10.6,0,0.299892,0.00245983,0
0.6,10.7,0,0.299907,0.00249179,0
0.6,10.8,0,0.299907,0.00252454,0
0.6,10.9,0,0.299918,0.00254957,0
0.6,11,0,0.299924,0.00258006,0
0.6,11.1,0,0.299927,0.00260184,0
0.6,11.2,0,0.299936,0.00262639,0
0.6,11.3,0,0.299935,0.00264771,0
0.6,11.4,0,0.299945,0.00266547,0
0.6,11.5,0,0.299948,0.0026851,0
0.6,11.6,0,0.299955,0.00269854,0
0.6,11.7,0,0.29996,0.00271532,0
0.6,11.8,0,0.299962,0.00272712,0
0.6,11.9,0,0.299969,0.00273883,0
0.6,12,0,0.29997,0.00275009,0
0.6,12.1,0,0.299976,0.00275702,0
0.6,12.2,0,0.29998,0.00276578,0
0.6,12.3,0,0.299983,0.00277027,0
0.6,12.4,0,0.299988,0.00277579,0
0.6,12.5,0,0.29999,0.00277937,0
0.6,12.6,0,0.299993,0.00278067,0
0.6,12.7,0,0.299993,0.00278313,0
0.7,0,0,0.300002,-0.00213825,0
0.7,0.1,0,0.300003,-0.00213873,0
0.7,0.2,0,0.300003,-0.0021392,0
0.7,0.3,0,0.300004,-0.00213968,0
0.7,0.4,0,0.300004,-0.00214059,0
0.7,0.5,0,0.300005,-0.00214194,0
0.7,0.6,0,0.300006,-0.00214329,0
0.7,0.7,0,0.300007,-0.00214463,0
0.7,0.8,0,0.300007,-0.00214664,0
0.7,0.9,0,0.300007,-0.00214865,0
0.7,1,0,0.300008,-0.00215065,0
0.7,1.1,0,0.300008,-0.00215281,0
0.7,1.2,0,0.300008,-0.00215511,0
0.7,1.3,0,0.300008,-0.00215742,0
0.7,1.4,0,0.300009,-0.00215973,0
0.7,1.5,0,0.300008,-0.00216185,0
0.7,1.6,0,0.300008,-0.00216398,0
0.7,1.7,0,0.300007,-0.0021661,0
0.7,1.8,0,0.300007,-0.00216783,0
0.7,1.9,0,0.300006,-0.00216915,0
0.7,2,0,0.300004,-0.00217048,0
0.7,2.1,0,0.300003,-0.0021718,0
0.7,2.2,0,0.300001,-0.00217156,0
0.7,2.3,0,0.299999,-0.00217132,0
0.7,2.4,0,0.299997,-0.00217108,0
0.7,2.5,0,0.299995,-0.0021696,0
0.7,2.6,0,0.299992,-0.00216688,0
0.7,2.7,0,0.299989,-0.00216416,0
0.7,2.8,0,0.299986,-0.00216144,0
0.7,2.9,0,0.299981,-0.00215519,0
0.7,3,0,0.299977,-0.00214895,0
0.7,3.1,0,0.299973,-0.00214271,0
0.7,3.2,0,0.299968,-0.00213412,0
0.7,3.3,0,0.299963,-0.0021232,0
0.7,3.4,0,0.299958,-0.00211227,0
0.7,3.5,0,0.299952,-0.00210135,0
0.7,3.6,0,0.299946,-0.00208451,0
0.7,3.7,0,0.299939,-0.00206767,0
0.7,3.8,0,0.299933,-0.00205083,0
0.7,3.9,0,0.299925,-0.0020304,0
0.7,4,0,0.299917,-0.00200638,0
0.7,4.1,0,0.299909,-0.00198237,0
0.7,4.2,0,0.299901,-0.00195835,0
0.7,4.3,0,0.299893,-0.00192595,0
0.7,4.4,0,0.299883,-0.00189355,0
0.7,4.5,0,0.299875,-0.00186115,0
0.7,4.6,0,0.299865,-0.00182404,0
0.7,4.7,0,0.299855,-0.00178221,0
0.7,4.8,0,0.299845,-0.00174038,0
0.7,4.9,0,0.299835,-0.00169855,0
0.7,5,0,0.299825,-0.00164651,0
0.7,5.1,0,0.299814,-0.00159447,0
0.7,5.2,0,0.299804,-0.00154243,0
0.7,5.3,0,0.299793,-0.0014851,0
0.7,5.4,0,0.299782,-0.00142247,0
0.7,5.5,0,0.299772,-0.00135985,0
0.7,5.6,0,0.299761,-0.00129722,0
0.7,5.7,0,0.299751,-0.00122413,0
0.7,5.8,0,0.299741,-0.00115104,0
0.7,5.9,0,0.299731,-0.00107795,0
0.7,6,0,0.299721,-0.000999972,0
0.7,6.1,0,0.299712,-0.000917105,0
0.7,6.2,0,0.299704,-0.000834239,0
0.7,6.3,0,0.299695,-0.000751373,0
0.7,6.4,0,0.299687,-0.000660106,0
0.7,6.5,0,0.29968,-0.00056884,0
0.7,6.6,0,0.299673,-0.000477573,0
0.7,6.7,0,0.299667,-0.000391642,0
0.7,6.8,0,0.299663,-0.000311047,0
0.7,6.9,0,0.299658,-0.000230452,0
0.7,7,0,0.299654,-0.000149856,0
0.7,7.1,0,0.299648,1.18988e-05,0
0.7,7.2,0,0.299646,0.000115062,0
0.7,7.3,0,0.299644,0.000219062,0
0.7,7.4,0,0.299642,0.0003236,0
0.7,7.5,0,0.299642,0.000428488,0
0.7,7.6,0,0.299642,0.000533506,0
0.7,7.7,0,0.299643,0.000638426,0
0.7,7.8,0,0.299644,0.000743044,0
0.7,7.9,0,0.299646,0.000847096,0
0.7,8,0,0.299649,0.000983764,0
0.7,8.1,0,0.299653,0.00107018,0
0.7,8.2,0,0.299656,0.00115659,0
0.7,8.3,0,0.299661,0.0012501,0