/*--------------------------------*- C++ -*----------------------------------*\
| =========                 |                                                 |
| \\      /  F ield         | OpenFOAM: The Open Source CFD Toolbox           |
|  \\    /   O peration     | Version:  v1806                                 |
|   \\  /    A nd           | Web:      www.OpenFOAM.com                      |
|    \\/     M anipulation  |                                                 |
\*---------------------------------------------------------------------------*/
FoamFile
{
    version     2.0;
    format      ascii;
    class       surfaceScalarField;
    location    "3";
    object      phi;
}
// * * * * * * * * * * * * * * * * * * * * * * * * * * * * * * * * * * * * * //

dimensions      [0 3 -1 0 0 0 0];
oriented        oriented;


internalField   nonuniform List<scalar> 
4680
(
0.749567
-0.010926
0.749671
-0.0249171
0.750931
-0.0245599
0.75006
-0.0585371
0.747452
-0.096853
0.749343
-0.108077
0.750968
-0.0786952
0.752021
-0.105385
0.747881
-0.169508
0.744423
-0.230134
0.743867
-0.213065
0.747411
-0.182745
0.749335
-0.199882
0.746085
-0.283086
0.73875
-0.369152
0.730815
-0.405296
0.722952
-0.379737
0.715962
-0.361957
0.706029
-0.3885
-0.462594
0.687211
0.749016
-0.00994209
0.749864
-0.0257654
0.751126
-0.0258213
0.749987
-0.0573986
0.747056
-0.0939215
0.748638
-0.109659
0.74779
-0.0778476
0.751099
-0.108694
0.746696
-0.165105
0.743223
-0.22666
0.740264
-0.210107
0.741778
-0.184259
0.742262
-0.200366
0.741427
-0.282251
0.733439
-0.361163
0.723324
-0.395182
0.712573
-0.368986
0.705505
-0.354889
0.696469
-0.379464
-0.44542
0.679295
0.749131
-0.00907339
0.750951
-0.0275849
0.750359
-0.0252296
0.749551
-0.0565903
0.746668
-0.0910387
0.747041
-0.110032
0.746287
-0.0770943
0.75081
-0.113216
0.743996
-0.158291
0.741654
-0.224318
0.738708
-0.207161
0.739326
-0.184877
0.73999
-0.20103
0.739491
-0.281752
0.730054
-0.351727
0.723355
-0.388482
0.717806
-0.363437
0.712504
-0.349586
0.702383
-0.369343
-0.429265
0.686228
0.750071
-0.00914401
0.750494
-0.0280083
0.748922
-0.0236573
0.74991
-0.0575786
0.745459
-0.0865878
0.746573
-0.111146
0.746308
-0.0768289
0.749467
-0.116376
0.741134
-0.149958
0.741209
-0.224394
0.736025
-0.201977
0.736556
-0.185408
0.738064
-0.202538
0.736821
-0.280509
0.726301
-0.341207
0.721584
-0.383765
0.712642
-0.354495
0.702519
-0.339463
0.693238
-0.360062
-0.418774
0.682747
0.74977
-0.00891353
0.748826
-0.0270649
0.749198
-0.0240287
0.750285
-0.058666
0.744504
-0.0808066
0.747349
-0.113991
0.744291
-0.0737712
0.74745
-0.119535
0.740064
-0.142573
0.740364
-0.224693
0.732727
-0.194339
0.735435
-0.188115
0.735426
-0.20253
0.733286
-0.278369
0.723189
-0.33111
0.720803
-0.38138
0.711474
-0.345166
0.70625
-0.334239
0.702606
-0.356418
-0.409391
0.693223
0.749025
-0.00793888
0.74914
-0.0271798
0.749733
-0.0246211
0.749545
-0.0584783
0.744846
-0.0761074
0.746918
-0.116064
0.740518
-0.0673711
0.747376
-0.126392
0.738669
-0.133865
0.738385
-0.224409
0.730438
-0.186393
0.733664
-0.191342
0.73029
-0.199156
0.73027
-0.278349
0.721399
-0.322239
0.719818
-0.379798
0.707947
-0.333295
0.704374
-0.330666
0.698607
-0.350651
-0.397836
0.687051
0.749381
-0.00731965
0.750043
-0.0278417
0.749116
-0.0236943
0.749173
-0.0585356
0.744575
-0.0715089
0.745175
-0.116664
0.739422
-0.0616188
0.74796
-0.13493
0.734929
-0.120834
0.736374
-0.225854
0.728301
-0.17832
0.731629
-0.194669
0.726984
-0.194511
0.729679
-0.281044
0.71802
-0.31058
0.715783
-0.377562
0.705273
-0.322784
0.708807
-0.3342
0.704306
-0.34615
-0.389188
0.695658
0.75027
-0.00758952
0.749784
-0.0273559
0.748193
-0.0221028
0.748624
-0.0589668
0.743799
-0.0666846
0.745107
-0.117971
0.739272
-0.0557838
0.745552
-0.14121
0.732397
-0.107679
0.737149
-0.230606
0.724324
-0.165495
0.728549
-0.198893
0.723217
-0.18918
0.727375
-0.285201
0.714516
-0.297721
0.714762
-0.377809
0.704552
-0.312574
0.709444
-0.339092
0.700127
-0.336833
-0.384984
0.695922
0.750328
-0.00791758
0.748518
-0.0255459
0.748414
-0.0219991
0.748539
-0.0590919
0.743593
-0.0617384
0.744441
-0.118819
0.737479
-0.0488217
0.743133
-0.146864
0.73137
-0.0959162
0.73556
-0.234796
0.719231
-0.149166
0.728671
-0.208334
0.718793
-0.179301
0.7218
-0.288208
0.708937
-0.284858
0.711156
-0.380028
0.700856
-0.302274
0.71056
-0.348796
0.702973
-0.329246
-0.390073
0.708062
0.749906
-0.00782383
0.748788
-0.0244281
0.749664
-0.0228743
0.746888
-0.0563157
0.74293
-0.0577809
0.742753
-0.118642
0.736886
-0.0429544
0.741145
-0.151122
0.729735
-0.0845067
0.732267
-0.237328
0.715507
-0.132406
0.727049
-0.219876
0.710235
-0.162487
0.719215
-0.297188
0.708505
-0.274148
0.708146
-0.379669
0.694706
-0.288834
0.708244
-0.362333
0.700339
-0.321341
-0.399563
0.709829
0.750692
-0.00851582
0.749042
-0.0227785
0.748217
-0.0220493
0.745956
-0.0540549
0.743752
-0.0555768
0.740214
-0.115104
0.736512
-0.0392518
0.736674
-0.151285
0.728344
-0.0761762
0.728792
-0.237777
0.712216
-0.11583
0.724508
-0.232168
0.703267
-0.141245
0.716843
-0.310765
0.699261
-0.256565
0.698123
-0.378532
0.690271
-0.280981
0.710708
-0.382771
0.704549
-0.315183
-0.415027
0.720013
0.750376
-0.00889203
0.748036
-0.0204388
0.74836
-0.0223728
0.746044
-0.0517384
0.742987
-0.0525206
0.736567
-0.108684
0.73855
-0.0412342
0.730833
-0.143568
0.72854
-0.0738835
0.723184
-0.23242
0.708565
-0.101212
0.720479
-0.244082
0.697821
-0.118588
0.7134
-0.326344
0.689328
-0.232493
0.695735
-0.38494
0.686237
-0.271483
0.69998
-0.396513
0.695082
-0.310285
-0.440286
0.72034
0.749722
-0.00861373
0.748527
-0.0192444
0.748169
-0.0220146
0.74409
-0.0476595
0.743235
-0.0516652
0.735206
-0.100655
0.737729
-0.0437571
0.724939
-0.130778
0.72905
-0.077994
0.715412
-0.218782
0.706384
-0.092184
0.711636
-0.249333
0.691616
-0.0985679
0.705904
-0.340632
0.67701
-0.203599
0.692841
-0.400771
0.673661
-0.252303
0.689767
-0.412619
0.699807
-0.320325
-0.47333
0.732852
0.749113
-0.00772658
0.74862
-0.0187514
0.746571
-0.0199658
0.744698
-0.0457864
0.742167
-0.0491346
0.732923
-0.0914103
0.736095
-0.0469294
0.723061
-0.117744
0.727382
-0.082315
0.70612
-0.19752
0.708389
-0.0944537
0.698145
-0.239089
0.692383
-0.0928051
0.697851
-0.3461
0.66723
-0.172979
0.689584
-0.423125
0.657726
-0.220445
0.685752
-0.440645
0.697829
-0.332402
-0.50115
0.725649
0.748061
-0.00578797
0.748739
-0.0194291
0.745873
-0.0170996
0.744186
-0.0440992
0.740367
-0.045316
0.732523
-0.0835657
0.734771
-0.0491779
0.719862
-0.102835
0.724344
-0.0867974
0.703351
-0.176527
0.708006
-0.0991091
0.685036
-0.216119
0.692779
-0.100548
0.678884
-0.332204
0.663425
-0.15752
0.682939
-0.442639
0.647697
-0.185203
0.692798
-0.485746
0.683422
-0.323026
-0.538172
0.720444
0.747748
-0.00353579
0.748573
-0.0202543
0.745212
-0.0137389
0.743634
-0.0425208
0.739407
-0.0410892
0.732244
-0.0764028
0.730105
-0.0470386
0.721183
-0.0939134
0.718368
-0.0839824
0.700355
-0.158513
0.700764
-0.0995184
0.678042
-0.193397
0.691659
-0.114165
0.658338
-0.298883
0.66645
-0.165632
0.654832
-0.431021
0.636811
-0.167182
0.693526
-0.542462
0.663582
-0.293082
-0.620338
0.745748
0.748076
-0.00161219
0.748061
-0.0202391
0.745444
-0.0111221
0.743029
-0.0401056
0.738148
-0.036208
0.732085
-0.0703403
0.727224
-0.0421772
0.720866
-0.087555
0.711679
-0.0747953
0.699417
-0.146252
0.694973
-0.0950738
0.673285
-0.171709
0.680561
-0.12144
0.646694
-0.265016
0.666489
-0.185428
0.625254
-0.389785
0.648646
-0.190574
0.67605
-0.569865
0.642974
-0.260006
-0.754676
0.777312
0.749141
-0.000752955
0.747431
-0.0185296
0.746164
-0.00985498
0.741848
-0.0357891
0.738112
-0.0324725
0.73084
-0.0630685
0.72548
-0.0368167
0.718597
-0.0806722
0.709241
-0.0654392
0.696507
-0.133518
0.685698
-0.084265
0.671583
-0.157594
0.665516
-0.115373
0.640994
-0.240495
0.642383
-0.186817
0.59492
-0.342322
0.639097
-0.234751
0.604049
-0.534817
0.644491
-0.300448
-0.913213
0.803029
0.750183
-0.000936043
0.746941
-0.0152876
0.746717
-0.00963095
0.7409
-0.0299718
0.737801
-0.0293736
0.728756
-0.0540234
0.724741
-0.032802
0.714483
-0.0704145
0.706825
-0.0577806
0.689945
-0.116639
0.680864
-0.0751839
0.663482
-0.140212
0.650509
-0.1024
0.628613
-0.218599
0.613873
-0.172077
0.580091
-0.30854
0.594183
-0.248842
0.533648
-0.474283
0.644099
-0.410899
-0.961877
0.692763
0.750432
-0.00136766
0.747009
-0.0118649
0.746465
-0.0090866
0.740516
-0.0240236
0.737062
-0.0259197
0.727084
-0.0440448
0.723703
-0.0294211
0.710164
-0.056875
0.704929
-0.0525459
0.68245
-0.09416
0.675648
-0.0683818
0.649998
-0.114562
0.641227
-0.0936288
0.606624
-0.183996
0.586846
-0.152299
0.546299
-0.267992
0.522397
-0.224941
0.475738
-0.427624
0.525566
-0.460728
0.451025
-0.887336
0.646177
-0.836355
0.594753
-0.980377
0.536429
-1.04189
0.473616
-1.04657
0.407997
-1.01779
0.341801
-0.968241
0.277965
-0.904254
0.219676
-0.830945
0.169305
-0.752303
-0.672111
0.12815
0.644763
-0.801822
0.601187
-0.936801
0.550056
-0.990754
0.494397
-0.990911
0.436067
-0.959464
0.376454
-0.908628
0.317574
-0.845374
0.261843
-0.775214
0.211463
-0.701922
-0.62861
0.167961
0.653587
-0.769181
0.6083
-0.891515
0.553296
-0.93575
0.494064
-0.931679
0.43325
-0.898649
0.371837
-0.847215
0.312046
-0.785584
0.256778
-0.719946
0.208007
-0.653152
-0.587416
0.166813
0.657861
-0.744294
0.618903
-0.852557
0.570738
-0.887585
0.519011
-0.879951
0.465496
-0.845135
0.409785
-0.791503
0.352706
-0.728505
0.296981
-0.664221
0.245165
-0.601335
-0.541365
0.199115
0.663366
-0.714437
0.619828
-0.809018
0.568832
-0.836589
0.514808
-0.825927
0.458617
-0.788945
0.400697
-0.733583
0.343129
-0.670937
0.289244
-0.610337
0.24139
-0.553481
-0.500121
0.200146
0.661538
-0.688924
0.628086
-0.775567
0.587708
-0.796211
0.543782
-0.782002
0.495661
-0.740823
0.441881
-0.679803
0.383864
-0.612919
0.325351
-0.551824
0.270353
-0.498482
-0.451955
0.222186
0.672105
-0.665371
0.636216
-0.739677
0.590335
-0.75033
0.54051
-0.732177
0.487234
-0.687547
0.430215
-0.622785
0.372736
-0.55544
0.318931
-0.498019
0.270223
-0.449774
-0.408707
0.226976
0.681754
-0.651202
0.655245
-0.713168
0.618483
-0.713568
0.57783
-0.691524
0.530644
-0.640361
0.474054
-0.566195
0.410139
-0.491525
0.346353
-0.434232
0.288709
-0.392131
-0.359948
0.23995
0.695458
-0.638598
0.664857
-0.682567
0.621637
-0.670347
0.574896
-0.644783
0.521224
-0.586689
0.46192
-0.506891
0.401508
-0.431114
0.344064
-0.376788
0.291533
-0.3396
-0.313856
0.245441
0.696143
-0.624912
0.677488
-0.663912
0.650037
-0.642896
0.617452
-0.612198
0.568438
-0.537675
0.50283
-0.441283
0.429638
-0.357921
0.360658
-0.307808
0.301253
-0.280195
-0.264951
0.252348
0.701598
-0.606497
0.68442
-0.646734
0.655326
-0.613802
0.616838
-0.57371
0.559439
-0.480276
0.492657
-0.374502
0.42362
-0.288884
0.35936
-0.243548
0.302884
-0.223719
-0.217563
0.255496
0.713489
-0.599645
0.720991
-0.654237
0.706998
-0.599809
0.674238
-0.54095
0.606651
-0.412689
0.523243
-0.291094
0.438451
-0.204092
0.365078
-0.170176
0.30529
-0.163931
-0.169911
0.257638
0.732495
-0.599288
0.750544
-0.672286
0.728037
-0.577303
0.68006
-0.492973
0.594911
-0.32754
0.509063
-0.205245
0.42705
-0.122079
0.358162
-0.101288
0.302055
-0.107825
-0.124883
0.257028
0.753565
-0.627203
0.79703
-0.715751
0.776031
-0.556304
0.723268
-0.44021
0.615087
-0.219358
0.513644
-0.103802
0.420936
-0.0293711
0.350433
-0.0307856
0.296821
-0.054213
-0.0828432
0.254782
0.797
-0.70376
0.831724
-0.750475
0.768005
-0.492585
0.683662
-0.355867
0.558959
-0.0946555
0.46757
-0.0124129
0.387279
0.0509198
0.330647
0.0258466
0.286734
-0.0103004
-0.0465791
0.25047
0.86159
-0.819602
0.858637
-0.747522
0.756143
-0.390091
0.648388
-0.248112
0.506593
0.0471399
0.418288
0.0758923
0.346357
0.122851
0.305768
0.0664361
0.274067
0.0214006
-0.0174118
0.244899
0.841692
-0.883982
0.729876
-0.635706
0.562517
-0.222732
0.454329
-0.139924
0.355745
0.145724
0.315709
0.115928
0.286043
0.152517
0.27472
0.0777592
0.259302
0.0368182
0.00260532
0.239285
0.738793
-0.819747
0.530789
-0.427701
0.318609
-0.0105524
0.213584
-0.0348989
0.180493
0.178815
0.196552
0.099869
0.221993
0.127076
0.239564
0.0601879
0.24356
0.0328221
0.0147765
0.231389
0.408315
-0.535298
0.105486
-0.124873
-0.0272258
0.122159
-0.0262235
-0.0359012
0.0552255
0.0973659
0.108974
0.0461202
0.172724
0.0633264
0.203442
0.0294702
0.217506
0.0187571
0.0154788
0.216804
-0.0842738
-0.209147
-0.0869872
-0.122888
-0.0255224
0.0205977
0.0839241
0.113394
0.132151
0.14763
0.0862702
-0.783585
0.0571936
-0.654827
0.037919
-0.543079
0.0254367
-0.449332
0.0174173
-0.372075
0.0122289
-0.308897
0.00881686
-0.257211
0.00652273
-0.214714
0.00494233
-0.179503
0.00382705
-0.150077
0.0030224
-0.125271
0.00243084
-0.104177
0.00198952
-0.0860792
0.00165716
-0.0704035
0.00140613
-0.0566758
0.00121764
-0.0444959
0.00107898
-0.0335151
0.000982196
-0.0234178
0.000923227
-0.0139173
-0.00490828
0.120781
-0.736405
0.0855931
-0.619639
0.06031
-0.517796
0.0426613
-0.431684
0.0305471
-0.359961
0.0222606
-0.30061
0.0165514
-0.251502
0.0125612
-0.210724
0.00972179
-0.176664
0.00766268
-0.148018
0.00614257
-0.123751
0.00500315
-0.103037
0.00413927
-0.0852153
0.00348001
-0.0697442
0.0029769
-0.0561727
0.0025965
-0.0441155
0.00231594
-0.0332345
0.002121
-0.0232229
0.00200495
-0.0138013
-0.00486842
0.122886
-0.692478
0.0904112
-0.587163
0.0667144
-0.494099
0.0495404
-0.41451
0.0371574
-0.347578
0.0282409
-0.291694
0.0217925
-0.245053
0.0170831
-0.206014
0.0135983
-0.173179
0.0109823
-0.145402
0.00899137
-0.12176
0.0074591
-0.101505
0.00627079
-0.084027
0.00534679
-0.0688202
0.00463125
-0.0554572
0.00408491
-0.0435691
0.00368065
-0.0328303
0.0034017
-0.0229439
0.00324028
-0.0136399
-0.00481444
0.147649
-0.641013
0.108655
-0.548169
0.0802339
-0.465678
0.059878
-0.394154
0.0453269
-0.333027
0.0348612
-0.281228
0.0272518
-0.237444
0.0216414
-0.200404
0.0174409
-0.168978
0.0142476
-0.142209
0.0117868
-0.119299
0.00987035
-0.0995886
0.00836821
-0.0825249
0.00718949
-0.0676415
0.00627016
-0.0545378
0.005565
-0.042864
0.00504272
-0.032308
0.00468381
-0.022585
0.00447885
-0.0134349
-0.00474658
0.153765
-0.594632
0.117192
-0.511596
0.0890603
-0.437546
0.0679628
-0.373056
0.0523673
-0.317431
0.040873
-0.269734
0.032356
-0.228927
0.0259767
-0.194025
0.0211344
-0.164136
0.0174082
-0.138483
0.0145056
-0.116397
0.0122237
-0.0973068
0.0104207
-0.0807218
0.00899643
-0.0662172
0.00787991
-0.0534213
0.00702062
-0.0420047
0.00638343
-0.0316708
0.00594604
-0.0221476
0.00569699
-0.0131858
-0.00466401
0.169081
-0.541526
0.128647
-0.471163
0.0983014
-0.4072
0.07572
-0.350475
0.0589663
-0.300677
0.0465057
-0.257273
0.0371706
-0.219592
0.0300989
-0.186953
0.024672
-0.158709
0.0204535
-0.134264
0.0171377
-0.113081
0.0145103
-0.0946794
0.0124204
-0.0786319
0.0107606
-0.0645574
0.00945401
-0.0521147
0.00844551
-0.0409962
0.00769654
-0.0309218
0.00718211
-0.0216332
0.00688856
-0.0128923
-0.00456611
0.176862
-0.491413
0.136934
-0.431235
0.105997
-0.376264
0.0825535
-0.327031
0.0649404
-0.283064
0.0516956
-0.244028
0.0416669
-0.209563
0.0339902
-0.179277
0.0280403
-0.152759
0.0233726
-0.129597
0.0196737
-0.109382
0.0167221
-0.0917278
0.0143604
-0.0762703
0.0124758
-0.0626729
0.0109868
-0.0506257
0.00983445
-0.0398438
0.00897718
-0.0300646
0.00838746
-0.0210435
0.00804951
-0.0125543
-0.00445253
0.18622
-0.437683
0.144726
-0.389741
0.112823
-0.34436
0.0886123
-0.30282
0.0703128
-0.264765
0.0564377
-0.230153
0.0458343
-0.198959
0.0376398
-0.171082
0.0312291
-0.146348
0.0261563
-0.124524
0.0221054
-0.105331
0.0188517
-0.0884741
0.0162341
-0.0736527
0.0141362
-0.0605749
0.0124729
-0.0489624
0.0111826
-0.0385534
0.0102208
-0.0291028
0.00955791
-0.0203806
0.00917607
-0.0121725
-0.00432318
0.192508
-0.38475
0.150909
-0.348142
0.118542
-0.311993
0.093846
-0.278124
0.0750684
-0.245987
0.0607228
-0.215808
0.0496647
-0.187901
0.0410398
-0.162457
0.0342309
-0.139539
0.0287974
-0.11909
0.0244261
-0.10096
0.0208929
-0.0849408
0.0180357
-0.0707955
0.0157363
-0.0582755
0.0139075
-0.0471336
0.0124852
-0.0371311
0.0114231
-0.0280407
0.0106895
-0.0196469
0.0102646
-0.0117476
-0.00417815
0.197931
-0.330333
0.155937
-0.306148
0.123231
-0.279287
0.0982651
-0.253158
0.0792076
-0.226929
0.0645489
-0.201149
0.0531547
-0.176507
0.0441859
-0.153488
0.0370405
-0.132394
0.0312904
-0.11334
0.0266302
-0.0962997
0.0228402
-0.0811508
0.01976
-0.0677153
0.0172712
-0.0557867
0.0152858
-0.0451482
0.0137381
-0.0355834
0.01258
-0.0268827
0.0117783
-0.0188452
0.0113116
-0.0112809
-0.00401771
0.201366
-0.276203
0.159603
-0.264384
0.126854
-0.246538
0.101867
-0.228172
0.0827332
-0.207796
0.0679188
-0.186334
0.0563054
-0.164894
0.0470769
-0.14426
0.0396553
-0.124973
0.0336315
-0.107316
0.0287134
-0.0913815
0.024689
-0.0771265
0.0214023
-0.0644287
0.0187366
-0.053121
0.0166036
-0.0430152
0.0149371
-0.0339169
0.0136878
-0.0256334
0.0128209
-0.0179783
0.0123138
-0.0107738
-0.00384224
0.203339
-0.221905
0.161989
-0.223034
0.12942
-0.213968
0.104661
-0.203413
0.0856548
-0.188789
0.0708407
-0.17152
0.0591222
-0.153175
0.0497154
-0.134853
0.0420753
-0.117332
0.0358189
-0.10106
0.0306724
-0.086235
0.0264356
-0.0728896
0.0229587
-0.0609518
0.0201282
-0.0502904
0.017857
-0.040744
0.0160785
-0.0321384
0.0147428
-0.0242977
0.0138138
-0.0170494
0.0132679
-0.0102279
-0.00365221
0.203564
-0.168441
0.163049
-0.182519
0.130922
-0.181842
0.10666
-0.17915
0.0879877
-0.170118
0.0733284
-0.156861
0.0616151
-0.141462
0.0521071
-0.125345
0.0443024
-0.109528
0.0378519
-0.0946095
0.0325053
-0.0808884
0.0280769
-0.0684613
0.0244258
-0.0573006
0.0214426
-0.0473073
0.0190423
-0.0383437
0.0171588
-0.0302548
0.0157416
-0.0228805
0.014754
-0.0160617
0.014171
-0.0096449
-0.00344821
0.202276
-0.115935
0.162816
-0.143059
0.131368
-0.150394
0.107888
-0.155671
0.0897539
-0.151983
0.0754016
-0.142509
0.0637985
-0.129859
0.0542608
-0.115807
0.046341
-0.101608
0.0397319
-0.0880004
0.0342111
-0.0753676
0.0296109
-0.063861
0.0258005
-0.0534903
0.0226765
-0.0441833
0.0201563
-0.0358235
0.0181747
-0.0282732
0.0166812
-0.021387
0.0156383
-0.0150188
0.0150202
-0.00902687
-0.00323088
0.199482
-0.0649472
0.161281
-0.104858
0.130763
-0.119875
0.108376
-0.133284
0.0909819
-0.134589
0.0770864
-0.128613
0.0656918
-0.118464
0.0561887
-0.106304
0.0481976
-0.0936168
0.041461
-0.0812638
0.0357896
-0.0696961
0.0310357
-0.0591072
0.0270806
-0.0495352
0.0238272
-0.0409298
0.0211961
-0.0331924
0.0191234
-0.0262005
0.0175587
-0.0198223
0.016464
-0.0139242
0.015813
-0.00837584
-0.00300094
0.195399
-0.0154467
0.158409
-0.0678687
0.129097
-0.0905634
0.108128
-0.112315
0.0917051
-0.118166
0.0784153
-0.115324
0.0673188
-0.107368
0.0579057
-0.0968912
0.0498803
-0.0855914
0.043043
-0.0744266
0.0372414
-0.0638945
0.0323504
-0.0542161
0.0282639
-0.0454487
0.024892
-0.037558
0.0221589
-0.0304593
0.020002
-0.0240437
0.0183714
-0.0181916
0.0172286
-0.0127814
0.0165468
-0.00769401
-0.00275918
0.190417
0.0334218
0.154115
-0.0315673
0.126337
-0.0627852
0.107152
-0.0931293
0.0919679
-0.102982
0.0794297
-0.102785
0.0687086
-0.0966468
0.0594297
-0.0876122
0.0513987
-0.0775604
0.0444822
-0.0675101
0.0385679
-0.0579802
0.0335543
-0.0492024
0.0293488
-0.0412433
0.0258689
-0.034078
0.0230423
-0.0276327
0.0208082
-0.0218095
0.0191168
-0.0165002
0.0179297
-0.0115944
0.0172194
-0.00698365
-0.00250643
0.182698
0.0821126
0.147804
0.00332723
0.122496
-0.0374771
0.105509
-0.0761421
0.0918367
-0.0893105
0.0801814
-0.09113
0.0698954
-0.0863607
0.0607808
-0.0784976
0.0527638
-0.0695435
0.0457837
-0.0605299
0.0397706
-0.0519671
0.034647
-0.0440789
0.0303339
-0.0369303
0.0267558
-0.0304999
0.0238442
-0.0247211
0.0215396
-0.0195049
0.0197928
-0.0147535
0.0185652
-0.0103667
0.0178287
-0.00624715
-0.00224356
0.172964
0.125953
0.138371
0.0379202
0.116719
-0.0158251
0.102998
-0.0624204
0.0913419
-0.0776548
0.0807256
-0.0805137
0.0709173
-0.0765524
0.061981
-0.0695613
0.053987
-0.0615495
0.0469528
-0.0534957
0.0408513
-0.0458656
0.0356285
-0.0388561
0.031218
-0.0325198
0.0275511
-0.026833
0.0245625
-0.0217325
0.0221941
-0.0171366
0.0203973
-0.0129566
0.019133
-0.00910246
0.0183728
-0.00548696
-0.0019715
0.141791
0.131792
0.120682
0.0590292
0.109188
-0.00433154
0.10008
-0.0533125
0.0907091
-0.0682838
0.0811625
-0.0709671
0.0718229
-0.0672128
0.063055
-0.0607934
0.0550807
-0.0535753
0.0479954
-0.0464103
0.0418124
-0.0396826
0.0364991
-0.0335428
0.0320005
-0.0280212
0.0282535
-0.023086
0.0251957
-0.0186747
0.0227703
-0.0147112
0.0209287
-0.0111149
0.0196316
-0.00780539
0.0188502
-0.00470557
-0.00169122
0.0612757
0.0705164
0.0709772
0.0493277
0.0785721
-0.0119264
0.0771553
-0.0518957
0.0719831
-0.0631116
0.0652082
-0.0641921
0.0580564
-0.060061
0.0511431
-0.0538801
0.0447678
-0.0472
0.0390607
-0.0407032
0.0340582
-0.0346801
0.0297475
-0.029232
0.026091
-0.0243648
0.0230418
-0.0200367
0.0205513
-0.0161842
0.0185746
-0.0127345
0.0170728
-0.0096131
0.0160143
-0.00674698
0.0153758
-0.00406698
-0.00146186
0.0329214
0.037595
0.0611424
0.0211067
0.0744461
-0.0252301
0.0757185
-0.0531681
0.071767
-0.0591601
0.065522
-0.0579471
0.0585748
-0.0531138
0.0517188
-0.0470241
0.045334
-0.0408152
0.0395883
-0.0349575
0.034537
-0.0296288
0.030176
-0.024871
0.0264725
-0.0206613
0.0233816
-0.0169458
0.0208557
-0.0136584
0.0188502
-0.0107289
0.0173259
-0.00808881
0.0162511
-0.00567221
0.015602
-0.00341784
-0.00122844
0.0194062
0.0181888
0.0553303
-0.0148174
0.0717404
-0.0416402
0.0748064
-0.0562342
0.0717681
-0.0561217
0.0659073
-0.0520864
0.0590918
-0.0462983
0.0522565
-0.0401888
0.0458457
-0.0344043
0.0400558
-0.0291676
0.0349553
-0.0245283
0.0305466
-0.0204624
0.0267999
-0.0169146
0.0236715
-0.0138174
0.0211142
-0.011101
0.0190831
-0.0086979
0.0175391
-0.00654481
0.0164501
-0.00458318
0.0157918
-0.00275954
-0.000991463
0.0159932
0.00219567
0.0532551
-0.0520793
0.070615
-0.0590002
0.0746143
-0.0602335
0.0720687
-0.0535761
0.0663946
-0.0464123
0.0596191
-0.0395229
0.0527612
-0.0333309
0.046305
-0.0279481
0.0404638
-0.0233264
0.0353134
-0.0193779
0.0308594
-0.0160084
0.0270732
-0.0131284
0.0239112
-0.0106555
0.0213263
-0.00851609
0.0192732
-0.00664482
0.0177123
-0.00498391
0.0166111
-0.00348199
0.0159451
-0.00209349
-0.000751503
0.0133443
-0.0111486
0.0515525
-0.0902875
0.0704459
-0.0778935
0.0750217
-0.0648093
0.0726666
-0.051221
0.0669941
-0.0407398
0.0601621
-0.0326908
0.0532351
-0.026404
0.0467126
-0.0214256
0.0408123
-0.0174261
0.0356109
-0.0141765
0.0311138
-0.0115112
0.0272916
-0.0093062
0.0241002
-0.00746408
0.0214916
-0.00590747
0.0194199
-0.00457316
0.017845
-0.00340895
0.0167338
-0.00237079
0.0160614
-0.0014211
-0.000509127
0.0117465
-0.0228951
0.0511727
-0.129714
0.0714858
-0.0982067
0.0761241
-0.0694475
0.07359
-0.0486869
0.0677146
-0.0348643
0.0607227
-0.0256989
0.0536782
-0.0193595
0.047068
-0.0148153
0.0411007
-0.0114589
0.0358472
-0.00892304
0.0313092
-0.0069732
0.0274548
-0.00545179
0.024238
-0.00424736
0.0216097
-0.00327913
0.0195229
-0.0024864
0.0179368
-0.00182281
0.0168178
-0.00125177
0.0161405
-0.000743843
-0.000264919
0.0137596
-0.0366547
0.0531106
-0.169065
0.073911
-0.119007
0.0779651
-0.0735016
0.0748442
-0.045566
0.0685531
-0.0285732
0.0612976
-0.0184435
0.0540878
-0.0121497
0.0473692
-0.00809671
0.0413275
-0.00541719
0.0360212
-0.00361676
0.0314448
-0.00239672
0.027562
-0.00156898
0.0243241
-0.00100954
0.0216801
-0.000635118
0.0195819
-0.000388136
0.0179875
-0.000228417
0.0168628
-0.000127141
0.0161822
-6.31861e-05
-1.94711e-05
0.0244288
-0.0610835
0.0595536
-0.204189
0.0783879
-0.137841
0.0806771
-0.0757909
0.0764346
-0.0413235
0.0694981
-0.0216367
0.0618783
-0.0108237
0.054459
-0.00473046
0.0476132
-0.00125087
0.0414909
0.000705084
0.0361317
0.00174241
0.0315197
0.00221535
0.0276126
0.00233811
0.0243581
0.00224498
0.0217025
0.0020204
0.0195964
0.001718
0.0179967
0.00137125
0.0168688
0.00100085
0.0161862
0.000619368
0.000226615
0.0624783
-0.123562
0.0778729
-0.219584
0.0864394
-0.146408
0.0845122
-0.0738637
0.0783641
-0.0351754
0.0705282
-0.0138008
0.0624506
-0.00274611
0.0547838
0.00293631
0.0477961
0.00573683
0.0415887
0.00691252
0.0361772
0.00715389
0.0315329
0.00685967
0.0276059
0.00626507
0.0243393
0.0055116
0.0216766
0.00468311
0.0195663
0.00382826
0.0179645
0.00297314
0.0168354
0.00212991
0.0161525
0.0013023
0.000472726
0.11637
-0.239932
0.104247
-0.20746
0.0980246
-0.140186
0.0894655
-0.0653045
0.0805732
-0.0262831
0.0716006
-0.00482818
0.0629964
0.00585811
0.0550526
0.0108801
0.0479112
0.0128783
0.0416164
0.0132073
0.0361549
0.0126153
0.0314826
0.011532
0.0275407
0.010207
0.0242669
0.00878538
0.0216015
0.0073485
0.019491
0.00593876
0.0178901
0.00457412
0.0167623
0.00325769
0.0160805
0.00198403
0.000718274
0.251136
-0.235648
-0.255421
0.204771
-0.161095
0.163757
-0.0991718
0.137673
-0.0392211
0.119084
-0.00769393
0.103943
0.0103126
0.0906379
0.0191637
0.0787972
0.0227208
0.0683434
0.0233321
0.0592226
0.0223281
0.0513599
0.020478
0.0446621
0.0182298
0.0390286
0.0158405
0.0343602
0.0134538
0.0305656
0.0111431
0.0275647
0.00893963
0.0252905
0.00684831
0.0236898
0.00485843
0.0227233
0.00295058
0.00106626
0.266093
-0.163578
-0.338162
0.206041
-0.101044
0.167314
-0.0604445
0.14176
-0.0136665
0.12196
0.0121052
0.105551
0.0267215
0.0913434
0.0333718
0.0789561
0.035108
0.0681936
0.0340946
0.0589091
0.0316126
0.0509679
0.0284192
0.0442407
0.024957
0.0386051
0.0214761
0.0339489
0.01811
0.0301725
0.0149194
0.0271911
0.011921
0.0249347
0.00910472
0.0233484
0.00644474
0.0223921
0.00390695
0.00140999
0.272652
-0.0918222
-0.344408
0.217518
-0.04591
0.176526
-0.0194525
0.147711
0.0151485
0.125132
0.0346845
0.106949
0.0449038
0.0917558
0.0485654
0.0788293
0.0480345
0.0677809
0.045143
0.0583565
0.0410371
0.0503598
0.0364158
0.043625
0.0316918
0.0380073
0.0270939
0.0333807
0.0227366
0.0296377
0.0186624
0.0266882
0.0148705
0.0244593
0.0113336
0.0228946
0.00800948
0.021953
0.00484849
0.00174766
0.279712
-0.0242673
-0.347267
0.225756
0.00804543
0.182286
0.0240183
0.151132
0.0463022
0.127007
0.0588098
0.107671
0.0642398
0.0917276
0.0645083
0.0783582
0.0614039
0.0670755
0.0564257
0.0575478
0.0505647
0.0495259
0.0444377
0.0428094
0.0384083
0.037232
0.0326713
0.0326544
0.0273142
0.0289607
0.0223561
0.0260561
0.0177752
0.0238649
0.0135248
0.0223291
0.00954531
0.021407
0.00577049
0.00207747
0.281068
0.0420942
-0.34743
0.228813
0.0603001
0.185867
0.0669648
0.153543
0.0786262
0.128113
0.0842401
0.1078
0.0845522
0.0912325
0.081076
0.0775086
0.0751278
0.0660535
0.0678808
0.0564687
0.0601495
0.048458
0.0524485
0.0417898
0.0450765
0.0362776
0.0381835
0.0317697
0.0318221
0.0281424
0.0259835
0.0252962
0.0206213
0.023153
0.015668
0.0216536
0.0110448
0.0207558
0.00666823
0.00239761
0.282653
0.107041
-0.347599
0.230849
0.112104
0.187746
0.110067
0.154484
0.111888
0.128216
0.110508
0.107229
0.10554
0.0902145
0.0980903
0.0762466
0.0890958
0.0646939
0.0794335
0.0551065
0.0697368
0.0471491
0.0604059
0.0405628
0.0516628
0.0351432
0.0436031
0.0307271
0.0362382
0.027184
0.0295266
0.0244103
0.0233949
0.0223258
0.0177525
0.0208702
0.0125003
0.0200015
0.00753699
0.00270634
0.28226
0.171033
-0.346253
0.230818
0.163547
0.187927
0.152958
0.154135
0.14568
0.12735
0.137293
0.105932
0.126958
0.0886409
0.115381
0.0745464
0.10319
0.0629794
0.0910005
0.0534509
0.0792653
0.0455938
0.068263
0.0391263
0.0581303
0.0338287
0.0489007
0.0295279
0.040539
0.0260875
0.032967
0.0234008
0.0260817
0.0213858
0.0197675
0.0199817
0.0139044
0.0191466
0.0083721
0.00300192
0.280087
0.233641
-0.342695
0.229054
0.214581
0.186525
0.195487
0.152546
0.179658
0.12551
0.164329
0.103886
0.148583
0.086487
0.13278
0.0723883
0.117289
0.0608968
0.102492
0.0514941
0.088668
0.0437883
0.0759687
0.0374794
0.0644392
0.0323351
0.054045
0.0281742
0.0446998
0.0248558
0.0362854
0.0222708
0.0286667
0.0203361
0.0217022
0.0189912
0.0152494
0.0181943
0.009169
0.00328269
0.276274
0.295242
-0.337875
0.225664
0.26519
0.183605
0.237546
0.149732
0.213531
0.122693
0.191368
0.101074
0.170202
0.0837354
0.150119
0.0697587
0.131266
0.0584369
0.113814
0.0492312
0.0978737
0.0417313
0.0834686
0.0356231
0.0705474
0.0306646
0.0590035
0.0266692
0.0486953
0.0234925
0.0394621
0.021024
0.0311352
0.0191807
0.0235455
0.0179023
0.0165278
0.0171481
0.00992322
0.00354709
0.270549
0.355083
-0.33039
0.220653
0.315086
0.179228
0.278971
0.14571
0.247049
0.118901
0.218177
0.0974909
0.191612
0.0803762
0.167233
0.0666493
0.144993
0.0555948
0.124868
0.0466606
0.106808
0.0394236
0.0907057
0.0335597
0.0764112
0.028821
0.0637423
0.0250169
0.0524994
0.0220018
0.0424772
0.019665
0.033472
0.0179239
0.0252866
0.0167194
0.0177323
0.016012
0.0106305
0.00379364
0.263419
0.414268
-0.322604
0.214156
0.364349
0.173459
0.319669
0.140504
0.280003
0.114142
0.244539
0.0931341
0.21262
0.0764056
0.183962
0.0630571
0.158341
0.0523698
0.135556
0.0437837
0.115394
0.0368681
0.0976213
0.0312937
0.0819857
0.026809
0.0682269
0.0232227
0.0560857
0.0203892
0.0453107
0.0181989
0.0356624
0.0165707
0.0269148
0.0154472
0.0188558
0.0147908
0.011287
0.004021
0.254027
0.470887
-0.310646
0.20603
0.412346
0.166304
0.359395
0.134128
0.312179
0.108423
0.270244
0.0880079
0.233035
0.0718257
0.200144
0.0589846
0.171182
0.0487654
0.145775
0.0406053
0.123554
0.0340707
0.104156
0.0288311
0.0872253
0.0246353
0.0724227
0.0212931
0.0594279
0.0186609
0.0479428
0.0166317
0.0376916
0.0151267
0.0284198
0.0140911
0.0198914
0.0134893
0.0118888
0.004228
0.244197
0.528412
-0.301722
0.196674
0.459869
0.157858
0.398211
0.126612
0.343425
0.10176
0.295096
0.0821215
0.252674
0.0666438
0.215622
0.0544388
0.183387
0.0447891
0.155425
0.0371332
0.13121
0.0310395
0.11025
0.0261802
0.0920846
0.0223076
0.0762953
0.0192354
0.0625001
0.0168242
0.0503541
0.0149702
0.0395456
0.0135985
0.0297915
0.012657
0.0208329
0.012113
0.0124327
0.00441367
0.230313
0.581106
-0.283007
0.185227
0.504955
0.147956
0.435482
0.117938
0.373443
0.0941607
0.318873
0.0754871
0.271347
0.0608723
0.230237
0.0494317
0.194828
0.0404526
0.164404
0.0333788
0.138284
0.0277853
0.115843
0.0233512
0.0965188
0.0198356
0.0798109
0.0170587
0.0652769
0.014887
0.0525258
0.0132219
0.0412106
0.0119928
0.0310206
0.0111514
0.0216743
0.0106681
0.0129161
0.00457727
0.219854
0.63817
-0.276919
0.173758
0.551051
0.137102
0.472139
0.108228
0.402317
0.085664
0.341436
0.0681267
0.288885
0.0545295
0.243834
0.0439804
0.205377
0.0357717
0.172612
0.0293567
0.144699
0.0243216
0.120878
0.0203562
0.100484