/*--------------------------------*- C++ -*----------------------------------*\
| =========                 |                                                 |
| \\      /  F ield         | OpenFOAM: The Open Source CFD Toolbox           |
|  \\    /   O peration     | Version:  v1806                                 |
|   \\  /    A nd           | Web:      www.OpenFOAM.com                      |
|    \\/     M anipulation  |                                                 |
\*---------------------------------------------------------------------------*/
FoamFile
{
    version     2.0;
    format      ascii;
    class       volVectorField;
    location    "350";
    object      U;
}
// * * * * * * * * * * * * * * * * * * * * * * * * * * * * * * * * * * * * * //

dimensions      [0 1 -1 0 0 0 0];


internalField   nonuniform List<vector> 
2400
(
(0.3 -0.000265102 0)
(0.299996 -0.000814775 0)
(0.299988 -0.00136856 0)
(0.299974 -0.00196339 0)
(0.299954 -0.00258305 0)
(0.299927 -0.00326737 0)
(0.299894 -0.00399799 0)
(0.299852 -0.0048129 0)
(0.299804 -0.00569099 0)
(0.299749 -0.00666362 0)
(0.299689 -0.00770472 0)
(0.299628 -0.00883127 0)
(0.299569 -0.0100053 0)
(0.299518 -0.0112203 0)
(0.299483 -0.0124155 0)
(0.299474 -0.0135548 0)
(0.299501 -0.0145467 0)
(0.299573 -0.0153352 0)
(0.299696 -0.0158094 0)
(0.299875 -0.01593 0)
(0.299999 -0.000262669 0)
(0.299989 -0.000810594 0)
(0.299971 -0.00135869 0)
(0.299942 -0.00195156 0)
(0.299904 -0.00256439 0)
(0.299855 -0.00324674 0)
(0.299797 -0.00396987 0)
(0.299728 -0.0047833 0)
(0.299652 -0.00565449 0)
(0.299568 -0.00662738 0)
(0.299485 -0.00766474 0)
(0.299404 -0.00879578 0)
(0.299337 -0.00997338 0)
(0.299292 -0.0112008 0)
(0.299286 -0.0124114 0)
(0.299331 -0.013575 0)
(0.299443 -0.0145967 0)
(0.299633 -0.01542 0)
(0.299906 -0.0159298 0)
(0.300257 -0.0160737 0)
(0.299999 -0.000257838 0)
(0.299982 -0.000802413 0)
(0.299952 -0.00133996 0)
(0.299906 -0.00193009 0)
(0.299845 -0.00253098 0)
(0.299767 -0.00321163 0)
(0.299676 -0.00392222 0)
(0.299569 -0.00473589 0)
(0.299454 -0.00559605 0)
(0.299331 -0.00657335 0)
(0.29921 -0.00760579 0)
(0.299095 -0.00874955 0)
(0.299008 -0.00993554 0)
(0.298958 -0.01119 0)
(0.298972 -0.0124299 0)
(0.29907 -0.0136395 0)
(0.299275 -0.0147111 0)
(0.299603 -0.0155937 0)
(0.300057 -0.0161528 0)
(0.300621 -0.0163475 0)
(0.299998 -0.000250453 0)
(0.299975 -0.000790469 0)
(0.299932 -0.00131183 0)
(0.299869 -0.00189897 0)
(0.299783 -0.00248164 0)
(0.299676 -0.00316174 0)
(0.299549 -0.00385309 0)
(0.299402 -0.00467008 0)
(0.299243 -0.0055128 0)
(0.299072 -0.00650048 0)
(0.298907 -0.00752391 0)
(0.29875 -0.00869082 0)
(0.298633 -0.00988708 0)
(0.298566 -0.0111853 0)
(0.298592 -0.0124667 0)
(0.298733 -0.0137458 0)
(0.299026 -0.0148903 0)
(0.299492 -0.0158573 0)
(0.300135 -0.01649 0)
(0.300936 -0.016742 0)
(0.299998 -0.00024039 0)
(0.299968 -0.000775108 0)
(0.299913 -0.00127383 0)
(0.299832 -0.00185839 0)
(0.299722 -0.0024151 0)
(0.299583 -0.00309682 0)
(0.29942 -0.00375972 0)
(0.29923 -0.00458471 0)
(0.299026 -0.00539982 0)
(0.298803 -0.00640626 0)
(0.298589 -0.0074114 0)
(0.298381 -0.00861535 0)
(0.298227 -0.00981775 0)
(0.298131 -0.0111809 0)
(0.298159 -0.0125112 0)
(0.298331 -0.013889 0)
(0.298707 -0.0151295 0)
(0.299309 -0.016213 0)
(0.30015 -0.016947 0)
(0.301208 -0.0172742 0)
(0.299997 -0.000227518 0)
(0.299961 -0.000756671 0)
(0.299893 -0.0012255 0)
(0.299796 -0.00180883 0)
(0.299659 -0.00233034 0)
(0.299491 -0.00301741 0)
(0.299289 -0.00363992 0)
(0.299056 -0.00448019 0)
(0.298803 -0.00525288 0)
(0.298525 -0.00629067 0)
(0.298256 -0.00726111 0)
(0.297989 -0.00852216 0)
(0.297789 -0.00971708 0)
(0.29765 -0.0111749 0)
(0.29767 -0.0125521 0)
(0.297855 -0.0140676 0)
(0.298309 -0.0154236 0)
(0.299044 -0.0166657 0)
(0.300095 -0.0175339 0)
(0.301437 -0.0179642 0)
(0.299995 -0.000211761 0)
(0.299955 -0.000735468 0)
(0.299873 -0.00116645 0)
(0.299759 -0.00175078 0)
(0.299597 -0.00222639 0)
(0.299398 -0.00292436 0)
(0.299157 -0.00349155 0)
(0.298879 -0.00435762 0)
(0.298574 -0.00506751 0)
(0.298236 -0.00615483 0)
(0.297908 -0.00706463 0)
(0.297571 -0.00841207 0)
(0.297316 -0.0095714 0)
(0.297114 -0.0111676 0)
(0.297115 -0.0125724 0)
(0.297292 -0.0142831 0)
(0.297817 -0.0157628 0)
(0.298676 -0.0172235 0)
(0.299956 -0.0182637 0)
(0.301615 -0.0188336 0)
(0.299994 -0.000193168 0)
(0.299949 -0.000711687 0)
(0.299853 -0.00109642 0)
(0.299724 -0.00168465 0)
(0.299534 -0.00210251 0)
(0.299306 -0.00281842 0)
(0.299023 -0.00331252 0)
(0.2987 -0.00421808 0)
(0.29834 -0.0048388 0)
(0.297938 -0.00600016 0)
(0.297544 -0.00681187 0)
(0.297125 -0.00828684 0)
(0.296805 -0.00936264 0)
(0.296517 -0.0111617 0)
(0.296486 -0.0125465 0)
(0.296618 -0.0145414 0)
(0.297213 -0.0161264 0)
(0.298174 -0.0179006 0)
(0.299709 -0.0191495 0)
(0.301728 -0.0199112 0)
(0.299992 -0.000171994 0)
(0.299944 -0.000685255 0)
(0.299833 -0.00101551 0)
(0.29969 -0.00161054 0)
(0.299471 -0.00195839 0)
(0.299215 -0.00269993 0)
(0.298888 -0.0031012 0)
(0.298521 -0.00406215 0)
(0.2981 -0.00456209 0)
(0.297632 -0.00582766 0)
(0.297163 -0.00649196 0)
(0.29665 -0.00814845 0)
(0.296251 -0.00906905 0)
(0.295849 -0.0111618 0)
(0.295772 -0.0124385 0)
(0.295813 -0.0148549 0)
(0.296474 -0.0164764 0)
(0.297496 -0.0187233 0)
(0.299329 -0.0201979 0)
(0.301751 -0.021239 0)
(0.29999 -0.00014878 0)
(0.299941 -0.000655702 0)
(0.299814 -0.000924355 0)
(0.299658 -0.00152799 0)
(0.299408 -0.00179454 0)
(0.299126 -0.00256842 0)
(0.298753 -0.00285712 0)
(0.298342 -0.00388929 0)
(0.297856 -0.00423404 0)
(0.297319 -0.00563679 0)
(0.296765 -0.00609493 0)
(0.296148 -0.0079972 0)
(0.295653 -0.00866742 0)
(0.295108 -0.0111725 0)
(0.294962 -0.0122035 0)
(0.294851 -0.0152422 0)
(0.295578 -0.0167512 0)
(0.296582 -0.0197376 0)
(0.298787 -0.0213896 0)
(0.301644 -0.0228826 0)
(0.299988 -0.000124429 0)
(0.299939 -0.000622014 0)
(0.299795 -0.000824324 0)
(0.299628 -0.00143581 0)
(0.299346 -0.00161268 0)
(0.299042 -0.00242222 0)
(0.298618 -0.00258161 0)
(0.298167 -0.00369708 0)
(0.297608 -0.00385392 0)
(0.297004 -0.00542409 0)
(0.29635 -0.00561406 0)
(0.295623 -0.00782905 0)
(0.295008 -0.00813686 0)
(0.294291 -0.0111932 0)
(0.294046 -0.0117932 0)
(0.293711 -0.0157206 0)
(0.294496 -0.0168662 0)
(0.295361 -0.0210115 0)
(0.298048 -0.0226618 0)
(0.301329 -0.0249487 0)
(0.299987 -0.000100254 0)
(0.299939 -0.000582516 0)
(0.299778 -0.000717738 0)
(0.299601 -0.00133178 0)
(0.299285 -0.00141609 0)
(0.298962 -0.00225801 0)
(0.298484 -0.00227854 0)
(0.297999 -0.00348039 0)
(0.297357 -0.00342497 0)
(0.296692 -0.00518172 0)
(0.29592 -0.00504837 0)
(0.295084 -0.00763267 0)
(0.294315 -0.00746353 0)
(0.293407 -0.0112117 0)
(0.293011 -0.0111631 0)
(0.292381 -0.0162938 0)
(0.293193 -0.0167232 0)
(0.293755 -0.0226225 0)
(0.29707 -0.0239081 0)
(0.300667 -0.0276043 0)
(0.299987 -7.79627e-05 0)
(0.299941 -0.000534814 0)
(0.299763 -0.000607987 0)
(0.299577 -0.00121257 0)
(0.299226 -0.00121002 0)
(0.298889 -0.00207038 0)
(0.298351 -0.00195512 0)
(0.297842 -0.00323058 0)
(0.297102 -0.00295583 0)
(0.296394 -0.00489591 0)
(0.295471 -0.00440516 0)
(0.294546 -0.00738679 0)
(0.293565 -0.00664526 0)
(0.292475 -0.0111987 0)
(0.291838 -0.0102808 0)
(0.290866 -0.0169413 0)
(0.291616 -0.0162229 0)
(0.291689 -0.0246342 0)
(0.29579 -0.0249779 0)
(0.29944 -0.0311061 0)
(0.29999 -5.95052e-05 0)
(0.299941 -0.000475902 0)
(0.299753 -0.000499498 0)
(0.299554 -0.00107366 0)
(0.299172 -0.00100181 0)
(0.298822 -0.0018515 0)
(0.298223 -0.00162259 0)
(0.297699 -0.00293453 0)
(0.296846 -0.00246232 0)
(0.296118 -0.00454508 0)
(0.295002 -0.0037032 0)
(0.294034 -0.00705666 0)
(0.292746 -0.00569681 0)
(0.291538 -0.0111023 0)
(0.290488 -0.0091351 0)
(0.289212 -0.0176065 0)
(0.289676 -0.0152758 0)
(0.289121 -0.0270742 0)
(0.294095 -0.0256654 0)
(0.297324 -0.0357939 0)
(0.300001 -4.66469e-05 0)
(0.299935 -0.000402711 0)
(0.299753 -0.000397198 0)
(0.299523 -0.000909897 0)
(0.299133 -0.000800492 0)
(0.298751 -0.00159132 0)
(0.298111 -0.00129666 0)
(0.297562 -0.00257381 0)
(0.296602 -0.00196964 0)
(0.295864 -0.0040968 0)
(0.29452 -0.0029782 0)
(0.293567 -0.0065873 0)
(0.291844 -0.00465842 0)
(0.290657 -0.0108364 0)
(0.288888 -0.00774965 0)
(0.287541 -0.0181805 0)
(0.287191 -0.0138215 0)
(0.286147 -0.0299301 0)
(0.291745 -0.025747 0)
(0.293889 -0.042028 0)
(0.300024 -4.02073e-05 0)
(0.299912 -0.000313356 0)
(0.299774 -0.000305011 0)
(0.299471 -0.000717466 0)
(0.299125 -0.000614397 0)
(0.298657 -0.00128029 0)
(0.298044 -0.000994674 0)
(0.297401 -0.00212671 0)
(0.296411 -0.00151229 0)
(0.295599 -0.00350546 0)
(0.294078 -0.00229163 0)
(0.293118 -0.00589166 0)
(0.290901 -0.00361491 0)
(0.289853 -0.0102499 0)
(0.286992 -0.00620957 0)
(0.286005 -0.0184564 0)
(0.283828 -0.0118598 0)
(0.283122 -0.0331776 0)
(0.288129 -0.0248906 0)
(0.288883 -0.050968 0)
(0.300065 -3.92344e-05 0)
(0.299863 -0.000208564 0)
(0.299827 -0.000223794 0)
(0.29938 -0.000496899 0)
(0.299173 -0.000446884 0)
(0.298507 -0.000915928 0)
(0.298067 -0.000726974 0)
(0.297161 -0.00158066 0)
(0.296356 -0.00111834 0)
(0.295228 -0.00273034 0)
(0.293817 -0.00171538 0)
(0.292552 -0.00485945 0)
(0.290125 -0.00272627 0)
(0.288956 -0.0090821 0)
(0.284996 -0.0047281 0)
(0.284513 -0.0179925 0)
(0.279315 -0.0095158 0)
(0.280545 -0.0365635 0)
(0.281409 -0.022405 0)
(0.283253 -0.065081 0)
(0.300126 -4.07292e-05 0)
(0.299781 -9.27098e-05 0)
(0.299918 -0.000149929 0)
(0.299239 -0.000255339 0)
(0.299294 -0.000292665 0)
(0.298275 -0.000509156 0)
(0.298223 -0.00048724 0)
(0.296784 -0.000949885 0)
(0.296535 -0.000783837 0)
(0.294625 -0.00177999 0)
(0.293954 -0.00126749 0)
(0.2916 -0.00345485 0)
(0.28997 -0.00210753 0)
(0.287475 -0.00710531 0)
(0.283702 -0.00370743 0)
(0.282214 -0.0159163 0)
(0.274461 -0.00738354 0)
(0.277766 -0.0385657 0)
(0.268768 -0.0178942 0)
(0.280067 -0.084533 0)
(0.300202 -3.87759e-05 0)
(0.299672 2.64991e-05 0)
(0.300038 -7.58752e-05 0)
(0.299056 -5.01127e-06 0)
(0.299479 -0.000136063 0)
(0.297971 -8.23458e-05 0)
(0.298508 -0.000247081 0)
(0.296272 -0.000278627 0)
(0.29697 -0.000457508 0)
(0.293751 -0.000733839 0)
(0.294603 -0.000851239 0)
(0.290087 -0.0017868 0)
(0.290858 -0.00163521 0)
(0.284804 -0.00437612 0)
(0.284459 -0.00327586 0)
(0.277432 -0.0114964 0)
(0.272607 -0.00708512 0)
(0.270241 -0.0350887 0)
(0.253719 -0.0168287 0)
(0.280277 -0.110161 0)
(0.300276 -3.4404e-05 0)
(0.299556 0.000149872 0)
(0.300161 -5.32373e-06 0)
(0.298871 0.000251406 0)
(0.299684 1.51011e-05 0)
(0.297659 0.000361002 0)
(0.29884 -1.68594e-05 0)
(0.295734 0.000432393 0)
(0.29752 -0.000149803 0)
(0.292803 0.000393471 0)
(0.295534 -0.000479356 0)
(0.288331 2.05435e-05 0)
(0.292455 -0.00114692 0)
(0.281317 -0.001317 0)
(0.28729 -0.00258109 0)
(0.269611 -0.00611478 0)
(0.277128 -0.00614915 0)
(0.249724 -0.0275869 0)
(0.257572 -0.0168741 0)
(0.27371 -0.175638 0)
(0.300024 -0.0157348 0)
(0.300064 -0.0156717 0)
(0.3001 -0.0155986 0)
(0.300134 -0.0155163 0)
(0.300169 -0.0154249 0)
(0.300205 -0.0153244 0)
(0.300241 -0.0152147 0)
(0.300278 -0.0150961 0)
(0.300314 -0.0149687 0)
(0.30035 -0.0148331 0)
(0.300493 -0.0159038 0)
(0.300554 -0.0158483 0)
(0.300615 -0.0157825 0)
(0.300675 -0.0157062 0)
(0.300736 -0.0156196 0)
(0.300797 -0.0155227 0)
(0.300857 -0.0154159 0)
(0.300918 -0.0152993 0)
(0.300978 -0.0151728 0)
(0.301038 -0.0150376 0)
(0.300999 -0.0161765 0)
(0.301099 -0.016119 0)
(0.301196 -0.0160501 0)
(0.301291 -0.0159704 0)
(0.301385 -0.0158802 0)
(0.301479 -0.0157795 0)
(0.301573 -0.0156684 0)
(0.301665 -0.0155472 0)
(0.301755 -0.015416 0)
(0.301844 -0.0152756 0)
(0.301473 -0.0165748 0)
(0.301615 -0.0165173 0)
(0.301751 -0.0164477 0)
(0.301883 -0.0163666 0)
(0.302015 -0.016274 0)
(0.302147 -0.01617 0)
(0.302277 -0.0160547 0)
(0.302405 -0.0159283 0)
(0.302531 -0.0157908 0)
(0.302654 -0.0156433 0)
(0.301921 -0.0171143 0)
(0.302108 -0.0170572 0)
(0.302288 -0.0169864 0)
(0.302463 -0.0169025 0)
(0.302637 -0.0168057 0)
(0.302811 -0.0166958 0)
(0.302982 -0.0165732 0)
(0.303151 -0.016438 0)
(0.303316 -0.0162904 0)
(0.303478 -0.0161316 0)
(0.302349 -0.0178138 0)
(0.302588 -0.0177571 0)
(0.302818 -0.0176845 0)
(0.303042 -0.0175968 0)
(0.303264 -0.0174939 0)
(0.303485 -0.0173761 0)
(0.303704 -0.0172435 0)
(0.303918 -0.0170963 0)
(0.304129 -0.0169349 0)
(0.304334 -0.0167607 0)
(0.302757 -0.0186971 0)
(0.303057 -0.0186413 0)
(0.303345 -0.0185666 0)
(0.303626 -0.0184738 0)
(0.303905 -0.018363 0)
(0.304182 -0.0182343 0)
(0.304456 -0.0180881 0)
(0.304724 -0.0179247 0)
(0.304987 -0.0177444 0)
(0.305242 -0.0175493 0)
(0.303141 -0.0197973 0)
(0.303514 -0.0197436 0)
(0.303872 -0.0196669 0)
(0.304222 -0.0195677 0)
(0.304569 -0.0194463 0)
(0.304913 -0.0193032 0)
(0.305253 -0.0191386 0)
(0.305586 -0.0189532 0)
(0.305911 -0.0187474 0)
(0.306226 -0.0185241 0)
(0.303491 -0.0211622 0)
(0.303953 -0.0211128 0)
(0.304399 -0.021034 0)
(0.304836 -0.0209265 0)
(0.305268 -0.0207908 0)
(0.305696 -0.0206278 0)
(0.306117 -0.020438 0)
(0.306528 -0.0202225 0)
(0.306928 -0.0199817 0)
(0.307314 -0.0197203 0)
(0.303794 -0.0228646 0)
(0.30437 -0.0228214 0)
(0.304931 -0.0227391 0)
(0.305479 -0.022619 0)
(0.30602 -0.0224624 0)
(0.306553 -0.0222707 0)
(0.307076 -0.0220451 0)
(0.307585 -0.0217872 0)
(0.308078 -0.0214976 0)
(0.308551 -0.0211833 0)
(0.304033 -0.0250165 0)
(0.304765 -0.0249789 0)
(0.30548 -0.0248867 0)
(0.306176 -0.024744 0)
(0.306857 -0.024554 0)
(0.307526 -0.0243187 0)
(0.308178 -0.0240399 0)
(0.30881 -0.0237202 0)
(0.309419 -0.0233607 0)
(0.31 -0.0229717 0)
(0.304199 -0.0277814 0)
(0.30516 -0.0277412 0)
(0.306088 -0.0276226 0)
(0.306977 -0.0274374 0)
(0.307841 -0.0271913 0)
(0.308684 -0.026887 0)
(0.309502 -0.0265267 0)
(0.310289 -0.0261147 0)
(0.311042 -0.0256525 0)
(0.311754 -0.0251564 0)
(0.304305 -0.0313915 0)
(0.305615 -0.0313248 0)
(0.306837 -0.0311452 0)
(0.307978 -0.0308801 0)
(0.309076 -0.0305393 0)
(0.310143 -0.0301247 0)
(0.311173 -0.029639 0)
(0.312156 -0.0290884 0)
(0.313086 -0.028475 0)
(0.313957 -0.0278245 0)
(0.304414 -0.0361497 0)
(0.306269 -0.0360129 0)
(0.307893 -0.0357137 0)
(0.309349 -0.0353058 0)
(0.310741 -0.034805 0)
(0.312095 -0.034213 0)
(0.313397 -0.0335327 0)
(0.314627 -0.032774 0)
(0.315779 -0.0319382 0)
(0.316843 -0.0310679 0)
(0.304683 -0.0423923 0)
(0.307388 -0.0421344 0)
(0.309581 -0.0416495 0)
(0.311453 -0.0410217 0)
(0.313222 -0.040272 0)
(0.314945 -0.0394021 0)
(0.316589 -0.0384184 0)
(0.318125 -0.0373379 0)
(0.319545 -0.0361629 0)
(0.32084 -0.0349653 0)
(0.30557 -0.0508004 0)
(0.309536 -0.0502539 0)
(0.312538 -0.0494494 0)
(0.315002 -0.0485003 0)
(0.317311 -0.047414 0)
(0.319539 -0.0461789 0)
(0.321625 -0.0447976 0)
(0.323518 -0.0432946 0)
(0.325209 -0.0416629 0)
(0.326681 -0.0400359 0)
(0.309052 -0.0627668 0)
(0.314525 -0.0613283 0)
(0.318202 -0.0595405 0)
(0.321063 -0.0576296 0)
(0.32375 -0.055612 0)
(0.326328 -0.053464 0)
(0.328665 -0.0511851 0)
(0.330679 -0.0488088 0)
(0.332356 -0.0463202 0)
(0.333729 -0.0439113 0)
(0.318438 -0.0807587 0)
(0.325576 -0.0786807 0)
(0.329077 -0.0760917 0)
(0.330924 -0.073157 0)
(0.332375 -0.0698833 0)
(0.333593 -0.0663029 0)
(0.334402 -0.0624834 0)
(0.334698 -0.0585123 0)
(0.334531 -0.0543913 0)
(0.33386 -0.050413 0)
(0.317482 -0.083911 0)
(0.321825 -0.0767622 0)
(0.321311 -0.0709298 0)
(0.319083 -0.0658147 0)
(0.316456 -0.0608837 0)
(0.313408 -0.0559968 0)
(0.309764 -0.0511587 0)
(0.305542 -0.0463665 0)
(0.300988 -0.0415858 0)
(0.295849 -0.0367993 0)
(0.272799 -0.113306 0)
(0.252157 -0.0970587 0)
(0.225467 -0.08288 0)
(0.203654 -0.070318 0)
(0.186354 -0.0589349 0)
(0.171445 -0.0486532 0)
(0.158178 -0.0394811 0)
(0.146589 -0.0313576 0)
(0.136493 -0.024126 0)
(0.127312 -0.0174347 0)
(0.300472 -0.0143421 0)
(0.300695 -0.0132519 0)
(0.300908 -0.0119666 0)
(0.301095 -0.0105566 0)
(0.301252 -0.00909916 0)
(0.301374 -0.00765821 0)
(0.301468 -0.00628722 0)
(0.301531 -0.0050179 0)
(0.301576 -0.00387237 0)
(0.301596 -0.00286059 0)
(0.30161 -0.00198276 0)
(0.301602 -0.00124027 0)
(0.3016 -0.00061631 0)
(0.301577 -0.000111892 0)
(0.301571 0.000300635 0)
(0.301539 0.000617157 0)
(0.301536 0.000864201 0)
(0.301498 0.00104005 0)
(0.301498 0.0011556 0)
(0.301452 0.00122149 0)
(0.301238 -0.0145376 0)
(0.301533 -0.0134205 0)
(0.301777 -0.0121066 0)
(0.301952 -0.0106677 0)
(0.302062 -0.00918256 0)
(0.302109 -0.00771666 0)
(0.302114 -0.00632446 0)
(0.302079 -0.005038 0)
(0.30203 -0.00387902 0)
(0.301958 -0.00285764 0)
(0.301891 -0.00197297 0)
(0.30181 -0.00122662 0)
(0.30175 -0.000600208 0)
(0.301673 -9.50477e-05 0)
(0.301632 0.000317358 0)
(0.301562 0.000633233 0)
(0.301542 0.000879276 0)
(0.301475 0.00105587 0)
(0.30147 0.00117127 0)
(0.301396 0.00124049 0)
(0.302138 -0.0147626 0)
(0.302559 -0.0136074 0)
(0.302883 -0.0122433 0)
(0.303086 -0.0107513 0)
(0.303179 -0.00921787 0)
(0.303167 -0.00771249 0)
(0.303089 -0.00629081 0)
(0.302954 -0.00498416 0)
(0.302798 -0.00381292 0)
(0.302617 -0.00278613 0)
(0.302448 -0.00190082 0)
(0.302267 -0.0011578 0)
(0.302123 -0.000536678 0)
(0.301965 -3.83886e-05 0)
(0.301866 0.000366553 0)
(0.301732 0.000675564 0)
(0.301679 0.000915513 0)
(0.301557 0.00108945 0)
(0.30154 0.00120189 0)
(0.301411 0.00127361 0)
(0.303061 -0.0150996 0)
(0.303632 -0.0138687 0)
(0.304055 -0.0124176 0)
(0.304303 -0.010839 0)
(0.304389 -0.00923058 0)
(0.30433 -0.00766596 0)
(0.304177 -0.00620162 0)
(0.303949 -0.00486703 0)
(0.303694 -0.00368023 0)
(0.303408 -0.00264838 0)
(0.30314 -0.00176519 0)
(0.30286 -0.0010305 0)
(0.302634 -0.00042062 0)
(0.30239 6.38323e-05 0)
(0.302231 0.000455119 0)
(0.302025 0.000751418 0)
(0.301937 0.000980261 0)
(0.301752 0.00114769 0)
(0.301719 0.00125421 0)
(0.301523 0.00132778 0)
(0.304011 -0.015544 0)
(0.304746 -0.0142057 0)
(0.305276 -0.0126328 0)
(0.305567 -0.010936 0)
(0.305643 -0.00922688 0)
(0.305531 -0.00758416 0)
(0.3053 -0.00606443 0)
(0.304978 -0.0046943 0)
(0.304625 -0.00348835 0)
(0.304235 -0.00245127 0)
(0.303873 -0.00157203 0)
(0.303496 -0.000849813 0)
(0.303193 -0.000255528 0)
(0.302866 0.000209053 0)
(0.302653 0.000581451 0)
(0.302379 0.000859867 0)
(0.30226 0.00107345 0)
(0.302013 0.00123123 0)
(0.301969 0.00132972 0)
(0.301708 0.00140507 0)
(0.305009 -0.0161115 0)
(0.305925 -0.0146261 0)
(0.306565 -0.01289 0)
(0.306892 -0.0110387 0)
(0.306944 -0.00920139 0)
(0.306764 -0.00746148 0)
(0.306444 -0.00587442 0)
(0.306017 -0.0044624 0)
(0.305558 -0.00323527 0)
(0.305061 -0.00219423 0)
(0.304602 -0.00132196 0)
(0.304129 -0.000617155 0)
(0.30375 -4.35434e-05 0)
(0.303345 0.000395123 0)
(0.303082 0.000742862 0)
(0.302744 0.000997828 0)
(0.3026 0.00119168 0)
(0.302299 0.00133706 0)
(0.302248 0.00142541 0)
(0.30193 0.00150332 0)
(0.306081 -0.0168165 0)
(0.307198 -0.0151342 0)
(0.307949 -0.0131851 0)
(0.308298 -0.0111384 0)
(0.308305 -0.0091439 0)
(0.308038 -0.00728784 0)
(0.307609 -0.00562261 0)
(0.307063 -0.00416407 0)
(0.306486 -0.00291557 0)
(0.305873 -0.00187348 0)
(0.305311 -0.00101297 0)
(0.30474 -0.000331545 0)
(0.304284 0.000214366 0)
(0.3038 0.000619767 0)
(0.30349 0.000936334 0)
(0.303094 0.00116191 0)
(0.30293 0.0013309 0)
(0.302582 0.00146134 0)
(0.302527 0.00153706 0)
(0.302162 0.0016192 0)
(0.307258 -0.0176776 0)
(0.308597 -0.0157346 0)
(0.309457 -0.013512 0)
(0.309808 -0.0112235 0)
(0.309742 -0.00904128 0)
(0.30936 -0.00705039 0)
(0.308798 -0.00529779 0)
(0.308115 -0.0037901 0)
(0.307405 -0.00252221 0)
(0.306665 -0.00148395 0)
(0.305993 -0.00064153 0)
(0.305319 8.49818e-06 0)
(0.304783 0.000518554 0)
(0.304221 0.000882233 0)
(0.303865 0.00116003 0)
(0.303415 0.00134958 0)
(0.303235 0.00148759 0)
(0.302846 0.00160057 0)
(0.302793 0.00166065 0)
(0.302389 0.00174956 0)
(0.308577 -0.0187182 0)
(0.310164 -0.0164305 0)
(0.311124 -0.0138606 0)
(0.311444 -0.0112784 0)
(0.311269 -0.00887641 0)
(0.310738 -0.00673287 0)
(0.310015 -0.00488613 0)
(0.309171 -0.00332948 0)
(0.308312 -0.00204671 0)
(0.307433 -0.00101981 0)
(0.306642 -0.000202706 0)
(0.305859 0.000405476 0)
(0.30524 0.000870689 0)
(0.304599 0.00118283 0)
(0.304199 0.00141282 0)
(0.303696 0.00155864 0)
(0.303505 0.00165843 0)
(0.303082 0.00175155 0)
(0.303035 0.00179241 0)
(0.302599 0.00189182 0)
(0.310093 -0.0199657 0)
(0.311953 -0.0172216 0)
(0.312989 -0.0142152 0)
(0.313234 -0.0112819 0)
(0.312901 -0.00862725 0)
(0.312177 -0.00631497 0)
(0.31126 -0.00437093 0)
(0.310229 -0.00276903 0)
(0.309202 -0.00148001 0)
(0.308171 -0.000473334 0)
(0.307252 0.000306662 0)
(0.30635 0.00086162 0)
(0.305646 0.00127206 0)
(0.304921 0.0015215 0)
(0.304479 0.00169361 0)
(0.303921 0.00178705 0)
(0.303725 0.00184038 0)
(0.303267 0.00191168 0)
(0.303232 0.00192917 0)
(0.302764 0.00204474 0)
(0.311879 -0.0214503 0)
(0.314029 -0.0181013 0)
(0.3151 -0.0145522 0)
(0.315204 -0.011206 0)
(0.314652 -0.00826572 0)
(0.313685 -0.00577245 0)
(0.312534 -0.00373231 0)
(0.311285 -0.00209422 0)
(0.310068 -0.00081092 0)
(0.308866 0.000161856 0)
(0.307807 0.000891282 0)
(0.306775 0.001381 0)
(0.305979 0.00172608 0)
(0.305157 0.00189999 0)
(0.304672 0.0020035 0)
(0.304047 0.00203464 0)
(0.303849 0.00203266 0)
(0.303343 0.00208083 0)
(0.303324 0.00207042 0)
(0.302807 0.00221059 0)
(0.314043 -0.0232003 0)
(0.316482 -0.0190519 0)
(0.317516 -0.0148381 0)
(0.317391 -0.011013 0)
(0.316542 -0.00775643 0)
(0.315267 -0.00507627 0)
(0.313829 -0.0029472 0)
(0.312321 -0.00128736 0)
(0.310884 -2.63222e-05 0)
(0.309484 0.000895122 0)
(0.308263 0.00156182 0)
(0.307074 0.00197311 0)
(0.306166 0.0022416 0)
(0.305218 0.00232529 0)
(0.304674 0.00234988 0)
(0.30395 0.00230701 0)
(0.303742 0.00224142 0)
(0.303151 0.00226537 0)
(0.303145 0.00222288 0)
(0.302532 0.00239913 0)
(0.316737 -0.025238 0)
(0.319431 -0.0200434 0)
(0.320314 -0.0150264 0)
(0.319837 -0.0106507 0)
(0.318582 -0.0070497 0)
(0.316904 -0.00418625 0)
(0.315101 -0.00198496 0)
(0.313265 -0.000321506 0)
(0.311548 0.000895103 0)
(0.30989 0.00174861 0)
(0.308456 0.00233962 0)
(0.307049 0.00265863 0)
(0.30598 0.00284035 0)
(0.304839 0.00281767 0)
(0.30419 0.00275506 0)
(0.303298 0.00262328 0)
(0.303043 0.00248829 0)
(0.302293 0.00248496 0)
(0.302278 0.00240794 0)
(0.30148 0.00263275 0)
(0.320213 -0.0275567 0)
(0.323056 -0.0210181 0)
(0.32359 -0.0150415 0)
(0.322555 -0.0100348 0)
(0.320694 -0.00605933 0)
(0.318433 -0.00302432 0)
(0.316104 -0.000780178 0)
(0.313795 0.000848321 0)
(0.311665 0.00199694 0)
(0.309626 0.00276686 0)
(0.307863 0.00327106 0)
(0.306121 0.00348494 0)
(0.304779 0.00357178 0)
(0.303331 0.00342488 0)
(0.302477 0.00326937 0)
(0.301306 0.00302739 0)
(0.300921 0.00282106 0)
(0.299905 0.00277912 0)
(0.299828 0.00266802 0)
(0.298736 0.0029478 0)
(0.3249 -0.0300996 0)
(0.32754 -0.0218844 0)
(0.327266 -0.0147649 0)
(0.325213 -0.00903453 0)
(0.322307 -0.00464564 0)
(0.319068 -0.00143243 0)
(0.315873 0.000813827 0)
(0.312804 0.00235577 0)
(0.310018 0.00340131 0)
(0.307383 0.00406005 0)
(0.305093 0.00445836 0)
(0.302839 0.004549 0)
(0.301059 0.00452904 0)
(0.299155 0.00423434 0)
(0.297952 0.00397863 0)
(0.296383 0.00359289 0)
(0.295749 0.00331442 0)
(0.294391 0.00320286 0)
(0.294175 0.0030593 0)
(0.292746 0.00338059 0)
(0.331143 -0.0330537 0)
(0.332342 -0.0225744 0)
(0.330072 -0.0139182 0)
(0.325947 -0.00735127 0)
(0.321123 -0.00256929 0)
(0.316186 0.000742578 0)
(0.311551 0.00293478 0)
(0.307311 0.00435177 0)
(0.303557 0.00525484 0)
(0.300106 0.00576431 0)
(0.297114 0.00602623 0)
(0.294234 0.00596468 0)
(0.291913 0.00581311 0)
(0.289499 0.00533707 0)
(0.287875 0.00496423 0)
(0.285913 0.0043846 0)
(0.284975 0.00402753 0)
(0.283374 0.00378513 0)
(0.282984 0.00360624 0)
(0.28143 0.0039215 0)
(0.337304 -0.0339273 0)
(0.333479 -0.02116 0)
(0.326601 -0.0108339 0)
(0.318463 -0.00353643 0)
(0.310484 0.00128841 0)
(0.303123 0.0042949 0)
(0.296687 0.00612622 0)
(0.291148 0.00719144 0)
(0.286461 0.00778435 0)
(0.282364 0.00801789 0)
(0.278903 0.00804648 0)
(0.275696 0.00776174 0)
(0.273118 0.00742209 0)
(0.270531 0.00671646 0)
(0.268755 0.00619065 0)
(0.266767 0.00535286 0)
(0.265754 0.00489554 0)
(0.264383 0.00443192 0)
(0.263967 0.00420436 0)
(0.262942 0.00443624 0)
(0.330786 -0.0340762 0)
(0.315285 -0.0178582 0)
(0.301359 -0.00562459 0)
(0.287985 0.00186156 0)
(0.276868 0.00645325 0)
(0.267879 0.00890596 0)
(0.26087 0.0101104 0)
(0.255422 0.0105657 0)
(0.251226 0.010631 0)
(0.247878 0.0104266 0)
(0.245247 0.010108 0)
(0.242948 0.00953692 0)
(0.241193 0.00896573 0)
(0.23947 0.00800895 0)
(0.238413 0.00730302 0)
(0.237308 0.00616394 0)
(0.236911 0.00558157 0)
(0.236665 0.00481276 0)
(0.236656 0.00452491 0)
(0.237208 0.0046086 0)
(0.281059 -0.020816 0)
(0.247699 -0.00475181 0)
(0.230135 0.00698723 0)
(0.215841 0.011318 0)
(0.207183 0.0136858 0)
(0.201469 0.0141436 0)
(0.19827 0.013868 0)
(0.196667 0.0131962 0)
(0.196154 0.0124612 0)
(0.196244 0.011717 0)
(0.1967 0.0110454 0)
(0.197239 0.0102493 0)
(0.197929 0.00951386 0)
(0.198536 0.00838732 0)
(0.199418 0.00755025 0)
(0.200367 0.00614649 0)
(0.201492 0.00546955 0)
(0.203334 0.00438077 0)
(0.204276 0.00407885 0)
(0.207344 0.00401465 0)
(0.119876 0.00836112 0)
(0.106127 0.00823913 0)
(0.109265 0.0148229 0)
(0.1084 0.0141035 0)
(0.113316 0.0149322 0)
(0.117747 0.0138089 0)
(0.12318 0.0128725 0)
(0.128683 0.0117436 0)
(0.1342 0.0108109 0)
(0.139468 0.0100347 0)
(0.144379 0.00941532 0)
(0.148896 0.00873457 0)
(0.152993 0.00808765 0)
(0.156825 0.00700845 0)
(0.160355 0.00619411 0)
(0.164061 0.0046629 0)
(0.167154 0.00401408 0)
(0.171536 0.0026697 0)
(0.173628 0.00251638 0)
(0.179454 0.00231653 0)
(0.0450567 -0.00187501 0)
(0.0369355 0.00392546 0)
(0.0518952 0.0107814 0)
(0.056212 0.0102941 0)
(0.0672358 0.0112477 0)
(0.0761137 0.0101526 0)
(0.0858246 0.00938564 0)
(0.0948772 0.00842886 0)
(0.103525 0.00771464 0)
(0.111531 0.0071888 0)
(0.118859 0.00681241 0)
(0.12558 0.00638086 0)
(0.131604 0.00592599 0)
(0.1373 0.00502402 0)
(0.142314 0.00429777 0)
(0.147622 0.00287725 0)
(0.151712 0.00221442 0)
(0.157496 0.000994975 0)
(0.160065 0.000785658 0)
(0.16729 0.00075555 0)
(0.0208407 -0.00871557 0)
(0.0127623 0.00294767 0)
(0.0304112 0.00903735 0)
(0.0365634 0.00863531 0)
(0.0498239 0.00936364 0)
(0.0603786 0.00833856 0)
(0.071706 0.0076142 0)
(0.0821093 0.0067599 0)
(0.0919535 0.00615752 0)
(0.101012 0.0057595 0)
(0.109275 0.00550468 0)
(0.116859 0.00519591 0)
(0.123644 0.00483641 0)
(0.130084 0.00402845 0)
(0.135686 0.00334615 0)
(0.141635 0.00200416 0)
(0.146105 0.00132399 0)
(0.152436 0.000213961 0)
(0.155172 -6.64663e-05 0)
(0.162919 5.66896e-05 0)
(0.00441528 -0.00958545 0)
(-0.0053349 0.00206186 0)
(0.0134971 0.00700799 0)
(0.0210183 0.00674524 0)
(0.0360089 0.00720077 0)
(0.047901 0.00629531 0)
(0.0605143 0.00562293 0)
(0.0719987 0.00490048 0)
(0.0828028 0.00442955 0)
(0.0927096 0.00417706 0)
(0.101739 0.00405694 0)
(0.110036 0.00388287 0)
(0.11746 0.00362734 0)
(0.124532 0.00292696 0)
(0.13063 0.00229582 0)
(0.137125 0.00105233 0)
(0.141904 0.000358414 0)
(0.148682 -0.00061751 0)
(0.15154 -0.000976006 0)
(0.159685 -0.000675621 0)
(-0.00570772 -0.00803233 0)
(-0.0176442 0.00122751 0)
(0.00153383 0.00474062 0)
(0.0100047 0.0046054 0)
(0.0262131 0.00479804 0)
(0.0390696 0.00404574 0)
(0.0526057 0.0034496 0)
(0.0648669 0.00288386 0)
(0.0763621 0.00256269 0)
(0.086885 0.00247009 0)
(0.0964813 0.00249452 0)
(0.105317 0.00246402 0)
(0.113235 0.00231834 0)
(0.120805 0.00173632 0)
(0.12729 0.00116359 0)
(0.134214 3.3178e-05 0)
(0.13922 -0.000664644 0)
(0.146327 -0.00149438 0)
(0.149261 -0.00192124 0)
(0.15767 -0.00144279 0)
(-0.0107592 -0.00515626 0)
(-0.0243774 0.000485919 0)
(-0.00521937 0.00237989 0)
(0.00381204 0.00232274 0)
(0.0207329 0.00223809 0)
(0.0341604 0.00166007 0)
(0.0482345 0.00115674 0)
(0.0609443 0.000763864 0)
(0.0728391 0.000603973 0)
(0.0837235 0.000679132 0)
(0.0936678 0.000852555 0)
(0.102849 0.000969578 0)
(0.111097 0.000936026 0)
(0.11901 0.000479766 0)
(0.125759 -2.92086e-05 0)
(0.132981 -0.00103433 0)
(0.138125 -0.00172685 0)
(0.145432 -0.00239996 0)
(0.148394 -0.00288625 0)
(0.156924 -0.00223003 0)
(-0.0114891 -0.00170708 0)
(-0.025677 -0.000155469 0)
(-0.00662038 7.91556e-07 0)
(0.00260286 -2.34145e-05 0)
(0.019736 -0.000395421 0)
(0.0333303 -0.000787793 0)
(0.0475448 -0.00119003 0)
(0.0603613 -0.00140228 0)
(0.0723513 -0.00139647 0)
(0.0833298 -0.00115233 0)
(0.0933904 -0.000830911 0)
(0.102709 -0.000567513 0)
(0.111112 -0.000490356 0)
(0.119203 -0.00081714 0)
(0.126083 -0.00125918 0)
(0.133461 -0.00212956 0)
(0.138649 -0.00280877 0)
(0.146021 -0.00331726 0)
(0.148962 -0.00385514 0)
(0.157465 -0.00302269 0)
(-0.0081243 0.00152224 0)
(-0.0215989 -0.000785505 0)
(-0.0026324 -0.00237003 0)
(0.00641867 -0.00237028 0)
(0.0232629 -0.00302148 0)
(0.0366133 -0.00322644 0)
(0.0505659 -0.00352556 0)
(0.063144 -0.00355734 0)
(0.0749214 -0.0033881 0)
(0.0857231 -0.00298005 0)
(0.0956637 -0.00251687 0)
(0.104907 -0.00211307 0)
(0.113282 -0.00193026 0)
(0.12138 -0.00212763 0)
(0.128253 -0.00250178 0)
(0.135641 -0.00323146 0)
(0.140778 -0.0038903 0)
(0.148077 -0.00422986 0)
(0.150951 -0.00481165 0)
(0.159283 -0.00380706 0)
(-0.000398081 0.00373021 0)
(-0.0121055 -0.00146764 0)
(0.00668461 -0.00470509 0)
(0.015186 -0.00464713 0)
(0.0312247 -0.00555841 0)
(0.0439191 -0.00558308 0)
(0.0572115 -0.00578439 0)
(0.0692121 -0.00564388 0)
(0.0804759 -0.00532025 0)
(0.0908356 -0.00475951 0)
(0.100424 -0.00416592 0)
(0.109383 -0.00363221 0)
(0.117549 -0.00335241 0)
(0.125483 -0.00342417 0)
(0.13221 -0.00373197 0)
(0.139462 -0.00431854 0)
(0.144455 -0.00495153 0)
(0.151549 -0.00512119 0)
(0.154311 -0.00574049 0)
(0.162334 -0.00456885 0)
(0.0123873 0.00394839 0)
(0.00293043 -0.00224013 0)
(0.0211609 -0.0069235 0)
(0.0287081 -0.0067743 0)
(0.0434034 -0.00792414 0)
(0.0550347 -0.00778621 0)
(0.0672807 -0.0079026 0)
(0.0783811 -0.00760664 0)
(0.088847 -0.00714419 0)
(0.0985152 -0.00644784 0)
(0.107532 -0.00573987 0)
(0.116007 -0.00509098 0)
(0.123791 -0.00472618 0)
(0.131396 -0.00467974 0)
(0.137846 -0.00492517 0)
(0.144821 -0.00537 0)
(0.149582 -0.00597324 0)
(0.156347 -0.00597569 0)
(0.158956 -0.00662697 0)
(0.166545 -0.00529519 0)
(0.0312111 0.000653738 0)
(0.0237455 -0.00325282 0)
(0.0405276 -0.00894238 0)
(0.0466563 -0.00870064 0)
(0.0594514 -0.0100431 0)
(0.0696279 -0.00978566 0)
(0.0804638 -0.00982666 0)
(0.0903684 -0.00940145 0)
(0.0997784 -0.00881998 0)
(0.10853 -0.00800982 0)
(0.116777 -0.00720705 0)
(0.124589 -0.00646136 0)
(0.131831 -0.00602538 0)
(0.138956 -0.00587243 0)