/*--------------------------------*- C++ -*----------------------------------*\
| =========                 |                                                 |
| \\      /  F ield         | OpenFOAM: The Open Source CFD Toolbox           |
|  \\    /   O peration     | Version:  v1806                                 |
|   \\  /    A nd           | Web:      www.OpenFOAM.com                      |
|    \\/     M anipulation  |                                                 |
\*---------------------------------------------------------------------------*/
FoamFile
{
    version     2.0;
    format      ascii;
    class       volVectorField;
    location    "150";
    object      U;
}
// * * * * * * * * * * * * * * * * * * * * * * * * * * * * * * * * * * * * * //

dimensions      [0 1 -1 0 0 0 0];


internalField   nonuniform List<vector> 
2400
(
(0.299999 -0.000277636 0)
(0.299996 -0.00108367 0)
(0.299983 -0.00163995 0)
(0.299963 -0.002578 0)
(0.299932 -0.00319636 0)
(0.299886 -0.00435656 0)
(0.299831 -0.0051195 0)
(0.299746 -0.00662824 0)
(0.299659 -0.00762586 0)
(0.299518 -0.00955766 0)
(0.299396 -0.0109297 0)
(0.299187 -0.0134192 0)
(0.299022 -0.0152734 0)
(0.298747 -0.0182287 0)
(0.298565 -0.0206325 0)
(0.298284 -0.0238676 0)
(0.298134 -0.0265377 0)
(0.297992 -0.0292954 0)
(0.298034 -0.031381 0)
(0.29823 -0.0327223 0)
(0.299997 -0.000275293 0)
(0.29999 -0.00108125 0)
(0.299963 -0.00162925 0)
(0.299932 -0.00256917 0)
(0.299877 -0.00317386 0)
(0.299811 -0.00433934 0)
(0.299721 -0.00507964 0)
(0.299606 -0.0066001 0)
(0.299474 -0.00756094 0)
(0.29929 -0.00951667 0)
(0.299116 -0.0108339 0)
(0.298851 -0.0133645 0)
(0.298637 -0.0151441 0)
(0.298303 -0.0181691 0)
(0.298112 -0.0204957 0)
(0.297805 -0.0238248 0)
(0.297744 -0.0264571 0)
(0.297695 -0.0293242 0)
(0.29797 -0.0314587 0)
(0.298455 -0.0328795 0)
(0.299994 -0.000270987 0)
(0.299984 -0.00107605 0)
(0.29994 -0.00161033 0)
(0.299894 -0.00255353 0)
(0.299806 -0.00313642 0)
(0.299712 -0.00431192 0)
(0.299575 -0.00501638 0)
(0.299417 -0.00655897 0)
(0.299221 -0.00746174 0)
(0.298974 -0.00946205 0)
(0.298725 -0.0106914 0)
(0.298376 -0.0133004 0)
(0.298093 -0.0149596 0)
(0.297664 -0.0181167 0)
(0.297452 -0.0203129 0)
(0.297085 -0.0238261 0)
(0.297122 -0.0263834 0)
(0.297158 -0.0294556 0)
(0.297721 -0.031643 0)
(0.298549 -0.0331955 0)
(0.299992 -0.000264814 0)
(0.299979 -0.00106792 0)
(0.299916 -0.00158328 0)
(0.299855 -0.00253083 0)
(0.299731 -0.00308423 0)
(0.299608 -0.00427413 0)
(0.299417 -0.00493011 0)
(0.299212 -0.00650515 0)
(0.298944 -0.00732884 0)
(0.298628 -0.00939477 0)
(0.298293 -0.0105027 0)
(0.297848 -0.0132294 0)
(0.297481 -0.0147186 0)
(0.296939 -0.0180763 0)
(0.296692 -0.0200789 0)
(0.296237 -0.023881 0)
(0.296373 -0.0263069 0)
(0.29646 -0.0297037 0)
(0.29734 -0.031936 0)
(0.298522 -0.0336745 0)
(0.299989 -0.00025704 0)
(0.299975 -0.00105659 0)
(0.299892 -0.00154836 0)
(0.299817 -0.00250023 0)
(0.299656 -0.00301699 0)
(0.299504 -0.00422396 0)
(0.299257 -0.00481958 0)
(0.299005 -0.0064349 0)
(0.298661 -0.00715936 0)
(0.298274 -0.00930901 0)
(0.297845 -0.0102622 0)
(0.297301 -0.0131436 0)
(0.296839 -0.0144105 0)
(0.296171 -0.0180394 0)
(0.295877 -0.0197749 0)
(0.295305 -0.0239854 0)
(0.295539 -0.0262001 0)
(0.29563 -0.030077 0)
(0.296864 -0.0323222 0)
(0.298392 -0.0343372 0)
(0.299987 -0.000248005 0)
(0.299972 -0.00104163 0)
(0.299868 -0.00150622 0)
(0.299781 -0.00246096 0)
(0.299581 -0.0029355 0)
(0.299403 -0.00415994 0)
(0.299098 -0.00468558 0)
(0.298802 -0.00634568 0)
(0.298377 -0.00695383 0)
(0.297922 -0.00920096 0)
(0.297392 -0.00996915 0)
(0.296748 -0.013038 0)
(0.29618 -0.0140307 0)
(0.295378 -0.0180013 0)
(0.295021 -0.019387 0)
(0.294302 -0.0241408 0)
(0.29463 -0.0260363 0)
(0.294666 -0.030594 0)
(0.296306 -0.032781 0)
(0.298154 -0.035214 0)
(0.299984 -0.000238121 0)
(0.299971 -0.00102251 0)
(0.299845 -0.00145773 0)
(0.299747 -0.00241225 0)
(0.299507 -0.00284113 0)
(0.299307 -0.00408085 0)
(0.29894 -0.00453002 0)
(0.298605 -0.00623556 0)
(0.298093 -0.00671451 0)
(0.297577 -0.00906762 0)
(0.296937 -0.00962494 0)
(0.296197 -0.0129082 0)
(0.295508 -0.0135771 0)
(0.294567 -0.0179577 0)
(0.294125 -0.0189031 0)
(0.293228 -0.0243488 0)
(0.293643 -0.0257864 0)
(0.29355 -0.0312773 0)
(0.29566 -0.0332829 0)
(0.297782 -0.0363455 0)
(0.299981 -0.000227871 0)
(0.299971 -0.000998602 0)
(0.29982 -0.00140394 0)
(0.299716 -0.00235323 0)
(0.299432 -0.00273559 0)
(0.299216 -0.00398529 0)
(0.298781 -0.00435539 0)
(0.298419 -0.00610228 0)
(0.297809 -0.0064445 0)
(0.297245 -0.00890542 0)
(0.296477 -0.0092323 0)
(0.295655 -0.012749 0)
(0.294819 -0.0130489 0)
(0.293742 -0.0179014 0)
(0.293184 -0.0183118 0)
(0.292081 -0.0246066 0)
(0.292562 -0.0254183 0)
(0.292257 -0.0321509 0)
(0.294916 -0.0337878 0)
(0.297228 -0.0377881 0)
(0.299977 -0.000217798 0)
(0.299973 -0.000969215 0)
(0.299796 -0.00134607 0)
(0.299689 -0.00228284 0)
(0.299357 -0.00262094 0)
(0.299134 -0.00387149 0)
(0.298622 -0.00416477 0)
(0.298245 -0.00594293 0)
(0.297523 -0.00614794 0)
(0.296931 -0.00870961 0)
(0.29601 -0.00879539 0)
(0.29513 -0.0125528 0)
(0.294109 -0.0124473 0)
(0.292912 -0.0178218 0)
(0.292188 -0.0176036 0)
(0.290863 -0.0249055 0)
(0.29137 -0.0248987 0)
(0.290761 -0.0332365 0)
(0.294051 -0.0342461 0)
(0.296424 -0.0396193 0)
(0.299975 -0.000208468 0)
(0.299975 -0.000933593 0)
(0.299772 -0.00128548 0)
(0.299665 -0.00219988 0)
(0.299282 -0.00249952 0)
(0.299059 -0.00373733 0)
(0.298462 -0.00396196 0)
(0.298086 -0.00575377 0)
(0.297231 -0.0058303 0)
(0.296642 -0.00847382 0)
(0.295528 -0.00832068 0)
(0.294636 -0.0123094 0)
(0.293365 -0.0117765 0)
(0.292097 -0.0177038 0)
(0.291118 -0.016772 0)
(0.289584 -0.0252296 0)
(0.290041 -0.0241943 0)
(0.289036 -0.0345507 0)
(0.293041 -0.0345985 0)
(0.295285 -0.0419455 0)
(0.299973 -0.000200396 0)
(0.299977 -0.000891031 0)
(0.29975 -0.00122356 0)
(0.299643 -0.00210309 0)
(0.29921 -0.00237397 0)
(0.298991 -0.00358036 0)
(0.298302 -0.00375147 0)
(0.297944 -0.00553012 0)
(0.296935 -0.00549875 0)
(0.296383 -0.00818955 0)
(0.295026 -0.00781788 0)
(0.294187 -0.0120045 0)
(0.292568 -0.0110458 0)
(0.291328 -0.0175259 0)
(0.289938 -0.0158157 0)
(0.288282 -0.0255551 0)
(0.288527 -0.0232713 0)
(0.287072 -0.0361016 0)
(0.291853 -0.0347729 0)
(0.293694 -0.0449099 0)
(0.299976 -0.000193945 0)
(0.299976 -0.000841023 0)
(0.299733 -0.00116155 0)
(0.299618 -0.00199144 0)
(0.299143 -0.00224686 0)
(0.298924 -0.00339811 0)
(0.298149 -0.00353834 0)
(0.297812 -0.00526658 0)
(0.296639 -0.00516227 0)
(0.296153 -0.00784577 0)
(0.294505 -0.00730104 0)
(0.293796 -0.0116178 0)
(0.291702 -0.0102724 0)
(0.290643 -0.0172564 0)
(0.288592 -0.0147438 0)
(0.287032 -0.0258472 0)
(0.286729 -0.0220979 0)
(0.284907 -0.0378917 0)
(0.290431 -0.034675 0)
(0.291491 -0.0486954 0)
(0.299984 -0.000189193 0)
(0.299968 -0.000783472 0)
(0.299725 -0.00110025 0)
(0.299585 -0.00186445 0)
(0.299091 -0.00212026 0)
(0.298851 -0.00318879 0)
(0.298015 -0.00332726 0)
(0.297679 -0.00495786 0)
(0.296362 -0.00483086 0)
(0.295937 -0.00742944 0)
(0.293983 -0.00678899 0)
(0.293455 -0.0111215 0)
(0.290767 -0.00948461 0)
(0.29007 -0.016846 0)
(0.287019 -0.0135838 0)
(0.285946 -0.0260483 0)
(0.284466 -0.0206553 0)
(0.282703 -0.0399241 0)
(0.288618 -0.0341683 0)
(0.288457 -0.0535248 0)
(0.299999 -0.000185819 0)
(0.299949 -0.000718889 0)
(0.299731 -0.00103978 0)
(0.299536 -0.00172268 0)
(0.299062 -0.00199505 0)
(0.298758 -0.00295219 0)
(0.297916 -0.00312126 0)
(0.297523 -0.00460079 0)
(0.296132 -0.00451308 0)
(0.295703 -0.0069284 0)
(0.293505 -0.00630315 0)
(0.293121 -0.0104815 0)
(0.289816 -0.00872501 0)
(0.289583 -0.0162193 0)
(0.285206 -0.0123937 0)
(0.285107 -0.0260485 0)
(0.281485 -0.0189672 0)
(0.2808 -0.0421985 0)
(0.285969 -0.0330479 0)
(0.284452 -0.0597439 0)
(0.300025 -0.00018305 0)
(0.299914 -0.000648516 0)
(0.299756 -0.000979321 0)
(0.299466 -0.00156802 0)
(0.299066 -0.00187044 0)
(0.298632 -0.00269066 0)
(0.297874 -0.00292023 0)
(0.297318 -0.0041968 0)
(0.295991 -0.00421216 0)
(0.295399 -0.00633754 0)
(0.293151 -0.00585915 0)
(0.292705 -0.00966792 0)
(0.288978 -0.0080442 0)
(0.28905 -0.015276 0)
(0.283294 -0.0112752 0)
(0.284427 -0.0256364 0)
(0.277612 -0.0171476 0)
(0.279601 -0.0446335 0)
(0.28148 -0.03105 0)
(0.279904 -0.068094 0)
(0.300061 -0.000179695 0)
(0.299863 -0.000574333 0)
(0.2998 -0.000917173 0)
(0.29937 -0.0014038 0)
(0.299109 -0.00174372 0)
(0.298463 -0.00240953 0)
(0.297904 -0.00272012 0)
(0.297041 -0.00375354 0)
(0.295978 -0.00392304 0)
(0.294972 -0.00566495 0)
(0.293011 -0.00545582 0)
(0.292086 -0.00867495 0)
(0.288461 -0.00747127 0)
(0.288223 -0.0139326 0)
(0.281662 -0.0103612 0)
(0.28348 -0.0244749 0)
(0.273119 -0.0154464 0)
(0.279046 -0.0468137 0)
(0.273601 -0.0280465 0)
(0.276667 -0.079899 0)
(0.300106 -0.000174289 0)
(0.299797 -0.000498812 0)
(0.299864 -0.000851018 0)
(0.299249 -0.00123442 0)
(0.299192 -0.0016107 0)
(0.298252 -0.00211658 0)
(0.298009 -0.00251331 0)
(0.296687 -0.00328468 0)
(0.29611 -0.00363197 0)
(0.294394 -0.00493372 0)
(0.29315 -0.0050701 0)
(0.291169 -0.0075356 0)
(0.288467 -0.00698002 0)
(0.286818 -0.0121912 0)
(0.28089 -0.00971422 0)
(0.281513 -0.0222505 0)
(0.26915 -0.0142468 0)
(0.277726 -0.0476244 0)
(0.261457 -0.0245435 0)
(0.277946 -0.0968686 0)
(0.300155 -0.000165407 0)
(0.299721 -0.000424169 0)
(0.29994 -0.000778858 0)
(0.299113 -0.00106409 0)
(0.299303 -0.00146742 0)
(0.298013 -0.00181984 0)
(0.298175 -0.00229172 0)
(0.296274 -0.00280581 0)
(0.296368 -0.00332187 0)
(0.293691 -0.00417527 0)
(0.293553 -0.0046649 0)
(0.289966 -0.00631433 0)
(0.289054 -0.00649064 0)
(0.284721 -0.010169 0)
(0.281424 -0.00920684 0)
(0.277831 -0.0189502 0)
(0.267569 -0.0138305 0)
(0.272585 -0.0452376 0)
(0.247851 -0.0226196 0)
(0.284383 -0.121016 0)
(0.300205 -0.000152428 0)
(0.299642 -0.000351438 0)
(0.30002 -0.000700161 0)
(0.298975 -0.000895157 0)
(0.299425 -0.00131248 0)
(0.297769 -0.00152419 0)
(0.29837 -0.00205151 0)
(0.295848 -0.00232743 0)
(0.296692 -0.00298249 0)
(0.292947 -0.00341379 0)
(0.294109 -0.00421223 0)
(0.288636 -0.00507267 0)
(0.290023 -0.00592117 0)
(0.282201 -0.00803712 0)
(0.283062 -0.0085813 0)
(0.272562 -0.0149958 0)
(0.269453 -0.013642 0)
(0.260804 -0.0389543 0)
(0.240802 -0.0244672 0)
(0.285996 -0.151784 0)
(0.300249 -0.000134827 0)
(0.299571 -0.000282986 0)
(0.300091 -0.000612219 0)
(0.298852 -0.000731944 0)
(0.299539 -0.00114155 0)
(0.29755 -0.0012375 0)
(0.298555 -0.00178507 0)
(0.295464 -0.00186313 0)
(0.297004 -0.00260038 0)
(0.292275 -0.0026735 0)
(0.294653 -0.00368665 0)
(0.287426 -0.00386016 0)
(0.290991 -0.00520864 0)
(0.279879 -0.00593814 0)
(0.284818 -0.00758882 0)
(0.267358 -0.0109771 0)
(0.272662 -0.0123817 0)
(0.244785 -0.0303292 0)
(0.243571 -0.0278419 0)
(0.25559 -0.177368 0)
(0.29847 -0.0328271 0)
(0.298537 -0.0328269 0)
(0.298601 -0.032801 0)
(0.298665 -0.0327508 0)
(0.298732 -0.0326765 0)
(0.298802 -0.0325783 0)
(0.298874 -0.0324566 0)
(0.298947 -0.0323121 0)
(0.299021 -0.0321453 0)
(0.299092 -0.031959 0)
(0.298873 -0.033036 0)
(0.298984 -0.0330511 0)
(0.299095 -0.0330394 0)
(0.299206 -0.0330008 0)
(0.299319 -0.032936 0)
(0.299433 -0.0328452 0)
(0.299547 -0.0327292 0)
(0.299661 -0.0325888 0)
(0.299774 -0.0324242 0)
(0.299885 -0.0322392 0)
(0.29922 -0.033381 0)
(0.2994 -0.0334002 0)
(0.299577 -0.0333899 0)
(0.299752 -0.033351 0)
(0.299927 -0.0332842 0)
(0.300102 -0.03319 0)
(0.300275 -0.0330689 0)
(0.300445 -0.032922 0)
(0.300612 -0.0327497 0)
(0.300773 -0.0325558 0)
(0.299479 -0.0338946 0)
(0.299736 -0.03392 0)
(0.299987 -0.0339129 0)
(0.300234 -0.0338743 0)
(0.30048 -0.0338049 0)
(0.300725 -0.0337053 0)
(0.300965 -0.0335762 0)
(0.3012 -0.0334188 0)
(0.301429 -0.0332334 0)
(0.301649 -0.033025 0)
(0.299671 -0.0346031 0)
(0.300015 -0.0346356 0)
(0.300351 -0.0346303 0)
(0.300681 -0.0345889 0)
(0.301008 -0.0345124 0)
(0.301331 -0.0344018 0)
(0.301647 -0.0342579 0)
(0.301956 -0.0340822 0)
(0.302255 -0.0338752 0)
(0.30254 -0.0336432 0)
(0.299813 -0.0355364 0)
(0.30026 -0.0355754 0)
(0.300696 -0.0355691 0)
(0.301121 -0.0355205 0)
(0.30154 -0.0354315 0)
(0.301953 -0.0353031 0)
(0.302356 -0.0351365 0)
(0.302748 -0.0349338 0)
(0.303125 -0.0346956 0)
(0.303484 -0.0344298 0)
(0.299912 -0.0367354 0)
(0.300487 -0.036779 0)
(0.301042 -0.036767 0)
(0.301579 -0.0367049 0)
(0.302105 -0.0365954 0)
(0.302622 -0.03644 0)
(0.303125 -0.0362402 0)
(0.303611 -0.0359988 0)
(0.304077 -0.0357167 0)
(0.304519 -0.0354045 0)
(0.299972 -0.0382552 0)
(0.30071 -0.0382992 0)
(0.30141 -0.0382733 0)
(0.30208 -0.0381876 0)
(0.302733 -0.0380461 0)
(0.303371 -0.0378507 0)
(0.303991 -0.0376033 0)
(0.304585 -0.0373076 0)
(0.305153 -0.0369649 0)
(0.305687 -0.0365899 0)
(0.300003 -0.0401681 0)
(0.300954 -0.040204 0)
(0.301834 -0.0401509 0)
(0.302661 -0.0400263 0)
(0.303462 -0.0398361 0)
(0.304244 -0.0395821 0)
(0.304999 -0.039267 0)
(0.30572 -0.038896 0)
(0.306403 -0.0384707 0)
(0.307042 -0.0380113 0)
(0.30002 -0.0425664 0)
(0.301256 -0.042579 0)
(0.302358 -0.0424778 0)
(0.303371 -0.0422915 0)
(0.304347 -0.0420282 0)
(0.305298 -0.0416896 0)
(0.306212 -0.0412792 0)
(0.307077 -0.0408042 0)
(0.307891 -0.0402669 0)
(0.308647 -0.0396955 0)
(0.300051 -0.0455666 0)
(0.301667 -0.0455301 0)
(0.303044 -0.0453492 0)
(0.304275 -0.045068 0)
(0.305458 -0.0446972 0)
(0.306609 -0.0442379 0)
(0.30771 -0.0436946 0)
(0.308744 -0.0430777 0)
(0.309708 -0.0423899 0)
(0.310596 -0.041671 0)
(0.300136 -0.0493134 0)
(0.302262 -0.0491888 0)
(0.30398 -0.0488836 0)
(0.305474 -0.0484622 0)
(0.306908 -0.0479372 0)
(0.308304 -0.047309 0)
(0.309633 -0.0465836 0)
(0.310871 -0.0457758 0)
(0.312015 -0.0448887 0)
(0.313056 -0.0439782 0)
(0.300382 -0.0539971 0)
(0.303202 -0.053734 0)
(0.305361 -0.0532485 0)
(0.307192 -0.0526288 0)
(0.30895 -0.0518891 0)
(0.310666 -0.051029 0)
(0.312289 -0.0500571 0)
(0.313786 -0.0489943 0)
(0.315154 -0.0478437 0)
(0.316381 -0.0466847 0)
(0.301158 -0.0599365 0)
(0.304946 -0.0594727 0)
(0.30771 -0.0587352 0)
(0.310005 -0.057839 0)
(0.312208 -0.0567986 0)
(0.314347 -0.0556134 0)
(0.316345 -0.0542967 0)
(0.318152 -0.0528788 0)
(0.319766 -0.0513628 0)
(0.321174 -0.0498632 0)
(0.303495 -0.0677336 0)
(0.308614 -0.0669538 0)
(0.312181 -0.0658276 0)
(0.315067 -0.0645025 0)
(0.317796 -0.0629937 0)
(0.320388 -0.0613014 0)
(0.322723 -0.0594468 0)
(0.324736 -0.0574754 0)
(0.326425 -0.0553948 0)
(0.327799 -0.0533652 0)
(0.3092 -0.0781976 0)
(0.315864 -0.0767991 0)
(0.320177 -0.0749219 0)
(0.32344 -0.0727747 0)
(0.326373 -0.070387 0)
(0.328988 -0.0677675 0)
(0.331117 -0.0649561 0)
(0.332691 -0.0620213 0)
(0.333721 -0.0589913 0)
(0.33428 -0.0560541 0)
(0.318896 -0.09155 0)
(0.326511 -0.088801 0)
(0.330525 -0.0853742 0)
(0.332836 -0.0815635 0)
(0.334486 -0.0774425 0)
(0.335531 -0.0730718 0)
(0.335794 -0.0685437 0)
(0.335226 -0.0639567 0)
(0.333907 -0.0593852 0)
(0.331963 -0.0549504 0)
(0.325802 -0.104654 0)
(0.331655 -0.0988539 0)
(0.332191 -0.092559 0)
(0.330248 -0.0859115 0)
(0.32734 -0.0789787 0)
(0.323633 -0.0719403 0)
(0.319037 -0.0649861 0)
(0.313614 -0.0582399 0)
(0.307598 -0.0517906 0)
(0.300967 -0.0455865 0)
(0.307218 -0.104977 0)
(0.303477 -0.0925457 0)
(0.29325 -0.0814932 0)
(0.281528 -0.0710262 0)
(0.269785 -0.0608901 0)
(0.257952 -0.0512842 0)
(0.246061 -0.0423861 0)
(0.234407 -0.0342434 0)
(0.223293 -0.0268023 0)
(0.212492 -0.0200317 0)
(0.213324 -0.0869881 0)
(0.181476 -0.0654575 0)
(0.149395 -0.0479687 0)
(0.125773 -0.0337886 0)
(0.108171 -0.0225398 0)
(0.0942311 -0.013986 0)
(0.0832652 -0.00767576 0)
(0.0749584 -0.00305073 0)
(0.0687111 0.000363847 0)
(0.0641049 0.00274527 0)
(0.299351 -0.0312413 0)
(0.299773 -0.0294449 0)
(0.300183 -0.0273836 0)
(0.300416 -0.0252857 0)
(0.300665 -0.0234614 0)
(0.300569 -0.0218389 0)
(0.300757 -0.0208182 0)
(0.300315 -0.0200009 0)
(0.300708 -0.0199299 0)
(0.299791 -0.0195507 0)
(0.300989 -0.0202138 0)
(0.299327 -0.019553 0)
(0.301618 -0.0200838 0)
(0.298902 -0.0186989 0)
(0.302276 -0.0190794 0)
(0.298253 -0.0185183 0)
(0.300911 -0.0172818 0)
(0.296925 -0.0217691 0)
(0.297912 -0.0202858 0)
(0.29238 -0.0283936 0)
(0.300265 -0.0314996 0)
(0.300767 -0.0296527 0)
(0.301157 -0.0275307 0)
(0.301292 -0.0253834 0)
(0.301389 -0.0234816 0)
(0.301128 -0.0218321 0)
(0.301139 -0.020746 0)
(0.300559 -0.0199613 0)
(0.300827 -0.019816 0)
(0.2999 -0.0195898 0)
(0.301073 -0.020151 0)
(0.299523 -0.0196706 0)
(0.301867 -0.0200514 0)
(0.299239 -0.0188075 0)
(0.302654 -0.0190032 0)
(0.29837 -0.0180993 0)
(0.30111 -0.017016 0)
(0.296579 -0.0209073 0)
(0.297504 -0.0191276 0)
(0.291316 -0.0268038 0)
(0.301312 -0.0317884 0)
(0.301978 -0.0298617 0)
(0.302406 -0.0276429 0)
(0.302472 -0.0254136 0)
(0.302417 -0.0234192 0)
(0.301973 -0.0217322 0)
(0.301759 -0.0205886 0)
(0.300995 -0.0198435 0)
(0.301072 -0.0196693 0)
(0.300124 -0.0196155 0)
(0.30123 -0.0201137 0)
(0.299839 -0.0198262 0)
(0.302247 -0.0200658 0)
(0.299788 -0.0189276 0)
(0.303244 -0.0188474 0)
(0.298646 -0.0176068 0)
(0.301503 -0.0166401 0)
(0.29616 -0.0198316 0)
(0.296907 -0.0179606 0)
(0.289864 -0.0252612 0)
(0.302377 -0.0321903 0)
(0.30324 -0.0301142 0)
(0.303728 -0.0277441 0)
(0.303741 -0.0253905 0)
(0.303541 -0.0232808 0)
(0.302916 -0.0215364 0)
(0.302461 -0.0203403 0)
(0.301498 -0.0196378 0)
(0.301359 -0.0194834 0)
(0.300385 -0.019613 0)
(0.301403 -0.0201112 0)
(0.300213 -0.0200214 0)
(0.302698 -0.0201538 0)
(0.300476 -0.0190705 0)
(0.303952 -0.0186653 0)
(0.29908 -0.0170659 0)
(0.302038 -0.0161554 0)
(0.295693 -0.0185318 0)
(0.296264 -0.0166742 0)
(0.288222 -0.0235299 0)
(0.303478 -0.0327082 0)
(0.304554 -0.0304197 0)
(0.3051 -0.027846 0)
(0.305057 -0.0253257 0)
(0.304706 -0.0230726 0)
(0.303892 -0.0212471 0)
(0.303178 -0.0199955 0)
(0.302 -0.019339 0)
(0.301626 -0.0192463 0)
(0.300619 -0.0195837 0)
(0.301543 -0.0201436 0)
(0.300597 -0.0202779 0)
(0.303178 -0.0203285 0)
(0.30126 -0.0192631 0)
(0.30473 -0.0184526 0)
(0.299644 -0.016468 0)
(0.302637 -0.015489 0)
(0.295127 -0.0169358 0)
(0.295584 -0.01515 0)
(0.286339 -0.0215151 0)
(0.304656 -0.0333532 0)
(0.305951 -0.0307801 0)
(0.306545 -0.0279465 0)
(0.30643 -0.0252156 0)
(0.305914 -0.0227889 0)
(0.304893 -0.0208561 0)
(0.303894 -0.0195433 0)
(0.302474 -0.0189385 0)
(0.301842 -0.0189507 0)
(0.300785 -0.019527 0)
(0.301615 -0.0202185 0)
(0.300955 -0.0206143 0)
(0.30365 -0.0206048 0)
(0.302092 -0.0195151 0)
(0.305516 -0.0182028 0)
(0.300269 -0.0158072 0)
(0.303162 -0.0145681 0)
(0.294345 -0.0150173 0)
(0.29474 -0.0133485 0)
(0.284036 -0.0191827 0)
(0.305951 -0.0341337 0)
(0.307468 -0.0311928 0)
(0.30809 -0.0280394 0)
(0.307884 -0.0250529 0)
(0.307185 -0.0224201 0)
(0.305932 -0.0203514 0)
(0.304615 -0.0189696 0)
(0.302916 -0.0184237 0)
(0.30199 -0.0185852 0)
(0.300849 -0.0194394 0)
(0.30158 -0.0203441 0)
(0.30123 -0.0210442 0)
(0.304038 -0.0209937 0)
(0.302866 -0.0198271 0)
(0.306172 -0.0179102 0)
(0.300792 -0.0150603 0)
(0.303367 -0.0133235 0)
(0.293144 -0.0127635 0)
(0.293476 -0.0112273 0)
(0.281033 -0.0164783 0)
(0.30741 -0.0350569 0)
(0.309144 -0.0316528 0)
(0.309767 -0.0281171 0)
(0.309447 -0.0248297 0)
(0.308548 -0.0219557 0)
(0.307033 -0.0197188 0)
(0.305355 -0.0182565 0)
(0.303321 -0.017776 0)
(0.302042 -0.0181306 0)
(0.300757 -0.0193102 0)
(0.301357 -0.0205197 0)
(0.301295 -0.0215684 0)
(0.304164 -0.0214919 0)
(0.303349 -0.0201832 0)
(0.306413 -0.0175538 0)
(0.300886 -0.0141782 0)
(0.302857 -0.0116814 0)
(0.2912 -0.0101576 0)
(0.291405 -0.00872035 0)
(0.276964 -0.013339 0)
(0.309088 -0.0361274 0)
(0.31102 -0.0321529 0)
(0.311613 -0.0281716 0)
(0.311161 -0.0245383 0)
(0.310042 -0.0213843 0)
(0.308227 -0.0189404 0)
(0.306125 -0.0173781 0)
(0.303666 -0.0169647 0)
(0.301928 -0.0175529 0)
(0.300384 -0.0191121 0)
(0.300758 -0.0207224 0)
(0.300869 -0.0221588 0)
(0.303657 -0.0220663 0)
(0.303077 -0.020539 0)
(0.305719 -0.0170917 0)
(0.299991 -0.0130905 0)
(0.301054 -0.00957588 0)
(0.288053 -0.00718767 0)
(0.288005 -0.00575475 0)
(0.271398 -0.00971481 0)
(0.311049 -0.0373448 0)
(0.313155 -0.0326852 0)
(0.31369 -0.0281962 0)
(0.313086 -0.024171 0)
(0.311715 -0.0206904 0)
(0.30953 -0.0179883 0)
(0.306889 -0.0162911 0)
(0.303843 -0.0159344 0)
(0.301458 -0.0167893 0)
(0.299444 -0.0187832 0)
(0.299382 -0.0208847 0)
(0.299402 -0.0227359 0)
(0.301837 -0.0226359 0)
(0.301263 -0.0208139 0)
(0.303273 -0.0164646 0)
(0.297288 -0.0117237 0)
(0.297205 -0.00697399 0)
(0.283111 -0.00386363 0)
(0.282653 -0.00227395 0)
(0.263882 -0.00558749 0)
(0.313399 -0.0387065 0)
(0.315655 -0.0332446 0)
(0.316096 -0.0281841 0)
(0.315289 -0.0237135 0)
(0.313572 -0.019842 0)
(0.310858 -0.0168072 0)
(0.307459 -0.0149152 0)
(0.303545 -0.0145851 0)
(0.300198 -0.0157251 0)
(0.297358 -0.0182004 0)
(0.296471 -0.0208666 0)
(0.295946 -0.0231482 0)
(0.297624 -0.0230629 0)
(0.296757 -0.020898 0)
(0.297963 -0.0156115 0)
(0.291738 -0.0100296 0)
(0.290448 -0.00390257 0)
(0.275713 -0.000233659 0)
(0.274701 0.00174335 0)
(0.254013 -0.000988285 0)
(0.31634 -0.0402145 0)
(0.318695 -0.0338282 0)
(0.318928 -0.0281127 0)
(0.31773 -0.0231188 0)
(0.315405 -0.0187605 0)
(0.311832 -0.0152851 0)
(0.307285 -0.0131078 0)
(0.302064 -0.0127505 0)
(0.297283 -0.0141728 0)
(0.293085 -0.0171547 0)
(0.290784 -0.0204347 0)
(0.289097 -0.0231709 0)
(0.289563 -0.0231733 0)
(0.288154 -0.0206881 0)
(0.288542 -0.0145131 0)
(0.28227 -0.00802788 0)
(0.279985 -0.000488568 0)
(0.265253 0.00359554 0)
(0.263597 0.00625311 0)
(0.24153 0.003982 0)
(0.320243 -0.0418743 0)
(0.322443 -0.0344034 0)
(0.322047 -0.0278874 0)
(0.31992 -0.0222491 0)
(0.316412 -0.0172739 0)
(0.3114 -0.0132234 0)
(0.305138 -0.0106499 0)
(0.298045 -0.0101972 0)
(0.291243 -0.0118779 0)
(0.285023 -0.0153616 0)
(0.280602 -0.0192853 0)
(0.27714 -0.0225516 0)
(0.276094 -0.022821 0)
(0.274132 -0.0201581 0)
(0.273969 -0.0132481 0)
(0.268088 -0.00585766 0)
(0.265308 0.00302813 0)
(0.251355 0.0074638 0)
(0.249039 0.0111359 0)
(0.226413 0.00914826 0)
(0.325506 -0.0436218 0)
(0.326566 -0.0347862 0)
(0.324408 -0.0272139 0)
(0.320223 -0.0207803 0)
(0.314577 -0.0150665 0)
(0.307372 -0.0103353 0)
(0.298804 -0.00727715 0)
(0.289327 -0.00667154 0)
(0.279978 -0.00856622 0)
(0.271128 -0.0125242 0)
(0.264031 -0.0171476 0)
(0.258522 -0.0211328 0)
(0.256111 -0.0219983 0)
(0.254004 -0.0194327 0)
(0.253877 -0.0120291 0)
(0.249039 -0.00378417 0)
(0.246446 0.00633979 0)
(0.234028 0.0111867 0)
(0.231099 0.0162087 0)
(0.208966 0.0142688 0)
(0.331585 -0.0450359 0)
(0.328939 -0.034361 0)
(0.322845 -0.0254131 0)
(0.314907 -0.0181417 0)
(0.306076 -0.0117037 0)
(0.296154 -0.00632407 0)
(0.285092 -0.00278648 0)
(0.273153 -0.00201632 0)
(0.261121 -0.00406653 0)
(0.24946 -0.00847043 0)
(0.239748 -0.0139562 0)
(0.232674 -0.0190263 0)
(0.229697 -0.0209427 0)
(0.228265 -0.0188159 0)
(0.228945 -0.0111779 0)
(0.225824 -0.00213362 0)
(0.224059 0.00914296 0)
(0.213738 0.0145942 0)
(0.210303 0.0212369 0)
(0.189845 0.0190555 0)
(0.334537 -0.0446784 0)
(0.323566 -0.031766 0)
(0.310812 -0.021391 0)
(0.297679 -0.0136838 0)
(0.285464 -0.00688141 0)
(0.273347 -0.00113557 0)
(0.260629 0.00273166 0)
(0.247032 0.00371206 0)
(0.232986 0.00158619 0)
(0.219243 -0.00336254 0)
(0.208038 -0.010042 0)
(0.200809 -0.0167127 0)
(0.198572 -0.0201349 0)
(0.198735 -0.0187096 0)
(0.200863 -0.0110118 0)
(0.199893 -0.00117346 0)
(0.199334 0.0112286 0)
(0.191377 0.0175668 0)
(0.187617 0.0259597 0)
(0.170022 0.0232098 0)
(0.323485 -0.0397478 0)
(0.299137 -0.0251721 0)
(0.278823 -0.0141917 0)
(0.261305 -0.00727771 0)
(0.247848 -0.000963232 0)
(0.235919 0.00458459 0)
(0.223796 0.00864342 0)
(0.210389 0.00995127 0)
(0.195963 0.0078663 0)
(0.182039 0.00218037 0)
(0.17153 -0.00618109 0)
(0.166036 -0.0149199 0)
(0.165757 -0.0200938 0)
(0.168058 -0.0194234 0)
(0.17185 -0.0116944 0)
(0.173053 -0.0010065 0)
(0.173741 0.0125357 0)
(0.168153 0.0200325 0)
(0.164362 0.0301063 0)
(0.150657 0.0264596 0)
(0.279407 -0.02738 0)
(0.242222 -0.0139843 0)
(0.219809 -0.00459853 0)
(0.203179 -0.000410925 0)
(0.193538 0.00444116 0)
(0.185596 0.00941242 0)
(0.176973 0.0138202 0)
(0.166088 0.0157062 0)
(0.153664 0.0137246 0)
(0.142166 0.00705758 0)
(0.134715 -0.00335008 0)
(0.132375 -0.0142792 0)
(0.13454 -0.0210888 0)
(0.138868 -0.0210127 0)
(0.144065 -0.0131696 0)
(0.147088 -0.00155566 0)
(0.148817 0.0131284 0)
(0.14548 0.021935 0)
(0.142048 0.0334078 0)
(0.132927 0.0286148 0)
(0.185776 -0.00475351 0)
(0.151904 5.46705e-05 0)
(0.140935 0.0039056 0)
(0.132708 0.0037511 0)
(0.131624 0.00713548 0)
(0.130181 0.0119178 0)
(0.126882 0.0172072 0)
(0.12035 0.0199779 0)
(0.112202 0.0180297 0)
(0.105355 0.0101852 0)
(0.102334 -0.00219738 0)
(0.103382 -0.014982 0)
(0.107583 -0.0230263 0)
(0.113274 -0.0232881 0)
(0.119303 -0.015228 0)
(0.123594 -0.00266141 0)
(0.126068 0.0131046 0)
(0.124839 0.0231892 0)
(0.122169 0.0356464 0)
(0.117833 0.0295956 0)
(0.0678071 0.0065779 0)
(0.058668 0.00283602 0)
(0.0659855 0.00483966 0)
(0.0676334 0.0027011 0)
(0.0751121 0.00614435 0)
(0.0796613 0.0116209 0)
(0.081829 0.0183123 0)
(0.0805038 0.0220462 0)
(0.0779293 0.0200339 0)
(0.0765702 0.0111058 0)
(0.0778646 -0.00273815 0)
(0.0814786 -0.0167064 0)
(0.0867473 -0.0255218 0)
(0.0928523 -0.0259341 0)
(0.0990019 -0.0176228 0)
(0.10396 -0.00414853 0)
(0.106895 0.0125243 0)
(0.107617 0.0236845 0)
(0.105975 0.0367228 0)
(0.106074 0.0294503 0)
(0.0272948 -0.000693506 0)
(0.0175233 0.00098499 0)
(0.0301203 0.0024686 0)
(0.034884 0.000137797 0)
(0.0459047 0.00362035 0)
(0.0532541 0.00982821 0)
(0.0586658 0.0174578 0)
(0.0608743 0.0218246 0)
(0.0621167 0.0198441 0)
(0.0641393 0.0105002 0)
(0.0676721 -0.00383869 0)
(0.0721806 -0.0181558 0)
(0.0773725 -0.0272434 0)
(0.083031 -0.0277392 0)
(0.088734 -0.0193264 0)
(0.0937283 -0.00536301 0)
(0.0967862 0.0117686 0)
(0.0987296 0.0235389 0)
(0.0978218 0.0366703 0)
(0.100448 0.02888 0)
(0.0105759 -0.00328036 0)
(-0.000344808 0.000617435 0)
(0.0137877 0.00092301 0)
(0.0197397 -0.00144711 0)
(0.0321764 0.00193203 0)
(0.0407614 0.00856383 0)
(0.0477864 0.0166483 0)
(0.0518834 0.0213421 0)
(0.0551814 0.0193859 0)
(0.0589612 0.00988632 0)
(0.0635725 -0.00460547 0)
(0.0683975 -0.019009 0)
(0.0733668 -0.0281714 0)
(0.0785935 -0.0286961 0)
(0.0838995 -0.0202439 0)
(0.0887951 -0.00605282 0)
(0.0918611 0.0113005 0)
(0.0944371 0.0233854 0)
(0.093936 0.036479 0)
(0.0978409 0.0285027 0)
(-0.000664289 -0.0028301 0)
(-0.0130238 0.000266594 0)
(0.00178567 -0.000809693 0)
(0.00840092 -0.00319124 0)
(0.0216747 5.47346e-05 0)
(0.0311206 0.00708635 0)
(0.0394848 0.015551 0)
(0.045285 0.0205299 0)
(0.0504493 0.0186096 0)
(0.055766 0.0090416 0)
(0.061238 -0.00547756 0)
(0.066185 -0.0198559 0)
(0.0707553 -0.0290255 0)
(0.0753757 -0.0295658 0)
(0.0801434 -0.0211021 0)
(0.0848213 -0.0067284 0)
(0.0878324 0.0107911 0)
(0.0909625 0.0231522 0)
(0.0908477 0.0361472 0)
(0.0958463 0.0280464 0)
(-0.00738406 -0.000671846 0)
(-0.0208442 -6.0908e-05 0)
(-0.00577777 -0.00263069 0)
(0.00103552 -0.0050194 0)
(0.0146001 -0.0019344 0)
(0.0245228 0.00544261 0)
(0.0339188 0.0142096 0)
(0.0411851 0.0194252 0)
(0.047974 0.0175578 0)
(0.054577 0.00800942 0)
(0.0606867 -0.00641635 0)
(0.0655681 -0.0206628 0)
(0.0695717 -0.0297782 0)
(0.0734166 -0.030325 0)
(0.0775054 -0.0218843 0)
(0.0818442 -0.00737523 0)
(0.0847339 0.0102458 0)
(0.0883293 0.0228384 0)
(0.0885692 0.0356973 0)
(0.094469 0.0275049 0)
(-0.0102425 0.00232947 0)
(-0.0239998 -0.000358446 0)
(-0.00884004 -0.0044498 0)
(-0.00224616 -0.00684788 0)
(0.0110932 -0.00395473 0)
(0.0210979 0.00369528 0)
(0.0311853 0.0126749 0)
(0.0396347 0.0180744 0)
(0.0477662 0.0162769 0)
(0.0553869 0.00683292 0)
(0.0619142 -0.00738557 0)
(0.0665551 -0.0213989 0)
(0.0698377 -0.0303999 0)
(0.0727463 -0.0309462 0)
(0.0760171 -0.0225669 0)
(0.0798925 -0.00797658 0)
(0.0825899 0.00967871 0)
(0.0865522 0.0224553 0)
(0.0871049 0.0351488 0)
(0.0937124 0.0268964 0)
(-0.00950303 0.00547929 0)
(-0.0225637 -0.000685389 0)
(-0.00737339 -0.00623248 0)
(-0.0013821 -0.0085988 0)
(0.0112391 -0.00592672 0)
(0.0209196 0.00191087 0)
(0.0313261 0.0110039 0)
(0.0406365 0.0165297 0)
(0.0497996 0.0148167 0)
(0.0581615 0.00555464 0)
(0.0648942 -0.00835196 0)
(0.0691351 -0.0220368 0)
(0.0715602 -0.0308639 0)
(0.0733843 -0.0314033 0)
(0.0757017 -0.0231264 0)
(0.0789864 -0.00851501 0)
(0.0814161 0.00910616 0)
(0.0856374 0.0220173 0)
(0.0864522 0.0345216 0)
(0.0935789 0.0262417 0)
(-0.00499209 0.00810805 0)
(-0.0164926 -0.00110488 0)
(-0.00138248 -0.00796381 0)
(0.00364279 -0.0101911 0)
(0.0150653 -0.00776812 0)
(0.0240078 0.00015798 0)
(0.0343343 0.00925948 0)
(0.0441524 0.0148491 0)
(0.0540166 0.0132294 0)
(0.0628408 0.00421657 0)
(0.0695765 -0.0092847 0)
(0.0732755 -0.0225526 0)
(0.0747277 -0.0311471 0)
(0.0753364 -0.0316725 0)
(0.0765719 -0.02354 0)
(0.0791374 -0.00897262 0)
(0.0812197 0.00854447 0)
(0.0855847 0.0215394 0)
(0.0866035 0.0338359 0)
(0.0940698 0.0255584 0)
(0.00392336 0.00953629 0)
(-0.00563753 -0.0016061 0)
(0.00908139 -0.00957821 0)
(0.0127856 -0.0115555 0)
(0.022536 -0.00939682 0)
(0.0303299 -0.00148565 0)
(0.0401599 0.00751215 0)
(0.0501101 0.0130965 0)
(0.0603323 0.01157 0)
(0.0693406 0.00286025 0)
(0.0758867 -0.0101554 0)
(0.0789191 -0.0229264 0)
(0.0793077 -0.0312302 0)
(0.0785926 -0.0317328 0)
(0.0786294 -0.0237867 0)
(0.0803486 -0.00933094 0)
(0.0820007 0.00800983 0)
(0.0863885 0.0210381 0)
(0.0875476 0.0331109 0)
(0.0951857 0.0248626 0)
(0.018317 0.00871467 0)
(0.0102471 -0.00214174 0)
(0.0238881 -0.0109343 0)
(0.0259193 -0.0126205 0)
(0.0335437 -0.0107352 0)
(0.0397969 -0.00294043 0)
(0.0487113 0.00583684 0)
(0.0584074 0.0113391 0)
(0.0686375 0.00989555 0)
(0.0775527 0.00152735 0)
(0.0837249 -0.0109371 0)
(0.0859834 -0.0231411 0)
(0.085244 -0.031098 0)
(0.0831242 -0.0315656 0)
(0.0818629 -0.0238455 0)
(0.0826142 -0.009571 0)
(0.0837522 0.0075197 0)
(0.0880401 0.020531 0)
(0.0892708 0.0323663 0)
(0.0969265 0.024169 0)
(0.0395592 0.00318626 0)
(0.0315176 -0.00266791 0)
(0.0428202 -0.0119942 0)
(0.0428093 -0.0133919 0)
(0.0478915 -0.0117384 0)
(0.0522559 -0.00416922 0)
(0.0598544 0.00428303 0)
(0.0689135 0.00962318 0)
(0.0788003 0.00824973 0)
(0.0873462 0.000255713 0)
(0.0929667 -0.0116045 0)
(0.0943595 -0.0231795 0)
(0.0924557 -0.0307371 0)
(0.0888826 -0.0311541 0)
(0.0862464 -0.0236911 0)
(0.0859188 -0.0096749 0)
(0.08646 0.00710212 0)
(0.0905283 0.0200301 0)
(0.0917581 0.0316272 0)
(0.0992907 0.0234886 0)
(0.103303 -0.00673298 0)
(0.0905307 -0.00616748 0)