x,y,z,U_0,U_1,U_2
0,0,0,0.3,-0.000387495,0
0,0.1,0,0.3,-0.000232497,0
0,0.2,0,0.3,-7.74989e-05,0
0,0.3,0,0.3,0,0
0,0.4,0,0.3,0,0
0,0.5,0,0.3,0,0
0,0.6,0,0.3,0,0
0,0.7,0,0.3,0,0
0,0.8,0,0.3,0,0
0,0.9,0,0.3,0,0
0,1,0,0.3,0,0
0,1.1,0,0.3,0,0
0,1.2,0,0.3,0,0
0,1.3,0,0.3,0,0
0,1.4,0,0.3,0,0
0,1.5,0,0.3,0,0
0,1.6,0,0.3,0,0
0,1.7,0,0.3,0,0
0,1.8,0,0.3,0,0
0,1.9,0,0.3,0,0
0,2,0,0.3,0,0
0,2.1,0,0.3,0,0
0,2.2,0,0.3,0,0
0,2.3,0,0.3,0,0
0,2.4,0,0.3,0,0
0,2.5,0,0.3,0,0
0,2.6,0,0.3,0,0
0,2.7,0,0.3,0,0
0,2.8,0,0.3,0,0
0,2.9,0,0.3,0,0
0,3,0,0.3,0,0
0,3.1,0,0.3,0,0
0,3.2,0,0.3,0,0
0,3.3,0,0.3,0,0
0,3.4,0,0.3,0,0
0,3.5,0,0.3,0,0
0,3.6,0,0.3,0,0
0,3.7,0,0.3,0,0
0,3.8,0,0.3,0,0
0,3.9,0,0.3,0,0
0,4,0,0.3,0,0
0,4.1,0,0.3,0,0
0,4.2,0,0.3,0,0
0,4.3,0,0.3,0,0
0,4.4,0,0.3,0,0
0,4.5,0,0.3,0,0
0,4.6,0,0.3,0,0
0,4.7,0,0.3,0,0
0,4.8,0,0.3,0,0
0,4.9,0,0.3,0,0
0,5,0,0.3,0,0
0,5.1,0,0.3,0,0
0,5.2,0,0.3,0,0
0,5.3,0,0.3,0,0
0,5.4,0,0.3,0,0
0,5.5,0,0.3,0,0
0,5.6,0,0.3,0,0
0,5.7,0,0.3,0,0
0,5.8,0,0.3,0,0
0,5.9,0,0.3,0,0
0,6,0,0.3,0,0
0,6.1,0,0.3,0,0
0,6.2,0,0.3,0,0
0,6.3,0,0.3,0,0
0,6.4,0,0.3,0,0
0,6.5,0,0.3,0,0
0,6.6,0,0.3,0,0
0,6.7,0,0.3,0,0
0,6.8,0,0.3,0,0
0,6.9,0,0.3,0,0
0,7,0,0.3,0,0
0,7.1,0,0.3,0,0
0,7.2,0,0.3,0,0
0,7.3,0,0.3,0,0
0,7.4,0,0.3,0,0
0,7.5,0,0.3,0,0
0,7.6,0,0.3,0,0
0,7.7,0,0.3,0,0
0,7.8,0,0.3,0,0
0,7.9,0,0.3,0,0
0,8,0,0.3,0,0
0,8.1,0,0.3,0,0
0,8.2,0,0.3,0,0
0,8.3,0,0.3,0,0
0,8.4,0,0.3,0,0
0,8.5,0,0.3,0,0
0,8.6,0,0.3,0,0
0,8.7,0,0.3,0,0
0,8.8,0,0.3,0,0
0,8.9,0,0.3,0,0
0,9,0,0.3,0,0
0,9.1,0,0.3,0,0
0,9.2,0,0.3,0,0
0,9.3,0,0.3,0,0
0,9.4,0,0.3,0,0
0,9.5,0,0.3,0,0
0,9.6,0,0.3,0,0
0,9.7,0,0.3,0,0
0,9.8,0,0.3,0,0
0,9.9,0,0.3,0,0
0,10,0,0.3,0,0
0,10.1,0,0.3,0,0
0,10.2,0,0.3,0,0
0,10.3,0,0.3,0,0
0,10.4,0,0.3,0,0
0,10.5,0,0.3,0,0
0,10.6,0,0.3,0,0
0,10.7,0,0.3,0,0
0,10.8,0,0.3,0,0
0,10.9,0,0.3,0,0
0,11,0,0.3,0,0
0,11.1,0,0.3,0,0
0,11.2,0,0.3,0,0
0,11.3,0,0.3,0,0
0,11.4,0,0.3,0,0
0,11.5,0,0.3,0,0
0,11.6,0,0.3,0,0
0,11.7,0,0.3,0,0
0,11.8,0,0.3,0,0
0,11.9,0,0.3,0,0
0,12,0,0.3,0,0
0,12.1,0,0.3,0,0
0,12.2,0,0.3,0,0
0,12.3,0,0.3,0,0
0,12.4,0,0.3,2.68107e-05,0
0,12.5,0,0.3,0.000103413,0
0,12.6,0,0.3,0.000180015,0
0,12.7,0,0.3,0.000256616,0
0.1,0,0,0.300001,-0.000851147,0
0.1,0.1,0,0.3,-0.00069749,0
0.1,0.2,0,0.300001,-0.000619877,0
0.1,0.3,0,0.300001,-0.000620955,0
0.1,0.4,0,0.3,-0.000622147,0
0.1,0.5,0,0.300002,-0.000622988,0
0.1,0.6,0,0.300001,-0.000626279,0
0.1,0.7,0,0.300002,-0.000627177,0
0.1,0.8,0,0.300002,-0.000630085,0
0.1,0.9,0,0.300001,-0.000632096,0
0.1,1,0,0.300004,-0.000634674,0
0.1,1.1,0,0.300001,-0.000639178,0
0.1,1.2,0,0.300003,-0.000640747,0
0.1,1.3,0,0.300003,-0.000644655,0
0.1,1.4,0,0.300001,-0.000646993,0
0.1,1.5,0,0.300005,-0.000650403,0
0.1,1.6,0,0.300001,-0.000654874,0
0.1,1.7,0,0.300002,-0.000656536,0
0.1,1.8,0,0.300002,-0.000660104,0
0.1,1.9,0,0.300001,-0.000662011,0
0.1,2,0,0.300003,-0.000664813,0
0.1,2.1,0,0.300001,-0.000667446,0
0.1,2.2,0,0.300001,-0.00066833,0
0.1,2.3,0,0.300001,-0.000669645,0
0.1,2.4,0,0.3,-0.000670075,0
0.1,2.5,0,0.299999,-0.000670237,0
0.1,2.6,0,0.299999,-0.000668678,0
0.1,2.7,0,0.299998,-0.000667641,0
0.1,2.8,0,0.299998,-0.000664276,0
0.1,2.9,0,0.299999,-0.000661948,0
0.1,3,0,0.299993,-0.000656981,0
0.1,3.1,0,0.299998,-0.000648553,0
0.1,3.2,0,0.299994,-0.000644294,0
0.1,3.3,0,0.299993,-0.000633621,0
0.1,3.4,0,0.299998,-0.000627207,0
0.1,3.5,0,0.299984,-0.000614527,0
0.1,3.6,0,0.299996,-0.000596774,0
0.1,3.7,0,0.299987,-0.000588097,0
0.1,3.8,0,0.299987,-0.000567898,0
0.1,3.9,0,0.299995,-0.000556376,0
0.1,4,0,0.299972,-0.000534003,0
0.1,4.1,0,0.299994,-0.000505524,0
0.1,4.2,0,0.299981,-0.000491766,0
0.1,4.3,0,0.29998,-0.000461122,0
0.1,4.4,0,0.299994,-0.000444235,0
0.1,4.5,0,0.299961,-0.000411752,0
0.1,4.6,0,0.299992,-0.000373302,0
0.1,4.7,0,0.299974,-0.000354871,0
0.1,4.8,0,0.299974,-0.000315673,0
0.1,4.9,0,0.299992,-0.000294905,0
0.1,5,0,0.299954,-0.000266406,0
0.1,5.1,0,0.299953,-0.000218895,0
0.1,5.2,0,0.299952,-0.000182738,0
0.1,5.3,0,0.299951,-0.000145988,0
0.1,5.4,0,0.299951,-0.000108864,0
0.1,5.5,0,0.299951,-7.15055e-05,0
0.1,5.6,0,0.299951,-3.40716e-05,0
0.1,5.7,0,0.299951,3.27484e-06,0
0.1,5.8,0,0.299951,4.04022e-05,0
0.1,5.9,0,0.299952,7.70857e-05,0
0.1,6,0,0.299953,0.000132259,0
0.1,6.1,0,0.299981,0.000162193,0
0.1,6.2,0,0.299991,0.00017237,0
0.1,6.3,0,0.299965,0.000210631,0
0.1,6.4,0,0.299974,0.000249912,0
0.1,6.5,0,0.299993,0.000277252,0
0.1,6.6,0,0.299979,0.000298972,0
0.1,6.7,0,0.29997,0.000332732,0
0.1,6.8,0,0.299993,0.000366078,0
0.1,6.9,0,0.299989,0.000375379,0
0.1,7,0,0.299971,0.00040285,0
0.1,7.1,0,0.299988,0.000429092,0
0.1,7.2,0,0.299995,0.000439302,0
0.1,7.3,0,0.299983,0.00045873,0
0.1,7.4,0,0.299987,0.000478395,0
0.1,7.5,0,0.299997,0.000492451,0
0.1,7.6,0,0.299992,0.000500811,0
0.1,7.7,0,0.299988,0.00051452,0
0.1,7.8,0,0.299998,0.000526844,0
0.1,7.9,0,0.299997,0.000529969,0
0.1,8,0,0.299993,0.000538368,0
0.1,8.1,0,0.299997,0.000545072,0
0.1,8.2,0,0.299999,0.000547939,0
0.1,8.3,0,0.299998,0.00055114,0
0.1,8.4,0,0.299998,0.000553721,0
0.1,8.5,0,0.3,0.000555102,0
0.1,8.6,0,0.300001,0.000555016,0
0.1,8.7,0,0.300001,0.000554502,0
0.1,8.8,0,0.300001,0.000552558,0
0.1,8.9,0,0.300001,0.000551735,0
0.1,9,0,0.300004,0.000548837,0
0.1,9.1,0,0.300002,0.000544474,0
0.1,9.2,0,0.300001,0.00054221,0
0.1,9.3,0,0.300004,0.000538241,0
0.1,9.4,0,0.300005,0.000532679,0
0.1,9.5,0,0.300002,0.000527305,0
0.1,9.6,0,0.300004,0.000524475,0
0.1,9.7,0,0.300007,0.000518453,0
0.1,9.8,0,0.300002,0.000511035,0
0.1,9.9,0,0.300002,0.000508758,0
0.1,10,0,0.300007,0.000502562,0
0.1,10.1,0,0.300004,0.000495063,0
0.1,10.2,0,0.300002,0.000490837,0
0.1,10.3,0,0.300005,0.000485997,0
0.1,10.4,0,0.300006,0.000479137,0
0.1,10.5,0,0.300002,0.000472234,0
0.1,10.6,0,0.300003,0.000469736,0
0.1,10.7,0,0.300007,0.000463895,0
0.1,10.8,0,0.300003,0.000456578,0
0.1,10.9,0,0.300002,0.000454377,0
0.1,11,0,0.300005,0.00044944,0
0.1,11.1,0,0.300003,0.000443261,0
0.1,11.2,0,0.300001,0.00043937,0
0.1,11.3,0,0.300003,0.000436417,0
0.1,11.4,0,0.300004,0.000431757,0
0.1,11.5,0,0.300001,0.00042643,0
0.1,11.6,0,0.300002,0.000425298,0
0.1,11.7,0,0.300004,0.000422311,0
0.1,11.8,0,0.300002,0.000417714,0
0.1,11.9,0,0.300001,0.000416312,0
0.1,12,0,0.300002,0.000414593,0
0.1,12.1,0,0.300002,0.000411681,0
0.1,12.2,0,0.300001,0.00040949,0
0.1,12.3,0,0.300001,0.000409162,0
0.1,12.4,0,0.300001,0.000408093,0
0.1,12.5,0,0.3,0.000406711,0
0.1,12.6,0,0.3,0.000483598,0
0.1,12.7,0,0.300001,0.00056104,0
0.2,0,0,0.300001,-0.0013148,0
0.2,0.1,0,0.300001,-0.00123853,0
0.2,0.2,0,0.300002,-0.00123964,0
0.2,0.3,0,0.300002,-0.00124072,0
0.2,0.4,0,0.300003,-0.00124394,0
0.2,0.5,0,0.300005,-0.00124598,0
0.2,0.6,0,0.300004,-0.00125017,0
0.2,0.7,0,0.300005,-0.00125525,0
0.2,0.8,0,0.300005,-0.00125816,0
0.2,0.9,0,0.300006,-0.00126476,0
0.2,1,0,0.300008,-0.00126935,0
0.2,1.1,0,0.300007,-0.00127542,0
0.2,1.2,0,0.300007,-0.00128306,0
0.2,1.3,0,0.300007,-0.00128697,0
0.2,1.4,0,0.300007,-0.00129506,0
0.2,1.5,0,0.300009,-0.00130081,0
0.2,1.6,0,0.300007,-0.00130694,0
0.2,1.7,0,0.300007,-0.00131473,0
0.2,1.8,0,0.300007,-0.0013183,0
0.2,1.9,0,0.300006,-0.00132492,0
0.2,2,0,0.300007,-0.00132963,0
0.2,2.1,0,0.300005,-0.00133314,0
0.2,2.2,0,0.300003,-0.00133755,0
0.2,2.3,0,0.300003,-0.00133886,0
0.2,2.4,0,0.3,-0.00133988,0
0.2,2.5,0,0.299999,-0.00134047,0
0.2,2.6,0,0.299997,-0.00133788,0
0.2,2.7,0,0.299995,-0.00133425,0
0.2,2.8,0,0.299995,-0.00133088,0
0.2,2.9,0,0.299991,-0.00132126,0
0.2,3,0,0.299986,-0.00131396,0
0.2,3.1,0,0.299987,-0.00130127,0
0.2,3.2,0,0.299982,-0.00128433,0
0.2,3.3,0,0.299982,-0.00127366,0
0.2,3.4,0,0.299977,-0.00124815,0
0.2,3.5,0,0.299967,-0.00122905,0
0.2,3.6,0,0.299971,-0.00120262,0
0.2,3.7,0,0.299965,-0.00116752,0
0.2,3.8,0,0.299965,-0.00114732,0
0.2,3.9,0,0.299959,-0.0011019,0
0.2,4,0,0.299945,-0.00106801,0
0.2,4.1,0,0.299953,-0.00102577,0
0.2,4.2,0,0.299947,-0.000969775,0
0.2,4.3,0,0.299947,-0.000939131,0
0.2,4.4,0,0.299941,-0.000872874,0
0.2,4.5,0,0.299922,-0.000823504,0
0.2,4.6,0,0.299935,-0.000766623,0
0.2,4.7,0,0.299931,-0.000691312,0
0.2,4.8,0,0.299931,-0.000652114,0
0.2,4.9,0,0.299928,-0.000582079,0
0.2,5,0,0.299908,-0.000532811,0
0.2,5.1,0,0.299905,-0.000437789,0
0.2,5.2,0,0.299904,-0.000365475,0
0.2,5.3,0,0.299903,-0.000291975,0
0.2,5.4,0,0.299902,-0.000217729,0
0.2,5.5,0,0.299902,-0.000143011,0
0.2,5.6,0,0.299902,-6.81432e-05,0
0.2,5.7,0,0.299902,6.54968e-06,0
0.2,5.8,0,0.299903,8.08044e-05,0
0.2,5.9,0,0.299904,0.000154171,0
0.2,6,0,0.299905,0.000264518,0
0.2,6.1,0,0.299926,0.000307205,0
0.2,6.2,0,0.299928,0.000375786,0
0.2,6.3,0,0.299922,0.000434787,0
0.2,6.4,0,0.29993,0.000474069,0
0.2,6.5,0,0.299936,0.000546951,0
0.2,6.6,0,0.299941,0.000620511,0
0.2,6.7,0,0.299933,0.00065546,0
0.2,6.8,0,0.299945,0.000706113,0
0.2,6.9,0,0.299951,0.00076693,0
0.2,7,0,0.299942,0.000807073,0
0.2,7.1,0,0.299955,0.000839103,0
0.2,7.2,0,0.299961,0.00088595,0
0.2,7.3,0,0.299962,0.000925729,0
0.2,7.4,0,0.299965,0.000945393,0
0.2,7.5,0,0.299971,0.000977566,0
0.2,7.6,0,0.299977,0.00101073,0
0.2,7.7,0,0.299974,0.00102596,0
0.2,7.8,0,0.299981,0.00104315,0
0.2,7.9,0,0.299985,0.00106388,0
0.2,8,0,0.299985,0.00107758,0
0.2,8.1,0,0.299989,0.00108511,0
0.2,8.2,0,0.299993,0.00109522,0
0.2,8.3,0,0.299995,0.0011039,0
0.2,8.4,0,0.299996,0.00110648,0
0.2,8.5,0,0.299999,0.00110809,0
0.2,8.6,0,0.300002,0.00110968,0
0.2,8.7,0,0.300003,0.00110939,0
0.2,8.8,0,0.300004,0.00110591,0
0.2,8.9,0,0.300006,0.00110107,0
0.2,9,0,0.300008,0.00109724,0
0.2,9.1,0,0.300007,0.00109203,0
0.2,9.2,0,0.300009,0.00108268,0
0.2,9.3,0,0.300011,0.00107412,0
0.2,9.4,0,0.300011,0.00106856,0
0.2,9.5,0,0.300011,0.00105737,0
0.2,9.6,0,0.300012,0.00104519,0
0.2,9.7,0,0.300014,0.00103802,0
0.2,9.8,0,0.300012,0.00102763,0
0.2,9.9,0,0.300012,0.00101401,0
0.2,10,0,0.300015,0.00100388,0
0.2,10.1,0,0.300013,0.000995589,0
0.2,10.2,0,0.300013,0.000981637,0
0.2,10.3,0,0.300013,0.000968625,0
0.2,10.4,0,0.300014,0.000961765,0
0.2,10.5,0,0.300012,0.00094958,0
0.2,10.6,0,0.300012,0.000936147,0
0.2,10.7,0,0.300014,0.000928522,0
0.2,10.8,0,0.300011,0.000919082,0
0.2,10.9,0,0.300011,0.000906827,0
0.2,11,0,0.300012,0.000897646,0
0.2,11.1,0,0.30001,0.000891147,0
0.2,11.2,0,0.300009,0.000880563,0
0.2,11.3,0,0.300009,0.000870441,0
0.2,11.4,0,0.300009,0.00086578,0
0.2,11.5,0,0.300008,0.000857994,0
0.2,11.6,0,0.300007,0.000849425,0
0.2,11.7,0,0.300008,0.000844851,0
0.2,11.8,0,0.300006,0.000839601,0
0.2,11.9,0,0.300005,0.000833286,0
0.2,12,0,0.300005,0.000828671,0
0.2,12.1,0,0.300005,0.000825745,0
0.2,12.2,0,0.300004,0.000821845,0
0.2,12.3,0,0.300003,0.000818014,0
0.2,12.4,0,0.300003,0.000816945,0
0.2,12.5,0,0.300002,0.000815347,0
0.2,12.6,0,0.300001,0.000814017,0
0.2,12.7,0,0.300002,0.000865464,0
0.3,0,0,0.300003,-0.00185412,0
0.3,0.1,0,0.300002,-0.00185583,0
0.3,0.2,0,0.300003,-0.00185695,0
0.3,0.3,0,0.300005,-0.00186032,0
0.3,0.4,0,0.300007,-0.00186355,0
0.3,0.5,0,0.300009,-0.00186734,0
0.3,0.6,0,0.300009,-0.00187409,0
0.3,0.7,0,0.30001,-0.00187918,0
0.3,0.8,0,0.300012,-0.00188816,0
0.3,0.9,0,0.300013,-0.00189476,0
0.3,1,0,0.300015,-0.00190284,0
0.3,1.1,0,0.300014,-0.00191284,0
0.3,1.2,0,0.300015,-0.00192049,0
0.3,1.3,0,0.300015,-0.00193264,0
0.3,1.4,0,0.300015,-0.00194073,0
0.3,1.5,0,0.300018,-0.00195077,0
0.3,1.6,0,0.300015,-0.00196101,0
0.3,1.7,0,0.300015,-0.00196881,0
0.3,1.8,0,0.300013,-0.00198013,0
0.3,1.9,0,0.300013,-0.00198675,0
0.3,2,0,0.300013,-0.00199504,0
0.3,2.1,0,0.300009,-0.00200111,0
0.3,2.2,0,0.300008,-0.00200551,0
0.3,2.3,0,0.300004,-0.00201023,0
0.3,2.4,0,0.300002,-0.00201126,0
0.3,2.5,0,0.299999,-0.00201263,0
0.3,2.6,0,0.299995,-0.0020087,0
0.3,2.7,0,0.299992,-0.00200507,0
0.3,2.8,0,0.299986,-0.00199585,0
0.3,2.9,0,0.299982,-0.00198623,0
0.3,3,0,0.299974,-0.0019743,0
0.3,3.1,0,0.299971,-0.00195373,0
0.3,3.2,0,0.299966,-0.00193678,0
0.3,3.3,0,0.299957,-0.00190558,0
0.3,3.4,0,0.299952,-0.00188008,0
0.3,3.5,0,0.299937,-0.00184824,0
0.3,3.6,0,0.299937,-0.00180482,0
0.3,3.7,0,0.299931,-0.00176971,0
0.3,3.8,0,0.29992,-0.00170965,0
0.3,3.9,0,0.299915,-0.00166423,0
0.3,4,0,0.299894,-0.00160742,0
0.3,4.1,0,0.299898,-0.00153755,0
0.3,4.2,0,0.299892,-0.00148156,0
0.3,4.3,0,0.299881,-0.00138963,0
0.3,4.4,0,0.299875,-0.00132337,0
0.3,4.5,0,0.29985,-0.00124041,0
0.3,4.6,0,0.29986,-0.0011456,0
0.3,4.7,0,0.299856,-0.00107029,0
0.3,4.8,0,0.299848,-0.000950693,0
0.3,4.9,0,0.299845,-0.000880658,0
0.3,5,0,0.299821,-0.000802767,0
0.3,5.1,0,0.299816,-0.000659704,0
0.3,5.2,0,0.299812,-0.000550992,0
0.3,5.3,0,0.29981,-0.000440449,0
0.3,5.4,0,0.299808,-0.000328727,0
0.3,5.5,0,0.299808,-0.000216274,0
0.3,5.6,0,0.299808,-0.000103591,0
0.3,5.7,0,0.299808,8.80829e-06,0
0.3,5.8,0,0.29981,0.000120491,0
0.3,5.9,0,0.299812,0.000230791,0
0.3,6,0,0.299817,0.000397052,0
0.3,6.1,0,0.299841,0.000476769,0
0.3,6.2,0,0.299844,0.000545349,0
0.3,6.3,0,0.299839,0.000631226,0
0.3,6.4,0,0.299856,0.00074997,0
0.3,6.5,0,0.299862,0.000824393,0
0.3,6.6,0,0.299867,0.000897953,0
0.3,6.7,0,0.299868,0.00100038,0
0.3,6.8,0,0.299884,0.00107492,0
0.3,6.9,0,0.29989,0.00113574,0
0.3,7,0,0.299887,0.00121179,0
0.3,7.1,0,0.299909,0.00128048,0
0.3,7.2,0,0.299915,0.00132732,0
0.3,7.3,0,0.299918,0.00137886,0
0.3,7.4,0,0.299932,0.00143772,0
0.3,7.5,0,0.299939,0.00147243,0
0.3,7.6,0,0.299944,0.0015056,0
0.3,7.7,0,0.29995,0.00154665,0
0.3,7.8,0,0.299961,0.00157364,0
0.3,7.9,0,0.299965,0.00159436,0
0.3,8,0,0.299969,0.00161814,0
0.3,8.1,0,0.299979,0.00163556,0
0.3,8.2,0,0.299983,0.00164567,0
0.3,8.3,0,0.299988,0.001656,0
0.3,8.4,0,0.299995,0.00166365,0
0.3,8.5,0,0.299998,0.00166563,0
0.3,8.6,0,0.300001,0.00166722,0
0.3,8.7,0,0.300006,0.00166581,0
0.3,8.8,0,0.300009,0.00166055,0
0.3,8.9,0,0.300012,0.0016557,0
0.3,9,0,0.300016,0.0016485,0
0.3,9.1,0,0.300018,0.0016365,0
0.3,9.2,0,0.300019,0.00162716,0
0.3,9.3,0,0.300021,0.00161681,0
0.3,9.4,0,0.300024,0.00160008,0
0.3,9.5,0,0.300024,0.00158689,0
0.3,9.6,0,0.300025,0.00157471,0
0.3,9.7,0,0.300028,0.00155682,0
0.3,9.8,0,0.300026,0.00153944,0
0.3,9.9,0,0.300026,0.00152582,0
0.3,10,0,0.300029,0.00150906,0
0.3,10.1,0,0.300027,0.00148861,0
0.3,10.2,0,0.300027,0.00147466,0
0.3,10.3,0,0.300027,0.00145994,0
0.3,10.4,0,0.300027,0.00143916,0
0.3,10.5,0,0.300026,0.001424,0
0.3,10.6,0,0.300025,0.00141057,0
0.3,10.7,0,0.300027,0.00139264,0
0.3,10.8,0,0.300023,0.00137611,0
0.3,10.9,0,0.300023,0.00136386,0
0.3,11,0,0.300024,0.00134955,0
0.3,11.1,0,0.300021,0.00133275,0
0.3,11.2,0,0.30002,0.00132217,0
0.3,11.3,0,0.300019,0.00131131,0
0.3,11.4,0,0.300018,0.00129686,0
0.3,11.5,0,0.300017,0.00128668,0
0.3,11.6,0,0.300016,0.00127811,0
0.3,11.7,0,0.300016,0.00126762,0
0.3,11.8,0,0.300013,0.00125826,0
0.3,11.9,0,0.300012,0.00125195,0
0.3,12,0,0.300011,0.0012451,0
0.3,12.1,0,0.300008,0.00123752,0
0.3,12.2,0,0.300007,0.00123362,0
0.3,12.3,0,0.300006,0.00122972,0
0.3,12.4,0,0.300005,0.00122569,0
0.3,12.5,0,0.300003,0.00122354,0
0.3,12.6,0,0.300003,0.00122221,0
0.3,12.7,0,0.300003,0.00122168,0
0.4,0,0,0.300005,-0.00246911,0
0.4,0.1,0,0.300004,-0.00247143,0
0.4,0.2,0,0.300007,-0.00247318,0
0.4,0.3,0,0.300009,-0.00247655,0
0.4,0.4,0,0.300012,-0.00248272,0
0.4,0.5,0,0.300015,-0.00248708,0
0.4,0.6,0,0.300015,-0.00249549,0
0.4,0.7,0,0.300019,-0.00250438,0
0.4,0.8,0,0.300021,-0.00251337,0
0.4,0.9,0,0.300022,-0.00252559,0
0.4,1,0,0.300027,-0.00253516,0
0.4,1.1,0,0.300023,-0.00254752,0
0.4,1.2,0,0.300027,-0.00256111,0
0.4,1.3,0,0.300028,-0.00257326,0
0.4,1.4,0,0.300026,-0.0025883,0
0.4,1.5,0,0.30003,-0.00260029,0
0.4,1.6,0,0.300025,-0.00261299,0
0.4,1.7,0,0.300026,-0.0026271,0
0.4,1.8,0,0.300025,-0.00263842,0
0.4,1.9,0,0.300021,-0.00265109,0
0.4,2,0,0.300022,-0.00266107,0
0.4,2.1,0,0.300017,-0.00266879,0
0.4,2.2,0,0.300013,-0.00267719,0
0.4,2.3,0,0.300009,-0.00268192,0
0.4,2.4,0,0.300003,-0.00268498,0
0.4,2.5,0,0.299998,-0.0026867,0
0.4,2.6,0,0.299993,-0.00268248,0
0.4,2.7,0,0.299984,-0.00267695,0
0.4,2.8,0,0.299978,-0.00266773,0
0.4,2.9,0,0.299969,-0.00265223,0
0.4,3,0,0.299956,-0.00263801,0
0.4,3.1,0,0.299954,-0.0026138,0
0.4,3.2,0,0.299936,-0.00258492,0
0.4,3.3,0,0.299927,-0.00255372,0
0.4,3.4,0,0.299918,-0.00251025,0
0.4,3.5,0,0.299894,-0.00247208,0
0.4,3.6,0,0.299898,-0.00242035,0
0.4,3.7,0,0.299873,-0.00235939,0
0.4,3.8,0,0.299862,-0.00229933,0
0.4,3.9,0,0.299855,-0.00222045,0
0.4,4,0,0.299819,-0.00215224,0
0.4,4.1,0,0.299833,-0.0020685,0
0.4,4.2,0,0.299802,-0.00197044,0
0.4,4.3,0,0.29979,-0.0018785,0
0.4,4.4,0,0.299789,-0.00176213,0
0.4,4.5,0,0.299745,-0.00166246,0
0.4,4.6,0,0.29977,-0.00154816,0
0.4,4.7,0,0.299737,-0.00141563,0
0.4,4.8,0,0.29973,-0.00129604,0
0.4,4.9,0,0.29974,-0.00116202,0
0.4,5,0,0.299693,-0.00107627,0
0.4,5.1,0,0.299684,-0.000884638,0
0.4,5.2,0,0.299678,-0.000739288,0
0.4,5.3,0,0.299674,-0.000591408,0
0.4,5.4,0,0.299671,-0.00044186,0
0.4,5.5,0,0.29967,-0.000291293,0
0.4,5.6,0,0.29967,-0.000140416,0
0.4,5.7,0,0.299671,1.00507e-05,0
0.4,5.8,0,0.299674,0.000159463,0
0.4,5.9,0,0.299678,0.000306946,0
0.4,6,0,0.299687,0.000529862,0
0.4,6.1,0,0.299722,0.000615063,0
0.4,6.2,0,0.299741,0.000735937,0
0.4,6.3,0,0.29972,0.000858734,0
0.4,6.4,0,0.299738,0.000977479,0
0.4,6.5,0,0.299769,0.00110411,0
0.4,6.6,0,0.299767,0.00122536,0
0.4,6.7,0,0.299767,0.00132875,0
0.4,6.8,0,0.299803,0.00142666,0
0.4,6.9,0,0.299816,0.00153739,0
0.4,7,0,0.299807,0.00162278,0
0.4,7.1,0,0.299837,0.00169979,0
0.4,7.2,0,0.299862,0.00178696,0
0.4,7.3,0,0.29986,0.00185297,0
0.4,7.4,0,0.299873,0.00191183,0
0.4,7.5,0,0.299897,0.00196994,0
0.4,7.6,0,0.299906,0.00202303,0
0.4,7.7,0,0.299911,0.00206496,0
0.4,7.8,0,0.29993,0.00210059,0
0.4,7.9,0,0.299944,0.00213751,0
0.4,8,0,0.299948,0.00216359,0
0.4,8.1,0,0.29996,0.00218298,0
0.4,8.2,0,0.299974,0.00220217,0
0.4,8.3,0,0.29998,0.0022142,0
0.4,8.4,0,0.299987,0.00222185,0
0.4,8.5,0,0.299997,0.0022262,0
0.4,8.6,0,0.300005,0.00222699,0
0.4,8.7,0,0.30001,0.00222529,0
0.4,8.8,0,0.300014,0.00221954,0
0.4,8.9,0,0.300021,0.00221006,0
0.4,9,0,0.300028,0.00220069,0
0.4,9.1,0,0.300029,0.00218798,0
0.4,9.2,0,0.300032,0.00217166,0
0.4,9.3,0,0.300039,0.00215577,0
0.4,9.4,0,0.300041,0.00213905,0
0.4,9.5,0,0.300039,0.0021198,0
0.4,9.6,0,0.300044,0.00209797,0
0.4,9.7,0,0.300048,0.0020789,0
0.4,9.8,0,0.300044,0.00205803,0
0.4,9.9,0,0.300045,0.00203276,0
0.4,10,0,0.30005,0.00201244,0
0.4,10.1,0,0.300048,0.00199097,0
0.4,10.2,0,0.300045,0.00196627,0
0.4,10.3,0,0.300048,0.00194428,0
0.4,10.4,0,0.300048,0.00192351,0
0.4,10.5,0,0.300043,0.00190159,0
0.4,10.6,0,0.300044,0.001878,0
0.4,10.7,0,0.300046,0.00185874,0
0.4,10.8,0,0.30004,0.00183898,0
0.4,10.9,0,0.300038,0.0018162,0
0.4,11,0,0.300041,0.00179907,0
0.4,11.1,0,0.300037,0.00178172,0
0.4,11.2,0,0.300033,0.00176272,0
0.4,11.3,0,0.300034,0.00174653,0
0.4,11.4,0,0.300033,0.00173208,0
0.4,11.5,0,0.300028,0.0017174,0
0.4,11.6,0,0.300026,0.00170252,0
0.4,11.7,0,0.300027,0.00169128,0
0.4,11.8,0,0.300023,0.00168006,0
0.4,11.9,0,0.300019,0.001668,0
0.4,12,0,0.300019,0.00166024,0
0.4,12.1,0,0.300016,0.00165255,0
0.4,12.2,0,0.300012,0.00164483,0
0.4,12.3,0,0.30001,0.00163956,0
0.4,12.4,0,0.300009,0.00163553,0
0.4,12.5,0,0.300006,0.00163166,0
0.4,12.6,0,0.300005,0.00162983,0
0.4,12.7,0,0.300006,0.00162968,0
0.5,0,0,0.300007,-0.0030841,0
0.5,0.1,0,0.300009,-0.00308645,0
0.5,0.2,0,0.300011,-0.0030888,0
0.5,0.3,0,0.300014,-0.00309335,0
0.5,0.4,0,0.300018,-0.00310009,0
0.5,0.5,0,0.300022,-0.00310682,0
0.5,0.6,0,0.300025,-0.00311738,0
0.5,0.7,0,0.300029,-0.00312793,0
0.5,0.8,0,0.300032,-0.00314006,0
0.5,0.9,0,0.300035,-0.00315377,0
0.5,1,0,0.300038,-0.00316748,0
0.5,1.1,0,0.300039,-0.00318342,0
0.5,1.2,0,0.300041,-0.00319937,0
0.5,1.3,0,0.300042,-0.00321583,0
0.5,1.4,0,0.300042,-0.00323282,0
0.5,1.5,0,0.300043,-0.00324981,0
0.5,1.6,0,0.300041,-0.00326637,0
0.5,1.7,0,0.30004,-0.00328293,0
0.5,1.8,0,0.300038,-0.00329839,0
0.5,1.9,0,0.300034,-0.00331274,0
0.5,2,0,0.300031,-0.00332709,0
0.5,2.1,0,0.300026,-0.00333715,0
0.5,2.2,0,0.30002,-0.00334721,0
0.5,2.3,0,0.300013,-0.00335395,0
0.5,2.4,0,0.300006,-0.00335736,0
0.5,2.5,0,0.299998,-0.00336078,0
0.5,2.6,0,0.299987,-0.00335495,0
0.5,2.7,0,0.299976,-0.00334912,0
0.5,2.8,0,0.299964,-0.00333731,0
0.5,2.9,0,0.299951,-0.00331951,0
0.5,3,0,0.299937,-0.00330171,0
0.5,3.1,0,0.299921,-0.0032692,0
0.5,3.2,0,0.299905,-0.00323669,0
0.5,3.3,0,0.299887,-0.00319553,0
0.5,3.4,0,0.299869,-0.00314573,0
0.5,3.5,0,0.29985,-0.00309593,0
0.5,3.6,0,0.29983,-0.00302666,0
0.5,3.7,0,0.299809,-0.00295739,0
0.5,3.8,0,0.299788,-0.00287761,0
0.5,3.9,0,0.299767,-0.00278733,0
0.5,4,0,0.299745,-0.00269705,0
0.5,4.1,0,0.299723,-0.00258512,0
0.5,4.2,0,0.299702,-0.00247318,0
0.5,4.3,0,0.299681,-0.00235068,0
0.5,4.4,0,0.29966,-0.0022176,0
0.5,4.5,0,0.29964,-0.00208452,0
0.5,4.6,0,0.299622,-0.0019325,0
0.5,4.7,0,0.299604,-0.00178047,0
0.5,4.8,0,0.299589,-0.00163352,0
0.5,4.9,0,0.299577,-0.00149165,0
0.5,5,0,0.299566,-0.00134978,0
0.5,5.1,0,0.299552,-0.00110957,0
0.5,5.2,0,0.299544,-0.000927584,0
0.5,5.3,0,0.299537,-0.000742367,0
0.5,5.4,0,0.299533,-0.000554993,0
0.5,5.5,0,0.299531,-0.000366313,0
0.5,5.6,0,0.299531,-0.00017724,0
0.5,5.7,0,0.299534,1.1293e-05,0
0.5,5.8,0,0.299538,0.000198434,0
0.5,5.9,0,0.299544,0.0003831,0
0.5,6,0,0.299557,0.000662672,0
0.5,6.1,0,0.299568,0.000801923,0
0.5,6.2,0,0.299579,0.000941174,0
0.5,6.3,0,0.299591,0.00108042,0
0.5,6.4,0,0.299606,0.0012259,0
0.5,6.5,0,0.299625,0.00137473,0
0.5,6.6,0,0.299643,0.00152356,0
0.5,6.7,0,0.299663,0.00166449,0
0.5,6.8,0,0.299684,0.00178696,0
0.5,6.9,0,0.299705,0.00190944,0
0.5,7,0,0.299726,0.00203192,0
0.5,7.1,0,0.299748,0.00212729,0
0.5,7.2,0,0.299769,0.00222124,0
0.5,7.3,0,0.299791,0.00231519,0
0.5,7.4,0,0.299812,0.00239246,0
0.5,7.5,0,0.299832,0.0024586,0
0.5,7.6,0,0.299852,0.00252475,0
0.5,7.7,0,0.299872,0.0025846,0
0.5,7.8,0,0.299889,0.00262559,0
0.5,7.9,0,0.299907,0.00266657,0
0.5,8,0,0.299925,0.00270755,0
0.5,8.1,0,0.29994,0.00272931,0
0.5,8.2,0,0.299954,0.00274894,0
0.5,8.3,0,0.299969,0.00276856,0
0.5,8.4,0,0.299982,0.00277879,0
0.5,8.5,0,0.299993,0.00278133,0
0.5,8.6,0,0.300004,0.00278388,0
0.5,8.7,0,0.300015,0.00278386,0
0.5,8.8,0,0.300023,0.00277358,0
0.5,8.9,0,0.300031,0.00276329,0
0.5,9,0,0.30004,0.00275301,0
0.5,9.1,0,0.300045,0.00273514,0
0.5,9.2,0,0.300051,0.00271593,0
0.5,9.3,0,0.300056,0.00269671,0
0.5,9.4,0,0.30006,0.00267472,0
0.5,9.5,0,0.300063,0.00264994,0
0.5,9.6,0,0.300066,0.00262517,0
0.5,9.7,0,0.300069,0.00259997,0
0.5,9.8,0,0.30007,0.0025724,0
0.5,9.9,0,0.300071,0.00254484,0
0.5,10,0,0.300073,0.00251727,0
0.5,10.1,0,0.300073,0.00248923,0
0.5,10.2,0,0.300072,0.00246107,0
0.5,10.3,0,0.300072,0.00243291,0
0.5,10.4,0,0.300071,0.00240526,0
0.5,10.5,0,0.300069,0.00237821,0
0.5,10.6,0,0.300068,0.00235116,0
0.5,10.7,0,0.300066,0.00232435,0
0.5,10.8,0,0.300064,0.00229972,0
0.5,10.9,0,0.300062,0.00227509,0
0.5,11,0,0.300059,0.00225045,0
0.5,11.1,0,0.300057,0.00222836,0
0.5,11.2,0,0.300054,0.0022071,0
0.5,11.3,0,0.300051,0.00218585,0
0.5,11.4,0,0.300048,0.00216622,0
0.5,11.5,0,0.300045,0.00214903,0
0.5,11.6,0,0.300041,0.00213183,0
0.5,11.7,0,0.300038,0.00211487,0
0.5,11.8,0,0.300034,0.00210219,0
0.5,11.9,0,0.300031,0.00208952,0
0.5,12,0,0.300027,0.00207685,0
0.5,12.1,0,0.300024,0.00206755,0
0.5,12.2,0,0.30002,0.00205969,0
0.5,12.3,0,0.300016,0.00205184,0
0.5,12.4,0,0.300013,0.00204579,0
0.5,12.5,0,0.300012,0.00204309,0
0.5,12.6,0,0.30001,0.00204039,0
0.5,12.7,0,0.300008,0.00203769,0
0.6,0,0,0.300011,-0.00369344,0
0.6,0.1,0,0.30001,-0.00369677,0
0.6,0.2,0,0.300015,-0.00369937,0
0.6,0.3,0,0.30002,-0.0037054,0
0.6,0.4,0,0.300024,-0.00371338,0
0.6,0.5,0,0.300033,-0.00372167,0
0.6,0.6,0,0.300036,-0.00373571,0
0.6,0.7,0,0.300042,-0.00374761,0
0.6,0.8,0,0.300047,-0.00376328,0
0.6,0.9,0,0.300049,-0.00377919,0
0.6,1,0,0.300057,-0.00379654,0
0.6,1.1,0,0.300056,-0.00381761,0
0.6,1.2,0,0.30006,-0.00383575,0
0.6,1.3,0,0.300062,-0.0038572,0
0.6,1.4,0,0.300061,-0.00387697,0
0.6,1.5,0,0.300065,-0.00389882,0
0.6,1.6,0,0.300059,-0.003921,0
0.6,1.7,0,0.300059,-0.00394003,0
0.6,1.8,0,0.300056,-0.00396059,0
0.6,1.9,0,0.30005,-0.00397756,0
0.6,2,0,0.300048,-0.0039965,0
0.6,2.1,0,0.300037,-0.00401091,0
0.6,2.2,0,0.300031,-0.00402281,0
0.6,2.3,0,0.300021,-0.00403281,0
0.6,2.4,0,0.300011,-0.00403764,0
0.6,2.5,0,0.299998,-0.0040432,0
0.6,2.6,0,0.299984,-0.00403801,0
0.6,2.7,0,0.299968,-0.00403213,0
0.6,2.8,0,0.299951,-0.00401911,0
0.6,2.9,0,0.299935,-0.00400015,0
0.6,3,0,0.299908,-0.00397925,0
0.6,3.1,0,0.299891,-0.00394067,0
0.6,3.2,0,0.299865,-0.00390471,0
0.6,3.3,0,0.299839,-0.00385482,0
0.6,3.4,0,0.299821,-0.00379972,0
0.6,3.5,0,0.299778,-0.00373846,0
0.6,3.6,0,0.299763,-0.00365339,0
0.6,3.7,0,0.299727,-0.00357576,0
0.6,3.8,0,0.299695,-0.00347685,0
0.6,3.9,0,0.299679,-0.00337579,0
0.6,4,0,0.29962,-0.00326299,0
0.6,4.1,0,0.299613,-0.00312347,0
0.6,4.2,0,0.29957,-0.00299723,0
0.6,4.3,0,0.299538,-0.00284357,0
0.6,4.4,0,0.299529,-0.00269363,0
0.6,4.5,0,0.299461,-0.00252604,0
0.6,4.6,0,0.29947,-0.00233416,0
0.6,4.7,0,0.299427,-0.00216244,0
0.6,4.8,0,0.299403,-0.00196066,0
0.6,4.9,0,0.299408,-0.00178365,0
0.6,5,0,0.299347,-0.00163721,0
0.6,5.1,0,0.299325,-0.00134602,0
0.6,5.2,0,0.299312,-0.00112541,0
0.6,5.3,0,0.299302,-0.000900794,0
0.6,5.4,0,0.299296,-0.000673486,0
0.6,5.5,0,0.299293,-0.000444556,0
0.6,5.6,0,0.299293,-0.000215137,0
0.6,5.7,0,0.299297,1.36154e-05,0
0.6,5.8,0,0.299304,0.000240628,0
0.6,5.9,0,0.299314,0.000464557,0
0.6,6,0,0.299335,0.000803733,0
0.6,6.1,0,0.299381,0.000947346,0
0.6,6.2,0,0.299404,0.00108808,0
0.6,6.3,0,0.299395,0.00129615,0
0.6,6.4,0,0.29943,0.00149663,0
0.6,6.5,0,0.299475,0.00167802,0
0.6,6.6,0,0.299484,0.00184654,0
0.6,6.7,0,0.299503,0.00202125,0
0.6,6.8,0,0.299561,0.00218458,0
0.6,6.9,0,0.299581,0.00231509,0
0.6,7,0,0.299592,0.00245964,0
0.6,7.1,0,0.299644,0.00258728,0
0.6,7.2,0,0.299678,0.00269402,0
0.6,7.3,0,0.299695,0.00280136,0
0.6,7.4,0,0.299729,0.00289901,0
0.6,7.5,0,0.299769,0.00298327,0
0.6,7.6,0,0.299789,0.00305383,0
0.6,7.7,0,0.299812,0.00312344,0
0.6,7.8,0,0.299851,0.00318101,0
0.6,7.9,0,0.299871,0.00322398,0
0.6,8,0,0.299889,0.00326701,0
0.6,8.1,0,0.299917,0.00329765,0
0.6,8.2,0,0.299938,0.00332152,0
0.6,8.3,0,0.299956,0.00333935,0
0.6,8.4,0,0.299976,0.00335082,0
0.6,8.5,0,0.299994,0.00335643,0
0.6,8.6,0,0.300008,0.00335637,0
0.6,8.7,0,0.300023,0.00335238,0
0.6,8.8,0,0.300036,0.00334148,0
0.6,8.9,0,0.300046,0.00332987,0
0.6,9,0,0.300059,0.00331302,0
0.6,9.1,0,0.300067,0.00329084,0
0.6,9.2,0,0.300072,0.0032697,0
0.6,9.3,0,0.300082,0.00324423,0
0.6,9.4,0,0.300088,0.00321543,0
0.6,9.5,0,0.30009,0.00318548,0
0.6,9.6,0,0.300095,0.00315693,0
0.6,9.7,0,0.300102,0.00312407,0
0.6,9.8,0,0.3001,0.003089,0
0.6,9.9,0,0.300101,0.00305897,0
0.6,10,0,0.300107,0.00302395,0
0.6,10.1,0,0.300104,0.00298793,0
0.6,10.2,0,0.300102,0.00295538,0
0.6,10.3,0,0.300105,0.0029218,0
0.6,10.4,0,0.300104,0.00288668,0
0.6,10.5,0,0.300097,0.00285234,0
0.6,10.6,0,0.300097,0.00282266,0
0.6,10.7,0,0.300098,0.00278967,0
0.6,10.8,0,0.30009,0.00275718,0
0.6,10.9,0,0.300087,0.00273021,0
0.6,11,0,0.300088,0.00270065,0
0.6,11.1,0,0.300081,0.00267192,0
0.6,11.2,0,0.300075,0.00264642,0
0.6,11.3,0,0.300074,0.00262238,0
0.6,11.4,0,0.30007,0.00259798,0
0.6,11.5,0,0.300062,0.00257485,0
0.6,11.6,0,0.300059,0.00255668,0
0.6,11.7,0,0.300056,0.00253705,0
0.6,11.8,0,0.300048,0.00251912,0
0.6,11.9,0,0.300044,0.00250488,0
0.6,12,0,0.30004,0.00249096,0
0.6,12.1,0,0.300034,0.00247843,0
0.6,12.2,0,0.300028,0.00246797,0
0.6,12.3,0,0.300024,0.00246009,0
0.6,12.4,0,0.300019,0.00245297,0
0.6,12.5,0,0.300012,0.00244729,0
0.6,12.6,0,0.300011,0.00244512,0
0.6,12.7,0,0.300012,0.00244398,0
0.7,0,0,0.300015,-0.00430278,0
0.7,0.1,0,0.300017,-0.00430635,0
0.7,0.2,0,0.300021,-0.00431017,0
0.7,0.3,0,0.300027,-0.00431621,0
0.7,0.4,0,0.300035,-0.00432699,0
0.7,0.5,0,0.300044,-0.00433653,0
0.7,0.6,0,0.30005,-0.0043519,0
0.7,0.7,0,0.300058,-0.00436862,0
0.7,0.8,0,0.300063,-0.0043843,0
0.7,0.9,0,0.300069,-0.00440606,0
0.7,1,0,0.300076,-0.00442561,0
0.7,1.1,0,0.300077,-0.00444887,0
0.7,1.2,0,0.300081,-0.00447434,0
0.7,1.3,0,0.300083,-0.00449579,0
0.7,1.4,0,0.300085,-0.00452319,0
0.7,1.5,0,0.300087,-0.00454782,0
0.7,1.6,0,0.300083,-0.00457248,0
0.7,1.7,0,0.30008,-0.00459961,0
0.7,1.8,0,0.300077,-0.00462016,0
0.7,1.9,0,0.30007,-0.00464435,0
0.7,2,0,0.300065,-0.00466591,0
0.7,2.1,0,0.300054,-0.00468216,0
0.7,2.2,0,0.300042,-0.00470025,0
0.7,2.3,0,0.300032,-0.00471025,0
0.7,2.4,0,0.300014,-0.00471864,0
0.7,2.5,0,0.299999,-0.00472562,0
0.7,2.6,0,0.29998,-0.00472038,0
0.7,2.7,0,0.299956,-0.0047151,0
0.7,2.8,0,0.299938,-0.00470207,0
0.7,2.9,0,0.299908,-0.00467885,0
0.7,3,0,0.29988,-0.0046568,0
0.7,3.1,0,0.299853,-0.00461477,0
0.7,3.2,0,0.299816,-0.0045693,0
0.7,3.3,0,0.29979,-0.0045194,0
0.7,3.4,0,0.299748,-0.00444755,0
0.7,3.5,0,0.299706,-0.004381,0
0.7,3.6,0,0.299675,-0.00428756,0
0.7,3.7,0,0.299629,-0.00418576,0
0.7,3.8,0,0.299597,-0.00408685,0
0.7,3.9,0,0.299549,-0.0039525,0
0.7,4,0,0.299495,-0.00382893,0
0.7,4.1,0,0.299467,-0.0036751,0
0.7,4.2,0,0.299417,-0.00350698,0
0.7,4.3,0,0.299386,-0.00335331,0
0.7,4.4,0,0.299339,-0.00315201,0
0.7,4.5,0,0.299282,-0.00296756,0
0.7,4.6,0,0.299266,-0.00275599,0
0.7,4.7,0,0.299225,-0.00252473,0
0.7,4.8,0,0.299201,-0.00232295,0
0.7,4.9,0,0.299173,-0.00210622,0
0.7,5,0,0.299129,-0.00192463,0
0.7,5.1,0,0.299098,-0.00158246,0
0.7,5.2,0,0.299081,-0.00132324,0
0.7,5.3,0,0.299068,-0.00105922,0
0.7,5.4,0,0.299059,-0.000791979,0
0.7,5.5,0,0.299055,-0.000522798,0
0.7,5.6,0,0.299055,-0.000253034,0
0.7,5.7,0,0.29906,1.59378e-05,0
0.7,5.8,0,0.29907,0.000282823,0
0.7,5.9,0,0.299084,0.000546015,0
0.7,6,0,0.299113,0.000944795,0
0.7,6.1,0,0.299152,0.00111135,0
0.7,6.2,0,0.299178,0.00132448,0
0.7,6.3,0,0.299194,0.00153621,0
0.7,6.4,0,0.299228,0.00173669,0
0.7,6.5,0,0.29927,0.00196285,0
0.7,6.6,0,0.299312,0.00218963,0
0.7,6.7,0,0.299333,0.00236577,0
0.7,6.8,0,0.299384,0.002543,0
0.7,6.9,0,0.299432,0.00272839,0
0.7,7,0,0.299457,0.00288845,0
0.7,7.1,0,0.299508,0.00302009,0
0.7,7.2,0,0.299556,0.00316108,0
0.7,7.3,0,0.299596,0.00329322,0
0.7,7.4,0,0.299631,0.00339087,0
0.7,7.5,0,0.299677,0.00348845,0
0.7,7.6,0,0.299722,0.00358656,0
0.7,7.7,0,0.299748,0.00365812,0
0.7,7.8,0,0.299787,0.00371689,0
0.7,7.9,0,0.299826,0.00377651,0
0.7,8,0,0.299854,0.00382668,0
0.7,8.1,0,0.299883,0.00385686,0
0.7,8.2,0,0.299915,0.00388411,0
0.7,8.3,0,0.299945,0.00390925,0
0.7,8.4,0,0.299964,0.00392071,0
0.7,8.5,0,0.299989,0.0039229,0
0.7,8.6,0,0.300014,0.00392451,0
0.7,8.7,0,0.30003,0.00392102,0