/*--------------------------------*- C++ -*----------------------------------*\
| =========                 |                                                 |
| \\      /  F ield         | OpenFOAM: The Open Source CFD Toolbox           |
|  \\    /   O peration     | Version:  v1806                                 |
|   \\  /    A nd           | Web:      www.OpenFOAM.com                      |
|    \\/     M anipulation  |                                                 |
\*---------------------------------------------------------------------------*/
FoamFile
{
    version     2.0;
    format      ascii;
    class       volVectorField;
    location    "270";
    object      U;
}
// * * * * * * * * * * * * * * * * * * * * * * * * * * * * * * * * * * * * * //

dimensions      [0 1 -1 0 0 0 0];


internalField   nonuniform List<vector> 
2400
(
(0.3 -0.00264895 0)
(0.300012 -0.00794056 0)
(0.300037 -0.0132076 0)
(0.30008 -0.0184308 0)
(0.300145 -0.0235904 0)
(0.300236 -0.0286653 0)
(0.30036 -0.0336329 0)
(0.300524 -0.0384685 0)
(0.300735 -0.0431456 0)
(0.301001 -0.0476358 0)
(0.301334 -0.0519095 0)
(0.301741 -0.0559363 0)
(0.302233 -0.0596857 0)
(0.30282 -0.063128 0)
(0.303511 -0.0662354 0)
(0.304311 -0.0689834 0)
(0.305228 -0.0713511 0)
(0.306262 -0.073324 0)
(0.307415 -0.0748917 0)
(0.308679 -0.076055 0)
(0.300001 -0.00265834 0)
(0.300029 -0.00796969 0)
(0.300087 -0.0132594 0)
(0.300178 -0.01851 0)
(0.300307 -0.0237029 0)
(0.300481 -0.0288187 0)
(0.300707 -0.0338361 0)
(0.300996 -0.038732 0)
(0.301357 -0.0434811 0)
(0.301803 -0.0480563 0)
(0.302345 -0.0524288 0)
(0.302994 -0.0565684 0)
(0.303763 -0.0604446 0)
(0.30466 -0.0640267 0)
(0.305693 -0.0672853 0)
(0.306866 -0.0701928 0)
(0.308181 -0.0727255 0)
(0.309633 -0.0748643 0)
(0.311217 -0.0765947 0)
(0.312917 -0.077913 0)
(0.300002 -0.00267643 0)
(0.300047 -0.00802488 0)
(0.300137 -0.0133546 0)
(0.300278 -0.0186502 0)
(0.300475 -0.023895 0)
(0.300737 -0.0290713 0)
(0.301073 -0.0341591 0)
(0.301496 -0.0391368 0)
(0.302018 -0.0439798 0)
(0.302654 -0.0486616 0)
(0.303417 -0.0531531 0)
(0.30432 -0.0574233 0)
(0.305375 -0.06144 0)
(0.306592 -0.0651695 0)
(0.307978 -0.0685797 0)
(0.309532 -0.0716381 0)
(0.311255 -0.0743172 0)
(0.313133 -0.0765912 0)
(0.315158 -0.0784433 0)
(0.317302 -0.0798603 0)
(0.300003 -0.0027023 0)
(0.300062 -0.00810349 0)
(0.300181 -0.0134892 0)
(0.300367 -0.0188466 0)
(0.300626 -0.0241613 0)
(0.300969 -0.0294179 0)
(0.301407 -0.0345979 0)
(0.301956 -0.0396817 0)
(0.30263 -0.0446451 0)
(0.303446 -0.0494626 0)
(0.304421 -0.054104 0)
(0.30557 -0.0585376 0)
(0.306907 -0.0627284 0)
(0.308441 -0.0666396 0)
(0.31018 -0.0702346 0)
(0.31212 -0.073475 0)
(0.31426 -0.0763282 0)
(0.316579 -0.0787606 0)
(0.319065 -0.0807511 0)
(0.321675 -0.0822791 0)
(0.300004 -0.00273473 0)
(0.300074 -0.00820201 0)
(0.300218 -0.0136577 0)
(0.300442 -0.0190923 0)
(0.300754 -0.0244939 0)
(0.301166 -0.0298502 0)
(0.301694 -0.0351444 0)
(0.302354 -0.0403593 0)
(0.303165 -0.0454709 0)
(0.304148 -0.0504554 0)
(0.305322 -0.0552805 0)
(0.306706 -0.0599141 0)
(0.308317 -0.0643169 0)
(0.310165 -0.0684485 0)
(0.312258 -0.0722659 0)
(0.314594 -0.0757234 0)
(0.317165 -0.0787814 0)
(0.319947 -0.0813958 0)
(0.322921 -0.0835404 0)
(0.32603 -0.0851835 0)
(0.300004 -0.00277233 0)
(0.300084 -0.0083163 0)
(0.300246 -0.0138534 0)
(0.300498 -0.019378 0)
(0.300851 -0.0248812 0)
(0.301319 -0.0303547 0)
(0.301919 -0.0357832 0)
(0.302673 -0.0411536 0)
(0.303603 -0.0464405 0)
(0.304734 -0.0516244 0)
(0.306091 -0.0566678 0)
(0.307695 -0.0615415 0)
(0.309569 -0.0661975 0)
(0.311726 -0.0705939 0)
(0.314177 -0.0746775 0)
(0.316918 -0.0783943 0)
(0.319941 -0.0816951 0)
(0.323215 -0.0845221 0)
(0.326713 -0.0868419 0)
(0.330366 -0.0886084 0)
(0.300005 -0.00281337 0)
(0.30009 -0.00844118 0)
(0.300262 -0.0140676 0)
(0.300533 -0.019692 0)
(0.300912 -0.0253085 0)
(0.301417 -0.0309143 0)
(0.302069 -0.0364949 0)
(0.302894 -0.0420438 0)
(0.303919 -0.0475324 0)
(0.305175 -0.0529493 0)
(0.306691 -0.0582471 0)
(0.308496 -0.063406 0)
(0.31062 -0.0683605 0)
(0.313078 -0.0730751 0)
(0.315889 -0.0774764 0)
(0.319047 -0.0815055 0)
(0.322546 -0.0850978 0)
(0.326348 -0.0881771 0)
(0.330417 -0.090702 0)
(0.33467 -0.0926047 0)
(0.300005 -0.00285573 0)
(0.300091 -0.00857037 0)
(0.300265 -0.01429 0)
(0.30054 -0.0200199 0)
(0.300927 -0.0257575 0)
(0.301448 -0.0315076 0)
(0.302127 -0.0372551 0)
(0.302995 -0.0430044 0)
(0.304086 -0.048719 0)
(0.305435 -0.0544048 0)
(0.307081 -0.059993 0)
(0.309061 -0.0654896 0)
(0.311414 -0.0707911 0)
(0.314159 -0.0758904 0)
(0.317329 -0.0806682 0)
(0.320916 -0.0850787 0)
(0.324918 -0.089023 0)
(0.329294 -0.092408 0)
(0.333989 -0.0951796 0)
(0.338917 -0.0972369 0)
(0.300004 -0.00289694 0)
(0.300086 -0.0086964 0)
(0.300252 -0.014508 0)
(0.300514 -0.0203445 0)
(0.300889 -0.0262065 0)
(0.301399 -0.0321084 0)
(0.302074 -0.0380337 0)
(0.302951 -0.0440029 0)
(0.304068 -0.0499652 0)
(0.305471 -0.0559576 0)
(0.307209 -0.0618709 0)
(0.309326 -0.0677676 0)
(0.311879 -0.0734645 0)
(0.314889 -0.0790358 0)
(0.318414 -0.0842527 0)
(0.322435 -0.0891404 0)
(0.326975 -0.093509 0)
(0.331976 -0.0972737 0)
(0.337371 -0.10035 0)
(0.343068 -0.102587 0)
(0.300004 -0.00293407 0)
(0.300075 -0.00881047 0)
(0.30022 -0.0147072 0)
(0.300451 -0.0206452 0)
(0.300788 -0.0266291 0)
(0.301255 -0.0326852 0)
(0.301889 -0.0387939 0)
(0.302731 -0.0449986 0)
(0.303828 -0.0512262 0)
(0.305234 -0.057564 0)
(0.307013 -0.0638335 0)
(0.309216 -0.0702058 0)
(0.311927 -0.0763412 0)
(0.315162 -0.0825048 0)
(0.319035 -0.0882161 0)
(0.323482 -0.0937263 0)
(0.328605 -0.0985936 0)
(0.334283 -0.102852 0)
(0.340474 -0.106309 0)
(0.347067 -0.108761 0)
(0.300003 -0.00296374 0)
(0.300056 -0.00890237 0)
(0.300166 -0.0148705 0)
(0.300344 -0.0208982 0)
(0.300613 -0.0269947 0)
(0.301001 -0.0331998 0)
(0.301551 -0.0394915 0)
(0.302303 -0.0459406 0)
(0.303324 -0.0524464 0)
(0.304667 -0.0591662 0)
(0.306422 -0.065819 0)
(0.308639 -0.072755 0)
(0.311451 -0.079361 0)
(0.314851 -0.086286 0)
(0.319053 -0.0925185 0)
(0.323894 -0.0988904 0)
(0.329667 -0.104301 0)
(0.336055 -0.109256 0)
(0.343186 -0.113174 0)
(0.350833 -0.115902 0)
(0.300002 -0.00298213 0)
(0.300028 -0.00896055 0)
(0.300088 -0.0149786 0)
(0.300187 -0.0210757 0)
(0.300357 -0.0272675 0)
(0.30062 -0.0336075 0)
(0.301036 -0.0400738 0)
(0.301634 -0.0467664 0)
(0.302512 -0.0535578 0)
(0.303704 -0.0606873 0)
(0.305356 -0.0677491 0)
(0.307488 -0.0753411 0)
(0.310323 -0.0824416 0)
(0.313796 -0.090353 0)
(0.318287 -0.0970804 0)
(0.323455 -0.104716 0)
(0.329977 -0.110607 0)
(0.337054 -0.116674 0)
(0.34538 -0.121081 0)
(0.354249 -0.124221 0)
(0.3 -0.00298504 0)
(0.299992 -0.00897229 0)
(0.299983 -0.0150101 0)
(0.299977 -0.021147 0)
(0.300011 -0.0274074 0)
(0.3001 -0.0338568 0)
(0.300324 -0.0404798 0)
(0.30069 -0.0474004 0)
(0.301349 -0.0544787 0)
(0.302277 -0.0620263 0)
(0.303737 -0.0695286 0)
(0.305638 -0.0778496 0)
(0.308402 -0.085484 0)
(0.311801 -0.0946363 0)
(0.316512 -0.101785 0)
(0.321904 -0.11131 0)
(0.32927 -0.117392 0)
(0.336926 -0.125438 0)
(0.34695 -0.130144 0)
(0.357088 -0.134077 0)
(0.299998 -0.00296796 0)
(0.299946 -0.00892398 0)
(0.29985 -0.0149418 0)
(0.299708 -0.0210788 0)
(0.299568 -0.0273697 0)
(0.299428 -0.0338904 0)
(0.299398 -0.0406393 0)
(0.299445 -0.0477548 0)
(0.299795 -0.0551107 0)
(0.300322 -0.0630563 0)
(0.301484 -0.0710403 0)
(0.30295 -0.0801099 0)
(0.305545 -0.0883815 0)
(0.30862 -0.098966 0)
(0.313469 -0.106525 0)
(0.318917 -0.118732 0)
(0.32713 -0.12441 0)
(0.335245 -0.136119 0)
(0.347762 -0.140293 0)
(0.358788 -0.146121 0)
(0.299995 -0.00292624 0)
(0.29989 -0.0088016 0)
(0.299688 -0.0147498 0)
(0.299382 -0.0208363 0)
(0.299025 -0.0271072 0)
(0.298603 -0.033647 0)
(0.298247 -0.0404741 0)
(0.297883 -0.0477321 0)
(0.297817 -0.0553364 0)
(0.297792 -0.0636284 0)
(0.298518 -0.0721314 0)
(0.299292 -0.0818947 0)
(0.301607 -0.0910053 0)
(0.303949 -0.103012 0)
(0.308912 -0.111292 0)
(0.314032 -0.126781 0)
(0.322987 -0.131474 0)
(0.331666 -0.149506 0)
(0.347234 -0.150958 0)
(0.358326 -0.161622 0)
(0.299992 -0.00285534 0)
(0.299824 -0.00859137 0)
(0.299499 -0.0144101 0)
(0.299001 -0.0203846 0)
(0.298384 -0.0265717 0)
(0.297629 -0.0330638 0)
(0.29687 -0.0399009 0)
(0.296009 -0.0472291 0)
(0.295394 -0.0550193 0)
(0.294677 -0.0635791 0)
(0.294763 -0.072595 0)
(0.294588 -0.0829422 0)
(0.29641 -0.0931316 0)
(0.297483 -0.106307 0)
(0.302593 -0.116164 0)
(0.306484 -0.134698 0)
(0.316395 -0.139008 0)
(0.325708 -0.166054 0)
(0.343627 -0.16092 0)
(0.355346 -0.183464 0)
(0.299988 -0.00275109 0)
(0.299751 -0.00828052 0)
(0.299284 -0.0139008 0)
(0.29857 -0.0196909 0)
(0.297655 -0.0257174 0)
(0.296519 -0.0320797 0)
(0.29528 -0.0388374 0)
(0.293848 -0.0461408 0)
(0.292536 -0.0540134 0)
(0.291008 -0.0627356 0)
(0.290171 -0.0721692 0)
(0.288857 -0.0829798 0)
(0.289715 -0.0943362 0)
(0.289083 -0.108376 0)
(0.294042 -0.120931 0)
(0.295352 -0.141242 0)
(0.307181 -0.148592 0)
(0.315478 -0.184239 0)
(0.334914 -0.170091 0)
(0.352424 -0.217634 0)
(0.299984 -0.00261002 0)
(0.299672 -0.00785839 0)
(0.299049 -0.0132032 0)
(0.2981 -0.0187272 0)
(0.296854 -0.0245049 0)
(0.2953 -0.0306401 0)
(0.293516 -0.0372095 0)
(0.291444 -0.0443678 0)
(0.289299 -0.0521803 0)
(0.286855 -0.0609199 0)
(0.284784 -0.0705758 0)
(0.282203 -0.081709 0)
(0.281353 -0.0939995 0)
(0.278874 -0.1088 0)
(0.282336 -0.124435 0)
(0.28022 -0.14552 0)
(0.294165 -0.161344 0)
(0.297109 -0.199502 0)
(0.322437 -0.186258 0)
(0.350796 -0.270994 0)
(0.299979 -0.0024296 0)
(0.299588 -0.00731732 0)
(0.298802 -0.012304 0)
(0.297603 -0.0174731 0)
(0.296007 -0.0229045 0)
(0.294005 -0.0287029 0)
(0.291634 -0.0349589 0)
(0.288863 -0.0418263 0)
(0.285795 -0.0494057 0)
(0.282327 -0.0579621 0)
(0.278792 -0.0675756 0)
(0.27478 -0.0787795 0)
(0.271509 -0.0915122 0)
(0.267118 -0.106968 0)
(0.266717 -0.124671 0)
(0.261485 -0.147129 0)
(0.273238 -0.172897 0)
(0.26766 -0.208883 0)
(0.305763 -0.22841 0)
(0.334346 -0.332796 0)
(0.299975 -0.00220808 0)
(0.299502 -0.00665204 0)
(0.298551 -0.0111939 0)
(0.297098 -0.0159142 0)
(0.295145 -0.0208951 0)
(0.29268 -0.0262379 0)
(0.289708 -0.0320419 0)
(0.286201 -0.0384529 0)
(0.282176 -0.0455993 0)
(0.277587 -0.0537228 0)
(0.272509 -0.062982 0)
(0.266834 -0.0738478 0)
(0.260859 -0.0864517 0)
(0.25412 -0.101925 0)
(0.248171 -0.120099 0)
(0.239815 -0.144088 0)
(0.23995 -0.173736 0)
(0.225806 -0.213426 0)
(0.264338 -0.282435 0)
(0.262586 -0.354272 0)
(0.310184 -0.0768907 0)
(0.311969 -0.077254 0)
(0.313876 -0.0770773 0)
(0.315878 -0.07644 0)
(0.317938 -0.0753411 0)
(0.320051 -0.0739228 0)
(0.322161 -0.072113 0)
(0.324299 -0.0701522 0)
(0.326381 -0.0678072 0)
(0.32849 -0.0655075 0)
(0.314905 -0.0789014 0)
(0.317188 -0.0794004 0)
(0.319559 -0.0793363 0)
(0.321971 -0.0787799 0)
(0.324394 -0.0777365 0)
(0.326799 -0.0763403 0)
(0.329151 -0.0745338 0)
(0.331464 -0.0725506 0)
(0.333672 -0.0701712 0)
(0.335858 -0.0678378 0)
(0.319778 -0.080939 0)
(0.322569 -0.0815029 0)
(0.325427 -0.0814704 0)
(0.328273 -0.0809069 0)
(0.331095 -0.0798344 0)
(0.333825 -0.078381 0)
(0.336476 -0.0765151 0)
(0.339006 -0.0744509 0)
(0.341435 -0.0720087 0)
(0.343758 -0.0695718 0)
(0.324667 -0.0834494 0)
(0.327998 -0.0840621 0)
(0.331374 -0.0840365 0)
(0.334679 -0.0834323 0)
(0.33792 -0.0822944 0)
(0.340984 -0.0807448 0)
(0.343943 -0.0787827 0)
(0.346687 -0.076604 0)
(0.349342 -0.0740649 0)
(0.351783 -0.0715197 0)
(0.329578 -0.0864382 0)
(0.333492 -0.0870753 0)
(0.337426 -0.08702 0)
(0.341218 -0.0863261 0)
(0.344899 -0.0850723 0)
(0.348302 -0.0833717 0)
(0.351571 -0.0812695 0)
(0.354515 -0.0789302 0)
(0.357387 -0.0762689 0)
(0.359923 -0.0735781 0)
(0.334519 -0.0899424 0)
(0.339071 -0.0905775 0)
(0.343609 -0.0904495 0)
(0.347921 -0.0896072 0)
(0.352061 -0.0881769 0)
(0.355803 -0.086262 0)
(0.359373 -0.083969 0)
(0.362496 -0.0814179 0)
(0.365567 -0.0786031 0)
(0.368164 -0.0757294 0)
(0.33949 -0.0940136 0)
(0.344751 -0.094615 0)
(0.349949 -0.0943593 0)
(0.354823 -0.0932946 0)
(0.359432 -0.0916133 0)
(0.363507 -0.0894089 0)
(0.367358 -0.0868665 0)
(0.370627 -0.0840451 0)
(0.373866 -0.0810433 0)
(0.376478 -0.077946 0)
(0.344485 -0.0987171 0)
(0.350548 -0.0992448 0)
(0.356473 -0.0987875 0)
(0.361956 -0.0974054 0)
(0.367036 -0.0953795 0)
(0.371433 -0.0927975 0)
(0.375525 -0.089937 0)
(0.378902 -0.0867796 0)
(0.382251 -0.083553 0)
(0.384812 -0.080185 0)
(0.349488 -0.104139 0)
(0.356479 -0.10454 0)
(0.363212 -0.103777 0)
(0.369361 -0.101953 0)
(0.374895 -0.0994655 0)
(0.3796 -0.0964033 0)
(0.383867 -0.0931427 0)
(0.3873 -0.0895738 0)
(0.390651 -0.0860714 0)
(0.393045 -0.0823722 0)
(0.354478 -0.110397 0)
(0.362566 -0.110592 0)
(0.37021 -0.109377 0)
(0.37709 -0.106946 0)
(0.383043 -0.103854 0)
(0.38804 -0.10019 0)
(0.392357 -0.0964241 0)
(0.395751 -0.092343 0)
(0.398847 -0.0884762 0)
(0.40084 -0.0843495 0)
(0.359425 -0.117647 0)
(0.368841 -0.117517 0)
(0.377547 -0.115641 0)
(0.38523 -0.112399 0)
(0.391549 -0.108526 0)
(0.396765 -0.104096 0)
(0.400858 -0.0996604 0)
(0.403934 -0.0948928 0)
(0.406171 -0.0904859 0)
(0.407236 -0.0857481 0)
(0.364284 -0.126104 0)
(0.375375 -0.125452 0)
(0.38539 -0.122642 0)
(0.39394 -0.118332 0)
(0.400473 -0.113426 0)
(0.40556 -0.107942 0)
(0.408744 -0.102526 0)
(0.41068 -0.096727 0)
(0.410809 -0.0914521 0)
(0.409833 -0.0857667 0)
(0.369014 -0.136067 0)
(0.382405 -0.134593 0)
(0.394089 -0.130469 0)
(0.403346 -0.12469 0)
(0.409439 -0.118257 0)
(0.413205 -0.111141 0)
(0.413865 -0.104133 0)
(0.412765 -0.0966944 0)
(0.408638 -0.0900567 0)
(0.403664 -0.08294 0)
(0.373844 -0.148043 0)
(0.390617 -0.145275 0)
(0.403999 -0.139085 0)
(0.412696 -0.130933 0)
(0.416176 -0.121891 0)
(0.415697 -0.112064 0)
(0.410723 -0.102476 0)
(0.403335 -0.0926383 0)
(0.392117 -0.084144 0)
(0.38059 -0.0752051 0)
(0.380077 -0.163012 0)
(0.400955 -0.157934 0)
(0.413873 -0.147679 0)
(0.417746 -0.135038 0)
(0.413613 -0.121389 0)
(0.40378 -0.107363 0)
(0.388774 -0.0941957 0)
(0.371372 -0.0815902 0)
(0.350799 -0.0712028 0)
(0.331049 -0.0607369 0)
(0.390429 -0.182255 0)
(0.411527 -0.17201 0)
(0.416353 -0.15287 0)
(0.406509 -0.131995 0)
(0.387107 -0.111362 0)
(0.362158 -0.0922346 0)
(0.333771 -0.0756137 0)
(0.305146 -0.0612296 0)
(0.276326 -0.0501306 0)
(0.25062 -0.0399588 0)
(0.404226 -0.204184 0)
(0.409358 -0.181298 0)
(0.392513 -0.145476 0)
(0.357357 -0.113375 0)
(0.316676 -0.0854978 0)
(0.275546 -0.0630956 0)
(0.237061 -0.0460629 0)
(0.203519 -0.0334337 0)
(0.174433 -0.0248484 0)
(0.151171 -0.0183522 0)
(0.40527 -0.214043 0)
(0.363033 -0.168506 0)
(0.313159 -0.110691 0)
(0.247668 -0.0717676 0)
(0.1931 -0.0426954 0)
(0.149076 -0.0248945 0)
(0.116433 -0.0147565 0)
(0.0929399 -0.0091702 0)
(0.0754154 -0.00614127 0)
(0.062774 -0.00461805 0)
(0.355493 -0.17519 0)
(0.228892 -0.110533 0)
(0.161108 -0.035641 0)
(0.089234 -0.0136361 0)
(0.0567548 -0.00172089 0)
(0.0353254 -0.000246363 0)
(0.0236139 0.000370823 0)
(0.016265 0.00060668 0)
(0.0113221 0.000748775 0)
(0.00790126 3.15837e-06 0)
(0.208491 -0.133876 0)
(-0.00251 -0.035685 0)
(0.00544492 0.0111289 0)
(-0.0210925 0.00427829 0)
(-0.0118135 0.00432149 0)
(-0.0136103 0.00189001 0)
(-0.011918 0.00132096 0)
(-0.0110548 0.0010258 0)
(-0.00993179 0.000787477 0)
(-0.00970227 -0.000517423 0)
(0.332344 -0.0600672 0)
(0.338045 -0.0517803 0)
(0.342977 -0.0419009 0)
(0.34741 -0.0313947 0)
(0.351308 -0.0196605 0)
(0.354132 -0.00629012 0)
(0.356569 0.00684028 0)
(0.357617 0.0213341 0)
(0.358413 0.0325707 0)
(0.357871 0.0440276 0)
(0.357958 0.0471563 0)
(0.35654 0.0491483 0)
(0.356438 0.038649 0)
(0.3544 0.0294965 0)
(0.354773 0.00532002 0)
(0.352971 -0.00749023 0)
(0.353173 -0.0406551 0)
(0.356651 -0.0409004 0)
(0.355272 -0.0666175 0)
(0.364098 -0.0552552 0)
(0.339864 -0.0622559 0)
(0.345486 -0.0537483 0)
(0.350202 -0.0436075 0)
(0.354359 -0.0328656 0)
(0.357812 -0.0208177 0)
(0.35998 -0.00721459 0)
(0.361573 0.00628818 0)
(0.361461 0.0211319 0)
(0.360972 0.0326613 0)
(0.359139 0.0441776 0)
(0.35812 0.0474456 0)
(0.355857 0.0493413 0)
(0.355075 0.0390517 0)
(0.352593 0.0296194 0)
(0.352634 0.00573437 0)
(0.350744 -0.0073471 0)
(0.35101 -0.0413363 0)
(0.355775 -0.0410697 0)
(0.35364 -0.0683249 0)
(0.36446 -0.0567097 0)
(0.34809 -0.063891 0)
(0.35391 -0.0552397 0)
(0.358836 -0.0449204 0)
(0.363132 -0.0339786 0)
(0.3666 -0.0216241 0)
(0.368529 -0.00766011 0)
(0.369523 0.00624049 0)
(0.36828 0.0213874 0)
(0.366224 0.0332424 0)
(0.362484 0.0447789 0)
(0.359599 0.0482048 0)
(0.355691 0.0498593 0)
(0.353607 0.0398149 0)
(0.350214 0.0298489 0)
(0.349539 0.00629385 0)
(0.347769 -0.00738611 0)
(0.347495 -0.0421553 0)
(0.354018 -0.041238 0)
(0.350026 -0.0701418 0)
(0.362692 -0.0579818 0)
(0.356472 -0.0656893 0)
(0.362462 -0.056812 0)
(0.367709 -0.046291 0)
(0.372246 -0.0351129 0)
(0.375924 -0.0224011 0)
(0.377885 -0.00803999 0)
(0.378606 0.00638899 0)
(0.376599 0.0220166 0)
(0.373204 0.0343625 0)
(0.367564 0.0459688 0)
(0.36253 0.0495778 0)
(0.356535 0.0508388 0)
(0.352622 0.041022 0)
(0.348045 0.0302622 0)
(0.345988 0.0070947 0)
(0.344683 -0.00746054 0)
(0.342625 -0.0429694 0)
(0.350928 -0.0412146 0)
(0.343663 -0.0719489 0)
(0.357649 -0.0592687 0)
(0.364958 -0.06758 0)
(0.37103 -0.0584593 0)
(0.376613 -0.0477584 0)
(0.381311 -0.0363307 0)
(0.385165 -0.0232389 0)
(0.387161 -0.00843855 0)
(0.387716 0.00663398 0)
(0.385201 0.0228929 0)
(0.38076 0.0359216 0)
(0.373496 0.0477182 0)
(0.366349 0.0515998 0)
(0.358193 0.0523816 0)
(0.35206 0.0427712 0)
(0.346223 0.0310123 0)
(0.341937 0.00821786 0)
(0.341374 -0.00742294 0)
(0.335919 -0.0435134 0)
(0.345653 -0.0408337 0)
(0.333551 -0.0734848 0)
(0.348482 -0.0605143 0)
(0.373508 -0.069547 0)
(0.379552 -0.0601639 0)
(0.385406 -0.0492959 0)
(0.390034 -0.0375916 0)
(0.39386 -0.0241029 0)
(0.395699 -0.00882617 0)
(0.39603 0.00696165 0)
(0.393109 0.0239541 0)
(0.387845 0.0378272 0)
(0.379276 0.0499585 0)
(0.370196 0.0542343 0)
(0.360022 0.0545326 0)
(0.35143 0.0451041 0)
(0.344337 0.0322332 0)
(0.337003 0.00974923 0)
(0.337187 -0.00708099 0)
(0.326656 -0.0434341 0)
(0.337111 -0.039847 0)
(0.318766 -0.074471 0)
(0.334712 -0.0616774 0)
(0.382057 -0.0715654 0)
(0.387903 -0.0618928 0)
(0.393781 -0.0508426 0)
(0.397863 -0.038809 0)
(0.401243 -0.0249091 0)
(0.402554 -0.00914143 0)
(0.402531 0.00738428 0)
(0.399258 0.0251661 0)
(0.393409 0.0400003 0)
(0.383853 0.0526163 0)
(0.373115 0.0574118 0)
(0.361142 0.0572935 0)
(0.350024 0.0480262 0)
(0.341618 0.0340392 0)
(0.33064 0.0118066 0)
(0.331104 -0.00616894 0)
(0.314039 -0.0423623 0)
(0.324192 -0.0379771 0)
(0.298785 -0.0747601 0)
(0.316416 -0.0628213 0)
(0.390487 -0.0735891 0)
(0.395766 -0.0635627 0)
(0.401038 -0.0522582 0)
(0.403717 -0.039816 0)
(0.405955 -0.0255143 0)
(0.406207 -0.00929498 0)
(0.405708 0.0079178 0)
(0.402208 0.0264865 0)
(0.396176 0.0423508 0)
(0.386038 0.0556007 0)
(0.374071 0.0610404 0)
(0.360545 0.0606369 0)
(0.347033 0.0515322 0)
(0.337118 0.0365261 0)
(0.322234 0.014541 0)
(0.321924 -0.00437432 0)
(0.297329 -0.0399686 0)
(0.306044 -0.0350121 0)
(0.273781 -0.0744177 0)
(0.294306 -0.0641227 0)
(0.398493 -0.0755136 0)
(0.40236 -0.0649753 0)
(0.40576 -0.0532631 0)
(0.405705 -0.0403323 0)
(0.405839 -0.0257075 0)
(0.404435 -0.00918281 0)
(0.403461 0.00854751 0)
(0.400059 0.0278212 0)
(0.394535 0.0447387 0)
(0.384423 0.0587739 0)
(0.371907 0.0649938 0)
(0.357133 0.0645016 0)
(0.341587 0.0556059 0)
(0.329851 0.0397642 0)
(0.311114 0.01813 0)
(0.308473 -0.00141461 0)
(0.275996 -0.036031 0)
(0.282414 -0.0309096 0)
(0.244739 -0.0737426 0)
(0.269574 -0.065839 0)
(0.405262 -0.0770851 0)
(0.405996 -0.0657227 0)
(0.405447 -0.0533898 0)
(0.400955 -0.0399671 0)
(0.397957 -0.0252426 0)
(0.394471 -0.00872671 0)
(0.393318 0.00919659 0)
(0.390639 0.0289931 0)
(0.386657 0.0469412 0)
(0.377453 0.0619232 0)
(0.365365 0.0690916 0)
(0.349775 0.0687792 0)
(0.332788 0.0602051 0)
(0.318906 0.0437937 0)
(0.296547 0.0227685 0)
(0.28983 0.00306815 0)
(0.249927 -0.0305127 0)
(0.253906 -0.0258741 0)
(0.213261 -0.0731972 0)
(0.24351 -0.0682335 0)
(0.408861 -0.0777479 0)
(0.403567 -0.0651056 0)
(0.396376 -0.0520032 0)
(0.385842 -0.0382989 0)
(0.379096 -0.0239321 0)
(0.37365 -0.00795019 0)
(0.373065 0.00968678 0)
(0.372057 0.0297309 0)
(0.370904 0.04865 0)
(0.363709 0.064755 0)
(0.35326 0.0730929 0)
(0.337451 0.0733042 0)
(0.319808 0.0652462 0)
(0.303558 0.048631 0)
(0.277846 0.028624 0)
(0.265578 0.0092822 0)
(0.219578 -0.0236314 0)
(0.221976 -0.0203492 0)
(0.181111 -0.0732532 0)
(0.217101 -0.0714825 0)
(0.405441 -0.076492 0)
(0.390357 -0.0621703 0)
(0.374101 -0.0484639 0)
(0.356965 -0.0350608 0)
(0.346958 -0.0217899 0)
(0.340589 -0.00706345 0)
(0.341797 0.00971946 0)
(0.343545 0.0296963 0)
(0.346457 0.0495132 0)
(0.342356 0.0669303 0)
(0.334775 0.076719 0)
(0.319458 0.0778633 0)
(0.302044 0.0706038 0)
(0.283339 0.0542758 0)
(0.254491 0.0357892 0)
(0.236015 0.0171036 0)
(0.186104 -0.0158884 0)
(0.188582 -0.0149055 0)
(0.149764 -0.0742215 0)
(0.190892 -0.0756182 0)
(0.388798 -0.0718855 0)
(0.360841 -0.0560004 0)
(0.335064 -0.0424858 0)
(0.313012 -0.0304255 0)
(0.301869 -0.0191874 0)
(0.296545 -0.0064644 0)
(0.300899 0.00894898 0)
(0.306195 0.0285835 0)
(0.31388 0.0492359 0)
(0.313567 0.0681494 0)
(0.309769 0.0797075 0)
(0.29563 0.0822309 0)
(0.279265 0.0761371 0)
(0.258102 0.0607132 0)
(0.226394 0.0442202 0)
(0.202218 0.0262172 0)
(0.151182 -0.00798206 0)
(0.155665 -0.0100807 0)
(0.120323 -0.0761698 0)
(0.1652 -0.0805354 0)
(0.351373 -0.0625533 0)
(0.311136 -0.0463655 0)
(0.279328 -0.0346774 0)
(0.256886 -0.025325 0)
(0.248001 -0.0169671 0)
(0.245865 -0.00671344 0)
(0.254103 0.00710769 0)
(0.262933 0.0262642 0)
(0.275158 0.0477078 0)
(0.278617 0.0682586 0)
(0.278913 0.0818825 0)
(0.266437 0.0862248 0)
(0.251666 0.0817396 0)
(0.228077 0.067904 0)
(0.194108 0.0536698 0)
(0.165915 0.0360777 0)
(0.116669 -0.000655588 0)
(0.124793 -0.00628742 0)
(0.0938053 -0.0789707 0)
(0.14049 -0.0860304 0)
(0.28798 -0.0483007 0)
(0.243083 -0.0346496 0)
(0.213097 -0.0268829 0)
(0.196184 -0.0212619 0)
(0.192445 -0.0160289 0)
(0.194539 -0.00817555 0)
(0.206128 0.00417261 0)
(0.217488 0.0228858 0)
(0.23304 0.0450791 0)
(0.23951 0.0673146 0)
(0.243528 0.0832069 0)
(0.23287 0.0897518 0)
(0.219815 0.0873729 0)
(0.193946 0.0757521 0)
(0.158887 0.0636903 0)
(0.129155 0.046004 0)
(0.0843089 0.00546002 0)
(0.0971613 -0.00382492 0)
(0.0714489 -0.0824101 0)
(0.11762 -0.0918225 0)
(0.202613 -0.0317381 0)
(0.16752 -0.024124 0)
(0.147834 -0.0214174 0)
(0.140082 -0.0193462 0)
(0.141872 -0.0166395 0)
(0.147451 -0.0106662 0)
(0.160723 0.000507266 0)
(0.173035 0.0188548 0)
(0.190124 0.0417223 0)
(0.198386 0.0655616 0)
(0.205227 0.0837892 0)
(0.196189 0.0928317 0)
(0.184587 0.0930407 0)
(0.156907 0.0840411 0)
(0.122518 0.0736759 0)
(0.0939462 0.0553156 0)
(0.0556601 0.0098829 0)
(0.0737917 -0.00289749 0)
(0.0546919 -0.0862705 0)
(0.0978265 -0.0975782 0)
(0.113653 -0.0185259 0)
(0.100818 -0.0182586 0)
(0.0939092 -0.0193901 0)
(0.0942946 -0.0195403 0)
(0.0995604 -0.0183554 0)
(0.106765 -0.0136403 0)
(0.119736 -0.00325922 0)
(0.131472 0.0146959 0)
(0.148294 0.0380997 0)
(0.157065 0.0633421 0)
(0.165568 0.0838449 0)
(0.157689 0.0955743 0)
(0.147154 0.0987173 0)
(0.118629 0.0924011 0)
(0.0869967 0.0829423 0)
(0.062018 0.0634015 0)
(0.0321971 0.0122694 0)
(0.0556403 -0.00374256 0)
(0.0447987 -0.0903606 0)
(0.0825507 -0.103021 0)
(0.0446958 -0.0131667 0)
(0.0533153 -0.0178067 0)
(0.0546721 -0.0199811 0)
(0.0594005 -0.0209369 0)
(0.0654512 -0.0204452 0)
(0.0724229 -0.0165133 0)
(0.0835225 -0.00664342 0)
(0.0935589 0.0108608 0)
(0.108684 0.0346268 0)
(0.116888 0.0610033 0)
(0.125887 0.0836344 0)
(0.118656 0.0981072 0)
(0.109005 0.104283 0)
(0.0810504 0.100358 0)
(0.0541751 0.0908417 0)
(0.0348041 0.0697093 0)
(0.0152885 0.0123829 0)
(0.0434887 -0.006605 0)
(0.0424227 -0.0945276 0)
(0.0731841 -0.107997 0)
(0.00527702 -0.0144865 0)
(0.024138 -0.0206037 0)
(0.0277265 -0.0215482 0)
(0.0331599 -0.0225521 0)
(0.0379929 -0.0222972 0)
(0.0434369 -0.0188675 0)
(0.0517763 -0.00938502 0)
(0.0594602 0.00764341 0)
(0.0719496 0.0316037 0)
(0.07883 0.0588282 0)
(0.0873533 0.0833903 0)
(0.0804373 0.100494 0)
(0.0718673 0.109514 0)
(0.0460673 0.107426 0)
(0.0255496 0.0968332 0)
(0.0134749 0.073732 0)
(0.00595381 0.0100923 0)
(0.037775 -0.0115334 0)
(0.0472922 -0.0988139 0)
(0.0707254 -0.112273 0)
(-0.0087456 -0.0181028 0)
(0.00749663 -0.0237979 0)
(0.00924959 -0.0228332 0)
(0.0130296 -0.0237465 0)
(0.0155941 -0.0235499 0)
(0.0188429 -0.0204841 0)
(0.0241138 -0.0113195 0)
(0.0291667 0.00519859 0)
(0.0385501 0.0292142 0)
(0.0436754 0.0569974 0)
(0.0510935 0.0832447 0)
(0.0444796 0.102678 0)
(0.0375006 0.11411 0)
(0.0152677 0.113198 0)
(0.00226097 0.100505 0)
(-0.0011062 0.0750155 0)
(0.00447707 0.00548092 0)
(0.0383878 -0.0183991 0)
(0.0583042 -0.103406 0)
(0.0754529 -0.115737 0)
(-0.00351209 -0.0188357 0)
(-0.00277143 -0.0250771 0)
(-0.00513807 -0.0232673 0)
(-0.00441201 -0.0242675 0)
(-0.00470937 -0.0241089 0)
(-0.00408583 -0.0213684 0)
(-0.00210695 -0.012475 0)
(5.9966e-05 0.00343451 0)
(0.0059352 0.0274137 0)
(0.00895526 0.0554914 0)
(0.0148193 0.0832838 0)
(0.00878415 0.104746 0)
(0.00421353 0.11822 0)
(-0.0128872 0.117742 0)
(-0.0165756 0.101593 0)
(-0.00918631 0.0728885 0)
(0.0107507 -0.00215272 0)
(0.0452091 -0.0278437 0)
(0.0752191 -0.108919 0)
(0.0877985 -0.118918 0)
(-0.00249232 -0.0168955 0)
(-0.00956517 -0.0233633 0)
(-0.0162643 -0.0223446 0)
(-0.0189448 -0.0236886 0)
(-0.0221946 -0.0237104 0)
(-0.0242375 -0.0212654 0)
(-0.0254251 -0.0126499 0)
(-0.0260648 0.00264908 0)
(-0.0236135 0.0264173 0)
(-0.0226119 0.0544662 0)
(-0.0182885 0.0834447 0)
(-0.0230371 0.106333 0)
(-0.0242106 0.12106 0)
(-0.0345822 0.11996 0)
(-0.0272868 0.0987514 0)
(-0.00814535 0.0662237 0)
(0.0254006 -0.0129685 0)
(0.0588228 -0.0397482 0)
(0.0970745 -0.115592 0)
(0.108413 -0.122096 0)
(-0.00294279 -0.0143718 0)
(-0.0142397 -0.0200884 0)
(-0.0244061 -0.0202414 0)
(-0.0299205 -0.0220816 0)
(-0.0356098 -0.0224508 0)
(-0.0398257 -0.0202539 0)
(-0.043531 -0.0119288 0)
(-0.0463929 0.00289442 0)
(-0.046661 0.0262629 0)
(-0.0470943 0.0539816 0)
(-0.0438011 0.0834916 0)
(-0.0465372 0.107023 0)
(-0.0436202 0.121837 0)
(-0.046336 0.119211 0)
(-0.0280148 0.0918989 0)
(0.00113036 0.0556572 0)
(0.0451781 -0.0254785 0)
(0.076643 -0.0527326 0)
(0.119296 -0.123383 0)
(0.132701 -0.125713 0)
(-0.00370541 -0.0110941 0)
(-0.0175641 -0.015784 0)
(-0.0302294 -0.0172125 0)
(-0.0378 -0.0196905 0)
(-0.0452648 -0.020507 0)
(-0.051025 -0.0185525 0)
(-0.0565063 -0.0105146 0)
(-0.0608808 0.00386743 0)
(-0.0630073 0.026693 0)
(-0.0641493 0.0538014 0)
(-0.0611527 0.083188 0)
(-0.0611333 0.106559 0)
(-0.0533582 0.120294 0)
(-0.0477605 0.115385 0)
(-0.0193516 0.081663 0)
(0.0166024 0.0419632 0)
(0.0683036 -0.0390652 0)
(0.0976949 -0.0661412 0)
(0.141177 -0.132073 0)
(0.157812 -0.130137 0)
(-0.00439446 -0.00720379 0)
(-0.0198018 -0.0107917 0)
(-0.0340281 -0.0135573 0)
(-0.0428194 -0.0167795 0)
(-0.0513427 -0.0181056 0)
(-0.057957 -0.0164082 0)
(-0.0644404 -0.00865685 0)
(-0.0695594 0.00527398 0)
(-0.0726458 0.0274206 0)
(-0.0736979 0.0536331 0)
(-0.0701375 0.0822581 0)
(-0.0666337 0.104688 0)
(-0.05327 0.116276 0)
(-0.0391558 0.108587 0)
(-0.00246289 0.0690137 0)
(0.0366602 0.0263869 0)
(0.0938762 -0.0533902 0)
(0.122004 -0.0793811 0)
(0.163559 -0.141026 0)
(0.182256 -0.135272 0)
(-0.00490435 -0.00292056 0)
(-0.0210345 -0.00541671 0)
(-0.0359223 -0.00957784 0)
(-0.0451001 -0.0136167 0)
(-0.0539647 -0.0154873 0)
(-0.0607224 -0.014075 0)
(-0.0674371 -0.00661038 0)
(-0.0725055 0.00680786 0)
(-0.0756743 0.0281455 0)
(-0.0758156 0.0531793 0)
(-0.0708053 0.0803964 0)
(-0.0632264 0.101205 0)
(-0.0438712 0.109735 0)
(-0.0217074 0.0990159 0)
(0.0214018 0.0548887 0)
(0.0608566 0.0100216 0)
(0.121132 -0.0682572 0)
(0.149234 -0.0921799 0)
(0.187295 -0.149436 0)
(0.205567 -0.140666 0)
(-0.00525654 0.00155877 0)
(-0.0212512 5.17184e-05 0)
(-0.0359154 -0.0055654 0)
(-0.0446801 -0.0104626 0)
(-0.0532173 -0.0128883 0)
(-0.0594301 -0.0118086 0)
(-0.0656481 -0.00463564 0)
(-0.0698724 0.00817216 0)
(-0.0723009 0.0285703 0)
(-0.0707469 0.0521589 0)
(-0.0634861 0.0773743 0)
(-0.0515237 0.0960156 0)
(-0.0264203 0.100875 0)
(0.00262759 0.0870764 0)
(0.0506329 0.0398521 0)
(0.0892149 -0.00641482 0)
(0.149498 -0.0833436 0)
(0.178001 -0.104576 0)
(0.212077 -0.15673 0)
(0.227568 -0.145762 0)
(-0.00558314 0.00601119 0)
(-0.0203164 0.00530292 0)
(-0.0338577 -0.00178633 0)
(-0.0414874 -0.00755286 0)
(-0.0491435 -0.0105255 0)
(-0.0542153 -0.00984675 0)
(-0.0593099 -0.00299394 0)
(-0.0619519 0.00910537 0)
(-0.0629165 0.0284195 0)
(-0.0589827 0.050331 0)
(-0.0488614 0.0730796 0)
(-0.03248 0.0891528 0)
(-0.00256585 0.0901783 0)
(0.0312368 0.0734929 0)
(0.0830034 0.0240268 0)
(0.121376 -0.0223877 0)
(0.178916 -0.0979888 0)
(0.206749 -0.11652 0)
(0.236647 -0.16267 0)
(0.247912 -0.150133 0)
(-0.00620386 0.0102118 0)
(-0.0177943 0.00998264 0)
(-0.0293112 0.00145869 0)
(-0.0352386 -0.00508209 0)
(-0.0416645 -0.00857345 0)
(-0.0451968 -0.00837482 0)
(-0.04874 -0.00191158 0)
(-0.0492063 0.00939068 0)
(-0.0481518 0.0274628 0)
(-0.0413231 0.0475172 0)
(-0.0280199 0.0675066 0)
(-0.00726677 0.0807501 0)
(0.0263721 0.078119 0)
(0.0623001 0.0589373 0)
(0.116533 0.00745811 0)
(0.15603 -0.0378419 0)
(0.209317 -0.111448 0)
(0.234591 -0.127589 0)
(0.259761 -0.167166 0)
(0.266179 -0.153519 0)
(-0.00795713 0.0145918 0)
(-0.0125846 0.0135526 0)
(-0.0212839 0.0039269 0)
(-0.0252022 -0.00317629 0)
(-0.0303908 -0.00711926 0)
(-0.0323204 -0.00748499 0)
(-0.0342324 -0.00153932 0)
(-0.0322064 0.00887804 0)
(-0.0288463 0.0255466 0)
(-0.0188241 0.0436178 0)
(-0.00245486 0.0607204 0)
(0.0224421 0.0710734 0)
(0.0592097 0.0651631 0)
(0.0952339 0.0441503 0)
(0.150271 -0.00967433 0)
(0.191462 -0.053093 0)
(0.239895 -0.123308 0)
(0.260975 -0.137149 0)
(0.280591 -0.170151 0)
(0.282085 -0.15577 0)
(-0.0128827 0.0158786 0)
(-0.00334635 0.0143489 0)
(-0.00921563 0.0053728 0)
(-0.0115565 -0.00195387 0)
(-0.0160621 -0.006208 0)
(-0.016936 -0.00714574 0)
(-0.0177937 -0.00184701 0)
(-0.0136567 0.00768775 0)
(-0.00839438 0.0229835 0)
(0.00451651 0.039235 0)
(0.0232023 0.0536737 0)
(0.0510041 0.0615708 0)
(0.0903369 0.0531155 0)
(0.126125 0.0311149 0)
(0.180684 -0.0249423 0)
(0.222623 -0.0665373 0)
(0.266116 -0.132331 0)
(0.282548 -0.143888 0)
(0.296639 -0.171422 0)
(0.294098 -0.156735 0)