x,y,z,p
0,0,0,0.0445674
0,0.1,0,0.0717621
0,0.2,0,0.0989568
0,0.3,0,0.126152
0,0.4,0,0.153346
0,0.5,0,0.181525
0,0.6,0,0.217248
0,0.7,0,0.252971
0,0.8,0,0.288694
0,0.9,0,0.324417
0,1,0,0.359833
0,1.1,0,0.394225
0,1.2,0,0.428616
0,1.3,0,0.463008
0,1.4,0,0.4974
0,1.5,0,0.531346
0,1.6,0,0.564451
0,1.7,0,0.597556
0,1.8,0,0.630661
0,1.9,0,0.663766
0,2,0,0.696153
0,2.1,0,0.727705
0,2.2,0,0.759256
0,2.3,0,0.790807
0,2.4,0,0.822358
0,2.5,0,0.852801
0,2.6,0,0.882431
0,2.7,0,0.912061
0,2.8,0,0.941691
0,2.9,0,0.971321
0,3,0,0.999071
0,3.1,0,1.02599
0,3.2,0,1.0529
0,3.3,0,1.07981
0,3.4,0,1.10673
0,3.5,0,1.13174
0,3.6,0,1.1563
0,3.7,0,1.18086
0,3.8,0,1.20542
0,3.9,0,1.22998
0,4,0,1.25127
0,4.1,0,1.27229
0,4.2,0,1.2933
0,4.3,0,1.31432
0,4.4,0,1.33513
0,4.5,0,1.35085
0,4.6,0,1.36657
0,4.7,0,1.38228
0,4.8,0,1.398
0,4.9,0,1.41338
0,5,0,1.42693
0,5.1,0,1.44047
0,5.2,0,1.45401
0,5.3,0,1.46756
0,5.4,0,1.47952
0,5.5,0,1.48718
0,5.6,0,1.49485
0,5.7,0,1.50251
0,5.8,0,1.51017
0,5.9,0,1.51531
0,6,0,1.5164
0,6.1,0,1.5175
0,6.2,0,1.5186
0,6.3,0,1.51969
0,6.4,0,1.51932
0,6.5,0,1.51748
0,6.6,0,1.51565
0,6.7,0,1.5138
0,6.8,0,1.51196
0,6.9,0,1.50647
0,7,0,1.4987
0,7.1,0,1.49093
0,7.2,0,1.48316
0,7.3,0,1.47539
0,7.4,0,1.46449
0,7.5,0,1.45243
0,7.6,0,1.44037
0,7.7,0,1.42831
0,7.8,0,1.41625
0,7.9,0,1.40081
0,8,0,1.38475
0,8.1,0,1.3687
0,8.2,0,1.35264
0,8.3,0,1.33659
0,8.4,0,1.31613
0,8.5,0,1.2955
0,8.6,0,1.27487
0,8.7,0,1.25423
0,8.8,0,1.23334
0,8.9,0,1.20933
0,9,0,1.18532
0,9.1,0,1.16131
0,9.2,0,1.1373
0,9.3,0,1.11269
0,9.4,0,1.08555
0,9.5,0,1.05841
0,9.6,0,1.03127
0,9.7,0,1.00414
0,9.8,0,0.976296
0,9.9,0,0.946876
0,10,0,0.917455
0,10.1,0,0.888035
0,10.2,0,0.858615
0,10.3,0,0.828336
0,10.4,0,0.796888
0,10.5,0,0.76544
0,10.6,0,0.733992
0,10.7,0,0.702544
0,10.8,0,0.670202
0,10.9,0,0.637093
0,11,0,0.603984
0,11.1,0,0.570875
0,11.2,0,0.537765
0,11.3,0,0.503697
0,11.4,0,0.46912
0,11.5,0,0.434543
0,11.6,0,0.399967
0,11.7,0,0.36539
0,11.8,0,0.329687
0,11.9,0,0.293647
0,12,0,0.257606
0,12.1,0,0.221566
0,12.2,0,0.185525
0,12.3,0,0.156867
0,12.4,0,0.129171
0,12.5,0,0.101475
0,12.6,0,0.0737791
0,12.7,0,0.0460832
0.1,0,0,0.0356539
0.1,0.1,0,0.0626272
0.1,0.2,0,0.0898219
0.1,0.3,0,0.117017
0.1,0.4,0,0.145016
0.1,0.5,0,0.181459
0.1,0.6,0,0.217443
0.1,0.7,0,0.253166
0.1,0.8,0,0.288889
0.1,0.9,0,0.324595
0.1,1,0,0.360006
0.1,1.1,0,0.39456
0.1,1.2,0,0.428951
0.1,1.3,0,0.463343
0.1,1.4,0,0.497828
0.1,1.5,0,0.53194
0.1,1.6,0,0.564972
0.1,1.7,0,0.598076
0.1,1.8,0,0.631181
0.1,1.9,0,0.664567
0.1,2,0,0.697198
0.1,2.1,0,0.728633
0.1,2.2,0,0.760184
0.1,2.3,0,0.791735
0.1,2.4,0,0.823576
0.1,2.5,0,0.853982
0.1,2.6,0,0.883433
0.1,2.7,0,0.913064
0.1,2.8,0,0.942694
0.1,2.9,0,0.972717
0.1,3,0,1.00074
0.1,3.1,0,1.0277
0.1,3.2,0,1.05461
0.1,3.3,0,1.08153
0.1,3.4,0,1.10858
0.1,3.5,0,1.13261
0.1,3.6,0,1.15696
0.1,3.7,0,1.18152
0.1,3.8,0,1.20608
0.1,3.9,0,1.23148
0.1,4,0,1.25408
0.1,4.1,0,1.27517
0.1,4.2,0,1.29618
0.1,4.3,0,1.31718
0.1,4.4,0,1.33679
0.1,4.5,0,1.35322
0.1,4.6,0,1.36894
0.1,4.7,0,1.38466
0.1,4.8,0,1.4004
0.1,4.9,0,1.41553
0.1,5,0,1.42675
0.1,5.1,0,1.4403
0.1,5.2,0,1.45384
0.1,5.3,0,1.4678
0.1,5.4,0,1.48222
0.1,5.5,0,1.49319
0.1,5.6,0,1.50085
0.1,5.7,0,1.50851
0.1,5.8,0,1.51456
0.1,5.9,0,1.5165
0.1,6,0,1.5169
0.1,6.1,0,1.518
0.1,6.2,0,1.5191
0.1,6.3,0,1.52146
0.1,6.4,0,1.52209
0.1,6.5,0,1.51994
0.1,6.6,0,1.5181
0.1,6.7,0,1.51626
0.1,6.8,0,1.51456
0.1,6.9,0,1.50962
0.1,7,0,1.50213
0.1,7.1,0,1.49436
0.1,7.2,0,1.48659
0.1,7.3,0,1.47837
0.1,7.4,0,1.46583
0.1,7.5,0,1.45328
0.1,7.6,0,1.44122
0.1,7.7,0,1.42916
0.1,7.8,0,1.41854
0.1,7.9,0,1.40386
0.1,8,0,1.38789
0.1,8.1,0,1.37183
0.1,8.2,0,1.35578
0.1,8.3,0,1.33861
0.1,8.4,0,1.31756
0.1,8.5,0,1.29692
0.1,8.6,0,1.27629
0.1,8.7,0,1.25567
0.1,8.8,0,1.23515
0.1,8.9,0,1.21128
0.1,9,0,1.18727
0.1,9.1,0,1.16326
0.1,9.2,0,1.13917
0.1,9.3,0,1.11412
0.1,9.4,0,1.08672
0.1,9.5,0,1.05958
0.1,9.6,0,1.03244
0.1,9.7,0,1.00531
0.1,9.8,0,0.977467
0.1,9.9,0,0.947993
0.1,10,0,0.918573
0.1,10.1,0,0.889152
0.1,10.2,0,0.859555
0.1,10.3,0,0.82912
0.1,10.4,0,0.7978
0.1,10.5,0,0.766352
0.1,10.6,0,0.734904
0.1,10.7,0,0.70305
0.1,10.8,0,0.670679
0.1,10.9,0,0.637843
0.1,11,0,0.604734
0.1,11.1,0,0.571624
0.1,11.2,0,0.537851
0.1,11.3,0,0.504081
0.1,11.4,0,0.469833
0.1,11.5,0,0.435256
0.1,11.6,0,0.400679
0.1,11.7,0,0.365204
0.1,11.8,0,0.330236
0.1,11.9,0,0.294473
0.1,12,0,0.258432
0.1,12.1,0,0.222392
0.1,12.2,0,0.185451
0.1,12.3,0,0.148919
0.1,12.4,0,0.120364
0.1,12.5,0,0.0926683
0.1,12.6,0,0.0649725
0.1,12.7,0,0.0368666
0.2,0,0,0.0267404
0.2,0.1,0,0.0537097
0.2,0.2,0,0.0806871
0.2,0.3,0,0.108417
0.2,0.4,0,0.144909
0.2,0.5,0,0.181358
0.2,0.6,0,0.217379
0.2,0.7,0,0.253361
0.2,0.8,0,0.28907
0.2,0.9,0,0.324706
0.2,1,0,0.36013
0.2,1.1,0,0.394736
0.2,1.2,0,0.429286
0.2,1.3,0,0.463762
0.2,1.4,0,0.498451
0.2,1.5,0,0.532575
0.2,1.6,0,0.565564
0.2,1.7,0,0.598597
0.2,1.8,0,0.631967
0.2,1.9,0,0.665715
0.2,2,0,0.698346
0.2,2.1,0,0.729672
0.2,2.2,0,0.761112
0.2,2.3,0,0.792941
0.2,2.4,0,0.825015
0.2,2.5,0,0.855422
0.2,2.6,0,0.884605
0.2,2.7,0,0.914066
0.2,2.8,0,0.944076
0.2,2.9,0,0.974293
0.2,3,0,1.00232
0.2,3.1,0,1.02937
0.2,3.2,0,1.05632
0.2,3.3,0,1.08338
0.2,3.4,0,1.11047
0.2,3.5,0,1.1345
0.2,3.6,0,1.1578
0.2,3.7,0,1.18218
0.2,3.8,0,1.20755
0.2,3.9,0,1.23304
0.2,4,0,1.25564
0.2,4.1,0,1.27801
0.2,4.2,0,1.29906
0.2,4.3,0,1.31881
0.2,4.4,0,1.33842
0.2,4.5,0,1.3549
0.2,4.6,0,1.37132
0.2,4.7,0,1.38705
0.2,4.8,0,1.40298
0.2,4.9,0,1.41811
0.2,5,0,1.42884
0.2,5.1,0,1.44013
0.2,5.2,0,1.45404
0.2,5.3,0,1.46924
0.2,5.4,0,1.48367
0.2,5.5,0,1.496
0.2,5.6,0,1.50685
0.2,5.7,0,1.513
0.2,5.8,0,1.5162
0.2,5.9,0,1.51814
0.2,6,0,1.51807
0.2,6.1,0,1.5185
0.2,6.2,0,1.5208
0.2,6.3,0,1.52456
0.2,6.4,0,1.52519
0.2,6.5,0,1.5227
0.2,6.6,0,1.52056
0.2,6.7,0,1.51885
0.2,6.8,0,1.51723
0.2,6.9,0,1.5123
0.2,7,0,1.50529
0.2,7.1,0,1.49778
0.2,7.2,0,1.48958
0.2,7.3,0,1.48117
0.2,7.4,0,1.46863
0.2,7.5,0,1.45457
0.2,7.6,0,1.44207
0.2,7.7,0,1.43141
0.2,7.8,0,1.4211
0.2,7.9,0,1.40643
0.2,8,0,1.39096
0.2,8.1,0,1.37497
0.2,8.2,0,1.35783
0.2,8.3,0,1.34058
0.2,8.4,0,1.31954
0.2,8.5,0,1.29834
0.2,8.6,0,1.27772
0.2,8.7,0,1.25748
0.2,8.8,0,1.23696
0.2,8.9,0,1.2131
0.2,9,0,1.18922
0.2,9.1,0,1.16514
0.2,9.2,0,1.14067
0.2,9.3,0,1.11563
0.2,9.4,0,1.08815
0.2,9.5,0,1.06075
0.2,9.6,0,1.03362
0.2,9.7,0,1.00651
0.2,9.8,0,0.978662
0.2,9.9,0,0.949162
0.2,10,0,0.91969
0.2,10.1,0,0.890103
0.2,10.2,0,0.860241
0.2,10.3,0,0.829806
0.2,10.4,0,0.798589
0.2,10.5,0,0.767263
0.2,10.6,0,0.735428
0.2,10.7,0,0.703193
0.2,10.8,0,0.670822
0.2,10.9,0,0.638335
0.2,11,0,0.605483
0.2,11.1,0,0.571734
0.2,11.2,0,0.537571
0.2,11.3,0,0.503802
0.2,11.4,0,0.47024
0.2,11.5,0,0.435968
0.2,11.6,0,0.400521
0.2,11.7,0,0.364741
0.2,11.8,0,0.329773
0.2,11.9,0,0.295048
0.2,12,0,0.259258
0.2,12.1,0,0.222344
0.2,12.2,0,0.185257
0.2,12.3,0,0.148721
0.2,12.4,0,0.112266
0.2,12.5,0,0.0838617
0.2,12.6,0,0.0557659
0.2,12.7,0,0.0276499
0.3,0,0,0.0178269
0.3,0.1,0,0.0447962
0.3,0.2,0,0.0720847
0.3,0.3,0,0.108311
0.3,0.4,0,0.144802
0.3,0.5,0,0.181257
0.3,0.6,0,0.217278
0.3,0.7,0,0.253289
0.3,0.8,0,0.289181
0.3,0.9,0,0.324817
0.3,1,0,0.360254
0.3,1.1,0,0.394859
0.3,1.2,0,0.429538
0.3,1.3,0,0.464385
0.3,1.4,0,0.499074
0.3,1.5,0,0.53321
0.3,1.6,0,0.566199
0.3,1.7,0,0.599434
0.3,1.8,0,0.633115
0.3,1.9,0,0.666864
0.3,2,0,0.699494
0.3,2.1,0,0.73082
0.3,2.2,0,0.762411
0.3,2.3,0,0.79438
0.3,2.4,0,0.826455
0.3,2.5,0,0.856861
0.3,2.6,0,0.886044
0.3,2.7,0,0.915593
0.3,2.8,0,0.945652
0.3,2.9,0,0.97587
0.3,3,0,1.0039
0.3,3.1,0,1.03095
0.3,3.2,0,1.05814
0.3,3.3,0,1.08526
0.3,3.4,0,1.11236
0.3,3.5,0,1.13639
0.3,3.6,0,1.15969
0.3,3.7,0,1.18378
0.3,3.8,0,1.20912
0.3,3.9,0,1.23461
0.3,4,0,1.25721
0.3,4.1,0,1.27957
0.3,4.2,0,1.30069
0.3,4.3,0,1.32044
0.3,4.4,0,1.34005
0.3,4.5,0,1.35653
0.3,4.6,0,1.37303
0.3,4.7,0,1.38963
0.3,4.8,0,1.40556
0.3,4.9,0,1.42069
0.3,5,0,1.43141
0.3,5.1,0,1.44248
0.3,5.2,0,1.45549
0.3,5.3,0,1.47069
0.3,5.4,0,1.48512
0.3,5.5,0,1.49744
0.3,5.6,0,1.50836
0.3,5.7,0,1.51464
0.3,5.8,0,1.51784
0.3,5.9,0,1.51978
0.3,6,0,1.51971
0.3,6.1,0,1.52078
0.3,6.2,0,1.5239
0.3,6.3,0,1.52766
0.3,6.4,0,1.52829
0.3,6.5,0,1.5258
0.3,6.6,0,1.52343
0.3,6.7,0,1.52153
0.3,6.8,0,1.51991
0.3,6.9,0,1.51497
0.3,7,0,1.50797
0.3,7.1,0,1.50055
0.3,7.2,0,1.49238
0.3,7.3,0,1.48398
0.3,7.4,0,1.47144
0.3,7.5,0,1.45738
0.3,7.6,0,1.44468
0.3,7.7,0,1.43397
0.3,7.8,0,1.42367
0.3,7.9,0,1.40899
0.3,8,0,1.39352
0.3,8.1,0,1.37699
0.3,8.2,0,1.3598
0.3,8.3,0,1.34256
0.3,8.4,0,1.32151
0.3,8.5,0,1.30031
0.3,8.6,0,1.27952
0.3,8.7,0,1.25928
0.3,8.8,0,1.23876
0.3,8.9,0,1.2149
0.3,9,0,1.19098
0.3,9.1,0,1.16664
0.3,9.2,0,1.14218
0.3,9.3,0,1.11713
0.3,9.4,0,1.08965
0.3,9.5,0,1.06218
0.3,9.6,0,1.03481
0.3,9.7,0,1.0077
0.3,9.8,0,0.979857
0.3,9.9,0,0.950357
0.3,10,0,0.920701
0.3,10.1,0,0.890789
0.3,10.2,0,0.860928
0.3,10.3,0,0.830492
0.3,10.4,0,0.799275
0.3,10.5,0,0.767688
0.3,10.6,0,0.735571
0.3,10.7,0,0.703336
0.3,10.8,0,0.670965
0.3,10.9,0,0.638477
0.3,11,0,0.605374
0.3,11.1,0,0.571455
0.3,11.2,0,0.537292
0.3,11.3,0,0.503522
0.3,11.4,0,0.469961
0.3,11.5,0,0.435557
0.3,11.6,0,0.400058
0.3,11.7,0,0.364278
0.3,11.8,0,0.329309
0.3,11.9,0,0.294585
0.3,12,0,0.259006
0.3,12.1,0,0.222149
0.3,12.2,0,0.185062
0.3,12.3,0,0.148523
0.3,12.4,0,0.112067
0.3,12.5,0,0.075174
0.3,12.6,0,0.0465493
0.3,12.7,0,0.0184333
0.4,0,0,0.00891347
0.4,0.1,0,0.0360424
0.4,0.2,0,0.0722565
0.4,0.3,0,0.108471
0.4,0.4,0,0.144696
0.4,0.5,0,0.181156
0.4,0.6,0,0.217169
0.4,0.7,0,0.253105
0.4,0.8,0,0.28904
0.4,0.9,0,0.324928
0.4,1,0,0.360378
0.4,1.1,0,0.395044
0.4,1.2,0,0.429949
0.4,1.3,0,0.464855
0.4,1.4,0,0.499697
0.4,1.5,0,0.533844
0.4,1.6,0,0.567057
0.4,1.7,0,0.600692
0.4,1.8,0,0.634328
0.4,1.9,0,0.668012
0.4,2,0,0.700642
0.4,2.1,0,0.732222
0.4,2.2,0,0.764071
0.4,2.3,0,0.79592
0.4,2.4,0,0.827894
0.4,2.5,0,0.858301
0.4,2.6,0,0.887836
0.4,2.7,0,0.917607
0.4,2.8,0,0.947377
0.4,2.9,0,0.977447
0.4,3,0,1.00547
0.4,3.1,0,1.03266
0.4,3.2,0,1.05989
0.4,3.3,0,1.08712
0.4,3.4,0,1.11425
0.4,3.5,0,1.13828
0.4,3.6,0,1.16235
0.4,3.7,0,1.18658
0.4,3.8,0,1.21081
0.4,3.9,0,1.23617
0.4,4,0,1.25877
0.4,4.1,0,1.27993
0.4,4.2,0,1.30101
0.4,4.3,0,1.32207
0.4,4.4,0,1.34168
0.4,4.5,0,1.35818
0.4,4.6,0,1.37486
0.4,4.7,0,1.39155
0.4,4.8,0,1.40814
0.4,4.9,0,1.42326
0.4,5,0,1.43429
0.4,5.1,0,1.44667
0.4,5.2,0,1.45906
0.4,5.3,0,1.47214
0.4,5.4,0,1.48656
0.4,5.5,0,1.49758
0.4,5.6,0,1.50544
0.4,5.7,0,1.51331
0.4,5.8,0,1.51948
0.4,5.9,0,1.52142
0.4,6,0,1.52243
0.4,6.1,0,1.52502
0.4,6.2,0,1.52761
0.4,6.3,0,1.53075
0.4,6.4,0,1.53138
0.4,6.5,0,1.52901
0.4,6.6,0,1.52674
0.4,6.7,0,1.52447
0.4,6.8,0,1.52258
0.4,6.9,0,1.51765
0.4,7,0,1.51024
0.4,7.1,0,1.5026
0.4,7.2,0,1.49496
0.4,7.3,0,1.48678
0.4,7.4,0,1.47424
0.4,7.5,0,1.4615
0.4,7.6,0,1.4492
0.4,7.7,0,1.43689
0.4,7.8,0,1.42623
0.4,7.9,0,1.41156
0.4,8,0,1.39506
0.4,8.1,0,1.3784
0.4,8.2,0,1.36174
0.4,8.3,0,1.34453
0.4,8.4,0,1.32348
0.4,8.5,0,1.30267
0.4,8.6,0,1.28186
0.4,8.7,0,1.26108
0.4,8.8,0,1.24056
0.4,8.9,0,1.21666
0.4,9,0,1.19234
0.4,9.1,0,1.16802
0.4,9.2,0,1.14368
0.4,9.3,0,1.11863
0.4,9.4,0,1.09116
0.4,9.5,0,1.06371
0.4,9.6,0,1.03625
0.4,9.7,0,1.0089
0.4,9.8,0,0.981052
0.4,9.9,0,0.951406
0.4,10,0,0.921464
0.4,10.1,0,0.891523
0.4,10.2,0,0.861614
0.4,10.3,0,0.831179
0.4,10.4,0,0.79961
0.4,10.5,0,0.767606
0.4,10.6,0,0.735602
0.4,10.7,0,0.703479
0.4,10.8,0,0.671108
0.4,10.9,0,0.638029
0.4,11,0,0.604487
0.4,11.1,0,0.570946
0.4,11.2,0,0.537012
0.4,11.3,0,0.503243
0.4,11.4,0,0.468867
0.4,11.5,0,0.434102
0.4,11.6,0,0.399337
0.4,11.7,0,0.363814
0.4,11.8,0,0.328846
0.4,11.9,0,0.29329
0.4,12,0,0.257512
0.4,12.1,0,0.221735
0.4,12.2,0,0.184867
0.4,12.3,0,0.148324
0.4,12.4,0,0.111444
0.4,12.5,0,0.0745156
0.4,12.6,0,0.037587
0.4,12.7,0,0.00921664
0.5,0,0,0
0.5,0.1,0,0.0362146
0.5,0.2,0,0.0724293
0.5,0.3,0,0.108644
0.5,0.4,0,0.144859
0.5,0.5,0,0.18107
0.5,0.6,0,0.216999
0.5,0.7,0,0.252929
0.5,0.8,0,0.288858
0.5,0.9,0,0.324792
0.5,1,0,0.360549
0.5,1.1,0,0.395455
0.5,1.2,0,0.43036
0.5,1.3,0,0.465266
0.5,1.4,0,0.500171
0.5,1.5,0,0.534682
0.5,1.6,0,0.568317
0.5,1.7,0,0.601952
0.5,1.8,0,0.635587
0.5,1.9,0,0.669221
0.5,2,0,0.702032
0.5,2.1,0,0.733881
0.5,2.2,0,0.765731
0.5,2.3,0,0.79758
0.5,2.4,0,0.829429
0.5,2.5,0,0.860079
0.5,2.6,0,0.88985
0.5,2.7,0,0.91962
0.5,2.8,0,0.94939
0.5,2.9,0,0.979161
0.5,3,0,1.00718
0.5,3.1,0,1.03441
0.5,3.2,0,1.06164
0.5,3.3,0,1.08888
0.5,3.4,0,1.11611
0.5,3.5,0,1.14092
0.5,3.6,0,1.16515
0.5,3.7,0,1.18937
0.5,3.8,0,1.2136
0.5,3.9,0,1.23783
0.5,4,0,1.25916
0.5,4.1,0,1.28024
0.5,4.2,0,1.30133
0.5,4.3,0,1.32241
0.5,4.4,0,1.34332
0.5,4.5,0,1.36001
0.5,4.6,0,1.3767
0.5,4.7,0,1.39339
0.5,4.8,0,1.41007
0.5,4.9,0,1.4261
0.5,5,0,1.43848
0.5,5.1,0,1.45087
0.5,5.2,0,1.46325
0.5,5.3,0,1.47564
0.5,5.4,0,1.48681
0.5,5.5,0,1.49467
0.5,5.6,0,1.50253
0.5,5.7,0,1.51039
0.5,5.8,0,1.51825
0.5,5.9,0,1.52408
0.5,6,0,1.52667
0.5,6.1,0,1.52926
0.5,6.2,0,1.53185
0.5,6.3,0,1.53443
0.5,6.4,0,1.53459
0.5,6.5,0,1.53232
0.5,6.6,0,1.53005
0.5,6.7,0,1.52778
0.5,6.8,0,1.52551
0.5,6.9,0,1.51994
0.5,7,0,1.5123
0.5,7.1,0,1.50466
0.5,7.2,0,1.49702
0.5,7.3,0,1.48938
0.5,7.4,0,1.47833
0.5,7.5,0,1.46602
0.5,7.6,0,1.45372
0.5,7.7,0,1.44141
0.5,7.8,0,1.42911
0.5,7.9,0,1.41312
0.5,8,0,1.39646
0.5,8.1,0,1.3798
0.5,8.2,0,1.36314
0.5,8.3,0,1.34648
0.5,8.4,0,1.32583
0.5,8.5,0,1.30503
0.5,8.6,0,1.28422
0.5,8.7,0,1.26341
0.5,8.8,0,1.24233
0.5,8.9,0,1.21801
0.5,9,0,1.1937
0.5,9.1,0,1.16938
0.5,9.2,0,1.14506
0.5,9.3,0,1.12014
0.5,9.4,0,1.09269
0.5,9.5,0,1.06523
0.5,9.6,0,1.03778
0.5,9.7,0,1.01033
0.5,9.8,0,0.982111
0.5,9.9,0,0.95217
0.5,10,0,0.922228
0.5,10.1,0,0.892287
0.5,10.2,0,0.862346
0.5,10.3,0,0.831532
0.5,10.4,0,0.799528
0.5,10.5,0,0.767524
0.5,10.6,0,0.73552
0.5,10.7,0,0.703515
0.5,10.8,0,0.670684
0.5,10.9,0,0.637142
0.5,11,0,0.603601
0.5,11.1,0,0.570059
0.5,11.2,0,0.536518
0.5,11.3,0,0.502177
0.5,11.4,0,0.467412
0.5,11.5,0,0.432647
0.5,11.6,0,0.397882
0.5,11.7,0,0.363117
0.5,11.8,0,0.327575
0.5,11.9,0,0.2918
0.5,12,0,0.256025
0.5,12.1,0,0.22025
0.5,12.2,0,0.184476
0.5,12.3,0,0.147717
0.5,12.4,0,0.110788
0.5,12.5,0,0.0738587
0.5,12.6,0,0.0369293
0.5,12.7,0,0
0.6,0,0,0
0.6,0.1,0,0.0365338
0.6,0.2,0,0.0727485
0.6,0.3,0,0.108963
0.6,0.4,0,0.145174
0.6,0.5,0,0.181347
0.6,0.6,0,0.218003
0.6,0.7,0,0.253932
0.6,0.8,0,0.289862
0.6,0.9,0,0.325767
0.6,1,0,0.361538
0.6,1.1,0,0.397205
0.6,1.2,0,0.432114
0.6,1.3,0,0.467022
0.6,1.4,0,0.501898
0.6,1.5,0,0.536597
0.6,1.6,0,0.570798
0.6,1.7,0,0.604433
0.6,1.8,0,0.638068
0.6,1.9,0,0.671785
0.6,2,0,0.705178
0.6,2.1,0,0.73756
0.6,2.2,0,0.769409
0.6,2.3,0,0.801259
0.6,2.4,0,0.83296
0.6,2.5,0,0.863934
0.6,2.6,0,0.894007
0.6,2.7,0,0.923777
0.6,2.8,0,0.953548
0.6,2.9,0,0.983323
0.6,3,0,1.01171
0.6,3.1,0,1.03909
0.6,3.2,0,1.06633
0.6,3.3,0,1.09356
0.6,3.4,0,1.12099
0.6,3.5,0,1.14663
0.6,3.6,0,1.17102
0.6,3.7,0,1.19525
0.6,3.8,0,1.21947
0.6,3.9,0,1.24319
0.6,4,0,1.26278
0.6,4.1,0,1.28377
0.6,4.2,0,1.30485
0.6,4.3,0,1.32597
0.6,4.4,0,1.34897
0.6,4.5,0,1.36738
0.6,4.6,0,1.38406
0.6,4.7,0,1.40075
0.6,4.8,0,1.41735
0.6,4.9,0,1.43292
0.6,5,0,1.44571
0.6,5.1,0,1.4581
0.6,5.2,0,1.47049
0.6,5.3,0,1.4828
0.6,5.4,0,1.49269
0.6,5.5,0,1.49772
0.6,5.6,0,1.50558
0.6,5.7,0,1.51345
0.6,5.8,0,1.5228
0.6,5.9,0,1.53182
0.6,6,0,1.53541
0.6,6.1,0,1.538
0.6,6.2,0,1.54059
0.6,6.3,0,1.54274
0.6,6.4,0,1.54276
0.6,6.5,0,1.5408
0.6,6.6,0,1.53853
0.6,6.7,0,1.53626
0.6,6.8,0,1.53338
0.6,6.9,0,1.52746
0.6,7,0,1.51985
0.6,7.1,0,1.51221
0.6,7.2,0,1.50457
0.6,7.3,0,1.49678
0.6,7.4,0,1.48638
0.6,7.5,0,1.47432
0.6,7.6,0,1.46201
0.6,7.7,0,1.44971
0.6,7.8,0,1.43624
0.6,7.9,0,1.41949
0.6,8,0,1.40274
0.6,8.1,0,1.38609
0.6,8.2,0,1.36943
0.6,8.3,0,1.35259
0.6,8.4,0,1.33157
0.6,8.5,0,1.31076
0.6,8.6,0,1.28995
0.6,8.7,0,1.26913
0.6,8.8,0,1.2478
0.6,8.9,0,1.22299
0.6,9,0,1.19867
0.6,9.1,0,1.17435
0.6,9.2,0,1.15
0.6,9.3,0,1.12482
0.6,9.4,0,1.09684
0.6,9.5,0,1.06939
0.6,9.6,0,1.04194
0.6,9.7,0,1.01444
0.6,9.8,0,0.985827
0.6,9.9,0,0.955274
0.6,10,0,0.925332
0.6,10.1,0,0.895391
0.6,10.2,0,0.865385
0.6,10.3,0,0.833938
0.6,10.4,0,0.801227
0.6,10.5,0,0.769222
0.6,10.6,0,0.737218
0.6,10.7,0,0.705308
0.6,10.8,0,0.671711
0.6,10.9,0,0.637483
0.6,11,0,0.603942
0.6,11.1,0,0.5704
0.6,11.2,0,0.537156
0.6,11.3,0,0.502062
0.6,11.4,0,0.466876
0.6,11.5,0,0.432111
0.6,11.6,0,0.397346
0.6,11.7,0,0.362985
0.6,11.8,0,0.32703
0.6,11.9,0,0.291126
0.6,12,0,0.255351
0.6,12.1,0,0.219576
0.6,12.2,0,0.1839
0.6,12.3,0,0.147295
0.6,12.4,0,0.110386
0.6,12.5,0,0.0734571
0.6,12.6,0,0.0365278
0.6,12.7,0,0
0.7,0,0,0
0.7,0.1,0,0.036536
0.7,0.2,0,0.0730676
0.7,0.3,0,0.10928
0.7,0.4,0,0.145426
0.7,0.5,0,0.181594
0.7,0.6,0,0.218299
0.7,0.7,0,0.254936
0.7,0.8,0,0.290847
0.7,0.9,0,0.3266
0.7,1,0,0.36237
0.7,1.1,0,0.398227
0.7,1.2,0,0.433873
0.7,1.3,0,0.468754
0.7,1.4,0,0.503544
0.7,1.5,0,0.538245
0.7,1.6,0,0.572737
0.7,1.7,0,0.606914
0.7,1.8,0,0.640625
0.7,1.9,0,0.674453
0.7,2,0,0.707846
0.7,2.1,0,0.74073
0.7,2.2,0,0.773088
0.7,2.3,0,0.804796
0.7,2.4,0,0.836377
0.7,2.5,0,0.867351
0.7,2.6,0,0.897879
0.7,2.7,0,0.927935
0.7,2.8,0,0.95771
0.7,2.9,0,0.987487
0.7,3,0,1.01587
0.7,3.1,0,1.04363
0.7,3.2,0,1.07101
0.7,3.3,0,1.09843
0.7,3.4,0,1.12592
0.7,3.5,0,1.15156
0.7,3.6,0,1.17675
0.7,3.7,0,1.20112
0.7,3.8,0,1.22485
0.7,3.9,0,1.24851
0.7,4,0,1.2681
0.7,4.1,0,1.28735
0.7,4.2,0,1.30838
0.7,4.3,0,1.33155
0.7,4.4,0,1.35455
0.7,4.5,0,1.37306
0.7,4.6,0,1.39143
0.7,4.7,0,1.40805
0.7,4.8,0,1.4241
0.7,4.9,0,1.43967
0.7,5,0,1.45255
0.7,5.1,0,1.46533
0.7,5.2,0,1.47765
0.7,5.3,0,1.48975
0.7,5.4,0,1.49964
0.7,5.5,0,1.50351
0.7,5.6,0,1.50864
0.7,5.7,0,1.5179
0.7,5.8,0,1.52989
0.7,5.9,0,1.53891
0.7,6,0,1.54319
0.7,6.1,0,1.54674
0.7,6.2,0,1.54892
0.7,6.3,0,1.5506
0.7,6.4,0,1.55062
0.7,6.5,0,1.54898
0.7,6.6,0,1.547
0.7,6.7,0,1.54414
0.7,6.8,0,1.54084
0.7,6.9,0,1.53493
0.7,7,0,1.52738
0.7,7.1,0,1.51977
0.7,7.2,0,1.51198
0.7,7.3,0,1.50411
0.7,7.4,0,1.49372
0.7,7.5,0,1.4824
0.7,7.6,0,1.47031
0.7,7.7,0,1.45688
0.7,7.8,0,1.44317
0.7,7.9,0,1.42641
0.7,8,0,1.4091
0.7,8.1,0,1.39237
0.7,8.2,0,1.37554
0.7,8.3,0,1.35868
0.7,8.4,0,1.33767
0.7,8.5,0,1.31649
0.7,8.6,0,1.29567
0.7,8.7,0,1.27464
0.7,8.8,0,1.25332
0.7,8.9,0,1.22845
0.7,9,0,1.20364
0.7,9.1,0,1.1793
0.7,9.2,0,1.15481
0.7,9.3,0,1.12963
0.7,9.4,0,1.10151
0.7,9.5,0,1.07355
0.7,9.6,0,1.04605
0.7,9.7,0,1.01844
0.7,9.8,0,0.989825
0.7,9.9,0,0.958969
0.7,10,0,0.928437
0.7,10.1,0,0.898434
0.7,10.2,0,0.868332
0.7,10.3,0,0.836884
0.7,10.4,0,0.803603
0.7,10.5,0,0.770921
0.7,10.6,0,0.739007
0.7,10.7,0,0.707185
0.7,10.8,0,0.673588
0.7,10.9,0,0.638468
0.7,11,0,0.604282
0.7,11.1,0,0.571028
0.7,11.2,0,0.537956
0.7,11.3,0,0.502842
0.7,11.4,0,0.46671
0.7,11.5,0,0.431575
0.7,11.6,0,0.397201
0.7,11.7,0,0.362977
0.7,11.8,0,0.327
0.7,11.9,0,0.290556
0.7,12,0,0.254677
0.7,12.1,0,0.218999
0.7,12.2,0,0.183339
0.7,12.3,0,0.146717
0.7,12.4,0,0.109974
0.7,12.5,0,0.0730556
0.7,12.6,0,0.0365179
0.7,12.7,0,0
0.8,0,0,0
0.8,0.1,0,0.036536
0.8,0.2,0,0.073071
0.8,0.3,0,0.109532
0.8,0.4,0,0.145678
0.8,0.5,0,0.181842
0.8,0.6,0,0.218547
0.8,0.7,0,0.255238
0.8,0.8,0,0.291679
0.8,0.9,0,0.327433
0.8,1,0,0.363202
0.8,1.1,0,0.399059
0.8,1.2,0,0.434894
0.8,1.3,0,0.4704
0.8,1.4,0,0.505189
0.8,1.5,0,0.539894
0.8,1.6,0,0.574385
0.8,1.7,0,0.608945
0.8,1.8,0,0.643293
0.8,1.9,0,0.677121
0.8,2,0,0.710514
0.8,2.1,0,0.743398
0.8,2.2,0,0.776146
0.8,2.3,0,0.808213
0.8,2.4,0,0.839795
0.8,2.5,0,0.870769
0.8,2.6,0,0.901296
0.8,2.7,0,0.931829
0.8,2.8,0,0.961874
0.8,2.9,0,0.991652
0.8,3,0,1.02004
0.8,3.1,0,1.0478
0.8,3.2,0,1.07575
0.8,3.3,0,1.10336
0.8,3.4,0,1.13085
0.8,3.5,0,1.15649
0.8,3.6,0,1.18168
0.8,3.7,0,1.20639
0.8,3.8,0,1.23017
0.8,3.9,0,1.25383
0.8,4,0,1.27342
0.8,4.1,0,1.29267
0.8,4.2,0,1.31396
0.8,4.3,0,1.33712
0.8,4.4,0,1.36012
0.8,4.5,0,1.37864
0.8,4.6,0,1.39711
0.8,4.7,0,1.41479
0.8,4.8,0,1.43085
0.8,4.9,0,1.44641
0.8,5,0,1.4593
0.8,5.1,0,1.47212
0.8,5.2,0,1.48461
0.8,5.3,0,1.49671
0.8,5.4,0,1.50659
0.8,5.5,0,1.51046
0.8,5.6,0,1.51564
0.8,5.7,0,1.52499
0.8,5.8,0,1.53698
0.8,5.9,0,1.546
0.8,6,0,1.55028
0.8,6.1,0,1.55417
0.8,6.2,0,1.55677
0.8,6.3,0,1.55845
0.8,6.4,0,1.55847
0.8,6.5,0,1.55684
0.8,6.6,0,1.55464
0.8,6.7,0,1.55161
0.8,6.8,0,1.54831
0.8,6.9,0,1.5424
0.8,7,0,1.53485
0.8,7.1,0,1.52715
0.8,7.2,0,1.51932
0.8,7.3,0,1.51145
0.8,7.4,0,1.50106
0.8,7.5,0,1.48974
0.8,7.6,0,1.47732
0.8,7.7,0,1.4638
0.8,7.8,0,1.45009
0.8,7.9,0,1.43333
0.8,8,0,1.41602
0.8,8.1,0,1.39854
0.8,8.2,0,1.38163
0.8,8.3,0,1.36478
0.8,8.4,0,1.34377
0.8,8.5,0,1.32258
0.8,8.6,0,1.30119
0.8,8.7,0,1.28016
0.8,8.8,0,1.25883
0.8,8.9,0,1.23396
0.8,9,0,1.20907
0.8,9.1,0,1.1841
0.8,9.2,0,1.15962
0.8,9.3,0,1.13443
0.8,9.4,0,1.10631
0.8,9.5,0,1.07815
0.8,9.6,0,1.05005
0.8,9.7,0,1.02243
0.8,9.8,0,0.993822
0.8,9.9,0,0.962966
0.8,10,0,0.932053
0.8,10.1,0,0.901381
0.8,10.2,0,0.871278
0.8,10.3,0,0.83983
0.8,10.4,0,0.806549
0.8,10.5,0,0.773354
0.8,10.6,0,0.740884
0.8,10.7,0,0.709062
0.8,10.8,0,0.675465
0.8,10.9,0,0.640345
0.8,11,0,0.605495
0.8,11.1,0,0.571828
0.8,11.2,0,0.538757
0.8,11.3,0,0.503621
0.8,11.4,0,0.46749
0.8,11.5,0,0.43173
0.8,11.6,0,0.397194
0.8,11.7,0,0.36297
0.8,11.8,0,0.326971
0.8,11.9,0,0.290526
0.8,12,0,0.254175
0.8,12.1,0,0.218438
0.8,12.2,0,0.182779
0.8,12.3,0,0.146139
0.8,12.4,0,0.109396
0.8,12.5,0,0.0730307
0.8,12.6,0,0.0365179
0.8,12.7,0,0
0.9,0,0,0
0.9,0.1,0,0.0365355
0.9,0.2,0,0.0730025
0.9,0.3,0,0.10947
0.9,0.4,0,0.145929
0.9,0.5,0,0.18209
0.9,0.6,0,0.218787
0.9,0.7,0,0.255314
0.9,0.8,0,0.291842
0.9,0.9,0,0.328266
0.9,1,0,0.364034
0.9,1.1,0,0.399873
0.9,1.2,0,0.435613
0.9,1.3,0,0.471352
0.9,1.4,0,0.506835
0.9,1.5,0,0.541542
0.9,1.6,0,0.576092
0.9,1.7,0,0.610781
0.9,1.8,0,0.64547
0.9,1.9,0,0.679789
0.9,2,0,0.713182
0.9,2.1,0,0.745936
0.9,2.2,0,0.778552
0.9,2.3,0,0.811169
0.9,2.4,0,0.843212
0.9,2.5,0,0.874186
0.9,2.6,0,0.904718
0.9,2.7,0,0.935253
0.9,2.8,0,0.965788
0.9,2.9,0,0.995816
0.9,3,0,1.0242
0.9,3.1,0,1.05214
0.9,3.2,0,1.08016
0.9,3.3,0,1.10818
0.9,3.4,0,1.13578
0.9,3.5,0,1.16142
0.9,3.6,0,1.18614
0.9,3.7,0,1.21076
0.9,3.8,0,1.23539
0.9,3.9,0,1.25915
0.9,4,0,1.27874
0.9,4.1,0,1.29997
0.9,4.2,0,1.32132
0.9,4.3,0,1.3427
0.9,4.4,0,1.3657
0.9,4.5,0,1.38418
0.9,4.6,0,1.40206
0.9,4.7,0,1.41995
0.9,4.8,0,1.4376
0.9,4.9,0,1.45316
0.9,5,0,1.46599
0.9,5.1,0,1.47859
0.9,5.2,0,1.49118
0.9,5.3,0,1.50366
0.9,5.4,0,1.51354
0.9,5.5,0,1.51862
0.9,5.6,0,1.52662
0.9,5.7,0,1.53462
0.9,5.8,0,1.54406
0.9,5.9,0,1.55309
0.9,6,0,1.557
0.9,6.1,0,1.56037
0.9,6.2,0,1.56374
0.9,6.3,0,1.5663
0.9,6.4,0,1.56633
0.9,6.5,0,1.56415
0.9,6.6,0,1.56149
0.9,6.7,0,1.55882
0.9,6.8,0,1.55578
0.9,6.9,0,1.54986
0.9,7,0,1.54217
0.9,7.1,0,1.5344
0.9,7.2,0,1.52663
0.9,7.3,0,1.51879
0.9,7.4,0,1.5084
0.9,7.5,0,1.49601
0.9,7.6,0,1.48328
0.9,7.7,0,1.47055
0.9,7.8,0,1.45701
0.9,7.9,0,1.44025
0.9,8,0,1.42278
0.9,8.1,0,1.40527
0.9,8.2,0,1.38777
0.9,8.3,0,1.37088
0.9,8.4,0,1.34986
0.9,8.5,0,1.32846
0.9,8.6,0,1.30706
0.9,8.7,0,1.28567
0.9,8.8,0,1.26435
0.9,8.9,0,1.23946
0.9,9,0,1.21442
0.9,9.1,0,1.18937
0.9,9.2,0,1.16443
0.9,9.3,0,1.13924
0.9,9.4,0,1.11109
0.9,9.5,0,1.0828
0.9,9.6,0,1.05452
0.9,9.7,0,1.02643
0.9,9.8,0,0.997819
0.9,9.9,0,0.96691
0.9,10,0,0.935893
0.9,10.1,0,0.904875
0.9,10.2,0,0.874224
0.9,10.3,0,0.842777
0.9,10.4,0,0.809577
0.9,10.5,0,0.776478
0.9,10.6,0,0.74338
0.9,10.7,0,0.710939
0.9,10.8,0,0.677342
0.9,10.9,0,0.64248
0.9,11,0,0.607819
0.9,11.1,0,0.573158
0.9,11.2,0,0.539557
0.9,11.3,0,0.504401
0.9,11.4,0,0.468632
0.9,11.5,0,0.43303
0.9,11.6,0,0.397428
0.9,11.7,0,0.362963
0.9,11.8,0,0.326941
0.9,11.9,0,0.290586
0.9,12,0,0.254256
0.9,12.1,0,0.217925
0.9,12.2,0,0.182218
0.9,12.3,0,0.145561
0.9,12.4,0,0.10919
0.9,12.5,0,0.0728525
0.9,12.6,0,0.0365153
0.9,12.7,0,0
1,0,0,0
1,0.1,0,0.036467
1,0.2,0,0.072934
1,0.3,0,0.109401
1,0.4,0,0.145868
1,0.5,0,0.182336
1,0.6,0,0.218863
1,0.7,0,0.25539
1,0.8,0,0.291918
1,0.9,0,0.328445
1,1,0,0.364852
1,1.1,0,0.400592
1,1.2,0,0.436331
1,1.3,0,0.472071
1,1.4,0,0.50781
1,1.5,0,0.543238
1,1.6,0,0.577927
1,1.7,0,0.612616
1,1.8,0,0.647305
1,1.9,0,0.681994
1,2,0,0.715726
1,2.1,0,0.748343
1,2.2,0,0.780959
1,2.3,0,0.813576
1,2.4,0,0.846192
1,2.5,0,0.877608
1,2.6,0,0.908143
1,2.7,0,0.938677
1,2.8,0,0.969212
1,2.9,0,0.999747
1,3,0,1.02854
1,3.1,0,1.05656
1,3.2,0,1.08457
1,3.3,0,1.11259
1,3.4,0,1.14061
1,3.5,0,1.16589
1,3.6,0,1.19051
1,3.7,0,1.21514
1,3.8,0,1.23977
1,3.9,0,1.26439
1,4,0,1.28599
1,4.1,0,1.30734
1,4.2,0,1.32869
1,4.3,0,1.35003
1,4.4,0,1.37125
1,4.5,0,1.38913
1,4.6,0,1.40702
1,4.7,0,1.42491
1,4.8,0,1.44279
1,4.9,0,1.45986
1,5,0,1.47246
1,5.1,0,1.48506
1,5.2,0,1.49765
1,5.3,0,1.51025
1,5.4,0,1.52161
1,5.5,0,1.52961
1,5.6,0,1.53761
1,5.7,0,1.54561
1,5.8,0,1.55361
1,5.9,0,1.55983
1,6,0,1.5632
1,6.1,0,1.56657
1,6.2,0,1.56994
1,6.3,0,1.57331
1,6.4,0,1.57366
1,6.5,0,1.571
1,6.6,0,1.56833
1,6.7,0,1.56567
1,6.8,0,1.563
1,6.9,0,1.55719
1,7,0,1.54942
1,7.1,0,1.54165
1,7.2,0,1.53388
1,7.3,0,1.52611
1,7.4,0,1.51471
1,7.5,0,1.50198
1,7.6,0,1.48924
1,7.7,0,1.47651
1,7.8,0,1.46378
1,7.9,0,1.44701
1,8,0,1.42951
1,8.1,0,1.41201
1,8.2,0,1.3945
1,8.3,0,1.377
1,8.4,0,1.35575
1,8.5,0,1.33434
1,8.6,0,1.31294
1,8.7,0,1.29154
1,8.8,0,1.26985
1,8.9,0,1.24481
1,9,0,1.21977
1,9.1,0,1.19472
1,9.2,0,1.16968
1,9.3,0,1.14402
1,9.4,0,1.11573
1,9.5,0,1.08745
1,9.6,0,1.05917
1,9.7,0,1.03089
1,9.8,0,1.00177
1,9.9,0,0.970749
1,10,0,0.939732
1,10.1,0,0.908715
1,10.2,0,0.877698
1,10.3,0,0.8458
1,10.4,0,0.812701
1,10.5,0,0.779603
1,10.6,0,0.746504
1,10.7,0,0.713406
1,10.8,0,0.679466
1,10.9,0,0.644804
1,11,0,0.610143
1,11.1,0,0.575482
1,11.2,0,0.540821
1,11.3,0,0.505533
1,11.4,0,0.469931
1,11.5,0,0.434329
1,11.6,0,0.398727
1,11.7,0,0.363125
1,11.8,0,0.326998
1,11.9,0,0.290667
1,12,0,0.254337
1,12.1,0,0.218006
1,12.2,0,0.181676
1,12.3,0,0.145349
1,12.4,0,0.109012
1,12.5,0,0.0726744
1,12.6,0,0.0363372
1,12.7,0,0
1.1,0,0,0
1.1,0.1,0,0.0367067
1.1,0.2,0,0.0731733
1.1,0.3,0,0.10964
1.1,0.4,0,0.146109
1.1,0.5,0,0.182785
1.1,0.6,0,0.219396
1.1,0.7,0,0.255923
1.1,0.8,0,0.292449
1.1,0.9,0,0.329024
1.1,1,0,0.36602
1.1,1.1,0,0.402399
1.1,1.2,0,0.438136
1.1,1.3,0,0.473874
1.1,1.4,0,0.509636
1.1,1.5,0,0.545497
1.1,1.6,0,0.580987
1.1,1.7,0,0.615683
1.1,1.8,0,0.650378
1.1,1.9,0,0.685023
1.1,2,0,0.719214
1.1,2.1,0,0.752412
1.1,2.2,0,0.785028
1.1,2.3,0,0.817645
1.1,2.4,0,0.850326
1.1,2.5,0,0.8826
1.1,2.6,0,0.913695
1.1,2.7,0,0.94423
1.1,2.8,0,0.974765
1.1,2.9,0,1.00547
1.1,3,0,1.03534
1.1,3.1,0,1.06377
1.1,3.2,0,1.09179
1.1,3.3,0,1.11981
1.1,3.4,0,1.1478
1.1,3.5,0,1.17401
1.1,3.6,0,1.19883
1.1,3.7,0,1.22346
1.1,3.8,0,1.24809
1.1,3.9,0,1.273
1.1,4,0,1.29588
1.1,4.1,0,1.3173
1.1,4.2,0,1.33865
1.1,4.3,0,1.36
1.1,4.4,0,1.3813
1.1,4.5,0,1.3984
1.1,4.6,0,1.41629
1.1,4.7,0,1.43417
1.1,4.8,0,1.45234
1.1,4.9,0,1.47142
1.1,5,0,1.4851
1.1,5.1,0,1.4977
1.1,5.2,0,1.5103
1.1,5.3,0,1.52283
1.1,5.4,0,1.53442
1.1,5.5,0,1.54355
1.1,5.6,0,1.55155
1.1,5.7,0,1.55955
1.1,5.8,0,1.56715
1.1,5.9,0,1.57252
1.1,6,0,1.57564
1.1,6.1,0,1.57902
1.1,6.2,0,1.58239
1.1,6.3,0,1.58589
1.1,6.4,0,1.5863
1.1,6.5,0,1.58355
1.1,6.6,0,1.58089
1.1,6.7,0,1.57822
1.1,6.8,0,1.57552
1.1,6.9,0,1.56917
1.1,7,0,1.5611
1.1,7.1,0,1.55332
1.1,7.2,0,1.54555
1.1,7.3,0,1.53809
1.1,7.4,0,1.52627
1.1,7.5,0,1.51335
1.1,7.6,0,1.50062
1.1,7.7,0,1.48789
1.1,7.8,0,1.47507
1.1,7.9,0,1.45785
1.1,8,0,1.44028
1.1,8.1,0,1.42278
1.1,8.2,0,1.40528
1.1,8.3,0,1.38727
1.1,8.4,0,1.36535
1.1,8.5,0,1.34393
1.1,8.6,0,1.32253
1.1,8.7,0,1.3011
1.1,8.8,0,1.2789
1.1,8.9,0,1.25368
1.1,9,0,1.22864
1.1,9.1,0,1.20359
1.1,9.2,0,1.17834
1.1,9.3,0,1.15166
1.1,9.4,0,1.1233
1.1,9.5,0,1.09502
1.1,9.6,0,1.06673
1.1,9.7,0,1.03808
1.1,9.8,0,1.00807
1.1,9.9,0,0.977113
1.1,10,0,0.946096
1.1,10.1,0,0.915079
1.1,10.2,0,0.883531
1.1,10.3,0,0.850674
1.1,10.4,0,0.817325
1.1,10.5,0,0.784226
1.1,10.6,0,0.751128
1.1,10.7,0,0.717508
1.1,10.8,0,0.682818
1.1,10.9,0,0.647947
1.1,11,0,0.613282
1.1,11.1,0,0.578617
1.1,11.2,0,0.543468
1.1,11.3,0,0.507431
1.1,11.4,0,0.471672
1.1,11.5,0,0.436066
1.1,11.6,0,0.400461
1.1,11.7,0,0.36397
1.1,11.8,0,0.3275
1.1,11.9,0,0.291165
1.1,12,0,0.254836
1.1,12.1,0,0.218508
1.1,12.2,0,0.182129
1.1,12.3,0,0.145487
1.1,12.4,0,0.109146
1.1,12.5,0,0.0728112
1.1,12.6,0,0.0364765
1.1,12.7,0,0
1.2,0,0,0
1.2,0.1,0,0.0367071
1.2,0.2,0,0.0734133
1.2,0.3,0,0.109881
1.2,0.4,0,0.146558
1.2,0.5,0,0.183234
1.2,0.6,0,0.21985
1.2,0.7,0,0.25646
1.2,0.8,0,0.293018
1.2,0.9,0,0.330084
1.2,1,0,0.367086
1.2,1.1,0,0.403602
1.2,1.2,0,0.439965
1.2,1.3,0,0.475722
1.2,1.4,0,0.511583
1.2,1.5,0,0.547444
1.2,1.6,0,0.583303
1.2,1.7,0,0.618767
1.2,1.8,0,0.653419
1.2,1.9,0,0.687988
1.2,2,0,0.722191
1.2,2.1,0,0.755914
1.2,2.2,0,0.789098
1.2,2.3,0,0.821774
1.2,2.4,0,0.854511
1.2,2.5,0,0.886793
1.2,2.6,0,0.918715
1.2,2.7,0,0.949783
1.2,2.8,0,0.980478
1.2,2.9,0,1.01126
1.2,3,0,1.04114
1.2,3.1,0,1.07061
1.2,3.2,0,1.09901
1.2,3.3,0,1.127
1.2,3.4,0,1.15498
1.2,3.5,0,1.18119
1.2,3.6,0,1.20698
1.2,3.7,0,1.23178
1.2,3.8,0,1.25668
1.2,3.9,0,1.28162
1.2,4,0,1.30451
1.2,4.1,0,1.32722
1.2,4.2,0,1.34861
1.2,4.3,0,1.37008
1.2,4.4,0,1.39138
1.2,4.5,0,1.40843
1.2,4.6,0,1.42555
1.2,4.7,0,1.44367
1.2,4.8,0,1.46369
1.2,4.9,0,1.48277
1.2,5,0,1.49669
1.2,5.1,0,1.51034
1.2,5.2,0,1.52288
1.2,5.3,0,1.53521
1.2,5.4,0,1.5468
1.2,5.5,0,1.5564
1.2,5.6,0,1.56549
1.2,5.7,0,1.57311
1.2,5.8,0,1.58
1.2,5.9,0,1.58537
1.2,6,0,1.58833
1.2,6.1,0,1.59146
1.2,6.2,0,1.59496
1.2,6.3,0,1.59862
1.2,6.4,0,1.59903
1.2,6.5,0,1.59619
1.2,6.6,0,1.59344
1.2,6.7,0,1.59074
1.2,6.8,0,1.58802
1.2,6.9,0,1.58167
1.2,7,0,1.57306
1.2,7.1,0,1.565
1.2,7.2,0,1.55753
1.2,7.3,0,1.55019
1.2,7.4,0,1.53837
1.2,7.5,0,1.5249
1.2,7.6,0,1.512
1.2,7.7,0,1.49918
1.2,7.8,0,1.48635
1.2,7.9,0,1.46913
1.2,8,0,1.45111
1.2,8.1,0,1.43355
1.2,8.2,0,1.41556
1.2,8.3,0,1.39752
1.2,8.4,0,1.3756
1.2,8.5,0,1.35352
1.2,8.6,0,1.3321
1.2,8.7,0,1.31016
1.2,8.8,0,1.28797
1.2,8.9,0,1.26273
1.2,9,0,1.23751
1.2,9.1,0,1.21228
1.2,9.2,0,1.18601
1.2,9.3,0,1.15933
1.2,9.4,0,1.13094
1.2,9.5,0,1.10258
1.2,9.6,0,1.07395
1.2,9.7,0,1.04435
1.2,9.8,0,1.01434
1.2,9.9,0,0.983415
1.2,10,0,0.95246
1.2,10.1,0,0.920942
1.2,10.2,0,0.888597
1.2,10.3,0,0.855741
1.2,10.4,0,0.822186
1.2,10.5,0,0.78885
1.2,10.6,0,0.755248
1.2,10.7,0,0.721148
1.2,10.8,0,0.686444
1.2,10.9,0,0.651273
1.2,11,0,0.61643
1.2,11.1,0,0.581294
1.2,11.2,0,0.545884
1.2,11.3,0,0.509831
1.2,11.4,0,0.473533
1.2,11.5,0,0.437823
1.2,11.6,0,0.401333
1.2,11.7,0,0.364562
1.2,11.8,0,0.328106
1.2,11.9,0,0.291686
1.2,12,0,0.255357
1.2,12.1,0,0.218979
1.2,12.2,0,0.182594
1.2,12.3,0,0.145951
1.2,12.4,0,0.109293
1.2,12.5,0,0.0729529
1.2,12.6,0,0.0364792
1.2,12.7,0,0
1.3,0,0,0