/*--------------------------------*- C++ -*----------------------------------*\
| =========                 |                                                 |
| \\      /  F ield         | OpenFOAM: The Open Source CFD Toolbox           |
|  \\    /   O peration     | Version:  v1806                                 |
|   \\  /    A nd           | Web:      www.OpenFOAM.com                      |
|    \\/     M anipulation  |                                                 |
\*---------------------------------------------------------------------------*/
FoamFile
{
    version     2.0;
    format      ascii;
    class       volVectorField;
    location    "490";
    object      U;
}
// * * * * * * * * * * * * * * * * * * * * * * * * * * * * * * * * * * * * * //

dimensions      [0 1 -1 0 0 0 0];


internalField   nonuniform List<vector> 
2400
(
(0.3 -0.000916359 0)
(0.300003 -0.00274739 0)
(0.300008 -0.00457249 0)
(0.300018 -0.00638707 0)
(0.300033 -0.00818588 0)
(0.300055 -0.00996268 0)
(0.300085 -0.0117099 0)
(0.300125 -0.0134184 0)
(0.300178 -0.0150774 0)
(0.300247 -0.0166743 0)
(0.300333 -0.0181948 0)
(0.300442 -0.0196229 0)
(0.300574 -0.0209414 0)
(0.300733 -0.0221323 0)
(0.300922 -0.0231769 0)
(0.301143 -0.0240575 0)
(0.301395 -0.0247573 0)
(0.30168 -0.0252621 0)
(0.301997 -0.0255602 0)
(0.302343 -0.025645 0)
(0.3 -0.000918441 0)
(0.300007 -0.00275385 0)
(0.30002 -0.00458413 0)
(0.300041 -0.00640514 0)
(0.300071 -0.00821209 0)
(0.300113 -0.00999919 0)
(0.300169 -0.0117593 0)
(0.300244 -0.0134838 0)
(0.300339 -0.0151621 0)
(0.300461 -0.0167822 0)
(0.300612 -0.0183297 0)
(0.300797 -0.0197888 0)
(0.301019 -0.021142 0)
(0.301282 -0.0223709 0)
(0.301588 -0.023456 0)
(0.301938 -0.0243786 0)
(0.302331 -0.0251205 0)
(0.302765 -0.0256658 0)
(0.303235 -0.0260013 0)
(0.303735 -0.0261182 0)
(0.300001 -0.000922389 0)
(0.30001 -0.00276599 0)
(0.30003 -0.00460549 0)
(0.300062 -0.00643753 0)
(0.300109 -0.00825804 0)
(0.300172 -0.0100619 0)
(0.300258 -0.0118427 0)
(0.30037 -0.0135922 0)
(0.300514 -0.0153004 0)
(0.300697 -0.0169554 0)
(0.300923 -0.018543 0)
(0.301199 -0.0200469 0)
(0.30153 -0.0214489 0)
(0.30192 -0.0227296 0)
(0.302371 -0.0238679 0)
(0.302885 -0.0248431 0)
(0.303458 -0.0256346 0)
(0.304085 -0.0262242 0)
(0.304759 -0.0265961 0)
(0.305468 -0.0267401 0)
(0.300001 -0.000927826 0)
(0.300013 -0.0027827 0)
(0.300039 -0.00463486 0)
(0.300079 -0.00648202 0)
(0.300138 -0.00832116 0)
(0.30022 -0.0101482 0)
(0.300331 -0.0119574 0)
(0.300477 -0.0137415 0)
(0.300666 -0.015491 0)
(0.300907 -0.0171942 0)
(0.301206 -0.0188369 0)
(0.301572 -0.0204023 0)
(0.302013 -0.0218712 0)
(0.302533 -0.0232223 0)
(0.303136 -0.0244324 0)
(0.303823 -0.0254779 0)
(0.30459 -0.0263347 0)
(0.30543 -0.0269811 0)
(0.30633 -0.0273974 0)
(0.307275 -0.0275703 0)
(0.300001 -0.000934201 0)
(0.300015 -0.00280234 0)
(0.300043 -0.00466962 0)
(0.300089 -0.00653515 0)
(0.300156 -0.0083973 0)
(0.300251 -0.0102532 0)
(0.30038 -0.0120986 0)
(0.300553 -0.0139269 0)
(0.30078 -0.0157296 0)
(0.30107 -0.0174955 0)
(0.301435 -0.0192101 0)
(0.301885 -0.0208563 0)
(0.302431 -0.0224134 0)
(0.30308 -0.0238579 0)
(0.303837 -0.0251635 0)
(0.304703 -0.0263025 0)
(0.305674 -0.0272461 0)
(0.30674 -0.0279677 0)
(0.307885 -0.0284417 0)
(0.309088 -0.028651 0)
(0.300001 -0.000940819 0)
(0.300014 -0.00282285 0)
(0.300043 -0.00470633 0)
(0.300089 -0.00659218 0)
(0.300159 -0.00848046 0)
(0.300258 -0.0103701 0)
(0.300398 -0.0122581 0)
(0.300587 -0.0141396 0)
(0.30084 -0.0160071 0)
(0.301169 -0.0178501 0)
(0.30159 -0.0196544 0)
(0.302115 -0.0214022 0)
(0.302758 -0.0230711 0)
(0.303531 -0.0246352 0)
(0.304441 -0.0260638 0)
(0.305491 -0.0273243 0)
(0.306676 -0.0283812 0)
(0.307986 -0.0292011 0)
(0.309399 -0.0297506 0)
(0.310887 -0.0300068 0)
(0.300001 -0.000946811 0)
(0.300012 -0.00284161 0)
(0.300037 -0.00474065 0)
(0.300078 -0.00664703 0)
(0.300142 -0.00856288 0)
(0.300237 -0.0104893 0)
(0.300375 -0.0124252 0)
(0.300569 -0.0143678 0)
(0.300834 -0.0163109 0)
(0.301188 -0.0182456 0)
(0.301649 -0.0201577 0)
(0.302236 -0.0220296 0)
(0.302966 -0.0238368 0)
(0.303856 -0.0255506 0)
(0.304917 -0.0271351 0)
(0.306155 -0.0285514 0)
(0.307567 -0.0297549 0)
(0.30914 -0.0307032 0)
(0.310849 -0.0313518 0)
(0.312659 -0.0316696 0)
(0.3 -0.000951124 0)
(0.300008 -0.00285547 0)
(0.300024 -0.0047673 0)
(0.300053 -0.00669229 0)
(0.300102 -0.00863503 0)
(0.300181 -0.0105993 0)
(0.300304 -0.0125864 0)
(0.300486 -0.0145964 0)
(0.300746 -0.0166247 0)
(0.301106 -0.0186651 0)
(0.301589 -0.0207038 0)
(0.302219 -0.0227242 0)
(0.30302 -0.0246991 0)
(0.304015 -0.0265981 0)
(0.305222 -0.028378 0)
(0.306651 -0.0299929 0)
(0.308304 -0.031386 0)
(0.310166 -0.0325025 0)
(0.312208 -0.0332825 0)
(0.314386 -0.0336829 0)
(0.3 -0.000952521 0)
(0.300001 -0.00286071 0)
(0.300003 -0.00478004 0)
(0.300012 -0.00671917 0)
(0.300035 -0.00868548 0)
(0.300084 -0.0106861 0)
(0.300175 -0.0127252 0)
(0.300326 -0.0148065 0)
(0.30056 -0.0169278 0)
(0.300902 -0.0190872 0)
(0.301381 -0.0212708 0)
(0.302029 -0.023466 0)
(0.302879 -0.0256414 0)
(0.303961 -0.0277676 0)
(0.305304 -0.0297904 0)
(0.306925 -0.0316583 0)
(0.308832 -0.0332965 0)
(0.311014 -0.034635 0)
(0.313436 -0.0355915 0)
(0.316043 -0.0361046 0)
(0.3 -0.000949598 0)
(0.29999 -0.00285311 0)
(0.299973 -0.00477173 0)
(0.299953 -0.00671754 0)
(0.299937 -0.00870094 0)
(0.299941 -0.0107333 0)
(0.29998 -0.0128215 0)
(0.300077 -0.0149752 0)
(0.300257 -0.0171941 0)
(0.300551 -0.0194838 0)
(0.300994 -0.0218293 0)
(0.301628 -0.0242275 0)
(0.302494 -0.0266385 0)
(0.303636 -0.029042 0)
(0.305097 -0.0313642 0)
(0.306904 -0.0335558 0)
(0.30908 -0.0355111 0)
(0.311615 -0.037146 0)
(0.314476 -0.0383428 0)
(0.317594 -0.0390127 0)
(0.299999 -0.000940816 0)
(0.299977 -0.002828 0)
(0.299933 -0.00473449 0)
(0.299873 -0.00667606 0)
(0.299806 -0.00866632 0)
(0.299746 -0.0107216 0)
(0.299712 -0.012852 0)
(0.299727 -0.0150747 0)
(0.29982 -0.0173913 0)
(0.300029 -0.0198196 0)
(0.300395 -0.0223406 0)
(0.30097 -0.0249711 0)
(0.301808 -0.027653 0)
(0.30297 -0.0303948 0)
(0.304517 -0.0330807 0)
(0.306494 -0.0356906 0)
(0.308948 -0.0380542 0)
(0.311874 -0.0400918 0)
(0.315251 -0.0416201 0)
(0.318989 -0.0425134 0)
(0.299998 -0.000924547 0)
(0.299959 -0.00278045 0)
(0.299883 -0.00465986 0)
(0.299774 -0.00658246 0)
(0.29964 -0.00856506 0)
(0.299497 -0.0106298 0)
(0.299363 -0.0127898 0)
(0.299266 -0.0150726 0)
(0.299234 -0.0174803 0)
(0.299313 -0.0200502 0)
(0.299548 -0.0227538 0)
(0.300007 -0.0256458 0)
(0.300756 -0.0286303 0)
(0.301877 -0.0317853 0)
(0.303461 -0.0349022 0)
(0.305572 -0.0380638 0)
(0.308308 -0.0409428 0)
(0.311656 -0.0435455 0)
(0.315647 -0.0455299 0)
(0.32015 -0.046751 0)
(0.299997 -0.000899149 0)
(0.299939 -0.00270545 0)
(0.299823 -0.00453924 0)
(0.299653 -0.00642402 0)
(0.299437 -0.00837974 0)
(0.299191 -0.0104348 0)
(0.298932 -0.0126054 0)
(0.298687 -0.0149317 0)
(0.298487 -0.0174152 0)
(0.298383 -0.0201213 0)
(0.298423 -0.0230042 0)
(0.298692 -0.0261834 0)
(0.299266 -0.0294918 0)
(0.300263 -0.0331525 0)
(0.3018 -0.0367588 0)
(0.303981 -0.0406699 0)
(0.306984 -0.0441701 0)
(0.310768 -0.0476123 0)
(0.315512 -0.0502028 0)
(0.320957 -0.051926 0)
(0.299996 -0.000863064 0)
(0.299915 -0.0025982 0)
(0.299754 -0.0043643 0)
(0.299513 -0.00618825 0)
(0.299202 -0.00809293 0)
(0.298831 -0.0101129 0)
(0.29842 -0.0122676 0)
(0.297991 -0.0146111 0)
(0.297577 -0.0171442 0)
(0.297226 -0.0199675 0)
(0.296996 -0.023012 0)
(0.296979 -0.026492 0)
(0.297269 -0.030129 0)
(0.298019 -0.0344016 0)
(0.299382 -0.0385307 0)
(0.301524 -0.0434892 0)
(0.304733 -0.0476666 0)
(0.308934 -0.0524681 0)
(0.314636 -0.0557783 0)
(0.321205 -0.0583626 0)
(0.299994 -0.000814946 0)
(0.299888 -0.00245456 0)
(0.299676 -0.00412774 0)
(0.299357 -0.00586388 0)
(0.298937 -0.00768849 0)
(0.298425 -0.00964128 0)
(0.297837 -0.0117455 0)
(0.297186 -0.0140679 0)
(0.296512 -0.0166115 0)
(0.295844 -0.0195132 0)
(0.295261 -0.0226835 0)
(0.294834 -0.0264506 0)
(0.294707 -0.0304008 0)
(0.295031 -0.0353816 0)
(0.296034 -0.0400371 0)
(0.297952 -0.0464558 0)
(0.301206 -0.0512393 0)
(0.305764 -0.0584039 0)
(0.312691 -0.0623006 0)
(0.320526 -0.0667397 0)
(0.299993 -0.000753806 0)
(0.29986 -0.00227142 0)
(0.299594 -0.00382396 0)
(0.299189 -0.00544202 0)
(0.298653 -0.00715317 0)
(0.297983 -0.00900026 0)
(0.2972 -0.0110109 0)
(0.296293 -0.0132612 0)
(0.295319 -0.0157609 0)
(0.294257 -0.0186759 0)
(0.293244 -0.0219138 0)
(0.292248 -0.0259045 0)
(0.291565 -0.0301338 0)
(0.291177 -0.0358475 0)
(0.291607 -0.0410431 0)
(0.292946 -0.0493648 0)
(0.295935 -0.0545692 0)
(0.300722 -0.0657755 0)
(0.308946 -0.0694043 0)
(0.318275 -0.0785756 0)
(0.299992 -0.000679162 0)
(0.299831 -0.00204725 0)
(0.299511 -0.00344996 0)
(0.299018 -0.00491754 0)
(0.298362 -0.00647848 0)
(0.297526 -0.00817616 0)
(0.296536 -0.0100424 0)
(0.295347 -0.0121568 0)
(0.294044 -0.0145413 0)
(0.292515 -0.0173749 0)
(0.291006 -0.0205911 0)
(0.289253 -0.0246728 0)
(0.28789 -0.0291174 0)
(0.286349 -0.035431 0)
(0.286038 -0.0412568 0)
(0.286025 -0.0516772 0)
(0.288533 -0.0574058 0)
(0.293 -0.0746876 0)
(0.301794 -0.0760953 0)
(0.313754 -0.0964478 0)
(0.29999 -0.000591197 0)
(0.299803 -0.00178243 0)
(0.29943 -0.00300601 0)
(0.298852 -0.00429015 0)
(0.298079 -0.00566257 0)
(0.297078 -0.0071641 0)
(0.295881 -0.00882903 0)
(0.294401 -0.0107343 0)
(0.292752 -0.0129147 0)
(0.290713 -0.0155455 0)
(0.288649 -0.018607 0)
(0.285977 -0.022574 0)
(0.283798 -0.0270906 0)
(0.280571 -0.0336632 0)
(0.279366 -0.0402383 0)
(0.27651 -0.0523277 0)
(0.278962 -0.0597096 0)
(0.28071 -0.0841946 0)
(0.290063 -0.0821583 0)
(0.307136 -0.124654 0)
(0.299989 -0.000491102 0)
(0.299779 -0.00147976 0)
(0.299357 -0.00249667 0)
(0.298702 -0.00356598 0)
(0.297821 -0.00471273 0)
(0.296669 -0.00597125 0)
(0.295276 -0.00737637 0)
(0.293524 -0.00899435 0)
(0.29153 -0.0108704 0)
(0.288992 -0.0131571 0)
(0.286322 -0.015885 0)
(0.282685 -0.0194694 0)
(0.279476 -0.0237655 0)
(0.274228 -0.0300753 0)
(0.271608 -0.0372022 0)
(0.264201 -0.0498967 0)
(0.266728 -0.0607738 0)
(0.259922 -0.0909943 0)
(0.276911 -0.0932494 0)
(0.295861 -0.173733 0)
(0.299988 -0.000381841 0)
(0.29976 -0.00114592 0)
(0.299298 -0.00193295 0)
(0.298579 -0.00276037 0)
(0.297609 -0.00364922 0)
(0.296332 -0.00462227 0)
(0.29477 -0.00571502 0)
(0.292789 -0.00697112 0)
(0.29048 -0.0084468 0)
(0.287517 -0.0102446 0)
(0.284236 -0.0124457 0)
(0.279761 -0.0153435 0)
(0.275274 -0.0189996 0)
(0.26821 -0.0243811 0)
(0.262842 -0.0312021 0)
(0.250811 -0.0430597 0)
(0.248869 -0.0573343 0)
(0.227979 -0.0898567 0)
(0.254443 -0.119765 0)
(0.251125 -0.244339 0)
(0.302681 -0.0255251 0)
(0.302993 -0.025281 0)
(0.303313 -0.0249034 0)
(0.303641 -0.0244005 0)
(0.303974 -0.0237756 0)
(0.304308 -0.0230453 0)
(0.304642 -0.0222047 0)
(0.304969 -0.0212945 0)
(0.305296 -0.0202692 0)
(0.305602 -0.0192514 0)
(0.304204 -0.0260242 0)
(0.304628 -0.0258004 0)
(0.305055 -0.025437 0)
(0.30548 -0.0249419 0)
(0.305896 -0.0243183 0)
(0.306301 -0.0235846 0)
(0.30669 -0.022734 0)
(0.307059 -0.0218128 0)
(0.307406 -0.020767 0)
(0.307726 -0.0197399 0)
(0.306125 -0.0266578 0)
(0.306714 -0.0264347 0)
(0.307298 -0.0260638 0)
(0.307869 -0.025554 0)
(0.30842 -0.024908 0)
(0.308945 -0.0241467 0)
(0.309437 -0.0232615 0)
(0.309892 -0.0223043 0)
(0.310307 -0.0212142 0)
(0.310677 -0.0201471 0)
(0.308148 -0.0274972 0)
(0.308925 -0.0272702 0)
(0.309691 -0.0268831 0)
(0.310434 -0.0263461 0)
(0.311145 -0.0256617 0)
(0.311814 -0.0248545 0)
(0.312432 -0.0239132 0)
(0.312996 -0.0228995 0)
(0.3135 -0.0217401 0)
(0.313941 -0.0206192 0)
(0.310199 -0.0285877 0)
(0.311186 -0.0283525 0)
(0.312154 -0.0279397 0)
(0.313089 -0.0273617 0)
(0.313977 -0.0266206 0)
(0.314806 -0.025747 0)
(0.315566 -0.0247259 0)
(0.316251 -0.0236329 0)
(0.316852 -0.0223774 0)
(0.317372 -0.021182 0)
(0.312263 -0.0299542 0)
(0.313485 -0.0297053 0)
(0.31468 -0.0292551 0)
(0.315829 -0.0286189 0)
(0.316913 -0.0277994 0)
(0.317919 -0.0268349 0)
(0.318831 -0.0257063 0)
(0.319644 -0.0245077 0)
(0.320349 -0.0231256 0)
(0.320949 -0.0218326 0)
(0.314336 -0.0316301 0)
(0.315826 -0.0313615 0)
(0.317279 -0.0308598 0)
(0.31867 -0.0301449 0)
(0.319974 -0.0292201 0)
(0.321174 -0.0281352 0)
(0.32225 -0.0268659 0)
(0.3232 -0.0255304 0)
(0.32401 -0.0239863 0)
(0.32469 -0.0225701 0)
(0.316413 -0.0336611 0)
(0.318214 -0.0333662 0)
(0.319967 -0.0327953 0)
(0.321636 -0.0319748 0)
(0.323189 -0.0309105 0)
(0.324605 -0.0296678 0)
(0.325859 -0.0282168 0)
(0.326952 -0.0267065 0)
(0.327866 -0.0249586 0)
(0.328623 -0.023389 0)
(0.318484 -0.0361084 0)
(0.320656 -0.035779 0)
(0.322764 -0.0351151 0)
(0.32476 -0.0341529 0)
(0.326598 -0.0329038 0)
(0.328254 -0.0314549 0)
(0.329699 -0.0297708 0)
(0.33094 -0.028039 0)
(0.331955 -0.0260372 0)
(0.332779 -0.024278 0)
(0.320538 -0.0390549 0)
(0.323162 -0.03868 0)
(0.325701 -0.0378892 0)
(0.328085 -0.0367343 0)
(0.330252 -0.0352389 0)
(0.332175 -0.0335206 0)
(0.333823 -0.0315385 0)
(0.335214 -0.0295269 0)
(0.336319 -0.0272115 0)
(0.337196 -0.025219 0)
(0.322556 -0.0426161 0)
(0.325746 -0.0421796 0)
(0.328822 -0.0412094 0)
(0.331674 -0.039786 0)
(0.334222 -0.0379594 0)
(0.336439 -0.0358878 0)
(0.338299 -0.0335259 0)
(0.339832 -0.0311615 0)
(0.341011 -0.0284615 0)
(0.341912 -0.0261823 0)
(0.324514 -0.0469577 0)
(0.328441 -0.0464338 0)
(0.332202 -0.0451981 0)
(0.335624 -0.0433907 0)
(0.338607 -0.0411136 0)
(0.341139 -0.0385754 0)
(0.343209 -0.0357287 0)
(0.344864 -0.0329184 0)
(0.346081 -0.0297497 0)
(0.346953 -0.0271177 0)
(0.326375 -0.0523195 0)
(0.331307 -0.0516585 0)
(0.335974 -0.0500153 0)
(0.340088 -0.0476521 0)
(0.343557 -0.0447593 0)
(0.346401 -0.0415993 0)
(0.348652 -0.0381285 0)
(0.350359 -0.0347464 0)
(0.351526 -0.0310049 0)
(0.35225 -0.027929 0)
(0.328096 -0.0590688 0)
(0.334486 -0.0581339 0)
(0.340371 -0.0558387 0)
(0.345302 -0.0526739 0)
(0.349261 -0.0489426 0)
(0.352333 -0.0449428 0)
(0.354624 -0.0406575 0)
(0.356162 -0.0365225 0)
(0.357041 -0.0320739 0)
(0.35731 -0.0284105 0)
(0.329751 -0.0678499 0)
(0.338358 -0.0662176 0)
(0.345795 -0.062796 0)
(0.351504 -0.058437 0)
(0.355718 -0.0535201 0)
(0.358604 -0.0483459 0)
(0.360426 -0.0429768 0)
(0.361143 -0.0378373 0)
(0.361124 -0.0325208 0)
(0.360203 -0.0280561 0)
(0.331998 -0.0799186 0)
(0.343853 -0.0765409 0)
(0.352598 -0.0710277 0)
(0.358173 -0.0646403 0)
(0.361442 -0.0577999 0)
(0.362723 -0.0508489 0)
(0.36261 -0.0439824 0)
(0.360979 -0.0375163 0)
(0.358819 -0.0311936 0)
(0.35532 -0.0257076 0)
(0.336446 -0.0969218 0)
(0.35141 -0.0899352 0)
(0.358657 -0.0805278 0)
(0.360598 -0.0702854 0)
(0.359357 -0.059989 0)
(0.355677 -0.0502316 0)
(0.350697 -0.0413109 0)
(0.344273 -0.0332857 0)
(0.338258 -0.0260224 0)
(0.330584 -0.0195341 0)
(0.341679 -0.116263 0)
(0.353011 -0.101757 0)
(0.350286 -0.0855267 0)
(0.341223 -0.0690931 0)
(0.329326 -0.0541663 0)
(0.316104 -0.0415536 0)
(0.303163 -0.0311699 0)
(0.290515 -0.0225557 0)
(0.280287 -0.0153491 0)
(0.268935 -0.00883328 0)
(0.32972 -0.117441 0)
(0.312295 -0.0882555 0)
(0.285625 -0.064046 0)
(0.258827 -0.0426591 0)
(0.233618 -0.0261874 0)
(0.212017 -0.0148353 0)
(0.195129 -0.00745692 0)
(0.182276 -0.00272197 0)
(0.173695 0.000676832 0)
(0.165171 0.00435103 0)
(0.245526 -0.131489 0)
(0.135299 -0.0676045 0)
(0.091056 -0.0283757 0)
(0.0702204 -0.00757999 0)
(0.057466 0.0010495 0)
(0.0510062 0.00374527 0)
(0.0486186 0.00412203 0)
(0.0484331 0.00383155 0)
(0.049791 0.00389036 0)
(0.0501261 0.00511151 0)
(0.306468 -0.0158479 0)
(0.307517 -0.0101576 0)
(0.308256 -0.00502935 0)
(0.308693 -0.000853668 0)
(0.309003 0.00231198 0)
(0.309239 0.00481802 0)
(0.309325 0.00652612 0)
(0.309494 0.00784146 0)
(0.309396 0.00861719 0)
(0.309398 0.00855398 0)
(0.309366 0.00844729 0)
(0.309329 0.00761873 0)
(0.309613 0.00717075 0)
(0.309735 0.00713985 0)
(0.310006 0.00693844 0)
(0.310259 0.00786068 0)
(0.310055 0.00780508 0)
(0.310233 0.00796706 0)
(0.309742 0.00772977 0)
(0.309848 0.00624641 0)
(0.308579 -0.0162251 0)
(0.30931 -0.0104086 0)
(0.309654 -0.00518835 0)
(0.309739 -0.000967491 0)
(0.30978 0.00223555 0)
(0.309809 0.00477867 0)
(0.309755 0.00650016 0)
(0.309809 0.00783836 0)
(0.309613 0.00863334 0)
(0.309559 0.00856346 0)
(0.309492 0.00845793 0)
(0.309465 0.00758561 0)
(0.3098 0.00711449 0)
(0.309947 0.00708152 0)
(0.310257 0.00686659 0)
(0.310492 0.00784823 0)
(0.310239 0.00780836 0)
(0.310404 0.00800802 0)
(0.309839 0.00778811 0)
(0.309982 0.00623364 0)
(0.311612 -0.0164865 0)
(0.312091 -0.0105294 0)
(0.312022 -0.00520915 0)
(0.311667 -0.000934696 0)
(0.311332 0.00226387 0)
(0.311042 0.00480678 0)
(0.310751 0.00652195 0)
(0.310599 0.00788051 0)
(0.310205 0.00868276 0)
(0.310023 0.00859382 0)
(0.30986 0.00847425 0)
(0.309818 0.00753275 0)
(0.310227 0.0070405 0)
(0.310399 0.00700352 0)
(0.310778 0.0067879 0)
(0.310982 0.00785484 0)
(0.310637 0.00782857 0)
(0.310769 0.00807601 0)
(0.310052 0.0078553 0)
(0.310253 0.00620552 0)
(0.315015 -0.0167213 0)
(0.315315 -0.0105581 0)
(0.314894 -0.00510542 0)
(0.314129 -0.000787859 0)
(0.313425 0.00239604 0)
(0.312803 0.00492052 0)
(0.312254 0.00661635 0)
(0.311856 0.00799091 0)
(0.311205 0.00878386 0)
(0.31084 0.00866308 0)
(0.310529 0.00850961 0)
(0.310435 0.00747398 0)
(0.310923 0.00696036 0)
(0.311112 0.00691444 0)
(0.31158 0.00671325 0)
(0.311739 0.00788472 0)
(0.311263 0.00786941 0)
(0.311341 0.00817118 0)
(0.310406 0.00793352 0)
(0.310661 0.00616736 0)
(0.318605 -0.0169577 0)
(0.318732 -0.0105308 0)
(0.317992 -0.00490811 0)
(0.316852 -0.000546761 0)
(0.315816 0.00261587 0)
(0.314898 0.00511035 0)
(0.314114 0.00678013 0)
(0.313475 0.00817383 0)
(0.312549 0.0089477 0)
(0.311972 0.00878425 0)
(0.31148 0.00857685 0)
(0.311307 0.00741349 0)
(0.311879 0.00687242 0)
(0.312075 0.00680959 0)
(0.312647 0.00663651 0)
(0.312747 0.00794046 0)
(0.312112 0.00793745 0)
(0.31211 0.00830771 0)
(0.310901 0.00803904 0)
(0.311189 0.00612142 0)
(0.322337 -0.0171873 0)
(0.322253 -0.0104501 0)
(0.321187 -0.0046209 0)
(0.319679 -0.000216104 0)
(0.318336 0.00291339 0)
(0.31716 0.00536496 0)
(0.316179 0.00700458 0)
(0.315323 0.00842671 0)
(0.314127 0.00917692 0)
(0.313326 0.00896294 0)
(0.312641 0.00868139 0)
(0.312372 0.0073515 0)
(0.313034 0.0067753 0)
(0.313234 0.00668519 0)
(0.313924 0.00655606 0)
(0.313957 0.00802752 0)
(0.313139 0.00804068 0)
(0.313031 0.00849865 0)
(0.311507 0.0081823 0)
(0.311795 0.00607037 0)
(0.326218 -0.0173968 0)
(0.32585 -0.0103095 0)
(0.324425 -0.00423577 0)
(0.32253 0.000202064 0)
(0.320883 0.00328227 0)
(0.319476 0.00567485 0)
(0.31833 0.00728173 0)
(0.317277 0.00874498 0)
(0.315822 0.00947041 0)
(0.314788 0.00920121 0)
(0.313903 0.00882481 0)
(0.313527 0.00728787 0)
(0.314287 0.00666831 0)
(0.314496 0.00653843 0)
(0.315314 0.00647258 0)
(0.315275 0.00814973 0)
(0.314258 0.00818547 0)
(0.314018 0.00875296 0)
(0.312153 0.0083716 0)
(0.312394 0.00601936 0)
(0.330261 -0.0175665 0)
(0.329514 -0.010099 0)
(0.327682 -0.00373899 0)
(0.32536 0.000710836 0)
(0.323391 0.00372032 0)
(0.321766 0.00603384 0)
(0.320472 0.00760676 0)
(0.319226 0.00912578 0)
(0.317516 0.00982807 0)
(0.316228 0.00950175 0)
(0.315138 0.00900838 0)
(0.314639 0.00722347 0)
(0.315493 0.00655098 0)
(0.315715 0.00636664 0)
(0.31666 0.00638661 0)
(0.316557 0.00830845 0)
(0.315327 0.00837676 0)
(0.314933 0.00907718 0)
(0.312718 0.00861537 0)
(0.312852 0.00597555 0)
(0.334485 -0.01767 0)
(0.333235 -0.0098051 0)
(0.330933 -0.00311099 0)
(0.32812 0.00131955 0)
(0.325792 0.00423054 0)
(0.323945 0.00644013 0)
(0.322497 0.00797966 0)
(0.321045 0.00957042 0)
(0.319067 0.0102538 0)
(0.317487 0.0098706 0)
(0.316175 0.0092357 0)
(0.315521 0.00716268 0)
(0.316446 0.00642492 0)
(0.316682 0.00616867 0)
(0.317739 0.00629907 0)
(0.31759 0.00850288 0)
(0.31614 0.00861823 0)
(0.315579 0.00947518 0)
(0.313027 0.00892171 0)
(0.312974 0.00594805 0)
(0.338905 -0.017673 0)
(0.336992 -0.0094109 0)
(0.334127 -0.00232296 0)
(0.330722 0.00204066 0)
(0.327965 0.00482207 0)
(0.325863 0.00689772 0)
(0.324229 0.00840644 0)
(0.322537 0.0100852 0)
(0.320263 0.0107566 0)
(0.318335 0.0103184 0)
(0.316774 0.00951486 0)
(0.315905 0.00711632 0)
(0.31685 0.00629626 0)
(0.317089 0.00594699 0)
(0.318221 0.00621123 0)
(0.318071 0.00872886 0)
(0.316404 0.00891077 0)
(0.315688 0.00994598 0)
(0.312836 0.00929799 0)
(0.3125 0.00594836 0)
(0.343531 -0.0175304 0)
(0.340712 -0.00889168 0)
(0.337138 -0.00133019 0)
(0.332963 0.00289736 0)
(0.329653 0.00551536 0)
(0.327221 0.00741965 0)
(0.325327 0.00890023 0)
(0.323352 0.010681 0)
(0.320744 0.0113498 0)
(0.318406 0.0108594 0)
(0.316562 0.00985974 0)
(0.315386 0.00710404 0)
(0.316273 0.00617728 0)
(0.316489 0.00570842 0)
(0.317648 0.0061225 0)
(0.317589 0.00897561 0)
(0.31573 0.00924889 0)
(0.314917 0.0104806 0)
(0.311829 0.0097502 0)
(0.311099 0.00599021 0)
(0.34832 -0.0171755 0)
(0.344176 -0.00819885 0)
(0.339625 -6.03496e-05 0)
(0.334376 0.00393217 0)
(0.330314 0.00634967 0)
(0.327415 0.00803163 0)
(0.325158 0.00948041 0)
(0.322874 0.0113693 0)
(0.319911 0.0120461 0)
(0.31713 0.0115078 0)
(0.314979 0.0102889 0)
(0.313377 0.0071541 0)
(0.314108 0.00608576 0)
(0.314269 0.00546256 0)
(0.31542 0.00602529 0)
(0.315614 0.0092204 0)
(0.313628 0.00961499 0)
(0.312849 0.011058 0)
(0.309616 0.0102817 0)
(0.308382 0.00608818 0)
(0.353025 -0.0164908 0)
(0.346743 -0.00722766 0)
(0.340767 0.00159924 0)
(0.33397 0.00521511 0)
(0.32889 0.00738704 0)
(0.325349 0.00877027 0)
(0.322643 0.0101646 0)
(0.320107 0.012151 0)
(0.316845 0.0128465 0)
(0.313674 0.0122675 0)
(0.311232 0.0108202 0)
(0.309086 0.00729852 0)
(0.309577 0.00604037 0)
(0.309668 0.00521617 0)
(0.310824 0.0058969 0)
(0.311533 0.00942203 0)
(0.309547 0.00997266 0)
(0.30903 0.0116419 0)
(0.30576 0.0108913 0)
(0.30394 0.00625476 0)
(0.356705 -0.0152364 0)
(0.346792 -0.0057701 0)
(0.338795 0.00381658 0)
(0.329858 0.00684409 0)
(0.323546 0.00870214 0)
(0.319252 0.00966575 0)
(0.316162 0.0109462 0)
(0.313635 0.0129935 0)
(0.310303 0.0137194 0)
(0.30696 0.0131168 0)
(0.304328 0.0114599 0)
(0.301575 0.0075613 0)
(0.301811 0.00605045 0)
(0.301872 0.00496304 0)
(0.303143 0.00568992 0)
(0.304735 0.0095154 0)
(0.302951 0.0102615 0)
(0.303027 0.0121793 0)
(0.299828 0.0115708 0)
(0.297408 0.00649561 0)
(0.356637 -0.0129242 0)
(0.340834 -0.00347193 0)
(0.330448 0.00678896 0)
(0.318962 0.00890977 0)
(0.311579 0.010337 0)
(0.306732 0.0106961 0)
(0.303687 0.0117516 0)
(0.301777 0.0137961 0)
(0.298881 0.014573 0)
(0.29583 0.0139885 0)
(0.293236 0.012187 0)
(0.289951 0.00793974 0)
(0.290047 0.00610017 0)
(0.29022 0.00467114 0)
(0.291849 0.00532554 0)
(0.294767 0.00941174 0)
(0.293453 0.0103979 0)
(0.29452 0.0126047 0)
(0.29148 0.0123023 0)
(0.288559 0.00680368 0)
(0.346618 -0.00872458 0)
(0.322748 4.61634e-06 0)
(0.31087 0.0105717 0)
(0.297291 0.011372 0)
(0.289908 0.0121956 0)
(0.285347 0.0117096 0)
(0.283359 0.0123854 0)
(0.283089 0.0143582 0)
(0.281437 0.0152356 0)
(0.279385 0.0147575 0)
(0.277205 0.0129366 0)
(0.273685 0.00838356 0)
(0.273932 0.00613222 0)
(0.274497 0.00427257 0)
(0.276844 0.00469725 0)
(0.281519 0.00900951 0)
(0.280965 0.0102864 0)
(0.283413 0.0128503 0)
(0.280588 0.0130551 0)
(0.277419 0.00715328 0)
(0.315993 -0.00183171 0)
(0.284691 0.0046521 0)
(0.275119 0.0147829 0)
(0.261582 0.0138408 0)
(0.256573 0.0138942 0)
(0.253902 0.0123453 0)
(0.254527 0.0125052 0)
(0.257154 0.014385 0)
(0.257709 0.0154697 0)
(0.257479 0.0152491 0)
(0.2562 0.0135913 0)
(0.253006 0.00878156 0)
(0.253862 0.00604205 0)
(0.255219 0.00366612 0)
(0.258676 0.00369232 0)
(0.265383 0.0082187 0)
(0.265832 0.00984128 0)
(0.269936 0.0128603 0)
(0.267358 0.0137823 0)
(0.264366 0.00749624 0)
(0.253973 0.00700299 0)
(0.222451 0.00938334 0)
(0.222305 0.0182453 0)
(0.212389 0.0154589 0)
(0.212884 0.0147415 0)
(0.213978 0.0120746 0)
(0.218782 0.0116974 0)
(0.225298 0.0135708 0)
(0.228846 0.0150391 0)
(0.231137 0.0152783 0)
(0.23129 0.0139869 0)
(0.229208 0.00896617 0)
(0.23119 0.00569226 0)
(0.233772 0.00274196 0)
(0.238601 0.00223263 0)
(0.247315 0.00699307 0)
(0.248886 0.00901461 0)
(0.25471 0.0126033 0)
(0.252428 0.0144165 0)
(0.250179 0.00776182 0)
(0.165406 0.0144029 0)
(0.144719 0.0115531 0)
(0.159887 0.0192013 0)
(0.15621 0.0152661 0)
(0.164356 0.0140447 0)
(0.170353 0.010443 0)
(0.180097 0.00966736 0)
(0.190694 0.0117341 0)
(0.197533 0.0137953 0)
(0.202698 0.0147014 0)
(0.204774 0.0139383 0)
(0.204658 0.00874473 0)
(0.208169 0.00494766 0)
(0.212294 0.00142219 0)
(0.218455 0.000316163 0)
(0.228762 0.00535421 0)
(0.231412 0.00781376 0)
(0.238757 0.0120773 0)
(0.236882 0.0148751 0)
(0.236007 0.00786366 0)
(0.081226 0.01278 0)
(0.07163 0.00909874 0)
(0.100717 0.0167879 0)
(0.103153 0.0129698 0)
(0.118912 0.0115251 0)
(0.129673 0.00735666 0)
(0.143846 0.00640709 0)
(0.157753 0.0089037 0)
(0.1676 0.0117247 0)
(0.175543 0.0134409 0)
(0.179901 0.0132971 0)
(0.182422 0.0079747 0)
(0.187567 0.0037388 0)
(0.1933 -0.000288386 0)
(0.200361 -0.00196535 0)
(0.211487 0.00340221 0)
(0.215019 0.00629791 0)
(0.223438 0.0112971 0)
(0.222167 0.0150708 0)
(0.223225 0.00772655 0)
(0.0471086 0.00566425 0)
(0.0346794 0.00633888 0)
(0.0691062 0.0134242 0)
(0.0747873 0.0104429 0)
(0.0945764 0.00867182 0)
(0.107838 0.00455602 0)
(0.123969 0.00352292 0)
(0.139162 0.00642902 0)
(0.150575 0.00980309 0)
(0.160093 0.012072 0)
(0.166114 0.01239 0)
(0.170649 0.00704219 0)
(0.176748 0.00259874 0)
(0.18342 -0.00161933 0)
(0.190584 -0.00367625 0)
(0.20158 0.00196396 0)
(0.205509 0.00510189 0)
(0.214243 0.0105782 0)
(0.21357 0.0149481 0)
(0.216215 0.00746336 0)
(0.0312828 0.00206384 0)
(0.0175484 0.00492561 0)
(0.0540805 0.0112616 0)
(0.0613685 0.00886628 0)
(0.0830712 0.00684043 0)
(0.0975123 0.00287683 0)
(0.114419 0.00179821 0)
(0.130048 0.00495188 0)
(0.142169 0.00862585 0)
(0.152446 0.0111884 0)
(0.159388 0.0117611 0)
(0.165066 0.00641948 0)
(0.171643 0.0018866 0)
(0.178783 -0.00238978 0)
(0.185873 -0.00464634 0)
(0.196615 0.00115328 0)
(0.200703 0.00440746 0)
(0.209496 0.0101349 0)
(0.209197 0.0148089 0)
(0.212775 0.00727737 0)
(0.0194926 0.000214343 0)
(0.00455189 0.00356599 0)
(0.0424797 0.0089161 0)
(0.051096 0.00713921 0)
(0.0742946 0.0048552 0)
(0.0896188 0.00111966 0)
(0.106937 2.67242e-05 0)
(0.122687 0.00342891 0)
(0.135306 0.00738102 0)
(0.146181 0.010217 0)
(0.153985 0.011023 0)
(0.160763 0.00571217 0)
(0.167732 0.00112572 0)
(0.175251 -0.00317149 0)
(0.182136 -0.00559137 0)
(0.192443 0.000356657 0)
(0.196621 0.0037082 0)
(0.205347 0.0096678 0)
(0.20545 0.0145983 0)
(0.209964 0.007045 0)
(0.0117951 -0.000453237 0)
(-0.0042028 0.00222483 0)
(0.0346043 0.00643787 0)
(0.0442371 0.0052769 0)
(0.0684955 0.00276203 0)
(0.0843719 -0.0006917 0)
(0.101731 -0.00175576 0)
(0.117283 0.00188533 0)
(0.130175 0.00608746 0)
(0.141466 0.00917281 0)
(0.150044 0.0101826 0)
(0.157845 0.00492887 0)
(0.165105 0.000327737 0)
(0.172898 -0.0039564 0)
(0.17945 -0.00649413 0)
(0.189148 -0.000416014 0)
(0.193348 0.00301358 0)
(0.20188 0.00918426 0)
(0.202404 0.0143158 0)
(0.207836 0.0067624 0)
(0.00814109 -0.000505848 0)
(-0.00863644 0.000923748 0)
(0.0306553 0.00387018 0)
(0.0409655 0.0033222 0)
(0.0658345 0.000603698 0)
(0.0819121 -0.00251717 0)
(0.0989528 -0.00351164 0)
(0.113992 0.000351103 0)
(0.126921 0.00476829 0)
(0.138434 0.00807156 0)
(0.147667 0.00925091 0)
(0.15638 0.00408081 0)
(0.163817 -0.000495673 0)
(0.17177 -0.00473111 0)
(0.177872 -0.00733885 0)
(0.186801 -0.00115122 0)
(0.190956 0.00233452 0)
(0.199166 0.00869006 0)
(0.200124 0.0139622 0)
(0.20643 0.00643169 0)
(0.00848876 -0.000368168 0)
(-0.00870467 -0.000344534 0)
(0.0307305 0.00125499 0)
(0.0413591 0.00132044 0)
(0.0663794 -0.00157634 0)
(0.0823013 -0.0043162 0)
(0.0986832 -0.00520501 0)
(0.112912 -0.00114332 0)
(0.125643 0.00344752 0)
(0.137172 0.006931 0)
(0.146916 0.00824193 0)
(0.156401 0.00318119 0)
(0.163894 -0.00133177 0)
(0.171886 -0.00548254 0)
(0.177435 -0.00811133 0)
(0.185451 -0.00183682 0)
(0.189498 0.00168146 0)
(0.197267 0.00819124 0)
(0.198659 0.0135401 0)
(0.205774 0.00605639 0)
(0.0128594 -0.000444453 0)
(-0.0043925 -0.0016186 0)
(0.0348247 -0.00136409 0)
(0.0453997 -0.000684296 0)
(0.0701037 -0.0037339 0)
(0.0855206 -0.00605162 0)
(0.100934 -0.00680289 0)
(0.114083 -0.00256957 0)
(0.126383 0.00214909 0)
(0.137723 0.00577086 0)
(0.147809 0.00717245 0)
(0.157903 0.00224503 0)
(0.165327 -0.00216715 0)
(0.173233 -0.00619895 0)
(0.178148 -0.00879942 0)
(0.18513 -0.00246246 0)
(0.18901 0.00106401 0)
(0.196227 0.00769437 0)
(0.198043 0.0130536 0)
(0.205882 0.00564087 0)
(0.0213312 -0.00117713 0)
(0.00428617 -0.00290027 0)
(0.0428332 -0.00393834 0)
(0.052976 -0.00264264 0)
(0.0768888 -0.00582553 0)
(0.0914704 -0.0076879 0)
(0.105643 -0.00827617 0)
(0.117481 -0.00390185 0)
(0.129133 0.000896341 0)
(0.140082 0.00461275 0)
(0.150326 0.00606202 0)
(0.160847 0.00128905 0)
(0.168076 -0.0029879 0)
(0.175776 -0.00687003 0)
(0.179992 -0.00939336 0)
(0.185847 -0.00301942 0)
(0.189509 0.000490468 0)
(0.196074 0.00720665 0)
(0.198292 0.0125087 0)
(0.206751 0.00519089 0)
(0.0339723 -0.00314204 0)
(0.0172832 -0.00413913 0)
(0.0545519 -0.00641327 0)
(0.0638873 -0.00450408 0)
(0.0865289 -0.00780783 0)
(0.0999741 -0.00919351 0)
(0.112676 -0.00959952 0)
(0.123016 -0.00511701 0)
(0.133824 -0.000288684 0)
(0.144199 0.00347868 0)
(0.154403 0.00493197 0)
(0.165156 0.000330905 0)
(0.172069 -0.00378025 0)
(0.179447 -0.00748668 0)
(0.182925 -0.00988579 0)
(0.187589 -0.0035008 0)
(0.190989 -3.26121e-05 0)
(0.196821 0.00673511 0)
(0.199407 0.0119129 0)
(0.208366 0.00471305 0)
(0.0507078 -0.00686795 0)
(0.034517 -0.00540443 0)
(0.0696828 -0.00874908 0)
(0.0778496 -0.00625939 0)
(0.0987389 -0.00963212 0)
(0.110785 -0.0105539 0)
(0.121831 -0.0107496 0)
(0.130541 -0.00619907 0)
(0.140338 -0.00138689 0)
(0.149975 0.00238296 0)
(0.159941 0.00379994 0)
(0.170728 -0.000615887 0)
(0.177211 -0.00453565 0)
(0.184158 -0.008039 0)
(0.18688 -0.0102718 0)
(0.190319 -0.00390078 0)
(0.193425 -0.000496079 0)
(0.198462 0.00628179 0)
(0.201372 0.0112767 0)
(0.210699 0.00421 0)
(0.0950502 -0.0164982 0)
(0.0809183 -0.00901272 0)
(0.1092 -0.0135166 0)
(0.114072 -0.00995421 0)
(0.130125 -0.0131524 0)
(0.138646 -0.0132102 0)
(0.145789 -0.0128338 0)
(0.150781 -0.00824596 0)
(0.1581 -0.00355481 0)
(0.165845 8.31079e-05 0)
(0.174878 0.00135222 0)
(0.185309 -0.00264378 0)
(0.190627 -0.00610005 0)
(0.196425 -0.00907717 0)
(0.197509 -0.0108786 0)
(0.198281 -0.00458205 0)