/*--------------------------------*- C++ -*----------------------------------*\
| =========                 |                                                 |
| \\      /  F ield         | OpenFOAM: The Open Source CFD Toolbox           |
|  \\    /   O peration     | Version:  v1806                                 |
|   \\  /    A nd           | Web:      www.OpenFOAM.com                      |
|    \\/     M anipulation  |                                                 |
\*---------------------------------------------------------------------------*/
FoamFile
{
    version     2.0;
    format      ascii;
    class       volScalarField;
    location    "13";
    object      p;
}
// * * * * * * * * * * * * * * * * * * * * * * * * * * * * * * * * * * * * * //

dimensions      [0 2 -2 0 0 0 0];


internalField   nonuniform List<scalar> 
2400
(
0.00478635
0.00519843
0.00415166
0.00495653
0.00613879
0.00770772
0.00762354
0.010538
0.011031
0.0148906
0.0147945
0.0211578
0.0200577
0.0293164
0.0238588
0.0359567
0.0243023
0.0347264
0.0156595
0.012417
0.0147683
0.0152573
0.0123429
0.0150982
0.0172364
0.0221932
0.0232781
0.0311374
0.0329925
0.0436442
0.0443394
0.06278
0.0607183
0.0852741
0.0718569
0.105749
0.0733696
0.102713
0.0463213
0.0380081
0.0250147
0.024721
0.0205812
0.0248895
0.0286935
0.0364706
0.0384816
0.0507726
0.0548696
0.0717414
0.0743466
0.10245
0.101045
0.13935
0.121222
0.173003
0.12304
0.170018
0.0764908
0.068336
0.0356263
0.0335036
0.0288314
0.0347054
0.040128
0.0500461
0.0536292
0.0696736
0.0766306
0.0987859
0.104182
0.140743
0.141917
0.191587
0.171048
0.238642
0.173779
0.238303
0.106287
0.104055
0.0465725
0.0413965
0.03726
0.0444136
0.051609
0.0632449
0.0687724
0.0876405
0.0982472
0.124724
0.13416
0.177451
0.182869
0.242172
0.222178
0.302556
0.225431
0.307607
0.135813
0.147165
0.0575992
0.0482878
0.0460061
0.0540833
0.0632605
0.0760545
0.0839047
0.10492
0.11961
0.149506
0.163896
0.212701
0.224212
0.291152
0.274347
0.364896
0.279189
0.378162
0.16566
0.19759
0.06835
0.0540399
0.0552131
0.0636305
0.0751084
0.0884996
0.0991645
0.121563
0.140717
0.173313
0.193463
0.246555
0.265651
0.338545
0.327925
0.426001
0.335864
0.449759
0.197224
0.255139
0.0784742
0.0588045
0.0645938
0.0727767
0.0873491
0.100279
0.114629
0.137796
0.161472
0.196348
0.222865
0.279194
0.307212
0.384481
0.382764
0.486524
0.397087
0.522641
0.232198
0.318478
0.0878105
0.0627886
0.0737635
0.08125
0.0995385
0.111056
0.130502
0.153468
0.181856
0.218753
0.252137
0.310897
0.348608
0.429108
0.439093
0.547168
0.464221
0.597551
0.273058
0.387535
0.096368
0.0661167
0.0824934
0.088933
0.111121
0.120771
0.146447
0.168026
0.202347
0.240276
0.281178
0.34188
0.389649
0.472623
0.497061
0.608458
0.538477
0.676094
0.323865
0.462958
0.104308
0.0689442
0.0907601
0.0957949
0.121987
0.129458
0.161689
0.181371
0.223587
0.260166
0.310328
0.371927
0.430341
0.51511
0.556802
0.670493
0.619889
0.7598
0.390191
0.547369
0.111863
0.0715679
0.0987261
0.101986
0.132298
0.137178
0.176083
0.193504
0.243742
0.278008
0.340145
0.399828
0.47099
0.556164
0.61827
0.732724
0.708435
0.848737
0.476192
0.645482
0.119212
0.0743238
0.106609
0.107832
0.142335
0.144291
0.189933
0.204506
0.263381
0.294116
0.36972
0.424777
0.513219
0.59532
0.681661
0.793368
0.803857
0.940975
0.582292
0.759576
0.126338
0.0774534
0.114552
0.113589
0.152284
0.151279
0.203525
0.214797
0.282828
0.309058
0.398903
0.447508
0.558112
0.631491
0.750567
0.851676
0.906736
1.02894
0.707372
0.887486
0.132958
0.0809307
0.12248
0.119424
0.162117
0.15841
0.21694
0.224728
0.302094
0.32363
0.427848
0.469373
0.604048
0.665807
0.827
0.909225
1.02262
1.10713
0.849442
1.01868
0.138748
0.0843656
0.130025
0.125076
0.171503
0.165491
0.229902
0.234463
0.3206
0.338003
0.456035
0.49055
0.649418
0.700855
0.909279
0.968093
1.16467
1.1803
1.01056
1.11309
0.143609
0.0874111
0.136844
0.130136
0.179939
0.171862
0.241754
0.243553
0.337491
0.351384
0.481898
0.510753
0.691733
0.73605
0.989018
1.03187
1.33187
1.28174
1.2295
1.09155
0.147773
0.0899369
0.142819
0.134461
0.187322
0.177221
0.252159
0.251568
0.352133
0.362747
0.504184
0.528956
0.728675
0.768382
1.06071
1.09809
1.50273
1.41322
1.59181
0.951919
0.151655
0.0920909
0.148085
0.138082
0.193796
0.181646
0.261162
0.258381
0.364834
0.372079
0.523191
0.544642
0.760403
0.796464
1.12385
1.16063
1.66663
1.56253
2.10375
0.745756
0.15545
0.0941056
0.152754
0.141163
0.199544
0.185494
0.269054
0.263992
0.376012
0.379832
0.53973
0.557475
0.78791
0.820355
1.17871
1.21895
1.81196
1.73133
2.75834
0.815601
0.00335256
-0.00922636
-0.0196349
-0.0253422
-0.0286773
-0.0310525
-0.0330345
-0.0356335
-0.0370316
-0.0383089
0.00856359
-0.0291193
-0.0589869
-0.0757989
-0.0858695
-0.0936684
-0.100351
-0.107497
-0.111724
-0.114801
0.011508
-0.0522617
-0.0993725
-0.126185
-0.143624
-0.157595
-0.169392
-0.180837
-0.187539
-0.191776
0.010094
-0.0793012
-0.140858
-0.176957
-0.202368
-0.223221
-0.240884
-0.256029
-0.264295
-0.26876
0.00364528
-0.111081
-0.183742
-0.228775
-0.26303
-0.291419
-0.314957
-0.333047
-0.342089
-0.346014
-0.00899714
-0.147905
-0.228164
-0.282728
-0.326404
-0.363022
-0.392397
-0.412384
-0.420702
-0.423009
-0.0280803
-0.190175
-0.275353
-0.340114
-0.393596
-0.439046
-0.473598
-0.494133
-0.500369
-0.499708
-0.0552067
-0.236384
-0.326624
-0.402459
-0.465796
-0.520327
-0.559259
-0.579466
-0.582089
-0.576149
-0.0918545
-0.285995
-0.38439
-0.471809
-0.544894
-0.608435
-0.650281
-0.668809
-0.666286
-0.65268
-0.140435
-0.340057
-0.450091
-0.549904
-0.633109
-0.704521
-0.748116
-0.763743
-0.752846
-0.728661
-0.203136
-0.401302
-0.52558
-0.638447
-0.733351
-0.810475
-0.854914
-0.86669
-0.841458
-0.802268
-0.281706
-0.473506
-0.612767
-0.738991
-0.848255
-0.929001
-0.973639
-0.981618
-0.93629
-0.870878
-0.378061
-0.563076
-0.714866
-0.853885
-0.977933
-1.06523
-1.11121
-1.11118
-1.04766
-0.93773
-0.495942
-0.677341
-0.837939
-0.987161
-1.12049
-1.22049
-1.27855
-1.2508
-1.18504
-1.01352
-0.645543
-0.823097
-0.991207
-1.14445
-1.26986
-1.38271
-1.47599
-1.38735
-1.30958
-1.09732
-0.855564
-1.01582
-1.17781
-1.32931
-1.41773
-1.52027
-1.64239
-1.59586
-1.46948
-1.03491
-1.15707
-1.26775
-1.39475
-1.52232
-1.60261
-1.64316
-1.63786
-1.49887
-1.58131
-1.2276
-1.54742
-1.5076
-1.64484
-1.47395
-1.45817
-1.65257
-1.75731
-1.55866
-1.48347
-1.15598
-1.91121
-1.58824
-1.71028
-1.72991
-1.61844
-1.58329
-1.62525
-1.48078
-1.4868
-1.20194
-2.63514
-1.56501
-1.85645
-1.56348
-1.54782
-1.60108
-1.64197
-1.48664
-1.46121
-1.20634
-0.0385095
-0.038911
-0.0391418
-0.0403156
-0.0411874
-0.042635
-0.0436301
-0.0445778
-0.0444942
-0.0440169
-0.042841
-0.0403693
-0.0356412
-0.032122
-0.0277097
-0.0209779
-0.0153452
-0.0080184
-0.00519769
-0.000984047
-0.116103
-0.117207
-0.11856
-0.121556
-0.124827
-0.128719
-0.132009
-0.134396
-0.135111
-0.133646
-0.130782
-0.125375
-0.116959
-0.105323
-0.0895794
-0.0743095
-0.05689
-0.0380359
-0.018738
-0.00497569
-0.193536
-0.195358
-0.19837
-0.203908
-0.210047
-0.216835
-0.222658
-0.227059
-0.22863
-0.227175
-0.222252
-0.212177
-0.196669
-0.17692
-0.151736
-0.122537
-0.0937341
-0.061802
-0.0336915
-0.0104626
-0.270623
-0.273079
-0.278133
-0.286812
-0.296352
-0.306186
-0.314996
-0.321793
-0.325272
-0.323988
-0.318289
-0.304763
-0.282925
-0.255169
-0.218749
-0.179463
-0.135905
-0.0918029
-0.0497527
-0.0148261
-0.347057
-0.350109
-0.357606
-0.369911
-0.383399
-0.397679
-0.410461
-0.421511
-0.428381
-0.429348
-0.423719
-0.4061
-0.378637
-0.340399
-0.29227
-0.238104
-0.17942
-0.120406
-0.0645568
-0.019876
-0.422887
-0.426249
-0.436344
-0.452828
-0.471542
-0.491315
-0.510075
-0.526993
-0.538974
-0.54373
-0.53945
-0.519971
-0.484976
-0.436632
-0.374188
-0.304425
-0.228035
-0.152747
-0.0831661
-0.0256426
-0.497601
-0.501086
-0.513504
-0.534466
-0.559396
-0.587361
-0.614762
-0.641091
-0.661578
-0.673093
-0.672671
-0.650485
-0.609517
-0.547933
-0.469668
-0.380673
-0.284651
-0.191728
-0.103639
-0.0318442
-0.570684
-0.573588
-0.588324
-0.614083
-0.646666
-0.685153
-0.725343
-0.765532
-0.799092
-0.822185
-0.828104
-0.805213
-0.757044
-0.680885
-0.582839
-0.470409
-0.350279
-0.236724
-0.129397
-0.0402074
-0.64132
-0.642228
-0.65861
-0.690394
-0.732747
-0.784558
-0.841304
-0.901426
-0.954782
-0.995832
-1.01889
-0.996674
-0.941828
-0.846217
-0.723316
-0.580813
-0.431158
-0.292565
-0.159768
-0.0496987
-0.708435
-0.704449
-0.720235
-0.759334
-0.816224
-0.887192
-0.967167
-1.05631
-1.14018
-1.20723
-1.2431
-1.24059
-1.17901
-1.05898
-0.902159
-0.719111
-0.53143
-0.359445
-0.196619
-0.0620086
-0.770431
-0.75822
-0.768989
-0.816271
-0.892221
-0.989636
-1.10293
-1.23358
-1.36495
-1.47936
-1.55931
-1.57483
-1.50452
-1.34993
-1.14151
-0.899944
-0.65861
-0.438583
-0.238405
-0.0757449
-0.820206
-0.79693
-0.801486
-0.85462
-0.948735
-1.08121
-1.2429
-1.43088
-1.6286
-1.80765
-1.94612
-1.99012
-1.92138
-1.73291
-1.45649
-1.13651
-0.819754
-0.5326
-0.287248
-0.0904465
-0.839072
-0.804994
-0.818909
-0.877042
-0.973537
-1.12842
-1.34303
-1.60282
-1.88024
-2.14255
-2.34499
-2.44366
-2.3937
-2.1831
-1.83745
-1.42703
-1.01108
-0.63945
-0.340497
-0.102434
-0.820459
-0.759866
-0.804175
-0.889229
-0.986034
-1.13923
-1.36783
-1.67297
-2.00841
-2.34409
-2.61675
-2.78286
-2.78091
-2.57664
-2.19139
-1.71061
-1.20437
-0.754018
-0.393119
-0.105746
-0.88287
-0.787656
-0.747483
-0.784782
-0.922443
-1.13351
-1.38886
-1.70543
-2.05408
-2.42664
-2.7366
-2.94617
-2.98552
-2.80428
-2.41824
-1.90044
-1.34143
-0.836503
-0.426718
-0.104288
-0.810452
-0.876825
-0.911147
-0.936391
-1.01669
-1.17313
-1.40952
-1.71582
-2.06374
-2.44061
-2.75596
-2.98791
-3.03078
-2.86876
-2.4857
-1.96576
-1.40369
-0.871302
-0.441793
-0.0982209
-0.961602
-0.952267
-0.923618
-0.957102
-1.05404
-1.21079
-1.43056
-1.71396
-2.03872
-2.38626
-2.67832
-2.8948
-2.92148
-2.77437
-2.40166
-1.92028
-1.38311
-0.850153
-0.447914
-0.083943
-1.00214
-1.03603
-1.04504
-1.07044
-1.14443
-1.26833
-1.45254
-1.68886
-1.96353
-2.25478
-2.4985
-2.67065
-2.67165
-2.54575
-2.19192
-1.77649
-1.28248
-0.78862
-0.442383
-0.0625523
-1.13247
-1.11474
-1.12384
-1.1436
-1.21463
-1.32075
-1.47454
-1.6657
-1.88302
-2.10292
-2.2822
-2.38604
-2.3597
-2.21895
-1.91647
-1.55446
-1.12525
-0.692195
-0.400269
-0.0432273
-1.2005
-1.17463
-1.19366
-1.21412
-1.27731
-1.3686
-1.49455
-1.64516
-1.80959
-1.96545
-2.08193
-2.12879
-2.07693
-1.92176
-1.65003
-1.33095
-0.96026
-0.598443
-0.338604
-0.0355189
-1.21208
-1.21554
-1.23619
-1.26581
-1.3259
-1.4087
-1.51569
-1.63758
-1.76384
-1.87467
-1.94649
-1.95512
-1.8822
-1.72159
-1.47133
-1.17985
-0.849543
-0.538138
-0.28935
-0.0357924
-1.22628
-1.2412
-1.27004
-1.30678
-1.36658
-1.44348
-1.53681
-1.63795
-1.73709
-1.81718
-1.85894
-1.84326
-1.75667
-1.59499
-1.35711
-1.0835
-0.779604
-0.497925
-0.26162
-0.0388796
-1.24482
-1.26534
-1.2999
-1.34534
-1.4063
-1.47952
-1.56165
-1.64606
-1.72416
-1.78161
-1.80215
-1.77004
-1.67411
-1.51128
-1.2838
-1.02197
-0.735813
-0.471954
-0.24633
-0.0417973
-1.26443
-1.29018
-1.33098
-1.38478
-1.44832
-1.51795
-1.59052
-1.66167
-1.72432
-1.76636
-1.77328
-1.73115
-1.62965
-1.46641
-1.24372
-0.98949
-0.714118
-0.458758
-0.241361
-0.0434399
-1.29069
-1.31766
-1.36457
-1.42629
-1.49235
-1.55824
-1.62278
-1.68388
-1.73646
-1.76987
-1.77001
-1.72355
-1.61974
-1.45685
-1.23538
-0.983794
-0.712239
-0.456674
-0.245611
-0.0439868
-1.32172
-1.34952
-1.40093
-1.46944
-1.53651
-1.59811
-1.65614
-1.71094
-1.75905
-1.79057
-1.79031
-1.74514
-1.64206
-1.48055
-1.25724
-1.00403
-0.729598
-0.463186
-0.261448
-0.0444415
-1.35428
-1.38147
-1.43751
-1.51128
-1.57861
-1.63597
-1.68962
-1.7427
-1.79177
-1.82773
-1.83281
-1.79498
-1.69567
-1.53699
-1.30887
-1.05029
-0.767402
-0.487452
-0.279922
-0.0449597
-1.38662
-1.41053
-1.46923
-1.54649
-1.61443
-1.66896
-1.72082
-1.77596
-1.83098
-1.87801
-1.89396
-1.87089
-1.77785
-1.62358
-1.38796
-1.12045
-0.823179
-0.523065
-0.304656
-0.0477158
-1.40873
-1.42713
-1.48822
-1.56996
-1.64135
-1.69691
-1.75062
-1.81187
-1.87654
-1.93908
-1.96993
-1.96486
-1.87817
-1.72909
-1.48341
-1.20435
-0.888448
-0.564407
-0.330021
-0.0546506
-1.42681
-1.43311
-1.49361
-1.57751
-1.65339
-1.71319
-1.77079
-1.84018
-1.91554
-1.99494
-2.03571
-2.05743
-1.97273
-1.83051
-1.57513
-1.28048
-0.948933
-0.604764
-0.346937
-0.0653047
-1.42607
-1.41392
-1.46757
-1.55853
-1.64706
-1.72282
-1.79389
-1.87593
-1.96436
-2.05842
-2.11831
-2.14246
-2.07056
-1.92028
-1.66259
-1.34486
-0.996079
-0.637272
-0.349907
-0.0770528
-1.42842
-1.40855
-1.43537
-1.5191
-1.61073
-1.69747
-1.7783
-1.87037
-1.96619
-2.06944
-2.13463
-2.15934
-2.09487
-1.93628
-1.676
-1.34378
-0.987052
-0.635887
-0.334087
-0.0813253
-1.35974
-1.31319
-1.38126
-1.48792
-1.59063
-1.68967
-1.77937
-1.87376
-1.96479
-2.05308
-2.10438
-2.10078
-2.02171
-1.84805
-1.58618
-1.26052
-0.913647
-0.591001
-0.311091
-0.0814538
-1.44092
-1.41617
-1.43633
-1.49195
-1.56203
-1.64279
-1.72259
-1.80035
-1.87339
-1.93279
-1.95965
-1.92814
-1.82539
-1.64248
-1.38861
-1.09508
-0.790297
-0.511736
-0.274175
-0.0785
-1.38218
-1.3459
-1.34643
-1.39155
-1.45836
-1.53133
-1.59934
-1.65559
-1.6971
-1.71741
-1.70528
-1.64417
-1.52638
-1.35497
-1.13665
-0.894819
-0.651198
-0.426591
-0.232485
-0.0718642
-1.297
-1.27835
-1.28205
-1.31155
-1.35422
-1.39877
-1.43609
-1.46226
-1.47531
-1.46869
-1.4323
-1.35962
-1.24804
-1.09976
-0.921019
-0.726745
-0.534119
-0.355681
-0.196473
-0.0626678
-1.20552
-1.19478
-1.19049
-1.19899
-1.21851
-1.24255
-1.2629
-1.27448
-1.27083
-1.2483
-1.20044
-1.12447
-1.02272
-0.89711
-0.752069
-0.596753
-0.441911
-0.297352
-0.165071
-0.0523227
-1.09638
-1.089
-1.08247
-1.08426
-1.09339
-1.10546
-1.11217
-1.10919
-1.09283
-1.06125
-1.01024
-0.938088
-0.847751
-0.740913
-0.621255
-0.493762
-0.366013
-0.246325
-0.136873
-0.0436049
-0.987767
-0.984183
-0.978371
-0.976707
-0.978995
-0.980921
-0.976546
-0.963866
-0.940935
-0.906428
-0.856948
-0.790348
-0.70953
-0.617499
-0.516626
-0.411324
-0.305355
-0.205281
-0.11368
-0.0360244
-0.884118
-0.882883
-0.878236
-0.874469
-0.871532
-0.866635
-0.85563
-0.837569
-0.811506
-0.776077
-0.728932
-0.668322
-0.59707
-0.517751
-0.432016
-0.343518
-0.254441
-0.170579
-0.0944801
-0.0297738
-0.786016
-0.785678
-0.78186
-0.77667
-0.770247
-0.761233
-0.746965
-0.726394
-0.699107
-0.664154
-0.620247
-0.566264
-0.503404
-0.43517
-0.362004
-0.287575
-0.212856
-0.141526
-0.0777352
-0.0243244
-0.692527
-0.692256
-0.6885
-0.682476
-0.674169
-0.663167
-0.64747
-0.626454
-0.599781
-0.566823
-0.526477
-0.478197
-0.423569
-0.364608
-0.302186
-0.239018
-0.176428
-0.117498
-0.0664927
-0.0206677
-0.603143
-0.602099
-0.597868
-0.59126
-0.582305
-0.570698
-0.555294
-0.535197
-0.510242
-0.480263
-0.44438
-0.402387
-0.354186
-0.303601
-0.250154
-0.197214
-0.144889
-0.0946682
-0.0487554
-0.0151305
-0.516365
-0.514732
-0.509981
-0.50343
-0.494672
-0.48377
-0.469321
-0.450946
-0.428431
-0.401642
-0.370219
-0.333831
-0.293148
-0.249983
-0.204852
-0.159869
-0.116743
-0.0761448
-0.0408066
-0.0128312
-0.432444
-0.430136
-0.425146
-0.418775
-0.410939
-0.401054
-0.388437
-0.372423
-0.35289
-0.329856
-0.302834
-0.272268
-0.237517
-0.201443
-0.163805
-0.127883
-0.0934915
-0.0606192
-0.031173
-0.00868972
-0.35048
-0.348194
-0.343255
-0.337507
-0.3305
-0.322262
-0.311611
-0.298501
-0.282169
-0.26308
-0.240741
-0.215269
-0.187293
-0.15802
-0.127855
-0.0976831
-0.0695165
-0.04358
-0.0225002
-0.00696668
-0.270719
-0.268585
-0.264021
-0.258936
-0.253184
-0.246587
-0.238522
-0.228241
-0.215654
-0.200554
-0.182858
-0.163149
-0.140914
-0.11806
-0.0937077
-0.0708116
-0.0503134
-0.0315228
-0.0149865
-0.00341724
-0.192358
-0.190866
-0.187101
-0.18298
-0.178521
-0.17377
-0.168
-0.161044
-0.151869
-0.141125
-0.128025
-0.113709
-0.0976162
-0.080883
-0.0639767
-0.0471716
-0.0325238
-0.0183114
-0.00743123
-0.00134686
-0.114773
-0.113794
-0.111226
-0.108661
-0.105875
-0.10317
-0.0998912
-0.0958374
-0.0903305
-0.0836738
-0.0757831
-0.0669391
-0.0572357
-0.0469869
-0.0360745
-0.0253692
-0.0160966
-0.00816642
-0.00216885
-0.00018288
-0.0379895
-0.0377514
-0.036817
-0.0359858
-0.0349115
-0.0340802
-0.032873
-0.0315484
-0.0295955
-0.0275836
-0.0249197
-0.0221287
-0.0185708
-0.0150818
-0.0108815
-0.00689995
-0.00332277
0.000507386
0.00323902
0.00287101
-5.17664
-0.89851
-1.72428
-2.29098
-2.08007
-1.61462
-1.63405
-1.62353
-1.68343
-1.57786
-2.65424
-0.745495
-1.72197
-2.53009
-2.04037
-1.45588
-1.53958
-1.63613
-1.74528
-1.60698
-2.56205
-1.23419
-1.68805
-2.07731
-1.85674
-1.58654
-1.64652
-1.6686
-1.7032
-1.57898
-1.6864
-0.932945
-1.24716
-1.69986
-1.71972
-1.48759
-1.47586
-1.53714
-1.59902
-1.54863
-1.32182
-0.906868
-1.10538
-1.46881
-1.54646
-1.40336
-1.39888
-1.46051
-1.49479
-1.46309
-1.03036
-0.820655
-0.934993
-1.21176
-1.32726
-1.27962
-1.2687
-1.30374
-1.33363
-1.33116
-0.784508
-0.722301
-0.798339
-1.00649
-1.13989
-1.15648
-1.15169
-1.17242
-1.20173
-1.21673
-0.585059
-0.635728
-0.698539
-0.851503
-0.984409
-1.0368
-1.04434
-1.05812
-1.08119
-1.09856
-0.429329
-0.559283
-0.614464
-0.728915
-0.852008
-0.92105
-0.94185
-0.954639
-0.970332
-0.985323
-0.310728
-0.485528
-0.539304
-0.628829
-0.736843
-0.810522
-0.843167
-0.857566
-0.868391
-0.880336
-0.221091
-0.413144
-0.471539
-0.545399
-0.635498
-0.706822
-0.746996
-0.764496
-0.773576
-0.782489
-0.153708
-0.342553
-0.410025
-0.47417
-0.545989
-0.610579
-0.653336
-0.674216
-0.683028
-0.689993
-0.10388
-0.274765
-0.353211
-0.409975
-0.466675
-0.521779
-0.562827
-0.586007
-0.595379
-0.6013
-0.067472
-0.214888
-0.298557
-0.350226
-0.395579
-0.439742
-0.476237
-0.499765
-0.509979
-0.515534
-0.0427668
-0.16406
-0.245075
-0.293189
-0.329828
-0.363762
-0.393918
-0.415772
-0.42656
-0.431999
-0.0278983
-0.121642
-0.193313
-0.23791
-0.267364
-0.292746
-0.31579
-0.334318
-0.344818
-0.350249
-0.020014
-0.0857917
-0.14404
-0.183278
-0.206781
-0.22512
-0.241434
-0.255864
-0.264966
-0.270216
-0.015359
-0.0557706
-0.098649
-0.129657
-0.147203
-0.159531
-0.170013
-0.179955
-0.186817
-0.191539
-0.00993954
-0.0309253
-0.0568763
-0.0769159
-0.0881864
-0.0952451
-0.100861
-0.106665
-0.110806
-0.113983
-0.0033552
-0.00986765
-0.0186408
-0.0255948
-0.0293648
-0.0316931
-0.0333065
-0.0352315
-0.0365693
-0.0379346
0.157591
0.0973893
0.154231
0.143138
0.199645
0.186319
0.266912
0.261628
0.369465
0.370967
0.524734
0.531173
0.753771
0.753578
1.10386
1.04689
1.67029
1.27351
2.52624
-1.07934
0.156632
0.0977948
0.150568
0.142082
0.19475
0.185039
0.259876
0.259316
0.358933
0.367519
0.50767
0.523414
0.722954
0.736832
1.03503
1.00069
1.4361
1.13678
1.34972
-0.25606
0.155536
0.0978139
0.146618
0.139904
0.189341
0.181978
0.25185
0.254022
0.347339
0.358713
0.488209
0.505459
0.687538
0.69962
0.957782
0.914736
1.22561
0.97531
0.76351
0.494459
0.152963
0.0972494
0.141711
0.136895
0.182539
0.177601
0.241332
0.246744
0.331513
0.34687
0.460996
0.482536
0.637969
0.653704
0.854043
0.821
0.980041
0.841212
0.455084
0.949318
0.148795
0.0961042
0.135906
0.133186
0.174664
0.17237
0.22901
0.23775
0.312643
0.332149
0.428908
0.456005
0.580149
0.607948
0.738564
0.753227
0.788513
0.847273
0.370626
1.08367
0.143125
0.0947586
0.12923
0.12901
0.165613
0.166581
0.214958
0.227465
0.290587
0.31536
0.392051
0.429083
0.516124
0.567576
0.639302
0.710962
0.662297
0.874485
0.299047
0.976784
0.136158
0.0933702
0.121715
0.124178
0.155343
0.159909
0.199494
0.216112
0.266329
0.297551
0.352948
0.4035
0.460936
0.534215
0.562894
0.689741
0.58023
0.860267
0.235132
0.83876
0.127946
0.0917619
0.11342
0.118503
0.143857
0.152268
0.182752
0.204368
0.241107
0.279627
0.318116
0.380151
0.415003
0.509676
0.503303
0.667852
0.508544
0.811028
0.178825
0.7038
0.118482
0.0896432
0.104411
0.11201
0.131343
0.143998
0.165263
0.192398
0.218546
0.262326
0.288046
0.360148
0.376522
0.486956
0.452103
0.635188
0.444849
0.743444
0.138165
0.580378
0.107791
0.0869698
0.0947916
0.104872
0.118288
0.135155
0.149188
0.180276
0.198565
0.246565
0.26135
0.34093
0.341123
0.461168
0.404345
0.593783
0.386909
0.669475
0.111893
0.469253
0.0959675
0.0837993
0.0851414
0.0970984
0.106134
0.125772
0.134512
0.168535
0.179919
0.231047
0.236187
0.320076
0.307031
0.43132
0.358727
0.546389
0.335127
0.594348
0.0966596
0.370077
0.0834516
0.0797868
0.0764315
0.0889821
0.0947184
0.116215
0.120568
0.156321
0.161643
0.214529
0.211457
0.296921
0.27568
0.397603
0.315262
0.495409
0.28897
0.519759
0.0879097
0.282946
0.0711759
0.0746602
0.0683674
0.0806542
0.0835836
0.106118
0.106805
0.143004
0.143274
0.196275
0.18665
0.271158
0.242191
0.360375
0.273876
0.442019
0.247603
0.446455
0.0826162
0.20804
0.0595729
0.0683841
0.0603432
0.0719056
0.0724637
0.0951759
0.0929763
0.128287
0.124587
0.17602
0.161812
0.242876
0.208999
0.320238
0.234287
0.386663
0.210064
0.375189
0.0788461
0.146211
0.0487245
0.0608788
0.0520176
0.0625675
0.0613127
0.0832396
0.0789904
0.112156
0.105647
0.153761
0.136921
0.212125
0.176244
0.277424
0.195937
0.329716
0.175569
0.307117
0.0741462
0.0975046
0.0385862
0.0521616
0.0433522
0.0525731
0.050141
0.0702673
0.0648554
0.094622
0.0865093
0.129641
0.11186
0.178866
0.143787
0.23207
0.158652
0.271673
0.142641
0.243014
0.0673493
0.0613348
0.029055
0.0423042
0.0343444
0.0419634
0.0389597
0.0562546
0.0505613
0.0758245
0.0671935
0.103669
0.086956
0.143226
0.111704
0.184347
0.121999
0.212842
0.110875
0.183153
0.0579237
0.0357027
0.020132
0.0314113
0.0249981
0.0306525
0.0278292
0.0412899
0.0362658
0.0556028
0.048042
0.0761291
0.0621879
0.105061
0.0795557
0.1345
0.086337
0.153279
0.0791924
0.127108
0.0457197
0.0185518
0.0116803
0.0195234
0.0153242
0.0188771
0.0165697
0.0253287
0.0217916
0.0343652
0.0287247
0.0468389
0.0371761
0.064936
0.0477512
0.082551
0.0509669
0.0929934
0.0480146
0.0747406
0.0298877
0.00749152
0.00381785
0.00663372
0.00514789
0.00642671
0.00566728
0.00872101
0.00726875
0.011586
0.00971342
0.01622
0.0124646
0.0219806
0.0157788
0.0283857
0.0171204
0.0312554
0.0160605
0.0247646
0.0108346
0.00197022
0.158691
0.0957673
0.156395
0.143428
0.204047
0.188457
0.275152
0.267874
0.38454
0.385466
0.5524
0.566143
0.809131
0.837816
1.22122
1.26686
1.92111
1.90696
3.18784
2.00251
0.161133
0.0970285
0.158997
0.145025
0.207245
0.190602
0.279447
0.270444
0.390587
0.389272
0.561444
0.571633
0.824704
0.849142
1.25396
1.29948
2.00792
2.04931
3.36932
2.85675
0.163003
0.097977
0.160961
0.146191
0.209629
0.192167
0.282581
0.272253
0.394924
0.391902
0.567743
0.575294
0.835315
0.856715
1.27646
1.32244
2.0721
2.1463
3.58449
3.39048
0.164223
0.0985948
0.162289
0.146901
0.211187
0.193026
0.284583
0.27304
0.397628
0.392809
0.571676
0.575891
0.841878
0.858444
1.29047
1.33338
2.11174
2.21893
3.64884
3.7226
0.164752
0.0989285
0.162958
0.147209
0.211882
0.193296
0.285356
0.273055
0.398518
0.392499
0.572772
0.574451
0.843488
0.855038
1.29489
1.32816
2.13068
2.2248
3.72772
3.82382
0.164619
0.0989869
0.162996
0.147131
0.211761
0.192985
0.284998
0.272313
0.397757
0.390905
0.571325
0.570894
0.840568
0.846818
1.29
1.30952
2.12884
2.18855
3.75125
3.77892
0.163857
0.0987939
0.162408
0.146688
0.210837
0.19211
0.283509
0.270808
0.395323
0.387949
0.567247
0.564952
0.832859
0.833113
1.27437
1.27563
2.09507
2.10123
3.68487
3.53702
0.162543
0.0984395
0.161208
0.145998
0.20912
0.190887
0.280896
0.26889
0.391158
0.384286
0.56034
0.557823
0.819906
0.816245
1.24752
1.22944
2.0351
1.9479
3.67283
3.04379
0.160919
0.097963
0.159493
0.145087
0.206755
0.189353
0.277412
0.266558
0.385804
0.379904
0.551775
0.549418
0.804588
0.796431
1.21554
1.17476
1.96781
1.76528
3.40296
2.23745
0.159227
0.0975482
0.157258
0.14413
0.203716
0.187786
0.272884
0.264112
0.378671
0.375357
0.539784
0.540362
0.7817
0.775129
1.16448
1.11095
1.81935
1.53211
3.28205
0.982301
)
;

boundaryField
{
    inlet
    {
        type            zeroGradient;
    }
    outlet
    {
        type            fixedValue;
        value           uniform 0;
    }
    upAndBottom
    {
        type            empty;
    }
    obstacle
    {
        type            zeroGradient;
    }
}


// ************************************************************************* //
