x,y,z,p
0,0,0,0.0118397
0,0.1,0,0.0254478
0,0.2,0,0.0390559
0,0.3,0,0.0549776
0,0.4,0,0.0732128
0,0.5,0,0.0914481
0,0.6,0,0.109499
0,0.7,0,0.12755
0,0.8,0,0.145508
0,0.9,0,0.163371
0,1,0,0.181234
0,1.1,0,0.198898
0,1.2,0,0.216562
0,1.3,0,0.233993
0,1.4,0,0.251191
0,1.5,0,0.268389
0,1.6,0,0.285164
0,1.7,0,0.301939
0,1.8,0,0.318511
0,1.9,0,0.33488
0,2,0,0.351249
0,2.1,0,0.366961
0,2.2,0,0.382672
0,2.3,0,0.398132
0,2.4,0,0.41334
0,2.5,0,0.428548
0,2.6,0,0.443009
0,2.7,0,0.457469
0,2.8,0,0.471537
0,2.9,0,0.485212
0,3,0,0.498887
0,3.1,0,0.51187
0,3.2,0,0.524853
0,3.3,0,0.537434
0,3.4,0,0.549613
0,3.5,0,0.561792
0,3.6,0,0.573382
0,3.7,0,0.584972
0,3.8,0,0.596221
0,3.9,0,0.607127
0,4,0,0.618034
0,4.1,0,0.628062
0,4.2,0,0.63809
0,4.3,0,0.647627
0,4.4,0,0.656672
0,4.5,0,0.665717
0,4.6,0,0.673214
0,4.7,0,0.680711
0,4.8,0,0.686814
0,4.9,0,0.691521
0,5,0,0.696229
0,5.1,0,0.703167
0,5.2,0,0.707355
0,5.3,0,0.711159
0,5.4,0,0.714552
0,5.5,0,0.717518
0,5.6,0,0.720047
0,5.7,0,0.722127
0,5.8,0,0.72375
0,5.9,0,0.724903
0,6,0,0.725572
0,6.1,0,0.725747
0,6.2,0,0.725417
0,6.3,0,0.724581
0,6.4,0,0.723248
0,6.5,0,0.721437
0,6.6,0,0.719179
0,6.7,0,0.716525
0,6.8,0,0.713537
0,6.9,0,0.710336
0,7,0,0.704773
0,7.1,0,0.701324
0,7.2,0,0.697875
0,7.3,0,0.694104
0,7.4,0,0.688505
0,7.5,0,0.682905
0,7.6,0,0.676844
0,7.7,0,0.669707
0,7.8,0,0.662569
0,7.9,0,0.654863
0,8,0,0.646462
0,8.1,0,0.638061
0,8.2,0,0.628891
0,8.3,0,0.619207
0,8.4,0,0.609523
0,8.5,0,0.598833
0,8.6,0,0.587807
0,8.7,0,0.576782
0,8.8,0,0.564635
0,8.9,0,0.552363
0,9,0,0.540053
0,9.1,0,0.527011
0,9.2,0,0.513968
0,9.3,0,0.500835
0,9.4,0,0.487342
0,9.5,0,0.473849
0,9.6,0,0.460208
0,9.7,0,0.446294
0,9.8,0,0.432379
0,9.9,0,0.418284
0,10,0,0.404009
0,10.1,0,0.389733
0,10.2,0,0.375266
0,10.3,0,0.360696
0,10.4,0,0.346126
0,10.5,0,0.331369
0,10.6,0,0.316564
0,10.7,0,0.30176
0,10.8,0,0.286787
0,10.9,0,0.271806
0,11,0,0.256813
0,11.1,0,0.241717
0,11.2,0,0.226621
0,11.3,0,0.211507
0,11.4,0,0.19634
0,11.5,0,0.181173
0,11.6,0,0.165993
0,11.7,0,0.150794
0,11.8,0,0.135596
0,11.9,0,0.120393
0,12,0,0.105187
0,12.1,0,0.0899808
0,12.2,0,0.0748581
0,12.3,0,0.0597712
0,12.4,0,0.0446842
0,12.5,0,0.0329994
0,12.6,0,0.021915
0,12.7,0,0.0108306
0.1,0,0,0.00920867
0.1,0.1,0,0.0228341
0.1,0.2,0,0.0367104
0.1,0.3,0,0.0550233
0.1,0.4,0,0.073256
0.1,0.5,0,0.0916075
0.1,0.6,0,0.109558
0.1,0.7,0,0.12763
0.1,0.8,0,0.145575
0.1,0.9,0,0.163416
0.1,1,0,0.181592
0.1,1.1,0,0.198963
0.1,1.2,0,0.216662
0.1,1.3,0,0.234208
0.1,1.4,0,0.251384
0.1,1.5,0,0.268901
0.1,1.6,0,0.285206
0.1,1.7,0,0.302038
0.1,1.8,0,0.318738
0.1,1.9,0,0.335064
0.1,2,0,0.351916
0.1,2.1,0,0.367142
0.1,2.2,0,0.38291
0.1,2.3,0,0.398295
0.1,2.4,0,0.413438
0.1,2.5,0,0.429334
0.1,2.6,0,0.443326
0.1,2.7,0,0.45784
0.1,2.8,0,0.47173
0.1,2.9,0,0.485331
0.1,3,0,0.499825
0.1,3.1,0,0.512135
0.1,3.2,0,0.525189
0.1,3.3,0,0.537695
0.1,3.4,0,0.549795
0.1,3.5,0,0.562765
0.1,3.6,0,0.573528
0.1,3.7,0,0.585184
0.1,3.8,0,0.596512
0.1,3.9,0,0.607362
0.1,4,0,0.618511
0.1,4.1,0,0.628316
0.1,4.2,0,0.638319
0.1,4.3,0,0.647891
0.1,4.4,0,0.656965
0.1,4.5,0,0.665105
0.1,4.6,0,0.673782
0.1,4.7,0,0.681116
0.1,4.8,0,0.687592
0.1,4.9,0,0.692504
0.1,5,0,0.694988
0.1,5.1,0,0.701845
0.1,5.2,0,0.705983
0.1,5.3,0,0.709712
0.1,5.4,0,0.713013
0.1,5.5,0,0.715876
0.1,5.6,0,0.718292
0.1,5.7,0,0.720254
0.1,5.8,0,0.721755
0.1,5.9,0,0.722785
0.1,6,0,0.723332
0.1,6.1,0,0.723386
0.1,6.2,0,0.722938
0.1,6.3,0,0.721986
0.1,6.4,0,0.720538
0.1,6.5,0,0.71861
0.1,6.6,0,0.716229
0.1,6.7,0,0.713436
0.1,6.8,0,0.710286
0.1,6.9,0,0.706878
0.1,7,0,0.700967
0.1,7.1,0,0.702105
0.1,7.2,0,0.698657
0.1,7.3,0,0.69096
0.1,7.4,0,0.689086
0.1,7.5,0,0.683486
0.1,7.6,0,0.674608
0.1,7.7,0,0.6701
0.1,7.8,0,0.662332
0.1,7.9,0,0.653879
0.1,8,0,0.646869
0.1,8.1,0,0.636897
0.1,8.2,0,0.629072
0.1,8.3,0,0.619612
0.1,8.4,0,0.607883
0.1,8.5,0,0.599277
0.1,8.6,0,0.588251
0.1,8.7,0,0.575384
0.1,8.8,0,0.56498
0.1,8.9,0,0.552708
0.1,9,0,0.539748
0.1,9.1,0,0.527154
0.1,9.2,0,0.514112
0.1,9.3,0,0.501526
0.1,9.4,0,0.487484
0.1,9.5,0,0.473991
0.1,9.6,0,0.461178
0.1,9.7,0,0.446419
0.1,9.8,0,0.433078
0.1,9.9,0,0.418965
0.1,10,0,0.404112
0.1,10.1,0,0.391331
0.1,10.2,0,0.375349
0.1,10.3,0,0.360779
0.1,10.4,0,0.348746
0.1,10.5,0,0.331435
0.1,10.6,0,0.31663
0.1,10.7,0,0.305352
0.1,10.8,0,0.286833
0.1,10.9,0,0.271852
0.1,11,0,0.260003
0.1,11.1,0,0.241743
0.1,11.2,0,0.226647
0.1,11.3,0,0.213622
0.1,11.4,0,0.196359
0.1,11.5,0,0.18135
0.1,11.6,0,0.167106
0.1,11.7,0,0.150796
0.1,11.8,0,0.136297
0.1,11.9,0,0.120715
0.1,12,0,0.105191
0.1,12.1,0,0.0908878
0.1,12.2,0,0.0747789
0.1,12.3,0,0.059692
0.1,12.4,0,0.0453581
0.1,12.5,0,0.0305437
0.1,12.6,0,0.0194593
0.1,12.7,0,0.00842378
0.2,0,0,0.00657762
0.2,0.1,0,0.0202169
0.2,0.2,0,0.036779
0.2,0.3,0,0.0550918
0.2,0.4,0,0.0733224
0.2,0.5,0,0.091767
0.2,0.6,0,0.109638
0.2,0.7,0,0.127898
0.2,0.8,0,0.145843
0.2,0.9,0,0.163524
0.2,1,0,0.181949
0.2,1.1,0,0.199087
0.2,1.2,0,0.217072
0.2,1.3,0,0.234618
0.2,1.4,0,0.251641
0.2,1.5,0,0.269413
0.2,1.6,0,0.285342
0.2,1.7,0,0.302652
0.2,1.8,0,0.319352
0.2,1.9,0,0.335344
0.2,2,0,0.352583
0.2,2.1,0,0.367421
0.2,2.2,0,0.383656
0.2,2.3,0,0.399041
0.2,2.4,0,0.413674
0.2,2.5,0,0.430121
0.2,2.6,0,0.443736
0.2,2.7,0,0.458692
0.2,2.8,0,0.472582
0.2,2.9,0,0.485615
0.2,3,0,0.500763
0.2,3.1,0,0.512535
0.2,3.2,0,0.526168
0.2,3.3,0,0.538674
0.2,3.4,0,0.550135
0.2,3.5,0,0.563737
0.2,3.6,0,0.573839
0.2,3.7,0,0.58599
0.2,3.8,0,0.597318
0.2,3.9,0,0.607645
0.2,4,0,0.618987
0.2,4.1,0,0.628614
0.2,4.2,0,0.638323
0.2,4.3,0,0.647894
0.2,4.4,0,0.657076
0.2,4.5,0,0.664493
0.2,4.6,0,0.674113
0.2,4.7,0,0.680053
0.2,4.8,0,0.686529
0.2,4.9,0,0.693042
0.2,5,0,0.693748
0.2,5.1,0,0.700524
0.2,5.2,0,0.704612
0.2,5.3,0,0.708265
0.2,5.4,0,0.711475
0.2,5.5,0,0.714234
0.2,5.6,0,0.716537
0.2,5.7,0,0.718381
0.2,5.8,0,0.719761
0.2,5.9,0,0.720667
0.2,6,0,0.721092
0.2,6.1,0,0.721025
0.2,6.2,0,0.720458
0.2,6.3,0,0.719391
0.2,6.4,0,0.717828
0.2,6.5,0,0.715783
0.2,6.6,0,0.713279
0.2,6.7,0,0.710348
0.2,6.8,0,0.707035
0.2,6.9,0,0.703419
0.2,7,0,0.697161
0.2,7.1,0,0.700955
0.2,7.2,0,0.696095
0.2,7.3,0,0.68666
0.2,7.4,0,0.688767
0.2,7.5,0,0.67943
0.2,7.6,0,0.670006
0.2,7.7,0,0.670493
0.2,7.8,0,0.657934
0.2,7.9,0,0.649481
0.2,8,0,0.647276
0.2,8.1,0,0.633038
0.2,8.2,0,0.625213
0.2,8.3,0,0.619929
0.2,8.4,0,0.60491
0.2,8.5,0,0.596933
0.2,8.6,0,0.58812
0.2,8.7,0,0.573641
0.2,8.8,0,0.564116
0.2,8.9,0,0.552709
0.2,9,0,0.539404
0.2,9.1,0,0.527131
0.2,9.2,0,0.514846
0.2,9.3,0,0.502471
0.2,9.4,0,0.48771
0.2,9.5,0,0.475953
0.2,9.6,0,0.463189
0.2,9.7,0,0.446544
0.2,9.8,0,0.435926
0.2,9.9,0,0.421813
0.2,10,0,0.404215
0.2,10.1,0,0.394775
0.2,10.2,0,0.378705
0.2,10.3,0,0.361252
0.2,10.4,0,0.352536
0.2,10.5,0,0.334245
0.2,10.6,0,0.318006
0.2,10.7,0,0.309247
0.2,10.8,0,0.288804
0.2,10.9,0,0.274062
0.2,11,0,0.263787
0.2,11.1,0,0.242758
0.2,11.2,0,0.229493
0.2,11.3,0,0.217104
0.2,11.4,0,0.196469
0.2,11.5,0,0.184369
0.2,11.6,0,0.170125
0.2,11.7,0,0.150797
0.2,11.8,0,0.138718
0.2,11.9,0,0.123135
0.2,12,0,0.105194
0.2,12.1,0,0.0926078
0.2,12.2,0,0.0763095
0.2,12.3,0,0.0597946
0.2,12.4,0,0.0462656
0.2,12.5,0,0.0303006
0.2,12.6,0,0.0170242
0.2,12.7,0,0.00601699
0.3,0,0,0.00394657
0.3,0.1,0,0.0183905
0.3,0.2,0,0.0368475
0.3,0.3,0,0.0551604
0.3,0.4,0,0.0734895
0.3,0.5,0,0.0919265
0.3,0.6,0,0.10986
0.3,0.7,0,0.128166
0.3,0.8,0,0.146111
0.3,0.9,0,0.163948
0.3,1,0,0.182307
0.3,1.1,0,0.199548
0.3,1.2,0,0.217482
0.3,1.3,0,0.235028
0.3,1.4,0,0.252218
0.3,1.5,0,0.269926
0.3,1.6,0,0.286026
0.3,1.7,0,0.303266
0.3,1.8,0,0.319965
0.3,1.9,0,0.33614
0.3,2,0,0.35325
0.3,2.1,0,0.368257
0.3,2.2,0,0.384402
0.3,2.3,0,0.399787
0.3,2.4,0,0.414655
0.3,2.5,0,0.430907
0.3,2.6,0,0.444684
0.3,2.7,0,0.459545
0.3,2.8,0,0.473435
0.3,2.9,0,0.486773
0.3,3,0,0.501702
0.3,3.1,0,0.513687
0.3,3.2,0,0.527146
0.3,3.3,0,0.539652
0.3,3.4,0,0.551346
0.3,3.5,0,0.56471
0.3,3.6,0,0.575009
0.3,3.7,0,0.586795
0.3,3.8,0,0.598124
0.3,3.9,0,0.608293
0.3,4,0,0.619464
0.3,4.1,0,0.629016
0.3,4.2,0,0.638327
0.3,4.3,0,0.647898
0.3,4.4,0,0.656377
0.3,4.5,0,0.66388
0.3,4.6,0,0.673012
0.3,4.7,0,0.67899
0.3,4.8,0,0.685466
0.3,4.9,0,0.691188
0.3,5,0,0.692507
0.3,5.1,0,0.699203
0.3,5.2,0,0.70324
0.3,5.3,0,0.706818
0.3,5.4,0,0.709936
0.3,5.5,0,0.712591
0.3,5.6,0,0.714782
0.3,5.7,0,0.716508
0.3,5.8,0,0.717766
0.3,5.9,0,0.71855
0.3,6,0,0.718852
0.3,6.1,0,0.718664
0.3,6.2,0,0.717979
0.3,6.3,0,0.716796
0.3,6.4,0,0.715118
0.3,6.5,0,0.712956
0.3,6.6,0,0.710328
0.3,6.7,0,0.707259
0.3,6.8,0,0.703784
0.3,6.9,0,0.699961
0.3,7,0,0.693356
0.3,7.1,0,0.696748
0.3,7.2,0,0.691794
0.3,7.3,0,0.682359
0.3,7.4,0,0.68283
0.3,7.5,0,0.674827
0.3,7.6,0,0.665404
0.3,7.7,0,0.663506
0.3,7.8,0,0.653536
0.3,7.9,0,0.645083
0.3,8,0,0.640901
0.3,8.1,0,0.629179
0.3,8.2,0,0.621354
0.3,8.3,0,0.614936
0.3,8.4,0,0.601937
0.3,8.5,0,0.59396
0.3,8.6,0,0.585568
0.3,8.7,0,0.571898
0.3,8.8,0,0.562373
0.3,8.9,0,0.552365
0.3,9,0,0.53906
0.3,9.1,0,0.526914
0.3,9.2,0,0.51579
0.3,9.3,0,0.503416
0.3,9.4,0,0.489393
0.3,9.5,0,0.477965
0.3,9.6,0,0.465201
0.3,9.7,0,0.450027
0.3,9.8,0,0.438774
0.3,9.9,0,0.424661
0.3,10,0,0.408953
0.3,10.1,0,0.398219
0.3,10.2,0,0.382149
0.3,10.3,0,0.366369
0.3,10.4,0,0.356327
0.3,10.5,0,0.338035
0.3,10.6,0,0.322489
0.3,10.7,0,0.313142
0.3,10.8,0,0.292699
0.3,10.9,0,0.277845
0.3,11,0,0.26757
0.3,11.1,0,0.24736
0.3,11.2,0,0.232975
0.3,11.3,0,0.220587
0.3,11.4,0,0.201372
0.3,11.5,0,0.187388
0.3,11.6,0,0.173145
0.3,11.7,0,0.1549
0.3,11.8,0,0.141138
0.3,11.9,0,0.125556
0.3,12,0,0.10816
0.3,12.1,0,0.0943279
0.3,12.2,0,0.0780296
0.3,12.3,0,0.0612702
0.3,12.4,0,0.0471731
0.3,12.5,0,0.0312081
0.3,12.6,0,0.0148829
0.3,12.7,0,0.00361019
0.4,0,0,0.00131552
0.4,0.1,0,0.0184418
0.4,0.2,0,0.0369091
0.4,0.3,0,0.0552755
0.4,0.4,0,0.0736743
0.4,0.5,0,0.0920859
0.4,0.6,0,0.110228
0.4,0.7,0,0.128474
0.4,0.8,0,0.146504
0.4,0.9,0,0.164528
0.4,1,0,0.182664
0.4,1.1,0,0.20025
0.4,1.2,0,0.218009
0.4,1.3,0,0.235566
0.4,1.4,0,0.252948
0.4,1.5,0,0.270438
0.4,1.6,0,0.28711
0.4,1.7,0,0.304068
0.4,1.8,0,0.320772
0.4,1.9,0,0.337237
0.4,2,0,0.353917
0.4,2.1,0,0.369488
0.4,2.2,0,0.385343
0.4,2.3,0,0.400809
0.4,2.4,0,0.416089
0.4,2.5,0,0.431694
0.4,2.6,0,0.446006
0.4,2.7,0,0.460585
0.4,2.8,0,0.474615
0.4,2.9,0,0.488444
0.4,3,0,0.50264
0.4,3.1,0,0.515339
0.4,3.2,0,0.528394
0.4,3.3,0,0.540947
0.4,3.4,0,0.553116
0.4,3.5,0,0.565682
0.4,3.6,0,0.576642
0.4,3.7,0,0.587932
0.4,3.8,0,0.599027
0.4,3.9,0,0.609341
0.4,4,0,0.619941
0.4,4.1,0,0.629243
0.4,4.2,0,0.63842
0.4,4.3,0,0.64754
0.4,4.4,0,0.655476
0.4,4.5,0,0.663268
0.4,4.6,0,0.670769
0.4,4.7,0,0.677456
0.4,4.8,0,0.683514
0.4,4.9,0,0.687902
0.4,5,0,0.691267
0.4,5.1,0,0.697882
0.4,5.2,0,0.701869
0.4,5.3,0,0.705371
0.4,5.4,0,0.708398
0.4,5.5,0,0.710949
0.4,5.6,0,0.713027
0.4,5.7,0,0.714635
0.4,5.8,0,0.715772
0.4,5.9,0,0.716432
0.4,6,0,0.716611
0.4,6.1,0,0.716303
0.4,6.2,0,0.715499
0.4,6.3,0,0.7142
0.4,6.4,0,0.712408
0.4,6.5,0,0.71013
0.4,6.6,0,0.707378
0.4,6.7,0,0.704171
0.4,6.8,0,0.700533
0.4,6.9,0,0.696503
0.4,7,0,0.68955
0.4,7.1,0,0.687861
0.4,7.2,0,0.683631
0.4,7.3,0,0.678059
0.4,7.4,0,0.673347
0.4,7.5,0,0.667271
0.4,7.6,0,0.660802
0.4,7.7,0,0.654113
0.4,7.8,0,0.647297
0.4,7.9,0,0.639787
0.4,8,0,0.632237
0.4,8.1,0,0.624688
0.4,8.2,0,0.615983
0.4,8.3,0,0.607698
0.4,8.4,0,0.598963
0.4,8.5,0,0.58949
0.4,8.6,0,0.580407
0.4,8.7,0,0.570155
0.4,8.8,0,0.559996
0.4,8.9,0,0.549933
0.4,9,0,0.538716
0.4,9.1,0,0.527371
0.4,9.2,0,0.516363
0.4,9.3,0,0.50436
0.4,9.4,0,0.492208
0.4,9.5,0,0.480399
0.4,9.6,0,0.467356
0.4,9.7,0,0.454762
0.4,9.8,0,0.442168
0.4,9.9,0,0.428476
0.4,10,0,0.415142
0.4,10.1,0,0.401808
0.4,10.2,0,0.387544
0.4,10.3,0,0.373521
0.4,10.4,0,0.360117
0.4,10.5,0,0.344748
0.4,10.6,0,0.330108
0.4,10.7,0,0.317037
0.4,10.8,0,0.300331
0.4,10.9,0,0.285174
0.4,11,0,0.271354
0.4,11.1,0,0.2546
0.4,11.2,0,0.239028
0.4,11.3,0,0.224069
0.4,11.4,0,0.207855
0.4,11.5,0,0.191957
0.4,11.6,0,0.176482
0.4,11.7,0,0.160338
0.4,11.8,0,0.144194
0.4,11.9,0,0.128609
0.4,12,0,0.112297
0.4,12.1,0,0.0960479
0.4,12.2,0,0.0803468
0.4,12.3,0,0.063977
0.4,12.4,0,0.0480806
0.4,12.5,0,0.0321569
0.4,12.6,0,0.0158393
0.4,12.7,0,0.0012034
0.5,0,0,0
0.5,0.1,0,0.0184998
0.5,0.2,0,0.0369672
0.5,0.3,0,0.0554915
0.5,0.4,0,0.0738904
0.5,0.5,0,0.0923841
0.5,0.6,0,0.11065
0.5,0.7,0,0.128896
0.5,0.8,0,0.147153
0.5,0.9,0,0.165178
0.5,1,0,0.183284
0.5,1.1,0,0.201031
0.5,1.2,0,0.21879
0.5,1.3,0,0.236426
0.5,1.4,0,0.253808
0.5,1.5,0,0.271346
0.5,1.6,0,0.288298
0.5,1.7,0,0.305256
0.5,1.8,0,0.322039
0.5,1.9,0,0.338504
0.5,2,0,0.355109
0.5,2.1,0,0.370889
0.5,2.2,0,0.386744
0.5,2.3,0,0.402392
0.5,2.4,0,0.417673
0.5,2.5,0,0.433139
0.5,2.6,0,0.447568
0.5,2.7,0,0.462147
0.5,2.8,0,0.476463
0.5,2.9,0,0.490292
0.5,3,0,0.504334
0.5,3.1,0,0.517243
0.5,3.2,0,0.530299
0.5,3.3,0,0.542957
0.5,3.4,0,0.555125
0.5,3.5,0,0.567464
0.5,3.6,0,0.578523
0.5,3.7,0,0.589813
0.5,3.8,0,0.600369
0.5,3.9,0,0.610683
0.5,4,0,0.621302
0.5,4.1,0,0.629808
0.5,4.2,0,0.638985
0.5,4.3,0,0.64699
0.5,4.4,0,0.654927
0.5,4.5,0,0.663827
0.5,4.6,0,0.66887
0.5,4.7,0,0.675556
0.5,4.8,0,0.681162
0.5,4.9,0,0.68555
0.5,5,0,0.691633
0.5,5.1,0,0.698357
0.5,5.2,0,0.702393
0.5,5.3,0,0.705922
0.5,5.4,0,0.708956
0.5,5.5,0,0.711499
0.5,5.6,0,0.713555
0.5,5.7,0,0.715128
0.5,5.8,0,0.71622
0.5,5.9,0,0.716827
0.5,6,0,0.716945
0.5,6.1,0,0.71657
0.5,6.2,0,0.715694
0.5,6.3,0,0.714316
0.5,6.4,0,0.712437
0.5,6.5,0,0.710063
0.5,6.6,0,0.707201
0.5,6.7,0,0.703864
0.5,6.8,0,0.700068
0.5,6.9,0,0.695838
0.5,7,0,0.68847
0.5,7.1,0,0.679906
0.5,7.2,0,0.675677
0.5,7.3,0,0.672801
0.5,7.4,0,0.6641
0.5,7.5,0,0.658024
0.5,7.6,0,0.652009
0.5,7.7,0,0.644951
0.5,7.8,0,0.638135
0.5,7.9,0,0.631357
0.5,8,0,0.623807
0.5,8.1,0,0.616257
0.5,8.2,0,0.608978
0.5,8.3,0,0.600692
0.5,8.4,0,0.593064
0.5,8.5,0,0.584602
0.5,8.6,0,0.575519
0.5,8.7,0,0.567935
0.5,8.8,0,0.557912
0.5,8.9,0,0.54785
0.5,9,0,0.53889
0.5,9.1,0,0.528079
0.5,9.2,0,0.517071
0.5,9.3,0,0.506727
0.5,9.4,0,0.495278
0.5,9.5,0,0.48347
0.5,9.6,0,0.472332
0.5,9.7,0,0.459738
0.5,9.8,0,0.447144
0.5,9.9,0,0.434892
0.5,10,0,0.421557
0.5,10.1,0,0.408223
0.5,10.2,0,0.394905
0.5,10.3,0,0.380882
0.5,10.4,0,0.366058
0.5,10.5,0,0.352548
0.5,10.6,0,0.337908
0.5,10.7,0,0.321291
0.5,10.8,0,0.308111
0.5,10.9,0,0.292954
0.5,11,0,0.276071
0.5,11.1,0,0.261954
0.5,11.2,0,0.246382
0.5,11.3,0,0.229945
0.5,11.4,0,0.21443
0.5,11.5,0,0.198532
0.5,11.6,0,0.181985
0.5,11.7,0,0.165841
0.5,11.8,0,0.149697
0.5,11.9,0,0.132788
0.5,12,0,0.116476
0.5,12.1,0,0.100097
0.5,12.2,0,0.0830474
0.5,12.3,0,0.0666775
0.5,12.4,0,0.049845
0.5,12.5,0,0.0330864
0.5,12.6,0,0.0167688
0.5,12.7,0,0
0.6,0,0,0
0.6,0.1,0,0.0185648
0.6,0.2,0,0.0371228
0.6,0.3,0,0.0557201
0.6,0.4,0,0.0741377
0.6,0.5,0,0.0928209
0.6,0.6,0,0.111125
0.6,0.7,0,0.129484
0.6,0.8,0,0.147839
0.6,0.9,0,0.165897
0.6,1,0,0.184167
0.6,1.1,0,0.20189
0.6,1.2,0,0.219782
0.6,1.3,0,0.237471
0.6,1.4,0,0.254799
0.6,1.5,0,0.272651
0.6,1.6,0,0.289592
0.6,1.7,0,0.306687
0.6,1.8,0,0.323527
0.6,1.9,0,0.33994
0.6,2,0,0.356826
0.6,2.1,0,0.37246
0.6,2.2,0,0.388531
0.6,2.3,0,0.404244
0.6,2.4,0,0.419406
0.6,2.5,0,0.435244
0.6,2.6,0,0.44937
0.6,2.7,0,0.464238
0.6,2.8,0,0.478642
0.6,2.9,0,0.492316
0.6,3,0,0.506784
0.6,3.1,0,0.519402
0.6,3.2,0,0.532695
0.6,3.3,0,0.545389
0.6,3.4,0,0.557374
0.6,3.5,0,0.570056
0.6,3.6,0,0.580653
0.6,3.7,0,0.592156
0.6,3.8,0,0.602514
0.6,3.9,0,0.612319
0.6,4,0,0.623547
0.6,4.1,0,0.630711
0.6,4.2,0,0.640523
0.6,4.3,0,0.648088
0.6,4.4,0,0.654728
0.6,4.5,0,0.665556
0.6,4.6,0,0.667314
0.6,4.7,0,0.675967
0.6,4.8,0,0.681628
0.6,4.9,0,0.684132
0.6,5,0,0.693606
0.6,5.1,0,0.700628
0.6,5.2,0,0.704813
0.6,5.3,0,0.70847
0.6,5.4,0,0.71161
0.6,5.5,0,0.71424
0.6,5.6,0,0.716364
0.6,5.7,0,0.717987
0.6,5.8,0,0.719111
0.6,5.9,0,0.719734
0.6,6,0,0.719854
0.6,6.1,0,0.719465
0.6,6.2,0,0.718562
0.6,6.3,0,0.717142
0.6,6.4,0,0.715206
0.6,6.5,0,0.712757
0.6,6.6,0,0.709798
0.6,6.7,0,0.706338
0.6,6.8,0,0.702388
0.6,6.9,0,0.697966
0.6,7,0,0.690116
0.6,7.1,0,0.672884
0.6,7.2,0,0.669916
0.6,7.3,0,0.673766
0.6,7.4,0,0.65509
0.6,7.5,0,0.652694
0.6,7.6,0,0.65232
0.6,7.7,0,0.63602
0.6,7.8,0,0.634743
0.6,7.9,0,0.629504
0.6,8,0,0.615611
0.6,8.1,0,0.61478
0.6,8.2,0,0.605694
0.6,8.3,0,0.593919
0.6,8.4,0,0.592541
0.6,8.5,0,0.581279
0.6,8.6,0,0.570904
0.6,8.7,0,0.567699
0.6,8.8,0,0.556295
0.6,8.9,0,0.546114
0.6,9,0,0.539381
0.6,9.1,0,0.529038
0.6,9.2,0,0.518129
0.6,9.3,0,0.508104
0.6,9.4,0,0.498604
0.6,9.5,0,0.48622
0.6,9.6,0,0.474607
0.6,9.7,0,0.464957
0.6,9.8,0,0.450544
0.6,9.9,0,0.438704
0.6,10,0,0.428199
0.6,10.1,0,0.411438
0.6,10.2,0,0.400322
0.6,10.3,0,0.388453
0.6,10.4,0,0.369283
0.6,10.5,0,0.359402
0.6,10.6,0,0.345889
0.6,10.7,0,0.324574
0.6,10.8,0,0.316038
0.6,10.9,0,0.300509
0.6,11,0,0.279289
0.6,11.1,0,0.269423
0.6,11.2,0,0.252451
0.6,11.3,0,0.232979
0.6,11.4,0,0.221096
0.6,11.5,0,0.203018
0.6,11.6,0,0.185081
0.6,11.7,0,0.171408
0.6,11.8,0,0.152666
0.6,11.9,0,0.135781
0.6,12,0,0.120698
0.6,12.1,0,0.10179
0.6,12.2,0,0.0853465
0.6,12.3,0,0.0693719
0.6,12.4,0,0.050781
0.6,12.5,0,0.0339942
0.6,12.6,0,0.0176713
0.6,12.7,0,0
0.7,0,0,0
0.7,0.1,0,0.0185842
0.7,0.2,0,0.0373389
0.7,0.3,0,0.0559362
0.7,0.4,0,0.0745177
0.7,0.5,0,0.0932577
0.7,0.6,0,0.111573
0.7,0.7,0,0.130149
0.7,0.8,0,0.148504
0.7,0.9,0,0.16673
0.7,1,0,0.18505
0.7,1.1,0,0.202766
0.7,1.2,0,0.220863
0.7,1.3,0,0.238552
0.7,1.4,0,0.25601
0.7,1.5,0,0.273956
0.7,1.6,0,0.290893
0.7,1.7,0,0.308209
0.7,1.8,0,0.325049
0.7,1.9,0,0.341573
0.7,2,0,0.358544
0.7,2.1,0,0.374133
0.7,2.2,0,0.390462
0.7,2.3,0,0.406176
0.7,2.4,0,0.421399
0.7,2.5,0,0.437349
0.7,2.6,0,0.451384
0.7,2.7,0,0.466521
0.7,2.8,0,0.480925
0.7,2.9,0,0.494639
0.7,3,0,0.509235
0.7,3.1,0,0.521764
0.7,3.2,0,0.535248
0.7,3.3,0,0.547942
0.7,3.4,0,0.559863
0.7,3.5,0,0.572647
0.7,3.6,0,0.583105
0.7,3.7,0,0.59464
0.7,3.8,0,0.604998
0.7,3.9,0,0.614381
0.7,4,0,0.625791
0.7,4.1,0,0.632553
0.7,4.2,0,0.642485
0.7,4.3,0,0.650051
0.7,4.4,0,0.655879
0.7,4.5,0,0.667285
0.7,4.6,0,0.668058
0.7,4.7,0,0.677688
0.7,4.8,0,0.683349
0.7,4.9,0,0.685087
0.7,5,0,0.695579
0.7,5.1,0,0.702899
0.7,5.2,0,0.707233
0.7,5.3,0,0.711018
0.7,5.4,0,0.714265
0.7,5.5,0,0.716982
0.7,5.6,0,0.719173
0.7,5.7,0,0.720846
0.7,5.8,0,0.722002
0.7,5.9,0,0.722642
0.7,6,0,0.722762
0.7,6.1,0,0.72236
0.7,6.2,0,0.72143
0.7,6.3,0,0.719969
0.7,6.4,0,0.717975
0.7,6.5,0,0.71545
0.7,6.6,0,0.712395
0.7,6.7,0,0.708813
0.7,6.8,0,0.704709
0.7,6.9,0,0.700094
0.7,7,0,0.691762
0.7,7.1,0,0.673846
0.7,7.2,0,0.67088
0.7,7.3,0,0.674731
0.7,7.4,0,0.652905
0.7,7.5,0,0.653005
0.7,7.6,0,0.652631
0.7,7.7,0,0.631685
0.7,7.8,0,0.634582
0.7,7.9,0,0.629343
0.7,8,0,0.611345
0.7,8.1,0,0.61432
0.7,8.2,0,0.605234
0.7,8.3,0,0.590435
0.7,8.4,0,0.592018
0.7,8.5,0,0.580755
0.7,8.6,0,0.569631
0.7,8.7,0,0.567463
0.7,8.8,0,0.556059
0.7,8.9,0,0.546605
0.7,9,0,0.539873
0.7,9.1,0,0.529603
0.7,9.2,0,0.519505
0.7,9.3,0,0.50948
0.7,9.4,0,0.50075
0.7,9.5,0,0.488332
0.7,9.6,0,0.476718
0.7,9.7,0,0.468694
0.7,9.8,0,0.453204
0.7,9.9,0,0.441364
0.7,10,0,0.432985
0.7,10.1,0,0.414462
0.7,10.2,0,0.403346
0.7,10.3,0,0.393393
0.7,10.4,0,0.372508
0.7,10.5,0,0.362627
0.7,10.6,0,0.349914
0.7,10.7,0,0.327857
0.7,10.8,0,0.319321
0.7,10.9,0,0.303727
0.7,11,0,0.282507
0.7,11.1,0,0.273648
0.7,11.2,0,0.255484
0.7,11.3,0,0.236012
0.7,11.4,0,0.225851
0.7,11.5,0,0.205739
0.7,11.6,0,0.187802
0.7,11.7,0,0.175458
0.7,11.8,0,0.154942
0.7,11.9,0,0.138057
0.7,12,0,0.123687
0.7,12.1,0,0.103483
0.7,12.2,0,0.0870396
0.7,12.3,0,0.0708632
0.7,12.4,0,0.0517171
0.7,12.5,0,0.0349302
0.7,12.6,0,0.0177426
0.7,12.7,0,0
0.8,0,0,0
0.8,0.1,0,0.0187052
0.8,0.2,0,0.037555
0.8,0.3,0,0.0561523
0.8,0.4,0,0.0749295
0.8,0.5,0,0.0936945
0.8,0.6,0,0.112161
0.8,0.7,0,0.130813
0.8,0.8,0,0.149168
0.8,0.9,0,0.167569
0.8,1,0,0.185932
0.8,1.1,0,0.203826
0.8,1.2,0,0.221944
0.8,1.3,0,0.239633
0.8,1.4,0,0.257386
0.8,1.5,0,0.275261
0.8,1.6,0,0.292381
0.8,1.7,0,0.309732
0.8,1.8,0,0.326572
0.8,1.9,0,0.343359
0.8,2,0,0.360261
0.8,2.1,0,0.37614
0.8,2.2,0,0.392394
0.8,2.3,0,0.408108
0.8,2.4,0,0.423663
0.8,2.5,0,0.439454
0.8,2.6,0,0.453874
0.8,2.7,0,0.468804
0.8,2.8,0,0.483208
0.8,2.9,0,0.497296
0.8,3,0,0.511685
0.8,3.1,0,0.524531
0.8,3.2,0,0.537802
0.8,3.3,0,0.550496
0.8,3.4,0,0.562698
0.8,3.5,0,0.575239
0.8,3.6,0,0.585981
0.8,3.7,0,0.597125
0.8,3.8,0,0.607483
0.8,3.9,0,0.617305
0.8,4,0,0.628036
0.8,4.1,0,0.635645
0.8,4.2,0,0.644448
0.8,4.3,0,0.652013
0.8,4.4,0,0.659337
0.8,4.5,0,0.669014
0.8,4.6,0,0.672409
0.8,4.7,0,0.679409
0.8,4.8,0,0.68507
0.8,4.9,0,0.689572
0.8,5,0,0.697552
0.8,5.1,0,0.70517
0.8,5.2,0,0.709653
0.8,5.3,0,0.713566
0.8,5.4,0,0.71692
0.8,5.5,0,0.719723
0.8,5.6,0,0.721983
0.8,5.7,0,0.723705
0.8,5.8,0,0.724893
0.8,5.9,0,0.725549
0.8,6,0,0.72567
0.8,6.1,0,0.725255
0.8,6.2,0,0.724298
0.8,6.3,0,0.722795
0.8,6.4,0,0.720744
0.8,6.5,0,0.718144
0.8,6.6,0,0.714992
0.8,6.7,0,0.711288
0.8,6.8,0,0.707029
0.8,6.9,0,0.702222
0.8,7,0,0.693408
0.8,7.1,0,0.680116
0.8,7.2,0,0.674811
0.8,7.3,0,0.675695
0.8,7.4,0,0.661474
0.8,7.5,0,0.654366
0.8,7.6,0,0.652943
0.8,7.7,0,0.640766
0.8,7.8,0,0.634421
0.8,7.9,0,0.629182
0.8,8,0,0.618921
0.8,8.1,0,0.613861
0.8,8.2,0,0.604775
0.8,8.3,0,0.596059
0.8,8.4,0,0.591495
0.8,8.5,0,0.581039
0.8,8.6,0,0.57241
0.8,8.7,0,0.567228
0.8,8.8,0,0.556761
0.8,8.9,0,0.547846
0.8,9,0,0.540364
0.8,9.1,0,0.530369
0.8,9.2,0,0.520759
0.8,9.3,0,0.510857
0.8,9.4,0,0.50104
0.8,9.5,0,0.490392
0.8,9.6,0,0.47883
0.8,9.7,0,0.468246
0.8,9.8,0,0.455864
0.8,9.9,0,0.444023
0.8,10,0,0.432026
0.8,10.1,0,0.417486
0.8,10.2,0,0.406256
0.8,10.3,0,0.39255
0.8,10.4,0,0.375733
0.8,10.5,0,0.364616
0.8,10.6,0,0.350068
0.8,10.7,0,0.33114
0.8,10.8,0,0.32025
0.8,10.9,0,0.30499
0.8,11,0,0.285725
0.8,11.1,0,0.273598
0.8,11.2,0,0.257735
0.8,11.3,0,0.239046
0.8,11.4,0,0.225043
0.8,11.5,0,0.20846
0.8,11.6,0,0.190523
0.8,11.7,0,0.174888
0.8,11.8,0,0.157217
0.8,11.9,0,0.140333
0.8,12,0,0.123433
0.8,12.1,0,0.105177
0.8,12.2,0,0.0885476
0.8,12.3,0,0.0709824
0.8,12.4,0,0.0526531
0.8,12.5,0,0.0355575
0.8,12.6,0,0.017762
0.8,12.7,0,0
0.9,0,0,0
0.9,0.1,0,0.0188563
0.9,0.2,0,0.0377126
0.9,0.3,0,0.0565389
0.9,0.4,0,0.0753351
0.9,0.5,0,0.0941313
0.9,0.6,0,0.112787
0.9,0.7,0,0.131442
0.9,0.8,0,0.149979
0.9,0.9,0,0.168397
0.9,1,0,0.186815
0.9,1.1,0,0.204931
0.9,1.2,0,0.223047
0.9,1.3,0,0.240997
0.9,1.4,0,0.258781
0.9,1.5,0,0.276565
0.9,1.6,0,0.293915
0.9,1.7,0,0.311264
0.9,1.8,0,0.328347
0.9,1.9,0,0.345163
0.9,2,0,0.361979
0.9,2.1,0,0.378219
0.9,2.2,0,0.394458
0.9,2.3,0,0.410374
0.9,2.4,0,0.425967
0.9,2.5,0,0.441559
0.9,2.6,0,0.456459
0.9,2.7,0,0.471359
0.9,2.8,0,0.485874
0.9,2.9,0,0.500005
0.9,3,0,0.514136
0.9,3.1,0,0.527377
0.9,3.2,0,0.540618
0.9,3.3,0,0.553357
0.9,3.4,0,0.565594
0.9,3.5,0,0.57783
0.9,3.6,0,0.588928
0.9,3.7,0,0.600025
0.9,3.8,0,0.610515
0.9,3.9,0,0.620398
0.9,4,0,0.630281
0.9,4.1,0,0.638949
0.9,4.2,0,0.647618
0.9,4.3,0,0.65571
0.9,4.4,0,0.663227
0.9,4.5,0,0.670744
0.9,4.6,0,0.677415
0.9,4.7,0,0.684087
0.9,4.8,0,0.689843
0.9,4.9,0,0.694684
0.9,5,0,0.699525
0.9,5.1,0,0.707441
0.9,5.2,0,0.712073
0.9,5.3,0,0.716114
0.9,5.4,0,0.719575
0.9,5.5,0,0.722465
0.9,5.6,0,0.724792
0.9,5.7,0,0.726563
0.9,5.8,0,0.727784
0.9,5.9,0,0.728456
0.9,6,0,0.728579
0.9,6.1,0,0.72815
0.9,6.2,0,0.727166
0.9,6.3,0,0.725621
0.9,6.4,0,0.723513
0.9,6.5,0,0.720838
0.9,6.6,0,0.717589
0.9,6.7,0,0.713762
0.9,6.8,0,0.709349
0.9,6.9,0,0.70435
0.9,7,0,0.695054
0.9,7.1,0,0.689749
0.9,7.2,0,0.684443
0.9,7.3,0,0.678868
0.9,7.4,0,0.67176
0.9,7.5,0,0.664652
0.9,7.6,0,0.657408
0.9,7.7,0,0.649847
0.9,7.8,0,0.642286
0.9,7.9,0,0.634518
0.9,8,0,0.626497
0.9,8.1,0,0.618476
0.9,8.2,0,0.610236
0.9,8.3,0,0.60185
0.9,8.4,0,0.593464
0.9,8.5,0,0.584895
0.9,8.6,0,0.576267
0.9,8.7,0,0.567638
0.9,8.8,0,0.558752
0.9,8.9,0,0.549837
0.9,9,0,0.540888
0.9,9.1,0,0.531278
0.9,9.2,0,0.521667
0.9,9.3,0,0.51185
0.9,9.4,0,0.501201
0.9,9.5,0,0.490553
0.9,9.6,0,0.479527
0.9,9.7,0,0.467799
0.9,9.8,0,0.45607
0.9,9.9,0,0.443827
0.9,10,0,0.431068
0.9,10.1,0,0.418309
0.9,10.2,0,0.404935
0.9,10.3,0,0.391228
0.9,10.4,0,0.377522
0.9,10.5,0,0.363143
0.9,10.6,0,0.348595
0.9,10.7,0,0.334048
0.9,10.8,0,0.318823
0.9,10.9,0,0.303563
0.9,11,0,0.288243
0.9,11.1,0,0.27238
0.9,11.2,0,0.256517
0.9,11.3,0,0.240522
0.9,11.4,0,0.224131
0.9,11.5,0,0.20774
0.9,11.6,0,0.191166
0.9,11.7,0,0.174319
0.9,11.8,0,0.157472
0.9,11.9,0,0.140412
0.9,12,0,0.12318
0.9,12.1,0,0.105948
0.9,12.2,0,0.0884824
0.9,12.3,0,0.0709172
0.9,12.4,0,0.053352
0.9,12.5,0,0.0355911
0.9,12.6,0,0.0177955
0.9,12.7,0,0
1,0,0,0
1,0.1,0,0.0190204
1,0.2,0,0.0378936
1,0.3,0,0.0569855
1,0.4,0,0.0757944
1,0.5,0,0.0947853
1,0.6,0,0.113515
1,0.7,0,0.132195
1,0.8,0,0.150967
1,0.9,0,0.169387
1,1,0,0.188111
1,1.1,0,0.20621
1,1.2,0,0.22436
1,1.3,0,0.242589
1,1.4,0,0.26037
1,1.5,0,0.278509
1,1.6,0,0.295738
1,1.7,0,0.313131
1,1.8,0,0.33047
1,1.9,0,0.34727
1,2,0,0.364562
1,2.1,0,0.380634
1,2.2,0,0.396922
1,2.3,0,0.413082
1,2.4,0,0.428653
1,2.5,0,0.444764
1,2.6,0,0.459431
1,2.7,0,0.474382
1,2.8,0,0.489082
1,2.9,0,0.503182
1,3,0,0.517866
1,3.1,0,0.530743
1,3.2,0,0.544043
1,3.3,0,0.556895
1,3.4,0,0.569086
1,3.5,0,0.58199
1,3.6,0,0.592543
1,3.7,0,0.603719
1,3.8,0,0.614352
1,3.9,0,0.624173
1,4,0,0.634962
1,4.1,0,0.642923
1,4.2,0,0.6517
1,4.3,0,0.660267
1,4.4,0,0.667728
1,4.5,0,0.676276
1,4.6,0,0.68275
1,4.7,0,0.689479
1,4.8,0,0.69657
1,4.9,0,0.701501
1,5,0,0.705595
1,5.1,0,0.713542
1,5.2,0,0.718193
1,5.3,0,0.722262
1,5.4,0,0.725755
1,5.5,0,0.728678
1,5.6,0,0.731037
1,5.7,0,0.732839
1,5.8,0,0.734087
1,5.9,0,0.734784
1,6,0,0.734928
1,6.1,0,0.734518
1,6.2,0,0.733551
1,6.3,0,0.732024
1,6.4,0,0.729934
1,6.5,0,0.727281
1,6.6,0,0.724063
1,6.7,0,0.720279
1,6.8,0,0.715927
1,6.9,0,0.711015
1,7,0,0.701897
1,7.1,0,0.701419
1,7.2,0,0.696113
1,7.3,0,0.68661
1,7.4,0,0.682292
1,7.5,0,0.675184
1,7.6,0,0.665316
1,7.7,0,0.659254
1,7.8,0,0.651238
1,7.9,0,0.641803
1,8,0,0.634328
1,8.1,0,0.625336
1,8.2,0,0.616191
1,8.3,0,0.607847
1,8.4,0,0.598492
1,8.5,0,0.588852
1,8.6,0,0.580223
1,8.7,0,0.571259
1,8.8,0,0.561005
1,8.9,0,0.552091
1,9,0,0.543552
1,9.1,0,0.532805
1,9.2,0,0.523195
1,9.3,0,0.513566
1,9.4,0,0.502059
1,9.5,0,0.491411
1,9.6,0,0.480361
1,9.7,0,0.468023
1,9.8,0,0.456491
1,9.9,0,0.443813
1,10,0,0.430743
1,10.1,0,0.418488
1,10.2,0,0.40418
1,10.3,0,0.390474
1,10.4,0,0.377653
1,10.5,0,0.362169
1,10.6,0,0.347622
1,10.7,0,0.334303
1,10.8,0,0.317801
1,10.9,0,0.302541
1,11,0,0.288313
1,11.1,0,0.271523
1,11.2,0,0.25566
1,11.3,0,0.240383
1,11.4,0,0.223528
1,11.5,0,0.207174
1,11.6,0,0.191017
1,11.7,0,0.174019
1,11.8,0,0.157281
1,11.9,0,0.140393
1,12,0,0.123145
1,12.1,0,0.105963
1,12.2,0,0.0886202
1,12.3,0,0.071055
1,12.4,0,0.0534179
1,12.5,0,0.0357133
1,12.6,0,0.0179178
1,12.7,0,0
1.1,0,0,0
1.1,0.1,0,0.0191518
1.1,0.2,0,0.0382259
1.1,0.3,0,0.0573179
1.1,0.4,0,0.0762927
1.1,0.5,0,0.0954393
1.1,0.6,0,0.114228
1.1,0.7,0,0.133168
1.1,0.8,0,0.15194
1.1,0.9,0,0.170437
1.1,1,0,0.189407
1.1,1.1,0,0.207492
1.1,1.2,0,0.225982
1.1,1.3,0,0.244212
1.1,1.4,0,0.26203
1.1,1.5,0,0.280453
1.1,1.6,0,0.297585
1.1,1.7,0,0.315394
1.1,1.8,0,0.332732
1.1,1.9,0,0.349472
1.1,2,0,0.367146
1.1,2.1,0,0.383084
1.1,2.2,0,0.399822
1.1,2.3,0,0.415981
1.1,2.4,0,0.431443
1.1,2.5,0,0.447969
1.1,2.6,0,0.46245
1.1,2.7,0,0.477867
1.1,2.8,0,0.492567
1.1,2.9,0,0.50647
1.1,3,0,0.521595
1.1,3.1,0,0.534182
1.1,3.2,0,0.547991
1.1,3.3,0,0.560844
1.1,3.4,0,0.572712
1.1,3.5,0,0.58615
1.1,3.6,0,0.596268
1.1,3.7,0,0.608113
1.1,3.8,0,0.618746
1.1,3.9,0,0.628128
1.1,4,0,0.639643
1.1,4.1,0,0.647037
1.1,4.2,0,0.656761
1.1,4.3,0,0.665329
1.1,4.4,0,0.672434
1.1,4.5,0,0.681808
1.1,4.6,0,0.688125
1.1,4.7,0,0.695391
1.1,4.8,0,0.702482
1.1,4.9,0,0.708169
1.1,5,0,0.711665
1.1,5.1,0,0.719642
1.1,5.2,0,0.724313
1.1,5.3,0,0.72841
1.1,5.4,0,0.731934
1.1,5.5,0,0.73489
1.1,5.6,0,0.737282
1.1,5.7,0,0.739114
1.1,5.8,0,0.74039
1.1,5.9,0,0.741112
1.1,6,0,0.741277
1.1,6.1,0,0.740887
1.1,6.2,0,0.739936
1.1,6.3,0,0.738426
1.1,6.4,0,0.736355
1.1,6.5,0,0.733725
1.1,6.6,0,0.730538
1.1,6.7,0,0.726796
1.1,6.8,0,0.722504
1.1,6.9,0,0.717679
1.1,7,0,0.708739
1.1,7.1,0,0.711056
1.1,7.2,0,0.704629
1.1,7.3,0,0.693486
1.1,7.4,0,0.692151
1.1,7.5,0,0.682161
1.1,7.6,0,0.671874
1.1,7.7,0,0.668662
1.1,7.8,0,0.657182
1.1,7.9,0,0.647747
1.1,8,0,0.64216
1.1,8.1,0,0.630531
1.1,8.2,0,0.621386
1.1,8.3,0,0.613803
1.1,8.4,0,0.602889
1.1,8.5,0,0.593168
1.1,8.6,0,0.584075
1.1,8.7,0,0.574816
1.1,8.8,0,0.564014
1.1,8.9,0,0.554598
1.1,9,0,0.546314
1.1,9.1,0,0.534755
1.1,9.2,0,0.525154
1.1,9.3,0,0.515678
1.1,9.4,0,0.503049
1.1,9.5,0,0.49298
1.1,9.6,0,0.48195
1.1,9.7,0,0.468247
1.1,9.8,0,0.457645
1.1,9.9,0,0.444968
1.1,10,0,0.430417
1.1,10.1,0,0.419291
1.1,10.2,0,0.404942
1.1,10.3,0,0.389855
1.1,10.4,0,0.378192
1.1,10.5,0,0.36231
1.1,10.6,0,0.347105
1.1,10.7,0,0.334664
1.1,10.8,0,0.31747
1.1,10.9,0,0.302251
1.1,11,0,0.288557
1.1,11.1,0,0.270955
1.1,11.2,0,0.255636
1.1,11.3,0,0.240547
1.1,11.4,0,0.222945
1.1,11.5,0,0.207283
1.1,11.6,0,0.191126
1.1,11.7,0,0.173718
1.1,11.8,0,0.157359
1.1,11.9,0,0.140471
1.1,12,0,0.123111
1.1,12.1,0,0.106025
1.1,12.2,0,0.0886894
1.1,12.3,0,0.0711754
1.1,12.4,0,0.0534613
1.1,12.5,0,0.0357837
1.1,12.6,0,0.0179886
1.1,12.7,0,0
1.2,0,0,0
1.2,0.1,0,0.0192022
1.2,0.2,0,0.0385583
1.2,0.3,0,0.0576502
1.2,0.4,0,0.0769086
1.2,0.5,0,0.0960933
1.2,0.6,0,0.114956
1.2,0.7,0,0.134141
1.2,0.8,0,0.152913
1.2,0.9,0,0.171728
1.2,1,0,0.190703
1.2,1.1,0,0.208891
1.2,1.2,0,0.227605
1.2,1.3,0,0.245834
1.2,1.4,0,0.263983
1.2,1.5,0,0.282396
1.2,1.6,0,0.29966
1.2,1.7,0,0.317657
1.2,1.8,0,0.334995
1.2,1.9,0,0.352103
1.2,2,0,0.369729
1.2,2.1,0,0.385812
1.2,2.2,0,0.402721
1.2,2.3,0,0.41888
1.2,2.4,0,0.434712
1.2,2.5,0,0.451174
1.2,2.6,0,0.465809
1.2,2.7,0,0.481352
1.2,2.8,0,0.496052
1.2,2.9,0,0.510292
1.2,3,0,0.525325
1.2,3.1,0,0.538086
1.2,3.2,0,0.55194
1.2,3.3,0,0.564792
1.2,3.4,0,0.577008
1.2,3.5,0,0.590309
1.2,3.6,0,0.600661
1.2,3.7,0,0.612507
1.2,3.8,0,0.62314
1.2,3.9,0,0.632995
1.2,4,0,0.644324
1.2,4.1,0,0.652045
1.2,4.2,0,0.661823
1.2,4.3,0,0.67039
1.2,4.4,0,0.678135
1.2,4.5,0,0.68734
1.2,4.6,0,0.69383
1.2,4.7,0,0.701303
1.2,4.8,0,0.708393
1.2,4.9,0,0.713968
1.2,5,0,0.717735
1.2,5.1,0,0.725742
1.2,5.2,0,0.730433
1.2,5.3,0,0.734558
1.2,5.4,0,0.738114
1.2,5.5,0,0.741103
1.2,5.6,0,0.743527
1.2,5.7,0,0.74539
1.2,5.8,0,0.746693
1.2,5.9,0,0.74744
1.2,6,0,0.747627
1.2,6.1,0,0.747255
1.2,6.2,0,0.746322
1.2,6.3,0,0.744828
1.2,6.4,0,0.742775
1.2,6.5,0,0.740168
1.2,6.6,0,0.737012
1.2,6.7,0,0.733313
1.2,6.8,0,0.729081
1.2,6.9,0,0.724343
1.2,7,0,0.715582
1.2,7.1,0,0.71752
1.2,7.2,0,0.711506
1.2,7.3,0,0.700363
1.2,7.4,0,0.697773