/*--------------------------------*- C++ -*----------------------------------*\
| =========                 |                                                 |
| \\      /  F ield         | OpenFOAM: The Open Source CFD Toolbox           |
|  \\    /   O peration     | Version:  v1806                                 |
|   \\  /    A nd           | Web:      www.OpenFOAM.com                      |
|    \\/     M anipulation  |                                                 |
\*---------------------------------------------------------------------------*/
FoamFile
{
    version     2.0;
    format      ascii;
    class       surfaceScalarField;
    location    "30";
    object      phi;
}
// * * * * * * * * * * * * * * * * * * * * * * * * * * * * * * * * * * * * * //

dimensions      [0 3 -1 0 0 0 0];
oriented        oriented;


internalField   nonuniform List<scalar> 
4680
(
0.0749998
-0.000441758
0.0749991
-0.00133789
0.0749979
-0.00224793
0.0749961
-0.00317347
0.0749938
-0.00411628
0.0749909
-0.0050784
0.0749876
-0.0060603
0.0749841
-0.00706131
0.0749805
-0.00808288
0.0749769
-0.00912807
0.0749733
-0.0101995
0.0749699
-0.011288
0.0749666
-0.012393
0.0749631
-0.0135159
0.0749571
-0.0146675
0.0749462
-0.0158789
0.0749295
-0.017074
0.074901
-0.0183097
0.0748583
-0.0195468
-0.0207184
0.0747972
0.0749995
-0.000441232
0.0749978
-0.00133622
0.074995
-0.00224518
0.0749913
-0.00316975
0.0749869
-0.00411182
0.0749819
-0.00507346
0.0749769
-0.00605526
0.0749723
-0.0070567
0.0749685
-0.00807915
0.074966
-0.0091255
0.0749647
-0.0101982
0.0749652
-0.0112885
0.0749675
-0.0123953
0.0749711
-0.0135195
0.0749739
-0.0146702
0.0749715
-0.0158765
0.074963
-0.0170655
0.0749409
-0.0182876
0.0749034
-0.0195094
-0.0206564
0.0748415
0.0749991
-0.000440301
0.0749962
-0.00133334
0.0749914
-0.00224041
0.0749851
-0.00316341
0.0749776
-0.00410431
0.0749694
-0.00506532
0.0749614
-0.00604722
0.0749543
-0.00704966
0.0749491
-0.00807393
0.0749464
-0.00912277
0.0749466
-0.0101984
0.0749505
-0.0112924
0.0749583
-0.0124031
0.0749696
-0.0135308
0.0749819
-0.0146825
0.0749905
-0.0158851
0.0749939
-0.0170688
0.0749839
-0.0182777
0.0749564
-0.0194819
-0.0206036
0.0749036
0.0749986
-0.000438871
0.0749942
-0.00132892
0.0749869
-0.00223313
0.0749772
-0.0031537
0.0749657
-0.00409281
0.0749532
-0.00505288
0.0749409
-0.00603489
0.07493
-0.00703878
0.0749219
-0.00806578
0.0749176
-0.00911853
0.0749181
-0.0101989
0.0749246
-0.0112989
0.0749376
-0.0124161
0.0749568
-0.01355
0.0749801
-0.0147059
0.0750024
-0.0159073
0.0750215
-0.017088
0.0750289
-0.018285
0.0750191
-0.0194721
-0.02057
0.0749855
0.0749979
-0.000436797
0.0749916
-0.00132255
0.074981
-0.00222262
0.074967
-0.00313964
0.0749503
-0.00407608
0.074932
-0.00503465
0.0749137
-0.0060166
0.0748972
-0.00702225
0.0748842
-0.00805279
0.0748766
-0.00911093
0.0748758
-0.0101981
0.0748836
-0.0113067
0.0749011
-0.0124336
0.0749285
-0.0135775
0.0749641
-0.0147415
0.0750027
-0.0159459
0.0750421
-0.0171274
0.0750731
-0.018316
0.0750893
-0.0194882
-0.0205648
0.075084
0.0749971
-0.000433889
0.0749882
-0.00131366
0.0749735
-0.00220795
0.0749539
-0.00311996
0.0749303
-0.00405248
0.0749043
-0.00500868
0.0748778
-0.00599009
0.0748531
-0.00699761
0.0748327
-0.00803237
0.0748192
-0.00909743
0.0748147
-0.0101936
0.074822
-0.0113141
0.0748427
-0.0124543
0.0748782
-0.013613
0.0749273
-0.0147905
0.0749851
-0.0160038
0.0750495
-0.0171918
0.0751106
-0.0183771
0.0751615
-0.0195391
-0.0205982
0.0751949
0.074996
-0.000429914
0.0749839
-0.00130155
0.0749639
-0.00218798
0.074937
-0.00309304
0.0749045
-0.00401997
0.0748683
-0.00497249
0.0748307
-0.0059525
0.0747948
-0.00696169
0.0747635
-0.00800111
0.0747407
-0.00907461
0.0747291
-0.010182
0.0747332
-0.0113181
0.0747549
-0.012476
0.0747978
-0.0136558
0.0748608
-0.0148535
0.0749407
-0.0160837
0.0750348
-0.0172859
0.0751334
-0.0184756
0.0752288
-0.0196344
-0.0206812
0.0753117
0.0749947
-0.000424595
0.0749785
-0.0012854
0.0749519
-0.00216131
0.0749158
-0.00305695
0.0748718
-0.00397604
0.0748224
-0.00492304
0.0747701
-0.00590023
0.0747189
-0.00691045
0.0746723
-0.00795456
0.0746356
-0.00903791
0.0746124
-0.0101587
0.0746091
-0.0113148
0.0746284
-0.0124954
0.074677
-0.0137044
0.0747534
-0.0149299
0.0748582
-0.0161886
0.0749867
-0.0174144
0.0751312
-0.0186201
0.0752821
-0.0197853
-0.0208264
0.0754274
0.074993
-0.000417613
0.0749719
-0.00126425
0.0749369
-0.00212636
0.0748894
-0.00300944
0.0748311
-0.00391774
0.0747647
-0.00485668
0.0746934
-0.00582893
0.0746219
-0.0068389
0.0745544
-0.0078871
0.0744979
-0.0089814
0.0744567
-0.0101175
0.0744405
-0.0112985
0.074452
-0.012507
0.0745032
-0.0137555
0.074591
-0.0150177
0.0747234
-0.016321
0.0748902
-0.0175812
0.0750912
-0.0188211
0.07531
-0.0200041
-0.0210501
0.0755336
0.074991
-0.000408615
0.0749638
-0.00123703
0.0749188
-0.00208133
0.0748572
-0.00294793
0.0747812
-0.0038417
0.0746937
-0.00476918
0.0745982
-0.00573343
0.0745003
-0.00674099
0.074405
-0.00779175
0.0743211
-0.00889752
0.0742537
-0.0100502
0.0742166
-0.0112614
0.0742124
-0.0125028
0.074261
-0.0138041
0.0743556
-0.0151123
0.0745179
-0.0164834
0.0747258
-0.0177891
0.0749973
-0.0190926
0.0752973
-0.0203041
-0.021375
0.0756222
0.0749886
-0.00039722
0.0749542
-0.0012026
0.0748971
-0.00202429
0.0748188
-0.00286964
0.0747213
-0.00374419
0.0746079
-0.00465573
0.0744823
-0.00560781
0.0743508
-0.00660954
0.0742191
-0.00766007
0.0740983
-0.00877669
0.073994
-0.00994584
0.0739254
-0.0111929
0.0738939
-0.0124713
0.0739321
-0.0138423
0.0740246
-0.0152048
0.0742188
-0.0166776
0.0744674
-0.0180377
0.0748288
-0.0194541
0.0752242
-0.0206994
-0.0218366
0.0756857
0.0749858
-0.00038304
0.074943
-0.00115978
0.074872
-0.00195324
0.074774
-0.00277164
0.074651
-0.00362122
0.0745063
-0.00451109
0.074344
-0.00544544
0.0741707
-0.00643623
0.0739927
-0.00748207
0.073823
-0.00860703
0.0736682
-0.00979104
0.0735536
-0.0110782
0.0734789
-0.0123966
0.073494
-0.0138574
0.0735697
-0.0152805
0.0737965
-0.0169044
0.074079
-0.0183202
0.0745595
-0.0199345
0.0750631
-0.021203
-0.0224912
0.0757178
0.0749827
-0.0003657
0.0749303
-0.00110745
0.0748433
-0.00186622
0.0747227
-0.00265099
0.0745702
-0.00346876
0.0743889
-0.00432979
0.0741827
-0.00523924
0.0739583
-0.00621183
0.0737226
-0.00724636
0.0734896
-0.00837407
0.0732677
-0.00956912
0.0730872
-0.0108977
0.0729482
-0.0122576
0.0729197
-0.0138289
0.0729563
-0.0153171
0.0732121
-0.0171602
0.0735108
-0.0186189
0.074155
-0.0205787
0.0747705
-0.0218185
-0.0234343
0.0757135
0.0749792
-0.000344868
0.0749163
-0.00104459
0.0748116
-0.00176147
0.0746656
-0.00250502
0.0744798
-0.00328297
0.0742565
-0.00410649
0.0739993
-0.00498203
0.073714
-0.00592654
0.0734081
-0.00694044
0.0730949
-0.00806093
0.072786
-0.00926019
0.0725132
-0.0106249
0.0722829
-0.0120273
0.0721775
-0.0137235
0.0721447
-0.0152843
0.0724108
-0.0174263
0.0726949
-0.018903
0.0735672
-0.021451
0.0742703
-0.0225216
-0.0248395
0.0756755
0.0749754
-0.000320287
0.0749013
-0.000970423
0.0747774
-0.00163759
0.0746039
-0.00233155
0.0743815
-0.0030606
0.0741115
-0.00383646
0.0737965
-0.00466706
0.0734408
-0.00557078
0.0730516
-0.00655122
0.0726397
-0.00764908
0.0722205
-0.00884102
0.071822
-0.0102263
0.0714659
-0.0116712
0.0712311
-0.0134887
0.0710922
-0.0151453
0.0713126
-0.0176467
0.0715494
-0.0191397
0.0727079
-0.0226096
0.0734298
-0.0232434
-0.0270567
0.075647
0.0749715
-0.000291824
0.0748856
-0.000884531
0.0747418
-0.00149376
0.0745395
-0.0021292
0.0742783
-0.00279941
0.073958
-0.00351623
0.0735798
-0.00428885
0.0731453
-0.00513627
0.0726603
-0.0060662
0.0721313
-0.00712008
0.0715758
-0.00828553
0.0710128
-0.00966334
0.0704848
-0.0111432
0.0700468
-0.0130507
0.0697508
-0.0148494
0.0698035
-0.0176994
0.0699887
-0.0193249
0.0713795
-0.0240003
0.0720634
-0.0239273
-0.0307601
0.0757668
0.0749677
-0.000259501
0.0748701
-0.000786952
0.0747063
-0.00132995
0.0744748
-0.00189774
0.0741741
-0.00249869
0.0738021
-0.00314421
0.0733575
-0.00384422
0.0728386
-0.00461744
0.0722477
-0.00547531
0.0715857
-0.00645805
0.0708672
-0.00756697
0.0701002
-0.00889638
0.0693396
-0.0103826
0.0686082
-0.0123193
0.0680611
-0.0143023
0.0677592
-0.0173975
0.0679019
-0.0194676
0.0691935
-0.025292
0.0700615
-0.0247954
-0.0367808
0.0760822
0.074964
-0.000223535
0.0748554
-0.000678277
0.0746725
-0.00114708
0.0744131
-0.00163837
0.0740742
-0.00215974
0.0736514
-0.00272148
0.0731406
-0.00333342
0.0725362
-0.00401297
0.0718346
-0.00477376
0.0710296
-0.00565303
0.0701262
-0.00666353
0.0691202
-0.00789046
0.0680569
-0.00931929
0.0669367
-0.0111991
0.0659603
-0.0133258
0.0650956
-0.0165329
0.0650388
-0.0194108
0.065572
-0.0258252
0.067506
-0.0267293
-0.0447708
0.075496
0.0749609
-0.000184424
0.0748423
-0.000559667
0.0746423
-0.000947116
0.0743579
-0.00135392
0.0739843
-0.0017862
0.0735151
-0.00225227
0.0729429
-0.00276119
0.0722574
-0.00332745
0.0714487
-0.00396505
0.0705009
-0.00470526
0.0694049
-0.00556749
0.0681383
-0.00662393
0.0667144
-0.0078954
0.0651084
-0.00959301
0.0634642
-0.0116816
0.0617598
-0.0148285
0.0608811
-0.0185321
0.0603028
-0.0252469
0.0642943
-0.0307208
-0.0502184
0.0697419
0.0749586
-0.000143006
0.0748316
-0.000432637
0.0746176
-0.000733211
0.0743127
-0.00104895
0.0739104
-0.00138394
0.0734023
-0.00174411
0.0727781
-0.00213701
0.072023
-0.00257235
0.0711208
-0.00306288
0.0700452
-0.0036297
0.068772
-0.00429423
0.0672539
-0.00510583
0.0654616
-0.00610313
0.0633096
-0.007441
0.0608085
-0.00918052
0.0578368
-0.0118569
0.0548407
-0.015536
0.0520966
-0.0225027
0.0543148
-0.032939
0.05074
-0.0466436
0.0745911
-0.0364405
0.0742305
-0.0403947
0.0736801
-0.0433601
0.0727244
-0.0467414
0.0710213
-0.052321
0.0683437
-0.0603216
0.0647389
-0.0692663
0.0603399
-0.0768341
0.0552563
-0.0811633
-0.0819391
0.0494423
0.0746206
-0.0362196
0.0742215
-0.0399956
0.0736286
-0.0427672
0.0726572
-0.04577
0.0709852
-0.050649
0.0684161
-0.0577525
0.065025
-0.0658753
0.0609613
-0.0727704
0.0563089
-0.0765108
-0.0766084
0.0509782
0.0746926
-0.0360087
0.0742972
-0.0396002
0.0737093
-0.0421793
0.0727546
-0.0448153
0.0711313
-0.0490257
0.068665
-0.0552863
0.0654196
-0.0626298
0.0615049
-0.0688558
0.0569624
-0.0719683
-0.0714078
0.0517617
0.0748031
-0.0358262
0.0744309
-0.039228
0.0738696
-0.041618
0.0729608
-0.0439065
0.0714268
-0.0474917
0.0691173
-0.0529767
0.0660907
-0.0596032
0.0624147
-0.0651798
0.0580931
-0.0676466
-0.0663434
0.0530287
0.0749497
-0.0356919
0.0746266
-0.038905
0.0741167
-0.0411081
0.0732693
-0.0430591
0.0718363
-0.0460587
0.069696
-0.0508365
0.0668782
-0.0567854
0.0633729
-0.0616745
0.0591312
-0.063405
-0.0612911
0.0540789
0.0751294
-0.0356264
0.0748772
-0.0386528
0.0744323
-0.0406632
0.0736567
-0.0422834
0.0723505
-0.0447525
0.0704228
-0.0489088
0.0678466
-0.0542092
0.0645076
-0.0583355
0.0603035
-0.0592008
-0.0561582
0.0551705
0.0753377
-0.0356524
0.0751783
-0.0384934
0.0748103
-0.0402951
0.0741161
-0.0415892
0.0729596
-0.043596
0.0712694
-0.0472187
0.0689212
-0.051861
0.0656742
-0.0550885
0.0613878
-0.0549144
-0.0508421
0.0560718
0.0755715
-0.0357965
0.0755239
-0.0384458
0.0752378
-0.0400091
0.0746358
-0.0409872
0.0736602
-0.0426204
0.0722304
-0.0457888
0.0700758
-0.0497064
0.0668229
-0.0518356
0.0623255
-0.050417
-0.0452336
0.0567169
0.0758269
-0.0360898
0.0759057
-0.0385246
0.0757065
-0.0398098
0.0752191
-0.0404998
0.0744574
-0.0418588
0.0732714
-0.0446028
0.0712022
-0.0476373
0.0677762
-0.0484095
0.0629063
-0.0455471
-0.0392437
0.0569164
0.0761001
-0.0365677
0.0763155
-0.03874
0.0762156
-0.0397099
0.0758785
-0.0401627
0.0753427
-0.0413229
0.0743083
-0.0435684
0.072122
-0.045451
0.0682948
-0.0445822
0.0628861
-0.0401384
-0.0328235
0.0564658
0.076386
-0.037268
0.0767515
-0.0391054
0.0767825
-0.0397409
0.0766279
-0.0400081
0.0762518
-0.0409469
0.0751373
-0.042454
0.0725086
-0.0428223
0.0680061
-0.0400797
0.061931
-0.0340633
-0.0260109
0.0551185
0.0766826
-0.0382329
0.0772328
-0.0396556
0.0774379
-0.0399461
0.0774247
-0.0399949
0.0769659
-0.0404881
0.0753461
-0.0408341
0.0718478
-0.0393241
0.0664194
-0.0346513
0.059665
-0.0273089
-0.0189786
0.0526326
0.0770056
-0.0395249
0.0778047
-0.0404547
0.0781634
-0.0403048
0.0780338
-0.0398653
0.0769657
-0.03942
0.0742266
-0.038095
0.0694293
-0.0345268
0.0629704
-0.0281924
0.0557341
-0.0200725
-0.0120772
0.0488327
0.0773999
-0.0412493
0.0784819
-0.0415367
0.0787035
-0.0405264
0.0777988
-0.0389606
0.0752913
-0.0369125
0.0707768
-0.0335805
0.0644514
-0.0282014
0.0571701
-0.0209111
0.0499431
-0.0128455
-0.00583134
0.0436972
0.0778991
-0.0435015
0.0790016
-0.0426392
0.0782168
-0.0397416
0.0754197
-0.0361635
0.0705544
-0.0320472
0.0639
-0.0269261
0.056307
-0.0206084
0.0488677
-0.0134718
0.0424282
-0.00640602
-0.000858353
0.0374552
0.078307
-0.0460416
0.0783126
-0.0426447
0.0749157
-0.0363447
0.0689923
-0.0302401
0.0613205
-0.0243753
0.0529513
-0.0185569
0.0450719
-0.012729
0.0385582
-0.00695811
0.0337817
-0.00162952
0.00237617
0.0305472
0.0773564
-0.0473159
0.0740426
-0.0393309
0.0661574
-0.0284595
0.0567136
-0.0207964
0.0470906
-0.0147523
0.0385811
-0.0100473
0.0319649
-0.00611281
0.0274536
-0.00244685
0.0248823
0.000941758
0.00371967
0.0235388
0.0716279
-0.0434478
0.0622851
-0.0299881
0.0496649
-0.0158393
0.0386092
-0.00974066
0.0296696
-0.00581272
0.0232632
-0.00364096
0.0191437
-0.00199331
0.0170022
-0.000305347
0.0164929
0.00145107
0.00345238
0.0167602
0.0551756
-0.0288815
0.039442
-0.0142546
0.0265802
-0.00297752
0.0184914
-0.00165189
0.0133792
-0.000700479
0.0102852
-0.000546996
0.00860049
-0.000308566
0.0081732
0.000121939
0.00888374
0.000740536
0.00204609
0.01029
0.0218585
0.00760394
0.00462642
0.00297453
0.00227405
0.00172706
0.00141849
0.00154043
0.00228096
0.00432706
0.0361956
-0.161109
0.0243849
-0.143751
0.0156629
-0.122947
0.00996914
-0.102322
0.00647734
-0.0838461
0.00435717
-0.0684183
0.00304394
-0.0558558
0.00220105
-0.04568
0.00163847
-0.0373948
0.00124888
-0.0306009
0.000970594
-0.0249918
0.000766949
-0.0203336
0.000615402
-0.0164434
0.000501567
-0.013174
0.000415981
-0.0104035
0.000352285
-0.00802851
0.000306169
-0.00595975
0.00027485
-0.00411893
0.000256305
-0.00245996
-0.00108552
0.0385448
-0.148676
0.0270439
-0.13225
0.018094
-0.113997
0.011917
-0.0961452
0.00792988
-0.079859
0.00541493
-0.0659034
0.00381573
-0.0542566
0.00277208
-0.0446364
0.0020684
-0.0366912
0.00157825
-0.0301108
0.00122699
-0.0246406
0.000969525
-0.0200762
0.000777774
-0.0162517
0.000633697
-0.0130299
0.000525369
-0.0102952
0.000444747
-0.00794789
0.000386397
-0.0059014
0.000346785
-0.00407932
0.000323505
-0.00243668
-0.00107609
0.0395789
-0.136493
0.0283744
-0.121045
0.0195877
-0.10521
0.0133721
-0.0899296
0.0092044
-0.0756913
0.00646744
-0.0631664
0.00466221
-0.0524514
0.00344748
-0.0434216
0.00260778
-0.0358515
0.00201104
-0.029514
0.00157645
-0.024206
0.00125379
-0.0197535
0.00101104
-0.0160089
0.000827171
-0.0128461
0.00068808
-0.0101561
0.000584102
-0.00784391
0.00050865
-0.00582595
0.000457396
-0.00402807
0.000427433
-0.00240672
-0.00106357
0.040988
-0.124452
0.0298298
-0.109887
0.0209968
-0.0963771
0.0146735
-0.0836063
0.010353
-0.0713708
0.00744835
-0.0602618
0.00548286
-0.0504859
0.00412697
-0.0420658
0.00316809
-0.0348926
0.00247281
-0.0288188
0.00195766
-0.0236908
0.00156958
-0.0193654
0.00127409
-0.0157134
0.0010481
-0.0126201
0.00087583
-0.0099838
0.000746327
-0.00771441
0.000652023
-0.00573164
0.00058789
-0.00396393
0.000550473
-0.0023693
-0.0010477
0.0420318
-0.112405
0.0309492
-0.0988046
0.0221489
-0.0875768
0.0157875
-0.0772449
0.0113711
-0.0669544
0.00834521
-0.0572359
0.00625461
-0.0483953
0.0047819
-0.040593
0.00371951
-0.0338302
0.00293521
-0.0280345
0.00234488
-0.0231005
0.00189418
-0.0189147
0.00154714
-0.0153664
0.00127931
-0.0123522
0.00107369
-0.00977818
0.00091829
-0.00755901
0.000804743
-0.0056181
0.000727405
-0.00388659
0.000682295
-0.00232419
-0.00102841
0.0429419
-0.100176
0.0318464
-0.087709
0.0230758
-0.0788062
0.0167202
-0.0708893
0.0122592
-0.0624933
0.00915495
-0.0541317
0.00697056
-0.0462109
0.00540246
-0.0390249
0.00425066
-0.0326784
0.00338639
-0.0271702
0.0027266
-0.0224407
0.0022168
-0.0184049
0.00182036
-0.0149699
0.00151194
-0.0120438
0.00127368
-0.00953992
0.00109277
-0.0073781
0.00096018
-0.0054855
0.000869711
-0.00379613
0.00081689
-0.00227137
-0.00100567
0.0435665
-0.0876711
0.0324675
-0.0766101
0.0237691
-0.0701077
0.0174745
-0.0645947
0.0130199
-0.0580388
0.00987793
-0.0509896
0.00762888
-0.0439618
0.0059851
-0.0373812
0.00475687
-0.0314502
0.0038211
-0.0262344
0.00309738
-0.021717
0.00253213
-0.0178397
0.0020887
-0.0145265
0.00174132
-0.0116964
0.0014715
-0.00927009
0.00126579
-0.0071724
0.00111461
-0.00533432
0.00101126
-0.00369278
0.000950808
-0.00221092
-0.000979503
0.0438572
-0.0748114
0.032788
-0.0655409
0.0242224
-0.0615421
0.0180522
-0.0584245
0.0136566
-0.0536432
0.0105162
-0.0478493
0.00822994
-0.0416756
0.00652884
-0.0356801
0.00523624
-0.0301576
0.00423692
-0.0252351
0.00345455
-0.0209346
0.00283744
-0.0172226
0.00234951
-0.0140386
0.00196491
-0.0113118
0.00166475
-0.00896993
0.00143511
-0.00694276
0.00126591
-0.00516512
0.00115002
-0.00357688
0.00108207
-0.00214296
-0.000949942
0.0437115
-0.0616065
0.0327698
-0.0545992
0.0244274
-0.0531997
0.0184562
-0.0524533
0.0141736
-0.0493606
0.0110731
-0.0447488
0.00877544
-0.0393779
0.007034
-0.0339386
0.0056882
-0.0288118
0.00463271
-0.0241796
0.00379673
-0.0200986
0.00313123
-0.0165571
0.00260127
-0.0135086
0.00218122
-0.0108918
0.00185203
-0.00864074
0.00159939
-0.00669013
0.00141283
-0.00497856
0.00128477
-0.00344883
0.00120949
-0.00206768
-0.000917035
0.0430252
-0.0481659
0.032374
-0.043948
0.0243759
-0.0452016
0.0186898
-0.0467672
0.0145768
-0.0452476
0.0115533
-0.0417253
0.00926804
-0.0370926
0.00750176
-0.0321724
0.00611289
-0.0274229
0.00500806
-0.0230748
0.00412314
-0.0192137
0.00341259
-0.0158465
0.00284302
-0.0129391
0.00238933
-0.0104381
0.00203243
-0.00828385
0.00175778
-0.00641547
0.00155453
-0.0047753
0.00141473
-0.00330904
0.00133232
-0.00198526
-0.000880847
0.0416915
-0.0347389
0.0315661
-0.0338226
0.024063
-0.0376986
0.0187589
-0.041463
0.0148736
-0.0413623
0.0119624
-0.0388142
0.00971127
-0.0348415
0.00793388
-0.030395
0.00651093
-0.0259999
0.00536287
-0.0219267
0.00443334
-0.0182842
0.00368089
-0.0150941
0.00307408
-0.0123323
0.00258853
-0.00995254
0.0022053
-0.00790062
0.00190963
-0.0061198
0.00169041
-0.00455608
0.00153933
-0.00315796
0.00145003
-0.00189596
-0.000841457
0.0396238
-0.02173
0.0303233
-0.0245222
0.0234904
-0.0308656
0.0186724
-0.036645
0.0150735
-0.0377634
0.0123076
-0.0360483
0.0101094
-0.0326433
0.0083326
-0.0286181
0.00688326
-0.0245506
0.00569732
-0.0207408
0.00472709
-0.017314
0.0039357
-0.0143027
0.00329392
-0.0116905
0.00277827
-0.0094369
0.00237007
-0.00749241
0.00205443
-0.00580416
0.00181998
-0.00432164
0.00165812
-0.00299609
0.00156219
-0.00180003
-0.000798957
0.036798
-0.00969536
0.028644
-0.0163681
0.0226691
-0.0248908
0.0184441
-0.0324199
0.0151886
-0.034508
0.0125973
-0.0334569
0.0104676
-0.0305136
0.00870061
-0.0268511
0.00723104
-0.023081
0.00601173
-0.0195215
0.00500426
-0.0163065
0.00417666
-0.0134751
0.00350207
-0.0110159
0.00295808
-0.00889291
0.00252627
-0.0070606
0.00219171
-0.0054696
0.00194283
-0.00407275
0.00177067
-0.00282394
0.00166842
-0.00169777
-0.00075345
0.0332647
0.000737164
0.0265526
-0.00965599
0.021623
-0.0199611
0.0180941
-0.028891
0.0152344
-0.0316483
0.0128415
-0.0310641
0.0107915
-0.0284636
0.00904088
-0.0251005
0.00755564
-0.0215958
0.00630655
-0.0182724
0.0052648
-0.0152647
0.00440346
-0.0126137
0.00369815
-0.0103106
0.0031275
-0.00832226
0.00267347
-0.00660656
0.00232106
-0.0051172
0.00205854
-0.00381023
0.00187664
-0.00264205
0.00176839
-0.00158952
-0.00070505
0.0291488
0.00904357
0.0241016
-0.00460874
0.0203924
-0.0162519
0.0176513
-0.02615
0.0152298
-0.0292268
0.0130517
-0.028886
0.0110874
-0.0264994
0.00935664
-0.0233697
0.00785852
-0.0200977
0.00658227
-0.0169961
0.00550871
-0.0141912
0.00461587
-0.0117209
0.00388178
-0.00957649
0.00328615
-0.00772664
0.00281126
-0.00613167
0.0024421
-0.00474804
0.00216676
-0.00353488
0.00197569
-0.00245098
0.00186178
-0.00147561
-0.00065388
0.0246546
0.0149361
0.0213749
-0.00132896
0.0190404
-0.0139175
0.0171561
-0.0242656
0.0151985
-0.0272692
0.0132403
-0.0269278
0.011362
-0.024621
0.00965119
-0.0216589
0.00814115
-0.0185876
0.00683942
-0.0156944
0.00573601
-0.0130878
0.00481365
-0.0107985
0.00405264
-0.00881548
0.00343365
-0.00710765
0.00293927
-0.0056373
0.00255446
-0.00436323
0.00226715
-0.00324757
0.00206748
-0.00225131
0.00194831
-0.00135645
-0.000600064
0.0199791
0.0184958
0.0184901
0.000160134
0.0176599
-0.0130873
0.0166624
-0.0232682
0.0151686
-0.0257754
0.0134215
-0.0251807
0.0116221
-0.0228217
0.00992776
-0.0199646
0.00840497
-0.0170648
0.00707848
-0.0143679
0.00594671
-0.011956
0.00499659
-0.00984839
0.0042104
-0.00802929
0.00356964
-0.00646689
0.00305715
-0.0051248
0.00265781
-0.00396389
0.00235939
-0.00294916
0.00215173
-0.00204364
0.00202771
-0.00123243
-0.000543734
0.0153069
0.0199492
0.0156328
-0.000165857
0.0163811
-0.0138355
0.0162384
-0.0231256
0.0151722
-0.0247091
0.0136099
-0.0236185
0.0118745
-0.0210862
0.0101894
-0.0182795
0.00865123
-0.0155267
0.00729986
-0.0130166
0.0061408
-0.0107969
0.00516448
-0.00887208
0.00435476
-0.00721957
0.0036938
-0.00580593
0.00316456
-0.00459556
0.00275182
-0.00355115
0.00244319
-0.00264053
0.00222816
-0.00182861
0.00209972
-0.00110398
-0.000485033
0.0109111
0.0193281
0.0130989
-0.00235368
0.0153691
-0.0161056
0.0159619
-0.0237184
0.0152425
-0.0239897
0.01382
-0.0221959
0.0121253
-0.0193916
0.0104387
-0.0165928
0.00888097
-0.013969
0.00750385
-0.0116394
0.0063182
-0.00961128
0.00531707
-0.00787095
0.00448542
-0.00638792
0.00380581
-0.00512631
0.0032612
-0.00405095
0.00283622
-0.00312617
0.00251828
-0.00232259
0.00229653
-0.00160687
0.00216412
-0.000971567
-0.000424113
0.00732708
0.0163281
0.0112927
-0.00631935
0.0148084
-0.0196213
0.0159026
-0.0248125
0.0154142
-0.0235013
0.0140614
-0.0208431
0.0123789
-0.0177091
0.0106769
-0.0148908
0.00909469
-0.0123868
0.00769061
-0.0102354
0.00647902
-0.00839969
0.00545444
-0.00684638
0.00460244
-0.00553591
0.00390571
-0.00442959
0.00334711
-0.00349235
0.00291106
-0.00269013
0.00258466
-0.00199619
0.00235699
-0.0013792
0.00222052
-0.000835096
-0.000361848
0.00239476
0.0139333
0.00430314
-0.00822773
0.00595711
-0.0212753
0.00640392
-0.0252594
0.00625447
-0.0233519
0.0056989
-0.0202875
0.00502362
-0.0170338
0.00433353
-0.0142007
0.00369291
-0.0117461
0.00312355
-0.009666
0.00263205
-0.00790819
0.00221616
-0.00643049
0.00187018
-0.00518994
0.00158719
-0.00414659
0.00136021
-0.00326537
0.00118309
-0.00251301
0.00105023
-0.00186333
0.000958133
-0.0012871
0.000901278
-0.000778241
-0.000338522
0.00220105
0.0117323
0.00428194
-0.0103086
0.00600814
-0.0230015
0.00645844
-0.0257096
0.0063096
-0.023203
0.00574681
-0.0197247
0.00506571
-0.0163527
0.0043695
-0.0135045
0.00372359
-0.0111002
0.00314949
-0.0090919
0.00265392
-0.00741262
0.00223456
-0.00601113
0.00188568
-0.00484106
0.0016003
-0.00386122
0.0013714
-0.00303647
0.0011928
-0.00233441
0.00105878
-0.00172931
0.000965944
-0.00119427
0.000908453
-0.00072075
-0.000315188
0.0021302
0.00960207
0.00435905
-0.0125375
0.00609939
-0.0247419
0.00653637
-0.0261466
0.00637231
-0.023039
0.0057982
-0.0191506
0.00510833
-0.0156628
0.00440504
-0.0128012
0.00375333
-0.0104485
0.00317435
-0.00851292
0.00267468
-0.00691295
0.0022519
-0.00558835
0.00190021
-0.00448936
0.00161254
-0.00357355
0.00138181
-0.00280574
0.00120179
-0.00215438
0.0010667
-0.00159422
0.000973114
-0.00110068
0.000915152
-0.000662789
-0.000291638
0.00220009
0.00740198
0.00452705
-0.0148644
0.00623511
-0.0264499
0.00663482
-0.0265463
0.00644333
-0.0228475
0.00585251
-0.0185598
0.00515138
-0.0149617
0.00444
-0.0120899
0.00378206
-0.0097906
0.00319807
-0.00792893
0.00269433
-0.0064092
0.00226821
-0.00516223
0.00191379
-0.00413494
0.00162394
-0.0032837
0.00139148
-0.00257327
0.00121011
-0.00197301
0.00107401
-0.00145812
0.000979726
-0.0010064
0.000921319
-0.000604381
-0.000267896
0.00241845
0.00498353
0.0047839
-0.0172299
0.00641454
-0.0280806
0.00675341
-0.0268852
0.00652244
-0.0226165
0.00590964
-0.017947
0.0051948
-0.0142468
0.00447434
-0.0113694
0.00380977
-0.00912602
0.00322066
-0.00733982
0.00271285
-0.00590139
0.00228347
-0.00473286
0.00192643
-0.00377791
0.00163449
-0.00299176
0.00140039
-0.00233917
0.00121776
-0.00179039
0.00108072
-0.00132109
0.000985777
-0.000911455
0.000926949
-0.000545553
-0.000243985
0.00278832
0.00219521
0.00512573
-0.0195673
0.00663586
-0.0295907
0.00689131
-0.0271407
0.0066093
-0.0223345
0.00596943
-0.0173072
0.00523854
-0.013516
0.00450803
-0.0106389
0.00383642
-0.00845441
0.00324209
-0.00674548
0.00273023
-0.00538953
0.00229767
-0.0043003
0.00193812
-0.00341836
0.0016442
-0.00269784
0.00140854
-0.00210351
0.00122473
-0.00160657
0.00108682
-0.00118317
0.000991263
-0.0008159
0.00093204
-0.000486331
-0.000219927
0.003307
-0.0011118
0.00554685
-0.0218071
0.0068962
-0.03094
0.00704724
-0.0272917
0.00670336
-0.0219906
0.00603165
-0.0166354
0.00528248
-0.0127668
0.00454103
-0.00989744
0.00386201
-0.00777539
0.00326234
-0.00614581
0.00274647
-0.00487366
0.00231081
-0.00386464
0.00194884
-0.00305639
0.00165304
-0.00240203
0.00141594
-0.00186641
0.00123102
-0.00142166
0.0010923
-0.00104446
0.00099618
-0.000719778
0.000936589
-0.000426739
-0.000195747
0.00396474
-0.00507654
0.00603994
-0.0238824
0.00719159
-0.0320917
0.00721952
-0.0273196
0.00680392
-0.021575
0.00609602
-0.0159275
0.00532651
-0.0119973
0.00457326
-0.00914419
0.00388648
-0.00708861
0.0032814
-0.00554074
0.00276154
-0.0043538
0.00232287
-0.00342597
0.0019586
-0.00269211
0.00166102
-0.00210445
0.00142256
-0.00162795
0.00123663
-0.00123572
0.00109717
-0.000904998
0.00100053
-0.000623135
0.000940593
-0.000366806
-0.000171467
0.00474449
-0.00982103
0.00659637
-0.0257342
0.00751734
-0.0330126
0.00740601
-0.0272083
0.00691015
-0.0210792
0.00616219
-0.0151796
0.00537048
-0.0112056
0.00460468
-0.00837839
0.00390982
-0.00639375
0.00329925
-0.00493018
0.00277545
-0.00382999
0.00233385
-0.00298437
0.00196738
-0.00232564
0.00166813
-0.00180521
0.00142842
-0.00138824
0.00124154
-0.00104884
0.00110141
-0.000764869
0.0010043
-0.000526019
0.000944048
-0.000306556
-0.000147114
0.00560748
-0.0154285
0.00722163
-0.0273484
0.00786009
-0.0336511
0.00761068
-0.0269589
0.00702056
-0.0204891
0.00623086
-0.0143899
0.00541446
-0.0103892
0.00463543
-0.00759936
0.00393206
-0.00569038
0.0033159
-0.00431402
0.00278814
-0.00330223
0.00234369
-0.00253992
0.00197511
-0.00195706
0.0016743
-0.0015044
0.00143343
-0.00114737
0.00124569
-0.000861097
0.00110499
-0.000624169
0.00100737
-0.000428407
0.00094702
-0.000246203
-0.0001224
0.0256332
-0.024117
-0.0169447
0.0291197
-0.0308348
0.0289125
-0.033444
0.0271196
-0.025166
0.0243508
-0.0177203
0.0214036
-0.0114427
0.0184643
-0.00744987
0.015751
-0.00488599
0.0133269
-0.00326631
0.0112195
-0.00220662
0.00942178
-0.00150451
0.00791216
-0.00103031
0.00666265
-0.000707553
0.0056443
-0.00048604
0.00482986
-0.000332934
0.0041952
-0.000226441
0.0037208
-0.000149769
0.00338951
-9.71153e-05
0.00319155
-4.82442e-05
-3.03562e-05
0.0385218
-0.0247051
-0.0379337
0.0371612
-0.0294743
0.0334633
-0.0297461
0.0296303
-0.021333
0.0257312
-0.0138211
0.0221737
-0.00788522
0.0189225
-0.0041987
0.0160348
-0.00199831
0.0135098
-0.000741243
0.0113398
-3.66041e-05
0.00950236
0.000332894
0.00796664
0.000505412
0.00669976
0.000559325
0.00566973
0.000543985
0.00484745
0.000489351
0.00420756
0.000413447
0.00372969
0.000328099
0.00339632
0.000236259
0.00319728
0.000150797
6.24454e-05
0.0496034
-0.0191362
-0.0551723
0.0440262
-0.023897
0.0375035
-0.0232234
0.0319041
-0.0157336
0.027003
-0.00892005
0.022875
-0.00375726
0.0193181
-0.000641773
0.0162581
0.00106171
0.013634
0.00188281
0.0114065
0.00219097
0.0095339
0.00220545
0.0079774
0.00206192
0.00669835
0.00183837
0.0056614
0.00158093
0.00483536
0.00131539
0.00419364
0.00105517
0.00371491
0.000806824
0.00338149
0.000569685
0.00318182
0.00035047
0.000154301
0.0579284
-0.00919158
-0.067873
0.0491724
-0.015141
0.0406738
-0.0147248
0.0337466
-0.0088064
0.0280634
-0.0032368
0.0234577
0.000848407
0.019629
0.00318694
0.0164086
0.00428206
0.0136932
0.00459821
0.0114138
0.00447043
0.00951311
0.0041061
0.00794219
0.00363284
0.0066568
0.00312376
0.00561807
0.00261966
0.00479265
0.00214081
0.00415266
0.00169517
0.00367586
0.00128362
0.00334435
0.000901197
0.00314553
0.000549291
0.000244803
0.0634313
0.00305513
-0.0756781
0.0526679
-0.00437761
0.0429405
-0.00499738
0.0351169
-0.000982757
0.0288717
0.00300841
0.0238927
0.00582735
0.0198322
0.00724751
0.0164737
0.00764053
0.0136798
0.00739215
0.0113582
0.00679199
0.00943764
0.00602666
0.00785963
0.00521085
0.00657432
0.00440908
0.00553933
0.00365465
0.00471913
0.00296101
0.00408456
0.00232974
0.00361256
0.00175562
0.00328498
0.00122878
0.00308849
0.000745781
0.000333536
0.066507
0.0160203
-0.0794722
0.0547608
0.00736859
0.0443865
0.00537688
0.0360423
0.00736146
0.0294151
0.00963563
0.0241579
0.0110846
0.0199138
0.0114915
0.0164433
0.011111
0.0135874
0.0102481
0.011236
0.00914343
0.00930529
0.00795733
0.00772848
0.00678767
0.00645027
0.00568729
0.00542488
0.00468003
0.00461473
0.00377116
0.00398942
0.00295504
0.00352517
0.00221987
0.00320359
0.00155035
0.00301087
0.000938504
0.000420021
0.0677827
0.028835
-0.0805973
0.0557577
0.0193936
0.045162
0.0159726
0.036554
0.0159694
0.0296943
0.0164954
0.0242432
0.0165357
0.0198632
0.0158715
0.0163095
0.0146648
0.0134107
0.0131468
0.0110436
0.0115105
0.00911408
0.00988688
0.00754767
0.00835408
0.00628417
0.00695079
0.00527465
0.00568956
0.00447957
0.00456623
0.00386749
0.00356713
0.00341399
0.00267337
0.00310051
0.00186383
0.00291295
0.00112606
0.000503737
0.0678526
0.0411409
-0.0801586
0.0559525
0.0312938
0.0453953
0.0265297
0.0367023
0.0246624
0.0297182
0.0234795
0.0241437
0.0221102
0.0196726
0.0203425
0.0160656
0.0182718
0.0131451
0.0160673
0.0107783
0.0138774
0.00886238
0.0118028
0.00731644
0.00990002
0.0060758
0.00819142
0.00508871
0.00667665
0.00431396
0.00534099
0.00371916
0.00416193
0.00327946
0.00311307
0.0029762
0.00216708
0.00279517
0.0013071
0.000584149
0.0671662
0.052883
-0.0789083
0.0555761
0.042884
0.045195