/*--------------------------------*- C++ -*----------------------------------*\
| =========                 |                                                 |
| \\      /  F ield         | OpenFOAM: The Open Source CFD Toolbox           |
|  \\    /   O peration     | Version:  v1806                                 |
|   \\  /    A nd           | Web:      www.OpenFOAM.com                      |
|    \\/     M anipulation  |                                                 |
\*---------------------------------------------------------------------------*/
FoamFile
{
    version     2.0;
    format      ascii;
    class       volVectorField;
    location    "2";
    object      U;
}
// * * * * * * * * * * * * * * * * * * * * * * * * * * * * * * * * * * * * * //

dimensions      [0 1 -1 0 0 0 0];


internalField   nonuniform List<vector> 
24000
(
(2.5497 0.0249425 0.09015)
(2.10659 0.0286594 0.072772)
(1.65492 0.0233519 0.0464354)
(1.33614 0.018916 0.0240857)
(1.15773 0.0153921 0.00888607)
(1.05363 0.0135056 0.00268063)
(0.981903 0.0129686 0.00082235)
(0.929224 0.0124456 0.000181607)
(0.891356 0.0110218 9.82831e-05)
(0.86491 0.00844014 0.000343256)
(0.846965 0.00510149 0.000744402)
(0.83551 0.0018234 0.00106603)
(0.829391 -0.000714632 0.00109894)
(0.827638 -0.0022311 0.000938773)
(0.829797 -0.00291162 0.000660994)
(0.834302 -0.0029842 0.000434604)
(0.840707 -0.00278334 0.000192574)
(0.846441 -0.00193019 0.000102943)
(0.852274 -0.00149497 -2.28497e-05)
(0.855025 0.000360602 -0.00027508)
(2.59102 0.0316935 0.0911363)
(2.18866 0.0376223 0.0743999)
(1.79079 0.0318208 0.0482659)
(1.49934 0.0271117 0.0273198)
(1.32953 0.0225052 0.0117945)
(1.23304 0.0192786 0.00438342)
(1.17135 0.0182914 0.00171578)
(1.13025 0.0178907 0.000709252)
(1.10443 0.0161431 0.000464863)
(1.08928 0.0119359 0.000631846)
(1.08057 0.00555981 0.000892042)
(1.07558 -0.00143018 0.00111393)
(1.07359 -0.00713135 0.00116766)
(1.07436 -0.0104593 0.000989398)
(1.07822 -0.0116105 0.000697807)
(1.08363 -0.011207 0.000482697)
(1.09163 -0.00998227 0.000273356)
(1.09721 -0.00787185 0.000262739)
(1.10616 -0.00606282 0.000260764)
(1.10422 -0.00286387 -5.00074e-05)
(2.59039 0.0142469 0.0912035)
(2.18077 0.022242 0.0741242)
(1.78821 0.0221168 0.0475914)
(1.50363 0.0208196 0.026985)
(1.33773 0.0182607 0.011643)
(1.2443 0.0156225 0.00428151)
(1.18533 0.0142487 0.00173783)
(1.14679 0.0131228 0.000807271)
(1.12351 0.0107864 0.000472741)
(1.11087 0.00610449 0.000422606)
(1.10476 -0.000475605 0.000388762)
(1.10227 -0.0074942 0.000284169)
(1.10196 -0.0131661 0.000176705)
(1.1033 -0.016564 0.000140237)
(1.10667 -0.0178309 5.79745e-05)
(1.11119 -0.0175079 3.25692e-05)
(1.11813 -0.016041 2.94459e-08)
(1.12314 -0.0136261 0.000115924)
(1.13138 -0.0107848 0.000161589)
(1.12978 -0.00715992 -0.000280839)
(2.58973 0.0119162 0.0914372)
(2.17161 0.0214342 0.0744546)
(1.77701 0.0226867 0.0476549)
(1.49381 0.0214524 0.0270574)
(1.3293 0.0190382 0.0117354)
(1.23748 0.0161505 0.00433389)
(1.18011 0.0138318 0.00177628)
(1.14268 0.0113757 0.000830189)
(1.12008 0.00832403 0.000456591)
(1.10791 0.00366986 0.000329924)
(1.10199 -0.0021599 0.000281945)
(1.09973 -0.00848153 0.000287937)
(1.10004 -0.0140043 0.000227945)
(1.10216 -0.0180006 0.000183122)
(1.10659 -0.0202992 0.000115268)
(1.11206 -0.021053 0.000107207)
(1.12017 -0.0204471 5.6845e-05)
(1.12573 -0.0182206 0.000187415)
(1.13511 -0.0151391 0.000217451)
(1.13345 -0.0101785 -0.000199644)
(2.58935 0.00773518 0.0915423)
(2.16641 0.0152692 0.0745452)
(1.77034 0.0173857 0.0475476)
(1.48781 0.0169956 0.026862)
(1.32405 0.0153634 0.0115668)
(1.23301 0.0127841 0.00417372)
(1.17614 0.0104272 0.00165281)
(1.13886 0.00747142 0.000742611)
(1.11575 0.00416601 0.000421304)
(1.10315 -0.000694998 0.000308536)
(1.09745 -0.00624169 0.000179688)
(1.09603 -0.012407 8.38546e-05)
(1.09764 -0.0179534 2.92595e-05)
(1.10104 -0.0223335 7.24004e-06)
(1.10652 -0.0251793 -4.46937e-05)
(1.1128 -0.0264916 -2.30211e-05)
(1.12176 -0.0261319 -4.18769e-05)
(1.12794 -0.0239386 0.000124752)
(1.13849 -0.0202878 0.000226018)
(1.13683 -0.0142289 -0.000129766)
(2.58914 0.00574997 0.0916056)
(2.16351 0.0125664 0.0746554)
(1.76576 0.0153512 0.0476238)
(1.48282 0.015329 0.0269032)
(1.31897 0.0140294 0.0116219)
(1.22817 0.0114126 0.00421603)
(1.17135 0.00895985 0.00170495)
(1.13421 0.00535469 0.000760594)
(1.11097 0.00193543 0.000442933)
(1.09815 -0.00330109 0.000338982)
(1.09221 -0.00862566 0.000281992)
(1.09089 -0.014922 0.000211478)
(1.09309 -0.0206101 0.000121809)
(1.09735 -0.0256309 0.000104576)
(1.10405 -0.0293837 4.13261e-05)
(1.1116 -0.0317403 5.49273e-05)
(1.12212 -0.0320578 2.59198e-05)
(1.1295 -0.0301507 0.000172529)
(1.14198 -0.0261158 0.00029492)
(1.14093 -0.0188149 -6.44417e-05)
(2.58901 0.00427729 0.0916471)
(2.16167 0.00983799 0.0747313)
(1.76243 0.012475 0.0476835)
(1.47897 0.0124352 0.0268896)
(1.31491 0.0113798 0.0116016)
(1.22428 0.00863004 0.00416837)
(1.16721 0.00635742 0.00170702)
(1.13013 0.00211743 0.00073697)
(1.10635 -0.0011786 0.000486066)
(1.09361 -0.00709922 0.000286658)
(1.08763 -0.0120834 0.000220673)
(1.08666 -0.0190029 0.000142013)
(1.08955 -0.0248202 5.07367e-05)
(1.0944 -0.0306681 4.91075e-05)
(1.10211 -0.0351214 -2.44369e-05)
(1.11069 -0.0384185 6.85906e-06)
(1.12274 -0.0392857 -8.13765e-06)
(1.13148 -0.0377328 0.000154705)
(1.14632 -0.0332425 0.000316784)
(1.14628 -0.0244795 7.55411e-06)
(2.58891 0.00323466 0.0916727)
(2.16054 0.00769615 0.0747757)
(1.76008 0.010144 0.04773)
(1.47609 0.0100462 0.0268776)
(1.31152 0.00930343 0.0116098)
(1.22102 0.0063457 0.00413118)
(1.16329 0.0044712 0.00174434)
(1.12652 -0.00053434 0.000673825)
(1.10192 -0.00328055 0.000534654)
(1.08929 -0.0103865 0.000286412)
(1.0827 -0.0146293 0.000299727)
(1.0818 -0.0228831 0.000164848)
(1.08506 -0.0284806 8.08607e-05)
(1.09022 -0.0357882 9.54644e-05)
(1.09911 -0.0410137 -5.15052e-06)
(1.10868 -0.0458072 4.99546e-05)
(1.1227 -0.0474541 2.41826e-05)
(1.13316 -0.0467187 0.000180773)
(1.15119 -0.041862 0.000371302)
(1.15282 -0.0315816 0.000131457)
(2.58884 0.00245981 0.0916898)
(2.15983 0.00598035 0.0748049)
(1.75832 0.00814023 0.0477785)
(1.47385 0.00783821 0.0268719)
(1.30848 0.00735761 0.0116439)
(1.21823 0.00400577 0.00408015)
(1.15936 0.002711 0.00182315)
(1.12319 -0.00343251 0.000595553)
(1.09713 -0.00512977 0.000633145)
(1.08532 -0.0141706 0.000185939)
(1.07756 -0.0168363 0.000360618)
(1.07711 -0.0276404 0.000102832)
(1.08041 -0.0320909 8.58001e-05)
(1.08552 -0.0420115 8.15514e-05)
(1.09574 -0.0474263 -3.89872e-05)
(1.10586 -0.0546452 6.18472e-05)
(1.12233 -0.0569998 7.8213e-06)
(1.13468 -0.0578159 0.000205394)
(1.15672 -0.0526099 0.000401911)
(1.16103 -0.0407818 0.000252577)
(2.58878 0.00184749 0.0917018)
(2.1594 0.00460017 0.0748239)
(1.75693 0.00641501 0.047825)
(1.47213 0.00585044 0.0268568)
(1.30568 0.0056277 0.0116954)
(1.21598 0.00177648 0.00399475)
(1.15532 0.00129924 0.00193934)
(1.1205 -0.00630975 0.000438917)
(1.09192 -0.00623573 0.000782829)
(1.08196 -0.0182061 1.69383e-05)
(1.07171 -0.0179207 0.000496724)
(1.07246 -0.0330828 -2.42309e-05)
(1.07493 -0.0345639 0.000157439)
(1.07989 -0.0493203 2.95077e-05)
(1.09153 -0.0534214 -3.87708e-05)
(1.10151 -0.0651291 8.76261e-05)
(1.12133 -0.0675617 -2.90614e-05)
(1.13542 -0.0716584 0.000294028)
(1.16288 -0.0659782 0.00039791)
(1.17106 -0.0528903 0.000422285)
(2.58874 0.00131459 0.0917109)
(2.15916 0.00352942 0.0748346)
(1.75576 0.00492152 0.0478711)
(1.47082 0.00416715 0.0268294)
(1.30298 0.00409895 0.0117692)
(1.21427 -0.000228728 0.00387839)
(1.15097 0.00023507 0.00210958)
(1.11859 -0.00912041 0.000217113)
(1.08592 -0.00650041 0.000998973)
(1.07951 -0.0225445 -0.000249226)
(1.06469 -0.0175657 0.000706952)
(1.06831 -0.0394993 -0.000274789)
(1.06828 -0.035222 0.000309093)
(1.07352 -0.0583261 -0.000162848)
(1.08644 -0.0580042 1.61045e-05)
(1.0951 -0.0782787 1.8747e-05)
(1.11989 -0.0783537 -6.55032e-05)
(1.13447 -0.0896502 0.000431344)
(1.16998 -0.0825774 0.000295948)
(1.1832 -0.0693609 0.000709247)
(2.58876 0.000829138 0.091711)
(2.15906 0.00272786 0.0748491)
(1.75476 0.00362638 0.0479101)
(1.4698 0.00278549 0.0268059)
(1.30033 0.00272204 0.0118584)
(1.21311 -0.0019471 0.00373246)
(1.14619 -0.0006081 0.00232955)
(1.11765 -0.0116415 -6.68618e-05)
(1.07883 -0.00605273 0.00128445)
(1.07843 -0.0268675 -0.000635237)
(1.05603 -0.0156535 0.00100851)
(1.06527 -0.0466955 -0.000702192)
(1.05984 -0.0333203 0.00057888)
(1.06696 -0.0692086 -0.000576375)
(1.07966 -0.0597889 0.00020455)
(1.08665 -0.0949348 -0.000317501)
(1.11759 -0.0876561 -7.72152e-05)
(1.1304 -0.11391 0.000471802)
(1.17908 -0.101989 -6.03706e-05)
(1.19751 -0.0929869 0.00152174)
(2.58884 0.000259026 0.0917096)
(2.15909 0.00233149 0.0748532)
(1.75385 0.00229368 0.0479564)
(1.46904 0.00206327 0.0267596)
(1.29771 0.00110314 0.0119487)
(1.21244 -0.00284538 0.00357459)
(1.1411 -0.00165801 0.00256392)
(1.11772 -0.0133267 -0.000364568)
(1.07071 -0.00530199 0.00160614)
(1.07883 -0.0305984 -0.00107108)
(1.04552 -0.0123034 0.00134758)
(1.0639 -0.0541141 -0.00127136)
(1.04889 -0.0286217 0.00094418)
(1.06131 -0.0814499 -0.00126089)
(1.06981 -0.057934 0.000558551)
(1.07713 -0.115235 -0.00110866)
(1.11301 -0.0933783 0.000188004)
(1.12202 -0.147037 -6.44557e-05)
(1.19051 -0.121446 -0.000722437)
(1.2131 -0.128886 0.0026147)
(2.58918 -0.000263715 0.0916835)
(2.15907 0.00216574 0.0749072)
(1.75336 0.00124793 0.0479502)
(1.46795 0.00157207 0.0268271)
(1.29562 -0.000356323 0.0119487)
(1.21162 -0.00344818 0.00351164)
(1.1362 -0.00281047 0.00273273)
(1.1185 -0.014093 -0.000648442)
(1.06174 -0.00456482 0.0019452)
(1.08114 -0.0329063 -0.00153908)
(1.03278 -0.00814481 0.00175944)
(1.06507 -0.0601332 -0.00195294)
(1.03473 -0.0214807 0.001406)
(1.0574 -0.0930924 -0.00218691)
(1.05589 -0.0519515 0.00112065)
(1.06675 -0.137196 -0.0024626)
(1.10516 -0.093567 0.000799879)
(1.10733 -0.190335 -0.00146201)
(1.20546 -0.137157 -0.00161922)
(1.22105 -0.18652 0.00560389)
(2.58958 -0.00104086 0.0916567)
(2.15926 0.00271827 0.0749335)
(1.75278 -0.000467766 0.0479789)
(1.46708 0.0027007 0.0268197)
(1.29337 -0.00343592 0.011997)
(1.21112 -0.00122443 0.00341637)
(1.13145 -0.00664295 0.00294228)
(1.11959 -0.0114596 -0.000823353)
(1.0528 -0.00654138 0.00224234)
(1.08369 -0.0319312 -0.0018129)
(1.01962 -0.0054055 0.00208608)
(1.0665 -0.0635702 -0.00239693)
(1.01853 -0.0144424 0.00186971)
(1.05392 -0.102552 -0.00294171)
(1.03692 -0.0454763 0.00195866)
(1.05558 -0.160507 -0.00386012)
(1.08973 -0.0887306 0.00133069)
(1.08798 -0.249902 -0.00350613)
(1.21826 -0.140587 -0.0026749)
(1.21462 -0.291177 0.00998621)
(2.59073 -0.00165446 0.0915544)
(2.1587 0.00319631 0.07511)
(1.75395 -0.00154326 0.0478164)
(1.46367 0.00338853 0.0272287)
(1.29495 -0.00549599 0.011454)
(1.20631 1.57776e-05 0.00391082)
(1.13199 -0.00920729 0.0022961)
(1.117 -0.00972128 -0.000608823)
(1.04759 -0.007483 0.00221918)
(1.08523 -0.030722 -0.00189652)
(1.00681 -0.000800513 0.00252271)
(1.06844 -0.0654044 -0.00252376)
(0.999085 -0.00331399 0.00257544)
(1.05084 -0.10916 -0.00329545)
(1.01033 -0.0306563 0.00238227)
(1.04643 -0.179505 -0.00533684)
(1.05977 -0.0680603 0.0023989)
(1.06519 -0.309838 -0.00739765)
(1.22119 -0.125332 -0.00302371)
(1.18046 -0.442474 0.0158914)
(2.59173 -0.00257934 0.0914969)
(2.15877 0.00458049 0.0751931)
(1.75429 -0.00345796 0.0478014)
(1.46142 0.00626009 0.0273726)
(1.29474 -0.0108781 0.0113106)
(1.20333 0.00775836 0.00406105)
(1.13148 -0.0191199 0.00217095)
(1.11403 0.00273654 -0.000502839)
(1.04617 -0.0199207 0.00237863)
(1.08157 -0.0182916 -0.00159482)
(1.00068 -0.00807012 0.00318993)
(1.06208 -0.0578798 -0.00176616)
(0.98083 -0.00640615 0.0038121)
(1.04284 -0.103368 -0.00243146)
(0.971921 -0.0357207 0.00508413)
(1.03499 -0.186998 -0.00466713)
(1.00268 -0.071562 0.00782424)
(1.03674 -0.392827 -0.00798689)
(1.20538 -0.0839666 -0.00206172)
(1.11629 -0.764982 0.0239168)
(2.59411 -0.00305554 0.0912924)
(2.15707 0.0051146 0.0755784)
(1.75855 -0.00422492 0.0474306)
(1.45238 0.00695608 0.028238)
(1.30597 -0.0128075 0.0101144)
(1.18546 0.0107453 0.00563411)
(1.15177 -0.0211037 5.84413e-05)
(1.08614 0.00670219 0.0016459)
(1.07531 -0.0210603 -0.000424065)
(1.04948 -0.0179926 0.000555483)
(1.02332 -0.00771356 0.00169004)
(1.03741 -0.061761 -9.44513e-05)
(0.975926 -0.0061875 0.00384526)
(1.03001 -0.109397 -0.000496943)
(0.932489 -0.0341151 0.00521441)
(1.02911 -0.205884 -0.00218082)
(0.911399 -0.0579947 0.00977828)
(1.0766 -0.497561 -0.0150614)
(1.14266 -0.00281784 0.0114051)
(1.18012 -1.23954 0.00292275)
(2.59558 -0.00342964 0.0912117)
(2.15693 0.00559188 0.075721)
(1.76011 -0.00530078 0.0474074)
(1.44752 0.00745362 0.0284463)
(1.31124 -0.0161574 0.010066)
(1.17559 0.0151394 0.00586483)
(1.16383 -0.0277805 8.81033e-05)
(1.06593 0.0198628 0.00173634)
(1.09744 -0.0354536 -0.000419631)
(1.02018 0.00933181 0.000212401)
(1.0472 -0.0387774 0.00137544)
(1.01678 -0.0153882 -0.00196225)
(0.976986 -0.055324 0.00418728)
(1.04074 -0.0447095 -0.00590553)
(0.882366 -0.100782 0.00882979)
(1.07677 -0.117795 -0.0105945)
(0.75639 -0.184302 0.0213343)
(1.15178 -0.407518 -0.0235437)
(0.667234 0.00172703 0.0901527)
(1.10585 -1.68844 -0.0553337)
(2.59834 -0.0034571 0.0910009)
(2.15444 0.0052678 0.0762026)
(1.76573 -0.00487842 0.0469347)
(1.4349 0.00557389 0.0289032)
(1.33132 -0.0143865 0.00898597)
(1.14675 0.0131327 0.00670508)
(1.20884 -0.0238893 -0.00114813)
(1.0038 0.0201932 0.00314953)
(1.18158 -0.0333574 -0.00177346)
(0.906809 0.0222814 0.00265572)
(1.18227 -0.0507026 -0.001685)
(0.843346 0.0248916 0.00212321)
(1.1757 -0.0912632 -0.00233667)
(0.798309 0.0340115 0.00191689)
(1.1517 -0.170177 -0.00233955)
(0.732769 0.0071351 0.0041148)
(1.10391 -0.357752 -0.00811168)
(0.75112 -0.247019 0.0352169)
(1.0787 -0.733928 0.0301027)
(1.51701 -3.02163 -0.151358)
(2.94286 0.0277093 0.139908)
(3.02307 0.0369183 0.129125)
(2.92564 0.0368628 0.100491)
(2.7619 0.0369252 0.0694288)
(2.60918 0.0339413 0.0421083)
(2.477 0.0295437 0.0260166)
(2.35815 0.0278808 0.0167166)
(2.25169 0.0288375 0.00981396)
(2.16051 0.0293324 0.00485664)
(2.08624 0.0267928 0.00233753)
(2.02938 0.0207966 0.00194664)
(1.98983 0.0130632 0.00266244)
(1.96636 0.00586159 0.00321616)
(1.95575 0.000630975 0.00316677)
(1.95559 -0.0026222 0.00250012)
(1.96132 -0.00408691 0.00179226)
(1.97237 -0.004914 0.0010741)
(1.98301 -0.00407176 0.000671041)
(1.99567 -0.00413088 0.000302194)
(2.00397 -0.00169831 0.000298022)
(2.99071 0.0351878 0.14108)
(3.12581 0.0481748 0.131736)
(3.11083 0.0489057 0.102548)
(3.02558 0.0508545 0.0746961)
(2.93985 0.0490581 0.0484857)
(2.86461 0.0433439 0.0317091)
(2.79286 0.0398359 0.0220379)
(2.72745 0.0408842 0.0147994)
(2.67553 0.0432759 0.00919668)
(2.63981 0.0420978 0.00571817)
(2.61777 0.0346029 0.00414462)
(2.60536 0.0218224 0.00375995)
(2.6004 0.00767228 0.00366418)
(2.60034 -0.00384454 0.00334333)
(2.60648 -0.0113675 0.00269103)
(2.61419 -0.0148813 0.00187951)
(2.62914 -0.0162115 0.00122779)
(2.63796 -0.014916 0.00101004)
(2.65748 -0.0139215 0.00075667)
(2.65891 -0.0105799 0.00351192)
(2.99123 0.0155164 0.14118)
(3.1187 0.0270565 0.131518)
(3.10674 0.0313915 0.101209)
(3.02929 0.0352932 0.0737992)
(2.95213 0.0359279 0.0478135)
(2.88561 0.0330799 0.0309599)
(2.82178 0.0313022 0.0216861)
(2.76423 0.0321531 0.0151355)
(2.72095 0.0333943 0.0100099)
(2.69444 0.0309035 0.0063688)
(2.68145 0.0228139 0.0039367)
(2.67657 0.0103536 0.00233715)
(2.67616 -0.0029576 0.00134692)
(2.67769 -0.0138395 0.000704748)
(2.68233 -0.0210169 0.000377677)
(2.6871 -0.0248521 0.000184281)
(2.69821 -0.0261217 0.000194452)
(2.70478 -0.0253041 0.000371121)
(2.72162 -0.023413 0.000495416)
(2.72308 -0.020208 0.00307389)
(2.99136 0.0127509 0.141513)
(3.11057 0.0253228 0.132259)
(3.09489 0.0309736 0.101463)
(3.01666 0.0345631 0.0739765)
(2.93874 0.0355767 0.0480108)
(2.87235 0.0336042 0.0310404)
(2.81021 0.031674 0.0216982)
(2.75481 0.0304527 0.0150968)
(2.71342 0.029417 0.00991891)
(2.68849 0.0257751 0.00613464)
(2.67639 0.0185246 0.00356098)
(2.67201 0.0079534 0.00199591)
(2.67215 -0.0037948 0.00113341)
(2.67418 -0.014515 0.000748276)
(2.68027 -0.0228714 0.000492512)
(2.68654 -0.0286156 0.000275141)
(2.69997 -0.0321178 0.00023333)
(2.7075 -0.0326946 0.000496513)
(2.72647 -0.031816 0.000534986)
(2.72832 -0.0280195 0.00342183)
(2.99139 0.00817814 0.14168)
(3.10601 0.0175815 0.132541)
(3.08804 0.0228831 0.101414)
(3.00904 0.0261662 0.0737239)
(2.93039 0.0276045 0.0477477)
(2.864 0.0263084 0.0307353)
(2.80227 0.0248529 0.0214)
(2.7475 0.0228588 0.0148116)
(2.70548 0.0209768 0.00973407)
(2.67923 0.0163916 0.00603108)
(2.66636 0.00933322 0.00340259)
(2.66231 -0.000618526 0.00168807)
(2.66441 -0.0116311 0.000638451)
(2.669 -0.0221325 0.000150319)
(2.67733 -0.0307759 -8.16256e-06)
(2.68507 -0.0373207 -0.000107165)
(2.70009 -0.0414533 -7.34023e-06)
(2.70832 -0.0427137 0.000338013)
(2.72918 -0.041956 0.000456547)
(2.73146 -0.0377417 0.00358625)
(2.99137 0.00600889 0.141783)
(3.10355 0.0141153 0.132782)
(3.08361 0.0195439 0.101653)
(3.00338 0.0226672 0.0738994)
(2.92333 0.0244019 0.047946)
(2.85631 0.023196 0.0308867)
(2.79408 0.02201 0.0215582)
(2.73919 0.0189047 0.0148785)
(2.69672 0.0165548 0.00978242)
(2.66985 0.0109866 0.00603576)
(2.65623 0.00419705 0.00346739)
(2.65164 -0.00554361 0.00186143)
(2.65398 -0.016196 0.000897115)
(2.6594 -0.026966 0.00045369)
(2.66957 -0.036528 0.000239833)
(2.67917 -0.0447913 6.59389e-05)
(2.69688 -0.0504269 0.000151127)
(2.70666 -0.0530022 0.000475181)
(2.73069 -0.0529257 0.000547627)
(2.73435 -0.0484605 0.00381641)
(2.99132 0.00444705 0.141854)
(3.10205 0.0108764 0.132934)
(3.08047 0.0156661 0.101845)
(2.99917 0.0180645 0.0739724)
(2.91792 0.0198061 0.048009)
(2.85054 0.0180936 0.0308508)
(2.7874 0.0173567 0.0215961)
(2.73253 0.0130246 0.0148084)
(2.68882 0.0108258 0.0098561)
(2.66149 0.00376735 0.0059837)
(2.64728 -0.00257582 0.00340911)
(2.64264 -0.0130185 0.00172074)
(2.646 -0.0235851 0.000672512)
(2.65212 -0.0350494 0.000292733)
(2.66369 -0.0453281 8.77322e-05)
(2.67443 -0.0550325 -7.3152e-05)
(2.69436 -0.0616841 8.55904e-05)
(2.70539 -0.065507 0.000447717)
(2.7328 -0.0660541 0.00053409)
(2.73825 -0.0612184 0.00394541)
(2.99127 0.00336381 0.141901)
(3.10117 0.00837556 0.133019)
(3.07826 0.0126312 0.10199)
(2.99627 0.0143114 0.0740093)
(2.91356 0.0162889 0.0481063)
(2.84618 0.0137987 0.0308063)
(2.78138 0.0139636 0.0217249)
(2.72694 0.00791555 0.0146846)
(2.68158 0.00692201 0.00994282)
(2.65423 -0.00247893 0.00590444)
(2.63885 -0.00738781 0.00351385)
(2.63342 -0.0196557 0.00180952)
(2.63719 -0.0296728 0.000728839)
(2.64307 -0.0425663 0.000421424)
(2.6561 -0.0537583 0.000142155)
(2.66769 -0.0657288 8.38088e-06)
(2.69026 -0.073699 0.000169988)
(2.7027 -0.07958 0.000550332)
(2.73446 -0.081162 0.000570165)
(2.74252 -0.0763457 0.00414596)
(2.99119 0.00257008 0.141935)
(3.1007 0.0063961 0.133067)
(3.07658 0.010161 0.102128)
(2.99425 0.010983 0.0740289)
(2.90972 0.0133116 0.0482572)
(2.84288 0.00950708 0.0307162)
(2.77549 0.0111563 0.0219434)
(2.72234 0.00239403 0.0144935)
(2.67393 0.00399282 0.0101845)
(2.64772 -0.00955726 0.0056981)
(2.63043 -0.0111452 0.00362595)
(2.62472 -0.0275141 0.00170223)
(2.62903 -0.0355232 0.000670128)
(2.63366 -0.0514592 0.000451573)
(2.64854 -0.0628538 2.7837e-05)
(2.65997 -0.0781869 3.75263e-05)
(2.68546 -0.0872456 0.000144169)
(2.69915 -0.0961717 0.000633072)
(2.7358 -0.0991458 0.00056525)
(2.74763 -0.0947974 0.00428008)
(2.9911 0.00194187 0.141961)
(3.10051 0.0048136 0.133092)
(3.07514 0.00813446 0.102261)
(2.99297 0.00801203 0.0740064)
(2.90604 0.0108981 0.0484535)
(2.84076 0.00529799 0.0305294)
(2.76925 0.00927903 0.0222752)
(2.71927 -0.00351953 0.0141174)
(2.66557 0.0028678 0.0105598)
(2.64273 -0.0176196 0.00527855)
(2.62149 -0.0123758 0.00391397)
(2.61631 -0.0367177 0.00145752)
(2.62062 -0.0391812 0.000727473)
(2.62287 -0.061519 0.000470482)
(2.64031 -0.0710014 -9.77634e-05)
(2.64999 -0.0922138 0.000176084)
(2.67941 -0.101431 3.10079e-05)
(2.69365 -0.115568 0.000859878)
(2.73639 -0.120332 0.000523955)
(2.75315 -0.117494 0.00441604)
(2.991 0.00136951 0.141983)
(3.10055 0.0036051 0.133095)
(3.0738 0.00643063 0.102396)
(2.99236 0.00546902 0.073936)
(2.90222 0.0090047 0.0487078)
(2.83995 0.00122565 0.0302361)
(2.76211 0.00848219 0.0227578)
(2.71821 -0.0100339 0.0135468)
(2.65561 0.00408961 0.0111417)
(2.63988 -0.0273704 0.00458484)
(2.61105 -0.00996564 0.00442367)
(2.60875 -0.0485426 0.000891622)
(2.61178 -0.0390538 0.000947612)
(2.6105 -0.0743175 0.000273942)
(2.63217 -0.0764439 -0.000263832)
(2.63672 -0.109331 0.000308722)
(2.67287 -0.115086 -0.000315651)
(2.68505 -0.138927 0.00125497)
(2.73607 -0.145388 0.000305439)
(2.75926 -0.145899 0.00471888)
(2.99095 0.00080982 0.141987)
(3.10076 0.00273181 0.133107)
(3.07252 0.00497249 0.102517)
(2.99232 0.00334212 0.0738589)
(2.89802 0.00750954 0.0490173)
(2.84062 -0.00262175 0.0298407)
(2.75355 0.00863681 0.0233973)
(2.71979 -0.0171067 0.0127729)
(2.6431 0.00783558 0.0119654)
(2.64024 -0.0391855 0.00352826)
(2.59817 -0.00288385 0.00523365)
(2.60304 -0.0641359 -0.00016138)
(2.60183 -0.0330709 0.00145945)
(2.59726 -0.0913722 -0.000378299)
(2.62353 -0.0765838 -0.000284722)
(2.61973 -0.131304 0.000189094)
(2.66637 -0.125449 -0.000978884)
(2.67088 -0.168348 0.00191449)
(2.73577 -0.173747 -0.000791829)
(2.76575 -0.182321 0.0056776)
(2.99095 2.5136e-05 0.14199)
(3.10115 0.00250945 0.133089)
(3.07118 0.00324611 0.10266)
(2.99282 0.00232527 0.0737078)
(2.89341 0.00563653 0.0493354)
(2.84272 -0.00544882 0.0294094)
(2.74346 0.00915602 0.0240915)
(2.72428 -0.0241603 0.011925)
(2.62775 0.0139598 0.0129074)
(2.64443 -0.0531206 0.0022552)
(2.58204 0.00960493 0.00624423)
(2.60054 -0.0841119 -0.0017105)
(2.58938 -0.0198386 0.00234757)
(2.58497 -0.113839 -0.00177885)
(2.61309 -0.0686783 0.000117923)
(2.59959 -0.160941 -0.000778278)
(2.66007 -0.128001 -0.00144505)
(2.64832 -0.207642 0.00229623)
(2.73576 -0.202564 -0.00296892)
(2.77173 -0.229958 0.00642974)
(2.99138 -0.000762626 0.141917)
(3.10126 0.00259087 0.133208)
(3.07062 0.00180873 0.10264)
(2.99275 0.00170386 0.0738821)
(2.88928 0.00399063 0.049461)
(2.8453 -0.00774122 0.029134)
(2.73234 0.00987919 0.0247306)
(2.73168 -0.0307848 0.0110067)
(2.60884 0.0216853 0.0140601)
(2.65381 -0.067901 0.000695069)
(2.56127 0.0266012 0.00763074)
(2.60288 -0.107025 -0.00382017)
(2.57339 0.000804502 0.00374818)
(2.57471 -0.140898 -0.00402618)
(2.60062 -0.0505947 0.00113191)
(2.57489 -0.198904 -0.00285024)
(2.65627 -0.11808 -0.00167857)
(2.61062 -0.260478 0.00266564)
(2.74142 -0.227156 -0.00726078)
(2.7652 -0.294659 0.0120546)
(2.99187 -0.00224909 0.141852)
(3.10166 0.00429252 0.133245)
(3.06979 -0.00158625 0.102709)
(2.99326 0.00469142 0.0738092)
(2.88463 -0.00165768 0.049626)
(2.84873 -0.00444898 0.0288914)
(2.72066 0.00581117 0.0252633)
(2.74025 -0.0325155 0.0104879)
(2.58913 0.0271388 0.0149384)
(2.66412 -0.081393 -0.000300633)
(2.53963 0.0462774 0.00875652)
(2.60617 -0.132217 -0.00551665)
(2.55478 0.0265764 0.00531608)
(2.56613 -0.171806 -0.00634222)
(2.58304 -0.0241123 0.00283038)
(2.54734 -0.249963 -0.00532731)
(2.64975 -0.0913359 -0.00185429)
(2.55665 -0.34054 0.00259905)
(2.75015 -0.237613 -0.0124988)
(2.7364 -0.394824 0.020356)
(2.99398 -0.00346196 0.141533)
(3.0996 0.00568554 0.133758)
(3.07354 -0.00393583 0.102089)
(2.98723 0.00674896 0.0750769)
(2.88863 -0.00537752 0.0482155)
(2.84295 -0.0029731 0.0301319)
(2.7185 0.00409457 0.0240859)
(2.74309 -0.0360066 0.0106537)
(2.57307 0.0355225 0.0155113)
(2.67524 -0.0962602 -0.00116427)
(2.51499 0.0711144 0.0105269)
(2.6127 -0.157737 -0.00699442)
(2.5283 0.0609672 0.00792058)
(2.56113 -0.202665 -0.00879007)
(2.55461 0.0191799 0.00539699)
(2.52004 -0.304323 -0.00940993)
(2.63423 -0.0367041 0.00053936)
(2.48433 -0.426443 0.000263559)
(2.76075 -0.231969 -0.0185199)
(2.65504 -0.504542 0.0350453)
(2.9957 -0.00582277 0.141353)
(3.09871 0.00986024 0.133972)
(3.07562 -0.0102185 0.101974)
(2.98371 0.0163912 0.0754773)
(2.88993 -0.0206092 0.0479076)
(2.83891 0.0161965 0.0304337)
(2.71874 -0.0181583 0.0236101)
(2.73803 -0.0152575 0.0110544)
(2.57238 0.021442 0.0154937)
(2.66736 -0.0924275 -0.000273923)
(2.50589 0.0794191 0.0124915)
(2.60361 -0.169375 -0.00596558)
(2.49625 0.077033 0.0124956)
(2.5565 -0.217684 -0.00959211)
(2.50051 0.0461968 0.0130817)
(2.49807 -0.359325 -0.0123182)
(2.58223 0.0167826 0.0115845)
(2.39933 -0.574776 -0.00419287)
(2.77319 -0.184936 -0.0218316)
(2.51971 -0.736022 0.0593478)
(3.00132 -0.00698415 0.140611)
(3.09053 0.0115907 0.135212)
(3.0913 -0.0127797 0.100469)
(2.95784 0.0195493 0.0783624)
(2.9253 -0.0257119 0.0441385)
(2.78989 0.0209369 0.0352517)
(2.77766 -0.0202223 0.0177428)
(2.66862 -0.0163428 0.0166488)
(2.64318 0.0315744 0.00873374)
(2.60277 -0.106361 0.00521514)
(2.54262 0.102048 0.0104722)
(2.58036 -0.18466 -0.00366337)
(2.46508 0.105468 0.0164223)
(2.56791 -0.238107 -0.00982865)
(2.42325 0.100527 0.0196187)
(2.52496 -0.418083 -0.018613)
(2.46595 0.126925 0.0237057)
(2.43842 -0.731451 -0.0358491)
(2.79693 -0.0876876 -0.0251429)
(2.42546 -1.01038 0.0505614)
(3.00491 -0.00850009 0.140305)
(3.08592 0.0146012 0.135585)
(3.10143 -0.0182742 0.100262)
(2.93981 0.0277223 0.0789926)
(2.95206 -0.0414587 0.043997)
(2.74899 0.0426415 0.0355881)
(2.83465 -0.0513992 0.01786)
(2.59499 0.0269516 0.016334)
(2.72793 -0.0202876 0.00867409)
(2.52418 -0.0365146 0.00241887)
(2.59681 0.0263487 0.0113106)
(2.5628 -0.0906909 -0.0114193)
(2.41694 0.0210532 0.0218689)
(2.64408 -0.134791 -0.0278088)
(2.2333 0.0226858 0.0398495)
(2.68631 -0.31032 -0.0512635)
(2.03058 0.0833651 0.0840411)
(2.64046 -0.761397 -0.0943778)
(2.00241 0.165126 0.171465)
(2.11591 -1.37178 -0.0652604)
(3.01355 -0.00778304 0.139321)
(3.06999 0.0124442 0.137037)
(3.13169 -0.014439 0.0984427)
(2.8865 0.0203332 0.0807732)
(3.0349 -0.03102 0.0406885)
(2.62629 0.0295355 0.0379734)
(3.00694 -0.0339645 0.0146244)
(2.36237 0.0179027 0.0205269)
(3.01179 -0.0151274 0.00456439)
(2.17075 -0.0107586 0.0109565)
(2.99569 -0.0104193 -0.00134052)
(2.10288 -0.0150549 0.00643567)
(2.94465 -0.049315 -0.00515793)
(2.07308 -0.0257001 0.00437027)
(2.88015 -0.0613683 -0.00169316)
(2.01593 -0.161371 0.00470372)
(2.68458 -0.0359177 0.0134773)
(2.01592 -0.64824 0.00784526)
(2.44326 0.171209 0.245253)
(2.87319 -2.90463 -0.23426)
(2.95911 0.027719 0.0838404)
(3.15934 0.0373653 0.0909813)
(3.23661 0.0376943 0.0795316)
(3.22811 0.0405756 0.0619612)
(3.18282 0.0406403 0.0437868)
(3.12325 0.036372 0.0330605)
(3.05745 0.0327055 0.0265131)
(2.98612 0.0331242 0.0193145)
(2.9088 0.0362213 0.0116983)
(2.82788 0.0376738 0.00601152)
(2.75076 0.0342079 0.0033624)
(2.68685 0.0261408 0.00316068)
(2.64239 0.0163304 0.00377196)
(2.6171 0.00783942 0.00402302)
(2.60835 0.00164779 0.00350806)
(2.6097 -0.00190652 0.00266483)
(2.6194 -0.00426875 0.00181413)
(2.63061 -0.00419366 0.00118319)
(2.64482 -0.00484168 0.000727923)
(2.6557 -0.00205154 0.000468309)
(3.00627 0.0352276 0.0842718)
(3.26364 0.0489584 0.0929649)
(3.42172 0.0498655 0.0799689)
(3.49856 0.0548065 0.0653431)
(3.53726 0.0575777 0.0480297)
(3.55663 0.0539674 0.0366508)
(3.56 0.0485144 0.0307087)
(3.55076 0.047019 0.0249495)
(3.53544 0.0506897 0.0182363)
(3.52007 0.0552304 0.0122391)
(3.50767 0.0547205 0.00828568)
(3.49936 0.0462091 0.00630549)
(3.49654 0.0315764 0.00537622)
(3.49739 0.0157399 0.00466111)
(3.50435 0.00231252 0.00390752)
(3.51199 -0.00656181 0.00283826)
(3.52736 -0.0122315 0.00198264)
(3.53754 -0.0137874 0.00160892)
(3.55771 -0.0148341 0.000953291)
(3.56305 -0.0123176 0.00484493)
(3.00664 0.0156456 0.0843105)
(3.2575 0.0274363 0.0928363)
(3.41716 0.0318435 0.078757)
(3.50014 0.0375338 0.0644717)
(3.54711 0.0412729 0.047265)
(3.57623 0.0400713 0.0355299)
(3.589 0.0374071 0.0297116)
(3.58901 0.0371417 0.0247271)
(3.58455 0.040155 0.0190829)
(3.58277 0.042739 0.0136194)
(3.5858 0.040516 0.00903441)
(3.59148 0.0314999 0.00559393)
(3.59802 0.0178538 0.00336503)
(3.60334 0.00345603 0.0018119)
(3.60992 -0.00851803 0.000982703)
(3.61466 -0.0170899 0.000420114)
(3.62477 -0.0223089 0.000438671)
(3.63141 -0.0246083 0.000604775)
(3.64719 -0.0250404 0.00049122)
(3.65133 -0.0239119 0.00419063)
(3.00671 0.0128407 0.0844729)
(3.25028 0.0255717 0.0934073)
(3.40678 0.0314663 0.0789791)
(3.48913 0.0364192 0.0645661)
(3.53511 0.0398745 0.0474081)
(3.56342 0.0395976 0.0355823)
(3.57679 0.0378605 0.0296632)
(3.57836 0.0364668 0.0245888)
(3.5758 0.0369018 0.0188392)
(3.57573 0.0368889 0.0132318)
(3.57981 0.0341182 0.00855753)
(3.58619 0.0267763 0.00506398)
(3.59343 0.015631 0.00284813)
(3.59914 0.00286481 0.00158702)
(3.60673 -0.00903839 0.00102975)
(3.61278 -0.0188943 0.000453239)
(3.62528 -0.0265313 0.000373237)
(3.63339 -0.0308295 0.000662745)
(3.65133 -0.0331351 0.000458802)
(3.65642 -0.0324728 0.00454092)
(3.0067 0.00823451 0.084574)
(3.24613 0.0176353 0.0936569)
(3.40074 0.0230829 0.0790062)
(3.48234 0.0271862 0.0644014)
(3.52713 0.0303375 0.0472235)
(3.55461 0.0303646 0.0353607)
(3.5679 0.0295224 0.0294307)
(3.57018 0.0278078 0.0243159)
(3.5675 0.0274146 0.0186456)
(3.56617 0.025775 0.0130872)
(3.56858 0.0222052 0.00835349)
(3.57361 0.0149111 0.00477856)
(3.58124 0.00469378 0.00237024)
(3.58899 -0.0072897 0.000891269)
(3.59936 -0.018652 0.000359798)
(3.6076 -0.0286886 -4.2293e-05)
(3.62238 -0.0365547 0.000101516)
(3.63189 -0.0414731 0.000473484)
(3.65167 -0.0440829 0.000404867)
(3.65793 -0.0436459 0.00446491)
(3.00667 0.0060504 0.0846394)
(3.24391 0.014077 0.0938651)
(3.39697 0.0196305 0.0792574)
(3.4777 0.0232535 0.0646017)
(3.52109 0.026415 0.0474706)
(3.5476 0.0262935 0.0355747)
(3.56013 0.0261034 0.0296704)
(3.5622 0.0234516 0.0244557)
(3.55914 0.0225301 0.0187321)
(3.55683 0.0193646 0.0130953)
(3.55804 0.0154658 0.00835679)
(3.56186 0.00814115 0.0048437)
(3.56895 -0.00151221 0.00257057)
(3.57684 -0.0131771 0.0012437)
(3.58862 -0.0246368 0.000673481)
(3.59855 -0.0359808 0.000139599)
(3.61609 -0.0452696 0.000265165)
(3.62755 -0.0516884 0.000627148)
(3.65018 -0.055408 0.00048658)
(3.65838 -0.0555863 0.00468428)
(3.00662 0.00448731 0.0846869)
(3.24255 0.0107751 0.093997)
(3.39433 0.015723 0.0794598)
(3.47426 0.0183436 0.0647101)
(3.5164 0.0213981 0.0475934)
(3.5423 0.0203681 0.035612)
(3.55384 0.0209002 0.0297847)
(3.55578 0.0168845 0.0244405)