x,y,z,U_0,U_1,U_2
0,0,0,2.99969,-0.00781701,0
0,0.1,0,2.99982,-0.00469021,0
0,0.2,0,2.99994,-0.0015634,0
0,0.3,0,3,0,0
0,0.4,0,3,0,0
0,0.5,0,3,0,0
0,0.6,0,3,0,0
0,0.7,0,3,0,0
0,0.8,0,3,0,0
0,0.9,0,3,0,0
0,1,0,3,0,0
0,1.1,0,3,0,0
0,1.2,0,3,0,0
0,1.3,0,3,0,0
0,1.4,0,3,0,0
0,1.5,0,3,0,0
0,1.6,0,3,0,0
0,1.7,0,3,0,0
0,1.8,0,3,0,0
0,1.9,0,3,0,0
0,2,0,3,0,0
0,2.1,0,3,0,0
0,2.2,0,3,0,0
0,2.3,0,3,0,0
0,2.4,0,3,0,0
0,2.5,0,3,0,0
0,2.6,0,3,0,0
0,2.7,0,3,0,0
0,2.8,0,3,0,0
0,2.9,0,3,0,0
0,3,0,3,0,0
0,3.1,0,3,0,0
0,3.2,0,3,0,0
0,3.3,0,3,0,0
0,3.4,0,3,0,0
0,3.5,0,3,0,0
0,3.6,0,3,0,0
0,3.7,0,3,0,0
0,3.8,0,3,0,0
0,3.9,0,3,0,0
0,4,0,3,0,0
0,4.1,0,3,0,0
0,4.2,0,3,0,0
0,4.3,0,3,0,0
0,4.4,0,3,0,0
0,4.5,0,3,0,0
0,4.6,0,3,0,0
0,4.7,0,3,0,0
0,4.8,0,3,0,0
0,4.9,0,3,0,0
0,5,0,3,0,0
0,5.1,0,3,0,0
0,5.2,0,3,0,0
0,5.3,0,3,0,0
0,5.4,0,3,0,0
0,5.5,0,3,0,0
0,5.6,0,3,0,0
0,5.7,0,3,0,0
0,5.8,0,3,0,0
0,5.9,0,3,0,0
0,6,0,3,0,0
0,6.1,0,3,0,0
0,6.2,0,3,0,0
0,6.3,0,3,0,0
0,6.4,0,3,0,0
0,6.5,0,3,0,0
0,6.6,0,3,0,0
0,6.7,0,3,0,0
0,6.8,0,3,0,0
0,6.9,0,3,0,0
0,7,0,3,0,0
0,7.1,0,3,0,0
0,7.2,0,3,0,0
0,7.3,0,3,0,0
0,7.4,0,3,0,0
0,7.5,0,3,0,0
0,7.6,0,3,0,0
0,7.7,0,3,0,0
0,7.8,0,3,0,0
0,7.9,0,3,0,0
0,8,0,3,0,0
0,8.1,0,3,0,0
0,8.2,0,3,0,0
0,8.3,0,3,0,0
0,8.4,0,3,0,0
0,8.5,0,3,0,0
0,8.6,0,3,0,0
0,8.7,0,3,0,0
0,8.8,0,3,0,0
0,8.9,0,3,0,0
0,9,0,3,0,0
0,9.1,0,3,0,0
0,9.2,0,3,0,0
0,9.3,0,3,0,0
0,9.4,0,3,0,0
0,9.5,0,3,0,0
0,9.6,0,3,0,0
0,9.7,0,3,0,0
0,9.8,0,3,0,0
0,9.9,0,3,0,0
0,10,0,3,0,0
0,10.1,0,3,0,0
0,10.2,0,3,0,0
0,10.3,0,3,0,0
0,10.4,0,3,0,0
0,10.5,0,3,0,0
0,10.6,0,3,0,0
0,10.7,0,3,0,0
0,10.8,0,3,0,0
0,10.9,0,3,0,0
0,11,0,3,0,0
0,11.1,0,3,0,0
0,11.2,0,3,0,0
0,11.3,0,3,0,0
0,11.4,0,3,0,0
0,11.5,0,3,0,0
0,11.6,0,3,0,0
0,11.7,0,3,0,0
0,11.8,0,3,0,0
0,11.9,0,3,0,0
0,12,0,3,0,0
0,12.1,0,3,0,0
0,12.2,0,3,0,0
0,12.3,0,3,0,0
0,12.4,0,3,0,0
0,12.5,0,3.00049,0.00252441,0
0,12.6,0,3.00107,0.00549431,0
0,12.7,0,3.00165,0.00846421,0
0.1,0,0,2.99933,-0.0149624,0
0.1,0.1,0,2.9996,-0.0101234,0
0.1,0.2,0,2.99972,-0.00733243,0
0.1,0.3,0,2.9994,-0.00664527,0
0.1,0.4,0,2.99936,-0.00640676,0
0.1,0.5,0,3.00008,-0.00873489,0
0.1,0.6,0,3.00082,-0.00686622,0
0.1,0.7,0,3.00073,-0.00702908,0
0.1,0.8,0,3.00203,-0.00725224,0
0.1,0.9,0,3.00226,-0.00711418,0
0.1,1,0,2.99934,-0.00804716,0
0.1,1.1,0,3.00043,-0.00610747,0
0.1,1.2,0,3.00032,-0.0062784,0
0.1,1.3,0,2.9986,-0.00525515,0
0.1,1.4,0,2.99852,-0.00497053,0
0.1,1.5,0,2.99998,-0.00779164,0
0.1,1.6,0,3.00016,-0.00539502,0
0.1,1.7,0,3.00015,-0.00560589,0
0.1,1.8,0,3.00163,-0.00601033,0
0.1,1.9,0,3.0018,-0.0058444,0
0.1,2,0,2.99957,-0.00697761,0
0.1,2.1,0,3.0004,-0.00514378,0
0.1,2.2,0,3.00031,-0.00529697,0
0.1,2.3,0,2.99909,-0.00455323,0
0.1,2.4,0,2.99904,-0.0043174,0
0.1,2.5,0,2.99989,-0.00655977,0
0.1,2.6,0,3.00015,-0.00467578,0
0.1,2.7,0,3.00011,-0.004826,0
0.1,2.8,0,3.0005,-0.00473624,0
0.1,2.9,0,3.00058,-0.00457604,0
0.1,3,0,2.99961,-0.00573968,0
0.1,3.1,0,2.99944,-0.00370924,0
0.1,3.2,0,2.99947,-0.0038854,0
0.1,3.3,0,2.9997,-0.00410796,0
0.1,3.4,0,2.99969,-0.00395652,0
0.1,3.5,0,2.99983,-0.00505509,0
0.1,3.6,0,2.99968,-0.00354405,0
0.1,3.7,0,2.99969,-0.00365405,0
0.1,3.8,0,2.99934,-0.00362243,0
0.1,3.9,0,2.99929,-0.00350892,0
0.1,4,0,2.9999,-0.00421548,0
0.1,4.1,0,2.99936,-0.00343909,0
0.1,4.2,0,2.99942,-0.00346948,0
0.1,4.3,0,2.99938,-0.00360289,0
0.1,4.4,0,2.99932,-0.00358732,0
0.1,4.5,0,2.99997,-0.00323068,0
0.1,4.6,0,2.99965,-0.0037736,0
0.1,4.7,0,2.99967,-0.00366155,0
0.1,4.8,0,3.00036,-0.00406585,0
0.1,4.9,0,3.00041,-0.00422283,0
0.1,5,0,2.99975,-0.00219463,0
0.1,5.1,0,2.99956,-0.00190428,0
0.1,5.2,0,2.99942,-0.00173667,0
0.1,5.3,0,2.99928,-0.00157434,0
0.1,5.4,0,2.99914,-0.0014184,0
0.1,5.5,0,2.99903,-0.00126762,0
0.1,5.6,0,2.99894,-0.00112021,0
0.1,5.7,0,2.99889,-0.000973938,0
0.1,5.8,0,2.99886,-0.000826472,0
0.1,5.9,0,2.99887,-0.000675815,0
0.1,6,0,2.99889,-0.000520636,0
0.1,6.1,0,2.99893,-0.000360444,0
0.1,6.2,0,2.99897,-0.000195549,0
0.1,6.3,0,2.999,-2.68567e-05,0
0.1,6.4,0,2.99903,0.000144355,0
0.1,6.5,0,2.99905,0.000316617,0
0.1,6.6,0,2.99906,0.000488376,0
0.1,6.7,0,2.99906,0.000657981,0
0.1,6.8,0,2.99905,0.000823785,0
0.1,6.9,0,2.999,0.000981322,0
0.1,7,0,2.99887,0.00126005,0
0.1,7.1,0,3.00669,0.0024405,0
0.1,7.2,0,3.00669,0.0024405,0
0.1,7.3,0,3.0006,0.00202871,0
0.1,7.4,0,3.00662,0.00304845,0
0.1,7.5,0,3.00662,0.00304845,0
0.1,7.6,0,3.00175,0.0030386,0
0.1,7.7,0,3.00506,0.00392909,0
0.1,7.8,0,3.00427,0.00376806,0
0.1,7.9,0,3.00179,0.00392655,0
0.1,8,0,3.00291,0.00442412,0
0.1,8.1,0,3.00163,0.00397213,0
0.1,8.2,0,3.00072,0.00452314,0
0.1,8.3,0,3.0008,0.0045968,0
0.1,8.4,0,3.00015,0.00406608,0
0.1,8.5,0,2.99949,0.00445044,0
0.1,8.6,0,2.99949,0.00445044,0
0.1,8.7,0,2.99991,0.00428641,0
0.1,8.8,0,2.99829,0.00427078,0
0.1,8.9,0,2.99829,0.00427078,0
0.1,9,0,2.99989,0.00468183,0
0.1,9.1,0,2.99833,0.00391063,0
0.1,9.2,0,2.99833,0.00391063,0
0.1,9.3,0,2.99956,0.00492077,0
0.1,9.4,0,2.99839,0.00425264,0
0.1,9.5,0,2.99839,0.00425264,0
0.1,9.6,0,2.99867,0.00444549,0
0.1,9.7,0,2.99748,0.0033865,0
0.1,9.8,0,2.99796,0.0039302,0
0.1,9.9,0,2.99941,0.00466607,0
0.1,10,0,2.99932,0.0043186,0
0.1,10.1,0,2.99959,0.0052575,0
0.1,10.2,0,2.99975,0.00488067,0
0.1,10.3,0,2.99975,0.00488067,0
0.1,10.4,0,3.00013,0.00629427,0
0.1,10.5,0,2.99793,0.00381483,0
0.1,10.6,0,2.99793,0.00381483,0
0.1,10.7,0,2.99967,0.00675566,0
0.1,10.8,0,2.99856,0.00425829,0
0.1,10.9,0,2.99856,0.00425829,0
0.1,11,0,2.99969,0.00689162,0
0.1,11.1,0,3.0016,0.005772,0
0.1,11.2,0,3.0016,0.005772,0
0.1,11.3,0,3.00053,0.00710119,0
0.1,11.4,0,3.00154,0.00616938,0
0.1,11.5,0,3.00148,0.0062818,0
0.1,11.6,0,2.99896,0.00609656,0
0.1,11.7,0,2.99812,0.00480809,0
0.1,11.8,0,2.9986,0.00580255,0
0.1,11.9,0,2.99852,0.00568182,0
0.1,12,0,2.99833,0.00529369,0
0.1,12.1,0,2.99875,0.00677702,0
0.1,12.2,0,3.00111,0.00695031,0
0.1,12.3,0,3.00111,0.00695031,0
0.1,12.4,0,2.99978,0.00809963,0
0.1,12.5,0,3.00163,0.00837259,0
0.1,12.6,0,3.0022,0.0113425,0
0.1,12.7,0,3.00092,0.0153912,0
0.2,0,0,2.99896,-0.0221077,0
0.2,0.1,0,2.99936,-0.015899,0
0.2,0.2,0,2.99946,-0.0161243,0
0.2,0.3,0,2.99913,-0.0154372,0
0.2,0.4,0,2.99886,-0.0132791,0
0.2,0.5,0,3.00016,-0.0174698,0
0.2,0.6,0,3.00149,-0.0141062,0
0.2,0.7,0,3.00068,-0.0155239,0
0.2,0.8,0,3.00198,-0.015747,0
0.2,0.9,0,3.00394,-0.014415,0
0.2,1,0,2.99867,-0.0160943,0
0.2,1.1,0,3.00064,-0.0126029,0
0.2,1.2,0,2.99965,-0.0140951,0
0.2,1.3,0,2.99793,-0.0130719,0
0.2,1.4,0,2.99734,-0.0105053,0
0.2,1.5,0,2.99995,-0.0155833,0
0.2,1.6,0,3.00028,-0.0112694,0
0.2,1.7,0,3.00022,-0.0131096,0
0.2,1.8,0,3.0017,-0.013514,0
0.2,1.9,0,3.00315,-0.0119154,0
0.2,2,0,2.99914,-0.0139552,0
0.2,2.1,0,3.00063,-0.0106543,0
0.2,2.2,0,2.99984,-0.0119727,0
0.2,2.3,0,2.99862,-0.011229,0
0.2,2.4,0,2.99826,-0.00908327,0
0.2,2.5,0,2.99978,-0.0131195,0
0.2,2.6,0,3.00024,-0.00972835,0
0.2,2.7,0,2.99992,-0.011004,0
0.2,2.8,0,3.00031,-0.0109142,0
0.2,2.9,0,3.00096,-0.00938482,0
0.2,3,0,2.99922,-0.0114794,0
0.2,3.1,0,2.99891,-0.00782456,0
0.2,3.2,0,2.99925,-0.00935625,0
0.2,3.3,0,2.99948,-0.00957881,0
0.2,3.4,0,2.99941,-0.00813276,0
0.2,3.5,0,2.99966,-0.0101102,0
0.2,3.6,0,2.99938,-0.00739031,0
0.2,3.7,0,2.9995,-0.00829809,0
0.2,3.8,0,2.99915,-0.00826647,0
0.2,3.9,0,2.9987,-0.00715915,0
0.2,4,0,2.9998,-0.00843096,0
0.2,4.1,0,2.99884,-0.00703346,0
0.2,4.2,0,2.99936,-0.00721252,0
0.2,4.3,0,2.99932,-0.00734593,0
0.2,4.4,0,2.99876,-0.00710331,0
0.2,4.5,0,2.99994,-0.00646135,0
0.2,4.6,0,2.99936,-0.00743862,0
0.2,4.7,0,2.99958,-0.0063146,0
0.2,4.8,0,3.00027,-0.00671891,0
0.2,4.9,0,3.00069,-0.00804002,0
0.2,5,0,2.99949,-0.00438926,0
0.2,5.1,0,2.99912,-0.00380857,0
0.2,5.2,0,2.99884,-0.00347333,0
0.2,5.3,0,2.99856,-0.00314867,0
0.2,5.4,0,2.99829,-0.0028368,0
0.2,5.5,0,2.99806,-0.00253524,0
0.2,5.6,0,2.99788,-0.00224043,0
0.2,5.7,0,2.99777,-0.00194788,0
0.2,5.8,0,2.99772,-0.00165294,0
0.2,5.9,0,2.99773,-0.00135163,0
0.2,6,0,2.99778,-0.00104127,0
0.2,6.1,0,2.99785,-0.000720889,0
0.2,6.2,0,2.99793,-0.000391098,0
0.2,6.3,0,2.998,-5.37133e-05,0
0.2,6.4,0,2.99806,0.00028871,0
0.2,6.5,0,2.99811,0.000633234,0
0.2,6.6,0,2.99813,0.000976752,0
0.2,6.7,0,2.99813,0.00131596,0
0.2,6.8,0,2.99809,0.00164757,0
0.2,6.9,0,2.99801,0.00196264,0
0.2,7,0,2.99775,0.00252009,0
0.2,7.1,0,3.01009,0.00438396,0
0.2,7.2,0,3.00815,0.00440188,0
0.2,7.3,0,2.99934,0.00374094,0
0.2,7.4,0,3.01178,0.00585076,0
0.2,7.5,0,3.00621,0.00537101,0
0.2,7.6,0,3.00051,0.00527575,0
0.2,7.7,0,3.01012,0.00785819,0
0.2,7.8,0,3.00331,0.00647331,0
0.2,7.9,0,3.00083,0.0066318,0
0.2,8,0,3.00582,0.00884824,0
0.2,8.1,0,3.00105,0.00716941,0
0.2,8.2,0,3.00015,0.00772042,0
0.2,8.3,0,3.00156,0.00917053,0
0.2,8.4,0,2.99989,0.00778603,0
0.2,8.5,0,2.99918,0.00830496,0
0.2,8.6,0,2.99912,0.00884963,0
0.2,8.7,0,2.99989,0.00854205,0
0.2,8.8,0,2.99757,0.0085328,0
0.2,8.9,0,2.99745,0.00878014,0
0.2,9,0,2.99991,0.00942977,0
0.2,9.1,0,2.99724,0.00810771,0
0.2,9.2,0,2.99797,0.00879279,0
0.2,9.3,0,2.99967,0.0101499,0
0.2,9.4,0,2.99695,0.00860807,0
0.2,9.5,0,2.99849,0.0099668,0
0.2,9.6,0,2.99882,0.0101992,0
0.2,9.7,0,2.99496,0.006773,0
0.2,9.8,0,2.99773,0.00989928,0
0.2,9.9,0,2.99918,0.0106351,0
0.2,10,0,2.99863,0.00863721,0
0.2,10.1,0,2.99951,0.0116748,0
0.2,10.2,0,2.99967,0.0112575,0
0.2,10.3,0,2.99956,0.00997881,0
0.2,10.4,0,3.00044,0.013241,0
0.2,10.5,0,2.99761,0.00993736,0
0.2,10.6,0,2.9965,0.00872197,0
0.2,10.7,0,2.99949,0.0137634,0
0.2,10.8,0,2.99775,0.0098913,0
0.2,10.9,0,2.99757,0.0101627,0
0.2,11,0,2.99903,0.0139932,0
0.2,11.1,0,3.0026,0.0118939,0
0.2,11.2,0,3.00179,0.0131241,0
0.2,11.3,0,3.0004,0.0148101,0
0.2,11.4,0,3.00304,0.0123793,0
0.2,11.5,0,3.00188,0.0145872,0
0.2,11.6,0,2.99936,0.0144019,0
0.2,11.7,0,2.99624,0.00961618,0
0.2,11.8,0,2.99837,0.014046,0
0.2,11.9,0,2.99829,0.0139253,0
0.2,12,0,2.99667,0.0105874,0
0.2,12.1,0,2.99788,0.014889,0
0.2,12.2,0,3.00045,0.01494,0
0.2,12.3,0,3.00189,0.014178,0
0.2,12.4,0,2.99914,0.0165559,0
0.2,12.5,0,3.0016,0.0159366,0
0.2,12.6,0,3.00256,0.0176449,0
0.2,12.7,0,3.0002,0.0223182,0
0.3,0,0,2.9986,-0.0292531,0
0.3,0.1,0,2.99898,-0.0240519,0
0.3,0.2,0,2.99919,-0.0249162,0
0.3,0.3,0,2.99887,-0.0242291,0
0.3,0.4,0,2.99906,-0.0227296,0
0.3,0.5,0,3.00024,-0.0262047,0
0.3,0.6,0,3.00131,-0.0233296,0
0.3,0.7,0,3.00064,-0.0240187,0
0.3,0.8,0,3.00194,-0.0242418,0
0.3,0.9,0,3.00258,-0.0228763,0
0.3,1,0,2.99801,-0.0241415,0
0.3,1.1,0,2.99965,-0.0211628,0
0.3,1.2,0,2.99897,-0.0219119,0
0.3,1.3,0,2.99726,-0.0208887,0
0.3,1.4,0,2.99756,-0.0191508,0
0.3,1.5,0,2.99993,-0.0233749,0
0.3,1.6,0,3.00023,-0.0196936,0
0.3,1.7,0,3.00029,-0.0206133,0
0.3,1.8,0,3.00177,-0.0210177,0
0.3,1.9,0,3.0022,-0.0193908,0
0.3,2,0,2.9987,-0.0209328,0
0.3,2.1,0,2.99993,-0.0180915,0
0.3,2.2,0,2.99937,-0.0186484,0
0.3,2.3,0,2.99815,-0.0179047,0
0.3,2.4,0,2.99829,-0.0163505,0
0.3,2.5,0,2.99967,-0.0196793,0
0.3,2.6,0,3.00003,-0.0167388,0
0.3,2.7,0,2.99972,-0.017182,0
0.3,2.8,0,3.00011,-0.0170922,0
0.3,2.9,0,3.00034,-0.0156051,0
0.3,3,0,2.99883,-0.017219,0
0.3,3.1,0,2.99862,-0.0140927,0
0.3,3.2,0,2.99903,-0.0148271,0
0.3,3.3,0,2.99927,-0.0150497,0
0.3,3.4,0,2.99927,-0.0136422,0
0.3,3.5,0,2.99948,-0.0151653,0
0.3,3.6,0,2.99925,-0.0127754,0
0.3,3.7,0,2.99931,-0.0129421,0
0.3,3.8,0,2.99897,-0.0129105,0
0.3,3.9,0,2.99876,-0.0117152,0
0.3,4,0,2.9997,-0.0126464,0
0.3,4.1,0,2.99891,-0.0113401,0
0.3,4.2,0,2.9993,-0.0109556,0
0.3,4.3,0,2.99926,-0.011089,0
0.3,4.4,0,2.99892,-0.0103807,0
0.3,4.5,0,2.9999,-0.00969203,0
0.3,4.6,0,2.99941,-0.0103331,0
0.3,4.7,0,2.99948,-0.00896765,0
0.3,4.8,0,3.00017,-0.00937196,0
0.3,4.9,0,3.00029,-0.00976372,0
0.3,5,0,2.99924,-0.00658389,0
0.3,5.1,0,2.99867,-0.00571285,0
0.3,5.2,0,2.99826,-0.00521,0
0.3,5.3,0,2.99783,-0.00472301,0
0.3,5.4,0,2.99744,-0.0042552,0
0.3,5.5,0,2.99709,-0.00380286,0
0.3,5.6,0,2.99683,-0.00336064,0
0.3,5.7,0,2.99666,-0.00292181,0
0.3,5.8,0,2.99658,-0.00247942,0
0.3,5.9,0,2.9966,-0.00202744,0
0.3,6,0,2.99667,-0.00156191,0
0.3,6.1,0,2.99678,-0.00108133,0
0.3,6.2,0,2.9969,-0.000586647,0
0.3,6.3,0,2.99701,-8.057e-05,0
0.3,6.4,0,2.9971,0.000433065,0
0.3,6.5,0,2.99716,0.000949851,0
0.3,6.6,0,2.99719,0.00146513,0
0.3,6.7,0,2.99719,0.00197394,0
0.3,6.8,0,2.99714,0.00247136,0
0.3,6.9,0,2.99701,0.00294397,0
0.3,7,0,2.99662,0.00378014,0
0.3,7.1,0,3.00834,0.00558652,0
0.3,7.2,0,3.00689,0.00611411,0
0.3,7.3,0,2.99808,0.00545318,0
0.3,7.4,0,3.00804,0.0073068,0
0.3,7.5,0,3.00498,0.00760816,0
0.3,7.6,0,2.99928,0.00751291,0
0.3,7.7,0,3.00589,0.00950805,0
0.3,7.8,0,3.00235,0.00917855,0
0.3,7.9,0,2.99988,0.00933704,0
0.3,8,0,3.00323,0.0110825,0
0.3,8.1,0,3.00047,0.0103667,0
0.3,8.2,0,2.99957,0.0109177,0
0.3,8.3,0,3.00065,0.0122275,0
0.3,8.4,0,2.99963,0.011506,0
0.3,8.5,0,2.99892,0.0120249,0
0.3,8.6,0,2.99916,0.0129323,0
0.3,8.7,0,2.99987,0.0127977,0
0.3,8.8,0,2.99755,0.0127885,0
0.3,8.9,0,2.99747,0.0135281,0
0.3,9,0,2.99993,0.0141777,0
0.3,9.1,0,2.99755,0.0130638,0
0.3,9.2,0,2.99808,0.0140219,0
0.3,9.3,0,2.99977,0.015379,0
0.3,9.4,0,2.99776,0.0144297,0
0.3,9.5,0,2.99864,0.0157205,0
0.3,9.6,0,2.99897,0.0159528,0
0.3,9.7,0,2.99621,0.0138463,0
0.3,9.8,0,2.99751,0.0158684,0
0.3,9.9,0,2.99895,0.0166042,0
0.3,10,0,2.99876,0.0158208,0
0.3,10.1,0,2.99943,0.0180921,0
0.3,10.2,0,2.99959,0.0176749,0
0.3,10.3,0,2.99994,0.0175321,0
0.3,10.4,0,3.00075,0.0201877,0
0.3,10.5,0,2.99792,0.0168841,0
0.3,10.6,0,2.9967,0.0162242,0
0.3,10.7,0,2.99931,0.0207711,0
0.3,10.8,0,2.99757,0.016899,0
0.3,10.9,0,2.9969,0.0172642,0
0.3,11,0,2.99836,0.0210947,0
0.3,11.1,0,3.00153,0.0194542,0
0.3,11.2,0,3.00166,0.020833,0
0.3,11.3,0,3.00027,0.022519,0
0.3,11.4,0,3.00237,0.0211,0
0.3,11.5,0,3.00228,0.0228925,0
0.3,11.6,0,2.99975,0.0227073,0
0.3,11.7,0,2.99733,0.0196262,0
0.3,11.8,0,2.99814,0.0222895,0
0.3,11.9,0,2.99807,0.0221688,0
0.3,12,0,2.99655,0.0201812,0
0.3,12.1,0,2.99701,0.0230011,0
0.3,12.2,0,2.99958,0.0230521,0
0.3,12.3,0,3.00063,0.0230012,0
0.3,12.4,0,2.99851,0.0250123,0
0.3,12.5,0,3.00097,0.024393,0
0.3,12.6,0,3.00169,0.0247778,0
0.3,12.7,0,2.99947,0.0292452,0
0.4,0,0,2.99823,-0.0363984,0
0.4,0.1,0,2.99856,-0.034556,0
0.4,0.2,0,2.99887,-0.034393,0
0.4,0.3,0,2.9989,-0.0339522,0
0.4,0.4,0,2.99951,-0.0338496,0
0.4,0.5,0,3.00032,-0.0349396,0
0.4,0.6,0,3.00052,-0.0336931,0
0.4,0.7,0,3.0003,-0.0332609,0
0.4,0.8,0,3.00072,-0.0331098,0
0.4,0.9,0,2.99961,-0.0323041,0
0.4,1,0,2.99735,-0.0321886,0
0.4,1.1,0,2.99788,-0.0309193,0
0.4,1.2,0,2.99786,-0.0305045,0
0.4,1.3,0,2.99716,-0.0298338,0
0.4,1.4,0,2.99833,-0.0297887,0
0.4,1.5,0,2.9999,-0.0311666,0
0.4,1.6,0,3.00012,-0.0295939,0
0.4,1.7,0,3.00029,-0.0290756,0
0.4,1.8,0,3.00094,-0.0289747,0
0.4,1.9,0,3.00004,-0.0280277,0
0.4,2,0,2.99827,-0.0279104,0
0.4,2.1,0,2.99863,-0.0266011,0
0.4,2.2,0,2.99856,-0.0260577,0
0.4,2.3,0,2.99802,-0.0254774,0
0.4,2.4,0,2.99867,-0.0252686,0
0.4,2.5,0,2.99956,-0.0262391,0
0.4,2.6,0,2.99958,-0.0248008,0
0.4,2.7,0,2.99942,-0.0241135,0
0.4,2.8,0,2.99953,-0.0237356,0
0.4,2.9,0,2.99918,-0.0229467,0
0.4,3,0,2.99844,-0.0229587,0
0.4,3.1,0,2.99858,-0.021594,0
0.4,3.2,0,2.99889,-0.0211101,0
0.4,3.3,0,2.9991,-0.0209599,0
0.4,3.4,0,2.99918,-0.0202116,0
0.4,3.5,0,2.99931,-0.0202204,0
0.4,3.6,0,2.99922,-0.0189305,0
0.4,3.7,0,2.99919,-0.0181906,0
0.4,3.8,0,2.99902,-0.0178372,0
0.4,3.9,0,2.99918,-0.0170658,0
0.4,4,0,2.9996,-0.0168619,0
0.4,4.1,0,2.99939,-0.0158596,0
0.4,4.2,0,2.99946,-0.0150092,0
0.4,4.3,0,2.99946,-0.0146894,0
0.4,4.4,0,2.99951,-0.0137671,0
0.4,4.5,0,2.99987,-0.0129227,0
0.4,4.6,0,2.99963,-0.0124433,0
0.4,4.7,0,2.99952,-0.0114035,0
0.4,4.8,0,2.99981,-0.0112137,0
0.4,4.9,0,2.99952,-0.0103886,0
0.4,5,0,2.99898,-0.00877853,0
0.4,5.1,0,2.99823,-0.00761714,0
0.4,5.2,0,2.99768,-0.00694666,0
0.4,5.3,0,2.99711,-0.00629735,0
0.4,5.4,0,2.99658,-0.00567361,0
0.4,5.5,0,2.99612,-0.00507049,0
0.4,5.6,0,2.99577,-0.00448085,0
0.4,5.7,0,2.99554,-0.00389575,0
0.4,5.8,0,2.99544,-0.00330589,0
0.4,5.9,0,2.99546,-0.00270326,0
0.4,6,0,2.99556,-0.00208254,0
0.4,6.1,0,2.99571,-0.00144178,0
0.4,6.2,0,2.99587,-0.000782196,0
0.4,6.3,0,2.99601,-0.000107427,0
0.4,6.4,0,2.99613,0.00057742,0
0.4,6.5,0,2.99622,0.00126647,0
0.4,6.6,0,2.99626,0.0019535,0
0.4,6.7,0,2.99625,0.00263192,0
0.4,6.8,0,2.99619,0.00329514,0
0.4,6.9,0,2.99602,0.00392529,0
0.4,7,0,2.9955,0.00504019,0
0.4,7.1,0,2.99926,0.0061183,0
0.4,7.2,0,2.99904,0.00683228,0
0.4,7.3,0,2.99681,0.00716542,0
0.4,7.4,0,2.99893,0.00820774,0
0.4,7.5,0,2.99897,0.00903655,0
0.4,7.6,0,2.99805,0.00975006,0
0.4,7.7,0,2.99864,0.0105214,0
0.4,7.8,0,2.99908,0.0112605,0
0.4,7.9,0,2.99818,0.011784,0
0.4,8,0,2.99878,0.0125609,0
0.4,8.1,0,2.99939,0.0133378,0
0.4,8.2,0,2.99852,0.0137227,0
0.4,8.3,0,2.99901,0.014548,0
0.4,8.4,0,2.99936,0.0152259,0
0.4,8.5,0,2.99899,0.0156116,0
0.4,8.6,0,2.99938,0.0164574,0
0.4,8.7,0,2.99986,0.0170533,0
0.4,8.8,0,2.99913,0.0174836,0
0.4,8.9,0,2.99919,0.0182609,0
0.4,9,0,2.99996,0.0189256,0
0.4,9.1,0,2.99934,0.0191303,0
0.4,9.2,0,2.99947,0.0198901,0
0.4,9.3,0,2.99988,0.0206082,0
0.4,9.4,0,2.99962,0.0211599,0
0.4,9.5,0,2.99969,0.0219881,0
0.4,9.6,0,2.99925,0.0218424,0
0.4,9.7,0,2.99865,0.0221825,0
0.4,9.8,0,2.99805,0.0225227,0
0.4,9.9,0,2.9989,0.0231808,0
0.4,10,0,2.99914,0.0238886,0
0.4,10.1,0,2.99938,0.0245963,0
0.4,10.2,0,2.99981,0.0251796,0
0.4,10.3,0,3.00042,0.0260154,0
0.4,10.4,0,3.00106,0.0271344,0
0.4,10.5,0,2.99967,0.0262675,0
0.4,10.6,0,2.9989,0.0263638,0
0.4,10.7,0,2.99913,0.0277789,0
0.4,10.8,0,2.99816,0.02675,0
0.4,10.9,0,2.9974,0.0268982,0
0.4,11,0,2.99769,0.0281963,0
0.4,11.1,0,2.99913,0.0284926,0
0.4,11.2,0,2.99998,0.0294516,0
0.4,11.3,0,3.00015,0.0302279,0
0.4,11.4,0,3.0011,0.0309448,0
0.4,11.5,0,3.00192,0.0318866,0
0.4,11.6,0,3.00037,0.0314647,0
0.4,11.7,0,2.99938,0.031367,0
0.4,11.8,0,2.99839,0.0312693,0
0.4,11.9,0,2.99813,0.0314506,0
0.4,12,0,2.99712,0.031243,0
0.4,12.1,0,2.99614,0.0311131,0
0.4,12.2,0,2.99765,0.0320756,0
0.4,12.3,0,2.99802,0.0326192,0
0.4,12.4,0,2.99788,0.0334686,0
0.4,12.5,0,2.99876,0.0337578,0
0.4,12.6,0,2.9992,0.0343129,0
0.4,12.7,0,2.99875,0.0361722,0
0.5,0,0,2.99813,-0.0414069,0
0.5,0.1,0,2.99798,-0.0451507,0
0.5,0.2,0,2.99828,-0.0449877,0
0.5,0.3,0,2.99935,-0.0449482,0
0.5,0.4,0,2.99997,-0.0448456,0
0.5,0.5,0,3.00007,-0.0410365,0
0.5,0.6,0,3.00021,-0.0443638,0
0.5,0.7,0,2.99998,-0.0439316,0
0.5,0.8,0,2.99777,-0.042438,0
0.5,0.9,0,2.99666,-0.0416322,0
0.5,1,0,2.99674,-0.0381918,0
0.5,1.1,0,2.99549,-0.0405581,0
0.5,1.2,0,2.99547,-0.0401434,0
0.5,1.3,0,2.99791,-0.040384,0
0.5,1.4,0,2.99908,-0.0403388,0
0.5,1.5,0,2.99966,-0.0372477,0
0.5,1.6,0,3.0006,-0.0398448,0
0.5,1.7,0,3.00077,-0.0393265,0
0.5,1.8,0,2.99879,-0.0374992,0
0.5,1.9,0,2.99788,-0.0365522,0
0.5,2,0,2.99755,-0.0335126,0
0.5,2.1,0,2.99687,-0.0349989,0
0.5,2.2,0,2.9968,-0.0344555,0
0.5,2.3,0,2.99845,-0.0343214,0
0.5,2.4,0,2.9991,-0.0341126,0
0.5,2.5,0,2.99914,-0.0315272,0
0.5,2.6,0,2.99951,-0.0332027,0
0.5,2.7,0,2.99936,-0.0325154,0
0.5,2.8,0,2.99809,-0.0307938,0
0.5,2.9,0,2.99774,-0.0300049,0
0.5,3,0,2.99781,-0.0277226,0
0.5,3.1,0,2.99845,-0.0292093,0
0.5,3.2,0,2.99875,-0.0287254,0
0.5,3.3,0,2.99924,-0.0275623,0
0.5,3.4,0,2.99932,-0.026814,0
0.5,3.5,0,2.99858,-0.0243538,0
0.5,3.6,0,2.99902,-0.0250479,0
0.5,3.7,0,2.999,-0.024308,0
0.5,3.8,0,2.9995,-0.0232429,0
0.5,3.9,0,2.99966,-0.0224715,0
0.5,4,0,2.99886,-0.020362,0
0.5,4.1,0,2.99986,-0.0203677,0
0.5,4.2,0,2.99993,-0.0195173,0
0.5,4.3,0,3.00007,-0.018127,0
0.5,4.4,0,3.00012,-0.0172047,0
0.5,4.5,0,2.99909,-0.0157328,0
0.5,4.6,0,2.99993,-0.0145674,0
0.5,4.7,0,2.99981,-0.0135277,0
0.5,4.8,0,2.99907,-0.0117053,0
0.5,4.9,0,2.99878,-0.0108802,0
0.5,5,0,2.99827,-0.010953,0
0.5,5.1,0,2.99757,-0.00956275,0
0.5,5.2,0,2.99705,-0.00873143,0
0.5,5.3,0,2.99653,-0.00791959,0
0.5,5.4,0,2.99603,-0.0071314,0
0.5,5.5,0,2.9956,-0.00636218,0
0.5,5.6,0,2.99527,-0.00560531,0
0.5,5.7,0,2.99505,-0.00485255,0
0.5,5.8,0,2.99495,-0.00409544,0
0.5,5.9,0,2.99495,-0.00332673,0
0.5,6,0,2.99504,-0.00254162,0
0.5,6.1,0,2.99516,-0.00173837,0
0.5,6.2,0,2.9953,-0.00091813,0
0.5,6.3,0,2.99543,-8.42475e-05,0
0.5,6.4,0,2.99554,0.000758547,0
0.5,6.5,0,2.99563,0.00160479,0
0.5,6.6,0,2.99567,0.00244871,0
0.5,6.7,0,2.99568,0.00328412,0
0.5,6.8,0,2.99564,0.00410491,0
0.5,6.9,0,2.9955,0.00489428,0
0.5,7,0,2.99507,0.00624967,0
0.5,7.1,0,2.99015,0.00653732,0
0.5,7.2,0,2.98993,0.0072513,0
0.5,7.3,0,2.99226,0.00842633,0
0.5,7.4,0,2.98966,0.00914871,0
0.5,7.5,0,2.98971,0.00997753,0
0.5,7.6,0,2.99107,0.0108298,0
0.5,7.7,0,2.99129,0.0115515,0
0.5,7.8,0,2.99173,0.0122906,0
0.5,7.9,0,2.99373,0.0132217,0
0.5,8,0,2.99433,0.0139986,0
0.5,8.1,0,2.99493,0.0147755,0
0.5,8.2,0,2.99696,0.0160532,0
0.5,8.3,0,2.99745,0.0168785,0
0.5,8.4,0,2.99801,0.0177401,0
0.5,8.5,0,2.99921,0.0191136,0
0.5,8.6,0,2.9996,0.0199594,0
0.5,8.7,0,2.99947,0.0205968,0
0.5,8.8,0,3.00106,0.0222829,0
0.5,8.9,0,3.00112,0.0230602,0
0.5,9,0,2.9996,0.023194,0
0.5,9.1,0,3.00087,0.0251413,0
0.5,9.2,0,3.001,0.0259011,0
0.5,9.3,0,3.00095,0.0264147,0
0.5,9.4,0,3.0018,0.0279022,0
0.5,9.5,0,3.00187,0.0287304,0
0.5,9.6,0,3.00181,0.0304757,0
0.5,9.7,0,3.00121,0.0308158,0
0.5,9.8,0,3.00061,0.0311559,0
0.5,9.9,0,2.99863,0.0307188,0
0.5,10,0,2.99887,0.0314265,0
0.5,10.1,0,2.9991,0.0321343,0
0.5,10.2,0,3.0007,0.0341116,0
0.5,10.3,0,3.00131,0.0349475,0
0.5,10.4,0,3.00142,0.0347337,0
0.5,10.5,0,3.00234,0.0364268,0
0.5,10.6,0,3.00156,0.0365231,0
0.5,10.7,0,2.99937,0.0342006,0
0.5,10.8,0,2.99829,0.0365486,0
0.5,10.9,0,2.99752,0.0366967,0
0.5,11,0,2.99632,0.0348175,0
0.5,11.1,0,2.99618,0.03707,0
0.5,11.2,0,2.99703,0.038029,0
0.5,11.3,0,2.99938,0.0395605,0
0.5,11.4,0,3.00039,0.0412617,0
0.5,11.5,0,3.00122,0.0422035,0
0.5,11.6,0,3.003,0.0433919,0
0.5,11.7,0,3.00201,0.0432942,0
0.5,11.8,0,3.00102,0.0431964,0
0.5,11.9,0,2.99814,0.0423956,0
0.5,12,0,2.99713,0.042188,0
0.5,12.1,0,2.99614,0.0417946,0
0.5,12.2,0,2.99473,0.0413347,0
0.5,12.3,0,2.9951,0.0418783,0
0.5,12.4,0,2.99619,0.0407993,0
0.5,12.5,0,2.99654,0.0436445,0
0.5,12.6,0,2.99698,0.0441997,0
0.5,12.7,0,2.99795,0.0406783,0
0.6,0,0,2.9983,-0.0442786,0
0.6,0.1,0,2.99722,-0.0558359,0
0.6,0.2,0,2.99801,-0.0512082,0
0.6,0.3,0,2.99955,-0.0512433,0
0.6,0.4,0,3.00042,-0.0557174,0
0.6,0.5,0,2.9995,-0.0444955,0
0.6,0.6,0,3.00037,-0.0553416,0
0.6,0.7,0,2.99936,-0.0504068,0
0.6,0.8,0,2.99591,-0.0482134,0
0.6,0.9,0,2.99372,-0.0508607,0
0.6,1,0,2.9962,-0.0421509,0
0.6,1.1,0,2.99247,-0.0500793,0
0.6,1.2,0,2.99441,-0.0466417,0
0.6,1.3,0,2.99834,-0.0472588,0
0.6,1.4,0,2.99978,-0.0508013,0
0.6,1.5,0,2.9992,-0.0416183,0
0.6,1.6,0,3.00167,-0.0504462,0
0.6,1.7,0,3.00032,-0.0460019,0
0.6,1.8,0,2.99705,-0.0432989,0
0.6,1.9,0,2.99573,-0.0449643,0
0.6,2,0,2.99653,-0.0377392,0
0.6,2.1,0,2.99464,-0.0432849,0
0.6,2.2,0,2.99573,-0.0404136,0
0.6,2.3,0,2.99848,-0.0404731,0
0.6,2.4,0,2.99961,-0.0428825,0
0.6,2.5,0,2.9984,-0.0355437,0
0.6,2.6,0,2.99982,-0.0419445,0
0.6,2.7,0,2.99875,-0.0382237,0
0.6,2.8,0,2.99667,-0.0357153,0
0.6,2.9,0,2.99603,-0.0367796,0
0.6,3,0,2.99693,-0.0315106,0
0.6,3.1,0,2.99822,-0.0369385,0
0.6,3.2,0,2.99808,-0.0339112,0
0.6,3.3,0,2.9988,-0.0323106,0
0.6,3.4,0,2.99967,-0.0334493,0
0.6,3.5,0,2.9973,-0.0275657,0
0.6,3.6,0,2.99868,-0.0311277,0
0.6,3.7,0,2.9981,-0.02857,0
0.6,3.8,0,2.99896,-0.0272574,0
0.6,3.9,0,3.00019,-0.0279325,0
0.6,4,0,2.99746,-0.0231468,0
0.6,4.1,0,3.00033,-0.0248646,0
0.6,4.2,0,2.99921,-0.0228661,0
0.6,4.3,0,2.99941,-0.0210726,0
0.6,4.4,0,3.00074,-0.0206935,0
0.6,4.5,0,2.99756,-0.0181224,0
0.6,4.6,0,3.0003,-0.0167057,0
0.6,4.7,0,2.9991,-0.0157492,0
0.6,4.8,0,2.99792,-0.0132149,0
0.6,4.9,0,2.99806,-0.0112385,0
0.6,5,0,2.99709,-0.0131073,0
0.6,5.1,0,2.99669,-0.0115497,0
0.6,5.2,0,2.99639,-0.0105643,0
0.6,5.3,0,2.99609,-0.00958973,0
0.6,5.4,0,2.99579,-0.0086286,0
0.6,5.5,0,2.99554,-0.00767795,0
0.6,5.6,0,2.99532,-0.006734,0
0.6,5.7,0,2.99517,-0.00579221,0
0.6,5.8,0,2.99509,-0.00484808,0
0.6,5.9,0,2.99506,-0.00389786,0
0.6,6,0,2.99508,-0.00293915,0
0.6,6.1,0,2.99513,-0.00197112,0
0.6,6.2,0,2.9952,-0.00099445,0
0.6,6.3,0,2.99527,-1.10325e-05,0
0.6,6.4,0,2.99533,0.000976446,0
0.6,6.5,0,2.99539,0.00196483,0
0.6,6.6,0,2.99544,0.00295074,0
0.6,6.7,0,2.99547,0.00393054,0
0.6,6.8,0,2.99548,0.00490067,0
0.6,6.9,0,2.99546,0.00585095,0
0.6,7,0,2.99535,0.00740858,0
0.6,7.1,0,2.98103,0.00684358,0
0.6,7.2,0,2.98235,0.00772796,0
0.6,7.3,0,2.99292,0.0098118,0
0.6,7.4,0,2.98025,0.0101297,0
0.6,7.5,0,2.98431,0.0112467,0
0.6,7.6,0,2.99182,0.0125409,0
0.6,7.7,0,2.98385,0.0125983,0
0.6,7.8,0,2.98919,0.0140047,0
0.6,7.9,0,2.99305,0.0151763,0
0.6,8,0,2.98987,0.0153955,0
0.6,8.1,0,2.99409,0.0170656,0
0.6,8.2,0,2.99613,0.0184407,0
0.6,8.3,0,2.99596,0.0192191,0
0.6,8.4,0,2.99712,0.0204262,0
0.6,8.5,0,2.99907,0.0223421,0
0.6,8.6,0,2.9998,0.0234383,0
0.6,8.7,0,2.99816,0.0234663,0
0.6,8.8,0,3.00294,0.0269912,0
0.6,8.9,0,3.00327,0.0279261,0
0.6,9,0,2.99815,0.0263292,0
0.6,9.1,0,3.00214,0.0310968,0
0.6,9.2,0,3.00156,0.0311982,0
0.6,9.3,0,2.9992,0.0295901,0
0.6,9.4,0,3.00427,0.0346566,0
0.6,9.5,0,3.00249,0.0339023,0
0.6,9.6,0,3.00059,0.0341796,0
0.6,9.7,0,3.00389,0.039746,0
0.6,9.8,0,3.00066,0.036467,0
0.6,9.9,0,2.99764,0.0354735,0
0.6,10,0,2.99795,0.0384347,0
0.6,10.1,0,2.99746,0.0357813,0
0.6,10.2,0,3.00058,0.0406879,0
0.6,10.3,0,3.00261,0.0443282,0
0.6,10.4,0,3.00001,0.0384164,0
0.6,10.5,0,3.00439,0.0450671,0
0.6,10.6,0,3.00469,0.0467021,0
0.6,10.7,0,2.99912,0.0386346,0
0.6,10.8,0,2.99795,0.0462946,0
0.6,10.9,0,2.99716,0.0460156,0
0.6,11,0,2.99571,0.0391525,0
0.6,11.1,0,2.99267,0.0451864,0
0.6,11.2,0,2.99403,0.0447113,0
0.6,11.3,0,2.99747,0.0431356,0
0.6,11.4,0,3.00026,0.0520504,0
0.6,11.5,0,3.00045,0.0489855,0
0.6,11.6,0,3.0023,0.0480588,0
0.6,11.7,0,3.00522,0.0554077,0
0.6,11.8,0,3.0021,0.0489654,0
0.6,11.9,0,2.99825,0.0489599,0
0.6,12,0,2.99657,0.0530161,0
0.6,12.1,0,2.99663,0.0455621,0
0.6,12.2,0,2.99296,0.0482088,0
0.6,12.3,0,2.99186,0.0507785,0
0.6,12.4,0,2.99566,0.0435335,0
0.6,12.5,0,2.99482,0.052698,0
0.6,12.6,0,2.99503,0.0544381,0
0.6,12.7,0,2.99709,0.0427635,0
0.7,0,0,2.99847,-0.0471502,0
0.7,0.1,0,2.99711,-0.0610517,0
0.7,0.2,0,2.99805,-0.0544522,0
0.7,0.3,0,2.9996,-0.0544874,0
0.7,0.4,0,3.00015,-0.0614002,0
0.7,0.5,0,2.99894,-0.0479545,0
0.7,0.6,0,3.00002,-0.0610563,0
0.7,0.7,0,2.99822,-0.0538802,0
0.7,0.8,0,2.99477,-0.0516868,0
0.7,0.9,0,2.99246,-0.0564006,0
0.7,1,0,2.99565,-0.04611,0
0.7,1.1,0,2.99118,-0.0557071,0
0.7,1.2,0,2.99466,-0.0511247,0
0.7,1.3,0,2.99859,-0.0517418,0
0.7,1.4,0,2.99967,-0.0569994,0
0.7,1.5,0,2.99874,-0.045989,0
0.7,1.6,0,3.00167,-0.0566861,0
0.7,1.7,0,2.99885,-0.05006,0
0.7,1.8,0,2.99558,-0.047357,0
0.7,1.9,0,2.99437,-0.0504466,0
0.7,2,0,2.99551,-0.0419658,0
0.7,2.1,0,2.99326,-0.0487293,0
0.7,2.2,0,2.99545,-0.0448198,0
0.7,2.3,0,2.9982,-0.0448793,0
0.7,2.4,0,2.99924,-0.048325,0
0.7,2.5,0,2.99767,-0.0395603,0
0.7,2.6,0,2.9994,-0.0473786,0
0.7,2.7,0,2.99752,-0.0419097,0
0.7,2.8,0,2.99545,-0.0394012,0
0.7,2.9,0,2.9949,-0.0414637,0
0.7,3,0,2.99604,-0.0352987,0
0.7,3.1,0,2.99754,-0.0419089,0
0.7,3.2,0,2.99712,-0.0374015,0
0.7,3.3,0,2.99783,-0.0358008,0
0.7,3.4,0,2.99887,-0.0376882,0
0.7,3.5,0,2.99601,-0.0307775,0
0.7,3.6,0,2.99767,-0.0351999,0
0.7,3.7,0,2.99684,-0.03162,0
0.7,3.8,0,2.9977,-0.0303074,0
0.7,3.9,0,2.99937,-0.03152,0
0.7,4,0,2.99606,-0.0259315,0
0.7,4.1,0,2.99949,-0.0281629,0
0.7,4.2,0,2.99771,-0.0254495,0
0.7,4.3,0,2.99791,-0.023656,0
0.7,4.4,0,2.99986,-0.0234129,0
0.7,4.5,0,2.99604,-0.020512,0
0.7,4.6,0,2.99934,-0.0190198,0
0.7,4.7,0,2.99767,-0.0180262,0
0.7,4.8,0,2.99649,-0.0154919,0
0.7,4.9,0,2.99702,-0.0128541,0
0.7,5,0,2.99592,-0.0152617,0
0.7,5.1,0,2.99581,-0.0135366,0
0.7,5.2,0,2.99573,-0.0123972,0
0.7,5.3,0,2.99564,-0.0112599,0
0.7,5.4,0,2.99555,-0.0101258,0
0.7,5.5,0,2.99547,-0.00899372,0
0.7,5.6,0,2.99538,-0.0078627,0
0.7,5.7,0,2.9953,-0.00673187,0
0.7,5.8,0,2.99523,-0.00560071,0
0.7,5.9,0,2.99517,-0.004469,0
0.7,6,0,2.99513,-0.00333668,0
0.7,6.1,0,2.99511,-0.00220387,0
0.7,6.2,0,2.9951,-0.00107077,0
0.7,6.3,0,2.99511,6.21825e-05,0
0.7,6.4,0,2.99513,0.00119435,0
0.7,6.5,0,2.99516,0.00232486,0
0.7,6.6,0,2.9952,0.00345278,0
0.7,6.7,0,2.99526,0.00457695,0
0.7,6.8,0,2.99533,0.00569644,0
0.7,6.9,0,2.99542,0.00680762,0
0.7,7,0,2.99562,0.00856749,0
0.7,7.1,0,2.98056,0.00793517,0
0.7,7.2,0,2.98301,0.00911344,0
0.7,7.3,0,2.99357,0.0111973,0
0.7,7.4,0,2.97773,0.0113875,0
0.7,7.5,0,2.98506,0.0129577,0
0.7,7.6,0,2.99256,0.0142519,0
0.7,7.7,0,2.98048,0.0139979,0
0.7,7.8,0,2.98952,0.016108,0
0.7,7.9,0,2.99338,0.0172796,0
0.7,8,0,2.98762,0.0172389,0
0.7,8.1,0,2.99379,0.019491,0
0.7,8.2,0,2.99583,0.0208661,0
0.7,8.3,0,2.99479,0.0217416,0
0.7,8.4,0,2.99623,0.0231123,0
0.7,8.5,0,2.99818,0.0250282,0
0.7,8.6,0,2.99885,0.0264521,0
0.7,8.7,0,2.99684,0.0263358,0
0.7,8.8,0,3.00163,0.0298607,0
0.7,8.9,0,3.00183,0.0310613,0
0.7,9,0,2.99671,0.0294643,0
0.7,9.1,0,3.00112,0.0346773,0
0.7,9.2,0,2.99981,0.0343736,0
0.7,9.3,0,2.99746,0.0327655,0
0.7,9.4,0,3.00419,0.0392447,0
0.7,9.5,0,3.00105,0.0373159,0
0.7,9.6,0,2.99916,0.0375933,0
0.7,9.7,0,3.00457,0.0459736,0
0.7,9.8,0,2.99964,0.0403036,0
0.7,9.9,0,2.99662,0.0393101,0
0.7,10,0,2.99673,0.0437184,0
0.7,10.1,0,2.99577,0.0392415,0
0.7,10.2,0,2.99889,0.0441481,0
0.7,10.3,0,3.00227,0.0502601,0
0.7,10.4,0,2.9986,0.0420991,0
0.7,10.5,0,3.00298,0.0487498,0
0.7,10.6,0,3.00498,0.0520432,0
0.7,10.7,0,2.99887,0.0430687,0
0.7,10.8,0,2.9977,0.0507287,0
0.7,10.9,0,2.99654,0.0503506,0
0.7,11,0,2.99509,0.0434876,0
0.7,11.1,0,2.99137,0.050417,0
0.7,11.2,0,2.99213,0.0482863,0
0.7,11.3,0,2.99557,0.0467106,0
0.7,11.4,0,2.99919,0.0590425,0
0.7,11.5,0,2.99916,0.0525242,0
0.7,11.6,0,3.00102,0.0515974,0
0.7,11.7,0,3.00656,0.0633472,0
0.7,11.8,0,3.0026,0.0530425,0
0.7,11.9,0,2.99876,0.053037,0
0.7,12,0,2.99654,0.0603303,0
0.7,12.1,0,2.99713,0.0493296,0
0.7,12.2,0,2.99346,0.0519763,0
0.7,12.3,0,2.99048,0.0554598,0
0.7,12.4,0,2.99513,0.0462677,0
0.7,12.5,0,2.99429,0.0554322,0
0.7,12.6,0,2.99408,0.0571669,0
0.7,12.7,0,2.99622,0.0448486,0
0.8,0,0,2.99864,-0.0500219,0
0.8,0.1,0,2.99792,-0.0579704,0
0.8,0.2,0,2.99809,-0.0576963,0
0.8,0.3,0,2.99964,-0.0577314,0
0.8,0.4,0,2.99926,-0.058757,0
0.8,0.5,0,2.99837,-0.0514134,0
0.8,0.6,0,2.99841,-0.0585117,0
0.8,0.7,0,2.99708,-0.0573536,0
0.8,0.8,0,2.99362,-0.0551602,0
0.8,0.9,0,2.99335,-0.0557557,0
0.8,1,0,2.99511,-0.0500691,0
0.8,1.1,0,2.99325,-0.0556356,0
0.8,1.2,0,2.99491,-0.0556077,0
0.8,1.3,0,2.99884,-0.0562248,0
0.8,1.4,0,2.99884,-0.0565865,0
0.8,1.5,0,2.99827,-0.0503596,0
0.8,1.6,0,2.99918,-0.0558221,0
0.8,1.7,0,2.99739,-0.0541181,0
0.8,1.8,0,2.99412,-0.0514151,0
0.8,1.9,0,2.99391,-0.05119,0