/*--------------------------------*- C++ -*----------------------------------*\
| =========                 |                                                 |
| \\      /  F ield         | OpenFOAM: The Open Source CFD Toolbox           |
|  \\    /   O peration     | Version:  v1806                                 |
|   \\  /    A nd           | Web:      www.OpenFOAM.com                      |
|    \\/     M anipulation  |                                                 |
\*---------------------------------------------------------------------------*/
FoamFile
{
    version     2.0;
    format      ascii;
    class       surfaceScalarField;
    location    "130";
    object      phi;
}
// * * * * * * * * * * * * * * * * * * * * * * * * * * * * * * * * * * * * * //

dimensions      [0 3 -1 0 0 0 0];
oriented        oriented;


internalField   nonuniform List<scalar> 
4680
(
0.105001
-7.95117e-05
0.105011
-9.237e-05
0.104994
-0.000622935
0.104961
-0.00133533
0.104979
-0.000721223
0.105024
-0.000656316
0.104972
-0.00213558
0.104869
-0.00415786
0.104845
-0.00351418
0.104934
-0.00327587
0.104886
-0.00528748
0.104701
-0.00973753
0.104489
-0.0115708
0.104444
-0.0131337
0.104367
-0.0155168
0.104135
-0.0220647
0.103703
-0.0278093
0.103141
-0.0347484
0.102508
-0.0412504
-0.0490545
0.101483
0.105
-7.98748e-05
0.10501
-0.000102011
0.104989
-0.000602291
0.104949
-0.00129527
0.104963
-0.000734585
0.105005
-0.000698765
0.104944
-0.002074
0.104829
-0.004043
0.104779
-0.00346495
0.104858
-0.00335484
0.104784
-0.0052133
0.104584
-0.00953691
0.104308
-0.0112951
0.104232
-0.0130583
0.104078
-0.0153624
0.103822
-0.0218089
0.103287
-0.0272737
0.10268
-0.0341418
0.101853
-0.0404235
-0.0480235
0.100822
0.104999
-7.92316e-05
0.105008
-0.00011066
0.104983
-0.000577533
0.104937
-0.00124948
0.104942
-0.000739558
0.104979
-0.000735493
0.104905
-0.00200001
0.104775
-0.00391283
0.104695
-0.00338472
0.104755
-0.00341548
0.104645
-0.00510251
0.104419
-0.00931178
0.104067
-0.0109422
0.103945
-0.0129372
0.103691
-0.0151084
0.1034
-0.0215178
0.102749
-0.0266226
0.102121
-0.0335133
0.101267
-0.0395694
-0.046931
0.100174
0.104998
-7.76744e-05
0.105005
-0.000117413
0.104977
-0.000549836
0.104927
-0.00119854
0.104922
-0.000734792
0.10495
-0.000763197
0.104864
-0.0019146
0.10472
-0.00376854
0.104607
-0.00327163
0.104642
-0.00345032
0.104491
-0.00495162
0.10424
-0.009061
0.103809
-0.0105118
0.103635
-0.0127625
0.103272
-0.0147457
0.102942
-0.0211879
0.102177
-0.0258571
0.101541
-0.0328771
0.100587
-0.038616
-0.0458407
0.099497
0.104998
-7.52156e-05
0.105002
-0.000121971
0.104972
-0.000519947
0.104916
-0.00114271
0.104902
-0.000719982
0.104919
-0.000780435
0.104823
-0.00181899
0.104665
-0.00361066
0.10452
-0.00312628
0.104526
-0.00345637
0.104334
-0.00475915
0.104056
-0.0087837
0.103551
-0.0100061
0.103321
-0.0125334
0.102846
-0.0142701
0.102476
-0.0208183
0.101594
-0.0249745
0.100963
-0.0322468
0.0999496
-0.0376022
-0.0448209
0.0989298
0.104997
-7.19318e-05
0.104999
-0.00012414
0.104967
-0.000488352
0.104907
-0.00108211
0.104882
-0.000695654
0.104888
-0.000786343
0.104783
-0.001714
0.104612
-0.00343923
0.104437
-0.00295157
0.104413
-0.00343229
0.104178
-0.00452407
0.103873
-0.00847843
0.103296
-0.00942909
0.103014
-0.0122517
0.102422
-0.0136784
0.102012
-0.0204081
0.101005
-0.0239673
0.1004
-0.0316416
0.0993143
-0.0365168
-0.0438958
0.0983892
0.104996
-6.79249e-05
0.104996
-0.000123846
0.104963
-0.000455374
0.104897
-0.00101664
0.104864
-0.000662835
0.104858
-0.000780347
0.104745
-0.0016004
0.104559
-0.00325386
0.104359
-0.00275136
0.104304
-0.00337711
0.104027
-0.00424656
0.103692
-0.00814343
0.103047
-0.00878483
0.102715
-0.0119189
0.102005
-0.0129688
0.101552
-0.0199551
0.100412
-0.0228279
0.0998461
-0.0310753
0.0986779
-0.0353486
-0.0431213
0.0979034
0.104995
-6.33201e-05
0.104993
-0.000121104
0.104958
-0.000421204
0.104888
-0.000946067
0.104848
-0.000622893
0.10483
-0.000762084
0.104708
-0.00147912
0.104508
-0.00305359
0.104287
-0.00253
0.1042
-0.00328984
0.103881
-0.00392846
0.103514
-0.00777625
0.102807
-0.00807768
0.102424
-0.0115354
0.101595
-0.0121401
0.101096
-0.0194559
0.0998147
-0.021547
0.0992978
-0.0305584
0.0980298
-0.0340806
-0.0425553
0.0974638
0.104995
-5.82547e-05
0.10499
-0.00011597
0.104955
-0.000385957
0.104879
-0.00087018
0.104833
-0.000577382
0.104802
-0.000731251
0.104675
-0.00135138
0.104458
-0.00283701
0.10422
-0.00229235
0.1041
-0.003169
0.103745
-0.00357346
0.103342
-0.00737344
0.102577
-0.00731266
0.102141
-0.0110994
0.101193
-0.0111926
0.100642
-0.0189049
0.0992095
-0.0201143
0.0987474
-0.0300963
0.0973566
-0.0326898
-0.0422698
0.0970711
0.104995
-5.28591e-05
0.104987
-0.000108529
0.104951
-0.000349743
0.10487
-0.000788826
0.10482
-0.000527869
0.104776
-0.000687549
0.104644
-0.00121877
0.104409
-0.00260239
0.104161
-0.00204375
0.104004
-0.0030122
0.103618
-0.00318753
0.103174
-0.00692998
0.102358
-0.00649651
0.101865
-0.0106066
0.100801
-0.010128
0.10019
-0.0182941
0.0985944
-0.0185186
0.0981859
-0.0296879
0.0966434
-0.0311472
-0.042354
0.0967276
0.104994
-4.72386e-05
0.104985
-9.89021e-05
0.104948
-0.000312674
0.104861
-0.000701974
0.104809
-0.000475813
0.104752
-0.000630741
0.104616
-0.00108328
0.104362
-0.00234773
0.104108
-0.00179005
0.103912
-0.00281594
0.103504
-0.00277932
0.103012
-0.00643843
0.102155
-0.00563918
0.101597
-0.010049
0.10042
-0.00895111
0.099738
-0.0176119
0.0979663
-0.0167469
0.0976034
-0.029325
0.0958725
-0.0294163
-0.042919
0.0964375
0.104994
-4.1458e-05
0.104983
-8.72733e-05
0.104945
-0.000274852
0.104853
-0.00060976
0.104799
-0.000422455
0.104729
-0.000560759
0.104593
-0.0009471
0.104316
-0.00207097
0.104064
-0.00153761
0.103823
-0.00257545
0.103405
-0.00236047
0.102854
-0.00588785
0.101971
-0.00475602
0.101333
-0.00941163
0.100055
-0.00767318
0.0992846
-0.016841
0.0973221
-0.0147844
0.096991
-0.0289939
0.0950215
-0.0274468
-0.0441043
0.0962068
0.104994
-3.55311e-05
0.104981
-7.39164e-05
0.104942
-0.000236323
0.104845
-0.000512555
0.104791
-0.000368699
0.104708
-0.000477902
0.104574
-0.000812352
0.104273
-0.00177027
0.104028
-0.00129297
0.103738
-0.00228503
0.103323
-0.00194575
0.102698
-0.00526283
0.101812
-0.00387028
0.10107
-0.00866917
0.0997153
-0.00631853
0.0988252
-0.0159509
0.0966613
-0.0126206
0.0963427
-0.0286753
0.0940561
-0.0251602
-0.0460957
0.0960476
0.104994
-2.9413e-05
0.104979
-5.92214e-05
0.10494
-0.000197022
0.104838
-0.000411037
0.104785
-0.000314967
0.10469
-0.00038311
0.104558
-0.000680563
0.104233
-0.00144477
0.104001
-0.00106183
0.103656
-0.00193919
0.103262
-0.00155184
0.102543
-0.00454377
0.101688
-0.00301524
0.100798
-0.00777975
0.0994144
-0.00493475
0.0983459
-0.0148824
0.0959925
-0.0102672
0.0956524
-0.0283352
0.0929208
-0.0224286
-0.0491752
0.0960002
0.104994
-2.29993e-05
0.104978
-4.3712e-05
0.104938
-0.000156727
0.104833
-0.00030628
0.104779
-0.000261034
0.104674
-0.000278303
0.104546
-0.000552061
0.104197
-0.00109554
0.103982
-0.000847498
0.103578
-0.00153518
0.103219
-0.00119311
0.102387
-0.00371142
0.101604
-0.00223219
0.100506
-0.00668176
0.0991755
-0.0036042
0.0978128
-0.0135196
0.0953451
-0.00779955
0.0948887
-0.0278788
0.0915445
-0.0190844
-0.0538332
0.0962026
0.104993
-1.61343e-05
0.104977
-2.8043e-05
0.104936
-0.000115024
0.104829
-0.000199793
0.104774
-0.000205905
0.104663
-0.000166685
0.104536
-0.000425333
0.104167
-0.00072685
0.103968
-0.00064887
0.10351
-0.00107686
0.103193
-0.000876155
0.102239
-0.00275701
0.101557
-0.00155043
0.100197
-0.00532173
0.099032
-0.00243922
0.0971557
-0.0116433
0.0947788
-0.00542264
0.0939243
-0.0270243
0.0898892
-0.0150493
-0.0609719
0.0970279
0.104992
-8.63237e-06
0.104977
-1.29663e-05
0.104934
-7.13396e-05
0.104827
-9.34935e-05
0.104769
-0.000147837
0.104656
-5.28415e-05
0.104527
-0.000296637
0.104147
-0.000347038
0.103957
-0.000458556
0.103458
-0.000578437
0.103175
-0.00059328
0.102112
-0.00169398
0.101533
-0.0009714
0.0998964
-0.00368474
0.0989666
-0.00150947
0.0963862
-0.00906288
0.0943792
-0.00341565
0.092426
-0.0250711
0.0880613
-0.0106846
-0.0719765
0.0990658
0.104992
-3.18316e-07
0.104978
7.55213e-07
0.104932
-2.50553e-05
0.104828
1.04957e-05
0.104764
-8.46119e-05
0.104654
5.76235e-05
0.104518
-0.00016037
0.104139
3.18335e-05
0.103943
-0.00026282
0.10343
-6.55563e-05
0.103156
-0.000318872
0.102029
-0.000567609
0.101509
-0.000451137
0.0996555
-0.00183106
0.0989209
-0.000774855
0.0956104
-0.00575242
0.0942564
-0.00206165
0.0898216
-0.0206362
0.0864214
-0.00728444
-0.0873893
0.101834
0.104991
8.89995e-06
0.104979
1.24977e-05
0.10493
2.43002e-05
0.10483
0.000110152
0.104759
-1.40311e-05
0.104658
0.000158927
0.104508
-1.03814e-05
0.104144
0.000396161
0.103926
-4.48405e-05
0.10343
0.000429933
0.103127
-1.57992e-05
0.102007
0.000553087
0.10146
9.52575e-05
0.0995392
8.99833e-05
0.0988215
-5.72019e-05
0.0950494
-0.00198036
0.0939801
-0.000992338
0.0867649
-0.013421
0.0854864
-0.00600603
-0.102014
0.100111
0.10499
1.89367e-05
0.10498
2.22979e-05
0.104928
7.69543e-05
0.104834
0.000203301
0.104753
6.73212e-05
0.104669
0.000242777
0.104494
0.000164622
0.104166
0.000724092
0.103896
0.000225368
0.103471
0.000855207
0.103071
0.000383574
0.102068
0.00155632
0.101348
0.000815582
0.0996153
0.00182249
0.0985711
0.000986979
0.094995
0.00159572
0.0931892
0.000813511
0.0844968
-0.00472854
0.0844182
-0.00592748
0.0785338
-0.0961299
0.101299
-0.00508333
0.101178
-0.00519077
0.101048
-0.00526658
0.100912
-0.00534384
0.100769
-0.00542182
0.10062
-0.0055003
0.100464
-0.00557932
0.100302
-0.00565903
0.100135
-0.00573956
-0.00582161
0.0999638
0.10074
-0.00500127
0.100601
-0.00505148
0.100456
-0.00512216
0.100305
-0.00519253
0.100146
-0.00526293
0.0999793
-0.00533342
0.0998039
-0.00540394
0.0996192
-0.00547439
0.0994243
-0.00554464
-0.00561432
0.099217
0.100008
-0.00483498
0.0998663
-0.00490999
0.0997187
-0.00497452
0.0995651
-0.00503897
0.0994055
-0.00510326
0.0992394
-0.00516735
0.0990667
-0.00523123
0.0988872
-0.0052949
0.0987009
-0.00535838
-0.00542181
0.0985084
0.09938
-0.00471802
0.099245
-0.00477499
0.0991043
-0.00483379
0.0989574
-0.00489207
0.0988039
-0.00494982
0.0986436
-0.00500702
0.098476
-0.00506365
0.0983008
-0.00511968
0.0981175
-0.0051751
-0.00522982
0.0979255
0.0988024
-0.00459058
0.0986733
-0.00464588
0.0985386
-0.00469913
0.0983981
-0.00475154
0.0982514
-0.00480314
0.0980983
-0.00485394
0.0979386
-0.00490389
0.0977719
-0.00495301
0.0975981
-0.0050013
-0.00504878
0.0974171
0.0982776
-0.00447896
0.0981603
-0.00452866
0.0980378
-0.00457657
0.0979095
-0.00462329
0.0977753
-0.00466889
0.0976347
-0.00471332
0.0974873
-0.00475658
0.097333
-0.00479867
0.0971713
-0.0048396
-0.00487939
0.0970019
0.0978074
-0.00438292
0.0977061
-0.00442738
0.0975995
-0.00446992
0.0974871
-0.00451089
0.0973685
-0.00455038
0.0972436
-0.00458836
0.0971118
-0.00462482
0.096973
-0.00465979
0.0968267
-0.0046933
-0.0047254
0.0966727
0.0973889
-0.00430799
0.0973085
-0.00434699
0.0972226
-0.004384
0.0971307
-0.004419
0.0970324
-0.00445214
0.0969275
-0.00448338
0.0968153
-0.0045127
0.0966957
-0.00454015
0.0965682
-0.0045658
-0.00458972
0.0964325
0.0970233
-0.00426023
0.0969696
-0.00429325
0.0969099
-0.00432428
0.0968437
-0.00435281
0.0967706
-0.00437905
0.0966901
-0.00440292
0.0966019
-0.00442442
0.0965053
-0.00444362
0.0964002
-0.00446065
-0.00447559
0.096286
0.0967141
-0.00424676
0.0966937
-0.00427285
0.0966665
-0.00429708
0.096632
-0.00431826
0.0965895
-0.00433664
0.0965387
-0.00435211
0.096479
-0.00436467
0.0964098
-0.00437445
0.0963308
-0.00438162
-0.00438632
0.0962415
0.0964666
-0.00427591
0.0964875
-0.00429369
0.0965002
-0.00430982
0.0965042
-0.00432225
0.0964989
-0.00433129
0.0964835
-0.00433679
0.0964576
-0.00433876
0.0964206
-0.0043374
0.0963719
-0.00433294
-0.0043256
0.0963112
0.0962886
-0.00435772
0.0963604
-0.00436547
0.0964222
-0.00437162
0.0964733
-0.00437334
0.096513
-0.004371
0.0965406
-0.00436437
0.0965553
-0.00435348
0.0965566
-0.00433863
0.0965438
-0.00432016
-0.00429837
0.0965166
0.0961962
-0.00450637
0.0963322
-0.00450148
0.096456
-0.00449538
0.0965666
-0.00448398
0.0966633
-0.00446764
0.096745
-0.00444607
0.0968108
-0.00441935
0.0968601
-0.00438791
0.0968922
-0.00435222
-0.00431271
0.0969065
0.09624
-0.00474613
0.0964627
-0.00472422
0.0966702
-0.00470287
0.0968613
-0.00467512
0.097035
-0.00464127
0.0971898
-0.00460092
0.0973246
-0.00455417
0.0974384
-0.00450161
0.09753
-0.00444388
-0.00438151
0.0975988
0.0965797
-0.00512323
0.0969286
-0.00507317
0.0972565
-0.00503069
0.0975614
-0.00498007
0.0978419
-0.00492171
0.098096
-0.00485504
0.098322
-0.0047802
0.0985183
-0.00469793
0.0986835
-0.00460908
-0.0045146
0.0988166
0.0975758
-0.00567112
0.0980945
-0.00559192
0.0985796
-0.00551581
0.0990271
-0.00542755
0.0994336
-0.00532818
0.0997958
-0.00521725
0.100111
-0.00509508
0.100375
-0.00496273
0.100588
-0.00482136
-0.00467201
0.100745
0.0997011
-0.00630636
0.10034
-0.0062307
0.100908
-0.0060839
0.101407
-0.00592643
0.101833
-0.00575444
0.102182
-0.0055658
0.102448
-0.0053617
0.10263
-0.00514461
0.102725
-0.00491651
-0.00468034
0.102734
0.102519
-0.0069913
0.102904
-0.00661587
0.103146
-0.00632555
0.10325
-0.00603036
0.10322
-0.00572424
0.103059
-0.00540527
0.102772
-0.0050743
0.102361
-0.00473376
0.10183
-0.00438578
-0.00403109
0.101181
0.0993751
-0.00625487
0.0985105
-0.00575127
0.0974226
-0.0052377
0.0961511
-0.00475887
0.0947265
-0.00429961
0.0931835
-0.00386228
0.0915582
-0.00344903
0.0898806
-0.0030561
0.0881609
-0.0026661
-0.00221823
0.086348
0.0722789
0.0665276
0.0612899
0.056531
0.0522314
0.0483692
0.0449201
0.041864
0.0391979
0.0369797
0.0996204
-0.0103715
0.0992382
-0.0106147
0.0988242
-0.0108626
0.0983737
-0.0111101
0.097885
-0.0113581
0.0973565
-0.0116059
0.096786
-0.0118526
0.0961713
-0.0120972
0.0955103
-0.0123386
0.0948012
-0.0125757
0.0940425
-0.0128072
0.093233
-0.0130315
0.0923721
-0.013247
0.0914605
-0.0134514
0.0904994
-0.0136433
0.0894948
-0.0138193
0.0884521
-0.0139799
0.0873976
-0.0141208
0.0863488
-0.0142482
-0.014398
0.0988447
-0.00999919
0.0984471
-0.0102171
0.098018
-0.0104335
0.0975573
-0.0106494
0.0970627
-0.0108635
0.0965321
-0.0110754
0.0959641
-0.0112846
0.0953576
-0.0114906
0.0947117
-0.0116926
0.0940256
-0.0118897
0.0932992
-0.0120808
0.0925325
-0.0122648
0.0917261
-0.0124406
0.0908812
-0.0126066
0.0899995
-0.0127615
0.0890838
-0.0129035
0.0881346
-0.0130308
0.0871559
-0.0131421
0.0861347
-0.013227
-0.013299
0.0981463
-0.00963711
0.0977555
-0.00982629
0.0973358
-0.0100138
0.096885
-0.0101986
0.0964022
-0.0103807
0.0958867
-0.0105598
0.0953374
-0.0107353
0.0947536
-0.0109069
0.0941349
-0.0110739
0.093481
-0.0112357
0.0927918
-0.0113916
0.0920678
-0.0115408
0.0913096
-0.0116824
0.0905186
-0.0118156
0.0896964
-0.0119393
0.0888453
-0.0120525
0.0879693
-0.0121548
0.0870727
-0.0122454
0.0861688
-0.0123231
-0.012411
0.0975721
-0.00928369
0.097193
-0.00944716
0.0967862
-0.009607
0.096351
-0.00976343
0.0958864
-0.0099161
0.0953915
-0.0100648
0.0948655
-0.0102094
0.0943081
-0.0103495
0.0937189
-0.0104847
0.093098
-0.0106148
0.0924456
-0.0107392
0.0917621
-0.0108574
0.0910486
-0.0109689
0.090306
-0.011073
0.089536
-0.0111693
0.0887405
-0.0112569
0.0879212
-0.0113355
0.0870798
-0.0114041
0.0862162
-0.0114595
-0.0115095
0.0970806
-0.00894728
0.0967187
-0.00908526
0.0963304
-0.00921868
0.0959145
-0.00934751
0.0954702
-0.0094718
0.0949969
-0.0095915
0.094494
-0.00970657
0.0939615
-0.00981688
0.093399
-0.00992232
0.0928069
-0.0100227
0.0921855
-0.0101178
0.0915355
-0.0102073
0.0908576
-0.010291
0.0901531
-0.0103685
0.0894233
-0.0104395
0.0886696
-0.0105033
0.0878943
-0.0105602
0.087099
-0.0106087
0.0862892
-0.0106497
-0.0106893
0.096687
-0.00863236
0.096347
-0.00874528
0.0959807
-0.00885237
0.0955872
-0.00895403
0.0951658
-0.00905042
0.0947161
-0.00914172
0.0942376
-0.00922807
0.0937302
-0.00930956
0.0931942
-0.00938627
0.0926297
-0.00945822
0.0920373
-0.00952539
0.0914177
-0.00958771
0.0907718
-0.00964511
0.0901007
-0.00969737
0.0894057
-0.00974452
0.0886884
-0.00978595
0.0879505
-0.00982234
0.0871935
-0.00985175
0.0864203
-0.00987649
-0.00989392
0.096384
-0.00834371
0.0960697
-0.00843095
0.0957286
-0.00851123
0.0953597
-0.00858521
0.0949626
-0.00865332
0.0945369
-0.00871594
0.0940822
-0.00877343
0.0935988
-0.0088261
0.0930867
-0.00887421
0.0925464
-0.00891798
0.0919787
-0.00895759
0.0913841
-0.00899317
0.0907638
-0.00902481
0.0901189
-0.00905249
0.0894508
-0.00907641
0.0887609
-0.00909605
0.0880511
-0.00911248
0.0873225
-0.00912322
0.0865791
-0.00913307
-0.00913384
0.0961749
-0.0080861
0.0958902
-0.00814623
0.0955771
-0.00819819
0.095235
-0.00824308
0.0948632
-0.00828157
0.0944616
-0.0083143
0.09403
-0.00834187
0.0935687
-0.00836481
0.0930781
-0.0083836
0.0925588
-0.00839867
0.0920116
-0.00841037
0.0914375
-0.00841901
0.0908375
-0.00842487
0.0902131
-0.00842805
0.0895656
-0.00842895
0.0888967
-0.00842712
0.0882082
-0.00842398
0.0875015
-0.00841649
0.08678
-0.00841165
-0.00839432
0.0960642
-0.00786424
0.0958126
-0.00789466
0.0955301
-0.00791569
0.095216
-0.00792895
0.0948698
-0.00793542
0.0944916
-0.00793605
0.0940814
-0.00793172
0.0936398
-0.0079232
0.0931674
-0.00791121
0.0926651
-0.00789636
0.092134
-0.0078792
0.0915751
-0.0078602
0.0909901
-0.00783978
0.0903802
-0.00781819
0.0897472
-0.00779597
0.0890928
-0.00777269
0.0884189
-0.00775015
0.0877271
-0.00772459
0.0870209
-0.00770548
-0.00767101
0.0960601
-0.00768286
0.0958451
-0.00767963
0.0955952
-0.00766583
0.09531
-0.00764371
0.0949892
-0.00761466
0.0946332
-0.00758001
0.0942424
-0.00754094
0.0938177
-0.00749851
0.0933602
-0.00745365
0.092871
-0.00740717
0.0923516
-0.00735979
0.0918035
-0.00731208
0.0912283
-0.00726461
0.0906278
-0.0072177
0.0900038
-0.00717202
0.0893582
-0.00712708
0.0886932
-0.00708512
0.08801
-0.00704143
0.0873127
-0.00700816
-0.00695612
0.0961755
-0.00754716
0.0960007
-0.00750481
0.0957856
-0.00745081
0.0955302
-0.00738827
0.0952347
-0.00731912
0.0948997
-0.00724509
0.0945265
-0.0071677
0.0941163
-0.00708828
0.0936706
-0.00700795
0.0931911
-0.00692768
0.0926796
-0.0068483
0.092138
-0.00677045
0.0915681
-0.00669478
0.090972
-0.00662158
0.0903516
-0.00655166
0.0897089
-0.00648431
0.0890461
-0.00642231
0.0883643
-0.00635964
0.0876679
-0.00631179
-0.00624081
0.0964338
-0.00746437
0.0963046
-0.00737566
0.0961283
-0.00727444
0.0959049
-0.00716496
0.0956356
-0.00704982
0.0953218
-0.00693123
0.0949651
-0.00681101
0.0945675
-0.0066907
0.0941311
-0.00657152
0.0936579
-0.00645452
0.0931501
-0.00634053
0.0926099
-0.0062302
0.0920392
-0.00612414
0.0914403
-0.00602258
0.090815
-0.0059264
0.0901653
-0.00583458
0.0894935
-0.00575055
0.0888004
-0.00566655
0.088091
-0.00560242
-0.00550905
0.096889
-0.00744684
0.0968153
-0.00730194
0.0966845
-0.00714373
0.0964978
-0.0069782
0.0962567
-0.00680877
0.0959637
-0.00663818
0.0956212
-0.00646849
0.0952318
-0.0063013
0.0947981
-0.00613783
0.0943226
-0.00597905
0.0938078
-0.00582571
0.0932559
-0.00567832
0.0926692
-0.00553741
0.0920497
-0.00540307
0.0913995
-0.00527622
0.0907205
-0.00515555
0.0900151
-0.00504523
0.0892841
-0.00493548
0.0885331
-0.00485149
-0.00473039
0.0976643
-0.00751237
0.0976574
-0.00729496
0.0975773
-0.00706364
0.097426
-0.0068269
0.0972064
-0.00658922
0.0969221
-0.00635384
0.0965765
-0.00612293
0.0961733
-0.00589804
0.0957158
-0.00568031
0.0952072
-0.00547053
0.0946507
-0.00526921
0.094049
-0.00507662
0.0934047
-0.00489309
0.0927202
-0.00471859
0.091998
-0.004554
0.0912404
-0.00439792
0.0904503
-0.0042551
0.0896291
-0.0041143
0.0887833
-0.00400576
-0.0038526
0.0989685
-0.00766425
0.0990143
-0.00734079
0.0989555
-0.00700484
0.0987973
-0.00666867
0.0985462
-0.00633819
0.0982087
-0.00601631
0.0977905
-0.00570474
0.0972973
-0.00540486
0.0967347
-0.00511769
0.0961079
-0.00484368
0.0954216
-0.00458289
0.0946801
-0.00433516
0.0938875
-0.00410046
0.0930475
-0.00387861
0.0921636
-0.00367011
0.0912396
-0.00347395
0.090279
-0.00329452
0.0892862
-0.00312146
0.0882666
-0.00298613
-0.00280588
0.100894
-0.0078126
0.10087
-0.00731686
0.100682
-0.00681718
0.100348
-0.006335
0.0998864
-0.00587634
0.0993109
-0.00544079
0.098634
-0.00502786
0.0978672
-0.00463803
0.0970209
-0.00427136
0.0961043
-0.00392709
0.0951254
-0.00360406
0.0940914
-0.00330111
0.0930083
-0.00301742
0.0918823
-0.00275251
0.0907181
-0.00250597
0.0895217
-0.00227753
0.0882968
-0.00206963
0.087052
-0.00187669
0.0857877
-0.00172177
-0.00153651
0.102516
-0.00759471
0.102031
-0.00683226
0.101317
-0.00610268
0.100415
-0.00543352
0.0993645
-0.00482573
0.098194
-0.00427025
0.0969295
-0.00376338
0.0955935
-0.00330206
0.0942043
-0.0028821
0.0927761
-0.00249887
0.0913202
-0.00214822
0.0898459
-0.00182677
0.0883602
-0.00153179
0.0868684
-0.00126064
0.0853743
-0.0010119
0.0838827
-0.000785926
0.0823959
-0.000582834
0.080923
-0.000403818
0.0794578
-0.000256503
-0.000112333
0.0996971
-0.00611084
0.097945
-0.00508008
0.0960293
-0.00418707
0.0940122
-0.00341636
0.091941
-0.0027546
0.0898392
-0.00216835
0.0877421
-0.00166634
0.0856782
-0.00123812
0.0836674
-0.000871323
0.0817231
-0.000554579
0.0798527
-0.000277858
0.0780571
-3.1166e-05
0.0763444
0.000180902
0.0747068
0.000376972
0.073138
0.000556973
0.0716319
0.000720093
0.0701828
0.000866312
0.0687881
0.000990869
0.067436
0.00109557
0.00116707
0.0825593
-0.00232206
0.0788329
-0.00135376
0.0753253
-0.000679391
0.0721388
-0.00022985
0.0692675
0.000116697
0.0666892
0.000409861
0.0643929
0.000629948
0.0623563
0.000798566
0.0605552
0.000929753
0.058966
0.00103465
0.0575653
0.00112278
0.0563319
0.00120224
0.0552336
0.00127926
0.0542522
0.00135835
0.0533673
0.00144182
0.052558
0.00152945
0.051805
0.0016193
0.0510905
0.00170539
0.0504037
0.00178238
0.00182422
0.0350703
-0.000412621
0.0337142
2.31673e-06
0.0325232
0.00051156
0.0315647
0.000728688
0.0308335
0.000847943
0.0303457
0.000897626
0.0300679
0.00090773
0.029966
0.000900488
0.0300062
0.00088952
0.0301577
0.000883143
0.0303933
0.000887181
0.0306894
0.000906208
0.0310248
0.000943771
0.0313807
0.00100248
0.0317391
0.00108347
0.0320825
0.00118607
0.0323944
0.00130738
0.0326584
0.00144139
0.032865
0.00157574
0.00164592
0.00165259
-0.00206521
0.00261287
-0.000957969
0.00321312
-8.86895e-05
0.00357166
0.000370147
0.00381701
0.000602596
0.00402091
0.00069373
0.00421837
0.000710268
0.00442426
0.000694596
0.00464339
0.000670387
0.0048755
0.000651035
0.00511793
0.000644754
0.00536701
0.000657122
0.00561868
0.000692108
0.00586869
0.000752466
0.00611268
0.000839484
0.00634602
0.000952721
0.00656406
0.00108934
0.00676251
0.00124294
0.00693817
0.00140008
0.00148276
0.000235829
-0.00230104
0.000734064
-0.0014562
0.00125679
-0.000611417
0.00166585
-3.89079e-05
0.00199884
0.000269599
0.0022955
0.000397076
0.00257991
0.000425857
0.00286487
0.000409637
0.00315585
0.000379402
0.00345386
0.000353031
0.00375744
0.000341167
0.00406397
0.0003506
0.0043701
0.000385974
0.00467216
0.000450409
0.00496613
0.00054551
0.00524764
0.000671211
0.00551205
0.000824933
0.00575488
0.00100012
0.00597625
0.00117871
0.00128701
-0.000389753
-0.00191129
-0.000314401
-0.00153156
-3.97004e-05
-0.000886117
0.000279253
-0.000357861
0.000610028
-6.11756e-05
0.00094144
6.5664e-05
0.00127336
9.39374e-05
0.00160828
7.47129e-05
0.00194768
4.00023e-05
0.00229135
9.36896e-06
0.00263781
-5.30114e-06
0.0029849
3.51709e-06
0.00332976
4.11105e-05
0.00366917
0.000111003
0.00399948
0.000215197
0.00431657
0.000354119
0.00461592
0.000525586
0.00489316
0.000722877
0.00514722
0.00092465
0.00105944
-0.000624508
-0.00128678
-0.000876302
-0.00127976
-0.000851327
-0.000911092
-0.000651548
-0.000557641
-0.000365224
-0.0003475
-3.81759e-05
-0.000261384
0.000308682
-0.000252921
0.000666461
-0.000283066
0.00103092
-0.00032446
0.00139952
-0.000359232
0.00177007
-0.000375849
0.00214023
-0.000366636
0.00250749
-0.000326157
0.00286906
-0.000250566
0.00322163
-0.000137374
0.00356136
1.43931e-05
0.00388389
0.000203051
0.00418497
0.000421798
0.00446266
0.000646966
0.000809396
-0.000683561
-0.000603217
-0.00113462
-0.000828702
-0.00127634
-0.000769373
-0.00118368
-0.0006503
-0.000954478
-0.000576701
-0.000653298
-0.000562564
-0.000315051
-0.000591167
4.25282e-05
-0.000640645
0.000410467
-0.000692399
0.000783907
-0.000732672
0.00115974
-0.000751684
0.0015355
-0.000742392
0.00190885
-0.000699513
0.00227731
-0.000619021
0.00263793
-0.000498
0.00298724
-0.000334911
0.00332108
-0.000130795
0.00363538
0.000107508
0.00392731
0.00035503
0.000545623
-0.000666979
6.37615e-05
-0.00117324
-0.000322442
-0.00138836
-0.000554256
-0.00136082
-0.000677837
-0.00118107
-0.000756452
-0.000915242
-0.000828391
-0.000602548
-0.000903862
-0.000264576
-0.000978617
8.71244e-05
-0.0010441
0.000446277
-0.00109182
0.000809187
-0.00111459
0.00117332
-0.00110652
0.00153653
-0.00106273
0.00189665
-0.000979139
0.00225113
-0.000852488
0.00259689
-0.000680666
0.00293012
-0.000464021
0.00324686
-0.00020924
0.00354358
5.83164e-05
0.00027692
-0.000590535
0.000654297
-0.00101953
0.000106553
-0.00121338
-0.000360403
-0.00120362
-0.000687595
-0.00105886
-0.000901221
-0.000832451
-0.00105479
-0.000558504
-0.00117781
-0.000257219
-0.0012799
5.9926e-05
-0.00136124
0.000386495
-0.00141839
0.000718763
-0.00144686
0.00105434
-0.00144209
0.00139136
-0.00139975
0.00172802
-0.0013158
0.00206221
-0.00118668
0.00239129
-0.00100974
0.00271185
-0.000784579
0.00302014
-0.000517531
0.00331197
-0.000233521
1.20532e-05
-0.000406969
0.00106127
-0.000640008
0.000339592
-0.000737995
-0.000262416
-0.000709745
-0.000715846
-0.000590228
-0.00102074
-0.000408375
-0.00123665
-0.000186001
-0.00140018
6.22116e-05
-0.00152811
0.000327119
-0.00162615
0.000603301
-0.00169458
0.000887573
-0.00173113
0.00117794
-0.00173246
0.00147294
-0.00169475
0.00177116
-0.00161403
0.00207097
-0.00148648
0.00237019
-0.00130897
0.00266591
-0.00108029
0.00295462
-0.000806249
0.00323167
-0.000510571
-0.00024024
2.86017e-05
0.00103266
3.73759e-05
0.000330818
8.89518e-05
-0.000313992
0.000142814
-0.000769708
0.000231908
-0.00110983
0.000357728
-0.00136247
0.000513292
-0.00155575
0.000691314
-0.00170614
0.000886239
-0.00182108
0.00109442
-0.00190276
0.00131361
-0.00195033
0.00154241
-0.00196126
0.0017798
-0.00193213
0.00202481
-0.00185904
0.00227626
-0.00173793
0.00253249
-0.0015652
0.00279106
-0.00133886
0.00304883
-0.00106402
0.00330115
-0.00076289
-0.000470531
0.000901784
0.00013088
0.00123197
6.3431e-07
0.00134118
-0.000423199
0.00138442
-0.000812954
0.00141843
-0.00114384
0.00146775
-0.00141178
0.00153742
-0.00162542
0.00162661
-0.00179533
0.00173338
-0.00192784
0.00185603
-0.00202541
0.00199338
-0.00208768
0.00214465
-0.00211253
0.00230926
-0.00209675
0.00248665
-0.00203642
0.00267605
-0.00192733
0.00287627
-0.00176541
0.00308543
-0.00154803
0.003301
-0.00127958
0.00351584
-0.000977729
-0.000674441
0.0104367
0.000376686
-0.0106825
0.0102963
0.000140994
0.0100654
-0.000192279
0.00978129
-0.000528856
0.00947301
-0.000835564
0.00917372
-0.0011125
0.00890703
-0.00135873
0.00868607
-0.00157437
0.00851631
-0.00175808
0.00839961
-0.00190871
0.00833638
-0.00202445
0.00832653
-0.00210268
0.00836991
-0.00214013
0.00846637
-0.00213288
0.00861544
-0.0020764
0.00881611
-0.00196608
0.00906616
-0.00179808
0.00935823
-0.00157165
0.00967348
-0.00129298
-0.0010219
0.0314784
0.00379364
-0.0348953
0.0288114
0.00280797
0.026601
0.00201807
0.0247151
0.00135706
0.0230806
0.000798982
0.0216413
0.000326764
0.0203627
-8.00952e-05
0.0192247
-0.000436371
0.0182087
-0.000742122
0.0173032
-0.00100322
0.0165003
-0.00122156
0.015795
-0.00139734
0.0151849
-0.00152998
0.0146682
-0.00161622
0.0142445
-0.00165275
0.0139141
-0.00163562
0.0136767
-0.00156068
0.0135295
-0.00142449
0.0134662
-0.00122968
-0.00101198
0.0511299
0.00739595
-0.0547322
0.0477321
0.00620578
0.0445754
0.00517479
0.0416648
0.0042676
0.0389931
0.00347066
0.0365471
0.00277279
0.0343063
0.00216069
0.0322473
0.00162264
0.0303548
0.00115037
0.0286148
0.000736842
0.0270161
0.000377107
0.0255497
6.90953e-05
0.0242143
-0.000194643
0.023006
-0.000407911
0.021924
-0.000570753
0.0209694
-0.00068103
0.0201445
-0.000735733
0.0194503
-0.000730313
0.0188886
-0.000667999
-0.000541775
0.0636206
0.00984608
-0.0660707
0.0610067
0.00881968
0.0583132
0.00786824
0.0555964
0.00698444
0.0528999
0.00616709
0.0502569
0.00541585
0.0476893
0.00472828
0.0452115
0.00410043
0.0428335
0.0035284
0.0405617
0.00300863
0.0384008
0.00253796
0.0363562
0.00211375
0.0344275
0.00173398
0.0326208
0.00139887
0.0309413
0.00110867
0.0293953
0.000865022
0.0279902
0.000669306
0.0267319
0.000528068
0.0256311
0.000432777
0.000413237
0.0693993
0.0110996
-0.0706528
0.0678727
0.0103463
0.0661286
0.00961237
0.0642103
0.00890269
0.0621568
0.00822057
0.0600036
0.00756912
0.0577816
0.00695026
0.0555176
0.00636445
0.0532347
0.00581132
0.0509531
0.00529019
0.0486909
0.00480013
0.0464643
0.00434034
0.0442881
0.00391022
0.0421772
0.0035098
0.0401464
0.00313944
0.0382102
0.00280123
0.0363844
0.0024951
0.034683
0.00222944
0.0331208
0.00199498
0.00180167
0.0709013
0.0115347
-0.0713364
0.0702182
0.0110295
0.0693112
0.0105194
0.0682014
0.0100125
0.0669095
0.00951246
0.0654564
0.00902226
0.0638626
0.00854408
0.0621478
0.00807919
0.0603311
0.007628
0.0584309
0.00719043
0.056465
0.00676601
0.0544512
0.00635419
0.0524071
0.00595423
0.050351
0.00556596
0.0483015
0.00518891
0.046278
0.00482478
0.0443007
0.00447232
0.042393
0.00413721
0.0405647
0.00382326
0.00347734
0.0702984
0.0115399
-0.0703036
0.0701122
0.0112157
0.0697502
0.0108813
0.0692186
0.0105441
0.0685238
0.0102072
0.0676734
0.0098727
0.0666756
0.00954187
0.0655394
0.00921541
0.0642741
0.00889324
0.0628898
0.00857474
0.0613971
0.00825878
0.0598072
0.00794401
0.0581328
0.00762872
0.0563872
0.00731156
0.0545855
0.00699056
0.0527449
0.00666537
0.0508824
0.00633481
0.0490249
0.0059947
0.0471739
0.00567426
0.00524049
0.0690025
0.0113921
-0.0688547
0.0690334
0.0111847
0.0689453
0.0109694
0.0687372
0.0107522
0.0684087
0.0105358
0.0679598
0.0103216
0.067391
0.0101106
0.0667037
0.00990277
0.0658994
0.00969756
0.0649803
0.00949377
0.0639495
0.00928958
0.0628107
0.00908279
0.0615688
0.00887063
0.06023
0.00865034
0.0588019
0.00841871
0.0572952
0.00817211
0.0557187
0.00791128
0.0540955
0.0076179
0.0524217
0.00734807
0.00690594
0.0677509
0.0112473
-0.0676061
0.0678244
0.0111113
0.0678234
0.0109704
0.0677458
0.0108299
0.0675893