/*--------------------------------*- C++ -*----------------------------------*\
| =========                 |                                                 |
| \\      /  F ield         | OpenFOAM: The Open Source CFD Toolbox           |
|  \\    /   O peration     | Version:  v1806                                 |
|   \\  /    A nd           | Web:      www.OpenFOAM.com                      |
|    \\/     M anipulation  |                                                 |
\*---------------------------------------------------------------------------*/
FoamFile
{
    version     2.0;
    format      ascii;
    class       volScalarField;
    location    "240";
    object      p;
}
// * * * * * * * * * * * * * * * * * * * * * * * * * * * * * * * * * * * * * //

dimensions      [0 2 -2 0 0 0 0];


internalField   nonuniform List<scalar> 
2400
(
5.97272e-05
6.10919e-05
6.32695e-05
6.70256e-05
7.16403e-05
7.8083e-05
8.50442e-05
9.40853e-05
0.00010301
0.000114045
0.000123572
0.000134443
0.000141156
0.000146787
0.000144115
0.000135643
0.000114355
8.17874e-05
3.6037e-05
-2.10932e-05
0.000178904
0.000182929
0.000189232
0.000200358
0.000213837
0.000232975
0.000253351
0.000280305
0.000306461
0.000339537
0.000367516
0.000400468
0.000420311
0.00043824
0.000430637
0.000407109
0.00034471
0.000249735
0.000113789
-5.53031e-05
0.000297358
0.000303952
0.000314335
0.000332701
0.000354966
0.000386633
0.000420359
0.000465118
0.000508538
0.000563791
0.000610488
0.000666277
0.000699915
0.000731984
0.000720467
0.000684745
0.00058188
0.000426236
0.000198739
-8.44776e-05
0.000414599
0.000423681
0.000438161
0.000463698
0.000494761
0.000538885
0.000586016
0.00064865
0.000709542
0.000787481
0.000853428
0.00093355
0.000982002
0.00103135
0.00101719
0.000973812
0.000830501
0.000616566
0.000293705
-0.000110291
0.00053016
0.000541632
0.000560232
0.000592858
0.000632727
0.000689218
0.000749818
0.000830428
0.000909062
0.00101038
0.0010963
0.00120279
0.00126747
0.00133847
0.00132342
0.00127901
0.00109503
0.000827143
0.000402317
-0.000130762
0.000643583
0.000657308
0.000680062
0.000719654
0.000768343
0.000837052
0.000911217
0.00100987
0.00110663
0.00123209
0.001339
0.00147428
0.0015572
0.00165531
0.00164186
0.00160541
0.0013804
0.0010659
0.0005291
-0.000142381
0.000754416
0.000770215
0.000797174
0.000843561
0.000901104
0.000981801
0.00106969
0.00118636
0.0013018
0.00145211
0.00158142
0.00174809
0.00185203
0.00198355
0.00197535
0.0019582
0.00169197
0.00134251
0.00067921
-0.000140138
0.000862215
0.000879866
0.0009111
0.000964053
0.00103051
0.00112286
0.0012247
0.00135921
0.00149407
0.00166978
0.00182334
0.00202393
0.00215266
0.00232439
0.00232673
0.00234245
0.0020357
0.00166852
0.000858395
-0.000115858
0.000966548
0.000985786
0.00102138
0.00108061
0.00115606
0.00125959
0.00137568
0.00152764
0.00168286
0.0018842
0.00206441
0.00230109
0.00245961
0.00267828
0.00269889
0.00276265
0.00241849
0.0020572
0.00107326
-5.58593e-05
0.00106699
0.00108751
0.00112757
0.0011927
0.00127725
0.00139136
0.00152206
0.00169082
0.00186754
0.00209429
0.00230407
0.00257835
0.00277308
0.0030448
0.00309468
0.00322229
0.00284864
0.00252293
0.00133199
6.16832e-05
0.00116314
0.00118461
0.00122922
0.00129983
0.00139356
0.00151749
0.00166321
0.00184783
0.00204735
0.00229873
0.00254156
0.00285402
0.00309295
0.0034225
0.00351683
0.00372322
0.00333621
0.00308037
0.00164623
0.000269002
0.0012546
0.00127666
0.00132592
0.0014015
0.00150449
0.00163733
0.00179848
0.00199768
0.00222141
0.00249603
0.00277585
0.00312588
0.00341869
0.00380884
0.00396772
0.00426514
0.00389309
0.00374284
0.00203471
0.000610559
0.00134098
0.00136328
0.00141723
0.00149723
0.0016095
0.00175024
0.00192715
0.0021394
0.00238872
0.00268453
0.00300559
0.00339128
0.00374921
0.00420026
0.00444939
0.00484518
0.00453258
0.00451931
0.00252776
0.00114534
0.00142191
0.00144414
0.00150276
0.00158661
0.00170805
0.00185562
0.00204844
0.00227201
0.00254808
0.00286249
0.00322894
0.00364712
0.00408261
0.00459235
0.00496367
0.00545852
0.0052697
0.00541018
0.00316988
0.00194302
0.00149703
0.00151893
0.00158209
0.00166922
0.00179958
0.00195291
0.00216154
0.00239459
0.0026981
0.00302808
0.00344349
0.00388983
0.00441555
0.00497983
0.00551162
0.00610081
0.00612456
0.00640527
0.00402254
0.00305318
0.00156597
0.0015874
0.00165486
0.00174473
0.00188352
0.00204163
0.00226553
0.00250634
0.00283718
0.00317964
0.00364627
0.00411526
0.00474262
0.00535513
0.00609083
0.00677023
0.00712877
0.00749518
0.0051782
0.00447697
0.00162839
0.00164931
0.00172071
0.00181281
0.00195934
0.00212138
0.0023595
0.00260654
0.00296351
0.00331572
0.00383342
0.00431973
0.00505608
0.00570631
0.00668993
0.00746036
0.00832309
0.00870121
0.0067941
0.0061398
0.00168398
0.00170451
0.00177928
0.00187322
0.00202647
0.00219186
0.00244251
0.0026947
0.00307517
0.0034352
0.00400049
0.00450029
0.00534457
0.00602411
0.00728522
0.00813211
0.00972217
0.0101074
0.00915467
0.007614
0.00173233
0.00175295
0.00183025
0.00192579
0.00208438
0.00225289
0.0025136
0.00277056
0.00317016
0.00353746
0.00414268
0.00465498
0.00559436
0.00630153
0.00783249
0.00875509
0.0112564
0.0117442
0.0130076
0.00683557
0.0017732
0.00179435
0.00187369
0.00197001
0.00213316
0.00230369
0.0025729
0.00283282
0.00324844
0.00362027
0.00425882
0.00477945
0.00579921
0.00652762
0.00829754
0.00929633
0.0127633
0.0134994
0.0198224
0.00344275
-6.5223e-05
-8.02103e-05
-9.21351e-05
-0.000102258
-0.000112151
-0.000122103
-0.000131869
-0.00014123
-0.000149983
-0.000158021
-0.000167731
-0.000200931
-0.000232491
-0.000263156
-0.000293453
-0.000323343
-0.000352544
-0.000380841
-0.000408111
-0.000434413
-0.00027338
-0.000331027
-0.000386238
-0.000439687
-0.000492162
-0.00054367
-0.000593855
-0.0006424
-0.000689049
-0.00073372
-0.000383151
-0.000466659
-0.000546348
-0.00062329
-0.000698821
-0.000772996
-0.000845264
-0.000915122
-0.000982192
-0.00104633
-0.00049494
-0.000606563
-0.000713368
-0.000816622
-0.000917971
-0.00101743
-0.00111423
-0.00120769
-0.00129727
-0.00138275
-0.000608806
-0.000752403
-0.00089044
-0.00102396
-0.00115479
-0.00128291
-0.00140735
-0.00152723
-0.00164187
-0.00175094
-0.000725038
-0.000906237
-0.00108123
-0.00125036
-0.00141553
-0.00157678
-0.00173297
-0.00188298
-0.00202593
-0.00216143
-0.000844036
-0.00107133
-0.00129141
-0.0015033
-0.00170923
-0.00190943
-0.00210261
-0.00228739
-0.00246266
-0.00262793
-0.0009672
-0.00125389
-0.0015305
-0.00179447
-0.00204921
-0.00229564
-0.00253233
-0.00275747
-0.00296971
-0.0031685
-0.00109853
-0.00146562
-0.00181467
-0.00214225
-0.00245549
-0.00275697
-0.00304491
-0.00331687
-0.00357117
-0.00380729
-0.00124769
-0.00172777
-0.00217067
-0.00257543
-0.00295823
-0.00332494
-0.00367301
-0.00399876
-0.00430015
-0.00457688
-0.00143541
-0.00207737
-0.00264163
-0.00313827
-0.00360238
-0.00404553
-0.00446325
-0.00484964
-0.0052022
-0.00552134
-0.00170115
-0.00257547
-0.00329485
-0.00389802
-0.00445488
-0.00498578
-0.00548216
-0.00593442
-0.00633967
-0.00669976
-0.00211254
-0.00331501
-0.00422971
-0.00495461
-0.00561589
-0.00624538
-0.00682715
-0.00734621
-0.00779981
-0.00819243
-0.00279327
-0.00444119
-0.00559264
-0.00645381
-0.00723233
-0.00797127
-0.00864171
-0.00922107
-0.00970803
-0.0101113
-0.00399918
-0.00623169
-0.00764549
-0.0086354
-0.00952735
-0.0103739
-0.0111227
-0.0117388
-0.012223
-0.0125909
-0.00616286
-0.00920442
-0.0109241
-0.0120045
-0.0129573
-0.0138557
-0.014617
-0.0151915
-0.0155826
-0.0158177
-0.00962319
-0.0136913
-0.0157984
-0.0169928
-0.0179786
-0.0188404
-0.0194835
-0.0198737
-0.0200312
-0.0200014
-0.0150676
-0.0193273
-0.0211532
-0.0223003
-0.0232825
-0.023982
-0.0243148
-0.024336
-0.0241313
-0.0237711
-0.0306339
-0.0316576
-0.029718
-0.0290132
-0.0290571
-0.0290497
-0.0288234
-0.0284456
-0.0280089
-0.027467
-0.000181523
-0.000213845
-0.000223211
-0.000212419
-0.000190529
-0.000163169
-0.000135762
-0.000110297
-8.82355e-05
-6.96754e-05
-5.25834e-05
-3.8027e-05
-2.2839e-05
-1.03433e-05
2.6237e-07
7.21985e-06
9.53148e-06
8.31545e-06
3.69719e-06
9.99363e-07
-0.000531949
-0.000632843
-0.000661104
-0.000630569
-0.000566443
-0.000486213
-0.000404632
-0.000328939
-0.000263172
-0.000208236
-0.000158298
-0.000114972
-7.16556e-05
-3.43191e-05
-2.64501e-06
1.89025e-05
2.85121e-05
2.63249e-05
1.76011e-05
6.72356e-06
-0.000895573
-0.00106367
-0.00110875
-0.0010557
-0.000946571
-0.000811149
-0.000673649
-0.00054696
-0.000437295
-0.00034627
-0.000264016
-0.00019221
-0.000120973
-5.82264e-05
-5.1513e-06
3.18887e-05
4.92714e-05
4.61826e-05
3.26158e-05
1.23599e-05
-0.00127969
-0.00151592
-0.00157421
-0.00149365
-0.00133469
-0.00113987
-0.000943535
-0.000764288
-0.000610285
-0.000483385
-0.000368982
-0.000268916
-0.000169093
-8.03914e-05
-5.24903e-06
4.78409e-05
7.23886e-05
6.76582e-05
4.80514e-05
1.7622e-05
-0.00169319
-0.00199696
-0.00206241
-0.00194731
-0.00173209
-0.00147247
-0.00121364
-0.00097992
-0.000781188
-0.000618955
-0.000472859
-0.000344917
-0.000215784
-0.000100458
-2.32224e-06
6.75269e-05
9.85347e-05
9.14021e-05
6.45925e-05
2.28016e-05
-0.00214596
-0.00251495
-0.0025788
-0.00241991
-0.00214015
-0.00180892
-0.00148309
-0.00119268
-0.000949025
-0.000752424
-0.000575466
-0.00042027
-0.000260958
-0.000118042
4.40115e-06
9.21262e-05
0.00012875
0.000118373
8.27015e-05
2.77408e-05
-0.00265015
-0.00307924
-0.00312951
-0.002915
-0.00256026
-0.00214902
-0.00175079
-0.00140119
-0.00111265
-0.000883191
-0.000676652
-0.000495087
-0.000304462
-0.000132668
1.5912e-05
0.000123043
0.000164109
0.000149482
0.000102495
3.2038e-05
-0.00322086
-0.0037004
-0.00372108
-0.00343615
-0.00299359
-0.00249219
-0.00201524
-0.00160382
-0.0012707
-0.00101058
-0.000776335
-0.00056959
-0.000346227
-0.000143924
3.32565e-05
0.000161743
0.000205682
0.000185699
0.000123885
3.50867e-05
-0.00387687
-0.00439029
-0.00436058
-0.00398696
-0.00344096
-0.00283738
-0.00227441
-0.00179822
-0.00142161
-0.00113388
-0.000874572
-0.000644196
-0.00038637
-0.000151534
5.74951e-05
0.000209736
0.000254558
0.000228085
0.000146524
3.60742e-05
-0.0046416
-0.00516213
-0.00505565
-0.004571
-0.00390285
-0.00318305
-0.00252563
-0.00198163
-0.00156357
-0.00125234
-0.000971599
-0.000719566
-0.000425263
-0.000155423
8.96425e-05
0.000268471
0.000311799
0.000277672
0.000169764
3.40713e-05
-0.00554414
-0.00603047
-0.00581458
-0.00519172
-0.00437925
-0.00352694
-0.00276592
-0.0021507
-0.00169427
-0.00136505
-0.00106779
-0.000796583
-0.000463615
-0.000155891
0.000130434
0.000338999
0.000378286
0.000335408
0.000192672
2.81326e-05
-0.00662037
-0.00701122
-0.00664631
-0.00585214
-0.00486958
-0.00386571
-0.00299018
-0.00230126
-0.00181084
-0.00147069
-0.00116346
-0.000876218
-0.000502541
-0.000153845
0.000179833
0.000421331
0.000454261
0.00040193
0.00021407
1.76256e-05
-0.00791445
-0.00812182
-0.00756043
-0.006554
-0.00537201
-0.00419797
-0.00319317
-0.0024283
-0.00190964
-0.00156715
-0.0012583
-0.000959085
-0.000543521
-0.000151064
0.000236379
0.00051356
0.000538644
0.000476815
0.000232843
2.71264e-06
-0.0094808
-0.00938092
-0.00856601
-0.00729585
-0.00588188
-0.00451149
-0.00336836
-0.00252606
-0.00198598
-0.00165084
-0.00135041
-0.00104448
-0.000588062
-0.000150445
0.00029613
0.000610511
0.00062795
0.000557826
0.000248088
-1.51808e-05
-0.0113804
-0.0108005
-0.0096653
-0.00806743
-0.00639022
-0.00480093
-0.0035094
-0.00258915
-0.00203451
-0.00171614
-0.00143497
-0.00112902
-0.000636794
-0.000155852
0.000351792
0.000702553
0.000714916
0.000639692
0.000259082
-3.32182e-05
-0.0136479
-0.0123667
-0.0108394
-0.00884576
-0.00687658
-0.0050566
-0.00361405
-0.00261686
-0.00205157
-0.00175582
-0.00150328
-0.00120514
-0.000687783
-0.000170977
0.000392983
0.000775508
0.000787587
0.00071278
0.000264767
-4.76399e-05
-0.0162541
-0.0139859
-0.012009
-0.00955185
-0.00731304
-0.00527085
-0.00368721
-0.00261693
-0.00204035
-0.00176409
-0.00154362
-0.00126065
-0.00073477
-0.00019682
0.00040836
0.00081244
0.00082952
0.000762346
0.000263071
-5.47189e-05
-0.0190547
-0.0154876
-0.0130512
-0.0101004
-0.00766785
-0.00543988
-0.00374581
-0.00261051
-0.00201368
-0.00174193
-0.0015447
-0.00127994
-0.000766137
-0.000228678
0.000389442
0.000797246
0.000822272
0.000769549
0.00025081
-5.15352e-05
-0.0211026
-0.0164013
-0.0137652
-0.0104346
-0.00791702
-0.00556629
-0.00381583
-0.00262992
-0.00199594
-0.00169899
-0.00150056
-0.00124749
-0.000765766
-0.000255717
0.000334867
0.000719989
0.000751005
0.00071544
0.000224118
-3.63854e-05
-0.0229127
-0.0170648
-0.0141529
-0.0105556
-0.00805182
-0.00565745
-0.00391787
-0.00270156
-0.00201208
-0.00164939
-0.00141199
-0.00115376
-0.000718012
-0.000265032
0.000250748
0.000581534
0.00061168
0.000595859
0.000179979
-9.09904e-06
-0.0229716
-0.0168872
-0.0141797
-0.0104984
-0.0080683
-0.0056953
-0.00401208
-0.00278769
-0.00204814
-0.00161016
-0.00131752
-0.00104326
-0.000644984
-0.000254898
0.000177101
0.000448964
0.000469846
0.000477404
0.000137509
1.93397e-05
-0.022618
-0.0168836
-0.0141799
-0.0104622
-0.00806357
-0.00571934
-0.0040724
-0.00284847
-0.0020779
-0.00159232
-0.00126053
-0.000971616
-0.000596406
-0.000243336
0.000132456
0.000366799
0.000383137
0.000398916
0.000113055
3.68219e-05
-0.0223918
-0.0168841
-0.0141671
-0.0104208
-0.0080467
-0.00574476
-0.00413742
-0.00291839
-0.0021147
-0.00157687
-0.00120036
-0.000892373
-0.000541236
-0.000226747
8.6416e-05
0.000279613
0.000291949
0.000312402
8.89497e-05
5.49373e-05
-0.0222566
-0.0168861
-0.0141365
-0.0103695
-0.00802087
-0.00576907
-0.00420533
-0.00299404
-0.00215598
-0.00156253
-0.00113713
-0.000807062
-0.000480217
-0.000206741
3.9747e-05
0.000188771
0.000197133
0.000221382
6.48122e-05
7.33027e-05
-0.0222107
-0.0168877
-0.0141017
-0.0103117
-0.00798918
-0.00579222
-0.00427458
-0.00307356
-0.00219987
-0.001549
-0.00107196
-0.000717756
-0.00041512
-0.000184513
-7.08311e-06
9.58514e-05
0.000100529
0.000128158
4.09166e-05
9.14236e-05
-0.0222631
-0.0168965
-0.0140669
-0.0102521
-0.00795434
-0.00581477
-0.00434354
-0.00315292
-0.0022444
-0.00153597
-0.00100623
-0.000626786
-0.000348128
-0.000161284
-5.36898e-05
2.54349e-06
4.1796e-06
3.48603e-05
1.7738e-05
0.000108721
-0.0224073
-0.0169082
-0.014031
-0.0101934
-0.00791843
-0.00583688
-0.00441049
-0.00323016
-0.0022875
-0.00152304
-0.000941327
-0.000536696
-0.000281537
-0.000138387
-9.97192e-05
-8.94644e-05
-8.9996e-05
-5.63532e-05
-4.32021e-06
0.000124667
-0.0226244
-0.0169066
-0.0139874
-0.0101346
-0.00788253
-0.00585806
-0.00447329
-0.00330266
-0.00232725
-0.00150989
-0.000878642
-0.000449963
-0.000217612
-0.000117089
-0.000144806
-0.000178477
-0.000179943
-0.000143472
-2.49695e-05
0.000138853
-0.0229294
-0.0168892
-0.0139289
-0.0100771
-0.00784743
-0.00587857
-0.00453037
-0.00336829
-0.00236201
-0.00149623
-0.000819514
-0.000368976
-0.000158614
-9.88338e-05
-0.000188721
-0.000263065
-0.000264175
-0.000224483
-4.40406e-05
0.000150308
-0.0235094
-0.0168711
-0.0138705
-0.010038
-0.00781715
-0.00590412
-0.00458199
-0.00342638
-0.00239095
-0.00148182
-0.000765161
-0.000296284
-0.000107129
-8.64811e-05
-0.000232026
-0.000343174
-0.000342452
-0.00029674
-6.15184e-05
0.000155788
-0.0219536
-0.0172518
-0.0137929
-0.010023
-0.00776926
-0.00597968
-0.0046843
-0.00353604
-0.0024417
-0.00144976
-0.000660178
-0.00016051
-1.58066e-05
-7.74217e-05
-0.000326331
-0.000509079
-0.000500332
-0.000431573
-9.68453e-05
0.000152795
-0.0196354
-0.0156085
-0.0128051
-0.00968621
-0.00757235
-0.00595663
-0.00471025
-0.00357484
-0.00244855
-0.00141003
-0.000583683
-7.0282e-05
2.59728e-05
-0.000105305
-0.000435143
-0.000669153
-0.000634499
-0.000543924
-0.000134437
0.000146424
-0.0159501
-0.0138605
-0.0117004
-0.00921917
-0.00728742
-0.00581717
-0.00461791
-0.00350939
-0.00241018
-0.00139762
-0.000603247
-0.000110817
-4.09563e-05
-0.000185976
-0.000510223
-0.000743652
-0.000673623
-0.000564026
-0.000153845
0.00011973
-0.0123997
-0.011655
-0.0102276
-0.00842993
-0.00684446
-0.00554184
-0.00441974
-0.00337576
-0.00235252
-0.00141815
-0.000694106
-0.000235293
-0.000161915
-0.000280445
-0.000545433
-0.000742549
-0.000647636
-0.000527299
-0.000165169
7.97001e-05
-0.00979357
-0.00979504
-0.00891626
-0.00761557
-0.00631551
-0.00518163
-0.00416106
-0.00320694
-0.00228532
-0.00144964
-0.000805405
-0.000382578
-0.000288785
-0.000360126
-0.000546203
-0.000693405
-0.000590234
-0.000468411
-0.000172492
3.84838e-05
-0.00773679
-0.00818672
-0.00770583
-0.00677246
-0.00573606
-0.00477114
-0.00387275
-0.00302034
-0.00220478
-0.00146826
-0.000900165
-0.000512932
-0.000393874
-0.000417798
-0.000528527
-0.00062424
-0.000524837
-0.000407524
-0.000175098
3.85419e-06
-0.0061805
-0.00683765
-0.00663861
-0.00598782
-0.00517254
-0.00436196
-0.00357729
-0.00282455
-0.00210923
-0.00146411
-0.000963453
-0.000610415
-0.000470787
-0.000453909
-0.000503078
-0.000554182
-0.000463523
-0.000353717
-0.000172119
-2.08064e-05
-0.00498747
-0.00571547
-0.00570761
-0.0052669
-0.00463127
-0.0039556
-0.00327841
-0.00262161
-0.00199814
-0.00143496
-0.000993055
-0.000672954
-0.00051979
-0.000471932
-0.00047596
-0.000491223
-0.000410466
-0.00030879
-0.000164121
-3.55991e-05
-0.00406067
-0.00478089
-0.00489406
-0.00460863
-0.00411782
-0.00355995
-0.00298208
-0.00241337
-0.00187271
-0.00138263
-0.000992577
-0.000703918
-0.000544706
-0.000475451
-0.000448934
-0.000437402
-0.000364981
-0.000271355
-0.000152471
-4.25475e-05
-0.00333001
-0.00400004
-0.00418211
-0.00400999
-0.00363525
-0.00317881
-0.00269024
-0.00220159
-0.00173486
-0.00131038
-0.000967008
-0.000706703
-0.000549277
-0.000466966
-0.000421366
-0.000391143
-0.000325126
-0.000239442
-0.000138819
-4.41438e-05
-0.00274335
-0.00334369
-0.00355783
-0.00346643
-0.003184
-0.00281363
-0.00240414
-0.00198775
-0.00158722
-0.00122093
-0.000920106
-0.000688319
-0.000537041
-0.000448418
-0.000392173
-0.0003501
-0.000289158
-0.000211394
-0.000124539
-4.24494e-05
-0.00226314
-0.00278729
-0.00300851
-0.00297249
-0.0027627
-0.00246472
-0.00212461
-0.00177309
-0.00143211
-0.0011186
-0.000856953
-0.000652217
-0.000510947
-0.000421362
-0.000360584
-0.000312226
-0.000255772
-0.000185974
-0.000110364
-3.91201e-05
-0.00186225
-0.00231048
-0.00252256
-0.0025224
-0.00236906
-0.00213167
-0.00185212
-0.00155862
-0.00127132
-0.00100563
-0.000780576
-0.00060197
-0.000473467
-0.000387093
-0.000326219
-0.000276019
-0.000224061
-0.000162282
-9.6542e-05
-3.49201e-05
-0.00152089
-0.00189664
-0.00208946
-0.00211047
-0.00200037
-0.00181357
-0.00158678
-0.00134514
-0.0011064
-0.000884343
-0.00069369
-0.000540449
-0.000426673
-0.000346752
-0.000289025
-0.000240292
-0.000193382
-0.00013965
-8.30849e-05
-3.03212e-05
-0.00122443
-0.00153226
-0.00169985
-0.00173116
-0.00165369
-0.00150911
-0.00132838
-0.00113319
-0.000938632
-0.000756661
-0.000598569
-0.000470055
-0.000372355
-0.000301376
-0.000249203
-0.000204501
-0.000163297
-0.000117623
-6.99026e-05
-2.55656e-05
-0.000961821
-0.00120636
-0.00134535
-0.00137916
-0.00132597
-0.00121673
-0.00107645
-0.000923134
-0.000769057
-0.000624213
-0.000497122
-0.000392791
-0.000312069
-0.000251894
-0.000207078
-0.000168335
-0.000133488
-9.59398e-05
-5.68991e-05
-2.07605e-05
-0.00072453
-0.000909904
-0.00101857
-0.0010494
-0.00101409
-0.000934696
-0.00083032
-0.000715086
-0.000598459
-0.000488335
-0.000390944
-0.000310337
-0.000247174
-0.00019915
-0.000163037
-0.000131642
-0.000103768
-7.44275e-05
-4.40301e-05
-1.59822e-05
-0.000505919
-0.000635493
-0.000713062
-0.000737194
-0.00071501
-0.00066123
-0.000589179
-0.000509042
-0.000427455
-0.000350149
-0.0002814
-0.000224129
-0.000178883
-0.000143935
-0.000117478
-9.43682e-05
-7.39923e-05
-5.29395e-05
-3.12046e-05
-1.12858e-05
-0.000299666
-0.000376558
-0.000423105
-0.00043832
-0.000425998
-0.000394737
-0.000352309
-0.00030497
-0.000256599
-0.000210658
-0.000169731
-0.000135444
-0.000108342
-8.70554e-05
-7.08889e-05
-5.66047e-05
-4.40351e-05
-3.13222e-05
-1.81684e-05
-6.52699e-06
-0.000102105
-0.000126794
-0.000142436
-0.000147535
-0.00014322
-0.000132615
-0.000118185
-0.000102184
-8.59103e-05
-7.0447e-05
-5.68406e-05
-4.53203e-05
-3.64082e-05
-2.92195e-05
-2.3781e-05
-1.88386e-05
-1.40713e-05
-9.81024e-06
-4.76797e-06
-1.525e-06
-0.0285263
-0.0291361
-0.0260432
-0.0242637
-0.0238158
-0.0238243
-0.0239099
-0.0240228
-0.0241753
-0.0242682
-0.00620929
-0.00983933
-0.0118704
-0.013408
-0.014918
-0.0163235
-0.0174781
-0.0183419
-0.0189348
-0.0193095
-0.00536847
-0.0084746
-0.010205
-0.011221
-0.0120935
-0.0129418
-0.0137
-0.0143168
-0.0147874
-0.0151327
-0.00266042
-0.00454844
-0.00577629
-0.00665674
-0.00747393
-0.00828512
-0.00904665
-0.00972098
-0.0102999
-0.0107897
-0.00156227
-0.00287309
-0.00388828
-0.00469263
-0.00542338
-0.00612182
-0.00677315
-0.00735947
-0.00787549
-0.00832388
-0.00116564
-0.00204103
-0.0027855
-0.00341398
-0.00399053
-0.00454057
-0.00505994
-0.00553981
-0.00597659
-0.00637104
-0.000968329
-0.0015563
-0.00209701
-0.00258522
-0.00304408
-0.00348426
-0.00390379
-0.0042978
-0.00466334
-0.00499959
-0.000852793
-0.00126931
-0.00167108
-0.00204992
-0.00241217
-0.00276128
-0.00309602
-0.00341377
-0.00371256
-0.00399144
-0.000767539
-0.00107944
-0.00138437
-0.00167763
-0.00196165
-0.00223747
-0.00250393
-0.00275926
-0.00300201
-0.00323125
-0.000689808
-0.000932942
-0.00116956
-0.00139855
-0.00162234
-0.00184135
-0.00205436
-0.00225993
-0.00245692
-0.00264453
-0.000613459
-0.000807188
-0.000994244
-0.00117537
-0.00135328
-0.00152836
-0.00169949
-0.00186546
-0.00202542
-0.00217873
-0.000538484
-0.000694243
-0.000843853
-0.000988633
-0.00113119
-0.00127191
-0.00140991
-0.00154422
-0.0016742
-0.00179935
-0.000465985
-0.000591376
-0.000711552
-0.000827821
-0.000942421
-0.00105573
-0.00116706
-0.00127569
-0.00138112
-0.00148298
-0.000396566
-0.00049702
-0.000593263
-0.000686408
-0.000778261
-0.000869149
-0.00095856
-0.00104594
-0.00113093
-0.00121325
-0.000330255
-0.000409782
-0.00048601
-0.000559835
-0.000632662
-0.00070475
-0.00077572
-0.000845159
-0.000912805
-0.000978435
-0.000266709
-0.000328297
-0.00038737
-0.000444626
-0.000501122
-0.000557059
-0.000612157
-0.00066611
-0.000718731
-0.000769846
-0.000205362
-0.000251204
-0.00029528
-0.000338028
-0.000380178
-0.000421882
-0.000462957
-0.000503198
-0.000542481
-0.000580685
-0.000145724
-0.000177252
-0.000207885
-0.000237744
-0.000267159
-0.000296198
-0.000324759
-0.000352721
-0.000379996
-0.000406487
-8.8828e-05
-0.000106679
-0.00012398
-0.000141007
-0.000157923
-0.000174718
-0.000191304
-0.000207611
-0.000223621
-0.000239316
-3.65416e-05
-4.49538e-05
-5.15494e-05
-5.69749e-05
-6.22306e-05
-6.75686e-05
-7.28635e-05
-7.79669e-05
-8.27763e-05
-8.71971e-05
0.00186612
0.0018882
0.00196587
0.00206693
0.0022283
0.00240552
0.00266963
0.00293973
0.00334423
0.00373213
0.00434695
0.00489281
0.0058659
0.00663244
0.00830476
0.00935213
0.0125273
0.0131571
0.0175245
0.000257633
0.00185719
0.00187847
0.00195437
0.0020543
0.00221117
0.00238518
0.00263965
0.00290394
0.00328872
0.0036657
0.00423724
0.00476344
0.00562639
0.00635626
0.00769069
0.00864726
0.0104999
0.011156
0.0111004
0.00995357
0.00183446
0.00185676
0.001929
0.00202737
0.00217691
0.00234785
0.00258787
0.0028465
0.00320278
0.00356979
0.00408193
0.00458858
0.00531486
0.00599781
0.00697744
0.00780628
0.00874977
0.00923709
0.00794036
0.0068957
0.00179893
0.00182253
0.00189026
0.00198618
0.00212687
0.00229348
0.00251668
0.00276721
0.00309138
0.00344364
0.00389177
0.00436879
0.004959
0.00557364
0.00625201
0.00691765
0.00726981
0.00758877
0.0056545
0.0044555
0.00175125
0.00177595
0.00183886
0.00193132
0.00206235
0.00222284
0.00242828
0.00266742
0.00295895
0.00329017
0.00367694
0.00411197
0.00458307
0.0051094
0.0055602
0.00606581
0.00605741
0.00616035
0.00418962
0.00277716
0.00169213
0.00171745
0.00177546
0.00186352
0.00198454
0.00213709
0.00232469
0.00254929
0.00280928
0.00311405
0.00344473
0.00383018
0.00420089
0.00463474
0.00491851
0.00526695
0.00505986
0.0049396
0.00319026
0.00160675
0.00162228
0.00164758
0.00170079
0.00178361
0.00189463
0.00203757
0.00220779
0.00241525
0.00264562
0.00292035
0.0032012
0.00353357
0.00382248
0.00416458
0.00432965
0.00453333
0.0042298
0.00392804
0.00245877
0.000869755
0.0015424
0.00156703
0.00161562
0.00169252
0.00179373
0.00192576
0.0020793
0.00226787
0.00247088
0.00271374
0.00295107
0.00323023
0.00345351
0.00371007
0.00379286
0.0038748
0.00353619
0.00311693
0.00190705
0.000450496
0.00145321
0.00147658
0.00152074
0.00159125
0.00168295
0.00180319
0.00194082
0.00210961
0.00228753
0.00249837
0.0026979
0.00292662
0.0030975
0.00327926
0.00330591
0.00329476
0.00295481
0.00248033
0.00148301
0.000218111
0.00135543
0.00137708
0.00141699
0.00148084
0.00156332
0.00167134
0.00179383
0.00194276
0.00209766
0.00227773
0.00244443
0.00262757
0.00275658
0.00287675
0.00286562
0.00279057
0.00246536
0.00198411
0.00115392
8.73476e-05
0.0012498
0.00126943
0.00130522
0.00136232
0.00143585
0.0015316
0.00163967
0.0017693
0.00190306
0.00205459
0.00219272
0.00233633
0.00243185
0.00250411
0.00246811
0.00235476
0.00205149
0.00159522
0.000898325
1.10641e-05
0.00113707
0.0011545
0.00118629
0.00123666
0.00130153
0.00138524
0.00147958
0.00159089
0.00170524
0.001831
0.00194426
0.00205475
0.00212359
0.00216066
0.00210914
0.00197752
0.00170001
0.00128605
0.000699332
-3.37732e-05
0.00101801
0.00103319
0.00106104
0.00110483
0.00116129
0.00123338
0.00131464
0.00140889
0.0015054
0.00160838
0.00170004
0.00178357
0.00183144
0.00184416
0.00178433
0.00164891
0.00139978
0.00103566
0.000543469
-5.85015e-05
0.000893388
0.00090632
0.000930309
0.000967698
0.001016
0.00107702
0.00114584
0.00122434
0.00130451
0.00138759
0.0014606
0.00152266
0.00155444
0.00155154
0.00148921
0.00135989
0.00114116
0.000829019
0.000420363
-6.95592e-05
0.000763973
0.000774723
0.000794905
0.000826107
0.000866493
0.000917007
0.000973998
0.00103805
0.00110325
0.00116906
0.00122607
0.00127132
0.00129119
0.00127939
0.00121932
0.00110266
0.000915847
0.000655288
0.000321919
-7.10531e-05
0.000630525
0.000639177
0.000655609
0.000680836
0.000713535
0.000754081
0.000799827
0.000850586
0.000902078
0.000952874
0.000996211
0.00102844
0.0010399
0.0010243
0.000970297
0.000870595
0.000716733
0.000506344
0.000241789
-6.58147e-05
0.000493797
0.000500437
0.000513175
0.000532616
0.000557839
0.00058889
0.00062391
0.00066237
0.000701238
0.00073887
0.00077049
0.000792643
0.000798574
0.000782909
0.000737922
0.000657978
0.000537718
0.000375867
0.000174954
-5.59639e-05
0.000354526
0.000359232
0.000368325
0.00038214
0.000400065
0.00042201
0.000446741
0.000473686
0.000500819
0.000526715
0.000548173
0.00056246
0.000565068
0.000552008
0.00051822
0.000459831
0.000373531
0.000258789
0.000117543
-4.32552e-05
0.00021344
0.000216264
0.00022175
0.00023005
0.000240814
0.000253935
0.000268705
0.000284706
0.000300771
0.000315949
0.000328387
0.00033635
0.000337233
0.000328593
0.000307528
0.000271799
0.000219641
0.000150946
6.69273e-05
-2.87099e-05
7.12718e-05
7.22313e-05
7.40987e-05
7.69027e-05
8.05366e-05
8.49439e-05
8.99035e-05
9.5252e-05
0.000100615
0.000105645
0.00010974
0.000112295
0.000112458
0.000109387
0.000102108
8.98666e-05
7.21372e-05
4.90049e-05
2.12024e-05
-1.13115e-05
0.00179689
0.00181744
0.00189965
0.00199375
0.00216243
0.00232967
0.00260885
0.00286241
0.00329643
0.00365598
0.00433061
0.00482817
0.00592478
0.00661526
0.00857321
0.00955467
0.013638
0.0148468
0.0257107
0.0196564
0.00180909
0.00182973
0.0019127
0.00200649
0.00217687
0.00234379
0.00262606
0.00287875
0.00331855
0.0036761
0.00436255
0.00485589
0.0059797
0.00666349
0.00869596
0.0096884
0.014042
0.0156005
0.0276369
0.027033
0.00182004
0.00184096
0.00192413
0.00201822
0.00218931
0.00235684
0.00264036
0.00289392
0.00333613
0.00369484
0.00438664
0.00488163
0.00601946
0.00670703
0.00878448
0.00980295
0.014343
0.0162251
0.0288899
0.0321027
0.00182982
0.00185093
0.00193423
0.00202861
0.00220016
0.00236824
0.00265254
0.00290687
0.00335054
0.0037103
0.00440538
0.0049019
0.00604849
0.0067395
0.00884586
0.00988501
0.0145487
0.0166641
0.0297242
0.0353163
0.00183842
0.00185963
0.00194302
0.00203762
0.00220947
0.00237792
0.00266267
0.00291749
0.0033619
0.0037223
0.00441895
0.00491634
0.0060671
0.00675997
0.0088803
0.00993035
0.0146562
0.0168947
0.030159
0.03695
0.00184582
0.00186706
0.00195046
0.00204528
0.00221721
0.00238593
0.00267067
0.00292586
0.00337009
0.00373098
0.00442713
0.00492518
0.00607481
0.00676878
0.00888672
0.00993806
0.0146614
0.0169044
0.0301969
0.0371279
0.00185202
0.00187324
0.00195656
0.00205158
0.00222335
0.00239227
0.00267655
0.002932
0.0033751
0.00373636
0.00442988
0.00492846
0.00607162
0.00676598
0.00886514
0.00990813
0.0145634
0.0166913
0.0298373
0.0358584
0.00185704
0.00187812
0.00196135
0.00205649
0.00222797
0.00239687
0.00268038
0.00293578
0.00337705
0.00373824
0.0044275
0.00492596
0.00605808
0.00675117
0.00881687
0.00984136
0.0143672
0.0162638
0.0290847
0.0330425
0.00186089
0.00188173
0.00196484
0.00206004
0.00223107
0.00239979
0.00268216
0.00293727
0.00337592
0.00373659
0.00442012
0.00491782
0.00603432
0.00672471
0.0087418
0.00974229
0.0140743
0.015636
0.0279462
0.0284592
0.00186348
0.00188431
0.00196673
0.00206265
0.00223219
0.00240177
0.00268107
0.00293776
0.00337035
0.00373348
0.00440424
0.00490697
0.00599421
0.00669531
0.0086302
0.00962713
0.0136668
0.0148583
0.0261296
0.0215974
)
;

boundaryField
{
    inlet
    {
        type            zeroGradient;
    }
    outlet
    {
        type            fixedValue;
        value           uniform 0;
    }
    upAndBottom
    {
        type            empty;
    }
    obstacle
    {
        type            zeroGradient;
    }
}


// ************************************************************************* //
