/*--------------------------------*- C++ -*----------------------------------*\
| =========                 |                                                 |
| \\      /  F ield         | OpenFOAM: The Open Source CFD Toolbox           |
|  \\    /   O peration     | Version:  v1806                                 |
|   \\  /    A nd           | Web:      www.OpenFOAM.com                      |
|    \\/     M anipulation  |                                                 |
\*---------------------------------------------------------------------------*/
FoamFile
{
    version     2.0;
    format      ascii;
    class       surfaceScalarField;
    location    "490";
    object      phi;
}
// * * * * * * * * * * * * * * * * * * * * * * * * * * * * * * * * * * * * * //

dimensions      [0 3 -1 0 0 0 0];
oriented        oriented;


internalField   nonuniform List<scalar> 
4680
(
0.104999
-0.000203412
0.104997
-0.000613033
0.104994
-0.00102857
0.104989
-0.00145709
0.104982
-0.00190138
0.104973
-0.00236758
0.104962
-0.00285697
0.10495
-0.00337404
0.104937
-0.0039173
0.104924
-0.00448799
0.104911
-0.00507993
0.104901
-0.00568896
0.104895
-0.00630159
0.104894
-0.00690629
0.104901
-0.00748007
0.104919
-0.00800372
0.104949
-0.00844524
0.10499
-0.00878154
0.105038
-0.00897631
-0.00902841
0.10512
0.104998
-0.000201716
0.104994
-0.000608406
0.104986
-0.00102061
0.104975
-0.00144638
0.104961
-0.00188752
0.104945
-0.00235151
0.104927
-0.00283855
0.104907
-0.00335472
0.104888
-0.0038975
0.104869
-0.00446992
0.104855
-0.00506494
0.104846
-0.00568022
0.104846
-0.00630154
0.104858
-0.00691882
0.104886
-0.00750803
0.104933
-0.00805064
0.105
-0.00851235
0.105089
-0.00887029
0.105199
-0.00908624
-0.00914782
0.105318
0.104997
-0.000198864
0.10499
-0.000600798
0.104976
-0.00100746
0.104959
-0.001429
0.104937
-0.00186509
0.104911
-0.002326
0.104882
-0.0028095
0.104852
-0.00332496
0.104822
-0.00386737
0.104796
-0.00444346
0.104775
-0.00504391
0.104764
-0.00567004
0.104769
-0.00630563
0.104793
-0.00694351
0.104843
-0.00755737
0.104922
-0.00813011
0.105033
-0.00862345
0.105178
-0.00901474
0.105349
-0.00925795
-0.00933467
0.105536
0.104996
-0.000194799
0.104985
-0.000590194
0.104967
-0.000988875
0.104942
-0.00140466
0.104911
-0.00183341
0.104875
-0.00229032
0.104834
-0.00276846
0.104792
-0.00328337
0.10475
-0.00382475
0.104713
-0.00440648
0.104683
-0.0050139
0.104668
-0.00565567
0.104673
-0.00631067
0.104708
-0.00697773
0.104776
-0.00762596
0.104887
-0.0082412
0.105043
-0.00877932
0.105245
-0.00921676
0.105485
-0.00949771
-0.00960086
0.105751
0.104995
-0.00018943
0.104981
-0.000576607
0.104957
-0.000964559
0.104925
-0.00137324
0.104884
-0.00179183
0.104837
-0.00224403
0.104783
-0.00271421
0.104729
-0.00322899
0.104672
-0.00376755
0.104622
-0.00435721
0.10458
-0.0049718
0.104559
-0.00563449
0.104561
-0.00631285
0.104602
-0.00701858
0.104687
-0.0077107
0.104828
-0.00838245
0.105029
-0.00897999
0.105291
-0.00947941
0.105606
-0.00981216
-0.00995252
0.105958
0.104993
-0.000182649
0.104977
-0.000560071
0.104946
-0.000934159
0.104908
-0.00133464
0.104855
-0.00173962
0.104798
-0.00218677
0.104729
-0.00264532
0.104661
-0.00316091
0.104587
-0.0036932
0.104524
-0.00429393
0.104465
-0.00491363
0.104435
-0.00560376
0.104429
-0.00630707
0.104473
-0.00706284
0.10457
-0.00780713
0.104739
-0.00855225
0.104985
-0.00922534
0.105312
-0.00980656
0.105708
-0.0102087
-0.0103996
0.106155
0.104992
-0.000174338
0.104972
-0.000540636
0.104935
-0.000897265
0.104889
-0.00128877
0.104826
-0.00167586
0.104757
-0.00211824
0.104672
-0.00255998
0.104589
-0.0030783
0.104495
-0.00359843
0.104415
-0.00421491
0.104336
-0.0048341
0.104293
-0.00556068
0.104272
-0.00628615
0.104316
-0.00710714
0.104417
-0.00790833
0.104614
-0.00874898
0.104903
-0.00951416
0.105299
-0.010203
0.105788
-0.010697
-0.0109564
0.106345
0.10499
-0.000164401
0.104968
-0.000518356
0.104924
-0.000853443
0.104871
-0.00123559
0.104794
-0.00159957
0.104714
-0.00203816
0.104611
-0.00245616
0.104513
-0.00298046
0.104394
-0.00347929
0.104297
-0.00411862
0.10419
-0.00472633
0.104132
-0.00550274
0.104085
-0.00623994
0.104127
-0.0071485
0.104222
-0.00800319
0.104444
-0.00897178
0.104772
-0.00984209
0.105245
-0.0106752
0.105837
-0.0112895
-0.011642
0.106523
0.104988
-0.000152792
0.104963
-0.000493243
0.104912
-0.000802324
0.104852
-0.001175
0.104762
-0.0015098
0.10467
-0.00194628
0.104545
-0.00233165
0.104432
-0.00286673
0.104284
-0.00333122
0.104169
-0.00400375
0.104024
-0.00458176
0.103949
-0.00542792
0.103864
-0.00615455
0.103901
-0.00718509
0.103971
-0.0080739
0.104222
-0.00922211
0.104577
-0.0101977
0.105136
-0.0112341
0.105847
-0.0119999
-0.0124817
0.106686
0.104987
-0.000139571
0.104959
-0.000465201
0.1049
-0.000743709
0.104832
-0.0011068
0.104728
-0.00140584
0.104624
-0.00184222
0.104477
-0.00218448
0.104346
-0.00273631
0.104165
-0.00314959
0.10403
-0.00386892
0.103839
-0.00439072
0.103745
-0.00533441
0.103603
-0.00601215
0.103635
-0.00721673
0.103654
-0.0080934
0.103938
-0.00950601
0.104296
-0.0105557
0.104962
-0.0118997
0.1058
-0.0128387
-0.0135106
0.106829
0.104985
-0.00012496
0.104954
-0.000433934
0.104888
-0.000677726
0.104812
-0.00103053
0.104694
-0.0012875
0.104576
-0.00172517
0.104405
-0.00201337
0.104257
-0.00258781
0.104038
-0.00293044
0.103881
-0.00371189
0.103634
-0.00414355
0.103519
-0.00521945
0.103299
-0.00579218
0.103325
-0.0072432
0.103257
-0.00802501
0.103585
-0.00983482
0.103899
-0.0108689
0.104708
-0.012709
0.105669
-0.0137992
-0.0147839
0.106942
0.104984
-0.000109395
0.104949
-0.000398846
0.104877
-0.000605005
0.104791
-0.000945282
0.104659
-0.00115545
0.104528
-0.00159361
0.104333
-0.00181842
0.104164
-0.00241857
0.103905
-0.00267178
0.103721
-0.00352835
0.103411
-0.00383276
0.103268
-0.00507698
0.102951
-0.00547485
0.102967
-0.00725969
0.102768
-0.00782581
0.103154
-0.0102204
0.10335
-0.0110652
0.10436
-0.0137194
0.10539
-0.014829
-0.0164047
0.107011
0.104984
-9.35456e-05
0.104944
-0.000358979
0.104866
-0.000526812
0.10477
-0.000849584
0.104627
-0.00101157
0.104478
-0.00144489
0.104261
-0.0016018
0.104067
-0.0022239
0.10377
-0.00237506
0.103552
-0.00331021
0.103175
-0.00345587
0.102992
-0.00489427
0.102563
-0.00504615
0.102554
-0.00725036
0.102183
-0.00745442
0.102624
-0.0106621
0.102614
-0.0110554
0.103896
-0.0150007
0.104894
-0.0158274
-0.0185396
0.107029
0.104985
-7.82542e-05
0.104939
-0.000313057
0.104857
-0.000445073
0.104749
-0.000741369
0.104596
-0.000859119
0.104427
-0.00127506
0.104193
-0.00136845
0.103966
-0.00199637
0.103637
-0.00204676
0.103371
-0.00304393
0.102934
-0.00301893
0.102688
-0.00464786
0.102146
-0.00450438
0.102075
-0.00717986
0.101504
-0.00688307
0.10197
-0.0111277
0.101662
-0.0107472
0.103273
-0.0166119
0.104088
-0.0166429
-0.0214613
0.10701
0.104986
-6.43268e-05
0.104933
-0.000259744
0.10485
-0.000362122
0.104727
-0.000618323
0.10457
-0.000702512
0.104374
-0.00107914
0.104132
-0.00112608
0.103861
-0.00172578
0.103514
-0.00169952
0.103179
-0.00270915
0.1027
-0.00253999
0.102351
-0.00429904
0.101716
-0.00386881
0.101518
-0.00698175
0.100748
-0.00611331
0.101153
-0.0115323
0.100471
-0.0100659
0.102437
-0.0185774
0.10283
-0.0170359
-0.0256158
0.106984
0.104988
-5.2182e-05
0.104926
-0.000198235
0.104844
-0.000279965
0.104705
-0.000478878
0.104548
-0.00054599
0.104322
-0.00085273
0.104079
-0.000883621
0.103755
-0.00140106
0.103406
-0.0013513
0.102977
-0.0022795
0.102488
-0.00205137
0.101979
-0.00379016
0.101299
-0.00318867
0.10086
-0.00654275
0.0999483
-0.00520146
0.100109
-0.0116928
0.0990486
-0.00900578
0.101296
-0.0208247
0.10097
-0.0167097
-0.0316862
0.10704
0.104989
-4.14777e-05
0.10492
-0.000128946
0.104839
-0.000199354
0.104684
-0.00032367
0.10453
-0.000391503
0.104272
-0.000595312
0.104035
-0.000646177
0.103651
-0.00101741
0.103316
-0.00101561
0.102772
-0.00173603
0.10231
-0.00158969
0.101576
-0.00305595
0.100935
-0.00254724
0.100069
-0.00567664
0.0991613
-0.00429418
0.0987135
-0.011245
0.0974602
-0.00775245
0.0995295
-0.0228939
0.0983202
-0.0155005
-0.0412699
0.107904
0.10499
-3.10239e-05
0.104914
-5.37199e-05
0.104834
-0.000119522
0.104667
-0.00015606
0.104513
-0.000237725
0.10423
-0.000312171
0.103996
-0.000411852
0.103561
-0.000582596
0.103235
-0.000690214
0.102586
-0.00108705
0.102154
-0.00115716
0.10119
-0.00209201
0.100626
-0.0019831
0.0992229
-0.00427375
0.0984936
-0.00356481
0.0967936
-0.00954502
0.0958234
-0.00678228
0.0963876
-0.0234582
0.0946127
-0.0137255
-0.0573596
0.110702
0.104988
-1.90182e-05
0.10491
2.44629e-05
0.104829
-3.86267e-05
0.104654
1.86484e-05
0.104497
-8.08852e-05
0.104199
-1.35205e-05
0.103959
-0.000172536
0.103493
-0.000116538
0.10316
-0.000356615
0.102446
-0.000373095
0.101999
-0.00070991
0.10089
-0.000983251
0.100295
-0.00138867
0.0985125
-0.00249087
0.0977492
-0.00280154
0.0948951
-0.00669087
0.0942142
-0.00610142
0.0915012
-0.0207451
0.0909561
-0.0131804
-0.0768721
0.110469
0.104982
-6.09915e-07
0.104912
9.45284e-05
0.104817
5.54013e-05
0.104653
0.000182934
0.104473
9.91716e-05
0.104191
0.00026866
0.103913
0.000105737
0.10347
0.000326564
0.103069
4.34909e-05
0.102383
0.000313068
0.101819
-0.000145891
0.100731
0.000104909
0.0999181
-0.000575662
0.0980874
-0.000660103
0.0968053
-0.00151943
0.0934671
-0.00335274
0.0914776
-0.00411187
0.0857093
-0.0149768
0.0914099
-0.018881
0.101032
-0.0864942
0.105139
-0.00162798
0.105151
-0.00161993
0.105165
-0.00161334
0.105179
-0.00160558
0.105193
-0.00159679
0.105207
-0.00158701
0.105221
-0.00157624
0.105235
-0.00156449
0.105249
-0.00155175
-0.00153794
0.105263
0.105338
-0.00164806
0.105361
-0.00164282
0.105384
-0.00163621
0.105407
-0.00162854
0.10543
-0.00161981
0.105453
-0.00161001
0.105476
-0.00159918
0.105499
-0.00158732
0.105522
-0.00157445
-0.00156074
0.105544
0.105572
-0.0016839
0.105608
-0.00167849
0.105643
-0.00167179
0.105679
-0.00166394
0.105714
-0.00165495
0.105749
-0.00164483
0.105783
-0.00163358
0.105817
-0.00162123
0.10585
-0.00160778
-0.00159332
0.105883
0.105801
-0.00173342
0.10585
-0.00172785
0.105899
-0.00172101
0.105948
-0.0017129
0.105997
-0.00170354
0.106045
-0.00169291
0.106092
-0.00168105
0.106139
-0.00166797
0.106185
-0.00165368
-0.00163831
0.10623
0.106022
-0.00179825
0.106087
-0.00179267
0.106152
-0.00178567
0.106216
-0.00177721
0.10628
-0.0017673
0.106343
-0.00175597
0.106405
-0.00174322
0.106466
-0.00172909
0.106526
-0.00171358
-0.00169684
0.106585
0.106238
-0.00188072
0.10632
-0.00187518
0.106403
-0.00186793
0.106484
-0.00185898
0.106566
-0.00184834
0.106646
-0.00183603
0.106724
-0.00182207
0.106802
-0.0018065
0.106878
-0.00178931
-0.00177073
0.106951
0.106448
-0.0019837
0.106551
-0.00197825
0.106653
-0.0019707
0.106755
-0.00196111
0.106857
-0.0019495
0.106957
-0.00193589
0.107055
-0.00192029
0.107151
-0.00190278
0.107245
-0.00188335
-0.00186229
0.107337
0.10665
-0.00211106
0.106778
-0.00210584
0.106905
-0.00209797
0.107031
-0.00208757
0.107157
-0.00207469
0.10728
-0.00205934
0.107401
-0.00204157
0.10752
-0.00202145
0.107636
-0.00199899
-0.00197462
0.107748
0.106843
-0.00226818
0.107001
-0.00226347
0.107158
-0.0022553
0.107315
-0.00224389
0.107469
-0.00222932
0.107622
-0.00221162
0.107771
-0.00219088
0.107917
-0.00216723
0.108058
-0.00214065
-0.0021118
0.108195
0.107024
-0.00246308
0.10722
-0.00245917
0.107415
-0.0024507
0.107609
-0.00243793
0.107801
-0.00242098
0.107989
-0.00239999
0.108174
-0.00237509
0.108353
-0.00234651
0.108526
-0.0023142
-0.00227922
0.108694
0.107187
-0.0027084
0.107433
-0.00270516
0.107679
-0.00269609
0.107922
-0.00268108
0.108161
-0.0026605
0.108396
-0.00263461
0.108624
-0.00260364
0.108846
-0.00256793
0.109059
-0.00252742
-0.00248384
0.109264
0.107327
-0.00302433
0.107642
-0.0030204
0.107955
-0.00300934
0.108264
-0.00299
0.108567
-0.00296327
0.108862
-0.00292959
0.109148
-0.0028893
0.109423
-0.00284294
0.109686
-0.00279036
-0.00273453
0.109936
0.107444
-0.00343933
0.107856
-0.00343275
0.108263
-0.00341615
0.108662
-0.00338831
0.109049
-0.00335082
0.109424
-0.00330427
0.109784
-0.0032491
0.110127
-0.00318626
0.110452
-0.00311544
-0.00304177
0.110759
0.107565
-0.00399482
0.108112
-0.00397896
0.108645
-0.00394993
0.109164
-0.00390648
0.109664
-0.00385088
0.110143
-0.00378358
0.110599
-0.00370504
0.11103
-0.00361685
0.111432
-0.00351837
-0.00341764
0.111808
0.107759
-0.00476959
0.108498
-0.00471793
0.109209
-0.00466131
0.10989
-0.00458709
0.110538
-0.00449875
0.111151
-0.00439638
0.111726
-0.00428031
0.112262
-0.00415299
0.112757
-0.00401316
-0.00387757
0.113217
0.108139
-0.00586859
0.109174
-0.00575282
0.110154
-0.005641
0.111074
-0.00550738
0.111931
-0.00535628
0.112723
-0.00518742
0.113444
-0.00500169
0.114094
-0.00480314
0.114671
-0.00458995
-0.00437835
0.115172
0.10924
-0.00720484
0.110585
-0.0070973
0.11182
-0.00687654
0.112954
-0.00664106
0.113981
-0.00638352
0.114894
-0.00610032
0.115687
-0.00579512
0.11636
-0.00547584
0.116913
-0.00514299
-0.00483172
0.117367
0.112642
-0.00914466
0.114025
-0.00847988
0.115114
-0.00796541
0.11595
-0.0074778
0.116556
-0.00698891
0.116946
-0.00649031
0.117138
-0.0059869
0.117147
-0.00548496
0.116989
-0.00498549
-0.00449344
0.116651
0.111283
-0.00995933
0.111663
-0.00885917
0.111545
-0.00784737
0.111006
-0.00693966
0.1101
-0.00608279
0.108888
-0.00527828
0.107433
-0.00453197
0.105789
-0.00384082
0.104001
-0.00319705
-0.00259515
0.102102
0.0910727
0.0822135
0.0743661
0.0674265
0.0613437
0.0560654
0.0515334
0.0476926
0.0444956
0.0419004
0.105366
-0.0100026
0.105461
-0.00908616
0.105546
-0.00799281
0.105616
-0.00680592
0.105671
-0.00561098
0.105712
-0.00447151
0.10574
-0.00343188
0.105758
-0.00251134
0.105769
-0.00171869
0.105774
-0.00105208
0.105775
-0.00050317
0.105773
-6.26366e-05
0.10577
0.00028611
0.105766
0.000553078
0.105762
0.000752731
0.105759
0.000898888
0.105756
0.000997838
0.105754
0.00106912
0.105753
0.0011061
0.00113207
0.105685
-0.0101435
0.1058
-0.00920112
0.105881
-0.00807381
0.10593
-0.00685418
0.105951
-0.00563222
0.105952
-0.00447263
0.10594
-0.00341952
0.105919
-0.00249089
0.105895
-0.00169442
0.10587
-0.00102713
0.105846
-0.000479429
0.105825
-4.15488e-05
0.105807
0.000304387
0.105792
0.000568148
0.10578
0.000764307
0.105771
0.000907744
0.105766
0.00100346
0.105762
0.00107324
0.10576
0.0011081
0.00113453
0.106085
-0.0103461
0.106237
-0.00935271
0.10633
-0.00816679
0.106368
-0.00689177
0.106361
-0.005626
0.106324
-0.00443563
0.106268
-0.0033636
0.106203
-0.00242543
0.106135
-0.0016267
0.10607
-0.000962337
0.106011
-0.000420419
0.10596
9.86532e-06
0.105916
0.000348039
0.105881
0.000603773
0.105853
0.000792034
0.105832
0.000929008
0.105817
0.00101812
0.105806
0.00108406
0.105799
0.00111491
0.00114113
0.106505
-0.0106206
0.106702
-0.00955051
0.106814
-0.00827808
0.106846
-0.00692396
0.106817
-0.00559713
0.106746
-0.00436477
0.10665
-0.00326764
0.106542
-0.00231773
0.106433
-0.00151739
0.106329
-0.000858614
0.106235
-0.000326005
0.106152
9.30013e-05
0.106081
0.00041872
0.106023
0.000662315
0.105976
0.000838672
0.10594
0.00096548
0.105913
0.00104466
0.105893
0.00110413
0.105879
0.00112904
0.00115384
0.106939
-0.0109747
0.107186
-0.00979759
0.107315
-0.00840764
0.107341
-0.00694944
0.107288
-0.0055444
0.107183
-0.00425943
0.107047
-0.00313189
0.106898
-0.00216892
0.106749
-0.00136828
0.106609
-0.000718072
0.106481
-0.000198236
0.106368
0.000205406
0.106272
0.000514899
0.106192
0.000742415
0.106128
0.000903264
0.106077
0.00101657
0.106038
0.00108268
0.106009
0.00113331
0.105988
0.00115035
0.00117278
0.107394
-0.0114171
0.107692
-0.0100959
0.107837
-0.00855243
0.107851
-0.0069633
0.107769
-0.00546276
0.107625
-0.0041152
0.107446
-0.00295313
0.107255
-0.00197721
0.107065
-0.00117896
0.106888
-0.000541164
0.106729
-3.84808e-05
0.106588
0.000345444
0.106469
0.000634681
0.106369
0.000842223
0.106288
0.000983923
0.106224
0.0010806
0.106177
0.00113038
0.10614
0.00117007
0.106113
0.00117719
0.0011967
0.107878
-0.0119588
0.108229
-0.0104464
0.108384
-0.00870726
0.108379
-0.00695823
0.10826
-0.0053446
0.10807
-0.0039252
0.107843
-0.00272606
0.107605
-0.00173898
0.107374
-0.000947457
0.10716
-0.0003274
0.106968
0.000153717
0.106801
0.000512067
0.106659
0.000776978
0.10654
0.000960466
0.106445
0.00107911
0.10637
0.00115608
0.106314
0.00118588
0.106272
0.00121276
0.106241
0.00120751
0.00122396
0.108402
-0.0126131
0.108805
-0.0108487
0.108962
-0.00886462
0.108928
-0.00692452
0.108763
-0.00517989
0.108519
-0.00368058
0.108237
-0.00244393
0.107947
-0.00144966
0.107671
-0.000670829
0.107419
-7.51614e-05
0.107194
0.00037838
0.107001
0.000705287
0.106836
0.000941293
0.1067
0.00109646
0.106592
0.00118795
0.106505
0.00124211
0.106444
0.0012478
0.106396
0.00126019
0.106364
0.00123963
0.00125324
0.108978
-0.0133957
0.109429
-0.0113001
0.109579
-0.00901408
0.109504
-0.00684951
0.10928
-0.00495588
0.10897
-0.00337051
0.108625
-0.00209867
0.108279
-0.00110393
0.107954
-0.000346117
0.107661
0.000217942
0.107404
0.000635834
0.107183
0.000925325
0.106997
0.00112774
0.106843
0.00125009
0.106721
0.0013104
0.106624
0.00133865
0.106556
0.00131571
0.106505
0.00131218
0.106471
0.00127279
0.00128438
0.109622
-0.0143235
0.110116
-0.0117941
0.110243
-0.00914164
0.11011
-0.00671657
0.109811
-0.00465637
0.109422
-0.00298207
0.109005
-0.00168097
0.108596
-0.000695304
0.108219
3.06645e-05
0.107884
0.000553534
0.107592
0.000927654
0.107344
0.00117305
0.107134
0.00133758
0.106962
0.0014225
0.106824
0.0014482
0.106715
0.00144732
0.10664
0.00139122
0.106581
0.00137059
0.106546
0.00130837
0.00131958
0.110352
-0.0154122
0.110878
-0.0123198
0.110965
-0.00922846
0.110752
-0.00650363
0.110356
-0.00426076
0.109874
-0.00249971
0.109372
-0.00117924
0.108894
-0.000216711
0.108458
0.000466609
0.108077
0.000934414
0.107747
0.00125753
0.107468
0.00145172
0.107231
0.00157512
0.107035
0.00161794
0.106876
0.00160708
0.10675
0.00157341
0.106661
0.00148039
0.10659
0.0014414
0.106546
0.00135222
0.00136541
0.111196
-0.0166715
0.111737
-0.0128611
0.111756
-0.00924798
0.111433
-0.00618072
0.110915
-0.00374192
0.110317
-0.00190249
0.109716
-0.000577374
0.109153
0.000346315
0.108649
0.000970092
0.108213
0.00137068
0.107835
0.00163496
0.107516
0.00177095
0.107239
0.00185186
0.10701
0.0018477
0.106816
0.00180079
0.10666
0.00172935
0.106543
0.00159765
0.106447
0.00153756
0.106381
0.001418
0.0014349
0.112188
-0.0180998
0.11272
-0.0133931
0.11263
-0.00915803
0.112151
-0.00570209
0.111469
-0.00306005
0.110721
-0.00115433
0.109989
0.00015456
0.109316
0.00101895
0.108721
0.0015653
0.108207
0.00188501
0.107759
0.00208287
0.107376
0.0021536
0.107036
0.00219238
0.106748
0.00213549
0.106493
0.00205572
0.106284
0.00193842
0.106112
0.00176934
0.105969
0.00168096
0.105858
0.0015294
0.00154744
0.113383
-0.0196742
0.113857
-0.0138677
0.113573
-0.00887414
0.112853
-0.00498129
0.111932
-0.00213984
0.110965
-0.000186631
0.110038
0.00108167
0.109203
0.00185338
0.108465
0.00230318
0.107826
0.00252422
0.107263
0.00264552
0.106775
0.00264174
0.10633
0.00263763
0.105946
0.00251921
0.105592
0.00241047
0.105297
0.00223338
0.105035
0.00203106
0.104818
0.00189812
0.104632
0.00171551
0.00172153
0.114839
-0.0212965
0.115115
-0.0141433
0.114433
-0.00819208
0.113285
-0.00383329
0.111965
-0.000819778
0.110643
0.00113523
0.109412
0.00231245
0.108317
0.00294831
0.107354
0.00326589
0.10652
0.00335884
0.105782
0.00338309
0.105137
0.00328728
0.104543
0.00323138
0.104026
0.00303603
0.103539
0.00289776
0.103133
0.0026392
0.102756
0.00240788
0.102453
0.00220161
0.102177
0.00199071
0.00195469
0.116424
-0.0225486
0.116045
-0.0137644
0.114497
-0.00664391
0.112565
-0.00190113
0.110558
0.00118685
0.108682
0.00301107
0.107004
0.00399097
0.105544
0.00440834
0.104285
0.00452427
0.10321
0.00443424
0.102274
0.00431915
0.101463
0.00409798
0.100728
0.00396602
0.100094
0.00367065
0.0994975
0.00349398
0.0990087
0.00312807
0.0985473
0.00286924
0.0981972
0.00255175
0.0978723
0.00231558
0.00219177
0.116911
-0.0220928
0.114762
-0.0116161
0.11149
-0.00337108
0.108325
0.00126332
0.105379
0.00413312
0.102846
0.00554367
0.100711
0.00612594
0.0989431
0.00617656
0.0974869
0.00598049
0.0962949
0.00562627
0.0953047
0.00530933
0.0944817
0.00492093
0.0937655
0.0046822
0.0931671
0.0042691
0.0926157
0.00404535
0.0921861
0.00355772
0.0917814
0.00327393
0.0915187
0.00281438
0.0912765
0.00255782
0.00230002
0.111316
-0.0167575
0.105933
-0.00623385
0.100236
0.00232596
0.0959459
0.00555367
0.092463
0.00761601
0.0898266
0.00818
0.0878166
0.00813596
0.0863123
0.0076809
0.0852022
0.00709053
0.084396
0.00643249
0.0838135
0.00589181
0.0833962
0.00533833
0.0830784
0.00499994
0.0828543
0.0044932
0.0826582
0.00424143
0.0825608
0.00365518
0.0824711
0.00336359
0.0825218
0.00276367
0.0825786
0.00250108
0.0020891
0.0890376
-0.00369262
0.0808109
0.00199288
0.0746456
0.00849119
0.0714001
0.00879917
0.0692425
0.00977367
0.0682058
0.00921667
0.0677092
0.00863251
0.0676182
0.00777197
0.0677963
0.00691246
0.068152
0.0060767
0.0686236
0.00542027
0.0691511
0.00481078
0.0696913
0.00445974
0.0702325
0.00395202
0.0707389
0.00373499
0.0712697
0.00312446
0.07177
0.0028632
0.0723586
0.00217517
0.0729235
0.00193618
0.00139462
0.0371121
0.0010957
0.0362756
0.00282942
0.0370712
0.00769555
0.0388929
0.0069775
0.0408229
0.00784369
0.0430377
0.00700184
0.0451622
0.00650797
0.0472731
0.00566113
0.0493135
0.00487202
0.0512676
0.0041226
0.0531319
0.00355598
0.054872
0.00307065
0.0564946
0.00283715
0.0579855
0.00246118
0.0593685
0.0023519
0.0606593
0.00183368
0.0618902
0.00163232
0.0630926
0.000972799
0.0642541
0.000774683
0.000189171
0.0039429
-0.0028472
0.00447411
0.00229821
0.00554361
0.00662605
0.00654857
0.00597254
0.00768832
0.00670394
0.00873549
0.00595467
0.00974208
0.00550138
0.010675
0.00472821
0.0115454
0.00400162
0.0123498
0.00331819
0.013097
0.00280876
0.0137803
0.00238738
0.0144132
0.00220427
0.0149829
0.00189143
0.0155223
0.00181254
0.0159987
0.00135727
0.0164797
0.00115128
0.0168926
0.000559937
0.0173418
0.000325522
-0.000193244
0.00170558
-0.00455278
0.00230618
0.00169761
0.00364354
0.00528869
0.00483747
0.0047786
0.00618547
0.00535595
0.00739708
0.00474306
0.00855593
0.00434254
0.0096165
0.00366764
0.0105979
0.00302023
0.0114971
0.00241899
0.0123269
0.00197899
0.0130816
0.00163262
0.0137794
0.00150643
0.014406
0.00126493
0.0149995
0.00121901
0.0155216
0.000835142
0.0160481
0.000624839
0.0164946
0.000113406
0.0169812
-0.000161095
-0.000597034
9.17952e-05
-0.00464458
0.000637885
0.00115152
0.00213915
0.00378743
0.00348786
0.00342989
0.00499313
0.00385067
0.00634069
0.0033955
0.00762183
0.0030614
0.00878729
0.00250218
0.00985931
0.00194822
0.0108359
0.00144241
0.0117328
0.00108206
0.0125457
0.00081971
0.0132966
0.000755569
0.0139701
0.00059145
0.0146081
0.000580998
0.0151692
0.000274007
0.0157321
6.19788e-05
0.0162084
-0.000362955
0.0167223
-0.000674974
-0.00102169
-0.00105488
-0.0035897
-0.00051334
0.000609985
0.00107839
0.0021957
0.00253216
0.00197612
0.00415001
0.00223282
0.0055969
0.00194861
0.00696842
0.00168987
0.00821196
0.00125865
0.00935134
0.000808835
0.0103852
0.000408582
0.0113316
0.000135609
0.0121873
-3.60201e-05
0.0129777
-3.4787e-05
0.0136865
-0.000117346
0.0143585
-9.09611e-05
0.0149497
-0.000317224
0.0155403
-0.000528622
0.0160395
-0.000862135
0.0165732
-0.00120871
-0.00146108
-0.00165595
-0.00193375
-0.00114268
9.67131e-05
0.000486688
0.000566341
0.00199771
0.0004651
0.00368166
0.000548872
0.00518879
0.000441477
0.00661608
0.000262583
0.00790823
-3.35078e-05
0.00908936
-0.000372289
0.0101583
-0.000660362
0.0111348
-0.000840939
0.0120166
-0.000917749
0.0128315
-0.00084975
0.0135628
-0.000848643
0.0142571
-0.000785198
0.0148686
-0.000928704
0.0154773
-0.00113741
0.0159916
-0.00137644
0.0165373
-0.00175434
-0.0019087
-0.00176508
-0.000168674
-0.00126449
-0.000403872
0.000373765
-0.00107192
0.00190016
-0.0010613
0.00360259
-0.00115356
0.00512928
-0.00108521
0.00657601
-0.00118415
0.00788569
-0.00134319
0.00908148
-0.00156808
0.0101622
-0.00174105
0.0111484
-0.00182715
0.0120384
-0.00180777
0.0128623
-0.00167362
0.0136025
-0.00158889
0.0143067
-0.00148934
0.0149279
-0.00154995
0.0155448
-0.00175431
0.0160661
-0.00189772
0.0166154
-0.00230362
-0.00235785
-0.00139575
0.00122707
-0.000875396
-0.000924222
0.00074068
-0.00268799
0.00224326
-0.00256388
0.00391591
-0.00282621
0.00542075
-0.00259005
0.0068499
-0.0026133
0.00814539
-0.00263868
0.00932827
-0.00275096
0.0103969
-0.00280971
0.0113721
-0.00280229
0.0122524
-0.00268816
0.0130693
-0.00249043
0.0138047
-0.0023243
0.0145061
-0.00219074
0.0151264
-0.00217024
0.0157411
-0.00236906
0.016261
-0.00241765
0.0168057
-0.00284829
-0.0028018
-0.000530214
0.00175729
-2.26434e-07
-0.00145421
0.00158669
-0.00427491
0.00301868
-0.00399587
0.00461323
-0.00442076
0.00605498
-0.0040318
0.00742985
-0.00398817
0.0086798
-0.00388863
0.00982262
-0.00389378
0.010856
-0.00384305
0.0117998
-0.00374608
0.012653
-0.00354137
0.0134471
-0.00328457
0.0141641
-0.00304133
0.0148503
-0.00287693
0.015459
-0.00277894
0.0160615
-0.00297152
0.0165719
-0.00292807
0.0171039
-0.00338027
-0.00323412
0.000812843
0.000944444
0.00145167
-0.00209304
0.00289621
-0.00571945
0.00420612
-0.00530578
0.00567483
-0.00588947
0.00701333
-0.0053703
0.0082986
-0.00527343
0.00947309
-0.00506312
0.0105501
-0.00497079
0.0115261
-0.00481907
0.0124195
-0.00463946
0.0132291
-0.00435094
0.0139858
-0.0040413
0.0146717
-0.00372718
0.0153308
-0.00353606
0.0159178
-0.00336591
0.0164983
-0.00355209
0.0169914
-0.00342117
0.0175031
-0.00389198
-0.00364875
0.00266859
-0.00172415
0.00338362
-0.00280806
0.00463385
-0.00696968
0.00577791
-0.00644984
0.0070682
-0.00717976
0.00826866
-0.00657075
0.00943022
-0.006435
0.0105021
-0.00613498
0.0114896
-0.00595833
0.0123884
-0.00571784
0.0132141
-0.00546515
0.0139653
-0.00510214
0.0146712
-0.00474718
0.0153144
-0.00437044
0.0159353
-0.00415698
0.0164918
-0.00392237
0.0170407
-0.00410101
0.0175109
-0.00389139
0.0179928
-0.00437384
-0.00404411
0.0161644
-0.00326345
-0.0146251
0.0175179
-0.00416154
0.0192137
-0.00866546
0.0211419
-0.0083781
0.0232226
-0.00926041
0.0254098
-0.00875802
0.0275211
-0.00854627
0.0295444
-0.00815824
0.0314301
-0.00784405
0.0331705
-0.00745824
0.0347844
-0.00707904
0.0362725
-0.00659031
0.0376817
-0.00615637
0.0389916
-0.00568035
0.0402551
-0.00542048
0.0414215
-0.00508871
0.0425379
-0.00521741
0.0435572
-0.00491067
0.0445049
-0.00532157
-0.00493436
0.0396818
0.00579122
-0.0487365
0.0363067
-0.000786427
0.0348839
-0.0072427
0.0348317
-0.00832592
0.0352393
-0.00966803
0.036112
-0.00963071
0.0371252
-0.00955949
0.038227
-0.00926004
0.0393317
-0.00894868
0.0404033
-0.00852992
0.0414375
-0.00811315
0.0424258
-0.00757869
0.0433929
-0.00712342
0.044324
-0.00661144
0.0452418
-0.00633833
0.0461171
-0.00596399
0.0469515
-0.00605177
0.047742
-0.00570117
0.0484531
-0.00603269
-0.00563044
0.0611976
0.0158091
-0.0712155
0.0551873
0.00522389
0.0511835
-0.00323888
0.0491295
-0.00627192
0.0478979
-0.00843649
0.0474142
-0.00914698
0.0473093
-0.00945459
0.0474652
-0.00941592
0.0477681
-0.00925157
0.048154
-0.00891588
0.0485941
-0.00855316
0.0490683
-0.00805298
0.0495786
-0.00763366
0.0501116
-0.00714447
0.0506652
-0.00689192
0.0512242
-0.00652295
0.05176
-0.00658763
0.0522947
-0.00623586
0.0527609
-0.00649882
-0.00611184
0.0738708
0.0219525
-0.0800142
0.0686741
0.0104206
0.0641715
0.00126363
0.061157
-0.00325733
0.058945
-0.00622448
0.0575035
-0.00770556
0.0565528
-0.00850382
0.0559589
-0.00882206
0.0556077
-0.00890042
0.0554247
-0.00873287
0.0553652
-0.00849359
0.0554026
-0.00809043
0.0555191
-0.00775013
0.0557035
-0.00732889
0.0559328
-0.00712122
0.0562044
-0.00679452
0.0564679
-0.0068512
0.0567645
-0.00653241
0.0570054
-0.00673973
-0.00639428
0.0788808
0.0243183
-0.0812466
0.0757062
0.0135952
0.0721557
0.00481414
0.06928
-0.000381665
0.0669194
-0.00386383
0.0651264
-0.00591262
0.0637722
-0.00714961
0.0627643
-0.00781417
0.0620181
-0.00815422
0.0614721
-0.00818681
0.0610802
-0.00810165
0.0608184
-0.00782869
0.0606568
-0.00758856
0.0605882
-0.00726023
0.0605755
-0.00710857
0.0606263
-0.00684529
0.0606779
-0.00690284
0.0607836
-0.00663811
0.0608458
-0.00680188
-0.00651436
0.0796854
0.02448
-0.0798471
0.0782222
0.0150585
0.0759125
0.00712385
0.0737067
0.00182412
0.0716932
-0.00185038
0.070011
-0.00423041
0.0686361
-0.00577464
0.0675313
-0.00670941
0.06665
-0.00727292
0.0659552
-0.00749203
0.0654096
-0.007556
0.0649983
-0.00741738
0.0646874
-0.00727764
0.0644746
-0.00704751
0.0643169
-0.00695086
0.0642284
-0.00675676
0.0641432
-0.00681762
0.0641193
-0.00661428
0.0640616
-0.00674413
-0.00651944
0.0788934
0.0237425
-0.0781559
0.0784303
0.0155216
0.0770856
0.00846855
0.0755553
0.00335436
0.074027
-0.000322077
0.0726504
-0.00285381
0.0714587
-0.00458291
0.0704524
-0.00570311
0.0696127
-0.00643324
0.0689251
-0.0068044
0.0683626
-0.00699354
0.0679205
-0.00697529
0.0675663
-0.00692343
0.0673021
-0.00678329
0.0670847
-0.00673344
0.0669311
-0.00660317
0.0667792
-0.00666574
0.0666852
-0.00652021
0.0665644
-0.00662333
-0.00645669
0.0777847
0.0227713
-0.0768136
0.0777765
0.0155298
0.0770157
0.00922937
0.075979
0.00439102
0.0748647
0.000792231
0.0737997
-0.00178878
0.0728396
-0.00362286
0.0720017
-0.00486515
0.0712818
-0.00571334
0.0706795
-0.00620206
0.0701756
-0.00648972
0.0697724
-0.00657204
0.069441
-0.00659209
0.0691858
-0.00652805
0.0689674
-0.00651505
0.0688021
-0.00643786
0.0686359
-0.00649955
0.0685177
-0.00640202
0.0683784
-0.00648401
-0.00636479
0.0767796
0.0217983
-0.0758066
0.0769404
0.015369
0.0764914
0.00967839
0.0757644
0.00511802
0.0749364
0.00162017
0.0741149
-0.00096728
0.0733544
-0.00286232
0.0726782
-0.00418897
0.0720878
-0.00512294
0.0715893
-0.00570357
0.0711684
-0.00606878
0.07083
-0.0062337
0.0705499
-0.00631202
0.0703321
-0.0063102
0.070143
-0.006326
0.0699956
-0.00629044
0.0698459
-0.00634978
0.0697325
-0.00628872
0.0696029
-0.00635434
-0.00627023
0.0759327
0.0208793
-0.0750137
0.0761506
0.0151511
0.0758664
0.00996256
0.0753257
0.0056588
0.0746828
0.00226305
0.0740306
-0.000315057
0.0734176
-0.00224938
0.0728687
-0.00364
0.0723866
-0.0046409
0.0719797
-0.00529669
0.0716365
-0.00572556
0.0713621
-0.00595933
0.0711366
-0.00608644
0.0709619
-0.00613555
0.0708111
-0.00617516
0.0706923
-0.00617166
0.0705714
-0.00622889
0.0704767
-0.00619404
0.07037
-0.00624761
-0.00618763
0.0752065
0.020027
-0.0743542