/*--------------------------------*- C++ -*----------------------------------*\
| =========                 |                                                 |
| \\      /  F ield         | OpenFOAM: The Open Source CFD Toolbox           |
|  \\    /   O peration     | Version:  v1806                                 |
|   \\  /    A nd           | Web:      www.OpenFOAM.com                      |
|    \\/     M anipulation  |                                                 |
\*---------------------------------------------------------------------------*/
FoamFile
{
    version     2.0;
    format      ascii;
    class       volScalarField;
    location    "8";
    object      p;
}
// * * * * * * * * * * * * * * * * * * * * * * * * * * * * * * * * * * * * * //

dimensions      [0 2 -2 0 0 0 0];


internalField   nonuniform List<scalar> 
24000
(
15.9823
15.0587
14.4813
14.0542
13.6549
13.279
12.9315
12.6092
12.3035
12.0067
11.7128
11.4173
11.1174
10.8111
10.4973
10.1757
9.84657
9.5109
9.17018
8.82653
15.759
14.9882
14.4555
14.0403
13.6502
13.2789
12.9322
12.6096
12.3044
12.0088
11.7163
11.4226
11.1239
10.8183
10.5045
10.1824
9.85201
9.51457
9.17173
8.82565
15.7029
14.9708
14.4538
14.0433
13.6572
13.2897
12.9457
12.625
12.3214
12.0273
11.7365
11.4441
11.1462
10.8406
10.5261
10.202
9.86882
9.52741
9.17992
8.82827
15.6443
14.9374
14.4389
14.0387
13.6595
13.2972
12.9577
12.6413
12.3409
12.0499
11.7617
11.4713
11.1746
10.8693
10.5536
10.2272
9.88969
9.54311
9.18876
8.82974
15.6161
14.9244
14.4381
14.0459
13.6722
13.3142
12.9785
12.6658
12.3689
12.0811
11.7956
11.5073
11.2119
10.9063
10.5892
10.2592
9.91649
9.56258
9.19953
8.82954
15.6015
14.9183
14.4394
14.0536
13.6859
13.333
13.0024
12.6947
12.4019
12.1184
11.8362
11.5508
11.2567
10.9511
10.6323
10.2982
9.94849
9.58596
9.21137
8.82827
15.5984
14.9222
14.4484
14.0684
13.7061
13.3579
13.0325
12.73
12.4418
12.1634
11.885
11.6033
11.3108
11.0055
10.685
10.3456
9.98779
9.61447
9.22572
8.82556
15.6038
14.9343
14.4632
14.0884
13.7311
13.3878
13.068
12.7712
12.4883
12.216
11.9418
11.6655
11.3744
11.0705
10.7483
10.4027
10.0355
9.64933
9.243
8.82163
15.6156
14.9538
14.4832
14.1138
13.7609
13.4229
13.1092
12.8187
12.5418
12.2767
12.0073
11.7385
11.4485
11.1486
10.8241
10.4721
10.094
9.69254
9.26477
8.81689
15.6326
14.9797
14.5078
14.1442
13.7949
13.4633
13.1557
12.8724
12.6024
12.3457
12.0821
11.8233
11.5336
11.2423
10.9136
10.5569
10.1656
9.74611
9.29328
8.81188
15.6537
15.0105
14.5361
14.1791
13.8324
13.5088
13.2066
12.9323
12.6697
12.4228
12.1663
11.9203
11.63
11.3545
11.0171
10.6628
10.2523
9.81349
9.33119
8.80818
15.6782
15.0441
14.5672
14.2174
13.8723
13.5589
13.2606
12.998
12.7427
12.5076
12.2599
12.0288
11.7381
11.4866
11.1339
10.7966
10.3558
9.89917
9.38203
8.80659
15.7052
15.0788
14.6
14.2577
13.9138
13.6124
13.3164
13.0686
12.8196
12.5991
12.362
12.1465
11.8583
11.6371
11.2623
10.9637
10.4795
10.0145
9.45132
8.81285
15.7341
15.113
14.6336
14.2991
13.9566
13.6679
13.373
13.1431
12.898
12.6959
12.4705
12.2693
11.9896
11.7999
11.4012
11.1623
10.6286
10.1738
9.55374
8.84878
15.766
15.1453
14.6672
14.3408
14.0013
13.7236
13.4307
13.2203
12.9766
12.7977
12.5827
12.3957
12.132
11.9644
11.5544
11.3744
10.7988
10.3832
9.68803
8.94348
15.8044
15.174
14.7008
14.3816
14.0499
13.7771
13.4938
13.2963
13.0605
12.9031
12.699
12.5312
12.2887
12.1315
11.7401
11.5844
10.9804
10.6067
9.81259
8.997
15.8491
15.1967
14.736
14.4174
14.1026
13.824
13.5643
13.3629
13.1556
13.0043
12.8244
12.6775
12.4713
12.3109
11.9863
11.7925
11.1753
10.7907
9.93362
8.7595
15.896
15.2106
14.7744
14.4467
14.1561
13.8647
13.6373
13.4215
13.2582
13.0994
12.9655
12.8271
12.6857
12.5147
12.2934
12.0223
11.4732
10.9403
9.90421
8.12642
15.9293
15.2224
14.8097
14.4763
14.205
13.904
13.7072
13.48
13.3633
13.1928
13.1234
12.9802
12.9265
12.7558
12.6594
12.3329
11.9104
11.2383
9.26345
7.00584
15.9537
15.2257
14.8423
14.5033
14.2505
13.9387
13.7756
13.5359
13.4719
13.2838
13.2996
13.1378
13.211
13.0316
13.138
12.7816
12.7812
11.7987
9.64723
6.70508
15.7243
15.0202
14.4749
14.0532
13.6621
13.2898
12.941
12.6161
12.3083
12.0101
11.7149
11.4186
11.118
10.8113
10.4973
10.1757
9.84658
9.51107
9.17057
8.8273
15.5035
14.9559
14.4586
14.0426
13.6585
13.2914
12.9441
12.6189
12.3114
12.0142
11.7205
11.4256
11.126
10.8198
10.5056
10.1834
9.85288
9.51547
9.17296
8.82747
15.4473
14.9394
14.4585
14.0467
13.6658
13.3023
12.9579
12.6349
12.3291
12.0336
11.7417
11.4482
11.1494
10.8431
10.5281
10.2038
9.8703
9.52882
9.18128
8.83024
15.388
14.9052
14.4435
14.0423
13.6679
13.3097
12.9699
12.651
12.3486
12.0561
11.7668
11.4755
11.1779
10.8719
10.5557
10.229
9.89138
9.54463
9.1905
8.83137
15.3594
14.8918
14.4428
14.0497
13.6809
13.3269
12.9909
12.6759
12.3767
12.0874
11.8008
11.5115
11.2152
10.909
10.5915
10.2613
9.91819
9.56424
9.20095
8.83167
15.3445
14.8854
14.4438
14.0573
13.6944
13.3456
13.0146
12.7047
12.4097
12.1247
11.8413
11.555
11.26
10.9538
10.6346
10.3002
9.95021
9.58765
9.21297
8.83084
15.3412
14.8892
14.4527
14.072
13.7146
13.3705
13.0447
12.74
12.4496
12.1698
11.8901
11.6076
11.3141
11.0082
10.6873
10.3475
9.98958
9.61623
9.22748
8.82832
15.3462
14.9012
14.4672
14.0918
13.7395
13.4004
13.0802
12.7813
12.496
12.2224
11.9468
11.6698
11.3777
11.0732
10.7507
10.4045
10.0374
9.65113
9.24482
8.82489
15.3578
14.9209
14.487
14.1171
13.7692
13.4355
13.1213
12.8288
12.5494
12.2833
12.0122
11.743
11.4515
11.1515
10.8264
10.4738
10.0962
9.69408
9.26683
8.82078
15.3746
14.9472
14.5112
14.1475
13.8031
13.476
13.1675
12.8826
12.6099
12.3524
12.0867
11.8284
11.5361
11.2459
10.9155
10.5586
10.1682
9.74688
9.29578
8.81654
15.3955
14.9784
14.5389
14.1825
13.8403
13.5219
13.218
12.9427
12.677
12.4298
12.1706
11.9264
11.6318
11.3598
11.0181
10.6654
10.2547
9.81238
9.33568
8.81331
15.42
15.0126
14.5692
14.2209
13.88
13.5724
13.2716
13.0087
12.75
12.5151
12.2641
12.0363
11.7392
11.4948
11.1336
10.8024
10.3562
9.89538
9.38959
8.81341
15.4469
15.0477
14.6011
14.2614
13.9212
13.6262
13.3269
13.0796
12.8271
12.6069
12.3668
12.1556
11.8589
11.6488
11.2606
10.9749
10.4755
10.0071
9.46048
8.81432
15.4759
15.0818
14.6338
14.3026
13.9639
13.6814
13.3832
13.1536
12.9058
12.703
12.4768
12.2783
11.9903
11.811
11.3975
11.1772
10.6186
10.1633
9.55512
8.83976
15.5084
15.1132
14.6672
14.3436
14.0089
13.7364
13.4412
13.2294
12.985
12.8014
12.591
12.3976
12.1335
11.9659
11.5474
11.3808
10.7823
10.3798
9.66042
8.88219
15.5479
15.1405
14.7018
14.383
14.0586
13.7887
13.5058
13.3038
13.0703
12.9029
12.7096
12.5213
12.2957
12.1122
11.7301
11.5724
10.9424
10.619
9.75373
8.8011
15.5939
15.1609
14.7381
14.4176
14.1119
13.8343
13.5775
13.3695
13.1653
13.0045
12.8337
12.667
12.4838
12.2884
12.0027
11.7699
11.1382
10.79
9.81474
8.42321
15.6426
15.1733
14.7754
14.4465
14.1658
13.8736
13.6498
13.4278
13.2659
13.1022
12.9684
12.8237
12.6889
12.5066
12.3172
12.0019
11.4772
10.9049
9.61239
7.76978
15.6745
15.1849
14.8086
14.4782
14.2137
13.9139
13.7167
13.4885
13.3671
13.1992
13.1188
12.9855
12.911
12.7571
12.6358
12.2928
11.8641
11.0403
8.89044
6.52653
15.6962
15.1878
14.8405
14.5043
14.2593
13.9483
13.7837
13.5436
13.4742
13.2882
13.2926
13.1388
13.1885
13.0289
13.0858
12.7616
12.6518
11.5953
9.22365
4.47824
15.6196
15.0113
14.4851
14.06
13.6745
13.3055
12.9545
12.625
12.3137
12.0134
11.7171
11.4199
11.1186
10.8115
10.4972
10.1755
9.84627
9.51075
9.17031
8.82733
15.4018
14.9516
14.4732
14.0536
13.6727
13.3094
12.9612
12.6322
12.3207
12.0208
11.7252
11.429
11.1284
10.8214
10.5067
10.1842
9.85331
9.51578
9.17262
8.8289
15.3463
14.9355
14.4744
14.0589
13.6803
13.3205
12.9758
12.6491
12.3391
12.0409
11.7471
11.4524
11.1526
10.8456
10.5299
10.2053
9.87136
9.52962
9.18152
8.83208
15.2868
14.9009
14.4598
14.0552
13.6827
13.3279
12.9879
12.6654
12.3589
12.0636
11.7725
11.4799
11.1814
10.8746
10.5579
10.2307
9.89274
9.54589
9.1928
8.83452
15.258
14.8873
14.4591
14.063
13.6959
13.3453
13.0092
12.6907
12.3872
12.095
11.8065
11.5161
11.2188
10.9118
10.5937
10.2631
9.91964
9.5656
9.20162
8.83345
15.243
14.8807
14.4599
14.0705
13.7093
13.3638
13.0328
12.7193
12.4202
12.1323
11.847
11.5595
11.2635
10.9565
10.6369
10.3019
9.95179
9.58902
9.21431
8.83287
15.2395
14.8844
14.4685
14.0851
13.7294
13.3888
13.0629
12.7546
12.4601
12.1773
11.8957
11.6121
11.3175
11.0109
10.6896
10.3493
9.99105
9.61763
9.22807
8.83099
15.2445
14.8965
14.4826
14.1048
13.7542
13.4187
13.0984
12.7957
12.5065
12.2299
11.9524
11.6743
11.3809
11.0758
10.7529
10.4059
10.0389
9.65214
9.24532
8.82793
15.2561
14.9165
14.5019
14.1299
13.7836
13.4542
13.1393
12.8431
12.5599
12.2908
12.0178
11.7476
11.4545
11.154
10.8284
10.4746
10.0977
9.69463
9.26701
8.82467
15.273
14.9432
14.5254
14.1601
13.8172
13.4953
13.1852
12.8969
12.6201
12.3601
12.0922
11.8331
11.5389
11.2482
10.9172
10.5583
10.1698
9.74608
9.29562
8.81965
15.2942
14.9748
14.5523
14.1949
13.8542
13.5419
13.235
12.9571
12.6868
12.4379
12.1757
11.9317
11.6341
11.3619
11.0191
10.6628
10.2564
9.8091
9.3353
8.81743
15.3191
15.0092
14.5819
14.2333
13.8937
13.5932
13.288
13.0235
12.7591
12.5237
12.2685
12.0425
11.7405
11.497
11.133
10.7959
10.3572
9.88933
9.38399
8.80674
15.3463
15.0442
14.6131
14.2738
13.935
13.6475
13.3432
13.0948
12.836
12.6161
12.3706
12.1627
11.8589
11.6505
11.2579
10.961
10.474
9.9978
9.45129
8.79996
15.3751
15.0776
14.6454
14.3147
13.9782
13.703
13.4002
13.169
12.9155
12.7125
12.4807
12.2861
11.9885
11.8133
11.3933
11.1564
10.6104
10.1506
9.52718
8.79438
15.4069
15.1075
14.6792
14.3545
14.0238
13.7571
13.4593
13.2439
12.9959
12.81
12.5942
12.4037
12.1273
11.9699
11.5419
11.367
10.7683
10.3538
9.6048
8.79167
15.4474
15.1323
14.7155
14.392
14.074
13.807
13.5249
13.3156
13.0809
12.906
12.7095
12.5179
12.273
12.1173
11.7125
11.5801
10.9372
10.5856
9.66888
8.66563
15.4971
15.1506
14.7532
14.4256
14.1271
13.8502
13.596
13.3803
13.1752
13.0049
12.8321
12.6565
12.4544
12.2822
11.9464
11.7809
11.1112
10.7751
9.70282
8.29098
15.5483
15.1619
14.7898
14.4559
14.1815
13.889
13.668
13.4386
13.2774
13.1072
12.9716
12.8253
12.6736
12.511
12.2587
12.0107
11.3576
10.8596
9.53669
7.69827
15.5797
15.1748
14.8201
14.4897
14.2274
13.9318
13.731
13.502
13.3741
13.2086
13.1189
12.9945
12.9061
12.7722
12.6004
12.2954
11.6711
10.9118
8.77355
6.75918
15.5977
15.1791
14.8485
14.5161
14.2716
13.9681
13.7967
13.5588
13.4785
13.2981
13.2893
13.1411
13.185
13.0059
13.0759
12.6918
12.6106
11.4879
8.95235
4.02964
15.5394
14.995
14.4868
14.0623
13.6809
13.3153
12.964
12.6318
12.3182
12.0166
11.7194
11.4216
11.1197
10.8122
10.4976
10.1757
9.84644
9.51089
9.17049
8.82764
15.3229
14.9358
14.4773
14.059
13.68
13.32
12.9726
12.6415
12.3275
12.026
11.7295
11.4325
11.131
10.8235
10.5084
10.1856
9.85452
9.51689
9.17323
8.82987
15.2677
14.9197
14.4793
14.0653
13.6878
13.3313
12.9876
12.659
12.3465
12.0465
11.7518
11.4564
11.1559
10.8484
10.5321
10.2072
9.87289
9.53083
9.18214
8.83448
15.2082
14.8849
14.4649
14.062
13.6903
13.3387
12.9998
12.6756
12.3665
12.0695
11.7773
11.4842
11.185
10.8776
10.5603
10.2329
9.8945
9.54746
9.19203
8.83634
15.1793
14.8711
14.4644
14.07
13.7038
13.3562
13.0213
12.7011
12.395
12.101
11.8114
11.5204
11.2223
10.9148
10.5962
10.2653
9.92151
9.56718
9.2026
8.83611
15.1642
14.8644
14.4651
14.0776
13.7171
13.3746
13.0449
12.7296
12.428
12.1383
11.8519
11.5638
11.2671
10.9594
10.6395
10.304
9.95373
9.59095
9.21765
8.83683
15.1607
14.868
14.4735
14.0922
13.7372
13.3997
13.0751
12.7649
12.468
12.1834
11.9006
11.6165
11.321
11.0138
10.6922
10.3512
9.99315
9.61963
9.22943
8.83209
15.1657
14.88
14.4873
14.1119
13.7619
13.4298
13.1105
12.8059
12.5145
12.2359
11.9573
11.6787
11.3841
11.0787
10.7555
10.4076
10.0411
9.65389
9.24588
8.83073
15.1773
14.9
14.5062
14.1369
13.7912
13.4656
13.1514
12.8531
12.5679
12.2967
12.0228
11.7521
11.4575
11.1568
10.8309
10.4755
10.1003
9.69602
9.26752
8.82741
15.1943
14.9269
14.5294
14.1668
13.8246
13.5074
13.1968
12.9069
12.6281
12.366
12.0973
11.8379
11.5415
11.2511
10.9192
10.5581
10.173
9.74604
9.29471
8.82383
15.2158
14.9586
14.5558
14.2014
13.8613
13.5547
13.2461
12.9672
12.6943
12.4441
12.1805
11.9368
11.6361
11.3649
11.0202
10.6608
10.2608
9.80609
9.33117
8.82043
15.2409
14.9929
14.585
14.2397
13.9007
13.6065
13.2984
13.034
12.7658
12.5306
12.2723
12.0484
11.7412
11.5002
11.1323
10.7918
10.3638
9.88136
9.37935
8.81092
15.2686
15.0276
14.616
14.2801
13.9424
13.6612
13.3535
13.1055
12.8418
12.6236
12.3726
12.1692
11.8567
11.6543
11.2541
10.9558
10.4809
9.98484
9.44451
8.79141
15.2981
15.0602
14.6487
14.3204
13.9865
13.7165
13.4115
13.1795
12.9214
12.7201
12.4803
12.2922
11.9826
11.8173
11.3875
11.1507
10.6116
10.1326
9.5242
8.7729
15.3308
15.0882
14.684
14.3589
14.0331
13.7693
13.4724
13.2527
13.0036
12.8166
12.5931
12.4089
12.1179
11.975
11.5378
11.3637
10.7575
10.3326
9.57513
8.72157
15.3725
15.1091
14.7226
14.3941
14.084
13.8158
13.5398
13.3213
13.0913
12.9099
12.7094
12.5214
12.2635
12.1251
11.7154
11.5761
10.9248
10.5636
9.58247
8.57349
15.4244
15.124
14.7614
14.4266
14.1371
13.8567
13.6105
13.3851
13.1868
13.0062
12.8372
12.6552
12.4468
12.2893
11.9498
11.7772
11.1101
10.7711
9.58243
8.29601
15.4771
15.139
14.7963
14.458
14.1918
13.8967
13.6824
13.4454
13.2916
13.1113
12.9858
12.8306
12.6879
12.5194
12.2732
11.9946
11.3488
10.883
9.48252
8.16357
15.5062
15.1579
14.8232
14.4964
14.2346
13.9458
13.7417
13.5172
13.3831
13.2227
13.1307
13.0126
12.9275
12.7854
12.6178
12.2644
11.6754
10.8456
8.94787
7.36396
15.517
15.1667
14.8467
14.5254
14.2746
13.9871
13.8017
13.5788
13.4803
13.3185
13.2904
13.1633
13.1915
13.0063
13.0825
12.631
12.6533
11.2666
9.71639
3.72707
15.5007
14.9872
14.4889
14.0644
13.6844
13.3205
12.9693
12.636
12.3209
12.0185
11.7208
11.4226
11.1204
10.8126
10.4979
10.176
9.84668
9.51112
9.17072
8.82788
15.2848
14.9283
14.4807
14.063
13.6841
13.3256
12.9788
12.6469
12.3316
12.0291
11.732
11.4345
11.1327
10.8247
10.5095
10.1864
9.85556
9.51806
9.1765
8.83043
15.2298
14.9123
14.4833
14.0698
13.692
13.337
12.9941
12.6648
12.3509
12.0499
11.7546
11.4587
11.1578
10.85
10.5334
10.2083
9.87389
9.53188
9.18297
8.83501
15.1702
14.8774
14.4691
14.0665
13.6947
13.3444
13.0063
12.6814
12.3711
12.0729
11.7802
11.4866
11.1871
10.8791
10.5618
10.2339
9.89579
9.54937
9.19817
8.83711
15.1414
14.8635
14.4686
14.0747
13.7082
13.362
13.0279
12.7071
12.3996
12.1046
11.8143
11.5229
11.2244
10.9165
10.5976
10.2666
9.92263
9.56825
9.20295
8.83698
15.1263
14.8566
14.4692
14.0823
13.7216
13.3803
13.0515
12.7356
12.4327
12.1418
11.8548
11.5663
11.2691
10.9611
10.641
10.3052
9.9549
9.59203
9.21583
8.83609
15.1227
14.8602
14.4775
14.097
13.7417
13.4055
13.0817
12.7709
12.4727
12.1869
11.9035
11.619
11.323
11.0154
10.6938
10.3522
9.99451
9.62132
9.2346
8.83488
15.1276
14.8722
14.4912
14.1168
13.7663
13.4357
13.1172
12.8118
12.5192
12.2394
11.9602
11.6813
11.3859
11.0804
10.7569
10.4085
10.0425
9.65538
9.24642
8.82963
15.1393
14.8922
14.5099
14.1417
13.7955
13.4717
13.1579
12.8589
12.5727
12.3001
12.0258
11.7546
11.4592
11.1584
10.8323
10.4758
10.1021
9.69742
9.27233
8.82899
15.1563
14.9191
14.5328
14.1716
13.8288
13.5138
13.2032
12.9127
12.6328
12.3695
12.1003
11.8404
11.5429
11.2527
10.9202
10.5581
10.1747
9.74627
9.29445
8.8252
15.1778
14.951
14.559
14.206
13.8653
13.5615
13.2522
12.9732
12.6988
12.4478
12.1835
11.9395
11.6374
11.3664
11.021
10.6597
10.263
9.80447
9.32951
8.82304
15.203
14.9853
14.588
14.2442
13.9047
13.6136
13.3043
13.0401
12.7697
12.5347
12.2745
12.0515
11.742
11.5016
11.1329
10.7893
10.3669
9.87735
9.37814
8.81389
15.2309
15.0197
14.6189
14.2846
13.9466
13.6684
13.3594
13.1116
12.845
12.6281
12.3734
12.1729
11.8562
11.6559
11.2542
10.9527
10.4841
9.97932
9.43932
8.78673
15.2609
15.052
14.6519
14.3246
13.9911
13.7236
13.4179
13.1852
12.9246
12.7248
12.4796
12.2961
11.98
11.82
11.388
11.1475
10.6142
10.1241
9.51713
8.75467
15.2942
15.0791
14.6881
14.3626
14.0383
13.776
13.48
13.2577
13.008
12.8208
12.5918
12.4136
12.1141
11.9818
11.5397
11.364
10.7581
10.3214
9.56026
8.68159
15.3366
15.0983
14.728
14.3972
14.0898
13.8212
13.5485
13.325
13.098
12.9135
12.7108
12.529
12.2641
12.1399
11.7207
11.5814
10.9213
10.5512
9.54716
8.5214
15.3897
15.1117
14.7678
14.4284
14.1437
13.8611
13.6195
13.3891
13.1959
13.0097
12.8442
12.6623
12.4533
12.3075
11.9567
11.7807
11.1074
10.7617
9.52604
8.26417
15.4433
15.1282
14.8017
14.4601
14.199
13.9013
13.6928
13.4513
13.3042
13.1158
13.0039
12.8386
12.7125
12.5337
12.2864
11.9955
11.3425
10.8915
9.44788
8.16079
15.4719
15.1508
14.8275
14.5016
14.2407
13.955
13.7509
13.5287
13.3939
13.2355
13.1494
13.0295
12.9591
12.801
12.6464
12.2735
11.7053
10.8557
8.96187
7.39066
15.4796
15.1622
14.8486
14.5327
14.2786
13.9995
13.8075
13.5919
13.484
13.3327
13.2974
13.1781
13.2086
13.0056
13.1095
12.5901
12.6859
11.2055
9.92346
3.55078
15.5007
14.9872
14.4889
14.0644
13.6844
13.3205
12.9693
12.636
12.3209
12.0185
11.7208
11.4226
11.1204
10.8126
10.4979
10.176
9.84669
9.51113
9.17072
8.82787
15.2848
14.9283
14.4807
14.063
13.6841
13.3256
12.9788
12.6469
12.3316
12.0291
11.732
11.4345
11.1327
10.8247
10.5095
10.1864
9.85561
9.51824
9.17703
8.83029
15.2298
14.9123
14.4833
14.0698
13.692
13.337
12.9941
12.6648
12.3509
12.0499
11.7546
11.4587
11.1578
10.85
10.5334
10.2083
9.87389
9.53188
9.18293
8.83499
15.1702
14.8774
14.4691
14.0665
13.6947
13.3444
13.0063
12.6814
12.3711
12.0729
11.7802
11.4866
11.1871
10.8791
10.5618
10.2339
9.8958
9.54938
9.19805
8.83711
15.1414
14.8635
14.4686
14.0747
13.7082
13.362
13.0279
12.7071
12.3996
12.1045
11.8143
11.5229
11.2244
10.9165
10.5976
10.2666
9.92275
9.56858
9.20326
8.83641
15.1263
14.8566
14.4692
14.0823
13.7216
13.3803
13.0515
12.7356
12.4327
12.1418
11.8548
11.5663
11.2692
10.9611
10.641
10.3051
9.95497
9.59279
9.22083
8.83745
15.1227
14.8602
14.4775
14.097
13.7417
13.4055
13.0817
12.7709
12.4727
12.1869
11.9035
11.619
11.323
11.0155
10.6937
10.3523
9.99428
9.62067
9.23007
8.83387
15.1276
14.8722
14.4912
14.1168
13.7663
13.4357
13.1172
12.8118
12.5192
12.2394
11.9602
11.6813
11.386
11.0804
10.7569
10.4085
10.0424
9.65501
9.24614
8.83054
15.1393
14.8922
14.5099
14.1417
13.7955
13.4717
13.1579
12.8589
12.5727
12.3001
12.0258
11.7546
11.4593
11.1584
10.8323
10.4758
10.1021
9.69737
9.2724
8.82891
15.1563
14.9191
14.5328
14.1716
13.8288
13.5138
13.2032
12.9127
12.6328
12.3695
12.1003
11.8404
11.5429
11.2527
10.9202
10.5581
10.1747
9.74628
9.29442
8.82515
15.1778
14.951
14.559
14.206
13.8653
13.5615
13.2522
12.9732
12.6988
12.4478
12.1835
11.9395
11.6374
11.3664
11.021
10.6597
10.263
9.80446
9.32949
8.82302
15.203
14.9853
14.588
14.2442
13.9047
13.6136
13.3043
13.0401
12.7697
12.5347
12.2745
12.0515
11.742
11.5016
11.1329
10.7893
10.3669
9.87735
9.37813
8.81388
15.2309
15.0197
14.6189
14.2846
13.9466
13.6684
13.3594
13.1116
12.845
12.6281
12.3734
12.1729
11.8562
11.6559
11.2542
10.9527
10.4841
9.97932
9.43932
8.78673
15.2609
15.052
14.6519
14.3246
13.9911
13.7236
13.4179
13.1852
12.9246
12.7248
12.4796
12.2961
11.98
11.82
11.388
11.1475
10.6142
10.1241
9.51713
8.75467
15.2942
15.0791
14.6881
14.3626
14.0383
13.776
13.48
13.2577
13.008
12.8208
12.5918
12.4136
12.1141
11.9818
11.5397
11.364
10.7581
10.3214
9.56025
8.68159
15.3366
15.0983
14.728
14.3972
14.0898
13.8212
13.5485
13.325
13.098
12.9135
12.7108
12.529
12.2641
12.1399
11.7207
11.5814
10.9213
10.5512
9.54715
8.52139
15.3897
15.1117
14.7678
14.4284
14.1437
13.8611
13.6195
13.3891
13.1959
13.0097
12.8442
12.6623
12.4533
12.3075
11.9567
11.7807
11.1074
10.7618
9.52603
8.26418
15.4433
15.1282
14.8017
14.4601
14.199
13.9013
13.6928
13.4513
13.3042
13.1158
13.0039
12.8386
12.7125
12.5337
12.2864
11.9955
11.3425
10.8915
9.44785
8.16085
15.4719
15.1508
14.8275
14.5016
14.2407
13.955
13.7509
13.5287
13.3939
13.2355
13.1494
13.0295
12.9591
12.801
12.6464
12.2735
11.7053
10.8557
8.96186
7.39059
15.4796
15.1622
14.8486
14.5327
14.2786
13.9995
13.8075
13.5919
13.484
13.3327
13.2974
13.1781
13.2086
13.0056
13.1095
12.5901
12.686
11.2055
9.92353
3.5508
15.5394
14.995
14.4868
14.0623
13.6809
13.3153
12.964
12.6318
12.3182
12.0166
11.7194
11.4216
11.1197
10.8122
10.4976
10.1757
9.84645
9.51089
9.17048
8.82763
15.3229
14.9358
14.4773
14.059
13.68
13.32
12.9726
12.6415
12.3275
12.026
11.7295
11.4325
11.131
10.8235
10.5084
10.1857
9.85456
9.51692
9.17316
8.82971
15.2677
14.9197
14.4793
14.0653
13.6878
13.3313
12.9876
12.659
12.3465
12.0465
11.7518
11.4564
11.1559
10.8484
10.5321
10.2072
9.87289
9.53083
9.18218
8.83457
15.2082
14.8849
14.4649
14.062
13.6903
13.3387
12.9998
12.6756
12.3665
12.0695
11.7773
11.4842
11.185
10.8776
10.5603
10.2329
9.8945
9.54743
9.19207
8.8363
15.1793
14.8711
14.4644
14.07
13.7038
13.3562
13.0213
12.7011
12.395
12.101
11.8114
11.5204
11.2223
10.9148
10.5962
10.2654
9.92154
9.56719
9.20237
8.83605
15.1642
14.8644
14.4651
14.0776
13.7171
13.3746
13.0449
12.7296
12.428
12.1383
11.8519
11.5638
11.2671
10.9595
10.6395
10.304
9.95372
9.59082
9.21584
8.83565
15.1607
14.868
14.4735
14.0922
13.7372
13.3997
13.0751
12.7649
12.468
12.1834
11.9006
11.6165
11.321
11.0139
10.6922
10.3512
9.99295
9.61929
9.22901
8.834
15.1657
14.88
14.4873
14.1119
13.7619
13.4298
13.1105
12.8059
12.5145
12.2359
11.9573
11.6787
11.3841
11.0787
10.7555
10.4075
10.0411
9.65372
9.24605
8.83113
15.1773
14.9
14.5062
14.1369
13.7912
13.4656
13.1514
12.8531
12.5679
12.2967
12.0228
11.7521
11.4575
11.1568
10.8308
10.4755
10.1003
9.69604
9.26757
8.82739
15.1943
14.9269
14.5294
14.1668
13.8246
13.5074
13.1968
12.9069
12.6281
12.366
12.0973
11.8379
11.5415
11.2511
10.9192
10.5581
10.173
9.74604
9.29468
8.8238
15.2158
14.9586
14.5558
14.2014
13.8613
13.5547
13.2461
12.9672
12.6943
12.4441
12.1805
11.9368
11.6361
11.3649
11.0202
10.6608
10.2608
9.80608
9.33116
8.82044
15.2409
14.9929
14.585
14.2397
13.9007
13.6065
13.2984
13.034
12.7658
12.5306
12.2723
12.0484
11.7412
11.5003
11.1323
10.7918
10.3638
9.88136
9.37934
8.81093
15.2686
15.0276
14.616
14.2801
13.9424
13.6612
13.3535
13.1055
12.8418
12.6236
12.3726
12.1692
11.8567
11.6543
11.2541
10.9558
10.4809
9.98485
9.44451
8.79141
15.2981
15.0602
14.6487
14.3204
13.9865
13.7165
13.4115
13.1795
12.9214
12.7201
12.4803
12.2922
11.9826
11.8173
11.3875
11.1507
10.6116
10.1326
9.5242
8.7729
15.3308
15.0882
14.684
14.3589
14.0331
13.7693
13.4724
13.2527
13.0036
12.8166
12.5931
12.4089
12.1179
11.975
11.5378
11.3637
10.7575
10.3326
9.57511
8.72156
15.3725
15.1091
14.7226
14.3941
14.084
13.8158
13.5398
13.3213
13.0913
12.9099
12.7094
12.5214
12.2635
12.1251
11.7154
11.5761
10.9248
10.5637
9.58246
8.57348
15.4244
15.124
14.7614
14.4266
14.1371
13.8567
13.6105
13.3851
13.1868
13.0062
12.8372
12.6552
12.4468
12.2893
11.9498
11.7772
11.1101
10.7711
9.58241
8.29603
15.4771
15.139
14.7963
14.458
14.1918
13.8967
13.6824
13.4454
13.2916
13.1113
12.9858
12.8306
12.6879
12.5194
12.2732
11.9946
11.3489
10.883
9.48245
8.16363
15.5062
15.1579
14.8232
14.4964
14.2346
13.9458
13.7417
13.5172
13.3831
13.2227
13.1307
13.0127
12.9275
12.7854
12.6178
12.2644
11.6754
10.8456
8.94789
7.36417
15.517
15.1667
14.8467
14.5254
14.2746
13.9871
13.8017
13.5788
13.4803
13.3185
13.2904
13.1633
13.1915
13.0063
13.0824
12.631
12.6533
11.2666
9.7165
3.72717
15.6196
15.0113
14.4851
14.06
13.6745
13.3055
12.9545
12.625
12.3137
12.0134
11.7171
11.4199
11.1186
10.8115
10.4972
10.1755
9.84627
9.51075
9.17031
8.82733
15.4018
14.9516
14.4732
14.0536
13.6727
13.3094
12.9612
12.6322
12.3207
12.0208
11.7252
11.429
11.1284
10.8214
10.5067
10.1842
9.85332
9.51578
9.1726
8.82887
15.3463
14.9355
14.4744
14.0589
13.6803
13.3205
12.9758
12.6491
12.3391
12.0409
11.7471
11.4524
11.1526
10.8456
10.5299
10.2053
9.87136
9.52962
9.18155
8.83213
15.2868
14.9009
14.4598
14.0552
13.6827
13.3279
12.9879
12.6654
12.3589
12.0636
11.7725
11.4799
11.1814
10.8746
10.5579
10.2307
9.89272
9.54584
9.19253
8.83457
15.258
14.8873
14.4591
14.063
13.6959
13.3453
13.0092
12.6907
12.3872
12.095
11.8065
11.5161
11.2188
10.9118
10.5937
10.2631
9.91962
9.56553
9.20165
8.83375
15.243
14.8807
14.4599
14.0705
13.7093
13.3638
13.0328
12.7193
12.4202
12.1323
11.847
11.5595
11.2635
10.9565
10.6368
10.302
9.95167
9.58891
9.21415
8.8339
15.2395
14.8844
14.4685
14.0851
13.7294
13.3888
13.0629
12.7546
12.4601
12.1773
11.8957
11.6121
11.3175
11.0109
10.6896
10.3492
9.99103
9.61746
9.22834
8.83124
15.2445
14.8965
14.4826
14.1048
13.7542
13.4187
13.0984
12.7957
12.5065
12.2299
11.9524
11.6743
11.3809
11.0758
10.7529
10.4059
10.0389
9.65213
9.24538
8.82804
15.2561
14.9165
14.5019
14.1299
13.7836
13.4542
13.1393
12.8431
12.5599
12.2908
12.0178
11.7476
11.4545
11.154
10.8284
10.4746
10.0977
9.69463
9.26701
8.82469
15.273
14.9432
14.5254
14.1601
13.8172
13.4953
13.1852
12.8969
12.6201
12.3601
12.0922
11.8331
11.5389
11.2482
10.9171
10.5583
10.1698
9.74607
9.29561
8.81966
15.2942
14.9748
14.5523
14.1949
13.8542
13.5419
13.235
12.9571
12.6868
12.4379
12.1757
11.9317
11.6341
11.3619
11.0191
10.6628
10.2564
9.80909
9.3353
8.81744
15.3191
15.0092
14.5819
14.2333
13.8937
13.5932
13.288
13.0235
12.7591
12.5237
12.2685
12.0425
11.7405
11.497
11.133
10.7959
10.3572
9.88933
9.38399
8.80674
15.3463
15.0442
14.6131
14.2738
13.935
13.6475
13.3432
13.0948
12.836
12.6161
12.3706
12.1627
11.8589
11.6505
11.2579
10.961
10.474
9.99781
9.45129
8.79996
15.3751
15.0776
14.6454
14.3147
13.9782
13.703
13.4002
13.169
12.9155
12.7125
12.4807
12.2861
11.9885
11.8133
11.3933
11.1564
10.6104
10.1506
9.52718
8.79438
15.4069
15.1075
14.6792
14.3545
14.0238
13.7571
13.4593
13.2439
12.9959
12.81
12.5942
12.4037
12.1273
11.9699
11.5419
11.367
10.7683
10.3538
9.60479
8.79166
15.4474
15.1323
14.7155
14.392
14.074
13.807
13.5249
13.3156
13.0809
12.906
12.7095
12.5179
12.273
12.1173
11.7125
11.5802
10.9372
10.5857
9.66886
8.66562
15.4971
15.1506
14.7532
14.4256
14.1271
13.8502
13.596
13.3803
13.1752
13.005
12.8321
12.6565
12.4544
12.2822
11.9465
11.7809
11.1112
10.7752
9.70279
8.29103
15.5483
15.1619
14.7898
14.4559
14.1815
13.889
13.668
13.4386
13.2774
13.1072
12.9716
12.8253
12.6736
12.511
12.2587
12.0107
11.3576
10.8596
9.53658
7.69848
15.5797
15.1748
14.8201
14.4897
14.2274
13.9318
13.731
13.502
13.3741
13.2086
13.1189
12.9945
12.9061
12.7722
12.6004
12.2954
11.6711
10.9118
8.77341
6.75937
15.5977
15.1791
14.8485
14.5161
14.2716
13.9681
13.7967
13.5588
13.4785
13.2981
13.2893
13.1411
13.1849
13.0059
13.0759
12.6918
12.6107
11.488
8.95249
4.02969
15.7243
15.0202
14.4749
14.0532
13.6621
13.2898
12.941
12.6161
12.3083
12.0101
11.7149
11.4186
11.118
10.8113
10.4973
10.1757
9.84658
9.51107
9.17058
8.8273
15.5035
14.9559
14.4586
14.0426
13.6585
13.2914
12.9441
12.6189
12.3114
12.0142
11.7205
11.4256
11.126
10.8198
10.5056
10.1834
9.85288
9.51548
9.17297
8.82748
15.4473
14.9394
14.4585
14.0467
13.6658
13.3023
12.9579
12.6349
12.3291
12.0336
11.7417
11.4482
11.1494
10.8431
10.5281
10.2038
9.8703
9.52882
9.18129
8.83025
15.388
14.9052
14.4435
14.0423
13.6679
13.3097
12.9699
12.651
12.3486
12.0561
11.7668
11.4755
11.1779
10.8719
10.5557
10.229
9.89137
9.54462
9.19054
8.83142
15.3594
14.8918
14.4428
14.0497
13.6809
13.3269
12.9909
12.6759
12.3767
12.0874
11.8008
11.5115
11.2152
10.909
10.5915
10.2612
9.91818
9.56423
9.20099
8.83163
15.3445
14.8854
14.4438
14.0573
13.6944
13.3456
13.0146
12.7047
12.4097
12.1247
11.8413
11.555
11.26
10.9538
10.6346
10.3001
9.95021
9.5876
9.21308
8.8308
15.3412
14.8892
14.4527
14.072
13.7146
13.3705
13.0447
12.74
12.4496
12.1698
11.8901
11.6076
11.3141
11.0082
10.6873
10.3475
9.98956
9.61622
9.22747
8.82837
15.3462
14.9012
14.4672
14.0918
13.7395
13.4004
13.0802
12.7813
12.496
12.2224
11.9468
11.6698
11.3776
11.0732
10.7507
10.4045
10.0374
9.65112
9.24481
8.82493
15.3578
14.9209
14.487
14.1171
13.7692
13.4355
13.1213
12.8288
12.5494
12.2833
12.0122
11.743
11.4515
11.1515
10.8264
10.4738
10.0961
9.69407
9.26683
8.82081
15.3746
14.9472
14.5112
14.1475
13.8031
13.476
13.1675
12.8826
12.6099
12.3524
12.0867
11.8284
11.5361
11.2459
10.9155
10.5586
10.1682
9.74688
9.29579
8.81655
15.3955
14.9784
14.5389
14.1825
13.8403
13.5219
13.218
12.9427
12.677
12.4298
12.1706
11.9264
11.6318
11.3598
11.0181
10.6654
10.2547
9.81238
9.33569
8.81332
15.42
15.0126
14.5692
14.2209
13.88
13.5724
13.2716
13.0087
12.75
12.5151
12.2641
12.0363
11.7392
11.4948
11.1336
10.8024
10.3562
9.89539
9.38959
8.81341
15.4469
15.0477
14.6011
14.2614
13.9212
13.6262
13.3269
13.0796
12.8271
12.6069
12.3668
12.1556
11.8589
11.6488
11.2606
10.9749
10.4755
10.0071
9.46048
8.81432
15.4759
15.0818
14.6338
14.3026
13.9639
13.6814
13.3832
13.1536
12.9058
12.703
12.4768
12.2783
11.9903
11.811
11.3975
11.1772
10.6186
10.1633
9.55511
8.83975
15.5084
15.1132
14.6672
14.3436
14.0089
13.7364
13.4412
13.2294
12.985
12.8014
12.591
12.3976
12.1335
11.9659
11.5474
11.3808
10.7823
10.3798
9.66041
8.88217
15.5479
15.1405
14.7018
14.383
14.0586
13.7887
13.5058
13.3038
13.0703
12.9029
12.7097
12.5213
12.2957
12.1123
11.7301
11.5724
10.9424
10.6191
9.75372
8.80109
15.5939
15.1609
14.7381
14.4176
14.1119
13.8343
13.5775
13.3695
13.1653
13.0045
12.8337
12.667
12.4838
12.2885
12.0027
11.7699
11.1382
10.79
9.81472
8.42326
15.6426
15.1733
14.7754
14.4465
14.1658
13.8736
13.6498
13.4278
13.2659
13.1022
12.9684
12.8237
12.6889
12.5066
12.3172
12.0019
11.4772
10.9049
9.61234
7.76997
15.6745
15.1849
14.8086
14.4782
14.2137
13.9139
13.7167
13.4885
13.3671
13.1992
13.1188
12.9855
12.911
12.7571
12.6358
12.2928
11.8641
11.0403
8.89031
6.52686
15.6962
15.1878
14.8405
14.5043
14.2593
13.9483
13.7837
13.5436
13.4742
13.2882
13.2926
13.1388
13.1885
13.0289
13.0858
12.7616
12.6518
11.5953
9.22364
4.4786
15.9823
15.0587
14.4813
14.0542
13.6549
13.279
12.9315
12.6092
12.3035
12.0067
11.7128
11.4173
11.1174
10.8111
10.4973
10.1757
9.84657
9.5109
9.17018
8.82653
15.759
14.9882
14.4555
14.0403
13.6502
13.2789
12.9322
12.6096
12.3044
12.0088
11.7163
11.4226
11.1239
10.8183
10.5045
10.1824
9.85201
9.51458
9.17173
8.82565
15.7029
14.9708
14.4538
14.0433
13.6572
13.2897
12.9457
12.625
12.3214
12.0273
11.7365
11.4441
11.1462
10.8406
10.5261
10.202
9.86882
9.52741
9.17993
8.82829
15.6443
14.9374
14.4389
14.0387
13.6595
13.2972
12.9577
12.6413
12.3409
12.0499
11.7617
11.4713
11.1746
10.8693
10.5536
10.2272
9.88969
9.54311
9.18877
8.82975
15.6161
14.9244
14.4381
14.0459
13.6722
13.3142
12.9785
12.6658
12.3689
12.0811
11.7956
11.5073