x,y,z,U_0,U_1,U_2
0,0,0,0.300019,-0.00127256,-2.48558e-14
0,0.1,0,0.300015,-0.00101204,-1.97672e-14
0,0.2,0,0.300011,-0.000751513,-1.46786e-14
0,0.3,0,0.300007,-0.000490988,-9.59003e-15
0,0.4,0,0.300003,-0.000230464,-4.50144e-15
0,0.5,0,0.3,-1.27992e-19,-2.59252e-30
0,0.6,0,0.3,-1.5359e-19,-3.11102e-30
0,0.7,0,0.3,-1.79189e-19,-3.62952e-30
0,0.8,0,0.3,-2.04787e-19,-4.14803e-30
0,0.9,0,0.3,-2.30385e-19,-4.66653e-30
0,1,0,0.3,-2.45411e-19,-5.20664e-30
0,1.1,0,0.3,-2.69952e-19,-5.72731e-30
0,1.2,0,0.3,-2.94493e-19,-6.24797e-30
0,1.3,0,0.3,-3.19034e-19,-6.76863e-30
0,1.4,0,0.3,-3.43575e-19,-7.2893e-30
0,1.5,0,0.3,-3.48141e-19,-8.79196e-30
0,1.6,0,0.3,-3.7135e-19,-9.37809e-30
0,1.7,0,0.3,-3.94559e-19,-9.96423e-30
0,1.8,0,0.3,-4.17769e-19,-1.05504e-29
0,1.9,0,0.3,-4.40978e-19,-1.11365e-29
0,2,0,0.3,-4.31691e-19,-9.11386e-30
0,2.1,0,0.3,-4.53276e-19,-9.56955e-30
0,2.2,0,0.3,-4.74861e-19,-1.00252e-29
0,2.3,0,0.3,-4.96445e-19,-1.04809e-29
0,2.4,0,0.3,-5.1803e-19,-1.09366e-29
0,2.5,0,0.3,-4.91094e-19,-1.30179e-29
0,2.6,0,0.3,-5.10737e-19,-1.35386e-29
0,2.7,0,0.3,-5.30381e-19,-1.40593e-29
0,2.8,0,0.3,-5.50025e-19,-1.458e-29
0,2.9,0,0.3,-5.69669e-19,-1.51008e-29
0,3,0,0.3,-5.21771e-19,-2.34322e-29
0,3.1,0,0.3,-5.39164e-19,-2.42133e-29
0,3.2,0,0.3,-5.56556e-19,-2.49944e-29
0,3.3,0,0.3,-5.73949e-19,-2.57754e-29
0,3.4,0,0.3,-5.91341e-19,-2.65565e-29
0,3.5,0,0.3,-5.20848e-19,-3.18939e-29
0,3.6,0,0.3,-5.35729e-19,-3.28051e-29
0,3.7,0,0.3,-5.50611e-19,-3.37164e-29
0,3.8,0,0.3,-5.65492e-19,-3.46276e-29
0,3.9,0,0.3,-5.80374e-19,-3.55389e-29
0,4,0,0.3,-4.86139e-19,-3.64501e-29
0,4.1,0,0.3,-4.98292e-19,-3.73614e-29
0,4.2,0,0.3,-5.10446e-19,-3.82726e-29
0,4.3,0,0.3,-5.22599e-19,-3.91839e-29
0,4.4,0,0.3,-4.07606e-19,-4.00951e-29
0,4.5,0,0.3,-4.1687e-19,-4.10064e-29
0,4.6,0,0.3,-4.26134e-19,-4.19176e-29
0,4.7,0,0.3,-4.35398e-19,-4.28289e-29
0,4.8,0,0.3,-4.44662e-19,-4.37401e-29
0,4.9,0,0.3,-3.05882e-19,-4.1462e-29
0,5,0,0.3,-3.12125e-19,-4.23082e-29
0,5.1,0,0.3,-3.18367e-19,-4.31543e-29
0,5.2,0,0.3,-3.2461e-19,-4.40005e-29
0,5.3,0,0.3,-3.30852e-19,-4.48467e-29
0,5.4,0,0.3,-1.69098e-19,-4.56928e-29
0,5.5,0,0.3,-1.72229e-19,-4.6539e-29
0,5.6,0,0.3,-1.75361e-19,-4.73852e-29
0,5.7,0,0.3,-1.78492e-19,-4.82313e-29
0,5.8,0,0.3,-1.81624e-19,-4.90775e-29
0,5.9,0,0.3,1.03342e-21,-4.60834e-29
0,6,0,0.3,1.05093e-21,-4.68644e-29
0,6.1,0,0.3,1.06845e-21,-4.76455e-29
0,6.2,0,0.3,1.08597e-21,-4.84266e-29
0,6.3,0,0.3,1.10348e-21,-4.92077e-29
0,6.4,0,0.3,2.0248e-19,-4.16573e-29
0,6.5,0,0.3,2.05644e-19,-4.23082e-29
0,6.6,0,0.3,2.08808e-19,-4.29591e-29
0,6.7,0,0.3,2.11972e-19,-4.361e-29
0,6.8,0,0.3,2.15135e-19,-4.42609e-29
0,6.9,0,0.3,4.32612e-19,-4.49118e-29
0,7,0,0.3,4.38882e-19,-4.55626e-29
0,7.1,0,0.3,4.45152e-19,-4.62135e-29
0,7.2,0,0.3,4.51422e-19,-4.68644e-29
0,7.3,0,0.3,4.57691e-19,-4.75153e-29
0,7.4,0,0.3,6.8717e-19,-5.29828e-29
0,7.5,0,0.3,6.96456e-19,-5.36988e-29
0,7.6,0,0.3,7.05742e-19,-5.44148e-29
0,7.7,0,0.3,7.15028e-19,-5.51308e-29
0,7.8,0,0.3,7.24314e-19,-5.58468e-29
0,7.9,0,0.3,9.61128e-19,-5.14207e-29
0,8,0,0.3,9.73294e-19,-5.20716e-29
0,8.1,0,0.3,9.8546e-19,-5.27225e-29
0,8.2,0,0.3,9.97627e-19,-5.33734e-29
0,8.3,0,0.3,1.00979e-18,-5.40243e-29
0,8.4,0,0.3,1.24889e-18,-4.37401e-29
0,8.5,0,0.3,1.26376e-18,-4.42609e-29
0,8.6,0,0.3,1.27863e-18,-4.47816e-29
0,8.7,0,0.3,1.2935e-18,-4.53023e-29
0,8.8,0,0.3,1.52738e-18,-5.72788e-29
0,8.9,0,0.3,1.54474e-18,-5.79297e-29
0,9,0,0.3,1.56209e-18,-5.85805e-29
0,9.1,0,0.3,1.57945e-18,-5.92314e-29
0,9.2,0,0.3,1.59681e-18,-5.98823e-29
0,9.3,0,0.3,1.82259e-18,-7.86932e-29
0,9.4,0,0.3,1.84218e-18,-7.95394e-29
0,9.5,0,0.3,1.86178e-18,-8.03855e-29
0,9.6,0,0.3,1.88138e-18,-8.12317e-29
0,9.7,0,0.3,1.90098e-18,-8.20779e-29
0,9.8,0,0.3,2.11248e-18,-8.93028e-29
0,9.9,0,0.3,2.13404e-18,-9.0214e-29
0,10,0,0.3,2.15559e-18,-9.11253e-29
0,10.1,0,0.3,2.17715e-18,-9.20365e-29
0,10.2,0,0.3,2.1987e-18,-9.29478e-29
0,10.3,0,0.3,2.38893e-18,-9.38611e-29
0,10.4,0,0.3,2.41212e-18,-9.47724e-29
0,10.5,0,0.3,2.43532e-18,-9.56836e-29
0,10.6,0,0.3,2.45851e-18,-9.65949e-29
0,10.7,0,0.3,2.4817e-18,-9.75062e-29
0,10.8,0,0.3,2.64838e-18,-7.73162e-29
0,10.9,0,0.3,2.6729e-18,-7.80321e-29
0,11,0,0.3,2.69742e-18,-7.8748e-29
0,11.1,0,0.3,2.72194e-18,-7.94639e-29
0,11.2,0,0.3,2.74646e-18,-8.01798e-29
0,11.3,0,0.3,2.89389e-18,-4.41158e-29
0,11.4,0,0.3,2.9195e-18,-4.45062e-29
0,11.5,0,0.3,2.94511e-18,-4.48966e-29
0,11.6,0,0.3,2.97072e-18,-4.52871e-29
0,11.7,0,0.3,2.99633e-18,-4.56775e-29
0,11.8,0,0.3,3.02194e-18,-4.60679e-29
0,11.9,0,0.3,3.04755e-18,-4.64583e-29
0,12,0,0.3,3.07316e-18,-4.68487e-29
0,12.1,0,0.3,3.09877e-18,-4.72391e-29
0,12.2,0,0.3,3.12438e-18,-4.76295e-29
0,12.3,0,0.299997,0.00022812,-1.29988e-29
0,12.4,0,0.299993,0.000485994,-9.74908e-30
0,12.5,0,0.299989,0.000743868,-6.49939e-30
0,12.6,0,0.299985,0.00100174,-3.24969e-30
0,12.7,0,0.299981,0.00125962,0
0.1,0,0,0.300016,-0.0020401,-2.98846e-14
0.1,0.1,0,0.300016,-0.00202974,-3.73868e-14
0.1,0.2,0,0.300012,-0.00176921,-3.22982e-14
0.1,0.3,0,0.300008,-0.00150869,-2.72096e-14
0.1,0.4,0,0.300004,-0.00124816,-2.21211e-14
0.1,0.5,0,0.3,-0.00101119,-1.78069e-14
0.1,0.6,0,0.299995,-0.000983199,-1.9915e-14
0.1,0.7,0,0.299995,-0.000983199,-1.9915e-14
0.1,0.8,0,0.299995,-0.000983199,-1.9915e-14
0.1,0.9,0,0.299995,-0.000983199,-1.9915e-14
0.1,1,0,0.299992,-0.000974052,-1.99337e-14
0.1,1.1,0,0.299983,-0.000942589,-1.9998e-14
0.1,1.2,0,0.299983,-0.000942589,-1.9998e-14
0.1,1.3,0,0.299983,-0.000942589,-1.9998e-14
0.1,1.4,0,0.299983,-0.000942589,-1.9998e-14
0.1,1.5,0,0.299979,-0.000924687,-2.08781e-14
0.1,1.6,0,0.299972,-0.000891441,-2.25125e-14
0.1,1.7,0,0.299972,-0.000891441,-2.25125e-14
0.1,1.8,0,0.299972,-0.000891441,-2.25125e-14
0.1,1.9,0,0.299972,-0.000891441,-2.25125e-14
0.1,2,0,0.299968,-0.000861957,-2.01456e-14
0.1,2.1,0,0.299964,-0.000829034,-1.75026e-14
0.1,2.2,0,0.299964,-0.000829034,-1.75026e-14
0.1,2.3,0,0.299964,-0.000829034,-1.75026e-14
0.1,2.4,0,0.299964,-0.000829034,-1.75026e-14
0.1,2.5,0,0.29996,-0.000785012,-1.89774e-14
0.1,2.6,0,0.299957,-0.00075449,-2e-14
0.1,2.7,0,0.299957,-0.00075449,-2e-14
0.1,2.8,0,0.299957,-0.00075449,-2e-14
0.1,2.9,0,0.299957,-0.00075449,-2e-14
0.1,3,0,0.299953,-0.000693211,-2.70866e-14
0.1,3.1,0,0.299951,-0.000668018,-3e-14
0.1,3.2,0,0.299951,-0.000668018,-3e-14
0.1,3.3,0,0.299951,-0.000668018,-3e-14
0.1,3.4,0,0.299951,-0.000668018,-3e-14
0.1,3.5,0,0.299947,-0.00058828,-3.41339e-14
0.1,3.6,0,0.299946,-0.000571573,-3.5e-14
0.1,3.7,0,0.299946,-0.000571573,-3.5e-14
0.1,3.8,0,0.299946,-0.000571573,-3.5e-14
0.1,3.9,0,0.299946,-0.000571573,-3.5e-14
0.1,4,0,0.299942,-0.000472574,-3.5e-14
0.1,4.1,0,0.299942,-0.000466799,-3.5e-14
0.1,4.2,0,0.299942,-0.000466799,-3.5e-14
0.1,4.3,0,0.299942,-0.000466799,-3.5e-14
0.1,4.4,0,0.299942,-0.000462429,-3.5e-14
0.1,4.5,0,0.299939,-0.000355809,-3.5e-14
0.1,4.6,0,0.299939,-0.000355809,-3.5e-14
0.1,4.7,0,0.299939,-0.000355809,-3.5e-14
0.1,4.8,0,0.299939,-0.000355809,-3.5e-14
0.1,4.9,0,0.299939,-0.000337535,-3.46063e-14
0.1,5,0,0.299936,-0.000239766,-3.25e-14
0.1,5.1,0,0.299936,-0.000239766,-3.25e-14
0.1,5.2,0,0.299936,-0.000239766,-3.25e-14
0.1,5.3,0,0.299936,-0.000239766,-3.25e-14
0.1,5.4,0,0.299936,-0.000206835,-3.25e-14
0.1,5.5,0,0.299935,-0.000120274,-3.25e-14
0.1,5.6,0,0.299935,-0.000120274,-3.25e-14
0.1,5.7,0,0.299935,-0.000120274,-3.25e-14
0.1,5.8,0,0.299935,-0.000120274,-3.25e-14
0.1,5.9,0,0.299935,-7.26575e-05,-3.15157e-14
0.1,6,0,0.299934,6.7275e-07,-3e-14
0.1,6.1,0,0.299934,6.7275e-07,-3e-14
0.1,6.2,0,0.299934,6.7275e-07,-3e-14
0.1,6.3,0,0.299934,6.7275e-07,-3e-14
0.1,6.4,0,0.299935,6.25214e-05,-2.74409e-14
0.1,6.5,0,0.299935,0.000121516,-2.5e-14
0.1,6.6,0,0.299935,0.000121516,-2.5e-14
0.1,6.7,0,0.299935,0.000121516,-2.5e-14
0.1,6.8,0,0.299935,0.000121516,-2.5e-14
0.1,6.9,0,0.299936,0.000196663,-2.5e-14
0.1,7,0,0.299936,0.000240813,-2.5e-14
0.1,7.1,0,0.299936,0.000240813,-2.5e-14
0.1,7.2,0,0.299936,0.000240813,-2.5e-14
0.1,7.3,0,0.299936,0.000240813,-2.5e-14
0.1,7.4,0,0.299938,0.000327474,-2.68701e-14
0.1,7.5,0,0.299939,0.000356666,-2.75e-14
0.1,7.6,0,0.299939,0.000356666,-2.75e-14
0.1,7.7,0,0.299939,0.000356666,-2.75e-14
0.1,7.8,0,0.299939,0.000356666,-2.75e-14
0.1,7.9,0,0.299942,0.000452479,-2.53346e-14
0.1,8,0,0.299942,0.000467287,-2.5e-14
0.1,8.1,0,0.299942,0.000467287,-2.5e-14
0.1,8.2,0,0.299942,0.000467287,-2.5e-14
0.1,8.3,0,0.299942,0.000467287,-2.5e-14
0.1,8.4,0,0.299946,0.000569417,-2.00787e-14
0.1,8.5,0,0.299946,0.000571051,-2e-14
0.1,8.6,0,0.299946,0.000571051,-2e-14
0.1,8.7,0,0.299946,0.000571051,-2e-14
0.1,8.8,0,0.299947,0.000578578,-2.03937e-14
0.1,8.9,0,0.299951,0.000666644,-2.5e-14
0.1,9,0,0.299951,0.000666644,-2.5e-14
0.1,9.1,0,0.299951,0.000666644,-2.5e-14
0.1,9.2,0,0.299951,0.000666644,-2.5e-14
0.1,9.3,0,0.299953,0.000683588,-2.64764e-14
0.1,9.4,0,0.299957,0.000752721,-3.25e-14
0.1,9.5,0,0.299957,0.000752721,-3.25e-14
0.1,9.6,0,0.299957,0.000752721,-3.25e-14
0.1,9.7,0,0.299957,0.000752721,-3.25e-14
0.1,9.8,0,0.299959,0.00077641,-3.32874e-14
0.1,9.9,0,0.299963,0.000827934,-3.5e-14
0.1,10,0,0.299963,0.000827934,-3.5e-14
0.1,10.1,0,0.299963,0.000827934,-3.5e-14
0.1,10.2,0,0.299963,0.000827934,-3.5e-14
0.1,10.3,0,0.299966,0.000855173,-3.50003e-14
0.1,10.4,0,0.29997,0.000890831,-3.50008e-14
0.1,10.5,0,0.29997,0.000890831,-3.50008e-14
0.1,10.6,0,0.29997,0.000890831,-3.50008e-14
0.1,10.7,0,0.29997,0.000890831,-3.50008e-14
0.1,10.8,0,0.299974,0.000918956,-3.08645e-14
0.1,10.9,0,0.299978,0.000941857,-2.74964e-14
0.1,11,0,0.299978,0.000941857,-2.74964e-14
0.1,11.1,0,0.299978,0.000941857,-2.74964e-14
0.1,11.2,0,0.299978,0.000941857,-2.74964e-14
0.1,11.3,0,0.299982,0.000969817,-1.91293e-14
0.1,11.4,0,0.299985,0.000983633,-1.4995e-14
0.1,11.5,0,0.299985,0.000983633,-1.4995e-14
0.1,11.6,0,0.299985,0.000983633,-1.4995e-14
0.1,11.7,0,0.299985,0.000983633,-1.4995e-14
0.1,11.8,0,0.299985,0.000983633,-1.4995e-14
0.1,11.9,0,0.299985,0.000983633,-1.4995e-14
0.1,12,0,0.299985,0.000983633,-1.4995e-14
0.1,12.1,0,0.299985,0.000983633,-1.4995e-14
0.1,12.2,0,0.299991,0.00101214,-6.22697e-15
0.1,12.3,0,0.299989,0.00124275,-4.99266e-15
0.1,12.4,0,0.299985,0.00150063,-4.99266e-15
0.1,12.5,0,0.299981,0.0017585,-4.99266e-15
0.1,12.6,0,0.299977,0.00201638,-4.99266e-15
0.1,12.7,0,0.299981,0.00203412,0
0.2,0,0,0.300012,-0.00280763,-3.49135e-14
0.2,0.1,0,0.300012,-0.00279912,-4.25085e-14
0.2,0.2,0,0.300012,-0.00278691,-4.99178e-14
0.2,0.3,0,0.300008,-0.00252639,-4.48293e-14
0.2,0.4,0,0.300004,-0.00226586,-3.97407e-14
0.2,0.5,0,0.3,-0.00202609,-3.53345e-14
0.2,0.6,0,0.299995,-0.00199395,-3.77552e-14
0.2,0.7,0,0.29999,-0.0019664,-3.983e-14
0.2,0.8,0,0.29999,-0.0019664,-3.983e-14
0.2,0.9,0,0.29999,-0.0019664,-3.983e-14
0.2,1,0,0.299987,-0.00195778,-3.98477e-14
0.2,1.1,0,0.299975,-0.00191586,-3.99333e-14
0.2,1.2,0,0.299965,-0.00188518,-3.9996e-14
0.2,1.3,0,0.299965,-0.00188518,-3.9996e-14
0.2,1.4,0,0.299965,-0.00188518,-3.9996e-14
0.2,1.5,0,0.299962,-0.00186762,-4.08592e-14
0.2,1.6,0,0.299951,-0.00181491,-4.34504e-14
0.2,1.7,0,0.299944,-0.00178288,-4.5025e-14
0.2,1.8,0,0.299944,-0.00178288,-4.5025e-14
0.2,1.9,0,0.299944,-0.00178288,-4.5025e-14
0.2,2,0,0.299941,-0.0017534,-4.26581e-14
0.2,2.1,0,0.299932,-0.00168952,-3.75298e-14
0.2,2.2,0,0.299928,-0.00165807,-3.50051e-14
0.2,2.3,0,0.299928,-0.00165807,-3.50051e-14
0.2,2.4,0,0.299928,-0.00165807,-3.50051e-14
0.2,2.5,0,0.299924,-0.00161405,-3.648e-14
0.2,2.6,0,0.299917,-0.00153774,-3.90364e-14
0.2,2.7,0,0.299914,-0.00150898,-4e-14
0.2,2.8,0,0.299914,-0.00150898,-4e-14
0.2,2.9,0,0.299914,-0.00150898,-4e-14
0.2,3,0,0.29991,-0.0014477,-4.70866e-14
0.2,3.1,0,0.299903,-0.00135919,-5.73228e-14
0.2,3.2,0,0.299901,-0.00133604,-6e-14
0.2,3.3,0,0.299901,-0.00133604,-6e-14
0.2,3.4,0,0.299901,-0.00133604,-6e-14
0.2,3.5,0,0.299897,-0.0012563,-6.41339e-14
0.2,3.6,0,0.299892,-0.00115758,-6.9252e-14
0.2,3.7,0,0.299892,-0.00114315,-7e-14
0.2,3.8,0,0.299892,-0.00114315,-7e-14
0.2,3.9,0,0.299892,-0.00114315,-7e-14
0.2,4,0,0.299888,-0.00104415,-7e-14
0.2,4.1,0,0.299885,-0.000936897,-7e-14
0.2,4.2,0,0.299884,-0.000933597,-7e-14
0.2,4.3,0,0.299884,-0.000933597,-7e-14
0.2,4.4,0,0.299884,-0.000929227,-7e-14
0.2,4.5,0,0.299881,-0.000815617,-7e-14
0.2,4.6,0,0.299878,-0.000711619,-7e-14
0.2,4.7,0,0.299878,-0.000711619,-7e-14
0.2,4.8,0,0.299878,-0.000711619,-7e-14
0.2,4.9,0,0.299878,-0.000693344,-6.96063e-14
0.2,5,0,0.299875,-0.00057456,-6.70472e-14
0.2,5.1,0,0.299873,-0.000479532,-6.5e-14
0.2,5.2,0,0.299873,-0.000479532,-6.5e-14
0.2,5.3,0,0.299873,-0.000479532,-6.5e-14
0.2,5.4,0,0.299872,-0.000446601,-6.5e-14
0.2,5.5,0,0.299871,-0.000324287,-6.5e-14
0.2,5.6,0,0.29987,-0.000240549,-6.5e-14
0.2,5.7,0,0.29987,-0.000240549,-6.5e-14
0.2,5.8,0,0.29987,-0.000240549,-6.5e-14
0.2,5.9,0,0.29987,-0.000192932,-6.40157e-14
0.2,6,0,0.299869,-6.91277e-05,-6.14567e-14
0.2,6.1,0,0.299869,1.3455e-06,-6e-14
0.2,6.2,0,0.299869,1.3455e-06,-6e-14
0.2,6.3,0,0.299869,1.3455e-06,-6e-14
0.2,6.4,0,0.299869,6.31942e-05,-5.74409e-14
0.2,6.5,0,0.29987,0.000186892,-5.23228e-14
0.2,6.6,0,0.29987,0.000243031,-5e-14
0.2,6.7,0,0.29987,0.000243031,-5e-14
0.2,6.8,0,0.29987,0.000243031,-5e-14
0.2,6.9,0,0.299871,0.000318179,-5e-14
0.2,7,0,0.299872,0.000440294,-5e-14
0.2,7.1,0,0.299873,0.000481625,-5e-14
0.2,7.2,0,0.299873,0.000481625,-5e-14
0.2,7.3,0,0.299873,0.000481625,-5e-14
0.2,7.4,0,0.299874,0.000568287,-5.18701e-14
0.2,7.5,0,0.299877,0.000686877,-5.44291e-14
0.2,7.6,0,0.299877,0.000713331,-5.5e-14
0.2,7.7,0,0.299877,0.000713331,-5.5e-14
0.2,7.8,0,0.299877,0.000713331,-5.5e-14
0.2,7.9,0,0.29988,0.000809145,-5.28346e-14
0.2,8,0,0.299884,0.000922379,-5.02756e-14
0.2,8.1,0,0.299884,0.000934573,-5e-14
0.2,8.2,0,0.299884,0.000934573,-5e-14
0.2,8.3,0,0.299884,0.000934573,-5e-14
0.2,8.4,0,0.299889,0.0010367,-4.50787e-14
0.2,8.5,0,0.299893,0.0011421,-4e-14
0.2,8.6,0,0.299893,0.0011421,-4e-14
0.2,8.7,0,0.299893,0.0011421,-4e-14
0.2,8.8,0,0.299893,0.00114963,-4.03937e-14
0.2,8.9,0,0.299898,0.00124748,-4.55118e-14
0.2,9,0,0.299903,0.00133329,-5e-14
0.2,9.1,0,0.299903,0.00133329,-5e-14
0.2,9.2,0,0.299903,0.00133329,-5e-14
0.2,9.3,0,0.299904,0.00135023,-5.14764e-14
0.2,9.4,0,0.29991,0.00143834,-5.91535e-14
0.2,9.5,0,0.299914,0.00150544,-6.5e-14
0.2,9.6,0,0.299914,0.00150544,-6.5e-14
0.2,9.7,0,0.299914,0.00150544,-6.5e-14
0.2,9.8,0,0.299916,0.00152913,-6.57874e-14
0.2,9.9,0,0.299922,0.00160612,-6.83465e-14
0.2,10,0,0.299927,0.00165587,-7e-14
0.2,10.1,0,0.299927,0.00165587,-7e-14
0.2,10.2,0,0.299927,0.00165587,-7e-14
0.2,10.3,0,0.29993,0.00168311,-7.00003e-14
0.2,10.4,0,0.299937,0.00174749,-7.00011e-14
0.2,10.5,0,0.29994,0.00178166,-7.00015e-14
0.2,10.6,0,0.29994,0.00178166,-7.00015e-14
0.2,10.7,0,0.29994,0.00178166,-7.00015e-14
0.2,10.8,0,0.299944,0.00180979,-6.58653e-14
0.2,10.9,0,0.299952,0.00186202,-5.81836e-14
0.2,11,0,0.299955,0.00188371,-5.49928e-14
0.2,11.1,0,0.299955,0.00188371,-5.49928e-14
0.2,11.2,0,0.299955,0.00188371,-5.49928e-14
0.2,11.3,0,0.29996,0.00191167,-4.66257e-14
0.2,11.4,0,0.299967,0.00195444,-3.38289e-14
0.2,11.5,0,0.299969,0.00196727,-2.99899e-14
0.2,11.6,0,0.299969,0.00196727,-2.99899e-14
0.2,11.7,0,0.299969,0.00196727,-2.99899e-14
0.2,11.8,0,0.299969,0.00196727,-2.99899e-14
0.2,11.9,0,0.299969,0.00196727,-2.99899e-14
0.2,12,0,0.299969,0.00196727,-2.99899e-14
0.2,12.1,0,0.299975,0.00199501,-2.14568e-14
0.2,12.2,0,0.299983,0.0020281,-1.12796e-14
0.2,12.3,0,0.299981,0.00225739,-9.98531e-15
0.2,12.4,0,0.299977,0.00251526,-9.98531e-15
0.2,12.5,0,0.299973,0.00277314,-9.98531e-15
0.2,12.6,0,0.299976,0.00279733,-5.1267e-15
0.2,12.7,0,0.29998,0.00280862,0
0.3,0,0,0.300009,-0.00357517,-3.99423e-14
0.3,0.1,0,0.300009,-0.00356665,-4.75373e-14
0.3,0.2,0,0.300009,-0.00355814,-5.51323e-14
0.3,0.3,0,0.300009,-0.00354409,-6.24489e-14
0.3,0.4,0,0.300005,-0.00328356,-5.73603e-14
0.3,0.5,0,0.300001,-0.00304099,-5.28621e-14
0.3,0.6,0,0.299995,-0.00300885,-5.52828e-14
0.3,0.7,0,0.299989,-0.0029767,-5.77036e-14
0.3,0.8,0,0.299984,-0.0029496,-5.97451e-14
0.3,0.9,0,0.299984,-0.0029496,-5.97451e-14
0.3,1,0,0.299982,-0.0029415,-5.97616e-14
0.3,1.1,0,0.299969,-0.00289958,-5.98473e-14
0.3,1.2,0,0.299957,-0.00285767,-5.99329e-14
0.3,1.3,0,0.299948,-0.00282777,-5.9994e-14
0.3,1.4,0,0.299948,-0.00282777,-5.9994e-14
0.3,1.5,0,0.299945,-0.00281055,-6.08403e-14
0.3,1.6,0,0.299934,-0.00275784,-6.34315e-14
0.3,1.7,0,0.299923,-0.00270514,-6.60227e-14
0.3,1.8,0,0.299917,-0.00267432,-6.75375e-14
0.3,1.9,0,0.299917,-0.00267432,-6.75375e-14
0.3,2,0,0.299913,-0.00264484,-6.51706e-14
0.3,2.1,0,0.299905,-0.00258096,-6.00423e-14
0.3,2.2,0,0.299896,-0.00251708,-5.4914e-14
0.3,2.3,0,0.299893,-0.0024871,-5.25077e-14
0.3,2.4,0,0.299893,-0.0024871,-5.25077e-14
0.3,2.5,0,0.299888,-0.00244308,-5.39825e-14
0.3,2.6,0,0.299881,-0.00236678,-5.6539e-14
0.3,2.7,0,0.299874,-0.00229047,-5.90954e-14
0.3,2.8,0,0.299871,-0.00226347,-6e-14
0.3,2.9,0,0.299871,-0.00226347,-6e-14
0.3,3,0,0.299867,-0.00220219,-6.70866e-14
0.3,3.1,0,0.29986,-0.00211368,-7.73228e-14
0.3,3.2,0,0.299854,-0.00202516,-8.75591e-14
0.3,3.3,0,0.299852,-0.00200405,-9e-14
0.3,3.4,0,0.299852,-0.00200405,-9e-14
0.3,3.5,0,0.299848,-0.00192432,-9.41339e-14
0.3,3.6,0,0.299843,-0.00182559,-9.9252e-14
0.3,3.7,0,0.299838,-0.00172687,-1.0437e-13
0.3,3.8,0,0.299837,-0.00171472,-1.05e-13
0.3,3.9,0,0.299837,-0.00171472,-1.05e-13
0.3,4,0,0.299834,-0.00161572,-1.05e-13
0.3,4.1,0,0.29983,-0.00150847,-1.05e-13
0.3,4.2,0,0.299827,-0.00140122,-1.05e-13
0.3,4.3,0,0.299827,-0.0014004,-1.05e-13
0.3,4.4,0,0.299826,-0.00139603,-1.05e-13
0.3,4.5,0,0.299823,-0.00128242,-1.05e-13
0.3,4.6,0,0.29982,-0.0011688,-1.05e-13
0.3,4.7,0,0.299817,-0.00106743,-1.05e-13
0.3,4.8,0,0.299817,-0.00106743,-1.05e-13
0.3,4.9,0,0.299817,-0.00104915,-1.04606e-13
0.3,5,0,0.299814,-0.000930369,-1.02047e-13
0.3,5.1,0,0.299811,-0.000811585,-9.94882e-14
0.3,5.2,0,0.299809,-0.000719298,-9.75e-14
0.3,5.3,0,0.299809,-0.000719298,-9.75e-14
0.3,5.4,0,0.299809,-0.000686367,-9.75e-14
0.3,5.5,0,0.299807,-0.000564053,-9.75e-14
0.3,5.6,0,0.299806,-0.000441739,-9.75e-14
0.3,5.7,0,0.299805,-0.000360823,-9.75e-14
0.3,5.8,0,0.299805,-0.000360823,-9.75e-14
0.3,5.9,0,0.299805,-0.000313206,-9.65157e-14
0.3,6,0,0.299804,-0.000189402,-9.39567e-14
0.3,6.1,0,0.299804,-6.55979e-05,-9.13976e-14
0.3,6.2,0,0.299803,2.01825e-06,-9e-14
0.3,6.3,0,0.299803,2.01825e-06,-9e-14
0.3,6.4,0,0.299804,6.38669e-05,-8.74409e-14
0.3,6.5,0,0.299804,0.000187564,-8.23228e-14
0.3,6.6,0,0.299804,0.000311262,-7.72047e-14
0.3,6.7,0,0.299805,0.000364547,-7.5e-14
0.3,6.8,0,0.299805,0.000364547,-7.5e-14
0.3,6.9,0,0.299805,0.000439694,-7.5e-14
0.3,7,0,0.299807,0.000561809,-7.5e-14
0.3,7.1,0,0.299808,0.000683924,-7.5e-14
0.3,7.2,0,0.299809,0.000722438,-7.5e-14
0.3,7.3,0,0.299809,0.000722438,-7.5e-14
0.3,7.4,0,0.299811,0.000809099,-7.68701e-14
0.3,7.5,0,0.299813,0.000927689,-7.94291e-14
0.3,7.6,0,0.299816,0.00104628,-8.19882e-14
0.3,7.7,0,0.299816,0.00107,-8.25e-14
0.3,7.8,0,0.299816,0.00107,-8.25e-14
0.3,7.9,0,0.299819,0.00116581,-8.03346e-14
0.3,8,0,0.299823,0.00127904,-7.77756e-14
0.3,8.1,0,0.299826,0.00139228,-7.52165e-14
0.3,8.2,0,0.299827,0.00140186,-7.5e-14
0.3,8.3,0,0.299827,0.00140186,-7.5e-14
0.3,8.4,0,0.299831,0.00150399,-7.00787e-14
0.3,8.5,0,0.299835,0.00161021,-6.49606e-14
0.3,8.6,0,0.299839,0.00171315,-6e-14
0.3,8.7,0,0.299839,0.00171315,-6e-14
0.3,8.8,0,0.29984,0.00172068,-6.03937e-14
0.3,8.9,0,0.299845,0.00181853,-6.55118e-14
0.3,9,0,0.29985,0.00191638,-7.06299e-14
0.3,9.1,0,0.299854,0.00199993,-7.5e-14
0.3,9.2,0,0.299854,0.00199993,-7.5e-14
0.3,9.3,0,0.299855,0.00201687,-7.64764e-14
0.3,9.4,0,0.299861,0.00210499,-8.41535e-14
0.3,9.5,0,0.299867,0.0021931,-9.18307e-14
0.3,9.6,0,0.299871,0.00225816,-9.75e-14
0.3,9.7,0,0.299871,0.00225816,-9.75e-14
0.3,9.8,0,0.299873,0.00228185,-9.82874e-14
0.3,9.9,0,0.29988,0.00235884,-1.00846e-13
0.3,10,0,0.299886,0.00243583,-1.03406e-13
0.3,10.1,0,0.29989,0.0024838,-1.05e-13
0.3,10.2,0,0.29989,0.0024838,-1.05e-13
0.3,10.3,0,0.299893,0.00251104,-1.05e-13
0.3,10.4,0,0.2999,0.00257542,-1.05001e-13
0.3,10.5,0,0.299907,0.00263981,-1.05002e-13
0.3,10.6,0,0.299911,0.00267249,-1.05002e-13
0.3,10.7,0,0.299911,0.00267249,-1.05002e-13
0.3,10.8,0,0.299915,0.00270062,-1.00866e-13
0.3,10.9,0,0.299922,0.00275285,-9.31844e-14
0.3,11,0,0.29993,0.00280508,-8.55028e-14
0.3,11.1,0,0.299933,0.00282557,-8.24892e-14
0.3,11.2,0,0.299933,0.00282557,-8.24892e-14
0.3,11.3,0,0.299937,0.00285353,-7.41221e-14
0.3,11.4,0,0.299944,0.00289629,-6.13253e-14
0.3,11.5,0,0.299952,0.00293906,-4.85286e-14
0.3,11.6,0,0.299954,0.0029509,-4.49849e-14
0.3,11.7,0,0.299954,0.0029509,-4.49849e-14
0.3,11.8,0,0.299954,0.0029509,-4.49849e-14
0.3,11.9,0,0.299954,0.0029509,-4.49849e-14
0.3,12,0,0.29996,0.00297788,-3.66866e-14
0.3,12.1,0,0.299967,0.00301097,-2.65095e-14
0.3,12.2,0,0.299975,0.00304406,-1.63323e-14
0.3,12.3,0,0.299973,0.00327203,-1.4978e-14
0.3,12.4,0,0.299969,0.0035299,-1.4978e-14
0.3,12.5,0,0.299972,0.00356053,-1.02534e-14
0.3,12.6,0,0.299976,0.00357183,-5.1267e-15
0.3,12.7,0,0.29998,0.00358312,0
0.4,0,0,0.300005,-0.0043427,-4.49712e-14
0.4,0.1,0,0.300005,-0.00433419,-5.25662e-14
0.4,0.2,0,0.300006,-0.00432567,-6.01612e-14
0.4,0.3,0,0.300006,-0.00431716,-6.77562e-14
0.4,0.4,0,0.300006,-0.00430126,-7.49799e-14
0.4,0.5,0,0.300002,-0.00405589,-7.03897e-14
0.4,0.6,0,0.299996,-0.00402375,-7.28104e-14
0.4,0.7,0,0.29999,-0.00399161,-7.52311e-14
0.4,0.8,0,0.299984,-0.00395946,-7.76519e-14
0.4,0.9,0,0.299979,-0.0039328,-7.96601e-14
0.4,1,0,0.299977,-0.00392523,-7.96756e-14
0.4,1.1,0,0.299964,-0.00388331,-7.97612e-14
0.4,1.2,0,0.299952,-0.00384139,-7.98469e-14
0.4,1.3,0,0.299939,-0.00379947,-7.99325e-14
0.4,1.4,0,0.299931,-0.00377036,-7.9992e-14
0.4,1.5,0,0.299927,-0.00375348,-8.08214e-14
0.4,1.6,0,0.299917,-0.00370078,-8.34126e-14
0.4,1.7,0,0.299906,-0.00364807,-8.60038e-14
0.4,1.8,0,0.299895,-0.00359536,-8.8595e-14
0.4,1.9,0,0.299889,-0.00356576,-9.005e-14
0.4,2,0,0.299885,-0.00353628,-8.76831e-14
0.4,2.1,0,0.299877,-0.0034724,-8.25548e-14
0.4,2.2,0,0.299869,-0.00340852,-7.74265e-14
0.4,2.3,0,0.29986,-0.00334464,-7.22982e-14
0.4,2.4,0,0.299857,-0.00331614,-7.00102e-14
0.4,2.5,0,0.299853,-0.00327212,-7.14851e-14
0.4,2.6,0,0.299845,-0.00319581,-7.40415e-14
0.4,2.7,0,0.299838,-0.0031195,-7.6598e-14
0.4,2.8,0,0.299831,-0.0030432,-7.91544e-14
0.4,2.9,0,0.299828,-0.00301796,-8e-14
0.4,3,0,0.299824,-0.00295668,-8.70866e-14
0.4,3.1,0,0.299817,-0.00286817,-9.73228e-14
0.4,3.2,0,0.299811,-0.00277965,-1.07559e-13
0.4,3.3,0,0.299804,-0.00269114,-1.17795e-13
0.4,3.4,0,0.299803,-0.00267207,-1.2e-13
0.4,3.5,0,0.299799,-0.00259233,-1.24134e-13
0.4,3.6,0,0.299794,-0.00249361,-1.29252e-13
0.4,3.7,0,0.299789,-0.00239489,-1.3437e-13
0.4,3.8,0,0.299784,-0.00229617,-1.39488e-13
0.4,3.9,0,0.299783,-0.00228629,-1.4e-13
0.4,4,0,0.29978,-0.00218729,-1.4e-13
0.4,4.1,0,0.299776,-0.00208004,-1.4e-13
0.4,4.2,0,0.299772,-0.00197279,-1.4e-13
0.4,4.3,0,0.299769,-0.00186719,-1.4e-13
0.4,4.4,0,0.299769,-0.00186282,-1.4e-13
0.4,4.5,0,0.299765,-0.00174921,-1.4e-13
0.4,4.6,0,0.299762,-0.0016356,-1.4e-13
0.4,4.7,0,0.299759,-0.00152199,-1.4e-13
0.4,4.8,0,0.299756,-0.00142324,-1.4e-13
0.4,4.9,0,0.299756,-0.00140496,-1.39606e-13
0.4,5,0,0.299753,-0.00128618,-1.37047e-13
0.4,5.1,0,0.29975,-0.00116739,-1.34488e-13
0.4,5.2,0,0.299748,-0.00104861,-1.31929e-13
0.4,5.3,0,0.299746,-0.000959064,-1.3e-13
0.4,5.4,0,0.299745,-0.000926133,-1.3e-13
0.4,5.5,0,0.299744,-0.000803819,-1.3e-13
0.4,5.6,0,0.299742,-0.000681505,-1.3e-13
0.4,5.7,0,0.299741,-0.000559191,-1.3e-13
0.4,5.8,0,0.29974,-0.000481098,-1.3e-13
0.4,5.9,0,0.29974,-0.000433481,-1.29016e-13
0.4,6,0,0.299739,-0.000309677,-1.26457e-13
0.4,6.1,0,0.299739,-0.000185872,-1.23898e-13
0.4,6.2,0,0.299738,-6.20682e-05,-1.21339e-13
0.4,6.3,0,0.299738,2.691e-06,-1.2e-13
0.4,6.4,0,0.299738,6.45397e-05,-1.17441e-13
0.4,6.5,0,0.299738,0.000188237,-1.12323e-13
0.4,6.6,0,0.299739,0.000311934,-1.07205e-13
0.4,6.7,0,0.299739,0.000435632,-1.02087e-13
0.4,6.8,0,0.299739,0.000486062,-1e-13
0.4,6.9,0,0.29974,0.00056121,-1e-13
0.4,7,0,0.299742,0.000683325,-1e-13
0.4,7.1,0,0.299743,0.00080544,-1e-13
0.4,7.2,0,0.299745,0.000927555,-1e-13
0.4,7.3,0,0.299745,0.00096325,-1e-13
0.4,7.4,0,0.299747,0.00104991,-1.0187e-13
0.4,7.5,0,0.299749,0.0011685,-1.04429e-13
0.4,7.6,0,0.299752,0.00128709,-1.06988e-13
0.4,7.7,0,0.299754,0.00140568,-1.09547e-13
0.4,7.8,0,0.299755,0.00142666,-1.1e-13
0.4,7.9,0,0.299758,0.00152248,-1.07835e-13
0.4,8,0,0.299761,0.00163571,-1.05276e-13
0.4,8.1,0,0.299765,0.00174894,-1.02717e-13
0.4,8.2,0,0.299769,0.00186218,-1.00157e-13
0.4,8.3,0,0.299769,0.00186915,-1e-13
0.4,8.4,0,0.299773,0.00197128,-9.50787e-14
0.4,8.5,0,0.299777,0.00207749,-8.99606e-14
0.4,8.6,0,0.299782,0.00218371,-8.48425e-14
0.4,8.7,0,0.299786,0.00228421,-8e-14
0.4,8.8,0,0.299786,0.00229173,-8.03937e-14
0.4,8.9,0,0.299791,0.00238958,-8.55118e-14
0.4,9,0,0.299796,0.00248743,-9.06299e-14
0.4,9.1,0,0.299801,0.00258528,-9.5748e-14
0.4,9.2,0,0.299806,0.00266657,-1e-13
0.4,9.3,0,0.299807,0.00268352,-1.01476e-13
0.4,9.4,0,0.299813,0.00277163,-1.09154e-13
0.4,9.5,0,0.299818,0.00285974,-1.16831e-13
0.4,9.6,0,0.299824,0.00294785,-1.24508e-13
0.4,9.7,0,0.299828,0.00301089,-1.3e-13
0.4,9.8,0,0.29983,0.00303457,-1.30787e-13
0.4,9.9,0,0.299837,0.00311156,-1.33346e-13
0.4,10,0,0.299843,0.00318855,-1.35906e-13
0.4,10.1,0,0.299849,0.00326554,-1.38465e-13
0.4,10.2,0,0.299853,0.00331173,-1.4e-13
0.4,10.3,0,0.299856,0.00333897,-1.4e-13
0.4,10.4,0,0.299863,0.00340336,-1.40001e-13
0.4,10.5,0,0.29987,0.00346774,-1.40002e-13
0.4,10.6,0,0.299877,0.00353212,-1.40003e-13
0.4,10.7,0,0.299881,0.00356332,-1.40003e-13
0.4,10.8,0,0.299885,0.00359145,-1.35867e-13
0.4,10.9,0,0.299892,0.00364368,-1.28185e-13
0.4,11,0,0.2999,0.00369591,-1.20504e-13
0.4,11.1,0,0.299907,0.00374814,-1.12822e-13
0.4,11.2,0,0.29991,0.00376743,-1.09986e-13
0.4,11.3,0,0.299915,0.00379539,-1.01619e-13
0.4,11.4,0,0.299922,0.00383815,-8.88217e-14
0.4,11.5,0,0.299929,0.00388091,-7.6025e-14
0.4,11.6,0,0.299936,0.00392368,-6.32282e-14
0.4,11.7,0,0.299938,0.00393453,-5.99798e-14
0.4,11.8,0,0.299938,0.00393453,-5.99798e-14
0.4,11.9,0,0.299944,0.00396075,-5.19164e-14
0.4,12,0,0.299952,0.00399384,-4.17393e-14
0.4,12.1,0,0.299959,0.00402693,-3.15621e-14
0.4,12.2,0,0.299967,0.00406003,-2.1385e-14
0.4,12.3,0,0.299965,0.00428666,-1.99706e-14
0.4,12.4,0,0.299968,0.00432374,-1.53801e-14
0.4,12.5,0,0.299972,0.00433503,-1.02534e-14
0.4,12.6,0,0.299976,0.00434633,-5.1267e-15
0.4,12.7,0,0.299979,0.00435762,0
0.5,0,0,0.300002,-0.00511024,-5e-14
0.5,0.1,0,0.300002,-0.00510262,-5.75722e-14
0.5,0.2,0,0.300002,-0.00509501,-6.51445e-14
0.5,0.3,0,0.300002,-0.00508739,-7.27167e-14
0.5,0.4,0,0.300002,-0.00507977,-8.02889e-14
0.5,0.5,0,0.300002,-0.00507047,-8.77193e-14
0.5,0.6,0,0.299996,-0.00503846,-9.02202e-14
0.5,0.7,0,0.29999,-0.00500644,-9.27211e-14
0.5,0.8,0,0.299985,-0.00497436,-9.51795e-14
0.5,0.9,0,0.299979,-0.00494222,-9.76002e-14
0.5,1,0,0.299972,-0.00490896,-9.95895e-14
0.5,1.1,0,0.299959,-0.00486704,-9.96752e-14
0.5,1.2,0,0.299947,-0.00482512,-9.97608e-14
0.5,1.3,0,0.299934,-0.0047832,-9.98465e-14
0.5,1.4,0,0.299922,-0.00474128,-9.99321e-14
0.5,1.5,0,0.29991,-0.00469642,-1.00803e-13
0.5,1.6,0,0.299899,-0.00464371,-1.03394e-13
0.5,1.7,0,0.299888,-0.004591,-1.05985e-13
0.5,1.8,0,0.299878,-0.00453829,-1.08576e-13
0.5,1.9,0,0.299867,-0.00448558,-1.11167e-13
0.5,2,0,0.299857,-0.00442772,-1.10196e-13
0.5,2.1,0,0.299849,-0.00436384,-1.05067e-13
0.5,2.2,0,0.299841,-0.00429996,-9.9939e-14
0.5,2.3,0,0.299833,-0.00423608,-9.48107e-14
0.5,2.4,0,0.299824,-0.0041722,-8.96825e-14
0.5,2.5,0,0.299817,-0.00410115,-8.89877e-14
0.5,2.6,0,0.299809,-0.00402484,-9.15441e-14
0.5,2.7,0,0.299802,-0.00394854,-9.41005e-14
0.5,2.8,0,0.299795,-0.00387223,-9.6657e-14
0.5,2.9,0,0.299788,-0.00379593,-9.92134e-14
0.5,3,0,0.299781,-0.00371117,-1.07087e-13
0.5,3.1,0,0.299774,-0.00362266,-1.17323e-13
0.5,3.2,0,0.299768,-0.00353414,-1.27559e-13
0.5,3.3,0,0.299761,-0.00344563,-1.37795e-13
0.5,3.4,0,0.299755,-0.00335711,-1.48031e-13
0.5,3.5,0,0.299749,-0.00326035,-1.54134e-13
0.5,3.6,0,0.299744,-0.00316163,-1.59252e-13
0.5,3.7,0,0.299739,-0.00306291,-1.6437e-13
0.5,3.8,0,0.299734,-0.00296418,-1.69488e-13
0.5,3.9,0,0.299729,-0.00286546,-1.74606e-13
0.5,4,0,0.299726,-0.00275887,-1.75e-13
0.5,4.1,0,0.299722,-0.00265162,-1.75e-13
0.5,4.2,0,0.299718,-0.00254437,-1.75e-13
0.5,4.3,0,0.299715,-0.00243712,-1.75e-13
0.5,4.4,0,0.299711,-0.00232962,-1.75e-13
0.5,4.5,0,0.299708,-0.00221601,-1.75e-13
0.5,4.6,0,0.299704,-0.0021024,-1.75e-13
0.5,4.7,0,0.299701,-0.00198879,-1.75e-13
0.5,4.8,0,0.299698,-0.00187518,-1.75e-13
0.5,4.9,0,0.299695,-0.00176077,-1.74606e-13
0.5,5,0,0.299692,-0.00164199,-1.72047e-13
0.5,5.1,0,0.299689,-0.0015232,-1.69488e-13
0.5,5.2,0,0.299687,-0.00140442,-1.66929e-13
0.5,5.3,0,0.299684,-0.00128563,-1.6437e-13
0.5,5.4,0,0.299682,-0.0011659,-1.625e-13
0.5,5.5,0,0.29968,-0.00104359,-1.625e-13
0.5,5.6,0,0.299679,-0.000921271,-1.625e-13
0.5,5.7,0,0.299677,-0.000798957,-1.625e-13
0.5,5.8,0,0.299676,-0.000676643,-1.625e-13
0.5,5.9,0,0.299675,-0.000553755,-1.61516e-13
0.5,6,0,0.299674,-0.000429951,-1.58957e-13
0.5,6.1,0,0.299674,-0.000306147,-1.56398e-13
0.5,6.2,0,0.299673,-0.000182343,-1.53839e-13
0.5,6.3,0,0.299673,-5.85384e-05,-1.5128e-13
0.5,6.4,0,0.299672,6.52124e-05,-1.47441e-13
0.5,6.5,0,0.299673,0.00018891,-1.42323e-13
0.5,6.6,0,0.299673,0.000312607,-1.37205e-13
0.5,6.7,0,0.299674,0.000436304,-1.32087e-13
0.5,6.8,0,0.299674,0.000560002,-1.26969e-13
0.5,6.9,0,0.299675,0.000682725,-1.25e-13
0.5,7,0,0.299677,0.00080484,-1.25e-13
0.5,7.1,0,0.299678,0.000926955,-1.25e-13
0.5,7.2,0,0.299679,0.00104907,-1.25e-13
0.5,7.3,0,0.299681,0.00117119,-1.25e-13
0.5,7.4,0,0.299683,0.00129072,-1.2687e-13
0.5,7.5,0,0.299686,0.00140931,-1.29429e-13
0.5,7.6,0,0.299688,0.0015279,-1.31988e-13
0.5,7.7,0,0.299691,0.00164649,-1.34547e-13
0.5,7.8,0,0.299693,0.00176508,-1.37106e-13
0.5,7.9,0,0.299697,0.00187914,-1.35335e-13
0.5,8,0,0.2997,0.00199238,-1.32776e-13
0.5,8.1,0,0.299704,0.00210561,-1.30217e-13
0.5,8.2,0,0.299707,0.00221884,-1.27657e-13
0.5,8.3,0,0.299711,0.00233208,-1.25098e-13
0.5,8.4,0,0.299715,0.00243856,-1.20079e-13
0.5,8.5,0,0.29972,0.00254478,-1.14961e-13
0.5,8.6,0,0.299724,0.002651,-1.09843e-13
0.5,8.7,0,0.299728,0.00275721,-1.04724e-13
0.5,8.8,0,0.299733,0.00286278,-1.00394e-13