/*--------------------------------*- C++ -*----------------------------------*\
| =========                 |                                                 |
| \\      /  F ield         | OpenFOAM: The Open Source CFD Toolbox           |
|  \\    /   O peration     | Version:  v1806                                 |
|   \\  /    A nd           | Web:      www.OpenFOAM.com                      |
|    \\/     M anipulation  |                                                 |
\*---------------------------------------------------------------------------*/
FoamFile
{
    version     2.0;
    format      ascii;
    class       volScalarField;
    location    "120";
    object      p;
}
// * * * * * * * * * * * * * * * * * * * * * * * * * * * * * * * * * * * * * //

dimensions      [0 2 -2 0 0 0 0];


internalField   nonuniform List<scalar> 
4400
(
-0.00640975
0.00627317
0.00535599
0.00380054
0.00319839
0.00288524
0.00261497
0.00237223
0.00215192
0.00194357
0.00174134
0.00154352
0.00134962
0.00115925
0.000972026
0.000787683
0.000606082
0.000427154
0.000249845
7.41731e-05
0.0206605
0.0148309
0.0105178
0.00775853
0.00620717
0.00521194
0.00445701
0.00384727
0.00334325
0.00291496
0.0025395
0.00220163
0.0018915
0.00160232
0.00132925
0.0010687
0.000818025
0.000575134
0.000337372
0.000103928
0.0253357
0.0189396
0.0144857
0.0112243
0.00892023
0.00730002
0.00610659
0.00518252
0.00443932
0.00382184
0.00329315
0.0028285
0.00241119
0.00202958
0.00167523
0.00134183
0.00102459
0.000719686
0.000423132
0.000133156
0.0272981
0.0212
0.0166143
0.0132072
0.0107114
0.00886225
0.00744672
0.00632383
0.00540719
0.00464056
0.00398442
0.0034104
0.00289816
0.00243295
0.00200382
0.00160248
0.00122248
0.000858602
0.000505795
0.00016135
0.0260497
0.0214542
0.017608
0.0145053
0.0120396
0.0100903
0.00853694
0.00727798
0.0062368
0.00535802
0.00460143
0.00393751
0.00334449
0.00280613
0.00231011
0.00184689
0.00140892
0.000989969
0.000584205
0.00018813
0.0246797
0.0211942
0.0179507
0.0151555
0.01283
0.0109192
0.00934387
0.00803067
0.00692051
0.005968
0.00513825
0.00440429
0.00374523
0.00314488
0.00259058
0.00207225
0.00158176
0.00111227
0.000657449
0.000213193
0.0230153
0.0203878
0.017777
0.0153901
0.0132916
0.0114839
0.00993823
0.00861392
0.00747087
0.00647409
0.00559461
0.0048089
0.00409803
0.00344682
0.00284304
0.00227669
0.00173951
0.00122442
0.000724852
0.000236305
0.0215441
0.0195232
0.0173964
0.015352
0.0134795
0.0118083
0.010335
0.00903948
0.00789659
0.00688186
0.00597343
0.00515243
0.00440286
0.00371132
0.0030666
0.00245928
0.00188134
0.00132576
0.000785986
0.000257312
0.0201764
0.0185941
0.0168654
0.0151364
0.013491
0.0119701
0.0105876
0.0093406
0.00821737
0.00720272
0.00628122
0.00543846
0.00466154
0.00393915
0.00326145
0.00261989
0.00200698
0.00141601
0.00084065
0.000276137
0.0190038
0.0177351
0.0163075
0.0148319
0.0133837
0.0120068
0.0107226
0.00953732
0.00844819
0.00744746
0.00652542
0.00567193
0.00487723
0.00413224
0.00342868
0.00275908
0.00211669
0.00149526
0.000888843
0.000292771
0.0179734
0.0169361
0.0157442
0.0144802
0.013206
0.0119628
0.0107753
0.00965574
0.00860761
0.007629
0.00671491
0.0058589
0.005054
0.00429327
0.00357002
0.00287795
0.00221111
0.00156387
0.000930738
0.000307265
0.0170988
0.0162316
0.015219
0.0141224
0.0129926
0.0118664
0.0107687
0.00971423
0.0087102
0.00775864
0.00685824
0.00600563
0.00519635
0.00442543
0.00368769
0.00297796
0.0022912
0.0016224
0.000966634
0.000319715
0.0163501
0.0156115
0.014738
0.0137764
0.0127671
0.0117421
0.0107248
0.00973112
0.00877046
0.0078476
0.00696391
0.0061185
0.005309
0.00453213
0.0037841
0.00306083
0.0023581
0.00167159
0.000996927
0.000330248
0.0157247
0.0150822
0.0143152
0.0134593
0.0125474
0.0116069
0.0106592
0.00972003
0.00879992
0.00790531
0.0070395
0.00620345
0.00539649
0.0046168
0.00386179
0.00312835
0.00241306
0.00171225
0.00102207
0.000339011
0.0152056
0.0146362
0.0139511
0.0131784
0.0123448
0.0114738
0.0105848
0.00969279
0.00880879
0.00794029
0.00709189
0.00626594
0.0054631
0.00468271
0.0039232
0.00318233
0.00245736
0.0017452
0.00104253
0.000346164
0.014788
0.0142728
0.0136494
0.0129404
0.012168
0.0113524
0.0105111
0.00965831
0.0088051
0.00795948
0.00712691
0.00631075
0.00551262
0.00473283
0.00397061
0.00322444
0.00249218
0.00177125
0.00105877
0.000351859
0.0144624
0.0139872
0.0134096
0.0127484
0.0120224
0.0112495
0.0104455
0.00962387
0.00879549
0.00796869
0.00714948
0.00634192
0.00554834
0.00476974
0.00400601
0.00325618
0.0025186
0.00179111
0.00107121
0.000356235
0.014226
0.0137787
0.0132332
0.0126057
0.0119127
0.0111704
0.0103935
0.00959483
0.00878496
0.00797237
0.00716343
0.00636262
0.00557281
0.00479547
0.00403095
0.00327871
0.00253745
0.00180534
0.00108016
0.000359399
0.0140746
0.0136451
0.0131197
0.0125133
0.0118412
0.0111184
0.0103588
0.00957482
0.00877692
0.00797359
0.00717141
0.00637512
0.00558788
0.00481149
0.00404658
0.00329288
0.00254935
0.00181436
0.00108584
0.000361422
0.0140057
0.0135835
0.0130671
0.0124703
0.0118077
0.0110939
0.0103423
0.00956516
0.00877286
0.00797389
0.00717488
0.00638073
0.00559473
0.00481882
0.00405376
0.00329941
0.00255484
0.00181852
0.00108848
0.00036236
0.0345557
0.0417127
0.0469034
0.0508674
0.0539068
0.0561814
0.0578124
0.0588896
0.0594738
0.0596015
0.0592893
0.0585355
0.0573197
0.0556018
0.0533178
0.0503746
0.0466483
0.0419795
0.0360453
0.0279907
0.0430271
0.0454225
0.0473883
0.0490153
0.0503487
0.0514048
0.0521925
0.0527189
0.052989
0.0530053
0.0527684
0.0522772
0.0515293
0.0505201
0.0492426
0.0476861
0.0458448
0.0437419
0.0413524
0.0380573
0.0379553
0.0394846
0.040874
0.0420936
0.0431284
0.0439691
0.0446097
0.0450461
0.0452757
0.0452967
0.0451077
0.0447072
0.0440941
0.0432674
0.042226
0.04097
0.0395033
0.037838
0.0359693
0.0337928
0.0353422
0.036176
0.0369279
0.0375864
0.0381427
0.0385899
0.0389226
0.0391368
0.0392295
0.0391984
0.0390424
0.0387609
0.0383539
0.0378222
0.0371675
0.0363922
0.0355014
0.0345038
0.033397
0.0321244
0.0312948
0.0318253
0.0323046
0.032725
0.0330797
0.0333631
0.0335704
0.0336978
0.0337426
0.0337028
0.0335775
0.0333665
0.0330707
0.0326918
0.0322325
0.0316966
0.0310892
0.030417
0.0296858
0.0288931
0.0285879
0.0289203
0.0292146
0.0294673
0.0296752
0.0298356
0.0299461
0.0300049
0.0300107
0.0299624
0.0298598
0.0297027
0.029492
0.0292285
0.028914
0.0285504
0.0281409
0.0276896
0.0271984
0.026657
0.0258278
0.0260479
0.0262408
0.0264043
0.0265366
0.0266358
0.0267006
0.0267298
0.0267227
0.0266786
0.0265974
0.0264793
0.0263248
0.0261347
0.0259102
0.0256529
0.0253646
0.0250477
0.0247044
0.0243353
0.0238027
0.0239525
0.0240812
0.024188
0.0242717
0.0243314
0.0243665
0.0243764
0.0243606
0.0243189
0.0242513
0.0241579
0.0240391
0.0238952
0.0237271
0.0235355
0.0233217
0.0230871
0.0228325
0.0225543
0.0219297
0.0220344
0.0221233
0.0221957
0.022251
0.0222886
0.0223082
0.0223093
0.0222919
0.0222556
0.0222006
0.022127
0.022035
0.0219249
0.0217972
0.0216525
0.0214913
0.0213147
0.0211233
0.0209172
0.0204756
0.0205515
0.0206148
0.0206652
0.0207023
0.0207257
0.0207352
0.0207307
0.0207121
0.0206792
0.0206321
0.0205709
0.0204957
0.0204068
0.0203044
0.0201889
0.0200607
0.0199204
0.0197684
0.019603
0.0191826
0.0192388
0.019285
0.0193209
0.0193464
0.0193613
0.0193653
0.0193585
0.0193407
0.0193119
0.0192722
0.0192215
0.0191601
0.019088
0.0190054
0.0189126
0.0188099
0.0186976
0.018576
0.018445
0.0181471
0.0181901
0.0182249
0.0182513
0.0182692
0.0182783
0.0182788
0.0182704
0.0182531
0.018227
0.0181921
0.0181484
0.018096
0.0180349
0.0179654
0.0178875
0.0178016
0.0177077
0.0176062
0.0174962
0.0172509
0.0172846
0.0173114
0.0173313
0.017344
0.0173497
0.0173481
0.0173393
0.0173233
0.0173
0.0172695
0.0172317
0.0171869
0.0171349
0.017076
0.0170103
0.0169378
0.0168587
0.0167733
0.0166812
0.0165285
0.0165557
0.016577
0.0165924
0.0166017
0.0166049
0.016602
0.016593
0.0165778
0.0165564
0.0165289
0.0164953
0.0164557
0.01641
0.0163584
0.0163009
0.0162377
0.0161688
0.0160944
0.0160141
0.0159239
0.0159465
0.0159639
0.0159761
0.0159831
0.0159848
0.0159812
0.0159723
0.0159581
0.0159386
0.0159138
0.0158837
0.0158483
0.0158078
0.0157621
0.0157114
0.0156556
0.0155949
0.0155294
0.015459
0.0154486
0.015468
0.0154827
0.0154927
0.0154981
0.0154987
0.0154947
0.0154859
0.0154724
0.0154541
0.0154311
0.0154035
0.0153712
0.0153342
0.0152927
0.0152466
0.015196
0.0151411
0.0150818
0.0150179
0.0150757
0.0150927
0.0151055
0.0151141
0.0151184
0.0151184
0.0151141
0.0151055
0.0150927
0.0150755
0.0150541
0.0150284
0.0149985
0.0149643
0.014926
0.0148835
0.014837
0.0147864
0.0147319
0.0146733
0.0148093
0.0148248
0.0148363
0.0148439
0.0148475
0.0148471
0.0148426
0.0148342
0.0148217
0.0148053
0.0147848
0.0147604
0.014732
0.0146996
0.0146634
0.0146233
0.0145793
0.0145316
0.0144802
0.0144248
0.0146335
0.014648
0.0146588
0.0146658
0.014669
0.0146684
0.0146639
0.0146556
0.0146435
0.0146276
0.0146079
0.0145844
0.0145572
0.0145262
0.0144915
0.0144531
0.0144111
0.0143655
0.0143164
0.0142637
0.0145615
0.0145756
0.0145861
0.0145928
0.0145958
0.014595
0.0145905
0.0145822
0.0145702
0.0145544
0.0145349
0.0145117
0.0144847
0.0144541
0.0144198
0.0143819
0.0143403
0.0142952
0.0142466
0.0141942
0.0127169
0.0131168
0.0135048
0.0138828
0.0142478
0.0145894
0.0148943
0.0151474
0.0153344
0.0154449
0.0154769
0.0154426
0.0153747
0.0153367
0.0154323
0.0157972
0.0165484
0.0177944
0.0200495
0.0250737
0.0145841
0.014914
0.0153104
0.0157555
0.0162547
0.0168201
0.017465
0.0182049
0.0190573
0.0200412
0.0211757
0.0224787
0.0239654
0.0256474
0.0275321
0.0296215
0.0319162
0.0344331
0.0372124
0.0402036
0.0177274
0.0182748
0.0188369
0.0194274
0.0200502
0.0207077
0.0214034
0.0221415
0.0229266
0.0237637
0.0246585
0.0256173
0.0266473
0.0277566
0.0289536
0.0302454
0.0316368
0.0331284
0.0347094
0.0363416
0.0187107
0.019242
0.0198134
0.0204178
0.0210562
0.0217311
0.0224441
0.0231959
0.0239871
0.0248173
0.0256854
0.0265895
0.0275264
0.0284918
0.02948
0.0304837
0.031494
0.0324998
0.0334875
0.0344407
0.0193498
0.0198368
0.0203366
0.0208523
0.0213842
0.0219323
0.0224963
0.0230761
0.0236715
0.0242817
0.0249059
0.0255428
0.0261907
0.0268472
0.0275092
0.0281724
0.028832
0.0294817
0.0301142
0.0307215
0.0193049
0.0197358
0.0201776
0.02063
0.0210923
0.021564
0.0220443
0.022532
0.023026
0.0235247
0.0240262
0.0245284
0.025029
0.0255251
0.0260138
0.0264918
0.0269554
0.0274008
0.0278241
0.0282211
0.0189418
0.0193006
0.0196629
0.0200289
0.0203982
0.0207701
0.0211436
0.0215181
0.0218926
0.0222658
0.0226366
0.0230036
0.0233652
0.0237197
0.0240651
0.0243996
0.0247209
0.0250268
0.0253148
0.0255826
0.0184174
0.0187236
0.0190299
0.0193369
0.0196442
0.019951
0.0202564
0.0205598
0.0208602
0.0211565
0.0214477
0.0217328
0.0220104
0.0222793
0.0225382
0.0227856
0.0230203
0.0232408
0.0234456
0.0236334
0.0177782
0.0180307
0.0182817
0.0185314
0.0187792
0.0190245
0.0192668
0.0195055
0.0197399
0.0199692
0.0201928
0.0204099
0.0206196
0.0208212
0.0210137
0.0211963
0.0213681
0.0215282
0.0216758
0.0218099
0.0171435
0.0173584
0.0175702
0.0177795
0.0179861
0.0181893
0.0183888
0.0185839
0.0187742
0.0189591
0.0191382
0.0193107
0.0194762
0.0196341
0.0197837
0.0199245
0.0200558
0.0201772
0.0202879
0.0203876
0.0165072
0.0166875
0.0168646
0.0170387
0.0172096
0.0173767
0.0175398
0.0176985
0.0178524
0.0180011
0.0181443
0.0182815
0.0184123
0.0185364
0.0186533
0.0187627
0.018864
0.0189571
0.0190414
0.0191167
0.015927
0.0160827
0.0162347
0.0163835
0.0165288
0.0166703
0.0168078
0.0169409
0.0170694
0.017193
0.0173114
0.0174243
0.0175314
0.0176325
0.0177272
0.0178153
0.0178964
0.0179705
0.0180371
0.018096
0.0153923
0.0155266
0.0156574
0.015785
0.0159092
0.0160296
0.0161461
0.0162585
0.0163666
0.0164701
0.0165689
0.0166627
0.0167513
0.0168345
0.0169122
0.0169841
0.0170501
0.0171099
0.0171634
0.0172105
0.0149275
0.0150464
0.0151617
0.0152738
0.0153826
0.0154877
0.0155891
0.0156866
0.01578
0.0158692
0.015954
0.0160343
0.0161099
0.0161806
0.0162463
0.0163069
0.0163623
0.0164122
0.0164566
0.0164954
0.0145246
0.0146307
0.0147334
0.014833
0.0149293
0.0150223
0.0151116
0.0151973
0.0152792
0.0153571
0.0154311
0.0155008
0.0155663
0.0156274
0.015684
0.015736
0.0157833
0.0158259
0.0158635
0.0158962
0.0141934
0.0142902
0.0143838
0.0144743
0.0145617
0.0146458
0.0147265
0.0148037
0.0148773
0.0149472
0.0150134
0.0150757
0.015134
0.0151883
0.0152384
0.0152844
0.0153261
0.0153634
0.0153963
0.0154247
0.0139285
0.0140182
0.0141047
0.0141883
0.0142688
0.0143462
0.0144203
0.0144911
0.0145585
0.0146224
0.0146827
0.0147394
0.0147924
0.0148417
0.0148871
0.0149286
0.0149661
0.0149996
0.0150291
0.0150545
0.013734
0.0138189
0.0139008
0.0139797
0.0140557
0.0141286
0.0141983
0.0142648
0.014328
0.0143879
0.0144444
0.0144974
0.0145469
0.0145928
0.014635
0.0146735
0.0147083
0.0147394
0.0147665
0.0147899
0.0136065
0.0136879
0.0137664
0.0138421
0.013915
0.0139848
0.0140515
0.0141152
0.0141756
0.0142328
0.0142868
0.0143373
0.0143845
0.0144282
0.0144683
0.014505
0.014538
0.0145674
0.0145932
0.0146152
0.0135513
0.0136319
0.0137094
0.0137841
0.0138559
0.0139246
0.0139904
0.014053
0.0141125
0.0141687
0.0142217
0.0142713
0.0143176
0.0143605
0.0143999
0.0144358
0.0144681
0.0144969
0.0145221
0.0145436
0.0072152
0.009219
0.0101554
0.0107478
0.0111378
0.0113597
0.0114574
0.0114715
0.0114307
0.0113554
0.0112605
0.0111573
0.0110542
0.0109576
0.0108722
0.0108023
0.0107494
0.0107141
0.0107027
0.0107172
0.00781789
0.00866675
0.00914009
0.00948374
0.00974507
0.00993079
0.0100542
0.01013
0.0101703
0.0101841
0.0101789
0.0101604
0.0101332
0.0101007
0.0100651
0.0100283
0.0099923
0.00995948
0.0099249
0.0098861
0.00826136
0.00875373
0.00911268
0.0093876
0.00959554
0.00974421
0.00984267
0.00990053
0.00992649
0.00992803
0.0099115
0.00988218
0.00984432
0.00980128
0.0097556
0.00970919
0.00966351
0.00961904
0.00957388
0.00952769
0.00828731
0.00854653
0.00875182
0.00891372
0.00903749
0.00912684
0.00918606
0.00921984
0.00923274
0.009229
0.0092124
0.00918626
0.0091534
0.00911613
0.00907629
0.00903541
0.00899479
0.0089549
0.00891355
0.00886898
0.00804144
0.00820206
0.00833766
0.00844701
0.00853144
0.00859286
0.00863348
0.00865578
0.00866243
0.00865607
0.00863928
0.00861442
0.0085836
0.00854868
0.0085112
0.00847252
0.00843381
0.00839555
0.00835603
0.00831441
0.00762731
0.00772929
0.00781718
0.00788673
0.00793851
0.00797404
0.0079948
0.00800243
0.00799869
0.00798542
0.00796441
0.0079374
0.00790596
0.00787152
0.00783528
0.00779834
0.00776172
0.00772583
0.0076889
0.00764976
0.00710644
0.00717559
0.00723695
0.00728419
0.0073175
0.00733821
0.00734744
0.00734633
0.00733616
0.00731833
0.00729423
0.00726522
0.00723259
0.00719749
0.00716096
0.00712395
0.00708735
0.00705149
0.00701463
0.00697578
0.00651961
0.00656507
0.00660656
0.0066364
0.00665466
0.0066626
0.00666113
0.00665116
0.00663373
0.00660999
0.00658114
0.00654834
0.00651269
0.00647524
0.00643688
0.00639847
0.00636087
0.00632434
0.00628709
0.00624801
0.00588314
0.00590981
0.00593558
0.00595149
0.00595748
0.00595474
0.00594403
0.00592607
0.00590174
0.00587204
0.00583801
0.00580071
0.00576116
0.00572029
0.00567897
0.00563801
0.00559823
0.00555988
0.00552111
0.00548084
0.00521206
0.00522043
0.00523012
0.00523136
0.00522405
0.00520934
0.00518787
0.00516022
0.00512718
0.00508964
0.00504856
0.00500491
0.00495967
0.00491373
0.00486793
0.00482306
0.00477995
0.00473885
0.00469783
0.00465573
0.00451625
0.0045043
0.00449517
0.00447893
0.00445552
0.00442606
0.00439109
0.00435112
0.00430684
0.00425904
0.0042086
0.00415643
0.00410344
0.00405048
0.00399838
0.00394793
0.00389997
0.00385473
0.0038102
0.00376518
0.00380917
0.00377101
0.00373609
0.00369547
0.00364927
0.00359859
0.00354399
0.00348593
0.00342505
0.00336206
0.00329775
0.00323295
0.00316849
0.0031052
0.00304386
0.00298527
0.00293029
0.00287917
0.00282975
0.00278063
0.00311797
0.00304546
0.0029748
0.0029
0.00282157
0.00274064
0.00265787
0.00257381
0.00248909
0.00240432
0.00232019
0.00223737
0.00215656
0.00207846
0.00200376
0.00193322
0.0018677
0.00180744
0.00175003
0.00169417
0.00246929
0.00234679
0.0022221
0.00209467
0.00196563
0.0018362
0.00170745
0.00158029
0.00145557
0.00133399
0.00121622
0.00110286
0.000994486
0.000891685
0.000795062
0.000705347
0.000623482
0.000549766
0.000481411
0.000416341
0.00195197
0.00176831
0.00157421
0.00137765
0.00118074
0.000985028
0.000792386
0.00060459
0.000423097
0.000249028
8.31882e-05
-7.38897e-05
-0.000221877
-0.000360561
-0.000489733
-0.000608995
-0.000717623
-0.000815584
-0.000906111
-0.000990223
0.00160636
0.00132849
0.00102797
0.000721666
0.000412181
0.00010157
-0.00020681
-0.000509412
-0.000802982
-0.00108469
-0.00135223
-0.00160388
-0.00183846
-0.00205528
-0.00225385
-0.0024335
-0.00259289
-0.0027312
-0.00285246
-0.00296132
0.00175014
0.00140368
0.00101516
0.000610804
0.00019413
-0.000232306
-0.000663494
-0.00109351
-0.0015163
-0.00192607
-0.00231771
-0.00268717
-0.00303187
-0.0033508
-0.00364431
-0.00391346
-0.00415916
-0.00438345
-0.00459276
-0.00478449
0.00220813
0.0017113
0.00115476
0.000560534
-7.20923e-05
-0.000742685
-0.00144699
-0.00217837
-0.00292825
-0.00368626
-0.00444066
-0.00517903
-0.00588916
-0.00656016
-0.0071833
-0.00775194
-0.0082601
-0.00870384
-0.00909191
-0.00943477
0.00437182
0.00403575
0.00361479
0.00313111
0.00258436
0.00197117
0.00129101
0.000546129
-0.000258355
-0.00111419
-0.00200996
-0.00293153
-0.00386332
-0.00479028
-0.00569973
-0.00658128
-0.00742935
-0.00826942
-0.00920961
-0.0103186
0.00593892
0.00535194
0.00470227
0.00395466
0.00308863
0.00208626
0.000927878
-0.000407051
-0.00193862
-0.00368537
-0.00566287
-0.00788222
-0.0103488
-0.0130612
-0.0160074
-0.019157
-0.0224656
-0.0259467
-0.0297864
-0.0339012
0.000248512
0.000758391
0.00127221
0.00179012
0.00231328
0.00284243
0.0033782
0.00392122
0.00447204
0.00503114
0.00559894
0.00617582
0.00676215
0.00735848
0.00796588
0.00858678
0.00922735
0.00990421
0.0106579
0.0116206
0.000263019
0.000800633
0.00134263
0.00188953
0.00244291
0.00300409
0.00357443
0.00415545
0.00474894
0.005357
0.00598226
0.00662815
0.00729932
0.0080022
0.00874568
0.00954164
0.010406
0.0113642
0.0124703
0.0137847
0.000276858
0.000840905
0.00140969
0.00198411
0.0025661
0.0031575
0.0037603
0.00437682
0.00500986
0.00566287
0.00634024
0.00704777
0.00779334
0.00858795
0.00944746
0.0103956
0.0114689
0.0127228
0.0142302
0.016114
0.00028985
0.00087868
0.00147249
0.00207252
0.00268099
0.00330017
0.00393253
0.00458102
0.00524917
0.00594139
0.00666326
0.00742205
0.00822735
0.00909205
0.0100337
0.0110763
0.0122538
0.0136152
0.0152396
0.0172455
0.000301843
0.000913514
0.00153029
0.00215366
0.00278609
0.00343011
0.00408855
0.00476473
0.00546266
0.00618725
0.00694469
0.00774291
0.00859222
0.00950626
0.0105033
0.0116078
0.0128524
0.0142803
0.0159465
0.0179199
0.000312722
0.000945069
0.00158251
0.00222673
0.00288031
0.00354594
0.00422661
0.00492583
0.00564775
0.0063974
0.00718102
0.00800636
0.0088832
0.00982393
0.0108443
0.0119641
0.0132084
0.0146099
0.0162089
0.0180452
0.000322413
0.000973134
0.00162881
0.00229124
0.00296303
0.0036469
0.00434585
0.00506335
0.00580345
0.006571
0.00737182
0.00821303
0.00910332
0.0100534
0.0110762
0.0121871
0.0134042
0.0147477
0.0162357
0.0178739
0.000330885
0.000997621
0.00166905
0.00234704
0.00303409
0.00373285
0.0044462
0.00517741
0.00593022
0.00670899
0.00751886
0.00836583
0.009257
0.0102006
0.011206
0.0122835
0.0134444
0.0146992
0.0160531
0.0174991
0.000338147
0.00101857
0.00170333
0.00239428
0.00309376
0.00380423
0.00452836
0.00526909
0.00602969
0.00681392
0.00762599
0.00847072
0.00935349
0.0102802
0.011257
0.01229
0.0133843
0.0145419
0.015758
0.0170152
0.000344247
0.00103611
0.00173191
0.00243337
0.00314264
0.00386195
0.00459362
0.00534019
0.00610442
0.00688929
0.00769807
0.00853427
0.00940153
0.0103035
0.0112435
0.0122238
0.0132451
0.0143045
0.0153924
0.0164895
0.000349261
0.00105049
0.00175519
0.00246496
0.00318167
0.00390725
0.0046437
0.00539308
0.00615755
0.00693937
0.00774085
0.00856426
0.00941173
0.010285
0.0111849
0.0121111
0.0130608
0.0140277
0.0149997
0.0159563
0.00035329
0.00106201
0.00177371
0.00248982
0.00321193
0.00394166
0.00468062
0.0054304
0.00619258
0.00696869
0.00776014
0.00856809
0.00939332
0.0102359
0.011095
0.0119681
0.0128505
0.0137342
0.0146065
0.0154488
0.000356451
0.00107101
0.00178807
0.00250885
0.00323467
0.00396683
0.00470654
0.00545496
0.0062131
0.00698184
0.00776178
0.00855313
0.00935557
0.010168
0.010988
0.0118119
0.0126336
0.0134445
0.0142318
0.0149786
0.000358867
0.00107785
0.00179888
0.00252297
0.00325116
0.00398443
0.00472365
0.00546954
0.00622262
0.00698317
0.00775111
0.00852587
0.00930623
0.0100901
0.0108743
0.0116541
0.0124229
0.0131719
0.0138892
0.0145601
0.000360664
0.00108292
0.00180679
0.00253311
0.00326265
0.00399611
0.00473404
0.00547677
0.0062244
0.00697671
0.00773304
0.0084922
0.0092523
0.0100106
0.0107631
0.0115048
0.0122288
0.0129263
0.0135866
0.0141963
0.00036196
0.00108655
0.00181239
0.00254012
0.00327031
0.00400339
0.00473963
0.00547904
0.00622138
0.00696599
0.00771177
0.00845704
0.00919942
0.00993565
0.0106615
0.0113714
0.0120586
0.0127148
0.0133301
0.0138927
0.000362866
0.00108906
0.00181621
0.0025448
0.00327519
0.00400762
0.00474213
0.00547848
0.00621612
0.0069541
0.00769095
0.00842465
0.00915244
0.00987075
0.010575
0.0112597
0.0119181
0.0125422
0.0131229
0.0136498
0.00036347
0.00109073
0.00181871
0.00254777
0.00327815
0.00400993
0.00474296
0.00547682
0.00621074
0.00694355
0.00767353
0.0083984
0.00911517
0.00982004
0.0105084
0.0111745
0.0118118
0.0124126
0.0129684
0.0134699
0.000363836
0.00109173
0.00182019
0.00254951
0.00327982
0.0040111
0.00474311
0.00547528
0.00620673
0.00693611
0.00766157
0.00838066
0.00909024
0.00978641
0.0104644
0.0111186
0.0117424
0.0123284
0.0128684
0.0133534
0.000364
0.00109218
0.00182086
0.00255027
0.00328054
0.00401158
0.00474309
0.00547446
0.00620473
0.00693249
0.00765583
0.00837221
0.00907843
0.00977053
0.0104437
0.0110924
0.01171
0.0122892
0.0128221
0.0133003
-6.78848e-05
-0.000144113
-0.000232488
-0.000324073
-0.000420805
-0.000523223
-0.000633159
-0.000751906
-0.000881136
-0.00102266
-0.00117861
-0.00135117
-0.00154209
-0.00175237
-0.00197958
-0.00220845
-0.00234358
-0.00208997
-0.00112067
-0.00393855
-4.22762e-05
-9.64378e-05
-0.000148141
-0.000203817
-0.000261181
-0.000321032
-0.000383155
-0.00044744
-0.000513037
-0.000578371
-0.000640461
-0.000693992
-0.000730257
-0.000735357
-0.000684827
-0.000514371
-7.00129e-05
0.000907224
0.00233763
0.003649
-2.62158e-05
-4.45674e-05
-6.33658e-05
-8.24463e-05
-0.000100992
-0.000118635
-0.000134218
-0.00014606
-0.000151389
-0.000145862
-0.000122642
-7.11134e-05
2.48056e-05
0.000190032
0.000467791
0.000941377
0.00174254
0.00296721
0.00452113
0.00640279
-1.01221e-05
6.2132e-06
2.12498e-05
3.789e-05
5.71248e-05
8.00343e-05
0.000108474
0.000145217
0.000194371
0.000262034
0.00035719
0.000492883
0.000687889
0.000970416
0.00138673
0.00201149
0.00293247
0.00418346
0.00570405
0.00736761
6.65162e-06
5.5717e-05
0.000104402
0.00015568
0.000211124
0.00027222
0.000341297
0.000421722
0.000518316
0.00063798
0.000790507
0.000989623
0.00125458
0.00161325
0.00210695
0.00279028
0.00371038
0.00486898
0.00619539
0.00750431
2.31725e-05
0.000103984
0.00018524
0.000269805
0.000359487
0.000455986
0.000561802
0.000680446
0.000816818
0.000977715
0.00117246
0.00141372
0.00171875
0.00211154
0.00262467
0.00329556
0.0041491
0.00517183
0.00628303
0.00729713
3.93005e-05
0.000150837
0.000263439
0.000379741
0.000501574
0.000630617
0.000769265
0.000920802
0.00108972
0.00128209
0.00150604
0.00177234
0.0020952
0.00249326
0.00298941
0.0036062
0.00435395
0.00521314
0.00611197
0.00689777
5.49277e-05
0.00019622
0.00033894
0.000485436
0.0006374
0.000796293
0.000964163
0.00114376
0.00133878
0.00155407
0.001796
0.00207279
0.00239494
0.00277558
0.00322945
0.00376911
0.00439692
0.0050929
0.00579969
0.00639807
7.01123e-05
0.000240243
0.000411989
0.000587313
0.000767656
0.000954115
0.00114822
0.00135198
0.00156805
0.00179982
0.00205165
0.00232899
0.00263858
0.00298822
0.00338564
0.00383583
0.00433675
0.00487243
0.00540183
0.00583283
8.49205e-05
0.000283149
0.000483041
0.000686114
0.000893478
0.00110577
0.0013239
0.001549
0.00178253
0.00202629
0.00228249
0.00255377
0.00284322
0.00315401
0.00348825
0.00384551
0.00422137
0.00460406
0.00496391
0.00522836
9.9469e-05
0.000325281
0.000552724
0.000782832
0.00101635
0.00125342
0.00149427
0.00173914
0.00198825
0.00224179
0.00249987
0.00276241
0.00302906
0.00329869
0.00356856
0.0038338
0.00408839
0.00432339
0.0045141
0.00460142
0.000113882
0.000367026
0.000621733
0.000878559
0.00113788
0.00139936
0.00166256
0.00192683
0.00219123
0.0024544
0.00271443
0.00296872
0.00321371
0.00344438
0.00365359
0.00383245
0.00397273
0.00406473
0.00408123
0.00397322
0.00012829
0.000408773
0.000690767
0.000974382
0.00125967
0.00154587
0.00183194
0.00211646
0.00239744
0.00267214
0.00293683
0.0031866
0.00341491
0.00361309
0.00376972
0.00387166
0.00390693
0.00386078
0.00369625
0.00337257
0.000142803
0.00045086
0.000760429
0.00107124
0.00138311
0.00169493
0.0020052
0.00231188
0.0026121
0.00290199
0.0031763
0.00342808
0.00364817
0.00382448
0.00394145
0.00398114
0.00392562
0.00375043
0.00340241
0.0028402
0.000157505
0.000493535
0.000831164
0.00116985
0.00150924
0.00184805
0.0021845
0.00251611
0.00283945
0.00314981
0.00344079
0.00370384
0.00392756
0.00409683
0.00419213
0.00419026
0.0040652
0.00377861
0.00325584
0.00244914
0.000172437
0.00053692
0.000903194
0.00127055
0.00163862
0.00200608
0.00237107
0.00273098
0.00308214
0.00341945
0.00373589
0.00402192
0.00426452
0.00444619
0.00454389
0.00452899
0.00436598
0.00400034
0.00333421
0.00229956
0.000187589
0.000580988
0.000976476
0.00137331
0.00177122
0.00216904
0.00256506
0.00295684
0.00334087
0.00371223
0.00406402
0.00438659
0.00466646
0.00488493
0.00501654
0.00502776
0.00487364
0.0044845
0.00374362
0.00256234
0.000202902
0.000625556
0.00105069
0.00147765
0.00190641
0.0023361
0.0027654
0.00319232
0.00361398
0.00402622
0.00442309
0.00479611
0.00513307
0.00541642
0.00562106
0.00571125
0.00563494
0.00531153
0.00461488
0.00337932
0.000218266
0.000670295
0.00112527
0.00158273
0.00204298
0.00250562
0.00296988
0.0034345
0.00389756
0.00435619
0.00480619
0.00524147
0.00565308
0.00602791
0.0063463
0.00657779
0.00667221
0.00654393
0.00605884
0.00510337
0.000233529
0.000714752
0.00119942
0.00168736
0.00217927
0.00267531
0.00317538
0.00367914
0.00418586
0.00469429
0.00520247
0.00570744
0.00620486
0.00668841
0.00714879
0.00757093
0.00792611
0.00815489
0.008134
0.00752662
-0.000156683
-0.000314267
-0.000561383
-0.00077555
-0.00102685
-0.00128606
-0.00157509
-0.00189207
-0.00224821
-0.00265118
-0.003112
-0.00364626
-0.00426192
-0.0049913
-0.00579313
-0.00678008
-0.0077049
-0.00912452
-0.00998859
-0.0120718
-0.000157856
-0.000305471
-0.00055059
-0.000758316
-0.00100504
-0.00125828
-0.00154144
-0.00185189
-0.00220122
-0.00259711
-0.00305101
-0.00357959
-0.00419198
-0.00492568
-0.00574163
-0.00677341
-0.007753
-0.00928379
-0.0101709
-0.0123191
-0.000158259
-0.000296864
-0.000539279
-0.000740724
-0.00098254
-0.0012297
-0.00150673
-0.0018104
-0.00215254
-0.00254089
-0.00298725
-0.00350921
-0.00411723
-0.0048533
-0.00568154
-0.00675387
-0.00778714
-0.00942418
-0.0103327
-0.0124985
-0.000158122
-0.000288352
-0.000527518
-0.000722777
-0.000959396
-0.00120037
-0.001471
-0.00176763
-0.00210224
-0.00248257
-0.00292076
-0.00343517
-0.00403764
-0.00477397
-0.00561202
-0.00671925
-0.00780142
-0.00954105
-0.010487
-0.0127014
-0.000157526
-0.00027989
-0.000515324
-0.000704473
-0.000935618
-0.00117029
-0.00143427
-0.0017236
-0.00205031
-0.00242214
-0.00285151
-0.00335738
-0.00395296
-0.00468724
-0.00553227
-0.00666866
-0.00779476
-0.00963209
-0.0106265
-0.0129192
-0.000156538
-0.000271449
-0.000502715
-0.000685813
-0.000911222
-0.00113948
-0.00139655
-0.00167833
-0.00199677
-0.00235963
-0.00277948
-0.00327576
-0.003863
-0.00459272
-0.00544155
-0.00660094
-0.00776558
-0.00969498
-0.0107456
-0.0131371
-0.000155217
-0.000263003
-0.000489707
-0.000666804
-0.000886226
-0.00110794
-0.00135788
-0.00163184
-0.00194165
-0.00229503
-0.00270466
-0.00319028
-0.00376763
-0.0044901
-0.00533918
-0.00651498
-0.00771214
-0.00972732
-0.0108403
-0.0133481
-0.000153615
-0.000254534
-0.000476316
-0.000647453
-0.000860648
-0.00107571
-0.00131827
-0.00158417
-0.00188499
-0.00222839
-0.00262709
-0.00310092
-0.00366675
-0.00437912
-0.00522458
-0.00640973
-0.0076327
-0.0097265
-0.0109061
-0.0135474
-0.000151776
-0.000246026
-0.000462556
-0.000627768
-0.000834508
-0.00104279
-0.00127776
-0.00153533
-0.0018268
-0.00215974
-0.00254678
-0.0030077
-0.00356028
-0.0042596
-0.00509728
-0.00628422
-0.00752551
-0.00968965
-0.0109375
-0.0137298
-0.000149743
-0.000237467
-0.000448439
-0.000607759
-0.000807826
-0.00100922
-0.00123637
-0.00148537
-0.00176715
-0.00208913
-0.00246378
-0.00291065
-0.00344823
-0.00413142
-0.00495689
-0.00613759
-0.00738886
-0.00961365
-0.0109275
-0.0138901
-0.000147552
-0.000228849
-0.000433976
-0.000587437
-0.000780623
-0.000975005
-0.00119414
-0.00143433
-0.00170608
-0.00201662
-0.00237817
-0.00280985
-0.00333062
-0.00399456
-0.00480315
-0.0059691
-0.00722115
-0.00949513
-0.0108676
-0.0140231
-0.000145242
-0.000220165
-0.000419177
-0.000566818
-0.000752921
-0.000940184
-0.0011511
-0.00138226
-0.00164364
-0.00194227
-0.00229002
-0.0027054
-0.00320755
-0.00384906
-0.00463594
-0.00577813
-0.00702093
-0.00933056
-0.0107476
-0.0141249
-0.000142839
-0.000211417
-0.000404047
-0.000545914
-0.000724742
-0.000904777
-0.00110729
-0.00132918
-0.00157989
-0.00186617
-0.00219942
-0.0025974
-0.00307914
-0.00369506
-0.00445522
-0.0055642
-0.00678689
-0.00911582
-0.0105555
-0.0141929
-0.000140338
-0.00020262
-0.00038859
-0.000524741
-0.000696108
-0.000868809
-0.00106274
-0.00127516
-0.0015149
-0.00178839
-0.00210649
-0.002486
-0.00294557
-0.00353276
-0.00426108
-0.00532693
-0.00651773
-0.00884567
-0.0102766
-0.0142252
-0.000137746
-0.000193783
-0.000372815
-0.000503312
-0.000667041
-0.000832307
-0.00101749
-0.00122024
-0.00144871
-0.00170901
-0.00201133
-0.00237137
-0.00280704
-0.00336246
-0.00405381
-0.0050663
-0.00621255
-0.00851453
-0.00989376
-0.0142168
-0.000135268
-0.000184826
-0.000356744
-0.000481643
-0.000637576
-0.000795307
-0.000971595
-0.00116449