x,y,z,p
0,0,0,0.000276175
0,0.1,0,0.000607927
0,0.2,0,0.000939679
0,0.3,0,0.00132732
0,0.4,0,0.00177084
0,0.5,0,0.00221436
0,0.6,0,0.00266035
0,0.7,0,0.00310635
0,0.8,0,0.00355409
0,0.9,0,0.00400357
0,1,0,0.00445306
0,1.1,0,0.00490683
0,1.2,0,0.00536061
0,1.3,0,0.00581681
0,1.4,0,0.00627541
0,1.5,0,0.00673402
0,1.6,0,0.00719767
0,1.7,0,0.00766132
0,1.8,0,0.00812738
0,1.9,0,0.00859586
0,2,0,0.00906434
0,2.1,0,0.00953697
0,2.2,0,0.0100096
0,2.3,0,0.0104837
0,2.4,0,0.0109592
0,2.5,0,0.0114348
0,2.6,0,0.0119113
0,2.7,0,0.0123879
0,2.8,0,0.0128636
0,2.9,0,0.0133386
0,3,0,0.0138136
0,3.1,0,0.0142836
0,3.2,0,0.0147537
0,3.3,0,0.0152192
0,3.4,0,0.0156801
0,3.5,0,0.016141
0,3.6,0,0.0165879
0,3.7,0,0.0170348
0,3.8,0,0.0174718
0,3.9,0,0.017899
0,4,0,0.0183262
0,4.1,0,0.0187275
0,4.2,0,0.0191287
0,4.3,0,0.0195137
0,4.4,0,0.0198824
0,4.5,0,0.0202511
0,4.6,0,0.0205805
0,4.7,0,0.0209099
0,4.8,0,0.0212103
0,4.9,0,0.0214816
0,5,0,0.0217529
0,5.1,0,0.0220058
0,5.2,0,0.0222586
0,5.3,0,0.0224512
0,5.4,0,0.0226437
0,5.5,0,0.0227885
0,5.6,0,0.0229333
0,5.7,0,0.0230284
0,5.8,0,0.0231235
0,5.9,0,0.0231675
0,6,0,0.0232116
0,6.1,0,0.0232042
0,6.2,0,0.0231968
0,6.3,0,0.0231383
0,6.4,0,0.0230799
0,6.5,0,0.0229717
0,6.6,0,0.0228636
0,6.7,0,0.0227077
0,6.8,0,0.0225518
0,6.9,0,0.0223286
0,7,0,0.0221053
0,7.1,0,0.0218708
0,7.2,0,0.0216363
0,7.3,0,0.0213918
0,7.4,0,0.0210906
0,7.5,0,0.0207893
0,7.6,0,0.0204753
0,7.7,0,0.0201316
0,7.8,0,0.0197879
0,7.9,0,0.019429
0,8,0,0.0190517
0,8.1,0,0.0186743
0,8.2,0,0.0182819
0,8.3,0,0.0178795
0,8.4,0,0.0174771
0,8.5,0,0.0170617
0,8.6,0,0.016642
0,8.7,0,0.0162222
0,8.8,0,0.015793
0,8.9,0,0.0153628
0,9,0,0.0149323
0,9.1,0,0.0144973
0,9.2,0,0.0140623
0,9.3,0,0.0136272
0,9.4,0,0.013192
0,9.5,0,0.0127567
0,9.6,0,0.0123225
0,9.7,0,0.0118905
0,9.8,0,0.0114584
0,9.9,0,0.0110292
0,10,0,0.0106028
0,10.1,0,0.0101764
0,10.2,0,0.00975471
0,10.3,0,0.00933557
0,10.4,0,0.00891642
0,10.5,0,0.00850372
0,10.6,0,0.00809263
0,10.7,0,0.00768154
0,10.8,0,0.0072783
0,10.9,0,0.00687547
0,11,0,0.00647344
0,11.1,0,0.00607855
0,11.2,0,0.00568367
0,11.3,0,0.0052906
0,11.4,0,0.00490294
0,11.5,0,0.00451528
0,11.6,0,0.00413009
0,11.7,0,0.00374861
0,11.8,0,0.00336714
0,11.9,0,0.00298834
0,12,0,0.00261175
0,12.1,0,0.00223515
0,12.2,0,0.00186094
0,12.3,0,0.00148774
0,12.4,0,0.00111454
0,12.5,0,0.000821337
0,12.6,0,0.000542246
0,12.7,0,0.000263155
0.1,0,0,0.000165705
0.1,0.1,0,0.000497115
0.1,0.2,0,0.000883992
0.1,0.3,0,0.00132656
0.1,0.4,0,0.00176988
0.1,0.5,0,0.00221329
0.1,0.6,0,0.00265884
0.1,0.7,0,0.00310484
0.1,0.8,0,0.00355235
0.1,0.9,0,0.0040016
0.1,1,0,0.0044512
0.1,1.1,0,0.00490451
0.1,1.2,0,0.0053584
0.1,1.3,0,0.0058145
0.1,1.4,0,0.0062729
0.1,1.5,0,0.00673183
0.1,1.6,0,0.00719515
0.1,1.7,0,0.00765899
0.1,1.8,0,0.00812516
0.1,1.9,0,0.00859355
0.1,2,0,0.0090625
0.1,2.1,0,0.00953513
0.1,2.2,0,0.010008
0.1,2.3,0,0.0104825
0.1,2.4,0,0.0109581
0.1,2.5,0,0.0114342
0.1,2.6,0,0.0119113
0.1,2.7,0,0.0123882
0.1,2.8,0,0.0128647
0.1,2.9,0,0.0133402
0.1,3,0,0.0138156
0.1,3.1,0,0.014287
0.1,3.2,0,0.0147573
0.1,3.3,0,0.0152239
0.1,3.4,0,0.0156858
0.1,3.5,0,0.0161469
0.1,3.6,0,0.0165962
0.1,3.7,0,0.0170431
0.1,3.8,0,0.0174816
0.1,3.9,0,0.0179104
0.1,4,0,0.0183371
0.1,4.1,0,0.018742
0.1,4.2,0,0.0191429
0.1,4.3,0,0.0195296
0.1,4.4,0,0.0199004
0.1,4.5,0,0.0202678
0.1,4.6,0,0.0206018
0.1,4.7,0,0.0209303
0.1,4.8,0,0.0212384
0.1,4.9,0,0.0215183
0.1,5,0,0.0217747
0.1,5.1,0,0.0220355
0.1,5.2,0,0.0222824
0.1,5.3,0,0.0224698
0.1,5.4,0,0.0226689
0.1,5.5,0,0.0228081
0.1,5.6,0,0.0229597
0.1,5.7,0,0.0230486
0.1,5.8,0,0.0231505
0.1,5.9,0,0.0231882
0.1,6,0,0.0232388
0.1,6.1,0,0.0232248
0.1,6.2,0,0.0232237
0.1,6.3,0,0.0231585
0.1,6.4,0,0.0231062
0.1,6.5,0,0.0229913
0.1,6.6,0,0.0228888
0.1,6.7,0,0.0227263
0.1,6.8,0,0.0225756
0.1,6.9,0,0.0223638
0.1,7,0,0.0221271
0.1,7.1,0,0.0219168
0.1,7.2,0,0.021678
0.1,7.3,0,0.021412
0.1,7.4,0,0.0211173
0.1,7.5,0,0.0208119
0.1,7.6,0,0.0204927
0.1,7.7,0,0.0201533
0.1,7.8,0,0.0198048
0.1,7.9,0,0.0194431
0.1,8,0,0.0190683
0.1,8.1,0,0.0186862
0.1,8.2,0,0.0182926
0.1,8.3,0,0.0178915
0.1,8.4,0,0.0174847
0.1,8.5,0,0.017069
0.1,8.6,0,0.0166496
0.1,8.7,0,0.0162264
0.1,8.8,0,0.0157971
0.1,8.9,0,0.0153666
0.1,9,0,0.014934
0.1,9.1,0,0.0144986
0.1,9.2,0,0.0140632
0.1,9.3,0,0.0136271
0.1,9.4,0,0.013191
0.1,9.5,0,0.0127556
0.1,9.6,0,0.0123208
0.1,9.7,0,0.0118878
0.1,9.8,0,0.011456
0.1,9.9,0,0.0110262
0.1,10,0,0.010599
0.1,10.1,0,0.0101733
0.1,10.2,0,0.00975097
0.1,10.3,0,0.00933112
0.1,10.4,0,0.00891309
0.1,10.5,0,0.00849948
0.1,10.6,0,0.00808803
0.1,10.7,0,0.00767832
0.1,10.8,0,0.00727387
0.1,10.9,0,0.00687114
0.1,11,0,0.0064703
0.1,11.1,0,0.00607423
0.1,11.2,0,0.00567986
0.1,11.3,0,0.00528761
0.1,11.4,0,0.00489908
0.1,11.5,0,0.00451214
0.1,11.6,0,0.00412746
0.1,11.7,0,0.00374543
0.1,11.8,0,0.00336476
0.1,11.9,0,0.00298624
0.1,12,0,0.00260936
0.1,12.1,0,0.00223358
0.1,12.2,0,0.00185953
0.1,12.3,0,0.00148625
0.1,12.4,0,0.00111377
0.1,12.5,0,0.000742286
0.1,12.6,0,0.000436519
0.1,12.7,0,0.000157893
0.2,0,0,5.5235e-05
0.2,0.1,0,0.00044177
0.2,0.2,0,0.000883429
0.2,0.3,0,0.00132599
0.2,0.4,0,0.00176901
0.2,0.5,0,0.00221223
0.2,0.6,0,0.00265778
0.2,0.7,0,0.00310334
0.2,0.8,0,0.00355084
0.2,0.9,0,0.00399998
0.2,1,0,0.00444934
0.2,1.1,0,0.00490277
0.2,1.2,0,0.00535631
0.2,1.3,0,0.0058124
0.2,1.4,0,0.00627091
0.2,1.5,0,0.00672963
0.2,1.6,0,0.00719315
0.2,1.7,0,0.00765687
0.2,1.8,0,0.00812304
0.2,1.9,0,0.0085918
0.2,2,0,0.00906065
0.2,2.1,0,0.00953355
0.2,2.2,0,0.0100067
0.2,2.3,0,0.0104812
0.2,2.4,0,0.0109575
0.2,2.5,0,0.0114337
0.2,2.6,0,0.0119111
0.2,2.7,0,0.0123888
0.2,2.8,0,0.0128653
0.2,2.9,0,0.0133417
0.2,3,0,0.0138176
0.2,3.1,0,0.0142892
0.2,3.2,0,0.014761
0.2,3.3,0,0.0152277
0.2,3.4,0,0.0156907
0.2,3.5,0,0.0161527
0.2,3.6,0,0.016602
0.2,3.7,0,0.0170513
0.2,3.8,0,0.0174899
0.2,3.9,0,0.0179197
0.2,4,0,0.0183481
0.2,4.1,0,0.0187526
0.2,4.2,0,0.0191567
0.2,4.3,0,0.0195433
0.2,4.4,0,0.0199149
0.2,4.5,0,0.0202844
0.2,4.6,0,0.0206176
0.2,4.7,0,0.0209498
0.2,4.8,0,0.0212579
0.2,4.9,0,0.0215315
0.2,5,0,0.0217966
0.2,5.1,0,0.0220548
0.2,5.2,0,0.0223062
0.2,5.3,0,0.0224972
0.2,5.4,0,0.0226941
0.2,5.5,0,0.022837
0.2,5.6,0,0.022986
0.2,5.7,0,0.0230785
0.2,5.8,0,0.0231775
0.2,5.9,0,0.0232185
0.2,6,0,0.023266
0.2,6.1,0,0.0232551
0.2,6.2,0,0.0232507
0.2,6.3,0,0.0231884
0.2,6.4,0,0.0231325
0.2,6.5,0,0.0230202
0.2,6.6,0,0.022914
0.2,6.7,0,0.0227538
0.2,6.8,0,0.0225994
0.2,6.9,0,0.0223804
0.2,7,0,0.0221489
0.2,7.1,0,0.0219272
0.2,7.2,0,0.0216903
0.2,7.3,0,0.0214311
0.2,7.4,0,0.021131
0.2,7.5,0,0.0208269
0.2,7.6,0,0.0205086
0.2,7.7,0,0.0201641
0.2,7.8,0,0.0198173
0.2,7.9,0,0.0194556
0.2,8,0,0.0190763
0.2,8.1,0,0.0186955
0.2,8.2,0,0.0183018
0.2,8.3,0,0.0178968
0.2,8.4,0,0.0174911
0.2,8.5,0,0.0170747
0.2,8.6,0,0.0166528
0.2,8.7,0,0.0162302
0.2,8.8,0,0.0158002
0.2,8.9,0,0.0153681
0.2,9,0,0.0149357
0.2,9.1,0,0.0144998
0.2,9.2,0,0.0140633
0.2,9.3,0,0.013627
0.2,9.4,0,0.0131907
0.2,9.5,0,0.0127543
0.2,9.6,0,0.0123195
0.2,9.7,0,0.0118865
0.2,9.8,0,0.0114538
0.2,9.9,0,0.011024
0.2,10,0,0.0105971
0.2,10.1,0,0.0101705
0.2,10.2,0,0.00974827
0.2,10.3,0,0.00932887
0.2,10.4,0,0.00891
0.2,10.5,0,0.00849671
0.2,10.6,0,0.00808557
0.2,10.7,0,0.00767517
0.2,10.8,0,0.00727127
0.2,10.9,0,0.00686856
0.2,11,0,0.00646728
0.2,11.1,0,0.00607197
0.2,11.2,0,0.00567734
0.2,11.3,0,0.00528488
0.2,11.4,0,0.00489714
0.2,11.5,0,0.00450984
0.2,11.6,0,0.00412513
0.2,11.7,0,0.00374388
0.2,11.8,0,0.00336292
0.2,11.9,0,0.00298439
0.2,12,0,0.00260827
0.2,12.1,0,0.0022323
0.2,12.2,0,0.00185834
0.2,12.3,0,0.00148568
0.2,12.4,0,0.0011131
0.2,12.5,0,0.000741746
0.2,12.6,0,0.000370908
0.2,12.7,0,5.2631e-05
0.3,0,0,0
0.3,0.1,0,0.000441175
0.3,0.2,0,0.000882835
0.3,0.3,0,0.00132434
0.3,0.4,0,0.00176736
0.3,0.5,0,0.00221
0.3,0.6,0,0.00265517
0.3,0.7,0,0.00310073
0.3,0.8,0,0.00354744
0.3,0.9,0,0.00399657
0.3,1,0,0.00444546
0.3,1.1,0,0.00489875
0.3,1.2,0,0.00535229
0.3,1.3,0,0.00580803
0.3,1.4,0,0.00626654
0.3,1.5,0,0.00672502
0.3,1.6,0,0.00718874
0.3,1.7,0,0.00765245
0.3,1.8,0,0.00811896
0.3,1.9,0,0.00858772
0.3,2,0,0.00905674
0.3,2.1,0,0.00953025
0.3,2.2,0,0.0100034
0.3,2.3,0,0.0104792
0.3,2.4,0,0.0109555
0.3,2.5,0,0.0114325
0.3,2.6,0,0.011911
0.3,2.7,0,0.0123887
0.3,2.8,0,0.0128677
0.3,2.9,0,0.0133441
0.3,3,0,0.0138216
0.3,3.1,0,0.0142948
0.3,3.2,0,0.0147666
0.3,3.3,0,0.0152371
0.3,3.4,0,0.0157001
0.3,3.5,0,0.0161648
0.3,3.6,0,0.016616
0.3,3.7,0,0.0170653
0.3,3.8,0,0.017509
0.3,3.9,0,0.0179388
0.3,4,0,0.0183707
0.3,4.1,0,0.0187772
0.3,4.2,0,0.0191813
0.3,4.3,0,0.0195738
0.3,4.4,0,0.0199454
0.3,4.5,0,0.020319
0.3,4.6,0,0.0206538
0.3,4.7,0,0.020986
0.3,4.8,0,0.0212995
0.3,4.9,0,0.0215732
0.3,5,0,0.0218422
0.3,5.1,0,0.0221007
0.3,5.2,0,0.0223558
0.3,5.3,0,0.0225464
0.3,5.4,0,0.0227468
0.3,5.5,0,0.0228887
0.3,5.6,0,0.023041
0.3,5.7,0,0.023132
0.3,5.8,0,0.0232339
0.3,5.9,0,0.0232729
0.3,6,0,0.0233229
0.3,6.1,0,0.0233096
0.3,6.2,0,0.0233071
0.3,6.3,0,0.0232419
0.3,6.4,0,0.0231875
0.3,6.5,0,0.0230719
0.3,6.6,0,0.0229667
0.3,6.7,0,0.0228029
0.3,6.8,0,0.022649
0.3,6.9,0,0.0224263
0.3,7,0,0.0221944
0.3,7.1,0,0.0219687
0.3,7.2,0,0.0217318
0.3,7.3,0,0.0214696
0.3,7.4,0,0.0211661
0.3,7.5,0,0.0208619
0.3,7.6,0,0.020539
0.3,7.7,0,0.0201924
0.3,7.8,0,0.0198455
0.3,7.9,0,0.0194782
0.3,8,0,0.0190979
0.3,8.1,0,0.0187164
0.3,8.2,0,0.0183173
0.3,8.3,0,0.0179123
0.3,8.4,0,0.0175052
0.3,8.5,0,0.0170847
0.3,8.6,0,0.0166627
0.3,8.7,0,0.0162384
0.3,8.8,0,0.0158055
0.3,8.9,0,0.0153734
0.3,9,0,0.0149389
0.3,9.1,0,0.0145012
0.3,9.2,0,0.0140647
0.3,9.3,0,0.0136264
0.3,9.4,0,0.0131892
0.3,9.5,0,0.0127528
0.3,9.6,0,0.0123162
0.3,9.7,0,0.0118829
0.3,9.8,0,0.01145
0.3,9.9,0,0.0110189
0.3,10,0,0.0105919
0.3,10.1,0,0.0101651
0.3,10.2,0,0.00974225
0.3,10.3,0,0.00932285
0.3,10.4,0,0.00890369
0.3,10.5,0,0.00849036
0.3,10.6,0,0.00807921
0.3,10.7,0,0.00766861
0.3,10.8,0,0.00726502
0.3,10.9,0,0.0068623
0.3,11,0,0.00646107
0.3,11.1,0,0.00606615
0.3,11.2,0,0.00567151
0.3,11.3,0,0.00527943
0.3,11.4,0,0.00489202
0.3,11.5,0,0.00450472
0.3,11.6,0,0.00412072
0.3,11.7,0,0.00373966
0.3,11.8,0,0.00335879
0.3,11.9,0,0.00298122
0.3,12,0,0.00260512
0.3,12.1,0,0.00222937
0.3,12.2,0,0.00185636
0.3,12.3,0,0.0014837
0.3,12.4,0,0.00111155
0.3,12.5,0,0.000741041
0.3,12.6,0,0.000370203
0.3,12.7,0,0
0.4,0,0,0
0.4,0.1,0,0.000440691
0.4,0.2,0,0.000881046
0.4,0.3,0,0.00132255
0.4,0.4,0,0.00176434
0.4,0.5,0,0.00220661
0.4,0.6,0,0.0026514
0.4,0.7,0,0.00309594
0.4,0.8,0,0.00354265
0.4,0.9,0,0.00399089
0.4,1,0,0.00443955
0.4,1.1,0,0.0048926
0.4,1.2,0,0.0053456
0.4,1.3,0,0.00580134
0.4,1.4,0,0.00625954
0.4,1.5,0,0.00671798
0.4,1.6,0,0.0071817
0.4,1.7,0,0.00764562
0.4,1.8,0,0.00811213
0.4,1.9,0,0.00858148
0.4,2,0,0.00905077
0.4,2.1,0,0.00952463
0.4,2.2,0,0.00999904
0.4,2.3,0,0.0104748
0.4,2.4,0,0.010953
0.4,2.5,0,0.0114306
0.4,2.6,0,0.01191
0.4,2.7,0,0.0123903
0.4,2.8,0,0.0128692
0.4,2.9,0,0.013349
0.4,3,0,0.0138277
0.4,3.1,0,0.0143023
0.4,3.2,0,0.0147782
0.4,3.3,0,0.0152487
0.4,3.4,0,0.0157167
0.4,3.5,0,0.016183
0.4,3.6,0,0.0166362
0.4,3.7,0,0.0170912
0.4,3.8,0,0.0175348
0.4,3.9,0,0.0179711
0.4,4,0,0.018405
0.4,4.1,0,0.0188139
0.4,4.2,0,0.0192246
0.4,4.3,0,0.0196171
0.4,4.4,0,0.0199959
0.4,4.5,0,0.0203716
0.4,4.6,0,0.0207089
0.4,4.7,0,0.0210475
0.4,4.8,0,0.021361
0.4,4.9,0,0.0216473
0.4,5,0,0.0219115
0.4,5.1,0,0.0221748
0.4,5.2,0,0.0224312
0.4,5.3,0,0.0226192
0.4,5.4,0,0.0228269
0.4,5.5,0,0.0229654
0.4,5.6,0,0.0231246
0.4,5.7,0,0.0232114
0.4,5.8,0,0.0233197
0.4,5.9,0,0.0233537
0.4,6,0,0.0234095
0.4,6.1,0,0.0233903
0.4,6.2,0,0.023393
0.4,6.3,0,0.0233213
0.4,6.4,0,0.0232711
0.4,6.5,0,0.0231486
0.4,6.6,0,0.0230468
0.4,6.7,0,0.0228758
0.4,6.8,0,0.0227244
0.4,6.9,0,0.0225032
0.4,7,0,0.0222635
0.4,7.1,0,0.0220462
0.4,7.2,0,0.0217997
0.4,7.3,0,0.0215298
0.4,7.4,0,0.0212271
0.4,7.5,0,0.0209131
0.4,7.6,0,0.0205888
0.4,7.7,0,0.0202408
0.4,7.8,0,0.0198847
0.4,7.9,0,0.0195174
0.4,8,0,0.0191339
0.4,8.1,0,0.0187455
0.4,8.2,0,0.0183463
0.4,8.3,0,0.0179367
0.4,8.4,0,0.017525
0.4,8.5,0,0.0171041
0.4,8.6,0,0.0166771
0.4,8.7,0,0.0162501
0.4,8.8,0,0.0158165
0.4,8.9,0,0.0153799
0.4,9,0,0.0149439
0.4,9.1,0,0.0145052
0.4,9.2,0,0.014065
0.4,9.3,0,0.0136261
0.4,9.4,0,0.0131875
0.4,9.5,0,0.0127486
0.4,9.6,0,0.0123118
0.4,9.7,0,0.0118769
0.4,9.8,0,0.0114428
0.4,9.9,0,0.0110118
0.4,10,0,0.0105832
0.4,10.1,0,0.0101561
0.4,10.2,0,0.0097332
0.4,10.3,0,0.00931267
0.4,10.4,0,0.00889385
0.4,10.5,0,0.00848024
0.4,10.6,0,0.00806871
0.4,10.7,0,0.00765861
0.4,10.8,0,0.00725467
0.4,10.9,0,0.00685232
0.4,11,0,0.0064515
0.4,11.1,0,0.00605625
0.4,11.2,0,0.0056626
0.4,11.3,0,0.00527078
0.4,11.4,0,0.0048833
0.4,11.5,0,0.0044973
0.4,11.6,0,0.00411335
0.4,11.7,0,0.00373261
0.4,11.8,0,0.00335297
0.4,11.9,0,0.0029754
0.4,12,0,0.00260006
0.4,12.1,0,0.00222533
0.4,12.2,0,0.00185238
0.4,12.3,0,0.00148089
0.4,12.4,0,0.00110944
0.4,12.5,0,0.000739134
0.4,12.6,0,0.000369724
0.4,12.7,0,0
0.5,0,0,0
0.5,0.1,0,0.000439871
0.5,0.2,0,0.000879742
0.5,0.3,0,0.00132039
0.5,0.4,0,0.00176181
0.5,0.5,0,0.00220323
0.5,0.6,0,0.00264739
0.5,0.7,0,0.00309155
0.5,0.8,0,0.00353763
0.5,0.9,0,0.00398563
0.5,1,0,0.00443363
0.5,1.1,0,0.00488639
0.5,1.2,0,0.00533914
0.5,1.3,0,0.00579461
0.5,1.4,0,0.00625278
0.5,1.5,0,0.00671095
0.5,1.6,0,0.00717487
0.5,1.7,0,0.0076388
0.5,1.8,0,0.00810556
0.5,1.9,0,0.00857518
0.5,2,0,0.00904479
0.5,2.1,0,0.00951956
0.5,2.2,0,0.00999433
0.5,2.3,0,0.0104711
0.5,2.4,0,0.01095
0.5,2.5,0,0.0114288
0.5,2.6,0,0.0119099
0.5,2.7,0,0.012391
0.5,2.8,0,0.012872
0.5,2.9,0,0.0133528
0.5,3,0,0.0138337
0.5,3.1,0,0.0143111
0.5,3.2,0,0.0147884
0.5,3.3,0,0.0152619
0.5,3.4,0,0.0157316
0.5,3.5,0,0.0162013
0.5,3.6,0,0.0166582
0.5,3.7,0,0.0171151
0.5,3.8,0,0.0175627
0.5,3.9,0,0.018001
0.5,4,0,0.0184393
0.5,4.1,0,0.0188524
0.5,4.2,0,0.0192655
0.5,4.3,0,0.0196624
0.5,4.4,0,0.0200433
0.5,4.5,0,0.0204241
0.5,4.6,0,0.0207653
0.5,4.7,0,0.0211065
0.5,4.8,0,0.0214178
0.5,4.9,0,0.0216993
0.5,5,0,0.0219809
0.5,5.1,0,0.0222437
0.5,5.2,0,0.0225066
0.5,5.3,0,0.0227068
0.5,5.4,0,0.022907
0.5,5.5,0,0.0230576
0.5,5.6,0,0.0232082
0.5,5.7,0,0.0233069
0.5,5.8,0,0.0234056
0.5,5.9,0,0.0234508
0.5,6,0,0.0234961
0.5,6.1,0,0.0234875
0.5,6.2,0,0.0234788
0.5,6.3,0,0.0234168
0.5,6.4,0,0.0233548
0.5,6.5,0,0.0232409
0.5,6.6,0,0.0231269
0.5,6.7,0,0.0229634
0.5,6.8,0,0.0227998
0.5,6.9,0,0.0225662
0.5,7,0,0.0223326
0.5,7.1,0,0.022088
0.5,7.2,0,0.0218434
0.5,7.3,0,0.0215885
0.5,7.4,0,0.0212752
0.5,7.5,0,0.0209619
0.5,7.6,0,0.0206358
0.5,7.7,0,0.0202798
0.5,7.8,0,0.0199239
0.5,7.9,0,0.019553
0.5,8,0,0.0191639
0.5,8.1,0,0.0187749
0.5,8.2,0,0.0183714
0.5,8.3,0,0.0179583
0.5,8.4,0,0.0175452
0.5,8.5,0,0.0171201
0.5,8.6,0,0.0166911
0.5,8.7,0,0.0162621
0.5,8.8,0,0.015825
0.5,8.9,0,0.015387
0.5,9,0,0.0149488
0.5,9.1,0,0.0145076
0.5,9.2,0,0.0140665
0.5,9.3,0,0.0136255
0.5,9.4,0,0.0131856
0.5,9.5,0,0.0127457
0.5,9.6,0,0.0123074
0.5,9.7,0,0.011872
0.5,9.8,0,0.0114367
0.5,9.9,0,0.0110047
0.5,10,0,0.0105763
0.5,10.1,0,0.0101478
0.5,10.2,0,0.0097247
0.5,10.3,0,0.0093045
0.5,10.4,0,0.0088843
0.5,10.5,0,0.00847123
0.5,10.6,0,0.00805995
0.5,10.7,0,0.00764866
0.5,10.8,0,0.00724589
0.5,10.9,0,0.00684356
0.5,11,0,0.00644207
0.5,11.1,0,0.00604824
0.5,11.2,0,0.00565441
0.5,11.3,0,0.00526249
0.5,11.4,0,0.0048763
0.5,11.5,0,0.00449012
0.5,11.6,0,0.00410654
0.5,11.7,0,0.00372686
0.5,11.8,0,0.00334718
0.5,11.9,0,0.00297032
0.5,12,0,0.00259577
0.5,12.1,0,0.00222122
0.5,12.2,0,0.00184918
0.5,12.3,0,0.00147821
0.5,12.4,0,0.00110725
0.5,12.5,0,0.000737968
0.5,12.6,0,0.000368984
0.5,12.7,0,0
0.6,0,0,0
0.6,0.1,0,0.000438109
0.6,0.2,0,0.000877279
0.6,0.3,0,0.00131646
0.6,0.4,0,0.00175712
0.6,0.5,0,0.00219721
0.6,0.6,0,0.00264005
0.6,0.7,0,0.00308362
0.6,0.8,0,0.00352857
0.6,0.9,0,0.00397601
0.6,1,0,0.00442308
0.6,1.1,0,0.00487502
0.6,1.2,0,0.00532746
0.6,1.3,0,0.00578239
0.6,1.4,0,0.00624034
0.6,1.5,0,0.00669828
0.6,1.6,0,0.00716221
0.6,1.7,0,0.00762626
0.6,1.8,0,0.00809343
0.6,1.9,0,0.00856333
0.6,2,0,0.00903376
0.6,2.1,0,0.00950973
0.6,2.2,0,0.00998525
0.6,2.3,0,0.0104638
0.6,2.4,0,0.0109436
0.6,2.5,0,0.0114247
0.6,2.6,0,0.0119086
0.6,2.7,0,0.0123912
0.6,2.8,0,0.0128756
0.6,2.9,0,0.0133583
0.6,3,0,0.0138433
0.6,3.1,0,0.0143253
0.6,3.2,0,0.0148052
0.6,3.3,0,0.015284
0.6,3.4,0,0.0157565
0.6,3.5,0,0.0162321
0.6,3.6,0,0.0166955
0.6,3.7,0,0.0171559
0.6,3.8,0,0.0176106
0.6,3.9,0,0.0180526
0.6,4,0,0.0184984
0.6,4.1,0,0.0189195
0.6,4.2,0,0.0193365
0.6,4.3,0,0.0197416
0.6,4.4,0,0.0201266
0.6,4.5,0,0.0205155
0.6,4.6,0,0.020865
0.6,4.7,0,0.02121
0.6,4.8,0,0.0215356
0.6,4.9,0,0.0218275
0.6,5,0,0.0221024
0.6,5.1,0,0.0223741
0.6,5.2,0,0.0226392
0.6,5.3,0,0.022833
0.6,5.4,0,0.0230482
0.6,5.5,0,0.0231907
0.6,5.6,0,0.0233558
0.6,5.7,0,0.0234447
0.6,5.8,0,0.0235571
0.6,5.9,0,0.0235911
0.6,6,0,0.023649
0.6,6.1,0,0.0236277
0.6,6.2,0,0.0236303
0.6,6.3,0,0.0235546
0.6,6.4,0,0.0235023
0.6,6.5,0,0.0233739
0.6,6.6,0,0.0232681
0.6,6.7,0,0.0230895
0.6,6.8,0,0.0229323
0.6,6.9,0,0.0227025
0.6,7,0,0.0224537
0.6,7.1,0,0.0222261
0.6,7.2,0,0.0219748
0.6,7.3,0,0.0216932
0.6,7.4,0,0.0213776
0.6,7.5,0,0.0210581
0.6,7.6,0,0.0207211
0.6,7.7,0,0.020362
0.6,7.8,0,0.0199985
0.6,7.9,0,0.0196186
0.6,8,0,0.0192264
0.6,8.1,0,0.0188291
0.6,8.2,0,0.0184181
0.6,8.3,0,0.0180023
0.6,8.4,0,0.017581
0.6,8.5,0,0.0171499
0.6,8.6,0,0.0167186
0.6,8.7,0,0.0162823
0.6,8.8,0,0.0158402
0.6,8.9,0,0.0154001
0.6,9,0,0.0149565
0.6,9.1,0,0.014511
0.6,9.2,0,0.0140681
0.6,9.3,0,0.0136234
0.6,9.4,0,0.0131801
0.6,9.5,0,0.012739
0.6,9.6,0,0.012298
0.6,9.7,0,0.0118603
0.6,9.8,0,0.0114242
0.6,9.9,0,0.0109904
0.6,10,0,0.0105604
0.6,10.1,0,0.0101318
0.6,10.2,0,0.00970742
0.6,10.3,0,0.00928634
0.6,10.4,0,0.00886663
0.6,10.5,0,0.00845266
0.6,10.6,0,0.00804105
0.6,10.7,0,0.00763085
0.6,10.8,0,0.00722741
0.6,10.9,0,0.0068253
0.6,11,0,0.00642513
0.6,11.1,0,0.00603099
0.6,11.2,0,0.00563783
0.6,11.3,0,0.00524725
0.6,11.4,0,0.00486117
0.6,11.5,0,0.00447601
0.6,11.6,0,0.00409375
0.6,11.7,0,0.00371442
0.6,11.8,0,0.00333609
0.6,11.9,0,0.00296054
0.6,12,0,0.00258647
0.6,12.1,0,0.00221354
0.6,12.2,0,0.00184285
0.6,12.3,0,0.00147237
0.6,12.4,0,0.00110327
0.6,12.5,0,0.0007354
0.6,12.6,0,0.000367069
0.6,12.7,0,0
0.7,0,0,0
0.7,0.1,0,0.000437408
0.7,0.2,0,0.000874114
0.7,0.3,0,0.0013133
0.7,0.4,0,0.00175187
0.7,0.5,0,0.0021912
0.7,0.6,0,0.00263345
0.7,0.7,0,0.00307511
0.7,0.8,0,0.00352005
0.7,0.9,0,0.00396601
0.7,1,0,0.00441252
0.7,1.1,0,0.00486415
0.7,1.2,0,0.00531547
0.7,1.3,0,0.00577039
0.7,1.4,0,0.00622789
0.7,1.5,0,0.0066856
0.7,1.6,0,0.00714966
0.7,1.7,0,0.00761384
0.7,1.8,0,0.00808102
0.7,1.9,0,0.00855201
0.7,2,0,0.00902273
0.7,2.1,0,0.00949946
0.7,2.2,0,0.00997693
0.7,2.3,0,0.0104555
0.7,2.4,0,0.0109385
0.7,2.5,0,0.0114206
0.7,2.6,0,0.011906
0.7,2.7,0,0.012393
0.7,2.8,0,0.0128774
0.7,2.9,0,0.013366
0.7,3,0,0.0138528
0.7,3.1,0,0.0143374
0.7,3.2,0,0.0148244
0.7,3.3,0,0.0153032
0.7,3.4,0,0.0157845
0.7,3.5,0,0.0162629
0.7,3.6,0,0.0167298
0.7,3.7,0,0.0172001
0.7,3.8,0,0.0176548
0.7,3.9,0,0.018108
0.7,4,0,0.0185575
0.7,4.1,0,0.0189825
0.7,4.2,0,0.0194116
0.7,4.3,0,0.0198166
0.7,4.4,0,0.0202138
0.7,4.5,0,0.0206069
0.7,4.6,0,0.0209603
0.7,4.7,0,0.0213175
0.7,4.8,0,0.021643
0.7,4.9,0,0.0219387
0.7,5,0,0.022224
0.7,5.1,0,0.0224995
0.7,5.2,0,0.0227718
0.7,5.3,0,0.0229752
0.7,5.4,0,0.0231894
0.7,5.5,0,0.0233407
0.7,5.6,0,0.0235034
0.7,5.7,0,0.0236001
0.7,5.8,0,0.0237086
0.7,5.9,0,0.0237493
0.7,6,0,0.0238018
0.7,6.1,0,0.0237859
0.7,6.2,0,0.0237819
0.7,6.3,0,0.02371
0.7,6.4,0,0.0236499
0.7,6.5,0,0.0235239
0.7,6.6,0,0.0234092
0.7,6.7,0,0.0232317
0.7,6.8,0,0.0230649
0.7,6.9,0,0.0228245
0.7,7,0,0.0225747
0.7,7.1,0,0.0223338
0.7,7.2,0,0.0220751
0.7,7.3,0,0.0217983
0.7,7.4,0,0.0214745
0.7,7.5,0,0.0211449
0.7,7.6,0,0.0208076
0.7,7.7,0,0.0204386
0.7,7.8,0,0.0200662
0.7,7.9,0,0.0196863
0.7,8,0,0.0192829
0.7,8.1,0,0.0188789
0.7,8.2,0,0.0184677
0.7,8.3,0,0.0180403
0.7,8.4,0,0.0176146
0.7,8.5,0,0.0171821
0.7,8.6,0,0.0167408
0.7,8.7,0,0.0163018
0.7,8.8,0,0.0158579
0.7,8.9,0,0.0154097
0.7,9,0,0.0149643
0.7,9.1,0,0.014517
0.7,9.2,0,0.0140677
0.7,9.3,0,0.013622
0.7,9.4,0,0.0131769
0.7,9.5,0,0.012731
0.7,9.6,0,0.0122897
0.7,9.7,0,0.0118504
0.7,9.8,0,0.0114111
0.7,9.9,0,0.0109773
0.7,10,0,0.0105462
0.7,10.1,0,0.0101157
0.7,10.2,0,0.00969136
0.7,10.3,0,0.00926988
0.7,10.4,0,0.00884906
0.7,10.5,0,0.00843534
0.7,10.6,0,0.00802389
0.7,10.7,0,0.0076131
0.7,10.8,0,0.00721022
0.7,10.9,0,0.00680863
0.7,11,0,0.00640821
0.7,11.1,0,0.006015
0.7,11.2,0,0.00562262
0.7,11.3,0,0.00523198
0.7,11.4,0,0.0048472
0.7,11.5,0,0.00446302
0.7,11.6,0,0.00408077
0.7,11.7,0,0.00370318
0.7,11.8,0,0.00332587
0.7,11.9,0,0.00295033
0.7,12,0,0.00257848
0.7,12.1,0,0.00220645
0.7,12.2,0,0.001836
0.7,12.3,0,0.00146802
0.7,12.4,0,0.00109957
0.7,12.5,0,0.00073224
0.7,12.6,0,0.000366498
0.7,12.7,0,0
0.8,0,0,0
0.8,0.1,0,0.000435373
0.8,0.2,0,0.00087208
0.8,0.3,0,0.00130758
0.8,0.4,0,0.00174615
0.8,0.5,0,0.00218375
0.8,0.6,0,0.00262441
0.8,0.7,0,0.00306607
0.8,0.8,0,0.00350817
0.8,0.9,0,0.00395412
0.8,1,0,0.00439937
0.8,1.1,0,0.00485005
0.8,1.2,0,0.00530136
0.8,1.3,0,0.0057549
0.8,1.4,0,0.00621239
0.8,1.5,0,0.00666965
0.8,1.6,0,0.0071338
0.8,1.7,0,0.00759798
0.8,1.8,0,0.00806604
0.8,1.9,0,0.00853703
0.8,2,0,0.00900853
0.8,2.1,0,0.00948684
0.8,2.2,0,0.00996431
0.8,2.3,0,0.0104469
0.8,2.4,0,0.0109299
0.8,2.5,0,0.0114145
0.8,2.6,0,0.0119035
0.8,2.7,0,0.0123905
0.8,2.8,0,0.0128831
0.8,2.9,0,0.0133718
0.8,3,0,0.0138632
0.8,3.1,0,0.0143536
0.8,3.2,0,0.0148407
0.8,3.3,0,0.0153325
0.8,3.4,0,0.0158137
0.8,3.5,0,0.0162991
0.8,3.6,0,0.0167743
0.8,3.7,0,0.0172446
0.8,3.8,0,0.0177167
0.8,3.9,0,0.0181699
0.8,4,0,0.0186284
0.8,4.1,0,0.0190635
0.8,4.2,0,0.0194925
0.8,4.3,0,0.0199177
0.8,4.4,0,0.0203149
0.8,4.5,0,0.0207178
0.8,4.6,0,0.0210815
0.8,4.7,0,0.0214387
0.8,4.8,0,0.0217835
0.8,4.9,0,0.0220791
0.8,5,0,0.0223725
0.8,5.1,0,0.0226555
0.8,5.2,0,0.022934
0.8,5.3,0,0.0231431
0.8,5.4,0,0.0233624
0.8,5.5,0,0.0235179
0.8,5.6,0,0.0236844
0.8,5.7,0,0.0237838
0.8,5.8,0,0.0238946
0.8,5.9,0,0.0239363
0.8,6,0,0.0239895
0.8,6.1,0,0.0239729
0.8,6.2,0,0.0239679
0.8,6.3,0,0.0238937
0.8,6.4,0,0.0238309
0.8,6.5,0,0.0237011
0.8,6.6,0,0.0235822
0.8,6.7,0,0.0233995
0.8,6.8,0,0.0232271
0.8,6.9,0,0.0229804
0.8,7,0,0.0227225
0.8,7.1,0,0.0224728
0.8,7.2,0,0.0222142
0.8,7.3,0,0.0219232
0.8,7.4,0,0.0215912
0.8,7.5,0,0.0212616
0.8,7.6,0,0.0209064
0.8,7.7,0,0.020532
0.8,7.8,0,0.0201592
0.8,7.9,0,0.0197593
0.8,8,0,0.0193535
0.8,8.1,0,0.0189462
0.8,8.2,0,0.0185172
0.8,8.3,0,0.0180899
0.8,8.4,0,0.0176586
0.8,8.5,0,0.0172131
0.8,8.6,0,0.0167717
0.8,8.7,0,0.0163258
0.8,8.8,0,0.0158732
0.8,8.9,0,0.015425
0.8,9,0,0.0149722
0.8,9.1,0,0.0145197
0.8,9.2,0,0.0140704
0.8,9.3,0,0.0136177
0.8,9.4,0,0.0131699
0.8,9.5,0,0.0127239
0.8,9.6,0,0.0122768
0.8,9.7,0,0.0118364
0.8,9.8,0,0.0113967
0.8,9.9,0,0.0109589
0.8,10,0,0.0105276
0.8,10.1,0,0.0100964
0.8,10.2,0,0.00967016
0.8,10.3,0,0.00924868
0.8,10.4,0,0.00882739
0.8,10.5,0,0.00841328
0.8,10.6,0,0.00800182
0.8,10.7,0,0.00759106
0.8,10.8,0,0.00718867
0.8,10.9,0,0.00678707
0.8,11,0,0.00638746
0.8,11.1,0,0.00599506
0.8,11.2,0,0.00560268
0.8,11.3,0,0.00521376
0.8,11.4,0,0.00482974
0.8,11.5,0,0.00444556
0.8,11.6,0,0.00406596
0.8,11.7,0,0.00368887
0.8,11.8,0,0.00331193
0.8,11.9,0,0.0029396
0.8,12,0,0.00256781
0.8,12.1,0,0.00219671
0.8,12.2,0,0.00182934
0.8,12.3,0,0.00146136
0.8,12.4,0,0.00109449
0.8,12.5,0,0.000729889
0.8,12.6,0,0.000364147
0.8,12.7,0,0
0.9,0,0,0
0.9,0.1,0,0.00043404
0.9,0.2,0,0.00086742
0.9,0.3,0,0.00130292
0.9,0.4,0,0.00173822
0.9,0.5,0,0.00217486
0.9,0.6,0,0.00261451
0.9,0.7,0,0.00305343
0.9,0.8,0,0.00349552
0.9,0.9,0,0.00393908
0.9,1,0,0.00438361
0.9,1.1,0,0.00483366
0.9,1.2,0,0.00528334
0.9,1.3,0,0.00573687
0.9,1.4,0,0.0061934
0.9,1.5,0,0.00665043
0.9,1.6,0,0.00711455
0.9,1.7,0,0.00757889
0.9,1.8,0,0.00804694
0.9,1.9,0,0.00851917
0.9,2,0,0.00899116
0.9,2.1,0,0.0094703
0.9,2.2,0,0.00995053
0.9,2.3,0,0.0104331
0.9,2.4,0,0.0109204
0.9,2.5,0,0.0114065
0.9,2.6,0,0.0118975
0.9,2.7,0,0.0123908
0.9,2.8,0,0.0128834
0.9,2.9,0,0.0133801
0.9,3,0,0.0138744
0.9,3.1,0,0.0143682
0.9,3.2,0,0.0148657
0.9,3.3,0,0.0153575
0.9,3.4,0,0.0158512
0.9,3.5,0,0.0163408
0.9,3.6,0,0.0168209
0.9,3.7,0,0.0173057
0.9,3.8,0,0.0177778
0.9,3.9,0,0.0182474
0.9,4,0,0.0187112
0.9,4.1,0,0.0191523
0.9,4.2,0,0.0195988
0.9,4.3,0,0.0200239
0.9,4.4,0,0.0204396
0.9,4.5,0,0.0208483
0.9,4.6,0,0.0212183
0.9,4.7,0,0.021593
0.9,4.8,0,0.0219378
0.9,4.9,0,0.0222568
0.9,5,0,0.0225479
0.9,5.1,0,0.0228415
0.9,5.2,0,0.0231259
0.9,5.3,0,0.0233363
0.9,5.4,0,0.0235672
0.9,5.5,0,0.0237221
0.9,5.6,0,0.0238989
0.9,5.7,0,0.0239956
0.9,5.8,0,0.0241151
0.9,5.9,0,0.024152
0.9,6,0,0.0242121
0.9,6.1,0,0.0241886
0.9,6.2,0,0.0241884
0.9,6.3,0,0.0241055
0.9,6.4,0,0.0240455
0.9,6.5,0,0.0239053
0.9,6.6,0,0.023787
0.9,6.7,0,0.0235928
0.9,6.8,0,0.023419
0.9,6.9,0,0.0231693
0.9,7,0,0.0228971
0.9,7.1,0,0.0226542
0.9,7.2,0,0.0223752
0.9,7.3,0,0.022074
0.9,7.4,0,0.0217384
0.9,7.5,0,0.0213872
0.9,7.6,0,0.0210297
0.9,7.7,0,0.0206471
0.9,7.8,0,0.0202548
0.9,7.9,0,0.0198548
0.9,8,0,0.0194372
0.9,8.1,0,0.0190155
0.9,8.2,0,0.0185863
0.9,8.3,0,0.0181449
0.9,8.4,0,0.0177043
0.9,8.5,0,0.0172574
0.9,8.6,0,0.0168024
0.9,8.7,0,0.0163512
0.9,8.8,0,0.0158963
0.9,8.9,0,0.0154367
0.9,9,0,0.014981
0.9,9.1,0,0.0145256
0.9,9.2,0,0.0140674
0.9,9.3,0,0.0136136
0.9,9.4,0,0.0131623
0.9,9.5,0,0.0127103
0.9,9.6,0,0.012263
0.9,9.7,0,0.011819
0.9,9.8,0,0.0113762
0.9,9.9,0,0.0109385
0.9,10,0,0.0105042
0.9,10.1,0,0.010072
0.9,10.2,0,0.00964554
0.9,10.3,0,0.00922219
0.9,10.4,0,0.00880112
0.9,10.5,0,0.00838669
0.9,10.6,0,0.00797488
0.9,10.7,0,0.00756475
0.9,10.8,0,0.00716212
0.9,10.9,0,0.00676155
0.9,11,0,0.00636256
0.9,11.1,0,0.00597014
0.9,11.2,0,0.0055799
0.9,11.3,0,0.00519138
0.9,11.4,0,0.00480798
0.9,11.5,0,0.00442653
0.9,11.6,0,0.004047
0.9,11.7,0,0.0036714
0.9,11.8,0,0.00329705
0.9,11.9,0,0.00292472
0.9,12,0,0.00255536
0.9,12.1,0,0.00218641
0.9,12.2,0,0.00181926
0.9,12.3,0,0.00145445
0.9,12.4,0,0.00108914
0.9,12.5,0,0.000725072
0.9,12.6,0,0.000362944
0.9,12.7,0,0
1,0,0,0
1,0.1,0,0.000432047
1,0.2,0,0.000864093
1,0.3,0,0.00129729
1,0.4,0,0.00173163
1,0.5,0,0.00216596
1,0.6,0,0.00260387
1,0.7,0,0.00304178
1,0.8,0,0.00348216
1,0.9,0,0.00392501
1,1,0,0.00436786
1,1.1,0,0.0048169
1,1.2,0,0.00526595
1,1.3,0,0.00571862
1,1.4,0,0.00617492
1,1.5,0,0.00663122
1,1.6,0,0.00709553
1,1.7,0,0.00755983
1,1.8,0,0.00802835
1,1.9,0,0.00850107
1,2,0,0.00897379
1,2.1,0,0.00945485
1,2.2,0,0.00993592
1,2.3,0,0.0104209
1,2.4,0,0.0109097
1,2.5,0,0.0113985
1,2.6,0,0.0118938
1,2.7,0,0.012389
1,2.8,0,0.0128864
1,2.9,0,0.013386
1,3,0,0.0138855
1,3.1,0,0.0143864
1,3.2,0,0.0148872
1,3.3,0,0.0153866
1,3.4,0,0.0158845
1,3.5,0,0.0163824
1,3.6,0,0.0168721
1,3.7,0,0.0173618
1,3.8,0,0.0178441
1,3.9,0,0.0183191
1,4,0,0.018794
1,4.1,0,0.0192465
1,4.2,0,0.0196989
1,4.3,0,0.0201359
1,4.4,0,0.0205573
1,4.5,0,0.0209787
1,4.6,0,0.0213598
1,4.7,0,0.0217408
1,4.8,0,0.0220897
1,4.9,0,0.0224065
1,5,0,0.0227232
1,5.1,0,0.0230206
1,5.2,0,0.0233179
1,5.3,0,0.0235449
1,5.4,0,0.023772
1,5.5,0,0.0239427
1,5.6,0,0.0241134
1,5.7,0,0.0242245
1,5.8,0,0.0243357
1,5.9,0,0.0243851
1,6,0,0.0244346
1,6.1,0,0.0244218
1,6.2,0,0.0244089
1,6.3,0,0.0243345
1,6.4,0,0.02426
1,6.5,0,0.0241259
1,6.6,0,0.0239918
1,6.7,0,0.0238014
1,6.8,0,0.0236109
1,6.9,0,0.0233413
1,7,0,0.0230716
1,7.1,0,0.0227921
1,7.2,0,0.0225126
1,7.3,0,0.022222
1,7.4,0,0.0218682
1,7.5,0,0.0215145
1,7.6,0,0.0211478
1,7.7,0,0.0207511
1,7.8,0,0.0203544
1,7.9,0,0.0199437
1,8,0,0.0195159
1,8.1,0,0.0190882
1,8.2,0,0.0186482
1,8.3,0,0.0182002
1,8.4,0,0.0177521
1,8.5,0,0.0172957
1,8.6,0,0.0168366
1,8.7,0,0.0163775
1,8.8,0,0.015915
1,8.9,0,0.0154523
1,9,0,0.0149896
1,9.1,0,0.0145289
1,9.2,0,0.0140682
1,9.3,0,0.0136087
1,9.4,0,0.0131543
1,9.5,0,0.0126998
1,9.6,0,0.0122485
1,9.7,0,0.0118032
1,9.8,0,0.0113578
1,9.9,0,0.0109178
1,10,0,0.0104832
1,10.1,0,0.0100486
1,10.2,0,0.00962145
1,10.3,0,0.00919837
1,10.4,0,0.00877528
1,10.5,0,0.00836148
1,10.6,0,0.00795
1,10.7,0,0.00753851
1,10.8,0,0.00713759
1,10.9,0,0.00673722
1,11,0,0.00633787
1,11.1,0,0.00594771
1,11.2,0,0.00555755
1,11.3,0,0.00516963
1,11.4,0,0.00478844
1,11.5,0,0.00440726
1,11.6,0,0.00402908
1,11.7,0,0.00365541
1,11.8,0,0.00328174
1,11.9,0,0.0029113
1,12,0,0.0025435
1,12.1,0,0.0021757
1,12.2,0,0.00181082
1,12.3,0,0.00144718
1,12.4,0,0.00108354
1,12.5,0,0.000722104
1,12.6,0,0.000361052
1,12.7,0,0
1.1,0,0,0
1.1,0.1,0,0.00042835
1.1,0.2,0,0.000859084
1.1,0.3,0,0.00128938
1.1,0.4,0,0.00172215
1.1,0.5,0,0.00215385
1.1,0.6,0,0.00258898
1.1,0.7,0,0.00302568
1.1,0.8,0,0.00346367
1.1,0.9,0,0.00390532
1.1,1,0,0.00434615
1.1,1.1,0,0.00479336
1.1,1.2,0,0.00524165
1.1,1.3,0,0.005693
1.1,1.4,0,0.00614871
1.1,1.5,0,0.00660418
1.1,1.6,0,0.0070682
1.1,1.7,0,0.0075325
1.1,1.8,0,0.00800137
1.1,1.9,0,0.00847446
1.1,2,0,0.00894816
1.1,2.1,0,0.00943122
1.1,2.2,0,0.00991337
1.1,2.3,0,0.0104011
1.1,2.4,0,0.0108916
1.1,2.5,0,0.011384
1.1,2.6,0,0.0118844
1.1,2.7,0,0.0123822
1.1,2.8,0,0.0128857
1.1,2.9,0,0.0133888
1.1,3,0,0.0138951
1.1,3.1,0,0.014405
1.1,3.2,0,0.0149102
1.1,3.3,0,0.0154196
1.1,3.4,0,0.0159231
1.1,3.5,0,0.0164315
1.1,3.6,0,0.0169346
1.1,3.7,0,0.0174304
1.1,3.8,0,0.0179265
1.1,3.9,0,0.0184091
1.1,4,0,0.0188976
1.1,4.1,0,0.0193671
1.1,4.2,0,0.0198269
1.1,4.3,0,0.0202802
1.1,4.4,0,0.0207106
1.1,4.5,0,0.0211469
1.1,4.6,0,0.0215464
1.1,4.7,0,0.0219346
1.1,4.8,0,0.0223067
1.1,4.9,0,0.0226396
1.1,5,0,0.0229533
1.1,5.1,0,0.0232684
1.1,5.2,0,0.0235709
1.1,5.3,0,0.0237971
1.1,5.4,0,0.024043
1.1,5.5,0,0.0242099
1.1,5.6,0,0.0243979
1.1,5.7,0,0.0245022
1.1,5.8,0,0.0246286
1.1,5.9,0,0.0246681
1.1,6,0,0.0247304
1.1,6.1,0,0.0247048
1.1,6.2,0,0.0247019
1.1,6.3,0,0.0246122
1.1,6.4,0,0.0245446
1.1,6.5,0,0.0243932
1.1,6.6,0,0.0242629
1.1,6.7,0,0.0240536
1.1,6.8,0,0.023864
1.1,6.9,0,0.0235963
1.1,7,0,0.0233007
1.1,7.1,0,0.0230362
1.1,7.2,0,0.0227461
1.1,7.3,0,0.0224169
1.1,7.4,0,0.0220541
1.1,7.5,0,0.0216898
1.1,7.6,0,0.0213031
1.1,7.7,0,0.020897
1.1,7.8,0,0.0204874
1.1,7.9,0,0.0200594
1.1,8,0,0.0196235
1.1,8.1,0,0.0191816
1.1,8.2,0,0.0187271
1.1,8.3,0,0.0182728
1.1,8.4,0,0.0178107
1.1,8.5,0,0.0173423
1.1,8.6,0,0.0168785
1.1,8.7,0,0.0164068
1.1,8.8,0,0.0159347
1.1,8.9,0,0.0154679
1.1,9,0,0.0149959
1.1,9.1,0,0.0145273
1.1,9.2,0,0.0140636
1.1,9.3,0,0.0135976
1.1,9.4,0,0.0131371
1.1,9.5,0,0.0126807
1.1,9.6,0,0.012225
1.1,9.7,0,0.0117758
1.1,9.8,0,0.011329
1.1,9.9,0,0.0108862
1.1,10,0,0.0104493
1.1,10.1,0,0.0100143
1.1,10.2,0,0.00958543