/*--------------------------------*- C++ -*----------------------------------*\
| =========                 |                                                 |
| \\      /  F ield         | OpenFOAM: The Open Source CFD Toolbox           |
|  \\    /   O peration     | Version:  v1806                                 |
|   \\  /    A nd           | Web:      www.OpenFOAM.com                      |
|    \\/     M anipulation  |                                                 |
\*---------------------------------------------------------------------------*/
FoamFile
{
    version     2.0;
    format      ascii;
    class       volScalarField;
    location    "160";
    object      p;
}
// * * * * * * * * * * * * * * * * * * * * * * * * * * * * * * * * * * * * * //

dimensions      [0 2 -2 0 0 0 0];


internalField   nonuniform List<scalar> 
5220
(
-0.00295062
-0.00294781
-0.00294781
-0.00295062
-0.00307168
-0.00307004
-0.00307004
-0.00307168
-0.00326698
-0.00326412
-0.00326412
-0.00326697
-0.0028384
-0.00283445
-0.00283445
-0.0028384
-0.0028347
-0.00283089
-0.00283089
-0.0028347
-0.00291175
-0.00290754
-0.00290754
-0.00291175
-0.00293404
-0.00293019
-0.00293019
-0.00293404
-0.00293707
-0.0029341
-0.0029341
-0.00293707
-0.0031404
-0.00313665
-0.00313665
-0.0031404
-0.00304112
-0.00303681
-0.00303681
-0.00304112
-0.00302476
-0.00302065
-0.00302065
-0.00302476
-0.00343652
-0.00343352
-0.00343352
-0.00343652
0.0416348
0.0416274
0.0416274
0.0416348
0.0453418
0.0453289
0.0453289
0.0453418
-0.00624823
-0.00625211
-0.00625211
-0.00624823
-0.00102891
-0.00102144
-0.00102144
-0.00102891
-0.00310397
-0.00310275
-0.00310275
-0.00310397
-0.00316108
-0.0031588
-0.0031588
-0.00316108
-0.00286784
-0.00286287
-0.00286287
-0.00286784
0.0499346
0.0499325
0.0499325
0.0499346
0.0485101
0.0485063
0.0485063
0.0485101
0.0532919
0.0532952
0.0532952
0.0532919
-0.00365843
-0.0036564
-0.0036564
-0.00365843
-0.00361689
-0.00361514
-0.00361514
-0.00361689
-0.00348492
-0.00347705
-0.00347705
-0.00348492
-0.0031189
-0.00311507
-0.00311507
-0.0031189
-0.00411628
-0.00411354
-0.00411354
-0.00411628
-0.00396306
-0.00396013
-0.00396013
-0.00396306
-0.00320837
-0.00320366
-0.00320366
-0.00320837
-0.00410773
-0.00410477
-0.00410477
-0.00410773
-0.0044959
-0.00449311
-0.00449311
-0.0044959
-0.00375096
-0.00374747
-0.00374747
-0.00375096
-0.00403192
-0.00402875
-0.00402875
-0.00403192
-0.00295844
-0.00295469
-0.00295469
-0.00295844
-0.00297952
-0.00297551
-0.00297551
-0.00297952
-0.00297595
-0.00297176
-0.00297176
-0.00297595
-0.00292693
-0.00292224
-0.00292224
-0.00292693
-0.00293116
-0.00292714
-0.00292714
-0.00293116
-0.00377799
-0.00377507
-0.00377507
-0.00377799
-0.00350287
-0.00349955
-0.00349955
-0.00350287
-0.00329211
-0.00328843
-0.00328843
-0.00329211
-0.00423552
-0.00423245
-0.00423245
-0.00423552
-0.00483928
-0.00483631
-0.00483631
-0.00483928
-0.00431874
-0.00431689
-0.00431689
-0.00431874
-0.00507818
-0.00507645
-0.00507645
-0.00507818
-0.0028549
-0.00284996
-0.00284996
-0.0028549
-0.00285928
-0.00285521
-0.00285521
-0.00285928
-0.0034964
-0.00349225
-0.00349225
-0.0034964
-0.00368731
-0.00368424
-0.00368424
-0.00368731
-0.00378187
-0.00377908
-0.00377908
-0.00378187
-0.00375446
-0.00375263
-0.00375263
-0.00375446
-0.0035576
-0.00355677
-0.00355677
-0.0035576
-0.00422689
-0.00422649
-0.00422649
-0.00422689
-0.00511329
-0.0051127
-0.0051127
-0.00511329
-0.00508427
-0.00508188
-0.00508188
-0.00508427
-0.00457228
-0.00456956
-0.00456956
-0.00457228
-0.00296854
-0.00296452
-0.00296452
-0.00296854
-0.00287894
-0.00287421
-0.00287421
-0.00287894
-0.00283427
-0.00283033
-0.00283033
-0.00283427
-0.00288779
-0.00288407
-0.00288407
-0.00288779
-0.00292298
-0.00291843
-0.00291843
-0.00292298
-0.00293818
-0.00293435
-0.00293435
-0.00293818
-0.00296644
-0.00296192
-0.00296192
-0.00296644
-0.00298175
-0.00297771
-0.00297771
-0.00298175
-0.00289953
-0.00289516
-0.00289516
-0.00289953
-0.00292061
-0.00291612
-0.00291612
-0.00292061
-0.00296353
-0.00295832
-0.00295832
-0.00296353
-0.00302297
-0.00301765
-0.00301765
-0.00302297
-0.00302507
-0.0030193
-0.0030193
-0.00302507
-0.00305229
-0.00304942
-0.00304942
-0.00305229
-0.00321688
-0.00321387
-0.00321387
-0.00321688
-0.00344393
-0.00344037
-0.00344037
-0.00344393
-0.004134
-0.00413098
-0.00413098
-0.004134
-0.00375008
-0.00374679
-0.00374679
-0.00375008
-0.00278695
-0.00278411
-0.00278411
-0.00278695
-0.00562414
-0.00562187
-0.00562187
-0.00562414
-0.00606442
-0.00606325
-0.00606325
-0.00606442
-0.00630502
-0.00630562
-0.00630562
-0.00630502
-0.00279954
-0.00279527
-0.00279527
-0.00279954
-0.00330033
-0.00329603
-0.00329603
-0.00330033
-0.00342531
-0.0034224
-0.0034224
-0.00342531
-0.00345742
-0.00345479
-0.00345479
-0.00345742
-0.0033607
-0.0033591
-0.0033591
-0.0033607
-0.00309779
-0.00309681
-0.00309681
-0.00309779
-0.00266124
-0.00266028
-0.00266028
-0.00266124
-0.00316994
-0.00316882
-0.00316882
-0.00316994
-0.00391732
-0.0039169
-0.0039169
-0.00391732
-0.00493032
-0.00492922
-0.00492922
-0.00493032
-0.00628983
-0.00629063
-0.00629063
-0.00628983
-0.00509322
-0.00509055
-0.00509055
-0.00509322
-0.0057836
-0.00578143
-0.00578143
-0.0057836
-0.00285121
-0.0028473
-0.0028473
-0.00285121
-0.00290322
-0.00289976
-0.00289976
-0.00290322
-0.00298676
-0.00298324
-0.00298324
-0.00298676
-0.00313018
-0.00312794
-0.00312794
-0.00313018
-0.00320154
-0.00319902
-0.00319902
-0.00320154
-0.00276786
-0.00276438
-0.00276438
-0.00276786
-0.00272731
-0.00272294
-0.00272294
-0.00272731
0.0535357
0.0535348
0.0535348
0.0535357
0.0493689
0.0493589
0.0493589
0.0493689
0.0456023
0.045583
0.045583
0.0456023
-0.00286024
-0.00285663
-0.00285663
-0.00286024
-0.00354127
-0.00353812
-0.00353812
-0.00354127
-0.00300373
-0.00300047
-0.00300047
-0.00300373
-0.00323036
-0.00322701
-0.00322701
-0.00323036
-0.00654863
-0.00654672
-0.00654672
-0.00654863
-0.0072436
-0.00724208
-0.00724208
-0.0072436
-0.00769149
-0.0076922
-0.0076922
-0.00769149
-0.00780586
-0.00780642
-0.00780642
-0.00780586
-0.00448165
-0.00447894
-0.00447894
-0.00448165
-0.00558152
-0.00557948
-0.00557948
-0.00558152
-0.00653595
-0.00653446
-0.00653446
-0.00653595
-0.00205867
-0.00205721
-0.00205721
-0.00205867
-0.00260058
-0.00259867
-0.00259867
-0.00260058
-0.00339794
-0.00339642
-0.00339642
-0.00339794
-0.00450008
-0.0044975
-0.0044975
-0.00450008
-0.00601124
-0.00600913
-0.00600913
-0.00601124
-0.00749032
-0.00748581
-0.00748581
-0.00749032
-0.00317613
-0.00317224
-0.00317224
-0.00317613
-0.00326737
-0.00326508
-0.00326508
-0.00326737
-0.00325784
-0.00325562
-0.00325562
-0.00325783
-0.00311487
-0.00311359
-0.00311359
-0.00311487
-0.00280336
-0.00280254
-0.00280254
-0.00280336
-0.00232268
-0.0023215
-0.0023215
-0.00232268
-0.00170802
-0.00170611
-0.00170611
-0.00170802
-0.00274188
-0.00273951
-0.00273951
-0.00274188
-0.00270895
-0.00270586
-0.00270586
-0.00270895
-0.00276262
-0.00275785
-0.00275785
-0.00276262
-0.00283484
-0.00282938
-0.00282938
-0.00283484
-0.00290346
-0.00289555
-0.00289555
-0.00290346
-0.00303653
-0.00302929
-0.00302929
-0.00303653
-0.00301742
-0.00300791
-0.00300791
-0.00301742
-0.00359779
-0.00359506
-0.00359506
-0.00359779
-0.00478085
-0.0047785
-0.0047785
-0.00478085
-0.00755131
-0.0075504
-0.0075504
-0.00755131
-0.00851673
-0.0085164
-0.0085164
-0.00851673
-0.0092502
-0.00925004
-0.00925004
-0.0092502
-0.00956769
-0.00957051
-0.00957051
-0.00956769
-0.0092381
-0.00923878
-0.00923878
-0.0092381
-0.00319655
-0.00319362
-0.00319362
-0.00319655
-0.00291296
-0.00290974
-0.00290974
-0.00291296
-0.00272751
-0.00272386
-0.00272386
-0.00272751
-0.00263774
-0.00263405
-0.00263405
-0.00263774
-0.00261342
-0.00260949
-0.00260949
-0.00261342
-0.00268364
-0.00267961
-0.00267961
-0.00268364
-0.00284928
-0.00284631
-0.00284631
-0.00284928
-0.00309441
-0.00309119
-0.00309119
-0.00309441
-0.00356073
-0.00356159
-0.00356159
-0.00356073
-0.0038652
-0.00386398
-0.00386398
-0.0038652
-0.00265278
-0.00265033
-0.00265033
-0.00265278
-0.00260226
-0.00259666
-0.00259666
-0.00260226
0.0516723
0.0516587
0.0516587
0.0516723
0.0485876
0.0485776
0.0485776
0.0485876
0.0448344
0.0448265
0.0448265
0.0448344
0.0409865
0.0409779
0.0409779
0.0409865
0.0374041
0.0374057
0.0374057
0.0374041
0.0376074
0.0376023
0.0376023
0.0376074
-0.00294683
-0.00294503
-0.00294503
-0.00294683
-0.00310081
-0.00309638
-0.00309638
-0.00310081
-0.00320985
-0.00320739
-0.00320739
-0.00320985
-0.00318413
-0.0031822
-0.0031822
-0.00318413
-0.0030087
-0.00300765
-0.00300765
-0.00300869
-0.00265775
-0.00265688
-0.00265688
-0.00265775
-0.00213318
-0.00213203
-0.00213203
-0.00213318
-0.00148319
-0.00148152
-0.00148152
-0.00148318
-0.000781869
-0.000779681
-0.000779681
-0.000781868
-0.0010066
-0.00100446
-0.00100446
-0.0010066
-0.00133764
-0.00133548
-0.00133547
-0.00133763
-0.00188964
-0.0018872
-0.0018872
-0.00188964
-0.00272256
-0.00272039
-0.00272039
-0.00272256
-0.00390439
-0.00390181
-0.00390181
-0.00390439
-0.00555183
-0.00555269
-0.00555269
-0.00555183
-0.00724293
-0.00723965
-0.00723965
-0.00724293
0.0570877
0.0570897
0.0570897
0.0570877
0.0546492
0.0546387
0.0546387
0.0546492
-0.00931483
-0.00931782
-0.00931782
-0.00931483
0.0597341
0.0597291
0.0597291
0.0597341
0.0480584
0.0480528
0.0480528
0.0480584
0.0537263
0.0537118
0.0537118
0.0537263
0.0362693
0.036258
0.036258
0.0362693
0.0400931
0.040093
0.040093
0.0400931
0.0431092
0.0430969
0.0430969
0.0431092
0.044047
0.0440425
0.0440425
0.044047
0.0440846
0.0440895
0.0440895
0.0440846
0.0479155
0.047915
0.047915
0.0479155
0.0338042
0.0338034
0.0338034
0.0338042
0.033952
0.0339492
0.0339492
0.033952
0.0330397
0.0330337
0.0330337
0.0330397
0.0488324
0.0488248
0.0488248
0.0488324
0.0464924
0.0464834
0.0464834
0.0464924
0.0432864
0.0432758
0.0432758
0.0432864
0.0397953
0.0397942
0.0397942
0.0397953
0.0362662
0.036267
0.036267
0.0362662
0.0329338
0.0329368
0.0329368
0.0329338
0.0511503
0.0511576
0.0511576
0.0511503
0.0558845
0.0558701
0.0558701
0.0558845
0.052693
0.0526978
0.0526978
0.052693
0.0405679
0.0405421
0.0405421
0.0405679
0.0399229
0.039897
0.039897
0.0399229
0.0403341
0.0403195
0.0403195
0.0403341
0.0399787
0.0399637
0.0399637
0.0399787
0.0388321
0.0388221
0.0388221
0.0388321
0.0365038
0.0364963
0.0364963
0.0365038
0.0338571
0.0338477
0.0338477
0.0338571
0.0312145
0.0312078
0.0312078
0.0312145
0.029834
0.0298364
0.0298364
0.029834
0.0305692
0.0305711
0.0305711
0.0305692
0.0306454
0.0306442
0.0306442
0.0306454
0.0299404
0.0299341
0.0299341
0.0299404
0.0285423
0.0285366
0.0285366
0.0285423
0.0440651
0.0440486
0.0440486
0.0440651
0.0427828
0.042772
0.042772
0.0427828
0.0401978
0.0401854
0.0401854
0.0401978
0.0373526
0.0373479
0.0373479
0.0373526
0.0342863
0.0342871
0.0342871
0.0342863
0.0313211
0.0313259
0.0313259
0.0313211
0.0285096
0.0285143
0.0285143
0.0285096
0.0448954
0.0448883
0.0448883
0.0448954
0.0502276
0.0502195
0.0502195
0.0502276
-0.00263816
-0.00263496
-0.00263496
-0.00263816
-0.00977126
-0.0097679
-0.0097679
-0.00977126
-0.0107413
-0.0107442
-0.0107442
-0.0107413
-0.0103773
-0.010378
-0.010378
-0.0103773
-0.00953278
-0.00953339
-0.00953339
-0.00953278
-0.00839142
-0.00839108
-0.00839108
-0.00839142
-0.00714155
-0.00714081
-0.00714081
-0.00714155
-0.00599276
-0.00599147
-0.00599147
-0.00599276
-0.0050176
-0.00501565
-0.00501565
-0.0050176
-0.00421867
-0.00421637
-0.00421637
-0.00421867
-0.00360725
-0.00360491
-0.00360491
-0.00360725
-0.00313384
-0.00313113
-0.00313113
-0.00313384
-0.00278846
-0.00278517
-0.00278517
-0.00278846
-0.002573
-0.00256913
-0.00256913
-0.002573
-0.0024718
-0.00246799
-0.00246799
-0.0024718
-0.00246726
-0.00246293
-0.00246293
-0.00246726
-0.00254877
-0.00254373
-0.00254373
-0.00254877
-0.0027128
-0.00270716
-0.00270716
-0.0027128
-0.00284521
-0.00283587
-0.00283587
-0.00284521
-0.0030739
-0.00306617
-0.00306617
-0.0030739
-0.00269687
-0.00268225
-0.00268225
-0.00269687
-0.00302373
-0.00302126
-0.00302126
-0.00302373
-0.00320597
-0.00320329
-0.00320328
-0.00320597
-0.00330246
-0.00330037
-0.00330037
-0.00330246
-0.003263
-0.00326156
-0.00326156
-0.003263
-0.00305693
-0.00305635
-0.00305635
-0.00305693
-0.00266052
-0.00265986
-0.00265986
-0.00266052
-0.00208394
-0.00208283
-0.00208283
-0.00208394
-0.00138138
-0.00137967
-0.00137967
-0.00138138
-0.000645168
-0.000642833
-0.000642833
-0.000645167
4.70189e-05
4.97683e-05
4.97686e-05
4.70197e-05
-9.6506e-05
-9.39454e-05
-9.3945e-05
-9.65052e-05
-0.000289675
-0.000287108
-0.000287107
-0.000289674
-0.000592679
-0.00058982
-0.00058982
-0.000592679
-0.00108624
-0.00108266
-0.00108266
-0.00108624
-0.00188415
-0.00188113
-0.00188113
-0.00188415
-0.00306094
-0.00305766
-0.00305766
-0.00306094
-0.00469292
-0.00469365
-0.00469365
-0.00469292
-0.00647034
-0.00646758
-0.00646758
-0.00647034
-0.0087147
-0.00871597
-0.00871597
-0.0087147
0.0266215
0.0266161
0.0266161
0.0266215
0.0288378
0.0288325
0.0288325
0.0288378
0.0310135
0.0310064
0.0310064
0.0310135
0.0330624
0.0330552
0.0330552
0.0330624
0.03477
0.0347578
0.0347578
0.03477
0.0353927
0.0353772
0.0353772
0.0353927
0.0357332
0.0357178
0.0357178
0.0357332
0.035291
0.0352752
0.0352752
0.035291
0.0357573
0.0357482
0.0357482
0.0357573
0.0403295
0.0403293
0.0403293
0.0403295
0.0424748
0.0424487
0.0424487
0.0424748
0.0259861
0.0259905
0.0259905
0.0259861
0.0270788
0.0270813
0.0270813
0.0270788
0.0276666
0.0276676
0.0276676
0.0276666
0.0277182
0.0277186
0.0277186
0.0277182
0.0272137
0.0272114
0.0272114
0.0272137
0.026081
0.0260778
0.0260778
0.026081
0.0245092
0.0245062
0.0245062
0.0245092
0.042275
0.0422467
0.0422467
0.042275
0.0367086
0.0366987
0.0366987
0.0367086
0.0343674
0.0343472
0.0343472
0.0343674
0.0387709
0.0387633
0.0387633
0.0387709
0.0387734
0.0387652
0.0387652
0.0387734
0.0383158
0.0383077
0.0383077
0.0383158
0.036577
0.0365677
0.0365677
0.036577
0.0343524
0.0343471
0.0343471
0.0343524
0.0318052
0.0318046
0.0318046
0.0318052
0.0292211
0.0292273
0.0292273
0.0292211
0.0267334
0.0267391
0.0267391
0.0267334
0.0244688
0.0244735
0.0244735
0.0244688
0.0236367
0.0236119
0.0236119
0.0236367
0.0289257
0.0288985
0.0288985
0.0289257
0.0320278
0.0320089
0.0320089
0.0320278
0.0332866
0.0332745
0.0332745
0.0332866
0.0333854
0.0333783
0.0333783
0.0333854
0.0323853
0.0323777
0.0323777
0.0323853
0.030828
0.0308238
0.0308238
0.030828
0.0288315
0.0288307
0.0288307
0.0288315
0.0267533
0.0267571
0.0267571
0.0267533
0.0246388
0.0246431
0.0246431
0.0246388
0.0226504
0.0226549
0.0226549
0.0226504
0.0208315
0.0208347
0.0208347
0.0208315
0.0224392
0.0224418
0.0224418
0.0224392
0.0237265
0.023729
0.023729
0.0237265
0.024653
0.0246546
0.0246546
0.024653
0.0251356
0.025137
0.025137
0.0251356
0.0251612
0.0251625
0.0251625
0.0251612
0.0247442
0.0247442
0.0247442
0.0247442
0.023813
0.0238127
0.0238127
0.023813
0.0225087
0.0225086
0.0225086
0.0225087
0.0208424
0.020843
0.020843
0.0208424
0.0225852
0.0225824
0.0225824
0.0225852
0.0243643
0.0243589
0.0243589
0.0243643
0.026196
0.0261904
0.0261904
0.026196
0.0279486
0.0279415
0.0279415
0.0279486
0.0293622
0.0293556
0.0293556
0.0293622
0.0306734
0.0306635
0.0306635
0.0306734
0.0311422
0.0311309
0.0311309
0.0311422
0.0310119
0.031
0.031
0.0310119
0.0304562
0.0304443
0.0304443
0.0304562
0.03006
0.0300344
0.0300344
0.03006
0.0309443
0.0309097
0.0309097
0.0309443
0.0310232
0.0310023
0.0310023
0.0310232
0.0189103
0.0189115
0.0189115
0.0189103
0.0204096
0.0204078
0.0204078
0.0204096
0.0219095
0.0219046
0.0219046
0.0219095
0.0233929
0.0233876
0.0233876
0.0233929
0.0247624
0.0247569
0.0247569
0.0247624
0.0259348
0.025929
0.025929
0.0259348
0.0267071
0.0266985
0.0266985
0.0267071
0.0268348
0.0268239
0.0268239
0.0268348
0.0262663
0.0262512
0.0262512
0.0262663
0.0251377
0.0251184
0.0251184
0.0251377
0.0232655
0.0232397
0.0232397
0.0232655
0.0213096
0.0212964
0.0212964
0.0213096
0.0186812
0.0186526
0.0186526
0.0186812
0.0192108
0.0192138
0.0192138
0.0192108
0.0206347
0.0206372
0.0206372
0.0206347
0.0217695
0.0217711
0.0217711
0.0217695
0.0225523
0.0225534
0.0225534
0.0225523
0.0229579
0.0229589
0.0229589
0.0229579
0.022966
0.0229686
0.0229686
0.022966
0.0226015
0.022605
0.022605
0.0226015
0.021799
0.0218029
0.0218029
0.021799
0.020663
0.0206662
0.0206662
0.020663
0.0192214
0.0192247
0.0192247
0.0192214
0.0175024
0.0175053
0.0175053
0.0175024
0.0155028
0.0154926
0.0154926
0.0155028
0.0213206
0.0212901
0.0212901
0.0213206
0.0254183
0.0253967
0.0253967
0.0254183
0.0276081
0.0275889
0.0275889
0.0276081
0.0284184
0.028407
0.028407
0.0284184
0.02804
0.0280321
0.0280321
0.02804
0.027028
0.0270244
0.0270244
0.027028
0.0255909
0.0255897
0.0255897
0.0255909
0.0239457
0.023948
0.023948
0.0239457
0.0222282
0.0222312
0.0222312
0.0222282
0.0205448
0.0205488
0.0205488
0.0205448
0.0189567
0.0189599
0.0189599
0.0189567
0.0175279
0.0175309
0.0175309
0.0175279
-0.00958752
-0.00959013
-0.00959013
-0.00958752
-0.010707
-0.0107072
-0.0107072
-0.010707
-0.0112025
-0.0112033
-0.0112033
-0.0112025
-0.0110645
-0.0110657
-0.0110657
-0.0110645
-0.010141
-0.0101421
-0.0101421
-0.010141
-0.00889974
-0.0089
-0.0089
-0.00889974
-0.00752952
-0.00752922
-0.00752922
-0.00752952
-0.00626109
-0.0062604
-0.0062604
-0.00626109
-0.00515249
-0.00515104
-0.00515104
-0.00515249
-0.00427605
-0.00427436
-0.00427436
-0.00427605
-0.00359354
-0.0035919
-0.0035919
-0.00359354
-0.0030518
-0.00304964
-0.00304964
-0.0030518
-0.00266257
-0.00265981
-0.00265981
-0.00266257
-0.00241048
-0.00240689
-0.00240689
-0.00241048
-0.00232624
-0.00232299
-0.00232299
-0.00232624
-0.00230964
-0.00230539
-0.00230539
-0.00230964
-0.0024114
-0.00240751
-0.00240751
-0.0024114
-0.00264651
-0.00264269
-0.00264269
-0.00264651
-0.00308433
-0.00308068
-0.00308068
-0.00308433
-0.0042016
-0.00420206
-0.00420206
-0.0042016
-0.00529721
-0.00529613
-0.00529613
-0.00529721
0.000633696
0.000636864
0.000636865
0.000633697
0.000495766
0.000498533
0.000498534
0.000495766
0.000348384
0.000351404
0.000351404
0.000348385
0.000120622
0.000124101
0.000124101
0.000120622
-0.000270642
-0.000266127
-0.000266127
-0.000270642
-0.000942376
-0.000938205
-0.000938205
-0.000942376
-0.00197908
-0.00197468
-0.00197468
-0.00197908
-0.0034431
-0.00344023
-0.00344023
-0.0034431
-0.00512354
-0.00511949
-0.00511949
-0.00512354
-0.0064574
-0.00645501
-0.00645501
-0.0064574
-0.00733199
-0.00733071
-0.00733071
-0.00733199
-0.00286773
-0.00286532
-0.00286532
-0.00286773
-0.00314115
-0.00313845
-0.00313845
-0.00314115
-0.00329325
-0.00329016
-0.00329016
-0.00329325
-0.00345383
-0.00345117
-0.00345117
-0.00345383
-0.00355528
-0.0035532
-0.0035532
-0.00355528
-0.00351875
-0.00351782
-0.00351782
-0.00351875
-0.00328738
-0.00328732
-0.00328732
-0.00328738
-0.00284096
-0.00284078
-0.00284078
-0.00284096
-0.00218893
-0.0021884
-0.0021884
-0.00218893
-0.00141571
-0.00141445
-0.00141445
-0.00141571
-0.000585249
-0.000583293
-0.000583293
-0.000585248
0.0001802
0.000182607
0.000182608
0.000180201
0.00078963
0.000792005
0.000792005
0.00078963
-0.002806
-0.00280276
-0.00280276
-0.002806
-0.00334205
-0.00334019
-0.00334019
-0.00334205
-0.00349418
-0.00349239
-0.00349239
-0.00349417
-0.00366248
-0.0036601
-0.0036601
-0.00366248
-0.00383996
-0.00383767
-0.00383767
-0.00383996
-0.00397307
-0.00397111
-0.00397111
-0.00397307
-0.00395999
-0.00395891
-0.00395891
-0.00395999
-0.00372028
-0.00372026
-0.00372026
-0.00372028
-0.00322896
-0.00322877
-0.00322876
-0.00322896
-0.00248926
-0.00248831
-0.00248831
-0.00248926
-0.00155087
-0.00154951
-0.00154951
-0.00155087
-0.000551358
-0.00054921
-0.000549209
-0.000551358
0.000345517
0.000348215
0.000348216
0.000345518
0.0010187
0.00102215
0.00102215
0.0010187
0.0014254
0.00142884
0.00142884
0.0014254
0.00119284
0.00119454
0.00119454
0.00119284
0.00106086
0.00106384
0.00106384
0.00106086
0.000959823
0.000962281
0.000962281
0.000959823
0.000881997
0.000885229
0.00088523
0.000881998
0.000751159
0.000755056
0.000755056
0.000751159
0.000508769
0.000513869
0.000513869
0.000508769
3.47337e-05
3.9889e-05
3.98889e-05
3.47334e-05
-0.000762305
-0.000756957
-0.000756957
-0.000762305
-0.00190813
-0.00190352
-0.00190352
-0.00190813
-0.00318304
-0.00317861
-0.00317861
-0.00318304
-0.00435272
-0.00434985
-0.00434985
-0.00435272
-0.00509513
-0.00509274
-0.00509274
-0.00509513
-0.00540601
-0.00540303
-0.00540303
-0.00540601
-0.00754484
-0.0075424
-0.0075424
-0.00754484
-0.00952632
-0.00952718
-0.00952718
-0.00952632
-0.0107593
-0.0107608
-0.0107608
-0.0107593
-0.0113003
-0.0113019
-0.0113019
-0.0113003
-0.0111679
-0.01117
-0.01117
-0.0111679
-0.0103489
-0.0103499
-0.0103499
-0.0103489
-0.00910992
-0.0091102
-0.0091102
-0.00910992
-0.00770199
-0.00770186
-0.00770186
-0.00770199
-0.00639485
-0.00639434
-0.00639434
-0.00639485
-0.00520064
-0.00519943
-0.00519943
-0.00520064
-0.00425036
-0.00424884
-0.00424884
-0.00425036
-0.00351887
-0.00351705
-0.00351705
-0.00351887
-0.00293881
-0.00293666
-0.00293666
-0.00293881
-0.00253136
-0.0025288
-0.0025288
-0.00253136
-0.0022572
-0.00225376
-0.00225376
-0.0022572
-0.00218154
-0.00217851
-0.00217851
-0.00218154
-0.00212897
-0.00212384
-0.00212384
-0.00212897
-0.00222904
-0.00222364
-0.00222364
-0.00222904
-0.00245007
-0.00244392
-0.00244392
-0.00245007
-0.00266928
-0.00266016
-0.00266016
-0.00266928
-0.00256932
-0.00256471
-0.00256471
-0.00256932
-0.00171768
-0.00170062
-0.00170062
-0.00171768
-0.00318712
-0.00316636
-0.00316636
-0.00318712
-0.000307908
-0.000309509
-0.000309509
-0.000307908
0.00966074
0.00967947
0.00967947
0.00966074
0.0154149
0.0153954
0.0153954
0.0154149
0.0198487
0.0198315
0.0198315
0.0198487
0.0224051
0.0223858
0.0223858
0.0224051
0.0236305
0.0236176
0.0236176
0.0236305
0.0237442
0.0237368
0.0237368
0.0237442
0.0231811
0.0231785
0.0231785
0.0231811
0.02217
0.0221684
0.0221684
0.02217
0.020949
0.0209493
0.0209493
0.020949
0.0195925
0.0195931
0.0195931
0.0195925
0.0182162
0.0182186
0.0182186
0.0182162
0.0168705
0.0168733
0.0168733
0.0168705
0.0156298
0.0156328
0.0156328
0.0156298
0.0145259
0.0145283
0.0145283
0.0145259
0.0162588
0.0162612
0.0162612
0.0162588
0.0177833
0.0177856
0.0177856
0.0177833
0.0190669
0.0190686
0.0190686
0.0190669
0.0200807
0.0200817
0.0200817
0.0200807
0.0207736
0.0207748
0.0207748
0.0207736
0.0211236
0.0211255
0.0211255
0.0211236
0.021119
0.0211224
0.0211224
0.021119
0.0207665
0.0207705
0.0207705
0.0207665
0.0200678
0.0200726
0.0200726
0.0200678
0.0190559
0.0190608
0.0190608
0.0190559
0.0177761
0.0177806
0.0177806
0.0177761
0.0162552
0.0162587
0.0162587
0.0162552
0.0145095
0.0145124
0.0145124
0.0145095
0.0155722
0.0155745
0.0155745
0.0155722
0.0167593
0.0167615
0.0167615
0.0167593
0.0180468
0.0180464
0.0180464
0.0180468
0.0193073
0.0193039
0.0193039
0.0193073
0.020517
0.0205134
0.0205134
0.020517
0.0216186
0.0216152
0.0216152
0.0216186
0.022469
0.022464
0.022464
0.022469
0.0228624
0.0228536
0.0228536
0.0228624
0.0226003
0.0225875
0.0225875
0.0226003
0.0215247
0.021508
0.021508
0.0215247
0.0196666
0.0196491
0.0196491
0.0196666
0.0170822
0.0170673
0.0170673
0.0170822
0.0134417
0.0134403
0.0134403
0.0134417
0.00886222
0.00885412
0.00885412
0.00886222
0.00141356
0.0014123
0.0014123
0.00141356
0.00754376
0.00755077
0.00755077
0.00754376
0.0116922
0.0116783
0.0116783
0.0116922
0.0149127
0.0148995
0.0148995
0.0149127
0.0171119
0.0170962
0.0170962
0.0171119
0.0185154
0.0185015
0.0185015
0.0185154
0.0190998
0.0190907
0.0190907
0.0190998
0.0189735
0.018969
0.018969
0.0189735
0.0183917
0.0183894
0.0183894
0.0183917
0.0175549
0.0175525
0.0175525
0.0175549
0.0166017
0.0166
0.0166
0.0166017
0.0155555
0.0155567
0.0155567
0.0155555
0.0144783
0.0144806
0.0144806
0.0144783
0.0134849
0.0134866
0.0134866
0.0134849
0.012585
0.0125879
0.0125879
0.012585
-0.00337666
-0.00337266
-0.00337266
-0.00337666
-0.00341196
-0.0034076
-0.0034076
-0.00341196
-0.00351266
-0.00350994
-0.00350994
-0.00351266
-0.00375446
-0.00375321
-0.00375321
-0.00375445
-0.00403539
-0.00403401
-0.00403401
-0.00403539
-0.0043111
-0.00431
-0.00431
-0.0043111
-0.00453343
-0.00453273
-0.00453273
-0.00453343
-0.00459954
-0.0045998
-0.0045998
-0.00459954
-0.00438033
-0.00438126
-0.00438126
-0.00438033
-0.00382175
-0.0038226
-0.0038226
-0.00382175
-0.00291461
-0.00291459
-0.00291459
-0.00291461
-0.00177126
-0.00177043
-0.00177043
-0.00177126
-0.000556028
-0.000554544
-0.000554544
-0.000556028
0.000522864
0.000523559
0.000523559
0.000522865
0.00128573
0.00128602
0.00128602
0.00128573
0.00167708
0.00167658
0.00167658
0.00167708
0.00172741
0.00172655
0.00172655
0.00172741
0.00157681
0.00158015
0.00158015
0.00157681
0.00138538
0.00138658
0.00138658
0.00138538
0.00131812
0.00132074
0.00132074
0.00131812
0.00128862
0.0012911
0.0012911
0.00128862
0.0012984
0.00130154
0.00130154
0.0012984
0.00128882
0.00129246
0.00129246
0.00128882
0.00122009
0.00122538
0.00122538
0.00122009
0.000974172
0.000980167
0.000980167
0.000974171
0.000474302
0.00048081
0.000480809
0.000474302
-0.000323282
-0.000317033
-0.000317034
-0.000323282
-0.00125823
-0.00125235
-0.00125235
-0.00125823
-0.00213259
-0.00212707
-0.00212707
-0.00213259
-0.00279683
-0.00279117
-0.00279117
-0.00279683
-0.0032308
-0.00322422
-0.00322422
-0.0032308
-0.00339793
-0.00339357
-0.00339357
-0.00339793
-0.00532815
-0.00532698
-0.00532698
-0.00532815
-0.00724851
-0.00724794
-0.00724794
-0.00724851
-0.00898188
-0.00898446
-0.00898446
-0.00898188
-0.0102112
-0.0102152
-0.0102152
-0.0102112
-0.0108286
-0.0108313
-0.0108313
-0.0108286
-0.0107807
-0.0107833
-0.0107833
-0.0107807
-0.0101047
-0.0101064
-0.0101064
-0.0101047
-0.008975
-0.00897595
-0.00897595
-0.008975
-0.00765037
-0.00765103
-0.00765103
-0.00765037
-0.00634353
-0.00634412
-0.00634412
-0.00634353
-0.00515132
-0.00515172
-0.00515172
-0.00515132
-0.00416367
-0.00416297
-0.00416297
-0.00416367
-0.00339874
-0.00339806
-0.00339806
-0.00339874
-0.00281301
-0.00281237
-0.00281237
-0.00281301
-0.00237715
-0.00237535
-0.00237535
-0.00237715
-0.00208758
-0.00208409
-0.00208409
-0.00208758
-0.00202258
-0.00202017
-0.00202017
-0.00202258
-0.00193853
-0.00193322
-0.00193322
-0.00193853
-0.00208889
-0.00208697
-0.00208697
-0.00208889
-0.00214874
-0.00214284
-0.00214284
-0.00214874
-0.00230907
-0.00230368
-0.00230368
-0.00230907
-0.00256291
-0.00256163
-0.00256163
-0.00256291
-0.00236579
-0.00237214
-0.00237214
-0.00236579
-0.00100333
-0.00102692
-0.00102692
-0.00100333
0.00292633
0.00292951
0.00292951
0.00292633
0.0076573
0.00767572
0.00767572
0.0076573
0.0117419
0.0117331
0.0117331
0.0117419
0.0155984
0.015586
0.015586
0.0155984
0.0179216
0.0179046
0.0179046
0.0179216
0.0192389
0.0192288
0.0192288
0.0192389
0.0195882
0.0195819
0.0195819
0.0195882
0.0193619
0.0193584
0.0193584
0.0193619
0.0187179
0.0187143
0.0187143
0.0187179
0.0178292
0.017827
0.017827
0.0178292
0.016793
0.0167914
0.0167914
0.016793
0.0156998
0.0157004
0.0157004
0.0156998
0.0145995
0.0146013
0.0146013
0.0145995
0.0135572
0.0135597
0.0135597
0.0135572
0.0126145
0.0126163
0.0126163
0.0126145
0.0118052
0.0118066
0.0118066
0.0118052
0.0135733
0.0135751
0.0135751
0.0135733
0.0151672
0.0151692
0.0151692
0.0151672
0.0165692
0.0165712
0.0165712
0.0165692
0.0177447
0.0177459
0.0177459
0.0177447
0.0186575
0.0186583
0.0186583
0.0186575
0.0192792
0.0192806
0.0192806
0.0192792
0.0195914
0.0195939
0.0195939
0.0195914
0.0195852
0.0195891
0.0195891
0.0195852
0.0192614
0.0192664
0.0192664
0.0192614
0.0186336
0.0186392
0.0186392
0.0186336
0.0177191
0.0177254
0.0177254
0.0177191
0.0165517
0.0165577
0.0165577
0.0165517
0.015162
0.0151674
0.0151674
0.015162
0.0135641
0.013569
0.013569
0.0135641
0.0117763
0.0117803
0.0117803
0.0117763
0.00985621
0.00985863
0.00985863
0.00985621
0.0105266
0.010529
0.010529
0.0105266
0.011273
0.0112741
0.0112741
0.011273
0.0120775
0.0120785
0.0120785
0.0120775
0.0129379
0.0129394
0.0129394
0.0129379
0.0137679
0.013767
0.013767
0.0137679
0.0144928
0.0144902
0.0144902
0.0144928
0.0150444
0.0150411
0.0150411
0.0150444
0.0154133
0.0154083
0.0154083
0.0154133
0.0153646
0.0153546
0.0153546
0.0153646
0.0147374
0.0147261
0.0147261
0.0147374
0.0132953
0.0132829
0.0132829
0.0132953
0.0111603
0.0111508
0.0111508
0.0111603
0.00793928
0.00793015
0.00793015
0.00793928
0.00418583
0.00420154
0.00420154
0.00418583
-0.00958573
-0.00957829
-0.00957829
-0.00958573
-0.0107452
-0.0107349
-0.0107349
-0.0107452
-0.00956265
-0.00954899
-0.00954899
-0.00956265
-0.00709306
-0.00707569
-0.00707569
-0.00709306
-0.00579181
-0.00578848
-0.00578848
-0.00579181
-0.00486012
-0.00485642
-0.00485642
-0.00486012
-0.00401
-0.00400774
-0.00400774
-0.00401
-0.00369159
-0.003691
-0.003691
-0.00369158
-0.00337501
-0.00337219
-0.00337219
-0.00337501
-0.00358664
-0.00358401
-0.00358401
-0.00358664
-0.00392235
-0.00391937
-0.00391937
-0.00392235
-0.00431581
-0.00431296
-0.00431296
-0.00431581
-0.00471178
-0.0047095
-0.0047095
-0.00471178
-0.00503655
-0.00503467
-0.00503467
-0.00503655
-0.00516927
-0.00516778
-0.00516778
-0.00516927
-0.00499146
-0.00499109
-0.00499109
-0.00499146
-0.00441127
-0.00441107
-0.00441107
-0.00441127
-0.0033841
-0.00338305
-0.00338305
-0.0033841
-0.0020111
-0.00200925
-0.00200925
-0.0020111
-0.000524215
-0.0005217
-0.0005217
-0.000524215
0.000808654
0.000812975
0.000812975
0.000808654
0.00174839
0.00175427
0.00175427
0.00174839
0.00223688
0.00224278
0.00224278
0.00223688
0.00229638
0.00230172
0.00230172
0.00229638
0.00205911
0.00206349
0.00206349
0.00205911
0.00155438
0.00155336
0.00155336
0.00155438
0.00152599
0.00152897
0.00152897
0.00152599
0.00139022
0.0013912
0.0013912
0.00139022
0.00140584
0.00140836
0.00140836
0.00140584
0.00146051
0.00146253
0.00146253
0.00146051
0.00157281
0.0015756
0.00157561
0.00157281
0.00170401
0.00170759
0.00170759
0.00170401
0.00180481
0.00180956
0.00180956
0.00180481
0.00178924
0.00179514
0.00179514
0.00178924
0.00155346
0.00156096
0.00156096
0.00155346
0.00105695
0.00106439
0.00106439
0.00105695
0.000370878
0.000377526
0.000377525
0.000370878
-0.000342956
-0.000337174
-0.000337174
-0.000342956
-0.000992467
-0.000986863
-0.000986863
-0.000992467
-0.00151376
-0.00150838
-0.00150838
-0.00151377
-0.0018324
-0.00182931
-0.00182931
-0.00183241
-0.0018793
-0.00187977
-0.00187977
-0.00187931
-0.00322596
-0.00322619
-0.00322619
-0.00322596
-0.00484698
-0.00485019
-0.00485019
-0.00484698
-0.00645115
-0.00645541
-0.00645541
-0.00645115