x,y,z,U_0,U_1,U_2
0,0,0,1.5,0,0
0,0.1,0,2.04545,0,0
0,0.2,0,2.59091,0,0
0,0.3,0,3,0,0
0,0.4,0,3,0,0
0,0.5,0,3,0,0
0,0.6,0,3,0,0
0,0.7,0,3,0,0
0,0.8,0,3,0,0
0,0.9,0,3,0,0
0,1,0,3,0,0
0,1.1,0,3,1.24174e-18,8.60423e-23
0,1.2,0,3,0,0
0,1.3,0,3,0,0
0,1.4,0,3,0,0
0,1.5,0,3,0,0
0,1.6,0,3,0,0
0,1.7,0,3,0,0
0,1.8,0,3,0,0
0,1.9,0,3,0,0
0,2,0,3,0,0
0,2.1,0,3,0,0
0,2.2,0,3,0,0
0,2.3,0,3,0,0
0,2.4,0,3,0,0
0,2.5,0,3,0,0
0,2.6,0,3,0,0
0,2.7,0,3,0,0
0,2.8,0,3,0,0
0,2.9,0,3,0,0
0,3,0,3,0,0
0,3.1,0,3,0,0
0,3.2,0,3,0,0
0,3.3,0,3,0,0
0,3.4,0,3,0,0
0,3.5,0,3,0,0
0,3.6,0,3,0,0
0,3.7,0,3,0,0
0,3.8,0,3,0,0
0,3.9,0,3,0,0
0,4,0,3,0,0
0,4.1,0,3,0,0
0,4.2,0,3,0,0
0,4.3,0,3,0,0
0,4.4,0,3,0,0
0,4.5,0,3,0,0
0,4.6,0,3,0,0
0,4.7,0,3,0,0
0,4.8,0,3,0,0
0,4.9,0,3,0,0
0,5,0,3,0,0
0,5.1,0,3,0,0
0,5.2,0,3,0,0
0,5.3,0,3,0,0
0,5.4,0,3,0,0
0,5.5,0,3,0,0
0,5.6,0,3,-4.4556e-19,1.66533e-24
0,5.7,0,3,0,0
0,5.8,0,3,0,0
0,5.9,0,3,0,0
0,6,0,3,1.06383e-18,-3.27494e-24
0,6.1,0,3,0,0
0,6.2,0,3,0,0
0,6.3,0,3,0,0
0,6.4,0,3,0,0
0,6.5,0,3,0,0
0,6.6,0,3,0,0
0,6.7,0,3,0,0
0,6.8,0,3,0,0
0,6.9,0,3,0,0
0,7,0,3,0,0
0,7.1,0,3,0,0
0,7.2,0,3,0,0
0,7.3,0,3,0,0
0,7.4,0,3,0,0
0,7.5,0,3,0,0
0,7.6,0,3,0,0
0,7.7,0,3,0,0
0,7.8,0,3,0,0
0,7.9,0,3,0,0
0,8,0,3,0,0
0,8.1,0,3,0,0
0,8.2,0,3,0,0
0,8.3,0,3,0,0
0,8.4,0,3,0,0
0,8.5,0,3,0,0
0,8.6,0,3,0,0
0,8.7,0,3,0,0
0,8.8,0,3,0,0
0,8.9,0,3,0,0
0,9,0,3,0,0
0,9.1,0,3,0,0
0,9.2,0,3,0,0
0,9.3,0,3,0,0
0,9.4,0,3,0,0
0,9.5,0,3,0,0
0,9.6,0,3,0,0
0,9.7,0,3,0,0
0,9.8,0,3,0,0
0,9.9,0,3,0,0
0,10,0,3,0,0
0,10.1,0,3,0,0
0,10.2,0,3,0,0
0,10.3,0,3,0,0
0,10.4,0,3,0,0
0,10.5,0,3,0,0
0,10.6,0,3,0,0
0,10.7,0,3,0,0
0,10.8,0,3,0,0
0,10.9,0,3,0,0
0,11,0,3,0,0
0,11.1,0,3,0,0
0,11.2,0,3,0,0
0,11.3,0,3,0,0
0,11.4,0,3,0,0
0,11.5,0,3,0,0
0,11.6,0,3,0,0
0,11.7,0,3,0,0
0,11.8,0,3,0,0
0,11.9,0,3,0,0
0,12,0,3,0,0
0,12.1,0,3,0,0
0,12.2,0,3,0,0
0,12.3,0,3,0,0
0,12.4,0,2.82938,0,0
0,12.5,0,2.34188,0,0
0,12.6,0,1.85439,0,0
0,12.7,0,1.36689,0,0
0.1,0,0,0.954545,0,0
0.1,0.1,0,2.05777,0.0119019,-2.81818e-07
0.1,0.2,0,2.60322,0.0119019,-2.81818e-07
0.1,0.3,0,3.01444,0.0113033,-3.63636e-07
0.1,0.4,0,3.02084,0.00950731,-6.09091e-07
0.1,0.5,0,3.02084,0.00950731,-6.09091e-07
0.1,0.6,0,3.02036,0.00744818,-7.61364e-07
0.1,0.7,0,3.01988,0.00538905,-9.13636e-07
0.1,0.8,0,3.01988,0.00538905,-9.13636e-07
0.1,0.9,0,3.01941,0.00439761,-1.70455e-08
0.1,1,0,3.01925,0.00406713,2.81818e-07
0.1,1.1,0,3.01925,0.00406713,2.81818e-07
0.1,1.2,0,3.01895,0.00275512,1.22727e-07
0.1,1.3,0,3.01895,0.00275512,1.22727e-07
0.1,1.4,0,3.01892,0.0025713,7.78409e-07
0.1,1.5,0,3.01881,0.00201983,2.74545e-06
0.1,1.6,0,3.01881,0.00201983,2.74545e-06
0.1,1.7,0,3.01878,0.00173748,2.69318e-06
0.1,1.8,0,3.01874,0.00145512,2.64091e-06
0.1,1.9,0,3.01874,0.00145512,2.64091e-06
0.1,2,0,3.0187,0.00114092,9.15909e-07
0.1,2.1,0,3.01869,0.00103619,3.40909e-07
0.1,2.2,0,3.01869,0.00103619,3.40909e-07
0.1,2.3,0,3.01863,0.000717593,7.82273e-06
0.1,2.4,0,3.01863,0.000717593,7.82273e-06
0.1,2.5,0,3.01861,0.000656596,7.35455e-06
0.1,2.6,0,3.01857,0.000473605,5.95e-06
0.1,2.7,0,3.01857,0.000473605,5.95e-06
0.1,2.8,0,3.01852,0.000388684,3.23864e-06
0.1,2.9,0,3.01848,0.000303763,5.27273e-07
0.1,3,0,3.01848,0.000303763,5.27273e-07
0.1,3.1,0,3.01838,0.000219109,1.18182e-06
0.1,3.2,0,3.01834,0.000190891,1.4e-06
0.1,3.3,0,3.01834,0.000190891,1.4e-06
0.1,3.4,0,3.01814,0.000136807,6.77273e-07
0.1,3.5,0,3.01814,0.000136807,6.77273e-07
0.1,3.6,0,3.01806,0.000113679,6.93182e-07
0.1,3.7,0,3.01781,4.42955e-05,7.40909e-07
0.1,3.8,0,3.01781,4.42955e-05,7.40909e-07
0.1,3.9,0,3.01766,-4.60682e-05,4.18182e-07
0.1,4,0,3.0175,-0.000136432,9.54545e-08
0.1,4.1,0,3.0175,-0.000136432,9.54545e-08
0.1,4.2,0,3.01726,-0.00037741,2.25e-07
0.1,4.3,0,3.01718,-0.000457736,2.68182e-07
0.1,4.4,0,3.01718,-0.000457736,2.68182e-07
0.1,4.5,0,3.01735,-0.00132216,3.63636e-08
0.1,4.6,0,3.01735,-0.00132216,3.63636e-08
0.1,4.7,0,3.01755,-0.00145996,4.09091e-08
0.1,4.8,0,3.01813,-0.00187336,5.45455e-08
0.1,4.9,0,3.01813,-0.00187336,5.45455e-08
0.1,5,0,3.01822,-0.00255319,2.95455e-08
0.1,5.1,0,3.0183,-0.00323302,4.54545e-09
0.1,5.2,0,3.0183,-0.00323302,4.54545e-09
0.1,5.3,0,3.01946,-0.00319284,1.08526e-08
0.1,5.4,0,3.01985,-0.00317945,1.29549e-08
0.1,5.5,0,3.01985,-0.00317945,1.29549e-08
0.1,5.6,0,3.02251,-0.00145936,5.45455e-09
0.1,5.7,0,3.02411,-0.000550218,4.54545e-10
0.1,5.8,0,3.02461,0.000453515,-4.54545e-09
0.1,5.9,0,3.02373,0.00142517,-7.72727e-09
0.1,6,0,3.0208,0.00348442,-1.07266e-08
0.1,6.1,0,3.01847,0.00375125,-9.38386e-09
0.1,6.2,0,3.01796,0.00380947,-9.09091e-09
0.1,6.3,0,3.01796,0.00380947,-9.09091e-09
0.1,6.4,0,3.01789,0.00288426,-1.6367e-08
0.1,6.5,0,3.01782,0.00207552,-2.27273e-08
0.1,6.6,0,3.01782,0.00207552,-2.27273e-08
0.1,6.7,0,3.01773,0.0019708,-2.94437e-08
0.1,6.8,0,3.01745,0.00165028,-5e-08
0.1,6.9,0,3.01745,0.00165028,-5e-08
0.1,7,0,3.01745,0.00165028,-5e-08
0.1,7.1,0,3.01741,0.00113393,-5e-08
0.1,7.2,0,3.0174,0.000988164,-5e-08
0.1,7.3,0,3.0174,0.000988164,-5e-08
0.1,7.4,0,3.01764,0.000902578,-8.58209e-08
0.1,7.5,0,3.01788,0.000814399,-1.22727e-07
0.1,7.6,0,3.01788,0.000814399,-1.22727e-07
0.1,7.7,0,3.01793,0.000809743,-1.26526e-08
0.1,7.8,0,3.01813,0.000791715,4.13636e-07
0.1,7.9,0,3.01813,0.000791715,4.13636e-07
0.1,8,0,3.01813,0.000791715,4.13636e-07
0.1,8.1,0,3.01829,0.000755277,2.99457e-07
0.1,8.2,0,3.01835,0.000742394,2.59091e-07
0.1,8.3,0,3.01835,0.000742394,2.59091e-07
0.1,8.4,0,3.0184,0.000715344,1.70387e-06
0.1,8.5,0,3.01846,0.000682481,3.45909e-06
0.1,8.6,0,3.01846,0.000682481,3.45909e-06
0.1,8.7,0,3.01847,0.000660268,3.90685e-06
0.1,8.8,0,3.01853,0.000549205,6.14566e-06
0.1,8.9,0,3.01853,0.000547186,6.18636e-06
0.1,9,0,3.01853,0.000547186,6.18636e-06
0.1,9.1,0,3.01855,0.000418315,6.22442e-06
0.1,9.2,0,3.01856,0.000362494,6.24091e-06
0.1,9.3,0,3.01856,0.000362494,6.24091e-06
0.1,9.4,0,3.01857,0.00026811,5.53569e-06
0.1,9.5,0,3.01859,0.000132541,4.52273e-06
0.1,9.6,0,3.01859,0.000132541,4.52273e-06
0.1,9.7,0,3.01859,9.79008e-05,4.52105e-06
0.1,9.8,0,3.0186,-0.000133035,4.50985e-06
0.1,9.9,0,3.0186,-0.000148781,4.50909e-06
0.1,10,0,3.0186,-0.000148781,4.50909e-06
0.1,10.1,0,3.01861,-0.000381919,4.47327e-06
0.1,10.2,0,3.01861,-0.000503786,4.45455e-06
0.1,10.3,0,3.01861,-0.000503786,4.45455e-06
0.1,10.4,0,3.01863,-0.000670566,4.08011e-06
0.1,10.5,0,3.01866,-0.00095527,3.44091e-06
0.1,10.6,0,3.01866,-0.00095527,3.44091e-06
0.1,10.7,0,3.01866,-0.00099967,3.40845e-06
0.1,10.8,0,3.01872,-0.00144367,3.08382e-06
0.1,10.9,0,3.01872,-0.00149614,3.04545e-06
0.1,11,0,3.01872,-0.00149614,3.04545e-06
0.1,11.1,0,3.01883,-0.00208381,1.6406e-06
0.1,11.2,0,3.01889,-0.00245066,7.63636e-07
0.1,11.3,0,3.0189,-0.00245066,7.63636e-07
0.1,11.4,0,3.01902,-0.00276418,7.14383e-07
0.1,11.5,0,3.01927,-0.00340546,6.13636e-07
0.1,11.6,0,3.01927,-0.00340546,6.13636e-07
0.1,11.7,0,3.0193,-0.00353339,6.0039e-07
0.1,11.8,0,3.01982,-0.00609195,3.35465e-07
0.1,11.9,0,3.01991,-0.00652225,2.90909e-07
0.1,12,0,3.01991,-0.00652225,2.90909e-07
0.1,12.1,0,3.01683,-0.00769354,6.51357e-07
0.1,12.2,0,3.01454,-0.0085606,9.18182e-07
0.1,12.3,0,3.01454,-0.0085606,9.18182e-07
0.1,12.4,0,2.69693,-0.00610102,6.54376e-07
0.1,12.5,0,1.84483,0,0
0.1,12.6,0,1.35734,0,0
0.1,12.7,0,0.869841,0,0
0.2,0,0,0.409091,0,0
0.2,0.1,0,1.51231,0.0119019,-2.81818e-07
0.2,0.2,0,2.61553,0.0238039,-5.63636e-07
0.2,0.3,0,3.02675,0.0232052,-6.45455e-07
0.2,0.4,0,3.03528,0.0208106,-9.72727e-07
0.2,0.5,0,3.04167,0.0190146,-1.21818e-06
0.2,0.6,0,3.04119,0.0169555,-1.37045e-06
0.2,0.7,0,3.04023,0.0128372,-1.675e-06
0.2,0.8,0,3.03975,0.0107781,-1.82727e-06
0.2,0.9,0,3.03929,0.00978665,-9.30682e-07
0.2,1,0,3.03866,0.00846474,2.64773e-07
0.2,1.1,0,3.03851,0.00813426,5.63636e-07
0.2,1.2,0,3.0382,0.00682225,4.04545e-07
0.2,1.3,0,3.0379,0.00551024,2.45455e-07
0.2,1.4,0,3.03786,0.00532641,9.01136e-07
0.2,1.5,0,3.03773,0.00459113,3.52386e-06
0.2,1.6,0,3.03762,0.00403966,5.49091e-06
0.2,1.7,0,3.03759,0.00375731,5.43864e-06
0.2,1.8,0,3.03752,0.0031926,5.33409e-06
0.2,1.9,0,3.03748,0.00291024,5.28182e-06
0.2,2,0,3.03744,0.00259605,3.55682e-06
0.2,2.1,0,3.03739,0.00217712,1.25682e-06
0.2,2.2,0,3.03737,0.00207239,6.81818e-07
0.2,2.3,0,3.03731,0.00175379,8.16364e-06
0.2,2.4,0,3.03725,0.00143519,1.56455e-05
0.2,2.5,0,3.03724,0.00137419,1.51773e-05
0.2,2.6,0,3.03718,0.0011302,1.33045e-05
0.2,2.7,0,3.03714,0.000947209,1.19e-05
0.2,2.8,0,3.03709,0.000862289,9.18864e-06
0.2,2.9,0,3.03701,0.000692447,3.76591e-06
0.2,3,0,3.03696,0.000607527,1.05455e-06
0.2,3.1,0,3.03686,0.000522872,1.70909e-06
0.2,3.2,0,3.03672,0.00041,2.58182e-06
0.2,3.3,0,3.03668,0.000381782,2.8e-06
0.2,3.4,0,3.03648,0.000327698,2.07727e-06
0.2,3.5,0,3.03629,0.000273615,1.35455e-06
0.2,3.6,0,3.0362,0.000250487,1.37045e-06
0.2,3.7,0,3.03587,0.000157975,1.43409e-06
0.2,3.8,0,3.03561,8.85909e-05,1.48182e-06
0.2,3.9,0,3.03546,-1.77273e-06,1.15909e-06
0.2,4,0,3.03516,-0.0001825,5.13636e-07
0.2,4.1,0,3.03501,-0.000272864,1.90909e-07
0.2,4.2,0,3.03476,-0.000513842,3.20455e-07
0.2,4.3,0,3.03443,-0.000835147,4.93182e-07
0.2,4.4,0,3.03435,-0.000915473,5.36364e-07
0.2,4.5,0,3.03453,-0.0017799,3.04545e-07
0.2,4.6,0,3.0347,-0.00264433,7.27273e-08
0.2,4.7,0,3.0349,-0.00278213,7.72727e-08
0.2,4.8,0,3.03568,-0.00333332,9.54545e-08
0.2,4.9,0,3.03626,-0.00374672,1.09091e-07
0.2,5,0,3.03635,-0.00442655,8.40909e-08
0.2,5.1,0,3.03652,-0.00578621,3.40909e-08
0.2,5.2,0,3.03661,-0.00646605,9.09091e-09
0.2,5.3,0,3.03776,-0.00642586,1.5398e-08
0.2,5.4,0,3.03931,-0.00637229,2.38075e-08
0.2,5.5,0,3.0397,-0.0063589,2.59099e-08
0.2,5.6,0,3.04501,-0.00291873,1.09091e-08
0.2,5.7,0,3.04822,-0.00110044,9.09091e-10
0.2,5.8,0,3.04921,0.00090703,-9.09091e-09
0.2,5.9,0,3.04747,0.00285035,-1.54545e-08
0.2,6,0,3.04161,0.00696884,-2.14531e-08
0.2,6.1,0,3.03927,0.00723567,-2.01104e-08
0.2,6.2,0,3.03693,0.0075025,-1.87677e-08
0.2,6.3,0,3.03591,0.00761894,-1.81818e-08
0.2,6.4,0,3.03584,0.00669373,-2.54579e-08
0.2,6.5,0,3.03573,0.00527034,-3.6652e-08
0.2,6.6,0,3.03565,0.00415104,-4.54545e-08
0.2,6.7,0,3.03556,0.00404631,-5.2171e-08
0.2,6.8,0,3.03524,0.00369724,-7.4559e-08
0.2,6.9,0,3.03493,0.00334816,-9.69471e-08
0.2,7,0,3.03489,0.00330056,-1e-07
0.2,7.1,0,3.03486,0.00278421,-1e-07
0.2,7.2,0,3.03482,0.00224068,-1e-07
0.2,7.3,0,3.0348,0.00197633,-1e-07
0.2,7.4,0,3.03504,0.00189074,-1.35821e-07
0.2,7.5,0,3.03543,0.0017481,-1.95522e-07
0.2,7.6,0,3.03576,0.0016288,-2.45455e-07
0.2,7.7,0,3.03581,0.00162414,-1.3538e-07
0.2,7.8,0,3.03601,0.00160552,3.04919e-07
0.2,7.9,0,3.03622,0.0015869,7.45217e-07
0.2,8,0,3.03626,0.00158343,8.27273e-07
0.2,8.1,0,3.03642,0.00154699,7.13094e-07
0.2,8.2,0,3.0366,0.0015065,5.86228e-07
0.2,8.3,0,3.03669,0.00148479,5.18182e-07
0.2,8.4,0,3.03675,0.00145774,1.96296e-06
0.2,8.5,0,3.03684,0.00140856,4.58982e-06
0.2,8.6,0,3.03692,0.00136496,6.91818e-06
0.2,8.7,0,3.03694,0.00134275,7.36594e-06
0.2,8.8,0,3.037,0.00123169,9.60475e-06
0.2,8.9,0,3.03706,0.00112062,1.18436e-05
0.2,9,0,3.03707,0.00109437,1.23727e-05
0.2,9.1,0,3.03709,0.000965501,1.24108e-05
0.2,9.2,0,3.03711,0.000813888,1.24556e-05
0.2,9.3,0,3.03712,0.000724987,1.24818e-05
0.2,9.4,0,3.03713,0.000630604,1.17766e-05
0.2,9.5,0,3.03715,0.000441837,1.03661e-05
0.2,9.6,0,3.03717,0.000265082,9.04545e-06
0.2,9.7,0,3.03718,0.000230442,9.04378e-06
0.2,9.8,0,3.03719,-4.93808e-07,9.03258e-06
0.2,9.9,0,3.0372,-0.00023143,9.02139e-06
0.2,10,0,3.0372,-0.000297561,9.01818e-06
0.2,10.1,0,3.03721,-0.000530699,8.98236e-06
0.2,10.2,0,3.03722,-0.000822122,8.93758e-06
0.2,10.3,0,3.03723,-0.00100757,8.90909e-06
0.2,10.4,0,3.03725,-0.00117435,8.53465e-06
0.2,10.5,0,3.03728,-0.00154497,7.70256e-06
0.2,10.6,0,3.03732,-0.00191054,6.88182e-06
0.2,10.7,0,3.03732,-0.00195494,6.84936e-06
0.2,10.8,0,3.03738,-0.00239894,6.52473e-06
0.2,10.9,0,3.03743,-0.00284294,6.2001e-06
0.2,11,0,3.03745,-0.00299229,6.09091e-06
0.2,11.1,0,3.03755,-0.00357996,4.68606e-06
0.2,11.2,0,3.03769,-0.00436352,2.81292e-06
0.2,11.3,0,3.03779,-0.00490132,1.52727e-06
0.2,11.4,0,3.03791,-0.00521484,1.47802e-06
0.2,11.5,0,3.03822,-0.00599863,1.35488e-06
0.2,11.6,0,3.03853,-0.00678242,1.23175e-06
0.2,11.7,0,3.03857,-0.00693885,1.21403e-06
0.2,11.8,0,3.03909,-0.00949741,9.49101e-07
0.2,11.9,0,3.03961,-0.012056,6.84176e-07
0.2,12,0,3.03982,-0.0130445,5.81818e-07
0.2,12.1,0,3.03673,-0.0142158,9.42266e-07
0.2,12.2,0,3.03233,-0.0158891,1.45719e-06
0.2,12.3,0,3.02909,-0.0171212,1.83636e-06
0.2,12.4,0,2.71148,-0.0146616,1.57256e-06
0.2,12.5,0,1.80402,-0.00763426,8.18826e-07
0.2,12.6,0,0.896553,-0.000606908,6.5095e-08
0.2,12.7,0,0.372789,0,0
0.3,0,0,0,0,0
0.3,0.1,0,1.11294,0.012914,-2.68182e-07
0.3,0.2,0,2.21616,0.0248159,-5.5e-07
0.3,0.3,0,3.04742,0.0331695,-5.375e-07
0.3,0.4,0,3.05595,0.0307748,-8.64773e-07
0.3,0.5,0,3.06448,0.0283802,-1.19205e-06
0.3,0.6,0,3.0679,0.0249842,-1.29773e-06
0.3,0.7,0,3.06694,0.020866,-1.60227e-06
0.3,0.8,0,3.06598,0.0167477,-1.90682e-06
0.3,0.9,0,3.06498,0.0145879,-1.57614e-06
0.3,1,0,3.06436,0.013266,-3.80682e-07
0.3,1.1,0,3.06374,0.0119441,8.14773e-07
0.3,1.2,0,3.06328,0.0104345,5.55682e-07
0.3,1.3,0,3.06298,0.00912244,3.96591e-07
0.3,1.4,0,3.06263,0.00782991,-3.52273e-08
0.3,1.5,0,3.06249,0.00709463,2.5875e-06
0.3,1.6,0,3.06236,0.00635934,5.21023e-06
0.3,1.7,0,3.0622,0.00559198,6.56136e-06
0.3,1.8,0,3.06213,0.00502727,6.45682e-06
0.3,1.9,0,3.06206,0.00446256,6.35227e-06
0.3,2,0,3.06196,0.0039104,5.12159e-06
0.3,2.1,0,3.0619,0.00349147,2.82159e-06
0.3,2.2,0,3.06185,0.00307255,5.21591e-07
0.3,2.3,0,3.06176,0.00267476,5.48182e-06
0.3,2.4,0,3.0617,0.00235616,1.29636e-05
0.3,2.5,0,3.06161,0.00199036,1.83398e-05
0.3,2.6,0,3.06155,0.00174637,1.6467e-05
0.3,2.7,0,3.06149,0.00150238,1.45943e-05
0.3,2.8,0,3.06139,0.00123768,1.28761e-05
0.3,2.9,0,3.0613,0.00106784,7.45341e-06
0.3,3,0,3.06122,0.000897996,2.03068e-06
0.3,3.1,0,3.06106,0.000718246,1.53523e-06
0.3,3.2,0,3.06092,0.000605374,2.40795e-06
0.3,3.3,0,3.06078,0.000492502,3.28068e-06
0.3,3.4,0,3.06055,0.000387739,2.74886e-06
0.3,3.5,0,3.06035,0.000333655,2.02614e-06
0.3,3.6,0,3.06009,0.000243777,1.67727e-06
0.3,3.7,0,3.05976,0.000151265,1.74091e-06
0.3,3.8,0,3.05942,5.87533e-05,1.80455e-06
0.3,3.9,0,3.05909,-5.78188e-05,1.76705e-06
0.3,4,0,3.05879,-0.000238546,1.12159e-06
0.3,4.1,0,3.05849,-0.000419273,4.76136e-07
0.3,4.2,0,3.05819,-0.000605243,3.42045e-07
0.3,4.3,0,3.05786,-0.000926548,5.14773e-07
0.3,4.4,0,3.05753,-0.00124785,6.875e-07
0.3,4.5,0,3.05784,-0.00182618,5.14773e-07
0.3,4.6,0,3.05801,-0.0026906,2.82955e-07
0.3,4.7,0,3.05845,-0.00328655,9.65909e-08
0.3,4.8,0,3.05923,-0.00383775,1.14773e-07
0.3,4.9,0,3.06002,-0.00438894,1.32955e-07
0.3,5,0,3.06083,-0.00479495,1.27273e-07
0.3,5.1,0,3.06101,-0.00615462,7.72727e-08
0.3,5.2,0,3.06118,-0.00751428,2.72727e-08
0.3,5.3,0,3.06263,-0.00750255,1.55684e-08
0.3,5.4,0,3.06418,-0.00744898,2.39779e-08
0.3,5.5,0,3.06572,-0.0073954,3.23874e-08
0.3,5.6,0,3.07278,-0.00314029,1.5e-08
0.3,5.7,0,3.07684,-0.00104525,2.72727e-09
0.3,5.8,0,3.07806,0.00126183,-1.06818e-08
0.3,5.9,0,3.07589,0.00349406,-1.94318e-08
0.3,6,0,3.06822,0.0085322,-2.76342e-08
0.3,6.1,0,3.06571,0.00902995,-2.58826e-08
0.3,6.2,0,3.06338,0.00929678,-2.45399e-08
0.3,6.3,0,3.06104,0.00956361,-2.31972e-08
0.3,6.4,0,3.05975,0.00940869,-3.00034e-08
0.3,6.5,0,3.05965,0.0079853,-4.11974e-08
0.3,6.6,0,3.05954,0.00656191,-5.23915e-08
0.3,6.7,0,3.05927,0.00562845,-6.47049e-08
0.3,6.8,0,3.05896,0.00528191,-8.7059e-08
0.3,6.9,0,3.05865,0.00493284,-1.09447e-07
0.3,7,0,3.05834,0.00458376,-1.31835e-07
0.3,7.1,0,3.05821,0.00426479,-1.38636e-07
0.3,7.2,0,3.05817,0.00372126,-1.38636e-07
0.3,7.3,0,3.05813,0.00317773,-1.38636e-07
0.3,7.4,0,3.05836,0.00293016,-1.96048e-07
0.3,7.5,0,3.05875,0.00278752,-2.5575e-07
0.3,7.6,0,3.05915,0.00264487,-3.15451e-07
0.3,7.7,0,3.05951,0.00251349,-3.72354e-07
0.3,7.8,0,3.05971,0.00249056,4.12822e-08
0.3,7.9,0,3.05992,0.00247194,4.81581e-07
0.3,8,0,3.06013,0.00245332,9.21879e-07
0.3,8.1,0,3.06034,0.00238112,6.77866e-07
0.3,8.2,0,3.06052,0.00234064,5.51001e-07
0.3,8.3,0,3.0607,0.00230015,4.24135e-07
0.3,8.4,0,3.06085,0.00221294,8.10685e-07
0.3,8.5,0,3.06095,0.00216376,3.43755e-06
0.3,8.6,0,3.06104,0.00211457,6.06442e-06
0.3,8.7,0,3.06114,0.0020231,8.11516e-06
0.3,8.8,0,3.06121,0.00189639,1.00934e-05
0.3,8.9,0,3.06127,0.00178533,1.23322e-05
0.3,9,0,3.06133,0.00167427,1.4571e-05
0.3,9.1,0,3.06137,0.00147825,1.48744e-05
0.3,9.2,0,3.06139,0.00132664,1.49192e-05
0.3,9.3,0,3.06141,0.00117503,1.4964e-05
0.3,9.4,0,3.06145,0.000944598,1.50289e-05
0.3,9.5,0,3.06147,0.000755831,1.36184e-05
0.3,9.6,0,3.0615,0.000567064,1.2208e-05
0.3,9.7,0,3.06153,0.000336806,1.1022e-05
0.3,9.8,0,3.06154,6.96389e-05,1.10258e-05
0.3,9.9,0,3.06155,-0.000161297,1.10146e-05
0.3,10,0,3.06156,-0.000392233,1.10034e-05
0.3,10.1,0,3.0616,-0.00075276,1.09392e-05
0.3,10.2,0,3.06161,-0.00104418,1.08944e-05
0.3,10.3,0,3.06162,-0.0013356,1.08496e-05
0.3,10.4,0,3.06167,-0.00176193,1.04267e-05
0.3,10.5,0,3.06171,-0.00213255,9.59461e-06
0.3,10.6,0,3.06174,-0.00250317,8.76252e-06
0.3,10.7,0,3.0618,-0.0029156,8.02968e-06
0.3,10.8,0,3.06188,-0.00343012,7.80427e-06
0.3,10.9,0,3.06194,-0.00387412,7.47965e-06
0.3,11,0,3.06199,-0.00431812,7.15502e-06
0.3,11.1,0,3.0622,-0.00518502,6.67356e-06
0.3,11.2,0,3.06234,-0.00596858,4.80042e-06
0.3,11.3,0,3.06248,-0.00675214,2.92729e-06
0.3,11.4,0,3.06287,-0.00766913,1.78029e-06
0.3,11.5,0,3.06318,-0.00845292,1.65716e-06
0.3,11.6,0,3.06349,-0.00923671,1.53402e-06
0.3,11.7,0,3.06385,-0.01014,1.42637e-06
0.3,11.8,0,3.06459,-0.0128554,1.27637e-06
0.3,11.9,0,3.06511,-0.015414,1.01145e-06
0.3,12,0,3.06563,-0.0179726,7.46523e-07
0.3,12.1,0,3.06173,-0.0199741,8.07039e-07
0.3,12.2,0,3.05732,-0.0216474,1.32196e-06
0.3,12.3,0,3.05292,-0.0233207,1.83689e-06
0.3,12.4,0,2.72238,-0.0210821,2.26119e-06
0.3,12.5,0,1.81492,-0.0140547,1.50746e-06
0.3,12.6,0,0.907462,-0.00702735,7.53731e-07
0.3,12.7,0,0,0,0
0.4,0,0,0,0,0
0.4,0.1,0,1.1421,0.01595,-2.27273e-07
0.4,0.2,0,2.25504,0.0288639,-4.95455e-07
0.4,0.3,0,3.08631,0.0372175,-4.82955e-07
0.4,0.4,0,3.1017,0.034926,4.125e-07
0.4,0.5,0,3.11023,0.0325313,8.52273e-08
0.4,0.6,0,3.11329,0.0289958,1.89773e-07
0.4,0.7,0,3.11124,0.0244589,5.15909e-07
0.4,0.8,0,3.11028,0.0203407,2.11364e-07
0.4,0.9,0,3.10871,0.0179033,-4.375e-07
0.4,1,0,3.10751,0.0163038,-2.21591e-07
0.4,1.1,0,3.10689,0.0149819,9.73864e-07
0.4,1.2,0,3.10598,0.0128795,4.14773e-07
0.4,1.3,0,3.10553,0.0113699,1.55682e-07
0.4,1.4,0,3.10518,0.0100774,-2.76136e-07
0.4,1.5,0,3.10472,0.00884327,-1.52614e-06
0.4,1.6,0,3.10458,0.00810798,1.09659e-06
0.4,1.7,0,3.10436,0.00722326,2.53977e-06
0.4,1.8,0,3.10412,0.00630646,2.71136e-06
0.4,1.9,0,3.10405,0.00574175,2.60682e-06
0.4,2,0,3.10388,0.00499603,2.41705e-06
0.4,2.1,0,3.10374,0.00438354,1.15795e-06
0.4,2.2,0,3.10369,0.00396461,-1.14205e-06
0.4,2.3,0,3.10351,0.00332928,-3.74659e-06
0.4,2.4,0,3.10342,0.0029315,1.21364e-06
0.4,2.5,0,3.10333,0.00256569,6.58977e-06
0.4,2.6,0,3.10315,0.00205828,5.64886e-06
0.4,2.7,0,3.10309,0.00181429,3.77614e-06
0.4,2.8,0,3.10296,0.00149179,3.9875e-06
0.4,2.9,0,3.10279,0.00114858,4.35341e-06
0.4,3,0,3.1027,0.000978742,-1.06932e-06
0.4,3.1,0,3.10249,0.000693721,-1.15341e-06
0.4,3.2,0,3.10229,0.000475578,1.30682e-07
0.4,3.3,0,3.10215,0.000362706,1.00341e-06
0.4,3.4,0,3.10182,0.000105905,1.04432e-06
0.4,3.5,0,3.10159,1.14202e-06,5.125e-07
0.4,3.6,0,3.10133,-8.87358e-05,1.63636e-07
0.4,3.7,0,3.10088,-0.000285995,9.36364e-07
0.4,3.8,0,3.10055,-0.000378507,1e-06
0.4,3.9,0,3.10022,-0.000475032,1.21591e-06
0.4,4,0,3.09989,-0.000595616,1.33068e-06
0.4,4.1,0,3.09959,-0.000776344,6.85227e-07
0.4,4.2,0,3.09934,-0.000761933,3.46591e-07
0.4,4.3,0,3.09906,-0.000882857,3.14773e-07
0.4,4.4,0,3.09873,-0.00120416,4.875e-07
0.4,4.5,0,3.09943,-0.00092417,4.92045e-07
0.4,4.6,0,3.09973,-0.00150249,3.19318e-07
0.4,4.7,0,3.10017,-0.00209844,1.32955e-07
0.4,4.8,0,3.10142,-0.00188896,8.29545e-08
0.4,4.9,0,3.1022,-0.00244015,1.01136e-07
0.4,5,0,3.10336,-0.00229675,1.05682e-07
0.4,5.1,0,3.10456,-0.00200816,8.63636e-08
0.4,5.2,0,3.10473,-0.00336782,3.63636e-08
0.4,5.3,0,3.10669,-0.00273317,1.36364e-08
0.4,5.4,0,3.10874,-0.00205667,1.10229e-08
0.4,5.5,0,3.11029,-0.00200309,1.94324e-08
0.4,5.6,0,3.11634,0.00035154,1.5e-08
0.4,5.7,0,3.11899,0.000826161,8.63636e-09
0.4,5.8,0,3.11961,0.00132049,-3.40909e-09
0.4,5.9,0,3.11838,0.00179342,-1.21591e-08
0.4,6,0,3.11226,0.0043324,-2.0179e-08
0.4,6.1,0,3.10937,0.00535746,-1.74936e-08
0.4,6.2,0,3.10674,0.00602065,-1.5449e-08
0.4,6.3,0,3.1044,0.00628748,-1.41063e-08
0.4,6.4,0,3.10267,0.00690037,-2.09125e-08
0.4,6.5,0,3.10142,0.00741674,-3.21065e-08
0.4,6.6,0,3.10131,0.00599334,-4.33005e-08
0.4,6.7,0,3.10105,0.00505988,-5.5614e-08
0.4,6.8,0,3.10041,0.00526959,-7.05393e-08
0.4,6.9,0,3.10003,0.00504497,-9.12653e-08
0.4,7,0,3.09971,0.00469589,-1.13653e-07
0.4,7.1,0,3.09942,0.00483224,-1.32497e-07
0.4,7.2,0,3.09924,0.00469273,-1.43182e-07
0.4,7.3,0,3.0992,0.0041492,-1.43182e-07
0.4,7.4,0,3.09944,0.00395541,-2.2154e-07
0.4,7.5,0,3.09985,0.0039807,-3.46659e-07
0.4,7.6,0,3.10024,0.00383806,-4.0636e-07
0.4,7.7,0,3.1006,0.00370667,-4.63263e-07
0.4,7.8,0,3.10087,0.00360905,-5.11771e-07
0.4,7.9,0,3.10109,0.00356888,-2.04783e-07
0.4,8,0,3.1013,0.00355026,2.35516e-07
0.4,8.1,0,3.10157,0.00341181,-3.4844e-07
0.4,8.2,0,3.10182,0.00330202,-8.30818e-07
0.4,8.3,0,3.102,0.00326153,-9.57683e-07
0.4,8.4,0,3.10217,0.00314052,-1.37802e-06
0.4,8.5,0,3.10233,0.00295738,-1.94881e-06
0.4,8.6,0,3.10243,0.0029082,6.78053e-07
0.4,8.7,0,3.10253,0.00281672,2.7288e-06
0.4,8.8,0,3.10265,0.00255605,2.47507e-06
0.4,8.9,0,3.10273,0.00239671,3.90946e-06
0.4,9,0,3.10279,0.00228565,6.14827e-06
0.4,9.1,0,3.10287,0.00199922,6.32551e-06
0.4,9.2,0,3.10294,0.0017361,6.21465e-06
0.4,9.3,0,3.10296,0.00158449,6.25943e-06
0.4,9.4,0,3.103,0.00131539,6.80421e-06
0.4,9.5,0,3.10308,0.000928823,7.84898e-06
0.4,9.6,0,3.1031,0.00073556,6.49434e-06
0.4,9.7,0,3.10313,0.000505302,5.30833e-06
0.4,9.8,0,3.10319,3.9928e-05,5.39415e-06
0.4,9.9,0,3.10322,-0.000278389,5.41911e-06
0.4,10,0,3.10323,-0.000509325,5.40792e-06
0.4,10.1,0,3.10329,-0.00100196,5.3012e-06
0.4,10.2,0,3.10335,-0.00148608,5.1944e-06
0.4,10.3,0,3.10337,-0.0017775,5.14963e-06
0.4,10.4,0,3.10343,-0.00225124,4.7153e-06
0.4,10.5,0,3.10357,-0.0029478,3.80485e-06
0.4,10.6,0,3.10361,-0.00334212,2.96706e-06
0.4,10.7,0,3.10366,-0.00375455,2.23423e-06
0.4,10.8,0,3.10387,-0.00454328,2.39467e-06
0.4,10.9,0,3.10399,-0.00513301,2.2751e-06
0.4,11,0,3.10404,-0.00557701,1.95047e-06
0.4,11.1,0,3.10438,-0.00669,2.93835e-06
0.4,11.2,0,3.10474,-0.00790042,3.61406e-06
0.4,11.3,0,3.10488,-0.00868398,1.74093e-06
0.4,11.4,0,3.10533,-0.00964276,6.0212e-07
0.4,11.5,0,3.10625,-0.0108644,5.64807e-07
0.4,11.6,0,3.10664,-0.0117019,4.52205e-07
0.4,11.7,0,3.107,-0.0126052,3.44556e-07
0.4,11.8,0,3.10836,-0.01578,5.31123e-07
0.4,11.9,0,3.10928,-0.0186298,4.7963e-07
0.4,12,0,3.10981,-0.0211883,2.14705e-07
0.4,12.1,0,3.10462,-0.0232713,-1.10414e-08
0.4,12.2,0,3.09757,-0.025114,-9.16723e-08
0.4,12.3,0,3.09317,-0.0267873,4.23253e-07
0.4,12.4,0,2.76113,-0.0244193,9.00305e-07
0.4,12.5,0,1.82063,-0.0145462,1.30702e-06
0.4,12.6,0,0.907462,-0.00702735,7.53731e-07
0.4,12.7,0,0,0,0
0.5,0,0,0,0,0
0.5,0.1,0,1.1421,0.01595,-2.27273e-07
0.5,0.2,0,2.28421,0.0319,-4.54545e-07
0.5,0.3,0,3.12519,0.0412656,-4.28409e-07
0.5,0.4,0,3.14058,0.038974,4.67045e-07
0.5,0.5,0,3.15598,0.0366825,1.3625e-06
0.5,0.6,0,3.15904,0.0331469,1.46705e-06
0.5,0.7,0,3.15663,0.0284705,2.00341e-06
0.5,0.8,0,3.15459,0.0239336,2.32955e-06
0.5,0.9,0,3.15302,0.0214963,1.68068e-06
0.5,1,0,3.15124,0.0196192,9.17045e-07
0.5,1.1,0,3.15005,0.0180197,1.13295e-06
0.5,1.2,0,3.14914,0.0159173,5.73864e-07
0.5,1.3,0,3.14823,0.0138149,1.47727e-08
0.5,1.4,0,3.14773,0.0123248,-5.17045e-07
0.5,1.5,0,3.14727,0.0110907,-1.76705e-06
0.5,1.6,0,3.1468,0.00985662,-3.01705e-06
0.5,1.7,0,3.14658,0.0089719,-1.57386e-06
0.5,1.8,0,3.14629,0.00793774,-1.31023e-06
0.5,1.9,0,3.14605,0.00702095,-1.13864e-06
0.5,2,0,3.14587,0.00627523,-1.32841e-06
0.5,2.1,0,3.14566,0.00546917,-1.54659e-06
0.5,2.2,0,3.14553,0.00485668,-2.80568e-06
0.5,2.3,0,3.14535,0.00422134,-5.41023e-06
0.5,2.4,0,3.14517,0.00358601,-8.01477e-06
0.5,2.5,0,3.14505,0.00314103,-5.16023e-06
0.5,2.6,0,3.14487,0.00263361,-6.10114e-06
0.5,2.7,0,3.14469,0.00212619,-7.04205e-06
0.5,2.8,0,3.14456,0.0018037,-6.83068e-06
0.5,2.9,0,3.14436,0.0014027,-4.53523e-06
0.5,3,0,3.14418,0.00105949,-4.16932e-06
0.5,3.1,0,3.14397,0.000774467,-4.25341e-06
0.5,3.2,0,3.14371,0.000451053,-2.55795e-06
0.5,3.3,0,3.14352,0.00023291,-1.27386e-06
0.5,3.4,0,3.14319,-2.38908e-05,-1.23295e-06
0.5,3.5,0,3.14287,-0.000280692,-1.19205e-06
0.5,3.6,0,3.14257,-0.000421249,-1.35e-06
0.5,3.7,0,3.14213,-0.000618508,-5.77273e-07
0.5,3.8,0,3.14168,-0.000815768,1.95455e-07
0.5,3.9,0,3.14134,-0.000912292,4.11364e-07
0.5,4,0,3.14101,-0.00101283,7.79545e-07
0.5,4.1,0,3.14069,-0.00113341,8.94318e-07
0.5,4.2,0,3.14044,-0.001119,5.55682e-07
0.5,4.3,0,3.14021,-0.00103955,3.19318e-07
0.5,4.4,0,3.13993,-0.00116047,2.875e-07
0.5,4.5,0,3.14062,-0.00088048,2.92045e-07
0.5,4.6,0,3.14132,-0.000600489,2.96591e-07
0.5,4.7,0,3.14189,-0.000910333,1.69318e-07
0.5,4.8,0,3.14314,-0.000700847,1.19318e-07
0.5,4.9,0,3.14439,-0.00049136,6.93182e-08
0.5,5,0,3.14555,-0.000347956,7.38636e-08
0.5,5.1,0,3.14709,0.000490049,6.47727e-08
0.5,5.2,0,3.14829,0.000778636,4.54545e-08
0.5,5.3,0,3.15025,0.00141329,2.27273e-08
0.5,5.4,0,3.1528,0.00271272,9.09091e-09
0.5,5.5,0,3.15485,0.00338922,6.47747e-09
0.5,5.6,0,3.15991,0.00384337,1.5e-08
0.5,5.7,0,3.16114,0.00269757,1.45455e-08
0.5,5.8,0,3.16116,0.00137915,3.86364e-09
0.5,5.9,0,3.16086,9.2783e-05,-4.88636e-09
0.5,6,0,3.1563,0.000132591,-1.27237e-08
0.5,6.1,0,3.1534,0.00115766,-1.00383e-08
0.5,6.2,0,3.15051,0.00218272,-7.35292e-09
0.5,6.3,0,3.14776,0.00301134,-5.0154e-09
0.5,6.4,0,3.14603,0.00362424,-1.18216e-08
0.5,6.5,0,3.14462,0.00442348,-2.30156e-08
0.5,6.6,0,3.14321,0.00522272,-3.42096e-08
0.5,6.7,0,3.14282,0.00449132,-4.65231e-08
0.5,6.8,0,3.14219,0.00470102,-6.14484e-08
0.5,6.9,0,3.14155,0.00491073,-7.63738e-08
0.5,7,0,3.14109,0.00480803,-9.54715e-08
0.5,7.1,0,3.1408,0.00494438,-1.14315e-07
0.5,7.2,0,3.14051,0.00510628,-1.32972e-07
0.5,7.3,0,3.14027,0.00512068,-1.47727e-07
0.5,7.4,0,3.14051,0.00492688,-2.26085e-07
0.5,7.5,0,3.14092,0.00496624,-3.56682e-07
0.5,7.6,0,3.14134,0.0050056,-4.8728e-07
0.5,7.7,0,3.1417,0.00489985,-5.54172e-07
0.5,7.8,0,3.14197,0.00480223,-6.0268e-07
0.5,7.9,0,3.14224,0.00470461,-6.51187e-07
0.5,8,0,3.14247,0.00464721,-4.50848e-07
0.5,8.1,0,3.14275,0.00450875,-1.0348e-06
0.5,8.2,0,3.14303,0.00435698,-1.73256e-06
0.5,8.3,0,3.14329,0.00422291,-2.3395e-06
0.5,8.4,0,3.14347,0.0041019,-2.75984e-06
0.5,8.5,0,3.14363,0.00391501,-3.42028e-06
0.5,8.6,0,3.1438,0.00372812,-4.08073e-06
0.5,8.7,0,3.14392,0.00361035,-2.65756e-06
0.5,8.8,0,3.14404,0.00334968,-2.9113e-06
0.5,8.9,0,3.14416,0.00308901,-3.16503e-06
0.5,9,0,3.14425,0.00289703,-2.27446e-06
0.5,9.1,0,3.14433,0.0026106,-2.09722e-06
0.5,9.2,0,3.14442,0.00229323,-2.28379e-06
0.5,9.3,0,3.1445,0.00199394,-2.44512e-06
0.5,9.4,0,3.14455,0.00172485,-1.90034e-06
0.5,9.5,0,3.14462,0.00133828,-8.55563e-07
0.5,9.6,0,3.1447,0.000951709,1.89213e-07
0.5,9.7,0,3.14474,0.000673798,-4.05309e-07
0.5,9.8,0,3.1448,0.000208424,-3.19488e-07
0.5,9.9,0,3.14486,-0.00025695,-2.33667e-07
0.5,10,0,3.1449,-0.000626417,-1.87534e-07
0.5,10.1,0,3.14496,-0.00111905,-2.9425e-07
0.5,10.2,0,3.14504,-0.0016771,-4.24847e-07
0.5,10.3,0,3.14511,-0.00221941,-5.50373e-07
0.5,10.4,0,3.14518,-0.00269314,-9.84701e-07
0.5,10.5,0,3.14531,-0.0033897,-1.89515e-06
0.5,10.6,0,3.14545,-0.00408625,-2.8056e-06
0.5,10.7,0,3.14553,-0.0045935,-3.56123e-06
0.5,10.8,0,3.14574,-0.00538223,-3.40078e-06
0.5,10.9,0,3.14594,-0.00617096,-3.24033e-06
0.5,11,0,3.14609,-0.00683591,-3.25407e-06
0.5,11.1,0,3.14643,-0.00794889,-2.2662e-06
0.5,11.2,0,3.14685,-0.00928487,-8.40824e-07
0.5,11.3,0,3.14728,-0.0106158,5.54562e-07
0.5,11.4,0,3.14773,-0.0115746,-5.84244e-07
0.5,11.5,0,3.14865,-0.0127962,-6.21557e-07
0.5,11.6,0,3.14958,-0.0140178,-6.5887e-07
0.5,11.7,0,3.15015,-0.0150704,-7.37263e-07
0.5,11.8,0,3.15151,-0.0182451,-5.50695e-07
0.5,11.9,0,3.15287,-0.0214199,-3.64128e-07
0.5,12,0,3.15398,-0.0244041,-3.17113e-07
0.5,12.1,0,3.1488,-0.0264871,-5.4286e-07
0.5,12.2,0,3.14117,-0.0283663,-7.51815e-07
0.5,12.3,0,3.13354,-0.0302455,-9.6077e-07
0.5,12.4,0,2.80138,-0.027886,-5.13331e-07
0.5,12.5,0,1.86088,-0.0180129,-1.06615e-07
0.5,12.6,0,0.920376,-0.00813978,3.00102e-07
0.5,12.7,0,0,0,0
0.6,0,0,0,0,0
0.6,0.1,0,1.16056,0.016504,-3.15909e-07
0.6,0.2,0,2.30267,0.032454,-5.43182e-07
0.6,0.3,0,3.16567,0.0440072,-9.47727e-07
0.6,0.4,0,3.18364,0.0418794,-5.10227e-07
0.6,0.5,0,3.19903,0.0395878,3.85227e-07
0.6,0.6,0,3.20528,0.0363243,9.07955e-07
0.6,0.7,0,3.20287,0.0316479,1.44432e-06
0.6,0.8,0,3.20047,0.0269714,1.98068e-06
0.6,0.9,0,3.19811,0.0243183,2.51932e-06
0.6,1,0,3.19633,0.0224412,1.75568e-06
0.6,1.1,0,3.19456,0.0205641,9.92045e-07
0.6,1.2,0,3.19339,0.01827,5.98864e-07
0.6,1.3,0,3.19248,0.0161676,3.97727e-08
0.6,1.4,0,3.1916,0.0142051,-1.14773e-07
0.6,1.5,0,3.19104,0.0128939,-7.875e-07
0.6,1.6,0,3.19058,0.0116598,-2.0375e-06
0.6,1.7,0,3.19007,0.0103513,-3.31932e-06
0.6,1.8,0,3.18977,0.00931713,-3.05568e-06
0.6,1.9,0,3.18948,0.00828297,-2.79205e-06
0.6,2,0,3.18915,0.00727329,-3.72159e-06
0.6,2.1,0,3.18894,0.00646723,-3.93977e-06
0.6,2.2,0,3.18873,0.00566117,-4.15795e-06
0.6,2.3,0,3.18849,0.00489741,-3.43523e-06
0.6,2.4,0,3.18831,0.00426207,-6.03977e-06
0.6,2.5,0,3.18811,0.0036037,-8.21818e-06
0.6,2.6,0,3.18791,0.00304126,-9.14886e-06
0.6,2.7,0,3.18773,0.00253384,-1.00898e-05
0.6,2.8,0,3.1875,0.00199395,-1.15852e-05
0.6,2.9,0,3.1873,0.00159295,-9.28977e-06
0.6,3,0,3.1871,0.00119195,-6.99432e-06
0.6,3.1,0,3.18683,0.000794174,-5.77841e-06
0.6,3.2,0,3.18658,0.00047076,-4.08295e-06
0.6,3.3,0,3.18632,0.000147346,-2.3875e-06
0.6,3.4,0,3.18601,-0.000124049,-2.65114e-06
0.6,3.5,0,3.18568,-0.00038085,-2.61023e-06
0.6,3.6,0,3.18535,-0.000617057,-2.43295e-06
0.6,3.7,0,3.18493,-0.000808609,-1.70682e-06
0.6,3.8,0,3.18448,-0.00100587,-9.34091e-07
0.6,3.9,0,3.18413,-0.0011481,-3.56818e-07
0.6,4,0,3.1838,-0.00124863,1.13636e-08
0.6,4.1,0,3.18347,-0.00134917,3.79545e-07
0.6,4.2,0,3.18321,-0.00135935,6.48864e-07
0.6,4.3,0,3.18298,-0.00127989,4.125e-07
0.6,4.4,0,3.18274,-0.00120043,1.76136e-07
0.6,4.5,0,3.18319,-0.00114882,1.32955e-07