x,y,z,p
0,0,0,0.000895323
0,0.1,0,0.00183743
0,0.2,0,0.00277954
0,0.3,0,0.0039148
0,0.4,0,0.00524322
0,0.5,0,0.00657164
0,0.6,0,0.00792514
0,0.7,0,0.00927865
0,0.8,0,0.0106516
0,0.9,0,0.0120441
0,1,0,0.0134367
0,1.1,0,0.0148728
0,1.2,0,0.016309
0,1.3,0,0.0177696
0,1.4,0,0.0192546
0,1.5,0,0.0207396
0,1.6,0,0.0222759
0,1.7,0,0.0238122
0,1.8,0,0.0253738
0,1.9,0,0.0269608
0,2,0,0.0285478
0,2.1,0,0.0301794
0,2.2,0,0.0318111
0,2.3,0,0.0334533
0,2.4,0,0.0351062
0,2.5,0,0.0367591
0,2.6,0,0.038394
0,2.7,0,0.040029
0,2.8,0,0.0416355
0,2.9,0,0.0432137
0,3,0,0.0447918
0,3.1,0,0.0462808
0,3.2,0,0.0477697
0,3.3,0,0.0492045
0,3.4,0,0.050585
0,3.5,0,0.0519656
0,3.6,0,0.0531744
0,3.7,0,0.0543831
0,3.8,0,0.0555088
0,3.9,0,0.0565515
0,4,0,0.0575941
0,4.1,0,0.058461
0,4.2,0,0.0593279
0,4.3,0,0.0600924
0,4.4,0,0.0607546
0,4.5,0,0.0614168
0,4.6,0,0.061797
0,4.7,0,0.0621772
0,4.8,0,0.062409
0,4.9,0,0.0624924
0,5,0,0.0625759
0,5.1,0,0.0625145
0,5.2,0,0.0624419
0,5.3,0,0.0623739
0,5.4,0,0.0623119
0,5.5,0,0.0622637
0,5.6,0,0.0622386
0,5.7,0,0.0622449
0,5.8,0,0.0622877
0,5.9,0,0.0623674
0,6,0,0.0624801
0,6.1,0,0.0626189
0,6.2,0,0.0627772
0,6.3,0,0.0629503
0,6.4,0,0.0631379
0,6.5,0,0.0633448
0,6.6,0,0.06358
0,6.7,0,0.0638562
0,6.8,0,0.0641861
0,6.9,0,0.0645822
0,7,0,0.0653126
0,7.1,0,0.0655579
0,7.2,0,0.0658033
0,7.3,0,0.0660013
0,7.4,0,0.065931
0,7.5,0,0.0658607
0,7.6,0,0.0656504
0,7.7,0,0.0651134
0,7.8,0,0.0645764
0,7.9,0,0.0638778
0,8,0,0.0629816
0,8.1,0,0.0620855
0,8.2,0,0.0610006
0,8.3,0,0.0597899
0,8.4,0,0.0585791
0,8.5,0,0.057199
0,8.6,0,0.0557624
0,8.7,0,0.0543259
0,8.8,0,0.0527543
0,8.9,0,0.0511677
0,9,0,0.0495757
0,9.1,0,0.0478807
0,9.2,0,0.0461856
0,9.3,0,0.0444807
0,9.4,0,0.0427363
0,9.5,0,0.040992
0,9.6,0,0.0392511
0,9.7,0,0.0375166
0,9.8,0,0.035782
0,9.9,0,0.0340771
0,10,0,0.0324018
0,10.1,0,0.0307265
0,10.2,0,0.029107
0,10.3,0,0.0275176
0,10.4,0,0.0259282
0,10.5,0,0.0244222
0,10.6,0,0.0229369
0,10.7,0,0.0214517
0,10.8,0,0.020072
0,10.9,0,0.0186979
0,11,0,0.0173349
0,11.1,0,0.0160727
0,11.2,0,0.0148105
0,11.3,0,0.0135754
0,11.4,0,0.0124217
0,11.5,0,0.0112679
0,11.6,0,0.0101545
0,11.7,0,0.00910167
0,11.8,0,0.00804879
0,11.9,0,0.00704764
0,12,0,0.00608881
0,12.1,0,0.00512999
0,12.2,0,0.00422152
0,12.3,0,0.00333463
0,12.4,0,0.00244774
0,12.5,0,0.00180551
0,12.6,0,0.00120645
0,12.7,0,0.000607394
0.1,0,0,0.000789991
0.1,0.1,0,0.00172579
0.1,0.2,0,0.0026679
0.1,0.3,0,0.00391282
0.1,0.4,0,0.00524124
0.1,0.5,0,0.00667266
0.1,0.6,0,0.00791975
0.1,0.7,0,0.00927326
0.1,0.8,0,0.0106456
0.1,0.9,0,0.0120381
0.1,1,0,0.013592
0.1,1.1,0,0.0148661
0.1,1.2,0,0.0163022
0.1,1.3,0,0.017762
0.1,1.4,0,0.019247
0.1,1.5,0,0.0208717
0.1,1.6,0,0.0222684
0.1,1.7,0,0.0238047
0.1,1.8,0,0.0253664
0.1,1.9,0,0.0269534
0.1,2,0,0.0285539
0.1,2.1,0,0.0301738
0.1,2.2,0,0.0318054
0.1,2.3,0,0.0334528
0.1,2.4,0,0.0351056
0.1,2.5,0,0.0365238
0.1,2.6,0,0.0383998
0.1,2.7,0,0.0400348
0.1,2.8,0,0.0416464
0.1,2.9,0,0.0432246
0.1,3,0,0.0442393
0.1,3.1,0,0.0462961
0.1,3.2,0,0.0477851
0.1,3.3,0,0.049221
0.1,3.4,0,0.0506016
0.1,3.5,0,0.0510965
0.1,3.6,0,0.0532084
0.1,3.7,0,0.0544171
0.1,3.8,0,0.0555237
0.1,3.9,0,0.0565663
0.1,4,0,0.0564853
0.1,4.1,0,0.0584979
0.1,4.2,0,0.0593647
0.1,4.3,0,0.0601157
0.1,4.4,0,0.060778
0.1,4.5,0,0.0601918
0.1,4.6,0,0.0618567
0.1,4.7,0,0.0622368
0.1,4.8,0,0.0624367
0.1,4.9,0,0.0625201
0.1,5,0,0.0614269
0.1,5.1,0,0.0614164
0.1,5.2,0,0.0613805
0.1,5.3,0,0.0613434
0.1,5.4,0,0.0613075
0.1,5.5,0,0.0612806
0.1,5.6,0,0.061272
0.1,5.7,0,0.0612898
0.1,5.8,0,0.0613394
0.1,5.9,0,0.0614211
0.1,6,0,0.0615313
0.1,6.1,0,0.0616633
0.1,6.2,0,0.0618107
0.1,6.3,0,0.0619691
0.1,6.4,0,0.0621379
0.1,6.5,0,0.0623217
0.1,6.6,0,0.0625292
0.1,6.7,0,0.0627722
0.1,6.8,0,0.0630631
0.1,6.9,0,0.0634126
0.1,7,0,0.0640653
0.1,7.1,0,0.0655716
0.1,7.2,0,0.0658169
0.1,7.3,0,0.0653001
0.1,7.4,0,0.0660232
0.1,7.5,0,0.0659529
0.1,7.6,0,0.0655613
0.1,7.7,0,0.0651777
0.1,7.8,0,0.0646407
0.1,7.9,0,0.0639338
0.1,8,0,0.0630377
0.1,8.1,0,0.0621416
0.1,8.2,0,0.0610501
0.1,8.3,0,0.0598393
0.1,8.4,0,0.0583458
0.1,8.5,0,0.0572253
0.1,8.6,0,0.0557887
0.1,8.7,0,0.0537526
0.1,8.8,0,0.0527783
0.1,8.9,0,0.0511917
0.1,9,0,0.0491053
0.1,9.1,0,0.0478931
0.1,9.2,0,0.046198
0.1,9.3,0,0.0443785
0.1,9.4,0,0.0427405
0.1,9.5,0,0.0409961
0.1,9.6,0,0.0392437
0.1,9.7,0,0.0375092
0.1,9.8,0,0.0357746
0.1,9.9,0,0.0340646
0.1,10,0,0.0323893
0.1,10.1,0,0.030714
0.1,10.2,0,0.0290907
0.1,10.3,0,0.0275013
0.1,10.4,0,0.0261766
0.1,10.5,0,0.0244036
0.1,10.6,0,0.0229183
0.1,10.7,0,0.0220721
0.1,10.8,0,0.0200533
0.1,10.9,0,0.0186792
0.1,11,0,0.0178694
0.1,11.1,0,0.0160539
0.1,11.2,0,0.0147917
0.1,11.3,0,0.013754
0.1,11.4,0,0.0124042
0.1,11.5,0,0.0112504
0.1,11.6,0,0.0101383
0.1,11.7,0,0.00908537
0.1,11.8,0,0.00803249
0.1,11.9,0,0.00703239
0.1,12,0,0.00607357
0.1,12.1,0,0.00516013
0.1,12.2,0,0.00421264
0.1,12.3,0,0.00332575
0.1,12.4,0,0.00256697
0.1,12.5,0,0.00171788
0.1,12.6,0,0.00111882
0.1,12.7,0,0.000535936
0.2,0,0,0.000684659
0.2,0.1,0,0.00161416
0.2,0.2,0,0.00260602
0.2,0.3,0,0.00392769
0.2,0.4,0,0.00523925
0.2,0.5,0,0.00677368
0.2,0.6,0,0.00791436
0.2,0.7,0,0.0093103
0.2,0.8,0,0.0106821
0.2,0.9,0,0.012032
0.2,1,0,0.0137474
0.2,1.1,0,0.0148593
0.2,1.2,0,0.016344
0.2,1.3,0,0.0178032
0.2,1.4,0,0.0192394
0.2,1.5,0,0.0210038
0.2,1.6,0,0.022261
0.2,1.7,0,0.0238244
0.2,1.8,0,0.0253861
0.2,1.9,0,0.0269459
0.2,2,0,0.0285599
0.2,2.1,0,0.0301681
0.2,2.2,0,0.0317711
0.2,2.3,0,0.0334221
0.2,2.4,0,0.0351051
0.2,2.5,0,0.0362885
0.2,2.6,0,0.0384057
0.2,2.7,0,0.039922
0.2,2.8,0,0.0415372
0.2,2.9,0,0.0432355
0.2,3,0,0.0436867
0.2,3.1,0,0.0463115
0.2,3.2,0,0.0475817
0.2,3.3,0,0.0490184
0.2,3.4,0,0.0506181
0.2,3.5,0,0.0502274
0.2,3.6,0,0.0532424
0.2,3.7,0,0.0541402
0.2,3.8,0,0.0552333
0.2,3.9,0,0.0565812
0.2,4,0,0.0553765
0.2,4.1,0,0.0585347
0.2,4.2,0,0.0590353
0.2,4.3,0,0.0597768
0.2,4.4,0,0.0608013
0.2,4.5,0,0.0589667
0.2,4.6,0,0.0619163
0.2,4.7,0,0.0619169
0.2,4.8,0,0.0620943
0.2,4.9,0,0.0625477
0.2,5,0,0.060278
0.2,5.1,0,0.0603182
0.2,5.2,0,0.0603191
0.2,5.3,0,0.0603129
0.2,5.4,0,0.0603031
0.2,5.5,0,0.0602975
0.2,5.6,0,0.0603053
0.2,5.7,0,0.0603347
0.2,5.8,0,0.060391
0.2,5.9,0,0.0604748
0.2,6,0,0.0605825
0.2,6.1,0,0.0607077
0.2,6.2,0,0.0608443
0.2,6.3,0,0.0609879
0.2,6.4,0,0.0611379
0.2,6.5,0,0.0612987
0.2,6.6,0,0.0614784
0.2,6.7,0,0.0616883
0.2,6.8,0,0.06194
0.2,6.9,0,0.062243
0.2,7,0,0.0628179
0.2,7.1,0,0.0655852
0.2,7.2,0,0.0658306
0.2,7.3,0,0.0639566
0.2,7.4,0,0.0661154
0.2,7.5,0,0.0660451
0.2,7.6,0,0.0641676
0.2,7.7,0,0.065242
0.2,7.8,0,0.0641962
0.2,7.9,0,0.0630647
0.2,8,0,0.0630938
0.2,8.1,0,0.0611517
0.2,8.2,0,0.060828
0.2,8.3,0,0.0598887
0.2,8.4,0,0.0572839
0.2,8.5,0,0.0572516
0.2,8.6,0,0.055815
0.2,8.7,0,0.0529245
0.2,8.8,0,0.0528023
0.2,8.9,0,0.0512157
0.2,9,0,0.0485502
0.2,9.1,0,0.0479055
0.2,9.2,0,0.0462104
0.2,9.3,0,0.0441191
0.2,9.4,0,0.0427446
0.2,9.5,0,0.0410018
0.2,9.6,0,0.039271
0.2,9.7,0,0.0375018
0.2,9.8,0,0.0359154
0.2,9.9,0,0.0342029
0.2,10,0,0.0323769
0.2,10.1,0,0.0311817
0.2,10.2,0,0.0291054
0.2,10.3,0,0.027485
0.2,10.4,0,0.0268164
0.2,10.5,0,0.024385
0.2,10.6,0,0.0228997
0.2,10.7,0,0.0228044
0.2,10.8,0,0.0200346
0.2,10.9,0,0.0186605
0.2,11,0,0.018639
0.2,11.1,0,0.016035
0.2,11.2,0,0.0147728
0.2,11.3,0,0.0145075
0.2,11.4,0,0.0123866
0.2,11.5,0,0.0113812
0.2,11.6,0,0.0106896
0.2,11.7,0,0.00906908
0.2,11.8,0,0.0084038
0.2,11.9,0,0.00722866
0.2,12,0,0.00605832
0.2,12.1,0,0.00557601
0.2,12.2,0,0.00420377
0.2,12.3,0,0.00331688
0.2,12.4,0,0.00278989
0.2,12.5,0,0.00163025
0.2,12.6,0,0.00103119
0.2,12.7,0,0.000464478
0.3,0,0,0.000579327
0.3,0.1,0,0.00150252
0.3,0.2,0,0.00266025
0.3,0.3,0,0.00398192
0.3,0.4,0,0.00523727
0.3,0.5,0,0.0068747
0.3,0.6,0,0.00790897
0.3,0.7,0,0.00944637
0.3,0.8,0,0.0108182
0.3,0.9,0,0.0120259
0.3,1,0,0.0139028
0.3,1.1,0,0.0148525
0.3,1.2,0,0.0164991
0.3,1.3,0,0.0179583
0.3,1.4,0,0.0192318
0.3,1.5,0,0.0211358
0.3,1.6,0,0.0222535
0.3,1.7,0,0.0239076
0.3,1.8,0,0.0254692
0.3,1.9,0,0.0269385
0.3,2,0,0.028566
0.3,2.1,0,0.0301624
0.3,2.2,0,0.0316702
0.3,2.3,0,0.0333212
0.3,2.4,0,0.0351045
0.3,2.5,0,0.0360532
0.3,2.6,0,0.0384115
0.3,2.7,0,0.0395325
0.3,2.8,0,0.0411477
0.3,2.9,0,0.0432463
0.3,3,0,0.0431341
0.3,3.1,0,0.0463269
0.3,3.2,0,0.0468678
0.3,3.3,0,0.0483046
0.3,3.4,0,0.0506346
0.3,3.5,0,0.0493582
0.3,3.6,0,0.0532764
0.3,3.7,0,0.0531375
0.3,3.8,0,0.0542307
0.3,3.9,0,0.056596
0.3,4,0,0.0542677
0.3,4.1,0,0.0585716
0.3,4.2,0,0.0578512
0.3,4.3,0,0.0585927
0.3,4.4,0,0.0608246
0.3,4.5,0,0.0577417
0.3,4.6,0,0.0619759
0.3,4.7,0,0.0607113
0.3,4.8,0,0.0608887
0.3,4.9,0,0.0625754
0.3,5,0,0.0591291
0.3,5.1,0,0.0592201
0.3,5.2,0,0.0592577
0.3,5.3,0,0.0592825
0.3,5.4,0,0.0592987
0.3,5.5,0,0.0593144
0.3,5.6,0,0.0593387
0.3,5.7,0,0.0593797
0.3,5.8,0,0.0594427
0.3,5.9,0,0.0595285
0.3,6,0,0.0596337
0.3,6.1,0,0.0597522
0.3,6.2,0,0.0598779
0.3,6.3,0,0.0600067
0.3,6.4,0,0.0601379
0.3,6.5,0,0.0602756
0.3,6.6,0,0.0604275
0.3,6.7,0,0.0606044
0.3,6.8,0,0.0608169
0.3,6.9,0,0.0610734
0.3,7,0,0.0615706
0.3,7.1,0,0.0655767
0.3,7.2,0,0.0652133
0.3,7.3,0,0.0626131
0.3,7.4,0,0.0662076
0.3,7.5,0,0.0647818
0.3,7.6,0,0.0627739
0.3,7.7,0,0.0653063
0.3,7.8,0,0.062846
0.3,7.9,0,0.0617144
0.3,8,0,0.0631499
0.3,8.1,0,0.0599115
0.3,8.2,0,0.0595879
0.3,8.3,0,0.0599381
0.3,8.4,0,0.0562219
0.3,8.5,0,0.0564474
0.3,8.6,0,0.0558413
0.3,8.7,0,0.0520964
0.3,8.8,0,0.0525572
0.3,8.9,0,0.0511432
0.3,9,0,0.0479952
0.3,9.1,0,0.0479179
0.3,9.2,0,0.0460559
0.3,9.3,0,0.0438597
0.3,9.4,0,0.0427487
0.3,9.5,0,0.0410306
0.3,9.6,0,0.0392998
0.3,9.7,0,0.0374943
0.3,9.8,0,0.0361992
0.3,9.9,0,0.0344867
0.3,10,0,0.0323644
0.3,10.1,0,0.0316714
0.3,10.2,0,0.0295951
0.3,10.3,0,0.0274686
0.3,10.4,0,0.0274562
0.3,10.5,0,0.0247707
0.3,10.6,0,0.0228812
0.3,10.7,0,0.0235368
0.3,10.8,0,0.0201411
0.3,10.9,0,0.0188908
0.3,11,0,0.0194085
0.3,11.1,0,0.0160162
0.3,11.2,0,0.0153434
0.3,11.3,0,0.015261
0.3,11.4,0,0.0123691
0.3,11.5,0,0.0120683
0.3,11.6,0,0.0113767
0.3,11.7,0,0.00905279
0.3,11.8,0,0.00897665
0.3,11.9,0,0.00780151
0.3,12,0,0.00604308
0.3,12.1,0,0.0059919
0.3,12.2,0,0.00458239
0.3,12.3,0,0.003308
0.3,12.4,0,0.00301281
0.3,12.5,0,0.001687
0.3,12.6,0,0.000943843
0.3,12.7,0,0.00039302
0.4,0,0,0.000473995
0.4,0.1,0,0.00139467
0.4,0.2,0,0.00271448
0.4,0.3,0,0.00403615
0.4,0.4,0,0.00529708
0.4,0.5,0,0.00697572
0.4,0.6,0,0.00796742
0.4,0.7,0,0.00958244
0.4,0.8,0,0.0109543
0.4,0.9,0,0.0121167
0.4,1,0,0.0140581
0.4,1.1,0,0.014943
0.4,1.2,0,0.0166541
0.4,1.3,0,0.0181133
0.4,1.4,0,0.019308
0.4,1.5,0,0.0212679
0.4,1.6,0,0.0223297
0.4,1.7,0,0.0239907
0.4,1.8,0,0.0255524
0.4,1.9,0,0.0269391
0.4,2,0,0.0285721
0.4,2.1,0,0.0301638
0.4,2.2,0,0.0315693
0.4,2.3,0,0.0332203
0.4,2.4,0,0.0349631
0.4,2.5,0,0.0358179
0.4,2.6,0,0.0382726
0.4,2.7,0,0.039143
0.4,2.8,0,0.0407582
0.4,2.9,0,0.0429191
0.4,3,0,0.0425815
0.4,3.1,0,0.0460015
0.4,3.2,0,0.046154
0.4,3.3,0,0.0475907
0.4,3.4,0,0.0501197
0.4,3.5,0,0.0484891
0.4,3.6,0,0.0527685
0.4,3.7,0,0.0521349
0.4,3.8,0,0.053228
0.4,3.9,0,0.0559367
0.4,4,0,0.0531588
0.4,4.1,0,0.0579211
0.4,4.2,0,0.0566671
0.4,4.3,0,0.0574086
0.4,4.4,0,0.0600989
0.4,4.5,0,0.0565166
0.4,4.6,0,0.0612647
0.4,4.7,0,0.0595057
0.4,4.8,0,0.0596831
0.4,4.9,0,0.0618971
0.4,5,0,0.0579802
0.4,5.1,0,0.058122
0.4,5.2,0,0.0581963
0.4,5.3,0,0.058252
0.4,5.4,0,0.0582943
0.4,5.5,0,0.0583313
0.4,5.6,0,0.058372
0.4,5.7,0,0.0584246
0.4,5.8,0,0.0584944
0.4,5.9,0,0.0585822
0.4,6,0,0.0586849
0.4,6.1,0,0.0587966
0.4,6.2,0,0.0589115
0.4,6.3,0,0.0590255
0.4,6.4,0,0.0591379
0.4,6.5,0,0.0592525
0.4,6.6,0,0.0593767
0.4,6.7,0,0.0595205
0.4,6.8,0,0.0596938
0.4,6.9,0,0.0599038
0.4,7,0,0.0603233
0.4,7.1,0,0.0643294
0.4,7.2,0,0.0638698
0.4,7.3,0,0.0612695
0.4,7.4,0,0.0654812
0.4,7.5,0,0.0633881
0.4,7.6,0,0.0613802
0.4,7.7,0,0.0651916
0.4,7.8,0,0.0614957
0.4,7.9,0,0.0603641
0.4,8,0,0.063206
0.4,8.1,0,0.0586714
0.4,8.2,0,0.0583478
0.4,8.3,0,0.0596853
0.4,8.4,0,0.0551599
0.4,8.5,0,0.0553854
0.4,8.6,0,0.0552531
0.4,8.7,0,0.0512684
0.4,8.8,0,0.0517291
0.4,8.9,0,0.0505881
0.4,9,0,0.0474401
0.4,9.1,0,0.0474375
0.4,9.2,0,0.0457965
0.4,9.3,0,0.0436003
0.4,9.4,0,0.0426419
0.4,9.5,0,0.0410595
0.4,9.6,0,0.0393287
0.4,9.7,0,0.0374869
0.4,9.8,0,0.036483
0.4,9.9,0,0.0347705
0.4,10,0,0.032352
0.4,10.1,0,0.0321611
0.4,10.2,0,0.0300848
0.4,10.3,0,0.0277285
0.4,10.4,0,0.0280959
0.4,10.5,0,0.0254104
0.4,10.6,0,0.0235147
0.4,10.7,0,0.0242692
0.4,10.8,0,0.0208735
0.4,10.9,0,0.0196603
0.4,11,0,0.0201781
0.4,11.1,0,0.0165644
0.4,11.2,0,0.0160969
0.4,11.3,0,0.0160145
0.4,11.4,0,0.0125612
0.4,11.5,0,0.0127554
0.4,11.6,0,0.0120638
0.4,11.7,0,0.0090365
0.4,11.8,0,0.0095495
0.4,11.9,0,0.00837437
0.4,12,0,0.00608078
0.4,12.1,0,0.00640778
0.4,12.2,0,0.00499828
0.4,12.3,0,0.00343129
0.4,12.4,0,0.00323574
0.4,12.5,0,0.00190992
0.4,12.6,0,0.000872385
0.4,12.7,0,0.000321562
0.5,0,0,0.000368662
0.5,0.1,0,0.00128933
0.5,0.2,0,0.0027687
0.5,0.3,0,0.00409038
0.5,0.4,0,0.0053981
0.5,0.5,0,0.00707673
0.5,0.6,0,0.00806844
0.5,0.7,0,0.00971851
0.5,0.8,0,0.0110904
0.5,0.9,0,0.0122721
0.5,1,0,0.0142135
0.5,1.1,0,0.0150984
0.5,1.2,0,0.0168092
0.5,1.3,0,0.0182684
0.5,1.4,0,0.0194401
0.5,1.5,0,0.0214
0.5,1.6,0,0.0224618
0.5,1.7,0,0.0240739
0.5,1.8,0,0.0256356
0.5,1.9,0,0.0269452
0.5,2,0,0.0285781
0.5,2.1,0,0.0301698
0.5,2.2,0,0.0314684
0.5,2.3,0,0.0331194
0.5,2.4,0,0.0347278
0.5,2.5,0,0.0355826
0.5,2.6,0,0.0380374
0.5,2.7,0,0.0387535
0.5,2.8,0,0.0403686
0.5,2.9,0,0.0423665
0.5,3,0,0.0420289
0.5,3.1,0,0.0454489
0.5,3.2,0,0.0454401
0.5,3.3,0,0.0468769
0.5,3.4,0,0.0492506
0.5,3.5,0,0.04762
0.5,3.6,0,0.0518994
0.5,3.7,0,0.0511323
0.5,3.8,0,0.0522254
0.5,3.9,0,0.0548278
0.5,4,0,0.05205
0.5,4.1,0,0.0568122
0.5,4.2,0,0.055483
0.5,4.3,0,0.0562245
0.5,4.4,0,0.0588738
0.5,4.5,0,0.0552916
0.5,4.6,0,0.0600397
0.5,4.7,0,0.0583
0.5,4.8,0,0.0584775
0.5,4.9,0,0.0607482
0.5,5,0,0.0568313
0.5,5.1,0,0.0570239
0.5,5.2,0,0.0571348
0.5,5.3,0,0.0572215
0.5,5.4,0,0.0572899
0.5,5.5,0,0.0573482
0.5,5.6,0,0.0574053
0.5,5.7,0,0.0574695
0.5,5.8,0,0.0575461
0.5,5.9,0,0.0576359
0.5,6,0,0.0577361
0.5,6.1,0,0.0578411
0.5,6.2,0,0.0579451
0.5,6.3,0,0.0580442
0.5,6.4,0,0.0581379
0.5,6.5,0,0.0582294
0.5,6.6,0,0.0583259
0.5,6.7,0,0.0584365
0.5,6.8,0,0.0585707
0.5,6.9,0,0.0587342
0.5,7,0,0.059076
0.5,7.1,0,0.0630821
0.5,7.2,0,0.0625262
0.5,7.3,0,0.059926
0.5,7.4,0,0.0641377
0.5,7.5,0,0.0619944
0.5,7.6,0,0.0599865
0.5,7.7,0,0.0632643
0.5,7.8,0,0.0601454
0.5,7.9,0,0.0590139
0.5,8,0,0.0612434
0.5,8.1,0,0.0574313
0.5,8.2,0,0.0571077
0.5,8.3,0,0.0583293
0.5,8.4,0,0.0540979
0.5,8.5,0,0.0543234
0.5,8.6,0,0.054425
0.5,8.7,0,0.0504403
0.5,8.8,0,0.050901
0.5,8.9,0,0.0500331
0.5,9,0,0.0468851
0.5,9.1,0,0.0468824
0.5,9.2,0,0.0455371
0.5,9.3,0,0.0433409
0.5,9.4,0,0.0423844
0.5,9.5,0,0.0410884
0.5,9.6,0,0.0393575
0.5,9.7,0,0.0376681
0.5,9.8,0,0.0367668
0.5,9.9,0,0.0350544
0.5,10,0,0.0329844
0.5,10.1,0,0.0326508
0.5,10.2,0,0.0305745
0.5,10.3,0,0.0284082
0.5,10.4,0,0.0287357
0.5,10.5,0,0.0260502
0.5,10.6,0,0.0242471
0.5,10.7,0,0.0250016
0.5,10.8,0,0.0216059
0.5,10.9,0,0.0204299
0.5,11,0,0.0209477
0.5,11.1,0,0.017334
0.5,11.2,0,0.0168504
0.5,11.3,0,0.016768
0.5,11.4,0,0.0134754
0.5,11.5,0,0.0134425
0.5,11.6,0,0.0127508
0.5,11.7,0,0.00999811
0.5,11.8,0,0.0101224
0.5,11.9,0,0.00894722
0.5,12,0,0.0067185
0.5,12.1,0,0.00682367
0.5,12.2,0,0.00541416
0.5,12.3,0,0.00365422
0.5,12.4,0,0.00345866
0.5,12.5,0,0.00213285
0.5,12.6,0,0.000800927
0.5,12.7,0,0.000250103
0.6,0,0,0.00026333
0.6,0.1,0,0.00133328
0.6,0.2,0,0.00282293
0.6,0.3,0,0.0041446
0.6,0.4,0,0.00554971
0.6,0.5,0,0.00717775
0.6,0.6,0,0.00829677
0.6,0.7,0,0.00985458
0.6,0.8,0,0.0112264
0.6,0.9,0,0.0125554
0.6,1,0,0.0143689
0.6,1.1,0,0.0153994
0.6,1.2,0,0.0169643
0.6,1.3,0,0.0184235
0.6,1.4,0,0.0197186
0.6,1.5,0,0.021532
0.6,1.6,0,0.0226754
0.6,1.7,0,0.024157
0.6,1.8,0,0.0257187
0.6,1.9,0,0.0270328
0.6,2,0,0.0285842
0.6,2.1,0,0.0300902
0.6,2.2,0,0.0313675
0.6,2.3,0,0.0330185
0.6,2.4,0,0.0344022
0.6,2.5,0,0.0353474
0.6,2.6,0,0.0374463
0.6,2.7,0,0.038364
0.6,2.8,0,0.0399791
0.6,2.9,0,0.0414536
0.6,3,0,0.0414763
0.6,3.1,0,0.04424
0.6,3.2,0,0.0447263
0.6,3.3,0,0.046163
0.6,3.4,0,0.0477242
0.6,3.5,0,0.0467509
0.6,3.6,0,0.0500973
0.6,3.7,0,0.0501297
0.6,3.8,0,0.0512228
0.6,3.9,0,0.0528033
0.6,4,0,0.0509412
0.6,4.1,0,0.0546045
0.6,4.2,0,0.0542988
0.6,4.3,0,0.0550404
0.6,4.4,0,0.0565621
0.6,4.5,0,0.0540665
0.6,4.6,0,0.0576759
0.6,4.7,0,0.0570944
0.6,4.8,0,0.0572719
0.6,4.9,0,0.0584893
0.6,5,0,0.0556824
0.6,5.1,0,0.0559257
0.6,5.2,0,0.0560734
0.6,5.3,0,0.056191
0.6,5.4,0,0.0562856
0.6,5.5,0,0.0563651
0.6,5.6,0,0.0564387
0.6,5.7,0,0.0565144
0.6,5.8,0,0.0565977
0.6,5.9,0,0.0566896
0.6,6,0,0.0567873
0.6,6.1,0,0.0568856
0.6,6.2,0,0.0569787
0.6,6.3,0,0.057063
0.6,6.4,0,0.0571378
0.6,6.5,0,0.0572064
0.6,6.6,0,0.0572751
0.6,6.7,0,0.0573526
0.6,6.8,0,0.0574476
0.6,6.9,0,0.0575646
0.6,7,0,0.0578286
0.6,7.1,0,0.06118
0.6,7.2,0,0.0611385
0.6,7.3,0,0.0585825
0.6,7.4,0,0.0614125
0.6,7.5,0,0.0606007
0.6,7.6,0,0.0585928
0.6,7.7,0,0.060456
0.6,7.8,0,0.0587951
0.6,7.9,0,0.0576636
0.6,8,0,0.0585969
0.6,8.1,0,0.0561912
0.6,8.2,0,0.0558676
0.6,8.3,0,0.0559778
0.6,8.4,0,0.053036
0.6,8.5,0,0.0532615
0.6,8.6,0,0.0527473
0.6,8.7,0,0.0496122
0.6,8.8,0,0.0499663
0.6,8.9,0,0.049194
0.6,9,0,0.04633
0.6,9.1,0,0.0461557
0.6,9.2,0,0.0452777
0.6,9.3,0,0.0430815
0.6,9.4,0,0.0421498
0.6,9.5,0,0.0411172
0.6,9.6,0,0.0393864
0.6,9.7,0,0.0379882
0.6,9.8,0,0.0370506
0.6,9.9,0,0.0353382
0.6,10,0,0.0337704
0.6,10.1,0,0.0331406
0.6,10.2,0,0.0310643
0.6,10.3,0,0.0295541
0.6,10.4,0,0.0293755
0.6,10.5,0,0.0266899
0.6,10.6,0,0.0253953
0.6,10.7,0,0.0257339
0.6,10.8,0,0.022601
0.6,10.9,0,0.0213379
0.6,11,0,0.0217173
0.6,11.1,0,0.0187066
0.6,11.2,0,0.0176039
0.6,11.3,0,0.0175215
0.6,11.4,0,0.0149336
0.6,11.5,0,0.0141296
0.6,11.6,0,0.0134379
0.6,11.7,0,0.0112743
0.6,11.8,0,0.0106952
0.6,11.9,0,0.00952007
0.6,12,0,0.00772248
0.6,12.1,0,0.00723955
0.6,12.2,0,0.00583005
0.6,12.3,0,0.00427209
0.6,12.4,0,0.00368159
0.6,12.5,0,0.00235634
0.6,12.6,0,0.000879298
0.6,12.7,0,0.000178645
0.7,0,0,0.000157998
0.7,0.1,0,0.00139381
0.7,0.2,0,0.00287842
0.7,0.3,0,0.00421943
0.7,0.4,0,0.00570694
0.7,0.5,0,0.00727877
0.7,0.6,0,0.00853926
0.7,0.7,0,0.0100119
0.7,0.8,0,0.0113948
0.7,0.9,0,0.0128529
0.7,1,0,0.0145243
0.7,1.1,0,0.0157166
0.7,1.2,0,0.0171518
0.7,1.3,0,0.0186065
0.7,1.4,0,0.0200133
0.7,1.5,0,0.0216641
0.7,1.6,0,0.0228981
0.7,1.7,0,0.0242681
0.7,1.8,0,0.0258046
0.7,1.9,0,0.0271295
0.7,2,0,0.0285903
0.7,2.1,0,0.030001
0.7,2.2,0,0.031269
0.7,2.3,0,0.0328706
0.7,2.4,0,0.0340666
0.7,2.5,0,0.0351121
0.7,2.6,0,0.0368157
0.7,2.7,0,0.0379262
0.7,2.8,0,0.0394769
0.7,2.9,0,0.0405006
0.7,3,0,0.0409237
0.7,3.1,0,0.0429582
0.7,3.2,0,0.0438988
0.7,3.3,0,0.045272
0.7,3.4,0,0.0461247
0.7,3.5,0,0.0458818
0.7,3.6,0,0.0481916
0.7,3.7,0,0.0489464
0.7,3.8,0,0.0499955
0.7,3.9,0,0.050677
0.7,4,0,0.0498323
0.7,4.1,0,0.0522747
0.7,4.2,0,0.0528856
0.7,4.3,0,0.0536066
0.7,4.4,0,0.0541296
0.7,4.5,0,0.0528415
0.7,4.6,0,0.0551856
0.7,4.7,0,0.0556319
0.7,4.8,0,0.0558309
0.7,4.9,0,0.0561071
0.7,5,0,0.0545334
0.7,5.1,0,0.0548276
0.7,5.2,0,0.055012
0.7,5.3,0,0.0551605
0.7,5.4,0,0.0552812
0.7,5.5,0,0.055382
0.7,5.6,0,0.055472
0.7,5.7,0,0.0555594
0.7,5.8,0,0.0556494
0.7,5.9,0,0.0557433
0.7,6,0,0.0558386
0.7,6.1,0,0.05593
0.7,6.2,0,0.0560123
0.7,6.3,0,0.0560818
0.7,6.4,0,0.0561378
0.7,6.5,0,0.0561833
0.7,6.6,0,0.0562243
0.7,6.7,0,0.0562687
0.7,6.8,0,0.0563246
0.7,6.9,0,0.056395
0.7,7,0,0.0565813
0.7,7.1,0,0.0585755
0.7,7.2,0,0.058534
0.7,7.3,0,0.057239
0.7,7.4,0,0.0585831
0.7,7.5,0,0.0583632
0.7,7.6,0,0.0571991
0.7,7.7,0,0.0576477
0.7,7.8,0,0.0572402
0.7,7.9,0,0.0563133
0.7,8,0,0.0559504
0.7,8.1,0,0.0549511
0.7,8.2,0,0.0543057
0.7,8.3,0,0.0536263
0.7,8.4,0,0.051974
0.7,8.5,0,0.05157
0.7,8.6,0,0.050831
0.7,8.7,0,0.0487841
0.7,8.8,0,0.0485592
0.7,8.9,0,0.0477869
0.7,9,0,0.045775
0.7,9.1,0,0.0453288
0.7,9.2,0,0.0445156
0.7,9.3,0,0.0428221
0.7,9.4,0,0.0419151
0.7,9.5,0,0.0410305
0.7,9.6,0,0.0394153
0.7,9.7,0,0.0383083
0.7,9.8,0,0.0373344
0.7,9.9,0,0.035622
0.7,10,0,0.0345563
0.7,10.1,0,0.0336303
0.7,10.2,0,0.0318417
0.7,10.3,0,0.0306999
0.7,10.4,0,0.0300152
0.7,10.5,0,0.027995
0.7,10.6,0,0.026786
0.7,10.7,0,0.0264663
0.7,10.8,0,0.0241217
0.7,10.9,0,0.0228585
0.7,11,0,0.0224869
0.7,11.1,0,0.0202485
0.7,11.2,0,0.0189383
0.7,11.3,0,0.018275
0.7,11.4,0,0.0163917
0.7,11.5,0,0.0150398
0.7,11.6,0,0.014125
0.7,11.7,0,0.0125506
0.7,11.8,0,0.0112681
0.7,11.9,0,0.0101534
0.7,12,0,0.00872646
0.7,12.1,0,0.00765544
0.7,12.2,0,0.00638217
0.7,12.3,0,0.00491978
0.7,12.4,0,0.00390451
0.7,12.5,0,0.00259543
0.7,12.6,0,0.00111839
0.7,12.7,0,0.000107187
0.8,0,0,5.26661e-05
0.8,0.1,0,0.00145434
0.8,0.2,0,0.00293895
0.8,0.3,0,0.00437666
0.8,0.4,0,0.00586417
0.8,0.5,0,0.00737979
0.8,0.6,0,0.00878174
0.8,0.7,0,0.0102544
0.8,0.8,0,0.0116923
0.8,0.9,0,0.0131504
0.8,1,0,0.0146796
0.8,1.1,0,0.0160339
0.8,1.2,0,0.017469
0.8,1.3,0,0.0189012
0.8,1.4,0,0.020308
0.8,1.5,0,0.0217961
0.8,1.6,0,0.0231208
0.8,1.7,0,0.0244908
0.8,1.8,0,0.0259012
0.8,1.9,0,0.0272261
0.8,2,0,0.0285963
0.8,2.1,0,0.0299119
0.8,2.2,0,0.0311798
0.8,2.3,0,0.032535
0.8,2.4,0,0.033731
0.8,2.5,0,0.0348768
0.8,2.6,0,0.036185
0.8,2.7,0,0.0372956
0.8,2.8,0,0.0385239
0.8,2.9,0,0.0395476
0.8,3,0,0.0403711
0.8,3.1,0,0.0416764
0.8,3.2,0,0.042617
0.8,3.3,0,0.0436725
0.8,3.4,0,0.0445252
0.8,3.5,0,0.0450126
0.8,3.6,0,0.0462858
0.8,3.7,0,0.0470407
0.8,3.8,0,0.0478692
0.8,3.9,0,0.0485507
0.8,4,0,0.0487235
0.8,4.1,0,0.0499449
0.8,4.2,0,0.0505558
0.8,4.3,0,0.0511741
0.8,4.4,0,0.0516971
0.8,4.5,0,0.0516164
0.8,4.6,0,0.0526953
0.8,4.7,0,0.0531416
0.8,4.8,0,0.0534487
0.8,4.9,0,0.0537249
0.8,5,0,0.0533845
0.8,5.1,0,0.0537295
0.8,5.2,0,0.0539506
0.8,5.3,0,0.0541301
0.8,5.4,0,0.0542768
0.8,5.5,0,0.0543989
0.8,5.6,0,0.0545054
0.8,5.7,0,0.0546043
0.8,5.8,0,0.0547011
0.8,5.9,0,0.054797
0.8,6,0,0.0548898
0.8,6.1,0,0.0549744
0.8,6.2,0,0.0550459
0.8,6.3,0,0.0551006
0.8,6.4,0,0.0551378
0.8,6.5,0,0.0551602
0.8,6.6,0,0.0551734
0.8,6.7,0,0.0551848
0.8,6.8,0,0.0552015
0.8,6.9,0,0.0552254
0.8,7,0,0.055334
0.8,7.1,0,0.055971
0.8,7.2,0,0.0559295
0.8,7.3,0,0.0558955
0.8,7.4,0,0.0557537
0.8,7.5,0,0.0555338
0.8,7.6,0,0.055247
0.8,7.7,0,0.0548395
0.8,7.8,0,0.0544319
0.8,7.9,0,0.0538715
0.8,8,0,0.0533039
0.8,8.1,0,0.0527364
0.8,8.2,0,0.0519542
0.8,8.3,0,0.0512748
0.8,8.4,0,0.0505953
0.8,8.5,0,0.0496536
0.8,8.6,0,0.0489146
0.8,8.7,0,0.0479561
0.8,8.8,0,0.047152
0.8,8.9,0,0.0463797
0.8,9,0,0.0452199
0.8,9.1,0,0.044502
0.8,9.2,0,0.0436887
0.8,9.3,0,0.0425651
0.8,9.4,0,0.0416804
0.8,9.5,0,0.0407958
0.8,9.6,0,0.0396025
0.8,9.7,0,0.0386283
0.8,9.8,0,0.0376542
0.8,9.9,0,0.0364035
0.8,10,0,0.0353423
0.8,10.1,0,0.0342811
0.8,10.2,0,0.0329875
0.8,10.3,0,0.0318457
0.8,10.4,0,0.0307038
0.8,10.5,0,0.0293858
0.8,10.6,0,0.0281767
0.8,10.7,0,0.0271987
0.8,10.8,0,0.0256423
0.8,10.9,0,0.0243791
0.8,11,0,0.0232565
0.8,11.1,0,0.0217905
0.8,11.2,0,0.0204803
0.8,11.3,0,0.0192016
0.8,11.4,0,0.0178498
0.8,11.5,0,0.0164979
0.8,11.6,0,0.0152203
0.8,11.7,0,0.0138268
0.8,11.8,0,0.0124332
0.8,11.9,0,0.0111574
0.8,12,0,0.00973044
0.8,12.1,0,0.00830347
0.8,12.2,0,0.00702985
0.8,12.3,0,0.00556747
0.8,12.4,0,0.00412743
0.8,12.5,0,0.00283453
0.8,12.6,0,0.00135749
0.8,12.7,0,3.57291e-05
0.9,0,0,0
0.9,0.1,0,0.00151047
0.9,0.2,0,0.00299508
0.9,0.3,0,0.00453744
0.9,0.4,0,0.00602495
0.9,0.5,0,0.00746796
0.9,0.6,0,0.00902503
0.9,0.7,0,0.0104977
0.9,0.8,0,0.0119933
0.9,0.9,0,0.0134514
0.9,1,0,0.0148169
0.9,1.1,0,0.0163544
0.9,1.2,0,0.0177895
0.9,1.3,0,0.0192009
0.9,1.4,0,0.0206078
0.9,1.5,0,0.0219197
0.9,1.6,0,0.0233493
0.9,1.7,0,0.0247193
0.9,1.8,0,0.0260054
0.9,1.9,0,0.0273303
0.9,2,0,0.0286266
0.9,2.1,0,0.029832
0.9,2.2,0,0.0311
0.9,2.3,0,0.0322113
0.9,2.4,0,0.0334072
0.9,2.5,0,0.0347361
0.9,2.6,0,0.0355677
0.9,2.7,0,0.0366782
0.9,2.8,0,0.0375833
0.9,2.9,0,0.038607
0.9,3,0,0.0400311
0.9,3.1,0,0.0404067
0.9,3.2,0,0.0413474
0.9,3.3,0,0.0420868
0.9,3.4,0,0.0429395
0.9,3.5,0,0.0444973
0.9,3.6,0,0.0443951
0.9,3.7,0,0.0451499
0.9,3.8,0,0.0457495
0.9,3.9,0,0.046431
0.9,4,0,0.0481044
0.9,4.1,0,0.0476293
0.9,4.2,0,0.0482402
0.9,4.3,0,0.0487532
0.9,4.4,0,0.0492763
0.9,4.5,0,0.0509871
0.9,4.6,0,0.0502159
0.9,4.7,0,0.0506622
0.9,4.8,0,0.0511056
0.9,4.9,0,0.0513818
0.9,5,0,0.052875
0.9,5.1,0,0.0532834
0.9,5.2,0,0.0535431
0.9,5.3,0,0.053756
0.9,5.4,0,0.0539312
0.9,5.5,0,0.0540766
0.9,5.6,0,0.0542011
0.9,5.7,0,0.0543128
0.9,5.8,0,0.0544171
0.9,5.9,0,0.0545154
0.9,6,0,0.0546058
0.9,6.1,0,0.0546837
0.9,6.2,0,0.0547441
0.9,6.3,0,0.0547837
0.9,6.4,0,0.0548016
0.9,6.5,0,0.0548004
0.9,6.6,0,0.0547852
0.9,6.7,0,0.054763
0.9,6.8,0,0.0547405
0.9,6.9,0,0.054719
0.9,7,0,0.054742
0.9,7.1,0,0.0533935
0.9,7.2,0,0.053352
0.9,7.3,0,0.0533196
0.9,7.4,0,0.0529572
0.9,7.5,0,0.0527372
0.9,7.6,0,0.0524687
0.9,7.7,0,0.0520612
0.9,7.8,0,0.0516537
0.9,7.9,0,0.0512487
0.9,8,0,0.0506811
0.9,8.1,0,0.0501136
0.9,8.2,0,0.0496166
0.9,8.3,0,0.0489371
0.9,8.4,0,0.0482577
0.9,8.5,0,0.0477433
0.9,8.6,0,0.0470043
0.9,8.7,0,0.0465853
0.9,8.8,0,0.04575
0.9,8.9,0,0.0449777
0.9,9,0,0.044686
0.9,9.1,0,0.0436838
0.9,9.2,0,0.0428705
0.9,9.3,0,0.0423457
0.9,9.4,0,0.0414611
0.9,9.5,0,0.0405764
0.9,9.6,0,0.0399373
0.9,9.7,0,0.0389632
0.9,9.8,0,0.037989
0.9,9.9,0,0.037204
0.9,10,0,0.0361427
0.9,10.1,0,0.0350815
0.9,10.2,0,0.0341459
0.9,10.3,0,0.0330041
0.9,10.4,0,0.0318622
0.9,10.5,0,0.0307864
0.9,10.6,0,0.0295774
0.9,10.7,0,0.0279764
0.9,10.8,0,0.0271711
0.9,10.9,0,0.025908
0.9,11,0,0.0244025
0.9,11.1,0,0.02334
0.9,11.2,0,0.0220298
0.9,11.3,0,0.0206661
0.9,11.4,0,0.0193143
0.9,11.5,0,0.0179624
0.9,11.6,0,0.0165042
0.9,11.7,0,0.0151106
0.9,11.8,0,0.013717
0.9,11.9,0,0.012165
0.9,12,0,0.010738
0.9,12.1,0,0.00931107
0.9,12.2,0,0.00768579
0.9,12.3,0,0.00622341
0.9,12.4,0,0.00473181
0.9,12.5,0,0.00307029
0.9,12.6,0,0.00159325
0.9,12.7,0,0
1,0,0,0
1,0.1,0,0.00156219
1,0.2,0,0.0030468
1,0.3,0,0.00470177
1,0.4,0,0.00618929
1,0.5,0,0.00754328
1,0.6,0,0.00926914
1,0.7,0,0.0107418
1,0.8,0,0.0122977
1,0.9,0,0.0137559
1,1,0,0.0149361
1,1.1,0,0.0166782
1,1.2,0,0.0181133
1,1.3,0,0.0195057
1,1.4,0,0.0209125
1,1.5,0,0.0220346
1,1.6,0,0.0235836
1,1.7,0,0.0249536
1,1.8,0,0.026117
1,1.9,0,0.0274419
1,2,0,0.0286811
1,2.1,0,0.0297615
1,2.2,0,0.0310294
1,2.3,0,0.0318994
1,2.4,0,0.0330954
1,2.5,0,0.0346899
1,2.6,0,0.0349635
1,2.7,0,0.0360741
1,2.8,0,0.0366549
1,2.9,0,0.0376786
1,3,0,0.0399035
1,3.1,0,0.0391491
1,3.2,0,0.0400898
1,3.3,0,0.0405149
1,3.4,0,0.0413675
1,3.5,0,0.0443358
1,3.6,0,0.0425193
1,3.7,0,0.0432741
1,3.8,0,0.0436363
1,3.9,0,0.0443179
1,4,0,0.0479749
1,4.1,0,0.0453279
1,4.2,0,0.0459388
1,4.3,0,0.046344
1,4.4,0,0.0468671
1,4.5,0,0.0509534
1,4.6,0,0.0477475
1,4.7,0,0.0481938
1,4.8,0,0.0488016
1,4.9,0,0.0490778
1,5,0,0.0530049
1,5.1,0,0.0534892
1,5.2,0,0.0537896
1,5.3,0,0.0540385
1,5.4,0,0.0542445
1,5.5,0,0.0544152
1,5.6,0,0.0545593
1,5.7,0,0.0546849
1,5.8,0,0.0547973
1,5.9,0,0.0548985
1,6,0,0.0549867
1,6.1,0,0.0550577
1,6.2,0,0.055107
1,6.3,0,0.055131
1,6.4,0,0.0551292
1,6.5,0,0.0551038
1,6.6,0,0.0550597
1,6.7,0,0.0550035
1,6.8,0,0.0549416
1,6.9,0,0.0548758
1,7,0,0.0548052
1,7.1,0,0.0508429
1,7.2,0,0.0508014
1,7.3,0,0.0532633
1,7.4,0,0.0501935
1,7.5,0,0.0499736
1,7.6,0,0.0512814
1,7.7,0,0.0493129
1,7.8,0,0.0489054
1,7.9,0,0.0490196
1,8,0,0.0480819
1,8.1,0,0.0482167
1,8.2,0,0.0472929
1,8.3,0,0.0466134
1,8.4,0,0.0474359
1,8.5,0,0.0458391
1,8.6,0,0.0451001
1,8.7,0,0.0462669
1,8.8,0,0.0443531
1,8.9,0,0.0435808
1,9,0,0.044415
1,9.1,0,0.0428742
1,9.2,0,0.0420609
1,9.3,0,0.042152
1,9.4,0,0.0412569
1,9.5,0,0.0403723
1,9.6,0,0.0400876
1,9.7,0,0.0393127
1,9.8,0,0.0383358
1,9.9,0,0.038012
1,10,0,0.0369576
1,10.1,0,0.035588
1,10.2,0,0.0353169
1,10.3,0,0.0341751
1,10.4,0,0.0321821
1,10.5,0,0.032197
1,10.6,0,0.030988
1,10.7,0,0.0282698
1,10.8,0,0.0287082
1,10.9,0,0.027445
1,11,0,0.0247321
1,11.1,0,0.024897
1,11.2,0,0.0235868
1,11.3,0,0.0212816
1,11.4,0,0.0207852
1,11.5,0,0.0194333
1,11.6,0,0.0174961
1,11.7,0,0.016402
1,11.8,0,0.0148471
1,11.9,0,0.0131762
1,12,0,0.0117493
1,12.1,0,0.00983009
1,12.2,0,0.00834999
1,12.3,0,0.0068876
1,12.4,0,0.00484101
1,12.5,0,0.0033027
1,12.6,0,0.00182566
1,12.7,0,0
1.1,0,0,0
1.1,0.1,0,0.00161391
1.1,0.2,0,0.00309043
1.1,0.3,0,0.00476792
1.1,0.4,0,0.00635362
1.1,0.5,0,0.0076186
1.1,0.6,0,0.00951324
1.1,0.7,0,0.0108725
1.1,0.8,0,0.0124405
1.1,0.9,0,0.0140603
1.1,1,0,0.0150553
1.1,1.1,0,0.017002
1.1,1.2,0,0.0182772
1.1,1.3,0,0.0196658
1.1,1.4,0,0.0212173
1.1,1.5,0,0.0221496
1.1,1.6,0,0.0238179
1.1,1.7,0,0.0250738
1.1,1.8,0,0.0262126
1.1,1.9,0,0.0275534
1.1,2,0,0.0287355
1.1,2.1,0,0.0296909
1.1,2.2,0,0.0310199
1.1,2.3,0,0.0318417
1.1,2.4,0,0.0327835
1.1,2.5,0,0.0346437
1.1,2.6,0,0.0343594
1.1,2.7,0,0.0358795
1.1,2.8,0,0.0363955
1.1,2.9,0,0.0367503
1.1,3,0,0.039776
1.1,3.1,0,0.0378916
1.1,3.2,0,0.0397178
1.1,3.3,0,0.04008
1.1,3.4,0,0.0397956
1.1,3.5,0,0.0441743
1.1,3.6,0,0.0406435
1.1,3.7,0,0.042776
1.1,3.8,0,0.0430907
1.1,3.9,0,0.0422048
1.1,4,0,0.0478454
1.1,4.1,0,0.0430265
1.1,4.2,0,0.045406
1.1,4.3,0,0.0457897
1.1,4.4,0,0.0444579
1.1,4.5,0,0.0509198
1.1,4.6,0,0.0452791
1.1,4.7,0,0.0477347
1.1,4.8,0,0.0483754
1.1,4.9,0,0.0467737
1.1,5,0,0.0531348
1.1,5.1,0,0.0536951
1.1,5.2,0,0.0540361
1.1,5.3,0,0.0543209
1.1,5.4,0,0.0545577
1.1,5.5,0,0.0547538
1.1,5.6,0,0.0549176
1.1,5.7,0,0.0550569
1.1,5.8,0,0.0551776
1.1,5.9,0,0.0552816
1.1,6,0,0.0553676
1.1,6.1,0,0.0554318
1.1,6.2,0,0.0554698
1.1,6.3,0,0.0554784
1.1,6.4,0,0.0554568
1.1,6.5,0,0.0554072
1.1,6.6,0,0.0553341
1.1,6.7,0,0.0552439
1.1,6.8,0,0.0551427
1.1,6.9,0,0.0550326
1.1,7,0,0.0548685
1.1,7.1,0,0.0482924
1.1,7.2,0,0.0482508
1.1,7.3,0,0.053207
1.1,7.4,0,0.0474299
1.1,7.5,0,0.0482795
1.1,7.6,0,0.051112
1.1,7.7,0,0.0465647
1.1,7.8,0,0.0483005
1.1,7.9,0,0.0487646
1.1,8,0,0.0454827
1.1,8.1,0,0.0479052
1.1,8.2,0,0.0463989
1.1,8.3,0,0.0442897
1.1,8.4,0,0.0471031
1.1,8.5,0,0.0443484
1.1,8.6,0,0.0431959
1.1,8.7,0,0.0459486
1.1,8.8,0,0.0429562
1.1,8.9,0,0.0421839
1.1,9,0,0.0441441
1.1,9.1,0,0.0420646
1.1,9.2,0,0.0413217
1.1,9.3,0,0.0419594
1.1,9.4,0,0.0410528
1.1,9.5,0,0.0402338
1.1,9.6,0,0.0400004
1.1,9.7,0,0.0396623
1.1,9.8,0,0.0383652
1.1,9.9,0,0.0380414
1.1,10,0,0.0377725
1.1,10.1,0,0.0357269
1.1,10.2,0,0.0359085
1.1,10.3,0,0.0353461
1.1,10.4,0,0.0324111
1.1,10.5,0,0.0334729
1.1,10.6,0,0.0323986
1.1,10.7,0,0.0285633
1.1,10.8,0,0.0302452
1.1,10.9,0,0.0289821
1.1,11,0,0.0250618
1.1,11.1,0,0.0264541
1.1,11.2,0,0.0248228
1.1,11.3,0,0.0216185
1.1,11.4,0,0.0222561
1.1,11.5,0,0.0200837
1.1,11.6,0,0.0178121