/*--------------------------------*- C++ -*----------------------------------*\
| =========                 |                                                 |
| \\      /  F ield         | OpenFOAM: The Open Source CFD Toolbox           |
|  \\    /   O peration     | Version:  v1806                                 |
|   \\  /    A nd           | Web:      www.OpenFOAM.com                      |
|    \\/     M anipulation  |                                                 |
\*---------------------------------------------------------------------------*/
FoamFile
{
    version     2.0;
    format      ascii;
    class       surfaceScalarField;
    location    "1";
    object      phi;
}
// * * * * * * * * * * * * * * * * * * * * * * * * * * * * * * * * * * * * * //

dimensions      [0 3 -1 0 0 0 0];
oriented        oriented;


internalField   nonuniform List<scalar> 
8600
(
0.45181
-0.615084
-0.484421
0.647695
0.375519
-0.590114
0.666405
0.293247
-0.599731
0.682003
0.265841
-0.614559
0.641964
0.260148
-0.616101
0.621795
0.266989
-0.611384
0.604543
0.282115
-0.602842
0.587716
0.301757
-0.59157
0.571928
0.324033
-0.57901
0.556733
0.348023
-0.565004
0.541014
0.374024
-0.551938
0.525937
0.399524
-0.531894
0.506395
0.430238
-0.525936
0.495222
0.454631
-0.486056
0.461663
0.490804
-0.503419
0.467246
0.517066
-0.430881
0.40462
0.55225
-0.465632
0.430447
0.585174
-0.382525
0.349602
0.620053
-0.402126
0.367247
-0.326553
0.290597
0.152251
-0.525297
-0.242039
0.152327
-0.59019
0.183255
-0.630659
0.212784
-0.644088
0.239966
-0.643283
0.264092
-0.63551
0.286699
-0.625448
0.309722
-0.614593
0.333739
-0.603027
0.358843
-0.590108
0.386045
-0.579141
0.411763
-0.557612
0.445155
-0.559328
0.468623
-0.509523
0.508053
-0.542848
0.535825
-0.458654
0.571889
-0.501695
0.608039
-0.418675
0.645447
-0.439534
-0.366516
0.281549
-0.583689
-0.223157
0.310846
-0.619487
0.306457
-0.62627
0.294743
-0.632373
0.287563
-0.636103
0.290592
-0.63854
0.302829
-0.637685
0.321562
-0.633326
0.344214
-0.625679
0.36944
-0.615334
0.397416
-0.607117
0.423168
-0.583364
0.45941
-0.59557
0.481634
-0.531748
0.52399
-0.585204
0.554079
-0.488743
0.590027
-0.537643
0.629366
-0.458014
0.669478
-0.479646
-0.410395
0.129969
-0.590608
-0.12305
0.131359
-0.620877
0.154293
-0.649204
0.190337
-0.668417
0.228749
-0.674515
0.263251
-0.673042
0.293572
-0.668006
0.32179
-0.661544
0.349088
-0.652977
0.377089
-0.643335
0.406734
-0.636762
0.433005
-0.609634
0.472458
-0.635024
0.493118
-0.552407
0.538154
-0.63024
0.571292
-0.521881
0.606195
-0.572546
0.648639
-0.500458
0.691373
-0.522381
-0.458253
0.192588
-0.642037
-0.141159
0.23211
-0.660399
0.25574
-0.672834
0.267869
-0.680546
0.278105
-0.684751
0.291851
-0.686787
0.310119
-0.686274
0.33257
-0.683994
0.357462
-0.677869
0.385362
-0.671235
0.41504
-0.66644
0.441836
-0.63643
0.483675
-0.676863
0.502904
-0.571637
0.549838
-0.677174
0.586615
-0.558658
0.619634
-0.605565
0.665106
-0.54593
0.710305
-0.56758
-0.509879
0.124442
-0.67297
-0.0935089
0.152016
-0.687973
0.178141
-0.698959
0.207272
-0.709677
0.238418
-0.715897
0.269357
-0.717727
0.299298
-0.716215
0.328744
-0.713441
0.357564
-0.706689
0.388234
-0.701905
0.418575
-0.696782
0.447758
-0.665612
0.490167
-0.719272
0.509691
-0.591161
0.557175
-0.724658
0.597575
-0.599058
0.628484
-0.636474
0.677199
-0.594646
0.724557
-0.614938
-0.564839
0.141603
-0.710922
-0.10365
0.172902
-0.719272
0.202917
-0.728974
0.229012
-0.735772
0.252983
-0.739868
0.276885
-0.741629
0.301904
-0.741234
0.328325
-0.739862
0.35607
-0.734434
0.386425
-0.732259
0.415667
-0.726024
0.448597
-0.698542
0.486901
-0.757576
0.510815
-0.615075
0.556235
-0.770078
0.598851
-0.641675
0.628591
-0.666213
0.681216
-0.647272
0.730001
-0.663723
-0.622345
0.114037
-0.744721
-0.0802381
0.146357
-0.751592
0.174215
-0.756832
0.200728
-0.762285
0.227484
-0.766624
0.254694
-0.768839
0.282532
-0.769071
0.310345
-0.767675
0.339666
-0.763755
0.369424
-0.762018
0.398778
-0.755379
0.4354
-0.735163
0.46441
-0.786586
0.500112
-0.650778
0.538886
-0.808851
0.580573
-0.683362
0.611945
-0.697586
0.668677
-0.704004
0.717098
-0.712143
-0.681155
0.10412
-0.773202
-0.0756399
0.130172
-0.777644
0.156596
-0.783256
0.181965
-0.787654
0.206096
-0.790755
0.229722
-0.792465
0.253845
-0.793194
0.27806
-0.791891
0.305218
-0.790913
0.330563
-0.787362
0.360278
-0.785094
0.394713
-0.769598
0.415516
-0.807388
0.465662
-0.700924
0.491798
-0.834988
0.530653
-0.722216
0.566655
-0.733587
0.623925
-0.761274
0.668431
-0.75665
-0.73936
0.0803248
-0.797179
-0.0563479
0.10318
-0.800499
0.12348
-0.803556
0.14263
-0.806804
0.161544
-0.809669
0.180716
-0.811637
0.200389
-0.812868
0.220501
-0.812002
0.242968
-0.81338
0.262826
-0.80722
0.290764
-0.813032
0.316169
-0.795004
0.334613
-0.825832
0.388309
-0.754619
0.399435
-0.846115
0.439037
-0.761818
0.479313
-0.773864
0.527057
-0.809017
0.563198
-0.792791
-0.793685
0.0546911
-0.811904
-0.0399655
0.0685924
-0.8144
0.0824346
-0.817398
0.0957248
-0.820094
0.108371
-0.822316
0.120775
-0.82404
0.133116
-0.825209
0.146501
-0.825388
0.160185
-0.827064
0.174535
-0.82157
0.193436
-0.831933
0.20881
-0.810377
0.225938
-0.84296
0.265341
-0.794022
0.266858
-0.847632
0.305926
-0.800885
0.339839
-0.807777
0.369313
-0.838491
0.396435
-0.819914
-0.837508
0.030234
-0.820585
-0.0215533
0.0383243
-0.82249
0.0452466
-0.824321
0.0513968
-0.826244
0.0571309
-0.82805
0.0627203
-0.82963
0.068236
-0.830724
0.0746474
-0.831799
0.0798298
-0.832246
0.0888905
-0.830631
0.0946089
-0.837652
0.105659
-0.821428
0.113119
-0.85042
0.13116
-0.812063
0.132133
-0.848606
0.158123
-0.826875
0.176011
-0.825665
0.186351
-0.848831
0.204916
-0.838479
-0.860746
0.0165868
-0.825236
-0.0119353
0.0208361
-0.82674
0.0245733
-0.828058
0.0276532
-0.829324
0.0301297
-0.830526
0.0321186
-0.831619
0.0338951
-0.832501
0.0355591
-0.833463
0.0365712
-0.833258
0.040363
-0.834423
0.0383144
-0.835603
0.0473104
-0.830424
0.0410916
-0.844201
0.050624
-0.821596
0.0488507
-0.846832
0.0537897
-0.831814
0.059075
-0.83095
0.0574395
-0.847195
0.0651912
-0.846231
-0.858599
0.0194695
-0.830882
-0.0138241
0.0242975
-0.831568
0.0284329
-0.832193
0.0321233
-0.833015
0.0354463
-0.833849
0.0384268
-0.834599
0.0411857
-0.83526
0.0434167
-0.835694
0.0457738
-0.835615
0.0480354
-0.836684
0.0478591
-0.835427
0.053492
-0.836057
0.0457535
-0.836463
0.0572161
-0.833058
0.0486199
-0.838236
0.0481702
-0.831365
0.0513401
-0.83412
0.0430764
-0.838931
0.0415385
-0.844693
-0.84366
0.0278948
-0.838171
-0.0206054
0.0348761
-0.838549
0.0418485
-0.839166
0.0487033
-0.839869
0.0553369
-0.840483
0.0617298
-0.840992
0.0678777
-0.841408
0.0737432
-0.84156
0.0799023
-0.841774
0.0850143
-0.841796
0.0908162
-0.841229
0.0958801
-0.841121
0.0993409
-0.839923
0.1082
-0.841918
0.105659
-0.835695
0.115158
-0.840864
0.119516
-0.838478
0.116294
-0.835709
0.115135
-0.843533
-0.83828
0.0273498
-0.845851
-0.0196702
0.0352453
-0.846444
0.0430252
-0.846946
0.0505884
-0.847433
0.0579789
-0.847874
0.0652303
-0.848243
0.0723598
-0.848537
0.0795389
-0.848739
0.0867453
-0.848981
0.0938252
-0.848876
0.101588
-0.848992
0.108712
-0.848244
0.118267
-0.849478
0.123665
-0.847315
0.134767
-0.846797
0.144966
-0.851063
0.152041
-0.845552
0.163017
-0.846686
0.169777
-0.850293
-0.848623
0.0163748
-0.851084
-0.011142
0.0214002
-0.85147
0.0261196
-0.851665
0.0305298
-0.851843
0.0347597
-0.852103
0.0388795
-0.852363
0.0429484
-0.852606
0.0470495
-0.85284
0.0511038
-0.853035
0.0554292
-0.853202
0.0595764
-0.853139
0.0650291
-0.853697
0.0694829
-0.853932
0.0745373
-0.85237
0.0843146
-0.856575
0.0858525
-0.852601
0.0949355
-0.854635
0.106885
-0.858635
0.113719
-0.857127
-0.859626
0.00672316
-0.852932
-0.00487517
0.00810567
-0.852852
0.00938933
-0.852949
0.0106021
-0.853056
0.0117025
-0.853204
0.012688
-0.853349
0.0135469
-0.853465
0.0142923
-0.853585
0.0149454
-0.853688
0.0154979
-0.853754
0.016117
-0.853758
0.0167808
-0.854361
0.0163059
-0.853457
0.0189994
-0.855063
0.0172588
-0.854834
0.0173807
-0.852723
0.0206506
-0.857905
0.0188727
-0.856857
0.0174504
-0.855704
-0.858704
0.00437934
-0.853952
-0.00335858
0.00548807
-0.853961
0.00660135
-0.854062
0.00766111
-0.854115
0.00859318
-0.854136
0.00939488
-0.85415
0.0100894
-0.854159
0.0106681
-0.854164
0.0111395
-0.854159
0.0115081
-0.854123
0.0119246
-0.854175
0.0116945
-0.854131
0.0121049
-0.853868
0.0117019
-0.85466
0.00980301
-0.852935
0.0119552
-0.854875
0.00859777
-0.854548
0.00438746
-0.852647
0.00241161
-0.853729
-0.853716
0.00311921
-0.00207155
0.0041581
0.00509616
0.00598079
0.00684489
0.00769443
0.00853501
0.00937129
0.0102119
0.0110889
0.0119144
0.0127837
0.0139161
0.014256
0.0163208
0.0164458
0.0168979
0.0192509
0.0205223
-0.39387
-0.0683133
0.462183
-0.330165
-0.0637046
-0.27498
-0.0551859
-0.223675
-0.0513048
-0.176831
-0.0468434
-0.13287
-0.0439616
-0.0913212
-0.0415485
-0.0515609
-0.0397603
-0.0131195
-0.0384414
0.0246353
-0.0377548
0.0622374
-0.0376021
0.100187
-0.0379498
0.139082
-0.0388946
0.179414
-0.0403323
0.221804
-0.0423894
0.266377
-0.0445739
0.314875
-0.0484971
0.365926
-0.0510513
0.424528
-0.0586019
-0.0598932
-0.138924
-0.0780384
0.148649
-0.129193
-0.073435
-0.113975
-0.0704044
-0.0975602
-0.0677194
-0.0786473
-0.0657563
-0.0584134
-0.0641956
-0.0369212
-0.0630407
-0.0144577
-0.0622237
0.00881529
-0.0617145
0.0325604
-0.0614999
0.0565247
-0.0615664
0.0804838
-0.0619088
0.104122
-0.0625328
0.127238
-0.0634484
0.149504
-0.0646552
0.171167
-0.0662369
0.190758
-0.0680881
0.210285
-0.070578
0.224946
-0.0732635
-0.0769855
-0.159602
-0.0926785
0.174243
-0.141948
-0.0910893
-0.123002
-0.0893506
-0.10291
-0.0878111
-0.0822732
-0.0863933
-0.0612753
-0.0851935
-0.0401017
-0.0842143
-0.0188533
-0.0834721
0.00240715
-0.0829749
0.0236357
-0.0827285
0.0448064
-0.0827371
0.0659002
-0.0830026
0.0868917
-0.0835243
0.107742
-0.0842991
0.128412
-0.085325
0.14876
-0.0865851
0.168766
-0.0880942
0.187994
-0.0898058
0.206406
-0.0916754
-0.0937367
-0.0580948
-0.0993605
0.0647768
-0.0509577
-0.0982264
-0.0430477
-0.0972606
-0.0344394
-0.0964193
-0.0251083
-0.0957244
-0.0151387
-0.0951631
-0.00462044
-0.0947326
0.00633553
-0.0944281
0.0176053
-0.0942447
0.029055
-0.0941782
0.0405428
-0.094225
0.0519229
-0.0943826
0.0630485
-0.0946499
0.0737761
-0.0950267
0.0839647
-0.0955136
0.0934938
-0.0961142
0.102226
-0.0968263
0.11008
-0.0976596
0.117014
-0.0986101
-0.0997726
-0.0852433
-0.109286
0.0951688
-0.0745911
-0.108879
-0.063404
-0.108448
-0.0517911
-0.108032
-0.0398694
-0.107646
-0.0277244
-0.107308
-0.0154268
-0.10703
-0.00303219
-0.106823
0.00941568
-0.106693
0.0218831
-0.106646
0.0343427
-0.106685
0.0467713
-0.106811
0.0591462
-0.107025
0.0714426
-0.107323
0.0836311
-0.107702
0.0956719
-0.108155
0.10752
-0.108675
0.11911
-0.109249
0.130349
-0.10985
-0.110582
-0.0388402
-0.116019
0.0455735
-0.0321137
-0.115605
-0.0253151
-0.115246
-0.018408
-0.114939
-0.0113699
-0.114684
-0.00419786
-0.11448
0.00309692
-0.114325
0.0104923
-0.114218
0.0179575
-0.114158
0.0254548
-0.114143
0.0329424
-0.114172
0.040376
-0.114245
0.0477114
-0.11436
0.0549059
-0.114518
0.0619216
-0.114718
0.0687271
-0.114961
0.0752991
-0.115247
0.0816268
-0.115577
0.0877326
-0.115955
-0.116359
-0.0534984
-0.123301
0.0607805
-0.0459034
-0.1232
-0.0380561
-0.123094
-0.0300058
-0.12299
-0.0217962
-0.122894
-0.0134643
-0.122812
-0.00504157
-0.122748
0.00344563
-0.122705
0.0119751
-0.122687
0.0205281
-0.122696
0.0290883
-0.122732
0.0376407
-0.122797
0.0461711
-0.12289
0.0546641
-0.123011
0.0631027
-0.123156
0.0714666
-0.123325
0.0797319
-0.123512
0.0878687
-0.123714
0.0958377
-0.123924
-0.124171
-0.0332893
-0.129531
0.0395185
-0.0271362
-0.129353
-0.0210299
-0.1292
-0.0149494
-0.12907
-0.00888009
-0.128963
-0.0028129
-0.128879
0.00325614
-0.128817
0.00932702
-0.128776
0.0153962
-0.128756
0.0214576
-0.128757
0.0275036
-0.128778
0.0335259
-0.12882
0.039516
-0.128881
0.0454666
-0.128961
0.0513721
-0.129062
0.05723
-0.129182
0.0630415
-0.129323
0.0688127
-0.129485
0.0745557
-0.129667
-0.129853
-0.034969
-0.134888
0.0403266
-0.0294718
-0.13485
-0.0238568
-0.134815
-0.0181441
-0.134783
-0.0123516
-0.134756
-0.00649549
-0.134735
-0.000590097
-0.134722
0.00535147
-0.134718
0.0113178
-0.134723
0.0172984
-0.134738
0.0232834
-0.134763
0.0292633
-0.134799
0.0352286
-0.134846
0.0411698
-0.134902
0.0470761
-0.134968
0.0529359
-0.135042
0.0587358
-0.135123
0.0644602
-0.135209
0.0700913
-0.135298
-0.135402
-0.0232227
-0.139245
0.0275795
-0.0189037
-0.139169
-0.0146146
-0.139104
-0.010349
-0.139048
-0.00610163
-0.139003
-0.00186874
-0.138968
0.00235225
-0.138943
0.00656298
-0.138928
0.0107639
-0.138924
0.0149551
-0.138929
0.0191361
-0.138944
0.0233063
-0.13897
0.0274652
-0.139005
0.0316129
-0.13905
0.03575
-0.139105
0.0398782
-0.13917
0.0440004
-0.139245
0.0481206
-0.13933
0.0522442
-0.139422
-0.139506
-0.0167612
-0.142038
0.0195545
-0.0139139
-0.142017
-0.011019
-0.141999
-0.0080833
-0.141984
-0.0051132
-0.141973
-0.00211491
-0.141966
0.000905743
-0.141964
0.00394321
-0.141966
0.00699226
-0.141973
0.0100479
-0.141985
0.0131054
-0.142002
0.0161603
-0.142024
0.019208
-0.142053
0.0222441
-0.142086
0.0252643
-0.142125
0.0282638
-0.14217
0.0312379
-0.14222
0.0341815
-0.142273
0.0370888
-0.142329
-0.142382
-0.00816907
-0.143678
0.00980903
-0.00653833
-0.143648
-0.00491637
-0.143621
-0.00330263
-0.143598
-0.00169661
-0.143579
-9.79496e-05
-0.143565
0.00149354
-0.143555
0.00307784
-0.14355
0.00465485
-0.14355
0.00622437
-0.143554
0.00778619
-0.143564
0.00934013
-0.143578
0.0108862
-0.143599
0.0124246
-0.143625
0.0139559
-0.143657
0.0154811
-0.143695
0.0170017
-0.14374
0.0185201
-0.143792
0.0200401
-0.143849
-0.143896
-0.00443749
-0.144526
0.00528498
-0.00357189
-0.144513
-0.00269038
-0.144502
-0.00179549
-0.144493
-0.000889904
-0.144485
2.35736e-05
-0.144479
0.00094201
-0.144474
0.0018625
-0.144471
0.00278202
-0.144469
0.0036975
-0.14447
0.00460575
-0.144472
0.00550351
-0.144476
0.0063874
-0.144483
0.00725394
-0.144491
0.00809954
-0.144502
0.00892052
-0.144516
0.00971331
-0.144533
0.0104749
-0.144553
0.0112027
-0.144577
-0.144628
-0.00490196
-0.14554
0.00591646
-0.00388705
-0.145528
-0.00287224
-0.145517
-0.00185791
-0.145507
-0.000844413
-0.145498
0.000167912
-0.145491
0.00117871
-0.145485
0.00218751
-0.14548
0.00319379
-0.145476
0.00419695
-0.145473
0.00519624
-0.145471
0.00619079
-0.145471
0.00717959
-0.145471
0.00816147
-0.145473
0.00913508
-0.145476
0.0100991
-0.14548
0.0110521
-0.145486
0.0119933
-0.145494
0.0129213
-0.145505
-0.145531
-0.00762592
-0.146959
0.0090447
-0.00620059
-0.146953
-0.00476856
-0.146949
-0.00332979
-0.146946
-0.00188429
-0.146944
-0.000432085
-0.146943
0.00102682
-0.146943
0.00249242
-0.146945
0.00396476
-0.146948
0.00544392
-0.146952
0.00693002
-0.146957
0.00842325
-0.146964
0.0099238
-0.146972
0.0114319
-0.146981
0.0129479
-0.146992
0.0144722
-0.147004
0.0160053
-0.147019
0.0175466
-0.147036
0.0190947
-0.147053
-0.147042
-0.00796946
-0.148403
0.00941356
-0.00652404
-0.148399
-0.00507767
-0.148395
-0.00363061
-0.148393
-0.0021831
-0.148391
-0.000735302
-0.148391
0.000712671
-0.148391
0.00216079
-0.148393
0.0036091
-0.148396
0.00505776
-0.148401
0.00650701
-0.148407
0.00795721
-0.148414
0.00940885
-0.148423
0.0108625
-0.148435
0.0123189
-0.148448
0.0137787
-0.148464
0.0152423
-0.148483
0.01671
-0.148503
0.0181832
-0.148526
-0.148529
-0.00467713
-0.149276
0.00555043
-0.00380206
-0.149274
-0.00292586
-0.149272
-0.00204922
-0.14927
-0.00117289
-0.149268
-0.000297708
-0.149266
0.000575394
-0.149265
0.0014454
-0.149263
0.00231119
-0.149262
0.00317152
-0.149261
0.00402501
-0.14926
0.00487014
-0.149259
0.00570522
-0.149259
0.00652841
-0.149258
0.00733754
-0.149257
0.00813011
-0.149257
0.00890348
-0.149256
0.00965589
-0.149256
0.010386
-0.149257
-0.149285
-0.00154338
-0.14961
0.00187694
-0.00120821
-0.149609
-0.000871423
-0.149608
-0.000533023
-0.149608
-0.000193028
-0.149608
0.000148527
-0.149608
0.000491581
-0.149608
0.000836021
-0.149608
0.00118168
-0.149608
0.00152833
-0.149608
0.00187561
-0.149607
0.00222308
-0.149607
0.00257013
-0.149606
0.00291598
-0.149604
0.00325962
-0.149601
0.00359988
-0.149597
0.00393566
-0.149592
0.00426546
-0.149586
0.00458665
-0.149578
-0.149573
-0.00120476
-0.149832
0.00142677
-0.000981919
-0.149832
-0.000758282
-0.149832
-0.000533879
-0.149832
-0.00030871
-0.149833
-8.2733e-05
-0.149834
0.000144148
-0.149834
0.000372088
-0.149836
0.000601321
-0.149837
0.000832173
-0.149839
0.00106507
-0.14984
0.00130057
-0.149842
0.00153932
-0.149844
0.00178212
-0.149847
0.00202993
-0.149849
0.0022839
-0.149851
0.00254496
-0.149853
0.00281331
-0.149854
0.00308927
-0.149854
-0.149843
-0.000943638
0.0011117
-0.000775535
-0.000607561
-0.000439906
-0.00027276
-0.000106323
5.91965e-05
0.000223586
0.00038663
0.000548112
0.00070782
0.000865563
0.00102118
0.00117458
0.00132575
0.00147474
0.0016218
0.00176779
0.00191409
-0.20924
-0.105963
0.106513
0.20869
-0.21167
-0.105294
0.107724
-0.216057
-0.104504
0.108892
-0.222822
-0.103332
0.110097
-0.232248
-0.101771
0.111197
-0.244511
-0.0999481
0.112211
-0.259821
-0.0981145
0.113424
-0.27851
-0.0965406
0.11523
-0.30091
-0.0953854
0.117785
-0.327044
-0.0947203
0.120854
-0.356369
-0.0946744
0.123999
-0.387696
-0.0954419
0.126768
-0.419207
-0.0970992
0.12861
-0.448582
-0.0994563
0.128832
-0.473291
-0.102014
0.126723
-0.490704
-0.104177
0.12159
-0.499123
-0.104344
0.112763
-0.498077
-0.100689
0.0996431
-0.486754
-0.0928059
0.0814829
-0.079846
0.0552753
-0.173318
-0.110689
0.178044
-0.167619
-0.110993
-0.161094
-0.111029
-0.153483
-0.110943
-0.144586
-0.110669
-0.134412
-0.110122
-0.123322
-0.109204
-0.112037
-0.107826
-0.101488
-0.105935
-0.0926505
-0.103558
-0.0865033
-0.100822
-0.084011
-0.0979343
-0.0861876
-0.0949226
-0.0931449
-0.0924991
-0.104019
-0.0911403
-0.117763
-0.0904327
-0.132312
-0.0897949
-0.144469
-0.0885324
-0.151182
-0.0860932
-0.0823789
-0.257102
-0.107569
0.253981
-0.260879
-0.107217
-0.26481
-0.107097
-0.268663
-0.107091
-0.272167
-0.107164
-0.275008
-0.107281
-0.276792
-0.10742
-0.27705
-0.107568
-0.27529
-0.107694
-0.271119
-0.107729
-0.264486
-0.107454
-0.255658
-0.106762
-0.244956
-0.105625
-0.233368
-0.104087
-0.222248
-0.10226
-0.212357
-0.100324
-0.203672
-0.0984797
-0.195344
-0.0968609
-0.185982
-0.0954545
-0.0941187
-0.133264
-0.115405
0.141101
-0.125361
-0.11512
-0.117831
-0.114628
-0.110966
-0.113956
-0.105032
-0.113098
-0.100251
-0.112062
-0.0967976
-0.110873
-0.0947153
-0.10965
-0.0939267
-0.108483
-0.0942201
-0.107435
-0.0951149
-0.106559
-0.0959967
-0.10588
-0.0962361
-0.105386
-0.0953019
-0.105021
-0.0928666
-0.104696
-0.0888942
-0.104296
-0.0836577
-0.103716
-0.0776282
-0.10289
-0.0712591
-0.101824
-0.100601
-0.214981
-0.117808
0.217383
-0.212534
-0.117566
-0.209791
-0.11737
-0.206576
-0.117171
-0.202712
-0.116962
-0.19804
-0.116734
-0.192453
-0.11646
-0.185988
-0.116115
-0.178788
-0.115682
-0.171076
-0.115148
-0.163123
-0.114513
-0.155206
-0.113797
-0.147553
-0.113038
-0.140283
-0.112292
-0.133364
-0.111615
-0.12661
-0.11105
-0.119719
-0.110607
-0.112348
-0.110261
-0.104213
-0.109959
-0.109645
-0.154286
-0.122558
0.159036
-0.149578
-0.122274
-0.144989
-0.121959
-0.140522
-0.121638
-0.136157
-0.121327
-0.131856
-0.121036
-0.127539
-0.120776
-0.123107
-0.120547
-0.118445
-0.120344
-0.113441
-0.120152
-0.107998
-0.119956
-0.102057
-0.119739
-0.0956072
-0.119488
-0.0887052
-0.119194
-0.0814713
-0.118849
-0.0740726
-0.118448
-0.0666845
-0.117996
-0.0594439
-0.117502
-0.0524139
-0.116989
-0.116486
-0.170148
-0.128206
0.175797
-0.164377
-0.128046
-0.158457
-0.127879
-0.152411
-0.127684
-0.146282
-0.127455
-0.140133
-0.127186
-0.134036
-0.126872
-0.128068
-0.126516
-0.12229
-0.126122
-0.116739
-0.125703
-0.111417
-0.125278
-0.106286
-0.12487
-0.101273
-0.124501
-0.0962767
-0.12419
-0.0911795
-0.123946
-0.0858613
-0.123767
-0.0802164
-0.123641
-0.0741691
-0.123549
-0.0676865
-0.123471
-0.123392
-0.148468
-0.132506
0.152768
-0.144177
-0.132337
-0.139886
-0.13217
-0.135558
-0.132013
-0.131141
-0.131872
-0.126576
-0.131751
-0.121795
-0.131653
-0.116736
-0.131575
-0.111348
-0.13151
-0.105602
-0.131449
-0.099498
-0.131381
-0.0930729
-0.131295
-0.0863933
-0.131181
-0.0795489
-0.131034
-0.0726392
-0.130856
-0.0657572
-0.130649
-0.058976
-0.130422
-0.0523391
-0.130186
-0.0458581
-0.129952
-0.129731
-0.131761
-0.137523
0.136778
-0.126681
-0.137417
-0.121545
-0.137306
-0.116375
-0.137182
-0.111203
-0.137044
-0.106065
-0.136889
-0.101002
-0.136717
-0.0960478
-0.136528
-0.0912307
-0.136327
-0.0865617
-0.136118
-0.0820325
-0.135911
-0.0776148
-0.135712
-0.0732631
-0.135533
-0.0689201
-0.135377
-0.0645253
-0.13525
-0.0600231
-0.135151
-0.05537
-0.135075
-0.0505394
-0.135016
-0.0455225
-0.134969
-0.134927
-0.104021
-0.140832
0.107329
-0.100703
-0.140734
-0.0973725
-0.140637
-0.0940122
-0.140542
-0.0906022
-0.140454
-0.0871189
-0.140372
-0.0835368
-0.140299
-0.0798313
-0.140234
-0.0759826
-0.140176
-0.0719791
-0.140122
-0.0678202
-0.140069
-0.0635184
-0.140014
-0.0590983
-0.139953
-0.0545934
-0.139882
-0.0500416
-0.139802
-0.0454794
-0.139713
-0.0409369
-0.139617
-0.0364344
-0.139519
-0.0319817
-0.139422
-0.13933
-0.0689439
-0.143465
0.0715767
-0.0662859
-0.143392
-0.0636096
-0.143313
-0.0609205
-0.143232
-0.0582263
-0.143148
-0.0555368
-0.143062
-0.0528629
-0.142973
-0.0502158
-0.142881
-0.0476047
-0.142787
-0.0450353
-0.142691
-0.0425078
-0.142597
-0.0400164
-0.142506
-0.0375492
-0.14242
-0.0350893
-0.142342
-0.0326174
-0.142274
-0.0301148
-0.142216
-0.0275654
-0.142167
-0.0249583
-0.142126
-0.022288
-0.142092
-0.142063
-0.0368762
-0.144578
0.0379895
-0.0357545
-0.144514
-0.0346208
-0.144447
-0.0334698
-0.144383
-0.0322956
-0.144322
-0.031091
-0.144266
-0.0298489
-0.144215
-0.0285619
-0.144168
-0.0272239
-0.144125
-0.0258303
-0.144085
-0.0243794
-0.144048
-0.0228729
-0.144012
-0.0213161
-0.143977
-0.0197173
-0.143941
-0.0180871
-0.143904
-0.0164366
-0.143866
-0.0147765
-0.143827
-0.013115
-0.143788
-0.0114581
-0.143749
-0.143712
-0.0188519
-0.145139
0.0194122
-0.0182793
-0.145087
-0.0176764
-0.14505
-0.017045
-0.145014
-0.0163886
-0.144979
-0.015711
-0.144944
-0.0150166
-0.144909
-0.0143096
-0.144875
-0.0135942
-0.14484
-0.0128737
-0.144805
-0.0121507
-0.144771
-0.0114259
-0.144737
-0.0106986
-0.144704
-0.0099666
-0.144673
-0.0092265
-0.144644
-0.00847433
-0.144618
-0.00770636
-0.144595
-0.0069197
-0.144574
-0.00611267
-0.144556
-0.14454
-0.0229349
-0.145839
0.0236346
-0.0222104
-0.145811
-0.0214648
-0.145795
-0.0206987
-0.14578
-0.0199122
-0.145765
-0.0191054
-0.145751
-0.0182784
-0.145736
-0.0174312
-0.145722
-0.0165633
-0.145708
-0.0156747
-0.145694
-0.0147653
-0.14568
-0.0138357
-0.145666
-0.0128871
-0.145653
-0.0119214
-0.145639
-0.010941
-0.145625
-0.00994889
-0.14561
-0.00894793
-0.145596
-0.00794083
-0.145581
-0.00692978
-0.145567
-0.145553
-0.0358716
-0.147258
0.0372912
-0.0344229
-0.14726
-0.0329805
-0.147238
-0.0315448
-0.147216
-0.0301154
-0.147195
-0.0286916
-0.147175
-0.0272728
-0.147155
-0.0258587
-0.147136
-0.024449
-0.147118
-0.0230436
-0.147099
-0.021642
-0.147082
-0.0202436
-0.147065
-0.0188478
-0.147049
-0.0174534
-0.147033
-0.0160592
-0.147019
-0.0146638
-0.147006
-0.0132659
-0.146994
-0.011864
-0.146983
-0.0104572
-0.146974
-0.146966
-0.0362103
-0.148667
0.037619
-0.0348123
-0.148658
-0.0334184
-0.148632
-0.032027
-0.148607
-0.0306372
-0.148584
-0.0292479
-0.148564
-0.0278577
-0.148545
-0.0264654
-0.148529
-0.0250699
-0.148513
-0.0236704
-0.148499
-0.0222663
-0.148486
-0.0208569
-0.148474
-0.0194422
-0.148463
-0.0180222
-0.148453
-0.016597
-0.148444
-0.0151672
-0.148435
-0.0137334
-0.148428
-0.012296
-0.14842
-0.0108559
-0.148414
-0.148408
-0.0209232
-0.149372
0.0216287
-0.0202343
-0.149347
-0.0195233
-0.149342
-0.0187915
-0.149339
-0.0180406
-0.149335
-0.0172729
-0.149332
-0.0164904
-0.149328
-0.015695
-0.149324
-0.0148881
-0.14932
-0.014071
-0.149316
-0.013245
-0.149312
-0.0124113
-0.149308
-0.0115707
-0.149304
-0.010724
-0.1493
-0.00987204
-0.149296
-0.00901529
-0.149292
-0.0081543
-0.149289
-0.00728951
-0.149285
-0.00642139
-0.149282
-0.149279
-0.00777559
-0.14961
0.00801363
-0.00750796
-0.149615
-0.00722982
-0.149621
-0.00694371
-0.149625
-0.00665082
-0.149628
-0.00635218
-0.14963
-0.00604887
-0.149631
-0.00574175
-0.149631
-0.00543142
-0.14963
-0.00511835
-0.149629
-0.00480284
-0.149627
-0.00448513
-0.149626
-0.00416538
-0.149624
-0.0038437
-0.149622
-0.00352019
-0.149619
-0.0031949
-0.149617
-0.00286789
-0.149616
-0.00253921
-0.149614
-0.00220889
-0.149612
-0.149611
-0.00564828
-0.14985
0.00588765
-0.00540222
-0.149861
-0.005162
-0.149861
-0.00492747
-0.149859
-0.00469843
-0.149857
-0.00447392
-0.149855
-0.00425281
-0.149852
-0.00403418
-0.14985
-0.00381729
-0.149847
-0.00360149
-0.149845
-0.00338623
-0.149843
-0.00317106
-0.149841
-0.00295566
-0.149839
-0.00273974
-0.149837
-0.00252314
-0.149836
-0.00230571
-0.149835
-0.00208737
-0.149834
-0.0018681
-0.149833
-0.00164789
-0.149833
-0.149832
-0.0040617
0.00421191
-0.0039223
-0.00378312
-0.0036426
-0.00349987
-0.00335468
-0.00320696
-0.00305668
-0.00290392
-0.00274883
-0.00259158
-0.00243236
-0.00227137
-0.00210881
-0.0019449
-0.00177982
-0.00161377
-0.00144694
-0.00127952
-0.22048
-0.0234071
0.243887
-0.198142
-0.0223373
-0.178452
-0.0196903
-0.160445
-0.0180065
-0.143978
-0.016467
-0.128772
-0.0152066
-0.114625
-0.0141472
-0.101366
-0.0132591
-0.0888536
-0.0125119
-0.0769758
-0.0118778
-0.0656477
-0.0113281
-0.0548184
-0.0108293
-0.0444808
-0.0103376
-0.0346833
-0.00979751
-0.0255442
-0.00913912
-0.0172786
-0.00826557
-0.0102015
-0.00707708
-0.00470522
-0.0054963
-0.00119849
-0.00350673
-0.00119849
-0.142693
-0.0299509
0.149237
-0.136688
-0.0283427
-0.12948
-0.0268985
-0.121837
-0.0256488
-0.113738
-0.0245665
-0.105319
-0.0236259
-0.0966578
-0.022808
-0.0878211
-0.0220958
-0.0788605
-0.0214725
-0.0698194
-0.0209189
-0.0607391
-0.0204085
-0.0516671
-0.0199012
-0.0426697
-0.019335
-0.033852
-0.0186153
-0.0253841
-0.017607
-0.0175146
-0.016135
-0.0105877
-0.014004
-0.00503811
-0.0110459
-0.00135215
-0.00719268
-0.00255064
-0.122693
-0.03462
0.127362
-0.117236
-0.0337998
-0.111148
-0.0329863
-0.104591
-0.0322061
-0.0976887
-0.0314687
-0.0905331
-0.0307814
-0.0831933
-0.0301478
-0.0757211
-0.0295679
-0.0681562
-0.0290375
-0.0605294
-0.0285457
-0.0528681
-0.0280698
-0.0452019
-0.0275674
-0.0375732
-0.0269637
-0.0300529
-0.0261357
-0.0227618
-0.0248981
-0.0158968
-0.023
-0.00975279
-0.020148
-0.00472884
-0.0160699
-0.0013064
-0.0106151
-0.00385704
-0.0938506
-0.0383053
0.0975359
-0.0898926
-0.0377578
-0.0856466
-0.0372323
-0.0811199
-0.0367328
-0.0763266
-0.036262
-0.0712868
-0.0358212
-0.0660236
-0.035411
-0.0605616
-0.0350299
-0.0549255
-0.0346736
-0.04914
-0.0343311
-0.0432306
-0.0339792
-0.0372264
-0.0335716
-0.0311665
-0.0330236
-0.025112
-0.0321901
-0.0191647
-0.0308454
-0.0134908
-0.0286739
-0.00834439
-0.0252944
-0.00407895
-0.0203353
-0.00113536
-0.0135587
-0.0049924
-0.0847877
-0.0419166
0.088399
-0.0809193
-0.0416262
-0.0768143
-0.0413373
-0.0724968
-0.0410503
-0.0679901
-0.0407688
-0.0633156
-0.0404957
-0.0584934
-0.0402332
-0.0535419
-0.0399814
-0.0484784
-0.0397372
-0.0433191
-0.0394904
-0.0380807
-0.0392175
-0.0327831
-0.0388692
-0.0274547
-0.038352
-0.0221428
-0.037502
-0.0169295
-0.0360587
-0.0119526
-0.0336507
-0.00742744
-0.0298196
-0.00365873
-0.024104
-0.00103414
-0.0161833
-0.00602654
-0.0766141
-0.0456806
0.0803781
-0.0727445
-0.0454958
-0.0687712
-0.0453106
-0.0646938
-0.0451277
-0.060514
-0.0449485
-0.0562357
-0.0447741
-0.0518639
-0.0446049
-0.0474052
-0.0444401
-0.0428671
-0.0442753
-0.0382584
-0.0440992
-0.0335899
-0.043886
-0.0288772
-0.043582
-0.0241448
-0.0430844
-0.0194353
-0.0422115
-0.0148231
-0.0406709
-0.0104324
-0.0380415
-0.00645468
-0.0337973
-0.00315843
-0.0274003
-0.000881159
-0.0184606
-0.00690769
-0.0725745
-0.0494547
0.0763485
-0.0687178
-0.0493525
-0.0647797
-0.0492487
-0.0607645
-0.049143
-0.0566766
-0.0490364
-0.0525209
-0.0489298
-0.0483026
-0.0488233
-0.0440271
-0.0487155
-0.0397005
-0.0486019
-0.0353299
-0.0484699
-0.0309243
-0.0482915
-0.0264978
-0.0480085
-0.0220738
-0.0475083
-0.0176938
-0.0465915
-0.0134295
-0.0449353
-0.0093981
-0.0420729
-0.00577628
-0.0374191
-0.00280445
-0.0303721
-0.000774488
-0.0204905
-0.00768218
-0.0700714
-0.0533556
0.0739723
-0.0661244
-0.0532995
-0.0621336
-0.0532395
-0.0581007
-0.0531758
-0.0540281
-0.0531091
-0.0499181
-0.0530397
-0.0457737
-0.0529676
-0.0415982
-0.0528911
-0.0373955
-0.0528046
-0.0331708
-0.0526945
-0.028932
-0.0525303
-0.0246921
-0.0522483
-0.0204746
-0.0517258
-0.0163212
-0.0507449
-0.0123036
-0.0489529
-0.00853672
-0.0458398
-0.00518879
-0.040767
-0.00248082
-0.0330801
-0.000667674
-0.0223037
-0.00834986
-0.068806
-0.0573807
0.0728311
-0.0647531
-0.0573523
-0.0606746
-0.0573179
-0.0565735
-0.057277
-0.0524527
-0.0572299
-0.0483154
-0.057177
-0.0441649
-0.0571181
-0.0400048
-0.0570512
-0.035839
-0.0569703
-0.0316728
-0.0568608
-0.0275139
-0.0566892
-0.0233756
-0.0563866
-0.0192817
-0.0558198
-0.0152745
-0.0547521
-0.0114262
-0.0528012
-0.00785071
-0.0494153
-0.00471078
-0.043907
-0.0022123
-0.0355786
-0.000577773
-0.0239382
-0.00892763
-0.0681965
-0.0615979
0.0724137
-0.0639673
-0.0615815
-0.0597305
-0.0615547
-0.0554907
-0.0615168
-0.0512526
-0.061468
-0.0470211
-0.0614085
-0.0428013
-0.0613379
-0.0385985
-0.061254
-0.0344185
-0.0611504
-0.0302677
-0.0610115
-0.0261551
-0.0608018
-0.0220944
-0.0604473
-0.0181089
-0.0598052
-0.0142396
-0.0586214
-0.010556
-0.0564848
-0.00716802
-0.0528033
-0.00423187
-0.0468431
-0.0019395
-0.0378709
-0.000483833
-0.0253939
-0.00941146
-0.0678809
-0.0660925
0.0723755
-0.0633842
-0.0660782
-0.0588932
-0.0660457
-0.0544162
-0.0659938
-0.0499626
-0.0659217
-0.0455422
-0.0658289
-0.0411658
-0.0657143
-0.0368448
-0.065575
-0.0325912
-0.065404
-0.0284177
-0.065185
-0.0243381
-0.0648814
-0.0203689
-0.0644165
-0.0165325
-0.0636417
-0.0128637
-0.0622901
-0.00942099
-0.0599275
-0.00629916
-0.0559251
-0.00363753
-0.0495048
-0.00160807
-0.0399004
-0.000371287
-0.0266307
-0.00978275
-0.0676013
-0.0710169
0.0725258
-0.0626728
-0.0710067
-0.0577535
-0.070965
-0.0528591
-0.0708882
-0.0480075
-0.0707733
-0.0432196
-0.0706168
-0.0385191
-0.0704147
-0.0339326
-0.0701615
-0.0294889
-0.0698477
-0.0252181