x,y,z,U_0,U_1,U_2
0,0,0,0.3,-0.0014187,0
0,0.1,0,0.3,-0.00085122,0
0,0.2,0,0.3,-0.00028374,0
0,0.3,0,0.3,0,0
0,0.4,0,0.3,0,0
0,0.5,0,0.3,0,0
0,0.6,0,0.3,0,0
0,0.7,0,0.3,0,0
0,0.8,0,0.3,0,0
0,0.9,0,0.3,0,0
0,1,0,0.3,0,0
0,1.1,0,0.3,0,0
0,1.2,0,0.3,0,0
0,1.3,0,0.3,0,0
0,1.4,0,0.3,0,0
0,1.5,0,0.3,0,0
0,1.6,0,0.3,0,0
0,1.7,0,0.3,0,0
0,1.8,0,0.3,0,0
0,1.9,0,0.3,0,0
0,2,0,0.3,0,0
0,2.1,0,0.3,0,0
0,2.2,0,0.3,0,0
0,2.3,0,0.3,0,0
0,2.4,0,0.3,0,0
0,2.5,0,0.3,0,0
0,2.6,0,0.3,0,0
0,2.7,0,0.3,0,0
0,2.8,0,0.3,0,0
0,2.9,0,0.3,0,0
0,3,0,0.3,0,0
0,3.1,0,0.3,0,0
0,3.2,0,0.3,0,0
0,3.3,0,0.3,0,0
0,3.4,0,0.3,0,0
0,3.5,0,0.3,0,0
0,3.6,0,0.3,0,0
0,3.7,0,0.3,0,0
0,3.8,0,0.3,0,0
0,3.9,0,0.3,0,0
0,4,0,0.3,0,0
0,4.1,0,0.3,0,0
0,4.2,0,0.3,0,0
0,4.3,0,0.3,0,0
0,4.4,0,0.3,0,0
0,4.5,0,0.3,0,0
0,4.6,0,0.3,0,0
0,4.7,0,0.3,0,0
0,4.8,0,0.3,0,0
0,4.9,0,0.3,0,0
0,5,0,0.3,0,0
0,5.1,0,0.3,0,0
0,5.2,0,0.3,0,0
0,5.3,0,0.3,0,0
0,5.4,0,0.3,0,0
0,5.5,0,0.3,0,0
0,5.6,0,0.3,0,0
0,5.7,0,0.3,0,0
0,5.8,0,0.3,0,0
0,5.9,0,0.3,0,0
0,6,0,0.3,0,0
0,6.1,0,0.3,0,0
0,6.2,0,0.3,0,0
0,6.3,0,0.3,0,0
0,6.4,0,0.3,0,0
0,6.5,0,0.3,0,0
0,6.6,0,0.3,0,0
0,6.7,0,0.3,0,0
0,6.8,0,0.3,0,0
0,6.9,0,0.3,0,0
0,7,0,0.3,0,0
0,7.1,0,0.3,0,0
0,7.2,0,0.3,0,0
0,7.3,0,0.3,0,0
0,7.4,0,0.3,0,0
0,7.5,0,0.3,0,0
0,7.6,0,0.3,0,0
0,7.7,0,0.3,0,0
0,7.8,0,0.3,0,0
0,7.9,0,0.3,0,0
0,8,0,0.3,0,0
0,8.1,0,0.3,0,0
0,8.2,0,0.3,0,0
0,8.3,0,0.3,0,0
0,8.4,0,0.3,0,0
0,8.5,0,0.3,0,0
0,8.6,0,0.3,0,0
0,8.7,0,0.3,0,0
0,8.8,0,0.3,0,0
0,8.9,0,0.3,0,0
0,9,0,0.3,0,0
0,9.1,0,0.3,0,0
0,9.2,0,0.3,0,0
0,9.3,0,0.3,0,0
0,9.4,0,0.3,0,0
0,9.5,0,0.3,0,0
0,9.6,0,0.3,0,0
0,9.7,0,0.3,0,0
0,9.8,0,0.3,0,0
0,9.9,0,0.3,0,0
0,10,0,0.3,0,0
0,10.1,0,0.3,0,0
0,10.2,0,0.3,0,0
0,10.3,0,0.3,0,0
0,10.4,0,0.3,0,0
0,10.5,0,0.3,0,0
0,10.6,0,0.3,0,0
0,10.7,0,0.3,0,0
0,10.8,0,0.3,0,0
0,10.9,0,0.3,0,0
0,11,0,0.3,0,0
0,11.1,0,0.3,0,0
0,11.2,0,0.3,0,0
0,11.3,0,0.3,0,0
0,11.4,0,0.3,0,0
0,11.5,0,0.3,0,0
0,11.6,0,0.3,0,0
0,11.7,0,0.3,0,0
0,11.8,0,0.3,0,0
0,11.9,0,0.3,0,0
0,12,0,0.3,0,0
0,12.1,0,0.3,0,0
0,12.2,0,0.3,0,0
0,12.3,0,0.3,0,0
0,12.4,0,0.3,0,0
0,12.5,0,0.3,0.000227762,0
0,12.6,0,0.3,0.00087851,0
0,12.7,0,0.3,0.00152926,0
0.1,0,0,0.300002,-0.00311941,0
0.1,0.1,0,0.3,-0.00255366,0
0.1,0.2,0,0.300002,-0.00227091,0
0.1,0.3,0,0.300002,-0.00227451,0
0.1,0.4,0,0.300001,-0.00227714,0
0.1,0.5,0,0.300008,-0.00228264,0
0.1,0.6,0,0.300002,-0.00229102,0
0.1,0.7,0,0.300006,-0.00229535,0
0.1,0.8,0,0.300007,-0.00230524,0
0.1,0.9,0,0.300002,-0.00231081,0
0.1,1,0,0.300014,-0.00232216,0
0.1,1.1,0,0.300003,-0.0023355,0
0.1,1.2,0,0.300009,-0.00234226,0
0.1,1.3,0,0.300009,-0.00235649,0
0.1,1.4,0,0.300003,-0.00236396,0
0.1,1.5,0,0.300017,-0.00237899,0
0.1,1.6,0,0.300003,-0.00239473,0
0.1,1.7,0,0.30001,-0.0024026,0
0.1,1.8,0,0.30001,-0.0024183,0
0.1,1.9,0,0.300003,-0.00242611,0
0.1,2,0,0.300017,-0.00244163,0
0.1,2.1,0,0.300003,-0.00245606,0
0.1,2.2,0,0.300009,-0.00246313,0
0.1,2.3,0,0.300009,-0.00247619,0
0.1,2.4,0,0.300002,-0.00248218,0
0.1,2.5,0,0.300011,-0.00249362,0
0.1,2.6,0,0.300002,-0.00250174,0
0.1,2.7,0,0.300004,-0.00250533,0
0.1,2.8,0,0.300004,-0.00251027,0
0.1,2.9,0,0.300001,-0.00251162,0
0.1,3,0,0.299999,-0.00251287,0
0.1,3.1,0,0.3,-0.00250841,0
0.1,3.2,0,0.299995,-0.00250515,0
0.1,3.3,0,0.299994,-0.00249519,0
0.1,3.4,0,0.299998,-0.00248849,0
0.1,3.5,0,0.299979,-0.0024723,0
0.1,3.6,0,0.299995,-0.00244813,0
0.1,3.7,0,0.299981,-0.00243427,0
0.1,3.8,0,0.299979,-0.00240206,0
0.1,3.9,0,0.299993,-0.00238372,0
0.1,4,0,0.299951,-0.00234271,0
0.1,4.1,0,0.29999,-0.00229194,0
0.1,4.2,0,0.299962,-0.00226405,0
0.1,4.3,0,0.299961,-0.00220313,0
0.1,4.4,0,0.299986,-0.0021701,0
0.1,4.5,0,0.299917,-0.0020984,0
0.1,4.6,0,0.299982,-0.00201622,0
0.1,4.7,0,0.299941,-0.001972,0
0.1,4.8,0,0.299939,-0.0018784,0
0.1,4.9,0,0.299978,-0.00182901,0
0.1,5,0,0.29988,-0.00171231,0
0.1,5.1,0,0.299959,-0.00160534,0
0.1,5.2,0,0.299955,-0.0015591,0
0.1,5.3,0,0.29986,-0.00143483,0
0.1,5.4,0,0.299953,-0.00130286,0
0.1,5.5,0,0.29995,-0.00124825,0
0.1,5.6,0,0.299843,-0.0011072,0
0.1,5.7,0,0.299947,-0.00096006,0
0.1,5.8,0,0.299945,-0.000899761,0
0.1,5.9,0,0.299829,-0.000745406,0
0.1,6,0,0.299943,-0.000586768,0
0.1,6.1,0,0.299941,-0.000522398,0
0.1,6.2,0,0.29982,-0.000359188,0
0.1,6.3,0,0.29994,-0.000193695,0
0.1,6.4,0,0.29994,-0.000127198,0
0.1,6.5,0,0.299817,3.979e-05,0
0.1,6.6,0,0.29994,0.000206937,0
0.1,6.7,0,0.29994,0.000273461,0
0.1,6.8,0,0.29982,0.000438933,0
0.1,6.9,0,0.299941,0.000602433,0
0.1,7,0,0.299943,0.000666899,0
0.1,7.1,0,0.299829,0.00082573,0
0.1,7.2,0,0.299945,0.000980568,0
0.1,7.3,0,0.299947,0.00104103,0
0.1,7.4,0,0.299842,0.00118853,0
0.1,7.5,0,0.299949,0.00133019,0
0.1,7.6,0,0.299952,0.00138503,0
0.1,7.7,0,0.29986,0.00151756,0
0.1,7.8,0,0.299955,0.00164255,0
0.1,7.9,0,0.299959,0.00168863,0
0.1,8,0,0.299879,0.00179404,0
0.1,8.1,0,0.299978,0.00190873,0
0.1,8.2,0,0.299927,0.00196828,0
0.1,8.3,0,0.299956,0.00206231,0
0.1,8.4,0,0.299964,0.00210899,0
0.1,8.5,0,0.299937,0.0021911,0
0.1,8.6,0,0.299986,0.00223883,0
0.1,8.7,0,0.299933,0.00230136,0
0.1,8.8,0,0.299989,0.00236092,0
0.1,8.9,0,0.299964,0.00239106,0
0.1,9,0,0.299975,0.00244076,0
0.1,9.1,0,0.299986,0.00246432,0
0.1,9.2,0,0.299969,0.00250431,0
0.1,9.3,0,0.299994,0.002527,0
0.1,9.4,0,0.299975,0.00255237,0
0.1,9.5,0,0.299996,0.00257486,0
0.1,9.6,0,0.29999,0.0025853,0
0.1,9.7,0,0.299992,0.00260071,0
0.1,9.8,0,0.299998,0.00260687,0
0.1,9.9,0,0.299994,0.00261608,0
0.1,10,0,0.3,0.00261912,0
0.1,10.1,0,0.3,0.00262153,0
0.1,10.2,0,0.300001,0.00262016,0
0.1,10.3,0,0.300003,0.00261874,0
0.1,10.4,0,0.300004,0.00261392,0
0.1,10.5,0,0.300002,0.00261027,0
0.1,10.6,0,0.300009,0.00260266,0
0.1,10.7,0,0.300002,0.00259473,0
0.1,10.8,0,0.300011,0.00258718,0
0.1,10.9,0,0.300004,0.00257559,0
0.1,11,0,0.300007,0.00256924,0
0.1,11.1,0,0.300008,0.00255693,0
0.1,11.2,0,0.300003,0.0025502,0
0.1,11.3,0,0.300013,0.00253751,0
0.1,11.4,0,0.300002,0.00252702,0
0.1,11.5,0,0.30001,0.0025184,0
0.1,11.6,0,0.300005,0.0025067,0
0.1,11.7,0,0.300006,0.00250063,0
0.1,11.8,0,0.300008,0.00248987,0
0.1,11.9,0,0.300002,0.00248462,0
0.1,12,0,0.300009,0.00247508,0
0.1,12.1,0,0.300002,0.00246845,0
0.1,12.2,0,0.300005,0.00246366,0
0.1,12.3,0,0.300002,0.00245813,0
0.1,12.4,0,0.300002,0.00245561,0
0.1,12.5,0,0.300002,0.00245195,0
0.1,12.6,0,0.3,0.00271783,0
0.1,12.7,0,0.300002,0.00336697,0
0.2,0,0,0.300004,-0.00482012,0
0.2,0.1,0,0.300004,-0.00453909,0
0.2,0.2,0,0.300006,-0.0045428,0
0.2,0.3,0,0.300006,-0.00454641,0
0.2,0.4,0,0.30001,-0.00455715,0
0.2,0.5,0,0.300015,-0.00456527,0
0.2,0.6,0,0.300014,-0.00457799,0
0.2,0.7,0,0.300017,-0.00459503,0
0.2,0.8,0,0.300018,-0.00460492,0
0.2,0.9,0,0.30002,-0.0046274,0
0.2,1,0,0.300027,-0.00464432,0
0.2,1.1,0,0.300023,-0.00466442,0
0.2,1.2,0,0.300025,-0.00469129,0
0.2,1.3,0,0.300025,-0.00470551,0
0.2,1.4,0,0.300027,-0.00473548,0
0.2,1.5,0,0.300034,-0.00475797,0
0.2,1.6,0,0.300027,-0.00478159,0
0.2,1.7,0,0.300028,-0.00481309,0
0.2,1.8,0,0.300028,-0.00482878,0
0.2,1.9,0,0.300027,-0.00485992,0
0.2,2,0,0.300034,-0.00488325,0
0.2,2.1,0,0.300026,-0.00490476,0
0.2,2.2,0,0.300024,-0.00493333,0
0.2,2.3,0,0.300024,-0.00494639,0
0.2,2.4,0,0.30002,-0.00496981,0
0.2,2.5,0,0.300023,-0.00498723,0
0.2,2.6,0,0.300016,-0.00499895,0
0.2,2.7,0,0.300011,-0.00501427,0
0.2,2.8,0,0.30001,-0.00501921,0
0.2,2.9,0,0.300003,-0.00502314,0
0.2,3,0,0.299998,-0.00502574,0
0.2,3.1,0,0.299994,-0.00501802,0
0.2,3.2,0,0.299985,-0.00500704,0
0.2,3.3,0,0.299984,-0.00499708,0
0.2,3.4,0,0.299973,-0.00496749,0
0.2,3.5,0,0.299958,-0.0049446,0
0.2,3.6,0,0.299959,-0.00490657,0
0.2,3.7,0,0.299946,-0.00485468,0
0.2,3.8,0,0.299945,-0.00482247,0
0.2,3.9,0,0.29993,-0.00474478,0
0.2,4,0,0.299902,-0.00468542,0
0.2,4.1,0,0.299913,-0.00460676,0
0.2,4.2,0,0.299897,-0.00450021,0
0.2,4.3,0,0.299895,-0.00443929,0
0.2,4.4,0,0.299878,-0.00430152,0
0.2,4.5,0,0.299834,-0.00419679,0
0.2,4.6,0,0.299858,-0.0040704,0
0.2,4.7,0,0.29984,-0.00389979,0
0.2,4.8,0,0.299838,-0.00380618,0
0.2,4.9,0,0.299819,-0.0035907,0
0.2,5,0,0.29976,-0.00342462,0
0.2,5.1,0,0.299801,-0.00326794,0
0.2,5.2,0,0.299784,-0.00303671,0
0.2,5.3,0,0.299721,-0.00286965,0
0.2,5.4,0,0.29977,-0.00268126,0
0.2,5.5,0,0.299755,-0.00240824,0
0.2,5.6,0,0.299685,-0.0022144,0
0.2,5.7,0,0.299743,-0.00200552,0
0.2,5.8,0,0.299732,-0.00170402,0
0.2,5.9,0,0.299658,-0.00149081,0
0.2,6,0,0.299723,-0.00126689,0
0.2,6.1,0,0.299716,-0.000945041,0
0.2,6.2,0,0.29964,-0.000718375,0
0.2,6.3,0,0.299711,-0.000486087,0
0.2,6.4,0,0.299709,-0.000153605,0
0.2,6.5,0,0.299634,7.958e-05,0
0.2,6.6,0,0.299709,0.000312916,0
0.2,6.7,0,0.299711,0.000645535,0
0.2,6.8,0,0.29964,0.000877866,0
0.2,6.9,0,0.299716,0.0011049,0
0.2,7,0,0.299723,0.00142723,0
0.2,7.1,0,0.299657,0.00165146,0
0.2,7.2,0,0.299731,0.0018653,0
0.2,7.3,0,0.299743,0.00216763,0
0.2,7.4,0,0.299684,0.00237706,0
0.2,7.5,0,0.299754,0.00257173,0
0.2,7.6,0,0.299769,0.00284592,0
0.2,7.7,0,0.299719,0.00303512,0
0.2,7.8,0,0.299783,0.00320228,0
0.2,7.9,0,0.299799,0.00343268,0
0.2,8,0,0.299758,0.00358809,0
0.2,8.1,0,0.299818,0.00376359,0
0.2,8.2,0,0.299824,0.0039719,0
0.2,8.3,0,0.29984,0.00408129,0
0.2,8.4,0,0.299858,0.00425694,0
0.2,8.5,0,0.299851,0.00435983,0
0.2,8.6,0,0.299878,0.00449272,0
0.2,8.7,0,0.299864,0.00460623,0
0.2,8.8,0,0.299898,0.00469318,0
0.2,8.9,0,0.29991,0.00480445,0
0.2,9,0,0.299917,0.00485966,0
0.2,9.1,0,0.299932,0.00494764,0
0.2,9.2,0,0.299929,0.00500041,0
0.2,9.3,0,0.299948,0.00505684,0
0.2,9.4,0,0.299948,0.00510775,0
0.2,9.5,0,0.299963,0.00513865,0
0.2,9.6,0,0.299974,0.00517939,0
0.2,9.7,0,0.299976,0.00519564,0
0.2,9.8,0,0.299985,0.00521816,0
0.2,9.9,0,0.299987,0.00523134,0
0.2,10,0,0.299995,0.00523768,0
0.2,10.1,0,0.300001,0.00524352,0
0.2,10.2,0,0.300003,0.00524109,0
0.2,10.3,0,0.300009,0.00523614,0
0.2,10.4,0,0.30001,0.00523104,0
0.2,10.5,0,0.300014,0.00521703,0
0.2,10.6,0,0.300019,0.00520683,0
0.2,10.7,0,0.300018,0.00518986,0
0.2,10.8,0,0.300023,0.00517233,0
0.2,10.9,0,0.300021,0.00515678,0
0.2,11,0,0.300022,0.00513284,0
0.2,11.1,0,0.300022,0.00511957,0
0.2,11.2,0,0.300022,0.00509441,0
0.2,11.3,0,0.300027,0.00507626,0
0.2,11.4,0,0.300022,0.00505591,0
0.2,11.5,0,0.300024,0.00503369,0
0.2,11.6,0,0.300021,0.00501878,0
0.2,11.7,0,0.300019,0.00499588,0
0.2,11.8,0,0.30002,0.00498363,0
0.2,11.9,0,0.300017,0.00496484,0
0.2,12,0,0.300019,0.00495054,0
0.2,12.1,0,0.300013,0.00493875,0
0.2,12.2,0,0.300012,0.00492508,0
0.2,12.3,0,0.30001,0.00491845,0
0.2,12.4,0,0.300006,0.00490896,0
0.2,12.5,0,0.300006,0.00490446,0
0.2,12.6,0,0.300004,0.00490138,0
0.2,12.7,0,0.300004,0.00520469,0
0.3,0,0,0.300009,-0.00680106,0
0.3,0.1,0,0.300009,-0.00680555,0
0.3,0.2,0,0.30001,-0.00680926,0
0.3,0.3,0,0.300017,-0.00682047,0
0.3,0.4,0,0.300021,-0.00683121,0
0.3,0.5,0,0.30003,-0.006845,0
0.3,0.6,0,0.300031,-0.00686632,0
0.3,0.7,0,0.300034,-0.00688336,0
0.3,0.8,0,0.30004,-0.00691347,0
0.3,0.9,0,0.300043,-0.00693595,0
0.3,1,0,0.300053,-0.00696446,0
0.3,1.1,0,0.30005,-0.00699819,0
0.3,1.2,0,0.300052,-0.00702506,0
0.3,1.3,0,0.300055,-0.00706837,0
0.3,1.4,0,0.300057,-0.00709833,0
0.3,1.5,0,0.300066,-0.0071362,0
0.3,1.6,0,0.300059,-0.007176,0
0.3,1.7,0,0.30006,-0.00720749,0
0.3,1.8,0,0.300059,-0.00725546,0
0.3,1.9,0,0.300059,-0.0072866,0
0.3,2,0,0.300065,-0.00732581,0
0.3,2.1,0,0.300055,-0.00736241,0
0.3,2.2,0,0.300053,-0.00739098,0
0.3,2.3,0,0.300048,-0.00743129,0
0.3,2.4,0,0.300045,-0.00745471,0
0.3,2.5,0,0.300045,-0.00748397,0
0.3,2.6,0,0.300032,-0.00750459,0
0.3,2.7,0,0.300027,-0.00751991,0
0.3,2.8,0,0.300015,-0.00753594,0
0.3,2.9,0,0.300008,-0.00753987,0
0.3,3,0,0.299997,-0.00754436,0
0.3,3.1,0,0.299985,-0.00753274,0
0.3,3.2,0,0.299976,-0.00752176,0
0.3,3.3,0,0.299956,-0.00749302,0
0.3,3.4,0,0.299945,-0.00746344,0
0.3,3.5,0,0.299919,-0.00742547,0
0.3,3.6,0,0.29991,-0.00736322,0
0.3,3.7,0,0.299897,-0.00731133,0
0.3,3.8,0,0.29987,-0.00721561,0
0.3,3.9,0,0.299856,-0.00713792,0
0.3,4,0,0.299812,-0.00703911,0
0.3,4.1,0,0.29981,-0.00690881,0
0.3,4.2,0,0.299794,-0.00680225,0
0.3,4.3,0,0.299761,-0.00661984,0
0.3,4.4,0,0.299744,-0.00648207,0
0.3,4.5,0,0.29968,-0.00630741,0
0.3,4.6,0,0.299692,-0.00609711,0
0.3,4.7,0,0.299674,-0.0059265,0
0.3,4.8,0,0.299639,-0.00564539,0
0.3,4.9,0,0.29962,-0.00542991,0
0.3,5,0,0.299537,-0.00514883,0
0.3,5.1,0,0.299566,-0.00486205,0
0.3,5.2,0,0.29955,-0.00463082,0
0.3,5.3,0,0.299461,-0.00431528,0
0.3,5.4,0,0.2995,-0.00396605,0
0.3,5.5,0,0.299485,-0.00369302,0
0.3,5.6,0,0.299393,-0.00333036,0
0.3,5.7,0,0.299445,-0.00294244,0
0.3,5.8,0,0.299433,-0.00264094,0
0.3,5.9,0,0.29934,-0.00224243,0
0.3,6,0,0.299404,-0.00182592,0
0.3,6.1,0,0.299397,-0.00150407,0
0.3,6.2,0,0.299306,-0.00108085,0
0.3,6.3,0,0.299382,-0.000648169,0
0.3,6.4,0,0.299379,-0.000315687,0
0.3,6.5,0,0.299295,0.000119212,0
0.3,6.6,0,0.299379,0.000554387,0
0.3,6.7,0,0.299382,0.000887007,0
0.3,6.8,0,0.299306,0.00131977,0
0.3,6.9,0,0.299396,0.00174366,0
0.3,7,0,0.299403,0.00206599,0
0.3,7.1,0,0.299338,0.0024831,0
0.3,7.2,0,0.299432,0.00288278,0
0.3,7.3,0,0.299443,0.00318512,0
0.3,7.4,0,0.299391,0.00357407,0
0.3,7.5,0,0.299484,0.0039383,0
0.3,7.6,0,0.299498,0.00421249,0
0.3,7.7,0,0.299458,0.00456326,0
0.3,7.8,0,0.299548,0.00487989,0
0.3,7.9,0,0.299564,0.00511029,0
0.3,8,0,0.299533,0.00539379,0
0.3,8.1,0,0.299617,0.00568218,0
0.3,8.2,0,0.299626,0.00591525,0
0.3,8.3,0,0.299669,0.00617992,0
0.3,8.4,0,0.299687,0.00635557,0
0.3,8.5,0,0.299703,0.0065841,0
0.3,8.6,0,0.299737,0.00674167,0
0.3,8.7,0,0.299733,0.00691554,0
0.3,8.8,0,0.299786,0.00706396,0
0.3,8.9,0,0.2998,0.00718321,0
0.3,9,0,0.299832,0.00732524,0
0.3,9.1,0,0.299847,0.00741323,0
0.3,9.2,0,0.299862,0.00752215,0
0.3,9.3,0,0.299887,0.00759236,0
0.3,9.4,0,0.299896,0.00766587,0
0.3,9.5,0,0.299923,0.00772195,0
0.3,9.6,0,0.299935,0.00776347,0
0.3,9.7,0,0.299955,0.00780758,0
0.3,9.8,0,0.299965,0.0078301,0
0.3,9.9,0,0.299978,0.00785412,0
0.3,10,0,0.29999,0.00786224,0
0.3,10.1,0,0.3,0.00786967,0
0.3,10.2,0,0.30001,0.0078654,0
0.3,10.3,0,0.300016,0.00786044,0
0.3,10.4,0,0.300025,0.00784519,0
0.3,10.5,0,0.300029,0.00783118,0
0.3,10.6,0,0.300039,0.00781037,0
0.3,10.7,0,0.300039,0.00778674,0
0.3,10.8,0,0.300046,0.00776329,0
0.3,10.9,0,0.300045,0.00773183,0
0.3,11,0,0.300047,0.00770789,0
0.3,11.1,0,0.300048,0.00767099,0
0.3,11.2,0,0.300048,0.00764531,0
0.3,11.3,0,0.300053,0.0076121,0
0.3,11.4,0,0.300047,0.00758231,0
0.3,11.5,0,0.300049,0.00755438,0
0.3,11.6,0,0.300044,0.00752198,0
0.3,11.7,0,0.300042,0.00749908,0
0.3,11.8,0,0.300039,0.00746773,0
0.3,11.9,0,0.300036,0.00744754,0
0.3,12,0,0.300036,0.00742299,0
0.3,12.1,0,0.300028,0.00740479,0
0.3,12.2,0,0.300026,0.00738849,0
0.3,12.3,0,0.300019,0.00737263,0
0.3,12.4,0,0.300016,0.00736314,0
0.3,12.5,0,0.300011,0.00735268,0
0.3,12.6,0,0.300008,0.00734919,0
0.3,12.7,0,0.300008,0.00734496,0
0.4,0,0,0.300016,-0.00906224,0
0.4,0.1,0,0.300014,-0.00906752,0
0.4,0.2,0,0.300022,-0.00907453,0
0.4,0.3,0,0.300029,-0.00908575,0
0.4,0.4,0,0.300037,-0.00910498,0
0.4,0.5,0,0.300051,-0.00912181,0
0.4,0.6,0,0.30005,-0.0091474,0
0.4,0.7,0,0.300064,-0.00917804,0
0.4,0.8,0,0.30007,-0.00920815,0
0.4,0.9,0,0.300073,-0.00924804,0
0.4,1,0,0.30009,-0.00928258,0
0.4,1.1,0,0.300082,-0.00932319,0
0.4,1.2,0,0.300095,-0.0093712,0
0.4,1.3,0,0.300098,-0.00941451,0
0.4,1.4,0,0.300095,-0.0094679,0
0.4,1.5,0,0.300113,-0.00951366,0
0.4,1.6,0,0.300099,-0.00956176,0
0.4,1.7,0,0.300108,-0.00961802,0
0.4,1.8,0,0.300108,-0.00966599,0
0.4,1.9,0,0.300098,-0.00972203,0
0.4,2,0,0.300112,-0.0097693,0
0.4,2.1,0,0.300093,-0.00981392,0
0.4,2.2,0,0.300094,-0.00986511,0
0.4,2.3,0,0.30009,-0.00990542,0
0.4,2.4,0,0.300074,-0.00994872,0
0.4,2.5,0,0.300077,-0.00998383,0
0.4,2.6,0,0.300057,-0.0100098,0
0.4,2.7,0,0.300045,-0.0100376,0
0.4,2.8,0,0.300033,-0.0100536,0
0.4,2.9,0,0.300011,-0.0100637,0
0.4,3,0,0.299996,-0.0100687,0
0.4,3.1,0,0.29998,-0.0100565,0
0.4,3.2,0,0.29995,-0.010038,0
0.4,3.3,0,0.299931,-0.0100092,0
0.4,3.4,0,0.299904,-0.00996124,0
0.4,3.5,0,0.299864,-0.0099149,0
0.4,3.6,0,0.299858,-0.00984229,0
0.4,3.7,0,0.299806,-0.00975146,0
0.4,3.8,0,0.299779,-0.00965575,0
0.4,3.9,0,0.299753,-0.00952369,0
0.4,4,0,0.299679,-0.00940377,0
0.4,4.1,0,0.299693,-0.00924972,0
0.4,4.2,0,0.299616,-0.00906199,0
0.4,4.3,0,0.299584,-0.00887957,0
0.4,4.4,0,0.299564,-0.00864182,0
0.4,4.5,0,0.299455,-0.00843026,0
0.4,4.6,0,0.299496,-0.00818027,0
0.4,4.7,0,0.299399,-0.00787878,0
0.4,4.8,0,0.299364,-0.00759766,0
0.4,4.9,0,0.299358,-0.00723163,0
0.4,5,0,0.299211,-0.00688495,0
0.4,5.1,0,0.29927,-0.00656114,0
0.4,5.2,0,0.299218,-0.00614344,0
0.4,5.3,0,0.299081,-0.00577169,0
0.4,5.4,0,0.299156,-0.00537166,0
0.4,5.5,0,0.29911,-0.0048775,0
0.4,5.6,0,0.298965,-0.00445507,0
0.4,5.7,0,0.299059,-0.00400954,0
0.4,5.8,0,0.299023,-0.00346345,0
0.4,5.9,0,0.298875,-0.00300025,0
0.4,6,0,0.298987,-0.00252064,0
0.4,6.1,0,0.298964,-0.00193741,0
0.4,6.2,0,0.298818,-0.0014466,0
0.4,6.3,0,0.298945,-0.000947127,0
0.4,6.4,0,0.298937,-0.000344493,0
0.4,6.5,0,0.298798,0.000158686,0
0.4,6.6,0,0.298937,0.000662232,0
0.4,6.7,0,0.298945,0.00126512,0
0.4,6.8,0,0.298816,0.00176466,0
0.4,6.9,0,0.298963,0.00225625,0
0.4,7,0,0.298985,0.00284036,0
0.4,7.1,0,0.298872,0.00332066,0
0.4,7.2,0,0.29902,0.00378524,0
0.4,7.3,0,0.299056,0.00433287,0
0.4,7.4,0,0.298961,0.00477957,0
0.4,7.5,0,0.299107,0.00520382,0
0.4,7.6,0,0.299153,0.00570016,0
0.4,7.7,0,0.299077,0.00610198,0
0.4,7.8,0,0.299215,0.00647608,0
0.4,7.9,0,0.299266,0.00689226,0
0.4,8,0,0.299204,0.00721116,0
0.4,8.1,0,0.299355,0.00757841,0
0.4,8.2,0,0.299345,0.00794276,0
0.4,8.3,0,0.299409,0.00822388,0
0.4,8.4,0,0.299468,0.00852886,0
0.4,8.5,0,0.299469,0.00877678,0
0.4,8.6,0,0.299567,0.00902146,0
0.4,8.7,0,0.299544,0.00924368,0
0.4,8.8,0,0.299636,0.00942128,0
0.4,8.9,0,0.299653,0.0096185,0
0.4,9,0,0.299694,0.00976643,0
0.4,9.1,0,0.299746,0.00991795,0
0.4,9.2,0,0.299755,0.0100382,0
0.4,9.3,0,0.299815,0.0101425,0
0.4,9.4,0,0.299823,0.0102389,0
0.4,9.5,0,0.299866,0.0103041,0
0.4,9.6,0,0.299892,0.0103727,0
0.4,9.7,0,0.299914,0.0104177,0
0.4,9.8,0,0.299946,0.0104551,0
0.4,9.9,0,0.29996,0.0104818,0
0.4,10,0,0.299984,0.0104927,0
0.4,10.1,0,0.300002,0.0105015,0
0.4,10.2,0,0.300014,0.0104962,0
0.4,10.3,0,0.300033,0.0104852,0
0.4,10.4,0,0.300042,0.0104696,0
0.4,10.5,0,0.300053,0.0104438,0
0.4,10.6,0,0.300067,0.0104195,0
0.4,10.7,0,0.300066,0.0103862,0
0.4,10.8,0,0.300081,0.0103513,0
0.4,10.9,0,0.300077,0.0103157,0
0.4,11,0,0.300084,0.0102726,0
0.4,11.1,0,0.300087,0.0102346,0
0.4,11.2,0,0.300081,0.0101893,0
0.4,11.3,0,0.300092,0.0101501,0
0.4,11.4,0,0.300079,0.01011,0
0.4,11.5,0,0.300086,0.0100675,0
0.4,11.6,0,0.300077,0.0100317,0
0.4,11.7,0,0.300073,0.00999102,0
0.4,11.8,0,0.300072,0.00995806,0
0.4,11.9,0,0.300059,0.00992365,0
0.4,12,0,0.300062,0.00989398,0
0.4,12.1,0,0.300048,0.00987038,0
0.4,12.2,0,0.300045,0.00984454,0
0.4,12.3,0,0.300036,0.00982756,0
0.4,12.4,0,0.300026,0.00981044,0
0.4,12.5,0,0.300021,0.00979899,0
0.4,12.6,0,0.300013,0.00979319,0
0.4,12.7,0,0.300015,0.00978778,0
0.5,0,0,0.300023,-0.0113234,0
0.5,0.1,0,0.30003,-0.0113312,0
0.5,0.2,0,0.300036,-0.011339,0
0.5,0.3,0,0.300046,-0.0113541,0
0.5,0.4,0,0.300059,-0.0113763,0
0.5,0.5,0,0.300072,-0.0113986,0
0.5,0.6,0,0.300084,-0.0114335,0
0.5,0.7,0,0.300096,-0.0114684,0
0.5,0.8,0,0.300107,-0.0115089,0
0.5,0.9,0,0.300117,-0.0115548,0
0.5,1,0,0.300128,-0.0116007,0
0.5,1.1,0,0.300136,-0.0116556,0
0.5,1.2,0,0.300144,-0.0117105,0
0.5,1.3,0,0.30015,-0.0117685,0
0.5,1.4,0,0.300155,-0.0118298,0
0.5,1.5,0,0.30016,-0.0118911,0
0.5,1.6,0,0.300162,-0.0119557,0
0.5,1.7,0,0.300164,-0.0120203,0
0.5,1.8,0,0.300163,-0.0120846,0
0.5,1.9,0,0.300161,-0.0121487,0
0.5,2,0,0.300158,-0.0122128,0
0.5,2.1,0,0.300151,-0.012272,0
0.5,2.2,0,0.300144,-0.0123312,0
0.5,2.3,0,0.300134,-0.0123854,0
0.5,2.4,0,0.300121,-0.0124345,0
0.5,2.5,0,0.300109,-0.0124837,0
0.5,2.6,0,0.300089,-0.0125169,0
0.5,2.7,0,0.30007,-0.01255,0
0.5,2.8,0,0.300047,-0.0125719,0
0.5,2.9,0,0.300021,-0.0125825,0
0.5,3,0,0.299995,-0.0125931,0
0.5,3.1,0,0.299962,-0.012574,0
0.5,3.2,0,0.299928,-0.0125548,0
0.5,3.3,0,0.299891,-0.0125171,0
0.5,3.4,0,0.299849,-0.0124607,0
0.5,3.5,0,0.299808,-0.0124043,0
0.5,3.6,0,0.29976,-0.0123032,0
0.5,3.7,0,0.299711,-0.012202,0
0.5,3.8,0,0.299659,-0.0120748,0
0.5,3.9,0,0.299603,-0.0119216,0
0.5,4,0,0.299547,-0.0117684,0
0.5,4.1,0,0.299486,-0.011557,0
0.5,4.2,0,0.299424,-0.0113455,0
0.5,4.3,0,0.299361,-0.0111024,0
0.5,4.4,0,0.299295,-0.0108278,0
0.5,4.5,0,0.29923,-0.0105531,0
0.5,4.6,0,0.299162,-0.0102119,0
0.5,4.7,0,0.299094,-0.00987075,0
0.5,4.8,0,0.299025,-0.00948434,0
0.5,4.9,0,0.298955,-0.00905271,0
0.5,5,0,0.298884,-0.00862108,0
0.5,5.1,0,0.298823,-0.00815675,0
0.5,5.2,0,0.298762,-0.00769243,0
0.5,5.3,0,0.298702,-0.00722811,0
0.5,5.4,0,0.298647,-0.00667867,0
0.5,5.5,0,0.298592,-0.00612923,0
0.5,5.6,0,0.298537,-0.00557979,0
0.5,5.7,0,0.298494,-0.00497255,0
0.5,5.8,0,0.298452,-0.00436531,0
0.5,5.9,0,0.298409,-0.00375807,0
0.5,6,0,0.298383,-0.0031095,0
0.5,6.1,0,0.298356,-0.00246093,0
0.5,6.2,0,0.298329,-0.00181236,0
0.5,6.3,0,0.29832,-0.00114219,0
0.5,6.4,0,0.29831,-0.000472014,0
0.5,6.5,0,0.298301,0.000198159,0
0.5,6.6,0,0.29831,0.00086862,0
0.5,6.7,0,0.298319,0.00153908,0
0.5,6.8,0,0.298327,0.00220954,0
0.5,6.9,0,0.298353,0.0028591,0
0.5,7,0,0.29838,0.00350866,0
0.5,7.1,0,0.298406,0.00415821,0
0.5,7.2,0,0.298448,0.00476717,0
0.5,7.3,0,0.29849,0.00537612,0
0.5,7.4,0,0.298532,0.00598507,0
0.5,7.5,0,0.298586,0.00653695,0
0.5,7.6,0,0.298641,0.00708882,0
0.5,7.7,0,0.298695,0.00764069,0
0.5,7.8,0,0.298755,0.00810331,0
0.5,7.9,0,0.298815,0.00856592,0
0.5,8,0,0.298874,0.00902854,0
0.5,8.1,0,0.298946,0.00947504,0
0.5,8.2,0,0.299017,0.00992155,0
0.5,8.3,0,0.299085,0.0103062,0
0.5,8.4,0,0.299152,0.0106576,0
0.5,8.5,0,0.299219,0.0109902,0
0.5,8.6,0,0.299284,0.0112791,0
0.5,8.7,0,0.299349,0.0115681,0
0.5,8.8,0,0.299411,0.0118005,0
0.5,8.9,0,0.299473,0.0120299,0
0.5,9,0,0.299532,0.0122261,0
0.5,9.1,0,0.299589,0.0124,0
0.5,9.2,0,0.299644,0.0125614,0
0.5,9.3,0,0.299694,0.012685,0
0.5,9.4,0,0.299745,0.0128087,0
0.5,9.5,0,0.299789,0.0128927,0
0.5,9.6,0,0.299833,0.0129724,0
0.5,9.7,0,0.299872,0.0130314,0
0.5,9.8,0,0.299909,0.0130736,0
0.5,9.9,0,0.299944,0.0131097,0
0.5,10,0,0.299973,0.0131212,0
0.5,10.1,0,0.300002,0.0131327,0
0.5,10.2,0,0.300025,0.0131237,0
0.5,10.3,0,0.300047,0.0131112,0
0.5,10.4,0,0.300066,0.0130896,0
0.5,10.5,0,0.300082,0.0130592,0
0.5,10.6,0,0.300097,0.0130269,0
0.5,10.7,0,0.300107,0.0129841,0
0.5,10.8,0,0.300118,0.0129414,0
0.5,10.9,0,0.300124,0.0128929,0
0.5,11,0,0.300129,0.0128431,0
0.5,11.1,0,0.300132,0.0127919,0
0.5,11.2,0,0.300132,0.0127393,0
0.5,11.3,0,0.300132,0.0126868,0
0.5,11.4,0,0.300129,0.0126353,0
0.5,11.5,0,0.300126,0.0125839,0
0.5,11.6,0,0.30012,0.0125356,0
0.5,11.7,0,0.300114,0.0124885,0
0.5,11.8,0,0.300107,0.0124442,0
0.5,11.9,0,0.300098,0.0124042,0
0.5,12,0,0.300089,0.0123646,0
0.5,12.1,0,0.300078,0.0123338,0
0.5,12.2,0,0.300067,0.0123029,0
0.5,12.3,0,0.300055,0.0122798,0
0.5,12.4,0,0.300043,0.01226,0
0.5,12.5,0,0.300033,0.0122446,0
0.5,12.6,0,0.300027,0.0122376,0
0.5,12.7,0,0.300021,0.0122306,0
0.6,0,0,0.300037,-0.0135704,0
0.6,0.1,0,0.300034,-0.0135793,0
0.6,0.2,0,0.300049,-0.013589,0
0.6,0.3,0,0.300068,-0.013609,0
0.6,0.4,0,0.300082,-0.0136344,0
0.6,0.5,0,0.300109,-0.0136636,0
0.6,0.6,0,0.300119,-0.0137077,0
0.6,0.7,0,0.300139,-0.0137478,0
0.6,0.8,0,0.300156,-0.0137995,0
0.6,0.9,0,0.300164,-0.0138514,0
0.6,1,0,0.300192,-0.0139108,0
0.6,1.1,0,0.300192,-0.0139801,0
0.6,1.2,0,0.300209,-0.0140431,0
0.6,1.3,0,0.300218,-0.0141173,0
0.6,1.4,0,0.300218,-0.0141868,0
0.6,1.5,0,0.300241,-0.0142661,0
0.6,1.6,0,0.300229,-0.0143481,0
0.6,1.7,0,0.300239,-0.0144223,0
0.6,1.8,0,0.300238,-0.014505,0
0.6,1.9,0,0.300228,-0.0145778,0
0.6,2,0,0.300239,-0.0146615,0
0.6,2.1,0,0.300214,-0.0147374,0
0.6,2.2,0,0.300211,-0.0148059,0
0.6,2.3,0,0.300197,-0.0148768,0
0.6,2.4,0,0.300175,-0.0149332,0
0.6,2.5,0,0.300165,-0.0149988,0
0.6,2.6,0,0.300128,-0.0150431,0
0.6,2.7,0,0.300106,-0.0150825,0
0.6,2.8,0,0.300073,-0.0151137,0
0.6,2.9,0,0.300039,-0.0151273,0
0.6,3,0,0.299996,-0.0151446,0
0.6,3.1,0,0.299951,-0.0151249,0
0.6,3.2,0,0.299902,-0.015105,0
0.6,3.3,0,0.299847,-0.0150621,0
0.6,3.4,0,0.299802,-0.0150013,0
0.6,3.5,0,0.299716,-0.0149331,0
0.6,3.6,0,0.299669,-0.0148125,0
0.6,3.7,0,0.299589,-0.0146992,0
0.6,3.8,0,0.299511,-0.014544,0
0.6,3.9,0,0.29946,-0.014375,0
0.6,4,0,0.299326,-0.0141828,0
0.6,4.1,0,0.299284,-0.0139254,0
0.6,4.2,0,0.299174,-0.0136862,0
0.6,4.3,0,0.299079,-0.0133845,0
0.6,4.4,0,0.299029,-0.0130789,0
0.6,4.5,0,0.29885,-0.0127311,0
0.6,4.6,0,0.298828,-0.0123115,0
0.6,4.7,0,0.298696,-0.0119242,0
0.6,4.8,0,0.298594,-0.011455,0
0.6,4.9,0,0.298557,-0.0109868,0
0.6,5,0,0.298333,-0.0104101,0
0.6,5.1,0,0.298338,-0.00986639,0
0.6,5.2,0,0.298262,-0.00935458,0
0.6,5.3,0,0.29806,-0.00873217,0
0.6,5.4,0,0.298082,-0.00805865,0
0.6,5.5,0,0.298014,-0.00745247,0
0.6,5.6,0,0.297813,-0.00674344,0
0.6,5.7,0,0.297866,-0.00599263,0
0.6,5.8,0,0.297813,-0.00532236,0
0.6,5.9,0,0.297623,-0.00454358,0
0.6,6,0,0.297708,-0.00373506,0
0.6,6.1,0,0.297674,-0.00301897,0
0.6,6.2,0,0.297502,-0.00219272,0
0.6,6.3,0,0.29762,-0.0013508,0
0.6,6.4,0,0.297608,-0.00061075,0
0.6,6.5,0,0.29746,0.000237061,0
0.6,6.6,0,0.297607,0.00108546,0
0.6,6.7,0,0.297618,0.00182583,0
0.6,6.8,0,0.297499,0.00266791,0
0.6,6.9,0,0.297671,0.00349546,0
0.6,7,0,0.297704,0.00421265,0
0.6,7.1,0,0.297617,0.00502236,0
0.6,7.2,0,0.297807,0.00580347,0
0.6,7.3,0,0.29786,0.00647563,0
0.6,7.4,0,0.297806,0.00722847,0
0.6,7.5,0,0.298006,0.00794061,0
0.6,7.6,0,0.298074,0.00854947,0
0.6,7.7,0,0.29805,0.00922603,0
0.6,7.8,0,0.298252,0.00985259,0
0.6,7.9,0,0.298326,0.0103625,0
0.6,8,0,0.298318,0.0108977,0
0.6,8.1,0,0.298543,0.0114906,0
0.6,8.2,0,0.29857,0.0119784,0
0.6,8.3,0,0.298702,0.0124466,0
0.6,8.4,0,0.298796,0.0128448,0
0.6,8.5,0,0.29886,0.0132589,0
0.6,8.6,0,0.299003,0.0135942,0
0.6,8.7,0,0.299033,0.0139455,0
0.6,8.8,0,0.299191,0.0142341,0
0.6,8.9,0,0.299238,0.0144931,0
0.6,9,0,0.299338,0.0147356,0
0.6,9.1,0,0.299421,0.0149311,0
0.6,9.2,0,0.299482,0.0151298,0
0.6,9.3,0,0.29958,0.0152721,0
0.6,9.4,0,0.299625,0.0154195,0
0.6,9.5,0,0.299717,0.0155199,0
0.6,9.6,0,0.299763,0.0156087,0
0.6,9.7,0,0.299824,0.0156783,0
0.6,9.8,0,0.299876,0.0157237,0
0.6,9.9,0,0.299921,0.015766,0
0.6,10,0,0.299968,0.0157753,0
0.6,10.1,0,0.300006,0.0157877,0
0.6,10.2,0,0.300042,0.0157713,0
0.6,10.3,0,0.300072,0.0157559,0
0.6,10.4,0,0.3001,0.0157255,0
0.6,10.5,0,0.300119,0.0156885,0
0.6,10.6,0,0.300147,0.0156461,0
0.6,10.7,0,0.300154,0.015591,0
0.6,10.8,0,0.300176,0.0155394,0
0.6,10.9,0,0.300178,0.0154752,0
0.6,11,0,0.300188,0.0154175,0
0.6,11.1,0,0.300193,0.0153513,0
0.6,11.2,0,0.300188,0.0152899,0
0.6,11.3,0,0.300199,0.0152227,0
0.6,11.4,0,0.300183,0.015158,0
0.6,11.5,0,0.300187,0.0150967,0
0.6,11.6,0,0.300172,0.0150344,0
0.6,11.7,0,0.300165,0.0149801,0
0.6,11.8,0,0.300156,0.0149232,0
0.6,11.9,0,0.300139,0.0148769,0
0.6,12,0,0.300134,0.0148261,0
0.6,12.1,0,0.300109,0.0147875,0
0.6,12.2,0,0.300099,0.0147508,0
0.6,12.3,0,0.300079,0.0147211,0
0.6,12.4,0,0.300063,0.014698,0
0.6,12.5,0,0.300046,0.0146774,0
0.6,12.6,0,0.30003,0.0146689,0
0.6,12.7,0,0.300033,0.01466,0
0.7,0,0,0.30005,-0.0158174,0
0.7,0.1,0,0.300055,-0.0158282,0
0.7,0.2,0,0.30007,-0.0158408,0
0.7,0.3,0,0.300089,-0.0158608,0
0.7,0.4,0,0.300117,-0.0158962,0
0.7,0.5,0,0.300145,-0.0159285,0
0.7,0.6,0,0.300164,-0.0159779,0
0.7,0.7,0,0.300191,-0.0160324,0
0.7,0.8,0,0.300208,-0.016084,0
0.7,0.9,0,0.300231,-0.0161555,0
0.7,1,0,0.300256,-0.0162209,0
0.7,1.1,0,0.300265,-0.0162983,0
0.7,1.2,0,0.300283,-0.0163837,0
0.7,1.3,0,0.300293,-0.016458,0
0.7,1.4,0,0.300304,-0.0165536,0
0.7,1.5,0,0.300322,-0.0166411,0
0.7,1.6,0,0.300318,-0.0167327,0
0.7,1.7,0,0.300322,-0.0168339,0
0.7,1.8,0,0.300321,-0.0169166,0
0.7,1.9,0,0.300316,-0.0170178,0
0.7,2,0,0.300319,-0.0171103,0
0.7,2.1,0,0.300299,-0.0171955,0
0.7,2.2,0,0.300283,-0.01729,0
0.7,2.3,0,0.300269,-0.0173609,0
0.7,2.4,0,0.30024,-0.017441,0
0.7,2.5,0,0.300221,-0.0175139,0
0.7,2.6,0,0.300181,-0.0175644,0
0.7,2.7,0,0.300138,-0.0176212,0
0.7,2.8,0,0.300105,-0.0176524,0
0.7,2.9,0,0.300047,-0.0176757,0
0.7,3,0,0.299996,-0.017696,0
0.7,3.1,0,0.299936,-0.0176756,0
0.7,3.2,0,0.299861,-0.0176545,0
0.7,3.3,0,0.299806,-0.0176116,0
0.7,3.4,0,0.299714,-0.0175345,0
0.7,3.5,0,0.299624,-0.0174619,0
0.7,3.6,0,0.299546,-0.0173292,0
0.7,3.7,0,0.299437,-0.0171843,0
0.7,3.8,0,0.299359,-0.0170291,0
0.7,3.9,0,0.299234,-0.0168052,0
0.7,4,0,0.299104,-0.0165972,0
0.7,4.1,0,0.299014,-0.016312,0
0.7,4.2,0,0.298877,-0.0159992,0
0.7,4.3,0,0.298781,-0.0156975,0
0.7,4.4,0,0.298634,-0.0152878,0
0.7,4.5,0,0.298471,-0.0149091,0
0.7,4.6,0,0.298384,-0.0144434,0
0.7,4.7,0,0.298232,-0.0139315,0
0.7,4.8,0,0.298131,-0.0134623,0
0.7,4.9,0,0.297973,-0.0128124,0
0.7,5,0,0.297782,-0.0121991,0
0.7,5.1,0,0.29773,-0.0115922,0
0.7,5.2,0,0.297594,-0.0108904,0
0.7,5.3,0,0.297418,-0.0102362,0
0.7,5.4,0,0.297382,-0.00949887,0
0.7,5.5,0,0.297259,-0.00866576,0
0.7,5.6,0,0.29709,-0.0079071,0
0.7,5.7,0,0.297084,-0.00708766,0
0.7,5.8,0,0.296988,-0.0061653,0
0.7,5.9,0,0.296836,-0.00532908,0
0.7,6,0,0.296863,-0.0044495,0
0.7,6.1,0,0.296803,-0.00346331,0
0.7,6.2,0,0.296675,-0.00257309,0
0.7,6.3,0,0.296737,-0.00166011,0
0.7,6.4,0,0.296716,-0.000640549,0
0.7,6.5,0,0.296619,0.000275962,0
0.7,6.6,0,0.296715,0.001193,0
0.7,6.7,0,0.296734,0.00221302,0
0.7,6.8,0,0.296671,0.00312627,0
0.7,6.9,0,0.296798,0.00401789,0
0.7,7,0,0.296857,0.0050056,0
0.7,7.1,0,0.296829,0.0058865,0
0.7,7.2,0,0.29698,0.00672517,0
0.7,7.3,0,0.297074,0.00765016,0
0.7,7.4,0,0.29708,0.00847186,0
0.7,7.5,0,0.297248,0.00923388,0
0.7,7.6,0,0.29737,0.0100707,0
0.7,7.7,0,0.297405,0.0108114,0
0.7,7.8,0,0.297579,0.011467,0
0.7,7.9,0,0.297713,0.0121661,0
0.7,8,0,0.297762,0.0127668,0
0.7,8.1,0,0.297956,0.0134062,0
0.7,8.2,0,0.298096,0.0140599,0
0.7,8.3,0,0.298218,0.0145434,0
0.7,8.4,0,0.298369,0.0150708,0
0.7,8.5,0,0.298465,0.0155058,0
0.7,8.6,0,0.298619,0.0159254,0
0.7,8.7,0,0.298715,0.0163265,0
0.7,8.8,0,0.298861,0.0166419,0
0.7,8.9,0,0.298992,0.0169782,0
0.7,9,0,0.29909,0.017226,0
0.7,9.1,0,0.299217,0.0174814,0
0.7,9.2,0,0.299302,0.0176915,0
0.7,9.3,0,0.299417,0.0178642,0
0.7,9.4,0,0.299504,0.0180331,0
0.7,9.5,0,0.299596,0.018141,0
0.7,9.6,0,0.299692,0.0182528,0
0.7,9.7,0,0.299754,0.0183232,0
0.7,9.8,0,0.299835,0.0183789,0
0.7,9.9,0,0.299893,0.0184228,0
0.7,10,0,0.299955,0.0184323,0
0.7,10.1,0,0.300012,0.0184429,0
0.7,10.2,0,0.300053,0.0184247,0
0.7,10.3,0,0.300103,0.0183985,0