x,y,z,U_0,U_1,U_2
0,0,0,1.5,0,0
0,0.1,0,2.1,0,0
0,0.2,0,2.7,0,0
0,0.3,0,3,0,0
0,0.4,0,3,0,0
0,0.5,0,3,0,0
0,0.6,0,3,0,0
0,0.7,0,3,0,0
0,0.8,0,3,0,0
0,0.9,0,3,0,0
0,1,0,3,0,0
0,1.1,0,3,0,0
0,1.2,0,3,0,0
0,1.3,0,3,0,0
0,1.4,0,3,0,0
0,1.5,0,3,0,0
0,1.6,0,3,0,0
0,1.7,0,3,0,0
0,1.8,0,3,0,0
0,1.9,0,3,0,0
0,2,0,3,0,0
0,2.1,0,3,0,0
0,2.2,0,3,0,0
0,2.3,0,3,0,0
0,2.4,0,3,0,0
0,2.5,0,3,0,0
0,2.6,0,3,0,0
0,2.7,0,3,0,0
0,2.8,0,3,0,0
0,2.9,0,3,0,0
0,3,0,3,0,0
0,3.1,0,3,0,0
0,3.2,0,3,0,0
0,3.3,0,3,0,0
0,3.4,0,3,0,0
0,3.5,0,3,0,0
0,3.6,0,3,0,0
0,3.7,0,3,0,0
0,3.8,0,3,0,0
0,3.9,0,3,0,0
0,4,0,3,0,0
0,4.1,0,3,0,0
0,4.2,0,3,0,0
0,4.3,0,3,0,0
0,4.4,0,3,0,0
0,4.5,0,3,0,0
0,4.6,0,3,0,0
0,4.7,0,3,0,0
0,4.8,0,3,0,0
0,4.9,0,3,0,0
0,5,0,3,0,0
0,5.1,0,3,0,0
0,5.2,0,3,0,0
0,5.3,0,3,0,0
0,5.4,0,3,0,0
0,5.5,0,3,0,0
0,5.6,0,3,0,0
0,5.7,0,3,0,0
0,5.8,0,3,0,0
0,5.9,0,3,0,0
0,6,0,3,0,0
0,6.1,0,3,0,0
0,6.2,0,3,0,0
0,6.3,0,3,0,0
0,6.4,0,3,0,0
0,6.5,0,3,0,0
0,6.6,0,3,0,0
0,6.7,0,3,0,0
0,6.8,0,3,0,0
0,6.9,0,3,0,0
0,7,0,3,0,0
0,7.1,0,3,0,0
0,7.2,0,3,0,0
0,7.3,0,3,0,0
0,7.4,0,3,0,0
0,7.5,0,3,0,0
0,7.6,0,3,0,0
0,7.7,0,3,0,0
0,7.8,0,3,0,0
0,7.9,0,3,0,0
0,8,0,3,0,0
0,8.1,0,3,0,0
0,8.2,0,3,0,0
0,8.3,0,3,0,0
0,8.4,0,3,0,0
0,8.5,0,3,0,0
0,8.6,0,3,0,0
0,8.7,0,3,0,0
0,8.8,0,3,0,0
0,8.9,0,3,0,0
0,9,0,3,0,0
0,9.1,0,3,0,0
0,9.2,0,3,0,0
0,9.3,0,3,0,0
0,9.4,0,3,0,0
0,9.5,0,3,0,0
0,9.6,0,3,0,0
0,9.7,0,3,0,0
0,9.8,0,3,0,0
0,9.9,0,3,0,0
0,10,0,3,0,0
0,10.1,0,3,0,0
0,10.2,0,3,0,0
0,10.3,0,3,0,0
0,10.4,0,3,0,0
0,10.5,0,3,0,0
0,10.6,0,3,0,0
0,10.7,0,3,0,0
0,10.8,0,3,0,0
0,10.9,0,3,0,0
0,11,0,3,0,0
0,11.1,0,3,0,0
0,11.2,0,3,0,0
0,11.3,0,3,0,0
0,11.4,0,3,0,0
0,11.5,0,3,0,0
0,11.6,0,3,0,0
0,11.7,0,3,0,0
0,11.8,0,3,0,0
0,11.9,0,3,0,0
0,12,0,3,0,0
0,12.1,0,3,0,0
0,12.2,0,3,0,0
0,12.3,0,3,0,0
0,12.4,0,2.82294,0,0
0,12.5,0,2.31704,0,0
0,12.6,0,1.81115,0,0
0,12.7,0,1.30525,0,0
0.1,0,0,0.9,0,0
0.1,0.1,0,2.10953,0.0140767,-1.35e-07
0.1,0.2,0,2.70953,0.0140767,-1.35e-07
0.1,0.3,0,3.01472,0.0125382,-1.65e-07
0.1,0.4,0,3.01992,0.0109998,-1.95e-07
0.1,0.5,0,3.01992,0.0109998,-1.95e-07
0.1,0.6,0,3.01878,0.00579212,-2.35e-07
0.1,0.7,0,3.01878,0.00579212,-2.35e-07
0.1,0.8,0,3.01841,0.00487214,-2.45e-07
0.1,0.9,0,3.01805,0.00395215,-2.55e-07
0.1,1,0,3.01805,0.00395215,-2.55e-07
0.1,1.1,0,3.01769,0.00216021,-2.6e-07
0.1,1.2,0,3.01769,0.00216021,-2.6e-07
0.1,1.3,0,3.0176,0.00160706,-2.55e-07
0.1,1.4,0,3.01751,0.0010539,-2.5e-07
0.1,1.5,0,3.01751,0.0010539,-2.5e-07
0.1,1.6,0,3.01739,0.000164488,-2.2e-07
0.1,1.7,0,3.01739,0.000164488,-2.2e-07
0.1,1.8,0,3.01734,-0.000174708,-2.05e-07
0.1,1.9,0,3.01729,-0.000513903,-1.9e-07
0.1,2,0,3.01729,-0.000513903,-1.9e-07
0.1,2.1,0,3.01719,-0.00102163,-1.7e-07
0.1,2.2,0,3.01719,-0.00102163,-1.7e-07
0.1,2.3,0,3.0171,-0.0011924,-1.675e-07
0.1,2.4,0,3.01701,-0.00136317,-1.65e-07
0.1,2.5,0,3.01701,-0.00136317,-1.65e-07
0.1,2.6,0,3.01671,-0.00152996,-1.3e-07
0.1,2.7,0,3.01671,-0.00152996,-1.3e-07
0.1,2.8,0,3.01645,-0.00153377,-9.75e-08
0.1,2.9,0,3.01619,-0.00153758,-6.5e-08
0.1,3,0,3.01619,-0.00153758,-6.5e-08
0.1,3.1,0,3.01536,-0.00147212,-1.5e-08
0.1,3.2,0,3.01536,-0.00147212,-1.5e-08
0.1,3.3,0,3.01481,-0.00144624,-1.5e-08
0.1,3.4,0,3.01425,-0.00142037,-1.5e-08
0.1,3.5,0,3.01425,-0.00142037,-1.5e-08
0.1,3.6,0,3.01297,-0.00136319,-4e-08
0.1,3.7,0,3.01297,-0.00136319,-4e-08
0.1,3.8,0,3.01252,-0.00139855,-5.5e-08
0.1,3.9,0,3.01207,-0.00143392,-7e-08
0.1,4,0,3.01207,-0.00143392,-7e-08
0.1,4.1,0,3.01313,-0.0011946,-8e-08
0.1,4.2,0,3.01313,-0.0011946,-8e-08
0.1,4.3,0,3.01486,-0.000955725,-7e-08
0.1,4.4,0,3.0166,-0.00071685,-6e-08
0.1,4.5,0,3.0166,-0.00071685,-6e-08
0.1,4.6,0,3.01767,-0.0009269,-3.7e-08
0.1,4.7,0,3.01767,-0.0009269,-3.7e-08
0.1,4.8,0,3.01869,-0.00062418,-2.74131e-08
0.1,4.9,0,3.01971,-0.000321459,-1.78262e-08
0.1,5,0,3.01971,-0.000321459,-1.78262e-08
0.1,5.1,0,3.02242,4.7445e-05,-1.25e-08
0.1,5.2,0,3.02285,-0.000313035,-1.25e-08
0.1,5.3,0,3.02329,-0.000209165,-9e-09
0.1,5.4,0,3.0236,5.4655e-05,-1.15e-08
0.1,5.5,0,3.0237,0.000393148,-1.1e-08
0.1,5.6,0,3.02376,0.000754693,-6e-09
0.1,5.7,0,3.0237,0.00109007,1.56125e-18
0.1,5.8,0,3.02363,0.00135218,1.05e-08
0.1,5.9,0,3.02369,0.00113436,2.35e-08
0.1,6,0,3.02069,0.00173327,4.32134e-08
0.1,6.1,0,3.01696,0.00252098,4.34273e-08
0.1,6.2,0,3.01569,0.0027888,4.35e-08
0.1,6.3,0,3.01569,0.0027888,4.35e-08
0.1,6.4,0,3.01509,0.00271822,2.96754e-08
0.1,6.5,0,3.01446,0.0026433,1.5e-08
0.1,6.6,0,3.01446,0.0026433,1.5e-08
0.1,6.7,0,3.01427,0.00274701,9.40299e-09
0.1,6.8,0,3.01363,0.00309271,-9.25373e-09
0.1,6.9,0,3.0136,0.00310654,-1e-08
0.1,7,0,3.0136,0.00310654,-1e-08
0.1,7.1,0,3.014,0.00325773,-1.70896e-08
0.1,7.2,0,3.01416,0.0033198,-2e-08
0.1,7.3,0,3.01416,0.0033198,-2e-08
0.1,7.4,0,3.01468,0.00335474,-2.44776e-08
0.1,7.5,0,3.01531,0.00339783,-3e-08
0.1,7.6,0,3.01531,0.00339783,-3e-08
0.1,7.7,0,3.01548,0.00343771,-3.46642e-08
0.1,7.8,0,3.01613,0.00359721,-5.33209e-08
0.1,7.9,0,3.01619,0.00361157,-5.5e-08
0.1,8,0,3.01619,0.00361157,-5.5e-08
0.1,8.1,0,3.01653,0.0036636,-6.17164e-08
0.1,8.2,0,3.0167,0.00368903,-6.5e-08
0.1,8.3,0,3.0167,0.00368903,-6.5e-08
0.1,8.4,0,3.0168,0.00364368,-7.3209e-08
0.1,8.5,0,3.01695,0.00357854,-8.5e-08
0.1,8.6,0,3.01695,0.00357854,-8.5e-08
0.1,8.7,0,3.01697,0.00353657,-8.87313e-08
0.1,8.8,0,3.01706,0.00332672,-1.07388e-07
0.1,8.9,0,3.01708,0.00329734,-1.1e-07
0.1,9,0,3.01708,0.00329734,-1.1e-07
0.1,9.1,0,3.01711,0.00304049,-9.41418e-08
0.1,9.2,0,3.01713,0.00289243,-8.5e-08
0.1,9.3,0,3.01713,0.00289243,-8.5e-08
0.1,9.4,0,3.01715,0.00270967,-7.00746e-08
0.1,9.5,0,3.01717,0.00240265,-4.5e-08
0.1,9.6,0,3.01717,0.00240265,-4.5e-08
0.1,9.7,0,3.01717,0.00234054,-4.89179e-08
0.1,9.8,0,3.01719,0.00192645,-7.50373e-08
0.1,9.9,0,3.01719,0.00184778,-8e-08
0.1,10,0,3.01719,0.00184778,-8e-08
0.1,10.1,0,3.01721,0.00148443,-1.12836e-07
0.1,10.2,0,3.01722,0.00123917,-1.35e-07
0.1,10.3,0,3.01722,0.00123917,-1.35e-07
0.1,10.4,0,3.01723,0.000996051,-1.23246e-07
0.1,10.5,0,3.01726,0.000515212,-1e-07
0.1,10.6,0,3.01726,0.000515212,-1e-07
0.1,10.7,0,3.01727,0.000456146,-9.47761e-08
0.1,10.8,0,3.01731,-0.000134512,-4.25373e-08
0.1,10.9,0,3.01732,-0.00027627,-3e-08
0.1,11,0,3.01732,-0.00027627,-3e-08
0.1,11.1,0,3.0174,-0.000936497,6.3806e-09
0.1,11.2,0,3.01746,-0.00145588,3.5e-08
0.1,11.3,0,3.01746,-0.00145588,3.5e-08
0.1,11.4,0,3.01756,-0.00181691,4.84328e-08
0.1,11.5,0,3.01781,-0.00266533,8e-08
0.1,11.6,0,3.01781,-0.00266533,8e-08
0.1,11.7,0,3.01783,-0.0027946,8.05597e-08
0.1,11.8,0,3.01827,-0.00537994,9.17537e-08
0.1,11.9,0,3.0184,-0.00612968,9.5e-08
0.1,12,0,3.0184,-0.00612968,9.5e-08
0.1,12.1,0,3.01566,-0.00738706,1.05448e-07
0.1,12.2,0,3.01315,-0.00853666,1.15e-07
0.1,12.3,0,3.01315,-0.00853666,1.15e-07
0.1,12.4,0,2.69629,-0.00630694,8.49627e-08
0.1,12.5,0,1.79494,0,0
0.1,12.6,0,1.28905,0,0
0.1,12.7,0,0.783151,0,0
0.2,0,0,0.3,0,0
0.2,0.1,0,1.50953,0.0140767,-1.35e-07
0.2,0.2,0,2.71905,0.0281533,-2.7e-07
0.2,0.3,0,3.02425,0.0266149,-3e-07
0.2,0.4,0,3.03465,0.023538,-3.6e-07
0.2,0.5,0,3.03985,0.0219996,-3.9e-07
0.2,0.6,0,3.0387,0.0167919,-4.3e-07
0.2,0.7,0,3.03756,0.0115842,-4.7e-07
0.2,0.8,0,3.03719,0.0106643,-4.8e-07
0.2,0.9,0,3.03646,0.00882429,-5e-07
0.2,1,0,3.0361,0.00790431,-5.1e-07
0.2,1.1,0,3.03573,0.00611237,-5.15e-07
0.2,1.2,0,3.03537,0.00432043,-5.2e-07
0.2,1.3,0,3.03528,0.00376727,-5.15e-07
0.2,1.4,0,3.03511,0.00266096,-5.05e-07
0.2,1.5,0,3.03502,0.00210781,-5e-07
0.2,1.6,0,3.0349,0.00121839,-4.7e-07
0.2,1.7,0,3.03478,0.000328976,-4.4e-07
0.2,1.8,0,3.03473,-1.02197e-05,-4.25e-07
0.2,1.9,0,3.03464,-0.000688611,-3.95e-07
0.2,2,0,3.03459,-0.00102781,-3.8e-07
0.2,2.1,0,3.03448,-0.00153554,-3.6e-07
0.2,2.2,0,3.03437,-0.00204327,-3.4e-07
0.2,2.3,0,3.03428,-0.00221403,-3.375e-07
0.2,2.4,0,3.03411,-0.00255557,-3.325e-07
0.2,2.5,0,3.03402,-0.00272633,-3.3e-07
0.2,2.6,0,3.03372,-0.00289313,-2.95e-07
0.2,2.7,0,3.03342,-0.00305993,-2.6e-07
0.2,2.8,0,3.03315,-0.00306373,-2.275e-07
0.2,2.9,0,3.03263,-0.00307135,-1.625e-07
0.2,3,0,3.03237,-0.00307516,-1.3e-07
0.2,3.1,0,3.03155,-0.0030097,-8e-08
0.2,3.2,0,3.03073,-0.00294424,-3e-08
0.2,3.3,0,3.03017,-0.00291836,-3e-08
0.2,3.4,0,3.02906,-0.00286661,-3e-08
0.2,3.5,0,3.02851,-0.00284073,-3e-08
0.2,3.6,0,3.02722,-0.00278356,-5.5e-08
0.2,3.7,0,3.02594,-0.00272638,-8e-08
0.2,3.8,0,3.02549,-0.00276174,-9.5e-08
0.2,3.9,0,3.0246,-0.00283247,-1.25e-07
0.2,4,0,3.02415,-0.00286784,-1.4e-07
0.2,4.1,0,3.0252,-0.00262852,-1.5e-07
0.2,4.2,0,3.02626,-0.0023892,-1.6e-07
0.2,4.3,0,3.02799,-0.00215033,-1.5e-07
0.2,4.4,0,3.03146,-0.00167258,-1.3e-07
0.2,4.5,0,3.0332,-0.0014337,-1.2e-07
0.2,4.6,0,3.03427,-0.00164375,-9.7e-08
0.2,4.7,0,3.03535,-0.0018538,-7.4e-08
0.2,4.8,0,3.03637,-0.00155108,-6.44131e-08
0.2,4.9,0,3.03841,-0.000945639,-4.52394e-08
0.2,5,0,3.03943,-0.000642919,-3.56525e-08
0.2,5.1,0,3.04484,9.489e-05,-2.5e-08
0.2,5.2,0,3.04571,-0.00062607,-2.5e-08
0.2,5.3,0,3.04659,-0.00041833,-1.8e-08
0.2,5.4,0,3.0472,0.00010931,-2.3e-08
0.2,5.5,0,3.0474,0.000786296,-2.2e-08
0.2,5.6,0,3.04752,0.00150939,-1.2e-08
0.2,5.7,0,3.0474,0.00218014,3.1225e-18
0.2,5.8,0,3.04726,0.00270437,2.1e-08
0.2,5.9,0,3.04738,0.00226871,4.7e-08
0.2,6,0,3.04138,0.00346654,8.64268e-08
0.2,6.1,0,3.03765,0.00425425,8.66407e-08
0.2,6.2,0,3.03392,0.00504196,8.68546e-08
0.2,6.3,0,3.03138,0.0055776,8.7e-08
0.2,6.4,0,3.03078,0.00550702,7.31754e-08
0.2,6.5,0,3.02987,0.00539844,5.19067e-08
0.2,6.6,0,3.02895,0.00528986,3.06381e-08
0.2,6.7,0,3.02873,0.00539031,2.4403e-08
0.2,6.8,0,3.02809,0.00573601,5.74627e-09
0.2,6.9,0,3.02745,0.0060817,-1.29104e-08
0.2,7,0,3.0272,0.00621307,-2e-08
0.2,7.1,0,3.0276,0.00636427,-2.70896e-08
0.2,7.2,0,3.02801,0.00652343,-3.45522e-08
0.2,7.3,0,3.02832,0.00663961,-4e-08
0.2,7.4,0,3.02883,0.00667455,-4.44776e-08
0.2,7.5,0,3.0297,0.00673278,-5.19403e-08
0.2,7.6,0,3.03056,0.00679101,-5.9403e-08
0.2,7.7,0,3.03079,0.00683555,-6.46642e-08
0.2,7.8,0,3.03144,0.00699505,-8.33209e-08
0.2,7.9,0,3.03209,0.00715455,-1.01978e-07
0.2,8,0,3.03237,0.00722314,-1.1e-07
0.2,8.1,0,3.03272,0.00727516,-1.16716e-07
0.2,8.2,0,3.0331,0.00733297,-1.24179e-07
0.2,8.3,0,3.0334,0.00737806,-1.3e-07
0.2,8.4,0,3.0335,0.00733271,-1.38209e-07
0.2,8.5,0,3.03369,0.00725025,-1.53134e-07
0.2,8.6,0,3.03389,0.0071678,-1.6806e-07
0.2,8.7,0,3.03393,0.00711511,-1.73731e-07
0.2,8.8,0,3.03402,0.00690526,-1.92388e-07
0.2,8.9,0,3.03411,0.00669541,-2.11045e-07
0.2,9,0,3.03415,0.00659468,-2.2e-07
0.2,9.1,0,3.03419,0.00633783,-2.04142e-07
0.2,9.2,0,3.03423,0.00603565,-1.85485e-07
0.2,9.3,0,3.03427,0.00578485,-1.7e-07
0.2,9.4,0,3.03428,0.0056021,-1.55075e-07
0.2,9.5,0,3.0343,0.0052366,-1.25224e-07
0.2,9.6,0,3.03433,0.0048711,-9.53731e-08
0.2,9.7,0,3.03433,0.00474319,-9.39179e-08
0.2,9.8,0,3.03435,0.00432911,-1.20037e-07
0.2,9.9,0,3.03437,0.00391502,-1.46157e-07
0.2,10,0,3.03438,0.00369555,-1.6e-07
0.2,10.1,0,3.0344,0.00333221,-1.92836e-07
0.2,10.2,0,3.03442,0.00287803,-2.33881e-07
0.2,10.3,0,3.03443,0.00247834,-2.7e-07
0.2,10.4,0,3.03445,0.00223522,-2.58246e-07
0.2,10.5,0,3.03448,0.00169495,-2.32127e-07
0.2,10.6,0,3.03452,0.00115469,-2.06007e-07
0.2,10.7,0,3.03453,0.000971358,-1.94776e-07
0.2,10.8,0,3.03457,0.0003807,-1.42537e-07
0.2,10.9,0,3.03461,-0.000209959,-9.02985e-08
0.2,11,0,3.03463,-0.000552541,-6e-08
0.2,11.1,0,3.03472,-0.00121277,-2.36194e-08
0.2,11.2,0,3.03482,-0.00209307,2.48881e-08
0.2,11.3,0,3.03492,-0.00291175,7e-08
0.2,11.4,0,3.03503,-0.00327278,8.34328e-08
0.2,11.5,0,3.03528,-0.00417536,1.17015e-07
0.2,11.6,0,3.03554,-0.00507794,1.50597e-07
0.2,11.7,0,3.03563,-0.00545993,1.6056e-07
0.2,11.8,0,3.03608,-0.00804527,1.71754e-07
0.2,11.9,0,3.03652,-0.0106306,1.82948e-07
0.2,12,0,3.0368,-0.0122594,1.9e-07
0.2,12.1,0,3.03406,-0.0135167,2.00448e-07
0.2,12.2,0,3.03014,-0.015313,2.15373e-07
0.2,12.3,0,3.02631,-0.0170733,2.3e-07
0.2,12.4,0,2.70944,-0.0148436,1.99963e-07
0.2,12.5,0,1.8041,-0.00847295,1.14142e-07
0.2,12.6,0,0.898762,-0.00210231,2.83209e-08
0.2,12.7,0,0.26105,0,0
0.3,0,0,0,0,0
0.3,0.1,0,1.228,0.0164924,-2e-08
0.3,0.2,0,2.43752,0.030569,-1.55e-07
0.3,0.3,0,3.05162,0.0360151,-2.35e-07
0.3,0.4,0,3.06202,0.0329382,-2.95e-07
0.3,0.5,0,3.07242,0.0298613,-3.55e-07
0.3,0.6,0,3.07039,0.024178,-3.475e-07
0.3,0.7,0,3.06925,0.0189703,-3.875e-07
0.3,0.8,0,3.06761,0.0149866,-3.85e-07
0.3,0.9,0,3.06688,0.0131466,-4.05e-07
0.3,1,0,3.06615,0.0113066,-4.25e-07
0.3,1.1,0,3.06542,0.00892664,-4.125e-07
0.3,1.2,0,3.06505,0.0071347,-4.175e-07
0.3,1.3,0,3.06457,0.00527808,-4.125e-07
0.3,1.4,0,3.06439,0.00417177,-4.025e-07
0.3,1.5,0,3.06422,0.00306546,-3.925e-07
0.3,1.6,0,3.06395,0.00180118,-3.9e-07
0.3,1.7,0,3.06383,0.000911762,-3.6e-07
0.3,1.8,0,3.06359,-0.000183783,-3.475e-07
0.3,1.9,0,3.0635,-0.000862174,-3.175e-07
0.3,2,0,3.0634,-0.00154057,-2.875e-07
0.3,2.1,0,3.06316,-0.00233023,-2.875e-07
0.3,2.2,0,3.06305,-0.00283796,-2.675e-07
0.3,2.3,0,3.06275,-0.00355106,-2.875e-07
0.3,2.4,0,3.06258,-0.00389259,-2.825e-07
0.3,2.5,0,3.06241,-0.00423413,-2.775e-07
0.3,2.6,0,3.06191,-0.00474284,-2.75e-07
0.3,2.7,0,3.06161,-0.00490963,-2.4e-07
0.3,2.8,0,3.06097,-0.0054506,-2.6e-07
0.3,2.9,0,3.06045,-0.00545821,-1.95e-07
0.3,3,0,3.05992,-0.00546583,-1.3e-07
0.3,3.1,0,3.05887,-0.0060054,-1.325e-07
0.3,3.2,0,3.05804,-0.00593995,-8.25e-08
0.3,3.3,0,3.05686,-0.00672277,-4.5e-08
0.3,3.4,0,3.05575,-0.00667102,-4.5e-08
0.3,3.5,0,3.05464,-0.00661926,-4.5e-08
0.3,3.6,0,3.05312,-0.00769489,-5e-08
0.3,3.7,0,3.05184,-0.00763771,-7.5e-08
0.3,3.8,0,3.05037,-0.00898008,-8.5e-08
0.3,3.9,0,3.04947,-0.00905081,-1.15e-07
0.3,4,0,3.04858,-0.00912154,-1.45e-07
0.3,4.1,0,3.04904,-0.0096432,-1.45e-07
0.3,4.2,0,3.05009,-0.00940388,-1.55e-07
0.3,4.3,0,3.05125,-0.00784376,-1.425e-07
0.3,4.4,0,3.05473,-0.00736602,-1.225e-07
0.3,4.5,0,3.0582,-0.00688827,-1.025e-07
0.3,4.6,0,3.06245,-0.00317043,-6.35e-08
0.3,4.7,0,3.06353,-0.00338048,-4.05e-08
0.3,4.8,0,3.07025,-0.000470366,-2.18063e-08
0.3,4.9,0,3.07229,0.000135075,-2.6325e-09
0.3,5,0,3.07433,0.000740515,1.65413e-08
0.3,5.1,0,3.08157,0.00167157,2e-08
0.3,5.2,0,3.08167,0.00061425,1.25e-08
0.3,5.3,0,3.08186,0.000623708,1.95e-08
0.3,5.4,0,3.08206,0.00101393,1.2e-08
0.3,5.5,0,3.08209,0.00157775,1.05e-08
0.3,5.6,0,3.08222,0.00219602,1.8e-08
0.3,5.7,0,3.08231,0.00276998,2.5e-08
0.3,5.8,0,3.08266,0.00318246,4.35e-08
0.3,5.9,0,3.08364,0.0024205,6.95e-08
0.3,6,0,3.0765,0.00363865,1.11427e-07
0.3,6.1,0,3.06884,0.00687751,1.03997e-07
0.3,6.2,0,3.06511,0.00766522,1.04211e-07
0.3,6.3,0,3.06138,0.00845293,1.04425e-07
0.3,6.4,0,3.05633,0.0116641,8.99478e-08
0.3,6.5,0,3.05531,0.011648,6.86567e-08
0.3,6.6,0,3.05439,0.0115394,4.73881e-08
0.3,6.7,0,3.05384,0.0115648,2.24254e-08
0.3,6.8,0,3.05355,0.0119076,-1.75373e-09
0.3,6.9,0,3.05291,0.0122533,-2.04104e-08
0.3,7,0,3.05227,0.012599,-3.90672e-08
0.3,7.1,0,3.05301,0.0118489,-4.20896e-08
0.3,7.2,0,3.05343,0.012008,-4.95522e-08
0.3,7.3,0,3.05384,0.0121672,-5.70149e-08
0.3,7.4,0,3.0549,0.011465,-6.89552e-08
0.3,7.5,0,3.0558,0.0114299,-7.69403e-08
0.3,7.6,0,3.05667,0.0114881,-8.4403e-08
0.3,7.7,0,3.0576,0.0113504,-1.02127e-07
0.3,7.8,0,3.05846,0.0111382,-1.33321e-07
0.3,7.9,0,3.05911,0.0112977,-1.51978e-07
0.3,8,0,3.05976,0.0114572,-1.70634e-07
0.3,8.1,0,3.06042,0.0111228,-1.49216e-07
0.3,8.2,0,3.06081,0.0111807,-1.56679e-07
0.3,8.3,0,3.06119,0.0112385,-1.64142e-07
0.3,8.4,0,3.06162,0.0110038,-1.4903e-07
0.3,8.5,0,3.06184,0.0108743,-1.58134e-07
0.3,8.6,0,3.06203,0.0107918,-1.7306e-07
0.3,8.7,0,3.06224,0.0106201,-1.80522e-07
0.3,8.8,0,3.06241,0.0102602,-1.79888e-07
0.3,8.9,0,3.0625,0.0100503,-1.98545e-07
0.3,9,0,3.06259,0.00984046,-2.17201e-07
0.3,9.1,0,3.06271,0.00934087,-1.74142e-07
0.3,9.2,0,3.06276,0.0090387,-1.55485e-07
0.3,9.3,0,3.0628,0.00873652,-1.36828e-07
0.3,9.4,0,3.06287,0.00823068,-1.06978e-07
0.3,9.5,0,3.0629,0.0078067,-7.52239e-08
0.3,9.6,0,3.06293,0.0074412,-4.53731e-08
0.3,9.7,0,3.06296,0.0070111,-2.33582e-08
0.3,9.8,0,3.063,0.00639833,-4.75373e-08
0.3,9.9,0,3.06302,0.00598425,-7.36567e-08
0.3,10,0,3.06304,0.00557016,-9.97761e-08
0.3,10.1,0,3.06309,0.00484654,-1.05336e-07
0.3,10.2,0,3.06311,0.00439235,-1.46381e-07
0.3,10.3,0,3.06313,0.00393817,-1.87425e-07
0.3,10.4,0,3.0632,0.00322212,-2.03284e-07
0.3,10.5,0,3.06325,0.00257277,-1.79627e-07
0.3,10.6,0,3.06328,0.0020325,-1.53507e-07
0.3,10.7,0,3.06333,0.00143593,-1.35597e-07
0.3,10.8,0,3.06343,0.000553057,-1.45037e-07
0.3,10.9,0,3.06347,-3.76017e-05,-9.27985e-08
0.3,11,0,3.06351,-0.00062826,-4.05597e-08
0.3,11.1,0,3.06376,-0.00189991,-3.11194e-08
0.3,11.2,0,3.06387,-0.00278022,1.73881e-08
0.3,11.3,0,3.06398,-0.00366052,6.58955e-08
0.3,11.4,0,3.06436,-0.00479647,1.21866e-07
0.3,11.5,0,3.06476,-0.00586559,1.64515e-07
0.3,11.6,0,3.06502,-0.00676817,1.98097e-07
0.3,11.7,0,3.06532,-0.0077987,2.32052e-07
0.3,11.8,0,3.06625,-0.0109273,2.61754e-07
0.3,11.9,0,3.06669,-0.0135126,2.72948e-07
0.3,12,0,3.06713,-0.016098,2.84142e-07
0.3,12.1,0,3.06275,-0.0184422,2.22948e-07
0.3,12.2,0,3.05883,-0.0202385,2.37873e-07
0.3,12.3,0,3.05492,-0.0220347,2.52799e-07
0.3,12.4,0,2.72532,-0.0200006,2.45522e-07
0.3,12.5,0,1.81068,-0.0127413,1.71642e-07
0.3,12.6,0,0.905338,-0.00637064,8.58209e-08
0.3,12.7,0,0,0,0
0.4,0,0,0,0,0
0.4,0.1,0,1.24647,0.0189081,9.5e-08
0.4,0.2,0,2.47447,0.0354004,7.5e-08
0.4,0.3,0,3.08856,0.0408465,-5e-09
0.4,0.4,0,3.10724,0.0376619,-3e-08
0.4,0.5,0,3.11763,0.034585,-9e-08
0.4,0.6,0,3.11473,0.028426,-3.5e-08
0.4,0.7,0,3.11271,0.0227427,-2.75e-08
0.4,0.8,0,3.11107,0.0187589,-2.5e-08
0.4,0.9,0,3.10894,0.0159991,2e-08
0.4,1,0,3.10821,0.0141591,2.68891e-18
0.4,1.1,0,3.1071,0.0111911,3e-08
0.4,1.2,0,3.10637,0.00881109,4.25e-08
0.4,1.3,0,3.10588,0.00695447,4.75e-08
0.4,1.4,0,3.10528,0.00503318,6.25e-08
0.4,1.5,0,3.10511,0.00392687,7.25e-08
0.4,1.6,0,3.10468,0.00228771,4.75e-08
0.4,1.7,0,3.10441,0.00102343,5e-08
0.4,1.8,0,3.10418,-7.21161e-05,6.25e-08
0.4,1.9,0,3.10384,-0.00137379,5.75e-08
0.4,2,0,3.10374,-0.00205218,8.75e-08
0.4,2.1,0,3.10337,-0.00312378,6.75e-08
0.4,2.2,0,3.10313,-0.00391345,6.75e-08
0.4,2.3,0,3.10283,-0.00462655,4.75e-08
0.4,2.4,0,3.10234,-0.00554502,-1.25e-08
0.4,2.5,0,3.10217,-0.00588655,-7.5e-09
0.4,2.6,0,3.10147,-0.00673717,-3.75e-08
0.4,2.7,0,3.10097,-0.00724588,-3.5e-08
0.4,2.8,0,3.10034,-0.00778685,-5.5e-08
0.4,2.9,0,3.09937,-0.00870198,-1.3e-07
0.4,3,0,3.09884,-0.0087096,-6.5e-08
0.4,3.1,0,3.09755,-0.00985421,-1.2e-07
0.4,3.2,0,3.09649,-0.0103938,-1.225e-07
0.4,3.3,0,3.0953,-0.0111766,-8.5e-08
0.4,3.4,0,3.09375,-0.0128077,-6e-08
0.4,3.5,0,3.09264,-0.012756,-6e-08
0.4,3.6,0,3.09089,-0.0149644,-4.5e-08
0.4,3.7,0,3.08937,-0.01604,-5e-08
0.4,3.8,0,3.08791,-0.0173824,-6e-08
0.4,3.9,0,3.08626,-0.0201243,-5.5e-08
0.4,4,0,3.08536,-0.020195,-8.5e-08
0.4,4.1,0,3.08523,-0.0214777,-7.5e-08
0.4,4.2,0,3.0857,-0.0219993,-7.5e-08
0.4,4.3,0,3.08686,-0.0204392,-6.25e-08
0.4,4.4,0,3.08812,-0.0175583,-2.75e-08
0.4,4.5,0,3.09159,-0.0170805,-7.5e-09
0.4,4.6,0,3.09903,-0.00943482,4.75e-08
0.4,4.7,0,3.10328,-0.00571698,8.65e-08
0.4,4.8,0,3.11001,-0.00280687,1.05194e-07
0.4,4.9,0,3.12238,0.0032234,1.19581e-07
0.4,5,0,3.12442,0.00382884,1.38755e-07
0.4,5.1,0,3.13262,0.00477749,1.225e-07
0.4,5.2,0,3.13075,0.00340792,1e-07
0.4,5.3,0,3.12912,0.00291695,1.035e-07
0.4,5.4,0,3.12818,0.00276852,9.35e-08
0.4,5.5,0,3.12778,0.00276752,8.65e-08
0.4,5.6,0,3.12787,0.00281458,8.4e-08
0.4,5.7,0,3.12843,0.0028596,7.5e-08
0.4,5.8,0,3.12982,0.00278646,7.8e-08
0.4,5.9,0,3.13246,0.00158973,9.1e-08
0.4,6,0,3.12607,0.00224962,1.18213e-07
0.4,6.1,0,3.11647,0.00669576,1.07019e-07
0.4,6.2,0,3.10686,0.0111419,9.58254e-08
0.4,6.3,0,3.10307,0.0119662,9.59251e-08
0.4,6.4,0,3.09802,0.0151773,8.14478e-08
0.4,6.5,0,3.09226,0.0196934,5.90597e-08
0.4,6.6,0,3.0896,0.0212497,3.73881e-08
0.4,6.7,0,3.08905,0.0212751,1.24254e-08
0.4,6.8,0,3.08934,0.0216131,-2.11567e-08
0.4,6.9,0,3.08937,0.0219533,-5.04104e-08
0.4,7,0,3.08873,0.022299,-6.90672e-08
0.4,7.1,0,3.08963,0.0211649,-7e-08
0.4,7.2,0,3.09062,0.0199529,-7e-08
0.4,7.3,0,3.09107,0.0200298,-7.70149e-08
0.4,7.4,0,3.09213,0.0193277,-8.89552e-08
0.4,7.5,0,3.09361,0.0180514,-1.03881e-07
0.4,7.6,0,3.09473,0.0175624,-1.14403e-07
0.4,7.7,0,3.09566,0.0174247,-1.32127e-07
0.4,7.8,0,3.0968,0.0166992,-1.80634e-07
0.4,7.9,0,3.09782,0.016186,-2.21978e-07
0.4,8,0,3.09847,0.0163455,-2.40634e-07
0.4,8.1,0,3.09922,0.0158731,-2.08918e-07
0.4,8.2,0,3.09999,0.0153305,-1.71604e-07
0.4,8.3,0,3.10041,0.0153222,-1.74142e-07
0.4,8.4,0,3.10084,0.0150875,-1.5903e-07
0.4,8.5,0,3.10131,0.0146135,-1.25448e-07
0.4,8.6,0,3.10163,0.0143509,-1.1806e-07
0.4,8.7,0,3.10183,0.0141791,-1.25522e-07
0.4,8.8,0,3.1021,0.01365,-1.03134e-07
0.4,8.9,0,3.10233,0.0131816,-8.85448e-08
0.4,9,0,3.10242,0.0129717,-1.07201e-07
0.4,9.1,0,3.10256,0.0124154,-5.60821e-08
0.4,9.2,0,3.10271,0.0117979,7.35075e-09
0.4,9.3,0,3.10277,0.0114453,3.31716e-08
0.4,9.4,0,3.10284,0.0109394,6.30224e-08
0.4,9.5,0,3.10293,0.0102299,1.04067e-07
0.4,9.6,0,3.10299,0.00968898,1.39627e-07
0.4,9.7,0,3.10302,0.00925888,1.61642e-07
0.4,9.8,0,3.10309,0.00846272,1.39254e-07
0.4,9.9,0,3.10316,0.00772004,1.16343e-07
0.4,10,0,3.10318,0.00730596,9.02239e-08
0.4,10.1,0,3.10324,0.0065285,9.09701e-08
0.4,10.2,0,3.10331,0.0056602,9.84328e-08
0.4,10.3,0,3.10334,0.00511905,6.75746e-08
0.4,10.4,0,3.1034,0.004403,5.17164e-08
0.4,10.5,0,3.10352,0.0033669,6.66418e-08
0.4,10.6,0,3.10359,0.00254896,8.64925e-08
0.4,10.7,0,3.10364,0.00195239,1.04403e-07
0.4,10.8,0,3.10379,0.000849075,4.84328e-08
0.4,10.9,0,3.10394,-0.000208099,2.20149e-09
0.4,11,0,3.10398,-0.000798758,5.44403e-08
0.4,11.1,0,3.10425,-0.00212579,5.91045e-08
0.4,11.2,0,3.10459,-0.00369827,4.79104e-08
0.4,11.3,0,3.10476,-0.00475854,8.08955e-08
0.4,11.4,0,3.10514,-0.00589449,1.36866e-07
0.4,11.5,0,3.10593,-0.00741391,2.0403e-07
0.4,11.6,0,3.10651,-0.00869276,2.58097e-07
0.4,11.7,0,3.10681,-0.00972329,2.92052e-07
0.4,11.8,0,3.10804,-0.0131849,3.33097e-07
0.4,11.9,0,3.10923,-0.0166114,3.72948e-07
0.4,12,0,3.10967,-0.0191967,3.84142e-07
0.4,12.1,0,3.1052,-0.0215549,3.1959e-07
0.4,12.2,0,3.09863,-0.0238157,2.22575e-07
0.4,12.3,0,3.09389,-0.0257559,2.02799e-07
0.4,12.4,0,2.7643,-0.0237218,1.95522e-07
0.4,12.5,0,1.82987,-0.0145741,1.47015e-07
0.4,12.6,0,0.905338,-0.00637064,8.58209e-08
0.4,12.7,0,0,0,0
0.5,0,0,0,0,0
0.5,0.1,0,1.24647,0.0189081,9.5e-08
0.5,0.2,0,2.49294,0.0378161,1.9e-07
0.5,0.3,0,3.12551,0.0456779,2.25e-07
0.5,0.4,0,3.14418,0.0424933,2e-07
0.5,0.5,0,3.16285,0.0393087,1.75e-07
0.5,0.6,0,3.15995,0.0331497,2.3e-07
0.5,0.7,0,3.15705,0.0269907,2.85e-07
0.5,0.8,0,3.15453,0.0225313,3.35e-07
0.5,0.9,0,3.1524,0.0197714,3.8e-07
0.5,1,0,3.15027,0.0170116,4.25e-07
0.5,1.1,0,3.14916,0.0140436,4.55e-07
0.5,1.2,0,3.14805,0.0110755,4.85e-07
0.5,1.3,0,3.1472,0.00863086,5.075e-07
0.5,1.4,0,3.1466,0.00670957,5.225e-07
0.5,1.5,0,3.146,0.00478827,5.375e-07
0.5,1.6,0,3.14557,0.00314912,5.125e-07
0.5,1.7,0,3.14515,0.00150996,4.875e-07
0.5,1.8,0,3.14477,3.95507e-05,4.725e-07
0.5,1.9,0,3.14442,-0.00126212,4.675e-07
0.5,2,0,3.14408,-0.00256379,4.625e-07
0.5,2.1,0,3.1437,-0.0036354,4.425e-07
0.5,2.2,0,3.14333,-0.004707,4.225e-07
0.5,2.3,0,3.1429,-0.00570204,3.825e-07
0.5,2.4,0,3.14241,-0.0066205,3.225e-07
0.5,2.5,0,3.14192,-0.00753897,2.625e-07
0.5,2.6,0,3.14123,-0.00838959,2.325e-07
0.5,2.7,0,3.14054,-0.00924022,2.025e-07
0.5,2.8,0,3.13971,-0.0101231,1.5e-07
0.5,2.9,0,3.13873,-0.0110382,7.5e-08
0.5,3,0,3.13776,-0.0119534,1.5384e-17
0.5,3.1,0,3.13647,-0.013098,-5.5e-08
0.5,3.2,0,3.13518,-0.0142426,-1.1e-07
0.5,3.3,0,3.13375,-0.0156304,-1.25e-07
0.5,3.4,0,3.1322,-0.0172616,-1e-07
0.5,3.5,0,3.13065,-0.0188927,-7.5e-08
0.5,3.6,0,3.12889,-0.0211011,-6e-08
0.5,3.7,0,3.12714,-0.0233095,-4.5e-08
0.5,3.8,0,3.12544,-0.0257847,-3.5e-08
0.5,3.9,0,3.12379,-0.0285266,-3e-08
0.5,4,0,3.12214,-0.0312685,-2.5e-08
0.5,4.1,0,3.12202,-0.0325512,-1.5e-08
0.5,4.2,0,3.12189,-0.0338338,-5e-09
0.5,4.3,0,3.12246,-0.0330347,1.75e-08
0.5,4.4,0,3.12372,-0.0301537,5.25e-08
0.5,4.5,0,3.12499,-0.0272728,8.75e-08
0.5,4.6,0,3.13242,-0.0196271,1.425e-07
0.5,4.7,0,3.13986,-0.0119814,1.975e-07
0.5,4.8,0,3.14976,-0.00514338,2.32194e-07
0.5,4.9,0,3.16214,0.000886897,2.46581e-07
0.5,5,0,3.17451,0.00691717,2.60969e-07
0.5,5.1,0,3.18366,0.0078834,2.25e-07
0.5,5.2,0,3.17982,0.0062016,1.875e-07
0.5,5.3,0,3.17637,0.00521019,1.875e-07
0.5,5.4,0,3.17429,0.00452311,1.75e-07
0.5,5.5,0,3.17347,0.00395729,1.625e-07
0.5,5.6,0,3.17351,0.00343315,1.5e-07
0.5,5.7,0,3.17455,0.00294921,1.25e-07
0.5,5.8,0,3.17698,0.00239045,1.125e-07
0.5,5.9,0,3.18127,0.00075895,1.125e-07
0.5,6,0,3.17564,0.000860581,1.25e-07
0.5,6.1,0,3.16604,0.00530672,1.13806e-07
0.5,6.2,0,3.15643,0.00975286,1.02612e-07
0.5,6.3,0,3.14682,0.014199,9.14179e-08
0.5,6.4,0,3.13972,0.0186906,7.29478e-08
0.5,6.5,0,3.13395,0.0232067,5.05597e-08
0.5,6.6,0,3.12819,0.0277227,2.81716e-08
0.5,6.7,0,3.12425,0.0309854,2.42537e-09
0.5,6.8,0,3.12455,0.0313234,-3.11567e-08
0.5,6.9,0,3.12485,0.0316614,-6.47388e-08
0.5,7,0,3.12515,0.0319994,-9.83209e-08
0.5,7.1,0,3.1261,0.0308649,-1e-07
0.5,7.2,0,3.12709,0.0296529,-1e-07
0.5,7.3,0,3.12807,0.0284409,-1e-07
0.5,7.4,0,3.12936,0.0271903,-1.08955e-07
0.5,7.5,0,3.13084,0.025914,-1.23881e-07
0.5,7.6,0,3.13232,0.0246377,-1.38806e-07
0.5,7.7,0,3.13372,0.023499,-1.62127e-07
0.5,7.8,0,3.13486,0.0227735,-2.10634e-07
0.5,7.9,0,3.136,0.022048,-2.59142e-07
0.5,8,0,3.13714,0.0213224,-3.07649e-07
0.5,8.1,0,3.13794,0.0207615,-2.78918e-07
0.5,8.2,0,3.1387,0.0202189,-2.41604e-07
0.5,8.3,0,3.13946,0.0196762,-2.04291e-07
0.5,8.4,0,3.14006,0.0191713,-1.6903e-07
0.5,8.5,0,3.14053,0.0186973,-1.35448e-07
0.5,8.6,0,3.141,0.0182233,-1.01866e-07
0.5,8.7,0,3.14143,0.0177382,-7.05224e-08
0.5,8.8,0,3.14169,0.0172091,-4.81343e-08
0.5,8.9,0,3.14196,0.01668,-2.57463e-08
0.5,9,0,3.14223,0.0161509,-3.35821e-09
0.5,9.1,0,3.14239,0.0155467,5.39179e-08
0.5,9.2,0,3.14254,0.0149292,1.17351e-07
0.5,9.3,0,3.14269,0.0143117,1.80784e-07
0.5,9.4,0,3.14281,0.0136482,2.33022e-07
0.5,9.5,0,3.14291,0.0129387,2.74067e-07
0.5,9.6,0,3.143,0.0122292,3.15112e-07
0.5,9.7,0,3.14309,0.0115067,3.46642e-07
0.5,9.8,0,3.14316,0.0107105,3.24254e-07
0.5,9.9,0,3.14323,0.00991433,3.01866e-07
0.5,10,0,3.1433,0.00911817,2.79478e-07
0.5,10.1,0,3.14337,0.00826429,2.8097e-07
0.5,10.2,0,3.14345,0.00739599,2.88433e-07
0.5,10.3,0,3.14352,0.00652769,2.95896e-07
0.5,10.4,0,3.14361,0.00558388,3.06716e-07
0.5,10.5,0,3.14372,0.00454778,3.21642e-07
0.5,10.6,0,3.14384,0.00351167,3.36567e-07
0.5,10.7,0,3.14395,0.00246885,3.44403e-07
0.5,10.8,0,3.14411,0.00136554,2.88433e-07
0.5,10.9,0,3.14426,0.000262222,2.32463e-07
0.5,11,0,3.14441,-0.000841092,1.76493e-07
0.5,11.1,0,3.14471,-0.00229628,1.54104e-07
0.5,11.2,0,3.14505,-0.00386877,1.4291e-07
0.5,11.3,0,3.1454,-0.00544126,1.31716e-07
0.5,11.4,0,3.14592,-0.00699252,1.51866e-07
0.5,11.5,0,3.14671,-0.00851193,2.1903e-07
0.5,11.6,0,3.1475,-0.0100313,2.86194e-07
0.5,11.7,0,3.14831,-0.0116479,3.52052e-07
0.5,11.8,0,3.14953,-0.0151094,3.93097e-07
0.5,11.9,0,3.15075,-0.018571,4.34142e-07
0.5,12,0,3.15197,-0.0220326,4.75187e-07
0.5,12.1,0,3.14774,-0.0246536,4.1959e-07
0.5,12.2,0,3.14116,-0.0269144,3.22575e-07
0.5,12.3,0,3.13459,-0.0291752,2.2556e-07
0.5,12.4,0,2.80327,-0.0274431,1.45522e-07
0.5,12.5,0,1.86885,-0.0182954,9.70149e-08
0.5,12.6,0,0.934423,-0.00914769,4.85075e-08
0.5,12.7,0,0,0,0
0.6,0,0,0,0,0
0.6,0.1,0,1.28286,0.0200516,3.5e-08
0.6,0.2,0,2.52933,0.0389597,1.3e-07
0.6,0.3,0,3.1681,0.047122,1.975e-07
0.6,0.4,0,3.19297,0.0442379,2.05e-07
0.6,0.5,0,3.21164,0.0410533,1.8e-07
0.6,0.6,0,3.2081,0.0351988,2.1e-07
0.6,0.7,0,3.2052,0.0290398,2.65e-07
0.6,0.8,0,3.20212,0.0243636,2.95e-07
0.6,0.9,0,3.19943,0.0213871,3.2e-07
0.6,1,0,3.1973,0.0186272,3.65e-07
0.6,1.1,0,3.1955,0.0149587,3.6e-07
0.6,1.2,0,3.19439,0.0119906,3.9e-07
0.6,1.3,0,3.19329,0.00923653,4.05e-07
0.6,1.4,0,3.19246,0.00700583,4.125e-07
0.6,1.5,0,3.19186,0.00508453,4.275e-07
0.6,1.6,0,3.19109,0.00277108,4.275e-07
0.6,1.7,0,3.19066,0.00113192,4.025e-07
0.6,1.8,0,3.19016,-0.000647525,3.875e-07
0.6,1.9,0,3.18969,-0.00225823,3.825e-07
0.6,2,0,3.18935,-0.00355991,3.775e-07
0.6,2.1,0,3.18883,-0.00521588,3.475e-07
0.6,2.2,0,3.18845,-0.00628749,3.275e-07
0.6,2.3,0,3.18801,-0.007546,3.3e-07
0.6,2.4,0,3.18752,-0.00872794,3.125e-07
0.6,2.5,0,3.18703,-0.0096464,2.525e-07
0.6,2.6,0,3.18653,-0.0109122,2.625e-07
0.6,2.7,0,3.18584,-0.0117628,2.325e-07
0.6,2.8,0,3.18527,-0.0127688,1.975e-07
0.6,2.9,0,3.18457,-0.013807,1.4e-07
0.6,3,0,3.1836,-0.0147222,6.5e-08
0.6,3.1,0,3.18329,-0.0158799,6e-08
0.6,3.2,0,3.182,-0.0170245,5e-09
0.6,3.3,0,3.18125,-0.0182963,-1.25e-08
0.6,3.4,0,3.18038,-0.0198114,1e-08
0.6,3.5,0,3.17883,-0.0214425,3.5e-08
0.6,3.6,0,3.1785,-0.0232406,4e-08
0.6,3.7,0,3.17675,-0.025449,5.5e-08
0.6,3.8,0,3.17514,-0.0277629,7e-08
0.6,3.9,0,3.17359,-0.0303436,8e-08
0.6,4,0,3.17194,-0.0330855,8.5e-08
0.6,4.1,0,3.16908,-0.0350364,9e-08
0.6,4.2,0,3.16895,-0.036319,1e-07
0.6,4.3,0,3.16654,-0.036613,9.5e-08
0.6,4.4,0,3.16481,-0.0348252,1.025e-07
0.6,4.5,0,3.16608,-0.0319443,1.375e-07
0.6,4.6,0,3.16424,-0.0290702,1.125e-07
0.6,4.7,0,3.17168,-0.0214245,1.675e-07
0.6,4.8,0,3.18077,-0.0150037,1.90613e-07
0.6,4.9,0,3.19234,-0.00939071,1.93419e-07
0.6,5,0,3.20471,-0.00336044,2.07806e-07
0.6,5.1,0,3.21821,0.00023934,1.95e-07
0.6,5.2,0,3.21613,0.00037135,1.725e-07
0.6,5.3,0,3.21357,0.00140316,1.775e-07
0.6,5.4,0,3.21196,0.00253041,1.75e-07
0.6,5.5,0,3.21125,0.00378205,1.675e-07
0.6,5.6,0,3.21131,0.00506591,1.5e-07
0.6,5.7,0,3.21216,0.00632728,1.25e-07
0.6,5.8,0,3.21425,0.00777697,1.075e-07
0.6,5.9,0,3.21769,0.00801964,9.25e-08
0.6,6,0,3.20829,0.011704,7.89767e-08
0.6,6.1,0,3.19983,0.0167626,7.22777e-08
0.6,6.2,0,3.19061,0.0214169,6.26119e-08
0.6,6.3,0,3.181,0.0258631,5.14179e-08
0.6,6.4,0,3.17847,0.0283284,5.47761e-08
0.6,6.5,0,3.17756,0.0306936,5.55597e-08
0.6,6.6,0,3.1718,0.0352097,3.31716e-08
0.6,6.7,0,3.16874,0.0381458,2.42164e-08
0.6,6.8,0,3.17196,0.0373954,4.66045e-08
0.6,6.9,0,3.17237,0.0376899,1.52612e-08
0.6,7,0,3.17267,0.0380279,-1.83209e-08
0.6,7.1,0,3.1738,0.036224,8.35821e-09
0.6,7.2,0,3.17486,0.0347372,2e-08
0.6,7.3,0,3.17584,0.0335252,2e-08
0.6,7.4,0,3.17662,0.0321738,2.22388e-08
0.6,7.5,0,3.17748,0.0307732,2.11194e-08
0.6,7.6,0,3.17896,0.0294969,6.19403e-09
0.6,7.7,0,3.18014,0.0283193,-4.06716e-09
0.6,7.8,0,3.18042,0.0274382,-3.35821e-10
0.6,7.9,0,3.18148,0.0266986,-4.41418e-08
0.6,8,0,3.18262,0.0259731,-9.26493e-08
0.6,8.1,0,3.18303,0.0251835,-9.07836e-08
0.6,8.2,0,3.1836,0.0245291,-6.66045e-08