/*--------------------------------*- C++ -*----------------------------------*\
| =========                 |                                                 |
| \\      /  F ield         | OpenFOAM: The Open Source CFD Toolbox           |
|  \\    /   O peration     | Version:  v1806                                 |
|   \\  /    A nd           | Web:      www.OpenFOAM.com                      |
|    \\/     M anipulation  |                                                 |
\*---------------------------------------------------------------------------*/
FoamFile
{
    version     2.0;
    format      ascii;
    class       surfaceScalarField;
    location    "290";
    object      phi;
}
// * * * * * * * * * * * * * * * * * * * * * * * * * * * * * * * * * * * * * //

dimensions      [0 3 -1 0 0 0 0];
oriented        oriented;


internalField   nonuniform List<scalar> 
4680
(
0.104998
-6.41165e-05
0.104999
-0.000388403
0.104992
-0.000527688
0.104991
-0.000902233
0.10498
-0.00107866
0.104975
-0.00154575
0.104957
-0.00181055
0.104947
-0.0024183
0.10492
-0.00283526
0.104904
-0.00362439
0.104867
-0.00425614
0.104845
-0.00527125
0.104801
-0.00617971
0.104775
-0.00740605
0.104737
-0.00856485
0.104719
-0.00989628
0.104709
-0.0111109
0.104725
-0.0122205
0.104763
-0.0130004
-0.0133697
0.104841
0.104995
-5.91525e-05
0.104997
-0.000390391
0.104984
-0.000515116
0.104983
-0.000900409
0.104961
-0.00105719
0.104955
-0.00153985
0.104923
-0.00177787
0.104911
-0.00240703
0.104865
-0.00278883
0.104847
-0.00360655
0.104787
-0.00419639
0.104764
-0.00524785
0.104698
-0.00611381
0.104677
-0.00738469
0.104629
-0.00851674
0.104632
-0.00989933
0.104644
-0.0111234
0.10471
-0.0122861
0.10482
-0.0131111
-0.0135188
0.104969
0.104992
-5.11492e-05
0.104995
-0.000393639
0.104975
-0.000494732
0.104972
-0.000898001
0.104938
-0.00102279
0.10493
-0.00153205
0.104879
-0.00172623
0.104864
-0.00239262
0.104792
-0.00271642
0.10477
-0.00358487
0.104678
-0.00410422
0.104652
-0.00522196
0.104552
-0.0060139
0.104535
-0.00736782
0.104466
-0.00844755
0.104493
-0.00992585
0.104523
-0.0111541
0.104648
-0.0124111
0.104836
-0.0132989
-0.01376
0.105077
0.104989
-4.038e-05
0.104993
-0.00039777
0.104965
-0.000466784
0.104962
-0.000894438
0.104915
-0.000975476
0.104904
-0.00152147
0.104833
-0.001655
0.104814
-0.00237393
0.104714
-0.00261626
0.104687
-0.00355817
0.104559
-0.00397573
0.10453
-0.00519293
0.104388
-0.00587262
0.104377
-0.00735635
0.104275
-0.00834563
0.104328
-0.00997914
0.104366
-0.0111915
0.104555
-0.0126009
0.104822
-0.0135655
-0.0141079
0.10517
0.104987
-2.72198e-05
0.104991
-0.0004024
0.104956
-0.000431714
0.104951
-0.000889332
0.104892
-0.000915686
0.104878
-0.00150772
0.104787
-0.00156427
0.104764
-0.00235067
0.104635
-0.00248745
0.104603
-0.00352657
0.104435
-0.00380787
0.104404
-0.00516179
0.104214
-0.00568269
0.104211
-0.00735329
0.104063
-0.00819727
0.10415
-0.0100657
0.104176
-0.0112181
0.104441
-0.0128659
0.104784
-0.0139088
-0.014573
0.105249
0.104985
-1.2185e-05
0.10499
-0.00040697
0.104948
-0.000390211
0.104941
-0.000882136
0.104869
-0.000844237
0.104852
-0.00149028
0.104742
-0.00145469
0.104714
-0.00232243
0.104557
-0.0023299
0.10452
-0.00349005
0.104311
-0.00359841
0.104278
-0.00512947
0.104033
-0.00543721
0.104041
-0.00736178
0.103831
-0.00798726
0.103959
-0.0101937
0.103952
-0.0112104
0.104309
-0.0132229
0.104718
-0.0143185
-0.0151735
0.105319
0.104984
4.05709e-06
0.104987
-0.000410712
0.104941
-0.00034324
0.10493
-0.000872044
0.104849
-0.00076237
0.104827
-0.00146825
0.104699
-0.00132755
0.104665
-0.0022883
0.10448
-0.00214442
0.104438
-0.0034478
0.104185
-0.00334633
0.104152
-0.00509561
0.103845
-0.00513042
0.103866
-0.00738327
0.103579
-0.00770013
0.103757
-0.0103711
0.103686
-0.0111403
0.104158
-0.0136942
0.104611
-0.0147719
-0.0159419
0.10538
0.104983
2.06741e-05
0.104985
-0.000412612
0.104934
-0.00029208
0.10492
-0.000857925
0.104829
-0.000671812
0.104801
-0.00144023
0.104659
-0.00118489
0.104617
-0.00224656
0.104406
-0.00193292
0.104355
-0.00339776
0.104061
-0.00305217
0.104024
-0.00505783
0.103652
-0.00475852
0.103684
-0.00741603
0.103306
-0.00732174
0.103537
-0.0106024
0.103374
-0.0109767
0.103985
-0.014305
0.104449
-0.015236
-0.0169244
0.105431
0.104984
3.67141e-05
0.104983
-0.000411438
0.104929
-0.000238362
0.104909
-0.000838283
0.104812
-0.000574855
0.104776
-0.00140424
0.104621
-0.00102962
0.104569
-0.00219455
0.104335
-0.00169872
0.104274
-0.00333631
0.10394
-0.00271855
0.103893
-0.00501118
0.103455
-0.00432052
0.103493
-0.00745406
0.103012
-0.00684083
0.103296
-0.0108859
0.103008
-0.0106884
0.103782
-0.0150796
0.104216
-0.0156695
-0.0181835
0.105475
0.104986
5.10382e-05
0.10498
-0.000405645
0.104926
-0.000184128
0.104899
-0.00081119
0.104798
-0.00047444
0.104751
-0.00135757
0.104588
-0.000865709
0.104522
-0.00212853
0.10427
-0.00144669
0.104191
-0.0032581
0.103823
-0.00235047
0.10376
-0.00494783
0.103258
-0.00381882
0.10329
-0.00748636
0.1027
-0.00625027
0.103026
-0.0112118
0.102583
-0.0102455
0.103541
-0.0160375
0.103895
-0.0160237
-0.019803
0.105514
0.104989
6.23433e-05
0.104976
-0.000393374
0.104924
-0.000131875
0.104887
-0.000774219
0.104787
-0.000374273
0.104726
-0.00129666
0.104559
-0.000698361
0.104474
-0.00204336
0.104211
-0.00118369
0.104108
-0.00315569
0.103714
-0.00195585
0.103622
-0.0048567
0.103064
-0.00325998
0.103074
-0.00749635
0.102371
-0.00554805
0.10272
-0.0115601
0.102095
-0.00962089
0.103247
-0.0171892
0.103464
-0.0162413
-0.021897
0.105558
0.104993
6.9204e-05
0.104972
-0.000372464
0.104925
-8.45794e-05
0.104875
-0.000724378
0.10478
-0.000278945
0.1047
-0.00121684
0.104536
-0.000534394
0.104425
-0.00193207
0.10416
-0.0009192
0.104023
-0.00301879
0.103614
-0.00154655
0.10348
-0.00472265
0.102876
-0.00265591
0.102841
-0.00746124
0.102031
-0.00473841
0.102371
-0.0118998
0.101541
-0.00879114
0.102883
-0.018531
0.102895
-0.0162534
-0.0246242
0.105622
0.104999
7.02381e-05
0.104967
-0.000340616
0.104928
-4.55799e-05
0.104862
-0.000658175
0.104777
-0.000193958
0.104672
-0.00111219
0.10452
-0.000382613
0.104374
-0.00178518
0.104121
-0.000666451
0.103935
-0.00283275
0.103529
-0.00114047
0.10333
-0.00452403
0.102701
-0.00202692
0.102589
-0.0073495
0.101686
-0.00383486
0.101973
-0.012187
0.10092
-0.00773786
0.102429
-0.0200401
0.102149
-0.0159731
-0.0282086
0.105733
0.105006
6.44426e-05
0.104961
-0.000296059
0.104933
-1.77704e-05
0.104848
-0.000572317
0.104778
-0.000124854
0.104642
-0.000976164
0.104513
-0.00025362
0.104319
-0.00159038
0.104096
-0.000443719
0.103839
-0.00257628
0.103464
-0.000765306
0.103168
-0.00422745
0.102549
-0.00140859
0.102313
-0.00711295
0.101347
-0.00286954
0.101518
-0.0123572
0.100233
-0.00645272
0.101867
-0.0216744
0.101169
-0.0152752
-0.0329706
0.105931
0.105013
5.16356e-05
0.104955
-0.000238161
0.10494
-2.78027e-06
0.104833
-0.000465131
0.104783
-7.52527e-05
0.104611
-0.000804511
0.104513
-0.000155519
0.10426
-0.00133694
0.104086
-0.000269802
0.103733
-0.00222345
0.10343
-0.000462063
0.102982
-0.00377907
0.102438
-0.000865159
0.101993
-0.00666755
0.101039
-0.00191555
0.100982
-0.0123005
0.0994922
-0.00496293
0.101181
-0.0233627
0.0998822
-0.0139769
-0.0393716
0.106283
0.105019
3.29899e-05
0.104949
-0.000168235
0.104946
-4.94634e-09
0.104819
-0.000337851
0.104789
-4.53699e-05
0.104582
-0.000597576
0.104517
-9.10256e-05
0.104202
-0.00102184
0.104086
-0.000153392
0.103623
-0.00176096
0.103418
-0.000257151
0.102771
-0.00313113
0.102392
-0.000486411
0.101586
-0.00586132
0.100804
-0.00113384
0.100295
-0.0117912
0.0987437
-0.0034121
0.100292
-0.0249109
0.098194
-0.0118791
-0.0482354
0.107058
0.105022
1.13072e-05
0.104943
-8.98806e-05
0.10495
-6.21162e-06
0.104807
-0.00019559
0.104792
-3.04318e-05
0.104557
-0.000362679
0.104521
-5.41845e-05
0.104153
-0.000654096
0.104088
-8.86864e-05
0.103523
-0.00119625
0.103417
-0.000150779
0.102562
-0.00227629
0.102374
-0.000298049
0.101134
-0.0046216
0.100721
-0.00072051
0.0992694
-0.0103398
0.0980847
-0.00222744
0.0988714
-0.0256975
0.0960526
-0.00906021
-0.0612842
0.109101
0.10502
-9.1707e-06
0.10494
-9.33719e-06
0.104948
-1.47316e-05
0.104801
-4.79838e-05
0.10479
-1.99989e-05
0.104543
-0.000115344
0.104517
-2.81839e-05
0.104122
-0.0002588
0.104082
-4.88451e-05
0.103454
-0.000568315
0.103406
-0.00010265
0.102399
-0.00126989
0.10235
-0.000248605
0.100714
-0.00298521
0.10065
-0.000656382
0.0980964
-0.00778669
0.0978051
-0.00193615
0.096047
-0.0239395
0.0936649
-0.00667807
-0.0804805
0.112861
0.105015
-2.43877e-05
0.104937
6.85311e-05
0.104944
-2.123e-05
0.104799
9.73124e-05
0.104784
-5.22934e-06
0.104538
0.000130081
0.104507
3.25045e-06
0.10411
0.000138027
0.104065
-3.41997e-06
0.103424
7.2109e-05
0.103372
-5.07946e-05
0.102317
-0.000214306
0.10228
-0.000211394
0.100459
-0.00116465
0.100484
-0.000681797
0.0971164
-0.00441868
0.0973657
-0.00218538
0.0919162
-0.01849
0.091966
-0.00672788
-0.10172
0.113206
0.105002
-2.63261e-05
0.104947
0.00012309
0.104926
-3.5127e-08
0.104813
0.000210827
0.104759
4.8575e-05
0.104561
0.000327826
0.10447
9.46379e-05
0.104144
0.00046361
0.104005
0.000135998
0.103471
0.00060545
0.103272
0.000148808
0.102374
0.000683335
0.102093
6.97943e-05
0.100485
0.000443753
0.100072
-0.000269696
0.096827
-0.00117321
0.0961036
-0.00146195
0.0884191
-0.0108056
0.0922203
-0.010529
0.0967672
-0.106267
0.104859
-0.00155971
0.104869
-0.00155158
0.104879
-0.00154604
0.104889
-0.00153949
0.1049
-0.00153202
0.10491
-0.00152367
0.104921
-0.00151443
0.104932
-0.0015043
0.104942
-0.00149328
-0.00148132
0.104952
0.104984
-0.00157402
0.105002
-0.00157001
0.105021
-0.00156451
0.105039
-0.00155805
0.105058
-0.00155063
0.105076
-0.00154227
0.105095
-0.00153296
0.105113
-0.00152273
0.105132
-0.00151161
-0.00149965
0.10515
0.105107
-0.00160416
0.105137
-0.00159999
0.105167
-0.00159447
0.105197
-0.00158789
0.105227
-0.00158027
0.105256
-0.00157162
0.105285
-0.00156193
0.105314
-0.00155124
0.105342
-0.00153955
-0.00152691
0.105369
0.105213
-0.00164689
0.105255
-0.00164264
0.105298
-0.00163707
0.10534
-0.00163031
0.105382
-0.00162236
0.105424
-0.00161324
0.105465
-0.00160296
0.105505
-0.00159156
0.105545
-0.00157904
-0.00156547
0.105584
0.105306
-0.0017039
0.105364
-0.00169977
0.105421
-0.00169415
0.105477
-0.0016871
0.105534
-0.00167866
0.105589
-0.00166886
0.105644
-0.0016577
0.105698
-0.00164524
0.10575
-0.00163149
-0.00161653
0.105801
0.105393
-0.00177804
0.105467
-0.00177396
0.105541
-0.00176819
0.105615
-0.00176069
0.105688
-0.00175152
0.10576
-0.0017407
0.10583
-0.00172828
0.105899
-0.00171431
0.105967
-0.00169883
-0.00168192
0.106032
0.105475
-0.00187314
0.10557
-0.00186885
0.105664
-0.00186275
0.105758
-0.00185449
0.105851
-0.00184417
0.105942
-0.00183187
0.106031
-0.00181762
0.106118
-0.00180151
0.106203
-0.00178358
-0.00176396
0.106285
0.105552
-0.00199443
0.105673
-0.00198952
0.105793
-0.00198265
0.105912
-0.00197307
0.106028
-0.00196097
0.106143
-0.00194644
0.106255
-0.00192954
0.106364
-0.00191037
0.106469
-0.001889
-0.00186563
0.106571
0.105629
-0.00214889
0.105782
-0.00214263
0.105934
-0.00213422
0.106083
-0.00212242
0.10623
-0.00210754
0.106373
-0.00208968
0.106512
-0.0020689
0.106647
-0.00204534
0.106778
-0.00201914
-0.00199053
0.106902
0.105711
-0.00234584
0.105906
-0.00233679
0.106097
-0.00232559
0.106285
-0.00231015
0.106468
-0.00229097
0.106647
-0.00226813
0.106819
-0.0022417
0.106986
-0.00221188
0.107146
-0.00217885
-0.00214297
0.107298
0.10581
-0.00259725
0.106056
-0.00258313
0.106298
-0.00256712
0.106533
-0.00254588
0.106763
-0.00252013
0.106984
-0.00248991
0.107198
-0.00245528
0.107403
-0.00241651
0.107598
-0.00237387
-0.00232787
0.107782
0.105943
-0.00291758
0.106255
-0.00289584
0.10656
-0.00287194
0.106856
-0.00284171
0.107142
-0.00280609
0.107417
-0.00276501
0.10768
-0.00271851
0.107931
-0.00266701
0.108168
-0.00261091
-0.00255089
0.108391
0.106141
-0.00332565
0.106537
-0.00329214
0.106922
-0.00325622
0.107293
-0.00321268
0.107649
-0.00316261
0.10799
-0.00310579
0.108314
-0.00304233
0.108619
-0.00297284
0.108906
-0.00289789
-0.0028185
0.109174
0.106454
-0.0038482
0.106957
-0.00379549
0.107443
-0.00374187
0.107909
-0.0036791
0.108355
-0.00360843
0.108778
-0.0035294
0.109178
-0.00344216
0.109553
-0.00334756
0.109901
-0.00324635
-0.00313978
0.110223
0.106976
-0.00454135
0.107631
-0.00444993
0.108257
-0.00436769
0.108852
-0.00427487
0.109417
-0.00417292
0.109949
-0.00406114
0.110446
-0.00393958
0.110908
-0.00380943
0.111333
-0.00367151
-0.00352952
0.111723
0.107984
-0.00546725
0.108856
-0.00532241
0.109683
-0.00519477
0.110461
-0.00505289
0.111188
-0.00489934
0.11186
-0.00473354
0.112476
-0.00455562
0.113034
-0.00436731
0.113531
-0.00416894
-0.00396366
0.113966
0.110146
-0.00651228
0.111222
-0.00639777
0.11221
-0.0061832
0.113119
-0.0059616
0.113947
-0.00572726
0.114689
-0.00547604
0.115343
-0.00520876
0.115905
-0.00492931
0.116374
-0.00463807
-0.00435264
0.116763
0.114227
-0.00787829
0.115169
-0.00733982
0.11592
-0.00693432
0.116503
-0.006544
0.116929
-0.00615323
0.117207
-0.00575486
0.117348
-0.00534908
0.117355
-0.00493687
0.117231
-0.00451355
-0.00409876
0.116977
0.113155
-0.00782756
0.112913
-0.00709778
0.112368
-0.00638968
0.111577
-0.0057527
0.110575
-0.00515171
0.109406
-0.00458525
0.108113
-0.00405616
0.106738
-0.00356188
0.105316
-0.00309134
-0.00261
0.103827
0.0889396
0.0818418
0.0754521
0.0696994
0.0645477
0.0599625
0.0559063
0.0523445
0.0492531
0.0466431
0.104995
-0.00544524
0.105037
-0.00522969
0.105077
-0.00497958
0.105115
-0.00470318
0.105148
-0.00440813
0.105178
-0.0041025
0.105203
-0.00379398
0.105223
-0.0034893
0.105239
-0.00319449
0.10525
-0.00291434
0.105258
-0.00265307
0.105261
-0.00241358
0.105261
-0.00219848
0.105258
-0.00200923
0.105253
-0.00184699
0.105244
-0.00171262
0.105233
-0.00160559
0.105221
-0.00152798
0.105206
-0.00147575
-0.00145736
0.105214
-0.00550928
0.105272
-0.00528751
0.105321
-0.00502893
0.105361
-0.0047431
0.105391
-0.0044384
0.105412
-0.00412328
0.105424
-0.00380579
0.105428
-0.00349293
0.105424
-0.0031909
0.105414
-0.00290452
0.105399
-0.00263804
0.10538
-0.00239426
0.105357
-0.00217575
0.105332
-0.00198372
0.105304
-0.00181943
0.105275
-0.00168326
0.105244
-0.00157514
0.105213
-0.00149628
0.105181
-0.00144376
-0.00142385
0.105466
-0.00560605
0.105549
-0.0053713
0.105618
-0.00509739
0.10567
-0.0047948
0.105704
-0.0044731
0.105723
-0.00414163
0.105726
-0.00380907
0.105716
-0.00348282
0.105694
-0.00316928
0.105663
-0.00287331
0.105624
-0.00259913
0.105579
-0.00234928
0.10553
-0.00212633
0.105477
-0.00193099
0.105422
-0.00176462
0.105366
-0.00162693
0.105309
-0.00151819
0.105251
-0.00143873
0.105194
-0.0013862
-0.00136555
0.105719
-0.00574115
0.105834
-0.00548659
0.105926
-0.00518932
0.105993
-0.00486181
0.106035
-0.00451518
0.106053
-0.00416003
0.10605
-0.00380595
0.106028
-0.0034608
0.10599
-0.00313125
0.105939
-0.00282209
0.105877
-0.00253749
0.105808
-0.00227966
0.105732
-0.00205096
0.105653
-0.00185157
0.105571
-0.00168277
0.105488
-0.00154356
0.105404
-0.00143432
0.10532
-0.00135457
0.105236
-0.00130221
-0.00128159
0.105979
-0.00591918
0.106129
-0.00563651
0.106247
-0.00530664
0.10633
-0.0049449
0.106379
-0.00456454
0.106397
-0.00417784
0.106386
-0.00379544
0.106351
-0.00342578
0.106296
-0.00307573
0.106224
-0.00274996
0.106139
-0.00245246
0.106044
-0.00218495
0.105942
-0.0019495
0.105836
-0.00174557
0.105728
-0.00157422
0.105618
-0.00143364
0.105508
-0.00132416
0.105398
-0.00124448
0.105288
-0.00119261
-0.0011724
0.106258
-0.0061456
0.106446
-0.00582445
0.10659
-0.00545075
0.106689
-0.00504378
0.106744
-0.00461962
0.106759
-0.00419261
0.106738
-0.00377464
0.106687
-0.00337469
0.106611
-0.00299973
0.106516
-0.00265418
0.106405
-0.00234166
0.106283
-0.00206323
0.106154
-0.00182046
0.10602
-0.00161196
0.105884
-0.00143837
0.105748
-0.00129695
0.105611
-0.00118785
0.105476
-0.0011089
0.105341
-0.001058
-0.00103863
0.106567
-0.00642734
0.106797
-0.00605431
0.106969
-0.00562281
0.107082
-0.00515735
0.10714
-0.00467768
0.107148
-0.00420058
0.107113
-0.00373924
0.107041
-0.00330307
0.106941
-0.00289895
0.106817
-0.00253078
0.106677
-0.0022016
0.106525
-0.00191155
0.106366
-0.00166151
0.106203
-0.00144895
0.106039
-0.00127402
0.105875
-0.00113279
0.105712
-0.00102514
0.105551
-0.000947924
0.105392
-0.000898732
-0.000880854
0.106916
-0.00677286
0.107192
-0.00633037
0.107393
-0.00582342
0.107519
-0.00528336
0.107576
-0.0047345
0.107572
-0.00419638
0.107516
-0.0036834
0.107418
-0.00320506
0.107287
-0.00276782
0.107131
-0.00237472
0.106957
-0.00202794
0.106772
-0.00172631
0.10658
-0.0014698
0.106385
-0.00125441
0.106191
-0.00107969
0.105999
-0.000940279
0.105809
-0.000835708
0.105623
-0.000761669
0.105439
-0.000715254
-0.000699764
0.107322
-0.00719202
0.107648
-0.00665689
0.107877
-0.00605205
0.108011
-0.00541773
0.10806
-0.00478379
0.108037
-0.00417261
0.107953
-0.00359939
0.107821
-0.00307315
0.107652
-0.00259943
0.107458
-0.0021799
0.107245
-0.00181555
0.107022
-0.00150334
0.106794
-0.00124209
0.106566
-0.00102594
0.10634
-0.000853847
0.106118
-0.000718592
0.105902
-0.000619393
0.105691
-0.000550473
0.105484
-0.000508305
-0.000496313
0.107802
-0.00769582
0.108182
-0.00703728
0.108436
-0.00630601
0.108572
-0.00555364
0.108605
-0.00481645
0.108551
-0.00411926
0.108429
-0.00347723
0.108254
-0.00289794
0.10804
-0.00238541
0.107799
-0.00193922
0.107542
-0.00155858
0.107277
-0.00123792
0.10701
-0.000974856
0.106745
-0.000761032
0.106486
-0.000594954
0.106234
-0.000466938
0.105991
-0.000376238
0.105755
-0.000314894
0.105526
-0.000278958
-0.000271641
0.108382
-0.00829581
0.108818
-0.00747302
0.109091
-0.00657919
0.109218
-0.00568042
0.109221
-0.00481978
0.109125
-0.00402325
0.108953
-0.00330433
0.108723
-0.00266797
0.108453
-0.00211589
0.108158
-0.00164452
0.10785
-0.0012504
0.107537
-0.000924779
0.107226
-0.000664062
0.106922
-0.000456787
0.106628
-0.000301209
0.106345
-0.000184132
0.106075
-0.000105972
0.105815
-5.50589e-05
0.105564
-2.80297e-05
-2.63863e-05
0.109098
-0.00900347
0.109588
-0.00796239
0.109869
-0.00686068
0.109971
-0.00578253
0.109928
-0.00477678
0.109773
-0.00386787
0.109534
-0.0030652
0.109235
-0.00236932
0.108898
-0.00177904
0.10854
-0.00128573
0.108172
-0.000882663
0.107804
-0.000557129
0.107444
-0.000303889
0.107095
-0.000108184
0.106763
3.10419e-05
0.106446
0.000133173
0.106146
0.000193978
0.105859
0.000231529
0.105585
0.000246417
0.000241426
0.110001
-0.00983074
0.110538
-0.00849953
0.110811
-0.0071336
0.110867
-0.00583833
0.110755
-0.00466434
0.110517
-0.00363039
0.110191
-0.00273858
0.109804
-0.00198315
0.109383
-0.00135746
0.108944
-0.00084708
0.108502
-0.000440834
0.108067
-0.000122063
0.107646
0.000117359
0.107242
0.00029636
0.106858
0.000414285
0.106496
0.000495295
0.106156
0.000533627
0.105834
0.000554424
0.105527
0.000553395
0.00054141
0.111183
-0.0107913
0.111754
-0.00907066
0.11199
-0.00736907
0.111963
-0.00581184
0.111742
-0.00444268
0.111381
-0.00326982
0.110927
-0.00228452
0.110416
-0.0014724
0.109876
-0.000816633
0.109324
-0.000295188
0.108777
0.000106241
0.108242
0.000412344
0.107729
0.000630889
0.10724
0.00078486
0.106779
0.000875138
0.106346
0.000928916
0.10594
0.000939311
0.105556
0.000937936
0.105193
0.000917092
0.00089585
0.112812
-0.0118809
0.113365
-0.0096228
0.113483
-0.00748792
0.113284
-0.00561272
0.112858
-0.00401643
0.112279
-0.00269044
0.111604
-0.00161032
0.110881
-0.000749236
0.110144
-7.89372e-05
0.109405
0.000443028
0.108683
0.000828942
0.107988
0.00110746
0.107323
0.00129512
0.106695
0.00141292
0.106103
0.00146732
0.105549
0.00148258
0.10503
0.00145854
0.104545
0.00142327
0.104084
0.00137835
0.00133731
0.115046
-0.0129617
0.115345
-0.00992112
0.115089
-0.00723167
0.114462
-0.0049866
0.113599
-0.00315273
0.11259
-0.00168133
0.111504
-0.000524471
0.110404
0.00035042
0.109316
0.00100882
0.10827
0.00148928
0.10727
0.00182955
0.106322
0.00205453
0.105429
0.00218899
0.104593
0.00224827
0.103809
0.00225119
0.103085
0.00220695
0.102406
0.0021376
0.101785
0.00204432
0.101194
0.00196937
0.00188049
0.117167
-0.0133662
0.116541
-0.00929477
0.115286
-0.0059766
0.113684
-0.00338479
0.111924
-0.00139329
0.110149
9.41844e-05
0.108393
0.00123116
0.106725
0.00201921
0.105167
0.00256623
0.103725
0.00293175
0.102393
0.00316159
0.101168
0.003279
0.10004
0.00331688
0.0990075
0.003281
0.0980543
0.00320434
0.0971913
0.00306996
0.0963916
0.00293736
0.095685
0.00275089
0.0950174
0.00263693
0.00245101
0.11476
-0.0111493
0.111945
-0.00647936
0.108779
-0.00281135
0.105624
-0.000229556
0.102651
0.00158012
0.0999435
0.00280146
0.0975697
0.00360489
0.0954894
0.00409952
0.0936771
0.0043786
0.0921016
0.00450718
0.090728
0.00453517
0.0895245
0.00448256
0.0884613
0.00438006
0.0875234
0.00421894
0.0866861
0.00404157
0.0859558
0.00380031
0.0852979
0.0035953
0.0847555
0.00329321
0.0842543
0.00313813
0.00280872
0.0965379
-0.00386039
0.0906016
-0.00054307
0.0854806
0.00230967
0.0814509
0.00380018
0.0782812
0.00474986
0.0758689
0.00521374
0.0740578
0.00541594
0.0727138
0.00544354
0.0717248
0.00536757
0.0710023
0.00522974
0.070477
0.00506041
0.0700941
0.0048655
0.0698143
0.00465985
0.0696126
0.0044206
0.0694681
0.00418608
0.0693856
0.00388282
0.0693375
0.00364344
0.0693772
0.00325346
0.0694251
0.00309021
0.00260786
0.0434763
-0.000693577
0.0412765
0.00165671
0.0399949
0.0035913
0.0397676
0.00402743
0.0400577
0.00445983
0.0407695
0.00450194
0.041713
0.00447247
0.0427944
0.00436212
0.0439391
0.00422279
0.0450991
0.00406975
0.0462433
0.00391628
0.0473489
0.00375981
0.048407
0.00360183
0.0494116
0.00341598
0.0503661
0.00323156
0.0512841
0.00296485
0.0521575
0.00277
0.0530479
0.00236309
0.0538685
0.00226961
0.00166741
0.00362327
-0.00431685
0.00445486
0.000825118
0.00498062
0.00306554
0.00547238
0.00353567
0.00602498
0.00390723
0.00663152
0.0038954
0.00726295
0.00384104
0.00789978
0.00372529
0.00852547
0.0035971
0.00912927
0.00346595
0.00970466
0.00334089
0.010248
0.0032165
0.010759
0.00309082
0.0112369
0.00293807
0.0116879
0.00278059
0.0121077
0.00254503
0.0125152
0.00236247
0.0128878
0.00199056
0.0132734
0.00188395
0.00132605
0.00114484
-0.00546169
0.00183399
0.00013597
0.00257641
0.00232311
0.00324366
0.00286842
0.00397211
0.00317877
0.00472701
0.0031405
0.0054949
0.00307315
0.00625497
0.00296523
0.0069935
0.00285857
0.00770067
0.00275878
0.00837112
0.00267043
0.00900197
0.00258565
0.00959402
0.00249877
0.0101465
0.00238561
0.0106674
0.00225972
0.0111496
0.00206275
0.0116186
0.0018935
0.0120392
0.00157001
0.0124819
0.00144124
0.000954848
-0.000471595
-0.0049901
-9.32317e-05
-0.000242393
0.000703777
0.0015261
0.0014794
0.0020928
0.00233605
0.00232212
0.00320761
0.00226895
0.00408283
0.00219793
0.00494055
0.0021075
0.00576871
0.00203041
0.00655847
0.00196902
0.00730543
0.00192347
0.00800733
0.00188375
0.00866571
0.00184038
0.00927983
0.00177149
0.00985852
0.00168102
0.0103936
0.00152766
0.0109124
0.00137472
0.011376
0.00110644
0.0118598
0.000957365
0.0005511
-0.00147237
-0.00351773
-0.00133395
-0.000380806
-0.000612136
0.000804287
0.000222204
0.00125846
0.00116783
0.0013765
0.00212088
0.0013159
0.00307217
0.00124664
0.00399916
0.00118051
0.00489113
0.00113844
0.00574006
0.00112008
0.0065424
0.00112114
0.00729636
0.00112979
0.00800398
0.00113276
0.00866444
0.00111104
0.00928698
0.00105849
0.0098624
0.000952237
0.0104192
0.000817955
0.0109154
0.000610183
0.0114301
0.000442693
0.000124159
-0.0019475
-0.00157023
-0.00201256
-0.000315746
-0.00135675
0.000148479
-0.000488064
0.000389773
0.000502105
0.000386332
0.00150105
0.000316952
0.00249568
0.000252012
0.00346188
0.00021431
0.00439001
0.000210308
0.00527287
0.000237231
0.00610758
0.000286426
0.00689273
0.000344631
0.00763065
0.000394848
0.00832034
0.000421347
0.00897105
0.000407778
0.00957276
0.000350528
0.0101542
0.000236554
0.0106716
9.27236e-05
0.0112053
-9.10386e-05
-0.000316335
-0.00199639
0.000426158
-0.00213575
-0.000176387
-0.00151403
-0.000473237
-0.000642344
-0.000481917
0.000358133
-0.000614146
0.00136821
-0.000693127
0.00237266
-0.000752431
0.00334704
-0.000760073
0.00428265
-0.000725298
0.00517306
-0.000653187
0.00601601
-0.000556522
0.00681036
-0.000449714
0.00755847
-0.000353267
0.00825914
-0.000279322
0.00892122
-0.000254302
0.0095341
-0.000262347
0.0101259
-0.000355202
0.0106521
-0.000433526
0.0111925
-0.000631475
-0.000760307
-0.00164127
0.00206743
-0.00171225
-0.000105403
-0.00108571
-0.00109978
-0.000237283
-0.00133035
0.000741295
-0.00159272
0.00172827
-0.0016801
0.0027086
-0.00173277
0.00365975
-0.00171122
0.00457378
-0.00163933
0.00544506
-0.00152447
0.00627175
-0.00138321
0.00705287
-0.00123083
0.00779063
-0.00109103
0.00848354
-0.000972233
0.00913972
-0.000910474
0.00974816
-0.000870793
0.0103356
-0.000942612
0.0108579
-0.00095581
0.0113924
-0.00116605
-0.0011976
-0.000837917
0.00290534
-0.000739228
-0.000204091
-6.49874e-05
-0.00177402
0.000727782
-0.00212312
0.00164472
-0.00250966
0.00257277
-0.00260815
0.003495
-0.002655
0.00439165
-0.00260787
0.00525541
-0.00250308
0.00608128
-0.00235035
0.00686763
-0.00216955
0.00761346
-0.00197667
0.00832061
-0.00179818
0.00898725
-0.00163887
0.00962039
-0.00154362
0.010209
-0.00145937
0.0107774
-0.00151108
0.0112832
-0.0014616
0.0117996
-0.00168239
-0.00161834
0.000498765
0.00240658
0.000820319
-0.000525645
0.00149271
-0.00244641
0.00222789
-0.0028583
0.00304632
-0.0033281
0.00387874
-0.00344057
0.00470923
-0.00348548
0.00552096
-0.0034196
0.00630686
-0.00328898
0.00706229
-0.00310578
0.00778542
-0.00289269
0.00847507
-0.00266631
0.00913239
-0.00245551
0.00975516
-0.00226163
0.010349
-0.00213744
0.010903
-0.00201335
0.0114386
-0.00204676
0.011916
-0.00193892
0.0124026
-0.00216904
-0.00201284
0.0024718
-6.52216e-05
0.00302341
-0.00107725
0.00360981
-0.00303281
0.00423176
-0.00348025
0.0049082
-0.00400454
0.00560889
-0.00414126
0.00631475
-0.00419134
0.00701293
-0.00411778
0.00769543
-0.00397148
0.00835745
-0.0037678
0.00899659
-0.00353183
0.00961107
-0.00328079
0.0102011
-0.00304556
0.0107641
-0.00282461
0.0113036
-0.00267694
0.0118101
-0.00251983
0.0122992
-0.00253585
0.0127396
-0.00237939
0.0131813
-0.00261069
-0.00237988
0.0175924
-0.000784373
-0.0168733
0.0182961
-0.0017809
0.0188425
-0.0035792
0.0196291
-0.00426692
0.0204709
-0.00484632
0.0214566
-0.00512698
0.0225052
-0.00523988
0.0235971
-0.00520972
0.0247057
-0.00508002
0.0258152
-0.00487736
0.0269165
-0.00463308
0.0280001
-0.00436444
0.0290635
-0.00410898
0.0300968
-0.0038579
0.0310995
-0.00367961
0.0320607
-0.00348103
0.0329731
-0.00344829
0.0338489
-0.00325519
0.0346327
-0.00339445
-0.00316327
0.0445005
0.00523255
-0.0505174
0.0411692
0.0015504
0.0388773
-0.00128728
0.0375842
-0.00297387
0.036822
-0.00408407
0.0364467
-0.0047517
0.0363321
-0.00512528
0.0364055
-0.00528315
0.0366147
-0.0052892
0.0369237
-0.00518633
0.0373089
-0.00501829
0.0377498
-0.00480534
0.0382341
-0.00459326
0.0387447
-0.00436848
0.0392723
-0.00420726
0.0398034
-0.00401216
0.0403194
-0.00396423
0.0408358
-0.00377156
0.0412893
-0.00384797
-0.00363743
0.0663246
0.0107804
-0.0718725
0.0619009
0.00597415
0.0582576
0.002356
0.0554693
-0.00018556
0.0533561
-0.0019709
0.0517583
-0.0031539
0.0505578
-0.00392478
0.0496645
-0.0043898
0.0490109
-0.00463559
0.0485466
-0.00472206
0.0482353
-0.00470696
0.0480465
-0.00461651
0.0479581
-0.00450489
0.0479477
-0.00435809
0.047997
-0.00425659
0.0480922
-0.00410731
0.0482045
-0.00407661
0.0483516
-0.00391861
0.0484676
-0.00396398
-0.00379382
0.0773512
0.0137112
-0.0802819
0.0742534
0.00907191
0.0712094
0.00540001
0.0684617
0.00256215
0.0660483
0.000442501
0.0640056
-0.00111122
0.0622892
-0.00220836
0.0608596
-0.00296022
0.0596778
-0.0034538
0.0587068
-0.00375104
0.0579152
-0.00391531
0.057275
-0.0039763
0.056762
-0.00399194
0.0563551
-0.0039512
0.0560308
-0.00393225
0.055779
-0.00385551
0.0555645
-0.00386212
0.0554077
-0.00376182
0.0552432
-0.00379943
-0.00368398
0.0805717
0.0145329
-0.0813934
0.0790867
0.0105569
0.07725
0.00723667
0.0752953
0.00451687
0.0733842
0.00235365
0.0715887
0.0006842
0.0699576
-0.000577216
0.0685043
-0.00150692
0.067225
-0.00217452
0.0661104
-0.00263649
0.0651463
-0.00295117
0.0643174
-0.00314736
0.0636053
-0.00327987
0.0629967
-0.00334259
0.0624683
-0.0034039
0.0620171
-0.00340425
0.0616067
-0.00345177
0.0612598
-0.00341489
0.0609167
-0.00345637
-0.00339782
0.080056
0.0142384
-0.0797615
0.0796504
0.0109625
0.0787971
0.00808998
0.0776712
0.00564278
0.0764134
0.00361146
0.0751249
0.00197271
0.0738669
0.000680757
0.0726766
-0.000316573
0.0715784
-0.00107633
0.0705798
-0.00163794
0.0696811
-0.00205244
0.0688795
-0.00234581
0.0681645
-0.00256482
0.067531
-0.00270907
0.0669597
-0.00283266
0.0664533
-0.00289777
0.0659799
-0.00297846
0.0655609
-0.00299586
0.0651484
-0.00304384
-0.00303201
0.07844
0.0135509
-0.0777525
0.0785591
0.0108434
0.0782757
0.00837336
0.0777103
0.00620812
0.0769655
0.00435628
0.0761248
0.00281339
0.0752489
0.00155673
0.0743794
0.000552895
0.073541
-0.000237952
0.0727541
-0.000850991
0.0720242
-0.00132261
0.0713559
-0.00167747
0.0707439
-0.00195284
0.0701885
-0.00215363
0.0696752
-0.00231943
0.0692086
-0.00243112
0.0687647
-0.00253458
0.0683591
-0.00259026
0.0679591
-0.00264382
-0.00266184
0.0768904
0.0128219
-0.0761613
0.0771887
0.0105451
0.0771622
0.0083999
0.0768955
0.00647481
0.0764602
0.00479157
0.0759192
0.00335442
0.0753217
0.0021542
0.0747044
0.00117016
0.0740921
0.000374419
0.0735015
-0.000260381
0.0729429
-0.000764023
0.0724222
-0.00115679
0.0719373
-0.00146797
0.0714901
-0.00170639
0.0710706
-0.00189996
0.0706821
-0.00204258
0.0703086
-0.00216113
0.0699584
-0.00224006
0.0696126
-0.00229806
-0.00233007
0.0756953
0.0121609
-0.0750343
0.076023
0.0102174
0.076089
0.00833395
0.075958
0.00660574
0.075684
0.0050656
0.0753143
0.00372414
0.0748881
0.00258044
0.0744356
0.0016226
0.0739783
0.000831684
0.0735312
0.000186718
0.073103
-0.000335789
0.0727004
-0.000754181
0.0723225
-0.00109012
0.071971
-0.0013548
0.0716393
-0.00156829
0.0713283
-0.00173162
0.0710286
-0.00186138
0.0707418
-0.00195329
0.0704591
-0.0020154
-0.00205081
0.0747998
0.0115779
-0.0742168
0.0751141
0.0099031
0.0752103
0.0082378
0.0751405
0.00667545
0.0749491
0.00525707
0.074674
0.00399919
0.0743475
0.002907
0.0739949
0.00197512
0.0736349
0.00119175
0.0732809
0.000540707
0.0729397
5.42499e-06
0.0726181
-0.000432623