/*--------------------------------*- C++ -*----------------------------------*\
| =========                 |                                                 |
| \\      /  F ield         | OpenFOAM: The Open Source CFD Toolbox           |
|  \\    /   O peration     | Version:  v1806                                 |
|   \\  /    A nd           | Web:      www.OpenFOAM.com                      |
|    \\/     M anipulation  |                                                 |
\*---------------------------------------------------------------------------*/
FoamFile
{
    version     2.0;
    format      ascii;
    class       volVectorField;
    location    "420";
    object      U;
}
// * * * * * * * * * * * * * * * * * * * * * * * * * * * * * * * * * * * * * //

dimensions      [0 1 -1 0 0 0 0];


internalField   nonuniform List<vector> 
4400
(
(0.207459 0.236194 0)
(0.275128 0.192428 0)
(0.300045 0.157265 0)
(0.311352 0.126559 0)
(0.318307 0.102597 0)
(0.322332 0.0855139 0)
(0.323862 0.0733284 0)
(0.323701 0.064325 0)
(0.322588 0.0574871 0)
(0.320993 0.052185 0)
(0.319169 0.0480014 0)
(0.317243 0.0446548 0)
(0.31528 0.0419523 0)
(0.313315 0.0397593 0)
(0.311366 0.0379802 0)
(0.309441 0.0365461 0)
(0.307541 0.0354077 0)
(0.30567 0.0345324 0)
(0.303863 0.0338839 0)
(0.302352 0.0333685 0)
(0.234625 0.137772 0)
(0.268419 0.11051 0)
(0.28914 0.0943331 0)
(0.304372 0.0846491 0)
(0.312977 0.076707 0)
(0.316988 0.0694567 0)
(0.318594 0.0629764 0)
(0.318935 0.0573872 0)
(0.318519 0.0526751 0)
(0.317609 0.0487395 0)
(0.316375 0.0454559 0)
(0.314934 0.0427113 0)
(0.313369 0.040415 0)
(0.311736 0.0384974 0)
(0.310069 0.0369055 0)
(0.30839 0.0355993 0)
(0.30671 0.0345493 0)
(0.305039 0.0337356 0)
(0.303414 0.0331271 0)
(0.302047 0.0326602 0)
(0.218323 0.0995663 0)
(0.251644 0.103144 0)
(0.276163 0.100356 0)
(0.29194 0.0921526 0)
(0.301805 0.0818163 0)
(0.308042 0.0722663 0)
(0.311775 0.0643673 0)
(0.313697 0.0579681 0)
(0.314374 0.0527641 0)
(0.314242 0.048505 0)
(0.313597 0.0449998 0)
(0.312626 0.042103 0)
(0.311451 0.0397043 0)
(0.310147 0.0377207 0)
(0.308764 0.0360893 0)
(0.307335 0.0347628 0)
(0.305879 0.0337065 0)
(0.304412 0.0328956 0)
(0.302973 0.0322989 0)
(0.30175 0.0318563 0)
(0.238544 0.0689956 0)
(0.261207 0.0734957 0)
(0.277456 0.0718237 0)
(0.289732 0.0682079 0)
(0.298506 0.0642302 0)
(0.30429 0.0601125 0)
(0.307891 0.0559888 0)
(0.309985 0.05205 0)
(0.311031 0.0484426 0)
(0.311334 0.0452345 0)
(0.311111 0.0424338 0)
(0.310521 0.0400174 0)
(0.309678 0.037951 0)
(0.308666 0.0361998 0)
(0.307541 0.034733 0)
(0.306342 0.0335242 0)
(0.305096 0.0325531 0)
(0.303824 0.0318042 0)
(0.302564 0.0312533 0)
(0.301486 0.0308544 0)
(0.243764 0.05196 0)
(0.259379 0.0606568 0)
(0.27375 0.064328 0)
(0.285278 0.0641416 0)
(0.293795 0.0614231 0)
(0.299822 0.0575639 0)
(0.303923 0.0535205 0)
(0.306548 0.0497242 0)
(0.308061 0.0463069 0)
(0.308765 0.0432895 0)
(0.308891 0.0406564 0)
(0.308612 0.0383795 0)
(0.308049 0.0364271 0)
(0.30729 0.0347688 0)
(0.306396 0.0333779 0)
(0.305409 0.0322314 0)
(0.304359 0.0313113 0)
(0.303272 0.030604 0)
(0.302183 0.030088 0)
(0.301244 0.0297242 0)
(0.255923 0.0396993 0)
(0.267298 0.0470833 0)
(0.277521 0.0505542 0)
(0.286075 0.0513189 0)
(0.292891 0.0505756 0)
(0.298027 0.0489732 0)
(0.301697 0.0468829 0)
(0.304188 0.0445713 0)
(0.305765 0.0422305 0)
(0.306639 0.0399854 0)
(0.306982 0.0379087 0)
(0.306931 0.0360357 0)
(0.306592 0.0343794 0)
(0.306046 0.03294 0)
(0.305352 0.031712 0)
(0.304553 0.0306874 0)
(0.303683 0.0298585 0)
(0.302765 0.0292188 0)
(0.301837 0.028753 0)
(0.30103 0.0284315 0)
(0.26275 0.031271 0)
(0.270449 0.038573 0)
(0.278392 0.043094 0)
(0.285596 0.04521 0)
(0.291589 0.0455083 0)
(0.296279 0.0445988 0)
(0.299772 0.0430135 0)
(0.302248 0.0411287 0)
(0.303894 0.0391692 0)
(0.304887 0.0372591 0)
(0.305378 0.0354667 0)
(0.305489 0.0338289 0)
(0.30532 0.0323639 0)
(0.304943 0.0310787 0)
(0.304417 0.0299742 0)
(0.303782 0.0290477 0)
(0.30307 0.0282961 0)
(0.302306 0.0277157 0)
(0.301525 0.027295 0)
(0.300841 0.0270113 0)
(0.270421 0.0252086 0)
(0.27611 0.0312453 0)
(0.281965 0.0353001 0)
(0.287365 0.0375479 0)
(0.292027 0.0384522 0)
(0.295839 0.0384177 0)
(0.2988 0.0377463 0)
(0.300987 0.0366725 0)
(0.302515 0.0353783 0)
(0.303502 0.0339963 0)
(0.304055 0.0326182 0)
(0.304268 0.0313039 0)
(0.304222 0.0300915 0)
(0.303979 0.0290034 0)
(0.303591 0.0280524 0)
(0.303096 0.0272451 0)
(0.302523 0.0265849 0)
(0.301897 0.026073 0)
(0.30125 0.0257028 0)
(0.300677 0.0254578 0)
(0.275811 0.0204779 0)
(0.279801 0.0258881 0)
(0.284187 0.029834 0)
(0.288469 0.0323517 0)
(0.292308 0.0336633 0)
(0.295538 0.0340429 0)
(0.298115 0.0337626 0)
(0.300072 0.0330555 0)
(0.301481 0.0321 0)
(0.302426 0.0310233 0)
(0.302995 0.0299127 0)
(0.303264 0.0288274 0)
(0.303299 0.0278072 0)
(0.303155 0.0268781 0)
(0.302876 0.0260569 0)
(0.302497 0.0253541 0)
(0.302043 0.0247761 0)
(0.301538 0.024327 0)
(0.301009 0.0240032 0)
(0.300537 0.0237933 0)
(0.280924 0.0169531 0)
(0.283869 0.0214435 0)
(0.287124 0.024895 0)
(0.290337 0.027267 0)
(0.29328 0.0287023 0)
(0.295824 0.0293884 0)
(0.297915 0.0295044 0)
(0.299552 0.0292087 0)
(0.300769 0.028636 0)
(0.301619 0.0278959 0)
(0.302158 0.0270724 0)
(0.302445 0.026228 0)
(0.302531 0.0254075 0)
(0.302458 0.0246423 0)
(0.302265 0.0239541 0)
(0.30198 0.0233579 0)
(0.301627 0.0228635 0)
(0.301226 0.0224777 0)
(0.300801 0.0222 0)
(0.300418 0.0220235 0)
(0.284857 0.013995 0)
(0.286968 0.0178972 0)
(0.289372 0.0210006 0)
(0.291826 0.0232624 0)
(0.294137 0.0247506 0)
(0.296178 0.0255824 0)
(0.297889 0.0258933 0)
(0.299254 0.0258164 0)
(0.30029 0.0254688 0)
(0.30103 0.0249465 0)
(0.301519 0.0243252 0)
(0.301797 0.0236622 0)
(0.301906 0.0230005 0)
(0.301881 0.0223713 0)
(0.301751 0.0217975 0)
(0.301542 0.0212951 0)
(0.301272 0.0208758 0)
(0.30096 0.0205474 0)
(0.300624 0.0203116 0)
(0.300319 0.0201647 0)
(0.288361 0.0116743 0)
(0.289897 0.0149191 0)
(0.291657 0.0175857 0)
(0.293469 0.0196112 0)
(0.295197 0.0210295 0)
(0.296751 0.0219176 0)
(0.29808 0.0223682 0)
(0.299162 0.0224754 0)
(0.300002 0.0223275 0)
(0.300618 0.0220022 0)
(0.301037 0.0215649 0)
(0.301289 0.0210678 0)
(0.301404 0.0205521 0)
(0.301408 0.0200488 0)
(0.301325 0.0195814 0)
(0.301175 0.0191669 0)
(0.300974 0.018818 0)
(0.300735 0.0185434 0)
(0.300476 0.0183467 0)
(0.300238 0.0182265 0)
(0.291156 0.00964078 0)
(0.292248 0.0123999 0)
(0.293515 0.0147061 0)
(0.294845 0.0165112 0)
(0.296137 0.0178289 0)
(0.297316 0.0187064 0)
(0.298339 0.0192093 0)
(0.299183 0.0194103 0)
(0.299847 0.0193809 0)
(0.300343 0.0191855 0)
(0.300687 0.0188795 0)
(0.300902 0.0185085 0)
(0.301009 0.018109 0)
(0.301028 0.0177098 0)
(0.300978 0.0173327 0)
(0.300872 0.0169945 0)
(0.300726 0.0167077 0)
(0.300549 0.016481 0)
(0.300354 0.016319 0)
(0.300173 0.016222 0)
(0.293554 0.00795408 0)
(0.294316 0.0102206 0)
(0.295207 0.0121546 0)
(0.296148 0.0137059 0)
(0.297069 0.014876 0)
(0.297919 0.0156947 0)
(0.298666 0.0162066 0)
(0.299291 0.0164639 0)
(0.299791 0.0165202 0)
(0.300169 0.016426 0)
(0.300438 0.0162266 0)
(0.300611 0.0159608 0)
(0.300702 0.0156604 0)
(0.300727 0.0153513 0)
(0.300698 0.0150538 0)
(0.300627 0.0147835 0)
(0.300523 0.0145522 0)
(0.300396 0.0143687 0)
(0.300255 0.0142377 0)
(0.300121 0.0141609 0)
(0.295467 0.00642874 0)
(0.295981 0.00829272 0)
(0.296585 0.00989791 0)
(0.29723 0.011207 0)
(0.297868 0.0122175 0)
(0.298463 0.0129471 0)
(0.29899 0.0134268 0)
(0.299436 0.0136951 0)
(0.299795 0.0137932 0)
(0.30007 0.013761 0)
(0.300268 0.0136352 0)
(0.300398 0.0134475 0)
(0.300469 0.0132248 0)
(0.300493 0.0129892 0)
(0.300477 0.0127583 0)
(0.300431 0.012546 0)
(0.300361 0.012363 0)
(0.300274 0.0122172 0)
(0.300175 0.0121134 0)
(0.300081 0.0120538 0)
(0.297036 0.00509304 0)
(0.297362 0.00656258 0)
(0.297749 0.00784503 0)
(0.298162 0.00890621 0)
(0.298573 0.00974046 0)
(0.298959 0.0103582 0)
(0.299303 0.0107804 0)
(0.299597 0.0110341 0)
(0.299836 0.0111496 0)
(0.30002 0.0111568 0)
(0.300155 0.0110843 0)
(0.300245 0.0109572 0)
(0.300296 0.0107975 0)
(0.300315 0.0106232 0)
(0.300307 0.0104492 0)
(0.300279 0.0102873 0)
(0.300234 0.0101466 0)
(0.300178 0.010034 0)
(0.300113 0.00995409 0)
(0.30005 0.00990931 0)
(0.298235 0.00384757 0)
(0.298426 0.00497029 0)
(0.298651 0.0059549 0)
(0.298893 0.00677672 0)
(0.299136 0.00743079 0)
(0.299365 0.00792326 0)
(0.29957 0.00826798 0)
(0.299746 0.00848405 0)
(0.299889 0.00859318 0)
(0.300001 0.00861758 0)
(0.300083 0.00857844 0)
(0.300138 0.00849496 0)
(0.30017 0.0083839 0)
(0.300183 0.0082594 0)
(0.300179 0.00813309 0)
(0.300163 0.00801432 0)
(0.300137 0.00791045 0)
(0.300104 0.00782703 0)
(0.300066 0.00776799 0)
(0.300028 0.00773568 0)
(0.299127 0.00269994 0)
(0.299219 0.00348457 0)
(0.299329 0.00417824 0)
(0.299448 0.00476151 0)
(0.299567 0.00523004 0)
(0.29968 0.00558718 0)
(0.299782 0.00584164 0)
(0.299869 0.00600585 0)
(0.299941 0.00609426 0)
(0.299997 0.00612191 0)
(0.300039 0.0061034 0)
(0.300067 0.00605216 0)
(0.300083 0.00598003 0)
(0.30009 0.00589712 0)
(0.300089 0.00581181 0)
(0.300081 0.00573085 0)
(0.300068 0.00565965 0)
(0.300052 0.00560228 0)
(0.300033 0.0055618 0)
(0.300013 0.00554016 0)
(0.299701 0.00159569 0)
(0.299731 0.00206503 0)
(0.299768 0.00247933 0)
(0.299809 0.00282857 0)
(0.29985 0.00311052 0)
(0.299889 0.00332691 0)
(0.299924 0.00348255 0)
(0.299954 0.00358451 0)
(0.299979 0.00364116 0)
(0.299999 0.00366129 0)
(0.300013 0.0036535 0)
(0.300023 0.00362572 0)
(0.300028 0.00358502 0)
(0.300031 0.00353746 0)
(0.30003 0.00348808 0)
(0.300028 0.00344094 0)
(0.300023 0.00339932 0)
(0.300018 0.00336572 0)
(0.300011 0.00334208 0)
(0.300004 0.00332968 0)
(0.299986 0.000536506 0)
(0.299987 0.000686408 0)
(0.299989 0.00082283 0)
(0.299991 0.000938697 0)
(0.299993 0.00103259 0)
(0.299995 0.00110492 0)
(0.299996 0.00115721 0)
(0.299998 0.00119172 0)
(0.299999 0.00121118 0)
(0.3 0.00121846 0)
(0.300001 0.0012164 0)
(0.300001 0.00120762 0)
(0.300001 0.00119446 0)
(0.300002 0.00117895 0)
(0.300002 0.00116277 0)
(0.300001 0.00114728 0)
(0.300001 0.00113357 0)
(0.300001 0.0011225 0)
(0.300001 0.00111472 0)
(0.3 0.00111067 0)
(0.100501 -0.170379 0)
(0.0798987 -0.145398 0)
(0.0673953 -0.122191 0)
(0.0585802 -0.101466 0)
(0.0519253 -0.0826499 0)
(0.0467937 -0.065268 0)
(0.0428646 -0.0489967 0)
(0.0399506 -0.0335706 0)
(0.0379334 -0.0187524 0)
(0.036739 -0.00432539 0)
(0.0363261 0.00991318 0)
(0.0366823 0.0241594 0)
(0.0378241 0.0386097 0)
(0.0398004 0.0534684 0)
(0.0427037 0.0689537 0)
(0.0466937 0.0853067 0)
(0.0520572 0.102827 0)
(0.0593657 0.121984 0)
(0.0699316 0.143334 0)
(0.0872992 0.165983 0)
(0.174816 -0.105097 0)
(0.160384 -0.0958418 0)
(0.147798 -0.0852106 0)
(0.137226 -0.0738473 0)
(0.128547 -0.062017 0)
(0.121579 -0.0498559 0)
(0.116144 -0.0374602 0)
(0.112092 -0.0249006 0)
(0.109307 -0.0122262 0)
(0.107707 0.000528526 0)
(0.107246 0.0133381 0)
(0.107908 0.0261814 0)
(0.109712 0.0390383 0)
(0.112712 0.051885 0)
(0.117006 0.064688 0)
(0.122746 0.0773919 0)
(0.130161 0.0899204 0)
(0.139596 0.102251 0)
(0.151603 0.114423 0)
(0.167058 0.125191 0)
(0.191495 -0.0677748 0)
(0.186239 -0.0623271 0)
(0.181488 -0.0559715 0)
(0.177249 -0.0488648 0)
(0.17354 -0.0411612 0)
(0.17039 -0.0329907 0)
(0.167826 -0.0244608 0)
(0.165872 -0.0156612 0)
(0.164548 -0.00666836 0)
(0.163865 0.00245165 0)
(0.163836 0.0116391 0)
(0.164467 0.0208376 0)
(0.165763 0.0299908 0)
(0.167729 0.0390395 0)
(0.170366 0.0479166 0)
(0.173675 0.0565427 0)
(0.177655 0.0648239 0)
(0.182316 0.0726652 0)
(0.187704 0.0799397 0)
(0.193959 0.0861762 0)
(0.219523 -0.0416509 0)
(0.215672 -0.0375321 0)
(0.212082 -0.0330782 0)
(0.20883 -0.0283188 0)
(0.205972 -0.0232867 0)
(0.203545 -0.0180167 0)
(0.201576 -0.0125459 0)
(0.200082 -0.00691289 0)
(0.199076 -0.00115744 0)
(0.198566 0.00467976 0)
(0.198557 0.0105574 0)
(0.199052 0.0164337 0)
(0.200054 0.0222664 0)
(0.201564 0.0280125 0)
(0.203582 0.033628 0)
(0.206107 0.0390676 0)
(0.209138 0.0442875 0)
(0.212677 0.0492549 0)
(0.216732 0.0539321 0)
(0.221326 0.0581231 0)
(0.232558 -0.0297681 0)
(0.230649 -0.0266952 0)
(0.228914 -0.0233886 0)
(0.227367 -0.0198665 0)
(0.226024 -0.0161521 0)
(0.224899 -0.0122712 0)
(0.224006 -0.00825151 0)
(0.223355 -0.0041217 0)
(0.222956 8.90133e-05 0)
(0.222818 0.00435106 0)
(0.222943 0.00863464 0)
(0.223335 0.0129098 0)
(0.223992 0.0171462 0)
(0.224912 0.0213135 0)
(0.226088 0.0253803 0)
(0.227511 0.0293152 0)
(0.229169 0.0330861 0)
(0.231051 0.036663 0)
(0.233144 0.0400139 0)
(0.235442 0.0430749 0)
(0.247981 -0.0204458 0)
(0.246606 -0.0179919 0)
(0.245342 -0.0154298 0)
(0.244206 -0.0127685 0)
(0.243214 -0.0100181 0)
(0.242378 -0.00719005 0)
(0.241712 -0.00429675 0)
(0.241223 -0.00135165 0)
(0.240919 0.00163097 0)
(0.240805 0.00463617 0)
(0.240884 0.0076485 0)
(0.241157 0.0106522 0)
(0.241623 0.0136315 0)
(0.242281 0.0165706 0)
(0.243126 0.0194541 0)
(0.244152 0.0222667 0)
(0.245352 0.0249947 0)
(0.246717 0.0276283 0)
(0.248237 0.0301577 0)
(0.249903 0.0325387 0)
(0.257054 -0.015326 0)
(0.256256 -0.0134107 0)
(0.25554 -0.0114188 0)
(0.254914 -0.00935637 0)
(0.254382 -0.00723087 0)
(0.253948 -0.0050506 0)
(0.253616 -0.00282472 0)
(0.253391 -0.000563037 0)
(0.253273 0.00172412 0)
(0.253267 0.00402602 0)
(0.253371 0.00633171 0)
(0.253588 0.00863003 0)
(0.253915 0.0109098 0)
(0.254351 0.01316 0)
(0.254894 0.0153697 0)
(0.25554 0.017528 0)
(0.256285 0.0196248 0)
(0.257125 0.0216508 0)
(0.258056 0.0235979 0)
(0.259073 0.0254525 0)
(0.266388 -0.0113609 0)
(0.265816 -0.00979633 0)
(0.2653 -0.00819026 0)
(0.264845 -0.00654694 0)
(0.264456 -0.00487086 0)
(0.264136 -0.00316688 0)
(0.26389 -0.00144013 0)
(0.26372 0.00030397 0)
(0.263628 0.00205979 0)
(0.263617 0.00382152 0)
(0.263686 0.00558324 0)
(0.263837 0.00733896 0)
(0.264068 0.00908273 0)
(0.264379 0.0108086 0)
(0.264768 0.0125109 0)
(0.265233 0.014184 0)
(0.26577 0.0158225 0)
(0.266376 0.0174229 0)
(0.267047 0.0189815 0)
(0.267779 0.0204825 0)
(0.27268 -0.0088267 0)
(0.272314 -0.00756748 0)
(0.271991 -0.00627867 0)
(0.271712 -0.00496315 0)
(0.271479 -0.0036241 0)
(0.271295 -0.00226501 0)
(0.271159 -0.000889605 0)
(0.271074 0.00049819 0)
(0.27104 0.00189427 0)
(0.271058 0.00329439 0)
(0.271128 0.00469426 0)
(0.271249 0.0060895 0)
(0.271422 0.00747577 0)
(0.271646 0.00884876 0)
(0.27192 0.0102042 0)
(0.272242 0.0115381 0)
(0.272612 0.0128464 0)
(0.273027 0.0141257 0)
(0.273487 0.0153732 0)
(0.27399 0.0165836 0)
(0.278693 -0.0068657 0)
(0.278431 -0.00582201 0)
(0.278199 -0.00476032 0)
(0.277998 -0.00368269 0)
(0.27783 -0.00259132 0)
(0.277696 -0.00148852 0)
(0.277597 -0.000376667 0)
(0.277533 0.000741771 0)
(0.277507 0.00186426 0)
(0.277518 0.00298823 0)
(0.277566 0.00411108 0)
(0.277652 0.00523019 0)
(0.277775 0.00634297 0)
(0.277935 0.00744684 0)
(0.278131 0.00853927 0)
(0.278363 0.00961776 0)
(0.278629 0.01068 0)
(0.278928 0.0117242 0)
(0.279258 0.0127487 0)
(0.279619 0.0137467 0)
(0.283101 -0.00546515 0)
(0.282926 -0.00460999 0)
(0.282772 -0.00374184 0)
(0.282641 -0.00286219 0)
(0.282534 -0.00197259 0)
(0.282451 -0.00107472 0)
(0.282392 -0.000170327 0)
(0.282359 0.000738788 0)
(0.282351 0.00165076 0)
(0.282369 0.00256368 0)
(0.282412 0.00347563 0)
(0.282481 0.00438467 0)
(0.282575 0.00528886 0)
(0.282695 0.00618628 0)
(0.282839 0.00707506 0)
(0.283007 0.00795335 0)
(0.2832 0.00881935 0)
(0.283415 0.00967156 0)
(0.283654 0.0105088 0)
(0.283914 0.0113283 0)
(0.287121 -0.00436006 0)
(0.286997 -0.00364838 0)
(0.286888 -0.00292809 0)
(0.286795 -0.00220029 0)
(0.286719 -0.00146613 0)
(0.28666 -0.000726781 0)
(0.286618 1.65349e-05 0)
(0.286594 0.000762579 0)
(0.286587 0.00151009 0)
(0.286599 0.00225778 0)
(0.28663 0.00300438 0)
(0.286678 0.00374859 0)
(0.286745 0.00448913 0)
(0.286829 0.00522473 0)
(0.286931 0.00595413 0)
(0.287051 0.00667608 0)
(0.287187 0.0073894 0)
(0.28734 0.00809319 0)
(0.287509 0.00878664 0)
(0.287694 0.00946642 0)
(0.290206 -0.00350361 0)
(0.290122 -0.0029191 0)
(0.290049 -0.00232832 0)
(0.289987 -0.00173207 0)
(0.289938 -0.0011312 0)
(0.2899 -0.000526565 0)
(0.289875 8.09217e-05 0)
(0.289862 0.000690344 0)
(0.289862 0.00130076 0)
(0.289874 0.00191122 0)
(0.289899 0.00252076 0)
(0.289936 0.00312841 0)
(0.289986 0.00373321 0)
(0.290049 0.00433422 0)
(0.290124 0.00493048 0)
(0.290211 0.00552107 0)
(0.290309 0.00610508 0)
(0.29042 0.00668176 0)
(0.290542 0.00725052 0)
(0.290675 0.0078099 0)
(0.29291 -0.00280331 0)
(0.292852 -0.00232235 0)
(0.292802 -0.00183703 0)
(0.29276 -0.00134793 0)
(0.292726 -0.00085569 0)
(0.2927 -0.000360947 0)
(0.292683 0.000135645 0)
(0.292673 0.000633419 0)
(0.292673 0.0011317 0)
(0.292681 0.00162981 0)
(0.292698 0.00212707 0)
(0.292723 0.00262279 0)
(0.292757 0.00311629 0)
(0.2928 0.00360689 0)
(0.292851 0.00409393 0)
(0.29291 0.00457673 0)
(0.292977 0.00505465 0)
(0.293052 0.00552721 0)
(0.293135 0.00599401 0)
(0.293226 0.00645332 0)
(0.295007 -0.00222369 0)
(0.294969 -0.00183644 0)
(0.294937 -0.00144599 0)
(0.29491 -0.0010528 0)
(0.294888 -0.000657327 0)
(0.294873 -0.00026005 0)
(0.294862 0.000138549 0)
(0.294858 0.000537975 0)
(0.294859 0.000937726 0)
(0.294865 0.0013373 0)
(0.294878 0.00173618 0)
(0.294896 0.00213386 0)
(0.29492 0.00252984 0)
(0.29495 0.0029236 0)
(0.294985 0.00331465 0)
(0.295026 0.0037025 0)
(0.295073 0.00408664 0)
(0.295124 0.0044667 0)
(0.295181 0.0048424 0)
(0.295243 0.00521287 0)
(0.296755 -0.00172701 0)
(0.296732 -0.00142083 0)
(0.296712 -0.00111239 0)
(0.296695 -0.000802037 0)
(0.296681 -0.0004901 0)
(0.296671 -0.000176932 0)
(0.296664 0.000137114 0)
(0.296661 0.000451678 0)
(0.296662 0.000766398 0)
(0.296666 0.00108091 0)
(0.296673 0.00139484 0)
(0.296684 0.00170784 0)
(0.296699 0.00201952 0)
(0.296717 0.00232954 0)
(0.296739 0.00263753 0)
(0.296764 0.00294312 0)
(0.296793 0.00324596 0)
(0.296824 0.00354581 0)
(0.296859 0.00384251 0)
(0.296898 0.00413507 0)
(0.298063 -0.00129065 0)
(0.29805 -0.00105985 0)
(0.298038 -0.000827468 0)
(0.298029 -0.000593732 0)
(0.298021 -0.000358888 0)
(0.298016 -0.000123186 0)
(0.298013 0.000113123 0)
(0.298011 0.000349783 0)
(0.298012 0.000586535 0)
(0.298015 0.000823119 0)
(0.298019 0.00105927 0)
(0.298026 0.00129474 0)
(0.298035 0.00152925 0)
(0.298046 0.00176256 0)
(0.298059 0.0019944 0)
(0.298074 0.00222451 0)
(0.298091 0.00245263 0)
(0.29811 0.00267859 0)
(0.29813 0.00290231 0)
(0.298153 0.00312317 0)
(0.29905 -0.000895875 0)
(0.299043 -0.000734003 0)
(0.299038 -0.000571088 0)
(0.299033 -0.000407292 0)
(0.299029 -0.000242778 0)
(0.299026 -7.77157e-05 0)
(0.299025 8.77268e-05 0)
(0.299024 0.000253378 0)
(0.299024 0.000419064 0)
(0.299025 0.000584611 0)
(0.299027 0.000749845 0)
(0.29903 0.000914593 0)
(0.299035 0.00107868 0)
(0.29904 0.00124193 0)
(0.299046 0.00140418 0)
(0.299052 0.00156524 0)
(0.29906 0.00172494 0)
(0.299069 0.00188318 0)
(0.299078 0.0020399 0)
(0.299089 0.0021945 0)
(0.299683 -0.000527905 0)
(0.299681 -0.000432325 0)
(0.299679 -0.00033615 0)
(0.299678 -0.000239475 0)
(0.299676 -0.000142392 0)
(0.299676 -4.49995e-05 0)
(0.299675 5.26053e-05 0)
(0.299675 0.000150322 0)
(0.299675 0.000248051 0)
(0.299675 0.000345691 0)
(0.299676 0.000443141 0)
(0.299677 0.000540298 0)
(0.299678 0.000637063 0)
(0.29968 0.000733336 0)
(0.299681 0.000829019 0)
(0.299683 0.000924006 0)
(0.299685 0.00101819 0)
(0.299688 0.00111151 0)
(0.29969 0.001204 0)
(0.299692 0.00129551 0)
(0.299991 -0.000175132 0)
(0.299991 -0.000143198 0)
(0.299991 -0.000111065 0)
(0.299991 -7.87512e-05 0)
(0.299991 -4.6298e-05 0)
(0.29999 -1.3733e-05 0)
(0.29999 1.89131e-05 0)
(0.29999 5.16105e-05 0)
(0.29999 8.43294e-05 0)
(0.29999 0.000117041 0)
(0.29999 0.000149717 0)
(0.29999 0.00018233 0)
(0.29999 0.000214854 0)
(0.29999 0.000247267 0)
(0.299989 0.000279547 0)
(0.299989 0.000311668 0)
(0.299989 0.000343619 0)
(0.299989 0.000375461 0)
(0.299989 0.000407315 0)
(0.299988 0.000438661 0)
(0.294605 -0.100429 0)
(0.293449 -0.104308 0)
(0.292472 -0.108699 0)
(0.291765 -0.11374 0)
(0.291415 -0.119512 0)
(0.291477 -0.126057 0)
(0.291938 -0.133384 0)
(0.292694 -0.14145 0)
(0.293518 -0.150153 0)
(0.294047 -0.159319 0)
(0.293784 -0.168696 0)
(0.292117 -0.177963 0)
(0.288349 -0.186734 0)
(0.281741 -0.194575 0)
(0.271557 -0.200998 0)
(0.257094 -0.205497 0)
(0.237711 -0.207671 0)
(0.21284 -0.207351 0)
(0.181969 -0.203916 0)
(0.144597 -0.193876 0)
(0.287316 -0.0737228 0)
(0.284962 -0.0745582 0)
(0.282208 -0.075458 0)
(0.279072 -0.0763898 0)
(0.27558 -0.0774201 0)
(0.27178 -0.0786323 0)
(0.267747 -0.080115 0)
(0.263578 -0.081961 0)
(0.259386 -0.0842562 0)
(0.255279 -0.0870653 0)
(0.251328 -0.0904148 0)
(0.247536 -0.094275 0)
(0.243804 -0.0985436 0)
(0.239908 -0.103032 0)
(0.2355 -0.107459 0)
(0.230133 -0.111451 0)
(0.22332 -0.114543 0)
(0.214578 -0.116157 0)
(0.203492 -0.11554 0)
(0.189944 -0.111909 0)
(0.283193 -0.078519 0)
(0.281807 -0.0797601 0)
(0.280245 -0.0809364 0)
(0.278466 -0.082047 0)
(0.276412 -0.083051 0)
(0.274012 -0.0839095 0)
(0.271197 -0.0845909 0)
(0.267898 -0.0850711 0)
(0.264061 -0.0853359 0)
(0.259654 -0.0853828 0)
(0.254674 -0.0852203 0)
(0.249151 -0.0848641 0)
(0.243151 -0.0843309 0)
(0.236773 -0.0836274 0)
(0.230135 -0.0827388 0)
(0.223367 -0.081617 0)
(0.21659 -0.0801701 0)
(0.209912 -0.0782527 0)
(0.203427 -0.0756699 0)
(0.197244 -0.0722195 0)
(0.276472 -0.058471 0)
(0.274402 -0.0588884 0)
(0.272278 -0.0593355 0)
(0.270107 -0.0597832 0)
(0.2679 -0.0602265 0)
(0.265667 -0.0606534 0)
(0.263412 -0.0610421 0)
(0.261134 -0.061363 0)
(0.258822 -0.0615795 0)
(0.256454 -0.061649 0)
(0.254 -0.061525 0)
(0.251422 -0.0611596 0)
(0.248681 -0.0605065 0)
(0.245736 -0.0595243 0)
(0.24256 -0.0581786 0)
(0.239139 -0.0564439 0)
(0.235479 -0.0543033 0)
(0.231613 -0.0517486 0)
(0.227603 -0.0487801 0)
(0.223537 -0.0454081 0)
(0.278416 -0.0538342 0)
(0.276914 -0.0536843 0)
(0.275276 -0.0534484 0)
(0.273503 -0.0531296 0)
(0.271591 -0.052723 0)
(0.269542 -0.0522253 0)
(0.267357 -0.0516348 0)
(0.265045 -0.0509501 0)
(0.262616 -0.05017 0)
(0.260087 -0.0492919 0)
(0.25748 -0.048311 0)
(0.254818 -0.0472198 0)
(0.252129 -0.0460071 0)
(0.249438 -0.0446579 0)
(0.246774 -0.0431539 0)
(0.24416 -0.0414742 0)
(0.241619 -0.0395971 0)
(0.239171 -0.037502 0)
(0.236834 -0.0351717 0)
(0.234624 -0.032595 0)
(0.277808 -0.0432527 0)
(0.276486 -0.0430326 0)
(0.275148 -0.0427661 0)
(0.273795 -0.0424439 0)
(0.272426 -0.0420568 0)
(0.27104 -0.0415951 0)
(0.269634 -0.0410484 0)
(0.268208 -0.0404065 0)
(0.266757 -0.0396594 0)
(0.265279 -0.0387974 0)
(0.263771 -0.0378123 0)
(0.262233 -0.0366969 0)
(0.260664 -0.0354457 0)
(0.259068 -0.0340551 0)
(0.25745 -0.0325231 0)
(0.255819 -0.0308494 0)
(0.254187 -0.0290354 0)
(0.252569 -0.0270836 0)
(0.250982 -0.024998 0)
(0.249446 -0.0227834 0)
(0.280385 -0.0371805 0)
(0.279323 -0.0366995 0)
(0.278219 -0.0361645 0)
(0.277074 -0.0355758 0)
(0.275891 -0.0349319 0)
(0.274675 -0.0342314 0)
(0.27343 -0.0334727 0)
(0.272163 -0.032654 0)
(0.27088 -0.0317734 0)
(0.269587 -0.0308282 0)
(0.268294 -0.0298156 0)
(0.267009 -0.0287326 0)
(0.265738 -0.0275756 0)
(0.264492 -0.0263413 0)
(0.263277 -0.0250261 0)
(0.262101 -0.0236272 0)
(0.260972 -0.0221421 0)
(0.259896 -0.0205692 0)
(0.258881 -0.0189081 0)
(0.257931 -0.0171597 0)
(0.282323 -0.0309568 0)
(0.281511 -0.0304917 0)
(0.280691 -0.0299823 0)
(0.279865 -0.0294289 0)
(0.279034 -0.0288279 0)
(0.278198 -0.0281762 0)
(0.277358 -0.027471 0)
(0.276516 -0.0267097 0)
(0.275672 -0.0258904 0)
(0.274828 -0.0250113 0)
(0.273986 -0.0240711 0)
(0.273147 -0.0230689 0)
(0.272315 -0.0220044 0)
(0.271492 -0.0208779 0)
(0.270684 -0.0196898 0)
(0.269893 -0.0184413 0)
(0.269125 -0.017134 0)
(0.268384 -0.0157697 0)
(0.267678 -0.0143509 0)
(0.26701 -0.0128803 0)
(0.284887 -0.0261595 0)
(0.284234 -0.0256451 0)
(0.283572 -0.025096 0)
(0.2829 -0.0245127 0)
(0.282222 -0.0238943 0)
(0.28154 -0.02324 0)
(0.280855 -0.0225493 0)
(0.28017 -0.0218215 0)
(0.279489 -0.0210561 0)
(0.278814 -0.0202525 0)
(0.278148 -0.01941 0)
(0.277495 -0.0185283 0)
(0.276858 -0.0176069 0)
(0.276239 -0.0166455 0)
(0.275642 -0.0156442 0)
(0.27507 -0.014603 0)
(0.274526 -0.0135225 0)
(0.274012 -0.0124033 0)
(0.273531 -0.0112466 0)
(0.273086 -0.0100538 0)
(0.287265 -0.0220518 0)
(0.286782 -0.0215758 0)
(0.286299 -0.0210701 0)
(0.285815 -0.0205364 0)
(0.285332 -0.0199738 0)
(0.28485 -0.0193811 0)
(0.284371 -0.0187579 0)
(0.283895 -0.0181036 0)
(0.283424 -0.0174179 0)
(0.282958 -0.0167008 0)
(0.2825 -0.0159522 0)
(0.282051 -0.0151723 0)
(0.281612 -0.0143615 0)
(0.281185 -0.0135204 0)
(0.280772 -0.0126497 0)
(0.280374 -0.0117503 0)
(0.279995 -0.0108233 0)
(0.279635 -0.00986983 0)
(0.279296 -0.00889137 0)
(0.278982 -0.00788943 0)
(0.289546 -0.0185544 0)
(0.289169 -0.0181031 0)
(0.288791 -0.0176297 0)
(0.288413 -0.017135 0)
(0.288035 -0.0166188 0)
(0.28766 -0.0160806 0)
(0.287288 -0.0155205 0)
(0.28692 -0.0149384 0)
(0.286557 -0.0143343 0)
(0.286201 -0.0137082 0)
(0.285853 -0.0130603 0)
(0.285514 -0.0123907 0)
(0.285186 -0.0116997 0)
(0.28487 -0.0109877 0)
(0.284568 -0.0102551 0)
(0.28428 -0.00950243 0)
(0.284008 -0.00873035 0)
(0.283753 -0.00793963 0)
(0.283516 -0.00713116 0)
(0.283299 -0.00630596 0)
(0.291655 -0.0156263 0)
(0.291383 -0.015223 0)
(0.291112 -0.0148012 0)
(0.290842 -0.0143624 0)
(0.290574 -0.0139063 0)
(0.290309 -0.0134326 0)
(0.290047 -0.0129412 0)
(0.289788 -0.0124322 0)
(0.289535 -0.0119057 0)
(0.289286 -0.0113619 0)
(0.289044 -0.0108011 0)
(0.288808 -0.0102235 0)
(0.28858 -0.00962952 0)
(0.28836 -0.00901966 0)
(0.288149 -0.00839446 0)
(0.287948 -0.00775452 0)
(0.287758 -0.00710053 0)
(0.287579 -0.00643323 0)
(0.287413 -0.00575346 0)
(0.28726 -0.00506209 0)
(0.293511 -0.0130316 0)
(0.293307 -0.0126735 0)
(0.293104 -0.0123016 0)
(0.292902 -0.0119167 0)
(0.292702 -0.0115187 0)
(0.292505 -0.0111075 0)
(0.29231 -0.0106833 0)
(0.292119 -0.010246 0)
(0.291932 -0.00979594 0)
(0.291749 -0.00933324 0)
(0.291572 -0.00885811 0)
(0.2914 -0.00837084 0)
(0.291235 -0.00787171 0)
(0.291076 -0.00736108 0)
(0.290925 -0.00683934 0)
(0.290782 -0.00630693 0)
(0.290648 -0.00576435 0)
(0.290523 -0.00521211 0)
(0.290407 -0.00465082 0)
(0.290301 -0.00408109 0)
(0.295163 -0.0108051 0)
(0.295022 -0.010497 0)
(0.294882 -0.0101776 0)
(0.294744 -0.00984811 0)
(0.294607 -0.00950826 0)
(0.294472 -0.00915805 0)
(0.294339 -0.00879755 0)
(0.294209 -0.00842691 0)
(0.294082 -0.00804629 0)
(0.293958 -0.00765588 0)
(0.293837 -0.00725591 0)
(0.293721 -0.00684663 0)
(0.293609 -0.00642833 0)
(0.293501 -0.00600134 0)
(0.293399 -0.00556602 0)
(0.293302 -0.00512276 0)
(0.293211 -0.004672 0)
(0.293126 -0.00421417 0)
(0.293047 -0.00374976 0)
(0.292975 -0.0032793 0)
(0.296548 -0.00877932 0)
(0.29645 -0.00851993 0)
(0.296352 -0.00825218 0)
(0.296256 -0.00797674 0)
(0.296161 -0.00769351 0)
(0.296067 -0.00740251 0)
(0.295976 -0.00710382 0)
(0.295886 -0.00679759 0)
(0.295798 -0.00648396 0)
(0.295713 -0.00616309 0)
(0.29563 -0.00583517 0)
(0.295551 -0.00550039 0)
(0.295475 -0.005159 0)
(0.295402 -0.00481122 0)
(0.295333 -0.00445734 0)
(0.295267 -0.00409765 0)
(0.295206 -0.00373245 0)
(0.295149 -0.0033621 0)
(0.295097 -0.00298693 0)
(0.295049 -0.00260733 0)
(0.297714 -0.00697272 0)
(0.297652 -0.00676217 0)
(0.297591 -0.00654501 0)
(0.297531 -0.00632203 0)
(0.297472 -0.00609314 0)
(0.297414 -0.00585834 0)
(0.297357 -0.0056177 0)
(0.297301 -0.00537135 0)
(0.297247 -0.00511941 0)
(0.297194 -0.00486203 0)
(0.297143 -0.00459935 0)
(0.297094 -0.00433155 0)
(0.297046 -0.00405882 0)
(0.297001 -0.00378136 0)
(0.296958 -0.00349939 0)
(0.296918 -0.00321315 0)
(0.29688 -0.00292288 0)
(0.296844 -0.00262884 0)
(0.296812 -0.00233133 0)
(0.296782 -0.00203061 0)
(0.298627 -0.0052839 0)
(0.29859 -0.00512117 0)
(0.298554 -0.00495372 0)
(0.298518 -0.00478209 0)
(0.298483 -0.00460622 0)
(0.298449 -0.00442609 0)
(0.298415 -0.00424179 0)
(0.298382 -0.0040534 0)
(0.29835 -0.00386103 0)
(0.298319 -0.00366478 0)
(0.298289 -0.00346477 0)
(0.29826 -0.00326112 0)
(0.298232 -0.00305397 0)
(0.298205 -0.00284347 0)
(0.29818 -0.00262978 0)
(0.298157 -0.00241306 0)
(0.298135 -0.00219349 0)
(0.298114 -0.00197127 0)
(0.298095 -0.00174658 0)
(0.298078 -0.00151964 0)
(0.299317 -0.00371309 0)
(0.2993 -0.00359762 0)
(0.299283 -0.00347873 0)
(0.299266 -0.00335698 0)
(0.299249 -0.00323231 0)
(0.299233 -0.00310472 0)
(0.299217 -0.00297426 0)
(0.299201 -0.002841 0)
(0.299186 -0.00270502 0)
(0.299171 -0.00256639 0)
(0.299157 -0.0024252 0)
(0.299143 -0.00228154 0)
(0.29913 -0.00213551 0)
(0.299118 -0.00198721 0)
(0.299106 -0.00183676 0)
(0.299094 -0.00168427 0)
(0.299084 -0.00152987 0)
(0.299074 -0.00137369 0)
(0.299065 -0.00121587 0)
(0.299057 -0.00105655 0)
(0.29977 -0.00219799 0)
(0.299764 -0.00212899 0)
(0.299759 -0.00205815 0)
(0.299754 -0.00198569 0)
(0.299749 -0.00191153 0)
(0.299743 -0.00183567 0)
(0.299738 -0.00175816 0)
(0.299733 -0.00167903 0)
(0.299728 -0.00159833 0)
(0.299723 -0.0015161 0)
(0.299719 -0.0014324 0)
(0.299714 -0.00134727 0)
(0.29971 -0.00126079 0)
(0.299705 -0.001173 0)
(0.299701 -0.00108397 0)
(0.299698 -0.000993771 0)
(0.299694 -0.000902476 0)
(0.299691 -0.000810162 0)
(0.299688 -0.000716905 0)
(0.299685 -0.000622792 0)
(0.299991 -0.000737033 0)
(0.299991 -0.000713417 0)
(0.299991 -0.000689016 0)
(0.299992 -0.000664283 0)
(0.299992 -0.000639118 0)
(0.299992 -0.000613456 0)
(0.299992 -0.000587293 0)
(0.299992 -0.000560638 0)
(0.299992 -0.000533497 0)
(0.299992 -0.000505877 0)
(0.299992 -0.000477792 0)
(0.299992 -0.000449253 0)
(0.299991 -0.000420276 0)
(0.299991 -0.00039088 0)
(0.299991 -0.000361083 0)
(0.299991 -0.000330906 0)
(0.299991 -0.000300371 0)
(0.299991 -0.000269503 0)
(0.299991 -0.000238326 0)
(0.299991 -0.000206857 0)
(0.0650538 -0.0756916 0)
(0.0482899 -0.0609579 0)
(0.0368437 -0.048143 0)
(0.0285235 -0.0378892 0)
(0.0222069 -0.0295675 0)
(0.0172719 -0.0227328 0)
(0.0133423 -0.0171384 0)
(0.0101734 -0.0126015 0)
(0.00759768 -0.00896556 0)
(0.00549535 -0.00609757 0)
(0.00377853 -0.00388446 0)
(0.00238164 -0.00222872 0)
(0.00125591 -0.00104448 0)
(0.000366272 -0.00025448 0)
(-0.000310194 0.000211803 0)
(-0.000784746 0.000422655 0)
(-0.001056 0.000443532 0)
(-0.00110981 0.00033477 0)
(-0.000918012 0.000169195 0)
(-0.00043062 4.15233e-05 0)
(0.105371 -0.0612622 0)
(0.0894273 -0.0550482 0)
(0.0758403 -0.0483289 0)
(0.0641816 -0.0419153 0)
(0.0541101 -0.0359195 0)
(0.0453715 -0.0303845 0)