/*--------------------------------*- C++ -*----------------------------------*\
| =========                 |                                                 |
| \\      /  F ield         | OpenFOAM: The Open Source CFD Toolbox           |
|  \\    /   O peration     | Version:  v1806                                 |
|   \\  /    A nd           | Web:      www.OpenFOAM.com                      |
|    \\/     M anipulation  |                                                 |
\*---------------------------------------------------------------------------*/
FoamFile
{
    version     2.0;
    format      ascii;
    class       volVectorField;
    location    "420";
    object      U;
}
// * * * * * * * * * * * * * * * * * * * * * * * * * * * * * * * * * * * * * //

dimensions      [0 1 -1 0 0 0 0];


internalField   nonuniform List<vector> 
4400
(
(0.220962 0.204438 0)
(0.266429 0.171549 0)
(0.275605 0.139712 0)
(0.277653 0.11279 0)
(0.282443 0.0923417 0)
(0.288729 0.0778632 0)
(0.293894 0.0674268 0)
(0.297309 0.0596027 0)
(0.299402 0.0537186 0)
(0.300664 0.0493623 0)
(0.301398 0.0461508 0)
(0.30178 0.0437505 0)
(0.301924 0.0419116 0)
(0.3019 0.0404692 0)
(0.301753 0.0393216 0)
(0.301512 0.0384086 0)
(0.301191 0.0376947 0)
(0.300801 0.0371575 0)
(0.30034 0.0367777 0)
(0.299848 0.0365369 0)
(0.239792 0.0610179 0)
(0.249259 0.0479417 0)
(0.260068 0.0423411 0)
(0.273622 0.0426299 0)
(0.2835 0.0447342 0)
(0.289115 0.0460778 0)
(0.29238 0.0464078 0)
(0.294624 0.0460135 0)
(0.296322 0.045143 0)
(0.29761 0.0439714 0)
(0.29857 0.042649 0)
(0.299267 0.0413066 0)
(0.299756 0.0400428 0)
(0.300073 0.0389174 0)
(0.300247 0.0379563 0)
(0.300302 0.0371641 0)
(0.300256 0.0365356 0)
(0.300122 0.0360623 0)
(0.299901 0.0357343 0)
(0.299607 0.0355428 0)
(0.221333 0.0490694 0)
(0.242331 0.0607496 0)
(0.259693 0.0671303 0)
(0.26966 0.0674294 0)
(0.275665 0.0634184 0)
(0.280531 0.0583018 0)
(0.284937 0.0535423 0)
(0.288683 0.0494432 0)
(0.291648 0.0460122 0)
(0.293914 0.0432255 0)
(0.295622 0.0410257 0)
(0.296896 0.0393154 0)
(0.297832 0.0379841 0)
(0.298505 0.0369369 0)
(0.298976 0.0361056 0)
(0.299289 0.035447 0)
(0.299479 0.0349355 0)
(0.299565 0.0345563 0)
(0.299552 0.0343016 0)
(0.299435 0.0341657 0)
(0.25852 0.0271097 0)
(0.263131 0.029455 0)
(0.266421 0.0296008 0)
(0.271362 0.0299043 0)
(0.276887 0.0312285 0)
(0.281703 0.0328489 0)
(0.285492 0.0342453 0)
(0.288465 0.0352159 0)
(0.290857 0.0357443 0)
(0.292803 0.0358837 0)
(0.294378 0.0357178 0)
(0.295642 0.0353439 0)
(0.296647 0.0348569 0)
(0.29744 0.0343358 0)
(0.298058 0.0338374 0)
(0.298532 0.033397 0)
(0.298888 0.0330341 0)
(0.299144 0.0327585 0)
(0.299298 0.0325764 0)
(0.299328 0.0324906 0)
(0.251778 0.0186572 0)
(0.258158 0.0263877 0)
(0.265798 0.0324256 0)
(0.272179 0.0365705 0)
(0.277015 0.038483 0)
(0.28083 0.0386787 0)
(0.284089 0.0379705 0)
(0.286943 0.0369221 0)
(0.289398 0.0358057 0)
(0.291463 0.0347509 0)
(0.293173 0.0338227 0)
(0.294577 0.0330439 0)
(0.295721 0.0324079 0)
(0.296648 0.0318941 0)
(0.297394 0.0314807 0)
(0.297993 0.0311513 0)
(0.298474 0.0308961 0)
(0.298854 0.0307106 0)
(0.299135 0.0305968 0)
(0.299279 0.030556 0)
(0.272818 0.0151748 0)
(0.27467 0.0176333 0)
(0.276032 0.0194907 0)
(0.277903 0.0209112 0)
(0.280417 0.0223408 0)
(0.283135 0.0238757 0)
(0.285684 0.025331 0)
(0.287941 0.0265633 0)
(0.289909 0.0275211 0)
(0.291619 0.0282031 0)
(0.293093 0.0286348 0)
(0.29435 0.0288589 0)
(0.295416 0.0289277 0)
(0.296314 0.028894 0)
(0.297069 0.0288038 0)
(0.297706 0.0286928 0)
(0.298243 0.0285864 0)
(0.298694 0.0285018 0)
(0.299055 0.028454 0)
(0.299278 0.0284511 0)
(0.270025 0.0094344 0)
(0.272502 0.0142243 0)
(0.275773 0.0181823 0)
(0.27905 0.0214686 0)
(0.281906 0.0238884 0)
(0.284356 0.025422 0)
(0.286518 0.0262611 0)
(0.288461 0.0266523 0)
(0.290203 0.0267836 0)
(0.291746 0.026774 0)
(0.293099 0.0266974 0)
(0.294276 0.0265985 0)
(0.295295 0.0265009 0)
(0.296173 0.0264143 0)
(0.296928 0.0263415 0)
(0.29758 0.0262827 0)
(0.298144 0.0262385 0)
(0.298633 0.0262108 0)
(0.29904 0.0262064 0)
(0.299313 0.026229 0)
(0.282136 0.0095888 0)
(0.282889 0.0114032 0)
(0.283553 0.0131447 0)
(0.284403 0.0146776 0)
(0.28558 0.0160859 0)
(0.286995 0.017456 0)
(0.288483 0.0187634 0)
(0.289927 0.0199417 0)
(0.291277 0.0209494 0)
(0.292515 0.0217738 0)
(0.293637 0.0224198 0)
(0.294641 0.0229045 0)
(0.295533 0.0232523 0)
(0.29632 0.0234916 0)
(0.297014 0.0236503 0)
(0.297629 0.0237532 0)
(0.298176 0.0238202 0)
(0.298662 0.0238667 0)
(0.29908 0.0239084 0)
(0.299374 0.0239535 0)
(0.281168 0.00574317 0)
(0.282337 0.00879943 0)
(0.283868 0.0114245 0)
(0.285527 0.013737 0)
(0.28711 0.015677 0)
(0.288553 0.0171989 0)
(0.289876 0.0183347 0)
(0.291102 0.019163 0)
(0.292238 0.0197664 0)
(0.293282 0.020211 0)
(0.294234 0.020545 0)
(0.295097 0.0208023 0)
(0.295874 0.0210056 0)
(0.296574 0.021169 0)
(0.297203 0.0213015 0)
(0.297769 0.0214086 0)
(0.298282 0.0214943 0)
(0.298747 0.0215628 0)
(0.299154 0.0216219 0)
(0.299449 0.0216751 0)
(0.288488 0.00639346 0)
(0.288804 0.00776018 0)
(0.289144 0.00914132 0)
(0.289576 0.0104392 0)
(0.290167 0.0116481 0)
(0.290906 0.0127965 0)
(0.291733 0.0138848 0)
(0.292588 0.01489 0)
(0.293431 0.0157885 0)
(0.29424 0.0165676 0)
(0.295002 0.0172252 0)
(0.295709 0.0177663 0)
(0.29636 0.0182015 0)
(0.296956 0.0185444 0)
(0.2975 0.0188098 0)
(0.297998 0.019012 0)
(0.298456 0.0191635 0)
(0.298877 0.0192752 0)
(0.299254 0.0193592 0)
(0.299533 0.0194221 0)
(0.288399 0.00387122 0)
(0.289005 0.00587401 0)
(0.289772 0.00765477 0)
(0.290628 0.00926874 0)
(0.291487 0.0107007 0)
(0.292306 0.0119258 0)
(0.293079 0.0129444 0)
(0.293811 0.0137786 0)
(0.294505 0.0144597 0)
(0.295161 0.0150179 0)
(0.295777 0.015478 0)
(0.296351 0.0158597 0)
(0.296884 0.0161777 0)
(0.297378 0.0164426 0)
(0.297836 0.0166618 0)
(0.298261 0.0168405 0)
(0.298658 0.0169827 0)
(0.299028 0.0170922 0)
(0.299363 0.0171754 0)
(0.299616 0.0172352 0)
(0.292971 0.00434704 0)
(0.293103 0.00537947 0)
(0.293272 0.00642513 0)
(0.293494 0.00743464 0)
(0.293795 0.00839032 0)
(0.294177 0.00929739 0)
(0.294621 0.0101556 0)
(0.295099 0.0109562 0)
(0.295588 0.0116877 0)
(0.296074 0.0123416 0)
(0.296546 0.012914 0)
(0.296996 0.0134055 0)
(0.297422 0.0138196 0)
(0.297822 0.0141622 0)
(0.298197 0.0144405 0)
(0.298548 0.0146618 0)
(0.298879 0.0148329 0)
(0.299191 0.0149604 0)
(0.299476 0.0150523 0)
(0.299696 0.015113 0)
(0.29325 0.00269568 0)
(0.293571 0.00402156 0)
(0.293963 0.00523294 0)
(0.294403 0.00635097 0)
(0.294857 0.007372 0)
(0.295302 0.00828406 0)
(0.295729 0.00908318 0)
(0.29614 0.00977453 0)
(0.296535 0.010369 0)
(0.296915 0.0108789 0)
(0.297278 0.011316 0)
(0.297623 0.01169 0)
(0.297951 0.012009 0)
(0.298261 0.0122793 0)
(0.298555 0.0125055 0)
(0.298833 0.0126911 0)
(0.299098 0.0128387 0)
(0.299351 0.012951 0)
(0.299585 0.0130323 0)
(0.299768 0.0130846 0)
(0.296142 0.00292574 0)
(0.296189 0.0036774 0)
(0.296262 0.00443361 0)
(0.296364 0.00517139 0)
(0.296505 0.00587685 0)
(0.296688 0.00654873 0)
(0.296907 0.00718539 0)
(0.297151 0.00778248 0)
(0.297408 0.00833425 0)
(0.29767 0.00883564 0)
(0.297931 0.00928348 0)
(0.298185 0.00967674 0)
(0.29843 0.0100162 0)
(0.298665 0.0103039 0)
(0.298889 0.010543 0)
(0.299103 0.0107368 0)
(0.299307 0.0108887 0)
(0.299502 0.0110023 0)
(0.299685 0.0110819 0)
(0.299832 0.0111302 0)
(0.296497 0.00182223 0)
(0.296661 0.00268082 0)
(0.296855 0.0034801 0)
(0.297071 0.00422689 0)
(0.297295 0.00492002 0)
(0.297517 0.00555352 0)
(0.297731 0.00612414 0)
(0.297938 0.00663238 0)
(0.298138 0.00708158 0)
(0.298332 0.00747652 0)
(0.298518 0.0078222 0)
(0.298698 0.00812319 0)
(0.298871 0.00838344 0)
(0.299036 0.00860615 0)
(0.299196 0.00879387 0)
(0.299349 0.00894852 0)
(0.299496 0.00907161 0)
(0.299639 0.0091646 0)
(0.299774 0.00922971 0)
(0.299884 0.00926813 0)
(0.298293 0.00186245 0)
(0.298298 0.0023623 0)
(0.298316 0.00286271 0)
(0.298347 0.00335323 0)
(0.298397 0.00382506 0)
(0.298466 0.00427605 0)
(0.298554 0.00470453 0)
(0.298656 0.00510797 0)
(0.298767 0.00548328 0)
(0.298884 0.00582754 0)
(0.299002 0.00613857 0)
(0.29912 0.00641518 0)
(0.299235 0.00665711 0)
(0.299347 0.00686491 0)
(0.299455 0.00703964 0)
(0.299559 0.00718271 0)
(0.299659 0.00729562 0)
(0.299756 0.00737998 0)
(0.299849 0.00743776 0)
(0.299927 0.00747033 0)
(0.298559 0.00109274 0)
(0.298636 0.00159933 0)
(0.298722 0.00207584 0)
(0.298816 0.00252461 0)
(0.298912 0.00294506 0)
(0.299005 0.003334 0)
(0.299093 0.00368934 0)
(0.299177 0.00401056 0)
(0.299256 0.00429849 0)
(0.299332 0.00455483 0)
(0.299405 0.0047816 0)
(0.299475 0.00498083 0)
(0.299543 0.00515432 0)
(0.299609 0.00530361 0)
(0.299673 0.00542993 0)
(0.299734 0.00553424 0)
(0.299795 0.00561729 0)
(0.299853 0.00567975 0)
(0.29991 0.0057223 0)
(0.299959 0.0057455 0)
(0.299592 0.001001 0)
(0.29958 0.00126519 0)
(0.29957 0.00153043 0)
(0.299563 0.00179231 0)
(0.299562 0.00204592 0)
(0.299569 0.00228953 0)
(0.299584 0.00252192 0)
(0.299606 0.00274169 0)
(0.299634 0.00294724 0)
(0.299665 0.00313702 0)
(0.299698 0.00330971 0)
(0.299732 0.00346446 0)
(0.299766 0.00360082 0)
(0.2998 0.00371877 0)
(0.299832 0.00381857 0)
(0.299864 0.0039007 0)
(0.299895 0.00396573 0)
(0.299925 0.00401426 0)
(0.299955 0.00404679 0)
(0.299981 0.00406385 0)
(0.299668 0.000417549 0)
(0.299702 0.000639404 0)
(0.299733 0.000846889 0)
(0.299764 0.00104128 0)
(0.299792 0.00122304 0)
(0.299818 0.0013909 0)
(0.299839 0.00154401 0)
(0.299857 0.00168222 0)
(0.299873 0.00180593 0)
(0.299886 0.00191592 0)
(0.299899 0.00201315 0)
(0.299911 0.00209856 0)
(0.299922 0.00217298 0)
(0.299933 0.0022371 0)
(0.299943 0.00229145 0)
(0.299954 0.00233641 0)
(0.299964 0.00237226 0)
(0.299974 0.00239917 0)
(0.299985 0.00241715 0)
(0.299994 0.00242625 0)
(0.300095 0.000231671 0)
(0.300079 0.000275726 0)
(0.300062 0.000320971 0)
(0.300045 0.000365391 0)
(0.30003 0.000408794 0)
(0.300018 0.000451469 0)
(0.300009 0.00049336 0)
(0.300002 0.000534211 0)
(0.299998 0.000573596 0)
(0.299996 0.000610981 0)
(0.299995 0.000645828 0)
(0.299995 0.000677672 0)
(0.299995 0.000706165 0)
(0.299996 0.000731088 0)
(0.299997 0.00075234 0)
(0.299998 0.000769914 0)
(0.299998 0.000783863 0)
(0.299999 0.000794261 0)
(0.299999 0.000801148 0)
(0.3 0.000804579 0)
(0.137629 -0.148642 0)
(0.124473 -0.130413 0)
(0.116152 -0.112616 0)
(0.110189 -0.0957745 0)
(0.105626 -0.079625 0)
(0.102059 -0.0639903 0)
(0.0992999 -0.0487695 0)
(0.0972559 -0.0338722 0)
(0.0958765 -0.0192074 0)
(0.0951359 -0.00468505 0)
(0.0950233 0.00978357 0)
(0.0955401 0.0242872 0)
(0.0967002 0.0389157 0)
(0.0985328 0.0537613 0)
(0.101092 0.0689186 0)
(0.104478 0.0844843 0)
(0.108884 0.100575 0)
(0.114724 0.117396 0)
(0.122968 0.135174 0)
(0.136124 0.153075 0)
(0.204144 -0.0475358 0)
(0.197322 -0.0433081 0)
(0.19071 -0.03849 0)
(0.184631 -0.0332996 0)
(0.179274 -0.0278357 0)
(0.174746 -0.0221515 0)
(0.171094 -0.0162904 0)
(0.16834 -0.0102925 0)
(0.166488 -0.00419464 0)
(0.165537 0.00196795 0)
(0.165492 0.00816106 0)
(0.16636 0.0143506 0)
(0.168155 0.0205021 0)
(0.1709 0.02658 0)
(0.174622 0.0325448 0)
(0.179351 0.0383484 0)
(0.18511 0.0439448 0)
(0.191903 0.0493472 0)
(0.199703 0.0545789 0)
(0.208416 0.0588317 0)
(0.213887 -0.0351719 0)
(0.21249 -0.0321285 0)
(0.211416 -0.0287922 0)
(0.210595 -0.0251807 0)
(0.209971 -0.0213252 0)
(0.209507 -0.0172619 0)
(0.209177 -0.0130287 0)
(0.208964 -0.00866359 0)
(0.208862 -0.00420393 0)
(0.208865 0.000313646 0)
(0.208969 0.00485308 0)
(0.209173 0.00937837 0)
(0.209475 0.013853 0)
(0.209875 0.0182393 0)
(0.210374 0.0224977 0)
(0.210982 0.0265866 0)
(0.211713 0.0304618 0)
(0.212604 0.0340748 0)
(0.213719 0.0373765 0)
(0.21516 0.0403411 0)
(0.250348 -0.0147448 0)
(0.249082 -0.0129295 0)
(0.24784 -0.0110642 0)
(0.246662 -0.00915949 0)
(0.245588 -0.00722319 0)
(0.244651 -0.00526157 0)
(0.243878 -0.00327984 0)
(0.243291 -0.00128269 0)
(0.242908 0.000725323 0)
(0.24274 0.00273964 0)
(0.242795 0.00475563 0)
(0.243077 0.0067687 0)
(0.243586 0.0087743 0)
(0.244317 0.010768 0)
(0.245262 0.0127454 0)
(0.246407 0.0147016 0)
(0.247734 0.0166336 0)
(0.249219 0.0185443 0)
(0.250836 0.0204292 0)
(0.252553 0.022197 0)
(0.249422 -0.012787 0)
(0.249042 -0.0115067 0)
(0.248748 -0.0101742 0)
(0.248527 -0.00879131 0)
(0.248369 -0.00736184 0)
(0.248265 -0.00589093 0)
(0.248206 -0.00438508 0)
(0.248185 -0.00285176 0)
(0.248195 -0.00129923 0)
(0.248233 0.000263721 0)
(0.248296 0.0018279 0)
(0.248381 0.0033839 0)
(0.248489 0.00492223 0)
(0.24862 0.00643346 0)
(0.248778 0.00790853 0)
(0.248967 0.00933897 0)
(0.249194 0.0107159 0)
(0.249465 0.0120276 0)
(0.249793 0.0132664 0)
(0.250189 0.0144694 0)
(0.270713 -0.00693325 0)
(0.270393 -0.00594473 0)
(0.270085 -0.00494608 0)
(0.269795 -0.00393976 0)
(0.269531 -0.00292782 0)
(0.269301 -0.00191191 0)
(0.269112 -0.00089329 0)
(0.268968 0.000127039 0)
(0.268876 0.00114834 0)
(0.268838 0.00217003 0)
(0.268857 0.00319169 0)
(0.268933 0.00421295 0)
(0.269066 0.00523352 0)
(0.269256 0.00625308 0)
(0.269499 0.00727114 0)
(0.269791 0.0082869 0)
(0.270127 0.00930023 0)
(0.270501 0.0103142 0)
(0.270905 0.0113294 0)
(0.271333 0.0123071 0)
(0.268565 -0.00616641 0)
(0.268402 -0.00550046 0)
(0.268272 -0.0048222 0)
(0.268172 -0.00413227 0)
(0.268099 -0.00343166 0)
(0.26805 -0.00272163 0)
(0.268022 -0.00200376 0)
(0.268014 -0.00127985 0)
(0.268023 -0.000551919 0)
(0.268048 0.000177851 0)
(0.268088 0.000907173 0)
(0.268142 0.00163369 0)
(0.26821 0.00235502 0)
(0.268293 0.00306881 0)
(0.268392 0.00377288 0)
(0.268508 0.00446532 0)
(0.268644 0.00514378 0)
(0.268802 0.00580372 0)
(0.268987 0.00644226 0)
(0.269201 0.00708398 0)
(0.281619 -0.00402005 0)
(0.281521 -0.00340696 0)
(0.281427 -0.00279006 0)
(0.281339 -0.00217022 0)
(0.281259 -0.00154816 0)
(0.281189 -0.000924502 0)
(0.281131 -0.000299761 0)
(0.281087 0.000325647 0)
(0.281057 0.000951386 0)
(0.281043 0.00157719 0)
(0.281045 0.00220283 0)
(0.281064 0.00282812 0)
(0.2811 0.00345289 0)
(0.281152 0.00407697 0)
(0.281219 0.00470007 0)
(0.2813 0.00532175 0)
(0.281393 0.00594193 0)
(0.281497 0.00656232 0)
(0.281609 0.00718361 0)
(0.281727 0.00778587 0)
(0.280222 -0.00353982 0)
(0.280139 -0.0031364 0)
(0.280072 -0.00272943 0)
(0.280019 -0.00231914 0)
(0.279979 -0.00190583 0)
(0.279952 -0.0014899 0)
(0.279937 -0.00107182 0)
(0.279933 -0.000652114 0)
(0.279939 -0.000231363 0)
(0.279956 0.000189798 0)
(0.279982 0.000610708 0)
(0.280018 0.00103069 0)
(0.280063 0.00144905 0)
(0.280118 0.00186511 0)
(0.280184 0.00227827 0)
(0.28026 0.00268804 0)
(0.280348 0.00309368 0)
(0.280448 0.00349316 0)
(0.280561 0.00388521 0)
(0.280689 0.00428335 0)
(0.2884 -0.00258466 0)
(0.288366 -0.00217911 0)
(0.288333 -0.00177168 0)
(0.288302 -0.00136275 0)
(0.288273 -0.000952628 0)
(0.288248 -0.000541633 0)
(0.288227 -0.000130028 0)
(0.28821 0.000281946 0)
(0.288197 0.000694074 0)
(0.28819 0.00110616 0)
(0.288188 0.00151803 0)
(0.288191 0.00192951 0)
(0.288199 0.00234044 0)
(0.288212 0.00275064 0)
(0.28823 0.00315991 0)
(0.288252 0.00356793 0)
(0.288278 0.00397463 0)
(0.288307 0.00438087 0)
(0.288338 0.0047871 0)
(0.288372 0.00518289 0)
(0.287814 -0.00223989 0)
(0.28777 -0.00197214 0)
(0.287734 -0.00170318 0)
(0.287705 -0.0014331 0)
(0.287684 -0.00116202 0)
(0.287669 -0.000890068 0)
(0.287661 -0.000617404 0)
(0.28766 -0.000344203 0)
(0.287664 -7.06573e-05 0)
(0.287675 0.000203027 0)
(0.287692 0.000476637 0)
(0.287714 0.000749952 0)
(0.287743 0.00102275 0)
(0.287778 0.00129481 0)
(0.287818 0.00156596 0)
(0.287866 0.00183606 0)
(0.287919 0.00210484 0)
(0.28798 0.00237133 0)
(0.288047 0.00263492 0)
(0.288123 0.00290282 0)
(0.292993 -0.00173697 0)
(0.29298 -0.00146198 0)
(0.292968 -0.00118598 0)
(0.292956 -0.000909132 0)
(0.292944 -0.000631626 0)
(0.292934 -0.000353624 0)
(0.292925 -7.52783e-05 0)
(0.292918 0.000203264 0)
(0.292912 0.000481864 0)
(0.292907 0.00076039 0)
(0.292904 0.00103871 0)
(0.292903 0.00131671 0)
(0.292904 0.00159426 0)
(0.292906 0.00187123 0)
(0.292909 0.00214749 0)
(0.292914 0.00242283 0)
(0.292919 0.00269718 0)
(0.292926 0.00297101 0)
(0.292934 0.00324455 0)
(0.292942 0.00351231 0)
(0.292906 -0.00147551 0)
(0.292883 -0.0012919 0)
(0.292864 -0.00110782 0)
(0.292848 -0.000923309 0)
(0.292837 -0.000738402 0)
(0.292829 -0.000553154 0)
(0.292826 -0.000367626 0)
(0.292825 -0.000181882 0)
(0.292828 4.00721e-06 0)
(0.292835 0.000189968 0)
(0.292845 0.000375925 0)
(0.292859 0.000561798 0)
(0.292876 0.00074751 0)
(0.292897 0.000932981 0)
(0.292921 0.00111815 0)
(0.292948 0.00130299 0)
(0.292979 0.00148738 0)
(0.293014 0.00167083 0)
(0.293053 0.00185304 0)
(0.293095 0.00203784 0)
(0.296187 -0.00116672 0)
(0.296182 -0.000981792 0)
(0.296177 -0.000796291 0)
(0.296173 -0.000610319 0)
(0.296169 -0.000423974 0)
(0.296164 -0.000237348 0)
(0.29616 -5.05334e-05 0)
(0.296157 0.000136382 0)
(0.296154 0.000323311 0)
(0.296151 0.000510171 0)
(0.296148 0.000696878 0)
(0.296146 0.000883351 0)
(0.296144 0.00106951 0)
(0.296143 0.00125527 0)
(0.296142 0.00144054 0)
(0.296142 0.00162521 0)
(0.296141 0.00180922 0)
(0.296141 0.00199281 0)
(0.296141 0.00217613 0)
(0.296141 0.00235624 0)
(0.296305 -0.000958634 0)
(0.296294 -0.000835897 0)
(0.296284 -0.000712949 0)
(0.296277 -0.000589808 0)
(0.296271 -0.000466493 0)
(0.296268 -0.000343027 0)
(0.296266 -0.000219434 0)
(0.296266 -9.57387e-05 0)
(0.296268 2.80293e-05 0)
(0.296272 0.000151842 0)
(0.296278 0.000275668 0)
(0.296286 0.000399479 0)
(0.296296 0.000523242 0)
(0.296307 0.000646928 0)
(0.29632 0.000770514 0)
(0.296335 0.000893992 0)
(0.296352 0.00101731 0)
(0.296371 0.0011402 0)
(0.296392 0.00126253 0)
(0.296415 0.00138634 0)
(0.298339 -0.000740544 0)
(0.298338 -0.000622967 0)
(0.298337 -0.000505073 0)
(0.298336 -0.000386916 0)
(0.298335 -0.000268551 0)
(0.298333 -0.000150031 0)
(0.298332 -3.14085e-05 0)
(0.29833 8.72648e-05 0)
(0.298328 0.000205938 0)
(0.298326 0.000324561 0)
(0.298324 0.000443085 0)
(0.298322 0.000561459 0)
(0.29832 0.000679634 0)
(0.298318 0.000797563 0)
(0.298316 0.00091519 0)
(0.298314 0.00103245 0)
(0.298311 0.00114931 0)
(0.298309 0.00126589 0)
(0.298306 0.00138229 0)
(0.298303 0.00149693 0)
(0.298458 -0.000565392 0)
(0.298453 -0.000492227 0)
(0.298449 -0.000418968 0)
(0.298446 -0.00034562 0)
(0.298443 -0.000272191 0)
(0.298442 -0.00019869 0)
(0.298442 -0.000125123 0)
(0.298442 -5.15013e-05 0)
(0.298444 2.21661e-05 0)
(0.298446 9.58692e-05 0)
(0.298449 0.000169598 0)
(0.298453 0.000243341 0)
(0.298458 0.00031709 0)
(0.298464 0.000390833 0)
(0.298471 0.000464565 0)
(0.298479 0.000538286 0)
(0.298487 0.000611973 0)
(0.298497 0.000685497 0)
(0.298507 0.000758796 0)
(0.298519 0.000832968 0)
(0.299627 -0.000390891 0)
(0.299628 -0.000327998 0)
(0.299628 -0.000264943 0)
(0.299628 -0.000201752 0)
(0.299628 -0.000138454 0)
(0.299628 -7.5076e-05 0)
(0.299628 -1.16437e-05 0)
(0.299627 5.18164e-05 0)
(0.299626 0.000115278 0)
(0.299625 0.000178716 0)
(0.299624 0.000242105 0)
(0.299622 0.000305419 0)
(0.299621 0.000368634 0)
(0.299619 0.000431726 0)
(0.299617 0.000494668 0)
(0.299614 0.000557424 0)
(0.299612 0.000619981 0)
(0.299609 0.000682425 0)
(0.299606 0.000744825 0)
(0.299603 0.000806244 0)
(0.29961 -0.000233534 0)
(0.299608 -0.000204876 0)
(0.299606 -0.0001762 0)
(0.299605 -0.000147507 0)
(0.299605 -0.000118798 0)
(0.299604 -9.00709e-05 0)
(0.299605 -6.13278e-05 0)
(0.299605 -3.2569e-05 0)
(0.299607 -3.79549e-06 0)
(0.299608 2.49916e-05 0)
(0.29961 5.3791e-05 0)
(0.299612 8.26013e-05 0)
(0.299615 0.000111421 0)
(0.299619 0.000140248 0)
(0.299622 0.000169082 0)
(0.299626 0.000197928 0)
(0.299631 0.000226774 0)
(0.299636 0.000255546 0)
(0.299641 0.000284207 0)
(0.299647 0.000313374 0)
(0.300128 -7.70609e-05 0)
(0.300129 -6.27975e-05 0)
(0.30013 -4.84913e-05 0)
(0.30013 -3.4152e-05 0)
(0.300131 -1.97916e-05 0)
(0.300131 -5.42152e-06 0)
(0.300131 8.94726e-06 0)
(0.30013 2.33036e-05 0)
(0.30013 3.76362e-05 0)
(0.300129 5.19339e-05 0)
(0.300128 6.61854e-05 0)
(0.300126 8.03794e-05 0)
(0.300125 9.45048e-05 0)
(0.300123 0.00010855 0)
(0.300121 0.000122505 0)
(0.300119 0.000136354 0)
(0.300117 0.000150089 0)
(0.300114 0.000163734 0)
(0.300111 0.000177326 0)
(0.300108 0.00019061 0)
(0.276272 -0.118522 0)
(0.276864 -0.1229 0)
(0.277725 -0.127533 0)
(0.278755 -0.13246 0)
(0.279824 -0.137627 0)
(0.280775 -0.142964 0)
(0.28142 -0.148384 0)
(0.281552 -0.153787 0)
(0.280944 -0.159057 0)
(0.279358 -0.164061 0)
(0.276555 -0.168656 0)
(0.272298 -0.172691 0)
(0.266361 -0.176005 0)
(0.258531 -0.178432 0)
(0.248614 -0.179785 0)
(0.236435 -0.179857 0)
(0.221845 -0.178501 0)
(0.204723 -0.175757 0)
(0.184983 -0.171546 0)
(0.162583 -0.164058 0)
(0.26307 -0.0366552 0)
(0.259674 -0.036882 0)
(0.256186 -0.0372784 0)
(0.252678 -0.0378008 0)
(0.249232 -0.0384876 0)
(0.245935 -0.039367 0)
(0.24287 -0.0404496 0)
(0.240104 -0.0417332 0)
(0.237683 -0.0432032 0)
(0.235619 -0.0448303 0)
(0.233887 -0.0465684 0)
(0.232416 -0.0483543 0)
(0.231091 -0.0501062 0)
(0.229758 -0.0517243 0)
(0.228229 -0.0530909 0)
(0.226299 -0.054073 0)
(0.223765 -0.0545229 0)
(0.220427 -0.0542709 0)
(0.216094 -0.0531151 0)
(0.21062 -0.0508702 0)
(0.270684 -0.0641091 0)
(0.269623 -0.0639367 0)
(0.26826 -0.0636206 0)
(0.266587 -0.0631507 0)
(0.264592 -0.0625172 0)
(0.262266 -0.0617174 0)
(0.25961 -0.0607546 0)
(0.256633 -0.059637 0)
(0.253358 -0.0583771 0)
(0.249823 -0.0569907 0)
(0.246082 -0.0554951 0)
(0.242198 -0.0539068 0)
(0.23825 -0.0522394 0)
(0.234321 -0.0505012 0)
(0.2305 -0.0486928 0)
(0.226873 -0.0468057 0)
(0.223519 -0.0448211 0)
(0.220504 -0.0427089 0)
(0.217877 -0.0404273 0)
(0.21567 -0.0379289 0)
(0.264731 -0.0289932 0)
(0.263624 -0.0289937 0)
(0.262635 -0.0289733 0)
(0.261767 -0.0289435 0)
(0.26102 -0.0288905 0)
(0.260385 -0.0287976 0)
(0.259853 -0.0286496 0)
(0.259406 -0.0284308 0)
(0.25902 -0.0281256 0)
(0.258672 -0.0277188 0)
(0.258329 -0.0271967 0)
(0.257964 -0.0265476 0)
(0.257544 -0.0257628 0)
(0.257042 -0.0248368 0)
(0.256436 -0.023768 0)
(0.25571 -0.0225588 0)
(0.254855 -0.0212156 0)
(0.253874 -0.0197484 0)
(0.25278 -0.0181703 0)
(0.251593 -0.0164969 0)
(0.271717 -0.0313817 0)
(0.27071 -0.0307231 0)
(0.26962 -0.0300356 0)
(0.268449 -0.029301 0)
(0.267205 -0.0285256 0)
(0.265896 -0.0277166 0)
(0.264537 -0.0268792 0)
(0.263141 -0.0260175 0)
(0.261727 -0.0251352 0)
(0.260314 -0.024235 0)
(0.25892 -0.0233187 0)
(0.257566 -0.0223865 0)
(0.25627 -0.0214374 0)
(0.25505 -0.0204693 0)
(0.25392 -0.0194785 0)
(0.252892 -0.0184607 0)
(0.251973 -0.0174106 0)
(0.251168 -0.016323 0)
(0.250478 -0.0151926 0)
(0.249898 -0.014015 0)
(0.27511 -0.0203535 0)
(0.2748 -0.0200206 0)
(0.274526 -0.0196479 0)
(0.274287 -0.0192534 0)
(0.274079 -0.0188317 0)
(0.273898 -0.018377 0)
(0.273739 -0.0178856 0)
(0.273595 -0.0173552 0)
(0.273459 -0.0167836 0)
(0.273324 -0.0161695 0)
(0.273183 -0.0155121 0)
(0.27303 -0.0148116 0)
(0.272859 -0.0140691 0)
(0.272666 -0.0132861 0)
(0.27245 -0.0124652 0)
(0.272208 -0.0116093 0)
(0.271943 -0.0107219 0)
(0.271655 -0.00980676 0)
(0.271351 -0.00886774 0)
(0.271034 -0.00790869 0)
(0.278337 -0.0174615 0)
(0.277753 -0.0169712 0)
(0.277156 -0.0164807 0)
(0.276547 -0.0159761 0)
(0.27593 -0.0154597 0)
(0.275309 -0.0149344 0)
(0.274688 -0.0144016 0)
(0.274073 -0.0138619 0)
(0.273468 -0.0133159 0)
(0.27288 -0.012764 0)
(0.272313 -0.0122061 0)
(0.271772 -0.0116421 0)
(0.271262 -0.0110713 0)
(0.270787 -0.0104932 0)
(0.270348 -0.00990678 0)
(0.26995 -0.00931123 0)
(0.269592 -0.00870556 0)
(0.269276 -0.00808889 0)
(0.269 -0.00746048 0)
(0.268764 -0.00681975 0)
(0.283199 -0.0139491 0)
(0.283093 -0.0136 0)
(0.282998 -0.0132269 0)
(0.282913 -0.0128412 0)
(0.282837 -0.0124416 0)
(0.282768 -0.0120261 0)
(0.282705 -0.011594 0)
(0.282645 -0.0111453 0)
(0.282587 -0.0106799 0)
(0.282529 -0.010198 0)
(0.282469 -0.00969991 0)
(0.282406 -0.00918618 0)
(0.282338 -0.00865756 0)
(0.282265 -0.00811495 0)
(0.282186 -0.00755937 0)
(0.282101 -0.00699196 0)
(0.282011 -0.00641392 0)
(0.281917 -0.0058265 0)
(0.281819 -0.00523092 0)
(0.281719 -0.00462839 0)
(0.284942 -0.0109279 0)
(0.284629 -0.0105834 0)
(0.284315 -0.010242 0)
(0.284003 -0.00989523 0)
(0.283693 -0.00954406 0)
(0.283386 -0.00918973 0)
(0.283086 -0.00883263 0)
(0.282792 -0.00847289 0)
(0.282507 -0.00811061 0)
(0.282233 -0.00774585 0)
(0.281971 -0.00737861 0)
(0.281722 -0.00700881 0)
(0.281488 -0.00663634 0)
(0.28127 -0.00626103 0)
(0.281069 -0.00588271 0)
(0.280884 -0.00550116 0)
(0.280717 -0.00511622 0)
(0.280567 -0.0047277 0)
(0.280435 -0.0043355 0)
(0.28032 -0.00393955 0)
(0.289035 -0.00965734 0)
(0.288991 -0.00937347 0)
(0.288952 -0.00907644 0)
(0.288916 -0.00877299 0)
(0.288884 -0.00846258 0)
(0.288854 -0.00814441 0)
(0.288826 -0.00781844 0)
(0.288799 -0.0074848 0)
(0.288773 -0.00714366 0)
(0.288748 -0.00679523 0)
(0.288721 -0.00643976 0)
(0.288695 -0.00607757 0)
(0.288667 -0.00570902 0)
(0.288637 -0.00533451 0)
(0.288607 -0.00495447 0)
(0.288574 -0.00456937 0)
(0.288541 -0.00417969 0)
(0.288506 -0.0037859 0)
(0.288471 -0.00338849 0)
(0.288436 -0.00298793 0)
(0.290219 -0.00733192 0)
(0.290052 -0.00708727 0)
(0.289887 -0.00684485 0)
(0.289724 -0.00660003 0)
(0.289564 -0.00635321 0)
(0.289407 -0.00610503 0)
(0.289254 -0.00585564 0)
(0.289106 -0.00560507 0)
(0.288964 -0.00535333 0)
(0.288827 -0.00510047 0)
(0.288696 -0.00484649 0)
(0.288572 -0.00459138 0)
(0.288456 -0.00433513 0)
(0.288347 -0.00407769 0)
(0.288246 -0.00381903 0)
(0.288154 -0.00355912 0)
(0.288069 -0.00329792 0)
(0.287993 -0.0030354 0)
(0.287925 -0.00277156 0)
(0.287865 -0.00250638 0)
(0.293251 -0.006716 0)
(0.293233 -0.00650272 0)
(0.293216 -0.00628229 0)
(0.2932 -0.00605848 0)
(0.293186 -0.00583104 0)
(0.293174 -0.0055996 0)
(0.293162 -0.00536418 0)
(0.29315 -0.00512491 0)
(0.293139 -0.00488191 0)
(0.293128 -0.00463531 0)
(0.293118 -0.00438526 0)
(0.293107 -0.00413193 0)
(0.293095 -0.00387549 0)
(0.293084 -0.00361614 0)
(0.293072 -0.00335409 0)
(0.293059 -0.00308954 0)
(0.293047 -0.00282271 0)
(0.293033 -0.00255382 0)
(0.29302 -0.0022831 0)
(0.293007 -0.00201074 0)
(0.294145 -0.00502992 0)
(0.294057 -0.00485696 0)
(0.293971 -0.00468532 0)
(0.293886 -0.00451244 0)
(0.293803 -0.00433853 0)
(0.293722 -0.00416392 0)
(0.293644 -0.00398869 0)
(0.293568 -0.00381285 0)
(0.293495 -0.00363641 0)
(0.293425 -0.0034594 0)
(0.293359 -0.00328182 0)
(0.293296 -0.00310369 0)
(0.293237 -0.002925 0)
(0.293181 -0.00274576 0)
(0.293129 -0.00256596 0)
(0.293082 -0.00238561 0)
(0.293038 -0.00220469 0)
(0.292999 -0.00202321 0)
(0.292964 -0.00184118 0)
(0.292933 -0.00165861 0)
(0.296265 -0.00458688 0)
(0.296259 -0.00443503 0)
(0.296254 -0.00427925 0)
(0.296249 -0.00412164 0)
(0.296244 -0.00396205 0)
(0.296241 -0.00380031 0)
(0.296237 -0.00363643 0)
(0.296234 -0.00347051 0)
(0.296231 -0.0033026 0)
(0.296228 -0.0031328 0)
(0.296225 -0.00296118 0)
(0.296222 -0.00278783 0)
(0.296219 -0.00261285 0)
(0.296216 -0.00243633 0)
(0.296212 -0.00225839 0)
(0.296208 -0.00207912 0)
(0.296204 -0.00189863 0)
(0.2962 -0.00171704 0)
(0.296196 -0.00153445 0)
(0.296191 -0.00135098 0)
(0.296924 -0.00335506 0)
(0.29688 -0.00323777 0)
(0.296836 -0.00312122 0)
(0.296794 -0.003004 0)
(0.296753 -0.0028862 0)
(0.296712 -0.00276802 0)
(0.296673 -0.00264949 0)
(0.296635 -0.00253062 0)
(0.296599 -0.00241143 0)
(0.296564 -0.00229192 0)
(0.296531 -0.0021721 0)
(0.2965 -0.002052 0)
(0.296471 -0.0019316 0)
(0.296443 -0.00181091 0)
(0.296417 -0.00168995 0)
(0.296393 -0.00156872 0)
(0.296372 -0.00144721 0)
(0.296352 -0.00132544 0)
(0.296334 -0.00120342 0)
(0.296319 -0.00108115 0)
(0.298322 -0.00294105 0)
(0.298323 -0.00284141 0)
(0.298324 -0.00273962 0)
(0.298325 -0.00263683 0)
(0.298327 -0.00253298 0)
(0.298328 -0.00242794 0)
(0.29833 -0.00232176 0)
(0.298332 -0.00221446 0)
(0.298333 -0.0021061 0)
(0.298335 -0.00199672 0)
(0.298336 -0.00188637 0)
(0.298338 -0.00177508 0)
(0.298339 -0.00166291 0)
(0.29834 -0.00154992 0)
(0.29834 -0.00143616 0)
(0.298341 -0.00132168 0)
(0.298341 -0.00120654 0)
(0.298341 -0.0010908 0)
(0.298341 -0.000974519 0)
(0.29834 -0.000857747 0)
(0.298742 -0.00200253 0)
(0.298722 -0.00193175 0)
(0.298702 -0.00186142 0)
(0.298682 -0.00179076 0)
(0.298663 -0.00171983 0)
(0.298645 -0.00164872 0)
(0.298627 -0.00157745 0)
(0.298609 -0.00150603 0)
(0.298593 -0.00143445 0)
(0.298577 -0.00136273 0)
(0.298562 -0.00129087 0)
(0.298547 -0.00121888 0)
(0.298534 -0.00114675 0)
(0.298521 -0.0010745 0)
(0.298509 -0.00100212 0)
(0.298498 -0.000929619 0)
(0.298488 -0.000857 0)
(0.298479 -0.000784264 0)
(0.298471 -0.000711415 0)
(0.298464 -0.000638456 0)
(0.299567 -0.00157357 0)
(0.299571 -0.0015196 0)
(0.299575 -0.00146448 0)
(0.299579 -0.0014089 0)
(0.299583 -0.00135282 0)
(0.299587 -0.00129616 0)
(0.299591 -0.00123893 0)
(0.299595 -0.00118116 0)
(0.299599 -0.00112286 0)
(0.299602 -0.00106405 0)
(0.299605 -0.00100477 0)
(0.299609 -0.000945021 0)
(0.299612 -0.00088484 0)
(0.299614 -0.00082425 0)
(0.299617 -0.000763275 0)
(0.299619 -0.000701943 0)
(0.299621 -0.000640282 0)
(0.299623 -0.000578318 0)
(0.299625 -0.000516079 0)
(0.299626 -0.000453594 0)
(0.299728 -0.000804179 0)
(0.29972 -0.000775561 0)
(0.299711 -0.000747275 0)
(0.299703 -0.000718889 0)
(0.299695 -0.000690428 0)
(0.299687 -0.000661945 0)
(0.299679 -0.000633451 0)
(0.299672 -0.000604946 0)
(0.299665 -0.000576431 0)
(0.299658 -0.000547907 0)
(0.299652 -0.000519376 0)
(0.299646 -0.000490837 0)
(0.29964 -0.00046229 0)
(0.299635 -0.000433735 0)
(0.29963 -0.000405171 0)
(0.299626 -0.000376597 0)
(0.299622 -0.000348011 0)
(0.299618 -0.000319413 0)
(0.299615 -0.000290802 0)
(0.299612 -0.000262176 0)
(0.300066 -0.000337103 0)
(0.30007 -0.000325871 0)
(0.300075 -0.00031428 0)
(0.300079 -0.000302539 0)
(0.300083 -0.000290612 0)
(0.300087 -0.000278476 0)
(0.300091 -0.000266136 0)
(0.300095 -0.000253601 0)
(0.300099 -0.00024088 0)
(0.300102 -0.000227979 0)
(0.300106 -0.000214909 0)
(0.300109 -0.000201678 0)
(0.300112 -0.000188297 0)
(0.300115 -0.000174774 0)
(0.300117 -0.000161121 0)
(0.300119 -0.000147348 0)
(0.300122 -0.000133466 0)
(0.300123 -0.000119485 0)
(0.300125 -0.000105417 0)
(0.300127 -9.12716e-05 0)
(0.0572798 -0.0387914 0)
(0.0480878 -0.0333076 0)
(0.0407277 -0.0282348 0)
(0.0346835 -0.0238566 0)
(0.0296178 -0.0200418 0)
(0.0253044 -0.0166907 0)
(0.0215867 -0.0137557 0)
(0.0183526 -0.0112012 0)
(0.0155201 -0.00899316 0)
(0.0130279 -0.0070998 0)
(0.0108296 -0.00549237 0)