x,y,z,U_0,U_1,U_2
0,0,0,0.299999,-0.000115059,0
0,0.1,0,0.299999,-6.90357e-05,0
0,0.2,0,0.3,-2.30119e-05,0
0,0.3,0,0.3,0,0
0,0.4,0,0.3,0,0
0,0.5,0,0.3,0,0
0,0.6,0,0.3,0,0
0,0.7,0,0.3,0,0
0,0.8,0,0.3,0,0
0,0.9,0,0.3,0,0
0,1,0,0.3,0,0
0,1.1,0,0.3,0,0
0,1.2,0,0.3,0,0
0,1.3,0,0.3,0,0
0,1.4,0,0.3,0,0
0,1.5,0,0.3,0,0
0,1.6,0,0.3,0,0
0,1.7,0,0.3,0,0
0,1.8,0,0.3,0,0
0,1.9,0,0.3,0,0
0,2,0,0.3,0,0
0,2.1,0,0.3,0,0
0,2.2,0,0.3,0,0
0,2.3,0,0.3,0,0
0,2.4,0,0.3,0,0
0,2.5,0,0.3,0,0
0,2.6,0,0.3,0,0
0,2.7,0,0.3,0,0
0,2.8,0,0.3,0,0
0,2.9,0,0.3,0,0
0,3,0,0.3,0,0
0,3.1,0,0.3,0,0
0,3.2,0,0.3,0,0
0,3.3,0,0.3,0,0
0,3.4,0,0.3,0,0
0,3.5,0,0.3,0,0
0,3.6,0,0.3,0,0
0,3.7,0,0.3,0,0
0,3.8,0,0.3,0,0
0,3.9,0,0.3,0,0
0,4,0,0.3,0,0
0,4.1,0,0.3,0,0
0,4.2,0,0.3,0,0
0,4.3,0,0.3,0,0
0,4.4,0,0.3,0,0
0,4.5,0,0.3,0,0
0,4.6,0,0.3,0,0
0,4.7,0,0.3,0,0
0,4.8,0,0.3,0,0
0,4.9,0,0.3,0,0
0,5,0,0.3,0,0
0,5.1,0,0.3,0,0
0,5.2,0,0.3,0,0
0,5.3,0,0.3,0,0
0,5.4,0,0.3,0,0
0,5.5,0,0.3,0,0
0,5.6,0,0.3,0,0
0,5.7,0,0.3,0,0
0,5.8,0,0.3,0,0
0,5.9,0,0.3,0,0
0,6,0,0.3,0,0
0,6.1,0,0.3,0,0
0,6.2,0,0.3,0,0
0,6.3,0,0.3,0,0
0,6.4,0,0.3,0,0
0,6.5,0,0.3,0,0
0,6.6,0,0.3,0,0
0,6.7,0,0.3,0,0
0,6.8,0,0.3,0,0
0,6.9,0,0.3,0,0
0,7,0,0.3,0,0
0,7.1,0,0.3,0,0
0,7.2,0,0.3,0,0
0,7.3,0,0.3,0,0
0,7.4,0,0.3,0,0
0,7.5,0,0.3,0,0
0,7.6,0,0.3,0,0
0,7.7,0,0.3,0,0
0,7.8,0,0.3,0,0
0,7.9,0,0.3,0,0
0,8,0,0.3,0,0
0,8.1,0,0.3,0,0
0,8.2,0,0.3,0,0
0,8.3,0,0.3,0,0
0,8.4,0,0.3,0,0
0,8.5,0,0.3,0,0
0,8.6,0,0.3,0,0
0,8.7,0,0.3,0,0
0,8.8,0,0.3,0,0
0,8.9,0,0.3,0,0
0,9,0,0.3,0,0
0,9.1,0,0.3,0,0
0,9.2,0,0.3,0,0
0,9.3,0,0.3,0,0
0,9.4,0,0.3,0,0
0,9.5,0,0.3,0,0
0,9.6,0,0.3,0,0
0,9.7,0,0.3,0,0
0,9.8,0,0.3,0,0
0,9.9,0,0.3,0,0
0,10,0,0.3,0,0
0,10.1,0,0.3,0,0
0,10.2,0,0.3,0,0
0,10.3,0,0.3,0,0
0,10.4,0,0.3,0,0
0,10.5,0,0.3,0,0
0,10.6,0,0.3,0,0
0,10.7,0,0.3,0,0
0,10.8,0,0.3,0,0
0,10.9,0,0.3,0,0
0,11,0,0.3,0,0
0,11.1,0,0.3,0,0
0,11.2,0,0.3,0,0
0,11.3,0,0.3,0,0
0,11.4,0,0.3,0,0
0,11.5,0,0.3,0,0
0,11.6,0,0.3,0,0
0,11.7,0,0.3,0,0
0,11.8,0,0.3,0,0
0,11.9,0,0.3,0,0
0,12,0,0.3,0,0
0,12.1,0,0.3,0,0
0,12.2,0,0.3,0,0
0,12.3,0,0.3,0,0
0,12.4,0,0.3,1.36705e-05,0
0,12.5,0,0.3,5.27292e-05,0
0,12.6,0,0.3,9.17879e-05,0
0,12.7,0,0.3,0.000130847,0
0.1,0,0,0.299998,-0.000193718,0
0.1,0.1,0,0.299998,-0.000127701,0
0.1,0.2,0,0.299999,-8.16772e-05,0
0.1,0.3,0,0.299998,-7.564e-05,0
0.1,0.4,0,0.299998,-7.564e-05,0
0.1,0.5,0,0.299999,-9.57121e-05,0
0.1,0.6,0,0.299998,-7.43123e-05,0
0.1,0.7,0,0.299998,-7.43123e-05,0
0.1,0.8,0,0.299997,-7.24145e-05,0
0.1,0.9,0,0.299997,-7.24145e-05,0
0.1,1,0,0.299998,-9.37523e-05,0
0.1,1.1,0,0.299996,-7.00329e-05,0
0.1,1.2,0,0.299996,-7.00329e-05,0
0.1,1.3,0,0.299995,-6.72815e-05,0
0.1,1.4,0,0.299995,-6.72815e-05,0
0.1,1.5,0,0.299997,-9.04473e-05,0
0.1,1.6,0,0.299994,-6.42945e-05,0
0.1,1.7,0,0.299994,-6.42945e-05,0
0.1,1.8,0,0.299993,-6.12286e-05,0
0.1,1.9,0,0.299993,-6.12286e-05,0
0.1,2,0,0.299996,-8.57134e-05,0
0.1,2.1,0,0.299992,-5.82591e-05,0
0.1,2.2,0,0.299992,-5.82591e-05,0
0.1,2.3,0,0.299992,-5.55695e-05,0
0.1,2.4,0,0.299992,-5.55695e-05,0
0.1,2.5,0,0.299997,-7.94326e-05,0
0.1,2.6,0,0.299991,-5.33314e-05,0
0.1,2.7,0,0.299991,-5.33314e-05,0
0.1,2.8,0,0.299992,-5.16732e-05,0
0.1,2.9,0,0.299992,-5.16732e-05,0
0.1,3,0,0.299997,-7.1474e-05,0
0.1,3.1,0,0.299995,-5.06391e-05,0
0.1,3.2,0,0.299995,-5.06391e-05,0
0.1,3.3,0,0.3,-5.0148e-05,0
0.1,3.4,0,0.3,-5.0148e-05,0
0.1,3.5,0,0.299996,-6.18089e-05,0
0.1,3.6,0,0.300009,-4.99674e-05,0
0.1,3.7,0,0.300009,-4.99674e-05,0
0.1,3.8,0,0.30002,-4.97185e-05,0
0.1,3.9,0,0.30002,-4.97185e-05,0
0.1,4,0,0.299994,-5.0696e-05,0
0.1,4.1,0,0.300035,-4.89105e-05,0
0.1,4.2,0,0.300035,-4.89105e-05,0
0.1,4.3,0,0.300052,-4.70422e-05,0
0.1,4.4,0,0.300052,-4.70422e-05,0
0.1,4.5,0,0.29999,-3.86382e-05,0
0.1,4.6,0,0.30007,-4.38606e-05,0
0.1,4.7,0,0.30007,-4.38606e-05,0
0.1,4.8,0,0.300085,-3.91609e-05,0
0.1,4.9,0,0.300085,-3.91609e-05,0
0.1,5,0,0.299986,-2.74348e-05,0
0.1,5.1,0,0.299985,-2.46175e-05,0
0.1,5.2,0,0.299984,-2.26879e-05,0
0.1,5.3,0,0.299984,-2.07723e-05,0
0.1,5.4,0,0.299984,-1.88467e-05,0
0.1,5.5,0,0.299984,-1.69157e-05,0
0.1,5.6,0,0.299984,-1.49828e-05,0
0.1,5.7,0,0.299984,-1.30529e-05,0
0.1,5.8,0,0.299984,-1.11335e-05,0
0.1,5.9,0,0.299985,-9.1933e-06,0
0.1,6,0,0.299986,-5.8247e-06,0
0.1,6.1,0,0.300082,1.43174e-05,0
0.1,6.2,0,0.300082,1.43174e-05,0
0.1,6.3,0,0.300052,1.01756e-05,0
0.1,6.4,0,0.300061,1.66999e-05,0
0.1,6.5,0,0.300061,1.66999e-05,0
0.1,6.6,0,0.300061,1.66999e-05,0
0.1,6.7,0,0.300019,1.50078e-05,0
0.1,6.8,0,0.300039,1.81135e-05,0
0.1,6.9,0,0.300039,1.81135e-05,0
0.1,7,0,0.299998,1.93724e-05,0
0.1,7.1,0,0.300021,1.8369e-05,0
0.1,7.2,0,0.300021,1.8369e-05,0
0.1,7.3,0,0.300015,2.04968e-05,0
0.1,7.4,0,0.300008,1.8922e-05,0
0.1,7.5,0,0.300008,1.8922e-05,0
0.1,7.6,0,0.300008,1.8922e-05,0
0.1,7.7,0,0.299998,2.8386e-05,0
0.1,7.8,0,0.300001,2.07039e-05,0
0.1,7.9,0,0.300001,2.07039e-05,0
0.1,8,0,0.299996,3.84182e-05,0
0.1,8.1,0,0.299997,2.41205e-05,0
0.1,8.2,0,0.299997,2.41205e-05,0
0.1,8.3,0,0.299997,2.7285e-05,0
0.1,8.4,0,0.299996,2.91019e-05,0
0.1,8.5,0,0.299996,2.91019e-05,0
0.1,8.6,0,0.299996,2.91019e-05,0
0.1,8.7,0,0.299995,4.72385e-05,0
0.1,8.8,0,0.299996,3.52705e-05,0
0.1,8.9,0,0.299996,3.52705e-05,0
0.1,9,0,0.299995,5.28353e-05,0
0.1,9.1,0,0.299996,4.21348e-05,0
0.1,9.2,0,0.299996,4.21348e-05,0
0.1,9.3,0,0.299996,4.28107e-05,0
0.1,9.4,0,0.299997,4.96869e-05,0
0.1,9.5,0,0.299997,4.92225e-05,0
0.1,9.6,0,0.299997,4.92225e-05,0
0.1,9.7,0,0.299995,6.53072e-05,0
0.1,9.8,0,0.299997,5.61415e-05,0
0.1,9.9,0,0.299997,5.61415e-05,0
0.1,10,0,0.299996,6.64205e-05,0
0.1,10.1,0,0.299998,6.25985e-05,0
0.1,10.2,0,0.299998,6.25985e-05,0
0.1,10.3,0,0.299998,6.25985e-05,0
0.1,10.4,0,0.299998,6.9408e-05,0
0.1,10.5,0,0.299998,6.83929e-05,0
0.1,10.6,0,0.299998,6.83929e-05,0
0.1,10.7,0,0.299997,7.82629e-05,0
0.1,10.8,0,0.299999,7.34037e-05,0
0.1,10.9,0,0.299999,7.34037e-05,0
0.1,11,0,0.299998,7.78526e-05,0
0.1,11.1,0,0.299999,7.75717e-05,0
0.1,11.2,0,0.299999,7.75717e-05,0
0.1,11.3,0,0.299999,7.75717e-05,0
0.1,11.4,0,0.299999,8.1627e-05,0
0.1,11.5,0,0.299999,8.08812e-05,0
0.1,11.6,0,0.299999,8.08812e-05,0
0.1,11.7,0,0.299998,8.56731e-05,0
0.1,11.8,0,0.3,8.33403e-05,0
0.1,11.9,0,0.3,8.33403e-05,0
0.1,12,0,0.299999,8.49372e-05,0
0.1,12.1,0,0.3,8.49634e-05,0
0.1,12.2,0,0.3,8.49634e-05,0
0.1,12.3,0,0.3,8.49634e-05,0
0.1,12.4,0,0.3,8.64722e-05,0
0.1,12.5,0,0.3,0.000118391,0
0.1,12.6,0,0.3,0.000157449,0
0.1,12.7,0,0.3,0.000198882,0
0.2,0,0,0.299998,-0.000272377,0
0.2,0.1,0,0.299998,-0.000186366,0
0.2,0.2,0,0.299998,-0.000166616,0
0.2,0.3,0,0.299997,-0.000165671,0
0.2,0.4,0,0.299997,-0.00015128,0
0.2,0.5,0,0.299997,-0.000191424,0
0.2,0.6,0,0.299996,-0.000148625,0
0.2,0.7,0,0.299996,-0.000163034,0
0.2,0.8,0,0.299995,-0.000160567,0
0.2,0.9,0,0.299994,-0.000144829,0
0.2,1,0,0.299995,-0.000187505,0
0.2,1.1,0,0.299992,-0.000140066,0
0.2,1.2,0,0.299993,-0.000155633,0
0.2,1.3,0,0.299992,-0.000152057,0
0.2,1.4,0,0.29999,-0.000134563,0
0.2,1.5,0,0.299994,-0.000180895,0
0.2,1.6,0,0.299988,-0.000128589,0
0.2,1.7,0,0.29999,-0.000145369,0
0.2,1.8,0,0.299989,-0.000141383,0
0.2,1.9,0,0.299986,-0.000122457,0
0.2,2,0,0.299993,-0.000171427,0
0.2,2.1,0,0.299985,-0.000116518,0
0.2,2.2,0,0.299988,-0.000133679,0
0.2,2.3,0,0.299987,-0.000130183,0
0.2,2.4,0,0.299983,-0.000111139,0
0.2,2.5,0,0.299993,-0.000158865,0
0.2,2.6,0,0.299983,-0.000106663,0
0.2,2.7,0,0.299986,-0.000122299,0
0.2,2.8,0,0.299988,-0.000120144,0
0.2,2.9,0,0.299985,-0.000103346,0
0.2,3,0,0.299994,-0.000142948,0
0.2,3.1,0,0.29999,-0.000101278,0
0.2,3.2,0,0.299991,-0.000112624,0
0.2,3.3,0,0.299998,-0.000111986,0
0.2,3.4,0,0.300001,-0.000100296,0
0.2,3.5,0,0.299993,-0.000123618,0
0.2,3.6,0,0.300017,-9.99348e-05,0
0.2,3.7,0,0.300008,-0.000104439,0
0.2,3.8,0,0.300023,-0.000104116,0
0.2,3.9,0,0.300041,-9.94369e-05,0
0.2,4,0,0.299988,-0.000101392,0
0.2,4.1,0,0.300071,-9.78209e-05,0
0.2,4.2,0,0.300041,-9.49147e-05,0
0.2,4.3,0,0.300063,-9.24859e-05,0
0.2,4.4,0,0.300105,-9.40843e-05,0
0.2,4.5,0,0.29998,-7.72763e-05,0
0.2,4.6,0,0.300139,-8.77212e-05,0
0.2,4.7,0,0.300082,-7.97153e-05,0
0.2,4.8,0,0.300102,-7.36056e-05,0
0.2,4.9,0,0.30017,-7.83218e-05,0
0.2,5,0,0.299972,-5.48696e-05,0
0.2,5.1,0,0.29997,-4.92351e-05,0
0.2,5.2,0,0.299969,-4.53759e-05,0
0.2,5.3,0,0.299968,-4.15446e-05,0
0.2,5.4,0,0.299968,-3.76934e-05,0
0.2,5.5,0,0.299967,-3.38315e-05,0
0.2,5.6,0,0.299967,-2.99655e-05,0
0.2,5.7,0,0.299968,-2.61058e-05,0
0.2,5.8,0,0.299969,-2.2267e-05,0
0.2,5.9,0,0.29997,-1.83866e-05,0
0.2,6,0,0.299972,-1.16494e-05,0
0.2,6.1,0,0.300157,2.74322e-05,0
0.2,6.2,0,0.300163,2.86347e-05,0
0.2,6.3,0,0.30004,1.15861e-05,0
0.2,6.4,0,0.300068,2.21039e-05,0
0.2,6.5,0,0.300121,3.33998e-05,0
0.2,6.6,0,0.300077,2.95376e-05,0
0.2,6.7,0,0.30001,2.56899e-05,0
0.2,6.8,0,0.300078,3.62271e-05,0
0.2,6.9,0,0.300078,3.62271e-05,0
0.2,7,0,0.299991,3.88801e-05,0
0.2,7.1,0,0.300037,3.69164e-05,0
0.2,7.2,0,0.300041,3.6738e-05,0
0.2,7.3,0,0.300009,4.83699e-05,0
0.2,7.4,0,0.300005,4.53255e-05,0
0.2,7.5,0,0.300016,3.78439e-05,0
0.2,7.6,0,0.300009,4.69422e-05,0
0.2,7.7,0,0.299993,6.40089e-05,0
0.2,7.8,0,0.300001,4.14078e-05,0
0.2,7.9,0,0.300001,4.14078e-05,0
0.2,8,0,0.299991,8.11009e-05,0
0.2,8.1,0,0.299993,5.29509e-05,0
0.2,8.2,0,0.299994,4.8241e-05,0
0.2,8.3,0,0.299991,7.63495e-05,0
0.2,8.4,0,0.29999,7.68255e-05,0
0.2,8.5,0,0.299991,5.82038e-05,0
0.2,8.6,0,0.299991,6.97229e-05,0
0.2,8.7,0,0.299989,0.000102066,0
0.2,8.8,0,0.299991,7.05409e-05,0
0.2,8.9,0,0.299991,7.05409e-05,0
0.2,9,0,0.299989,0.000112881,0
0.2,9.1,0,0.299991,9.05519e-05,0
0.2,9.2,0,0.299992,8.42695e-05,0
0.2,9.3,0,0.29999,0.000107591,0
0.2,9.4,0,0.299991,0.000114467,0
0.2,9.5,0,0.299993,9.84449e-05,0
0.2,9.6,0,0.299993,0.000105406,0
0.2,9.7,0,0.29999,0.000134377,0
0.2,9.8,0,0.299994,0.000112283,0
0.2,9.9,0,0.299994,0.000112283,0
0.2,10,0,0.299991,0.000139359,0
0.2,10.1,0,0.299995,0.000129827,0
0.2,10.2,0,0.299996,0.000125197,0
0.2,10.3,0,0.299994,0.000138066,0
0.2,10.4,0,0.299994,0.000145802,0
0.2,10.5,0,0.299996,0.000136786,0
0.2,10.6,0,0.299996,0.000139587,0
0.2,10.7,0,0.299993,0.000157696,0
0.2,10.8,0,0.299998,0.000146807,0
0.2,10.9,0,0.299998,0.000146807,0
0.2,11,0,0.299995,0.000159896,0
0.2,11.1,0,0.299997,0.00015758,0
0.2,11.2,0,0.299998,0.000155143,0
0.2,11.3,0,0.299997,0.000160694,0
0.2,11.4,0,0.299996,0.000165839,0
0.2,11.5,0,0.299999,0.000161762,0
0.2,11.6,0,0.299999,0.000162553,0
0.2,11.7,0,0.299996,0.000171597,0
0.2,11.8,0,0.299999,0.000166681,0
0.2,11.9,0,0.299999,0.000166681,0
0.2,12,0,0.299998,0.000172099,0
0.2,12.1,0,0.299999,0.000171337,0
0.2,12.2,0,0.299999,0.000169927,0
0.2,12.3,0,0.299999,0.000172106,0
0.2,12.4,0,0.299999,0.000174385,0
0.2,12.5,0,0.3,0.000184052,0
0.2,12.6,0,0.3,0.000223253,0
0.2,12.7,0,0.299999,0.000266917,0
0.3,0,0,0.299998,-0.000351036,0
0.3,0.1,0,0.299997,-0.000253029,0
0.3,0.2,0,0.299998,-0.000262814,0
0.3,0.3,0,0.299997,-0.00026187,0
0.3,0.4,0,0.299995,-0.000234949,0
0.3,0.5,0,0.299996,-0.000287136,0
0.3,0.6,0,0.299994,-0.000231497,0
0.3,0.7,0,0.299994,-0.000257931,0
0.3,0.8,0,0.299993,-0.000255464,0
0.3,0.9,0,0.299991,-0.000225779,0
0.3,1,0,0.299993,-0.000281257,0
0.3,1.1,0,0.299989,-0.000219587,0
0.3,1.2,0,0.29999,-0.000247906,0
0.3,1.3,0,0.299989,-0.000244329,0
0.3,1.4,0,0.299986,-0.000211111,0
0.3,1.5,0,0.299991,-0.000271342,0
0.3,1.6,0,0.299984,-0.000203345,0
0.3,1.7,0,0.299987,-0.000233634,0
0.3,1.8,0,0.299986,-0.000229649,0
0.3,1.9,0,0.299981,-0.00019348,0
0.3,2,0,0.29999,-0.00025714,0
0.3,2.1,0,0.299979,-0.000185759,0
0.3,2.2,0,0.299984,-0.000216454,0
0.3,2.3,0,0.299983,-0.000212958,0
0.3,2.4,0,0.299977,-0.000176254,0
0.3,2.5,0,0.29999,-0.000238298,0
0.3,2.6,0,0.299976,-0.000170435,0
0.3,2.7,0,0.299983,-0.000197969,0
0.3,2.8,0,0.299984,-0.000195813,0
0.3,2.9,0,0.299979,-0.00016294,0
0.3,3,0,0.29999,-0.000214422,0
0.3,3.1,0,0.299986,-0.000160251,0
0.3,3.2,0,0.299988,-0.000179471,0
0.3,3.3,0,0.299995,-0.000178833,0
0.3,3.4,0,0.299999,-0.000155108,0
0.3,3.5,0,0.299989,-0.000185427,0
0.3,3.6,0,0.300021,-0.000154639,0
0.3,3.7,0,0.300004,-0.000160842,0
0.3,3.8,0,0.300019,-0.000160519,0
0.3,3.9,0,0.30005,-0.000149546,0
0.3,4,0,0.299982,-0.000152088,0
0.3,4.1,0,0.30009,-0.000147446,0
0.3,4.2,0,0.300033,-0.000139673,0
0.3,4.3,0,0.300055,-0.000137245,0
0.3,4.4,0,0.300132,-0.000137765,0
0.3,4.5,0,0.29997,-0.000115914,0
0.3,4.6,0,0.300177,-0.000129493,0
0.3,4.7,0,0.300069,-0.000112139,0
0.3,4.8,0,0.30009,-0.000106029,0
0.3,4.9,0,0.300216,-0.000112792,0
0.3,5,0,0.299958,-8.23044e-05,0
0.3,5.1,0,0.299955,-7.38526e-05,0
0.3,5.2,0,0.299953,-6.80638e-05,0
0.3,5.3,0,0.299952,-6.23169e-05,0
0.3,5.4,0,0.299951,-5.654e-05,0
0.3,5.5,0,0.299951,-5.07472e-05,0
0.3,5.6,0,0.299951,-4.49483e-05,0
0.3,5.7,0,0.299952,-3.91588e-05,0
0.3,5.8,0,0.299953,-3.34005e-05,0
0.3,5.9,0,0.299955,-2.75799e-05,0
0.3,6,0,0.299958,-1.74741e-05,0
0.3,6.1,0,0.300143,2.16075e-05,0
0.3,6.2,0,0.300209,3.80397e-05,0
0.3,6.3,0,0.300029,1.29966e-05,0
0.3,6.4,0,0.300056,2.35143e-05,0
0.3,6.5,0,0.300182,5.00996e-05,0
0.3,6.6,0,0.300068,4.02196e-05,0
0.3,6.7,0,0.300001,3.63719e-05,0
0.3,6.8,0,0.300094,5.07912e-05,0
0.3,6.9,0,0.300072,5.56828e-05,0
0.3,7,0,0.299984,5.83878e-05,0
0.3,7.1,0,0.30003,5.64241e-05,0
0.3,7.2,0,0.300054,5.78022e-05,0
0.3,7.3,0,0.300004,7.6243e-05,0
0.3,7.4,0,0.299999,7.31986e-05,0
0.3,7.5,0,0.300024,5.67659e-05,0
0.3,7.6,0,0.300004,8.2565e-05,0
0.3,7.7,0,0.299988,9.96317e-05,0
0.3,7.8,0,0.299999,7.06845e-05,0
0.3,7.9,0,0.299997,8.11382e-05,0
0.3,8,0,0.299986,0.000123784,0
0.3,8.1,0,0.299988,9.56336e-05,0
0.3,8.2,0,0.29999,7.70153e-05,0
0.3,8.3,0,0.299986,0.000125414,0
0.3,8.4,0,0.299985,0.00012589,0
0.3,8.5,0,0.299987,8.73056e-05,0
0.3,8.6,0,0.299985,0.000124551,0
0.3,8.7,0,0.299984,0.000156894,0
0.3,8.8,0,0.299986,0.000118947,0
0.3,8.9,0,0.299986,0.000124855,0
0.3,9,0,0.299983,0.000172928,0
0.3,9.1,0,0.299986,0.000150598,0
0.3,9.2,0,0.299988,0.000128432,0
0.3,9.3,0,0.299985,0.00017237,0
0.3,9.4,0,0.299985,0.000179247,0
0.3,9.5,0,0.29999,0.000149061,0
0.3,9.6,0,0.299987,0.000174476,0
0.3,9.7,0,0.299985,0.000203447,0
0.3,9.8,0,0.29999,0.000178362,0
0.3,9.9,0,0.29999,0.000179706,0
0.3,10,0,0.299986,0.000212298,0
0.3,10.1,0,0.29999,0.000202766,0
0.3,10.2,0,0.299994,0.000187795,0
0.3,10.3,0,0.299989,0.00021446,0
0.3,10.4,0,0.299989,0.000222197,0
0.3,10.5,0,0.299994,0.000206672,0
0.3,10.6,0,0.299992,0.00021902,0
0.3,10.7,0,0.299989,0.000237128,0
0.3,10.8,0,0.299994,0.00022543,0
0.3,10.9,0,0.299995,0.000225176,0
0.3,11,0,0.299991,0.00024194,0
0.3,11.1,0,0.299994,0.000239623,0
0.3,11.2,0,0.299997,0.000232715,0
0.3,11.3,0,0.299994,0.000244906,0
0.3,11.4,0,0.299994,0.000250052,0
0.3,11.5,0,0.299998,0.000243588,0
0.3,11.6,0,0.299997,0.000248476,0
0.3,11.7,0,0.299995,0.000257521,0
0.3,11.8,0,0.299998,0.000252508,0
0.3,11.9,0,0.299999,0.000251846,0
0.3,12,0,0.299997,0.00025926,0
0.3,12.1,0,0.299997,0.000258499,0
0.3,12.2,0,0.299999,0.00025489,0
0.3,12.3,0,0.299998,0.000260018,0
0.3,12.4,0,0.299998,0.000262297,0
0.3,12.5,0,0.3,0.000258182,0
0.3,12.6,0,0.3,0.000291288,0
0.3,12.7,0,0.299999,0.000334952,0
0.4,0,0,0.299998,-0.000429694,0
0.4,0.1,0,0.299997,-0.000335441,0
0.4,0.2,0,0.299997,-0.000359013,0
0.4,0.3,0,0.299996,-0.000358068,0
0.4,0.4,0,0.299994,-0.000332717,0
0.4,0.5,0,0.299995,-0.000382848,0
0.4,0.6,0,0.299993,-0.000329267,0
0.4,0.7,0,0.299992,-0.000352829,0
0.4,0.8,0,0.299991,-0.000350362,0
0.4,0.9,0,0.299989,-0.000321779,0
0.4,1,0,0.299991,-0.000375009,0
0.4,1.1,0,0.299986,-0.000315563,0
0.4,1.2,0,0.299987,-0.000340178,0
0.4,1.3,0,0.299986,-0.000336601,0
0.4,1.4,0,0.299983,-0.000304057,0
0.4,1.5,0,0.299988,-0.000361789,0
0.4,1.6,0,0.299981,-0.000296189,0
0.4,1.7,0,0.299983,-0.0003219,0
0.4,1.8,0,0.299982,-0.000317914,0
0.4,1.9,0,0.299978,-0.000281897,0
0.4,2,0,0.299986,-0.000342854,0
0.4,2.1,0,0.299976,-0.000273924,0
0.4,2.2,0,0.299981,-0.000299229,0
0.4,2.3,0,0.29998,-0.000295733,0
0.4,2.4,0,0.299974,-0.000258407,0
0.4,2.5,0,0.299986,-0.00031773,0
0.4,2.6,0,0.299973,-0.000252101,0
0.4,2.7,0,0.29998,-0.000273638,0
0.4,2.8,0,0.299981,-0.000271482,0
0.4,2.9,0,0.299976,-0.000236814,0
0.4,3,0,0.299987,-0.000285896,0
0.4,3.1,0,0.299983,-0.000233346,0
0.4,3.2,0,0.299985,-0.000246319,0
0.4,3.3,0,0.299992,-0.00024568,0
0.4,3.4,0,0.299995,-0.000218587,0
0.4,3.5,0,0.299986,-0.000247236,0
0.4,3.6,0,0.300016,-0.000217091,0
0.4,3.7,0,0.299999,-0.000217245,0
0.4,3.8,0,0.300014,-0.000216921,0
0.4,3.9,0,0.300042,-0.000200911,0
0.4,4,0,0.299976,-0.000202784,0
0.4,4.1,0,0.300079,-0.000197726,0
0.4,4.2,0,0.300025,-0.000184432,0
0.4,4.3,0,0.300047,-0.000182003,0
0.4,4.4,0,0.300116,-0.000176175,0
0.4,4.5,0,0.29996,-0.000154553,0
0.4,4.6,0,0.300159,-0.000166987,0
0.4,4.7,0,0.300057,-0.000144562,0
0.4,4.8,0,0.300077,-0.000138453,0
0.4,4.9,0,0.300192,-0.000139553,0
0.4,5,0,0.299943,-0.000109739,0
0.4,5.1,0,0.29994,-9.84702e-05,0
0.4,5.2,0,0.299937,-9.07518e-05,0
0.4,5.3,0,0.299936,-8.30892e-05,0
0.4,5.4,0,0.299935,-7.53867e-05,0
0.4,5.5,0,0.299935,-6.76629e-05,0
0.4,5.6,0,0.299935,-5.99311e-05,0
0.4,5.7,0,0.299936,-5.22117e-05,0
0.4,5.8,0,0.299938,-4.45339e-05,0
0.4,5.9,0,0.29994,-3.67732e-05,0
0.4,6,0,0.299944,-2.32988e-05,0
0.4,6.1,0,0.30013,1.57828e-05,0
0.4,6.2,0,0.300186,3.70452e-05,0
0.4,6.3,0,0.300017,1.44071e-05,0
0.4,6.4,0,0.300045,2.49248e-05,0
0.4,6.5,0,0.300136,5.03693e-05,0
0.4,6.6,0,0.300059,5.09016e-05,0
0.4,6.7,0,0.299992,4.7054e-05,0
0.4,6.8,0,0.300084,6.15045e-05,0
0.4,6.9,0,0.300066,7.51905e-05,0
0.4,7,0,0.299977,7.78955e-05,0
0.4,7.1,0,0.300023,7.59318e-05,0
0.4,7.2,0,0.300043,8.59217e-05,0
0.4,7.3,0,0.299998,0.000104116,0
0.4,7.4,0,0.299994,0.000101072,0
0.4,7.5,0,0.300012,9.37991e-05,0
0.4,7.6,0,0.299999,0.000118188,0
0.4,7.7,0,0.299982,0.000135255,0
0.4,7.8,0,0.299993,0.000106307,0
0.4,7.9,0,0.299992,0.000123821,0
0.4,8,0,0.299981,0.000166466,0
0.4,8.1,0,0.299983,0.000138316,0
0.4,8.2,0,0.299984,0.000131898,0
0.4,8.3,0,0.29998,0.000174478,0
0.4,8.4,0,0.299979,0.000174954,0
0.4,8.5,0,0.299981,0.000149276,0
0.4,8.6,0,0.29998,0.000179379,0
0.4,8.7,0,0.299978,0.000211722,0
0.4,8.8,0,0.299981,0.000173775,0
0.4,8.9,0,0.29998,0.000184902,0
0.4,9,0,0.299978,0.000232974,0
0.4,9.1,0,0.29998,0.000210644,0
0.4,9.2,0,0.299982,0.000200564,0
0.4,9.3,0,0.299979,0.00023715,0
0.4,9.4,0,0.29998,0.000244026,0
0.4,9.5,0,0.299983,0.000221987,0
0.4,9.6,0,0.299982,0.000243546,0
0.4,9.7,0,0.29998,0.000272517,0
0.4,9.8,0,0.299985,0.000247432,0
0.4,9.9,0,0.299986,0.000252645,0
0.4,10,0,0.299982,0.000285237,0
0.4,10.1,0,0.299985,0.000275705,0
0.4,10.2,0,0.299988,0.000269334,0
0.4,10.3,0,0.299985,0.000290855,0
0.4,10.4,0,0.299985,0.000298591,0
0.4,10.5,0,0.299989,0.000286526,0
0.4,10.6,0,0.299988,0.000298453,0
0.4,10.7,0,0.299985,0.000316561,0
0.4,10.8,0,0.29999,0.000304863,0
0.4,10.9,0,0.299992,0.000307219,0
0.4,11,0,0.299988,0.000323983,0
0.4,11.1,0,0.299991,0.000321667,0
0.4,11.2,0,0.299994,0.000318937,0
0.4,11.3,0,0.299992,0.000329118,0
0.4,11.4,0,0.299991,0.000334264,0
0.4,11.5,0,0.299995,0.000328892,0
0.4,11.6,0,0.299995,0.0003344,0
0.4,11.7,0,0.299993,0.000343444,0
0.4,11.8,0,0.299996,0.000338432,0
0.4,11.9,0,0.299997,0.000339065,0
0.4,12,0,0.299995,0.000346421,0
0.4,12.1,0,0.299996,0.00034566,0
0.4,12.2,0,0.299998,0.00034375,0
0.4,12.3,0,0.299998,0.000347931,0
0.4,12.4,0,0.299998,0.00035021,0
0.4,12.5,0,0.299999,0.000346378,0
0.4,12.6,0,0.299999,0.000359323,0
0.4,12.7,0,0.299999,0.000402988,0
0.5,0,0,0.299997,-0.000508353,0
0.5,0.1,0,0.299997,-0.000451633,0
0.5,0.2,0,0.299996,-0.000455211,0
0.5,0.3,0,0.299995,-0.000454267,0
0.5,0.4,0,0.299994,-0.000448987,0
0.5,0.5,0,0.299994,-0.00047856,0
0.5,0.6,0,0.299992,-0.000445565,0
0.5,0.7,0,0.299991,-0.000447726,0
0.5,0.8,0,0.299989,-0.000445259,0
0.5,0.9,0,0.299988,-0.000438014,0
0.5,1,0,0.299988,-0.000468761,0
0.5,1.1,0,0.299985,-0.000431554,0
0.5,1.2,0,0.299985,-0.00043245,0
0.5,1.3,0,0.299983,-0.000428873,0
0.5,1.4,0,0.299982,-0.000419495,0
0.5,1.5,0,0.299985,-0.000452236,0
0.5,1.6,0,0.29998,-0.000410607,0
0.5,1.7,0,0.29998,-0.000410165,0
0.5,1.8,0,0.299979,-0.00040618,0
0.5,1.9,0,0.299978,-0.000394647,0
0.5,2,0,0.299982,-0.000428567,0
0.5,2.1,0,0.299976,-0.000384153,0
0.5,2.2,0,0.299977,-0.000382004,0
0.5,2.3,0,0.299976,-0.000378508,0
0.5,2.4,0,0.299975,-0.000365045,0
0.5,2.5,0,0.299983,-0.000397163,0
0.5,2.6,0,0.299975,-0.000353872,0
0.5,2.7,0,0.299977,-0.000349307,0
0.5,2.8,0,0.299978,-0.000347152,0
0.5,2.9,0,0.299977,-0.000332284,0
0.5,3,0,0.299984,-0.00035737,0
0.5,3.1,0,0.299981,-0.000321028,0
0.5,3.2,0,0.299982,-0.000313166,0
0.5,3.3,0,0.299988,-0.000312527,0
0.5,3.4,0,0.299988,-0.000297095,0
0.5,3.5,0,0.299982,-0.000309044,0
0.5,3.6,0,0.299999,-0.000285335,0
0.5,3.7,0,0.299995,-0.000273647,0
0.5,3.8,0,0.30001,-0.000273324,0
0.5,3.9,0,0.300011,-0.000258291,0
0.5,4,0,0.299971,-0.00025348,0
0.5,4.1,0,0.30003,-0.000244271,0
0.5,4.2,0,0.300017,-0.000229191,0
0.5,4.3,0,0.300039,-0.000226762,0
0.5,4.4,0,0.300046,-0.000212529,0
0.5,4.5,0,0.29995,-0.000193191,0
0.5,4.6,0,0.300067,-0.000194188,0
0.5,4.7,0,0.300045,-0.000176986,0
0.5,4.8,0,0.300065,-0.000170876,0
0.5,4.9,0,0.30008,-0.000160251,0
0.5,5,0,0.299929,-0.000137174,0
0.5,5.1,0,0.299925,-0.000123088,0
0.5,5.2,0,0.299922,-0.00011344,0
0.5,5.3,0,0.29992,-0.000103861,0
0.5,5.4,0,0.299919,-9.42334e-05,0
0.5,5.5,0,0.299918,-8.45787e-05,0
0.5,5.6,0,0.299919,-7.49138e-05,0
0.5,5.7,0,0.29992,-6.52646e-05,0
0.5,5.8,0,0.299922,-5.56674e-05,0
0.5,5.9,0,0.299925,-4.59665e-05,0
0.5,6,0,0.299931,-2.91235e-05,0
0.5,6.1,0,0.300075,4.27523e-06,0
0.5,6.2,0,0.300079,1.83136e-05,0
0.5,6.3,0,0.300005,1.58175e-05,0
0.5,6.4,0,0.300033,2.63353e-05,0
0.5,6.5,0,0.300055,4.5762e-05,0
0.5,6.6,0,0.30005,6.15837e-05,0
0.5,6.7,0,0.299983,5.7736e-05,0
0.5,6.8,0,0.300029,7.35807e-05,0
0.5,6.9,0,0.300033,9.07051e-05,0
0.5,7,0,0.299971,9.74032e-05,0
0.5,7.1,0,0.300008,9.87021e-05,0
0.5,7.2,0,0.30001,0.000114934,0
0.5,7.3,0,0.299993,0.000131989,0
0.5,7.4,0,0.299988,0.000128945,0
0.5,7.5,0,0.299993,0.000138373,0
0.5,7.6,0,0.299994,0.000153811,0
0.5,7.7,0,0.299977,0.000170877,0
0.5,7.8,0,0.299983,0.000162269,0
0.5,7.9,0,0.299983,0.000175967,0
0.5,8,0,0.299975,0.000209149,0
0.5,8.1,0,0.299977,0.000187142,0
0.5,8.2,0,0.299977,0.000199524,0
0.5,8.3,0,0.299975,0.000223543,0
0.5,8.4,0,0.299974,0.000224019,0
0.5,8.5,0,0.299974,0.000224067,0
0.5,8.6,0,0.299974,0.00023525,0
0.5,8.7,0,0.299972,0.00026655,0
0.5,8.8,0,0.299974,0.000249126,0
0.5,8.9,0,0.299974,0.000259251,0
0.5,9,0,0.299972,0.00029302,0
0.5,9.1,0,0.299974,0.00027407,0
0.5,9.2,0,0.299974,0.000283255,0
0.5,9.3,0,0.299974,0.00030193,0
0.5,9.4,0,0.299974,0.000308806,0
0.5,9.5,0,0.299976,0.000306614,0
0.5,9.6,0,0.299976,0.000314938,0
0.5,9.7,0,0.299974,0.000341587,0
0.5,9.8,0,0.299978,0.000328787,0
0.5,9.9,0,0.299979,0.000336293,0
0.5,10,0,0.299977,0.000358176,0
0.5,10.1,0,0.29998,0.000349364,0
0.5,10.2,0,0.299981,0.000356069,0
0.5,10.3,0,0.299981,0.000367249,0
0.5,10.4,0,0.299981,0.000374985,0
0.5,10.5,0,0.299983,0.00037396,0
0.5,10.6,0,0.299984,0.000379856,0
0.5,10.7,0,0.299982,0.000395994,0
0.5,10.8,0,0.299985,0.000389776,0
0.5,10.9,0,0.299987,0.000394842,0
0.5,11,0,0.299985,0.000406027,0
0.5,11.1,0,0.299987,0.00040371,0
0.5,11.2,0,0.299989,0.000407621,0
0.5,11.3,0,0.299989,0.000413331,0
0.5,11.4,0,0.299989,0.000418476,0
0.5,11.5,0,0.299991,0.000418147,0
0.5,11.6,0,0.299992,0.000421468,0
0.5,11.7,0,0.299991,0.000429368,0
0.5,11.8,0,0.299993,0.000426409,0
0.5,11.9,0,0.299995,0.00042881,0
0.5,12,0,0.299994,0.000433583,0
0.5,12.1,0,0.299995,0.000432822,0
0.5,12.2,0,0.299996,0.000433861,0
0.5,12.3,0,0.299997,0.000435843,0
0.5,12.4,0,0.299997,0.000438122,0
0.5,12.5,0,0.299998,0.000436665,0
0.5,12.6,0,0.299999,0.000437156,0
0.5,12.7,0,0.299998,0.000471023,0
0.6,0,0,0.299997,-0.000587012,0
0.6,0.1,0,0.299996,-0.000567825,0
0.6,0.2,0,0.299996,-0.000567405,0
0.6,0.3,0,0.299995,-0.000566523,0
0.6,0.4,0,0.299993,-0.000565258,0
0.6,0.5,0,0.299992,-0.000574272,0
0.6,0.6,0,0.299991,-0.000561862,0
0.6,0.7,0,0.299989,-0.000559743,0
0.6,0.8,0,0.299988,-0.000557227,0
0.6,0.9,0,0.299987,-0.000554249,0
0.6,1,0,0.299986,-0.000562514,0
0.6,1.1,0,0.299984,-0.000547546,0
0.6,1.2,0,0.299983,-0.000543698,0
0.6,1.3,0,0.299982,-0.000539678,0
0.6,1.4,0,0.299981,-0.000534933,0
0.6,1.5,0,0.299982,-0.000542684,0
0.6,1.6,0,0.29998,-0.000525026,0
0.6,1.7,0,0.299979,-0.000519353,0
0.6,1.8,0,0.299978,-0.000514033,0
0.6,1.9,0,0.299978,-0.000507397,0
0.6,2,0,0.299979,-0.00051428,0
0.6,2.1,0,0.299977,-0.000494382,0
0.6,2.2,0,0.299977,-0.000486743,0
0.6,2.3,0,0.299977,-0.000480373,0
0.6,2.4,0,0.299977,-0.000471683,0
0.6,2.5,0,0.299979,-0.000476596,0
0.6,2.6,0,0.299977,-0.000455642,0
0.6,2.7,0,0.299977,-0.000445858,0
0.6,2.8,0,0.299978,-0.000438662,0
0.6,2.9,0,0.299978,-0.000427754,0
0.6,3,0,0.299981,-0.000428844,0
0.6,3.1,0,0.29998,-0.00040871,0
0.6,3.2,0,0.29998,-0.000396681,0
0.6,3.3,0,0.299982,-0.000388703,0
0.6,3.4,0,0.299981,-0.000375604,0
0.6,3.5,0,0.299978,-0.000370853,0
0.6,3.6,0,0.299983,-0.000353579,0
0.6,3.7,0,0.29998,-0.000339523,0
0.6,3.8,0,0.299984,-0.000330509,0
0.6,3.9,0,0.299981,-0.000315671,0
0.6,4,0,0.299965,-0.000304176,0
0.6,4.1,0,0.299981,-0.000290815,0
0.6,4.2,0,0.299976,-0.000275378,0
0.6,4.3,0,0.299982,-0.000264797,0
0.6,4.4,0,0.299976,-0.000248884,0
0.6,4.5,0,0.29994,-0.000231829,0
0.6,4.6,0,0.299975,-0.000221389,0
0.6,4.7,0,0.299969,-0.000205231,0
0.6,4.8,0,0.299973,-0.000193919,0
0.6,4.9,0,0.299968,-0.000180948,0
0.6,5,0,0.299915,-0.000164609,0
0.6,5.1,0,0.29991,-0.000147705,0
0.6,5.2,0,0.299906,-0.000136128,0
0.6,5.3,0,0.299904,-0.000124634,0
0.6,5.4,0,0.299903,-0.00011308,0
0.6,5.5,0,0.299902,-0.000101494,0
0.6,5.6,0,0.299902,-8.98966e-05,0
0.6,5.7,0,0.299904,-7.83175e-05,0
0.6,5.8,0,0.299907,-6.68009e-05,0
0.6,5.9,0,0.29991,-5.51598e-05,0
0.6,6,0,0.299917,-3.49482e-05,0
0.6,6.1,0,0.299968,-1.44563e-05,0
0.6,6.2,0,0.299972,-4.17924e-07,0
0.6,6.3,0,0.299977,1.36205e-05,0
0.6,6.4,0,0.299969,2.31651e-05,0
0.6,6.5,0,0.299974,4.11546e-05,0
0.6,6.6,0,0.299979,5.91442e-05,0
0.6,6.7,0,0.299971,6.85325e-05,0
0.6,6.8,0,0.299975,8.56569e-05,0
0.6,6.9,0,0.299979,0.000102781,0
0.6,7,0,0.299964,0.000116911,0
0.6,7.1,0,0.299975,0.000127714,0
0.6,7.2,0,0.299977,0.000143945,0
0.6,7.3,0,0.29998,0.000160177,0
0.6,7.4,0,0.299974,0.00016791,0
0.6,7.5,0,0.299975,0.000182947,0
0.6,7.6,0,0.299976,0.000197984,0
0.6,7.7,0,0.299972,0.0002065,0
0.6,7.8,0,0.299972,0.000219871,0
0.6,7.9,0,0.299972,0.000233569,0
0.6,8,0,0.29997,0.000251832,0
0.6,8.1,0,0.29997,0.000254769,0
0.6,8.2,0,0.299969,0.000267151,0
0.6,8.3,0,0.299969,0.000279533,0
0.6,8.4,0,0.299968,0.000287674,0
0.6,8.5,0,0.299968,0.000298857,0
0.6,8.6,0,0.299967,0.00031004,0
0.6,8.7,0,0.299967,0.000321378,0
0.6,8.8,0,0.299967,0.00032873,0
0.6,8.9,0,0.299967,0.000338855,0
0.6,9,0,0.299966,0.000353066,0
0.6,9.1,0,0.299967,0.000356761,0
0.6,9.2,0,0.299967,0.000365946,0
0.6,9.3,0,0.299967,0.000375131,0
0.6,9.4,0,0.299968,0.000382917,0
0.6,9.5,0,0.299968,0.000391241,0
0.6,9.6,0,0.299969,0.000399565,0
0.6,9.7,0,0.299969,0.000410657,0
0.6,9.8,0,0.29997,0.000414654,0
0.6,9.9,0,0.299971,0.000422161,0
0.6,10,0,0.299972,0.000431115,0
0.6,10.1,0,0.299973,0.000436099,0
0.6,10.2,0,0.299974,0.000442803,0
0.6,10.3,0,0.299975,0.000449508,0
0.6,10.4,0,0.299976,0.000455499,0
0.6,10.5,0,0.299977,0.000461394,0
0.6,10.6,0,0.299978,0.00046729,0
0.6,10.7,0,0.299978,0.000475427,0
0.6,10.8,0,0.29998,0.000477849,0
0.6,10.9,0,0.299981,0.000482915,0
0.6,11,0,0.299982,0.00048807,0
0.6,11.1,0,0.299983,0.000492097,0
0.6,11.2,0,0.299984,0.000496305,0
0.6,11.3,0,0.299985,0.000500513,0
0.6,11.4,0,0.299986,0.000504081,0
0.6,11.5,0,0.299987,0.000507401,0
0.6,11.6,0,0.299989,0.000510722,0
0.6,11.7,0,0.299989,0.000515292,0
0.6,11.8,0,0.299991,0.000516153,0
0.6,11.9,0,0.299992,0.000518555,0
0.6,12,0,0.299993,0.000520956,0
0.6,12.1,0,0.299993,0.000522514,0
0.6,12.2,0,0.299995,0.000523971,0
0.6,12.3,0,0.299996,0.000525429,0
0.6,12.4,0,0.299996,0.00052646,0
0.6,12.5,0,0.299997,0.000526951,0
0.6,12.6,0,0.299998,0.000527442,0
0.6,12.7,0,0.299998,0.000539058,0
0.7,0,0,0.299996,-0.000674239,0
0.7,0.1,0,0.299996,-0.000684178,0
0.7,0.2,0,0.299996,-0.000683758,0
0.7,0.3,0,0.299994,-0.000682957,0
0.7,0.4,0,0.299993,-0.000681692,0
0.7,0.5,0,0.29999,-0.000669456,0
0.7,0.6,0,0.29999,-0.000678324,0
0.7,0.7,0,0.299988,-0.000676205,0
0.7,0.8,0,0.299987,-0.000673627,0
0.7,0.9,0,0.299986,-0.00067065,0
0.7,1,0,0.299982,-0.000655197,0
0.7,1.1,0,0.299983,-0.000663707,0
0.7,1.2,0,0.299982,-0.000659859,0
0.7,1.3,0,0.299981,-0.000655291,0
0.7,1.4,0,0.29998,-0.000650546,0
0.7,1.5,0,0.299975,-0.000631315,0
0.7,1.6,0,0.299979,-0.000639625,0
0.7,1.7,0,0.299978,-0.000633953,0
0.7,1.8,0,0.299978,-0.000626972,0
0.7,1.9,0,0.299978,-0.000620337,0
0.7,2,0,0.299971,-0.0005974,0
0.7,2.1,0,0.299978,-0.000604809,0
0.7,2.2,0,0.299978,-0.000597169,0
0.7,2.3,0,0.299978,-0.000587218,0
0.7,2.4,0,0.299978,-0.000578528,0
0.7,2.5,0,0.29997,-0.000552898,0
0.7,2.6,0,0.299979,-0.000557627,0
0.7,2.7,0,0.299979,-0.000547843,0
0.7,2.8,0,0.299979,-0.00053435,0
0.7,2.9,0,0.29998,-0.000523442,0
0.7,3,0,0.29997,-0.000497222,0
0.7,3.1,0,0.299979,-0.000496606,0
0.7,3.2,0,0.299978,-0.000484577,0
0.7,3.3,0,0.299975,-0.00046741,0
0.7,3.4,0,0.299974,-0.00045431,0
0.7,3.5,0,0.299967,-0.000430408,0
0.7,3.6,0,0.299966,-0.000421993,0
0.7,3.7,0,0.299964,-0.000407937,0
0.7,3.8,0,0.299954,-0.00038802,0
0.7,3.9,0,0.29995,-0.000373182,0
0.7,4,0,0.299953,-0.00035414,0
0.7,4.1,0,0.299933,-0.000337459,0
0.7,4.2,0,0.299928,-0.000322022,0
0.7,4.3,0,0.299912,-0.000301235,0
0.7,4.4,0,0.299906,-0.000285322,0
0.7,4.5,0,0.299928,-0.000271493,0
0.7,4.6,0,0.299883,-0.000248601,0
0.7,4.7,0,0.299877,-0.000232443,0
0.7,4.8,0,0.299861,-0.000213379,0
0.7,4.9,0,0.299856,-0.000200409,0
0.7,5,0,0.299904,-0.000194063,0
0.7,5.1,0,0.299898,-0.000173941,0
0.7,5.2,0,0.299895,-0.000159946,0
0.7,5.3,0,0.299892,-0.000146015,0
0.7,5.4,0,0.299891,-0.000132014,0
0.7,5.5,0,0.29989,-0.000117975,0
0.7,5.6,0,0.299891,-0.000103918,0
0.7,5.7,0,0.299892,-8.98788e-05,0
0.7,5.8,0,0.299895,-7.58998e-05,0
0.7,5.9,0,0.299898,-6.17857e-05,0
0.7,6,0,0.299905,-3.77758e-05,0
0.7,6.1,0,0.29986,-3.54862e-05,0
0.7,6.2,0,0.299864,-2.14478e-05,0
0.7,6.3,0,0.299869,-7.4094e-06,0
0.7,6.4,0,0.299888,1.88197e-05,0
0.7,6.5,0,0.299893,3.68092e-05,0
0.7,6.6,0,0.299899,5.47988e-05,0
0.7,6.7,0,0.299917,8.07927e-05,0
0.7,6.8,0,0.299921,9.79171e-05,0
0.7,6.9,0,0.299925,0.000115041,0