/*--------------------------------*- C++ -*----------------------------------*\
| =========                 |                                                 |
| \\      /  F ield         | OpenFOAM: The Open Source CFD Toolbox           |
|  \\    /   O peration     | Version:  v1806                                 |
|   \\  /    A nd           | Web:      www.OpenFOAM.com                      |
|    \\/     M anipulation  |                                                 |
\*---------------------------------------------------------------------------*/
FoamFile
{
    version     2.0;
    format      ascii;
    class       volScalarField;
    location    "7";
    object      p;
}
// * * * * * * * * * * * * * * * * * * * * * * * * * * * * * * * * * * * * * //

dimensions      [0 2 -2 0 0 0 0];


internalField   nonuniform List<scalar> 
2400
(
0.0517772
0.0524695
0.0539015
0.0534285
0.0533359
0.0527589
0.0538454
0.0533182
0.053396
0.0517927
0.0519516
0.0500857
0.0482898
0.0455627
0.0420019
0.0386918
0.0337327
0.0288515
0.0225155
0.0156212
0.155564
0.157661
0.161198
0.160388
0.159852
0.158697
0.161166
0.160425
0.160156
0.156304
0.155683
0.150955
0.145296
0.137347
0.126618
0.11658
0.102244
0.0869819
0.0695948
0.0506071
0.259353
0.262852
0.26796
0.267149
0.266536
0.264982
0.268381
0.26795
0.267299
0.262189
0.26031
0.252971
0.243686
0.23082
0.213189
0.195857
0.172035
0.145658
0.115463
0.0841071
0.362147
0.368095
0.374447
0.37388
0.373407
0.371525
0.375812
0.375928
0.375463
0.369595
0.366362
0.356491
0.344213
0.326412
0.302257
0.277482
0.243908
0.206653
0.165443
0.120385
0.463612
0.473609
0.480681
0.480342
0.479964
0.478527
0.483604
0.484874
0.484701
0.478983
0.4744
0.462408
0.447424
0.425094
0.394531
0.362255
0.318693
0.269864
0.214789
0.154965
0.563534
0.579421
0.586195
0.586231
0.585594
0.586332
0.591815
0.595294
0.595137
0.590794
0.58489
0.57147
0.55414
0.527713
0.490868
0.450984
0.397257
0.33661
0.2689
0.19313
0.662068
0.685213
0.690318
0.691419
0.689642
0.695057
0.699806
0.707778
0.706634
0.705687
0.698301
0.684854
0.665415
0.635715
0.592574
0.544666
0.480604
0.406808
0.323745
0.230072
0.759491
0.790242
0.792559
0.795575
0.791925
0.804383
0.806739
0.822675
0.818101
0.824911
0.814407
0.804341
0.782263
0.751
0.701679
0.645122
0.570178
0.481598
0.384598
0.27294
0.856135
0.893402
0.892682
0.898225
0.89295
0.913277
0.912722
0.938874
0.929473
0.948956
0.932132
0.932507
0.90385
0.876474
0.819519
0.755246
0.66836
0.561375
0.446447
0.315821
0.952275
0.993336
0.990596
0.998768
0.993862
1.02054
1.01875
1.05391
1.04181
1.07535
1.05236
1.06893
1.02901
1.01531
0.943491
0.879781
0.775856
0.649423
0.514401
0.35718
1.04838
1.08866
1.0859
1.09635
1.09523
1.12566
1.12637
1.16631
1.1567
1.20058
1.17634
1.20872
1.15797
1.16541
1.07103
1.02544
0.890048
0.749798
0.587876
0.39275
1.14522
1.17801
1.17775
1.19028
1.19628
1.22833
1.23604
1.27652
1.27515
1.32323
1.30464
1.34652
1.29112
1.31943
1.2016
1.19108
1.00652
0.878406
0.666173
0.419374
1.24359
1.26025
1.26476
1.28027
1.2958
1.3281
1.34636
1.38569
1.39727
1.44399
1.43788
1.48091
1.42963
1.47059
1.33735
1.36617
1.12527
1.04649
0.744974
0.45926
1.34253
1.33724
1.34651
1.3672
1.39287
1.42554
1.45599
1.49472
1.523
1.56523
1.57871
1.61429
1.57969
1.61858
1.48412
1.53389
1.24749
1.24811
0.807115
0.533185
1.43599
1.41025
1.42994
1.45228
1.4896
1.52113
1.56471
1.60383
1.65171
1.68985
1.73107
1.75754
1.75622
1.77473
1.66433
1.69379
1.37828
1.44187
0.850924
0.677735
1.51634
1.48408
1.51249
1.53503
1.58434
1.61284
1.67517
1.70947
1.78554
1.81705
1.89576
1.91828
1.96589
1.96464
1.91289
1.88168
1.56242
1.60842
0.88012
0.895277
1.5842
1.55861
1.58661
1.61448
1.669
1.70185
1.77516
1.81354
1.91218
1.94722
2.06764
2.08671
2.20705
2.18376
2.22837
2.13786
1.90284
1.78419
0.916671
1.16094
1.64526
1.62858
1.65325
1.68785
1.74303
1.78719
1.86187
1.91723
2.02177
2.08173
2.22048
2.26291
2.43503
2.41436
2.58782
2.43221
2.40093
2.02801
1.13948
1.27841
1.7053
1.69063
1.7157
1.7536
1.81166
1.86462
1.94308
2.01461
2.12393
2.21291
2.35761
2.44474
2.63465
2.66301
2.91203
2.74224
3.00167
2.3352
1.87826
0.651618
1.76099
1.74514
1.7741
1.81202
1.87619
1.93342
2.0216
2.10284
2.22575
2.33288
2.49505
2.61802
2.82603
2.92667
3.19853
3.13751
3.54355
2.76149
3.20385
-0.867102
0.0115043
0.00860201
0.00574766
0.00381116
0.00129204
-0.00105223
-0.00405039
-0.00636073
-0.00893156
-0.0102897
0.0315092
0.0236709
0.0178739
0.0117176
0.00416306
-0.00352147
-0.0119351
-0.0196385
-0.0274395
-0.0340014
0.0633675
0.0491202
0.0328288
0.0185187
0.00470881
-0.00853904
-0.022483
-0.0358642
-0.0496927
-0.0626631
0.0813078
0.0615508
0.0433475
0.0247218
0.00483944
-0.0147565
-0.03495
-0.0543116
-0.0741295
-0.0929348
0.112852
0.0862569
0.05731
0.0301711
0.00326298
-0.0230129
-0.0498284
-0.0756513
-0.101893
-0.127228
0.130737
0.0975811
0.0660678
0.0339585
0.00028636
-0.033255
-0.0672412
-0.100039
-0.133189
-0.16551
0.162084
0.120649
0.0770426
0.0351071
-0.00657971
-0.0476297
-0.0886586
-0.128375
-0.168434
-0.208191
0.181403
0.130883
0.0822483
0.0327465
-0.0178274
-0.0677126
-0.11639
-0.163039
-0.209667
-0.256718
0.218573
0.156749
0.0916264
0.0279831
-0.0340023
-0.0940054
-0.151275
-0.205556
-0.258972
-0.313082
0.240677
0.170974
0.0965364
0.0207643
-0.0536844
-0.125483
-0.192818
-0.256039
-0.317033
-0.378243
0.258726
0.17904
0.094048
0.00570207
-0.0819633
-0.166272
-0.244184
-0.316742
-0.385428
-0.453763
0.265513
0.173595
0.074869
-0.0289074
-0.131011
-0.226945
-0.313464
-0.393154
-0.467451
-0.541375
0.267523
0.150784
0.0260496
-0.100636
-0.217531
-0.3207
-0.410127
-0.491613
-0.566794
-0.641687
0.283107
0.113167
-0.0690207
-0.230176
-0.358145
-0.459385
-0.543138
-0.619224
-0.687951
-0.753894
0.259965
-0.0133047
-0.255671
-0.442211
-0.570616
-0.665098
-0.737579
-0.800311
-0.85243
-0.895358
0.0799866
-0.309018
-0.57974
-0.759525
-0.894033
-1.0017
-1.07096
-1.11155
-1.12858
-1.12705
-0.292174
-0.845993
-1.09132
-1.21166
-1.34127
-1.48689
-1.60575
-1.66637
-1.6098
-1.50068
-0.832663
-1.57955
-1.87443
-1.95225
-1.87574
-1.85138
-2.15947
-2.57083
-2.4161
-2.02635
-1.47703
-1.87642
-2.8235
-4.06275
-3.31395
-2.2523
-2.10539
-2.37492
-2.62059
-3.04069
-4.43977
-2.40397
-2.5445
-3.24744
-3.20388
-3.09395
-2.95389
-2.7791
-2.60304
-2.75226
-0.0267546
-0.0621362
-0.0635077
0.00628678
0.0666074
0.115309
0.105153
0.0671877
0.0486584
0.0401365
0.0297746
0.0244147
0.0223515
0.0207876
0.0188556
0.016439
0.0136491
0.010546
0.00727281
0.00284056
-0.0838916
-0.177977
-0.191966
-0.00726958
0.186133
0.326017
0.302235
0.195826
0.136653
0.104103
0.0787525
0.0671784
0.0626635
0.0588274
0.053643
0.0468945
0.038982
0.0301111
0.0206244
0.00796428
-0.145363
-0.306003
-0.328886
-0.022969
0.293407
0.516653
0.485153
0.316633
0.216773
0.166096
0.126511
0.108401
0.101492
0.0955357
0.0872399
0.0762228
0.0631934
0.048585
0.0329405
0.0125684
-0.21128
-0.442701
-0.484806
-0.0549091
0.389697
0.691159
0.650198
0.42832
0.284963
0.209161
0.163914
0.14464
0.137033
0.129694
0.118817
0.103976
0.0861551
0.0660218
0.0443385
0.0167381
-0.282554
-0.597324
-0.67078
-0.102626
0.473968
0.850272
0.795426
0.525271
0.350808
0.256728
0.202483
0.18007
0.171291
0.162497
0.149029
0.130409
0.107931
0.0824519
0.0548907
0.0205239
-0.359638
-0.774115
-0.895796
-0.169745
0.544034
0.993162
0.921071
0.609265
0.399965
0.287813
0.232386
0.21131
0.202947
0.193405
0.177769
0.155629
0.128654
0.097974
0.064691
0.0239735
-0.442896
-0.979993
-1.17673
-0.258575
0.600013
1.1162
1.01798
0.678144
0.446867
0.322449
0.263615
0.242094
0.23358
0.22307
0.205228
0.179677
0.148359
0.112644
0.0738161
0.0271278
-0.531658
-1.22246
-1.52496
-0.371884
0.643424
1.21996
1.09086
0.729959
0.479337
0.346284
0.288653
0.269641
0.262311
0.251407
0.231578
0.202712
0.167148
0.126535
0.0823371
0.0300226
-0.626177
-1.50807
-1.96186
-0.512579
0.658245
1.29641
1.13841
0.766812
0.504875
0.369466
0.313845
0.296697
0.290135
0.278675
0.256872
0.224782
0.185083
0.139706
0.0903164
0.0326886
-0.726801
-1.85025
-2.50514
-0.680766
0.655895
1.34551
1.15967
0.788591
0.521404
0.386367
0.334901
0.321489
0.316675
0.305016
0.281289
0.246003
0.202238
0.152219
0.0978102
0.0351531
-0.833572
-2.25949
-3.16473
-0.882942
0.6212
1.36569
1.15543
0.792143
0.52895
0.400334
0.355144
0.345655
0.342442
0.330532
0.304888
0.266442
0.218677
0.164129
0.104868
0.0374397
-0.944682
-2.73084
-3.94137
-1.11686
0.552554
1.34838
1.1295
0.781891
0.528649
0.409425
0.372528
0.368368
0.367421
0.355395
0.327797
0.286182
0.234462
0.175488
0.111535
0.039569
-1.04361
-3.25146
-4.80139
-1.38028
0.445385
1.29646
1.07723
0.755848
0.519677
0.415153
0.388806
0.390475
0.391853
0.379679
0.350088
0.30529
0.249651
0.186343
0.117851
0.0415594
-1.08308
-3.77289
-5.66554
-1.67104
0.295543
1.20863
1.00889
0.715571
0.502328
0.416593
0.403091
0.41175
0.415866
0.403524
0.371854
0.323832
0.264295
0.196738
0.12385
0.0434268
-1.04582
-4.17507
-6.39679
-1.97294
0.111384
1.08854
0.914583
0.659513
0.476586
0.4149
0.416385
0.432631
0.439601
0.427006
0.393162
0.341864
0.278441
0.206712
0.129563
0.0451854
-0.993931
-4.41434
-6.8438
-2.27203
-0.107543
0.93027
0.794042
0.587323
0.442444
0.409652
0.42842
0.453183
0.463205
0.45023
0.414081
0.359438
0.292131
0.2163
0.135018
0.0468475
-1.10348
-4.59537
-6.99015
-2.56235
-0.357596
0.734362
0.646541
0.49925
0.40054
0.401789
0.439833
0.473692
0.486788
0.473268
0.434668
0.376598
0.305403
0.225533
0.140237
0.0484244
-0.740312
-4.84158
-6.9255
-2.83883
-0.625655
0.504087
0.470589
0.395003
0.350701
0.39124
0.450717
0.494353
0.510466
0.496194
0.454971
0.393383
0.318287
0.234438
0.145242
0.0499256
-1.4544
-5.02248
-6.69964
-3.10241
-0.905292
0.238486
0.264149
0.274022
0.293583
0.378746
0.461586
0.515401
0.534332
0.519065
0.475032
0.409822
0.33081
0.243038
0.150051
0.0513599
-1.76386
-5.14061
-6.33558
-3.34223
-1.19527
-0.0664657
0.0261251
0.135971
0.229981
0.364655
0.472795
0.53701
0.558481
0.541933
0.49488
0.425942
0.342995
0.251351
0.154676
0.0527347
-2.16245
-5.21471
-5.87232
-3.55101
-1.48693
-0.409313
-0.239208
-0.0159879
0.162678
0.350016
0.484782
0.559326
0.582981
0.56483
0.514538
0.441759
0.354856
0.259392
0.159132
0.0540566
-2.59587
-5.26312
-5.30062
-3.73469
-1.77269
-0.785026
-0.524507
-0.172379
0.0955448
0.335986
0.497754
0.582457
0.607888
0.587781
0.534018
0.457284
0.366406
0.267173
0.163425
0.0553305
-3.03903
-5.30356
-4.6326
-3.87251
-2.0607
-1.19583
-0.830388
-0.32311
0.0324946
0.323764
0.511867
0.606451
0.633223
0.610792
0.553323
0.472519
0.37765
0.274701
0.167565
0.0565601
-3.56214
-5.33118
-3.85109
-3.96782
-2.36601
-1.64842
-1.15336
-0.472168
-0.0260449
0.313913
0.527158
0.631286
0.658978
0.633855
0.572445
0.487463
0.388591
0.281979
0.171553
0.0577476
-3.94273
-5.32593
-2.93125
-3.97887
-2.69879
-2.14507
-1.49508
-0.631018
-0.08235
0.306549
0.543668
0.656892
0.685115
0.656944
0.591366
0.502105
0.399223
0.289009
0.175394
0.0588934
-4.90984
-5.25626
-1.90253
-3.8825
-3.03546
-2.68264
-1.86008
-0.804594
-0.137536
0.301907
0.561552
0.683203
0.711574
0.68002
0.610059
0.516426
0.409538
0.295787
0.179085
0.0599962
-5.24288
-5.16617
-0.760483
-3.6602
-3.37548
-3.25539
-2.24156
-0.9853
-0.189557
0.301331
0.581268
0.710211
0.738284
0.703029
0.628487
0.530404
0.419523
0.302307
0.182627
0.0610547
-6.04837
-5.0615
0.386872
-3.31618
-3.72665
-3.83711
-2.60515
-1.16077
-0.236044
0.306866
0.603724
0.738058
0.765187
0.725907
0.646601
0.544006
0.429159
0.308557
0.186013
0.0620678
-6.12687
-4.88628
1.56965
-2.86427
-4.09863
-4.39185
-2.92157
-1.32035
-0.275302
0.319536
0.629837
0.767044
0.79227
0.748595
0.664351
0.557197
0.438424
0.314527
0.189239
0.0630341
-6.43275
-4.59568
2.46425
-2.39354
-4.47545
-4.93256
-3.18779
-1.45276
-0.301909
0.339834
0.660022
0.797379
0.819537
0.771032
0.681682
0.569939
0.447293
0.320201
0.192298
0.0639525
-5.61688
-4.00552
3.82041
-1.81014
-4.98304
-5.65014
-3.49682
-1.58475
-0.309933
0.380154
0.707004
0.839916
0.856167
0.800577
0.704195
0.586306
0.458582
0.327368
0.196157
0.0651153
-4.5671
-3.02386
3.65646
-1.52599
-5.6713
-6.37008
-3.79847
-1.66517
-0.265964
0.45883
0.783247
0.898758
0.902212
0.836252
0.730699
0.605174
0.47136
0.33536
0.200452
0.0664187
-3.18807
-1.48995
3.1438
-2.10046
-6.2635
-6.75999
-3.95071
-1.66399
-0.19636
0.543608
0.868222
0.96346
0.948627
0.870095
0.754998
0.62206
0.482543
0.342224
0.204141
0.0675517
-2.10827
-0.701802
3.7649
-2.15401
-6.38381
-6.64354
-3.83507
-1.56157
-0.124186
0.591017
0.932267
1.02709
0.995301
0.902361
0.776933
0.636702
0.491925
0.347951
0.207172
0.0684981
-1.46923
-0.347486
2.48373
-2.05811
-6.03567
-6.03332
-3.46515
-1.35966
-0.0473892
0.617056
0.962576
1.07123
1.03442
0.929549
0.795122
0.648521
0.499186
0.352126
0.209411
0.0692261
-0.909469
-0.0455312
2.18179
-1.75821
-5.40979
-5.28414
-2.99545
-1.0782
0.0619277
0.645922
0.954084
1.08808
1.06336
0.952907
0.810261
0.657396
0.504081
0.354683
0.210767
0.0697038
-0.638242
-0.095625
1.7331
-1.37021
-4.50575
-4.37965
-2.47194
-0.777373
0.273139
0.771747
1.01796
1.11111
1.06937
0.961402
0.817971
0.661901
0.50606
0.355347
0.211107
0.0698907
-0.435059
0.00473821
1.33921
-0.934248
-3.36907
-3.34264
-1.89086
-0.535637
0.382092
0.898633
1.15148
1.1872
1.1055
0.975585
0.822569
0.662545
0.504922
0.353887
0.210294
0.0697398
-0.285491
-0.0151145
1.02944
-0.557124
-2.36319
-2.46197
-1.40137
-0.317777
0.439819
0.851563
1.08203
1.17299
1.11363
0.979607
0.821336
0.658512
0.500223
0.350016
0.208164
0.0691952
-0.17312
0.0369897
0.778267
-0.284583
-1.63304
-1.8169
-1.02447
-0.14761
0.515313
0.91992
1.14797
1.17711
1.10511
0.970051
0.811425
0.648565
0.491387
0.343398
0.204529
0.068192
-0.0815175
0.0360111
0.581528
-0.122414
-1.13452
-1.30456
-0.729387
-0.0166224
0.560266
0.905561
1.08252
1.15068
1.08737
0.954528
0.794838
0.632745
0.478034
0.333702
0.199182
0.066657
-0.0201605
0.070926
0.442516
-0.0358792
-0.785267
-0.923374
-0.498967
0.0753782
0.585629
0.94576
1.11163
1.12544
1.05323
0.921816
0.767048
0.609366
0.459444
0.320519
0.191882
0.0645104
0.0194622
0.0646582
0.333902
0.0131486
-0.546679
-0.659125
-0.336592
0.148094
0.596791
0.893521
1.03731
1.07001
1.00682
0.883037
0.731943
0.57898
0.435285
0.303472
0.182364
0.0616708
0.0392312
0.0554503
0.253409
0.0333317
-0.379763
-0.457715
-0.209466
0.173999
0.580259
0.884436
1.02809
1.03008
0.950402
0.826573
0.682967
0.539123
0.404593
0.282057
0.170314
0.058023
0.0460664
0.043576
0.189198
0.0409593
-0.260522
-0.318687
-0.120094
0.205417
0.552311
0.814216
0.931067
0.935973
0.870527
0.758981
0.625594
0.491183
0.367236
0.255878
0.155394
0.0534141
0.0447593
0.0316127
0.139172
0.0396886
-0.177573
-0.214036
-0.0585449
0.193674
0.492924
0.73623
0.862012
0.861733
0.785208
0.674811
0.551191
0.431015
0.321667
0.224251
0.137176
0.0476553
0.0381622
0.02175
0.0990968
0.0343688
-0.118114
-0.142536
-0.0226106
0.178923
0.423888
0.628618
0.727928
0.724063
0.661086
0.567975
0.463784
0.361249
0.268415
0.186957
0.115273
0.0405381
0.0284562
0.0136978
0.0656624
0.0258482
-0.0745913
-0.0885172
-0.00427086
0.141957
0.329941
0.495039
0.580727
0.579799
0.525586
0.4455
0.358715
0.276789
0.20485
0.142851
0.0890034
0.0317712
0.0174934
0.00663198
0.0375824
0.0170205
-0.0420426
-0.0489448
0.00376829
0.0962874
0.217827
0.326411
0.383494
0.380452
0.34144
0.28751
0.230886
0.178148
0.132056
0.0923443
0.058224
0.021181
0.00573709
0.00198576
0.0122564
0.005126
-0.0136502
-0.0149651
0.00180436
0.0347109
0.0835448
0.12621
0.146109
0.143771
0.129381
0.109515
0.0878518
0.0671154
0.0490481
0.0339831
0.0215458
0.00796916
-13.0088
-11.7029
-8.99269
-7.41593
-6.82641
-6.46807
-6.17071
-5.91755
-5.74905
-5.65466
-1.27177
-1.73683
-1.93033
-2.08807
-2.30692
-2.5804
-2.87543
-3.15162
-3.39557
-3.60301
-2.19205
-2.81682
-3.22452
-3.41632
-3.47906
-3.49771
-3.50286
-3.50256
-3.49221
-3.46963
-0.844743
-0.998501
-1.15007
-1.27439
-1.37066
-1.44554
-1.51426
-1.58129
-1.65094
-1.71974
-0.667595
-0.82398
-0.976168
-1.11845
-1.24335
-1.34617
-1.42481
-1.48039
-1.5128
-1.52404
-0.422979
-0.523174
-0.623734
-0.707451
-0.770869
-0.815134
-0.844699
-0.86273
-0.873047
-0.876772
-0.237532
-0.305722
-0.380048
-0.445866
-0.499671
-0.541199
-0.572662
-0.595704
-0.611578
-0.620871
-0.122429
-0.172415
-0.228572
-0.27947
-0.321596
-0.354691
-0.379691
-0.39803
-0.410568
-0.418144
-0.0689909
-0.10599
-0.135696
-0.163601
-0.189963
-0.213946
-0.233914
-0.249714
-0.261138
-0.268974
0.00869944
-0.0182944
-0.0491871
-0.0766869
-0.0990178
-0.117279
-0.131995
-0.144025
-0.153203
-0.160058
0.0258493
0.00517953
-0.00844064
-0.0217239
-0.0350936
-0.0481249
-0.0591357
-0.068187
-0.0745821
-0.0790371
0.0756379
0.0601627
0.0391265
0.019815
0.00511859
-0.00561899
-0.0128558
-0.0180758
-0.0214468
-0.0237294
0.0885995
0.077165
0.0600453
0.0440229
0.0320908
0.0238332
0.0187632
0.0154107
0.0135829
0.0125029
0.0692888
0.0600572
0.0568755
0.0532948
0.0486676
0.0436462
0.0396054
0.036617
0.0350198
0.0342654
0.0861235
0.0801709
0.0694904
0.0603333
0.0543038
0.0502981
0.0476408
0.0455095
0.0440643
0.0430292
0.0563507
0.051744
0.0530814
0.0543734
0.0540773
0.0521983
0.0497772
0.0473342
0.0455518
0.0443746
0.0433325
0.04032
0.0434725
0.0463106
0.0471245
0.0460306
0.0440873
0.0419675
0.0403561
0.039285
0.0506007
0.0490594
0.0427517
0.0374739
0.0344714
0.0328534
0.0318355
0.0308759
0.0300223
0.0292605
0.0154692
0.0144213
0.0181607
0.0208814
0.0216085
0.0210292
0.0200791
0.0191612
0.0185415
0.0181529
0.0144507
0.0139234
0.010364
0.00786133
0.00694219
0.00672308
0.00664567
0.00644589
0.00622671
0.00596447
1.75332
1.72757
1.75393
1.77835
1.83246
1.86122
1.93463
1.96921
2.07494
2.10439
2.25083
2.24291
2.4476
2.32266
2.60901
2.159
2.46282
1.03806
0.122811
-5.59784
1.67299
1.64397
1.66419
1.68174
1.72456
1.7418
1.79427
1.81239
1.88
1.89108
1.96321
1.94848
1.99934
1.92614
1.87464
1.68604
1.36052
0.948876
0.0202097
0.015377
1.57822
1.55636
1.56681
1.57849
1.60438
1.61739
1.64473
1.65727
1.68398
1.69108
1.70023
1.68475
1.64427
1.58147
1.43385
1.29437
0.875324
0.643182
-0.296945
-0.959206
1.46575
1.46372
1.4664
1.47285
1.4813
1.49053
1.49747
1.50467
1.50284
1.5018
1.47255
1.45141
1.36266
1.3104
1.11583
1.00548
0.632317
0.409531
-0.187699
-0.588389
1.35257
1.36273
1.36288
1.36431
1.36059
1.36357
1.35681
1.35813
1.33856
1.32973
1.28121
1.25243
1.15463
1.09161
0.917116
0.791501
0.518918
0.291123
-0.0471213
-0.392543
1.24267
1.25465
1.25482
1.2521
1.24237
1.23723
1.22386
1.21667
1.19053
1.17053
1.11865
1.07642
0.986648
0.90826
0.766451
0.631362
0.434097
0.229843
-0.00705551
-0.256205
1.13582
1.14286
1.14312
1.13804
1.12668
1.11511
1.09794
1.0827
1.05392
1.02533
0.974468
0.92382
0.844044
0.760917
0.646158
0.521459
0.371657
0.207955
0.0363235
-0.131971
1.0312
1.03315
1.03143
1.02527
1.01356
0.999216
0.979565
0.959294
0.928884
0.895952
0.847732
0.795217
0.725117
0.647519
0.55333
0.447763
0.331187
0.204595
0.0757677
-0.0473137
0.928563
0.928029
0.923774
0.916362
0.904258
0.889514
0.869314
0.846772
0.816333
0.782172
0.737732
0.687964
0.627282
0.558954
0.48104
0.394514
0.303135
0.206586
0.109919
0.00803358
0.828536
0.827413
0.821644
0.813387
0.800964
0.786509
0.767008
0.744375
0.715397
0.68224
0.642222
0.59701
0.544865
0.486228
0.421701
0.351014
0.277169
0.198352
0.119291
0.0464416
0.732418
0.731167
0.725004
0.716477
0.704314
0.690457
0.672244
0.650784
0.624166
0.593459
0.557943
0.517817
0.473229
0.423392
0.369721
0.312
0.253384
0.193563
0.135398
0.0740358
0.640775
0.639485
0.633609
0.625405
0.613968
0.600947
0.584237
0.564644
0.540776
0.513317
0.482285
0.447392
0.409568
0.367736
0.323357
0.275961
0.227878
0.17816
0.131223
0.0920987
0.553636
0.552315
0.547078
0.539564
0.529165
0.517233
0.502205
0.484831
0.46388
0.440032
0.413333
0.383609
0.351827
0.317133
0.280719
0.242307
0.20383
0.164451
0.128162
0.0994245
0.470861
0.469441
0.464888
0.458248
0.449159
0.438552
0.425401
0.410342
0.392386
0.3721
0.349619
0.324785
0.298522
0.270133
0.240667
0.210281
0.18108
0.152421
0.125914
0.0962017
0.391798
0.390465
0.386598
0.380916
0.373235
0.364158
0.35294
0.340256
0.325235
0.308418
0.289912
0.269703
0.248498
0.225918
0.202586
0.178494
0.154352
0.128791
0.104629
0.0871652
0.316006
0.314835
0.311663
0.306979
0.300748
0.293278
0.28406
0.273742
0.261579
0.248084
0.23332
0.217317
0.200626
0.182993
0.164869
0.146654
0.129158
0.111356
0.0941563
0.0738359
0.242967
0.241974
0.239502
0.235812
0.231008
0.225189
0.218047
0.210052
0.200666
0.190339
0.179114
0.166947
0.154346
0.141084
0.1275
0.114061
0.101215
0.0881878
0.0755159
0.0590566
0.171991
0.171281
0.169522
0.166865
0.163423
0.159266
0.154177
0.14849
0.141806
0.134527
0.126635
0.118137
0.109312
0.100028
0.0904869
0.0808434
0.0706051
0.0593517
0.0489785
0.0443408
0.102576
0.102147
0.101069
0.0994901
0.0974338
0.094898
0.0918459
0.0884372
0.084428
0.0800896
0.0753909
0.0703986
0.0651155
0.0594911
0.0537987
0.0481794
0.0427564
0.0380598
0.0341593
0.0267363
0.0341073
0.0339486
0.0335636
0.033063
0.0323739
0.0315008
0.030496
0.0293603
0.0279959
0.0265736
0.0250091
0.0233279
0.0215743
0.019717
0.0178589
0.0160102
0.0139554
0.0112297
0.00834952
0.00850946
1.80321
1.7939
1.82247
1.86314
1.92848
1.9933
2.0865
2.17989
2.3119
2.43815
2.61741
2.77347
3.00949
3.18022
3.47672
3.61276
3.97182
3.82883
4.57702
1.98999
1.8354
1.83458
1.86087
1.90504
1.96827
2.04248
2.136
2.24362
2.37747
2.52602
2.71089
2.90455
3.15468
3.39306
3.72582
3.98605
4.39514
4.57937
4.86288
4.70493
1.85886
1.86498
1.89009
1.93612
1.99781
2.07789
2.17222
2.28942
2.4254
2.58969
2.77935
3.00309
3.26174
3.55851
3.9011
4.2751
4.71012
5.09456
5.60627
5.47746
1.87558
1.8843
1.9109
1.95515
2.01875
2.09783
2.19717
2.31401
2.45765
2.62365
2.82532
3.05634
3.3344
3.65019
4.02114
4.43565
4.89199
5.38484
5.78565
6.17949
1.8814
1.89319
1.92067
1.96413
2.02663
2.10578
2.20465
2.32246
2.46555
2.63366
2.83571
3.07167
3.3524
3.67814
4.05849
4.48487
4.95567
5.41816
5.88034
6.12999
1.88381
1.89217
1.91846
1.96135
2.0224
2.10022
2.19653
2.3119
2.45137
2.61561
2.81329
3.04293
3.31938
3.63579
4.01503
4.44336
4.94511
5.46541
5.89863
6.09762
1.87235
1.88186
1.90724
1.94855
2.00709
2.08194
2.17358
2.28423
2.41536
2.57258
2.75608
2.976
3.22769
3.53074
3.86462
4.2636
4.64817
5.08275
5.37836
5.66737
1.85883
1.86046
1.88448
1.92429
1.98179
2.0507
2.13768
2.23772
2.36196
2.50192
2.67467
2.86316
3.0987
3.34304
3.66133
3.95569
4.39435
4.66676
5.26533
4.85582
1.83917
1.82743
1.85401
1.88937
1.94914
2.0055
2.09118
2.17199
2.29389
2.40455
2.57052
2.71352
2.93118
3.10436
3.37233
3.55595
3.81948
3.89658
3.87301
3.55379
1.804
1.79009
1.81443
1.8479
1.90265
1.95216
2.02768
2.09697
2.20332
2.29403
2.43584
2.54054
2.72432
2.8151
3.05494
3.02764
3.37784
2.86787
3.84847
-0.437736
)
;

boundaryField
{
    inlet
    {
        type            zeroGradient;
    }
    outlet
    {
        type            fixedValue;
        value           uniform 0;
    }
    upAndBottom
    {
        type            empty;
    }
    obstacle
    {
        type            zeroGradient;
    }
}


// ************************************************************************* //
