/*--------------------------------*- C++ -*----------------------------------*\
| =========                 |                                                 |
| \\      /  F ield         | OpenFOAM: The Open Source CFD Toolbox           |
|  \\    /   O peration     | Version:  v1806                                 |
|   \\  /    A nd           | Web:      www.OpenFOAM.com                      |
|    \\/     M anipulation  |                                                 |
\*---------------------------------------------------------------------------*/
FoamFile
{
    version     2.0;
    format      ascii;
    class       volScalarField;
    location    "20";
    object      p;
}
// * * * * * * * * * * * * * * * * * * * * * * * * * * * * * * * * * * * * * //

dimensions      [0 2 -2 0 0 0 0];


internalField   nonuniform List<scalar> 
2400
(
0.000851787
0.000851558
0.00085108
0.000850181
0.000848637
0.000846472
0.000843667
0.000839626
0.000833526
0.000825464
0.000816838
0.00080905
0.000801726
0.000793322
0.000783657
0.000778412
0.000785609
0.000816596
0.000869146
0.000950956
0.00255568
0.0025551
0.00255374
0.00255131
0.00254733
0.00254119
0.00253202
0.00251891
0.00250124
0.00247883
0.00245153
0.0024192
0.00238217
0.00234249
0.00230337
0.00227094
0.00224869
0.00224402
0.00225781
0.00230748
0.00426027
0.00425949
0.00425762
0.00425416
0.00424822
0.00423861
0.00422394
0.00420275
0.00417359
0.00413539
0.00408743
0.0040298
0.00396339
0.0038906
0.00381432
0.00374143
0.00367791
0.0036404
0.00364152
0.00371113
0.00596573
0.00596502
0.0059632
0.00595957
0.0059528
0.00594111
0.00592236
0.00589423
0.00585446
0.00580128
0.00573322
0.00564963
0.00555093
0.00544026
0.00532172
0.00520406
0.00509411
0.00501022
0.00496644
0.0049971
0.00767189
0.00767165
0.00767076
0.00766827
0.00766238
0.00765058
0.00762986
0.00759695
0.00754855
0.00748184
0.00739416
0.00728403
0.0071512
0.00699892
0.00683113
0.00665741
0.00648469
0.0063356
0.00622961
0.00621227
0.00937814
0.00937892
0.00938012
0.00938055
0.00937783
0.00936866
0.009349
0.00931442
0.00926026
0.0091824
0.00907666
0.00894027
0.00877145
0.00857305
0.00834861
0.00810936
0.00786271
0.00763513
0.00744695
0.00735189
0.0110832
0.0110857
0.0110905
0.0110961
0.0110996
0.0110966
0.011082
0.01105
0.0109943
0.010909
0.010788
0.0106268
0.0104211
0.0101731
0.0098849
0.00956917
0.00923244
0.00890565
0.00860955
0.00841082
0.012785
0.0127901
0.0128003
0.0128139
0.0128273
0.0128351
0.0128309
0.0128071
0.0127555
0.0126683
0.0125366
0.0123536
0.0121116
0.0118111
0.0114517
0.0110479
0.0106043
0.0101577
0.00972655
0.00939305
0.0144803
0.014489
0.0145069
0.014532
0.0145599
0.0145842
0.0145967
0.0145885
0.0145487
0.0144672
0.0143317
0.0141322
0.0138564
0.0135025
0.0130652
0.0125615
0.0119912
0.011399
0.0107978
0.0102918
0.0161649
0.0161784
0.0162065
0.0162471
0.016295
0.0163425
0.01638
0.0163964
0.0163785
0.0163128
0.0161834
0.015976
0.0156719
0.0152662
0.0147457
0.0141306
0.0134108
0.0126435
0.0118295
0.0111041
0.0178329
0.0178527
0.017894
0.0179547
0.0180288
0.0181074
0.0181796
0.0182319
0.0182484
0.0182122
0.0181026
0.0178998
0.0175778
0.0171255
0.0165198
0.0157829
0.0148879
0.0139104
0.0128263
0.0118197
0.0194771
0.0195046
0.0195623
0.0196482
0.0197555
0.0198745
0.0199926
0.0200942
0.0201609
0.0201712
0.0201
0.0199198
0.0195963
0.0191087
0.0184216
0.017555
0.0164571
0.0152289
0.0137968
0.0124273
0.0210884
0.021125
0.0212026
0.0213191
0.0214675
0.0216368
0.0218135
0.0219801
0.0221156
0.0221939
0.0221855
0.0220525
0.0217531
0.0212491
0.0204946
0.0194946
0.0181689
0.0166425
0.014756
0.0129171
0.0226557
0.0227032
0.0228041
0.0229568
0.023154
0.0233843
0.0236335
0.0238825
0.0241085
0.0242809
0.0243659
0.0243133
0.0240748
0.0235853
0.0227933
0.0216627
0.0200966
0.0182126
0.0157359
0.0132933
0.0241664
0.0242263
0.0243538
0.024548
0.0248017
0.0251036
0.0254395
0.0257896
0.0261302
0.0264268
0.0266426
0.026714
0.0265869
0.0261597
0.0253831
0.0241386
0.0223462
0.0200203
0.0168065
0.0135777
0.025606
0.0256795
0.0258364
0.0260768
0.026394
0.0267774
0.0272137
0.0276835
0.0281636
0.0286179
0.0290072
0.0292576
0.0293082
0.0290168
0.0283363
0.0270245
0.0250636
0.0221804
0.0181211
0.013767
0.0269585
0.0270465
0.027235
0.0275251
0.0279113
0.0283843
0.0289325
0.029539
0.0301824
0.0308281
0.031437
0.0319309
0.0322412
0.0321942
0.0317279
0.0304554
0.0284335
0.0248811
0.0199471
0.0137092
0.0282069
0.0283099
0.028531
0.0288727
0.029331
0.0298987
0.0305671
0.0313231
0.0321492
0.0330164
0.0338887
0.0346936
0.0353571
0.0356984
0.0356187
0.0346176
0.0327097
0.0284469
0.0225772
0.0128616
0.0293337
0.0294515
0.0297049
0.030098
0.0306286
0.0312921
0.0320836
0.0329952
0.0340156
0.0351244
0.0362938
0.0374669
0.0385742
0.0394609
0.0399918
0.0396618
0.0382752
0.0336992
0.0266247
0.0103232
0.0303215
0.0304532
0.030737
0.0311789
0.0317782
0.0325335
0.0334444
0.0345089
0.0357233
0.0370784
0.0385586
0.0401295
0.0417403
0.0432882
0.0446475
0.0454628
0.0453484
0.0422213
0.0353484
0.00840862
0.00103885
0.00120796
0.00143684
0.00168642
0.00189689
0.00200755
0.0019939
0.00187094
0.00167664
0.00144491
0.0024539
0.0028511
0.0033995
0.00399516
0.00448681
0.00474761
0.00473628
0.00449082
0.00408792
0.0035987
0.00391451
0.004506
0.00534081
0.00624811
0.00699144
0.00737263
0.00733235
0.00693951
0.00631834
0.00558169
0.00518549
0.00587047
0.00689541
0.00804224
0.00899389
0.0094901
0.00945357
0.00897216
0.00820194
0.00728679
0.00635795
0.00709414
0.00826972
0.00961663
0.01074
0.0113221
0.0112755
0.0107122
0.00981769
0.00876048
0.00740132
0.00811243
0.00937156
0.0108745
0.0121464
0.0128103
0.0127669
0.0121486
0.0111657
0.0100067
0.00831903
0.00895589
0.0102549
0.0118758
0.0132659
0.013996
0.0139583
0.0133039
0.0122621
0.0110368
0.00910217
0.00960348
0.0108863
0.0125844
0.0140699
0.0148631
0.0148461
0.0141821
0.0131142
0.0118583
0.00973601
0.0100517
0.011264
0.0129931
0.0145464
0.0154027
0.0154286
0.0147872
0.0137287
0.0124785
0.0102003
0.0102794
0.0113531
0.0130593
0.0146577
0.0155921
0.0156986
0.015122
0.0141123
0.0129049
0.0104605
0.0102609
0.011115
0.012736
0.014364
0.0154114
0.0156542
0.0151935
0.0142747
0.0131466
0.010462
0.0099496
0.0104884
0.0119663
0.0136297
0.014854
0.0153064
0.0150185
0.0142322
0.0132163
0.0101121
0.00927904
0.00939809
0.0107159
0.0124543
0.0139468
0.0146906
0.0146297
0.0140103
0.0131311
0.00925002
0.00817426
0.00776786
0.0090098
0.0109012
0.0127703
0.0138768
0.0140798
0.0136469
0.0129135
0.00758941
0.00657514
0.00557853
0.00698958
0.00913215
0.0114731
0.0129713
0.0134419
0.0131914
0.0125915
0.00463893
0.00447454
0.00291176
0.00496658
0.00741531
0.0102557
0.0120954
0.0128034
0.0127025
0.0121967
-0.000260711
0.00202151
1.22516e-05
0.00337821
0.00605553
0.00933935
0.0113905
0.012248
0.0122381
0.0117626
-0.00746137
-0.000155635
-0.00265867
0.00254045
0.0051926
0.0088113
0.0108979
0.0118276
0.0118549
0.0113299
-0.016991
-0.00116533
-0.00451589
0.00239733
0.00480147
0.00862221
0.0106185
0.0115628
0.011591
0.0109513
-0.0413333
-0.00241773
-0.00643898
0.00251279
0.00486492
0.00877752
0.0106371
0.0115383
0.0115282
0.0106427
0.00116
0.000873679
0.000649058
0.000486168
0.000369398
0.000285809
0.000224767
0.000179175
0.000144243
0.000116857
9.49517e-05
7.71353e-05
6.24342e-05
5.0142e-05
3.97247e-05
3.07588e-05
2.28993e-05
1.584e-05
9.33543e-06
3.02164e-06
0.00297325
0.00230731
0.00175979
0.00134646
0.00104014
0.000814852
0.000646738
0.00051901
0.000419843
0.000341311
0.000278021
0.000226257
0.00018337
0.000147402
0.000116852
9.05167e-05
6.7403e-05
4.66271e-05
2.74676e-05
8.87938e-06
0.00463873
0.00363193
0.00279729
0.00215928
0.00168028
0.00132394
0.0010554
0.000849734
0.000689027
0.000561122
0.000457649
0.000372778
0.000302311
0.000243121
0.000192788
0.000149361
0.000111223
7.69301e-05
4.52976e-05
1.46365e-05
0.00610421
0.00482559
0.00375155
0.00292012
0.00228794
0.00181248
0.00145082
0.0011717
0.000952256
0.000776774
0.000634296
0.000517114
0.000419622
0.000337606
0.000267786
0.000207494
0.000154513
0.000106855
6.28912e-05
2.03155e-05
0.00738853
0.00589246
0.0046201
0.00362451
0.00285862
0.00227674
0.00183007
0.00148268
0.00120785
0.000986989
0.000806981
0.000658504
0.000534707
0.000430395
0.000341485
0.000264641
0.00019707
0.000136265
8.01686e-05
2.58883e-05
0.00849615
0.00683491
0.00540253
0.00427074
0.00339012
0.00271458
0.0021913
0.00178116
0.00145459
0.00119078
0.000974907
0.000796305
0.00064705
0.000521071
0.000413558
0.000320547
0.000238706
0.000165031
9.70563e-05
3.13306e-05
0.00943364
0.00765628
0.00609949
0.00485819
0.00388127
0.00312472
0.00253333
0.0020661
0.00169159
0.00138742
0.00113748
0.000930027
0.000756251
0.000609313
0.000483747
0.000375015
0.000279274
0.000193052
0.000113498
3.66249e-05
0.0102068
0.00836049
0.0067124
0.00538706
0.00433151
0.00350636
0.0028553
0.00233671
0.00191814
0.0015763
0.00129417
0.00105924
0.000861948
0.000694825
0.000551818
0.000427861
0.00031864
0.000220238
0.000129443
4.17553e-05
0.0108213
0.00895218
0.00724341
0.00585825
0.00474086
0.00385911
0.00315665
0.00259238
0.00213368
0.00175689
0.00144453
0.00118353
0.000963807
0.000777331
0.000617546
0.00047891
0.000356672
0.000246501
0.00014484
4.67061e-05
0.0112833
0.00943683
0.00769535
0.00627334
0.0051099
0.004183
0.00343711
0.00283271
0.00233774
0.00192875
0.00158814
0.00130255
0.00106152
0.000856569
0.000680719
0.000527997
0.000393248
0.000271755
0.000159641
5.14624e-05
0.0115991
0.00982086
0.00807174
0.00663456
0.00543969
0.00447844
0.00369669
0.00305748
0.00253001
0.00209152
0.00172465
0.00141598
0.00115479
0.000932301
0.000741141
0.000574964
0.00042825
0.00029592
0.000173801
5.60098e-05
0.0117762
0.0101118
0.00837668
0.00694475
0.00573174
0.00474617
0.00393565
0.00326664
0.00271028
0.00224492
0.00185376
0.00152352
0.00124338
0.0010043
0.000798627
0.000619666
0.000461568
0.000318921
0.000187276
6.03343e-05
0.0118228
0.0103186
0.00861491
0.00720734
0.00598799
0.00498729
0.00415444
0.0034603
0.00287844
0.00238875
0.00197523
0.00162493
0.00132704
0.00107237
0.000853006
0.000661965
0.000493099
0.000340686
0.000200025
6.44229e-05
0.011748
0.0104512
0.00879174
0.00742635
0.00621075
0.00520315
0.00435375
0.0036387
0.00303449
0.00252286
0.00208886
0.00171999
0.00140557
0.00113632
0.000904121
0.000701735
0.000522746
0.000361149
0.00021201
6.82631e-05
0.0115613
0.0105212
0.00891312
0.00760628
0.00640268
0.0053954
0.00453443
0.0038022
0.00317849
0.00264716
0.00219447
0.00180851
0.00147879
0.00119598
0.000951824
0.000738858
0.00055042
0.000380246
0.000223195
7.1843e-05
0.0112729
0.0105407
0.00898574
0.00775211
0.00656682
0.00556588
0.00469746
0.00395125
0.00331056
0.0027616
0.00229194
0.00189032
0.00154651
0.0012512
0.000995984
0.000773224
0.000576037
0.00039792
0.000233546
7.51515e-05
0.010893
0.0105221
0.00901725
0.00786924
0.00670655
0.00571661
0.00484392
0.00408635
0.0034309
0.00286617
0.00238116
0.00196528
0.0016086
0.00130183
0.00103648
0.000804734
0.000599521
0.000414118
0.000243033
7.81783e-05
0.0104401
0.0104753
0.00901656
0.00796337
0.00682552
0.00584974
0.00497495
0.00420807
0.00353969
0.00296089
0.00246205
0.00203327
0.00166492
0.00134775
0.00107319
0.000833296
0.000620803
0.000428791
0.000251628
8.09139e-05
0.00995293
0.0104124
0.00899435
0.00804052
0.00692765
0.00596749
0.00509171
0.00431695
0.00363715
0.00304579
0.00253454
0.00209418
0.00171534
0.00138884
0.00110603
0.000858827
0.000639818
0.000441893
0.000259306
8.33487e-05
0.0094635
0.0103357
0.00896301
0.00810702
0.00701687
0.00607209
0.0051953
0.00441354
0.00372348
0.00312088
0.00259856
0.0021479
0.00175976
0.00142499
0.0011349
0.000881252
0.000656508
0.000453382
0.00026605
8.54653e-05
0.00895684
0.0102492
0.00894092
0.00816297
0.00708882
0.00615622
0.00527754
0.00448982
0.00379132
0.00317965
0.00264851
0.0021897
0.00179424
0.00145301
0.00115723
0.000898579
0.000669392
0.000462237
0.00027127
8.70651e-05
0.00909681
0.0101824
0.00893577
0.00821164
0.00714922
0.0062245
0.00534337
0.00455026
0.00384468
0.00322563
0.00268743
0.00222215
0.00182094
0.00147465
0.00117445
0.000911915
0.000679297
0.00046904
0.000275268
8.83048e-05
0.00909288
0.0101341
0.00894561
0.00826167
0.00720746
0.00628698
0.00540229
0.00460347
0.00389115
0.00326534
0.00272082
0.00224985
0.00184364
0.00149299
0.001189
0.00092316
0.000687633
0.000474761
0.000278619
8.93558e-05
0.00906223
0.0101142
0.00897023
0.00831492
0.00726437
0.00634415
0.00545451
0.00464956
0.00393075
0.00329876
0.00274864
0.00227276
0.00186229
0.00150798
0.00120085
0.000932288
0.000694383
0.000479386
0.00028132
9.0207e-05
0.00901923
0.0101205
0.00901021
0.00837256
0.00732054
0.00639631
0.00550015
0.00468853
0.00396343
0.00332584
0.00277087
0.00229084
0.00187687
0.0015196
0.00120997
0.000939281
0.000699531
0.000482904
0.000283368
9.08553e-05
0.00895889
0.0101533
0.00906647
0.00843522
0.00737625
0.00644352
0.00553921
0.00472035
0.00398917
0.00334654
0.00278743
0.00230405
0.00188733
0.00152782
0.00121635
0.000944119
0.000703065
0.000485306
0.000284756
9.12998e-05
0.00888297
0.0102166
0.00913993
0.00850298
0.00743144
0.00648564
0.00557155
0.00474491
0.00400786
0.00336078
0.00279829
0.00231233
0.00189364
0.00153262
0.00121995
0.000946786
0.000704972
0.000486585
0.00028548
9.15395e-05
0.0087939
0.0103189
0.00923158
0.00857525
0.00748567
0.00652232
0.00559691
0.00476203
0.00401939
0.00336848
0.00280338
0.00231565
0.00189577
0.00153395
0.00122077
0.000947272
0.000705246
0.000486736
0.000285538
9.15731e-05
0.00863786
0.010467
0.00934313
0.00865066
0.00753813
0.00655295
0.00561491
0.0047715
0.00402363
0.00336954
0.00280263
0.00231396
0.00189368
0.00153182
0.00121879
0.000945568
0.000703881
0.000485757
0.000284925
9.14022e-05
0.00829766
0.010653
0.0094777
0.00872678
0.00758772
0.00657666
0.00562519
0.00477304
0.00402038
0.00336386
0.00279599
0.00230722
0.00188737
0.0015262
0.001214
0.000941667
0.000700871
0.000483645
0.00028363
9.10416e-05
0.00898862
0.010902
0.00966718
0.00881601
0.00764199
0.0065959
0.00562745
0.00476486
0.00400712
0.00334865
0.00278068
0.00229288
0.00187454
0.00151513
0.00120478
0.000934271
0.000695229
0.000479713
0.000281233
9.03816e-05
0.00986875
0.0111964
0.00990311
0.00891174
0.0076895
0.00660063
0.00561114
0.00473741
0.00397533
0.00331648
0.00275036
0.00226558
0.00185075
0.001495
0.00118822
0.000921115
0.00068527
0.000472785
0.000277108
8.91163e-05
0.0108425
0.011486
0.0101214
0.00898638
0.00771328
0.00658324
0.00557375
0.00469088
0.00392662
0.00326962
0.00270751
0.00222773
0.00181823
0.00146773
0.00116595
0.000903514
0.000672
0.000463567
0.000271667
8.73982e-05
0.0117286
0.0117451
0.0102966
0.0090302
0.00770658
0.00653962
0.00551298
0.00462391
0.00386023
0.00320766
0.00265191
0.00217925
0.00177694
0.00143335
0.001138
0.000881505
0.000655452
0.000452087
0.000264911
8.5248e-05
0.0124573
0.0119536
0.0104283
0.00903231
0.0076634
0.00646592
0.00542657
0.00453517
0.00377543
0.00313023
0.00258341
0.0021201
0.00172691
0.00139189
0.00110443
0.000855141
0.000635668
0.000438377
0.000256859
8.26745e-05
0.0130089
0.0120916
0.0104747
0.00898459
0.0075784
0.00635862
0.00531242
0.00442343
0.00367155
0.00303699
0.00250187
0.00205026
0.00166819
0.00134344
0.00106532
0.000824492
0.000612707
0.000422482
0.000247534
7.9687e-05
0.01338
0.0121422
0.0104435
0.00888023
0.00744699
0.00621458
0.00516858
0.00428757
0.00354798
0.00292768
0.00240722
0.00196976
0.00160085
0.00128808
0.00102077
0.000789649
0.000586642
0.000404452
0.000236966
7.62967e-05
0.0135703
0.0120927
0.0103274
0.00871312
0.00726524
0.00603106
0.00499337
0.00412661
0.00340425
0.00280212
0.00229946
0.0018787
0.00152503
0.00122597
0.000970901
0.000750723
0.00055756
0.000384351
0.00022519
7.25164e-05
0.0135805
0.0119323
0.0101207
0.00847806
0.0070298
0.00580575
0.00478539
0.00393981
0.00324003
0.00266023
0.00217866
0.00177722
0.00144091
0.00115728
0.000915882
0.000707848
0.000525564
0.000362252
0.00021225
6.83601e-05
0.0134114
0.011652
0.00981822
0.00817062
0.00673784
0.00553674
0.00454353
0.00372662
0.00305514
0.00250207
0.00204499
0.00166553
0.00134871
0.00108223
0.000855898
0.000661179
0.000490775
0.000338237
0.000198192
6.38437e-05
0.0130628
0.0112448
0.00941582
0.00778712
0.00638705
0.00522261
0.00426703
0.00348675
0.00284958
0.00232782
0.00189872
0.00154395
0.00124872
0.00100106
0.000791169
0.000610893
0.000453326
0.000312401
0.000183071
5.89848e-05
0.012534
0.0107049
0.00890967
0.00732454
0.00597563
0.00486235
0.0039555
0.0032202
0.00262359
0.0021378
0.00174023
0.00141283
0.00114128
0.000914086
0.000721948
0.000557192
0.000413371
0.000284849
0.000166948
5.38024e-05
0.0118234
0.0100273
0.00829646
0.0067805
0.00550235
0.00445547
0.00360892
0.00292723
0.00237759
0.00193253
0.00157
0.00127264
0.0010268
0.000821652
0.000648519
0.000500302
0.000371078
0.000255697
0.000149889
4.83175e-05
0.010928
0.0092075
0.00757327
0.00615323
0.0049665
0.00400196
0.00322768
0.00260845
0.00211226
0.00171265
0.00138866
0.00112393
0.000905748
0.00072415
0.000571201
0.000440472
0.000326633
0.00022507
0.000131966
4.25525e-05
0.00984312
0.00824114
0.00673757
0.00544159
0.00436801
0.00350234
0.00281261
0.00226478
0.0018285
0.00147902
0.00119695
0.000967329
0.000778665
0.00062202
0.000490345
0.000377974
0.000280235
0.000193104
0.000113255
3.65314e-05
0.00856295
0.00712368
0.0057872
0.00464504
0.00370745
0.00295773
0.00236499
0.0018975
0.00152749
0.00123266
0.000995733
0.000803571
0.000646144
0.000515742
0.000406333
0.000313101
0.000232101
0.000159946
9.38391e-05
3.02792e-05
0.00707841
0.00585008
0.00472038
0.00376377
0.00298608
0.00236982
0.0018866
0.00150825
0.00121066
0.000974767
0.000786025
0.000633474
0.000508848
0.000405847
0.000319581
0.000246173
0.000182463
0.000125751
7.38055e-05
2.38231e-05
0.00538399
0.00441637
0.00353609
0.00279884
0.00220612
0.00174123
0.00137999
0.0010993
0.000879934
0.000706945
0.000569109
0.000458075
0.000367605
0.000292989
0.0002306
0.000177578
0.000131607
9.07114e-05
5.32633e-05
1.71978e-05
0.00344868
0.00281031
0.00223207
0.00175288
0.00137211
0.00107673
0.000849387
0.000674153
0.00053809
0.000431357
0.000346671
0.000278679
0.000223426
0.000177951
0.000139989
0.000107769
7.98603e-05
5.50498e-05
3.2339e-05
1.04463e-05
0.0013382
0.00106346
0.000825594
0.000636112
0.000490333
0.00038017
0.000297121
0.000234147
0.000185875
0.000148391
0.000118884
9.53399e-05
7.62998e-05
6.06884e-05
4.7695e-05
3.66922e-05
2.71788e-05
1.87319e-05
1.10087e-05
3.55993e-06
-0.033445
0.000743784
-0.00261421
0.00537166
0.00758035
0.010497
0.0119647
0.0124479
0.0120739
0.0104907
-0.00710022
0.00243914
0.000101425
0.00546912
0.00775479
0.0104309
0.01199
0.0125096
0.0121838
0.011103
0.00065461
0.00414591
0.00253556
0.00611151
0.00845277
0.010855
0.0123842
0.012904
0.0126332
0.0118366
0.00679531
0.00707256
0.00581987
0.00769501
0.00968862
0.0117287
0.013068
0.013512
0.0132514
0.0126238
0.0107303
0.00959741
0.00868995
0.00972235
0.0113355
0.0129617
0.0140085
0.0142909
0.0139702
0.0133724
0.012773
0.0113978
0.0108962
0.0116912
0.0130333
0.0142871
0.0150113
0.0150913
0.014663
0.0140078
0.0137301
0.0125696
0.0124558
0.0132918
0.0144853
0.0154659
0.0159177
0.0158023
0.0152499
0.0144975
0.0140725
0.0132604
0.0134739
0.0144246
0.015548
0.0163514
0.0166058
0.0163326
0.0156662
0.0148104
0.0140225
0.013574
0.0140447
0.015095
0.0161873
0.0168841
0.0170108
0.0166264
0.0158712
0.0149268
0.0136947
0.0135784
0.0142445
0.015359
0.0164277
0.0170591
0.0171104
0.0166577
0.015844
0.0148357
0.013152
0.0133166
0.0141281
0.0152748
0.0163134
0.0168979
0.0169071
0.0164199
0.0155766
0.0145322
0.0124318
0.012824
0.0137401
0.0148899
0.0158853
0.0164277
0.0164132
0.0159157
0.015068
0.0140145
0.0115563
0.0121168
0.0130965
0.0142253
0.0151673
0.0156683
0.0156404
0.0151496
0.0143187
0.0132811
0.0105366
0.0112175
0.0122256
0.0133079
0.0141807
0.0146343
0.0145963
0.0141239
0.0133277
0.0123296
0.00937638
0.010113
0.0111018
0.0121147
0.0129115
0.0133186
0.0132763
0.0128338
0.01209
0.0111548
0.00808093
0.00883333
0.00977147
0.0106873
0.0113856
0.011731
0.0116794
0.0112732
0.0105981
0.00974939
0.00662216
0.00730903
0.00812994
0.00891655
0.00951053
0.00980346
0.00975911
0.0094109
0.00883058
0.00809838
0.00504423
0.00563594
0.0063146
0.00694101
0.00739835
0.00761003
0.00755429
0.00726105
0.00678843
0.00619806
0.00317834
0.00356809
0.0040121
0.00442567
0.00473152
0.00488038
0.00485694
0.00467668
0.00437405
0.00398575
0.00135488
0.00151058
0.00169449
0.0018643
0.00198727
0.00204023
0.00201528
0.00191953
0.00177067
0.00158513
0.0311728
0.0313053
0.03159
0.0320328
0.0326337
0.0333914
0.0343053
0.0353739
0.036594
0.0379569
0.0394485
0.041036
0.0426741
0.0442585
0.0456738
0.0465379
0.0465429
0.043487
0.03689
0.0119281
0.0302466
0.0303633
0.0306134
0.0310009
0.0315238
0.0321775
0.0329564
0.0338523
0.0348535
0.0359391
0.0370811
0.0382226
0.0392979
0.0401495
0.0406549
0.0403161
0.0389922
0.0348874
0.0286695
0.0159974
0.0291421
0.0292419
0.0294554
0.0297848
0.0302261
0.0307719
0.0314126
0.0321345
0.0329196
0.0337382
0.0345542
0.0352976
0.0358979
0.0361885
0.0360738
0.0351438
0.0333815
0.029883
0.0248475
0.0175687
0.0278849
0.0279679
0.0281449
0.0284169
0.0287782
0.0292193
0.0297281
0.0302872
0.0308749
0.0314577
0.0319965
0.0324217
0.0326667
0.0325925
0.0321239
0.031012
0.0292051
0.0263594
0.0222493
0.0174444
0.0265004
0.0265675
0.0267102
0.0269282
0.027215
0.02756
0.0279496
0.0283651
0.0287833
0.0291715
0.0294915
0.0296831
0.0296866
0.0294042
0.0287702
0.027664
0.0259867
0.0237111
0.0205088
0.0171551
0.0250129
0.0250655
0.0251771
0.0253466
0.0255671
0.0258278
0.0261148
0.0264098
0.0266901
0.0269265
0.0270844
0.0271162
0.0269711
0.0265878
0.0259073
0.0248887
0.0234345
0.0216314
0.0192443
0.0168436
0.0234441
0.0234841
0.0235687
0.0236963
0.0238601
0.0240499
0.0242523
0.0244504
0.0246238
0.0247478
0.0247927
0.0247233
0.0244984
0.0240818
0.0234272
0.0225322
0.021328
0.0199119
0.0181613
0.0164282
0.0218133
0.0218428
0.0219047
0.0219973
0.0221144
0.0222466
0.0223819
0.0225055
0.0225997
0.0226446
0.0226162
0.0224891
0.022232
0.0218241
0.0212347
0.0204747
0.0195067
0.0184069
0.017128
0.0158826
0.0201367
0.0201575
0.0202011
0.0202656
0.0203456
0.0204328
0.0205169
0.0205855
0.0206239
0.0206165
0.020545
0.0203912
0.0201328
0.0197588
0.0192515
0.0186247
0.0178633
0.0170226
0.0160948
0.0152149
0.0184274
0.0184415
0.0184707
0.0185134
0.0185648
0.0186183
0.0186649
0.0186948
0.0186962
0.0186573
0.0185645
0.0184052
0.018165
0.0178382
0.0174169
0.0169141
0.016328
0.015699
0.0150383
0.0144375
0.0166959
0.0167049
0.0167232
0.0167496
0.01678
0.0168091
0.0168297
0.0168339
0.0168128
0.0167577
0.016659
0.0165083
0.0162969
0.0160229
0.0156846
0.0152937
0.0148548
0.0143992
0.0139455
0.0135602
0.0149501
0.0149553
0.0149659
0.0149805
0.0149962
0.0150085
0.0150121
0.0150007
0.014968
0.0149077
0.0148134
0.0146797
0.0145023
0.0142817
0.0140196
0.0137267
0.0134103
0.013096
0.0128045
0.0125872
0.0131958
0.0131984
0.0132036
0.0132103
0.0132161
0.0132178
0.0132113
0.013192
0.0131554
0.0130972
0.0130136
0.0129016
0.0127594
0.0125895
0.0123953
0.0121867
0.011972
0.011773
0.0116098
0.0115232
0.0114369
0.0114379
0.0114396
0.0114413
0.0114412
0.0114369
0.0114254
0.0114036
0.0113683
0.011317
0.0112475
0.0111586
0.0110505
0.0109267
0.0107915
0.0106537
0.0105214
0.0104134
0.0103491
0.0103631
0.0096763
0.0096763
0.00967603
0.00967489
0.00967165
0.00966462
0.00965179
0.00963101
0.00960036
0.00955853
0.00950455
0.00943832
0.0093612
0.00927708
0.00919108
0.00911164
0.00904682
0.00901282
0.00902509
0.00911129
0.00791541
0.00791494
0.00791374
0.00791138
0.00790704
0.0078996
0.00788777
0.00787022
0.0078459
0.00781438
0.00777563
0.00773035
0.00768047
0.00762983
0.00758326
0.00754841
0.0075328
0.00755124
0.00761789
0.00775721
0.00615509
0.0061545
0.0061531
0.00615058
0.00614645
0.00614005
0.00613062
0.00611739
0.00609996
0.00607848
0.00605347
0.00602594
0.00599789
0.0059731
0.00595673
0.00595671
0.00598022
0.00603821
0.00613735
0.00629458
0.00439562
0.00439511
0.00439394
0.00439193
0.00438879
0.00438417
0.00437776
0.00436921
0.00435844
0.00434586
0.00433232
0.00431911
0.00430795
0.00430147
0.00430357
0.00432151
0.0043628
0.00443943
0.00455762
0.00473219
0.00263695
0.00263661
0.00263588
0.00263465
0.00263283
0.00263033
0.00262695
0.00262256
0.00261747
0.00261243
0.00260813
0.00260517
0.00260455
0.00260877
0.00262212
0.00265125
0.00270016
0.00277087
0.002858
0.00296968
0.000878878
0.000878745
0.000878521
0.000878106
0.000877422
0.000876702
0.000876159
0.000875425
0.000874045
0.00087266
0.000873151
0.000877123
0.000884216
0.000893049
0.000904717
0.000926906
0.000969805
0.00104231
0.00113601
0.00125001
0.0310715
0.0312137
0.0315217
0.0320025
0.0326571
0.0334867
0.0344949
0.0356856
0.0370621
0.0386259
0.0403748
0.0422954
0.0443622
0.0465215
0.0486961
0.0507151
0.0523131
0.052836
0.0514623
0.0385591
0.0316305
0.0317807
0.0321071
0.0326176
0.0333143
0.034201
0.0352844
0.0365731
0.0380766
0.0398051
0.0417681
0.0439698
0.0464069
0.049062
0.0518988
0.0548288
0.0576419
0.0599406
0.0604862
0.0591756
0.0320755
0.0322322
0.0325731
0.033107
0.0338373
0.0347695
0.0359131
0.0372805
0.0388868
0.0407493
0.0428875
0.0453199
0.0480615
0.05112
0.054486
0.0581109
0.0618217
0.0653027
0.0675689
0.0689674
0.0324017
0.032563
0.0329139
0.0334642
0.0342179
0.035182
0.0363678
0.0377908
0.0394697
0.0414273
0.0436902
0.0462872
0.0492454
0.0525883
0.0563214
0.0604123
0.0646994
0.0688723
0.0720045
0.0745649
0.0326058
0.0327694
0.0331256
0.0336844
0.0344504
0.0354311
0.0366392
0.0380914
0.0398086
0.0418165
0.0441457
0.0468302
0.0499039
0.0533978
0.0573243
0.0616565
0.0662351
0.0707418
0.0742663
0.0771641
0.0326859
0.0328497
0.0332061
0.0337653
0.0345318
0.0355132
0.0367223
0.0381758
0.0398949
0.0419053
0.044238
0.0469277
0.0500092
0.0535145
0.0574573
0.061813
0.0664264
0.0709828
0.0745726
0.0775191
0.0326418
0.0328035
0.0331551
0.0337065
0.0344618
0.035428
0.0366168
0.0380438
0.039728
0.041693
0.0439663
0.0465784
0.0495594
0.0529358
0.0567174
0.0608781
0.0652703
0.0695966
0.0729424
0.0756611
0.0324754
0.0326328
0.0329748
0.0335106
0.0342436
0.0351794
0.0363278
0.0377018
0.0393169
0.0411914
0.0433462
0.0458029
0.0485809
0.0516927
0.0551369
0.0588748
0.0627603
0.0665022
0.0691775
0.0709547
0.0321899
0.032341
0.032669
0.0331821
0.0338826
0.0347743
0.0358645
0.0371621
0.0386778
0.0404225
0.0424079
0.0446416
0.0471262
0.0498505
0.05279
0.05587
0.0589246
0.061588
0.0627221
0.0620775
0.0317897
0.0319331
0.0322432
0.0327274
0.0333866
0.0342227
0.0352395
0.0364415
0.0378331
0.0394169
0.0411931
0.0431518
0.0452745
0.0475126
0.0498044
0.0519934
0.0538913
0.054903
0.0545913
0.0432624
)
;

boundaryField
{
    inlet
    {
        type            zeroGradient;
    }
    outlet
    {
        type            fixedValue;
        value           uniform 0;
    }
    upAndBottom
    {
        type            empty;
    }
    obstacle
    {
        type            zeroGradient;
    }
}


// ************************************************************************* //
