/*--------------------------------*- C++ -*----------------------------------*\
| =========                 |                                                 |
| \\      /  F ield         | OpenFOAM: The Open Source CFD Toolbox           |
|  \\    /   O peration     | Version:  v1806                                 |
|   \\  /    A nd           | Web:      www.OpenFOAM.com                      |
|    \\/     M anipulation  |                                                 |
\*---------------------------------------------------------------------------*/
FoamFile
{
    version     2.0;
    format      ascii;
    class       surfaceScalarField;
    location    "160";
    object      phi;
}
// * * * * * * * * * * * * * * * * * * * * * * * * * * * * * * * * * * * * * //

dimensions      [0 3 -1 0 0 0 0];
oriented        oriented;


internalField   nonuniform List<scalar> 
4680
(
0.0749993
-0.000289183
0.0749971
-0.000874819
0.0749927
-0.00146719
0.0749862
-0.00208232
0.0749767
-0.0027169
0.0749648
-0.00338917
0.0749494
-0.00409127
0.0749319
-0.00484301
0.074911
-0.00563083
0.074889
-0.00647321
0.0748651
-0.00734938
0.074843
-0.00827068
0.0748228
-0.00920745
0.0748093
-0.0101561
0.0748048
-0.0110763
0.0748145
-0.0119446
0.0748416
-0.0127096
0.0748892
-0.0133333
0.0749555
-0.0137582
-0.013961
0.0750582
0.0749982
-0.000287356
0.0749933
-0.000869974
0.0749845
-0.00145832
0.0749726
-0.00207048
0.0749562
-0.00270048
0.0749372
-0.00337012
0.0749132
-0.00406733
0.0748878
-0.00481759
0.0748581
-0.00560117
0.0748297
-0.00644477
0.0747999
-0.00731954
0.0747765
-0.00824729
0.0747582
-0.00918919
0.0747547
-0.0101526
0.0747671
-0.0110888
0.0748045
-0.011982
0.0748693
-0.0127744
0.0749659
-0.0134299
0.0750939
-0.0138863
-0.0141147
0.0752476
0.074997
-0.000284333
0.0749891
-0.000862096
0.0749748
-0.00144403
0.0749562
-0.00205185
0.0749306
-0.00267493
0.0749018
-0.00334131
0.0748659
-0.00403144
0.0748291
-0.00478081
0.0747865
-0.00555849
0.0747477
-0.00640605
0.0747074
-0.00727922
0.0746796
-0.00821946
0.0746598
-0.00916942
0.0746652
-0.010158
0.0746944
-0.011118
0.0747628
-0.0120504
0.0748715
-0.012883
0.075027
-0.0135854
0.0752247
-0.014084
-0.014344
0.075454
0.0749958
-0.000280121
0.0749848
-0.000851132
0.0749649
-0.00142411
0.0749391
-0.00202604
0.0749037
-0.00263954
0.0748642
-0.00330183
0.0748149
-0.00398213
0.0747653
-0.00473118
0.0747072
-0.00550042
0.0746561
-0.00635494
0.0746019
-0.00722499
0.0745671
-0.0081847
0.0745417
-0.00914393
0.0745536
-0.0101699
0.0745958
-0.0111602
0.0746946
-0.0121491
0.0748468
-0.0130352
0.0750636
-0.0138023
0.0753368
-0.0143572
-0.0146611
0.0756538
0.0749946
-0.000274719
0.0749805
-0.000837061
0.0749549
-0.00139847
0.0749218
-0.00199294
0.0748762
-0.00259397
0.0748257
-0.00325132
0.0747621
-0.00391852
0.0746988
-0.00466788
0.0746234
-0.00542507
0.0745585
-0.00629004
0.0744871
-0.00715354
0.0744434
-0.00814102
0.0744073
-0.00910778
0.0744236
-0.0101863
0.0744735
-0.0112101
0.0746015
-0.0122771
0.0747948
-0.0132285
0.0750755
-0.014083
0.07543
-0.0147117
-0.0150731
0.075842
0.0749934
-0.000268131
0.0749762
-0.000819845
0.0749448
-0.00136705
0.0749043
-0.00195243
0.0748482
-0.00253793
0.0747864
-0.00318947
0.0747077
-0.00383979
0.07463
-0.00459021
0.0745355
-0.00533058
0.0744555
-0.00621006
0.0743631
-0.00706114
0.0743086
-0.00808648
0.0742556
-0.0090548
0.0742744
-0.0102051
0.0743241
-0.0112598
0.0744812
-0.0124342
0.0747112
-0.0134585
0.07506
-0.0144319
0.0755018
-0.0151535
-0.01559
0.0760188
0.0749922
-0.000260381
0.0749718
-0.000799428
0.0749346
-0.00132982
0.0748865
-0.00190437
0.0748198
-0.00247121
0.0747463
-0.00311592
0.0746517
-0.00374519
0.0745588
-0.00449737
0.0744432
-0.00521496
0.0743466
-0.00611348
0.0742291
-0.00694357
0.0741615
-0.00801891
0.074084
-0.00897736
0.0741034
-0.0102244
0.0741423
-0.0112988
0.0743293
-0.0126212
0.0745878
-0.0137169
0.0750117
-0.0148558
0.0755474
-0.0156891
-0.016226
0.0761834
0.0749911
-0.000251513
0.0749674
-0.000775722
0.0749244
-0.00128679
0.0748686
-0.00184857
0.074791
-0.00239366
0.0747053
-0.00303019
0.0745942
-0.00363403
0.0744851
-0.00438833
0.0743464
-0.00507626
0.0742314
-0.00599842
0.074084
-0.00679624
0.0740007
-0.00793559
0.0738898
-0.0088664
0.0739075
-0.0102422
0.0739212
-0.0113125
0.0741405
-0.0128405
0.0744134
-0.0139897
0.0749243
-0.0153667
0.0755586
-0.0163235
-0.0170007
0.0763333
0.0749901
-0.000241603
0.074963
-0.000748606
0.0749143
-0.00123807
0.0748504
-0.00178477
0.0747621
-0.00230529
0.0746635
-0.00293166
0.0745354
-0.00350588
0.0744088
-0.00426174
0.0742453
-0.0049128
0.0741093
-0.00586237
0.0739277
-0.00661461
0.0738249
-0.00783278
0.0736703
-0.00871185
0.0736833
-0.0102552
0.0736536
-0.0112827
0.0739089
-0.0130959
0.0741732
-0.014254
0.0747904
-0.0159839
0.0755224
-0.0170554
-0.0179428
0.0764644
0.0749892
-0.000230757
0.0749585
-0.000717927
0.0749043
-0.00118385
0.0748321
-0.00171263
0.0747331
-0.0022063
0.074621
-0.00281953
0.0744758
-0.00336067
0.0743299
-0.00411582
0.0741406
-0.00472349
0.0739801
-0.00570186
0.0737603
-0.00639484
0.0736325
-0.00770501
0.0734243
-0.00850364
0.0734272
-0.0102581
0.0733324
-0.011188
0.0736273
-0.0133908
0.0738496
-0.0144763
0.0746016
-0.0167359
0.0754154
-0.0178692
-0.0190988
0.0765714
0.0749883
-0.0002191
0.0749539
-0.000683514
0.0748945
-0.00112446
0.0748137
-0.00163177
0.0747045
-0.00209717
0.0745778
-0.00269283
0.074416
-0.00319885
0.0742485
-0.00394828
0.0740332
-0.0045082
0.0738435
-0.00551216
0.0735832
-0.00613458
0.0734222
-0.00754404
0.0731519
-0.00823331
0.0731345
-0.0102407
0.0729524
-0.0110058
0.0732867
-0.0137251
0.073423
-0.0146127
0.0743474
-0.0176602
0.0752049
-0.0187267
-0.0205435
0.0766496
0.0749877
-0.000206767
0.0749494
-0.000645215
0.0748852
-0.00106027
0.0747952
-0.00154184
0.0746766
-0.00197856
0.0745343
-0.00255048
0.0743569
-0.00302141
0.0741649
-0.00375635
0.0739248
-0.00426802
0.0736996
-0.00528699
0.073399
-0.00583396
0.0731926
-0.00733765
0.0728556
-0.00789632
0.0727998
-0.0101849
0.072511
-0.0107169
0.0728745
-0.0140886
0.0728732
-0.0146114
0.0740132
-0.0188003
0.0748487
-0.0195621
-0.0223924
0.0766975
0.0749871
-0.000193864
0.0749448
-0.00060295
0.0748763
-0.000991701
0.074777
-0.00144259
0.0746498
-0.00185132
0.0744908
-0.00239151
0.0742992
-0.0028298
0.0740799
-0.00353708
0.0738172
-0.0040053
0.0735489
-0.00501869
0.0732111
-0.00549617
0.0729421
-0.00706869
0.0725404
-0.00749461
0.0724158
-0.0100602
0.072011
-0.0103122
0.072373
-0.0144506
0.0721821
-0.0144205
0.0735793
-0.0201975
0.0742924
-0.0202752
-0.0248219
0.0767219
0.0749866
-0.000180441
0.0749404
-0.000556778
0.0748678
-0.000919125
0.0747593
-0.00133405
0.0746242
-0.0017162
0.0744481
-0.0022154
0.0742438
-0.00262555
0.0739947
-0.00328799
0.0737125
-0.00372309
0.073393
-0.00469923
0.0730239
-0.00512702
0.0726707
-0.00671546
0.0722141
-0.00703799
0.0719727
-0.00981893
0.0714623
-0.00980174
0.0717545
-0.0147427
0.0713414
-0.0140074
0.0730162
-0.0218723
0.0734548
-0.0207139
-0.0281177
0.0767506
0.074986
-0.000166467
0.0749362
-0.000506952
0.0748598
-0.000842766
0.0747425
-0.00121669
0.0746
-0.0015737
0.0744071
-0.00202247
0.0741912
-0.00240968
0.0739114
-0.00300816
0.0736121
-0.00342386
0.0732355
-0.00432258
0.0728413
-0.00473287
0.0723811
-0.00625526
0.0718848
-0.0065417
0.0714618
-0.0093959
0.0708799
-0.00921982
0.070973
-0.0148358
0.0703675
-0.0134019
0.0722588
-0.0237636
0.0722172
-0.0206723
-0.0327991
0.0768985
0.0749854
-0.000151841
0.0749323
-0.000453918
0.0748523
-0.000762719
0.074727
-0.00109143
0.0745773
-0.00142397
0.074369
-0.00181417
0.0741416
-0.00218228
0.0738327
-0.00269924
0.0735166
-0.0031078
0.0730825
-0.00388846
0.0726657
-0.00431612
0.0720849
-0.00567438
0.0715604
-0.00601727
0.0708835
-0.00871901
0.0702751
-0.00861137
0.0699653
-0.0145261
0.0693049
-0.0127416
0.071132
-0.0255907
0.0704753
-0.0200156
-0.0398574
0.0775337
0.0749846
-0.000136432
0.0749289
-0.000398244
0.0748452
-0.000679039
0.0747134
-0.000959558
0.0745564
-0.00126698
0.0743351
-0.00159285
0.0740955
-0.00194275
0.0737617
-0.0023654
0.0734264
-0.00277252
0.0729416
-0.00340366
0.0724959
-0.00387035
0.0718018
-0.00498028
0.0712415
-0.00545697
0.0702828
-0.00776032
0.0696528
-0.00798145
0.0686663
-0.0135395
0.0681754
-0.0122506
0.0692776
-0.0266929
0.0683385
-0.0190764
-0.0507312
0.0792122
0.0749837
-0.000120112
0.074926
-0.000340569
0.0748388
-0.000591825
0.0747018
-0.000822534
0.0745376
-0.00110277
0.0743061
-0.00136136
0.0740538
-0.0016905
0.0737007
-0.00201228
0.0733431
-0.00241493
0.0728195
-0.00288005
0.072333
-0.00338383
0.0715514
-0.00419869
0.0709158
-0.00482142
0.0697274
-0.00657188
0.0689959
-0.00724999
0.0672704
-0.011814
0.0668597
-0.0118399
0.0663255
-0.0261587
0.066371
-0.019122
-0.0656975
0.0813374
0.0749826
-0.000102715
0.0749237
-0.000281669
0.0748331
-0.000501198
0.0746925
-0.00068198
0.0745213
-0.000931518
0.0742827
-0.00112276
0.0740177
-0.00142556
0.0736511
-0.00164565
0.0732699
-0.00203378
0.0727195
-0.00232956
0.0721847
-0.00284908
0.0713449
-0.00335887
0.0705963
-0.0040728
0.0692592
-0.00523485
0.0682417
-0.0062324
0.0660252
-0.00959755
0.0651534
-0.0109682
0.0621241
-0.0231294
0.0652549
-0.0222528
-0.0795996
0.0791569
0.074981
-8.37629e-05
0.0749225
-0.000223115
0.0748277
-0.000406403
0.0746863
-0.00054057
0.0745068
-0.000752052
0.0742662
-0.000882131
0.0739865
-0.00114586
0.0736153
-0.00127445
0.0732072
-0.00162569
0.0726451
-0.0017675
0.0720578
-0.00226169
0.0711852
-0.00248632
0.0703161
-0.00320371
0.0688821
-0.00380085
0.0674999
-0.00485017
0.0649474
-0.00704508
0.0627051
-0.0087258
0.058077
-0.0185014
0.0608992
-0.0250749
0.0622303
-0.0809307
0.0750864
-0.00309458
0.0751091
-0.00308568
0.0751333
-0.00307655
0.0751583
-0.00306441
0.0751839
-0.00304955
0.0752099
-0.00303207
0.0752364
-0.00301199
0.0752631
-0.00298939
0.07529
-0.00296426
-0.00293662
0.0753158
0.0752813
-0.00312828
0.0753179
-0.00312227
0.0753548
-0.00311339
0.075392
-0.00310162
0.0754294
-0.00308698
0.0754668
-0.00306952
0.0755042
-0.00304931
0.0755412
-0.00302646
0.0755779
-0.00300096
-0.0029735
0.0756148
0.0755074
-0.00318167
0.0755614
-0.00317623
0.0756155
-0.00316745
0.0756694
-0.00315557
0.0757231
-0.00314062
0.0757762
-0.00312264
0.0758286
-0.00310169
0.07588
-0.00307791
0.0759303
-0.00305126
-0.00302241
0.0759792
0.0757267
-0.00325454
0.0757997
-0.00324922
0.0758727
-0.00324044
0.0759453
-0.00322821
0.0760173
-0.00321259
0.0760883
-0.00319364
0.076158
-0.00317141
0.0762261
-0.00314605
0.0762924
-0.00311748
-0.00308673
0.0763567
0.075936
-0.00334853
0.0760303
-0.00334355
0.0761245
-0.00333465
0.0762182
-0.00332183
0.0763108
-0.00330517
0.0764018
-0.00328472
0.076491
-0.00326056
0.0765778
-0.00323289
0.0766619
-0.00320156
-0.00316801
0.0767432
0.0761369
-0.00346663
0.0762554
-0.00346209
0.0763737
-0.00345295
0.0764911
-0.00343924
0.076607
-0.00342105
0.0767208
-0.00339847
0.0768318
-0.00337161
0.0769397
-0.00334073
0.0770437
-0.00330559
-0.00326828
0.0771439
0.0763294
-0.00361265
0.076476
-0.00360868
0.0766222
-0.00359917
0.0767672
-0.00358418
0.07691
-0.00356385
0.0770498
-0.00353832
0.077186
-0.00350776
0.0773177
-0.00347252
0.0774444
-0.00343225
-0.00338996
0.0775661
0.0765126
-0.00379191
0.0766926
-0.00378869
0.076872
-0.00377862
0.0770496
-0.00376178
0.0772242
-0.00373842
0.0773947
-0.0037088
0.0775601
-0.00367315
0.0777196
-0.00363202
0.0778722
-0.00358485
-0.003536
0.0780182
0.0766847
-0.0040122
0.0769058
-0.00400983
0.0771259
-0.00399873
0.0773432
-0.00397904
0.0775561
-0.00395126
0.0777631
-0.00391583
0.077963
-0.0038731
0.0781549
-0.00382388
0.0783374
-0.00376738
-0.0037098
0.0785112
0.0768444
-0.00428517
0.0771178
-0.0042832
0.077389
-0.0042699
0.0776554
-0.00424552
0.0779152
-0.00421101
0.0781664
-0.00416708
0.0784076
-0.00411427
0.0786375
-0.00405375
0.0788546
-0.00398449
-0.00391506
0.0790599
0.0769924
-0.00462796
0.0773338
-0.00462467
0.0776705
-0.00460652
0.077999
-0.00457406
0.078317
-0.00452899
0.0786222
-0.00447232
0.0789128
-0.00440486
0.0791874
-0.00432831
0.0794443
-0.00424141
-0.00415564
0.0796849
0.0771345
-0.00506496
0.0775661
-0.00505621
0.0779876
-0.00502808
0.0783954
-0.00498178
0.0787864
-0.00492003
0.0791582
-0.00484409
0.0795084
-0.00475511
0.0798357
-0.00465557
0.0801384
-0.00454411
-0.00443554
0.0804183
0.0772883
-0.00563126
0.0778406
-0.00560852
0.0783741
-0.00556163
0.0788847
-0.00549241
0.0793692
-0.00540452
0.0798245
-0.00529932
0.0802478
-0.00517845
0.0806377
-0.00504551
0.0809929
-0.00489928
-0.00475819
0.0813156
0.0775014
-0.00638204
0.0782219
-0.00632908
0.0789094
-0.0062491
0.0795588
-0.00614184
0.0801661
-0.00601183
0.0807272
-0.00586039
0.0812387
-0.00568997
0.081699
-0.00550582
0.0821074
-0.00530763
-0.00511712
0.0824663
0.0779174
-0.00740094
0.0788819
-0.0072935
0.0797861
-0.00715334
0.080622
-0.00697769
0.0813824
-0.00677231
0.0820613
-0.00653922
0.0826545
-0.00628317
0.0831607
-0.006012
0.0835817
-0.00572863
-0.00545383
0.0839184
0.0789141
-0.00878133
0.0801916
-0.00857108
0.0813418
-0.00830354
0.0823544
-0.00799025
0.0832187
-0.00763666
0.0839273
-0.00724775
0.0844789
-0.00683478
0.0848771
-0.00641018
0.0851329
-0.00598445
-0.00556487
0.0852439
0.0809866
-0.0105557
0.0824394
-0.0100239
0.0835989
-0.00946304
0.0844765
-0.00886785
0.0850735
-0.0082337
0.0853982
-0.00757244
0.0854696
-0.00690618
0.0853108
-0.00625142
0.084951
-0.00562465
-0.00501565
0.0844018
0.0829887
-0.012207
0.083858
-0.0108932
0.0841563
-0.00976137
0.08396
-0.00867148
0.0833334
-0.00760709
0.0823537
-0.00659275
0.0811001
-0.00565259
0.0796381
-0.00478948
0.078014
-0.00400052
-0.00325606
0.0762544
0.078138
-0.0111881
0.0763947
-0.00914984
0.0740068
-0.00737344
0.0711552
-0.00581988
0.0680243
-0.00447623
0.064794
-0.00336245
0.0615998
-0.00245835
0.0585355
-0.00172518
0.0556611
-0.00112619
-0.000645188
0.0530503
0.0510422
0.0418924
0.034519
0.0286991
0.0242228
0.0208604
0.018402
0.0166769
0.0155507
0.0149055
0.0755285
-0.0217294
0.0757015
-0.0190588
0.075832
-0.0161453
0.0759395
-0.0135443
0.075975
-0.0116811
0.0760193
-0.00995379
0.076064
-0.00914452
0.0761722
-0.00823542
0.0761187
-0.00777656
0.0761747
-0.00638728
0.0759855
-0.00753739
0.0759224
-0.00822508
0.0756249
-0.0109647
0.0756795
-0.0135481
0.0758483
-0.0167531
0.0759131
-0.0193902
0.0766261
-0.0145236
0.0768679
-0.0164872
0.0768879
-0.00955593
-0.00747842
0.0758615
-0.0219761
0.0760219
-0.0192192
0.0761054
-0.0162288
0.0761501
-0.0135889
0.0761274
-0.0116584
0.0761349
-0.00996127
0.0761666
-0.00917627
0.076262
-0.00833079
0.0761843
-0.00769885
0.0761874
-0.00639034
0.0759366
-0.00728666
0.0758215
-0.00811
0.0755177
-0.0106608
0.0756223
-0.0136527
0.0758804
-0.0170113
0.076083
-0.0195928
0.0769077
-0.0153483
0.0770992
-0.0166786
0.0770331
-0.0094899
-0.00703791
0.0762918
-0.0222886
0.0764571
-0.0193846
0.0765014
-0.016273
0.0764769
-0.0135644
0.0763824
-0.0115639
0.0763401
-0.00991897
0.0763549
-0.00919115
0.0764325
-0.00840833
0.0763269
-0.00759323
0.0762487
-0.00631215
0.0759079
-0.00694591
0.0756933
-0.0078954
0.0753667
-0.0103343
0.0755166
-0.0138025
0.0758851
-0.0173798
0.0763127
-0.0200203
0.0772841
-0.0163198
0.0774407
-0.0168352
0.0772361
-0.00928532
-0.00637758
0.076748
-0.0226799
0.0769295
-0.0195661
0.0769411
-0.0162847
0.0768484
-0.0134717
0.0766806
-0.0113961
0.0765882
-0.00982658
0.0765907
-0.00919365
0.0766563
-0.00847391
0.0765278
-0.00746473
0.0763563
-0.00614066
0.0759049
-0.00649453
0.0755605
-0.00755095
0.0751874
-0.00996116
0.0753674
-0.0139825
0.0758504
-0.0178628
0.0765456
-0.0207156
0.0776575
-0.0174316
0.077783
-0.0169607
0.0774149
-0.00891715
-0.00547082
0.0772193
-0.023156
0.0774191
-0.0197659
0.077397
-0.0162625
0.0772323
-0.013307
0.0769876
-0.0111514
0.0768461
-0.00968509
0.0768444
-0.00919195
0.0769104
-0.00853993
0.0767663
-0.00732063
0.0764953
-0.00586962
0.0759156
-0.00591488
0.0754154
-0.0070507
0.0749694
-0.00951521
0.0751608
-0.0141739
0.0757609
-0.0184628
0.0767303
-0.021685
0.0779493
-0.0186506
0.0780301
-0.0170416
0.0774781
-0.00836513
-0.00430193
0.0777083
-0.0237204
0.0779254
-0.0199829
0.0778634
-0.0162006
0.0776173
-0.0130609
0.0772871
-0.0108212
0.0770956
-0.00949352
0.0770995
-0.00919585
0.0771814
-0.00862184
0.0770286
-0.00716783
0.0766513
-0.00549233
0.0759219
-0.00518544
0.0752361
-0.00636493
0.0746873
-0.00896635
0.0748681
-0.0143547
0.0755782
-0.0191729
0.0767963
-0.0229031
0.078063
-0.0199174
0.0780732
-0.0170517
0.0773206
-0.00761253
-0.00286618
0.0782212
-0.0243756
0.0784533
-0.020215
0.0783422
-0.0160895
0.0780006
-0.0127193
0.0775713
-0.0103919
0.0773264
-0.00924869
0.0773467
-0.00921609
0.0774609
-0.00873612
0.0773041
-0.00701099
0.0768088
-0.00499703
0.0758997
-0.00427639
0.0749906
-0.00545576
0.0743035
-0.00827932
0.0744417
-0.0144929
0.0752323
-0.0199636
0.0766335
-0.0243042
0.0778659
-0.0211498
0.0777789
-0.0169647
0.0768214
-0.00665506
-0.00117381
0.0787652
-0.0251225
0.0790102
-0.02046
0.0788378
-0.015917
0.0783812
-0.0122628
0.0778336
-0.00984433
0.0775295
-0.00894454
0.0775757
-0.00926233
0.0777367
-0.00889707
0.077575
-0.00684929
0.0769414
-0.00436342
0.0758119
-0.00314691
0.074633
-0.00427683
0.0737641
-0.00741041
0.0738061
-0.0145349
0.07461
-0.0207675
0.0760841
-0.0257783
0.0771896
-0.0222553
0.0769933
-0.0167684
0.0758503
-0.00551209
0.000745247
0.0793493
-0.0259606
0.079606
-0.0207168
0.0793559
-0.0156669
0.0787576
-0.0116644
0.0780646
-0.00915139
0.077689
-0.00856893
0.077764
-0.00933736
0.0779771
-0.00911014
0.0777995
-0.00667168
0.0769965
-0.00356041
0.0755961
-0.00174658
0.0740956
-0.00277633
0.0729877
-0.0063025
0.0728466
-0.0143938
0.0735497
-0.0214705
0.0749525
-0.0271811
0.0758498
-0.0231526
0.0755625
-0.0164811
0.0742843
-0.00423395
0.00283872
0.0799864
-0.0268872
0.0802542
-0.0209846
0.0799015
-0.0153142
0.0791212
-0.0108841
0.078242
-0.00827222
0.0777685
-0.00809541
0.0778562
-0.00942511
0.0781071
-0.00936099
0.0778871
-0.00645172
0.0768749
-0.00254825
0.0751524
-2.39879e-05
0.073279
-0.000902925
0.0718553
-0.00487886
0.0714033
-0.0139418
0.0718542
-0.0219214
0.0730381
-0.028365
0.0736856
-0.0238001
0.073366
-0.0161615
0.0720322
-0.00290019
0.00503442
0.0806964
-0.0278987
0.0809698
-0.021258
0.0804689
-0.0148133
0.0794419
-0.00985701
0.0783108
-0.00714112
0.0776833
-0.0074679
0.07773
-0.00947184
0.077972
-0.00960301
0.077668
-0.0061477
0.0764086
-0.00128883
0.0743326
0.002052
0.0720428
0.00138689
0.0702049
-0.003041
0.0692841
-0.013021
0.0693297
-0.021967
0.0701892
-0.0292245
0.0706096
-0.0242204
0.0703545
-0.0159065
0.0690605
-0.00160615
0.00724975
0.0815064
-0.0289868
0.0817542
-0.0215057
0.0810123
-0.0140715
0.0796314
-0.00847611
0.0781422
-0.0056519
0.0772539
-0.00657963
0.0771478
-0.0093657
0.0772968
-0.00975203
0.0768661
-0.00571692
0.0753564
0.000220817
0.0729318
0.00447664
0.0702055
0.00411314
0.0678425
-0.000677966
0.0663035
-0.0114821
0.0658468
-0.0215103
0.0663631
-0.0297408
0.0666508
-0.0245081
0.0665747
-0.0158304
0.0654078
-0.000439274
0.00940433
0.0824343
-0.0301055
0.0825411
-0.0216126
0.0813754
-0.0129058
0.0794741
-0.00657477
0.0774673
-0.00364511
0.0761453
-0.00525765
0.0757114
-0.00893183
0.0756639
-0.00970452
0.0751024
-0.00515538
0.0734101
0.00191309
0.0707168
0.00716998
0.0675583
0.00727162
0.064581
0.00229931
0.0623474
-0.0092485
0.0614065
-0.0205693
0.0616648
-0.0299991
0.0619648
-0.0248081
0.0621659
-0.0160315
0.0611831
0.000543512
0.0114315
0.0834019
-0.0310411
0.0830599
-0.0212705
0.0811594
-0.0110053
0.0785233
-0.00393864
0.0757992
-0.000920985
0.0738198
-0.00327829
0.0728615
-0.00797352
0.0725555
-0.00939855
0.0719529
-0.00455271
0.070262
0.00360391
0.0674595
0.0099725
0.0639135
0.0108177
0.0603073
0.00590549
0.0574426
-0.00638376
0.0561758
-0.0193025
0.0563396
-0.030163
0.0568015
-0.0252699
0.0573267
-0.0165568
0.0565463
0.0013239
0.0132835
0.0839862
-0.0311089
0.0825739
-0.0198582
0.0795483
-0.00797975
0.0760013
-0.000391659
0.0724003
0.00268001
0.0695774
-0.000455355
0.0679887
-0.00638488
0.067505
-0.00891479
0.0670986
-0.00414634
0.0657066
0.00499587
0.0630131
0.012666
0.0591801
0.0146506
0.0550537
0.0100319
0.0517988
-0.00312888
0.0504689
-0.0179726
0.0507161
-0.0304101
0.0514438
-0.0259976
0.0522761
-0.0173891
0.0516787
0.0019213
0.0149236
0.0829263
-0.0287913
0.079582
-0.0165139
0.0752148
-0.00361248
0.070823
0.00400012
0.0664011
0.00710194
0.0627762
0.00316949
0.0607126
-0.00432128
0.0603598
-0.00856196
0.0605184
-0.00430497
0.0597595
0.00575483
0.0573908
0.0150347
0.0534342
0.0186073
0.0490622
0.0144039
0.0457935
0.000139775
0.0446784
-0.0168575
0.0451304
-0.0308622
0.0461504
-0.0270176
0.0472165
-0.0184552
0.0467699
0.00236792
0.0163184
0.0775673
-0.0219568
0.0718204
-0.010767
0.0665917
0.00161625
0.0619877
0.00860403
0.0572191
0.0118706
0.0532589
0.00712968
0.0512587
-0.00232106
0.0515242
-0.00882743
0.05261
-0.00539079
0.052713
0.00565186
0.0508187
0.016929
0.0469755
0.0224505
0.0427699
0.0186095
0.0399003
0.00300934
0.0391933
-0.0161504
0.0398737
-0.0315426
0.0411345
-0.0282784
0.0423302
-0.0196509
0.0420115
0.0026867
0.0174334
0.0641873
-0.00988967
0.0573371
-0.00391686
0.0529812
0.00597214
0.0494089
0.0121764
0.0452378
0.0160417
0.0418222
0.0105453
0.0406521
-0.00115096
0.0419519
-0.0101272
0.0441055
-0.00754438
0.0450849
0.00467242
0.0437379
0.018276
0.0403141
0.0258743
0.0367407
0.0221829
0.0345854
0.00516465
0.0343468
-0.0159118
0.0351831
-0.0323789
0.0365753
-0.0296707
0.0377922
-0.0208678
0.0375963
0.00288264
0.0182357
0.0412037
0.0019569
0.0373279
-4.1051e-05
0.0362008
0.00709923
0.0347761
0.0136011
0.03218
0.0186377
0.030224
0.0125013
0.0304277
-0.00135466
0.0328075
-0.0125071
0.0358372
-0.0105741
0.0375157
0.002994
0.036759
0.0190327
0.0340901
0.0285432
0.0315372
0.0247357
0.0302481
0.00645376
0.0304068
-0.0160705
0.0312603
-0.0332324
0.0326409
-0.0310512
0.0337796
-0.0220065
0.033713
0.00294918
0.0187048
0.015884
0.000978419
0.0176937
-0.00185075
0.0201874
0.00460547
0.0210012
0.0127874
0.0204833
0.0191556
0.0204428
0.0125418
0.0220195
-0.00293136
0.0250936
-0.0155812
0.0285732
-0.0140537
0.0307021
0.000865156
0.0305836
0.0191512
0.0289512
0.0301755
0.0276231
0.0260638
0.0271786
0.00689831
0.0275758
-0.0164677
0.0282871
-0.0339437
0.0294878
-0.0322519
0.030469
-0.0229877
0.0305403
0.00287783
0.018856
0.00239759
-0.00141917
0.0032504
-0.00270355
0.00474082
0.00311504
0.0054873
0.0120409
0.00589678
0.0187461
0.00634537
0.0120932
0.00722872
-0.00381471
0.00847492
-0.0168274
0.00985655
-0.0154353
0.0107936
-7.19099e-05
0.0109378
0.019007
0.0106049
0.0305084
0.010391
0.0262777
0.010427
0.00686234
0.0105844
-0.0166251
0.0107914
-0.0341507
0.0111589
-0.0326194
0.011498
-0.0233269
0.0115885
0.00278733
0.0188716
0.000746077
-0.00216525
0.00150126
-0.00345873
0.00314382
0.00147248
0.0041055
0.0110792
0.00483957
0.0180121
0.00555808
0.0113747
0.00655795
-0.00481458
0.00777284
-0.0180423
0.00909827
-0.0167607
0.0100463
-0.00101998
0.0102959
0.0187574
0.0101513
0.030653
0.0101295
0.0262995
0.010274
0.0067178
0.0104328
-0.0167839
0.0105742
-0.0342921
0.0108744
-0.0329195
0.0111654
-0.023618
0.0112715
0.00268128
0.0188455
-0.000455307
-0.00170995
0.000176832
-0.00409087
0.00189692
-0.000247606
0.00304222
0.0099339
0.00407064
0.0169836
0.00503713
0.0104082
0.00611702
-0.00589447
0.00726167
-0.019187
0.00849275
-0.0179918
0.00942567
-0.0019529
0.00977323
0.0184099
0.00981516
0.0306111
0.00998047
0.0261342
0.0102213
0.00647699
0.0103734
-0.016936
0.0104385
-0.0343571
0.0106622
-0.0331432
0.0108969
-0.0238527
0.0110098
0.0025684
0.0187794
-0.00123674
-0.000473206
-0.000674743
-0.00465287
0.00103191
-0.00195426
0.00231914
0.00864667
0.00360945
0.0156933
0.00478794
0.00922974
0.00591005
-0.00701658
0.00694809
-0.020225
0.00805015
-0.0190939
0.00894514
-0.00284789
0.0093815
0.0179735
0.00960309
0.0303895
0.00994357
0.0257937
0.0102689
0.00615169
0.0104052
-0.0170724
0.0103852
-0.0343371
0.0105218
-0.0332799
0.0106937
-0.0240245
0.0108081
0.00245397
0.0186783
-0.00157325
0.00110005
-0.00109216
-0.00513396
0.000565532
-0.00361196
0.00195121
0.00726099
0.00346254
0.014182
0.00481176
0.00788052
0.00593947
-0.0081443
0.00683873
-0.0211243
0.00777995
-0.0200351
0.00861402
-0.00368196
0.00912707
0.0174604
0.00951729
0.0299993
0.0100182
0.0252928
0.0104158
0.00575417
0.0105279
-0.0171845
0.0104152
-0.0342244
0.0104548
-0.0333196
0.0105573
-0.024127
0.0106672
0.00234402
0.0185481
-0.00147813
0.00257817
-0.00106649
-0.0055456
0.000505407
-0.00518385
0.00194527
0.00582113
0.00362892
0.0124983
0.00510407
0.00640538
0.00620342
-0.00924365
0.00693685
-0.0218577
0.00768911
-0.0207873
0.00843925
-0.0044321
0.00901406
0.0168856
0.00955805
0.0294553
0.0102025
0.0246483
0.0106597
0.00529699
0.0107403
-0.0172651
0.0105285
-0.0340126
0.010462
-0.033253
0.0104886
-0.0241536
0.0105874
0.00224518
0.0183951
-0.000940157
0.00351833
-0.000592244
-0.00589351
0.000854765
-0.00663086
0.00230084
0.00437505
0.00410097
0.0106982
0.00565505
0.0048513
0.00669527
-0.0102839
0.00724182
-0.0224042
0.0077816
-0.0213271
0.0084254
-0.00507589
0.00904437
0.0162667
0.00972399
0.0287757
0.0104933
0.023879
0.0109975
0.00479273
0.0110401
-0.0173077
0.0107245
-0.033697
0.0105436
-0.0330722
0.010488
-0.0240979
0.0105686
0.00216464
0.0182261
8.27156e-05
0.00343562
0.000339078
-0.00614987
0.00161491
-0.00790669
0.00301066
0.0029793
0.00486541
0.00884347
0.00645005
0.00326666
0.00740356
-0.0112374
0.00774854
-0.0227492
0.00805801
-0.0216366
0.00857456
-0.00559244
0.00921801
0.0156232
0.0100123
0.0279814
0.0108862
0.0230051
0.0114249
0.00425405
0.0114242
-0.017307
0.0110015
-0.0332743
0.0106994
-0.03277
0.0105555
-0.023954
0.0106102
0.00210997
0.0180479
0.00151187
0.00192374
0.00174421
-0.00638221
0.00277778
-0.00894027
0.00406139
0.0016957
0.00590417
0.00700069
0.00746998
0.00170084
0.00831212
-0.0120795
0.00844715
-0.0228842
0.00851513
-0.0217046
0.00888628
-0.00596359
0.00953339
0.0149761
0.0104192
0.0270956
0.0113761
0.0220481
0.0119365
0.00369369
0.0118884
-0.0172589
0.0113571
-0.032743
0.0109282
-0.0323411
0.0106905
-0.0237163
0.0107114
0.00208905
0.0178674
0.00347529
-0.00155155
0.00359986
-0.00650677
0.00431753
-0.00965795
0.00544204
0.00057119
0.00719613
0.0052466
0.00869382
0.000203158
0.00939513
-0.0127808
0.00931911
-0.0228082
0.00914526
-0.0215307
0.00935887
-0.00617719
0.00999048
0.0143445
0.0109427
0.0261434
0.0119588
0.0210321
0.0125247
0.00312782
0.0124219
-0.0171561
0.0117863
-0.0321074
0.0112289
-0.0317837
0.0108917
-0.0233791
0.0108731
0.00210769
0.0176933
0.0302455
0.00250125
-0.0342983
0.0286736
-0.00493482
0.0282145
-0.00919886
0.0305741
-0.00178839
0.0352132
0.000607499
0.0392734
-0.00385702
0.0403812
-0.0138886
0.0386294
-0.0210565
0.0364191
-0.0193204
0.0359988
-0.00575685
0.0379
0.0124433
0.0413595
0.0226838
0.0448974
0.0174942
0.0466793
0.00134594
0.0458851
-0.016362
0.0431367
-0.029359
0.0402847
-0.0289317
0.0384544
-0.0215488
0.0381115
0.00245065
0.0173329
0.0775363
0.0181128
-0.0931479
0.067257
0.00534449
0.0597899
-0.00173174
0.0572793
0.000722187
0.0579413
-5.45496e-05
0.059214
-0.00512964
0.0583518
-0.0130265
0.0547904
-0.017495
0.0503657
-0.0148958
0.0479205
-0.0033117
0.0486251
0.0117387
0.0515804
0.0197285
0.0547504
0.0143242
0.056196
-9.97131e-05
0.054868
-0.0150339
0.0511991
-0.0256902
0.0468549
-0.0245875
0.0437365
-0.0184305
0.0426105
0.00357664
0.0174625
0.102025
0.0262015
-0.110114
0.0939557
0.013414
0.0864546
0.00576932
0.0821439
0.00503289
0.0799882
0.00210113
0.0785246
-0.00366604
0.0758181
-0.01032
0.0713206
-0.0129974
0.0660935
-0.0096687
0.0623983
0.000383452
0.0618298
0.0123073
0.063713
0.0178453
0.0659461
0.0120912
0.0666827
-0.000836363
0.0647962
-0.0131474
0.060579
-0.021473
0.0551798
-0.0191883
0.0508694
-0.0141201
0.0487778
0.00566826
0.0182148
0.110189
0.0281999
-0.112188
0.106136
0.0174677
0.101413
0.0104922
0.0981123
0.00833334
0.0955425
0.00467094
0.0928757
-0.00099917
0.0892134
-0.00665775
0.0846238
-0.00840785
0.0798839
-0.00492875
0.0763335
0.00393387
0.0752616
0.0133791
0.0761819
0.016925
0.0772793
0.0109938
0.0770301
-0.000587132
0.0745059
-0.0106233
0.0700743
-0.0170413
0.0642534
-0.0133673
0.059205
-0.0090717
0.0562339
0.00863935
0.0196314
0.111167
0.027602
-0.11057
0.109729
0.0189058
0.107368
0.0128533
0.105534
0.0101674
0.103648
0.00655688
0.101103
0.00154661
0.0975361
-0.00309126
0.0934621
-0.00433383
0.0897564
-0.00122306
0.0872411
0.00644912
0.0865537
0.0140666
0.0870951
0.0163835
0.0873485
0.0107404
0.0862127
0.000548677
0.0830882
-0.00749885
0.0786612
-0.0126143
0.0730181
-0.00772414
0.0678829
-0.00393655
0.0644256
0.0120966
0.0215852
0.110203
0.0262377
-0.108839
0.109947
0.019162
0.108884
0.0139157
0.107992
0.0110599
0.106805
0.00774384
0.104809
0.00354295
0.101861
-0.000143945
0.0985616
-0.00103402
0.0958488
0.00148972
0.0944326
0.00786538
0.0944614
0.0140377
0.0951155
0.0157294
0.0950051
0.0108509
0.0934109
0.0021429
0.0899549
-0.00404285
0.0857046
-0.00836412
0.0806351
-0.00265456
0.076005
0.000693464
0.0726484
0.0154533
0.0237744
0.109012
0.0247601
-0.107535
0.109208
0.0189668
0.108739
0.0143845
0.108277
0.0115215
0.107509
0.00851165
0.106014
0.00503778
0.10374
0.00213083
0.101198
0.00150776
0.0992528
0.00343484
0.0985827
0.00853551
0.0991597
0.0134607
0.100056
0.0148335
0.0999265
0.01098
0.0983005
0.00376896
0.0949108
-0.000653166
0.0910054
-0.00445872
0.0866743
0.0016765
0.0828823
0.00448546
0.0801755
0.0181601
0.0258039
0.107958
0.0233483
-0.106546
0.108321
0.0186039
0.108117
0.0145886
0.107823
0.011815
0.107255
0.00907984
0.106104
0.00618913
0.104374
0.00386012
0.102458
0.00342369
0.101038
0.00485512
0.100755
0.00881904
0.101559
0.0126562
0.102582
0.0138107
0.102551
0.0110112
0.101142
0.00517728
0.0981334
0.00235573
0.0946988
-0.00102416
0.0911423
0.00523304
0.0882063
0.00742149
0.0864469
0.0199195
0.0273207
0.107053
0.022052
-0.105757
0.107482
0.0181747
0.10741
0.014661
0.107189
0.0120364
0.106718
0.00955075
0.105795
0.00711147
0.104459
0.00519673
0.103012
0.00487089
0.101946
0.00592047
0.101821
0.00894409
0.102603
0.0118749
0.103587
0.0128262
0.103634
0.0109643
0.102506
0.00630492
0.100027
0.00483535
0.0971179
0.00188458
0.0943003
0.00805064
0.0920421
0.00967975
0.0912146
0.020747
0.0281301
0.106261
0.0208907
-0.1051
0.106713
0.0177223
0.106718
0.0146569
0.106542
0.0122114
0.106136
0.00995705
0.10538
0.00786719