/*--------------------------------*- C++ -*----------------------------------*\
| =========                 |                                                 |
| \\      /  F ield         | OpenFOAM: The Open Source CFD Toolbox           |
|  \\    /   O peration     | Version:  v1806                                 |
|   \\  /    A nd           | Web:      www.OpenFOAM.com                      |
|    \\/     M anipulation  |                                                 |
\*---------------------------------------------------------------------------*/
FoamFile
{
    version     2.0;
    format      ascii;
    class       surfaceScalarField;
    location    "9";
    object      phi;
}
// * * * * * * * * * * * * * * * * * * * * * * * * * * * * * * * * * * * * * //

dimensions      [0 3 -1 0 0 0 0];
oriented        oriented;


internalField   nonuniform List<scalar> 
4680
(
0.750006
-0.00252443
0.750003
-0.00795755
0.749994
-0.0132812
0.749991
-0.0185133
0.750017
-0.023451
0.750028
-0.0294771
0.750024
-0.0345385
0.750063
-0.0401429
0.750093
-0.045297
0.750156
-0.051219
0.750221
-0.0556011
0.750377
-0.0613507
0.750474
-0.0666424
0.750657
-0.0719844
0.750842
-0.0755796
0.751133
-0.0802874
0.751419
-0.0844832
0.752339
-0.0889529
0.75392
-0.092285
-0.0951084
0.755732
0.750009
-0.00253374
0.750014
-0.00796251
0.749993
-0.0132599
0.749987
-0.0185077
0.750023
-0.0234868
0.750065
-0.0295195
0.75006
-0.0345329
0.750155
-0.0402384
0.750229
-0.0453711
0.750404
-0.0513932
0.750561
-0.0557589
0.750932
-0.0617218
0.751205
-0.0669151
0.751683
-0.0724619
0.752188
-0.0760846
0.753038
-0.0811379
0.753707
-0.085152
0.754046
-0.0892921
0.753723
-0.0919612
-0.0952629
0.753877
0.750012
-0.00254537
0.750016
-0.00796645
0.749986
-0.0132305
0.749973
-0.0184948
0.750015
-0.0235289
0.750066
-0.0295706
0.750068
-0.0345341
0.750201
-0.0403715
0.750319
-0.0454891
0.750574
-0.0516483
0.750825
-0.0560102
0.751356
-0.0622522
0.751783
-0.0673421
0.752491
-0.0731706
0.753196
-0.0767891
0.754301
-0.0822434
0.755493
-0.0863437
0.75778
-0.0915794
0.760704
-0.0948846
-0.0984133
0.763854
0.750017
-0.002562
0.750011
-0.00796077
0.74997
-0.0131897
0.749937
-0.018462
0.749983
-0.0235747
0.750023
-0.0296105
0.750023
-0.0345346
0.750179
-0.0405273
0.750329
-0.0456391
0.750636
-0.051955
0.750967
-0.0563409
0.751639
-0.0629249
0.752202
-0.0679045
0.753149
-0.0741178
0.754165
-0.0778047
0.755767
-0.0838458
0.757142
-0.087719
0.758341
-0.0927785
0.758822
-0.0953652
-0.0996819
0.76009
0.750019
-0.00258079
0.749998
-0.00794009
0.749938
-0.0131295
0.749882
-0.0184065
0.749909
-0.0236009
0.749923
-0.0296247
0.749911
-0.0345229
0.750071
-0.0406874
0.75022
-0.0457881
0.750556
-0.0522909
0.750939
-0.0567236
0.751734
-0.0637202
0.752419
-0.0685899
0.753572
-0.0752702
0.754732
-0.0789652
0.75651
-0.0856239
0.758329
-0.0895379
0.7616
-0.096049
0.765477
-0.0992421
-0.104143
0.769937
0.750023
-0.00260409
0.749977
-0.00789414
0.749885
-0.0130369
0.749798
-0.0183195
0.749791
-0.0235945
0.74975
-0.0295837
0.749706
-0.034478
0.749846
-0.040828
0.749962
-0.0459036
0.750295
-0.0526247
0.7507
-0.0571285
0.751578
-0.0645973
0.752325
-0.0693369
0.75368
-0.0766255
0.755126
-0.0804109
0.757401
-0.087899
0.759364
-0.0915008
0.761416
-0.0981013
0.762755
-0.100581
-0.106595
0.765207
0.75003
-0.00263375
0.749936
-0.00780062
0.749807
-0.0129078
0.749678
-0.0181903
0.749623
-0.0235391
0.749492
-0.0294533
0.749396
-0.0343822
0.74947
-0.0409017
0.749522
-0.0459554
0.749818
-0.0529214
0.750201
-0.0575108
0.751111
-0.0655075
0.751852
-0.0700777
0.753375
-0.0781484
0.754864
-0.0818999
0.757466
-0.0905012
0.759965
-0.0940004
0.764075
-0.102211
0.768264
-0.10477
-0.111628
0.773298
0.750045
-0.00267834
0.749847
-0.00760298
0.749723
-0.012784
0.749499
-0.0179664
0.749416
-0.0234556
0.749115
-0.0291525
0.749001
-0.0342688
0.748879
-0.0407791
0.748899
-0.0459753
0.74902
-0.0530431
0.749426
-0.0579164
0.750182
-0.0662631
0.751009
-0.0709047
0.752551
-0.0796906
0.754247
-0.0835958
0.756965
-0.0932195
0.75972
-0.0967556
0.764213
-0.106704
0.768749
-0.109306
-0.117047
0.774168
0.750021
-0.00269984
0.749749
-0.0073303
0.749582
-0.0126176
0.749275
-0.0176593
0.749098
-0.0232779
0.748639
-0.0286936
0.748429
-0.0340591
0.748071
-0.0404213
0.747975
-0.045879
0.747885
-0.0529535
0.748229
-0.05826
0.748761
-0.0667952
0.749609
-0.0717523
0.751115
-0.0811966
0.753016
-0.0854969
0.755905
-0.0961083
0.75864
-0.0994913
0.76187
-0.109933
0.764427
-0.111863
-0.122023
0.769403
0.749925
-0.00262461
0.74963
-0.00703586
0.749364
-0.0123513
0.749015
-0.0173106
0.748655
-0.0229178
0.748054
-0.0280918
0.747625
-0.0336305
0.747017
-0.0398131
0.746706
-0.0455681
0.746338
-0.052586
0.746524
-0.0584462
0.746756
-0.0670264
0.747524
-0.0725208
0.748857
-0.0825294
0.750687
-0.0873266
0.75364
-0.0990613
0.756932
-0.102784
0.7623
-0.115301
0.768048
-0.117611
-0.129453
0.775478
0.749689
-0.00231314
0.749528
-0.00687514
0.749062
-0.0118859
0.748774
-0.0170225
0.748053
-0.0221967
0.747344
-0.027383
0.746517
-0.0328033
0.745702
-0.0389974
0.74503
-0.0448962
0.744333
-0.0518896
0.744224
-0.0583368
0.743974
-0.0667767
0.744749
-0.0732958
0.745575
-0.0833552
0.747674
-0.0894261
0.750288
-0.101675
0.754045
-0.106542
0.759548
-0.120804
0.765973
-0.124036
-0.136897
0.773417
0.749172
-0.0014853
0.749614
-0.00731745
0.748474
-0.0107457
0.74865
-0.0171983
0.746986
-0.0205329
0.74673
-0.0271271
0.744861
-0.0309337
0.744412
-0.0385484
0.742659
-0.0431429
0.742125
-0.0513564
0.740966
-0.0571775
0.74062
-0.0664304
0.740773
-0.0734485
0.741314
-0.0838964
0.74343
-0.0915425
0.745705
-0.103949
0.749912
-0.110748
0.753795
-0.124687
0.758791
-0.129032
-0.143436
0.76533
0.748424
9.04275e-05
0.749814
-0.00870706
0.747547
-0.00847884
0.748609
-0.01826
0.745475
-0.0173994
0.746306
-0.0279575
0.742682
-0.0273099
0.74343
-0.0392968
0.739533
-0.0392454
0.740209
-0.0520325
0.736638
-0.0536064
0.737404
-0.0671963
0.735184
-0.0712288
0.736438
-0.0851502
0.736986
-0.0920907
0.739575
-0.106539
0.744161
-0.115334
0.749742
-0.130268
0.758857
-0.138148
-0.152659
0.768081
0.747714
0.00237611
0.75
-0.010993
0.746592
-0.00507041
0.748538
-0.0202057
0.743913
-0.012775
0.745852
-0.0298959
0.740235
-0.0216929
0.742302
-0.0413646
0.735777
-0.0327202
0.73808
-0.054335
0.731224
-0.0467504
0.733973
-0.0699451
0.727845
-0.0651016
0.731552
-0.0888571
0.727973
-0.0885116
0.733083
-0.111649
0.734895
-0.117146
0.741763
-0.137135
0.75188
-0.148265
-0.162417
0.761638
0.747337
0.00503891
0.750075
-0.0137305
0.745933
-0.000928826
0.748265
-0.0225377
0.742614
-0.00712442
0.745037
-0.0323187
0.737914
-0.0145701
0.740628
-0.0440786
0.731896
-0.0239882
0.735205
-0.0576439
0.725139
-0.0366837
0.729514
-0.0743209
0.718902
-0.0544891
0.72504
-0.0949949
0.71584
-0.0793123
0.724872
-0.120681
0.720608
-0.112882
0.732285
-0.148812
0.737007
-0.152987
-0.173476
0.748066
0.747445
0.00759425
0.749939
-0.0162249
0.74575
0.0032605
0.747594
-0.0243815
0.74174
-0.00127101
0.74356
-0.0341382
0.735993
-0.00700343
0.737966
-0.046052
0.728309
-0.0143303
0.730907
-0.0602423
0.718977
-0.0247535
0.723008
-0.0783526
0.70904
-0.0405212
0.715784
-0.101738
0.701067
-0.0645953
0.713068
-0.132682
0.701123
-0.100938
0.721297
-0.168985
0.720306
-0.151996
-0.192721
0.739551
0.748173
0.00942097
0.749651
-0.0177024
0.746109
0.00680213
0.746541
-0.0248131
0.74149
0.00377942
0.741573
-0.0342212
0.734706
-0.000135782
0.734516
-0.0458624
0.725338
-0.00515213
0.725305
-0.0602098
0.713316
-0.0127643
0.71423
-0.0792661
0.699201
-0.0254926
0.702859
-0.105396
0.685063
-0.0467995
0.695832
-0.14345
0.677328
-0.0824339
0.703677
-0.195335
0.696992
-0.145311
-0.23145
0.735721
0.749627
0.00979407
0.748506
-0.0165811
0.747204
0.00810401
0.745026
-0.0226356
0.742743
0.00606304
0.739185
-0.0306634
0.735565
0.00348459
0.730478
-0.0407759
0.724949
0.000376613
0.71859
-0.053851
0.710304
-0.00447819
0.70359
-0.0725522
0.691509
-0.013411
0.686812
-0.100699
0.669864
-0.0298518
0.672539
-0.146125
0.651354
-0.0612492
0.677115
-0.221095
0.656415
-0.124611
-0.322274
0.747239
0.750292
0.00950243
0.748471
-0.0147602
0.747579
0.00899597
0.744854
-0.0199113
0.743003
0.00791484
0.738778
-0.0264387
0.735395
0.00686782
0.729362
-0.0347435
0.724097
0.00564189
0.715989
-0.0457427
0.708082
0.00342858
0.697491
-0.0619611
0.685585
-0.00150467
0.673429
-0.0885437
0.657294
-0.013717
0.6496
-0.138431
0.631895
-0.0435442
0.649223
-0.238423
0.626603
-0.101991
-0.415243
0.719572
0.751607
0.00789582
0.748593
-0.0117462
0.749774
0.00781494
0.7456
-0.0157377
0.745953
0.0075616
0.740115
-0.0206001
0.739543
0.0074394
0.731518
-0.0267181
0.72999
0.00717007
0.718979
-0.0347324
0.71646
0.00594787
0.701205
-0.0467058
0.697969
0.00173082
0.676213
-0.066787
0.674234
-0.0117378
0.643259
-0.107457
0.653771
-0.0540568
0.624611
-0.209263
0.724758
-0.202138
0.902534
-0.593019
0.754516
-0.0375892
0.753942
-0.0382287
0.75377
-0.0386594
0.754014
-0.0391513
0.754419
-0.039409
0.754816
-0.0396279
0.755165
-0.0396547
0.755529
-0.0398146
0.755901
-0.039735
-0.0398583
0.756294
0.756049
-0.0397615
0.757684
-0.0398631
0.758911
-0.0398869
0.759749
-0.0399892
0.760315
-0.0399747
0.760951
-0.040264
0.761619
-0.0403227
0.762375
-0.0405708
0.76311
-0.0404699
-0.0406685
0.76392
0.762926
-0.0388335
0.762674
-0.0396109
0.762837
-0.0400499
0.763556
-0.0407087
0.764567
-0.040985
0.76565
-0.0413474
0.766637
-0.041309
0.767673
-0.0416074
0.768651
-0.0414482
-0.041735
0.769718
0.762844
-0.0415871
0.765065
-0.0418323
0.766828
-0.0418128
0.768219
-0.0420995
0.769265
-0.0420313
0.77044
-0.0425215
0.771619
-0.0424888
0.772958
-0.0429461
0.774224
-0.042714
-0.0431311
0.77562
0.769393
-0.0410424
0.769633
-0.0420723
0.770301
-0.0424813
0.771604
-0.0434021
0.773163
-0.0435902
0.774845
-0.0442042
0.776369
-0.044012
0.778017
-0.0445949
0.779559
-0.0442558
-0.0448643
0.781292
0.768491
-0.0443267
0.771334
-0.0449148
0.77371
-0.0448576
0.775733
-0.0454247
0.777319
-0.0451767
0.779096
-0.045981
0.780813
-0.0457285
0.782791
-0.0465731
0.784612
-0.0460769
-0.0469831
0.786731
0.773775
-0.0448041
0.775116
-0.0462554
0.776537
-0.0462786
0.778454
-0.0473418
0.780445
-0.047168
0.78272
-0.0482559
0.784816
-0.0478249
0.787189
-0.0489455
0.789347
-0.0482349
-0.0494184
0.791782
0.775638
-0.0462747
0.777246
-0.0478633
0.778949
-0.0479817
0.781193
-0.0495855
0.783479
-0.0494537
0.786093
-0.0508704
0.78847
-0.0502014
0.791195
-0.0516707
0.793643
-0.0506836
-0.0522672
0.796492
0.773476
-0.0503479
0.777224
-0.0516116
0.780475
-0.0512326
0.783511
-0.0526214
0.785954
-0.051897
0.788747
-0.0536631
0.791331
-0.0527859
0.794398
-0.0547375
0.797118
-0.0534034
-0.0556101
0.800461
0.77661
-0.0514798
0.778824
-0.0538257
0.78111
-0.0535186
0.784049
-0.0555605
0.786986
-0.0548343
0.790358
-0.0570352
0.7934
-0.0558273
0.796924
-0.0582616
0.800045
-0.0565248
-0.0592951
0.80373
0.775796
-0.0538587
0.778344
-0.0563739
0.781016
-0.0561906
0.784345
-0.0588891
0.78765
-0.058139
0.791368
-0.0607534
0.794785
-0.0592441
0.798681
-0.0621583
0.802173
-0.0600161
-0.0633612
0.806239
0.770669
-0.0591975
0.775412
-0.0611167
0.779789
-0.0605675
0.783749
-0.0628492
0.787361
-0.0617511
0.79118
-0.0645722
0.794922
-0.0629869
0.799045
-0.0662812
0.802935
-0.0639063
-0.0677266
0.807301
0.770449
-0.0615653
0.773666
-0.0643345
0.777364
-0.064265
0.781208
-0.0666931
0.785422
-0.0659657
0.78952
-0.0686699
0.793764
-0.0672304
0.797963
-0.0704805
0.802357
-0.0683005
-0.0720802
0.806711
0.765802
-0.0657295
0.769789
-0.0683209
0.774321
-0.0687972
0.778599
-0.0709708
0.783174
-0.0705415
0.787199
-0.0726943
0.791638
-0.0716699
0.795574
-0.0744164
0.800144
-0.0728698
-0.0764388
0.804502
0.756093
-0.0737572
0.763112
-0.0753396
0.769649
-0.0753343
0.774944
-0.076266
0.779501
-0.0750982
0.783435
-0.0766282
0.787814
-0.0760486
0.791602
-0.0782053
0.795981
-0.0772484
-0.0805904
0.800133
0.748372
-0.0825786
0.756081
-0.0830488
0.762113
-0.0813666
0.76731
-0.0814624
0.772368
-0.080156
0.777118
-0.0813789
0.781675
-0.0806055
0.785945
-0.0824745
0.790377
-0.0816808
-0.0831267
0.792913
0.743126
-0.0899835
0.749153
-0.0890753
0.753659
-0.0858723
0.758072
-0.0858758
0.762126
-0.0842097
0.76625
-0.0855034
0.769552
-0.0839073
0.772768
-0.0856904
0.774881
-0.0837944
-0.0869197
0.778674
0.766735
-0.109479
0.772713
-0.0950534
0.774035
-0.0871947
0.773184
-0.0850247
0.771261
-0.0822868
0.767871
-0.0821129
0.763421
-0.0794573
0.758478
-0.080748
0.752684
-0.078
-0.0798137
0.745578
0.727404
-0.117312
0.728283
-0.0959322
0.725457
-0.0843684
0.718154
-0.0777222
0.708027
-0.0721595
0.693507
-0.0675926
0.677854
-0.0638041
0.659151
-0.0620455
0.640498
-0.0593473
-0.0588697
0.619554
0.785222
0.68929
0.604922
0.5272
0.45504
0.387448
0.323643
0.261598
0.202251
0.143381
0.760571
-0.375747
0.763928
-0.361912
0.767641
-0.260252
0.774445
-0.144482
0.773549
-0.101367
0.765127
-0.0493759
0.767674
-0.111136
0.769727
-0.291724
0.756924
-0.429061
0.745676
-0.627023
0.730087
-0.963747
0.67613
-1.24296
0.574525
-1.35361
0.449356
-1.36264
0.329423
-1.32623
0.230322
-1.23292
0.154736
-1.07361
0.100825
-0.858612
0.0624623
-0.626182
-0.275308
0.770431
-0.382258
0.77905
-0.37053
0.784853
-0.266055
0.789375
-0.149004
0.783017
-0.0950082
0.770658
-0.0370167
0.770615
-0.111093
0.763304
-0.284413
0.743015
-0.408772
0.731405
-0.615414
0.710122
-0.942464
0.646552
-1.17939
0.546186
-1.25324
0.436403
-1.25286
0.335683
-1.22551
0.25065
-1.14789
0.182726
-1.00569
0.131702
-0.807587
0.094085
-0.588565
-0.258052
0.776966
-0.389506
0.789022
-0.382587
0.79718
-0.274213
0.798614
-0.150438
0.787244
-0.0836381
0.771814
-0.0215864
0.766919
-0.106199
0.753931
-0.271425
0.735394
-0.390234
0.728198
-0.608218
0.707541
-0.921807
0.645016
-1.11686
0.54627
-1.15449
0.43556
-1.14215
0.332751
-1.1227
0.247421
-1.06256
0.181839
-0.940104
0.134848
-0.760596
0.105962
-0.559679
-0.247101
0.784291
-0.398178
0.799863
-0.398159
0.811054
-0.285403
0.810964
-0.150349
0.794184
-0.0668579
0.773954
-0.00135681
0.765479
-0.0977235
0.74822
-0.254166
0.728773
-0.370787
0.72103
-0.600475
0.690869
-0.891645
0.615138
-1.04113
0.515671
-1.05503
0.42064
-1.04712
0.337688
-1.03975
0.265632
-0.9905
0.205109
-0.879581
0.157257
-0.712743
0.125735
-0.528157
-0.235237
0.790868
-0.407754
0.810424
-0.417714
0.82618
-0.301159
0.823442
-0.147611
0.799631
-0.0430464
0.775949
0.022325
0.763245
-0.0850194
0.739637
-0.230558
0.72092
-0.35207
0.714936
-0.594491
0.683338
-0.860047
0.610221
-0.968014
0.514723
-0.959529
0.418503
-0.950902
0.332445
-0.95369
0.260874
-0.918929
0.205157
-0.823865
0.164261
-0.671847
0.138726
-0.502623
-0.225896
0.796819
-0.417842
0.821433
-0.442328
0.842547
-0.322273
0.83629
-0.141355
0.805987
-0.0127432
0.778431
0.0498816
0.759437
-0.0660261
0.731899
-0.20302
0.716999
-0.33717
0.710514
-0.588006
0.666335
-0.815868
0.578623
-0.880303
0.48364
-0.864545
0.404379
-0.871641
0.337395
-0.886706
0.276633
-0.858166
0.223011
-0.770243
0.18003
-0.628867
0.153105
-0.475698
-0.216589
0.801958
-0.428018
0.832798
-0.473167
0.860753
-0.350228
0.850705
-0.131307
0.812304
0.0256578
0.779538
0.0826473
0.755203
-0.0416914
0.725365
-0.173182
0.712438
-0.324242
0.701184
-0.576752
0.651318
-0.766002
0.567797
-0.796781
0.478856
-0.775605
0.399083
-0.791868
0.330129
-0.817751
0.272
-0.800038
0.225163
-0.723405
0.188573
-0.592277
0.164813
-0.451937
-0.208158
0.806082
-0.437607
0.845066
-0.512151
0.881941
-0.387104
0.86587
-0.115235
0.818179
0.0733488
0.781052
0.119774
0.750171
-0.0108103
0.718476
-0.141487
0.709852
-0.315618
0.694422
-0.561323
0.629213
-0.700793
0.533214
-0.700782
0.449595
-0.691986
0.38812
-0.730393
0.335765
-0.765396
0.284779
-0.749052
0.238088
-0.676714
0.200367
-0.554557
0.17629
-0.42786
-0.199743
0.809179
-0.446326
0.859509
-0.562482
0.90649
-0.434084
0.883018
-0.0917638
0.825669
0.130698
0.781557
0.163886
0.744099
0.0266474
0.715072
-0.11246
0.707121
-0.307667
0.67867
-0.532873
0.60465
-0.626773
0.514473
-0.610604
0.438229
-0.615743
0.378442
-0.670606
0.327351
-0.714305
0.281759
-0.70346
0.241971
-0.636926
0.208819
-0.521405
0.186339
-0.40538
-0.191549
0.812502
-0.455098
0.878616
-0.628595
0.936857
-0.492325
0.902914
-0.057821
0.833212
0.2004
0.782391
0.214708
0.739449
0.0695896
0.710975
-0.0839865
0.702375
-0.299067
0.662856
-0.493353
0.572533
-0.53645
0.476779
-0.51485
0.413069
-0.552034
0.371917
-0.629454
0.33335
-0.675737
0.291447
-0.661557
0.251459
-0.596938
0.218278
-0.488224
0.19585
-0.382953
-0.183215
0.819045
-0.467904
0.9052
-0.71475
0.971441
-0.558566
0.924742
-0.0111221
0.842919
0.282222
0.782295
0.275332
0.733782
0.118102
0.710487
-0.0606913
0.694358
-0.282938
0.633219
-0.432214
0.536649
-0.439881
0.453012
-0.431213
0.399744
-0.498766
0.362319
-0.592029
0.327153
-0.640572
0.291096
-0.6255
0.256318
-0.562159
0.226043
-0.457948
0.204421
-0.361331
-0.174784
0.832477
-0.493081
0.937795
-0.820067
1.00467
-0.625438
0.944074
0.0494706
0.850362
0.375935
0.781958
0.343736
0.729339
0.170722
0.705223
-0.0365757
0.678874
-0.256589
0.599789
-0.353129
0.492358
-0.33245
0.41667
-0.355525
0.382422
-0.464517
0.360863
-0.57047
0.333089
-0.612798
0.298538
-0.590949
0.263809
-0.527431
0.233977
-0.428116
0.212438
-0.339793
-0.166083
0.854826
-0.541196
0.966576
-0.931817
1.02007
-0.678935
0.950729
0.118814
0.851471
0.475194
0.775026
0.420181
0.722288
0.22346
0.698046
-0.0123344
0.649896
-0.208439
0.550218
-0.25345
0.449531
-0.231763
0.393786
-0.29978
0.371856
-0.442587
0.35491
-0.553523
0.330843
-0.588731
0.300616
-0.560721
0.26906
-0.495875
0.240943
-0.399999
0.21976
-0.318609
-0.157112
0.879115
-0.615809
0.968356
-1.02106
0.996195
-0.706774
0.928029
0.186979
0.833566
0.569656
0.753409
0.500339
0.701312
0.275557
0.673559
0.0154186
0.605664
-0.140544
0.49076
-0.138547
0.401768
-0.14277
0.372201
-0.270214
0.369032
-0.439418
0.36003
-0.544522
0.337691
-0.566392
0.307157
-0.530188
0.275502
-0.46422
0.247773
-0.372271
0.226559
-0.297395
-0.147793
0.886056
-0.701732
0.91595
-1.05095
0.908061
-0.698884
0.857185
0.237855
0.789412
0.637429
0.72146
0.568291
0.671296
0.32572
0.626716
0.059999
0.534323
-0.0481518
0.423354
-0.0275774
0.366156
-0.085572
0.363141
-0.267199
0.368851
-0.445128
0.360996
-0.536666
0.339799
-0.545194
0.311078
-0.501467
0.280837
-0.433979
0.253966
-0.345399
0.232786
-0.276216
-0.138129
0.848831
-0.75765
0.78824
-0.990361
0.751124
-0.661768
0.730009
0.258969
0.689095
0.678343
0.643614
0.613773
0.606724
0.36261
0.547504
0.11922
0.438088
0.0612641
0.353844
0.056666
0.34485
-0.0765777
0.369163
-0.291512
0.3813
-0.457266
0.371923
-0.527289
0.347888
-0.52116
0.317413
-0.470992
0.28665
-0.403216
0.259895
-0.318644
0.238535
-0.254856
-0.128082
0.748686
-0.727661
0.588861
-0.830537
0.528362
-0.601269
0.554458
0.232874
0.559919
0.672882
0.540742
0.632949
0.515048
0.388304
0.435783
0.198485
0.335368
0.161679
0.30892
0.0831142
0.347755
-0.115413
0.385476
-0.329233
0.394381
-0.466171
0.380041
-0.512948
0.353517
-0.494636
0.322505
-0.43998
0.291849
-0.37256
0.265333
-0.292127
0.243791
-0.233314
-0.117656
0.568476
-0.550559
0.337645
-0.599706
0.29254
-0.556164
0.346899
0.178514
0.377734
0.642047
0.409474
0.601209
0.392211
0.405567
0.305819
0.284877
0.263122
0.204376
0.308013
0.0382225
0.37657
-0.183969
0.415021
-0.367684
0.416254
-0.467403
0.394163
-0.490858
0.362324
-0.462796
0.328703
-0.40636
0.297121
-0.340977
0.270437
-0.265444
0.248598
-0.211474
-0.106839
0.335496
-0.2665
0.089456
-0.353666
0.0485845
-0.515293
0.116732
0.110367
0.189038
0.569742
0.243851
0.546396
0.218505
0.430913
0.194316
0.309066
0.247738
0.150954
0.3424
-0.0564399
0.415639
-0.257208
0.443146
-0.395191
0.433406
-0.457663
0.404337
-0.461789
0.369046
-0.427505
0.334014
-0.371327
0.301907
-0.30887
0.275093
-0.23863
0.252949
-0.18933
-0.0956381
-0.0489726
-0.0741468
-0.175462
-0.227176
-0.220132
-0.470623
-0.126814
0.0170493
-0.0274525
0.47038
0.0434443
0.475499
0.0867733
0.387584
0.170641
0.225198
0.291596
0.0299993
0.397524
-0.162368
0.456659
-0.316343
0.468314
-0.406846
0.448406
-0.437755
0.413889
-0.427272
0.375708
-0.389324
0.339197
-0.334816
0.306385
-0.276059
0.279349
-0.211594
0.256839
-0.166819
-0.0840624
-0.0390385
-0.0351083
-0.118661
-0.147553
-0.151843
-0.437442
-0.112808
-0.0219857
-0.0657225
0.423295
-0.0209676
0.430744
0.0252937
0.341322
0.0823201
0.168172
0.137316
-0.0249964
0.175165
-0.200217
0.191574
-0.332753
0.191003
-0.406275
0.180768
-0.427521
0.166522
-0.413026
0.151334
-0.374136
0.136783
-0.320265
0.123603
-0.262879
0.112792
-0.200784
0.103654
-0.157681
-0.0793278
-0.0510046
0.0158962
-0.137812
-0.0607459
-0.181912
-0.393342
-0.146735
-0.057163
-0.0933787
0.369939
-0.0352776
0.372643
0.0292437
0.276801
0.0954184
0.101997
0.150258
-0.0798363
0.184043
-0.234002
0.196277
-0.344987
0.193013
-0.403011
0.181651
-0.416158
0.167175
-0.39855
0.152003
-0.358964
0.137448
-0.30571
0.124229
-0.249661
0.113376
-0.189931
0.104179
-0.148483
-0.0745368
-0.0594209
0.0753172
-0.150776
0.0306096
-0.20712
-0.336999
-0.177747
-0.0865355
-0.112471
0.304663
-0.0368267
0.296999
0.0417104
0.198264
0.111436
0.032272
0.163488
-0.131888
0.192647
-0.263161
0.200596
-0.352935
0.194566
-0.396981
0.182126
-0.403718
0.167569
-0.383994
0.152548
-0.343943
0.138059
-0.291221
0.124824
-0.236426
0.113934
-0.179041
0.104681
-0.139229
-0.0696944
-0.0613449
0.136662
-0.153881
0.123145
-0.221592
-0.269287
-0.199015
-0.109113
-0.117046
0.222694
-0.0246252
0.204578
0.059528
0.114111
0.128489
-0.0366893
0.176412
-0.179811
0.200749
-0.287498
0.204496
-0.356682
0.195818
-0.388303
0.182393
-0.390294
0.167833
-0.369434
0.153023
-0.329132
0.138633
-0.276832
0.125393
-0.223185
0.114466
-0.168115
0.105156
-0.129919
-0.0648018
-0.056623
0.193285
-0.146166
0.212688
-0.219932
-0.195521
-0.198302
-0.130742
-0.104095
0.128488
-0.0051666
0.105649
0.079953
0.0289912
0.145525
-0.102261
0.188697
-0.222983
0.208267
-0.307068
0.208013
-0.356428
0.196816
-0.377105
0.182475
-0.375953
0.167976
-0.354935
0.153432
-0.314588
0.139173
-0.262573
0.125936
-0.209947
0.114972
-0.157151
0.105604
-0.120551
-0.0598605
-0.045404
0.238689
-0.127922
0.295206
-0.201421
-0.122022
-0.174044
-0.15812
-0.0759797
0.0304237
0.0179618
0.0117073
0.10137
-0.0544172
0.162145
-0.163036
0.200207
-0.261045
0.215149
-0.32201
0.21117
-0.35245
0.197633
-0.363567
0.182444
-0.360765
0.168039
-0.34053
0.153792
-0.300341
0.139683
-0.248464
0.126454
-0.196718
0.115453
-0.14615
0.106025
-0.111123
-0.0548717
-0.0278303
0.266519
-0.100697
0.368073
-0.168928
-0.0537912
-0.138085
-0.188963
-0.041763
-0.0658982
0.0446908
-0.0747466
0.123244
-0.13297
0.178259
-0.218051
0.210899
-0.293686
0.22138
-0.332491
0.214014
-0.345084
0.198358
-0.347912
0.182382
-0.344788
0.168069
-0.326218
0.154123
-0.286394
0.14017
-0.234512
0.126951
-0.183499
0.115909
-0.135108
0.10642
-0.101634
-0.0498366
-0.00549235
0.272012
-0.067323
0.429903
-0.126193
0.00507872
-0.0978186
-0.217337
-0.00780324
-0.155913
0.0738561
-0.156406
0.145279
-0.204393
0.193747
-0.266519
0.220719
-0.320657
0.226947
-0.338719
0.216586
-0.334723
0.199083
-0.330409
0.182375
-0.32808
0.168119
-0.311962
0.154444
-0.272719
0.14064
-0.220708
0.127428
-0.170287
0.116341
-0.124021
0.106789
-0.0920825
-0.0447563
0.0206153
0.251396
-0.0317077
0.482226
-0.0776372
0.0510083
-0.0532929
-0.241682
0.0270121
-0.236218
0.103401
-0.232795
0.166905
-0.267898
0.20838
-0.307993
0.229592
-0.341869
0.231842
-0.340968
0.218936
-0.321817
0.199905
-0.311377
0.182524
-0.310699
0.168249
-0.297687
0.154783
-0.259254
0.141101
-0.207026
0.127886
-0.157071
0.11675
-0.112886
0.107133
-0.0824649
-0.039632
0.0588502
0.192546
0.0107462
0.53033
-0.0267837
0.0885382
-0.00461833
-0.263847
0.0635155
-0.304352
0.132547
-0.301826
0.187806
-0.323157
0.222201
-0.342389
0.237609
-0.357277
0.236019
-0.339379
0.221056
-0.306854
0.200865
-0.291185
0.182915
-0.292749
0.168569
-0.283341
0.155222
-0.245907
0.141602
-0.193406
0.128364
-0.143834
0.117148
-0.101669
0.107473
-0.0727899
-0.0344559
0.3489
0.4633
-0.619654
0.275384
0.603847
0.26761
0.0963123
0.330032
-0.326269
0.485348
-0.459669
0.648659
-0.465137
0.770704
-0.445202
0.83477
-0.406455
0.846621
-0.369127
0.817281
-0.310039
0.755828
-0.245401
0.682476
-0.217834
0.618506
-0.228779
0.568637
-0.233471
0.523668
-0.200938
0.478054
-0.147792
0.433381
-0.0991611
0.395162
-0.0634495
0.362358
-0.0399859
-0.0167091
0.961227
0.55226
-1.05019
0.886357
0.678717
0.855833
0.126836
0.850539
-0.320975
0.884494
-0.493623
0.9212
-0.501843
0.93843
-0.462433
0.926894
-0.394918
0.88589
-0.328124
0.834445
-0.258594
0.778205
-0.18916
0.713995
-0.153624
0.647253
-0.162037
0.586911
-0.173129
0.533801
-0.147828
0.484249
-0.0982397
0.437574
-0.0524867
0.398157
-0.0240326
0.364502
-0.00633049
0.00143979
1.1558
0.528185
-1.13173
1.17972
0.654793
1.14894
0.157621
1.10357
-0.275602
1.0671
-0.457153
1.02802
-0.462772
0.985063
-0.419471
0.945165
-0.35502
0.895751
-0.27871
0.851838
-0.214681
0.828619
-0.165941
0.799435
-0.124441
0.734312
-0.0969145
0.646007
-0.0848241
0.562896
-0.0647162
0.495999
-0.0313427
0.442245
0.00126671
0.400291
0.0179214
0.365573
0.0283874
0.019928
1.19133
0.457608
-1.12075
1.28056
0.565561
1.27418
0.164003
1.21421
-0.215631
1.14136
-0.384301
1.08102
-0.402436
1.02816
-0.366608
0.989538
-0.3164
0.953446
-0.242618
0.905546
-0.166781
0.867171
-0.127566
0.847247
-0.104517
0.806446
-0.056113
0.719312
0.00230963
0.611571
0.0430248
0.518937
0.0612914
0.450652
0.0695516
0.402577
0.065996
0.365779
0.0651855
0.0388552
1.18304
0.412785
-1.13822
1.27063
0.477969
1.27049
0.164142
1.21642
-0.161565
1.14028
-0.308157
1.07419
-0.336344
1.01956
-0.311984
0.965579
-0.262416
0.919467
-0.196506
0.87718
-0.124494
0.819584
-0.0699694
0.751932
-0.0368649
0.688964
0.00685491
0.628719
0.0625544
0.565353
0.106391
0.502257
0.124387
0.445793
0.126015
0.400658
0.111132
0.364161
0.101682
0.0576737
1.16641
0.370897
-1.12452
1.24254
0.401833
1.24439
0.162295
1.19827
-0.115448
1.1402
-0.250087
1.0833
-0.279436
1.03776
-0.26645
0.996813
-0.221467
0.949385
-0.149078
0.907968
-0.0830764
0.85956
-0.0215614
0.779952
0.0427425
0.688993
0.097814
0.612716
0.138831
0.551181
0.167927
0.494903
0.180665
0.442162
0.178757
0.397821
0.155472
0.361318
0.138185
0.0763128
1.15347
0.337628
-1.1202
1.21397
0.341326
1.22265
0.153617
1.17955
-0.0723428
1.12115
-0.191694
1.07354
-0.231826
1.02992
-0.222832
0.989447
-0.180989
0.937254
-0.096885
0.878796
-0.0246184
0.842053
0.015181
0.813459
0.0713369
0.758716
0.152557
0.676714
0.220833
0.588256
0.256385
0.50902
0.2599
0.444496
0.243281
0.395387
0.204582
0.357487
0.176085
0.094922
1.13651
0.312227
-1.1111
1.1812
0.296632
1.19853
0.136287
1.16579
-0.0396026
1.11104
-0.136945
1.07202
-0.192804
1.0258
-0.176614
0.973774
-0.128962
0.941821
-0.0649313
0.908871
0.00833128
0.858902
0.0651497
0.801215
0.129024
0.733244
0.220528
0.652131
0.301946
0.57063
0.337886
0.498676
0.331855
0.437828
0.304129
0.389518
0.252891
0.351812
0.213791
0.113109
1.12641
0.287146
-1.10132
1.15944
0.263601
1.16787
0.127855
1.1529
-0.0246334
1.11164
-0.0956818
1.06076
-0.141924
1.019
-0.134859
0.981337
-0.091296
0.952269
-0.0358634
0.912595
0.0480047
0.846991
0.130754
0.778263
0.197752
0.717661
0.281129
0.652626
0.36698
0.577502
0.41301
0.501352
0.408005
0.43519
0.370292
0.383628
0.304454
0.34496
0.252458
0.131011
1.11629
0.262286
-1.09143
1.13902
0.240862
1.13943
0.12745
1.13071
-0.0159144
1.09936
-0.0643359
1.05474
-0.0973032
1.02289
-0.103009
0.985595
-0.0539993
0.941881
0.00785047
0.903847
0.0860391
0.854951
0.179651
0.781804
0.270899
0.697286
0.365648
0.616292
0.447973
0.544156
0.485147
0.480205
0.471955
0.422444
0.428053
0.373724
0.353174
0.335981
0.290201
0.148197
1.10282
0.241053
-1.08159
1.12601
0.217673
1.12477
0.128693
1.10738
0.00147558
1.08677
-0.0437265
1.05298
-0.0635114
1.02123
-0.0712608
0.985781
-0.0185476
0.944609
0.0490228
0.909222
0.121426
0.855021
0.233852
0.773026
0.352893
0.692544
0.44613
0.625693
0.514825
0.55914
0.5517
0.487313
0.543782
0.419925
0.49544
0.365465
0.407634
0.326004
0.329662
0.165111
1.08998
0.223257
-1.07219
1.11207
0.19559
1.10921
0.131548
1.09089
0.0197925
1.07338
-0.0262138
1.0438
-0.0339337
1.01514
-0.0425984
0.990063
0.00652936
0.948505
0.0905813
0.901954
0.167977
0.859759
0.276046
0.800245
0.412407
0.714258
0.532117
0.618872
0.610211
0.533312
0.637259
0.462762
0.614333
0.402528
0.555674
0.351483
0.45868
0.313312
0.367833
0.181156
1.0763
0.210114
-1.06316
1.09591
0.175978
1.1001
0.12736
1.07913
0.0407614
1.05996
-0.00704626
1.03917
-0.013144
1.01308
-0.0165025
0.987637
0.0319711
0.95302
0.125198
0.911435
0.209561
0.864079
0.323402
0.7975
0.478987
0.716596
0.613021
0.637959
0.688849
0.561369
0.713849
0.480386
0.695315
0.403421
0.632639
0.341669
0.520432
0.299951
0.409551
0.19732
1.06441
0.200411
-1.05471
1.0783
0.162093
1.0872
0.118457
1.07186
0.0561005
1.05186
0.0129542
1.03122
0.00749501
1.00835
0.00636901
0.989843
0.0504781
0.957596
0.157445
0.910869
0.256288
0.870566
0.363705
0.82483
0.524723
0.749246
0.688605
0.646563
0.791532
0.53941
0.821001
0.448179
0.786547
0.377413
0.703405
0.321618
0.576227
0.282517
0.448652
0.212484
1.05469
0.192343
-1.04662
1.06227
0.154515
1.07333
0.107392
1.06341
0.0660214
1.04368
0.0326867
1.02936
0.0218165
1.00781
0.0279184
0.985874
0.0724115
0.963991
0.179328
0.926409
0.29387
0.876943
0.413171
0.815983
0.585683
0.738221
0.766366
0.650092
0.879661
0.559882
0.911211
0.468787
0.877641
0.382113
0.790078
0.311064
0.647277
0.265357
0.494359
0.228817
1.04688
0.184203
-1.03873
1.04928
0.152115
1.05743
0.0992362
1.05534
0.0681138
1.03799
0.0500335
1.02347
0.0363435
1.00877
0.0426144
0.989992
0.0911896
0.96737
0.201949
0.930655
0.330585
0.889345
0.454481
0.846207
0.628821
0.774272
0.838301
0.66535
0.988584
0.541754
1.03481
0.429812
0.989583
0.343357
0.876533
0.281071
0.709563
0.240985
0.534446
0.243724
1.03865
0.176922
-1.03137
1.03977
0.150994
1.04418
0.0948292
1.04376
0.0685348
1.03255
0.0612464
1.02167
0.0472202
1.00915
0.0551333
0.991231
0.109109
0.97566
0.21752
0.94855
0.357695
0.896811
0.506221
0.830762
0.69487
0.753098
0.915965
0.658114
1.08357
0.551505
1.14142
0.446448
1.09464
0.351838
0.971143
0.272995
0.788405
0.220578
0.586863
0.262817
1.03095
0.170335
-1.02437
1.03058
0.151368
1.0329
0.0925051
1.03386
0.0675818
1.02461
0.0704892
1.01766
0.0541787
1.01258
0.0602056
0.99792
0.123773
0.979184