x,y,z,p
0,0,0,7.60789e-05
0,0.1,0,0.000159204
0,0.2,0,0.000242329
0,0.3,0,0.000340556
0,0.4,0,0.000453885
0,0.5,0,0.000567214
0,0.6,0,0.000679621
0,0.7,0,0.000792028
0,0.8,0,0.000903737
0,0.9,0,0.00101475
0,1,0,0.00112576
0,1.1,0,0.00123497
0,1.2,0,0.00134418
0,1.3,0,0.00145227
0,1.4,0,0.00155925
0,1.5,0,0.00166623
0,1.6,0,0.00177055
0,1.7,0,0.00187487
0,1.8,0,0.00197766
0,1.9,0,0.00207893
0,2,0,0.00218019
0,2.1,0,0.002278
0,2.2,0,0.00237581
0,2.3,0,0.00247171
0,2.4,0,0.00256569
0,2.5,0,0.00265969
0,2.6,0,0.0027495
0,2.7,0,0.00283931
0,2.8,0,0.00292686
0,2.9,0,0.00301216
0,3,0,0.00309746
0,3.1,0,0.00317793
0,3.2,0,0.00325839
0,3.3,0,0.00333629
0,3.4,0,0.00341163
0,3.5,0,0.00348696
0,3.6,0,0.00355689
0,3.7,0,0.00362681
0,3.8,0,0.00369391
0,3.9,0,0.00375817
0,4,0,0.00382243
0,4.1,0,0.0038808
0,4.2,0,0.00393916
0,4.3,0,0.00399447
0,4.4,0,0.00404674
0,4.5,0,0.00409899
0,4.6,0,0.00414496
0,4.7,0,0.00419093
0,4.8,0,0.00423281
0,4.9,0,0.00427061
0,5,0,0.0043084
0,5.1,0,0.00434416
0,5.2,0,0.00437991
0,5.3,0,0.00440814
0,5.4,0,0.00443636
0,5.5,0,0.00445917
0,5.6,0,0.00448197
0,5.7,0,0.0044993
0,5.8,0,0.00451663
0,5.9,0,0.00452846
0,6,0,0.00454028
0,6.1,0,0.00454657
0,6.2,0,0.00455286
0,6.3,0,0.00455362
0,6.4,0,0.00455437
0,6.5,0,0.00454959
0,6.6,0,0.0045448
0,6.7,0,0.00453449
0,6.8,0,0.00452418
0,6.9,0,0.00450649
0,7,0,0.0044888
0,7.1,0,0.0044677
0,7.2,0,0.0044466
0,7.3,0,0.00442417
0,7.4,0,0.00439414
0,7.5,0,0.00436411
0,7.6,0,0.00433184
0,7.7,0,0.00429433
0,7.8,0,0.00425682
0,7.9,0,0.00421603
0,8,0,0.00417122
0,8.1,0,0.0041264
0,8.2,0,0.00407734
0,8.3,0,0.00402544
0,8.4,0,0.00397354
0,8.5,0,0.00391652
0,8.6,0,0.00385778
0,8.7,0,0.00379905
0,8.8,0,0.00373442
0,8.9,0,0.00366914
0,9,0,0.00360354
0,9.1,0,0.00353202
0,9.2,0,0.00346049
0,9.3,0,0.00338779
0,9.4,0,0.00331038
0,9.5,0,0.00323296
0,9.6,0,0.00315361
0,9.7,0,0.00307067
0,9.8,0,0.00298773
0,9.9,0,0.00290223
0,10,0,0.00281417
0,10.1,0,0.00272611
0,10.2,0,0.00263499
0,10.3,0,0.00254223
0,10.4,0,0.00244946
0,10.5,0,0.0023533
0,10.6,0,0.00225628
0,10.7,0,0.00215927
0,10.8,0,0.00205866
0,10.9,0,0.00195787
0,11,0,0.00185675
0,11.1,0,0.00175266
0,11.2,0,0.00164858
0,11.3,0,0.00154381
0,11.4,0,0.00143695
0,11.5,0,0.0013301
0,11.6,0,0.00122235
0,11.7,0,0.00111326
0,11.8,0,0.00100417
0,11.9,0,0.000894136
0,12,0,0.000783327
0,12.1,0,0.000672518
0,12.2,0,0.000560892
0,12.3,0,0.000448917
0,12.4,0,0.000336941
0,12.5,0,0.000250152
0,12.6,0,0.000167807
0,12.7,0,8.54623e-05
0.1,0,0,6.43745e-05
0.1,0.1,0,0.000147464
0.1,0.2,0,0.000230589
0.1,0.3,0,0.000340679
0.1,0.4,0,0.000454008
0.1,0.5,0,0.000568434
0.1,0.6,0,0.000679852
0.1,0.7,0,0.000792259
0.1,0.8,0,0.000904042
0.1,0.9,0,0.00101505
0.1,1,0,0.00112805
0.1,1.1,0,0.00123536
0.1,1.2,0,0.00134457
0.1,1.3,0,0.00145275
0.1,1.4,0,0.00155972
0.1,1.5,0,0.00166955
0.1,1.6,0,0.0017711
0.1,1.7,0,0.00187542
0.1,1.8,0,0.00197829
0.1,1.9,0,0.00207955
0.1,2,0,0.00218446
0.1,2.1,0,0.00227869
0.1,2.2,0,0.0023765
0.1,2.3,0,0.00247248
0.1,2.4,0,0.00256646
0.1,2.5,0,0.00266484
0.1,2.6,0,0.00275033
0.1,2.7,0,0.00284015
0.1,2.8,0,0.00292776
0.1,2.9,0,0.00301306
0.1,3,0,0.00310341
0.1,3.1,0,0.00317889
0.1,3.2,0,0.00325935
0.1,3.3,0,0.00333731
0.1,3.4,0,0.00341264
0.1,3.5,0,0.0034936
0.1,3.6,0,0.00355795
0.1,3.7,0,0.00362788
0.1,3.8,0,0.00369502
0.1,3.9,0,0.00375928
0.1,4,0,0.00382966
0.1,4.1,0,0.00388195
0.1,4.2,0,0.00394032
0.1,4.3,0,0.00399567
0.1,4.4,0,0.00404793
0.1,4.5,0,0.0041067
0.1,4.6,0,0.00414619
0.1,4.7,0,0.00419216
0.1,4.8,0,0.00423473
0.1,4.9,0,0.00427253
0.1,5,0,0.00431644
0.1,5.1,0,0.00434564
0.1,5.2,0,0.00438807
0.1,5.3,0,0.00440897
0.1,5.4,0,0.00444461
0.1,5.5,0,0.00446001
0.1,5.6,0,0.00449029
0.1,5.7,0,0.00450015
0.1,5.8,0,0.00452501
0.1,5.9,0,0.00452931
0.1,6,0,0.00454869
0.1,6.1,0,0.00454742
0.1,6.2,0,0.00456129
0.1,6.3,0,0.00455447
0.1,6.4,0,0.0045628
0.1,6.5,0,0.00455044
0.1,6.6,0,0.00455321
0.1,6.7,0,0.00453534
0.1,6.8,0,0.00453254
0.1,6.9,0,0.00450791
0.1,7,0,0.00449711
0.1,7.1,0,0.00446996
0.1,7.2,0,0.00444886
0.1,7.3,0,0.00443014
0.1,7.4,0,0.0043958
0.1,7.5,0,0.00436577
0.1,7.6,0,0.0043355
0.1,7.7,0,0.00429596
0.1,7.8,0,0.00425845
0.1,7.9,0,0.00421761
0.1,8,0,0.0041728
0.1,8.1,0,0.00412852
0.1,8.2,0,0.00407887
0.1,8.3,0,0.00402697
0.1,8.4,0,0.00397758
0.1,8.5,0,0.00391798
0.1,8.6,0,0.00385925
0.1,8.7,0,0.00380485
0.1,8.8,0,0.00373582
0.1,8.9,0,0.00367054
0.1,9,0,0.00360966
0.1,9.1,0,0.00353335
0.1,9.2,0,0.00346182
0.1,9.3,0,0.00339183
0.1,9.4,0,0.00331163
0.1,9.5,0,0.00323421
0.1,9.6,0,0.00315575
0.1,9.7,0,0.00307184
0.1,9.8,0,0.0029889
0.1,9.9,0,0.00290331
0.1,10,0,0.00281525
0.1,10.1,0,0.002728
0.1,10.2,0,0.00263597
0.1,10.3,0,0.00254321
0.1,10.4,0,0.00245243
0.1,10.5,0,0.00235418
0.1,10.6,0,0.00225717
0.1,10.7,0,0.00216303
0.1,10.8,0,0.00205944
0.1,10.9,0,0.00195865
0.1,11,0,0.00185968
0.1,11.1,0,0.00175333
0.1,11.2,0,0.00164925
0.1,11.3,0,0.00154543
0.1,11.4,0,0.0014375
0.1,11.5,0,0.00133065
0.1,11.6,0,0.00122296
0.1,11.7,0,0.00111369
0.1,11.8,0,0.0010046
0.1,11.9,0,0.00089446
0.1,12,0,0.000783651
0.1,12.1,0,0.000673158
0.1,12.2,0,0.00056108
0.1,12.3,0,0.000449104
0.1,12.4,0,0.000337466
0.1,12.5,0,0.000236973
0.1,12.6,0,0.000154628
0.1,12.7,0,7.23143e-05
0.2,0,0,5.267e-05
0.2,0.1,0,0.000135724
0.2,0.2,0,0.000227518
0.2,0.3,0,0.000341167
0.2,0.4,0,0.000454131
0.2,0.5,0,0.000569655
0.2,0.6,0,0.000680084
0.2,0.7,0,0.000793559
0.2,0.8,0,0.000905363
0.2,0.9,0,0.00101536
0.2,1,0,0.00113034
0.2,1.1,0,0.00123574
0.2,1.2,0,0.00134665
0.2,1.3,0,0.00145486
0.2,1.4,0,0.0015602
0.2,1.5,0,0.00167287
0.2,1.6,0,0.00177165
0.2,1.7,0,0.00187825
0.2,1.8,0,0.00198115
0.2,1.9,0,0.00208018
0.2,2,0,0.00218874
0.2,2.1,0,0.00227939
0.2,2.2,0,0.00238002
0.2,2.3,0,0.00247601
0.2,2.4,0,0.00256723
0.2,2.5,0,0.00267
0.2,2.6,0,0.00275117
0.2,2.7,0,0.00284429
0.2,2.8,0,0.00293193
0.2,2.9,0,0.00301396
0.2,3,0,0.00310935
0.2,3.1,0,0.00317984
0.2,3.2,0,0.00326405
0.2,3.3,0,0.00334203
0.2,3.4,0,0.00341366
0.2,3.5,0,0.00350024
0.2,3.6,0,0.00355902
0.2,3.7,0,0.00363306
0.2,3.8,0,0.00370022
0.2,3.9,0,0.00376039
0.2,4,0,0.00383689
0.2,4.1,0,0.00388311
0.2,4.2,0,0.0039459
0.2,4.3,0,0.00400126
0.2,4.4,0,0.00404912
0.2,4.5,0,0.0041144
0.2,4.6,0,0.00414742
0.2,4.7,0,0.00419805
0.2,4.8,0,0.00424083
0.2,4.9,0,0.00427444
0.2,5,0,0.00432448
0.2,5.1,0,0.00434712
0.2,5.2,0,0.00439623
0.2,5.3,0,0.0044098
0.2,5.4,0,0.00445286
0.2,5.5,0,0.00446084
0.2,5.6,0,0.00449861
0.2,5.7,0,0.00450099
0.2,5.8,0,0.00453338
0.2,5.9,0,0.00453016
0.2,6,0,0.00455709
0.2,6.1,0,0.00454828
0.2,6.2,0,0.00456971
0.2,6.3,0,0.00455532
0.2,6.4,0,0.00457122
0.2,6.5,0,0.00455129
0.2,6.6,0,0.00456161
0.2,6.7,0,0.00453619
0.2,6.8,0,0.00454091
0.2,6.9,0,0.00450933
0.2,7,0,0.00450541
0.2,7.1,0,0.00447222
0.2,7.2,0,0.00445148
0.2,7.3,0,0.00443835
0.2,7.4,0,0.00439746
0.2,7.5,0,0.00437001
0.2,7.6,0,0.00434356
0.2,7.7,0,0.00429758
0.2,7.8,0,0.00426473
0.2,7.9,0,0.00422531
0.2,8,0,0.00417438
0.2,8.1,0,0.00413616
0.2,8.2,0,0.00408426
0.2,8.3,0,0.0040285
0.2,8.4,0,0.00398496
0.2,8.5,0,0.00392116
0.2,8.6,0,0.00386072
0.2,8.7,0,0.00381192
0.2,8.8,0,0.00373723
0.2,8.9,0,0.00367194
0.2,9,0,0.00361641
0.2,9.1,0,0.00353468
0.2,9.2,0,0.00346404
0.2,9.3,0,0.00339821
0.2,9.4,0,0.00331288
0.2,9.5,0,0.00323791
0.2,9.6,0,0.00316173
0.2,9.7,0,0.00307301
0.2,9.8,0,0.00299385
0.2,9.9,0,0.00290824
0.2,10,0,0.00281633
0.2,10.1,0,0.00273311
0.2,10.2,0,0.00263909
0.2,10.3,0,0.00254419
0.2,10.4,0,0.00245706
0.2,10.5,0,0.00235572
0.2,10.6,0,0.00225805
0.2,10.7,0,0.00216716
0.2,10.8,0,0.00206022
0.2,10.9,0,0.00195942
0.2,11,0,0.00186328
0.2,11.1,0,0.001754
0.2,11.2,0,0.00165061
0.2,11.3,0,0.00154849
0.2,11.4,0,0.00143805
0.2,11.5,0,0.00133242
0.2,11.6,0,0.00122545
0.2,11.7,0,0.00111412
0.2,11.8,0,0.00100647
0.2,11.9,0,0.000895967
0.2,12,0,0.000783975
0.2,12.1,0,0.000674482
0.2,12.2,0,0.000561726
0.2,12.3,0,0.000449292
0.2,12.4,0,0.000338165
0.2,12.5,0,0.000224646
0.2,12.6,0,0.000141449
0.2,12.7,0,5.91662e-05
0.3,0,0,4.09656e-05
0.3,0.1,0,0.000123998
0.3,0.2,0,0.000228162
0.3,0.3,0,0.000341811
0.3,0.4,0,0.000454693
0.3,0.5,0,0.000570875
0.3,0.6,0,0.000680711
0.3,0.7,0,0.000795316
0.3,0.8,0,0.000907121
0.3,0.9,0,0.00101646
0.3,1,0,0.00113263
0.3,1.1,0,0.00123689
0.3,1.2,0,0.00134947
0.3,1.3,0,0.00145767
0.3,1.4,0,0.00156181
0.3,1.5,0,0.00167618
0.3,1.6,0,0.00177331
0.3,1.7,0,0.00188206
0.3,1.8,0,0.00198495
0.3,1.9,0,0.00208227
0.3,2,0,0.00219301
0.3,2.1,0,0.00228152
0.3,2.2,0,0.00238475
0.3,2.3,0,0.00248074
0.3,2.4,0,0.00256976
0.3,2.5,0,0.00267515
0.3,2.6,0,0.00275374
0.3,2.7,0,0.00284985
0.3,2.8,0,0.00293749
0.3,2.9,0,0.00301688
0.3,3,0,0.0031153
0.3,3.1,0,0.0031828
0.3,3.2,0,0.00327036
0.3,3.3,0,0.00334833
0.3,3.4,0,0.00341692
0.3,3.5,0,0.00350688
0.3,3.6,0,0.00356231
0.3,3.7,0,0.00364001
0.3,3.8,0,0.00370716
0.3,3.9,0,0.00376395
0.3,4,0,0.00384412
0.3,4.1,0,0.00388669
0.3,4.2,0,0.00395338
0.3,4.3,0,0.00400874
0.3,4.4,0,0.00405292
0.3,4.5,0,0.00412211
0.3,4.6,0,0.00415123
0.3,4.7,0,0.00420595
0.3,4.8,0,0.00424873
0.3,4.9,0,0.00427881
0.3,5,0,0.00433252
0.3,5.1,0,0.00434861
0.3,5.2,0,0.00440439
0.3,5.3,0,0.00441063
0.3,5.4,0,0.00446111
0.3,5.5,0,0.00446168
0.3,5.6,0,0.00450693
0.3,5.7,0,0.00450184
0.3,5.8,0,0.00454175
0.3,5.9,0,0.00453101
0.3,6,0,0.0045655
0.3,6.1,0,0.00454913
0.3,6.2,0,0.00457813
0.3,6.3,0,0.00455618
0.3,6.4,0,0.00457964
0.3,6.5,0,0.00455215
0.3,6.6,0,0.00457002
0.3,6.7,0,0.00453704
0.3,6.8,0,0.00454928
0.3,6.9,0,0.00451075
0.3,7,0,0.00451371
0.3,7.1,0,0.00447882
0.3,7.2,0,0.0044597
0.3,7.3,0,0.00444656
0.3,7.4,0,0.00440159
0.3,7.5,0,0.00437808
0.3,7.6,0,0.00435162
0.3,7.7,0,0.00429943
0.3,7.8,0,0.0042726
0.3,7.9,0,0.00423319
0.3,8,0,0.00417595
0.3,8.1,0,0.0041438
0.3,8.2,0,0.0040919
0.3,8.3,0,0.0040309
0.3,8.4,0,0.00399234
0.3,8.5,0,0.00392854
0.3,8.6,0,0.00386494
0.3,8.7,0,0.003819
0.3,8.8,0,0.00374401
0.3,8.9,0,0.0036778
0.3,9,0,0.00362315
0.3,9.1,0,0.00353928
0.3,9.2,0,0.00347042
0.3,9.3,0,0.00340459
0.3,9.4,0,0.00331548
0.3,9.5,0,0.0032439
0.3,9.6,0,0.00316772
0.3,9.7,0,0.00307418
0.3,9.8,0,0.0029994
0.3,9.9,0,0.0029138
0.3,10,0,0.00281741
0.3,10.1,0,0.00273821
0.3,10.2,0,0.0026442
0.3,10.3,0,0.00254613
0.3,10.4,0,0.00246169
0.3,10.5,0,0.00236035
0.3,10.6,0,0.00226089
0.3,10.7,0,0.00217128
0.3,10.8,0,0.00206379
0.3,10.9,0,0.00196288
0.3,11,0,0.00186689
0.3,11.1,0,0.0017561
0.3,11.2,0,0.00165366
0.3,11.3,0,0.00155155
0.3,11.4,0,0.00143898
0.3,11.5,0,0.00133492
0.3,11.6,0,0.00122795
0.3,11.7,0,0.00111455
0.3,11.8,0,0.00100838
0.3,11.9,0,0.000897877
0.3,12,0,0.000784334
0.3,12.1,0,0.000675806
0.3,12.2,0,0.00056305
0.3,12.3,0,0.000449672
0.3,12.4,0,0.000338865
0.3,12.5,0,0.000225345
0.3,12.6,0,0.000128292
0.3,12.7,0,4.60182e-05
0.4,0,0,2.92611e-05
0.4,0.1,0,0.000113532
0.4,0.2,0,0.000228806
0.4,0.3,0,0.000342455
0.4,0.4,0,0.000455966
0.4,0.5,0,0.000572096
0.4,0.6,0,0.000682084
0.4,0.7,0,0.000797073
0.4,0.8,0,0.000908878
0.4,0.9,0,0.00101889
0.4,1,0,0.00113492
0.4,1.1,0,0.00123942
0.4,1.2,0,0.00135228
0.4,1.3,0,0.00146048
0.4,1.4,0,0.00156536
0.4,1.5,0,0.0016795
0.4,1.6,0,0.00177695
0.4,1.7,0,0.00188586
0.4,1.8,0,0.00198876
0.4,1.9,0,0.00208686
0.4,2,0,0.00219729
0.4,2.1,0,0.0022862
0.4,2.2,0,0.00238948
0.4,2.3,0,0.00248547
0.4,2.4,0,0.00257531
0.4,2.5,0,0.00268031
0.4,2.6,0,0.00275936
0.4,2.7,0,0.00285542
0.4,2.8,0,0.00294305
0.4,2.9,0,0.00302329
0.4,3,0,0.00312125
0.4,3.1,0,0.00318928
0.4,3.2,0,0.00327666
0.4,3.3,0,0.00335464
0.4,3.4,0,0.00342409
0.4,3.5,0,0.00351352
0.4,3.6,0,0.00356954
0.4,3.7,0,0.00364696
0.4,3.8,0,0.00371411
0.4,3.9,0,0.00377177
0.4,4,0,0.00385135
0.4,4.1,0,0.00389455
0.4,4.2,0,0.00396086
0.4,4.3,0,0.00401623
0.4,4.4,0,0.00406125
0.4,4.5,0,0.00412981
0.4,4.6,0,0.0041596
0.4,4.7,0,0.00421384
0.4,4.8,0,0.00425662
0.4,4.9,0,0.00428744
0.4,5,0,0.00434055
0.4,5.1,0,0.00436001
0.4,5.2,0,0.00441255
0.4,5.3,0,0.00442252
0.4,5.4,0,0.00446936
0.4,5.5,0,0.00447369
0.4,5.6,0,0.00451524
0.4,5.7,0,0.00451393
0.4,5.8,0,0.00455012
0.4,5.9,0,0.00454317
0.4,6,0,0.0045739
0.4,6.1,0,0.00456132
0.4,6.2,0,0.00458656
0.4,6.3,0,0.00456838
0.4,6.4,0,0.00458806
0.4,6.5,0,0.00456434
0.4,6.6,0,0.00457842
0.4,6.7,0,0.00454919
0.4,6.8,0,0.00455765
0.4,6.9,0,0.00452254
0.4,7,0,0.00452202
0.4,7.1,0,0.00448713
0.4,7.2,0,0.00446791
0.4,7.3,0,0.00445477
0.4,7.4,0,0.00441058
0.4,7.5,0,0.00438614
0.4,7.6,0,0.00435969
0.4,7.7,0,0.0043104
0.4,7.8,0,0.00428047
0.4,7.9,0,0.00424106
0.4,8,0,0.00418679
0.4,8.1,0,0.00415144
0.4,8.2,0,0.00409954
0.4,8.3,0,0.00404042
0.4,8.4,0,0.00399971
0.4,8.5,0,0.00393591
0.4,8.6,0,0.00387207
0.4,8.7,0,0.00382608
0.4,8.8,0,0.00375108
0.4,8.9,0,0.00368454
0.4,9,0,0.00362989
0.4,9.1,0,0.00354603
0.4,9.2,0,0.0034768
0.4,9.3,0,0.00341097
0.4,9.4,0,0.00332298
0.4,9.5,0,0.00324988
0.4,9.6,0,0.0031737
0.4,9.7,0,0.00308232
0.4,9.8,0,0.00300496
0.4,9.9,0,0.00291936
0.4,10,0,0.00282479
0.4,10.1,0,0.00274332
0.4,10.2,0,0.0026493
0.4,10.3,0,0.00255174
0.4,10.4,0,0.00246632
0.4,10.5,0,0.00236498
0.4,10.6,0,0.00226502
0.4,10.7,0,0.00217541
0.4,10.8,0,0.00206791
0.4,10.9,0,0.00196648
0.4,11,0,0.00187049
0.4,11.1,0,0.00175973
0.4,11.2,0,0.00165672
0.4,11.3,0,0.00155461
0.4,11.4,0,0.00144272
0.4,11.5,0,0.00133741
0.4,11.6,0,0.00123044
0.4,11.7,0,0.00111767
0.4,11.8,0,0.00101029
0.4,11.9,0,0.000899788
0.4,12,0,0.000786396
0.4,12.1,0,0.00067713
0.4,12.2,0,0.000564374
0.4,12.3,0,0.000450511
0.4,12.4,0,0.000339565
0.4,12.5,0,0.000226045
0.4,12.6,0,0.000115144
0.4,12.7,0,3.28701e-05
0.5,0,0,1.75567e-05
0.5,0.1,0,0.000114212
0.5,0.2,0,0.00022945
0.5,0.3,0,0.0003431
0.5,0.4,0,0.000457707
0.5,0.5,0,0.000573316
0.5,0.6,0,0.00068483
0.5,0.7,0,0.00079883
0.5,0.8,0,0.000910635
0.5,0.9,0,0.00102264
0.5,1,0,0.00113721
0.5,1.1,0,0.00124414
0.5,1.2,0,0.00135509
0.5,1.3,0,0.0014633
0.5,1.4,0,0.00157102
0.5,1.5,0,0.00168282
0.5,1.6,0,0.00178353
0.5,1.7,0,0.00188967
0.5,1.8,0,0.00199256
0.5,1.9,0,0.00209432
0.5,2,0,0.00220157
0.5,2.1,0,0.00229451
0.5,2.2,0,0.0023942
0.5,2.3,0,0.0024902
0.5,2.4,0,0.00258442
0.5,2.5,0,0.00268546
0.5,2.6,0,0.00276925
0.5,2.7,0,0.00286098
0.5,2.8,0,0.00294861
0.5,2.9,0,0.0030339
0.5,3,0,0.00312719
0.5,3.1,0,0.00320057
0.5,3.2,0,0.00328297
0.5,3.3,0,0.00336094
0.5,3.4,0,0.00343602
0.5,3.5,0,0.00352016
0.5,3.6,0,0.00358206
0.5,3.7,0,0.0036539
0.5,3.8,0,0.00372106
0.5,3.9,0,0.00378483
0.5,4,0,0.00385857
0.5,4.1,0,0.00390811
0.5,4.2,0,0.00396834
0.5,4.3,0,0.00402371
0.5,4.4,0,0.00407524
0.5,4.5,0,0.00413751
0.5,4.6,0,0.00417398
0.5,4.7,0,0.00422174
0.5,4.8,0,0.00426452
0.5,4.9,0,0.00430146
0.5,5,0,0.00434859
0.5,5.1,0,0.00437473
0.5,5.2,0,0.00442071
0.5,5.3,0,0.0044381
0.5,5.4,0,0.0044776
0.5,5.5,0,0.00448941
0.5,5.6,0,0.00452356
0.5,5.7,0,0.00452978
0.5,5.8,0,0.00455849
0.5,5.9,0,0.00455909
0.5,6,0,0.00458231
0.5,6.1,0,0.0045773
0.5,6.2,0,0.00459498
0.5,6.3,0,0.00458438
0.5,6.4,0,0.00459648
0.5,6.5,0,0.00458031
0.5,6.6,0,0.00458682
0.5,6.7,0,0.00456512
0.5,6.8,0,0.00456602
0.5,6.9,0,0.00453779
0.5,7,0,0.00453032
0.5,7.1,0,0.00450008
0.5,7.2,0,0.00447877
0.5,7.3,0,0.00446299
0.5,7.4,0,0.0044252
0.5,7.5,0,0.00439483
0.5,7.6,0,0.00436775
0.5,7.7,0,0.00432471
0.5,7.8,0,0.00428834
0.5,7.9,0,0.00424893
0.5,8,0,0.00420072
0.5,8.1,0,0.00415908
0.5,8.2,0,0.00410718
0.5,8.3,0,0.00405391
0.5,8.4,0,0.00400709
0.5,8.5,0,0.00394447
0.5,8.6,0,0.00388505
0.5,8.7,0,0.00383315
0.5,8.8,0,0.00376111
0.5,8.9,0,0.00369506
0.5,9,0,0.00363664
0.5,9.1,0,0.00355729
0.5,9.2,0,0.00348493
0.5,9.3,0,0.00341734
0.5,9.4,0,0.00333409
0.5,9.5,0,0.00325586
0.5,9.6,0,0.00317968
0.5,9.7,0,0.0030927
0.5,9.8,0,0.00301052
0.5,9.9,0,0.00292492
0.5,10,0,0.00283438
0.5,10.1,0,0.00274843
0.5,10.2,0,0.00265441
0.5,10.3,0,0.00256049
0.5,10.4,0,0.00247095
0.5,10.5,0,0.00237066
0.5,10.6,0,0.0022725
0.5,10.7,0,0.00217954
0.5,10.8,0,0.00207393
0.5,10.9,0,0.00197194
0.5,11,0,0.00187409
0.5,11.1,0,0.00176573
0.5,11.2,0,0.0016604
0.5,11.3,0,0.00155767
0.5,11.4,0,0.00144772
0.5,11.5,0,0.0013399
0.5,11.6,0,0.00123293
0.5,11.7,0,0.00112164
0.5,11.8,0,0.0010122
0.5,11.9,0,0.000901699
0.5,12,0,0.000789307
0.5,12.1,0,0.000678454
0.5,12.2,0,0.000565748
0.5,12.3,0,0.000452348
0.5,12.4,0,0.000340264
0.5,12.5,0,0.000226758
0.5,12.6,0,0.000112831
0.5,12.7,0,1.97221e-05
0.6,0,0,5.85223e-06
0.6,0.1,0,0.000114892
0.6,0.2,0,0.000230123
0.6,0.3,0,0.000344622
0.6,0.4,0,0.000459449
0.6,0.5,0,0.000574537
0.6,0.6,0,0.000687576
0.6,0.7,0,0.000801379
0.6,0.8,0,0.00091398
0.6,0.9,0,0.00102638
0.6,1,0,0.0011395
0.6,1.1,0,0.00124886
0.6,1.2,0,0.00135943
0.6,1.3,0,0.00146839
0.6,1.4,0,0.00157668
0.6,1.5,0,0.00168614
0.6,1.6,0,0.0017901
0.6,1.7,0,0.00189569
0.6,1.8,0,0.00199929
0.6,1.9,0,0.00210177
0.6,2,0,0.00220584
0.6,2.1,0,0.00230281
0.6,2.2,0,0.00240179
0.6,2.3,0,0.00249843
0.6,2.4,0,0.00259354
0.6,2.5,0,0.00269062
0.6,2.6,0,0.00277913
0.6,2.7,0,0.00287
0.6,2.8,0,0.00295822
0.6,2.9,0,0.00304451
0.6,3,0,0.00313314
0.6,3.1,0,0.00321187
0.6,3.2,0,0.00329327
0.6,3.3,0,0.00337175
0.6,3.4,0,0.00344795
0.6,3.5,0,0.0035268
0.6,3.6,0,0.00359459
0.6,3.7,0,0.00366531
0.6,3.8,0,0.0037329
0.6,3.9,0,0.00379789
0.6,4,0,0.0038658
0.6,4.1,0,0.00392166
0.6,4.2,0,0.00398068
0.6,4.3,0,0.0040364
0.6,4.4,0,0.00408923
0.6,4.5,0,0.00414522
0.6,4.6,0,0.00418835
0.6,4.7,0,0.00423481
0.6,4.8,0,0.00427731
0.6,4.9,0,0.00431547
0.6,5,0,0.00435663
0.6,5.1,0,0.00438944
0.6,5.2,0,0.00442887
0.6,5.3,0,0.00445367
0.6,5.4,0,0.00448585
0.6,5.5,0,0.00450514
0.6,5.6,0,0.00453188
0.6,5.7,0,0.00454562
0.6,5.8,0,0.00456686
0.6,5.9,0,0.00457502
0.6,6,0,0.00459072
0.6,6.1,0,0.00459328
0.6,6.2,0,0.0046034
0.6,6.3,0,0.00460037
0.6,6.4,0,0.00460491
0.6,6.5,0,0.00459629
0.6,6.6,0,0.00459523
0.6,6.7,0,0.00458104
0.6,6.8,0,0.00457439
0.6,6.9,0,0.00455305
0.6,7,0,0.00453862
0.6,7.1,0,0.00451434
0.6,7.2,0,0.00449303
0.6,7.3,0,0.0044712
0.6,7.4,0,0.00443982
0.6,7.5,0,0.00440945
0.6,7.6,0,0.00437696
0.6,7.7,0,0.00433902
0.6,7.8,0,0.00430107
0.6,7.9,0,0.00425999
0.6,8,0,0.00421466
0.6,8.1,0,0.00416932
0.6,8.2,0,0.0041199
0.6,8.3,0,0.0040674
0.6,8.4,0,0.00401489
0.6,8.5,0,0.00395746
0.6,8.6,0,0.00389804
0.6,8.7,0,0.00384023
0.6,8.8,0,0.00377352
0.6,8.9,0,0.00370748
0.6,9,0,0.00364338
0.6,9.1,0,0.00356908
0.6,9.2,0,0.00349672
0.6,9.3,0,0.00342372
0.6,9.4,0,0.0033452
0.6,9.5,0,0.00326688
0.6,9.6,0,0.00318697
0.6,9.7,0,0.00310307
0.6,9.8,0,0.00301916
0.6,9.9,0,0.00293306
0.6,10,0,0.00284396
0.6,10.1,0,0.00275487
0.6,10.2,0,0.0026631
0.6,10.3,0,0.00256925
0.6,10.4,0,0.00247558
0.6,10.5,0,0.00237854
0.6,10.6,0,0.00228038
0.6,10.7,0,0.00218367
0.6,10.8,0,0.00208088
0.6,10.9,0,0.00197889
0.6,11,0,0.0018777
0.6,11.1,0,0.00177172
0.6,11.2,0,0.0016664
0.6,11.3,0,0.00156087
0.6,11.4,0,0.00145272
0.6,11.5,0,0.00134458
0.6,11.6,0,0.00123604
0.6,11.7,0,0.00112562
0.6,11.8,0,0.0010152
0.6,11.9,0,0.000904364
0.6,12,0,0.000792217
0.6,12.1,0,0.000680071
0.6,12.2,0,0.000567584
0.6,12.3,0,0.000454184
0.6,12.4,0,0.000340964
0.6,12.5,0,0.000227489
0.6,12.6,0,0.000113562
0.6,12.7,0,6.57403e-06
0.7,0,0,0
0.7,0.1,0,0.000115566
0.7,0.2,0,0.000230797
0.7,0.3,0,0.000346524
0.7,0.4,0,0.000461352
0.7,0.5,0,0.000576968
0.7,0.6,0,0.000690555
0.7,0.7,0,0.000804358
0.7,0.8,0,0.00091803
0.7,0.9,0,0.00103043
0.7,1,0,0.00114412
0.7,1.1,0,0.00125397
0.7,1.2,0,0.00136454
0.7,1.3,0,0.00147453
0.7,1.4,0,0.00158282
0.7,1.5,0,0.00169285
0.7,1.6,0,0.00179723
0.7,1.7,0,0.00190282
0.7,1.8,0,0.00200738
0.7,1.9,0,0.00210986
0.7,2,0,0.00221451
0.7,2.1,0,0.00231182
0.7,2.2,0,0.00241081
0.7,2.3,0,0.00250832
0.7,2.4,0,0.00260343
0.7,2.5,0,0.00270109
0.7,2.6,0,0.00278986
0.7,2.7,0,0.00288073
0.7,2.8,0,0.00296974
0.7,2.9,0,0.00305603
0.7,3,0,0.00314523
0.7,3.1,0,0.00322413
0.7,3.2,0,0.00330553
0.7,3.3,0,0.00338471
0.7,3.4,0,0.00346091
0.7,3.5,0,0.00354031
0.7,3.6,0,0.00360819
0.7,3.7,0,0.00367891
0.7,3.8,0,0.00374709
0.7,3.9,0,0.00381208
0.7,4,0,0.00388052
0.7,4.1,0,0.00393639
0.7,4.2,0,0.00399541
0.7,4.3,0,0.0040516
0.7,4.4,0,0.00410443
0.7,4.5,0,0.00416091
0.7,4.6,0,0.00420396
0.7,4.7,0,0.00425043
0.7,4.8,0,0.00429327
0.7,4.9,0,0.00433144
0.7,5,0,0.00437304
0.7,5.1,0,0.00440566
0.7,5.2,0,0.00444552
0.7,5.3,0,0.00447009
0.7,5.4,0,0.00450269
0.7,5.5,0,0.00452172
0.7,5.6,0,0.00454887
0.7,5.7,0,0.00456232
0.7,5.8,0,0.00458396
0.7,5.9,0,0.00459181
0.7,6,0,0.00460789
0.7,6.1,0,0.00461012
0.7,6.2,0,0.00462061
0.7,6.3,0,0.00461722
0.7,6.4,0,0.0046221
0.7,6.5,0,0.00461312
0.7,6.6,0,0.00461238
0.7,6.7,0,0.00459782
0.7,6.8,0,0.00459146
0.7,6.9,0,0.00456974
0.7,7,0,0.00455556
0.7,7.1,0,0.00453089
0.7,7.2,0,0.00450959
0.7,7.3,0,0.00448763
0.7,7.4,0,0.00445612
0.7,7.5,0,0.00442575
0.7,7.6,0,0.00439292
0.7,7.7,0,0.00435497
0.7,7.8,0,0.00431703
0.7,7.9,0,0.00427552
0.7,8,0,0.00423019
0.7,8.1,0,0.00418485
0.7,8.2,0,0.00413494
0.7,8.3,0,0.00408243
0.7,8.4,0,0.00402993
0.7,8.5,0,0.00397193
0.7,8.6,0,0.00391251
0.7,8.7,0,0.00385465
0.7,8.8,0,0.00378736
0.7,8.9,0,0.00372132
0.7,9,0,0.00365694
0.7,9.1,0,0.00358221
0.7,9.2,0,0.00350986
0.7,9.3,0,0.00343615
0.7,9.4,0,0.00335757
0.7,9.5,0,0.00327926
0.7,9.6,0,0.00319853
0.7,9.7,0,0.00311462
0.7,9.8,0,0.00303072
0.7,9.9,0,0.00294373
0.7,10,0,0.00285464
0.7,10.1,0,0.00276555
0.7,10.2,0,0.00267285
0.7,10.3,0,0.002579
0.7,10.4,0,0.00248529
0.7,10.5,0,0.00238731
0.7,10.6,0,0.00228915
0.7,10.7,0,0.00219212
0.7,10.8,0,0.00208862
0.7,10.9,0,0.00198663
0.7,11,0,0.0018847
0.7,11.1,0,0.00177839
0.7,11.2,0,0.00167307
0.7,11.3,0,0.00156643
0.7,11.4,0,0.00145828
0.7,11.5,0,0.00135014
0.7,11.6,0,0.00124045
0.7,11.7,0,0.00113003
0.7,11.8,0,0.00101961
0.7,11.9,0,0.000907597
0.7,12,0,0.000795451
0.7,12.1,0,0.000683304
0.7,12.2,0,0.000569648
0.7,12.3,0,0.000456248
0.7,12.4,0,0.000342821
0.7,12.5,0,0.000228224
0.7,12.6,0,0.000114297
0.7,12.7,0,0
0.8,0,0,0
0.8,0.1,0,0.000116234
0.8,0.2,0,0.000231722
0.8,0.3,0,0.000348566
0.8,0.4,0,0.000463416
0.8,0.5,0,0.000580611
0.8,0.6,0,0.000693767
0.8,0.7,0,0.000807986
0.8,0.8,0,0.000922575
0.8,0.9,0,0.00103478
0.8,1,0,0.00115106
0.8,1.1,0,0.00125948
0.8,1.2,0,0.00137066
0.8,1.3,0,0.00148153
0.8,1.4,0,0.00158944
0.8,1.5,0,0.00170296
0.8,1.6,0,0.00180492
0.8,1.7,0,0.0019113
0.8,1.8,0,0.00201668
0.8,1.9,0,0.00211859
0.8,2,0,0.00222758
0.8,2.1,0,0.00232155
0.8,2.2,0,0.00242148
0.8,2.3,0,0.00251976
0.8,2.4,0,0.00261411
0.8,2.5,0,0.00271687
0.8,2.6,0,0.00280143
0.8,2.7,0,0.0028934
0.8,2.8,0,0.00298309
0.8,2.9,0,0.00306847
0.8,3,0,0.00316346
0.8,3.1,0,0.00323737
0.8,3.2,0,0.00331999
0.8,3.3,0,0.00339976
0.8,3.4,0,0.0034749
0.8,3.5,0,0.00356068
0.8,3.6,0,0.00362287
0.8,3.7,0,0.00369492
0.8,3.8,0,0.00376361
0.8,3.9,0,0.0038274
0.8,4,0,0.00390272
0.8,4.1,0,0.00395228
0.8,4.2,0,0.00401272
0.8,4.3,0,0.00406932
0.8,4.4,0,0.00412084
0.8,4.5,0,0.00418459
0.8,4.6,0,0.00422082
0.8,4.7,0,0.00426877
0.8,4.8,0,0.00431247
0.8,4.9,0,0.00434936
0.8,5,0,0.00439782
0.8,5.1,0,0.00442339
0.8,5.2,0,0.00447066
0.8,5.3,0,0.00448734
0.8,5.4,0,0.00452812
0.8,5.5,0,0.00453914
0.8,5.6,0,0.00457453
0.8,5.7,0,0.00457987
0.8,5.8,0,0.00460978
0.8,5.9,0,0.00460945
0.8,6,0,0.00463382
0.8,6.1,0,0.00462782
0.8,6.2,0,0.00464659
0.8,6.3,0,0.00463494
0.8,6.4,0,0.00464807
0.8,6.5,0,0.00463082
0.8,6.6,0,0.00463828
0.8,6.7,0,0.00461546
0.8,6.8,0,0.00461723
0.8,6.9,0,0.00458788
0.8,7,0,0.00458112
0.8,7.1,0,0.00454974
0.8,7.2,0,0.00452843
0.8,7.3,0,0.00451285
0.8,7.4,0,0.00447409
0.8,7.5,0,0.00444372
0.8,7.6,0,0.00441634
0.8,7.7,0,0.00437257
0.8,7.8,0,0.00433623
0.8,7.9,0,0.00429597
0.8,8,0,0.00424732
0.8,8.1,0,0.00420568
0.8,8.2,0,0.00415242
0.8,8.3,0,0.00409902
0.8,8.4,0,0.0040521
0.8,8.5,0,0.00398788
0.8,8.6,0,0.00392847
0.8,8.7,0,0.00387631
0.8,8.8,0,0.00380262
0.8,8.9,0,0.00373657
0.8,9,0,0.00367758
0.8,9.1,0,0.0035967
0.8,9.2,0,0.00352434
0.8,9.3,0,0.00345566
0.8,9.4,0,0.00337122
0.8,9.5,0,0.00329298
0.8,9.6,0,0.00321517
0.8,9.7,0,0.00312736
0.8,9.8,0,0.00304498
0.8,9.9,0,0.00295738
0.8,10,0,0.00286641
0.8,10.1,0,0.00278
0.8,10.2,0,0.00268368
0.8,10.3,0,0.00258974
0.8,10.4,0,0.00249942
0.8,10.5,0,0.00239697
0.8,10.6,0,0.00229881
0.8,10.7,0,0.0022047
0.8,10.8,0,0.00209715
0.8,10.9,0,0.00199516
0.8,11,0,0.00189567
0.8,11.1,0,0.00178574
0.8,11.2,0,0.00168042
0.8,11.3,0,0.0015755
0.8,11.4,0,0.00146441
0.8,11.5,0,0.00135645
0.8,11.6,0,0.00124688
0.8,11.7,0,0.00113487
0.8,11.8,0,0.00102489
0.8,11.9,0,0.000911696
0.8,12,0,0.000799007
0.8,12.1,0,0.000687186
0.8,12.2,0,0.000571938
0.8,12.3,0,0.000458538
0.8,12.4,0,0.00034494
0.8,12.5,0,0.000228964
0.8,12.6,0,0.000115037
0.8,12.7,0,0
0.9,0,0,0
0.9,0.1,0,0.000116902
0.9,0.2,0,0.000233676
0.9,0.3,0,0.00035052
0.9,0.4,0,0.00046548
0.9,0.5,0,0.000584253
0.9,0.6,0,0.000696979
0.9,0.7,0,0.000813282
0.9,0.8,0,0.000927871
0.9,0.9,0,0.00103914
0.9,1,0,0.00115801
0.9,1.1,0,0.00126499
0.9,1.2,0,0.00137921
0.9,1.3,0,0.00149008
0.9,1.4,0,0.00159606
0.9,1.5,0,0.00171306
0.9,1.6,0,0.00181261
0.9,1.7,0,0.00192291
0.9,1.8,0,0.0020283
0.9,1.9,0,0.00212732
0.9,2,0,0.00224064
0.9,2.1,0,0.00233127
0.9,2.2,0,0.00243593
0.9,2.3,0,0.00253421
0.9,2.4,0,0.00262478
0.9,2.5,0,0.00273266
0.9,2.6,0,0.00281301
0.9,2.7,0,0.00291044
0.9,2.8,0,0.00300013
0.9,2.9,0,0.0030809
0.9,3,0,0.00318169
0.9,3.1,0,0.0032506
0.9,3.2,0,0.00333933
0.9,3.3,0,0.00341911
0.9,3.4,0,0.00348888
0.9,3.5,0,0.00358106
0.9,3.6,0,0.00363755
0.9,3.7,0,0.00371625
0.9,3.8,0,0.00378494
0.9,3.9,0,0.00384272
0.9,4,0,0.00392492
0.9,4.1,0,0.00396817
0.9,4.2,0,0.00403571
0.9,4.3,0,0.00409231
0.9,4.4,0,0.00413725
0.9,4.5,0,0.00420828
0.9,4.6,0,0.00423767
0.9,4.7,0,0.00429306
0.9,4.8,0,0.00433676
0.9,4.9,0,0.00436727
0.9,5,0,0.0044226
0.9,5.1,0,0.00444112
0.9,5.2,0,0.00449581
0.9,5.3,0,0.0045046
0.9,5.4,0,0.00455355
0.9,5.5,0,0.00455656
0.9,5.6,0,0.00460018
0.9,5.7,0,0.00459743
0.9,5.8,0,0.00463561
0.9,5.9,0,0.0046271
0.9,6,0,0.00465975
0.9,6.1,0,0.00464552
0.9,6.2,0,0.00467257
0.9,6.3,0,0.00465265
0.9,6.4,0,0.00467404
0.9,6.5,0,0.00464851
0.9,6.6,0,0.00466418
0.9,6.7,0,0.0046331
0.9,6.8,0,0.004643
0.9,6.9,0,0.00460602
0.9,7,0,0.00460669
0.9,7.1,0,0.00457006
0.9,7.2,0,0.00455086
0.9,7.3,0,0.00453808
0.9,7.4,0,0.00449207
0.9,7.5,0,0.00446781
0.9,7.6,0,0.00444108
0.9,7.7,0,0.00439017
0.9,7.8,0,0.00436036
0.9,7.9,0,0.00432011
0.9,8,0,0.00426445
0.9,8.1,0,0.0042291
0.9,8.2,0,0.00417584
0.9,8.3,0,0.0041156
0.9,8.4,0,0.0040747
0.9,8.5,0,0.00400908
0.9,8.6,0,0.00394442
0.9,8.7,0,0.00389798
0.9,8.8,0,0.00382074
0.9,8.9,0,0.00375362
0.9,9,0,0.00369822
0.9,9.1,0,0.00361183
0.9,9.2,0,0.00354222
0.9,9.3,0,0.00347517
0.9,9.4,0,0.00338486
0.9,9.5,0,0.00331127
0.9,9.6,0,0.00323346
0.9,9.7,0,0.0031401
0.9,9.8,0,0.00306197
0.9,9.9,0,0.00297437
0.9,10,0,0.00287818
0.9,10.1,0,0.0027956
0.9,10.2,0,0.00269927
0.9,10.3,0,0.00260049
0.9,10.4,0,0.00251355
0.9,10.5,0,0.00240965
0.9,10.6,0,0.00230878
0.9,10.7,0,0.00221728
0.9,10.8,0,0.00210703
0.9,10.9,0,0.00200478
0.9,11,0,0.00190664
0.9,11.1,0,0.00179309
0.9,11.2,0,0.0016893
0.9,11.3,0,0.00158479
0.9,11.4,0,0.00147053
0.9,11.5,0,0.00136401
0.9,11.6,0,0.00125444
0.9,11.7,0,0.00113972
0.9,11.8,0,0.00103065
0.9,11.9,0,0.00091746
0.9,12,0,0.000802563
0.9,12.1,0,0.00069114
0.9,12.2,0,0.000575732
0.9,12.3,0,0.000460828
0.9,12.4,0,0.000347058
0.9,12.5,0,0.000230478
0.9,12.6,0,0.000115614
0.9,12.7,0,0
1,0,0,0
1,0.1,0,0.000116969
1,0.2,0,0.000235629
1,0.3,0,0.000352473
1,0.4,0,0.000468964
1,0.5,0,0.000587896
1,0.6,0,0.000700579
1,0.7,0,0.000818578
1,0.8,0,0.000933167
1,0.9,0,0.00104583
1,1,0,0.00116495
1,1.1,0,0.00127179
1,1.2,0,0.00138776
1,1.3,0,0.00149863
1,1.4,0,0.00160582
1,1.5,0,0.00172317
1,1.6,0,0.00182248
1,1.7,0,0.00193453
1,1.8,0,0.00203991
1,1.9,0,0.00213995
1,2,0,0.00225371
1,2.1,0,0.002344
1,2.2,0,0.00245039
1,2.3,0,0.00254867
1,2.4,0,0.00264005
1,2.5,0,0.00274844
1,2.6,0,0.00282837
1,2.7,0,0.00292748
1,2.8,0,0.00301718
1,2.9,0,0.00309855
1,3,0,0.00319991
1,3.1,0,0.00326833
1,3.2,0,0.00335867
1,3.3,0,0.00343845
1,3.4,0,0.00350862
1,3.5,0,0.00360144
1,3.6,0,0.00365735
1,3.7,0,0.00373759
1,3.8,0,0.00380627
1,3.9,0,0.00386423
1,4,0,0.00394712
1,4.1,0,0.00398974
1,4.2,0,0.00405869
1,4.3,0,0.00411529
1,4.4,0,0.00416021
1,4.5,0,0.00423196
1,4.6,0,0.00426067
1,4.7,0,0.00431735
1,4.8,0,0.00436105
1,4.9,0,0.00439137
1,5,0,0.00444738
1,5.1,0,0.00446247
1,5.2,0,0.00452096
1,5.3,0,0.00452587
1,5.4,0,0.00457898
1,5.5,0,0.00457805
1,5.6,0,0.00462584
1,5.7,0,0.00461907
1,5.8,0,0.00466143
1,5.9,0,0.00464886
1,6,0,0.00468568
1,6.1,0,0.00466734
1,6.2,0,0.00469855
1,6.3,0,0.0046745
1,6.4,0,0.00470001
1,6.5,0,0.00467032
1,6.6,0,0.00469008
1,6.7,0,0.00465484
1,6.8,0,0.00466878
1,6.9,0,0.00462792
1,7,0,0.00463226
1,7.1,0,0.00459563
1,7.2,0,0.00457609
1,7.3,0,0.0045633
1,7.4,0,0.0045164
1,7.5,0,0.00449255
1,7.6,0,0.00446581
1,7.7,0,0.00441158
1,7.8,0,0.0043845
1,7.9,0,0.00434424
1,8,0,0.00428486
1,8.1,0,0.00425252
1,8.2,0,0.00419926
1,8.3,0,0.00413608
1,8.4,0,0.00409729
1,8.5,0,0.00403168
1,8.6,0,0.00396604
1,8.7,0,0.00391965
1,8.8,0,0.00384241
1,8.9,0,0.00377426
1,9,0,0.00371886
1,9.1,0,0.00363247
1,9.2,0,0.00356173
1,9.3,0,0.00349468
1,9.4,0,0.00340298
1,9.5,0,0.00332957
1,9.6,0,0.00325175
1,9.7,0,0.00315551
1,9.8,0,0.00307896
1,9.9,0,0.00299135
1,10,0,0.00289197
1,10.1,0,0.0028112
1,10.2,0,0.00271487
1,10.3,0,0.00261381
1,10.4,0,0.00252767
1,10.5,0,0.00242377
1,10.6,0,0.00232136
1,10.7,0,0.00222986
1,10.8,0,0.00211961
1,10.9,0,0.00201575
1,11,0,0.00191761
1,11.1,0,0.00180403
1,11.2,0,0.00169859
1,11.3,0,0.00159408
1,11.4,0,0.00147871
1,11.5,0,0.00137157
1,11.6,0,0.001262
1,11.7,0,0.00114557
1,11.8,0,0.00103642
1,11.9,0,0.000923224
1,12,0,0.000806332
1,12.1,0,0.000695095
1,12.2,0,0.000579687
1,12.3,0,0.000462968
1,12.4,0,0.000349177
1,12.5,0,0.000232596
1,12.6,0,0.000115614
1,12.7,0,0
1.1,0,0,0
1.1,0.1,0,0.00011774
1.1,0.2,0,0.000237583
1.1,0.3,0,0.000354427
1.1,0.4,0,0.000472541
1.1,0.5,0,0.000591538
1.1,0.6,0,0.000705472
1.1,0.7,0,0.000823874
1.1,0.8,0,0.000938463
1.1,0.9,0,0.00105333
1.1,1,0,0.00117189
1.1,1.1,0,0.00128056
1.1,1.2,0,0.0013963
1.1,1.3,0,0.00150718
1.1,1.4,0,0.00161708
1.1,1.5,0,0.00173328
1.1,1.6,0,0.00183494
1.1,1.7,0,0.00194614
1.1,1.8,0,0.00205152
1.1,1.9,0,0.00215474
1.1,2,0,0.00226677
1.1,2.1,0,0.00235991
1.1,2.2,0,0.00246484
1.1,2.3,0,0.00256312
1.1,2.4,0,0.0026581
1.1,2.5,0,0.00276422
1.1,2.6,0,0.00284743
1.1,2.7,0,0.00294452
1.1,2.8,0,0.00303422
1.1,2.9,0,0.00311954
1.1,3,0,0.00321814
1.1,3.1,0,0.00329023
1.1,3.2,0,0.00337801
1.1,3.3,0,0.00345779
1.1,3.4,0,0.00353221
1.1,3.5,0,0.00362181
1.1,3.6,0,0.00368172
1.1,3.7,0,0.00375892
1.1,3.8,0,0.0038276
1.1,3.9,0,0.00389004
1.1,4,0,0.00396932
1.1,4.1,0,0.0040162
1.1,4.2,0,0.00408168
1.1,4.3,0,0.00413828
1.1,4.4,0,0.00418784