x,y,z,U_0,U_1,U_2
0,0,0,2.99993,-0.0102101,0
0,0.1,0,2.99995,-0.00612603,0
0,0.2,0,2.99998,-0.00204201,0
0,0.3,0,3,0,0
0,0.4,0,3,0,0
0,0.5,0,3,0,0
0,0.6,0,3,0,0
0,0.7,0,3,0,0
0,0.8,0,3,0,0
0,0.9,0,3,0,0
0,1,0,3,0,0
0,1.1,0,3,0,0
0,1.2,0,3,0,0
0,1.3,0,3,0,0
0,1.4,0,3,0,0
0,1.5,0,3,0,0
0,1.6,0,3,0,0
0,1.7,0,3,0,0
0,1.8,0,3,0,0
0,1.9,0,3,0,0
0,2,0,3,0,0
0,2.1,0,3,0,0
0,2.2,0,3,0,0
0,2.3,0,3,0,0
0,2.4,0,3,0,0
0,2.5,0,3,0,0
0,2.6,0,3,0,0
0,2.7,0,3,0,0
0,2.8,0,3,0,0
0,2.9,0,3,0,0
0,3,0,3,0,0
0,3.1,0,3,0,0
0,3.2,0,3,0,0
0,3.3,0,3,0,0
0,3.4,0,3,0,0
0,3.5,0,3,0,0
0,3.6,0,3,0,0
0,3.7,0,3,0,0
0,3.8,0,3,0,0
0,3.9,0,3,0,0
0,4,0,3,0,0
0,4.1,0,3,0,0
0,4.2,0,3,0,0
0,4.3,0,3,0,0
0,4.4,0,3,0,0
0,4.5,0,3,0,0
0,4.6,0,3,0,0
0,4.7,0,3,0,0
0,4.8,0,3,0,0
0,4.9,0,3,0,0
0,5,0,3,0,0
0,5.1,0,3,0,0
0,5.2,0,3,0,0
0,5.3,0,3,0,0
0,5.4,0,3,0,0
0,5.5,0,3,0,0
0,5.6,0,3,0,0
0,5.7,0,3,0,0
0,5.8,0,3,0,0
0,5.9,0,3,0,0
0,6,0,3,0,0
0,6.1,0,3,0,0
0,6.2,0,3,0,0
0,6.3,0,3,0,0
0,6.4,0,3,0,0
0,6.5,0,3,0,0
0,6.6,0,3,0,0
0,6.7,0,3,0,0
0,6.8,0,3,0,0
0,6.9,0,3,0,0
0,7,0,3,0,0
0,7.1,0,3,0,0
0,7.2,0,3,0,0
0,7.3,0,3,0,0
0,7.4,0,3,0,0
0,7.5,0,3,0,0
0,7.6,0,3,0,0
0,7.7,0,3,0,0
0,7.8,0,3,0,0
0,7.9,0,3,0,0
0,8,0,3,0,0
0,8.1,0,3,0,0
0,8.2,0,3,0,0
0,8.3,0,3,0,0
0,8.4,0,3,0,0
0,8.5,0,3,0,0
0,8.6,0,3,0,0
0,8.7,0,3,0,0
0,8.8,0,3,0,0
0,8.9,0,3,0,0
0,9,0,3,0,0
0,9.1,0,3,0,0
0,9.2,0,3,0,0
0,9.3,0,3,0,0
0,9.4,0,3,0,0
0,9.5,0,3,0,0
0,9.6,0,3,0,0
0,9.7,0,3,0,0
0,9.8,0,3,0,0
0,9.9,0,3,0,0
0,10,0,3,0,0
0,10.1,0,3,0,0
0,10.2,0,3,0,0
0,10.3,0,3,0,0
0,10.4,0,3,0,0
0,10.5,0,3,0,0
0,10.6,0,3,0,0
0,10.7,0,3,0,0
0,10.8,0,3,0,0
0,10.9,0,3,0,0
0,11,0,3,0,0
0,11.1,0,3,0,0
0,11.2,0,3,0,0
0,11.3,0,3,0,0
0,11.4,0,3,0,0
0,11.5,0,3,0,0
0,11.6,0,3,0,0
0,11.7,0,3,0,0
0,11.8,0,3,0,0
0,11.9,0,3,0,0
0,12,0,3,0,0
0,12.1,0,3,0,0
0,12.2,0,3,0,0
0,12.3,0,3,0,0
0,12.4,0,3,0,0
0,12.5,0,3,0.00194211,0
0,12.6,0,3.00001,0.00422694,0
0,12.7,0,3.00001,0.00651177,0
0.1,0,0,2.99994,-0.0221634,0
0.1,0.1,0,2.99987,-0.0183781,0
0.1,0.2,0,2.99993,-0.0161824,0
0.1,0.3,0,2.99992,-0.0161534,0
0.1,0.4,0,2.99986,-0.0162781,0
0.1,0.5,0,2.99996,-0.0160023,0
0.1,0.6,0,3.00012,-0.0161974,0
0.1,0.7,0,3.00003,-0.0160837,0
0.1,0.8,0,2.9999,-0.0160227,0
0.1,0.9,0,2.99986,-0.0160754,0
0.1,1,0,2.99993,-0.0159471,0
0.1,1.1,0,3.00016,-0.0156377,0
0.1,1.2,0,3.00005,-0.0157578,0
0.1,1.3,0,2.99977,-0.0157598,0
0.1,1.4,0,2.99959,-0.0156418,0
0.1,1.5,0,2.99995,-0.0157363,0
0.1,1.6,0,2.99976,-0.0160871,0
0.1,1.7,0,2.99984,-0.0158559,0
0.1,1.8,0,2.99998,-0.0152602,0
0.1,1.9,0,3.00005,-0.0148958,0
0.1,2,0,2.99991,-0.0154558,0
0.1,2.1,0,2.99973,-0.0154325,0
0.1,2.2,0,2.99981,-0.0152977,0
0.1,2.3,0,3.00001,-0.0149962,0
0.1,2.4,0,3.00012,-0.0148294,0
0.1,2.5,0,2.99984,-0.0147955,0
0.1,2.6,0,2.99988,-0.0146772,0
0.1,2.7,0,2.99983,-0.0144993,0
0.1,2.8,0,3.00007,-0.0142338,0
0.1,2.9,0,3.00035,-0.0141462,0
0.1,3,0,2.99969,-0.0137599,0
0.1,3.1,0,3.00035,-0.0134018,0
0.1,3.2,0,2.99998,-0.0132574,0
0.1,3.3,0,3.00026,-0.0127209,0
0.1,3.4,0,3.00092,-0.0123288,0
0.1,3.5,0,2.99954,-0.0123287,0
0.1,3.6,0,3.00046,-0.0111482,0
0.1,3.7,0,2.99995,-0.0112634,0
0.1,3.8,0,3.00003,-0.0107648,0
0.1,3.9,0,3.00063,-0.010151,0
0.1,4,0,2.99926,-0.0103812,0
0.1,4.1,0,3.00182,-0.00720305,0
0.1,4.2,0,3.00045,-0.00827344,0
0.1,4.3,0,3.00148,-0.00688092,0
0.1,4.4,0,3.00387,-0.00441802,0
0.1,4.5,0,2.99894,-0.0082161,0
0.1,4.6,0,3.00714,-0.00082832,0
0.1,4.7,0,3.00301,-0.00391063,0
0.1,4.8,0,3.00367,-0.00219474,0
0.1,4.9,0,3.00846,0.00260347,0
0.1,5,0,2.99899,-0.0058773,0
0.1,5.1,0,2.99919,-0.00493469,0
0.1,5.2,0,2.99931,-0.00427551,0
0.1,5.3,0,2.99941,-0.00359966,0
0.1,5.4,0,2.99946,-0.0029068,0
0.1,5.5,0,2.99944,-0.00220122,0
0.1,5.6,0,2.99937,-0.00148893,0
0.1,5.7,0,2.99927,-0.000775785,0
0.1,5.8,0,2.9992,-6.547e-05,0
0.1,5.9,0,2.99921,0.000641778,0
0.1,6,0,2.99933,0.00134887,0
0.1,6.1,0,2.99953,0.00205991,0
0.1,6.2,0,2.99979,0.00277756,0
0.1,6.3,0,3.00006,0.00350104,0
0.1,6.4,0,3.00031,0.00422619,0
0.1,6.5,0,3.00053,0.00494474,0
0.1,6.6,0,3.00073,0.00564677,0
0.1,6.7,0,3.0009,0.0063179,0
0.1,6.8,0,3.00105,0.00694103,0
0.1,6.9,0,3.00119,0.00747511,0
0.1,7,0,3.00188,0.00847863,0
0.1,7.1,0,3.02046,-0.0208197,0
0.1,7.2,0,3.01751,-0.0161289,0
0.1,7.3,0,3.01976,0.00247274,0
0.1,7.4,0,3.14187,-0.0448456,0
0.1,7.5,0,3.08654,-0.0233624,0
0.1,7.6,0,3.05667,-0.00711529,0
0.1,7.7,0,3.21947,-0.0573215,0
0.1,7.8,0,3.10421,-0.021111,0
0.1,7.9,0,3.0719,-0.0193949,0
0.1,8,0,3.18709,-0.0685222,0
0.1,8.1,0,3.06346,-0.0143981,0
0.1,8.2,0,3.061,-0.032568,0
0.1,8.3,0,3.11892,-0.0752514,0
0.1,8.4,0,3.02349,-0.00389431,0
0.1,8.5,0,3.04095,-0.0388442,0
0.1,8.6,0,3.06161,-0.0645169,0
0.1,8.7,0,3.00256,0.00858984,0
0.1,8.8,0,3.02306,-0.0353276,0
0.1,8.9,0,3.02456,-0.0383757,0
0.1,9,0,2.99753,0.0127979,0
0.1,9.1,0,3.01145,-0.0249958,0
0.1,9.2,0,3.00815,-0.0159389,0
0.1,9.3,0,2.99876,0.00923772,0
0.1,9.4,0,3.00508,-0.0102071,0
0.1,9.5,0,3.00216,-0.000493264,0
0.1,9.6,0,2.99941,0.00938081,0
0.1,9.7,0,3.00198,0.00258307,0
0.1,9.8,0,3.00037,0.00778088,0
0.1,9.9,0,2.99983,0.0106415,0
0.1,10,0,3.00074,0.00910536,0
0.1,10.1,0,3.00001,0.0108468,0
0.1,10.2,0,3.00002,0.0115094,0
0.1,10.3,0,3.00027,0.0114274,0
0.1,10.4,0,3.00004,0.0114984,0
0.1,10.5,0,3.0001,0.0117113,0
0.1,10.6,0,3.00014,0.011762,0
0.1,10.7,0,3.00013,0.0113899,0
0.1,10.8,0,3.0001,0.0115262,0
0.1,10.9,0,3.00011,0.0114733,0
0.1,11,0,3.00015,0.0111594,0
0.1,11.1,0,3.00011,0.0111692,0
0.1,11.2,0,3.00011,0.0110829,0
0.1,11.3,0,3.00012,0.0108989,0
0.1,11.4,0,3.0001,0.0108371,0
0.1,11.5,0,3.00009,0.0107706,0
0.1,11.6,0,3.0001,0.0106702,0
0.1,11.7,0,3.00014,0.0106212,0
0.1,11.8,0,3.00008,0.0105677,0
0.1,11.9,0,3.00009,0.0105091,0
0.1,12,0,3.00015,0.0104836,0
0.1,12.1,0,3.00005,0.0104386,0
0.1,12.2,0,3.00008,0.0104003,0
0.1,12.3,0,3.00012,0.0103863,0
0.1,12.4,0,3.00001,0.0103744,0
0.1,12.5,0,3.00001,0.0103733,0
0.1,12.6,0,3.00002,0.0119948,0
0.1,12.7,0,3,0.0142729,0
0.2,0,0,2.99996,-0.0341168,0
0.2,0.1,0,2.99992,-0.0322199,0
0.2,0.2,0,2.99991,-0.0322112,0
0.2,0.3,0,2.9999,-0.0321822,0
0.2,0.4,0,2.99988,-0.0321557,0
0.2,0.5,0,2.99992,-0.0320046,0
0.2,0.6,0,2.99999,-0.0320861,0
0.2,0.7,0,2.99998,-0.0320538,0
0.2,0.8,0,2.99985,-0.0319928,0
0.2,0.9,0,2.99984,-0.0319698,0
0.2,1,0,2.99987,-0.0318942,0
0.2,1.1,0,2.99999,-0.0317048,0
0.2,1.2,0,3,-0.0316356,0
0.2,1.3,0,2.99972,-0.0316376,0
0.2,1.4,0,2.99972,-0.0314961,0
0.2,1.5,0,2.99989,-0.0314725,0
0.2,1.6,0,2.99978,-0.0315921,0
0.2,1.7,0,2.99975,-0.0314805,0
0.2,1.8,0,2.99989,-0.0308849,0
0.2,1.9,0,2.99989,-0.030716,0
0.2,2,0,2.99983,-0.0309115,0
0.2,2.1,0,2.99972,-0.0307535,0
0.2,2.2,0,2.9997,-0.0304607,0
0.2,2.3,0,2.9999,-0.0301592,0
0.2,2.4,0,2.99985,-0.0297917,0
0.2,2.5,0,2.99969,-0.029591,0
0.2,2.6,0,2.99967,-0.0292948,0
0.2,2.7,0,2.99961,-0.0288207,0
0.2,2.8,0,2.99984,-0.0285552,0
0.2,2.9,0,2.99976,-0.0279937,0
0.2,3,0,2.99939,-0.0275197,0
0.2,3.1,0,2.99968,-0.0270173,0
0.2,3.2,0,2.99959,-0.0263705,0
0.2,3.3,0,2.99987,-0.025834,0
0.2,3.4,0,2.9998,-0.0250497,0
0.2,3.5,0,2.99907,-0.0246575,0
0.2,3.6,0,2.99948,-0.0235922,0
0.2,3.7,0,2.99938,-0.022642,0
0.2,3.8,0,2.99946,-0.0221434,0
0.2,3.9,0,2.99929,-0.021146,0
0.2,4,0,2.99851,-0.0207625,0
0.2,4.1,0,2.99971,-0.0186547,0
0.2,4.2,0,2.99953,-0.0176173,0
0.2,4.3,0,3.00056,-0.0162248,0
0.2,4.4,0,3.00042,-0.015097,0
0.2,4.5,0,2.99788,-0.0164322,0
0.2,4.6,0,3.00195,-0.0121267,0
0.2,4.7,0,3.00189,-0.0109036,0
0.2,4.8,0,3.00255,-0.00918768,0
0.2,4.9,0,3.00266,-0.00807203,0
0.2,5,0,2.99798,-0.0117546,0
0.2,5.1,0,2.99837,-0.00986937,0
0.2,5.2,0,2.99863,-0.00855102,0
0.2,5.3,0,2.99882,-0.00719931,0
0.2,5.4,0,2.99891,-0.0058136,0
0.2,5.5,0,2.99887,-0.00440244,0
0.2,5.6,0,2.99873,-0.00297785,0
0.2,5.7,0,2.99854,-0.00155157,0
0.2,5.8,0,2.9984,-0.00013094,0
0.2,5.9,0,2.99843,0.00128356,0
0.2,6,0,2.99866,0.00269774,0
0.2,6.1,0,2.99906,0.00411982,0
0.2,6.2,0,2.99958,0.00555511,0
0.2,6.3,0,3.00012,0.00700207,0
0.2,6.4,0,3.00062,0.00845238,0
0.2,6.5,0,3.00107,0.00988948,0
0.2,6.6,0,3.00146,0.0112935,0
0.2,6.7,0,3.0018,0.0126358,0
0.2,6.8,0,3.0021,0.0138821,0
0.2,6.9,0,3.00237,0.0149502,0
0.2,7,0,3.00376,0.0169573,0
0.2,7.1,0,3.01412,0.00069611,0
0.2,7.2,0,3.01357,0.00171678,0
0.2,7.3,0,3.02102,0.0121149,0
0.2,7.4,0,3.07143,-0.00736256,0
0.2,7.5,0,3.06903,-0.00633333,0
0.2,7.6,0,3.05519,0.00370022,0
0.2,7.7,0,3.1064,-0.0112663,0
0.2,7.8,0,3.10099,-0.00846648,0
0.2,7.9,0,3.06867,-0.00675041,0
0.2,8,0,3.0886,-0.0135856,0
0.2,8.1,0,3.0601,0.000459968,0
0.2,8.2,0,3.05442,-0.0153046,0
0.2,8.3,0,3.05446,-0.0141715,0
0.2,8.4,0,3.02017,0.0122555,0
0.2,8.5,0,3.02701,-0.00953518,0
0.2,8.6,0,3.02699,-0.00975388,0
0.2,8.7,0,2.99922,0.0244904,0
0.2,8.8,0,3.01009,-0.000994543,0
0.2,8.9,0,3.01025,-0.00205851,0
0.2,9,0,2.99437,0.0274855,0
0.2,9.1,0,3.00185,0.00728004,0
0.2,9.2,0,3.00236,0.00612858,0
0.2,9.3,0,2.99618,0.0226126,0
0.2,9.4,0,2.99914,0.0144159,0
0.2,9.5,0,2.99989,0.0135541,0
0.2,9.6,0,2.99769,0.0217733,0
0.2,9.7,0,2.99897,0.0195034,0
0.2,9.8,0,2.99948,0.0196226,0
0.2,9.9,0,2.99893,0.0224832,0
0.2,10,0,2.99951,0.022133,0
0.2,10.1,0,2.9997,0.0224652,0
0.2,10.2,0,2.99969,0.0231338,0
0.2,10.3,0,2.99996,0.0230418,0
0.2,10.4,0,3.00004,0.0230118,0
0.2,10.5,0,3.00009,0.0231392,0
0.2,10.6,0,3.00021,0.0230146,0
0.2,10.7,0,3.00025,0.0227613,0
0.2,10.8,0,3.00024,0.0227646,0
0.2,10.9,0,3.00027,0.0225779,0
0.2,11,0,3.0003,0.0223179,0
0.2,11.1,0,3.00027,0.0222099,0
0.2,11.2,0,3.00024,0.0219974,0
0.2,11.3,0,3.00024,0.0218152,0
0.2,11.4,0,3.00021,0.021662,0
0.2,11.5,0,3.00017,0.0214695,0
0.2,11.6,0,3.00018,0.021367,0
0.2,11.7,0,3.00016,0.0212364,0
0.2,11.8,0,3.00012,0.0211005,0
0.2,11.9,0,3.00014,0.0210418,0
0.2,12,0,3.00012,0.0209462,0
0.2,12.1,0,3.00007,0.0208611,0
0.2,12.2,0,3.00008,0.0208213,0
0.2,12.3,0,3.00007,0.0207774,0
0.2,12.4,0,3.00001,0.0207469,0
0.2,12.5,0,3,0.020744,0
0.2,12.6,0,3,0.020738,0
0.2,12.7,0,2.99998,0.022034,0
0.3,0,0,2.99997,-0.048062,0
0.3,0.1,0,3.00001,-0.0479586,0
0.3,0.2,0,3,-0.04795,0
0.3,0.3,0,2.99999,-0.0479445,0
0.3,0.4,0,2.99997,-0.047918,0
0.3,0.5,0,2.9999,-0.0479928,0
0.3,0.6,0,2.99977,-0.0478575,0
0.3,0.7,0,2.99975,-0.0478253,0
0.3,0.8,0,2.99986,-0.0478287,0
0.3,0.9,0,2.99985,-0.0478057,0
0.3,1,0,2.99982,-0.047845,0
0.3,1.1,0,2.99968,-0.0479442,0
0.3,1.2,0,2.99969,-0.047875,0
0.3,1.3,0,3.00007,-0.0476301,0
0.3,1.4,0,3.00006,-0.0474885,0
0.3,1.5,0,2.99981,-0.0472445,0
0.3,1.6,0,2.99987,-0.0468159,0
0.3,1.7,0,2.99983,-0.0467043,0
0.3,1.8,0,2.99965,-0.0471767,0
0.3,1.9,0,2.99965,-0.0470078,0
0.3,2,0,2.99962,-0.046312,0
0.3,2.1,0,2.99984,-0.0459564,0
0.3,2.2,0,2.99982,-0.0456636,0
0.3,2.3,0,2.9995,-0.0453462,0
0.3,2.4,0,2.99945,-0.0449787,0
0.3,2.5,0,2.99931,-0.0443287,0
0.3,2.6,0,2.99944,-0.0437832,0
0.3,2.7,0,2.99938,-0.0433091,0
0.3,2.8,0,2.99895,-0.042529,0
0.3,2.9,0,2.99887,-0.0419675,0
0.3,3,0,2.99878,-0.0412805,0
0.3,3.1,0,2.99864,-0.0405349,0
0.3,3.2,0,2.99856,-0.0398881,0
0.3,3.3,0,2.99808,-0.0390379,0
0.3,3.4,0,2.998,-0.0382536,0
0.3,3.5,0,2.99821,-0.0370394,0
0.3,3.6,0,2.99804,-0.0362262,0
0.3,3.7,0,2.99794,-0.035276,0
0.3,3.8,0,2.99754,-0.0337246,0
0.3,3.9,0,2.99736,-0.0327272,0
0.3,4,0,2.99724,-0.0312521,0
0.3,4.1,0,2.99621,-0.0312444,0
0.3,4.2,0,2.99603,-0.030207,0
0.3,4.3,0,2.99471,-0.0293893,0
0.3,4.4,0,2.99456,-0.0282616,0
0.3,4.5,0,2.99626,-0.0245449,0
0.3,4.6,0,2.99254,-0.0265803,0
0.3,4.7,0,2.99248,-0.0253571,0
0.3,4.8,0,2.99186,-0.0244811,0
0.3,4.9,0,2.99198,-0.0233654,0
0.3,5,0,2.99641,-0.01726,0
0.3,5.1,0,2.99684,-0.014413,0
0.3,5.2,0,2.99711,-0.0124321,0
0.3,5.3,0,2.99732,-0.0104064,0
0.3,5.4,0,2.99744,-0.00833616,0
0.3,5.5,0,2.99743,-0.00623101,0
0.3,5.6,0,2.99735,-0.00410435,0
0.3,5.7,0,2.99722,-0.00196983,0
0.3,5.8,0,2.99717,0.000162547,0
0.3,5.9,0,2.99729,0.00228876,0
0.3,6,0,2.99761,0.00441055,0
0.3,6.1,0,2.9981,0.00653226,0
0.3,6.2,0,2.99871,0.00865614,0
0.3,6.3,0,2.99935,0.0107782,0
0.3,6.4,0,2.99997,0.0128874,0
0.3,6.5,0,3.00055,0.0149643,0
0.3,6.6,0,3.0011,0.016986,0
0.3,6.7,0,3.00163,0.0189211,0
0.3,6.8,0,3.00215,0.0207344,0
0.3,6.9,0,3.00272,0.0223432,0
0.3,7,0,3.00492,0.0251014,0
0.3,7.1,0,2.99593,0.0438699,0
0.3,7.2,0,2.99539,0.0448906,0
0.3,7.3,0,2.98571,0.0358453,0
0.3,7.4,0,2.92973,0.0577994,0
0.3,7.5,0,2.92733,0.0588287,0
0.3,7.6,0,2.93819,0.0504457,0
0.3,7.7,0,2.88085,0.0690009,0
0.3,7.8,0,2.88344,0.0693315,0
0.3,7.9,0,2.91615,0.0712447,0
0.3,8,0,2.89467,0.0825691,0
0.3,8.1,0,2.92431,0.0711429,0
0.3,8.2,0,2.92889,0.0917467,0
0.3,8.3,0,2.92893,0.0928798,0
0.3,8.4,0,2.96469,0.0659026,0
0.3,8.5,0,2.95636,0.0907054,0
0.3,8.6,0,2.95634,0.0904867,0
0.3,8.7,0,2.98526,0.0525318,0
0.3,8.8,0,2.97329,0.0787965,0
0.3,8.9,0,2.97345,0.0777325,0
0.3,9,0,2.99067,0.0441753,0
0.3,9.1,0,2.98321,0.0636251,0
0.3,9.2,0,2.98372,0.0624736,0
0.3,9.3,0,2.99154,0.0435055,0
0.3,9.4,0,2.98968,0.0501749,0
0.3,9.5,0,2.99043,0.0493131,0
0.3,9.6,0,2.99437,0.0398282,0
0.3,9.7,0,2.99447,0.0409382,0
0.3,9.8,0,2.99544,0.0399452,0
0.3,9.9,0,2.99727,0.0364975,0
0.3,10,0,2.99772,0.0363764,0
0.3,10.1,0,2.99853,0.035866,0
0.3,10.2,0,2.99922,0.0348311,0
0.3,10.3,0,2.99949,0.0347391,0
0.3,10.4,0,2.99995,0.0347588,0
0.3,10.5,0,3.00013,0.034273,0
0.3,10.6,0,3.00025,0.0341484,0
0.3,10.7,0,3.00047,0.0342343,0
0.3,10.8,0,3.00046,0.0337635,0
0.3,10.9,0,3.00049,0.0335768,0
0.3,11,0,3.00055,0.0335044,0
0.3,11.1,0,3.00045,0.0331179,0
0.3,11.2,0,3.00042,0.0329055,0
0.3,11.3,0,3.00042,0.0327011,0
0.3,11.4,0,3.00031,0.0324123,0
0.3,11.5,0,3.00027,0.0322197,0
0.3,11.6,0,3.00022,0.0319949,0
0.3,11.7,0,3.00013,0.0318148,0
0.3,11.8,0,3.00013,0.0316666,0
0.3,11.9,0,3.00004,0.0314922,0
0.3,12,0,3.00002,0.0313941,0
0.3,12.1,0,3.00006,0.0312587,0
0.3,12.2,0,2.99997,0.0311936,0
0.3,12.3,0,2.99996,0.0311498,0
0.3,12.4,0,3.00001,0.0310043,0
0.3,12.5,0,2.99997,0.0311021,0
0.3,12.6,0,2.99996,0.0310962,0
0.3,12.7,0,3,0.0308962,0
0.4,0,0,2.99997,-0.063999,0
0.4,0.1,0,3.00006,-0.0638008,0
0.4,0.2,0,3,-0.063904,0
0.4,0.3,0,2.99999,-0.0638985,0
0.4,0.4,0,3.00001,-0.0637907,0
0.4,0.5,0,2.99989,-0.0639667,0
0.4,0.6,0,2.99965,-0.0637285,0
0.4,0.7,0,2.99973,-0.0638039,0
0.4,0.8,0,2.99984,-0.0638073,0
0.4,0.9,0,2.99985,-0.0636981,0
0.4,1,0,2.99978,-0.0637997,0
0.4,1.1,0,2.99949,-0.0640673,0
0.4,1.2,0,2.99965,-0.0637694,0
0.4,1.3,0,3.00002,-0.0635245,0
0.4,1.4,0,3.0002,-0.0633986,0
0.4,1.5,0,2.99969,-0.063052,0
0.4,1.6,0,2.99984,-0.0623066,0
0.4,1.7,0,2.99962,-0.0623133,0
0.4,1.8,0,2.99944,-0.0627857,0
0.4,1.9,0,2.99936,-0.06288,0
0.4,2,0,2.9993,-0.0616573,0
0.4,2.1,0,2.99976,-0.0612388,0
0.4,2.2,0,2.99937,-0.0607134,0
0.4,2.3,0,2.99905,-0.0603959,0
0.4,2.4,0,2.99895,-0.0599411,0
0.4,2.5,0,2.99871,-0.0590086,0
0.4,2.6,0,2.99905,-0.0583916,0
0.4,2.7,0,2.99863,-0.0575706,0
0.4,2.8,0,2.9982,-0.0567906,0
0.4,2.9,0,2.99796,-0.0558546,0
0.4,3,0,2.99787,-0.0550421,0
0.4,3.1,0,2.99767,-0.0541978,0
0.4,3.2,0,2.99748,-0.0530443,0
0.4,3.3,0,2.997,-0.0521941,0
0.4,3.4,0,2.99646,-0.0511186,0
0.4,3.5,0,2.99695,-0.0494745,0
0.4,3.6,0,2.99671,-0.0487982,0
0.4,3.7,0,2.99641,-0.046884,0
0.4,3.8,0,2.99602,-0.0453326,0
0.4,3.9,0,2.99551,-0.043803,0
0.4,4,0,2.99544,-0.04185,0
0.4,4.1,0,2.99354,-0.0428721,0
0.4,4.2,0,2.994,-0.0395914,0
0.4,4.3,0,2.99268,-0.0387737,0
0.4,4.4,0,2.99056,-0.0388598,0
0.4,4.5,0,2.99411,-0.0325541,0
0.4,4.6,0,2.98671,-0.037848,0
0.4,4.7,0,2.99034,-0.0318128,0
0.4,4.8,0,2.98973,-0.0309368,0
0.4,4.9,0,2.98553,-0.0334888,0
0.4,5,0,2.99428,-0.0223936,0
0.4,5.1,0,2.9946,-0.0185657,0
0.4,5.2,0,2.99477,-0.0159189,0
0.4,5.3,0,2.99491,-0.013221,0
0.4,5.4,0,2.99503,-0.0104745,0
0.4,5.5,0,2.99512,-0.00768691,0
0.4,5.6,0,2.99521,-0.00486842,0
0.4,5.7,0,2.99533,-0.00203055,0
0.4,5.8,0,2.99551,0.000814991,0
0.4,5.9,0,2.99579,0.00365738,0
0.4,6,0,2.99618,0.0064873,0
0.4,6.1,0,2.99665,0.00929722,0
0.4,6.2,0,2.99719,0.0120807,0
0.4,6.3,0,2.99776,0.0148293,0
0.4,6.4,0,2.99837,0.0175313,0
0.4,6.5,0,2.99899,0.0201692,0
0.4,6.6,0,2.99966,0.0227242,0
0.4,6.7,0,3.00039,0.0251738,0
0.4,6.8,0,3.00121,0.027498,0
0.4,6.9,0,3.00223,0.029654,0
0.4,7,0,3.00535,0.0329111,0
0.4,7.1,0,2.98999,0.0650683,0
0.4,7.2,0,2.99444,0.0617314,0
0.4,7.3,0,2.98981,0.0440698,0
0.4,7.4,0,2.86117,0.0944217,0
0.4,7.5,0,2.91891,0.0734931,0
0.4,7.6,0,2.94687,0.0586286,0
0.4,7.7,0,2.77173,0.112824,0
0.4,7.8,0,2.89217,0.0764803,0
0.4,7.9,0,2.92487,0.0783935,0
0.4,8,0,2.80104,0.134148,0
0.4,8.1,0,2.92967,0.0777836,0
0.4,8.2,0,2.9308,0.101051,0
0.4,8.3,0,2.86745,0.150549,0
0.4,8.4,0,2.96649,0.073603,0
0.4,8.5,0,2.94673,0.113136,0
0.4,8.6,0,2.92325,0.1425,0
0.4,8.7,0,2.98481,0.0619911,0
0.4,8.8,0,2.96225,0.108677,0
0.4,8.9,0,2.9602,0.111778,0
0.4,9,0,2.9893,0.0552413,0
0.4,9.1,0,2.97447,0.0937076,0
0.4,9.2,0,2.97872,0.083668,0
0.4,9.3,0,2.99005,0.0558446,0
0.4,9.4,0,2.98419,0.0741491,0
0.4,9.5,0,2.98871,0.0638606,0
0.4,9.6,0,2.99324,0.052791,0
0.4,9.7,0,2.99181,0.05802,0
0.4,9.8,0,2.99488,0.0528592,0
0.4,9.9,0,2.99672,0.0494116,0
0.4,10,0,2.99678,0.0497695,0
0.4,10.1,0,2.99848,0.0483685,0
0.4,10.2,0,2.99914,0.0472766,0
0.4,10.3,0,2.99941,0.0466258,0
0.4,10.4,0,3.00018,0.046793,0
0.4,10.5,0,3.00034,0.0461346,0
0.4,10.6,0,3.00049,0.045594,0
0.4,10.7,0,3.00081,0.0458744,0
0.4,10.8,0,3.00078,0.0451986,0
0.4,10.9,0,3.00083,0.0448207,0
0.4,11,0,3.00092,0.0448375,0
0.4,11.1,0,3.00074,0.0442548,0
0.4,11.2,0,3.00077,0.0439484,0
0.4,11.3,0,3.00079,0.0437687,0
0.4,11.4,0,3.00054,0.0432817,0
0.4,11.5,0,3.00059,0.0430094,0
0.4,11.6,0,3.00054,0.0427863,0
0.4,11.7,0,3.00026,0.0424199,0
0.4,11.8,0,3.00038,0.0421731,0
0.4,11.9,0,3.0003,0.0419988,0
0.4,12,0,3.00006,0.041771,0
0.4,12.1,0,3.00023,0.0415195,0
0.4,12.2,0,3.00011,0.041463,0
0.4,12.3,0,2.99995,0.0413494,0
0.4,12.4,0,3.0001,0.0410643,0
0.4,12.5,0,3.00002,0.0412336,0
0.4,12.6,0,2.99997,0.0412058,0
0.4,12.7,0,3.00004,0.0408595,0
0.5,0,0,2.99998,-0.079936,0
0.5,0.1,0,2.99996,-0.0799444,0
0.5,0.2,0,2.99995,-0.0799528,0
0.5,0.3,0,2.99993,-0.0799538,0
0.5,0.4,0,2.9999,-0.0799472,0
0.5,0.5,0,2.99987,-0.0799407,0
0.5,0.6,0,2.99984,-0.0799131,0
0.5,0.7,0,2.99981,-0.0798856,0
0.5,0.8,0,2.99978,-0.0798483,0
0.5,0.9,0,2.99977,-0.0798013,0
0.5,1,0,2.99975,-0.0797543,0
0.5,1.1,0,2.99976,-0.0796248,0
0.5,1.2,0,2.99976,-0.0794953,0
0.5,1.3,0,2.99972,-0.0793164,0
0.5,1.4,0,2.99965,-0.079088,0
0.5,1.5,0,2.99957,-0.0788596,0
0.5,1.6,0,2.99945,-0.0785494,0
0.5,1.7,0,2.99932,-0.0782392,0
0.5,1.8,0,2.9992,-0.0778678,0
0.5,1.9,0,2.99909,-0.0774352,0
0.5,2,0,2.99898,-0.0770026,0
0.5,2.1,0,2.99883,-0.0764143,0
0.5,2.2,0,2.99868,-0.075826,0
0.5,2.3,0,2.9985,-0.0751632,0
0.5,2.4,0,2.9983,-0.0744259,0
0.5,2.5,0,2.99811,-0.0736885,0
0.5,2.6,0,2.99789,-0.0727961,0
0.5,2.7,0,2.99768,-0.0719036,0
0.5,2.8,0,2.99745,-0.0709266,0
0.5,2.9,0,2.99721,-0.0698652,0
0.5,3,0,2.99696,-0.0688037,0
0.5,3.1,0,2.99672,-0.0675515,0
0.5,3.2,0,2.99646,-0.0662993,0
0.5,3.3,0,2.99621,-0.0649205,0
0.5,3.4,0,2.99595,-0.063415,0
0.5,3.5,0,2.99568,-0.0619096,0
0.5,3.6,0,2.99532,-0.0601324,0
0.5,3.7,0,2.99496,-0.0583551,0
0.5,3.8,0,2.99455,-0.0564628,0
0.5,3.9,0,2.99409,-0.0544554,0
0.5,4,0,2.99364,-0.052448,0
0.5,4.1,0,2.99323,-0.0501971,0
0.5,4.2,0,2.99283,-0.0479461,0
0.5,4.3,0,2.99249,-0.0455692,0
0.5,4.4,0,2.99222,-0.0430662,0
0.5,4.5,0,2.99194,-0.0405632,0
0.5,4.6,0,2.99191,-0.0377866,0
0.5,4.7,0,2.99188,-0.0350099,0
0.5,4.8,0,2.99192,-0.0324027,0
0.5,4.9,0,2.99204,-0.0299649,0
0.5,5,0,2.99215,-0.0275272,0
0.5,5.1,0,2.99236,-0.0227183,0
0.5,5.2,0,2.99243,-0.0194056,0
0.5,5.3,0,2.9925,-0.0160356,0
0.5,5.4,0,2.99262,-0.0126128,0
0.5,5.5,0,2.9928,-0.00914282,0
0.5,5.6,0,2.99308,-0.00563249,0
0.5,5.7,0,2.99343,-0.00209128,0
0.5,5.8,0,2.99385,0.00146743,0
0.5,5.9,0,2.9943,0.00502601,0
0.5,6,0,2.99475,0.00856405,0
0.5,6.1,0,2.9952,0.0120622,0
0.5,6.2,0,2.99566,0.0155052,0
0.5,6.3,0,2.99618,0.0188804,0
0.5,6.4,0,2.99676,0.0221751,0
0.5,6.5,0,2.99744,0.0253741,0
0.5,6.6,0,2.99822,0.0284624,0
0.5,6.7,0,2.99915,0.0314265,0
0.5,6.8,0,3.00027,0.0342616,0
0.5,6.9,0,3.00174,0.0369648,0
0.5,7,0,3.00578,0.0407208,0
0.5,7.1,0,3.00845,0.0421054,0
0.5,7.2,0,3.01113,0.0434899,0
0.5,7.3,0,3.01365,0.0448157,0
0.5,7.4,0,3.01526,0.0458084,0
0.5,7.5,0,3.01688,0.0468011,0
0.5,7.6,0,3.01757,0.0477052,0
0.5,7.7,0,3.01607,0.0484025,0
0.5,7.8,0,3.01457,0.0490998,0
0.5,7.9,0,3.01236,0.0501565,0
0.5,8,0,3.00929,0.0516525,0
0.5,8.1,0,3.00621,0.0531485,0
0.5,8.2,0,3.00314,0.0549845,0
0.5,8.3,0,3.00006,0.0570472,0
0.5,8.4,0,2.99698,0.0591098,0
0.5,8.5,0,2.99471,0.0606187,0
0.5,8.6,0,2.99271,0.0619429,0
0.5,8.7,0,2.99071,0.0632671,0
0.5,8.8,0,2.98993,0.0637104,0
0.5,8.9,0,2.98928,0.0640558,0
0.5,9,0,2.98868,0.0643822,0
0.5,9.1,0,2.98909,0.0643475,0
0.5,9.2,0,2.9895,0.0643128,0
0.5,9.3,0,2.99003,0.0642221,0
0.5,9.4,0,2.9911,0.0639075,0
0.5,9.5,0,2.99217,0.0635928,0
0.5,9.6,0,2.99329,0.0632042,0
0.5,9.7,0,2.99453,0.0626783,0
0.5,9.8,0,2.99576,0.0621523,0
0.5,9.9,0,2.99686,0.0616109,0
0.5,10,0,2.99781,0.061054,0
0.5,10.1,0,2.99876,0.0604971,0
0.5,10.2,0,2.99943,0.0599753,0
0.5,10.3,0,2.99995,0.0594725,0
0.5,10.4,0,3.00047,0.0589697,0
0.5,10.5,0,3.00074,0.0584928,0
0.5,10.6,0,3.00095,0.0580224,0
0.5,10.7,0,3.00116,0.057552,0
0.5,10.8,0,3.00122,0.0570953,0
0.5,10.9,0,3.00127,0.0566393,0
0.5,11,0,3.00132,0.0561843,0
0.5,11.1,0,3.00129,0.055739,0
0.5,11.2,0,3.00126,0.0552937,0
0.5,11.3,0,3.00121,0.054851,0
0.5,11.4,0,3.00113,0.0544162,0
0.5,11.5,0,3.00105,0.0539814,0
0.5,11.6,0,3.00096,0.053563,0
0.5,11.7,0,3.00087,0.0531692,0
0.5,11.8,0,3.00078,0.0527755,0
0.5,11.9,0,3.00068,0.0524265,0
0.5,12,0,3.00059,0.0521143,0
0.5,12.1,0,3.00049,0.051802,0
0.5,12.2,0,3.0004,0.0515544,0
0.5,12.3,0,3.00031,0.0513344,0
0.5,12.4,0,3.00022,0.0511144,0
0.5,12.5,0,3.00017,0.0510043,0
0.5,12.6,0,3.00013,0.0509135,0
0.5,12.7,0,3.00009,0.0508228,0
0.6,0,0,3.00001,-0.0962098,0
0.6,0.1,0,2.9999,-0.0960712,0
0.6,0.2,0,2.99993,-0.0961387,0
0.6,0.3,0,2.99989,-0.0961779,0
0.6,0.4,0,2.99978,-0.0961505,0
0.6,0.5,0,2.99989,-0.0961283,0
0.6,0.6,0,3.00006,-0.0960929,0
0.6,0.7,0,2.9999,-0.0960279,0
0.6,0.8,0,2.99971,-0.0959741,0
0.6,0.9,0,2.99964,-0.0959482,0
0.6,1,0,2.99966,-0.095753,0
0.6,1.1,0,3.00003,-0.0953037,0
0.6,1.2,0,2.9998,-0.0952692,0
0.6,1.3,0,2.99942,-0.0951337,0
0.6,1.4,0,2.99923,-0.0948538,0
0.6,1.5,0,2.99927,-0.0945384,0
0.6,1.6,0,2.99901,-0.0948795,0
0.6,1.7,0,2.99888,-0.0941567,0
0.6,1.8,0,2.99884,-0.0929767,0
0.6,1.9,0,2.99883,-0.092148,0
0.6,2,0,2.99839,-0.0923259,0
0.6,2.1,0,2.99798,-0.0917434,0
0.6,2.2,0,2.99789,-0.0910451,0
0.6,2.3,0,2.99781,-0.0900323,0
0.6,2.4,0,2.99766,-0.089055,0
0.6,2.5,0,2.99723,-0.0885711,0
0.6,2.6,0,2.99677,-0.0873663,0
0.6,2.7,0,2.99658,-0.0864729,0
0.6,2.8,0,2.99655,-0.0853022,0
0.6,2.9,0,2.99648,-0.0840479,0
0.6,3,0,2.99565,-0.0829398,0
0.6,3.1,0,2.99574,-0.0811146,0
0.6,3.2,0,2.99517,-0.0798671,0
0.6,3.3,0,2.99516,-0.0780036,0
0.6,3.4,0,2.99546,-0.0760086,0
0.6,3.5,0,2.99373,-0.0747941,0
0.6,3.6,0,2.99409,-0.071713,0
0.6,3.7,0,2.99319,-0.0701653,0
0.6,3.8,0,2.9927,-0.0679158,0
0.6,3.9,0,2.9927,-0.0653216,0
0.6,4,0,2.99093,-0.0634997,0
0.6,4.1,0,2.99281,-0.0577953,0
0.6,4.2,0,2.99105,-0.0566993,0
0.6,4.3,0,2.99168,-0.0527419,0
0.6,4.4,0,2.99372,-0.0475035,0
0.6,4.5,0,2.98838,-0.0491557,0
0.6,4.6,0,2.99679,-0.0380417,0
0.6,4.7,0,2.99232,-0.0387359,0
0.6,4.8,0,2.99319,-0.0337419,0
0.6,4.9,0,2.99857,-0.0254466,0
0.6,5,0,2.98791,-0.0335594,0
0.6,5.1,0,2.98807,-0.0278266,0
0.6,5.2,0,2.98813,-0.0238462,0
0.6,5.3,0,2.98817,-0.0197779,0
0.6,5.4,0,2.9882,-0.0156292,0
0.6,5.5,0,2.98821,-0.0114125,0
0.6,5.6,0,2.98825,-0.007144,0
0.6,5.7,0,2.98833,-0.00284192,0
0.6,5.8,0,2.9885,0.00147506,0
0.6,5.9,0,2.98881,0.00578984,0
0.6,6,0,2.98925,0.0100879,0
0.6,6.1,0,2.98981,0.0143575,0
0.6,6.2,0,2.99045,0.0185888,0
0.6,6.3,0,2.99115,0.022771,0
0.6,6.4,0,2.99189,0.0268909,0
0.6,6.5,0,2.9927,0.0309326,0
0.6,6.6,0,2.9936,0.03488,0
0.6,6.7,0,2.9946,0.0387172,0
0.6,6.8,0,2.99575,0.0424324,0
0.6,6.9,0,2.99716,0.0460204,0
0.6,7,0,3.00142,0.0511063,0
0.6,7.1,0,3.02465,0.019222,0
0.6,7.2,0,3.02383,0.0258617,0
0.6,7.3,0,3.02928,0.0484952,0
0.6,7.4,0,3.17367,-0.00164151,0
0.6,7.5,0,3.11061,0.02241,0
0.6,7.6,0,3.07584,0.0396816,0
0.6,7.7,0,3.2632,-0.0165083,0
0.6,7.8,0,3.12895,0.0247665,0
0.6,7.9,0,3.08921,0.025234,0
0.6,8,0,3.21833,-0.0321739,0
0.6,8.1,0,3.07526,0.0331089,0
0.6,8.2,0,3.06938,0.0126333,0
0.6,8.3,0,3.13189,-0.0364158,0
0.6,8.4,0,3.0231,0.0501223,0
0.6,8.5,0,3.03976,0.0115923,0
0.6,8.6,0,3.06053,-0.0168471,0
0.6,8.7,0,2.99567,0.0693701,0
0.6,8.8,0,3.0163,0.0202882,0
0.6,8.9,0,3.01741,0.0173208,0
0.6,9,0,2.98933,0.0763921,0
0.6,9.1,0,3.0029,0.0354804,0
0.6,9.2,0,3.00016,0.0454631,0
0.6,9.3,0,2.99157,0.0735185,0
0.6,9.4,0,2.9975,0.054025,0
0.6,9.5,0,2.99606,0.0635133,0
0.6,9.6,0,2.99456,0.0736284,0
0.6,9.7,0,2.99738,0.0674592,0
0.6,9.8,0,2.99731,0.0713829,0
0.6,9.9,0,2.99783,0.0736711,0
0.6,10,0,2.99935,0.0722864,0
0.6,10.1,0,2.99964,0.0726015,0
0.6,10.2,0,3.00025,0.0726283,0
0.6,10.3,0,3.00095,0.0722478,0
0.6,10.4,0,3.00121,0.0712074,0
0.6,10.5,0,3.00145,0.070876,0
0.6,10.6,0,3.00167,0.07045,0
0.6,10.7,0,3.00188,0.0692464,0
0.6,10.8,0,3.00182,0.0689696,0
0.6,10.9,0,3.00187,0.0684026,0
0.6,11,0,3.00199,0.0673962,0
0.6,11.1,0,3.00192,0.0672238,0
0.6,11.2,0,3.00189,0.0665439,0
0.6,11.3,0,3.00185,0.0657007,0
0.6,11.4,0,3.00176,0.0655206,0
0.6,11.5,0,3.00167,0.0647746,0
0.6,11.6,0,3.00157,0.0640942,0
0.6,11.7,0,3.00147,0.0638552,0
0.6,11.8,0,3.00134,0.0631528,0
0.6,11.9,0,3.00122,0.0626242,0
0.6,12,0,3.00112,0.0623352,0
0.6,12.1,0,3.00094,0.0618453,0
0.6,12.2,0,3.00077,0.0614834,0
0.6,12.3,0,3.00066,0.0612314,0
0.6,12.4,0,3.00048,0.060998,0
0.6,12.5,0,3.0003,0.0605753,0
0.6,12.6,0,3.00022,0.0604271,0
0.6,12.7,0,3.00025,0.0606833,0
0.7,0,0,3.00004,-0.112484,0
0.7,0.1,0,2.99998,-0.112404,0
0.7,0.2,0,2.99997,-0.112384,0
0.7,0.3,0,2.99992,-0.112423,0
0.7,0.4,0,2.99987,-0.112359,0
0.7,0.5,0,2.9999,-0.112316,0
0.7,0.6,0,2.99995,-0.112243,0
0.7,0.7,0,2.99988,-0.112133,0
0.7,0.8,0,2.99968,-0.112079,0
0.7,0.9,0,2.9996,-0.111926,0
0.7,1,0,2.99957,-0.111752,0
0.7,1.1,0,2.9997,-0.111397,0
0.7,1.2,0,2.99961,-0.111138,0
0.7,1.3,0,2.99923,-0.111003,0
0.7,1.4,0,2.99904,-0.110584,0
0.7,1.5,0,2.99897,-0.110217,0
0.7,1.6,0,2.9987,-0.110146,0
0.7,1.7,0,2.99843,-0.109662,0
0.7,1.8,0,2.9984,-0.108481,0
0.7,1.9,0,2.99815,-0.107867,0
0.7,2,0,2.99781,-0.107649,0
0.7,2.1,0,2.99745,-0.106957,0
0.7,2.2,0,2.99716,-0.106154,0
0.7,2.3,0,2.99709,-0.105141,0
0.7,2.4,0,2.99674,-0.104177,0
0.7,2.5,0,2.99635,-0.103454,0
0.7,2.6,0,2.99591,-0.102248,0
0.7,2.7,0,2.99551,-0.101041,0
0.7,2.8,0,2.99549,-0.0998705,0
0.7,2.9,0,2.995,-0.0983768,0
0.7,3,0,2.99434,-0.0970758,0
0.7,3.1,0,2.99411,-0.0952554,0
0.7,3.2,0,2.99356,-0.0934397,0
0.7,3.3,0,2.99355,-0.0915762,0
0.7,3.4,0,2.99295,-0.0893826,0
0.7,3.5,0,2.99178,-0.0876786,0
0.7,3.6,0,2.9916,-0.084827,0
0.7,3.7,0,2.99088,-0.082205,0
0.7,3.8,0,2.99039,-0.0799555,0
0.7,3.9,0,2.98953,-0.0769601,0
0.7,4,0,2.98822,-0.0745514,0
0.7,4.1,0,2.98875,-0.0700019,0
0.7,4.2,0,2.98792,-0.0666075,0
0.7,4.3,0,2.98855,-0.0626501,0
0.7,4.4,0,2.98784,-0.0588314,0
0.7,4.5,0,2.98482,-0.0577483,0
0.7,4.6,0,2.98878,-0.0501051,0
0.7,4.7,0,2.98831,-0.0459328,0
0.7,4.8,0,2.98918,-0.0409388,0
0.7,4.9,0,2.98906,-0.0373364,0
0.7,5,0,2.98366,-0.0395916,0
0.7,5.1,0,2.98377,-0.0329348,0
0.7,5.2,0,2.98383,-0.0282868,0
0.7,5.3,0,2.98384,-0.0235202,0
0.7,5.4,0,2.98378,-0.0186456,0
0.7,5.5,0,2.98362,-0.0136823,0
0.7,5.6,0,2.98341,-0.00865551,0
0.7,5.7,0,2.98322,-0.00359256,0
0.7,5.8,0,2.98315,0.00148269,0
0.7,5.9,0,2.98332,0.00655368,0
0.7,6,0,2.98375,0.0116117,0
0.7,6.1,0,2.98442,0.0166527,0
0.7,6.2,0,2.98523,0.0216724,0
0.7,6.3,0,2.98612,0.0266617,0
0.7,6.4,0,2.98703,0.0316067,0
0.7,6.5,0,2.98798,0.0364911,0
0.7,6.6,0,2.98898,0.0412976,0
0.7,6.7,0,2.99005,0.046008,0
0.7,6.8,0,2.99124,0.0506032,0
0.7,6.9,0,2.99258,0.055076,0
0.7,7,0,2.99706,0.0614919,0
0.7,7.1,0,3.01084,0.0443057,0
0.7,7.2,0,3.01207,0.0466033,0
0.7,7.3,0,3.02327,0.0599215,0
0.7,7.4,0,3.08385,0.039664,0
0.7,7.5,0,3.0827,0.0414171,0
0.7,7.6,0,3.06668,0.0519748,0
0.7,7.7,0,3.12576,0.0351553,0
0.7,7.8,0,3.11959,0.0382596,0
0.7,7.9,0,3.07985,0.0387271,0
0.7,8,0,3.10188,0.0307097,0
0.7,8.1,0,3.06863,0.0475486,0
0.7,8.2,0,3.05919,0.0299205,0
0.7,8.3,0,3.05879,0.0322479,0
0.7,8.4,0,3.01952,0.0648638,0
0.7,8.5,0,3.02487,0.0416145,0
0.7,8.6,0,3.02484,0.0428079,0
0.7,8.7,0,2.99433,0.0839624,0
0.7,8.8,0,3.00519,0.0559966,0
0.7,8.9,0,3.0057,0.0558695,0
0.7,9,0,2.98931,0.0904458,0
0.7,9.1,0,2.99678,0.0688701,0
0.7,9.2,0,2.99763,0.0682418,0
0.7,9.3,0,2.99206,0.0868956,0
0.7,9.4,0,2.99508,0.0787816,0
0.7,9.5,0,2.99621,0.0780699,0
0.7,9.6,0,2.99512,0.0865527,0
0.7,9.7,0,2.99678,0.0843065,0
0.7,9.8,0,2.99785,0.0840898,0
0.7,9.9,0,2.99837,0.086378,0
0.7,10,0,2.99943,0.0855542,0
0.7,10.1,0,3.00024,0.0850922,0
0.7,10.2,0,3.00082,0.0850733,0
0.7,10.3,0,3.00143,0.0842482,0
0.7,10.4,0,3.0019,0.0833307,0
0.7,10.5,0,3.00214,0.0828306,0
0.7,10.6,0,3.00237,0.0819518,0
0.7,10.7,0,3.00259,0.080904,0
0.7,10.8,0,3.00257,0.0803829,0
0.7,10.9,0,3.00259,0.0795119,0
0.7,11,0,3.00267,0.0785809,0
0.7,11.1,0,3.0026,0.0780748,0
0.7,11.2,0,3.00254,0.077273,0
0.7,11.3,0,3.00249,0.0764789,0
0.7,11.4,0,3.00239,0.0759384,0
0.7,11.5,0,3.00228,0.0752135,0
0.7,11.6,0,3.00218,0.0745416,0
0.7,11.7,0,3.00203,0.0739858,0
0.7,11.8,0,3.00187,0.0733289,0
0.7,11.9,0,3.00175,0.0728003,0
0.7,12,0,3.00155,0.0723202,0
0.7,12.1,0,3.00135,0.0718252,0
0.7,12.2,0,3.00117,0.0714615,0
0.7,12.3,0,3.00094,0.0711552,0
0.7,12.4,0,3.00073,0.0708795,0
0.7,12.5,0,3.00057,0.0705539,0
0.7,12.6,0,3.00044,0.0704447,0
0.7,12.7,0,3.00041,0.0705438,0
0.8,0,0,3.00002,-0.128678,0
0.8,0.1,0,3.00011,-0.128816,0
0.8,0.2,0,3.0001,-0.128796,0
0.8,0.3,0,3.00011,-0.128675,0
0.8,0.4,0,3.00006,-0.128611,0
0.8,0.5,0,2.99984,-0.128419,0
0.8,0.6,0,2.99972,-0.128379,0
0.8,0.7,0,2.99964,-0.128269,0
0.8,0.8,0,2.99971,-0.128054,0
0.8,0.9,0,2.99963,-0.127901,0
0.8,1,0,2.9994,-0.127698,0
0.8,1.1,0,2.99914,-0.127673,0
0.8,1.2,0,2.99905,-0.127414,0
0.8,1.3,0,2.99925,-0.126856,0
0.8,1.4,0,2.99906,-0.126438,0
0.8,1.5,0,2.9986,-0.125985,0
0.8,1.6,0,2.99838,-0.124993,0
0.8,1.7,0,2.99811,-0.124509,0
0.8,1.8,0,2.9976,-0.124733,0
0.8,1.9,0,2.99736,-0.124119,0
0.8,2,0,2.99718,-0.123183,0
0.8,2.1,0,2.99705,-0.122113,0
0.8,2.2,0,2.99675,-0.12131,0
0.8,2.3,0,2.99611,-0.120613,0
0.8,2.4,0,2.99576,-0.119649,0
0.8,2.5,0,2.99535,-0.118602,0
0.8,2.6,0,2.99516,-0.117262,0
0.8,2.7,0,2.99476,-0.116056,0
0.8,2.8,0,2.99385,-0.114545,0
0.8,2.9,0,2.99337,-0.113052,0