/*--------------------------------*- C++ -*----------------------------------*\
| =========                 |                                                 |
| \\      /  F ield         | OpenFOAM: The Open Source CFD Toolbox           |
|  \\    /   O peration     | Version:  v1806                                 |
|   \\  /    A nd           | Web:      www.OpenFOAM.com                      |
|    \\/     M anipulation  |                                                 |
\*---------------------------------------------------------------------------*/
FoamFile
{
    version     2.0;
    format      ascii;
    class       volVectorField;
    location    "310";
    object      U;
}
// * * * * * * * * * * * * * * * * * * * * * * * * * * * * * * * * * * * * * //

dimensions      [0 1 -1 0 0 0 0];


internalField   nonuniform List<vector> 
4400
(
(0.235759 0.253265 0)
(0.290811 0.188398 0)
(0.307364 0.142132 0)
(0.315175 0.109631 0)
(0.31999 0.087761 0)
(0.322265 0.0735796 0)
(0.322687 0.0640662 0)
(0.322093 0.0572157 0)
(0.320977 0.0519867 0)
(0.319575 0.0478242 0)
(0.318 0.0444155 0)
(0.316313 0.0415775 0)
(0.314559 0.039198 0)
(0.312766 0.0372029 0)
(0.310952 0.0355398 0)
(0.30913 0.0341706 0)
(0.307307 0.0330671 0)
(0.305493 0.0322108 0)
(0.303732 0.031573 0)
(0.30226 0.031076 0)
(0.250368 0.136059 0)
(0.278374 0.10015 0)
(0.294944 0.0873096 0)
(0.306971 0.080141 0)
(0.313176 0.0732061 0)
(0.315972 0.066466 0)
(0.31718 0.0603327 0)
(0.317475 0.0549884 0)
(0.317145 0.0504371 0)
(0.316382 0.0465991 0)
(0.315324 0.0433671 0)
(0.314063 0.040642 0)
(0.312668 0.038344 0)
(0.311182 0.0364122 0)
(0.309639 0.0348003 0)
(0.30806 0.0334735 0)
(0.306459 0.032406 0)
(0.304851 0.0315804 0)
(0.303279 0.0309675 0)
(0.301956 0.0305063 0)
(0.226852 0.102121 0)
(0.259666 0.102661 0)
(0.2822 0.0958872 0)
(0.295742 0.084934 0)
(0.303908 0.0740424 0)
(0.308878 0.0651495 0)
(0.311708 0.0582683 0)
(0.313101 0.0528739 0)
(0.31355 0.0485221 0)
(0.313381 0.0449264 0)
(0.312795 0.0419092 0)
(0.311926 0.0393571 0)
(0.310863 0.0371941 0)
(0.309667 0.0353671 0)
(0.308381 0.0338373 0)
(0.307034 0.0325755 0)
(0.305647 0.0315601 0)
(0.304238 0.0307759 0)
(0.30285 0.0301977 0)
(0.301672 0.029773 0)
(0.245685 0.0691868 0)
(0.267127 0.0704593 0)
(0.281593 0.0677186 0)
(0.29225 0.0643814 0)
(0.29975 0.0608064 0)
(0.304677 0.0569574 0)
(0.307762 0.0530254 0)
(0.309566 0.0492597 0)
(0.310463 0.0458187 0)
(0.310712 0.042763 0)
(0.310499 0.0400925 0)
(0.309958 0.0377802 0)
(0.309185 0.0357929 0)
(0.308249 0.0340991 0)
(0.307198 0.0326726 0)
(0.306067 0.0314917 0)
(0.304882 0.0305401 0)
(0.303663 0.0298058 0)
(0.302451 0.0292669 0)
(0.301416 0.028881 0)
(0.247772 0.052323 0)
(0.263573 0.0597597 0)
(0.277499 0.0620863 0)
(0.28815 0.0606725 0)
(0.295704 0.0572694 0)
(0.300903 0.0533041 0)
(0.304365 0.0495027 0)
(0.306549 0.0460781 0)
(0.307798 0.0430436 0)
(0.308369 0.0403668 0)
(0.308451 0.0380131 0)
(0.30818 0.0359536 0)
(0.307653 0.0341643 0)
(0.306944 0.0326251 0)
(0.306104 0.0313194 0)
(0.30517 0.0302332 0)
(0.304171 0.0293554 0)
(0.303129 0.0286779 0)
(0.302084 0.0281831 0)
(0.301185 0.0278365 0)
(0.259596 0.0397057 0)
(0.270738 0.0458293 0)
(0.280287 0.0484243 0)
(0.288091 0.0488054 0)
(0.294224 0.0479455 0)
(0.298802 0.0463323 0)
(0.30206 0.0442836 0)
(0.304263 0.0420479 0)
(0.305645 0.0398054 0)
(0.3064 0.0376686 0)
(0.306683 0.0356986 0)
(0.306614 0.0339225 0)
(0.306286 0.0323488 0)
(0.305767 0.0309768 0)
(0.305109 0.0298019 0)
(0.304351 0.0288182 0)
(0.30352 0.0280204 0)
(0.302642 0.027404 0)
(0.301752 0.0269556 0)
(0.30098 0.0266482 0)
(0.265185 0.0312115 0)
(0.272907 0.0378092 0)
(0.28067 0.0416502 0)
(0.287509 0.0431612 0)
(0.29303 0.0430243 0)
(0.297244 0.0418986 0)
(0.300328 0.040284 0)
(0.302488 0.0384854 0)
(0.303915 0.0366644 0)
(0.30477 0.0349059 0)
(0.305183 0.0332567 0)
(0.305261 0.0317438 0)
(0.305086 0.0303824 0)
(0.304723 0.0291802 0)
(0.30422 0.0281403 0)
(0.303614 0.0272634 0)
(0.302934 0.026549 0)
(0.302203 0.0259961 0)
(0.301454 0.0255952 0)
(0.300801 0.025326 0)
(0.272524 0.0250975 0)
(0.278148 0.0305082 0)
(0.283741 0.0340293 0)
(0.288793 0.0359031 0)
(0.293098 0.0365785 0)
(0.296582 0.0364166 0)
(0.299264 0.0356884 0)
(0.301231 0.0346094 0)
(0.302594 0.0333456 0)
(0.303465 0.0320157 0)
(0.303943 0.0306998 0)
(0.304115 0.0294499 0)
(0.304053 0.0282979 0)
(0.303812 0.0272634 0)
(0.303436 0.0263578 0)
(0.302961 0.0255877 0)
(0.302412 0.0249569 0)
(0.301812 0.0244676 0)
(0.301191 0.024114 0)
(0.300645 0.0238811 0)
(0.27733 0.0203296 0)
(0.281312 0.0253092 0)
(0.2856 0.0288432 0)
(0.2897 0.0309978 0)
(0.293299 0.0320248 0)
(0.29627 0.0322166 0)
(0.298604 0.0318417 0)
(0.300357 0.0311127 0)
(0.301609 0.0301832 0)
(0.302443 0.0291584 0)
(0.302938 0.0281106 0)
(0.303163 0.0270892 0)
(0.303178 0.0261285 0)
(0.30303 0.0252519 0)
(0.302757 0.024475 0)
(0.30239 0.0238084 0)
(0.301954 0.0232593 0)
(0.30147 0.0228322 0)
(0.300962 0.0225243 0)
(0.300511 0.0223254 0)
(0.282176 0.0168098 0)
(0.285093 0.0209328 0)
(0.288235 0.0240491 0)
(0.291281 0.0261456 0)
(0.294035 0.027375 0)
(0.296394 0.0279192 0)
(0.298315 0.0279465 0)
(0.299807 0.0276053 0)
(0.300906 0.0270202 0)
(0.301665 0.0262911 0)
(0.302141 0.0254934 0)
(0.302387 0.0246824 0)
(0.30245 0.0238979 0)
(0.302368 0.0231677 0)
(0.302176 0.0225114 0)
(0.301899 0.0219427 0)
(0.301558 0.0214712 0)
(0.301173 0.0211032 0)
(0.300765 0.0208386 0)
(0.300399 0.020671 0)
(0.285785 0.0138427 0)
(0.287886 0.0174659 0)
(0.290234 0.0203019 0)
(0.292593 0.0223246 0)
(0.294777 0.0236156 0)
(0.296679 0.0243002 0)
(0.298252 0.0245141 0)
(0.299494 0.0243841 0)
(0.300429 0.0240174 0)
(0.301092 0.0234997 0)
(0.301524 0.0228976 0)
(0.301766 0.0222618 0)
(0.301853 0.0216301 0)
(0.301817 0.0210307 0)
(0.301686 0.0204842 0)
(0.301481 0.0200058 0)
(0.30122 0.0196064 0)
(0.300919 0.0192937 0)
(0.300597 0.0190694 0)
(0.300305 0.0189299 0)
(0.289093 0.0115383 0)
(0.290613 0.0145487 0)
(0.292321 0.0169955 0)
(0.294051 0.0188282 0)
(0.295682 0.0200886 0)
(0.297134 0.020856 0)
(0.298365 0.0212204 0)
(0.29936 0.0212719 0)
(0.300126 0.0210935 0)
(0.300682 0.0207574 0)
(0.301056 0.0203231 0)
(0.301277 0.0198383 0)
(0.301372 0.01934 0)
(0.301365 0.0188562 0)
(0.301279 0.0184081 0)
(0.30113 0.0180115 0)
(0.300935 0.017678 0)
(0.300705 0.0174158 0)
(0.300456 0.0172282 0)
(0.300228 0.0171138 0)
(0.29169 0.0095107 0)
(0.292774 0.0120847 0)
(0.294012 0.014213 0)
(0.295292 0.0158565 0)
(0.296518 0.0170362 0)
(0.297625 0.0178035 0)
(0.298573 0.0182249 0)
(0.299349 0.0183713 0)
(0.299954 0.0183099 0)
(0.300402 0.0181003 0)
(0.300711 0.017793 0)
(0.3009 0.0174292 0)
(0.30099 0.0170421 0)
(0.301 0.0166575 0)
(0.300945 0.0162956 0)
(0.300841 0.0159717 0)
(0.300698 0.0156973 0)
(0.300527 0.0154808 0)
(0.300339 0.0153262 0)
(0.300165 0.0152338 0)
(0.293949 0.00784238 0)
(0.294704 0.00995615 0)
(0.29557 0.011745 0)
(0.296472 0.013165 0)
(0.297345 0.0142227 0)
(0.298144 0.01495 0)
(0.298839 0.0153919 0)
(0.299417 0.0155992 0)
(0.299876 0.0156227 0)
(0.30022 0.0155102 0)
(0.300462 0.0153035 0)
(0.300615 0.0150383 0)
(0.300693 0.0147439 0)
(0.300709 0.0144438 0)
(0.300677 0.0141566 0)
(0.300605 0.0138965 0)
(0.300504 0.0136745 0)
(0.300381 0.0134987 0)
(0.300244 0.0133734 0)
(0.300116 0.0133001 0)
(0.295738 0.00632997 0)
(0.296248 0.00807355 0)
(0.296838 0.00956279 0)
(0.297459 0.0107653 0)
(0.298066 0.0116826 0)
(0.298627 0.0123348 0)
(0.299118 0.0127539 0)
(0.29953 0.0129777 0)
(0.299859 0.0130457 0)
(0.30011 0.0129956 0)
(0.300288 0.0128611 0)
(0.300403 0.0126718 0)
(0.300465 0.0124523 0)
(0.300482 0.0122226 0)
(0.300464 0.0119991 0)
(0.300417 0.0117944 0)
(0.300348 0.0116184 0)
(0.300264 0.0114785 0)
(0.300168 0.0113791 0)
(0.300078 0.0113222 0)
(0.297216 0.00501297 0)
(0.297538 0.00638723 0)
(0.297914 0.00757847 0)
(0.298311 0.00855588 0)
(0.298702 0.00931656 0)
(0.299065 0.00987265 0)
(0.299387 0.0102455 0)
(0.29966 0.010462 0)
(0.29988 0.0105511 0)
(0.300048 0.0105413 0)
(0.30017 0.0104594 0)
(0.30025 0.0103287 0)
(0.300294 0.0101694 0)
(0.300309 0.00999834 0)
(0.300299 0.009829 0)
(0.30027 0.00967225 0)
(0.300226 0.00953657 0)
(0.300171 0.00942825 0)
(0.300109 0.00935149 0)
(0.300048 0.00930856 0)
(0.29834 0.00378366 0)
(0.298529 0.00483542 0)
(0.298749 0.00575155 0)
(0.298982 0.00650994 0)
(0.299213 0.00710775 0)
(0.299429 0.00755247 0)
(0.299621 0.00785857 0)
(0.299784 0.008045 0)
(0.299917 0.00813278 0)
(0.300019 0.00814302 0)
(0.300093 0.0080956 0)
(0.300142 0.00800839 0)
(0.30017 0.0078969 0)
(0.30018 0.00777415 0)
(0.300175 0.00765085 0)
(0.300158 0.00753562 0)
(0.300133 0.00743526 0)
(0.300101 0.00735487 0)
(0.300064 0.00729808 0)
(0.300027 0.00726705 0)
(0.29918 0.0026548 0)
(0.299271 0.00338953 0)
(0.299378 0.00403528 0)
(0.299492 0.00457421 0)
(0.299606 0.00500331 0)
(0.299712 0.00532682 0)
(0.299807 0.00555383 0)
(0.299889 0.00569667 0)
(0.299955 0.00576936 0)
(0.300006 0.00578626 0)
(0.300044 0.00576114 0)
(0.300069 0.00570654 0)
(0.300083 0.00563346 0)
(0.300089 0.00555127 0)
(0.300086 0.00546766 0)
(0.300078 0.00538889 0)
(0.300066 0.00531992 0)
(0.30005 0.00526453 0)
(0.300032 0.00522553 0)
(0.300013 0.00520469 0)
(0.299719 0.00156807 0)
(0.299748 0.00200813 0)
(0.299785 0.00239417 0)
(0.299824 0.00271714 0)
(0.299863 0.00297561 0)
(0.2999 0.00317186 0)
(0.299933 0.00331096 0)
(0.299961 0.00339998 0)
(0.299984 0.00344705 0)
(0.300002 0.00346056 0)
(0.300015 0.00344863 0)
(0.300023 0.00341868 0)
(0.300028 0.00337727 0)
(0.30003 0.00333001 0)
(0.30003 0.00328154 0)
(0.300027 0.00323562 0)
(0.300023 0.00319527 0)
(0.300017 0.00316281 0)
(0.300011 0.00314 0)
(0.300004 0.00312806 0)
(0.299987 0.000527159 0)
(0.299988 0.000667531 0)
(0.29999 0.000794603 0)
(0.299991 0.000901764 0)
(0.299993 0.000987877 0)
(0.299995 0.00105353 0)
(0.299997 0.00110032 0)
(0.299998 0.00113051 0)
(0.299999 0.00114675 0)
(0.3 0.00115179 0)
(0.300001 0.0011483 0)
(0.300001 0.00113874 0)
(0.300001 0.0011253 0)
(0.300002 0.00110984 0)
(0.300002 0.00109393 0)
(0.300001 0.00107881 0)
(0.300001 0.00106551 0)
(0.300001 0.0010548 0)
(0.300001 0.00104729 0)
(0.3 0.00104339 0)
(0.101283 -0.16677 0)
(0.0805456 -0.141631 0)
(0.0679884 -0.118282 0)
(0.0591861 -0.0974105 0)
(0.0525883 -0.0784289 0)
(0.0475457 -0.0608542 0)
(0.0437322 -0.0443591 0)
(0.0409591 -0.0286734 0)
(0.0391095 -0.0135547 0)
(0.0381119 0.0012199 0)
(0.0379292 0.0158604 0)
(0.038554 0.0305718 0)
(0.0400084 0.0455609 0)
(0.0423484 0.0610447 0)
(0.0456735 0.0772571 0)
(0.0501524 0.0944576 0)
(0.0560858 0.112968 0)
(0.0640814 0.133291 0)
(0.075588 0.156041 0)
(0.0947832 0.180169 0)
(0.175404 -0.100602 0)
(0.16116 -0.0912741 0)
(0.148741 -0.08055 0)
(0.138326 -0.0690811 0)
(0.129808 -0.0571366 0)
(0.123015 -0.0448547 0)
(0.117774 -0.0323332 0)
(0.113941 -0.0196437 0)
(0.111404 -0.00683697 0)
(0.110088 0.00605073 0)
(0.109952 0.0189914 0)
(0.110988 0.0319606 0)
(0.113225 0.0449337 0)
(0.11673 0.0578814 0)
(0.121616 0.0707627 0)
(0.128056 0.0835107 0)
(0.136303 0.0960354 0)
(0.146739 0.108326 0)
(0.159959 0.120509 0)
(0.176889 0.131124 0)
(0.192644 -0.0638397 0)
(0.187502 -0.0583232 0)
(0.182888 -0.0518998 0)
(0.178804 -0.0447244 0)
(0.175266 -0.0369506 0)
(0.172301 -0.0287087 0)
(0.169935 -0.0201067 0)
(0.168193 -0.0112353 0)
(0.167092 -0.00217211 0)
(0.166646 0.00701525 0)
(0.166866 0.0162652 0)
(0.167758 0.0255191 0)
(0.169327 0.0347178 0)
(0.171576 0.0437981 0)
(0.174506 0.0526884 0)
(0.178115 0.0613025 0)
(0.182406 0.0695385 0)
(0.187394 0.0772939 0)
(0.193157 0.0844322 0)
(0.199918 0.0904304 0)
(0.220862 -0.038566 0)
(0.217148 -0.0344245 0)
(0.213699 -0.0299517 0)
(0.210594 -0.0251788 0)
(0.207889 -0.0201396 0)
(0.205625 -0.0148702 0)
(0.203829 -0.00940866 0)
(0.20252 -0.00379457 0)
(0.201712 0.00193102 0)
(0.201413 0.00772618 0)
(0.201631 0.0135482 0)
(0.202369 0.0193539 0)
(0.20363 0.0250993 0)
(0.205417 0.0307401 0)
(0.20773 0.0362305 0)
(0.210569 0.0415237 0)
(0.213931 0.0465745 0)
(0.217815 0.0513514 0)
(0.22223 0.0558152 0)
(0.227195 0.0597337 0)
(0.233951 -0.0271237 0)
(0.232137 -0.0240527 0)
(0.230503 -0.020752 0)
(0.229062 -0.0172401 0)
(0.227831 -0.0135405 0)
(0.226822 -0.00967952 0)
(0.226049 -0.00568545 0)
(0.225522 -0.00158775 0)
(0.22525 0.0025835 0)
(0.22524 0.00679773 0)
(0.225495 0.011024 0)
(0.226016 0.0152311 0)
(0.226803 0.0193874 0)
(0.22785 0.0234609 0)
(0.229151 0.0274186 0)
(0.230695 0.0312271 0)
(0.23247 0.0348525 0)
(0.234465 0.0382628 0)
(0.236669 0.0414244 0)
(0.239077 0.0442708 0)
(0.249315 -0.0184048 0)
(0.24803 -0.0159729 0)
(0.246858 -0.0134369 0)
(0.245816 -0.0108063 0)
(0.244921 -0.00809171 0)
(0.244185 -0.00530495 0)
(0.243621 -0.00245884 0)
(0.243238 0.000432801 0)
(0.243042 0.00335536 0)
(0.243038 0.00629359 0)
(0.24323 0.00923178 0)
(0.243618 0.012154 0)
(0.244201 0.0150442 0)
(0.244976 0.0178867 0)
(0.245938 0.0206659 0)
(0.24708 0.0233667 0)
(0.248395 0.0259756 0)
(0.249871 0.0284836 0)
(0.251497 0.0308815 0)
(0.253263 0.0331187 0)
(0.258259 -0.0136025 0)
(0.25752 -0.0117146 0)
(0.256867 -0.00975361 0)
(0.256304 -0.00772581 0)
(0.255835 -0.00563879 0)
(0.255466 -0.00350109 0)
(0.2552 -0.00132212 0)
(0.25504 0.000888068 0)
(0.254988 0.00311887 0)
(0.255046 0.00535929 0)
(0.255214 0.00759804 0)
(0.255492 0.00982373 0)
(0.255879 0.0120249 0)
(0.256374 0.0141902 0)
(0.256972 0.0163084 0)
(0.25767 0.0183686 0)
(0.258464 0.0203604 0)
(0.25935 0.0222744 0)
(0.260323 0.0241025 0)
(0.261381 0.0258317 0)
(0.267457 -0.0100129 0)
(0.266937 -0.00848066 0)
(0.266474 -0.00690969 0)
(0.266073 -0.00530432 0)
(0.265738 -0.00366918 0)
(0.265473 -0.00200923 0)
(0.265281 -0.0003297 0)
(0.265166 0.00136392 0)
(0.265129 0.00306595 0)
(0.265172 0.00477055 0)
(0.265295 0.0064718 0)
(0.265499 0.00816375 0)
(0.265782 0.00984049 0)
(0.266143 0.0114962 0)
(0.266581 0.0131252 0)
(0.267091 0.0147221 0)
(0.267672 0.0162817 0)
(0.268318 0.0178008 0)
(0.269025 0.0192759 0)
(0.26979 0.0206896 0)
(0.273582 -0.00769479 0)
(0.273252 -0.00646677 0)
(0.272964 -0.0052114 0)
(0.272721 -0.00393164 0)
(0.272524 -0.00263073 0)
(0.272374 -0.00131222 0)
(0.272274 2.01315e-05 0)
(0.272223 0.00136232 0)
(0.272223 0.00271019 0)
(0.272274 0.00405946 0)
(0.272375 0.0054058 0)
(0.272527 0.00674482 0)
(0.27273 0.00807216 0)
(0.272981 0.00938352 0)
(0.273281 0.0106747 0)
(0.273628 0.0119416 0)
(0.274021 0.0131804 0)
(0.274457 0.0143877 0)
(0.274936 0.0155609 0)
(0.275457 0.0166952 0)
(0.279455 -0.00596396 0)
(0.279223 -0.00495041 0)
(0.27902 -0.00392048 0)
(0.278849 -0.00287626 0)
(0.278709 -0.00181998 0)
(0.278604 -0.000753945 0)
(0.278533 0.000319446 0)
(0.278498 0.00139773 0)
(0.278499 0.00247839 0)
(0.278537 0.00355887 0)
(0.278611 0.00463661 0)
(0.278722 0.00570904 0)
(0.278869 0.00677361 0)
(0.279052 0.00782782 0)
(0.27927 0.00886921 0)
(0.279521 0.00989535 0)
(0.279805 0.010904 0)
(0.28012 0.0118936 0)
(0.280465 0.0128626 0)
(0.280838 0.0138035 0)
(0.283715 -0.00471147 0)
(0.283559 -0.00388354 0)
(0.283425 -0.00304396 0)
(0.283314 -0.00219421 0)
(0.283226 -0.00133588 0)
(0.283162 -0.000470628 0)
(0.283122 0.000399787 0)
(0.283107 0.00127356 0)
(0.283117 0.00214884 0)
(0.283151 0.00302373 0)
(0.283211 0.00389632 0)
(0.283295 0.0047647 0)
(0.283404 0.00562697 0)
(0.283537 0.00648126 0)
(0.283694 0.00732572 0)
(0.283875 0.00815857 0)
(0.284078 0.00897809 0)
(0.284304 0.00978283 0)
(0.284551 0.0105717 0)
(0.284819 0.0113421 0)
(0.287615 -0.00375263 0)
(0.287506 -0.00306536 0)
(0.287413 -0.00237043 0)
(0.287336 -0.00166894 0)
(0.287275 -0.000962037 0)
(0.28723 -0.000250886 0)
(0.287203 0.000463306 0)
(0.287193 0.00117931 0)
(0.2872 0.0018959 0)
(0.287226 0.0026118 0)
(0.287268 0.00332576 0)
(0.287329 0.00403653 0)
(0.287407 0.00474286 0)
(0.287502 0.00544352 0)
(0.287614 0.0061373 0)
(0.287743 0.00682299 0)
(0.287887 0.00749946 0)
(0.288048 0.00816588 0)
(0.288223 0.0088215 0)
(0.288412 0.00946281 0)
(0.290583 -0.00300098 0)
(0.290509 -0.00243773 0)
(0.290446 -0.00186899 0)
(0.290395 -0.00129555 0)
(0.290355 -0.000718248 0)
(0.290328 -0.000137949 0)
(0.290312 0.00044446 0)
(0.290308 0.00102807 0)
(0.290317 0.00161195 0)
(0.290338 0.00219518 0)
(0.290371 0.0027768 0)
(0.290416 0.00335589 0)
(0.290473 0.0039315 0)
(0.290543 0.00450272 0)
(0.290624 0.00506864 0)
(0.290717 0.00562837 0)
(0.290821 0.00618104 0)
(0.290936 0.00672594 0)
(0.291062 0.00726253 0)
(0.291198 0.00778944 0)
(0.293193 -0.00239966 0)
(0.293144 -0.00193688 0)
(0.293101 -0.00147029 0)
(0.293067 -0.00100048 0)
(0.29304 -0.000528068 0)
(0.293022 -5.36857e-05 0)
(0.293011 0.000422024 0)
(0.293009 0.00089841 0)
(0.293015 0.00137481 0)
(0.293029 0.00185057 0)
(0.293052 0.00232502 0)
(0.293083 0.0027975 0)
(0.293122 0.00326736 0)
(0.29317 0.00373393 0)
(0.293225 0.00419658 0)
(0.293288 0.00465467 0)
(0.293359 0.00510757 0)
(0.293438 0.00555484 0)
(0.293523 0.00599612 0)
(0.293616 0.00642961 0)
(0.295206 -0.00189803 0)
(0.295173 -0.00152596 0)
(0.295146 -0.00115113 0)
(0.295124 -0.000774003 0)
(0.295107 -0.000395024 0)
(0.295095 -1.46613e-05 0)
(0.295089 0.00036661 0)
(0.295089 0.000748308 0)
(0.295094 0.00112994 0)
(0.295105 0.00151102 0)
(0.295121 0.00189106 0)
(0.295143 0.00226955 0)
(0.295171 0.00264601 0)
(0.295203 0.00301996 0)
(0.295241 0.00339092 0)
(0.295285 0.00375841 0)
(0.295333 0.00412197 0)
(0.295387 0.00448124 0)
(0.295446 0.00483597 0)
(0.295509 0.00518531 0)
(0.296889 -0.00147397 0)
(0.296868 -0.00118003 0)
(0.296852 -0.000884145 0)
(0.296838 -0.000586653 0)
(0.296827 -0.000287885 0)
(0.29682 1.18186e-05 0)
(0.296817 0.000312111 0)
(0.296816 0.000612643 0)
(0.29682 0.000913063 0)
(0.296826 0.00121302 0)
(0.296836 0.00151215 0)
(0.29685 0.00181011 0)
(0.296867 0.00210655 0)
(0.296887 0.00240111 0)
(0.29691 0.00269345 0)
(0.296937 0.00298323 0)
(0.296967 0.0032701 0)
(0.297 0.00355385 0)
(0.297036 0.00383432 0)
(0.297075 0.0041105 0)
(0.298142 -0.0010997 0)
(0.29813 -0.000878331 0)
(0.298121 -0.000655614 0)
(0.298113 -0.000431781 0)
(0.298107 -0.000207069 0)
(0.298103 1.82798e-05 0)
(0.298101 0.00024402 0)
(0.298102 0.000469902 0)
(0.298104 0.000695676 0)
(0.298108 0.00092109 0)
(0.298114 0.00114589 0)
(0.298122 0.00136983 0)
(0.298132 0.00159266 0)
(0.298144 0.00181413 0)
(0.298158 0.00203399 0)
(0.298174 0.002252 0)
(0.298192 0.00246791 0)
(0.298212 0.00268156 0)
(0.298233 0.00289288 0)
(0.298256 0.00310126 0)
(0.299089 -0.000763517 0)
(0.299084 -0.000608309 0)
(0.299079 -0.000452214 0)
(0.299076 -0.00029539 0)
(0.299073 -0.000137997 0)
(0.299071 1.98025e-05 0)
(0.29907 0.000177842 0)
(0.29907 0.000335957 0)
(0.299071 0.000493978 0)
(0.299073 0.000651738 0)
(0.299076 0.00080907 0)
(0.299079 0.000965805 0)
(0.299084 0.00112178 0)
(0.29909 0.00127682 0)
(0.299096 0.00143077 0)
(0.299103 0.00158345 0)
(0.299111 0.0017347 0)
(0.29912 0.00188443 0)
(0.29913 0.00203259 0)
(0.299141 0.00217856 0)
(0.299696 -0.000449402 0)
(0.299694 -0.000357813 0)
(0.299692 -0.000265722 0)
(0.299691 -0.000173219 0)
(0.29969 -8.03984e-05 0)
(0.29969 1.26471e-05 0)
(0.299689 0.000105822 0)
(0.299689 0.000199029 0)
(0.29969 0.000292171 0)
(0.29969 0.000385151 0)
(0.299691 0.000477873 0)
(0.299692 0.000570238 0)
(0.299694 0.00066215 0)
(0.299695 0.000753515 0)
(0.299697 0.000844238 0)
(0.299699 0.000934221 0)
(0.299702 0.00102336 0)
(0.299704 0.0011116 0)
(0.299707 0.00119898 0)
(0.299709 0.00128534 0)
(0.299992 -0.000149234 0)
(0.299992 -0.000118617 0)
(0.299991 -8.78304e-05 0)
(0.299991 -5.69012e-05 0)
(0.299991 -2.58596e-05 0)
(0.299991 5.26524e-06 0)
(0.299991 3.64443e-05 0)
(0.299991 6.76486e-05 0)
(0.299991 9.88495e-05 0)
(0.299991 0.000130019 0)
(0.299991 0.000161129 0)
(0.299991 0.000192155 0)
(0.299991 0.00022307 0)
(0.299991 0.000253854 0)
(0.29999 0.000284485 0)
(0.29999 0.000314938 0)
(0.29999 0.000345203 0)
(0.29999 0.000375339 0)
(0.299989 0.00040546 0)
(0.299989 0.000435059 0)
(0.294139 -0.0973922 0)
(0.292945 -0.101175 0)
(0.291906 -0.105454 0)
(0.291113 -0.110367 0)
(0.290656 -0.115997 0)
(0.290597 -0.122389 0)
(0.290937 -0.12956 0)
(0.291586 -0.137476 0)
(0.292337 -0.146047 0)
(0.292847 -0.155107 0)
(0.292634 -0.164417 0)
(0.29109 -0.17366 0)
(0.287518 -0.182457 0)
(0.281166 -0.190368 0)
(0.271275 -0.1969 0)
(0.257118 -0.201531 0)
(0.238022 -0.203843 0)
(0.213393 -0.20364 0)
(0.182691 -0.200286 0)
(0.145398 -0.190284 0)
(0.287042 -0.0712028 0)
(0.284729 -0.0720141 0)
(0.282024 -0.0728837 0)
(0.278937 -0.073776 0)
(0.275488 -0.0747528 0)
(0.271717 -0.0758936 0)
(0.267693 -0.0772844 0)
(0.263507 -0.0790159 0)
(0.259271 -0.0811748 0)
(0.255094 -0.0838285 0)
(0.251055 -0.0870087 0)
(0.247171 -0.0906931 0)
(0.243362 -0.0947879 0)
(0.239424 -0.0991136 0)
(0.235026 -0.103396 0)
(0.229732 -0.107266 0)
(0.223054 -0.110263 0)
(0.2145 -0.111805 0)
(0.203635 -0.111136 0)
(0.190318 -0.107464 0)
(0.282983 -0.075712 0)
(0.281604 -0.0769154 0)
(0.28006 -0.0780566 0)
(0.278311 -0.0791354 0)
(0.276302 -0.0801116 0)
(0.273964 -0.0809457 0)
(0.271227 -0.0816047 0)
(0.268021 -0.0820622 0)
(0.26429 -0.0823012 0)
(0.259996 -0.0823159 0)
(0.255129 -0.0821116 0)
(0.249714 -0.0817016 0)
(0.243811 -0.0811012 0)
(0.237513 -0.0803177 0)
(0.230939 -0.0793386 0)
(0.22422 -0.0781198 0)
(0.217486 -0.076574 0)
(0.210849 -0.0745607 0)
(0.204416 -0.0718886 0)
(0.198303 -0.0683576 0)
(0.276577 -0.0560629 0)
(0.274531 -0.0564393 0)
(0.272426 -0.0568424 0)
(0.270271 -0.0572435 0)
(0.268077 -0.0576384 0)
(0.265854 -0.0580162 0)
(0.26361 -0.0583564 0)
(0.261344 -0.0586308 0)
(0.25905 -0.0588041 0)
(0.256708 -0.0588349 0)
(0.254291 -0.0586769 0)
(0.251765 -0.0582823 0)
(0.249089 -0.0576042 0)
(0.246227 -0.0565999 0)
(0.243147 -0.0552338 0)
(0.239834 -0.0534786 0)
(0.236293 -0.0513166 0)
(0.232553 -0.0487387 0)
(0.228674 -0.0457455 0)
(0.224741 -0.042348 0)
(0.278587 -0.0515659 0)
(0.277122 -0.0514022 0)
(0.275528 -0.0511522 0)
(0.273803 -0.0508188 0)
(0.271945 -0.0503966 0)
(0.269952 -0.0498818 0)
(0.267827 -0.0492722 0)
(0.265576 -0.0485664 0)
(0.263209 -0.0477628 0)
(0.260743 -0.0468591 0)
(0.258197 -0.045851 0)
(0.255595 -0.0447317 0)
(0.252965 -0.0434908 0)
(0.250334 -0.0421144 0)
(0.247729 -0.0405851 0)
(0.245176 -0.038883 0)
(0.2427 -0.036987 0)
(0.240321 -0.034877 0)
(0.238058 -0.032536 0)
(0.23593 -0.0299529 0)
(0.278064 -0.041215 0)
(0.276766 -0.0409798 0)
(0.275454 -0.040699 0)
(0.274127 -0.0403635 0)
(0.272786 -0.0399643 0)
(0.27143 -0.0394921 0)
(0.270058 -0.0389367 0)
(0.268669 -0.0382881 0)
(0.267259 -0.0375363 0)
(0.265827 -0.0366717 0)
(0.26437 -0.0356858 0)
(0.262888 -0.0345714 0)
(0.26138 -0.0333229 0)
(0.259849 -0.0319364 0)
(0.258301 -0.0304099 0)
(0.256743 -0.0287433 0)
(0.255188 -0.0269378 0)
(0.253649 -0.0249965 0)
(0.252145 -0.0229235 0)
(0.250694 -0.0207241 0)
(0.280697 -0.0353737 0)
(0.279668 -0.0348887 0)
(0.278598 -0.0343495 0)
(0.277489 -0.0337569 0)
(0.276344 -0.0331092 0)
(0.275167 -0.0324051 0)
(0.273962 -0.031643 0)
(0.272736 -0.0308214 0)
(0.271494 -0.0299383 0)
(0.270244 -0.0289916 0)
(0.268995 -0.0279786 0)
(0.267753 -0.0268966 0)
(0.266528 -0.0257422 0)
(0.265328 -0.0245125 0)
(0.26416 -0.0232041 0)
(0.263034 -0.0218145 0)
(0.261955 -0.0203412 0)
(0.260932 -0.0187831 0)
(0.259971 -0.0171398 0)
(0.259078 -0.0154121 0)
(0.282629 -0.0293481 0)
(0.281839 -0.0288831 0)
(0.281043 -0.0283749 0)
(0.280243 -0.0278236 0)
(0.279439 -0.027226 0)
(0.278632 -0.0265789 0)
(0.277823 -0.0258795 0)
(0.277013 -0.0251254 0)
(0.276203 -0.0243147 0)
(0.275395 -0.0234455 0)
(0.27459 -0.0225167 0)
(0.273791 -0.0215274 0)
(0.273001 -0.0204773 0)
(0.272221 -0.0193666 0)
(0.271457 -0.018196 0)
(0.270713 -0.0169668 0)
(0.269992 -0.0156806 0)
(0.269301 -0.0143393 0)
(0.268644 -0.0129457 0)
(0.268027 -0.0115025 0)
(0.285199 -0.0247551 0)
(0.284569 -0.0242442 0)
(0.28393 -0.0236991 0)
(0.283284 -0.0231205 0)
(0.282631 -0.0225074 0)
(0.281975 -0.0218593 0)
(0.281317 -0.0211756 0)
(0.28066 -0.0204557 0)
(0.280007 -0.0196993 0)
(0.279361 -0.0189057 0)
(0.278725 -0.0180746 0)
(0.278102 -0.0172055 0)
(0.277495 -0.0162982 0)
(0.276907 -0.0153526 0)
(0.276342 -0.0143686 0)
(0.275802 -0.0133465 0)
(0.275291 -0.012287 0)
(0.274811 -0.0111907 0)
(0.274364 -0.0100588 0)
(0.273954 -0.00889288 0)
(0.28754 -0.0208221 0)
(0.287075 -0.0203526 0)
(0.28661 -0.0198542 0)
(0.286146 -0.0193287 0)
(0.285682 -0.0187751 0)
(0.285221 -0.0181924 0)
(0.284763 -0.0175801 0)
(0.284309 -0.0169378 0)
(0.283861 -0.0162651 0)
(0.283419 -0.0155621 0)
(0.282986 -0.0148287 0)
(0.282562 -0.0140651 0)
(0.282149 -0.0132719 0)
(0.281749 -0.0124496 0)
(0.281363 -0.0115988 0)
(0.280993 -0.0107208 0)
(0.280641 -0.00981637 0)
(0.28031 -0.00888699 0)
(0.28 -0.00793405 0)
(0.279715 -0.00695913 0)
(0.289795 -0.0174918 0)
(0.289434 -0.0170476 0)
(0.289071 -0.0165821 0)
(0.288709 -0.0160959 0)
(0.288349 -0.0155889 0)
(0.28799 -0.0150607 0)
(0.287635 -0.0145113 0)
(0.287284 -0.0139407 0)
(0.286939 -0.0133489 0)
(0.286601 -0.0127362 0)
(0.286271 -0.0121025 0)
(0.285951 -0.0114482 0)
(0.285642 -0.0107736 0)
(0.285346 -0.010079 0)
(0.285062 -0.0093649 0)
(0.284794 -0.0086319 0)
(0.284542 -0.00788069 0)
(0.284307 -0.00711207 0)
(0.28409 -0.00632695 0)
(0.283892 -0.00552636 0)
(0.291862 -0.0147121 0)
(0.291601 -0.014317 0)
(0.291342 -0.0139041 0)
(0.291084 -0.0134748 0)
(0.290829 -0.0130288 0)
(0.290577 -0.012566 0)
(0.290328 -0.0120862 0)
(0.290083 -0.0115895 0)
(0.289844 -0.0110761 0)
(0.28961 -0.0105462 0)
(0.289382 -0.00999996 0)
(0.289161 -0.0094378 0)
(0.288947 -0.00886011 0)
(0.288743 -0.00826738 0)
(0.288547 -0.00766016 0)
(0.288362 -0.00703909 0)
(0.288188 -0.00640485 0)
(0.288025 -0.00575823 0)
(0.287875 -0.00510004 0)
(0.287738 -0.0044312 0)
(0.293681 -0.0122543 0)
(0.293486 -0.011904 0)
(0.293292 -0.0115405 0)
(0.2931 -0.0111645 0)
(0.29291 -0.0107759 0)
(0.292723 -0.0103748 0)
(0.292538 -0.00996111 0)
(0.292357 -0.00953507 0)
(0.29218 -0.00909682 0)
(0.292008 -0.00864659 0)
(0.291841 -0.00818459 0)
(0.29168 -0.00771112 0)
(0.291525 -0.0072265 0)
(0.291377 -0.00673109 0)
(0.291237 -0.00622529 0)
(0.291105 -0.00570956 0)
(0.290982 -0.00518439 0)
(0.290867 -0.00465034 0)
(0.290762 -0.00410799 0)
(0.290667 -0.00355798 0)
(0.295293 -0.0101529 0)
(0.295159 -0.00985242 0)
(0.295026 -0.00954115 0)
(0.294894 -0.00922015 0)
(0.294764 -0.00888931 0)
(0.294637 -0.00854858 0)
(0.294511 -0.00819807 0)
(0.294389 -0.00783791 0)
(0.294269 -0.00746828 0)
(0.294153 -0.00708939 0)
(0.29404 -0.00670146 0)
(0.293932 -0.00630475 0)
(0.293827 -0.00589958 0)
(0.293728 -0.00548626 0)
(0.293634 -0.00506517 0)
(0.293545 -0.0046367 0)
(0.293462 -0.00420128 0)
(0.293385 -0.00375937 0)
(0.293314 -0.00331145 0)
(0.29325 -0.00285803 0)
(0.296644 -0.00824238 0)
(0.296551 -0.00798969 0)
(0.296458 -0.00772903 0)
(0.296366 -0.00746103 0)
(0.296276 -0.00718562 0)
(0.296188 -0.00690281 0)
(0.296101 -0.00661272 0)
(0.296016 -0.00631548 0)
(0.295934 -0.00601126 0)
(0.295854 -0.00570021 0)
(0.295777 -0.00538254 0)
(0.295702 -0.00505845 0)
(0.295631 -0.00472817 0)
(0.295564 -0.00439196 0)
(0.2955 -0.00405009 0)
(0.29544 -0.00370286 0)
(0.295384 -0.00335058 0)
(0.295333 -0.0029936 0)
(0.295285 -0.00263226 0)
(0.295243 -0.00226694 0)
(0.297779 -0.00654368 0)
(0.29772 -0.00633893 0)
(0.297662 -0.00612788 0)
(0.297606 -0.0059113 0)
(0.29755 -0.00568911 0)
(0.297495 -0.0054613 0)
(0.297441 -0.00522797 0)
(0.297389 -0.00498925 0)
(0.297338 -0.00474526 0)
(0.297288 -0.00449615 0)
(0.297241 -0.00424207 0)
(0.297195 -0.0039832 0)
(0.297151 -0.00371972 0)
(0.29711 -0.00345185 0)
(0.29707 -0.00317981 0)
(0.297033 -0.00290382 0)
(0.296999 -0.00262415 0)
(0.296967 -0.00234104 0)
(0.296938 -0.00205478 0)
(0.296912 -0.00176566 0)
(0.298667 -0.004956 0)
(0.298632 -0.00479787 0)
(0.298597 -0.00463524 0)
(0.298564 -0.00446866 0)
(0.29853 -0.00429805 0)
(0.298498 -0.00412342 0)
(0.298466 -0.00394484 0)
(0.298435 -0.00376242 0)
(0.298405 -0.00357625 0)
(0.298376 -0.00338645 0)
(0.298347 -0.00319313 0)
(0.29832 -0.00299642 0)
(0.298295 -0.00279646 0)
(0.29827 -0.0025934 0)
(0.298247 -0.0023874 0)
(0.298225 -0.00217862 0)
(0.298205 -0.00196725 0)
(0.298187 -0.00175348 0)
(0.29817 -0.00153749 0)
(0.298155 -0.00131949 0)
(0.299337 -0.00348216 0)
(0.299321 -0.00337007 0)
(0.299304 -0.00325471 0)
(0.299289 -0.00313665 0)
(0.299273 -0.00301583 0)
(0.299258 -0.00289224 0)
(0.299243 -0.00276595 0)
(0.299228 -0.00263703 0)
(0.299214 -0.00250554 0)
(0.2992 -0.00237158 0)
(0.299187 -0.00223523 0)
(0.299174 -0.00209658 0)
(0.299162 -0.00195572 0)
(0.29915 -0.00181276 0)
(0.299139 -0.00166782 0)
(0.299129 -0.00152102 0)
(0.29912 -0.00137247 0)
(0.299111 -0.0012223 0)
(0.299103 -0.00107066 0)
(0.299096 -0.000917685 0)
(0.299776 -0.00206048 0)
(0.299771 -0.00199351 0)
(0.299766 -0.0019248 0)
(0.299762 -0.00185455 0)
(0.299757 -0.0017827 0)
(0.299752 -0.00170924 0)
(0.299747 -0.00163422 0)
(0.299742 -0.00155769 0)
(0.299737 -0.00147968 0)
(0.299733 -0.00140025 0)
(0.299728 -0.00131944 0)
(0.299724 -0.00123731 0)
(0.29972 -0.00115391 0)
(0.299716 -0.00106932 0)
(0.299712 -0.000983589 0)
(0.299709 -0.00089679 0)
(0.299706 -0.000808995 0)
(0.299703 -0.000720278 0)
(0.2997 -0.000630719 0)
(0.299698 -0.0005404 0)
(0.299991 -0.000691199 0)
(0.299992 -0.000668287 0)
(0.299992 -0.000644628 0)
(0.299992 -0.000620661 0)
(0.299992 -0.000596287 0)
(0.299992 -0.000571446 0)
(0.299992 -0.000546135 0)
(0.299992 -0.000520361 0)
(0.299992 -0.000494133 0)
(0.299992 -0.000467459 0)
(0.299992 -0.000440349 0)
(0.299992 -0.000412819 0)
(0.299992 -0.000384883 0)
(0.299992 -0.000356559 0)
(0.299992 -0.000327867 0)
(0.299992 -0.000298828 0)
(0.299992 -0.000269463 0)
(0.299992 -0.000239797 0)
(0.299992 -0.000209853 0)
(0.299992 -0.000179656 0)
(0.0717491 -0.0830731 0)
(0.0529018 -0.067145 0)
(0.0402914 -0.0532526 0)
(0.0312319 -0.0421381 0)
(0.0243961 -0.0331011 0)
(0.019069 -0.0256552 0)
(0.0148282 -0.0195359 0)
(0.0114038 -0.0145487 0)
(0.00861373 -0.0105274 0)
(0.00632908 -0.00733109 0)
(0.00445583 -0.00484014 0)
(0.00292402 -0.0029516 0)
(0.00168167 -0.00157498 0)
(0.000691271 -0.000629199 0)
(-7.19757e-05 -3.9652e-05 0)
(-0.000620536 0.000265305 0)
(-0.000953681 0.000356215 0)
(-0.00105631 0.000296527 0)
(-0.000899411 0.000159016 0)
(-0.000431046 4.09452e-05 0)
(0.112935 -0.0649664 0)
(0.0960079 -0.0586658 0)
(0.0815837 -0.0516681 0)
(0.0692071 -0.0449673 0)
(0.0585133 -0.0386762 0)
(0.0492295 -0.0328392 0)