x,y,z,U_0,U_1,U_2
0,0,0,0.300019,-0.00128277,-2.48558e-14
0,0.1,0,0.300015,-0.00102015,-1.97672e-14
0,0.2,0,0.300011,-0.00075754,-1.46786e-14
0,0.3,0,0.300007,-0.000494926,-9.59003e-15
0,0.4,0,0.300003,-0.000232312,-4.50144e-15
0,0.5,0,0.3,-1.29017e-19,-7.14174e-30
0,0.6,0,0.3,-1.54821e-19,-8.57008e-30
0,0.7,0,0.3,-1.80624e-19,-9.99843e-30
0,0.8,0,0.3,-2.06428e-19,-1.14268e-29
0,0.9,0,0.3,-2.32231e-19,-1.28551e-29
0,1,0,0.3,-2.47364e-19,-1.94764e-29
0,1.1,0,0.3,-2.72101e-19,-2.1424e-29
0,1.2,0,0.3,-2.96837e-19,-2.33717e-29
0,1.3,0,0.3,-3.21574e-19,-2.53193e-29
0,1.4,0,0.3,-3.4631e-19,-2.7267e-29
0,1.5,0,0.3,-3.5089e-19,-3.22198e-29
0,1.6,0,0.3,-3.74283e-19,-3.43678e-29
0,1.7,0,0.3,-3.97675e-19,-3.65158e-29
0,1.8,0,0.3,-4.21068e-19,-3.86638e-29
0,1.9,0,0.3,-4.44461e-19,-4.08118e-29
0,2,0,0.3,-4.35071e-19,-4.94707e-29
0,2.1,0,0.3,-4.56825e-19,-5.19442e-29
0,2.2,0,0.3,-4.78578e-19,-5.44177e-29
0,2.3,0,0.3,-5.00332e-19,-5.68913e-29
0,2.4,0,0.3,-5.22085e-19,-5.93648e-29
0,2.5,0,0.3,-4.94907e-19,-6.8344e-29
0,2.6,0,0.3,-5.14703e-19,-7.10777e-29
0,2.7,0,0.3,-5.34499e-19,-7.38115e-29
0,2.8,0,0.3,-5.54295e-19,-7.65452e-29
0,2.9,0,0.3,-5.74092e-19,-7.9279e-29
0,3,0,0.3,-5.25793e-19,-8.98235e-29
0,3.1,0,0.3,-5.43319e-19,-9.28176e-29
0,3.2,0,0.3,-5.60846e-19,-9.58117e-29
0,3.3,0,0.3,-5.78372e-19,-9.88059e-29
0,3.4,0,0.3,-5.95899e-19,-1.018e-28
0,3.5,0,0.3,-5.2484e-19,-1.11628e-28
0,3.6,0,0.3,-5.39836e-19,-1.14818e-28
0,3.7,0,0.3,-5.54831e-19,-1.18007e-28
0,3.8,0,0.3,-5.69827e-19,-1.21197e-28
0,3.9,0,0.3,-5.84822e-19,-1.24386e-28
0,4,0,0.3,-4.89858e-19,-1.35386e-28
0,4.1,0,0.3,-5.02104e-19,-1.38771e-28
0,4.2,0,0.3,-5.14351e-19,-1.42155e-28
0,4.3,0,0.3,-5.26597e-19,-1.4554e-28
0,4.4,0,0.3,-4.10736e-19,-1.54653e-28
0,4.5,0,0.3,-4.20071e-19,-1.58167e-28
0,4.6,0,0.3,-4.29406e-19,-1.61682e-28
0,4.7,0,0.3,-4.38741e-19,-1.65197e-28
0,4.8,0,0.3,-4.48076e-19,-1.68712e-28
0,4.9,0,0.3,-3.08268e-19,-1.72227e-28
0,5,0,0.3,-3.14559e-19,-1.75742e-28
0,5.1,0,0.3,-3.2085e-19,-1.79256e-28
0,5.2,0,0.3,-3.27141e-19,-1.82771e-28
0,5.3,0,0.3,-3.33432e-19,-1.86286e-28
0,5.4,0,0.3,-1.70489e-19,-1.86286e-28
0,5.5,0,0.3,-1.73646e-19,-1.89736e-28
0,5.6,0,0.3,-1.76803e-19,-1.93186e-28
0,5.7,0,0.3,-1.7996e-19,-1.96635e-28
0,5.8,0,0.3,-1.83118e-19,-2.00085e-28
0,5.9,0,0.3,8.83648e-22,-1.92014e-28
0,6,0,0.3,8.98626e-22,-1.95268e-28
0,6.1,0,0.3,9.13603e-22,-1.98523e-28
0,6.2,0,0.3,9.2858e-22,-2.01777e-28
0,6.3,0,0.3,9.43557e-22,-2.05032e-28
0,6.4,0,0.3,2.03815e-19,-1.95789e-28
0,6.5,0,0.3,2.07e-19,-1.98848e-28
0,6.6,0,0.3,2.10185e-19,-2.01908e-28
0,6.7,0,0.3,2.13369e-19,-2.04967e-28
0,6.8,0,0.3,2.16554e-19,-2.08026e-28
0,6.9,0,0.3,4.35664e-19,-1.97612e-28
0,7,0,0.3,4.41978e-19,-2.00476e-28
0,7.1,0,0.3,4.48292e-19,-2.0334e-28
0,7.2,0,0.3,4.54606e-19,-2.06204e-28
0,7.3,0,0.3,4.6092e-19,-2.09067e-28
0,7.4,0,0.3,6.92154e-19,-1.87848e-28
0,7.5,0,0.3,7.01507e-19,-1.90387e-28
0,7.6,0,0.3,7.1086e-19,-1.92925e-28
0,7.7,0,0.3,7.20214e-19,-1.95464e-28
0,7.8,0,0.3,7.29567e-19,-1.98002e-28
0,7.9,0,0.3,9.68242e-19,-1.7483e-28
0,8,0,0.3,9.80498e-19,-1.77043e-28
0,8.1,0,0.3,9.92754e-19,-1.79256e-28
0,8.2,0,0.3,1.00501e-18,-1.8147e-28
0,8.3,0,0.3,1.01727e-18,-1.83683e-28
0,8.4,0,0.3,1.25831e-18,-1.64026e-28
0,8.5,0,0.3,1.27329e-18,-1.65978e-28
0,8.6,0,0.3,1.28827e-18,-1.67931e-28
0,8.7,0,0.3,1.30324e-18,-1.69884e-28
0,8.8,0,0.3,1.53909e-18,-1.31741e-28
0,8.9,0,0.3,1.55658e-18,-1.33238e-28
0,9,0,0.3,1.57407e-18,-1.34735e-28
0,9.1,0,0.3,1.59156e-18,-1.36232e-28
0,9.2,0,0.3,1.60905e-18,-1.37729e-28
0,9.3,0,0.3,1.83679e-18,-1.02906e-28
0,9.4,0,0.3,1.85654e-18,-1.04013e-28
0,9.5,0,0.3,1.87629e-18,-1.0512e-28
0,9.6,0,0.3,1.89604e-18,-1.06226e-28
0,9.7,0,0.3,1.91579e-18,-1.07333e-28
0,9.8,0,0.3,2.12919e-18,-8.93028e-29
0,9.9,0,0.3,2.15091e-18,-9.0214e-29
0,10,0,0.3,2.17264e-18,-9.11253e-29
0,10.1,0,0.3,2.19436e-18,-9.20365e-29
0,10.2,0,0.3,2.21609e-18,-9.29478e-29
0,10.3,0,0.3,2.40808e-18,-6.03329e-29
0,10.4,0,0.3,2.43146e-18,-6.09186e-29
0,10.5,0,0.3,2.45484e-18,-6.15044e-29
0,10.6,0,0.3,2.47822e-18,-6.20901e-29
0,10.7,0,0.3,2.5016e-18,-6.26759e-29
0,10.8,0,0.3,2.66985e-18,-4.21827e-29
0,10.9,0,0.3,2.69457e-18,-4.25733e-29
0,11,0,0.3,2.7193e-18,-4.29639e-29
0,11.1,0,0.3,2.74402e-18,-4.33545e-29
0,11.2,0,0.3,2.76874e-18,-4.3745e-29
0,11.3,0,0.3,2.91755e-18,-2.942e-29
0,11.4,0,0.3,2.94337e-18,-2.96804e-29
0,11.5,0,0.3,2.96919e-18,-2.99407e-29
0,11.6,0,0.3,2.99501e-18,-3.02011e-29
0,11.7,0,0.3,3.02083e-18,-3.04614e-29
0,11.8,0,0.3,3.04665e-18,-3.07218e-29
0,11.9,0,0.3,3.07247e-18,-3.09821e-29
0,12,0,0.3,3.09829e-18,-3.12425e-29
0,12.1,0,0.3,3.12411e-18,-3.15028e-29
0,12.2,0,0.3,3.14993e-18,-3.17632e-29
0,12.3,0,0.299997,0.000230035,-4.50144e-15
0,12.4,0,0.299993,0.000490075,-9.59003e-15
0,12.5,0,0.299989,0.000750115,-1.46786e-14
0,12.6,0,0.299985,0.00101016,-1.97672e-14
0,12.7,0,0.299981,0.0012702,-2.48558e-14
0.1,0,0,0.300016,-0.00205649,-3.48846e-14
0.1,0.1,0,0.300016,-0.00204604,-4.49523e-14
0.1,0.2,0,0.300012,-0.00178342,-3.98637e-14
0.1,0.3,0,0.300008,-0.00152081,-3.47751e-14
0.1,0.4,0,0.300004,-0.0012582,-2.96865e-14
0.1,0.5,0,0.3,-0.00101932,-2.82715e-14
0.1,0.6,0,0.299995,-0.000991075,-5.48609e-14
0.1,0.7,0,0.299995,-0.000991075,-5.48609e-14
0.1,0.8,0,0.299995,-0.000991075,-5.48609e-14
0.1,0.9,0,0.299995,-0.000991075,-5.48609e-14
0.1,1,0,0.299992,-0.000981845,-5.93531e-14
0.1,1.1,0,0.299983,-0.000950093,-7.48062e-14
0.1,1.2,0,0.299983,-0.000950093,-7.48062e-14
0.1,1.3,0,0.299983,-0.000950093,-7.48062e-14
0.1,1.4,0,0.299983,-0.000950093,-7.48062e-14
0.1,1.5,0,0.299979,-0.000932029,-7.74995e-14
0.1,1.6,0,0.299972,-0.000898481,-8.25014e-14
0.1,1.7,0,0.299972,-0.000898481,-8.25014e-14
0.1,1.8,0,0.299972,-0.000898481,-8.25014e-14
0.1,1.9,0,0.299972,-0.000898481,-8.25014e-14
0.1,2,0,0.299968,-0.000868738,-8.84087e-14
0.1,2.1,0,0.299964,-0.000835525,-9.50051e-14
0.1,2.2,0,0.299964,-0.000835525,-9.50051e-14
0.1,2.3,0,0.299964,-0.000835525,-9.50051e-14
0.1,2.4,0,0.299964,-0.000835525,-9.50051e-14
0.1,2.5,0,0.29996,-0.000791129,-1.00908e-13
0.1,2.6,0,0.299957,-0.000760348,-1.05e-13
0.1,2.7,0,0.299957,-0.000760348,-1.05e-13
0.1,2.8,0,0.299957,-0.000760348,-1.05e-13
0.1,2.9,0,0.299957,-0.000760348,-1.05e-13
0.1,3,0,0.299952,-0.000698566,-1.12087e-13
0.1,3.1,0,0.29995,-0.000673167,-1.15e-13
0.1,3.2,0,0.29995,-0.000673167,-1.15e-13
0.1,3.3,0,0.29995,-0.000673167,-1.15e-13
0.1,3.4,0,0.29995,-0.000673167,-1.15e-13
0.1,3.5,0,0.299946,-0.000592794,-1.21201e-13
0.1,3.6,0,0.299945,-0.000575954,-1.225e-13
0.1,3.7,0,0.299945,-0.000575954,-1.225e-13
0.1,3.8,0,0.299945,-0.000575954,-1.225e-13
0.1,3.9,0,0.299945,-0.000575954,-1.225e-13
0.1,4,0,0.299942,-0.000476189,-1.29587e-13
0.1,4.1,0,0.299942,-0.00047037,-1.3e-13
0.1,4.2,0,0.299942,-0.00047037,-1.3e-13
0.1,4.3,0,0.299942,-0.00047037,-1.3e-13
0.1,4.4,0,0.299942,-0.000465967,-1.30197e-13
0.1,4.5,0,0.299938,-0.000358542,-1.35e-13
0.1,4.6,0,0.299938,-0.000358542,-1.35e-13
0.1,4.7,0,0.299938,-0.000358542,-1.35e-13
0.1,4.8,0,0.299938,-0.000358542,-1.35e-13
0.1,4.9,0,0.299938,-0.000340131,-1.35e-13
0.1,5,0,0.299936,-0.000241636,-1.35e-13
0.1,5.1,0,0.299936,-0.000241636,-1.35e-13
0.1,5.2,0,0.299936,-0.000241636,-1.35e-13
0.1,5.3,0,0.299936,-0.000241636,-1.35e-13
0.1,5.4,0,0.299936,-0.000208462,-1.34311e-13
0.1,5.5,0,0.299934,-0.000121264,-1.325e-13
0.1,5.6,0,0.299934,-0.000121264,-1.325e-13
0.1,5.7,0,0.299934,-0.000121264,-1.325e-13
0.1,5.8,0,0.299934,-0.000121264,-1.325e-13
0.1,5.9,0,0.299934,-7.32956e-05,-1.29547e-13
0.1,6,0,0.299934,5.7525e-07,-1.25e-13
0.1,6.1,0,0.299934,5.7525e-07,-1.25e-13
0.1,6.2,0,0.299934,5.7525e-07,-1.25e-13
0.1,6.3,0,0.299934,5.7525e-07,-1.25e-13
0.1,6.4,0,0.299934,6.28839e-05,-1.21161e-13
0.1,6.5,0,0.299934,0.000122317,-1.175e-13
0.1,6.6,0,0.299934,0.000122317,-1.175e-13
0.1,6.7,0,0.299934,0.000122317,-1.175e-13
0.1,6.8,0,0.299934,0.000122317,-1.175e-13
0.1,6.9,0,0.299935,0.00019803,-1.12776e-13
0.1,7,0,0.299936,0.000242511,-1.1e-13
0.1,7.1,0,0.299936,0.000242511,-1.1e-13
0.1,7.2,0,0.299936,0.000242511,-1.1e-13
0.1,7.3,0,0.299936,0.000242511,-1.1e-13
0.1,7.4,0,0.299938,0.000329837,-1.0065e-13
0.1,7.5,0,0.299938,0.000359253,-9.75e-14
0.1,7.6,0,0.299938,0.000359253,-9.75e-14
0.1,7.7,0,0.299938,0.000359253,-9.75e-14
0.1,7.8,0,0.299938,0.000359253,-9.75e-14
0.1,7.9,0,0.299941,0.000455821,-8.66732e-14
0.1,8,0,0.299942,0.000470745,-8.5e-14
0.1,8.1,0,0.299942,0.000470745,-8.5e-14
0.1,8.2,0,0.299942,0.000470745,-8.5e-14
0.1,8.3,0,0.299942,0.000470745,-8.5e-14
0.1,8.4,0,0.299946,0.000573708,-7.51575e-14
0.1,8.5,0,0.299946,0.000575355,-7.5e-14
0.1,8.6,0,0.299946,0.000575355,-7.5e-14
0.1,8.7,0,0.299946,0.000575355,-7.5e-14
0.1,8.8,0,0.299946,0.000582946,-7.3622e-14
0.1,8.9,0,0.299951,0.000671755,-5.75e-14
0.1,9,0,0.299951,0.000671755,-5.75e-14
0.1,9.1,0,0.299951,0.000671755,-5.75e-14
0.1,9.2,0,0.299951,0.000671755,-5.75e-14
0.1,9.3,0,0.299952,0.000688847,-5.45472e-14
0.1,9.4,0,0.299957,0.000758586,-4.25e-14
0.1,9.5,0,0.299957,0.000758586,-4.25e-14
0.1,9.6,0,0.299957,0.000758586,-4.25e-14
0.1,9.7,0,0.299957,0.000758586,-4.25e-14
0.1,9.8,0,0.299959,0.00078249,-4.01378e-14
0.1,9.9,0,0.299963,0.000834481,-3.5e-14
0.1,10,0,0.299963,0.000834481,-3.5e-14
0.1,10.1,0,0.299963,0.000834481,-3.5e-14
0.1,10.2,0,0.299963,0.000834481,-3.5e-14
0.1,10.3,0,0.299966,0.000861977,-2.95858e-14
0.1,10.4,0,0.29997,0.000897973,-2.24981e-14
0.1,10.5,0,0.29997,0.000897973,-2.24981e-14
0.1,10.6,0,0.29997,0.000897973,-2.24981e-14
0.1,10.7,0,0.29997,0.000897973,-2.24981e-14
0.1,10.8,0,0.299974,0.000926371,-1.83662e-14
0.1,10.9,0,0.299977,0.000949495,-1.50017e-14
0.1,11,0,0.299977,0.000949495,-1.50017e-14
0.1,11.1,0,0.299977,0.000949495,-1.50017e-14
0.1,11.2,0,0.299977,0.000949495,-1.50017e-14
0.1,11.3,0,0.299982,0.000977726,-1.1654e-14
0.1,11.4,0,0.299984,0.000991675,-9.99985e-15
0.1,11.5,0,0.299984,0.000991675,-9.99985e-15
0.1,11.6,0,0.299984,0.000991675,-9.99985e-15
0.1,11.7,0,0.299984,0.000991675,-9.99985e-15
0.1,11.8,0,0.299984,0.000991675,-9.99985e-15
0.1,11.9,0,0.299984,0.000991675,-9.99985e-15
0.1,12,0,0.299984,0.000991675,-9.99985e-15
0.1,12.1,0,0.299984,0.000991675,-9.99985e-15
0.1,12.2,0,0.299991,0.00102045,-5.64275e-15
0.1,12.3,0,0.299988,0.00125301,-9.50081e-15
0.1,12.4,0,0.299985,0.00151305,-1.45894e-14
0.1,12.5,0,0.299981,0.00177309,-1.9678e-14
0.1,12.6,0,0.299977,0.00203313,-2.47666e-14
0.1,12.7,0,0.299981,0.00205103,-2.48846e-14
0.2,0,0,0.300012,-0.00283022,-4.49135e-14
0.2,0.1,0,0.300012,-0.00282162,-5.50929e-14
0.2,0.2,0,0.300012,-0.00280931,-6.50488e-14
0.2,0.3,0,0.300008,-0.0025467,-5.99602e-14
0.2,0.4,0,0.300005,-0.00228408,-5.48716e-14
0.2,0.5,0,0.300001,-0.00204239,-5.302e-14
0.2,0.6,0,0.299995,-0.00200995,-8.35524e-14
0.2,0.7,0,0.29999,-0.00198215,-1.09722e-13
0.2,0.8,0,0.29999,-0.00198215,-1.09722e-13
0.2,0.9,0,0.29999,-0.00198215,-1.09722e-13
0.2,1,0,0.299987,-0.00197345,-1.13955e-13
0.2,1.1,0,0.299974,-0.00193115,-1.34544e-13
0.2,1.2,0,0.299965,-0.00190019,-1.49612e-13
0.2,1.3,0,0.299965,-0.00190019,-1.49612e-13
0.2,1.4,0,0.299965,-0.00190019,-1.49612e-13
0.2,1.5,0,0.299961,-0.00188247,-1.52254e-13
0.2,1.6,0,0.299951,-0.00182928,-1.60184e-13
0.2,1.7,0,0.299944,-0.00179696,-1.65003e-13
0.2,1.8,0,0.299944,-0.00179696,-1.65003e-13
0.2,1.9,0,0.299944,-0.00179696,-1.65003e-13
0.2,2,0,0.29994,-0.00176722,-1.7091e-13
0.2,2.1,0,0.299932,-0.00170278,-1.83709e-13
0.2,2.2,0,0.299928,-0.00167105,-1.9001e-13
0.2,2.3,0,0.299928,-0.00167105,-1.9001e-13
0.2,2.4,0,0.299928,-0.00167105,-1.9001e-13
0.2,2.5,0,0.299924,-0.00162665,-1.95913e-13
0.2,2.6,0,0.299916,-0.0015497,-2.06144e-13
0.2,2.7,0,0.299913,-0.0015207,-2.1e-13
0.2,2.8,0,0.299913,-0.0015207,-2.1e-13
0.2,2.9,0,0.299913,-0.0015207,-2.1e-13
0.2,3,0,0.299909,-0.00145891,-2.17087e-13
0.2,3.1,0,0.299902,-0.00136967,-2.27323e-13
0.2,3.2,0,0.299901,-0.00134633,-2.3e-13
0.2,3.3,0,0.299901,-0.00134633,-2.3e-13
0.2,3.4,0,0.299901,-0.00134633,-2.3e-13
0.2,3.5,0,0.299896,-0.00126596,-2.36201e-13
0.2,3.6,0,0.299891,-0.00116645,-2.43878e-13
0.2,3.7,0,0.299891,-0.00115191,-2.45e-13
0.2,3.8,0,0.299891,-0.00115191,-2.45e-13
0.2,3.9,0,0.299891,-0.00115191,-2.45e-13
0.2,4,0,0.299887,-0.00105214,-2.52087e-13
0.2,4.1,0,0.299884,-0.000944065,-2.59764e-13
0.2,4.2,0,0.299883,-0.000940739,-2.6e-13
0.2,4.3,0,0.299883,-0.000940739,-2.6e-13
0.2,4.4,0,0.299883,-0.000936336,-2.60197e-13
0.2,4.5,0,0.29988,-0.000821867,-2.65315e-13
0.2,4.6,0,0.299877,-0.000717083,-2.7e-13
0.2,4.7,0,0.299877,-0.000717083,-2.7e-13
0.2,4.8,0,0.299877,-0.000717083,-2.7e-13
0.2,4.9,0,0.299877,-0.000698673,-2.7e-13
0.2,5,0,0.299874,-0.000579005,-2.7e-13
0.2,5.1,0,0.299872,-0.000483271,-2.7e-13
0.2,5.2,0,0.299872,-0.000483271,-2.7e-13
0.2,5.3,0,0.299872,-0.000483271,-2.7e-13
0.2,5.4,0,0.299872,-0.000450098,-2.69311e-13
0.2,5.5,0,0.29987,-0.000326883,-2.66752e-13
0.2,5.6,0,0.299869,-0.000242527,-2.65e-13
0.2,5.7,0,0.299869,-0.000242527,-2.65e-13
0.2,5.8,0,0.299869,-0.000242527,-2.65e-13
0.2,5.9,0,0.299869,-0.000194559,-2.62047e-13
0.2,6,0,0.299868,-6.98423e-05,-2.5437e-13
0.2,6.1,0,0.299868,1.1505e-06,-2.5e-13
0.2,6.2,0,0.299868,1.1505e-06,-2.5e-13
0.2,6.3,0,0.299868,1.1505e-06,-2.5e-13
0.2,6.4,0,0.299868,6.34592e-05,-2.46161e-13
0.2,6.5,0,0.299869,0.000188077,-2.38484e-13
0.2,6.6,0,0.299869,0.000244634,-2.35e-13
0.2,6.7,0,0.299869,0.000244634,-2.35e-13
0.2,6.8,0,0.299869,0.000244634,-2.35e-13
0.2,6.9,0,0.29987,0.000320347,-2.30276e-13
0.2,7,0,0.299871,0.000443381,-2.22598e-13
0.2,7.1,0,0.299872,0.000485023,-2.2e-13
0.2,7.2,0,0.299872,0.000485023,-2.2e-13
0.2,7.3,0,0.299872,0.000485023,-2.2e-13
0.2,7.4,0,0.299873,0.000572349,-2.1065e-13
0.2,7.5,0,0.299876,0.000691848,-1.97854e-13
0.2,7.6,0,0.299877,0.000718505,-1.95e-13
0.2,7.7,0,0.299877,0.000718505,-1.95e-13
0.2,7.8,0,0.299877,0.000718505,-1.95e-13
0.2,7.9,0,0.29988,0.000815073,-1.84173e-13
0.2,8,0,0.299883,0.000929199,-1.71378e-13
0.2,8.1,0,0.299884,0.00094149,-1.7e-13
0.2,8.2,0,0.299884,0.00094149,-1.7e-13
0.2,8.3,0,0.299884,0.00094149,-1.7e-13
0.2,8.4,0,0.299888,0.00104445,-1.60157e-13
0.2,8.5,0,0.299892,0.00115071,-1.5e-13
0.2,8.6,0,0.299892,0.00115071,-1.5e-13
0.2,8.7,0,0.299892,0.00115071,-1.5e-13
0.2,8.8,0,0.299892,0.0011583,-1.48622e-13
0.2,8.9,0,0.299897,0.00125698,-1.30709e-13
0.2,9,0,0.299902,0.00134351,-1.15e-13
0.2,9.1,0,0.299902,0.00134351,-1.15e-13
0.2,9.2,0,0.299902,0.00134351,-1.15e-13
0.2,9.3,0,0.299903,0.0013606,-1.12047e-13
0.2,9.4,0,0.299909,0.00144948,-9.66929e-14
0.2,9.5,0,0.299913,0.00151717,-8.5e-14
0.2,9.6,0,0.299913,0.00151717,-8.5e-14
0.2,9.7,0,0.299913,0.00151717,-8.5e-14
0.2,9.8,0,0.299915,0.00154108,-8.26378e-14
0.2,9.9,0,0.299922,0.00161876,-7.49606e-14
0.2,10,0,0.299926,0.00166896,-7e-14
0.2,10.1,0,0.299926,0.00166896,-7e-14
0.2,10.2,0,0.299926,0.00166896,-7e-14
0.2,10.3,0,0.299929,0.00169646,-6.45858e-14
0.2,10.4,0,0.299936,0.00176145,-5.17886e-14
0.2,10.5,0,0.29994,0.00179595,-4.49962e-14
0.2,10.6,0,0.29994,0.00179595,-4.49962e-14
0.2,10.7,0,0.29994,0.00179595,-4.49962e-14
0.2,10.8,0,0.299944,0.00182434,-4.08643e-14
0.2,10.9,0,0.299951,0.00187708,-3.31908e-14
0.2,11,0,0.299955,0.00189899,-3.00034e-14
0.2,11.1,0,0.299955,0.00189899,-3.00034e-14
0.2,11.2,0,0.299955,0.00189899,-3.00034e-14
0.2,11.3,0,0.299959,0.00192722,-2.66557e-14
0.2,11.4,0,0.299967,0.0019704,-2.15357e-14
0.2,11.5,0,0.299969,0.00198335,-1.99997e-14
0.2,11.6,0,0.299969,0.00198335,-1.99997e-14
0.2,11.7,0,0.299969,0.00198335,-1.99997e-14
0.2,11.8,0,0.299969,0.00198335,-1.99997e-14
0.2,11.9,0,0.299969,0.00198335,-1.99997e-14
0.2,12,0,0.299969,0.00198335,-1.99997e-14
0.2,12.1,0,0.299975,0.00201136,-1.57593e-14
0.2,12.2,0,0.299983,0.00204476,-1.0702e-14
0.2,12.3,0,0.29998,0.00227598,-1.45002e-14
0.2,12.4,0,0.299976,0.00253602,-1.95888e-14
0.2,12.5,0,0.299973,0.00279606,-2.46774e-14
0.2,12.6,0,0.299976,0.00282046,-2.49289e-14
0.2,12.7,0,0.29998,0.00283186,-2.49135e-14
0.3,0,0,0.300009,-0.00360395,-5.49423e-14
0.3,0.1,0,0.300009,-0.00359535,-6.51217e-14
0.3,0.2,0,0.300009,-0.00358675,-7.53011e-14
0.3,0.3,0,0.300009,-0.00357258,-8.51453e-14
0.3,0.4,0,0.300005,-0.00330997,-8.00567e-14
0.3,0.5,0,0.300001,-0.00306545,-7.77686e-14
0.3,0.6,0,0.299995,-0.00303302,-1.08301e-13
0.3,0.7,0,0.299989,-0.00300058,-1.38833e-13
0.3,0.8,0,0.299984,-0.00297323,-1.64583e-13
0.3,0.9,0,0.299984,-0.00297323,-1.64583e-13
0.3,1,0,0.299982,-0.00296506,-1.68557e-13
0.3,1.1,0,0.299969,-0.00292276,-1.89146e-13
0.3,1.2,0,0.299957,-0.00288045,-2.09734e-13
0.3,1.3,0,0.299948,-0.00285028,-2.24419e-13
0.3,1.4,0,0.299948,-0.00285028,-2.24419e-13
0.3,1.5,0,0.299944,-0.00283291,-2.27009e-13
0.3,1.6,0,0.299933,-0.00277972,-2.34938e-13
0.3,1.7,0,0.299922,-0.00272654,-2.42868e-13
0.3,1.8,0,0.299916,-0.00269544,-2.47504e-13
0.3,1.9,0,0.299916,-0.00269544,-2.47504e-13
0.3,2,0,0.299912,-0.0026657,-2.53411e-13
0.3,2.1,0,0.299904,-0.00260126,-2.66211e-13
0.3,2.2,0,0.299896,-0.00253681,-2.7901e-13
0.3,2.3,0,0.299892,-0.00250657,-2.85015e-13
0.3,2.4,0,0.299892,-0.00250657,-2.85015e-13
0.3,2.5,0,0.299888,-0.00246218,-2.90918e-13
0.3,2.6,0,0.29988,-0.00238523,-3.01149e-13
0.3,2.7,0,0.299873,-0.00230827,-3.1138e-13
0.3,2.8,0,0.29987,-0.00228104,-3.15e-13
0.3,2.9,0,0.29987,-0.00228104,-3.15e-13
0.3,3,0,0.299865,-0.00221926,-3.22087e-13
0.3,3.1,0,0.299859,-0.00213002,-3.32323e-13
0.3,3.2,0,0.299852,-0.00204078,-3.42559e-13
0.3,3.3,0,0.299851,-0.0020195,-3.45e-13
0.3,3.4,0,0.299851,-0.0020195,-3.45e-13
0.3,3.5,0,0.299847,-0.00193913,-3.51201e-13
0.3,3.6,0,0.299842,-0.00183962,-3.58878e-13
0.3,3.7,0,0.299837,-0.00174011,-3.66555e-13
0.3,3.8,0,0.299836,-0.00172786,-3.675e-13
0.3,3.9,0,0.299836,-0.00172786,-3.675e-13
0.3,4,0,0.299833,-0.0016281,-3.74587e-13
0.3,4.1,0,0.299829,-0.00152002,-3.82264e-13
0.3,4.2,0,0.299825,-0.00141194,-3.89941e-13
0.3,4.3,0,0.299825,-0.00141111,-3.9e-13
0.3,4.4,0,0.299825,-0.00140671,-3.90197e-13
0.3,4.5,0,0.299822,-0.00129224,-3.95315e-13
0.3,4.6,0,0.299818,-0.00117777,-4.00433e-13
0.3,4.7,0,0.299815,-0.00107562,-4.05e-13
0.3,4.8,0,0.299815,-0.00107562,-4.05e-13
0.3,4.9,0,0.299815,-0.00105721,-4.05e-13
0.3,5,0,0.299812,-0.000937547,-4.05e-13
0.3,5.1,0,0.29981,-0.000817879,-4.05e-13
0.3,5.2,0,0.299808,-0.000724907,-4.05e-13
0.3,5.3,0,0.299808,-0.000724907,-4.05e-13
0.3,5.4,0,0.299807,-0.000691733,-4.04311e-13
0.3,5.5,0,0.299806,-0.000568518,-4.01752e-13
0.3,5.6,0,0.299804,-0.000445303,-3.99193e-13
0.3,5.7,0,0.299803,-0.000363791,-3.975e-13
0.3,5.8,0,0.299803,-0.000363791,-3.975e-13
0.3,5.9,0,0.299803,-0.000315823,-3.94547e-13
0.3,6,0,0.299803,-0.000191106,-3.8687e-13
0.3,6.1,0,0.299802,-6.6389e-05,-3.79193e-13
0.3,6.2,0,0.299802,1.72575e-06,-3.75e-13
0.3,6.3,0,0.299802,1.72575e-06,-3.75e-13
0.3,6.4,0,0.299802,6.40344e-05,-3.71161e-13
0.3,6.5,0,0.299802,0.000188652,-3.63484e-13
0.3,6.6,0,0.299803,0.000313269,-3.55807e-13
0.3,6.7,0,0.299803,0.000366951,-3.525e-13
0.3,6.8,0,0.299803,0.000366951,-3.525e-13
0.3,6.9,0,0.299804,0.000442664,-3.47776e-13
0.3,7,0,0.299805,0.000565697,-3.40098e-13
0.3,7.1,0,0.299807,0.000688731,-3.32421e-13
0.3,7.2,0,0.299807,0.000727534,-3.3e-13
0.3,7.3,0,0.299807,0.000727534,-3.3e-13
0.3,7.4,0,0.299809,0.00081486,-3.2065e-13
0.3,7.5,0,0.299812,0.000934359,-3.07854e-13
0.3,7.6,0,0.299814,0.00105386,-2.95059e-13
0.3,7.7,0,0.299815,0.00107776,-2.925e-13
0.3,7.8,0,0.299815,0.00107776,-2.925e-13
0.3,7.9,0,0.299818,0.00117433,-2.81673e-13
0.3,8,0,0.299821,0.00128845,-2.68878e-13
0.3,8.1,0,0.299825,0.00140258,-2.56083e-13
0.3,8.2,0,0.299825,0.00141224,-2.55e-13
0.3,8.3,0,0.299825,0.00141224,-2.55e-13
0.3,8.4,0,0.299829,0.0015152,-2.45157e-13
0.3,8.5,0,0.299834,0.00162228,-2.34921e-13
0.3,8.6,0,0.299838,0.00172606,-2.25e-13
0.3,8.7,0,0.299838,0.00172606,-2.25e-13
0.3,8.8,0,0.299838,0.00173366,-2.23622e-13
0.3,8.9,0,0.299843,0.00183233,-2.05709e-13
0.3,9,0,0.299849,0.00193101,-1.87795e-13
0.3,9.1,0,0.299853,0.00201526,-1.725e-13
0.3,9.2,0,0.299853,0.00201526,-1.725e-13
0.3,9.3,0,0.299854,0.00203236,-1.69547e-13
0.3,9.4,0,0.29986,0.00212124,-1.54193e-13
0.3,9.5,0,0.299866,0.00221012,-1.38839e-13
0.3,9.6,0,0.29987,0.00227576,-1.275e-13
0.3,9.7,0,0.29987,0.00227576,-1.275e-13
0.3,9.8,0,0.299872,0.00229966,-1.25138e-13
0.3,9.9,0,0.299878,0.00237735,-1.17461e-13
0.3,10,0,0.299885,0.00245504,-1.09783e-13
0.3,10.1,0,0.299889,0.00250344,-1.05e-13
0.3,10.2,0,0.299889,0.00250344,-1.05e-13
0.3,10.3,0,0.299892,0.00253094,-9.95858e-14
0.3,10.4,0,0.299899,0.00259593,-8.67886e-14
0.3,10.5,0,0.299906,0.00266092,-7.39913e-14
0.3,10.6,0,0.299909,0.00269392,-6.74943e-14
0.3,10.7,0,0.299909,0.00269392,-6.74943e-14
0.3,10.8,0,0.299914,0.00272232,-6.33624e-14
0.3,10.9,0,0.299921,0.00277506,-5.56889e-14
0.3,11,0,0.299929,0.0028278,-4.80154e-14
0.3,11.1,0,0.299932,0.00284849,-4.5005e-14
0.3,11.2,0,0.299932,0.00284849,-4.5005e-14
0.3,11.3,0,0.299937,0.00287672,-4.16574e-14
0.3,11.4,0,0.299944,0.00291989,-3.65374e-14
0.3,11.5,0,0.299951,0.00296307,-3.14174e-14
0.3,11.6,0,0.299953,0.00297503,-2.99995e-14
0.3,11.7,0,0.299953,0.00297503,-2.99995e-14
0.3,11.8,0,0.299953,0.00297503,-2.99995e-14
0.3,11.9,0,0.299953,0.00297503,-2.99995e-14
0.3,12,0,0.299959,0.00300226,-2.58759e-14
0.3,12.1,0,0.299967,0.00303566,-2.08185e-14
0.3,12.2,0,0.299974,0.00306907,-1.57612e-14
0.3,12.3,0,0.299972,0.00329895,-1.94996e-14
0.3,12.4,0,0.299968,0.00355899,-2.45881e-14
0.3,12.5,0,0.299972,0.00358989,-2.49731e-14
0.3,12.6,0,0.299976,0.00360129,-2.49577e-14
0.3,12.7,0,0.29998,0.00361269,-2.49423e-14
0.4,0,0,0.300005,-0.00437767,-6.49712e-14
0.4,0.1,0,0.300006,-0.00436908,-7.51505e-14
0.4,0.2,0,0.300006,-0.00436048,-8.53299e-14
0.4,0.3,0,0.300006,-0.00435188,-9.55093e-14
0.4,0.4,0,0.300006,-0.00433585,-1.05242e-13
0.4,0.5,0,0.300002,-0.00408851,-1.02517e-13
0.4,0.6,0,0.299996,-0.00405608,-1.3305e-13
0.4,0.7,0,0.29999,-0.00402364,-1.63582e-13
0.4,0.8,0,0.299984,-0.00399121,-1.94114e-13
0.4,0.9,0,0.299979,-0.0039643,-2.19444e-13
0.4,1,0,0.299977,-0.00395667,-2.23159e-13
0.4,1.1,0,0.299964,-0.00391436,-2.43748e-13
0.4,1.2,0,0.299952,-0.00387206,-2.64336e-13
0.4,1.3,0,0.299939,-0.00382976,-2.84924e-13
0.4,1.4,0,0.29993,-0.00380037,-2.99225e-13
0.4,1.5,0,0.299927,-0.00378335,-3.01763e-13
0.4,1.6,0,0.299916,-0.00373016,-3.09693e-13
0.4,1.7,0,0.299905,-0.00367698,-3.17623e-13
0.4,1.8,0,0.299894,-0.00362379,-3.25553e-13
0.4,1.9,0,0.299888,-0.00359392,-3.30006e-13
0.4,2,0,0.299884,-0.00356418,-3.35913e-13
0.4,2.1,0,0.299876,-0.00349974,-3.48712e-13
0.4,2.2,0,0.299868,-0.00343529,-3.61511e-13
0.4,2.3,0,0.299859,-0.00337085,-3.7431e-13
0.4,2.4,0,0.299856,-0.0033421,-3.8002e-13
0.4,2.5,0,0.299852,-0.0032977,-3.85923e-13
0.4,2.6,0,0.299844,-0.00322075,-3.96154e-13
0.4,2.7,0,0.299837,-0.0031438,-4.06385e-13
0.4,2.8,0,0.299829,-0.00306685,-4.16616e-13
0.4,2.9,0,0.299827,-0.00304139,-4.2e-13
0.4,3,0,0.299822,-0.00297961,-4.27087e-13
0.4,3.1,0,0.299816,-0.00289037,-4.37323e-13
0.4,3.2,0,0.299809,-0.00280113,-4.47559e-13
0.4,3.3,0,0.299802,-0.00271189,-4.57795e-13
0.4,3.4,0,0.299801,-0.00269267,-4.6e-13
0.4,3.5,0,0.299797,-0.00261229,-4.66201e-13
0.4,3.6,0,0.299792,-0.00251279,-4.73878e-13
0.4,3.7,0,0.299787,-0.00241328,-4.81555e-13
0.4,3.8,0,0.299782,-0.00231377,-4.89232e-13
0.4,3.9,0,0.299781,-0.00230382,-4.9e-13
0.4,4,0,0.299778,-0.00220405,-4.97087e-13
0.4,4.1,0,0.299774,-0.00209597,-5.04764e-13
0.4,4.2,0,0.29977,-0.00198789,-5.12441e-13
0.4,4.3,0,0.299767,-0.00188148,-5.2e-13
0.4,4.4,0,0.299767,-0.00187708,-5.20197e-13
0.4,4.5,0,0.299763,-0.00176261,-5.25315e-13
0.4,4.6,0,0.29976,-0.00164814,-5.30433e-13
0.4,4.7,0,0.299757,-0.00153367,-5.35551e-13
0.4,4.8,0,0.299754,-0.00143417,-5.4e-13
0.4,4.9,0,0.299753,-0.00141576,-5.4e-13
0.4,5,0,0.299751,-0.00129609,-5.4e-13
0.4,5.1,0,0.299748,-0.00117642,-5.4e-13
0.4,5.2,0,0.299746,-0.00105675,-5.4e-13
0.4,5.3,0,0.299744,-0.000966542,-5.4e-13
0.4,5.4,0,0.299743,-0.000933369,-5.39311e-13
0.4,5.5,0,0.299742,-0.000810154,-5.36752e-13
0.4,5.6,0,0.29974,-0.000686938,-5.34193e-13
0.4,5.7,0,0.299739,-0.000563723,-5.31634e-13
0.4,5.8,0,0.299738,-0.000485055,-5.3e-13
0.4,5.9,0,0.299738,-0.000437087,-5.27047e-13
0.4,6,0,0.299737,-0.00031237,-5.1937e-13
0.4,6.1,0,0.299737,-0.000187653,-5.11693e-13
0.4,6.2,0,0.299736,-6.29356e-05,-5.04016e-13
0.4,6.3,0,0.299736,2.301e-06,-5e-13
0.4,6.4,0,0.299736,6.46097e-05,-4.96161e-13
0.4,6.5,0,0.299736,0.000189227,-4.88484e-13
0.4,6.6,0,0.299737,0.000313844,-4.80807e-13
0.4,6.7,0,0.299737,0.000438462,-4.7313e-13
0.4,6.8,0,0.299737,0.000489267,-4.7e-13
0.4,6.9,0,0.299738,0.000564981,-4.65276e-13
0.4,7,0,0.29974,0.000688014,-4.57598e-13
0.4,7.1,0,0.299741,0.000811048,-4.49921e-13
0.4,7.2,0,0.299743,0.000934082,-4.42244e-13
0.4,7.3,0,0.299743,0.000970046,-4.4e-13
0.4,7.4,0,0.299745,0.00105737,-4.3065e-13
0.4,7.5,0,0.299748,0.00117687,-4.17854e-13
0.4,7.6,0,0.29975,0.00129637,-4.05059e-13
0.4,7.7,0,0.299753,0.00141587,-3.92264e-13
0.4,7.8,0,0.299753,0.00143701,-3.9e-13
0.4,7.9,0,0.299756,0.00153358,-3.79173e-13
0.4,8,0,0.29976,0.0016477,-3.66378e-13
0.4,8.1,0,0.299763,0.00176183,-3.53583e-13
0.4,8.2,0,0.299767,0.00187596,-3.40787e-13
0.4,8.3,0,0.299767,0.00188298,-3.4e-13
0.4,8.4,0,0.299771,0.00198594,-3.30157e-13
0.4,8.5,0,0.299776,0.00209302,-3.19921e-13
0.4,8.6,0,0.29978,0.0022001,-3.09685e-13
0.4,8.7,0,0.299784,0.00230142,-3e-13
0.4,8.8,0,0.299784,0.00230901,-2.98622e-13
0.4,8.9,0,0.299789,0.00240769,-2.80709e-13
0.4,9,0,0.299795,0.00250636,-2.62795e-13
0.4,9.1,0,0.2998,0.00260504,-2.44882e-13
0.4,9.2,0,0.299804,0.00268702,-2.3e-13
0.4,9.3,0,0.299805,0.00270411,-2.27047e-13
0.4,9.4,0,0.299811,0.00279299,-2.11693e-13
0.4,9.5,0,0.299817,0.00288188,-1.96339e-13
0.4,9.6,0,0.299823,0.00297076,-1.80984e-13
0.4,9.7,0,0.299827,0.00303434,-1.7e-13
0.4,9.8,0,0.299829,0.00305825,-1.67638e-13
0.4,9.9,0,0.299835,0.00313594,-1.59961e-13
0.4,10,0,0.299841,0.00321362,-1.52283e-13
0.4,10.1,0,0.299848,0.00329131,-1.44606e-13
0.4,10.2,0,0.299851,0.00333792,-1.4e-13
0.4,10.3,0,0.299854,0.00336542,-1.34586e-13
0.4,10.4,0,0.299862,0.00343041,-1.21789e-13
0.4,10.5,0,0.299869,0.0034954,-1.08991e-13
0.4,10.6,0,0.299876,0.00356039,-9.61941e-14
0.4,10.7,0,0.299879,0.00359189,-8.99924e-14
0.4,10.8,0,0.299883,0.00362029,-8.58605e-14
0.4,10.9,0,0.299891,0.00367303,-7.8187e-14
0.4,11,0,0.299899,0.00372577,-7.05135e-14
0.4,11.1,0,0.299906,0.00377851,-6.284e-14
0.4,11.2,0,0.299909,0.00379798,-6.00067e-14
0.4,11.3,0,0.299914,0.00382621,-5.6659e-14
0.4,11.4,0,0.299921,0.00386939,-5.15391e-14
0.4,11.5,0,0.299928,0.00391256,-4.64191e-14
0.4,11.6,0,0.299936,0.00395574,-4.12991e-14
0.4,11.7,0,0.299938,0.0039667,-3.99994e-14
0.4,11.8,0,0.299938,0.0039667,-3.99994e-14
0.4,11.9,0,0.299944,0.00399317,-3.59924e-14
0.4,12,0,0.299951,0.00402657,-3.09351e-14
0.4,12.1,0,0.299959,0.00405997,-2.58777e-14
0.4,12.2,0,0.299966,0.00409337,-2.08204e-14
0.4,12.3,0,0.299964,0.00432192,-2.44989e-14
0.4,12.4,0,0.299967,0.00435932,-2.50173e-14
0.4,12.5,0,0.299971,0.00437072,-2.50019e-14
0.4,12.6,0,0.299975,0.00438212,-2.49866e-14
0.4,12.7,0,0.299979,0.00439352,-2.49712e-14
0.5,0,0,0.300002,-0.0051514,-7.5e-14
0.5,0.1,0,0.300002,-0.00514371,-8.51312e-14
0.5,0.2,0,0.300002,-0.00513602,-9.52623e-14
0.5,0.3,0,0.300002,-0.00512833,-1.05393e-13
0.5,0.4,0,0.300002,-0.00512064,-1.15525e-13
0.5,0.5,0,0.300002,-0.00511125,-1.26462e-13
0.5,0.6,0,0.299996,-0.00507895,-1.5732e-13
0.5,0.7,0,0.29999,-0.00504665,-1.88178e-13
0.5,0.8,0,0.299985,-0.00501427,-2.18863e-13
0.5,0.9,0,0.299979,-0.00498184,-2.49395e-13
0.5,1,0,0.299972,-0.00494828,-2.77761e-13
0.5,1.1,0,0.299959,-0.00490597,-2.98349e-13
0.5,1.2,0,0.299947,-0.00486367,-3.18938e-13
0.5,1.3,0,0.299934,-0.00482136,-3.39526e-13
0.5,1.4,0,0.299921,-0.00477906,-3.60115e-13
0.5,1.5,0,0.299909,-0.00473379,-3.76518e-13
0.5,1.6,0,0.299898,-0.0046806,-3.84447e-13
0.5,1.7,0,0.299888,-0.00462742,-3.92377e-13
0.5,1.8,0,0.299877,-0.00457423,-4.00307e-13
0.5,1.9,0,0.299866,-0.00452104,-4.08237e-13
0.5,2,0,0.299856,-0.00446266,-4.18414e-13
0.5,2.1,0,0.299848,-0.00439822,-4.31213e-13
0.5,2.2,0,0.29984,-0.00433377,-4.44012e-13
0.5,2.3,0,0.299831,-0.00426933,-4.56812e-13
0.5,2.4,0,0.299823,-0.00420489,-4.69611e-13
0.5,2.5,0,0.299815,-0.00413323,-4.80928e-13
0.5,2.6,0,0.299808,-0.00405627,-4.91159e-13
0.5,2.7,0,0.299801,-0.00397932,-5.0139e-13
0.5,2.8,0,0.299793,-0.00390237,-5.11621e-13
0.5,2.9,0,0.299786,-0.00382542,-5.21852e-13
0.5,3,0,0.299779,-0.00373996,-5.32087e-13
0.5,3.1,0,0.299772,-0.00365072,-5.42323e-13
0.5,3.2,0,0.299766,-0.00356148,-5.52559e-13
0.5,3.3,0,0.299759,-0.00347224,-5.62795e-13
0.5,3.4,0,0.299753,-0.00338299,-5.73031e-13
0.5,3.5,0,0.299747,-0.00328546,-5.81201e-13
0.5,3.6,0,0.299742,-0.00318595,-5.88878e-13
0.5,3.7,0,0.299737,-0.00308644,-5.96555e-13
0.5,3.8,0,0.299732,-0.00298694,-6.04232e-13
0.5,3.9,0,0.299727,-0.00288743,-6.11909e-13
0.5,4,0,0.299723,-0.00278001,-6.19587e-13
0.5,4.1,0,0.29972,-0.00267193,-6.27264e-13
0.5,4.2,0,0.299716,-0.00256385,-6.34941e-13
0.5,4.3,0,0.299712,-0.00245577,-6.42618e-13
0.5,4.4,0,0.299708,-0.00234744,-6.50197e-13
0.5,4.5,0,0.299705,-0.00223298,-6.55315e-13
0.5,4.6,0,0.299702,-0.00211851,-6.60433e-13
0.5,4.7,0,0.299698,-0.00200404,-6.65551e-13
0.5,4.8,0,0.299695,-0.00188957,-6.70669e-13
0.5,4.9,0,0.299692,-0.0017743,-6.75e-13
0.5,5,0,0.299689,-0.00165463,-6.75e-13
0.5,5.1,0,0.299687,-0.00153496,-6.75e-13
0.5,5.2,0,0.299684,-0.00141529,-6.75e-13
0.5,5.3,0,0.299682,-0.00129563,-6.75e-13
0.5,5.4,0,0.299679,-0.001175,-6.74311e-13
0.5,5.5,0,0.299678,-0.00105179,-6.71752e-13
0.5,5.6,0,0.299676,-0.000928574,-6.69193e-13
0.5,5.7,0,0.299675,-0.000805359,-6.66634e-13
0.5,5.8,0,0.299673,-0.000682144,-6.64075e-13
0.5,5.9,0,0.299672,-0.000558351,-6.59547e-13
0.5,6,0,0.299672,-0.000433634,-6.5187e-13
0.5,6.1,0,0.299671,-0.000308916,-6.44193e-13
0.5,6.2,0,0.299671,-0.000184199,-6.36516e-13
0.5,6.3,0,0.29967,-5.94823e-05,-6.28839e-13
0.5,6.4,0,0.29967,6.51849e-05,-6.21161e-13
0.5,6.5,0,0.29967,0.000189802,-6.13484e-13
0.5,6.6,0,0.299671,0.00031442,-6.05807e-13
0.5,6.7,0,0.299671,0.000439037,-5.9813e-13
0.5,6.8,0,0.299672,0.000563654,-5.90453e-13
0.5,6.9,0,0.299673,0.000687297,-5.82776e-13
0.5,7,0,0.299674,0.000810331,-5.75098e-13
0.5,7.1,0,0.299676,0.000933365,-5.67421e-13
0.5,7.2,0,0.299677,0.0010564,-5.59744e-13
0.5,7.3,0,0.299679,0.00117943,-5.52067e-13
0.5,7.4,0,0.299681,0.00129988,-5.4065e-13
0.5,7.5,0,0.299683,0.00141938,-5.27854e-13
0.5,7.6,0,0.299686,0.00153888,-5.15059e-13