/*--------------------------------*- C++ -*----------------------------------*\
| =========                 |                                                 |
| \\      /  F ield         | OpenFOAM: The Open Source CFD Toolbox           |
|  \\    /   O peration     | Version:  v1806                                 |
|   \\  /    A nd           | Web:      www.OpenFOAM.com                      |
|    \\/     M anipulation  |                                                 |
\*---------------------------------------------------------------------------*/
FoamFile
{
    version     2.0;
    format      ascii;
    class       volScalarField;
    location    "270";
    object      p;
}
// * * * * * * * * * * * * * * * * * * * * * * * * * * * * * * * * * * * * * //

dimensions      [0 2 -2 0 0 0 0];


internalField   nonuniform List<scalar> 
2400
(
5.52814e-05
5.63203e-05
6.07963e-05
6.66922e-05
7.54702e-05
8.6285e-05
9.99704e-05
0.000117598
0.0001366
0.00016338
0.000186388
0.000224896
0.000245597
0.00029675
0.000297346
0.000355458
0.000301739
0.000342475
0.000210607
0.000173082
0.00016546
0.000168692
0.00018167
0.000199261
0.000224801
0.000257162
0.0002969
0.000349732
0.000404653
0.000484959
0.000551014
0.000666322
0.000725033
0.000877599
0.000877571
0.00105005
0.000892187
0.00101415
0.000624937
0.000521058
0.000274995
0.00028033
0.000301694
0.000330727
0.000372875
0.000426262
0.000492009
0.000578993
0.000670225
0.000801948
0.000912706
0.00110072
0.0012021
0.00144888
0.00145836
0.00173564
0.0014879
0.00168786
0.00103988
0.000886543
0.000383526
0.00039072
0.000420614
0.000460695
0.00051966
0.000593279
0.000685538
0.00080519
0.000933947
0.00111438
0.00127268
0.00152871
0.00167895
0.00201267
0.0020432
0.00241735
0.00209315
0.00237344
0.00145485
0.0012813
0.000490657
0.000499406
0.00053803
0.000588659
0.000664688
0.000757545
0.000876906
0.00102746
0.00119512
0.00142124
0.00163023
0.00194943
0.00215532
0.00256906
0.00263331
0.00309757
0.00271159
0.00307773
0.00187153
0.00171755
0.000595997
0.00060595
0.00065351
0.000714092
0.000807432
0.000918369
0.00106546
0.0012449
0.00145297
0.00172148
0.00198468
0.00236198
0.00263112
0.00311797
0.00323045
0.00377809
0.00334857
0.00380605
0.00229456
0.00220797
0.00069916
0.000709928
0.000766619
0.000836498
0.000947375
0.00107513
0.00125057
0.00145673
0.00170681
0.00201421
0.00233541
0.00276562
0.00310642
0.00365926
0.00383662
0.0044599
0.0040104
0.00456205
0.00273141
0.00276504
0.000799758
0.000810943
0.000876924
0.000955413
0.00108399
0.00122724
0.00143159
0.00166222
0.00195584
0.00229862
0.00268174
0.00315963
0.00358121
0.00419265
0.00445377
0.00514311
0.0047038
0.00534741
0.00319305
0.00340007
0.000897403
0.000908622
0.000983987
0.0010704
0.00121672
0.00137419
0.00160781
0.00186072
0.00219924
0.00257389
0.00302284
0.00354333
0.00405544
0.0047178
0.00508398
0.00582703
0.00543563
0.00616106
0.00369462
0.00412281
0.000991709
0.00100262
0.00108737
0.00118105
0.00134501
0.00151548
0.00177847
0.0020516
0.00243602
0.0028392
0.00335766
0.00391598
0.0045289
0.00523472
0.00572981
0.00651082
0.00621302
0.00699752
0.00425471
0.0049419
0.00108229
0.00109261
0.00118664
0.00128698
0.00146829
0.00165065
0.00194277
0.0022343
0.00266501
0.00309378
0.00368483
0.00427655
0.00500082
0.00574388
0.00639456
0.00719504
0.00704502
0.00784548
0.00489223
0.00586285
0.00116878
0.00117828
0.00128139
0.00138783
0.00158599
0.00177927
0.00209989
0.00240828
0.00288493
0.00333697
0.00400241
0.00462377
0.00546943
0.00624536
0.00708169
0.00788413
0.00794605
0.00869025
0.00562268
0.00687951
0.00125079
0.00125936
0.00137119
0.00148324
0.00169757
0.00190093
0.00224901
0.00257299
0.00309443
0.00356805
0.00430792
0.00495668
0.00593131
0.00673641
0.0077927
0.00858812
0.00893961
0.00952463
0.0064614
0.00795186
0.00132796
0.00133557
0.00145569
0.00157289
0.0018025
0.00201522
0.00238935
0.00272793
0.00329215
0.00378628
0.00459872
0.00527423
0.00638085
0.00721459
0.00852223
0.00931526
0.010057
0.0103658
0.007444
0.00895557
0.00139996
0.00140666
0.00153452
0.00165646
0.00190032
0.00212176
0.00252022
0.00287253
0.00347688
0.00399083
0.00487221
0.00557508
0.00681153
0.00767812
0.00925805
0.0100563
0.0113239
0.011277
0.00867845
0.0096066
0.00146644
0.00147238
0.00160738
0.00173363
0.0019906
0.00222015
0.00264099
0.00300625
0.00364754
0.0041808
0.00512612
0.00585763
0.00721718
0.00812443
0.00998009
0.0108038
0.0127257
0.0123557
0.0104188
0.00951332
0.00152712
0.00153251
0.00167398
0.00180413
0.00207297
0.00231003
0.00275112
0.0031285
0.00380319
0.0043552
0.00535849
0.00612002
0.00759254
0.0085501
0.0106689
0.0115551
0.0142166
0.0136375
0.0130259
0.00850098
0.0015817
0.00158689
0.00173404
0.00186769
0.00214706
0.00239106
0.00285009
0.00323876
0.00394303
0.00451302
0.00556769
0.00636007
0.00793327
0.00895058
0.0113089
0.0123068
0.0157132
0.0150781
0.0167606
0.00672867
0.00162991
0.00163539
0.00178733
0.00192406
0.00221257
0.0024629
0.0029375
0.00333646
0.00406641
0.00465313
0.00575246
0.00657514
0.00823614
0.00931941
0.011888
0.0130487
0.0171401
0.0167212
0.0215551
0.00520458
0.00167158
0.00167766
0.00183393
0.00197272
0.00226963
0.00252482
0.00301354
0.00342044
0.00417353
0.00477353
0.00591282
0.00676113
0.0085
0.00964665
0.0123991
0.0137578
0.0184325
0.018652
0.02714
0.00797173
6.43206e-05
-3.19666e-05
-9.06122e-05
-0.000117702
-0.00013314
-0.000141116
-0.000139467
-0.000129786
-0.000116162
-0.000101314
0.000192767
-8.99593e-05
-0.000260645
-0.000340889
-0.000387234
-0.000410802
-0.000405848
-0.000377449
-0.000337713
-0.000295166
0.000310613
-0.000163643
-0.00044205
-0.00057505
-0.000653058
-0.000690642
-0.000679647
-0.000630211
-0.000562523
-0.000490209
0.00040746
-0.000266758
-0.000644544
-0.000827617
-0.000937142
-0.000985735
-0.000964092
-0.000889752
-0.000791202
-0.000686896
0.000471236
-0.000411364
-0.000876176
-0.00110584
-0.001246
-0.00130089
-0.00126206
-0.00115746
-0.00102414
-0.000884888
0.000486119
-0.000610627
-0.00114552
-0.00141836
-0.00158717
-0.0016413
-0.00157668
-0.00143504
-0.00126191
-0.00108383
0.000432693
-0.000879566
-0.00146245
-0.00177527
-0.00196884
-0.00201225
-0.00191107
-0.00172418
-0.00150494
-0.00128311
0.000288413
-0.00123423
-0.00183955
-0.00218875
-0.00240001
-0.00241917
-0.00226847
-0.00202657
-0.00175338
-0.00148163
2.41145e-05
-0.00168818
-0.00229347
-0.00267402
-0.00289069
-0.00286782
-0.00265232
-0.00234374
-0.00200674
-0.00167726
-0.000398001
-0.00225522
-0.00284653
-0.00325027
-0.0034523
-0.0033643
-0.00306585
-0.00267635
-0.00226313
-0.00186615
-0.0010253
-0.00295684
-0.00352898
-0.00394189
-0.00409768
-0.00391411
-0.00351071
-0.00302281
-0.0025183
-0.0020422
-0.00191885
-0.0038283
-0.00438194
-0.00477761
-0.00483848
-0.00451897
-0.00398388
-0.003377
-0.00276473
-0.00219744
-0.00315946
-0.00492363
-0.00545656
-0.00578283
-0.00567684
-0.00517041
-0.00447308
-0.00372625
-0.00299223
-0.00232441
-0.00486432
-0.00631776
-0.00680124
-0.00696146
-0.00659117
-0.00584115
-0.00495328
-0.00405213
-0.00319125
-0.00242033
-0.00722538
-0.00809232
-0.00843353
-0.0082695
-0.00752072
-0.00648162
-0.00539022
-0.00433687
-0.00335836
-0.00249019
-0.0104979
-0.0102668
-0.0103132
-0.0095851
-0.0083695
-0.00703465
-0.00575542
-0.00457294
-0.00349854
-0.0025466
-0.0147805
-0.0126768
-0.0122973
-0.0107205
-0.00905268
-0.00746815
-0.00604145
-0.00476411
-0.00362004
-0.00260448
-0.0198771
-0.0147751
-0.0140776
-0.0115289
-0.00955135
-0.00778459
-0.00625594
-0.00491592
-0.00372501
-0.00267354
-0.0255854
-0.0160659
-0.0153769
-0.0119947
-0.00990061
-0.00800121
-0.00640824
-0.00503014
-0.00380954
-0.00275215
-0.0349925
-0.0174579
-0.0167187
-0.0123738
-0.0101882
-0.00815588
-0.00652365
-0.0051211
-0.0038799
-0.00293895
-9.10618e-05
-8.46172e-05
-7.78553e-05
-7.14787e-05
-6.56542e-05
-6.03711e-05
-5.55332e-05
-5.11379e-05
-4.70241e-05
-4.32412e-05
-3.95194e-05
-3.60566e-05
-3.23844e-05
-2.8995e-05
-2.50369e-05
-2.15277e-05
-1.69515e-05
-1.31593e-05
-7.72527e-06
-3.51333e-06
-0.000262994
-0.000241151
-0.000220989
-0.000202415
-0.000185338
-0.000169753
-0.000155489
-0.000142509
-0.000130437
-0.000119328
-0.000108555
-9.85311e-05
-8.81376e-05
-7.85553e-05
-6.76124e-05
-5.80241e-05
-4.55083e-05
-3.56773e-05
-2.04932e-05
-1.06876e-05
-0.000435637
-0.000398897
-0.000365071
-0.000334045
-0.000305577
-0.000279626
-0.00025594
-0.000234418
-0.000214476
-0.000196131
-0.000178429
-0.000161937
-0.000144947
-0.000129271
-0.000111443
-9.59429e-05
-7.54663e-05
-6.00375e-05
-3.46281e-05
-2.04215e-05
-0.000608924
-0.000556698
-0.000508704
-0.000464907
-0.000424959
-0.000388705
-0.000355752
-0.000325884
-0.000298295
-0.000272922
-0.000248494
-0.000225706
-0.00020227
-0.000180648
-0.000156005
-0.00013483
-0.000106262
-8.5868e-05
-4.93965e-05
-3.25601e-05
-0.000781843
-0.000713189
-0.000650504
-0.000593727
-0.000542318
-0.000495927
-0.000453965
-0.000416039
-0.000381112
-0.000348986
-0.000318105
-0.000289223
-0.000259553
-0.000232141
-0.000200847
-0.000174238
-0.000137609
-0.000112972
-6.47779e-05
-4.77069e-05
-0.000953544
-0.000867362
-0.000789395
-0.000719436
-0.000656635
-0.000600341
-0.000549705
-0.000504088
-0.000462205
-0.000423651
-0.000386636
-0.00035187
-0.000316229
-0.000283141
-0.000245469
-0.00021357
-0.000169177
-0.000140897
-8.07557e-05
-6.59571e-05
-0.00112288
-0.00101782
-0.000923847
-0.000840495
-0.00076643
-0.000700553
-0.000641673
-0.000588813
-0.000540422
-0.000495804
-0.000453006
-0.000412559
-0.000371239
-0.000332538
-0.000288875
-0.000251689
-0.000200183
-0.000168543
-9.69882e-05
-8.6605e-05
-0.00128805
-0.00116243
-0.00105158
-0.000954646
-0.00086955
-0.000794541
-0.000727964
-0.000668412
-0.000614035
-0.000563766
-0.000515564
-0.000469658
-0.000422984
-0.000378727
-0.00032957
-0.000287
-0.000229406
-0.000194254
-0.000112852
-0.000108044
-0.00144607
-0.00129785
-0.00116922
-0.00105864
-0.000962954
-0.000879476
-0.000805946
-0.000740426
-0.000680711
-0.000625315
-0.000572162
-0.000521117
-0.00046948
-0.000419832
-0.000365778
-0.000317764
-0.000255395
-0.00021618
-0.000127558
-0.000127904
-0.00159217
-0.00141913
-0.001272
-0.00114815
-0.00104275
-0.000951864
-0.000872481
-0.000802021
-0.000737855
-0.000678069
-0.000620594
-0.000564932
-0.00050887
-0.000454224
-0.000395969
-0.000342652
-0.00027691
-0.00023289
-0.000140386
-0.000143663
-0.00171952
-0.00151964
-0.00135417
-0.00121834
-0.00110489
-0.00100834
-0.000924772
-0.000850858
-0.000783487
-0.00072036
-0.000659445
-0.000599961
-0.000540193
-0.000481216
-0.000419501
-0.000361309
-0.000293418
-0.000243948
-0.00015093
-0.000153568
-0.00182015
-0.00159248
-0.00141056
-0.00126558
-0.00114686
-0.00104726
-0.000961846
-0.00088644
-0.000817434
-0.00075226
-0.000688972
-0.000626629
-0.000563958
-0.000501459
-0.000436949
-0.000374508
-0.000305267
-0.000250027
-0.00015917
-0.000157354
-0.0018879
-0.00163361
-0.00143954
-0.00128985
-0.00116972
-0.00107042
-0.0009859
-0.000911084
-0.000841992
-0.000775971
-0.000711244
-0.000646865
-0.000581937
-0.000516616
-0.000449749
-0.000383706
-0.000313395
-0.000252481
-0.00016533
-0.00015626
-0.00192233
-0.00164545
-0.00144563
-0.00129652
-0.00117919
-0.00108349
-0.00100216
-0.000929383
-0.000861098
-0.000794829
-0.000729081
-0.000663053
-0.000596167
-0.000528445
-0.000459404
-0.000390301
-0.000318795
-0.000252676
-0.000169645
-0.000152358
-0.00193071
-0.00163792
-0.00143919
-0.00129523
-0.00118391
-0.00109378
-0.00101644
-0.000945811
-0.000878156
-0.000811418
-0.000744471
-0.000676744
-0.000607911
-0.000537976
-0.000466816
-0.000395086
-0.000322102
-0.00025151
-0.000172108
-0.000147687
-0.00192575
-0.00162483
-0.00143209
-0.00129544
-0.00119106
-0.00110622
-0.00103185
-0.000962204
-0.00089419
-0.000826265
-0.000757668
-0.000688045
-0.000617232
-0.000545238
-0.00047208
-0.000398143
-0.00032351
-0.000249294
-0.000172218
-0.000143894
-0.0019192
-0.00161729
-0.00143147
-0.00130123
-0.00120228
-0.00112062
-0.00104716
-0.00097692
-0.0009075
-0.000837801
-0.000767324
-0.000695847
-0.000623262
-0.000549551
-0.00047475
-0.000399141
-0.000323052
-0.000246048
-0.000168763
-0.00014298
-0.00191314
-0.00161649
-0.00143489
-0.00130842
-0.00121229
-0.00113146
-0.00105733
-0.000985714
-0.00091469
-0.000843408
-0.000771483
-0.000698713
-0.000624972
-0.000550192
-0.000474387
-0.00039783
-0.000320887
-0.000242129
-0.000161495
-0.000145739
-0.00190075
-0.0016113
-0.00142914
-0.00130502
-0.00121067
-0.00113047
-0.00105622
-0.000984239
-0.000912807
-0.000841163
-0.000768944
-0.000695938
-0.000621995
-0.000547025
-0.000471046
-0.000394361
-0.000317133
-0.000237915
-0.000160451
-0.000133396
-0.00190139
-0.00158169
-0.0013912
-0.00127489
-0.0011869
-0.00111151
-0.00104043
-0.000970838
-0.000901278
-0.000831133
-0.000760134
-0.000688128
-0.00061501
-0.000540736
-0.000465406
-0.000389341
-0.000312389
-0.000233897
-0.000163656
-0.000118302
-0.0015156
-0.00139052
-0.00128783
-0.00120963
-0.00114158
-0.00107753
-0.00101409
-0.000949821
-0.00088417
-0.000816996
-0.000748301
-0.00067811
-0.000606456
-0.000533404
-0.000459166
-0.000384125
-0.000307989
-0.000230645
-0.000163957
-0.000111349
-0.0012266
-0.00123982
-0.00119205
-0.00114446
-0.00109497
-0.00104271
-0.000987363
-0.000928887
-0.000867499
-0.000803524
-0.000737264
-0.000668963
-0.000598818
-0.000527025
-0.000453909
-0.000379892
-0.00030459
-0.000228402
-0.000163834
-0.000106831
-0.00104345
-0.00112707
-0.00111007
-0.00108521
-0.00105132
-0.00100984
-0.000962257
-0.000909443
-0.000852231
-0.000791362
-0.000727437
-0.000660928
-0.000592207
-0.000521605
-0.000449549
-0.000376479
-0.000301949
-0.000226812
-0.000163648
-0.000103268
-0.000936623
-0.00105284
-0.00105257
-0.0010421
-0.00101893
-0.000985334
-0.000943608
-0.000895134
-0.000841123
-0.000782614
-0.000720443
-0.00065527
-0.00058761
-0.000517904
-0.000446651
-0.000374289
-0.00030033
-0.00022591
-0.000163453
-0.000100838
-0.000892562
-0.00101981
-0.00102644
-0.00102216
-0.00100385
-0.000973995
-0.000935113
-0.000888755
-0.000836287
-0.000778889
-0.000717522
-0.000652951
-0.000585778
-0.000516499
-0.000445642
-0.000373627
-0.000299928
-0.000225765
-0.000163359
-9.95249e-05
-0.000907728
-0.00102945
-0.00103443
-0.00102832
-0.00100874
-0.000977988
-0.000938443
-0.000891571
-0.000838676
-0.000780911
-0.00071923
-0.000654404
-0.000587044
-0.000517644
-0.000446706
-0.000374615
-0.000300814
-0.000226409
-0.000163439
-9.93004e-05
-0.000982608
-0.00108072
-0.00107534
-0.00105944
-0.00103257
-0.000996484
-0.000952939
-0.00090306
-0.000847886
-0.000788369
-0.000725328
-0.000659447
-0.000591268
-0.000521226
-0.000449753
-0.000377182
-0.000302933
-0.000227815
-0.000163687
-0.000100203
-0.00112134
-0.00117001
-0.00114411
-0.00111032
-0.00107081
-0.00102577
-0.000975691
-0.000920984
-0.0008622
-0.000799945
-0.000734805
-0.000667296
-0.000597842
-0.000526774
-0.000454421
-0.000381059
-0.000306106
-0.0002299
-0.000164016
-0.000102335
-0.00134057
-0.00129183
-0.00123158
-0.00117198
-0.00111587
-0.00105984
-0.00100205
-0.000941782
-0.000878887
-0.000813539
-0.000746031
-0.000676681
-0.00060577
-0.000533511
-0.000460117
-0.000385805
-0.000310034
-0.000232538
-0.000164273
-0.000105784
-0.00168793
-0.00143765
-0.00132593
-0.00123349
-0.00115912
-0.00109202
-0.00102692
-0.000961542
-0.000894942
-0.000826823
-0.000757197
-0.000686195
-0.000613961
-0.0005406
-0.000466223
-0.000390984
-0.000314418
-0.000235681
-0.000164359
-0.000110635
-0.00201977
-0.00162323
-0.00142607
-0.00129515
-0.00120068
-0.00112229
-0.00105027
-0.000980315
-0.000910524
-0.000840083
-0.00076871
-0.000696351
-0.000623024
-0.000548737
-0.000473504
-0.00039741
-0.0003201
-0.000240191
-0.000164047
-0.000120018
-0.00194855
-0.0016235
-0.00143649
-0.0013069
-0.00120962
-0.00112902
-0.00105578
-0.000985257
-0.000915265
-0.000844836
-0.000773577
-0.000701364
-0.000628167
-0.000553968
-0.000478736
-0.00040255
-0.000325344
-0.000245406
-0.000162705
-0.000139359
-0.00195856
-0.00162954
-0.00143378
-0.00129936
-0.00119868
-0.00111685
-0.00104413
-0.000975028
-0.000906834
-0.000838291
-0.000768854
-0.00069832
-0.000626624
-0.000553753
-0.000479678
-0.00040448
-0.000328129
-0.000249888
-0.000171886
-0.000132999
-0.00196727
-0.0016409
-0.00143513
-0.00129282
-0.00118566
-0.0010997
-0.00102549
-0.000956777
-0.000890079
-0.000823607
-0.000756484
-0.000688305
-0.000618882
-0.000548173
-0.000476105
-0.000402844
-0.000328248
-0.000252969
-0.000175367
-0.000133476
-0.00197767
-0.00166297
-0.00144924
-0.00129732
-0.00118124
-0.0010881
-0.00100931
-0.000938506
-0.00087152
-0.000805944
-0.000740442
-0.000674309
-0.00060712
-0.000538761
-0.000468983
-0.000398203
-0.000325569
-0.000254159
-0.000174133
-0.0001374
-0.00197751
-0.00168403
-0.00146904
-0.00130973
-0.0011853
-0.00108419
-0.000999077
-0.000924156
-0.000855042
-0.000788874
-0.000723859
-0.00065899
-0.00059351
-0.000527273
-0.000459591
-0.000391527
-0.000320444
-0.00025378
-0.000170065
-0.000141808
-0.00194763
-0.00168313
-0.00147634
-0.00131601
-0.00118748
-0.00108108
-0.000990766
-0.000911717
-0.000839908
-0.000772412
-0.000707149
-0.000642949
-0.000578671
-0.000514306
-0.000448367
-0.000383176
-0.000313036
-0.000251676
-0.000163973
-0.000144424
-0.00187947
-0.00164711
-0.00145624
-0.00130198
-0.00117488
-0.0010676
-0.000975296
-0.000894195
-0.00082089
-0.00075273
-0.000687531
-0.000624181
-0.000561118
-0.00049876
-0.000434433
-0.00037238
-0.000302853
-0.000246812
-0.000156042
-0.00014254
-0.00177628
-0.00157559
-0.00140472
-0.00126165
-0.00114059
-0.00103644
-0.000945556
-0.000865096
-0.00079229
-0.000724947
-0.000660891
-0.000599258
-0.000538021
-0.000478273
-0.000415911
-0.000357409
-0.000288874
-0.000237593
-0.000146146
-0.000134097
-0.00164756
-0.00147603
-0.00132607
-0.00119681
-0.00108473
-0.000986556
-0.00089973
-0.0008222
-0.00075175
-0.000686711
-0.000624971
-0.000566041
-0.00050744
-0.00045101
-0.000391315
-0.000336719
-0.000270289
-0.00022283
-0.000134147
-0.000119038
-0.00150278
-0.0013573
-0.00122741
-0.00111277
-0.00101122
-0.000920805
-0.000839822
-0.000766889
-0.000700237
-0.000638692
-0.000580248
-0.000524812
-0.000469585
-0.000416992
-0.000360763
-0.000310205
-0.000247357
-0.000202773
-0.000120329
-9.95455e-05
-0.0013488
-0.00122636
-0.00111512
-0.001015
-0.000924677
-0.000843069
-0.000769116
-0.00070196
-0.000640199
-0.000583071
-0.00052873
-0.000477391
-0.000426181
-0.000377756
-0.000325759
-0.000279236
-0.00022138
-0.000179135
-0.0001055
-7.88823e-05
-0.00119003
-0.00108798
-0.000993871
-0.000907789
-0.000828919
-0.000756725
-0.000690601
-0.000630077
-0.000574063
-0.000522101
-0.000472569
-0.00042584
-0.000379237
-0.000335261
-0.000288172
-0.000245757
-0.000193962
-0.000154131
-9.05996e-05
-5.98517e-05
-0.00102919
-0.000945242
-0.000866867
-0.0007942
-0.000726734
-0.00066427
-0.000606508
-0.000553246
-0.000503662
-0.000457497
-0.000413401
-0.000371765
-0.000330315
-0.000291112
-0.000249488
-0.000211439
-0.000166348
-0.000129529
-7.62959e-05
-4.39932e-05
-0.000867977
-0.000800199
-0.000736284
-0.000676357
-0.000620087
-0.00056747
-0.000518407
-0.000472861
-0.000430241
-0.000390401
-0.000352282
-0.000316201
-0.000280384
-0.000246335
-0.000210597
-0.000177331
-0.000139228
-0.000106286
-6.28717e-05
-3.16298e-05
-0.000707444
-0.000654222
-0.00060364
-0.000555777
-0.000510406
-0.000467616
-0.000427435
-0.000389917
-0.000354655
-0.000321564
-0.000289861
-0.000259756
-0.000229968
-0.000201473
-0.00017192
-0.000143912
-0.000112854
-8.46631e-05
-5.03304e-05
-2.23169e-05
-0.000548193
-0.000508191
-0.000469978
-0.000433564
-0.000398764
-0.000365703
-0.000334478
-0.000305181
-0.00027755
-0.000251526
-0.000226571
-0.000202795
-0.00017934
-0.000156767
-0.000133602
-0.000111301
-8.72316e-05
-6.45134e-05
-3.85371e-05
-1.53055e-05
-0.00039054
-0.00036263
-0.000335971
-0.000310454
-0.000285909
-0.000262454
-0.000240199
-0.000219239
-0.000199414
-0.000180687
-0.000162713
-0.000145538
-0.000128636
-0.000112283
-9.56438e-05
-7.94137e-05
-6.226e-05
-4.55303e-05
-2.72909e-05
-9.79205e-06
-0.000234874
-0.000218311
-0.000202502
-0.000187307
-0.000172657
-0.000158633
-0.000145298
-0.000132709
-0.00012078
-0.00010949
-9.86451e-05
-8.82593e-05
-7.80525e-05
-6.81339e-05
-5.81052e-05
-4.8213e-05
-3.79345e-05
-2.75849e-05
-1.66447e-05
-5.14244e-06
-8.10758e-05
-7.63789e-05
-7.11002e-05
-6.58351e-05
-6.07887e-05
-5.59862e-05
-5.14269e-05
-4.71251e-05
-4.30499e-05
-3.91929e-05
-3.54902e-05
-3.19388e-05
-2.8457e-05
-2.50526e-05
-2.16404e-05
-1.82127e-05
-1.47486e-05
-1.11016e-05
-7.49636e-06
-2.89037e-06
-0.0338327
-0.0171808
-0.0167777
-0.0124313
-0.0102169
-0.00819093
-0.00656306
-0.00516959
-0.00395019
-0.00297733
-0.0227856
-0.0155463
-0.0149838
-0.0119256
-0.00984281
-0.00799351
-0.00641822
-0.0050553
-0.00385013
-0.00276622
-0.0167498
-0.0137697
-0.0133079
-0.0112536
-0.00937813
-0.00769424
-0.00621577
-0.00490914
-0.003745
-0.00269751
-0.0115535
-0.0110627
-0.0110119
-0.0100455
-0.00866553
-0.00724529
-0.00591901
-0.00470773
-0.003612
-0.00262852
-0.00749132
-0.00840556
-0.0087434
-0.00851411
-0.00771123
-0.00663754
-0.00552143
-0.00444975
-0.00345583
-0.00256449
-0.00461099
-0.00628046
-0.00681991
-0.00698857
-0.00664121
-0.00591151
-0.00503183
-0.00413269
-0.00327063
-0.00249078
-0.00263478
-0.0046725
-0.00528499
-0.00564673
-0.00560089
-0.0051542
-0.00449426
-0.00376997
-0.00305124
-0.00238904
-0.00126403
-0.00343956
-0.00409524
-0.00453628
-0.00467126
-0.0044344
-0.00395805
-0.00338916
-0.00280469
-0.0022542
-0.000325442
-0.00247518
-0.00317706
-0.00364366
-0.00387367
-0.00378304
-0.00345293
-0.00301377
-0.00254463
-0.00209187
0.000291554
-0.00171563
-0.00246385
-0.00292984
-0.0032002
-0.00320615
-0.00298966
-0.00265632
-0.0022826
-0.00191209
0.000667787
-0.00112379
-0.00190346
-0.00235502
-0.00263328
-0.0026993
-0.00256891
-0.00232103
-0.00202552
-0.00172354
0.000867589
-0.000680021
-0.00145796
-0.0018875
-0.00215574
-0.00225522
-0.00218774
-0.0020081
-0.00177668
-0.00153199
0.000937717
-0.000363807
-0.00110143
-0.00150371
-0.00175263
-0.00186644
-0.00184245
-0.00171628
-0.00153737
-0.0013408
0.000913942
-0.000149531
-0.000816657
-0.00118634
-0.00141087
-0.00152562
-0.00152935
-0.00144394
-0.00130782
-0.00115181
0.000827557
-1.45201e-05
-0.000591709
-0.000922171
-0.00111894
-0.00122552
-0.00124466
-0.00118927
-0.00108775
-0.000966002
0.000703229
5.95809e-05
-0.000417019
-0.00070055
-0.0008666
-0.000959023
-0.00098444
-0.000950282
-0.000876483
-0.000783787
0.000557969
8.78727e-05
-0.000283452
-0.000512382
-0.000644876
-0.000719363
-0.000744577
-0.000724733
-0.00067307
-0.000605229
0.00040214
8.30811e-05
-0.000181711
-0.000349619
-0.000445972
-0.000500223
-0.000520859
-0.000510151
-0.000476284
-0.000430111
0.000241498
5.61485e-05
-0.000102663
-0.000205073
-0.000263351
-0.000296074
-0.000309334
-0.00030416
-0.000284895
-0.000258076
7.98813e-05
1.78312e-05
-3.60525e-05
-7.09524e-05
-9.06201e-05
-0.000101567
-0.000106044
-0.000104336
-9.77436e-05
-8.82801e-05
0.00174639
0.00175559
0.0019112
0.00206058
0.00235958
0.00262952
0.00312012
0.00354718
0.00429999
0.00492475
0.00605701
0.00693333
0.008652
0.00982757
0.0125386
0.0139212
0.0185271
0.0187281
0.0269235
0.00755413
0.00171663
0.00172575
0.00187673
0.00202576
0.00231629
0.00258364
0.00305939
0.00348145
0.00420887
0.00482343
0.00590968
0.00676241
0.00838834
0.00949883
0.0119883
0.0131632
0.017053
0.016665
0.0205502
0.00609491
0.00167788
0.00168773
0.00183337
0.00198062
0.00226174
0.00252463
0.00298382
0.00339783
0.00409688
0.0046968
0.00573141
0.0065548
0.00807555
0.009119
0.0113517
0.0123697
0.0154214
0.0149367
0.0155076
0.00840409
0.00163045
0.00164182
0.00178101
0.00192583
0.0021958
0.00245349
0.00289321
0.00329792
0.00396385
0.00454771
0.00552246
0.00631634
0.00771591
0.00870164
0.0106426
0.011568
0.013749
0.0134232
0.0119929
0.00996346
0.00157477
0.00158811
0.00171993
0.00186168
0.0021189
0.0023706
0.00278819
0.00318247
0.00381089
0.0043777
0.00528515
0.00605059
0.00731572
0.0082549
0.00988423
0.0107671
0.0121716
0.0121444
0.00977624
0.0102904
0.0015112
0.00152676
0.00165048
0.00178852
0.00203157
0.00227642
0.00266954
0.00305222
0.00363935
0.00418821
0.00502245
0.00576053
0.00688311
0.00778461
0.00910661
0.00997019
0.0107609
0.0110917
0.00828877
0.00958771
0.00144018
0.00145803
0.00157303
0.00170672
0.00193432
0.00217144
0.00253806
0.00290797
0.0034508
0.00398064
0.00473781
0.00544876
0.00642764
0.00729479
0.00834035
0.00918787
0.00954308
0.0101394
0.00715175
0.00842814
0.00136214
0.00138221
0.00148799
0.00161668
0.00182778
0.0020562
0.00239473
0.0027505
0.00324698
0.00375623
0.00443513
0.00511735
0.00595925
0.00678855
0.00760069
0.00843682
0.00848092
0.00920202
0.0062125
0.00720295
0.00127756
0.00129961
0.00139583
0.00151883
0.00171263
0.00193121
0.0022406
0.00258055
0.00302981
0.00351612
0.00411829
0.004768
0.00548488
0.00627215
0.00689248
0.00770619
0.00753178
0.00826309
0.00542048
0.00606689
0.00118692
0.00121057
0.00129704
0.0014136
0.00158959
0.00179702
0.00207676
0.00239886
0.00280114
0.00326136
0.00379037
0.00440313
0.00500813
0.00574902
0.00621318
0.00698513
0.00666733
0.00733612
0.00474936
0.00506304
0.00109074
0.00111544
0.00119217
0.00130146
0.00145942
0.00165419
0.00190428
0.00220618
0.00256257
0.00299326
0.00345336
0.00402506
0.00453081
0.0052195
0.00555835
0.00627097
0.00587148
0.00644093
0.00417253
0.00419498
0.000989527
0.00101462
0.00108177
0.0011829
0.00132285
0.00150334
0.00172415
0.00200339
0.00231533
0.00271312
0.00310886
0.00363524
0.00405366
0.0046841
0.00492436
0.00556536
0.00513353
0.00559006
0.00366198
0.00345371
0.000883794
0.000908548
0.000966401
0.00105846
0.0011806
0.00134515
0.00153724
0.00179139
0.00206058
0.00242215
0.00275807
0.00323497
0.00357695
0.0041439
0.00430848
0.00487083
0.00444401
0.00478829
0.0031938
0.00282512
0.000774071
0.000797691
0.000846615
0.000928719
0.00103336
0.00118031
0.00134442
0.00157109
0.00179934
0.00212146
0.00240191
0.0028255
0.00310074
0.00360015
0.00370822
0.00418907
0.00379354
0.00403566
0.00275079
0.00229169
0.000660883
0.00068257
0.000722988
0.000794273
0.000881813
0.00100958
0.00114652
0.00134341
0.00153253
0.00181216
0.00204117
0.00240797
0.002625
0.00305382
0.00312096
0.00352061
0.00317323
0.00332947
0.00232165
0.00183446
0.000544759
0.000563749
0.000596097
0.000655761
0.000726632
0.000833726
0.000944311
0.00110928
0.001261
0.0014953
0.00167655
0.00198336
0.00214949
0.00250546
0.00254389
0.00286488
0.00257515
0.00266519
0.00189915
0.00143555
0.000426229
0.00044183
0.000466528
0.000513853
0.000568485
0.000653549
0.000738585
0.000869649
0.000985592
0.0011719
0.00130864
0.00155248
0.00167391
0.00195512
0.00197419
0.00222024
0.00199245
0.00203677
0.00147889
0.00107929
0.000305817
0.000317445
0.000334873
0.000369244
0.000408051
0.000469906
0.00053015
0.000625529
0.000707187
0.000842988
0.000938148
0.00111605
0.00119799
0.00140249
0.00140936
0.0015841
0.00141949
0.00143684
0.0010584
0.000752423
0.000184061
0.000191235
0.000201721
0.000222609
0.000245985
0.000283612
0.000319795
0.000377875
0.000426665
0.000509539
0.000565817
0.000674635
0.000721789
0.000846857
0.000847635
0.000952995
0.000852325
0.000857079
0.0006368
0.000444408
6.15038e-05
6.38767e-05
6.75363e-05
7.45025e-05
8.25663e-05
9.51341e-05
0.00010761
0.000126995
0.000143849
0.000171507
0.000191009
0.000227345
0.000243791
0.000285541
0.000286164
0.000321019
0.000287289
0.000287462
0.000214121
0.000147425
0.00170338
0.00170949
0.00187017
0.0020089
0.00231381
0.00257062
0.00307237
0.00348223
0.00425611
0.00486187
0.00603596
0.00689824
0.00870236
0.00989392
0.0127938
0.0143342
0.0194345
0.020591
0.0312404
0.0211153
0.00172725
0.00173397
0.00189708
0.00203669
0.00234653
0.00260576
0.00311569
0.0035294
0.00431662
0.00492886
0.00612586
0.00700159
0.00885024
0.010081
0.0130862
0.0147845
0.0201921
0.0222115
0.0334111
0.030509
0.00174687
0.00175429
0.00191891
0.00205979
0.00237297
0.00263485
0.0031504
0.00356819
0.00436465
0.00498339
0.00619649
0.00708475
0.00896556
0.0102307
0.0133149
0.01515
0.0207927
0.0235172
0.0350697
0.0365658
0.00176227
0.0017702
0.00193588
0.00207787
0.0023934
0.00265743
0.00317689
0.00359792
0.00440069
0.00502445
0.00624833
0.00714592
0.00904814
0.0103383
0.0134757
0.0154112
0.0212085
0.02444
0.0361249
0.0402154
0.0017734
0.0017817
0.00194796
0.00209088
0.00240779
0.00267344
0.0031951
0.0036185
0.00442465
0.0050518
0.00628116
0.00718442
0.00909711
0.0104012
0.0135646
0.0155538
0.0214271
0.0249236
0.036654
0.0419468
0.00178022
0.00178879
0.00195509
0.00209882
0.00241608
0.00268289
0.00320496
0.00362991
0.00443642
0.00506543
0.00629474
0.00720002
0.00911187
0.010418
0.0135797
0.015571
0.0214431
0.0249453
0.0366908
0.0420226
0.00178272
0.00179146
0.00195727
0.00210167
0.00241826
0.00268576
0.00320646
0.00363217
0.00443598
0.00506534
0.00628909
0.00719277
0.00909244
0.0103887
0.0135201
0.0154626
0.0212562
0.0245044
0.0362342
0.0404438
0.00178092
0.00178965
0.00195453
0.00209941
0.00241438
0.00268201
0.00319969
0.00362525
0.0044235
0.00505157
0.00626451
0.00716296
0.00903958
0.010315
0.0133896
0.0152364
0.0208714
0.0236229
0.0352418
0.0369425
0.00177488
0.00178332
0.00194689
0.00209206
0.00240448
0.00267168
0.0031847
0.00360923
0.00439908
0.00502436
0.00622125
0.00711137
0.00895417
0.0101999
0.0131912
0.0149071
0.0203006
0.0223582
0.0336351
0.0310014
0.00176454
0.00177276
0.00193396
0.00208009
0.00238807
0.00265547
0.0031608
0.00358512
0.00436181
0.00498521
0.00615826
0.00704048
0.00883569
0.0100489
0.0129287
0.0144949
0.0195726
0.0207723
0.03155
0.0217102
)
;

boundaryField
{
    inlet
    {
        type            zeroGradient;
    }
    outlet
    {
        type            fixedValue;
        value           uniform 0;
    }
    upAndBottom
    {
        type            empty;
    }
    obstacle
    {
        type            zeroGradient;
    }
}


// ************************************************************************* //
