/*--------------------------------*- C++ -*----------------------------------*\
| =========                 |                                                 |
| \\      /  F ield         | OpenFOAM: The Open Source CFD Toolbox           |
|  \\    /   O peration     | Version:  v1806                                 |
|   \\  /    A nd           | Web:      www.OpenFOAM.com                      |
|    \\/     M anipulation  |                                                 |
\*---------------------------------------------------------------------------*/
FoamFile
{
    version     2.0;
    format      ascii;
    class       volVectorField;
    location    "2";
    object      U;
}
// * * * * * * * * * * * * * * * * * * * * * * * * * * * * * * * * * * * * * //

dimensions      [0 1 -1 0 0 0 0];


internalField   nonuniform List<vector> 
2400
(
(2.99837 -0.0364223 0)
(3.00371 -0.0736126 0)
(3.00209 -0.167754 0)
(2.99426 -0.294729 0)
(2.99604 -0.311709 0)
(3.00434 -0.271727 0)
(3.0122 -0.36898 0)
(3.00679 -0.594814 0)
(2.99102 -0.719418 0)
(2.98618 -0.644152 0)
(3.00627 -0.541384 0)
(3.02609 -0.619775 0)
(3.01966 -0.893268 0)
(2.99879 -1.17442 0)
(2.98054 -1.25799 0)
(2.97397 -1.12979 0)
(2.97882 -0.962596 0)
(2.98427 -0.96299 0)
(2.96867 -1.17705 0)
(2.91668 -1.54113 0)
(2.99933 -0.0380466 0)
(3.00294 -0.0776002 0)
(3.00002 -0.159992 0)
(2.99713 -0.287131 0)
(2.99882 -0.320069 0)
(3.00398 -0.291263 0)
(3.0159 -0.371479 0)
(3.01066 -0.571726 0)
(2.99538 -0.700687 0)
(2.99299 -0.661174 0)
(3.01173 -0.577665 0)
(3.02864 -0.631691 0)
(3.02781 -0.870775 0)
(3.016 -1.13989 0)
(2.9943 -1.23294 0)
(2.97547 -1.1269 0)
(2.97477 -0.979168 0)
(2.98287 -0.966477 0)
(2.96819 -1.12509 0)
(2.91889 -1.41711 0)
(2.99953 -0.0383812 0)
(2.99963 -0.0745494 0)
(3.00342 -0.162971 0)
(3.0005 -0.292069 0)
(2.99605 -0.31716 0)
(3.00678 -0.29481 0)
(3.01973 -0.372749 0)
(3.00761 -0.569391 0)
(3.00354 -0.706541 0)
(3.00552 -0.668898 0)
(3.01203 -0.572102 0)
(3.03075 -0.62831 0)
(3.04178 -0.883637 0)
(3.02575 -1.14755 0)
(2.99674 -1.21839 0)
(2.98937 -1.1042 0)
(3.00734 -0.963233 0)
(3.02081 -0.948092 0)
(3.00047 -1.10169 0)
(2.95604 -1.41042 0)
(2.9981 -0.036788 0)
(2.99915 -0.0817257 0)
(3.00674 -0.161144 0)
(3.00064 -0.280688 0)
(2.99809 -0.321533 0)
(3.00724 -0.319599 0)
(3.01424 -0.37198 0)
(3.01023 -0.55286 0)
(3.0205 -0.698506 0)
(3.00824 -0.676701 0)
(3.0077 -0.600614 0)
(3.03989 -0.658245 0)
(3.04763 -0.871648 0)
(3.02252 -1.10116 0)
(3.00696 -1.19269 0)
(3.01648 -1.12898 0)
(3.02461 -1.01546 0)
(3.01828 -0.9758 0)
(3.00251 -1.07662 0)
(2.98261 -1.32886 0)
(2.9961 -0.034812 0)
(3.00309 -0.0848122 0)
(3.007 -0.162783 0)
(2.99814 -0.286583 0)
(2.99888 -0.317012 0)
(3.00555 -0.316266 0)
(3.01942 -0.374961 0)
(3.01557 -0.571303 0)
(3.01954 -0.70062 0)
(3.00261 -0.66689 0)
(3.01959 -0.602751 0)
(3.05551 -0.662331 0)
(3.04922 -0.864385 0)
(3.03159 -1.10908 0)
(3.03186 -1.21164 0)
(3.03142 -1.12023 0)
(3.02615 -0.973491 0)
(3.03953 -0.926927 0)
(3.05498 -1.04415 0)
(3.03739 -1.31899 0)
(2.9974 -0.0348536 0)
(3.00557 -0.0947867 0)
(2.99806 -0.15329 0)
(2.99881 -0.279444 0)
(3.00649 -0.318223 0)
(3.00574 -0.347311 0)
(3.02097 -0.382421 0)
(3.01053 -0.552353 0)
(3.0268 -0.676892 0)
(3.01182 -0.690948 0)
(3.02258 -0.65162 0)
(3.05027 -0.683072 0)
(3.05615 -0.841737 0)
(3.05707 -1.08676 0)
(3.05587 -1.19867 0)
(3.03884 -1.12467 0)
(3.03641 -1.02769 0)
(3.07027 -1.00284 0)
(3.0836 -1.06919 0)
(3.04776 -1.25372 0)
(2.99769 -0.0356533 0)
(3.00001 -0.089792 0)
(2.99831 -0.151319 0)
(3.01 -0.303002 0)
(3.00307 -0.308032 0)
(2.99744 -0.346049 0)
(3.02706 -0.373024 0)
(3.00585 -0.57861 0)
(3.03364 -0.690807 0)
(3.01245 -0.686589 0)
(3.02421 -0.630492 0)
(3.05638 -0.692004 0)
(3.06659 -0.866086 0)
(3.05282 -1.12346 0)
(3.05027 -1.20744 0)
(3.0534 -1.09525 0)
(3.07346 -0.998498 0)
(3.11485 -0.965538 0)
(3.11963 -1.01528 0)
(3.09327 -1.22715 0)
(2.99214 -0.0291609 0)
(3.00654 -0.10403 0)
(3.00261 -0.151872 0)
(3.00297 -0.297075 0)
(2.99564 -0.287463 0)
(3.00597 -0.390569 0)
(3.0336 -0.371431 0)
(2.9907 -0.57473 0)
(3.04152 -0.663532 0)
(3.01062 -0.70431 0)
(3.02742 -0.672522 0)
(3.05203 -0.74107 0)
(3.07296 -0.8344 0)
(3.06573 -1.08236 0)
(3.08141 -1.19188 0)
(3.08629 -1.12467 0)
(3.08602 -1.08519 0)
(3.10451 -1.05465 0)
(3.1153 -1.05761 0)
(3.13303 -1.2152 0)
(2.99106 -0.0299083 0)
(3.01236 -0.11069 0)
(2.98887 -0.13365 0)
(3.00879 -0.317252 0)
(3.00584 -0.282836 0)
(2.99734 -0.409262 0)
(3.02709 -0.335597 0)
(2.98858 -0.615838 0)
(3.05745 -0.671958 0)
(2.99351 -0.708733 0)
(3.03184 -0.646029 0)
(3.04534 -0.76766 0)
(3.08208 -0.845195 0)
(3.06517 -1.14517 0)
(3.08506 -1.22357 0)
(3.08567 -1.10963 0)
(3.10135 -1.04731 0)
(3.14508 -1.01666 0)
(3.1835 -1.04168 0)
(3.22721 -1.22941 0)
(2.98905 -0.0263781 0)
(3.01212 -0.117647 0)
(2.98994 -0.128653 0)
(3.01605 -0.337119 0)
(2.99505 -0.242138 0)
(2.99122 -0.452458 0)
(3.04195 -0.326154 0)
(2.97886 -0.641074 0)
(3.05056 -0.61897 0)
(2.97289 -0.737555 0)
(3.0599 -0.671664 0)
(3.02171 -0.830617 0)
(3.08199 -0.802829 0)
(3.06241 -1.1364 0)
(3.09677 -1.20174 0)
(3.09192 -1.15353 0)
(3.13257 -1.12839 0)
(3.16437 -1.10245 0)
(3.1844 -1.10673 0)
(3.23418 -1.22296 0)
(2.98686 -0.0256896 0)
(3.01723 -0.125308 0)
(2.98826 -0.117981 0)
(3.01083 -0.347822 0)
(2.99712 -0.224455 0)
(2.99557 -0.493752 0)
(3.03062 -0.27948 0)
(2.96283 -0.682243 0)
(3.06711 -0.605248 0)
(2.95477 -0.78605 0)
(3.0711 -0.620905 0)
(2.96165 -0.864385 0)
(3.10554 -0.822787 0)
(3.05823 -1.227 0)
(3.0968 -1.18361 0)
(3.07604 -1.17479 0)
(3.16014 -1.10323 0)
(3.17392 -1.09461 0)
(3.19445 -1.15965 0)
(3.29563 -1.3199 0)
(2.99176 -0.0265186 0)
(3.00991 -0.128628 0)
(2.99821 -0.10865 0)
(2.99725 -0.364965 0)
(3.01171 -0.194498 0)
(2.96897 -0.525441 0)
(3.03826 -0.252668 0)
(2.95415 -0.732377 0)
(3.0676 -0.539502 0)
(2.90109 -0.828952 0)
(3.10516 -0.601036 0)
(2.91165 -0.96168 0)
(3.13447 -0.790464 0)
(2.99279 -1.2211 0)
(3.0878 -1.12505 0)
(3.03873 -1.30687 0)
(3.16978 -1.18901 0)
(3.17644 -1.17943 0)
(3.23468 -1.205 0)
(3.36224 -1.29525 0)
(3.00551 -0.0293613 0)
(2.98834 -0.126111 0)
(3.02781 -0.109577 0)
(2.95908 -0.359172 0)
(3.04092 -0.189899 0)
(2.93451 -0.532037 0)
(3.05496 -0.24002 0)
(2.91566 -0.748248 0)
(3.07542 -0.489832 0)
(2.86221 -0.907969 0)
(3.13722 -0.540241 0)
(2.81278 -0.997573 0)
(3.15831 -0.800898 0)
(2.92058 -1.32398 0)
(3.14315 -1.09932 0)
(2.98218 -1.38613 0)
(3.17511 -1.12111 0)
(3.14912 -1.21683 0)
(3.2693 -1.31264 0)
(3.37337 -1.51103 0)
(3.03028 -0.0318786 0)
(2.94922 -0.120724 0)
(3.07545 -0.114416 0)
(2.89646 -0.343163 0)
(3.10108 -0.202491 0)
(2.86074 -0.506595 0)
(3.10455 -0.257239 0)
(2.84914 -0.744245 0)
(3.11754 -0.451878 0)
(2.78047 -0.945679 0)
(3.16451 -0.478867 0)
(2.73977 -1.08597 0)
(3.22495 -0.779074 0)
(2.77502 -1.35276 0)
(3.20351 -1.0226 0)
(2.84422 -1.5147 0)
(3.19093 -1.19652 0)
(3.09767 -1.43743 0)
(3.35777 -1.37492 0)
(3.45717 -1.50635 0)
(3.06213 -0.0297837 0)
(2.89858 -0.117997 0)
(3.13262 -0.119124 0)
(2.82179 -0.319586 0)
(3.17217 -0.226029 0)
(2.76949 -0.460247 0)
(3.18437 -0.301506 0)
(2.74415 -0.696181 0)
(3.18804 -0.462592 0)
(2.68866 -0.935918 0)
(3.21488 -0.470671 0)
(2.65538 -1.1017 0)
(3.26135 -0.737695 0)
(2.6463 -1.44846 0)
(3.32536 -1.01023 0)
(2.7219 -1.58319 0)
(3.30582 -1.15612 0)
(2.95638 -1.57272 0)
(3.44205 -1.47989 0)
(3.44923 -1.79189 0)
(3.08418 -0.0208034 0)
(2.86629 -0.121517 0)
(3.16154 -0.11749 0)
(2.78149 -0.299502 0)
(3.20613 -0.24443 0)
(2.70986 -0.41346 0)
(3.23702 -0.344785 0)
(2.64669 -0.635507 0)
(3.26152 -0.506877 0)
(2.57874 -0.866851 0)
(3.25205 -0.524615 0)
(2.57636 -1.08533 0)
(3.29418 -0.74714 0)
(2.55988 -1.48408 0)
(3.35729 -0.941563 0)
(2.57344 -1.69874 0)
(3.41448 -1.20741 0)
(2.79731 -1.85364 0)
(3.61458 -1.65225 0)
(3.38838 -1.92754 0)
(3.07984 -0.00874689 0)
(2.87977 -0.127166 0)
(3.13353 -0.109962 0)
(2.81543 -0.286917 0)
(3.15538 -0.242907 0)
(2.74426 -0.389393 0)
(3.1866 -0.353182 0)
(2.64961 -0.593661 0)
(3.22387 -0.536119 0)
(2.54262 -0.779964 0)
(3.22799 -0.618125 0)
(2.50397 -0.998065 0)
(3.24401 -0.827618 0)
(2.48631 -1.45854 0)
(3.26692 -0.972183 0)
(2.54373 -1.79804 0)
(3.36124 -1.14223 0)
(2.76163 -2.11801 0)
(3.64267 -1.75418 0)
(3.1451 -2.30652 0)
(3.04567 -0.00301548 0)
(2.94075 -0.1221 0)
(3.05154 -0.107444 0)
(2.91668 -0.26746 0)
(3.024 -0.234832 0)
(2.87561 -0.369894 0)
(3.01183 -0.339078 0)
(2.79493 -0.565442 0)
(3.01766 -0.525495 0)
(2.66574 -0.717645 0)
(3.02644 -0.659089 0)
(2.5337 -0.91369 0)
(3.07875 -0.935535 0)
(2.4199 -1.30368 0)
(3.05475 -1.12191 0)
(2.42481 -1.74215 0)
(3.03792 -1.2405 0)
(2.73728 -2.48538 0)
(3.28026 -1.69375 0)
(3.24522 -3.03811 0)
(3.00359 -0.00876717 0)
(3.00585 -0.10096 0)
(2.97198 -0.114058 0)
(3.00479 -0.233169 0)
(2.90709 -0.230369 0)
(2.98332 -0.338035 0)
(2.8457 -0.322834 0)
(2.92848 -0.52843 0)
(2.78369 -0.489242 0)
(2.82036 -0.679303 0)
(2.73604 -0.621387 0)
(2.66236 -0.876449 0)
(2.76189 -0.927122 0)
(2.41471 -1.17738 0)
(2.7876 -1.2664 0)
(2.18417 -1.49139 0)
(2.79165 -1.62634 0)
(2.27796 -2.38182 0)
(2.72426 -1.8005 0)
(3.25559 -4.17058 0)
(2.98457 -0.0199823 0)
(3.02525 -0.073654 0)
(2.9533 -0.120628 0)
(3.00976 -0.191073 0)
(2.89351 -0.227601 0)
(2.96887 -0.287459 0)
(2.82339 -0.318571 0)
(2.90244 -0.457167 0)
(2.72458 -0.468431 0)
(2.80263 -0.605841 0)
(2.59876 -0.577415 0)
(2.67752 -0.831483 0)
(2.49299 -0.826408 0)
(2.45832 -1.14293 0)
(2.40696 -1.13258 0)
(2.08188 -1.41819 0)
(2.46026 -1.73695 0)
(1.61773 -1.93417 0)
(2.42689 -2.7209 0)
(1.93268 -3.97164 0)
(2.8212 -1.9781 0)
(2.69116 -2.3377 0)
(2.54777 -2.54384 0)
(2.39673 -2.62516 0)
(2.23716 -2.6269 0)
(2.06815 -2.58519 0)
(1.89257 -2.51999 0)
(1.71377 -2.43836 0)
(1.53546 -2.34435 0)
(1.36118 -2.23911 0)
(2.84154 -1.79587 0)
(2.73686 -2.12219 0)
(2.6136 -2.31186 0)
(2.48049 -2.38224 0)
(2.33943 -2.37277 0)
(2.18992 -2.32085 0)
(2.03288 -2.24992 0)
(1.87254 -2.16761 0)
(1.70987 -2.07877 0)
(1.55259 -1.98259 0)
(2.89198 -1.8115 0)
(2.78796 -2.1408 0)
(2.65197 -2.32321 0)
(2.50234 -2.38786 0)
(2.34631 -2.37482 0)
(2.18564 -2.31923 0)
(2.02049 -2.2441 0)
(1.85323 -2.1572 0)
(1.68396 -2.06321 0)
(1.52099 -1.95977 0)
(2.93574 -1.66371 0)
(2.84205 -1.93546 0)
(2.72298 -2.08857 0)
(2.59892 -2.14323 0)
(2.46836 -2.12555 0)
(2.32945 -2.06683 0)
(2.18394 -1.991 0)
(2.03583 -1.90824 0)
(1.88191 -1.82474 0)
(1.72972 -1.73946 0)
(2.96558 -1.66768 0)
(2.84886 -1.9468 0)
(2.71873 -2.10622 0)
(2.59338 -2.16215 0)
(2.46152 -2.13709 0)
(2.3143 -2.06714 0)
(2.15385 -1.97949 0)
(1.99197 -1.88221 0)
(1.82928 -1.78052 0)
(1.67288 -1.67512 0)
(2.98763 -1.5176 0)
(2.91179 -1.74617 0)
(2.81774 -1.88791 0)
(2.71989 -1.94 0)
(2.61445 -1.9086 0)
(2.49425 -1.83265 0)
(2.35491 -1.74945 0)
(2.20774 -1.66874 0)
(2.05052 -1.58934 0)
(1.89801 -1.50296 0)
(3.06484 -1.5421 0)
(3.00881 -1.79419 0)
(2.9068 -1.93455 0)
(2.78046 -1.97727 0)
(2.63639 -1.92703 0)
(2.47928 -1.82245 0)
(2.31157 -1.70654 0)
(2.14462 -1.59585 0)
(1.9788 -1.49376 0)
(1.82327 -1.39364 0)
(3.13937 -1.45357 0)
(3.10404 -1.62177 0)
(3.02913 -1.70969 0)
(2.93911 -1.73729 0)
(2.8308 -1.69137 0)
(2.70167 -1.60291 0)
(2.55141 -1.51078 0)
(2.3928 -1.42456 0)
(2.22303 -1.33855 0)
(2.04935 -1.24624 0)
(3.21447 -1.49189 0)
(3.14077 -1.67572 0)
(3.03887 -1.76561 0)
(2.92903 -1.77786 0)
(2.79896 -1.68988 0)
(2.64736 -1.54732 0)
(2.47527 -1.4127 0)
(2.30625 -1.30363 0)
(2.14211 -1.20723 0)
(1.99188 -1.10602 0)
(3.23116 -1.38108 0)
(3.20444 -1.49454 0)
(3.17069 -1.55544 0)
(3.11454 -1.57296 0)
(3.02299 -1.50528 0)
(2.9039 -1.38062 0)
(2.75 -1.2557 0)
(2.57094 -1.15422 0)
(2.3778 -1.06332 0)
(2.17694 -0.964496 0)
(3.33622 -1.50024 0)
(3.33607 -1.62157 0)
(3.30316 -1.65657 0)
(3.20912 -1.61278 0)
(3.04741 -1.46653 0)
(2.86451 -1.28317 0)
(2.67888 -1.12609 0)
(2.50428 -1.00833 0)
(2.33561 -0.904917 0)
(2.16737 -0.795589 0)
(3.42665 -1.37654 0)
(3.47225 -1.43206 0)
(3.48621 -1.43577 0)
(3.44916 -1.39439 0)
(3.34129 -1.26036 0)
(3.1808 -1.09475 0)
(2.98049 -0.955066 0)
(2.7585 -0.852622 0)
(2.53413 -0.754376 0)
(2.30118 -0.638852 0)
(3.41093 -1.62301 0)
(3.48139 -1.65642 0)
(3.4936 -1.59329 0)
(3.42155 -1.45822 0)
(3.27336 -1.21616 0)
(3.09874 -0.979 0)
(2.91563 -0.799884 0)
(2.72644 -0.677749 0)
(2.53232 -0.563833 0)
(2.31399 -0.440195 0)
(3.59394 -1.51738 0)
(3.8128 -1.48709 0)
(3.94051 -1.37256 0)
(3.93052 -1.23555 0)
(3.78642 -0.995457 0)
(3.54796 -0.779456 0)
(3.26414 -0.617496 0)
(2.96652 -0.503943 0)
(2.68643 -0.380415 0)
(2.39193 -0.248 0)
(3.65983 -1.88164 0)
(3.90217 -1.85991 0)
(4.03605 -1.60745 0)
(3.98414 -1.31065 0)
(3.80605 -0.89563 0)
(3.55095 -0.581578 0)
(3.26452 -0.367154 0)
(2.95887 -0.249284 0)
(2.66104 -0.120701 0)
(2.34613 0.00395003 0)
(3.95471 -1.91709 0)
(4.28247 -1.82488 0)
(4.49937 -1.45914 0)
(4.38559 -1.08299 0)
(4.13427 -0.616673 0)
(3.76434 -0.336625 0)
(3.36589 -0.109359 0)
(2.95802 0.000814969 0)
(2.61431 0.143723 0)
(2.2589 0.229498 0)
(4.25276 -2.43767 0)
(4.43492 -2.19902 0)
(4.54643 -1.64449 0)
(4.14974 -1.02381 0)
(3.82049 -0.286972 0)
(3.34276 0.00170115 0)
(3.00128 0.285441 0)
(2.56575 0.298823 0)
(2.27446 0.443405 0)
(1.97641 0.481274 0)
(4.47064 -2.93504 0)
(4.07102 -1.98524 0)
(3.77187 -1.38588 0)
(2.97403 -0.689221 0)
(2.66327 0.0290631 0)
(1.93487 0.217577 0)
(1.87163 0.657946 0)
(1.4498 0.525479 0)
(1.4082 0.71101 0)
(1.3273 0.590616 0)
(3.69547 -3.19735 0)
(2.09961 -2.25747 0)
(0.265526 -0.436708 0)
(-0.424911 0.269676 0)
(-0.348807 0.663578 0)
(-0.751932 0.40886 0)
(0.127778 0.837429 0)
(-0.0228807 0.503757 0)
(0.563342 0.642072 0)
(0.819087 0.456299 0)
(0.347723 -0.905694 0)
(-2.92677 1.54423 0)
(-0.638155 0.253944 0)
(-3.2248 -0.0630631 0)
(-0.421033 0.278812 0)
(-2.11897 -0.169646 0)
(-0.357014 0.25884 0)
(-0.717273 0.0870573 0)
(0.199025 0.205007 0)
(0.340942 0.0846035 0)
(1.03179 -2.01031 0)
(0.643854 -1.64687 0)
(0.382563 -1.29744 0)
(0.221492 -1.00301 0)
(0.129426 -0.770825 0)
(0.0779445 -0.594262 0)
(0.0488811 -0.461316 0)
(0.0319705 -0.360802 0)
(0.0217484 -0.283967 0)
(0.0153145 -0.224494 0)
(0.0111083 -0.177898 0)
(0.00826432 -0.140982 0)
(0.00628764 -0.111429 0)
(0.00488431 -0.0875181 0)
(0.00387462 -0.0679387 0)
(0.00314525 -0.0516659 0)
(0.00262314 -0.0378765 0)
(0.00226057 -0.025886 0)
(0.00202983 -0.0151106 0)
(0.00190767 -0.00511347 0)
(1.23616 -1.78763 0)
(0.840481 -1.48908 0)
(0.55103 -1.19786 0)
(0.350416 -0.944432 0)
(0.221694 -0.737737 0)
(0.142244 -0.5757 0)
(0.0937394 -0.450711 0)
(0.0637218 -0.354535 0)
(0.0446712 -0.280116 0)
(0.0322058 -0.222032 0)
(0.0237986 -0.176265 0)
(0.0179695 -0.139865 0)
(0.0138344 -0.110646 0)
(0.0108504 -0.0869592 0)
(0.00867522 -0.0675365 0)
(0.00708821 -0.0513772 0)
(0.00594444 -0.0376735 0)
(0.00514762 -0.0257509 0)
(0.00464256 -0.0150327 0)
(0.0043804 -0.00508735 0)
(1.2068 -1.74646 0)
(0.825681 -1.43662 0)
(0.558719 -1.14857 0)
(0.376576 -0.906077 0)
(0.255041 -0.710853 0)
(0.174447 -0.557878 0)
(0.121453 -0.439126 0)
(0.0864096 -0.346967 0)
(0.0628764 -0.275081 0)
(0.0467275 -0.218601 0)
(0.0353924 -0.17387 0)
(0.0272665 -0.138157 0)
(0.0213399 -0.109406 0)
(0.0169643 -0.0860494 0)
(0.013716 -0.0668665 0)
(0.0113122 -0.0508873 0)
(0.00956268 -0.0373238 0)
(0.00833829 -0.0255156 0)
(0.00756481 -0.0148962 0)
(0.00717403 -0.00504144 0)
(1.41258 -1.5667 0)
(0.997432 -1.31429 0)
(0.679668 -1.06924 0)
(0.456227 -0.855576 0)
(0.309751 -0.678534 0)
(0.214199 -0.536934 0)
(0.151442 -0.425372 0)
(0.109527 -0.337771 0)
(0.0809426 -0.268799 0)
(0.0609905 -0.21421 0)
(0.04675 -0.170732 0)
(0.036383 -0.135872 0)
(0.0287185 -0.107719 0)
(0.0229938 -0.0847929 0)
(0.018703 -0.0659302 0)
(0.015504 -0.0501967 0)
(0.0131635 -0.0368282 0)
(0.0115216 -0.0251818 0)
(0.0104854 -0.0147039 0)
(0.00996892 -0.00497737 0)
(1.36327 -1.47948 0)
(0.990512 -1.22633 0)
(0.711424 -0.996655 0)
(0.500152 -0.803082 0)
(0.35097 -0.642949 0)
(0.24849 -0.513238 0)
(0.178905 -0.409515 0)
(0.131308 -0.326988 0)
(0.0982244 -0.261311 0)
(0.0747578 -0.208894 0)
(0.0577776 -0.16688 0)
(0.0452713 -0.133032 0)
(0.0359341 -0.105599 0)
(0.0289036 -0.0832009 0)
(0.0235998 -0.0647357 0)
(0.0196257 -0.049311 0)
(0.0167079 -0.0361906 0)
(0.0146573 -0.0247518 0)
(0.0133626 -0.0144569 0)
(0.012721 -0.00489537 0)
(1.55954 -1.33518 0)
(1.11353 -1.12095 0)
(0.785927 -0.920609 0)
(0.55187 -0.749156 0)
(0.391149 -0.605553 0)
(0.280602 -0.487636 0)
(0.204615 -0.391978 0)
(0.151874 -0.314831 0)
(0.11469 -0.252732 0)
(0.0879748 -0.202719 0)
(0.0684269 -0.162353 0)
(0.0538927 -0.129662 0)
(0.0429563 -0.103064 0)
(0.0346693 -0.0812845 0)
(0.0283859 -0.0632905 0)
(0.0236597 -0.0482353 0)
(0.0201803 -0.0354143 0)
(0.0177312 -0.0242279 0)
(0.0161831 -0.0141559 0)
(0.0154174 -0.00479543 0)
(1.51892 -1.21484 0)
(1.1306 -1.01531 0)
(0.826462 -0.839434 0)
(0.592363 -0.691498 0)
(0.426177 -0.565639 0)
(0.309643 -0.460117 0)
(0.228327 -0.372902 0)
(0.171114 -0.301431 0)
(0.130266 -0.243155 0)
(0.100585 -0.195749 0)
(0.0786532 -0.157193 0)
(0.062212 -0.12579 0)
(0.0497568 -0.100132 0)
(0.0402678 -0.079056 0)
(0.0330425 -0.0616031 0)
(0.0275903 -0.0469756 0)
(0.0235672 -0.0345033 0)
(0.0207313 -0.0236122 0)
(0.0189359 -0.0138019 0)
(0.0180482 -0.00467772 0)
(1.6718 -1.08355 0)
(1.20694 -0.911519 0)
(0.874566 -0.759264 0)
(0.629469 -0.632957 0)
(0.457272 -0.524249 0)
(0.335735 -0.431136 0)
(0.249996 -0.352542 0)
(0.188967 -0.28695 0)
(0.144896 -0.232686 0)
(0.112541 -0.18805 0)
(0.0884174 -0.151445 0)
(0.070197 -0.121445 0)
(0.0563095 -0.0968224 0)
(0.0456778 -0.0765291 0)
(0.0375518 -0.0596829 0)
(0.0314025 -0.0455384 0)
(0.0268556 -0.0334621 0)
(0.023646 -0.0229076 0)
(0.0216109 -0.0133961 0)
(0.0206038 -0.00454253 0)
(1.66593 -0.940742 0)
(1.23383 -0.797564 0)
(0.908079 -0.674303 0)
(0.659694 -0.572312 0)
(0.483938 -0.48146 0)
(0.358778 -0.400957 0)
(0.269569 -0.331119 0)
(0.205383 -0.271541 0)
(0.158535 -0.221428 0)
(0.123802 -0.179692 0)
(0.0976857 -0.145153 0)
(0.0778195 -0.116658 0)
(0.0625906 -0.0931566 0)
(0.0508793 -0.0737185 0)
(0.0418971 -0.0575403 0)
(0.035082 -0.0439309 0)
(0.0300332 -0.0322955 0)
(0.0264645 -0.0221171 0)
(0.024198 -0.0129401 0)
(0.0230749 -0.00439025 0)
(1.76642 -0.805067 0)
(1.27813 -0.687049 0)
(0.938338 -0.589336 0)
(0.684472 -0.510931 0)
(0.506319 -0.437817 0)
(0.378771 -0.369913 0)
(0.287022 -0.308862 0)
(0.220334 -0.255363 0)
(0.171152 -0.209486 0)
(0.13434 -0.170746 0)
(0.10643 -0.138366 0)
(0.0850545 -0.111462 0)
(0.0685786 -0.0891569 0)
(0.0558541 -0.0706399 0)
(0.0460627 -0.0551864 0)
(0.0386154 -0.0421609 0)
(0.0330881 -0.031009 0)
(0.0291762 -0.0212443 0)
(0.0266877 -0.0124356 0)
(0.0254528 -0.00422141 0)
(1.78392 -0.644917 0)
(1.2978 -0.567576 0)
(0.958674 -0.50169 0)
(0.702874 -0.448817 0)
(0.52432 -0.393672 0)
(0.395712 -0.338315 0)
(0.302352 -0.285997 0)
(0.233805 -0.238571 0)
(0.182726 -0.196966 0)
(0.144129 -0.161283 0)
(0.114627 -0.131132 0)
(0.0918808 -0.105888 0)
(0.0742546 -0.0848464 0)
(0.0605854 -0.0673097 0)
(0.050034 -0.052633 0)
(0.0419899 -0.0402369 0)
(0.0360094 -0.0296084 0)
(0.0317712 -0.0202928 0)
(0.029071 -0.0118846 0)
(0.0277289 -0.0040366 0)
(1.84362 -0.489375 0)
(1.31581 -0.448314 0)
(0.972007 -0.413651 0)
(0.715143 -0.386795 0)
(0.537998 -0.349478 0)
(0.409636 -0.306484 0)
(0.31558 -0.262746 0)
(0.245802 -0.221315 0)
(0.193249 -0.18397 0)
(0.153157 -0.151371 0)
(0.12226 -0.123498 0)
(0.0982805 -0.0999716 0)
(0.0796017 -0.0802489 0)
(0.0650582 -0.0637449 0)
(0.0537978 -0.0498923 0)
(0.0451939 -0.0381677 0)
(0.0387864 -0.0280997 0)
(0.0342401 -0.0192667 0)
(0.0313393 -0.0112894 0)
(0.029895 -0.00383653 0)
(1.854 -0.310366 0)
(1.31472 -0.323669 0)
(0.975746 -0.324964 0)
(0.72091 -0.325416 0)
(0.547393 -0.305665 0)
(0.420605 -0.274736 0)
(0.326751 -0.239326 0)
(0.256346 -0.203742 0)
(0.202726 -0.170597 0)
(0.161414 -0.141078 0)
(0.129316 -0.115512 0)
(0.104239 -0.0937449 0)
(0.0846057 -0.0753882 0)
(0.069259 -0.0599629 0)
(0.0573419 -0.046977 0)
(0.0482164 -0.0359623 0)
(0.0414096 -0.0264896 0)
(0.0365742 -0.0181702 0)
(0.0334844 -0.0106522 0)
(0.0319436 -0.00362195 0)
(1.86884 -0.132977 0)
(1.3014 -0.200167 0)
(0.970453 -0.237538 0)
(0.720221 -0.265557 0)
(0.552635 -0.262708 0)
(0.428718 -0.243385 0)
(0.335935 -0.215945 0)
(0.265475 -0.185992 0)
(0.211171 -0.156942 0)
(0.168903 -0.130471 0)
(0.135788 -0.10722 0)
(0.109746 -0.0872411 0)
(0.0892544 -0.0702883 0)
(0.073176 -0.0559814 0)
(0.0606553 -0.0439 0)
(0.0510474 -0.0336304 0)
(0.0438699 -0.0247847 0)
(0.0387651 -0.0170078 0)
(0.0354988 -0.00997573 0)
(0.0338675 -0.00339368 0)
(1.82967 0.0765537 0)
(1.26668 -0.0719228 0)
(0.955177 -0.151497 0)
(0.71309 -0.207929 0)
(0.55392 -0.221094 0)
(0.43411 -0.21274 0)
(0.343226 -0.192802 0)
(0.273243 -0.168195 0)
(0.218607 -0.143092 0)
(0.175629 -0.11961 0)
(0.141671 -0.0986646 0)
(0.114793 -0.0804923 0)
(0.0935378 -0.0649729 0)
(0.0767988 -0.0518179 0)
(0.063728 -0.0406748 0)
(0.0536779 -0.0311817 0)
(0.046159 -0.022992 0)
(0.0408053 -0.0157842 0)
(0.0373754 -0.00926252 0)
(0.0356599 -0.00315263 0)
(1.74656 0.252027 0)
(1.20489 0.0420389 0)
(0.928441 -0.0688629 0)
(0.699454 -0.153135 0)
(0.551495 -0.181309 0)
(0.436962 -0.183097 0)
(0.348746 -0.170079 0)
(0.279719 -0.15047 0)
(0.225071 -0.129129 0)
(0.181605 -0.108552 0)
(0.146968 -0.0898886 0)
(0.119374 -0.0735295 0)
(0.0974479 -0.0594655 0)
(0.0801187 -0.0474903 0)
(0.0665514 -0.0373145 0)
(0.0560997 -0.0286262 0)
(0.0482692 -0.0211187 0)
(0.0426878 -0.0145043 0)
(0.0391078 -0.00851541 0)
(0.0373147 -0.00289972 0)
(1.61487 0.460505 0)
(1.13316 0.152437 0)
(0.894896 0.000361181 0)
(0.679672 -0.104191 0)
(0.545619 -0.144198 0)
(0.437494 -0.154771 0)
(0.352639 -0.147944 0)
(0.284985 -0.132922 0)
(0.230603 -0.115125 0)
(0.186849 -0.0973505 0)
(0.151682 -0.0809308 0)
(0.123487 -0.0663823 0)
(0.100978 -0.0537887 0)
(0.083128 -0.043016 0)
(0.0691179 -0.0338327 0)
(0.0583053 -0.0259739 0)
(0.0501938 -0.0191722 0)
(0.0444062 -0.013173 0)
(0.04069 -0.00773731 0)
(0.0388262 -0.00263594 0)
(1.35642 0.550594 0)
(1.01286 0.232622 0)
(0.84872 0.0741518 0)
(0.656388 -0.0549938 0)
(0.537282 -0.109126 0)
(0.436073 -0.127891 0)
(0.355084 -0.126528 0)
(0.289139 -0.115641 0)
(0.235253 -0.101143 0)
(0.191383 -0.0860511 0)
(0.15582 -0.071827 0)
(0.127131 -0.059079 0)
(0.104125 -0.0479648 0)
(0.0858207 -0.0384125 0)
(0.0714207 -0.0302427 0)
(0.0602884 -0.023235 0)
(0.0519266 -0.0171599 0)
(0.0459549 -0.0117954 0)
(0.0421166 -0.00693121 0)
(0.0401894 -0.00236233 0)
(1.18084 0.580105 0)
(0.894125 0.280214 0)
(0.795203 0.109499 0)
(0.624259 -0.0229969 0)
(0.525119 -0.0791365 0)
(0.432735 -0.102971 0)
(0.356241 -0.105973 0)
(0.292282 -0.0986983 0)
(0.239076 -0.0872327 0)
(0.195233 -0.0746943 0)
(0.159392 -0.0626098 0)
(0.130306 -0.0516459 0)
(0.106884 -0.0420151 0)
(0.0881917 -0.0336968 0)
(0.0734544 -0.0265581 0)
(0.0620433 -0.02042 0)
(0.0534623 -0.0150895 0)
(0.0473287 -0.0103767 0)
(0.0433828 -0.00610021 0)
(0.0413996 -0.00207995 0)
(1.1275 0.5009 0)
(0.923065 0.325519 0)
(0.785843 0.171322 0)
(0.604203 0.019296 0)
(0.514874 -0.0496122 0)
(0.428574 -0.0795246 0)
(0.356402 -0.0862952 0)
(0.294536 -0.0821429 0)
(0.24213 -0.0734359 0)
(0.198427 -0.0633136 0)
(0.162409 -0.0533075 0)
(0.133016 -0.0441071 0)
(0.109254 -0.0359597 0)
(0.0902372 -0.0288853 0)
(0.0752142 -0.0227918 0)
(0.0635652 -0.0175389 0)
(0.0547961 -0.0129684 0)
(0.0485232 -0.00892228 0)
(0.0444845 -0.00524745 0)
(0.0424527 -0.00178988 0)
(0.892324 0.334972 0)
(0.549136 0.374688 0)
(0.627838 0.210937 0)
(0.540811 0.0494079 0)
(0.49404 -0.0246388 0)
(0.421749 -0.0566016 0)
(0.35551 -0.0658386 0)
(0.296148 -0.0644292 0)
(0.244712 -0.0584277 0)
(0.201252 -0.0508026 0)
(0.165133 -0.0430089 0)
(0.135491 -0.0357199 0)
(0.111433 -0.0291998 0)
(0.0921267 -0.023501 0)
(0.0768451 -0.0185699 0)
(0.0649788 -0.0143052 0)
(0.0560372 -0.0105856 0)
(0.049636 -0.00728714 0)
(0.0455115 -0.00428791 0)
(0.0434347 -0.0014632 0)
(0.270736 0.0504464 0)
(0.30988 0.36092 0)
(0.528312 0.187175 0)
(0.501238 0.0560813 0)
(0.478013 -0.00570925 0)
(0.415091 -0.034762 0)
(0.353912 -0.044861 0)
(0.296985 -0.0456754 0)
(0.246593 -0.0422626 0)
(0.203469 -0.0371866 0)
(0.167339 -0.0317249 0)
(0.13753 -0.0264882 0)
(0.113247 -0.0217355 0)
(0.0937109 -0.0175422 0)
(0.0782193 -0.0138901 0)
(0.0661743 -0.0107166 0)
(0.0570895 -0.00793908 0)
(0.0505813 -0.00546977 0)
(0.0463849 -0.00322058 0)
(0.0442704 -0.0010995 0)
(-0.0166679 0.114326 0)
(0.189497 0.289336 0)
(0.470331 0.153048 0)
(0.469051 0.0585379 0)
(0.462984 0.00929032 0)
(0.408477 -0.0152434 0)
(0.35185 -0.0250752 0)
(0.297074 -0.0274761 0)
(0.247637 -0.0263219 0)
(0.204872 -0.0236309 0)
(0.168804 -0.0204226 0)
(0.138917 -0.0172039 0)
(0.114501 -0.0142075 0)
(0.0948168 -0.0115208 0)
(0.0791854 -0.00915437 0)
(0.0670192 -0.00708141 0)
(0.057836 -0.0052562 0)
(0.0512538 -0.00362637 0)
(0.0470074 -0.00213725 0)
(0.0448665 -0.000730115 0)
(-0.0357199 0.0152005 0)
(0.190329 0.185871 0)
(0.444799 0.106082 0)
(0.450965 0.0524757 0)
(0.452804 0.019885 0)
(0.403388 0.00224154 0)
(0.349775 -0.00623971 0)
(0.296584 -0.00971747 0)
(0.247923 -0.0105763 0)
(0.205497 -0.0101443 0)
(0.169545 -0.00912674 0)
(0.139662 -0.00789666 0)
(0.115196 -0.00664496 0)
(0.0954436 -0.00546253 0)
(0.0797414 -0.00438457 0)
(0.0675109 -0.00341726 0)
(0.0582741 -0.0025504 0)
(0.0516506 -0.00176639 0)
(0.0473761 -0.00104367 0)
(0.0452203 -0.000357062 0)
(-0.0372065 0.0513834 0)
(0.1865 0.107014 0)
(0.430235 0.0713394 0)
(0.440039 0.0474034 0)
(0.446007 0.0296912 0)
(0.399597 0.0187278 0)
(0.347789 0.0119462 0)
(0.295604 0.0076912 0)
(0.247499 0.00499572 0)
(0.205372 0.00326415 0)
(0.169576 0.00214046 0)
(0.139769 0.00140643 0)
(0.115336 0.000924861 0)
(0.0955919 0.00060754 0)
(0.0798867 0.000397951 0)
(0.0676481 0.000258579 0)
(0.0584021 0.000165083 0)
(0.0517704 0.000100785 0)
(0.0474897 5.44432e-05 0)
(0.0453304 1.7628e-05 0)
(-0.0294428 -0.0256427 0)
(0.193029 0.0180768 0)
(0.427443 0.0296941 0)
(0.436806 0.0396409 0)
(0.443068 0.0383565 0)
(0.397337 0.0346502 0)
(0.34601 0.0297908 0)
(0.29421 0.0248913 0)
(0.246409 0.0204409 0)
(0.20452 0.0165942 0)
(0.168909 0.0133587 0)
(0.139245 0.0106785 0)
(0.114922 0.00847465 0)
(0.0952631 0.00666453 0)
(0.0796218 0.00517192 0)
(0.067431 0.00392885 0)
(0.05822 0.002877 0)
(0.0516127 0.00196578 0)
(0.0473477 0.00115137 0)
(0.0451963 0.000391932 0)
(-0.0218918 -0.00182089 0)
(0.204591 -0.0581009 0)
(0.437937 -0.000842627 0)
(0.443103 0.0348386 0)
(0.444346 0.0479293 0)
(0.396668 0.0508386 0)
(0.344443 0.0477008 0)
(0.292399 0.0420703 0)
(0.244654 0.0358264 0)
(0.202944 0.0298552 0)
(0.167548 0.0245117 0)
(0.138095 0.0198939 0)
(0.113959 0.0159775 0)
(0.0944596 0.0126837 0)
(0.0789488 0.00991618 0)
(0.0668613 0.00757638 0)
(0.057729 0.00557218 0)
(0.0511787 0.00381925 0)
(0.046951 0.00224142 0)
(0.044819 0.000763833 0)
(-0.0112524 -0.090311 0)
(0.205664 -0.152557 0)
(0.455918 -0.0427676 0)
(0.453143 0.0293705 0)
(0.448453 0.058335 0)
(0.397226 0.0676776 0)
(0.342984 0.0659229 0)
(0.29013 0.0593372 0)
(0.242217 0.0511913 0)
(0.200639 0.0430485 0)
(0.165493 0.0355823 0)
(0.136319 0.0290283 0)
(0.11245 0.0234076 0)
(0.0931849 0.0186412 0)
(0.0778708 0.01461 0)
(0.0659417 0.0111843 0)
(0.0569318 0.00823764 0)
(0.0504707 0.00565199 0)
(0.0463019 0.00331897 0)
(0.0442005 0.00113134 0)
(0.180166 -0.0522001 0)
(0.279069 -0.229301 0)
(0.498954 -0.0733377 0)
(0.478075 0.0306058 0)
(0.457467 0.0720573 0)
(0.399224 0.086032 0)
(0.341546 0.084784 0)
(0.28733 0.076819 0)
(0.239062 0.066574 0)
(0.197589 0.0561718 0)
(0.16274 0.0465504 0)
(0.13392 0.0380551 0)
(0.110398 0.0307381 0)
(0.0914433 0.0245123 0)
(0.0763922 0.0192325 0)
(0.0646765 0.0147356 0)
(0.0558323 0.0108604 0)
(0.0494923 0.0074548 0)
(0.0454036 0.0043784 0)
(0.0433438 0.00149247 0)
(0.679031 -0.2593 0)
(0.436455 -0.262833 0)
(0.565697 -0.101402 0)
(0.50442 0.0363235 0)
(0.467201 0.0892505 0)
(0.401471 0.106316 0)
(0.339765 0.104522 0)
(0.283861 0.0946168 0)
(0.235128 0.0820008 0)
(0.193769 0.0692162 0)
(0.15928 0.0573922 0)
(0.130897 0.046946 0)
(0.107807 0.0379411 0)
(0.0892401 0.0302722 0)
(0.0745188 0.0237625 0)
(0.0630713 0.0182134 0)
(0.0544356 0.0134274 0)
(0.0482484 0.00921852 0)
(0.0442607 0.00541417 0)
(0.0422534 0.00184527 0)
(0.964585 -0.410325 0)
(0.772154 -0.232699 0)
(0.692197 -0.0836058 0)
(0.553537 0.0551773 0)
(0.48094 0.109818 0)
(0.404055 0.126579 0)
(0.33769 0.123008 0)
(0.280028 0.110792 0)
(0.23085 0.0957922 0)
(0.189642 0.0807632 0)
(0.155551 0.0669292 0)
(0.127643 0.0547345 0)
(0.105018 0.0442336 0)
(0.0868693 0.0352946 0)
(0.0725025 0.0277075 0)
(0.0613429 0.0212393 0)
(0.0529312 0.0156595 0)
(0.0469079 0.0107512 0)
(0.0430287 0.00631353 0)
(0.0410777 0.00215129 0)
(1.03047 -0.497383 0)
(0.816845 -0.196062 0)
(0.72798 -0.0334582 0)
(0.575514 0.087876 0)
(0.488909 0.133718 0)
(0.40525 0.146447 0)
(0.335199 0.14004 0)
(0.27605 0.125273 0)
(0.226525 0.107939 0)
(0.185506 0.0908299 0)
(0.15183 0.0751884 0)
(0.124403 0.0614497 0)
(0.102245 0.0496426 0)
(0.0845125 0.0396028 0)
(0.0704984 0.0310867 0)
(0.0596251 0.0238286 0)
(0.0514358 0.0175682 0)
(0.0455753 0.0120611 0)
(0.0418036 0.00708149 0)
(0.0399084 0.00241235 0)
(1.16127 -0.511147 0)
(0.902711 -0.165285 0)
(0.771307 -0.00405668 0)
(0.601226 0.117097 0)
(0.496687 0.159332 0)
(0.405617 0.167706 0)
(0.331923 0.15774 0)
(0.271371 0.139982 0)
(0.221585 0.12009 0)
(0.180839 0.1008 0)
(0.147657 0.0833144 0)
(0.120781 0.0680269 0)
(0.0991503 0.0549242 0)
(0.0818855 0.0438008 0)
(0.068266 0.0343746 0)
(0.0577122 0.0263455 0)
(0.0497708 0.0194221 0)
(0.0440915 0.0133326 0)
(0.0404394 0.00782629 0)
(0.0386062 0.00266528 0)
(1.40505 -0.456479 0)
(1.01096 -0.104633 0)
(0.812364 0.0554777 0)
(0.621188 0.156149 0)
(0.502178 0.188448 0)
(0.404638 0.19047 0)
(0.327667 0.176071 0)
(0.265902 0.154884 0)
(0.215986 0.132219 0)
(0.175623 0.110651 0)
(0.143026 0.0912875 0)
(0.116777 0.0744494 0)
(0.0957381 0.0600643 0)
(0.0789934 0.0478768 0)
(0.0658104 0.0375618 0)
(0.0556093 0.0287825 0)
(0.047941 0.0212157 0)
(0.042461 0.0145618 0)
(0.0389403 0.00854561 0)
(0.037175 0.00290928 0)
(1.57656 -0.282697 0)
(1.09114 -0.0163832 0)
(0.846368 0.114273 0)
(0.638146 0.197763 0)
(0.505602 0.219879 0)
(0.402113 0.214503 0)
(0.32228 0.194948 0)
(0.259557 0.16993 0)
(0.209689 0.144289 0)
(0.169839 0.120354 0)
(0.137931 0.0990838 0)