x,y,z,p
0,0,0,0.0385079
0,0.1,0,0.0612659
0,0.2,0,0.0840239
0,0.3,0,0.106782
0,0.4,0,0.12954
0,0.5,0,0.153195
0,0.6,0,0.183726
0,0.7,0,0.214258
0,0.8,0,0.244789
0,0.9,0,0.275321
0,1,0,0.305968
0,1.1,0,0.336999
0,1.2,0,0.36803
0,1.3,0,0.399061
0,1.4,0,0.430092
0,1.5,0,0.460568
0,1.6,0,0.489995
0,1.7,0,0.519422
0,1.8,0,0.548849
0,1.9,0,0.578276
0,2,0,0.60631
0,2.1,0,0.632721
0,2.2,0,0.659131
0,2.3,0,0.685542
0,2.4,0,0.711952
0,2.5,0,0.736495
0,2.6,0,0.759668
0,2.7,0,0.782842
0,2.8,0,0.806015
0,2.9,0,0.829188
0,3,0,0.85041
0,3.1,0,0.870764
0,3.2,0,0.891118
0,3.3,0,0.911473
0,3.4,0,0.931827
0,3.5,0,0.951633
0,3.6,0,0.971308
0,3.7,0,0.990984
0,3.8,0,1.01066
0,3.9,0,1.03033
0,4,0,1.04693
0,4.1,0,1.06328
0,4.2,0,1.07962
0,4.3,0,1.09597
0,4.4,0,1.11214
0,4.5,0,1.12405
0,4.6,0,1.13596
0,4.7,0,1.14787
0,4.8,0,1.15978
0,4.9,0,1.17127
0,5,0,1.18046
0,5.1,0,1.18965
0,5.2,0,1.19884
0,5.3,0,1.20803
0,5.4,0,1.21594
0,5.5,0,1.22042
0,5.6,0,1.22489
0,5.7,0,1.22937
0,5.8,0,1.23384
0,5.9,0,1.23693
0,6,0,1.23779
0,6.1,0,1.23866
0,6.2,0,1.23953
0,6.3,0,1.24039
0,6.4,0,1.24025
0,6.5,0,1.2391
0,6.6,0,1.23795
0,6.7,0,1.2368
0,6.8,0,1.23565
0,6.9,0,1.23202
0,7,0,1.22683
0,7.1,0,1.22165
0,7.2,0,1.21646
0,7.3,0,1.21128
0,7.4,0,1.20286
0,7.5,0,1.19324
0,7.6,0,1.18362
0,7.7,0,1.174
0,7.8,0,1.16438
0,7.9,0,1.15283
0,8,0,1.14092
0,8.1,0,1.12901
0,8.2,0,1.1171
0,8.3,0,1.10519
0,8.4,0,1.08903
0,8.5,0,1.07269
0,8.6,0,1.05635
0,8.7,0,1.04002
0,8.8,0,1.02346
0,8.9,0,1.00422
0,9,0,0.984986
0,9.1,0,0.96575
0,9.2,0,0.946515
0,9.3,0,0.926997
0,9.4,0,0.906296
0,9.5,0,0.885595
0,9.6,0,0.864895
0,9.7,0,0.844194
0,9.8,0,0.822515
0,9.9,0,0.798636
0,10,0,0.774756
0,10.1,0,0.750877
0,10.2,0,0.726998
0,10.3,0,0.702427
0,10.4,0,0.676914
0,10.5,0,0.6514
0,10.6,0,0.625887
0,10.7,0,0.600373
0,10.8,0,0.574031
0,10.9,0,0.546977
0,11,0,0.519923
0,11.1,0,0.492869
0,11.2,0,0.465815
0,11.3,0,0.436979
0,11.4,0,0.4072
0,11.5,0,0.37742
0,11.6,0,0.347641
0,11.7,0,0.317862
0,11.8,0,0.286336
0,11.9,0,0.254287
0,12,0,0.222238
0,12.1,0,0.190189
0,12.2,0,0.15814
0,12.3,0,0.133311
0,12.4,0,0.109423
0,12.5,0,0.0855355
0,12.6,0,0.0616478
0,12.7,0,0.0377602
0.1,0,0,0.0308063
0.1,0.1,0,0.0621399
0.1,0.2,0,0.0848979
0.1,0.3,0,0.107656
0.1,0.4,0,0.130414
0.1,0.5,0,0.154009
0.1,0.6,0,0.18484
0.1,0.7,0,0.215371
0.1,0.8,0,0.245903
0.1,0.9,0,0.276434
0.1,1,0,0.306889
0.1,1.1,0,0.337281
0.1,1.2,0,0.368312
0.1,1.3,0,0.399343
0.1,1.4,0,0.430374
0.1,1.5,0,0.460654
0.1,1.6,0,0.489696
0.1,1.7,0,0.519123
0.1,1.8,0,0.54855
0.1,1.9,0,0.577977
0.1,2,0,0.606162
0.1,2.1,0,0.632741
0.1,2.2,0,0.659151
0.1,2.3,0,0.685562
0.1,2.4,0,0.711972
0.1,2.5,0,0.737183
0.1,2.6,0,0.760819
0.1,2.7,0,0.783992
0.1,2.8,0,0.807165
0.1,2.9,0,0.830338
0.1,3,0,0.852429
0.1,3.1,0,0.87314
0.1,3.2,0,0.893495
0.1,3.3,0,0.913849
0.1,3.4,0,0.934203
0.1,3.5,0,0.953586
0.1,3.6,0,0.973172
0.1,3.7,0,0.992848
0.1,3.8,0,1.01252
0.1,3.9,0,1.0322
0.1,4,0,1.04844
0.1,4.1,0,1.06476
0.1,4.2,0,1.08111
0.1,4.3,0,1.09745
0.1,4.4,0,1.11364
0.1,4.5,0,1.12601
0.1,4.6,0,1.13792
0.1,4.7,0,1.14983
0.1,4.8,0,1.16174
0.1,4.9,0,1.17321
0.1,5,0,1.18225
0.1,5.1,0,1.19144
0.1,5.2,0,1.20063
0.1,5.3,0,1.20981
0.1,5.4,0,1.21796
0.1,5.5,0,1.22302
0.1,5.6,0,1.2275
0.1,5.7,0,1.23197
0.1,5.8,0,1.23645
0.1,5.9,0,1.23981
0.1,6,0,1.2411
0.1,6.1,0,1.24197
0.1,6.2,0,1.24283
0.1,6.3,0,1.2437
0.1,6.4,0,1.24318
0.1,6.5,0,1.24167
0.1,6.6,0,1.24052
0.1,6.7,0,1.23937
0.1,6.8,0,1.23822
0.1,6.9,0,1.23428
0.1,7,0,1.22892
0.1,7.1,0,1.22374
0.1,7.2,0,1.21855
0.1,7.3,0,1.21337
0.1,7.4,0,1.20495
0.1,7.5,0,1.19534
0.1,7.6,0,1.18572
0.1,7.7,0,1.1761
0.1,7.8,0,1.16648
0.1,7.9,0,1.15445
0.1,8,0,1.14247
0.1,8.1,0,1.13056
0.1,8.2,0,1.11865
0.1,8.3,0,1.10674
0.1,8.4,0,1.09077
0.1,8.5,0,1.07444
0.1,8.6,0,1.0581
0.1,8.7,0,1.04177
0.1,8.8,0,1.02521
0.1,8.9,0,1.00601
0.1,9,0,0.98677
0.1,9.1,0,0.967534
0.1,9.2,0,0.948298
0.1,9.3,0,0.92863
0.1,9.4,0,0.907316
0.1,9.5,0,0.886615
0.1,9.6,0,0.865914
0.1,9.7,0,0.845213
0.1,9.8,0,0.823358
0.1,9.9,0,0.799096
0.1,10,0,0.775216
0.1,10.1,0,0.751337
0.1,10.2,0,0.727458
0.1,10.3,0,0.702409
0.1,10.4,0,0.676271
0.1,10.5,0,0.650757
0.1,10.6,0,0.625244
0.1,10.7,0,0.599731
0.1,10.8,0,0.57271
0.1,10.9,0,0.545104
0.1,11,0,0.51805
0.1,11.1,0,0.490996
0.1,11.2,0,0.463942
0.1,11.3,0,0.435076
0.1,11.4,0,0.405282
0.1,11.5,0,0.375502
0.1,11.6,0,0.345723
0.1,11.7,0,0.315944
0.1,11.8,0,0.284418
0.1,11.9,0,0.252369
0.1,12,0,0.22032
0.1,12.1,0,0.188271
0.1,12.2,0,0.157319
0.1,12.3,0,0.132596
0.1,12.4,0,0.108708
0.1,12.5,0,0.0848208
0.1,12.6,0,0.0609332
0.1,12.7,0,0.0302081
0.2,0,0,0.0231047
0.2,0.1,0,0.0545015
0.2,0.2,0,0.0857719
0.2,0.3,0,0.10853
0.2,0.4,0,0.131288
0.2,0.5,0,0.154784
0.2,0.6,0,0.185659
0.2,0.7,0,0.216485
0.2,0.8,0,0.247017
0.2,0.9,0,0.277548
0.2,1,0,0.308007
0.2,1.1,0,0.338186
0.2,1.2,0,0.368594
0.2,1.3,0,0.399625
0.2,1.4,0,0.430656
0.2,1.5,0,0.46095
0.2,1.6,0,0.489768
0.2,1.7,0,0.518824
0.2,1.8,0,0.548251
0.2,1.9,0,0.577678
0.2,2,0,0.605863
0.2,2.1,0,0.6326
0.2,2.2,0,0.659171
0.2,2.3,0,0.685582
0.2,2.4,0,0.711992
0.2,2.5,0,0.737203
0.2,2.6,0,0.761533
0.2,2.7,0,0.785142
0.2,2.8,0,0.808315
0.2,2.9,0,0.831489
0.2,3,0,0.853579
0.2,3.1,0,0.875189
0.2,3.2,0,0.895871
0.2,3.3,0,0.916225
0.2,3.4,0,0.93658
0.2,3.5,0,0.955962
0.2,3.6,0,0.975113
0.2,3.7,0,0.994712
0.2,3.8,0,1.01439
0.2,3.9,0,1.03406
0.2,4,0,1.0503
0.2,4.1,0,1.06626
0.2,4.2,0,1.08259
0.2,4.3,0,1.09894
0.2,4.4,0,1.11513
0.2,4.5,0,1.12753
0.2,4.6,0,1.13988
0.2,4.7,0,1.15179
0.2,4.8,0,1.1637
0.2,4.9,0,1.17517
0.2,5,0,1.18418
0.2,5.1,0,1.19322
0.2,5.2,0,1.20241
0.2,5.3,0,1.2116
0.2,5.4,0,1.21974
0.2,5.5,0,1.22505
0.2,5.6,0,1.2301
0.2,5.7,0,1.23458
0.2,5.8,0,1.23905
0.2,5.9,0,1.24241
0.2,6,0,1.244
0.2,6.1,0,1.24527
0.2,6.2,0,1.24614
0.2,6.3,0,1.24701
0.2,6.4,0,1.24649
0.2,6.5,0,1.24459
0.2,6.6,0,1.2431
0.2,6.7,0,1.24195
0.2,6.8,0,1.2408
0.2,6.9,0,1.23686
0.2,7,0,1.23118
0.2,7.1,0,1.22582
0.2,7.2,0,1.22064
0.2,7.3,0,1.21546
0.2,7.4,0,1.20704
0.2,7.5,0,1.19743
0.2,7.6,0,1.18782
0.2,7.7,0,1.1782
0.2,7.8,0,1.16858
0.2,7.9,0,1.15655
0.2,8,0,1.14408
0.2,8.1,0,1.13211
0.2,8.2,0,1.1202
0.2,8.3,0,1.10829
0.2,8.4,0,1.09232
0.2,8.5,0,1.07619
0.2,8.6,0,1.05985
0.2,8.7,0,1.04351
0.2,8.8,0,1.02696
0.2,8.9,0,1.00776
0.2,9,0,0.988553
0.2,9.1,0,0.969317
0.2,9.2,0,0.950081
0.2,9.3,0,0.930413
0.2,9.4,0,0.908931
0.2,9.5,0,0.887634
0.2,9.6,0,0.866934
0.2,9.7,0,0.846233
0.2,9.8,0,0.824378
0.2,9.9,0,0.799926
0.2,10,0,0.775676
0.2,10.1,0,0.751797
0.2,10.2,0,0.727918
0.2,10.3,0,0.702869
0.2,10.4,0,0.676227
0.2,10.5,0,0.650114
0.2,10.6,0,0.624601
0.2,10.7,0,0.599088
0.2,10.8,0,0.572067
0.2,10.9,0,0.543755
0.2,11,0,0.516178
0.2,11.1,0,0.489124
0.2,11.2,0,0.46207
0.2,11.3,0,0.433204
0.2,11.4,0,0.403378
0.2,11.5,0,0.373584
0.2,11.6,0,0.343805
0.2,11.7,0,0.314026
0.2,11.8,0,0.2825
0.2,11.9,0,0.250451
0.2,12,0,0.218402
0.2,12.1,0,0.187421
0.2,12.2,0,0.156645
0.2,12.3,0,0.131881
0.2,12.4,0,0.107994
0.2,12.5,0,0.0841061
0.2,12.6,0,0.0535647
0.2,12.7,0,0.0226561
0.3,0,0,0.0154032
0.3,0.1,0,0.0467999
0.3,0.2,0,0.0781967
0.3,0.3,0,0.109404
0.3,0.4,0,0.132162
0.3,0.5,0,0.155558
0.3,0.6,0,0.186433
0.3,0.7,0,0.217309
0.3,0.8,0,0.24813
0.3,0.9,0,0.278662
0.3,1,0,0.309125
0.3,1.1,0,0.339304
0.3,1.2,0,0.369484
0.3,1.3,0,0.399907
0.3,1.4,0,0.430938
0.3,1.5,0,0.461247
0.3,1.6,0,0.490064
0.3,1.7,0,0.518882
0.3,1.8,0,0.547952
0.3,1.9,0,0.577379
0.3,2,0,0.605565
0.3,2.1,0,0.632301
0.3,2.2,0,0.659038
0.3,2.3,0,0.685602
0.3,2.4,0,0.712012
0.3,2.5,0,0.737222
0.3,2.6,0,0.761553
0.3,2.7,0,0.785883
0.3,2.8,0,0.809466
0.3,2.9,0,0.832639
0.3,3,0,0.854729
0.3,3.1,0,0.876339
0.3,3.2,0,0.897948
0.3,3.3,0,0.918602
0.3,3.4,0,0.938956
0.3,3.5,0,0.958338
0.3,3.6,0,0.97749
0.3,3.7,0,0.996641
0.3,3.8,0,1.01625
0.3,3.9,0,1.03593
0.3,4,0,1.05217
0.3,4.1,0,1.06813
0.3,4.2,0,1.08408
0.3,4.3,0,1.10042
0.3,4.4,0,1.11661
0.3,4.5,0,1.12901
0.3,4.6,0,1.14141
0.3,4.7,0,1.15376
0.3,4.8,0,1.16567
0.3,4.9,0,1.17713
0.3,5,0,1.18614
0.3,5.1,0,1.19515
0.3,5.2,0,1.2042
0.3,5.3,0,1.21339
0.3,5.4,0,1.22153
0.3,5.5,0,1.22684
0.3,5.6,0,1.23215
0.3,5.7,0,1.23718
0.3,5.8,0,1.24165
0.3,5.9,0,1.24502
0.3,6,0,1.2466
0.3,6.1,0,1.24819
0.3,6.2,0,1.24945
0.3,6.3,0,1.25031
0.3,6.4,0,1.2498
0.3,6.5,0,1.24789
0.3,6.6,0,1.24599
0.3,6.7,0,1.24452
0.3,6.8,0,1.24337
0.3,6.9,0,1.23943
0.3,7,0,1.23375
0.3,7.1,0,1.22807
0.3,7.2,0,1.22273
0.3,7.3,0,1.21754
0.3,7.4,0,1.20913
0.3,7.5,0,1.19952
0.3,7.6,0,1.18991
0.3,7.7,0,1.1803
0.3,7.8,0,1.17068
0.3,7.9,0,1.15865
0.3,8,0,1.14617
0.3,8.1,0,1.1337
0.3,8.2,0,1.12175
0.3,8.3,0,1.10984
0.3,8.4,0,1.09387
0.3,8.5,0,1.07774
0.3,8.6,0,1.0616
0.3,8.7,0,1.04526
0.3,8.8,0,1.02871
0.3,8.9,0,1.00951
0.3,9,0,0.990306
0.3,9.1,0,0.9711
0.3,9.2,0,0.951865
0.3,9.3,0,0.932197
0.3,9.4,0,0.910714
0.3,9.5,0,0.889231
0.3,9.6,0,0.867953
0.3,9.7,0,0.847252
0.3,9.8,0,0.825397
0.3,9.9,0,0.800945
0.3,10,0,0.776493
0.3,10.1,0,0.752257
0.3,10.2,0,0.728378
0.3,10.3,0,0.70333
0.3,10.4,0,0.676687
0.3,10.5,0,0.650045
0.3,10.6,0,0.623958
0.3,10.7,0,0.598445
0.3,10.8,0,0.571424
0.3,10.9,0,0.543112
0.3,11,0,0.514799
0.3,11.1,0,0.487252
0.3,11.2,0,0.460198
0.3,11.3,0,0.431331
0.3,11.4,0,0.401505
0.3,11.5,0,0.371679
0.3,11.6,0,0.341887
0.3,11.7,0,0.312108
0.3,11.8,0,0.280582
0.3,11.9,0,0.248533
0.3,12,0,0.217523
0.3,12.1,0,0.186747
0.3,12.2,0,0.155971
0.3,12.3,0,0.131167
0.3,12.4,0,0.107279
0.3,12.5,0,0.0769213
0.3,12.6,0,0.0460127
0.3,12.7,0,0.0151041
0.4,0,0,0.00770158
0.4,0.1,0,0.0390984
0.4,0.2,0,0.0704951
0.4,0.3,0,0.101892
0.4,0.4,0,0.133036
0.4,0.5,0,0.156333
0.4,0.6,0,0.187208
0.4,0.7,0,0.218083
0.4,0.8,0,0.248959
0.4,0.9,0,0.279775
0.4,1,0,0.310243
0.4,1.1,0,0.340422
0.4,1.2,0,0.370602
0.4,1.3,0,0.400781
0.4,1.4,0,0.43122
0.4,1.5,0,0.461543
0.4,1.6,0,0.490361
0.4,1.7,0,0.519178
0.4,1.8,0,0.547996
0.4,1.9,0,0.57708
0.4,2,0,0.605266
0.4,2.1,0,0.632002
0.4,2.2,0,0.658739
0.4,2.3,0,0.685476
0.4,2.4,0,0.712032
0.4,2.5,0,0.737242
0.4,2.6,0,0.761573
0.4,2.7,0,0.785903
0.4,2.8,0,0.810233
0.4,2.9,0,0.833789
0.4,3,0,0.85588
0.4,3.1,0,0.877489
0.4,3.2,0,0.899098
0.4,3.3,0,0.920708
0.4,3.4,0,0.941332
0.4,3.5,0,0.960715
0.4,3.6,0,0.979866
0.4,3.7,0,0.999017
0.4,3.8,0,1.01817
0.4,3.9,0,1.03779
0.4,4,0,1.05403
0.4,4.1,0,1.06999
0.4,4.2,0,1.08595
0.4,4.3,0,1.10191
0.4,4.4,0,1.1181
0.4,4.5,0,1.1305
0.4,4.6,0,1.1429
0.4,4.7,0,1.15529
0.4,4.8,0,1.16763
0.4,4.9,0,1.17909
0.4,5,0,1.1881
0.4,5.1,0,1.19711
0.4,5.2,0,1.20612
0.4,5.3,0,1.21518
0.4,5.4,0,1.22332
0.4,5.5,0,1.22863
0.4,5.6,0,1.23394
0.4,5.7,0,1.23925
0.4,5.8,0,1.24426
0.4,5.9,0,1.24762
0.4,6,0,1.24921
0.4,6.1,0,1.25079
0.4,6.2,0,1.25238
0.4,6.3,0,1.25362
0.4,6.4,0,1.2531
0.4,6.5,0,1.2512
0.4,6.6,0,1.2493
0.4,6.7,0,1.2474
0.4,6.8,0,1.24594
0.4,6.9,0,1.242
0.4,7,0,1.23632
0.4,7.1,0,1.23064
0.4,7.2,0,1.22496
0.4,7.3,0,1.21963
0.4,7.4,0,1.21122
0.4,7.5,0,1.20161
0.4,7.6,0,1.192
0.4,7.7,0,1.18239
0.4,7.8,0,1.17278
0.4,7.9,0,1.16074
0.4,8,0,1.14827
0.4,8.1,0,1.1358
0.4,8.2,0,1.12333
0.4,8.3,0,1.11139
0.4,8.4,0,1.09542
0.4,8.5,0,1.07928
0.4,8.6,0,1.06315
0.4,8.7,0,1.04701
0.4,8.8,0,1.03045
0.4,8.9,0,1.01125
0.4,9,0,0.992054
0.4,9.1,0,0.972854
0.4,9.2,0,0.953648
0.4,9.3,0,0.93398
0.4,9.4,0,0.912497
0.4,9.5,0,0.891015
0.4,9.6,0,0.869532
0.4,9.7,0,0.848272
0.4,9.8,0,0.826417
0.4,9.9,0,0.801965
0.4,10,0,0.777513
0.4,10.1,0,0.753061
0.4,10.2,0,0.728838
0.4,10.3,0,0.70379
0.4,10.4,0,0.677147
0.4,10.5,0,0.650505
0.4,10.6,0,0.623862
0.4,10.7,0,0.597802
0.4,10.8,0,0.570781
0.4,10.9,0,0.542469
0.4,11,0,0.514156
0.4,11.1,0,0.485844
0.4,11.2,0,0.458325
0.4,11.3,0,0.429459
0.4,11.4,0,0.399633
0.4,11.5,0,0.369807
0.4,11.6,0,0.339981
0.4,11.7,0,0.31019
0.4,11.8,0,0.278665
0.4,11.9,0,0.247624
0.4,12,0,0.216849
0.4,12.1,0,0.186073
0.4,12.2,0,0.155297
0.4,12.3,0,0.130452
0.4,12.4,0,0.100278
0.4,12.5,0,0.0693692
0.4,12.6,0,0.0384606
0.4,12.7,0,0.00755204
0.5,0,0,0
0.5,0.1,0,0.0314276
0.5,0.2,0,0.0628553
0.5,0.3,0,0.0942829
0.5,0.4,0,0.125711
0.5,0.5,0,0.157121
0.5,0.6,0,0.18799
0.5,0.7,0,0.21886
0.5,0.8,0,0.249733
0.5,0.9,0,0.280608
0.5,1,0,0.311361
0.5,1.1,0,0.34154
0.5,1.2,0,0.37172
0.5,1.3,0,0.401899
0.5,1.4,0,0.432078
0.5,1.5,0,0.461839
0.5,1.6,0,0.490657
0.5,1.7,0,0.519475
0.5,1.8,0,0.548292
0.5,1.9,0,0.57711
0.5,2,0,0.604967
0.5,2.1,0,0.631704
0.5,2.2,0,0.65844
0.5,2.3,0,0.685177
0.5,2.4,0,0.711914
0.5,2.5,0,0.737262
0.5,2.6,0,0.761593
0.5,2.7,0,0.785923
0.5,2.8,0,0.810253
0.5,2.9,0,0.834583
0.5,3,0,0.85703
0.5,3.1,0,0.878639
0.5,3.2,0,0.900249
0.5,3.3,0,0.921858
0.5,3.4,0,0.943467
0.5,3.5,0,0.963091
0.5,3.6,0,0.982242
0.5,3.7,0,1.00139
0.5,3.8,0,1.02054
0.5,3.9,0,1.0397
0.5,4,0,1.0559
0.5,4.1,0,1.07185
0.5,4.2,0,1.08781
0.5,4.3,0,1.10377
0.5,4.4,0,1.11958
0.5,4.5,0,1.13198
0.5,4.6,0,1.14438
0.5,4.7,0,1.15678
0.5,4.8,0,1.16918
0.5,4.9,0,1.18105
0.5,5,0,1.19006
0.5,5.1,0,1.19907
0.5,5.2,0,1.20808
0.5,5.3,0,1.21709
0.5,5.4,0,1.22511
0.5,5.5,0,1.23042
0.5,5.6,0,1.23573
0.5,5.7,0,1.24104
0.5,5.8,0,1.24635
0.5,5.9,0,1.25022
0.5,6,0,1.25181
0.5,6.1,0,1.2534
0.5,6.2,0,1.25498
0.5,6.3,0,1.25657
0.5,6.4,0,1.25641
0.5,6.5,0,1.25451
0.5,6.6,0,1.25261
0.5,6.7,0,1.25071
0.5,6.8,0,1.24881
0.5,6.9,0,1.24458
0.5,7,0,1.2389
0.5,7.1,0,1.23322
0.5,7.2,0,1.22754
0.5,7.3,0,1.22185
0.5,7.4,0,1.2133
0.5,7.5,0,1.2037
0.5,7.6,0,1.19409
0.5,7.7,0,1.18448
0.5,7.8,0,1.17487
0.5,7.9,0,1.16284
0.5,8,0,1.15037
0.5,8.1,0,1.1379
0.5,8.2,0,1.12543
0.5,8.3,0,1.11295
0.5,8.4,0,1.09696
0.5,8.5,0,1.08083
0.5,8.6,0,1.0647
0.5,8.7,0,1.04857
0.5,8.8,0,1.0322
0.5,8.9,0,1.013
0.5,9,0,0.993802
0.5,9.1,0,0.974602
0.5,9.2,0,0.955402
0.5,9.3,0,0.935763
0.5,9.4,0,0.914281
0.5,9.5,0,0.892798
0.5,9.6,0,0.871315
0.5,9.7,0,0.849832
0.5,9.8,0,0.827436
0.5,9.9,0,0.802984
0.5,10,0,0.778532
0.5,10.1,0,0.75408
0.5,10.2,0,0.729628
0.5,10.3,0,0.70425
0.5,10.4,0,0.677607
0.5,10.5,0,0.650965
0.5,10.6,0,0.624323
0.5,10.7,0,0.59768
0.5,10.8,0,0.570139
0.5,10.9,0,0.541826
0.5,11,0,0.513514
0.5,11.1,0,0.485201
0.5,11.2,0,0.456889
0.5,11.3,0,0.427587
0.5,11.4,0,0.397761
0.5,11.5,0,0.367935
0.5,11.6,0,0.338109
0.5,11.7,0,0.308283
0.5,11.8,0,0.277728
0.5,11.9,0,0.246954
0.5,12,0,0.21618
0.5,12.1,0,0.185407
0.5,12.2,0,0.154633
0.5,12.3,0,0.123727
0.5,12.4,0,0.0927955
0.5,12.5,0,0.0618637
0.5,12.6,0,0.0309318
0.5,12.7,0,0
0.6,0,0,0
0.6,0.1,0,0.0322691
0.6,0.2,0,0.0636967
0.6,0.3,0,0.0951244
0.6,0.4,0,0.126552
0.6,0.5,0,0.157988
0.6,0.6,0,0.189541
0.6,0.7,0,0.220411
0.6,0.8,0,0.25128
0.6,0.9,0,0.28215
0.6,1,0,0.312947
0.6,1.1,0,0.343285
0.6,1.2,0,0.373465
0.6,1.3,0,0.403645
0.6,1.4,0,0.433825
0.6,1.5,0,0.463488
0.6,1.6,0,0.492097
0.6,1.7,0,0.520917
0.6,1.8,0,0.549737
0.6,1.9,0,0.578557
0.6,2,0,0.606701
0.6,2.1,0,0.633743
0.6,2.2,0,0.660479
0.6,2.3,0,0.687216
0.6,2.4,0,0.713953
0.6,2.5,0,0.740025
0.6,2.6,0,0.764857
0.6,2.7,0,0.789187
0.6,2.8,0,0.813517
0.6,2.9,0,0.837848
0.6,3,0,0.86125
0.6,3.1,0,0.883253
0.6,3.2,0,0.904862
0.6,3.3,0,0.926471
0.6,3.4,0,0.948081
0.6,3.5,0,0.967736
0.6,3.6,0,0.986894
0.6,3.7,0,1.00605
0.6,3.8,0,1.0252
0.6,3.9,0,1.04435
0.6,4,0,1.06059
0.6,4.1,0,1.07655
0.6,4.2,0,1.09251
0.6,4.3,0,1.10846
0.6,4.4,0,1.12431
0.6,4.5,0,1.13735
0.6,4.6,0,1.14975
0.6,4.7,0,1.16215
0.6,4.8,0,1.17455
0.6,4.9,0,1.18646
0.6,5,0,1.19567
0.6,5.1,0,1.20468
0.6,5.2,0,1.21369
0.6,5.3,0,1.2227
0.6,5.4,0,1.23088
0.6,5.5,0,1.23665
0.6,5.6,0,1.24196
0.6,5.7,0,1.24727
0.6,5.8,0,1.25258
0.6,5.9,0,1.25667
0.6,6,0,1.25859
0.6,6.1,0,1.26017
0.6,6.2,0,1.26176
0.6,6.3,0,1.26335
0.6,6.4,0,1.26286
0.6,6.5,0,1.26064
0.6,6.6,0,1.25874
0.6,6.7,0,1.25684
0.6,6.8,0,1.25494
0.6,6.9,0,1.25041
0.6,7,0,1.24454
0.6,7.1,0,1.23886
0.6,7.2,0,1.23318
0.6,7.3,0,1.2275
0.6,7.4,0,1.21906
0.6,7.5,0,1.20948
0.6,7.6,0,1.19988
0.6,7.7,0,1.19027
0.6,7.8,0,1.18066
0.6,7.9,0,1.16799
0.6,8,0,1.15542
0.6,8.1,0,1.14295
0.6,8.2,0,1.13048
0.6,8.3,0,1.11801
0.6,8.4,0,1.10182
0.6,8.5,0,1.08569
0.6,8.6,0,1.06955
0.6,8.7,0,1.05342
0.6,8.8,0,1.03704
0.6,8.9,0,1.01761
0.6,9,0,0.998413
0.6,9.1,0,0.979214
0.6,9.2,0,0.960014
0.6,9.3,0,0.940125
0.6,9.4,0,0.917622
0.6,9.5,0,0.896139
0.6,9.6,0,0.874657
0.6,9.7,0,0.853174
0.6,9.8,0,0.830479
0.6,9.9,0,0.805376
0.6,10,0,0.780924
0.6,10.1,0,0.756472
0.6,10.2,0,0.73202
0.6,10.3,0,0.706196
0.6,10.4,0,0.678971
0.6,10.5,0,0.652329
0.6,10.6,0,0.625686
0.6,10.7,0,0.599044
0.6,10.8,0,0.570873
0.6,10.9,0,0.54206
0.6,11,0,0.513748
0.6,11.1,0,0.485435
0.6,11.2,0,0.457123
0.6,11.3,0,0.42781
0.6,11.4,0,0.397984
0.6,11.5,0,0.368158
0.6,11.6,0,0.338332
0.6,11.7,0,0.308384
0.6,11.8,0,0.277784
0.6,11.9,0,0.24701
0.6,12,0,0.216237
0.6,12.1,0,0.185463
0.6,12.2,0,0.154877
0.6,12.3,0,0.123994
0.6,12.4,0,0.0930619
0.6,12.5,0,0.0621301
0.6,12.6,0,0.0311983
0.6,12.7,0,0
0.7,0,0,0
0.7,0.1,0,0.0322752
0.7,0.2,0,0.0645382
0.7,0.3,0,0.0959658
0.7,0.4,0,0.127393
0.7,0.5,0,0.158828
0.7,0.6,0,0.190419
0.7,0.7,0,0.221961
0.7,0.8,0,0.252831
0.7,0.9,0,0.283701
0.7,1,0,0.314506
0.7,1.1,0,0.344887
0.7,1.2,0,0.375219
0.7,1.3,0,0.405399
0.7,1.4,0,0.435579
0.7,1.5,0,0.465256
0.7,1.6,0,0.493746
0.7,1.7,0,0.522366
0.7,1.8,0,0.551186
0.7,1.9,0,0.580006
0.7,2,0,0.608162
0.7,2.1,0,0.63549
0.7,2.2,0,0.662518
0.7,2.3,0,0.689255
0.7,2.4,0,0.715992
0.7,2.5,0,0.742064
0.7,2.6,0,0.767649
0.7,2.7,0,0.792452
0.7,2.8,0,0.816782
0.7,2.9,0,0.841112
0.7,3,0,0.864515
0.7,3.1,0,0.887505
0.7,3.2,0,0.909475
0.7,3.3,0,0.931085
0.7,3.4,0,0.952694
0.7,3.5,0,0.97235
0.7,3.6,0,0.99154
0.7,3.7,0,1.0107
0.7,3.8,0,1.02985
0.7,3.9,0,1.049
0.7,4,0,1.06524
0.7,4.1,0,1.08125
0.7,4.2,0,1.0972
0.7,4.3,0,1.11316
0.7,4.4,0,1.12901
0.7,4.5,0,1.14209
0.7,4.6,0,1.15512
0.7,4.7,0,1.16752
0.7,4.8,0,1.17991
0.7,4.9,0,1.19183
0.7,5,0,1.20108
0.7,5.1,0,1.21028
0.7,5.2,0,1.21929
0.7,5.3,0,1.2283
0.7,5.4,0,1.23648
0.7,5.5,0,1.24244
0.7,5.6,0,1.24819
0.7,5.7,0,1.2535
0.7,5.8,0,1.25881
0.7,5.9,0,1.2629
0.7,6,0,1.26505
0.7,6.1,0,1.26695
0.7,6.2,0,1.26854
0.7,6.3,0,1.27012
0.7,6.4,0,1.26964
0.7,6.5,0,1.26708
0.7,6.6,0,1.26488
0.7,6.7,0,1.26298
0.7,6.8,0,1.26108
0.7,6.9,0,1.25654
0.7,7,0,1.25036
0.7,7.1,0,1.24451
0.7,7.2,0,1.23883
0.7,7.3,0,1.23315
0.7,7.4,0,1.2247
0.7,7.5,0,1.21524
0.7,7.6,0,1.20566
0.7,7.7,0,1.19605
0.7,7.8,0,1.18645
0.7,7.9,0,1.17378
0.7,8,0,1.16056
0.7,8.1,0,1.14801
0.7,8.2,0,1.13554
0.7,8.3,0,1.12306
0.7,8.4,0,1.10687
0.7,8.5,0,1.09054
0.7,8.6,0,1.07441
0.7,8.7,0,1.05827
0.7,8.8,0,1.04189
0.7,8.9,0,1.02244
0.7,9,0,1.00302
0.7,9.1,0,0.983825
0.7,9.2,0,0.964625
0.7,9.3,0,0.944736
0.7,9.4,0,0.921954
0.7,9.5,0,0.899481
0.7,9.6,0,0.877998
0.7,9.7,0,0.856516
0.7,9.8,0,0.83382
0.7,9.9,0,0.808396
0.7,10,0,0.783316
0.7,10.1,0,0.758864
0.7,10.2,0,0.734412
0.7,10.3,0,0.708588
0.7,10.4,0,0.680894
0.7,10.5,0,0.653693
0.7,10.6,0,0.62705
0.7,10.7,0,0.600408
0.7,10.8,0,0.572237
0.7,10.9,0,0.542755
0.7,11,0,0.513982
0.7,11.1,0,0.48567
0.7,11.2,0,0.457357
0.7,11.3,0,0.428034
0.7,11.4,0,0.398208
0.7,11.5,0,0.368382
0.7,11.6,0,0.338438
0.7,11.7,0,0.308449
0.7,11.8,0,0.27784
0.7,11.9,0,0.247067
0.7,12,0,0.216293
0.7,12.1,0,0.185702
0.7,12.2,0,0.155149
0.7,12.3,0,0.12426
0.7,12.4,0,0.0933284
0.7,12.5,0,0.0623965
0.7,12.6,0,0.0312037
0.7,12.7,0,0
0.8,0,0,0
0.8,0.1,0,0.0322752
0.8,0.2,0,0.0645504
0.8,0.3,0,0.0968073
0.8,0.4,0,0.128235
0.8,0.5,0,0.159669
0.8,0.6,0,0.191259
0.8,0.7,0,0.22285
0.8,0.8,0,0.254381
0.8,0.9,0,0.285251
0.8,1,0,0.316065
0.8,1.1,0,0.346446
0.8,1.2,0,0.376828
0.8,1.3,0,0.407154
0.8,1.4,0,0.437334
0.8,1.5,0,0.467023
0.8,1.6,0,0.495514
0.8,1.7,0,0.524004
0.8,1.8,0,0.552635
0.8,1.9,0,0.581455
0.8,2,0,0.609623
0.8,2.1,0,0.636951
0.8,2.2,0,0.66428
0.8,2.3,0,0.691294
0.8,2.4,0,0.718031
0.8,2.5,0,0.744103
0.8,2.6,0,0.769688
0.8,2.7,0,0.795272
0.8,2.8,0,0.820046
0.8,2.9,0,0.844376
0.8,3,0,0.867779
0.8,3.1,0,0.890769
0.8,3.2,0,0.91376
0.8,3.3,0,0.935698
0.8,3.4,0,0.957308
0.8,3.5,0,0.976963
0.8,3.6,0,0.996154
0.8,3.7,0,1.01534
0.8,3.8,0,1.0345
0.8,3.9,0,1.05365
0.8,4,0,1.0699
0.8,4.1,0,1.0859
0.8,4.2,0,1.1019
0.8,4.3,0,1.11786
0.8,4.4,0,1.1337
0.8,4.5,0,1.14679
0.8,4.6,0,1.15987
0.8,4.7,0,1.17289
0.8,4.8,0,1.18528
0.8,4.9,0,1.1972
0.8,5,0,1.20645
0.8,5.1,0,1.21569
0.8,5.2,0,1.22489
0.8,5.3,0,1.2339
0.8,5.4,0,1.24209
0.8,5.5,0,1.24804
0.8,5.6,0,1.25399
0.8,5.7,0,1.25973
0.8,5.8,0,1.26504
0.8,5.9,0,1.26913
0.8,6,0,1.27128
0.8,6.1,0,1.27342
0.8,6.2,0,1.27532
0.8,6.3,0,1.2769
0.8,6.4,0,1.27641
0.8,6.5,0,1.27386
0.8,6.6,0,1.2713
0.8,6.7,0,1.26911
0.8,6.8,0,1.26721
0.8,6.9,0,1.26268
0.8,7,0,1.25649
0.8,7.1,0,1.25031
0.8,7.2,0,1.24447
0.8,7.3,0,1.23879
0.8,7.4,0,1.23035
0.8,7.5,0,1.22088
0.8,7.6,0,1.21142
0.8,7.7,0,1.20184
0.8,7.8,0,1.19223
0.8,7.9,0,1.17957
0.8,8,0,1.16635
0.8,8.1,0,1.15313
0.8,8.2,0,1.14059
0.8,8.3,0,1.12812
0.8,8.4,0,1.11193
0.8,8.5,0,1.09559
0.8,8.6,0,1.07926
0.8,8.7,0,1.06313
0.8,8.8,0,1.04674
0.8,8.9,0,1.02729
0.8,9,0,1.00785
0.8,9.1,0,0.988436
0.8,9.2,0,0.969236
0.8,9.3,0,0.949347
0.8,9.4,0,0.926565
0.8,9.5,0,0.903782
0.8,9.6,0,0.88134
0.8,9.7,0,0.859857
0.8,9.8,0,0.837162
0.8,9.9,0,0.811738
0.8,10,0,0.786314
0.8,10.1,0,0.761256
0.8,10.2,0,0.736804
0.8,10.3,0,0.71098
0.8,10.4,0,0.683285
0.8,10.5,0,0.655591
0.8,10.6,0,0.628414
0.8,10.7,0,0.601772
0.8,10.8,0,0.5736
0.8,10.9,0,0.544119
0.8,11,0,0.514637
0.8,11.1,0,0.485904
0.8,11.2,0,0.457592
0.8,11.3,0,0.428258
0.8,11.4,0,0.398432
0.8,11.5,0,0.368491
0.8,11.6,0,0.338502
0.8,11.7,0,0.308513
0.8,11.8,0,0.277897
0.8,11.9,0,0.247123
0.8,12,0,0.216527
0.8,12.1,0,0.185975
0.8,12.2,0,0.155422
0.8,12.3,0,0.124527
0.8,12.4,0,0.0935948
0.8,12.5,0,0.0624074
0.8,12.6,0,0.0312037
0.8,12.7,0,0
0.9,0,0,0
0.9,0.1,0,0.0322752
0.9,0.2,0,0.0645504
0.9,0.3,0,0.0968256
0.9,0.4,0,0.129076
0.9,0.5,0,0.160509
0.9,0.6,0,0.1921
0.9,0.7,0,0.22369
0.9,0.8,0,0.255281
0.9,0.9,0,0.286801
0.9,1,0,0.317624
0.9,1.1,0,0.348005
0.9,1.2,0,0.378387
0.9,1.3,0,0.408769
0.9,1.4,0,0.439088
0.9,1.5,0,0.46879
0.9,1.6,0,0.497281
0.9,1.7,0,0.525772
0.9,1.8,0,0.554262
0.9,1.9,0,0.582904
0.9,2,0,0.611084
0.9,2.1,0,0.638412
0.9,2.2,0,0.665741
0.9,2.3,0,0.693069
0.9,2.4,0,0.72007
0.9,2.5,0,0.746142
0.9,2.6,0,0.771727
0.9,2.7,0,0.797311
0.9,2.8,0,0.822896
0.9,2.9,0,0.847641
0.9,3,0,0.871043
0.9,3.1,0,0.894034
0.9,3.2,0,0.917024
0.9,3.3,0,0.940014
0.9,3.4,0,0.961921
0.9,3.5,0,0.981577
0.9,3.6,0,1.00077
0.9,3.7,0,1.01996
0.9,3.8,0,1.03915
0.9,3.9,0,1.0583
0.9,4,0,1.07455
0.9,4.1,0,1.09055
0.9,4.2,0,1.10655
0.9,4.3,0,1.12256
0.9,4.4,0,1.1384
0.9,4.5,0,1.15149
0.9,4.6,0,1.16457
0.9,4.7,0,1.17766
0.9,4.8,0,1.19065
0.9,4.9,0,1.20257
0.9,5,0,1.21181
0.9,5.1,0,1.22106
0.9,5.2,0,1.23031
0.9,5.3,0,1.2395
0.9,5.4,0,1.24769
0.9,5.5,0,1.25364
0.9,5.6,0,1.25959
0.9,5.7,0,1.26555
0.9,5.8,0,1.27127
0.9,5.9,0,1.27536
0.9,6,0,1.27751
0.9,6.1,0,1.27965
0.9,6.2,0,1.2818
0.9,6.3,0,1.28368
0.9,6.4,0,1.28319
0.9,6.5,0,1.28063
0.9,6.6,0,1.27807
0.9,6.7,0,1.27552
0.9,6.8,0,1.27335
0.9,6.9,0,1.26881
0.9,7,0,1.26263
0.9,7.1,0,1.25645
0.9,7.2,0,1.25027
0.9,7.3,0,1.24444
0.9,7.4,0,1.23599
0.9,7.5,0,1.22653
0.9,7.6,0,1.21707
0.9,7.7,0,1.2076
0.9,7.8,0,1.19802
0.9,7.9,0,1.18536
0.9,8,0,1.17213
0.9,8.1,0,1.15891
0.9,8.2,0,1.14569
0.9,8.3,0,1.13317
0.9,8.4,0,1.11698
0.9,8.5,0,1.10065
0.9,8.6,0,1.08431
0.9,8.7,0,1.06798
0.9,8.8,0,1.05159
0.9,8.9,0,1.03215
0.9,9,0,1.0127
0.9,9.1,0,0.993253
0.9,9.2,0,0.973848
0.9,9.3,0,0.953959
0.9,9.4,0,0.931176
0.9,9.5,0,0.908394
0.9,9.6,0,0.885611
0.9,9.7,0,0.863199
0.9,9.8,0,0.840503
0.9,9.9,0,0.815079
0.9,10,0,0.789655
0.9,10.1,0,0.764231
0.9,10.2,0,0.739196
0.9,10.3,0,0.713372
0.9,10.4,0,0.685677
0.9,10.5,0,0.657983
0.9,10.6,0,0.630288
0.9,10.7,0,0.603136
0.9,10.8,0,0.574964
0.9,10.9,0,0.545483
0.9,11,0,0.516001
0.9,11.1,0,0.486519
0.9,11.2,0,0.457826
0.9,11.3,0,0.428482
0.9,11.4,0,0.398544
0.9,11.5,0,0.368555
0.9,11.6,0,0.338566
0.9,11.7,0,0.308577
0.9,11.8,0,0.277953
0.9,11.9,0,0.247352
0.9,12,0,0.2168
0.9,12.1,0,0.186247
0.9,12.2,0,0.155695
0.9,12.3,0,0.124793
0.9,12.4,0,0.0936111
0.9,12.5,0,0.0624074
0.9,12.6,0,0.0312037
0.9,12.7,0,0
1,0,0,0
1,0.1,0,0.0322752
1,0.2,0,0.0645504
1,0.3,0,0.0968256
1,0.4,0,0.129101
1,0.5,0,0.16135
1,0.6,0,0.19294
1,0.7,0,0.224531
1,0.8,0,0.256122
1,0.9,0,0.287712
1,1,0,0.319182
1,1.1,0,0.349564
1,1.2,0,0.379946
1,1.3,0,0.410327
1,1.4,0,0.440709
1,1.5,0,0.470557
1,1.6,0,0.499048
1,1.7,0,0.527539
1,1.8,0,0.55603
1,1.9,0,0.58452
1,2,0,0.612545
1,2.1,0,0.639873
1,2.2,0,0.667202
1,2.3,0,0.69453
1,2.4,0,0.721859
1,2.5,0,0.748181
1,2.6,0,0.773766
1,2.7,0,0.79935
1,2.8,0,0.824935
1,2.9,0,0.850519
1,3,0,0.874308
1,3.1,0,0.897298
1,3.2,0,0.920288
1,3.3,0,0.943279
1,3.4,0,0.966269
1,3.5,0,0.98619
1,3.6,0,1.00538
1,3.7,0,1.02457
1,3.8,0,1.04376
1,3.9,0,1.06295
1,4,0,1.0792
1,4.1,0,1.0952
1,4.2,0,1.1112
1,4.3,0,1.12721
1,4.4,0,1.1431
1,4.5,0,1.15618
1,4.6,0,1.16927
1,4.7,0,1.18235
1,4.8,0,1.19544
1,4.9,0,1.20794
1,5,0,1.21718
1,5.1,0,1.22643
1,5.2,0,1.23568
1,5.3,0,1.24493
1,5.4,0,1.25329
1,5.5,0,1.25924
1,5.6,0,1.2652
1,5.7,0,1.27115
1,5.8,0,1.2771
1,5.9,0,1.28159
1,6,0,1.28374
1,6.1,0,1.28588
1,6.2,0,1.28803
1,6.3,0,1.29018
1,6.4,0,1.28997
1,6.5,0,1.28741
1,6.6,0,1.28485
1,6.7,0,1.28229
1,6.8,0,1.27973
1,6.9,0,1.27495
1,7,0,1.26876
1,7.1,0,1.26258
1,7.2,0,1.2564
1,7.3,0,1.25022
1,7.4,0,1.24164
1,7.5,0,1.23218
1,7.6,0,1.22271
1,7.7,0,1.21325
1,7.8,0,1.20379
1,7.9,0,1.19114
1,8,0,1.17792
1,8.1,0,1.1647
1,8.2,0,1.15148
1,8.3,0,1.13826
1,8.4,0,1.12204
1,8.5,0,1.1057
1,8.6,0,1.08936
1,8.7,0,1.07302
1,8.8,0,1.05645
1,8.9,0,1.037
1,9,0,1.01755
1,9.1,0,0.998105
1,9.2,0,0.978658
1,9.3,0,0.95857
1,9.4,0,0.935788
1,9.5,0,0.913005
1,9.6,0,0.890223
1,9.7,0,0.86744
1,9.8,0,0.843845
1,9.9,0,0.818421
1,10,0,0.792997
1,10.1,0,0.767573
1,10.2,0,0.742149
1,10.3,0,0.715764
1,10.4,0,0.688069
1,10.5,0,0.660375
1,10.6,0,0.63268
1,10.7,0,0.604985
1,10.8,0,0.576328
1,10.9,0,0.546846
1,11,0,0.517365
1,11.1,0,0.487883
1,11.2,0,0.458401
1,11.3,0,0.428597
1,11.4,0,0.398608
1,11.5,0,0.368619
1,11.6,0,0.33863
1,11.7,0,0.308641
1,11.8,0,0.278178
1,11.9,0,0.247625
1,12,0,0.217072
1,12.1,0,0.18652
1,12.2,0,0.155967
1,12.3,0,0.124815
1,12.4,0,0.0936111
1,12.5,0,0.0624074
1,12.6,0,0.0312037
1,12.7,0,0
1.1,0,0,0
1.1,0.1,0,0.0322752
1.1,0.2,0,0.0645504
1.1,0.3,0,0.0968256
1.1,0.4,0,0.129113
1.1,0.5,0,0.16222
1.1,0.6,0,0.194978
1.1,0.7,0,0.226562
1.1,0.8,0,0.258146
1.1,0.9,0,0.289731
1.1,1,0,0.321329
1.1,1.1,0,0.352907
1.1,1.2,0,0.383277
1.1,1.3,0,0.413647
1.1,1.4,0,0.444016
1.1,1.5,0,0.474324
1.1,1.6,0,0.50387
1.1,1.7,0,0.532356
1.1,1.8,0,0.560843
1.1,1.9,0,0.589329
1.1,2,0,0.617795
1.1,2.1,0,0.645702
1.1,2.2,0,0.673099
1.1,2.3,0,0.700495
1.1,2.4,0,0.727892
1.1,2.5,0,0.75445
1.1,2.6,0,0.780179
1.1,2.7,0,0.805763
1.1,2.8,0,0.831348
1.1,2.9,0,0.856932
1.1,3,0,0.881051
1.1,3.1,0,0.904177
1.1,3.2,0,0.927167
1.1,3.3,0,0.950158
1.1,3.4,0,0.973148
1.1,3.5,0,0.99383
1.1,3.6,0,1.01318
1.1,3.7,0,1.03237
1.1,3.8,0,1.05156
1.1,3.9,0,1.07075
1.1,4,0,1.08768
1.1,4.1,0,1.10372
1.1,4.2,0,1.11973
1.1,4.3,0,1.13573
1.1,4.4,0,1.15163
1.1,4.5,0,1.16504
1.1,4.6,0,1.17812
1.1,4.7,0,1.19121
1.1,4.8,0,1.2043
1.1,4.9,0,1.21686
1.1,5,0,1.22646
1.1,5.1,0,1.23571
1.1,5.2,0,1.24496
1.1,5.3,0,1.25421
1.1,5.4,0,1.26257
1.1,5.5,0,1.26852
1.1,5.6,0,1.27447
1.1,5.7,0,1.28042
1.1,5.8,0,1.28638
1.1,5.9,0,1.29082
1.1,6,0,1.29289
1.1,6.1,0,1.29504
1.1,6.2,0,1.29719
1.1,6.3,0,1.29933
1.1,6.4,0,1.29917
1.1,6.5,0,1.29666
1.1,6.6,0,1.2941
1.1,6.7,0,1.29154
1.1,6.8,0,1.28898
1.1,6.9,0,1.28418
1.1,7,0,1.27798
1.1,7.1,0,1.2718
1.1,7.2,0,1.26562
1.1,7.3,0,1.25944
1.1,7.4,0,1.25069
1.1,7.5,0,1.24117
1.1,7.6,0,1.23171
1.1,7.7,0,1.22224
1.1,7.8,0,1.21278
1.1,7.9,0,1.19962
1.1,8,0,1.18632
1.1,8.1,0,1.1731
1.1,8.2,0,1.15988
1.1,8.3,0,1.14666
1.1,8.4,0,1.12963
1.1,8.5,0,1.11328
1.1,8.6,0,1.09694
1.1,8.7,0,1.08061
1.1,8.8,0,1.06396
1.1,8.9,0,1.0437
1.1,9,0,1.02425
1.1,9.1,0,1.00481
1.1,9.2,0,0.985358
1.1,9.3,0,0.965074
1.1,9.4,0,0.941492
1.1,9.5,0,0.918709
1.1,9.6,0,0.895927
1.1,9.7,0,0.873144
1.1,9.8,0,0.849305
1.1,9.9,0,0.823349
1.1,10,0,0.797925
1.1,10.1,0,0.772501
1.1,10.2,0,0.747077
1.1,10.3,0,0.720402
1.1,10.4,0,0.692338
1.1,10.5,0,0.664643
1.1,10.6,0,0.636948
1.1,10.7,0,0.609254
1.1,10.8,0,0.580568
1.1,10.9,0,0.551074
1.1,11,0,0.52158
1.1,11.1,0,0.492086
1.1,11.2,0,0.462333
1.1,11.3,0,0.432351
1.1,11.4,0,0.402332
1.1,11.5,0,0.372313
1.1,11.6,0,0.342294
1.1,11.7,0,0.31103
1.1,11.8,0,0.280324
1.1,11.9,0,0.24978
1.1,12,0,0.219236
1.1,12.1,0,0.188693
1.1,12.2,0,0.15733
1.1,12.3,0,0.12612
1.1,12.4,0,0.0949261
1.1,12.5,0,0.0637326
1.1,12.6,0,0.0325392
1.1,12.7,0,0
1.2,0,0,0
1.2,0.1,0,0.0322752
1.2,0.2,0,0.0645504
1.2,0.3,0,0.096835
1.2,0.4,0,0.129948
1.2,0.5,0,0.163057
1.2,0.6,0,0.195878
1.2,0.7,0,0.228617
1.2,0.8,0,0.260201
1.2,0.9,0,0.291785
1.2,1,0,0.323381
1.2,1.1,0,0.355168
1.2,1.2,0,0.386697
1.2,1.3,0,0.417067
1.2,1.4,0,0.447436
1.2,1.5,0,0.477749
1.2,1.6,0,0.507878
1.2,1.7,0,0.537397
1.2,1.8,0,0.565883
1.2,1.9,0,0.59437
1.2,2,0,0.622836
1.2,2.1,0,0.651271
1.2,2.2,0,0.67916
1.2,2.3,0,0.706557
1.2,2.4,0,0.733954
1.2,2.5,0,0.760512
1.2,2.6,0,0.786456
1.2,2.7,0,0.812176
1.2,2.8,0,0.837761
1.2,2.9,0,0.863345
1.2,3,0,0.887464
1.2,3.1,0,0.910931
1.2,3.2,0,0.934046
1.2,3.3,0,0.957037
1.2,3.4,0,0.980027
1.2,3.5,0,1.00071
1.2,3.6,0,1.02084
1.2,3.7,0,1.04017
1.2,3.8,0,1.05936
1.2,3.9,0,1.07855
1.2,4,0,1.09548
1.2,4.1,0,1.11222
1.2,4.2,0,1.12825
1.2,4.3,0,1.14425
1.2,4.4,0,1.16015
1.2,4.5,0,1.17358
1.2,4.6,0,1.18698
1.2,4.7,0,1.20007
1.2,4.8,0,1.21315
1.2,4.9,0,1.22571
1.2,5,0,1.23539
1.2,5.1,0,1.24499
1.2,5.2,0,1.25424
1.2,5.3,0,1.26348
1.2,5.4,0,1.27184
1.2,5.5,0,1.27779
1.2,5.6,0,1.28374
1.2,5.7,0,1.2897
1.2,5.8,0,1.29565
1.2,5.9,0,1.30009
1.2,6,0,1.30212
1.2,6.1,0,1.3042
1.2,6.2,0,1.30635
1.2,6.3,0,1.30849
1.2,6.4,0,1.30833
1.2,6.5,0,1.30587
1.2,6.6,0,1.30335
1.2,6.7,0,1.30079
1.2,6.8,0,1.29823
1.2,6.9,0,1.29342
1.2,7,0,1.28721
1.2,7.1,0,1.28102
1.2,7.2,0,1.27484
1.2,7.3,0,1.26866
1.2,7.4,0,1.25991
1.2,7.5,0,1.25022
1.2,7.6,0,1.2407
1.2,7.7,0,1.23124
1.2,7.8,0,1.22177
1.2,7.9,0,1.20862
1.2,8,0,1.19478
1.2,8.1,0,1.1815
1.2,8.2,0,1.16828
1.2,8.3,0,1.15505
1.2,8.4,0,1.13803
1.2,8.5,0,1.12086
1.2,8.6,0,1.10452
1.2,8.7,0,1.08819
1.2,8.8,0,1.07154
1.2,8.9,0,1.05119
1.2,9,0,1.03095
1.2,9.1,0,1.0115
1.2,9.2,0,0.992058
1.2,9.3,0,0.971773
1.2,9.4,0,0.947972
1.2,9.5,0,0.924413
1.2,9.6,0,0.901631
1.2,9.7,0,0.878848
1.2,9.8,0,0.855009
1.2,9.9,0,0.828791
1.2,10,0,0.802853
1.2,10.1,0,0.777429
1.2,10.2,0,0.752005
1.2,10.3,0,0.72533
1.2,10.4,0,0.696948
1.2,10.5,0,0.668912
1.2,10.6,0,0.641217
1.2,10.7,0,0.613522
1.2,10.8,0,0.584815
1.2,10.9,0,0.555321
1.2,11,0,0.525827
1.2,11.1,0,0.496081
1.2,11.2,0,0.466189
1.2,11.3,0,0.436205
1.2,11.4,0,0.406186
1.2,11.5,0,0.376167
1.2,11.6,0,0.344921