/*--------------------------------*- C++ -*----------------------------------*\
| =========                 |                                                 |
| \\      /  F ield         | OpenFOAM: The Open Source CFD Toolbox           |
|  \\    /   O peration     | Version:  v1806                                 |
|   \\  /    A nd           | Web:      www.OpenFOAM.com                      |
|    \\/     M anipulation  |                                                 |
\*---------------------------------------------------------------------------*/
FoamFile
{
    version     2.0;
    format      ascii;
    class       surfaceScalarField;
    location    "20";
    object      phi;
}
// * * * * * * * * * * * * * * * * * * * * * * * * * * * * * * * * * * * * * //

dimensions      [0 3 -1 0 0 0 0];
oriented        oriented;


internalField   nonuniform List<scalar> 
8600
(
0.0519621
-0.0702827
-0.0532277
0.0715483
0.043215
-0.0763164
0.0850636
0.0348866
-0.080254
0.0885824
0.0300573
-0.0831466
0.0879759
0.0275621
-0.0845853
0.0870805
0.0261558
-0.0850209
0.0864272
0.0253988
-0.0849332
0.0856902
0.0251417
-0.0845534
0.0848105
0.0252847
-0.0840012
0.0838581
0.0257654
-0.0833561
0.0828754
0.0265241
-0.0826683
0.0819096
0.0275502
-0.0819717
0.0809456
0.0287801
-0.0812907
0.0800608
0.0302601
-0.0806582
0.0791782
0.0318616
-0.0800688
0.0784672
0.0337689
-0.0795852
0.077678
0.0356738
-0.0792033
0.0772983
0.0379997
-0.0789757
0.0766498
0.0401927
-0.0789197
0.0767267
-0.0793106
0.0765395
0.0345512
-0.0641666
-0.0406673
0.0309009
-0.072666
0.0285472
-0.0779004
0.0267294
-0.0813288
0.0252583
-0.0831142
0.0241475
-0.08391
0.0234107
-0.0841965
0.0230341
-0.0841767
0.0229817
-0.0839488
0.0232119
-0.0835863
0.0236884
-0.0831447
0.0243849
-0.0826682
0.0252801
-0.0821859
0.0263551
-0.0817332
0.027602
-0.0813157
0.0290051
-0.0809884
0.0305541
-0.0807523
0.0322393
-0.0806608
0.0340721
-0.0807525
-0.0812762
0.0294071
-0.0644084
-0.0291654
0.0284904
-0.0717493
0.0268868
-0.0762967
0.0250092
-0.0794512
0.0234524
-0.0815575
0.0223655
-0.082823
0.02167
-0.083501
0.0212825
-0.0837892
0.0211513
-0.0838176
0.0212425
-0.0836775
0.0215294
-0.0834317
0.0219925
-0.0831313
0.0226146
-0.082808
0.023381
-0.0824996
0.0242828
-0.0822174
0.025306
-0.0820116
0.0264367
-0.081883
0.0276675
-0.0818916
0.0289983
-0.0820833
-0.0826286
0.0226597
-0.0663079
-0.0207601
0.0227375
-0.0718271
0.0223241
-0.0758833
0.0217363
-0.0788634
0.0211241
-0.0809453
0.0205881
-0.082287
0.02018
-0.0830929
0.0199243
-0.0835335
0.0198287
-0.083722
0.0198885
-0.0837373
0.0200928
-0.083636
0.0204293
-0.0834679
0.0208865
-0.0832652
0.0214518
-0.0830648
0.0221174
-0.082883
0.0228702
-0.0827644
0.0236948
-0.0827076
0.0245885
-0.0827853
0.0255132
-0.083008
-0.0835162
0.0187309
-0.06884
-0.0161988
0.0197597
-0.0728559
0.0200625
-0.0761862
0.0199279
-0.0787287
0.0195963
-0.0806137
0.0192591
-0.0819499
0.0190081
-0.0828419
0.0188694
-0.0833948
0.0188462
-0.0836988
0.018934
-0.0838251
0.0191274
-0.0838294
0.0194181
-0.0837585
0.0197986
-0.0836458
0.020258
-0.0835243
0.0207917
-0.0834166
0.0213824
-0.0833551
0.0220236
-0.0833488
0.0226951
-0.0834569
0.023359
-0.0836718
-0.0841035
0.0153029
-0.0713409
-0.012802
0.0166873
-0.0742403
0.0173678
-0.0768666
0.0176698
-0.0790308
0.0177697
-0.0807136
0.0177786
-0.0819588
0.0177701
-0.0828333
0.0177889
-0.0834137
0.0178609
-0.0837708
0.017999
-0.0839633
0.0182088
-0.0840391
0.0184887
-0.0840384
0.0188356
-0.0839926
0.019242
-0.0839307
0.0197027
-0.0838774
0.0202022
-0.0838546
0.0207348
-0.0838814
0.0212707
-0.0839928
0.021785
-0.0841861
-0.0845245
0.0128405
-0.0736372
-0.0105442
0.0143725
-0.0757724
0.0153201
-0.0778142
0.0158679
-0.0795786
0.0161643
-0.08101
0.016322
-0.0821165
0.0164231
-0.0829344
0.0165194
-0.0835099
0.0166401
-0.0838916
0.0168014
-0.0841245
0.0170114
-0.0842492
0.0172722
-0.0842991
0.017583
-0.0843034
0.0179394
-0.0842872
0.0183352
-0.0842732
0.0187588
-0.0842781
0.0192014
-0.0843241
0.0196356
-0.084427
0.0200456
-0.0845961
-0.0848456
0.0107625
-0.0756856
-0.00871398
0.0122533
-0.0772632
0.0132706
-0.0788315
0.0139382
-0.0802462
0.0143689
-0.0814407
0.0146507
-0.0823983
0.0148475
-0.0831312
0.0150054
-0.0836678
0.015156
-0.0840422
0.0153202
-0.0842888
0.0155107
-0.0844396
0.0157335
-0.0845219
0.0159907
-0.0845606
0.0162804
-0.0845769
0.0165968
-0.0845896
0.0169322
-0.0846135
0.0172753
-0.0846672
0.0176074
-0.084759
0.0179131
-0.0849018
-0.0850823
0.00908243
-0.0774674
-0.00730063
0.0104644
-0.0786452
0.0114782
-0.0798453
0.0121935
-0.0809615
0.0126854
-0.0819326
0.013022
-0.0827349
0.0132598
-0.083369
0.0134417
-0.0838497
0.0135985
-0.084199
0.0137511
-0.0844414
0.0139127
-0.0846012
0.014091
-0.0847002
0.0142893
-0.084759
0.0145072
-0.0847948
0.0147407
-0.084823
0.0149842
-0.0848571
0.0152271
-0.0849101
0.0154576
-0.0849895
0.01566
-0.0851041
-0.0852379
0.00767052
-0.0790177
-0.00612028
0.00892084
-0.0798955
0.00988239
-0.0808068
0.0105963
-0.0816755
0.0111148
-0.082451
0.0114883
-0.0831084
0.0117607
-0.0836414
0.0119673
-0.0840563
0.012135
-0.0843668
0.0122837
-0.0845901
0.0124268
-0.0847442
0.0125731
-0.0848465
0.0127269
-0.0849128
0.0128891
-0.084957
0.0130578
-0.0849917
0.0132287
-0.085028
0.0133937
-0.085075
0.0135445
-0.0851403
0.0136681
-0.0852277
-0.0853297
0.00651816
-0.0803576
-0.00517823
0.00763394
-0.0810113
0.00852553
-0.0816984
0.00921534
-0.0823653
0.00973679
-0.0829724
0.010126
-0.0834976
0.010417
-0.0839324
0.0106391
-0.0842784
0.010816
-0.0845437
0.0109656
-0.0847397
0.0111007
-0.0848793
0.0112299
-0.0849757
0.0113583
-0.0850411
0.0114877
-0.0850864
0.0116174
-0.0851215
0.0117445
-0.0851551
0.0118636
-0.0851941
0.0119679
-0.0852447
0.0120493
-0.0853091
-0.0853851
0.00553252
-0.0815167
-0.00437343
0.00651826
-0.081997
0.00732715
-0.0825073
0.00797142
-0.0830095
0.00847326
-0.0834743
0.00885881
-0.0838831
0.00915398
-0.0842276
0.00938214
-0.0845066
0.00956306
-0.0847246
0.00971244
-0.0848891
0.00984218
-0.0850091
0.00996069
-0.0850942
0.0100733
-0.0851537
0.0101826
-0.0851957
0.0102891
-0.085228
0.0103911
-0.0852571
0.0104853
-0.0852882
0.0105664
-0.0853258
0.0106297
-0.0853724
-0.0854249
0.00466764
-0.0825037
-0.00368063
0.00552113
-0.0828505
0.00623548
-0.0832217
0.0068168
-0.0835909
0.00727924
-0.0839367
0.00764119
-0.0842451
0.00792215
-0.0845085
0.00814069
-0.0847251
0.00831317
-0.0848971
0.00845318
-0.0850291
0.00857137
-0.0851273
0.00867557
-0.0851984
0.00877109
-0.0852492
0.00886104
-0.0852857
0.00894662
-0.0853136
0.00902722
-0.0853377
0.00910082
-0.0853618
0.00916418
-0.0853892
0.00921372
-0.0854219
-0.0854555
0.00388384
-0.0833328
-0.00305475
0.00460851
-0.0835752
0.00522321
-0.0838364
0.00573069
-0.0840983
0.00614016
-0.0843462
0.00646467
-0.0845696
0.0067188
-0.0847627
0.00691698
-0.0849233
0.00707237
-0.0850525
0.00719627
-0.085153
0.00729788
-0.0852289
0.00738418
-0.0852848
0.00746021
-0.0853252
0.00752916
-0.0853546
0.00759263
-0.085377
0.00765076
-0.0853958
0.00770259
-0.0854137
0.00774633
-0.0854329
0.00777916
-0.0854548
-0.0854759
0.00317775
-0.0840136
-0.00249695
0.00377817
-0.0841756
0.00429287
-0.0843511
0.00472266
-0.0845281
0.0050733
-0.0846968
0.00535383
-0.0848501
0.00557495
-0.0849838
0.00574764
-0.085096
0.0058823
-0.0851871
0.00598807
-0.0852587
0.00607261
-0.0853134
0.00614192
-0.0853541
0.00620048
-0.0853838
0.00625128
-0.0854055
0.00629603
-0.0854218
0.00633532
-0.0854351
0.00636886
-0.0854472
0.0063957
-0.0854597
0.00641422
-0.0854733
-0.0854869
0.00253215
-0.0845587
-0.00198698
0.00301589
-0.0846593
0.00343373
-0.0847689
0.00378554
-0.0848799
0.00407497
-0.0849863
0.00430832
-0.0850835
0.00449333
-0.0851688
0.00463824
-0.0852409
0.00475101
-0.0852999
0.00483885
-0.0853466
0.00490788
-0.0853824
0.00496309
-0.0854093
0.00500827
-0.0854289
0.00504607
-0.0854433
0.00507814
-0.0854539
0.0051053
-0.0854622
0.00512764
-0.0854696
0.00514468
-0.0854768
0.00515589
-0.0854845
-0.0854929
0.00193116
-0.0849749
-0.00151503
0.00230238
-0.0850306
0.00262483
-0.0850914
0.00289792
-0.085153
0.0031239
-0.0852123
0.00330705
-0.0852666
0.00345283
-0.0853146
0.00356719
-0.0853553
0.00365605
-0.0853887
0.00372484
-0.0854154
0.00377829
-0.0854359
0.00382032
-0.0854513
0.00385398
-0.0854626
0.0038815
-0.0854708
0.00390438
-0.0854767
0.00392344
-0.0854813
0.00393899
-0.0854851
0.00395092
-0.0854887
0.00395898
-0.0854926
-0.0854968
0.00135818
-0.0852681
-0.00106498
0.00162072
-0.0852931
0.0018491
-0.0853198
0.00204298
-0.0853469
0.00220381
-0.0853731
0.00233438
-0.0853972
0.00243835
-0.0854185
0.00251976
-0.0854367
0.0025827
-0.0854517
0.00263096
-0.0854636
0.00266793
-0.0854729
0.00269642
-0.0854798
0.00271869
-0.0854849
0.00273645
-0.0854885
0.00275086
-0.0854912
0.00276267
-0.0854931
0.00277224
-0.0854947
0.00277964
-0.0854961
0.00278464
-0.0854976
-0.0854991
0.000807949
-0.0854436
-0.000632467
0.00096371
-0.0854489
0.0010993
-0.0854553
0.00121448
-0.0854621
0.00131004
-0.0854686
0.00138753
-0.0854747
0.00144903
-0.08548
0.00149692
-0.0854846
0.0015336
-0.0854884
0.00156132
-0.0854914
0.00158213
-0.0854937
0.00159774
-0.0854954
0.00160954
-0.0854967
0.00161859
-0.0854976
0.00162564
-0.0854982
0.0016312
-0.0854987
0.00163555
-0.085499
0.00163878
-0.0854993
0.00164082
-0.0854996
-0.0854999
0.000269217
-0.000212776
0.000320357
0.000365014
0.00040292
0.000434278
0.000459593
0.00047956
0.000494965
0.000506611
0.000515259
0.00052159
0.000526184
0.00052951
0.000531933
0.000533719
0.000535046
0.000536024
0.0005367
0.000537078
-0.019694
-0.00484642
0.0245404
-0.0154627
-0.00423121
-0.0116468
-0.00381591
-0.00812575
-0.00352109
-0.00481631
-0.00330944
-0.00165509
-0.00316122
0.00140974
-0.00306483
0.00442303
-0.00301329
0.00742558
-0.00300254
0.0104562
-0.00303063
0.0135534
-0.00309723
0.0167569
-0.00320348
0.0201089
-0.003352
0.023656
-0.00354709
0.0274512
-0.0037952
0.0315565
-0.00410528
0.0360476
-0.00449111
0.0410257
-0.00497807
0.0466463
-0.00562063
-0.00658139
-0.0141967
-0.00708893
0.0164392
-0.0116154
-0.00681256
-0.0088556
-0.00657566
-0.00599548
-0.0063812
-0.00307662
-0.00622831
-0.000122284
-0.00611555
0.00285446
-0.00604158
0.0058464
-0.00600522
0.00884957
-0.00600572
0.0118617
-0.00604274
0.0148809
-0.00611646
0.017905
-0.00622758
0.0209304
-0.00637741
0.0239513
-0.00656795
0.0269581
-0.00680205
0.0299367
-0.00708381
0.0328647
-0.00741915
0.0357039
-0.00781727
0.0383781
-0.0082948
-0.00887061
-0.00763772
-0.0086528
0.00920159
-0.00593302
-0.00851727
-0.00410903
-0.00839964
-0.00218779
-0.00830244
-0.000188873
-0.00822722
0.00187058
-0.00817501
0.00397555
-0.00814654
0.00611269
-0.00814236
0.00826987
-0.00816291
0.0104357
-0.00820852
0.0125987
-0.00827949
0.0147472
-0.00837608
0.0168683
-0.00849853
0.0189474
-0.00864702
0.020967
-0.0088217
0.0229059
-0.00902272
0.0247371
-0.0092503
0.0264251
-0.00950524
0.0279206
-0.00979038
-0.0101153
-0.00448381
-0.00986078
0.00569178
-0.00321159
-0.00978949
-0.00188217
-0.00972906
-0.000503799
-0.00968082
0.000914811
-0.00964583
0.00236478
-0.00962498
0.00383719
-0.00961895
0.00532311
-0.00962828
0.00681358
-0.00965338
0.00829961
-0.00969455
0.00977209
-0.00975197
0.0112218
-0.00982576
0.0126391
-0.0099159
0.0140145
-0.0100223
0.0153376
-0.0101449
0.0165981
-0.0102832
0.017785
-0.0104371
0.0188861
-0.0106063
0.0198867
-0.010791
-0.0109888
-0.00264886
-0.010825
0.00361309
-0.0016519
-0.0107864
-0.000625521
-0.0107554
0.000426275
-0.0107326
0.00149896
-0.0107185
0.00258761
-0.0107136
0.00368697
-0.0107183
0.00479157
-0.0107329
0.00589569
-0.0107575
0.00699346
-0.0107923
0.00807882
-0.0108373
0.00914553
-0.0108925
0.0101872
-0.0109576
0.0111972
-0.0110324
0.0121689
-0.0111165
0.0130952
-0.0112095
0.0139689
-0.0113108
0.0147825
-0.01142
0.0155278
-0.0115363
-0.0116599
-0.00176636
-0.0115981
0.00253941
-0.000976087
-0.0115767
-0.000170816
-0.0115607
0.000646936
-0.0115504
0.00147439
-0.011546
0.00230853
-0.0115478
0.00314618
-0.011556
0.00398399
-0.0115707
0.00481853
-0.011592
0.0056463
-0.0116201
0.00646374
-0.0116548
0.00726732
-0.0116961
0.00805355
-0.0117438
0.00881898
-0.0117978
0.00956034
-0.0118579
0.0102745
-0.0119236
0.0109585
-0.0119948
0.0116096
-0.012071
0.0122252
-0.0121519
-0.0122366
-0.00119505
-0.012238
0.00183494
-0.000545852
-0.0122259
0.000111171
-0.0122177
0.000774364
-0.0122136
0.00144193
-0.0122135
0.00211196
-0.0122178
0.00278241
-0.0122264
0.00345117
-0.0122394
0.00411604
-0.0122569
0.0047748
-0.0122788
0.00542517
-0.0123051
0.00606489
-0.0123358
0.00669171
-0.0123706
0.00730342
-0.0124095
0.00789788
-0.0124523
0.00847303
-0.0124988
0.00902692
-0.0125487
0.00955776
-0.0126019
0.0100638
-0.012658
-0.012717
-0.000893563
-0.012765
0.00142065
-0.000361204
-0.0127583
0.000175361
-0.0127543
0.000714998
-0.0127532
0.0012565
-0.012755
0.00179861
-0.0127599
0.00234
-0.0127678
0.00287935
-0.0127788
0.00341528
-0.0127929
0.00394642
-0.01281
0.00447141
-0.0128301
0.00498888
-0.0128533
0.00549753
-0.0128793
0.00599611
-0.0129081
0.00648339
-0.0129396
0.00695827
-0.0129737
0.0074197
-0.0130102
0.00786672
-0.0130489
0.00829847
-0.0130898
-0.0131325
-0.000646628
-0.0132052
0.00108681
-0.000203514
-0.0132014
0.000241769
-0.0131996
0.000688415
-0.0131998
0.00113558
-0.0132022
0.00158241
-0.0132067
0.00202798
-0.0132134
0.0024714
-0.0132222
0.00291173
-0.0132332
0.00334804
-0.0132463
0.00377942
-0.0132615
0.00420495
-0.0132788
0.00462375
-0.0132981
0.00503496
-0.0133193
0.00543775
-0.0133424
0.00583137
-0.0133673
0.00621509
-0.0133939
0.00658824
-0.0134221
0.00695024
-0.0134518
-0.0134829
-0.000500127
-0.0135715
0.000866353
-0.00013217
-0.0135693
0.000236968
-0.0135687
0.000606718
-0.0135696
0.000976494
-0.013572
0.00134569
-0.0135759
0.00171371
-0.0135814
0.00207992
-0.0135884
0.00244371
-0.013597
0.00280446
-0.013607
0.00316156
-0.0136186
0.00351443
-0.0136316
0.00386247
-0.0136461
0.00420513
-0.013662
0.00454188
-0.0136791
0.00487221
-0.0136976
0.00519565
-0.0137173
0.00551175
-0.0137382
0.00582009
-0.0137601
-0.0137831
-0.000386859
-0.0138801
0.000695484
-7.72808e-05
-0.0138789
0.000232847
-0.0138788
0.000543109
-0.0138799
0.000853079
-0.013882
0.00116233
-0.0138852
0.00147041
-0.0138895
0.00177689
-0.0138949
0.00208133
-0.0139014
0.00238329
-0.013909
0.00268235
-0.0139177
0.00297807
-0.0139274
0.00327006
-0.0139381
0.0035579
-0.0139498
0.00384123
-0.0139625
0.00411968
-0.0139761
0.00439291
-0.0139905
0.00466061
-0.0140059
0.00492247
-0.014022
-0.0140389
-0.00031825
-0.0141396
0.000577754
-5.81765e-05
-0.014139
0.000202167
-0.0141392
0.000462478
-0.0141402
0.000722445
-0.0141419
0.000981757
-0.0141445
0.0012401
-0.0141478
0.00149716
-0.014152
0.00175261
-0.0141569
0.00200616
-0.0141626
0.0022575
-0.014169
0.00250632
-0.0141762
0.00275233
-0.0141841
0.00299525
-0.0141927
0.0032348
-0.014202
0.00347074
-0.014212
0.00370279
-0.0142226
0.00393074
-0.0142338
0.00415435
-0.0142456
-0.014258
-0.000255912
-0.0143574
0.000473737
-3.77863e-05
-0.0143571
0.000180415
-0.0143574
0.000398461
-0.0143582
0.000616121
-0.0143596
0.000833162
-0.0143615
0.00104935
-0.014364
0.00126444
-0.0143671
0.00147822
-0.0143706
0.00169045
-0.0143748
0.0019009
-0.0143794
0.00210935
-0.0143846
0.00231558
-0.0143903
0.00251939
-0.0143965
0.00272058
-0.0144032
0.00291894
-0.0144104
0.0031143
-0.014418
0.00330648
-0.014426
0.00349532
-0.0144344
-0.0144433
-0.00020546
-0.0145375
0.000385525
-2.52229e-05
-0.0145374
0.000155016
-0.0145376
0.000335086
-0.0145383
0.000514811
-0.0145393
0.000694019
-0.0145407
0.000872534
-0.0145425
0.00105018
-0.0145447
0.00122679
-0.0145473
0.00140219
-0.0145502
0.00157622
-0.0145535
0.0017487
-0.0145571
0.00191948
-0.0145611
0.00208839
-0.0145655
0.0022553
-0.0145701
0.00242005
-0.0145751
0.0025825
-0.0145804
0.00274252
-0.014586
0.00289997
-0.0145919
-0.0145981
-0.000159654
-0.0146842
0.00030637
-1.28592e-05
-0.0146842
0.000133884
-0.0146844
0.000280447
-0.0146848
0.000426697
-0.0146856
0.000572504
-0.0146865
0.000717737
-0.0146878
0.000862265
-0.0146892
0.00100596
-0.014691
0.00114869
-0.0146929
0.00129034
-0.0146951
0.00143077
-0.0146976
0.00156987
-0.0147002
0.00170753
-0.0147031
0.00184362
-0.0147062
0.00197804
-0.0147095
0.00211068
-0.0147131
0.00224145
-0.0147168
0.00237024
-0.0147207
-0.0147248
-0.000122906
-0.0148006
0.000239283
-6.49274e-06
-0.0148006
0.000109861
-0.0148007
0.000226058
-0.014801
0.000342002
-0.0148015
0.000457594
-0.0148021
0.000572739
-0.0148029
0.00068734
-0.0148038
0.000801301
-0.0148049
0.000914527
-0.0148061
0.00102693
-0.0148075
0.00113841
-0.014809
0.00124888
-0.0148107
0.00135826
-0.0148125
0.00146646
-0.0148144
0.00157339
-0.0148165
0.00167899
-0.0148186
0.00178316
-0.0148209
0.00188585
-0.0148234
-0.0148259
-8.95146e-05
-0.0148891
0.00017802
-1.00213e-06
-0.0148891
8.74473e-05
-0.0148892
0.000175763
-0.0148894
0.000263876
-0.0148896
0.000351714
-0.01489
0.000439208
-0.0148904
0.000526288
-0.0148909
0.000612885
-0.0148915
0.000698931
-0.0148922
0.000784359
-0.0148929
0.000869103
-0.0148938
0.000953099
-0.0148947
0.00103628
-0.0148957
0.0011186
-0.0148967
0.00119997
-0.0148978
0.00128036
-0.014899
0.0013597
-0.0149003
0.00143794
-0.0149016
-0.014903
-5.96369e-05
-0.0149511
0.000121657
2.38176e-06
-0.0149511
6.43509e-05
-0.0149511
0.000126223
-0.0149512
0.000187949
-0.0149513
0.000249483
-0.0149515
0.000310776
-0.0149517
0.000371781
-0.0149519
0.000432452
-0.0149522
0.000492741
-0.0149525
0.000552604
-0.0149528
0.000611996
-0.0149532
0.000670872
-0.0149536
0.00072919
-0.014954
0.000786907
-0.0149544
0.00084398
-0.0149549
0.000900369
-0.0149554
0.000956031
-0.0149559
0.00101092
-0.0149565
-0.0149571
-3.26739e-05
-0.0149878
6.93957e-05
4.04205e-06
-0.0149878
4.07236e-05
-0.0149878
7.73426e-05
-0.0149878
0.000113871
-0.0149879
0.00015028
-0.0149879
0.000186542
-0.014988
0.000222629
-0.014988
0.000258514
-0.0149881
0.000294168
-0.0149881
0.000329566
-0.0149882
0.00036468
-0.0149883
0.000399485
-0.0149884
0.000433956
-0.0149885
0.000468068
-0.0149886
0.000501797
-0.0149886
0.000535118
-0.0149887
0.000568007
-0.0149888
0.000600435
-0.0149889
-0.0149891
-9.68147e-06
2.18653e-05
2.50088e-06
1.46728e-05
2.68259e-05
3.89518e-05
5.10421e-05
6.30886e-05
7.50834e-05
8.70188e-05
9.88876e-05
0.000110683
0.000122398
0.000134029
0.00014557
0.000157018
0.00016837
0.000179628
0.000190791
0.000201866
-0.0325801
-0.0109959
0.0109236
0.0326524
-0.0325037
-0.0108324
0.010756
-0.0324381
-0.0106667
0.0106011
-0.0323899
-0.0105021
0.0104539
-0.0323639
-0.0103385
0.0103126
-0.0323635
-0.0101758
0.0101754
-0.0323894
-0.0100136
0.0100395
-0.0324394
-0.00985069
0.00990072
-0.0325075
-0.00968546
0.00975356
-0.0325829
-0.00951516
0.00959051
-0.0326489
-0.00933591
0.00940197
-0.0326824
-0.00914235
0.00917582
-0.032652
-0.00892734
0.00889696
-0.0325171
-0.00868157
0.00854666
-0.0322252
-0.0083932
0.00810132
-0.0317075
-0.00804753
0.00752977
-0.0308684
-0.00762695
0.00678791
-0.0295703
-0.00710942
0.00581132
-0.0276077
-0.00646093
0.00449831
-0.00563215
0.0025648
-0.0259989
-0.0112867
0.0262897
-0.0256919
-0.0111395
-0.0253683
-0.0109903
-0.0250334
-0.010837
-0.0246923
-0.0106795
-0.0243506
-0.0105176
-0.0240131
-0.010351
-0.0236843
-0.0101795
-0.0233673
-0.0100025
-0.023063
-0.00981952
-0.022769
-0.0096299
-0.0224786
-0.00943266
-0.0221794
-0.00922658
-0.0218509
-0.00901008
-0.0214629
-0.00878123
-0.0209726
-0.00853779
-0.0203222
-0.00827734
-0.019434
-0.00799765
-0.0181961
-0.00769881
-0.00738904
-0.0226093
-0.0115759
0.0228985
-0.0222899
-0.0114588
-0.021943
-0.0113372
-0.0215669
-0.0112131
-0.0211601
-0.0110863
-0.0207211
-0.0109566
-0.0202483
-0.0108238
-0.01974
-0.0106878
-0.0191943
-0.0105481
-0.0186091
-0.0104048
-0.0179814
-0.0102575
-0.0173079
-0.0101062
-0.0165835
-0.00995092
-0.0158019
-0.00979175
-0.014954
-0.00962907
-0.0140283
-0.00946352
-0.0130095
-0.00929608
-0.0118789
-0.00912827
-0.0106152
-0.00896254
-0.00880262
-0.0182035
-0.0119045
0.0185321
-0.0178572
-0.0118051
-0.0174895
-0.011705
-0.0170992
-0.0116034
-0.0166849
-0.0115006
-0.0162449
-0.0113966
-0.0157773
-0.0112915
-0.0152796
-0.0111854
-0.0147493
-0.0110785
-0.0141832
-0.0109709
-0.0135779
-0.0108628
-0.0129296
-0.0107545
-0.0122342
-0.0106463
-0.0114875
-0.0105385
-0.0106848
-0.0104317
-0.00982179
-0.0103265
-0.00889409
-0.0102238
-0.00789791
-0.0101245
-0.00683059
-0.0100299
-0.00994143
-0.0155822
-0.012267
0.0159447
-0.0151974
-0.0121899
-0.014791
-0.0121113
-0.0143623
-0.0120321
-0.0139104
-0.0119525
-0.0134343
-0.0118726
-0.0129332
-0.0117926
-0.012406
-0.0117126
-0.0118516
-0.0116329
-0.0112689
-0.0115536
-0.0106567
-0.0114751
-0.0100136
-0.0113976
-0.00933829
-0.0113216
-0.00862942
-0.0112474
-0.00788564
-0.0111755
-0.00710577
-0.0111064
-0.00628884
-0.0110407
-0.00543427
-0.010979
-0.0045421
-0.010922
-0.0108704
-0.0130939
-0.0126241
0.013451
-0.0127214
-0.0125624
-0.0123319
-0.0125009
-0.0119246
-0.0124394
-0.0114989
-0.0123782
-0.0110541
-0.0123174
-0.0105897
-0.0122571
-0.0101048
-0.0121974
-0.00959898
-0.0121387
-0.0090715
-0.0120811
-0.00852183
-0.0120247
-0.00794948
-0.01197
-0.00735405
-0.011917
-0.00673525
-0.0118662
-0.00609295
-0.0118178
-0.00542721
-0.0117722
-0.00473829
-0.0117296
-0.00402673
-0.0116906
-0.00329338
-0.0116554
-0.0116244
-0.0113295
-0.0129749
0.0116803
-0.0109643
-0.0129277
-0.0105848
-0.0128803
-0.0101909
-0.0128333
-0.00978236
-0.0127868
-0.00935886
-0.0127409
-0.00892024
-0.0126957
-0.00846631
-0.0126514
-0.00799694
-0.0126081
-0.007512
-0.012566
-0.00701146
-0.0125253
-0.0064953
-0.0124861
-0.00596361
-0.0124487
-0.00541656
-0.0124133
-0.00485439
-0.01238
-0.00427749
-0.0123491
-0.00368637
-0.0123208
-0.00308166
-0.0122953
-0.0024642
-0.0122728
-0.0122537
-0.00963146
-0.0132971
0.00995365
-0.0092988
-0.0132603
-0.00895506
-0.013224
-0.00860011
-0.0131883
-0.0082338
-0.0131531
-0.00785607
-0.0131186
-0.00746683
-0.0130849
-0.00706607
-0.0130521
-0.00665381
-0.0130204
-0.0062301
-0.0129897
-0.00579505
-0.0129603
-0.00534885
-0.0129323
-0.00489171
-0.0129058
-0.00442394
-0.012881
-0.00394591
-0.012858
-0.00345807
-0.0128369
-0.00296096
-0.0128179
-0.0024552
-0.012801
-0.00194149
-0.0127865
-0.0127745
-0.00822956
-0.0135905
0.00852296
-0.00792718
-0.0135627
-0.007616
-0.0135352
-0.00729602
-0.0135083
-0.00696726
-0.0134819
-0.00662977
-0.0134561
-0.0062836
-0.0134311
-0.00592884
-0.0134069
-0.00556563
-0.0133836
-0.00519413
-0.0133612
-0.00481451
-0.0133399
-0.00442703
-0.0133198
-0.00403196
-0.0133009
-0.00362961
-0.0132834
-0.00322035
-0.0132673
-0.00280461
-0.0132526
-0.00238284
-0.0132396
-0.00195556
-0.0132283
-0.00152335
-0.0132188
-0.013211
-0.0069725
-0.0138508
0.00723284
-0.00670556
-0.0138296
-0.00643187
-0.0138089
-0.00615145
-0.0137887
-0.00586435
-0.013769
-0.00557065
-0.0137498
-0.00527045
-0.0137313
-0.00496385
-0.0137135
-0.004651
-0.0136964
-0.00433207
-0.0136801
-0.00400726
-0.0136647
-0.00367679
-0.0136503
-0.00334091
-0.0136368
-0.00299992
-0.0136244
-0.00265412
-0.0136131
-0.00230387
-0.0136029
-0.00194954
-0.013594
-0.00159154
-0.0135863
-0.00123033
-0.01358
-0.013575
-0.00596409
-0.014082
0.00619533
-0.00572742
-0.0140663
-0.00548546
-0.0140509
-0.00523829
-0.0140359
-0.00498598
-0.0140213
-0.00472864
-0.0140072
-0.00446639
-0.0139936
-0.00419936
-0.0139805
-0.0039277
-0.0139681
-0.00365157
-0.0139563
-0.00337116
-0.0139452
-0.00308668
-0.0139348
-0.00279836
-0.0139251
-0.00250643
-0.0139163
-0.00221117
-0.0139083
-0.00191286
-0.0139012
-0.0016118
-0.013895
-0.00130832
-0.0138898
-0.00100276
-0.0138855
-0.0138823
-0.00507977
-0.0142844
0.00528215
-0.00487333
-0.0142727
-0.00466281
-0.0142614
-0.00444829
-0.0142504
-0.00422984
-0.0142397
-0.00400757
-0.0142294
-0.00378158
-0.0142195
-0.00355199
-0.0142101
-0.00331893
-0.0142011
-0.00308255
-0.0141926
-0.00284301
-0.0141847
-0.00260048
-0.0141773
-0.00235515
-0.0141705
-0.00210722
-0.0141642
-0.00185689
-0.0141586
-0.00160441
-0.0141537
-0.00134999
-0.0141494
-0.0010939
-0.0141459
-0.000836399
-0.014143
-0.0141409
-0.00430233
-0.0144594
0.00447733
-0.00412402
-0.0144511
-0.00394251
-0.0144429
-0.00375787
-0.014435
-0.0035702
-0.0144274
-0.00337958
-0.01442
-0.00318611
-0.014413
-0.0029899
-0.0144063
-0.00279107
-0.0144
-0.00258974
-0.014394
-0.00238606
-0.0143884
-0.00218016
-0.0143832
-0.0019722
-0.0143784
-0.00176235
-0.0143741
-0.00155078
-0.0143702
-0.00133768
-0.0143668
-0.00112322
-0.0143639
-0.000907603
-0.0143615
-0.00069104
-0.0143596
-0.0143582
-0.00357853
-0.0146074
0.00372649
-0.00342808
-0.0146015
-0.00327515
-0.0145958
-0.00311982
-0.0145903
-0.00296215
-0.014585
-0.00280223
-0.01458
-0.00264014
-0.0145751
-0.00247597
-0.0145705
-0.00230981
-0.0145661
-0.00214178
-0.014562
-0.00197197
-0.0145582
-0.00180052
-0.0145546
-0.00162754
-0.0145514
-0.00145316
-0.0145485
-0.00127752
-0.0145458
-0.00110076
-0.0145436
-0.000923026
-0.0145416
-0.000744471
-0.01454
-0.00056525
-0.0145388
-0.014538
-0.00292716
-0.01473
0.00304978
-0.00280257
-0.0147261
-0.00267606
-0.0147223
-0.00254769
-0.0147187
-0.00241754
-0.0147152
-0.00228566
-0.0147118
-0.00215212
-0.0147086
-0.00201701
-0.0147056
-0.0018804
-0.0147027
-0.00174237
-0.0147
-0.00160303
-0.0146975
-0.00146246
-0.0146952
-0.00132075
-0.0146931
-0.00117803
-0.0146912
-0.00103438
-0.0146895
-0.000889929
-0.014688
-0.000744781
-0.0146868
-0.000599058
-0.0146858
-0.00045288
-0.014685
-0.0146845
-0.00232893
-0.0148286
0.00242752
-0.00222888
-0.0148262
-0.00212739
-0.0148238
-0.0020245
-0.0148216
-0.00192027
-0.0148194
-0.00181475
-0.0148174
-0.00170799
-0.0148154
-0.00160006
-0.0148135
-0.00149102
-0.0148118
-0.00138093
-0.0148101
-0.00126986
-0.0148086
-0.00115789
-0.0148072
-0.0010451
-0.0148059
-0.000931553
-0.0148047
-0.00081734
-0.0148037
-0.000702544
-0.0148028
-0.000587251
-0.0148021
-0.000471549
-0.0148015
-0.000355529
-0.014801
-0.0148007
-0.00177366
-0.0149043
0.00184934
-0.00169689
-0.0149029
-0.00161905
-0.0149017
-0.00154019
-0.0149005
-0.00146035
-0.0148993
-0.00137956
-0.0148982
-0.00129788
-0.0148971
-0.00121534
-0.0148961
-0.001132
-0.0148951
-0.00104791
-0.0148942
-0.000963111
-0.0148934
-0.000877669
-0.0148926
-0.000791636
-0.0148919
-0.000705071
-0.0148913
-0.000618036
-0.0148907
-0.000530591
-0.0148903
-0.000442801
-0.0148899
-0.000354731
-0.0148895
-0.000266448
-0.0148893
-0.0148891
-0.00124242
-0.0149575
0.00129571
-0.00118835
-0.014957
-0.00113354
-0.0149565
-0.00107803
-0.014956
-0.00102184
-0.0149555
-0.000965011
-0.014955
-0.000907566
-0.0149545
-0.000849542
-0.0149541
-0.000790972
-0.0149537
-0.000731891
-0.0149533
-0.000672336
-0.0149529
-0.000612346
-0.0149526
-0.000551958
-0.0149523
-0.000491213
-0.014952
-0.000430153
-0.0149518
-0.000368821
-0.0149516
-0.00030726
-0.0149514
-0.000245516
-0.0149513
-0.000183633
-0.0149512
-0.0149511
-0.000733608
-0.0149892
0.000765268
-0.000701564
-0.014989
-0.000669077
-0.014989
-0.000636169
-0.0149889
-0.000602858
-0.0149888
-0.000569164
-0.0149887
-0.000535107
-0.0149886
-0.000500707
-0.0149885
-0.000465984
-0.0149884
-0.00043096
-0.0149883
-0.000395657
-0.0149882
-0.000360098
-0.0149882
-0.000324307
-0.0149881
-0.000288308
-0.014988
-0.000252127
-0.014988
-0.000215788
-0.0149879
-0.000179319
-0.0149879
-0.000142746
-0.0149879
-0.000106096
-0.0149878
-0.0149878
-0.000243831
0.000254632
-0.00023288
-0.000221844
-0.000210717
-0.000199496
-0.000188179
-0.000176768
-0.000165264
-0.00015367
-0.000141992
-0.000130233
-0.000118399
-0.000106497
-9.45331e-05
-8.25142e-05
-7.04479e-05
-5.83418e-05
-4.62038e-05
-3.40422e-05
-0.00343371
-0.00202149
0.0054552
-0.00247005
-0.00096366
-0.0018998
-0.000570251
-0.00149957
-0.000400229
-0.00119088
-0.00030869
-0.00094085
-0.000250028
-0.000733309
-0.000207541
-0.000559361
-0.000173949
-0.000413639
-0.000145721
-0.000292642
-0.000120997
-0.000193904
-9.87381e-05
-0.000115539
-7.83651e-05
-5.59542e-05
-5.95849e-05
-1.36524e-05
-4.23018e-05
1.29354e-05
-2.65879e-05
2.55776e-05
-1.26422e-05
2.65272e-05
-9.49711e-07
1.87725e-05
7.75471e-06
7.28773e-06
1.14848e-05
7.28777e-06
-0.00704304
-0.0036385
0.00866006
-0.00568709
-0.00231962
-0.00461716
-0.00164017
-0.00376111
-0.00125628
-0.00305807
-0.00101173
-0.00246872
-0.000839378
-0.00196854
-0.000707715
-0.00154201
-0.000600483
-0.00117899
-0.000508743
-0.000872628
-0.000427357
-0.000618036
-0.00035333
-0.000411412
-0.000284989
-0.000249452
-0.000221544
-0.000128905
-0.000162849
-4.62173e-05
-0.000109276
2.85396e-06
-6.17135e-05
2.36943e-05
-2.17901e-05
2.33464e-05
8.10265e-06
1.10826e-05
2.37486e-05
1.83703e-05
-0.00874302
-0.00490309
0.0100076
-0.00744957
-0.00361307
-0.00627811
-0.00281163
-0.00525525
-0.00227914
-0.00436714
-0.00189985
-0.00359433
-0.00161218
-0.00292056
-0.00138149
-0.00233368
-0.00118736
-0.00182503
-0.0010174
-0.00138842
-0.000863968
-0.00101927
-0.000722475
-0.000713898
-0.000590365
-0.000468877
-0.000466566
-0.000280574
-0.000351152
-0.000144687
-0.000245163
-5.58217e-05
-0.000150579
-7.13228e-06
-7.04795e-05
1.03477e-05
-9.37734e-06
7.84977e-06
2.62466e-05
2.62201e-05
-0.00941759
-0.00592234
0.0104368
-0.00828801
-0.00474266
-0.0071822
-0.00391744
-0.00615392
-0.00330742
-0.00521759
-0.00283617
-0.00437305
-0.00245672
-0.00361583
-0.00213872
-0.00294099
-0.0018622
-0.0023444
-0.00161398
-0.0018229
-0.00138547
-0.00137401
-0.00117136
-0.000995575
-0.000968797
-0.000685288
-0.000776853
-0.00044024
-0.0005962
-0.000256492
-0.00042891
-0.000128668
-0.000278403
-4.95841e-05
-0.000149564
-9.95505e-06
-4.90065e-05
1.85079e-06
1.44408e-05
2.80709e-05
-0.00958044
-0.00676298
0.0104211
-0.00861517
-0.00570793
-0.00762392
-0.00490869
-0.00665922
-0.00427212
-0.00574619
-0.00374921
-0.00489597
-0.00330694
-0.00411313
-0.00292155
-0.00339946
-0.00257588
-0.0027557
-0.00225774
-0.00218235
-0.00195883
-0.00167976
-0.00167395
-0.00124803
-0.00140053
-0.000886696
-0.00113819
-0.000594347
-0.00088855
-0.000368218
-0.000655039
-0.000203818
-0.000442804
-9.46093e-05
-0.000258772
-3.18385e-05
-0.000111777
-4.56383e-06
-1.28339e-05
2.35071e-05
-0.00950894
-0.00746907
0.010215
-0.00868361
-0.00653325
-0.00780947
-0.00578283
-0.00692987
-0.00515171
-0.00607113
-0.00460795
-0.00524912
-0.00412895
-0.00447363
-0.00369704
-0.00375112
-0.00329838
-0.00308632
-0.00292253
-0.00248304
-0.00256211
-0.00194447
-0.00221253
-0.00147318
-0.00187181
-0.00107093
-0.00154044
-0.000738269
-0.00122121