x,y,z,U_0,U_1,U_2
0,0,0,0.300003,-8.68169e-05,0
0,0.1,0,0.300002,-5.20902e-05,0
0,0.2,0,0.300001,-1.73634e-05,0
0,0.3,0,0.3,0,0
0,0.4,0,0.3,0,0
0,0.5,0,0.3,0,0
0,0.6,0,0.3,0,0
0,0.7,0,0.3,0,0
0,0.8,0,0.3,0,0
0,0.9,0,0.3,0,0
0,1,0,0.3,0,0
0,1.1,0,0.3,0,0
0,1.2,0,0.3,0,0
0,1.3,0,0.3,0,0
0,1.4,0,0.3,0,0
0,1.5,0,0.3,0,0
0,1.6,0,0.3,0,0
0,1.7,0,0.3,0,0
0,1.8,0,0.3,0,0
0,1.9,0,0.3,0,0
0,2,0,0.3,0,0
0,2.1,0,0.3,0,0
0,2.2,0,0.3,0,0
0,2.3,0,0.3,0,0
0,2.4,0,0.3,0,0
0,2.5,0,0.3,0,0
0,2.6,0,0.3,0,0
0,2.7,0,0.3,0,0
0,2.8,0,0.3,0,0
0,2.9,0,0.3,0,0
0,3,0,0.3,0,0
0,3.1,0,0.3,0,0
0,3.2,0,0.3,0,0
0,3.3,0,0.3,0,0
0,3.4,0,0.3,0,0
0,3.5,0,0.3,0,0
0,3.6,0,0.3,0,0
0,3.7,0,0.3,0,0
0,3.8,0,0.3,0,0
0,3.9,0,0.3,0,0
0,4,0,0.3,0,0
0,4.1,0,0.3,0,0
0,4.2,0,0.3,0,0
0,4.3,0,0.3,0,0
0,4.4,0,0.3,0,0
0,4.5,0,0.3,0,0
0,4.6,0,0.3,0,0
0,4.7,0,0.3,0,0
0,4.8,0,0.3,0,0
0,4.9,0,0.3,0,0
0,5,0,0.3,0,0
0,5.1,0,0.3,0,0
0,5.2,0,0.3,0,0
0,5.3,0,0.3,0,0
0,5.4,0,0.3,0,0
0,5.5,0,0.3,0,0
0,5.6,0,0.3,0,0
0,5.7,0,0.3,0,0
0,5.8,0,0.3,0,0
0,5.9,0,0.3,0,0
0,6,0,0.3,0,0
0,6.1,0,0.3,0,0
0,6.2,0,0.3,0,0
0,6.3,0,0.3,0,0
0,6.4,0,0.3,0,0
0,6.5,0,0.3,0,0
0,6.6,0,0.3,0,0
0,6.7,0,0.3,0,0
0,6.8,0,0.3,0,0
0,6.9,0,0.3,0,0
0,7,0,0.3,0,0
0,7.1,0,0.3,0,0
0,7.2,0,0.3,0,0
0,7.3,0,0.3,0,0
0,7.4,0,0.3,0,0
0,7.5,0,0.3,0,0
0,7.6,0,0.3,0,0
0,7.7,0,0.3,0,0
0,7.8,0,0.3,0,0
0,7.9,0,0.3,0,0
0,8,0,0.3,0,0
0,8.1,0,0.3,0,0
0,8.2,0,0.3,0,0
0,8.3,0,0.3,0,0
0,8.4,0,0.3,0,0
0,8.5,0,0.3,0,0
0,8.6,0,0.3,0,0
0,8.7,0,0.3,0,0
0,8.8,0,0.3,0,0
0,8.9,0,0.3,0,0
0,9,0,0.3,0,0
0,9.1,0,0.3,0,0
0,9.2,0,0.3,0,0
0,9.3,0,0.3,0,0
0,9.4,0,0.3,0,0
0,9.5,0,0.3,0,0
0,9.6,0,0.3,0,0
0,9.7,0,0.3,0,0
0,9.8,0,0.3,0,0
0,9.9,0,0.3,0,0
0,10,0,0.3,0,0
0,10.1,0,0.3,0,0
0,10.2,0,0.3,0,0
0,10.3,0,0.3,0,0
0,10.4,0,0.3,0,0
0,10.5,0,0.3,0,0
0,10.6,0,0.3,0,0
0,10.7,0,0.3,0,0
0,10.8,0,0.3,0,0
0,10.9,0,0.3,0,0
0,11,0,0.3,0,0
0,11.1,0,0.3,0,0
0,11.2,0,0.3,0,0
0,11.3,0,0.3,0,0
0,11.4,0,0.3,0,0
0,11.5,0,0.3,0,0
0,11.6,0,0.3,0,0
0,11.7,0,0.3,0,0
0,11.8,0,0.3,0,0
0,11.9,0,0.3,0,0
0,12,0,0.3,0,0
0,12.1,0,0.3,0,0
0,12.2,0,0.3,0,0
0,12.3,0,0.3,0,0
0,12.4,0,0.3,0,0
0,12.5,0,0.300001,4.5049e-06,0
0,12.6,0,0.300002,9.80479e-06,0
0,12.7,0,0.300003,1.51047e-05,0
0.1,0,0,0.300002,-0.000140039,0
0.1,0.1,0,0.300003,-8.83134e-05,0
0.1,0.2,0,0.300002,-5.35866e-05,0
0.1,0.3,0,0.300001,-4.62219e-05,0
0.1,0.4,0,0.300001,-4.62219e-05,0
0.1,0.5,0,0.299999,-6.29531e-05,0
0.1,0.6,0,0.300001,-4.58466e-05,0
0.1,0.7,0,0.300001,-4.58466e-05,0
0.1,0.8,0,0.300001,-4.53344e-05,0
0.1,0.9,0,0.300001,-4.53344e-05,0
0.1,1,0,0.299999,-6.15271e-05,0
0.1,1.1,0,0.300001,-4.4704e-05,0
0.1,1.2,0,0.300001,-4.4704e-05,0
0.1,1.3,0,0.300001,-4.39774e-05,0
0.1,1.4,0,0.300001,-4.39774e-05,0
0.1,1.5,0,0.299998,-5.91597e-05,0
0.1,1.6,0,0.300001,-4.31828e-05,0
0.1,1.7,0,0.300001,-4.31828e-05,0
0.1,1.8,0,0.3,-4.23565e-05,0
0.1,1.9,0,0.3,-4.23565e-05,0
0.1,2,0,0.299998,-5.58528e-05,0
0.1,2.1,0,0.299999,-4.15461e-05,0
0.1,2.2,0,0.299999,-4.15461e-05,0
0.1,2.3,0,0.299997,-4.08127e-05,0
0.1,2.4,0,0.299997,-4.08127e-05,0
0.1,2.5,0,0.299997,-5.16088e-05,0
0.1,2.6,0,0.299995,-4.02334e-05,0
0.1,2.7,0,0.299995,-4.02334e-05,0
0.1,2.8,0,0.299991,-3.99009e-05,0
0.1,2.9,0,0.299991,-3.99009e-05,0
0.1,3,0,0.299998,-4.64241e-05,0
0.1,3.1,0,0.299985,-3.99205e-05,0
0.1,3.2,0,0.299985,-3.99205e-05,0
0.1,3.3,0,0.299979,-4.03972e-05,0
0.1,3.4,0,0.299979,-4.03972e-05,0
0.1,3.5,0,0.299999,-4.02776e-05,0
0.1,3.6,0,0.299973,-4.14195e-05,0
0.1,3.7,0,0.299973,-4.14195e-05,0
0.1,3.8,0,0.299967,-4.30313e-05,0
0.1,3.9,0,0.299967,-4.30313e-05,0
0.1,4,0,0.300001,-3.31529e-05,0
0.1,4.1,0,0.299962,-4.51901e-05,0
0.1,4.2,0,0.299962,-4.51901e-05,0
0.1,4.3,0,0.29996,-4.77544e-05,0
0.1,4.4,0,0.29996,-4.77544e-05,0
0.1,4.5,0,0.300001,-2.50976e-05,0
0.1,4.6,0,0.299961,-5.05819e-05,0
0.1,4.7,0,0.299961,-5.05819e-05,0
0.1,4.8,0,0.299968,-5.33814e-05,0
0.1,4.9,0,0.299968,-5.33814e-05,0
0.1,5,0,0.3,-1.73533e-05,0
0.1,5.1,0,0.299999,-1.50824e-05,0
0.1,5.2,0,0.299998,-1.35967e-05,0
0.1,5.3,0,0.299998,-1.2105e-05,0
0.1,5.4,0,0.299997,-1.06135e-05,0
0.1,5.5,0,0.299996,-9.12541e-06,0
0.1,5.6,0,0.299995,-7.64373e-06,0
0.1,5.7,0,0.299994,-6.17124e-06,0
0.1,5.8,0,0.299993,-4.71044e-06,0
0.1,5.9,0,0.299992,-3.26329e-06,0
0.1,6,0,0.299992,-1.83171e-06,0
0.1,6.1,0,0.299991,-4.16706e-07,0
0.1,6.2,0,0.29999,9.80794e-07,0
0.1,6.3,0,0.299989,2.36038e-06,0
0.1,6.4,0,0.299989,3.72188e-06,0
0.1,6.5,0,0.299988,5.06565e-06,0
0.1,6.6,0,0.299988,6.39218e-06,0
0.1,6.7,0,0.299988,7.70229e-06,0
0.1,6.8,0,0.299988,8.99718e-06,0
0.1,6.9,0,0.299988,1.02743e-05,0
0.1,7,0,0.299988,1.23499e-05,0
0.1,7.1,0,0.300084,-1.49451e-05,0
0.1,7.2,0,0.300084,-1.49451e-05,0
0.1,7.3,0,0.300027,3.65765e-06,0
0.1,7.4,0,0.300073,-1.15321e-05,0
0.1,7.5,0,0.300073,-1.15321e-05,0
0.1,7.6,0,0.30005,-5.94969e-06,0
0.1,7.7,0,0.300057,-9.10144e-06,0
0.1,7.8,0,0.300057,-9.10144e-06,0
0.1,7.9,0,0.300038,-8.04896e-06,0
0.1,8,0,0.300038,-8.04896e-06,0
0.1,8.1,0,0.300038,-8.04896e-06,0
0.1,8.2,0,0.30002,-8.20256e-06,0
0.1,8.3,0,0.30002,-8.20256e-06,0
0.1,8.4,0,0.300014,2.73182e-06,0
0.1,8.5,0,0.300005,-9.08391e-06,0
0.1,8.6,0,0.300005,-9.08391e-06,0
0.1,8.7,0,0.3,2.47004e-05,0
0.1,8.8,0,0.299995,-1.01749e-05,0
0.1,8.9,0,0.299995,-1.01749e-05,0
0.1,9,0,0.299997,3.49829e-05,0
0.1,9.1,0,0.29999,-1.10113e-05,0
0.1,9.2,0,0.29999,-1.10113e-05,0
0.1,9.3,0,0.299992,1.21187e-05,0
0.1,9.4,0,0.299988,-1.12661e-05,0
0.1,9.5,0,0.299988,-1.12661e-05,0
0.1,9.6,0,0.299988,-1.07844e-05,0
0.1,9.7,0,0.299988,-1.07844e-05,0
0.1,9.8,0,0.299988,-1.07844e-05,0
0.1,9.9,0,0.29999,-9.56871e-06,0
0.1,10,0,0.29999,-9.56871e-06,0
0.1,10.1,0,0.29999,-9.56871e-06,0
0.1,10.2,0,0.299992,-7.73504e-06,0
0.1,10.3,0,0.299992,-7.73504e-06,0
0.1,10.4,0,0.299994,1.86434e-05,0
0.1,10.5,0,0.299994,-5.46285e-06,0
0.1,10.6,0,0.299994,-5.46285e-06,0
0.1,10.7,0,0.299996,4.98416e-05,0
0.1,10.8,0,0.299996,-2.94878e-06,0
0.1,10.9,0,0.299996,-2.94878e-06,0
0.1,11,0,0.299997,4.27869e-05,0
0.1,11.1,0,0.299997,-3.86784e-07,0
0.1,11.2,0,0.299997,-3.86784e-07,0
0.1,11.3,0,0.299998,1.74003e-05,0
0.1,11.4,0,0.299998,2.02837e-06,0
0.1,11.5,0,0.299998,2.02837e-06,0
0.1,11.6,0,0.299999,4.16494e-06,0
0.1,11.7,0,0.299999,4.16494e-06,0
0.1,11.8,0,0.299999,4.16494e-06,0
0.1,11.9,0,0.3,5.92153e-06,0
0.1,12,0,0.3,5.92153e-06,0
0.1,12.1,0,0.3,1.21275e-05,0
0.1,12.2,0,0.300001,7.206e-06,0
0.1,12.3,0,0.300001,7.206e-06,0
0.1,12.4,0,0.3,3.92638e-05,0
0.1,12.5,0,0.300002,1.07678e-05,0
0.1,12.6,0,0.300003,1.60676e-05,0
0.1,12.7,0,0.300002,7.86582e-05,0
0.2,0,0,0.300001,-0.000193261,0
0.2,0.1,0,0.300004,-0.000124537,0
0.2,0.2,0,0.300002,-9.79369e-05,0
0.2,0.3,0,0.300002,-9.75713e-05,0
0.2,0.4,0,0.300003,-9.24438e-05,0
0.2,0.5,0,0.299998,-0.000125906,0
0.2,0.6,0,0.300003,-9.16932e-05,0
0.2,0.7,0,0.300002,-9.66466e-05,0
0.2,0.8,0,0.300002,-9.57758e-05,0
0.2,0.9,0,0.300003,-9.06687e-05,0
0.2,1,0,0.299997,-0.000123054,0
0.2,1.1,0,0.300003,-8.9408e-05,0
0.2,1.2,0,0.300002,-9.41351e-05,0
0.2,1.3,0,0.300001,-9.28999e-05,0
0.2,1.4,0,0.300002,-8.79548e-05,0
0.2,1.5,0,0.299996,-0.000118319,0
0.2,1.6,0,0.300002,-8.63656e-05,0
0.2,1.7,0,0.300001,-9.06979e-05,0
0.2,1.8,0,0.3,-8.92931e-05,0
0.2,1.9,0,0.3,-8.47129e-05,0
0.2,2,0,0.299995,-0.000111706,0
0.2,2.1,0,0.299999,-8.30922e-05,0
0.2,2.2,0,0.299998,-8.67828e-05,0
0.2,2.3,0,0.299995,-8.5536e-05,0
0.2,2.4,0,0.299995,-8.16254e-05,0
0.2,2.5,0,0.299995,-0.000103218,0
0.2,2.6,0,0.299989,-8.04668e-05,0
0.2,2.7,0,0.29999,-8.31373e-05,0
0.2,2.8,0,0.299983,-8.25721e-05,0
0.2,2.9,0,0.299981,-7.98019e-05,0
0.2,3,0,0.299996,-9.28482e-05,0
0.2,3.1,0,0.299971,-7.98409e-05,0
0.2,3.2,0,0.299975,-8.09067e-05,0
0.2,3.3,0,0.299964,-8.17171e-05,0
0.2,3.4,0,0.299959,-8.07944e-05,0
0.2,3.5,0,0.299998,-8.05551e-05,0
0.2,3.6,0,0.299946,-8.28391e-05,0
0.2,3.7,0,0.299954,-8.1464e-05,0
0.2,3.8,0,0.299943,-8.4204e-05,0
0.2,3.9,0,0.299933,-8.60626e-05,0
0.2,4,0,0.300001,-6.63057e-05,0
0.2,4.1,0,0.299924,-9.03802e-05,0
0.2,4.2,0,0.299936,-8.55944e-05,0
0.2,4.3,0,0.299932,-8.99536e-05,0
0.2,4.4,0,0.29992,-9.55087e-05,0
0.2,4.5,0,0.300002,-5.01952e-05,0
0.2,4.6,0,0.299923,-0.000101164,0
0.2,4.7,0,0.299935,-9.22144e-05,0
0.2,4.8,0,0.299946,-9.69736e-05,0
0.2,4.9,0,0.299936,-0.000106763,0
0.2,5,0,0.3,-3.47067e-05,0
0.2,5.1,0,0.299998,-3.01647e-05,0
0.2,5.2,0,0.299997,-2.71935e-05,0
0.2,5.3,0,0.299996,-2.421e-05,0
0.2,5.4,0,0.299994,-2.12271e-05,0
0.2,5.5,0,0.299992,-1.82508e-05,0
0.2,5.6,0,0.29999,-1.52875e-05,0
0.2,5.7,0,0.299989,-1.23425e-05,0
0.2,5.8,0,0.299987,-9.42088e-06,0
0.2,5.9,0,0.299985,-6.52659e-06,0
0.2,6,0,0.299983,-3.66341e-06,0
0.2,6.1,0,0.299981,-8.33412e-07,0
0.2,6.2,0,0.29998,1.96159e-06,0
0.2,6.3,0,0.299979,4.72076e-06,0
0.2,6.4,0,0.299977,7.44376e-06,0
0.2,6.5,0,0.299976,1.01313e-05,0
0.2,6.6,0,0.299976,1.27844e-05,0
0.2,6.7,0,0.299975,1.54046e-05,0
0.2,6.8,0,0.299975,1.79944e-05,0
0.2,6.9,0,0.299975,2.05485e-05,0
0.2,7,0,0.299976,2.46998e-05,0
0.2,7.1,0,0.300168,-2.98902e-05,0
0.2,7.2,0,0.300168,-2.98902e-05,0
0.2,7.3,0,0.300016,1.96118e-05,0
0.2,7.4,0,0.300146,-2.30642e-05,0
0.2,7.5,0,0.300146,-2.30642e-05,0
0.2,7.6,0,0.300041,1.48905e-05,0
0.2,7.7,0,0.300113,-1.82029e-05,0
0.2,7.8,0,0.300091,-5.71329e-06,0
0.2,7.9,0,0.300046,6.05646e-06,0
0.2,8,0,0.300076,-1.60979e-05,0
0.2,8.1,0,0.300041,1.48345e-05,0
0.2,8.2,0,0.300035,-8.30347e-06,0
0.2,8.3,0,0.30004,-1.64051e-05,0
0.2,8.4,0,0.300011,3.75127e-05,0
0.2,8.5,0,0.300011,-1.81678e-05,0
0.2,8.6,0,0.300011,-1.81678e-05,0
0.2,8.7,0,0.299998,6.37592e-05,0
0.2,8.8,0,0.299991,-2.03497e-05,0
0.2,8.9,0,0.299991,-2.03497e-05,0
0.2,9,0,0.299995,7.80267e-05,0
0.2,9.1,0,0.299979,-2.20226e-05,0
0.2,9.2,0,0.299979,-2.20226e-05,0
0.2,9.3,0,0.29999,5.88063e-05,0
0.2,9.4,0,0.299976,-2.25321e-05,0
0.2,9.5,0,0.299976,-1.87723e-05,0
0.2,9.6,0,0.299986,3.6517e-05,0
0.2,9.7,0,0.299976,-2.15688e-05,0
0.2,9.8,0,0.299981,1.08192e-05,0
0.2,9.9,0,0.299984,1.2632e-05,0
0.2,10,0,0.29998,-1.91374e-05,0
0.2,10.1,0,0.299987,4.3006e-05,0
0.2,10.2,0,0.299985,-1.15918e-05,0
0.2,10.3,0,0.299984,-1.54701e-05,0
0.2,10.4,0,0.299991,7.6281e-05,0
0.2,10.5,0,0.299988,-1.09257e-05,0
0.2,10.6,0,0.299988,-1.09257e-05,0
0.2,10.7,0,0.299993,0.000109376,0
0.2,10.8,0,0.299992,-5.89755e-06,0
0.2,10.9,0,0.299992,-5.89755e-06,0
0.2,11,0,0.299994,0.000103923,0
0.2,11.1,0,0.299994,-7.73567e-07,0
0.2,11.2,0,0.299994,-7.73567e-07,0
0.2,11.3,0,0.299995,7.9856e-05,0
0.2,11.4,0,0.299996,4.05675e-06,0
0.2,11.5,0,0.299996,1.69999e-05,0
0.2,11.6,0,0.299997,5.62212e-05,0
0.2,11.7,0,0.299998,8.32988e-06,0
0.2,11.8,0,0.299997,4.79013e-05,0
0.2,11.9,0,0.299999,3.28437e-05,0
0.2,12,0,0.3,1.18431e-05,0
0.2,12.1,0,0.299998,7.70058e-05,0
0.2,12.2,0,0.300002,1.4412e-05,0
0.2,12.3,0,0.300002,1.4412e-05,0
0.2,12.4,0,0.299999,0.000104479,0
0.2,12.5,0,0.300003,1.70306e-05,0
0.2,12.6,0,0.300005,2.23305e-05,0
0.2,12.7,0,0.300001,0.000142212,0
0.3,0,0,0.300001,-0.000246483,0
0.3,0.1,0,0.300005,-0.00016076,0
0.3,0.2,0,0.300002,-0.000161251,0
0.3,0.3,0,0.300002,-0.000160885,0
0.3,0.4,0,0.300004,-0.000138666,0
0.3,0.5,0,0.299998,-0.000188859,0
0.3,0.6,0,0.300004,-0.00013754,0
0.3,0.7,0,0.300001,-0.000159005,0
0.3,0.8,0,0.300001,-0.000158134,0
0.3,0.9,0,0.300004,-0.000136003,0
0.3,1,0,0.299996,-0.000184581,0
0.3,1.1,0,0.300004,-0.000134112,0
0.3,1.2,0,0.3,-0.000154596,0
0.3,1.3,0,0.3,-0.000153361,0
0.3,1.4,0,0.300004,-0.000131932,0
0.3,1.5,0,0.299994,-0.000177479,0
0.3,1.6,0,0.300003,-0.000129548,0
0.3,1.7,0,0.299999,-0.000148321,0
0.3,1.8,0,0.299997,-0.000146917,0
0.3,1.9,0,0.300001,-0.000127069,0
0.3,2,0,0.299993,-0.000167558,0
0.3,2.1,0,0.299998,-0.000124638,0
0.3,2.2,0,0.299996,-0.000140631,0
0.3,2.3,0,0.299992,-0.000139384,0
0.3,2.4,0,0.299992,-0.000122438,0
0.3,2.5,0,0.299992,-0.000154826,0
0.3,2.6,0,0.299984,-0.0001207,0
0.3,2.7,0,0.299988,-0.000132272,0
0.3,2.8,0,0.299981,-0.000131707,0
0.3,2.9,0,0.299972,-0.000119703,0
0.3,3,0,0.299994,-0.000139272,0
0.3,3.1,0,0.299956,-0.000119761,0
0.3,3.2,0,0.299973,-0.00012438,0
0.3,3.3,0,0.299963,-0.00012519,0
0.3,3.4,0,0.299938,-0.000121192,0
0.3,3.5,0,0.299997,-0.000120833,0
0.3,3.6,0,0.299919,-0.000124259,0
0.3,3.7,0,0.299954,-0.0001183,0
0.3,3.8,0,0.299943,-0.00012104,0
0.3,3.9,0,0.2999,-0.000129094,0
0.3,4,0,0.300001,-9.94586e-05,0
0.3,4.1,0,0.299886,-0.00013557,0
0.3,4.2,0,0.299937,-0.000114832,0
0.3,4.3,0,0.299933,-0.000119191,0
0.3,4.4,0,0.299879,-0.000143263,0
0.3,4.5,0,0.300003,-7.52928e-05,0
0.3,4.6,0,0.299884,-0.000151746,0
0.3,4.7,0,0.299935,-0.000112965,0
0.3,4.8,0,0.299947,-0.000117724,0
0.3,4.9,0,0.299905,-0.000160144,0
0.3,5,0,0.3,-5.206e-05,0
0.3,5.1,0,0.299997,-4.52471e-05,0
0.3,5.2,0,0.299995,-4.07902e-05,0
0.3,5.3,0,0.299993,-3.6315e-05,0
0.3,5.4,0,0.299991,-3.18406e-05,0
0.3,5.5,0,0.299988,-2.73762e-05,0
0.3,5.6,0,0.299986,-2.29312e-05,0
0.3,5.7,0,0.299983,-1.85137e-05,0
0.3,5.8,0,0.29998,-1.41313e-05,0
0.3,5.9,0,0.299977,-9.78988e-06,0
0.3,6,0,0.299975,-5.49512e-06,0
0.3,6.1,0,0.299972,-1.25012e-06,0
0.3,6.2,0,0.29997,2.94238e-06,0
0.3,6.3,0,0.299968,7.08115e-06,0
0.3,6.4,0,0.299966,1.11656e-05,0
0.3,6.5,0,0.299965,1.51969e-05,0
0.3,6.6,0,0.299964,1.91765e-05,0
0.3,6.7,0,0.299963,2.31069e-05,0
0.3,6.8,0,0.299963,2.69915e-05,0
0.3,6.9,0,0.299963,3.08228e-05,0
0.3,7,0,0.299964,3.70497e-05,0
0.3,7.1,0,0.300251,-4.43565e-05,0
0.3,7.2,0,0.300209,-3.04699e-05,0
0.3,7.3,0,0.300005,3.55659e-05,0
0.3,7.4,0,0.30022,-3.45963e-05,0
0.3,7.5,0,0.300145,-5.06367e-06,0
0.3,7.6,0,0.300032,3.57307e-05,0
0.3,7.7,0,0.30017,-2.73043e-05,0
0.3,7.8,0,0.300084,1.99124e-05,0
0.3,7.9,0,0.30004,3.16822e-05,0
0.3,8,0,0.300114,-2.41469e-05,0
0.3,8.1,0,0.300037,4.51147e-05,0
0.3,8.2,0,0.30003,2.19768e-05,0
0.3,8.3,0,0.30006,-2.46077e-05,0
0.3,8.4,0,0.300008,7.22936e-05,0
0.3,8.5,0,0.30001,6.22405e-06,0
0.3,8.6,0,0.300016,-2.72517e-05,0
0.3,8.7,0,0.299996,0.000102818,0
0.3,8.8,0,0.299987,-1.49771e-05,0
0.3,8.9,0,0.299986,-2.16548e-05,0
0.3,9,0,0.299994,0.00012107,0
0.3,9.1,0,0.299969,-3.30339e-05,0
0.3,9.2,0,0.299974,2.39524e-06,0
0.3,9.3,0,0.299988,0.000105494,0
0.3,9.4,0,0.299963,-3.37982e-05,0
0.3,9.5,0,0.299974,3.11936e-05,0
0.3,9.6,0,0.299983,8.64828e-05,0
0.3,9.7,0,0.299965,-3.23532e-05,0
0.3,9.8,0,0.299979,6.36938e-05,0
0.3,9.9,0,0.299981,6.55067e-05,0
0.3,10,0,0.29997,-2.87061e-05,0
0.3,10.1,0,0.299984,9.84313e-05,0
0.3,10.2,0,0.299982,4.38335e-05,0
0.3,10.3,0,0.299977,-2.32051e-05,0
0.3,10.4,0,0.299988,0.000133919,0
0.3,10.5,0,0.299984,2.23573e-05,0
0.3,10.6,0,0.299982,-1.63885e-05,0
0.3,10.7,0,0.29999,0.00016891,0
0.3,10.8,0,0.299987,1.56749e-06,0
0.3,10.9,0,0.299988,1.13909e-05,0
0.3,11,0,0.299991,0.000165058,0
0.3,11.1,0,0.299991,-1.16035e-06,0
0.3,11.2,0,0.299991,4.67985e-05,0
0.3,11.3,0,0.299992,0.000142312,0
0.3,11.4,0,0.299994,6.08512e-06,0
0.3,11.5,0,0.299994,8.05085e-05,0
0.3,11.6,0,0.299995,0.00011973,0
0.3,11.7,0,0.299997,1.24948e-05,0
0.3,11.8,0,0.299996,0.000112215,0
0.3,11.9,0,0.299997,9.71571e-05,0
0.3,12,0,0.3,1.77646e-05,0
0.3,12.1,0,0.299997,0.000141884,0
0.3,12.2,0,0.300001,7.42313e-05,0
0.3,12.3,0,0.300003,2.1618e-05,0
0.3,12.4,0,0.299998,0.000169695,0
0.3,12.5,0,0.300004,5.07013e-05,0
0.3,12.6,0,0.300006,2.95985e-05,0
0.3,12.7,0,0.3,0.000205765,0
0.4,0,0,0.3,-0.000299706,0
0.4,0.1,0,0.300005,-0.000207182,0
0.4,0.2,0,0.300001,-0.000224564,0
0.4,0.3,0,0.300001,-0.000224199,0
0.4,0.4,0,0.300004,-0.000194926,0
0.4,0.5,0,0.299997,-0.000251812,0
0.4,0.6,0,0.300004,-0.00019365,0
0.4,0.7,0,0.3,-0.000221363,0
0.4,0.8,0,0.3,-0.000220492,0
0.4,0.9,0,0.300004,-0.000191053,0
0.4,1,0,0.299994,-0.000246108,0
0.4,1.1,0,0.300004,-0.00018891,0
0.4,1.2,0,0.299998,-0.000215057,0
0.4,1.3,0,0.299998,-0.000213822,0
0.4,1.4,0,0.300003,-0.000185019,0
0.4,1.5,0,0.299992,-0.000236639,0
0.4,1.6,0,0.300002,-0.000182317,0
0.4,1.7,0,0.299996,-0.000205945,0
0.4,1.8,0,0.299995,-0.00020454,0
0.4,1.9,0,0.299999,-0.000177524,0
0.4,2,0,0.29999,-0.000223411,0
0.4,2.1,0,0.299996,-0.000174768,0
0.4,2.2,0,0.299993,-0.000194478,0
0.4,2.3,0,0.29999,-0.000193232,0
0.4,2.4,0,0.29999,-0.000169728,0
0.4,2.5,0,0.29999,-0.000206435,0
0.4,2.6,0,0.29998,-0.000167759,0
0.4,2.7,0,0.299985,-0.000181407,0
0.4,2.8,0,0.299979,-0.000180842,0
0.4,2.9,0,0.299967,-0.000163518,0
0.4,3,0,0.299992,-0.000185696,0
0.4,3.1,0,0.299949,-0.000163584,0
0.4,3.2,0,0.299972,-0.000167853,0
0.4,3.3,0,0.299961,-0.000168663,0
0.4,3.4,0,0.299929,-0.000161517,0
0.4,3.5,0,0.299996,-0.00016111,0
0.4,3.6,0,0.299907,-0.000164993,0
0.4,3.7,0,0.299954,-0.000155136,0
0.4,3.8,0,0.299943,-0.000157876,0
0.4,3.9,0,0.299887,-0.000166198,0
0.4,4,0,0.300002,-0.000132611,0
0.4,4.1,0,0.299871,-0.000173538,0
0.4,4.2,0,0.299938,-0.000144069,0
0.4,4.3,0,0.299934,-0.000148428,0
0.4,4.4,0,0.299864,-0.000177423,0
0.4,4.5,0,0.300004,-0.00010039,0
0.4,4.6,0,0.299869,-0.000187037,0
0.4,4.7,0,0.299936,-0.000133716,0
0.4,4.8,0,0.299948,-0.000138475,0
0.4,4.9,0,0.299892,-0.000191909,0
0.4,5,0,0.3,-6.94133e-05,0
0.4,5.1,0,0.299997,-6.03295e-05,0
0.4,5.2,0,0.299994,-5.4387e-05,0
0.4,5.3,0,0.299991,-4.842e-05,0
0.4,5.4,0,0.299988,-4.24542e-05,0
0.4,5.5,0,0.299984,-3.65016e-05,0
0.4,5.6,0,0.299981,-3.05749e-05,0
0.4,5.7,0,0.299977,-2.46849e-05,0
0.4,5.8,0,0.299974,-1.88418e-05,0
0.4,5.9,0,0.29997,-1.30532e-05,0
0.4,6,0,0.299966,-7.32682e-06,0
0.4,6.1,0,0.299963,-1.66682e-06,0
0.4,6.2,0,0.29996,3.92318e-06,0
0.4,6.3,0,0.299957,9.44153e-06,0
0.4,6.4,0,0.299955,1.48875e-05,0
0.4,6.5,0,0.299953,2.02626e-05,0
0.4,6.6,0,0.299952,2.55687e-05,0
0.4,6.7,0,0.299951,3.08092e-05,0
0.4,6.8,0,0.299951,3.59887e-05,0
0.4,6.9,0,0.299951,4.1097e-05,0
0.4,7,0,0.299952,4.93996e-05,0
0.4,7.1,0,0.300239,-3.20066e-05,0
0.4,7.2,0,0.300198,-1.45158e-05,0
0.4,7.3,0,0.299994,5.152e-05,0
0.4,7.4,0,0.300245,-3.04564e-05,0
0.4,7.5,0,0.300136,1.57765e-05,0
0.4,7.6,0,0.300023,5.65709e-05,0
0.4,7.7,0,0.300219,-3.27287e-05,0
0.4,7.8,0,0.300077,4.55381e-05,0
0.4,7.9,0,0.300033,5.73079e-05,0
0.4,8,0,0.300152,-3.21959e-05,0
0.4,8.1,0,0.300032,7.5395e-05,0
0.4,8.2,0,0.300026,5.22571e-05,0
0.4,8.3,0,0.300074,-2.11218e-05,0
0.4,8.4,0,0.300005,0.000107075,0
0.4,8.5,0,0.300007,4.1005e-05,0
0.4,8.6,0,0.300016,-1.70666e-06,0
0.4,8.7,0,0.299994,0.000141877,0
0.4,8.8,0,0.299985,2.40817e-05,0
0.4,8.9,0,0.299985,2.13889e-05,0
0.4,9,0,0.299992,0.000164114,0
0.4,9.1,0,0.299966,2.89737e-06,0
0.4,9.2,0,0.299972,4.90828e-05,0
0.4,9.3,0,0.299986,0.000152181,0
0.4,9.4,0,0.299955,-2.06628e-05,0
0.4,9.5,0,0.299972,8.11594e-05,0
0.4,9.6,0,0.299981,0.000136449,0
0.4,9.7,0,0.299953,-4.31376e-05,0
0.4,9.8,0,0.299976,0.000116569,0
0.4,9.9,0,0.299979,0.000118381,0
0.4,10,0,0.29996,-3.82748e-05,0
0.4,10.1,0,0.299981,0.000153857,0
0.4,10.2,0,0.299979,9.92589e-05,0
0.4,10.3,0,0.299971,-3.41483e-06,0
0.4,10.4,0,0.299985,0.000191556,0
0.4,10.5,0,0.299981,7.99949e-05,0
0.4,10.6,0,0.299979,3.45934e-05,0
0.4,10.7,0,0.299987,0.000228444,0
0.4,10.8,0,0.299984,6.11016e-05,0
0.4,10.9,0,0.299985,7.25266e-05,0
0.4,11,0,0.299988,0.000226194,0
0.4,11.1,0,0.299988,4.27059e-05,0
0.4,11.2,0,0.299988,0.000109254,0
0.4,11.3,0,0.29999,0.000204768,0
0.4,11.4,0,0.299992,2.45455e-05,0
0.4,11.5,0,0.299991,0.000144017,0
0.4,11.6,0,0.299992,0.000183238,0
0.4,11.7,0,0.299996,1.66598e-05,0
0.4,11.8,0,0.299994,0.000176528,0
0.4,11.9,0,0.299996,0.000161471,0
0.4,12,0,0.3,3.09264e-05,0
0.4,12.1,0,0.299996,0.000206762,0
0.4,12.2,0,0.299999,0.00013911,0
0.4,12.3,0,0.300003,6.18996e-05,0
0.4,12.4,0,0.299997,0.00023491,0
0.4,12.5,0,0.300003,0.000115917,0
0.4,12.6,0,0.300005,9.3152e-05,0
0.4,12.7,0,0.299999,0.000269319,0
0.5,0,0,0.299999,-0.000352928,0
0.5,0.1,0,0.300004,-0.000260404,0
0.5,0.2,0,0.300001,-0.000287878,0
0.5,0.3,0,0.300001,-0.000287512,0
0.5,0.4,0,0.300003,-0.000257879,0
0.5,0.5,0,0.299996,-0.000314765,0
0.5,0.6,0,0.300003,-0.000256603,0
0.5,0.7,0,0.299999,-0.000283721,0
0.5,0.8,0,0.299999,-0.00028285,0
0.5,0.9,0,0.300002,-0.00025258,0
0.5,1,0,0.299993,-0.000307635,0
0.5,1.1,0,0.300002,-0.000250437,0
0.5,1.2,0,0.299997,-0.000275518,0
0.5,1.3,0,0.299996,-0.000274283,0
0.5,1.4,0,0.300001,-0.000244179,0
0.5,1.5,0,0.29999,-0.000295799,0
0.5,1.6,0,0.3,-0.000241477,0
0.5,1.7,0,0.299994,-0.000263568,0
0.5,1.8,0,0.299993,-0.000262164,0
0.5,1.9,0,0.299997,-0.000233376,0
0.5,2,0,0.299988,-0.000279264,0
0.5,2.1,0,0.299994,-0.000230621,0
0.5,2.2,0,0.299991,-0.000248326,0
0.5,2.3,0,0.299987,-0.00024708,0
0.5,2.4,0,0.299987,-0.000221337,0
0.5,2.5,0,0.299988,-0.000258044,0
0.5,2.6,0,0.299978,-0.000219368,0
0.5,2.7,0,0.299983,-0.000230542,0
0.5,2.8,0,0.299976,-0.000229977,0
0.5,2.9,0,0.299965,-0.000209942,0
0.5,3,0,0.29999,-0.00023212,0
0.5,3.1,0,0.299947,-0.000210008,0
0.5,3.2,0,0.29997,-0.000211326,0
0.5,3.3,0,0.29996,-0.000212136,0
0.5,3.4,0,0.299928,-0.000201794,0
0.5,3.5,0,0.299995,-0.000201388,0
0.5,3.6,0,0.299907,-0.00020527,0
0.5,3.7,0,0.299953,-0.000191972,0
0.5,3.8,0,0.299943,-0.000194712,0
0.5,3.9,0,0.299887,-0.000199351,0
0.5,4,0,0.300003,-0.000165764,0
0.5,4.1,0,0.299871,-0.000206691,0
0.5,4.2,0,0.299938,-0.000173307,0
0.5,4.3,0,0.299935,-0.000177666,0
0.5,4.4,0,0.299865,-0.000202521,0
0.5,4.5,0,0.300005,-0.000125488,0
0.5,4.6,0,0.299871,-0.000212135,0
0.5,4.7,0,0.299937,-0.000154466,0
0.5,4.8,0,0.299948,-0.000159225,0
0.5,4.9,0,0.299892,-0.000209262,0
0.5,5,0,0.3,-8.67667e-05,0
0.5,5.1,0,0.299996,-7.54118e-05,0
0.5,5.2,0,0.299993,-6.79837e-05,0
0.5,5.3,0,0.299989,-6.0525e-05,0
0.5,5.4,0,0.299985,-5.30677e-05,0
0.5,5.5,0,0.299981,-4.5627e-05,0
0.5,5.6,0,0.299976,-3.82186e-05,0
0.5,5.7,0,0.299972,-3.08562e-05,0
0.5,5.8,0,0.299967,-2.35522e-05,0
0.5,5.9,0,0.299962,-1.63165e-05,0
0.5,6,0,0.299958,-9.15853e-06,0
0.5,6.1,0,0.299954,-2.08353e-06,0
0.5,6.2,0,0.29995,4.90397e-06,0
0.5,6.3,0,0.299946,1.18019e-05,0
0.5,6.4,0,0.299943,1.86094e-05,0
0.5,6.5,0,0.299941,2.53282e-05,0
0.5,6.6,0,0.29994,3.19609e-05,0
0.5,6.7,0,0.299938,3.85115e-05,0
0.5,6.8,0,0.299938,4.49859e-05,0
0.5,6.9,0,0.299939,5.13713e-05,0
0.5,7,0,0.29994,6.17495e-05,0
0.5,7.1,0,0.300227,-1.96566e-05,0
0.5,7.2,0,0.300187,1.43834e-06,0
0.5,7.3,0,0.299984,6.74741e-05,0
0.5,7.4,0,0.300234,-1.45023e-05,0
0.5,7.5,0,0.300127,3.66167e-05,0
0.5,7.6,0,0.300015,7.74111e-05,0
0.5,7.7,0,0.300186,1.21032e-06,0
0.5,7.8,0,0.300071,7.11638e-05,0
0.5,7.9,0,0.300027,8.29336e-05,0
0.5,8,0,0.300124,1.41052e-05,0
0.5,8.1,0,0.300028,0.000105675,0
0.5,8.2,0,0.300021,8.25374e-05,0
0.5,8.3,0,0.300065,2.24359e-05,0
0.5,8.4,0,0.300002,0.000141855,0
0.5,8.5,0,0.300004,7.57858e-05,0
0.5,8.6,0,0.300014,3.73521e-05,0
0.5,8.7,0,0.299992,0.000180936,0
0.5,8.8,0,0.299983,6.31405e-05,0
0.5,8.9,0,0.299983,6.44327e-05,0
0.5,9,0,0.29999,0.000207158,0
0.5,9.1,0,0.299964,4.59411e-05,0
0.5,9.2,0,0.299971,9.57704e-05,0
0.5,9.3,0,0.299985,0.000198869,0
0.5,9.4,0,0.299954,3.08589e-05,0
0.5,9.5,0,0.29997,0.000131125,0
0.5,9.6,0,0.299979,0.000186414,0
0.5,9.7,0,0.299955,3.87343e-05,0
0.5,9.8,0,0.299973,0.000169443,0
0.5,9.9,0,0.299976,0.000171256,0
0.5,10,0,0.299961,4.83051e-05,0
0.5,10.1,0,0.299978,0.000209282,0
0.5,10.2,0,0.299976,0.000154684,0
0.5,10.3,0,0.299968,5.92091e-05,0
0.5,10.4,0,0.299982,0.000249194,0
0.5,10.5,0,0.299978,0.000137633,0
0.5,10.6,0,0.299976,9.41275e-05,0
0.5,10.7,0,0.299984,0.000287978,0
0.5,10.8,0,0.299981,0.000120636,0
0.5,10.9,0,0.299982,0.000133662,0
0.5,11,0,0.299985,0.00028733,0
0.5,11.1,0,0.299985,0.000103842,0
0.5,11.2,0,0.299986,0.00017171,0
0.5,11.3,0,0.299987,0.000267223,0
0.5,11.4,0,0.299989,0.000101023,0
0.5,11.5,0,0.299989,0.000207526,0
0.5,11.6,0,0.29999,0.000246747,0
0.5,11.7,0,0.299994,0.000110384,0
0.5,11.8,0,0.299992,0.000240842,0
0.5,11.9,0,0.299994,0.000225784,0
0.5,12,0,0.299998,0.00011783,0
0.5,12.1,0,0.299994,0.000271641,0
0.5,12.2,0,0.299998,0.000203988,0
0.5,12.3,0,0.300002,0.000127115,0
0.5,12.4,0,0.299997,0.000300126,0
0.5,12.5,0,0.300002,0.000181132,0
0.5,12.6,0,0.300004,0.000156706,0
0.5,12.7,0,0.299998,0.000332872,0
0.6,0,0,0.299999,-0.00040615,0
0.6,0.1,0,0.300002,-0.000338008,0
0.6,0.2,0,0.3,-0.000351192,0
0.6,0.3,0,0.3,-0.000350826,0
0.6,0.4,0,0.300001,-0.000336215,0
0.6,0.5,0,0.299995,-0.000377719,0
0.6,0.6,0,0.3,-0.000334417,0
0.6,0.7,0,0.299997,-0.000346079,0
0.6,0.8,0,0.299997,-0.000345208,0
0.6,0.9,0,0.299999,-0.000329429,0
0.6,1,0,0.299991,-0.000369163,0
0.6,1.1,0,0.299998,-0.000326145,0
0.6,1.2,0,0.299995,-0.000335979,0
0.6,1.3,0,0.299995,-0.000334744,0
0.6,1.4,0,0.299996,-0.000318174,0
0.6,1.5,0,0.299988,-0.000354958,0
0.6,1.6,0,0.299995,-0.000313634,0
0.6,1.7,0,0.299992,-0.000321192,0
0.6,1.8,0,0.299991,-0.000319787,0
0.6,1.9,0,0.299992,-0.00030297,0
0.6,2,0,0.299986,-0.000335117,0
0.6,2.1,0,0.29999,-0.000297546,0
0.6,2.2,0,0.299988,-0.000302174,0
0.6,2.3,0,0.299985,-0.000300927,0
0.6,2.4,0,0.299985,-0.000284678,0
0.6,2.5,0,0.299985,-0.000309653,0
0.6,2.6,0,0.299978,-0.000278988,0
0.6,2.7,0,0.299981,-0.000279677,0
0.6,2.8,0,0.299974,-0.000279112,0
0.6,2.9,0,0.299969,-0.000264676,0
0.6,3,0,0.299988,-0.000278545,0
0.6,3.1,0,0.299957,-0.000259629,0
0.6,3.2,0,0.299968,-0.000254799,0
0.6,3.3,0,0.299958,-0.000255609,0
0.6,3.4,0,0.299944,-0.00024484,0
0.6,3.5,0,0.299995,-0.000241665,0
0.6,3.6,0,0.29993,-0.000241423,0
0.6,3.7,0,0.299953,-0.000228808,0
0.6,3.8,0,0.299942,-0.000231548,0
0.6,3.9,0,0.299918,-0.000226928,0
0.6,4,0,0.300003,-0.000198917,0
0.6,4.1,0,0.299907,-0.000225486,0
0.6,4.2,0,0.29994,-0.000202544,0
0.6,4.3,0,0.299936,-0.000206903,0
0.6,4.4,0,0.299903,-0.000210953,0
0.6,4.5,0,0.300007,-0.000150586,0
0.6,4.6,0,0.299907,-0.000210384,0
0.6,4.7,0,0.299937,-0.000175217,0
0.6,4.8,0,0.299949,-0.000179976,0
0.6,4.9,0,0.299921,-0.000197248,0
0.6,5,0,0.3,-0.00010412,0
0.6,5.1,0,0.299995,-9.04942e-05,0
0.6,5.2,0,0.299991,-8.15805e-05,0
0.6,5.3,0,0.299987,-7.263e-05,0
0.6,5.4,0,0.299982,-6.36812e-05,0
0.6,5.5,0,0.299977,-5.47525e-05,0
0.6,5.6,0,0.299971,-4.58624e-05,0
0.6,5.7,0,0.299966,-3.70274e-05,0
0.6,5.8,0,0.29996,-2.82626e-05,0
0.6,5.9,0,0.299955,-1.95798e-05,0
0.6,6,0,0.29995,-1.09902e-05,0
0.6,6.1,0,0.299944,-2.50024e-06,0
0.6,6.2,0,0.29994,5.88476e-06,0
0.6,6.3,0,0.299936,1.41623e-05,0
0.6,6.4,0,0.299932,2.23313e-05,0
0.6,6.5,0,0.299929,3.03939e-05,0
0.6,6.6,0,0.299927,3.83531e-05,0
0.6,6.7,0,0.299926,4.62138e-05,0
0.6,6.8,0,0.299926,5.39831e-05,0
0.6,6.9,0,0.299926,6.16455e-05,0
0.6,7,0,0.299929,7.40994e-05,0
0.6,7.1,0,0.300169,7.60077e-06,0
0.6,7.2,0,0.300173,1.83502e-05,0
0.6,7.3,0,0.299973,8.34282e-05,0
0.6,7.4,0,0.300147,3.15524e-05,0
0.6,7.5,0,0.300118,5.74569e-05,0
0.6,7.6,0,0.300006,9.82513e-05,0
0.6,7.7,0,0.300114,5.67777e-05,0
0.6,7.8,0,0.300064,9.67895e-05,0
0.6,7.9,0,0.30002,0.000108559,0
0.6,8,0,0.300075,7.80601e-05,0
0.6,8.1,0,0.300023,0.000135956,0
0.6,8.2,0,0.300016,0.000112818,0
0.6,8.3,0,0.300038,9.56997e-05,0
0.6,8.4,0,0.299999,0.000176636,0
0.6,8.5,0,0.300001,0.000110567,0
0.6,8.6,0,0.300006,0.000110656,0
0.6,8.7,0,0.29999,0.000219994,0
0.6,8.8,0,0.299981,0.000112003,0
0.6,8.9,0,0.299982,0.000123888,0
0.6,9,0,0.299988,0.000250202,0
0.6,9.1,0,0.299968,0.000125426,0
0.6,9.2,0,0.299969,0.000142458,0
0.6,9.3,0,0.299983,0.000245557,0
0.6,9.4,0,0.299963,0.000138778,0
0.6,9.5,0,0.299967,0.000181091,0
0.6,9.6,0,0.299977,0.00023638,0
0.6,9.7,0,0.299962,0.000152359,0
0.6,9.8,0,0.299971,0.000222318,0
0.6,9.9,0,0.299974,0.000224131,0
0.6,10,0,0.299966,0.000166174,0
0.6,10.1,0,0.299975,0.000264707,0
0.6,10.2,0,0.299973,0.00021011,0
0.6,10.3,0,0.29997,0.000180007,0
0.6,10.4,0,0.299979,0.000306831,0
0.6,10.5,0,0.299975,0.00019527,0
0.6,10.6,0,0.299974,0.000193515,0
0.6,10.7,0,0.299981,0.000347512,0
0.6,10.8,0,0.299979,0.000201531,0
0.6,10.9,0,0.299979,0.000206308,0
0.6,11,0,0.299982,0.000348465,0
0.6,11.1,0,0.299982,0.000214039,0
0.6,11.2,0,0.299983,0.000234166,0
0.6,11.3,0,0.299984,0.000329679,0
0.6,11.4,0,0.299986,0.000224959,0
0.6,11.5,0,0.299987,0.000271034,0
0.6,11.6,0,0.299988,0.000310256,0
0.6,11.7,0,0.29999,0.000234041,0
0.6,11.8,0,0.29999,0.000305155,0
0.6,11.9,0,0.299992,0.000290097,0
0.6,12,0,0.299994,0.0002411,0
0.6,12.1,0,0.299993,0.000336519,0
0.6,12.2,0,0.299997,0.000268866,0
0.6,12.3,0,0.299999,0.000245956,0
0.6,12.4,0,0.299996,0.000365341,0
0.6,12.5,0,0.300001,0.000248358,0
0.6,12.6,0,0.300002,0.000248701,0
0.6,12.7,0,0.299997,0.000396426,0
0.7,0,0,0.299998,-0.000459372,0
0.7,0.1,0,0.3,-0.000418321,0
0.7,0.2,0,0.299999,-0.000417905,0
0.7,0.3,0,0.299999,-0.000417486,0
0.7,0.4,0,0.299998,-0.00041626,0
0.7,0.5,0,0.299994,-0.000440672,0
0.7,0.6,0,0.299997,-0.000413881,0
0.7,0.7,0,0.299996,-0.000411858,0
0.7,0.8,0,0.299996,-0.000410805,0
0.7,0.9,0,0.299995,-0.000407979,0
0.7,1,0,0.29999,-0.00043069,0
0.7,1.1,0,0.299994,-0.000403429,0
0.7,1.2,0,0.299993,-0.000399804,0
0.7,1.3,0,0.299992,-0.000398241,0
0.7,1.4,0,0.299991,-0.000393817,0
0.7,1.5,0,0.299986,-0.000414118,0
0.7,1.6,0,0.29999,-0.000387234,0
0.7,1.7,0,0.299989,-0.000382011,0
0.7,1.8,0,0.299988,-0.00038011,0
0.7,1.9,0,0.299987,-0.000374089,0
0.7,2,0,0.299983,-0.000390969,0
0.7,2.1,0,0.299986,-0.0003657,0
0.7,2.2,0,0.299985,-0.000358883,0
0.7,2.3,0,0.299982,-0.000356934,0
0.7,2.4,0,0.299982,-0.000349322,0
0.7,2.5,0,0.299983,-0.000361262,0
0.7,2.6,0,0.299978,-0.000339498,0
0.7,2.7,0,0.299979,-0.000331087,0
0.7,2.8,0,0.299973,-0.000329551,0
0.7,2.9,0,0.299974,-0.000320334,0
0.7,3,0,0.299986,-0.000324969,0
0.7,3.1,0,0.299968,-0.000309606,0
0.7,3.2,0,0.299969,-0.000299572,0
0.7,3.3,0,0.29996,-0.000299058,0
0.7,3.4,0,0.299963,-0.000288194,0
0.7,3.5,0,0.299994,-0.000281943,0
0.7,3.6,0,0.299956,-0.000277117,0
0.7,3.7,0,0.299958,-0.000265416,0
0.7,3.8,0,0.299949,-0.000266409,0
0.7,3.9,0,0.299951,-0.000253886,0
0.7,4,0,0.300003,-0.00023207,0
0.7,4.1,0,0.299947,-0.000242686,0
0.7,4.2,0,0.299948,-0.000229374,0
0.7,4.3,0,0.299945,-0.000231609,0
0.7,4.4,0,0.299945,-0.000217534,0
0.7,4.5,0,0.300008,-0.000175683,0
0.7,4.6,0,0.299947,-0.00020565,0
0.7,4.7,0,0.299946,-0.000190871,0
0.7,4.8,0,0.299956,-0.000193521,0
0.7,4.9,0,0.299953,-0.00018197,0
0.7,5,0,0.3,-0.000121473,0
0.7,5.1,0,0.299994,-0.000105577,0
0.7,5.2,0,0.29999,-9.51772e-05,0
0.7,5.3,0,0.299984,-8.4735e-05,0
0.7,5.4,0,0.299979,-7.42948e-05,0
0.7,5.5,0,0.299973,-6.38779e-05,0
0.7,5.6,0,0.299966,-5.35061e-05,0
0.7,5.7,0,0.29996,-4.31986e-05,0
0.7,5.8,0,0.299954,-3.29731e-05,0
0.7,5.9,0,0.299947,-2.28431e-05,0
0.7,6,0,0.299941,-1.28219e-05,0
0.7,6.1,0,0.299935,-2.91694e-06,0
0.7,6.2,0,0.29993,6.86556e-06,0
0.7,6.3,0,0.299925,1.65227e-05,0
0.7,6.4,0,0.299921,2.60532e-05,0
0.7,6.5,0,0.299918,3.54595e-05,0
0.7,6.6,0,0.299915,4.47452e-05,0
0.7,6.7,0,0.299914,5.39161e-05,0