/*--------------------------------*- C++ -*----------------------------------*\
| =========                 |                                                 |
| \\      /  F ield         | OpenFOAM: The Open Source CFD Toolbox           |
|  \\    /   O peration     | Version:  v1806                                 |
|   \\  /    A nd           | Web:      www.OpenFOAM.com                      |
|    \\/     M anipulation  |                                                 |
\*---------------------------------------------------------------------------*/
FoamFile
{
    version     2.0;
    format      ascii;
    class       surfaceScalarField;
    location    "460";
    object      phi;
}
// * * * * * * * * * * * * * * * * * * * * * * * * * * * * * * * * * * * * * //

dimensions      [0 3 -1 0 0 0 0];
oriented        oriented;


internalField   nonuniform List<scalar> 
13938
(
4.31127e-08
-0.00540835
-0.0359126
0.0317056
0.00961537
-3.61337e-14
-0.00540581
-0.0359083
0.0316997
0.0096145
-4.31133e-08
-0.00540581
-0.0359083
0.0316997
0.0096145
-0.00540835
-0.0359126
0.0317056
0.00961537
5.14675e-08
-0.0399507
0.00804944
0.0264928
5.01215e-14
-0.0399441
0.00805108
0.0264872
-5.14677e-08
-0.0399441
0.00805108
0.0264872
-0.0399507
0.00804944
0.0264928
-2.34374e-08
-0.00509537
-0.00666372
0.00368445
0.00807467
-1.00058e-11
-0.00509316
-0.00666371
0.00368286
0.00807398
2.34434e-08
-0.00509316
-0.00666371
0.00368286
0.00807398
-0.00509537
-0.00666372
0.00368444
0.00807467
1.15441e-08
-0.00657032
-0.00152517
0.0030001
-9.58311e-13
-0.00656968
-0.00152405
0.00300058
-1.15642e-08
-0.00656968
-0.00152405
0.00300058
-0.00657032
-0.00152517
0.0030001
-1.04172e-08
0.00260584
-0.0084441
-0.00073205
2.87743e-12
0.00260588
-0.00844485
-0.000730716
1.03999e-08
0.00260588
-0.00844485
-0.000730716
0.00260584
-0.0084441
-0.00073205
-1.56877e-08
-0.00856172
0.00450386
2.2827e-12
-0.0085611
0.00450325
1.56819e-08
-0.0085611
0.00450325
-0.00856172
0.00450386
1.33596e-08
0.0294667
-0.0253578
-0.0278907
0.0237818
-7.01304e-14
0.0294715
-0.0253623
-0.0278857
0.0237765
-1.33599e-08
0.0294715
-0.0253623
-0.0278857
0.0237765
0.0294667
-0.0253578
-0.0278907
0.0237818
-9.05593e-09
0.0428542
-0.0377992
0.0244117
-2.97686e-14
0.0428533
-0.0377901
0.0244083
9.05589e-09
0.0428533
-0.0377901
0.0244083
0.0428542
-0.0377992
0.0244117
6.12022e-08
-0.00716654
0.01864
0.0313806
3.10482e-14
-0.00717001
0.0186455
0.0313779
-6.12018e-08
-0.00717001
0.0186455
0.0313779
-0.00716654
0.01864
0.0313806
6.23192e-08
-0.00567702
0.00331346
0.000530302
0.00183319
-5.48166e-13
-0.00567461
0.00331026
0.00053964
0.00182477
-6.23123e-08
-0.00567461
0.00331026
0.000539641
0.00182477
-0.00567702
0.00331346
0.000530302
0.00183319
-5.79418e-08
-0.00193073
-0.00475895
0.00101273
-1.35388e-11
-0.0019306
-0.00475968
0.0010156
5.79366e-08
-0.0019306
-0.00475968
0.0010156
-0.00193073
-0.00475895
0.00101273
4.56211e-10
0.00147965
-0.00291547
-0.003433
0.00486882
1.34988e-12
0.0014775
-0.00291412
-0.00343107
0.00486769
-4.51259e-10
0.0014775
-0.00291412
-0.00343107
0.00486769
0.00147965
-0.00291547
-0.003433
0.00486882
-2.88343e-08
-0.00344974
0.00419171
0.000737706
-1.05476e-12
-0.00344854
0.00418942
0.000736589
2.88308e-08
-0.00344854
0.00418942
0.000736589
-0.00344974
0.00419171
0.000737706
-1.05158e-08
-0.00523073
-0.00113447
-2.39663e-13
-0.00522934
-0.00113333
1.04901e-08
-0.00522934
-0.00113333
-0.00523073
-0.00113447
1.24063e-07
-0.020276
0.0320474
-0.053046
0.0412744
-1.0071e-12
-0.0202725
0.0320518
-0.0530432
0.0412639
-1.2406e-07
-0.0202725
0.0320518
-0.0530432
0.0412639
-0.020276
0.0320474
-0.053046
0.0412744
4.01271e-08
0.0451232
-0.0539267
-0.0114725
-1.37378e-12
0.0451361
-0.0539376
-0.0114709
-4.01179e-08
0.0451361
-0.0539376
-0.0114709
0.0451232
-0.0539267
-0.0114725
2.51902e-09
0.0667573
0.0104133
3.53509e-13
0.0667876
0.0104003
-2.51852e-09
0.0667876
0.0104003
0.0667573
0.0104133
-9.95652e-08
0.0227174
-0.0229825
-0.0432445
0.0435097
-1.84423e-13
0.0227237
-0.0229798
-0.0432478
0.0435037
9.95643e-08
0.0227237
-0.0229798
-0.0432478
0.0435037
0.0227174
-0.0229825
-0.0432445
0.0435097
-3.80765e-08
0.0421541
-0.0265831
0.00714633
-5.39359e-14
0.0421442
-0.0265712
0.00715072
3.8076e-08
0.0421442
-0.0265712
0.00715072
0.0421541
-0.0265831
0.00714633
1.65835e-07
-0.0655034
0.0235715
0.0637037
-0.021772
-5.14144e-13
-0.0655173
0.0235731
0.0637064
-0.021762
-1.65834e-07
-0.0655173
0.0235731
0.0637064
-0.021762
-0.0655034
0.0235715
0.0637037
-0.021772
-3.91976e-08
-0.0526282
-0.0049346
-0.00794058
1.75267e-13
-0.0526427
-0.00492947
-0.00794516
3.9204e-08
-0.0526427
-0.00492947
-0.00794516
-0.0526282
-0.0049346
-0.00794058
-3.08451e-07
-0.010465
0.0490043
-0.038539
-3.14842e-12
-0.0104461
0.0489837
-0.0385378
3.0847e-07
-0.0104461
0.0489837
-0.0385378
-0.010465
0.0490043
-0.038539
-9.62036e-09
-0.0569003
-0.0301402
0.0765755
-2.80173e-12
-0.0568854
-0.0301274
0.0765667
9.61212e-09
-0.0568854
-0.0301274
0.0765667
-0.0569003
-0.0301402
0.0765755
-1.9561e-09
0.00209298
-0.000504418
-0.0100327
2.49419e-12
0.00209235
-0.00050417
-0.010033
1.95847e-09
0.00209235
-0.00050417
-0.010033
0.00209298
-0.000504418
-0.0100327
-8.23719e-09
-0.0101282
0.00365943
3.84588e-14
-0.0101277
0.00365891
8.24171e-09
-0.0101277
0.00365891
-0.0101282
0.00365943
-4.80797e-09
0.000702925
-0.00930216
0.00809482
5.8076e-12
0.000703417
-0.00930178
0.00809419
4.80174e-09
0.000703417
-0.00930178
0.00809419
0.000702925
-0.00930216
0.00809482
-1.77824e-09
-0.00894688
0.0079635
0.0016863
3.92107e-12
-0.00894646
0.00796313
0.00168674
1.78373e-09
-0.00894646
0.00796313
0.00168674
-0.00894688
0.0079635
0.0016863
-6.15877e-09
-0.00112282
-0.00984357
0.00201952
-1.86511e-12
-0.00112293
-0.00984336
0.00201982
6.16534e-09
-0.00112293
-0.00984336
0.00201982
-0.00112282
-0.00984357
0.00201952
-5.87744e-09
0.000158052
-0.010583
-1.99069e-12
0.000158159
-0.0105829
5.88302e-09
0.000158159
-0.0105829
0.000158052
-0.010583
-4.64633e-09
0.00137055
-0.0112452
-3.53653e-12
0.00137066
-0.0112455
4.64792e-09
0.00137066
-0.0112455
0.00137055
-0.0112452
-5.33979e-09
0.00274481
-0.0115024
-4.31392e-12
0.00274538
-0.0115024
5.34137e-09
0.00274538
-0.0115024
0.00274481
-0.0115024
-1.00471e-08
0.000337349
0.00702543
6.41822e-12
0.000338734
0.00702473
1.00333e-08
0.000338734
0.00702473
0.000337349
0.00702543
-6.49682e-10
0.0018446
0.00645625
6.27676e-12
0.00184539
0.00645648
6.50486e-10
0.00184539
0.00645648
0.0018446
0.00645625
-7.51028e-08
-0.0346914
-0.024139
0.0358481
-3.14682e-13
-0.0346919
-0.0241248
0.0358368
7.51034e-08
-0.0346919
-0.0241248
0.0358368
-0.0346914
-0.024139
0.0358481
-6.01573e-08
0.0121748
-0.0495272
0.00266097
-2.09165e-13
0.0121808
-0.0495322
0.00265944
6.0157e-08
0.0121808
-0.0495322
0.00265944
0.0121748
-0.0495272
0.00266097
-3.52008e-08
-0.0427103
0.0307462
-1.97716e-13
-0.0426954
0.0307514
3.5201e-08
-0.0426954
0.0307514
-0.0427103
0.0307462
-5.3597e-08
-0.00924729
-0.0544519
0.014172
1.25317e-13
-0.00924595
-0.0544575
0.0141711
5.35966e-08
-0.00924595
-0.0544575
0.0141711
-0.00924729
-0.0544519
0.014172
-9.16878e-08
-0.0475567
0.00697322
-1.82241e-14
-0.0475638
0.00697535
9.16868e-08
-0.0475638
0.00697535
-0.0475567
0.00697322
-7.38227e-08
-0.0539044
-0.00289951
2.60364e-13
-0.0539099
-0.0028999
7.38228e-08
-0.0539099
-0.0028999
-0.0539044
-0.00289951
-5.37088e-08
0.010415
-0.0584426
-0.00587672
2.13606e-13
0.0104105
-0.0584486
-0.00587181
5.37086e-08
0.0104105
-0.0584486
-0.00587181
0.010415
-0.0584426
-0.00587672
-3.77009e-08
-0.0584227
0.0143859
4.42928e-13
-0.0584288
0.0143818
3.77002e-08
-0.0584288
0.0143818
-0.0584227
0.0143859
-2.81387e-08
-0.0535724
0.0250341
1.83894e-13
-0.0535583
0.025034
2.81381e-08
-0.0535583
0.025034
-0.0535724
0.0250341
-1.42374e-09
0.0108265
-0.0067357
-0.0625334
2.50834e-13
0.0108216
-0.0067354
-0.0625348
1.42392e-09
0.0108216
-0.0067354
-0.0625348
0.0108265
-0.0067357
-0.0625334
-9.35211e-09
0.0159667
-0.0635629
5.66948e-13
0.0159588
-0.0635661
9.3524e-09
0.0159588
-0.0635661
0.0159667
-0.0635629
-3.23902e-09
0.040586
-0.00541682
0.00834056
7.04313e-17
0.0405802
-0.00541771
0.0083412
3.2383e-09
0.0405802
-0.00541771
0.0083412
0.040586
-0.00541682
0.00834056
3.15084e-08
0.0113692
0.00385894
-5.70062e-14
0.0113615
0.00385645
-3.15086e-08
0.0113615
0.00385645
0.0113692
0.00385894
-1.4177e-08
-0.0424698
0.0160399
-1.70521e-13
-0.0424665
0.0160378
1.41758e-08
-0.0424665
0.0160378
-0.0424698
0.0160399
-4.98408e-08
-0.0524198
0.00453321
5.99389e-14
-0.0524135
0.00452923
4.98402e-08
-0.0524135
0.00452923
-0.0524198
0.00453321
-1.36099e-07
-0.0504426
0.0049962
-4.55985e-15
-0.0504452
0.00500699
1.361e-07
-0.0504452
0.00500699
-0.0504426
0.0049962
-1.15744e-07
-0.0542049
0.000862841
2.90095e-13
-0.0542087
0.000863478
1.15744e-07
-0.0542087
0.000863478
-0.0542049
0.000862841
-5.44725e-08
-0.0572858
-0.00279575
2.68663e-13
-0.0572908
-0.00278981
5.44729e-08
-0.0572908
-0.00278981
-0.0572858
-0.00279575
3.98344e-10
-0.0626293
-0.00139213
2.62526e-13
-0.0626302
-0.00139596
-3.97958e-10
-0.0626302
-0.00139596
-0.0626293
-0.00139213
-3.40858e-09
0.0403961
0.0100987
-9.70879e-14
0.0403913
0.0100941
3.40755e-09
0.0403913
0.0100941
0.0403961
0.0100987
2.58115e-08
0.0163643
-1.45251e-13
0.016362
-2.58117e-08
0.016362
0.0163643
5.00241e-08
0.0531332
-0.0475968
0.0105035
-3.18106e-13
0.0531218
-0.0475915
0.0105076
-5.0026e-08
0.0531218
-0.0475915
0.0105076
0.0531332
-0.0475968
0.0105035
4.93071e-08
0.00601588
-3.05526e-13
0.00600773
-4.93065e-08
0.00600773
0.00601588
-3.42181e-09
0.00997896
-0.011334
0.00409983
-4.73143e-12
0.00997893
-0.0113337
0.00410014
3.42343e-09
0.00997893
-0.0113337
0.00410014
0.00997896
-0.011334
0.00409983
-4.62263e-09
0.0084767
0.0051617
2.98544e-12
0.00847762
0.00516022
4.62044e-09
0.00847762
0.00516022
0.0084767
0.0051617
-9.25536e-09
0.00795717
0.00502339
8.07673e-12
0.00795849
0.00502236
9.24297e-09
0.00795849
0.00502236
0.00795717
0.00502339
2.79882e-09
0.00677397
0.00486764
4.25588e-12
0.00677448
0.00486688
-2.81421e-09
0.00677448
0.00486688
0.00677397
0.00486764
-3.72642e-09
-0.00114489
0.00208466
-0.0107833
-3.06215e-12
-0.00114515
0.00208494
-0.0107831
3.72555e-09
-0.00114515
0.00208494
-0.0107831
-0.00114489
0.00208466
-0.0107833
-4.16132e-09
-0.00013608
-0.0115918
-4.52981e-12
-0.000136157
-0.0115919
4.15657e-09
-0.000136157
-0.0115919
-0.00013608
-0.0115918
-3.69357e-09
0.00091581
-0.012297
-5.09346e-12
0.000915829
-0.0122975
3.68989e-09
0.000915829
-0.0122975
0.00091581
-0.012297
-4.44706e-09
0.00206843
-0.012655
-5.9205e-12
0.00206866
-0.0126552
4.44286e-09
0.00206866
-0.0126552
0.00206843
-0.012655
-5.13443e-09
0.0033483
-0.0126138
-6.41859e-12
0.00334856
-0.0126136
5.13316e-09
0.00334856
-0.0126136
0.0033483
-0.0126138
-3.86113e-09
-0.00694546
0.00604998
0.00274008
1.2002e-12
-0.00694461
0.00604913
0.00274086
3.87102e-09
-0.00694461
0.00604913
0.00274086
-0.00694546
0.00604998
0.00274008
-2.81744e-09
-0.00783656
0.00257742
-3.77331e-12
-0.0078358
0.00257792
2.81218e-09
-0.0078358
0.00257792
-0.00783656
0.00257742
-6.95816e-09
-0.0088964
0.00307937
-3.77075e-12
-0.00889592
0.00307994
6.95225e-09
-0.00889592
0.00307994
-0.0088964
0.00307937
-3.86971e-09
-0.00960829
0.00279655
-3.92636e-12
-0.00960786
0.00279687
3.86523e-09
-0.00960786
0.00279687
-0.00960829
0.00279655
4.60917e-10
0.000890427
0.00460983
3.16255e-12
0.000890902
0.00460978
-4.64045e-10
0.000890902
0.00460978
0.000890427
0.00460983
6.38215e-09
0.00202111
0.00532557
4.29399e-12
0.00202119
0.00532619
-6.37911e-09
0.00202119
0.00532619
0.00202111
0.00532557
-6.30717e-08
-0.0214928
0.0307578
-8.52659e-14
-0.0214852
0.0307507
6.3072e-08
-0.0214852
0.0307507
-0.0214928
0.0307578
-5.21193e-08
-0.0289781
0.0382315
-2.00212e-13
-0.0289661
0.0382322
5.21196e-08
-0.0289661
0.0382322
-0.0289781
0.0382315
-2.53605e-09
0.00298891
0.00508218
2.48738e-12
0.00298997
0.00508035
2.55489e-09
0.00298997
0.00508035
0.00298891
0.00508218
-1.32023e-09
-0.0569826
0.017796
8.27972e-13
-0.0569689
0.0177925
1.31949e-09
-0.0569689
0.0177925
-0.0569826
0.017796
-9.39114e-09
-0.0549858
0.01397
7.81637e-13
-0.0549778
0.0139677
9.39139e-09
-0.0549778
0.0139677
-0.0549858
0.01397
-4.70616e-08
-0.0512301
0.0472862
2.07255e-13
-0.0512175
0.0472854
4.70608e-08
-0.0512175
0.0472854
-0.0512301
0.0472862
7.30929e-08
0.00399873
-0.00129885
-0.0653293
2.70161e-13
0.00400059
-0.00130171
-0.0653291
-7.30925e-08
0.00400059
-0.00130171
-0.0653291
0.00399873
-0.00129885
-0.0653293
7.42533e-08
0.00762574
-0.0661605
3.18319e-13
0.00762443
-0.0661586
-7.42529e-08
0.00762443
-0.0661586
0.00762574
-0.0661605
4.20911e-08
0.0135578
-0.069495
2.77964e-13
0.0135501
-0.0694918
-4.2091e-08
0.0135501
-0.0694918
0.0135578
-0.069495
6.06072e-08
0.0302858
-0.0717139
2.80393e-13
0.0302828
-0.0717104
-6.06069e-08
0.0302828
-0.0717104
0.0302858
-0.0717139
-3.79853e-08
0.0469789
-0.00907476
-6.58744e-14
0.0469811
-0.00907967
3.79856e-08
0.0469811
-0.00907967
0.0469789
-0.00907476
-1.36861e-07
-0.0530904
0.010027
3.22707e-13
-0.0530875
0.0100251
1.36861e-07
-0.0530875
0.0100251
-0.0530904
0.010027
-8.23295e-08
-0.053296
0.00520181
1.89454e-13
-0.0532969
0.00521638
8.23302e-08
-0.0532969
0.00521638
-0.053296
0.00520181
-9.02367e-08
-0.054903
0.00247002
8.44299e-14
-0.0549068
0.00247323
9.02372e-08
-0.0549068
0.00247323
-0.054903
0.00247002
-9.7144e-09
-0.058359
0.00066021
2.2703e-13
-0.0583601
0.00066354
9.71446e-09
-0.0583601
0.00066354
-0.058359
0.00066021
1.96121e-08
-0.0598704
0.000119273
1.74555e-13
-0.0598709
0.000114864
-1.9612e-08
-0.0598709
0.000114864
-0.0598704
0.000119273
-4.97537e-08
0.0367631
0.0203145
2.9028e-13
0.0367606
0.0203146
4.9754e-08
0.0367606
0.0203146
0.0367631
0.0203145
-3.54749e-09
0.033061
0.0200663
9.21955e-14
0.0330589
0.0200638
3.54809e-09
0.0330589
0.0200638
0.033061
0.0200663
3.38694e-08
0.0340858
0.022757
-2.74153e-15
0.0340828
0.0227526
-3.38693e-08
0.0340828
0.0227526
0.0340858
0.022757
3.18724e-08
0.0339709
0.0245266
9.81831e-14
0.0339645
0.0245266
-3.18724e-08
0.0339645
0.0245266
0.0339709
0.0245266
1.91764e-08
0.0279546
0.0246563
3.47658e-13
0.0279518
0.0246582
-1.91765e-08
0.0279518
0.0246582
0.0279546
0.0246563
3.31375e-08
0.0177305
0.0216996
2.94954e-13
0.0177258
0.0217032
-3.31381e-08
0.0177258
0.0217032
0.0177305
0.0216996
-4.37581e-09
-0.0452993
0.0154026
5.2463e-13
-0.0452864
0.0153858
4.3755e-09
-0.0452864
0.0153858
-0.0452993
0.0154026
1.96849e-08
0.0301627
0.0140606
2.44823e-13
0.0301595
0.0140535
-1.96863e-08
0.0301595
0.0140535
0.0301627
0.0140606
1.54618e-08
0.0201136
0.0295405
5.11953e-13
0.0201122
0.0295428
-1.54627e-08
0.0201122
0.0295428
0.0201136
0.0295405
4.86529e-08
0.0342558
0.0160205
6.36976e-13
0.0342595
0.0160123
-4.86538e-08
0.0342595
0.0160123
0.0342558
0.0160205
5.86914e-08
-0.0646884
0.00351909
2.56357e-13
-0.0646883
0.00351576
-5.86911e-08
-0.0646883
0.00351576
-0.0646884
0.00351909
-2.15084e-08
0.0113921
0.0343741
2.10319e-13
0.0113871
0.0343661
2.15079e-08
0.0113871
0.0343661
0.0113921
0.0343741
6.35226e-08
0.0320684
-0.032937
0.0104839
3.3899e-13
0.0320714
-0.032942
0.0104852
-6.35241e-08
0.0320714
-0.032942
0.0104852
0.0320684
-0.032937
0.0104839
-6.93285e-08
0.00837975
0.0350808
2.99141e-13
0.00838003
0.0350784
6.933e-08
0.00838003
0.0350784
0.00837975
0.0350808
-7.76861e-09
-0.00269396
0.00459573
0.0048722
1.06967e-12
-0.00269148
0.00459508
0.00487087
7.78447e-09
-0.00269148
0.00459508
0.00487087
-0.00269396
0.00459573
0.0048722
9.6044e-10
0.00494336
0.000437356
-1.7061e-12
0.00494394
0.000438563
-9.49364e-10
0.00494394
0.000438563
0.00494336
0.000437356
-6.01786e-08
0.0355831
-0.0344577
0.0191892
1.85452e-13
0.0355783
-0.0344518
0.019188
6.01789e-08
0.0355783
-0.0344518
0.019188
0.0355831
-0.0344577
0.0191892
-1.26277e-08
0.0347669
0.0208826
1.5784e-13
0.0347635
0.0208786
1.26279e-08
0.0347635
0.0208786
0.0347669
0.0208826
-1.14967e-08
0.0341551
0.0233688
-3.71907e-14
0.0341509
0.0233652
1.14965e-08
0.0341509
0.0233652
0.0341551
0.0233688
-2.56294e-08
0.0327473
0.0259344
4.35985e-14
0.0327438
0.0259337
2.56294e-08
0.0327438
0.0259337
0.0327473
0.0259344
-2.68479e-08
0.0275603
0.0298433
2.33969e-13
0.0275579
0.0298441
2.68483e-08
0.0275579
0.0298441
0.0275603
0.0298433
-2.2346e-08
0.0228755
0.0342254
2.87778e-13
0.0228728
0.0342279
2.23459e-08
0.0228728
0.0342279
0.0228755
0.0342254
-2.395e-08
0.0408592
0.0162721
4.66851e-13
0.0408555
0.0162769
2.39496e-08
0.0408555
0.0162769
0.0408592
0.0162721
-9.92382e-08
0.040581
-0.0114241
-2.0859e-13
0.0405779
-0.0114255
9.92386e-08
0.0405779
-0.0114255
0.040581
-0.0114241
-1.10025e-07
-0.0143384
0.0204618
-1.09255e-14
-0.014333
0.020459
1.10025e-07
-0.014333
0.020459
-0.0143384
0.0204618
5.16591e-08
-0.0519977
0.0172018
1.27598e-12
-0.0519937
0.0172149
-5.16588e-08
-0.0519937
0.0172149
-0.0519977
0.0172018
-1.89419e-07
-0.0527824
0.0108118
3.88662e-13
-0.0527817
0.0108129
1.8942e-07
-0.0527817
0.0108129
-0.0527824
0.0108118
-5.88265e-08
-0.0542163
0.00663586
1.62572e-13
-0.054215
0.00664961
5.88263e-08
-0.054215
0.00664961
-0.0542163
0.00663586
-7.18551e-08
-0.054323
0.00257675
-3.09661e-13
-0.0543227
0.0025808
7.1855e-08
-0.0543227
0.0025808
-0.054323
0.00257675
2.01048e-08
-0.0567871
0.00312433
-5.10947e-14
-0.0567869
0.00312782
-2.01055e-08
-0.0567869
0.00312782
-0.0567871
0.00312433
2.42979e-08
-0.0607265
0.00405861
2.48635e-14
-0.0607276
0.00405553
-2.42982e-08
-0.0607276
0.00405553
-0.0607265
0.00405861
-5.854e-09
0.010663
-0.0116345
0.00431984
-4.87699e-12
0.010663
-0.0116343
0.00431991
5.85701e-09
0.010663
-0.0116343
0.00431991
0.010663
-0.0116345
0.00431984
-5.08733e-09
0.00947685
0.00528599
2.39624e-13
0.00947754
0.00528557
5.09146e-09
0.00947754
0.00528557
0.00947685
0.00528599
-7.18706e-09
0.00863249
0.00600607
5.90452e-12
0.0086328
0.00600496
7.19399e-09
0.0086328
0.00600496
0.00863249
0.00600607
-1.04832e-08
0.00759658
0.00605931
1.3382e-11
0.00759647
0.00605868
1.04865e-08
0.00759647
0.00605868
0.00759658
0.00605931
-1.28497e-08
0.00639119
0.00607305
1.44582e-11
0.00639101
0.00607233
1.2849e-08
0.00639101
0.00607233
0.00639119
0.00607305
-1.49959e-08
0.00622605
0.00476088
1.14814e-11
0.00622546
0.00476061
1.50133e-08
0.00622546
0.00476061
0.00622605
0.00476088
-4.29761e-09
-0.00190589
0.00268524
-0.0103876
-4.63817e-12
-0.00190595
0.00268537
-0.0103873
4.29254e-09
-0.00190595
0.00268537
-0.0103873
-0.00190589
0.00268524
-0.0103876
-3.30312e-09
-0.00120224
-0.011487
-4.61436e-12
-0.00120226
-0.0114868
3.29682e-09
-0.00120226
-0.0114868
-0.00120224
-0.011487
-3.48634e-09
-0.000219708
-0.0125744
-6.04764e-12
-0.000219769
-0.0125744
3.47904e-09
-0.000219769
-0.0125744
-0.000219708
-0.0125744
-3.21717e-09
0.000810401
-0.0133272
-6.86372e-12
0.000810043
-0.0133273
3.21143e-09
0.000810043
-0.0133273
0.000810401
-0.0133272
-3.97511e-09
0.0017571
-0.0136017
-7.13956e-12
0.00175675
-0.0136019
3.96984e-09
0.00175675
-0.0136019
0.0017571
-0.0136017
-4.73922e-09
0.00255512
-0.0134119
-6.19181e-12
0.00255491
-0.0134118
4.73444e-09
0.00255491
-0.0134118
0.00255512
-0.0134119
-5.16343e-09
-0.0126557
0.00357626
-4.52127e-12
-0.0126556
0.00357619
5.162e-09
-0.0126556
0.00357619
-0.0126557
0.00357626
2.92713e-09
-0.00530752
0.00451313
0.0037833
-2.52089e-12
-0.00530772
0.00451406
0.00378364
-2.91651e-09
-0.00530772
0.00451406
0.00378364
-0.00530752
0.00451313
0.0037833
-8.8716e-10
-0.00608903
0.00352159
-6.47454e-12
-0.00608876
0.0035219
8.78162e-10
-0.00608876
0.0035219
-0.00608903
0.00352159
-2.30571e-09
-0.00706369
0.00355207
-5.3306e-12
-0.0070633
0.00355246
2.29546e-09
-0.0070633
0.00355246
-0.00706369
0.00355207
-6.19477e-09
-0.0076318
0.00364749
-4.33159e-12
-0.00763144
0.00364807
6.19029e-09
-0.00763144
0.00364807
-0.0076318
0.00364749
-4.28007e-09
-0.00849269
0.00365745
-5.31522e-12
-0.00849235
0.00365777
4.27453e-09
-0.00849235
0.00365777
-0.00849269
0.00365745
-5.13904e-09
0.0034028
-0.00921025
-5.28743e-12
0.00340309
-0.00921008
5.13357e-09
0.00340309
-0.00921008
0.0034028
-0.00921025
-1.78094e-08
0.00199429
0.00561566
1.56129e-12
0.00199524
0.0056151
1.7823e-08
0.00199524
0.0056151
0.00199429
0.00561566
1.01403e-08
0.00258155
0.0047383
1.74623e-12
0.00258219
0.00473925
-1.01271e-08
0.00258219
0.00473925
0.00258155
0.0047383
-9.32403e-09
0.00335819
0.00430555
7.88212e-13
0.00335838
0.00430415
9.34854e-09
0.00335838
0.00430415
0.00335819
0.00430555
7.91926e-09
0.00413209
0.00373922
-1.50169e-12
0.00413187
0.00374057
-7.90217e-09
0.00413187
0.00374057
0.00413209
0.00373922
-7.99256e-08
-0.0342392
0.0167049
2.03121e-12
-0.0342498
0.0166935
7.99265e-08
-0.0342498
0.0166935
-0.0342392
0.0167049
-5.86499e-08
-0.0521047
0.0186707
8.6246e-13
-0.0520895
0.0186644
5.86491e-08
-0.0520895
0.0186644
-0.0521047
0.0186707
-9.01183e-08
0.046142
-0.0102798
1.15415e-13
0.0461447
-0.0102848
9.0118e-08
0.0461447
-0.0102848
0.046142
-0.0102798
-2.86604e-08
-0.0509604
0.0128257
5.02701e-13
-0.0509482
0.0128264
2.86603e-08
-0.0509482
0.0128264
-0.0509604
0.0128257
7.57223e-08
-0.000201918
0.00236094
-0.0674884
2.5566e-13
-0.000200222
0.00235813
-0.0674869
-7.5722e-08
-0.000200222
0.00235813
-0.0674869
-0.000201918
0.00236094
-0.0674884
8.86848e-08
0.00324703
-0.0696095
2.55932e-13
0.00324747
-0.0696062
-8.86844e-08
0.00324747
-0.0696062
0.00324703
-0.0696095
-1.14154e-08
-0.0397709
0.0190963
1.78443e-13
-0.0397658
0.0191003
1.14161e-08
-0.0397658
0.0191003
-0.0397709
0.0190963
9.57477e-08
0.00303864
-0.0692867
2.55811e-13
0.00303476
-0.069279
-9.57477e-08
0.00303476
-0.069279
0.00303864
-0.0692867
5.18681e-08
-0.000356591
-0.0683187
1.58078e-13
-0.000365654
-0.0683099
-5.18684e-08
-0.000365654
-0.0683099
-0.000356591
-0.0683187
5.46232e-08
0.00355252
-0.0658801
2.76693e-13
0.00355025
-0.0658804
-5.46231e-08
0.00355025
-0.0658804
0.00355252
-0.0658801
-6.04775e-08
-0.0534766
0.0364392
2.79679e-12
-0.0534902
0.0364553
6.04792e-08
-0.0534902
0.0364553
-0.0534766
0.0364392
1.21289e-07
0.0327774
0.00800257
-0.0302962
1.47748e-12
0.0327788
0.00799962
-0.0302931
-1.21289e-07
0.0327788
0.00799962
-0.0302931
0.0327774
0.00800257
-0.0302962
-6.53311e-08
0.00520407
0.0359532
3.81263e-13
0.00520014
0.0359586
6.53329e-08
0.00520014
0.0359586
0.00520407
0.0359532
1.44082e-07
0.0318596
-0.027454
0.00359675
1.48984e-12
0.0318651
-0.0274588
0.0035935
-1.4408e-07
0.0318651
-0.0274588
0.0035935
0.0318596
-0.027454
0.00359675
-1.00874e-07
0.0354389
0.00162494
2.05989e-13
0.0354434
0.00162174
1.00876e-07
0.0354434
0.00162174
0.0354389
0.00162494
-6.47398e-09
-0.0037455
0.00333976
0.00453785
-3.99421e-12
-0.00374502
0.00334015
0.00453674
6.48173e-09
-0.00374502
0.00334015
0.00453674
-0.0037455
0.00333976
0.00453785
-2.91744e-09
-0.00440185
0.00443965
-5.81357e-12
-0.00440169
0.00444031
2.91695e-09
-0.00440169
0.00444031
-0.00440185
0.00443965
-4.56239e-09
-0.00510373
0.00422347
-5.59206e-12
-0.00510349
0.00422369
4.55585e-09
-0.00510349
0.00422369
-0.00510373
0.00422347
-5.29074e-09
-0.0059156
0.00436395
-5.12779e-12
-0.00591544
0.00436441
5.28565e-09
-0.00591544
0.00436441
-0.0059156
0.00436395
-7.40355e-09
-0.00667513
0.00440703
-6.35421e-12
-0.00667508
0.0044077
7.39922e-09
-0.00667508
0.0044077
-0.00667513
0.00440703
-6.8419e-09
-0.00726432
0.00424665
-6.63093e-12
-0.00726421
0.0042469
6.83635e-09
-0.00726421
0.0042469
-0.00726432
0.00424665
-7.00813e-09
-0.00792904
0.00406752
-5.71284e-12
-0.00792879
0.00406766
7.00421e-09
-0.00792879
0.00406766
-0.00792904
0.00406752
-6.22713e-09
-0.00304119
-0.00851594
0.0036281
-5.10873e-12
-0.00304101
-0.0085157
0.00362792
6.22369e-09
-0.00304101
-0.0085157
0.00362792
-0.00304119
-0.00851594
0.0036281
-4.39122e-09
-0.00243717
-0.00981426
-4.39819e-12
-0.00243711
-0.00981399
4.38546e-09
-0.00243711
-0.00981399
-0.00243717
-0.00981426
-3.55492e-09
-0.00179521
-0.0110296
-4.58775e-12
-0.00179507
-0.0110293
3.5491e-09
-0.00179507
-0.0110293
-0.00179521
-0.0110296
-2.28198e-09
-0.00109441
-0.0121878
-5.18782e-12
-0.0010943
-0.0121876
2.27411e-09
-0.0010943
-0.0121876
-0.00109441
-0.0121878
-1.84583e-09
-0.000464785
-0.013204
-6.33013e-12
-0.000464796
-0.0132039
1.83603e-09
-0.000464796
-0.0132039
-0.000464785
-0.013204
-2.12629e-09
0.000303032
-0.014095
-7.49136e-12
0.000302906
-0.014095
2.1166e-09
0.000302906
-0.014095
0.000303032
-0.014095
-2.89974e-09
0.00119089
-0.0144896
-7.73516e-12
0.00119062
-0.0144897
2.89101e-09
0.00119062
-0.0144897
0.00119089
-0.0144896
-3.69849e-09
0.00200598
-0.0142269
-7.2376e-12
0.00200587
-0.014227
3.69099e-09
0.00200587
-0.014227
0.00200598
-0.0142269
-2.83819e-09
0.00260896
-0.0132587
-5.03288e-12
0.00260902
-0.0132587
2.83293e-09
0.00260902
-0.0132587
0.00260896
-0.0132587
-3.76446e-10
0.0112891
0.00297578
-0.0116559
-2.67336e-12
0.0112894
0.00297577
-0.0116562
3.68864e-10
0.0112894
0.00297577
-0.0116562
0.0112891
0.00297578
-0.0116559
-3.60354e-09
0.0105005
0.00436482
-1.24588e-13
0.0105008
0.0043648
3.60846e-09
0.0105008
0.0043648
0.0105005
0.00436482
-4.68054e-09
0.00948991
0.00533045
1.75959e-12
0.00949038
0.00533034
4.68762e-09
0.00949038
0.00533034
0.00948991
0.00533045
-4.61033e-09
0.00871271
0.0060632
3.5255e-12
0.0087132
0.00606274
4.62034e-09
0.0087132
0.00606274
0.00871272
0.0060632
-7.13292e-09
0.00796174
0.00675706
6.16463e-12
0.00796158
0.00675657
7.14058e-09
0.00796158
0.00675657
0.00796174
0.00675706
-1.10776e-08
0.00695342
0.00706765
1.03754e-11
0.00695271
0.00706754
1.10837e-08
0.00695271
0.00706754
0.00695342
0.00706765
-1.13064e-08
0.00576349
0.00726298
1.08307e-11
0.00576214
0.00726289
1.13066e-08
0.00576214
0.00726289
0.00576349
0.00726298
-1.27826e-08
0.00475623
0.00723333
8.09403e-12
0.00475482
0.00723277
1.27871e-08
0.00475482
0.00723277
0.00475623
0.00723333
-1.11097e-08
0.00409884
-0.00630336
0.00696076
8.00068e-13
0.00409781
-0.00630314
0.00696013
1.11175e-08
0.00409781
-0.00630314
0.00696013
0.00409884
-0.00630336
0.00696076
-3.11445e-08
-0.00644193
0.00531007
5.57358e-13
-0.00644009
0.00530852
3.11488e-08
-0.00644009
0.00530852
-0.00644193
0.00531007
3.64504e-08
0.00588439
-0.0630918
2.26214e-13
0.00588326
-0.063095
-3.64503e-08
0.00588326
-0.063095
0.00588439
-0.0630918
-1.10623e-07
0.0136404
-0.0272316
3.37414e-12
0.0136335
-0.0272331
1.10624e-07
0.0136335
-0.0272331
0.0136404
-0.0272316
-1.59039e-08
-0.0509374
0.00827265
1.31044e-12
-0.0509447
0.00826734
1.59049e-08
-0.0509447
0.00826734
-0.0509374
0.00827265
1.41519e-08
-0.0527008
0.00839925
9.72226e-13
-0.0527019
0.00840676
-1.41514e-08
-0.0527019
0.00840676
-0.0527008
0.00839925
-2.62454e-09
-0.0549923
0.00486824
1.84515e-13
-0.0549907
0.00486961
2.62611e-09
-0.0549907
0.00486961
-0.0549923
0.00486824
4.32901e-08
-0.0578424
0.00597446
-1.14274e-13
-0.057841
0.00597816
-4.329e-08
-0.057841
0.00597816
-0.0578424
0.00597446
-7.34993e-08
0.0357225
-0.00391884
1.31159e-13
0.0357267
-0.00391511
7.34992e-08
0.0357267
-0.00391511
0.0357225
-0.00391884
-4.82161e-08
0.0392172
0.0169672
1.05254e-13
0.0392165
0.0169692
4.82158e-08
0.0392165
0.0169692
0.0392172
0.0169672
-9.00284e-08
0.0372288
0.0211776
1.53628e-13
0.0372235
0.0211809
9.00282e-08
0.0372235
0.0211809
0.0372288
0.0211776
-3.42515e-08
0.0358586
0.0222528
1.24536e-13
0.0358543
0.0222477
3.42516e-08
0.0358543
0.0222477
0.0358586
0.0222528
-1.44073e-08
0.0351491
0.0240783
-8.31832e-14
0.035144
0.0240755
1.4407e-08
0.035144
0.0240755
0.0351491
0.0240783
-2.60334e-08
0.0331361
0.0279475
-1.08315e-13
0.0331308
0.0279469
2.60332e-08
0.0331308
0.0279469
0.0331361
0.0279475
-3.13487e-08
0.0308731
0.0321064
-1.3661e-13
0.0308711
0.0321038
3.13492e-08
0.0308711
0.0321038
0.0308731
0.0321064
-8.94914e-09
0.0269984
0.0381
9.92369e-15
0.0270029
0.0380961
8.95148e-09
0.0270029
0.0380961
0.0269984
0.0381
2.46074e-08
0.0551709
0.0126867
4.03315e-13
0.0551696
0.0126888
-2.46058e-08
0.0551696
0.0126888
0.0551709
0.0126867
2.17899e-08
-0.059467
0.0056831
-4.06711e-14
-0.0594713
0.00568587
-2.17897e-08
-0.0594713
0.00568587
-0.059467
0.0056831
-1.44682e-08
-0.00463867
0.00309621
-1.41364e-12
-0.00463812
0.00309558
1.44869e-08
-0.00463812
0.00309558
-0.00463867
0.00309621
-7.37598e-09
-0.00263474
0.00286827
-1.47246e-12
-0.00263458
0.00286733
7.38921e-09
-0.00263458
0.00286733
-0.00263474
0.00286828
-1.42067e-08
-0.000394281
0.00270291
5.90801e-12
-0.000393298
0.00270264
1.42095e-08
-0.000393298
0.00270264
-0.000394281
0.00270291
-1.85387e-08
0.00828801
0.0118399
0.035043
6.32792e-13
0.00828623
0.0118368
0.0350465
1.85388e-08
0.00828623
0.0118368
0.0350465
0.00828801
0.0118399
0.035043
-9.18334e-09
0.0132393
0.0371553
5.64135e-13
0.0132287
0.0371496
9.18386e-09
0.0132287
0.0371496
0.0132393
0.0371553
-7.53218e-09
0.00766072
0.0406594
2.52361e-13
0.00765149
0.0406556
7.53375e-09
0.00765149
0.0406556
0.00766072
0.0406594
2.91872e-09
0.00185287
0.00420014
4.96024e-12
0.00185288
0.00420079
-2.9233e-09
0.00185288
0.00420079
0.00185287
0.00420014
8.15968e-09
0.00295727
0.00363389
1.85359e-14
0.00295753
0.00363461
-8.15701e-09
0.00295753
0.00363461
0.00295727
0.00363389
-1.06563e-08
0.00389215
0.00337068
-2.71133e-12
0.00389231
0.00336935
1.06639e-08
0.00389231
0.00336935
0.00389215
0.00337068
1.74958e-08
0.00457439
0.00305697
-2.39355e-12
0.00457486
0.00305804
-1.74891e-08
0.00457486
0.00305804
0.00457439
0.00305697
-2.01468e-08
0.00266581
0.00524835
-4.1112e-12
0.00266653
0.00524846
2.0144e-08
0.00266653
0.00524846
0.00266581
0.00524835
-1.12261e-09
0.0432574
0.01017
5.66452e-13
0.0432561
0.0101704
1.12322e-09
0.0432561
0.0101704
0.0432574
0.01017
1.8567e-08
-0.00501522
0.00575027
-1.91373e-12
-0.00501422
0.00575017
-1.85669e-08
-0.00501422
0.00575017
-0.00501522
0.00575027
2.0076e-08
-0.0043475
0.00238923
-5.64037e-12
-0.00434908
0.00239292
-2.00789e-08
-0.00434908
0.00239292
-0.0043475
0.00238923
-1.08138e-08
-0.00283573
0.00185892
-6.08142e-12
-0.00283738
0.00185764
1.08116e-08
-0.00283738
0.00185764
-0.00283573
0.00185892
6.19864e-09
-0.00136076
0.00215892
2.10998e-12
-0.00136216
0.0021594
-6.19953e-09
-0.00136216
0.0021594
-0.00136076
0.00215892
-1.77873e-08
0.00244512
1.08509e-11
0.00244532
1.77662e-08
0.00244532
0.00244512
-3.80185e-09
-0.00450434
0.00115863
1.69479e-12
-0.00450201
0.0011575
3.80469e-09
-0.00450201
0.0011575
-0.00450434
0.00115863
-9.34217e-09
-0.00253335
0.000897295