/*--------------------------------*- C++ -*----------------------------------*\
| =========                 |                                                 |
| \\      /  F ield         | OpenFOAM: The Open Source CFD Toolbox           |
|  \\    /   O peration     | Version:  v1806                                 |
|   \\  /    A nd           | Web:      www.OpenFOAM.com                      |
|    \\/     M anipulation  |                                                 |
\*---------------------------------------------------------------------------*/
FoamFile
{
    version     2.0;
    format      ascii;
    class       volScalarField;
    location    "10";
    object      p;
}
// * * * * * * * * * * * * * * * * * * * * * * * * * * * * * * * * * * * * * //

dimensions      [0 2 -2 0 0 0 0];


internalField   nonuniform List<scalar> 
5004
(
0.00100493
0.00100488
0.00100488
0.00100493
0.00106069
0.00106066
0.00106066
0.00106069
0.000928851
0.000928659
0.000928659
0.000928851
0.000904932
0.000904731
0.000904731
0.000904932
0.000922649
0.000922556
0.000922557
0.000922649
0.00082004
0.000819987
0.000819987
0.00082004
0.000821852
0.000821837
0.000821837
0.000821852
0.000842292
0.000842219
0.000842219
0.000842292
0.0338705
0.0338727
0.0338727
0.0338705
0.0341562
0.0341599
0.0341599
0.0341562
0.0337042
0.0337069
0.0337069
0.0337042
0.00106656
0.00106633
0.00106633
0.00106656
0.00119928
0.0011991
0.0011991
0.00119928
0.0332068
0.0332089
0.0332089
0.0332068
0.0339376
0.0339407
0.0339407
0.0339376
0.0322402
0.0322451
0.0322451
0.0322402
0.0298871
0.0298922
0.0298922
0.0298871
0.0293314
0.0293405
0.0293405
0.0293314
0.00175187
0.00175037
0.00175037
0.00175187
0.00148939
0.00148946
0.00148946
0.00148939
0.00162864
0.0016268
0.0016268
0.00162864
0.00265459
0.00265816
0.00265816
0.00265459
0.0349208
0.0349224
0.0349224
0.0349208
0.00250095
0.00250011
0.00250011
0.00250095
0.00155905
0.00155866
0.00155866
0.00155905
0.00139765
0.00139875
0.00139875
0.00139765
0.00142272
0.00142205
0.00142205
0.00142272
0.00131454
0.00131451
0.00131451
0.00131454
0.00118949
0.00118987
0.00118987
0.00118949
0.00123718
0.00123693
0.00123693
0.00123718
0.00267209
0.0026696
0.0026696
0.00267209
0.00361991
0.00362226
0.00362226
0.00361991
0.0281753
0.0281729
0.0281729
0.0281753
0.0303727
0.0303747
0.0303747
0.0303727
0.0315412
0.0315455
0.0315455
0.0315412
0.0324205
0.0324259
0.0324259
0.0324205
0.0331751
0.0331805
0.0331805
0.0331751
0.00117874
0.00117876
0.00117876
0.00117874
0.00106675
0.00106661
0.00106661
0.00106675
0.0239771
0.023973
0.023973
0.0239771
0.0332497
0.0332583
0.0332583
0.0332497
0.0042915
0.00429015
0.00429015
0.0042915
0.00509417
0.00509435
0.00509435
0.00509417
0.00591262
0.00591247
0.00591247
0.00591262
0.00678702
0.006787
0.006787
0.00678702
0.00773905
0.00773899
0.00773899
0.00773905
0.00878498
0.00878514
0.00878514
0.00878498
0.00994442
0.0099447
0.0099447
0.00994442
0.0112535
0.0112538
0.0112538
0.0112535
0.0126904
0.0126912
0.0126912
0.0126904
0.0142465
0.014247
0.014247
0.0142465
0.0159172
0.0159166
0.0159166
0.0159172
0.0177903
0.0177984
0.0177984
0.0177903
0.0193991
0.0193932
0.0193932
0.0193991
0.0233239
0.0233289
0.0233289
0.0233239
0.0262756
0.0262789
0.0262789
0.0262756
0.028393
0.0283965
0.0283965
0.028393
0.0298685
0.0298712
0.0298712
0.0298685
0.0311453
0.0311526
0.0311526
0.0311453
0.001039
0.00103909
0.00103909
0.001039
0.0349161
0.0349244
0.0349244
0.0349161
0.0333982
0.0334052
0.0334052
0.0333982
0.032359
0.0323549
0.0323549
0.032359
0.00216094
0.00216035
0.00216035
0.00216094
0.00190004
0.0019015
0.0019015
0.00190004
0.00164838
0.00164845
0.00164845
0.00164838
0.0014542
0.00145466
0.00145466
0.0014542
0.0012661
0.00126641
0.00126641
0.0012661
0.00109544
0.00109569
0.00109569
0.00109544
0.00103822
0.00103827
0.00103827
0.00103822
0.000965758
0.000965723
0.000965723
0.000965758
0.000913719
0.000913847
0.000913847
0.000913719
0.0321538
0.0321591
0.0321591
0.0321538
0.0347197
0.0347259
0.0347259
0.0347197
0.0326935
0.0326931
0.0326931
0.0326936
0.0328311
0.0328441
0.0328441
0.0328312
0.0325639
0.0325677
0.0325677
0.0325639
0.0329173
0.0329272
0.0329272
0.0329173
0.0341358
0.034138
0.034138
0.0341358
0.034401
0.03441
0.03441
0.034401
0.0348557
0.0348655
0.0348655
0.0348557
0.0353526
0.0353619
0.0353619
0.0353526
0.0354974
0.035507
0.035507
0.0354974
0.0352675
0.0352746
0.0352746
0.0352675
0.0347491
0.034755
0.034755
0.0347491
0.0328647
0.0328658
0.0328658
0.0328647
0.00137022
0.00136988
0.00136988
0.00137022
0.0310845
0.0310891
0.0310891
0.0310845
0.0297838
0.0297891
0.0297891
0.0297838
0.0282828
0.0282857
0.0282857
0.0282828
0.0265158
0.0265179
0.0265179
0.0265158
0.0242895
0.0242885
0.0242885
0.0242895
0.0218277
0.0218263
0.0218263
0.0218277
0.0190354
0.0190297
0.0190297
0.0190354
0.0173004
0.0173053
0.0173053
0.0173004
0.0155644
0.0155635
0.0155635
0.0155644
0.0139452
0.013945
0.013945
0.0139452
0.0124392
0.0124397
0.0124397
0.0124392
0.0110445
0.0110448
0.0110448
0.0110445
0.00975529
0.00975531
0.00975531
0.00975529
0.00859343
0.00859364
0.00859364
0.00859343
0.00756973
0.00756986
0.00756986
0.00756973
0.00662053
0.00662056
0.00662056
0.00662053
0.00574997
0.00574985
0.00574985
0.00574997
0.00495787
0.00495805
0.00495805
0.00495788
0.00421776
0.00421734
0.00421734
0.00421776
0.00355442
0.00355569
0.00355569
0.00355442
0.00286278
0.00286217
0.00286217
0.00286278
0.00239646
0.00239669
0.00239669
0.00239646
0.00203985
0.00204011
0.00204011
0.00203985
0.001752
0.00175201
0.00175201
0.001752
0.00152055
0.00152068
0.00152068
0.00152055
0.00131475
0.00131489
0.00131489
0.00131475
0.00112879
0.00112894
0.00112894
0.00112879
0.000967991
0.000968154
0.000968154
0.000967991
0.000946918
0.000947111
0.000947111
0.000946918
0.000910251
0.000910341
0.000910341
0.000910251
0.000858107
0.000858124
0.000858124
0.000858107
0.000806884
0.000807024
0.000807024
0.000806884
0.000752554
0.000752711
0.000752711
0.000752554
0.000856259
0.00085636
0.00085636
0.000856259
0.00097402
0.000974082
0.000974082
0.00097402
0.00109594
0.00109575
0.00109575
0.00109594
0.00118362
0.00118336
0.00118336
0.00118362
0.00125542
0.00125485
0.00125485
0.00125542
0.0320634
0.0320611
0.0320611
0.0320634
0.0314262
0.0314246
0.0314246
0.0314262
0.0332659
0.0332694
0.0332694
0.0332659
0.0312164
0.0312179
0.0312179
0.0312164
0.0339695
0.0339733
0.0339733
0.0339695
0.0308955
0.030891
0.030891
0.0308955
0.00107888
0.00107894
0.00107894
0.00107888
0.00103654
0.00103676
0.00103676
0.00103654
0.000966101
0.000966072
0.000966072
0.000966101
0.000874789
0.000874833
0.000874832
0.000874789
0.000784566
0.000784611
0.000784611
0.000784566
0.000694146
0.000694213
0.000694213
0.000694146
0.0290805
0.0290909
0.0290909
0.0290805
0.0307896
0.0307903
0.0307903
0.0307896
0.0318155
0.0318176
0.0318176
0.0318155
0.032792
0.0327925
0.0327925
0.032792
0.0335358
0.0335429
0.0335429
0.0335358
0.0340035
0.0340132
0.0340132
0.0340035
0.0341393
0.0341481
0.0341481
0.0341393
0.0350094
0.0350176
0.0350176
0.0350094
0.0355205
0.035527
0.035527
0.0355205
0.0356827
0.035688
0.035688
0.0356827
0.035516
0.035523
0.035523
0.035516
0.0350325
0.0350402
0.0350402
0.0350325
0.0342861
0.0342947
0.0342947
0.0342861
0.0332795
0.0332873
0.0332873
0.0332795
0.0329158
0.0329189
0.0329189
0.0329158
0.0321655
0.0321677
0.0321677
0.0321655
0.0310674
0.03107
0.0310699
0.0310674
0.0297769
0.0297786
0.0297786
0.0297769
0.0283398
0.0283434
0.0283434
0.0283398
0.0267639
0.0267677
0.0267677
0.0267639
0.0249783
0.0249807
0.0249807
0.0249783
0.0229174
0.0229168
0.0229168
0.0229174
0.0207894
0.0207892
0.0207892
0.0207894
0.0185601
0.0185568
0.0185568
0.0185601
0.016762
0.0167649
0.0167649
0.016762
0.015048
0.0150474
0.0150474
0.015048
0.0135066
0.0135059
0.0135059
0.0135066
0.0120808
0.0120807
0.0120807
0.0120808
0.0107178
0.010718
0.010718
0.0107178
0.00947355
0.0094734
0.0094734
0.00947355
0.00835641
0.00835648
0.00835648
0.00835641
0.00733657
0.00733643
0.00733643
0.00733657
0.00640678
0.00640656
0.00640656
0.00640678
0.00557663
0.00557622
0.00557622
0.00557663
0.00483061
0.00483053
0.00483053
0.00483061
0.00412599
0.00412538
0.00412538
0.00412599
0.00350399
0.00350465
0.00350465
0.00350399
0.00290198
0.0029009
0.0029009
0.00290198
0.00245274
0.00245266
0.00245266
0.00245274
0.00209318
0.0020934
0.0020934
0.00209318
0.00179677
0.0017969
0.0017969
0.00179677
0.00154642
0.00154666
0.00154666
0.00154642
0.0013253
0.00132553
0.00132553
0.0013253
0.00113497
0.00113523
0.00113523
0.00113497
0.000968415
0.000968664
0.000968664
0.000968415
0.000821306
0.00082153
0.00082153
0.000821306
0.000828247
0.000828415
0.000828415
0.000828247
0.000816056
0.00081621
0.00081621
0.000816056
0.000790123
0.000790237
0.000790237
0.000790123
0.000751954
0.000752014
0.000752014
0.000751954
0.000707081
0.000707201
0.000707201
0.000707081
0.000659819
0.000659918
0.000659918
0.000659819
0.000607879
0.000607929
0.000607929
0.000607879
0.000553351
0.000553383
0.000553383
0.000553351
0.000627832
0.000627864
0.000627864
0.000627832
0.000700569
0.000700565
0.000700565
0.000700569
0.000775573
0.000775547
0.000775547
0.000775573
0.000848941
0.000848813
0.000848813
0.000848941
0.000897574
0.000897514
0.000897514
0.000897574
0.000930711
0.000930623
0.000930623
0.000930711
0.000959694
0.000959633
0.000959633
0.000959694
0.0011604
0.00116071
0.00116071
0.0011604
0.000694436
0.000694613
0.000694613
0.000694436
0.00070444
0.000704603
0.000704603
0.00070444
0.000698607
0.000698741
0.000698741
0.000698607
0.000680059
0.000680181
0.000680181
0.000680059
0.000650718
0.000650811
0.000650811
0.000650718
0.000614058
0.000614176
0.000614176
0.000614058
0.000573876
0.000573966
0.000573966
0.000573876
0.000528973
0.000529024
0.000529024
0.000528973
0.000479941
0.000479969
0.000479969
0.000479941
0.0320616
0.0320679
0.0320679
0.0320616
0.0316645
0.031667
0.031667
0.0316645
0.0308373
0.0308392
0.0308392
0.0308373
0.0296502
0.0296542
0.0296542
0.0296502
0.0282822
0.0282865
0.0282865
0.0282821
0.026798
0.0268027
0.0268027
0.026798
0.0251993
0.0252038
0.0252038
0.0251993
0.0235079
0.023509
0.023509
0.0235079
0.0215435
0.0215421
0.0215421
0.0215435
0.0196206
0.0196195
0.0196195
0.0196206
0.0176838
0.0176815
0.0176815
0.0176838
0.0159643
0.0159641
0.0159641
0.0159643
0.0143483
0.0143466
0.0143466
0.0143483
0.0128627
0.012862
0.012862
0.0128627
0.0115408
0.0115412
0.0115412
0.0115408
0.0102792
0.0102796
0.0102796
0.0102792
0.00908295
0.00908273
0.00908273
0.00908295
0.00800757
0.00800739
0.00800739
0.00800757
0.00701859
0.00701833
0.00701833
0.00701859
0.00613807
0.00613781
0.00613782
0.00613807
0.00535428
0.00535399
0.00535399
0.00535428
0.00464516
0.00464523
0.00464523
0.00464516
0.00399792
0.00399788
0.00399788
0.00399792
0.00341357
0.00341404
0.00341404
0.00341357
0.00289075
0.00289057
0.00289057
0.00289075
0.00245446
0.00245473
0.00245473
0.00245446
0.00209258
0.0020929
0.0020929
0.00209258
0.00178666
0.0017869
0.0017869
0.00178666
0.00153109
0.0015314
0.0015314
0.00153109
0.00130628
0.00130655
0.00130655
0.00130628
0.00111288
0.00111308
0.00111308
0.00111288
0.000951202
0.000951422
0.000951422
0.000951202
0.000805445
0.000805688
0.000805688
0.000805445
0.000674979
0.000675135
0.000675135
0.000674979
0.0250569
0.0250541
0.0250541
0.0250569
0.0265716
0.0265734
0.0265734
0.0265716
0.0339829
0.0339934
0.0339934
0.0339829
0.0348374
0.0348464
0.0348464
0.0348374
0.0353592
0.0353674
0.0353674
0.0353592
0.0355461
0.0355545
0.0355545
0.0355461
0.0353992
0.0354074
0.0354074
0.0353992
0.0349432
0.0349531
0.0349531
0.0349432
0.0342039
0.0342162
0.0342162
0.0342039
0.0332205
0.0332318
0.0332318
0.0332205
0.0320072
0.0320166
0.0320166
0.0320072
0.0277219
0.0277232
0.0277232
0.0277219
0.0290922
0.0290927
0.0290927
0.0290922
0.0303287
0.0303317
0.0303317
0.0303287
0.0313872
0.0313908
0.0313908
0.0313872
0.0322459
0.0322518
0.0322518
0.0322459
0.0327762
0.0327825
0.0327825
0.0327762
0.0330066
0.0330155
0.0330155
0.0330066
0.0328127
0.032826
0.032826
0.0328126
0.0190323
0.0190419
0.0190419
0.0190323
0.0218245
0.0218304
0.0218304
0.0218245
0.0237714
0.0237754
0.0237754
0.0237714
0.0253844
0.0253855
0.0253855
0.0253844
0.0269922
0.0269914
0.0269914
0.0269922
0.0284099
0.0284123
0.0284123
0.0284099
0.0295602
0.0295671
0.0295671
0.0295602
0.0304724
0.0304812
0.0304812
0.0304724
0.0311199
0.0311254
0.0311254
0.0311199
0.0314608
0.0314701
0.0314701
0.0314608
0.0312772
0.0312884
0.0312884
0.0312772
0.030602
0.030614
0.030614
0.030602
0.0321401
0.032153
0.032153
0.0321401
0.0333519
0.0333642
0.0333642
0.0333519
0.0342151
0.0342271
0.0342271
0.0342151
0.0347437
0.0347559
0.0347559
0.0347437
0.0349512
0.0349642
0.0349642
0.0349512
0.0348448
0.0348587
0.0348587
0.0348448
0.0344256
0.0344399
0.0344399
0.0344256
0.0336983
0.0337138
0.0337138
0.0336983
0.0327074
0.0327229
0.0327229
0.0327074
0.0314945
0.0315101
0.0315101
0.0314945
0.0299825
0.0299953
0.0299953
0.0299825
0.0305256
0.0305323
0.0305323
0.0305256
0.0305229
0.0305278
0.0305278
0.0305229
0.0300271
0.0300336
0.0300336
0.0300271
0.0291664
0.0291753
0.0291753
0.0291664
0.028071
0.0280778
0.0280778
0.028071
0.0266257
0.0266285
0.0266285
0.0266257
0.0250841
0.0250865
0.0250865
0.0250841
0.0234931
0.0234949
0.0234949
0.0234931
0.021817
0.0218175
0.0218175
0.021817
0.0200446
0.0200436
0.0200436
0.0200446
0.0182977
0.018297
0.018297
0.0182977
0.0165921
0.0165905
0.0165905
0.0165921
0.0149785
0.0149781
0.0149781
0.0149785
0.0134345
0.013433
0.013433
0.0134345
0.0120475
0.0120465
0.0120465
0.0120475
0.0107854
0.0107851
0.0107851
0.0107854
0.00963368
0.00963344
0.00963344
0.00963368
0.00852418
0.00852376
0.00852376
0.00852418
0.00752299
0.00752272
0.00752272
0.00752299
0.00660498
0.00660481
0.00660481
0.00660498
0.00577071
0.00577056
0.00577056
0.00577071
0.0050299
0.00502973
0.00502973
0.0050299
0.00436924
0.00436926
0.00436926
0.00436924
0.0037775
0.00377747
0.00377747
0.0037775
0.00324069
0.00324093
0.00324093
0.00324069
0.00276469
0.00276475
0.00276475
0.00276469
0.00236152
0.00236173
0.00236174
0.00236152
0.00201686
0.00201708
0.00201708
0.00201686
0.00171923
0.00171941
0.00171941
0.00171923
0.00146777
0.00146797
0.00146797
0.00146777
0.0012521
0.00125232
0.00125232
0.0012521
0.00106544
0.00106565
0.00106565
0.00106544
0.000906541
0.000906806
0.000906806
0.000906541
0.000770632
0.000770893
0.000770893
0.000770632
0.000647707
0.000647882
0.000647882
0.000647707
0.000565878
0.000566004
0.000566004
0.000565878
0.00058405
0.000584181
0.000584181
0.00058405
0.000593538
0.000593676
0.000593676
0.000593538
0.000591352
0.000591474
0.000591474
0.000591352
0.000578175
0.000578284
0.000578284
0.000578175
0.000556274
0.000556361
0.000556361
0.000556274
0.000527342
0.000527427
0.000527427
0.000527342
0.000493895
0.000493964
0.000493964
0.000493895
0.000455375
0.000455414
0.000455414
0.000455375
0.000414394
0.000414413
0.000414413
0.000414394
0.000372045
0.000372066
0.000372066
0.000372045
0.000434506
0.00043452
0.00043452
0.000434506
0.00049586
0.00049587
0.00049587
0.00049586
0.000557705
0.000557743
0.000557743
0.000557705
0.000620848
0.000620842
0.000620842
0.000620848
0.000684565
0.000684541
0.000684541
0.000684565
0.000739572
0.000739567
0.000739567
0.000739572
0.00078152
0.000781523
0.000781523
0.00078152
0.000811713
0.000811706
0.000811706
0.000811713
0.00100768
0.00100793
0.00100793
0.00100768
0.000538832
0.000538955
0.000538955
0.000538832
0.000873334
0.000873163
0.000873163
0.000873334
0.000329845
0.000329856
0.000329856
0.000329846
0.000381497
0.00038154
0.00038154
0.000381497
0.000433247
0.000433264
0.000433264
0.000433247
0.000486172
0.000486226
0.000486226
0.000486172
0.000538985
0.000539062
0.000539062
0.000538985
0.000590596
0.00059068
0.00059068
0.000590596
0.000638113
0.000638169
0.000638169
0.000638113
0.000676342
0.000676383
0.000676383
0.000676342
0.000707936
0.000707967
0.000707967
0.000707936
0.000729785
0.000729805
0.000729805
0.000729785
0.00074692
0.000746933
0.000746933
0.00074692
0.000781669
0.000781738
0.000781738
0.000781669
0.000906482
0.000906466
0.000906466
0.000906482
0.000815474
0.000815339
0.000815339
0.000815474
0.000444267
0.000444367
0.000444367
0.000444267
0.000469409
0.000469515
0.000469515
0.000469409
0.000486345
0.000486457
0.000486457
0.000486345
0.000494723
0.000494834
0.000494834
0.000494723
0.000493739
0.000493847
0.000493847
0.000493739
0.000484511
0.000484603
0.000484603
0.000484511
0.000467993
0.000468064
0.000468064
0.000467993
0.000445523
0.000445585
0.000445585
0.000445523
0.000418065
0.000418108
0.000418108
0.000418065
0.000386155
0.000386177
0.000386177
0.000386155
0.00035151
0.000351519
0.000351519
0.00035151
0.000315826
0.000315826
0.000315826
0.000315826
0.000279036
0.000279028
0.000279028
0.000279036
0.0282109
0.0282269
0.0282269
0.0282109
0.028687
0.0286967
0.0286967
0.028687
0.0285747
0.0285819
0.0285819
0.0285747
0.0280407
0.0280488
0.0280488
0.0280407
0.0272085
0.0272154
0.0272154
0.0272085
0.0260747
0.0260784
0.0260784
0.0260747
0.0246441
0.0246443
0.0246443
0.0246441
0.0231127
0.0231121
0.0231121
0.0231127
0.0215241
0.021525
0.021525
0.0215241
0.0199544
0.0199557
0.0199557
0.0199544
0.0183565
0.0183562
0.0183562
0.0183565
0.0167451
0.0167449
0.0167449
0.0167451
0.0152225
0.0152214
0.0152214
0.0152225
0.0137554
0.013755
0.013755
0.0137554
0.0123509
0.0123505
0.0123505
0.0123509
0.0110422
0.0110424
0.0110424
0.0110422
0.0098827
0.00988333
0.00988333
0.0098827
0.0088035
0.00880408
0.00880408
0.0088035
0.00781006
0.00781036
0.00781036
0.00781006
0.00688913
0.00688905
0.00688905
0.00688913
0.00605742
0.00605747
0.00605747
0.00605742
0.00529501
0.0052951
0.0052951
0.00529501
0.00461294
0.004613
0.004613
0.00461294
0.00401125
0.00401139
0.00401139
0.00401125
0.00347705
0.00347739
0.00347739
0.00347705
0.00299096
0.00299147
0.00299147
0.00299096
0.00256342
0.00256374
0.00256374
0.00256342
0.00219454
0.00219484
0.00219484
0.00219454
0.00187576
0.00187599
0.00187599
0.00187576
0.00160151
0.00160167
0.00160167
0.00160151
0.00136597
0.00136623
0.00136623
0.00136597
0.00116474
0.00116501
0.00116501
0.00116474
0.000992367
0.00099262
0.00099262
0.000992367
0.000843104
0.000843408
0.000843408
0.000843104
0.000713258
0.000713488
0.000713488
0.000713258
0.000599373
0.00059953
0.00059953
0.000599373
0.000498613
0.00049873
0.00049873
0.000498613
0.000410127
0.000410219
0.000410219
0.000410127
0.0295214
0.0295316
0.0295316
0.0295214
0.0310949
0.0311068
0.0311068
0.0310949
0.0322964
0.0323062
0.0323062
0.0322964
0.0331649
0.0331746
0.0331746
0.0331649
0.0337071
0.0337179
0.0337179
0.0337071
0.0339319
0.0339435
0.0339435
0.0339319
0.0338379
0.0338495
0.0338495
0.0338379
0.03345
0.033462
0.033462
0.03345
0.032752
0.0327651
0.0327651
0.032752
0.0317583
0.0317719
0.0317719
0.0317583
0.0305
0.0305162
0.0305162
0.0305
0.028913
0.0289256
0.0289256
0.028913
0.027171
0.02719
0.02719
0.027171
0.0172952
0.0173007
0.0173007
0.0172952
0.0195112
0.019519
0.019519
0.0195112
0.0212408
0.0212464
0.0212464
0.0212408
0.0229006
0.0229023
0.0229023
0.0229006
0.0245476
0.0245458
0.0245458
0.0245476
0.02603
0.0260293
0.0260293
0.02603
0.0272931
0.0272964
0.0272964
0.0272931
0.0283088
0.0283171
0.0283171
0.0283088
0.0290368
0.0290452
0.0290452
0.0290368
0.0294415
0.0294526
0.0294526
0.0294415
0.0293394
0.0293511
0.0293511
0.0293394
0.0287962
0.0288125
0.0288125
0.0287962
0.0277413
0.027759
0.027759
0.0277413
0.0150142
0.0150151
0.0150151
0.0150142
0.0115231
0.0115219
0.0115219
0.0115231
0.00907296
0.00907673
0.00907673
0.00907296
0.000883806
0.000884074
0.000884074
0.000883807
0.000240071
0.000240061
0.000240061
0.000240071
0.000281707
0.000281706
0.000281706
0.000281707
0.000324611
0.000324637
0.000324637
0.000324611
0.000368514
0.000368536
0.000368536
0.000368514
0.000412128
0.000412155
0.000412155
0.000412128
0.000455993
0.000456056
0.000456056
0.000455993
0.000499663
0.000499768
0.000499768
0.000499663
0.000541493
0.000541586
0.000541586
0.000541493
0.000578944
0.000579033
0.000579033
0.000578944
0.000613392
0.000613482
0.000613482
0.000613392
0.000645716
0.000645802
0.000645802
0.000645716
0.000682369
0.000682476
0.000682476
0.000682369
0.000737577
0.000737683
0.000737683
0.000737577
0.000817278
0.000817483
0.000817483
0.000817279
0.0109551
0.0109579
0.0109579
0.0109551
0.0131191
0.0131171
0.0131171
0.0131191
0.0151448
0.0151447
0.0151447
0.0151448
0.0170162
0.0170219
0.0170219
0.0170162
0.018641
0.0186461
0.0186461
0.018641
0.0202323
0.0202352
0.0202352
0.0202323
0.0218195
0.0218189
0.0218189
0.0218195
0.0233034
0.0233027
0.0233027
0.0233034
0.0246073
0.0246086
0.0246086
0.0246073
0.0256886
0.0256941
0.0256941
0.0256886
0.0264796
0.0264869
0.0264869
0.0264796
0.0269092
0.0269182
0.0269182
0.0269092
0.0268755
0.0268841
0.0268841
0.0268755
0.0263217
0.0263313
0.0263313
0.0263217
0.0251928
0.0251989
0.0251989
0.0251928
0.0237413
0.0237328
0.0237327
0.0237413
0.0263401
0.0263451
0.0263451
0.0263401
0.0281363
0.0281321
0.0281321
0.0281363
0.0297522
0.0297518
0.0297518
0.0297522
0.0309819
0.0309797
0.0309797
0.0309819
0.0318698
0.0318669
0.0318669
0.0318698
0.0324213
0.0324184
0.0324184
0.0324213
0.0326627
0.0326604
0.0326604
0.0326627
0.0325946
0.0325926
0.0325926
0.0325946
0.0322169
0.0322154
0.0322154
0.0322169
0.0315257
0.0315246
0.0315246
0.0315257
0.030534
0.0305334
0.0305334
0.030534
0.0292375
0.0292395
0.0292395
0.0292375
0.027611
0.0276098
0.0276098
0.027611
0.0258506
0.0258609
0.0258609
0.0258506
0.0232581
0.0232555
0.0232555
0.0232581
0.0246955
0.0247034
0.0247034
0.0246955
0.0257909
0.0258
0.0258
0.0257909
0.0263025
0.0263088
0.0263088
0.0263025
0.0261973
0.0262024
0.0262024
0.0261973
0.0256626
0.0256695
0.0256695
0.0256626
0.0247895
0.0247937
0.0247937
0.0247895
0.0236537
0.0236567
0.0236567
0.0236537
0.0222993
0.0223003
0.0223003
0.0222993
0.0208289
0.020829
0.020829
0.0208289
0.0193258
0.0193274
0.0193274
0.0193258
0.0178584
0.0178609
0.0178609
0.0178584
0.0163805
0.0163822
0.0163822
0.0163805
0.0149597
0.0149597
0.0149597
0.0149597
0.0135652
0.0135643
0.0135643
0.0135652
0.0122632
0.0122638
0.0122638
0.0122632
0.0110187
0.0110194
0.0110194
0.0110187
0.00986452
0.00986528
0.00986528
0.00986452
0.00879924
0.00880069
0.00880069
0.00879924
0.00782503
0.00782575
0.00782575
0.00782503
0.00693664
0.00693695
0.00693695
0.00693664
0.00611773
0.00611788
0.00611788
0.00611773
0.00538154
0.00538161
0.00538161
0.00538154
0.00471174
0.00471197
0.00471197
0.00471174
0.00410741
0.00410766
0.00410766
0.00410741
0.00357026
0.00357067
0.00357067
0.00357026
0.00309249
0.00309312
0.00309312
0.00309249
0.00267023
0.0026707
0.0026707
0.00267023
0.00229186
0.00229209
0.00229209
0.00229186
0.00196176
0.00196192
0.00196192
0.00196176
0.0016796
0.00167976
0.00167976
0.0016796
0.00143433
0.00143452
0.00143452
0.00143433
0.00122394
0.00122422
0.00122422
0.00122394
0.00104357
0.00104384
0.00104384
0.00104357
0.000887238
0.00088742
0.00088742
0.000887238
0.000754594
0.000754818
0.000754818
0.000754594
0.000637415
0.000637596
0.000637596
0.000637415
0.000536027
0.000536161
0.000536161
0.000536027
0.000446395
0.000446504
0.000446504
0.000446395
0.000366646
0.000366726
0.000366726
0.000366646
0.000296147
0.000296199
0.000296199
0.000296147
0.000331746
0.0003318
0.0003318
0.000331746
0.0003608
0.000360875
0.000360875
0.0003608
0.000382879
0.000382966
0.000382966
0.000382879
0.000397464
0.000397554
0.000397554
0.000397464
0.000404956
0.000405052
0.000405052
0.000404956
0.000404814
0.000404898
0.000404898
0.000404814
0.000398167
0.000398242
0.000398242
0.000398167
0.000385668
0.000385728
0.000385728
0.000385668
0.000368177
0.000368225
0.000368225
0.000368177
0.000346388
0.000346411
0.000346411
0.000346388
0.000321113
0.000321118
0.000321118
0.000321113
0.000292637
0.000292631
0.000292631
0.000292637
0.000262894
0.000262881
0.000262881
0.000262894
0.000231659
0.00023165
0.00023165
0.000231659
0.000199238
0.000199223
0.000199223
0.000199238
0.000166326
0.000166311
0.000166311
0.000166326
0.000198754
0.000198729
0.000198729
0.000198754
0.000231967
0.000231958
0.000231958
0.000231967
0.000267049
0.000267065
0.000267065
0.000267049
0.000301893
0.000301927
0.000301927
0.000301893
0.00033734
0.000337373
0.000337373
0.00033734
0.000373605
0.000373668
0.000373668
0.000373605
0.000409866
0.000409977
0.000409977
0.000409866
0.000446011
0.000446132
0.000446132
0.000446011
0.000481112
0.000481233
0.000481233
0.000481112
0.000516613
0.000516744
0.000516744
0.000516613
0.000554275
0.000554406
0.000554406
0.000554275
0.00060275
0.000602912
0.000602912
0.00060275
0.000670105
0.000670263
0.000670263
0.000670105
0.000761498
0.000761725
0.000761725
0.000761498
0.000910835
0.00091086
0.00091086
0.000910835
0.000876632
0.000876693
0.000876693
0.000876632
0.0010629
0.00106354
0.00106354
0.0010629
0.00105202
0.00105241
0.00105241
0.00105202
0.00122536
0.00122464
0.00122464
0.00122536
0.00128585
0.00128543
0.00128544
0.00128585
0.0017387
0.00174058
0.00174058
0.0017387
0.0212562
0.0212743
0.0212743
0.0212562
0.0224905
0.0225171
0.0225171
0.0224905
0.0233291
0.0233501
0.0233501
0.0233291
0.0236161
0.0236259
0.0236259
0.0236161
0.023385
0.0233906
0.0233906
0.023385
0.0227959
0.0228016
0.0228016
0.0227959
0.0219138
0.0219165
0.0219165
0.0219138
0.0207949
0.0207975
0.0207975
0.0207949
0.0195438
0.0195452
0.0195452
0.0195438
0.0181811
0.0181816
0.0181816
0.0181811
0.0168075
0.0168086
0.0168086
0.0168075
0.0154725
0.0154749
0.0154749
0.0154725
0.014152
0.0141537
0.0141537
0.014152
0.012877
0.012877
0.012877
0.012877
0.0116556
0.0116556
0.0116556
0.0116556
0.0105192
0.0105205
0.0105205
0.0105192
0.00945775
0.00945854
0.00945854
0.00945775
0.00845555
0.00845578
0.00845578
0.00845555
0.0075367
0.00753758
0.00753758
0.0075367
0.00669036
0.00669068
0.00669068
0.00669036
0.00591598
0.0059163
0.0059163
0.00591598
0.00522141
0.00522174
0.00522174
0.00522141
0.00458902
0.00458932
0.00458932
0.00458902
0.00402002
0.00402039
0.00402039
0.00402002
0.00350764
0.0035079
0.0035079
0.00350764
0.00304888
0.00304937
0.00304937
0.00304888
0.00264123
0.0026417
0.0026417
0.00264123
0.00227881
0.00227909
0.00227909
0.00227881
0.00195906
0.00195929
0.00195929
0.00195906
0.00167988
0.00168003
0.00168003
0.00167988
0.00143739
0.00143759
0.00143759
0.00143739
0.00122902
0.00122924
0.00122924
0.00122902
0.00104892
0.00104913
0.00104913
0.00104892
0.000893815
0.000894023
0.000894023
0.000893815
0.000759982
0.000760141
0.000760141
0.000759982
0.000644645
0.000644837
0.000644837
0.000644645
0.000545573
0.000545737
0.000545737
0.000545573
0.000458455
0.000458581
0.000458581
0.000458455
0.000382224
0.000382317
0.000382317
0.000382224
0.000314634
0.000314703
0.000314703
0.000314634
0.000253282
0.000253318
0.000253318
0.000253282
0.000199444
0.00019946
0.00019946
0.000199444
0.000233067
0.000233092
0.000233092
0.000233067
0.00026209
0.000262129
0.000262129
0.00026209
0.000285699
0.000285754
0.000285754
0.000285699
0.000303733
0.000303808
0.000303808
0.000303733
0.000315701
0.000315772
0.000315772
0.0003157
0.000321904
0.000321976
0.000321976
0.000321904
0.000322427
0.000322495
0.000322495
0.000322427
0.000317808
0.000317868
0.000317868
0.000317808
0.000308528
0.000308577
0.000308577
0.000308528
0.000295197
0.000295235
0.000295235
0.000295197
0.000278421
0.000278443
0.000278443
0.000278421
0.000258728
0.000258734
0.000258734
0.000258728
0.000236452
0.00023644
0.00023644
0.000236452
0.00021236
0.000212347
0.000212347
0.00021236
0.000186796
0.000186782
0.000186782
0.000186796
0.000160618
0.000160593
0.000160593
0.000160618
0.000133708
0.000133695
0.000133695
0.000133708
0.00203277
0.0020318
0.0020318
0.00203277
0.00283201
0.00283348
0.00283348
0.00283201
0.00377621
0.00377768
0.00377768
0.00377621
0.00504138
0.00504311
0.00504311
0.00504138
0.00658022
0.00657952
0.00657952
0.00658022
0.0081561
0.00815462
0.00815461
0.0081561
0.00961934
0.00961836
0.00961836
0.00961934
0.0112877
0.0112907
0.0112907
0.0112877
0.0128953
0.0128955
0.0128955
0.0128953
0.0144688
0.0144719
0.0144719
0.0144688
0.0159291
0.0159334
0.0159334
0.0159291
0.0173828
0.0173855
0.0173855
0.0173828
0.0188384
0.0188397
0.0188397
0.0188384
0.0202248
0.0202256
0.0202256
0.0202248
0.0215013
0.0215029
0.0215029
0.0215013
0.0225878
0.0225914
0.0225914
0.0225878
0.0234374
0.0234432
0.0234432
0.0234374
0.0239669
0.0239763
0.0239763
0.0239669
0.0240883
0.0241023
0.0241023
0.0240883
0.0237656
0.0237879
0.0237879
0.0237656
0.0229067
0.022932
0.022932
0.0229067
0.0216528
0.0216649
0.0216649
0.0216528
0.0201355
0.0201464
0.0201464
0.0201355
0.0222907
0.022282
0.022282
0.0222907
0.0248444
0.0248481
0.0248481
0.0248443
0.0267042
0.0266989
0.0266989
0.0267042
0.0283054
0.0283046
0.0283046
0.0283054
0.0295559
0.0295544
0.0295544
0.0295559
0.0304649
0.0304634
0.0304634
0.0304649
0.0310464
0.0310451
0.0310451
0.0310464
0.031304
0.0313029
0.0313029
0.031304
0.0312456
0.0312447
0.0312447
0.0312456
0.0308744
0.0308735
0.0308735
0.0308744
0.030193
0.0301918
0.0301918
0.030193
0.0292068
0.0292061
0.0292061
0.0292068
0.0278966
0.0278963
0.0278963
0.0278966
0.0262836
0.0262805
0.0262805
0.0262836
0.0243905
0.0243962
0.0243962
0.0243905
0.0218538
0.0218452
0.0218452
0.0218538
0.0197761
0.0197892
0.0197892
0.0197761
0.0157244
0.0157138
0.0157138
0.0157244
0.0169492
0.0169449
0.0169449
0.0169492
0.0183886
0.0183939
0.0183939
0.0183886
0.0195996
0.0196066
0.0196066
0.0195996
0.0200917
0.0200942
0.0200942
0.0200917
0.0199498
0.0199528
0.0199528
0.0199498
0.0193996
0.019404
0.019404
0.0193996
0.0185496
0.018553
0.018553
0.0185496
0.017513
0.0175166
0.0175166
0.017513
0.0163693
0.0163712
0.0163712
0.0163693
0.015142
0.0151429
0.0151429
0.015142
0.0139283
0.0139296
0.0139296
0.0139283
0.0127595
0.0127617
0.0127617
0.0127595
0.0116357
0.0116371
0.0116371
0.0116357
0.0105431
0.0105434
0.0105434
0.0105431
0.00951917
0.00952004
0.00952004
0.00951917
0.0085693
0.00857044
0.00857044
0.0085693
0.00768437
0.0076851
0.0076851
0.00768437
0.0068608
0.00686118
0.00686118
0.0068608
0.00610664
0.0061072
0.0061072
0.00610664
0.00541583
0.00541625
0.00541625
0.00541583
0.0047857
0.00478612
0.00478612
0.0047857
0.00421655
0.00421698
0.00421698
0.00421655
0.00370226
0.00370265
0.00370265
0.00370226
0.0032406