x,y,z,U_0,U_1,U_2
0,0,0,0.3,-0.000165595,0
0,0.1,0,0.3,-0.000118282,0
0,0.2,0,0.3,-7.09691e-05,0
0,0.3,0,0.3,-2.36564e-05,0
0,0.4,0,0.3,0,0
0,0.5,0,0.3,0,0
0,0.6,0,0.3,0,0
0,0.7,0,0.3,0,0
0,0.8,0,0.3,0,0
0,0.9,0,0.3,0,0
0,1,0,0.3,0,0
0,1.1,0,0.3,0,0
0,1.2,0,0.3,0,0
0,1.3,0,0.3,0,0
0,1.4,0,0.3,0,0
0,1.5,0,0.3,0,0
0,1.6,0,0.3,0,0
0,1.7,0,0.3,0,0
0,1.8,0,0.3,0,0
0,1.9,0,0.3,0,0
0,2,0,0.3,0,0
0,2.1,0,0.3,0,0
0,2.2,0,0.3,0,0
0,2.3,0,0.3,0,0
0,2.4,0,0.3,0,0
0,2.5,0,0.3,0,0
0,2.6,0,0.3,0,0
0,2.7,0,0.3,0,0
0,2.8,0,0.3,0,0
0,2.9,0,0.3,0,0
0,3,0,0.3,0,0
0,3.1,0,0.3,0,0
0,3.2,0,0.3,0,0
0,3.3,0,0.3,0,0
0,3.4,0,0.3,0,0
0,3.5,0,0.3,0,0
0,3.6,0,0.3,0,0
0,3.7,0,0.3,0,0
0,3.8,0,0.3,0,0
0,3.9,0,0.3,0,0
0,4,0,0.3,0,0
0,4.1,0,0.3,0,0
0,4.2,0,0.3,0,0
0,4.3,0,0.3,0,0
0,4.4,0,0.3,0,0
0,4.5,0,0.3,0,0
0,4.6,0,0.3,0,0
0,4.7,0,0.3,0,0
0,4.8,0,0.3,0,0
0,4.9,0,0.3,0,0
0,5,0,0.3,0,0
0,5.1,0,0.3,0,0
0,5.2,0,0.3,0,0
0,5.3,0,0.3,0,0
0,5.4,0,0.3,0,0
0,5.5,0,0.3,0,0
0,5.6,0,0.3,0,0
0,5.7,0,0.3,0,0
0,5.8,0,0.3,0,0
0,5.9,0,0.3,0,0
0,6,0,0.3,0,0
0,6.1,0,0.3,0,0
0,6.2,0,0.3,0,0
0,6.3,0,0.3,0,0
0,6.4,0,0.3,0,0
0,6.5,0,0.3,0,0
0,6.6,0,0.3,0,0
0,6.7,0,0.3,0,0
0,6.8,0,0.3,0,0
0,6.9,0,0.3,0,0
0,7,0,0.3,0,0
0,7.1,0,0.3,0,0
0,7.2,0,0.3,0,0
0,7.3,0,0.3,0,0
0,7.4,0,0.3,0,0
0,7.5,0,0.3,0,0
0,7.6,0,0.3,0,0
0,7.7,0,0.3,0,0
0,7.8,0,0.3,0,0
0,7.9,0,0.3,0,0
0,8,0,0.3,0,0
0,8.1,0,0.3,0,0
0,8.2,0,0.3,0,0
0,8.3,0,0.3,0,0
0,8.4,0,0.3,0,0
0,8.5,0,0.3,0,0
0,8.6,0,0.3,0,0
0,8.7,0,0.3,0,0
0,8.8,0,0.3,0,0
0,8.9,0,0.3,0,0
0,9,0,0.3,0,0
0,9.1,0,0.3,0,0
0,9.2,0,0.3,0,0
0,9.3,0,0.3,0,0
0,9.4,0,0.3,0,0
0,9.5,0,0.3,0,0
0,9.6,0,0.3,0,0
0,9.7,0,0.3,0,0
0,9.8,0,0.3,0,0
0,9.9,0,0.3,0,0
0,10,0,0.3,0,0
0,10.1,0,0.3,0,0
0,10.2,0,0.3,0,0
0,10.3,0,0.3,0,0
0,10.4,0,0.3,0,0
0,10.5,0,0.3,0,0
0,10.6,0,0.3,0,0
0,10.7,0,0.3,0,0
0,10.8,0,0.3,0,0
0,10.9,0,0.3,0,0
0,11,0,0.3,0,0
0,11.1,0,0.3,0,0
0,11.2,0,0.3,0,0
0,11.3,0,0.3,0,0
0,11.4,0,0.3,0,0
0,11.5,0,0.3,0,0
0,11.6,0,0.3,0,0
0,11.7,0,0.3,0,0
0,11.8,0,0.3,0,0
0,11.9,0,0.3,0,0
0,12,0,0.3,0,0
0,12.1,0,0.3,0,0
0,12.2,0,0.3,0,0
0,12.3,0,0.3,0,0
0,12.4,0,0.3,0,0
0,12.5,0,0.3,2.25842e-05,0
0,12.6,0,0.300001,8.71106e-05,0
0,12.7,0,0.300002,0.000151637,0
0.1,0,0,0.3,-0.000250439,0
0.1,0.1,0,0.3,-0.000201116,0
0.1,0.2,0,0.3,-0.000153804,0
0.1,0.3,0,0.3,-0.000108429,0
0.1,0.4,0,0.3,-0.000107628,0
0.1,0.5,0,0.3,-0.000107448,0
0.1,0.6,0,0.3,-0.000107448,0
0.1,0.7,0,0.299999,-0.000108926,0
0.1,0.8,0,0.3,-0.000105724,0
0.1,0.9,0,0.3,-0.000105724,0
0.1,1,0,0.3,-0.000105829,0
0.1,1.1,0,0.3,-0.000103412,0
0.1,1.2,0,0.3,-0.000103121,0
0.1,1.3,0,0.3,-0.000103121,0
0.1,1.4,0,0.299997,-0.000104799,0
0.1,1.5,0,0.299999,-9.96406e-05,0
0.1,1.6,0,0.299999,-9.96406e-05,0
0.1,1.7,0,0.299999,-9.97907e-05,0
0.1,1.8,0,0.299999,-9.57404e-05,0
0.1,1.9,0,0.299999,-9.52788e-05,0
0.1,2,0,0.299999,-9.52788e-05,0
0.1,2.1,0,0.299996,-9.80404e-05,0
0.1,2.2,0,0.299999,-9.00434e-05,0
0.1,2.3,0,0.299999,-9.00434e-05,0
0.1,2.4,0,0.299998,-9.03054e-05,0
0.1,2.5,0,0.299998,-8.46622e-05,0
0.1,2.6,0,0.299998,-8.39662e-05,0
0.1,2.7,0,0.299998,-8.39662e-05,0
0.1,2.8,0,0.299994,-8.87707e-05,0
0.1,2.9,0,0.299998,-7.71151e-05,0
0.1,3,0,0.299998,-7.71151e-05,0
0.1,3.1,0,0.299998,-7.75521e-05,0
0.1,3.2,0,0.299997,-7.05818e-05,0
0.1,3.3,0,0.299998,-6.96086e-05,0
0.1,3.4,0,0.299998,-6.96086e-05,0
0.1,3.5,0,0.299993,-7.71095e-05,0
0.1,3.6,0,0.299997,-6.16317e-05,0
0.1,3.7,0,0.299997,-6.16317e-05,0
0.1,3.8,0,0.299996,-6.22582e-05,0
0.1,3.9,0,0.299995,-5.46565e-05,0
0.1,4,0,0.299996,-5.34452e-05,0
0.1,4.1,0,0.299996,-5.34452e-05,0
0.1,4.2,0,0.299993,-6.31068e-05,0
0.1,4.3,0,0.299995,-4.53806e-05,0
0.1,4.4,0,0.299995,-4.53806e-05,0
0.1,4.5,0,0.299995,-4.60822e-05,0
0.1,4.6,0,0.299994,-3.90464e-05,0
0.1,4.7,0,0.299994,-3.78037e-05,0
0.1,4.8,0,0.299994,-3.78037e-05,0
0.1,4.9,0,0.299993,-4.66626e-05,0
0.1,5,0,0.299995,-3.10298e-05,0
0.1,5.1,0,0.299995,-3.10298e-05,0
0.1,5.2,0,0.299995,-3.14897e-05,0
0.1,5.3,0,0.299998,-2.60693e-05,0
0.1,5.4,0,0.299998,-2.51926e-05,0
0.1,5.5,0,0.299998,-2.51926e-05,0
0.1,5.6,0,0.299992,-2.7629e-05,0
0.1,5.7,0,0.300005,-2.01135e-05,0
0.1,5.8,0,0.300005,-2.01135e-05,0
0.1,5.9,0,0.300004,-1.99069e-05,0
0.1,6,0,0.300014,-1.53796e-05,0
0.1,6.1,0,0.300016,-1.52379e-05,0
0.1,6.2,0,0.300016,-1.52379e-05,0
0.1,6.3,0,0.29999,-6.34265e-06,0
0.1,6.4,0,0.30003,-9.52714e-06,0
0.1,6.5,0,0.30003,-9.52714e-06,0
0.1,6.6,0,0.300027,-8.49564e-06,0
0.1,6.7,0,0.30004,-2.6913e-06,0
0.1,6.8,0,0.300044,-3.27631e-06,0
0.1,6.9,0,0.300044,-3.27631e-06,0
0.1,7,0,0.299986,1.38922e-05,0
0.1,7.1,0,0.299985,1.83805e-05,0
0.1,7.2,0,0.299985,2.10344e-05,0
0.1,7.3,0,0.299984,2.366e-05,0
0.1,7.4,0,0.299984,2.62821e-05,0
0.1,7.5,0,0.299984,2.88959e-05,0
0.1,7.6,0,0.299984,3.14976e-05,0
0.1,7.7,0,0.299984,3.40848e-05,0
0.1,7.8,0,0.299984,3.66549e-05,0
0.1,7.9,0,0.299984,3.92235e-05,0
0.1,8,0,0.299985,4.27281e-05,0
0.1,8.1,0,0.300061,5.21966e-05,0
0.1,8.2,0,0.300059,5.20736e-05,0
0.1,8.3,0,0.300054,5.92046e-05,0
0.1,8.4,0,0.300054,5.92046e-05,0
0.1,8.5,0,0.300035,6.34076e-05,0
0.1,8.6,0,0.300045,6.51225e-05,0
0.1,8.7,0,0.299997,6.21388e-05,0
0.1,8.8,0,0.300034,6.99477e-05,0
0.1,8.9,0,0.300034,6.99477e-05,0
0.1,9,0,0.300023,7.3632e-05,0
0.1,9.1,0,0.300023,7.3632e-05,0
0.1,9.2,0,0.300006,7.57354e-05,0
0.1,9.3,0,0.300012,7.63412e-05,0
0.1,9.4,0,0.299999,7.92764e-05,0
0.1,9.5,0,0.300003,7.83335e-05,0
0.1,9.6,0,0.300003,7.83335e-05,0
0.1,9.7,0,0.299996,7.98988e-05,0
0.1,9.8,0,0.299996,7.98988e-05,0
0.1,9.9,0,0.299993,8.58485e-05,0
0.1,10,0,0.299991,8.13138e-05,0
0.1,10.1,0,0.299994,9.01428e-05,0
0.1,10.2,0,0.299989,8.28025e-05,0
0.1,10.3,0,0.299989,8.28025e-05,0
0.1,10.4,0,0.299988,8.4504e-05,0
0.1,10.5,0,0.299988,8.4504e-05,0
0.1,10.6,0,0.299993,9.72862e-05,0
0.1,10.7,0,0.299989,8.64671e-05,0
0.1,10.8,0,0.299992,9.63379e-05,0
0.1,10.9,0,0.29999,8.86572e-05,0
0.1,11,0,0.29999,8.86572e-05,0
0.1,11.1,0,0.299992,9.09803e-05,0
0.1,11.2,0,0.299992,9.09803e-05,0
0.1,11.3,0,0.299996,0.000108597,0
0.1,11.4,0,0.299994,9.33077e-05,0
0.1,11.5,0,0.299995,0.000100539,0
0.1,11.6,0,0.299997,9.55022e-05,0
0.1,11.7,0,0.299997,9.55022e-05,0
0.1,11.8,0,0.299998,9.74378e-05,0
0.1,11.9,0,0.299998,9.74378e-05,0
0.1,12,0,0.299998,0.000117202,0
0.1,12.1,0,0.3,9.90148e-05,0
0.1,12.2,0,0.299999,0.000102791,0
0.1,12.3,0,0.300001,0.000100165,0
0.1,12.4,0,0.300001,0.000100165,0
0.1,12.5,0,0.300001,0.000101501,0
0.1,12.6,0,0.300003,0.000164611,0
0.1,12.7,0,0.300001,0.000250416,0
0.2,0,0,0.299999,-0.000335284,0
0.2,0.1,0,0.3,-0.000284238,0
0.2,0.2,0,0.3,-0.000236638,0
0.2,0.3,0,0.299999,-0.000218399,0
0.2,0.4,0,0.299999,-0.000217598,0
0.2,0.5,0,0.3,-0.000214896,0
0.2,0.6,0,0.3,-0.000215107,0
0.2,0.7,0,0.299997,-0.000217852,0
0.2,0.8,0,0.299999,-0.000211905,0
0.2,0.9,0,0.299999,-0.000211448,0
0.2,1,0,0.299997,-0.000213028,0
0.2,1.1,0,0.299997,-0.000210611,0
0.2,1.2,0,0.299999,-0.000206242,0
0.2,1.3,0,0.299999,-0.000206482,0
0.2,1.4,0,0.299994,-0.000209597,0
0.2,1.5,0,0.299998,-0.000200018,0
0.2,1.6,0,0.299999,-0.000199281,0
0.2,1.7,0,0.299995,-0.000201532,0
0.2,1.8,0,0.299995,-0.000197482,0
0.2,1.9,0,0.299998,-0.000190558,0
0.2,2,0,0.299998,-0.000190952,0
0.2,2.1,0,0.299991,-0.000196081,0
0.2,2.2,0,0.299997,-0.000181229,0
0.2,2.3,0,0.299998,-0.000180087,0
0.2,2.4,0,0.299993,-0.000184017,0
0.2,2.5,0,0.299993,-0.000178374,0
0.2,2.6,0,0.299997,-0.000167932,0
0.2,2.7,0,0.299996,-0.000168619,0
0.2,2.8,0,0.299989,-0.000177541,0
0.2,2.9,0,0.299996,-0.000155895,0
0.2,3,0,0.299996,-0.00015423,0
0.2,3.1,0,0.299992,-0.000160785,0
0.2,3.2,0,0.299991,-0.000153815,0
0.2,3.3,0,0.299995,-0.000139217,0
0.2,3.4,0,0.299994,-0.000140289,0
0.2,3.5,0,0.299986,-0.000154219,0
0.2,3.6,0,0.299993,-0.000125474,0
0.2,3.7,0,0.299993,-0.000123263,0
0.2,3.8,0,0.299989,-0.000132661,0
0.2,3.9,0,0.299988,-0.000125059,0
0.2,4,0,0.299991,-0.00010689,0
0.2,4.1,0,0.299991,-0.000108271,0
0.2,4.2,0,0.299985,-0.000126214,0
0.2,4.3,0,0.299989,-9.32935e-05,0
0.2,4.4,0,0.29999,-9.07612e-05,0
0.2,4.5,0,0.299987,-0.000101284,0
0.2,4.6,0,0.299987,-9.42487e-05,0
0.2,4.7,0,0.299989,-7.56074e-05,0
0.2,4.8,0,0.299989,-7.68729e-05,0
0.2,4.9,0,0.299985,-9.33252e-05,0
0.2,5,0,0.29999,-6.42929e-05,0
0.2,5.1,0,0.29999,-6.20597e-05,0
0.2,5.2,0,0.299987,-6.8957e-05,0
0.2,5.3,0,0.29999,-6.35366e-05,0
0.2,5.4,0,0.299997,-5.03851e-05,0
0.2,5.5,0,0.299996,-5.07332e-05,0
0.2,5.6,0,0.299984,-5.5258e-05,0
0.2,5.7,0,0.300008,-4.13006e-05,0
0.2,5.8,0,0.30001,-4.0227e-05,0
0.2,5.9,0,0.299995,-3.71287e-05,0
0.2,6,0,0.300005,-3.26013e-05,0
0.2,6.1,0,0.300031,-3.04758e-05,0
0.2,6.2,0,0.300028,-2.92051e-05,0
0.2,6.3,0,0.29998,-1.26853e-05,0
0.2,6.4,0,0.300053,-1.85993e-05,0
0.2,6.5,0,0.300059,-1.90543e-05,0
0.2,6.6,0,0.300014,-3.58182e-06,0
0.2,6.7,0,0.300028,2.22252e-06,0
0.2,6.8,0,0.300088,-6.55262e-06,0
0.2,6.9,0,0.30008,-4.09997e-06,0
0.2,7,0,0.299972,2.77844e-05,0
0.2,7.1,0,0.29997,3.67611e-05,0
0.2,7.2,0,0.29997,4.20688e-05,0
0.2,7.3,0,0.299969,4.732e-05,0
0.2,7.4,0,0.299968,5.25641e-05,0
0.2,7.5,0,0.299968,5.77917e-05,0
0.2,7.6,0,0.299968,6.29952e-05,0
0.2,7.7,0,0.299968,6.81695e-05,0
0.2,7.8,0,0.299968,7.33098e-05,0
0.2,7.9,0,0.299969,7.84471e-05,0
0.2,8,0,0.29997,8.54563e-05,0
0.2,8.1,0,0.300122,0.000104393,0
0.2,8.2,0,0.300045,0.000100416,0
0.2,8.3,0,0.300095,0.000116214,0
0.2,8.4,0,0.300104,0.000118144,0
0.2,8.5,0,0.300023,0.000118455,0
0.2,8.6,0,0.30009,0.000130245,0
0.2,8.7,0,0.299987,0.000123799,0
0.2,8.8,0,0.300068,0.000139895,0
0.2,8.9,0,0.30003,0.000138256,0
0.2,9,0,0.300035,0.000145385,0
0.2,9.1,0,0.300046,0.000147264,0
0.2,9.2,0,0.299999,0.000150113,0
0.2,9.3,0,0.300024,0.000152682,0
0.2,9.4,0,0.299993,0.000159675,0
0.2,9.5,0,0.300006,0.000156667,0
0.2,9.6,0,0.3,0.000162543,0
0.2,9.7,0,0.299991,0.000162772,0
0.2,9.8,0,0.299991,0.000159798,0
0.2,9.9,0,0.299989,0.000177311,0
0.2,10,0,0.299982,0.000162628,0
0.2,10.1,0,0.299991,0.000186546,0
0.2,10.2,0,0.299977,0.000165605,0
0.2,10.3,0,0.299982,0.000176775,0
0.2,10.4,0,0.299981,0.000179128,0
0.2,10.5,0,0.299976,0.000169008,0
0.2,10.6,0,0.29999,0.000202244,0
0.2,10.7,0,0.299977,0.000172934,0
0.2,10.8,0,0.299989,0.000204897,0
0.2,10.9,0,0.29998,0.000177314,0
0.2,11,0,0.299983,0.000188354,0
0.2,11.1,0,0.299988,0.000197623,0
0.2,11.2,0,0.299985,0.000181961,0
0.2,11.3,0,0.299993,0.00022304,0
0.2,11.4,0,0.299989,0.000186615,0
0.2,11.5,0,0.299992,0.000217286,0
0.2,11.6,0,0.299993,0.000191004,0
0.2,11.7,0,0.299993,0.000198881,0
0.2,11.8,0,0.299996,0.000213821,0
0.2,11.9,0,0.299996,0.000194876,0
0.2,12,0,0.299996,0.000237323,0
0.2,12.1,0,0.299999,0.00019803,0
0.2,12.2,0,0.299998,0.000223988,0
0.2,12.3,0,0.300001,0.000201672,0
0.2,12.4,0,0.300001,0.000204717,0
0.2,12.5,0,0.300001,0.000223372,0
0.2,12.6,0,0.300004,0.000242112,0
0.2,12.7,0,0.3,0.000349194,0
0.3,0,0,0.299999,-0.000420128,0
0.3,0.1,0,0.3,-0.000369082,0
0.3,0.2,0,0.3,-0.000325287,0
0.3,0.3,0,0.299998,-0.000328369,0
0.3,0.4,0,0.299998,-0.000327569,0
0.3,0.5,0,0.3,-0.000322884,0
0.3,0.6,0,0.299998,-0.000324033,0
0.3,0.7,0,0.299996,-0.000326778,0
0.3,0.8,0,0.299998,-0.000320832,0
0.3,0.9,0,0.299999,-0.000317488,0
0.3,1,0,0.299995,-0.000320226,0
0.3,1.1,0,0.299995,-0.000317809,0
0.3,1.2,0,0.299999,-0.000310237,0
0.3,1.3,0,0.299996,-0.000311281,0
0.3,1.4,0,0.299991,-0.000314396,0
0.3,1.5,0,0.299996,-0.000304817,0
0.3,1.6,0,0.299997,-0.000299372,0
0.3,1.7,0,0.299992,-0.000303274,0
0.3,1.8,0,0.299991,-0.000299224,0
0.3,1.9,0,0.299997,-0.000287221,0
0.3,2,0,0.299993,-0.000288992,0
0.3,2.1,0,0.299987,-0.000294121,0
0.3,2.2,0,0.299993,-0.00027927,0
0.3,2.3,0,0.299995,-0.000270916,0
0.3,2.4,0,0.299988,-0.000277728,0
0.3,2.5,0,0.299988,-0.000272085,0
0.3,2.6,0,0.299995,-0.000253987,0
0.3,2.7,0,0.299991,-0.000257389,0
0.3,2.8,0,0.299983,-0.000266312,0
0.3,2.9,0,0.29999,-0.000244666,0
0.3,3,0,0.299994,-0.000232656,0
0.3,3.1,0,0.299985,-0.000244018,0
0.3,3.2,0,0.299985,-0.000237048,0
0.3,3.3,0,0.299992,-0.000211745,0
0.3,3.4,0,0.299988,-0.000217398,0
0.3,3.5,0,0.29998,-0.000231328,0
0.3,3.6,0,0.299986,-0.000202584,0
0.3,3.7,0,0.299989,-0.000186775,0
0.3,3.8,0,0.299982,-0.000203064,0
0.3,3.9,0,0.299981,-0.000195462,0
0.3,4,0,0.299986,-0.000163969,0
0.3,4.1,0,0.299984,-0.000171377,0
0.3,4.2,0,0.299978,-0.00018932,0
0.3,4.3,0,0.299982,-0.0001564,0
0.3,4.4,0,0.299984,-0.000138246,0
0.3,4.5,0,0.29998,-0.000156487,0
0.3,4.6,0,0.299979,-0.000149451,0
0.3,4.7,0,0.299983,-0.000117139,0
0.3,4.8,0,0.299981,-0.000123536,0
0.3,4.9,0,0.299978,-0.000139988,0
0.3,5,0,0.299982,-0.000110956,0
0.3,5.1,0,0.299985,-9.4469e-05,0
0.3,5.2,0,0.29998,-0.000106424,0
0.3,5.3,0,0.299983,-0.000101004,0
0.3,5.4,0,0.299994,-7.8208e-05,0
0.3,5.5,0,0.299988,-7.83622e-05,0
0.3,5.6,0,0.299976,-8.2887e-05,0
0.3,5.7,0,0.3,-6.89296e-05,0
0.3,5.8,0,0.300012,-5.97208e-05,0
0.3,5.9,0,0.299986,-5.43504e-05,0
0.3,6,0,0.299996,-4.98231e-05,0
0.3,6.1,0,0.300042,-4.61388e-05,0
0.3,6.2,0,0.300017,-3.55477e-05,0
0.3,6.3,0,0.299969,-1.90279e-05,0
0.3,6.4,0,0.300043,-2.4942e-05,0
0.3,6.5,0,0.30008,-2.54869e-05,0
0.3,6.6,0,0.300002,1.332e-06,0
0.3,6.7,0,0.300015,7.13635e-06,0
0.3,6.8,0,0.30012,-8.0739e-06,0
0.3,6.9,0,0.300066,9.79224e-06,0
0.3,7,0,0.299958,4.16766e-05,0
0.3,7.1,0,0.299956,5.51416e-05,0
0.3,7.2,0,0.299954,6.31032e-05,0
0.3,7.3,0,0.299953,7.09801e-05,0
0.3,7.4,0,0.299952,7.88462e-05,0
0.3,7.5,0,0.299952,8.66876e-05,0
0.3,7.6,0,0.299952,9.44927e-05,0
0.3,7.7,0,0.299952,0.000102254,0
0.3,7.8,0,0.299952,0.000109965,0
0.3,7.9,0,0.299953,0.000117671,0
0.3,8,0,0.299955,0.000128184,0
0.3,8.1,0,0.300166,0.000154374,0
0.3,8.2,0,0.300031,0.000148757,0
0.3,8.3,0,0.300081,0.000164556,0
0.3,8.4,0,0.300092,0.000173192,0
0.3,8.5,0,0.300011,0.000173503,0
0.3,8.6,0,0.300129,0.000195036,0
0.3,8.7,0,0.299976,0.000185459,0
0.3,8.8,0,0.300085,0.000206757,0
0.3,8.9,0,0.300021,0.00020637,0
0.3,9,0,0.300026,0.000213499,0
0.3,9.1,0,0.300041,0.000221586,0
0.3,9.2,0,0.299992,0.00022449,0
0.3,9.3,0,0.300036,0.000229024,0
0.3,9.4,0,0.299988,0.000240074,0
0.3,9.5,0,0.300004,0.000236055,0
0.3,9.6,0,0.299995,0.000248656,0
0.3,9.7,0,0.299986,0.000248886,0
0.3,9.8,0,0.299987,0.0002488,0
0.3,9.9,0,0.299985,0.000268774,0
0.3,10,0,0.299973,0.000243942,0
0.3,10.1,0,0.299987,0.000282949,0
0.3,10.2,0,0.299971,0.000257233,0
0.3,10.3,0,0.299979,0.000277681,0
0.3,10.4,0,0.299978,0.000280034,0
0.3,10.5,0,0.299969,0.000266785,0
0.3,10.6,0,0.299986,0.000307202,0
0.3,10.7,0,0.299966,0.000259401,0
0.3,10.8,0,0.299985,0.000313456,0
0.3,10.9,0,0.299975,0.000281639,0
0.3,11,0,0.29998,0.000300071,0
0.3,11.1,0,0.299984,0.00030934,0
0.3,11.2,0,0.299979,0.000284922,0
0.3,11.3,0,0.299989,0.000337483,0
0.3,11.4,0,0.299983,0.000279923,0
0.3,11.5,0,0.299989,0.000334034,0
0.3,11.6,0,0.29999,0.00030617,0
0.3,11.7,0,0.299991,0.000317519,0
0.3,11.8,0,0.299993,0.00033246,0
0.3,11.9,0,0.299994,0.000300759,0
0.3,12,0,0.299994,0.000357445,0
0.3,12.1,0,0.299999,0.000299065,0
0.3,12.2,0,0.299996,0.000345186,0
0.3,12.3,0,0.3,0.00032287,0
0.3,12.4,0,0.3,0.000326589,0
0.3,12.5,0,0.3,0.000345244,0
0.3,12.6,0,0.300004,0.000324593,0
0.3,12.7,0,0.299999,0.000447973,0
0.4,0,0,0.299998,-0.000504973,0
0.4,0.1,0,0.299999,-0.000453927,0
0.4,0.2,0,0.299999,-0.000435832,0
0.4,0.3,0,0.299998,-0.00043834,0
0.4,0.4,0,0.299998,-0.000437539,0
0.4,0.5,0,0.299999,-0.000433277,0
0.4,0.6,0,0.299997,-0.000432959,0
0.4,0.7,0,0.299994,-0.000435704,0
0.4,0.8,0,0.299996,-0.000429758,0
0.4,0.9,0,0.299996,-0.000425601,0
0.4,1,0,0.299993,-0.000427424,0
0.4,1.1,0,0.299993,-0.000425007,0
0.4,1.2,0,0.299996,-0.000417915,0
0.4,1.3,0,0.299993,-0.000416079,0
0.4,1.4,0,0.299988,-0.000419195,0
0.4,1.5,0,0.299993,-0.000409615,0
0.4,1.6,0,0.299993,-0.000402587,0
0.4,1.7,0,0.299988,-0.000405016,0
0.4,1.8,0,0.299988,-0.000400965,0
0.4,1.9,0,0.299992,-0.000389752,0
0.4,2,0,0.299989,-0.000387033,0
0.4,2.1,0,0.299982,-0.000392162,0
0.4,2.2,0,0.299988,-0.00037731,0
0.4,2.3,0,0.299989,-0.000366912,0
0.4,2.4,0,0.299983,-0.000371439,0
0.4,2.5,0,0.299983,-0.000365796,0
0.4,2.6,0,0.299988,-0.000349071,0
0.4,2.7,0,0.299985,-0.00034616,0
0.4,2.8,0,0.299977,-0.000355083,0
0.4,2.9,0,0.299984,-0.000333437,0
0.4,3,0,0.299986,-0.00031922,0
0.4,3.1,0,0.299979,-0.000327252,0
0.4,3.2,0,0.299978,-0.000320281,0
0.4,3.3,0,0.299984,-0.000297122,0
0.4,3.4,0,0.299981,-0.000294508,0
0.4,3.5,0,0.299973,-0.000308438,0
0.4,3.6,0,0.299979,-0.000279693,0
0.4,3.7,0,0.299981,-0.0002616,0
0.4,3.8,0,0.299975,-0.000273467,0
0.4,3.9,0,0.299974,-0.000265865,0
0.4,4,0,0.299978,-0.000237133,0
0.4,4.1,0,0.299976,-0.000234484,0
0.4,4.2,0,0.29997,-0.000252427,0
0.4,4.3,0,0.299974,-0.000219507,0
0.4,4.4,0,0.299976,-0.000198513,0
0.4,4.5,0,0.299972,-0.000211689,0
0.4,4.6,0,0.299972,-0.000204653,0
0.4,4.7,0,0.299975,-0.000174873,0
0.4,4.8,0,0.299974,-0.000170198,0
0.4,4.9,0,0.29997,-0.00018665,0
0.4,5,0,0.299975,-0.000157618,0
0.4,5.1,0,0.299976,-0.000136403,0
0.4,5.2,0,0.299972,-0.000143892,0
0.4,5.3,0,0.299975,-0.000138471,0
0.4,5.4,0,0.299985,-0.000116371,0
0.4,5.5,0,0.29998,-0.000105991,0
0.4,5.6,0,0.299968,-0.000110516,0
0.4,5.7,0,0.299992,-9.65586e-05,0
0.4,5.8,0,0.299999,-7.90898e-05,0
0.4,5.9,0,0.299978,-7.15721e-05,0
0.4,6,0,0.299988,-6.70448e-05,0
0.4,6.1,0,0.300026,-6.08191e-05,0
0.4,6.2,0,0.300007,-4.18904e-05,0
0.4,6.3,0,0.299959,-2.53706e-05,0
0.4,6.4,0,0.300033,-3.12846e-05,0
0.4,6.5,0,0.300056,-1.96632e-05,0
0.4,6.6,0,0.29999,6.24583e-06,0
0.4,6.7,0,0.300003,1.20502e-05,0
0.4,6.8,0,0.300091,1.74522e-06,0
0.4,6.9,0,0.300052,2.36844e-05,0
0.4,7,0,0.299944,5.55688e-05,0
0.4,7.1,0,0.299941,7.35221e-05,0
0.4,7.2,0,0.299939,8.41375e-05,0
0.4,7.3,0,0.299938,9.46401e-05,0
0.4,7.4,0,0.299936,0.000105128,0
0.4,7.5,0,0.299936,0.000115583,0
0.4,7.6,0,0.299936,0.00012599,0
0.4,7.7,0,0.299936,0.000136339,0
0.4,7.8,0,0.299936,0.00014662,0
0.4,7.9,0,0.299938,0.000156894,0
0.4,8,0,0.29994,0.000170913,0
0.4,8.1,0,0.300131,0.000196077,0
0.4,8.2,0,0.300017,0.000197099,0
0.4,8.3,0,0.300067,0.000212897,0
0.4,8.4,0,0.30008,0.000228239,0
0.4,8.5,0,0.299998,0.000228551,0
0.4,8.6,0,0.300096,0.000252623,0
0.4,8.7,0,0.299966,0.000247118,0
0.4,8.8,0,0.300069,0.000268183,0
0.4,8.9,0,0.300012,0.000274483,0
0.4,9,0,0.300017,0.000281612,0
0.4,9.1,0,0.300034,0.000295963,0
0.4,9.2,0,0.299985,0.000298868,0
0.4,9.3,0,0.300021,0.000308184,0
0.4,9.4,0,0.299982,0.000320472,0
0.4,9.5,0,0.299998,0.000316454,0
0.4,9.6,0,0.29999,0.000334769,0
0.4,9.7,0,0.299982,0.000334999,0
0.4,9.8,0,0.299983,0.000340263,0
0.4,9.9,0,0.299981,0.000360237,0
0.4,10,0,0.299972,0.000344526,0
0.4,10.1,0,0.299983,0.000379353,0
0.4,10.2,0,0.299967,0.000353637,0
0.4,10.3,0,0.299975,0.000378587,0
0.4,10.4,0,0.299974,0.00038094,0
0.4,10.5,0,0.299966,0.000371743,0
0.4,10.6,0,0.299983,0.00041216,0
0.4,10.7,0,0.299966,0.000376056,0
0.4,10.8,0,0.299981,0.000422015,0
0.4,10.9,0,0.299972,0.000390198,0
0.4,11,0,0.299976,0.000411788,0
0.4,11.1,0,0.299981,0.000421057,0
0.4,11.2,0,0.299976,0.000399365,0
0.4,11.3,0,0.299986,0.000451926,0
0.4,11.4,0,0.299981,0.000406184,0
0.4,11.5,0,0.299986,0.000450781,0
0.4,11.6,0,0.299987,0.000422917,0
0.4,11.7,0,0.299988,0.000436158,0
0.4,11.8,0,0.29999,0.000451098,0
0.4,11.9,0,0.299992,0.000423587,0
0.4,12,0,0.299992,0.000477566,0
0.4,12.1,0,0.299996,0.000428154,0
0.4,12.2,0,0.299995,0.000466384,0
0.4,12.3,0,0.299998,0.000444068,0
0.4,12.4,0,0.299999,0.00044846,0
0.4,12.5,0,0.299999,0.000467115,0
0.4,12.6,0,0.300003,0.000435172,0
0.4,12.7,0,0.299998,0.000546751,0
0.5,0,0,0.299998,-0.000589818,0
0.5,0.1,0,0.299999,-0.000548463,0
0.5,0.2,0,0.299998,-0.000547812,0
0.5,0.3,0,0.299997,-0.00054831,0
0.5,0.4,0,0.299997,-0.000547509,0
0.5,0.5,0,0.299997,-0.000544725,0
0.5,0.6,0,0.299995,-0.000542786,0
0.5,0.7,0,0.299993,-0.000544631,0
0.5,0.8,0,0.299994,-0.00053921,0
0.5,0.9,0,0.299993,-0.000536002,0
0.5,1,0,0.299991,-0.000534623,0
0.5,1.1,0,0.299991,-0.000532206,0
0.5,1.2,0,0.299991,-0.000526791,0
0.5,1.3,0,0.29999,-0.000522334,0
0.5,1.4,0,0.299985,-0.000523993,0
0.5,1.5,0,0.299989,-0.000515165,0
0.5,1.6,0,0.299987,-0.000509487,0
0.5,1.7,0,0.299984,-0.000506757,0
0.5,1.8,0,0.299984,-0.000502707,0
0.5,1.9,0,0.299985,-0.000494255,0
0.5,2,0,0.299983,-0.000487381,0
0.5,2.1,0,0.299978,-0.000490202,0
0.5,2.2,0,0.299982,-0.00047666,0
0.5,2.3,0,0.299981,-0.000468621,0
0.5,2.4,0,0.299978,-0.000465151,0
0.5,2.5,0,0.299978,-0.000459508,0
0.5,2.6,0,0.299979,-0.000447587,0
0.5,2.7,0,0.299978,-0.000438411,0
0.5,2.8,0,0.299971,-0.000443853,0
0.5,2.9,0,0.299977,-0.000424392,0
0.5,3,0,0.299976,-0.000414108,0
0.5,3.1,0,0.299973,-0.000410485,0
0.5,3.2,0,0.299972,-0.000403515,0
0.5,3.3,0,0.299974,-0.000387856,0
0.5,3.4,0,0.299973,-0.000376483,0
0.5,3.5,0,0.299966,-0.000385547,0
0.5,3.6,0,0.299971,-0.000359935,0
0.5,3.7,0,0.29997,-0.00034748,0
0.5,3.8,0,0.299968,-0.00034387,0
0.5,3.9,0,0.299967,-0.000336268,0
0.5,4,0,0.299968,-0.000317197,0
0.5,4.1,0,0.299968,-0.000303647,0
0.5,4.2,0,0.299963,-0.000315534,0
0.5,4.3,0,0.299966,-0.000286122,0
0.5,4.4,0,0.299966,-0.000271442,0
0.5,4.5,0,0.299965,-0.000266891,0
0.5,4.6,0,0.299964,-0.000259856,0
0.5,4.7,0,0.299966,-0.000238934,0
0.5,4.8,0,0.299966,-0.000223074,0
0.5,4.9,0,0.299963,-0.000233313,0
0.5,5,0,0.299966,-0.00020658,0
0.5,5.1,0,0.299966,-0.000189503,0
0.5,5.2,0,0.299965,-0.000181359,0
0.5,5.3,0,0.299968,-0.000175939,0
0.5,5.4,0,0.299971,-0.000156275,0
0.5,5.5,0,0.29997,-0.000138004,0
0.5,5.6,0,0.29996,-0.000138145,0
0.5,5.7,0,0.299979,-0.000123155,0
0.5,5.8,0,0.299978,-0.000103827,0
0.5,5.9,0,0.299969,-8.87938e-05,0
0.5,6,0,0.299979,-8.42665e-05,0
0.5,6.1,0,0.299991,-6.91455e-05,0
0.5,6.2,0,0.299988,-4.89415e-05,0
0.5,6.3,0,0.299949,-3.17132e-05,0
0.5,6.4,0,0.300008,-3.24698e-05,0
0.5,6.5,0,0.300004,-1.15649e-05,0
0.5,6.6,0,0.299977,1.11597e-05,0
0.5,6.7,0,0.299991,1.6964e-05,0
0.5,6.8,0,0.300021,2.38276e-05,0
0.5,6.9,0,0.300018,4.05017e-05,0
0.5,7,0,0.29993,6.9461e-05,0
0.5,7.1,0,0.299926,9.19027e-05,0
0.5,7.2,0,0.299924,0.000105172,0
0.5,7.3,0,0.299922,0.0001183,0
0.5,7.4,0,0.299921,0.00013141,0
0.5,7.5,0,0.29992,0.000144479,0
0.5,7.6,0,0.29992,0.000157488,0
0.5,7.7,0,0.29992,0.000170424,0
0.5,7.8,0,0.299921,0.000183275,0
0.5,7.9,0,0.299922,0.000196118,0
0.5,8,0,0.299925,0.000213641,0
0.5,8.1,0,0.300041,0.00023495,0
0.5,8.2,0,0.300003,0.000245441,0
0.5,8.3,0,0.300033,0.000260001,0
0.5,8.4,0,0.300038,0.000278549,0
0.5,8.5,0,0.299986,0.000283599,0
0.5,8.6,0,0.300028,0.000304208,0
0.5,8.7,0,0.299955,0.000308778,0
0.5,8.8,0,0.300016,0.000328008,0
0.5,8.9,0,0.300004,0.000342596,0
0.5,9,0,0.300004,0.000349844,0
0.5,9.1,0,0.300009,0.000367171,0
0.5,9.2,0,0.299978,0.000373245,0
0.5,9.3,0,0.299996,0.000386619,0
0.5,9.4,0,0.299976,0.000400871,0
0.5,9.5,0,0.299985,0.000404549,0
0.5,9.6,0,0.299986,0.000420882,0
0.5,9.7,0,0.299977,0.000421358,0
0.5,9.8,0,0.299979,0.000436155,0
0.5,9.9,0,0.299977,0.0004517,0
0.5,10,0,0.299973,0.000451078,0
0.5,10.1,0,0.29998,0.000475756,0
0.5,10.2,0,0.29997,0.000465447,0
0.5,10.3,0,0.299971,0.000479493,0
0.5,10.4,0,0.299971,0.000481846,0
0.5,10.5,0,0.29997,0.00049066,0
0.5,10.6,0,0.299979,0.000517118,0
0.5,10.7,0,0.29997,0.000503106,0
0.5,10.8,0,0.299978,0.000530574,0
0.5,10.9,0,0.299973,0.000515193,0
0.5,11,0,0.299973,0.000523928,0
0.5,11.1,0,0.299977,0.000532774,0
0.5,11.2,0,0.299977,0.000534324,0
0.5,11.3,0,0.299983,0.000566369,0
0.5,11.4,0,0.29998,0.000544067,0
0.5,11.5,0,0.299983,0.000567529,0
0.5,11.6,0,0.299985,0.000552956,0
0.5,11.7,0,0.299986,0.000558187,0
0.5,11.8,0,0.299988,0.000569737,0
0.5,11.9,0,0.299989,0.000564909,0
0.5,12,0,0.29999,0.000597687,0
0.5,12.1,0,0.299993,0.000570458,0
0.5,12.2,0,0.299993,0.000587582,0
0.5,12.3,0,0.299996,0.000574734,0
0.5,12.4,0,0.299998,0.000576596,0
0.5,12.5,0,0.299998,0.000588986,0
0.5,12.6,0,0.3,0.000578321,0
0.5,12.7,0,0.299997,0.00064553,0
0.6,0,0,0.299998,-0.000674662,0
0.6,0.1,0,0.299997,-0.000660443,0
0.6,0.2,0,0.299997,-0.000659792,0
0.6,0.3,0,0.299996,-0.000659142,0
0.6,0.4,0,0.299996,-0.000658113,0
0.6,0.5,0,0.299994,-0.000656174,0
0.6,0.6,0,0.299993,-0.000654235,0
0.6,0.7,0,0.299991,-0.000653557,0
0.6,0.8,0,0.299991,-0.000649611,0
0.6,0.9,0,0.299989,-0.000646402,0
0.6,1,0,0.299988,-0.000643193,0
0.6,1.1,0,0.299987,-0.000640123,0
0.6,1.2,0,0.299986,-0.000635667,0
0.6,1.3,0,0.299985,-0.00063121,0
0.6,1.4,0,0.299982,-0.000628792,0
0.6,1.5,0,0.299983,-0.000622064,0
0.6,1.6,0,0.299981,-0.000616387,0
0.6,1.7,0,0.29998,-0.000610709,0
0.6,1.8,0,0.299979,-0.000605632,0
0.6,1.9,0,0.299978,-0.000598758,0
0.6,2,0,0.299976,-0.000591885,0
0.6,2.1,0,0.299973,-0.000588242,0
0.6,2.2,0,0.299974,-0.000578369,0
0.6,2.3,0,0.299973,-0.000570329,0
0.6,2.4,0,0.299972,-0.000562289,0
0.6,2.5,0,0.299971,-0.000555278,0
0.6,2.6,0,0.29997,-0.000546103,0
0.6,2.7,0,0.299969,-0.000536927,0
0.6,2.8,0,0.299966,-0.000532624,0
0.6,2.9,0,0.299967,-0.000519281,0
0.6,3,0,0.299966,-0.000508997,0
0.6,3.1,0,0.299965,-0.000498713,0
0.6,3.2,0,0.299964,-0.000489962,0
0.6,3.3,0,0.299963,-0.00047859,0
0.6,3.4,0,0.299962,-0.000467217,0
0.6,3.5,0,0.299959,-0.000462657,0
0.6,3.6,0,0.29996,-0.000445816,0
0.6,3.7,0,0.29996,-0.000433361,0
0.6,3.8,0,0.299959,-0.000420906,0
0.6,3.9,0,0.299958,-0.000410812,0
0.6,4,0,0.299958,-0.000397262,0
0.6,4.1,0,0.299957,-0.000383712,0
0.6,4.2,0,0.299956,-0.000378641,0
0.6,4.3,0,0.299957,-0.00035905,0
0.6,4.4,0,0.299957,-0.00034437,0
0.6,4.5,0,0.299956,-0.00032969,0
0.6,4.6,0,0.299956,-0.000318854,0
0.6,4.7,0,0.299956,-0.000302995,0
0.6,4.8,0,0.299956,-0.000287136,0
0.6,4.9,0,0.299955,-0.000279975,0
0.6,5,0,0.299956,-0.00025968,0
0.6,5.1,0,0.299956,-0.000242603,0
0.6,5.2,0,0.299956,-0.000225526,0
0.6,5.3,0,0.299958,-0.00021445,0
0.6,5.4,0,0.299957,-0.000196179,0
0.6,5.5,0,0.299956,-0.000177908,0
0.6,5.6,0,0.299952,-0.000165774,0
0.6,5.7,0,0.299958,-0.000147892,0
0.6,5.8,0,0.299956,-0.000128564,0
0.6,5.9,0,0.299955,-0.000109237,0
0.6,6,0,0.299959,-9.7676e-05,0
0.6,6.1,0,0.299956,-7.7472e-05,0
0.6,6.2,0,0.299954,-5.7268e-05,0
0.6,6.3,0,0.299939,-3.80559e-05,0
0.6,6.4,0,0.299956,-2.43715e-05,0
0.6,6.5,0,0.299952,-3.46661e-06,0
0.6,6.6,0,0.299948,1.74383e-05,0
0.6,6.7,0,0.299954,2.92358e-05,0
0.6,6.8,0,0.299951,4.59099e-05,0
0.6,6.9,0,0.299947,6.2584e-05,0
0.6,7,0,0.299916,8.33532e-05,0
0.6,7.1,0,0.299911,0.000110283,0
0.6,7.2,0,0.299909,0.000126206,0
0.6,7.3,0,0.299907,0.00014196,0
0.6,7.4,0,0.299905,0.000157692,0
0.6,7.5,0,0.299904,0.000173375,0
0.6,7.6,0,0.299904,0.000188985,0
0.6,7.7,0,0.299904,0.000204509,0
0.6,7.8,0,0.299905,0.00021993,0
0.6,7.9,0,0.299907,0.000235341,0
0.6,8,0,0.29991,0.000256369,0
0.6,8.1,0,0.299951,0.000273824,0
0.6,8.2,0,0.299954,0.000289351,0
0.6,8.3,0,0.299953,0.000304186,0
0.6,8.4,0,0.299957,0.000322734,0
0.6,8.5,0,0.299956,0.000337505,0
0.6,8.6,0,0.29996,0.000355793,0
0.6,8.7,0,0.299945,0.000370438,0
0.6,8.8,0,0.299963,0.000387834,0
0.6,8.9,0,0.299968,0.000405684,0
0.6,9,0,0.299965,0.000418703,0
0.6,9.1,0,0.29997,0.000436029,0
0.6,9.2,0,0.299968,0.0004484,0
0.6,9.3,0,0.299971,0.000465054,0
0.6,9.4,0,0.299971,0.00048127,0
0.6,9.5,0,0.299972,0.000492727,0
0.6,9.6,0,0.299975,0.000508533,0
0.6,9.7,0,0.299973,0.000519035,0
0.6,9.8,0,0.299974,0.000533832,0
0.6,9.9,0,0.299973,0.000543965,0
0.6,10,0,0.299974,0.00055763,0
0.6,10.1,0,0.299976,0.000572159,0
0.6,10.2,0,0.299974,0.000579954,0
0.6,10.3,0,0.299975,0.000592408,0
0.6,10.4,0,0.299975,0.000600813,0
0.6,10.5,0,0.299975,0.00061202,0
0.6,10.6,0,0.299976,0.000622076,0
0.6,10.7,0,0.299975,0.000630156,0
0.6,10.8,0,0.299975,0.000640116,0
0.6,10.9,0,0.299975,0.000646812,0
0.6,11,0,0.299976,0.000655547,0
0.6,11.1,0,0.299977,0.000661964,0
0.6,11.2,0,0.299977,0.000669503,0
0.6,11.3,0,0.299979,0.000680812,0
0.6,11.4,0,0.29998,0.000681949,0
0.6,11.5,0,0.29998,0.000688323,0
0.6,11.6,0,0.299982,0.000692839,0
0.6,11.7,0,0.299983,0.000698071,0
0.6,11.8,0,0.299985,0.000702131,0
0.6,11.9,0,0.299987,0.000706231,0
0.6,12,0,0.299988,0.000717808,0
0.6,12.1,0,0.29999,0.000712762,0
0.6,12.2,0,0.299991,0.00071574,0
0.6,12.3,0,0.299993,0.000717638,0
0.6,12.4,0,0.299994,0.0007195,0
0.6,12.5,0,0.299996,0.000720817,0
0.6,12.6,0,0.299997,0.00072147,0
0.6,12.7,0,0.299996,0.000744309,0
0.7,0,0,0.299997,-0.00077397,0
0.7,0.1,0,0.299997,-0.000772774,0
0.7,0.2,0,0.299996,-0.000772123,0
0.7,0.3,0,0.299995,-0.000771472,0
0.7,0.4,0,0.299994,-0.000769904,0
0.7,0.5,0,0.299992,-0.000767965,0
0.7,0.6,0,0.299991,-0.000766026,0
0.7,0.7,0,0.299988,-0.000764137,0
0.7,0.8,0,0.299987,-0.000760352,0
0.7,0.9,0,0.299986,-0.000757143,0
0.7,1,0,0.299985,-0.000753934,0
0.7,1.1,0,0.299983,-0.00074933,0
0.7,1.2,0,0.299981,-0.000744874,0
0.7,1.3,0,0.29998,-0.000740417,0
0.7,1.4,0,0.299977,-0.000735078,0
0.7,1.5,0,0.299977,-0.00072929,0
0.7,1.6,0,0.299975,-0.000723613,0
0.7,1.7,0,0.299974,-0.000717935,0
0.7,1.8,0,0.299972,-0.000710453,0
0.7,1.9,0,0.29997,-0.00070358,0
0.7,2,0,0.299969,-0.000696706,0
0.7,2.1,0,0.299965,-0.00068742,0
0.7,2.2,0,0.299966,-0.000680387,0
0.7,2.3,0,0.299965,-0.000672347,0
0.7,2.4,0,0.299963,-0.000664308,0
0.7,2.5,0,0.299961,-0.000654096,0
0.7,2.6,0,0.29996,-0.00064492,0
0.7,2.7,0,0.299959,-0.000635745,0
0.7,2.8,0,0.299955,-0.000621921,0
0.7,2.9,0,0.299957,-0.000614465,0
0.7,3,0,0.299956,-0.000604181,0
0.7,3.1,0,0.299955,-0.000593897,0
0.7,3.2,0,0.299953,-0.000580988,0
0.7,3.3,0,0.299952,-0.000569615,0
0.7,3.4,0,0.299951,-0.000558242,0
0.7,3.5,0,0.299946,-0.000539404,0
0.7,3.6,0,0.29995,-0.000531988,0
0.7,3.7,0,0.299949,-0.000519533,0
0.7,3.8,0,0.299948,-0.000507078,0
0.7,3.9,0,0.299948,-0.000491174,0
0.7,4,0,0.299948,-0.000477624,0
0.7,4.1,0,0.299947,-0.000464074,0
0.7,4.2,0,0.299941,-0.000440383,0
0.7,4.3,0,0.299947,-0.000432289,0
0.7,4.4,0,0.299947,-0.000417609,0
0.7,4.5,0,0.299947,-0.000402929,0
0.7,4.6,0,0.299947,-0.00038324,0
0.7,4.7,0,0.299947,-0.000367381,0
0.7,4.8,0,0.299947,-0.000351522,0
0.7,4.9,0,0.299939,-0.000324646,0
0.7,5,0,0.299946,-0.000313111,0
0.7,5.1,0,0.299946,-0.000296034,0
0.7,5.2,0,0.299946,-0.000278957,0
0.7,5.3,0,0.299944,-0.000254666,0
0.7,5.4,0,0.299943,-0.000236395,0
0.7,5.5,0,0.299942,-0.000218124,0
0.7,5.6,0,0.299935,-0.000191863,0
0.7,5.7,0,0.299936,-0.000172886,0
0.7,5.8,0,0.299935,-0.000153558,0
0.7,5.9,0,0.299933,-0.00013423,0
0.7,6,0,0.299925,-0.000106218,0
0.7,6.1,0,0.299922,-8.60137e-05,0
0.7,6.2,0,0.299919,-6.58096e-05,0
0.7,6.3,0,0.299922,-4.45944e-05,0
0.7,6.4,0,0.299904,-1.64354e-05,0
0.7,6.5,0,0.2999,4.46951e-06,0
0.7,6.6,0,0.299896,2.53744e-05,0
0.7,6.7,0,0.299883,5.37584e-05,0
0.7,6.8,0,0.29988,7.04325e-05,0
0.7,6.9,0,0.299877,8.71067e-05,0