/*--------------------------------*- C++ -*----------------------------------*\
| =========                 |                                                 |
| \\      /  F ield         | OpenFOAM: The Open Source CFD Toolbox           |
|  \\    /   O peration     | Version:  v1806                                 |
|   \\  /    A nd           | Web:      www.OpenFOAM.com                      |
|    \\/     M anipulation  |                                                 |
\*---------------------------------------------------------------------------*/
FoamFile
{
    version     2.0;
    format      ascii;
    class       volVectorField;
    location    "170";
    object      U;
}
// * * * * * * * * * * * * * * * * * * * * * * * * * * * * * * * * * * * * * //

dimensions      [0 1 -1 0 0 0 0];


internalField   nonuniform List<vector> 
2400
(
(0.299999 -9.11767e-05 0)
(0.299996 -0.000495948 0)
(0.299986 -0.000700821 0)
(0.299976 -0.00112804 0)
(0.299962 -0.00139965 0)
(0.299931 -0.00204198 0)
(0.299894 -0.00241887 0)
(0.299844 -0.00309206 0)
(0.299804 -0.00369202 0)
(0.299724 -0.00484812 0)
(0.299633 -0.0057473 0)
(0.299516 -0.00690041 0)
(0.299436 -0.00812425 0)
(0.299314 -0.00997693 0)
(0.299165 -0.0117184 0)
(0.299011 -0.0133915 0)
(0.298951 -0.015051 0)
(0.298923 -0.016929 0)
(0.298913 -0.0184864 0)
(0.298973 -0.0194632 0)
(0.299997 -8.75322e-05 0)
(0.299989 -0.000496704 0)
(0.299971 -0.00068976 0)
(0.299951 -0.00112626 0)
(0.29992 -0.0013806 0)
(0.299872 -0.00203243 0)
(0.299811 -0.0023857 0)
(0.299732 -0.00307942 0)
(0.299662 -0.00364809 0)
(0.299544 -0.00481967 0)
(0.299416 -0.00567736 0)
(0.299248 -0.00686709 0)
(0.299135 -0.00805866 0)
(0.298971 -0.00993117 0)
(0.298808 -0.0116339 0)
(0.298643 -0.0133571 0)
(0.298627 -0.0150389 0)
(0.298681 -0.0169463 0)
(0.298812 -0.0185258 0)
(0.299061 -0.0195351 0)
(0.299995 -8.09649e-05 0)
(0.299983 -0.000497568 0)
(0.299953 -0.000670509 0)
(0.299922 -0.00112207 0)
(0.29987 -0.00134717 0)
(0.299798 -0.00201818 0)
(0.299704 -0.00233176 0)
(0.299587 -0.00306008 0)
(0.299476 -0.00357467 0)
(0.299304 -0.00478178 0)
(0.299122 -0.00557165 0)
(0.298883 -0.00682587 0)
(0.298721 -0.00795355 0)
(0.298489 -0.00988103 0)
(0.298296 -0.0115263 0)
(0.298097 -0.0133437 0)
(0.298122 -0.0150438 0)
(0.298256 -0.0170205 0)
(0.29855 -0.0186446 0)
(0.299022 -0.0197163 0)
(0.299993 -7.13956e-05 0)
(0.299977 -0.000498673 0)
(0.299936 -0.000642491 0)
(0.299893 -0.00111541 0)
(0.299818 -0.00129905 0)
(0.299722 -0.00199946 0)
(0.299592 -0.00225496 0)
(0.299435 -0.00303391 0)
(0.299278 -0.00347024 0)
(0.299047 -0.00473633 0)
(0.298806 -0.00542469 0)
(0.298485 -0.00677684 0)
(0.298266 -0.00780353 0)
(0.297947 -0.009833 0)
(0.297717 -0.0113849 0)
(0.297463 -0.0133519 0)
(0.297525 -0.015058 0)
(0.297719 -0.0171613 0)
(0.298182 -0.0188503 0)
(0.298895 -0.0200046 0)
(0.299991 -5.91647e-05 0)
(0.299972 -0.000499728 0)
(0.299919 -0.000605924 0)
(0.299864 -0.001106 0)
(0.299767 -0.00123594 0)
(0.299647 -0.00197518 0)
(0.299481 -0.00215403 0)
(0.299283 -0.00300003 0)
(0.299079 -0.00333172 0)
(0.298786 -0.00468073 0)
(0.298483 -0.00522987 0)
(0.298077 -0.00671913 0)
(0.297795 -0.00759768 0)
(0.297375 -0.00978468 0)
(0.297104 -0.0111903 0)
(0.296771 -0.0133841 0)
(0.29687 -0.0150621 0)
(0.297095 -0.0173721 0)
(0.297743 -0.0191359 0)
(0.298708 -0.0204105 0)
(0.299989 -4.47324e-05 0)
(0.299968 -0.00050023 0)
(0.299902 -0.000561475 0)
(0.299838 -0.00109327 0)
(0.299717 -0.00115843 0)
(0.299574 -0.0019448 0)
(0.299372 -0.00202953 0)
(0.299134 -0.00295776 0)
(0.298881 -0.00315798 0)
(0.298527 -0.00461464 0)
(0.298161 -0.00498454 0)
(0.297666 -0.00665342 0)
(0.297317 -0.00732655 0)
(0.296782 -0.00973842 0)
(0.296465 -0.0109268 0)
(0.296025 -0.0134482 0)
(0.296163 -0.0150317 0)
(0.296382 -0.017666 0)
(0.297241 -0.0194945 0)
(0.298467 -0.0209527 0)
(0.299987 -2.86779e-05 0)
(0.299965 -0.000499516 0)
(0.299887 -0.000510027 0)
(0.299813 -0.0010765 0)
(0.299667 -0.0010677 0)
(0.299504 -0.00190766 0)
(0.299265 -0.00188262 0)
(0.29899 -0.00290646 0)
(0.298687 -0.00294946 0)
(0.298273 -0.00453789 0)
(0.29784 -0.00468724 0)
(0.297254 -0.00658006 0)
(0.296833 -0.00698284 0)
(0.296169 -0.00969718 0)
(0.295801 -0.0105774 0)
(0.295222 -0.0135533 0)
(0.295402 -0.0149373 0)
(0.295559 -0.0180644 0)
(0.296671 -0.0199084 0)
(0.298159 -0.0216587 0)
(0.299985 -1.17717e-05 0)
(0.299964 -0.000496749 0)
(0.299872 -0.000452767 0)
(0.29979 -0.00105475 0)
(0.29962 -0.000965328 0)
(0.299438 -0.00186262 0)
(0.29916 -0.0017152 0)
(0.298852 -0.00284491 0)
(0.298497 -0.00270763 0)
(0.298024 -0.0044491 0)
(0.297522 -0.00433794 0)
(0.296845 -0.00649781 0)
(0.296344 -0.00656096 0)
(0.295538 -0.00966097 0)
(0.295109 -0.0101254 0)
(0.294354 -0.0137063 0)
(0.294576 -0.0147446 0)
(0.294601 -0.0185937 0)
(0.296024 -0.0203463 0)
(0.297753 -0.0225706 0)
(0.299983 5.20685e-06 0)
(0.299966 -0.000490825 0)
(0.299857 -0.000391232 0)
(0.29977 -0.00102675 0)
(0.299573 -0.000853453 0)
(0.299377 -0.00180801 0)
(0.299059 -0.00153005 0)
(0.298722 -0.00277097 0)
(0.298312 -0.00243522 0)
(0.297783 -0.00434539 0)
(0.297209 -0.00393851 0)
(0.29644 -0.00640279 0)
(0.29585 -0.00605784 0)
(0.294891 -0.00962555 0)
(0.294384 -0.00955601 0)
(0.293416 -0.0139087 0)
(0.293672 -0.0144169 0)
(0.293479 -0.0192817 0)
(0.295287 -0.0207657 0)
(0.297199 -0.0237477 0)
(0.299979 2.12286e-05 0)
(0.299971 -0.00048035 0)
(0.299842 -0.000327322 0)
(0.299755 -0.000990797 0)
(0.299527 -0.000734836 0)
(0.299324 -0.00174147 0)
(0.29896 -0.00133092 0)
(0.298602 -0.00268143 0)
(0.298131 -0.00213658 0)
(0.297554 -0.00422217 0)
(0.296899 -0.00349317 0)
(0.296044 -0.00628815 0)
(0.295351 -0.00547389 0)
(0.294231 -0.00958152 0)
(0.293624 -0.0088582 0)
(0.292406 -0.0141543 0)
(0.292674 -0.0139183 0)
(0.292165 -0.0201529 0)
(0.294441 -0.0211156 0)
(0.296422 -0.0252701 0)
(0.299974 3.49496e-05 0)
(0.29998 -0.00046368 0)
(0.299826 -0.000263421 0)
(0.299746 -0.000944727 0)
(0.299479 -0.000613013 0)
(0.29928 -0.00165986 0)
(0.298861 -0.00112281 0)
(0.298497 -0.00257177 0)
(0.297951 -0.001818 0)
(0.297344 -0.00407286 0)
(0.296591 -0.00300896 0)
(0.295664 -0.0061438 0)
(0.294845 -0.00481374 0)
(0.293569 -0.0095137 0)
(0.292825 -0.00802581 0)
(0.291327 -0.0144265 0)
(0.291563 -0.0132149 0)
(0.290631 -0.0212234 0)
(0.293454 -0.0213361 0)
(0.295325 -0.0272473 0)
(0.299967 4.49756e-05 0)
(0.299996 -0.00043881 0)
(0.299807 -0.000202447 0)
(0.299746 -0.000885785 0)
(0.299427 -0.000492453 0)
(0.299251 -0.00155897 0)
(0.298757 -0.00091225 0)
(0.298415 -0.00243583 0)
(0.297766 -0.00148825 0)
(0.297164 -0.00388838 0)
(0.296276 -0.00249644 0)
(0.295318 -0.00595591 0)
(0.294321 -0.00408712 0)
(0.292922 -0.0094008 0)
(0.291975 -0.00705913 0)
(0.290193 -0.0146962 0)
(0.290317 -0.0122761 0)
(0.288858 -0.0224946 0)
(0.292281 -0.0213534 0)
(0.293785 -0.0298368 0)
(0.299958 4.97959e-05 0)
(0.300016 -0.000403401 0)
(0.299785 -0.000147807 0)
(0.299755 -0.000810539 0)
(0.29937 -0.000378714 0)
(0.299241 -0.00143323 0)
(0.298645 -0.000707895 0)
(0.298364 -0.00226495 0)
(0.297566 -0.00115967 0)
(0.297033 -0.00365584 0)
(0.295935 -0.00197137 0)
(0.295035 -0.00570532 0)
(0.293754 -0.00331069 0)
(0.292335 -0.0092143 0)
(0.291042 -0.00596694 0)
(0.289047 -0.0149226 0)
(0.288891 -0.0110747 0)
(0.286844 -0.0239505 0)
(0.290857 -0.0210707 0)
(0.291648 -0.0332544 0)
(0.299952 4.805e-05 0)
(0.300037 -0.000355219 0)
(0.299763 -0.000103007 0)
(0.299769 -0.000715227 0)
(0.299311 -0.000278114 0)
(0.299246 -0.00127572 0)
(0.298523 -0.000520845 0)
(0.298348 -0.00204718 0)
(0.297343 -0.000849973 0)
(0.296965 -0.00335607 0)
(0.295548 -0.00145853 0)
(0.294854 -0.00536311 0)
(0.293099 -0.00251284 0)
(0.291881 -0.00891314 0)
(0.289947 -0.00477113 0)
(0.287999 -0.015051 0)
(0.287177 -0.00959383 0)
(0.284663 -0.0255529 0)
(0.289062 -0.0203729 0)
(0.288716 -0.0377149 0)
(0.299954 3.89726e-05 0)
(0.300049 -0.00029284 0)
(0.299752 -7.07321e-05 0)
(0.299776 -0.000596927 0)
(0.299262 -0.000196193 0)
(0.299252 -0.00107995 0)
(0.298408 -0.000362561 0)
(0.298351 -0.00176855 0)
(0.297111 -0.000581734 0)
(0.296956 -0.00296146 0)
(0.295113 -0.000997719 0)
(0.294798 -0.00488207 0)
(0.292313 -0.00174692 0)
(0.291648 -0.00842681 0)
(0.288565 -0.00351946 0)
(0.287244 -0.0149969 0)
(0.28492 -0.00783834 0)
(0.28258 -0.0272584 0)
(0.286613 -0.0191064 0)
(0.284808 -0.0435536 0)
(0.299973 2.29562e-05 0)
(0.300038 -0.00021653 0)
(0.299765 -5.17886e-05 0)
(0.299755 -0.000455255 0)
(0.299249 -0.000135583 0)
(0.299227 -0.000843188 0)
(0.298338 -0.000240275 0)
(0.298329 -0.00141955 0)
(0.296925 -0.000373348 0)
(0.296947 -0.00244532 0)
(0.294693 -0.00063366 0)
(0.294817 -0.00419623 0)
(0.291437 -0.00110957 0)
(0.291643 -0.00762369 0)
(0.286816 -0.00232891 0)
(0.286968 -0.014577 0)
(0.281699 -0.00586775 0)
(0.281163 -0.0290223 0)
(0.282642 -0.0170111 0)
(0.280171 -0.051814 0)
(0.300019 2.17975e-06 0)
(0.299987 -0.000128855 0)
(0.299821 -4.42766e-05 0)
(0.299679 -0.000293818 0)
(0.299305 -9.44995e-05 0)
(0.299126 -0.000569566 0)
(0.298373 -0.000153598 0)
(0.298205 -0.00100272 0)
(0.296887 -0.000229507 0)
(0.296814 -0.00180082 0)
(0.294461 -0.000388738 0)
(0.294713 -0.00326198 0)
(0.290722 -0.000685324 0)
(0.29163 -0.00634261 0)
(0.284939 -0.00145197 0)
(0.287028 -0.0133703 0)
(0.277266 -0.0039262 0)
(0.280958 -0.0304684 0)
(0.275072 -0.0138506 0)
(0.276638 -0.064073 0)
(0.300095 -1.95788e-05 0)
(0.299888 -3.49786e-05 0)
(0.29993 -4.30812e-05 0)
(0.299533 -0.000120664 0)
(0.299453 -6.55933e-05 0)
(0.298914 -0.000271823 0)
(0.298565 -9.23212e-05 0)
(0.297905 -0.000537013 0)
(0.297112 -0.0001378 0)
(0.296401 -0.0010541 0)
(0.294656 -0.000251129 0)
(0.294175 -0.00210561 0)
(0.290663 -0.000485674 0)
(0.290994 -0.0045474 0)
(0.283857 -0.00105253 0)
(0.286458 -0.0109439 0)
(0.272669 -0.00263064 0)
(0.281006 -0.0302129 0)
(0.261618 -0.00945333 0)
(0.277934 -0.0805697 0)
(0.300194 -3.62552e-05 0)
(0.299748 5.59522e-05 0)
(0.300082 -3.64083e-05 0)
(0.299323 5.31293e-05 0)
(0.299687 -2.73852e-05 0)
(0.298597 2.98502e-05 0)
(0.298915 -1.95128e-05 0)
(0.297417 -5.88364e-05 0)
(0.297632 -3.25254e-05 0)
(0.295645 -0.000273328 0)
(0.295408 -0.000109463 0)
(0.292989 -0.000842419 0)
(0.291677 -0.000336702 0)
(0.289108 -0.0023775 0)
(0.284861 -0.000950981 0)
(0.283474 -0.00711923 0)
(0.271368 -0.00273316 0)
(0.277045 -0.0252947 0)
(0.246303 -0.00879104 0)
(0.284131 -0.101925 0)
(0.300297 -4.88858e-05 0)
(0.299596 0.000146794 0)
(0.300248 -3.64122e-05 0)
(0.299096 0.000222212 0)
(0.299954 5.44381e-06 0)
(0.298242 0.000329757 0)
(0.299342 4.50778e-05 0)
(0.29685 0.000423887 0)
(0.298316 5.67851e-05 0)
(0.29471 0.000530535 0)
(0.29652 3.74257e-06 0)
(0.291383 0.00048299 0)
(0.293534 -0.000229034 0)
(0.286171 -5.51709e-05 0)
(0.288039 -0.000859164 0)
(0.277462 -0.00276526 0)
(0.276509 -0.00265872 0)
(0.262188 -0.017371 0)
(0.247835 -0.00881672 0)
(0.278835 -0.149418 0)
(0.299075 -0.0196081 0)
(0.299097 -0.0196284 0)
(0.299118 -0.0196398 0)
(0.299137 -0.0196431 0)
(0.299158 -0.0196386 0)
(0.299179 -0.0196264 0)
(0.299201 -0.0196066 0)
(0.299223 -0.0195795 0)
(0.299245 -0.0195455 0)
(0.299267 -0.0195051 0)
(0.299277 -0.0197055 0)
(0.299322 -0.0197318 0)
(0.299364 -0.019749 0)
(0.299405 -0.0197574 0)
(0.299447 -0.0197573 0)
(0.29949 -0.0197489 0)
(0.299533 -0.0197323 0)
(0.299576 -0.0197078 0)
(0.299619 -0.0196756 0)
(0.299662 -0.0196364 0)
(0.299396 -0.0198976 0)
(0.299473 -0.0199252 0)
(0.299547 -0.0199429 0)
(0.299618 -0.0199512 0)
(0.299689 -0.0199504 0)
(0.29976 -0.0199408 0)
(0.299832 -0.0199225 0)
(0.299902 -0.0198958 0)
(0.299972 -0.019861 0)
(0.30004 -0.0198188 0)
(0.299441 -0.0201995 0)
(0.299555 -0.0202293 0)
(0.299662 -0.0202482 0)
(0.299766 -0.0202569 0)
(0.29987 -0.0202556 0)
(0.299974 -0.0202445 0)
(0.300077 -0.0202237 0)
(0.300179 -0.0201935 0)
(0.300279 -0.0201542 0)
(0.300378 -0.0201065 0)
(0.299445 -0.0206244 0)
(0.299598 -0.0206568 0)
(0.299744 -0.0206769 0)
(0.299886 -0.0206851 0)
(0.300027 -0.0206817 0)
(0.300168 -0.0206669 0)
(0.300308 -0.0206409 0)
(0.300445 -0.0206041 0)
(0.30058 -0.0205568 0)
(0.300712 -0.0205 0)
(0.29942 -0.0211917 0)
(0.29962 -0.0212273 0)
(0.299811 -0.0212482 0)
(0.299998 -0.0212547 0)
(0.300183 -0.0212474 0)
(0.300367 -0.0212265 0)
(0.300549 -0.0211925 0)
(0.300728 -0.0211456 0)
(0.300903 -0.0210864 0)
(0.301073 -0.0210159 0)
(0.299371 -0.0219305 0)
(0.299626 -0.0219694 0)
(0.299874 -0.0219899 0)
(0.300114 -0.0219928 0)
(0.300353 -0.0219787 0)
(0.300588 -0.0219482 0)
(0.300821 -0.0219017 0)
(0.301049 -0.0218397 0)
(0.301271 -0.0217629 0)
(0.301485 -0.0216727 0)
(0.299295 -0.0228829 0)
(0.299622 -0.022924 0)
(0.29994 -0.0229414 0)
(0.300248 -0.0229368 0)
(0.300551 -0.0229112 0)
(0.30085 -0.0228654 0)
(0.301144 -0.0228 0)
(0.30143 -0.0227158 0)
(0.301708 -0.0226135 0)
(0.301976 -0.0224952 0)
(0.299193 -0.0241061 0)
(0.299618 -0.0241466 0)
(0.300025 -0.0241553 0)
(0.300417 -0.0241364 0)
(0.3008 -0.0240918 0)
(0.301177 -0.0240221 0)
(0.301545 -0.0239282 0)
(0.301903 -0.0238112 0)
(0.302249 -0.0236722 0)
(0.302581 -0.023514 0)
(0.29907 -0.0256752 0)
(0.299631 -0.0257091 0)
(0.300157 -0.0256999 0)
(0.300652 -0.0256559 0)
(0.301133 -0.0255804 0)
(0.301606 -0.025474 0)
(0.302067 -0.0253375 0)
(0.302513 -0.0251726 0)
(0.30294 -0.0249809 0)
(0.303348 -0.0247662 0)
(0.29894 -0.0276873 0)
(0.299696 -0.0277039 0)
(0.300377 -0.0276618 0)
(0.301001 -0.0275764 0)
(0.301603 -0.0274524 0)
(0.302195 -0.0272903 0)
(0.302769 -0.0270909 0)
(0.303321 -0.0268565 0)
(0.303848 -0.0265896 0)
(0.304345 -0.0262955 0)
(0.298837 -0.0302713 0)
(0.299869 -0.0302515 0)
(0.300753 -0.0301527 0)
(0.301536 -0.0300006 0)
(0.302286 -0.0298019 0)
(0.303024 -0.0295562 0)
(0.303739 -0.0292643 0)
(0.304422 -0.0289298 0)
(0.305066 -0.0285559 0)
(0.305671 -0.0281503 0)
(0.298824 -0.033597 0)
(0.300245 -0.0335093 0)
(0.30139 -0.0333179 0)
(0.302366 -0.0330621 0)
(0.303298 -0.0327504 0)
(0.304218 -0.0323812 0)
(0.305108 -0.0319554 0)
(0.305949 -0.0314777 0)
(0.306737 -0.0309529 0)
(0.307469 -0.0303917 0)
(0.299014 -0.0378493 0)
(0.300974 -0.0376538 0)
(0.302456 -0.037323 0)
(0.303672 -0.0369134 0)
(0.304833 -0.0364359 0)
(0.305985 -0.0358879 0)
(0.307097 -0.035271 0)
(0.308141 -0.0345921 0)
(0.309108 -0.0338573 0)
(0.309998 -0.0330821 0)
(0.299659 -0.0433191 0)
(0.302375 -0.0429669 0)
(0.304319 -0.0424423 0)
(0.305862 -0.0418177 0)
(0.307334 -0.0411049 0)
(0.308796 -0.0403008 0)
(0.3102 -0.039409 0)
(0.311505 -0.0384407 0)
(0.3127 -0.0374053 0)
(0.313787 -0.0363262 0)
(0.301558 -0.0505976 0)
(0.305305 -0.0499536 0)
(0.307875 -0.0491224 0)
(0.309879 -0.0481906 0)
(0.311786 -0.0471594 0)
(0.313664 -0.0460162 0)
(0.315434 -0.0447613 0)
(0.317036 -0.0434084 0)
(0.318459 -0.0419648 0)
(0.319699 -0.0404734 0)
(0.306789 -0.0606179 0)
(0.311643 -0.0593037 0)
(0.314687 -0.0577243 0)
(0.316952 -0.0560425 0)
(0.319096 -0.0542716 0)
(0.321183 -0.0523919 0)
(0.323081 -0.0504004 0)
(0.324706 -0.0483147 0)
(0.326045 -0.0461383 0)
(0.327117 -0.0439495 0)
(0.316871 -0.0746574 0)
(0.322568 -0.0727044 0)
(0.325205 -0.0703918 0)
(0.32643 -0.0678281 0)
(0.327342 -0.0650157 0)
(0.328096 -0.0619695 0)
(0.328533 -0.0587274 0)
(0.328554 -0.0553372 0)
(0.328172 -0.0518006 0)
(0.327387 -0.0482703 0)
(0.315106 -0.076191 0)
(0.317485 -0.0706759 0)
(0.316034 -0.066002 0)
(0.313156 -0.0617886 0)
(0.309991 -0.057681 0)
(0.306583 -0.0535821 0)
(0.302792 -0.0494942 0)
(0.298625 -0.0454157 0)
(0.294238 -0.041312 0)
(0.289504 -0.0371999 0)
(0.257933 -0.0893355 0)
(0.240373 -0.0771359 0)
(0.218388 -0.0664607 0)
(0.199594 -0.0569947 0)
(0.184122 -0.048423 0)
(0.170584 -0.0406723 0)
(0.1584 -0.0337355 0)
(0.147555 -0.0275559 0)
(0.137901 -0.0219463 0)
(0.12904 -0.0161937 0)
(0.299322 -0.0193913 0)
(0.299415 -0.0191365 0)
(0.299511 -0.0188199 0)
(0.299597 -0.0184669 0)
(0.299676 -0.0180855 0)
(0.299733 -0.0177034 0)
(0.299781 -0.0173124 0)
(0.299799 -0.0169473 0)
(0.299813 -0.0165763 0)
(0.29979 -0.016259 0)
(0.299775 -0.0159291 0)
(0.299712 -0.0156986 0)
(0.29968 -0.0154391 0)
(0.299573 -0.015361 0)
(0.299534 -0.0152079 0)
(0.299371 -0.0153761 0)
(0.299331 -0.0153457 0)
(0.299087 -0.0158739 0)
(0.299054 -0.0159242 0)
(0.298703 -0.0169305 0)
(0.299764 -0.0195219 0)
(0.299911 -0.0192586 0)
(0.300045 -0.01893 0)
(0.300153 -0.0185613 0)
(0.300239 -0.0181609 0)
(0.300288 -0.0177573 0)
(0.300316 -0.0173432 0)
(0.300302 -0.0169549 0)
(0.300276 -0.0165615 0)
(0.300204 -0.0162235 0)
(0.30014 -0.0158745 0)
(0.300017 -0.0156277 0)
(0.29993 -0.015352 0)
(0.299755 -0.0152594 0)
(0.299662 -0.0150895 0)
(0.29942 -0.0152396 0)
(0.299336 -0.0151886 0)
(0.298994 -0.0156885 0)
(0.298943 -0.0157165 0)
(0.298456 -0.0166834 0)
(0.3002 -0.0196975 0)
(0.300427 -0.0194166 0)
(0.300625 -0.0190629 0)
(0.300778 -0.0186633 0)
(0.300891 -0.0182289 0)
(0.300947 -0.0177897 0)
(0.300967 -0.0173411 0)
(0.300928 -0.0169199 0)
(0.300869 -0.0164972 0)
(0.30075 -0.0161329 0)
(0.300635 -0.0157614 0)
(0.300448 -0.0154942 0)
(0.300301 -0.0152003 0)
(0.300047 -0.0150893 0)
(0.29989 -0.0149016 0)
(0.29955 -0.0150299 0)
(0.299407 -0.0149601 0)
(0.29894 -0.0154305 0)
(0.298848 -0.0154439 0)
(0.298189 -0.0163735 0)
(0.300606 -0.0199693 0)
(0.300925 -0.0196516 0)
(0.301196 -0.0192527 0)
(0.301402 -0.0188022 0)
(0.301546 -0.0183152 0)
(0.301614 -0.0178238 0)
(0.301628 -0.0173265 0)
(0.301569 -0.0168604 0)
(0.301478 -0.0163986 0)
(0.301315 -0.0159995 0)
(0.301151 -0.0155989 0)
(0.300904 -0.0153051 0)
(0.300699 -0.0149884 0)
(0.300367 -0.0148538 0)
(0.300147 -0.014645 0)
(0.299707 -0.014747 0)
(0.299502 -0.0146566 0)
(0.298901 -0.015093 0)
(0.298765 -0.0150923 0)
(0.297924 -0.0159747 0)
(0.301017 -0.0203375 0)
(0.301437 -0.0199648 0)
(0.301788 -0.0195008 0)
(0.302048 -0.0189794 0)
(0.302224 -0.0184208 0)
(0.302301 -0.0178601 0)
(0.302306 -0.0172995 0)
(0.302222 -0.0167762 0)
(0.302095 -0.0162656 0)
(0.301887 -0.0158239 0)
(0.301674 -0.0153875 0)
(0.301367 -0.0150615 0)
(0.301104 -0.0147161 0)
(0.300696 -0.0145526 0)
(0.300413 -0.0143162 0)
(0.299873 -0.0143859 0)
(0.299606 -0.0142681 0)
(0.29887 -0.0146647 0)
(0.29869 -0.0146431 0)
(0.297659 -0.0154738 0)
(0.301465 -0.0208161 0)
(0.301999 -0.0203653 0)
(0.302435 -0.0198116 0)
(0.302751 -0.0191949 0)
(0.302954 -0.0185427 0)
(0.303033 -0.0178937 0)
(0.303021 -0.0172544 0)
(0.302905 -0.0166622 0)
(0.302737 -0.0160936 0)
(0.302478 -0.0156028 0)
(0.302212 -0.015125 0)
(0.301842 -0.0147624 0)
(0.301522 -0.0143829 0)
(0.301038 -0.0141854 0)
(0.300694 -0.0139142 0)
(0.300054 -0.0139454 0)
(0.299727 -0.0137917 0)
(0.298851 -0.0141425 0)
(0.298626 -0.0140933 0)
(0.297398 -0.0148687 0)
(0.30198 -0.0214196 0)
(0.30264 -0.0208612 0)
(0.303168 -0.020187 0)
(0.303539 -0.0194459 0)
(0.303762 -0.0186746 0)
(0.303834 -0.0179164 0)
(0.303793 -0.0171825 0)
(0.303634 -0.0165102 0)
(0.303414 -0.0158761 0)
(0.303097 -0.0153314 0)
(0.302774 -0.0148087 0)
(0.30234 -0.0144067 0)
(0.301961 -0.0139889 0)
(0.301403 -0.013753 0)
(0.301 -0.0134398 0)
(0.30026 -0.0134257 0)
(0.299874 -0.0132266 0)
(0.298854 -0.0135246 0)
(0.298584 -0.0134405 0)
(0.297147 -0.0141554 0)
(0.30259 -0.0221669 0)
(0.303395 -0.021462 0)
(0.30402 -0.0206285 0)
(0.304442 -0.0197273 0)
(0.304675 -0.0188071 0)
(0.304724 -0.0179168 0)
(0.304638 -0.017072 0)
(0.30442 -0.0163093 0)
(0.304135 -0.015604 0)
(0.303751 -0.0150036 0)
(0.303363 -0.0144351 0)
(0.302864 -0.0139937 0)
(0.302429 -0.0135351 0)
(0.301798 -0.0132575 0)
(0.30134 -0.0128945 0)
(0.300501 -0.0128275 0)
(0.300058 -0.0125717 0)
(0.298887 -0.012808 0)
(0.298573 -0.0126797 0)
(0.296913 -0.0133269 0)
(0.303336 -0.0230803 0)
(0.304304 -0.0221776 0)
(0.305029 -0.0211349 0)
(0.305493 -0.02003 0)
(0.305718 -0.0189258 0)
(0.305723 -0.017878 0)
(0.30557 -0.016906 0)
(0.305271 -0.0160446 0)
(0.304904 -0.0152662 0)
(0.30444 -0.0146121 0)
(0.303983 -0.0140013 0)
(0.303417 -0.0135239 0)
(0.302929 -0.0130243 0)
(0.302231 -0.0127028 0)
(0.301727 -0.0122817 0)
(0.30079 -0.0121525 0)
(0.300295 -0.0118257 0)
(0.298965 -0.0119884 0)
(0.298607 -0.0118039 0)
(0.296701 -0.0123737 0)
(0.30427 -0.0241853 0)
(0.30542 -0.0230164 0)
(0.306245 -0.0217008 0)
(0.306734 -0.0203383 0)
(0.306925 -0.0190094 0)
(0.306853 -0.0177763 0)
(0.306601 -0.016662 0)
(0.306194 -0.0156967 0)
(0.305724 -0.0148481 0)
(0.305166 -0.0141484 0)
(0.304634 -0.0135046 0)
(0.304 -0.0129997 0)
(0.303469 -0.0124626 0)
(0.302712 -0.012096 0)
(0.302174 -0.0116074 0)
(0.301142 -0.0114036 0)
(0.300603 -0.0109876 0)
(0.299099 -0.0110597 0)
(0.298697 -0.0108031 0)
(0.29651 -0.0112818 0)
(0.305464 -0.0255097 0)
(0.306813 -0.0239835 0)
(0.307731 -0.0223133 0)
(0.308216 -0.0206274 0)
(0.308333 -0.0190269 0)
(0.308141 -0.0175792 0)
(0.307749 -0.0163095 0)
(0.307198 -0.0152406 0)
(0.306599 -0.0143324 0)
(0.305928 -0.013603 0)
(0.305318 -0.0129442 0)
(0.304619 -0.0124267 0)
(0.304058 -0.0118601 0)
(0.303251 -0.0114481 0)
(0.302697 -0.0108804 0)
(0.301567 -0.0105841 0)
(0.300994 -0.0100535 0)
(0.299284 -0.0100103 0)
(0.298837 -0.00966026 0)
(0.296305 -0.0100274 0)
(0.30702 -0.0270806 0)
(0.308583 -0.0250769 0)
(0.309573 -0.0229485 0)
(0.310011 -0.0208606 0)
(0.309999 -0.0189357 0)
(0.30963 -0.0172437 0)
(0.309045 -0.0158096 0)
(0.308301 -0.0146445 0)
(0.307538 -0.0136973 0)
(0.306728 -0.0129654 0)
(0.306031 -0.0123206 0)
(0.305262 -0.0118132 0)
(0.304686 -0.0112295 0)
(0.30383 -0.0107709 0)
(0.303277 -0.0101079 0)
(0.302027 -0.00969157 0)
(0.301418 -0.00900939 0)
(0.299437 -0.00881382 0)
(0.298931 -0.00833957 0)
(0.295936 -0.00856662 0)
(0.309088 -0.0289289 0)
(0.310877 -0.0262877 0)
(0.311908 -0.0235714 0)
(0.312237 -0.0209891 0)
(0.312019 -0.0186805 0)
(0.311391 -0.0167138 0)
(0.310533 -0.01511 0)
(0.30952 -0.0138643 0)
(0.308529 -0.0129102 0)
(0.307524 -0.0122156 0)
(0.306705 -0.0116257 0)
(0.305832 -0.0111591 0)
(0.305226 -0.0105743 0)
(0.304285 -0.0100637 0)
(0.303717 -0.00927891 0)
(0.302281 -0.00870085 0)
(0.301602 -0.00781187 0)
(0.299222 -0.0074109 0)
(0.298616 -0.00676689 0)
(0.294957 -0.00681835 0)
(0.311946 -0.0310762 0)
(0.313971 -0.0275843 0)
(0.314978 -0.0241179 0)
(0.315085 -0.0209325 0)
(0.314526 -0.0181714 0)
(0.313486 -0.0158955 0)
(0.312194 -0.0141169 0)
(0.310749 -0.0128123 0)
(0.309375 -0.0118931 0)
(0.308025 -0.0112876 0)
(0.306956 -0.0108047 0)
(0.305853 -0.0104175 0)
(0.305113 -0.0098513 0)
(0.303969 -0.00927929 0)
(0.303291 -0.0083342 0)
(0.301524 -0.00753609 0)
(0.300676 -0.00636319 0)
(0.2977 -0.00569025 0)
(0.296908 -0.00481127 0)
(0.292312 -0.00465422 0)
(0.316139 -0.0335627 0)
(0.318316 -0.0289236 0)
(0.319072 -0.0244879 0)
(0.318656 -0.0205491 0)
(0.317412 -0.017237 0)
(0.315595 -0.014596 0)
(0.313489 -0.0126254 0)
(0.31123 -0.0112813 0)
(0.309097 -0.0104437 0)
(0.307051 -0.00999022 0)
(0.3054 -0.0096788 0)
(0.303764 -0.00942219 0)
(0.30262 -0.00890389 0)
(0.301026 -0.00826825 0)
(0.300028 -0.00712754 0)
(0.297729 -0.00604967 0)
(0.296553 -0.00450567 0)
(0.292794 -0.00349747 0)
(0.291705 -0.00230105 0)
(0.285946 -0.00192448 0)
(0.322288 -0.0365616 0)
(0.324011 -0.0302554 0)
(0.32371 -0.0244835 0)
(0.321904 -0.0195218 0)
(0.319115 -0.0154644 0)
(0.315694 -0.0123467 0)
(0.311977 -0.0101485 0)
(0.308159 -0.00878808 0)
(0.304563 -0.0080936 0)
(0.301189 -0.00787839 0)
(0.298374 -0.00783652 0)
(0.295725 -0.00780502 0)
(0.293755 -0.0074141 0)
(0.291427 -0.00675933 0)
(0.289887 -0.00543569 0)
(0.286974 -0.00406327 0)
(0.285401 -0.00207929 0)
(0.28092 -0.000707988 0)
(0.27952 0.000881224 0)
(0.272706 0.00144111 0)
(0.329018 -0.0382151 0)
(0.328073 -0.0298304 0)
(0.324562 -0.0225151 0)
(0.319495 -0.0163805 0)
(0.313565 -0.0114834 0)
(0.307188 -0.00788564 0)
(0.300724 -0.00554235 0)
(0.294407 -0.00430881 0)
(0.288551 -0.00393353 0)
(0.283209 -0.00415136 0)
(0.278709 -0.00458927 0)
(0.274742 -0.00499898 0)
(0.271775 -0.00496054 0)
(0.268826 -0.00448408 0)
(0.266915 -0.00313178 0)
(0.26387 -0.00155146 0)
(0.262265 0.000812048 0)
(0.25772 0.00250599 0)
(0.256309 0.00455027 0)
(0.249232 0.00523994 0)
(0.324779 -0.0386237 0)
(0.316158 -0.0266831 0)
(0.306226 -0.0172771 0)
(0.295867 -0.00998843 0)
(0.285589 -0.00449506 0)
(0.275608 -0.000689281 0)
(0.266172 0.00155805 0)
(0.257449 0.00243813 0)
(0.249649 0.00223971 0)
(0.242859 0.00128536 0)
(0.23736 2.29541e-06 0)
(0.232986 -0.00125593 0)
(0.230049 -0.00195806 0)
(0.227759 -0.00199621 0)
(0.226696 -0.000927982 0)
(0.224899 0.000660137 0)
(0.224306 0.00330602 0)
(0.221088 0.00533589 0)
(0.220354 0.00795258 0)
(0.214385 0.00882438 0)
(0.27866 -0.0267938 0)
(0.256914 -0.0140034 0)
(0.239748 -0.00355868 0)
(0.225654 0.00338672 0)
(0.214073 0.00791496 0)
(0.204086 0.0105298 0)
(0.195373 0.0115806 0)
(0.18781 0.0112533 0)
(0.181486 0.00976464 0)
(0.176535 0.0074023 0)
(0.173183 0.00461423 0)
(0.171374 0.00190057 0)
(0.171118 -0.000104603 0)
(0.171725 -0.00106241 0)
(0.173271 -0.000525264 0)
(0.174317 0.00107096 0)
(0.175846 0.00405985 0)
(0.175143 0.00665357 0)
(0.17559 0.010127 0)
(0.171924 0.0113471 0)
(0.121101 0.00599254 0)
(0.112537 0.00703638 0)
(0.10905 0.0111491 0)
(0.10541 0.0130167 0)
(0.104134 0.0150372 0)
(0.103262 0.0160298 0)
(0.1026 0.0160459 0)
(0.102128 0.014772 0)
(0.102136 0.0122197 0)
(0.10291 0.00861797 0)
(0.104684 0.00448815 0)
(0.107464 0.000556905 0)
(0.111188 -0.00243276 0)
(0.115419 -0.00390216 0)
(0.119953 -0.00345494 0)
(0.123899 -0.00134543 0)
(0.127532 0.00235418 0)
(0.129392 0.00604065 0)
(0.130988 0.0107129 0)
(0.130179 0.0122223 0)
(0.0358064 -0.00601651 0)
(0.0361835 0.0014861 0)
(0.0456891 0.00737767 0)
(0.0479003 0.00985528 0)
(0.0519402 0.0125406 0)
(0.0552457 0.0138998 0)
(0.0585904 0.0141996 0)
(0.0617835 0.0129896 0)
(0.0651358 0.0102969 0)
(0.0688424 0.00639394 0)
(0.0730859 0.00189146 0)
(0.0778759 -0.00242116 0)
(0.0831592 -0.00567527 0)
(0.0886556 -0.00721543 0)
(0.0941934 -0.00663173 0)
(0.0991651 -0.00412457 0)
(0.103608 0.000135032 0)
(0.106652 0.00459245 0)
(0.108798 0.00996634 0)
(0.109787 0.011812 0)
(0.0123527 -0.0147675 0)
(0.0115399 -0.000511104 0)
(0.0224277 0.00585107 0)
(0.0262798 0.00863323 0)
(0.0322168 0.0113323 0)
(0.0371081 0.012746 0)
(0.0420272 0.0130989 0)
(0.0466773 0.011902 0)
(0.0513624 0.00916616 0)
(0.0562221 0.00517342 0)
(0.0614033 0.000559465 0)
(0.0669114 -0.0038627 0)
(0.0727063 -0.00719146 0)
(0.0785769 -0.00874285 0)
(0.0843841 -0.00808781 0)
(0.0896441 -0.00541594 0)
(0.0943187 -0.000917265 0)
(0.0977753 0.003857 0)
(0.100127 0.0095125 0)
(0.101838 0.0115673 0)
(-0.00129948 -0.0151406 0)
(-0.00569473 -0.0017834 0)
(0.00443245 0.00404276 0)
(0.00915606 0.00712171 0)
(0.0164767 0.00977477 0)
(0.02265 0.0112543 0)
(0.0288946 0.0116567 0)
(0.0347871 0.0104913 0)
(0.0406044 0.00774669 0)
(0.0464204 0.00371336 0)
(0.0523389 -0.000959782 0)
(0.058358 -0.00543234 0)
(0.0644576 -0.00878831 0)
(0.0704975 -0.0103228 0)
(0.0763854 -0.00958664 0)
(0.0817599 -0.00675538 0)
(0.086533 -0.00203457 0)
(0.0902825 0.00304506 0)
(0.0928005 0.00894566 0)
(0.0951347 0.0112412 0)
(-0.00869358 -0.0122323 0)
(-0.0168416 -0.00236749 0)
(-0.00822825 0.00222256 0)
(-0.00312519 0.0053371 0)
(0.00509829 0.00787278 0)
(0.0122345 0.00943264 0)
(0.0195201 0.00989511 0)
(0.0264028 0.00878696 0)
(0.0331134 0.00607275 0)
(0.0396535 0.00205165 0)
(0.0460815 -0.00262141 0)
(0.0523859 -0.0070874 0)
(0.0585703 -0.0104251 0)
(0.064567 -0.0119142 0)
(0.0703414 -0.0110907 0)
(0.0756528 -0.00810696 0)
(0.0803864 -0.00318791 0)
(0.0843048 0.00217954 0)
(0.0869406 0.00828593 0)
(0.0897828 0.0108321 0)
(-0.011992 -0.00778105 0)
(-0.0227592 -0.00237295 0)
(-0.0155568 0.00062301 0)
(-0.0103935 0.00341641 0)
(-0.00167395 0.00575393 0)
(0.00610437 0.0073769 0)
(0.0141202 0.00789518 0)
(0.0217122 0.00686262 0)
(0.0290497 0.0042145 0)
(0.0360604 0.000255668 0)
(0.0427549 -0.00435758 0)
(0.0491114 -0.00876275 0)
(0.0551584 -0.0120397 0)
(0.0608991 -0.0134593 0)
(0.0663653 -0.0125471 0)
(0.0714349 -0.00942586 0)
(0.0759874 -0.00433999 0)
(0.0799457 0.00128522 0)
(0.0826403 0.00755622 0)
(0.0858644 0.0103584 0)
(-0.0122598 -0.00269439 0)
(-0.023961 -0.00197434 0)
(-0.0175992 -0.00079196 0)
(-0.012559 0.00144945 0)
(-0.00369859 0.0035313 0)
(0.00439118 0.00518444 0)
(0.0128076 0.00574419 0)
(0.0208084 0.00479841 0)
(0.0284892 0.00224701 0)
(0.0357058 -0.00160429 0)
(0.0424205 -0.006103 0)
(0.0485984 -0.0103955 0)
(0.0542918 -0.0135722 0)
(0.0595707 -0.0149023 0)
(0.0645387 -0.0139048 0)
(0.0691892 -0.0106682 0)
(0.0734166 -0.00545362 0)
(0.0772805 0.000386799 0)
(0.0799642 0.00678149 0)
(0.083435 0.00984128 0)
(-0.00973041 0.00213023 0)
(-0.0206102 -0.00149862 0)
(-0.0143767 -0.00212429 0)
(-0.0095864 -0.000485078 0)
(-0.00092632 0.00129371 0)
(0.00713171 0.00294174 0)
(0.0156022 0.00352856 0)
(0.0236973 0.00267464 0)
(0.0314287 0.00024385 0)
(0.0385847 -0.00345888 0)
(0.0450782 -0.0077947 0)
(0.0508573 -0.0119273 0)
(0.0559943 -0.0149678 0)
(0.0606188 -0.0161916 0)
(0.0649082 -0.0151155 0)
(0.0689678 -0.0117914 0)
(0.0727253 -0.00649158 0)
(0.0763563 -0.000484579 0)
(0.0789501 0.00598883 0)
(0.0825257 0.00930175 0)
(-0.00390583 0.00577733 0)
(-0.0125229 -0.001236 0)
(-0.0058711 -0.00346417 0)
(-0.00148478 -0.00230695 0)
(0.0066076 -0.000864293 0)
(0.0142747 0.000741223 0)
(0.0224391 0.00133925 0)
(0.0303037 0.000574465 0)
(0.0377902 -0.00171955 0)
(0.0446235 -0.0052406 0)
(0.0506652 -0.00937241 0)
(0.0558419 -0.0133037 0)
(0.0602394 -0.0161761 0)
(0.0640365 -0.0172796 0)
(0.067483 -0.016134 0)
(0.0707898 -0.0127539 0)
(0.0739367 -0.0074164 0)
(0.077193 -0.00129677 0)
(0.0796082 0.00520699 0)
(0.0831446 0.00876153 0)
(0.00649625 0.00691 0)
(0.000806262 -0.00131036 0)
(0.00795031 -0.00480233 0)
(0.0116862 -0.00394462 0)
(0.018785 -0.00283417 0)
(0.0256832 -0.00131133 0)
(0.03317 -0.000727929 0)
(0.0404739 -0.0014169 0)
(0.0474223 -0.00356721 0)
(0.0536793 -0.00688479 0)
(0.0590542 -0.0107803 0)
(0.0634461 -0.0144759 0)
(0.0669458 -0.0171526 0)
(0.0697684 -0.0181238 0)
(0.0722302 -0.0169186 0)
(0.0746388 -0.0135156 0)
(0.0770423 -0.00819058 0)
(0.0797831 -0.00201973 0)
(0.0819256 0.00446677 0)
(0.085278 0.00824222 0)
(0.0237154 0.00280052 0)
(0.020267 -0.00191814 0)
(0.0270749 -0.00603707 0)
(0.029782 -0.00535942 0)
(0.0354001 -0.00452367 0)
(0.0411284 -0.00313098 0)
(0.0475611 -0.00259245 0)
(0.0539755 -0.0032278 0)
(0.0601001 -0.00523613 0)
(0.0655404 -0.00833717 0)
(0.0700521 -0.011972 0)
(0.0735013 -0.015404 0)