/*--------------------------------*- C++ -*----------------------------------*\
| =========                 |                                                 |
| \\      /  F ield         | OpenFOAM: The Open Source CFD Toolbox           |
|  \\    /   O peration     | Version:  v1806                                 |
|   \\  /    A nd           | Web:      www.OpenFOAM.com                      |
|    \\/     M anipulation  |                                                 |
\*---------------------------------------------------------------------------*/
FoamFile
{
    version     2.0;
    format      ascii;
    class       volVectorField;
    location    "490";
    object      U;
}
// * * * * * * * * * * * * * * * * * * * * * * * * * * * * * * * * * * * * * //

dimensions      [0 1 -1 0 0 0 0];


internalField   nonuniform List<vector> 
4400
(
(0.256731 0.271946 0)
(0.301058 0.187157 0)
(0.314577 0.137196 0)
(0.321875 0.10595 0)
(0.325785 0.0860739 0)
(0.327175 0.0733735 0)
(0.327064 0.0645513 0)
(0.32612 0.0577641 0)
(0.324687 0.0522605 0)
(0.322956 0.0477102 0)
(0.32104 0.0439132 0)
(0.319013 0.0407266 0)
(0.31692 0.0380468 0)
(0.314796 0.0357983 0)
(0.312661 0.0339253 0)
(0.310529 0.0323854 0)
(0.308406 0.0311473 0)
(0.306303 0.0301894 0)
(0.304274 0.0294764 0)
(0.302594 0.0289228 0)
(0.263421 0.143837 0)
(0.28613 0.103272 0)
(0.300132 0.0925994 0)
(0.311255 0.0857616 0)
(0.317089 0.077646 0)
(0.319733 0.0694936 0)
(0.320821 0.0622564 0)
(0.320952 0.0561281 0)
(0.320403 0.0509933 0)
(0.31938 0.0466866 0)
(0.318037 0.0430622 0)
(0.316482 0.0400029 0)
(0.314791 0.0374196 0)
(0.313013 0.0352457 0)
(0.311184 0.0334313 0)
(0.309326 0.0319385 0)
(0.307455 0.0307392 0)
(0.305584 0.0298135 0)
(0.303767 0.0291281 0)
(0.302252 0.0286106 0)
(0.233513 0.111637 0)
(0.265965 0.108386 0)
(0.28766 0.0985871 0)
(0.300567 0.0861304 0)
(0.30821 0.0749396 0)
(0.312716 0.0660905 0)
(0.315179 0.0592074 0)
(0.316285 0.0536623 0)
(0.316481 0.0490377 0)
(0.31606 0.0451138 0)
(0.315216 0.0417658 0)
(0.314086 0.0389081 0)
(0.312761 0.0364752 0)
(0.311307 0.034416 0)
(0.309767 0.0326905 0)
(0.308171 0.0312675 0)
(0.306542 0.0301236 0)
(0.304897 0.0292418 0)
(0.303287 0.0285925 0)
(0.301934 0.0281141 0)
(0.250696 0.0762722 0)
(0.271801 0.0754129 0)
(0.285519 0.0718655 0)
(0.295708 0.0681784 0)
(0.303018 0.064049 0)
(0.307803 0.0594742 0)
(0.310719 0.0548371 0)
(0.312335 0.0504817 0)
(0.313032 0.0465634 0)
(0.313069 0.0431103 0)
(0.312635 0.0400988 0)
(0.311869 0.0374906 0)
(0.310868 0.0352467 0)
(0.309705 0.0333327 0)
(0.308431 0.0317199 0)
(0.30708 0.0303851 0)
(0.305679 0.0293103 0)
(0.304249 0.028482 0)
(0.302838 0.027875 0)
(0.301645 0.0274382 0)
(0.250411 0.0587858 0)
(0.266882 0.0648959 0)
(0.280994 0.0659273 0)
(0.291519 0.0634245 0)
(0.298835 0.059322 0)
(0.303787 0.0549334 0)
(0.307024 0.050815 0)
(0.309004 0.0470908 0)
(0.310061 0.0437508 0)
(0.310441 0.0407685 0)
(0.310328 0.0381229 0)
(0.30986 0.0357953 0)
(0.309135 0.0337674 0)
(0.308228 0.0320209 0)
(0.307191 0.0305388 0)
(0.306064 0.0293061 0)
(0.304875 0.0283109 0)
(0.303647 0.0275438 0)
(0.302424 0.0269839 0)
(0.301383 0.0265898 0)
(0.261754 0.0450833 0)
(0.2733 0.0503094 0)
(0.282884 0.0521683 0)
(0.290609 0.051985 0)
(0.296661 0.05061 0)
(0.301155 0.0484887 0)
(0.304303 0.0459524 0)
(0.306369 0.0432749 0)
(0.3076 0.0406461 0)
(0.308195 0.0381738 0)
(0.308313 0.0359103 0)
(0.308076 0.0338765 0)
(0.307577 0.0320776 0)
(0.306887 0.0305108 0)
(0.30606 0.0291702 0)
(0.305133 0.0280487 0)
(0.304136 0.0271402 0)
(0.303094 0.0264392 0)
(0.302047 0.0259295 0)
(0.301149 0.0255783 0)
(0.266489 0.0359437 0)
(0.274695 0.0418978 0)
(0.282747 0.0450796 0)
(0.28969 0.0459533 0)
(0.295178 0.0452667 0)
(0.299295 0.0436965 0)
(0.302261 0.0417146 0)
(0.304297 0.0395918 0)
(0.305594 0.0374717 0)
(0.306313 0.0354347 0)
(0.306586 0.0335286 0)
(0.30652 0.0317831 0)
(0.3062 0.0302147 0)
(0.305691 0.0288318 0)
(0.305041 0.0276375 0)
(0.304291 0.0266319 0)
(0.303466 0.0258138 0)
(0.302593 0.0251817 0)
(0.301708 0.0247237 0)
(0.300943 0.0244144 0)
(0.273538 0.0291047 0)
(0.279538 0.0340845 0)
(0.285323 0.0371495 0)
(0.290453 0.0385868 0)
(0.294776 0.0388481 0)
(0.298237 0.0382919 0)
(0.300863 0.0371926 0)
(0.302749 0.0357716 0)
(0.304013 0.0341982 0)
(0.304773 0.0325912 0)
(0.305136 0.0310285 0)
(0.305188 0.0295597 0)
(0.305003 0.0282152 0)
(0.304638 0.0270134 0)
(0.304139 0.0259648 0)
(0.303539 0.0250754 0)
(0.302867 0.0243486 0)
(0.302145 0.0237859 0)
(0.301407 0.0233794 0)
(0.300763 0.0231103 0)
(0.277991 0.0238258 0)
(0.282301 0.0284665 0)
(0.286818 0.0316273 0)
(0.291049 0.0333924 0)
(0.294693 0.0340418 0)
(0.297649 0.0338863 0)
(0.299935 0.0331977 0)
(0.30162 0.0321842 0)
(0.302792 0.0309943 0)
(0.303538 0.0297307 0)
(0.303938 0.0284651 0)
(0.304065 0.0272473 0)
(0.303977 0.0261119 0)
(0.303726 0.0250824 0)
(0.303349 0.0241745 0)
(0.302878 0.0233984 0)
(0.302338 0.022761 0)
(0.30175 0.0222664 0)
(0.301142 0.0219102 0)
(0.300608 0.021679 0)
(0.282665 0.0197751 0)
(0.285845 0.0236729 0)
(0.289162 0.0265165 0)
(0.29231 0.0283196 0)
(0.295115 0.0292511 0)
(0.297485 0.0295029 0)
(0.299387 0.02925 0)
(0.300836 0.0286454 0)
(0.301877 0.0278168 0)
(0.302567 0.0268654 0)
(0.302967 0.0258669 0)
(0.303133 0.0248761 0)
(0.303112 0.0239323 0)
(0.302945 0.0230631 0)
(0.302667 0.0222877 0)
(0.302303 0.0216193 0)
(0.301877 0.0210674 0)
(0.301405 0.0206381 0)
(0.300913 0.0203299 0)
(0.300477 0.0201337 0)
(0.286114 0.0164061 0)
(0.288425 0.0198454 0)
(0.290932 0.0224621 0)
(0.293395 0.0242406 0)
(0.295634 0.0252781 0)
(0.297551 0.0257128 0)
(0.299111 0.025688 0)
(0.300321 0.0253337 0)
(0.301211 0.0247581 0)
(0.301821 0.0240477 0)
(0.302193 0.0232694 0)
(0.302371 0.0224742 0)
(0.302391 0.0217005 0)
(0.302287 0.0209765 0)
(0.302086 0.0203229 0)
(0.301811 0.0197548 0)
(0.301479 0.0192831 0)
(0.301108 0.0189152 0)
(0.300717 0.0186518 0)
(0.300367 0.0184874 0)
(0.289325 0.0136991 0)
(0.291011 0.0165867 0)
(0.29284 0.0188703 0)
(0.294651 0.0205134 0)
(0.296329 0.0215707 0)
(0.297802 0.022131 0)
(0.299032 0.0222914 0)
(0.300008 0.022147 0)
(0.300742 0.0217839 0)
(0.301258 0.0212765 0)
(0.301587 0.0206855 0)
(0.301758 0.0200591 0)
(0.3018 0.0194345 0)
(0.301739 0.01884 0)
(0.301597 0.0182967 0)
(0.301393 0.0178202 0)
(0.301141 0.0174224 0)
(0.300855 0.0171112 0)
(0.300551 0.0168891 0)
(0.300275 0.0167533 0)
(0.291846 0.0113481 0)
(0.293054 0.0138213 0)
(0.294389 0.0158195 0)
(0.295738 0.0173096 0)
(0.297007 0.0183221 0)
(0.298132 0.0189171 0)
(0.299081 0.0191677 0)
(0.299844 0.0191489 0)
(0.300427 0.0189309 0)
(0.300845 0.0185749 0)
(0.30112 0.0181327 0)
(0.301271 0.0176462 0)
(0.301321 0.0171492 0)
(0.301289 0.0166679 0)
(0.301192 0.0162227 0)
(0.301044 0.0158288 0)
(0.300858 0.015498 0)
(0.300643 0.0152386 0)
(0.300412 0.015054 0)
(0.300201 0.0149435 0)
(0.294053 0.00936315 0)
(0.2949 0.0114093 0)
(0.295838 0.013101 0)
(0.29679 0.0144018 0)
(0.297696 0.0153263 0)
(0.298512 0.0159136 0)
(0.299211 0.0162141 0)
(0.299782 0.0162827 0)
(0.300225 0.0161735 0)
(0.300549 0.015936 0)
(0.300766 0.0156138 0)
(0.300891 0.0152434 0)
(0.30094 0.0148547 0)
(0.300925 0.0144714 0)
(0.300861 0.0141125 0)
(0.300757 0.0137922 0)
(0.300624 0.0135217 0)
(0.300468 0.0133089 0)
(0.300298 0.013158 0)
(0.300142 0.0130696 0)
(0.295805 0.00758186 0)
(0.296379 0.00927076 0)
(0.29702 0.010684 0)
(0.297679 0.0117926 0)
(0.298311 0.0126038 0)
(0.298885 0.0131434 0)
(0.29938 0.0134478 0)
(0.299787 0.0135585 0)
(0.300106 0.0135174 0)
(0.300343 0.0133642 0)
(0.300504 0.013134 0)
(0.3006 0.012857 0)
(0.30064 0.0125585 0)
(0.300636 0.0122592 0)
(0.300595 0.0119754 0)
(0.300525 0.0117201 0)
(0.300433 0.0115034 0)
(0.300325 0.0113325 0)
(0.300207 0.0112116 0)
(0.300095 0.0111425 0)
(0.297256 0.00600406 0)
(0.297621 0.00734207 0)
(0.298031 0.00847787 0)
(0.298453 0.00938428 0)
(0.298861 0.0100633 0)
(0.299233 0.0105315 0)
(0.299558 0.0108139 0)
(0.299829 0.0109403 0)
(0.300043 0.010942 0)
(0.300203 0.0108492 0)
(0.300313 0.0106898 0)
(0.30038 0.0104881 0)
(0.300411 0.0102649 0)
(0.300411 0.0100372 0)
(0.300386 0.00981885 0)
(0.300342 0.00962097 0)
(0.300282 0.0094521 0)
(0.300212 0.00931858 0)
(0.300134 0.00922455 0)
(0.30006 0.00917198 0)
(0.298363 0.00454142 0)
(0.298576 0.00556525 0)
(0.298817 0.00644038 0)
(0.299066 0.00714618 0)
(0.299307 0.00768308 0)
(0.299529 0.00806182 0)
(0.299723 0.00829962 0)
(0.299885 0.00841774 0)
(0.300014 0.00843895 0)
(0.300111 0.00838571 0)
(0.300178 0.00827889 0)
(0.30022 0.00813707 0)
(0.30024 0.00797625 0)
(0.300241 0.00780978 0)
(0.300227 0.0076486 0)
(0.300201 0.00750154 0)
(0.300167 0.00737549 0)
(0.300125 0.00727561 0)
(0.300079 0.00720553 0)
(0.300034 0.00716729 0)
(0.29919 0.00318501 0)
(0.299294 0.0039028 0)
(0.299411 0.00452147 0)
(0.299533 0.00502468 0)
(0.299652 0.00541186 0)
(0.299762 0.00568957 0)
(0.299858 0.00586888 0)
(0.299939 0.00596375 0)
(0.300003 0.00598952 0)
(0.300052 0.00596154 0)
(0.300087 0.00589432 0)
(0.300108 0.00580097 0)
(0.300118 0.00569286 0)
(0.300119 0.00557959 0)
(0.300112 0.00546903 0)
(0.3001 0.00536759 0)
(0.300083 0.00528034 0)
(0.300062 0.00521109 0)
(0.300039 0.00516267 0)
(0.300016 0.00513686 0)
(0.299722 0.00188452 0)
(0.299756 0.0023139 0)
(0.299796 0.0026839 0)
(0.299838 0.00298585 0)
(0.299879 0.00321964 0)
(0.299917 0.00338885 0)
(0.29995 0.00349974 0)
(0.299978 0.00356032 0)
(0.300001 0.00357952 0)
(0.300018 0.00356634 0)
(0.300029 0.00352933 0)
(0.300037 0.00347626 0)
(0.30004 0.00341394 0)
(0.300041 0.0033481 0)
(0.300039 0.0032835 0)
(0.300034 0.00322401 0)
(0.300028 0.00317272 0)
(0.300021 0.00313196 0)
(0.300013 0.00310354 0)
(0.300005 0.00308869 0)
(0.299987 0.000631452 0)
(0.299988 0.000768813 0)
(0.29999 0.000890819 0)
(0.299992 0.000991147 0)
(0.299994 0.00106915 0)
(0.299996 0.00112587 0)
(0.299998 0.00116331 0)
(0.299999 0.00118406 0)
(0.3 0.00119104 0)
(0.300001 0.00118719 0)
(0.300002 0.00117535 0)
(0.300002 0.0011581 0)
(0.300002 0.00113769 0)
(0.300002 0.00111605 0)
(0.300002 0.00109476 0)
(0.300002 0.00107513 0)
(0.300001 0.00105818 0)
(0.300001 0.00104471 0)
(0.300001 0.00103533 0)
(0.3 0.00103047 0)
(0.0990666 -0.148075 0)
(0.0776031 -0.123857 0)
(0.0648963 -0.101524 0)
(0.0562863 -0.0815523 0)
(0.0500384 -0.0633186 0)
(0.0454055 -0.0463481 0)
(0.0420154 -0.0303258 0)
(0.0396601 -0.0149936 0)
(0.0382168 -0.000117819 0)
(0.037615 0.0145182 0)
(0.0378214 0.029121 0)
(0.0388337 0.0438939 0)
(0.0406797 0.059045 0)
(0.0434201 0.0747945 0)
(0.0471572 0.0913824 0)
(0.0520584 0.109076 0)
(0.0584164 0.128202 0)
(0.0668289 0.149276 0)
(0.0787817 0.172944 0)
(0.0989026 0.198035 0)
(0.167108 -0.0876952 0)
(0.154366 -0.0781915 0)
(0.143226 -0.0672749 0)
(0.133881 -0.0556298 0)
(0.126266 -0.0435419 0)
(0.120253 -0.0311507 0)
(0.115704 -0.0185486 0)
(0.112498 -0.00580047 0)
(0.110545 0.00704931 0)
(0.109786 0.0199689 0)
(0.110194 0.0329334 0)
(0.111773 0.0459199 0)
(0.114564 0.0589037 0)
(0.118645 0.0718537 0)
(0.124141 0.0847263 0)
(0.131239 0.0974499 0)
(0.140213 0.109927 0)
(0.151472 0.122154 0)
(0.165666 0.134344 0)
(0.183847 0.144965 0)
(0.189291 -0.0515876 0)
(0.184316 -0.0459348 0)
(0.179919 -0.0394362 0)
(0.176107 -0.0322291 0)
(0.172886 -0.0244531 0)
(0.170273 -0.0162288 0)
(0.168286 -0.00765779 0)
(0.166941 0.00117341 0)
(0.166251 0.0101898 0)
(0.166225 0.0193249 0)
(0.166871 0.0285176 0)
(0.168194 0.0377086 0)
(0.170199 0.0468377 0)
(0.172885 0.05584 0)
(0.176252 0.0646414 0)
(0.180298 0.073152 0)
(0.185024 0.0812657 0)
(0.19045 0.088876 0)
(0.196671 0.0958436 0)
(0.203979 0.101602 0)
(0.215939 -0.0302161 0)
(0.212765 -0.0259101 0)
(0.209844 -0.0212808 0)
(0.20725 -0.0163639 0)
(0.205038 -0.011197 0)
(0.203248 -0.00581869 0)
(0.201909 -0.000268681 0)
(0.201044 0.00541241 0)
(0.200666 0.0111831 0)
(0.200789 0.0170013 0)
(0.20142 0.0228241 0)
(0.202566 0.0286082 0)
(0.204232 0.0343094 0)
(0.206422 0.0398831 0)
(0.209137 0.0452834 0)
(0.212378 0.0504629 0)
(0.216146 0.0553761 0)
(0.22044 0.0599926 0)
(0.22527 0.0642742 0)
(0.230665 0.0679683 0)
(0.231443 -0.0194607 0)
(0.229816 -0.0162581 0)
(0.228378 -0.0128494 0)
(0.227146 -0.0092515 0)
(0.226132 -0.00548578 0)
(0.225351 -0.00157703 0)
(0.224814 0.00244791 0)
(0.22453 0.00656076 0)
(0.224507 0.0107322 0)
(0.224748 0.0149322 0)
(0.225258 0.0191303 0)
(0.226034 0.0232953 0)
(0.227075 0.0273954 0)
(0.228374 0.0313983 0)
(0.229922 0.0352706 0)
(0.231709 0.0389782 0)
(0.233721 0.0424863 0)
(0.235945 0.045762 0)
(0.238371 0.0487707 0)
(0.240997 0.0514419 0)
(0.246327 -0.0126698 0)
(0.2453 -0.0101401 0)
(0.244387 -0.00751398 0)
(0.243606 -0.00480182 0)
(0.242971 -0.00201512 0)
(0.242494 0.000833583 0)
(0.242186 0.00373079 0)
(0.242056 0.00666215 0)
(0.24211 0.00961264 0)
(0.242353 0.0125667 0)
(0.242787 0.0155085 0)
(0.243413 0.018422 0)
(0.244231 0.0212913 0)
(0.245235 0.0241006 0)
(0.246422 0.0268347 0)
(0.247784 0.0294787 0)
(0.249313 0.0320195 0)
(0.250997 0.0344487 0)
(0.252825 0.0367581 0)
(0.254786 0.0388956 0)
(0.256478 -0.00854035 0)
(0.255871 -0.00656266 0)
(0.255352 -0.00452294 0)
(0.254926 -0.00242748 0)
(0.254598 -0.000283636 0)
(0.254372 0.00190026 0)
(0.254252 0.00411507 0)
(0.254239 0.00635095 0)
(0.254335 0.00859753 0)
(0.254542 0.010844 0)
(0.25486 0.0130794 0)
(0.255287 0.0152923 0)
(0.255822 0.0174715 0)
(0.256462 0.0196058 0)
(0.257204 0.0216842 0)
(0.258043 0.0236958 0)
(0.258975 0.0256304 0)
(0.259993 0.0274789 0)
(0.261096 0.0292333 0)
(0.262278 0.0308799 0)
(0.2656 -0.00600641 0)
(0.265217 -0.00440972 0)
(0.264893 -0.0027797 0)
(0.264632 -0.0011209 0)
(0.264439 0.000561835 0)
(0.264316 0.00226334 0)
(0.264266 0.00397818 0)
(0.264292 0.00570073 0)
(0.264396 0.00742518 0)
(0.264578 0.00914561 0)
(0.264839 0.0108561 0)
(0.265178 0.0125506 0)
(0.265595 0.0142234 0)
(0.266088 0.0158686 0)
(0.266653 0.0174808 0)
(0.267289 0.0190547 0)
(0.26799 0.0205853 0)
(0.268754 0.0220697 0)
(0.269576 0.0235048 0)
(0.27045 0.024873 0)
(0.272364 -0.00423033 0)
(0.272116 -0.00294184 0)
(0.271913 -0.00163188 0)
(0.271756 -0.000303433 0)
(0.271646 0.00104023 0)
(0.271585 0.00239557 0)
(0.271573 0.00375883 0)
(0.271611 0.00512609 0)
(0.271701 0.00649324 0)
(0.271841 0.00785609 0)
(0.272031 0.00921037 0)
(0.272272 0.0105518 0)
(0.272563 0.0118762 0)
(0.272901 0.0131792 0)
(0.273287 0.014457 0)
(0.273719 0.0157054 0)
(0.274194 0.0169208 0)
(0.274711 0.0181002 0)
(0.275269 0.019241 0)
(0.275867 0.0203379 0)
(0.278301 -0.00313985 0)
(0.278145 -0.00208094 0)
(0.278019 -0.00100916 0)
(0.277925 7.32959e-05 0)
(0.277865 0.00116415 0)
(0.277838 0.00226101 0)
(0.277847 0.00336144 0)
(0.277891 0.00446293 0)
(0.277972 0.00556292 0)
(0.278088 0.00665886 0)
(0.278241 0.00774816 0)
(0.278429 0.00882828 0)
(0.278653 0.00989671 0)
(0.278911 0.010951 0)
(0.279203 0.0119887 0)
(0.279527 0.0130075 0)
(0.279882 0.0140053 0)
(0.280266 0.0149805 0)
(0.280678 0.0159318 0)
(0.281116 0.0168518 0)
(0.282924 -0.00230272 0)
(0.282818 -0.00143309 0)
(0.282735 -0.000555148 0)
(0.282675 0.000329584 0)
(0.282639 0.00121949 0)
(0.282627 0.00211287 0)
(0.282639 0.00300798 0)
(0.282677 0.00390302 0)
(0.282739 0.00479615 0)
(0.282827 0.00568551 0)
(0.282939 0.00656921 0)
(0.283076 0.0074454 0)
(0.283237 0.00831221 0)
(0.283421 0.00916785 0)
(0.283629 0.0100105 0)
(0.28386 0.0108386 0)
(0.284113 0.0116503 0)
(0.284386 0.0124444 0)
(0.284681 0.0132199 0)
(0.284996 0.0139739 0)
(0.286923 -0.00176895 0)
(0.286856 -0.00104915 0)
(0.286805 -0.000323969 0)
(0.286771 0.000405467 0)
(0.286753 0.00113799 0)
(0.286752 0.00187238 0)
(0.286768 0.00260744 0)
(0.286802 0.00334192 0)
(0.286854 0.00407455 0)
(0.286923 0.0048041 0)
(0.287009 0.00552929 0)
(0.287113 0.0062489 0)
(0.287234 0.00696168 0)
(0.287372 0.00766643 0)
(0.287525 0.00836198 0)
(0.287695 0.00904713 0)
(0.28788 0.00972081 0)
(0.28808 0.0103822 0)
(0.288293 0.0110308 0)
(0.288521 0.0116628 0)
(0.29011 -0.00133636 0)
(0.290064 -0.00074418 0)
(0.29003 -0.000148498 0)
(0.290007 0.000449857 0)
(0.289996 0.00105003 0)
(0.289998 0.00165114 0)
(0.290011 0.00225229 0)
(0.290037 0.00285256 0)
(0.290075 0.00345105 0)
(0.290125 0.00404681 0)
(0.290188 0.00463892 0)
(0.290262 0.00522646 0)
(0.290349 0.00580853 0)
(0.290447 0.00638422 0)
(0.290556 0.00695266 0)
(0.290677 0.00751299 0)
(0.290809 0.0080644 0)
(0.290952 0.00860624 0)
(0.291104 0.00913805 0)
(0.291267 0.00965817 0)
(0.292813 -0.00104072 0)
(0.292784 -0.000555099 0)
(0.292764 -6.71089e-05 0)
(0.292752 0.000422634 0)
(0.292747 0.000913498 0)
(0.292751 0.00140484 0)
(0.292763 0.001896 0)
(0.292784 0.00238633 0)
(0.292813 0.00287515 0)
(0.29285 0.00336181 0)
(0.292895 0.00384565 0)
(0.292949 0.004326 0)
(0.293011 0.00480222 0)
(0.29308 0.00527367 0)
(0.293158 0.00573972 0)
(0.293242 0.00619974 0)
(0.293335 0.00665314 0)
(0.293434 0.00709951 0)
(0.29354 0.00753852 0)
(0.293653 0.00796833 0)
(0.29496 -0.000791479 0)
(0.294942 -0.000399974 0)
(0.294928 -6.92374e-06 0)
(0.29492 0.000387214 0)
(0.294918 0.00078197 0)
(0.294921 0.00117687 0)
(0.294929 0.00157143 0)
(0.294943 0.00196516 0)
(0.294963 0.00235758 0)
(0.294989 0.00274819 0)
(0.295019 0.0031365 0)
(0.295056 0.00352204 0)
(0.295097 0.00390431 0)
(0.295144 0.00428285 0)
(0.295197 0.00465719 0)
(0.295254 0.00502688 0)
(0.295317 0.00539146 0)
(0.295384 0.00575063 0)
(0.295456 0.00610417 0)
(0.295533 0.00645105 0)
(0.296713 -0.000604665 0)
(0.296703 -0.000295792 0)
(0.296695 1.41427e-05 0)
(0.296691 0.000324802 0)
(0.296691 0.00063584 0)
(0.296693 0.00094691 0)
(0.2967 0.00125766 0)
(0.29671 0.00156773 0)
(0.296723 0.00187678 0)
(0.296739 0.00218444 0)
(0.29676 0.00249036 0)
(0.296783 0.00279419 0)
(0.29681 0.00309559 0)
(0.29684 0.00339421 0)
(0.296873 0.00368971 0)
(0.29691 0.00398174 0)
(0.296949 0.00427 0)
(0.296991 0.00455427 0)
(0.297037 0.00483443 0)
(0.297085 0.00510941 0)
(0.298046 -0.000440235 0)
(0.29804 -0.000207163 0)
(0.298036 2.65858e-05 0)
(0.298034 0.000260769 0)
(0.298033 0.000495142 0)
(0.298035 0.000729456 0)
(0.298038 0.000963461 0)
(0.298044 0.00119691 0)
(0.298052 0.00142954 0)
(0.298061 0.00166111 0)
(0.298073 0.00189136 0)
(0.298087 0.00212005 0)
(0.298102 0.00234692 0)
(0.29812 0.00257175 0)
(0.298139 0.00279429 0)
(0.29816 0.00301428 0)
(0.298183 0.00323152 0)
(0.298208 0.00344584 0)
(0.298234 0.00365721 0)
(0.298262 0.0038649 0)
(0.299037 -0.000303475 0)
(0.299034 -0.000140256 0)
(0.299032 2.3403e-05 0)
(0.299031 0.000187338 0)
(0.299031 0.000351384 0)
(0.299032 0.000515374 0)
(0.299034 0.000679141 0)
(0.299037 0.000842515 0)
(0.299041 0.00100533 0)
(0.299046 0.00116741 0)
(0.299051 0.00132859 0)
(0.299058 0.00148871 0)
(0.299066 0.0016476 0)
(0.299074 0.0018051 0)
(0.299083 0.00196104 0)
(0.299094 0.00211526 0)
(0.299105 0.00226759 0)
(0.299116 0.00241796 0)
(0.299129 0.00256634 0)
(0.299142 0.00271203 0)
(0.299682 -0.000176166 0)
(0.299681 -7.96766e-05 0)
(0.29968 1.70445e-05 0)
(0.299679 0.000113904 0)
(0.299679 0.000210804 0)
(0.29968 0.00030765 0)
(0.29968 0.000404343 0)
(0.299681 0.000500786 0)
(0.299682 0.00059688 0)
(0.299683 0.000692529 0)
(0.299685 0.000787635 0)
(0.299687 0.000882102 0)
(0.299689 0.000975836 0)
(0.299692 0.00106874 0)
(0.299695 0.00116073 0)
(0.299697 0.00125171 0)
(0.299701 0.00134157 0)
(0.299704 0.00143027 0)
(0.299707 0.00151786 0)
(0.29971 0.00160409 0)
(0.299989 -5.87784e-05 0)
(0.299989 -2.65891e-05 0)
(0.299989 5.68335e-06 0)
(0.299989 3.80064e-05 0)
(0.299989 7.03539e-05 0)
(0.29999 0.000102696 0)
(0.29999 0.000135003 0)
(0.29999 0.000167246 0)
(0.29999 0.000199395 0)
(0.29999 0.000231424 0)
(0.29999 0.000263304 0)
(0.29999 0.000295009 0)
(0.29999 0.000326516 0)
(0.29999 0.000357803 0)
(0.29999 0.000388849 0)
(0.299989 0.000419632 0)
(0.299989 0.000450141 0)
(0.299989 0.00048044 0)
(0.299989 0.000510646 0)
(0.299989 0.000540212 0)
(0.279911 -0.0916233 0)
(0.278413 -0.0943307 0)
(0.276985 -0.0974385 0)
(0.275702 -0.101054 0)
(0.274653 -0.105268 0)
(0.273915 -0.110154 0)
(0.273539 -0.115764 0)
(0.273521 -0.122124 0)
(0.273768 -0.129213 0)
(0.274073 -0.136944 0)
(0.274084 -0.145156 0)
(0.273295 -0.153601 0)
(0.271057 -0.161939 0)
(0.266594 -0.16974 0)
(0.259048 -0.176482 0)
(0.247519 -0.181582 0)
(0.231113 -0.184506 0)
(0.208968 -0.184802 0)
(0.18023 -0.181405 0)
(0.143893 -0.170835 0)
(0.274769 -0.0722329 0)
(0.272457 -0.0727026 0)
(0.269801 -0.0731936 0)
(0.266798 -0.0736709 0)
(0.263451 -0.0741736 0)
(0.259773 -0.074757 0)
(0.255799 -0.0754855 0)
(0.251587 -0.0764335 0)
(0.247217 -0.0776798 0)
(0.242782 -0.0792973 0)
(0.238373 -0.081339 0)
(0.234048 -0.0838203 0)
(0.229803 -0.0867 0)
(0.225536 -0.0898604 0)
(0.221022 -0.0930907 0)
(0.215915 -0.096079 0)
(0.209764 -0.0984038 0)
(0.202064 -0.0994952 0)
(0.192338 -0.0985629 0)
(0.180418 -0.0947214 0)
(0.272767 -0.071328 0)
(0.271268 -0.072051 0)
(0.269656 -0.0727231 0)
(0.267903 -0.0733448 0)
(0.265967 -0.0738834 0)
(0.263797 -0.0743046 0)
(0.261333 -0.0745765 0)
(0.258515 -0.0746706 0)
(0.255284 -0.0745636 0)
(0.251589 -0.0742395 0)
(0.247397 -0.0736915 0)
(0.2427 -0.0729209 0)
(0.237516 -0.0719331 0)
(0.231897 -0.0707316 0)
(0.225925 -0.0693082 0)
(0.219707 -0.0676314 0)
(0.21336 -0.0656329 0)
(0.207007 -0.0631947 0)
(0.200774 -0.0601496 0)
(0.19481 -0.0563197 0)
(0.268903 -0.0544697 0)
(0.26686 -0.0544482 0)
(0.264744 -0.0544316 0)
(0.262562 -0.0543955 0)
(0.260323 -0.0543374 0)
(0.258039 -0.0542509 0)
(0.25572 -0.0541218 0)
(0.253371 -0.0539302 0)
(0.250996 -0.0536497 0)
(0.24859 -0.0532478 0)
(0.246142 -0.0526866 0)
(0.243632 -0.0519244 0)
(0.241037 -0.0509179 0)
(0.23833 -0.0496245 0)
(0.235488 -0.0480054 0)
(0.232493 -0.0460277 0)
(0.229344 -0.0436662 0)
(0.226059 -0.0409043 0)
(0.22268 -0.0377357 0)
(0.219276 -0.0341669 0)
(0.272217 -0.0488691 0)
(0.2708 -0.0484584 0)
(0.269289 -0.0479621 0)
(0.267681 -0.0473842 0)
(0.265972 -0.0467181 0)
(0.26416 -0.0459577 0)
(0.262242 -0.0450989 0)
(0.260222 -0.0441384 0)
(0.258103 -0.043073 0)
(0.255894 -0.0418997 0)
(0.25361 -0.0406147 0)
(0.251267 -0.0392126 0)
(0.248886 -0.037686 0)
(0.246491 -0.0360252 0)
(0.244107 -0.0342175 0)
(0.24176 -0.0322481 0)
(0.239476 -0.0301011 0)
(0.237279 -0.0277602 0)
(0.235194 -0.0252119 0)
(0.233242 -0.0224465 0)
(0.272984 -0.0391665 0)
(0.271686 -0.0386814 0)
(0.270374 -0.0381509 0)
(0.269049 -0.0375662 0)
(0.267711 -0.0369204 0)
(0.266364 -0.0362065 0)
(0.265008 -0.0354165 0)
(0.263644 -0.0345421 0)
(0.262274 -0.0335748 0)
(0.260898 -0.0325063 0)
(0.259516 -0.0313285 0)
(0.258129 -0.0300345 0)
(0.25674 -0.0286181 0)
(0.255351 -0.0270747 0)
(0.253968 -0.0254012 0)
(0.252596 -0.0235963 0)
(0.251246 -0.0216602 0)
(0.249929 -0.0195951 0)
(0.248659 -0.0174046 0)
(0.247453 -0.015094 0)
(0.276706 -0.0334707 0)
(0.275733 -0.0328158 0)
(0.27473 -0.0321046 0)
(0.273699 -0.0313397 0)
(0.272642 -0.0305194 0)
(0.271562 -0.0296416 0)
(0.270463 -0.0287049 0)
(0.269348 -0.027708 0)
(0.268223 -0.0266492 0)
(0.267094 -0.0255271 0)
(0.265967 -0.0243398 0)
(0.264849 -0.0230857 0)
(0.263748 -0.0217628 0)
(0.262672 -0.0203691 0)
(0.261628 -0.0189029 0)
(0.260625 -0.0173627 0)
(0.25967 -0.0157474 0)
(0.25877 -0.0140565 0)
(0.257934 -0.0122905 0)
(0.257168 -0.0104509 0)
(0.279334 -0.0276347 0)
(0.278556 -0.0270175 0)
(0.277777 -0.0263599 0)
(0.276998 -0.0256611 0)
(0.276219 -0.0249186 0)
(0.275443 -0.0241299 0)
(0.274671 -0.0232929 0)
(0.273905 -0.0224055 0)
(0.273145 -0.0214661 0)
(0.272396 -0.0204732 0)
(0.271658 -0.0194256 0)
(0.270933 -0.0183227 0)
(0.270226 -0.017164 0)
(0.269538 -0.0159498 0)
(0.268873 -0.0146806 0)
(0.268235 -0.0133575 0)
(0.267628 -0.0119822 0)
(0.267056 -0.0105567 0)
(0.266525 -0.00908348 0)
(0.266038 -0.0075656 0)
(0.282674 -0.0233323 0)
(0.282082 -0.0227032 0)
(0.281485 -0.0220391 0)
(0.280884 -0.0213421 0)
(0.280282 -0.0206113 0)
(0.27968 -0.0198461 0)
(0.279079 -0.0190463 0)
(0.278483 -0.0182115 0)
(0.277893 -0.0173415 0)
(0.277312 -0.0164362 0)
(0.276744 -0.0154956 0)
(0.27619 -0.0145196 0)
(0.275655 -0.0135085 0)
(0.27514 -0.0124625 0)
(0.274649 -0.011382 0)
(0.274185 -0.0102677 0)
(0.273751 -0.00912058 0)
(0.273349 -0.00794168 0)
(0.272982 -0.00673246 0)
(0.272653 -0.00549466 0)
(0.28547 -0.0195297 0)
(0.285021 -0.0189613 0)
(0.284573 -0.0183661 0)
(0.284129 -0.0177452 0)
(0.28369 -0.0170979 0)
(0.283255 -0.0164234 0)
(0.282828 -0.0157215 0)
(0.282408 -0.0149919 0)
(0.281998 -0.0142344 0)
(0.281597 -0.0134491 0)
(0.281208 -0.0126362 0)
(0.280833 -0.0117959 0)
(0.280472 -0.0109287 0)
(0.280127 -0.0100354 0)
(0.279799 -0.00911672 0)
(0.279491 -0.00817367 0)
(0.279205 -0.00720743 0)
(0.27894 -0.00621935 0)
(0.278701 -0.00521093 0)
(0.278487 -0.00418383 0)
(0.288236 -0.0164367 0)
(0.287897 -0.0159113 0)
(0.28756 -0.0153647 0)
(0.287225 -0.0147982 0)
(0.286894 -0.0142117 0)
(0.286566 -0.013605 0)
(0.286243 -0.0129782 0)
(0.285927 -0.0123314 0)
(0.285618 -0.011665 0)
(0.285318 -0.0109791 0)
(0.285027 -0.0102741 0)
(0.284748 -0.00955036 0)
(0.28448 -0.0088084 0)
(0.284226 -0.00804877 0)
(0.283987 -0.0072721 0)
(0.283764 -0.00647915 0)
(0.283557 -0.00567073 0)
(0.283369 -0.00484779 0)
(0.2832 -0.00401137 0)
(0.283051 -0.0031626 0)
(0.290625 -0.0137782 0)
(0.290376 -0.0133166 0)
(0.290129 -0.0128384 0)
(0.289887 -0.0123448 0)
(0.289648 -0.0118357 0)
(0.289414 -0.0113109 0)
(0.289186 -0.0107705 0)
(0.288963 -0.0102146 0)
(0.288747 -0.00964355 0)
(0.288538 -0.0090575 0)
(0.288337 -0.00845682 0)
(0.288145 -0.00784192 0)
(0.287962 -0.00721328 0)
(0.287789 -0.00657143 0)
(0.287628 -0.005917 0)
(0.287477 -0.00525066 0)
(0.287339 -0.00457318 0)
(0.287214 -0.00388535 0)
(0.287103 -0.00318807 0)
(0.287006 -0.00248227 0)
(0.292779 -0.0114966 0)
(0.292597 -0.0110911 0)
(0.292418 -0.0106728 0)
(0.292241 -0.0102427 0)
(0.292067 -0.00980069 0)
(0.291897 -0.00934691 0)
(0.29173 -0.00888149 0)
(0.291568 -0.00840468 0)
(0.291411 -0.00791672 0)
(0.29126 -0.00741791 0)
(0.291115 -0.00690857 0)
(0.290976 -0.00638907 0)
(0.290845 -0.00585981 0)
(0.290721 -0.00532123 0)
(0.290605 -0.00477383 0)
(0.290498 -0.00421812 0)
(0.2904 -0.00365468 0)
(0.290312 -0.00308412 0)
(0.290234 -0.00250708 0)
(0.290166 -0.00192425 0)
(0.294619 -0.00950572 0)
(0.294491 -0.00916065 0)
(0.294366 -0.0088056 0)
(0.294243 -0.00844148 0)
(0.294123 -0.00806825 0)
(0.294006 -0.00768592 0)
(0.293892 -0.00729466 0)
(0.293781 -0.00689466 0)
(0.293675 -0.00648615 0)
(0.293572 -0.00606936 0)
(0.293474 -0.00564459 0)
(0.293381 -0.00521213 0)
(0.293294 -0.00477234 0)
(0.293211 -0.00432558 0)
(0.293135 -0.00387226 0)
(0.293064 -0.00341281 0)
(0.293 -0.00294769 0)
(0.292942 -0.0024774 0)
(0.292892 -0.00200244 0)
(0.292849 -0.00152336 0)
(0.296186 -0.00772853 0)
(0.296099 -0.00743959 0)
(0.296013 -0.00714305 0)
(0.295929 -0.00683967 0)
(0.295847 -0.00652939 0)
(0.295768 -0.00621229 0)
(0.29569 -0.00588851 0)
(0.295615 -0.00555825 0)
(0.295542 -0.00522171 0)
(0.295472 -0.00487911 0)
(0.295406 -0.00453067 0)
(0.295343 -0.00417666 0)
(0.295283 -0.00381735 0)
(0.295228 -0.00345304 0)
(0.295176 -0.00308404 0)
(0.295128 -0.00271068 0)
(0.295085 -0.00233332 0)
(0.295047 -0.00195232 0)
(0.295013 -0.00156808 0)
(0.294984 -0.00118099 0)
(0.297471 -0.0061282 0)
(0.297416 -0.00589521 0)
(0.297362 -0.00565642 0)
(0.297309 -0.00541253 0)
(0.297258 -0.00516349 0)
(0.297208 -0.00490933 0)
(0.297159 -0.00465017 0)
(0.297113 -0.00438617 0)
(0.297068 -0.00411749 0)
(0.297025 -0.0038443 0)
(0.296984 -0.00356678 0)
(0.296945 -0.00328513 0)
(0.296908 -0.00299957 0)
(0.296874 -0.00271034 0)
(0.296843 -0.00241766 0)
(0.296814 -0.00212181 0)
(0.296788 -0.00182304 0)
(0.296764 -0.00152164 0)
(0.296744 -0.00121791 0)
(0.296727 -0.000912146 0)
(0.29849 -0.00464701 0)
(0.298458 -0.00446741 0)
(0.298426 -0.00428361 0)
(0.298395 -0.00409614 0)
(0.298365 -0.00390497 0)
(0.298336 -0.00371011 0)
(0.298308 -0.00351168 0)
(0.29828 -0.0033098 0)
(0.298254 -0.0031046 0)
(0.298229 -0.0028962 0)
(0.298205 -0.00268475 0)
(0.298182 -0.0024704 0)
(0.298161 -0.00225331 0)
(0.298141 -0.00203366 0)
(0.298122 -0.00181161 0)
(0.298105 -0.00158736 0)
(0.29809 -0.00136111 0)
(0.298076 -0.00113305 0)
(0.298065 -0.000903408 0)
(0.298055 -0.000672394 0)
(0.299247 -0.0032619 0)
(0.299231 -0.00313495 0)
(0.299216 -0.00300502 0)
(0.299201 -0.0028726 0)
(0.299187 -0.00273765 0)
(0.299173 -0.00260019 0)
(0.299159 -0.0024603 0)
(0.299146 -0.00231806 0)
(0.299134 -0.00217357 0)
(0.299122 -0.00202691 0)
(0.29911 -0.00187819 0)
(0.2991 -0.00172751 0)
(0.29909 -0.00157497 0)
(0.29908 -0.00142071 0)
(0.299071 -0.00126484 0)
(0.299064 -0.0011075 0)
(0.299056 -0.000948806 0)
(0.29905 -0.000788911 0)
(0.299045 -0.000627958 0)
(0.29904 -0.000466094 0)
(0.299748 -0.00193208 0)
(0.299744 -0.00185625 0)
(0.299739 -0.00177883 0)
(0.299735 -0.0017 0)
(0.299731 -0.00161969 0)
(0.299726 -0.0015379 0)
(0.299722 -0.00145471 0)
(0.299718 -0.00137016 0)
(0.299714 -0.0012843 0)
(0.29971 -0.00119719 0)
(0.299706 -0.0011089 0)
(0.299703 -0.00101948 0)
(0.2997 -0.000929009 0)
(0.299696 -0.000837546 0)
(0.299694 -0.000745169 0)
(0.299691 -0.000651953 0)
(0.299688 -0.000557978 0)
(0.299686 -0.000463326 0)
(0.299684 -0.000368082 0)
(0.299683 -0.000272332 0)
(0.299989 -0.000648063 0)
(0.299989 -0.000622141 0)
(0.29999 -0.000595539 0)
(0.29999 -0.0005687 0)
(0.29999 -0.000541517 0)
(0.29999 -0.000513926 0)
(0.29999 -0.000485926 0)
(0.29999 -0.000457527 0)
(0.29999 -0.000428738 0)
(0.29999 -0.000399568 0)
(0.29999 -0.000370031 0)
(0.29999 -0.000340144 0)
(0.29999 -0.000309922 0)
(0.29999 -0.000279386 0)
(0.29999 -0.000248557 0)
(0.29999 -0.000217457 0)
(0.29999 -0.000186111 0)
(0.29999 -0.000154542 0)
(0.299989 -0.000122778 0)
(0.299989 -9.08486e-05 0)
(0.0661645 -0.104804 0)
(0.0421607 -0.0805 0)
(0.0286331 -0.0607753 0)
(0.0201872 -0.0460959 0)
(0.014529 -0.0348185 0)
(0.0105562 -0.0259382 0)
(0.00767459 -0.0189224 0)
(0.00553397 -0.0134071 0)
(0.00391513 -0.00910949 0)
(0.00267453 -0.00580871 0)
(0.00171472 -0.00333 0)
(0.000967831 -0.00153174 0)
(0.000386032 -0.00029638 0)
(-6.38691e-05 0.000474971 0)
(-0.000403416 0.000872236 0)
(-0.000641325 0.000980825 0)
(-0.000773219 0.000866716 0)
(-0.000789284 0.000601194 0)
(-0.000658404 0.000290186 0)
(-0.00032128 6.91218e-05 0)
(0.1161 -0.116573 0)
(0.091096 -0.101793 0)
(0.0727264 -0.0864754 0)
(0.0586594 -0.0726081 0)
(0.0475235 -0.0601759 0)
(0.0385076 -0.0491438 0)
(0.0310909 -0.0395066 0)