/*--------------------------------*- C++ -*----------------------------------*\
| =========                 |                                                 |
| \\      /  F ield         | OpenFOAM: The Open Source CFD Toolbox           |
|  \\    /   O peration     | Version:  v1806                                 |
|   \\  /    A nd           | Web:      www.OpenFOAM.com                      |
|    \\/     M anipulation  |                                                 |
\*---------------------------------------------------------------------------*/
FoamFile
{
    version     2.0;
    format      ascii;
    class       surfaceScalarField;
    location    "390";
    object      phi;
}
// * * * * * * * * * * * * * * * * * * * * * * * * * * * * * * * * * * * * * //

dimensions      [0 3 -1 0 0 0 0];
oriented        oriented;


internalField   nonuniform List<scalar> 
14009
(
1.29125e-08
0.00291815
-0.000763623
-0.00228069
0.000126152
-3.21552e-14
0.0029165
-0.000763442
-0.00227826
0.00012522
-1.29018e-08
0.0029165
-0.000763442
-0.00227826
0.00012522
0.00291815
-0.000763622
-0.00228069
0.000126152
-3.67081e-08
0.000483483
0.00286375
-0.000429043
3.66904e-12
0.000483209
0.00286145
-0.000428198
3.67172e-08
0.000483209
0.00286145
-0.000428198
0.000483483
0.00286375
-0.000429043
-1.10225e-08
0.00232349
-0.00144209
-0.000397903
1.83004e-12
0.00232088
-0.00144047
-0.000397212
1.10252e-08
0.00232088
-0.00144047
-0.000397212
0.00232349
-0.00144209
-0.000397903
-9.58917e-09
0.00146412
-0.000272481
0.00113186
1.1854e-12
0.00146144
-0.00027295
0.00113238
9.58696e-09
0.00146144
-0.00027295
0.00113238
0.00146412
-0.000272481
0.00113186
-4.20375e-08
0.00148429
0.00826621
-0.00727287
-0.00247759
1.08061e-12
0.0014884
0.00826685
-0.00727394
-0.00248135
4.2036e-08
0.0014884
0.00826685
-0.00727394
-0.00248135
0.00148429
0.00826621
-0.00727287
-0.00247759
-2.51192e-08
0.000838679
3.89314e-05
0.000606708
1.39678e-12
0.000839864
4.01295e-05
0.00060838
2.51183e-08
0.000839864
4.01295e-05
0.00060838
0.000838679
3.89314e-05
0.000606708
-7.53727e-09
0.000125139
0.000133054
0.000580493
-1.77321e-12
0.000124764
0.00013231
0.000582782
7.5386e-09
0.000124764
0.00013231
0.000582782
0.000125139
0.000133054
0.000580493
-1.19988e-08
0.00865041
-0.000259046
-1.39183e-12
0.00865264
-0.000261034
1.19961e-08
0.00865264
-0.000261034
0.00865041
-0.000259046
-2.12792e-07
-0.0719779
0.0211537
0.0567989
-0.00597454
2.87961e-12
-0.071982
0.0211614
0.0567938
-0.00597343
2.12792e-07
-0.071982
0.0211614
0.0567938
-0.00597343
-0.0719779
0.0211537
0.0567989
-0.00597454
-6.60392e-08
-0.00771619
-0.0665236
0.0022619
2.92304e-12
-0.00771622
-0.0665293
0.00226346
6.60345e-08
-0.00771622
-0.0665293
0.00226346
-0.00771619
-0.0665236
0.0022619
6.76604e-08
0.00959008
0.0237422
-0.0121786
4.40345e-13
0.00959551
0.0237409
-0.0121749
-6.76668e-08
0.00959551
0.0237409
-0.0121749
0.00959008
0.0237422
-0.0121786
1.12602e-07
-0.0244913
-0.00301084
0.0278875
-0.000385519
-1.00301e-12
-0.0244714
-0.00300982
0.0278818
-0.000400512
-1.12603e-07
-0.0244714
-0.00300982
0.0278818
-0.000400512
-0.0244913
-0.00301084
0.0278875
-0.000385519
1.02527e-07
0.0112482
-0.0162249
-0.0195146
-1.40608e-13
0.0112469
-0.0162349
-0.0194832
-1.02525e-07
0.0112469
-0.0162349
-0.0194832
0.0112482
-0.0162249
-0.0195146
-7.90003e-08
0.0106968
-0.00245942
-1.93746e-12
0.0106919
-0.002455
7.89975e-08
0.0106919
-0.002455
0.0106968
-0.00245942
2.29788e-08
0.00178602
0.00982313
-0.000912353
-8.50116e-14
0.0017816
0.00982068
-0.00091031
-2.298e-08
0.0017816
0.00982068
-0.00091031
0.00178602
0.00982313
-0.000912353
1.26023e-08
0.0251692
0.00450429
-4.17251e-13
0.0251649
0.00449852
-1.26041e-08
0.0251649
0.00449852
0.0251692
0.00450429
-1.3265e-09
-0.00152856
-0.00802082
0.0103736
-0.000824191
1.72298e-12
-0.0015263
-0.00802276
0.0103816
-0.000832537
1.32794e-09
-0.0015263
-0.00802276
0.0103816
-0.000832537
-0.00152856
-0.00802082
0.0103736
-0.000824191
-1.22105e-09
-0.00288053
0.000912305
0.000439674
1.6555e-12
-0.00288334
0.000917027
0.000440007
1.2198e-09
-0.00288334
0.000917027
0.000440007
-0.00288053
0.000912304
0.000439674
-6.09275e-08
-0.00131121
-6.02625e-13
-0.00131065
6.09245e-08
-0.00131065
-0.00131121
1.98156e-07
0.0189948
0.00903762
-0.0280326
3.198e-12
0.0189902
0.00903009
-0.0280201
-1.98157e-07
0.0189902
0.00903009
-0.0280201
0.0189948
0.00903762
-0.0280326
-1.42234e-07
0.0112787
3.52923e-12
0.0112739
1.4224e-07
0.0112739
0.0112787
-1.96839e-09
-0.0756411
0.0181552
2.19872e-12
-0.0756573
0.0181581
1.95687e-09
-0.0756573
0.0181581
-0.0756411
0.0181552
9.37993e-08
-0.0425532
-0.0513036
0.0182156
3.20977e-12
-0.0425539
-0.0513189
0.0182155
-9.38099e-08
-0.0425539
-0.0513189
0.0182155
-0.0425532
-0.0513036
0.0182156
-2.1818e-07
0.0553962
-0.0620391
0.00318136
0.00346174
5.03178e-13
0.0553709
-0.0620145
0.00318206
0.00346126
2.18179e-07
0.0553709
-0.0620145
0.00318206
0.00346126
0.0553962
-0.0620391
0.00318136
0.00346174
-5.21968e-07
0.0446406
0.00452173
0.00623438
3.02168e-14
0.0446019
0.0045343
0.00623426
5.21967e-07
0.0446019
0.0045343
0.00623426
0.0446406
0.00452173
0.00623438
-1.97335e-08
-0.000512324
-0.00125906
0.00177141
2.09605e-12
-0.000514005
-0.00125771
0.0017717
1.97325e-08
-0.000514005
-0.00125771
0.0017717
-0.000512325
-0.00125906
0.00177141
-2.59221e-08
-0.00180629
0.00220629
4.89507e-12
-0.00180291
0.00220591
2.59351e-08
-0.00180291
0.00220591
-0.00180629
0.00220629
-2.58536e-08
-0.000937246
0.000595102
7.15959e-13
-0.00093447
0.000592968
2.58586e-08
-0.00093447
0.000592968
-0.000937246
0.000595102
4.17536e-08
-0.0620077
2.29098e-05
-3.4212e-05
0.0620189
-8.73014e-14
-0.0620072
1.87771e-05
-3.43935e-05
0.0620228
-4.17534e-08
-0.0620072
1.87771e-05
-3.43935e-05
0.0620228
-0.0620077
2.29098e-05
-3.4212e-05
0.0620189
-2.14848e-08
0.00431021
-0.0639652
-0.00235266
-4.06596e-15
0.00431055
-0.0639669
-0.00235086
2.14851e-08
0.00431055
-0.0639669
-0.00235086
0.00431021
-0.0639652
-0.00235266
-1.47493e-07
-0.0672046
0.00247563
0.00268998
6.07364e-13
-0.0671835
0.00247342
0.00269547
1.47493e-07
-0.0671835
0.00247342
0.00269547
-0.0672046
0.00247563
0.00268998
-9.53671e-08
-0.0695666
0.00201684
0.00034527
3.98916e-13
-0.069549
0.00201258
0.000352858
9.53679e-08
-0.069549
0.00201258
0.000352858
-0.0695666
0.00201684
0.00034527
-9.84512e-08
-0.0738915
0.00594523
-0.00162023
3.20053e-13
-0.0738792
0.00594294
-0.00161286
9.8452e-08
-0.0738792
0.00594294
-0.00161286
-0.0738915
0.00594523
-0.00162023
-1.0489e-07
-0.0544857
0.0107582
-0.0301638
-2.63876e-14
-0.0544739
0.0107549
-0.0301604
1.0489e-07
-0.0544739
0.0107549
-0.0301604
-0.0544857
0.0107582
-0.0301638
-6.07809e-08
-0.0622651
0.00780235
-6.75094e-14
-0.0622581
0.00780296
6.07807e-08
-0.0622581
0.00780296
-0.0622651
0.00780235
-3.9625e-08
-0.0633426
0.00538776
-1.18918e-13
-0.0633378
0.00539021
3.96248e-08
-0.0633378
0.00539021
-0.0633426
0.00538776
-3.38811e-08
-0.00370918
0.00448693
-0.0641203
9.43946e-15
-0.00370762
0.00448613
-0.0641164
3.3881e-08
-0.00370762
0.00448613
-0.0641164
-0.00370918
0.00448693
-0.0641203
-1.28681e-08
-0.0650666
-0.00260775
-2.4297e-14
-0.0650642
-0.00261026
1.28679e-08
-0.0650642
-0.00261026
-0.0650666
-0.00260775
-6.02319e-07
0.00444131
-0.0047079
0.0449078
-3.71665e-12
0.00448087
-0.00469316
0.0448136
6.02318e-07
0.00448087
-0.00469316
0.0448136
0.00444131
-0.0047079
0.0449078
-1.36671e-07
-0.0581812
0.0566658
0.0059568
2.85144e-12
-0.0581721
0.0566737
0.0059791
1.36671e-07
-0.0581721
0.0566737
0.0059791
-0.0581812
0.0566658
0.0059568
-7.49807e-10
-0.0620996
0.0084402
2.33731e-12
-0.0620829
0.00844504
7.49428e-10
-0.0620829
0.00844504
-0.0620996
0.0084402
1.48445e-08
-0.0650781
0.0061598
9.82646e-13
-0.0650625
0.00616169
-1.48446e-08
-0.0650625
0.00616169
-0.0650781
0.0061598
7.14389e-09
-0.0680138
0.00541131
4.02642e-13
-0.0680001
0.00541101
-7.14388e-09
-0.0680001
0.00541101
-0.0680138
0.00541131
-1.92562e-08
-0.0696159
0.00361896
3.88007e-13
-0.069608
0.00362048
1.92563e-08
-0.069608
0.00362048
-0.0696159
0.00361896
-5.27389e-08
-0.0696968
0.00602622
4.35534e-13
-0.0696894
0.00602429
5.27398e-08
-0.0696894
0.00602429
-0.0696968
0.00602622
-4.26068e-08
-0.0657359
0.00679731
-2.77264e-14
-0.065732
0.00679745
4.26063e-08
-0.065732
0.00679745
-0.0657359
0.00679731
-5.91946e-08
-0.0650881
0.00715456
-1.14045e-13
-0.0650829
0.00715384
5.9194e-08
-0.0650829
0.00715384
-0.0650881
0.00715456
-3.44131e-08
-0.0643561
0.00465579
-1.10263e-13
-0.0643498
0.00465711
3.44127e-08
-0.0643498
0.00465711
-0.0643561
0.00465579
-4.68522e-08
-0.0626162
0.00274714
2.81652e-14
-0.0626131
0.00274934
4.68522e-08
-0.0626131
0.00274934
-0.0626162
0.00274714
-4.23712e-08
-0.00489321
0.00758404
-0.065307
1.09882e-13
-0.00489426
0.00758403
-0.0653029
4.23713e-08
-0.00489426
0.00758403
-0.0653029
-0.00489321
0.00758404
-0.065307
-3.77447e-08
-0.00346214
-0.0655514
1.30427e-13
-0.00346281
-0.0655479
3.77447e-08
-0.00346281
-0.0655479
-0.00346214
-0.0655514
-3.49043e-08
0.000366032
-0.0688948
8.90824e-14
0.000367319
-0.0688944
3.49043e-08
0.000367319
-0.0688944
0.000366032
-0.0688948
-3.4057e-08
0.0649931
-0.0685698
0.00394285
7.26612e-14
0.0649934
-0.0685691
0.00394302
3.4057e-08
0.0649934
-0.0685691
0.00394302
0.0649931
-0.0685698
0.00394285
-2.65242e-08
0.0641276
-0.00174225
5.09574e-14
0.0641261
-0.00174305
2.65242e-08
0.0641261
-0.00174305
0.0641276
-0.00174225
-1.81365e-08
0.0595762
0.00219877
-5.2542e-14
0.0595718
0.00220351
1.81364e-08
0.0595718
0.00220351
0.0595762
0.00219877
-3.91056e-09
0.0530028
0.00653919
-8.41511e-15
0.0529976
0.00653975
3.91119e-09
0.0529976
0.00653975
0.0530028
0.00653919
-4.68008e-08
0.0763905
0.00846749
-0.0318551
-1.60377e-13
0.0763911
0.00846891
-0.0318624
4.68003e-08
0.0763911
0.00846891
-0.0318624
0.0763905
0.00846749
-0.0318551
2.51856e-08
0.073194
0.00157625
1.04978e-13
0.0732
0.00157823
-2.51859e-08
0.0732
0.00157823
0.073194
0.00157625
3.89324e-08
0.068759
0.00478014
3.16547e-13
0.068771
0.00478188
-3.89325e-08
0.068771
0.00478188
0.068759
0.00478014
-3.15621e-08
0.0661092
0.00533986
8.1298e-13
0.0661234
0.0053431
3.15626e-08
0.0661234
0.0053431
0.0661092
0.00533986
-4.85854e-08
0.0630393
0.00653173
5.88885e-13
0.0630515
0.00653309
4.85845e-08
0.0630515
0.00653309
0.0630393
0.00653173
-1.00454e-07
0.0624363
0.00683745
1.10626e-12
0.0624437
0.00684198
1.00453e-07
0.0624437
0.00684198
0.0624363
0.00683745
-1.27538e-07
0.000973685
0.0567548
-3.13162e-13
0.000984247
0.0567661
1.2754e-07
0.000984247
0.0567661
0.000973685
0.0567548
-1.35996e-08
0.00721487
0.0432371
0.00621387
-2.49495e-12
0.00721659
0.0432421
0.00621509
1.36016e-08
0.00721659
0.0432421
0.00621509
0.00721487
0.0432371
0.00621387
-2.50885e-08
-0.0589694
0.0492918
0.0168925
5.55318e-12
-0.0589824
0.0493016
0.0168973
2.50854e-08
-0.0589824
0.0493016
0.0168973
-0.0589694
0.0492918
0.0168925
-1.96618e-07
-0.0636054
0.010593
3.92068e-12
-0.0636011
0.0105977
1.96619e-07
-0.0636011
0.0105977
-0.0636054
0.010593
-1.43519e-07
-0.0662539
0.0110888
2.89422e-12
-0.0662406
0.0110843
1.43519e-07
-0.0662406
0.0110843
-0.0662539
0.0110888
-1.02841e-07
-0.0663543
0.00626031
7.14588e-13
-0.06634
0.00626099
1.0284e-07
-0.06634
0.00626099
-0.0663543
0.00626031
-1.12384e-07
-0.0669304
0.00598754
4.47073e-13
-0.0669181
0.00598903
1.12383e-07
-0.0669181
0.00598903
-0.0669304
0.00598754
-1.08513e-07
-0.0686558
0.0053444
5.35242e-13
-0.0686455
0.00534779
1.08514e-07
-0.0686455
0.00534779
-0.0686558
0.0053444
-8.21785e-08
-0.0687238
0.00609437
4.82673e-13
-0.0687195
0.00609819
8.21795e-08
-0.0687195
0.00609819
-0.0687238
0.00609437
-3.69064e-08
-0.0688468
0.00692036
-4.20394e-14
-0.0688447
0.0069226
3.69059e-08
-0.0688447
0.0069226
-0.0688468
0.00692036
-3.81622e-08
-0.0665622
0.00486999
-1.68171e-13
-0.0665628
0.00487196
3.81615e-08
-0.0665628
0.00487196
-0.0665622
0.00486999
-3.77235e-08
-0.065235
0.00332863
-1.1809e-13
-0.0652354
0.00332964
3.77231e-08
-0.0652354
0.00332964
-0.065235
0.00332863
-4.65566e-08
-0.0676271
0.00513921
2.17006e-16
-0.0676273
0.00514117
4.65566e-08
-0.0676273
0.00514117
-0.0676271
0.00513921
-3.4359e-08
-0.0666353
0.00659234
5.33001e-14
-0.0666355
0.00659223
3.43591e-08
-0.0666355
0.00659223
-0.0666353
0.00659234
-3.23419e-08
-0.00508739
0.00564902
-0.0671969
3.37493e-14
-0.00508751
0.00564936
-0.0671974
3.23419e-08
-0.00508751
0.00564936
-0.0671974
-0.00508739
0.00564902
-0.0671969
-3.923e-08
-0.00211389
-0.0682805
6.59192e-14
-0.00211263
-0.0682778
3.92301e-08
-0.00211263
-0.0682778
-0.00211389
-0.0682805
-3.35095e-08
0.000650736
-0.068316
8.43277e-14
0.000651953
-0.0683125
3.35096e-08
0.000651953
-0.0683125
0.000650736
-0.068316
-1.86828e-08
0.00260631
-0.0708503
4.92326e-14
0.00260522
-0.0708477
1.86828e-08
0.00260522
-0.0708477
0.00260631
-0.0708503
-2.28169e-08
0.00490135
-0.0708649
3.64086e-14
0.00489921
-0.0708631
2.28169e-08
0.00489921
-0.0708631
0.00490135
-0.0708649
-2.82827e-08
0.0691214
0.0055036
-0.0697237
5.81308e-15
0.0691216
0.00550215
-0.0697246
2.82827e-08
0.0691216
0.00550215
-0.0697246
0.0691214
0.0055036
-0.0697237
-3.24102e-08
0.0659854
0.00707892
4.0533e-14
0.0659866
0.00707802
3.24102e-08
0.0659866
0.00707802
0.0659854
0.00707892
-2.97706e-08
0.0647785
-0.000535284
1.14644e-13
0.0647776
-0.000534093
2.97706e-08
0.0647776
-0.000534093
0.0647785
-0.000535284
5.46667e-09
0.0636985
0.00327877
3.23669e-14
0.0637018
0.00327934
-5.46697e-09
0.0637018
0.00327934
0.0636985
0.00327877
-6.76758e-09
0.0664047
0.00383301
-8.12568e-14
0.0664086
0.00383298
6.76765e-09
0.0664086
0.00383298
0.0664047
0.00383301
1.51871e-08
0.070819
0.00405312
-2.32261e-13
0.0708231
0.00405441
-1.51872e-08
0.0708231
0.00405441
0.070819
0.00405312
-3.45707e-08
0.068373
0.00402232
-7.50329e-14
0.0683761
0.00402521
3.45708e-08
0.0683761
0.00402521
0.068373
0.00402232
-8.04426e-08
0.0684512
0.00470204
2.96238e-13
0.0684542
0.00470363
8.04431e-08
0.0684542
0.00470363
0.0684512
0.00470204
-1.38075e-07
0.0670755
0.00671561
6.6589e-13
0.0670807
0.00671648
1.38076e-07
0.0670807
0.00671648
0.0670755
0.00671561
-1.99003e-07
0.0652275
0.00837998
6.95659e-13
0.0652319
0.00838174
1.99004e-07
0.0652319
0.00838174
0.0652275
0.00837998
-2.53797e-07
0.0640997
0.00796548
1.03799e-12
0.0641063
0.00796727
2.53797e-07
0.0641063
0.00796727
0.0640997
0.00796548
-2.07053e-07
0.0576283
0.00744529
7.91591e-13
0.0576383
0.007452
2.0705e-07
0.0576383
0.007452
0.0576283
0.00744529
-1.84225e-07
0.00180433
0.0408898
0.0140609
-1.40355e-12
0.00180412
0.0408979
0.0140639
1.8423e-07
0.00180412
0.0408979
0.0140639
0.00180433
0.0408898
0.0140609
-8.57872e-08
0.0410735
0.0183592
6.74362e-13
0.041084
0.0183584
8.57868e-08
0.041084
0.0183584
0.0410735
0.0183592
3.70791e-07
0.0532333
0.0287297
1.27744e-12
0.0532507
0.0287316
-3.70787e-07
0.0532507
0.0287316
0.0532333
0.0287297
5.04695e-07
0.0643911
0.0281373
4.11856e-12
0.0644343
0.0281098
-5.04701e-07
0.0644343
0.0281098
0.0643911
0.0281373
-2.18032e-08
0.000512125
-0.00348633
0.0022106
2.30627e-12
0.000513478
-0.00348768
0.00221074
2.18029e-08
0.000513478
-0.00348768
0.00221074
0.000512125
-0.00348633
0.0022106
-1.83754e-08
-0.00183816
6.96088e-05
-2.29407e-12
-0.00183615
7.13429e-05
1.83819e-08
-0.00183615
7.13429e-05
-0.00183816
6.96088e-05
-1.39334e-08
0.0023033
-0.000229649
-0.00301088
-7.08097e-13
0.00230165
-0.000228589
-0.00300754
1.39357e-08
0.00230165
-0.000228589
-0.00300754
0.0023033
-0.000229649
-0.00301088
-4.72737e-09
0.0011773
3.71281e-13
0.00117624
4.72827e-09
0.00117624
0.0011773
1.34982e-09
0.000744025
0.000240699
0.00187902
-2.23973e-13
0.000742739
0.000243556
0.00187516
-1.34845e-09
0.000742739
0.000243556
0.00187516
0.000744025
0.000240699
0.00187902
-2.31345e-08
0.00109489
-5.66358e-13
0.00109691
2.3136e-08
0.00109691
0.00109489
-1.76374e-08
0.00844922
0.0012961
-9.71711e-13
0.00845121
0.00129832
1.76347e-08
0.00845121
0.00129832
0.00844922
0.0012961
1.24498e-08
0.00785749
0.000832418
5.16542e-13
0.00785939
0.000835388
-1.24627e-08
0.00785939
0.000835388
0.00785749
0.000832418
8.22355e-10
0.00905782
-0.00162938
4.64329e-12
0.00905884
-0.00162765
-8.24279e-10
0.00905884
-0.00162765
0.00905782
-0.00162938
-1.43958e-08
0.00916572
-0.00359421
3.15942e-12
0.00916417
-0.00359303
1.43994e-08
0.00916417
-0.00359303
0.00916572
-0.00359421
2.40263e-08
-0.00075645
-0.000246861
-0.000834869
6.69943e-13
-0.000753892
-0.000247399
-0.000834831
-2.4027e-08
-0.000753892
-0.000247399
-0.000834831
-0.00075645
-0.000246861
-0.000834869
1.01918e-08
-0.0023522
0.00380635
1.94146e-12
-0.0023492
0.00380606
-1.01951e-08
-0.0023492
0.00380606
-0.0023522
0.00380635
4.30638e-08
-0.00628421
0.0130977
4.58861e-13
-0.00628216
0.0130972
-4.30664e-08
-0.00628216
0.0130972
-0.00628421
0.0130977
-1.37489e-08
-0.000193804
-0.00112212
-1.22103e-12
-0.000191405
-0.00112386
1.37533e-08
-0.000191405
-0.00112386
-0.000193804
-0.00112212
-7.669e-09
0.000675989
-0.000800177
-3.40653e-12
0.000678021
-0.000798091
7.67084e-09
0.000678021
-0.000798091
0.000675989
-0.000800177
1.93504e-09
0.00158157
-0.00115244
-2.74993e-12
0.00158142
-0.00115079
-1.93248e-09
0.00158142
-0.00115079
0.00158157
-0.00115244
-8.36828e-10
-0.00755303
0.000607848
-0.000327694
1.86688e-12
-0.00755368
0.000610924
-0.000331187
8.40351e-10
-0.00755368
0.000610924
-0.000331187
-0.00755303
0.000607848
-0.000327694
-4.53468e-08
-0.0081756
0.000831599
-0.000208974
-7.06666e-13
-0.0081765
0.000828166
-0.00020539
4.53437e-08
-0.0081765
0.000828166
-0.00020539
-0.0081756
0.000831599
-0.000208974
-3.10919e-08
0.00230427
-0.000656711
-2.01828e-14
0.00229926
-0.000655112
3.10907e-08
0.00229926
-0.000655112
0.00230427
-0.000656711
-1.58477e-08
0.0261944
0.00127911
4.84439e-13
0.026194
0.00127018
1.58452e-08
0.026194
0.00127018
0.0261944
0.00127911
-3.13646e-08
0.0250479
0.00197818
7.7438e-13
0.0250446
0.00197753
3.13601e-08
0.0250446
0.00197753
0.0250479
0.00197818
4.3605e-08
0.0247662
0.000889427
8.68063e-13
0.024766
0.000889566
-4.36095e-08
0.024766
0.000889566
0.0247662
0.000889427
-6.22085e-08
0.0248732
-0.00258453
1.43878e-12
0.0248685
-0.00258397
6.22066e-08
0.0248685
-0.00258397
0.0248732
-0.00258453
-1.53539e-09
0.0247738
-0.00015959
6.9499e-13
0.0247707
-0.000163184
1.53226e-09
0.0247707
-0.000163184
0.0247738
-0.00015959
-5.9507e-09
0.024965
0.00110488
1.8695e-12
0.0249646
0.00110436
5.95577e-09
0.0249646
0.00110436
0.024965
0.00110488
1.79978e-08
0.0261411
-0.000343715
3.86983e-12
0.0261424
-0.000342348
-1.79908e-08
0.0261424
-0.000342348
0.0261411
-0.000343715
-3.54748e-08
0.0266208
-0.00210899
4.55341e-12
0.026622
-0.00210727
3.54837e-08
0.026622
-0.00210727
0.0266208
-0.00210899
-4.03659e-08
0.027628
-0.00460138
1.2783e-12
0.0276271
-0.00459818
4.03705e-08
0.0276271
-0.00459818
0.027628
-0.00460138
3.59436e-08
0.0275203
-0.00617656
-2.39608e-12
0.0275226
-0.00617768
-3.59458e-08
0.0275226
-0.00617768
0.0275203
-0.00617656
-1.18881e-08
1.8973e-05
-0.00121948
0.00278209
1.17892e-13
1.81419e-05
-0.00121921
0.00278247
1.18846e-08
1.81419e-05
-0.00121921
0.00278247
1.8973e-05
-0.00121948
0.00278209
-1.65231e-08
-0.00102878
0.000212898
1.41091e-12
-0.00103018
0.000213475
1.65213e-08
-0.00103018
0.000213475
-0.00102878
0.000212898
-2.07443e-08
-0.00273811
0.0055157
-4.06411e-13
-0.00274013
0.00551599
2.07405e-08
-0.00274013
0.00551599
-0.00273811
0.0055157
-3.00459e-08
-0.00536088
0.0157205
-2.08943e-12
-0.00536107
0.0157181
3.00393e-08
-0.00536107
0.0157181
-0.00536088
0.0157205
-2.79155e-08
0.0286016
-0.00644212
-3.13247e-12
0.0286009
-0.00643939
2.79079e-08
0.0286009
-0.00643939
0.0286016
-0.00644212
-3.21796e-08
0.00995201
0.00262788
5.06642e-13
0.00995754
0.00262994
3.21808e-08
0.00995754
0.00262994
0.00995201
0.00262788
-3.75093e-08
0.00939088
0.00115627
2.53658e-12
0.00939533
0.00115513
3.75113e-08
0.00939533
0.00115513
0.00939088
0.00115627
7.17692e-10
0.00948286
-0.000364463
3.40663e-12
0.00948701
-0.000364632
-7.10204e-10
0.00948701
-0.000364632
0.00948286
-0.000364463
-1.923e-08
0.0100932
-0.00100819
1.88568e-12
0.0100963
-0.00100654
1.9234e-08
0.0100963
-0.00100654
0.0100932
-0.00100819
-2.14841e-08
0.0102291
-0.001258
5.12551e-13
0.0102301
-0.0012577
2.1484e-08
0.0102301
-0.0012577
0.0102291
-0.001258
-5.17519e-09
0.0102656
-0.000836661
-1.43697e-12
0.010267
-0.000834933
5.17873e-09
0.010267
-0.000834933
0.0102656
-0.000836661
1.78367e-08
0.0111515
-0.00203844
-2.27659e-12
0.0111514
-0.00203517
-1.78346e-08
0.0111514
-0.00203517
0.0111515
-0.00203844
-1.5068e-08
-0.00260872
0.0125408
-2.76609e-12
-0.00260833
0.0125405
1.50653e-08
-0.00260833
0.0125405
-0.00260872
0.0125408
3.83786e-08
-0.0432526
-0.00535302
0.00605237
2.42675e-12
-0.0432425
-0.00535157
0.0060403
-3.83804e-08
-0.0432425
-0.00535157
0.0060403
-0.0432526
-0.00535302
0.00605237
1.28001e-07
-0.0617269
0.0219821
-0.00350796
1.89924e-12
-0.0617215
0.0219847
-0.00350561
-1.28001e-07
-0.0617215
0.0219847
-0.00350561
-0.0617269
0.0219821
-0.00350796
1.4571e-07
-0.0699088
0.0177762
-0.00959439
1.18135e-12
-0.0698993
0.0177777
-0.00959984
-1.45712e-07
-0.0698993
0.0177777
-0.00959984
-0.0699088
0.0177762
-0.00959439
9.60013e-08
-0.0747257
0.01656
-0.0117432
1.0604e-12
-0.0747184
0.01657
-0.0117508
-9.60053e-08
-0.0747184
0.01657
-0.0117508
-0.0747257
0.01656
-0.0117432
-4.95632e-07
-0.0821364
0.0201217
-0.0127105
-3.59949e-13
-0.0821474
0.0201113
-0.0126828
4.95626e-07
-0.0821474
0.0201113
-0.0126828
-0.0821364
0.0201217
-0.0127105
1.28071e-07
-0.0563355
0.0274322
1.78012e-13
-0.0563273
0.0274307
-1.28073e-07
-0.0563273
0.0274307
-0.0563355
0.0274322
-4.97947e-08
-0.0594194
0.0214432
-7.58702e-13
-0.0594256
0.0214567
4.97967e-08
-0.0594256
0.0214567
-0.0594194
0.0214432
-5.5047e-08
-0.0656462
0.0136721
-1.04355e-12
-0.0656507
0.0136771
5.50492e-08
-0.0656507
0.0136771
-0.0656462
0.0136721
-7.38332e-08
-0.0675542
0.00987356
-8.2971e-13
-0.0675624
0.00987889
7.38337e-08
-0.0675624
0.00987889
-0.0675542
0.00987356
-3.06091e-08
-0.0669079
0.00773375
-8.08723e-13
-0.0669153
0.00773457
3.0607e-08
-0.0669153
0.00773457
-0.0669079
0.00773375
-3.37838e-08
-0.0671028
0.00691049
2.28968e-13
-0.0671096
0.00691073
3.37828e-08
-0.0671096
0.00691073
-0.0671028
0.00691049
-2.56744e-08
-0.0691801
0.0067794
3.45649e-13
-0.069184
0.00677803
2.56743e-08
-0.069184
0.00677803
-0.0691801
0.0067794
-1.01916e-08
-0.069277
0.00411915
9.9777e-14
-0.0692785
0.0041197
1.01916e-08
-0.0692785
0.0041197
-0.069277
0.00411915
2.58572e-08
-0.0675708
0.00234698
-1.16863e-13
-0.0675704
0.00234635
-2.58575e-08
-0.0675704
0.00234635
-0.0675708
0.00234698
7.24907e-09
-0.0664188
0.002681
-1.65272e-13
-0.0664195
0.00268207
-7.24936e-09
-0.0664195
0.00268207
-0.0664188
0.002681
3.15662e-09
-0.0679938
0.00485376
-8.8042e-14
-0.0679935
0.00485338
-3.157e-09
-0.0679935
0.00485338
-0.0679938
0.00485376
-2.36314e-08
-0.0727718
0.00424269
8.14664e-14
-0.0727715
0.00424389
2.36314e-08
-0.0727715
0.00424389
-0.0727718
0.00424269
-2.7761e-08
-0.0710164
0.0053236
7.35135e-14
-0.071017
0.00532344
2.77611e-08
-0.071017
0.00532344
-0.0710164
0.0053236
-2.79192e-08
-0.0704647
0.00495189
-1.38759e-16
-0.0704664
0.00495151
2.79192e-08
-0.0704664
0.00495151
-0.0704647
0.00495189
-4.08279e-08
0.0273446
-0.00442661
2.63986e-13
0.0273402
-0.00443179
4.08312e-08
0.0273402
-0.00443179
0.0273446
-0.00442661
1.62649e-08
0.0280556
0.00191687
1.06867e-13
0.0280568
0.00191333
-1.62687e-08
0.0280568
0.00191333
0.0280556
0.00191687
-4.72458e-08
0.0283966
0.000815275
1.47481e-12
0.0283989
0.000812932
4.72431e-08
0.0283989
0.000812932
0.0283966
0.000815275
-4.18502e-09
0.0281455
-0.000113264
2.60733e-12
0.0281481
-0.000113763
4.18699e-09
0.0281481
-0.000113763
0.0281455
-0.000113264
-4.71327e-09
0.0284829
-0.00134567
1.59902e-12
0.0284848
-0.00134332
4.71301e-09
0.0284848
-0.00134332
0.0284829
-0.00134567
-1.44774e-08
0.027843
-0.000618046
5.42011e-13
0.0278443
-0.000617146
1.4479e-08
0.0278443
-0.000617146
0.027843
-0.000618046
9.17981e-11
0.0273822
-0.000375876
-1.46197e-12
0.0273819
-0.000372601
-8.81063e-11
0.0273819
-0.000372601
0.0273822
-0.000375876
2.00279e-08
0.0266394
-0.00129567
-2.45199e-12
0.0266406
-0.00129376
-2.00288e-08
0.0266406
-0.00129376
0.0266394
-0.00129567
-2.88525e-08
0.028081
-0.00405022
-3.45553e-12
0.0280796
-0.00404743
2.88474e-08
0.0280796
-0.00404743
0.028081
-0.00405022
1.07427e-08
0.00251745
0.0280518
-0.00248834
-4.58901e-12
0.00251546
0.0280505
-0.00248629
-1.07501e-08
0.00251546
0.0280505
-0.00248629
0.00251745
0.0280518
-0.00248834
7.77425e-10
0.00143042
0.0136278
-2.64652e-12
0.00143001
0.0136259
-7.85701e-10
0.00143001
0.0136259
0.00143042
0.0136278
3.81374e-09
0.000146856
0.00406565
-2.11246e-12
0.000147055
0.00406544
-3.82206e-09
0.000147055
0.00406544
0.000146856
0.00406565
8.78005e-09
-0.00100356
0.0013633
-1.72482e-12
-0.00100302
0.00136355
-8.78554e-09
-0.00100302
0.00136355
-0.00100356
0.0013633
2.02073e-09
-0.00217405
0.00668619
-2.81706e-12
-0.00217243
0.00668541
-2.03e-09
-0.00217243
0.00668541
-0.00217405
0.00668619
1.05947e-08
-0.00309715
0.0166436
-3.05111e-12
-0.00309499
0.0166406
-1.0604e-08
-0.00309499
0.0166406
-0.00309715
0.0166436
3.18107e-08
-0.00436758
0.0298719
-2.67482e-12
-0.0043676
0.0298736
-3.18186e-08
-0.0043676
0.0298736
-0.00436758
0.0298719
1.95283e-08
-0.0450498
0.0475902
-0.00690807
-1.8548e-12
-0.0450506
0.0475918
-0.00690874
-1.95323e-08
-0.0450506
0.0475918
-0.00690874
-0.0450498
0.0475902
-0.00690807
-1.8824e-08
-0.0455944
-0.00589747
-4.58502e-12
-0.0455959
-0.00589418
1.88198e-08
-0.0455959
-0.00589418
-0.0455944
-0.00589747
2.9524e-08
-0.0469919
-0.00477911
-4.96807e-12
-0.0469927
-0.00478076
-2.95243e-08
-0.0469927
-0.00478076
-0.0469919
-0.00477911
-3.98709e-08
-0.0478382
-0.00375503
-5.41746e-12
-0.0478403
-0.00375068
3.98648e-08
-0.0478403
-0.00375068
-0.0478382
-0.00375503
-5.72561e-09
-0.0476501
-0.00229702
-3.15629e-12
-0.0476515
-0.0022961
5.71847e-09
-0.0476515
-0.0022961
-0.0476501
-0.00229702
2.8588e-08
-0.0491785
0.00118462
3.49625e-13
-0.0491783
0.00118452
-2.8591e-08
-0.0491783
0.00118452
-0.0491785
0.00118462
1.88494e-08
-0.0495244
0.00145076
2.19874e-12
-0.0495202
0.00144626
-1.88502e-08
-0.0495202
0.00144626
-0.0495244
0.00145076
-2.20816e-08
-0.0488454
-0.000838597
3.38368e-12
-0.0488421
-0.000841312
2.20841e-08
-0.0488421
-0.000841312
-0.0488454
-0.000838597
-9.18111e-08
-0.0509315
-0.000498266
2.49744e-12
-0.0509302
-0.000495983
9.18148e-08
-0.0509302
-0.000495983
-0.0509315
-0.000498266
7.49708e-09
-0.0507361
0.000693973
3.20834e-13
-0.0507322
0.000691623
-7.49975e-09
-0.0507322
0.000691623
-0.0507361
0.000693973
-2.46055e-08
-0.052053
0.00329514
1.12966e-12
-0.0520492
0.00329448
2.46023e-08
-0.0520492
0.00329448
-0.052053
0.00329514
-7.15683e-08
-0.0534241
0.00265023
1.79722e-12
-0.0534192
0.00264011
7.15682e-08
-0.0534192
0.00264011
-0.0534241
0.00265023
6.20294e-08
-0.0572331
0.00831328
2.5539e-13
-0.0572161
0.00829551
-6.20302e-08
-0.0572161
0.00829551
-0.0572331
0.00831328
-1.0921e-08
-0.0602852
0.00266652
-1.66889e-13
-0.0602686
0.00265199
1.09212e-08
-0.0602686
0.00265199
-0.0602852
0.00266652
-1.76339e-07
-0.082263
0.00575305
-2.60143e-12
-0.082251
0.00574728
1.76332e-07
-0.082251
0.00574728
-0.082263
0.00575305
3.4271e-07
-0.0810431
0.00897388
-0.0101941
1.70381e-12
-0.0810271
0.00896436
-0.0101879
-3.42712e-07
-0.0810271
0.00896436
-0.0101879
-0.0810431
0.00897388
-0.0101941
4.23052e-08
-0.0839314
0.0166989
-0.0138106
1.2164e-12
-0.0839477
0.0167061
-0.0137853
-4.23255e-08
-0.0839477
0.0167061
-0.0137853
-0.0839314
0.0166989
-0.0138106
-9.24551e-08
-0.0915703
0.0238895
-0.0162506
2.13854e-12
-0.0915978
0.0238775
-0.0162275
9.24218e-08
-0.0915978
0.0238775
-0.0162275
-0.0915703
0.0238895
-0.0162506
3.7351e-07
-0.0597546
0.032575
6.04885e-12
-0.0597527
0.0325896
-3.73516e-07
-0.0597527
0.0325896
-0.0597546
0.032575
2.19008e-07
-0.0638111
0.0209488
6.70999e-13
-0.063812
0.0209568
-2.19016e-07
-0.063812
0.0209568
-0.0638111
0.0209488
3.84378e-08
-0.0664027
0.0131846
2.3819e-12
-0.0663994
0.0131851
-3.84379e-08
-0.0663994
0.0131851
-0.0664027
0.0131846
-4.60729e-08
-0.0651295
0.00981572
1.16118e-12
-0.0651348
0.00981965
4.60722e-08
-0.0651348
0.00981965
-0.0651295
0.00981572
-4.96581e-08
-0.0681393
0.00927013
4.231e-13
-0.0681453
0.00927144
4.96568e-08
-0.0681453
0.00927144
-0.0681393
0.00927013
-6.81662e-08
-0.0689125
0.00676079
5.50931e-13
-0.0689207
0.00676438
6.81656e-08
-0.0689207
0.00676438
-0.0689125
0.00676079
-7.13687e-08
-0.0696307
0.00606271
6.18911e-13
-0.0696374
0.00606438
7.1369e-08
-0.0696374
0.00606438
-0.0696307
0.00606271
-4.59555e-08
-0.069515
0.00597866
1.35626e-13
-0.0695198
0.00598058
4.59559e-08
-0.0695198
0.00598058
-0.069515
0.00597866
-1.34711e-08
-0.0700448
0.00745025
-1.59232e-13
-0.0700468
0.00744959
1.34706e-08
-0.0700468
0.00744959
-0.0700448
0.00745025
-2.55933e-08
-0.0684851
0.00331025
-2.28663e-13
-0.0684881
0.00331324
2.55926e-08
-0.0684881
0.00331324
-0.0684851
0.00331025
-3.71049e-08
-0.0683459
0.00318945
-1.35148e-13
-0.06835
0.00319144
3.71044e-08
-0.06835
0.00319144
-0.0683459
0.00318945
-3.17121e-08
-0.0687246
0.00551794
-4.65054e-14
-0.0687275
0.00551866
3.17119e-08
-0.0687275
0.00551866
-0.0687246
0.00551794
-2.31563e-08
-0.0660216
0.00388938
-9.89935e-15
-0.0660246
0.0038893
2.31562e-08
-0.0660246
0.0038893
-0.0660216
0.00388938
-2.54167e-08
-0.0672988
0.00692625
-5.3379e-15
-0.0673012
0.00692592
2.54166e-08
-0.0673012
0.00692592
-0.0672988
0.00692625
-1.86086e-08
-0.00456953
0.00631859
-0.0690478
6.12122e-15
-0.00456972
0.00631764
-0.0690491
1.86086e-08
-0.00456972
0.00631764
-0.0690491
-0.00456953
0.00631859
-0.0690478
-2.37092e-08
-0.0022965
-0.0694699
7.15967e-15
-0.0022976
-0.0694695
2.37091e-08
-0.0022976
-0.0694695
-0.0022965
-0.0694699
-2.99633e-08
-0.000160824
-0.0704161
1.05675e-14
-0.000161908
-0.0704136
2.99633e-08
-0.000161908
-0.0704136
-0.000160824
-0.0704161
-2.80325e-08
0.00250549
-0.0709822
6.34601e-15
0.00250459
-0.070979
2.80325e-08
0.00250459
-0.070979
0.00250549
-0.0709822
-2.45784e-08
0.00277608
-0.0711209
-1.02722e-14
0.00277599
-0.0711191
2.45784e-08
0.00277599
-0.0711191
0.00277608
-0.0711209
-2.57761e-08
0.00235193
-0.0704407
-1.4552e-14
0.00235274
-0.0704399
2.5776e-08
0.00235274
-0.0704399
0.00235193
-0.0704407