x,y,z,p
0,0,0,15.4415
0,0.1,0,15.3875
0,0.2,0,15.3335
0,0.3,0,15.2658
0,0.4,0,15.1981
0,0.5,0,15.1693
0,0.6,0,15.1406
0,0.7,0,15.1184
0,0.8,0,15.0962
0,0.9,0,15.085
0,1,0,15.0738
0,1.1,0,15.0688
0,1.2,0,15.0637
0,1.3,0,15.0636
0,1.4,0,15.0635
0,1.5,0,15.0671
0,1.6,0,15.0708
0,1.7,0,15.0774
0,1.8,0,15.0841
0,1.9,0,15.0934
0,2,0,15.1027
0,2.1,0,15.1143
0,2.2,0,15.1259
0,2.3,0,15.1394
0,2.4,0,15.1528
0,2.5,0,15.1675
0,2.6,0,15.1823
0,2.7,0,15.1987
0,2.8,0,15.2152
0,2.9,0,15.2349
0,3,0,15.2546
0,3.1,0,15.2789
0,3.2,0,15.3031
0,3.3,0,15.3287
0,3.4,0,15.3543
0,3.5,0,15.3714
0,3.6,0,15.3884
0,3.7,0,15.3937
0,3.8,0,15.399
0,3.9,0,15.4032
0,4,0,15.4073
0,4.1,0,15.416
0,4.2,0,15.4248
0,4.3,0,15.4336
0,4.4,0,15.4425
0,4.5,0,15.443
0,4.6,0,15.4435
0,4.7,0,15.4369
0,4.8,0,15.4303
0,4.9,0,15.4229
0,5,0,15.4154
0,5.1,0,15.4021
0,5.2,0,15.3887
0,5.3,0,15.3752
0,5.4,0,15.3617
0,5.5,0,15.3455
0,5.6,0,15.3293
0,5.7,0,15.3022
0,5.8,0,15.2752
0,5.9,0,15.2463
0,6,0,15.2175
0,6.1,0,15.1891
0,6.2,0,15.1607
0,6.3,0,15.1322
0,6.4,0,15.0992
0,6.5,0,15.0638
0,6.6,0,15.0284
0,6.7,0,14.9906
0,6.8,0,14.9475
0,6.9,0,14.9043
0,7,0,14.8611
0,7.1,0,14.8179
0,7.2,0,14.7748
0,7.3,0,14.7316
0,7.4,0,14.691
0,7.5,0,14.6522
0,7.6,0,14.6134
0,7.7,0,14.575
0,7.8,0,14.5381
0,7.9,0,14.5012
0,8,0,14.4643
0,8.1,0,14.4289
0,8.2,0,14.3937
0,8.3,0,14.3585
0,8.4,0,14.3243
0,8.5,0,14.2909
0,8.6,0,14.2575
0,8.7,0,14.2245
0,8.8,0,14.1933
0,8.9,0,14.162
0,9,0,14.1307
0,9.1,0,14.1016
0,9.2,0,14.0729
0,9.3,0,14.0442
0,9.4,0,14.017
0,9.5,0,13.9913
0,9.6,0,13.9656
0,9.7,0,13.9405
0,9.8,0,13.9182
0,9.9,0,13.8959
0,10,0,13.8737
0,10.1,0,13.8543
0,10.2,0,13.8357
0,10.3,0,13.8171
0,10.4,0,13.8003
0,10.5,0,13.7856
0,10.6,0,13.771
0,10.7,0,13.7567
0,10.8,0,13.7463
0,10.9,0,13.7359
0,11,0,13.7255
0,11.1,0,13.718
0,11.2,0,13.7116
0,11.3,0,13.7052
0,11.4,0,13.7016
0,11.5,0,13.7024
0,11.6,0,13.7032
0,11.7,0,13.7042
0,11.8,0,13.7089
0,11.9,0,13.7136
0,12,0,13.7184
0,12.1,0,13.7374
0,12.2,0,13.7627
0,12.3,0,13.7879
0,12.4,0,13.8125
0,12.5,0,13.8361
0,12.6,0,13.8597
0,12.7,0,13.8833
0.1,0,0,15.3387
0.1,0.1,0,15.3004
0.1,0.2,0,15.2464
0.1,0.3,0,15.1983
0.1,0.4,0,15.1305
0.1,0.5,0,15.1082
0.1,0.6,0,15.0795
0.1,0.7,0,15.0612
0.1,0.8,0,15.039
0.1,0.9,0,15.0302
0.1,1,0,15.0191
0.1,1.1,0,15.0157
0.1,1.2,0,15.0107
0.1,1.3,0,15.0123
0.1,1.4,0,15.0122
0.1,1.5,0,15.0177
0.1,1.6,0,15.0213
0.1,1.7,0,15.03
0.1,1.8,0,15.0367
0.1,1.9,0,15.048
0.1,2,0,15.0573
0.1,2.1,0,15.0705
0.1,2.2,0,15.0821
0.1,2.3,0,15.0965
0.1,2.4,0,15.1099
0.1,2.5,0,15.125
0.1,2.6,0,15.1398
0.1,2.7,0,15.1553
0.1,2.8,0,15.1717
0.1,2.9,0,15.1878
0.1,3,0,15.2075
0.1,3.1,0,15.2247
0.1,3.2,0,15.249
0.1,3.3,0,15.2667
0.1,3.4,0,15.2923
0.1,3.5,0,15.3063
0.1,3.6,0,15.3234
0.1,3.7,0,15.3306
0.1,3.8,0,15.3359
0.1,3.9,0,15.341
0.1,4,0,15.3451
0.1,4.1,0,15.354
0.1,4.2,0,15.3628
0.1,4.3,0,15.3717
0.1,4.4,0,15.3805
0.1,4.5,0,15.3826
0.1,4.6,0,15.3831
0.1,4.7,0,15.3794
0.1,4.8,0,15.3728
0.1,4.9,0,15.3657
0.1,5,0,15.3582
0.1,5.1,0,15.3456
0.1,5.2,0,15.3322
0.1,5.3,0,15.316
0.1,5.4,0,15.3025
0.1,5.5,0,15.282
0.1,5.6,0,15.2658
0.1,5.7,0,15.2376
0.1,5.8,0,15.2105
0.1,5.9,0,15.1773
0.1,6,0,15.1485
0.1,6.1,0,15.1211
0.1,6.2,0,15.093
0.1,6.3,0,15.0646
0.1,6.4,0,15.0347
0.1,6.5,0,15.0026
0.1,6.6,0,14.9672
0.1,6.7,0,14.9316
0.1,6.8,0,14.8958
0.1,6.9,0,14.8529
0.1,7,0,14.8097
0.1,7.1,0,14.7723
0.1,7.2,0,14.7315
0.1,7.3,0,14.6884
0.1,7.4,0,14.6485
0.1,7.5,0,14.6106
0.1,7.6,0,14.5718
0.1,7.7,0,14.5332
0.1,7.8,0,14.495
0.1,7.9,0,14.458
0.1,8,0,14.4211
0.1,8.1,0,14.3837
0.1,8.2,0,14.3475
0.1,8.3,0,14.3123
0.1,8.4,0,14.277
0.1,8.5,0,14.242
0.1,8.6,0,14.2087
0.1,8.7,0,14.1754
0.1,8.8,0,14.1429
0.1,8.9,0,14.1114
0.1,9,0,14.0802
0.1,9.1,0,14.0505
0.1,9.2,0,14.0215
0.1,9.3,0,13.9928
0.1,9.4,0,13.9655
0.1,9.5,0,13.9395
0.1,9.6,0,13.9139
0.1,9.7,0,13.8887
0.1,9.8,0,13.8663
0.1,9.9,0,13.844
0.1,10,0,13.8217
0.1,10.1,0,13.8023
0.1,10.2,0,13.7837
0.1,10.3,0,13.7651
0.1,10.4,0,13.7483
0.1,10.5,0,13.7335
0.1,10.6,0,13.7188
0.1,10.7,0,13.7046
0.1,10.8,0,13.694
0.1,10.9,0,13.6836
0.1,11,0,13.6732
0.1,11.1,0,13.6655
0.1,11.2,0,13.6589
0.1,11.3,0,13.6525
0.1,11.4,0,13.6486
0.1,11.5,0,13.6486
0.1,11.6,0,13.6494
0.1,11.7,0,13.6503
0.1,11.8,0,13.6536
0.1,11.9,0,13.6579
0.1,12,0,13.6627
0.1,12.1,0,13.6764
0.1,12.2,0,13.6967
0.1,12.3,0,13.7219
0.1,12.4,0,13.7442
0.1,12.5,0,13.7611
0.1,12.6,0,13.7847
0.1,12.7,0,13.8083
0.2,0,0,15.2359
0.2,0.1,0,15.2015
0.2,0.2,0,15.1593
0.2,0.3,0,15.1161
0.2,0.4,0,15.063
0.2,0.5,0,15.0422
0.2,0.6,0,15.0183
0.2,0.7,0,15.0011
0.2,0.8,0,14.9819
0.2,0.9,0,14.9737
0.2,1,0,14.9643
0.2,1.1,0,14.9614
0.2,1.2,0,14.9577
0.2,1.3,0,14.9597
0.2,1.4,0,14.9608
0.2,1.5,0,14.9668
0.2,1.6,0,14.9718
0.2,1.7,0,14.9811
0.2,1.8,0,14.9893
0.2,1.9,0,15.0011
0.2,2,0,15.0119
0.2,2.1,0,15.0255
0.2,2.2,0,15.0383
0.2,2.3,0,15.053
0.2,2.4,0,15.0671
0.2,2.5,0,15.0823
0.2,2.6,0,15.0973
0.2,2.7,0,15.1125
0.2,2.8,0,15.1282
0.2,2.9,0,15.1434
0.2,3,0,15.1604
0.2,3.1,0,15.1759
0.2,3.2,0,15.1949
0.2,3.3,0,15.2106
0.2,3.4,0,15.2303
0.2,3.5,0,15.2435
0.2,3.6,0,15.2583
0.2,3.7,0,15.266
0.2,3.8,0,15.2727
0.2,3.9,0,15.2781
0.2,4,0,15.283
0.2,4.1,0,15.2919
0.2,4.2,0,15.3008
0.2,4.3,0,15.3097
0.2,4.4,0,15.3186
0.2,4.5,0,15.3211
0.2,4.6,0,15.3228
0.2,4.7,0,15.3197
0.2,4.8,0,15.3152
0.2,4.9,0,15.3082
0.2,5,0,15.301
0.2,5.1,0,15.2886
0.2,5.2,0,15.2758
0.2,5.3,0,15.2588
0.2,5.4,0,15.2433
0.2,5.5,0,15.2217
0.2,5.6,0,15.2023
0.2,5.7,0,15.1738
0.2,5.8,0,15.1459
0.2,5.9,0,15.1116
0.2,6,0,15.0795
0.2,6.1,0,15.0521
0.2,6.2,0,15.0247
0.2,6.3,0,14.997
0.2,6.4,0,14.9671
0.2,6.5,0,14.9365
0.2,6.6,0,14.9058
0.2,6.7,0,14.8704
0.2,6.8,0,14.8346
0.2,6.9,0,14.7987
0.2,7,0,14.7583
0.2,7.1,0,14.7209
0.2,7.2,0,14.6839
0.2,7.3,0,14.6452
0.2,7.4,0,14.6053
0.2,7.5,0,14.5677
0.2,7.6,0,14.5302
0.2,7.7,0,14.4916
0.2,7.8,0,14.4534
0.2,7.9,0,14.4152
0.2,8,0,14.3778
0.2,8.1,0,14.3404
0.2,8.2,0,14.303
0.2,8.3,0,14.2661
0.2,8.4,0,14.2308
0.2,8.5,0,14.1954
0.2,8.6,0,14.16
0.2,8.7,0,14.1266
0.2,8.8,0,14.094
0.2,8.9,0,14.0615
0.2,9,0,14.0296
0.2,9.1,0,14
0.2,9.2,0,13.9706
0.2,9.3,0,13.9414
0.2,9.4,0,13.914
0.2,9.5,0,13.8881
0.2,9.6,0,13.8621
0.2,9.7,0,13.8369
0.2,9.8,0,13.8145
0.2,9.9,0,13.7921
0.2,10,0,13.7698
0.2,10.1,0,13.7504
0.2,10.2,0,13.7318
0.2,10.3,0,13.7131
0.2,10.4,0,13.6962
0.2,10.5,0,13.6815
0.2,10.6,0,13.6667
0.2,10.7,0,13.6525
0.2,10.8,0,13.6419
0.2,10.9,0,13.6314
0.2,11,0,13.6209
0.2,11.1,0,13.6132
0.2,11.2,0,13.6065
0.2,11.3,0,13.5998
0.2,11.4,0,13.5959
0.2,11.5,0,13.5959
0.2,11.6,0,13.5959
0.2,11.7,0,13.5966
0.2,11.8,0,13.5998
0.2,11.9,0,13.6031
0.2,12,0,13.6069
0.2,12.1,0,13.6207
0.2,12.2,0,13.6382
0.2,12.3,0,13.6559
0.2,12.4,0,13.6782
0.2,12.5,0,13.695
0.2,12.6,0,13.7119
0.2,12.7,0,13.7333
0.3,0,0,15.0833
0.3,0.1,0,15.0593
0.3,0.2,0,15.025
0.3,0.3,0,14.995
0.3,0.4,0,14.9517
0.3,0.5,0,14.9361
0.3,0.6,0,14.9154
0.3,0.7,0,14.9019
0.3,0.8,0,14.8846
0.3,0.9,0,14.8787
0.3,1,0,14.8705
0.3,1.1,0,14.8691
0.3,1.2,0,14.8662
0.3,1.3,0,14.8693
0.3,1.4,0,14.8713
0.3,1.5,0,14.8781
0.3,1.6,0,14.8841
0.3,1.7,0,14.894
0.3,1.8,0,14.9033
0.3,1.9,0,14.9157
0.3,2,0,14.9274
0.3,2.1,0,14.9415
0.3,2.2,0,14.9551
0.3,2.3,0,14.9703
0.3,2.4,0,14.985
0.3,2.5,0,15.0007
0.3,2.6,0,15.0159
0.3,2.7,0,15.0315
0.3,2.8,0,15.0467
0.3,2.9,0,15.0618
0.3,3,0,15.077
0.3,3.1,0,15.0913
0.3,3.2,0,15.1068
0.3,3.3,0,15.1205
0.3,3.4,0,15.1363
0.3,3.5,0,15.1487
0.3,3.6,0,15.1619
0.3,3.7,0,15.1709
0.3,3.8,0,15.1786
0.3,3.9,0,15.1855
0.3,4,0,15.1909
0.3,4.1,0,15.2003
0.3,4.2,0,15.2092
0.3,4.3,0,15.2177
0.3,4.4,0,15.2267
0.3,4.5,0,15.2293
0.3,4.6,0,15.2318
0.3,4.7,0,15.2295
0.3,4.8,0,15.2264
0.3,4.9,0,15.2194
0.3,5,0,15.2123
0.3,5.1,0,15.2001
0.3,5.2,0,15.1876
0.3,5.3,0,15.1699
0.3,5.4,0,15.153
0.3,5.5,0,15.1303
0.3,5.6,0,15.1087
0.3,5.7,0,15.0804
0.3,5.8,0,15.0519
0.3,5.9,0,15.0169
0.3,6,0,14.9826
0.3,6.1,0,14.9537
0.3,6.2,0,14.9263
0.3,6.3,0,14.8989
0.3,6.4,0,14.8698
0.3,6.5,0,14.8392
0.3,6.6,0,14.8086
0.3,6.7,0,14.7773
0.3,6.8,0,14.7425
0.3,6.9,0,14.7066
0.3,7,0,14.6708
0.3,7.1,0,14.6351
0.3,7.2,0,14.598
0.3,7.3,0,14.5609
0.3,7.4,0,14.5236
0.3,7.5,0,14.486
0.3,7.6,0,14.4484
0.3,7.7,0,14.4106
0.3,7.8,0,14.3722
0.3,7.9,0,14.334
0.3,8,0,14.2958
0.3,8.1,0,14.2578
0.3,8.2,0,14.2204
0.3,8.3,0,14.183
0.3,8.4,0,14.1463
0.3,8.5,0,14.1108
0.3,8.6,0,14.0754
0.3,8.7,0,14.0405
0.3,8.8,0,14.0076
0.3,8.9,0,13.9751
0.3,9,0,13.9425
0.3,9.1,0,13.9124
0.3,9.2,0,13.883
0.3,9.3,0,13.8537
0.3,9.4,0,13.8259
0.3,9.5,0,13.7999
0.3,9.6,0,13.7739
0.3,9.7,0,13.7485
0.3,9.8,0,13.726
0.3,9.9,0,13.7036
0.3,10,0,13.6812
0.3,10.1,0,13.6617
0.3,10.2,0,13.643
0.3,10.3,0,13.6244
0.3,10.4,0,13.6074
0.3,10.5,0,13.5926
0.3,10.6,0,13.5778
0.3,10.7,0,13.5635
0.3,10.8,0,13.5527
0.3,10.9,0,13.5422
0.3,11,0,13.5316
0.3,11.1,0,13.5235
0.3,11.2,0,13.5168
0.3,11.3,0,13.51
0.3,11.4,0,13.5053
0.3,11.5,0,13.5048
0.3,11.6,0,13.5048
0.3,11.7,0,13.5048
0.3,11.8,0,13.5064
0.3,11.9,0,13.5096
0.3,12,0,13.5129
0.3,12.1,0,13.5184
0.3,12.2,0,13.536
0.3,12.3,0,13.5535
0.3,12.4,0,13.5673
0.3,12.5,0,13.5809
0.3,12.6,0,13.5978
0.3,12.7,0,13.6146
0.4,0,0,14.8809
0.4,0.1,0,14.8725
0.4,0.2,0,14.8433
0.4,0.3,0,14.8333
0.4,0.4,0,14.7966
0.4,0.5,0,14.7888
0.4,0.6,0,14.7706
0.4,0.7,0,14.7627
0.4,0.8,0,14.7473
0.4,0.9,0,14.7448
0.4,1,0,14.7377
0.4,1.1,0,14.7384
0.4,1.2,0,14.7363
0.4,1.3,0,14.741
0.4,1.4,0,14.7435
0.4,1.5,0,14.7516
0.4,1.6,0,14.758
0.4,1.7,0,14.769
0.4,1.8,0,14.7786
0.4,1.9,0,14.7919
0.4,2,0,14.804
0.4,2.1,0,14.8188
0.4,2.2,0,14.8327
0.4,2.3,0,14.8486
0.4,2.4,0,14.8636
0.4,2.5,0,14.88
0.4,2.6,0,14.8954
0.4,2.7,0,14.9116
0.4,2.8,0,14.927
0.4,2.9,0,14.942
0.4,3,0,14.9572
0.4,3.1,0,14.9699
0.4,3.2,0,14.9848
0.4,3.3,0,14.9955
0.4,3.4,0,15.0103
0.4,3.5,0,15.0214
0.4,3.6,0,15.0342
0.4,3.7,0,15.0452
0.4,3.8,0,15.0536
0.4,3.9,0,15.0628
0.4,4,0,15.069
0.4,4.1,0,15.079
0.4,4.2,0,15.0881
0.4,4.3,0,15.096
0.4,4.4,0,15.1047
0.4,4.5,0,15.1076
0.4,4.6,0,15.1102
0.4,4.7,0,15.109
0.4,4.8,0,15.1063
0.4,4.9,0,15.0992
0.4,5,0,15.0922
0.4,5.1,0,15.0801
0.4,5.2,0,15.0678
0.4,5.3,0,15.0488
0.4,5.4,0,15.0315
0.4,5.5,0,15.0072
0.4,5.6,0,14.9851
0.4,5.7,0,14.9569
0.4,5.8,0,14.9285
0.4,5.9,0,14.8924
0.4,6,0,14.8578
0.4,6.1,0,14.8281
0.4,6.2,0,14.7985
0.4,6.3,0,14.7711
0.4,6.4,0,14.742
0.4,6.5,0,14.712
0.4,6.6,0,14.6816
0.4,6.7,0,14.6503
0.4,6.8,0,14.6174
0.4,6.9,0,14.5837
0.4,7,0,14.5478
0.4,7.1,0,14.5126
0.4,7.2,0,14.4775
0.4,7.3,0,14.4405
0.4,7.4,0,14.4032
0.4,7.5,0,14.3657
0.4,7.6,0,14.3281
0.4,7.7,0,14.2903
0.4,7.8,0,14.2516
0.4,7.9,0,14.2131
0.4,8,0,14.1749
0.4,8.1,0,14.1367
0.4,8.2,0,14.0986
0.4,8.3,0,14.0611
0.4,8.4,0,14.0243
0.4,8.5,0,13.9881
0.4,8.6,0,13.9524
0.4,8.7,0,13.9174
0.4,8.8,0,13.8842
0.4,8.9,0,13.8511
0.4,9,0,13.8186
0.4,9.1,0,13.7883
0.4,9.2,0,13.7585
0.4,9.3,0,13.7291
0.4,9.4,0,13.7013
0.4,9.5,0,13.675
0.4,9.6,0,13.6489
0.4,9.7,0,13.6235
0.4,9.8,0,13.6009
0.4,9.9,0,13.5783
0.4,10,0,13.556
0.4,10.1,0,13.5364
0.4,10.2,0,13.5176
0.4,10.3,0,13.4989
0.4,10.4,0,13.4819
0.4,10.5,0,13.4669
0.4,10.6,0,13.452
0.4,10.7,0,13.4376
0.4,10.8,0,13.4268
0.4,10.9,0,13.4159
0.4,11,0,13.4054
0.4,11.1,0,13.3972
0.4,11.2,0,13.3897
0.4,11.3,0,13.3828
0.4,11.4,0,13.3781
0.4,11.5,0,13.3763
0.4,11.6,0,13.3752
0.4,11.7,0,13.3753
0.4,11.8,0,13.3758
0.4,11.9,0,13.3764
0.4,12,0,13.3797
0.4,12.1,0,13.3849
0.4,12.2,0,13.3908
0.4,12.3,0,13.4048
0.4,12.4,0,13.4186
0.4,12.5,0,13.4253
0.4,12.6,0,13.4355
0.4,12.7,0,13.4524
0.5,0,0,14.6785
0.5,0.1,0,14.6701
0.5,0.2,0,14.6617
0.5,0.3,0,14.6516
0.5,0.4,0,14.6416
0.5,0.5,0,14.6337
0.5,0.6,0,14.6259
0.5,0.7,0,14.618
0.5,0.8,0,14.61
0.5,0.9,0,14.6075
0.5,1,0,14.6049
0.5,1.1,0,14.6056
0.5,1.2,0,14.6064
0.5,1.3,0,14.6111
0.5,1.4,0,14.6158
0.5,1.5,0,14.6239
0.5,1.6,0,14.632
0.5,1.7,0,14.643
0.5,1.8,0,14.654
0.5,1.9,0,14.6673
0.5,2,0,14.6805
0.5,2.1,0,14.6954
0.5,2.2,0,14.7103
0.5,2.3,0,14.7262
0.5,2.4,0,14.7421
0.5,2.5,0,14.7585
0.5,2.6,0,14.775
0.5,2.7,0,14.7912
0.5,2.8,0,14.8074
0.5,2.9,0,14.8224
0.5,3,0,14.8374
0.5,3.1,0,14.8501
0.5,3.2,0,14.8628
0.5,3.3,0,14.8736
0.5,3.4,0,14.8843
0.5,3.5,0,14.8954
0.5,3.6,0,14.9064
0.5,3.7,0,14.9175
0.5,3.8,0,14.9285
0.5,3.9,0,14.9378
0.5,4,0,14.947
0.5,4.1,0,14.957
0.5,4.2,0,14.967
0.5,4.3,0,14.9749
0.5,4.4,0,14.9827
0.5,4.5,0,14.9857
0.5,4.6,0,14.9886
0.5,4.7,0,14.9874
0.5,4.8,0,14.9862
0.5,4.9,0,14.9792
0.5,5,0,14.9721
0.5,5.1,0,14.96
0.5,5.2,0,14.9479
0.5,5.3,0,14.929
0.5,5.4,0,14.91
0.5,5.5,0,14.8857
0.5,5.6,0,14.8614
0.5,5.7,0,14.8333
0.5,5.8,0,14.8052
0.5,5.9,0,14.7691
0.5,6,0,14.733
0.5,6.1,0,14.7033
0.5,6.2,0,14.6737
0.5,6.3,0,14.6441
0.5,6.4,0,14.6142
0.5,6.5,0,14.5842
0.5,6.6,0,14.5542
0.5,6.7,0,14.5234
0.5,6.8,0,14.4905
0.5,6.9,0,14.4576
0.5,7,0,14.4247
0.5,7.1,0,14.3896
0.5,7.2,0,14.3545
0.5,7.3,0,14.3193
0.5,7.4,0,14.2828
0.5,7.5,0,14.2453
0.5,7.6,0,14.2078
0.5,7.7,0,14.17
0.5,7.8,0,14.1313
0.5,7.9,0,14.0927
0.5,8,0,14.054
0.5,8.1,0,14.0158
0.5,8.2,0,13.9776
0.5,8.3,0,13.9395
0.5,8.4,0,13.9024
0.5,8.5,0,13.8662
0.5,8.6,0,13.83
0.5,8.7,0,13.7944
0.5,8.8,0,13.7612
0.5,8.9,0,13.728
0.5,9,0,13.6947
0.5,9.1,0,13.6644
0.5,9.2,0,13.6346
0.5,9.3,0,13.6047
0.5,9.4,0,13.5767
0.5,9.5,0,13.5504
0.5,9.6,0,13.5242
0.5,9.7,0,13.4985
0.5,9.8,0,13.4759
0.5,9.9,0,13.4533
0.5,10,0,13.4307
0.5,10.1,0,13.4112
0.5,10.2,0,13.3923
0.5,10.3,0,13.3735
0.5,10.4,0,13.3564
0.5,10.5,0,13.3414
0.5,10.6,0,13.3264
0.5,10.7,0,13.3118
0.5,10.8,0,13.301
0.5,10.9,0,13.2901
0.5,11,0,13.2792
0.5,11.1,0,13.2709
0.5,11.2,0,13.2635
0.5,11.3,0,13.256
0.5,11.4,0,13.2509
0.5,11.5,0,13.2491
0.5,11.6,0,13.2474
0.5,11.7,0,13.2457
0.5,11.8,0,13.2463
0.5,11.9,0,13.2468
0.5,12,0,13.2473
0.5,12.1,0,13.2516
0.5,12.2,0,13.2576
0.5,12.3,0,13.2636
0.5,12.4,0,13.2698
0.5,12.5,0,13.2766
0.5,12.6,0,13.2833
0.5,12.7,0,13.2901
0.6,0,0,14.494
0.6,0.1,0,14.4914
0.6,0.2,0,14.483
0.6,0.3,0,14.481
0.6,0.4,0,14.4709
0.6,0.5,0,14.4686
0.6,0.6,0,14.4608
0.6,0.7,0,14.4582
0.6,0.8,0,14.4503
0.6,0.9,0,14.4514
0.6,1,0,14.4488
0.6,1.1,0,14.452
0.6,1.2,0,14.4528
0.6,1.3,0,14.4593
0.6,1.4,0,14.464
0.6,1.5,0,14.4732
0.6,1.6,0,14.4813
0.6,1.7,0,14.493
0.6,1.8,0,14.504
0.6,1.9,0,14.5179
0.6,2,0,14.5311
0.6,2.1,0,14.5468
0.6,2.2,0,14.5617
0.6,2.3,0,14.5786
0.6,2.4,0,14.5946
0.6,2.5,0,14.6121
0.6,2.6,0,14.6285
0.6,2.7,0,14.6462
0.6,2.8,0,14.6624
0.6,2.9,0,14.6798
0.6,3,0,14.6948
0.6,3.1,0,14.7112
0.6,3.2,0,14.7239
0.6,3.3,0,14.7388
0.6,3.4,0,14.7495
0.6,3.5,0,14.7648
0.6,3.6,0,14.7759
0.6,3.7,0,14.7908
0.6,3.8,0,14.8018
0.6,3.9,0,14.8141
0.6,4,0,14.8234
0.6,4.1,0,14.835
0.6,4.2,0,14.845
0.6,4.3,0,14.8529
0.6,4.4,0,14.8607
0.6,4.5,0,14.8631
0.6,4.6,0,14.8661
0.6,4.7,0,14.8643
0.6,4.8,0,14.8631
0.6,4.9,0,14.8556
0.6,5,0,14.8486
0.6,5.1,0,14.8364
0.6,5.2,0,14.8243
0.6,5.3,0,14.8062
0.6,5.4,0,14.7873
0.6,5.5,0,14.7644
0.6,5.6,0,14.7401
0.6,5.7,0,14.7128
0.6,5.8,0,14.6846
0.6,5.9,0,14.6486
0.6,6,0,14.6125
0.6,6.1,0,14.5794
0.6,6.2,0,14.5486
0.6,6.3,0,14.519
0.6,6.4,0,14.4854
0.6,6.5,0,14.4515
0.6,6.6,0,14.4215
0.6,6.7,0,14.3891
0.6,6.8,0,14.3512
0.6,6.9,0,14.3181
0.6,7,0,14.2852
0.6,7.1,0,14.2468
0.6,7.2,0,14.2102
0.6,7.3,0,14.1751
0.6,7.4,0,14.1376
0.6,7.5,0,14.0989
0.6,7.6,0,14.0615
0.6,7.7,0,14.0235
0.6,7.8,0,13.9844
0.6,7.9,0,13.9457
0.6,8,0,13.907
0.6,8.1,0,13.869
0.6,8.2,0,13.8309
0.6,8.3,0,13.7927
0.6,8.4,0,13.7559
0.6,8.5,0,13.72
0.6,8.6,0,13.6838
0.6,8.7,0,13.6482
0.6,8.8,0,13.6152
0.6,8.9,0,13.582
0.6,9,0,13.5487
0.6,9.1,0,13.5184
0.6,9.2,0,13.4885
0.6,9.3,0,13.4587
0.6,9.4,0,13.4306
0.6,9.5,0,13.4042
0.6,9.6,0,13.3779
0.6,9.7,0,13.3522
0.6,9.8,0,13.3294
0.6,9.9,0,13.3068
0.6,10,0,13.2842
0.6,10.1,0,13.2645
0.6,10.2,0,13.2455
0.6,10.3,0,13.2267
0.6,10.4,0,13.2095
0.6,10.5,0,13.1942
0.6,10.6,0,13.1792
0.6,10.7,0,13.1646
0.6,10.8,0,13.1532
0.6,10.9,0,13.1423
0.6,11,0,13.1314
0.6,11.1,0,13.1225
0.6,11.2,0,13.1147
0.6,11.3,0,13.1072
0.6,11.4,0,13.1014
0.6,11.5,0,13.0981
0.6,11.6,0,13.0963
0.6,11.7,0,13.0946
0.6,11.8,0,13.093
0.6,11.9,0,13.0929
0.6,12,0,13.0935
0.6,12.1,0,13.0941
0.6,12.2,0,13.0967
0.6,12.3,0,13.1027
0.6,12.4,0,13.1074
0.6,12.5,0,13.1098
0.6,12.6,0,13.1166
0.6,12.7,0,13.1233
0.7,0,0,14.3096
0.7,0.1,0,14.3084
0.7,0.2,0,14.3043
0.7,0.3,0,14.3043
0.7,0.4,0,14.3003
0.7,0.5,0,14.2993
0.7,0.6,0,14.2956
0.7,0.7,0,14.2944
0.7,0.8,0,14.2905
0.7,0.9,0,14.2925
0.7,1,0,14.2927
0.7,1.1,0,14.2966
0.7,1.2,0,14.2992
0.7,1.3,0,14.3061
0.7,1.4,0,14.3122
0.7,1.5,0,14.3216
0.7,1.6,0,14.3306
0.7,1.7,0,14.3424
0.7,1.8,0,14.3539
0.7,1.9,0,14.368
0.7,2,0,14.3817
0.7,2.1,0,14.3977
0.7,2.2,0,14.4132
0.7,2.3,0,14.4303
0.7,2.4,0,14.447
0.7,2.5,0,14.4648
0.7,2.6,0,14.4821
0.7,2.7,0,14.5001
0.7,2.8,0,14.5174
0.7,2.9,0,14.5354
0.7,3,0,14.5523
0.7,3.1,0,14.5696
0.7,3.2,0,14.585
0.7,3.3,0,14.6009
0.7,3.4,0,14.6148
0.7,3.5,0,14.6311
0.7,3.6,0,14.6453
0.7,3.7,0,14.6612
0.7,3.8,0,14.6752
0.7,3.9,0,14.6882
0.7,4,0,14.6997
0.7,4.1,0,14.7117
0.7,4.2,0,14.7229
0.7,4.3,0,14.7308
0.7,4.4,0,14.7387
0.7,4.5,0,14.741
0.7,4.6,0,14.7436
0.7,4.7,0,14.7416
0.7,4.8,0,14.74
0.7,4.9,0,14.7324
0.7,5,0,14.725
0.7,5.1,0,14.7128
0.7,5.2,0,14.7007
0.7,5.3,0,14.6828
0.7,5.4,0,14.6645
0.7,5.5,0,14.642
0.7,5.6,0,14.6187
0.7,5.7,0,14.5916
0.7,5.8,0,14.5641
0.7,5.9,0,14.5281
0.7,6,0,14.492
0.7,6.1,0,14.4589
0.7,6.2,0,14.4258
0.7,6.3,0,14.3939
0.7,6.4,0,14.3603
0.7,6.5,0,14.3246
0.7,6.6,0,14.289
0.7,6.7,0,14.2564
0.7,6.8,0,14.2185
0.7,6.9,0,14.1806
0.7,7,0,14.1457
0.7,7.1,0,14.1073
0.7,7.2,0,14.0686
0.7,7.3,0,14.0308
0.7,7.4,0,13.9933
0.7,7.5,0,13.9543
0.7,7.6,0,13.9152
0.7,7.7,0,13.8772
0.7,7.8,0,13.838
0.7,7.9,0,13.7989
0.7,8,0,13.76
0.7,8.1,0,13.7219
0.7,8.2,0,13.684
0.7,8.3,0,13.646
0.7,8.4,0,13.6091
0.7,8.5,0,13.5733
0.7,8.6,0,13.5375
0.7,8.7,0,13.502
0.7,8.8,0,13.469
0.7,8.9,0,13.4359
0.7,9,0,13.4028
0.7,9.1,0,13.3724
0.7,9.2,0,13.3425
0.7,9.3,0,13.3126
0.7,9.4,0,13.2845
0.7,9.5,0,13.2581
0.7,9.6,0,13.2317
0.7,9.7,0,13.2059
0.7,9.8,0,13.1832
0.7,9.9,0,13.1604
0.7,10,0,13.1377
0.7,10.1,0,13.118
0.7,10.2,0,13.0989
0.7,10.3,0,13.0799
0.7,10.4,0,13.0627
0.7,10.5,0,13.0474
0.7,10.6,0,13.0321
0.7,10.7,0,13.0174
0.7,10.8,0,13.006
0.7,10.9,0,12.9947
0.7,11,0,12.9836
0.7,11.1,0,12.9747
0.7,11.2,0,12.9666
0.7,11.3,0,12.9585
0.7,11.4,0,12.9526
0.7,11.5,0,12.9492
0.7,11.6,0,12.9457
0.7,11.7,0,12.9435
0.7,11.8,0,12.9419
0.7,11.9,0,12.9404
0.7,12,0,12.9396
0.7,12.1,0,12.9403
0.7,12.2,0,12.941
0.7,12.3,0,12.9418
0.7,12.4,0,12.9465
0.7,12.5,0,12.9489
0.7,12.6,0,12.9512
0.7,12.7,0,12.9565
0.8,0,0,14.137
0.8,0.1,0,14.1362
0.8,0.2,0,14.135
0.8,0.3,0,14.1356
0.8,0.4,0,14.1356
0.8,0.5,0,14.1358
0.8,0.6,0,14.1348
0.8,0.7,0,14.1351
0.8,0.8,0,14.1339
0.8,0.9,0,14.1372
0.8,1,0,14.1392
0.8,1.1,0,14.1443
0.8,1.2,0,14.1482
0.8,1.3,0,14.1562
0.8,1.4,0,14.1632
0.8,1.5,0,14.1737
0.8,1.6,0,14.1832
0.8,1.7,0,14.1961
0.8,1.8,0,14.2079
0.8,1.9,0,14.223
0.8,2,0,14.2371
0.8,2.1,0,14.2539
0.8,2.2,0,14.2698
0.8,2.3,0,14.2879
0.8,2.4,0,14.305
0.8,2.5,0,14.3236
0.8,2.6,0,14.3414
0.8,2.7,0,14.3601
0.8,2.8,0,14.3781
0.8,2.9,0,14.3971
0.8,3,0,14.4151
0.8,3.1,0,14.4339
0.8,3.2,0,14.4512
0.8,3.3,0,14.4695
0.8,3.4,0,14.4854
0.8,3.5,0,14.504
0.8,3.6,0,14.5204
0.8,3.7,0,14.5379
0.8,3.8,0,14.5538
0.8,3.9,0,14.5683
0.8,4,0,14.5814
0.8,4.1,0,14.5945
0.8,4.2,0,14.6064
0.8,4.3,0,14.6151
0.8,4.4,0,14.623
0.8,4.5,0,14.6256
0.8,4.6,0,14.6279
0.8,4.7,0,14.6258
0.8,4.8,0,14.6238
0.8,4.9,0,14.6163
0.8,5,0,14.6087
0.8,5.1,0,14.5964
0.8,5.2,0,14.5842
0.8,5.3,0,14.5668
0.8,5.4,0,14.549
0.8,5.5,0,14.5267
0.8,5.6,0,14.5041
0.8,5.7,0,14.4767
0.8,5.8,0,14.4496
0.8,5.9,0,14.413
0.8,6,0,14.3769
0.8,6.1,0,14.341
0.8,6.2,0,14.308
0.8,6.3,0,14.2749
0.8,6.4,0,14.2364
0.8,6.5,0,14.2006
0.8,6.6,0,14.1649
0.8,6.7,0,14.1274
0.8,6.8,0,14.088
0.8,6.9,0,14.0501
0.8,7,0,14.0122
0.8,7.1,0,13.9721
0.8,7.2,0,13.9334
0.8,7.3,0,13.8947
0.8,7.4,0,13.8547
0.8,7.5,0,13.8155
0.8,7.6,0,13.7765
0.8,7.7,0,13.737
0.8,7.8,0,13.6971
0.8,7.9,0,13.6579
0.8,8,0,13.6187
0.8,8.1,0,13.5796
0.8,8.2,0,13.5417
0.8,8.3,0,13.5037
0.8,8.4,0,13.4663
0.8,8.5,0,13.4304
0.8,8.6,0,13.3946
0.8,8.7,0,13.3593
0.8,8.8,0,13.3259
0.8,8.9,0,13.2928
0.8,9,0,13.2598
0.8,9.1,0,13.2291
0.8,9.2,0,13.1993
0.8,9.3,0,13.1694
0.8,9.4,0,13.1411
0.8,9.5,0,13.1146
0.8,9.6,0,13.0882
0.8,9.7,0,13.0624
0.8,9.8,0,13.0395
0.8,9.9,0,13.0167
0.8,10,0,12.994
0.8,10.1,0,12.9741
0.8,10.2,0,12.955
0.8,10.3,0,12.936
0.8,10.4,0,12.9185
0.8,10.5,0,12.9031
0.8,10.6,0,12.8878
0.8,10.7,0,12.8729
0.8,10.8,0,12.8613
0.8,10.9,0,12.8499
0.8,11,0,12.8386
0.8,11.1,0,12.8293
0.8,11.2,0,12.8211
0.8,11.3,0,12.8129
0.8,11.4,0,12.8061
0.8,11.5,0,12.8023
0.8,11.6,0,12.7989
0.8,11.7,0,12.7955
0.8,11.8,0,12.7931
0.8,11.9,0,12.7916
0.8,12,0,12.79
0.8,12.1,0,12.7889
0.8,12.2,0,12.7897
0.8,12.3,0,12.7904
0.8,12.4,0,12.7912
0.8,12.5,0,12.7931
0.8,12.6,0,12.7955
0.8,12.7,0,12.7979
0.9,0,0,13.9762
0.9,0.1,0,13.9759
0.9,0.2,0,13.9749
0.9,0.3,0,13.9766
0.9,0.4,0,13.9769
0.9,0.5,0,13.9787
0.9,0.6,0,13.9783
0.9,0.7,0,13.9809
0.9,0.8,0,13.9805
0.9,0.9,0,13.9858
0.9,1,0,13.9884
0.9,1.1,0,13.9953
0.9,1.2,0,13.9997
0.9,1.3,0,14.0095
0.9,1.4,0,14.017
0.9,1.5,0,14.0292
0.9,1.6,0,14.0392
0.9,1.7,0,14.0536
0.9,1.8,0,14.066
0.9,1.9,0,14.0825
0.9,2,0,14.0971
0.9,2.1,0,14.1153
0.9,2.2,0,14.1317
0.9,2.3,0,14.151
0.9,2.4,0,14.1686
0.9,2.5,0,14.1883
0.9,2.6,0,14.2065
0.9,2.7,0,14.2263
0.9,2.8,0,14.2446
0.9,2.9,0,14.2649
0.9,3,0,14.2834
0.9,3.1,0,14.3045
0.9,3.2,0,14.3226
0.9,3.3,0,14.3445
0.9,3.4,0,14.3616
0.9,3.5,0,14.3836
0.9,3.6,0,14.401
0.9,3.7,0,14.421
0.9,3.8,0,14.4377
0.9,3.9,0,14.4545
0.9,4,0,14.4683
0.9,4.1,0,14.4831
0.9,4.2,0,14.4956
0.9,4.3,0,14.5055
0.9,4.4,0,14.5138
0.9,4.5,0,14.5167
0.9,4.6,0,14.5191
0.9,4.7,0,14.5167
0.9,4.8,0,14.5147
0.9,4.9,0,14.5072
0.9,5,0,14.4996
0.9,5.1,0,14.4872
0.9,5.2,0,14.475
0.9,5.3,0,14.4582
0.9,5.4,0,14.4406
0.9,5.5,0,14.4186
0.9,5.6,0,14.3962
0.9,5.7,0,14.3685
0.9,5.8,0,14.3412
0.9,5.9,0,14.3037
0.9,6,0,14.2673
0.9,6.1,0,14.2301
0.9,6.2,0,14.1928
0.9,6.3,0,14.1597
0.9,6.4,0,14.1212
0.9,6.5,0,14.0798
0.9,6.6,0,14.042
0.9,6.7,0,14.0045
0.9,6.8,0,13.9626
0.9,6.9,0,13.9219
0.9,7,0,13.884
0.9,7.1,0,13.8434
0.9,7.2,0,13.8026
0.9,7.3,0,13.7637
0.9,7.4,0,13.7238
0.9,7.5,0,13.683
0.9,7.6,0,13.6433
0.9,7.7,0,13.6038
0.9,7.8,0,13.5628
0.9,7.9,0,13.5223
0.9,8,0,13.4831
0.9,8.1,0,13.4437
0.9,8.2,0,13.4042
0.9,8.3,0,13.3661
0.9,8.4,0,13.3287
0.9,8.5,0,13.2919
0.9,8.6,0,13.2556
0.9,8.7,0,13.2202
0.9,8.8,0,13.1865
0.9,8.9,0,13.1529
0.9,9,0,13.1198
0.9,9.1,0,13.0891
0.9,9.2,0,13.0589
0.9,9.3,0,13.0289
0.9,9.4,0,13.0006
0.9,9.5,0,12.974
0.9,9.6,0,12.9474
0.9,9.7,0,12.9216
0.9,9.8,0,12.8986
0.9,9.9,0,12.8757
0.9,10,0,12.8529
0.9,10.1,0,12.833
0.9,10.2,0,12.8137
0.9,10.3,0,12.7947
0.9,10.4,0,12.7772
0.9,10.5,0,12.7616
0.9,10.6,0,12.7461
0.9,10.7,0,12.7311
0.9,10.8,0,12.7194
0.9,10.9,0,12.7076
0.9,11,0,12.6963
0.9,11.1,0,12.6869
0.9,11.2,0,12.6781
0.9,11.3,0,12.6698
0.9,11.4,0,12.663
0.9,11.5,0,12.6583
0.9,11.6,0,12.654
0.9,11.7,0,12.6506
0.9,11.8,0,12.6477
0.9,11.9,0,12.645
0.9,12,0,12.6434
0.9,12.1,0,12.6423
0.9,12.2,0,12.6414
0.9,12.3,0,12.6416
0.9,12.4,0,12.6424
0.9,12.5,0,12.6435
0.9,12.6,0,12.6449
0.9,12.7,0,12.6473
1,0,0,13.8154
1,0.1,0,13.8151
1,0.2,0,13.8149
1,0.3,0,13.8166
1,0.4,0,13.8182
1,0.5,0,13.82
1,0.6,0,13.8218
1,0.7,0,13.8244
1,0.8,0,13.827
1,0.9,0,13.8323
1,1,0,13.8376
1,1.1,0,13.8445
1,1.2,0,13.8513
1,1.3,0,13.8611
1,1.4,0,13.8708
1,1.5,0,13.883
1,1.6,0,13.8951
1,1.7,0,13.9096
1,1.8,0,13.924
1,1.9,0,13.9406
1,2,0,13.9572
1,2.1,0,13.9754
1,2.2,0,13.9936
1,2.3,0,14.0129
1,2.4,0,14.0322
1,2.5,0,14.0519
1,2.6,0,14.0716
1,2.7,0,14.0914
1,2.8,0,14.1111
1,2.9,0,14.1314
1,3,0,14.1516
1,3.1,0,14.1728
1,3.2,0,14.1939
1,3.3,0,14.2158
1,3.4,0,14.2377
1,3.5,0,14.2597
1,3.6,0,14.2817
1,3.7,0,14.3016
1,3.8,0,14.3216
1,3.9,0,14.3384
1,4,0,14.3552
1,4.1,0,14.37
1,4.2,0,14.3848
1,4.3,0,14.3946
1,4.4,0,14.4045
1,4.5,0,14.4075
1,4.6,0,14.4104
1,4.7,0,14.408
1,4.8,0,14.4055
1,4.9,0,14.398
1,5,0,14.3905
1,5.1,0,14.3781
1,5.2,0,14.3657
1,5.3,0,14.349
1,5.4,0,14.3322
1,5.5,0,14.3102
1,5.6,0,14.2883
1,5.7,0,14.2606
1,5.8,0,14.2328
1,5.9,0,14.1953
1,6,0,14.1578
1,6.1,0,14.1205
1,6.2,0,14.0832
1,6.3,0,14.0459
1,6.4,0,14.0059
1,6.5,0,13.9645
1,6.6,0,13.9231
1,6.7,0,13.8815
1,6.8,0,13.8397
1,6.9,0,13.7978
1,7,0,13.756
1,7.1,0,13.7152
1,7.2,0,13.6744
1,7.3,0,13.6336
1,7.4,0,13.5929
1,7.5,0,13.5521
1,7.6,0,13.5113
1,7.7,0,13.4705
1,7.8,0,13.4296
1,7.9,0,13.3886
1,8,0,13.3477
1,8.1,0,13.3081
1,8.2,0,13.2686
1,8.3,0,13.2291
1,8.4,0,13.1911
1,8.5,0,13.1543
1,8.6,0,13.1174
1,8.7,0,13.0812
1,8.8,0,13.0475
1,8.9,0,13.0137
1,9,0,12.98
1,9.1,0,12.9492
1,9.2,0,12.9189
1,9.3,0,12.8886
1,9.4,0,12.8602
1,9.5,0,12.8335
1,9.6,0,12.8069
1,9.7,0,12.7808
1,9.8,0,12.7578
1,9.9,0,12.7349
1,10,0,12.7119
1,10.1,0,12.6919
1,10.2,0,12.6727
1,10.3,0,12.6534
1,10.4,0,12.6358
1,10.5,0,12.6202
1,10.6,0,12.6046
1,10.7,0,12.5894
1,10.8,0,12.5776
1,10.9,0,12.5659
1,11,0,12.5541
1,11.1,0,12.5446
1,11.2,0,12.5358
1,11.3,0,12.5271
1,11.4,0,12.5199
1,11.5,0,12.5151
1,11.6,0,12.5104
1,11.7,0,12.5057
1,11.8,0,12.5029
1,11.9,0,12.5
1,12,0,12.4972
1,12.1,0,12.4957
1,12.2,0,12.4948
1,12.3,0,12.4939
1,12.4,0,12.4936
1,12.5,0,12.4947
1,12.6,0,12.4957
1,12.7,0,12.4968
1.1,0,0,13.6666
1.1,0.1,0,13.6671
1.1,0.2,0,13.6669
1.1,0.3,0,13.6696
1.1,0.4,0,13.6712
1.1,0.5,0,13.6745
1.1,0.6,0,13.6763
1.1,0.7,0,13.6809
1.1,0.8,0,13.6836
1.1,0.9,0,13.6909
1.1,1,0,13.6962
1.1,1.1,0,13.7053
1.1,1.2,0,13.7121
1.1,1.3,0,13.7242
1.1,1.4,0,13.7339
1.1,1.5,0,13.7485
1.1,1.6,0,13.7607
1.1,1.7,0,13.7778
1.1,1.8,0,13.7922
1.1,1.9,0,13.8115
1.1,2,0,13.8281
1.1,2.1,0,13.8491
1.1,2.2,0,13.8673
1.1,2.3,0,13.8893
1.1,2.4,0,13.9086
1.1,2.5,0,13.9309
1.1,2.6,0,13.9506
1.1,2.7,0,13.973
1.1,2.8,0,13.9927
1.1,2.9,0,14.016
1.1,3,0,14.0362
1.1,3.1,0,14.0607
1.1,3.2,0,14.0818
1.1,3.3,0,14.1068
1.1,3.4,0,14.1287
1.1,3.5,0,14.153
1.1,3.6,0,14.175
1.1,3.7,0,14.1968
1.1,3.8,0,14.2167
1.1,3.9,0,14.2349
1.1,4,0,14.2517
1.1,4.1,0,14.2691
1.1,4.2,0,14.2839
1.1,4.3,0,14.2969
1.1,4.4,0,14.3068
1.1,4.5,0,14.3122
1.1,4.6,0,14.3152
1.1,4.7,0,14.3144
1.1,4.8,0,14.312
1.1,4.9,0,14.3052
1.1,5,0,14.2976
1.1,5.1,0,14.285
1.1,5.2,0,14.2726
1.1,5.3,0,14.2543
1.1,5.4,0,14.2375
1.1,5.5,0,14.2134
1.1,5.6,0,14.1915
1.1,5.7,0,14.1607
1.1,5.8,0,14.133
1.1,5.9,0,14.0913
1.1,6,0,14.0538
1.1,6.1,0,14.0133
1.1,6.2,0,13.9749
1.1,6.3,0,13.9376
1.1,6.4,0,13.896
1.1,6.5,0,13.8529
1.1,6.6,0,13.8114
1.1,6.7,0,13.7692
1.1,6.8,0,13.7249
1.1,6.9,0,13.6829
1.1,7,0,13.6411
1.1,7.1,0,13.5982
1.1,7.2,0,13.5565
1.1,7.3,0,13.5158
1.1,7.4,0,13.4736
1.1,7.5,0,13.4312
1.1,7.6,0,13.3904
1.1,7.7,0,13.349
1.1,7.8,0,13.3058
1.1,7.9,0,13.2646
1.1,8,0,13.2237
1.1,8.1,0,13.1822
1.1,8.2,0,13.1418
1.1,8.3,0,13.1024
1.1,8.4,0,13.0635
1.1,8.5,0,13.0254
1.1,8.6,0,12.9886
1.1,8.7,0,12.9522
1.1,8.8,0,12.9175
1.1,8.9,0,12.8836
1.1,9,0,12.8499
1.1,9.1,0,12.8186
1.1,9.2,0,12.7881
1.1,9.3,0,12.7578
1.1,9.4,0,12.7292
1.1,9.5,0,12.7023
1.1,9.6,0,12.6756
1.1,9.7,0,12.6495
1.1,9.8,0,12.6263
1.1,9.9,0,12.6033
1.1,10,0,12.5804
1.1,10.1,0,12.5603
1.1,10.2,0,12.5409
1.1,10.3,0,12.5217
1.1,10.4,0,12.504
1.1,10.5,0,12.4882
1.1,10.6,0,12.4726
1.1,10.7,0,12.4573
1.1,10.8,0,12.4452
1.1,10.9,0,12.4333
1.1,11,0,12.4215
1.1,11.1,0,12.4117
1.1,11.2,0,12.4027
1.1,11.3,0,12.3939
1.1,11.4,0,12.3864
1.1,11.5,0,12.3807
1.1,11.6,0,12.376
1.1,11.7,0,12.3713
1.1,11.8,0,12.3676
1.1,11.9,0,12.3645
1.1,12,0,12.3617
1.1,12.1,0,12.3597
1.1,12.2,0,12.3584
1.1,12.3,0,12.3575
1.1,12.4,0,12.3571
1.1,12.5,0,12.3576
1.1,12.6,0,12.3586
1.1,12.7,0,12.3596
1.2,0,0,13.5179
1.2,0.1,0,13.5185
1.2,0.2,0,13.5188
1.2,0.3,0,13.5218
1.2,0.4,0,13.5242
1.2,0.5,0,13.5279
1.2,0.6,0,13.5308
1.2,0.7,0,13.536
1.2,0.8,0,13.5401
1.2,0.9,0,13.548
1.2,1,0,13.5548
1.2,1.1,0,13.5644
1.2,1.2,0,13.5729
1.2,1.3,0,13.5856
1.2,1.4,0,13.597
1.2,1.5,0,13.6122
1.2,1.6,0,13.6262
1.2,1.7,0,13.644
1.2,1.8,0,13.6604
1.2,1.9,0,13.6804
1.2,2,0,13.6991
1.2,2.1,0,13.7207
1.2,2.2,0,13.741
1.2,2.3,0,13.7636
1.2,2.4,0,13.7849
1.2,2.5,0,13.8078
1.2,2.6,0,13.8295
1.2,2.7,0,13.8526
1.2,2.8,0,13.8743
1.2,2.9,0,13.8983
1.2,3,0,13.9208
1.2,3.1,0,13.9461
1.2,3.2,0,13.9697
1.2,3.3,0,13.9954
1.2,3.4,0,14.0196
1.2,3.5,0,14.0446
1.2,3.6,0,14.0684
1.2,3.7,0,14.0906
1.2,3.8,0,14.1118
1.2,3.9,0,14.1304
1.2,4,0,14.1483
1.2,4.1,0,14.1663
1.2,4.2,0,14.1831
1.2,4.3,0,14.1969
1.2,4.4,0,14.2091
1.2,4.5,0,14.2152
1.2,4.6,0,14.22
1.2,4.7,0,14.2197
1.2,4.8,0,14.2185
1.2,4.9,0,14.2118
1.2,5,0,14.2048
1.2,5.1,0,14.192
1.2,5.2,0,14.1794
1.2,5.3,0,14.1608
1.2,5.4,0,14.1429
1.2,5.5,0,14.1182
1.2,5.6,0,14.0947
1.2,5.7,0,14.0631
1.2,5.8,0,14.0331
1.2,5.9,0,13.9905
1.2,6,0,13.9499
1.2,6.1,0,13.9093
1.2,6.2,0,13.8687
1.2,6.3,0,13.8292
1.2,6.4,0,13.7877
1.2,6.5,0,13.7438
1.2,6.6,0,13.6998
1.2,6.7,0,13.6575
1.2,6.8,0,13.6132
1.2,6.9,0,13.5689
1.2,7,0,13.5262
1.2,7.1,0,13.4833
1.2,7.2,0,13.4403
1.2,7.3,0,13.3979
1.2,7.4,0,13.3558
1.2,7.5,0,13.3127
1.2,7.6,0,13.2697
1.2,7.7,0,13.2281
1.2,7.8,0,13.1849
1.2,7.9,0,13.1416
1.2,8,0,13.0997
1.2,8.1,0,13.0582
1.2,8.2,0,13.0167
1.2,8.3,0,12.9756
1.2,8.4,0,12.9367
1.2,8.5,0,12.8983
1.2,8.6,0,12.8599
1.2,8.7,0,12.8233
1.2,8.8,0,12.7886
1.2,8.9,0,12.754
1.2,9,0,12.7198
1.2,9.1,0,12.6885
1.2,9.2,0,12.6577
1.2,9.3,0,12.627
1.2,9.4,0,12.5983
1.2,9.5,0,12.5714
1.2,9.6,0,12.5444
1.2,9.7,0,12.5182
1.2,9.8,0,12.4951
1.2,9.9,0,12.4719
1.2,10,0,12.4489
1.2,10.1,0,12.4287
1.2,10.2,0,12.4093
1.2,10.3,0,12.3899
1.2,10.4,0,12.3722
1.2,10.5,0,12.3564
1.2,10.6,0,12.3405
1.2,10.7,0,12.3252
1.2,10.8,0,12.3131
1.2,10.9,0,12.3009
1.2,11,0,12.2889
1.2,11.1,0,12.2791
1.2,11.2,0,12.2699
1.2,11.3,0,12.2607
1.2,11.4,0,12.2532
1.2,11.5,0,12.2475
1.2,11.6,0,12.2418
1.2,11.7,0,12.2369
1.2,11.8,0,12.2332
1.2,11.9,0,12.2296
1.2,12,0,12.2262
1.2,12.1,0,12.2242
1.2,12.2,0,12.2227
1.2,12.3,0,12.2211
1.2,12.4,0,12.2207
1.2,12.5,0,12.2212
1.2,12.6,0,12.2217
1.2,12.7,0,12.2225
1.3,0,0,13.3721
1.3,0.1,0,13.3731
1.3,0.2,0,13.3737
1.3,0.3,0,13.3776
1.3,0.4,0,13.3806
1.3,0.5,0,13.3852
1.3,0.6,0,13.3888
1.3,0.7,0,13.3949
1.3,0.8,0,13.4
1.3,0.9,0,13.4088
1.3,1,0,13.4167
1.3,1.1,0,13.4274
1.3,1.2,0,13.437
1.3,1.3,0,13.4507
1.3,1.4,0,13.4633
1.3,1.5,0,13.4796
1.3,1.6,0,13.4948
1.3,1.7,0,13.5137
1.3,1.8,0,13.5315
1.3,1.9,0,13.5526
1.3,2,0,13.5726
1.3,2.1,0,13.5954
1.3,2.2,0,13.617
1.3,2.3,0,13.6409
1.3,2.4,0,13.6635
1.3,2.5,0,13.6878
1.3,2.6,0,13.7107
1.3,2.7,0,13.7353
1.3,2.8,0,13.7584
1.3,2.9,0,13.784
1.3,3,0,13.808
1.3,3.1,0,13.8354
1.3,3.2,0,13.8607
1.3,3.3,0,13.8887
1.3,3.4,0,13.9144
1.3,3.5,0,13.9411
1.3,3.6,0,13.9661
1.3,3.7,0,13.9895
1.3,3.8,0,14.0117
1.3,3.9,0,14.032
1.3,4,0,14.0506