/*--------------------------------*- C++ -*----------------------------------*\
| =========                 |                                                 |
| \\      /  F ield         | OpenFOAM: The Open Source CFD Toolbox           |
|  \\    /   O peration     | Version:  v1806                                 |
|   \\  /    A nd           | Web:      www.OpenFOAM.com                      |
|    \\/     M anipulation  |                                                 |
\*---------------------------------------------------------------------------*/
FoamFile
{
    version     2.0;
    format      ascii;
    class       volScalarField;
    location    "250";
    object      p;
}
// * * * * * * * * * * * * * * * * * * * * * * * * * * * * * * * * * * * * * //

dimensions      [0 2 -2 0 0 0 0];


internalField   nonuniform List<scalar> 
4400
(
0.00699249
0.00980323
0.0107187
0.0100283
0.00879267
0.00743473
0.00614521
0.00501651
0.0040735
0.00330716
0.00268979
0.00219148
0.00178618
0.00145145
0.00116814
0.000920676
0.000697067
0.000488635
0.000289548
9.58433e-05
0.0207087
0.0154579
0.011837
0.0095295
0.00788311
0.00664045
0.00565552
0.00486009
0.00420847
0.00366251
0.00319126
0.00277152
0.00238731
0.00202828
0.00168795
0.00136214
0.00104782
0.000742366
0.000443384
0.000148065
0.0132865
0.0121484
0.011033
0.00999181
0.00908225
0.00823482
0.00740296
0.00658776
0.00580664
0.00507359
0.00439457
0.00377029
0.00319842
0.0026747
0.0021935
0.00174828
0.00133198
0.00093749
0.000558064
0.000186415
0.0127064
0.0116606
0.0104866
0.00933397
0.00829516
0.00738934
0.0065902
0.00587079
0.00521575
0.00461604
0.00406418
0.00355269
0.00307425
0.00262224
0.00219091
0.00177535
0.00137137
0.0009755
0.000585034
0.000196553
0.0090731
0.00868231
0.00825429
0.00779008
0.00729357
0.00677776
0.00626165
0.00574508
0.00522801
0.00471389
0.00420728
0.00371184
0.00322987
0.00276247
0.00230966
0.00187054
0.00144335
0.00102574
0.000614903
0.000206305
0.00811683
0.00779038
0.00737827
0.00690972
0.0064177
0.00592676
0.00544682
0.00498115
0.00452979
0.00409172
0.00366608
0.00325206
0.00284853
0.0024541
0.00206714
0.00168598
0.00130898
0.000934771
0.000562315
0.000189471
0.00622171
0.00604337
0.00583967
0.00560804
0.00534857
0.00506432
0.00475866
0.00443736
0.00410373
0.00376015
0.00340909
0.00305301
0.00269403
0.00233384
0.00197363
0.00161412
0.00125555
0.000897866
0.000540604
0.000181751
0.00545903
0.00531149
0.00512009
0.00489297
0.00463954
0.00436759
0.00408437
0.0037941
0.00349911
0.003201
0.00290076
0.00259907
0.00229637
0.00199294
0.00168887
0.00138413
0.00107863
0.000772373
0.000465506
0.000157033
0.00433282
0.00423429
0.00411815
0.00398337
0.00382942
0.0036573
0.00346813
0.0032632
0.00304449
0.00281371
0.00257244
0.00232225
0.00206464
0.00180096
0.00153237
0.00125986
0.000984217
0.000706127
0.000426052
0.000143318
0.00377127
0.00368917
0.00358238
0.00345329
0.00330545
0.00314168
0.0029649
0.00277779
0.00258213
0.00237924
0.0021702
0.00195586
0.00173693
0.00151404
0.00128771
0.00105843
0.000826634
0.000592854
0.000357649
0.000120645
0.00305543
0.00299463
0.002921
0.00283444
0.00273459
0.00262181
0.0024966
0.0023595
0.0022112
0.00205263
0.00188473
0.00170846
0.00152483
0.00133479
0.00113927
0.000939126
0.000735175
0.000528221
0.000318938
0.000107243
0.00265667
0.00260536
0.00253869
0.00245733
0.00236291
0.00225668
0.00213994
0.00201406
0.00188023
0.00173935
0.00159223
0.00143958
0.00128204
0.00112021
0.000954644
0.000785892
0.000614493
0.000441038
0.000266126
8.96879e-05
0.00219132
0.00215097
0.00210107
0.00204182
0.00197305
0.00189494
0.00180777
0.00171186
0.00160757
0.0014954
0.0013759
0.0012497
0.00111745
0.00097982
0.000837507
0.000691188
0.000541545
0.000389282
0.00023503
7.89478e-05
0.00191907
0.00188441
0.00183942
0.00178425
0.00171976
0.00164662
0.00156549
0.00147713
0.00138225
0.00128149
0.00117544
0.00106464
0.000949594
0.000830809
0.000708767
0.000583951
0.000456848
0.000327979
0.000197855
6.65674e-05
0.00162065
0.00159211
0.00155629
0.00151344
0.0014635
0.00140659
0.00134291
0.00127268
0.00119615
0.00111364
0.00102553
0.000932236
0.000834219
0.00073197
0.000626003
0.000516842
0.000405031
0.000291134
0.000175671
5.89125e-05
0.00144759
0.00142259
0.00139004
0.00134998
0.00130293
0.00124928
0.00118945
0.0011239
0.00105309
0.000977504
0.000897572
0.000813719
0.000726362
0.000635909
0.000542765
0.000447335
0.000350028
0.000251269
0.000151475
5.08417e-05
0.00126845
0.00124683
0.00121927
0.00118601
0.00114706
0.00110257
0.00105272
0.000997715
0.000937772
0.000873147
0.000804128
0.000731036
0.000654223
0.000574063
0.000490956
0.000405316
0.000317576
0.000228182
0.000137558
4.60351e-05
0.00117368
0.00115337
0.0011272
0.0010952
0.0010577
0.00101498
0.000967319
0.000914996
0.000858322
0.000797616
0.000733197
0.000665386
0.00059451
0.000520904
0.00044491
0.000366879
0.000287168
0.000206146
0.000124183
4.15809e-05
0.00108424
0.00106459
0.00104056
0.00101208
0.000979019
0.000941425
0.000899383
0.000852998
0.000802404
0.000747762
0.000689273
0.000627175
0.000561744
0.000493288
0.000422145
0.000348681
0.000273284
0.000196357
0.000118301
3.95188e-05
0.0010674
0.00105022
0.00102707
0.000998415
0.000964578
0.000925827
0.00088245
0.000834745
0.000783015
0.000727563
0.000668699
0.000606733
0.00054198
0.000474757
0.000405386
0.00033419
0.000261497
0.00018763
0.000112923
3.77248e-05
0.0247331
0.0267221
0.0283039
0.0296338
0.0307253
0.0315763
0.0321916
0.0325772
0.0327364
0.0326702
0.0323777
0.0318559
0.0310997
0.0301018
0.0288524
0.0273396
0.0255529
0.0234841
0.0210842
0.0181641
0.0260618
0.026644
0.0271246
0.0275209
0.0278442
0.0280995
0.0282896
0.0284165
0.0284814
0.028485
0.0284274
0.028308
0.0281258
0.0278791
0.0275651
0.0271803
0.0267234
0.0261994
0.025587
0.024734
0.0149638
0.015074
0.0151709
0.015252
0.0153155
0.0153601
0.0153847
0.0153884
0.0153707
0.0153313
0.0152702
0.0151877
0.0150845
0.0149613
0.0148194
0.0146603
0.0144855
0.014296
0.014096
0.0139015
0.0138761
0.01395
0.0140132
0.0140654
0.0141062
0.0141354
0.0141527
0.014158
0.014151
0.0141318
0.0141003
0.0140566
0.0140007
0.0139328
0.013853
0.0137616
0.0136591
0.0135468
0.0134233
0.0132771
0.0095166
0.0095308
0.00954166
0.00954906
0.00955293
0.00955318
0.00954976
0.00954262
0.00953176
0.00951717
0.00949888
0.00947692
0.00945136
0.00942227
0.00938976
0.00935398
0.00931482
0.00927187
0.00922632
0.00918564
0.00855995
0.00857669
0.00859025
0.00860058
0.00860765
0.00861142
0.00861188
0.00860899
0.00860276
0.00859318
0.00858026
0.008564
0.00854443
0.00852156
0.00849542
0.00846602
0.00843358
0.0083986
0.00836042
0.00831318
0.00642125
0.00642562
0.00642859
0.00643014
0.00643027
0.00642897
0.00642622
0.00642203
0.00641639
0.0064093
0.00640077
0.00639079
0.00637938
0.00636655
0.00635231
0.00633669
0.0063196
0.00630071
0.00628056
0.00626331
0.00566885
0.00567533
0.00568043
0.00568414
0.00568645
0.00568737
0.00568688
0.00568498
0.00568168
0.00567697
0.00567085
0.00566332
0.0056544
0.00564408
0.00563237
0.00561926
0.00560484
0.00558938
0.00557256
0.00555118
0.00444221
0.00444474
0.00444649
0.00444744
0.00444759
0.00444694
0.0044455
0.00444325
0.00444021
0.00443636
0.00443171
0.00442626
0.00442001
0.00441296
0.00440513
0.00439652
0.00438709
0.00437663
0.00436543
0.00435579
0.00388415
0.00388773
0.00389055
0.00389262
0.00389394
0.00389449
0.00389429
0.00389332
0.0038916
0.00388912
0.00388587
0.00388187
0.00387712
0.00387161
0.00386534
0.0038583
0.00385056
0.00384226
0.00383321
0.00382165
0.00312077
0.00312266
0.00312403
0.0031249
0.00312526
0.00312511
0.00312445
0.00312328
0.00312159
0.0031194
0.00311669
0.00311348
0.00310976
0.00310552
0.00310079
0.00309556
0.0030898
0.0030834
0.00307651
0.00307046
0.00272306
0.00272543
0.00272733
0.00272875
0.00272971
0.0027302
0.00273021
0.00272976
0.00272883
0.00272743
0.00272556
0.00272322
0.00272041
0.00271713
0.00271338
0.00270915
0.00270448
0.00269945
0.00269396
0.00268698
0.00223285
0.00223434
0.00223549
0.00223628
0.00223672
0.00223682
0.00223656
0.00223595
0.002235
0.00223369
0.00223203
0.00223003
0.00222767
0.00222497
0.00222192
0.00221853
0.00221477
0.0022106
0.00220608
0.002202
0.00196119
0.0019629
0.00196429
0.00196536
0.00196611
0.00196654
0.00196665
0.00196644
0.00196591
0.00196506
0.00196389
0.00196241
0.0019606
0.00195848
0.00195604
0.00195327
0.0019502
0.00194688
0.00194325
0.00193868
0.00164885
0.00165006
0.00165102
0.00165172
0.00165216
0.00165236
0.00165229
0.00165198
0.00165141
0.00165058
0.00164951
0.00164817
0.00164659
0.00164475
0.00164266
0.00164032
0.00163772
0.00163482
0.00163167
0.00162875
0.00147617
0.00147748
0.00147856
0.0014794
0.00148001
0.00148039
0.00148054
0.00148045
0.00148013
0.00147958
0.0014788
0.00147778
0.00147653
0.00147505
0.00147334
0.00147139
0.00146922
0.00146686
0.00146427
0.00146108
0.00128903
0.00129005
0.00129087
0.00129149
0.00129192
0.00129215
0.00129219
0.00129203
0.00129167
0.00129111
0.00129036
0.00128941
0.00128827
0.00128693
0.00128539
0.00128367
0.00128174
0.00127959
0.00127725
0.00127502
0.00119629
0.00119735
0.00119823
0.00119892
0.00119942
0.00119974
0.00119987
0.00119981
0.00119956
0.00119912
0.0011985
0.00119768
0.00119668
0.0011955
0.00119412
0.00119255
0.0011908
0.00118889
0.0011868
0.00118425
0.00110509
0.00110599
0.0011067
0.00110723
0.00110759
0.00110777
0.00110776
0.00110758
0.00110721
0.00110667
0.00110594
0.00110503
0.00110394
0.00110267
0.00110122
0.00109959
0.00109776
0.00109574
0.00109353
0.00109132
0.00108304
0.00108407
0.00108494
0.00108565
0.00108619
0.00108657
0.00108679
0.00108684
0.00108673
0.00108645
0.00108601
0.00108541
0.00108465
0.00108372
0.00108263
0.00108139
0.00107998
0.00107842
0.00107671
0.00107477
0.0142836
0.0145039
0.0147011
0.014882
0.0150464
0.0151933
0.0153232
0.0154389
0.0155456
0.0156513
0.0157682
0.0159124
0.0161051
0.0163738
0.0167527
0.0172813
0.0179951
0.0189304
0.0201955
0.022081
0.0133494
0.0137158
0.0141213
0.0145523
0.0150099
0.0154978
0.0160183
0.0165733
0.0171638
0.0177905
0.0184531
0.0191501
0.0198792
0.0206365
0.0214169
0.0222134
0.0230175
0.0238207
0.0246136
0.0253763
0.0120501
0.0121927
0.0123382
0.0124864
0.0126367
0.0127889
0.0129424
0.0130968
0.0132514
0.0134056
0.013559
0.0137111
0.0138614
0.0140098
0.014156
0.0142999
0.0144413
0.0145798
0.0147143
0.0148431
0.0109926
0.0111683
0.0113398
0.011511
0.0116821
0.0118522
0.0120206
0.0121868
0.0123502
0.0125101
0.012666
0.0128173
0.0129634
0.0131036
0.0132375
0.0133645
0.013484
0.0135955
0.0136984
0.0137921
0.00869614
0.00875249
0.00881118
0.0088685
0.00892387
0.00897745
0.00902923
0.00907911
0.00912699
0.00917278
0.00921642
0.00925783
0.00929694
0.00933367
0.00936795
0.00939969
0.00942879
0.00945515
0.00947865
0.00949918
0.00765351
0.00772235
0.00778627
0.00784845
0.00790915
0.00796801
0.00802483
0.00807953
0.00813202
0.0081822
0.00822999
0.00827532
0.00831809
0.00835823
0.00839568
0.00843035
0.0084622
0.00849114
0.00851712
0.00854007
0.00606264
0.00608989
0.00611846
0.00614594
0.00617204
0.00619693
0.00622065
0.00624319
0.00626451
0.00628461
0.00630347
0.00632109
0.00633745
0.00635253
0.00636632
0.00637882
0.00639
0.00639984
0.00640835
0.00641549
0.00526746
0.00530035
0.00533028
0.00535912
0.00538706
0.00541391
0.0054396
0.00546412
0.00548746
0.00550959
0.00553049
0.00555016
0.00556856
0.0055857
0.00560154
0.00561609
0.00562932
0.00564122
0.00565179
0.005661
0.00423153
0.0042479
0.00426496
0.00428132
0.00429681
0.00431154
0.00432554
0.0043388
0.00435131
0.00436308
0.0043741
0.00438436
0.00439386
0.0044026
0.00441058
0.00441779
0.00442423
0.0044299
0.00443478
0.00443889
0.00365927
0.00367805
0.00369507
0.00371143
0.00372723
0.00374237
0.00375682
0.00377057
0.00378363
0.00379598
0.00380763
0.00381856
0.00382878
0.00383827
0.00384703
0.00385507
0.00386237
0.00386893
0.00387475
0.00387982
0.00297887
0.00298989
0.00300127
0.00301218
0.00302252
0.00303236
0.00304172
0.00305059
0.00305897
0.00306685
0.00307425
0.00308115
0.00308755
0.00309345
0.00309886
0.00310377
0.00310818
0.00311208
0.00311548
0.00311838
0.0025788
0.00259082
0.00260175
0.00261225
0.00262237
0.00263207
0.00264131
0.00265011
0.00265847
0.00266637
0.00267382
0.00268082
0.00268736
0.00269344
0.00269906
0.00270422
0.00270892
0.00271315
0.00271692
0.00272023
0.00213097
0.00213885
0.00214691
0.00215463
0.00216197
0.00216896
0.00217562
0.00218193
0.00218791
0.00219355
0.00219884
0.0022038
0.00220841
0.00221267
0.0022166
0.00222017
0.0022234
0.00222629
0.00222882
0.00223101
0.00186089
0.00186917
0.00187675
0.00188402
0.00189104
0.00189775
0.00190416
0.00191026
0.00191606
0.00192154
0.00192671
0.00193158
0.00193613
0.00194036
0.00194429
0.0019479
0.00195119
0.00195417
0.00195682
0.00195917
0.00157221
0.00157812
0.0015841
0.00158984
0.0015953
0.00160051
0.00160548
0.0016102
0.00161468
0.0016189
0.00162288
0.00162661
0.00163008
0.00163331
0.00163629
0.00163901
0.00164148
0.00164371
0.00164567
0.00164739
0.00140164
0.00140772
0.00141333
0.00141872
0.00142391
0.00142889
0.00143364
0.00143816
0.00144246
0.00144653
0.00145037
0.00145398
0.00145737
0.00146053
0.00146346
0.00146615
0.00146862
0.00147086
0.00147286
0.00147463
0.00122793
0.00123263
0.00123734
0.00124187
0.00124618
0.00125031
0.00125424
0.00125798
0.00126154
0.0012649
0.00126806
0.00127104
0.00127382
0.0012764
0.00127879
0.00128099
0.00128299
0.00128479
0.0012864
0.00128781
0.00113615
0.00114102
0.00114555
0.0011499
0.00115408
0.00115809
0.00116192
0.00116557
0.00116904
0.00117232
0.00117542
0.00117834
0.00118107
0.00118362
0.00118599
0.00118817
0.00119017
0.00119198
0.0011936
0.00119504
0.00105034
0.00105463
0.00105887
0.00106293
0.00106681
0.00107051
0.00107404
0.0010774
0.00108058
0.00108359
0.00108642
0.00108908
0.00109157
0.00109387
0.00109601
0.00109796
0.00109974
0.00110135
0.00110277
0.00110402
0.00102867
0.0010329
0.00103693
0.00104082
0.00104456
0.00104815
0.00105158
0.00105486
0.00105798
0.00106095
0.00106375
0.00106641
0.0010689
0.00107123
0.0010734
0.00107541
0.00107726
0.00107895
0.00108047
0.00108184
0.00706359
0.00866595
0.00938625
0.00983495
0.0101265
0.010285
0.0103444
0.0103373
0.0102871
0.0102101
0.0101184
0.0100212
0.00992544
0.00983648
0.00975837
0.00969465
0.00964626
0.00961446
0.00960464
0.00961851
0.00721676
0.0078885
0.0082707
0.00854979
0.00876302
0.00891552
0.00901745
0.00908038
0.00911374
0.00912494
0.00911992
0.00910344
0.00907927
0.00905024
0.00901832
0.00898502
0.00895264
0.00892236
0.00889011
0.00885359
0.00756365
0.00796319
0.00825445
0.00847761
0.00864642
0.00876689
0.00884616
0.00889191
0.00891113
0.00890991
0.00889342
0.00886599
0.00883115
0.00879171
0.00874979
0.00870703
0.00866469
0.00862314
0.00858046
0.00853631
0.00753458
0.00774357
0.00790884
0.00803932
0.00813906
0.0082108
0.00825788
0.00828399
0.00829274
0.00828753
0.00827141
0.00824707
0.00821682
0.00818258
0.00814589
0.00810805
0.00807018
0.00803267
0.00799334
0.00795048
0.00730294
0.00743396
0.00754415
0.00763282
0.00770105
0.00775028
0.00778225
0.00779893
0.00780245
0.00779495
0.00777851
0.00775506
0.00772636
0.00769394
0.00765912
0.00762304
0.00758675
0.00755064
0.00751299
0.007473
0.00693046
0.00701329
0.00708426
0.00714018
0.00718149
0.00720936
0.00722496
0.00722958
0.0072246
0.00721152
0.00719177
0.00716675
0.00713778
0.007106
0.00707246
0.00703809
0.00700378
0.00696987
0.0069346
0.00689682
0.00647869
0.00653496
0.00658439
0.00662217
0.00664844
0.00666425
0.00667047
0.00666799
0.00665784
0.00664111
0.00661893
0.00659237
0.0065625
0.00653025
0.0064965
0.00646204
0.00642768
0.00639366
0.00635825
0.00632045
0.00597491
0.0060119
0.00604516
0.0060688
0.00608286
0.00608832
0.00608591
0.00607633
0.00606038
0.00603898
0.00601305
0.00598351
0.00595126
0.00591713
0.00588186
0.00584618
0.00581084
0.00577604
0.00573993
0.00570142
0.0054368
0.00545896
0.00547983
0.00549252
0.00549695
0.00549406
0.00548444
0.00546865
0.00544735
0.00542132
0.00539135
0.00535827
0.00532287
0.00528592
0.00524809
0.00521009
0.00517263
0.00513588
0.00509792
0.00505761
0.00487548
0.00488366
0.00489241
0.00489409
0.00488856
0.00487674
0.0048591
0.0048361
0.00480831
0.00477639
0.00474107
0.0047031
0.00466322
0.00462215
0.00458053
0.00453905
0.00449843
0.00445882
0.00441817
0.00437524
0.0042996
0.00429296
0.00428823
0.00427743
0.00426042
0.00423806
0.00421078
0.00417893
0.00414299
0.00410356
0.00406128
0.00401684
0.00397093
0.00392422
0.00387734
0.00383098
0.00378586
0.00374213
0.00369756
0.00365081
0.00371927
0.00369488
0.003673
0.00364601
0.00361388
0.00357743
0.00353705
0.00349305
0.00344586
0.00339598
0.003344
0.00329052
0.00323617
0.00318158
0.00312734
0.00307413
0.0030227
0.00297319
0.00292311
0.00287095
0.00314977
0.00310287
0.00305796
0.0030089
0.00295588
0.00289975
0.00284092
0.00277972
0.00271656
0.00265187
0.00258614
0.00251988
0.00245362
0.0023879
0.00232325
0.0022603
0.00219985
0.002142
0.00208386
0.00202376
0.00261483
0.00253754
0.00246025
0.0023797
0.00229648
0.00221147
0.00212528
0.00203837
0.00195122
0.00186425
0.00177788
0.0016925
0.0016085
0.00152627
0.00144623
0.00136894
0.00129521
0.00122509
0.0011551
0.00108319
0.00215831
0.00204054
0.00191903
0.00179484
0.00166908
0.00154276
0.00141684
0.00129217
0.00116946
0.00104928
0.000932026
0.000818007
0.000707425
0.000600435
0.000497207
0.000398121
0.000303922
0.000214497
0.00012548
3.44703e-05
0.00183149
0.00165889
0.00147689
0.00129186
0.00110524
0.000918204
0.000732338
0.000549212
0.00037019
0.000196372
2.85649e-05
-0.000132731
-0.000287307
-0.000435197
-0.000576548
-0.000711283
-0.000838783
-0.000959425
-0.00107921
-0.0012017
0.00172213
0.0014947
0.00124739
0.000993879
0.000735779
0.000474206
0.000211504
-4.96918e-05
-0.000306865
-0.000557753
-0.000800479
-0.0010337
-0.00125673
-0.00146956
-0.00167275
-0.00186693
-0.00205218
-0.00223011
-0.00241017
-0.00259633
0.00183496
0.0015526
0.00123279
0.000898281
0.000550371
0.000189655
-0.000180957
-0.000557665
-0.000936381
-0.00131289
-0.00168305
-0.00204314
-0.00239023
-0.0027226
-0.00303997
-0.00334303
-0.0036327
-0.0039144
-0.00421057
-0.00453563
0.0025834
0.00236423
0.00207563
0.00174663
0.00138183
0.000982047
0.000549929
8.93281e-05
-0.000395231
-0.000898684
-0.0014156
-0.00194051
-0.00246845
-0.0029957
-0.00352014
-0.00404048
-0.00455669
-0.00508628
-0.00569943
-0.0064412
0.00342904
0.00299217
0.00254538
0.0020653
0.00154641
0.0009889
0.000393101
-0.000240066
-0.000908323
-0.0016078
-0.00233297
-0.0030768
-0.00383128
-0.00458827
-0.00534006
-0.00607876
-0.00680006
-0.00753036
-0.0083662
-0.00932032
0.000219911
0.000653825
0.00108725
0.0015232
0.00196402
0.00241273
0.00287318
0.00335031
0.00385036
0.0043812
0.00495248
0.0055757
0.00626397
0.00703193
0.0078966
0.00887827
0.00999218
0.0112231
0.0124549
0.0135727
0.000236942
0.000702311
0.0011666
0.00163238
0.002101
0.00257413
0.00305355
0.00354112
0.00403891
0.00454942
0.00507593
0.005623
0.00619722
0.0068084
0.00747057
0.00820125
0.00901883
0.00994638
0.011039
0.0123909
0.000243791
0.00072273
0.00120131
0.00168361
0.00217212
0.00266973
0.00317961
0.00370493
0.00424884
0.00481425
0.00540374
0.00601931
0.00666216
0.0073323
0.00802777
0.00874354
0.00947063
0.0101972
0.0109144
0.0116248
0.000233766
0.000692138
0.00114828
0.00160473
0.0020623
0.00252216
0.00298577
0.00345474
0.00393086
0.00441612
0.00491281
0.00542352
0.00595111
0.00649866
0.00706924
0.00766597
0.00829289
0.0089572
0.00967115
0.0104499
0.000223111
0.000661195
0.00109695
0.00153321
0.00197087
0.00241081
0.00285388
0.00330066
0.00375142
0.004206
0.00466381
0.00512371
0.00558393
0.00604196
0.00649443
0.00693743
0.00736743
0.00778205
0.00817683
0.00853843
0.000198769
0.000588337
0.000975034
0.00136053
0.00174477
0.00212786
0.00251012
0.00289187
0.00327344
0.00365509
0.00403703
0.00441935
0.00480196
0.00518458
0.00556678
0.00594816
0.00632826
0.0067053
0.00707344
0.0074279
0.000180393
0.000534729
0.000885907
0.00123544
0.00158314
0.00192871
0.00227186
0.0026121
0.00294878
0.00328096
0.00360749
0.00392695
0.00423766
0.0045377
0.00482498
0.00509723
0.0053518
0.00558618
0.00579969
0.00598806
0.000154361
0.000457027
0.000756958
0.0010551
0.00135093
0.00164399
0.00193396
0.00222051
0.00250327
0.00278184
0.00305573
0.00332436
0.00358707
0.00384304
0.00409132
0.00433079
0.00456014
0.00477697
0.00497656
0.0051571
0.000135877
0.000403062
0.000667382
0.000929533
0.00118895
0.00144497
0.00169695
0.00194421
0.00218594
0.00242129
0.00264927
0.00286882
0.00307883
0.00327811
0.00346546
0.00363965
0.00379951
0.00394432
0.00407406
0.00418658
0.000114147
0.000338249
0.000560158
0.00078037
0.000998297
0.00121334
0.00142501
0.00163281
0.00183623
0.00203476
0.00222784
0.00241489
0.00259525
0.00276824
0.00293308
0.00308894
0.00323476
0.00336904
0.00348949
0.00359594
9.89215e-05
0.000293771
0.000486438
0.000677194
0.000865458
0.00105057
0.0012319
0.00140883
0.00158071
0.00174685
0.00190658
0.00205917
0.00220393
0.00234018
0.00246725
0.00258455
0.00269157
0.00278802
0.00287396
0.00294813
8.28158e-05
0.000245747
0.000407087
0.000567059
0.000725163
0.000880866
0.0010337
0.00118322
0.00132895
0.00147046
0.00160726
0.00173888
0.00186484
0.0019846
0.00209765
0.00220338
0.00230114
0.00239009
0.00246911
0.00253844
7.15396e-05
0.000212771
0.00035248
0.000490712
0.000626987
0.00076076
0.000891526
0.00101879
0.00114206
0.00126085
0.00137466
0.00148304
0.00158552
0.0016817
0.00177119
0.00185365
0.00192879
0.00199645
0.00205667
0.00210864
6.0456e-05
0.000179745
0.000297939
0.000415085
0.000530792
0.00064464
0.000756244
0.000865233
0.000971238
0.00107389
0.00117283
0.00126768
0.00135809
0.00144367
0.00152404
0.00159881
0.00166757
0.00172984
0.00178498
0.00183328
5.27466e-05
0.000157189
0.000260613
0.000362929
0.000463762
0.000562696
0.000659337
0.000753307
0.000844236
0.000931764
0.00101554
0.00109525
0.00117057
0.00124122
0.00130696
0.00136755
0.00142279
0.00147256
0.00151689
0.0015552
4.56637e-05
0.000136107
0.000225817
0.000314714
0.000402492
0.000488829
0.000573414
0.000655949
0.000736137
0.000813685
0.000888305
0.000959709
0.00102761
0.00109174
0.0011518
0.00120753
0.00125865
0.00130484
0.00134574
0.00138153
4.09117e-05
0.000122211
0.000202843
0.000282622
0.000361253
0.000438416
0.000513804
0.000587119
0.000658073
0.000726389
0.000791801
0.000854059
0.000912927
0.000968187
0.00101964
0.0010671
0.0011104
0.00114943
0.00118416
0.0012142
3.69899e-05
0.000110555
0.000183622
0.000256002
0.000327439
0.000397668
0.00046643
0.000533474
0.000598553
0.000661426
0.000721859
0.000779625
0.000834502
0.000886274
0.00093473
0.000979668
0.00102089
0.00105816
0.00109122
0.00112016
3.48294e-05
0.000104278
0.000173247
0.000241468
0.000308672
0.000374584
0.000438936
0.000501469
0.000561937
0.000620107
0.000675762
0.000728702
0.000778744
0.00082573
0.000869521
0.000909996
0.000947058
0.00098066
0.00101084
0.0010375
3.35073e-05
0.000100358
0.000166837
0.000232693
0.000297683
0.000361569
0.000424115
0.000485086
0.00054425
0.000601383
0.000656261
0.000708668
0.000758395
0.00080524
0.000849006
0.000889509
0.000926576
0.000960035
0.000989657
0.0010153
-4.57817e-06
-8.6853e-06
-1.44811e-05
-2.38463e-05
-3.79326e-05
-5.81342e-05
-8.59615e-05
-0.000123018
-0.000171062
-0.000232093
-0.00030834
-0.00040179
-0.000513218
-0.000641783
-0.000784638
-0.000923576
-0.000965896
-0.000698465
-0.000210818
-0.00202009
7.42706e-06
2.64743e-05
4.46341e-05
6.07251e-05
7.41771e-05
8.44565e-05
9.11999e-05
9.43222e-05
9.41489e-05
9.16499e-05
8.89508e-05
9.02636e-05
0.000102972
0.000138879
0.000220027
0.000401809
0.000815211
0.0016237
0.00278449
0.00399338
1.9726e-05
6.26686e-05
0.00010547
0.000147476
0.000188744
0.000229495
0.000270344
0.000312483
0.000357952
0.00041009
0.0004743
0.000559168
0.00067793
0.000851296
0.00111539
0.00153721
0.00221695
0.00322154
0.00450754
0.0060596
3.21752e-05
9.91737e-05
0.000166703
0.000234482
0.000303072
0.000373304
0.000446533
0.000524879
0.000611571
0.000711456
0.000831758
0.000983074
0.00118086
0.00144863
0.00182476
0.0023692
0.00314933
0.00419062
0.00544359
0.00678962
4.45595e-05
0.000135395
0.000227272
0.00032017
0.000415001
0.000513011
0.000616028
0.000726729
0.000848984
0.000988359
0.00115277
0.00135337
0.00160589
0.00193323
0.00236923
0.00295801
0.00373691
0.00470559
0.00580005
0.00686283
5.67019e-05
0.000170862
0.000286377
0.000403384
0.000522978
0.000646622
0.000776345
0.000915006
0.0010666
0.00123667
0.0014328
0.00166532
0.00194836
0.00230167
0.00275219
0.00333073
0.0040569
0.00491598
0.00583484
0.00665995
6.84959e-05
0.000205273
0.000343528
0.000483439
0.00062614
0.000773117
0.000926365
0.00108861
0.00126358
0.00145625
0.00167331
0.00192355
0.00221859
0.0025738
0.00300849
0.00354211
0.00418298
0.00491142
0.00566166
0.00630592
7.98909e-05
0.000238491
0.00039852
0.000560092
0.000724247
0.000892336
0.00106612
0.00124794
0.00144092
0.00164914
0.00187791
0.00213403
0.00242621
0.00276543
0.00316459
0.0036352
0.0041792
0.00477681
0.00537486
0.00587253
9.08912e-05
0.000270539
0.000451423
0.000633507
0.000817631
0.00100489
0.00119666
0.00139473
0.00160143
0.00181973
0.00205338
0.00230706
0.00258649
0.00289856
0.00325068
0.00364848
0.0040906
0.00456086
0.00502031
0.00539041
0.000101543
0.000301565
0.000502525
0.000704172
0.00090707
0.00111197
0.00131977
0.00153159
0.00174885
0.0019733
0.00220707
0.00245271
0.00271319
0.00299185
0.00329176
0.00361425
0.00395617
0.00430532
0.00463394
0.00488051
0.000111927
0.000331817
0.000552282
0.000772823
0.000993687
0.00121524
0.00143784
0.0016619
0.00188787
0.00211626
0.00234759
0.00258237
0.00282106
0.00306388
0.00331027
0.00355824
0.00380357
0.00403721
0.00423794
0.00435621
0.000122139
0.000361586
0.000601228
0.000840318
0.00107878
0.00131658
0.00155355
0.00178938
0.00202358
0.0022554
0.00248382
0.00270741
0.00292431
0.00313193
0.00332659
0.00350348
0.00365727
0.00378004
0.00385181
0.0038315
0.000132276
0.000391162
0.000649889
0.000907493
0.0011636
0.00141784
0.00166955
0.00191778
0.00216116
0.0023978
0.0026252
0.0028401
0.00303836
0.00321468
0.00336227
0.00347349
0.00354136
0.00355669
0.00349586
0.00332457
0.000142415
0.000420779
0.000698686
0.00097502
0.00124916
0.00152047
0.00178794
0.00205006
0.00230476
0.00254923
0.00277969
0.00299128
0.00317774
0.00333103
0.00344107
0.0034968
0.00348805
0.00340104
0.00320348
0.00286523
0.000152614
0.000450596
0.000747904
0.00104335
0.00133611
0.00162541
0.00190995
0.00218788
0.00245663
0.00271268
0.00295139
0.00316671
0.00335073
0.00349312
0.00358077
0.00359889
0.00353206
0.00335689
0.00302489
0.0025027
0.000162919
0.000480719
0.000797714
0.00111277
0.00142493
0.00173333
0.00203649
0.00233227
0.0026177
0.00288877
0.00314021
0.00336519
0.00355486
0.00369762
0.00377879
0.0037811
0.00368331
0.00344799
0.00300214
0.00229787
0.000173383
0.000511204
0.000848192
0.00118352
0.00151618
0.00184526
0.00216921
0.00248562
0.00279107
0.00308093
0.00334914
0.00358797
0.00378764
0.0039358
0.00401742
0.00401475
0.00390309
0.00363415
0.00311651
0.00228882
0.00018397
0.000541944
0.000899215
0.00125562
0.00161025
0.00196241
0.0023107
0.00265272
0.00298475
0.00330151
0.00359587
0.00385852
0.00407755
0.00423814
0.00432261
0.00431035
0.00417321
0.00386278
0.00330618
0.00246202
0.000194146
0.000572391
0.000950118
0.00132811
0.00170602
0.00208381
0.0024609
0.00283573
0.0032054
0.00356518
0.003908
0.00422378
0.00449849
0.00471304
0.00484226
0.00485358
0.00470421
0.00434371
0.0037485
0.0029836
0.000202713
0.000601428
0.000999025
0.00139778
0.00179851
0.00220223
0.00260985
0.00302191
0.0034382
0.00385733
0.00427599
0.00468791
0.00508231
0.00544199
0.00574121
0.0059442
0.00600523
0.00587244
0.00548368
0.00468225
-5.3464e-05
-0.000148983
-0.000250102
-0.000354201
-0.000463318
-0.000578507
-0.000700826
-0.000831055
-0.00096955
-0.00111596
-0.0012688
-0.00142502
-0.00157961
-0.00172585
-0.00185681
-0.00196955
-0.00207407
-0.00218903
-0.00229332
-0.0026375
-5.53416e-05
-0.000154633
-0.000259755
-0.000368401
-0.000482842
-0.000604412
-0.000734502
-0.0008743
-0.00102464
-0.00118573
-0.0013567
-0.00153501
-0.00171594
-0.00189251
-0.00205666
-0.00220348
-0.00234064
-0.00248424
-0.00261129
-0.00288004
-5.70266e-05
-0.00015943
-0.000268044
-0.000380709
-0.000499968
-0.000627453
-0.000764914
-0.000913981
-0.00107603
-0.00125189
-0.00144141
-0.00164274
-0.00185159
-0.00206083
-0.00226117
-0.00244486
-0.00261515
-0.00278462
-0.00293212
-0.00316257
-5.8417e-05
-0.000163293
-0.000274772
-0.000390842
-0.000514306
-0.000647115
-0.000791395
-0.000949246
-0.00112263
-0.00131309
-0.00152129
-0.00174622
-0.0019842
-0.00222807
-0.00246727
-0.00269049
-0.00289517
-0.00308992
-0.0032566
-0.00348
-5.94514e-05
-0.000166114
-0.000279747
-0.000398509
-0.000525456
-0.000662861
-0.000813242
-0.000979193
-0.0011633
-0.00136789
-0.00159457
-0.00184329
-0.00211119
-0.00239133
-0.00267191
-0.00293768
-0.0031794
-0.00340107
-0.003587
-0.00381823
-6.00884e-05
-0.000167783
-0.000282776
-0.000403423
-0.000533014
-0.00067415
-0.00082974
-0.00100289
-0.00119685
-0.00141478
-0.00165932
-0.0019316
-0.00222981
-0.00254751
-0.00287189
-0.00318379
-0.00346673
-0.00371901
-0.00392612
-0.00417484
-6.029e-05
-0.000168191
-0.000283674
-0.000405303
-0.000536587
-0.000680443
-0.000840172
-0.0010194
-0.00122204
-0.00145217
-0.00171356
-0.00200867
-0.00233705
-0.00269319
-0.00306373
-0.00342586
-0.00375575
-0.00404436
-0.00427593
-0.00455107
-6.00214e-05
-0.000167237
-0.000282265
-0.000403885
-0.000535799
-0.000681224
-0.000843837
-0.00102777
-0.00123763
-0.00147843
-0.00175517
-0.00207183
-0.00242966
-0.00282458
-0.00324338
-0.00366025
-0.00404427
-0.00437728
-0.00463755
-0.00494935
-5.92512e-05
-0.000164832
-0.000278392
-0.000398929
-0.000530302
-0.000676008
-0.000840069
-0.0010271
-0.00124241
-0.00149193
-0.00178198
-0.00211826
-0.00250408
-0.00293744
-0.00340611
-0.0038823
-0.004329
-0.00471718
-0.00501135
-0.00537325
-5.79527e-05
-0.000160899
-0.000271918
-0.000390225
-0.000519794
-0.000664362
-0.000828259
-0.00101655
-0.00123518
-0.00149104
-0.00179179
-0.00214501
-0.00255647
-0.00302694
-0.00354625
-0.00408606
-0.00460506
-0.00506233
-0.00539669
-0.00582744
-5.61048e-05
-0.000155377
-0.000262738
-0.000377605
-0.000504023
-0.00064592
-0.00080788
-0.000995355
-0.00121487
-0.00147422
-0.00178241
-0.00214902
-0.00258264
-0.00308762
-0.00365701
-0.00426387