x,y,z,U_0,U_1,U_2
0,0,0,0.3,-0.000180821,0
0,0.1,0,0.3,-0.000129158,0
0,0.2,0,0.3,-7.74947e-05,0
0,0.3,0,0.3,-2.58316e-05,0
0,0.4,0,0.3,0,0
0,0.5,0,0.3,0,0
0,0.6,0,0.3,0,0
0,0.7,0,0.3,0,0
0,0.8,0,0.3,0,0
0,0.9,0,0.3,0,0
0,1,0,0.3,0,0
0,1.1,0,0.3,0,0
0,1.2,0,0.3,0,0
0,1.3,0,0.3,0,0
0,1.4,0,0.3,0,0
0,1.5,0,0.3,0,0
0,1.6,0,0.3,0,0
0,1.7,0,0.3,0,0
0,1.8,0,0.3,0,0
0,1.9,0,0.3,0,0
0,2,0,0.3,0,0
0,2.1,0,0.3,0,0
0,2.2,0,0.3,0,0
0,2.3,0,0.3,0,0
0,2.4,0,0.3,0,0
0,2.5,0,0.3,0,0
0,2.6,0,0.3,0,0
0,2.7,0,0.3,0,0
0,2.8,0,0.3,0,0
0,2.9,0,0.3,0,0
0,3,0,0.3,0,0
0,3.1,0,0.3,0,0
0,3.2,0,0.3,0,0
0,3.3,0,0.3,0,0
0,3.4,0,0.3,0,0
0,3.5,0,0.3,0,0
0,3.6,0,0.3,0,0
0,3.7,0,0.3,0,0
0,3.8,0,0.3,0,0
0,3.9,0,0.3,0,0
0,4,0,0.3,0,0
0,4.1,0,0.3,0,0
0,4.2,0,0.3,0,0
0,4.3,0,0.3,0,0
0,4.4,0,0.3,0,0
0,4.5,0,0.3,0,0
0,4.6,0,0.3,0,0
0,4.7,0,0.3,0,0
0,4.8,0,0.3,0,0
0,4.9,0,0.3,0,0
0,5,0,0.3,0,0
0,5.1,0,0.3,0,0
0,5.2,0,0.3,0,0
0,5.3,0,0.3,0,0
0,5.4,0,0.3,0,0
0,5.5,0,0.3,0,0
0,5.6,0,0.3,0,0
0,5.7,0,0.3,0,0
0,5.8,0,0.3,0,0
0,5.9,0,0.3,0,0
0,6,0,0.3,0,0
0,6.1,0,0.3,0,0
0,6.2,0,0.3,0,0
0,6.3,0,0.3,0,0
0,6.4,0,0.3,0,0
0,6.5,0,0.3,0,0
0,6.6,0,0.3,0,0
0,6.7,0,0.3,0,0
0,6.8,0,0.3,0,0
0,6.9,0,0.3,0,0
0,7,0,0.3,0,0
0,7.1,0,0.3,0,0
0,7.2,0,0.3,0,0
0,7.3,0,0.3,0,0
0,7.4,0,0.3,0,0
0,7.5,0,0.3,0,0
0,7.6,0,0.3,0,0
0,7.7,0,0.3,0,0
0,7.8,0,0.3,0,0
0,7.9,0,0.3,0,0
0,8,0,0.3,0,0
0,8.1,0,0.3,0,0
0,8.2,0,0.3,0,0
0,8.3,0,0.3,0,0
0,8.4,0,0.3,0,0
0,8.5,0,0.3,0,0
0,8.6,0,0.3,0,0
0,8.7,0,0.3,0,0
0,8.8,0,0.3,0,0
0,8.9,0,0.3,0,0
0,9,0,0.3,0,0
0,9.1,0,0.3,0,0
0,9.2,0,0.3,0,0
0,9.3,0,0.3,0,0
0,9.4,0,0.3,0,0
0,9.5,0,0.3,0,0
0,9.6,0,0.3,0,0
0,9.7,0,0.3,0,0
0,9.8,0,0.3,0,0
0,9.9,0,0.3,0,0
0,10,0,0.3,0,0
0,10.1,0,0.3,0,0
0,10.2,0,0.3,0,0
0,10.3,0,0.3,0,0
0,10.4,0,0.3,0,0
0,10.5,0,0.3,0,0
0,10.6,0,0.3,0,0
0,10.7,0,0.3,0,0
0,10.8,0,0.3,0,0
0,10.9,0,0.3,0,0
0,11,0,0.3,0,0
0,11.1,0,0.3,0,0
0,11.2,0,0.3,0,0
0,11.3,0,0.3,0,0
0,11.4,0,0.3,0,0
0,11.5,0,0.3,0,0
0,11.6,0,0.3,0,0
0,11.7,0,0.3,0,0
0,11.8,0,0.3,0,0
0,11.9,0,0.3,0,0
0,12,0,0.3,0,0
0,12.1,0,0.3,0,0
0,12.2,0,0.3,0,0
0,12.3,0,0.3,0,0
0,12.4,0,0.3,0,0
0,12.5,0,0.3,2.49214e-05,0
0,12.6,0,0.299999,9.61253e-05,0
0,12.7,0,0.299999,0.000167329,0
0.1,0,0,0.3,-0.000274853,0
0.1,0.1,0,0.300001,-0.000219609,0
0.1,0.2,0,0.3,-0.000167946,0
0.1,0.3,0,0.3,-0.000118495,0
0.1,0.4,0,0.3,-0.000117581,0
0.1,0.5,0,0.3,-0.000117286,0
0.1,0.6,0,0.3,-0.000117286,0
0.1,0.7,0,0.299998,-0.000120204,0
0.1,0.8,0,0.3,-0.000115414,0
0.1,0.9,0,0.3,-0.000115414,0
0.1,1,0,0.3,-0.000115615,0
0.1,1.1,0,0.3,-0.000113057,0
0.1,1.2,0,0.3,-0.00011266,0
0.1,1.3,0,0.3,-0.00011266,0
0.1,1.4,0,0.299997,-0.000115474,0
0.1,1.5,0,0.3,-0.00010902,0
0.1,1.6,0,0.3,-0.00010902,0
0.1,1.7,0,0.299999,-0.000109232,0
0.1,1.8,0,0.299999,-0.000105035,0
0.1,1.9,0,0.299999,-0.0001045,0
0.1,2,0,0.299999,-0.0001045,0
0.1,2.1,0,0.299995,-0.000107784,0
0.1,2.2,0,0.299999,-9.91126e-05,0
0.1,2.3,0,0.299999,-9.91126e-05,0
0.1,2.4,0,0.299999,-9.93811e-05,0
0.1,2.5,0,0.299998,-9.36042e-05,0
0.1,2.6,0,0.299999,-9.28914e-05,0
0.1,2.7,0,0.299999,-9.28914e-05,0
0.1,2.8,0,0.299994,-9.72713e-05,0
0.1,2.9,0,0.299998,-8.58997e-05,0
0.1,3,0,0.299998,-8.58997e-05,0
0.1,3.1,0,0.299998,-8.62643e-05,0
0.1,3.2,0,0.299997,-7.9156e-05,0
0.1,3.3,0,0.299997,-7.82446e-05,0
0.1,3.4,0,0.299997,-7.82446e-05,0
0.1,3.5,0,0.299993,-8.40846e-05,0
0.1,3.6,0,0.299996,-7.00877e-05,0
0.1,3.7,0,0.299996,-7.00877e-05,0
0.1,3.8,0,0.299996,-7.05476e-05,0
0.1,3.9,0,0.299995,-6.27133e-05,0
0.1,4,0,0.299995,-6.16508e-05,0
0.1,4.1,0,0.299995,-6.16508e-05,0
0.1,4.2,0,0.299992,-6.83329e-05,0
0.1,4.3,0,0.299994,-5.3208e-05,0
0.1,4.4,0,0.299994,-5.3208e-05,0
0.1,4.5,0,0.299994,-5.36576e-05,0
0.1,4.6,0,0.299993,-4.60827e-05,0
0.1,4.7,0,0.299993,-4.50505e-05,0
0.1,4.8,0,0.299993,-4.50505e-05,0
0.1,4.9,0,0.299992,-5.00284e-05,0
0.1,5,0,0.299994,-3.74182e-05,0
0.1,5.1,0,0.299994,-3.74182e-05,0
0.1,5.2,0,0.299993,-3.75965e-05,0
0.1,5.3,0,0.299995,-3.10797e-05,0
0.1,5.4,0,0.299996,-3.04001e-05,0
0.1,5.5,0,0.299996,-3.04001e-05,0
0.1,5.6,0,0.299991,-2.91966e-05,0
0.1,5.7,0,0.300001,-2.38418e-05,0
0.1,5.8,0,0.300001,-2.38418e-05,0
0.1,5.9,0,0.3,-2.34217e-05,0
0.1,6,0,0.300008,-1.73374e-05,0
0.1,6.1,0,0.300009,-1.72895e-05,0
0.1,6.2,0,0.300009,-1.72895e-05,0
0.1,6.3,0,0.299989,-6.30877e-06,0
0.1,6.4,0,0.30002,-9.96037e-06,0
0.1,6.5,0,0.30002,-9.96037e-06,0
0.1,6.6,0,0.300017,-8.84469e-06,0
0.1,6.7,0,0.300029,-1.52983e-06,0
0.1,6.8,0,0.300032,-2.08282e-06,0
0.1,6.9,0,0.300032,-2.08282e-06,0
0.1,7,0,0.299986,1.52889e-05,0
0.1,7.1,0,0.299985,2.02281e-05,0
0.1,7.2,0,0.299985,2.31866e-05,0
0.1,7.3,0,0.299984,2.61164e-05,0
0.1,7.4,0,0.299984,2.90375e-05,0
0.1,7.5,0,0.299984,3.19465e-05,0
0.1,7.6,0,0.299984,3.48405e-05,0
0.1,7.7,0,0.299984,3.77171e-05,0
0.1,7.8,0,0.299984,4.05747e-05,0
0.1,7.9,0,0.299984,4.34262e-05,0
0.1,8,0,0.299984,4.72841e-05,0
0.1,8.1,0,0.300051,5.48545e-05,0
0.1,8.2,0,0.300049,5.4807e-05,0
0.1,8.3,0,0.300047,6.28505e-05,0
0.1,8.4,0,0.300047,6.28505e-05,0
0.1,8.5,0,0.300032,6.83556e-05,0
0.1,8.6,0,0.300041,6.99529e-05,0
0.1,8.7,0,0.299996,6.79859e-05,0
0.1,8.8,0,0.300033,7.60877e-05,0
0.1,8.9,0,0.300033,7.60877e-05,0
0.1,9,0,0.300024,8.11209e-05,0
0.1,9.1,0,0.300024,8.11209e-05,0
0.1,9.2,0,0.300008,8.39505e-05,0
0.1,9.3,0,0.300015,8.51006e-05,0
0.1,9.4,0,0.299999,8.71224e-05,0
0.1,9.5,0,0.300007,8.81711e-05,0
0.1,9.6,0,0.300007,8.81711e-05,0
0.1,9.7,0,0.299999,9.05342e-05,0
0.1,9.8,0,0.299999,9.05342e-05,0
0.1,9.9,0,0.299994,9.57977e-05,0
0.1,10,0,0.299994,9.24231e-05,0
0.1,10.1,0,0.299995,0.000100023,0
0.1,10.2,0,0.299989,9.4068e-05,0
0.1,10.3,0,0.299989,9.4068e-05,0
0.1,10.4,0,0.299987,9.56612e-05,0
0.1,10.5,0,0.299987,9.56612e-05,0
0.1,10.6,0,0.299992,0.000107589,0
0.1,10.7,0,0.299986,9.73348e-05,0
0.1,10.8,0,0.299991,0.00010694,0
0.1,10.9,0,0.299986,9.9152e-05,0
0.1,11,0,0.299986,9.9152e-05,0
0.1,11.1,0,0.299988,0.00010111,0
0.1,11.2,0,0.299988,0.00010111,0
0.1,11.3,0,0.299995,0.000119151,0
0.1,11.4,0,0.29999,0.000103154,0
0.1,11.5,0,0.299992,0.000110744,0
0.1,11.6,0,0.299992,0.000105193,0
0.1,11.7,0,0.299992,0.000105193,0
0.1,11.8,0,0.299994,0.000107115,0
0.1,11.9,0,0.299994,0.000107115,0
0.1,12,0,0.299997,0.000128235,0
0.1,12.1,0,0.299997,0.000108819,0
0.1,12.2,0,0.299997,0.000112845,0
0.1,12.3,0,0.299998,0.000110242,0
0.1,12.4,0,0.299998,0.000110242,0
0.1,12.5,0,0.299999,0.000111963,0
0.1,12.6,0,0.299998,0.000181646,0
0.1,12.7,0,0.299998,0.000274985,0
0.2,0,0,0.299999,-0.000368885,0
0.2,0.1,0,0.300001,-0.000310571,0
0.2,0.2,0,0.300001,-0.000258397,0
0.2,0.3,0,0.299999,-0.000239923,0
0.2,0.4,0,0.299999,-0.000239009,0
0.2,0.5,0,0.300001,-0.000234571,0
0.2,0.6,0,0.3,-0.000234988,0
0.2,0.7,0,0.299997,-0.000240408,0
0.2,0.8,0,0.3,-0.000231513,0
0.2,0.9,0,0.3,-0.000230829,0
0.2,1,0,0.299997,-0.000233833,0
0.2,1.1,0,0.299997,-0.000231275,0
0.2,1.2,0,0.3,-0.00022532,0
0.2,1.3,0,0.3,-0.000225722,0
0.2,1.4,0,0.299994,-0.000230948,0
0.2,1.5,0,0.299999,-0.000218962,0
0.2,1.6,0,0.299999,-0.00021804,0
0.2,1.7,0,0.299995,-0.000221223,0
0.2,1.8,0,0.299995,-0.000217025,0
0.2,1.9,0,0.299999,-0.000208999,0
0.2,2,0,0.299998,-0.000209469,0
0.2,2.1,0,0.299991,-0.000215568,0
0.2,2.2,0,0.299998,-0.000199464,0
0.2,2.3,0,0.299998,-0.000198225,0
0.2,2.4,0,0.299993,-0.000202252,0
0.2,2.5,0,0.299993,-0.000196475,0
0.2,2.6,0,0.299998,-0.000185783,0
0.2,2.7,0,0.299997,-0.000186408,0
0.2,2.8,0,0.299988,-0.000194543,0
0.2,2.9,0,0.299996,-0.000173424,0
0.2,3,0,0.299996,-0.000171799,0
0.2,3.1,0,0.299991,-0.000177268,0
0.2,3.2,0,0.29999,-0.00017016,0
0.2,3.3,0,0.299994,-0.000156489,0
0.2,3.4,0,0.299994,-0.000157324,0
0.2,3.5,0,0.299986,-0.000168169,0
0.2,3.6,0,0.299992,-0.000142175,0
0.2,3.7,0,0.299993,-0.000140175,0
0.2,3.8,0,0.299988,-0.000147074,0
0.2,3.9,0,0.299987,-0.000139239,0
0.2,4,0,0.29999,-0.000123302,0
0.2,4.1,0,0.29999,-0.000124256,0
0.2,4.2,0,0.299984,-0.000136666,0
0.2,4.3,0,0.299987,-0.000108577,0
0.2,4.4,0,0.299988,-0.000106416,0
0.2,4.5,0,0.299986,-0.00011316,0
0.2,4.6,0,0.299985,-0.000105585,0
0.2,4.7,0,0.299986,-9.01009e-05,0
0.2,4.8,0,0.299986,-9.08121e-05,0
0.2,4.9,0,0.299984,-0.000100057,0
0.2,5,0,0.299987,-7.66378e-05,0
0.2,5.1,0,0.299987,-7.48363e-05,0
0.2,5.2,0,0.299985,-7.75115e-05,0
0.2,5.3,0,0.299987,-7.09947e-05,0
0.2,5.4,0,0.299991,-6.08002e-05,0
0.2,5.5,0,0.299991,-6.06283e-05,0
0.2,5.6,0,0.299983,-5.83932e-05,0
0.2,5.7,0,0.3,-4.84486e-05,0
0.2,5.8,0,0.300002,-4.76836e-05,0
0.2,5.9,0,0.299991,-4.13819e-05,0
0.2,6,0,0.299998,-3.52976e-05,0
0.2,6.1,0,0.300018,-3.4579e-05,0
0.2,6.2,0,0.300015,-3.30103e-05,0
0.2,6.3,0,0.299978,-1.26175e-05,0
0.2,6.4,0,0.300035,-1.93991e-05,0
0.2,6.5,0,0.300039,-1.99207e-05,0
0.2,6.6,0,0.300005,-3.18555e-06,0
0.2,6.7,0,0.300016,4.12932e-06,0
0.2,6.8,0,0.300063,-4.16565e-06,0
0.2,6.9,0,0.300057,-1.68398e-06,0
0.2,7,0,0.299972,3.05778e-05,0
0.2,7.1,0,0.29997,4.04563e-05,0
0.2,7.2,0,0.299969,4.63733e-05,0
0.2,7.3,0,0.299969,5.22328e-05,0
0.2,7.4,0,0.299968,5.80749e-05,0
0.2,7.5,0,0.299968,6.38931e-05,0
0.2,7.6,0,0.299968,6.96809e-05,0
0.2,7.7,0,0.299968,7.54342e-05,0
0.2,7.8,0,0.299968,8.11493e-05,0
0.2,7.9,0,0.299968,8.68524e-05,0
0.2,8,0,0.299969,9.45682e-05,0
0.2,8.1,0,0.300103,0.000109709,0
0.2,8.2,0,0.300035,0.000108174,0
0.2,8.3,0,0.300082,0.000123784,0
0.2,8.4,0,0.300091,0.000125555,0
0.2,8.5,0,0.300019,0.000128925,0
0.2,8.6,0,0.300082,0.000139906,0
0.2,8.7,0,0.299984,0.000135656,0
0.2,8.8,0,0.300066,0.000152175,0
0.2,8.9,0,0.300028,0.000150859,0
0.2,9,0,0.300037,0.000160027,0
0.2,9.1,0,0.300049,0.000162242,0
0.2,9.2,0,0.3,0.000165323,0
0.2,9.3,0,0.300031,0.000170201,0
0.2,9.4,0,0.299992,0.000175018,0
0.2,9.5,0,0.300014,0.000176342,0
0.2,9.6,0,0.300004,0.000180834,0
0.2,9.7,0,0.299996,0.000182784,0
0.2,9.8,0,0.299999,0.000181068,0
0.2,9.9,0,0.29999,0.000195773,0
0.2,10,0,0.299987,0.000184846,0
0.2,10.1,0,0.299991,0.000205435,0
0.2,10.2,0,0.299978,0.000188136,0
0.2,10.3,0,0.299983,0.000198203,0
0.2,10.4,0,0.29998,0.000200406,0
0.2,10.5,0,0.299974,0.000191322,0
0.2,10.6,0,0.299989,0.000222449,0
0.2,10.7,0,0.299972,0.00019467,0
0.2,10.8,0,0.299988,0.000225771,0
0.2,10.9,0,0.299973,0.000198304,0
0.2,11,0,0.299978,0.000209384,0
0.2,11.1,0,0.299983,0.000218223,0
0.2,11.2,0,0.299976,0.000202221,0
0.2,11.3,0,0.299992,0.000244418,0
0.2,11.4,0,0.29998,0.000206308,0
0.2,11.5,0,0.299989,0.000238501,0
0.2,11.6,0,0.299985,0.000210385,0
0.2,11.7,0,0.299986,0.000218756,0
0.2,11.8,0,0.299991,0.000234486,0
0.2,11.9,0,0.299989,0.000214231,0
0.2,12,0,0.299995,0.000259587,0
0.2,12.1,0,0.299993,0.000217638,0
0.2,12.2,0,0.299995,0.000245316,0
0.2,12.3,0,0.299996,0.000221904,0
0.2,12.4,0,0.299996,0.000225117,0
0.2,12.5,0,0.299998,0.000245121,0
0.2,12.6,0,0.299998,0.000267167,0
0.2,12.7,0,0.299997,0.00038264,0
0.3,0,0,0.299999,-0.000462917,0
0.3,0.1,0,0.3,-0.000404603,0
0.3,0.2,0,0.300001,-0.000355485,0
0.3,0.3,0,0.299998,-0.000361351,0
0.3,0.4,0,0.299998,-0.000360437,0
0.3,0.5,0,0.300001,-0.000352744,0
0.3,0.6,0,0.299999,-0.000355192,0
0.3,0.7,0,0.299995,-0.000360612,0
0.3,0.8,0,0.299998,-0.000351717,0
0.3,0.9,0,0.299999,-0.000346844,0
0.3,1,0,0.299995,-0.000352051,0
0.3,1.1,0,0.299995,-0.000349493,0
0.3,1.2,0,0.299999,-0.000339171,0
0.3,1.3,0,0.299996,-0.000341196,0
0.3,1.4,0,0.29999,-0.000346423,0
0.3,1.5,0,0.299996,-0.000334436,0
0.3,1.6,0,0.299998,-0.000327697,0
0.3,1.7,0,0.299991,-0.000333214,0
0.3,1.8,0,0.299991,-0.000329016,0
0.3,1.9,0,0.299997,-0.000315104,0
0.3,2,0,0.299993,-0.000317252,0
0.3,2.1,0,0.299986,-0.000323352,0
0.3,2.2,0,0.299993,-0.000307248,0
0.3,2.3,0,0.299996,-0.000298143,0
0.3,2.4,0,0.299988,-0.000305123,0
0.3,2.5,0,0.299988,-0.000299346,0
0.3,2.6,0,0.299995,-0.000280813,0
0.3,2.7,0,0.299991,-0.00028368,0
0.3,2.8,0,0.299982,-0.000291814,0
0.3,2.9,0,0.29999,-0.000270695,0
0.3,3,0,0.299993,-0.000258793,0
0.3,3.1,0,0.299984,-0.000268271,0
0.3,3.2,0,0.299983,-0.000261163,0
0.3,3.3,0,0.299991,-0.000237468,0
0.3,3.4,0,0.299987,-0.000241408,0
0.3,3.5,0,0.299978,-0.000252254,0
0.3,3.6,0,0.299985,-0.00022626,0
0.3,3.7,0,0.299988,-0.000211643,0
0.3,3.8,0,0.299981,-0.0002236,0
0.3,3.9,0,0.29998,-0.000215766,0
0.3,4,0,0.299985,-0.00018814,0
0.3,4.1,0,0.299982,-0.000192589,0
0.3,4.2,0,0.299976,-0.000204999,0
0.3,4.3,0,0.29998,-0.00017691,0
0.3,4.4,0,0.299981,-0.000160973,0
0.3,4.5,0,0.299978,-0.000172662,0
0.3,4.6,0,0.299977,-0.000165087,0
0.3,4.7,0,0.299979,-0.000138248,0
0.3,4.8,0,0.299978,-0.00014084,0
0.3,4.9,0,0.299976,-0.000150085,0
0.3,5,0,0.299979,-0.000126666,0
0.3,5.1,0,0.29998,-0.00011279,0
0.3,5.2,0,0.299977,-0.000117427,0
0.3,5.3,0,0.299979,-0.00011091,0
0.3,5.4,0,0.299986,-9.32392e-05,0
0.3,5.5,0,0.299982,-8.98248e-05,0
0.3,5.6,0,0.299974,-8.75898e-05,0
0.3,5.7,0,0.299992,-7.76452e-05,0
0.3,5.8,0,0.300001,-7.02651e-05,0
0.3,5.9,0,0.299981,-5.93421e-05,0
0.3,6,0,0.299989,-5.32578e-05,0
0.3,6.1,0,0.300023,-5.20122e-05,0
0.3,6.2,0,0.300004,-3.9319e-05,0
0.3,6.3,0,0.299967,-1.89263e-05,0
0.3,6.4,0,0.300024,-2.57078e-05,0
0.3,6.5,0,0.300052,-2.65341e-05,0
0.3,6.6,0,0.299992,2.4736e-06,0
0.3,6.7,0,0.300003,9.78846e-06,0
0.3,6.8,0,0.300086,-4.58948e-06,0
0.3,6.9,0,0.300043,1.36049e-05,0
0.3,7,0,0.299958,4.58667e-05,0
0.3,7.1,0,0.299955,6.06844e-05,0
0.3,7.2,0,0.299954,6.95599e-05,0
0.3,7.3,0,0.299953,7.83491e-05,0
0.3,7.4,0,0.299952,8.71124e-05,0
0.3,7.5,0,0.299952,9.58396e-05,0
0.3,7.6,0,0.299951,0.000104521,0
0.3,7.7,0,0.299951,0.000113151,0
0.3,7.8,0,0.299952,0.000121724,0
0.3,7.9,0,0.299952,0.000130279,0
0.3,8,0,0.299953,0.000141852,0
0.3,8.1,0,0.300138,0.000162792,0
0.3,8.2,0,0.30002,0.00016154,0
0.3,8.3,0,0.300067,0.000177151,0
0.3,8.4,0,0.300078,0.000186124,0
0.3,8.5,0,0.300005,0.000189493,0
0.3,8.6,0,0.300119,0.00020964,0
0.3,8.7,0,0.299972,0.000203326,0
0.3,8.8,0,0.300083,0.000225129,0
0.3,8.9,0,0.300018,0.000225473,0
0.3,9,0,0.300027,0.000234641,0
0.3,9.1,0,0.300043,0.000243596,0
0.3,9.2,0,0.299991,0.000246696,0
0.3,9.3,0,0.300046,0.000255302,0
0.3,9.4,0,0.299985,0.000262913,0
0.3,9.5,0,0.300013,0.000264372,0
0.3,9.6,0,0.299999,0.000274952,0
0.3,9.7,0,0.299991,0.000276902,0
0.3,9.8,0,0.299995,0.000279035,0
0.3,9.9,0,0.299985,0.000295749,0
0.3,10,0,0.299981,0.000277269,0
0.3,10.1,0,0.299987,0.000310847,0
0.3,10.2,0,0.299972,0.000289566,0
0.3,10.3,0,0.299979,0.000308586,0
0.3,10.4,0,0.299976,0.000310789,0
0.3,10.5,0,0.299967,0.000299443,0
0.3,10.6,0,0.299986,0.00033731,0
0.3,10.7,0,0.299958,0.000292004,0
0.3,10.8,0,0.299984,0.000344602,0
0.3,10.9,0,0.299967,0.000312948,0
0.3,11,0,0.299975,0.000331681,0
0.3,11.1,0,0.299979,0.00034052,0
0.3,11.2,0,0.299969,0.000315667,0
0.3,11.3,0,0.299989,0.000369684,0
0.3,11.4,0,0.29997,0.000309462,0
0.3,11.5,0,0.299986,0.000366258,0
0.3,11.6,0,0.299981,0.000336462,0
0.3,11.7,0,0.299984,0.000348538,0
0.3,11.8,0,0.299989,0.000364267,0
0.3,11.9,0,0.299985,0.00033037,0
0.3,12,0,0.299993,0.000390938,0
0.3,12.1,0,0.29999,0.000328615,0
0.3,12.2,0,0.299993,0.000377786,0
0.3,12.3,0,0.299994,0.000354375,0
0.3,12.4,0,0.299995,0.000358275,0
0.3,12.5,0,0.299996,0.000378279,0
0.3,12.6,0,0.299997,0.000357869,0
0.3,12.7,0,0.299996,0.000490295,0
0.4,0,0,0.299998,-0.000556948,0
0.4,0.1,0,0.299999,-0.000498635,0
0.4,0.2,0,0.3,-0.000477936,0
0.4,0.3,0,0.299998,-0.000482779,0
0.4,0.4,0,0.299998,-0.000481865,0
0.4,0.5,0,0.299999,-0.000475006,0
0.4,0.6,0,0.299997,-0.000475396,0
0.4,0.7,0,0.299993,-0.000480816,0
0.4,0.8,0,0.299996,-0.000471921,0
0.4,0.9,0,0.299997,-0.000466431,0
0.4,1,0,0.299992,-0.000470269,0
0.4,1.1,0,0.299992,-0.000467711,0
0.4,1.2,0,0.299996,-0.000458193,0
0.4,1.3,0,0.299993,-0.00045667,0
0.4,1.4,0,0.299987,-0.000461897,0
0.4,1.5,0,0.299993,-0.00044991,0
0.4,1.6,0,0.299993,-0.000441531,0
0.4,1.7,0,0.299987,-0.000445204,0
0.4,1.8,0,0.299987,-0.000441007,0
0.4,1.9,0,0.299992,-0.000428033,0
0.4,2,0,0.299989,-0.000425036,0
0.4,2.1,0,0.299981,-0.000431135,0
0.4,2.2,0,0.299988,-0.000415032,0
0.4,2.3,0,0.29999,-0.000403492,0
0.4,2.4,0,0.299982,-0.000407994,0
0.4,2.5,0,0.299982,-0.000402217,0
0.4,2.6,0,0.299989,-0.000384935,0
0.4,2.7,0,0.299985,-0.000380951,0
0.4,2.8,0,0.299976,-0.000389085,0
0.4,2.9,0,0.299983,-0.000367967,0
0.4,3,0,0.299985,-0.000353045,0
0.4,3.1,0,0.299978,-0.000359275,0
0.4,3.2,0,0.299977,-0.000352167,0
0.4,3.3,0,0.299983,-0.00033014,0
0.4,3.4,0,0.299979,-0.000325493,0
0.4,3.5,0,0.299971,-0.000336338,0
0.4,3.6,0,0.299978,-0.000310344,0
0.4,3.7,0,0.299979,-0.000292168,0
0.4,3.8,0,0.299973,-0.000300126,0
0.4,3.9,0,0.299972,-0.000292292,0
0.4,4,0,0.299976,-0.000266575,0
0.4,4.1,0,0.299974,-0.000260922,0
0.4,4.2,0,0.299968,-0.000273332,0
0.4,4.3,0,0.299972,-0.000245242,0
0.4,4.4,0,0.299973,-0.000224796,0
0.4,4.5,0,0.29997,-0.000232164,0
0.4,4.6,0,0.299969,-0.000224589,0
0.4,4.7,0,0.299971,-0.000199173,0
0.4,4.8,0,0.29997,-0.000190869,0
0.4,4.9,0,0.299968,-0.000200114,0
0.4,5,0,0.299971,-0.000176695,0
0.4,5.1,0,0.299971,-0.000156307,0
0.4,5.2,0,0.299969,-0.000157342,0
0.4,5.3,0,0.299971,-0.000150825,0
0.4,5.4,0,0.299977,-0.00013281,0
0.4,5.5,0,0.299973,-0.000119021,0
0.4,5.6,0,0.299965,-0.000116786,0
0.4,5.7,0,0.299983,-0.000106842,0
0.4,5.8,0,0.299988,-8.97553e-05,0
0.4,5.9,0,0.299972,-7.73024e-05,0
0.4,6,0,0.299979,-7.1218e-05,0
0.4,6.1,0,0.300008,-6.6835e-05,0
0.4,6.2,0,0.299993,-4.56278e-05,0
0.4,6.3,0,0.299957,-2.52351e-05,0
0.4,6.4,0,0.300013,-3.20166e-05,0
0.4,6.5,0,0.300031,-1.98316e-05,0
0.4,6.6,0,0.29998,8.13274e-06,0
0.4,6.7,0,0.299991,1.54476e-05,0
0.4,6.8,0,0.30006,6.03301e-06,0
0.4,6.9,0,0.300029,2.88938e-05,0
0.4,7,0,0.299944,6.11556e-05,0
0.4,7.1,0,0.299941,8.09126e-05,0
0.4,7.2,0,0.299939,9.27465e-05,0
0.4,7.3,0,0.299937,0.000104466,0
0.4,7.4,0,0.299936,0.00011615,0
0.4,7.5,0,0.299936,0.000127786,0
0.4,7.6,0,0.299935,0.000139362,0
0.4,7.7,0,0.299935,0.000150868,0
0.4,7.8,0,0.299936,0.000162299,0
0.4,7.9,0,0.299936,0.000173705,0
0.4,8,0,0.299938,0.000189136,0
0.4,8.1,0,0.300105,0.00020968,0
0.4,8.2,0,0.300005,0.000214907,0
0.4,8.3,0,0.300053,0.000230517,0
0.4,8.4,0,0.300064,0.000246693,0
0.4,8.5,0,0.299992,0.000250062,0
0.4,8.6,0,0.300085,0.000273517,0
0.4,8.7,0,0.29996,0.000270997,0
0.4,8.8,0,0.300066,0.000292611,0
0.4,8.9,0,0.300007,0.000300087,0
0.4,9,0,0.300017,0.000309255,0
0.4,9.1,0,0.300034,0.000324969,0
0.4,9.2,0,0.299983,0.000328069,0
0.4,9.3,0,0.300027,0.000341056,0
0.4,9.4,0,0.299978,0.000350809,0
0.4,9.5,0,0.300006,0.000352268,0
0.4,9.6,0,0.299993,0.00036907,0
0.4,9.7,0,0.299985,0.00037102,0
0.4,9.8,0,0.29999,0.000379011,0
0.4,9.9,0,0.299981,0.000395725,0
0.4,10,0,0.299978,0.000385475,0
0.4,10.1,0,0.299983,0.00041626,0
0.4,10.2,0,0.299968,0.000394978,0
0.4,10.3,0,0.299976,0.000418969,0
0.4,10.4,0,0.299972,0.000421172,0
0.4,10.5,0,0.299963,0.000414303,0
0.4,10.6,0,0.299982,0.00045217,0
0.4,10.7,0,0.29996,0.000418331,0
0.4,10.8,0,0.299981,0.000463433,0
0.4,10.9,0,0.299964,0.000431779,0
0.4,11,0,0.299971,0.000453977,0
0.4,11.1,0,0.299976,0.000462817,0
0.4,11.2,0,0.299965,0.000440934,0
0.4,11.3,0,0.299986,0.000494951,0
0.4,11.4,0,0.299971,0.000447137,0
0.4,11.5,0,0.299984,0.000494015,0
0.4,11.6,0,0.299978,0.000464219,0
0.4,11.7,0,0.299981,0.000478319,0
0.4,11.8,0,0.299986,0.000494049,0
0.4,11.9,0,0.299983,0.000464615,0
0.4,12,0,0.29999,0.00052229,0
0.4,12.1,0,0.299988,0.000469527,0
0.4,12.2,0,0.299991,0.000510257,0
0.4,12.3,0,0.299992,0.000486845,0
0.4,12.4,0,0.299994,0.000491433,0
0.4,12.5,0,0.299995,0.000511438,0
0.4,12.6,0,0.299996,0.000478194,0
0.4,12.7,0,0.299995,0.000597951,0
0.5,0,0,0.299997,-0.00065098,0
0.5,0.1,0,0.299998,-0.00060373,0
0.5,0.2,0,0.299998,-0.000602945,0
0.5,0.3,0,0.299997,-0.000604207,0
0.5,0.4,0,0.299997,-0.000603293,0
0.5,0.5,0,0.299996,-0.000599352,0
0.5,0.6,0,0.299995,-0.00059708,0
0.5,0.7,0,0.299992,-0.00060102,0
0.5,0.8,0,0.299994,-0.000593127,0
0.5,0.9,0,0.299992,-0.000589439,0
0.5,1,0,0.29999,-0.000588487,0
0.5,1.1,0,0.29999,-0.00058593,0
0.5,1.2,0,0.29999,-0.000579226,0
0.5,1.3,0,0.299989,-0.00057413,0
0.5,1.4,0,0.299984,-0.000577371,0
0.5,1.5,0,0.299988,-0.000566446,0
0.5,1.6,0,0.299987,-0.000559976,0
0.5,1.7,0,0.299983,-0.000557195,0
0.5,1.8,0,0.299983,-0.000552998,0
0.5,1.9,0,0.299984,-0.000543308,0
0.5,2,0,0.299983,-0.000535495,0
0.5,2.1,0,0.299976,-0.000538919,0
0.5,2.2,0,0.299982,-0.000524158,0
0.5,2.3,0,0.299981,-0.000515034,0
0.5,2.4,0,0.299977,-0.000510865,0
0.5,2.5,0,0.299977,-0.000505088,0
0.5,2.6,0,0.299978,-0.000492186,0
0.5,2.7,0,0.299977,-0.000481787,0
0.5,2.8,0,0.299969,-0.000486357,0
0.5,2.9,0,0.299976,-0.000467061,0
0.5,3,0,0.299974,-0.000455421,0
0.5,3.1,0,0.299971,-0.000450279,0
0.5,3.2,0,0.29997,-0.00044317,0
0.5,3.3,0,0.299972,-0.000426984,0
0.5,3.4,0,0.299971,-0.000414134,0
0.5,3.5,0,0.299964,-0.000420423,0
0.5,3.6,0,0.299969,-0.000396728,0
0.5,3.7,0,0.299968,-0.000382691,0
0.5,3.8,0,0.299965,-0.000376652,0
0.5,3.9,0,0.299964,-0.000368818,0
0.5,4,0,0.299965,-0.000349783,0
0.5,4.1,0,0.299965,-0.000334567,0
0.5,4.2,0,0.29996,-0.000341664,0
0.5,4.3,0,0.299963,-0.000315823,0
0.5,4.4,0,0.299963,-0.000299424,0
0.5,4.5,0,0.299962,-0.000291667,0
0.5,4.6,0,0.299961,-0.000284092,0
0.5,4.7,0,0.299962,-0.000263653,0
0.5,4.8,0,0.299961,-0.000246059,0
0.5,4.9,0,0.299959,-0.000250142,0
0.5,5,0,0.299962,-0.000227615,0
0.5,5.1,0,0.299962,-0.000208833,0
0.5,5.2,0,0.29996,-0.000197257,0
0.5,5.3,0,0.299962,-0.00019074,0
0.5,5.4,0,0.299964,-0.000171522,0
0.5,5.5,0,0.299963,-0.000151616,0
0.5,5.6,0,0.299957,-0.000145983,0
0.5,5.7,0,0.299971,-0.000133938,0
0.5,5.8,0,0.299969,-0.00011307,0
0.5,5.9,0,0.299962,-9.52626e-05,0
0.5,6,0,0.29997,-8.91783e-05,0
0.5,6.1,0,0.299978,-7.38145e-05,0
0.5,6.2,0,0.299976,-5.21761e-05,0
0.5,6.3,0,0.299946,-3.15438e-05,0
0.5,6.4,0,0.299991,-3.2747e-05,0
0.5,6.5,0,0.299988,-1.05209e-05,0
0.5,6.6,0,0.299967,1.37919e-05,0
0.5,6.7,0,0.299978,2.11067e-05,0
0.5,6.8,0,0.300002,2.90639e-05,0
0.5,6.9,0,0.299999,4.69477e-05,0
0.5,7,0,0.29993,7.64444e-05,0
0.5,7.1,0,0.299926,0.000101141,0
0.5,7.2,0,0.299924,0.000115933,0
0.5,7.3,0,0.299922,0.000130582,0
0.5,7.4,0,0.29992,0.000145187,0
0.5,7.5,0,0.29992,0.000159733,0
0.5,7.6,0,0.299919,0.000174202,0
0.5,7.7,0,0.299919,0.000188586,0
0.5,7.8,0,0.29992,0.000202873,0
0.5,7.9,0,0.299921,0.000217131,0
0.5,8,0,0.299922,0.000236421,0
0.5,8.1,0,0.300024,0.000255476,0
0.5,8.2,0,0.29999,0.000268274,0
0.5,8.3,0,0.30002,0.000283204,0
0.5,8.4,0,0.300024,0.000303126,0
0.5,8.5,0,0.299978,0.000310631,0
0.5,8.6,0,0.300018,0.000331803,0
0.5,8.7,0,0.299948,0.000338667,0
0.5,8.8,0,0.30001,0.000358808,0
0.5,8.9,0,0.299997,0.000374701,0
0.5,9,0,0.300001,0.000383909,0
0.5,9.1,0,0.300006,0.000402603,0
0.5,9.2,0,0.299974,0.000409441,0
0.5,9.3,0,0.299996,0.000425223,0
0.5,9.4,0,0.299972,0.000438704,0
0.5,9.5,0,0.299987,0.000446047,0
0.5,9.6,0,0.299987,0.000463188,0
0.5,9.7,0,0.299979,0.000465339,0
0.5,9.8,0,0.299982,0.000481541,0
0.5,9.9,0,0.299976,0.000495701,0
0.5,10,0,0.299975,0.000498439,0
0.5,10.1,0,0.299979,0.000521672,0
0.5,10.2,0,0.29997,0.000514275,0
0.5,10.3,0,0.299972,0.000529352,0
0.5,10.4,0,0.299969,0.000531555,0
0.5,10.5,0,0.299968,0.000541692,0
0.5,10.6,0,0.299979,0.00056703,0
0.5,10.7,0,0.299968,0.000554688,0
0.5,10.8,0,0.299978,0.000582264,0
0.5,10.9,0,0.299968,0.000567107,0
0.5,11,0,0.299969,0.000576693,0
0.5,11.1,0,0.299973,0.000585113,0
0.5,11.2,0,0.299971,0.000587161,0
0.5,11.3,0,0.299983,0.000620218,0
0.5,11.4,0,0.299975,0.000597006,0
0.5,11.5,0,0.299981,0.000621772,0
0.5,11.6,0,0.299978,0.000606101,0
0.5,11.7,0,0.299979,0.000611701,0
0.5,11.8,0,0.299983,0.00062383,0
0.5,11.9,0,0.299983,0.000618633,0
0.5,12,0,0.299988,0.000653641,0
0.5,12.1,0,0.299987,0.00062453,0
0.5,12.2,0,0.299989,0.000642728,0
0.5,12.3,0,0.299991,0.000629311,0
0.5,12.4,0,0.299992,0.000631213,0
0.5,12.5,0,0.299993,0.000644596,0
0.5,12.6,0,0.299994,0.000633486,0
0.5,12.7,0,0.299994,0.000705606,0
0.6,0,0,0.299997,-0.000745012,0
0.6,0.1,0,0.299997,-0.000728739,0
0.6,0.2,0,0.299996,-0.000727954,0
0.6,0.3,0,0.299995,-0.000727169,0
0.6,0.4,0,0.299995,-0.000725971,0
0.6,0.5,0,0.299994,-0.000723699,0
0.6,0.6,0,0.299992,-0.000721426,0
0.6,0.7,0,0.29999,-0.000721224,0
0.6,0.8,0,0.29999,-0.000716134,0
0.6,0.9,0,0.299988,-0.000712446,0
0.6,1,0,0.299987,-0.000708758,0
0.6,1.1,0,0.299986,-0.000705354,0
0.6,1.2,0,0.299985,-0.000700258,0
0.6,1.3,0,0.299983,-0.000695162,0
0.6,1.4,0,0.299981,-0.000692845,0
0.6,1.5,0,0.299981,-0.000684891,0
0.6,1.6,0,0.29998,-0.000678421,0
0.6,1.7,0,0.299978,-0.000671952,0
0.6,1.8,0,0.299977,-0.000666396,0
0.6,1.9,0,0.299976,-0.000658583,0
0.6,2,0,0.299975,-0.00065077,0
0.6,2.1,0,0.299972,-0.000646703,0
0.6,2.2,0,0.299973,-0.0006357,0
0.6,2.3,0,0.299971,-0.000626576,0
0.6,2.4,0,0.29997,-0.000617452,0
0.6,2.5,0,0.299969,-0.000609836,0
0.6,2.6,0,0.299968,-0.000599437,0
0.6,2.7,0,0.299967,-0.000589037,0
0.6,2.8,0,0.299963,-0.000583628,0
0.6,2.9,0,0.299965,-0.000569436,0
0.6,3,0,0.299963,-0.000557796,0
0.6,3.1,0,0.299962,-0.000546156,0
0.6,3.2,0,0.299961,-0.000536677,0
0.6,3.3,0,0.29996,-0.000523827,0
0.6,3.4,0,0.29996,-0.000510978,0
0.6,3.5,0,0.299957,-0.000504508,0
0.6,3.6,0,0.299958,-0.000487251,0
0.6,3.7,0,0.299957,-0.000473214,0
0.6,3.8,0,0.299956,-0.000459177,0
0.6,3.9,0,0.299955,-0.000448208,0
0.6,4,0,0.299955,-0.000432992,0
0.6,4.1,0,0.299954,-0.000417776,0
0.6,4.2,0,0.299952,-0.000409997,0
0.6,4.3,0,0.299953,-0.00039045,0
0.6,4.4,0,0.299953,-0.000374051,0
0.6,4.5,0,0.299953,-0.000357651,0
0.6,4.6,0,0.299952,-0.000345727,0
0.6,4.7,0,0.299952,-0.000328133,0
0.6,4.8,0,0.299952,-0.000310539,0
0.6,4.9,0,0.299951,-0.00030017,0
0.6,5,0,0.299952,-0.00028014,0
0.6,5.1,0,0.299952,-0.000261358,0
0.6,5.2,0,0.299951,-0.000242576,0
0.6,5.3,0,0.299952,-0.000230139,0
0.6,5.4,0,0.299951,-0.000210233,0
0.6,5.5,0,0.299951,-0.000190328,0
0.6,5.6,0,0.299948,-0.00017518,0
0.6,5.7,0,0.299952,-0.000157253,0
0.6,5.8,0,0.29995,-0.000136385,0
0.6,5.9,0,0.299949,-0.000115518,0
0.6,6,0,0.299952,-0.000102432,0
0.6,6.1,0,0.299949,-8.0794e-05,0
0.6,6.2,0,0.299947,-5.91556e-05,0
0.6,6.3,0,0.299935,-3.78526e-05,0
0.6,6.4,0,0.299948,-2.34362e-05,0
0.6,6.5,0,0.299945,-1.21012e-06,0
0.6,6.6,0,0.299941,2.1016e-05,0
0.6,6.7,0,0.299946,3.42109e-05,0
0.6,6.8,0,0.299943,5.20947e-05,0
0.6,6.9,0,0.29994,6.99785e-05,0
0.6,7,0,0.299915,9.17333e-05,0
0.6,7.1,0,0.299911,0.000121369,0
0.6,7.2,0,0.299908,0.00013912,0
0.6,7.3,0,0.299906,0.000156698,0
0.6,7.4,0,0.299904,0.000174225,0
0.6,7.5,0,0.299904,0.000191679,0
0.6,7.6,0,0.299903,0.000209043,0
0.6,7.7,0,0.299903,0.000226303,0
0.6,7.8,0,0.299904,0.000243448,0
0.6,7.9,0,0.299905,0.000260557,0
0.6,8,0,0.299907,0.000283705,0
0.6,8.1,0,0.299942,0.000301273,0
0.6,8.2,0,0.299944,0.000318097,0
0.6,8.3,0,0.299944,0.00033429,0
0.6,8.4,0,0.299948,0.000354211,0
0.6,8.5,0,0.299948,0.000370447,0
0.6,8.6,0,0.299952,0.000390089,0
0.6,8.7,0,0.299936,0.000406337,0
0.6,8.8,0,0.299955,0.000425004,0
0.6,8.9,0,0.29996,0.000444211,0
0.6,9,0,0.299958,0.000458775,0
0.6,9.1,0,0.299963,0.000477469,0
0.6,9.2,0,0.299961,0.000491349,0
0.6,9.3,0,0.299966,0.000509391,0
0.6,9.4,0,0.299965,0.0005266,0
0.6,9.5,0,0.299968,0.000539889,0
0.6,9.6,0,0.299972,0.0005571,0
0.6,9.7,0,0.29997,0.000568898,0
0.6,9.8,0,0.299973,0.000585101,0
0.6,9.9,0,0.299972,0.000596367,0
0.6,10,0,0.299973,0.000611404,0
0.6,10.1,0,0.299975,0.000627084,0
0.6,10.2,0,0.299974,0.000636002,0
0.6,10.3,0,0.299975,0.000649752,0
0.6,10.4,0,0.299974,0.000658891,0
0.6,10.5,0,0.299975,0.000671275,0
0.6,10.6,0,0.299976,0.00068189,0
0.6,10.7,0,0.299975,0.000691044,0
0.6,10.8,0,0.299975,0.000702028,0
0.6,10.9,0,0.299976,0.000709083,0
0.6,11,0,0.299976,0.000718668,0
0.6,11.1,0,0.299977,0.000725399,0
0.6,11.2,0,0.299977,0.000733614,0
0.6,11.3,0,0.29998,0.000745485,0
0.6,11.4,0,0.299979,0.000746876,0
0.6,11.5,0,0.299979,0.000753763,0
0.6,11.6,0,0.29998,0.000758447,0
0.6,11.7,0,0.299981,0.000764047,0
0.6,11.8,0,0.299982,0.000768308,0
0.6,11.9,0,0.299983,0.00077265,0
0.6,12,0,0.299986,0.000784992,0
0.6,12.1,0,0.299986,0.000779534,0
0.6,12.2,0,0.299988,0.00078263,0
0.6,12.3,0,0.299989,0.000784698,0
0.6,12.4,0,0.299991,0.0007866,0
0.6,12.5,0,0.299992,0.000788115,0
0.6,12.6,0,0.299993,0.000788779,0
0.6,12.7,0,0.299993,0.000813261,0
0.7,0,0,0.299996,-0.000854352,0
0.7,0.1,0,0.299995,-0.00085417,0
0.7,0.2,0,0.299995,-0.000853385,0
0.7,0.3,0,0.299994,-0.0008526,0
0.7,0.4,0,0.299992,-0.000850696,0
0.7,0.5,0,0.299991,-0.000848424,0
0.7,0.6,0,0.299989,-0.000846151,0
0.7,0.7,0,0.299987,-0.000842844,0
0.7,0.8,0,0.299986,-0.000839526,0
0.7,0.9,0,0.299984,-0.000835837,0
0.7,1,0,0.299983,-0.000832149,0
0.7,1.1,0,0.29998,-0.000826761,0
0.7,1.2,0,0.299979,-0.000821665,0
0.7,1.3,0,0.299978,-0.000816569,0
0.7,1.4,0,0.299975,-0.000809669,0
0.7,1.5,0,0.299974,-0.000803701,0
0.7,1.6,0,0.299973,-0.000797231,0
0.7,1.7,0,0.299971,-0.000790762,0
0.7,1.8,0,0.299969,-0.000782029,0
0.7,1.9,0,0.299968,-0.000774216,0
0.7,2,0,0.299967,-0.000766404,0
0.7,2.1,0,0.299963,-0.000755592,0
0.7,2.2,0,0.299963,-0.00074759,0
0.7,2.3,0,0.299962,-0.000738466,0
0.7,2.4,0,0.299961,-0.000729342,0
0.7,2.5,0,0.299959,-0.000717425,0
0.7,2.6,0,0.299958,-0.000707026,0
0.7,2.7,0,0.299956,-0.000696627,0
0.7,2.8,0,0.299952,-0.000681521,0
0.7,2.9,0,0.299954,-0.00067214,0
0.7,3,0,0.299952,-0.0006605,0
0.7,3.1,0,0.299951,-0.00064886,0
0.7,3.2,0,0.29995,-0.000633842,0
0.7,3.3,0,0.299949,-0.000620993,0
0.7,3.4,0,0.299948,-0.000608143,0
0.7,3.5,0,0.299942,-0.000588491,0
0.7,3.6,0,0.299947,-0.000578092,0
0.7,3.7,0,0.299946,-0.000564055,0
0.7,3.8,0,0.299945,-0.000550017,0
0.7,3.9,0,0.299945,-0.000531733,0
0.7,4,0,0.299944,-0.000516517,0
0.7,4.1,0,0.299944,-0.000501301,0
0.7,4.2,0,0.299936,-0.000477416,0
0.7,4.3,0,0.299943,-0.000465398,0
0.7,4.4,0,0.299943,-0.000448998,0
0.7,4.5,0,0.299943,-0.000432598,0
0.7,4.6,0,0.299943,-0.00041053,0
0.7,4.7,0,0.299943,-0.000392936,0
0.7,4.8,0,0.299943,-0.000375342,0
0.7,4.9,0,0.299933,-0.00034879,0
0.7,5,0,0.299942,-0.000332982,0
0.7,5.1,0,0.299942,-0.0003142,0
0.7,5.2,0,0.299942,-0.000295418,0
0.7,5.3,0,0.29994,-0.000269139,0
0.7,5.4,0,0.299939,-0.000249233,0
0.7,5.5,0,0.299938,-0.000229328,0
0.7,5.6,0,0.299929,-0.000203348,0
0.7,5.7,0,0.299933,-0.000180797,0
0.7,5.8,0,0.299931,-0.00015993,0
0.7,5.9,0,0.29993,-0.000139062,0
0.7,6,0,0.299923,-0.000109598,0
0.7,6.1,0,0.29992,-8.79592e-05,0
0.7,6.2,0,0.299918,-6.63207e-05,0
0.7,6.3,0,0.299916,-4.45046e-05,0
0.7,6.4,0,0.299905,-1.42563e-05,0
0.7,6.5,0,0.299902,7.96978e-06,0
0.7,6.6,0,0.299898,3.01959e-05,0
0.7,6.7,0,0.299887,5.97108e-05,0
0.7,6.8,0,0.299884,7.75946e-05,0
0.7,6.9,0,0.299882,9.54784e-05,0