/*--------------------------------*- C++ -*----------------------------------*\
| =========                 |                                                 |
| \\      /  F ield         | OpenFOAM: The Open Source CFD Toolbox           |
|  \\    /   O peration     | Version:  v1806                                 |
|   \\  /    A nd           | Web:      www.OpenFOAM.com                      |
|    \\/     M anipulation  |                                                 |
\*---------------------------------------------------------------------------*/
FoamFile
{
    version     2.0;
    format      ascii;
    class       surfaceScalarField;
    location    "7";
    object      phi;
}
// * * * * * * * * * * * * * * * * * * * * * * * * * * * * * * * * * * * * * //

dimensions      [0 3 -1 0 0 0 0];
oriented        oriented;


internalField   nonuniform List<scalar> 
13938
(
-1.69794e-09
-0.0863004
-0.36099
0.291311
0.15598
1.01188e-11
-0.0863364
-0.360971
0.291315
0.155993
1.79175e-09
-0.0863364
-0.360971
0.291315
0.155993
-0.0863003
-0.36099
0.291311
0.15598
6.94794e-08
-0.426445
0.062428
0.277717
-3.05031e-12
-0.426454
0.0624146
0.277703
-6.93871e-08
-0.426454
0.0624146
0.277703
-0.426445
0.062428
0.277717
-3.37453e-08
0.00736429
-0.0118601
-0.0225373
0.0270331
1.27694e-10
0.00735972
-0.011863
-0.0225418
0.027045
3.36478e-08
0.00735971
-0.011863
-0.0225418
0.027045
0.00736428
-0.0118601
-0.0225373
0.0270331
2.09052e-08
-0.0158974
-0.00184859
0.0251103
1.12367e-10
-0.015894
-0.00185093
0.0251047
-2.09935e-08
-0.015894
-0.00185093
0.0251047
-0.0158974
-0.0018486
0.0251103
-1.14291e-08
0.00354546
-0.0092986
-0.0101443
2.06083e-10
0.00355002
-0.00929839
-0.0101457
1.15244e-08
0.00355002
-0.0092984
-0.0101457
0.00354546
-0.00929861
-0.0101443
-9.59387e-09
-0.000475649
-0.00783896
1.79539e-10
-0.000475723
-0.00783723
9.65484e-09
-0.000475728
-0.00783723
-0.000475656
-0.00783896
-2.82644e-09
0.319242
-0.254358
-0.294521
0.229637
-1.77248e-10
0.319246
-0.254353
-0.294517
0.229624
2.60844e-09
0.319246
-0.254353
-0.294517
0.229624
0.319242
-0.254358
-0.294521
0.229637
-3.74435e-08
0.458887
-0.383394
0.243749
-2.33565e-10
0.458883
-0.383379
0.243743
3.70192e-08
0.458883
-0.383379
0.243743
0.458887
-0.383394
0.243749
2.70046e-08
-0.0609387
0.173846
0.345979
-1.38514e-10
-0.0609441
0.173858
0.34597
-2.73307e-08
-0.0609441
0.173858
0.34597
-0.0609387
0.173846
0.345979
-5.88682e-07
-0.223427
0.182506
0.0413315
-0.00040984
-1.6966e-09
-0.22344
0.182491
0.0413355
-0.000386863
5.92337e-07
-0.22344
0.182491
0.0413354
-0.000386864
-0.223427
0.182506
0.0413315
-0.000409862
-2.29593e-07
-0.00290576
-0.17039
-0.0501308
1.65582e-09
-0.00292702
-0.170383
-0.0501305
2.29043e-07
-0.00292701
-0.170383
-0.0501305
-0.00290571
-0.17039
-0.0501308
-5.58318e-08
-0.0142344
0.0426657
0.0464702
-0.0749014
1.45811e-10
-0.0142387
0.0426666
0.0464807
-0.0749087
5.55969e-08
-0.0142387
0.0426666
0.0464807
-0.0749087
-0.0142344
0.0426657
0.0464702
-0.0749014
-3.64506e-08
0.0524109
-0.085179
0.0185337
2.28447e-10
0.0524122
-0.0851846
0.0185336
3.61547e-08
0.0524122
-0.0851845
0.0185336
0.0524109
-0.085179
0.0185337
-6.74729e-08
0.0639504
0.0311263
1.06721e-10
0.0639532
0.0311255
6.7301e-08
0.0639532
0.0311255
0.0639504
0.0311263
8.12759e-08
-0.204471
0.410969
-0.616823
0.410325
-2.00914e-10
-0.204474
0.410986
-0.616801
0.41029
-8.13171e-08
-0.204474
0.410986
-0.616801
0.41029
-0.204471
0.410969
-0.616823
0.410325
-2.5678e-07
0.51323
-0.603044
-0.114658
-4.76179e-11
0.513219
-0.603048
-0.114645
2.56834e-07
0.513219
-0.603048
-0.114645
0.51323
-0.603044
-0.114658
7.18886e-08
0.644725
0.279474
-1.97748e-10
0.644766
0.279439
-7.18092e-08
0.644766
0.279439
0.644725
0.279474
-1.13519e-07
0.218786
-0.241677
-0.430666
0.453557
-5.32686e-12
0.218798
-0.241679
-0.430667
0.453548
1.13624e-07
0.218798
-0.241679
-0.430667
0.453548
0.218786
-0.241677
-0.430666
0.453557
-3.53214e-08
0.438762
-0.279392
0.0594157
-1.44134e-11
0.438751
-0.279373
0.0594196
3.53747e-08
0.438751
-0.279373
0.0594196
0.438762
-0.279392
0.0594158
-1.64834e-07
-0.750102
0.26549
0.819895
-0.335283
1.31176e-10
-0.750127
0.265508
0.819899
-0.335281
1.64426e-07
-0.750127
0.265508
0.819899
-0.335281
-0.750102
0.26549
0.819895
-0.335283
1.32813e-07
-0.617623
0.0784367
-0.210915
5.11474e-11
-0.617619
0.0784139
-0.210921
-1.32506e-07
-0.617619
0.0784139
-0.210921
-0.617623
0.0784368
-0.210915
-1.57598e-07
-0.162357
0.830794
-0.668437
-9.88918e-10
-0.162331
0.830769
-0.668438
1.58118e-07
-0.162331
0.830769
-0.668438
-0.162357
0.830794
-0.668437
1.96747e-07
-0.644029
-0.349057
0.830729
-4.25508e-10
-0.644015
-0.34904
0.830724
-1.97089e-07
-0.644015
-0.34904
0.830724
-0.644029
-0.349057
0.830729
1.61351e-08
0.0077772
-0.0187055
0.0016297
2.45457e-10
0.00777765
-0.0187063
0.00163031
-1.60298e-08
0.00777765
-0.0187063
0.00163031
0.00777721
-0.0187055
0.0016297
-1.62292e-08
0.0075189
-0.000217326
1.12699e-10
0.00751985
-0.000217943
1.62561e-08
0.00751985
-0.000217941
0.00751889
-0.000217322
-3.05237e-08
-0.0288868
-0.000565354
0.0107467
2.52779e-10
-0.0288879
-0.000562138
0.0107437
3.06429e-08
-0.0288879
-0.000562141
0.0107437
-0.0288868
-0.000565362
0.0107467
1.69339e-08
-0.012352
0.0348003
-0.0513351
1.68836e-10
-0.0123531
0.034803
-0.0513378
-1.67479e-08
-0.0123531
0.034803
-0.0513378
-0.012352
0.0348003
-0.0513351
-5.33519e-10
0.0333843
0.00525467
-0.050991
2.28537e-10
0.0333862
0.00525333
-0.0509926
1.04993e-09
0.0333862
0.00525332
-0.0509926
0.0333843
0.00525466
-0.050991
-1.98426e-08
0.0230647
0.00975426
3.00794e-10
0.0230663
0.00975774
2.00567e-08
0.0230663
0.00975774
0.0230647
0.00975425
-3.37187e-09
0.0150293
0.0096652
1.89796e-10
0.0150315
0.00966505
3.59525e-09
0.0150315
0.00966505
0.0150293
0.00966519
-1.91194e-08
0.00841559
0.0141326
4.8706e-11
0.00841728
0.0141341
1.90222e-08
0.00841728
0.0141341
0.00841559
0.0141326
-1.15435e-08
-0.024215
0.0248174
2.63835e-10
-0.0242188
0.0248168
1.16106e-08
-0.0242188
0.0248168
-0.024215
0.0248174
2.82312e-09
-0.0481919
0.0587772
4.30512e-11
-0.048196
0.0587802
-2.8082e-09
-0.048196
0.0587802
-0.0481919
0.0587772
-8.65454e-08
-0.350362
-0.253995
0.36268
2.84373e-11
-0.350364
-0.253975
0.36266
8.66168e-08
-0.350364
-0.253975
0.36266
-0.350362
-0.253995
0.36268
-6.37757e-08
0.115229
-0.501102
0.0355108
6.93255e-11
0.115241
-0.501117
0.0355117
6.39055e-08
0.115241
-0.501117
0.0355117
0.115229
-0.501102
0.0355108
-4.98149e-08
-0.441774
0.303008
8.67805e-11
-0.441756
0.303021
4.99385e-08
-0.441756
0.303021
-0.441774
0.303008
-1.18655e-07
-0.0838063
-0.553176
0.13588
1.18069e-10
-0.0838088
-0.553187
0.135879
1.18803e-07
-0.0838088
-0.553187
0.135879
-0.0838063
-0.553176
0.13588
-5.98455e-08
-0.481527
0.0863719
3.61794e-11
-0.481537
0.0863813
6.00658e-08
-0.481537
0.0863813
-0.481527
0.0863719
-1.26495e-07
-0.550741
-0.0145918
1.00908e-10
-0.55074
-0.0146053
1.2665e-07
-0.55074
-0.0146053
-0.550741
-0.0145918
-1.2437e-07
0.0955373
-0.593683
-0.0525947
3.88024e-12
0.0955248
-0.593691
-0.0525743
1.24451e-07
0.0955248
-0.593691
-0.0525743
0.0955373
-0.593683
-0.0525947
-1.03189e-07
-0.590524
0.132885
7.32098e-11
-0.590536
0.132874
1.03373e-07
-0.590536
0.132874
-0.590524
0.132885
-7.29127e-08
-0.552681
0.246788
1.27336e-10
-0.552649
0.246772
7.31448e-08
-0.552649
0.246772
-0.552681
0.246788
7.87124e-09
0.0993911
-0.0584757
-0.634599
1.79991e-12
0.0993981
-0.0585056
-0.634584
-7.79585e-09
0.0993981
-0.0585056
-0.634584
0.099391
-0.0584757
-0.634599
-3.69889e-08
0.153629
-0.644762
2.57504e-11
0.153622
-0.64476
3.71952e-08
0.153622
-0.64476
0.153629
-0.644762
3.48172e-08
0.420129
-0.0437527
0.0771802
-4.13838e-11
0.420114
-0.0437388
0.0771732
-3.47752e-08
0.420114
-0.0437388
0.0771732
0.420129
-0.0437527
0.0771802
1.51736e-08
0.143086
0.0226858
-2.2969e-10
0.14308
0.0226809
-1.52704e-08
0.14308
0.0226809
0.143086
0.0226858
-6.29594e-08
-0.431853
0.191545
-3.37195e-10
-0.431859
0.191559
6.27677e-08
-0.431859
0.191559
-0.431853
0.191545
-1.66315e-08
-0.540145
0.06454
-1.80916e-10
-0.540114
0.0645163
1.6426e-08
-0.540114
0.0645163
-0.540145
0.06454
-2.96097e-08
-0.51556
0.0617863
-6.63839e-11
-0.515564
0.0618314
2.96283e-08
-0.515564
0.0618314
-0.51556
0.0617863
-2.6918e-07
-0.550361
0.0202094
-6.31753e-12
-0.550351
0.0201816
2.69014e-07
-0.550351
0.0201816
-0.550361
0.0202094
6.49606e-09
-0.585523
-0.0174325
-1.56714e-10
-0.585521
-0.0174049
-6.5389e-09
-0.585521
-0.0174049
-0.585523
-0.0174325
-1.70465e-07
-0.631628
-0.0123701
-2.30962e-11
-0.631624
-0.0124029
1.70409e-07
-0.631624
-0.012403
-0.631628
-0.0123701
3.3402e-08
0.423251
0.0926915
-1.02549e-10
0.423242
0.0926818
-3.3393e-08
0.423242
0.0926818
0.423251
0.0926914
1.77318e-08
0.151416
-2.07084e-10
0.151406
-1.80392e-08
0.151406
0.151416
1.43464e-08
0.548309
-0.491661
0.134897
-2.44917e-10
0.54832
-0.49167
0.13491
-1.44396e-08
0.54832
-0.49167
0.13491
0.548308
-0.491661
0.134897
1.95202e-07
0.0609243
-1.27853e-11
0.0609219
-1.95089e-07
0.0609219
0.0609243
-8.52992e-09
-0.0144522
0.0179714
0.00489641
-2.34837e-10
-0.0144538
0.0179723
0.00489878
8.47862e-09
-0.0144538
0.0179723
0.00489878
-0.0144522
0.0179713
0.00489641
1.92128e-09
-0.0110404
-0.0036291
-1.3819e-10
-0.0110434
-0.00362833
-1.9214e-09
-0.0110434
-0.00362833
-0.0110404
-0.0036291
-2.55752e-08
-0.00798338
-0.0108959
-3.9002e-11
-0.0079886
-0.0108921
2.56593e-08
-0.00798859
-0.0108921
-0.00798338
-0.0108959
-1.11586e-08
-0.00669296
-0.0238277
-6.407e-11
-0.00670458
-0.0238258
1.11855e-08
-0.00670457
-0.0238258
-0.00669295
-0.0238277
1.46883e-08
0.032196
-0.04491
0.0179687
4.13535e-10
0.0321968
-0.0449118
0.0179683
-1.43177e-08
0.0321968
-0.0449118
0.0179683
0.032196
-0.04491
0.0179686
-1.58361e-08
0.0236578
0.0182925
3.17897e-10
0.0236583
0.0182962
1.619e-08
0.0236583
0.0182962
0.0236578
0.0182925
1.24796e-08
0.0167022
0.0166208
1.41809e-10
0.0167022
0.0166211
-1.23058e-08
0.0167022
0.0166211
0.0167022
0.0166208
-1.13111e-08
0.0120267
0.0188081
-1.71983e-10
0.0120266
0.0188097
1.13408e-08
0.0120266
0.0188097
0.0120267
0.0188081
6.77938e-09
0.00911255
0.0208855
-2.61028e-10
0.00911287
0.020886
-6.95934e-09
0.00911287
0.020886
0.00911255
0.0208855
-1.46504e-08
-0.036524
0.0640881
-0.0757559
3.23493e-11
-0.0365179
0.0640803
-0.0757584
1.48172e-08
-0.0365179
0.0640803
-0.0757584
-0.036524
0.0640881
-0.075756
-3.38706e-08
-0.00905428
-0.0788048
3.53925e-10
-0.0090479
-0.0788079
3.4434e-08
-0.0090479
-0.0788079
-0.00905429
-0.0788048
-2.93621e-08
0.0125133
-0.0725586
4.85304e-10
0.012519
-0.0725595
2.9892e-08
0.012519
-0.0725595
0.0125133
-0.0725586
-2.53998e-08
0.0261006
-0.0584973
4.67431e-10
0.0261055
-0.0584983
2.56375e-08
0.0261055
-0.0584983
0.0261006
-0.0584973
-3.62658e-08
-0.00320563
0.0261745
1.35133e-10
-0.00320299
0.0261688
3.6127e-08
-0.00320299
0.0261688
-0.00320564
0.0261745
1.88944e-08
-0.0187412
0.0743127
-1.11894e-10
-0.0187441
0.0743213
-1.86603e-08
-0.0187441
0.0743213
-0.0187412
0.0743127
-8.20564e-08
-0.227924
0.311212
6.74211e-11
-0.227912
0.311199
8.21397e-08
-0.227912
0.311199
-0.227924
0.311212
-1.02296e-07
-0.301293
0.376377
9.27848e-11
-0.30127
0.37638
1.02453e-07
-0.30127
0.37638
-0.301293
0.376377
-4.96783e-08
-0.0464361
0.0917831
3.77049e-11
-0.0464446
0.0917808
5.00503e-08
-0.0464446
0.0917808
-0.0464361
0.0917831
-4.98949e-08
-0.585205
0.165409
1.10873e-10
-0.585181
0.165406
5.01324e-08
-0.585181
0.165406
-0.585205
0.165409
-5.06391e-08
-0.560234
0.128659
5.44088e-11
-0.560222
0.128663
5.07707e-08
-0.560222
0.128663
-0.560234
0.128659
-6.44158e-08
-0.522483
0.467978
6.11976e-11
-0.522462
0.467964
6.46291e-08
-0.522462
0.467964
-0.522483
0.467978
7.33194e-08
0.0378728
-0.00376366
-0.665738
-3.93813e-11
0.0378482
-0.00374496
-0.665727
-7.34856e-08
0.0378482
-0.00374497
-0.665727
0.0378729
-0.00376368
-0.665738
4.83362e-08
0.0730625
-0.669788
-6.46279e-11
0.0730394
-0.669775
-4.82696e-08
0.0730394
-0.669775
0.0730625
-0.669788
-5.11686e-08
0.128147
-0.699847
-3.62908e-11
0.128137
-0.699857
5.11947e-08
0.128137
-0.699857
0.128147
-0.699847
5.86019e-08
0.294203
-0.72629
-4.71762e-11
0.294196
-0.726281
-5.86147e-08
0.294196
-0.726281
0.294203
-0.72629
-5.90543e-08
0.478851
-0.108223
3.18074e-11
0.47885
-0.108231
5.90764e-08
0.47885
-0.108231
0.478851
-0.108223
-1.73266e-08
-0.5487
0.121579
-3.35262e-10
-0.548712
0.121559
1.71563e-08
-0.548712
0.121559
-0.5487
0.121579
5.63515e-08
-0.548439
0.0615253
-1.53482e-10
-0.548437
0.0615563
-5.65679e-08
-0.548437
0.0615563
-0.548439
0.0615253
-6.86427e-08
-0.562552
0.034322
-1.06872e-10
-0.56256
0.0343047
6.84791e-08
-0.56256
0.0343047
-0.562552
0.034322
8.30071e-09
-0.596118
0.0161337
-1.96421e-10
-0.596112
0.0161463
-8.45503e-09
-0.596112
0.0161463
-0.596118
0.0161337
-2.1951e-08
-0.610195
0.0017068
-1.35265e-10
-0.610198
0.0016834
2.18038e-08
-0.610198
0.0016834
-0.610195
0.00170681
-9.67801e-08
0.380793
0.190749
-9.95978e-11
0.380785
0.190747
9.67054e-08
0.380785
0.190747
0.380793
0.190749
-1.86133e-08
0.34397
0.188239
-1.94248e-10
0.343966
0.188226
1.83693e-08
0.343966
0.188226
0.34397
0.188239
3.19604e-08
0.360658
0.212949
-2.22283e-10
0.360652
0.212938
-3.22618e-08
0.360652
0.212938
0.360658
0.212949
7.90329e-09
0.371487
0.23292
-1.41465e-10
0.371482
0.232912
-8.05834e-09
0.371482
0.232912
0.371487
0.23292
3.46339e-08
0.309865
0.235468
-5.89295e-11
0.309867
0.235473
-3.4651e-08
0.309867
0.235473
0.309865
0.235468
3.72665e-08
0.204579
0.203828
-1.51955e-11
0.204557
0.203828
-3.73495e-08
0.204557
0.203828
0.204579
0.203828
1.88997e-08
-0.446825
0.146759
-3.37686e-12
-0.446788
0.146739
-1.8743e-08
-0.446788
0.146739
-0.446825
0.146759
-2.80411e-08
0.301699
0.180596
2.60084e-11
0.3017
0.18056
2.80724e-08
0.3017
0.18056
0.301699
0.180596
4.18113e-08
0.228579
0.285114
5.45061e-11
0.228591
0.285103
-4.18254e-08
0.228591
0.285103
0.228579
0.285114
6.58629e-08
0.344832
0.185446
-7.90103e-12
0.344838
0.185452
-6.59505e-08
0.344838
0.185452
0.344832
0.185446
3.61635e-08
-0.653914
0.0399561
-9.17254e-11
-0.653909
0.0399656
-3.62753e-08
-0.653909
0.0399656
-0.653914
0.0399561
-1.07585e-07
0.154687
0.31722
1.28181e-11
0.154656
0.317219
1.07569e-07
0.154656
0.317219
0.154687
0.31722
8.6683e-08
0.351329
-0.381942
0.186592
-1.71591e-11
0.351326
-0.381927
0.186594
-8.64271e-08
0.351326
-0.381927
0.186594
0.351329
-0.381942
0.186592
-1.21188e-07
0.13319
0.372826
-1.17898e-10
0.133159
0.372822
1.21066e-07
0.133159
0.372822
0.13319
0.372826
-5.70349e-08
0.0398507
-0.0402788
-0.00626481
1.17726e-10
0.0398514
-0.0402811
-0.00627497
5.70283e-08
0.0398514
-0.040281
-0.00627496
0.0398507
-0.0402788
-0.0062648
4.01946e-08
0.0189015
0.0479823
1.98491e-10
0.0189084
0.047988
-4.00821e-08
0.0189084
0.047988
0.0189015
0.0479823
-6.76427e-08
0.369885
-0.359428
0.180292
-8.68874e-11
0.369873
-0.359417
0.18029
6.75457e-08
0.369873
-0.359417
0.18029
0.369885
-0.359428
0.180292
-2.91364e-08
0.36389
0.194234
-1.53727e-10
0.36388
0.19422
2.89356e-08
0.36388
0.19422
0.36389
0.194234
-3.00816e-08
0.356615
0.220224
-8.89013e-11
0.356602
0.220215
2.9977e-08
0.356602
0.220215
0.356615
0.220224
-5.25859e-08
0.346568
0.242967
3.06124e-11
0.346559
0.242956
5.26138e-08
0.346559
0.242956
0.346568
0.242967
-4.67468e-08
0.295425
0.286612
6.93982e-11
0.295418
0.286614
4.68116e-08
0.295418
0.286613
0.295425
0.286612
-6.94214e-08
0.250152
0.330386
-2.71103e-11
0.250136
0.330386
6.93833e-08
0.250136
0.330386
0.250152
0.330386
-8.077e-08
0.411403
0.183581
-1.25884e-10
0.411395
0.18358
8.061e-08
0.411395
0.18358
0.411403
0.183581
-1.58513e-07
0.400862
-0.132708
5.20312e-11
0.400855
-0.132707
1.58582e-07
0.400855
-0.132707
0.400862
-0.132708
-1.25596e-07
-0.152437
0.193871
3.00712e-11
-0.152426
0.193864
1.2566e-07
-0.152426
0.193864
-0.152437
0.193871
3.42045e-08
-0.526778
0.21485
-1.27462e-10
-0.526736
0.214858
-3.42217e-08
-0.526736
0.214858
-0.526778
0.21485
-3.1637e-07
-0.53444
0.129241
-3.25484e-10
-0.534427
0.129249
3.16214e-07
-0.534427
0.129249
-0.53444
0.129241
-3.30535e-08
-0.561139
0.0882247
-1.94754e-10
-0.561107
0.0882366
3.26726e-08
-0.561107
0.0882366
-0.561139
0.0882247
-2.77897e-07
-0.552148
0.0253306
-1.65031e-10
-0.552142
0.0253388
2.77687e-07
-0.552142
0.0253388
-0.552148
0.0253306
5.46118e-08
-0.583326
0.0473119
-1.79281e-10
-0.583312
0.0473168
-5.47867e-08
-0.583312
0.0473168
-0.583326
0.0473119
-1.37176e-07
-0.61406
0.0324413
-6.41647e-11
-0.614064
0.0324346
1.37e-07
-0.614064
0.0324346
-0.61406
0.0324413
-9.8118e-09
-0.0213803
0.0227808
0.00771214
-6.3084e-11
-0.0213806
0.0227809
0.00771258
9.74309e-09
-0.0213806
0.0227809
0.00771258
-0.0213803
0.0227808
0.00771215
-1.66548e-08
-0.0192457
0.00276176
-1.4145e-10
-0.0192456
0.0027638
1.66732e-08
-0.0192456
0.0027638
-0.0192457
0.00276176
-1.23452e-08
-0.0175107
-0.00536403
1.08885e-12
-0.01751
-0.00536401
1.23825e-08
-0.01751
-0.00536401
-0.0175107
-0.00536402
-1.29946e-08
-0.0152931
-0.0131135
1.39371e-11
-0.0152909
-0.0131111
1.2983e-08
-0.0152909
-0.0131111
-0.0152931
-0.0131135
-1.86486e-08
-0.0144216
-0.0246992
3.84794e-11
-0.0144174
-0.0246993
1.85457e-08
-0.0144174
-0.0246993
-0.0144216
-0.0246992
-8.88731e-10
-0.0383691
-0.0163313
2.07872e-10
-0.0383692
-0.0163293
9.51059e-10
-0.0383692
-0.0163293
-0.0383691
-0.0163313
-2.55558e-08
0.0372904
-0.0457865
0.0345967
3.89876e-10
0.0372904
-0.0457862
0.0346013
2.58383e-08
0.0372904
-0.0457862
0.0346013
0.0372904
-0.0457865
0.0345967
-5.26014e-09
0.0289969
0.0262621
5.59149e-10
0.0289976
0.0262611
5.6185e-09
0.0289976
0.0262611
0.0289969
0.0262621
-2.41108e-08
0.0226026
0.0246868
4.33595e-10
0.0226036
0.0246902
2.45454e-08
0.0226036
0.0246902
0.0226026
0.0246868
-7.65373e-09
0.0171772
0.0220462
8.25443e-11
0.0171788
0.0220459
7.86882e-09
0.0171788
0.0220459
0.0171772
0.0220462
-1.9257e-08
0.0136386
0.0223467
-1.60128e-10
0.0136398
0.0223487
1.91178e-08
0.0136398
0.0223487
0.0136386
0.0223467
-6.89714e-09
0.0115662
0.0229579
-2.24287e-11
0.0115675
0.0229583
6.74699e-09
0.0115675
0.0229583
0.0115662
0.0229579
-9.21e-09
0.0241021
0.0102449
2.18096e-10
0.0241024
0.010246
9.28926e-09
0.0241024
0.010246
0.0241021
0.0102449
-8.55646e-09
-0.109219
0.157756
-0.0949737
1.90111e-11
-0.109219
0.157763
-0.0949889
8.05519e-09
-0.109219
0.157763
-0.0949889
-0.109219
0.157756
-0.0949737
-5.5628e-09
-0.0580026
-0.126972
-4.6045e-11
-0.0580024
-0.126975
5.4487e-09
-0.0580024
-0.126975
-0.0580026
-0.126972
-1.8066e-08
-0.0129477
-0.12386
3.40144e-10
-0.0129457
-0.123865
1.84988e-08
-0.0129457
-0.123865
-0.0129477
-0.12386
-2.41511e-08
0.0156773
-0.101184
2.00202e-10
0.0156779
-0.101183
2.41946e-08
0.0156779
-0.101183
0.0156773
-0.101184
7.12829e-09
0.0344365
-0.0772565
5.2401e-11
0.0344356
-0.077256
-6.74889e-09
0.0344356
-0.077256
0.0344365
-0.0772565
9.59916e-10
-0.0540256
0.0426756
1.94946e-10
-0.0540245
0.042674
-6.32169e-10
-0.0540245
0.042674
-0.0540256
0.0426756
-2.11636e-08
0.0296477
0.0216371
1.45228e-10
0.0296469
0.0216266
2.10545e-08
0.0296469
0.0216266
0.0296477
0.0216371
3.90717e-08
0.0154659
0.0884945
-3.16395e-11
0.0154617
0.0885065
-3.88835e-08
0.0154617
0.0885065
0.0154659
0.0884945
-3.58385e-08
0.0109253
0.0963237
7.70524e-11
0.0109192
0.0963232
3.56296e-08
0.0109192
0.0963232
0.0109253
0.0963237
7.62825e-08
0.00177293
0.166909
-7.39871e-11
0.00176976
0.166913
-7.64693e-08
0.00176976
0.166913
0.00177294
0.166909
5.02972e-08
-0.385689
0.150507
-5.30827e-11
-0.385705
0.150518
-5.00858e-08
-0.385705
0.150518
-0.385689
0.150507
-8.43444e-08
-0.529049
0.171975
1.17672e-10
-0.529022
0.171966
8.44752e-08
-0.529022
0.171966
-0.529049
0.171975
-1.61333e-07
0.459138
-0.123868
1.43618e-10
0.459129
-0.123873
1.61508e-07
0.459129
-0.123873
0.459138
-0.123868
-3.98278e-08
-0.51466
0.11427
-1.53865e-11
-0.514636
0.114277
3.97915e-08
-0.514636
0.114277
-0.51466
0.11427
-1.84871e-08
-0.0112492
0.0241215
-0.67861
-1.69776e-10
-0.0112182
0.0240925
-0.678601
1.84839e-08
-0.0112182
0.0240925
-0.678601
-0.0112492
0.0241215
-0.67861
2.72921e-08
0.0248868
-0.705925
-1.07891e-10
0.0249079
-0.705901
-2.73944e-08
0.0249079
-0.705901
0.0248869
-0.705925
-2.71379e-08
-0.403116
0.182659
-6.31118e-11
-0.403103
0.182663
2.70827e-08
-0.403102
0.182663
-0.403116
0.182659
7.47909e-08
0.0265446
-0.701504
-6.65187e-11
0.0265417
-0.701491
-7.49463e-08
0.0265417
-0.701491
0.0265446
-0.701504
8.00652e-09
-0.0118295
-0.687916
-8.48289e-11
-0.01184
-0.687899
-8.18723e-09
-0.01184
-0.687899
-0.0118295
-0.687916
-2.74304e-08
0.0375165
-0.667309
-6.38118e-11
0.0375008
-0.667317
2.73481e-08
0.0375008
-0.667317
0.0375165
-0.667309
9.15553e-08
-0.560948
0.390109
-1.41925e-11
-0.560984
0.390136
-9.16582e-08
-0.560984
0.390136
-0.560948
0.390109
4.11465e-08
0.328676
0.140839
-0.282924
-5.93894e-11
0.328674
0.140836
-0.282916
-4.09457e-08
0.328674
0.140836
-0.282916
0.328676
0.140839
-0.282924
-2.15392e-07
0.0879353
0.373931
-2.02396e-10
0.0879003
0.373932
2.15248e-07
0.0879003
0.373932
0.0879353
0.373931
1.10104e-07
0.276862
-0.199605
0.0635822
-9.12378e-11
0.276863
-0.199609
0.0635825
-1.10294e-07
0.276863
-0.199609
0.0635825
0.276862
-0.199605
0.0635822
-1.2619e-07
0.328524
0.0362739
-1.91276e-10
0.328499
0.0362634
1.26002e-07
0.328499
0.0362634
0.328524
0.036274
2.17379e-08
-0.116914
0.138282
-0.0195954
-2.39459e-10
-0.116905
0.13828
-0.0196049
-2.12351e-08
-0.116905
0.13828
-0.0196049
-0.116914
0.138282
-0.0195954
-8.50994e-08
-0.0653019
-0.146585
-6.34741e-11
-0.0652827
-0.146612
8.49199e-08
-0.0652827
-0.146612
-0.0653019
-0.146585
4.25128e-09
-0.0133311
-0.178943
-1.03738e-10
-0.0133151
-0.178942
-3.86937e-09
-0.0133151
-0.178942
-0.0133311
-0.178943
3.15642e-08
0.0261954
-0.163386
1.16044e-10
0.0262012
-0.163381
-3.14361e-08
0.0262012
-0.163381
0.0261954
-0.163386
2.94935e-08
0.0511305
-0.126119
-1.74649e-10
0.0511339
-0.126116
-2.96839e-08
0.0511339
-0.126116
0.0511305
-0.126119
-9.91429e-10
0.0607413
-0.0868673
-4.0249e-10
0.0607456
-0.0868678
9.95564e-10
0.0607456
-0.0868678
0.0607413
-0.0868673
-1.84819e-08
0.0634994
-0.0567837
-9.06166e-11
0.0635043
-0.0567832
1.85099e-08
0.0635043
-0.0567832
0.0634994
-0.0567837
-2.01197e-08
0.0374875
0.0615244
-0.0355125
2.84315e-10
0.0374866
0.0615289
-0.0355113
2.04144e-08
0.0374866
0.0615289
-0.0355113
0.0374875
0.0615244
-0.0355125
7.13225e-09
0.0344399
0.0457232
3.36707e-10
0.0344393
0.0457213
-6.82674e-09
0.0344393
0.0457213
0.0344399
0.0457232
-2.08155e-08
0.0298552
0.0391814
6.44818e-10
0.0298552
0.0391854
2.10065e-08
0.0298552
0.0391854
0.0298552
0.0391814
4.90466e-09
0.0244706
0.0316467
5.66294e-10
0.0244707
0.0316456
-4.35887e-09
0.0244707
0.0316456
0.0244706
0.0316467
-1.54932e-08
0.0203198
0.0288377
1.24733e-10
0.0203203
0.0288406
1.59667e-08
0.0203203
0.0288406
0.0203198
0.0288377
5.86661e-10
0.0164743
0.0258916
-1.43926e-10
0.0164749
0.0258913
-6.14186e-10
0.0164749
0.0258913
0.0164744
0.0258916
-1.28096e-08
0.0138151
0.0250059
-5.52704e-11
0.013816
0.0250076
1.26221e-08
0.013816
0.0250076
0.0138151
0.0250059
-4.59148e-09
0.0121878
0.0245852
2.34945e-10
0.0121888
0.0245855
4.68543e-09
0.0121888
0.0245855
0.0121878
0.0245852
-7.38006e-09
0.0114616
0.0248283
4.21741e-10
0.0114623
0.0248289
7.79651e-09
0.0114623
0.0248289
0.0114616
0.0248283
-5.75232e-09
-0.025863
0.0120103
0.0253143
3.8229e-10
-0.025864
0.0120113
0.025315
6.16303e-09
-0.025864
0.0120113
0.025315
-0.025863
0.0120103
0.0253143
-5.16627e-09
-0.0262362
0.0106181
3.79758e-10
-0.0262377
0.0106197
5.53246e-09
-0.0262377
0.0106197
-0.0262362
0.0106181
-5.05025e-09
-0.0265187
0.00799474
2.03138e-10
-0.026521
0.00799585
5.19339e-09
-0.026521
0.00799585
-0.0265187
0.00799474
-1.45809e-08
-0.0278
0.00404305
1.92851e-10
-0.0278021
0.00404491
1.47144e-08
-0.0278021
0.00404491
-0.0278
0.00404305
-9.90266e-09
-0.0302092
-0.0029548
2.3133e-10
-0.0302129
-0.00295317
9.98568e-09
-0.0302129
-0.00295317
-0.0302092
-0.0029548
-2.68868e-08
-0.031797
-0.0115257
1.20135e-10
-0.0318007
-0.0115234
2.68741e-08
-0.0318007
-0.0115234
-0.031797
-0.0115257
-3.49041e-08
-0.0336488
-0.0228474
1.38494e-10
-0.033654
-0.022846
3.48993e-08
-0.033654
-0.022846
-0.0336488
-0.0228474
-4.67784e-08
-0.0353514
-0.0366665
2.59817e-10
-0.0353561
-0.0366672
4.68048e-08
-0.0353561
-0.0366672
-0.0353514
-0.0366665
-6.7258e-08
-0.0395553
0.0533312
-0.0491273
2.27716e-10
-0.0395598
0.0533321
-0.0491285
6.72391e-08
-0.0395597
0.0533321
-0.0491285
-0.0395553
0.0533312
-0.0491273
-4.28677e-08
0.0760246
-0.0516295
1.70255e-10
0.0760261
-0.0516326
4.26959e-08
0.076026
-0.0516326
0.0760246
-0.0516294
6.27443e-08
0.0687271
-0.642831
-2.21522e-11
0.0687217
-0.64282
-6.28442e-08
0.0687217
-0.64282
0.0687271
-0.642831
-9.66104e-08
0.0788912
-0.211308
-9.68255e-11
0.0789151
-0.211313
9.66841e-08
0.0789151
-0.211313
0.0788912
-0.211308
3.26616e-07
-0.553026
0.121319
-4.29226e-10
-0.553028
0.121294
-3.26818e-07
-0.553028
0.121294
-0.553026
0.121319
1.35902e-07
-0.545729
0.0809273
-1.2244e-10
-0.545749
0.0809573
-1.3635e-07
-0.545749
0.0809573
-0.545729
0.0809274
1.40904e-07
-0.569537
0.0491384
-5.02263e-11
-0.569514
0.0491043
-1.41152e-07
-0.569514
0.0491043
-0.569537
0.0491384
1.40261e-07
-0.594983
0.0727576
3.47294e-11
-0.594995
0.072798
-1.4049e-07
-0.594995
0.072798
-0.594983
0.0727576
-1.0266e-07
0.35481
-0.0481085
8.06534e-11
0.354818
-0.0481149
1.02825e-07
0.354818
-0.0481149
0.35481
-0.0481085
-4.70152e-08
0.39724
0.151441
1.03955e-13
0.397239
0.151443
4.70498e-08
0.397239
0.151443
0.39724
0.151441
-1.07495e-07
0.37951
0.198022
-9.4114e-11
0.379498
0.198032
1.07421e-07
0.379498
0.198032
0.37951
0.198022
-2.31738e-08
0.369399
0.204345
-7.11212e-11
0.369391
0.204326
2.30593e-08
0.369391
0.204326
0.369399
0.204344
4.99723e-09
0.363735
0.225888
5.60818e-11
0.363725
0.225881
-4.97353e-09
0.363725
0.225881
0.363735
0.225888
-4.85993e-08
0.345811
0.260891
1.11145e-10
0.345799
0.260882
4.87347e-08
0.345799
0.260882
0.345811
0.260891
-3.89229e-08
0.328324
0.304099
-1.36371e-11
0.32832
0.304093
3.89674e-08
0.32832
0.304093
0.328324
0.304099
-9.61381e-09
0.301934
0.356777
-1.0964e-10
0.301944
0.356762
9.44577e-09
0.301944
0.356762
0.301934
0.356777
5.98704e-08
0.56496
0.148377
-1.1866e-10
0.564955
0.148383
-5.99138e-08
0.564955
0.148384
0.56496
0.148377
-1.00478e-07
-0.603271
0.04073
9.04636e-11
-0.603263
0.0407019
1.00362e-07
-0.603263
0.0407019
-0.603271
0.04073
-7.45681e-09
0.0513349
-0.0143349
1.5526e-10
0.0513357
-0.0143329
7.29051e-09
0.0513357
-0.0143328
0.0513349
-0.0143349
-5.3983e-08
0.051005
-0.00593492
3.28978e-10
0.0510019
-0.00594119
5.40316e-08
0.0510019
-0.00594118
0.051005
-0.00593491
1.79568e-08
0.058797
0.0111095
2.64005e-10
0.0587971
0.0111132
-1.77709e-08
0.0587971
0.0111132
0.058797
0.0111095
-7.87907e-09
0.113604
0.0998524
0.351503
1.10545e-10
0.113605
0.0998442
0.351506
8.01984e-09
0.113605
0.0998442
0.351506
0.113604
0.0998524
0.351503
-1.24307e-08
0.149006
0.353661
-1.95287e-10
0.148998
0.353673
1.23144e-08
0.148998
0.353673
0.149006
0.353661
1.01938e-07
0.0947965
0.427036
-2.69263e-10
0.0947972
0.427023
-1.02078e-07
0.0947972
0.427023
0.0947964
0.427036
-5.26128e-08
0.049454
0.0201654
1.33716e-10
0.0494548
0.0201598
5.27333e-08
0.0494548
0.0201598
0.049454
0.0201654
5.05633e-08
0.0711664
0.066782
-1.96245e-10
0.0711695
0.0667918
-5.03187e-08
0.0711695
0.0667918
0.0711665
0.066782
-3.36188e-08
0.086741
0.0807492
3.48753e-10
0.0867477
0.080745
3.35781e-08
0.0867477
0.080745
0.086741
0.0807492
2.8577e-08
0.140339
0.113311
5.73869e-10
0.140348
0.113312
-2.90699e-08
0.140348
0.113312
0.140339
0.113311
2.62176e-08
0.0759377
0.202683
2.07609e-10
0.0759368
0.202692
-2.72169e-08
0.0759367
0.202692
0.0759376
0.202683
-6.14375e-08
0.414649
0.122593
-1.10921e-10
0.414643
0.122609
6.1284e-08
0.414643
0.122609
0.414649
0.122593
4.02979e-08
-0.212213
0.285244
6.61725e-10
-0.212227
0.285237
-3.96097e-08
-0.212227
0.285237
-0.212213
0.285245
8.67396e-08
-0.124002
0.0250999
5.59756e-10
-0.124
0.0250847
-8.65202e-08
-0.124
0.0250847
-0.124002
0.0250999
-7.53678e-09
-0.0856931
0.0424406
-6.8825e-11
-0.0856986
0.0424436
7.49204e-09
-0.0856986
0.0424436
-0.0856931
0.0424406
5.01136e-08
-0.0636989
0.0447878
-1.07447e-10
-0.0636981
0.0447914
-4.99628e-08
-0.0636981
0.0447914
-0.0636989
0.0447878
-3.95867e-08
0.0152635
1.27598e-10
0.0152587
3.98121e-08
0.0152588
0.0152635
-1.39525e-08
0.072234
-0.0105443
3.58081e-10
0.0722399
-0.0105467
1.37663e-08
0.0722399
-0.0105467
0.072234
-0.0105443
-6.56672e-08
0.069082
-0.00278284
3.7552e-10
0.0690841
-0.00278546
6.57349e-08
0.0690841
-0.00278546
0.069082
-0.00278284
-1.37172e-07
-0.176279
0.0555657
-4.69127e-10
-0.176275
0.0555809
1.37099e-07
-0.176275
0.055581
-0.176279
0.0555657
-4.06199e-08
0.447524
0.115502
4.57565e-11
0.447531
0.115496
4.07994e-08
0.447531
0.115496
0.447524
0.115502
-2.37911e-08
0.432967
0.128161
2.92445e-10
0.432967
0.128168
2.40315e-08
0.432967
0.128168
0.432967
0.128161
-2.61078e-09
0.112059
-0.646604
8.20963e-11
0.11209
-0.646631
2.62746e-09
0.11209
-0.646631
0.112059
-0.646604
-2.65381e-08
0.0525171
-0.0576763
6.44717e-11
0.0525238
-0.0576757
2.63459e-08
0.0525238
-0.0576757
0.0525171
-0.0576763
-2.13895e-08
0.0483655
-0.0449757
9.99711e-11
0.0483681
-0.0449728
2.11706e-08
0.0483681
-0.0449728
0.0483655
-0.0449757
-1.13068e-08
0.044323
-0.032624
1.7499e-10
0.0443225
-0.0326217
1.11875e-08
0.0443225
-0.0326217
0.044323
-0.0326239
-1.21095e-08
0.0413149
-0.0198394
1.63207e-10
0.0413139
-0.0198374
1.21356e-08
0.0413139
-0.0198374
0.0413149
-0.0198394
-6.86552e-09
0.037905
-0.00811577
1.85081e-10
0.0379044
-0.00811391
6.84663e-09
0.0379044
-0.00811391
0.037905
-0.00811577
-4.18663e-09
0.0342173
0.000732868
2.42478e-10
0.0342172
0.000733985
4.23104e-09
0.0342172
0.000733983
0.0342173
0.000732869
-5.52387e-09
0.0320204
0.00624001
3.16186e-10
0.0320209
0.00624119
5.69304e-09
0.0320209
0.00624119
0.0320204
0.00624001
-2.04926e-09
0.029639
0.0103762
3.32096e-10
0.0296396
0.0103772
2.32458e-09
0.0296396
0.0103772
0.029639
0.0103762
-3.58409e-09
0.0275822
0.0126749
3.07929e-10
0.0275832
0.012676
3.92903e-09
0.0275832
0.012676
0.0275821
0.0126749
-4.29665e-09
0.0257229
0.0138695
2.8084e-10
0.0257241
0.0138704
4.64338e-09
0.0257241
0.0138704
0.0257229
0.0138695
-1.87654e-08
0.0253903
-0.021174
0.0573082
4.61376e-10
0.0253895
-0.0211728
0.0573122