/*--------------------------------*- C++ -*----------------------------------*\
| =========                 |                                                 |
| \\      /  F ield         | OpenFOAM: The Open Source CFD Toolbox           |
|  \\    /   O peration     | Version:  v1806                                 |
|   \\  /    A nd           | Web:      www.OpenFOAM.com                      |
|    \\/     M anipulation  |                                                 |
\*---------------------------------------------------------------------------*/
FoamFile
{
    version     2.0;
    format      ascii;
    class       volVectorField;
    location    "40";
    object      U;
}
// * * * * * * * * * * * * * * * * * * * * * * * * * * * * * * * * * * * * * //

dimensions      [0 1 -1 0 0 0 0];


internalField   nonuniform List<vector> 
4400
(
(0.233955 0.242164 0)
(0.276186 0.171894 0)
(0.289983 0.132333 0)
(0.298047 0.107603 0)
(0.3033 0.0924647 0)
(0.306321 0.0833815 0)
(0.3079 0.0775144 0)
(0.308616 0.07328 0)
(0.30879 0.070023 0)
(0.308603 0.0674608 0)
(0.308172 0.0654286 0)
(0.307572 0.0638095 0)
(0.30686 0.0625173 0)
(0.306076 0.061488 0)
(0.30525 0.060673 0)
(0.304404 0.0600337 0)
(0.303551 0.059539 0)
(0.302696 0.0591648 0)
(0.301845 0.0588928 0)
(0.301041 0.058684 0)
(0.241095 0.130929 0)
(0.26365 0.0993538 0)
(0.278747 0.092102 0)
(0.290667 0.0881449 0)
(0.29765 0.0830735 0)
(0.301596 0.0779176 0)
(0.304024 0.0734354 0)
(0.305514 0.0697529 0)
(0.306324 0.0667713 0)
(0.306636 0.0643632 0)
(0.306594 0.0624175 0)
(0.306303 0.0608429 0)
(0.30584 0.0595678 0)
(0.305259 0.0585375 0)
(0.304602 0.0577099 0)
(0.303895 0.0570518 0)
(0.303158 0.0565367 0)
(0.302403 0.0561442 0)
(0.301638 0.0558582 0)
(0.300913 0.0556456 0)
(0.222197 0.0984439 0)
(0.251287 0.0983799 0)
(0.271151 0.093414 0)
(0.283787 0.0858578 0)
(0.291863 0.0787153 0)
(0.297148 0.0731051 0)
(0.300598 0.0688964 0)
(0.302795 0.0656485 0)
(0.304122 0.063042 0)
(0.304838 0.0609039 0)
(0.305121 0.0591374 0)
(0.305095 0.0576769 0)
(0.304852 0.0564719 0)
(0.304457 0.0554825 0)
(0.303955 0.0546764 0)
(0.303381 0.0540276 0)
(0.302758 0.0535151 0)
(0.302103 0.0531227 0)
(0.301428 0.0528369 0)
(0.300786 0.0526308 0)
(0.238189 0.0676357 0)
(0.257515 0.0707862 0)
(0.271035 0.070634 0)
(0.281409 0.0696191 0)
(0.2891 0.0679121 0)
(0.294486 0.0656919 0)
(0.298169 0.0633061 0)
(0.300656 0.0610261 0)
(0.302281 0.058976 0)
(0.303275 0.0571877 0)
(0.303803 0.0556528 0)
(0.303991 0.0543488 0)
(0.303933 0.0532499 0)
(0.303697 0.0523315 0)
(0.303334 0.0515722 0)
(0.302883 0.0509536 0)
(0.302369 0.0504607 0)
(0.30181 0.0500816 0)
(0.301225 0.049806 0)
(0.300665 0.0496125 0)
(0.242343 0.0514255 0)
(0.257206 0.0595036 0)
(0.270021 0.0629883 0)
(0.279952 0.0633069 0)
(0.287259 0.0619849 0)
(0.292548 0.0600942 0)
(0.29633 0.0581637 0)
(0.298985 0.0563697 0)
(0.300794 0.0547474 0)
(0.301968 0.0532974 0)
(0.302668 0.0520153 0)
(0.303016 0.0508948 0)
(0.303103 0.0499272 0)
(0.302999 0.049102 0)
(0.302756 0.0484084 0)
(0.302414 0.0478362 0)
(0.301999 0.0473759 0)
(0.301532 0.0470204 0)
(0.301033 0.0467623 0)
(0.300554 0.0465854 0)
(0.253921 0.0395196 0)
(0.264226 0.0468274 0)
(0.273258 0.0508978 0)
(0.280822 0.0528198 0)
(0.286945 0.0534263 0)
(0.291698 0.0531952 0)
(0.295258 0.0524576 0)
(0.297852 0.0514623 0)
(0.299688 0.0503765 0)
(0.300936 0.0492995 0)
(0.301733 0.0482849 0)
(0.302185 0.0473597 0)
(0.302379 0.0465357 0)
(0.302378 0.0458163 0)
(0.302234 0.0452005 0)
(0.301984 0.0446852 0)
(0.301658 0.0442667 0)
(0.301276 0.0439419 0)
(0.300858 0.0437063 0)
(0.300454 0.0435485 0)
(0.26071 0.0313532 0)
(0.268033 0.0387294 0)
(0.275355 0.0435496 0)
(0.281847 0.0462374 0)
(0.287201 0.0474251 0)
(0.291435 0.0476683 0)
(0.29469 0.0473705 0)
(0.297129 0.0467862 0)
(0.298907 0.0460635 0)
(0.300157 0.0452892 0)
(0.300991 0.0445168 0)
(0.301502 0.0437805 0)
(0.301765 0.0431016 0)
(0.301841 0.0424926 0)
(0.301774 0.0419603 0)
(0.301602 0.041508 0)
(0.301351 0.0411366 0)
(0.301045 0.0408466 0)
(0.300701 0.0406364 0)
(0.300366 0.0404985 0)
(0.268423 0.0254552 0)
(0.273683 0.0317541 0)
(0.279009 0.0362827 0)
(0.283916 0.0392342 0)
(0.288189 0.0409974 0)
(0.291743 0.0419032 0)
(0.294585 0.0422079 0)
(0.29678 0.0421129 0)
(0.298423 0.0417713 0)
(0.299611 0.0412921 0)
(0.300432 0.0407493 0)
(0.300961 0.0401923 0)
(0.301263 0.0396533 0)
(0.301388 0.0391532 0)
(0.301379 0.0387053 0)
(0.301268 0.0383178 0)
(0.301082 0.0379957 0)
(0.300841 0.0377425 0)
(0.300563 0.0375589 0)
(0.300291 0.0374405 0)
(0.274041 0.0208265 0)
(0.277821 0.026507 0)
(0.281911 0.0308372 0)
(0.285855 0.0338713 0)
(0.289376 0.0358375 0)
(0.292359 0.0369915 0)
(0.294791 0.0375624 0)
(0.29671 0.0377332 0)
(0.298178 0.0376402 0)
(0.299265 0.0373815 0)
(0.300035 0.0370269 0)
(0.300551 0.036626 0)
(0.300864 0.0362142 0)
(0.301017 0.0358162 0)
(0.301048 0.0354494 0)
(0.300984 0.0351254 0)
(0.30085 0.0348525 0)
(0.300665 0.0346361 0)
(0.300445 0.0344791 0)
(0.300227 0.0343797 0)
(0.27936 0.0173437 0)
(0.28211 0.0221589 0)
(0.28512 0.0260197 0)
(0.288089 0.0289025 0)
(0.290824 0.0309355 0)
(0.293219 0.0322805 0)
(0.295229 0.0330907 0)
(0.296854 0.0335017 0)
(0.298124 0.0336272 0)
(0.299082 0.0335586 0)
(0.299778 0.0333655 0)
(0.300256 0.0331002 0)
(0.300559 0.0328007 0)
(0.300723 0.0324949 0)
(0.300778 0.0322027 0)
(0.300748 0.0319383 0)
(0.300656 0.031712 0)
(0.300516 0.031531 0)
(0.300345 0.0313994 0)
(0.300173 0.0313173 0)
(0.283563 0.014409 0)
(0.285561 0.0186079 0)
(0.287816 0.0220667 0)
(0.290105 0.0247511 0)
(0.292258 0.0267295 0)
(0.294174 0.0281102 0)
(0.295805 0.0290108 0)
(0.297146 0.0295422 0)
(0.298211 0.0297997 0)
(0.299028 0.0298616 0)
(0.299633 0.02979 0)
(0.300058 0.029633 0)
(0.300336 0.0294275 0)
(0.300496 0.0292012 0)
(0.300563 0.0289751 0)
(0.300557 0.0287646 0)
(0.300495 0.028581 0)
(0.300392 0.0284325 0)
(0.300262 0.0283243 0)
(0.30013 0.0282577 0)
(0.287298 0.0120719 0)
(0.28874 0.0156119 0)
(0.290385 0.0186135 0)
(0.292077 0.0210228 0)
(0.293701 0.0228709 0)
(0.295175 0.0242255 0)
(0.296457 0.0251664 0)
(0.297529 0.0257744 0)
(0.298395 0.0261247 0)
(0.299069 0.0262831 0)
(0.299575 0.0263043 0)
(0.299938 0.0262328 0)
(0.300181 0.0261037 0)
(0.300328 0.025944 0)
(0.300396 0.0257746 0)
(0.300404 0.0256111 0)
(0.300365 0.0254654 0)
(0.300292 0.025346 0)
(0.300195 0.0252586 0)
(0.300095 0.0252057 0)
(0.290332 0.0100188 0)
(0.291365 0.0130352 0)
(0.29256 0.0156294 0)
(0.29381 0.0177577 0)
(0.295026 0.0194332 0)
(0.296145 0.0206986 0)
(0.297128 0.0216109 0)
(0.297959 0.0222321 0)
(0.298639 0.0226221 0)
(0.299175 0.0228349 0)
(0.299582 0.0229169 0)
(0.299878 0.0229068 0)
(0.300081 0.022836 0)
(0.300207 0.0227294 0)
(0.300271 0.0226067 0)
(0.300286 0.022483 0)
(0.300263 0.0223699 0)
(0.300212 0.0222758 0)
(0.300142 0.0222066 0)
(0.300068 0.0221652 0)
(0.292929 0.00828912 0)
(0.293648 0.0107885 0)
(0.294487 0.0129755 0)
(0.295372 0.0148048 0)
(0.296243 0.0162771 0)
(0.297055 0.0174181 0)
(0.297779 0.0182665 0)
(0.298398 0.018867 0)
(0.29891 0.0192653 0)
(0.299318 0.0195047 0)
(0.299632 0.0196235 0)
(0.299863 0.019655 0)
(0.300023 0.0196266 0)
(0.300125 0.0195607 0)
(0.300179 0.0194752 0)
(0.300196 0.0193841 0)
(0.300183 0.0192982 0)
(0.300149 0.0192256 0)
(0.3001 0.0191719 0)
(0.300047 0.0191402 0)
(0.295027 0.00672205 0)
(0.295514 0.00877879 0)
(0.296085 0.0105931 0)
(0.296695 0.0121296 0)
(0.297299 0.0133855 0)
(0.297867 0.0143761 0)
(0.298377 0.0151281 0)
(0.298817 0.0156743 0)
(0.299183 0.0160498 0)
(0.299478 0.0162885 0)
(0.299706 0.0164215 0)
(0.299876 0.0164761 0)
(0.299995 0.0164754 0)
(0.300072 0.0164387 0)
(0.300114 0.0163815 0)
(0.30013 0.0163163 0)
(0.300123 0.0162526 0)
(0.300101 0.0161977 0)
(0.300067 0.0161569 0)
(0.300031 0.0161331 0)
(0.296742 0.00533236 0)
(0.297051 0.00696186 0)
(0.297416 0.00841475 0)
(0.297807 0.00965906 0)
(0.298198 0.0106889 0)
(0.298568 0.0115129 0)
(0.298902 0.0121489 0)
(0.299193 0.0126201 0)
(0.299437 0.0129523 0)
(0.299635 0.0131714 0)
(0.299789 0.0133016 0)
(0.299904 0.0133649 0)
(0.299986 0.0133799 0)
(0.30004 0.0133626 0)
(0.30007 0.013326 0)
(0.300081 0.0132805 0)
(0.300078 0.0132344 0)
(0.300064 0.013194 0)
(0.300043 0.0131637 0)
(0.300019 0.0131463 0)
(0.298063 0.00403538 0)
(0.298244 0.00527916 0)
(0.298457 0.00639302 0)
(0.298687 0.00735323 0)
(0.298918 0.00815455 0)
(0.299137 0.00880191 0)
(0.299336 0.00930707 0)
(0.29951 0.00968634 0)
(0.299656 0.00995828 0)
(0.299775 0.0101419 0)
(0.299868 0.0102554 0)
(0.299938 0.0103152 0)
(0.299988 0.010336 0)
(0.300021 0.01033 0)
(0.30004 0.0103075 0)
(0.300047 0.0102769 0)
(0.300046 0.0102446 0)
(0.300038 0.0102158 0)
(0.300025 0.0101941 0)
(0.300011 0.0101818 0)
(0.299041 0.00283119 0)
(0.299128 0.00370234 0)
(0.299232 0.00448723 0)
(0.299345 0.00516742 0)
(0.299459 0.00573852 0)
(0.299567 0.00620313 0)
(0.299666 0.00656858 0)
(0.299753 0.00684548 0)
(0.299826 0.00704623 0)
(0.299886 0.00718379 0)
(0.299933 0.00727073 0)
(0.299968 0.00731866 0)
(0.299993 0.00733785 0)
(0.30001 0.00733714 0)
(0.30002 0.00732394 0)
(0.300023 0.00730426 0)
(0.300023 0.0072829 0)
(0.300019 0.00726353 0)
(0.300013 0.00724891 0)
(0.300005 0.00724081 0)
(0.299673 0.00167386 0)
(0.299701 0.00219332 0)
(0.299736 0.0026607 0)
(0.299775 0.00306641 0)
(0.299814 0.00340812 0)
(0.299851 0.00368713 0)
(0.299885 0.00390748 0)
(0.299915 0.00407521 0)
(0.29994 0.00419747 0)
(0.299961 0.00428184 0)
(0.299977 0.00433572 0)
(0.299989 0.00436598 0)
(0.299998 0.00437875 0)
(0.300004 0.00437935 0)
(0.300007 0.00437222 0)
(0.300008 0.00436102 0)
(0.300008 0.00434865 0)
(0.300007 0.00433735 0)
(0.300004 0.00432881 0)
(0.300002 0.00432417 0)
(0.299984 0.000561822 0)
(0.299985 0.000727806 0)
(0.299987 0.000881449 0)
(0.299989 0.00101564 0)
(0.299991 0.00112889 0)
(0.299993 0.00122149 0)
(0.299994 0.00129471 0)
(0.299996 0.00135048 0)
(0.299997 0.00139117 0)
(0.299998 0.00141923 0)
(0.299999 0.00143714 0)
(0.3 0.00144716 0)
(0.3 0.00145134 0)
(0.3 0.00145146 0)
(0.3 0.00144899 0)
(0.3 0.00144517 0)
(0.3 0.00144097 0)
(0.3 0.00143714 0)
(0.3 0.00143425 0)
(0.3 0.0014327 0)
(0.0966353 -0.160997 0)
(0.076666 -0.136922 0)
(0.0645739 -0.114587 0)
(0.0561441 -0.0946166 0)
(0.0498605 -0.0764363 0)
(0.0450798 -0.0595841 0)
(0.0414781 -0.0437493 0)
(0.0388696 -0.0286765 0)
(0.0371404 -0.0141361 0)
(0.036222 8.33228e-05 0)
(0.0360795 0.0141813 0)
(0.0367077 0.0283529 0)
(0.0381307 0.0427956 0)
(0.0404066 0.0577172 0)
(0.043639 0.073342 0)
(0.0480042 0.0899195 0)
(0.0538194 0.107761 0)
(0.0617272 0.127369 0)
(0.0732455 0.149377 0)
(0.0926443 0.172751 0)
(0.168188 -0.101224 0)
(0.154691 -0.091866 0)
(0.142956 -0.0811868 0)
(0.133123 -0.0698111 0)
(0.12508 -0.0579994 0)
(0.118664 -0.0458839 0)
(0.113715 -0.0335558 0)
(0.110099 -0.0210808 0)
(0.107712 -0.00850432 0)
(0.106488 0.00414159 0)
(0.106388 0.0168325 0)
(0.10741 0.0295472 0)
(0.109582 0.0422641 0)
(0.112971 0.0549568 0)
(0.117689 0.0675874 0)
(0.123902 0.0800923 0)
(0.131859 0.0923842 0)
(0.141925 0.104459 0)
(0.154665 0.116444 0)
(0.170942 0.126842 0)
(0.187773 -0.064892 0)
(0.182719 -0.0593307 0)
(0.178172 -0.0529101 0)
(0.174146 -0.0457779 0)
(0.170661 -0.0380792 0)
(0.167743 -0.0299367 0)
(0.165416 -0.0214526 0)
(0.163701 -0.0127132 0)
(0.162613 -0.00379209 0)
(0.162165 0.00524584 0)
(0.162365 0.0143415 0)
(0.163219 0.023438 0)
(0.164733 0.0324781 0)
(0.16691 0.0414001 0)
(0.169753 0.0501341 0)
(0.173268 0.0585951 0)
(0.177462 0.0666835 0)
(0.182366 0.0743005 0)
(0.188079 0.0813151 0)
(0.194857 0.0871965 0)
(0.215079 -0.0407924 0)
(0.211528 -0.0365804 0)
(0.208238 -0.0320457 0)
(0.205281 -0.0272192 0)
(0.202707 -0.0221347 0)
(0.200553 -0.0168281 0)
(0.198845 -0.0113369 0)
(0.1976 -0.00570009 0)
(0.196831 4.24101e-05 0)
(0.196546 0.00584993 0)
(0.196753 0.0116812 0)
(0.197455 0.0174945 0)
(0.198654 0.0232475 0)
(0.200352 0.0288971 0)
(0.202548 0.0343991 0)
(0.205239 0.0397076 0)
(0.208422 0.0447782 0)
(0.212091 0.0495781 0)
(0.216248 0.0540644 0)
(0.220908 0.0580084 0)
(0.229464 -0.0292504 0)
(0.227667 -0.0260826 0)
(0.226042 -0.0226975 0)
(0.224605 -0.019113 0)
(0.223371 -0.0153515 0)
(0.222354 -0.011438 0)
(0.221567 -0.00739941 0)
(0.221021 -0.00326365 0)
(0.220724 0.000940623 0)
(0.220682 0.00518427 0)
(0.220899 0.00943777 0)
(0.221376 0.0136713 0)
(0.222111 0.0178545 0)
(0.223101 0.0219569 0)
(0.224338 0.0259471 0)
(0.225813 0.0297931 0)
(0.227517 0.0334631 0)
(0.229437 0.0369275 0)
(0.231566 0.040155 0)
(0.233899 0.0430792 0)
(0.244779 -0.0206887 0)
(0.243525 -0.0181632 0)
(0.242381 -0.0155358 0)
(0.241365 -0.0128157 0)
(0.240489 -0.0100133 0)
(0.239768 -0.00714022 0)
(0.239211 -0.00420901 0)
(0.238827 -0.00123323 0)
(0.238621 0.00177285 0)
(0.238599 0.00479434 0)
(0.238762 0.00781594 0)
(0.239111 0.0108221 0)
(0.239645 0.0137974 0)
(0.240361 0.0167264 0)
(0.241252 0.0195939 0)
(0.242313 0.0223853 0)
(0.243534 0.0250872 0)
(0.244906 0.0276901 0)
(0.246416 0.0301843 0)
(0.248055 0.0325242 0)
(0.254591 -0.0157083 0)
(0.253847 -0.0137163 0)
(0.253184 -0.0116544 0)
(0.252609 -0.00952878 0)
(0.252126 -0.00734675 0)
(0.251739 -0.00511648 0)
(0.251452 -0.00284695 0)
(0.251267 -0.000547739 0)
(0.251189 0.00177107 0)
(0.251217 0.00409905 0)
(0.251352 0.00642551 0)
(0.251595 0.00873964 0)
(0.251944 0.0110307 0)
(0.252397 0.0132878 0)
(0.252952 0.0155007 0)
(0.253604 0.017659 0)
(0.25435 0.0197531 0)
(0.255185 0.0217746 0)
(0.256104 0.0237163 0)
(0.257106 0.0255645 0)
(0.26406 -0.0119964 0)
(0.263537 -0.0103669 0)
(0.263071 -0.00869916 0)
(0.262664 -0.00699721 0)
(0.262321 -0.00526557 0)
(0.262047 -0.00350905 0)
(0.261843 -0.00173274 0)
(0.261713 5.80389e-05 0)
(0.261657 0.00185774 0)
(0.261679 0.00366069 0)
(0.261777 0.00546113 0)
(0.261951 0.00725325 0)
(0.262202 0.00903132 0)
(0.262527 0.0107897 0)
(0.262925 0.0125228 0)
(0.263392 0.0142254 0)
(0.263925 0.0158924 0)
(0.264521 0.0175205 0)
(0.265176 0.0191063 0)
(0.265884 0.0206346 0)
(0.270836 -0.00948231 0)
(0.270495 -0.0081573 0)
(0.270195 -0.00680554 0)
(0.269939 -0.00542991 0)
(0.269727 -0.00403353 0)
(0.269561 -0.00261982 0)
(0.269444 -0.00119239 0)
(0.269374 0.000244938 0)
(0.269354 0.00168822 0)
(0.269383 0.00313339 0)
(0.269462 0.00457632 0)
(0.26959 0.00601288 0)
(0.269767 0.00743894 0)
(0.269992 0.00885045 0)
(0.270264 0.0102435 0)
(0.270583 0.0116142 0)
(0.270945 0.012959 0)
(0.271351 0.0142748 0)
(0.271798 0.0155593 0)
(0.272284 0.0168071 0)
(0.277065 -0.0075671 0)
(0.276824 -0.0064653 0)
(0.276612 -0.00534694 0)
(0.27643 -0.00421403 0)
(0.27628 -0.00306874 0)
(0.276163 -0.00191328 0)
(0.276079 -0.000749982 0)
(0.27603 0.000418761 0)
(0.276016 0.00159051 0)
(0.276037 0.00276277 0)
(0.276094 0.00393306 0)
(0.276187 0.00509887 0)
(0.276314 0.00625773 0)
(0.276476 0.0074072 0)
(0.276671 0.00854488 0)
(0.276899 0.00966842 0)
(0.277159 0.0107756 0)
(0.277449 0.0118649 0)
(0.277767 0.0129347 0)
(0.278114 0.0139787 0)
(0.281827 -0.00612529 0)
(0.281662 -0.00521465 0)
(0.281519 -0.00429221 0)
(0.281397 -0.00335943 0)
(0.281298 -0.00241784 0)
(0.281222 -0.00146905 0)
(0.28117 -0.000514754 0)
(0.281142 0.000443317 0)
(0.281139 0.00140338 0)
(0.281159 0.00236363 0)
(0.281205 0.00332223 0)
(0.281274 0.00427737 0)
(0.281368 0.00522722 0)
(0.281485 0.00617 0)
(0.281626 0.00710396 0)
(0.281789 0.0080274 0)
(0.281975 0.00893867 0)
(0.282183 0.00983644 0)
(0.282412 0.0107196 0)
(0.282661 0.0115857 0)
(0.286067 -0.004983 0)
(0.285951 -0.00422255 0)
(0.285849 -0.00345412 0)
(0.285764 -0.00267879 0)
(0.285694 -0.00189766 0)
(0.285641 -0.00111187 0)
(0.285604 -0.000322586 0)
(0.285585 0.000468997 0)
(0.285583 0.00126167 0)
(0.285598 0.00205421 0)
(0.28563 0.00284538 0)
(0.285679 0.00363397 0)
(0.285746 0.00441876 0)
(0.285829 0.00519855 0)
(0.285929 0.00597214 0)
(0.286045 0.00673837 0)
(0.286177 0.00749612 0)
(0.286324 0.00824455 0)
(0.286486 0.00898294 0)
(0.286662 0.00970822 0)
(0.289415 -0.00405798 0)
(0.289335 -0.00342937 0)
(0.289266 -0.00279498 0)
(0.289208 -0.00215559 0)
(0.289161 -0.00151202 0)
(0.289126 -0.000865109 0)
(0.289103 -0.000215716 0)
(0.289092 0.000435275 0)
(0.289092 0.00108697 0)
(0.289105 0.00173845 0)
(0.28913 0.00238883 0)
(0.289167 0.00303718 0)
(0.289215 0.0036826 0)
(0.289276 0.0043242 0)
(0.289348 0.00496111 0)
(0.289431 0.00559245 0)
(0.289526 0.00621739 0)
(0.289631 0.00683524 0)
(0.289748 0.0074455 0)
(0.289874 0.00804672 0)
(0.292304 -0.00328981 0)
(0.29225 -0.00277129 0)
(0.292202 -0.00224866 0)
(0.292163 -0.00172251 0)
(0.292131 -0.00119343 0)
(0.292107 -0.00066206 0)
(0.292091 -0.00012901 0)
(0.292084 0.000405077 0)
(0.292084 0.000939557 0)
(0.292093 0.00147378 0)
(0.29211 0.00200709 0)
(0.292135 0.00253885 0)
(0.292168 0.0030684 0)
(0.292209 0.0035951 0)
(0.292258 0.00411833 0)
(0.292315 0.00463745 0)
(0.29238 0.00515184 0)
(0.292452 0.00566107 0)
(0.292531 0.00616476 0)
(0.292617 0.00666135 0)
(0.294589 -0.00263244 0)
(0.294553 -0.0022132 0)
(0.294522 -0.00179096 0)
(0.294496 -0.00136615 0)
(0.294476 -0.000939233 0)
(0.294461 -0.000510654 0)
(0.294451 -8.08819e-05 0)
(0.294447 0.00034961 0)
(0.294448 0.000780343 0)
(0.294454 0.00121084 0)
(0.294467 0.00164061 0)
(0.294484 0.00206917 0)
(0.294507 0.00249604 0)
(0.294536 0.00292076 0)
(0.294569 0.00334285 0)
(0.294608 0.00376183 0)
(0.294652 0.00417726 0)
(0.294701 0.00458877 0)
(0.294755 0.00499615 0)
(0.294814 0.00539852 0)
(0.296473 -0.00205934 0)
(0.29645 -0.00172753 0)
(0.296431 -0.00139357 0)
(0.296415 -0.00105778 0)
(0.296402 -0.000720491 0)
(0.296392 -0.000382041 0)
(0.296386 -4.27687e-05 0)
(0.296384 0.000296982 0)
(0.296384 0.000636864 0)
(0.296388 0.000976528 0)
(0.296396 0.00131563 0)
(0.296407 0.00165381 0)
(0.296421 0.00199072 0)
(0.296438 0.00232603 0)
(0.296459 0.00265939 0)
(0.296483 0.00299045 0)
(0.29651 0.00331888 0)
(0.296541 0.00364444 0)
(0.296574 0.00396702 0)
(0.296611 0.00428568 0)
(0.297901 -0.00154499 0)
(0.297888 -0.00129437 0)
(0.297877 -0.00104223 0)
(0.297868 -0.000788805 0)
(0.29786 -0.000534332 0)
(0.297855 -0.000279048 0)
(0.297852 -2.31964e-05 0)
(0.29785 0.000232978 0)
(0.297851 0.000489228 0)
(0.297854 0.000745303 0)
(0.297858 0.00100096 0)
(0.297865 0.00125594 0)
(0.297873 0.00151 0)
(0.297884 0.0017629 0)
(0.297896 0.0020144 0)
(0.29791 0.00226424 0)
(0.297926 0.00251218 0)
(0.297944 0.00275806 0)
(0.297964 0.00300181 0)
(0.297985 0.00324285 0)
(0.298967 -0.00107456 0)
(0.29896 -0.000898902 0)
(0.298955 -0.000722237 0)
(0.298951 -0.000544722 0)
(0.298947 -0.000366518 0)
(0.298944 -0.000187786 0)
(0.298943 -8.68982e-06 0)
(0.298942 0.000170606 0)
(0.298942 0.000349936 0)
(0.298944 0.000529132 0)
(0.298946 0.000708028 0)
(0.298949 0.000886457 0)
(0.298953 0.00106425 0)
(0.298957 0.00124125 0)
(0.298963 0.00141729 0)
(0.29897 0.00159219 0)
(0.298977 0.00176579 0)
(0.298985 0.00193799 0)
(0.298995 0.00210874 0)
(0.299005 0.00227751 0)
(0.299658 -0.000632623 0)
(0.299656 -0.000528884 0)
(0.299654 -0.000424573 0)
(0.299653 -0.000319782 0)
(0.299652 -0.0002146 0)
(0.299651 -0.000109123 0)
(0.29965 -3.44499e-06 0)
(0.29965 0.000102337 0)
(0.29965 0.000208127 0)
(0.29965 0.000313828 0)
(0.299651 0.000419341 0)
(0.299652 0.00052457 0)
(0.299653 0.000629419 0)
(0.299654 0.000733793 0)
(0.299656 0.000837596 0)
(0.299658 0.00094073 0)
(0.29966 0.00104309 0)
(0.299662 0.00114462 0)
(0.299664 0.00124536 0)
(0.299666 0.00134521 0)
(0.299989 -0.00020899 0)
(0.299989 -0.000174445 0)
(0.299989 -0.000139708 0)
(0.299989 -0.000104803 0)
(0.299989 -6.97615e-05 0)
(0.299989 -3.46117e-05 0)
(0.299989 6.1789e-07 0)
(0.299989 3.58989e-05 0)
(0.299989 7.12034e-05 0)
(0.299989 0.000106504 0)
(0.299988 0.000141774 0)
(0.299988 0.000176988 0)
(0.299988 0.000212124 0)
(0.299988 0.000247159 0)
(0.299988 0.000282074 0)
(0.299988 0.000316847 0)
(0.299988 0.000351468 0)
(0.299987 0.000386006 0)
(0.299987 0.000420593 0)
(0.299987 0.00045471 0)
(0.283963 -0.10417 0)
(0.282855 -0.107646 0)
(0.281939 -0.111608 0)
(0.281283 -0.116171 0)
(0.280946 -0.1214 0)
(0.280954 -0.12732 0)
(0.281271 -0.133922 0)
(0.281779 -0.141154 0)
(0.282255 -0.148911 0)
(0.282361 -0.157024 0)
(0.281651 -0.165261 0)
(0.279578 -0.173333 0)
(0.275526 -0.180898 0)
(0.268841 -0.187571 0)
(0.258858 -0.192922 0)
(0.244934 -0.196494 0)
(0.226465 -0.197923 0)
(0.202899 -0.197056 0)
(0.173718 -0.193341 0)
(0.138394 -0.183519 0)
(0.277805 -0.078206 0)
(0.275418 -0.0787965 0)
(0.272672 -0.0794584 0)
(0.26959 -0.0801688 0)
(0.2662 -0.0809908 0)
(0.262549 -0.0819993 0)
(0.258701 -0.0832714 0)
(0.254738 -0.0848838 0)
(0.250747 -0.0869047 0)
(0.246804 -0.0893803 0)
(0.242954 -0.0923212 0)
(0.239179 -0.0956872 0)
(0.235376 -0.0993742 0)
(0.231342 -0.103202 0)
(0.226773 -0.106909 0)
(0.221289 -0.110151 0)
(0.214473 -0.112505 0)
(0.205919 -0.113441 0)
(0.195269 -0.112268 0)
(0.182422 -0.108252 0)
(0.275452 -0.0812396 0)
(0.274017 -0.0821294 0)
(0.272403 -0.0829504 0)
(0.270575 -0.0837006 0)
(0.268482 -0.0843452 0)
(0.266068 -0.0848519 0)
(0.263272 -0.0851952 0)
(0.260042 -0.0853563 0)
(0.256335 -0.0853246 0)
(0.252127 -0.0850982 0)
(0.247416 -0.0846831 0)
(0.24223 -0.0840895 0)
(0.236621 -0.0833259 0)
(0.23067 -0.0823902 0)
(0.224471 -0.0812606 0)
(0.218129 -0.0798856 0)
(0.211747 -0.078176 0)
(0.205418 -0.0759958 0)
(0.199232 -0.0731661 0)
(0.193304 -0.0695026 0)
(0.270208 -0.062215 0)
(0.268199 -0.0624028 0)
(0.26614 -0.0626095 0)
(0.264035 -0.0628082 0)
(0.26189 -0.0629921 0)
(0.25971 -0.063148 0)
(0.257499 -0.0632549 0)
(0.25525 -0.0632851 0)
(0.252954 -0.0632054 0)
(0.250593 -0.062978 0)
(0.248141 -0.0625616 0)
(0.245568 -0.0619143 0)
(0.242845 -0.0609953 0)
(0.239942 -0.0597678 0)
(0.23684 -0.0582002 0)
(0.233533 -0.0562681 0)
(0.230031 -0.0539539 0)
(0.226367 -0.0512471 0)
(0.222597 -0.0481451 0)
(0.218802 -0.0446548 0)
(0.27303 -0.056643 0)
(0.271541 -0.0562971 0)
(0.26993 -0.0558703 0)
(0.268199 -0.055365 0)
(0.266347 -0.0547768 0)
(0.264374 -0.0541022 0)
(0.262285 -0.0533389 0)
(0.260086 -0.0524846 0)
(0.257787 -0.0515364 0)
(0.255403 -0.0504906 0)
(0.252952 -0.0493413 0)
(0.250452 -0.0480801 0)
(0.247928 -0.0466959 0)
(0.245401 -0.0451745 0)
(0.242895 -0.0434992 0)
(0.240432 -0.0416514 0)
(0.238034 -0.0396122 0)
(0.235719 -0.037364 0)
(0.233507 -0.0348926 0)
(0.231417 -0.0321888 0)
(0.273499 -0.0463232 0)
(0.272209 -0.0459257 0)
(0.270901 -0.0454801 0)
(0.269576 -0.0449781 0)
(0.268234 -0.0444113 0)
(0.266873 -0.0437709 0)
(0.265492 -0.043048 0)
(0.26409 -0.0422336 0)
(0.262666 -0.0413187 0)
(0.261217 -0.0402953 0)
(0.259745 -0.0391558 0)
(0.258248 -0.0378941 0)
(0.256729 -0.0365052 0)
(0.255192 -0.0349854 0)
(0.253643 -0.0333328 0)
(0.252092 -0.0315469 0)
(0.25055 -0.0296283 0)
(0.249031 -0.0275792 0)
(0.247551 -0.025403 0)
(0.246127 -0.0231043 0)
(0.276758 -0.0398992 0)
(0.275722 -0.0392844 0)
(0.27465 -0.0386172 0)
(0.273543 -0.0378981 0)
(0.272406 -0.0371253 0)
(0.27124 -0.0362971 0)
(0.270052 -0.0354118 0)
(0.268845 -0.0344676 0)
(0.267626 -0.0334622 0)
(0.266402 -0.0323931 0)
(0.265179 -0.0312579 0)
(0.263964 -0.0300534 0)
(0.262764 -0.0287768 0)
(0.261588 -0.0274252 0)
(0.260442 -0.0259957 0)
(0.259333 -0.024486 0)
(0.258269 -0.0228946 0)
(0.257256 -0.0212203 0)
(0.256302 -0.0194635 0)
(0.255411 -0.0176253 0)
(0.279377 -0.0335751 0)
(0.27858 -0.0329866 0)
(0.277777 -0.032355 0)
(0.276969 -0.0316804 0)
(0.276156 -0.0309598 0)
(0.275339 -0.0301904 0)
(0.274519 -0.0293698 0)
(0.273698 -0.028496 0)
(0.272877 -0.0275671 0)
(0.272059 -0.0265816 0)
(0.271243 -0.0255385 0)
(0.270435 -0.0244371 0)
(0.269636 -0.0232771 0)
(0.268849 -0.0220587 0)
(0.268079 -0.0207823 0)
(0.267329 -0.0194492 0)
(0.266605 -0.0180607 0)
(0.26591 -0.0166188 0)
(0.265251 -0.0151255 0)
(0.264633 -0.0135837 0)
(0.282482 -0.0285601 0)
(0.281847 -0.0279468 0)
(0.281204 -0.0272995 0)
(0.280555 -0.0266189 0)
(0.279901 -0.0259042 0)
(0.279245 -0.0251545 0)
(0.278587 -0.0243692 0)
(0.277932 -0.0235479 0)
(0.277281 -0.02269 0)
(0.276638 -0.0217949 0)
(0.276004 -0.0208622 0)
(0.275383 -0.0198917 0)
(0.274777 -0.018883 0)
(0.274191 -0.0178361 0)
(0.273625 -0.0167512 0)
(0.273084 -0.0156286 0)
(0.27257 -0.0144689 0)
(0.272086 -0.0132731 0)
(0.271633 -0.0120422 0)
(0.271216 -0.010778 0)
(0.285323 -0.0242461 0)
(0.284849 -0.0236824 0)
(0.284375 -0.0230901 0)
(0.283902 -0.0224707 0)
(0.283429 -0.0218234 0)
(0.282959 -0.0211472 0)
(0.282492 -0.0204417 0)
(0.282029 -0.0197066 0)
(0.281572 -0.0189417 0)
(0.281121 -0.0181468 0)
(0.280679 -0.0173222 0)
(0.280246 -0.0164679 0)
(0.279825 -0.0155845 0)
(0.279416 -0.0146724 0)
(0.279022 -0.0137324 0)
(0.278644 -0.0127654 0)
(0.278284 -0.0117724 0)
(0.277945 -0.0107546 0)
(0.277627 -0.00971349 0)
(0.277333 -0.00865042 0)
(0.288011 -0.0205393 0)
(0.287644 -0.0200147 0)
(0.287276 -0.0194685 0)
(0.28691 -0.0189016 0)
(0.286544 -0.0183137 0)
(0.286182 -0.0177045 0)
(0.285822 -0.0170739 0)
(0.285468 -0.0164221 0)
(0.285119 -0.0157489 0)
(0.284777 -0.0150545 0)
(0.284444 -0.0143392 0)
(0.28412 -0.013603 0)
(0.283806 -0.0128464 0)
(0.283505 -0.0120696 0)
(0.283217 -0.0112734 0)
(0.282943 -0.0104581 0)
(0.282684 -0.00962454 0)
(0.282442 -0.00877351 0)
(0.282218 -0.00790592 0)
(0.282013 -0.0070228 0)
(0.290453 -0.0173803 0)
(0.290186 -0.0169139 0)
(0.289919 -0.0164296 0)
(0.289655 -0.0159288 0)
(0.289393 -0.0154113 0)
(0.289134 -0.0148768 0)
(0.288878 -0.0143253 0)
(0.288626 -0.0137569 0)
(0.28838 -0.0131718 0)
(0.288139 -0.0125701 0)
(0.287904 -0.0119521 0)
(0.287676 -0.0113182 0)
(0.287456 -0.0106687 0)
(0.287244 -0.0100041 0)
(0.287042 -0.00932494 0)
(0.28685 -0.00863185 0)
(0.286669 -0.00792549 0)
(0.286499 -0.0072066 0)
(0.286342 -0.00647597 0)
(0.286197 -0.00573446 0)
(0.292605 -0.0145699 0)
(0.292406 -0.0141588 0)
(0.292208 -0.0137342 0)
(0.292011 -0.0132969 0)
(0.291817 -0.0128469 0)
(0.291625 -0.012384 0)
(0.291437 -0.0119084 0)
(0.291252 -0.0114202 0)
(0.291071 -0.0109196 0)
(0.290895 -0.0104068 0)
(0.290723 -0.00988196 0)
(0.290558 -0.00934546 0)
(0.290399 -0.00879759 0)
(0.290247 -0.0082387 0)
(0.290102 -0.00766921 0)
(0.289965 -0.00708957 0)
(0.289836 -0.00650028 0)
(0.289717 -0.00590186 0)
(0.289606 -0.00529491 0)
(0.289506 -0.00468006 0)
(0.294495 -0.0121139 0)
(0.294356 -0.0117615 0)
(0.294218 -0.0113982 0)
(0.294082 -0.011025 0)
(0.293948 -0.0106418 0)
(0.293815 -0.0102485 0)
(0.293686 -0.00984522 0)
(0.293558 -0.00943216 0)
(0.293434 -0.00900948 0)
(0.293314 -0.00857736 0)
(0.293197 -0.00813604 0)
(0.293084 -0.00768579 0)
(0.292975 -0.00722688 0)
(0.292871 -0.00675966 0)
(0.292773 -0.00628448 0)
(0.292679 -0.00580171 0)
(0.292591 -0.00531179 0)
(0.29251 -0.00481515 0)
(0.292435 -0.00431227 0)
(0.292366 -0.00380365 0)
(0.296084 -0.0098737 0)
(0.295988 -0.00957816 0)
(0.295892 -0.00927442 0)
(0.295798 -0.00896315 0)
(0.295706 -0.00864426 0)
(0.295615 -0.00831778 0)
(0.295525 -0.0079838 0)
(0.295438 -0.00764247 0)
(0.295353 -0.00729395 0)
(0.29527 -0.00693839 0)
(0.29519 -0.006576 0)
(0.295113 -0.00620698 0)
(0.29504 -0.00583156 0)
(0.294969 -0.00545 0)
(0.294902 -0.00506257 0)
(0.294839 -0.00466956 0)
(0.294781 -0.00427128 0)
(0.294726 -0.00386807 0)
(0.294676 -0.00346027 0)
(0.29463 -0.00304827 0)
(0.297408 -0.00784864 0)
(0.297348 -0.00760943 0)
(0.297288 -0.0073638 0)
(0.297228 -0.00711248 0)
(0.29717 -0.00685539 0)
(0.297113 -0.00659252 0)
(0.297057 -0.00632397 0)
(0.297003 -0.00604987 0)
(0.296949 -0.00577034 0)
(0.296898 -0.00548553 0)
(0.296848 -0.00519559 0)
(0.2968 -0.00490069 0)
(0.296754 -0.00460103 0)
(0.29671 -0.0042968 0)
(0.296668 -0.00398823 0)
(0.296629 -0.00367553 0)
(0.296592 -0.00335897 0)
(0.296558 -0.00303879 0)
(0.296527 -0.00271527 0)
(0.296498 -0.00238869 0)
(0.298449 -0.00595408 0)
(0.298413 -0.00576971 0)
(0.298378 -0.0055807 0)
(0.298343 -0.00538759 0)
(0.298308 -0.00519031 0)
(0.298275 -0.00498887 0)
(0.298242 -0.00478333 0)
(0.29821 -0.0045738 0)
(0.298178 -0.00436037 0)
(0.298148 -0.00414316 0)
(0.298119 -0.00392229 0)
(0.298091 -0.00369788 0)
(0.298064 -0.00347007 0)
(0.298038 -0.00323901 0)
(0.298014 -0.00300486 0)
(0.297991 -0.00276778 0)
(0.29797 -0.00252795 0)
(0.29795 -0.00228556 0)
(0.297932 -0.0020408 0)
(0.297915 -0.00179387 0)
(0.299229 -0.00417977 0)
(0.299212 -0.0040493 0)
(0.299195 -0.00391549 0)
(0.299178 -0.00377887 0)
(0.299162 -0.00363939 0)
(0.299146 -0.00349705 0)
(0.29913 -0.00335189 0)
(0.299115 -0.003204 0)
(0.2991 -0.00305346 0)
(0.299085 -0.00290034 0)
(0.299071 -0.00274472 0)
(0.299058 -0.0025867 0)
(0.299045 -0.00242637 0)
(0.299033 -0.00226384 0)
(0.299021 -0.00209922 0)
(0.29901 -0.00193263 0)
(0.299 -0.00176419 0)
(0.29899 -0.00159402 0)
(0.298982 -0.00142227 0)
(0.298974 -0.00124907 0)
(0.299741 -0.00247222 0)
(0.299736 -0.00239445 0)
(0.299731 -0.0023149 0)
(0.299726 -0.00223375 0)
(0.299721 -0.00215092 0)
(0.299716 -0.00206642 0)
(0.299711 -0.00198029 0)
(0.299707 -0.00189256 0)
(0.299702 -0.0018033 0)
(0.299697 -0.00171255 0)
(0.299692 -0.00162035 0)
(0.299688 -0.00152676 0)
(0.299684 -0.00143183 0)
(0.29968 -0.00133564 0)
(0.299676 -0.00123824 0)
(0.299672 -0.00113971 0)
(0.299669 -0.00104011 0)
(0.299666 -0.000939526 0)
(0.299663 -0.000838027 0)
(0.299661 -0.000735699 0)
(0.29999 -0.000825667 0)
(0.29999 -0.000799127 0)
(0.29999 -0.000771822 0)
(0.29999 -0.000744224 0)
(0.29999 -0.000716218 0)
(0.29999 -0.000687736 0)
(0.29999 -0.000658771 0)
(0.29999 -0.000629332 0)
(0.29999 -0.000599424 0)
(0.29999 -0.000569055 0)
(0.29999 -0.000538236 0)
(0.29999 -0.000506978 0)
(0.29999 -0.000475298 0)
(0.29999 -0.000443212 0)
(0.29999 -0.000410739 0)
(0.29999 -0.000377899 0)
(0.29999 -0.000344714 0)
(0.299989 -0.000311207 0)
(0.299989 -0.000277401 0)
(0.299989 -0.000243319 0)
(0.0441352 -0.0438639 0)
(0.0320047 -0.0345337 0)
(0.0235999 -0.0265576 0)
(0.0175512 -0.020344 0)
(0.0130706 -0.0154187 0)
(0.00968339 -0.0114564 0)
(0.00708429 -0.0082815 0)
(0.00506736 -0.00576591 0)
(0.00348935 -0.00380129 0)
(0.00224838 -0.00229737 0)
(0.0012709 -0.00117941 0)
(0.0005036 -0.000384469 0)
(-9.16068e-05 0.000141756 0)
(-0.000540671 0.00044798 0)
(-0.000858981 0.000579365 0)
(-0.00105217 0.000575731 0)
(-0.0011173 0.000473106 0)
(-0.00104214 0.000311916 0)
(-0.000802153 0.000143609 0)
(-0.000356407 3.24638e-05 0)
(0.0646876 -0.0394875 0)
(0.0545417 -0.0355122 0)
(0.0458731 -0.0312129 0)
(0.0384499 -0.0270541 0)
(0.0320727 -0.0231473 0)
(0.0265842 -0.0195405 0)