x,y,z,p
0,0,0,0.000308228
0,0.1,0,0.000494729
0,0.2,0,0.000681229
0,0.3,0,0.00086773
0,0.4,0,0.00105423
0,0.5,0,0.0012474
0,0.6,0,0.0014917
0,0.7,0,0.00173601
0,0.8,0,0.00198031
0,0.9,0,0.00222461
0,1,0,0.00246676
0,1.1,0,0.00270172
0,1.2,0,0.00293668
0,1.3,0,0.00317164
0,1.4,0,0.0034066
0,1.5,0,0.00363777
0,1.6,0,0.00386178
0,1.7,0,0.00408578
0,1.8,0,0.00430978
0,1.9,0,0.00453379
0,2,0,0.004752
0,2.1,0,0.00496345
0,2.2,0,0.0051749
0,2.3,0,0.00538635
0,2.4,0,0.0055978
0,2.5,0,0.00580021
0,2.6,0,0.00599598
0,2.7,0,0.00619175
0,2.8,0,0.00638751
0,2.9,0,0.00658328
0,3,0,0.00676554
0,3.1,0,0.0069418
0,3.2,0,0.00711806
0,3.3,0,0.00729432
0,3.4,0,0.00747058
0,3.5,0,0.00762886
0,3.6,0,0.00778285
0,3.7,0,0.00793685
0,3.8,0,0.00809085
0,3.9,0,0.00824485
0,4,0,0.00837616
0,4.1,0,0.00850558
0,4.2,0,0.008635
0,4.3,0,0.00876441
0,4.4,0,0.00889281
0,4.5,0,0.00899569
0,4.6,0,0.00909858
0,4.7,0,0.00920146
0,4.8,0,0.00930434
0,4.9,0,0.00940289
0,5,0,0.00947763
0,5.1,0,0.00955237
0,5.2,0,0.0096271
0,5.3,0,0.00970184
0,5.4,0,0.00976867
0,5.5,0,0.00981401
0,5.6,0,0.00985935
0,5.7,0,0.0099047
0,5.8,0,0.00995004
0,5.9,0,0.00998378
0,6,0,0.00999897
0,6.1,0,0.0100141
0,6.2,0,0.0100293
0,6.3,0,0.0100445
0,6.4,0,0.0100445
0,6.5,0,0.0100292
0,6.6,0,0.010014
0,6.7,0,0.00999872
0,6.8,0,0.00998347
0,6.9,0,0.00994963
0,7,0,0.00990418
0,7.1,0,0.00985873
0,7.2,0,0.00981328
0,7.3,0,0.00976783
0,7.4,0,0.00970091
0,7.5,0,0.00962607
0,7.6,0,0.00955124
0,7.7,0,0.0094764
0,7.8,0,0.00940157
0,7.9,0,0.00930293
0,8,0,0.00919997
0,8.1,0,0.00909701
0,8.2,0,0.00899405
0,8.3,0,0.00889109
0,8.4,0,0.00876262
0,8.5,0,0.00863314
0,8.6,0,0.00850366
0,8.7,0,0.00837418
0,8.8,0,0.00824281
0,8.9,0,0.00808882
0,9,0,0.00793482
0,9.1,0,0.00778083
0,9.2,0,0.00762684
0,9.3,0,0.00746858
0,9.4,0,0.00729244
0,9.5,0,0.0071163
0,9.6,0,0.00694016
0,9.7,0,0.00676402
0,9.8,0,0.00658191
0,9.9,0,0.00638638
0,10,0,0.00619085
0,10.1,0,0.00599532
0,10.2,0,0.0057998
0,10.3,0,0.00559737
0,10.4,0,0.00538554
0,10.5,0,0.00517371
0,10.6,0,0.00496189
0,10.7,0,0.00475006
0,10.8,0,0.00453122
0,10.9,0,0.00430638
0,11,0,0.00408154
0,11.1,0,0.00385669
0,11.2,0,0.00363185
0,11.3,0,0.00340033
0,11.4,0,0.00316527
0,11.5,0,0.00293021
0,11.6,0,0.00269515
0,11.7,0,0.00246009
0,11.8,0,0.00221834
0,11.9,0,0.00197458
0,12,0,0.00173083
0,12.1,0,0.00148707
0,12.2,0,0.00124331
0,12.3,0,0.00105072
0,12.4,0,0.00086479
0,12.5,0,0.000678865
0,12.6,0,0.00049294
0,12.7,0,0.000307015
0.1,0,0,0.000246582
0.1,0.1,0,0.000433124
0.1,0.2,0,0.000619625
0.1,0.3,0,0.000806125
0.1,0.4,0,0.00099801
0.1,0.5,0,0.00124651
0.1,0.6,0,0.00149266
0.1,0.7,0,0.00173696
0.1,0.8,0,0.00198127
0.1,0.9,0,0.00222541
0.1,1,0,0.00246761
0.1,1.1,0,0.0027046
0.1,1.2,0,0.00293956
0.1,1.3,0,0.00317452
0.1,1.4,0,0.00340954
0.1,1.5,0,0.00364162
0.1,1.6,0,0.00386697
0.1,1.7,0,0.00409098
0.1,1.8,0,0.00431498
0.1,1.9,0,0.00453935
0.1,2,0,0.00475829
0.1,2.1,0,0.00497006
0.1,2.2,0,0.00518151
0.1,2.3,0,0.00539296
0.1,2.4,0,0.00560505
0.1,2.5,0,0.00580861
0.1,2.6,0,0.00600485
0.1,2.7,0,0.00620062
0.1,2.8,0,0.00639639
0.1,2.9,0,0.00659242
0.1,3,0,0.00677556
0.1,3.1,0,0.00695213
0.1,3.2,0,0.00712839
0.1,3.3,0,0.00730464
0.1,3.4,0,0.00748101
0.1,3.5,0,0.00764021
0.1,3.6,0,0.00779439
0.1,3.7,0,0.00794839
0.1,3.8,0,0.00810239
0.1,3.9,0,0.00825635
0.1,4,0,0.00838867
0.1,4.1,0,0.00851815
0.1,4.2,0,0.00864757
0.1,4.3,0,0.00877698
0.1,4.4,0,0.0089053
0.1,4.5,0,0.00900912
0.1,4.6,0,0.009112
0.1,4.7,0,0.00921488
0.1,4.8,0,0.00931775
0.1,4.9,0,0.00941631
0.1,5,0,0.00949175
0.1,5.1,0,0.00956649
0.1,5.2,0,0.00964123
0.1,5.3,0,0.00971591
0.1,5.4,0,0.00978277
0.1,5.5,0,0.00982864
0.1,5.6,0,0.00987398
0.1,5.7,0,0.00991933
0.1,5.8,0,0.00996453
0.1,5.9,0,0.00999828
0.1,6,0,0.0100138
0.1,6.1,0,0.010029
0.1,6.2,0,0.0100442
0.1,6.3,0,0.0100591
0.1,6.4,0,0.0100591
0.1,6.5,0,0.0100441
0.1,6.6,0,0.0100289
0.1,6.7,0,0.0100136
0.1,6.8,0,0.00999793
0.1,6.9,0,0.0099641
0.1,7,0,0.00991883
0.1,7.1,0,0.00987338
0.1,7.2,0,0.00982793
0.1,7.3,0,0.00978186
0.1,7.4,0,0.00971494
0.1,7.5,0,0.00964018
0.1,7.6,0,0.00956535
0.1,7.7,0,0.00949051
0.1,7.8,0,0.00941491
0.1,7.9,0,0.00931634
0.1,8,0,0.00921341
0.1,8.1,0,0.00911045
0.1,8.2,0,0.00900748
0.1,8.3,0,0.00890351
0.1,8.4,0,0.00877518
0.1,8.5,0,0.00864571
0.1,8.6,0,0.00851622
0.1,8.7,0,0.00838668
0.1,8.8,0,0.00825425
0.1,8.9,0,0.00810032
0.1,9,0,0.00794633
0.1,9.1,0,0.00779233
0.1,9.2,0,0.00763813
0.1,9.3,0,0.00747889
0.1,9.4,0,0.00730271
0.1,9.5,0,0.00712657
0.1,9.6,0,0.00695043
0.1,9.7,0,0.00677394
0.1,9.8,0,0.00659091
0.1,9.9,0,0.00639521
0.1,10,0,0.00619968
0.1,10.1,0,0.00600415
0.1,10.2,0,0.00580817
0.1,10.3,0,0.0056049
0.1,10.4,0,0.00539282
0.1,10.5,0,0.00518099
0.1,10.6,0,0.00496917
0.1,10.7,0,0.00475675
0.1,10.8,0,0.0045371
0.1,10.9,0,0.00431203
0.1,11,0,0.00408718
0.1,11.1,0,0.00386234
0.1,11.2,0,0.0036367
0.1,11.3,0,0.00340484
0.1,11.4,0,0.00316983
0.1,11.5,0,0.00293477
0.1,11.6,0,0.00269971
0.1,11.7,0,0.00246306
0.1,11.8,0,0.0022226
0.1,11.9,0,0.00197933
0.1,12,0,0.00173558
0.1,12.1,0,0.00149182
0.1,12.2,0,0.00124572
0.1,12.3,0,0.000996895
0.1,12.4,0,0.000804766
0.1,12.5,0,0.00061884
0.1,12.6,0,0.000432915
0.1,12.7,0,0.000245612
0.2,0,0,0.000184937
0.2,0.1,0,0.000371479
0.2,0.2,0,0.00055802
0.2,0.3,0,0.000748107
0.2,0.4,0,0.000996849
0.2,0.5,0,0.00124538
0.2,0.6,0,0.00149179
0.2,0.7,0,0.00173792
0.2,0.8,0,0.00198209
0.2,0.9,0,0.00222556
0.2,1,0,0.00246784
0.2,1.1,0,0.00270549
0.2,1.2,0,0.00294244
0.2,1.3,0,0.00317745
0.2,1.4,0,0.0034126
0.2,1.5,0,0.00364474
0.2,1.6,0,0.00387087
0.2,1.7,0,0.00409617
0.2,1.8,0,0.00432052
0.2,1.9,0,0.00454536
0.2,2,0,0.0047643
0.2,2.1,0,0.00497637
0.2,2.2,0,0.00518812
0.2,2.3,0,0.00540018
0.2,2.4,0,0.00561278
0.2,2.5,0,0.00581635
0.2,2.6,0,0.00601328
0.2,2.7,0,0.00620949
0.2,2.8,0,0.00640551
0.2,2.9,0,0.00660167
0.2,3,0,0.00678481
0.2,3.1,0,0.00696217
0.2,3.2,0,0.00713871
0.2,3.3,0,0.00731507
0.2,3.4,0,0.00749146
0.2,3.5,0,0.00765066
0.2,3.6,0,0.00780577
0.2,3.7,0,0.00795993
0.2,3.8,0,0.00811389
0.2,3.9,0,0.00826784
0.2,4,0,0.00840016
0.2,4.1,0,0.00853068
0.2,4.2,0,0.00866014
0.2,4.3,0,0.00878944
0.2,4.4,0,0.00891776
0.2,4.5,0,0.00902164
0.2,4.6,0,0.00912543
0.2,4.7,0,0.0092283
0.2,4.8,0,0.00933104
0.2,4.9,0,0.00942961
0.2,5,0,0.00950519
0.2,5.1,0,0.00958061
0.2,5.2,0,0.0096553
0.2,5.3,0,0.00972981
0.2,5.4,0,0.00979667
0.2,5.5,0,0.00984276
0.2,5.6,0,0.00988862
0.2,5.7,0,0.00993383
0.2,5.8,0,0.00997878
0.2,5.9,0,0.0100125
0.2,6,0,0.0100283
0.2,6.1,0,0.0100439
0.2,6.2,0,0.0100588
0.2,6.3,0,0.0100734
0.2,6.4,0,0.0100734
0.2,6.5,0,0.0100588
0.2,6.6,0,0.0100438
0.2,6.7,0,0.0100281
0.2,6.8,0,0.0100121
0.2,6.9,0,0.00997827
0.2,7,0,0.00993331
0.2,7.1,0,0.00988802
0.2,7.2,0,0.00984198
0.2,7.3,0,0.00979566
0.2,7.4,0,0.00972874
0.2,7.5,0,0.00965422
0.2,7.6,0,0.00957946
0.2,7.7,0,0.00950388
0.2,7.8,0,0.00942811
0.2,7.9,0,0.00932954
0.2,8,0,0.00922682
0.2,8.1,0,0.00912388
0.2,8.2,0,0.00901993
0.2,8.3,0,0.00891588
0.2,8.4,0,0.00878756
0.2,8.5,0,0.00865827
0.2,8.6,0,0.00852875
0.2,8.7,0,0.00839811
0.2,8.8,0,0.00826567
0.2,8.9,0,0.00811175
0.2,9,0,0.00795783
0.2,9.1,0,0.00780366
0.2,9.2,0,0.00764845
0.2,9.3,0,0.00748921
0.2,9.4,0,0.00731303
0.2,9.5,0,0.00713685
0.2,9.6,0,0.00696039
0.2,9.7,0,0.00678303
0.2,9.8,0,0.0066
0.2,9.9,0,0.00640421
0.2,10,0,0.00620851
0.2,10.1,0,0.00601255
0.2,10.2,0,0.0058159
0.2,10.3,0,0.00561263
0.2,10.4,0,0.00540034
0.2,10.5,0,0.00518827
0.2,10.6,0,0.00497589
0.2,10.7,0,0.00476292
0.2,10.8,0,0.00454327
0.2,10.9,0,0.00431789
0.2,11,0,0.00409283
0.2,11.1,0,0.00386722
0.2,11.2,0,0.00364111
0.2,11.3,0,0.00340925
0.2,11.4,0,0.00317435
0.2,11.5,0,0.00293933
0.2,11.6,0,0.00270273
0.2,11.7,0,0.00246552
0.2,11.8,0,0.00222507
0.2,11.9,0,0.00198364
0.2,12,0,0.00174033
0.2,12.1,0,0.0014943
0.2,12.2,0,0.00124782
0.2,12.3,0,0.000999006
0.2,12.4,0,0.000749854
0.2,12.5,0,0.000558816
0.2,12.6,0,0.000371546
0.2,12.7,0,0.000184209
0.3,0,0,0.000123291
0.3,0.1,0,0.000309834
0.3,0.2,0,0.000498512
0.3,0.3,0,0.000746945
0.3,0.4,0,0.000995687
0.3,0.5,0,0.00124425
0.3,0.6,0,0.00149066
0.3,0.7,0,0.00173697
0.3,0.8,0,0.00198225
0.3,0.9,0,0.00222572
0.3,1,0,0.00246807
0.3,1.1,0,0.00270572
0.3,1.2,0,0.00294342
0.3,1.3,0,0.00318051
0.3,1.4,0,0.00341565
0.3,1.5,0,0.00364785
0.3,1.6,0,0.00387398
0.3,1.7,0,0.00410043
0.3,1.8,0,0.00432653
0.3,1.9,0,0.00455137
0.3,2,0,0.00477032
0.3,2.1,0,0.00498238
0.3,2.2,0,0.00519503
0.3,2.3,0,0.00540792
0.3,2.4,0,0.00562052
0.3,2.5,0,0.00582408
0.3,2.6,0,0.00602101
0.3,2.7,0,0.00621819
0.3,2.8,0,0.00641477
0.3,2.9,0,0.00661093
0.3,3,0,0.00679407
0.3,3.1,0,0.00697142
0.3,3.2,0,0.00714887
0.3,3.3,0,0.00732553
0.3,3.4,0,0.00750192
0.3,3.5,0,0.00766112
0.3,3.6,0,0.00781622
0.3,3.7,0,0.00797129
0.3,3.8,0,0.00812538
0.3,3.9,0,0.00827934
0.3,4,0,0.00841166
0.3,4.1,0,0.00854218
0.3,4.2,0,0.00867258
0.3,4.3,0,0.00880189
0.3,4.4,0,0.00893021
0.3,4.5,0,0.00903409
0.3,4.6,0,0.00913796
0.3,4.7,0,0.00924159
0.3,4.8,0,0.00934433
0.3,4.9,0,0.0094429
0.3,5,0,0.00951849
0.3,5.1,0,0.00959403
0.3,5.2,0,0.0096692
0.3,5.3,0,0.00974372
0.3,5.4,0,0.00981058
0.3,5.5,0,0.00985667
0.3,5.6,0,0.00990263
0.3,5.7,0,0.00994808
0.3,5.8,0,0.00999303
0.3,5.9,0,0.0100268
0.3,6,0,0.0100426
0.3,6.1,0,0.0100582
0.3,6.2,0,0.0100732
0.3,6.3,0,0.0100878
0.3,6.4,0,0.0100878
0.3,6.5,0,0.0100731
0.3,6.6,0,0.010058
0.3,6.7,0,0.0100423
0.3,6.8,0,0.0100263
0.3,6.9,0,0.00999244
0.3,7,0,0.00994748
0.3,7.1,0,0.00990194
0.3,7.2,0,0.00985578
0.3,7.3,0,0.00980946
0.3,7.4,0,0.00974254
0.3,7.5,0,0.00966802
0.3,7.6,0,0.00959278
0.3,7.7,0,0.00951707
0.3,7.8,0,0.00944131
0.3,7.9,0,0.00934273
0.3,8,0,0.00924001
0.3,8.1,0,0.00913633
0.3,8.2,0,0.00903231
0.3,8.3,0,0.00892826
0.3,8.4,0,0.00879994
0.3,8.5,0,0.00867064
0.3,8.6,0,0.00854018
0.3,8.7,0,0.00840953
0.3,8.8,0,0.0082771
0.3,8.9,0,0.00812318
0.3,9,0,0.00796911
0.3,9.1,0,0.00781398
0.3,9.2,0,0.00765877
0.3,9.3,0,0.00749953
0.3,9.4,0,0.00732335
0.3,9.5,0,0.00714687
0.3,9.6,0,0.00696947
0.3,9.7,0,0.00679211
0.3,9.8,0,0.00660908
0.3,9.9,0,0.00641329
0.3,10,0,0.0062171
0.3,10.1,0,0.00602028
0.3,10.2,0,0.00582362
0.3,10.3,0,0.00562035
0.3,10.4,0,0.00540807
0.3,10.5,0,0.00519525
0.3,10.6,0,0.00498205
0.3,10.7,0,0.00476909
0.3,10.8,0,0.00454944
0.3,10.9,0,0.00432406
0.3,11,0,0.00409795
0.3,11.1,0,0.00387163
0.3,11.2,0,0.00364553
0.3,11.3,0,0.00341367
0.3,11.4,0,0.00317876
0.3,11.5,0,0.00294236
0.3,11.6,0,0.0027052
0.3,11.7,0,0.00246799
0.3,11.8,0,0.00222754
0.3,11.9,0,0.00198611
0.3,12,0,0.00174247
0.3,12.1,0,0.00149639
0.3,12.2,0,0.00124991
0.3,12.3,0,0.00100112
0.3,12.4,0,0.000751965
0.3,12.5,0,0.000501153
0.3,12.6,0,0.000310143
0.3,12.7,0,0.000122806
0.4,0,0,6.16456e-05
0.4,0.1,0,0.000249256
0.4,0.2,0,0.000497675
0.4,0.3,0,0.000746094
0.4,0.4,0,0.000994526
0.4,0.5,0,0.00124311
0.4,0.6,0,0.00148945
0.4,0.7,0,0.00173504
0.4,0.8,0,0.00198063
0.4,0.9,0,0.00222587
0.4,1,0,0.00246829
0.4,1.1,0,0.00270598
0.4,1.2,0,0.00294383
0.4,1.3,0,0.00318168
0.4,1.4,0,0.00341871
0.4,1.5,0,0.00365097
0.4,1.6,0,0.00387739
0.4,1.7,0,0.00410436
0.4,1.8,0,0.00433134
0.4,1.9,0,0.00455738
0.4,2,0,0.00477633
0.4,2.1,0,0.00498895
0.4,2.2,0,0.00520216
0.4,2.3,0,0.00541538
0.4,2.4,0,0.00562825
0.4,2.5,0,0.00583181
0.4,2.6,0,0.00602898
0.4,2.7,0,0.00622631
0.4,2.8,0,0.00642363
0.4,2.9,0,0.00662018
0.4,3,0,0.00680332
0.4,3.1,0,0.00698077
0.4,3.2,0,0.00715826
0.4,3.3,0,0.00733574
0.4,3.4,0,0.00751237
0.4,3.5,0,0.00767157
0.4,3.6,0,0.00782664
0.4,3.7,0,0.0079817
0.4,3.8,0,0.00813677
0.4,3.9,0,0.00829083
0.4,4,0,0.00842315
0.4,4.1,0,0.00855356
0.4,4.2,0,0.00868396
0.4,4.3,0,0.00881434
0.4,4.4,0,0.00894267
0.4,4.5,0,0.00904654
0.4,4.6,0,0.00915028
0.4,4.7,0,0.00925402
0.4,4.8,0,0.00935763
0.4,4.9,0,0.00945619
0.4,5,0,0.00953174
0.4,5.1,0,0.0096071
0.4,5.2,0,0.00968247
0.4,5.3,0,0.00975762
0.4,5.4,0,0.00982448
0.4,5.5,0,0.00987046
0.4,5.6,0,0.00991615
0.4,5.7,0,0.00996185
0.4,5.8,0,0.0100073
0.4,5.9,0,0.010041
0.4,6,0,0.0100566
0.4,6.1,0,0.0100719
0.4,6.2,0,0.0100872
0.4,6.3,0,0.0101021
0.4,6.4,0,0.0101021
0.4,6.5,0,0.010087
0.4,6.6,0,0.0100716
0.4,6.7,0,0.0100562
0.4,6.8,0,0.0100404
0.4,6.9,0,0.0100066
0.4,7,0,0.00996109
0.4,7.1,0,0.00991527
0.4,7.2,0,0.00986944
0.4,7.3,0,0.00982326
0.4,7.4,0,0.00975634
0.4,7.5,0,0.00968112
0.4,7.6,0,0.00960567
0.4,7.7,0,0.00953022
0.4,7.8,0,0.0094545
0.4,7.9,0,0.00935593
0.4,8,0,0.00925227
0.4,8.1,0,0.00914847
0.4,8.2,0,0.00904467
0.4,8.3,0,0.00894064
0.4,8.4,0,0.00881232
0.4,8.5,0,0.00868188
0.4,8.6,0,0.00855143
0.4,8.7,0,0.00842096
0.4,8.8,0,0.00828852
0.4,8.9,0,0.00813449
0.4,9,0,0.00797936
0.4,9.1,0,0.00782423
0.4,9.2,0,0.00766909
0.4,9.3,0,0.00750986
0.4,9.4,0,0.0073334
0.4,9.5,0,0.007156
0.4,9.6,0,0.00697859
0.4,9.7,0,0.00680119
0.4,9.8,0,0.00661816
0.4,9.9,0,0.006422
0.4,10,0,0.00622508
0.4,10.1,0,0.00602816
0.4,10.2,0,0.00583134
0.4,10.3,0,0.00562808
0.4,10.4,0,0.00541528
0.4,10.5,0,0.00520186
0.4,10.6,0,0.00498844
0.4,10.7,0,0.00477526
0.4,10.8,0,0.00455561
0.4,10.9,0,0.00432952
0.4,11,0,0.00410288
0.4,11.1,0,0.00387624
0.4,11.2,0,0.00364994
0.4,11.3,0,0.00341808
0.4,11.4,0,0.00318172
0.4,11.5,0,0.00294468
0.4,11.6,0,0.00270763
0.4,11.7,0,0.00247046
0.4,11.8,0,0.00223001
0.4,11.9,0,0.00198642
0.4,12,0,0.00174226
0.4,12.1,0,0.0014981
0.4,12.2,0,0.00125201
0.4,12.3,0,0.00100323
0.4,12.4,0,0.000752467
0.4,12.5,0,0.000501522
0.4,12.6,0,0.000250576
0.4,12.7,0,6.1403e-05
0.5,0,0,0
0.5,0.1,0,0.000248431
0.5,0.2,0,0.000496862
0.5,0.3,0,0.000745292
0.5,0.4,0,0.000993723
0.5,0.5,0,0.00124205
0.5,0.6,0,0.00148759
0.5,0.7,0,0.00173313
0.5,0.8,0,0.0019787
0.5,0.9,0,0.00222429
0.5,1,0,0.00246855
0.5,1.1,0,0.0027064
0.5,1.2,0,0.00294424
0.5,1.3,0,0.00318209
0.5,1.4,0,0.00341994
0.5,1.5,0,0.00365434
0.5,1.6,0,0.00388132
0.5,1.7,0,0.00410829
0.5,1.8,0,0.00433527
0.5,1.9,0,0.00456224
0.5,2,0,0.00478287
0.5,2.1,0,0.00499608
0.5,2.2,0,0.0052093
0.5,2.3,0,0.00542251
0.5,2.4,0,0.00563573
0.5,2.5,0,0.00583977
0.5,2.6,0,0.0060371
0.5,2.7,0,0.00623443
0.5,2.8,0,0.00643175
0.5,2.9,0,0.00662908
0.5,3,0,0.00681267
0.5,3.1,0,0.00699016
0.5,3.2,0,0.00716764
0.5,3.3,0,0.00734513
0.5,3.4,0,0.00752262
0.5,3.5,0,0.00768199
0.5,3.6,0,0.00783705
0.5,3.7,0,0.00799212
0.5,3.8,0,0.00814718
0.5,3.9,0,0.00830224
0.5,4,0,0.00843454
0.5,4.1,0,0.00856494
0.5,4.2,0,0.00869534
0.5,4.3,0,0.00882574
0.5,4.4,0,0.00895512
0.5,4.5,0,0.00905886
0.5,4.6,0,0.0091626
0.5,4.7,0,0.00926634
0.5,4.8,0,0.00937008
0.5,4.9,0,0.00946945
0.5,5,0,0.00954482
0.5,5.1,0,0.00962018
0.5,5.2,0,0.00969554
0.5,5.3,0,0.0097709
0.5,5.4,0,0.00983828
0.5,5.5,0,0.00988398
0.5,5.6,0,0.00992968
0.5,5.7,0,0.00997538
0.5,5.8,0,0.0100211
0.5,5.9,0,0.0100551
0.5,6,0,0.0100703
0.5,6.1,0,0.0100856
0.5,6.2,0,0.0101009
0.5,6.3,0,0.0101161
0.5,6.4,0,0.0101161
0.5,6.5,0,0.0101006
0.5,6.6,0,0.0100852
0.5,6.7,0,0.0100698
0.5,6.8,0,0.0100544
0.5,6.9,0,0.0100202
0.5,7,0,0.00997442
0.5,7.1,0,0.00992859
0.5,7.2,0,0.00988276
0.5,7.3,0,0.00983693
0.5,7.4,0,0.00976946
0.5,7.5,0,0.00969401
0.5,7.6,0,0.00961856
0.5,7.7,0,0.0095431
0.5,7.8,0,0.00946765
0.5,7.9,0,0.00936821
0.5,8,0,0.00926441
0.5,8.1,0,0.00916061
0.5,8.2,0,0.00905681
0.5,8.3,0,0.00895301
0.5,8.4,0,0.00882358
0.5,8.5,0,0.00869312
0.5,8.6,0,0.00856267
0.5,8.7,0,0.00843221
0.5,8.8,0,0.00829986
0.5,8.9,0,0.00814473
0.5,9,0,0.00798961
0.5,9.1,0,0.00783448
0.5,9.2,0,0.00767935
0.5,9.3,0,0.00751994
0.5,9.4,0,0.00734253
0.5,9.5,0,0.00716513
0.5,9.6,0,0.00698772
0.5,9.7,0,0.00681031
0.5,9.8,0,0.0066269
0.5,9.9,0,0.00642998
0.5,10,0,0.00623306
0.5,10.1,0,0.00603614
0.5,10.2,0,0.00583922
0.5,10.3,0,0.00563532
0.5,10.4,0,0.0054219
0.5,10.5,0,0.00520848
0.5,10.6,0,0.00499505
0.5,10.7,0,0.00478163
0.5,10.8,0,0.00456109
0.5,10.9,0,0.00433446
0.5,11,0,0.00410782
0.5,11.1,0,0.00388118
0.5,11.2,0,0.00365454
0.5,11.3,0,0.00342109
0.5,11.4,0,0.00318404
0.5,11.5,0,0.002947
0.5,11.6,0,0.00270995
0.5,11.7,0,0.0024729
0.5,11.8,0,0.00223039
0.5,11.9,0,0.00198624
0.5,12,0,0.00174209
0.5,12.1,0,0.00149795
0.5,12.2,0,0.0012538
0.5,12.3,0,0.00100379
0.5,12.4,0,0.000752841
0.5,12.5,0,0.000501894
0.5,12.6,0,0.000250947
0.5,12.7,0,0
0.6,0,0,0
0.6,0.1,0,0.000250843
0.6,0.2,0,0.000499274
0.6,0.3,0,0.000747704
0.6,0.4,0,0.0009962
0.6,0.5,0,0.0012458
0.6,0.6,0,0.00149311
0.6,0.7,0,0.00173865
0.6,0.8,0,0.00198419
0.6,0.9,0,0.00222984
0.6,1,0,0.00247556
0.6,1.1,0,0.00271638
0.6,1.2,0,0.00295424
0.6,1.3,0,0.0031921
0.6,1.4,0,0.00343074
0.6,1.5,0,0.00366798
0.6,1.6,0,0.00389618
0.6,1.7,0,0.00412318
0.6,1.8,0,0.00435018
0.6,1.9,0,0.00457851
0.6,2,0,0.0048017
0.6,2.1,0,0.00501566
0.6,2.2,0,0.00522887
0.6,2.3,0,0.00544209
0.6,2.4,0,0.0056579
0.6,2.5,0,0.00586522
0.6,2.6,0,0.00606342
0.6,2.7,0,0.00626074
0.6,2.8,0,0.00645807
0.6,2.9,0,0.0066567
0.6,3,0,0.00684236
0.6,3.1,0,0.00702045
0.6,3.2,0,0.00719793
0.6,3.3,0,0.00737542
0.6,3.4,0,0.00755435
0.6,3.5,0,0.00771535
0.6,3.6,0,0.00787068
0.6,3.7,0,0.00802574
0.6,3.8,0,0.00818081
0.6,3.9,0,0.00833762
0.6,4,0,0.00847109
0.6,4.1,0,0.00860155
0.6,4.2,0,0.00873195
0.6,4.3,0,0.00886238
0.6,4.4,0,0.00899365
0.6,4.5,0,0.00909824
0.6,4.6,0,0.00920198
0.6,4.7,0,0.00930572
0.6,4.8,0,0.00940968
0.6,4.9,0,0.00951052
0.6,5,0,0.00958642
0.6,5.1,0,0.00966179
0.6,5.2,0,0.00973715
0.6,5.3,0,0.00981281
0.6,5.4,0,0.00988115
0.6,5.5,0,0.00992702
0.6,5.6,0,0.00997272
0.6,5.7,0,0.0100184
0.6,5.8,0,0.0100644
0.6,5.9,0,0.0100989
0.6,6,0,0.0101141
0.6,6.1,0,0.0101293
0.6,6.2,0,0.0101446
0.6,6.3,0,0.0101601
0.6,6.4,0,0.01016
0.6,6.5,0,0.0101443
0.6,6.6,0,0.0101289
0.6,6.7,0,0.0101134
0.6,6.8,0,0.0100982
0.6,6.9,0,0.0100635
0.6,7,0,0.0100173
0.6,7.1,0,0.00997142
0.6,7.2,0,0.00992559
0.6,7.3,0,0.0098797
0.6,7.4,0,0.0098112
0.6,7.5,0,0.00973541
0.6,7.6,0,0.00965996
0.6,7.7,0,0.00958451
0.6,7.8,0,0.00950863
0.6,7.9,0,0.00940764
0.6,8,0,0.00930362
0.6,8.1,0,0.00919982
0.6,8.2,0,0.00909602
0.6,8.3,0,0.00899147
0.6,8.4,0,0.00886012
0.6,8.5,0,0.00872963
0.6,8.6,0,0.00859918
0.6,8.7,0,0.00846866
0.6,8.8,0,0.00833514
0.6,8.9,0,0.00817822
0.6,9,0,0.00802309
0.6,9.1,0,0.00786797
0.6,9.2,0,0.00771257
0.6,9.3,0,0.00755146
0.6,9.4,0,0.00737232
0.6,9.5,0,0.00719491
0.6,9.6,0,0.0070175
0.6,9.7,0,0.00683956
0.6,9.8,0,0.0066542
0.6,9.9,0,0.00645583
0.6,10,0,0.00625891
0.6,10.1,0,0.00606199
0.6,10.2,0,0.00586412
0.6,10.3,0,0.00565794
0.6,10.4,0,0.00544332
0.6,10.5,0,0.0052299
0.6,10.6,0,0.00501648
0.6,10.7,0,0.00480172
0.6,10.8,0,0.00457835
0.6,10.9,0,0.00435039
0.6,11,0,0.00412375
0.6,11.1,0,0.00389712
0.6,11.2,0,0.00366854
0.6,11.3,0,0.00343204
0.6,11.4,0,0.00319408
0.6,11.5,0,0.00295703
0.6,11.6,0,0.00271998
0.6,11.7,0,0.00248067
0.6,11.8,0,0.00223538
0.6,11.9,0,0.00199072
0.6,12,0,0.00174658
0.6,12.1,0,0.00150243
0.6,12.2,0,0.00125505
0.6,12.3,0,0.00100477
0.6,12.4,0,0.000753861
0.6,12.5,0,0.000502914
0.6,12.6,0,0.000251967
0.6,12.7,0,0
0.7,0,0,0
0.7,0.1,0,0.00025086
0.7,0.2,0,0.000501686
0.7,0.3,0,0.000750154
0.7,0.4,0,0.000999866
0.7,0.5,0,0.00124948
0.7,0.6,0,0.00149691
0.7,0.7,0,0.00174417
0.7,0.8,0,0.00198979
0.7,0.9,0,0.00223624
0.7,1,0,0.00248205
0.7,1.1,0,0.00272362
0.7,1.2,0,0.00296437
0.7,1.3,0,0.00320286
0.7,1.4,0,0.0034438
0.7,1.5,0,0.00368113
0.7,1.6,0,0.00390999
0.7,1.7,0,0.00413812
0.7,1.8,0,0.00436629
0.7,1.9,0,0.00459655
0.7,2,0,0.00481987
0.7,2.1,0,0.00503453
0.7,2.2,0,0.00524845
0.7,2.3,0,0.00546411
0.7,2.4,0,0.00568208
0.7,2.5,0,0.0058894
0.7,2.6,0,0.00608891
0.7,2.7,0,0.00628706
0.7,2.8,0,0.00648564
0.7,2.9,0,0.00668491
0.7,3,0,0.00687057
0.7,3.1,0,0.00705018
0.7,3.2,0,0.00722823
0.7,3.3,0,0.00740711
0.7,3.4,0,0.00758644
0.7,3.5,0,0.00774744
0.7,3.6,0,0.00790408
0.7,3.7,0,0.00805937
0.7,3.8,0,0.00821614
0.7,3.9,0,0.00837315
0.7,4,0,0.00850662
0.7,4.1,0,0.00863812
0.7,4.2,0,0.00876856
0.7,4.3,0,0.00890088
0.7,4.4,0,0.00903215
0.7,4.5,0,0.0091368
0.7,4.6,0,0.00924137
0.7,4.7,0,0.00934529
0.7,4.8,0,0.00945065
0.7,4.9,0,0.0095515
0.7,5,0,0.00962751
0.7,5.1,0,0.0097034
0.7,5.2,0,0.00977903
0.7,5.3,0,0.00985562
0.7,5.4,0,0.00992396
0.7,5.5,0,0.0099699
0.7,5.6,0,0.0100158
0.7,5.7,0,0.0100618
0.7,5.8,0,0.0101084
0.7,5.9,0,0.0101429
0.7,6,0,0.0101579
0.7,6.1,0,0.0101731
0.7,6.2,0,0.0101886
0.7,6.3,0,0.0102044
0.7,6.4,0,0.0102043
0.7,6.5,0,0.0101882
0.7,6.6,0,0.0101725
0.7,6.7,0,0.0101572
0.7,6.8,0,0.0101421
0.7,6.9,0,0.0101074
0.7,7,0,0.0100605
0.7,7.1,0,0.0100143
0.7,7.2,0,0.00996836
0.7,7.3,0,0.00992245
0.7,7.4,0,0.00985394
0.7,7.5,0,0.00977712
0.7,7.6,0,0.00970136
0.7,7.7,0,0.0096255
0.7,7.8,0,0.00954953
0.7,7.9,0,0.00944854
0.7,8,0,0.00934301
0.7,8.1,0,0.00923902
0.7,8.2,0,0.00913449
0.7,8.3,0,0.00902989
0.7,8.4,0,0.00889854
0.7,8.5,0,0.00876614
0.7,8.6,0,0.00863565
0.7,8.7,0,0.0085041
0.7,8.8,0,0.00837058
0.7,8.9,0,0.00821346
0.7,9,0,0.00805658
0.7,9.1,0,0.00790122
0.7,9.2,0,0.00774451
0.7,9.3,0,0.0075834
0.7,9.4,0,0.00740378
0.7,9.5,0,0.0072247
0.7,9.6,0,0.0070468
0.7,9.7,0,0.00686753
0.7,9.8,0,0.00668216
0.7,9.9,0,0.00648308
0.7,10,0,0.00628476
0.7,10.1,0,0.00608695
0.7,10.2,0,0.00588765
0.7,10.3,0,0.00568146
0.7,10.4,0,0.00546589
0.7,10.5,0,0.00525133
0.7,10.6,0,0.00503662
0.7,10.7,0,0.00482059
0.7,10.8,0,0.00459722
0.7,10.9,0,0.00436756
0.7,11,0,0.00413969
0.7,11.1,0,0.00391118
0.7,11.2,0,0.00368148
0.7,11.3,0,0.00344491
0.7,11.4,0,0.00320492
0.7,11.5,0,0.00296707
0.7,11.6,0,0.00272782
0.7,11.7,0,0.00248774
0.7,11.8,0,0.00224238
0.7,11.9,0,0.00199562
0.7,12,0,0.00175106
0.7,12.1,0,0.00150374
0.7,12.2,0,0.0012558
0.7,12.3,0,0.00100548
0.7,12.4,0,0.000754862
0.7,12.5,0,0.000503935
0.7,12.6,0,0.000251993
0.7,12.7,0,0
0.8,0,0,0
0.8,0.1,0,0.00025086
0.8,0.2,0,0.00050174
0.8,0.3,0,0.00075382
0.8,0.4,0,0.00100353
0.8,0.5,0,0.00125316
0.8,0.6,0,0.00150058
0.8,0.7,0,0.00174806
0.8,0.8,0,0.00199619
0.8,0.9,0,0.00224264
0.8,1,0,0.00248853
0.8,1.1,0,0.00273011
0.8,1.2,0,0.00297216
0.8,1.3,0,0.00321592
0.8,1.4,0,0.00345686
0.8,1.5,0,0.00369429
0.8,1.6,0,0.00392314
0.8,1.7,0,0.00415299
0.8,1.8,0,0.00438433
0.8,1.9,0,0.00461459
0.8,2,0,0.00483803
0.8,2.1,0,0.00505269
0.8,2.2,0,0.00526963
0.8,2.3,0,0.0054883
0.8,2.4,0,0.00570626
0.8,2.5,0,0.00591358
0.8,2.6,0,0.0061131
0.8,2.7,0,0.00631382
0.8,2.8,0,0.00651386
0.8,2.9,0,0.00671313
0.8,3,0,0.00689879
0.8,3.1,0,0.0070784
0.8,3.2,0,0.00725937
0.8,3.3,0,0.0074392
0.8,3.4,0,0.00761853
0.8,3.5,0,0.00777953
0.8,3.6,0,0.00793617
0.8,3.7,0,0.00809447
0.8,3.8,0,0.00825167
0.8,3.9,0,0.00840868
0.8,4,0,0.00854215
0.8,4.1,0,0.00867365
0.8,4.2,0,0.00880704
0.8,4.3,0,0.00893938
0.8,4.4,0,0.00907065
0.8,4.5,0,0.0091753
0.8,4.6,0,0.00928009
0.8,4.7,0,0.00938626
0.8,4.8,0,0.00949162
0.8,4.9,0,0.00959247
0.8,5,0,0.00966848
0.8,5.1,0,0.00974474
0.8,5.2,0,0.00982184
0.8,5.3,0,0.00989843
0.8,5.4,0,0.00996676
0.8,5.5,0,0.0100127
0.8,5.6,0,0.0100589
0.8,5.7,0,0.0101057
0.8,5.8,0,0.0101523
0.8,5.9,0,0.0101868
0.8,6,0,0.0102018
0.8,6.1,0,0.0102172
0.8,6.2,0,0.0102329
0.8,6.3,0,0.0102487
0.8,6.4,0,0.0102486
0.8,6.5,0,0.0102325
0.8,6.6,0,0.0102166
0.8,6.7,0,0.0102011
0.8,6.8,0,0.010186
0.8,6.9,0,0.0101513
0.8,7,0,0.0101044
0.8,7.1,0,0.0100574
0.8,7.2,0,0.0100111
0.8,7.3,0,0.00996519
0.8,7.4,0,0.00989669
0.8,7.5,0,0.00981986
0.8,7.6,0,0.00974264
0.8,7.7,0,0.0096664
0.8,7.8,0,0.00959043
0.8,7.9,0,0.00948944
0.8,8,0,0.00938391
0.8,8.1,0,0.00927766
0.8,8.2,0,0.00917291
0.8,8.3,0,0.00906831
0.8,8.4,0,0.00893697
0.8,8.5,0,0.00880454
0.8,8.6,0,0.00867109
0.8,8.7,0,0.00853954
0.8,8.8,0,0.00840602
0.8,8.9,0,0.0082489
0.8,9,0,0.00809158
0.8,9.1,0,0.00793316
0.8,9.2,0,0.00777645
0.8,9.3,0,0.00761534
0.8,9.4,0,0.00743572
0.8,9.5,0,0.00725567
0.8,9.6,0,0.00707476
0.8,9.7,0,0.00689549
0.8,9.8,0,0.00671012
0.8,9.9,0,0.00651104
0.8,10,0,0.00631112
0.8,10.1,0,0.00611047
0.8,10.2,0,0.00591118
0.8,10.3,0,0.00570499
0.8,10.4,0,0.00548942
0.8,10.5,0,0.00527262
0.8,10.6,0,0.0050555
0.8,10.7,0,0.00483947
0.8,10.8,0,0.0046161
0.8,10.9,0,0.00438644
0.8,11,0,0.00415496
0.8,11.1,0,0.00392412
0.8,11.2,0,0.00369443
0.8,11.3,0,0.00345778
0.8,11.4,0,0.00321779
0.8,11.5,0,0.00297565
0.8,11.6,0,0.00273489
0.8,11.7,0,0.00249481
0.8,11.8,0,0.00224938
0.8,11.9,0,0.00200262
0.8,12,0,0.00175274
0.8,12.1,0,0.00150449
0.8,12.2,0,0.00125655
0.8,12.3,0,0.00100619
0.8,12.4,0,0.000755568
0.8,12.5,0,0.000503976
0.8,12.6,0,0.000251993
0.8,12.7,0,0
0.9,0,0,0
0.9,0.1,0,0.00025087
0.9,0.2,0,0.000503003
0.9,0.3,0,0.000755136
0.9,0.4,0,0.0010072
0.9,0.5,0,0.00125684
0.9,0.6,0,0.0015043
0.9,0.7,0,0.00175261
0.9,0.8,0,0.00200093
0.9,0.9,0,0.00224904
0.9,1,0,0.00249502
0.9,1.1,0,0.00273691
0.9,1.2,0,0.00298162
0.9,1.3,0,0.00322633
0.9,1.4,0,0.00346992
0.9,1.5,0,0.00370744
0.9,1.6,0,0.00393714
0.9,1.7,0,0.00416925
0.9,1.8,0,0.00440136
0.9,1.9,0,0.00463263
0.9,2,0,0.00485619
0.9,2.1,0,0.00507284
0.9,2.2,0,0.00529233
0.9,2.3,0,0.00551181
0.9,2.4,0,0.00573045
0.9,2.5,0,0.00593777
0.9,2.6,0,0.00613844
0.9,2.7,0,0.0063399
0.9,2.8,0,0.00654135
0.9,2.9,0,0.00674134
0.9,3,0,0.006927
0.9,3.1,0,0.00710793
0.9,3.2,0,0.00728938
0.9,3.3,0,0.00747083
0.9,3.4,0,0.00765061
0.9,3.5,0,0.00781162
0.9,3.6,0,0.00796987
0.9,3.7,0,0.00812846
0.9,3.8,0,0.00828705
0.9,3.9,0,0.00844421
0.9,4,0,0.00857768
0.9,4.1,0,0.00871102
0.9,4.2,0,0.00884446
0.9,4.3,0,0.00897788
0.9,4.4,0,0.00910915
0.9,4.5,0,0.0092139
0.9,4.6,0,0.00932017
0.9,4.7,0,0.00942644
0.9,4.8,0,0.00953259
0.9,4.9,0,0.00963344
0.9,5,0,0.00970967
0.9,5.1,0,0.00978691
0.9,5.2,0,0.00986415
0.9,5.3,0,0.00994123
0.9,5.4,0,0.0100096
0.9,5.5,0,0.0100558
0.9,5.6,0,0.0101026
0.9,5.7,0,0.0101495
0.9,5.8,0,0.0101962
0.9,5.9,0,0.0102307
0.9,6,0,0.010246
0.9,6.1,0,0.0102617
0.9,6.2,0,0.0102773
0.9,6.3,0,0.0102931
0.9,6.4,0,0.0102929
0.9,6.5,0,0.010277
0.9,6.6,0,0.0102611
0.9,6.7,0,0.0102453
0.9,6.8,0,0.0102299
0.9,6.9,0,0.0101952
0.9,7,0,0.0101482
0.9,7.1,0,0.0101012
0.9,7.2,0,0.0100542
0.9,7.3,0,0.0100079
0.9,7.4,0,0.00993943
0.9,7.5,0,0.00986222
0.9,7.6,0,0.00978488
0.9,7.7,0,0.00970754
0.9,7.8,0,0.00963133
0.9,7.9,0,0.00953034
0.9,8,0,0.00942411
0.9,8.1,0,0.00931778
0.9,8.2,0,0.00921144
0.9,8.3,0,0.00910674
0.9,8.4,0,0.00897539
0.9,8.5,0,0.0088419
0.9,8.6,0,0.00870839
0.9,8.7,0,0.00857498
0.9,8.8,0,0.00844146
0.9,8.9,0,0.00828418
0.9,9,0,0.00812547
0.9,9.1,0,0.00796676
0.9,9.2,0,0.00780839
0.9,9.3,0,0.00764727
0.9,9.4,0,0.00746726
0.9,9.5,0,0.00728578
0.9,9.6,0,0.0071043
0.9,9.7,0,0.00692345
0.9,9.8,0,0.00673808
0.9,9.9,0,0.00653821
0.9,10,0,0.00633676
0.9,10.1,0,0.0061353
0.9,10.2,0,0.0059347
0.9,10.3,0,0.00572852
0.9,10.4,0,0.00551178
0.9,10.5,0,0.0052936
0.9,10.6,0,0.00507542
0.9,10.7,0,0.00485835
0.9,10.8,0,0.00463498
0.9,10.9,0,0.00440358
0.9,11,0,0.00417083
0.9,11.1,0,0.00393808
0.9,11.2,0,0.00370737
0.9,11.3,0,0.00347065
0.9,11.4,0,0.00322857
0.9,11.5,0,0.00298553
0.9,11.6,0,0.00274248
0.9,11.7,0,0.00250188
0.9,11.8,0,0.00225638
0.9,11.9,0,0.0020066
0.9,12,0,0.00175601
0.9,12.1,0,0.00150543
0.9,12.2,0,0.0012573
0.9,12.3,0,0.00100689
0.9,12.4,0,0.000755316
0.9,12.5,0,0.000503652
0.9,12.6,0,0.000251988
0.9,12.7,0,0
1,0,0,0
1,0.1,0,0.000252133
1,0.2,0,0.000504266
1,0.3,0,0.000756399
1,0.4,0,0.00100853
1,0.5,0,0.00126053
1,0.6,0,0.00150885
1,0.7,0,0.00175716
1,0.8,0,0.00200547
1,0.9,0,0.00225379
1,1,0,0.00250165
1,1.1,0,0.00274636
1,1.2,0,0.00299107
1,1.3,0,0.00323578
1,1.4,0,0.00348049
1,1.5,0,0.00372129
1,1.6,0,0.00395339
1,1.7,0,0.0041855
1,1.8,0,0.00441761
1,1.9,0,0.00464972
1,2,0,0.00487606
1,2.1,0,0.00509554
1,2.2,0,0.00531502
1,2.3,0,0.00553451
1,2.4,0,0.00575399
1,2.5,0,0.00596307
1,2.6,0,0.00616452
1,2.7,0,0.00636598
1,2.8,0,0.00656743
1,2.9,0,0.00676888
1,3,0,0.00695649
1,3.1,0,0.00713794
1,3.2,0,0.00731939
1,3.3,0,0.00750084
1,3.4,0,0.00768229
1,3.5,0,0.00784528
1,3.6,0,0.00800386
1,3.7,0,0.00816245
1,3.8,0,0.00832104
1,3.9,0,0.00847962
1,4,0,0.008615
1,4.1,0,0.00874844
1,4.2,0,0.00888188
1,4.3,0,0.00901532
1,4.4,0,0.00914771
1,4.5,0,0.00925398
1,4.6,0,0.00936025
1,4.7,0,0.00946652
1,4.8,0,0.00957279
1,4.9,0,0.0096746
1,5,0,0.00975184
1,5.1,0,0.00982908
1,5.2,0,0.00990632
1,5.3,0,0.00998356
1,5.4,0,0.0100526
1,5.5,0,0.0100995
1,5.6,0,0.0101463
1,5.7,0,0.0101932
1,5.8,0,0.01024
1,5.9,0,0.0102749
1,6,0,0.0102905
1,6.1,0,0.0103062
1,6.2,0,0.0103218
1,6.3,0,0.0103375
1,6.4,0,0.0103374
1,6.5,0,0.0103215
1,6.6,0,0.0103057
1,6.7,0,0.0102899
1,6.8,0,0.0102741
1,6.9,0,0.010239
1,7,0,0.010192
1,7.1,0,0.010145
1,7.2,0,0.010098
1,7.3,0,0.010051
1,7.4,0,0.0099818
1,7.5,0,0.00990446
1,7.6,0,0.00982712
1,7.7,0,0.00974978
1,7.8,0,0.00967244
1,7.9,0,0.00957056
1,8,0,0.00946423
1,8.1,0,0.00935789
1,8.2,0,0.00925156
1,8.3,0,0.00914522
1,8.4,0,0.00901276
1,8.5,0,0.00887925
1,8.6,0,0.00874574
1,8.7,0,0.00861223
1,8.8,0,0.00847678
1,8.9,0,0.00831807
1,9,0,0.00815936
1,9.1,0,0.00800065
1,9.2,0,0.00784194
1,9.3,0,0.00767885
1,9.4,0,0.00749737
1,9.5,0,0.00731589
1,9.6,0,0.00713442
1,9.7,0,0.00695294
1,9.8,0,0.00676531
1,9.9,0,0.00656385
1,10,0,0.00636239
1,10.1,0,0.00616093
1,10.2,0,0.00595948
1,10.3,0,0.00575094
1,10.4,0,0.00553276
1,10.5,0,0.00531458
1,10.6,0,0.0050964
1,10.7,0,0.00487822
1,10.8,0,0.00465219
1,10.9,0,0.00441944
1,11,0,0.00418669
1,11.1,0,0.00395395
1,11.2,0,0.0037212
1,11.3,0,0.00348149
1,11.4,0,0.00323844
1,11.5,0,0.0029954
1,11.6,0,0.00275236
1,11.7,0,0.00250931
1,11.8,0,0.00226047
1,11.9,0,0.00200988
1,12,0,0.00175929
1,12.1,0,0.0015087
1,12.2,0,0.00125812
1,12.3,0,0.00100666
1,12.4,0,0.000754992
1,12.5,0,0.000503328
1,12.6,0,0.000251664
1,12.7,0,0
1.1,0,0,0
1.1,0.1,0,0.000255572
1.1,0.2,0,0.000507701
1.1,0.3,0,0.00075983
1.1,0.4,0,0.001012
1.1,0.5,0,0.0012679
1.1,0.6,0,0.00152081
1.1,0.7,0,0.00176909
1.1,0.8,0,0.00201736
1.1,0.9,0,0.00226573
1.1,1,0,0.00251762
1.1,1.1,0,0.00276525
1.1,1.2,0,0.00300989
1.1,1.3,0,0.00325454
1.1,1.4,0,0.00349982
1.1,1.5,0,0.00374506
1.1,1.6,0,0.0039791
1.1,1.7,0,0.00421119
1.1,1.8,0,0.00444329
1.1,1.9,0,0.00467739
1.1,2,0,0.00491006
1.1,2.1,0,0.00513201
1.1,2.2,0,0.0053517
1.1,2.3,0,0.0055714
1.1,2.4,0,0.00579321
1.1,2.5,0,0.00600605
1.1,2.6,0,0.00620888
1.1,2.7,0,0.00641033
1.1,2.8,0,0.00661178
1.1,2.9,0,0.00681537
1.1,3,0,0.00700671
1.1,3.1,0,0.0071893
1.1,3.2,0,0.00737075
1.1,3.3,0,0.0075522
1.1,3.4,0,0.00773602
1.1,3.5,0,0.0079025
1.1,3.6,0,0.00806169
1.1,3.7,0,0.00822028
1.1,3.8,0,0.00837887
1.1,3.9,0,0.00853993
1.1,4,0,0.00867801
1.1,4.1,0,0.0088116
1.1,4.2,0,0.00894504
1.1,4.3,0,0.00907852
1.1,4.4,0,0.00921363
1.1,4.5,0,0.00932178
1.1,4.6,0,0.00942805
1.1,4.7,0,0.00953432
1.1,4.8,0,0.00964091
1.1,4.9,0,0.00974496
1.1,5,0,0.00982329
1.1,5.1,0,0.00990054
1.1,5.2,0,0.00997778
1.1,5.3,0,0.0100555
1.1,5.4,0,0.0101261
1.1,5.5,0,0.0101735
1.1,5.6,0,0.0102203
1.1,5.7,0,0.0102672
1.1,5.8,0,0.0103145
1.1,5.9,0,0.0103502