/*--------------------------------*- C++ -*----------------------------------*\
| =========                 |                                                 |
| \\      /  F ield         | OpenFOAM: The Open Source CFD Toolbox           |
|  \\    /   O peration     | Version:  v1806                                 |
|   \\  /    A nd           | Web:      www.OpenFOAM.com                      |
|    \\/     M anipulation  |                                                 |
\*---------------------------------------------------------------------------*/
FoamFile
{
    version     2.0;
    format      ascii;
    class       surfaceScalarField;
    location    "11";
    object      phi;
}
// * * * * * * * * * * * * * * * * * * * * * * * * * * * * * * * * * * * * * //

dimensions      [0 3 -1 0 0 0 0];
oriented        oriented;


internalField   nonuniform List<scalar> 
4680
(
0.749419
0.00659683
0.750619
-0.0110697
0.750159
0.00356498
0.750211
-0.0226021
0.749016
-0.0284046
0.750402
-0.0185714
0.750019
-0.00363186
0.7498
-0.0432266
0.747619
-0.0666085
0.748861
-0.0554439
0.749577
-0.0286178
0.750534
-0.0624155
0.748022
-0.119351
0.746099
-0.127182
0.747345
-0.0930569
0.749985
-0.109366
0.748643
-0.171494
0.74563
-0.20074
0.747555
-0.199835
-0.20349
0.751809
0.748856
0.00774093
0.750862
-0.013076
0.749544
0.0048827
0.750447
-0.0235042
0.748213
-0.0261715
0.750262
-0.0206199
0.749081
-0.00245123
0.749811
-0.0439567
0.746546
-0.0633426
0.748157
-0.0570551
0.747692
-0.0281533
0.749783
-0.0645059
0.746304
-0.115872
0.744313
-0.12519
0.744443
-0.0931871
0.747304
-0.112227
0.746619
-0.170809
0.742914
-0.197034
0.739328
-0.196249
-0.200762
0.736601
0.748494
0.00924668
0.750873
-0.0154544
0.748972
0.00678352
0.75053
-0.0250626
0.747662
-0.0233038
0.750034
-0.0229912
0.74815
-0.000567947
0.749605
-0.0454115
0.74566
-0.0593977
0.747555
-0.0589502
0.745866
-0.0264639
0.748724
-0.0673636
0.74429
-0.111439
0.742986
-0.123887
0.741982
-0.0921828
0.745352
-0.115597
0.744242
-0.169699
0.741814
-0.194605
0.744716
-0.199152
-0.205474
0.749427
0.74819
0.011057
0.750836
-0.0181013
0.748561
0.00905936
0.750577
-0.0270792
0.74721
-0.0199365
0.749783
-0.0255643
0.747436
0.00177874
0.749342
-0.0473172
0.744643
-0.0546985
0.74678
-0.0610873
0.744107
-0.0237908
0.747796
-0.0710522
0.742269
-0.105912
0.741725
-0.123342
0.739435
-0.0898927
0.743718
-0.119881
0.742012
-0.167993
0.739155
-0.191749
0.736668
-0.196665
-0.203565
0.734759
0.74798
0.0130769
0.750855
-0.0209764
0.748241
0.0116736
0.750601
-0.0294395
0.746825
-0.0161597
0.749543
-0.0282831
0.746759
0.00456301
0.748934
-0.0494926
0.743591
-0.0493552
0.746112
-0.0636085
0.742529
-0.0202079
0.74688
-0.075403
0.740104
-0.099136
0.740699
-0.123937
0.736952
-0.0861456
0.742008
-0.124937
0.738878
-0.164862
0.737977
-0.190848
0.741807
-0.200495
-0.209187
0.747429
0.747914
0.0151628
0.750919
-0.0239818
0.748002
0.0145914
0.750607
-0.0320454
0.746434
-0.0119858
0.749223
-0.0310723
0.74617
0.00761579
0.748476
-0.0517988
0.742609
-0.0434876
0.745457
-0.0664567
0.741153
-0.0159037
0.746021
-0.080271
0.738081
-0.0911966
0.739585
-0.125441
0.734207
-0.0807679
0.740166
-0.130896
0.735868
-0.160564
0.735947
-0.190928
0.733801
-0.198349
-0.20823
0.732844
0.748017
0.0171457
0.75097
-0.0269342
0.747809
0.0177523
0.750541
-0.0347781
0.74596
-0.00740465
0.748878
-0.03399
0.745621
0.0108724
0.747989
-0.0541668
0.741805
-0.0373037
0.744936
-0.069587
0.739931
-0.0108995
0.745183
-0.0855228
0.735986
-0.081999
0.73838
-0.127835
0.731362
-0.0737505
0.738292
-0.137826
0.732279
-0.15455
0.734636
-0.193286
0.73839
-0.202102
-0.215057
0.745217
0.748262
0.0188836
0.750914
-0.0295866
0.747663
0.0210036
0.750314
-0.037429
0.745465
-0.00255581
0.748542
-0.0370664
0.745161
0.014253
0.74763
-0.0566361
0.741302
-0.0309753
0.744391
-0.0726762
0.738876
-0.00538421
0.744277
-0.0909241
0.733903
-0.0716245
0.737027
-0.130959
0.728467
-0.0651912
0.736368
-0.145727
0.728593
-0.146775
0.732312
-0.197005
0.729702
-0.199493
-0.215413
0.730058
0.748538
0.0203454
0.750683
-0.031731
0.747568
0.0241185
0.749972
-0.0398333
0.745105
0.00231113
0.748306
-0.040267
0.744869
0.0176901
0.747478
-0.0592454
0.740951
-0.0244481
0.74386
-0.0755854
0.73794
0.000536163
0.743226
-0.0962103
0.7318
-0.0601989
0.735772
-0.134931
0.72557
-0.0549889
0.73437
-0.154527
0.724292
-0.136697
0.730374
-0.203087
0.729114
-0.198232
-0.227689
0.74139
0.748746
0.0215991
0.750335
-0.0333199
0.747659
0.0267944
0.749619
-0.0417926
0.74508
0.00685016
0.74819
-0.0433769
0.74482
0.0210592
0.747383
-0.0618084
0.740742
-0.0178066
0.743261
-0.0781041
0.737168
0.00662889
0.742006
-0.101048
0.730029
-0.0482217
0.734465
-0.139367
0.7227
-0.043224
0.732028
-0.163855
0.719797
-0.124466
0.727767
-0.211056
0.723913
-0.194378
-0.237642
0.733866
0.748925
0.0226744
0.75003
-0.0344254
0.747967
0.0288576
0.74938
-0.043206
0.745466
0.0107648
0.748186
-0.0460974
0.744932
0.0243129
0.747322
-0.0641976
0.740599
-0.0110843
0.74269
-0.0801947
0.73658
0.0127386
0.740732
-0.105201
0.728472
-0.0359619
0.732856
-0.143751
0.719719
-0.0300869
0.72936
-0.173497
0.714872
-0.109978
0.724705
-0.220889
0.719565
-0.189238
-0.25378
0.735703
0.749339
0.023335
0.749693
-0.0347795
0.748517
0.0300345
0.7493
-0.0439892
0.746236
0.0138281
0.748189
-0.0480496
0.745285
0.0272167
0.747239
-0.066152
0.740612
-0.00445712
0.742257
-0.0818397
0.736243
0.0187532
0.739335
-0.108293
0.727137
-0.0237638
0.730802
-0.147416
0.716776
-0.0160612
0.726521
-0.183241
0.709472
-0.0929298
0.721546
-0.232963
0.714017
-0.181708
-0.273651
0.733888
0.750053
0.0232823
0.749159
-0.0338856
0.749462
0.0297311
0.749018
-0.0435446
0.747423
0.015423
0.748086
-0.0487125
0.745943
0.0293592
0.747125
-0.0673341
0.740854
0.00181431
0.741809
-0.0827948
0.735992
0.0245702
0.737675
-0.109976
0.725975
-0.0120631
0.728229
-0.149671
0.714421
-0.00225316
0.72308
-0.1919
0.70358
-0.0734292
0.718444
-0.247828
0.707127
-0.170391
-0.299203
0.732678
0.750996
0.0222867
0.749037
-0.0319274
0.750705
0.0280631
0.748654
-0.0414935
0.748917
0.0151607
0.747249
-0.0470449
0.747448
0.0291605
0.746157
-0.0660434
0.7416
0.00637175
0.740832
-0.0820271
0.735851
0.0295511
0.735665
-0.10979
0.725233
-0.00163119
0.725101
-0.149538
0.712783
0.0100653
0.71883
-0.197948
0.697666
-0.0522656
0.715658
-0.26582
0.69769
-0.152422
-0.334085
0.732572
0.752084
0.0202026
0.749024
-0.0288677
0.751698
0.0253893
0.748447
-0.0382426
0.749824
0.013784
0.746543
-0.043764
0.748254
0.0274501
0.744609
-0.0623989
0.74236
0.00862033
0.738539
-0.0782061
0.736699
0.0313919
0.733112
-0.106203
0.724818
0.00666203
0.721846
-0.146566
0.711729
0.0201826
0.713774
-0.199993
0.692318
-0.0308093
0.712693
-0.286195
0.685134
-0.124863
-0.384772
0.735821
0.753193
0.0170099
0.748981
-0.0246565
0.752677
0.0216935
0.748007
-0.0335721
0.750404
0.0113873
0.74543
-0.0387908
0.748329
0.0245511
0.742611
-0.0566811
0.74234
0.00889207
0.735959
-0.0718255
0.736899
0.0304516
0.729042
-0.0983456
0.726654
0.00904979
0.715879
-0.135791
0.711588
0.024473
0.707521
-0.195926
0.68805
-0.0113377
0.707596
-0.305741
0.670513
-0.0877805
-0.459547
0.745288
0.754018
0.0129924
0.748813
-0.0194523
0.753362
0.0171443
0.747225
-0.027435
0.750636
0.00797703
0.743935
-0.0320904
0.748196
0.0202908
0.740448
-0.0489337
0.741955
0.00738508
0.733241
-0.0631115
0.736356
0.0273373
0.725727
-0.0877172
0.725611
0.00916571
0.711459
-0.121639
0.712428
0.0235038
0.700157
-0.183654
0.68392
0.00489936
0.698475
-0.320297
0.65841
-0.0477159
-0.56834
0.767203
0.753889
0.00910317
0.748467
-0.0140302
0.753273
0.0123384
0.746573
-0.0207345
0.750688
0.00386156
0.74293
-0.0243322
0.7486
0.0146203
0.738708
-0.0390415
0.742852
0.00324158
0.73065
-0.0509103
0.736886
0.0211018
0.721871
-0.0727022
0.725626
0.0054104
0.705145
-0.101158
0.711315
0.0173341
0.684709
-0.157048
0.685623
0.00398505
0.673228
-0.307902
0.637976
-0.0124639
-0.744592
0.814229
0.752509
0.00659422
0.74836
-0.00988154
0.752155
0.00854412
0.746975
-0.0155546
0.749968
0.00086855
0.74373
-0.0180941
0.748779
0.00957135
0.7395
-0.0297626
0.743945
-0.00120382
0.731296
-0.0382612
0.738544
0.0138539
0.721869
-0.0560269
0.727032
0.000246586
0.703011
-0.0771366
0.710838
0.00950713
0.675308
-0.121518
0.679254
3.81125e-05
0.640473
-0.26912
0.618156
0.00985315
-0.938923
0.812486
0.751557
0.00503769
0.748872
-0.00719737
0.751392
0.00602466
0.748265
-0.0124281
0.749217
-8.3343e-05
0.745787
-0.0146637
0.748232
0.00712607
0.742619
-0.0241494
0.743384
-0.00196922
0.735981
-0.0308575
0.738371
0.011463
0.728557
-0.0462124
0.727689
0.00111436
0.713024
-0.0624713
0.713478
0.00905341
0.688674
-0.096714
0.689648
-0.000936074
0.638767
-0.218239
0.715257
-0.0666364
0.943359
-1.16702
0.748746
-0.0300975
0.746754
-0.030878
0.745625
-0.0315277
0.745468
-0.0323641
0.746
-0.0330325
0.746452
-0.033402
0.74665
-0.0336684
0.746738
-0.0340253
0.746745
-0.0344429
-0.0348912
0.746836
0.740069
-0.0335653
0.742528
-0.0333369
0.744112
-0.0331123
0.744719
-0.0329708
0.744511
-0.0328251
0.744384
-0.0332742
0.744399
-0.0336837
0.744592
-0.0342183
0.744774
-0.0346245
-0.0350437
0.744926
0.74631
-0.0304486
0.744253
-0.0312799
0.743073
-0.0319323
0.742943
-0.0328405
0.74363
-0.0335118
0.744295
-0.0339397
0.744739
-0.0341272
0.745059
-0.0345388
0.745261
-0.0348261
-0.0352882
0.745505
0.738447
-0.0341366
0.741121
-0.0339534
0.742925
-0.0337364
0.743751
-0.0336667
0.743731
-0.033491
0.743794
-0.0340029
0.743998
-0.0343319
0.744385
-0.0349249
0.744722
-0.0351635
-0.0356418
0.745076
0.744504
-0.0312111
0.74267
-0.0321189
0.741732
-0.0327985
0.741826
-0.0337607
0.742734
-0.0343991
0.743603
-0.0348719
0.744224
-0.034953
0.744698
-0.0353992
0.745033
-0.0354986
-0.0360359
0.745427
0.736799
-0.0351658
0.739728
-0.0350483
0.741799
-0.0348688
0.742905
-0.0348671
0.743154
-0.0346484
0.743453
-0.0351712
0.74387
-0.0353692
0.744434
-0.0359636
0.744913
-0.0359777
-0.0364988
0.745376
0.742592
-0.0325409
0.741103
-0.0335591
0.740522
-0.0342879
0.741073
-0.0354185
0.742288
-0.0358637
0.743405
-0.0362879
0.744223
-0.0361867
0.744879
-0.0366196
0.745385
-0.0364838
-0.0369747
0.745861
0.73453
-0.0370121
0.738102
-0.0371319
0.740841
-0.0370268
0.742271
-0.0368481
0.74295
-0.0365424
0.743564
-0.0369028
0.744174
-0.0367967
0.744861
-0.0373064
0.745435
-0.0370575
-0.0376491
0.746109
0.739991
-0.0356128
0.739793
-0.036934
0.740216
-0.0374497
0.741367
-0.0379998
0.742664
-0.0378395
0.743834
-0.0380727
0.744756
-0.037719
0.745589
-0.0381389
0.746216
-0.0376846
-0.0382503
0.746817
0.73757
-0.039316
0.739715
-0.0390793
0.741207
-0.0389417
0.742414
-0.0392066
0.74347
-0.0388961
0.744572
-0.0391739
0.745503
-0.0386504
0.746422
-0.0390574
0.7471
-0.0383634
-0.0388402
0.74769
0.737511
-0.041124
0.739301
-0.04087
0.740998
-0.0406388
0.742576
-0.0407839
0.74387
-0.0401909
0.745107
-0.0404105
0.74608
-0.0396232
0.747049
-0.0400266
0.747687
-0.0390018
-0.0396589
0.748506
0.736545
-0.0437813
0.738926
-0.0432504
0.740976
-0.0426888
0.742857
-0.0426654
0.744416
-0.04175
0.74591
-0.0419045
0.747068
-0.0407813
0.748245
-0.0412031
0.749024
-0.0397805
-0.0405847
0.749949
0.735949
-0.0470522
0.738826
-0.0461267
0.74136
-0.045223
0.743624
-0.0449296
0.74558
-0.0437057
0.747433
-0.0437581
0.748958
-0.0423061
0.750475
-0.0427206
0.75159
-0.0408954
-0.0415908
0.752596
0.737089
-0.051569
0.740809
-0.0498469
0.744001
-0.0484142
0.746647
-0.0475759
0.749001
-0.0460601
0.751247
-0.046004
0.753199
-0.044258
0.755041
-0.0445622
0.756471
-0.0423261
-0.0428602
0.757741
0.742314
-0.0580617
0.747918
-0.0554515
0.752236
-0.0527319
0.755479
-0.0508186
0.758311
-0.0488924
0.760316
-0.0480088
0.76211
-0.0460519
0.763379
-0.045832
0.764465
-0.0434113
-0.0442368
0.765841
0.753942
-0.0667156
0.760562
-0.0620713
0.766498
-0.0586679
0.770739
-0.0550602
0.774403
-0.0525555
0.776605
-0.0502114
0.778695
-0.0481416
0.779465
-0.0466016
0.780398
-0.0443447
-0.0431542
0.779315
0.771185
-0.070698
0.774909
-0.0657945
0.777394
-0.0611532
0.778911
-0.0565776
0.78017
-0.0538143
0.780563
-0.0506043
0.781012
-0.0485903
0.780416
-0.0460059
0.780251
-0.0441792
-0.0426333
0.77973
0.823836
-0.080305
0.824622
-0.0665802
0.82153
-0.0580615
0.817372
-0.0524199
0.812478
-0.0489204
0.80723
-0.0453558
0.801585
-0.0429459
0.795494
-0.0399148
0.789843
-0.0385284
-0.0357895
0.783
0.811788
-0.0796066
0.808988
-0.0637809
0.803909
-0.0529824
0.798687
-0.0471974
0.79167
-0.0419041
0.78489
-0.0385754
0.77618
-0.0342357
0.768927
-0.0326622
0.759981
-0.0295819
-0.0305465
0.754738
0.863753
0.799972
0.746989
0.699792
0.657888
0.619312
0.585077
0.552415
0.522833
0.492286
0.745986
-0.210575
0.744089
-0.219653
0.743001
-0.236497
0.74016
-0.229835
0.737108
-0.212485
0.736891
-0.237477
0.734499
-0.273799
0.726528
-0.27845
0.7173
-0.29903
0.706073
-0.363503
0.685564
-0.423617
0.656783
-0.467464
0.625818
-0.541805
0.590531
-0.631019
0.541639
-0.690451
0.475783
-0.682362
0.397816
-0.658549
0.320554
-0.582617
0.246544
-0.5509
-0.361346
0.744362
-0.210011
0.74346
-0.218751
0.742706
-0.235743
0.73829
-0.22542
0.734896
-0.209091
0.735007
-0.237588
0.729975
-0.268767
0.718174
-0.266649
0.706328
-0.287185
0.690779
-0.347953
0.664726
-0.397565
0.634134
-0.436871
0.606129
-0.5138
0.573788
-0.598678
0.528973
-0.645636
0.470332
-0.623721
0.407236
-0.595454
0.34496
-0.520341
0.289238
-0.495178
-0.331799
0.745207
-0.209713
0.7449
-0.218444
0.743979
-0.234822
0.738723
-0.220163
0.735806
-0.206174
0.7358
-0.237582
0.728603
-0.261569
0.714998
-0.253044
0.70255
-0.274737
0.686531
-0.331934
0.661404
-0.372438
0.633698
-0.409165
0.608283
-0.488384
0.576998
-0.567393
0.531742
-0.60038
0.471108
-0.563086
0.404284
-0.52863
0.33928
-0.455337
0.285319
-0.441217
-0.305921
0.74478
-0.209417
0.744938
-0.218602
0.743543
-0.233427
0.737189
-0.213809
0.734763
-0.203748
0.734647
-0.237467
0.725043
-0.251965
0.709595
-0.237597
0.696168
-0.26131
0.676579
-0.312344
0.646399
-0.342258
0.616892
-0.379658
0.592565
-0.464057
0.562093
-0.536921
0.518561
-0.556849
0.465537
-0.510062
0.4115
-0.474593
0.361552
-0.405388
0.315391
-0.395056
-0.280097
0.745156
-0.209146
0.745736
-0.219182
0.743809
-0.2315
0.737146
-0.207147
0.736031
-0.202633
0.735874
-0.23731
0.724485
-0.240576
0.707921
-0.221033
0.692861
-0.24625
0.670482
-0.289966
0.64034
-0.312116
0.614903
-0.354221
0.594618
-0.443773
0.565748
-0.508051
0.521182
-0.512283
0.463812
-0.452692
0.40456
-0.415341
0.351487
-0.352315
0.309388
-0.352958
-0.260227
0.745112
-0.208882
0.746054
-0.220124
0.743542
-0.228987
0.736699
-0.200304
0.737013
-0.202947
0.736474
-0.236771
0.722615
-0.226716
0.704661
-0.203079
0.688008
-0.229597
0.661899
-0.263857
0.62899
-0.279206
0.603697
-0.328928
0.582635
-0.422711
0.550658
-0.476073
0.505691
-0.467316
0.455985
-0.402986
0.409327
-0.368684
0.368124
-0.311112
0.329406
-0.31424
-0.238209
0.745553
-0.208574
0.746608
-0.221179
0.743454
-0.225833
0.737076
-0.193926
0.739021
-0.204892
0.737837
-0.235586
0.722582
-0.211462
0.704444
-0.18494
0.685435
-0.210588
0.655311
-0.233732
0.622398
-0.246294
0.600827
-0.307357
0.582646
-0.40453
0.551453
-0.44488
0.504139
-0.420002
0.449165
-0.348012
0.397545
-0.317064
0.356259
-0.269825
0.324116
-0.282097
-0.22136
0.745643
-0.208108
0.746779
-0.222315
0.743213
-0.222267
0.737499
-0.188213
0.741061
-0.208454
0.739451
-0.233976
0.723181
-0.195192
0.704386
-0.166145
0.681668
-0.18787
0.646597
-0.198662
0.613408
-0.213105
0.593517
-0.287466
0.571265
-0.382278
0.532887
-0.406502
0.48496
-0.372075
0.43891
-0.301962
0.399449
-0.277603
0.366175
-0.236551
0.335339
-0.251261
-0.203295
0.745978
-0.207269
0.747041
-0.223378
0.743336
-0.218562
0.738693
-0.183569
0.743711
-0.213473
0.741676
-0.231941
0.725127
-0.178643
0.705625
-0.146643
0.678573
-0.160818
0.63955
-0.159638
0.607583
-0.181138
0.589645
-0.269529
0.566961
-0.359593
0.526615
-0.366156
0.474373
-0.319833
0.42387
-0.251459
0.383384
-0.237117
0.354446
-0.207613
0.331214
-0.228029
-0.18936
0.746125
-0.205704
0.747183
-0.224436
0.744103
-0.215482
0.740187
-0.179653
0.745616
-0.218902
0.743607
-0.229931
0.728379
-0.163414
0.708315
-0.12658
0.675256
-0.127758
0.631637
-0.116019
0.601387
-0.150888
0.582342
-0.250484
0.54996
-0.327212
0.501176
-0.317372
0.451872
-0.27053
0.412225
-0.211812
0.381969
-0.206861
0.358239
-0.183883
0.336451
-0.206241
-0.175472
0.745919
-0.203116
0.747632
-0.22615
0.745764
-0.213614
0.741028
-0.174917
0.745913
-0.223787
0.745988
-0.230005
0.733887
-0.151314
0.711903
-0.104596
0.671935
-0.0877899
0.62525
-0.0693345
0.595603
-0.121242
0.573583
-0.228464
0.536688
-0.290316
0.483754
-0.264437
0.430937
-0.217713
0.391565
-0.172441
0.365752
-0.181047
0.348811
-0.166942
0.333712
-0.191142
-0.164677
0.746476
-0.199643
0.749843
-0.229517
0.748514
-0.212285
0.739758
-0.166161
0.743539
-0.227568
0.749124
-0.235591
0.74256
-0.14475
0.718044
-0.0800802
0.669292
-0.0390381
0.619465
-0.0195077
0.590473
-0.0922488
0.558914
-0.196905
0.506675
-0.238077
0.449631
-0.207394
0.406105
-0.174187
0.378862
-0.145198
0.361462
-0.163647
0.348734
-0.154214
0.335806
-0.178214
-0.154712
0.748812
-0.195858
0.755506
-0.236211
0.751303
-0.208082
0.733567
-0.148425
0.737782
-0.231783
0.755525
-0.253333
0.757028
-0.146253
0.726979
-0.0500307
0.668627
0.0193137
0.614504
0.034615
0.579506
-0.057251
0.538544
-0.155943
0.479083
-0.178616
0.419094
-0.147404
0.378719
-0.133812
0.358868
-0.125347
0.349183
-0.153963
0.342844
-0.147874
0.334725
-0.170095
-0.146841
0.75458
-0.192697
0.765671
-0.247302
0.751159
-0.19357
0.720515
-0.11778
0.732373
-0.243642
0.768741
-0.2897
0.778518
-0.156031
0.737984
-0.00949621
0.666696
0.0906011
0.610122
0.0911895
0.565814
-0.0129434
0.504138
-0.0942663
0.434317
-0.108796
0.382603
-0.0956905
0.356943
-0.108152
0.34842
-0.116824
0.345149
-0.150692
0.342158
-0.144883
0.336113
-0.16405
-0.139887
0.766687
-0.193543
0.776279
-0.256894
0.741951
-0.159242
0.703996
-0.0798254
0.731582
-0.271228
0.784627
-0.342745
0.797092
-0.168496
0.746894
0.0407019
0.662834
0.174662
0.596082
0.157941
0.538068
0.0450713
0.463145
-0.0193433
0.3908
-0.0364506
0.348384
-0.0532751
0.33544
-0.0952077
0.336753
-0.118137
0.339561
-0.1535
0.340387
-0.145709
0.336935
-0.160598
-0.134069
0.783083
-0.197311
0.78025
-0.254061
0.722723
-0.101715
0.686715
-0.0438175
0.725351
-0.309865
0.780125
-0.397518
0.787871
-0.176243
0.728904
0.0996692
0.639218
0.264347
0.564271
0.232888
0.487163
0.122179
0.403056
0.0647639
0.343505
0.0231002
0.321813
-0.0315826
0.323679
-0.0970737
0.332757
-0.127215
0.339034
-0.159777
0.341548
-0.148222
0.339173
-0.158223
-0.128751
0.791554
-0.209135
0.771782
-0.234289
0.702666
-0.0325993
0.671814
-0.0129654
0.684758
-0.322809
0.714007
-0.426766
0.717119
-0.179356
0.669433
0.147356
0.599687
0.334093
0.528349
0.304226
0.433455
0.217074
0.344737
0.153482
0.304199
0.0636382
0.303593
-0.0309774
0.317438
-0.110919
0.331838
-0.141614
0.340202
-0.168141
0.343688
-0.151709
0.341942
-0.156476
-0.123707
0.771574
-0.197709
0.716916
-0.17963
0.672252
0.0120647
0.614892
0.0443942
0.552711
-0.260629
0.551751
-0.425806
0.546598
-0.174203
0.516542
0.177412
0.48516
0.365474
0.427521
0.361865
0.336322
0.308273
0.278557
0.211247
0.275451
0.0667448
0.296949
-0.0524758
0.319596
-0.133566
0.336475
-0.158494
0.344875
-0.176541
0.347888
-0.154721
0.34578
-0.154368
-0.118485
0.702618
-0.145589
0.654946
-0.131959
0.63563
0.0313807
0.478589
0.201436
0.332427
-0.114466
0.337486
-0.430866
0.361988
-0.198705
0.37738
0.16202
0.367778
0.375076
0.301748
0.427895
0.235452
0.374569
0.231195
0.215503
0.265053
0.0328868
0.301969
-0.0893919
0.328707
-0.160304
0.345298
-0.175084
0.352067
-0.183311
0.353566
-0.15622
0.350412
-0.151215
-0.112744
0.38051
-0.0338127
0.350389
-0.101839
0.250168
0.131602
0.0782748
0.373329
0.0367107
-0.0729022
0.126043
-0.520198
0.204368
-0.277029
0.236554
0.129834
0.217409
0.394221
0.168024
0.477279
0.163221
0.379373
0.212978
0.165746
0.27111
-0.0252457
0.316002
-0.134283
0.342992
-0.187294
0.357286
-0.189378
0.361199
-0.187224
0.360429
-0.155449
0.355689
-0.146475
-0.106201
0.0274999
-0.0613127
0.0484764
-0.122815
0.0321755
0.147903
-0.0142228
0.419727
-0.0276862
-0.0594389
-0.000813749
-0.54707
0.0411027
-0.318946
0.0559398
0.114997
0.0492435
0.400917
0.0407009
0.485822
0.0561296
0.363944
0.086496
0.13538
0.113316
-0.0520661
0.131719
-0.152685
0.141726
-0.197302
0.146457
-0.194108
0.147109
-0.187877
0.146164
-0.154505
0.143786
-0.144097
-0.103325
-0.000123586
-0.0611891
0.017189
-0.140128
0.00438726
0.160705
-0.0315852
0.4557
-0.0421694
-0.0488547
-0.0221682
-0.567072
0.0188434
-0.359957
0.0345034
0.0993371
0.0292554
0.406165
0.0286065
0.48647
0.0539636
0.338587
0.0889993
0.100344
0.116909
-0.0799752
0.134997
-0.170774
0.144313
-0.206618
0.148392
-0.198187
0.148561
-0.188046
0.147275
-0.153219
0.144656
-0.141477
-0.100317
-0.0152785
-0.0459105
-0.00498007
-0.150426
-0.014249
0.169974
-0.0399258
0.481376
-0.0483141
-0.0404664
-0.0382908
-0.577095
-0.00198106
-0.396267
0.0144214
0.0829346
0.0117836
0.408803
0.0204871
0.477767
0.0549636
0.304111
0.0930008
0.0623067
0.121214
-0.108189
0.138585
-0.188144
0.14699
-0.215023
0.150327
-0.201524
0.149991
-0.18771
0.148373
-0.151601
0.145522
-0.138626
-0.0971792
-0.0223225
-0.023588
-0.0171655
-0.155584
-0.0242795
0.177088
-0.0394327
0.49653
-0.0441281
-0.035771
-0.0469687
-0.574254
-0.0198256
-0.42341
-0.00340114
0.0665102
-0.00186443
0.407266
0.0169174
0.458985
0.0587461
0.262282
0.0984172
0.0226356
0.126286
-0.136058
0.142496
-0.204354
0.149733
-0.222259
0.152227
-0.204018
0.151374
-0.186857
0.149443
-0.14967
0.146376
-0.135559
-0.0939174
-0.0270554
0.0034674
-0.0227511
-0.159888
-0.0269574
0.181294
-0.0309285
0.500501
-0.0310723
-0.0356272
-0.0473738
-0.557953
-0.0331447
-0.437639
-0.0181481
0.0515135
-0.0107768
0.399895
0.0182019
0.430006
0.0649611
0.215523
0.105294
-0.0176978
0.132173
-0.162936
0.146762
-0.218944
0.152562
-0.228059
0.154099
-0.205556
0.152709
-0.185467
0.150481
-0.147441
0.147215
-0.132293
-0.0905381
-0.029309
0.0327764
-0.0230681
-0.166129
-0.0234331
0.181659
-0.0150554
0.492123
-0.00882518
-0.0418574
-0.0384362
-0.528342
-0.0398433
-0.436232
-0.0270191
0.0386893
-0.0133084
0.386184
0.0243146
0.392383
0.0735272
0.16631
0.113648
-0.057819
0.138859
-0.188146
0.151372
-0.231457
0.155476
-0.232163
0.155948
-0.206027
0.153997
-0.183517
0.151485
-0.144929
0.148037
-0.128844
-0.0870482
-0.0276781
0.0604545
-0.0180917
-0.175715
-0.0139836
0.177551
0.00663306
0.471506
0.0193219
-0.0545462
-0.0201552
-0.488865
-0.0380121
-0.418375
-0.0292281
0.0299054
-0.00899183
0.365948
0.0346116
0.34878
0.084518
0.116404
0.123382
-0.0966829
0.146255
-0.211019
0.156283
-0.241486
0.158471
-0.234351
0.157779
-0.205334
0.155247
-0.180985
0.15246
-0.142143
0.148842
-0.125226
-0.0834539
-0.0238021
0.0842566
-0.00977447
-0.189743
-0.000670775
0.168448
0.0329839
0.437852
0.0499052
-0.0714675
0.00614248
-0.445102
-0.0267827
-0.38545
-0.0233953
0.026518
0.00183013
0.340723
0.0484833
0.302127
0.0977048
0.0671824
0.134299
-0.133277
0.154207
-0.230928
0.161421
-0.2487
0.161532
-0.234462
0.159605
-0.203407
0.15647
-0.17785
0.153413
-0.139086
0.149633
-0.121446
-0.0797599
-0.00376757
0.0880242
0.00920249
-0.202713
0.0231157
0.154534
0.0628632
0.398104
0.0809339
-0.0895382
0.0367383
-0.400906
-0.00658993
-0.342122
-0.00965758
0.0295856
0.0183058
0.312759
0.0655401
0.254892
0.112797
0.0199251
0.146114
-0.166594
0.162511
-0.247324
0.166686
-0.252875
0.164637
-0.232413
0.16144
-0.20021
0.157686
-0.174096
0.154355
-0.135755
0.150414
-0.117505
-0.0759684
0.0401596
0.0478645
0.0344609
-0.197014
0.0431004
0.145895
0.0936868
0.347518
0.110363
-0.106215
0.0702634
-0.360806
0.021069
-0.292928
0.0105083
0.0401463
0.0389789
0.284289
0.0854184
0.208453
0.12933
-0.0239866
0.158667
-0.195932
0.171145
-0.259802
0.172115
-0.253845
0.167875
-0.228173
0.163345
-0.195679
0.158977
-0.169728
0.15532
-0.132098
0.151221
-0.113406
-0.0720742
0.763161
0.11732
-0.832616
0.604091
-0.0379442
0.475007
0.274979
0.552532
0.269993
0.574413
-0.128096
0.482711
-0.269104
0.323689
-0.133906
0.255086
0.108749
0.326596
0.212779
0.453855
0.0811936
0.562397
-0.132528
0.623403
-0.256937
0.634053
-0.270452
0.614513
-0.234304
0.585387
-0.199047
0.561387
-0.17168
0.542212
-0.150553
0.527548
-0.117433
0.512518
-0.0983762
-0.0582017
1.00748
0.13822
-1.02838
0.943716
0.0258181
0.928439
0.290256
0.946522
0.25191
0.869813
-0.0513863
0.794187
-0.193479
0.734694
-0.0744126
0.687718
0.155725
0.702423
0.198074
0.750053
0.0335639
0.774122
-0.156597
0.757366
-0.240182
0.713734
-0.22682
0.664039
-0.184609
0.61943
-0.154437
0.586074
-0.138324
0.56008
-0.124559
0.540688
-0.0980415
0.522195
-0.0798829
-0.0425042
0.997999
0.167836
-1.02762
0.940115
0.0837023
0.987247
0.243124
1.04674
0.19242
0.986698
0.00865237
0.877997
-0.0847778
0.82947
-0.0258861
0.841275
0.14392
0.876519
0.162831
0.89311
0.0169727
0.851452
-0.11494
0.779139
-0.167869
0.719719
-0.167401
0.684567
-0.149457
0.656217
-0.126087
0.625914
-0.108022
0.592295
-0.0909391
0.562896
-0.0686431
0.536028
-0.0530144
-0.0226683
1.00708
0.172373
-1.01161
0.973697
0.117083
1.02127
0.19555
1.05187
0.16182
1.00754
0.0529813
0.943802
-0.0210377
0.903504
0.0144115
0.915545
0.131879
0.945724
0.132652
0.938543
0.0241532
0.884387
-0.0607832
0.819126
-0.102608
0.774329
-0.122604
0.750234
-0.125362
0.725519
-0.101373
0.6883
-0.0708026
0.63955
-0.0421891
0.593945
-0.0230381
0.553896
-0.0129658
0.00339261
1.01124
0.181809
-1.02067
0.987957
0.140365
1.01345
0.170054
1.02548
0.14979
1.00231
0.0761564
0.956157
0.0251133
0.914873
0.0556955
0.921501
0.125251
0.942899
0.111254
0.926173
0.0408786
0.87507
-0.0096797
0.818529
-0.0460672
0.770646
-0.0747203
0.730313
-0.0850291
0.69116
-0.0622187
0.653151
-0.0327937
0.614308
-0.00334635
0.581111
0.0101588
0.549996
0.0181496
0.0263749
1.00534
0.180106
-1.00363
0.996976
0.148726
1.00761
0.159419
1.01201
0.145387
0.994173
0.0939967
0.956104
0.0631822
0.928341
0.083459
0.934883
0.118709
0.937693
0.108444
0.915354
0.063218
0.883503
0.022171
0.842967
-0.00553079
0.783147
-0.014901
0.71611
-0.0179919
0.65994
-0.00604891
0.622035
0.00511166
0.593169
0.0255192
0.569953
0.0333749
0.545826
0.0422769
0.0467636
1.00748
0.176495
-1.00387
0.999115
0.157093
1.0033
0.155236
1.00556
0.143125
0.986847
0.112709
0.956784
0.0932455
0.939738
0.100505
0.937437
0.121009
0.926241
0.119641
0.901719
0.0877395
0.871236
0.0526537
0.833374
0.0323313
0.784912
0.0335609
0.731166
0.0357549
0.679148
0.0459687
0.637377
0.0468828
0.603457
0.0594386
0.577002
0.0598306
0.550208
0.0690711
0.0685973
1.00184
0.174
-0.999343
0.997259
0.161672
0.99929
0.153205
0.996752
0.145663
0.980355
0.129106
0.959154
0.114446
0.944046
0.115613
0.935323
0.129733
0.921137
0.133827
0.896583
0.112293
0.866394
0.0828429
0.831329
0.0673959
0.785222
0.0796679
0.730375
0.090602
0.676528
0.0998157
0.634378
0.0890329
0.599841
0.0939756
0.573107
0.0865646
0.547118
0.0950603
0.0900095
0.999446
0.171312
-0.996759
0.996259
0.164859
0.995578
0.153887
0.991679
0.149562
0.977726
0.143059
0.959998
0.132175
0.945954
0.129657
0.933435
0.142251
0.915824
0.151439
0.892531
0.135586
0.863693
0.11168
0.826627
0.104462
0.782616
0.123679
0.739148
0.13407
0.698505
0.140458
0.661396
0.126142
0.624503
0.130868
0.591354
0.119714
0.557202
0.129212
0.115624
0.997331
0.169573
-0.995592
0.994501
0.167688
0.991803
0.156584
0.987948
0.153417
0.97698
0.154027
0.960326
0.148829
0.943557
0.146426
0.930039
0.155769
0.915677
0.1658
0.891544
0.159719
0.856402
0.146823
0.819683
0.14118
0.786666
0.156696
0.752908
0.167829
0.710938
0.182428
0.665264
0.171817
0.619006
0.177126
0.58151
0.157211
0.548144
0.162578
0.140079
0.995656
0.168222
-0.994305
0.993543
0.169801
0.988684
0.161444
0.983639
0.158462
0.975974
0.161692
0.961598
0.163206
0.942814
0.165209
0.927463
0.17112
0.914921
0.178343
0.893647
0.180993
0.857986
0.182484
0.816721
0.182445
0.779223
0.194194
0.747038
0.200014
0.714742
0.214724
0.680288
0.20627
0.640559
0.216854
0.601308
0.196462
0.559381
0.204506
0.169529
0.994453
0.167591
-0.993822
0.992533
0.171722
0.987052
0.166925
0.981203
0.164311
0.974178
0.168716
0.961291
0.176093
0.944012
0.182488
0.928639
0.186493
0.913396
0.193586
0.889575
0.204813
0.855852
0.216207
0.821074
0.217223
0.791727
0.223541
0.763044
0.228697
0.724626
0.253141
0.675844
0.255053
0.621331
0.271368
0.576135
0.241658
0.538048
0.242592
0.195065
0.994305
0.167528
-0.994242
0.991966
0.174062
0.986336
0.172555
0.980289
0.170358
0.97343
0.175575
0.962272
0.187251
0.946679
0.19808
0.930315
0.202858
0.913719
0.210181
0.891211
0.227322
0.858005
0.249413
0.817963
0.257266
0.779069
0.262434
0.743759
0.264008
0.708078
0.288822
0.671428
0.291703
0.631706
0.31109
0.592847
0.280517
0.54864
0.286799
0.225633
0.993758
0.167977
-0.994207
0.991457
0.176363
0.986142
0.177869
0.979534
0.176966
0.973122
0.181987
0.963575
0.196798
0.948983
0.212673
0.932062
0.219779
0.91352
0.228723
0.890311
0.250531
0.862047
0.277676
0.831585
0.287728
0.798924
0.295096
0.760086
0.302845
0.712711
0.336197
0.659053
0.345362
0.601658
0.368485
0.553292
0.328883
0.513403
0.326688
0.249866
0.994483
0.169052
-0.995558
0.992222
0.178624
0.988161
0.18193
0.980688
0.184439
0.972735
0.18994
0.965153
0.20438
0.953093
0.224733
0.935455
0.237416
0.915881
0.248297
0.89324
0.273173
0.862797
0.308119
0.824361
0.326164
0.782688
0.336769
0.740577
0.344956
0.697848
0.378925
0.654771
0.388439
0.611732
0.411523
0.572322
0.368293
0.527215
0.371795
0.280689
0.994869
0.170036
-0.995853
0.991604
0.181889
0.988487
0.185048
0.983292
0.189634
0.974656
0.198575
0.966336
0.2127
0.957139
0.233931
0.941536
0.253019
0.920874
0.268959
0.899473
0.294573
0.875561
0.332031
0.844269
0.357456
0.805342
0.375696
0.758676
0.391623
0.70462
0.432981
0.644335
0.448724
0.581821
0.474037
0.525612
0.424503
0.478182
0.419224
0.304914
0.996418
0.170203
-0.996585
0.992691
0.185616
0.988511
0.189227
0.984629
0.193516
0.977497
0.205708
0.96824
0.221957
0.959205
0.242966
0.945525
0.266699
0.924208
0.290276
0.900085
0.318696
0.874076
0.358041
0.838648
0.392883
0.790536
0.423808
0.734956
0.447203
0.680294
0.487643
0.629661
0.499357
0.581773
0.521925
0.538803
0.467473
0.49285
0.465178
0.335591
0.99804
0.170643
-0.99848
0.994572
0.189084
0.990212
0.193587
0.986983
0.196745
0.981795
0.210896
0.974098
0.229653
0.966403