/*--------------------------------*- C++ -*----------------------------------*\
| =========                 |                                                 |
| \\      /  F ield         | OpenFOAM: The Open Source CFD Toolbox           |
|  \\    /   O peration     | Version:  v1806                                 |
|   \\  /    A nd           | Web:      www.OpenFOAM.com                      |
|    \\/     M anipulation  |                                                 |
\*---------------------------------------------------------------------------*/
FoamFile
{
    version     2.0;
    format      ascii;
    class       volScalarField;
    location    "60";
    object      p;
}
// * * * * * * * * * * * * * * * * * * * * * * * * * * * * * * * * * * * * * //

dimensions      [0 2 -2 0 0 0 0];


internalField   nonuniform List<scalar> 
5228
(
0.00550577
0.00550495
0.00550495
0.00550577
0.00581009
0.00581304
0.00581304
0.00581009
0.00573463
0.00573645
0.00573645
0.00573463
0.00581008
0.00580941
0.0058094
0.00581008
0.0060186
0.00602238
0.00602238
0.0060186
0.00580468
0.00580755
0.00580755
0.00580468
0.00574775
0.00574743
0.00574743
0.00574775
0.00600933
0.00600814
0.00600814
0.00600933
0.00525199
0.00525749
0.00525749
0.00525199
0.00420817
0.00421217
0.00421217
0.00420817
0.00473002
0.00473089
0.00473089
0.00473002
0.000887838
0.000880928
0.000880928
0.000887838
-0.000284437
-0.000291805
-0.000291805
-0.000284437
0.003111
0.00311813
0.00311813
0.003111
0.00303179
0.0030287
0.0030287
0.00303179
0.00258453
0.00258509
0.00258509
0.00258453
0.00527804
0.00528012
0.00528012
0.00527804
0.00549999
0.00550379
0.00550379
0.00549999
0.00515963
0.00516399
0.00516399
0.00515963
0.00161002
0.00160261
0.00160261
0.00161002
0.00363536
0.00364069
0.00364069
0.00363536
0.00333078
0.0033308
0.0033308
0.00333078
0.00318154
0.0031772
0.0031772
0.00318154
0.0262401
0.0262574
0.0262574
0.0262401
0.0321209
0.0321637
0.0321637
0.0321209
0.00509714
0.00509834
0.00509834
0.00509714
0.00536887
0.00536935
0.00536935
0.00536887
0.00590032
0.00590417
0.00590417
0.00590032
0.0123602
0.0123561
0.0123561
0.0123602
0.0112042
0.0112081
0.0112081
0.0112042
0.0220911
0.022105
0.022105
0.0220911
0.0188899
0.0188972
0.0188972
0.0188899
0.016418
0.0164261
0.0164261
0.016418
0.0143846
0.0143953
0.0143953
0.0143846
0.0126809
0.0126886
0.0126886
0.0126809
0.0113452
0.01135
0.01135
0.0113452
0.0101727
0.0101771
0.0101771
0.0101727
0.0100741
0.0100765
0.0100765
0.0100741
0.0388188
0.0388424
0.0388424
0.0388188
0.0271729
0.0271778
0.0271778
0.0271729
0.0251836
0.025181
0.025181
0.0251836
0.0227158
0.0227126
0.0227126
0.0227158
0.0203165
0.0203162
0.0203162
0.0203165
0.0180211
0.0180231
0.0180231
0.0180211
0.015934
0.0159405
0.0159405
0.015934
0.0141293
0.0141329
0.0141329
0.0141293
0.0126051
0.0126125
0.0126125
0.0126051
0.0112467
0.0112503
0.0112503
0.0112467
0.0100955
0.0101019
0.0101019
0.0100955
0.00901659
0.0090221
0.0090221
0.00901659
0.00914636
0.00915156
0.00915156
0.00914636
0.00910135
0.00910666
0.00910666
0.00910135
0.00890924
0.00891472
0.00891472
0.00890924
0.00988902
0.00989335
0.00989335
0.00988902
0.0110036
0.0110065
0.0110065
0.0110036
0.0122915
0.0122921
0.0122921
0.0122915
0.0140451
0.0140508
0.0140508
0.0140451
0.0157957
0.0157945
0.0157945
0.0157957
0.0176299
0.0176266
0.0176266
0.0176299
0.0198331
0.0198358
0.0198358
0.0198331
0.0222483
0.0222504
0.0222504
0.0222483
0.0250441
0.0250494
0.0250494
0.0250441
0.028248
0.0282547
0.0282547
0.028248
0.025495
0.0254975
0.0254975
0.025495
0.020362
0.0203538
0.0203538
0.020362
0.0226879
0.0227021
0.0227021
0.0226879
0.0222675
0.0222774
0.0222774
0.0222675
0.0206808
0.0206895
0.0206895
0.0206808
0.018764
0.018774
0.018774
0.018764
0.0168281
0.016839
0.016839
0.0168281
0.0150195
0.0150287
0.0150287
0.0150195
0.0134508
0.0134548
0.0134548
0.0134508
0.0121082
0.0121128
0.0121128
0.0121082
0.0108827
0.0108877
0.0108877
0.0108827
0.009753
0.00975921
0.00975921
0.009753
0.00874408
0.00874855
0.00874855
0.00874408
0.0078539
0.00785849
0.00785849
0.0078539
0.00809189
0.00809715
0.00809715
0.00809189
0.00822853
0.00823308
0.00823308
0.00822853
0.00820958
0.00821248
0.00821248
0.00820958
0.00806384
0.00806751
0.00806751
0.00806384
0.00781997
0.00782442
0.00782442
0.00781997
0.00862684
0.00863199
0.00863199
0.00862684
0.00959937
0.00960397
0.00960397
0.00959937
0.0106983
0.0106977
0.0106977
0.0106983
0.0119992
0.0120005
0.0120005
0.0119992
0.0133448
0.0133431
0.0133431
0.0133448
0.0149008
0.0149052
0.0149052
0.0149008
0.0167117
0.016719
0.016719
0.0167117
0.0187318
0.0187439
0.0187439
0.0187318
0.0209946
0.0210109
0.0210109
0.0209946
0.0232627
0.0232833
0.0232833
0.0232627
0.0249335
0.0249508
0.0249508
0.0249335
0.0307403
0.0307557
0.0307557
0.0307403
0.0247821
0.0247844
0.0247844
0.0247821
0.0182154
0.0181808
0.0181808
0.0182154
0.0115841
0.011536
0.011536
0.0115841
0.0053604
0.00536164
0.00536164
0.0053604
0.00525514
0.00525682
0.00525682
0.00525514
0.0060007
0.00600423
0.00600423
0.0060007
0.00515752
0.00515524
0.00515524
0.00515752
0.00586501
0.00586412
0.00586412
0.00586501
0.00606185
0.00606617
0.00606617
0.00606185
0.00611481
0.00611735
0.00611735
0.00611481
0.00601198
0.00601144
0.00601144
0.00601198
0.0058109
0.00581042
0.00581042
0.0058109
0.00550493
0.0055062
0.0055062
0.00550493
0.00490201
0.00490195
0.00490195
0.00490201
0.00496002
0.0049598
0.0049598
0.00496002
0.00504897
0.00504873
0.00504873
0.00504897
0.0055263
0.00552666
0.00552666
0.0055263
0.00523426
0.00523486
0.00523486
0.00523426
0.0048655
0.00486548
0.00486548
0.0048655
0.00568709
0.00568888
0.00568888
0.00568709
0.00497586
0.00497774
0.00497774
0.00497586
0.00403432
0.00403726
0.00403726
0.00403432
0.00404789
0.00404999
0.00404999
0.00404789
0.00511425
0.00511475
0.00511475
0.00511425
0.00588644
0.00588841
0.00588841
0.00588644
0.00629018
0.00629214
0.00629214
0.00629018
0.00636414
0.00636388
0.00636388
0.00636414
0.00639916
0.00640182
0.00640182
0.00639916
0.00624305
0.00624287
0.00624287
0.00624305
0.0059869
0.00598691
0.00598691
0.0059869
0.0056225
0.00562224
0.00562224
0.0056225
0.00518787
0.00518817
0.00518817
0.00518787
0.00446672
0.00446682
0.00446682
0.00446672
0.00449931
0.00449968
0.00449968
0.00449931
0.004545
0.00454513
0.00454513
0.004545
0.00461382
0.00461423
0.00461423
0.00461382
0.00470058
0.00470077
0.00470077
0.00470058
0.00561561
0.00561693
0.00561693
0.00561561
0.00599129
0.00599458
0.00599458
0.00599129
0.00603468
0.00603562
0.00603562
0.00603468
0.00587452
0.00587538
0.00587538
0.00587452
0.00561643
0.00561713
0.00561713
0.00561643
0.00527344
0.00527405
0.00527405
0.00527344
0.0048804
0.00488075
0.00488075
0.0048804
0.00445478
0.00445508
0.00445508
0.00445478
0.0014027
0.00139374
0.00139374
0.0014027
0.001774
0.00176526
0.00176526
0.001774
0.00294166
0.00293166
0.00293166
0.00294166
0.00580726
0.00580212
0.00580212
0.00580726
0.00988373
0.00991558
0.00991558
0.00988373
0.013158
0.0131517
0.0131517
0.013158
0.0179138
0.0179108
0.0179108
0.0179138
0.0191632
0.0191646
0.0191646
0.0191632
0.0189091
0.0189129
0.0189129
0.0189091
0.0179933
0.0179949
0.0179949
0.0179933
0.0167052
0.0167092
0.0167092
0.0167052
0.0152541
0.0152584
0.0152584
0.0152541
0.0138288
0.013831
0.013831
0.0138288
0.0125206
0.012518
0.012518
0.0125206
0.0113263
0.0113258
0.0113258
0.0113263
0.0101856
0.0101854
0.0101854
0.0101856
0.00915818
0.00916179
0.00916179
0.00915818
0.00824097
0.00824512
0.00824512
0.00824097
0.00746415
0.00746845
0.00746845
0.00746415
0.00545352
0.00545543
0.00545543
0.00545352
0.00591807
0.00591992
0.00591992
0.00591807
0.00623777
0.0062403
0.0062403
0.00623777
0.00623929
0.00623998
0.00623998
0.00623929
0.006027
0.00602754
0.00602754
0.006027
0.00570037
0.00570076
0.00570076
0.00570037
0.00531717
0.00531745
0.00531745
0.00531717
0.00489674
0.00489711
0.00489711
0.00489674
0.00443366
0.00443387
0.00443387
0.00443366
0.00397003
0.00397017
0.00397017
0.00397003
0.00401512
0.00401531
0.00401531
0.00401512
0.00404664
0.00404681
0.00404681
0.00404664
0.00408678
0.00408707
0.00408707
0.00408678
0.00412061
0.00412078
0.00412078
0.00412061
0.00415917
0.00415927
0.00415927
0.00415917
0.00420097
0.00420094
0.00420094
0.00420097
0.00422503
0.0042251
0.0042251
0.00422503
0.00474667
0.00474691
0.00474691
0.00474667
0.00526169
0.00526148
0.00526148
0.00526169
0.0057549
0.00575479
0.00575479
0.0057549
0.00618355
0.00618342
0.00618342
0.00618355
0.00653306
0.00653335
0.00653335
0.00653306
0.00676819
0.00676954
0.00676954
0.00676819
0.00683604
0.00683687
0.00683687
0.00683604
0.00674996
0.00675242
0.00675242
0.00674996
0.00635555
0.00635766
0.00635766
0.00635555
0.00563414
0.00563509
0.00563509
0.00563414
0.00467017
0.00467498
0.00467498
0.00467017
0.00344431
0.00344029
0.00344029
0.00344431
0.00284785
0.00284461
0.00284461
0.00284785
0.00268061
0.00269446
0.00269446
0.00268061
0.000822185
0.000805202
0.000805201
0.000822184
0.00149589
0.00149399
0.00149399
0.00149589
0.00351252
0.00351882
0.00351882
0.00351252
0.00723187
0.00721293
0.00721293
0.00723187
0.014203
0.0141816
0.0141816
0.014203
0.0170587
0.0170501
0.0170501
0.0170587
0.0177107
0.0177088
0.0177088
0.0177107
0.0174435
0.0174467
0.0174467
0.0174435
0.0164307
0.0164371
0.0164371
0.0164307
0.0151548
0.0151623
0.0151623
0.0151548
0.0137967
0.0138023
0.0138023
0.0137967
0.0125261
0.0125283
0.0125283
0.0125261
0.0113478
0.0113513
0.0113513
0.0113478
0.0102324
0.0102372
0.0102372
0.0102324
0.00922644
0.00923079
0.00923079
0.00922644
0.00831724
0.00832054
0.00832054
0.00831724
0.00748721
0.00749113
0.00749113
0.00748721
0.00674544
0.0067485
0.0067485
0.00674544
0.00707434
0.00707784
0.00707784
0.00707434
0.00730702
0.00731108
0.00731108
0.00730702
0.00744019
0.00744396
0.00744396
0.00744019
0.00745483
0.00745842
0.00745842
0.00745483
0.00733379
0.00733765
0.00733765
0.00733379
0.00710996
0.00711332
0.00711332
0.00710996
0.00677804
0.00678136
0.00678136
0.00677804
0.00351882
0.00351887
0.00351887
0.00351882
0.00357596
0.00357602
0.00357602
0.00357596
0.00361955
0.0036196
0.0036196
0.00361955
0.00366002
0.00366008
0.00366008
0.00366002
0.00368806
0.00368806
0.00368806
0.00368806
0.00369754
0.00369739
0.00369739
0.00369754
0.00371514
0.00371512
0.00371512
0.00371514
0.00372325
0.0037233
0.0037233
0.00372325
0.00370626
0.00370621
0.00370621
0.00370626
0.00423208
0.00423203
0.00423203
0.00423208
0.00477507
0.00477501
0.00477501
0.00477507
0.00533132
0.00533105
0.00533105
0.00533132
0.00588769
0.00588743
0.00588743
0.00588769
0.00640617
0.00640591
0.00640591
0.00640617
0.00684647
0.00684636
0.00684636
0.00684647
0.00718942
0.00719063
0.00719063
0.00718942
0.0073868
0.00738846
0.00738846
0.0073868
0.00736763
0.00737007
0.00737007
0.00736763
0.00708145
0.0070825
0.0070825
0.00708145
0.00645137
0.0064511
0.0064511
0.00645137
0.0056186
0.00562239
0.00562239
0.0056186
0.00453655
0.00453665
0.00453665
0.00453655
0.00358338
0.00358131
0.00358131
0.00358338
0.00303358
0.0030302
0.0030302
0.00303358
0.00286768
0.00285662
0.00285662
0.00286768
0.00340469
0.00337419
0.00337419
0.00340469
0.0055614
0.00553607
0.00553607
0.0055614
0.00873689
0.00873273
0.00873273
0.00873689
0.0117219
0.0117171
0.0117171
0.0117219
0.0139206
0.013921
0.013921
0.0139206
0.0147289
0.0147332
0.0147332
0.0147289
0.0147732
0.0147821
0.0147821
0.0147732
0.0142289
0.0142351
0.0142351
0.0142289
0.0133973
0.0134027
0.0134027
0.0133973
0.012396
0.0124006
0.0124006
0.012396
0.0113723
0.0113754
0.0113754
0.0113723
0.0103909
0.0103934
0.0103934
0.0103909
0.00944402
0.00944683
0.00944683
0.00944402
0.0085566
0.00855985
0.00855985
0.0085566
0.0077489
0.00775189
0.00775189
0.0077489
0.00701615
0.0070197
0.0070197
0.00701615
0.00632297
0.00632588
0.00632588
0.00632297
0.00573833
0.00574069
0.00574069
0.00573833
0.00612046
0.00612294
0.00612294
0.00612046
0.00642696
0.00642975
0.00642975
0.00642696
0.00664452
0.00664754
0.00664754
0.00664452
0.00676453
0.00676739
0.00676739
0.00676453
0.00677726
0.00677972
0.00677972
0.00677726
0.00667594
0.00667846
0.00667846
0.00667594
0.0064769
0.00647962
0.00647962
0.0064769
0.00617851
0.00618146
0.00618146
0.00617851
0.00578442
0.00578746
0.00578746
0.00578442
0.00634321
0.00634581
0.00634581
0.00634321
0.00698496
0.00698813
0.00698813
0.00698496
0.00771054
0.00771347
0.00771347
0.00771054
0.00855318
0.00855646
0.00855646
0.00855318
0.00947365
0.00947467
0.00947467
0.00947365
0.0104558
0.0104556
0.0104556
0.0104558
0.0114944
0.0114935
0.0114935
0.0114944
0.0125765
0.0125775
0.0125775
0.0125765
0.0136746
0.013679
0.013679
0.0136746
0.0147267
0.0147341
0.0147341
0.0147267
0.0156205
0.0156276
0.0156276
0.0156205
0.0161273
0.016134
0.016134
0.0161273
0.0160484
0.0160583
0.0160583
0.0160484
0.0149679
0.0149826
0.0149826
0.014968
0.0126626
0.0126695
0.0126695
0.0126626
0.00959669
0.00958604
0.00958604
0.00959669
0.00655092
0.00653309
0.00653309
0.00655092
0.00445763
0.00445593
0.00445593
0.00445763
0.00303491
0.00301818
0.00301818
0.00303491
0.00336901
0.00338129
0.00338129
0.00336901
0.00582595
0.00582461
0.00582461
0.00582595
0.00634066
0.00634347
0.00634347
0.00634066
0.00658152
0.00658352
0.00658352
0.00658152
0.00650924
0.00651006
0.00651006
0.00650924
0.00623433
0.00623509
0.00623509
0.00623433
0.00582407
0.0058245
0.0058245
0.00582407
0.00536529
0.00536527
0.00536527
0.00536529
0.00488879
0.00488878
0.00488878
0.00488879
0.0043974
0.00439749
0.00439749
0.0043974
0.0039029
0.00390292
0.00390292
0.0039029
0.00344587
0.00344594
0.00344594
0.00344587
0.00364592
0.00364583
0.00364583
0.00364592
0.00418739
0.00418731
0.00418731
0.00418739
0.00475425
0.0047541
0.0047541
0.00475425
0.00534609
0.00534565
0.00534565
0.00534609
0.00595514
0.00595464
0.00595464
0.00595514
0.00655706
0.00655686
0.00655686
0.00655706
0.00711268
0.00711275
0.00711275
0.00711268
0.00758758
0.00758789
0.00758789
0.00758758
0.00793527
0.00793628
0.00793628
0.00793527
0.00807041
0.00807168
0.00807168
0.00807041
0.00792685
0.00792802
0.00792802
0.00792685
0.0075044
0.0075047
0.0075047
0.0075044
0.00685776
0.00686056
0.00686056
0.00685776
0.00611244
0.00611592
0.00611592
0.00611244
0.00541163
0.00541917
0.00541917
0.00541163
0.0048231
0.00483387
0.00483387
0.0048231
0.00448359
0.00448791
0.00448791
0.00448359
0.00483533
0.00482035
0.00482035
0.00483533
0.0062266
0.00620279
0.00620279
0.0062266
0.00835756
0.00833993
0.00833993
0.00835756
0.0102186
0.0102085
0.0102085
0.0102186
0.0116463
0.0116452
0.0116452
0.0116463
0.0123696
0.0123753
0.0123753
0.0123696
0.0125378
0.0125468
0.0125468
0.0125378
0.0122396
0.0122458
0.0122458
0.0122396
0.0116762
0.0116814
0.0116814
0.0116762
0.0109422
0.0109458
0.0109458
0.0109422
0.0101464
0.0101489
0.0101489
0.0101464
0.00933139
0.00933334
0.00933334
0.00933139
0.00852772
0.00852965
0.00852965
0.00852772
0.00776901
0.0077716
0.0077716
0.00776901
0.00706314
0.00706616
0.00706616
0.00706314
0.00640745
0.00641042
0.00641042
0.00640745
0.00582622
0.00582877
0.00582877
0.00582622
0.00528462
0.00528725
0.00528725
0.00528462
0.00481379
0.00481555
0.00481555
0.00481379
0.00523772
0.00523929
0.00523929
0.00523772
0.00559667
0.00559805
0.00559805
0.00559667
0.00587773
0.0058791
0.0058791
0.00587773
0.00607357
0.00607555
0.00607555
0.00607357
0.00617855
0.0061808
0.0061808
0.00617855
0.00619095
0.00619309
0.00619309
0.00619095
0.00610752
0.00610957
0.00610957
0.00610752
0.00592522
0.00592723
0.00592723
0.00592522
0.00565069
0.00565292
0.00565292
0.00565069
0.00528534
0.00528796
0.00528796
0.00528534
0.00485912
0.00486144
0.00486144
0.00485912
0.00530952
0.00531217
0.00531217
0.00530952
0.00582629
0.00582849
0.00582849
0.00582629
0.00641145
0.00641369
0.00641369
0.00641145
0.00706232
0.0070644
0.0070644
0.00706232
0.00779869
0.00780092
0.00780092
0.00779869
0.00859944
0.00860007
0.00860007
0.00859944
0.00944826
0.0094479
0.0094479
0.00944826
0.0103305
0.01033
0.01033
0.0103305
0.0112195
0.0112202
0.0112202
0.0112195
0.0120587
0.0120624
0.0120624
0.0120587
0.0128244
0.0128325
0.0128325
0.0128244
0.013416
0.0134257
0.0134257
0.013416
0.0136862
0.0136926
0.0136926
0.0136862
0.0134109
0.0134162
0.0134162
0.0134109
0.0126202
0.0126278
0.0126278
0.0126202
0.011079
0.0110739
0.0110739
0.011079
0.00897612
0.00896103
0.00896103
0.00897612
0.00689541
0.00688197
0.00688197
0.00689541
0.00545692
0.00545699
0.00545699
0.00545692
0.00464163
0.00464019
0.00464019
0.00464163
0.00459549
0.00460031
0.00460031
0.00459549
0.00474182
0.00473963
0.00473963
0.00474182
0.00505544
0.0050491
0.0050491
0.00505544
0.00562498
0.00562744
0.00562744
0.00562498
0.00625166
0.00625619
0.00625619
0.00625166
0.00667073
0.00667378
0.00667378
0.00667073
0.0070171
0.00702167
0.00702167
0.0070171
0.00706592
0.00706819
0.00706819
0.00706592
0.00684939
0.00685045
0.00685045
0.00684939
0.00644145
0.00644184
0.00644184
0.00644145
0.00593829
0.00593824
0.00593824
0.00593829
0.0054103
0.00541038
0.00541038
0.0054103
0.00487227
0.00487247
0.00487247
0.00487227
0.00433391
0.00433404
0.00433404
0.00433391
0.00382763
0.00382782
0.00382782
0.00382763
0.00335326
0.00335339
0.00335339
0.00335326
0.00289779
0.00289776
0.00289776
0.00289779
0.00300161
0.00300158
0.00300158
0.00300161
0.00308026
0.00308022
0.00308022
0.00308026
0.00313819
0.00313814
0.00313814
0.00313819
0.00318359
0.00318352
0.00318352
0.00318359
0.00322051
0.00322049
0.00322049
0.00322051
0.00324378
0.00324371
0.00324371
0.00324378
0.00325136
0.00325137
0.00325137
0.00325136
0.00325144
0.00325143
0.00325143
0.00325144
0.00323765
0.00323756
0.00323756
0.00323765
0.00319947
0.00319933
0.00319933
0.00319947
0.00312715
0.00312705
0.00312705
0.00312715
0.00442721
0.00442755
0.00442755
0.00442721
0.00482431
0.00482447
0.00482447
0.00482431
0.00515588
0.00515626
0.00515626
0.00515588
0.00541205
0.00541282
0.00541282
0.00541205
0.00558702
0.00558816
0.00558816
0.00558702
0.00568022
0.00568154
0.00568154
0.00568022
0.00569004
0.00569123
0.00569123
0.00569004
0.00561322
0.00561426
0.00561426
0.00561322
0.00545221
0.00545342
0.00545342
0.00545221
0.00520089
0.00520249
0.00520249
0.00520089
0.00486929
0.00487108
0.00487108
0.00486929
0.00447585
0.00447755
0.00447755
0.00447585
0.0040206
0.00402256
0.00402256
0.0040206
0.00436729
0.00436989
0.00436989
0.00436729
0.0047756
0.00477804
0.00477804
0.0047756
0.00523893
0.0052403
0.0052403
0.00523893
0.00574875
0.0057497
0.0057497
0.00574875
0.00631851
0.00631958
0.00631958
0.00631851
0.00695179
0.00695277
0.00695277
0.00695179
0.0076359
0.00763613
0.00763613
0.0076359
0.00835073
0.00835025
0.00835025
0.00835073
0.00908075
0.00908052
0.00908052
0.00908075
0.00979593
0.00979688
0.00979688
0.00979593
0.010456
0.0104589
0.0104589
0.010456
0.0110074
0.0110128
0.0110128
0.0110074
0.0113955
0.0114023
0.0114023
0.0113955
0.0114921
0.0114971
0.0114971
0.0114921
0.0111863
0.0111912
0.0111912
0.0111863
0.0106002
0.0106049
0.0106049
0.0106002
0.0095831
0.00957735
0.00957735
0.0095831
0.00825149
0.00824047
0.00824047
0.00825149
0.00687956
0.00687034
0.00687034
0.00687956
0.00597465
0.00597355
0.00597355
0.00597465
0.00553505
0.00553671
0.00553671
0.00553505
0.00556672
0.00557198
0.00557198
0.00556672
0.00592193
0.0059265
0.0059265
0.00592193
0.00635688
0.0063572
0.0063572
0.00635688
0.00681977
0.00682331
0.00682331
0.00681977
0.00724687
0.007253
0.007253
0.00724687
0.00753081
0.00753499
0.00753499
0.00753081
0.00762152
0.00762461
0.00762461
0.00762152
0.0074912
0.00749336
0.00749336
0.0074912
0.00713088
0.00713214
0.00713214
0.00713088
0.00661423
0.0066151
0.0066151
0.00661423
0.00600924
0.00600958
0.00600958
0.00600924
0.00538711
0.00538726
0.00538726
0.00538711
0.00478987
0.00479026
0.00479026
0.00478987
0.00422755
0.00422794
0.00422794
0.00422755
0.00370005
0.00370024
0.00370024
0.00370005
0.00321058
0.00321065
0.00321065
0.00321058
0.0027549
0.0027549
0.0027549
0.0027549
0.00232962
0.00232956
0.00232956
0.00232962
0.00246825
0.00246814
0.00246814
0.00246825
0.00256957
0.00256946
0.00256946
0.00256957
0.00264634
0.00264624
0.00264624
0.00264634
0.00270373
0.00270366
0.00270366
0.00270373
0.00274622
0.00274615
0.00274615
0.00274622
0.00277642
0.00277636
0.00277636
0.00277642
0.00279532
0.00279523
0.00279523
0.00279532
0.00280157
0.00280148
0.00280148
0.00280157
0.00279659
0.00279653
0.00279653
0.00279659
0.00277038
0.00277028
0.00277028
0.00277038
0.00272194
0.00272183
0.00272183
0.00272194
0.00263825
0.00263804
0.00263804
0.00263825
0.00251651
0.00251627
0.00251627
0.00251651
0.00299857
0.00299831
0.00299831
0.00299857
0.00351426
0.00351405
0.00351405
0.00351426
0.00406505
0.00406488
0.00406488
0.00406505
0.00465127
0.00465103
0.00465103
0.00465127
0.00527104
0.00527071
0.00527071
0.00527104
0.00592261
0.00592213
0.00592213
0.00592261
0.00659088
0.00659076
0.00659076
0.00659088
0.007234
0.00723426
0.00723426
0.007234
0.00781678
0.00781721
0.00781721
0.00781678
0.00829545
0.00829654
0.00829654
0.00829545
0.00857483
0.00857683
0.00857683
0.00857483
0.0085659
0.00856887
0.00856887
0.0085659
0.00825808
0.0082616
0.0082616
0.00825808
0.00771504
0.0077179
0.0077179
0.00771504
0.00703699
0.00703803
0.00703803
0.00703699
0.00634777
0.0063504
0.0063504
0.00634776
0.00573881
0.00574462
0.00574462
0.00573881
0.0053717
0.00537611
0.00537611
0.0053717
0.00554346
0.00553566
0.00553566
0.00554346
0.00635153
0.00633569
0.00633569
0.00635153
0.00760471
0.00758693
0.00758693
0.00760471
0.00887502
0.00886146
0.00886146
0.00887502
0.00986227
0.0098579
0.0098579
0.00986227
0.0104106
0.0104139
0.0104139
0.0104106
0.0105552
0.0105627
0.0105627
0.0105552
0.0103905
0.0103968
0.0103968
0.0103905
0.0100142
0.01002
0.01002
0.0100142
0.00946499
0.009469
0.009469
0.00946499
0.00884864
0.00885135
0.00885135
0.00884864
0.00819521
0.00819653
0.00819653
0.00819521
0.00753226
0.00753357
0.00753357
0.00753226
0.00688551
0.00688724
0.00688724
0.00688551
0.00627968
0.00628184
0.00628184
0.00627968
0.00572014
0.00572235
0.00572235
0.00572014
0.00520801
0.00521056
0.00521056
0.00520801
0.00474719
0.00475008
0.00475008
0.0047472
0.00433128
0.00433327
0.00433327
0.00433128
0.00397951
0.00398009
0.00398009
0.00397951
0.00350325
0.00350586
0.00350586
0.00350325
0.00381277
0.00381541
0.00381541
0.00381277
0.00417502
0.00417694
0.00417694
0.00417502
0.00457327
0.00457409
0.00457409
0.00457327
0.00501195
0.00501209
0.00501209
0.00501195
0.00549535
0.00549535
0.00549535
0.00549535
0.00602583
0.00602592
0.00602592
0.00602583
0.00659436
0.00659444
0.00659444
0.00659436
0.00718517
0.00718513
0.00718513
0.00718517
0.00777853
0.0077789
0.0077789
0.00777853
0.00834626
0.00834772
0.00834772
0.00834626
0.00885468
0.0088578
0.0088578
0.00885468
0.00926627
0.00927121
0.00927121
0.00926627
0.00953706
0.00954322
0.00954322
0.00953707
0.00957732
0.00958417
0.00958417
0.00957732
0.0093582
0.00936373
0.00936373
0.0093582
0.00891889
0.00892301
0.00892301
0.00891889
0.00826493
0.00826124
0.00826124
0.00826493
0.00742849
0.0074197
0.0074197
0.00742849
0.00656383
0.00655391
0.00655391
0.00656383
0.00599861
0.00599273
0.00599273
0.00599861
0.00578886
0.00578579
0.00578579
0.00578886
0.0059594
0.00595961
0.00595961
0.0059594
0.00640167
0.00640247
0.00640247
0.00640167
0.00692993
0.00693058
0.00693058
0.00692993
0.00744221
0.00744576
0.00744576
0.00744221
0.00783012
0.0078339
0.0078339
0.00783012
0.00801489
0.00801729
0.00801729
0.00801489
0.00795617
0.0079578
0.0079578
0.00795617
0.00767096
0.00767248
0.00767248
0.00767096
0.00718564
0.0071865
0.0071865
0.00718564
0.00657235
0.00657268
0.00657268
0.00657235
0.00590196
0.00590198
0.00590198
0.00590196
0.0052303
0.00523016
0.00523016
0.0052303
0.00460129
0.00460143
0.00460143
0.00460129
0.00401881
0.00401884
0.00401884
0.00401881
0.00348656
0.00348657
0.00348657
0.00348656
0.00300083
0.00300081
0.00300081
0.00300083
0.00256
0.00255998
0.00255998
0.00256
0.00215012
0.00215004
0.00215004
0.00215012
0.00177319
0.00177302
0.00177302
0.00177319
0.0019333
0.00193315
0.00193315
0.0019333
0.00206225
0.00206211
0.00206211
0.00206225
0.00215167
0.00215149
0.00215149
0.00215167
0.00222128
0.00222115
0.00222115
0.00222128
0.00227231
0.00227219
0.00227219
0.00227231
0.00230944
0.00230937
0.00230937
0.00230944
0.00233411
0.002334
0.002334
0.00233411
0.0023487
0.00234859
0.00234859
0.0023487
0.00235247
0.00235235
0.00235235
0.00235247
0.00234357
0.00234348
0.00234348
0.00234357
0.00231526
0.00231515
0.00231515
0.00231526
0.00226648
0.00226639
0.00226639
0.00226648
0.00218648
0.00218634
0.00218634
0.00218648
0.00207126
0.00207102
0.00207102
0.00207126
0.00191924
0.00191895
0.00191895
0.00191924
0.00234133
0.00234107
0.00234107
0.00234133
0.00280074
0.00280046
0.00280046
0.00280074
0.00330018
0.00329987
0.00329987
0.00330018
0.00384097
0.00384064
0.00384064
0.00384097
0.00442767
0.00442738
0.00442738
0.00442767
0.00506393
0.0050636
0.0050636
0.00506393
0.00574489
0.00574452
0.00574452
0.00574489
0.00645433
0.00645437
0.00645437
0.00645433
0.0071549
0.00715528
0.00715528
0.0071549
0.00781075
0.00781097
0.00781097
0.00781075
0.008367
0.00836751
0.00836751
0.008367
0.00873346
0.0087345
0.0087345
0.00873346
0.00881115
0.00881281
0.00881281
0.00881115
0.00857718
0.00858071
0.00858071
0.00857718
0.00804999
0.00805354
0.00805354
0.00804999
0.00734104
0.00734174
0.00734174
0.00734104
0.0066162
0.00661646
0.00661646
0.0066162
0.00598925
0.00598895
0.00598895
0.00598925
0.00563066
0.00562766
0.00562766
0.00563066
0.00567526
0.00566617
0.00566617
0.00567526
0.00612904
0.00611721
0.00611721
0.00612904
0.00685007
0.00683823
0.00683823
0.00685007
0.00764087
0.00763059
0.00763059
0.00764087
0.00828506
0.00828089
0.00828089
0.00828506
0.00866596
0.00866771
0.00866771
0.00866596
0.00878735
0.00879311
0.00879311
0.00878735
0.00867324
0.00867954
0.00867954
0.00867324
0.00839049
0.00839627
0.00839627
0.00839049
0.00798141
0.0079854
0.0079854
0.00798141
0.00750769
0.00751011
0.00751011
0.00750769
0.00699083
0.00699213
0.00699213
0.00699083
0.00645619
0.00645718
0.00645718
0.00645619
0.00592567
0.00592644
0.00592644
0.00592567
0.0054238
0.00542455
0.00542455
0.0054238
0.00495762
0.00495895
0.00495895
0.00495762
0.00452055
0.00452257
0.00452257
0.00452055
0.0041302
0.00413264
0.00413264
0.0041302
0.00378137
0.00378396
0.00378396
0.00378137
0.00347067
0.0034723
0.0034723
0.00347067
0.00321807
0.00321763
0.00321763
0.00321807
0.00369277
0.00369182
0.00369182
0.00369277
0.00411665
0.00411571
0.00411571
0.00411665
0.0044852
0.00448438
0.00448438
0.0044852
0.0047869
0.00478644
0.00478644
0.0047869
0.00502028
0.00502046
0.00502046
0.00502028
0.00518141
0.00518204
0.00518204
0.00518141
0.00526642
0.00526729
0.00526729
0.00526642
0.0052739
0.00527468
0.00527468
0.0052739
0.00520212
0.00520272
0.00520272
0.00520212
0.00505135
0.0050518
0.0050518
0.00505135
0.00482262
0.00482297
0.00482297
0.00482262
0.00452127
0.00452156
0.00452156
0.00452127
0.00416131
0.00416164
0.00416164
0.00416131
0.00374098
0.00374195
0.00374195
0.00374098
0.00324571
0.00324763
0.00324763
0.00324571
0.00142406
0.00142391
0.00142391
0.00142406
0.00156126
0.00156116
0.00156116
0.00156126
0.0016687
0.00166877
0.00166877
0.0016687
0.00174589
0.00174577
0.00174577
0.00174589
0.00180411
0.00180406
0.00180406
0.00180411
0.00184643
0.00184634
0.00184634
0.00184643
0.00187674
0.00187664
0.00187664
0.00187674
0.00189699
0.00189688
0.00189688
0.00189699
0.001908
0.00190789
0.00190789
0.001908
0.00190905
0.00190893
0.00190893
0.00190905
0.00189865
0.00189855
0.00189855
0.00189865
0.00187308
0.00187302
0.00187302
0.00187308
0.00182768
0.00182759
0.00182759
0.00182768
0.00175879
0.00175866
0.00175866
0.00175879
0.00165926
0.00165904
0.00165904
0.00165926
0.00153129
0.00153104
0.00153104
0.00153129
0.00136277
0.00136243
0.00136243
0.00136277
0.00171783
0.00171761
0.00171761
0.00171783
0.00210108
0.00210082
0.00210082
0.00210108
0.00252313
0.00252291
0.00252291
0.00252313
0.00298382
0.00298357
0.00298357
0.00298382
0.00349393
0.00349376
0.00349376
0.00349393
0.00405989
0.00405977
0.00405977
0.00405989
0.0046841
0.00468401
0.00468401
0.0046841
0.00536303
0.00536304
0.00536304
0.00536303
0.00608298
0.00608351
0.00608351
0.00608298
0.00681134
0.00681274
0.00681274
0.00681134
0.0075005
0.00750255
0.00750255
0.0075005
0.00809985
0.00810312
0.00810312
0.00809985
0.00850518
0.00850965
0.00850965
0.00850518
0.00863759
0.0086434
0.0086434
0.00863759
0.00845121
0.0084591
0.0084591
0.00845121
0.00796497
0.00797455
0.00797455
0.00796497
0.00727112
0.00728072
0.00728072
0.00727112
0.0065393
0.00654907
0.00654907
0.0065393
0.00589357
0.00590173
0.00590173
0.00589357
0.0054811
0.00548389
0.00548389
0.0054811
0.00538641
0.00538231
0.00538231
0.00538641
0.00558747
0.0055796
0.0055796
0.00558747
0.00598496
0.00597661
0.00597661
0.00598496
0.00644884
0.00644187
0.00644187
0.00644884
0.00683607
0.00683321
0.00683321
0.00683607
0.00707897
0.00707994
0.00707994
0.00707897
0.00715446
0.00715943
0.00715943
0.00715446
0.00705509
0.00706082
0.00706082
0.00705509
0.00684355
0.00684867
0.00684867
0.00684355
0.00654041
0.00654407
0.00654407
0.00654041
0.00617464
0.00617714
0.00617714
0.00617464
0.00576637
0.00576798
0.00576798
0.00576637
0.00534004
0.00534099
0.00534099
0.00534004
0.00491762
0.00491784
0.00491784
0.00491762
0.00451562
0.0045155
0.0045155
0.00451562
0.00413558
0.00413597
0.00413597
0.00413558
0.00378309
0.0037844
0.0037844
0.00378309
0.00345705
0.00345959
0.00345959
0.00345705
0.00316571
0.00316873
0.00316873
0.00316571
0.00291161
0.00291367
0.00291367
0.00291161
0.00270208
0.00270205
0.00270205
0.00270208
0.00253659
0.00253502
0.00253502
0.00253659
0.00302142
0.00301965
0.00301965
0.00302142
0.0034669
0.00346523
0.00346523
0.0034669
0.00386478
0.00386321
0.00386321
0.00386478
0.00420605
0.00420486
0.00420486
0.00420605
0.00448659
0.00448589
0.00448589
0.00448659
0.00470247
0.00470229
0.00470229
0.00470247
0.004851
0.00485112
0.00485112
0.004851
0.00492876
0.00492899
0.00492899
0.00492876
0.00493447
0.00493463
0.00493463
0.00493447
0.00486695
0.00486693
0.00486693
0.00486695
0.00472672
0.00472638
0.00472638
0.00472672
0.00451682
0.00451616
0.00451616
0.00451682
0.00424171
0.00424081
0.00424081
0.00424171
0.003902
0.00390161
0.00390161
0.003902
0.00350056
0.00350103
0.00350103
0.00350056
0.00305544
0.00305611