/*--------------------------------*- C++ -*----------------------------------*\
| =========                 |                                                 |
| \\      /  F ield         | OpenFOAM: The Open Source CFD Toolbox           |
|  \\    /   O peration     | Version:  v1806                                 |
|   \\  /    A nd           | Web:      www.OpenFOAM.com                      |
|    \\/     M anipulation  |                                                 |
\*---------------------------------------------------------------------------*/
FoamFile
{
    version     2.0;
    format      ascii;
    class       volVectorField;
    location    "190";
    object      U;
}
// * * * * * * * * * * * * * * * * * * * * * * * * * * * * * * * * * * * * * //

dimensions      [0 1 -1 0 0 0 0];


internalField   nonuniform List<vector> 
2400
(
(0.3 -0.00108056 0)
(0.300002 -0.00324106 0)
(0.300007 -0.00539723 0)
(0.300016 -0.00754503 0)
(0.30003 -0.00967971 0)
(0.300049 -0.0117954 0)
(0.300077 -0.0138849 0)
(0.300115 -0.0159393 0)
(0.300165 -0.0179478 0)
(0.300232 -0.0198979 0)
(0.300317 -0.0217749 0)
(0.300423 -0.0235629 0)
(0.300556 -0.025244 0)
(0.300717 -0.0267998 0)
(0.300909 -0.0282114 0)
(0.301136 -0.0294605 0)
(0.301398 -0.0305294 0)
(0.301696 -0.0314041 0)
(0.302032 -0.0320715 0)
(0.302397 -0.0325246 0)
(0.3 -0.00108236 0)
(0.300006 -0.00324666 0)
(0.300017 -0.00540742 0)
(0.300036 -0.00756109 0)
(0.300063 -0.0097034 0)
(0.300101 -0.011829 0)
(0.300153 -0.0139312 0)
(0.300223 -0.0160015 0)
(0.300315 -0.0180296 0)
(0.300433 -0.0200033 0)
(0.300582 -0.0219084 0)
(0.300765 -0.0237288 0)
(0.300989 -0.0254466 0)
(0.301256 -0.0270433 0)
(0.301569 -0.0284987 0)
(0.301929 -0.029794 0)
(0.302338 -0.0309099 0)
(0.302792 -0.0318314 0)
(0.303289 -0.0325426 0)
(0.30382 -0.0330393 0)
(0.3 -0.00108573 0)
(0.300009 -0.00325707 0)
(0.300026 -0.00542596 0)
(0.300054 -0.00758967 0)
(0.300095 -0.00974471 0)
(0.300152 -0.0118865 0)
(0.300231 -0.0140089 0)
(0.300336 -0.0161043 0)
(0.300473 -0.0181627 0)
(0.300649 -0.0201722 0)
(0.300871 -0.0221187 0)
(0.301143 -0.0239859 0)
(0.301474 -0.0257552 0)
(0.301866 -0.0274069 0)
(0.302324 -0.0289195 0)
(0.302849 -0.0302721 0)
(0.303439 -0.0314432 0)
(0.304089 -0.0324151 0)
(0.304794 -0.0331699 0)
(0.30554 -0.0336988 0)
(0.300001 -0.00109027 0)
(0.300011 -0.00327112 0)
(0.300032 -0.00545098 0)
(0.300067 -0.00762831 0)
(0.300118 -0.00980069 0)
(0.300191 -0.0119646 0)
(0.300292 -0.014115 0)
(0.300427 -0.0162448 0)
(0.300605 -0.0183448 0)
(0.300835 -0.0204037 0)
(0.301125 -0.022407 0)
(0.301485 -0.0243381 0)
(0.301922 -0.0261774 0)
(0.302442 -0.0279035 0)
(0.30305 -0.0294925 0)
(0.303746 -0.0309207 0)
(0.304529 -0.0321633 0)
(0.305391 -0.0331989 0)
(0.306322 -0.0340062 0)
(0.307305 -0.0345739 0)
(0.300001 -0.0010954 0)
(0.300012 -0.00328706 0)
(0.300035 -0.00547968 0)
(0.300072 -0.00767324 0)
(0.300129 -0.00986676 0)
(0.300211 -0.0120582 0)
(0.300326 -0.0142436 0)
(0.300484 -0.0164173 0)
(0.300695 -0.0185708 0)
(0.30097 -0.0206933 0)
(0.301321 -0.0227703 0)
(0.301761 -0.024785 0)
(0.302298 -0.0267158 0)
(0.302943 -0.0285397 0)
(0.303701 -0.0302292 0)
(0.304573 -0.0317569 0)
(0.305557 -0.0330928 0)
(0.306643 -0.0342109 0)
(0.307817 -0.0350847 0)
(0.309055 -0.0356989 0)
(0.300001 -0.00110038 0)
(0.300011 -0.00330268 0)
(0.300032 -0.00550837 0)
(0.300068 -0.00771937 0)
(0.300123 -0.00993646 0)
(0.300206 -0.0121596 0)
(0.300327 -0.0143861 0)
(0.300496 -0.0166123 0)
(0.300728 -0.0188304 0)
(0.301037 -0.0210313 0)
(0.301438 -0.0231995 0)
(0.301946 -0.0253189 0)
(0.302576 -0.027365 0)
(0.303339 -0.0293135 0)
(0.304246 -0.0311311 0)
(0.305298 -0.0327867 0)
(0.306493 -0.0342426 0)
(0.307818 -0.0354661 0)
(0.309255 -0.0364239 0)
(0.310773 -0.0370937 0)
(0.3 -0.00110428 0)
(0.300008 -0.0033152 0)
(0.300023 -0.00553241 0)
(0.300051 -0.00776023 0)
(0.300097 -0.0100015 0)
(0.300171 -0.0122587 0)
(0.300284 -0.0145309 0)
(0.300452 -0.0168172 0)
(0.30069 -0.0191103 0)
(0.301017 -0.0214039 0)
(0.301451 -0.0236814 0)
(0.302014 -0.0259286 0)
(0.302724 -0.0281162 0)
(0.303599 -0.0302207 0)
(0.304651 -0.032199 0)
(0.305886 -0.034018 0)
(0.307303 -0.0356262 0)
(0.308886 -0.0369855 0)
(0.310615 -0.0380496 0)
(0.312446 -0.0387874 0)
(0.3 -0.00110597 0)
(0.300002 -0.00332125 0)
(0.300007 -0.00554617 0)
(0.300019 -0.00778791 0)
(0.300046 -0.0100517 0)
(0.300098 -0.0123433 0)
(0.30019 -0.0146636 0)
(0.30034 -0.0170157 0)
(0.300565 -0.0193927 0)
(0.300889 -0.0217934 0)
(0.301337 -0.024198 0)
(0.301935 -0.0265988 0)
(0.302708 -0.0289566 0)
(0.30368 -0.031255 0)
(0.304872 -0.0334318 0)
(0.306292 -0.0354602 0)
(0.307946 -0.037261 0)
(0.309812 -0.0387978 0)
(0.31187 -0.0399962 0)
(0.314055 -0.0408212 0)
(0.3 -0.00110414 0)
(0.299993 -0.00331687 0)
(0.299982 -0.005543 0)
(0.29997 -0.00779307 0)
(0.299966 -0.0100749 0)
(0.299983 -0.0123984 0)
(0.300035 -0.0147664 0)
(0.300145 -0.0171878 0)
(0.300334 -0.0196554 0)
(0.300631 -0.0221768 0)
(0.301065 -0.0247257 0)
(0.301671 -0.0273085 0)
(0.302484 -0.029867 0)
(0.303534 -0.0324063 0)
(0.304855 -0.0348251 0)
(0.306459 -0.0371255 0)
(0.308366 -0.0391665 0)
(0.310543 -0.0409428 0)
(0.312981 -0.0423091 0)
(0.315578 -0.0432537 0)
(0.299999 -0.0010973 0)
(0.299982 -0.0032976 0)
(0.299948 -0.00551535 0)
(0.299902 -0.00776494 0)
(0.299854 -0.010057 0)
(0.299818 -0.0124065 0)
(0.29981 -0.0148181 0)
(0.299856 -0.0173091 0)
(0.29998 -0.0198704 0)
(0.300217 -0.0225244 0)
(0.300603 -0.0252325 0)
(0.301182 -0.028029 0)
(0.301999 -0.0308188 0)
(0.303098 -0.0336591 0)
(0.30453 -0.0363664 0)
(0.306311 -0.0390281 0)
(0.308489 -0.0413625 0)
(0.311009 -0.0434772 0)
(0.313899 -0.0450453 0)
(0.31698 -0.0461723 0)
(0.299998 -0.00108382 0)
(0.299966 -0.00325848 0)
(0.299903 -0.00545484 0)
(0.299813 -0.00769151 0)
(0.299706 -0.00998185 0)
(0.299598 -0.0123473 0)
(0.299507 -0.0147938 0)
(0.299459 -0.0173501 0)
(0.299484 -0.0200031 0)
(0.299622 -0.0227988 0)
(0.299915 -0.0256763 0)
(0.30042 -0.0287214 0)
(0.301194 -0.0317701 0)
(0.302298 -0.034989 0)
(0.303809 -0.0380294 0)
(0.305747 -0.0411855 0)
(0.308215 -0.0438619 0)
(0.311111 -0.0464846 0)
(0.314553 -0.0482735 0)
(0.318213 -0.0497159 0)
(0.299997 -0.00106199 0)
(0.299947 -0.00319432 0)
(0.299848 -0.00535259 0)
(0.299702 -0.00755981 0)
(0.299521 -0.00983213 0)
(0.299321 -0.0121981 0)
(0.299119 -0.0146651 0)
(0.298945 -0.0172763 0)
(0.29883 -0.0200122 0)
(0.29882 -0.0229527 0)
(0.298965 -0.0260027 0)
(0.299334 -0.0293319 0)
(0.300001 -0.03266 0)
(0.301044 -0.0363574 0)
(0.302583 -0.0397642 0)
(0.304636 -0.0436175 0)
(0.30741 -0.0466583 0)
(0.310702 -0.0500929 0)
(0.314843 -0.0520676 0)
(0.319199 -0.054115 0)
(0.299996 -0.00103008 0)
(0.299924 -0.00309981 0)
(0.299781 -0.00519951 0)
(0.29957 -0.00735641 0)
(0.299299 -0.00958944 0)
(0.298984 -0.0119347 0)
(0.298645 -0.0144009 0)
(0.298307 -0.0170481 0)
(0.298008 -0.0198492 0)
(0.297791 -0.0229278 0)
(0.297722 -0.0261435 0)
(0.29787 -0.0297868 0)
(0.298347 -0.0334048 0)
(0.299229 -0.0377012 0)
(0.30072 -0.0414871 0)
(0.302802 -0.0463393 0)
(0.30589 -0.0497032 0)
(0.30956 -0.0544967 0)
(0.314636 -0.0564851 0)
(0.319788 -0.0597619 0)
(0.299995 -0.000986461 0)
(0.299898 -0.00296996 0)
(0.299706 -0.00498692 0)
(0.299416 -0.00706821 0)
(0.299042 -0.00923554 0)
(0.29859 -0.011532 0)
(0.298086 -0.0139684 0)
(0.297545 -0.016622 0)
(0.297015 -0.0194599 0)
(0.296522 -0.0226533 0)
(0.296164 -0.0260157 0)
(0.295982 -0.0299843 0)
(0.296163 -0.0338933 0)
(0.296735 -0.038913 0)
(0.298065 -0.043074 0)
(0.300021 -0.0493389 0)
(0.303404 -0.0528814 0)
(0.307353 -0.0599768 0)
(0.313733 -0.0615212 0)
(0.319664 -0.0673203 0)
(0.299994 -0.000929727 0)
(0.299869 -0.00280044 0)
(0.299622 -0.00470721 0)
(0.299246 -0.00668347 0)
(0.298755 -0.00875361 0)
(0.298148 -0.0109661 0)
(0.297454 -0.0133355 0)
(0.296669 -0.0159527 0)
(0.295861 -0.0187862 0)
(0.295014 -0.0220479 0)
(0.294288 -0.0255227 0)
(0.293632 -0.0297881 0)
(0.293393 -0.0339847 0)
(0.293431 -0.0398066 0)
(0.294447 -0.0443626 0)
(0.296016 -0.0525103 0)
(0.299591 -0.0560146 0)
(0.30364 -0.0668858 0)
(0.311757 -0.0670316 0)
(0.318233 -0.0779162 0)
(0.299992 -0.000858867 0)
(0.299839 -0.00258809 0)
(0.299533 -0.00435463 0)
(0.299065 -0.00619307 0)
(0.298448 -0.00812998 0)
(0.29767 -0.0102166 0)
(0.296767 -0.012473 0)
(0.295703 -0.0149976 0)
(0.294576 -0.0177697 0)
(0.293295 -0.0210242 0)
(0.292119 -0.0245557 0)
(0.290817 -0.0290277 0)
(0.290022 -0.0335058 0)
(0.289189 -0.0400801 0)
(0.28971 -0.0451545 0)
(0.290413 -0.0555011 0)
(0.293984 -0.0589531 0)
(0.297873 -0.075474 0)
(0.307777 -0.0726872 0)
(0.314821 -0.0934334 0)
(0.299991 -0.000773414 0)
(0.299807 -0.00233141 0)
(0.299443 -0.00392622 0)
(0.29888 -0.00559189 0)
(0.298134 -0.00735611 0)
(0.297178 -0.00926991 0)
(0.296052 -0.0113589 0)
(0.294686 -0.013722 0)
(0.293206 -0.0163573 0)
(0.291424 -0.0194997 0)
(0.289719 -0.0229977 0)
(0.287592 -0.0275141 0)
(0.286088 -0.0322362 0)
(0.283935 -0.0393174 0)
(0.283757 -0.0451757 0)
(0.282687 -0.0575106 0)
(0.28613 -0.0617369 0)
(0.28907 -0.0852497 0)
(0.300037 -0.0783145 0)
(0.309531 -0.116649 0)
(0.299989 -0.000673611 0)
(0.299778 -0.00203091 0)
(0.299356 -0.00342251 0)
(0.298702 -0.00488005 0)
(0.297829 -0.00643056 0)
(0.296698 -0.00812155 0)
(0.295348 -0.00998248 0)
(0.293675 -0.0121061 0)
(0.29182 -0.0145101 0)
(0.289507 -0.0174107 0)
(0.287192 -0.0207338 0)
(0.284116 -0.0250697 0)
(0.281696 -0.0298894 0)
(0.277788 -0.037057 0)
(0.276564 -0.0439182 0)
(0.272315 -0.0573277 0)
(0.275693 -0.064398 0)
(0.274872 -0.0937837 0)
(0.287372 -0.085668 0)
(0.302245 -0.150655 0)
(0.299988 -0.000560793 0)
(0.299751 -0.00168976 0)
(0.299278 -0.00284861 0)
(0.298542 -0.00406441 0)
(0.297553 -0.00536164 0)
(0.296262 -0.00678 0)
(0.2947 -0.0083509 0)
(0.292743 -0.0101525 0)
(0.290511 -0.0122189 0)
(0.287689 -0.0147304 0)
(0.284701 -0.0176867 0)
(0.280672 -0.0215672 0)
(0.277049 -0.0261538 0)
(0.27122 -0.0328839 0)
(0.268107 -0.0404393 0)
(0.25956 -0.0537604 0)
(0.261816 -0.0655861 0)
(0.251814 -0.0971154 0)
(0.270609 -0.101786 0)
(0.284086 -0.1954 0)
(0.299987 -0.000438191 0)
(0.299731 -0.00131521 0)
(0.299214 -0.00221645 0)
(0.298411 -0.00316172 0)
(0.297325 -0.00417136 0)
(0.295903 -0.00527226 0)
(0.294158 -0.00649745 0)
(0.291964 -0.00789926 0)
(0.289392 -0.00952665 0)
(0.286137 -0.0115001 0)
(0.282482 -0.0138839 0)
(0.277631 -0.0170046 0)
(0.272584 -0.0208955 0)
(0.265072 -0.0265585 0)
(0.258716 -0.0337232 0)
(0.246206 -0.0458073 0)
(0.241926 -0.0608699 0)
(0.219487 -0.0921298 0)
(0.239127 -0.127313 0)
(0.221269 -0.235381 0)
(0.302993 -0.0328805 0)
(0.303885 -0.0324996 0)
(0.304872 -0.0313244 0)
(0.305832 -0.0294673 0)
(0.306833 -0.0271458 0)
(0.307679 -0.0244486 0)
(0.308606 -0.0216252 0)
(0.309233 -0.0186149 0)
(0.3101 -0.0157522 0)
(0.310414 -0.0127569 0)
(0.304666 -0.03344 0)
(0.305856 -0.0330924 0)
(0.30708 -0.0319184 0)
(0.308194 -0.0300523 0)
(0.309264 -0.02769 0)
(0.310103 -0.0249593 0)
(0.310968 -0.0220704 0)
(0.311489 -0.0190262 0)
(0.312218 -0.0160816 0)
(0.31237 -0.0130728 0)
(0.306709 -0.034137 0)
(0.308309 -0.0338031 0)
(0.309884 -0.0325874 0)
(0.311261 -0.0306634 0)
(0.312496 -0.0282155 0)
(0.313413 -0.0254151 0)
(0.314282 -0.0224351 0)
(0.314752 -0.0193348 0)
(0.315376 -0.0162981 0)
(0.31539 -0.0132546 0)
(0.308829 -0.035046 0)
(0.310891 -0.0346963 0)
(0.312865 -0.0333925 0)
(0.314548 -0.0313634 0)
(0.315987 -0.0287836 0)
(0.317022 -0.0258763 0)
(0.317936 -0.0227726 0)
(0.318398 -0.0195897 0)
(0.318957 -0.016439 0)
(0.318875 -0.0133402 0)
(0.310967 -0.0362057 0)
(0.313534 -0.0358129 0)
(0.315937 -0.0343747 0)
(0.317945 -0.0321947 0)
(0.319596 -0.0294365 0)
(0.320759 -0.0263871 0)
(0.321726 -0.0231265 0)
(0.322194 -0.0198372 0)
(0.322705 -0.0165472 0)
(0.322548 -0.0133735 0)
(0.313113 -0.037638 0)
(0.316236 -0.0371687 0)
(0.319095 -0.0355427 0)
(0.321439 -0.0331608 0)
(0.323298 -0.0301741 0)
(0.324584 -0.0269479 0)
(0.325596 -0.0234968 0)
(0.326071 -0.0200807 0)
(0.326532 -0.0166253 0)
(0.326304 -0.0133603 0)
(0.315267 -0.0393727 0)
(0.319009 -0.0387808 0)
(0.322357 -0.0369031 0)
(0.325043 -0.034261 0)
(0.327099 -0.0309903 0)
(0.328493 -0.0275525 0)
(0.329535 -0.0238767 0)
(0.330007 -0.0203172 0)
(0.33041 -0.0166678 0)
(0.330104 -0.0132991 0)
(0.317435 -0.0414495 0)
(0.321874 -0.0406694 0)
(0.325743 -0.0384641 0)
(0.328771 -0.0354931 0)
(0.331007 -0.0318776 0)
(0.332487 -0.0281935 0)
(0.333537 -0.0242587 0)
(0.333993 -0.0205425 0)
(0.33432 -0.0166667 0)
(0.333921 -0.0131862 0)
(0.319624 -0.0439184 0)
(0.324855 -0.0428558 0)
(0.329278 -0.0402341 0)
(0.332642 -0.0368514 0)
(0.335032 -0.0328257 0)
(0.336567 -0.0288603 0)
(0.337593 -0.0246331 0)
(0.338007 -0.0207493 0)
(0.338227 -0.0166093 0)
(0.337697 -0.0130127 0)
(0.321855 -0.0468406 0)
(0.327979 -0.0453623 0)
(0.332995 -0.0422223 0)
(0.336675 -0.0383247 0)
(0.339188 -0.0338196 0)
(0.340719 -0.029536 0)
(0.34167 -0.0249844 0)
(0.341979 -0.02092 0)
(0.34202 -0.0164717 0)
(0.341277 -0.0127551 0)
(0.32416 -0.0502869 0)
(0.331287 -0.0482157 0)
(0.33694 -0.0444404 0)
(0.340903 -0.0398929 0)
(0.343478 -0.0348353 0)
(0.344878 -0.0301875 0)
(0.34564 -0.0252781 0)
(0.345683 -0.0210088 0)
(0.345389 -0.0162025 0)
(0.344251 -0.0123586 0)
(0.326603 -0.0543278 0)
(0.334849 -0.0514644 0)
(0.341194 -0.0469061 0)
(0.345345 -0.0415181 0)
(0.347814 -0.0358202 0)
(0.34878 -0.0307353 0)
(0.34908 -0.0254257 0)
(0.34849 -0.0209047 0)
(0.347558 -0.0156933 0)
(0.345677 -0.0117086 0)
(0.329325 -0.0590107 0)
(0.338809 -0.0552123 0)
(0.345847 -0.049621 0)
(0.349864 -0.0431033 0)
(0.351729 -0.0366321 0)
(0.351579 -0.0309837 0)
(0.350828 -0.025218 0)
(0.348903 -0.0203758 0)
(0.346847 -0.0147448 0)
(0.343676 -0.0106095 0)
(0.332689 -0.0643696 0)
(0.343374 -0.0596139 0)
(0.350721 -0.0524334 0)
(0.353629 -0.0443475 0)
(0.353662 -0.0368904 0)
(0.351101 -0.030501 0)
(0.348257 -0.0242415 0)
(0.343951 -0.0190318 0)
(0.340189 -0.0130701 0)
(0.335103 -0.00880261 0)
(0.337598 -0.0705012 0)
(0.348367 -0.064715 0)
(0.354367 -0.0546873 0)
(0.353836 -0.0444508 0)
(0.349711 -0.0357704 0)
(0.34284 -0.0285253 0)
(0.336552 -0.0218686 0)
(0.328845 -0.0163915 0)
(0.323052 -0.0104003 0)
(0.315737 -0.00608068 0)
(0.345505 -0.0777221 0)
(0.351363 -0.0700313 0)
(0.351916 -0.05479 0)
(0.343798 -0.0419144 0)
(0.332415 -0.0319927 0)
(0.319536 -0.0241144 0)
(0.308978 -0.0174956 0)
(0.297811 -0.0121766 0)
(0.290568 -0.00675151 0)
(0.28166 -0.00254328 0)
(0.355961 -0.0865803 0)
(0.343575 -0.0734716 0)
(0.332469 -0.0499063 0)
(0.311896 -0.034818 0)
(0.291517 -0.0243776 0)
(0.273185 -0.0168115 0)
(0.259687 -0.0111791 0)
(0.24715 -0.00683835 0)
(0.240499 -0.00277522 0)
(0.231893 0.00110294 0)
(0.358559 -0.0919084 0)
(0.30572 -0.0685553 0)
(0.279344 -0.0364502 0)
(0.245202 -0.0220722 0)
(0.220002 -0.0132659 0)
(0.201544 -0.00791462 0)
(0.189626 -0.00455697 0)
(0.179795 -0.0020587 0)
(0.176402 0.000121605 0)
(0.170153 0.00379553 0)
(0.32283 -0.0697098 0)
(0.209469 -0.0428664 0)
(0.179624 -0.0113607 0)
(0.143494 -0.00578797 0)
(0.126337 -0.00244752 0)
(0.115811 -0.00117664 0)
(0.110002 -0.000459265 0)
(0.10566 0.000230942 0)
(0.106222 0.000894368 0)
(0.102683 0.00484728 0)
(0.195111 -0.0609631 0)
(0.0411059 -0.0162553 0)
(0.0507601 0.00217418 0)
(0.0360818 0.000544456 0)
(0.035617 0.000658888 0)
(0.0342122 0.000344525 0)
(0.033828 0.000245647 0)
(0.0336212 0.000276941 0)
(0.0355765 0.000462949 0)
(0.0340937 0.00271254 0)
(0.311559 -0.00949067 0)
(0.311315 -0.00544328 0)
(0.312797 -0.00271624 0)
(0.311865 -0.000345112 0)
(0.313364 0.00128887 0)
(0.312243 0.00176168 0)
(0.313549 0.0025458 0)
(0.312848 0.00146991 0)
(0.3136 0.00217293 0)
(0.313699 0.00101593 0)
(0.314285 0.00107334 0)
(0.313981 0.00204307 0)
(0.314943 0.000346061 0)
(0.314191 0.00134005 0)
(0.313671 -0.00311598 0)
(0.313775 -0.00413274 0)
(0.31171 -0.01348 0)
(0.3127 -0.0175088 0)
(0.309909 -0.0258725 0)
(0.313016 -0.0330203 0)
(0.313284 -0.00968646 0)
(0.312745 -0.0056369 0)
(0.313928 -0.00281152 0)
(0.312751 -0.000442624 0)
(0.314048 0.00121064 0)
(0.312763 0.00173704 0)
(0.313985 0.00243326 0)
(0.313197 0.00145115 0)
(0.314006 0.00201517 0)
(0.314096 0.000855595 0)
(0.314763 0.00102485 0)
(0.314405 0.00191642 0)
(0.315334 0.000327908 0)
(0.3143 0.00160469 0)
(0.313627 -0.00298019 0)
(0.313435 -0.00376115 0)
(0.311118 -0.0132863 0)
(0.312199 -0.0171554 0)
(0.309281 -0.025948 0)
(0.313174 -0.0336522 0)
(0.316064 -0.00974778 0)
(0.315199 -0.00568887 0)
(0.315996 -0.00277846 0)
(0.314485 -0.000404954 0)
(0.315468 0.00124441 0)
(0.313907 0.00177938 0)
(0.314979 0.00237394 0)
(0.313999 0.00144724 0)
(0.314895 0.00185795 0)
(0.314913 0.000719488 0)
(0.315707 0.000979382 0)
(0.315275 0.00181688 0)
(0.316126 0.000414072 0)
(0.314665 0.00189293 0)
(0.313751 -0.00275977 0)
(0.31305 -0.00328932 0)
(0.310306 -0.0130699 0)
(0.311358 -0.0167992 0)
(0.308305 -0.0262323 0)
(0.312949 -0.034393 0)
(0.319351 -0.0096959 0)
(0.318204 -0.00560795 0)
(0.318622 -0.00261924 0)
(0.316786 -0.000252564 0)
(0.317429 0.00138331 0)
(0.315551 0.00190452 0)
(0.316446 0.00238507 0)
(0.315205 0.00146971 0)
(0.31621 0.0017119 0)
(0.316095 0.000578901 0)
(0.317054 0.000930951 0)
(0.316548 0.00174623 0)
(0.317261 0.000606867 0)
(0.315334 0.0022933 0)
(0.314067 -0.00237588 0)
(0.312701 -0.00265759 0)
(0.309407 -0.012782 0)
(0.310223 -0.016407 0)
(0.307074 -0.0266116 0)
(0.312038 -0.0351991 0)
(0.322849 -0.00956539 0)
(0.321456 -0.00542631 0)
(0.321513 -0.00235636 0)
(0.319383 4.40178e-06 0)
(0.319691 0.00162366 0)
(0.317494 0.00211411 0)
(0.318204 0.00246628 0)
(0.316673 0.00152016 0)
(0.317801 0.00156865 0)
(0.317522 0.000428251 0)
(0.318674 0.000871354 0)
(0.31811 0.00170374 0)
(0.318616 0.000919092 0)
(0.316251 0.0028248 0)
(0.314479 -0.00178849 0)
(0.312336 -0.00181909 0)
(0.308382 -0.012346 0)
(0.308718 -0.0159117 0)
(0.305452 -0.027014 0)
(0.310103 -0.0360019 0)
(0.326432 -0.00935929 0)
(0.324795 -0.00515105 0)
(0.324492 -0.00199747 0)
(0.322086 0.000362191 0)
(0.32206 0.00196622 0)
(0.319542 0.00240826 0)
(0.320054 0.0026208 0)
(0.318222 0.00159893 0)
(0.31947 0.00142899 0)
(0.31902 0.000268076 0)
(0.320383 0.000793442 0)
(0.319783 0.00169779 0)
(0.32001 0.00135656 0)
(0.31727 0.00349875 0)
(0.314806 -0.000952983 0)
(0.311813 -0.000743178 0)
(0.307069 -0.0116937 0)
(0.30667 -0.0152626 0)
(0.303134 -0.0273356 0)
(0.306733 -0.0366764 0)
(0.330046 -0.00906985 0)
(0.328137 -0.00477967 0)
(0.327454 -0.00154112 0)
(0.324765 0.000823074 0)
(0.324377 0.00241355 0)
(0.321524 0.00279132 0)
(0.321797 0.00285398 0)
(0.319653 0.00170976 0)
(0.320982 0.00129651 0)
(0.320362 9.72024e-05 0)
(0.321939 0.000692831 0)
(0.321315 0.00173593 0)
(0.321206 0.00192026 0)
(0.318155 0.00433565 0)
(0.314791 0.000174801 0)
(0.310918 0.000591878 0)
(0.305213 -0.0107566 0)
(0.303824 -0.0143849 0)
(0.299674 -0.0274213 0)
(0.301491 -0.0370859 0)
(0.333647 -0.00868225 0)
(0.331405 -0.00430421 0)
(0.330294 -0.000978165 0)
(0.327283 0.00139768 0)
(0.326474 0.00297625 0)
(0.323243 0.00327696 0)
(0.323199 0.00317812 0)
(0.320713 0.00186443 0)
(0.322043 0.00117994 0)
(0.321245 -8.5436e-05 0)
(0.32301 0.000569862 0)
(0.322362 0.00182428 0)
(0.321888 0.00260944 0)
(0.318567 0.00535898 0)
(0.314112 0.00163788 0)
(0.30937 0.00221799 0)
(0.302493 -0.00945731 0)
(0.299851 -0.0131675 0)
(0.294531 -0.0270887 0)
(0.293984 -0.0371098 0)
(0.337147 -0.00816976 0)
(0.334458 -0.00370818 0)
(0.332832 -0.000288022 0)
(0.32942 0.00210828 0)
(0.328092 0.00367645 0)
(0.324405 0.00389089 0)
(0.323924 0.00361674 0)
(0.321032 0.00208649 0)
(0.32224 0.00109799 0)
(0.321229 -0.000270885 0)
(0.32313 0.000431337 0)
(0.322444 0.00196575 0)
(0.321625 0.00342106 0)
(0.318051 0.00659072 0)
(0.312382 0.00346186 0)
(0.306816 0.00416807 0)
(0.29853 -0.00770931 0)
(0.294338 -0.0114657 0)
(0.287147 -0.0261584 0)
(0.283954 -0.0366682 0)
(0.340327 -0.00748488 0)
(0.336993 -0.00296025 0)
(0.334709 0.000565212 0)
(0.330765 0.00299057 0)
(0.328779 0.00454917 0)
(0.324524 0.00467203 0)
(0.323451 0.00420689 0)
(0.320053 0.00241359 0)
(0.32097 0.00108178 0)
(0.31968 -0.000438056 0)
(0.321646 0.000290038 0)
(0.320919 0.00215473 0)
(0.319844 0.0043443 0)
(0.316027 0.00804179 0)
(0.309159 0.00564258 0)
(0.302843 0.00646619 0)
(0.292902 -0.00541935 0)
(0.286817 -0.00911377 0)
(0.277069 -0.0244953 0)
(0.271374 -0.035747 0)
(0.342671 -0.0065464 0)
(0.338372 -0.00200479 0)
(0.335224 0.00164119 0)
(0.330574 0.00409403 0)
(0.32777 0.00564076 0)
(0.322819 0.00566957 0)
(0.320987 0.00499664 0)
(0.31696 0.00289604 0)
(0.317395 0.0011746 0)
(0.315738 -0.000561291 0)
(0.317704 0.000157309 0)
(0.316976 0.00237168 0)
(0.315828 0.00535114 0)
(0.31183 0.00969391 0)
(0.303969 0.00814675 0)
(0.296993 0.00913703 0)
(0.285175 -0.00249468 0)
(0.276843 -0.00595926 0)
(0.264099 -0.0220547 0)
(0.256492 -0.0344118 0)
(0.343113 -0.00522493 0)
(0.3374 -0.000748845 0)
(0.333159 0.00302681 0)
(0.327631 0.00547492 0)
(0.323883 0.00699907 0)
(0.318151 0.00693102 0)
(0.315431 0.00603363 0)
(0.310668 0.00358617 0)
(0.310445 0.00142361 0)
(0.308348 -0.000615559 0)
(0.310302 3.00746e-05 0)
(0.309707 0.00257281 0)
(0.308787 0.00638472 0)
(0.304792 0.0114811 0)
(0.29636 0.0109021 0)
(0.288811 0.0122015 0)
(0.274955 0.0011509 0)
(0.264113 -0.00193711 0)
(0.248405 -0.0189202 0)
(0.239832 -0.0328024 0)
(0.339729 -0.00333091 0)
(0.332095 0.000868372 0)
(0.326637 0.00479345 0)
(0.320178 0.00716417 0)
(0.315512 0.0086465 0)
(0.309052 0.00847762 0)
(0.305438 0.00734505 0)
(0.29992 0.00452066 0)
(0.29894 0.001861 0)
(0.296414 -0.000595244 0)
(0.298462 -0.000133441 0)
(0.298266 0.0026744 0)
(0.298009 0.00734305 0)
(0.294381 0.0132806 0)
(0.285974 0.0138015 0)
(0.277912 0.0156659 0)
(0.261971 0.00558074 0)
(0.248616 0.00297285 0)
(0.230571 -0.0153023 0)
(0.222114 -0.0311044 0)
(0.329573 -0.000682373 0)
(0.319672 0.00290222 0)
(0.313249 0.00696641 0)
(0.306088 0.00912205 0)
(0.300835 0.0105394 0)
(0.293962 0.0102693 0)
(0.28966 0.0089099 0)
(0.283539 0.00569709 0)
(0.281867 0.00247933 0)
(0.279095 -0.000540651 0)
(0.28151 -0.000423253 0)
(0.28213 0.00254545 0)
(0.283089 0.0080689 0)
(0.280353 0.0149208 0)
(0.272628 0.0167228 0)
(0.264085 0.0195178 0)
(0.246225 0.0107504 0)
(0.230734 0.0086039 0)
(0.211505 -0.0115088 0)
(0.20414 -0.0295043 0)
(0.309102 0.00272401 0)
(0.297055 0.00530023 0)
(0.290586 0.00943609 0)
(0.283403 0.011176 0)
(0.278328 0.0125234 0)
(0.27169 0.0121701 0)
(0.267177 0.0106307 0)
(0.260841 0.00704491 0)
(0.258785 0.00320326 0)
(0.256194 -0.00055886 0)
(0.259419 -0.000977061 0)
(0.261375 0.00201577 0)
(0.264139 0.00836519 0)
(0.262874 0.0162128 0)
(0.256375 0.0195579 0)
(0.247373 0.0237177 0)
(0.228064 0.016484 0)
(0.211281 0.0145779 0)
(0.192333 -0.00788553 0)
(0.186681 -0.0281458 0)
(0.275463 0.00663442 0)
(0.262126 0.00776645 0)
(0.257336 0.0118689 0)
(0.251246 0.0129864 0)
(0.247523 0.0143176 0)
(0.242036 0.0139412 0)
(0.238022 0.0123235 0)
(0.232112 0.00840578 0)
(0.230254 0.00386931 0)
(0.228506 -0.0008221 0)
(0.233056 -0.00196909 0)
(0.236848 0.000910089 0)
(0.241884 0.00804169 0)
(0.242527 0.0170038 0)
(0.237554 0.0222294 0)
(0.228176 0.0281735 0)
(0.208257 0.0225006 0)
(0.191403 0.0204771 0)
(0.174193 -0.00472951 0)
(0.170419 -0.0270997 0)
(0.228498 0.0104247 0)
(0.215298 0.00978847 0)
(0.214464 0.0137279 0)
(0.210726 0.0141019 0)
(0.209673 0.0155632 0)
(0.206283 0.0152832 0)
(0.203589 0.0137376 0)
(0.198941 0.0095391 0)
(0.198063 0.00423795 0)
(0.197906 -0.00153535 0)
(0.204178 -0.00356008 0)
(0.210096 -0.000907477 0)
(0.217552 0.00698238 0)
(0.220218 0.01723 0)
(0.216802 0.0246853 0)
(0.207306 0.032714 0)
(0.187951 0.0284125 0)
(0.172405 0.0258692 0)
(0.158095 -0.00221837 0)
(0.155946 -0.0263583 0)
(0.171877 0.0132359 0)
(0.160434 0.0107323 0)
(0.165699 0.0144004 0)
(0.165229 0.0141058 0)
(0.167872 0.0159302 0)
(0.167275 0.0159143 0)
(0.166678 0.0145963 0)
(0.164168 0.010157 0)
(0.165054 0.00405561 0)
(0.167052 -0.00286407 0)
(0.175096 -0.00582298 0)
(0.183051 -0.00345657 0)
(0.192623 0.0052015 0)
(0.197067 0.0169305 0)
(0.195078 0.0268737 0)
(0.185965 0.037078 0)
(0.168541 0.0337751 0)
(0.155552 0.0303909 0)
(0.144854 -0.000398614 0)
(0.143795 -0.0258574 0)
(0.112299 0.0143579 0)
(0.104307 0.0100374 0)
(0.116808 0.0134127 0)
(0.119772 0.0127817 0)
(0.126487 0.0152227 0)
(0.128967 0.0156336 0)
(0.131061 0.0146542 0)
(0.131385 0.0100015 0)
(0.134536 0.00314688 0)
(0.138812 -0.00485897 0)
(0.148201 -0.00869282 0)
(0.157657 -0.0065974 0)
(0.168617 0.0028572 0)
(0.174347 0.0162203 0)
(0.173655 0.0287208 0)
(0.165634 0.0409491 0)
(0.151461 0.0381656 0)
(0.141908 0.0337979 0)
(0.135096 0.000767803 0)
(0.134472 -0.0255074 0)
(0.0588862 0.0132021 0)
(0.0550108 0.00748409 0)
(0.0740019 0.0106432 0)
(0.0797877 0.0102146 0)
(0.0902092 0.0134043 0)
(0.0956563 0.0143537 0)
(0.100711 0.0137732 0)
(0.104152 0.00896309 0)
(0.109583 0.00149082 0)
(0.115724 -0.00737858 0)
(0.125613 -0.0119391 0)
(0.135662 -0.0100727 0)
(0.147012 0.000171615 0)
(0.153481 0.0152111 0)
(0.154047 0.0301117 0)
(0.14787 0.0440389 0)
(0.137978 0.0412873 0)
(0.132236 0.0360191 0)
(0.129278 0.00134753 0)
(0.128458 -0.0252171 0)
(0.033866 0.00745812 0)
(0.0300611 0.0049934 0)
(0.0518424 0.00771883 0)
(0.058917 0.00790786 0)
(0.0712749 0.0113934 0)
(0.0785134 0.0128235 0)
(0.0855204 0.0125106 0)
(0.0909641 0.00770027 0)
(0.0976636 2.12153e-06 0)
(0.104546 -0.00924043 0)
(0.114017 -0.0141706 0)
(0.123698 -0.01247 0)
(0.134568 -0.00180741 0)
(0.141221 0.014307 0)
(0.14272 0.0305836 0)
(0.138255 0.0454504 0)
(0.131732 0.0425243 0)
(0.128551 0.0367206 0)
(0.128168 0.00152009 0)
(0.126858 -0.0250126 0)
(0.0224937 0.00397779 0)
(0.0186097 0.0036198 0)
(0.0413994 0.00590092 0)
(0.0490348 0.00653543 0)
(0.0622878 0.0100989 0)
(0.0704487 0.0118258 0)
(0.0784886 0.0116422 0)
(0.0849991 0.00685942 0)
(0.0923234 -0.000909204 0)
(0.099491 -0.0102978 0)
(0.108551 -0.0153894 0)
(0.117827 -0.0137778 0)
(0.128235 -0.00291956 0)
(0.134894 0.0137617 0)
(0.136911 0.0307358 0)
(0.133482 0.0460673 0)
(0.128928 0.0430156 0)
(0.127161 0.0368909 0)
(0.128225 0.00157464 0)
(0.12657 -0.0248982 0)
(0.0141456 0.00192219 0)
(0.0100197 0.00226389 0)
(0.0333691 0.00399006 0)
(0.0413784 0.00509595 0)
(0.0553054 0.00869229 0)
(0.064265 0.0107109 0)
(0.0732269 0.0106422 0)
(0.0806995 0.00591437 0)
(0.0885283 -0.00186988 0)
(0.0958355 -0.0113354 0)
(0.104313 -0.0165413 0)
(0.112996 -0.0150138 0)
(0.12276 -0.00399521 0)
(0.129327 0.0131894 0)
(0.131841 0.0307798 0)
(0.129485 0.046489 0)
(0.126912 0.0432896 0)
(0.126494 0.0368634 0)
(0.128975 0.00156637 0)
(0.126918 -0.0247661 0)
(0.0087477 0.000887344 0)
(0.00431723 0.000915653 0)
(0.0279034 0.00203179 0)
(0.0360896 0.00359967 0)
(0.0504631 0.007203 0)
(0.0600753 0.00949224 0)
(0.0698227 0.00952882 0)
(0.0781284 0.0048827 0)
(0.086327 -0.00286318 0)
(0.0936262 -0.0123343 0)
(0.101361 -0.0176075 0)
(0.109271 -0.0161589 0)
(0.118219 -0.00501624 0)
(0.124595 0.0125965 0)
(0.127578 0.0307202 0)
(0.126307 0.046715 0)
(0.125701 0.0433494 0)
(0.126546 0.0366616 0)
(0.130414 0.00149873 0)
(0.127906 -0.0246068 0)
(0.00620472 0.000365294 0)
(0.00153063 -0.000408926 0)
(0.0251083 5.88396e-05 0)
(0.0332698 0.00207515 0)
(0.0478562 0.00565583 0)
(0.0579544 0.00818963 0)
(0.068328 0.00832082 0)
(0.0773177 0.00378286 0)
(0.0857426 -0.00387008 0)
(0.0928908 -0.0132745 0)
(0.099736 -0.0185661 0)
(0.106708 -0.0171904 0)
(0.114681 -0.00596576 0)
(0.120766 0.0119914 0)
(0.124179 0.0305587 0)
(0.12398 0.0467474 0)
(0.125303 0.0432032 0)
(0.12731 0.0362939 0)
(0.13253 0.00137975 0)
(0.129533 -0.0244181 0)
(0.00646698 -1.48636e-05 0)
(0.00168228 -0.00170871 0)
(0.025043 -0.00189974 0)
(0.0329786 0.000552022 0)
(0.0475381 0.00407659 0)
(0.0579398 0.00682573 0)
(0.0687602 0.00703905 0)
(0.0782696 0.00263438 0)
(0.0867734 -0.00487187 0)
(0.0936363 -0.0141377 0)
(0.0994655 -0.0193973 0)
(0.105352 -0.0180876 0)
(0.112204 -0.00682739 0)
(0.117897 0.0113837 0)
(0.121691 0.0302991 0)
(0.122527 0.046591 0)
(0.125718 0.0428618 0)
(0.128769 0.0357674 0)
(0.135307 0.0012132 0)
(0.131791 -0.0241988 0)
(0.00956004 -0.000587331 0)
(0.00478637 -0.00299262 0)
(0.0277199 -0.00381537 0)
(0.0352329 -0.000940581 0)
(0.0495209 0.00249288 0)
(0.0600317 0.00542509 0)
(0.0711038 0.00570645 0)
(0.0809579 0.00145776 0)
(0.0893929 -0.00585077 0)
(0.0958486 -0.0149082 0)
(0.100558 -0.0200849 0)
(0.105234 -0.0188329 0)
(0.110835 -0.00758572 0)
(0.116034 0.010783 0)
(0.120151 0.0299479 0)
(0.121961 0.0462533 0)
(0.126938 0.0423384 0)
(0.130905 0.0350918 0)
(0.138721 0.00100273 0)
(0.134666 -0.0239471 0)
(0.0155814 -0.00172875 0)
(0.0108468 -0.00425402 0)
(0.0331025 -0.00565935 0)
(0.0400062 -0.00237231 0)
(0.0537751 0.000933278 0)
(0.0641953 0.00401505 0)
(0.0753122 0.00434821 0)
(0.0853289 0.000274353 0)
(0.0935502 -0.0067899 0)
(0.0994911 -0.0155732 0)
(0.103003 -0.0206159 0)
(0.106368 -0.0194124 0)
(0.110608 -0.00822673 0)
(0.115214 0.0101984 0)
(0.119587 0.0295142 0)
(0.122288 0.0457446 0)
(0.128949 0.0416492 0)
(0.133692 0.0342782 0)
(0.142741 0.000751274 0)
(0.138139 -0.0236609 0)
(0.0246626 -0.00397459 0)
(0.0198566 -0.0054707 0)
(0.0411024 -0.00739879 0)
(0.0472278 -0.00371438 0)
(0.0602303 -0.000572704 0)
(0.0703617 0.00262493 0)
(0.0813096 0.00299136 0)
(0.0913039 -0.000893902 0)
(0.099171 -0.00767359 0)
(0.104505 -0.0161223 0)
(0.106768 -0.0209807 0)
(0.10875 -0.019814 0)
(0.111543 -0.00873729 0)
(0.115458 0.00963961 0)
(0.120017 0.0290093 0)
(0.123506 0.0450778 0)
(0.131737 0.0408134 0)
(0.137103 0.0333399 0)
(0.147331 0.000460671 0)
(0.142185 -0.0233398 0)
(0.0368923 -0.00774586 0)
(0.0318037 -0.006667 0)
(0.0515775 -0.00898771 0)
(0.0567818 -0.00496152 0)
(0.0687761 -0.00199342 0)
(0.0784303 0.00127191 0)
(0.0889933 0.00165821 0)
(0.0987806 -0.00203022 0)
(0.106158 -0.00848823 0)
(0.110808 -0.0165447 0)
(0.111798 -0.0211703 0)
(0.112356 -0.0200193 0)
(0.113644 -0.00910251 0)
(0.116776 0.00913128 0)
(0.121452 0.0284439 0)
(0.125613 0.0442723 0)
(0.135285 0.0398369 0)
(0.141106 0.032292 0)
(0.15245 0.000140977 0)
(0.146771 -0.0229936 0)
(0.0700603 -0.0151428 0)
(0.0640603 -0.0094007 0)
(0.0793272 -0.0120105 0)
(0.0822809 -0.00752278 0)
(0.0915877 -0.00483457 0)
(0.0998299 -0.00161942 0)
(0.109098 -0.00117256 0)
(0.118041 -0.00441991 0)
(0.124076 -0.0100893 0)
(0.127102 -0.0171666 0)
(0.125331 -0.0211865 0)