/*--------------------------------*- C++ -*----------------------------------*\
| =========                 |                                                 |
| \\      /  F ield         | OpenFOAM: The Open Source CFD Toolbox           |
|  \\    /   O peration     | Version:  v1806                                 |
|   \\  /    A nd           | Web:      www.OpenFOAM.com                      |
|    \\/     M anipulation  |                                                 |
\*---------------------------------------------------------------------------*/
FoamFile
{
    version     2.0;
    format      ascii;
    class       surfaceScalarField;
    location    "200";
    object      phi;
}
// * * * * * * * * * * * * * * * * * * * * * * * * * * * * * * * * * * * * * //

dimensions      [0 3 -1 0 0 0 0];
oriented        oriented;


internalField   nonuniform List<scalar> 
4680
(
0.0749984
-0.000380252
0.0749953
-0.0016068
0.074985
-0.00231066
0.0749739
-0.00375721
0.07495
-0.00447116
0.0749277
-0.00629947
0.074883
-0.00708216
0.0748463
-0.00946793
0.0747712
-0.0103848
0.0747177
-0.0135084
0.0746005
-0.0146346
0.0745307
-0.0186113
0.0743627
-0.0200372
0.0742844
-0.0247701
0.0740779
-0.0265865
0.0740127
-0.0315046
0.0738361
-0.0337201
0.0738236
-0.0376025
0.073812
-0.0397936
-0.041365
0.0739132
0.0749966
-0.000376827
0.0749894
-0.00159959
0.0749712
-0.00229245
0.074952
-0.00373806
0.0749139
-0.00443309
0.0748809
-0.00626644
0.0748134
-0.0070147
0.0747652
-0.00941969
0.0746544
-0.010274
0.0745933
-0.0134472
0.0744213
-0.0144626
0.074359
-0.018549
0.0741119
-0.0197901
0.0740779
-0.0247361
0.0737735
-0.0262821
0.0738162
-0.0315473
0.073566
-0.0334698
0.0737202
-0.0377568
0.0737575
-0.0398309
-0.0416079
0.0740005
0.0749948
-0.000371674
0.0749825
-0.00158728
0.0749546
-0.00226448
0.0749244
-0.00370793
0.0748681
-0.00437679
0.0748193
-0.00621766
0.0747227
-0.00691806
0.0746559
-0.00935286
0.0745011
-0.0101192
0.0744234
-0.0133696
0.0741882
-0.0142274
0.0741229
-0.0184836
0.0737917
-0.0194589
0.0737908
-0.0247353
0.0733906
-0.025882
0.0735354
-0.0316921
0.0732161
-0.0331505
0.073552
-0.0380927
0.0736362
-0.039915
-0.042027
0.0740553
0.0749934
-0.000365088
0.0749755
-0.00156931
0.0749381
-0.00222709
0.0748953
-0.00366518
0.0748209
-0.00430235
0.074753
-0.0061498
0.0746275
-0.00679254
0.0745364
-0.00926176
0.074339
-0.00992184
0.0742359
-0.0132665
0.0739412
-0.0139327
0.0738602
-0.0184026
0.0734516
-0.0190503
0.0734686
-0.0247523
0.0729792
-0.0253926
0.0732157
-0.0319286
0.0728224
-0.0327571
0.0733531
-0.0386235
0.0734617
-0.0400236
-0.0426582
0.0740929
0.0749923
-0.000357392
0.0749682
-0.00154521
0.0749222
-0.00218107
0.0748658
-0.00360875
0.0747745
-0.00421106
0.0746852
-0.00606057
0.074533
-0.00664024
0.0744133
-0.00914213
0.0741768
-0.00968529
0.0740412
-0.0131309
0.0736922
-0.0135837
0.073585
-0.0182954
0.0731049
-0.0185703
0.0731266
-0.0247739
0.0725503
-0.0248163
0.0728696
-0.0322479
0.0723899
-0.0322774
0.0731317
-0.0393654
0.0732328
-0.0401247
-0.0435492
0.0741238
0.0749915
-0.000348924
0.0749608
-0.00151446
0.0749071
-0.00212743
0.074836
-0.00353765
0.0747297
-0.00410471
0.074617
-0.00594788
0.0744409
-0.00646417
0.0742887
-0.00898994
0.0740176
-0.00941421
0.0738426
-0.0129559
0.0734454
-0.0131865
0.0733011
-0.018151
0.0727557
-0.0180249
0.0727681
-0.0247863
0.0721058
-0.024154
0.0724972
-0.0326393
0.0719168
-0.031697
0.0728851
-0.0403337
0.072943
-0.0401826
-0.0447611
0.074155
0.0749911
-0.00033999
0.0749532
-0.00147658
0.0748929
-0.00206715
0.0748062
-0.00345094
0.0746867
-0.00398524
0.0745485
-0.00580967
0.0743521
-0.00626772
0.0741631
-0.00880098
0.0738629
-0.00911402
0.0736406
-0.0127336
0.0732026
-0.0127485
0.0730087
-0.017957
0.0724051
-0.0174213
0.0723919
-0.0247731
0.0716448
-0.0234069
0.072095
-0.0330895
0.0713995
-0.0310015
0.0726062
-0.0415404
0.0725843
-0.0401606
-0.0463692
0.0741924
0.0749908
-0.000330799
0.0749455
-0.00143129
0.0748795
-0.0020011
0.0747764
-0.0033479
0.0746457
-0.00385449
0.0744801
-0.00564407
0.0742667
-0.0060544
0.0740367
-0.00857095
0.0737134
-0.00879071
0.073435
-0.0124552
0.0729652
-0.0122787
0.0727061
-0.017698
0.0720546
-0.0167698
0.0719947
-0.0247132
0.0711665
-0.0225787
0.0716585
-0.0335816
0.0708321
-0.0301751
0.0722868
-0.0429951
0.0721498
-0.0400236
-0.0484584
0.0742389
0.0749906
-0.000321388
0.0749378
-0.00137854
0.0748666
-0.00192982
0.074747
-0.00322831
0.0746063
-0.00371382
0.0744121
-0.00544985
0.074185
-0.00582728
0.07391
-0.00829595
0.0735696
-0.00845033
0.0732255
-0.0121111
0.0727345
-0.0117877
0.0723908
-0.0173542
0.0717065
-0.0160855
0.07157
-0.0245767
0.0706721
-0.0216807
0.0711815
-0.034091
0.0702069
-0.0292005
0.0719222
-0.0447104
0.0716324
-0.0397338
-0.0511137
0.0742877
0.0749902
-0.000311575
0.0749303
-0.0013187
0.074854
-0.00185344
0.0747183
-0.00309259
0.0745682
-0.00356381
0.0743454
-0.00522697
0.0741062
-0.00558816
0.0737838
-0.00797356
0.0734315
-0.00809803
0.0730124
-0.011692
0.0725116
-0.0112869
0.07206
-0.0169026
0.0713642
-0.0153897
0.0711081
-0.0243207
0.0701669
-0.0207395
0.0706508
-0.0345749
0.0695175
-0.0280671
0.0715159
-0.0467088
0.0710145
-0.0392324
-0.0544192
0.0743201
0.0749894
-0.00030096
0.0749232
-0.00125253
0.0748413
-0.00177157
0.0746908
-0.00294202
0.074531
-0.00340405
0.074281
-0.00497696
0.0740297
-0.00533683
0.0736606
-0.00760447
0.073298
-0.00773542
0.0727984
-0.0111924
0.072297
-0.0107855
0.0717124
-0.016318
0.0710302
-0.0147075
0.0705966
-0.0238871
0.0696601
-0.0198029
0.070039
-0.0349538
0.0687685
-0.0267966
0.0710746
-0.049015
0.0702484
-0.0384062
-0.0584958
0.0743249
0.074988
-0.000288989
0.0749166
-0.00118113
0.0748285
-0.00168342
0.0746651
-0.00277859
0.0744942
-0.0032332
0.0742202
-0.00470301
0.0739544
-0.00507097
0.0735428
-0.0071929
0.0731666
-0.00735916
0.0725893
-0.0106152
0.0720876
-0.0102838
0.0713542
-0.0155846
0.070706
-0.0140593
0.0700245
-0.0232057
0.0691602
-0.0189386
0.0692995
-0.0350931
0.0679868
-0.0254839
0.0705782
-0.0516063
0.069248
-0.037076
-0.0636132
0.0743654
0.0749861
-0.000275084
0.0749107
-0.00110571
0.0748153
-0.00158805
0.0746414
-0.00260474
0.0744576
-0.00304932
0.0741641
-0.00440952
0.0738796
-0.00478653
0.0734331
-0.00674634
0.0730352
-0.00696127
0.0723913
-0.00997127
0.071876
-0.00976853
0.071003
-0.0147115
0.0703877
-0.013444
0.0693932
-0.0222111
0.0686685
-0.0182139
0.0683776
-0.0348023
0.0672187
-0.0243249
0.0699223
-0.0543099
0.0679405
-0.0350941
-0.0703626
0.0746899
0.0749837
-0.000258821
0.0749054
-0.00102735
0.074802
-0.00148469
0.0746201
-0.0024228
0.0744214
-0.00285064
0.074113
-0.00410113
0.0738055
-0.00447906
0.0733331
-0.00627391
0.0729029
-0.00653109
0.0722098
-0.00927814
0.0716575
-0.00921623
0.0706736
-0.0137276
0.0700489
-0.0128194
0.0687644
-0.0209267
0.0681854
-0.0176349
0.0672266
-0.0338435
0.0664967
-0.0235951
0.0688754
-0.0566886
0.0663974
-0.0326161
-0.0797097
0.0757446
0.0749813
-0.000240088
0.0749006
-0.000946702
0.0747891
-0.00137319
0.0746008
-0.00223443
0.0743864
-0.00263632
0.0740668
-0.00378151
0.0737333
-0.0041455
0.0732431
-0.00578371
0.0727711
-0.00605911
0.0720472
-0.00855424
0.0714312
-0.00860022
0.0703778
-0.0126743
0.0696769
-0.0121185
0.0681813
-0.019431
0.067641
-0.0170946
0.0658976
-0.0321001
0.0657879
-0.0234854
0.0671409
-0.0580416
0.0649592
-0.0304344
-0.0926024
0.0778518
0.0749791
-0.000219179
0.0748962
-0.000863832
0.0747773
-0.00125423
0.074583
-0.00204021
0.0743539
-0.00240718
0.0740247
-0.00345227
0.073665
-0.00378586
0.0731614
-0.00528013
0.0726436
-0.00554131
0.0719014
-0.00781205
0.0712029
-0.00790163
0.0701174
-0.0115888
0.0692723
-0.0112734
0.0676709
-0.0178296
0.0669631
-0.0163868
0.064687
-0.0298241
0.0650197
-0.023818
0.0645636
-0.0575855
0.064126
-0.0299968
-0.108974
0.0804976
0.0749776
-0.000196759
0.074892
-0.000778215
0.0747671
-0.00112936
0.0745664
-0.00183954
0.074325
-0.00216579
0.0739854
-0.00311265
0.0736035
-0.00340393
0.0730858
-0.00476245
0.0725264
-0.0049819
0.0717674
-0.00705306
0.070985
-0.00711917
0.0698822
-0.010486
0.0688564
-0.0102476
0.0672283
-0.0162015
0.0661581
-0.0153166
0.0636647
-0.0273306
0.0638659
-0.0240192
0.0610565
-0.0547761
0.0640901
-0.0330305
-0.12657
0.0816863
0.0749769
-0.000173686
0.0748877
-0.000689019
0.0747591
-0.00100068
0.0745506
-0.0016311
0.0743008
-0.00191597
0.0739483
-0.00276019
0.0735509
-0.0030065
0.0730142
-0.00422574
0.0724249
-0.00439263
0.0716396
-0.00626776
0.0707921
-0.00627161
0.0696571
-0.00935104
0.0684676
-0.0090582
0.0668144
-0.0145482
0.0652973
-0.0137996
0.0627909
-0.0248242
0.0620453
-0.0232736
0.0580532
-0.050784
0.0642037
-0.0391811
-0.140444
0.0780781
0.0749771
-0.000150752
0.0748835
-0.000595472
0.0747532
-0.00087038
0.0745356
-0.00141345
0.0742815
-0.00166194
0.0739133
-0.0023919
0.0735083
-0.00260157
0.0729459
-0.00366333
0.0723424
-0.00378912
0.0715154
-0.00544079
0.0706346
-0.00539074
0.0694312
-0.00814766
0.0681428
-0.00776985
0.0663832
-0.0127886
0.0645113
-0.0119277
0.0618984
-0.0222113
0.0598039
-0.0211791
0.0556299
-0.0466099
0.0627418
-0.046293
-0.143734
0.0660317
0.0749773
-0.000128058
0.0748802
-0.000498399
0.0747486
-0.000738734
0.0745225
-0.00118733
0.0742657
-0.00140517
0.0738822
-0.00200838
0.0734735
-0.00219291
0.0728843
-0.00307411
0.0722759
-0.00318075
0.0714001
-0.004565
0.07051
-0.00450058
0.0692112
-0.00684884
0.0678898
-0.00644852
0.0659274
-0.0108262
0.0638895
-0.00988976
0.0608387
-0.0191605
0.0576746
-0.018015
0.05267
-0.0416054
0.0535617
-0.0471847
0.0421345
-0.132307
0.0740649
-0.0322958
0.0742523
-0.0320782
0.0744597
-0.0313065
0.0746744
-0.0302158
0.0748847
-0.0289427
0.0750828
-0.027548
0.0752648
-0.0260946
0.0754292
-0.0246463
0.0755758
-0.0232467
-0.0219157
0.0757077
0.0742829
-0.0325783
0.0745647
-0.0323599
0.07483
-0.0315719
0.0750817
-0.0304675
0.0753099
-0.0291709
0.075507
-0.0277451
0.0756739
-0.0262615
0.0758157
-0.024788
0.0759367
-0.0233677
-0.0220202
0.0760412
0.0744871
-0.0330101
0.0748781
-0.0327509
0.0752189
-0.0319127
0.0755235
-0.0307721
0.0757822
-0.0294295
0.0759885
-0.0279514
0.0761494
-0.0264223
0.076276
-0.0249147
0.076377
-0.0234686
-0.0221031
0.0764598
0.0746843
-0.0336015
0.0751881
-0.0332547
0.0756111
-0.0323357
0.0759733
-0.0311343
0.0762636
-0.0297199
0.0764798
-0.0281676
0.0766363
-0.0265788
0.0767506
-0.025029
0.0768354
-0.0235534
-0.0221688
0.0769011
0.0748851
-0.0343628
0.0755037
-0.0338733
0.0760142
-0.0328462
0.076436
-0.031556
0.0767563
-0.0300402
0.0769807
-0.028392
0.0771335
-0.0267316
0.0772378
-0.0251333
0.0773092
-0.0236248
-0.0222196
0.07736
0.075097
-0.0353049
0.0758326
-0.0346088
0.0764355
-0.0334491
0.0769176
-0.0320381
0.0772665
-0.0303891
0.0775
-0.0286255
0.0776526
-0.0268842
0.0777504
-0.0252312
0.07781
-0.0236844
-0.0222529
0.0778434
0.0753248
-0.0364373
0.0761803
-0.0354643
0.0768816
-0.0341504
0.0774268
-0.0325834
0.0778079
-0.0307702
0.0780571
-0.0288747
0.0782156
-0.0270427
0.0783079
-0.0253235
0.0783484
-0.0237249
-0.0222511
0.0783466
0.075566
-0.0377644
0.0765501
-0.0364484
0.0773644
-0.0349648
0.0779855
-0.0332045
0.0784117
-0.0311963
0.0786867
-0.0291496
0.0788505
-0.0272065
0.0789204
-0.0253934
0.0789074
-0.0237119
-0.022163
0.0788193
0.0758
-0.0392767
0.0769533
-0.0376018
0.0779193
-0.0359308
0.0786444
-0.0339296
0.0791315
-0.0316834
0.0794272
-0.0294453
0.0795619
-0.0273413
0.0795452
-0.0253767
0.0793896
-0.0235563
-0.0218814
0.079108
0.0760198
-0.0409763
0.0774419
-0.0390239
0.0786302
-0.0371191
0.0794874
-0.0347868
0.0800183
-0.0322143
0.0802672
-0.0296942
0.0802581
-0.0273322
0.0800053
-0.0251239
0.0795381
-0.0230892
-0.0212308
0.0788875
0.0763247
-0.0429761
0.0781514
-0.0408506
0.0796298
-0.0385975
0.0805793
-0.0357364
0.0810245
-0.0326594
0.0810275
-0.0296972
0.080632
-0.0269367
0.0798862
-0.024378
0.0788591
-0.0220621
-0.0199865
0.0776149
0.0769069
-0.0455176
0.0792938
-0.0432375
0.0809991
-0.0403028
0.0818019
-0.0365391
0.0818234
-0.032681
0.0811989
-0.0290726
0.0800415
-0.0257793
0.0784688
-0.0228054
0.0766096
-0.0202029
-0.0179433
0.0745663
0.0780786
-0.0489063
0.0809909
-0.0461498
0.0825068
-0.0418187
0.0825916
-0.0366239
0.081607
-0.0316964
0.0798277
-0.0272933
0.0774878
-0.0234395
0.0747931
-0.0201106
0.0719284
-0.0173382
-0.0150308
0.0690159
0.0800165
-0.0531782
0.0828743
-0.0490076
0.083244
-0.0421884
0.0817236
-0.0351035
0.0790236
-0.0289965
0.0756021
-0.0238718
0.0718195
-0.0196569
0.0679403
-0.0162314
0.0641598
-0.0135577
-0.0114369
0.0605659
0.0821942
-0.0575206
0.0836409
-0.0504543
0.0814272
-0.0399747
0.0773784
-0.0310547
0.0724648
-0.0240829
0.067283
-0.01869
0.062236
-0.0146098
0.0575428
-0.0115382
0.0533128
-0.00932763
-0.00764447
0.0495203
0.0828248
-0.0598478
0.080826
-0.0484555
0.0747082
-0.0338569
0.0677522
-0.0240987
0.0608265
-0.0171572
0.054498
-0.0123615
0.0489945
-0.00910636
0.0443219
-0.0068656
0.040395
-0.00540076
-0.00427992
0.0370305
0.0789423
-0.0571038
0.071549
-0.0410621
0.0612785
-0.0235864
0.0522619
-0.0150821
0.0446316
-0.00952699
0.0385784
-0.00630825
0.0338563
-0.00438425
0.0301634
-0.00317273
0.027219
-0.0024564
-0.00181128
0.0247504
0.0672469
-0.0462726
0.0539964
-0.0278117
0.0415666
-0.0111566
0.0329442
-0.00645965
0.0267686
-0.00335143
0.0225513
-0.00209094
0.0195485
-0.00138142
0.0173378
-0.000962078
0.0156188
-0.000737388
-0.000369189
0.0141767
0.0458101
-0.0260511
0.029457
-0.0114586
0.0198049
-0.00150447
0.0145075
-0.00116226
0.0114541
-0.000298025
0.00959383
-0.0002307
0.00834206
-0.000129645
0.0074583
-7.83249e-05
0.0067672
-4.62811e-05
0.000152565
0.00624544
0.0160834
0.00462484
0.00312036
0.00195811
0.00166008
0.00142938
0.00129974
0.00122141
0.00117513
0.0013277
0.0757975
-0.0156139
0.0758797
-0.0149407
0.0759566
-0.0143002
0.0760284
-0.0136882
0.0760956
-0.0131046
0.0761589
-0.0125445
0.0762183
-0.012009
0.076274
-0.0114926
0.0763256
-0.0109995
0.076373
-0.0105228
0.0764155
-0.0100717
0.0764526
-0.00963676
0.0764835
-0.00923443
0.0765073
-0.00885017
0.0765236
-0.00851161
0.0765307
-0.00819332
0.0765296
-0.00794074
0.0765166
-0.00770623
0.0764957
-0.00756561
-0.00742833
0.0761114
-0.0156841
0.0761763
-0.0150057
0.0762369
-0.0143608
0.0762941
-0.0137454
0.0763482
-0.0131586
0.0763991
-0.0125954
0.0764468
-0.0120567
0.0764908
-0.0115366
0.0765305
-0.0110392
0.0765649
-0.0105572
0.0765934
-0.0101002
0.0766143
-0.00965758
0.0766276
-0.00924777
0.0766304
-0.00885295
0.0766246
-0.00850582
0.0766052
-0.0081739
0.0765775
-0.00791304
0.0765331
-0.00766185
0.0764835
-0.00751598
-0.00735933
0.0765141
-0.0157384
0.0765639
-0.0150555
0.0766104
-0.0144073
0.0766543
-0.0137894
0.0766957
-0.0132
0.0767342
-0.0126339
0.076769
-0.0120915
0.0767991
-0.0115666
0.0768234
-0.0110635
0.0768401
-0.0105739
0.0768484
-0.0101086
0.0768454
-0.0096546
0.0768317
-0.00923402
0.0768026
-0.00882393
0.0767616
-0.00846479
0.0767014
-0.00811368
0.0766303
-0.00784191
0.0765364
-0.00756801
0.0764361
-0.00741569
-0.00723249
0.0769427
-0.0157801
0.0769802
-0.015093
0.0770146
-0.0144418
0.0770465
-0.0138212
0.077075
-0.0132286
0.0770993
-0.0126582
0.077118
-0.0121102
0.0771292
-0.0115779
0.0771315
-0.0110658
0.0771223
-0.0105646
0.0771003
-0.0100866
0.0770624
-0.00961669
0.0770086
-0.00918022
0.0769342
-0.00874948
0.0768423
-0.00837298
0.0767255
-0.00799684
0.0765931
-0.0077095
0.0764318
-0.00740672
0.076261
-0.00724495
-0.00702911
0.0773895
-0.0158096
0.0774138
-0.0151174
0.0774337
-0.0144616
0.0774487
-0.0138362
0.0774574
-0.0132372
0.0774581
-0.0126589
0.0774486
-0.0121007
0.077427
-0.0115562
0.0773908
-0.0110296
0.077338
-0.0105118
0.0772663
-0.010015
0.0771732
-0.00952354
0.0770578
-0.00906479
0.0769162
-0.00860795
0.076751
-0.00820772
0.0765555
-0.00780137
0.0763388
-0.00749277
0.0760881
-0.0071561
0.0758244
-0.00698119
-0.00672778
0.0778553
-0.0158215
0.0778578
-0.0151199
0.0778506
-0.0144545
0.0778328
-0.0138183
0.0778018
-0.0132063
0.0777559
-0.012613
0.0776925
-0.0120373
0.07761
-0.0114737
0.0775056
-0.0109253
0.0773782
-0.0103843
0.0772252
-0.00986197
0.0770454
-0.0093437
0.0768369
-0.00885634
0.0765982
-0.00836924
0.0763298
-0.0079393
0.0760281
-0.0074997
0.0756997
-0.00716437
0.0753353
-0.00679172
0.074954
-0.00659981
-0.00630711
0.078321
-0.0157958
0.0782761
-0.0150749
0.0782112
-0.0143896
0.0781251
-0.0137322
0.0780153
-0.0130966
0.0778807
-0.0124783
0.0777192
-0.0118758
0.0775305
-0.0112849
0.0773127
-0.0107076
0.0770663
-0.0101379
0.076789
-0.00958469
0.0764818
-0.00903651
0.0761422
-0.00851671
0.0757714
-0.00799847
0.0753676
-0.00753548
0.0749315
-0.00706363
0.0744652
-0.00669803
0.0739653
-0.00629189
0.0734453
-0.00607982
-0.00575118
0.0787086
-0.0156852
0.0785625
-0.0149288
0.0783814
-0.0142086
0.0781651
-0.0135159
0.0779129
-0.0128443
0.0776254
-0.0121909
0.0773029
-0.0115534
0.0769475
-0.0109295
0.0765593
-0.0103193
0.076141
-0.00971962
0.0756918
-0.00913547
0.075215
-0.00855966
0.0747075
-0.0080093
0.0741738
-0.00746476
0.073609
-0.00697068
0.0730186
-0.00647317
0.0723982
-0.00607764
0.0717522
-0.0056459
0.0710846
-0.0054122
-0.00505647
0.078825
-0.0154022
0.0784877
-0.0145915
0.0781
-0.0138209
0.0776648
-0.0130807
0.077185
-0.0123645
0.0766649
-0.0116708
0.0761086
-0.0109971
0.0755212
-0.0103421
0.0749059
-0.00970404
0.074268
-0.0090817
0.0736083
-0.00847572
0.0729317
-0.00788313
0.0722353
-0.00731287
0.0715249
-0.00675434
0.0707927
-0.00623848
0.0700473
-0.00572779
0.0692774
-0.00530773
0.0684943
-0.00486286
0.0676903
-0.00460816
-0.00423793
0.0783041
-0.0148188
0.0776544
-0.0139417
0.076948
-0.0131145
0.0761927
-0.0123254
0.0753966
-0.0115684
0.0745686
-0.0108428
0.0737168
-0.0101452
0.0728494
-0.00947476
0.0719726
-0.00882727
0.0710932
-0.00820225
0.0702131
-0.00759564
0.0693373
-0.00700731
0.068462
-0.00643759
0.0675922
-0.00588449
0.066717
-0.00536327
0.0658451
-0.00485591
0.0649583
-0.00442094
0.0640724
-0.00397697
0.0631674
-0.00370314
-0.00333053
0.0765856
-0.0137895
0.0754998
-0.012856
0.0743732
-0.0119879
0.0732185
-0.0111706
0.0720484
-0.0103983
0.0708753
-0.0096697
0.0697099
-0.00897983
0.0685617
-0.00832661
0.0674379
-0.00770343
0.0663442
-0.00710852
0.0652818
-0.00653332
0.0642528
-0.00597829
0.0632514
-0.00543618
0.0622782
-0.00491128
0.0613193
-0.00440439
0.0603797
-0.00391631
0.0594357
-0.00347695
0.0585035
-0.00304477
0.0575529
-0.00275251
-0.00238424
0.0729833
-0.0122065
0.071391
-0.0112636
0.0698069
-0.0104039
0.0682452
-0.00960884
0.0667198
-0.0088729
0.0652421
-0.00819209
0.0638216
-0.00755926
0.0624649
-0.00696999
0.0611765
-0.00641496
0.0599574
-0.00588949
0.0588054
-0.00538125
0.0577162
-0.00488908
0.0566804
-0.00440045
0.0556918
-0.00392265
0.0547336
-0.00344624
0.0538041
-0.00298678
0.0528768
-0.00254962
0.0519646
-0.00213259
0.0510304
-0.00181836
-0.00145306
0.0668882
-0.0100787
0.0648408
-0.00921633
0.0628842
-0.00844718
0.0610267
-0.00775138
0.0592758
-0.00712201
0.0576352
-0.00655146
0.0561066
-0.00603068
0.0546894
-0.00555283
0.0533808
-0.00510631
0.0521744
-0.00468305
0.0510614
-0.00426831
0.0500305
-0.00385815
0.0490678
-0.00343771
0.0481596
-0.00301445
0.0472877
-0.00257437
0.0464428
-0.00214194
0.0455996
-0.00170633
0.0447653
-0.0012983
0.0439002
-0.000953234
-0.000583549
0.0580858
-0.00759867
0.0558028
-0.00693332
0.0537075
-0.00635191
0.0517931
-0.00583696
0.0500504
-0.00537926
0.0484682
-0.00496935
0.0470365
-0.00459892
0.0457442
-0.00426052
0.0445798
-0.00394194
0.0435296
-0.0036328
0.0425789
-0.00331765
0.0417107
-0.00299
0.0409082
-0.00263522
0.0401531
-0.00225929
0.0394276
-0.00184887
0.0387171
-0.00143142
0.0380008
-0.000990091
0.0372798
-0.000577292
0.0365165
-0.000189914
0.000191232
0.047057
-0.00513537
0.0448963
-0.00477257
0.0429984
-0.00445403
0.0413307
-0.0041693
0.0398611
-0.0039096
0.0385626
-0.00367087
0.0374147
-0.00345105
0.0363997
-0.00324551
0.0355014
-0.00304364
0.034703
-0.00283435
0.0339879
-0.00260259
0.0333378
-0.0023399
0.0327359
-0.00203327
0.0321632
-0.00168663
0.0316049
-0.00129055
0.0310445
-0.00087109
0.0304687
-0.000414257
0.0298721
1.93304e-05
0.0292244
0.000457758
0.000849983
0.0350077
-0.00311257
0.0333422
-0.00310713
0.0319541
-0.00306587
0.0307788
-0.00299402
0.029766
-0.00289675
0.0288834
-0.0027883
0.028111
-0.00267861
0.0274335
-0.00256806
0.026838
-0.00244809
0.0263106
-0.00230694
0.0258375
-0.00212949
0.025403
-0.00190542
0.024993
-0.00162329
0.0245916
-0.00128521
0.0241877
-0.000886674
0.023767
-0.000450438
0.0233234
2.93952e-05
0.0228467
0.00049597
0.022321
0.00098348
0.00137833
0.0234711
-0.0018333
0.0225383
-0.00217426
0.0218135
-0.0023411
0.0212088
-0.00238929
0.0206776
-0.0023656
0.0202026
-0.00231329
0.0197779
-0.00225391
0.0194
-0.00219014
0.0190643
-0.00211242
0.0187636
-0.00200618
0.0184886
-0.00185453
0.0182281
-0.0016449
0.0179716
-0.00136685
0.0177078
-0.00102136
0.0174297
-0.000608635
0.0171275
-0.000148203
0.0168009
0.000356031
0.0164386
0.000858234
0.0160406
0.00138148
0.00176489
0.0137313
-0.00138785
0.0135484
-0.00199136
0.0134209
-0.00221366
0.0132756
-0.00224402
0.013103
-0.00219291
0.0129168
-0.00212715
0.0127322
-0.00206932
0.0125588
-0.0020167
0.0124
-0.0019536
0.0122537
-0.00185993
0.0121146
-0.00171544
0.0119749
-0.00150519
0.0118275
-0.00121944
0.0116653
-0.00085914
0.0114853
-0.000428686
0.0112837
5.34166e-05
0.0110632
0.000576561
0.0108159
0.00110552
0.0105534
0.00164401
0.00200239
0.00649806
-0.00164047
0.00685147
-0.00234476
0.00706815
-0.00243033
0.0071491
-0.00232497
0.00714021
-0.00218402
0.00708574
-0.00207267
0.00701508
-0.00199866
0.00694426
-0.00194587
0.00687943
-0.00188878
0.00681996
-0.00180045
0.00676156
-0.00165704
0.00669825
-0.00144188
0.00662514
-0.00114634
0.00653872
-0.000772712
0.00643953
-0.000329496
0.00632885
0.00016409
0.00621201
0.000693406
0.00608538
0.00123215
0.00596124
0.00176814
0.0020888
0.0019313
-0.00224407
0.00240234
-0.00281581
0.00261704
-0.00264503
0.00266768
-0.00237562
0.00263783
-0.00215417
0.00258031
-0.00201516
0.00252274
-0.00194108
0.00247711
-0.00190025
0.00244584
-0.00185751
0.00242577
-0.00178038
0.00241133
-0.0016426
0.00239666
-0.00142722
0.00237794
-0.00112762
0.0023541
-0.000748871
0.0023286
-0.000304001
0.00230632
0.000186377
0.00229433
0.000705394
0.00229363
0.00123285
0.00230721
0.00175456
0.00203539
0.000134735
-0.0023788
9.00833e-05
-0.00277116
7.18908e-06
-0.00256214
-0.000121306
-0.00224712
-0.000249555
-0.00202592
-0.000357625
-0.00190709
-0.000437067
-0.00186164
-0.000487349
-0.00184997
-0.000512435
-0.00183242
-0.000518381
-0.00177443
-0.000511573
-0.00164941
-0.000497409
-0.00144138
-0.000478925
-0.0011461
-0.000456082
-0.000771714
-0.000425101
-0.000334983
-0.000380491
0.000141766
-0.000316532
0.000641435
-0.000234452
0.00115077
-0.000119134
0.00163924
0.00194401
-0.000437261
-0.00194154
-0.000876143
-0.00233227
-0.00126282
-0.00217546
-0.00157822
-0.00193173
-0.001824
-0.00178014
-0.00200375
-0.00172733
-0.0021249
-0.00174049
-0.00219666
-0.0017782
-0.00222888
-0.00180021
-0.00223104
-0.00177227
-0.00221146
-0.00166899
-0.00217649
-0.00147634
-0.00212956
-0.00119303
-0.00207058
-0.000830695
-0.00199557
-0.000409995
-0.00189882
4.50108e-05
-0.00177498
0.000517603
-0.00162481
0.00100059
-0.00145172
0.00146616
0.00178124
-0.000697176
-0.00124436
-0.00145964
-0.00156981
-0.0021006
-0.0015345
-0.00258968
-0.00144265
-0.00294663
-0.00142318
-0.0031958
-0.00147817
-0.00335855
-0.00157774
-0.00345283
-0.00168392
-0.00349358
-0.00175946
-0.00349324
-0.00177261
-0.00346181
-0.00170041
-0.00340671
-0.00153145
-0.00333211
-0.00126762
-0.00323863
-0.000924172
-0.00312306
-0.000525572
-0.00298044
-9.76022e-05
-0.00280656
0.00034372
-0.00260364
0.00079767
-0.00238224
0.00124476
0.0015761
-0.000820158
-0.000424207
-0.00178465
-0.000605309
-0.00260591
-0.000713248
-0.00322349
-0.000825069
-0.00366552
-0.000981155
-0.0039693
-0.00117439
-0.00416573
-0.00138131
-0.00427866
-0.00157099
-0.00432641
-0.0017117
-0.00432328
-0.00177574
-0.00428043
-0.00174327
-0.00420617
-0.00160571
-0.00410578
-0.00136801
-0.00398126
-0.0010487
-0.00383117
-0.000675657
-0.00365199
-0.000276781
-0.00344156
0.00013329
-0.00320292
0.000559032
-0.00295103
0.00099286
0.00134563
-0.000867106
0.000442899
-0.00192239
0.000449971
-0.00283211
0.000196474
-0.00351716
-0.00014002
-0.00400663
-0.000491679
-0.00434317
-0.00083786
-0.0045613
-0.00116317
-0.00468708
-0.00144522
-0.00473978
-0.001659
-0.00473408
-0.00178144
-0.00468142
-0.00179592
-0.00459073
-0.0016964
-0.0044685
-0.00149025
-0.00431861
-0.00119858
-0.00414218
-0.000852091
-0.00393828
-0.000480685
-0.00370646
-9.85274e-05
-0.00345038
0.000302957
-0.00318604
0.000728519
0.00110601
-0.000857849
0.00130075
-0.00189618
0.00148831
-0.00279672
0.00109701
-0.00348126
0.000544521
-0.00397552
2.58387e-06
-0.00432029
-0.000493091
-0.00454718
-0.000936289
-0.0046803
-0.0013121
-0.00473719
-0.00160211
-0.00473113
-0.00178749
-0.0046728
-0.00185425
-0.00457113
-0.00179807
-0.00443365
-0.00162773
-0.0042664
-0.00136583
-0.00407354
-0.00104494
-0.00385742
-0.000696814
-0.00361949
-0.000336453
-0.00336346
4.69229e-05
-0.00310339
0.000468455
0.000872285
-0.000785479
0.00208623
-0.00169463
0.00239746
-0.00248616
0.00188854
-0.00310124
0.0011596
-0.0035594
0.000460739
-0.00388786
-0.000164625
-0.00411187
-0.000712281
-0.00424882
-0.00117515
-0.00431167
-0.00153926
-0.00431052
-0.00178864
-0.00425399
-0.00191078
-0.00415018
-0.00190188
-0.00400714
-0.00177077
-0.00383288
-0.00154009
-0.00363477
-0.00124306
-0.00341871
-0.000912872
-0.00318853
-0.000566635
-0.00294771
-0.0001939
-0.0027063
0.000227048
0.000657883
-0.00061764
0.00270387
-0.00126897
0.00304879
-0.0018568
0.00247637
-0.00234061
0.0016434
-0.00272463
0.000844764
-0.00301756
0.000128301
-0.00323041
-0.000499426
-0.00337073
-0.00103483
-0.0034446
-0.00146539
-0.0034572
-0.00177604
-0.00341378
-0.0019542
-0.00332056
-0.00199511
-0.00318519
-0.00190614
-0.00301699
-0.00170829
-0.0028261
-0.00143395
-0.00262207
-0.00111691
-0.00241143
-0.000777275
-0.00219797
-0.000407357
-0.00198669
1.57687e-05
0.000474619
-0.000246217
0.00295008
-0.000529126
0.0033317
-0.000830481
0.00277772
-0.00113695
0.00194987
-0.00142111
0.00112893
-0.00166688
0.00037407
-0.00186502
-0.000301279
-0.00201222
-0.000887638
-0.00210576
-0.00137185
-0.00214463
-0.00173718
-0.00212956
-0.00196928
-0.00206371
-0.00206096
-0.00195319
-0.00201665
-0.00180744
-0.00185403
-0.00163841
-0.00160298
-0.00145878
-0.00129654
-0.00127806
-0.000957995
-0.00110137
-0.000584038
-0.000928213
-0.000157393
0.000334926
0.000527003
0.00242308
0.00069835
0.00316035
0.000714586
0.00276149
0.00059676
0.0020677
0.000417307
0.00130838
0.000220079
0.000571298
3.26697e-05
-0.00011387
-0.000129752
-0.000725217
-0.000255281
-0.00124632
-0.000336254
-0.0016562
-0.000368207
-0.00193732
-0.000350287
-0.00207888
-0.00028581
-0.00208113
-0.000182838
-0.001957
-5.35971e-05
-0.00173223
8.71037e-05
-0.00143724
0.000227266
-0.00109816
0.000359357
-0.000716129
0.000484953
-0.000282989
0.00023805
0.00369959
0.00152131
-0.00279782
0.00448784
0.0023721
0.00487949
0.00236984
0.00495624
0.00199095
0.00483605
0.00142857
0.00460896
0.00079838
0.00433498
0.00016011
0.00405311
-0.000443347
0.00379154
-0.000984747
0.00357156
-0.00143622
0.00340841
-0.00177418
0.00331105
-0.00198152
0.00328145
-0.00205152
0.00331289
-0.00198845
0.00339085
-0.00181018
0.00349324
-0.00153963
0.00360023
-0.00120515
0.00369491
-0.000810811
0.00378029
-0.000368363
0.000169522
0.01141
0.00137157
-0.0112603
0.0117934
0.00198874
0.0120335
0.00212966
0.0120635
0.00196099
0.0119108
0.00158126
0.0116281
0.00108113
0.0112618
0.000526422
0.0108543
-3.5915e-05
0.0104346
-0.000565032
0.0100299
-0.00103147
0.00966202
-0.00140633
0.00934775
-0.00166726
0.00909778
-0.00180155
0.0089139
-0.00180457
0.00879
-0.00168628
0.00870889
-0.00145852
0.00865371
-0.00114996
0.00860163
-0.000758734
0.00856139
-0.000328128
0.000230792
0.0230827
0.00229638
-0.0240075
0.0225636
0.00250788
0.0221738
0.00251942
0.0217793
0.00235548
0.0213223
0.00203835
0.0207938
0.00160957
0.0202051
0.0011151
0.0195735
0.000595695
0.0189218
8.66834e-05
0.0182686
-0.000378271
0.0176355
-0.000773237
0.0170414
-0.0010731
0.0165026
-0.00126276
0.0160287
-0.00133065
0.0156241
-0.00128168
0.0152805
-0.00111497
0.0149911
-0.000860522
0.0147326
-0.000500285
0.014517
-0.000112482
0.000453722
0.0378737
0.00426547
-0.0398428
0.0363357
0.00404586
0.0350781
0.00377706
0.0339899
0.00344361
0.0329866
0.0030417
0.0320175
0.00257865
0.0310574
0.0020752
0.0300959
0.00155719
0.0291325
0.00105011
0.0281741
0.00058015
0.0272316
0.000169238
0.0263187
-0.000160228
0.0254513
-0.000395312
0.0246415
-0.000520851
0.0239017
-0.000541951
0.0232326
-0.000445808
0.0226397
-0.000267646
0.0221066
3.27747e-05
0.0216525
0.000341685
0.000876559
0.0537233
0.00687767
-0.0563355
0.0514661
0.00630307
0.0494917
0.00575141
0.0477406
0.00519474
0.046153
0.00462929
0.044678
0.00405361
0.0432787
0.00347456
0.0419293
0.00290652
0.0406144
0.00236503
0.0393261
0.00186848
0.038064
0.00143136
0.036832
0.00107176
0.0356402
0.000796484
0.0344977
0.000621642
0.0334188
0.00053699
0.0324089
0.000564059
0.0314825
0.000658746
0.0306341
0.000881201
0.029885
0.00109081
0.00154132
0.0679539
0.00950685
-0.0705831
0.065535
0.00872199
0.0633017
0.00798471
0.0612324
0.00726405
0.0593034
0.00655824
0.0574879
0.00586912
0.0557615
0.00520098
0.0541037
0.00456433
0.0524989
0.00396976
0.0509358
0.00343162
0.0494087
0.0029585
0.0479153
0.00256514
0.0464597
0.00225207
0.0450465
0.00203484
0.0436865
0.00189694
0.0423871
0.00186349
0.0411621
0.00188374
0.0400194
0.0020239
0.0389695
0.00214072
0.00246431
0.0786309
0.0116538
-0.0807778
0.0765495
0.0108034
0.0745344
0.00999976
0.0725825
0.00921599
0.0706916
0.00844915
0.0688561
0.00770457
0.067069
0.00698812
0.0653231
0.00631026
0.0636125
0.00568035
0.0619322
0.00511191
0.0602796
0.00461105
0.0586538
0.00419099
0.0570568
0.00384903
0.0554926
0.00359902
0.0539673
0.0034223
0.0524904
0.00334035
0.0510676
0.00330651
0.0497208
0.00337077
0.0484388
0.00342271
0.0036078
0.0853286
0.013132
-0.0868069
0.0838217
0.0123103
0.082295
0.0115265
0.0807504
0.0107606
0.0791916
0.0100079
0.077622
0.00927417
0.0760438
0.00856635
0.074459
0.00789505
0.07287
0.00726938
0.0712795
0.00670239
0.0696903
0.00620023
0.0681067
0.00577457
0.066532
0.00542377
0.0649737
0.00515729
0.0634339
0.00496206
0.0619273
0.00484696
0.0604492