x,y,z,U_0,U_1,U_2
0,0,0,2.99483,-0.0394116,-7.68044e-12
0,0.1,0,2.99589,-0.0313431,-6.10806e-12
0,0.2,0,2.99695,-0.0232746,-4.53569e-12
0,0.3,0,2.99801,-0.0152061,-2.96332e-12
0,0.4,0,2.99906,-0.00713753,-1.39095e-12
0,0.5,0,3,-9.56436e-19,4.14369e-28
0,0.6,0,3,-1.14772e-18,4.97243e-28
0,0.7,0,3,-1.33901e-18,5.80117e-28
0,0.8,0,3,-1.5303e-18,6.6299e-28
0,0.9,0,3,-1.72159e-18,7.45864e-28
0,1,0,3,-2.21564e-18,-2.95011e-27
0,1.1,0,3,-2.4372e-18,-3.24512e-27
0,1.2,0,3,-2.65877e-18,-3.54013e-27
0,1.3,0,3,-2.88033e-18,-3.83514e-27
0,1.4,0,3,-3.10189e-18,-4.13015e-27
0,1.5,0,3,-3.71889e-18,-1.09264e-29
0,1.6,0,3,-3.96681e-18,-1.16548e-29
0,1.7,0,3,-4.21474e-18,-1.23832e-29
0,1.8,0,3,-4.46266e-18,-1.31117e-29
0,1.9,0,3,-4.71059e-18,-1.38401e-29
0,2,0,3,-3.9604e-18,6.60528e-27
0,2.1,0,3,-4.15842e-18,6.93555e-27
0,2.2,0,3,-4.35644e-18,7.26581e-27
0,2.3,0,3,-4.55446e-18,7.59607e-27
0,2.4,0,3,-4.75248e-18,7.92634e-27
0,2.5,0,3,-5.19298e-18,7.75541e-27
0,2.6,0,3,-5.4007e-18,8.06563e-27
0,2.7,0,3,-5.60842e-18,8.37585e-27
0,2.8,0,3,-5.81614e-18,8.68606e-27
0,2.9,0,3,-6.02385e-18,8.99628e-27
0,3,0,3,-5.6825e-18,-2.13038e-27
0,3.1,0,3,-5.87192e-18,-2.20139e-27
0,3.2,0,3,-6.06133e-18,-2.2724e-27
0,3.3,0,3,-6.25075e-18,-2.34342e-27
0,3.4,0,3,-6.44016e-18,-2.41443e-27
0,3.5,0,3,-5.48152e-18,-8.9804e-27
0,3.6,0,3,-5.63813e-18,-9.23698e-27
0,3.7,0,3,-5.79475e-18,-9.49356e-27
0,3.8,0,3,-5.95136e-18,-9.75015e-27
0,3.9,0,3,-6.10798e-18,-1.00067e-26
0,4,0,3,-5.26549e-18,-2.01673e-26
0,4.1,0,3,-5.39712e-18,-2.06715e-26
0,4.2,0,3,-5.52876e-18,-2.11757e-26
0,4.3,0,3,-5.6604e-18,-2.16799e-26
0,4.4,0,3,-4.4145e-18,-3.35396e-26
0,4.5,0,3,-4.51483e-18,-3.43018e-26
0,4.6,0,3,-4.61516e-18,-3.50641e-26
0,4.7,0,3,-4.71549e-18,-3.58264e-26
0,4.8,0,3,-4.81582e-18,-3.65886e-26
0,4.9,0,3,-3.44214e-18,-6.75416e-26
0,5,0,3,-3.51239e-18,-6.892e-26
0,5.1,0,3,-3.58263e-18,-7.02984e-26
0,5.2,0,3,-3.65288e-18,-7.16768e-26
0,5.3,0,3,-3.72313e-18,-7.30552e-26
0,5.4,0,3,-2.01285e-18,-9.20851e-26
0,5.5,0,3,-2.05012e-18,-9.37904e-26
0,5.6,0,3,-2.0874e-18,-9.54957e-26
0,5.7,0,3,-2.12467e-18,-9.72009e-26
0,5.8,0,3,-2.16195e-18,-9.89062e-26
0,5.9,0,3,-2.82436e-19,-9.82997e-26
0,6,0,3,-2.87223e-19,-9.99657e-26
0,6.1,0,3,-2.9201e-19,-1.01632e-25
0,6.2,0,3,-2.96797e-19,-1.03298e-25
0,6.3,0,3,-3.01584e-19,-1.04964e-25
0,6.4,0,3,1.57303e-18,-1.36257e-25
0,6.5,0,3,1.59761e-18,-1.38386e-25
0,6.6,0,3,1.62219e-18,-1.40515e-25
0,6.7,0,3,1.64677e-18,-1.42644e-25
0,6.8,0,3,1.67135e-18,-1.44773e-25
0,6.9,0,3,4.11381e-18,-1.1563e-25
0,7,0,3,4.17343e-18,-1.17306e-25
0,7.1,0,3,4.23306e-18,-1.18981e-25
0,7.2,0,3,4.29268e-18,-1.20657e-25
0,7.3,0,3,4.3523e-18,-1.22333e-25
0,7.4,0,3,6.76568e-18,-1.05219e-25
0,7.5,0,3,6.85711e-18,-1.06641e-25
0,7.6,0,3,6.94854e-18,-1.08063e-25
0,7.7,0,3,7.03997e-18,-1.09485e-25
0,7.8,0,3,7.1314e-18,-1.10907e-25
0,7.9,0,3,9.77314e-18,-9.33954e-26
0,8,0,3,9.89685e-18,-9.45776e-26
0,8.1,0,3,1.00206e-17,-9.57599e-26
0,8.2,0,3,1.01443e-17,-9.69421e-26
0,8.3,0,3,1.0268e-17,-9.81243e-26
0,8.4,0,3,1.29329e-17,-8.00718e-26
0,8.5,0,3,1.30868e-17,-8.1025e-26
0,8.6,0,3,1.32408e-17,-8.19783e-26
0,8.7,0,3,1.33948e-17,-8.29315e-26
0,8.8,0,3,1.60546e-17,-8.94121e-26
0,8.9,0,3,1.6237e-17,-9.04282e-26
0,9,0,3,1.64195e-17,-9.14442e-26
0,9.1,0,3,1.66019e-17,-9.24603e-26
0,9.2,0,3,1.67844e-17,-9.34763e-26
0,9.3,0,3,1.9263e-17,-8.88386e-26
0,9.4,0,3,1.94701e-17,-8.97938e-26
0,9.5,0,3,1.96773e-17,-9.07491e-26
0,9.6,0,3,1.98844e-17,-9.17043e-26
0,9.7,0,3,2.00915e-17,-9.26596e-26
0,9.8,0,3,1.99156e-17,-6.54207e-26
0,9.9,0,3,2.01188e-17,-6.60882e-26
0,10,0,3,2.03221e-17,-6.67558e-26
0,10.1,0,3,2.05253e-17,-6.74233e-26
0,10.2,0,3,2.07285e-17,-6.80909e-26
0,10.3,0,3,2.6523e-17,2.70752e-27
0,10.4,0,3,2.67805e-17,2.73381e-27
0,10.5,0,3,2.7038e-17,2.7601e-27
0,10.6,0,3,2.72955e-17,2.78638e-27
0,10.7,0,3,2.7553e-17,2.81267e-27
0,10.8,0,3,2.70414e-17,6.07317e-26
0,10.9,0,3,2.72918e-17,6.12941e-26
0,11,0,3,2.75422e-17,6.18564e-26
0,11.1,0,3,2.77925e-17,6.24187e-26
0,11.2,0,3,2.80429e-17,6.29811e-26
0,11.3,0,3,2.44004e-17,5.45189e-26
0,11.4,0,3,2.46163e-17,5.50013e-26
0,11.5,0,3,2.48322e-17,5.54838e-26
0,11.6,0,3,2.50482e-17,5.59663e-26
0,11.7,0,3,2.52641e-17,5.64487e-26
0,11.8,0,3,2.548e-17,5.69312e-26
0,11.9,0,3,2.5696e-17,5.74137e-26
0,12,0,3,2.59119e-17,5.78962e-26
0,12.1,0,3,2.61278e-17,5.83786e-26
0,12.2,0,3,2.63438e-17,5.88611e-26
0,12.3,0,2.99918,0.00694125,4.46093e-12
0,12.4,0,2.99825,0.0147879,9.50372e-12
0,12.5,0,2.99733,0.0226345,1.45465e-11
0,12.6,0,2.9964,0.0304811,1.95893e-11
0,12.7,0,2.99548,0.0383278,2.46321e-11
0.1,0,0,2.99498,-0.0369529,-8.03935e-12
0.1,0.1,0,2.99484,-0.038857,-1.33619e-12
0.1,0.2,0,2.9959,-0.0307885,2.36184e-13
0.1,0.3,0,2.99696,-0.0227199,1.80856e-12
0.1,0.4,0,2.99801,-0.0146514,3.38093e-12
0.1,0.5,0,2.99893,-0.00740782,4.62088e-12
0.1,0.6,0,2.99865,-0.00734709,3.18307e-12
0.1,0.7,0,2.99865,-0.00734709,3.18307e-12
0.1,0.8,0,2.99865,-0.00734709,3.18307e-12
0.1,0.9,0,2.99865,-0.00734709,3.18307e-12
0.1,1,0,2.99888,-0.007609,-8.5899e-14
0.1,1.1,0,2.99968,-0.00850997,-1.1331e-11
0.1,1.2,0,2.99968,-0.00850997,-1.1331e-11
0.1,1.3,0,2.99968,-0.00850997,-1.1331e-11
0.1,1.4,0,2.99968,-0.00850997,-1.1331e-11
0.1,1.5,0,2.9999,-0.00886435,-7.37499e-12
0.1,1.6,0,3.00029,-0.00952249,-2.79779e-14
0.1,1.7,0,3.00029,-0.00952249,-2.79779e-14
0.1,1.8,0,3.00029,-0.00952249,-2.79779e-14
0.1,1.9,0,3.00029,-0.00952249,-2.79779e-14
0.1,2,0,2.99965,-0.00861691,5.97815e-12
0.1,2.1,0,2.99893,-0.00760568,1.2685e-11
0.1,2.2,0,2.99893,-0.00760568,1.2685e-11
0.1,2.3,0,2.99893,-0.00760568,1.2685e-11
0.1,2.4,0,2.99893,-0.00760568,1.2685e-11
0.1,2.5,0,2.99903,-0.00782568,1.22303e-11
0.1,2.6,0,2.99909,-0.00797821,1.1915e-11
0.1,2.7,0,2.99909,-0.00797821,1.1915e-11
0.1,2.8,0,2.99909,-0.00797821,1.1915e-11
0.1,2.9,0,2.99909,-0.00797821,1.1915e-11
0.1,3,0,2.99938,-0.00748004,1.53843e-12
0.1,3.1,0,2.9995,-0.00727524,-2.7275e-12
0.1,3.2,0,2.9995,-0.00727524,-2.7275e-12
0.1,3.3,0,2.9995,-0.00727524,-2.7275e-12
0.1,3.4,0,2.9995,-0.00727524,-2.7275e-12
0.1,3.5,0,2.99913,-0.00623361,-8.62031e-12
0.1,3.6,0,2.99905,-0.00601536,-9.855e-12
0.1,3.7,0,2.99905,-0.00601536,-9.855e-12
0.1,3.8,0,2.99905,-0.00601536,-9.855e-12
0.1,3.9,0,2.99905,-0.00601536,-9.855e-12
0.1,4,0,2.99917,-0.00510889,-1.88408e-11
0.1,4.1,0,2.99917,-0.00505601,-1.9365e-11
0.1,4.2,0,2.99917,-0.00505601,-1.9365e-11
0.1,4.3,0,2.99917,-0.00505601,-1.9365e-11
0.1,4.4,0,2.99917,-0.00500867,-1.97553e-11
0.1,4.5,0,2.99916,-0.00385352,-2.92775e-11
0.1,4.6,0,2.99916,-0.00385352,-2.92775e-11
0.1,4.7,0,2.99916,-0.00385352,-2.92775e-11
0.1,4.8,0,2.99916,-0.00385352,-2.92775e-11
0.1,4.9,0,2.99914,-0.00367157,-3.30043e-11
0.1,5,0,2.99906,-0.00269812,-5.29425e-11
0.1,5.1,0,2.99906,-0.00269812,-5.29425e-11
0.1,5.2,0,2.99906,-0.00269812,-5.29425e-11
0.1,5.3,0,2.99906,-0.00269812,-5.29425e-11
0.1,5.4,0,2.99908,-0.0023491,-5.64025e-11
0.1,5.5,0,2.99911,-0.00143168,-6.54975e-11
0.1,5.6,0,2.99911,-0.00143168,-6.54975e-11
0.1,5.7,0,2.99911,-0.00143168,-6.54975e-11
0.1,5.8,0,2.99911,-0.00143168,-6.54975e-11
0.1,5.9,0,2.999,-0.000940415,-6.4905e-11
0.1,6,0,2.99884,-0.000183864,-6.39925e-11
0.1,6.1,0,2.99884,-0.000183864,-6.39925e-11
0.1,6.2,0,2.99884,-0.000183864,-6.39925e-11
0.1,6.3,0,2.99884,-0.000183864,-6.39925e-11
0.1,6.4,0,2.99878,0.000393406,-7.30925e-11
0.1,6.5,0,2.99873,0.000944033,-8.17725e-11
0.1,6.6,0,2.99873,0.000944033,-8.17725e-11
0.1,6.7,0,2.99873,0.000944033,-8.17725e-11
0.1,6.8,0,2.99873,0.000944033,-8.17725e-11
0.1,6.9,0,2.99893,0.00179185,-7.08071e-11
0.1,7,0,2.99904,0.00228994,-6.4365e-11
0.1,7.1,0,2.99904,0.00228994,-6.4365e-11
0.1,7.2,0,2.99904,0.00228994,-6.4365e-11
0.1,7.3,0,2.99904,0.00228994,-6.4365e-11
0.1,7.4,0,2.99905,0.00320381,-5.70698e-11
0.1,7.5,0,2.99906,0.00351163,-5.46125e-11
0.1,7.6,0,2.99906,0.00351163,-5.46125e-11
0.1,7.7,0,2.99906,0.00351163,-5.46125e-11
0.1,7.8,0,2.99906,0.00351163,-5.46125e-11
0.1,7.9,0,2.99915,0.00458559,-4.66397e-11
0.1,8,0,2.99917,0.00475156,-4.54075e-11
0.1,8.1,0,2.99917,0.00475156,-4.54075e-11
0.1,8.2,0,2.99917,0.00475156,-4.54075e-11
0.1,8.3,0,2.99917,0.00475156,-4.54075e-11
0.1,8.4,0,2.99901,0.0058952,-3.6751e-11
0.1,8.5,0,2.99901,0.0059135,-3.66125e-11
0.1,8.6,0,2.99901,0.0059135,-3.66125e-11
0.1,8.7,0,2.99901,0.0059135,-3.66125e-11
0.1,8.8,0,2.99902,0.00599962,-3.68025e-11
0.1,8.9,0,2.99907,0.00700722,-3.9025e-11
0.1,9,0,2.99907,0.00700722,-3.9025e-11
0.1,9.1,0,2.99907,0.00700722,-3.9025e-11
0.1,9.2,0,2.99907,0.00700722,-3.9025e-11
0.1,9.3,0,2.99899,0.0071939,-3.85654e-11
0.1,9.4,0,2.99866,0.00795555,-3.669e-11
0.1,9.5,0,2.99866,0.00795555,-3.669e-11
0.1,9.6,0,2.99866,0.00795555,-3.669e-11
0.1,9.7,0,2.99866,0.00795555,-3.669e-11
0.1,9.8,0,2.99868,0.00790827,-3.32097e-11
0.1,9.9,0,2.99872,0.00780543,-2.564e-11
0.1,10,0,2.99872,0.00780543,-2.564e-11
0.1,10.1,0,2.99872,0.00780543,-2.564e-11
0.1,10.2,0,2.99872,0.00780543,-2.564e-11
0.1,10.3,0,2.99935,0.00870837,-1.40988e-11
0.1,10.4,0,3.00016,0.0098904,1.00963e-12
0.1,10.5,0,3.00016,0.0098904,1.00963e-12
0.1,10.6,0,3.00016,0.0098904,1.00963e-12
0.1,10.7,0,3.00016,0.0098904,1.00963e-12
0.1,10.8,0,2.99988,0.00973964,1.23578e-11
0.1,10.9,0,2.99964,0.00961689,2.15984e-11
0.1,11,0,2.99964,0.00961689,2.15984e-11
0.1,11.1,0,2.99964,0.00961689,2.15984e-11
0.1,11.2,0,2.99964,0.00961689,2.15984e-11
0.1,11.3,0,2.99901,0.00873127,1.95454e-11
0.1,11.4,0,2.9987,0.00829368,1.85309e-11
0.1,11.5,0,2.9987,0.00829368,1.85309e-11
0.1,11.6,0,2.9987,0.00829368,1.85309e-11
0.1,11.7,0,2.9987,0.00829368,1.85309e-11
0.1,11.8,0,2.9987,0.00829368,1.85309e-11
0.1,11.9,0,2.9987,0.00829368,1.85309e-11
0.1,12,0,2.9987,0.00829368,1.85309e-11
0.1,12.1,0,2.9987,0.00829368,1.85309e-11
0.1,12.2,0,2.9989,0.00812403,9.07626e-12
0.1,12.3,0,2.99812,0.0149951,1.21765e-11
0.1,12.4,0,2.99719,0.0228417,1.72193e-11
0.1,12.5,0,2.99627,0.0306884,2.2262e-11
0.1,12.6,0,2.99534,0.038535,2.73048e-11
0.1,12.7,0,2.99539,0.037062,2.48607e-11
0.2,0,0,2.99513,-0.0344942,-8.39826e-12
0.2,0.1,0,2.99498,-0.0364718,-1.65728e-12
0.2,0.2,0,2.99485,-0.0383024,5.00806e-12
0.2,0.3,0,2.99591,-0.0302338,6.58043e-12
0.2,0.4,0,2.99696,-0.0221653,8.1528e-12
0.2,0.5,0,2.9979,-0.0148237,9.43226e-12
0.2,0.6,0,2.99758,-0.0147539,7.78124e-12
0.2,0.7,0,2.9973,-0.0146942,6.36614e-12
0.2,0.8,0,2.9973,-0.0146942,6.36614e-12
0.2,0.9,0,2.9973,-0.0146942,6.36614e-12
0.2,1,0,2.99752,-0.014941,3.28561e-12
0.2,1.1,0,2.99859,-0.0161414,-1.16965e-11
0.2,1.2,0,2.99937,-0.0170199,-2.2662e-11
0.2,1.3,0,2.99937,-0.0170199,-2.2662e-11
0.2,1.4,0,2.99937,-0.0170199,-2.2662e-11
0.2,1.5,0,2.99958,-0.0173675,-1.87819e-11
0.2,1.6,0,3.00021,-0.0184109,-7.13417e-12
0.2,1.7,0,3.00059,-0.019045,-5.59557e-14
0.2,1.8,0,3.00059,-0.019045,-5.59557e-14
0.2,1.9,0,3.00059,-0.019045,-5.59557e-14
0.2,2,0,2.99994,-0.0181394,5.95018e-12
0.2,2.1,0,2.99855,-0.0161773,1.89635e-11
0.2,2.2,0,2.99787,-0.0152114,2.537e-11
0.2,2.3,0,2.99787,-0.0152114,2.537e-11
0.2,2.4,0,2.99787,-0.0152114,2.537e-11
0.2,2.5,0,2.99796,-0.0154314,2.49153e-11
0.2,2.6,0,2.99812,-0.0158127,2.41271e-11
0.2,2.7,0,2.99819,-0.0159564,2.383e-11
0.2,2.8,0,2.99819,-0.0159564,2.383e-11
0.2,2.9,0,2.99819,-0.0159564,2.383e-11
0.2,3,0,2.99848,-0.0154583,1.34534e-11
0.2,3.1,0,2.99889,-0.0147387,-1.53496e-12
0.2,3.2,0,2.999,-0.0145505,-5.455e-12
0.2,3.3,0,2.999,-0.0145505,-5.455e-12
0.2,3.4,0,2.999,-0.0145505,-5.455e-12
0.2,3.5,0,2.99863,-0.0135088,-1.13478e-11
0.2,3.6,0,2.99816,-0.0122192,-1.86437e-11
0.2,3.7,0,2.99809,-0.0120307,-1.971e-11
0.2,3.8,0,2.99809,-0.0120307,-1.971e-11
0.2,3.9,0,2.99809,-0.0120307,-1.971e-11
0.2,4,0,2.99821,-0.0111243,-2.86958e-11
0.2,4.1,0,2.99834,-0.0101422,-3.84305e-11
0.2,4.2,0,2.99834,-0.010112,-3.873e-11
0.2,4.3,0,2.99834,-0.010112,-3.873e-11
0.2,4.4,0,2.99834,-0.0100647,-3.91203e-11
0.2,4.5,0,2.99833,-0.00883378,-4.92669e-11
0.2,4.6,0,2.99832,-0.00770704,-5.8555e-11
0.2,4.7,0,2.99832,-0.00770704,-5.8555e-11
0.2,4.8,0,2.99832,-0.00770704,-5.8555e-11
0.2,4.9,0,2.9983,-0.00752509,-6.22818e-11
0.2,5,0,2.9982,-0.0063424,-8.65058e-11
0.2,5.1,0,2.99813,-0.00539624,-1.05885e-10
0.2,5.2,0,2.99813,-0.00539624,-1.05885e-10
0.2,5.3,0,2.99813,-0.00539624,-1.05885e-10
0.2,5.4,0,2.99814,-0.00504722,-1.09345e-10
0.2,5.5,0,2.99819,-0.00375087,-1.22197e-10
0.2,5.6,0,2.99823,-0.00286336,-1.30995e-10
0.2,5.7,0,2.99823,-0.00286336,-1.30995e-10
0.2,5.8,0,2.99823,-0.00286336,-1.30995e-10
0.2,5.9,0,2.99812,-0.0023721,-1.30402e-10
0.2,6,0,2.99783,-0.0010948,-1.28862e-10
0.2,6.1,0,2.99767,-0.000367728,-1.27985e-10
0.2,6.2,0,2.99767,-0.000367728,-1.27985e-10
0.2,6.3,0,2.99767,-0.000367728,-1.27985e-10
0.2,6.4,0,2.99762,0.000209542,-1.37085e-10
0.2,6.5,0,2.99751,0.00136408,-1.55285e-10
0.2,6.6,0,2.99747,0.00188807,-1.63545e-10
0.2,6.7,0,2.99747,0.00188807,-1.63545e-10
0.2,6.8,0,2.99747,0.00188807,-1.63545e-10
0.2,6.9,0,2.99766,0.00273588,-1.5258e-10
0.2,7,0,2.99798,0.00411359,-1.34761e-10
0.2,7.1,0,2.99808,0.00457989,-1.2873e-10
0.2,7.2,0,2.99808,0.00457989,-1.2873e-10
0.2,7.3,0,2.99808,0.00457989,-1.2873e-10
0.2,7.4,0,2.9981,0.00549375,-1.21435e-10
0.2,7.5,0,2.99811,0.0067443,-1.11452e-10
0.2,7.6,0,2.99812,0.00702326,-1.09225e-10
0.2,7.7,0,2.99812,0.00702326,-1.09225e-10
0.2,7.8,0,2.99812,0.00702326,-1.09225e-10
0.2,7.9,0,2.99821,0.00809722,-1.01252e-10
0.2,8,0,2.99832,0.00936644,-9.18297e-11
0.2,8.1,0,2.99834,0.00950312,-9.0815e-11
0.2,8.2,0,2.99834,0.00950312,-9.0815e-11
0.2,8.3,0,2.99834,0.00950312,-9.0815e-11
0.2,8.4,0,2.99818,0.0106468,-8.21585e-11
0.2,8.5,0,2.99802,0.011827,-7.3225e-11
0.2,8.6,0,2.99802,0.011827,-7.3225e-11
0.2,8.7,0,2.99802,0.011827,-7.3225e-11
0.2,8.8,0,2.99803,0.0119131,-7.3415e-11
0.2,8.9,0,2.99809,0.0130327,-7.58844e-11
0.2,9,0,2.99815,0.0140144,-7.805e-11
0.2,9.1,0,2.99815,0.0140144,-7.805e-11
0.2,9.2,0,2.99815,0.0140144,-7.805e-11
0.2,9.3,0,2.99807,0.0142011,-7.75904e-11
0.2,9.4,0,2.99764,0.0151719,-7.52002e-11
0.2,9.5,0,2.99731,0.0159111,-7.338e-11
0.2,9.6,0,2.99731,0.0159111,-7.338e-11
0.2,9.7,0,2.99731,0.0159111,-7.338e-11
0.2,9.8,0,2.99733,0.0158638,-6.98997e-11
0.2,9.9,0,2.9974,0.0157102,-5.85887e-11
0.2,10,0,2.99744,0.0156109,-5.128e-11
0.2,10.1,0,2.99744,0.0156109,-5.128e-11
0.2,10.2,0,2.99744,0.0156109,-5.128e-11
0.2,10.3,0,2.99807,0.0165138,-3.97388e-11
0.2,10.4,0,2.99954,0.018648,-1.24597e-11
0.2,10.5,0,3.00033,0.0197808,2.01927e-12
0.2,10.6,0,3.00033,0.0197808,2.01927e-12
0.2,10.7,0,3.00033,0.0197808,2.01927e-12
0.2,10.8,0,3.00004,0.01963,1.33674e-11
0.2,10.9,0,2.99951,0.0193501,3.44425e-11
0.2,11,0,2.99929,0.0192338,4.31967e-11
0.2,11.1,0,2.99929,0.0192338,4.31967e-11
0.2,11.2,0,2.99929,0.0192338,4.31967e-11
0.2,11.3,0,2.99865,0.0183482,4.11437e-11
0.2,11.4,0,2.99768,0.0169937,3.80039e-11
0.2,11.5,0,2.99739,0.0165874,3.70619e-11
0.2,11.6,0,2.99739,0.0165874,3.70619e-11
0.2,11.7,0,2.99739,0.0165874,3.70619e-11
0.2,11.8,0,2.99739,0.0165874,3.70619e-11
0.2,11.9,0,2.99739,0.0165874,3.70619e-11
0.2,12,0,2.99739,0.0165874,3.70619e-11
0.2,12.1,0,2.99759,0.0164222,2.78605e-11
0.2,12.2,0,2.99784,0.0162253,1.68863e-11
0.2,12.3,0,2.99706,0.023049,1.9892e-11
0.2,12.4,0,2.99613,0.0308956,2.49348e-11
0.2,12.5,0,2.99521,0.0387422,2.99776e-11
0.2,12.6,0,2.99523,0.0375194,2.77344e-11
0.2,12.7,0,2.9953,0.0357962,2.50892e-11
0.3,0,0,2.99528,-0.0320355,-8.75717e-12
0.3,0.1,0,2.99513,-0.0340131,-2.01619e-12
0.3,0.2,0,2.99498,-0.0359907,4.72479e-12
0.3,0.3,0,2.99486,-0.0377477,1.13523e-11
0.3,0.4,0,2.99591,-0.0296792,1.29247e-11
0.3,0.5,0,2.99686,-0.0222395,1.42436e-11
0.3,0.6,0,2.99654,-0.0221698,1.25926e-11
0.3,0.7,0,2.99622,-0.0221001,1.09416e-11
0.3,0.8,0,2.99595,-0.0220413,9.54921e-12
0.3,0.9,0,2.99595,-0.0220413,9.54921e-12
0.3,1,0,2.99616,-0.022273,6.65711e-12
0.3,1.1,0,2.99723,-0.0234734,-8.32497e-12
0.3,1.2,0,2.99829,-0.0246737,-2.33071e-11
0.3,1.3,0,2.99905,-0.0255299,-3.39929e-11
0.3,1.4,0,2.99905,-0.0255299,-3.39929e-11
0.3,1.5,0,2.99926,-0.0258707,-3.01888e-11
0.3,1.6,0,2.99989,-0.0269141,-1.85411e-11
0.3,1.7,0,3.00051,-0.0279575,-6.89336e-12
0.3,1.8,0,3.00088,-0.0285675,-8.39336e-14
0.3,1.9,0,3.00088,-0.0285675,-8.39336e-14
0.3,2,0,3.00024,-0.0276619,5.9222e-12
0.3,2.1,0,2.99884,-0.0256998,1.89355e-11
0.3,2.2,0,2.99745,-0.0237377,3.19488e-11
0.3,2.3,0,2.9968,-0.022817,3.8055e-11
0.3,2.4,0,2.9968,-0.022817,3.8055e-11
0.3,2.5,0,2.99689,-0.023037,3.76003e-11
0.3,2.6,0,2.99706,-0.0234184,3.68121e-11
0.3,2.7,0,2.99722,-0.0237997,3.60239e-11
0.3,2.8,0,2.99728,-0.0239346,3.5745e-11
0.3,2.9,0,2.99728,-0.0239346,3.5745e-11
0.3,3,0,2.99757,-0.0234365,2.53684e-11
0.3,3.1,0,2.99799,-0.0227169,1.038e-11
0.3,3.2,0,2.99841,-0.0219973,-4.60835e-12
0.3,3.3,0,2.99851,-0.0218257,-8.1825e-12
0.3,3.4,0,2.99851,-0.0218257,-8.1825e-12
0.3,3.5,0,2.99813,-0.0207841,-1.40753e-11
0.3,3.6,0,2.99766,-0.0194945,-2.13712e-11
0.3,3.7,0,2.9972,-0.0182048,-2.8667e-11
0.3,3.8,0,2.99714,-0.0180461,-2.9565e-11
0.3,3.9,0,2.99714,-0.0180461,-2.9565e-11
0.3,4,0,2.99726,-0.0171396,-3.85508e-11
0.3,4.1,0,2.99739,-0.0161576,-4.82855e-11
0.3,4.2,0,2.99752,-0.0151756,-5.80201e-11
0.3,4.3,0,2.99752,-0.015168,-5.8095e-11
0.3,4.4,0,2.99752,-0.0151207,-5.84853e-11
0.3,4.5,0,2.9975,-0.0138898,-6.86319e-11
0.3,4.6,0,2.99749,-0.0126589,-7.87786e-11
0.3,4.7,0,2.99747,-0.0115606,-8.78325e-11
0.3,4.8,0,2.99747,-0.0115606,-8.78325e-11
0.3,4.9,0,2.99746,-0.0113786,-9.15593e-11
0.3,5,0,2.99736,-0.0101959,-1.15783e-10
0.3,5.1,0,2.99726,-0.00901322,-1.40007e-10
0.3,5.2,0,2.99719,-0.00809436,-1.58827e-10
0.3,5.3,0,2.99719,-0.00809436,-1.58827e-10
0.3,5.4,0,2.9972,-0.00774534,-1.62288e-10
0.3,5.5,0,2.99725,-0.00644899,-1.75139e-10
0.3,5.6,0,2.9973,-0.00515263,-1.87991e-10
0.3,5.7,0,2.99734,-0.00429505,-1.96492e-10
0.3,5.8,0,2.99734,-0.00429505,-1.96492e-10
0.3,5.9,0,2.99723,-0.00380378,-1.959e-10
0.3,6,0,2.99694,-0.00252648,-1.94359e-10
0.3,6.1,0,2.99666,-0.00124919,-1.92819e-10
0.3,6.2,0,2.99651,-0.000551592,-1.91978e-10
0.3,6.3,0,2.99651,-0.000551592,-1.91978e-10
0.3,6.4,0,2.99645,2.56786e-05,-2.01078e-10
0.3,6.5,0,2.99635,0.00118022,-2.19278e-10
0.3,6.6,0,2.99625,0.00233476,-2.37478e-10
0.3,6.7,0,2.9962,0.0028321,-2.45318e-10
0.3,6.8,0,2.9962,0.0028321,-2.45318e-10
0.3,6.9,0,2.99639,0.00367992,-2.34352e-10
0.3,7,0,2.99671,0.00505762,-2.16533e-10
0.3,7.1,0,2.99703,0.00643532,-1.98715e-10
0.3,7.2,0,2.99712,0.00686983,-1.93095e-10
0.3,7.3,0,2.99712,0.00686983,-1.93095e-10
0.3,7.4,0,2.99714,0.00778369,-1.858e-10
0.3,7.5,0,2.99716,0.00903424,-1.75817e-10
0.3,7.6,0,2.99717,0.0102848,-1.65834e-10
0.3,7.7,0,2.99718,0.0105349,-1.63837e-10
0.3,7.8,0,2.99718,0.0105349,-1.63837e-10
0.3,7.9,0,2.99727,0.0116089,-1.55865e-10
0.3,8,0,2.99738,0.0128781,-1.46442e-10
0.3,8.1,0,2.9975,0.0141473,-1.3702e-10
0.3,8.2,0,2.99751,0.0142547,-1.36222e-10
0.3,8.3,0,2.99751,0.0142547,-1.36222e-10
0.3,8.4,0,2.99735,0.0153983,-1.27566e-10
0.3,8.5,0,2.99719,0.0165877,-1.18563e-10
0.3,8.6,0,2.99703,0.0177405,-1.09837e-10
0.3,8.7,0,2.99703,0.0177405,-1.09837e-10
0.3,8.8,0,2.99704,0.0178266,-1.10027e-10
0.3,8.9,0,2.9971,0.0189462,-1.12497e-10
0.3,9,0,2.99717,0.0200657,-1.14966e-10
0.3,9.1,0,2.99722,0.0210217,-1.17075e-10
0.3,9.2,0,2.99722,0.0210217,-1.17075e-10
0.3,9.3,0,2.99714,0.0212083,-1.16615e-10
0.3,9.4,0,2.99671,0.0221791,-1.14225e-10
0.3,9.5,0,2.99628,0.0231498,-1.11835e-10
0.3,9.6,0,2.99597,0.0238667,-1.1007e-10
0.3,9.7,0,2.99597,0.0238667,-1.1007e-10
0.3,9.8,0,2.99599,0.0238194,-1.0659e-10
0.3,9.9,0,2.99606,0.0236657,-9.52787e-11
0.3,10,0,2.99612,0.023512,-8.39676e-11
0.3,10.1,0,2.99616,0.0234163,-7.692e-11
0.3,10.2,0,2.99616,0.0234163,-7.692e-11
0.3,10.3,0,2.99679,0.0243192,-6.53788e-11
0.3,10.4,0,2.99827,0.0264535,-3.80997e-11
0.3,10.5,0,2.99974,0.0285877,-1.08205e-11
0.3,10.6,0,3.00049,0.0296712,3.0289e-12
0.3,10.7,0,3.00049,0.0296712,3.0289e-12
0.3,10.8,0,3.00021,0.0295204,1.4377e-11
0.3,10.9,0,2.99967,0.0292405,3.54521e-11
0.3,11,0,2.99914,0.0289605,5.65272e-11
0.3,11.1,0,2.99893,0.0288507,6.47951e-11
0.3,11.2,0,2.99893,0.0288507,6.47951e-11
0.3,11.3,0,2.9983,0.027965,6.27421e-11
0.3,11.4,0,2.99733,0.0266106,5.96022e-11
0.3,11.5,0,2.99636,0.0252561,5.64623e-11
0.3,11.6,0,2.99609,0.024881,5.55928e-11
0.3,11.7,0,2.99609,0.024881,5.55928e-11
0.3,11.8,0,2.99609,0.024881,5.55928e-11
0.3,11.9,0,2.99609,0.024881,5.55928e-11
0.3,12,0,2.99628,0.0247205,4.66447e-11
0.3,12.1,0,2.99653,0.0245236,3.56705e-11
0.3,12.2,0,2.99677,0.0243266,2.46963e-11
0.3,12.3,0,2.996,0.0311028,2.76075e-11
0.3,12.4,0,2.99507,0.0389495,3.26503e-11
0.3,12.5,0,2.99506,0.0379769,3.06082e-11
0.3,12.6,0,2.99514,0.0362536,2.7963e-11
0.3,12.7,0,2.99521,0.0345304,2.53178e-11
0.4,0,0,2.99543,-0.0295768,-9.11609e-12
0.4,0.1,0,2.99528,-0.0315544,-2.3751e-12
0.4,0.2,0,2.99513,-0.033532,4.36588e-12
0.4,0.3,0,2.99498,-0.0355096,1.11069e-11
0.4,0.4,0,2.99486,-0.0371931,1.76966e-11
0.4,0.5,0,2.99583,-0.0296554,1.9055e-11
0.4,0.6,0,2.99551,-0.0295857,1.7404e-11
0.4,0.7,0,2.99519,-0.0295159,1.5753e-11
0.4,0.8,0,2.99487,-0.0294462,1.4102e-11
0.4,0.9,0,2.99461,-0.0293883,1.27323e-11
0.4,1,0,2.9948,-0.029605,1.00286e-11
0.4,1.1,0,2.99587,-0.0308053,-4.95347e-12
0.4,1.2,0,2.99693,-0.0320057,-1.99355e-11
0.4,1.3,0,2.998,-0.0332061,-3.49176e-11
0.4,1.4,0,2.99874,-0.0340399,-4.53239e-11
0.4,1.5,0,2.99894,-0.0343739,-4.15956e-11
0.4,1.6,0,2.99957,-0.0354173,-2.99479e-11
0.4,1.7,0,3.00019,-0.0364607,-1.83002e-11
0.4,1.8,0,3.00082,-0.0375041,-6.65254e-12
0.4,1.9,0,3.00117,-0.03809,-1.11911e-13
0.4,2,0,3.00053,-0.0371844,5.89422e-12
0.4,2.1,0,2.99914,-0.0352223,1.89075e-11
0.4,2.2,0,2.99775,-0.0332602,3.19208e-11
0.4,2.3,0,2.99635,-0.0312981,4.49341e-11
0.4,2.4,0,2.99573,-0.0304227,5.074e-11
0.4,2.5,0,2.99583,-0.0306427,5.02853e-11
0.4,2.6,0,2.99599,-0.031024,4.94971e-11
0.4,2.7,0,2.99615,-0.0314054,4.87089e-11
0.4,2.8,0,2.99632,-0.0317867,4.79207e-11
0.4,2.9,0,2.99637,-0.0319129,4.766e-11
0.4,3,0,2.99666,-0.0314147,3.72834e-11
0.4,3.1,0,2.99708,-0.0306951,2.2295e-11
0.4,3.2,0,2.9975,-0.0299755,7.30665e-12
0.4,3.3,0,2.99792,-0.0292559,-7.68173e-12
0.4,3.4,0,2.99801,-0.029101,-1.091e-11
0.4,3.5,0,2.99763,-0.0280593,-1.68028e-11
0.4,3.6,0,2.99717,-0.0267697,-2.40987e-11
0.4,3.7,0,2.9967,-0.0254801,-3.13945e-11
0.4,3.8,0,2.99623,-0.0241904,-3.86904e-11
0.4,3.9,0,2.99619,-0.0240615,-3.942e-11
0.4,4,0,2.99631,-0.023155,-4.84058e-11
0.4,4.1,0,2.99644,-0.022173,-5.81405e-11
0.4,4.2,0,2.99656,-0.0211909,-6.78751e-11
0.4,4.3,0,2.99669,-0.020224,-7.746e-11
0.4,4.4,0,2.99669,-0.0201767,-7.78503e-11
0.4,4.5,0,2.99667,-0.0189458,-8.79969e-11
0.4,4.6,0,2.99666,-0.0177149,-9.81436e-11
0.4,4.7,0,2.99664,-0.016484,-1.0829e-10
0.4,4.8,0,2.99663,-0.0154141,-1.1711e-10
0.4,4.9,0,2.99662,-0.0152321,-1.20837e-10
0.4,5,0,2.99652,-0.0140494,-1.45061e-10
0.4,5.1,0,2.99642,-0.0128667,-1.69285e-10
0.4,5.2,0,2.99632,-0.0116841,-1.93509e-10
0.4,5.3,0,2.99625,-0.0107925,-2.1177e-10
0.4,5.4,0,2.99626,-0.0104435,-2.1523e-10
0.4,5.5,0,2.99632,-0.00914711,-2.28082e-10
0.4,5.6,0,2.99637,-0.00785075,-2.40933e-10
0.4,5.7,0,2.99642,-0.0065544,-2.53785e-10
0.4,5.8,0,2.99645,-0.00572673,-2.6199e-10
0.4,5.9,0,2.99634,-0.00523546,-2.61397e-10
0.4,6,0,2.99606,-0.00395817,-2.59857e-10
0.4,6.1,0,2.99577,-0.00268087,-2.58316e-10
0.4,6.2,0,2.99549,-0.00140358,-2.56776e-10
0.4,6.3,0,2.99534,-0.000735456,-2.5597e-10
0.4,6.4,0,2.99529,-0.000158185,-2.6507e-10
0.4,6.5,0,2.99519,0.000996355,-2.8327e-10
0.4,6.6,0,2.99508,0.0021509,-3.0147e-10
0.4,6.7,0,2.99498,0.00330544,-3.1967e-10
0.4,6.8,0,2.99493,0.00377613,-3.2709e-10
0.4,6.9,0,2.99513,0.00462395,-3.16125e-10
0.4,7,0,2.99544,0.00600165,-2.98306e-10
0.4,7.1,0,2.99576,0.00737936,-2.80487e-10
0.4,7.2,0,2.99607,0.00875706,-2.62669e-10
0.4,7.3,0,2.99617,0.00915977,-2.5746e-10
0.4,7.4,0,2.99618,0.0100736,-2.50165e-10
0.4,7.5,0,2.9962,0.0113242,-2.40182e-10
0.4,7.6,0,2.99621,0.0125747,-2.30199e-10
0.4,7.7,0,2.99623,0.0138253,-2.20216e-10
0.4,7.8,0,2.99624,0.0140465,-2.1845e-10
0.4,7.9,0,2.99633,0.0151205,-2.10477e-10
0.4,8,0,2.99644,0.0163897,-2.01055e-10
0.4,8.1,0,2.99656,0.0176589,-1.91632e-10
0.4,8.2,0,2.99667,0.0189281,-1.8221e-10
0.4,8.3,0,2.99667,0.0190062,-1.8163e-10
0.4,8.4,0,2.99652,0.0201499,-1.72974e-10
0.4,8.5,0,2.99636,0.0213393,-1.63971e-10
0.4,8.6,0,2.99619,0.0225287,-1.54968e-10
0.4,8.7,0,2.99604,0.023654,-1.4645e-10
0.4,8.8,0,2.99605,0.0237401,-1.4664e-10
0.4,8.9,0,2.99611,0.0248597,-1.49109e-10
0.4,9,0,2.99618,0.0259792,-1.51579e-10
0.4,9.1,0,2.99624,0.0270988,-1.54048e-10
0.4,9.2,0,2.9963,0.0280289,-1.561e-10
0.4,9.3,0,2.99621,0.0282156,-1.5564e-10
0.4,9.4,0,2.99579,0.0291863,-1.5325e-10
0.4,9.5,0,2.99536,0.030157,-1.5086e-10
0.4,9.6,0,2.99493,0.0311278,-1.4847e-10
0.4,9.7,0,2.99462,0.0318222,-1.4676e-10
0.4,9.8,0,2.99464,0.0317749,-1.4328e-10
0.4,9.9,0,2.99471,0.0316213,-1.31969e-10
0.4,10,0,2.99478,0.0314676,-1.20658e-10
0.4,10.1,0,2.99484,0.0313139,-1.09347e-10
0.4,10.2,0,2.99488,0.0312217,-1.0256e-10
0.4,10.3,0,2.99551,0.0321247,-9.10188e-11
0.4,10.4,0,2.99699,0.0342589,-6.37397e-11
0.4,10.5,0,2.99846,0.0363931,-3.64605e-11
0.4,10.6,0,2.99994,0.0385273,-9.18136e-12
0.4,10.7,0,3.00066,0.0395616,4.03854e-12
0.4,10.8,0,3.00037,0.0394108,1.53867e-11
0.4,10.9,0,2.99984,0.0391309,3.64617e-11
0.4,11,0,2.9993,0.0388509,5.75368e-11
0.4,11.1,0,2.99877,0.0385709,7.86119e-11
0.4,11.2,0,2.99857,0.0384675,8.63935e-11
0.4,11.3,0,2.99794,0.0375819,8.43405e-11
0.4,11.4,0,2.99697,0.0362275,8.12006e-11
0.4,11.5,0,2.996,0.034873,7.80607e-11
0.4,11.6,0,2.99503,0.0335185,7.49208e-11
0.4,11.7,0,2.99478,0.0331747,7.41238e-11
0.4,11.8,0,2.99478,0.0331747,7.41238e-11
0.4,11.9,0,2.99497,0.0330187,6.54288e-11
0.4,12,0,2.99522,0.0328218,5.44547e-11
0.4,12.1,0,2.99546,0.0326249,4.34805e-11
0.4,12.2,0,2.9957,0.032428,3.25063e-11
0.4,12.3,0,2.99493,0.0391567,3.53231e-11
0.4,12.4,0,2.9949,0.0384343,3.3482e-11
0.4,12.5,0,2.99498,0.0367111,3.08368e-11
0.4,12.6,0,2.99505,0.0349878,2.81916e-11
0.4,12.7,0,2.99512,0.0332646,2.55464e-11
0.5,0,0,2.99558,-0.0271181,-9.475e-12
0.5,0.1,0,2.99545,-0.0291141,-2.798e-12
0.5,0.2,0,2.99531,-0.0311101,3.87899e-12
0.5,0.3,0,2.99517,-0.0331061,1.0556e-11
0.5,0.4,0,2.99503,-0.0351021,1.7233e-11
0.5,0.5,0,2.99487,-0.0370204,2.42693e-11
0.5,0.6,0,2.99452,-0.0369712,2.24551e-11
0.5,0.7,0,2.99417,-0.0369221,2.0641e-11
0.5,0.8,0,2.99384,-0.0368621,1.89133e-11
0.5,0.9,0,2.99352,-0.0367923,1.72623e-11
0.5,1,0,2.99344,-0.0369369,1.34001e-11
0.5,1.1,0,2.9945,-0.0381373,-1.58196e-12
0.5,1.2,0,2.99557,-0.0393377,-1.6564e-11
0.5,1.3,0,2.99664,-0.0405381,-3.15461e-11
0.5,1.4,0,2.9977,-0.0417385,-4.65282e-11
0.5,1.5,0,2.99862,-0.042877,-5.30025e-11
0.5,1.6,0,2.99925,-0.0439204,-4.13548e-11
0.5,1.7,0,2.99987,-0.0449638,-2.97071e-11
0.5,1.8,0,3.0005,-0.0460072,-1.80594e-11
0.5,1.9,0,3.00113,-0.0470506,-6.41173e-12
0.5,2,0,3.00082,-0.0467069,5.86624e-12
0.5,2.1,0,2.99943,-0.0447448,1.88795e-11
0.5,2.2,0,2.99804,-0.0427827,3.18928e-11
0.5,2.3,0,2.99665,-0.0408206,4.49061e-11
0.5,2.4,0,2.99525,-0.0388585,5.79194e-11
0.5,2.5,0,2.99476,-0.0382484,6.29703e-11
0.5,2.6,0,2.99492,-0.0386297,6.21821e-11
0.5,2.7,0,2.99509,-0.0390111,6.13939e-11
0.5,2.8,0,2.99525,-0.0393924,6.06057e-11
0.5,2.9,0,2.99542,-0.0397737,5.98175e-11
0.5,3,0,2.99576,-0.0393929,4.91984e-11
0.5,3.1,0,2.99617,-0.0386733,3.421e-11
0.5,3.2,0,2.99659,-0.0379537,1.92217e-11
0.5,3.3,0,2.99701,-0.0372341,4.23327e-12
0.5,3.4,0,2.99743,-0.0365146,-1.07551e-11
0.5,3.5,0,2.99713,-0.0353346,-1.95303e-11
0.5,3.6,0,2.99667,-0.0340449,-2.68262e-11
0.5,3.7,0,2.9962,-0.0327553,-3.4122e-11
0.5,3.8,0,2.99574,-0.0314657,-4.14179e-11
0.5,3.9,0,2.99527,-0.030176,-4.87138e-11
0.5,4,0,2.99535,-0.0291703,-5.82608e-11
0.5,4.1,0,2.99548,-0.0281883,-6.79955e-11
0.5,4.2,0,2.99561,-0.0272063,-7.77301e-11
0.5,4.3,0,2.99574,-0.0262243,-8.74648e-11
0.5,4.4,0,2.99586,-0.0252327,-9.72153e-11
0.5,4.5,0,2.99585,-0.0240018,-1.07362e-10
0.5,4.6,0,2.99583,-0.0227709,-1.17509e-10
0.5,4.7,0,2.99582,-0.02154,-1.27655e-10
0.5,4.8,0,2.9958,-0.0203091,-1.37802e-10
0.5,4.9,0,2.99577,-0.0190857,-1.50114e-10
0.5,5,0,2.99568,-0.017903,-1.74338e-10
0.5,5.1,0,2.99558,-0.0167203,-1.98562e-10
0.5,5.2,0,2.99548,-0.0155376,-2.22786e-10
0.5,5.3,0,2.99538,-0.0143549,-2.4701e-10
0.5,5.4,0,2.99533,-0.0131416,-2.68173e-10
0.5,5.5,0,2.99538,-0.0118452,-2.81024e-10
0.5,5.6,0,2.99543,-0.0105489,-2.93876e-10
0.5,5.7,0,2.99548,-0.00925252,-3.06727e-10
0.5,5.8,0,2.99553,-0.00795617,-3.19579e-10
0.5,5.9,0,2.99545,-0.00666714,-3.26895e-10
0.5,6,0,2.99517,-0.00538985,-3.25354e-10
0.5,6.1,0,2.99489,-0.00411255,-3.23814e-10
0.5,6.2,0,2.9946,-0.00283526,-3.22273e-10
0.5,6.3,0,2.99432,-0.00155797,-3.20733e-10
0.5,6.4,0,2.99413,-0.000342049,-3.29063e-10
0.5,6.5,0,2.99402,0.000812491,-3.47263e-10
0.5,6.6,0,2.99392,0.00196703,-3.65463e-10
0.5,6.7,0,2.99381,0.00312157,-3.83663e-10
0.5,6.8,0,2.99371,0.00427611,-4.01863e-10
0.5,6.9,0,2.99386,0.00556798,-3.97897e-10
0.5,7,0,2.99418,0.00694569,-3.80078e-10
0.5,7.1,0,2.99449,0.00832339,-3.6226e-10
0.5,7.2,0,2.99481,0.00970109,-3.44441e-10
0.5,7.3,0,2.99512,0.0110788,-3.26622e-10
0.5,7.4,0,2.99522,0.0123636,-3.1453e-10
0.5,7.5,0,2.99524,0.0136141,-3.04547e-10
0.5,7.6,0,2.99526,0.0148647,-2.94564e-10
0.5,7.7,0,2.99527,0.0161152,-2.84581e-10
0.5,7.8,0,2.99529,0.0173658,-2.74598e-10
0.5,7.9,0,2.99539,0.0186321,-2.6509e-10
0.5,8,0,2.9955,0.0199013,-2.55667e-10
0.5,8.1,0,2.99561,0.0211705,-2.46245e-10
0.5,8.2,0,2.99573,0.0224398,-2.36822e-10
0.5,8.3,0,2.99584,0.023709,-2.274e-10
0.5,8.4,0,2.99569,0.0249014,-2.18381e-10
0.5,8.5,0,2.99552,0.0260908,-2.09378e-10
0.5,8.6,0,2.99536,0.0272802,-2.00375e-10
0.5,8.7,0,2.9952,0.0284696,-1.91373e-10
0.5,8.8,0,2.99506,0.0296536,-1.83252e-10
0.5,8.9,0,2.99512,0.0307732,-1.85722e-10
0.5,9,0,2.99519,0.0318927,-1.88191e-10
0.5,9.1,0,2.99525,0.0330123,-1.90661e-10
0.5,9.2,0,2.99532,0.0341319,-1.9313e-10
0.5,9.3,0,2.99529,0.0352228,-1.94665e-10
0.5,9.4,0,2.99486,0.0361935,-1.92275e-10
0.5,9.5,0,2.99443,0.0371643,-1.89885e-10
0.5,9.6,0,2.994,0.038135,-1.87495e-10
0.5,9.7,0,2.99358,0.0391057,-1.85105e-10
0.5,9.8,0,2.9933,0.0397305,-1.7997e-10
0.5,9.9,0,2.99337,0.0395768,-1.68659e-10
0.5,10,0,2.99343,0.0394232,-1.57348e-10
0.5,10.1,0,2.9935,0.0392695,-1.46037e-10
0.5,10.2,0,2.99357,0.0391158,-1.34726e-10
0.5,10.3,0,2.99423,0.0399301,-1.16659e-10
0.5,10.4,0,2.99571,0.0420643,-8.93797e-11
0.5,10.5,0,2.99719,0.0441985,-6.21005e-11
0.5,10.6,0,2.99866,0.0463327,-3.48214e-11
0.5,10.7,0,3.00014,0.048467,-7.54221e-12