/*--------------------------------*- C++ -*----------------------------------*\
| =========                 |                                                 |
| \\      /  F ield         | OpenFOAM: The Open Source CFD Toolbox           |
|  \\    /   O peration     | Version:  v1806                                 |
|   \\  /    A nd           | Web:      www.OpenFOAM.com                      |
|    \\/     M anipulation  |                                                 |
\*---------------------------------------------------------------------------*/
FoamFile
{
    version     2.0;
    format      ascii;
    class       volScalarField;
    location    "1";
    object      p;
}
// * * * * * * * * * * * * * * * * * * * * * * * * * * * * * * * * * * * * * //

dimensions      [0 2 -2 0 0 0 0];


internalField   nonuniform List<scalar> 
4400
(
1.04332
3.3538
2.94682
2.85231
2.83107
2.79847
2.75745
2.70658
2.64137
2.55625
2.4551
2.32621
2.19088
2.00715
1.822
1.5846
1.30496
1.01157
0.641884
0.231826
3.93961
3.432
3.16855
3.03727
2.98058
2.92325
2.85459
2.77931
2.69653
2.59941
2.49154
2.35456
2.22041
2.02813
1.84363
1.60509
1.31626
1.0263
0.654727
0.236409
3.99322
3.81171
3.55094
3.32901
3.16996
3.0489
2.94411
2.84535
2.74501
2.63579
2.51955
2.37507
2.24061
2.04033
1.85452
1.61746
1.3192
1.03472
0.664943
0.239809
4.51541
3.985
3.67133
3.4378
3.26718
3.13274
3.01254
2.89859
2.78296
2.66351
2.53629
2.38698
2.24771
2.04244
1.85232
1.61935
1.31402
1.03651
0.671932
0.241806
4.36091
4.06909
3.79644
3.56727
3.37759
3.21624
3.07217
2.94081
2.80856
2.68113
2.53832
2.38998
2.23573
2.03254
1.83534
1.60751
1.30168
1.03172
0.674577
0.242152
4.43009
4.11356
3.84643
3.61595
3.42
3.2524
3.10003
2.96077
2.81537
2.68554
2.522
2.38439
2.19788
2.00868
1.80205
1.57656
1.28457
1.02137
0.671108
0.240131
4.2869
4.06443
3.84307
3.63738
3.44818
3.27601
3.11377
2.96574
2.80594
2.67737
2.48497
2.37319
2.13487
1.97306
1.75385
1.52002
1.26552
1.00694
0.658528
0.234664
4.22773
4.02679
3.82498
3.6276
3.44116
3.26818
3.10253
2.9506
2.78001
2.65706
2.42875
2.36295
2.04806
1.9426
1.70297
1.44138
1.24867
0.988623
0.633244
0.225248
4.08848
3.92928
3.75842
3.58605
3.41421
3.24564
3.07919
2.9226
2.74469
2.62532
2.36405
2.34394
1.94793
1.9357
1.65406
1.35906
1.24373
0.962507
0.593849
0.214734
3.98313
3.84367
3.68932
3.52654
3.36151
3.19651
3.03239
2.87183
2.69514
2.57095
2.29964
2.29202
1.8616
1.9148
1.59389
1.30123
1.24056
0.915081
0.545423
0.208142
3.84376
3.72131
3.58481
3.43931
3.28711
3.12978
2.97021
2.80646
2.63732
2.4961
2.24396
2.20339
1.80959
1.84162
1.52071
1.26996
1.19797
0.843386
0.503038
0.20496
3.7345
3.62479
3.50082
3.36537
3.22136
3.07067
2.91528
2.7524
2.59123
2.43004
2.21364
2.11301
1.80049
1.74698
1.46154
1.24798
1.10178
0.779996
0.481916
0.195838
3.64
3.54699
3.43728
3.31405
3.17954
3.03599
2.88465
2.72633
2.5672
2.39511
2.20997
2.05588
1.81794
1.6758
1.44163
1.22368
1.01166
0.748795
0.466641
0.176865
3.56453
3.48051
3.37696
3.25885
3.12948
2.99066
2.84314
2.68924
2.529
2.35785
2.18527
2.00695
1.8073
1.62281
1.41133
1.18207
0.955278
0.715024
0.437768
0.151792
3.47467
3.39108
3.29193
3.17935
3.05539
2.92118
2.77768
2.62648
2.46641
2.2991
2.12617
1.94488
1.75169
1.56076
1.34914
1.1281
0.899987
0.654546
0.396519
0.134922
3.40484
3.32479
3.23204
3.12564
3.00658
2.87629
2.73605
2.58662
2.4283
2.26267
2.08931
1.90691
1.71587
1.52064
1.31063
1.09365
0.864765
0.621572
0.375327
0.125415
3.36994
3.29861
3.21123
3.10926
2.99372
2.86637
2.72854
2.58087
2.4242
2.25948
2.08663
1.90289
1.716
1.5149
1.30986
1.09153
0.863629
0.628673
0.382125
0.128883
3.33784
3.26841
3.18183
3.08129
2.96783
2.84258
2.70655
2.56045
2.40509
2.24113
2.06811
1.88593
1.6984
1.49747
1.29421
1.0749
0.851728
0.620851
0.378364
0.130586
3.30412
3.23451
3.14972
3.05099
2.93939
2.81574
2.68098
2.53592
2.38134
2.2176
2.04456
1.86384
1.67424
1.47554
1.26991
1.05334
0.831103
0.60053
0.364151
0.1217
3.29102
3.22265
3.13946
3.04194
2.93123
2.80834
2.67419
2.52964
2.37537
2.21171
2.03909
1.85826
1.66836
1.47036
1.2635
1.04849
0.82532
0.596114
0.360335
0.120173
5.7111
6.00173
6.21822
6.37746
6.48615
6.55445
6.58857
6.59197
6.56724
6.5145
6.43303
6.32102
6.17426
5.98816
5.75252
5.46232
5.09726
4.65083
4.0973
3.43862
6.01401
6.1037
6.17774
6.23275
6.27162
6.29434
6.30097
6.29167
6.26646
6.22523
6.1678
6.09403
6.00392
5.89772
5.77497
5.6363
5.47789
5.30668
5.10253
4.90578
5.64385
5.70589
5.7597
5.80353
5.83557
5.85497
5.86111
5.85352
5.83193
5.79605
5.74556
5.68009
5.59929
5.50279
5.39047
5.26178
5.1178
4.95732
4.78508
4.60119
5.45994
5.49125
5.51681
5.53582
5.54783
5.55237
5.54919
5.5381
5.519
5.49186
5.45678
5.41394
5.36361
5.30614
5.24193
5.17156
5.09535
5.01431
4.92849
4.84
5.18517
5.20487
5.2204
5.23125
5.23697
5.23727
5.23166
5.22001
5.20213
5.17792
5.14732
5.11033
5.06705
5.01761
4.96228
4.90137
4.83542
4.7649
4.69101
4.61407
4.99284
5.00368
5.01126
5.01543
5.01605
5.01299
5.00617
4.99552
4.98106
4.96281
4.94083
4.91521
4.88609
4.85364
4.81803
4.77949
4.73823
4.69455
4.64861
4.60091
4.77037
4.77717
4.78144
4.78305
4.78189
4.77787
4.77089
4.76092
4.7479
4.73183
4.71273
4.69065
4.66565
4.63784
4.60735
4.57436
4.53909
4.50176
4.46275
4.42217
4.59086
4.59501
4.59717
4.59731
4.59539
4.59141
4.58534
4.57719
4.56698
4.55472
4.54046
4.52424
4.50611
4.48614
4.46441
4.44099
4.41596
4.38943
4.36146
4.33222
4.39682
4.39945
4.40048
4.39989
4.39765
4.39373
4.38812
4.38082
4.37182
4.36115
4.34881
4.33485
4.3193
4.30222
4.28367
4.26373
4.24249
4.22006
4.19655
4.17203
4.2284
4.23036
4.23103
4.2304
4.22846
4.22522
4.22068
4.21484
4.20773
4.19935
4.18973
4.17888
4.16684
4.15364
4.1393
4.12386
4.10737
4.08985
4.07136
4.05194
4.06233
4.06372
4.06401
4.0632
4.06127
4.05823
4.05408
4.04881
4.04243
4.03496
4.0264
4.01678
4.0061
3.99439
3.98169
3.96801
3.9534
3.93789
3.92152
3.90428
3.92122
3.92255
3.92295
3.9224
3.92091
3.91848
3.91511
3.91081
3.90557
3.8994
3.89231
3.88431
3.8754
3.86558
3.85487
3.84327
3.8308
3.81745
3.8032
3.78803
3.79601
3.79722
3.79761
3.79718
3.79594
3.79389
3.79102
3.78735
3.78287
3.7776
3.77155
3.76472
3.75712
3.74877
3.73968
3.72986
3.71934
3.7081
3.69614
3.68359
3.69512
3.69639
3.69691
3.6967
3.69576
3.6941
3.69171
3.6886
3.68479
3.68029
3.6751
3.66925
3.66274
3.65559
3.64783
3.63948
3.63055
3.62107
3.61111
3.60078
3.60774
3.60894
3.60944
3.60923
3.60832
3.60671
3.6044
3.6014
3.5977
3.59331
3.58824
3.58249
3.57607
3.569
3.56128
3.55292
3.54394
3.53438
3.52429
3.51355
3.53404
3.5353
3.53591
3.53587
3.53516
3.53381
3.53179
3.52912
3.52579
3.5218
3.51715
3.51182
3.50583
3.49915
3.49179
3.48374
3.475
3.46556
3.45534
3.44427
3.47789
3.47919
3.47989
3.47998
3.47948
3.47838
3.47669
3.47441
3.47154
3.46808
3.46404
3.45943
3.45423
3.44846
3.44212
3.43521
3.42773
3.41964
3.41093
3.40172
3.43792
3.43924
3.43996
3.4401
3.43966
3.43863
3.43702
3.43483
3.43208
3.42877
3.42489
3.42048
3.41552
3.41004
3.40404
3.39755
3.39056
3.3831
3.37522
3.36699
3.40765
3.40897
3.40971
3.40988
3.40946
3.40846
3.40689
3.40474
3.40201
3.39872
3.39485
3.39042
3.38543
3.37988
3.37378
3.36714
3.35997
3.3523
3.34414
3.33545
3.39275
3.3941
3.39488
3.39509
3.39474
3.39383
3.39235
3.39032
3.38772
3.38456
3.38085
3.37658
3.37175
3.36636
3.36042
3.35391
3.34685
3.33922
3.33101
3.3222
4.22554
4.29819
4.3715
4.44531
4.51953
4.59401
4.66851
4.7426
4.81551
4.88605
4.95276
5.01429
5.06963
5.1178
5.1569
5.18371
5.19605
5.19981
5.23326
5.39193
4.30601
4.36535
4.42556
4.48648
4.548
4.61005
4.67264
4.73584
4.79997
4.86571
4.93423
5.00721
5.08652
5.1739
5.27088
5.37878
5.49813
5.62848
5.76651
5.90119
4.41387
4.47187
4.53008
4.58843
4.64685
4.7053
4.76381
4.82246
4.88138
4.94079
5.00085
5.06173
5.12351
5.18614
5.24937
5.31286
5.37685
5.44206
5.50903
5.57713
4.42507
4.47592
4.52727
4.57909
4.6314
4.68426
4.73776
4.79199
4.84702
4.90285
4.95934
5.01621
5.07305
5.12937
5.18458
5.23811
5.28938
5.33779
5.38271
5.42358
4.41539
4.46018
4.50484
4.54929
4.59349
4.6374
4.68096
4.72411
4.76677
4.80881
4.8501
4.8905
4.92989
4.96814
5.00509
5.04055
5.07426
5.10593
5.13524
5.1618
4.36463
4.40392
4.44309
4.48211
4.5209
4.55938
4.59745
4.63501
4.6719
4.70797
4.74301
4.77684
4.80925
4.84002
4.86893
4.89578
4.92037
4.94253
4.9621
4.97893
4.28984
4.32332
4.35627
4.38861
4.42028
4.4512
4.48131
4.51052
4.53877
4.56599
4.5921
4.61702
4.64068
4.66298
4.68379
4.70301
4.72049
4.73609
4.7497
4.76117
4.19291
4.22199
4.25054
4.27851
4.30584
4.33246
4.3583
4.38328
4.40733
4.43036
4.45229
4.47301
4.49243
4.51047
4.52702
4.54201
4.55534
4.56695
4.57678
4.58477
4.08041
4.10513
4.12919
4.15255
4.17515
4.19696
4.21791
4.23798
4.25711
4.27527
4.29241
4.30848
4.32344
4.33724
4.34982
4.36114
4.37113
4.37974
4.38692
4.39263
3.95721
3.97898
4.00012
4.0206
4.04038
4.05941
4.07766
4.09508
4.11163
4.12728
4.14197
4.15567
4.16833
4.17993
4.19041
4.19976
4.20793
4.2149
4.22065
4.22516
3.82941
3.84908
3.86801
3.8862
3.90364
3.92029
3.93614
3.95116
3.96535
3.97867
3.9911
4.00264
4.01324
4.02291
4.0316
4.03931
4.046
4.05167
4.05629
4.05985
3.7104
3.72867
3.74613
3.76281
3.77873
3.79388
3.80826
3.82184
3.83463
3.8466
3.85775
3.86807
3.87753
3.88612
3.89384
3.90068
3.90662
3.91165
3.91576
3.91896
3.61148
3.62733
3.64258
3.65716
3.67107
3.68433
3.6969
3.7088
3.71999
3.73047
3.74024
3.74927
3.75757
3.7651
3.77188
3.77788
3.7831
3.78753
3.79116
3.79399
3.52609
3.54002
3.55361
3.56673
3.57934
3.59139
3.60288
3.61379
3.62409
3.63377
3.6428
3.65118
3.65888
3.6659
3.67223
3.67785
3.68275
3.68694
3.6904
3.69313
3.44133
3.45562
3.4693
3.48246
3.49504
3.50702
3.51838
3.52911
3.5392
3.54864
3.55742
3.56553
3.57298
3.57974
3.58582
3.59121
3.59591
3.59992
3.60322
3.60583
3.37089
3.38561
3.39949
3.41263
3.42507
3.43684
3.44793
3.45834
3.46809
3.47718
3.48561
3.49338
3.5005
3.50697
3.51279
3.51796
3.52248
3.52635
3.52956
3.53213
3.32786
3.34087
3.35336
3.36523
3.37649
3.38718
3.39731
3.40686
3.41583
3.42423
3.43206
3.4393
3.44596
3.45203
3.45751
3.4624
3.4667
3.4704
3.4735
3.476
3.29254
3.30462
3.31635
3.32766
3.33847
3.34879
3.3586
3.3679
3.37667
3.3849
3.39259
3.39971
3.40627
3.41227
3.41768
3.42252
3.42677
3.43044
3.43353
3.43602
3.26099
3.27353
3.28552
3.29703
3.30803
3.3185
3.32841
3.33778
3.34659
3.35484
3.36252
3.36963
3.37616
3.38213
3.38751
3.39232
3.39654
3.40019
3.40326
3.40574
3.24734
3.26001
3.27209
3.28358
3.2945
3.30485
3.31464
3.32387
3.33254
3.34065
3.3482
3.35519
3.36162
3.36749
3.37279
3.37753
3.38171
3.38532
3.38836
3.39084
1.70688
2.84974
3.50131
4.02118
4.36158
4.62756
4.8111
4.94124
5.02383
5.06978
5.08689
5.0827
5.06414
5.0373
5.00784
4.97988
4.95636
4.93937
4.92999
4.93003
2.2173
2.93115
3.55526
4.0032
4.35132
4.60351
4.78939
4.9182
5.00214
5.04919
5.06769
5.065
5.04818
5.02356
4.99649
4.97122
4.95087
4.93657
4.92889
4.92954
2.58622
3.12467
3.65414
4.03521
4.36253
4.5976
4.78001
4.90576
4.98956
5.03653
5.0551
5.05234
5.0354
5.01081
4.98416
4.95905
4.93974
4.92644
4.91954
4.9205
2.83812
3.28493
3.72807
4.06637
4.36266
4.58494
4.76035
4.88433
4.96802
5.01576
5.03503
5.0327
5.01599
4.99161
4.96529
4.94091
4.92236
4.90991
4.90363
4.90477
3.03613
3.41081
3.78172
4.08549
4.35172
4.5622
4.72971
4.85213
4.93589
4.98492
5.00543
5.0041
4.98812
4.96445
4.93906
4.91582
4.89855
4.88723
4.88174
4.88313
3.19518
3.51086
3.82359
4.0942
4.33361
4.53102
4.69045
4.81054
4.89423
4.94456
4.96655
4.96649
4.95156
4.92898
4.90503
4.88359
4.86823
4.85858
4.85424
4.85604
3.3257
3.59202
3.85796
4.09689
4.31184
4.49478
4.6455
4.76205
4.84505
4.89632
4.91974
4.92102
4.90725
4.88593
4.86365
4.84474
4.83187
4.82453
4.82179
4.82408
3.43402
3.66012
3.88739
4.09725
4.28934
4.45698
4.59801
4.70967
4.79106
4.84273
4.86742
4.87007
4.85753
4.83749
4.81698
4.80076
4.79079
4.78631
4.78549
4.78819
3.52526
3.71846
3.91365
4.09743
4.2682
4.42029
4.55074
4.65631
4.7351
4.78662
4.8125
4.81676
4.80571
4.78706
4.76826
4.75448
4.74736
4.74588
4.74702
4.74974
3.60283
3.7693
3.93776
4.09857
4.24973
4.38655
4.50592
4.60447
4.6798
4.73067
4.75777
4.76412
4.75521
4.73841
4.72135
4.70963
4.70487
4.70543
4.70856
4.7104
3.6697
3.81428
3.96053
4.10136
4.23485
4.35717
4.46541
4.5564
4.62759
4.67735
4.70566
4.71459
4.70865
4.69448
4.67951
4.66956
4.66642
4.66831
4.67121
4.67176
3.72822
3.85494
3.98276
4.10647
4.22435
4.33333
4.43086
4.51415
4.58077
4.62897
4.65827
4.66996
4.66756
4.65675
4.64437
4.63606
4.63364
4.63521
4.63696
4.63511
3.78054
3.89268
4.00534
4.11461
4.21899
4.31608
4.40375
4.47962
4.54152
4.58774
4.61756
4.63167
4.63271
4.62537
4.61569
4.60887
4.60652
4.60666
4.6058
4.60059
3.82842
3.92876
4.02908
4.12636
4.21937
4.30623
4.3852
4.45429
4.51163
4.55563
4.58541
4.60121
4.6049
4.60022
4.59242
4.58625
4.58315
4.58092
4.57638
4.56696
3.87297
3.96379
4.05413
4.14164
4.22529
4.3036
4.37515
4.43833
4.4915
4.53322
4.56256
4.57938
4.58482
4.58168
4.57425
4.56687
4.56129
4.55564
4.54702
4.53157
3.91442
3.99744
4.07965
4.15917
4.23513
4.30631
4.37154
4.42948
4.47875
4.51808
4.54656
4.56385
4.57047
4.56819
4.56013
4.5499
4.53971
4.52888
4.51454
4.49025
3.95281
4.02925
4.10469
4.17756
4.24702
4.31203
4.3716
4.42457
4.46976
4.50608
4.53267
4.54906
4.55536
4.55265
4.54313
4.52971
4.51482
4.49891
4.47873
4.43956
3.99005
4.06125
4.13126
4.19874
4.26283
4.32263
4.37722
4.4256
4.46669
4.49937
4.52265
4.5357
4.53815
4.53063
4.51527
4.49561
4.47563
4.45734
4.43564
4.38118
4.0311
4.09946
4.16637
4.23071
4.2917
4.34855
4.40048
4.44656
4.48568
4.51655
4.53763
4.5472
4.54371
4.5268
4.49845
4.46336
4.42889
4.40147
4.37576
4.31233
4.07929
4.14783
4.21493
4.27978
4.34176
4.40025
4.45455
4.50385
4.54707
4.58277
4.60906
4.62359
4.62417
4.6098
4.58112
4.54036
4.49091
4.4326
4.35198
4.19654
0.206632
0.580156
0.912438
1.19181
1.46249
1.68388
1.88392
2.06904
2.21907
2.36711
2.49191
2.61399
2.72687
2.84043
2.9583
3.09021
3.24861
3.44989
3.70439
4.0095
0.211502
0.591974
0.926657
1.21077
1.48753
1.70907
1.91578
2.10884
2.26056
2.41945
2.55087
2.68526
2.81136
2.94117
3.0774
3.22909
3.40567
3.61602
3.8605
4.13203
0.215491
0.600387
0.935562
1.22411
1.5061
1.72491
1.9401
2.14013
2.29374
2.46272
2.60022
2.74511
2.8823
3.02461
3.17419
3.33871
3.52525
3.7382
3.97695
4.24022
0.218071
0.605147
0.938391
1.23125
1.51666
1.72979
1.95462
2.15936
2.31667
2.49316
2.63763
2.79015
2.9371
3.08819
3.2468
3.41757
3.60537
3.81141
4.03521
4.27456
0.219323
0.605892
0.934634
1.23082
1.51711
1.72399
1.95553
2.16216
2.32747
2.50575
2.66144
2.81711
2.97383
3.13006
3.29481
3.46791
3.65393
3.85226
4.06199
4.2804
0.219138
0.602687
0.924455
1.22039
1.50469
1.71002
1.93775
2.14253
2.32509
2.49505
2.67104
2.82305
2.99078
3.14831
3.31679
3.48851
3.6692
3.85663
4.05013
4.24673
0.217244
0.596113
0.909699
1.197
1.47511
1.6916
1.8969
2.09826
2.31125
2.45971
2.66695
2.80618
2.98725
3.14294
3.31379
3.48243
3.65703
3.83386
4.01203
4.18781
0.213866
0.588837
0.895623
1.15911
1.42497
1.67352
1.84077
2.04076
2.29725
2.39894
2.65258
2.7691
2.96547
3.11725
3.28856
3.45265
3.61958
3.7848
3.94747
4.10423
0.211118
0.581216
0.884379
1.11202
1.35639
1.65998
1.79506
1.97466
2.28993
2.32107
2.6251
2.71804
2.92625
3.07535
3.2444
3.40418
3.56323
3.7176
3.86569
4.00433
0.207505
0.56022
0.864025
1.07539
1.27662
1.63057
1.77253
1.89797
2.25291
2.24544
2.56863
2.65644
2.86292
3.01454
3.17748
3.3335
3.48469
3.62934
3.76522
3.89001
0.196805
0.516715
0.814514
1.04794
1.21111
1.55087
1.72972
1.82627
2.16517
2.18881
2.47944
2.59104
2.77905
2.93807
3.09311
3.24482
3.3888
3.52523
3.65227
3.76811
0.180937
0.471487
0.744161
1.00399
1.18419
1.44643
1.66128
1.78869
2.06279
2.16088
2.39098
2.53966
2.7049
2.86801
3.01762
3.16287
3.29947
3.42729
3.54569
3.65348
0.162563
0.445133
0.699535
0.943941
1.16923
1.38814
1.59727
1.78186
1.99038
2.15281
2.33649
2.50762
2.66312
2.82168
2.96913
3.10841
3.23873
3.35873
3.46732
3.56268
0.140097
0.416762
0.66928
0.892824
1.1247
1.34928
1.54528
1.74999
1.93636
2.11868
2.2887
2.4592
2.61666
2.76847
2.91377
3.04938
3.17592
3.29195
3.39521
3.48302
0.125199
0.373997
0.616598
0.845549
1.06397
1.28418
1.48733
1.68292
1.87136
2.05108
2.22308
2.38778
2.54624
2.6947
2.83628
2.96883
3.09204
3.20516
3.30677
3.39603
0.11744
0.349932
0.581758
0.813748
1.03228
1.2414
1.44816
1.64003
1.82894
2.00738
2.17936
2.34223
2.49829
2.64554
2.78384
2.91302
3.03204
3.14004
3.23716
3.32461
0.120727
0.357118
0.587789
0.811059
1.03225
1.23838
1.44086
1.63574
1.81994
1.99982
2.1696
2.33197
2.48607
2.63181
2.76821
2.89504
3.01126
3.11577
3.20828
3.28792
0.121525
0.355416
0.582738
0.799467
1.01509
1.22394
1.42081
1.61622
1.79944
1.97785
2.14725
2.30843
2.4614
2.60563
2.74065
2.86593
2.98086
3.08484
3.17707
3.25499
0.113549
0.340331
0.56245
0.780899
0.991795
1.19962
1.39785
1.59043
1.77516
1.95167
2.12108
2.28173
2.43389
2.57718
2.71109
2.83505
2.94856
3.05129
3.14246
3.22142
0.112393
0.336419
0.557241
0.774738
0.987035
1.19253
1.39198
1.58363
1.7684
1.94481
2.11369
2.27424
2.42605
2.56889
2.70226
2.82558
2.93832
3.0399
3.1297
3.20774
0.186672
0.504134
0.808192
1.06931
1.3001
1.51431
1.68906
1.85297
1.98496
2.10042
2.18994
2.25768
2.29866
2.30662
2.27963
2.22639
2.07784
1.70052
2.15549
-1.79902
0.18807
0.507777
0.813962
1.07612
1.30827
1.52348
1.69869
1.86359
1.996
2.11245
2.20301
2.27249
2.31577
2.32797
2.30989
2.26682
2.13034
1.84319
2.23304
-0.584851
0.189455
0.511403
0.819679
1.08285
1.31637
1.53258
1.70825
1.87419
2.00704
2.12456
2.21624
2.28759
2.33335
2.35024
2.34101
2.30722
2.1872
1.9848
2.31012
0.403773
0.190827
0.51501
0.825341
1.08948
1.32441
1.54159
1.71774
1.88475
2.01808
2.13674
2.22964
2.30295
2.35139
2.37332
2.3727
2.34763
2.24761
2.11955
2.39042
1.16787
0.192184
0.518597
0.830944
1.09603
1.33237
1.55052
1.72716
1.89529
2.0291
2.14899
2.24319
2.31856
2.36986
2.3971
2.40474
2.38832
2.31067
2.24558
2.47355
1.72608
0.193524
0.522164
0.836484
1.10247
1.34027
1.55936
1.7365
1.90579
2.04011
2.16131
2.25686
2.33439
2.38875
2.42145
2.43696
2.42945
2.37524
2.36161
2.56006
2.15298
0.194846
0.52571
0.841957
1.10882
1.34809
1.5681
1.74576
1.91626
2.0511
2.17368
2.27065
2.35043
2.40801
2.44626
2.46927
2.47109
2.44048
2.46773
2.6471
2.47709
0.196146
0.529233
0.847359
1.11505
1.35584
1.57675
1.75494
1.92669
2.06206
2.1861
2.28453
2.36666
2.42761
2.47138
2.50159
2.51318
2.50551
2.56456
2.73477
2.73319
0.197422
0.53273
0.852686
1.12117
1.36351
1.58529
1.76403
1.93708
2.07298
2.19856
2.2985
2.38305
2.44747
2.49672
2.53387
2.55559
2.56957
2.65287
2.82096
2.93612
0.198668
0.536198
0.857934
1.12717
1.3711
1.59373
1.77303
1.94742
2.08386
2.21104
2.31252
2.39958
2.46755
2.52217
2.56609
2.59811
2.63202
2.73385
2.90568
3.10108
0.199881
0.539632
0.863102
1.13305
1.3786
1.60205
1.78191
1.95771
2.09468
2.22353
2.32657
2.41621
2.48778
2.54765
2.59821
2.64053
2.69238
2.80851
2.98764
3.2363
0.201053
0.543027
0.868185
1.13878
1.386
1.61025
1.79069
1.96794
2.10542
2.23602
2.34064
2.43293
2.50812
2.57313
2.63022
2.68267
2.75043
2.87816
3.06665
3.34938
0.202175
0.546381
0.87317
1.14436
1.39331
1.6183
1.79936
1.9781
2.11609
2.24849
2.35473
2.44972
2.52853
2.59856
2.66209
2.72438
2.80612
2.94369
3.14202
3.44526
0.203238
0.549695
0.87804
1.14979
1.40053
1.62622
1.80793
1.98819
2.1267
2.26095
2.36881
2.46655
2.54896
2.6239
2.69379
2.76556
2.85961
3.00591
3.21372
3.52796
0.204237
0.552939
0.882802
1.15511
1.40761
1.63407
1.81635
1.99825
2.1372
2.27338
2.38285
2.48337
2.56933
2.64907
2.72524
2.80607
2.91101
3.06521
3.28157
3.6001
0.205175
0.556035
0.887545
1.16031
1.41448
1.64191
1.82451
2.00831
2.14752
2.28574
2.39677
2.50007
2.58951
2.67394
2.75627
2.84568
2.96025
3.12177
3.34561
3.66374
0.206043
0.558938
0.892361
1.16521
1.4212
1.64964
1.83239
2.01832
2.15759
2.29799
2.41051
2.51662
2.60947
2.69847
2.7867
2.88397
3.00694
3.17531
3.40577
3.72092
0.206708
0.561848
0.897047
1.16961
1.42804
1.6568
1.84035
2.02793
2.16756
2.31002
2.42414
2.5331
2.62934
2.72273
2.81643
2.9205
3.05056
3.22537
3.46189
3.77429
0.206815
0.56528
0.900904
1.17367
1.43533
1.66271
1.84905
2.03655
2.17786
2.32167
2.43786
2.54964
2.64929
2.74685
2.84551
2.95526
3.09115
3.27197
3.51377
3.82606
0.206254
0.569364
0.903561
1.17813
1.44269
1.6677
1.85842
2.04431
2.18858
2.33299
2.45169
2.56611
2.66917
2.77076
2.87419
2.98925
3.13061
3.31692
3.56257
3.87545
0.155326
0.426926
0.684511
0.917955
1.12366
1.31554
1.4808
1.63071
1.75853
1.86791
1.95573
2.02069
2.05766
2.06146
2.02339
1.88789
1.67163
1.34052
0.588184
0.293174
0.157197
0.431066
0.690988
0.926158
1.13307
1.32617
1.49203
1.6425
1.77047
1.87978
1.96715
2.03118
2.06651
2.06794
2.02501
1.88108
1.65236
1.30163
0.476367
0.173234
0.158995
0.435154
0.697444
0.934293
1.14244
1.33673
1.50319
1.65423
1.78236
1.89162
1.97858
2.04173
2.07555
2.07484
2.02717
1.87515
1.63646
1.26263
0.360234
0.0530613
0.16074
0.439206
0.70388
0.942362
1.15174
1.34721
1.51424
1.66584
1.79411
1.90333
1.98987
2.05217
2.08456
2.08189
2.02962
1.86991
1.6249
1.22362
0.2364
-0.0660303
0.162441
0.44322
0.710289
0.950366
1.16098
1.35762
1.5252
1.67738
1.80577
1.91498
2.00113
2.06265
2.09378
2.08939
2.0328
1.8663
1.61887
1.18416
0.105122
-0.177777
0.164104
0.447202
0.716669
0.958306
1.17015
1.36796
1.53606
1.68882
1.81733
1.92654
2.01235
2.07315
2.10318
2.09732
2.03669
1.86481
1.61943
1.14349
-0.0279777
-0.279123
0.165736
0.451154
0.723019
0.96618
1.17926
1.37822
1.54682
1.70017
1.82881
1.93806
2.02356
2.08374
2.11288
2.10583
2.04151
1.86617
1.62696
1.10236
-0.14234
-0.367996
0.16734
0.455078
0.729337
0.973989
1.1883
1.38841
1.55749
1.71145
1.84021
1.94953
2.03477
2.09444
2.12291
2.11495
2.04739
1.87089
1.64083
1.06336
-0.203766
-0.431272
0.16892
0.458976
0.735623
0.981734
1.19728
1.39852
1.56808
1.72265
1.85154
1.96098
2.04602
2.1053
2.13335
2.12475
2.05452
1.87928
1.6594
1.03145
-0.179584
-0.446082
0.17048
0.462851
0.741875
0.989412
1.20619
1.40857
1.57857
1.73379
1.86282
1.97241
2.05732
2.11635
2.14423
2.13526
2.06308
1.89146
1.68121
1.01238
-0.0586022
-0.418026
0.172021
0.466702
0.748093
0.997025
1.21504
1.41853
1.58899
1.74485
1.87404
1.98384
2.06869
2.12763
2.1556
2.14653
2.07321
1.90741
1.70627
1.00988
0.145075
-0.353775
0.173545
0.470532
0.754276
1.00457
1.22382
1.42843
1.59932
1.75586
1.88522
1.99529
2.08016
2.13917
2.16748
2.15857
2.08505
1.92703
1.73473
1.02507
0.399477
-0.282333
0.175055
0.474341
0.760424
1.01205
1.23255
1.43826
1.60958
1.76682
1.89637
2.00676
2.09174
2.151
2.17991
2.17141
2.09869
1.95015
1.76624
1.05468
0.675067
-0.236677
0.17655
0.47813
0.766535
1.01946
1.24121
1.44801
1.61976
1.77772
1.90749
2.01826
2.10344
2.16314
2.19289
2.18507
2.11423
1.97655
1.80008
1.09495
0.95163
-0.240206
0.178032
0.4819
0.772609
1.0268
1.24981
1.4577
1.62987
1.78858
1.91859
2.02981
2.11529
2.17561
2.20642
2.19956
2.13177
2.00591
1.83533
1.14337
1.21813
-0.298884
0.179502
0.485651
0.778644
1.03407
1.25834
1.46731
1.63991
1.7994
1.92967
2.04141
2.12729
2.18842
2.22049
2.21493
2.15142
2.03793
1.87128
1.199
1.46507
-0.415952
0.180959
0.489383
0.78464
1.04127
1.26682
1.47685
1.64987
1.81018
1.94074
2.05307
2.13946
2.20159
2.2351
2.23124
2.17323
2.07228
1.90781
1.26353
1.67939
-0.636753
0.182405
0.493097
0.790594
1.0484
1.27523
1.48632
1.65977
1.82092
1.9518
2.0648
2.15181
2.21511
2.25023
2.24854
2.19712
2.10869
1.9456
1.34205
1.84821
-1.1069
0.183839
0.496794
0.796506
1.05545
1.28358
1.49573
1.6696
1.83163
1.96286
2.0766
2.16433
2.22897
2.26588
2.26687
2.22296
2.14682
1.98587
1.44104
1.97143
-1.86923
0.185261
0.500473
0.802372
1.06242
1.29188
1.50505
1.67937
1.84231
1.97391
2.08847
2.17704
2.24316
2.28202
2.28624
2.25055
2.18624
2.02975
1.56265
2.06731
-2.49034
0.000305443
0.000912751
0.0015137
0.00210624
0.00268845
0.00325835
0.00381402
0.00435355
0.00487509
0.00537686
0.00585712
0.00631424
0.00674666
0.00715289
0.00753158
0.00788144
0.00820128
0.00849005
0.00874676
0.00897055
0.000928749
0.00277662
0.00460719
0.00641382
0.00819014
0.00992991
0.011627
0.0132754
0.0148693
0.0164031
0.0178716
0.0192695
0.0205921
0.0218348
0.0229934
0.0240639
0.0250427
0.0259266
0.0267124
0.0273977
0.00159437
0.0047681
0.0079147
0.0110222
0.0140792
0.0170745
0.0199972
0.0228368
0.0255831
0.0282264
0.0307573
0.0331669
0.0354469
0.0375893
0.0395867
0.0414325
0.0431202
0.0446441
0.0459992
0.0471808
0.00234163
0.00700329
0.011626
0.0161921
0.0206844
0.0250863
0.0293817
0.033555
0.0375912
0.0414757
0.045195
0.0487358
0.0520859
0.0552337
0.0581684
0.0608799
0.0633593
0.065598
0.0675886
0.0693244
0.00321006
0.00959999
0.015936
0.0221935
0.0283491
0.0343799
0.0402638
0.0459792
0.0515057
0.0568235
0.0619139
0.0667591
0.0713424
0.0756479
0.0796613
0.0833689
0.0867584
0.0898186
0.0925394
0.0949117
0.00424589
0.0126959
0.0210718
0.0293412
0.037473
0.0454369
0.0532037
0.0607453
0.0680346
0.0750458
0.0817544
0.0881374
0.0941729
0.0998408
0.105122
0.11
0.114457
0.118481
0.122058
0.125176
0.00550459
0.0164556
0.0273047
0.0380099
0.0485309
0.0588285
0.068865
0.0786043
0.0880118
0.0970546
0.105702
0.113924
0.121694
0.128987
0.135778
0.142048
0.147775
0.152942
0.157534
0.161537
0.00705473
0.0210822
0.0349682
0.0486591
0.0621031
0.0752501
0.0880523
0.100464
0.112442
0.123945
0.134934
0.145374
0.155231
0.164475
0.173077
0.181012
0.188255
0.194787
0.20059
0.205645
0.00898318
0.0268319
0.0444814
0.0618636
0.0789125
0.0955645
0.11176
0.12744
0.142553
0.157048
0.170877
0.183999
0.196372
0.207962
0.218735
0.228661
0.237714
0.245871
0.253112
0.259418
0.0114026
0.034035
0.0563815
0.078357
0.0998767
0.120861
0.141233
0.160924
0.179868
0.198003
0.215275
0.231633
0.247031
0.261428
0.274789
0.287082
0.298278
0.308353
0.317287
0.325062
0.0144627
0.0431275
0.0713734
0.099095
0.126183
0.152537
0.178064
0.202676
0.226295
0.248849
0.270274
0.290514
0.309518
0.327244
0.343654
0.358719
0.372412
0.384712
0.395602
0.405068
0.0183682
0.0546991
0.0904014
0.125349
0.159399
0.192425
0.224313
0.254956
0.284262
0.312149
0.338546
0.363391
0.386636
0.40824
0.428172
0.446409
0.462934
0.477737
0.490812
0.502158
0.0234057
0.0695642
0.114757
0.158841
0.201628
0.24296
0.282696
0.320712
0.3569
0.391168
0.423444
0.453668
0.481798
0.507805
0.531675
0.553402
0.572996
0.590471
0.605848
0.619152
0.0299835
0.0888621
0.146225
0.201932
0.255722
0.307409
0.356823
0.403819
0.448276
0.490101
0.529222
0.565591
0.599184
0.629999
0.658053
0.683383
0.706042
0.726099
0.743631
0.758722
0.0386854
0.114178
0.187255
0.257827
0.32552
0.390135
0.451467
0.509359
0.563682
0.614346
0.661291
0.704492
0.743955
0.779723
0.811867
0.840494
0.865739
0.887762
0.906756
0.922927
0.050306
0.147591
0.241011
0.330639
0.415887
0.496616
0.572582
0.643632
0.709646
0.770544
0.82629
0.876893
0.922403
0.962924
0.998606
1.02965
1.05632
1.07889
1.09773
1.11324
0.0658161
0.191493
0.311112
0.425034
0.532249
0.632907
0.72668
0.813485
0.893213
0.965818
1.03129
1.08968
1.14107
1.18563
1.22359
1.25528
1.28122
1.3018
1.31833
1.33127
0.0860045
0.247624
0.400266
0.544433
0.678365
0.803102
0.917988
1.02321
1.11863
1.20422
1.2799
1.34562
1.40133
1.44701
1.48269
1.50839
1.52521
1.53211
1.53477
1.53132
0.110768
0.315252
0.507577
0.687178
0.851764
1.00434
1.1433
1.26989
1.38383
1.48546
1.57479
1.65188
1.71666
1.76911
1.80912
1.83473
1.85131
1.84517
1.85341
1.82672
0.137141
0.387088
0.621903
0.837245
1.03161
1.21042
1.36984
1.51324
1.63917
1.74834
1.83981
1.91258
1.96438
1.99254
1.99415
1.94549
1.87427
1.73219
1.60019
1.42312
0.00910365
0.00917423
0.0092393
0.00929886
0.00935287
0.0094013
0.00944412
0.00948131
0.00951286
0.00953874
0.00955894
0.00957346
0.00958227
0.00958539
0.00958279
0.0095745
0.00956051
0.00954083
0.00951547
0.00948443
0.0278054
0.0280217
0.028221
0.0284035
0.028569
0.0287173
0.0288485
0.0289625
0.0290592
0.0291384
0.0292003
0.0292448
0.0292718
0.0292814
0.0292734
0.029248
0.0292051
0.0291448
0.029067
0.0289719
0.0478839
0.0482568
0.0486007
0.0489154
0.0492008
0.0494567
0.049683
0.0498796
0.0500464
0.0501832
0.0502901
0.0503669
0.0504136
0.0504302
0.0504167
0.050373
0.0502992
0.0501953
0.0500615
0.0498976
0.0703573
0.0709051
0.0714102
0.0718726
0.0722919
0.072668
0.0730006
0.0732895
0.0735347
0.0737359
0.0738931
0.0740062
0.074075
0.0740997
0.0740801
0.0740163
0.0739082
0.073756
0.0735598
0.0733194
0.0963234
0.0970721
0.0977626
0.0983946
0.0989678
0.0994819
0.0999366
0.100332
0.100667
0.100942
0.101158
0.101313
0.101407
0.101442
0.101415
0.101329
0.101182
0.100975
0.100707
0.10038
0.127031
0.128016
0.128923
0.129754
0.130507
0.131183
0.131781
0.132301
0.132742
0.133105
0.133388
0.133593
0.133718
0.133764
0.133731
0.133618
0.133426
0.133155
0.132805
0.132376
0.163918
0.165181
0.166346
0.167413
0.16838
0.169248
0.170016
0.170683
0.17125
0.171717
0.172082
0.172345
0.172508
0.172568
0.172528
0.172385
0.172141
0.171796
0.171349
0.170801
0.208652
0.210247
0.211718
0.213065
0.214287
0.215383
0.216354
0.217198
0.217915
0.218505
0.218968
0.219304
0.219511
0.219591
0.219543
0.219366
0.219062
0.21863
0.218071
0.217383
0.263168
0.265156
0.266991
0.26867
0.270194
0.271562
0.272773
0.273827
0.274724
0.275462
0.276043
0.276465
0.276728
0.276832
0.276778
0.276564
0.276191
0.27566
0.27497
0.27412
0.329683
0.332134
0.334395
0.336465
0.338344
0.34003
0.341525
0.342827
0.343935
0.34485
0.345571
0.346097
0.346429
0.346567
0.346509
0.346256
0.345809
0.345166
0.344328
0.343295
0.410691
0.413673
0.416424
0.418943
0.42123
0.423285
0.425107
0.426695
0.428051
0.429172
0.430059
0.430711
0.431129
0.431311
0.431258
0.43097
0.430445
0.429685
0.428688
0.427454
0.508891
0.512462
0.515755
0.518772
0.521513
0.523977
0.526165
0.528076
0.529711
0.531069
0.53215
0.532953
0.533478
0.533725
0.533694
0.533383
0.532792
0.531921
0.530768
0.529334
0.627034
0.631213
0.635069
0.638602
0.641816
0.644709
0.647283
0.649539
0.651477
0.653097
0.654399
0.655383
0.656048
0.656393
0.656418
0.65612
0.6555
0.654555
0.653284
0.651684
0.767634
0.772358
0.776718
0.780718
0.784361
0.787651
0.79059
0.793181
0.795423
0.797319
0.798869
0.800072
0.800927
0.801432
0.80159
0.80139
0.800832
0.799913
0.798628
0.796975
0.932412
0.937439
0.942081
0.946349
0.950252
0.953796
0.95699
0.959837
0.962341
0.964505
0.966329
0.967812
0.968952
0.969745
0.970187
0.97027
0.969988
0.969331
0.968289
0.966853
1.12209
1.12678
1.13113
1.13516
1.13888
1.14231
1.14548
1.14837
1.15102
1.1534
1.15554
1.15743
1.15906
1.16042
1.16151
1.16231
1.1628
1.16297
1.16278
1.16222
1.33866
1.34253
1.34612
1.34948
1.35266
1.3557
1.35863
1.36145
1.36419
1.36686
1.36945
1.37195