/*--------------------------------*- C++ -*----------------------------------*\
| =========                 |                                                 |
| \\      /  F ield         | OpenFOAM: The Open Source CFD Toolbox           |
|  \\    /   O peration     | Version:  v1806                                 |
|   \\  /    A nd           | Web:      www.OpenFOAM.com                      |
|    \\/     M anipulation  |                                                 |
\*---------------------------------------------------------------------------*/
FoamFile
{
    version     2.0;
    format      ascii;
    class       surfaceScalarField;
    location    "1";
    object      phi;
}
// * * * * * * * * * * * * * * * * * * * * * * * * * * * * * * * * * * * * * //

dimensions      [0 3 -1 0 0 0 0];
oriented        oriented;


internalField   nonuniform List<scalar> 
8600
(
0.444319
-0.689251
-0.58052
0.825453
0.363615
-0.593663
0.674366
0.286763
-0.623387
0.700239
0.264372
-0.640982
0.663373
0.26411
-0.640505
0.640767
0.272792
-0.633109
0.624427
0.287738
-0.622371
0.607426
0.30656
-0.608627
0.589805
0.328013
-0.593831
0.572378
0.351189
-0.577909
0.554733
0.376615
-0.563481
0.538055
0.401467
-0.541713
0.516861
0.432144
-0.535257
0.50458
0.455855
-0.493243
0.469532
0.492318
-0.510958
0.474495
0.518146
-0.436315
0.410487
0.55341
-0.471336
0.436072
0.586657
-0.38706
0.353814
0.621269
-0.406359
0.371746
-0.330436
0.293853
0.191668
-0.57455
-0.30637
0.217685
-0.619679
0.240014
-0.645717
0.255997
-0.656965
0.269851
-0.65436
0.283685
-0.646942
0.299234
-0.63792
0.318124
-0.627517
0.339836
-0.615544
0.363575
-0.601648
0.38986
-0.589765
0.414916
-0.566769
0.447808
-0.56815
0.471014
-0.516449
0.509959
-0.549903
0.537851
-0.464207
0.573511
-0.506996
0.609709
-0.423258
0.647183
-0.443832
-0.370384
0.294162
-0.598313
-0.270399
0.294635
-0.620153
0.285114
-0.636196
0.277129
-0.64898
0.278832
-0.656063
0.289521
-0.657631
0.306107
-0.654505
0.326531
-0.647942
0.349427
-0.63844
0.374285
-0.626506
0.401771
-0.617252
0.426868
-0.591866
0.46277
-0.604051
0.484543
-0.538222
0.526454
-0.591814
0.556526
-0.49428
0.592095
-0.542565
0.631332
-0.462496
0.671357
-0.483857
-0.414256
0.164262
-0.604512
-0.158063
0.178892
-0.634783
0.202592
-0.659895
0.23109
-0.677478
0.259168
-0.68414
0.284837
-0.6833
0.308787
-0.678455
0.332804
-0.671959
0.357441
-0.663077
0.383737
-0.652802
0.412308
-0.645823
0.437591
-0.617149
0.476583
-0.643043
0.496692
-0.558331
0.541113
-0.636235
0.574206
-0.527373
0.608678
-0.577037
0.650884
-0.504702
0.693423
-0.526396
-0.462005
0.21451
-0.645621
-0.173402
0.243634
-0.663906
0.262462
-0.678724
0.273083
-0.688099
0.283493
-0.69455
0.298047
-0.697855
0.317035
-0.697442
0.339699
-0.694623
0.364295
-0.687673
0.391631
-0.680138
0.420753
-0.674945
0.446753
-0.643149
0.488205
-0.684494
0.506945
-0.57707
0.553109
-0.6824
0.589879
-0.564142
0.622453
-0.609611
0.667554
-0.549804
0.712467
-0.571309
-0.513441
0.143697
-0.67362
-0.115697
0.17219
-0.692399
0.199122
-0.705656
0.227744
-0.716721
0.256913
-0.723719
0.285023
-0.725965
0.312149
-0.724568
0.339284
-0.721758
0.366325
-0.714715
0.39565
-0.709463
0.425031
-0.704326
0.453239
-0.671357
0.495105
-0.726361
0.514142
-0.596107
0.560699
-0.728957
0.601085
-0.604528
0.631559
-0.640085
0.679781
-0.598025
0.726784
-0.618312
-0.568107
0.164287
-0.710097
-0.12781
0.191881
-0.719994
0.218371
-0.732145
0.242037
-0.740388
0.264184
-0.745865
0.286906
-0.748687
0.311108
-0.748771
0.336796
-0.747445
0.363804
-0.741723
0.393397
-0.739056
0.421936
-0.732865
0.454109
-0.70353
0.491836
-0.764088
0.51533
-0.619601
0.559835
-0.773462
0.602393
-0.647085
0.631723
-0.669416
0.683777
-0.650078
0.732174
-0.66671
-0.625237
0.128357
-0.742697
-0.0957568
0.161368
-0.753005
0.189287
-0.760065
0.215471
-0.766571
0.241306
-0.7717
0.267112
-0.774493
0.293412
-0.77507
0.319762
-0.773796
0.347863
-0.769823
0.376549
-0.767742
0.404977
-0.761292
0.440891
-0.739444
0.469118
-0.792315
0.504343
-0.654826
0.542391
-0.811511
0.583855
-0.688549
0.614816
-0.700376
0.670974
-0.706236
0.719022
-0.714758
-0.683594
0.121429
-0.770963
-0.0931637
0.145459
-0.777035
0.170032
-0.784638
0.193975
-0.790514
0.216953
-0.794678
0.239572
-0.797112
0.262774
-0.798272
0.286058
-0.79708
0.312382
-0.796147
0.336862
-0.792222
0.36574
-0.790171
0.399661
-0.773365
0.419551
-0.812205
0.469234
-0.704509
0.494944
-0.837221
0.533285
-0.72689
0.568848
-0.73594
0.625655
-0.763043
0.66983
-0.758933
-0.741284
0.0926107
-0.795103
-0.0684701
0.116025
-0.800448
0.136182
-0.804795
0.154691
-0.809023
0.172646
-0.812633
0.19068
-0.815146
0.209174
-0.816765
0.228141
-0.816048
0.249581
-0.817588
0.268474
-0.811114
0.295494
-0.81719
0.320401
-0.798272
0.337832
-0.829636
0.391103
-0.75778
0.40206
-0.848178
0.440761
-0.765591
0.480601
-0.77578
0.528039
-0.810482
0.563851
-0.794745
-0.79505
0.0670749
-0.809875
-0.0523032
0.0801696
-0.813543
0.0931806
-0.817806
0.105657
-0.8215
0.11749
-0.824466
0.129051
-0.826708
0.140501
-0.828215
0.153013
-0.82856
0.165792
-0.830367
0.17934
-0.824662
0.197375
-0.835225
0.21224
-0.813138
0.228434
-0.845829
0.267409
-0.796755
0.268654
-0.849424
0.306806
-0.803743
0.340392
-0.809365
0.369712
-0.839802
0.396389
-0.821422
-0.838334
0.039818
-0.818991
-0.0307018
0.0482026
-0.821928
0.0549529
-0.824557
0.0605978
-0.827145
0.0656198
-0.829488
0.0703918
-0.83148
0.0750373
-0.83286
0.0806163
-0.834139
0.0849113
-0.834662
0.0932762
-0.833027
0.0981398
-0.840089
0.108666
-0.823663
0.115361
-0.852525
0.132905
-0.814299
0.133503
-0.850022
0.158702
-0.828941
0.176357
-0.82702
0.186456
-0.849902
0.204591
-0.839556
-0.861184
0.0249301
-0.82378
-0.0201416
0.0290204
-0.826018
0.0324906
-0.828027
0.0352137
-0.829868
0.0372428
-0.831517
0.0387036
-0.83294
0.039896
-0.834053
0.0409411
-0.835184
0.0412904
-0.835011
0.0445429
-0.83628
0.0417609
-0.837307
0.0503241
-0.832227
0.0434907
-0.845691
0.0525025
-0.82331
0.0503929
-0.847912
0.0547442
-0.833292
0.0597652
-0.832041
0.0578257
-0.847962
0.0652214
-0.846952
-0.858874
0.0261172
-0.829815
-0.0200814
0.0311824
-0.831083
0.0353032
-0.832148
0.0388015
-0.833366
0.0418081
-0.834523
0.0443876
-0.83552
0.0467011
-0.836366
0.0484388
-0.836922
0.0503226
-0.836895
0.0520919
-0.838049
0.0514133
-0.836628
0.0566235
-0.837437
0.0484286
-0.837496
0.0594209
-0.834303
0.0505925
-0.839084
0.0496851
-0.832385
0.0525269
-0.834883
0.0440431
-0.839478
0.0422442
-0.845153
-0.843901
0.0335365
-0.837379
-0.025973
0.0406125
-0.838159
0.0475672
-0.839102
0.0543116
-0.840111
0.0607448
-0.840957
0.066872
-0.841647
0.0727009
-0.842195
0.0782057
-0.842427
0.0840101
-0.842699
0.0886909
-0.84273
0.0941839
-0.842121
0.0988113
-0.842064
0.101979
-0.840664
0.110457
-0.84278
0.107705
-0.836331
0.116819
-0.841499
0.12094
-0.839004
0.11756
-0.836099
0.1162
-0.843793
-0.838445
0.0319862
-0.845384
-0.0239815
0.0400232
-0.846196
0.0478267
-0.846906
0.0552883
-0.847572
0.062502
-0.84817
0.0695167
-0.848662
0.0763629
-0.849042
0.0832328
-0.849297
0.0901132
-0.84958
0.0968488
-0.849465
0.104324
-0.849597
0.111089
-0.848829
0.12043
-0.850005
0.125489
-0.84784
0.136376
-0.847218
0.146338
-0.851461
0.153236
-0.845902
0.164067
-0.84693
0.170692
-0.850418
-0.8487
0.0199232
-0.850803
-0.014504
0.0250435
-0.851317
0.029781
-0.851643
0.034125
-0.851916
0.0382173
-0.852262
0.0421454
-0.85259
0.0459855
-0.852882
0.0498375
-0.853149
0.0536195
-0.853362
0.0576739
-0.85352
0.061568
-0.853491
0.0667554
-0.854016
0.0709876
-0.854237
0.0757862
-0.852639
0.0853912
-0.856823
0.0867644
-0.852834
0.0956682
-0.854806
0.107483
-0.858745
0.11429
-0.857226
-0.859645
0.00915716
-0.85281
-0.00715042
0.0106263
-0.852786
0.0119157
-0.852933
0.0130838
-0.853084
0.0140858
-0.853264
0.0149359
-0.85344
0.0156352
-0.853581
0.0162071
-0.853721
0.0166738
-0.853829
0.0170572
-0.853903
0.017476
-0.85391
0.0179639
-0.854504
0.0173054
-0.853579
0.0198537
-0.855187
0.0179835
-0.854953
0.0179589
-0.852809
0.0211322
-0.85798
0.0193141
-0.856927
0.0178343
-0.855746
-0.858708
0.00582435
-0.853908
-0.00472556
0.00698305
-0.853945
0.00810492
-0.854055
0.00914279
-0.854122
0.0100311
-0.854153
0.0107668
-0.854176
0.0113756
-0.85419
0.0118535
-0.854198
0.0122224
-0.854198
0.0124809
-0.854161
0.0127871
-0.854216
0.0124469
-0.854164
0.0127722
-0.853904
0.0122786
-0.854693
0.0102917
-0.852966
0.0123721
-0.85489
0.00897229
-0.85458
0.00471515
-0.85267
0.00270177
-0.853733
-0.853715
0.00364966
-0.00255811
0.00470513
0.00565048
0.00652812
0.0073754
0.00819973
0.00901001
0.00981159
0.0106141
0.0114526
0.0122363
0.0130725
0.0141684
0.0144752
0.0165093
0.0166197
0.01704
0.0193703
0.0206377
-0.249872
-0.0528436
0.302716
-0.199583
-0.0502897
-0.154434
-0.0451488
-0.112138
-0.0422959
-0.0724549
-0.0396829
-0.0347282
-0.0377267
0.0017549
-0.0364831
0.0375044
-0.0357495
0.0729471
-0.0354427
0.108489
-0.0355416
0.144546
-0.0360571
0.181591
-0.0370448
0.220295
-0.0387044
0.260851
-0.0405559
0.304234
-0.0433831
0.350022
-0.0457883
0.400945
-0.0509228
0.454308
-0.0533626
0.517251
-0.0629431
-0.063269
-0.0913674
-0.0681632
0.106687
-0.0761946
-0.0654625
-0.057779
-0.0635645
-0.0380764
-0.0619984
-0.0169277
-0.0608317
0.00534426
-0.0599986
0.0283398
-0.0594786
0.0518356
-0.0592454
0.0756753
-0.0592825
0.0997167
-0.059583
0.123807
-0.0601472
0.147745
-0.060983
0.17114
-0.0620989
0.194109
-0.0635255
0.215951
-0.0652253
0.237535
-0.0673724
0.256377
-0.0697645
0.275843
-0.0728287
0.289228
-0.0763282
-0.0804105
-0.0855161
-0.082475
0.0998279
-0.0692375
-0.0817411
-0.0518705
-0.0809315
-0.0336521
-0.0802168
-0.0148555
-0.0796283
0.0043465
-0.0792007
0.0238238
-0.0789559
0.0434896
-0.0789112
0.0632852
-0.0790781
0.0831672
-0.079465
0.103098
-0.0800783
0.123037
-0.0809221
0.142938
-0.0819996
0.16272
-0.0833072
0.182347
-0.0848521
0.201594
-0.0866192
0.220419
-0.0885904
0.238449
-0.0908584
0.255149
-0.0930279
-0.0956606
-0.0379576
-0.0931315
0.0486141
-0.0271728
-0.092526
-0.0160629
-0.0920414
-0.00461365
-0.0916661
0.00715971
-0.0914016
0.0192081
-0.0912491
0.0314567
-0.0912045
0.0438136
-0.091268
0.0561741
-0.0914385
0.0684238
-0.0917147
0.080441
-0.0920955
0.0920991
-0.0925802
0.103268
-0.0931687
0.113823
-0.0938622
0.123631
-0.0946602
0.132578
-0.0955656
0.140571
-0.0965842
0.147409
-0.0976962
0.153336
-0.0989543
-0.100388
-0.0439981
-0.103196
0.0540626
-0.0334536
-0.103071
-0.0225319
-0.102963
-0.0113096
-0.102888
0.000146759
-0.102858
0.0117777
-0.10288
0.0235391
-0.102966
0.0353919
-0.103121
0.0473025
-0.103349
0.0592425
-0.103655
0.0711865
-0.104039
0.0831103
-0.104504
0.0949886
-0.105047
0.106792
-0.105666
0.118488
-0.106356
0.130034
-0.107112
0.14137
-0.10792
0.152466
-0.108792
0.163128
-0.109616
-0.110662
-0.0278739
-0.111851
0.0365294
-0.0192737
-0.111671
-0.0107003
-0.111536
-0.00213965
-0.111449
0.00641005
-0.111408
0.0149419
-0.111412
0.0234362
-0.11146
0.031868
-0.111553
0.0402062
-0.111687
0.0484151
-0.111864
0.0564559
-0.11208
0.0642887
-0.112337
0.0718739
-0.112632
0.0791744
-0.112966
0.086157
-0.113339
0.0927952
-0.11375
0.0990754
-0.1142
0.104968
-0.114684
0.110578
-0.115227
-0.115781
-0.0305318
-0.119617
0.0382975
-0.0225854
-0.119617
-0.0144869
-0.119635
-0.00626401
-0.119672
0.0020588
-0.11973
0.0104597
-0.119813
0.0189198
-0.11992
0.0274227
-0.120055
0.035954
-0.120219
0.0445013
-0.120411
0.0530532
-0.120632
0.0615984
-0.120882
0.0701251
-0.121159
0.0786202
-0.121461
0.0870683
-0.121787
0.0954507
-0.122132
0.103744
-0.122493
0.111925
-0.122866
0.119931
-0.123232
-0.12366
-0.0247601
-0.126663
0.0318055
-0.0177661
-0.126611
-0.0108211
-0.12658
-0.00392325
-0.12657
0.00292727
-0.126581
0.00972773
-0.126613
0.0164733
-0.126666
0.0231571
-0.126739
0.0297707
-0.126832
0.0363049
-0.126945
0.0427495
-0.127077
0.0490952
-0.127227
0.0553329
-0.127397
0.0614558
-0.127584
0.0674592
-0.12779
0.0733419
-0.128015
0.0791073
-0.128258
0.0847617
-0.12852
0.0903335
-0.128804
-0.129083
-0.0222476
-0.1326
0.0281851
-0.0162459
-0.132613
-0.0101884
-0.132637
-0.00408463
-0.132674
0.00205628
-0.132722
0.0082255
-0.132782
0.0144148
-0.132855
0.0206165
-0.132941
0.0268235
-0.133039
0.0330289
-0.13315
0.0392257
-0.133274
0.0454071
-0.133409
0.0515655
-0.133555
0.0576926
-0.133711
0.0637788
-0.133877
0.069813
-0.134049
0.0757819
-0.134227
0.0816703
-0.134409
0.0874563
-0.13459
-0.13479
-0.0163452
-0.137405
0.0211496
-0.0115638
-0.137394
-0.00680762
-0.137394
-0.00207857
-0.137403
0.00262164
-0.137422
0.00729101
-0.137452
0.0119273
-0.137492
0.016528
-0.137542
0.0210905
-0.137602
0.0256123
-0.137672
0.0300911
-0.137753
0.0345249
-0.137843
0.0389127
-0.137943
0.0432542
-0.138053
0.0475506
-0.138173
0.0518043
-0.138303
0.0560198
-0.138443
0.0602033
-0.138592
0.0643631
-0.13875
-0.138897
-0.00932607
-0.140678
0.0125997
-0.00603419
-0.140686
-0.00272673
-0.140701
0.000592993
-0.140722
0.00392138
-0.14075
0.00725474
-0.140785
0.0105894
-0.140826
0.0139216
-0.140874
0.0172478
-0.140928
0.0205643
-0.140989
0.0238675
-0.141056
0.0271536
-0.141129
0.0304186
-0.141208
0.0336584
-0.141293
0.0368685
-0.141383
0.0400442
-0.141479
0.0431799
-0.141579
0.0462698
-0.141682
0.0493072
-0.141787
-0.141894
-0.00302843
-0.142625
0.00497538
-0.00108956
-0.142625
0.000838837
-0.142629
0.0027547
-0.142638
0.00465616
-0.142652
0.00654147
-0.14267
0.00840894
-0.142694
0.010257
-0.142722
0.0120842
-0.142755
0.0138892
-0.142794
0.0156711
-0.142838
0.017429
-0.142887
0.0191626
-0.142942
0.0208721
-0.143002
0.0225583
-0.143069
0.0242226
-0.143143
0.0258671
-0.143223
0.0274949
-0.14331
0.0291105
-0.143403
-0.143485
0.00025887
-0.143774
0.000890532
0.00141205
-0.143778
0.00256735
-0.143785
0.00372287
-0.143794
0.00487649
-0.143806
0.00602598
-0.14382
0.00716895
-0.143837
0.00830292
-0.143856
0.00942529
-0.143878
0.0105333
-0.143902
0.011624
-0.143928
0.0126945
-0.143957
0.0137413
-0.143988
0.014761
-0.144022
0.0157499
-0.144058
0.0167042
-0.144097
0.01762
-0.144139
0.0184936
-0.144183
0.019322
-0.144231
-0.144304
-0.00124836
-0.144978
0.00245179
-4.69164e-05
-0.14498
0.00115142
-0.144983
0.00234564
-0.144988
0.00353477
-0.144995
0.00471789
-0.145003
0.00589406
-0.145013
0.00706237
-0.145024
0.00822186
-0.145037
0.00937158
-0.145052
0.0105105
-0.145067
0.0116376
-0.145084
0.0127518
-0.145102
0.0138519
-0.145122
0.0149366
-0.145143
0.0160048
-0.145165
0.0170553
-0.145189
0.0180875
-0.145216
0.0191003
-0.145244
-0.145286
-0.00455354
-0.146575
0.00615043
-0.00295566
-0.146578
-0.00135675
-0.146582
0.00024319
-0.146588
0.00184413
-0.146596
0.00344604
-0.146605
0.00504891
-0.146616
0.00665275
-0.146628
0.0082576
-0.146642
0.00986355
-0.146657
0.0114707
-0.146674
0.0130792
-0.146693
0.0146892
-0.146712
0.0163009
-0.146734
0.0179145
-0.146757
0.0195304
-0.146781
0.021149
-0.146808
0.0227697
-0.146836
0.0243909
-0.146865
-0.146868
-0.00557097
-0.148156
0.00715179
-0.00399152
-0.148157
-0.00241399
-0.148159
-0.000838854
-0.148163
0.000733473
-0.148168
0.00230263
-0.148174
0.00386832
-0.148181
0.00543036
-0.14819
0.00698864
-0.1482
0.0085432
-0.148212
0.0100942
-0.148225
0.0116418
-0.14824
0.0131866
-0.148257
0.014729
-0.148276
0.0162699
-0.148297
0.0178098
-0.148321
0.0193494
-0.148347
0.0208891
-0.148376
0.0224308
-0.148407
-0.148418
-0.00286221
-0.149143
0.00384963
-0.00187578
-0.149143
-0.000891101
-0.149144
9.10139e-05
-0.149145
0.0010697
-0.149147
0.00204404
-0.149148
0.00301303
-0.14915
0.00397558
-0.149153
0.00493051
-0.149155
0.00587651
-0.149158
0.00681216
-0.149161
0.00773589
-0.149164
0.008646
-0.149167
0.0095406
-0.149171
0.0104175
-0.149174
0.0112742
-0.149178
0.0121079
-0.149181
0.0129168
-0.149185
0.0136998
-0.14919
-0.149223
-0.000297538
-0.14955
0.000705024
0.000109973
-0.149551
0.000517427
-0.149552
0.000924753
-0.149553
0.00133186
-0.149554
0.00173864
-0.149555
0.00214495
-0.149557
0.00255064
-0.149558
0.00295545
-0.14956
0.00335911
-0.149562
0.00376123
-0.149563
0.0041613
-0.149564
0.0045587
-0.149565
0.00495263
-0.149565
0.00534203
-0.149564
0.00572572
-0.149561
0.00610262
-0.149558
0.00647127
-0.149554
0.00682866
-0.149548
-0.149544
-0.000453236
-0.149816
0.000719211
-0.000187375
-0.149817
7.82623e-05
-0.149817
0.000343612
-0.149818
0.00060864
-0.149819
0.000873354
-0.14982
0.00113781
-0.149821
0.00140215
-0.149823
0.00166658
-0.149824
0.00193141
-0.149826
0.00219704
-0.149829
0.00246401
-0.149831
0.00273295
-0.149834
0.00300463
-0.149836
0.00328
-0.149839
0.00356021
-0.149842
0.00384618
-0.149844
0.00413795
-0.149845
0.00443572
-0.149845
-0.149834
-0.000676971
0.000860517
-0.00049369
-0.000310894
-0.000128773
5.24678e-05
0.000232613
0.000411442
0.000588726
0.000764234
0.000937738
0.00110902
0.00127788
0.00144416
0.00160778
0.00176872
0.00192702
0.00208297
0.00223752
0.00239226
-0.261411
-0.0906702
0.0866533
0.265428
-0.257864
-0.0894429
0.0858962
-0.254636
-0.0883047
0.0850762
-0.251992
-0.0870834
0.08444
-0.25025
-0.0857677
0.0840259
-0.249757
-0.0843587
0.0838651
-0.250863
-0.082875
0.0839807
-0.253886
-0.0813616
0.0843849
-0.259074
-0.079892
0.08508
-0.266556
-0.078561
0.0860435
-0.27629
-0.0774607
0.0871942
-0.287989
-0.0766504
0.0883495
-0.301058
-0.0761326
0.0892018
-0.314544
-0.0758444
0.0893303
-0.327128
-0.0756461
0.0882297
-0.337143
-0.0752835
0.0852987
-0.34256
-0.0743494
0.0797665
-0.340894
-0.0722522
0.0705861
-0.329216
-0.0678822
0.0562044
-0.0596349
0.0331347
-0.229256
-0.0963306
0.234916
-0.222867
-0.0958316
-0.215984
-0.0951874
-0.208573
-0.0944941
-0.200615
-0.0937261
-0.192115
-0.0928591
-0.183128
-0.0918613
-0.17379
-0.0907002
-0.164334
-0.089348
-0.155104
-0.0877904
-0.146527
-0.086038
-0.139042
-0.0841354
-0.133019
-0.0821553
-0.128726
-0.0801373
-0.126142
-0.0782304
-0.124758
-0.0766673
-0.123774
-0.0753338
-0.12201
-0.0740157
-0.117463
-0.0724296
-0.0704109
-0.236589
-0.0994057
0.239664
-0.23379
-0.0986299
-0.231056
-0.0979215
-0.228315
-0.0972348
-0.225464
-0.0965776
-0.222367
-0.0959562
-0.218859
-0.0953694
-0.214752
-0.094807
-0.209852
-0.0942485
-0.203976
-0.0936658
-0.196988
-0.0930263
-0.188825
-0.0922983
-0.179532
-0.0914486
-0.16924
-0.0904294
-0.158227
-0.089243
-0.14696
-0.0879341
-0.135711
-0.0865831
-0.124429
-0.0852981
-0.112679
-0.0841796
-0.0832616
-0.191804
-0.106024
0.198422
-0.184911
-0.105523
-0.177867
-0.104965
-0.170734
-0.104368
-0.163584
-0.103728
-0.156495
-0.103045
-0.149547
-0.102318
-0.142797
-0.101557
-0.136267
-0.100779
-0.129928
-0.100005
-0.123698
-0.099256
-0.117446
-0.0985512
-0.110993
-0.0979008
-0.104118
-0.0973045
-0.0966107
-0.0967505
-0.0883281
-0.0962167
-0.0792369
-0.0956743
-0.0694391
-0.0950959
-0.0591514
-0.0944673
-0.0937989
-0.197466
-0.111486
0.202928
-0.191919
-0.111071
-0.186215
-0.110668
-0.180318
-0.110265
-0.174188
-0.109858
-0.167788
-0.109445
-0.161081
-0.109024
-0.154046
-0.108592
-0.146683
-0.108142
-0.139016
-0.107671
-0.131097
-0.107175
-0.122994
-0.106654
-0.114778
-0.106117
-0.106508
-0.105575
-0.0982091
-0.105049
-0.089861
-0.104565
-0.081391
-0.104144
-0.0726842
-0.103803
-0.0636101
-0.103541
-0.103346
-0.17574
-0.11754
0.181795
-0.169611
-0.117199
-0.163433
-0.116847
-0.157208
-0.11649
-0.150933
-0.116133
-0.144599
-0.115779
-0.138188
-0.115435
-0.131675
-0.115105
-0.125024
-0.114793
-0.118192
-0.114503
-0.111132
-0.114235
-0.1038
-0.113987
-0.0961642
-0.113752
-0.0882144
-0.113525
-0.0799665
-0.113297
-0.0714678
-0.113063
-0.062792
-0.11282
-0.0540265
-0.112568
-0.0452535
-0.112314
-0.112071
-0.16934
-0.123712
0.175511
-0.163066
-0.123473
-0.156674
-0.123238
-0.150162
-0.123002
-0.143532
-0.122763
-0.136791
-0.12252
-0.129954
-0.122272
-0.123043
-0.122016
-0.116082
-0.121754
-0.109099
-0.121486
-0.102121
-0.121214
-0.0951652
-0.120942
-0.0882385
-0.120679
-0.0813319
-0.120431
-0.0744204
-0.120209
-0.0674648
-0.120019
-0.0604172
-0.119868
-0.0532297
-0.119756
-0.0458635
-0.119681
-0.119637
-0.154238
-0.129374
0.159899
-0.148538
-0.129173
-0.142804
-0.128973
-0.137031
-0.128775
-0.131213
-0.128581
-0.125339
-0.128394
-0.119394
-0.128216
-0.113362
-0.128048
-0.107223
-0.127894
-0.100957
-0.127752
-0.0945464
-0.127624
-0.0879817
-0.127507
-0.0812612
-0.127399
-0.0743946
-0.127298
-0.0674042
-0.127199
-0.060322
-0.127101
-0.0531862
-0.127003
-0.046035
-0.126907
-0.0389007
-0.126815
-0.126732
-0.135163
-0.134668
0.140457
-0.12981
-0.134526
-0.124397
-0.134386
-0.118924
-0.134247
-0.113396
-0.134109
-0.107818
-0.133972
-0.102198
-0.133836
-0.0965471
-0.1337
-0.0908765
-0.133564
-0.0851989
-0.13343
-0.079525
-0.133298
-0.0738621
-0.13317
-0.0682127
-0.133049
-0.0625729
-0.132938
-0.0569329
-0.132839
-0.0512777
-0.132757
-0.0455898
-0.132691
-0.0398527
-0.132644
-0.0340535
-0.132614
-0.1326
-0.107314
-0.138823
0.111469
-0.103133
-0.138706
-0.0989282
-0.138591
-0.0946971
-0.138478
-0.0904373
-0.138369
-0.0861452
-0.138264
-0.0818161
-0.138165
-0.0774445
-0.138071
-0.0730242
-0.137984
-0.0685493
-0.137905
-0.064015
-0.137832
-0.0594184
-0.137766
-0.0547598
-0.137707
-0.0500436
-0.137654
-0.0452778
-0.137605
-0.0404742
-0.13756
-0.0356463
-0.137519
-0.0308084
-0.137482
-0.0259728
-0.13745
-0.137423
-0.0724133
-0.1418
0.0753903
-0.0694089
-0.141711
-0.0663808
-0.141619
-0.0633289
-0.14153
-0.0602531
-0.141445
-0.0571545
-0.141363
-0.0540349
-0.141285
-0.0508969
-0.141209
-0.0477442
-0.141137
-0.0445804
-0.141068
-0.0414094
-0.141003
-0.0382342
-0.140942
-0.0350566
-0.140885
-0.031877
-0.140833
-0.0286937
-0.140788
-0.0255036
-0.14075
-0.0223029
-0.14072
-0.0190872
-0.140698
-0.0158534
-0.140683
-0.140677
-0.0393322
-0.143403
0.0409353
-0.0377119
-0.143331
-0.0360747
-0.143256
-0.0344192
-0.143186
-0.0327444
-0.14312
-0.031049
-0.143058
-0.0293319
-0.143002
-0.0275917
-0.142949
-0.0258272
-0.142902
-0.0240373
-0.142858
-0.0222213
-0.142819
-0.0203789
-0.142784
-0.0185109
-0.142753
-0.0166189
-0.142725
-0.0147057
-0.142701
-0.0127752
-0.142681
-0.010832
-0.142663
-0.00888116
-0.142649
-0.0069275
-0.142637
-0.142629
-0.0206708
-0.144238
0.0215052
-0.0198223
-0.144179
-0.0189412
-0.144137
-0.0180284
-0.144099
-0.0170859
-0.144062
-0.016116
-0.144028
-0.015121
-0.143997
-0.0141034
-0.143967
-0.0130656
-0.143939
-0.0120102
-0.143914
-0.0109397
-0.14389
-0.00985647
-0.143867
-0.00876248
-0.143847
-0.0076594
-0.143828
-0.00654839
-0.143812
-0.00543016
-0.143799
-0.00430504
-0.143788
-0.00317319
-0.14378
-0.00203485
-0.143775
-0.143774
-0.0239101
-0.145203
0.0248755
-0.0229173
-0.145172
-0.0219017
-0.145153
-0.0208649
-0.145135
-0.0198083
-0.145119
-0.0187335
-0.145103
-0.0176421
-0.145088
-0.0165356
-0.145074
-0.0154151
-0.14506
-0.0142816
-0.145047
-0.013136
-0.145035
-0.0119792
-0.145024
-0.0108119
-0.145014
-0.00963524
-0.145005
-0.00845021
-0.144997
-0.00725822
-0.144991
-0.00606076
-0.144986
-0.00485947
-0.144982
-0.00365596
-0.144979
-0.144978
-0.0366621
-0.146809
0.038268
-0.0350274
-0.146807
-0.033398
-0.146782
-0.0317744
-0.146759
-0.030156
-0.146737
-0.0285418
-0.146717
-0.0269312
-0.146699
-0.0253237
-0.146681
-0.0237188
-0.146665
-0.0221161
-0.14665
-0.0205154
-0.146636
-0.0189163
-0.146623
-0.0173187
-0.146612
-0.0157222
-0.146602
-0.0141266
-0.146593
-0.0125315
-0.146586
-0.0109367
-0.14658
-0.00934178
-0.146577
-0.00774645
-0.146574
-0.146574
-0.0369929
-0.148387
0.0385712
-0.0354237
-0.148376
-0.0338579
-0.148348
-0.0322942
-0.148323
-0.0307321
-0.148299
-0.0291709
-0.148278
-0.0276097
-0.14826
-0.0260477
-0.148243
-0.0244842
-0.148228
-0.0229188
-0.148215
-0.0213511
-0.148203
-0.0197811
-0.148193
-0.0182085
-0.148184
-0.0166335
-0.148177
-0.0150564
-0.14817
-0.0134773
-0.148165
-0.0118968
-0.148161
-0.0103153
-0.148158
-0.00873342
-0.148156
-0.148155
-0.0216159
-0.149217
0.0224461
-0.0208009
-0.149191
-0.0199632
-0.149186
-0.019104
-0.149182
-0.0182252
-0.149178
-0.0173293
-0.149174
-0.0164184
-0.149171
-0.0154942
-0.149167
-0.0145586
-0.149164
-0.0136128
-0.149161
-0.0126582
-0.149158
-0.0116962
-0.149155
-0.0107278
-0.149153
-0.00975417
-0.14915
-0.00877615
-0.149148
-0.00779466
-0.149147
-0.00681053
-0.149145
-0.0058245
-0.149144
-0.0048373
-0.149143
-0.149143
-0.00820749
-0.149542
0.00853257
-0.00785243
-0.149546
-0.0074864
-0.149552
-0.00711204
-0.149556
-0.00673073
-0.149559
-0.00634365
-0.149561
-0.00595204
-0.149562
-0.00555691
-0.149562
-0.00515903
-0.149562
-0.00475898
-0.149561
-0.00435725
-0.14956
-0.00395419
-0.149558
-0.00355006
-0.149557
-0.00314509
-0.149555
-0.00273944
-0.149554
-0.00233324
-0.149553
-0.00192661
-0.149552
-0.00151964
-0.149551
-0.00111242
-0.149551
-0.14955
-0.00586957
-0.149832
0.00615862
-0.00557368
-0.149842
-0.00528349
-0.149842
-0.00499886
-0.149841
-0.00471961
-0.149839
-0.00444482
-0.149836
-0.00417342
-0.149834
-0.00390455
-0.149831
-0.00363751
-0.149829
-0.0033717
-0.149827
-0.00310663
-0.149825
-0.00284193
-0.149823
-0.00257731
-0.149821
-0.00231258
-0.14982
-0.00204763
-0.149819
-0.0017824
-0.149818
-0.00151689
-0.149817
-0.00125114
-0.149817
-0.000985218
-0.149816
-0.149816
-0.00414658
0.00431505
-0.00398868
-0.00383093
-0.00367181
-0.00351049
-0.00334674
-0.00318052
-0.00301183
-0.00284078
-0.00266752
-0.00249227
-0.00231522
-0.00213661
-0.00195666
-0.00177557
-0.00159358
-0.00141088
-0.00122767
-0.00104416
-0.0866369
-0.0163781
0.103015
-0.0643591
-0.0222778
-0.0550457
-0.00931335
-0.0436104
-0.0114354
-0.0363455
-0.0072649
-0.0290056
-0.00733989
-0.0231304
-0.00587515
-0.0177811
-0.00534929
-0.0131709
-0.00461028
-0.00917521
-0.00399566
-0.00580746
-0.00336775
-0.00306574
-0.00274171
-0.00094921
-0.00211653
0.00055429
-0.0015035
0.00147542
-0.000921128
0.00183601
-0.0003606
0.00169739
0.00013862
0.00117026
0.000527134
0.000461468
0.000708789
0.000461466
-0.111399
-0.0345348
0.129555
-0.096182
-0.0374946
-0.08249
-0.0230054
-0.0697877
-0.0241376
-0.0593173
-0.0177353
-0.0493197
-0.0173375
-0.0405767
-0.0146182
-0.0324701
-0.0134559
-0.0252105
-0.0118698
-0.0187187
-0.0104875
-0.0130526
-0.00903382
-0.00824564
-0.00754866
-0.00433408
-0.0060281
-0.00134437
-0.00449321
0.000708716
-0.00297422
0.00184387
-0.00149576
0.0021007
-0.000118205
0.00161797
0.00100986
0.000707628
0.00161913
0.00116909
-0.105557
-0.0481861
0.119208
-0.0960535
-0.046998
-0.0836018
-0.035457
-0.0735383
-0.0342012
-0.0630092
-0.0282645
-0.0536335
-0.0267131
-0.0446667
-0.023585
-0.0363827
-0.0217398
-0.0287447
-0.0195078
-0.0218187
-0.0174135
-0.0156793
-0.0151732
-0.0103938
-0.0128341
-0.00602102
-0.0104009
-0.00260142
-0.00791281
-0.000160944
-0.00541469
0.00130378
-0.00296048
0.00182371
-0.00063814
0.00151323
0.00132034
0.000687214
0.00244514
0.00185631
-0.0979385
-0.0577528
0.107505
-0.0903816
-0.0545549
-0.0801503
-0.0456883
-0.0715817
-0.0427697
-0.0620116
-0.0378346
-0.053394
-0.0353308
-0.0447588
-0.0322202
-0.0367194
-0.0297792
-0.0291379
-0.0270893
-0.0222057
-0.0243457
-0.0160157
-0.0213633
-0.0106789
-0.0181709
-0.00627528
-0.0148045
-0.00284833
-0.0113398
-0.000405694
-0.00785733
0.0010687
-0.00443488
0.00162967
-0.00119912
0.00138834
0.00156167
0.00063602
0.00319746
0.00249233
-0.0920464
-0.0647563
0.0990498
-0.0857181
-0.0608831
-0.0774258
-0.0539807
-0.0697172
-0.0504783
-0.0612303
-0.0463215
-0.0531105
-0.0434507
-0.0448838
-0.0404469
-0.0369874
-0.0376756
-0.0294122
-0.0346645
-0.0223777
-0.0313802
-0.016038
-0.0277029
-0.0105626
-0.0236463
-0.00607829
-0.0192888
-0.0026501
-0.0147679
-0.000272389
-0.010235
0.00111542
-0.00582269
0.00160754
-0.00169124
0.00134424
0.00182497
0.000609319
0.00393237
0.00310164
-0.0875349
-0.0697691
0.0925478
-0.0823059
-0.0661122
-0.0756605
-0.060626
-0.0688641
-0.0572746
-0.061416
-0.0537696
-0.0538628
-0.0510039
-0.0460897
-0.04822
-0.0383508
-0.0454145
-0.0307526
-0.0422628
-0.0235165
-0.0386163
-0.0168662
-0.0343533
-0.0110426
-0.0294699
-0.00625298
-0.0240784
-0.00262559
-0.0183953
-0.000176211
-0.0126844
0.00119135
-0.00719025
0.00162542
-0.00212531
0.00132395
0.00212643
0.000589088
0.00466724
0.00369073
-0.083852
-0.0734206
0.0875034
-0.0797407
-0.0702234
-0.0744588
-0.065908
-0.0687096
-0.0630238
-0.0622989
-0.0601804
-0.055494
-0.0578087
-0.0483045
-0.0554095
-0.0408852
-0.0528339
-0.033375
-0.049773
-0.0259884
-0.0460029
-0.0189879
-0.0413538
-0.0126779
-0.03578
-0.00736096
-0.0293954
-0.0032709
-0.0224854
-0.000500478
-0.0154549
0.00102775
-0.00871847
0.00151724
-0.0026148
0.00124098
0.00240269
0.000544619
0.00536359
0.00423535
-0.0806931
-0.0760258
0.0832984
-0.0775361
-0.0733804
-0.0734233
-0.0700208
-0.0687273
-0.0677198
-0.0633591
-0.0655486
-0.0574448
-0.063723
-0.0510047
-0.0618496
-0.04413
-0.0597086
-0.0369359
-0.056967
-0.0296048
-0.053334
-0.0223912
-0.0485674
-0.0156245
-0.0425467
-0.00968167
-0.0353382
-0.0049174
-0.0272497
-0.0015573
-0.018815
0.000388705
-0.0106645
0.00113235
-0.00335845
0.00101708
0.00251796
0.000450553
0.00593012
0.0046859
-0.0777601
-0.0779161
0.0796503
-0.0753846
-0.0757559
-0.0722195
-0.073186
-0.0684861
-0.0714531
-0.0641078
-0.0699269
-0.0591379
-0.0686929
-0.0535707
-0.0674167
-0.0474453
-0.065834
-0.0408267
-0.0635857
-0.0338384
-0.0603222
-0.0266818
-0.055724
-0.0196574
-0.0495712
-0.0131644
-0.0418312
-0.00765206
-0.032762
-0.00350154
-0.0229655
-0.000874025
-0.013292
0.000370958
-0.00460343
0.000597955
0.00229096
0.000293126
0.00623495
0.00497903
-0.0749687
-0.0793074
0.07636
-0.0731637
-0.0775608
-0.0707392
-0.0756105
-0.0678132
-0.0743791
-0.0643197
-0.0734204
-0.0602647
-0.072748
-0.0556176
-0.0720638
-0.0503717
-0.0710799
-0.0445354
-0.069422
-0.038158
-0.0666996
-0.0313567
-0.0625253
-0.0243552
-0.0565726
-0.0175145
-0.0486719
-0.0113216
-0.0389549
-0.00629223
-0.0279948
-0.00278009
-0.0168041
-0.000795731
-0.00658779
-7.84693e-06
0.00150307
7.74849e-05
0.00614961
0.00505651
-0.0723028
-0.0803846
0.07338
-0.0709075
-0.0789561
-0.0690373
-0.0774808
-0.0667647
-0.0766517
-0.0640298
-0.0761553
-0.060815
-0.0759628
-0.0570709
-0.0758078
-0.0527541
-0.0753967
-0.0478199
-0.0743562
-0.0422416
-0.0722779
-0.0360393
-0.0687276
-0.0293298
-0.0632822
-0.0223838
-0.0556178
-0.0156597
-0.045679
-0.00975573
-0.0338988
-0.00522563
-0.0213342
-0.0023044
-0.00950902
-0.000787253
-1.40743e-05
-0.000175743
0.0055381
0.00488077
-0.0697982
-0.0812612
0.0706748
-0.0686841
-0.0800702
-0.0672266
-0.0789383
-0.0654721
-0.0784062
-0.0633748
-0.0782526
-0.0609058
-0.0784318
-0.0580056
-0.078708
-0.0546037
-0.0787986
-0.0506119
-0.078348
-0.045936
-0.0769538