x,y,z,p
0,0,0,3.05782e-05
0,0.1,0,6.29033e-05
0,0.2,0,9.52283e-05
0,0.3,0,0.000133564
0,0.4,0,0.000177912
0,0.5,0,0.000222259
0,0.6,0,0.000266273
0,0.7,0,0.000310287
0,0.8,0,0.000354057
0,0.9,0,0.000397584
0,1,0,0.000441112
0,1.1,0,0.000483993
0,1.2,0,0.000526874
0,1.3,0,0.000569354
0,1.4,0,0.000611433
0,1.5,0,0.000653512
0,1.6,0,0.000694631
0,1.7,0,0.000735749
0,1.8,0,0.000776311
0,1.9,0,0.000816314
0,2,0,0.000856317
0,2.1,0,0.000895049
0,2.2,0,0.000933781
0,2.3,0,0.0009718
0,2.4,0,0.00100911
0,2.5,0,0.00104641
0,2.6,0,0.00108213
0,2.7,0,0.00111785
0,2.8,0,0.00115271
0,2.9,0,0.0011867
0,3,0,0.00122069
0,3.1,0,0.0012528
0,3.2,0,0.00128491
0,3.3,0,0.00131602
0,3.4,0,0.00134611
0,3.5,0,0.00137619
0,3.6,0,0.00140413
0,3.7,0,0.00143206
0,3.8,0,0.00145885
0,3.9,0,0.0014845
0,4,0,0.00151015
0,4.1,0,0.0015334
0,4.2,0,0.00155665
0,4.3,0,0.00157864
0,4.4,0,0.00159938
0,4.5,0,0.00162012
0,4.6,0,0.00163825
0,4.7,0,0.00165638
0,4.8,0,0.00167288
0,4.9,0,0.00168774
0,5,0,0.0017026
0,5.1,0,0.00171659
0,5.2,0,0.00173059
0,5.3,0,0.00174156
0,5.4,0,0.00175253
0,5.5,0,0.00176136
0,5.6,0,0.0017702
0,5.7,0,0.00177689
0,5.8,0,0.00178358
0,5.9,0,0.00178811
0,6,0,0.00179264
0,6.1,0,0.00179499
0,6.2,0,0.00179735
0,6.3,0,0.00179753
0,6.4,0,0.00179771
0,6.5,0,0.00179573
0,6.6,0,0.00179376
0,6.7,0,0.00178962
0,6.8,0,0.00178549
0,6.9,0,0.00177835
0,7,0,0.00177121
0,7.1,0,0.0017627
0,7.2,0,0.0017542
0,7.3,0,0.00174515
0,7.4,0,0.00173303
0,7.5,0,0.00172091
0,7.6,0,0.00170785
0,7.7,0,0.00169261
0,7.8,0,0.00167736
0,7.9,0,0.00166077
0,8,0,0.00164253
0,8.1,0,0.0016243
0,8.2,0,0.00160434
0,8.3,0,0.00158325
0,8.4,0,0.00156216
0,8.5,0,0.00153903
0,8.6,0,0.00151522
0,8.7,0,0.00149141
0,8.8,0,0.0014653
0,8.9,0,0.00143892
0,9,0,0.00141243
0,9.1,0,0.00138366
0,9.2,0,0.00135489
0,9.3,0,0.00132567
0,9.4,0,0.00129467
0,9.5,0,0.00126366
0,9.6,0,0.00123194
0,9.7,0,0.00119888
0,9.8,0,0.00116582
0,9.9,0,0.00113182
0,10,0,0.00109689
0,10.1,0,0.00106195
0,10.2,0,0.00102591
0,10.3,0,0.000989283
0,10.4,0,0.000952653
0,10.5,0,0.000914814
0,10.6,0,0.000876674
0,10.7,0,0.000838534
0,10.8,0,0.000799136
0,10.9,0,0.000759673
0,11,0,0.000720096
0,11.1,0,0.000679497
0,11.2,0,0.000638897
0,11.3,0,0.000598061
0,11.4,0,0.000556513
0,11.5,0,0.000514964
0,11.6,0,0.000473112
0,11.7,0,0.000430802
0,11.8,0,0.000388492
0,11.9,0,0.000345868
0,12,0,0.000302985
0,12.1,0,0.000260103
0,12.2,0,0.000216953
0,12.3,0,0.000173689
0,12.4,0,0.000130426
0,12.5,0,9.70802e-05
0,12.6,0,6.54852e-05
0,12.7,0,3.38902e-05
0.1,0,0,2.65011e-05
0.1,0.1,0,5.88524e-05
0.1,0.2,0,9.11774e-05
0.1,0.3,0,0.000133608
0.1,0.4,0,0.000177955
0.1,0.5,0,0.000222547
0.1,0.6,0,0.00026634
0.1,0.7,0,0.000310354
0.1,0.8,0,0.000354152
0.1,0.9,0,0.000397679
0.1,1,0,0.00044165
0.1,1.1,0,0.000484114
0.1,1.2,0,0.000526995
0.1,1.3,0,0.000569501
0.1,1.4,0,0.00061158
0.1,1.5,0,0.000654215
0.1,1.6,0,0.000694804
0.1,1.7,0,0.000735923
0.1,1.8,0,0.00077651
0.1,1.9,0,0.000816513
0.1,2,0,0.000857084
0.1,2.1,0,0.000895274
0.1,2.2,0,0.000934006
0.1,2.3,0,0.000972051
0.1,2.4,0,0.00100936
0.1,2.5,0,0.00104715
0.1,2.6,0,0.00108241
0.1,2.7,0,0.00111813
0.1,2.8,0,0.00115301
0.1,2.9,0,0.001187
0.1,3,0,0.00122133
0.1,3.1,0,0.00125313
0.1,3.2,0,0.00128524
0.1,3.3,0,0.00131636
0.1,3.4,0,0.00134645
0.1,3.5,0,0.00137673
0.1,3.6,0,0.0014045
0.1,3.7,0,0.00143243
0.1,3.8,0,0.00145924
0.1,3.9,0,0.00148489
0.1,4,0,0.00151059
0.1,4.1,0,0.00153381
0.1,4.2,0,0.00155706
0.1,4.3,0,0.00157907
0.1,4.4,0,0.00159981
0.1,4.5,0,0.00162054
0.1,4.6,0,0.00163869
0.1,4.7,0,0.00165682
0.1,4.8,0,0.00167353
0.1,4.9,0,0.00168839
0.1,5,0,0.00170308
0.1,5.1,0,0.00171711
0.1,5.2,0,0.0017311
0.1,5.3,0,0.00174185
0.1,5.4,0,0.00175308
0.1,5.5,0,0.00176165
0.1,5.6,0,0.00177079
0.1,5.7,0,0.00177718
0.1,5.8,0,0.00178421
0.1,5.9,0,0.0017884
0.1,6,0,0.00179329
0.1,6.1,0,0.00179528
0.1,6.2,0,0.00179801
0.1,6.3,0,0.00179781
0.1,6.4,0,0.00179837
0.1,6.5,0,0.00179602
0.1,6.6,0,0.00179441
0.1,6.7,0,0.00178991
0.1,6.8,0,0.00178613
0.1,6.9,0,0.00177886
0.1,7,0,0.00177187
0.1,7.1,0,0.00176347
0.1,7.2,0,0.00175496
0.1,7.3,0,0.0017458
0.1,7.4,0,0.00173363
0.1,7.5,0,0.00172151
0.1,7.6,0,0.00170846
0.1,7.7,0,0.00169319
0.1,7.8,0,0.00167795
0.1,7.9,0,0.00166133
0.1,8,0,0.00164309
0.1,8.1,0,0.00162485
0.1,8.2,0,0.00160487
0.1,8.3,0,0.00158378
0.1,8.4,0,0.00156286
0.1,8.5,0,0.00153953
0.1,8.6,0,0.00151572
0.1,8.7,0,0.0014924
0.1,8.8,0,0.00146577
0.1,8.9,0,0.0014394
0.1,9,0,0.00141363
0.1,9.1,0,0.0013841
0.1,9.2,0,0.00135533
0.1,9.3,0,0.00132657
0.1,9.4,0,0.00129507
0.1,9.5,0,0.00126407
0.1,9.6,0,0.00123241
0.1,9.7,0,0.00119925
0.1,9.8,0,0.00116619
0.1,9.9,0,0.00113216
0.1,10,0,0.00109723
0.1,10.1,0,0.0010624
0.1,10.2,0,0.00102622
0.1,10.3,0,0.000989588
0.1,10.4,0,0.000953607
0.1,10.5,0,0.000915083
0.1,10.6,0,0.000876943
0.1,10.7,0,0.000839978
0.1,10.8,0,0.00079937
0.1,10.9,0,0.000759907
0.1,11,0,0.000721266
0.1,11.1,0,0.000679695
0.1,11.2,0,0.000639096
0.1,11.3,0,0.000598633
0.1,11.4,0,0.000556675
0.1,11.5,0,0.000515127
0.1,11.6,0,0.000473239
0.1,11.7,0,0.000430929
0.1,11.8,0,0.000388619
0.1,11.9,0,0.000345958
0.1,12,0,0.000303076
0.1,12.1,0,0.000260307
0.1,12.2,0,0.000217007
0.1,12.3,0,0.000173744
0.1,12.4,0,0.00013064
0.1,12.5,0,9.25919e-05
0.1,12.6,0,6.09969e-05
0.1,12.7,0,2.93715e-05
0.2,0,0,2.2424e-05
0.2,0.1,0,5.48015e-05
0.2,0.2,0,8.92237e-05
0.2,0.3,0,0.000133701
0.2,0.4,0,0.000177999
0.2,0.5,0,0.000222835
0.2,0.6,0,0.000266408
0.2,0.7,0,0.000310599
0.2,0.8,0,0.00035441
0.2,0.9,0,0.000397773
0.2,1,0,0.000442188
0.2,1.1,0,0.000484234
0.2,1.2,0,0.000527372
0.2,1.3,0,0.000569891
0.2,1.4,0,0.000611727
0.2,1.5,0,0.000654918
0.2,1.6,0,0.000694977
0.2,1.7,0,0.000736383
0.2,1.8,0,0.000776983
0.2,1.9,0,0.000816712
0.2,2,0,0.000857851
0.2,2.1,0,0.000895499
0.2,2.2,0,0.0009345
0.2,2.3,0,0.000972558
0.2,2.4,0,0.00100961
0.2,2.5,0,0.00104788
0.2,2.6,0,0.00108269
0.2,2.7,0,0.00111862
0.2,2.8,0,0.00115351
0.2,2.9,0,0.0011873
0.2,3,0,0.00122198
0.2,3.1,0,0.00125345
0.2,3.2,0,0.0012857
0.2,3.3,0,0.00131683
0.2,3.4,0,0.0013468
0.2,3.5,0,0.00137726
0.2,3.6,0,0.00140487
0.2,3.7,0,0.00143286
0.2,3.8,0,0.00145968
0.2,3.9,0,0.00148528
0.2,4,0,0.00151103
0.2,4.1,0,0.00153422
0.2,4.2,0,0.00155748
0.2,4.3,0,0.0015795
0.2,4.4,0,0.00160024
0.2,4.5,0,0.00162097
0.2,4.6,0,0.00163913
0.2,4.7,0,0.00165727
0.2,4.8,0,0.00167409
0.2,4.9,0,0.00168904
0.2,5,0,0.00170356
0.2,5.1,0,0.00171764
0.2,5.2,0,0.00173161
0.2,5.3,0,0.00174213
0.2,5.4,0,0.00175364
0.2,5.5,0,0.00176193
0.2,5.6,0,0.00177139
0.2,5.7,0,0.00177747
0.2,5.8,0,0.00178483
0.2,5.9,0,0.00178869
0.2,6,0,0.00179393
0.2,6.1,0,0.00179557
0.2,6.2,0,0.00179867
0.2,6.3,0,0.0017981
0.2,6.4,0,0.00179903
0.2,6.5,0,0.0017963
0.2,6.6,0,0.00179506
0.2,6.7,0,0.0017902
0.2,6.8,0,0.00178676
0.2,6.9,0,0.00177937
0.2,7,0,0.00177252
0.2,7.1,0,0.00176424
0.2,7.2,0,0.00175573
0.2,7.3,0,0.00174649
0.2,7.4,0,0.00173424
0.2,7.5,0,0.00172213
0.2,7.6,0,0.00170917
0.2,7.7,0,0.00169377
0.2,7.8,0,0.00167864
0.2,7.9,0,0.00166206
0.2,8,0,0.00164364
0.2,8.1,0,0.00162572
0.2,8.2,0,0.00160555
0.2,8.3,0,0.00158431
0.2,8.4,0,0.00156388
0.2,8.5,0,0.00154005
0.2,8.6,0,0.00151622
0.2,8.7,0,0.00149356
0.2,8.8,0,0.00146624
0.2,8.9,0,0.00143987
0.2,9,0,0.00141493
0.2,9.1,0,0.00138454
0.2,9.2,0,0.00135577
0.2,9.3,0,0.00132801
0.2,9.4,0,0.00129548
0.2,9.5,0,0.00126481
0.2,9.6,0,0.00123396
0.2,9.7,0,0.00119963
0.2,9.8,0,0.00116743
0.2,9.9,0,0.00113339
0.2,10,0,0.00109757
0.2,10.1,0,0.00106407
0.2,10.2,0,0.00102692
0.2,10.3,0,0.000989892
0.2,10.4,0,0.000955282
0.2,10.5,0,0.000915353
0.2,10.6,0,0.000877212
0.2,10.7,0,0.000841601
0.2,10.8,0,0.000799603
0.2,10.9,0,0.00076014
0.2,11,0,0.000722783
0.2,11.1,0,0.000679893
0.2,11.2,0,0.000639324
0.2,11.3,0,0.000599994
0.2,11.4,0,0.000556838
0.2,11.5,0,0.000515708
0.2,11.6,0,0.00047434
0.2,11.7,0,0.000431056
0.2,11.8,0,0.000389384
0.2,11.9,0,0.000346501
0.2,12,0,0.000303167
0.2,12.1,0,0.000260934
0.2,12.2,0,0.000217152
0.2,12.3,0,0.000173798
0.2,12.4,0,0.000130958
0.2,12.5,0,8.81036e-05
0.2,12.6,0,5.65086e-05
0.2,12.7,0,2.48528e-05
0.3,0,0,1.83469e-05
0.3,0.1,0,5.07506e-05
0.3,0.2,0,8.93671e-05
0.3,0.3,0,0.000133845
0.3,0.4,0,0.000178042
0.3,0.5,0,0.000223124
0.3,0.6,0,0.000266476
0.3,0.7,0,0.000311021
0.3,0.8,0,0.000354832
0.3,0.9,0,0.000397868
0.3,1,0,0.000442726
0.3,1.1,0,0.000484355
0.3,1.2,0,0.000528005
0.3,1.3,0,0.000570524
0.3,1.4,0,0.000611873
0.3,1.5,0,0.000655621
0.3,1.6,0,0.00069515
0.3,1.7,0,0.000737131
0.3,1.8,0,0.000777731
0.3,1.9,0,0.000816911
0.3,2,0,0.000858619
0.3,2.1,0,0.000895723
0.3,2.2,0,0.000935262
0.3,2.3,0,0.00097332
0.3,2.4,0,0.00100986
0.3,2.5,0,0.00104862
0.3,2.6,0,0.00108296
0.3,2.7,0,0.00111931
0.3,2.8,0,0.00115421
0.3,2.9,0,0.0011876
0.3,3,0,0.00122262
0.3,3.1,0,0.00125378
0.3,3.2,0,0.00128628
0.3,3.3,0,0.00131742
0.3,3.4,0,0.00134715
0.3,3.5,0,0.00137779
0.3,3.6,0,0.00140524
0.3,3.7,0,0.00143334
0.3,3.8,0,0.00146016
0.3,3.9,0,0.00148567
0.3,4,0,0.00151147
0.3,4.1,0,0.00153463
0.3,4.2,0,0.0015579
0.3,4.3,0,0.00157992
0.3,4.4,0,0.00160066
0.3,4.5,0,0.0016214
0.3,4.6,0,0.00163957
0.3,4.7,0,0.00165773
0.3,4.8,0,0.00167455
0.3,4.9,0,0.0016897
0.3,5,0,0.00170404
0.3,5.1,0,0.00171816
0.3,5.2,0,0.00173211
0.3,5.3,0,0.00174242
0.3,5.4,0,0.00175419
0.3,5.5,0,0.00176222
0.3,5.6,0,0.00177198
0.3,5.7,0,0.00177775
0.3,5.8,0,0.00178546
0.3,5.9,0,0.00178898
0.3,6,0,0.00179458
0.3,6.1,0,0.00179586
0.3,6.2,0,0.00179933
0.3,6.3,0,0.00179839
0.3,6.4,0,0.0017997
0.3,6.5,0,0.00179659
0.3,6.6,0,0.00179572
0.3,6.7,0,0.00179049
0.3,6.8,0,0.0017874
0.3,6.9,0,0.00177989
0.3,7,0,0.00177318
0.3,7.1,0,0.00176497
0.3,7.2,0,0.00175644
0.3,7.3,0,0.00174718
0.3,7.4,0,0.00173484
0.3,7.5,0,0.00172284
0.3,7.6,0,0.00170987
0.3,7.7,0,0.00169436
0.3,7.8,0,0.00167941
0.3,7.9,0,0.00166284
0.3,8,0,0.0016442
0.3,8.1,0,0.00162661
0.3,8.2,0,0.00160644
0.3,8.3,0,0.00158484
0.3,8.4,0,0.0015649
0.3,8.5,0,0.00154107
0.3,8.6,0,0.0015168
0.3,8.7,0,0.00149473
0.3,8.8,0,0.00146715
0.3,8.9,0,0.00144076
0.3,9,0,0.00141624
0.3,9.1,0,0.00138519
0.3,9.2,0,0.0013571
0.3,9.3,0,0.00132945
0.3,9.4,0,0.00129589
0.3,9.5,0,0.00126636
0.3,9.6,0,0.00123551
0.3,9.7,0,0.0012
0.3,9.8,0,0.00116907
0.3,9.9,0,0.00113502
0.3,10,0,0.00109791
0.3,10.1,0,0.00106575
0.3,10.2,0,0.0010286
0.3,10.3,0,0.000990197
0.3,10.4,0,0.000956958
0.3,10.5,0,0.00091688
0.3,10.6,0,0.000877802
0.3,10.7,0,0.000843223
0.3,10.8,0,0.000800531
0.3,10.9,0,0.000761184
0.3,11,0,0.0007243
0.3,11.1,0,0.00068023
0.3,11.2,0,0.000640685
0.3,11.3,0,0.000601354
0.3,11.4,0,0.000557
0.3,11.5,0,0.000516863
0.3,11.6,0,0.000475496
0.3,11.7,0,0.000431183
0.3,11.8,0,0.000390293
0.3,11.9,0,0.000347411
0.3,12,0,0.000303258
0.3,12.1,0,0.000261561
0.3,12.2,0,0.000217779
0.3,12.3,0,0.000173852
0.3,12.4,0,0.000131277
0.3,12.5,0,8.72836e-05
0.3,12.6,0,5.20091e-05
0.3,12.7,0,2.03341e-05
0.4,0,0,1.42698e-05
0.4,0.1,0,4.66735e-05
0.4,0.2,0,8.95106e-05
0.4,0.3,0,0.000133988
0.4,0.4,0,0.00017833
0.4,0.5,0,0.000223412
0.4,0.6,0,0.000266764
0.4,0.7,0,0.000311443
0.4,0.8,0,0.000355254
0.4,0.9,0,0.000398406
0.4,1,0,0.000443264
0.4,1.1,0,0.000484893
0.4,1.2,0,0.000528637
0.4,1.3,0,0.000571157
0.4,1.4,0,0.000612577
0.4,1.5,0,0.000656324
0.4,1.6,0,0.000695853
0.4,1.7,0,0.000737879
0.4,1.8,0,0.000778479
0.4,1.9,0,0.000817678
0.4,2,0,0.000859386
0.4,2.1,0,0.000896491
0.4,2.2,0,0.000936025
0.4,2.3,0,0.000974083
0.4,2.4,0,0.0010106
0.4,2.5,0,0.00104936
0.4,2.6,0,0.0010837
0.4,2.7,0,0.00112001
0.4,2.8,0,0.0011549
0.4,2.9,0,0.00118825
0.4,3,0,0.00122327
0.4,3.1,0,0.00125442
0.4,3.2,0,0.00128687
0.4,3.3,0,0.00131801
0.4,3.4,0,0.00134768
0.4,3.5,0,0.00137832
0.4,3.6,0,0.00140577
0.4,3.7,0,0.00143382
0.4,3.8,0,0.00146064
0.4,3.9,0,0.00148611
0.4,4,0,0.00151192
0.4,4.1,0,0.00153507
0.4,4.2,0,0.00155832
0.4,4.3,0,0.00158034
0.4,4.4,0,0.00160109
0.4,4.5,0,0.00162183
0.4,4.6,0,0.00164
0.4,4.7,0,0.0016582
0.4,4.8,0,0.00167501
0.4,4.9,0,0.00169018
0.4,5,0,0.00170452
0.4,5.1,0,0.00171867
0.4,5.2,0,0.00173262
0.4,5.3,0,0.00174282
0.4,5.4,0,0.00175474
0.4,5.5,0,0.00176265
0.4,5.6,0,0.00177258
0.4,5.7,0,0.0017782
0.4,5.8,0,0.00178608
0.4,5.9,0,0.00178944
0.4,6,0,0.00179522
0.4,6.1,0,0.00179633
0.4,6.2,0,0.00179999
0.4,6.3,0,0.00179887
0.4,6.4,0,0.00180036
0.4,6.5,0,0.00179706
0.4,6.6,0,0.00179637
0.4,6.7,0,0.00179096
0.4,6.8,0,0.00178804
0.4,6.9,0,0.00178047
0.4,7,0,0.00177383
0.4,7.1,0,0.00176562
0.4,7.2,0,0.00175713
0.4,7.3,0,0.00174787
0.4,7.4,0,0.00173553
0.4,7.5,0,0.00172354
0.4,7.6,0,0.00171058
0.4,7.7,0,0.00169501
0.4,7.8,0,0.00168019
0.4,7.9,0,0.00166362
0.4,8,0,0.0016449
0.4,8.1,0,0.00162749
0.4,8.2,0,0.00160733
0.4,8.3,0,0.00158572
0.4,8.4,0,0.00156592
0.4,8.5,0,0.00154209
0.4,8.6,0,0.00151796
0.4,8.7,0,0.00149589
0.4,8.8,0,0.00146831
0.4,8.9,0,0.00144207
0.4,9,0,0.00141755
0.4,9.1,0,0.00138649
0.4,9.2,0,0.00135854
0.4,9.3,0,0.00133089
0.4,9.4,0,0.00129717
0.4,9.5,0,0.00126792
0.4,9.6,0,0.00123707
0.4,9.7,0,0.00120097
0.4,9.8,0,0.0011707
0.4,9.9,0,0.00113666
0.4,10,0,0.00109891
0.4,10.1,0,0.00106743
0.4,10.2,0,0.00103028
0.4,10.3,0,0.000991656
0.4,10.4,0,0.000958634
0.4,10.5,0,0.000918556
0.4,10.6,0,0.000879425
0.4,10.7,0,0.000844846
0.4,10.8,0,0.000802154
0.4,10.9,0,0.000762701
0.4,11,0,0.000725818
0.4,11.1,0,0.000681747
0.4,11.2,0,0.000642045
0.4,11.3,0,0.000602714
0.4,11.4,0,0.000558014
0.4,11.5,0,0.000518019
0.4,11.6,0,0.000476652
0.4,11.7,0,0.000431778
0.4,11.8,0,0.000391202
0.4,11.9,0,0.00034832
0.4,12,0,0.000303659
0.4,12.1,0,0.000262189
0.4,12.2,0,0.000218407
0.4,12.3,0,0.000174163
0.4,12.4,0,0.000131595
0.4,12.5,0,8.76021e-05
0.4,12.6,0,4.74904e-05
0.4,12.7,0,1.58154e-05
0.5,0,0,1.01927e-05
0.5,0.1,0,4.46936e-05
0.5,0.2,0,8.9654e-05
0.5,0.3,0,0.000134132
0.5,0.4,0,0.000178669
0.5,0.5,0,0.0002237
0.5,0.6,0,0.000267229
0.5,0.7,0,0.000311866
0.5,0.8,0,0.000355676
0.5,0.9,0,0.000399108
0.5,1,0,0.000443802
0.5,1.1,0,0.000485687
0.5,1.2,0,0.00052927
0.5,1.3,0,0.000571789
0.5,1.4,0,0.000613523
0.5,1.5,0,0.000657027
0.5,1.6,0,0.000696843
0.5,1.7,0,0.000738627
0.5,1.8,0,0.000779227
0.5,1.9,0,0.00081872
0.5,2,0,0.000860153
0.5,2.1,0,0.000897527
0.5,2.2,0,0.000936788
0.5,2.3,0,0.000974846
0.5,2.4,0,0.00101159
0.5,2.5,0,0.0010501
0.5,2.6,0,0.00108465
0.5,2.7,0,0.00112071
0.5,2.8,0,0.0011556
0.5,2.9,0,0.00118909
0.5,3,0,0.00122391
0.5,3.1,0,0.0012552
0.5,3.2,0,0.00128746
0.5,3.3,0,0.00131859
0.5,3.4,0,0.00134833
0.5,3.5,0,0.00137885
0.5,3.6,0,0.00140636
0.5,3.7,0,0.0014343
0.5,3.8,0,0.00146112
0.5,3.9,0,0.0014866
0.5,4,0,0.00151236
0.5,4.1,0,0.00153552
0.5,4.2,0,0.00155874
0.5,4.3,0,0.00158076
0.5,4.4,0,0.00160152
0.5,4.5,0,0.00162226
0.5,4.6,0,0.00164044
0.5,4.7,0,0.00165866
0.5,4.8,0,0.00167547
0.5,4.9,0,0.00169056
0.5,5,0,0.001705
0.5,5.1,0,0.00171913
0.5,5.2,0,0.00173313
0.5,5.3,0,0.0017436
0.5,5.4,0,0.0017553
0.5,5.5,0,0.00176351
0.5,5.6,0,0.00177317
0.5,5.7,0,0.00177913
0.5,5.8,0,0.0017867
0.5,5.9,0,0.00179042
0.5,6,0,0.00179587
0.5,6.1,0,0.00179735
0.5,6.2,0,0.00180065
0.5,6.3,0,0.0017999
0.5,6.4,0,0.00180103
0.5,6.5,0,0.00179809
0.5,6.6,0,0.00179703
0.5,6.7,0,0.00179196
0.5,6.8,0,0.00178867
0.5,6.9,0,0.00178125
0.5,7,0,0.00177449
0.5,7.1,0,0.00176627
0.5,7.2,0,0.00175782
0.5,7.3,0,0.00174855
0.5,7.4,0,0.00173627
0.5,7.5,0,0.00172425
0.5,7.6,0,0.00171129
0.5,7.7,0,0.0016959
0.5,7.8,0,0.00168097
0.5,7.9,0,0.00166439
0.5,8,0,0.00164601
0.5,8.1,0,0.00162838
0.5,8.2,0,0.00160822
0.5,8.3,0,0.00158702
0.5,8.4,0,0.00156694
0.5,8.5,0,0.00154311
0.5,8.6,0,0.00151933
0.5,8.7,0,0.00149706
0.5,8.8,0,0.00146948
0.5,8.9,0,0.00144337
0.5,9,0,0.00141886
0.5,9.1,0,0.00138806
0.5,9.2,0,0.00135999
0.5,9.3,0,0.00133233
0.5,9.4,0,0.00129936
0.5,9.5,0,0.00126947
0.5,9.6,0,0.00123862
0.5,9.7,0,0.00120378
0.5,9.8,0,0.00117234
0.5,9.9,0,0.0011383
0.5,10,0,0.00110189
0.5,10.1,0,0.00106911
0.5,10.2,0,0.00103196
0.5,10.3,0,0.000994236
0.5,10.4,0,0.00096031
0.5,10.5,0,0.000920232
0.5,10.6,0,0.000881417
0.5,10.7,0,0.000846468
0.5,10.8,0,0.000803776
0.5,10.9,0,0.000764219
0.5,11,0,0.000727335
0.5,11.1,0,0.000683723
0.5,11.2,0,0.000643405
0.5,11.3,0,0.000604075
0.5,11.4,0,0.000560158
0.5,11.5,0,0.000519175
0.5,11.6,0,0.000477807
0.5,11.7,0,0.000433716
0.5,11.8,0,0.000392112
0.5,11.9,0,0.000349229
0.5,12,0,0.00030504
0.5,12.1,0,0.000262816
0.5,12.2,0,0.000219034
0.5,12.3,0,0.000174784
0.5,12.4,0,0.000131914
0.5,12.5,0,8.79205e-05
0.5,12.6,0,4.36042e-05
0.5,12.7,0,1.12967e-05
0.6,0,0,6.11565e-06
0.6,0.1,0,4.48108e-05
0.6,0.2,0,8.97974e-05
0.6,0.3,0,0.000134275
0.6,0.4,0,0.000179057
0.6,0.5,0,0.000223988
0.6,0.6,0,0.000267872
0.6,0.7,0,0.000312288
0.6,0.8,0,0.000356099
0.6,0.9,0,0.000399974
0.6,1,0,0.00044434
0.6,1.1,0,0.000486738
0.6,1.2,0,0.000529903
0.6,1.3,0,0.000572422
0.6,1.4,0,0.000614712
0.6,1.5,0,0.000657731
0.6,1.6,0,0.000698122
0.6,1.7,0,0.000739375
0.6,1.8,0,0.000779975
0.6,1.9,0,0.000820036
0.6,2,0,0.00086092
0.6,2.1,0,0.000898832
0.6,2.2,0,0.00093755
0.6,2.3,0,0.000975608
0.6,2.4,0,0.00101284
0.6,2.5,0,0.00105083
0.6,2.6,0,0.0010858
0.6,2.7,0,0.0011214
0.6,2.8,0,0.00115629
0.6,2.9,0,0.00119013
0.6,3,0,0.00122456
0.6,3.1,0,0.0012561
0.6,3.2,0,0.00128804
0.6,3.3,0,0.00131918
0.6,3.4,0,0.0013491
0.6,3.5,0,0.00137938
0.6,3.6,0,0.001407
0.6,3.7,0,0.00143478
0.6,3.8,0,0.0014616
0.6,3.9,0,0.00148713
0.6,4,0,0.0015128
0.6,4.1,0,0.00153597
0.6,4.2,0,0.00155916
0.6,4.3,0,0.00158118
0.6,4.4,0,0.00160194
0.6,4.5,0,0.00162269
0.6,4.6,0,0.00164089
0.6,4.7,0,0.00165912
0.6,4.8,0,0.00167593
0.6,4.9,0,0.00169085
0.6,5,0,0.00170548
0.6,5.1,0,0.0017196
0.6,5.2,0,0.00173364
0.6,5.3,0,0.00174438
0.6,5.4,0,0.00175585
0.6,5.5,0,0.00176437
0.6,5.6,0,0.00177376
0.6,5.7,0,0.00178006
0.6,5.8,0,0.00178733
0.6,5.9,0,0.0017914
0.6,6,0,0.00179651
0.6,6.1,0,0.00179837
0.6,6.2,0,0.00180131
0.6,6.3,0,0.00180094
0.6,6.4,0,0.00180169
0.6,6.5,0,0.00179912
0.6,6.6,0,0.00179768
0.6,6.7,0,0.00179296
0.6,6.8,0,0.00178931
0.6,6.9,0,0.00178203
0.6,7,0,0.00177515
0.6,7.1,0,0.00176684
0.6,7.2,0,0.00175842
0.6,7.3,0,0.00174924
0.6,7.4,0,0.00173706
0.6,7.5,0,0.00172499
0.6,7.6,0,0.00171199
0.6,7.7,0,0.0016968
0.6,7.8,0,0.00168174
0.6,7.9,0,0.00166517
0.6,8,0,0.00164712
0.6,8.1,0,0.00162927
0.6,8.2,0,0.00160914
0.6,8.3,0,0.0015884
0.6,8.4,0,0.00156796
0.6,8.5,0,0.00154444
0.6,8.6,0,0.00152101
0.6,8.7,0,0.00149822
0.6,8.8,0,0.00147137
0.6,8.9,0,0.00144537
0.6,9,0,0.00142017
0.6,9.1,0,0.00139037
0.6,9.2,0,0.00136195
0.6,9.3,0,0.00133377
0.6,9.4,0,0.00130195
0.6,9.5,0,0.00127124
0.6,9.6,0,0.00124017
0.6,9.7,0,0.0012066
0.6,9.8,0,0.00117397
0.6,9.9,0,0.00113993
0.6,10,0,0.00110486
0.6,10.1,0,0.00107079
0.6,10.2,0,0.00103392
0.6,10.3,0,0.000997286
0.6,10.4,0,0.000961986
0.6,10.5,0,0.000922727
0.6,10.6,0,0.000884446
0.6,10.7,0,0.000848091
0.6,10.8,0,0.000806683
0.6,10.9,0,0.000766942
0.6,11,0,0.000728852
0.6,11.1,0,0.000686403
0.6,11.2,0,0.000645391
0.6,11.3,0,0.000605435
0.6,11.4,0,0.000562512
0.6,11.5,0,0.000520425
0.6,11.6,0,0.000478963
0.6,11.7,0,0.000435654
0.6,11.8,0,0.000393021
0.6,11.9,0,0.000350138
0.6,12,0,0.000306486
0.6,12.1,0,0.000263444
0.6,12.2,0,0.000219752
0.6,12.3,0,0.000175675
0.6,12.4,0,0.000132232
0.6,12.5,0,8.82166e-05
0.6,12.6,0,4.38922e-05
0.6,12.7,0,6.77803e-06
0.7,0,0,2.03855e-06
0.7,0.1,0,4.4928e-05
0.7,0.2,0,8.99146e-05
0.7,0.3,0,0.000134663
0.7,0.4,0,0.000179445
0.7,0.5,0,0.000224276
0.7,0.6,0,0.000268515
0.7,0.7,0,0.00031293
0.7,0.8,0,0.000356964
0.7,0.9,0,0.000400839
0.7,1,0,0.000444878
0.7,1.1,0,0.000487788
0.7,1.2,0,0.000530953
0.7,1.3,0,0.000573611
0.7,1.4,0,0.000615901
0.7,1.5,0,0.000658434
0.7,1.6,0,0.0006994
0.7,1.7,0,0.000740653
0.7,1.8,0,0.000781291
0.7,1.9,0,0.000821352
0.7,2,0,0.000861687
0.7,2.1,0,0.000900137
0.7,2.2,0,0.000938855
0.7,2.3,0,0.000976857
0.7,2.4,0,0.00101409
0.7,2.5,0,0.00105157
0.7,2.6,0,0.00108696
0.7,2.7,0,0.00112256
0.7,2.8,0,0.00115733
0.7,2.9,0,0.00119117
0.7,3,0,0.0012252
0.7,3.1,0,0.00125701
0.7,3.2,0,0.00128895
0.7,3.3,0,0.00131995
0.7,3.4,0,0.00134987
0.7,3.5,0,0.00137991
0.7,3.6,0,0.00140764
0.7,3.7,0,0.00143542
0.7,3.8,0,0.00146213
0.7,3.9,0,0.00148766
0.7,4,0,0.00151324
0.7,4.1,0,0.00153643
0.7,4.2,0,0.00155962
0.7,4.3,0,0.0015816
0.7,4.4,0,0.00160236
0.7,4.5,0,0.00162312
0.7,4.6,0,0.00164134
0.7,4.7,0,0.00165957
0.7,4.8,0,0.00167622
0.7,4.9,0,0.00169114
0.7,5,0,0.00170596
0.7,5.1,0,0.00172007
0.7,5.2,0,0.00173415
0.7,5.3,0,0.00174515
0.7,5.4,0,0.0017564
0.7,5.5,0,0.00176523
0.7,5.6,0,0.00177436
0.7,5.7,0,0.00178099
0.7,5.8,0,0.00178795
0.7,5.9,0,0.00179238
0.7,6,0,0.00179716
0.7,6.1,0,0.00179938
0.7,6.2,0,0.00180196
0.7,6.3,0,0.00180197
0.7,6.4,0,0.00180236
0.7,6.5,0,0.00180016
0.7,6.6,0,0.00179833
0.7,6.7,0,0.00179396
0.7,6.8,0,0.00178995
0.7,6.9,0,0.00178281
0.7,7,0,0.0017758
0.7,7.1,0,0.00176742
0.7,7.2,0,0.001759
0.7,7.3,0,0.00174993
0.7,7.4,0,0.00173785
0.7,7.5,0,0.00172578
0.7,7.6,0,0.00171275
0.7,7.7,0,0.00169769
0.7,7.8,0,0.00168264
0.7,7.9,0,0.00166617
0.7,8,0,0.00164823
0.7,8.1,0,0.00163028
0.7,8.2,0,0.00161052
0.7,8.3,0,0.00158978
0.7,8.4,0,0.00156903
0.7,8.5,0,0.00154612
0.7,8.6,0,0.00152269
0.7,8.7,0,0.00149938
0.7,8.8,0,0.00147337
0.7,8.9,0,0.00144737
0.7,9,0,0.00142147
0.7,9.1,0,0.00139268
0.7,9.2,0,0.00136426
0.7,9.3,0,0.00133524
0.7,9.4,0,0.00130454
0.7,9.5,0,0.00127383
0.7,9.6,0,0.00124226
0.7,9.7,0,0.00120942
0.7,9.8,0,0.00117657
0.7,9.9,0,0.00114266
0.7,10,0,0.00110784
0.7,10.1,0,0.00107301
0.7,10.2,0,0.00103697
0.7,10.3,0,0.00100034
0.7,10.4,0,0.000963698
0.7,10.5,0,0.000925756
0.7,10.6,0,0.000887475
0.7,10.7,0,0.000849713
0.7,10.8,0,0.000809589
0.7,10.9,0,0.000769848
0.7,11,0,0.000730369
0.7,11.1,0,0.000689082
0.7,11.2,0,0.00064807
0.7,11.3,0,0.000606952
0.7,11.4,0,0.000564865
0.7,11.5,0,0.000522779
0.7,11.6,0,0.000480551
0.7,11.7,0,0.000437592
0.7,11.8,0,0.000394634
0.7,11.9,0,0.000351555
0.7,12,0,0.000307932
0.7,12.1,0,0.000264308
0.7,12.2,0,0.000220644
0.7,12.3,0,0.000176567
0.7,12.4,0,0.00013255
0.7,12.5,0,8.85047e-05
0.7,12.6,0,4.41803e-05
0.7,12.7,0,2.25934e-06
0.8,0,0,0
0.8,0.1,0,4.50673e-05
0.8,0.2,0,9.00539e-05
0.8,0.3,0,0.000135098
0.8,0.4,0,0.000179879
0.8,0.5,0,0.000225143
0.8,0.6,0,0.000269233
0.8,0.7,0,0.000313649
0.8,0.8,0,0.000357934
0.8,0.9,0,0.00040181
0.8,1,0,0.00044657
0.8,1.1,0,0.00048897
0.8,1.2,0,0.000532135
0.8,1.3,0,0.00057496
0.8,1.4,0,0.00061725
0.8,1.5,0,0.00066089
0.8,1.6,0,0.000700864
0.8,1.7,0,0.000742117
0.8,1.8,0,0.000782819
0.8,1.9,0,0.00082288
0.8,2,0,0.000864828
0.8,2.1,0,0.000901678
0.8,2.2,0,0.000940396
0.8,2.3,0,0.000978366
0.8,2.4,0,0.0010156
0.8,2.5,0,0.00105531
0.8,2.6,0,0.0010884
0.8,2.7,0,0.001124
0.8,2.8,0,0.00115868
0.8,2.9,0,0.00119251
0.8,3,0,0.00122944
0.8,3.1,0,0.00125824
0.8,3.2,0,0.00129018
0.8,3.3,0,0.00132106
0.8,3.4,0,0.00135099
0.8,3.5,0,0.00138459
0.8,3.6,0,0.00140864
0.8,3.7,0,0.00143642
0.8,3.8,0,0.00146304
0.8,3.9,0,0.00148858
0.8,4,0,0.00151831
0.8,4.1,0,0.00153728
0.8,4.2,0,0.00156047
0.8,4.3,0,0.00158244
0.8,4.4,0,0.0016032
0.8,4.5,0,0.00162854
0.8,4.6,0,0.00164222
0.8,4.7,0,0.00166045
0.8,4.8,0,0.00167719
0.8,4.9,0,0.00169211
0.8,5,0,0.00171174
0.8,5.1,0,0.00172104
0.8,5.2,0,0.00174006
0.8,5.3,0,0.00174621
0.8,5.4,0,0.00176243
0.8,5.5,0,0.00176639
0.8,5.6,0,0.00178047
0.8,5.7,0,0.00178222
0.8,5.8,0,0.00179412
0.8,5.9,0,0.00179366
0.8,6,0,0.00180336
0.8,6.1,0,0.00180069
0.8,6.2,0,0.00180817
0.8,6.3,0,0.00180331
0.8,6.4,0,0.00180855
0.8,6.5,0,0.00180149
0.8,6.6,0,0.00180447
0.8,6.7,0,0.00179525
0.8,6.8,0,0.00179601
0.8,6.9,0,0.00178407
0.8,7,0,0.00178176
0.8,7.1,0,0.0017688
0.8,7.2,0,0.00176038
0.8,7.3,0,0.00175223
0.8,7.4,0,0.00173922
0.8,7.5,0,0.00172714
0.8,7.6,0,0.00171421
0.8,7.7,0,0.00169915
0.8,7.8,0,0.00168409
0.8,7.9,0,0.00166782
0.8,8,0,0.00164987
0.8,8.1,0,0.00163193
0.8,8.2,0,0.00161242
0.8,8.3,0,0.00159168
0.8,8.4,0,0.00157093
0.8,8.5,0,0.0015483
0.8,8.6,0,0.00152487
0.8,8.7,0,0.00150298
0.8,8.8,0,0.00147584
0.8,8.9,0,0.00144985
0.8,9,0,0.00142589
0.8,9.1,0,0.00139544
0.8,9.2,0,0.00136702
0.8,9.3,0,0.00133825
0.8,9.4,0,0.00130755
0.8,9.5,0,0.00127684
0.8,9.6,0,0.00124547
0.8,9.7,0,0.00121262
0.8,9.8,0,0.00117978
0.8,9.9,0,0.00114599
0.8,10,0,0.00111117
0.8,10.1,0,0.00107635
0.8,10.2,0,0.00104035
0.8,10.3,0,0.00100372
0.8,10.4,0,0.000967077
0.8,10.5,0,0.00092908
0.8,10.6,0,0.0008908
0.8,10.7,0,0.00085311
0.8,10.8,0,0.000812755
0.8,10.9,0,0.000773014
0.8,11,0,0.00073333
0.8,11.1,0,0.000691985
0.8,11.2,0,0.000650973
0.8,11.3,0,0.000609491
0.8,11.4,0,0.000567404
0.8,11.5,0,0.000525318
0.8,11.6,0,0.000482635
0.8,11.7,0,0.000439676
0.8,11.8,0,0.000396718
0.8,11.9,0,0.000353108
0.8,12,0,0.000309484
0.8,12.1,0,0.00026586
0.8,12.2,0,0.000221601
0.8,12.3,0,0.000177524
0.8,12.4,0,0.000133424
0.8,12.5,0,8.88212e-05
0.8,12.6,0,4.44968e-05
0.8,12.7,0,0
0.9,0,0,0
0.9,0.1,0,4.52287e-05
0.9,0.2,0,9.02153e-05
0.9,0.3,0,0.000135578
0.9,0.4,0,0.00018036
0.9,0.5,0,0.000226589
0.9,0.6,0,0.000270027
0.9,0.7,0,0.000314443
0.9,0.8,0,0.000359009
0.9,0.9,0,0.000402884
0.9,1,0,0.000449415
0.9,1.1,0,0.000490285
0.9,1.2,0,0.00053345
0.9,1.3,0,0.000576468
0.9,1.4,0,0.000618758
0.9,1.5,0,0.000665099
0.9,1.6,0,0.000702514
0.9,1.7,0,0.000743767
0.9,1.8,0,0.000784558
0.9,1.9,0,0.000824619
0.9,2,0,0.000870343
0.9,2.1,0,0.000903455
0.9,2.2,0,0.000942173
0.9,2.3,0,0.000980136
0.9,2.4,0,0.00101737
0.9,2.5,0,0.00106204
0.9,2.6,0,0.00109012
0.9,2.7,0,0.00112572
0.9,2.8,0,0.00116033
0.9,2.9,0,0.00119416
0.9,3,0,0.00123729
0.9,3.1,0,0.0012598
0.9,3.2,0,0.00129174
0.9,3.3,0,0.00132253
0.9,3.4,0,0.00135245
0.9,3.5,0,0.00139342
0.9,3.6,0,0.00141002
0.9,3.7,0,0.0014378
0.9,3.8,0,0.00146434
0.9,3.9,0,0.00148987
0.9,4,0,0.001528
0.9,4.1,0,0.00153853
0.9,4.2,0,0.00156172
0.9,4.3,0,0.00158369
0.9,4.4,0,0.00160444
0.9,4.5,0,0.00163897
0.9,4.6,0,0.00164353
0.9,4.7,0,0.00166176
0.9,4.8,0,0.00167883
0.9,4.9,0,0.00169375
0.9,5,0,0.00172281
0.9,5.1,0,0.00172252
0.9,5.2,0,0.00175139
0.9,5.3,0,0.00174755
0.9,5.4,0,0.00177393
0.9,5.5,0,0.00176783
0.9,5.6,0,0.0017921
0.9,5.7,0,0.00178373
0.9,5.8,0,0.00180583
0.9,5.9,0,0.00179522
0.9,6,0,0.00181511
0.9,6.1,0,0.00180229
0.9,6.2,0,0.00181993
0.9,6.3,0,0.00180493
0.9,6.4,0,0.00182026
0.9,6.5,0,0.00180311
0.9,6.6,0,0.0018161
0.9,6.7,0,0.00179683
0.9,6.8,0,0.0018075
0.9,6.9,0,0.0017858
0.9,7,0,0.00179301
0.9,7.1,0,0.001771
0.9,7.2,0,0.00176257
0.9,7.3,0,0.00176317
0.9,7.4,0,0.00174116
0.9,7.5,0,0.00172909
0.9,7.6,0,0.00172234
0.9,7.7,0,0.00170116
0.9,7.8,0,0.00168654
0.9,7.9,0,0.00167257
0.9,8,0,0.00165206
0.9,8.1,0,0.00163759
0.9,8.2,0,0.00161484
0.9,8.3,0,0.0015941
0.9,8.4,0,0.00157938
0.9,8.5,0,0.00155098
0.9,8.6,0,0.00152755
0.9,8.7,0,0.00151215
0.9,8.8,0,0.00147879
0.9,8.9,0,0.0014528
0.9,9,0,0.0014346
0.9,9.1,0,0.00139865
0.9,9.2,0,0.00137022
0.9,9.3,0,0.00134635
0.9,9.4,0,0.00131097
0.9,9.5,0,0.00128027
0.9,9.6,0,0.00125143
0.9,9.7,0,0.00121622
0.9,9.8,0,0.00118403
0.9,9.9,0,0.00115032
0.9,10,0,0.00111487
0.9,10.1,0,0.00108168
0.9,10.2,0,0.00104406
0.9,10.3,0,0.00100742
0.9,10.4,0,0.000972907
0.9,10.5,0,0.000932699
0.9,10.6,0,0.000894419
0.9,10.7,0,0.000858334
0.9,10.8,0,0.000816181
0.9,10.9,0,0.00077644
0.9,11,0,0.000737863
0.9,11.1,0,0.000695111
0.9,11.2,0,0.000654099
0.9,11.3,0,0.000613137
0.9,11.4,0,0.000570128
0.9,11.5,0,0.000528042
0.9,11.6,0,0.000485248
0.9,11.7,0,0.000441907
0.9,11.8,0,0.000398981
0.9,11.9,0,0.000354802
0.9,12,0,0.000311143
0.9,12.1,0,0.000267458
0.9,12.2,0,0.000222624
0.9,12.3,0,0.000178547
0.9,12.4,0,0.000134221
0.9,12.5,0,8.91662e-05
0.9,12.6,0,4.48418e-05
0.9,12.7,0,0
1,0,0,0
1,0.1,0,4.53901e-05
1,0.2,0,9.09471e-05
1,0.3,0,0.00013631
1,0.4,0,0.000180841
1,0.5,0,0.000228034
1,0.6,0,0.000270821
1,0.7,0,0.000316592
1,0.8,0,0.000361158
1,0.9,0,0.000403959
1,1,0,0.00045226
1,1.1,0,0.000491599
1,1.2,0,0.000536983
1,1.3,0,0.000580001
1,1.4,0,0.000620266
1,1.5,0,0.000669308
1,1.6,0,0.000704164
1,1.7,0,0.000748638
1,1.8,0,0.000789429
1,1.9,0,0.000826358
1,2,0,0.000875857
1,2.1,0,0.000905232
1,2.2,0,0.00094831
1,2.3,0,0.000986273
1,2.4,0,0.00101914
1,2.5,0,0.00106878
1,2.6,0,0.00109185
1,2.7,0,0.00113303
1,2.8,0,0.00116764
1,2.9,0,0.00119582
1,3,0,0.00124514
1,3.1,0,0.00126136
1,3.2,0,0.00130009
1,3.3,0,0.00133088
1,3.4,0,0.00135391
1,3.5,0,0.00140225
1,3.6,0,0.00141139
1,3.7,0,0.00144707
1,3.8,0,0.00147362
1,3.9,0,0.00149117
1,4,0,0.00153768
1,4.1,0,0.00153978
1,4.2,0,0.00157179
1,4.3,0,0.00159376
1,4.4,0,0.00160569
1,4.5,0,0.0016494
1,4.6,0,0.00164484
1,4.7,0,0.00167252
1,4.8,0,0.00168959
1,4.9,0,0.00169539
1,5,0,0.00173389
1,5.1,0,0.001724
1,5.2,0,0.00176271
1,5.3,0,0.00174889
1,5.4,0,0.00178543
1,5.5,0,0.00176928
1,5.6,0,0.00180372
1,5.7,0,0.00178525
1,5.8,0,0.00181754
1,5.9,0,0.00179679
1,6,0,0.00182687
1,6.1,0,0.0018039
1,6.2,0,0.00183168
1,6.3,0,0.00180656
1,6.4,0,0.00183197
1,6.5,0,0.00180473
1,6.6,0,0.00182773
1,6.7,0,0.0017984
1,6.8,0,0.00181899
1,6.9,0,0.00178754
1,7,0,0.00180426
1,7.1,0,0.00177319
1,7.2,0,0.00176707
1,7.3,0,0.00177411
1,7.4,0,0.00174311
1,7.5,0,0.00173675
1,7.6,0,0.00173297
1,7.7,0,0.00170318
1,7.8,0,0.00169685
1,7.9,0,0.00168288
1,8,0,0.00165425
1,8.1,0,0.00164755
1,8.2,0,0.00162421
1,8.3,0,0.00159652
1,8.4,0,0.00158897
1,8.5,0,0.0015573
1,8.6,0,0.00153023
1,8.7,0,0.00152131
1,8.8,0,0.00148256
1,8.9,0,0.00145575
1,9,0,0.00144332
1,9.1,0,0.00140185
1,9.2,0,0.00137541
1,9.3,0,0.00135457
1,9.4,0,0.0013144
1,9.5,0,0.00128706
1,9.6,0,0.00125913
1,9.7,0,0.00121982
1,9.8,0,0.00119115
1,9.9,0,0.00115745
1,10,0,0.00111857
1,10.1,0,0.0010882
1,10.2,0,0.00104999
1,10.3,0,0.00101113
1,10.4,0,0.000978794
1,10.5,0,0.000937214
1,10.6,0,0.000898038
1,10.7,0,0.000863558
1,10.8,0,0.000819606
1,10.9,0,0.000780012
1,11,0,0.000742397
1,11.1,0,0.000698236
1,11.2,0,0.000657589
1,11.3,0,0.000616957
1,11.4,0,0.000572852
1,11.5,0,0.000531098
1,11.6,0,0.000488333
1,11.7,0,0.000444137
1,11.8,0,0.000401316
1,11.9,0,0.000357137
1,12,0,0.000312801
1,12.1,0,0.00026903
1,12.2,0,0.000224009
1,12.3,0,0.00017957
1,12.4,0,0.000135019
1,12.5,0,8.96302e-05
1,12.6,0,4.51868e-05
1,12.7,0,0
1.1,0,0,0
1.1,0.1,0,4.54708e-05
1.1,0.2,0,9.16789e-05
1.1,0.3,0,0.000137042
1.1,0.4,0,0.000181804
1.1,0.5,0,0.00022948
1.1,0.6,0,0.000271941
1.1,0.7,0,0.00031874
1.1,0.8,0,0.000363306
1.1,0.9,0,0.000405918
1.1,1,0,0.000455105
1.1,1.1,0,0.000493679
1.1,1.2,0,0.000540515
1.1,1.3,0,0.000583533
1.1,1.4,0,0.000623125
1.1,1.5,0,0.000673517
1.1,1.6,0,0.000707094
1.1,1.7,0,0.000753508
1.1,1.8,0,0.000794299
1.1,1.9,0,0.000829985
1.1,2,0,0.000881371
1.1,2.1,0,0.000908878
1.1,2.2,0,0.000954447
1.1,2.3,0,0.000992409
1.1,2.4,0,0.00102339
1.1,2.5,0,0.00107551
1.1,2.6,0,0.00109608
1.1,2.7,0,0.00114033