/*--------------------------------*- C++ -*----------------------------------*\
| =========                 |                                                 |
| \\      /  F ield         | OpenFOAM: The Open Source CFD Toolbox           |
|  \\    /   O peration     | Version:  v1806                                 |
|   \\  /    A nd           | Web:      www.OpenFOAM.com                      |
|    \\/     M anipulation  |                                                 |
\*---------------------------------------------------------------------------*/
FoamFile
{
    version     2.0;
    format      ascii;
    class       volScalarField;
    location    "3";
    object      p;
}
// * * * * * * * * * * * * * * * * * * * * * * * * * * * * * * * * * * * * * //

dimensions      [0 2 -2 0 0 0 0];


internalField   nonuniform List<scalar> 
5735
(
1.12381
1.11904
1.11869
1.11904
1.12381
1.59492
1.59184
1.59161
1.59184
1.59492
1.75385
1.75473
1.75481
1.75473
1.75385
3.39943
3.404
3.40418
3.404
3.39943
3.7614
3.7666
3.76675
3.7666
3.7614
3.79337
3.79812
3.79822
3.79812
3.79337
3.41189
3.41604
3.41619
3.41604
3.41189
2.9655
2.96873
2.96892
2.96873
2.9655
3.06819
3.07211
3.07232
3.07211
3.06819
3.3182
3.31848
3.31849
3.31848
3.3182
2.41418
2.41432
2.41431
2.41432
2.41418
1.55888
1.55627
1.5562
1.55627
1.55887
1.76566
1.75962
1.75952
1.75962
1.76566
0.541741
0.541766
0.541775
0.541766
0.541741
0.499427
0.499024
0.499034
0.499024
0.499427
0.445924
0.445084
0.44508
0.445084
0.445924
0.152457
0.15195
0.151955
0.15195
0.152457
0.14763
0.147161
0.147169
0.147161
0.14763
0.169397
0.16883
0.168836
0.16883
0.169397
5.58263
5.59049
5.59038
5.59049
5.58263
5.14533
5.15465
5.15452
5.15465
5.14533
4.76339
4.77078
4.77076
4.77078
4.76339
4.82377
4.83058
4.83056
4.83058
4.82377
0.15588
0.155459
0.155473
0.155459
0.15588
0.171856
0.171371
0.171387
0.171371
0.171856
0.151223
0.150808
0.150823
0.150808
0.151223
0.585689
0.580853
0.580658
0.580853
0.585689
0.68436
0.681509
0.68144
0.681509
0.68436
0.407171
0.403573
0.403458
0.403573
0.407171
0.774831
0.771805
0.771728
0.771805
0.774832
0.777805
0.776877
0.776983
0.776877
0.777805
0.844027
0.84192
0.84177
0.84192
0.844027
3.03903
3.04253
3.04267
3.04253
3.03903
2.85283
2.85615
2.85632
2.85615
2.85283
2.7089
2.71194
2.71212
2.71194
2.7089
0.113108
0.112805
0.112804
0.112805
0.113108
0.124834
0.124479
0.124481
0.124479
0.124834
0.103807
0.103574
0.103575
0.103574
0.103807
0.10505
0.1048
0.104801
0.1048
0.10505
0.127933
0.127556
0.12756
0.127556
0.127933
0.118907
0.118573
0.118575
0.118573
0.118907
0.137054
0.136636
0.136639
0.136636
0.137054
0.129114
0.128704
0.128708
0.128704
0.129114
0.110339
0.110042
0.110042
0.110042
0.110339
0.130728
0.130338
0.130344
0.130338
0.130728
0.123267
0.122917
0.122921
0.122917
0.123267
0.114727
0.114417
0.11442
0.114417
0.114727
0.107887
0.107601
0.107601
0.107601
0.107887
0.101105
0.100857
0.100857
0.100857
0.101105
0.0995113
0.0992582
0.0992576
0.0992582
0.0995113
0.101367
0.101105
0.101104
0.101105
0.101367
0.140083
0.139692
0.139701
0.139692
0.140083
0.100021
0.0997517
0.0997499
0.0997517
0.100021
0.110104
0.109794
0.109793
0.109794
0.110104
0.119507
0.119149
0.11915
0.119149
0.119507
0.128776
0.128442
0.128448
0.128442
0.128776
0.116265
0.115974
0.115978
0.115974
0.116265
0.101369
0.101107
0.101105
0.101107
0.101369
0.089704
0.0894796
0.0894767
0.0894796
0.089704
0.0896602
0.0894298
0.0894272
0.0894298
0.0896602
0.0900604
0.0898331
0.0898311
0.0898331
0.0900604
0.0892338
0.0890115
0.0890099
0.0890115
0.0892338
0.0894526
0.0892353
0.0892341
0.0892353
0.0894526
0.0915747
0.0913641
0.091364
0.0913641
0.0915747
0.142489
0.142131
0.14214
0.142131
0.142489
0.129733
0.129422
0.129428
0.129422
0.129733
0.116999
0.116728
0.116731
0.116728
0.116999
0.0908452
0.0906467
0.0906467
0.0906467
0.0908452
0.12584
0.125478
0.125477
0.125478
0.12584
0.112954
0.112647
0.112645
0.112647
0.112954
0.100383
0.10012
0.100117
0.10012
0.100383
0.0884177
0.0881959
0.0881923
0.0881959
0.0884177
0.0769015
0.0767138
0.0767099
0.0767138
0.0769015
0.0785524
0.0783612
0.0783577
0.0783612
0.0785524
0.0791478
0.0789512
0.078948
0.0789512
0.0791478
0.0796034
0.0794098
0.0794072
0.0794098
0.0796034
0.0791968
0.0790073
0.079005
0.0790073
0.0791968
0.0791418
0.0789582
0.0789563
0.0789582
0.0791418
0.0794231
0.0792453
0.0792441
0.0792453
0.0794231
0.0781819
0.078014
0.078013
0.078014
0.0781819
0.139494
0.139077
0.139079
0.139077
0.139494
0.0764236
0.0762705
0.07627
0.0762705
0.0764236
0.0894549
0.0892768
0.0892773
0.0892768
0.089455
0.103462
0.103259
0.103261
0.103259
0.103462
0.118077
0.117848
0.117852
0.117848
0.118077
0.133198
0.132947
0.132953
0.132947
0.133198
0.149353
0.149082
0.14909
0.149082
0.149353
0.147777
0.147424
0.147423
0.147424
0.147777
0.130038
0.129725
0.129723
0.129725
0.130038
0.114359
0.114085
0.114082
0.114085
0.114359
0.100048
0.0998087
0.0998054
0.0998087
0.100048
0.0870119
0.0868067
0.086803
0.0868067
0.0870119
0.0749988
0.0748231
0.0748191
0.0748231
0.0749988
0.0639598
0.0638112
0.0638073
0.0638112
0.0639598
0.0661791
0.066021
0.0660171
0.066021
0.0661791
0.0680684
0.0679056
0.067902
0.0679056
0.0680684
0.0690322
0.068865
0.0688616
0.068865
0.0690322
0.0695243
0.0693584
0.0693554
0.0693584
0.0695243
0.0691702
0.0690068
0.0690041
0.0690068
0.0691702
0.0690508
0.0688917
0.0688893
0.0688917
0.0690508
0.0685976
0.0684464
0.0684446
0.0684464
0.0685976
0.067014
0.0668714
0.0668699
0.0668714
0.067014
0.167933
0.167574
0.167574
0.167574
0.167933
0.0648229
0.0646925
0.0646913
0.0646925
0.0648229
4.40839
4.41489
4.41494
4.41489
4.40839
4.45342
4.46113
4.4612
4.46113
4.45342
4.34218
4.34957
4.34964
4.34957
4.34218
4.66373
4.67073
4.67067
4.67073
4.66373
4.22446
4.2307
4.23075
4.2307
4.22446
4.11459
4.12022
4.12029
4.12022
4.11459
4.16196
4.16812
4.16822
4.16812
4.16196
3.95945
3.96482
3.96492
3.96482
3.95945
3.829
3.83394
3.83405
3.83394
3.829
4.76363
4.77389
4.77382
4.77389
4.76363
4.17345
4.18014
4.18017
4.18014
4.17345
3.7062
3.71117
3.71126
3.71117
3.7062
5.23218
5.24092
5.24055
5.24092
5.23218
3.79245
3.79503
3.79502
3.79503
3.79245
3.82157
3.82177
3.8217
3.82177
3.82157
3.61948
3.61612
3.61593
3.61611
3.61948
3.65544
3.65903
3.65913
3.65903
3.65544
3.11459
3.11746
3.11757
3.11746
3.11459
3.15684
3.16004
3.1601
3.16004
3.15684
3.16797
3.17075
3.17079
3.17075
3.16797
3.51109
3.51518
3.51531
3.51518
3.51109
3.28492
3.28899
3.28916
3.28899
3.28492
3.32327
3.32709
3.32721
3.32709
3.32327
0.168394
0.168146
0.168157
0.168146
0.168394
3.99868
4.00096
4.00077
4.00096
3.99868
3.73109
3.73326
3.73312
3.73326
3.73109
3.451
3.45425
3.45425
3.45425
3.451
3.14675
3.1494
3.14944
3.1494
3.14675
4.03858
4.0356
4.03523
4.0356
4.03858
0.194294
0.193881
0.19388
0.193881
0.194294
3.08201
3.08568
3.08585
3.08568
3.08201
3.0003
3.00368
3.00382
3.00368
3.0003
2.8605
2.86352
2.86362
2.86352
2.8605
0.192864
0.192577
0.19259
0.192577
0.192864
0.175351
0.174935
0.174934
0.174935
0.175351
0.150493
0.150141
0.150139
0.150141
0.150493
0.129758
0.12945
0.129447
0.12945
0.129758
0.112136
0.111871
0.111867
0.111871
0.112136
0.0969707
0.0967426
0.0967387
0.0967426
0.0969707
0.0835711
0.0833775
0.0833733
0.0833775
0.0835711
0.0716465
0.071481
0.0714769
0.071481
0.0716465
0.0609066
0.0607668
0.0607628
0.0607668
0.0609066
0.0512571
0.0511403
0.0511366
0.0511403
0.0512571
0.0542157
0.0540906
0.0540869
0.0540906
0.0542157
0.0564731
0.0563404
0.0563367
0.0563404
0.0564731
0.0583526
0.0582151
0.0582116
0.0582151
0.0583526
0.0594037
0.0592629
0.0592595
0.0592629
0.0594037
0.0599108
0.0597706
0.0597674
0.0597706
0.0599108
0.0597074
0.0595695
0.0595667
0.0595695
0.0597074
0.0595151
0.059381
0.0593785
0.059381
0.0595151
0.0586994
0.0585716
0.0585694
0.0585716
0.0586994
0.0570089
0.0568885
0.0568866
0.0568885
0.0570089
0.0547916
0.0546811
0.0546795
0.0546811
0.0547917
0.0518202
0.0517194
0.0517181
0.0517194
0.0518202
0.0618513
0.0617318
0.0617308
0.0617318
0.0618513
0.0732563
0.0731161
0.0731157
0.0731161
0.0732563
0.0859561
0.0857938
0.0857943
0.0857938
0.0859561
0.100198
0.100013
0.100015
0.100013
0.100198
0.115876
0.115666
0.11567
0.115666
0.115876
0.132766
0.132532
0.132538
0.132532
0.132766
0.153249
0.152988
0.152996
0.152988
0.153249
0.179334
0.17904
0.17905
0.17904
0.179334
3.51705
3.49728
3.49675
3.49728
3.51705
3.43919
3.4342
3.43395
3.4342
3.43919
3.33769
3.33559
3.33533
3.33559
3.33769
3.22851
3.22912
3.22896
3.22912
3.22851
3.06782
3.0692
3.0691
3.0692
3.06782
2.84857
2.85102
2.85107
2.85102
2.84856
2.63505
2.63695
2.63698
2.63695
2.63505
2.78726
2.79018
2.79033
2.79018
2.78726
2.56245
2.56495
2.56511
2.56495
2.56245
2.75196
2.75193
2.75191
2.75193
2.75196
2.94898
2.94947
2.9494
2.94947
2.94898
2.88395
2.88556
2.88558
2.88556
2.88395
2.81125
2.81365
2.81371
2.81365
2.81125
2.6204
2.6228
2.6229
2.6228
2.6204
2.36973
2.37184
2.37197
2.37184
2.36973
2.19624
2.19819
2.19833
2.19819
2.19624
2.40512
2.40734
2.4075
2.40734
2.40511
2.56236
2.56481
2.565
2.56481
2.56236
2.71758
2.72056
2.72075
2.72056
2.71758
2.78394
2.78692
2.78711
2.78692
2.78394
2.78867
2.79171
2.79191
2.79171
2.78867
2.72093
2.72366
2.72382
2.72366
2.72093
2.5879
2.59028
2.59039
2.59028
2.5879
2.41742
2.41951
2.41961
2.41951
2.41742
2.21854
2.2203
2.22037
2.2203
2.21854
2.41368
2.4154
2.41541
2.4154
2.41368
2.58104
2.58259
2.58257
2.58259
2.58104
2.75943
2.76015
2.76004
2.76015
2.75943
2.8528
2.85306
2.85292
2.85306
2.8528
2.85957
2.85844
2.85828
2.85844
2.85957
2.64324
2.6417
2.64157
2.6417
2.64324
2.24393
2.24581
2.24591
2.24581
2.24393
2.40206
2.40411
2.40418
2.40411
2.40206
2.40346
2.40516
2.40522
2.40516
2.40346
2.31292
2.31406
2.31408
2.31406
2.31292
2.07434
2.07466
2.07469
2.07466
2.07435
1.84213
1.84173
1.84173
1.84173
1.84214
1.07439
1.07536
1.07541
1.07536
1.07439
1.15363
1.15648
1.15658
1.15648
1.15363
2.13409
2.1358
2.13591
2.1358
2.13409
1.99323
1.99476
1.99489
1.99476
1.99323
2.18114
2.18
2.17982
2.18
2.18114
2.31684
2.31571
2.31556
2.31571
2.31684
2.41962
2.41979
2.41965
2.41978
2.41962
2.35346
2.35402
2.35394
2.35402
2.35346
2.26091
2.26195
2.26192
2.26195
2.26091
2.13129
2.13235
2.13234
2.13235
2.13129
1.99521
1.9965
1.99654
1.9965
1.99521
1.86612
1.86742
1.86748
1.86742
1.86612
2.05678
2.05844
2.05853
2.05844
2.05678
2.22768
2.2295
2.22961
2.2295
2.22768
2.37359
2.37586
2.37601
2.37586
2.37359
2.48125
2.48365
2.48382
2.48365
2.48125
2.53819
2.54073
2.54091
2.54073
2.53819
2.53606
2.53859
2.53878
2.53859
2.53606
2.47248
2.47482
2.47502
2.47482
2.47248
2.36713
2.36947
2.36966
2.36947
2.36713
2.21464
2.21684
2.21702
2.21684
2.21464
2.04469
2.0466
2.04675
2.0466
2.04469
1.85699
1.85872
1.85885
1.85872
1.85699
0.958479
0.95616
0.955914
0.95616
0.958479
0.768093
0.765428
0.76524
0.765428
0.768093
0.395776
0.395493
0.395523
0.395493
0.395776
0.323922
0.323617
0.323641
0.323617
0.323922
0.212684
0.212393
0.212407
0.212393
0.212684
0.247243
0.246904
0.24692
0.246904
0.247243
0.291829
0.291571
0.291591
0.291571
0.291829
0.246357
0.246087
0.246104
0.246087
0.246357
0.211078
0.21084
0.210853
0.21084
0.211078
0.177863
0.177645
0.177656
0.177645
0.177863
0.150317
0.150109
0.150116
0.150109
0.150317
0.128504
0.128312
0.128317
0.128312
0.128504
0.110369
0.110194
0.110198
0.110194
0.110369
0.0944574
0.094299
0.0943011
0.094299
0.0944574
0.0803133
0.0801739
0.0801747
0.0801739
0.0803134
0.0684998
0.0683783
0.0683781
0.0683783
0.0684998
0.0578431
0.0577375
0.0577368
0.0577375
0.0578431
0.048309
0.0482194
0.0482184
0.0482194
0.048309
0.387584
0.387047
0.387059
0.387047
0.387584
0.317995
0.317424
0.317431
0.317424
0.317995
0.207795
0.20737
0.207371
0.20737
0.207795
0.244286
0.24376
0.243763
0.24376
0.244286
0.287711
0.287249
0.287255
0.287249
0.287711
0.241481
0.241022
0.241025
0.241022
0.241481
0.207139
0.206754
0.206753
0.206754
0.207139
0.175153
0.174808
0.174807
0.174808
0.175153
0.148375
0.148069
0.148066
0.148069
0.148375
0.126206
0.125938
0.125935
0.125938
0.126206
0.107752
0.107518
0.107515
0.107518
0.107752
0.092168
0.0919653
0.0919613
0.0919653
0.092168
0.0787517
0.0785776
0.0785735
0.0785776
0.0787517
0.067129
0.06698
0.066976
0.06698
0.067129
0.0567932
0.0566667
0.0566629
0.0566667
0.0567932
0.0476583
0.0475521
0.0475485
0.0475521
0.0476583
0.0394137
0.0393258
0.0393226
0.0393258
0.0394137
0.0427121
0.0426154
0.042612
0.0426154
0.0427121
0.0454605
0.0453562
0.0453528
0.0453562
0.0454605
0.0475948
0.0474843
0.0474809
0.0474843
0.0475948
0.0492724
0.0491578
0.0491544
0.0491578
0.0492724
0.050254
0.0501371
0.0501338
0.0501371
0.0502541
0.0507673
0.0506503
0.0506473
0.0506503
0.0507673
0.0506902
0.050575
0.0505722
0.050575
0.0506902
0.0503664
0.0502543
0.0502518
0.0502543
0.0503664
0.0494762
0.0493691
0.0493669
0.0493691
0.0494762
0.0479018
0.047801
0.047799
0.047801
0.0479018
0.0458055
0.0457127
0.0457111
0.0457127
0.0458055
0.0431142
0.0430296
0.0430281
0.0430296
0.0431142
0.0398672
0.039792
0.0397908
0.039792
0.0398672
0.476464
0.476206
0.476235
0.476207
0.476464
0.594234
0.592142
0.591978
0.592142
0.594234
0.688515
0.688659
0.688589
0.688658
0.688514
1.12375
1.12246
1.12231
1.12246
1.12375
1.51195
1.5119
1.51181
1.5119
1.51195
1.74356
1.74255
1.74237
1.74255
1.74356
1.93488
1.93393
1.93377
1.93392
1.93488
2.04558
2.04528
2.04513
2.04528
2.04558
2.0139
2.01413
2.01403
2.01413
2.0139
1.96055
1.9613
1.96124
1.9613
1.96055
1.86291
1.86389
1.86386
1.86389
1.86291
1.75778
1.75887
1.75888
1.75887
1.75778
1.65194
1.65304
1.65308
1.65304
1.65194
1.53038
1.53169
1.53178
1.53169
1.53038
1.72574
1.72726
1.72737
1.72726
1.72574
1.89988
1.90162
1.90175
1.90162
1.89988
2.05714
2.05915
2.05931
2.05915
2.05714
2.17765
2.17982
2.18
2.17982
2.17765
2.26886
2.27125
2.27146
2.27125
2.26886
2.31085
2.31336
2.31357
2.31336
2.31085
2.31211
2.31458
2.3148
2.31458
2.31211
2.27281
2.27529
2.2755
2.27529
2.27281
2.17488
2.17722
2.17743
2.17722
2.17488
2.05517
2.05741
2.05761
2.05741
2.05517
1.89838
1.90044
1.90062
1.90044
1.89838
1.71687
1.71875
1.71891
1.71875
1.71687
1.52865
1.5303
1.53043
1.5303
1.52865
1.65102
1.65248
1.65259
1.65248
1.65102
1.76796
1.76935
1.76945
1.76935
1.76796
1.86094
1.86254
1.86263
1.86254
1.86094
1.93514
1.93684
1.9369
1.93684
1.93514
2.03093
2.03239
2.03242
2.03239
2.03093
2.04804
2.04888
2.04887
2.04888
2.04804
1.95723
1.95727
1.95724
1.95727
1.95723
1.6812
1.68119
1.68117
1.68119
1.6812
1.40925
1.40865
1.40862
1.40866
1.40925
1.10968
1.10943
1.10938
1.10943
1.10968
0.96286
0.961766
0.961709
0.961766
0.96286
1.04066
1.0357
1.03548
1.0357
1.04066
0.912395
0.90813
0.908067
0.90813
0.912395
0.824231
0.821212
0.821224
0.821212
0.824231
0.79608
0.793041
0.792999
0.793042
0.796081
0.757642
0.755851
0.755872
0.755851
0.757643
0.671797
0.669551
0.669633
0.669551
0.671797
0.663353
0.660419
0.66041
0.660419
0.663353
0.739739
0.737565
0.73754
0.737564
0.739738
0.878772
0.877245
0.877188
0.877245
0.878772
1.09382
1.09283
1.09277
1.09283
1.09382
1.37231
1.37196
1.37193
1.37196
1.37231
1.59166
1.59179
1.59177
1.59179
1.59166
1.73369
1.7341
1.73408
1.7341
1.73368
1.76191
1.76276
1.76276
1.76276
1.7619
1.7067
1.7079
1.70792
1.7079
1.7067
1.63313
1.63443
1.63448
1.63443
1.63313
1.57846
1.57973
1.5798
1.57973
1.57846
1.51453
1.51569
1.51576
1.51569
1.51453
1.43342
1.43462
1.43471
1.43462
1.43342
1.3297
1.3311
1.33122
1.3311
1.3297
0.600087
0.599859
0.599894
0.599859
0.600087
0.517137
0.517027
0.51706
0.517027
0.517137
0.418267
0.418013
0.41804
0.418013
0.418267
0.350148
0.34995
0.349973
0.34995
0.350148
0.292397
0.292164
0.292182
0.292164
0.292397
0.24462
0.244402
0.244417
0.244402
0.24462
0.203504
0.203295
0.203307
0.203295
0.203504
0.169923
0.169721
0.16973
0.169721
0.169923
0.142476
0.142292
0.142299
0.142292
0.142476
0.120285
0.120118
0.120123
0.120118
0.120285
0.101734
0.101583
0.101587
0.101583
0.101734
0.0862471
0.0861132
0.086115
0.0861132
0.0862471
0.0730803
0.0729623
0.072963
0.0729623
0.0730804
0.0617918
0.0616881
0.061688
0.0616881
0.0617918
0.0520262
0.0519358
0.0519353
0.0519358
0.0520262
0.0434337
0.0433562
0.0433554
0.0433562
0.0434337
0.035826
0.0357608
0.0357598
0.0357608
0.035826
0.0320761
0.0320045
0.0320017
0.0320045
0.0320761
0.034984
0.034905
0.0349021
0.034905
0.034984
0.0374323
0.0373472
0.0373442
0.0373472
0.0374323
0.0393014
0.039211
0.0392079
0.039211
0.0393014
0.0407132
0.0406198
0.0406168
0.0406198
0.0407132
0.0415827
0.0414872
0.0414843
0.0414872
0.0415827
0.0420579
0.0419624
0.0419596
0.0419624
0.0420579
0.0420478
0.0419534
0.0419508
0.0419534
0.0420478
0.0416938
0.041602
0.0415996
0.041602
0.0416938
0.0408586
0.0407707
0.0407686
0.0407707
0.0408586
0.0395298
0.0394466
0.0394447
0.0394466
0.0395298
0.0376573
0.0375806
0.0375789
0.0375806
0.0376573
0.0352954
0.0352254
0.035224
0.0352254
0.0352954
0.0324386
0.0323767
0.0323755
0.0323767
0.0324386
0.0289814
0.0289277
0.0289267
0.0289277
0.0289814
0.832087
0.830729
0.830637
0.830729
0.832086
0.801062
0.799867
0.79983
0.799867
0.801062
0.777749
0.776587
0.776584
0.776587
0.777749
0.729816
0.729127
0.72914
0.729127
0.729816
0.661656
0.660901
0.660907
0.660901
0.661656
0.57755
0.576917
0.57692
0.576917
0.57755
0.497555
0.49695
0.496952
0.49695
0.497555
0.409364
0.40878
0.408782
0.40878
0.409364
0.34525
0.344751
0.344751
0.344751
0.34525
0.288577
0.288104
0.288103
0.288104
0.288577
0.241132
0.240722
0.240721
0.240722
0.241132
0.200603
0.200244
0.200241
0.200244
0.200603
0.167933
0.167612
0.167609
0.167612
0.167933
0.140665
0.140388
0.140384
0.140388
0.140665
0.11834
0.118099
0.118095
0.118099
0.11834
0.0999568
0.0997483
0.0997443
0.0997483
0.0999568
0.084593
0.0844141
0.08441
0.0844141
0.084593
0.0717115
0.071558
0.071554
0.071558
0.0717115
0.0606101
0.0604787
0.0604748
0.0604787
0.0606101
0.0511205
0.0510089
0.0510053
0.0510089
0.0511205
0.0427482
0.0426545
0.0426512
0.0426545
0.0427482
0.0353306
0.0352529
0.0352499
0.0352529
0.0353306
0.0286102
0.0285471
0.0285445
0.0285471
0.0286102
1.43947
1.44056
1.44066
1.44056
1.43946
1.61781
1.61908
1.6192
1.61908
1.61781
1.77852
1.77997
1.78011
1.77997
1.77852
1.91509
1.91665
1.91681
1.91665
1.91509
2.02458
2.02636
2.02654
2.02636
2.02458
2.09739
2.09926
2.09945
2.09926
2.09739
2.13658
2.13858
2.13879
2.13858
2.13658
2.13507
2.13714
2.13736
2.13714
2.13507
2.09184
2.09383
2.09404
2.09383
2.09184
2.02368
2.02571
2.02592
2.02571
2.02368
1.91277
1.91462
1.91482
1.91462
1.91277
1.7692
1.77093
1.77111
1.77093
1.7692
1.61237
1.61399
1.61415
1.61399
1.61236
1.43621
1.43763
1.43777
1.43763
1.43621
1.24725
1.24848
1.2486
1.24848
1.24725
0.718613
0.718625
0.718663
0.718625
0.718613
0.805599
0.8054
0.805438
0.8054
0.805599
0.858606
0.85788
0.857892
0.85788
0.858606
0.907335
0.906885
0.906901
0.906885
0.907335
0.938582
0.938218
0.938254
0.938218
0.938582
0.970475
0.969547
0.969545
0.969547
0.970475
0.949278
0.947556
0.947475
0.947555
0.949278
0.852178
0.8505
0.850456
0.8505
0.852178
0.910752
0.908638
0.90848
0.908638
0.910752
0.85026
0.848182
0.848
0.848182
0.85026
0.902067
0.900373
0.900184
0.900373
0.902067
1.09348
1.09223
1.09206
1.09223
1.09348
1.33497
1.33446
1.33432
1.33446
1.33497
1.55571
1.55499
1.55482
1.55499
1.55571
1.71794
1.71748
1.71735
1.71748
1.71794
1.75871
1.75861
1.75847
1.75861
1.75871
1.70533
1.70547
1.70537
1.70547
1.70533
1.6472
1.64779
1.64772
1.64779
1.6472
1.57561
1.57631
1.57628
1.57631
1.57561
1.51187
1.51267
1.51267
1.51267
1.51187
1.42834
1.42923
1.42925
1.42923
1.42834
1.33058
1.3317
1.33176
1.3317
1.33058
1.24722
1.24815
1.24823
1.24815
1.24722
0.0250128
0.0249675
0.0249667
0.0249675
0.0250128
0.030809
0.0307547
0.030754
0.0307547
0.030809
0.0373014
0.0372374
0.0372368
0.0372374
0.0373014
0.0448216
0.0447474
0.0447471
0.0447474
0.0448216
0.0534999
0.0534149
0.0534149
0.0534149
0.0534999
0.0635678
0.0634709
0.0634716
0.0634709
0.0635678
0.075539
0.0754302
0.0754318
0.0754302
0.075539
0.0899714
0.08985
0.0898528
0.08985
0.0899714
0.107667
0.107534
0.107538
0.107534
0.107667
0.129362
0.129219
0.129225
0.129219
0.129362
0.155823
0.155669
0.155677
0.155669
0.155823
0.188429
0.188265
0.188276
0.188265
0.188429
0.227818
0.227644
0.227657
0.227644
0.227818
0.277287
0.277113
0.277131
0.277113
0.277287
0.33402
0.333847
0.333868
0.333847
0.33402
0.406095
0.405943
0.40597
0.405943
0.406095
0.490899
0.490787
0.490819
0.490787
0.490899
0.583991
0.583983
0.584027
0.583983
0.583991
0.68732
0.687265
0.687316
0.687265
0.68732
0.758957
0.758981
0.759039
0.758981
0.758957
0.818896
0.818835
0.81888
0.818835
0.818896
0.856649
0.856848
0.8569
0.856848
0.856648
0.874442
0.87459
0.874648
0.87459
0.874442
0.876085
0.875987
0.876036
0.875987
0.876085
0.864725
0.864272
0.86429
0.864272
0.864724
0.83731
0.836362
0.836358
0.836362
0.83731
0.840102
0.838851
0.838795
0.838851
0.840101
0.847067
0.845672
0.845574
0.845672
0.847067
0.932774
0.931245
0.931101
0.931245
0.932774
1.0372
1.03595
1.0358
1.03594
1.0372
1.15173
1.15107
1.15094
1.15108
1.15173
1.23182
1.23133
1.23118
1.23133
1.23182
1.30152
1.30132
1.30121
1.30132
1.30152
1.35977
1.35969
1.35959
1.3597
1.35977
1.36504
1.365
1.36492
1.365
1.36504
1.34584
1.34613
1.34606
1.34613
1.34584
1.2971
1.29765
1.29762
1.29765
1.2971
1.25036
1.25102
1.25101
1.25102
1.25036
1.18621
1.18689
1.18691
1.18689
1.18621
1.11128
1.11215
1.11219
1.11215
1.11128
1.04261
1.04337
1.04343
1.04337
1.04261
0.99346
0.99389
0.993953
0.993889
0.993459
1.18586
1.18638
1.18646
1.18639
1.18586
1.36661
1.36729
1.36738
1.36729
1.36661
1.53506
1.53588
1.536
1.53588
1.53506
1.68154
1.6825
1.68264
1.6825
1.68154
1.80559
1.80674
1.8069
1.80674
1.80559
1.90196
1.90321
1.90338
1.90321
1.90196
1.96929
1.97071
1.97091
1.97072
1.96929
2.00145
2.00295
2.00316
2.00296
2.00145
1.99996
2.00145
2.00166
2.00146
1.99996
1.96825
1.96985
1.97005
1.96985
1.96825
1.894
1.89542
1.89562
1.89542
1.894
1.79725
1.79858
1.79877
1.79858
1.79725
1.67706
1.67836
1.67853
1.67836
1.67706
1.52534
1.52643
1.52658
1.52643
1.52534
1.3604
1.36141
1.36155
1.36141
1.3604
1.18184
1.18274
1.18286
1.18275
1.18184
0.988334
0.989152
0.989251
0.989152
0.988334
1.04203
1.04307
1.04317
1.04307
1.04203
1.11226
1.11334
1.11343
1.11334
1.11226
1.18819
1.18916
1.18922
1.18916
1.18819
1.24933
1.25035
1.2504
1.25035
1.24933
1.3011
1.3021
1.30215
1.3021
1.3011
1.33777
1.33854
1.33857
1.33854
1.33777
1.358
1.3588
1.35882
1.3588
1.358
1.36225
1.363
1.36301
1.363
1.36225
1.31936
1.31965
1.31965
1.31965
1.31937
1.23779
1.23761
1.23759
1.23761
1.23779
1.14956
1.1491
1.14907
1.1491
1.14956
1.03304
1.03216
1.03212
1.03216
1.03304
0.913985
0.913221
0.913198
0.913221
0.913985
0.827961
0.826663
0.82663
0.826663
0.827961
0.803483
0.801985
0.801936
0.801985
0.803483
0.846352
0.845321
0.845284
0.845321
0.846351
0.881673
0.880744
0.880716
0.880744
0.881673
0.925244
0.92457
0.9245
0.92457
0.925244
0.852908
0.85322
0.853295
0.85322
0.852908
0.839239
0.839058
0.839084
0.839058
0.839239
0.797248
0.796802
0.796818
0.796802
0.797248
0.73122
0.730866
0.730888
0.730866
0.73122
0.650033
0.649594
0.649607
0.649594
0.650033
0.566285
0.565915
0.565924
0.565915
0.566285
0.478472
0.477971
0.477973
0.477971
0.478472
0.39971
0.399268
0.399272
0.399268
0.39971
0.329944
0.32952
0.329521
0.32952
0.329944
0.273514
0.273134
0.273134
0.273134
0.273514
0.224643
0.224294
0.224293
0.224294
0.224643
0.185536
0.185232
0.185229
0.185232
0.185536
0.153185
0.152915
0.152912
0.152915
0.153185
0.126936
0.126702
0.126699
0.126702
0.126936
0.105735
0.105531
0.105528
0.105531
0.105735
0.0884842
0.0883087
0.088305
0.0883087
0.0884842
0.0742929
0.0741414
0.0741377
0.0741414
0.0742929
0.0625014
0.0623715
0.0623679
0.0623715
0.0625014
0.0525881
0.0524771
0.0524737
0.0524771
0.0525881
0.0441153
0.0440213
0.0440181
0.0440213
0.0441153
0.0367961
0.0367173
0.0367143
0.0367173
0.0367961
0.0303573
0.0302916
0.0302889
0.0302916
0.0303573
0.0245473
0.0244938
0.0244916
0.0244938
0.0245473
0.0193162
0.0192738
0.019272
0.0192738
0.0193163
0.0226179
0.0225677
0.0225656
0.0225677
0.0226179
0.0254825
0.0254255
0.0254231
0.0254255
0.0254825
0.0278984
0.0278353
0.0278328
0.0278353
0.0278984
0.0299173
0.0298496
0.029847
0.0298496
0.0299173
0.0314745
0.0314029
0.0314003
0.0314029
0.0314745
0.0326268
0.0325527
0.0325501
0.0325527
0.0326268
0.0333729
0.0332972
0.0332947
0.0332972
0.0333729
0.033766
0.0336902
0.0336877
0.0336902
0.033766
0.0337731
0.033698
0.0336957
0.033698
0.0337731
0.0334549
0.0333818
0.0333797
0.0333818
0.0334549
0.0327511
0.032681
0.0326791
0.032681
0.0327511
0.0316517
0.0315855
0.0315838
0.0315855
0.0316517
0.0301132
0.0300517
0.0300502
0.0300517
0.0301132
0.0281324
0.0280765
0.0280752
0.0280765
0.0281324
0.0257201
0.0256704
0.0256692
0.0256704
0.0257201
0.0228726
0.0228293
0.0228284
0.0228293
0.0228726
0.019646
0.01961
0.0196092
0.01961
0.0196461
0.7824
0.783065
0.783143
0.783066
0.782401
0.823934
0.824785
0.824862
0.824785
0.823934
0.878888
0.879794
0.879862
0.879794
0.878888
0.941113
0.941901
0.941948
0.9419
0.941112
0.9852
0.985955
0.985992
0.985955
0.9852
1.01258
1.01338
1.01341
1.01338
1.01258
1.04278
1.04339
1.0434
1.04339
1.04278
1.07157
1.07204
1.07203
1.07204
1.07157
1.06014
1.06043
1.06042
1.06043
1.06014
1.00515
1.00524
1.00523
1.00524
1.00515
0.940216
0.939854
0.939822
0.939853
0.940217
0.878664
0.878234
0.878214
0.878233
0.878665
0.831555
0.831053
0.831027
0.831052
0.831555
0.779172
0.778575
0.778562
0.778575
0.779172
0.74596
0.745111
0.745087
0.745111
0.74596
0.764987
0.763869
0.763823
0.763869
0.764987
0.816311
0.815313
0.81529
0.815313
0.816311
0.861836
0.861116
0.861116
0.861116
0.861836
0.873753
0.873272
0.873283
0.873272
0.873753
0.874568
0.87445
0.874482
0.87445
0.874568
0.849621
0.849355
0.849372
0.849355
0.849621
0.781645
0.781241
0.781252
0.781241
0.781646
0.6959
0.695604
0.695618
0.695604
0.6959
0.609207
0.608871
0.608879
0.608871
0.609207
0.522504
0.522124
0.522126
0.522124
0.522504
0.438934
0.438534
0.438533
0.438534
0.438934
0.362413
0.36203
0.362029
0.36203
0.362413
0.296898
0.29655
0.296548
0.29655
0.296898
0.24168
0.241362
0.241359
0.241362
0.24168
0.196488
0.196206
0.196203
0.196206
0.196488
0.160122
0.159873
0.159871
0.159873
0.160122
0.130803
0.130585
0.130582
0.130585
0.130803
0.107395
0.107206
0.107203
0.107206
0.107395
0.0886485
0.0884843
0.088481
0.0884843
0.0886485
0.0735699
0.0734285
0.0734252
0.0734285
0.0735699
0.0613374
0.0612159
0.0612127
0.0612159
0.0613374
0.051299
0.051195
0.0511919
0.051195
0.051299
0.0429445
0.0428557
0.0428528
0.0428557
0.0429445
0.0359069
0.0358318
0.0358291
0.0358318
0.0359069
0.0298579
0.029795
0.0297926
0.029795
0.0298579
0.0245799
0.0245274
0.0245252
0.0245274
0.0245799
0.019924
0.019881
0.0198791
0.019881
0.019924
0.0156627
0.0156287
0.0156271
0.0156287
0.0156627
0.0117912
0.0117652
0.011764
0.0117652
0.0117912
0.0146034
0.0145711
0.0145696
0.0145711
0.0146034
0.0171583
0.0171202
0.0171185
0.0171202
0.0171583
0.019387
0.0193437
0.0193419
0.0193437
0.019387
0.021275
0.0212273
0.0212253
0.0212273
0.021275
0.0228288
0.0227774
0.0227754
0.0227774
0.0228288
0.0240468
0.0239925
0.0239904
0.0239925
0.0240468
0.024952
0.0248957
0.0248936
0.0248957
0.024952
0.025547
0.0254896
0.0254875
0.0254896
0.025547
0.0258556
0.025798
0.025796
0.025798
0.0258556
0.0258669
0.0258098
0.0258079
0.0258098
0.0258669
0.0256055
0.0255499
0.0255482
0.0255499
0.0256055
0.0250435
0.0249902
0.0249885
0.0249902
0.0250435
0.0241727
0.0241223
0.0241209
0.0241223
0.0241727
0.022975
0.0229281
0.0229269
0.0229281
0.022975
0.0214383
0.0213957
0.0213946
0.0213957
0.0214383
0.0195476
0.0195095
0.0195085
0.0195095
0.0195476
0.0172982
0.0172653
0.0172645
0.0172653
0.0172982
0.0148262
0.0147987
0.014798
0.0147987
0.0148262
0.0120231
0.012001
0.0120005
0.012001
0.0120231
0.0160073
0.0159786
0.015978
0.0159786
0.0160073
0.0202516
0.0202164
0.0202158
0.0202164
0.0202516
0.0249361
0.0248935
0.0248929
0.0248935
0.0249361
0.0302471
0.0301966
0.0301961
0.0301966
0.0302471
0.0364507
0.0363928
0.0363925
0.0363928
0.0364507
0.0436011
0.0435346
0.0435347
0.0435346
0.0436011
0.0521051
0.0520296
0.0520303
0.0520296
0.0521051
0.0623904
0.0623056
0.062307
0.0623056
0.0623904
0.0749025
0.0748081
0.0748103
0.0748081
0.0749025
0.0903292
0.0902254
0.0902289
0.0902254
0.0903292
0.109462
0.10935
0.109355
0.10935
0.109462
0.133383
0.133264
0.13327
0.133264
0.133383
0.163035
0.162909
0.162917
0.162909
0.163035
0.200028
0.199898
0.199909
0.199898
0.200028
0.245842
0.24571
0.245724
0.24571
0.245842
0.302083
0.30196
0.301978
0.30196
0.302083
0.371015
0.370887
0.370908
0.370887
0.371015
0.454457
0.454387
0.454413
0.454387
0.454457
0.543263
0.543187
0.543215
0.543187
0.543263
0.640574
0.640602
0.640636
0.640602
0.640575
0.732876
0.732836
0.732866
0.732836
0.732877
0.817521
0.817375
0.817396
0.817375
0.817521
0.87507
0.874984
0.874998
0.874984
0.87507
0.90389
0.90381
0.903816
0.90381
0.90389
0.894788
0.894691
0.894687
0.894691
0.894788
0.84958
0.849469
0.849455
0.849469
0.84958
0.79017
0.789769
0.789746
0.78977
0.79017
0.757979
0.757433
0.757381
0.757433
0.757979
0.738046
0.737285
0.737222
0.737285
0.738047
0.773271
0.772429
0.772339
0.77243
0.773271
0.823006
0.822198
0.822106
0.822198
0.823005
0.888582
0.887874
0.887777
0.887874
0.888582
0.938631
0.938128
0.938013
0.938128
0.938631
0.995254
0.994931
0.994832
0.994932
0.995253
1.06484
1.06453
1.06442
1.06453
1.06484
1.07297
1.07287
1.07278
1.07287
1.07297
1.04757
1.04779
1.04772
1.04779
1.04757
1.01008
1.01055
1.01053
1.01055
1.01008
0.984618
0.985146
0.98513
0.985146
0.984618
0.936719
0.937293
0.937297
0.937293
0.936719
0.878852
0.879585
0.879619
0.879585
0.878852
0.823641
0.824278
0.824323
0.824278
0.82364
0.790211
0.790549
0.790595
0.790549
0.790211
0.752
0.752381
0.752436
0.752381
0.752
0.947751
0.948246
0.94832
0.948244
0.94775
1.13307
1.13371
1.1338
1.13371
1.13307
1.30508
1.30584
1.30596
1.30584
1.30508
1.46006
1.46099
1.46113
1.46099
1.46006
1.59648
1.59755
1.59771
1.59755
1.59648
1.70771
1.7089
1.70907
1.7089
1.70771
1.79683
1.79815
1.79834
1.79815
1.79683
1.85595
1.85733
1.85754
1.85733
1.85595
1.88712
1.88855
1.88876
1.88855
1.88712
1.88673
1.88822
1.88844
1.88822
1.88673
1.85153
1.85294
1.85316
1.85295
1.85153
1.79591
1.79729
1.7975
1.79729
1.79591
1.70778
1.70908
1.70927
1.70907
1.70777
1.58862
1.58984
1.59003
1.58984
1.58862
1.45275
1.4539
1.45407
1.4539
1.45275
1.29682