x,y,z,U_0,U_1,U_2
0,0,0,0.300013,-9.62116e-05,0
0,0.1,0,0.300008,-5.77269e-05,0
0,0.2,0,0.300003,-1.92423e-05,0
0,0.3,0,0.3,0,0
0,0.4,0,0.3,0,0
0,0.5,0,0.3,0,0
0,0.6,0,0.3,0,0
0,0.7,0,0.3,0,0
0,0.8,0,0.3,0,0
0,0.9,0,0.3,0,0
0,1,0,0.3,0,0
0,1.1,0,0.3,0,0
0,1.2,0,0.3,0,0
0,1.3,0,0.3,0,0
0,1.4,0,0.3,0,0
0,1.5,0,0.3,0,0
0,1.6,0,0.3,0,0
0,1.7,0,0.3,0,0
0,1.8,0,0.3,0,0
0,1.9,0,0.3,0,0
0,2,0,0.3,0,0
0,2.1,0,0.3,0,0
0,2.2,0,0.3,0,0
0,2.3,0,0.3,0,0
0,2.4,0,0.3,0,0
0,2.5,0,0.3,0,0
0,2.6,0,0.3,0,0
0,2.7,0,0.3,0,0
0,2.8,0,0.3,0,0
0,2.9,0,0.3,0,0
0,3,0,0.3,0,0
0,3.1,0,0.3,0,0
0,3.2,0,0.3,0,0
0,3.3,0,0.3,0,0
0,3.4,0,0.3,0,0
0,3.5,0,0.3,0,0
0,3.6,0,0.3,0,0
0,3.7,0,0.3,0,0
0,3.8,0,0.3,0,0
0,3.9,0,0.3,0,0
0,4,0,0.3,0,0
0,4.1,0,0.3,0,0
0,4.2,0,0.3,0,0
0,4.3,0,0.3,0,0
0,4.4,0,0.3,0,0
0,4.5,0,0.3,0,0
0,4.6,0,0.3,0,0
0,4.7,0,0.3,0,0
0,4.8,0,0.3,0,0
0,4.9,0,0.3,0,0
0,5,0,0.3,0,0
0,5.1,0,0.3,0,0
0,5.2,0,0.3,0,0
0,5.3,0,0.3,0,0
0,5.4,0,0.3,0,0
0,5.5,0,0.3,0,0
0,5.6,0,0.3,0,0
0,5.7,0,0.3,0,0
0,5.8,0,0.3,0,0
0,5.9,0,0.3,0,0
0,6,0,0.3,0,0
0,6.1,0,0.3,0,0
0,6.2,0,0.3,0,0
0,6.3,0,0.3,0,0
0,6.4,0,0.3,0,0
0,6.5,0,0.3,0,0
0,6.6,0,0.3,0,0
0,6.7,0,0.3,0,0
0,6.8,0,0.3,0,0
0,6.9,0,0.3,0,0
0,7,0,0.3,0,0
0,7.1,0,0.3,0,0
0,7.2,0,0.3,0,0
0,7.3,0,0.3,0,0
0,7.4,0,0.3,0,0
0,7.5,0,0.3,0,0
0,7.6,0,0.3,0,0
0,7.7,0,0.3,0,0
0,7.8,0,0.3,0,0
0,7.9,0,0.3,0,0
0,8,0,0.3,0,0
0,8.1,0,0.3,0,0
0,8.2,0,0.3,0,0
0,8.3,0,0.3,0,0
0,8.4,0,0.3,0,0
0,8.5,0,0.3,0,0
0,8.6,0,0.3,0,0
0,8.7,0,0.3,0,0
0,8.8,0,0.3,0,0
0,8.9,0,0.3,0,0
0,9,0,0.3,0,0
0,9.1,0,0.3,0,0
0,9.2,0,0.3,0,0
0,9.3,0,0.3,0,0
0,9.4,0,0.3,0,0
0,9.5,0,0.3,0,0
0,9.6,0,0.3,0,0
0,9.7,0,0.3,0,0
0,9.8,0,0.3,0,0
0,9.9,0,0.3,0,0
0,10,0,0.3,0,0
0,10.1,0,0.3,0,0
0,10.2,0,0.3,0,0
0,10.3,0,0.3,0,0
0,10.4,0,0.3,0,0
0,10.5,0,0.3,0,0
0,10.6,0,0.3,0,0
0,10.7,0,0.3,0,0
0,10.8,0,0.3,0,0
0,10.9,0,0.3,0,0
0,11,0,0.3,0,0
0,11.1,0,0.3,0,0
0,11.2,0,0.3,0,0
0,11.3,0,0.3,0,0
0,11.4,0,0.3,0,0
0,11.5,0,0.3,0,0
0,11.6,0,0.3,0,0
0,11.7,0,0.3,0,0
0,11.8,0,0.3,0,0
0,11.9,0,0.3,0,0
0,12,0,0.3,0,0
0,12.1,0,0.3,0,0
0,12.2,0,0.3,0,0
0,12.3,0,0.3,0,0
0,12.4,0,0.3,0,0
0,12.5,0,0.300006,-1.54485e-05,0
0,12.6,0,0.300014,-3.36231e-05,0
0,12.7,0,0.300021,-5.17978e-05,0
0.1,0,0,0.300012,-0.000137011,0
0.1,0.1,0,0.300013,-9.49584e-05,0
0.1,0.2,0,0.300008,-5.64737e-05,0
0.1,0.3,0,0.300007,-4.73756e-05,0
0.1,0.4,0,0.300007,-4.73756e-05,0
0.1,0.5,0,0.299999,-5.03349e-05,0
0.1,0.6,0,0.300007,-4.73377e-05,0
0.1,0.7,0,0.300007,-4.73377e-05,0
0.1,0.8,0,0.300007,-4.72832e-05,0
0.1,0.9,0,0.300007,-4.72832e-05,0
0.1,1,0,0.299999,-4.88593e-05,0
0.1,1.1,0,0.300007,-4.72204e-05,0
0.1,1.2,0,0.300007,-4.72204e-05,0
0.1,1.3,0,0.300006,-4.71552e-05,0
0.1,1.4,0,0.300006,-4.71552e-05,0
0.1,1.5,0,0.299998,-4.65789e-05,0
0.1,1.6,0,0.300005,-4.71154e-05,0
0.1,1.7,0,0.300005,-4.71154e-05,0
0.1,1.8,0,0.300002,-4.71486e-05,0
0.1,1.9,0,0.300002,-4.71486e-05,0
0.1,2,0,0.299998,-4.35245e-05,0
0.1,2.1,0,0.299999,-4.73196e-05,0
0.1,2.2,0,0.299999,-4.73196e-05,0
0.1,2.3,0,0.299995,-4.77065e-05,0
0.1,2.4,0,0.299995,-4.77065e-05,0
0.1,2.5,0,0.299999,-3.97157e-05,0
0.1,2.6,0,0.299989,-4.83945e-05,0
0.1,2.7,0,0.299989,-4.83945e-05,0
0.1,2.8,0,0.299984,-4.94648e-05,0
0.1,2.9,0,0.299984,-4.94648e-05,0
0.1,3,0,0.3,-3.51431e-05,0
0.1,3.1,0,0.299979,-5.09815e-05,0
0.1,3.2,0,0.299979,-5.09815e-05,0
0.1,3.3,0,0.299974,-5.29768e-05,0
0.1,3.4,0,0.299974,-5.29768e-05,0
0.1,3.5,0,0.300001,-2.9786e-05,0
0.1,3.6,0,0.29997,-5.54381e-05,0
0.1,3.7,0,0.29997,-5.54381e-05,0
0.1,3.8,0,0.299969,-5.82935e-05,0
0.1,3.9,0,0.299969,-5.82935e-05,0
0.1,4,0,0.300002,-2.36605e-05,0
0.1,4.1,0,0.29997,-6.13994e-05,0
0.1,4.2,0,0.29997,-6.13994e-05,0
0.1,4.3,0,0.299974,-6.45505e-05,0
0.1,4.4,0,0.299974,-6.45505e-05,0
0.1,4.5,0,0.300002,-1.68777e-05,0
0.1,4.6,0,0.299982,-6.75851e-05,0
0.1,4.7,0,0.299982,-6.75851e-05,0
0.1,4.8,0,0.299993,-7.02722e-05,0
0.1,4.9,0,0.299993,-7.02722e-05,0
0.1,5,0,0.3,-1.04601e-05,0
0.1,5.1,0,0.299999,-8.62742e-06,0
0.1,5.2,0,0.299998,-7.43847e-06,0
0.1,5.3,0,0.299997,-6.24334e-06,0
0.1,5.4,0,0.299996,-5.04761e-06,0
0.1,5.5,0,0.299996,-3.85345e-06,0
0.1,5.6,0,0.299995,-2.66318e-06,0
0.1,5.7,0,0.299994,-1.47892e-06,0
0.1,5.8,0,0.299993,-3.02684e-07,0
0.1,5.9,0,0.299992,8.63789e-07,0
0.1,6,0,0.299991,2.01892e-06,0
0.1,6.1,0,0.29999,3.16137e-06,0
0.1,6.2,0,0.29999,4.29005e-06,0
0.1,6.3,0,0.299989,5.40418e-06,0
0.1,6.4,0,0.299988,6.50316e-06,0
0.1,6.5,0,0.299988,7.58666e-06,0
0.1,6.6,0,0.299987,8.65458e-06,0
0.1,6.7,0,0.299987,9.70705e-06,0
0.1,6.8,0,0.299987,1.07447e-05,0
0.1,6.9,0,0.299987,1.17648e-05,0
0.1,7,0,0.299987,1.34203e-05,0
0.1,7.1,0,0.300105,-3.35914e-05,0
0.1,7.2,0,0.300105,-3.35914e-05,0
0.1,7.3,0,0.300042,-6.62636e-06,0
0.1,7.4,0,0.300096,-2.95499e-05,0
0.1,7.5,0,0.300096,-2.95499e-05,0
0.1,7.6,0,0.30008,-2.63232e-05,0
0.1,7.7,0,0.30008,-2.63232e-05,0
0.1,7.8,0,0.30008,-2.63232e-05,0
0.1,7.9,0,0.300059,-2.43857e-05,0
0.1,8,0,0.300059,-2.43857e-05,0
0.1,8.1,0,0.300059,-2.43857e-05,0
0.1,8.2,0,0.300037,-2.38764e-05,0
0.1,8.3,0,0.300037,-2.38764e-05,0
0.1,8.4,0,0.30003,-1.46734e-05,0
0.1,8.5,0,0.300016,-2.45842e-05,0
0.1,8.6,0,0.300016,-2.45842e-05,0
0.1,8.7,0,0.300004,1.50351e-05,0
0.1,8.8,0,0.299998,-2.61328e-05,0
0.1,8.9,0,0.299998,-2.61328e-05,0
0.1,9,0,0.299997,2.7121e-05,0
0.1,9.1,0,0.299986,-2.80682e-05,0
0.1,9.2,0,0.299986,-2.80682e-05,0
0.1,9.3,0,0.299986,-6.22261e-06,0
0.1,9.4,0,0.299979,-2.99499e-05,0
0.1,9.5,0,0.299979,-2.99499e-05,0
0.1,9.6,0,0.299976,-3.1432e-05,0
0.1,9.7,0,0.299976,-3.1432e-05,0
0.1,9.8,0,0.299976,-3.1432e-05,0
0.1,9.9,0,0.299978,-3.23101e-05,0
0.1,10,0,0.299978,-3.23101e-05,0
0.1,10.1,0,0.299978,-3.23101e-05,0
0.1,10.2,0,0.299982,-3.25269e-05,0
0.1,10.3,0,0.299982,-3.25269e-05,0
0.1,10.4,0,0.299987,-4.78749e-06,0
0.1,10.5,0,0.299987,-3.2148e-05,0
0.1,10.6,0,0.299987,-3.2148e-05,0
0.1,10.7,0,0.299996,3.82941e-05,0
0.1,10.8,0,0.299992,-3.13185e-05,0
0.1,10.9,0,0.299992,-3.13185e-05,0
0.1,11,0,0.299998,2.58228e-05,0
0.1,11.1,0,0.299997,-3.02168e-05,0
0.1,11.2,0,0.299997,-3.02168e-05,0
0.1,11.3,0,0.300001,-1.5e-05,0
0.1,11.4,0,0.300002,-2.90177e-05,0
0.1,11.5,0,0.300002,-2.90177e-05,0
0.1,11.6,0,0.300005,-2.78667e-05,0
0.1,11.7,0,0.300005,-2.78667e-05,0
0.1,11.8,0,0.300005,-2.78667e-05,0
0.1,11.9,0,0.300008,-2.68577e-05,0
0.1,12,0,0.300008,-2.68577e-05,0
0.1,12.1,0,0.300008,-2.68577e-05,0
0.1,12.2,0,0.30001,-2.60069e-05,0
0.1,12.3,0,0.30001,-2.60069e-05,0
0.1,12.4,0,0.300004,1.60398e-05,0
0.1,12.5,0,0.300015,-3.5366e-05,0
0.1,12.6,0,0.300022,-5.35406e-05,0
0.1,12.7,0,0.300018,1.19322e-05,0
0.2,0,0,0.30001,-0.000177811,0
0.2,0.1,0,0.300018,-0.00013219,0
0.2,0.2,0,0.300012,-9.50586e-05,0
0.2,0.3,0,0.300013,-9.50902e-05,0
0.2,0.4,0,0.300013,-9.47512e-05,0
0.2,0.5,0,0.299999,-0.00010067,0
0.2,0.6,0,0.300014,-9.46754e-05,0
0.2,0.7,0,0.300014,-9.49113e-05,0
0.2,0.8,0,0.300014,-9.48077e-05,0
0.2,0.9,0,0.300014,-9.45663e-05,0
0.2,1,0,0.299998,-9.77186e-05,0
0.2,1.1,0,0.300014,-9.44408e-05,0
0.2,1.2,0,0.300013,-9.45006e-05,0
0.2,1.3,0,0.300011,-9.43766e-05,0
0.2,1.4,0,0.300012,-9.43103e-05,0
0.2,1.5,0,0.299997,-9.31578e-05,0
0.2,1.6,0,0.300009,-9.42307e-05,0
0.2,1.7,0,0.300009,-9.40339e-05,0
0.2,1.8,0,0.300004,-9.40971e-05,0
0.2,1.9,0,0.300004,-9.42973e-05,0
0.2,2,0,0.299997,-8.70489e-05,0
0.2,2.1,0,0.299997,-9.46392e-05,0
0.2,2.2,0,0.299997,-9.40786e-05,0
0.2,2.3,0,0.299989,-9.48138e-05,0
0.2,2.4,0,0.299989,-9.54131e-05,0
0.2,2.5,0,0.299998,-7.94314e-05,0
0.2,2.6,0,0.299979,-9.67891e-05,0
0.2,2.7,0,0.29998,-9.57022e-05,0
0.2,2.8,0,0.29997,-9.77358e-05,0
0.2,2.9,0,0.299968,-9.89297e-05,0
0.2,3,0,0.3,-7.02863e-05,0
0.2,3.1,0,0.299957,-0.000101963,0
0.2,3.2,0,0.29996,-0.000100121,0
0.2,3.3,0,0.29995,-0.000103912,0
0.2,3.4,0,0.299948,-0.000105954,0
0.2,3.5,0,0.300003,-5.9572e-05,0
0.2,3.6,0,0.29994,-0.000110876,0
0.2,3.7,0,0.299943,-0.000108014,0
0.2,3.8,0,0.299941,-0.000113439,0
0.2,3.9,0,0.299937,-0.000116587,0
0.2,4,0,0.300004,-4.7321e-05,0
0.2,4.1,0,0.299939,-0.000122799,0
0.2,4.2,0,0.299943,-0.000118693,0
0.2,4.3,0,0.299951,-0.00012468,0
0.2,4.4,0,0.299948,-0.000129101,0
0.2,4.5,0,0.300004,-3.37554e-05,0
0.2,4.6,0,0.299963,-0.00013517,0
0.2,4.7,0,0.299965,-0.000129738,0
0.2,4.8,0,0.299987,-0.000134843,0
0.2,4.9,0,0.299986,-0.000140544,0
0.2,5,0,0.3,-2.09202e-05,0
0.2,5.1,0,0.299998,-1.72548e-05,0
0.2,5.2,0,0.299996,-1.48769e-05,0
0.2,5.3,0,0.299995,-1.24867e-05,0
0.2,5.4,0,0.299993,-1.00952e-05,0
0.2,5.5,0,0.299991,-7.70689e-06,0
0.2,5.6,0,0.299989,-5.32637e-06,0
0.2,5.7,0,0.299988,-2.95784e-06,0
0.2,5.8,0,0.299986,-6.05368e-07,0
0.2,5.9,0,0.299984,1.72758e-06,0
0.2,6,0,0.299982,4.03784e-06,0
0.2,6.1,0,0.299981,6.32274e-06,0
0.2,6.2,0,0.299979,8.58011e-06,0
0.2,6.3,0,0.299978,1.08084e-05,0
0.2,6.4,0,0.299977,1.30063e-05,0
0.2,6.5,0,0.299976,1.51733e-05,0
0.2,6.6,0,0.299975,1.73092e-05,0
0.2,6.7,0,0.299974,1.94141e-05,0
0.2,6.8,0,0.299974,2.14893e-05,0
0.2,6.9,0,0.299974,2.35296e-05,0
0.2,7,0,0.299974,2.68407e-05,0
0.2,7.1,0,0.300211,-6.71827e-05,0
0.2,7.2,0,0.300211,-6.71827e-05,0
0.2,7.3,0,0.30003,9.67083e-06,0
0.2,7.4,0,0.300192,-5.90998e-05,0
0.2,7.5,0,0.300192,-5.90998e-05,0
0.2,7.6,0,0.300069,-6.14276e-06,0
0.2,7.7,0,0.300159,-5.26463e-05,0
0.2,7.8,0,0.300145,-4.42622e-05,0
0.2,7.9,0,0.300084,-2.45878e-05,0
0.2,8,0,0.300117,-4.87714e-05,0
0.2,8.1,0,0.300075,-1.40428e-05,0
0.2,8.2,0,0.300073,-4.77528e-05,0
0.2,8.3,0,0.300073,-4.77528e-05,0
0.2,8.4,0,0.300027,1.66686e-05,0
0.2,8.5,0,0.300031,-4.91684e-05,0
0.2,8.6,0,0.300031,-4.91684e-05,0
0.2,8.7,0,0.300003,4.98799e-05,0
0.2,8.8,0,0.299996,-5.22657e-05,0
0.2,8.9,0,0.299996,-5.22657e-05,0
0.2,9,0,0.299997,6.52798e-05,0
0.2,9.1,0,0.299971,-5.61364e-05,0
0.2,9.2,0,0.299971,-5.61364e-05,0
0.2,9.3,0,0.299986,3.50093e-05,0
0.2,9.4,0,0.299957,-5.98998e-05,0
0.2,9.5,0,0.299957,-5.98998e-05,0
0.2,9.6,0,0.299972,1.98377e-08,0
0.2,9.7,0,0.299952,-6.2864e-05,0
0.2,9.8,0,0.29996,-3.68756e-05,0
0.2,9.9,0,0.299963,-3.83391e-05,0
0.2,10,0,0.299955,-6.46202e-05,0
0.2,10.1,0,0.299973,2.92887e-06,0
0.2,10.2,0,0.299963,-6.50539e-05,0
0.2,10.3,0,0.299963,-6.50539e-05,0
0.2,10.4,0,0.299985,4.59039e-05,0
0.2,10.5,0,0.299973,-6.4296e-05,0
0.2,10.6,0,0.299973,-6.4296e-05,0
0.2,10.7,0,0.299994,9.06765e-05,0
0.2,10.8,0,0.299985,-6.26371e-05,0
0.2,10.9,0,0.299985,-6.26371e-05,0
0.2,11,0,0.299995,7.96653e-05,0
0.2,11.1,0,0.299995,-6.04337e-05,0
0.2,11.2,0,0.299995,-6.04337e-05,0
0.2,11.3,0,0.299999,4.00886e-05,0
0.2,11.4,0,0.300004,-5.80354e-05,0
0.2,11.5,0,0.300004,-5.80354e-05,0
0.2,11.6,0,0.300006,2.63807e-07,0
0.2,11.7,0,0.300011,-5.57335e-05,0
0.2,11.8,0,0.300007,-1.33166e-05,0
0.2,11.9,0,0.300014,-3.97446e-05,0
0.2,12,0,0.300016,-5.37154e-05,0
0.2,12.1,0,0.300006,3.07579e-05,0
0.2,12.2,0,0.300019,-5.20139e-05,0
0.2,12.3,0,0.300019,-5.20139e-05,0
0.2,12.4,0,0.300003,7.41264e-05,0
0.2,12.5,0,0.300023,-5.52835e-05,0
0.2,12.6,0,0.30003,-7.34581e-05,0
0.2,12.7,0,0.300015,7.56621e-05,0
0.3,0,0,0.300008,-0.000218611,0
0.3,0.1,0,0.300023,-0.000169421,0
0.3,0.2,0,0.300012,-0.000145824,0
0.3,0.3,0,0.300012,-0.000145856,0
0.3,0.4,0,0.30002,-0.000142127,0
0.3,0.5,0,0.299998,-0.000151005,0
0.3,0.6,0,0.300021,-0.000142013,0
0.3,0.7,0,0.300013,-0.000144609,0
0.3,0.8,0,0.300013,-0.000144505,0
0.3,0.9,0,0.300021,-0.000141849,0
0.3,1,0,0.299996,-0.000146578,0
0.3,1.1,0,0.300021,-0.000141661,0
0.3,1.2,0,0.300012,-0.000142319,0
0.3,1.3,0,0.30001,-0.000142195,0
0.3,1.4,0,0.300018,-0.000141465,0
0.3,1.5,0,0.299995,-0.000139737,0
0.3,1.6,0,0.300014,-0.000141346,0
0.3,1.7,0,0.300007,-0.00013918,0
0.3,1.8,0,0.300002,-0.000139244,0
0.3,1.9,0,0.300006,-0.000141446,0
0.3,2,0,0.299995,-0.000130573,0
0.3,2.1,0,0.299996,-0.000141959,0
0.3,2.2,0,0.299996,-0.000135793,0
0.3,2.3,0,0.299988,-0.000136528,0
0.3,2.4,0,0.299984,-0.00014312,0
0.3,2.5,0,0.299996,-0.000119147,0
0.3,2.6,0,0.299968,-0.000145184,0
0.3,2.7,0,0.299979,-0.000133229,0
0.3,2.8,0,0.299969,-0.000135262,0
0.3,2.9,0,0.299952,-0.000148395,0
0.3,3,0,0.3,-0.000105429,0
0.3,3.1,0,0.299936,-0.000152944,0
0.3,3.2,0,0.29996,-0.000132684,0
0.3,3.3,0,0.299951,-0.000136476,0
0.3,3.4,0,0.299922,-0.000158931,0
0.3,3.5,0,0.300004,-8.9358e-05,0
0.3,3.6,0,0.29991,-0.000166314,0
0.3,3.7,0,0.299945,-0.000134829,0
0.3,3.8,0,0.299942,-0.000140254,0
0.3,3.9,0,0.299906,-0.00017488,0
0.3,4,0,0.300007,-7.09815e-05,0
0.3,4.1,0,0.299909,-0.000184198,0
0.3,4.2,0,0.299945,-0.000139035,0
0.3,4.3,0,0.299953,-0.000145022,0
0.3,4.4,0,0.299922,-0.000193652,0
0.3,4.5,0,0.300005,-5.06331e-05,0
0.3,4.6,0,0.299945,-0.000202755,0
0.3,4.7,0,0.299966,-0.000143001,0
0.3,4.8,0,0.299988,-0.000148106,0
0.3,4.9,0,0.299979,-0.000210817,0
0.3,5,0,0.299999,-3.13803e-05,0
0.3,5.1,0,0.299996,-2.58823e-05,0
0.3,5.2,0,0.299994,-2.23154e-05,0
0.3,5.3,0,0.299992,-1.873e-05,0
0.3,5.4,0,0.299989,-1.51428e-05,0
0.3,5.5,0,0.299987,-1.15603e-05,0
0.3,5.6,0,0.299984,-7.98955e-06,0
0.3,5.7,0,0.299981,-4.43676e-06,0
0.3,5.8,0,0.299979,-9.08053e-07,0
0.3,5.9,0,0.299976,2.59137e-06,0
0.3,6,0,0.299974,6.05676e-06,0
0.3,6.1,0,0.299971,9.48411e-06,0
0.3,6.2,0,0.299969,1.28702e-05,0
0.3,6.3,0,0.299967,1.62126e-05,0
0.3,6.4,0,0.299965,1.95095e-05,0
0.3,6.5,0,0.299964,2.276e-05,0
0.3,6.6,0,0.299962,2.59637e-05,0
0.3,6.7,0,0.299962,2.91212e-05,0
0.3,6.8,0,0.299961,3.2234e-05,0
0.3,6.9,0,0.299961,3.52944e-05,0
0.3,7,0,0.299961,4.0261e-05,0
0.3,7.1,0,0.300316,-0.000100774,0
0.3,7.2,0,0.300297,-9.24593e-05,0
0.3,7.3,0,0.300018,2.5968e-05,0
0.3,7.4,0,0.300287,-8.86497e-05,0
0.3,7.5,0,0.300217,-5.54962e-05,0
0.3,7.6,0,0.300059,1.40376e-05,0
0.3,7.7,0,0.300239,-7.89695e-05,0
0.3,7.8,0,0.300137,-2.02808e-05,0
0.3,7.9,0,0.300076,-6.06434e-07,0
0.3,8,0,0.300176,-7.31571e-05,0
0.3,8.1,0,0.300069,1.36644e-05,0
0.3,8.2,0,0.300068,-2.00456e-05,0
0.3,8.3,0,0.30011,-7.16293e-05,0
0.3,8.4,0,0.300024,4.80105e-05,0
0.3,8.5,0,0.300037,-4.57896e-05,0
0.3,8.6,0,0.300047,-7.37526e-05,0
0.3,8.7,0,0.300001,8.47247e-05,0
0.3,8.8,0,0.299994,-7.83985e-05,0
0.3,8.9,0,0.299994,-7.83985e-05,0
0.3,9,0,0.299996,0.000103439,0
0.3,9.1,0,0.299957,-8.42046e-05,0
0.3,9.2,0,0.299962,-6.11046e-05,0
0.3,9.3,0,0.299986,7.62413e-05,0
0.3,9.4,0,0.299936,-8.98497e-05,0
0.3,9.5,0,0.299953,-2.82009e-05,0
0.3,9.6,0,0.299972,4.40484e-05,0
0.3,9.7,0,0.299929,-9.4296e-05,0
0.3,9.8,0,0.29996,9.65772e-06,0
0.3,9.9,0,0.299962,8.19421e-06,0
0.3,10,0,0.299933,-9.69303e-05,0
0.3,10.1,0,0.299972,5.16777e-05,0
0.3,10.2,0,0.299959,-2.98511e-05,0
0.3,10.3,0,0.299945,-9.75808e-05,0
0.3,10.4,0,0.299984,9.65954e-05,0
0.3,10.5,0,0.299964,-6.88309e-05,0
0.3,10.6,0,0.29996,-9.6444e-05,0
0.3,10.7,0,0.299992,0.000143059,0
0.3,10.8,0,0.299977,-9.39556e-05,0
0.3,10.9,0,0.299977,-9.39556e-05,0
0.3,11,0,0.299993,0.000133508,0
0.3,11.1,0,0.299992,-9.06505e-05,0
0.3,11.2,0,0.299993,-4.79978e-05,0
0.3,11.3,0,0.299997,9.51772e-05,0
0.3,11.4,0,0.300006,-8.70531e-05,0
0.3,11.5,0,0.300002,-1.90618e-06,0
0.3,11.6,0,0.300004,5.6393e-05,0
0.3,11.7,0,0.300016,-8.36002e-05,0
0.3,11.8,0,0.300005,4.36505e-05,0
0.3,11.9,0,0.300012,1.72225e-05,0
0.3,12,0,0.300023,-8.05731e-05,0
0.3,12.1,0,0.300005,8.83735e-05,0
0.3,12.2,0,0.300022,-2.22725e-05,0
0.3,12.3,0,0.300029,-7.80208e-05,0
0.3,12.4,0,0.300002,0.000132213,0
0.3,12.5,0,0.30003,-6.22003e-05,0
0.3,12.6,0,0.300039,-9.33756e-05,0
0.3,12.7,0,0.300012,0.000139392,0
0.4,0,0,0.300007,-0.00025941,0
0.4,0.1,0,0.300027,-0.000207366,0
0.4,0.2,0,0.300012,-0.00019659,0
0.4,0.3,0,0.300012,-0.000196622,0
0.4,0.4,0,0.300025,-0.000190094,0
0.4,0.5,0,0.299998,-0.00020134,0
0.4,0.6,0,0.300027,-0.00018995,0
0.4,0.7,0,0.300012,-0.000194306,0
0.4,0.8,0,0.300012,-0.000194203,0
0.4,0.9,0,0.300027,-0.000189448,0
0.4,1,0,0.299995,-0.000195437,0
0.4,1.1,0,0.300026,-0.000189209,0
0.4,1.2,0,0.30001,-0.000190137,0
0.4,1.3,0,0.300009,-0.000190013,0
0.4,1.4,0,0.300023,-0.000188505,0
0.4,1.5,0,0.299994,-0.000186316,0
0.4,1.6,0,0.300017,-0.000188354,0
0.4,1.7,0,0.300005,-0.000184327,0
0.4,1.8,0,0.3,-0.00018439,0
0.4,1.9,0,0.300008,-0.00018787,0
0.4,2,0,0.299993,-0.000174098,0
0.4,2.1,0,0.299995,-0.000188519,0
0.4,2.2,0,0.299994,-0.000177507,0
0.4,2.3,0,0.299986,-0.000178243,0
0.4,2.4,0,0.299979,-0.000189228,0
0.4,2.5,0,0.299995,-0.000158863,0
0.4,2.6,0,0.29996,-0.000191842,0
0.4,2.7,0,0.299978,-0.000170755,0
0.4,2.8,0,0.299968,-0.000172788,0
0.4,2.9,0,0.299939,-0.000194995,0
0.4,3,0,0.3,-0.000140573,0
0.4,3.1,0,0.299919,-0.000200758,0
0.4,3.2,0,0.299961,-0.000165248,0
0.4,3.3,0,0.299952,-0.000169039,0
0.4,3.4,0,0.299901,-0.000207269,0
0.4,3.5,0,0.300005,-0.000119144,0
0.4,3.6,0,0.299887,-0.000216622,0
0.4,3.7,0,0.299947,-0.000161643,0
0.4,3.8,0,0.299944,-0.000167069,0
0.4,3.9,0,0.299881,-0.000226247,0
0.4,4,0,0.300009,-9.4642e-05,0
0.4,4.1,0,0.299885,-0.00023805,0
0.4,4.2,0,0.299947,-0.000159376,0
0.4,4.3,0,0.299955,-0.000165364,0
0.4,4.4,0,0.299901,-0.000248668,0
0.4,4.5,0,0.300007,-6.75108e-05,0
0.4,4.6,0,0.299931,-0.000260199,0
0.4,4.7,0,0.299967,-0.000156263,0
0.4,4.8,0,0.299989,-0.000161369,0
0.4,4.9,0,0.299974,-0.000269126,0
0.4,5,0,0.299999,-4.18403e-05,0
0.4,5.1,0,0.299995,-3.45097e-05,0
0.4,5.2,0,0.299992,-2.97539e-05,0
0.4,5.3,0,0.299989,-2.49734e-05,0
0.4,5.4,0,0.299986,-2.01904e-05,0
0.4,5.5,0,0.299982,-1.54138e-05,0
0.4,5.6,0,0.299979,-1.06527e-05,0
0.4,5.7,0,0.299975,-5.91568e-06,0
0.4,5.8,0,0.299972,-1.21074e-06,0
0.4,5.9,0,0.299968,3.45516e-06,0
0.4,6,0,0.299965,8.07568e-06,0
0.4,6.1,0,0.299962,1.26455e-05,0
0.4,6.2,0,0.299959,1.71602e-05,0
0.4,6.3,0,0.299956,2.16167e-05,0
0.4,6.4,0,0.299953,2.60126e-05,0
0.4,6.5,0,0.299952,3.03466e-05,0
0.4,6.6,0,0.29995,3.46183e-05,0
0.4,6.7,0,0.299949,3.88282e-05,0
0.4,6.8,0,0.299948,4.29786e-05,0
0.4,6.9,0,0.299948,4.70592e-05,0
0.4,7,0,0.299949,5.36813e-05,0
0.4,7.1,0,0.300343,-0.000103024,0
0.4,7.2,0,0.300285,-7.61622e-05,0
0.4,7.3,0,0.300006,4.22652e-05,0
0.4,7.4,0,0.300365,-0.000110558,0
0.4,7.5,0,0.300206,-3.53158e-05,0
0.4,7.6,0,0.300049,3.4218e-05,0
0.4,7.7,0,0.300318,-0.000105293,0
0.4,7.8,0,0.300129,3.70057e-06,0
0.4,7.9,0,0.300068,2.3375e-05,0
0.4,8,0,0.300235,-9.75427e-05,0
0.4,8.1,0,0.300064,4.13716e-05,0
0.4,8.2,0,0.300062,7.66158e-06,0
0.4,8.3,0,0.300147,-9.55057e-05,0
0.4,8.4,0,0.30002,7.93525e-05,0
0.4,8.5,0,0.300034,-1.44476e-05,0
0.4,8.6,0,0.300057,-7.85272e-05,0
0.4,8.7,0,0.3,0.000119569,0
0.4,8.8,0,0.299993,-4.35537e-05,0
0.4,8.9,0,0.299994,-5.0955e-05,0
0.4,9,0,0.299996,0.000141598,0
0.4,9.1,0,0.29995,-7.91593e-05,0
0.4,9.2,0,0.299962,-1.98726e-05,0
0.4,9.3,0,0.299986,0.000117473,0
0.4,9.4,0,0.299914,-0.0001198,0
0.4,9.5,0,0.299953,1.58277e-05,0
0.4,9.6,0,0.299972,8.8077e-05,0
0.4,9.7,0,0.299905,-0.000125728,0
0.4,9.8,0,0.299959,5.6191e-05,0
0.4,9.9,0,0.299962,5.47275e-05,0
0.4,10,0,0.299911,-0.00012924,0
0.4,10.1,0,0.299971,0.000100426,0
0.4,10.2,0,0.299958,1.88977e-05,0
0.4,10.3,0,0.299927,-0.000130108,0
0.4,10.4,0,0.299982,0.000147287,0
0.4,10.5,0,0.299962,-1.81394e-05,0
0.4,10.6,0,0.299952,-8.63268e-05,0
0.4,10.7,0,0.299989,0.000195441,0
0.4,10.8,0,0.299974,-5.55233e-05,0
0.4,10.9,0,0.299975,-4.0113e-05,0
0.4,11,0,0.299991,0.00018735,0
0.4,11.1,0,0.29999,-9.28476e-05,0
0.4,11.2,0,0.29999,7.09076e-06,0
0.4,11.3,0,0.299994,0.000150266,0
0.4,11.4,0,0.300008,-0.000116071,0
0.4,11.5,0,0.3,5.4223e-05,0
0.4,11.6,0,0.300001,0.000112522,0
0.4,11.7,0,0.300021,-0.000111467,0
0.4,11.8,0,0.300003,0.000100618,0
0.4,11.9,0,0.30001,7.41896e-05,0
0.4,12,0,0.300031,-0.000107431,0
0.4,12.1,0,0.300004,0.000145989,0
0.4,12.2,0,0.30002,3.53431e-05,0
0.4,12.3,0,0.300037,-9.00122e-05,0
0.4,12.4,0,0.300001,0.0001903,0
0.4,12.5,0,0.300029,-4.11369e-06,0
0.4,12.6,0,0.300039,-5.75282e-05,0
0.4,12.7,0,0.300009,0.000203122,0
0.5,0,0,0.300005,-0.00030021,0
0.5,0.1,0,0.300026,-0.000248166,0
0.5,0.2,0,0.300011,-0.000247356,0
0.5,0.3,0,0.300012,-0.000247388,0
0.5,0.4,0,0.300025,-0.000240429,0
0.5,0.5,0,0.299997,-0.000251675,0
0.5,0.6,0,0.300026,-0.000240285,0
0.5,0.7,0,0.300011,-0.000244004,0
0.5,0.8,0,0.300011,-0.0002439,0
0.5,0.9,0,0.300026,-0.000238307,0
0.5,1,0,0.299994,-0.000244297,0
0.5,1.1,0,0.300025,-0.000238069,0
0.5,1.2,0,0.300009,-0.000237956,0
0.5,1.3,0,0.300007,-0.000237832,0
0.5,1.4,0,0.300021,-0.000235084,0
0.5,1.5,0,0.299992,-0.000232895,0
0.5,1.6,0,0.300016,-0.000234933,0
0.5,1.7,0,0.300003,-0.000229473,0
0.5,1.8,0,0.299999,-0.000229537,0
0.5,1.9,0,0.300006,-0.000231394,0
0.5,2,0,0.299991,-0.000217622,0
0.5,2.1,0,0.299993,-0.000232044,0
0.5,2.2,0,0.299993,-0.000219222,0
0.5,2.3,0,0.299985,-0.000219957,0
0.5,2.4,0,0.299978,-0.000228944,0
0.5,2.5,0,0.299994,-0.000198578,0
0.5,2.6,0,0.299959,-0.000231558,0
0.5,2.7,0,0.299978,-0.000208281,0
0.5,2.8,0,0.299967,-0.000210315,0
0.5,2.9,0,0.299939,-0.000230138,0
0.5,3,0,0.299999,-0.000175716,0
0.5,3.1,0,0.299919,-0.000235901,0
0.5,3.2,0,0.299961,-0.000197811,0
0.5,3.3,0,0.299952,-0.000201602,0
0.5,3.4,0,0.299902,-0.000237055,0
0.5,3.5,0,0.300006,-0.00014893,0
0.5,3.6,0,0.299888,-0.000246408,0
0.5,3.7,0,0.299949,-0.000188458,0
0.5,3.8,0,0.299946,-0.000193883,0
0.5,3.9,0,0.299883,-0.000249908,0
0.5,4,0,0.300011,-0.000118303,0
0.5,4.1,0,0.299887,-0.00026171,0
0.5,4.2,0,0.299949,-0.000179718,0
0.5,4.3,0,0.299957,-0.000185705,0
0.5,4.4,0,0.299903,-0.000265545,0
0.5,4.5,0,0.300009,-8.43885e-05,0
0.5,4.6,0,0.299933,-0.000277076,0
0.5,4.7,0,0.299968,-0.000169526,0
0.5,4.8,0,0.299989,-0.000174631,0
0.5,4.9,0,0.299973,-0.000279587,0
0.5,5,0,0.299999,-5.23004e-05,0
0.5,5.1,0,0.299994,-4.31371e-05,0
0.5,5.2,0,0.29999,-3.71924e-05,0
0.5,5.3,0,0.299986,-3.12167e-05,0
0.5,5.4,0,0.299982,-2.5238e-05,0
0.5,5.5,0,0.299978,-1.92672e-05,0
0.5,5.6,0,0.299973,-1.33159e-05,0
0.5,5.7,0,0.299969,-7.39461e-06,0
0.5,5.8,0,0.299965,-1.51342e-06,0
0.5,5.9,0,0.29996,4.31895e-06,0
0.5,6,0,0.299956,1.00946e-05,0
0.5,6.1,0,0.299952,1.58068e-05,0
0.5,6.2,0,0.299948,2.14503e-05,0
0.5,6.3,0,0.299945,2.70209e-05,0
0.5,6.4,0,0.299942,3.25158e-05,0
0.5,6.5,0,0.299939,3.79333e-05,0
0.5,6.6,0,0.299937,4.32729e-05,0
0.5,6.7,0,0.299936,4.85353e-05,0
0.5,6.8,0,0.299935,5.37233e-05,0
0.5,6.9,0,0.299935,5.88239e-05,0
0.5,7,0,0.299936,6.71017e-05,0
0.5,7.1,0,0.30033,-8.9604e-05,0
0.5,7.2,0,0.300273,-5.9865e-05,0
0.5,7.3,0,0.299994,5.85624e-05,0
0.5,7.4,0,0.300353,-9.42612e-05,0
0.5,7.5,0,0.300196,-1.51354e-05,0
0.5,7.6,0,0.300039,5.43984e-05,0
0.5,7.7,0,0.300338,-0.000100613,0
0.5,7.8,0,0.300121,2.7682e-05,0
0.5,7.9,0,0.30006,4.73564e-05,0
0.5,8,0,0.300261,-9.65029e-05,0
0.5,8.1,0,0.300058,6.90789e-05,0
0.5,8.2,0,0.300057,3.53688e-05,0
0.5,8.3,0,0.30015,-7.33668e-05,0
0.5,8.4,0,0.300017,0.000110694,0
0.5,8.5,0,0.300031,1.68943e-05,0
0.5,8.6,0,0.300055,-4.36824e-05,0
0.5,8.7,0,0.299998,0.000154414,0
0.5,8.8,0,0.299991,-8.70895e-06,0
0.5,8.9,0,0.299993,-1.27961e-05,0
0.5,9,0,0.299996,0.000179756,0
0.5,9.1,0,0.299949,-4.10005e-05,0
0.5,9.2,0,0.299962,2.13593e-05,0
0.5,9.3,0,0.299986,0.000158705,0
0.5,9.4,0,0.299914,-7.85676e-05,0
0.5,9.5,0,0.299953,5.98563e-05,0
0.5,9.6,0,0.299972,0.000132106,0
0.5,9.7,0,0.299893,-0.00011943,0
0.5,9.8,0,0.299959,0.000102724,0
0.5,9.9,0,0.299961,0.000101261,0
0.5,10,0,0.299899,-0.000121021,0
0.5,10.1,0,0.29997,0.000149175,0
0.5,10.2,0,0.299957,6.76465e-05,0
0.5,10.3,0,0.299925,-7.94164e-05,0
0.5,10.4,0,0.29998,0.000197978,0
0.5,10.5,0,0.299961,3.2552e-05,0
0.5,10.6,0,0.29995,-3.39443e-05,0
0.5,10.7,0,0.299987,0.000247824,0
0.5,10.8,0,0.299972,-3.1408e-06,0
0.5,10.9,0,0.299973,1.37295e-05,0
0.5,11,0,0.299988,0.000241193,0
0.5,11.1,0,0.299988,-3.9005e-05,0
0.5,11.2,0,0.299988,6.21793e-05,0
0.5,11.3,0,0.299992,0.000205354,0
0.5,11.4,0,0.300006,-7.49999e-05,0
0.5,11.5,0,0.299997,0.000110352,0
0.5,11.6,0,0.299999,0.000168651,0
0.5,11.7,0,0.300023,-9.71961e-05,0
0.5,11.8,0,0.300002,0.000157585,0
0.5,11.9,0,0.300009,0.000131157,0
0.5,12,0,0.300033,-7.79729e-05,0
0.5,12.1,0,0.300002,0.000203605,0
0.5,12.2,0,0.300019,9.29587e-05,0
0.5,12.3,0,0.300036,-3.19256e-05,0
0.5,12.4,0,0.3,0.000248386,0
0.5,12.5,0,0.300028,5.39729e-05,0
0.5,12.6,0,0.300036,6.20177e-06,0
0.5,12.7,0,0.300006,0.000266852,0
0.6,0,0,0.300004,-0.00034101,0
0.6,0.1,0,0.300022,-0.000293026,0
0.6,0.2,0,0.300011,-0.000298122,0
0.6,0.3,0,0.300011,-0.000298154,0
0.6,0.4,0,0.300022,-0.000291781,0
0.6,0.5,0,0.299996,-0.00030201,0
0.6,0.6,0,0.300023,-0.000291328,0
0.6,0.7,0,0.30001,-0.000293701,0
0.6,0.8,0,0.30001,-0.000293597,0
0.6,0.9,0,0.300022,-0.000287891,0
0.6,1,0,0.299993,-0.000293156,0
0.6,1.1,0,0.300021,-0.000287107,0
0.6,1.2,0,0.300007,-0.000285774,0
0.6,1.3,0,0.300006,-0.00028565,0
0.6,1.4,0,0.300017,-0.000281862,0
0.6,1.5,0,0.29999,-0.000279474,0
0.6,1.6,0,0.300012,-0.000280921,0
0.6,1.7,0,0.300002,-0.00027462,0
0.6,1.8,0,0.299997,-0.000274683,0
0.6,1.9,0,0.300003,-0.000274318,0
0.6,2,0,0.29999,-0.000261147,0
0.6,2.1,0,0.299991,-0.000273887,0
0.6,2.2,0,0.299991,-0.000260936,0
0.6,2.3,0,0.299983,-0.000261671,0
0.6,2.4,0,0.299978,-0.000266862,0
0.6,2.5,0,0.299993,-0.000238294,0
0.6,2.6,0,0.29996,-0.000268013,0
0.6,2.7,0,0.299977,-0.000245807,0
0.6,2.8,0,0.299967,-0.000247841,0
0.6,2.9,0,0.299944,-0.0002617,0
0.6,3,0,0.299999,-0.000210859,0
0.6,3.1,0,0.299926,-0.000265519,0
0.6,3.2,0,0.299962,-0.000230374,0
0.6,3.3,0,0.299953,-0.000234166,0
0.6,3.4,0,0.299912,-0.000260717,0
0.6,3.5,0,0.300008,-0.000178716,0
0.6,3.6,0,0.299899,-0.000267607,0
0.6,3.7,0,0.299951,-0.000215273,0
0.6,3.8,0,0.299948,-0.000220698,0
0.6,3.9,0,0.299896,-0.000264125,0
0.6,4,0,0.300013,-0.000141963,0
0.6,4.1,0,0.299899,-0.000273053,0
0.6,4.2,0,0.299951,-0.00020006,0
0.6,4.3,0,0.299959,-0.000206047,0
0.6,4.4,0,0.299913,-0.00026916,0
0.6,4.5,0,0.300011,-0.000101266,0
0.6,4.6,0,0.29994,-0.000277657,0
0.6,4.7,0,0.299969,-0.000182789,0
0.6,4.8,0,0.29999,-0.000187894,0
0.6,4.9,0,0.299975,-0.000272944,0
0.6,5,0,0.299999,-6.27605e-05,0
0.6,5.1,0,0.299993,-5.17645e-05,0
0.6,5.2,0,0.299988,-4.46308e-05,0
0.6,5.3,0,0.299984,-3.74601e-05,0
0.6,5.4,0,0.299979,-3.02856e-05,0
0.6,5.5,0,0.299973,-2.31207e-05,0
0.6,5.6,0,0.299968,-1.59791e-05,0
0.6,5.7,0,0.299963,-8.87353e-06,0
0.6,5.8,0,0.299958,-1.81611e-06,0
0.6,5.9,0,0.299952,5.18274e-06,0
0.6,6,0,0.299947,1.21135e-05,0
0.6,6.1,0,0.299943,1.89682e-05,0
0.6,6.2,0,0.299938,2.57403e-05,0
0.6,6.3,0,0.299934,3.24251e-05,0
0.6,6.4,0,0.29993,3.90189e-05,0
0.6,6.5,0,0.299927,4.55199e-05,0
0.6,6.6,0,0.299925,5.19275e-05,0
0.6,6.7,0,0.299923,5.82423e-05,0
0.6,6.8,0,0.299922,6.44679e-05,0
0.6,6.9,0,0.299922,7.05887e-05,0
0.6,7,0,0.299923,8.0522e-05,0
0.6,7.1,0,0.300317,-7.61837e-05,0
0.6,7.2,0,0.300261,-4.35678e-05,0
0.6,7.3,0,0.299982,7.48596e-05,0
0.6,7.4,0,0.300306,-6.13873e-05,0
0.6,7.5,0,0.300186,5.04503e-06,0
0.6,7.6,0,0.300028,7.45788e-05,0
0.6,7.7,0,0.300255,-3.85126e-05,0
0.6,7.8,0,0.300113,5.16634e-05,0
0.6,7.9,0,0.300052,7.13378e-05,0
0.6,8,0,0.300189,-2.04287e-05,0
0.6,8.1,0,0.300053,9.67861e-05,0
0.6,8.2,0,0.300051,6.3076e-05,0
0.6,8.3,0,0.300119,-7.63576e-06,0
0.6,8.4,0,0.300014,0.000142036,0
0.6,8.5,0,0.300028,4.82363e-05,0
0.6,8.6,0,0.30005,4.8343e-07,0
0.6,8.7,0,0.299997,0.000189259,0
0.6,8.8,0,0.29999,2.61358e-05,0
0.6,8.9,0,0.299993,2.53627e-05,0
0.6,9,0,0.299995,0.000217915,0
0.6,9.1,0,0.299949,-2.84163e-06,0
0.6,9.2,0,0.299962,6.25913e-05,0
0.6,9.3,0,0.299986,0.000199937,0
0.6,9.4,0,0.299925,-3.46434e-07,0
0.6,9.5,0,0.299953,0.000103885,0
0.6,9.6,0,0.299972,0.000176134,0
0.6,9.7,0,0.299916,2.5642e-06,0
0.6,9.8,0,0.299958,0.000149258,0
0.6,9.9,0,0.29996,0.000147794,0
0.6,10,0,0.29992,6.57111e-06,0
0.6,10.1,0,0.299968,0.000197924,0
0.6,10.2,0,0.299956,0.000116395,0
0.6,10.3,0,0.299932,1.19129e-05,0
0.6,10.4,0,0.299978,0.00024867,0
0.6,10.5,0,0.299959,8.32434e-05,0
0.6,10.6,0,0.299948,1.84382e-05,0
0.6,10.7,0,0.299985,0.000300206,0
0.6,10.8,0,0.29997,4.92417e-05,0
0.6,10.9,0,0.29997,6.75721e-05,0
0.6,11,0,0.299986,0.000295036,0
0.6,11.1,0,0.299985,2.90551e-05,0
0.6,11.2,0,0.299986,0.000117268,0
0.6,11.3,0,0.29999,0.000260443,0
0.6,11.4,0,0.300001,3.68533e-05,0
0.6,11.5,0,0.299995,0.000166481,0
0.6,11.6,0,0.299997,0.000224781,0
0.6,11.7,0,0.300013,4.37669e-05,0
0.6,11.8,0,0.3,0.000214552,0
0.6,11.9,0,0.300007,0.000188124,0
0.6,12,0,0.300023,4.94967e-05,0
0.6,12.1,0,0.300001,0.00026122,0
0.6,12.2,0,0.300017,0.000150574,0
0.6,12.3,0,0.300031,5.40351e-05,0
0.6,12.4,0,0.299999,0.000306473,0
0.6,12.5,0,0.300026,0.000112059,0
0.6,12.6,0,0.300033,6.99317e-05,0
0.6,12.7,0,0.300003,0.000330582,0
0.7,0,0,0.300002,-0.00038181,0
0.7,0.1,0,0.300015,-0.00034736,0
0.7,0.2,0,0.300011,-0.000348888,0
0.7,0.3,0,0.300011,-0.000348919,0
0.7,0.4,0,0.300014,-0.000345506,0
0.7,0.5,0,0.299996,-0.000352345,0
0.7,0.6,0,0.300015,-0.000344023,0
0.7,0.7,0,0.300009,-0.000343398,0
0.7,0.8,0,0.300009,-0.000343295,0
0.7,0.9,0,0.300013,-0.000339164,0
0.7,1,0,0.299992,-0.000342015,0
0.7,1.1,0,0.300012,-0.000336565,0
0.7,1.2,0,0.300006,-0.000333592,0
0.7,1.3,0,0.300004,-0.000333468,0
0.7,1.4,0,0.300008,-0.000329104,0
0.7,1.5,0,0.299989,-0.000326052,0
0.7,1.6,0,0.300004,-0.000325531,0
0.7,1.7,0,0.3,-0.000319766,0
0.7,1.8,0,0.299995,-0.00031983,0
0.7,1.9,0,0.299998,-0.00031584,0
0.7,2,0,0.299988,-0.000304671,0
0.7,2.1,0,0.299989,-0.000311806,0
0.7,2.2,0,0.29999,-0.00030265,0
0.7,2.3,0,0.299982,-0.000303386,0
0.7,2.4,0,0.29998,-0.000300585,0
0.7,2.5,0,0.299992,-0.00027801,0
0.7,2.6,0,0.299969,-0.000296861,0
0.7,2.7,0,0.299976,-0.000283334,0
0.7,2.8,0,0.299966,-0.000285367,0
0.7,2.9,0,0.299959,-0.000284904,0
0.7,3,0,0.299999,-0.000246002,0
0.7,3.1,0,0.299947,-0.000282244,0
0.7,3.2,0,0.299963,-0.000262938,0
0.7,3.3,0,0.299953,-0.000266729,0
0.7,3.4,0,0.29994,-0.00027009,0
0.7,3.5,0,0.300009,-0.000208502,0
0.7,3.6,0,0.299932,-0.00026877,0
0.7,3.7,0,0.299953,-0.000242088,0
0.7,3.8,0,0.29995,-0.000247513,0
0.7,3.9,0,0.299931,-0.000256306,0
0.7,4,0,0.300015,-0.000165624,0
0.7,4.1,0,0.299934,-0.000255656,0
0.7,4.2,0,0.299954,-0.000220401,0
0.7,4.3,0,0.299962,-0.000226389,0
0.7,4.4,0,0.299943,-0.000241829,0
0.7,4.5,0,0.300013,-0.000118144,0
0.7,4.6,0,0.299961,-0.000240213,0
0.7,4.7,0,0.29997,-0.000196051,0
0.7,4.8,0,0.299991,-0.000201157,0
0.7,4.9,0,0.299983,-0.000226394,0
0.7,5,0,0.299999,-7.32206e-05,0
0.7,5.1,0,0.299992,-6.03919e-05,0
0.7,5.2,0,0.299986,-5.20693e-05,0
0.7,5.3,0,0.299981,-4.37034e-05,0
0.7,5.4,0,0.299975,-3.53332e-05,0
0.7,5.5,0,0.299969,-2.69741e-05,0
0.7,5.6,0,0.299963,-1.86423e-05,0
0.7,5.7,0,0.299957,-1.03524e-05,0
0.7,5.8,0,0.29995,-2.11879e-06,0
0.7,5.9,0,0.299944,6.04653e-06,0
0.7,6,0,0.299938,1.41324e-05,0
0.7,6.1,0,0.299933,2.21296e-05,0
0.7,6.2,0,0.299928,3.00304e-05,0
0.7,6.3,0,0.299923,3.78293e-05,0