/*--------------------------------*- C++ -*----------------------------------*\
| =========                 |                                                 |
| \\      /  F ield         | OpenFOAM: The Open Source CFD Toolbox           |
|  \\    /   O peration     | Version:  v1806                                 |
|   \\  /    A nd           | Web:      www.OpenFOAM.com                      |
|    \\/     M anipulation  |                                                 |
\*---------------------------------------------------------------------------*/
FoamFile
{
    version     2.0;
    format      ascii;
    class       volVectorField;
    location    "320";
    object      U;
}
// * * * * * * * * * * * * * * * * * * * * * * * * * * * * * * * * * * * * * //

dimensions      [0 1 -1 0 0 0 0];


internalField   nonuniform List<vector> 
2400
(
(0.3 -0.000775367 0)
(0.300003 -0.00232271 0)
(0.300011 -0.00386225 0)
(0.300024 -0.00538862 0)
(0.300043 -0.00689554 0)
(0.30007 -0.00837591 0)
(0.300106 -0.00982185 0)
(0.300153 -0.0112245 0)
(0.300214 -0.012574 0)
(0.30029 -0.013859 0)
(0.300384 -0.0150665 0)
(0.300499 -0.0161822 0)
(0.300636 -0.0171904 0)
(0.300798 -0.0180746 0)
(0.300985 -0.0188185 0)
(0.301199 -0.0194064 0)
(0.301438 -0.0198242 0)
(0.301704 -0.0200609 0)
(0.301991 -0.0201086 0)
(0.30231 -0.0199636 0)
(0.3 -0.000778152 0)
(0.300009 -0.00233134 0)
(0.300026 -0.00387755 0)
(0.300053 -0.00541189 0)
(0.300092 -0.00692846 0)
(0.300144 -0.00842054 0)
(0.300212 -0.0098806 0)
(0.300298 -0.0113001 0)
(0.300407 -0.0126694 0)
(0.300542 -0.0139773 0)
(0.300705 -0.0152108 0)
(0.3009 -0.0163555 0)
(0.301129 -0.0173951 0)
(0.301395 -0.0183128 0)
(0.301696 -0.019091 0)
(0.302034 -0.0197128 0)
(0.302405 -0.0201631 0)
(0.302805 -0.0204283 0)
(0.303229 -0.0205007 0)
(0.303667 -0.020373 0)
(0.300001 -0.000783491 0)
(0.300014 -0.00234767 0)
(0.300041 -0.00390587 0)
(0.300083 -0.00545388 0)
(0.300143 -0.00698645 0)
(0.300223 -0.00849746 0)
(0.300327 -0.00997986 0)
(0.300459 -0.0114256 0)
(0.300625 -0.0128251 0)
(0.300829 -0.0141672 0)
(0.301075 -0.015439 0)
(0.301368 -0.0166251 0)
(0.301712 -0.0177087 0)
(0.302108 -0.0186713 0)
(0.302556 -0.0194938 0)
(0.303055 -0.0201573 0)
(0.3036 -0.020644 0)
(0.304183 -0.020939 0)
(0.304793 -0.0210306 0)
(0.305417 -0.0209145 0)
(0.300001 -0.000791021 0)
(0.300018 -0.00237068 0)
(0.300053 -0.00394566 0)
(0.300108 -0.00551271 0)
(0.300186 -0.00706752 0)
(0.300292 -0.00860479 0)
(0.300429 -0.0101182 0)
(0.300604 -0.0116002 0)
(0.300824 -0.0130416 0)
(0.301095 -0.0144313 0)
(0.301424 -0.0157559 0)
(0.301817 -0.0169994 0)
(0.302279 -0.0181434 0)
(0.302812 -0.0191678 0)
(0.303417 -0.0200505 0)
(0.304091 -0.0207698 0)
(0.304827 -0.0213043 0)
(0.305615 -0.0216358 0)
(0.306437 -0.0217487 0)
(0.307279 -0.0216347 0)
(0.300001 -0.000800219 0)
(0.300021 -0.00239883 0)
(0.300062 -0.0039945 0)
(0.300127 -0.00558526 0)
(0.300219 -0.00716802 0)
(0.300344 -0.00873862 0)
(0.300509 -0.0102917 0)
(0.300721 -0.0118205 0)
(0.300988 -0.0133164 0)
(0.301321 -0.0147685 0)
(0.301727 -0.0161628 0)
(0.302215 -0.0174824 0)
(0.302793 -0.0187071 0)
(0.303464 -0.0198143 0)
(0.30423 -0.0207783 0)
(0.305089 -0.0215733 0)
(0.30603 -0.0221727 0)
(0.307041 -0.0225532 0)
(0.308098 -0.022694 0)
(0.309183 -0.0225828 0)
(0.300001 -0.00081042 0)
(0.300023 -0.00243015 0)
(0.300067 -0.00404915 0)
(0.300137 -0.00566708 0)
(0.300237 -0.0072824 0)
(0.300375 -0.00889244 0)
(0.300559 -0.0104931 0)
(0.300798 -0.0120789 0)
(0.301104 -0.0136418 0)
(0.301488 -0.0151714 0)
(0.301963 -0.0166533 0)
(0.30254 -0.0180697 0)
(0.303229 -0.0193982 0)
(0.304037 -0.0206129 0)
(0.304968 -0.0216836 0)
(0.306019 -0.0225791 0)
(0.30718 -0.0232654 0)
(0.308435 -0.0237127 0)
(0.309754 -0.0238921 0)
(0.311112 -0.0237869 0)
(0.300001 -0.000820788 0)
(0.300022 -0.00246212 0)
(0.300066 -0.00410544 0)
(0.300135 -0.00575239 0)
(0.300237 -0.00740332 0)
(0.300379 -0.00905751 0)
(0.300571 -0.0107125 0)
(0.300826 -0.0123645 0)
(0.301158 -0.0140065 0)
(0.301581 -0.0156291 0)
(0.302112 -0.0172176 0)
(0.302767 -0.0187537 0)
(0.30356 -0.0202122 0)
(0.304502 -0.0215638 0)
(0.305599 -0.0227724 0)
(0.306853 -0.0237997 0)
(0.308251 -0.0246021 0)
(0.309776 -0.0251409 0)
(0.311392 -0.0253751 0)
(0.313063 -0.0252814 0)
(0.300001 -0.000830309 0)
(0.30002 -0.00249171 0)
(0.300058 -0.00415829 0)
(0.300121 -0.00583407 0)
(0.300215 -0.00752169 0)
(0.300349 -0.00922287 0)
(0.300537 -0.0109373 0)
(0.300793 -0.0126634 0)
(0.301134 -0.0143958 0)
(0.30158 -0.016127 0)
(0.30215 -0.0178422 0)
(0.302868 -0.0195233 0)
(0.303752 -0.0211419 0)
(0.304821 -0.0226658 0)
(0.306085 -0.0240507 0)
(0.307551 -0.0252506 0)
(0.309207 -0.0262081 0)
(0.311036 -0.0268726 0)
(0.312991 -0.0271858 0)
(0.315029 -0.0271148 0)
(0.300001 -0.000837779 0)
(0.300014 -0.00251531 0)
(0.300042 -0.00420164 0)
(0.30009 -0.00590361 0)
(0.300166 -0.00762649 0)
(0.30028 -0.00937508 0)
(0.300447 -0.0111516 0)
(0.300685 -0.0129579 0)
(0.301015 -0.0147907 0)
(0.301461 -0.0166456 0)
(0.302049 -0.0185079 0)
(0.302808 -0.0203621 0)
(0.303765 -0.0221751 0)
(0.304948 -0.0239141 0)
(0.306376 -0.0255229 0)
(0.308062 -0.0269486 0)
(0.309999 -0.0281136 0)
(0.312171 -0.0289526 0)
(0.314522 -0.0293812 0)
(0.317001 -0.0293521 0)
(0.3 -0.000841813 0)
(0.300006 -0.00252874 0)
(0.300018 -0.00422848 0)
(0.300042 -0.00595107 0)
(0.300087 -0.00770474 0)
(0.300165 -0.00949811 0)
(0.300292 -0.0113363 0)
(0.300491 -0.0132262 0)
(0.300784 -0.0151665 0)
(0.301201 -0.0171591 0)
(0.301776 -0.0191886 0)
(0.302546 -0.0212463 0)
(0.30355 -0.0232918 0)
(0.304825 -0.0252978 0)
(0.306406 -0.0271891 0)
(0.308316 -0.0289111 0)
(0.310559 -0.030354 0)
(0.313122 -0.0314378 0)
(0.315942 -0.0320362 0)
(0.318956 -0.0320818 0)
(0.3 -0.000840874 0)
(0.299994 -0.00252736 0)
(0.299984 -0.00423094 0)
(0.299974 -0.00596519 0)
(0.299974 -0.00774153 0)
(0.299998 -0.0095732 0)
(0.300064 -0.0114686 0)
(0.300196 -0.0134413 0)
(0.30042 -0.0154923 0)
(0.300774 -0.017634 0)
(0.301296 -0.0198482 0)
(0.302037 -0.0221421 0)
(0.303046 -0.0244606 0)
(0.304381 -0.026797 0)
(0.306091 -0.0290403 0)
(0.30822 -0.0311541 0)
(0.310792 -0.0329677 0)
(0.3138 -0.0344 0)
(0.317183 -0.0352499 0)
(0.320861 -0.0354259 0)
(0.299999 -0.000833314 0)
(0.299978 -0.00250616 0)
(0.299939 -0.0042005 0)
(0.299885 -0.00593363 0)
(0.299825 -0.00772028 0)
(0.299776 -0.00957906 0)
(0.299755 -0.0115218 0)
(0.299789 -0.0135713 0)
(0.299907 -0.0157302 0)
(0.300153 -0.0180275 0)
(0.300572 -0.020439 0)
(0.301229 -0.0230022 0)
(0.302187 -0.0256328 0)
(0.303527 -0.028378 0)
(0.305325 -0.0310507 0)
(0.307652 -0.03369 0)
(0.310569 -0.0359908 0)
(0.314077 -0.0379311 0)
(0.318145 -0.039152 0)
(0.322663 -0.0395547 0)
(0.299998 -0.000817448 0)
(0.299959 -0.00246002 0)
(0.299883 -0.00412833 0)
(0.299774 -0.0058434 0)
(0.29964 -0.00762324 0)
(0.299496 -0.0094924 0)
(0.299361 -0.0114663 0)
(0.299263 -0.013579 0)
(0.299231 -0.0158346 0)
(0.299316 -0.0182861 0)
(0.299567 -0.0208978 0)
(0.300069 -0.0237609 0)
(0.300894 -0.026736 0)
(0.302161 -0.0299855 0)
(0.303974 -0.0331648 0)
(0.306447 -0.0365241 0)
(0.30971 -0.0394433 0)
(0.313764 -0.0421551 0)
(0.31868 -0.0439074 0)
(0.324269 -0.0447087 0)
(0.299997 -0.000791645 0)
(0.299937 -0.00238392 0)
(0.299818 -0.00400576 0)
(0.299643 -0.0056815 0)
(0.299419 -0.00743238 0)
(0.29916 -0.00928879 0)
(0.298883 -0.0112701 0)
(0.298615 -0.013423 0)
(0.298385 -0.0157532 0)
(0.298247 -0.0183447 0)
(0.298253 -0.0211458 0)
(0.298506 -0.0243283 0)
(0.299088 -0.0276657 0)
(0.300168 -0.0315302 0)
(0.301871 -0.0352777 0)
(0.304399 -0.0396455 0)
(0.307964 -0.0432966 0)
(0.312584 -0.0472584 0)
(0.318569 -0.0497162 0)
(0.325506 -0.0512519 0)
(0.299996 -0.000754457 0)
(0.299912 -0.00227338 0)
(0.299745 -0.00382491 0)
(0.299494 -0.00543592 0)
(0.299167 -0.00713057 0)
(0.298773 -0.00894426 0)
(0.298329 -0.0109008 0)
(0.297851 -0.013059 0)
(0.297375 -0.0154286 0)
(0.296941 -0.0181264 0)
(0.296619 -0.0210878 0)
(0.296499 -0.0245842 0)
(0.296701 -0.0282812 0)
(0.297419 -0.0328655 0)
(0.298825 -0.0372176 0)
(0.301241 -0.0429956 0)
(0.304958 -0.0474086 0)
(0.310133 -0.0535308 0)
(0.317466 -0.0567552 0)
(0.326053 -0.0598606 0)
(0.299994 -0.000704755 0)
(0.299884 -0.0021249 0)
(0.299665 -0.0035795 0)
(0.299332 -0.00509676 0)
(0.298893 -0.00670325 0)
(0.298346 -0.00843751 0)
(0.297713 -0.0103285 0)
(0.296989 -0.0124439 0)
(0.296225 -0.014802 0)
(0.295416 -0.0175465 0)
(0.29468 -0.0206155 0)
(0.294028 -0.0243728 0)
(0.293701 -0.0284046 0)
(0.293781 -0.033752 0)
(0.294657 -0.0387447 0)
(0.296633 -0.0463823 0)
(0.300176 -0.0514821 0)
(0.305836 -0.0613164 0)
(0.314627 -0.064897 0)
(0.325358 -0.0719602 0)
(0.299993 -0.000641894 0)
(0.299856 -0.00193641 0)
(0.299583 -0.00326564 0)
(0.299164 -0.0046576 0)
(0.298607 -0.00614021 0)
(0.297898 -0.00775272 0)
(0.297062 -0.00952898 0)
(0.296063 -0.0115402 0)
(0.294976 -0.0138183 0)
(0.293714 -0.0165198 0)
(0.292495 -0.0196115 0)
(0.291114 -0.0235089 0)
(0.290127 -0.027817 0)
(0.289124 -0.033825 0)
(0.289282 -0.0395489 0)
(0.290072 -0.0493032 0)
(0.293143 -0.0552108 0)
(0.298812 -0.070719 0)
(0.308388 -0.0732879 0)
(0.322702 -0.0897912 0)
(0.299992 -0.000565859 0)
(0.299828 -0.00170772 0)
(0.299503 -0.00288262 0)
(0.298998 -0.00411675 0)
(0.298325 -0.00543764 0)
(0.297452 -0.00688244 0)
(0.29641 -0.00848793 0)
(0.295122 -0.0103235 0)
(0.293694 -0.0124342 0)
(0.291924 -0.0149754 0)
(0.290162 -0.0179591 0)
(0.287868 -0.0218018 0)
(0.286094 -0.0262447 0)
(0.283424 -0.0326084 0)
(0.282745 -0.0391678 0)
(0.280811 -0.0507401 0)
(0.283823 -0.0584673 0)
(0.28721 -0.0809664 0)
(0.297198 -0.081442 0)
(0.317565 -0.116655 0)
(0.29999 -0.000477606 0)
(0.299803 -0.001441 0)
(0.299429 -0.00243387 0)
(0.298846 -0.00347868 0)
(0.298064 -0.0046006 0)
(0.297038 -0.00583101 0)
(0.295799 -0.00720722 0)
(0.294234 -0.00878979 0)
(0.292463 -0.0106328 0)
(0.290184 -0.0128749 0)
(0.287829 -0.0155711 0)
(0.284543 -0.0190994 0)
(0.281787 -0.0233804 0)
(0.277018 -0.0296102 0)
(0.275095 -0.0367808 0)
(0.268423 -0.0492813 0)
(0.27202 -0.0604465 0)
(0.266828 -0.0894409 0)
(0.284352 -0.09397 0)
(0.307439 -0.163149 0)
(0.29999 -0.000379843 0)
(0.299783 -0.00114232 0)
(0.299368 -0.00192941 0)
(0.298719 -0.00275723 0)
(0.297843 -0.00364732 0)
(0.296688 -0.00462032 0)
(0.295276 -0.00571399 0)
(0.293473 -0.00696844 0)
(0.291383 -0.00844674 0)
(0.288664 -0.0102446 0)
(0.285696 -0.0124581 0)
(0.281537 -0.0153689 0)
(0.277525 -0.019063 0)
(0.270826 -0.0245052 0)
(0.266319 -0.0314097 0)
(0.254557 -0.0435185 0)
(0.254735 -0.057859 0)
(0.233815 -0.0916329 0)
(0.267319 -0.120479 0)
(0.267249 -0.251833 0)
(0.302557 -0.0197232 0)
(0.302693 -0.0195551 0)
(0.302823 -0.019359 0)
(0.302951 -0.0191363 0)
(0.303082 -0.0188876 0)
(0.303214 -0.0186135 0)
(0.303346 -0.0183148 0)
(0.303478 -0.0179934 0)
(0.303611 -0.0176469 0)
(0.303734 -0.0172938 0)
(0.303974 -0.0201555 0)
(0.304149 -0.0200022 0)
(0.304324 -0.0198182 0)
(0.304497 -0.0196036 0)
(0.304669 -0.0193596 0)
(0.304839 -0.0190878 0)
(0.305005 -0.0187892 0)
(0.305166 -0.0184664 0)
(0.305325 -0.0181158 0)
(0.305473 -0.0177618 0)
(0.305853 -0.0206838 0)
(0.306101 -0.020518 0)
(0.306344 -0.0203198 0)
(0.306583 -0.0200907 0)
(0.306815 -0.0198316 0)
(0.307042 -0.0195437 0)
(0.307261 -0.0192281 0)
(0.307472 -0.0188874 0)
(0.307676 -0.0185173 0)
(0.30786 -0.0181462 0)
(0.307868 -0.0213921 0)
(0.308198 -0.021217 0)
(0.30852 -0.0210071 0)
(0.308833 -0.0207635 0)
(0.309139 -0.0204871 0)
(0.309435 -0.0201792 0)
(0.30972 -0.0198408 0)
(0.309992 -0.0194753 0)
(0.310254 -0.0190765 0)
(0.310488 -0.0186818 0)
(0.309939 -0.0223239 0)
(0.310363 -0.022135 0)
(0.310775 -0.0219066 0)
(0.311176 -0.02164 0)
(0.311566 -0.0213364 0)
(0.311942 -0.0209973 0)
(0.312303 -0.020624 0)
(0.312646 -0.0202208 0)
(0.312975 -0.019779 0)
(0.313265 -0.0193484 0)
(0.31206 -0.0235045 0)
(0.312591 -0.0232958 0)
(0.313107 -0.0230415 0)
(0.313608 -0.0227433 0)
(0.314093 -0.0224024 0)
(0.314561 -0.0220211 0)
(0.315008 -0.0216004 0)
(0.315431 -0.0211465 0)
(0.315835 -0.0206466 0)
(0.316188 -0.0201682 0)
(0.314234 -0.0249695 0)
(0.31489 -0.0247354 0)
(0.315526 -0.0244476 0)
(0.316143 -0.0241079 0)
(0.31674 -0.0237184 0)
(0.317313 -0.0232814 0)
(0.31786 -0.0227984 0)
(0.318374 -0.0222775 0)
(0.318864 -0.021701 0)
(0.319287 -0.0211601 0)
(0.316467 -0.0267678 0)
(0.317271 -0.0265022 0)
(0.31805 -0.0261716 0)
(0.318804 -0.0257786 0)
(0.319532 -0.0253258 0)
(0.320229 -0.0248164 0)
(0.320893 -0.024252 0)
(0.321514 -0.023644 0)
(0.322103 -0.0229675 0)
(0.322604 -0.0223459 0)
(0.318761 -0.0289653 0)
(0.319746 -0.0286609 0)
(0.320698 -0.0282762 0)
(0.321618 -0.0278148 0)
(0.322504 -0.0272799 0)
(0.323351 -0.0266762 0)
(0.324153 -0.0260058 0)
(0.324899 -0.0252844 0)
(0.325605 -0.0244779 0)
(0.326194 -0.0237522 0)
(0.321117 -0.0316515 0)
(0.322327 -0.0312998 0)
(0.323495 -0.0308464 0)
(0.324621 -0.0302963 0)
(0.325702 -0.0296541 0)
(0.326731 -0.0289264 0)
(0.3277 -0.0281166 0)
(0.328596 -0.0272467 0)
(0.329437 -0.0262702 0)
(0.330128 -0.0254088 0)
(0.323534 -0.0349507 0)
(0.325032 -0.0345413 0)
(0.326476 -0.0339995 0)
(0.327862 -0.0333322 0)
(0.329189 -0.0325468 0)
(0.330444 -0.0316532 0)
(0.331618 -0.0306569 0)
(0.332692 -0.029589 0)
(0.333691 -0.0283879 0)
(0.334501 -0.0273458 0)
(0.326006 -0.0390398 0)
(0.327884 -0.0385596 0)
(0.329689 -0.0379002 0)
(0.331416 -0.0370734 0)
(0.333058 -0.0360914 0)
(0.334599 -0.0349701 0)
(0.336026 -0.0337186 0)
(0.337317 -0.0323812 0)
(0.338497 -0.0308787 0)
(0.339446 -0.0295889 0)
(0.328521 -0.0441773 0)
(0.33092 -0.0436103 0)
(0.33322 -0.0427881 0)
(0.335403 -0.041733 0)
(0.337459 -0.040469 0)
(0.339368 -0.0390235 0)
(0.341112 -0.0374124 0)
(0.342666 -0.0356979 0)
(0.344047 -0.0337829 0)
(0.345159 -0.0321416 0)
(0.331046 -0.050762 0)
(0.334207 -0.0500868 0)
(0.337222 -0.0490286 0)
(0.340043 -0.0476341 0)
(0.342656 -0.0459506 0)
(0.345042 -0.0440247 0)
(0.347177 -0.041886 0)
(0.349041 -0.0396213 0)
(0.350628 -0.0371236 0)
(0.351911 -0.0349566 0)
(0.33355 -0.0594738 0)
(0.337894 -0.058604 0)
(0.341994 -0.0571562 0)
(0.345735 -0.055236 0)
(0.349109 -0.0529202 0)
(0.352106 -0.0502739 0)
(0.354698 -0.0473478 0)
(0.356871 -0.0442583 0)
(0.358585 -0.0409175 0)
(0.359951 -0.0379266 0)
(0.336335 -0.0716422 0)
(0.342598 -0.0702198 0)
(0.348224 -0.0679082 0)
(0.353118 -0.0649892 0)
(0.357358 -0.0615806 0)
(0.360955 -0.0577519 0)
(0.363859 -0.0535818 0)
(0.366064 -0.0492102 0)
(0.367515 -0.0446305 0)
(0.368499 -0.0403251 0)
(0.340741 -0.0896421 0)
(0.350076 -0.0870535 0)
(0.357206 -0.0829213 0)
(0.36258 -0.0778831 0)
(0.366754 -0.0721965 0)
(0.369861 -0.0660224 0)
(0.371858 -0.059543 0)
(0.372755 -0.052919 0)
(0.372616 -0.0463206 0)
(0.371773 -0.0397642 0)
(0.346072 -0.114254 0)
(0.358334 -0.108937 0)
(0.36481 -0.101599 0)
(0.367496 -0.0929124 0)
(0.368026 -0.0832996 0)
(0.366935 -0.0732616 0)
(0.36443 -0.0632484 0)
(0.360702 -0.0534716 0)
(0.35624 -0.0442516 0)
(0.35081 -0.0348662 0)
(0.337568 -0.131045 0)
(0.341891 -0.112363 0)
(0.337068 -0.0967668 0)
(0.328902 -0.0822822 0)
(0.319179 -0.0681594 0)
(0.308221 -0.0547517 0)
(0.296634 -0.0423855 0)
(0.285126 -0.0311196 0)
(0.274484 -0.0209022 0)
(0.263738 -0.011011 0)
(0.277519 -0.171392 0)
(0.224948 -0.127472 0)
(0.174232 -0.0910434 0)
(0.141813 -0.0612491 0)
(0.120092 -0.0377435 0)
(0.103896 -0.0203517 0)
(0.092281 -0.0081201 0)
(0.0847919 0.000308894 0)
(0.0803986 0.00615873 0)
(0.0781131 0.0099559 0)
(0.304513 -0.0149499 0)
(0.305371 -0.00977843 0)
(0.305904 -0.0065946 0)
(0.306883 -0.00360872 0)
(0.307842 0.000360417 0)
(0.30899 0.00615015 0)
(0.308593 0.0121394 0)
(0.306513 0.0119659 0)
(0.305226 0.00807912 0)
(0.304409 0.00138596 0)
(0.306254 -0.00454373 0)
(0.309268 -0.00165493 0)
(0.309878 0.00239905 0)
(0.312071 0.0087931 0)
(0.309563 0.0153388 0)
(0.305459 0.00815542 0)
(0.305054 0.00348478 0)
(0.302577 -0.00527133 0)
(0.306754 -0.015923 0)
(0.311104 -0.00700704 0)
(0.306363 -0.0152887 0)
(0.306839 -0.0099455 0)
(0.30696 -0.0068054 0)
(0.307843 -0.00392883 0)
(0.308923 -6.15816e-06 0)
(0.309879 0.00604782 0)
(0.308959 0.0124943 0)
(0.306346 0.0124796 0)
(0.304661 0.00841062 0)
(0.303986 0.00116383 0)
(0.306585 -0.005376 0)
(0.310107 -0.00236424 0)
(0.310749 0.00194156 0)
(0.312659 0.00882314 0)
(0.309592 0.0162942 0)
(0.305004 0.00892447 0)
(0.304495 0.00397019 0)
(0.301896 -0.00554345 0)
(0.307203 -0.017314 0)
(0.311958 -0.00774901 0)
(0.308958 -0.0155214 0)
(0.309093 -0.00997847 0)
(0.308737 -0.00694048 0)
(0.309572 -0.00423527 0)
(0.310922 -0.000211802 0)
(0.311677 0.00613265 0)
(0.30994 0.0130824 0)
(0.306317 0.0131563 0)
(0.303847 0.00874604 0)
(0.303327 0.000821964 0)
(0.307161 -0.00627142 0)
(0.311572 -0.00286693 0)
(0.312331 0.00164522 0)
(0.313882 0.00911865 0)
(0.309788 0.0174159 0)
(0.304252 0.00968552 0)
(0.303556 0.00439818 0)
(0.300691 -0.00605907 0)
(0.307776 -0.0187725 0)
(0.313234 -0.00837161 0)
(0.311876 -0.0157628 0)
(0.311691 -0.00989825 0)
(0.31085 -0.00700288 0)
(0.311716 -0.00458386 0)
(0.313552 -0.000478835 0)
(0.314232 0.00637124 0)
(0.311546 0.0139107 0)
(0.306561 0.0140694 0)
(0.302953 0.00917068 0)
(0.302538 0.000243009 0)
(0.307887 -0.00745256 0)
(0.313515 -0.00358948 0)
(0.314554 0.00135927 0)
(0.315694 0.00961896 0)
(0.310255 0.0187376 0)
(0.303378 0.0105831 0)
(0.302395 0.00490162 0)
(0.299037 -0.00676586 0)
(0.308149 -0.0205231 0)
(0.314599 -0.00906738 0)
(0.314991 -0.0160141 0)
(0.314428 -0.00971215 0)
(0.313043 -0.00702087 0)
(0.31403 -0.00504506 0)
(0.316588 -0.000805167 0)
(0.317345 0.00674127 0)
(0.313678 0.0150463 0)
(0.307077 0.0153399 0)
(0.302019 0.00975851 0)
(0.301615 -0.00055775 0)
(0.308661 -0.00903272 0)
(0.315819 -0.0045233 0)
(0.317321 0.00107194 0)
(0.318003 0.010361 0)
(0.311054 0.0204155 0)
(0.302507 0.0117403 0)
(0.301113 0.00554881 0)
(0.296946 -0.00767504 0)
(0.307987 -0.0226955 0)
(0.315715 -0.00989769 0)
(0.318304 -0.0162719 0)
(0.317231 -0.0094 0)
(0.31517 -0.00699993 0)
(0.31638 -0.00566426 0)
(0.319915 -0.00124043 0)
(0.320875 0.00723341 0)
(0.316219 0.0165314 0)
(0.30779 0.0170408 0)
(0.300997 0.0105567 0)
(0.300488 -0.00159983 0)
(0.309329 -0.011054 0)
(0.31833 -0.00572538 0)
(0.320499 0.000767063 0)
(0.320665 0.0113852 0)
(0.312186 0.0225163 0)
(0.301715 0.0132085 0)
(0.299773 0.00639304 0)
(0.294394 -0.00872559 0)
(0.306917 -0.0252826 0)
(0.316199 -0.0108787 0)
(0.321854 -0.0165235 0)
(0.320077 -0.0089208 0)
(0.317125 -0.0069328 0)
(0.318691 -0.00649463 0)
(0.323511 -0.00182807 0)
(0.32476 0.00784065 0)
(0.319067 0.0183915 0)
(0.308608 0.0192287 0)
(0.29983 0.0116131 0)
(0.299043 -0.00287412 0)
(0.309639 -0.0135599 0)
(0.320796 -0.00726726 0)
(0.323875 0.000423285 0)
(0.323487 0.0126957 0)
(0.313593 0.0250497 0)
(0.301038 0.0150283 0)
(0.2984 0.00750735 0)
(0.291329 -0.00977993 0)
(0.304529 -0.0282271 0)
(0.315627 -0.0120374 0)
(0.325699 -0.0167508 0)
(0.322965 -0.00821435 0)
(0.318814 -0.0068079 0)
(0.320905 -0.00760696 0)
(0.327404 -0.0026148 0)
(0.328995 0.00856565 0)
(0.322145 0.0206592 0)
(0.309452 0.0219589 0)
(0.298501 0.0129838 0)
(0.297132 -0.00433939 0)
(0.309185 -0.0165763 0)
(0.322785 -0.00922224 0)
(0.327092 2.3196e-06 0)
(0.326203 0.0142692 0)
(0.315153 0.0280001 0)
(0.300471 0.0172349 0)
(0.296974 0.00897887 0)
(0.287679 -0.0106468 0)
(0.30044 -0.0314329 0)
(0.313593 -0.013402 0)
(0.329897 -0.0169312 0)
(0.325906 -0.00720047 0)
(0.320147 -0.00660816 0)
(0.32295 -0.00909059 0)
(0.33162 -0.00365213 0)
(0.333586 0.00942635 0)
(0.32537 0.0233799 0)
(0.310257 0.0252773 0)
(0.297066 0.0147353 0)
(0.294576 -0.00588841 0)
(0.307351 -0.0200794 0)
(0.323602 -0.0116741 0)
(0.329584 -0.000557398 0)
(0.328453 0.0160475 0)
(0.316675 0.0313213 0)
(0.299964 0.0198471 0)
(0.295418 0.0109023 0)
(0.28337 -0.0110964 0)
(0.294405 -0.034764 0)
(0.309794 -0.0149967 0)
(0.334507 -0.0170356 0)
(0.328928 -0.00577927 0)
(0.321061 -0.00630537 0)
(0.324688 -0.011047 0)
(0.336095 -0.0050037 0)
(0.338485 0.0104528 0)
(0.328616 0.0266062 0)
(0.310966 0.0292065 0)
(0.295627 0.0169513 0)
(0.291142 -0.00730559 0)
(0.303306 -0.0239582 0)
(0.322247 -0.0147101 0)
(0.330534 -0.00137694 0)
(0.329761 0.0179137 0)
(0.317887 0.0349242 0)
(0.299408 0.0228641 0)
(0.293594 0.0133713 0)
(0.278354 -0.0108933 0)
(0.286445 -0.0380642 0)
(0.304134 -0.0168397 0)
(0.339576 -0.0170268 0)
(0.332081 -0.00383714 0)
(0.321548 -0.00584654 0)
(0.325819 -0.0135678 0)
(0.3405 -0.00674674 0)
(0.343451 0.0116746 0)
(0.331662 0.0303843 0)
(0.311511 0.0337339 0)
(0.29426 0.0197424 0)
(0.286522 -0.00823488 0)
(0.296137 -0.0279805 0)
(0.317529 -0.0184096 0)
(0.328935 -0.0026544 0)
(0.329554 0.0196731 0)
(0.31845 0.0386697 0)
(0.298636 0.0262635 0)
(0.291317 0.0164632 0)
(0.272649 -0.00984766 0)
(0.276921 -0.0411863 0)
(0.296797 -0.0189366 0)
(0.345143 -0.0168552 0)
(0.335432 -0.00126935 0)
(0.321671 -0.00512294 0)
(0.325656 -0.0166744 0)
(0.343927 -0.00896951 0)
(0.347844 0.0130807 0)
(0.334107 0.0347204 0)
(0.311788 0.0388039 0)
(0.292878 0.0232549 0)
(0.280332 -0.00819789 0)
(0.285153 -0.031791 0)
(0.308401 -0.022832 0)
(0.323802 -0.00466192 0)
(0.327249 0.0210447 0)
(0.317988 0.0423683 0)
(0.297429 0.0299976 0)
(0.288392 0.0202242 0)
(0.266374 -0.00786329 0)
(0.266524 -0.0440223 0)
(0.288241 -0.0212727 0)
(0.351226 -0.0164419 0)
(0.339008 0.00206248 0)
(0.321437 -0.00389592 0)
(0.322746 -0.0202008 0)
(0.344426 -0.0117661 0)
(0.350319 0.0145466 0)
(0.335278 0.0395153 0)
(0.311591 0.0443167 0)
(0.29111 0.0276697 0)
(0.27218 -0.00669479 0)
(0.270303 -0.0349764 0)
(0.29446 -0.0279837 0)
(0.314552 -0.00771355 0)
(0.322425 0.0216828 0)
(0.316163 0.0457932 0)
(0.295544 0.0339918 0)
(0.284674 0.0246456 0)
(0.259766 -0.00497102 0)
(0.256146 -0.0465204 0)
(0.279116 -0.0238087 0)
(0.357771 -0.0156484 0)
(0.342605 0.0063082 0)
(0.320363 -0.0016752 0)
(0.31443 -0.0236274 0)
(0.338623 -0.0152396 0)
(0.34858 0.015758 0)
(0.334133 0.0444814 0)
(0.310526 0.0501231 0)
(0.288274 0.0331783 0)
(0.261847 -0.00336044 0)
(0.252509 -0.0372027 0)
(0.276415 -0.0337899 0)
(0.301382 -0.0120672 0)
(0.315026 0.0212429 0)
(0.312765 0.0487145 0)
(0.292768 0.0381467 0)
(0.280118 0.0296449 0)
(0.253175 -0.00133453 0)
(0.246685 -0.0486815 0)
(0.27012 -0.0264802 0)
(0.364215 -0.0143397 0)
(0.345258 0.0116611 0)
(0.316614 0.00241138 0)
(0.296731 -0.0259355 0)
(0.321995 -0.0195553 0)
(0.339531 0.016059 0)
(0.329301 0.0490561 0)
(0.307934 0.0560094 0)
(0.283507 0.0399127 0)
(0.249524 0.00188448 0)
(0.233668 -0.0383496 0)
(0.25617 -0.0401057 0)
(0.285431 -0.0178312 0)
(0.305475 0.0194766 0)
(0.307782 0.0509515 0)
(0.288968 0.0423445 0)
(0.27481 0.0350655 0)
(0.247022 0.00279025 0)
(0.238861 -0.0505386 0)
(0.26185 -0.029202 0)
(0.368029 -0.0119588 0)
(0.344131 0.018502 0)
(0.305949 0.00962405 0)
(0.265253 -0.0258563 0)
(0.290613 -0.0249682 0)
(0.320365 0.014359 0)
(0.319481 0.0523731 0)
(0.302953 0.0616815 0)
(0.276038 0.0478245 0)
(0.23598 0.00879754 0)
(0.216235 -0.0385438 0)
(0.236379 -0.0467248 0)
(0.268542 -0.0248984 0)
(0.2946 0.0163197 0)
(0.301402 0.052421 0)
(0.284126 0.0464656 0)
(0.268963 0.040687 0)
(0.241733 0.00710293 0)
(0.233107 -0.0521274 0)
(0.254717 -0.0318764 0)
(0.361108 -0.00634241 0)
(0.332532 0.0276943 0)
(0.281534 0.0214087 0)
(0.217845 -0.0226898 0)
(0.244522 -0.0319903 0)
(0.290635 0.00934091 0)
(0.304256 0.0534261 0)
(0.294774 0.0667991 0)
(0.265512 0.0566059 0)
(0.22252 0.016652 0)
(0.202536 -0.0381268 0)
(0.219652 -0.0533678 0)
(0.252715 -0.0329403 0)
(0.283383 0.0119303 0)
(0.293943 0.0531605 0)
(0.278348 0.0503996 0)
(0.262886 0.0462428 0)
(0.237673 0.0112811 0)
(0.229581 -0.0534707 0)
(0.248934 -0.034404 0)
(0.325027 0.000642898 0)
(0.298276 0.0383682 0)
(0.23638 0.0374827 0)
(0.158828 -0.0171858 0)
(0.190476 -0.0416703 0)
(0.253743 -6.89566e-05 0)
(0.284707 0.0514475 0)
(0.282992 0.0711023 0)
(0.252133 0.0657212 0)
(0.210692 0.0244338 0)
(0.194212 -0.03751 0)
(0.207858 -0.0597059 0)
(0.239511 -0.0414518 0)
(0.272658 0.00666079 0)
(0.285749 0.0533084 0)
(0.27183 0.0540457 0)
(0.256922 0.0514373 0)
(0.235103 0.0150413 0)
(0.228243 -0.0545731 0)
(0.244569 -0.0366936 0)
(0.23622 0.0137783 0)
(0.231222 0.0499875 0)
(0.171207 0.0549895 0)
(0.102111 -0.0124759 0)
(0.139946 -0.0549182 0)
(0.215467 -0.014034 0)
(0.262846 0.0463222 0)
(0.267693 0.0745031 0)
(0.236703 0.0744374 0)
(0.2019 0.0311134 0)
(0.191893 -0.0370175 0)
(0.20182 -0.0653719 0)
(0.229747 -0.0498317 0)
(0.262912 0.000998197 0)
(0.277109 0.0530603 0)
(0.264834 0.0573015 0)
(0.251408 0.0559814 0)
(0.234152 0.0181647 0)
(0.228937 -0.0554131 0)
(0.241615 -0.0386761 0)
(0.110635 0.0137116 0)
(0.141542 0.0556086 0)
(0.102291 0.0684234 0)
(0.065912 -0.0116854 0)
(0.103705 -0.070218 0)
(0.180713 -0.0314408 0)
(0.240218 0.0388032 0)
(0.24923 0.0771723 0)
(0.22045 0.0820314 0)
(0.197095 0.0358279 0)
(0.195263 -0.0368461 0)
(0.201422 -0.0699066 0)
(0.223553 -0.0574459 0)
(0.25429 -0.00453692 0)
(0.268239 0.052646 0)
(0.257665 0.0600588 0)
(0.246635 0.0596493 0)
(0.234816 0.0205249 0)
(0.231452 -0.0559586 0)
(0.240038 -0.0402792 0)
(0.0667145 -0.00167724 0)
(0.087795 0.0548045 0)
(0.0690556 0.0727721 0)
(0.0618902 -0.0132165 0)
(0.093547 -0.0794285 0)
(0.16089 -0.0439438 0)
(0.224331 0.03262 0)
(0.234829 0.0785487 0)
(0.209848 0.0858177 0)
(0.196772 0.0371927 0)
(0.20088 -0.0371869 0)
(0.204563 -0.0720029 0)
(0.221501 -0.0617717 0)
(0.248997 -0.00814266 0)
(0.262027 0.052329 0)
(0.252796 0.061632 0)
(0.243994 0.0613768 0)
(0.236327 0.0215608 0)
(0.234318 -0.0561941 0)
(0.239869 -0.0410024 0)
(0.0453844 -0.00848188 0)
(0.0599723 0.0542494 0)
(0.0543856 0.0735319 0)
(0.0642495 -0.014938 0)
(0.0921379 -0.0840905 0)
(0.151094 -0.0506134 0)
(0.215287 0.0289196 0)
(0.226368 0.0791848 0)
(0.204084 0.0875207 0)
(0.197259 0.0374288 0)
(0.204649 -0.0375749 0)
(0.206991 -0.0729716 0)
(0.2208 -0.0639509 0)
(0.246134 -0.0101077 0)
(0.258501 0.0521461 0)
(0.250074 0.0624567 0)
(0.242652 0.0621373 0)
(0.237407 0.0219824 0)
(0.236176 -0.0563146 0)
(0.23998 -0.0412966 0)
(0.0285888 -0.0126041 0)
(0.0356304 0.0534913 0)
(0.0446957 0.0726049 0)
(0.0708031 -0.0173322 0)
(0.0947251 -0.0880753 0)
(0.142967 -0.0567752 0)
(0.206325 0.0251658 0)
(0.217767 0.0796466 0)
(0.198723 0.0887244 0)
(0.198396 0.0371517 0)
(0.208899 -0.0380777 0)
(0.209987 -0.0737103 0)
(0.220541 -0.0658437 0)
(0.24343 -0.0119298 0)
(0.255017 0.0519605 0)
(0.247433 0.0631783 0)
(0.241487 0.0626838 0)
(0.238689 0.022238 0)
(0.23824 -0.0563919 0)
(0.240294 -0.0414975 0)
(0.0166557 -0.0147895 0)
(0.015315 0.052355 0)
(0.0403785 0.0701001 0)
(0.0809096 -0.0202842 0)
(0.100861 -0.091269 0)
(0.136695 -0.0622707 0)
(0.197522 0.0214848 0)
(0.209135 0.0799168 0)
(0.193881 0.0894061 0)
(0.200149 0.0363884 0)
(0.21355 -0.0386671 0)
(0.213476 -0.0742206 0)
(0.2207 -0.0674354 0)
(0.240887 -0.0135778 0)
(0.25159 0.0517747 0)
(0.244898 0.0637764 0)
(0.240505 0.0630248 0)
(0.240158 0.022332 0)
(0.240494 -0.0564183 0)
(0.240805 -0.0416142 0)
(0.00968726 -0.0156345 0)
(-0.000486646 0.0508022 0)
(0.041503 0.0660834 0)
(0.0938606 -0.0236836 0)
(0.110028 -0.0936044 0)
(0.132467 -0.0669268 0)
(0.188988 0.0179773 0)
(0.200606 0.0799794 0)
(0.189675 0.0895413 0)
(0.202483 0.0351513 0)
(0.218525 -0.0393397 0)
(0.217384 -0.0745044 0)
(0.221254 -0.0687088 0)
(0.23851 -0.0150352 0)
(0.248239 0.0515912 0)
(0.242492 0.0642448 0)
(0.239714 0.0631581 0)
(0.241796 0.0222652 0)
(0.24292 -0.0563961 0)
(0.241507 -0.0416462 0)
(0.00774747 -0.0155962 0)
(-0.0113458 0.0488297 0)
(0.0478 0.0606522 0)
(0.108962 -0.0273996 0)
(0.121655 -0.0950678 0)
(0.130432 -0.0706124 0)
(0.180871 0.0147382 0)
(0.192337 0.0798174 0)
(0.186221 0.0891092 0)
(0.205357 0.0334586 0)
(0.22375 -0.0400893 0)
(0.221636 -0.0745666 0)
(0.222183 -0.0696523 0)
(0.23631 -0.0162878 0)
(0.244984 0.0514119 0)
(0.24024 0.06458 0)
(0.239117 0.0630809 0)
(0.24359 0.0220386 0)
(0.2455 -0.0563276 0)
(0.242391 -0.0415935 0)
(0.0109806 -0.0151437 0)
(-0.0168533 0.0464262 0)
(0.0587086 0.0539717 0)
(0.125583 -0.0312957 0)
(0.135159 -0.0956893 0)
(0.130662 -0.0732444 0)
(0.17335 0.0118607 0)
(0.184511 0.0794158 0)
(0.183627 0.0880995 0)
(0.208733 0.0313394 0)
(0.22916 -0.0409063 0)
(0.226162 -0.0744138 0)
(0.223465 -0.0702603 0)
(0.234298 -0.0173232 0)
(0.241847 0.0512373 0)
(0.238167 0.0647782 0)
(0.238719 0.0627936 0)
(0.245525 0.0216547 0)
(0.248218 -0.0562146 0)
(0.243452 -0.0414564 0)
(0.0196397 -0.0148749 0)
(-0.0165659 0.0436589 0)
(0.0734844 0.046288 0)
(0.143171 -0.035243 0)
(0.14998 -0.0955305 0)
(0.133138 -0.0747872 0)
(0.16663 0.00942132 0)
(0.177334 0.0787615 0)
(0.181999 0.0865175 0)
(0.212577 0.0288323 0)
(0.234699 -0.0417795 0)
(0.230894 -0.0740536 0)
(0.225079 -0.0705331 0)
(0.232491 -0.0181323 0)
(0.238854 0.0510661 0)
(0.236298 0.0648367 0)
(0.238523 0.0622992 0)
(0.247586 0.021115 0)
(0.251056 -0.0560592 0)
(0.244678 -0.0412334 0)
(0.0340072 -0.0156111 0)
(-0.00995756 0.0406699 0)
(0.0913507 0.0379333 0)
(0.161266 -0.0391094 0)
(0.165614 -0.094642 0)
(0.137734 -0.0752218 0)
(0.160934 0.00747987 0)
(0.171033 0.0778417 0)
(0.181437 0.0843875 0)
(0.216859 0.0259876 0)
(0.240319 -0.0426928 0)
(0.23577 -0.0734971 0)
(0.226999 -0.0704705 0)
(0.230909 -0.0187075 0)
(0.236028 0.0508951 0)
(0.234658 0.0647538 0)
(0.238532 0.0616039 0)
(0.24976 0.020423 0)
(0.253999 -0.0558635 0)
(0.246059 -0.0409274 0)
(0.0542055 -0.0179267 0)
(0.00363924 0.0373696 0)
(0.111663 0.029112 0)
(0.179498 -0.0427602 0)
(0.181615 -0.0930096 0)
(0.14423 -0.0744856 0)
(0.156486 0.00616437 0)
(0.165842 0.0766781 0)
(0.182048 0.0817245 0)
(0.221561 0.0228674 0)
(0.245979 -0.0436189 0)
(0.240734 -0.0727695 0)
(0.2292 -0.0700587 0)
(0.229573 -0.0190269 0)
(0.233395 0.0507373 0)
(0.233269 0.0645214 0)
(0.238746 0.0607127 0)
(0.252037 0.0196001 0)
(0.25703 -0.055629 0)
(0.247585 -0.0405697 0)
(0.10981 -0.0206392 0)
(0.0499509 0.0280632 0)
(0.16035 0.00821659 0)
(0.218856 -0.0500819 0)
(0.216402 -0.0878996 0)
(0.161852 -0.0702616 0)
(0.150006 0.00530859 0)
(0.157372 0.0739572 0)
(0.186225 0.0745731 0)
(0.232687 0.0155665 0)
(0.258299 -0.0456189 0)
(0.251608 -0.0708853 0)
(0.234537 -0.0683691 0)
(0.227256 -0.0190856 0)
(0.228124 0.0505442 0)
(0.230836 0.0636524 0)
(0.23967 0.0583387 0)
(0.257196 0.0176189 0)
(0.263771 -0.0550451 0)
(0.251195 -0.0397861 0)
(0.279268 0.00239877 0)
(0.190161 0.0228443 0)
(0.249504 -0.0132252 0)
(0.274899 -0.0570514 0)