x,y,z,U_0,U_1,U_2
0,0,0,0.3,-0.000571085,0
0,0.1,0,0.3,-0.000342651,0
0,0.2,0,0.3,-0.000114217,0
0,0.3,0,0.3,0,0
0,0.4,0,0.3,0,0
0,0.5,0,0.3,0,0
0,0.6,0,0.3,0,0
0,0.7,0,0.3,0,0
0,0.8,0,0.3,0,0
0,0.9,0,0.3,0,0
0,1,0,0.3,0,0
0,1.1,0,0.3,0,0
0,1.2,0,0.3,0,0
0,1.3,0,0.3,0,0
0,1.4,0,0.3,0,0
0,1.5,0,0.3,0,0
0,1.6,0,0.3,0,0
0,1.7,0,0.3,0,0
0,1.8,0,0.3,0,0
0,1.9,0,0.3,0,0
0,2,0,0.3,0,0
0,2.1,0,0.3,0,0
0,2.2,0,0.3,0,0
0,2.3,0,0.3,0,0
0,2.4,0,0.3,0,0
0,2.5,0,0.3,0,0
0,2.6,0,0.3,0,0
0,2.7,0,0.3,0,0
0,2.8,0,0.3,0,0
0,2.9,0,0.3,0,0
0,3,0,0.3,0,0
0,3.1,0,0.3,0,0
0,3.2,0,0.3,0,0
0,3.3,0,0.3,0,0
0,3.4,0,0.3,0,0
0,3.5,0,0.3,0,0
0,3.6,0,0.3,0,0
0,3.7,0,0.3,0,0
0,3.8,0,0.3,0,0
0,3.9,0,0.3,0,0
0,4,0,0.3,0,0
0,4.1,0,0.3,0,0
0,4.2,0,0.3,0,0
0,4.3,0,0.3,0,0
0,4.4,0,0.3,0,0
0,4.5,0,0.3,0,0
0,4.6,0,0.3,0,0
0,4.7,0,0.3,0,0
0,4.8,0,0.3,0,0
0,4.9,0,0.3,0,0
0,5,0,0.3,0,0
0,5.1,0,0.3,0,0
0,5.2,0,0.3,0,0
0,5.3,0,0.3,0,0
0,5.4,0,0.3,0,0
0,5.5,0,0.3,0,0
0,5.6,0,0.3,0,0
0,5.7,0,0.3,0,0
0,5.8,0,0.3,0,0
0,5.9,0,0.3,0,0
0,6,0,0.3,0,0
0,6.1,0,0.3,0,0
0,6.2,0,0.3,0,0
0,6.3,0,0.3,0,0
0,6.4,0,0.3,0,0
0,6.5,0,0.3,0,0
0,6.6,0,0.3,0,0
0,6.7,0,0.3,0,0
0,6.8,0,0.3,0,0
0,6.9,0,0.3,0,0
0,7,0,0.3,0,0
0,7.1,0,0.3,0,0
0,7.2,0,0.3,0,0
0,7.3,0,0.3,0,0
0,7.4,0,0.3,0,0
0,7.5,0,0.3,0,0
0,7.6,0,0.3,0,0
0,7.7,0,0.3,0,0
0,7.8,0,0.3,0,0
0,7.9,0,0.3,0,0
0,8,0,0.3,0,0
0,8.1,0,0.3,0,0
0,8.2,0,0.3,0,0
0,8.3,0,0.3,0,0
0,8.4,0,0.3,0,0
0,8.5,0,0.3,0,0
0,8.6,0,0.3,0,0
0,8.7,0,0.3,0,0
0,8.8,0,0.3,0,0
0,8.9,0,0.3,0,0
0,9,0,0.3,0,0
0,9.1,0,0.3,0,0
0,9.2,0,0.3,0,0
0,9.3,0,0.3,0,0
0,9.4,0,0.3,0,0
0,9.5,0,0.3,0,0
0,9.6,0,0.3,0,0
0,9.7,0,0.3,0,0
0,9.8,0,0.3,0,0
0,9.9,0,0.3,0,0
0,10,0,0.3,0,0
0,10.1,0,0.3,0,0
0,10.2,0,0.3,0,0
0,10.3,0,0.3,0,0
0,10.4,0,0.3,0,0
0,10.5,0,0.3,0,0
0,10.6,0,0.3,0,0
0,10.7,0,0.3,0,0
0,10.8,0,0.3,0,0
0,10.9,0,0.3,0,0
0,11,0,0.3,0,0
0,11.1,0,0.3,0,0
0,11.2,0,0.3,0,0
0,11.3,0,0.3,0,0
0,11.4,0,0.3,0,0
0,11.5,0,0.3,0,0
0,11.6,0,0.3,0,0
0,11.7,0,0.3,0,0
0,11.8,0,0.3,0,0
0,11.9,0,0.3,0,0
0,12,0,0.3,0,0
0,12.1,0,0.3,0,0
0,12.2,0,0.3,0,0
0,12.3,0,0.3,0,0
0,12.4,0,0.3,0,0
0,12.5,0,0.3,0.000144777,0
0,12.6,0,0.3,0.000315102,0
0,12.7,0,0.3,0.000485427,0
0.1,0,0,0.3,-0.00125634,0
0.1,0.1,0,0.3,-0.00102795,0
0.1,0.2,0,0.3,-0.000913862,0
0.1,0.3,0,0.3,-0.000914153,0
0.1,0.4,0,0.3,-0.00091432,0
0.1,0.5,0,0.300001,-0.00091484,0
0.1,0.6,0,0.3,-0.0009154,0
0.1,0.7,0,0.3,-0.000915766,0
0.1,0.8,0,0.3,-0.000916486,0
0.1,0.9,0,0.3,-0.00091684,0
0.1,1,0,0.300001,-0.000917686,0
0.1,1.1,0,0.3,-0.000918424,0
0.1,1.2,0,0.3,-0.000918841,0
0.1,1.3,0,0.3,-0.000919565,0
0.1,1.4,0,0.3,-0.000919872,0
0.1,1.5,0,0.300001,-0.000920528,0
0.1,1.6,0,0.3,-0.000920824,0
0.1,1.7,0,0.3,-0.000920963,0
0.1,1.8,0,0.3,-0.000920975,0
0.1,1.9,0,0.3,-0.000920848,0
0.1,2,0,0.299999,-0.000920491,0
0.1,2.1,0,0.3,-0.0009194,0
0.1,2.2,0,0.299999,-0.000918753,0
0.1,2.3,0,0.299999,-0.000916968,0
0.1,2.4,0,0.299999,-0.000915832,0
0.1,2.5,0,0.299997,-0.000913254,0
0.1,2.6,0,0.299999,-0.000909416,0
0.1,2.7,0,0.299997,-0.000907277,0
0.1,2.8,0,0.299997,-0.000902209,0
0.1,2.9,0,0.299998,-0.00089928,0
0.1,3,0,0.299992,-0.000892849,0
0.1,3.1,0,0.299998,-0.00088448,0
0.1,3.2,0,0.299994,-0.000879931,0
0.1,3.3,0,0.299993,-0.000869671,0
0.1,3.4,0,0.299998,-0.00086396,0
0.1,3.5,0,0.299985,-0.000851654,0
0.1,3.6,0,0.299997,-0.000836624,0
0.1,3.7,0,0.299989,-0.000828583,0
0.1,3.8,0,0.299989,-0.000810951,0
0.1,3.9,0,0.299996,-0.00080136,0
0.1,4,0,0.299976,-0.000780926,0
0.1,4.1,0,0.299995,-0.00075711,0
0.1,4.2,0,0.299983,-0.000744429,0
0.1,4.3,0,0.299982,-0.000717356,0
0.1,4.4,0,0.299994,-0.000702963,0
0.1,4.5,0,0.299965,-0.000672178,0
0.1,4.6,0,0.299993,-0.000638642,0
0.1,4.7,0,0.299976,-0.000620488,0
0.1,4.8,0,0.299976,-0.00058442,0
0.1,4.9,0,0.299992,-0.000566506,0
0.1,5,0,0.299955,-0.000539171,0
0.1,5.1,0,0.299952,-0.000487032,0
0.1,5.2,0,0.299951,-0.000449619,0
0.1,5.3,0,0.299949,-0.000410675,0
0.1,5.4,0,0.299947,-0.000370218,0
0.1,5.5,0,0.299945,-0.000328332,0
0.1,5.6,0,0.299944,-0.000285121,0
0.1,5.7,0,0.299942,-0.000240706,0
0.1,5.8,0,0.299941,-0.000195222,0
0.1,5.9,0,0.29994,-0.000148823,0
0.1,6,0,0.299939,-0.000101673,0
0.1,6.1,0,0.299938,-5.39491e-05,0
0.1,6.2,0,0.299938,-5.83636e-06,0
0.1,6.3,0,0.299938,4.24723e-05,0
0.1,6.4,0,0.299938,9.07805e-05,0
0.1,6.5,0,0.299938,0.00013889,0
0.1,6.6,0,0.299939,0.000186607,0
0.1,6.7,0,0.29994,0.000233741,0
0.1,6.8,0,0.29994,0.000280111,0
0.1,6.9,0,0.299941,0.000325608,0
0.1,7,0,0.299943,0.000394246,0
0.1,7.1,0,0.299985,0.000428389,0
0.1,7.2,0,0.299979,0.000446534,0
0.1,7.3,0,0.299953,0.000492795,0
0.1,7.4,0,0.299991,0.000539584,0
0.1,7.5,0,0.299977,0.000558629,0
0.1,7.6,0,0.299964,0.000601063,0
0.1,7.7,0,0.299992,0.000635044,0
0.1,7.8,0,0.299976,0.000656742,0
0.1,7.9,0,0.299974,0.000691777,0
0.1,8,0,0.299994,0.000714482,0
0.1,8.1,0,0.299978,0.000736345,0
0.1,8.2,0,0.299983,0.000763424,0
0.1,8.3,0,0.299995,0.000777159,0
0.1,8.4,0,0.299982,0.000797087,0
0.1,8.5,0,0.29999,0.000816497,0
0.1,8.6,0,0.299996,0.000824309,0
0.1,8.7,0,0.299986,0.000840031,0
0.1,8.8,0,0.299995,0.000852508,0
0.1,8.9,0,0.299997,0.00085728,0
0.1,9,0,0.299992,0.000866932,0
0.1,9.1,0,0.299999,0.000873637,0
0.1,9.2,0,0.299998,0.000875877,0
0.1,9.3,0,0.299997,0.000880184,0
0.1,9.4,0,0.3,0.00088232,0
0.1,9.5,0,0.3,0.000882707,0
0.1,9.6,0,0.300001,0.000882804,0
0.1,9.7,0,0.300001,0.000881864,0
0.1,9.8,0,0.300002,0.00088041,0
0.1,9.9,0,0.300002,0.00087741,0
0.1,10,0,0.300001,0.000875024,0
0.1,10.1,0,0.300004,0.000871513,0
0.1,10.2,0,0.300003,0.000866429,0
0.1,10.3,0,0.300002,0.000863768,0
0.1,10.4,0,0.300006,0.000858295,0
0.1,10.5,0,0.300003,0.000852009,0
0.1,10.6,0,0.300002,0.000849246,0
0.1,10.7,0,0.300007,0.000842732,0
0.1,10.8,0,0.300003,0.000835988,0
0.1,10.9,0,0.300003,0.000833111,0
0.1,11,0,0.300007,0.000826476,0
0.1,11.1,0,0.300002,0.00081988,0
0.1,11.2,0,0.300003,0.00081716,0
0.1,11.3,0,0.300006,0.00081093,0
0.1,11.4,0,0.300002,0.000805568,0
0.1,11.5,0,0.300004,0.000802556,0
0.1,11.6,0,0.300004,0.000797158,0
0.1,11.7,0,0.300001,0.000793366,0
0.1,11.8,0,0.300003,0.000790215,0
0.1,11.9,0,0.300003,0.000785973,0
0.1,12,0,0.300001,0.000783626,0
0.1,12.1,0,0.300003,0.00078083,0
0.1,12.2,0,0.300002,0.000777987,0
0.1,12.3,0,0.300001,0.000776827,0
0.1,12.4,0,0.300002,0.000774909,0
0.1,12.5,0,0.3,0.00077364,0
0.1,12.6,0,0.3,0.000894179,0
0.1,12.7,0,0.300001,0.00106409,0
0.2,0,0,0.3,-0.00194159,0
0.2,0.1,0,0.3,-0.00182755,0
0.2,0.2,0,0.3,-0.00182785,0
0.2,0.3,0,0.3,-0.00182814,0
0.2,0.4,0,0.300001,-0.00182899,0
0.2,0.5,0,0.300001,-0.00182968,0
0.2,0.6,0,0.300001,-0.00183061,0
0.2,0.7,0,0.300001,-0.0018319,0
0.2,0.8,0,0.300001,-0.00183262,0
0.2,0.9,0,0.300001,-0.00183417,0
0.2,1,0,0.300002,-0.00183537,0
0.2,1.1,0,0.300001,-0.00183653,0
0.2,1.2,0,0.300001,-0.0018381,0
0.2,1.3,0,0.300001,-0.00183882,0
0.2,1.4,0,0.300001,-0.00184009,0
0.2,1.5,0,0.300001,-0.00184106,0
0.2,1.6,0,0.300001,-0.00184149,0
0.2,1.7,0,0.3,-0.00184207,0
0.2,1.8,0,0.3,-0.00184208,0
0.2,1.9,0,0.299999,-0.00184147,0
0.2,2,0,0.299999,-0.00184098,0
0.2,2.1,0,0.299999,-0.00183924,0
0.2,2.2,0,0.299997,-0.00183686,0
0.2,2.3,0,0.299997,-0.00183507,0
0.2,2.4,0,0.299995,-0.00183022,0
0.2,2.5,0,0.299993,-0.00182651,0
0.2,2.6,0,0.299994,-0.00182053,0
0.2,2.7,0,0.299992,-0.00181241,0
0.2,2.8,0,0.299991,-0.00180735,0
0.2,2.9,0,0.299989,-0.00179506,0
0.2,3,0,0.299984,-0.0017857,0
0.2,3.1,0,0.299986,-0.00177278,0
0.2,3.2,0,0.299983,-0.00175531,0
0.2,3.3,0,0.299982,-0.00174505,0
0.2,3.4,0,0.299979,-0.00172133,0
0.2,3.5,0,0.299971,-0.00170331,0
0.2,3.6,0,0.299974,-0.00168024,0
0.2,3.7,0,0.29997,-0.00164912,0
0.2,3.8,0,0.29997,-0.00163149,0
0.2,3.9,0,0.299965,-0.00159188,0
0.2,4,0,0.299953,-0.00156185,0
0.2,4.1,0,0.299959,-0.00152536,0
0.2,4.2,0,0.299954,-0.00147618,0
0.2,4.3,0,0.299953,-0.0014491,0
0.2,4.4,0,0.299947,-0.00138953,0
0.2,4.5,0,0.29993,-0.00134436,0
0.2,4.6,0,0.299941,-0.00129267,0
0.2,4.7,0,0.299935,-0.00122282,0
0.2,4.8,0,0.299935,-0.00118675,0
0.2,4.9,0,0.299931,-0.00112359,0
0.2,5,0,0.29991,-0.00107834,0
0.2,5.1,0,0.299905,-0.000974064,0
0.2,5.2,0,0.299901,-0.000899238,0
0.2,5.3,0,0.299898,-0.000821351,0
0.2,5.4,0,0.299894,-0.000740435,0
0.2,5.5,0,0.29989,-0.000656663,0
0.2,5.6,0,0.299887,-0.000570242,0
0.2,5.7,0,0.299885,-0.000481411,0
0.2,5.8,0,0.299882,-0.000390445,0
0.2,5.9,0,0.29988,-0.000297646,0
0.2,6,0,0.299878,-0.000203347,0
0.2,6.1,0,0.299877,-0.000107898,0
0.2,6.2,0,0.299876,-1.16727e-05,0
0.2,6.3,0,0.299876,8.49447e-05,0
0.2,6.4,0,0.299876,0.000181561,0
0.2,6.5,0,0.299877,0.000277781,0
0.2,6.6,0,0.299878,0.000373213,0
0.2,6.7,0,0.299879,0.000467483,0
0.2,6.8,0,0.299881,0.000560222,0
0.2,6.9,0,0.299883,0.000651216,0
0.2,7,0,0.299886,0.000788492,0
0.2,7.1,0,0.299911,0.000842452,0
0.2,7.2,0,0.299915,0.00092268,0
0.2,7.3,0,0.2999,0.000978501,0
0.2,7.4,0,0.29992,0.00105087,0
0.2,7.5,0,0.299926,0.00114141,0
0.2,7.6,0,0.299918,0.00118999,0
0.2,7.7,0,0.299932,0.00125729,0
0.2,7.8,0,0.299938,0.00133371,0
0.2,7.9,0,0.299936,0.00136875,0
0.2,8,0,0.299946,0.00142765,0
0.2,8.1,0,0.299948,0.00148451,0
0.2,8.2,0,0.299953,0.00151226,0
0.2,8.3,0,0.29996,0.00156009,0
0.2,8.4,0,0.29996,0.00159977,0
0.2,8.5,0,0.299967,0.00162201,0
0.2,8.6,0,0.299973,0.00165615,0
0.2,8.7,0,0.299972,0.00168163,0
0.2,8.8,0,0.299979,0.00169735,0
0.2,8.9,0,0.299984,0.00171927,0
0.2,9,0,0.299983,0.00173353,0
0.2,9.1,0,0.299989,0.00174254,0
0.2,9.2,0,0.299994,0.00175406,0
0.2,9.3,0,0.299994,0.00175991,0
0.2,9.4,0,0.299997,0.00176268,0
0.2,9.5,0,0.300001,0.00176575,0
0.2,9.6,0,0.300001,0.00176602,0
0.2,9.7,0,0.300003,0.00176306,0
0.2,9.8,0,0.300006,0.00175968,0
0.2,9.9,0,0.300006,0.00175668,0
0.2,10,0,0.300008,0.00174882,0
0.2,10.1,0,0.30001,0.00174147,0
0.2,10.2,0,0.300009,0.00173592,0
0.2,10.3,0,0.300011,0.00172467,0
0.2,10.4,0,0.300013,0.00171543,0
0.2,10.5,0,0.300011,0.00170764,0
0.2,10.6,0,0.300012,0.00169473,0
0.2,10.7,0,0.300015,0.00168514,0
0.2,10.8,0,0.300012,0.00167587,0
0.2,10.9,0,0.300012,0.00166248,0
0.2,11,0,0.300014,0.00165361,0
0.2,11.1,0,0.300012,0.00164368,0
0.2,11.2,0,0.300011,0.00163078,0
0.2,11.3,0,0.300013,0.00162337,0
0.2,11.4,0,0.300011,0.00161355,0
0.2,11.5,0,0.30001,0.00160195,0
0.2,11.6,0,0.30001,0.00159637,0
0.2,11.7,0,0.300008,0.00158745,0
0.2,11.8,0,0.300008,0.00157837,0
0.2,11.9,0,0.300008,0.00157413,0
0.2,12,0,0.300006,0.00156689,0
0.2,12.1,0,0.300006,0.00156066,0
0.2,12.2,0,0.300005,0.00155757,0
0.2,12.3,0,0.300004,0.00155299,0
0.2,12.4,0,0.300003,0.00154953,0
0.2,12.5,0,0.300003,0.00154814,0
0.2,12.6,0,0.300002,0.00154657,0
0.2,12.7,0,0.300002,0.00164275,0
0.3,0,0,0.300001,-0.00274087,0
0.3,0.1,0,0.300001,-0.00274119,0
0.3,0.2,0,0.300001,-0.00274149,0
0.3,0.3,0,0.300001,-0.00274239,0
0.3,0.4,0,0.300002,-0.00274325,0
0.3,0.5,0,0.300002,-0.00274439,0
0.3,0.6,0,0.300003,-0.00274599,0
0.3,0.7,0,0.300003,-0.00274729,0
0.3,0.8,0,0.300003,-0.00274952,0
0.3,0.9,0,0.300003,-0.00275107,0
0.3,1,0,0.300003,-0.00275311,0
0.3,1.1,0,0.300003,-0.00275511,0
0.3,1.2,0,0.300003,-0.00275668,0
0.3,1.3,0,0.300003,-0.00275897,0
0.3,1.4,0,0.300003,-0.00276024,0
0.3,1.5,0,0.300002,-0.00276193,0
0.3,1.6,0,0.300001,-0.00276275,0
0.3,1.7,0,0.300001,-0.00276333,0
0.3,1.8,0,0.3,-0.00276355,0
0.3,1.9,0,0.299999,-0.00276294,0
0.3,2,0,0.299998,-0.00276225,0
0.3,2.1,0,0.299997,-0.00275949,0
0.3,2.2,0,0.299995,-0.0027571,0
0.3,2.3,0,0.299993,-0.00275202,0
0.3,2.4,0,0.299991,-0.00274717,0
0.3,2.5,0,0.299987,-0.00274115,0
0.3,2.6,0,0.299986,-0.00273135,0
0.3,2.7,0,0.299984,-0.00272324,0
0.3,2.8,0,0.29998,-0.00270838,0
0.3,2.9,0,0.299978,-0.00269609,0
0.3,3,0,0.29997,-0.0026807,0
0.3,3.1,0,0.299969,-0.00265938,0
0.3,3.2,0,0.299966,-0.00264192,0
0.3,3.3,0,0.29996,-0.00261154,0
0.3,3.4,0,0.299956,-0.00258781,0
0.3,3.5,0,0.299944,-0.00255799,0
0.3,3.6,0,0.299944,-0.00251978,0
0.3,3.7,0,0.29994,-0.00248867,0
0.3,3.8,0,0.299931,-0.00243613,0
0.3,3.9,0,0.299926,-0.00239651,0
0.3,4,0,0.299908,-0.00234665,0
0.3,4.1,0,0.299912,-0.00228595,0
0.3,4.2,0,0.299906,-0.00223677,0
0.3,4.3,0,0.299896,-0.00215543,0
0.3,4.4,0,0.29989,-0.00209586,0
0.3,4.5,0,0.299865,-0.00202096,0
0.3,4.6,0,0.299872,-0.00193345,0
0.3,4.7,0,0.299866,-0.00186361,0
0.3,4.8,0,0.299856,-0.00175016,0
0.3,4.9,0,0.299851,-0.001687,0
0.3,5,0,0.299825,-0.00162145,0
0.3,5.1,0,0.299814,-0.00146493,0
0.3,5.2,0,0.299806,-0.00135272,0
0.3,5.3,0,0.299799,-0.00123579,0
0.3,5.4,0,0.299791,-0.00111424,0
0.3,5.5,0,0.299784,-0.000988342,0
0.3,5.6,0,0.299778,-0.000858413,0
0.3,5.7,0,0.299773,-0.000724822,0
0.3,5.8,0,0.299767,-0.000587985,0
0.3,5.9,0,0.299763,-0.000448364,0
0.3,6,0,0.29976,-0.000306461,0
0.3,6.1,0,0.299757,-0.000162812,0
0.3,6.2,0,0.299756,-1.79834e-05,0
0.3,6.3,0,0.299756,0.000127441,0
0.3,6.4,0,0.299756,0.000272861,0
0.3,6.5,0,0.299757,0.000417674,0
0.3,6.6,0,0.299759,0.000561282,0
0.3,6.7,0,0.299762,0.000703102,0
0.3,6.8,0,0.299766,0.000842562,0
0.3,6.9,0,0.299771,0.000979278,0
0.3,7,0,0.299779,0.00118572,0
0.3,7.1,0,0.299809,0.00127063,0
0.3,7.2,0,0.299812,0.00135086,0
0.3,7.3,0,0.299803,0.00148203,0
0.3,7.4,0,0.299829,0.00159276,0
0.3,7.5,0,0.299835,0.0016833,0
0.3,7.6,0,0.299837,0.00180775,0
0.3,7.7,0,0.299856,0.00189648,0
0.3,7.8,0,0.299862,0.00197441,0
0.3,7.9,0,0.299873,0.00208015,0
0.3,8,0,0.299884,0.00214682,0
0.3,8.1,0,0.299889,0.0022139,0
0.3,8.2,0,0.299906,0.00229411,0
0.3,8.3,0,0.299913,0.00234193,0
0.3,8.4,0,0.299917,0.00239611,0
0.3,8.5,0,0.299934,0.00245006,0
0.3,8.6,0,0.29994,0.0024842,0
0.3,8.7,0,0.299943,0.00252453,0
0.3,8.8,0,0.299958,0.00255661,0
0.3,8.9,0,0.299964,0.00257854,0
0.3,9,0,0.299968,0.00260456,0
0.3,9.1,0,0.299979,0.00262001,0
0.3,9.2,0,0.299983,0.00263153,0
0.3,9.3,0,0.299989,0.00264348,0
0.3,9.4,0,0.299995,0.00264757,0
0.3,9.5,0,0.299999,0.00265063,0
0.3,9.6,0,0.300004,0.00265055,0
0.3,9.7,0,0.300007,0.00264687,0
0.3,9.8,0,0.30001,0.00264316,0
0.3,9.9,0,0.300015,0.00263366,0
0.3,10,0,0.300016,0.00262522,0
0.3,10.1,0,0.300019,0.00261585,0
0.3,10.2,0,0.300021,0.00260056,0
0.3,10.3,0,0.300022,0.00258931,0
0.3,10.4,0,0.300026,0.00257563,0
0.3,10.5,0,0.300025,0.00255793,0
0.3,10.6,0,0.300025,0.00254501,0
0.3,10.7,0,0.300029,0.00252845,0
0.3,10.8,0,0.300026,0.00251067,0
0.3,10.9,0,0.300026,0.00249728,0
0.3,11,0,0.300028,0.00247929,0
0.3,11.1,0,0.300024,0.0024631,0
0.3,11.2,0,0.300024,0.0024502,0
0.3,11.3,0,0.300025,0.00243236,0
0.3,11.4,0,0.300022,0.00241869,0
0.3,11.5,0,0.300021,0.00240709,0
0.3,11.6,0,0.300021,0.00239086,0
0.3,11.7,0,0.300018,0.00238021,0
0.3,11.8,0,0.300018,0.00236999,0
0.3,11.9,0,0.300015,0.00235718,0
0.3,12,0,0.300013,0.00234978,0
0.3,12.1,0,0.300013,0.00234164,0
0.3,12.2,0,0.30001,0.00233355,0
0.3,12.3,0,0.300008,0.00232898,0
0.3,12.4,0,0.300007,0.00232371,0
0.3,12.5,0,0.300005,0.0023205,0
0.3,12.6,0,0.300004,0.00231893,0
0.3,12.7,0,0.300004,0.00231735,0
0.4,0,0,0.300001,-0.00365416,0
0.4,0.1,0,0.300001,-0.00365451,0
0.4,0.2,0,0.300002,-0.00365512,0
0.4,0.3,0,0.300002,-0.00365602,0
0.4,0.4,0,0.300003,-0.00365754,0
0.4,0.5,0,0.300004,-0.00365898,0
0.4,0.6,0,0.300004,-0.00366089,0
0.4,0.7,0,0.300005,-0.00366332,0
0.4,0.8,0,0.300005,-0.00366555,0
0.4,0.9,0,0.300005,-0.00366838,0
0.4,1,0,0.300006,-0.00367089,0
0.4,1.1,0,0.300005,-0.00367332,0
0.4,1.2,0,0.300005,-0.00367629,0
0.4,1.3,0,0.300005,-0.00367859,0
0.4,1.4,0,0.300004,-0.00368105,0
0.4,1.5,0,0.300004,-0.00368314,0
0.4,1.6,0,0.300003,-0.00368422,0
0.4,1.7,0,0.300001,-0.00368552,0
0.4,1.8,0,0.3,-0.00368574,0
0.4,1.9,0,0.299998,-0.00368506,0
0.4,2,0,0.299996,-0.00368431,0
0.4,2.1,0,0.299995,-0.00368116,0
0.4,2.2,0,0.299991,-0.00367733,0
0.4,2.3,0,0.299989,-0.00367225,0
0.4,2.4,0,0.299985,-0.00366436,0
0.4,2.5,0,0.299979,-0.00365717,0
0.4,2.6,0,0.299978,-0.0036457,0
0.4,2.7,0,0.29997,-0.00363188,0
0.4,2.8,0,0.299966,-0.00361702,0
0.4,2.9,0,0.299962,-0.00359635,0
0.4,3,0,0.299949,-0.00357786,0
0.4,3.1,0,0.29995,-0.00355269,0
0.4,3.2,0,0.299937,-0.00352247,0
0.4,3.3,0,0.29993,-0.00349209,0
0.4,3.4,0,0.299925,-0.00345161,0
0.4,3.5,0,0.299905,-0.00341571,0
0.4,3.6,0,0.29991,-0.00337041,0
0.4,3.7,0,0.299889,-0.00331616,0
0.4,3.8,0,0.29988,-0.00326361,0
0.4,3.9,0,0.299875,-0.00319543,0
0.4,4,0,0.299844,-0.00313533,0
0.4,4.1,0,0.299856,-0.00306311,0
0.4,4.2,0,0.299827,-0.00297695,0
0.4,4.3,0,0.299816,-0.0028956,0
0.4,4.4,0,0.299813,-0.00279222,0
0.4,4.5,0,0.29977,-0.002702,0
0.4,4.6,0,0.29979,-0.00259682,0
0.4,4.7,0,0.299755,-0.00247459,0
0.4,4.8,0,0.299744,-0.00236115,0
0.4,4.9,0,0.299749,-0.00223643,0
0.4,5,0,0.2997,-0.0021685,0
0.4,5.1,0,0.299679,-0.00195963,0
0.4,5.2,0,0.299665,-0.00181005,0
0.4,5.3,0,0.299652,-0.00165399,0
0.4,5.4,0,0.299639,-0.00149163,0
0.4,5.5,0,0.299627,-0.00132337,0
0.4,5.6,0,0.299616,-0.00114964,0
0.4,5.7,0,0.299606,-0.000970937,0
0.4,5.8,0,0.299597,-0.000787842,0
0.4,5.9,0,0.29959,-0.000600975,0
0.4,6,0,0.299584,-0.000411016,0
0.4,6.1,0,0.29958,-0.000218692,0
0.4,6.2,0,0.299577,-2.47684e-05,0
0.4,6.3,0,0.299577,0.00016996,0
0.4,6.4,0,0.299577,0.000364681,0
0.4,6.5,0,0.29958,0.000558572,0
0.4,6.6,0,0.299584,0.000750812,0
0.4,6.7,0,0.299589,0.000940598,0
0.4,6.8,0,0.299597,0.00112713,0
0.4,6.9,0,0.299605,0.00130979,0
0.4,7,0,0.29962,0.00158594,0
0.4,7.1,0,0.299671,0.00167438,0
0.4,7.2,0,0.299678,0.00182408,0
0.4,7.3,0,0.299659,0.00197597,0
0.4,7.4,0,0.299711,0.00211502,0
0.4,7.5,0,0.299714,0.00227654,0
0.4,7.6,0,0.299713,0.00240671,0
0.4,7.7,0,0.299758,0.00253217,0
0.4,7.8,0,0.299759,0.00266203,0
0.4,7.9,0,0.29977,0.00276777,0
0.4,8,0,0.299808,0.0028738,0
0.4,8.1,0,0.299808,0.00297263,0
0.4,8.2,0,0.299826,0.00305366,0
0.4,8.3,0,0.299858,0.00313805,0
0.4,8.4,0,0.299857,0.00320872,0
0.4,8.5,0,0.299879,0.00326629,0
0.4,8.6,0,0.299904,0.00332773,0
0.4,8.7,0,0.299904,0.00337504,0
0.4,8.8,0,0.299924,0.00341153,0
0.4,8.9,0,0.299942,0.00344994,0
0.4,9,0,0.299945,0.0034788,0
0.4,9.1,0,0.299961,0.00349788,0
0.4,9.2,0,0.299974,0.00351689,0
0.4,9.3,0,0.29998,0.00352948,0
0.4,9.4,0,0.299991,0.00353525,0
0.4,9.5,0,0.3,0.00353881,0
0.4,9.6,0,0.300006,0.00353865,0
0.4,9.7,0,0.300012,0.00353345,0
0.4,9.8,0,0.30002,0.00352601,0
0.4,9.9,0,0.300025,0.00351651,0
0.4,10,0,0.300028,0.00350263,0
0.4,10.1,0,0.300035,0.0034882,0
0.4,10.2,0,0.300036,0.00347247,0
0.4,10.3,0,0.300038,0.00345226,0
0.4,10.4,0,0.300045,0.00343412,0
0.4,10.5,0,0.300042,0.00341488,0
0.4,10.6,0,0.300043,0.00339125,0
0.4,10.7,0,0.300049,0.00337133,0
0.4,10.8,0,0.300044,0.00335085,0
0.4,10.9,0,0.300044,0.00332644,0
0.4,11,0,0.300048,0.00330616,0
0.4,11.1,0,0.300041,0.00328626,0
0.4,11.2,0,0.300042,0.00326294,0
0.4,11.3,0,0.300044,0.00324395,0
0.4,11.4,0,0.300037,0.00322526,0
0.4,11.5,0,0.300038,0.00320514,0
0.4,11.6,0,0.300037,0.00318875,0
0.4,11.7,0,0.300031,0.00317232,0
0.4,11.8,0,0.300031,0.00315648,0
0.4,11.9,0,0.300028,0.00314367,0
0.4,12,0,0.300022,0.00313064,0
0.4,12.1,0,0.300022,0.00311954,0
0.4,12.2,0,0.300018,0.00311104,0
0.4,12.3,0,0.300013,0.00310243,0
0.4,12.4,0,0.300012,0.00309616,0
0.4,12.5,0,0.300008,0.00309248,0
0.4,12.6,0,0.300006,0.00308948,0
0.4,12.7,0,0.300007,0.00308789,0
0.5,0,0,0.300002,-0.00456744,0
0.5,0.1,0,0.300003,-0.00456808,0
0.5,0.2,0,0.300003,-0.00456872,0
0.5,0.3,0,0.300004,-0.00456995,0
0.5,0.4,0,0.300005,-0.00457176,0
0.5,0.5,0,0.300006,-0.00457357,0
0.5,0.6,0,0.300007,-0.0045763,0
0.5,0.7,0,0.300008,-0.00457904,0
0.5,0.8,0,0.300008,-0.00458206,0
0.5,0.9,0,0.300008,-0.00458537,0
0.5,1,0,0.300008,-0.00458868,0
0.5,1.1,0,0.300008,-0.00459208,0
0.5,1.2,0,0.300008,-0.00459548,0
0.5,1.3,0,0.300008,-0.00459862,0
0.5,1.4,0,0.300007,-0.00460149,0
0.5,1.5,0,0.300006,-0.00460436,0
0.5,1.6,0,0.300004,-0.0046059,0
0.5,1.7,0,0.300002,-0.00460745,0
0.5,1.8,0,0.3,-0.00460785,0
0.5,1.9,0,0.299997,-0.00460711,0
0.5,2,0,0.299994,-0.00460636,0
0.5,2.1,0,0.29999,-0.00460215,0
0.5,2.2,0,0.299986,-0.00459794,0
0.5,2.3,0,0.299982,-0.00459131,0
0.5,2.4,0,0.299976,-0.00458225,0
0.5,2.5,0,0.29997,-0.0045732,0
0.5,2.6,0,0.299963,-0.0045577,0
0.5,2.7,0,0.299955,-0.00454219,0
0.5,2.8,0,0.299947,-0.00452256,0
0.5,2.9,0,0.299938,-0.00449878,0
0.5,3,0,0.299928,-0.00447501,0
0.5,3.1,0,0.299917,-0.00444094,0
0.5,3.2,0,0.299905,-0.00440687,0
0.5,3.3,0,0.299893,-0.00436655,0
0.5,3.4,0,0.299879,-0.00431999,0
0.5,3.5,0,0.299865,-0.00427343,0
0.5,3.6,0,0.299849,-0.00421208,0
0.5,3.7,0,0.299833,-0.00415074,0
0.5,3.8,0,0.299816,-0.00408085,0
0.5,3.9,0,0.299798,-0.00400243,0
0.5,4,0,0.299779,-0.003924,0
0.5,4.1,0,0.299759,-0.00382632,0
0.5,4.2,0,0.299739,-0.00372864,0
0.5,4.3,0,0.299718,-0.00362045,0
0.5,4.4,0,0.299696,-0.00350175,0
0.5,4.5,0,0.299674,-0.00338304,0
0.5,4.6,0,0.299652,-0.00324315,0
0.5,4.7,0,0.299629,-0.00310325,0
0.5,4.8,0,0.29961,-0.00296975,0
0.5,4.9,0,0.299592,-0.00284265,0
0.5,5,0,0.299575,-0.00271555,0
0.5,5.1,0,0.299544,-0.00245433,0
0.5,5.2,0,0.299524,-0.00226739,0
0.5,5.3,0,0.299505,-0.00207219,0
0.5,5.4,0,0.299486,-0.00186902,0
0.5,5.5,0,0.299469,-0.0016584,0
0.5,5.6,0,0.299453,-0.00144086,0
0.5,5.7,0,0.29944,-0.00121705,0
0.5,5.8,0,0.299427,-0.0009877,0
0.5,5.9,0,0.299417,-0.000753586,0
0.5,6,0,0.299408,-0.000515571,0
0.5,6.1,0,0.299402,-0.000274571,0
0.5,6.2,0,0.299399,-3.15534e-05,0
0.5,6.3,0,0.299397,0.00021248,0
0.5,6.4,0,0.299399,0.000456501,0
0.5,6.5,0,0.299402,0.000699469,0
0.5,6.6,0,0.299408,0.000940341,0
0.5,6.7,0,0.299416,0.00117809,0
0.5,6.8,0,0.299427,0.0014117,0
0.5,6.9,0,0.299439,0.00164031,0
0.5,7,0,0.299462,0.00198616,0
0.5,7.1,0,0.299477,0.0021486,0
0.5,7.2,0,0.299493,0.00231104,0
0.5,7.3,0,0.29951,0.00247652,0
0.5,7.4,0,0.299533,0.00265919,0
0.5,7.5,0,0.299557,0.00284186,0
0.5,7.6,0,0.299581,0.00301623,0
0.5,7.7,0,0.299607,0.00317122,0
0.5,7.8,0,0.299633,0.00332622,0
0.5,7.9,0,0.29966,0.00346764,0
0.5,8,0,0.299686,0.00359247,0
0.5,8.1,0,0.299713,0.0037173,0
0.5,8.2,0,0.299739,0.00382429,0
0.5,8.3,0,0.299765,0.00391939,0
0.5,8.4,0,0.299791,0.00401448,0
0.5,8.5,0,0.299815,0.00408879,0
0.5,8.6,0,0.299838,0.00415616,0
0.5,8.7,0,0.299861,0.00422354,0
0.5,8.8,0,0.299882,0.00426874,0
0.5,8.9,0,0.299902,0.00431148,0
0.5,9,0,0.299922,0.00435317,0
0.5,9.1,0,0.299939,0.00437501,0
0.5,9.2,0,0.299956,0.00439684,0
0.5,9.3,0,0.299972,0.00441529,0
0.5,9.4,0,0.299985,0.0044202,0
0.5,9.5,0,0.299998,0.00442512,0
0.5,9.6,0,0.30001,0.00442549,0
0.5,9.7,0,0.30002,0.00441742,0
0.5,9.8,0,0.300029,0.00440936,0
0.5,9.9,0,0.300038,0.00439663,0
0.5,10,0,0.300044,0.00437925,0
0.5,10.1,0,0.300051,0.00436187,0
0.5,10.2,0,0.300056,0.00434056,0
0.5,10.3,0,0.30006,0.00431715,0
0.5,10.4,0,0.300064,0.00429374,0
0.5,10.5,0,0.300066,0.00426777,0
0.5,10.6,0,0.300068,0.00424116,0
0.5,10.7,0,0.30007,0.00421455,0
0.5,10.8,0,0.30007,0.00418715,0
0.5,10.9,0,0.300069,0.00415972,0
0.5,11,0,0.300069,0.0041324,0
0.5,11.1,0,0.300067,0.00410609,0
0.5,11.2,0,0.300065,0.00407978,0
0.5,11.3,0,0.300063,0.00405415,0
0.5,11.4,0,0.30006,0.00403053,0
0.5,11.5,0,0.300057,0.00400692,0
0.5,11.6,0,0.300054,0.00398488,0
0.5,11.7,0,0.30005,0.00396519,0
0.5,11.8,0,0.300046,0.00394549,0
0.5,11.9,0,0.300041,0.00392847,0
0.5,12,0,0.300037,0.00391362,0
0.5,12.1,0,0.300032,0.00389877,0
0.5,12.2,0,0.300027,0.00388777,0
0.5,12.3,0,0.300022,0.00387842,0
0.5,12.4,0,0.300017,0.00386907,0
0.5,12.5,0,0.300014,0.00386492,0
0.5,12.6,0,0.300012,0.00386168,0
0.5,12.7,0,0.30001,0.00385844,0
0.6,0,0,0.300003,-0.00547971,0
0.6,0.1,0,0.300003,-0.00548038,0
0.6,0.2,0,0.300004,-0.00548122,0
0.6,0.3,0,0.300006,-0.00548288,0
0.6,0.4,0,0.300007,-0.00548492,0
0.6,0.5,0,0.300009,-0.00548745,0
0.6,0.6,0,0.30001,-0.00549093,0
0.6,0.7,0,0.300011,-0.00549417,0
0.6,0.8,0,0.300012,-0.00549819,0
0.6,0.9,0,0.300012,-0.00550199,0
0.6,1,0,0.300013,-0.00550651,0
0.6,1.1,0,0.300012,-0.00551101,0
0.6,1.2,0,0.300012,-0.00551506,0
0.6,1.3,0,0.300012,-0.00551939,0
0.6,1.4,0,0.300011,-0.00552281,0
0.6,1.5,0,0.30001,-0.0055269,0
0.6,1.6,0,0.300007,-0.00552934,0
0.6,1.7,0,0.300004,-0.00553136,0
0.6,1.8,0,0.300001,-0.00553248,0
0.6,1.9,0,0.299997,-0.00553198,0
0.6,2,0,0.299992,-0.00553165,0
0.6,2.1,0,0.299988,-0.00552724,0
0.6,2.2,0,0.299982,-0.00552283,0
0.6,2.3,0,0.299974,-0.0055154,0
0.6,2.4,0,0.299968,-0.00550574,0
0.6,2.5,0,0.299956,-0.00549511,0
0.6,2.6,0,0.299949,-0.00547699,0
0.6,2.7,0,0.299937,-0.00545991,0
0.6,2.8,0,0.299925,-0.00543646,0
0.6,2.9,0,0.299916,-0.00541046,0
0.6,3,0,0.299894,-0.00538146,0
0.6,3.1,0,0.299885,-0.00534055,0
0.6,3.2,0,0.299865,-0.00530257,0
0.6,3.3,0,0.299847,-0.00525345,0
0.6,3.4,0,0.299835,-0.00520199,0
0.6,3.5,0,0.2998,-0.00514441,0
0.6,3.6,0,0.299791,-0.0050697,0
0.6,3.7,0,0.299762,-0.00500094,0
0.6,3.8,0,0.299736,-0.00491484,0
0.6,3.9,0,0.299722,-0.00482763,0
0.6,4,0,0.299672,-0.00472988,0
0.6,4.1,0,0.299665,-0.00460985,0
0.6,4.2,0,0.299625,-0.00449989,0
0.6,4.3,0,0.299594,-0.00436557,0
0.6,4.4,0,0.29958,-0.00423301,0
0.6,4.5,0,0.299514,-0.00408407,0
0.6,4.6,0,0.299513,-0.00391013,0
0.6,4.7,0,0.299466,-0.00375256,0
0.6,4.8,0,0.299432,-0.00356556,0
0.6,4.9,0,0.299426,-0.00340262,0
0.6,5,0,0.299363,-0.00328306,0
0.6,5.1,0,0.299314,-0.00296843,0
0.6,5.2,0,0.299284,-0.00274317,0
0.6,5.3,0,0.299254,-0.0025078,0
0.6,5.4,0,0.299226,-0.00226268,0
0.6,5.5,0,0.299199,-0.0020084,0
0.6,5.6,0,0.299175,-0.00174564,0
0.6,5.7,0,0.299154,-0.00147516,0
0.6,5.8,0,0.299134,-0.00119784,0
0.6,5.9,0,0.299118,-0.000914634,0
0.6,6,0,0.299105,-0.000626598,0
0.6,6.1,0,0.299096,-0.000334852,0
0.6,6.2,0,0.299091,-4.05812e-05,0
0.6,6.3,0,0.299089,0.000254981,0
0.6,6.4,0,0.299091,0.000550568,0
0.6,6.5,0,0.299096,0.000844897,0
0.6,6.6,0,0.299105,0.00113669,0
0.6,6.7,0,0.299118,0.00142467,0
0.6,6.8,0,0.299135,0.00170758,0
0.6,6.9,0,0.299154,0.00198437,0
0.6,7,0,0.299191,0.00240303,0
0.6,7.1,0,0.299258,0.00255898,0
0.6,7.2,0,0.299272,0.00274704,0
0.6,7.3,0,0.299272,0.00299808,0
0.6,7.4,0,0.299351,0.00323235,0
0.6,7.5,0,0.299363,0.00343365,0
0.6,7.6,0,0.299385,0.00365128,0
0.6,7.7,0,0.299455,0.00384439,0
0.6,7.8,0,0.29947,0.00401916,0
0.6,7.9,0,0.299507,0.00419558,0
0.6,8,0,0.299565,0.00434582,0
0.6,8.1,0,0.299583,0.00448943,0
0.6,8.2,0,0.299627,0.0046235,0
0.6,8.3,0,0.299673,0.00473384,0
0.6,8.4,0,0.299693,0.00484474,0
0.6,8.5,0,0.299739,0.00493863,0
0.6,8.6,0,0.299774,0.00501432,0
0.6,8.7,0,0.299796,0.00509265,0
0.6,8.8,0,0.299837,0.00515069,0
0.6,8.9,0,0.299864,0.00519755,0
0.6,9,0,0.299886,0.00524453,0
0.6,9.1,0,0.299919,0.00527334,0
0.6,9.2,0,0.299939,0.005296,0
0.6,9.3,0,0.29996,0.00531533,0
0.6,9.4,0,0.299983,0.00532215,0
0.6,9.5,0,0.299999,0.00532565,0
0.6,9.6,0,0.300017,0.00532351,0
0.6,9.7,0,0.300031,0.00531401,0
0.6,9.8,0,0.300044,0.00530252,0
0.6,9.9,0,0.300057,0.00528483,0
0.6,10,0,0.300064,0.00526449,0
0.6,10.1,0,0.300076,0.00524167,0
0.6,10.2,0,0.300082,0.00521375,0
0.6,10.3,0,0.300086,0.00518716,0
0.6,10.4,0,0.300096,0.00515654,0
0.6,10.5,0,0.300096,0.00512301,0
0.6,10.6,0,0.300097,0.00509313,0
0.6,10.7,0,0.300104,0.00505868,0
0.6,10.8,0,0.300099,0.00502336,0
0.6,10.9,0,0.300099,0.00499262,0
0.6,11,0,0.300103,0.00495778,0
0.6,11.1,0,0.300095,0.0049237,0
0.6,11.2,0,0.300094,0.00489444,0
0.6,11.3,0,0.300093,0.00486194,0
0.6,11.4,0,0.300084,0.00483194,0
0.6,11.5,0,0.300083,0.00480525,0
0.6,11.6,0,0.300079,0.00477729,0
0.6,11.7,0,0.30007,0.00475298,0
0.6,11.8,0,0.300067,0.00473023,0
0.6,11.9,0,0.30006,0.00470844,0
0.6,12,0,0.300052,0.00469062,0
0.6,12.1,0,0.300047,0.00467325,0
0.6,12.2,0,0.300039,0.00465881,0
0.6,12.3,0,0.300031,0.00464787,0
0.6,12.4,0,0.300026,0.00463696,0
0.6,12.5,0,0.300017,0.00463062,0
0.6,12.6,0,0.300013,0.00462678,0
0.6,12.7,0,0.300015,0.00462396,0
0.7,0,0,0.300004,-0.00639198,0
0.7,0.1,0,0.300005,-0.00639285,0
0.7,0.2,0,0.300006,-0.00639392,0
0.7,0.3,0,0.300008,-0.00639558,0
0.7,0.4,0,0.30001,-0.00639857,0
0.7,0.5,0,0.300012,-0.00640133,0
0.7,0.6,0,0.300014,-0.00640532,0
0.7,0.7,0,0.300015,-0.00640981,0
0.7,0.8,0,0.300016,-0.00641383,0
0.7,0.9,0,0.300017,-0.00641933,0
0.7,1,0,0.300018,-0.00642434,0
0.7,1.1,0,0.300017,-0.0064295,0
0.7,1.2,0,0.300017,-0.0064353,0
0.7,1.3,0,0.300017,-0.00643963,0
0.7,1.4,0,0.300015,-0.00644481,0
0.7,1.5,0,0.300013,-0.00644944,0
0.7,1.6,0,0.30001,-0.00645236,0
0.7,1.7,0,0.300006,-0.00645575,0
0.7,1.8,0,0.300002,-0.00645687,0
0.7,1.9,0,0.299996,-0.00645703,0
0.7,2,0,0.29999,-0.00645695,0
0.7,2.1,0,0.299983,-0.00645234,0
0.7,2.2,0,0.299974,-0.00644753,0
0.7,2.3,0,0.299967,-0.00644009,0
0.7,2.4,0,0.299955,-0.00642825,0
0.7,2.5,0,0.299943,-0.00641702,0
0.7,2.6,0,0.299931,-0.00639732,0
0.7,2.7,0,0.299915,-0.00637605,0
0.7,2.8,0,0.299902,-0.0063526,0
0.7,2.9,0,0.299881,-0.00631914,0
0.7,3,0,0.29986,-0.00628791,0
0.7,3.1,0,0.299843,-0.00624309,0
0.7,3.2,0,0.299817,-0.00619436,0
0.7,3.3,0,0.299799,-0.00614523,0
0.7,3.4,0,0.299768,-0.00607787,0
0.7,3.5,0,0.299735,-0.0060154,0
0.7,3.6,0,0.299713,-0.00593327,0
0.7,3.7,0,0.299677,-0.00584372,0
0.7,3.8,0,0.299651,-0.00575762,0
0.7,3.9,0,0.29961,-0.0056423,0
0.7,4,0,0.299565,-0.00553575,0
0.7,4.1,0,0.299538,-0.00540345,0
0.7,4.2,0,0.299493,-0.00525887,0
0.7,4.3,0,0.299461,-0.00512455,0
0.7,4.4,0,0.299412,-0.00494789,0
0.7,4.5,0,0.299354,-0.00478509,0
0.7,4.6,0,0.299328,-0.00459348,0
0.7,4.7,0,0.299277,-0.00438421,0
0.7,4.8,0,0.299243,-0.0041972,0
0.7,4.9,0,0.299203,-0.00400597,0
0.7,5,0,0.29915,-0.00385057,0
0.7,5.1,0,0.299085,-0.00348254,0
0.7,5.2,0,0.299043,-0.00321895,0
0.7,5.3,0,0.299003,-0.00294342,0
0.7,5.4,0,0.298965,-0.00265634,0
0.7,5.5,0,0.298929,-0.00235841,0
0.7,5.6,0,0.298896,-0.00205042,0
0.7,5.7,0,0.298867,-0.00173326,0
0.7,5.8,0,0.298841,-0.00140798,0
0.7,5.9,0,0.29882,-0.00107568,0
0.7,6,0,0.298803,-0.000737625,0
0.7,6.1,0,0.29879,-0.000395132,0
0.7,6.2,0,0.298783,-4.96089e-05,0
0.7,6.3,0,0.29878,0.000297482,0
0.7,6.4,0,0.298783,0.000644635,0
0.7,6.5,0,0.29879,0.000990326,0
0.7,6.6,0,0.298803,0.00133303,0
0.7,6.7,0,0.29882,0.00167124,0
0.7,6.8,0,0.298843,0.00200346,0
0.7,6.9,0,0.29887,0.00232842,0
0.7,7,0,0.298921,0.00281989,0
0.7,7.1,0,0.298974,0.00301518,0
0.7,7.2,0,0.299011,0.0032626,0
0.7,7.3,0,0.299025,0.00351183,0
0.7,7.4,0,0.29909,0.00377118,0
0.7,7.5,0,0.299144,0.00404831,0
0.7,7.6,0,0.299173,0.00427271,0
0.7,7.7,0,0.299238,0.00449755,0
0.7,7.8,0,0.299296,0.00473052,0
0.7,7.9,0,0.299333,0.00490695,0
0.7,8,0,0.299395,0.00509093,0
0.7,8.1,0,0.299447,0.0052717,0
0.7,8.2,0,0.299491,0.00540631,0
0.7,8.3,0,0.299549,0.00554739,0
0.7,8.4,0,0.299595,0.00567943,0
0.7,8.5,0,0.29964,0.0057753,0
0.7,8.6,0,0.299692,0.00587382,0
0.7,8.7,0,0.29973,0.00596285,0
0.7,8.8,0,0.299772,0.00602261,0
0.7,8.9,0,0.299817,0.0060836,0
0.7,9,0,0.299849,0.00613555,0
0.7,9.1,0,0.299884,0.00616463,0
0.7,9.2,0,0.299921,0.00619403,0