/*--------------------------------*- C++ -*----------------------------------*\
| =========                 |                                                 |
| \\      /  F ield         | OpenFOAM: The Open Source CFD Toolbox           |
|  \\    /   O peration     | Version:  v1806                                 |
|   \\  /    A nd           | Web:      www.OpenFOAM.com                      |
|    \\/     M anipulation  |                                                 |
\*---------------------------------------------------------------------------*/
FoamFile
{
    version     2.0;
    format      ascii;
    class       volVectorField;
    location    "170";
    object      U;
}
// * * * * * * * * * * * * * * * * * * * * * * * * * * * * * * * * * * * * * //

dimensions      [0 1 -1 0 0 0 0];


internalField   nonuniform List<vector> 
2400
(
(0.3 -0.000391592 0)
(0.299996 -0.00118294 0)
(0.299988 -0.00198974 0)
(0.299975 -0.00282452 0)
(0.299956 -0.00369366 0)
(0.29993 -0.00460872 0)
(0.299899 -0.00557358 0)
(0.299863 -0.0065966 0)
(0.299821 -0.00767678 0)
(0.299777 -0.00881708 0)
(0.299731 -0.0100076 0)
(0.299688 -0.0112409 0)
(0.29965 -0.012494 0)
(0.299624 -0.013747 0)
(0.299616 -0.0149585 0)
(0.299631 -0.0160937 0)
(0.299676 -0.0170962 0)
(0.299755 -0.0179273 0)
(0.299872 -0.0185247 0)
(0.300031 -0.0188655 0)
(0.3 -0.000389418 0)
(0.29999 -0.00117684 0)
(0.299971 -0.00197896 0)
(0.299942 -0.00280948 0)
(0.299903 -0.0036736 0)
(0.299856 -0.00458452 0)
(0.299801 -0.00554487 0)
(0.299739 -0.00656493 0)
(0.299674 -0.00764258 0)
(0.299608 -0.00878291 0)
(0.299547 -0.00997518 0)
(0.299496 -0.0112141 0)
(0.299463 -0.0124762 0)
(0.299458 -0.0137433 0)
(0.299489 -0.0149735 0)
(0.299567 -0.016133 0)
(0.299699 -0.017164 0)
(0.29989 -0.0180254 0)
(0.30014 -0.0186531 0)
(0.300445 -0.0190132 0)
(0.299999 -0.000385017 0)
(0.299983 -0.00116481 0)
(0.299952 -0.00195816 0)
(0.299904 -0.00278141 0)
(0.299842 -0.00363715 0)
(0.299766 -0.00454206 0)
(0.299679 -0.00549581 0)
(0.299583 -0.00651293 0)
(0.299484 -0.0075884 0)
(0.299386 -0.00873199 0)
(0.299297 -0.00993037 0)
(0.299228 -0.011183 0)
(0.29919 -0.0124643 0)
(0.299198 -0.0137598 0)
(0.299266 -0.0150249 0)
(0.299408 -0.0162281 0)
(0.299637 -0.0173052 0)
(0.299958 -0.0182167 0)
(0.300367 -0.018885 0)
(0.300852 -0.019286 0)
(0.299999 -0.000378312 0)
(0.299976 -0.00114681 0)
(0.299932 -0.0019269 0)
(0.299865 -0.00273984 0)
(0.299778 -0.0035832 0)
(0.299672 -0.00448019 0)
(0.29955 -0.0054245 0)
(0.299416 -0.00643873 0)
(0.299276 -0.00751138 0)
(0.299139 -0.00866146 0)
(0.299016 -0.00986934 0)
(0.29892 -0.0111439 0)
(0.298868 -0.0124538 0)
(0.29888 -0.0137924 0)
(0.298977 -0.0151092 0)
(0.299179 -0.0163765 0)
(0.299502 -0.0175214 0)
(0.299955 -0.0185035 0)
(0.300532 -0.0192314 0)
(0.301215 -0.0196771 0)
(0.299999 -0.000369193 0)
(0.299969 -0.0011229 0)
(0.299911 -0.00188476 0)
(0.299826 -0.00268441 0)
(0.299712 -0.00351046 0)
(0.299574 -0.00439759 0)
(0.299414 -0.00532814 0)
(0.299239 -0.00633939 0)
(0.299056 -0.00740665 0)
(0.298874 -0.00856636 0)
(0.298709 -0.00978497 0)
(0.298578 -0.0110898 0)
(0.298503 -0.0124363 0)
(0.298509 -0.0138336 0)
(0.298626 -0.015219 0)
(0.298881 -0.0165737 0)
(0.299294 -0.017811 0)
(0.299883 -0.0188898 0)
(0.300637 -0.0196987 0)
(0.301536 -0.0202031 0)
(0.299998 -0.000357492 0)
(0.299962 -0.00109313 0)
(0.29989 -0.00183119 0)
(0.299784 -0.00261487 0)
(0.299644 -0.00341766 0)
(0.299472 -0.00429342 0)
(0.299273 -0.00520424 0)
(0.299052 -0.00621301 0)
(0.298821 -0.00726986 0)
(0.298588 -0.00844321 0)
(0.298375 -0.00967066 0)
(0.298198 -0.0110155 0)
(0.29809 -0.0124036 0)
(0.298077 -0.0138774 0)
(0.298203 -0.0153475 0)
(0.2985 -0.0168167 0)
(0.299001 -0.018174 0)
(0.299727 -0.0193811 0)
(0.300671 -0.0202983 0)
(0.301811 -0.0208832 0)
(0.299998 -0.000343015 0)
(0.299955 -0.00105756 0)
(0.299869 -0.0017655 0)
(0.299742 -0.00253106 0)
(0.299572 -0.00330336 0)
(0.299365 -0.00416707 0)
(0.299124 -0.00504997 0)
(0.298855 -0.00605806 0)
(0.29857 -0.00709594 0)
(0.298279 -0.00828884 0)
(0.298008 -0.00951829 0)
(0.297773 -0.0109158 0)
(0.297618 -0.0123448 0)
(0.297571 -0.0139177 0)
(0.297693 -0.0154849 0)
(0.298017 -0.0171025 0)
(0.2986 -0.0186092 0)
(0.299466 -0.0199848 0)
(0.300618 -0.0210453 0)
(0.302029 -0.0217391 0)
(0.299997 -0.000325576 0)
(0.299947 -0.00101631 0)
(0.299846 -0.00168697 0)
(0.299698 -0.00243287 0)
(0.299498 -0.00316591 0)
(0.299254 -0.00401804 0)
(0.298968 -0.00486196 0)
(0.298646 -0.00587311 0)
(0.298302 -0.00687853 0)
(0.297944 -0.00810024 0)
(0.297605 -0.00931711 0)
(0.297296 -0.0107855 0)
(0.297081 -0.0122447 0)
(0.296976 -0.013948 0)
(0.297077 -0.0156153 0)
(0.297407 -0.0174277 0)
(0.298065 -0.0191121 0)
(0.29907 -0.0207105 0)
(0.300451 -0.0219588 0)
(0.302176 -0.0227995 0)
(0.299996 -0.000305047 0)
(0.299939 -0.000969439 0)
(0.299822 -0.00159491 0)
(0.299653 -0.00232021 0)
(0.299422 -0.00300361 0)
(0.29914 -0.00384591 0)
(0.298804 -0.00463646 0)
(0.298426 -0.00565697 0)
(0.298015 -0.00661006 0)
(0.297581 -0.00787477 0)
(0.297162 -0.00905345 0)
(0.296763 -0.01062 0)
(0.296469 -0.0120818 0)
(0.296279 -0.0139628 0)
(0.296338 -0.0157136 0)
(0.296642 -0.0177911 0)
(0.297366 -0.0196697 0)
(0.298501 -0.0215723 0)
(0.300139 -0.023062 0)
(0.302231 -0.0241035 0)
(0.299995 -0.00028143 0)
(0.299932 -0.000916923 0)
(0.299798 -0.00148881 0)
(0.299608 -0.00219289 0)
(0.299343 -0.00281497 0)
(0.299022 -0.0036502 0)
(0.298633 -0.00436971 0)
(0.298195 -0.00540842 0)
(0.297711 -0.00628225 0)
(0.297192 -0.00761004 0)
(0.29668 -0.00871095 0)
(0.296169 -0.0104156 0)
(0.295775 -0.0118277 0)
(0.295463 -0.0139587 0)
(0.295457 -0.0157403 0)
(0.295686 -0.0181968 0)
(0.296467 -0.0202519 0)
(0.297704 -0.0225944 0)
(0.299641 -0.0243792 0)
(0.302163 -0.025705 0)
(0.299994 -0.000254955 0)
(0.299925 -0.000858475 0)
(0.299774 -0.00136859 0)
(0.299563 -0.00205043 0)
(0.299262 -0.00259916 0)
(0.298902 -0.00343001 0)
(0.298456 -0.00405872 0)
(0.297956 -0.00512574 0)
(0.29739 -0.0058872 0)
(0.296778 -0.00730311 0)
(0.296157 -0.00827189 0)
(0.295515 -0.0101686 0)
(0.294995 -0.0114476 0)
(0.294519 -0.0139345 0)
(0.294417 -0.0156383 0)
(0.2945 -0.0186577 0)
(0.29533 -0.0207974 0)
(0.296604 -0.0238214 0)
(0.298907 -0.0259208 0)
(0.301923 -0.0276837 0)
(0.299993 -0.000226178 0)
(0.299919 -0.000793389 0)
(0.29975 -0.0012349 0)
(0.299519 -0.00189175 0)
(0.29918 -0.0023565 0)
(0.298782 -0.00318351 0)
(0.298275 -0.00370226 0)
(0.297713 -0.0048057 0)
(0.297055 -0.00541922 0)
(0.296345 -0.00694872 0)
(0.295596 -0.00772016 0)
(0.294804 -0.00987208 0)
(0.294126 -0.0109042 0)
(0.293439 -0.0138871 0)
(0.293198 -0.0153342 0)
(0.293043 -0.0191933 0)
(0.293907 -0.0212001 0)
(0.295094 -0.0253321 0)
(0.297879 -0.0276457 0)
(0.301424 -0.030172 0)
(0.299993 -0.000196056 0)
(0.299914 -0.000720389 0)
(0.299728 -0.00108937 0)
(0.299476 -0.00171493 0)
(0.299099 -0.00208919 0)
(0.298664 -0.00290734 0)
(0.298092 -0.00330209 0)
(0.297469 -0.00444232 0)
(0.296709 -0.00487722 0)
(0.2959 -0.00653672 0)
(0.294998 -0.00704563 0)
(0.294049 -0.00951097 0)
(0.293163 -0.0101648 0)
(0.292232 -0.0138017 0)
(0.291777 -0.0147486 0)
(0.291286 -0.019815 0)
(0.29214 -0.0213104 0)
(0.293045 -0.0272379 0)
(0.296485 -0.029423 0)
(0.300493 -0.033401 0)
(0.299995 -0.000165931 0)
(0.299909 -0.000637575 0)
(0.299709 -0.000934844 0)
(0.299433 -0.00151699 0)
(0.299021 -0.00180174 0)
(0.298548 -0.00259597 0)
(0.297912 -0.00286432 0)
(0.297229 -0.00402549 0)
(0.296357 -0.00426756 0)
(0.295455 -0.00604905 0)
(0.294367 -0.00624978 0)
(0.293269 -0.00905517 0)
(0.292102 -0.00921208 0)
(0.290922 -0.0136379 0)
(0.29012 -0.0138137 0)
(0.289233 -0.0205031 0)
(0.289933 -0.0209577 0)
(0.290331 -0.0296553 0)
(0.294616 -0.0310159 0)
(0.298808 -0.0377297 0)
(0.3 -0.00013732 0)
(0.2999 -0.000542622 0)
(0.299697 -0.00077521 0)
(0.299386 -0.00129406 0)
(0.298955 -0.00150112 0)
(0.29843 -0.00224166 0)
(0.297746 -0.00240025 0)
(0.296992 -0.00354007 0)
(0.296014 -0.00360676 0)
(0.295015 -0.00545677 0)
(0.29372 -0.00535194 0)
(0.292484 -0.008452 0)
(0.290942 -0.00805652 0)
(0.289556 -0.0133116 0)
(0.288173 -0.0124966 0)
(0.286947 -0.021172 0)
(0.287113 -0.0199887 0)
(0.286915 -0.0326638 0)
(0.292057 -0.0321248 0)
(0.295837 -0.0435831 0)
(0.300013 -0.000111438 0)
(0.299883 -0.000433479 0)
(0.299698 -0.000614604 0)
(0.299328 -0.00104243 0)
(0.298911 -0.00119565 0)
(0.298301 -0.00183554 0)
(0.297614 -0.00192567 0)
(0.296741 -0.00296641 0)
(0.295715 -0.00292312 0)
(0.294561 -0.00471838 0)
(0.293105 -0.00439631 0)
(0.291684 -0.00761747 0)
(0.289732 -0.0067518 0)
(0.288155 -0.012669 0)
(0.285908 -0.0108281 0)
(0.284535 -0.0216184 0)
(0.283386 -0.0182986 0)
(0.282976 -0.0363026 0)
(0.288289 -0.0323451 0)
(0.291034 -0.0520382 0)
(0.300036 -8.85192e-05 0)
(0.299851 -0.000309657 0)
(0.29972 -0.00045586 0)
(0.299249 -0.000760795 0)
(0.298906 -0.000891905 0)
(0.29814 -0.00137197 0)
(0.297551 -0.00145542 0)
(0.296443 -0.00228721 0)
(0.295525 -0.00224991 0)
(0.294038 -0.00378673 0)
(0.292639 -0.00345405 0)
(0.290782 -0.00643332 0)
(0.288655 -0.00542287 0)
(0.2866 -0.0114406 0)
(0.283504 -0.00895542 0)
(0.281917 -0.0213878 0)
(0.278497 -0.0159127 0)
(0.278842 -0.040355 0)
(0.281729 -0.0308499 0)
(0.284758 -0.0659334 0)
(0.30007 -6.72503e-05 0)
(0.299801 -0.000173695 0)
(0.299767 -0.000298977 0)
(0.299142 -0.000453552 0)
(0.298954 -0.000590573 0)
(0.297933 -0.000856389 0)
(0.297588 -0.00099323 0)
(0.296063 -0.00150523 0)
(0.29552 -0.00160118 0)
(0.293362 -0.00264709 0)
(0.2925 -0.00257501 0)
(0.289596 -0.0048156 0)
(0.288095 -0.00422677 0)
(0.28452 -0.00929797 0)
(0.281659 -0.0072631 0)
(0.278352 -0.0194715 0)
(0.273142 -0.0134063 0)
(0.273914 -0.0432393 0)
(0.269455 -0.0271257 0)
(0.279242 -0.0860418 0)
(0.300113 -4.4248e-05 0)
(0.299736 -2.99457e-05 0)
(0.299833 -0.000141271 0)
(0.299013 -0.000130163 0)
(0.299048 -0.00028636 0)
(0.29769 -0.000306898 0)
(0.297724 -0.000529288 0)
(0.295609 -0.00065198 0)
(0.29572 -0.000955156 0)
(0.29252 -0.00135204 0)
(0.292787 -0.00171998 0)
(0.288015 -0.00283315 0)
(0.288428 -0.00314615 0)
(0.281471 -0.0062025 0)
(0.28158 -0.00597082 0)
(0.272354 -0.014905 0)
(0.270353 -0.0121604 0)
(0.263809 -0.0411705 0)
(0.254579 -0.0254223 0)
(0.275059 -0.11272 0)
(0.300155 -2.06581e-05 0)
(0.299666 0.000122316 0)
(0.299901 1.56257e-05 0)
(0.298887 0.00020975 0)
(0.299158 1.78819e-05 0)
(0.297455 0.000278123 0)
(0.297903 -6.55556e-05 0)
(0.295172 0.000268976 0)
(0.296017 -0.000313237 0)
(0.291689 7.18533e-05 0)
(0.293297 -0.00085894 0)
(0.286369 -0.000596349 0)
(0.28934 -0.00195704 0)
(0.277964 -0.00257909 0)
(0.283241 -0.00425384 0)
(0.263817 -0.00887369 0)
(0.272837 -0.00981099 0)
(0.240498 -0.0345246 0)
(0.258688 -0.0259507 0)
(0.265771 -0.185779 0)
(0.300161 -0.0188799 0)
(0.300201 -0.0188737 0)
(0.300237 -0.0188578 0)
(0.300272 -0.018833 0)
(0.300308 -0.0187992 0)
(0.300345 -0.0187564 0)
(0.300383 -0.0187046 0)
(0.300421 -0.0186437 0)
(0.300462 -0.0185748 0)
(0.300491 -0.0184937 0)
(0.300647 -0.019051 0)
(0.300709 -0.0190531 0)
(0.30077 -0.0190453 0)
(0.300831 -0.0190273 0)
(0.300893 -0.0189993 0)
(0.300956 -0.0189614 0)
(0.301019 -0.018914 0)
(0.301081 -0.0188571 0)
(0.301145 -0.0187912 0)
(0.301198 -0.0187153 0)
(0.301173 -0.0193252 0)
(0.301272 -0.0193259 0)
(0.301369 -0.0193158 0)
(0.301465 -0.0192953 0)
(0.30156 -0.0192645 0)
(0.301655 -0.0192236 0)
(0.30175 -0.0191728 0)
(0.301843 -0.0191121 0)
(0.301937 -0.0190421 0)
(0.302018 -0.0189623 0)
(0.30167 -0.019722 0)
(0.301808 -0.0197236 0)
(0.301943 -0.0197136 0)
(0.302075 -0.0196924 0)
(0.302207 -0.0196601 0)
(0.302339 -0.0196168 0)
(0.302469 -0.0195626 0)
(0.302597 -0.0194976 0)
(0.302726 -0.019422 0)
(0.30284 -0.0193363 0)
(0.302137 -0.0202566 0)
(0.302319 -0.0202593 0)
(0.302496 -0.0202488 0)
(0.30267 -0.0202256 0)
(0.302843 -0.0201898 0)
(0.303016 -0.0201416 0)
(0.303186 -0.0200809 0)
(0.303354 -0.0200081 0)
(0.303522 -0.0199234 0)
(0.303673 -0.0198276 0)
(0.302577 -0.020947 0)
(0.30281 -0.0209507 0)
(0.303035 -0.0209391 0)
(0.303257 -0.0209128 0)
(0.303477 -0.0208719 0)
(0.303695 -0.0208166 0)
(0.303912 -0.020747 0)
(0.304124 -0.0206634 0)
(0.304336 -0.0205658 0)
(0.30453 -0.0204562 0)
(0.302989 -0.0218163 0)
(0.30328 -0.0218212 0)
(0.303562 -0.021808 0)
(0.303839 -0.0217774 0)
(0.304113 -0.0217295 0)
(0.304386 -0.0216644 0)
(0.304656 -0.0215824 0)
(0.304921 -0.021484 0)
(0.305183 -0.021369 0)
(0.305426 -0.0212403 0)
(0.303366 -0.0228959 0)
(0.303728 -0.0229027 0)
(0.304078 -0.0228876 0)
(0.30442 -0.0228513 0)
(0.30476 -0.0227939 0)
(0.305098 -0.0227157 0)
(0.305431 -0.022617 0)
(0.305758 -0.0224984 0)
(0.30608 -0.0223598 0)
(0.306381 -0.0222055 0)
(0.303701 -0.0242287 0)
(0.304148 -0.0242392 0)
(0.304581 -0.0242222 0)
(0.305004 -0.0241785 0)
(0.305425 -0.0241084 0)
(0.305842 -0.0240124 0)
(0.306254 -0.0238909 0)
(0.306655 -0.0237449 0)
(0.30705 -0.0235741 0)
(0.30742 -0.0233851 0)
(0.303978 -0.0258759 0)
(0.304533 -0.0258929 0)
(0.305072 -0.0258742 0)
(0.305599 -0.0258207 0)
(0.306121 -0.0257331 0)
(0.306638 -0.0256123 0)
(0.307147 -0.025459 0)
(0.307642 -0.025275 0)
(0.308126 -0.0250598 0)
(0.30858 -0.0248233 0)
(0.304178 -0.0279276 0)
(0.304874 -0.0279552 0)
(0.305552 -0.0279342 0)
(0.306216 -0.0278661 0)
(0.306871 -0.0277527 0)
(0.307517 -0.0275956 0)
(0.308149 -0.0273966 0)
(0.308762 -0.0271582 0)
(0.309358 -0.0268799 0)
(0.309917 -0.0265773 0)
(0.304272 -0.0305277 0)
(0.305162 -0.0305678 0)
(0.306033 -0.0305386 0)
(0.306883 -0.0304443 0)
(0.307715 -0.030289 0)
(0.30853 -0.0300758 0)
(0.309323 -0.0298073 0)
(0.310088 -0.0294881 0)
(0.310825 -0.0291173 0)
(0.311514 -0.02872 0)
(0.304234 -0.0339085 0)
(0.305413 -0.0339515 0)
(0.30656 -0.0338916 0)
(0.307663 -0.0337435 0)
(0.308733 -0.0335151 0)
(0.309773 -0.0332105 0)
(0.310778 -0.0328334 0)
(0.311738 -0.032391 0)
(0.312653 -0.0318815 0)
(0.313502 -0.0313466 0)
(0.304073 -0.0384186 0)
(0.305717 -0.0384323 0)
(0.307257 -0.0382885 0)
(0.308696 -0.0380263 0)
(0.310078 -0.0376617 0)
(0.311414 -0.0371998 0)
(0.312695 -0.0366456 0)
(0.313908 -0.0360105 0)
(0.31505 -0.0352908 0)
(0.316096 -0.0345546 0)
(0.303868 -0.0444826 0)
(0.306301 -0.0444234 0)
(0.308427 -0.0441265 0)
(0.310319 -0.0436674 0)
(0.312106 -0.0430705 0)
(0.313825 -0.0423429 0)
(0.315459 -0.0414933 0)
(0.316985 -0.0405426 0)
(0.318399 -0.0394858 0)
(0.319675 -0.0384337 0)
(0.303895 -0.0527791 0)
(0.307603 -0.0524853 0)
(0.310604 -0.0519001 0)
(0.313151 -0.0511407 0)
(0.315519 -0.0502211 0)
(0.31777 -0.0491344 0)
(0.31986 -0.0478864 0)
(0.321746 -0.0465082 0)
(0.323426 -0.0449851 0)
(0.324862 -0.0435036 0)
(0.305867 -0.0649729 0)
(0.311234 -0.0637505 0)
(0.315033 -0.0621225 0)
(0.318059 -0.06034 0)
(0.320865 -0.0584254 0)
(0.323504 -0.056358 0)
(0.325862 -0.0541428 0)
(0.327861 -0.0518218 0)
(0.329496 -0.0493802 0)
(0.330784 -0.0470467 0)
(0.313599 -0.0841705 0)
(0.321041 -0.0823051 0)
(0.324792 -0.0798169 0)
(0.326823 -0.0768999 0)
(0.328372 -0.0735704 0)
(0.329597 -0.0698787 0)
(0.33033 -0.0659183 0)
(0.330477 -0.0617973 0)
(0.330106 -0.0575496 0)
(0.329168 -0.0534423 0)
(0.311303 -0.088124 0)
(0.316297 -0.0803543 0)
(0.316086 -0.0740971 0)
(0.31404 -0.0686243 0)
(0.311458 -0.063324 0)
(0.308274 -0.0580535 0)
(0.304322 -0.0528292 0)
(0.299653 -0.047653 0)
(0.294544 -0.0425043 0)
(0.288733 -0.037322 0)
(0.271937 -0.124934 0)
(0.249202 -0.106527 0)
(0.22007 -0.0904339 0)
(0.196866 -0.076128 0)
(0.178716 -0.0631324 0)
(0.16313 -0.0513969 0)
(0.149355 -0.0409517 0)
(0.137469 -0.0317397 0)
(0.127251 -0.0236348 0)
(0.118166 -0.0165389 0)
(0.300757 -0.018209 0)
(0.300731 -0.0172671 0)
(0.301331 -0.0161243 0)
(0.301168 -0.0148809 0)
(0.301728 -0.0135396 0)
(0.301464 -0.0124842 0)
(0.301885 -0.0113526 0)
(0.301626 -0.0107309 0)
(0.301838 -0.0100925 0)
(0.30168 -0.00988997 0)
(0.301717 -0.00977368 0)
(0.301723 -0.00995491 0)
(0.301655 -0.00997384 0)
(0.301809 -0.0104212 0)
(0.301676 -0.0102352 0)
(0.301748 -0.0111564 0)
(0.301573 -0.0108066 0)
(0.301289 -0.01276 0)
(0.30113 -0.0125692 0)
(0.300479 -0.0159136 0)
(0.30155 -0.0184044 0)
(0.301618 -0.0174389 0)
(0.302249 -0.0162584 0)
(0.30206 -0.0149784 0)
(0.302549 -0.0136194 0)
(0.30218 -0.0125069 0)
(0.302492 -0.0113845 0)
(0.302102 -0.0106985 0)
(0.302209 -0.0100915 0)
(0.301949 -0.00984654 0)
(0.301911 -0.00977833 0)
(0.301909 -0.00994024 0)
(0.301793 -0.00999676 0)
(0.302016 -0.0104379 0)
(0.301814 -0.0102134 0)
(0.301915 -0.0111323 0)
(0.301618 -0.0106623 0)
(0.30125 -0.0126175 0)
(0.300979 -0.0123181 0)
(0.300167 -0.0156881 0)
(0.302475 -0.0186276 0)
(0.30269 -0.0176264 0)
(0.303402 -0.0163827 0)
(0.303225 -0.0150414 0)
(0.303669 -0.013642 0)
(0.303197 -0.0124611 0)
(0.303403 -0.0113409 0)
(0.302852 -0.0105846 0)
(0.302831 -0.0100271 0)
(0.302432 -0.00973899 0)
(0.302284 -0.00975821 0)
(0.302266 -0.00990168 0)
(0.302067 -0.0100252 0)
(0.302395 -0.0104464 0)
(0.302084 -0.0101668 0)
(0.302242 -0.0110652 0)
(0.301761 -0.010437 0)
(0.301266 -0.0124062 0)
(0.300815 -0.0119867 0)
(0.29975 -0.0154333 0)
(0.303424 -0.0189622 0)
(0.303809 -0.0178798 0)
(0.304617 -0.0165332 0)
(0.304463 -0.0150926 0)
(0.304874 -0.013627 0)
(0.304304 -0.0123586 0)
(0.304412 -0.0112261 0)
(0.303693 -0.0103913 0)
(0.303541 -0.00989095 0)
(0.302989 -0.00956275 0)
(0.302719 -0.00970557 0)
(0.302689 -0.00983606 0)
(0.302401 -0.0100597 0)
(0.302873 -0.010454 0)
(0.302442 -0.0101021 0)
(0.302685 -0.0109685 0)
(0.30199 -0.0101269 0)
(0.301337 -0.0121202 0)
(0.300675 -0.0115489 0)
(0.299284 -0.0151076 0)
(0.304396 -0.0194011 0)
(0.304965 -0.0181996 0)
(0.305877 -0.0167116 0)
(0.30574 -0.0151375 0)
(0.306115 -0.0135802 0)
(0.305438 -0.0122054 0)
(0.305448 -0.0110437 0)
(0.304548 -0.0101186 0)
(0.304257 -0.00968105 0)
(0.303534 -0.00931507 0)
(0.303139 -0.00962158 0)
(0.303099 -0.00974701 0)
(0.302735 -0.0101153 0)
(0.303391 -0.0104723 0)
(0.30285 -0.0100312 0)
(0.303217 -0.0108427 0)
(0.302286 -0.00971143 0)
(0.301445 -0.0117374 0)
(0.300551 -0.0109628 0)
(0.298757 -0.0146823 0)
(0.305411 -0.0199588 0)
(0.306179 -0.0185917 0)
(0.307194 -0.0169165 0)
(0.307063 -0.0151738 0)
(0.30739 -0.0134968 0)
(0.306595 -0.0119982 0)
(0.306496 -0.0107857 0)
(0.305395 -0.00975887 0)
(0.304947 -0.00938682 0)
(0.304024 -0.00898999 0)
(0.303499 -0.00950543 0)
(0.303444 -0.00964018 0)
(0.303035 -0.0102104 0)
(0.303919 -0.010514 0)
(0.3033 -0.00997018 0)
(0.303833 -0.0106859 0)
(0.302641 -0.00917624 0)
(0.30158 -0.0112417 0)
(0.300425 -0.0102006 0)
(0.298138 -0.01414 0)
(0.30649 -0.0206477 0)
(0.307475 -0.0190583 0)
(0.308588 -0.0171424 0)
(0.308447 -0.0151952 0)
(0.308705 -0.0133695 0)
(0.30778 -0.011731 0)
(0.307558 -0.0104404 0)
(0.306231 -0.00930121 0)
(0.305597 -0.00899162 0)
(0.304435 -0.00857902 0)
(0.303774 -0.0093528 0)
(0.303685 -0.0095234 0)
(0.303283 -0.0103684 0)
(0.304436 -0.0105976 0)
(0.303808 -0.00994473 0)
(0.30454 -0.0104959 0)
(0.303064 -0.00850966 0)
(0.30174 -0.0106151 0)
(0.30028 -0.00922942 0)
(0.297381 -0.0134576 0)
(0.307658 -0.0214844 0)
(0.308884 -0.0196003 0)
(0.310082 -0.0173816 0)
(0.309907 -0.0151934 0)
(0.31007 -0.0131905 0)
(0.309006 -0.0113969 0)
(0.308639 -0.00999424 0)
(0.307061 -0.00873081 0)
(0.306198 -0.00847294 0)
(0.304746 -0.00807075 0)
(0.303934 -0.00915479 0)
(0.303782 -0.00940886 0)
(0.303469 -0.0106178 0)
(0.304922 -0.0107515 0)
(0.304407 -0.00998969 0)
(0.305346 -0.0102649 0)
(0.303574 -0.00769906 0)
(0.301916 -0.00982698 0)
(0.300084 -0.00800293 0)
(0.296422 -0.0126053 0)
(0.308952 -0.0224889 0)
(0.310439 -0.0202155 0)
(0.311698 -0.0176231 0)
(0.311457 -0.0151576 0)
(0.31149 -0.0129516 0)
(0.310286 -0.0109882 0)
(0.309746 -0.0094315 0)
(0.307894 -0.00802813 0)
(0.306735 -0.00780109 0)
(0.304939 -0.00744924 0)
(0.30394 -0.00889589 0)
(0.303686 -0.00931477 0)
(0.303567 -0.0109926 0)
(0.305349 -0.0110174 0)
(0.305129 -0.0101467 0)
(0.306232 -0.0099779 0)
(0.304183 -0.00672909 0)
(0.30206 -0.00882483 0)
(0.299767 -0.00645999 0)
(0.295145 -0.0115458 0)
(0.310419 -0.0236837 0)
(0.312188 -0.0208969 0)
(0.31346 -0.0178514 0)
(0.313111 -0.0150738 0)
(0.312972 -0.0126455 0)
(0.311634 -0.0104973 0)
(0.310889 -0.00873505 0)
(0.308741 -0.00716728 0)
(0.307191 -0.00693756 0)
(0.304986 -0.00669024 0)
(0.303726 -0.0085513 0)
(0.303332 -0.00926519 0)
(0.303519 -0.0115301 0)
(0.305661 -0.011453 0)
(0.305962 -0.0104579 0)
(0.307125 -0.00961284 0)
(0.304852 -0.00557832 0)
(0.302034 -0.00752288 0)
(0.299181 -0.00452274 0)
(0.29335 -0.0102322 0)
(0.312132 -0.0250911 0)
(0.314184 -0.02163 0)
(0.315397 -0.0180444 0)
(0.314878 -0.0149241 0)
(0.314522 -0.0122665 0)
(0.313068 -0.00991767 0)
(0.31208 -0.00788635 0)
(0.309612 -0.00611267 0)
(0.307533 -0.0058322 0)
(0.304836 -0.00575411 0)
(0.303174 -0.00808326 0)
(0.302607 -0.009286 0)
(0.303176 -0.0122665 0)
(0.305719 -0.0121265 0)
(0.306754 -0.0109525 0)
(0.307813 -0.00913996 0)
(0.305395 -0.0042101 0)
(0.301525 -0.00580291 0)
(0.298034 -0.00210006 0)
(0.290693 -0.0086044 0)
(0.31419 -0.0267276 0)
(0.316498 -0.0223918 0)
(0.317539 -0.0181702 0)
(0.316766 -0.0146847 0)
(0.316142 -0.0118098 0)
(0.314589 -0.00924361 0)
(0.313316 -0.00686424 0)
(0.310477 -0.00481242 0)
(0.307678 -0.00441387 0)
(0.304355 -0.00457282 0)
(0.302058 -0.00743528 0)
(0.301273 -0.0093913 0)
(0.30219 -0.0132256 0)
(0.305161 -0.0130998 0)
(0.307026 -0.0116318 0)
(0.307799 -0.00851809 0)
(0.3053 -0.00255732 0)
(0.299946 -0.0035333 0)
(0.295815 0.000891296 0)
(0.286615 -0.00659262 0)
(0.316744 -0.0286007 0)
(0.319221 -0.0231483 0)
(0.319921 -0.0181806 0)
(0.318757 -0.0143246 0)
(0.317784 -0.0112675 0)
(0.316116 -0.0084602 0)
(0.314487 -0.0056351 0)
(0.311161 -0.00319007 0)
(0.30737 -0.00257562 0)
(0.303187 -0.00302542 0)
(0.299906 -0.00651434 0)
(0.298785 -0.00954858 0)
(0.299792 -0.0143828 0)
(0.30313 -0.0143917 0)
(0.305699 -0.0124618 0)
(0.306077 -0.00771547 0)
(0.303505 -0.000521379 0)
(0.296344 -0.000589393 0)
(0.291707 0.00451595 0)
(0.280295 -0.0041256 0)
(0.32003 -0.0306816 0)
(0.322466 -0.0238333 0)
(0.322527 -0.0179881 0)
(0.320694 -0.0137859 0)
(0.319167 -0.0106116 0)
(0.317235 -0.00752247 0)
(0.315087 -0.00412246 0)
(0.311043 -0.00112747 0)
(0.305902 -0.000169266 0)
(0.300485 -0.000935217 0)
(0.295753 -0.00514758 0)
(0.293962 -0.00959929 0)
(0.294456 -0.0155898 0)
(0.297909 -0.0159079 0)
(0.300829 -0.0133643 0)
(0.300927 -0.00671406 0)
(0.29831 0.00193897 0)
(0.289424 0.00304952 0)
(0.284538 0.0088068 0)
(0.270678 -0.00114463 0)
(0.324407 -0.0329024 0)
(0.326212 -0.0243434 0)
(0.324963 -0.0174276 0)
(0.321791 -0.0129259 0)
(0.31916 -0.00972305 0)
(0.316525 -0.00632282 0)
(0.313541 -0.00218087 0)
(0.308439 0.00159499 0)
(0.301597 0.00304801 0)
(0.294512 0.00196155 0)
(0.287776 -0.00308543 0)
(0.284589 -0.00919354 0)
(0.283615 -0.0165113 0)
(0.286763 -0.0174272 0)
(0.289681 -0.0142506 0)
(0.290017 -0.00557112 0)
(0.287606 0.00469332 0)
(0.27781 0.00719628 0)
(0.272929 0.0137217 0)
(0.256693 0.00235666 0)
(0.329985 -0.0353784 0)
(0.32939 -0.0244222 0)
(0.325269 -0.0160139 0)
(0.319264 -0.0113261 0)
(0.314354 -0.00825575 0)
(0.310229 -0.00464431 0)
(0.306095 0.000310415 0)
(0.299775 0.00509973 0)
(0.29121 0.00724542 0)
(0.282208 0.00593832 0)
(0.272968 -1.06509e-05 0)
(0.267342 -0.00784518 0)
(0.263984 -0.0167184 0)
(0.266633 -0.0187453 0)
(0.269668 -0.0152027 0)
(0.271285 -0.00460129 0)
(0.269763 0.00732955 0)
(0.260552 0.0114729 0)
(0.255703 0.0191355 0)
(0.237696 0.00628 0)
(0.334601 -0.0354212 0)
(0.327037 -0.0219932 0)
(0.31704 -0.0119554 0)
(0.305671 -0.00760882 0)
(0.296953 -0.00514231 0)
(0.290777 -0.0017838 0)
(0.285938 0.00361568 0)
(0.279286 0.00935262 0)
(0.270024 0.0123514 0)
(0.259456 0.0111452 0)
(0.247549 0.00454744 0)
(0.238892 -0.00508385 0)
(0.233346 -0.0160753 0)
(0.236192 -0.0200037 0)
(0.240293 -0.0166617 0)
(0.244566 -0.0044347 0)
(0.244861 0.00918524 0)
(0.237718 0.0154714 0)
(0.232538 0.0248672 0)
(0.214066 0.0103723 0)
(0.32466 -0.0347968 0)
(0.302944 -0.0174132 0)
(0.284989 -0.00555123 0)
(0.266735 -0.00230883 0)
(0.254712 -0.000972337 0)
(0.248198 0.00131911 0)
(0.245335 0.00671171 0)
(0.241298 0.0133523 0)
(0.233865 0.0175622 0)
(0.223021 0.017252 0)
(0.20935 0.0105645 0)
(0.19902 -0.00120967 0)
(0.193663 -0.0152895 0)
(0.198337 -0.0219771 0)
(0.204755 -0.019357 0)
(0.21255 -0.00571426 0)
(0.215109 0.00975834 0)
(0.210585 0.0190225 0)
(0.204597 0.0306517 0)
(0.187603 0.0142088 0)
(0.270112 -0.0189354 0)
(0.230299 -0.00224542 0)
(0.209712 0.00834936 0)
(0.189876 0.00711463 0)
(0.181795 0.00462582 0)
(0.181085 0.00346942 0)
(0.185204 0.00785043 0)
(0.187325 0.0154091 0)
(0.184111 0.0217391 0)
(0.174908 0.0233426 0)
(0.162441 0.0166975 0)
(0.154351 0.00225491 0)
(0.152449 -0.0158728 0)
(0.159831 -0.0255843 0)
(0.168782 -0.0237119 0)
(0.179539 -0.00857794 0)
(0.183784 0.00912706 0)
(0.181435 0.0222098 0)
(0.174777 0.0360172 0)
(0.161344 0.0172568 0)
(0.110475 0.00772858 0)
(0.0944504 0.00940343 0)
(0.097067 0.0163496 0)
(0.0913752 0.00969592 0)
(0.0979361 0.00334286 0)
(0.107599 -0.000504169 0)
(0.120408 0.00430845 0)
(0.129062 0.0143674 0)
(0.130698 0.0241882 0)
(0.125636 0.0279397 0)
(0.1187 0.0205944 0)
(0.116247 0.00314857 0)
(0.118709 -0.0185392 0)
(0.12761 -0.0306475 0)
(0.137646 -0.0292734 0)
(0.149488 -0.0123388 0)
(0.154407 0.00792405 0)
(0.153646 0.0251858 0)
(0.147351 0.04038 0)
(0.138786 0.0190816 0)
(0.045069 -0.00107269 0)
(0.0330296 0.00648464 0)
(0.0466023 0.013966 0)
(0.0469302 0.00698829 0)
(0.0594535 -0.000850068 0)
(0.0722853 -0.00543097 0)
(0.0877871 -2.67013e-05 0)
(0.0990398 0.0119332 0)
(0.103804 0.0239624 0)
(0.10266 0.0289027 0)
(0.100494 0.0211392 0)
(0.101827 0.00240978 0)
(0.106065 -0.0205664 0)
(0.11416 -0.0336995 0)
(0.123286 -0.0328134 0)
(0.134309 -0.0149768 0)
(0.139271 0.00694527 0)
(0.139479 0.0263353 0)
(0.134217 0.0422439 0)
(0.128609 0.0197732 0)
(0.0230675 -0.00645228 0)
(0.0112537 0.00604385 0)
(0.0279249 0.0128172 0)
(0.0306534 0.00574197 0)
(0.0452946 -0.00278128 0)
(0.0590089 -0.00763115 0)
(0.0751793 -0.00205832 0)
(0.0872426 0.0106765 0)
(0.0932768 0.0235969 0)
(0.0939334 0.029004 0)
(0.0939677 0.02106 0)
(0.0969686 0.00190262 0)
(0.10189 -0.0214896 0)
(0.10943 -0.0349474 0)
(0.117902 -0.0342701 0)
(0.128306 -0.0161132 0)
(0.133183 0.00652637 0)
(0.133765 0.0267258 0)
(0.129051 0.0429623 0)
(0.124697 0.020059 0)
(0.00755465 -0.00742732 0)
(-0.00524148 0.00562418 0)
(0.013413 0.0113504 0)
(0.0182033 0.00425445 0)
(0.034384 -0.00492394 0)
(0.0484393 -0.00988896 0)
(0.0647403 -0.00416721 0)
(0.0772633 0.00927634 0)
(0.0844275 0.0229928 0)
(0.0868987 0.0287945 0)
(0.0891477 0.0206843 0)
(0.0937367 0.00123137 0)
(0.0992029 -0.0224107 0)
(0.105982 -0.036085 0)
(0.113562 -0.0356109 0)
(0.123111 -0.017192 0)
(0.127805 0.00610372 0)
(0.128706 0.0270251 0)
(0.124618 0.0435572 0)
(0.121429 0.0202844 0)
(-0.00238964 -0.0064343 0)
(-0.0166083 0.00510804 0)
(0.00334672 0.00957181 0)
(0.00982404 0.00252118 0)
(0.0269528 -0.00717987 0)
(0.0408133 -0.012155 0)
(0.0567182 -0.00629199 0)
(0.0693431 0.00777499 0)
(0.0774719 0.0221764 0)
(0.0817177 0.0282898 0)
(0.0861258 0.0200338 0)
(0.0921687 0.000413183 0)
(0.0980215 -0.0233023 0)
(0.103847 -0.0370877 0)
(0.110315 -0.0368085 0)
(0.118788 -0.0181864 0)
(0.123203 0.00567803 0)
(0.124366 0.0272507 0)
(0.120964 0.0440215 0)
(0.118837 0.020434 0)
(-0.00761369 -0.00433374 0)
(-0.0229717 0.00454404 0)
(-0.00210679 0.00758665 0)
(0.00565524 0.000636778 0)
(0.0231563 -0.00944959 0)
(0.0363151 -0.0143435 0)
(0.0513191 -0.00836516 0)
(0.0636828 0.0062132 0)
(0.0725816 0.0211663 0)
(0.078504 0.0275021 0)
(0.0849476 0.0191273 0)
(0.0922673 -0.000528303 0)
(0.0983459 -0.0241381 0)
(0.103046 -0.0379238 0)
(0.108204 -0.0378291 0)
(0.115392 -0.0190729 0)
(0.119436 0.00526185 0)
(0.1208 0.0274028 0)
(0.118124 0.0443588 0)
(0.116946 0.0205177 0)
(-0.00868631 -0.00173108 0)
(-0.0244293 0.00396387 0)
(-0.00288068 0.00546641 0)
(0.00574594 -0.00132356 0)
(0.0230753 -0.0116517 0)
(0.035071 -0.0163771 0)
(0.0487007 -0.0103228 0)
(0.0604371 0.00463263 0)
(0.0698797 0.0199855 0)
(0.077322 0.0264512 0)
(0.0856163 0.0179896 0)
(0.0940042 -0.00156243 0)
(0.100154 -0.0248942 0)
(0.103586 -0.0385668 0)
(0.107266 -0.0386432 0)
(0.112973 -0.0198301 0)
(0.116556 0.00486811 0)
(0.11805 0.0274817 0)
(0.11612 0.0445764 0)
(0.115775 0.0205481 0)
(-0.00582158 0.00074652 0)
(-0.0210326 0.00334247 0)
(0.0010074 0.00325819 0)
(0.0100642 -0.00330382 0)
(0.0267136 -0.0137152 0)
(0.037141 -0.0181895 0)
(0.0489651 -0.0121044 0)
(0.0597103 0.00307791 0)
(0.0694393 0.0186652 0)
(0.0781884 0.0251665 0)
(0.0880964 0.0166528 0)
(0.0973223 -0.0026638 0)
(0.103401 -0.0255508 0)
(0.10546 -0.0389958 0)
(0.107522 -0.0392256 0)
(0.111571 -0.0204379 0)
(0.114602 0.0045088 0)
(0.11615 0.0274911 0)
(0.114967 0.0446826 0)
(0.115336 0.0205352 0)
(0.00111522 0.00245911 0)
(-0.0127721 0.00266053 0)
(0.00946743 0.00100264 0)
(0.0185002 -0.00523761 0)
(0.0339911 -0.015577 0)
(0.0425084 -0.0197224 0)
(0.052151 -0.0136534 0)
(0.0615531 0.00159588 0)
(0.0712842 0.0172442 0)
(0.0810764 0.023686 0)
(0.0923185 0.0151547 0)
(0.102139 -0.00380576 0)
(0.108019 -0.0260914 0)
(0.108634 -0.0391952 0)
(0.108979 -0.0395556 0)
(0.111214 -0.0208776 0)
(0.113606 0.00419523 0)
(0.115122 0.027438 0)
(0.114667 0.044687 0)
(0.115634 0.0204873 0)
(0.0125543 0.002665 0)
(0.000430908 0.00191008 0)
(0.0223403 -0.00121688 0)
(0.0308657 -0.00704922 0)
(0.0447352 -0.0171803 0)
(0.0510696 -0.020927 0)
(0.0582254 -0.0149178 0)
(0.0659602 0.000231273 0)
(0.0753917 0.0157672 0)
(0.0859218 0.0220545 0)
(0.0981851 0.0135366 0)
(0.108348 -0.00496154 0)
(0.113918 -0.0265038 0)
(0.113054 -0.0391551 0)
(0.111625 -0.0396158 0)
(0.111918 -0.0211313 0)
(0.113584 0.00393976 0)
(0.114977 0.0273316 0)
(0.115213 0.0445999 0)
(0.116667 0.0204119 0)
(0.0290948 0.000301151 0)
(0.0187515 0.00106844 0)
(0.0394109 -0.00330675 0)
(0.0468857 -0.00869263 0)
(0.0586771 -0.0184659 0)
(0.0626271 -0.0217697 0)
(0.0670758 -0.0158515 0)
(0.0728672 -0.000964481 0)
(0.081696 0.0142771 0)
(0.0926288 0.0203147 0)
(0.105576 0.0118366 0)
(0.115823 -0.00610366 0)
(0.120984 -0.0267791 0)
(0.118644 -0.0388704 0)
(0.115428 -0.0393883 0)
(0.113682 -0.0211786 0)
(0.114544 0.00376499 0)
(0.115719 0.0271833 0)
(0.116592 0.0444334 0)
(0.118429 0.0203253 0)
(0.0661766 -0.0063728 0)
(0.0584399 -0.00134799 0)
(0.0745503 -0.00653736 0)
(0.0792377 -0.0111616 0)