/*--------------------------------*- C++ -*----------------------------------*\
| =========                 |                                                 |
| \\      /  F ield         | OpenFOAM: The Open Source CFD Toolbox           |
|  \\    /   O peration     | Version:  v1806                                 |
|   \\  /    A nd           | Web:      www.OpenFOAM.com                      |
|    \\/     M anipulation  |                                                 |
\*---------------------------------------------------------------------------*/
FoamFile
{
    version     2.0;
    format      ascii;
    class       volScalarField;
    location    "440";
    object      p;
}
// * * * * * * * * * * * * * * * * * * * * * * * * * * * * * * * * * * * * * //

dimensions      [0 2 -2 0 0 0 0];


internalField   nonuniform List<scalar> 
4400
(
0.00916909
0.0107011
0.0119777
0.0122116
0.0115636
0.0104546
0.00920008
0.00797346
0.00684966
0.00584818
0.00496591
0.00418961
0.00350414
0.00289552
0.00235088
0.00185822
0.0014063
0.000984746
0.000584005
0.000194754
0.0220248
0.0175514
0.0140462
0.0115847
0.00986266
0.00856233
0.0074975
0.00658589
0.00579295
0.00509804
0.00448202
0.00392572
0.00341202
0.00292734
0.00246159
0.00200747
0.00155971
0.00111469
0.000670564
0.00022619
0.0148466
0.0137614
0.0127067
0.0116999
0.0108117
0.0100165
0.00925046
0.00848107
0.0077053
0.0069331
0.00617585
0.00544061
0.00473021
0.0040448
0.00338295
0.00274209
0.00211873
0.00150855
0.000906525
0.000305476
0.013506
0.0126618
0.0116922
0.01067
0.00967685
0.00876337
0.00793352
0.00717289
0.00646343
0.00579316
0.00515562
0.00454683
0.00396314
0.00340065
0.00285527
0.00232303
0.00180027
0.00128391
0.000771824
0.000260816
0.00984892
0.00946481
0.00904662
0.00860103
0.00812998
0.00764091
0.00714766
0.00665202
0.0061497
0.00563831
0.00511839
0.00459199
0.00406128
0.00352787
0.00299266
0.0024559
0.0019173
0.00137621
0.000831628
0.000280672
0.0083967
0.00811212
0.00776331
0.00736028
0.0069199
0.00646009
0.00599497
0.00553226
0.00507439
0.00462115
0.00417155
0.00372494
0.00328105
0.00283975
0.00240076
0.00196364
0.00152782
0.00109283
0.000658477
0.000222836
0.00635586
0.00618483
0.00598731
0.00576648
0.00552298
0.00525857
0.00497515
0.00467524
0.00436121
0.00403374
0.00369339
0.00334103
0.00297779
0.00260485
0.00222325
0.00183387
0.00143743
0.00103467
0.000626153
0.000211191
0.00531785
0.00518675
0.00502197
0.0048265
0.0046048
0.00436128
0.00410125
0.00382952
0.00354893
0.00326137
0.00296798
0.00266944
0.00236636
0.00205936
0.00174902
0.00143589
0.00112042
0.000803151
0.000484683
0.000164078
0.0040825
0.00399373
0.00388708
0.00376439
0.00362576
0.00347183
0.00330341
0.00312119
0.00292593
0.0027185
0.00249957
0.00226985
0.00203013
0.00178126
0.00152411
0.00125957
0.00098853
0.000711965
0.000430813
0.000145127
0.003389
0.00331878
0.00322896
0.00312084
0.00299616
0.00285643
0.00270351
0.0025395
0.00236626
0.0021851
0.00199706
0.00180299
0.00160361
0.00139958
0.00119155
0.000980139
0.00076596
0.000549672
0.000331946
0.00011233
0.00261909
0.00256875
0.00250648
0.00243353
0.00234989
0.00225581
0.00215169
0.00203792
0.00191483
0.00178284
0.00164239
0.00149396
0.00133812
0.00117546
0.00100663
0.000832343
0.000653335
0.000470451
0.000284493
9.57069e-05
0.00217137
0.00213071
0.00207783
0.00201357
0.00193882
0.00185422
0.00176058
0.00165886
0.00155003
0.00143499
0.00131444
0.00118902
0.00105932
0.000925866
0.000789187
0.000649785
0.000508156
0.000364838
0.000220359
7.45024e-05
0.00169015
0.00165994
0.00162179
0.00157655
0.00152419
0.00146483
0.00139871
0.00132607
0.00124712
0.00116211
0.00107132
0.000975088
0.00087377
0.000767787
0.000657599
0.000543708
0.000426667
0.000307086
0.000185551
6.23282e-05
0.00141114
0.0013863
0.00135346
0.0013134
0.00126656
0.00121327
0.00115395
0.0010891
0.00101925
0.000944922
0.00086662
0.000784779
0.000699814
0.000612121
0.000522081
0.000430063
0.000336433
0.000241578
0.000145877
4.92486e-05
0.00111552
0.00109639
0.0010719
0.00104267
0.00100863
0.000969846
0.000926474
0.000878673
0.000826602
0.000770433
0.000710361
0.000646607
0.000579425
0.000509104
0.000435964
0.000360359
0.000282675
0.000203335
0.000122741
4.11528e-05
0.000951947
0.000936467
0.000914706
0.000888368
0.000857509
0.000822263
0.000782881
0.00073966
0.00069292
0.000642986
0.000590185
0.000534826
0.000477206
0.000417608
0.000356312
0.000293585
0.000229695
0.000164917
9.95219e-05
3.3522e-05
0.000780662
0.000767942
0.000751216
0.000730951
0.000707223
0.000680092
0.000649666
0.000616068
0.000579432
0.0005399
0.000497627
0.000452784
0.000405563
0.000356176
0.000304854
0.000251852
0.000197445
0.000141921
8.55602e-05
2.86166e-05
0.000698237
0.000686331
0.000670723
0.000651527
0.000629087
0.000603489
0.000574903
0.000543518
0.000509536
0.000473167
0.000434627
0.000394131
0.000351892
0.000308116
0.000263012
0.000216783
0.000169633
0.000121774
7.34178e-05
2.46557e-05
0.000612097
0.000601037
0.000587372
0.000571233
0.000552577
0.000531411
0.00050777
0.000481712
0.000453305
0.000422631
0.000389787
0.000354888
0.00031807
0.000279488
0.000239323
0.000197776
0.000155069
0.000111437
6.71167e-05
2.23942e-05
0.000600417
0.000591065
0.000578361
0.000562419
0.00054347
0.000521688
0.000497248
0.000470334
0.000441134
0.000409832
0.000376613
0.000341658
0.000305149
0.000267269
0.000228198
0.000188119
0.00014721
0.000105654
6.36437e-05
2.13227e-05
0.0348115
0.035119
0.0352626
0.0353011
0.0352286
0.0350375
0.0347261
0.0342929
0.0337353
0.0330498
0.0322322
0.0312774
0.0301797
0.0289326
0.0275287
0.0259601
0.0242202
0.0223022
0.0201732
0.0177424
0.0282224
0.0284067
0.0285498
0.0286541
0.0287212
0.0287515
0.0287451
0.0287019
0.0286215
0.0285033
0.0283467
0.0281506
0.0279138
0.027635
0.0273121
0.026943
0.026527
0.0260662
0.0255469
0.0248851
0.0178847
0.017859
0.017821
0.0177703
0.0177069
0.0176307
0.0175419
0.0174406
0.0173271
0.0172019
0.0170654
0.0169182
0.0167611
0.0165948
0.0164204
0.0162388
0.0160511
0.0158579
0.0156617
0.01547
0.0150124
0.0150179
0.0150166
0.0150084
0.0149933
0.0149711
0.0149419
0.0149057
0.0148626
0.0148124
0.0147555
0.0146917
0.0146213
0.0145444
0.0144611
0.0143715
0.0142759
0.0141749
0.0140678
0.0139489
0.010634
0.010624
0.0106112
0.0105957
0.0105774
0.0105563
0.0105326
0.0105062
0.0104772
0.0104457
0.0104117
0.0103752
0.0103364
0.0102954
0.0102521
0.0102067
0.0101591
0.0101092
0.0100575
0.0100075
0.00892679
0.00892639
0.00892382
0.00891907
0.00891216
0.00890308
0.00889186
0.0088785
0.00886301
0.00884542
0.00882573
0.00880396
0.00878014
0.00875428
0.00872638
0.00869645
0.00866459
0.00863109
0.00859559
0.00855498
0.00664852
0.00664677
0.00664382
0.00663968
0.00663435
0.00662783
0.00662014
0.00661128
0.00660126
0.00659009
0.00657777
0.00656432
0.00654973
0.00653402
0.0065172
0.00649929
0.00648024
0.0064599
0.00643853
0.0064181
0.00554558
0.00554652
0.00554646
0.00554538
0.00554329
0.0055402
0.0055361
0.00553101
0.00552492
0.00551784
0.00550976
0.0055007
0.00549066
0.00547963
0.00546763
0.00545463
0.0054407
0.00542598
0.00541029
0.0053919
0.00421206
0.00421273
0.00421274
0.00421207
0.00421074
0.00420874
0.00420608
0.00420276
0.00419877
0.00419413
0.00418882
0.00418286
0.00417624
0.00416897
0.00416105
0.00415249
0.00414326
0.00413327
0.00412264
0.00411255
0.00349978
0.00350116
0.00350196
0.0035022
0.00350187
0.00350097
0.00349951
0.00349749
0.0034949
0.00349175
0.00348803
0.00348375
0.00347892
0.00347352
0.00346756
0.00346104
0.00345397
0.00344646
0.00343841
0.00342877
0.0026821
0.00268327
0.00268404
0.0026844
0.00268435
0.00268389
0.00268302
0.00268174
0.00268005
0.00267796
0.00267545
0.00267255
0.00266923
0.00266551
0.00266138
0.00265686
0.00265191
0.00264649
0.00264068
0.00263518
0.00223035
0.0022316
0.00223251
0.00223306
0.00223327
0.00223314
0.00223266
0.00223183
0.00223066
0.00222914
0.00222728
0.00222508
0.00222253
0.00221963
0.00221639
0.00221281
0.00220889
0.00220468
0.00220014
0.00219473
0.001723
0.00172409
0.00172491
0.00172548
0.00172578
0.00172582
0.0017256
0.00172512
0.00172438
0.00172338
0.00172212
0.00172059
0.00171881
0.00171676
0.00171446
0.0017119
0.00170907
0.00170594
0.00170255
0.00169936
0.001445
0.00144598
0.00144674
0.00144727
0.00144759
0.00144768
0.00144756
0.00144721
0.00144664
0.00144586
0.00144485
0.00144362
0.00144217
0.0014405
0.00143861
0.00143649
0.00143416
0.00143166
0.00142896
0.00142561
0.00113396
0.00113482
0.00113552
0.00113604
0.00113639
0.00113657
0.00113657
0.0011364
0.00113606
0.00113555
0.00113486
0.001134
0.00113297
0.00113177
0.0011304
0.00112885
0.00112713
0.00112521
0.00112312
0.00112115
0.000973037
0.000973777
0.000974369
0.000974813
0.00097511
0.000975258
0.000975259
0.000975112
0.000974817
0.000974375
0.000973785
0.000973047
0.000972162
0.000971129
0.000969948
0.000968617
0.000967145
0.000965561
0.000963835
0.000961636
0.000791853
0.00079253
0.000793088
0.000793526
0.000793844
0.000794041
0.000794118
0.000794074
0.00079391
0.000793626
0.000793221
0.000792697
0.000792052
0.000791288
0.000790404
0.000789403
0.000788278
0.000787014
0.000785632
0.000784334
0.000712711
0.000713292
0.000713762
0.000714124
0.000714378
0.000714522
0.000714558
0.000714485
0.000714303
0.000714012
0.000713612
0.000713103
0.000712485
0.000711758
0.000710921
0.000709973
0.000708921
0.000707781
0.000706534
0.000704973
0.000623298
0.000623856
0.000624312
0.000624663
0.000624909
0.00062505
0.000625085
0.000625015
0.000624839
0.000624556
0.000624168
0.000623674
0.000623073
0.000622365
0.000621551
0.000620631
0.000619602
0.000618452
0.000617194
0.000615952
0.000608379
0.000608969
0.000609465
0.000609873
0.000610193
0.000610425
0.000610569
0.000610625
0.000610592
0.000610471
0.000610262
0.000609965
0.00060958
0.000609107
0.000608546
0.000607897
0.000607162
0.000606345
0.000605444
0.000604413
0.0245669
0.0251493
0.0257132
0.0262659
0.0268068
0.0273344
0.0278476
0.0283463
0.0288308
0.0293016
0.0297599
0.0302075
0.0306471
0.0310824
0.0315182
0.0319607
0.0324178
0.0329089
0.0334796
0.0341645
0.0215481
0.0219199
0.0222907
0.0226608
0.0230297
0.023397
0.0237623
0.024125
0.0244846
0.0248407
0.0251925
0.0255396
0.025881
0.0262159
0.0265431
0.0268612
0.0271684
0.0274627
0.0277411
0.0279979
0.0164801
0.0166118
0.016742
0.0168671
0.0169865
0.0171
0.0172073
0.0173082
0.0174023
0.0174893
0.0175688
0.0176407
0.0177045
0.0177601
0.0178069
0.0178448
0.0178734
0.0178921
0.0179007
0.0178984
0.0137115
0.0138219
0.0139258
0.014026
0.0141228
0.0142157
0.0143045
0.014389
0.0144689
0.0145442
0.0146146
0.01468
0.0147402
0.0147949
0.0148441
0.0148875
0.014925
0.0149564
0.0149815
0.0150003
0.0102514
0.0102932
0.0103353
0.0103749
0.0104118
0.010446
0.0104777
0.0105068
0.0105332
0.0105569
0.0105778
0.0105961
0.0106116
0.0106242
0.0106341
0.0106412
0.0106454
0.0106468
0.0106454
0.0106411
0.00848862
0.00853126
0.00857001
0.00860687
0.00864204
0.00867532
0.00870662
0.00873593
0.00876322
0.00878848
0.00881168
0.0088328
0.00885182
0.00886872
0.00888349
0.00889612
0.0089066
0.00891491
0.00892104
0.00892501
0.00642781
0.00644902
0.00647071
0.0064912
0.00651031
0.00652815
0.00654478
0.00656019
0.00657437
0.00658731
0.00659902
0.0066095
0.00661874
0.00662675
0.00663353
0.00663908
0.00664341
0.00664651
0.0066484
0.00664906
0.00531289
0.00533508
0.00535506
0.00537406
0.0053922
0.00540937
0.00542554
0.00544071
0.00545486
0.00546801
0.00548015
0.00549128
0.00550139
0.00551048
0.00551855
0.0055256
0.00553164
0.00553665
0.00554064
0.00554362
0.00405715
0.00407047
0.00408414
0.00409714
0.00410935
0.00412086
0.00413169
0.00414185
0.00415133
0.00416012
0.00416824
0.00417567
0.00418242
0.00418849
0.00419389
0.0041986
0.00420264
0.00420601
0.0042087
0.00421072
0.00335217
0.00336559
0.00337768
0.00338921
0.00340026
0.00341075
0.00342068
0.00343003
0.00343882
0.00344704
0.00345469
0.00346176
0.00346827
0.00347421
0.00347957
0.00348437
0.00348859
0.00349225
0.00349533
0.00349784
0.00257265
0.00258146
0.00259052
0.00259917
0.00260735
0.0026151
0.00262245
0.00262938
0.00263591
0.00264202
0.00264772
0.00265301
0.00265789
0.00266235
0.00266641
0.00267005
0.00267328
0.0026761
0.00267851
0.00268051
0.00213241
0.002141
0.00214875
0.00215615
0.00216327
0.00217006
0.0021765
0.00218259
0.00218834
0.00219374
0.0021988
0.00220352
0.00220788
0.0022119
0.00221558
0.00221891
0.00222189
0.00222453
0.00222681
0.00222876
0.00164689
0.00165279
0.00165886
0.00166467
0.00167018
0.00167543
0.00168042
0.00168515
0.00168963
0.00169384
0.00169779
0.00170149
0.00170492
0.00170809
0.001711
0.00171366
0.00171605
0.00171818
0.00172005
0.00172166
0.00137907
0.00138472
0.00138982
0.00139471
0.00139941
0.00140391
0.00140818
0.00141224
0.00141607
0.00141969
0.00142309
0.00142627
0.00142924
0.00143198
0.0014345
0.0014368
0.00143888
0.00144074
0.00144238
0.0014438
0.00108089
0.0010849
0.00108904
0.00109301
0.00109678
0.00110038
0.00110381
0.00110708
0.00111017
0.00111309
0.00111584
0.00111843
0.00112084
0.00112308
0.00112515
0.00112704
0.00112877
0.00113032
0.00113171
0.00113292
0.000927307
0.000931167
0.000934654
0.000937997
0.000941221
0.000944305
0.000947243
0.000950035
0.000952683
0.000955185
0.000957541
0.000959751
0.000961814
0.000963732
0.000965502
0.000967126
0.000968603
0.000969932
0.000971115
0.000972149
0.000753472
0.000756318
0.000759268
0.0007621
0.000764793
0.000767367
0.000769825
0.000772168
0.000774393
0.000776501
0.000778491
0.000780362
0.000782116
0.000783751
0.000785267
0.000786663
0.000787941
0.000789099
0.000790137
0.000791055
0.000678497
0.000681357
0.000683943
0.000686425
0.00068882
0.000691114
0.0006933
0.000695381
0.000697356
0.000699224
0.000700986
0.000702642
0.00070419
0.000705632
0.000706966
0.000708193
0.000709312
0.000710324
0.000711227
0.000712023
0.000590271
0.000592803
0.000595355
0.000597804
0.000600135
0.000602361
0.000604484
0.000606504
0.00060842
0.000610233
0.000611941
0.000613546
0.000615047
0.000616444
0.000617737
0.000618925
0.000620009
0.000620989
0.000621864
0.000622635
0.000578827
0.000581116
0.000583285
0.000585377
0.000587393
0.00058933
0.000591186
0.00059296
0.000594652
0.000596261
0.000597787
0.000599229
0.000600587
0.00060186
0.000603048
0.000604151
0.000605168
0.000606099
0.000606943
0.000607701
0.0136145
0.0218173
0.02569
0.0281996
0.0300497
0.0314022
0.0323634
0.0330131
0.0334112
0.033606
0.0336389
0.0335458
0.0333592
0.0331091
0.0328238
0.0325308
0.0322576
0.0320328
0.0318885
0.0318479
0.0106799
0.0178694
0.0225115
0.0257906
0.0281539
0.0298547
0.0310692
0.0319145
0.0324722
0.0328037
0.032958
0.0329756
0.0328918
0.0327379
0.0325421
0.0323309
0.0321287
0.0319585
0.0318447
0.0318062
0.0113181
0.0171636
0.0214971
0.0247884
0.0272315
0.0290271
0.0303336
0.031263
0.0318969
0.0322981
0.0325169
0.0325949
0.0325677
0.0324667
0.0323195
0.0321509
0.0319832
0.0318361
0.0317268
0.0316674
0.0130467
0.0177587
0.0215003
0.0245096
0.0268314
0.028589
0.0298982
0.0308491
0.031513
0.0319476
0.0322004
0.0323118
0.0323164
0.0322445
0.0321228
0.0319745
0.0318201
0.0316769
0.0315556
0.031459
0.0146944
0.0185763
0.0217915
0.0244882
0.0266393
0.0283134
0.0295893
0.0305351
0.0312094
0.0316621
0.0319366
0.0320702
0.0320957
0.0320421
0.0319347
0.0317954
0.0316431
0.0314939
0.0313525
0.0312122
0.0161092
0.0193845
0.0221704
0.0245784
0.0265529
0.0281276
0.029354
0.0302813
0.0309553
0.0314182
0.0317075
0.031857
0.0318972
0.0318551
0.0317547
0.0316166
0.031459
0.0312969
0.031131
0.0309469
0.017294
0.02011
0.0225481
0.0247029
0.0265109
0.0279845
0.0291557
0.0300584
0.0307273
0.0311964
0.0314975
0.0316603
0.0317122
0.0316782
0.0315807
0.0314393
0.0312716
0.0310927
0.0309005
0.0306751
0.0182728
0.0207271
0.0228818
0.0248188
0.0264761
0.0278535
0.0289692
0.0298454
0.0305074
0.0309815
0.0312937
0.0314693
0.0315324
0.0315057
0.0314097
0.0312632
0.0310833
0.0308858
0.0306668
0.0304027
0.0190792
0.0212399
0.02316
0.0249098
0.0264323
0.0277203
0.0287823
0.0296318
0.0302861
0.0307647
0.0310882
0.0312773
0.0313526
0.031334
0.0312401
0.0310884
0.0308959
0.0306791
0.0304333
0.0301319
0.0197452
0.0216622
0.0233849
0.0249727
0.0263749
0.0275802
0.0285908
0.0294137
0.0300596
0.0305424
0.0308775
0.0310813
0.0311703
0.0311616
0.0310715
0.0309159
0.0307115
0.0304754
0.0302023
0.029863
0.0202967
0.0220084
0.0235628
0.0250094
0.0263038
0.0274328
0.0283944
0.0291907
0.0298277
0.0303143
0.0306612
0.0308805
0.0309853
0.0309889
0.0309052
0.0307479
0.030533
0.030278
0.0299762
0.0295956
0.0207544
0.0222913
0.0237008
0.0250236
0.026221
0.0272796
0.0281945
0.0289646
0.029592
0.0300818
0.0304405
0.0306765
0.0307989
0.0308179
0.0307438
0.0305881
0.0303648
0.0300913
0.0297585
0.0293301
0.0211342
0.0225215
0.0238052
0.0250188
0.0261291
0.0271227
0.0279933
0.0287376
0.0293551
0.0298474
0.0302181
0.0304718
0.0306142
0.0306519
0.0305919
0.0304419
0.0302135
0.0299225
0.0295553
0.0290685
0.021449
0.0227072
0.0238812
0.0249982
0.02603
0.0269638
0.0277928
0.0285121
0.0291194
0.0296141
0.0299969
0.0302697
0.030435
0.0304957
0.0304551
0.0303167
0.0300883
0.0297822
0.0293764
0.0288158
0.0217091
0.0228552
0.0239328
0.0249642
0.0259252
0.0268043
0.0275943
0.0282899
0.0288873
0.0293844
0.02978
0.0300737
0.0302653
0.0303545
0.0303406
0.0302223
0.0300021
0.0296866
0.029239
0.0285827
0.0219235
0.0229716
0.0239642
0.0249193
0.0258166
0.0266458
0.0273998
0.0280731
0.0286614
0.0291615
0.0295711
0.029888
0.0301101
0.0302345
0.0302567
0.0301704
0.0299716
0.0296585
0.0291694
0.0283893
0.0220995
0.0230611
0.0239782
0.0248651
0.0257051
0.0264888
0.0272099
0.0278628
0.0284431
0.0289473
0.0293725
0.0297156
0.0299734
0.0301412
0.0302118
0.0301739
0.0300168
0.0297276
0.0292058
0.0282746
0.0222358
0.0231185
0.0239662
0.0247906
0.0255779
0.0263197
0.0270104
0.0276449
0.028219
0.0287293
0.0291731
0.0295474
0.0298491
0.0300734
0.0302121
0.0302511
0.0301748
0.0299566
0.0294439
0.0283717
0.0223276
0.0231346
0.0239154
0.0246801
0.0254169
0.0261187
0.0267804
0.0273975
0.0279667
0.0284851
0.0289509
0.0293627
0.0297192
0.0300184
0.0302556
0.0304214
0.0305039
0.0304702
0.030129
0.0291391
0.0224298
0.0231822
0.0239111
0.024628
0.0253242
0.0259929
0.0266296
0.0272306
0.027793
0.0283151
0.0287962
0.0292366
0.0296381
0.030003
0.030334
0.0306344
0.0309104
0.0311491
0.0312202
0.0309337
0.000304689
0.000899017
0.00149477
0.00209771
0.00271315
0.0033476
0.00400825
0.00470342
0.00544297
0.00623895
0.00710637
0.00806405
0.00913536
0.0103493
0.0117427
0.0133649
0.0152716
0.017493
0.0200074
0.0227554
0.000358154
0.00105552
0.00175277
0.00245617
0.00317097
0.00390327
0.00465967
0.00544735
0.00627409
0.00714839
0.00807943
0.00907697
0.0101512
0.0113127
0.012571
0.0139334
0.0154025
0.0169776
0.0186572
0.0204341
0.000373736
0.00110008
0.00182201
0.00254488
0.00327193
0.00400695
0.00475377
0.00551603
0.00629721
0.00710047
0.00792855
0.00878351
0.0096663
0.0105761
0.0115097
0.0124599
0.0134146
0.0143565
0.0152604
0.0160842
0.00034798
0.00102486
0.00169619
0.00236608
0.00303608
0.00370803
0.00438379
0.00506492
0.00575261
0.00644754
0.00714981
0.00785883
0.00857322
0.00929064
0.0100077
0.01072
0.0114216
0.0121033
0.0127507
0.0133564
0.000308543
0.000909417
0.00150312
0.0020922
0.0026766
0.00325644
0.00383189
0.00440289
0.004969
0.00552933
0.00608245
0.0066263
0.00715802
0.00767392
0.00816942
0.00863906
0.00907657
0.00947554
0.00983037
0.0101309
0.000261591
0.000771721
0.00127554
0.00177492
0.00226929
0.00275813
0.003241
0.00371731
0.00418624
0.00464674
0.00509749
0.00553695
0.00596329
0.00637439
0.00676783
0.00714083
0.00749004
0.00781071
0.00809641
0.00834609
0.000215427
0.000636066
0.00105091
0.00146094
0.00186505
0.0022622
0.00265145
0.00303185
0.00340229
0.00376155
0.00410825
0.00444083
0.00475757
0.00505658
0.0053359
0.00559341
0.00582697
0.00603485
0.00621626
0.00636821
0.000175872
0.000519842
0.000859187
0.00119474
0.00152556
0.00185065
0.00216917
0.00248025
0.00278298
0.00307639
0.00335946
0.00363112
0.00389025
0.00413564
0.00436601
0.00457997
0.004776
0.00495209
0.00510574
0.00523774
0.000140041
0.000414142
0.000684497
0.000951522
0.00121421
0.00147153
0.0017226
0.00196655
0.00220252
0.00242961
0.00264692
0.00285354
0.00304854
0.00323104
0.00340014
0.003555
0.00369482
0.00381914
0.00392799
0.00401996
0.000113082
0.000334878
0.000553766
0.000770152
0.000983289
0.00119237
0.0013967
0.00159559
0.00178836
0.00197433
0.00215282
0.00232314
0.00248462
0.00263656
0.00277824
0.00290895
0.00302796
0.0031343
0.00322688
0.00330662
8.87852e-05
0.000262949
0.000434885
0.000604788
0.000771962
0.000935675
0.00109529
0.0012502
0.0013998
0.00154353
0.00168081
0.00181109
0.00193387
0.00204864
0.00215496
0.00225241
0.0023406
0.00241938
0.00248882
0.00254807
7.18961e-05
0.000213305
0.000352981
0.000491118
0.000627223
0.000760742
0.000891183
0.00101807
0.00114096
0.00125938
0.00137288
0.00148104
0.00158342
0.0016796
0.00176914
0.00185165
0.00192673
0.00199385
0.00205243
0.00210323
5.62969e-05
0.000166989
0.000276392
0.000384582
0.000491113
0.000595511
0.000697352
0.000796239
0.000891783
0.000983612
0.00107137
0.00115471
0.00123333
0.00130692
0.00137522
0.00143798
0.00149499
0.00154615
0.0015915
0.00163052
4.6185e-05
0.000137304
0.000227408
0.000316561
0.00040445
0.000490713
0.00057502
0.000657057
0.000736517
0.000813099
0.000886508
0.00095646
0.00102267
0.00108488
0.00114281
0.00119621
0.00124486
0.00128842
0.00132657
0.00135984
3.65045e-05
0.0001085
0.000179758
0.000250268
0.000319746
0.00038789
0.000454425
0.000519087
0.000581624
0.000641792
0.00069936
0.000754109
0.000805834
0.000854346
0.000899472
0.000941052
0.000978945
0.00101307
0.00104344
0.00106981
3.08115e-05
9.18317e-05
0.000152259
0.000212066
0.000271046
0.000328961
0.000385586
0.000440707
0.000494112
0.000545597
0.000594963
0.000642015
0.000686566
0.000728434
0.000767445
0.000803441
0.000836267
0.000865716
0.000891558
0.00091419
2.51561e-05
7.49792e-05
0.000124379
0.000173279
0.000221487
0.000268803
0.000315039
0.000360013
0.000403548
0.000445477
0.000485637
0.000523875
0.000560044
0.000594012
0.000625653
0.000654853
0.000681499
0.000705503
0.000726885
0.000745718
2.22782e-05
6.66164e-05
0.000110608
0.000154157
0.000197117
0.000239324
0.000280616
0.000320836
0.000359833
0.000397458
0.000433566
0.000468019
0.00050068
0.000531418
0.000560108
0.000586629
0.000610862
0.000632662
0.000651883
0.000668773
1.92813e-05
5.7681e-05
9.58497e-05
0.000133639
0.000170901
0.000207492
0.000243271
0.000278101
0.000311853
0.000344401
0.00037563
0.00040543
0.000433702
0.000460358
0.000485317
0.000508512
0.000529881
0.000549398
0.000567129
0.000582982
1.90815e-05
5.71845e-05
9.50503e-05
0.000132536
0.000169499
0.000205796
0.000241284
0.000275824
0.000309279
0.000341519
0.000372415
0.000401845
0.000429692
0.000455844
0.000480194
0.000502643
0.000523097
0.00054146
0.000557599
0.000571491
0.000139434
0.000391116
0.000652986
0.000898428
0.00113828
0.00136132
0.00156712
0.00174784
0.00189691
0.00200332
0.00205292
0.00202362
0.00188491
0.00158249
0.00105389
0.000103327
-0.00140041
-0.00441753
-0.0044251
-0.0257528
0.000146492
0.000407119
0.000681672
0.000938359
0.0011915
0.00142856
0.00165052
0.00184972
0.00202072
0.00215359
0.00223604
0.00224846
0.00216506
0.00193706
0.00151737
0.000726938
-0.000443407
-0.00302268
-0.00201453
-0.0198134
0.000153458
0.000423345
0.000710501
0.000978626
0.0012451
0.00149634
0.00173459
0.00195249
0.00214568
0.00230537
0.00242116
0.00247602
0.00244881
0.00229686
0.00198794
0.00136255
0.000508926
-0.00158195
0.000174591
-0.0134189
0.000160375
0.000439746
0.000739462
0.00101918
0.00129903
0.00156457
0.00181923
0.002056
0.00227158
0.0024584
0.00260789
0.00270572
0.00273528
0.00266032
0.00246268
0.00200384
0.00144871
-0.000145954
0.00217327
-0.00762803
0.000167253
0.000456295
0.000768528
0.00105997
0.00135321
0.00163318
0.00190433
0.0021601
0.00239824
0.00261237
0.00279584
0.00293696
0.00302359
0.00302597
0.00293905
0.00264563
0.00236927
0.00125521
0.00399638
-0.0026825
0.0001741
0.000472966
0.000797674
0.00110095
0.0014076
0.00170207
0.00198976
0.00226463
0.00252542
0.00276701
0.00298459
0.00316915
0.00331283
0.00339238
0.0034146
0.00328325
0.00326458
0.00260103
0.00564919
0.00144551
0.000180921
0.000489736
0.000826869
0.00114207
0.00146213
0.00177116
0.00207543
0.00236943
0.00265292
0.00292202
0.00317372
0.0034017
0.00360214
0.00375816
0.0038871
0.00391268
0.00413006
0.00387882
0.00714039
0.00485476
0.000187719
0.000506582
0.000856084
0.00118329
0.00151673
0.00184035
0.0021612
0.00247436
0.00278053
0.0030771
0.00336284
0.00363402
0.00389067
0.00412202
0.00435457
0.00453056
0.00496246
0.00508181
0.00848198
0.0076601
0.000194496
0.000523484
0.000885288
0.00122456
0.00157134
0.00190957
0.00224696
0.00257924
0.00290804
0.00323196
0.00355154
0.00386555
0.00417763
0.00448277
0.00481525
0.00513415
0.00575962
0.00620725
0.00968726
0.00996977
0.000201257
0.000540418
0.000914451
0.00126583
0.0016259
0.00197872
0.00233259
0.00268393
0.00303523
0.00338633
0.00373944
0.00409575
0.00446225
0.00483929
0.0052676
0.00572126
0.00652027
0.00725525
0.0107694
0.0118764
0.000208003
0.000557367
0.00094354
0.00130705
0.00168033
0.00204772
0.00241799
0.00278827
0.00316189
0.00353992
0.00392615
0.00432409
0.0047438
0.0051906
0.00571033
0.00629021
0.0072439
0.00822775
0.0117412
0.0134557
0.000214737
0.000574309
0.00097252
0.00134818
0.00173459
0.00211648
0.00250302
0.0028921
0.00328783
0.00369247
0.0041113
0.00455008
0.00502164
0.0055358
0.00614233
0.00683978
0.00793062
0.00912797
0.0126143
0.0147691
0.000221458
0.00059123
0.00100136
0.00138918
0.0017886
0.00218491
0.00258759
0.00299528
0.00341286
0.0038437
0.00429455
0.00477325
0.00529514
0.00587408
0.00656271
0.00736907
0.00858093
0.00995985
0.0133994
0.0158654
0.000228161
0.000608124
0.00103003
0.00143001
0.00184232
0.00225295
0.00267161
0.0030977
0.00353679
0.00399338
0.00447558
0.00499314
0.0055637
0.00620469
0.00697058
0.00787736
0.00919549
0.0107275
0.0141061
0.0167838
0.00023485
0.000624975
0.00105852
0.00147064
0.00189571
0.00232054
0.00275499
0.00319921
0.00365947
0.00414129
0.00465406
0.00520933
0.00582675
0.00652688
0.00736519
0.0083641
0.0097751
0.0114352
0.0147431
0.0175559
0.000241609
0.000641708
0.00108675
0.00151096
0.00194864
0.00238752
0.00283753
0.00329961
0.00378062
0.0042871
0.00482963
0.00542142
0.00608389
0.00684032
0.00774643
0.00882968
0.0103218
0.0120878
0.0153191
0.0182073
0.000248585
0.000658185
0.00111458
0.00155077
0.00200083
0.00245354
0.00291884
0.00339843
0.00389976
0.00443035
0.00500188
0.00562915
0.00633516
0.00714556
0.00811571
0.00927677
0.0108403
0.0126937
0.0158442
0.0187595
0.000255586
0.000674544
0.00114189
0.00159005
0.00205222
0.00251853
0.00299881
0.00349555
0.00401675
0.00457086
0.00517065
0.00583241
0.00658061
0.007443
0.00847396
0.00970751
0.0113344
0.0132609
0.0163259
0.01923
0.000261287
0.000691866
0.00116913
0.0016298
0.00210395
0.0025839
0.00307901
0.00359265
0.0041332
0.00470998
0.00533663
0.00603076
0.00681791
0.0077277
0.00881266
0.0101104
0.0117883
0.013778
0.0167535
0.0196301
0.000264309
0.000711341
0.00119766
0.00167187
0.0021584
0.00265247
0.00316263
0.00369307
0.00425233
0.00485024
0.00550084
0.00622237
0.00704058
0.00798615
0.00910913
0.0104519
0.0121594
0.0141966
0.0170949
0.0199637
-3.00236e-05
-8.22391e-05
-0.00014077
-0.000204859
-0.000277355
-0.00036012
-0.000454695
-0.000562096
-0.000682475
-0.000814797
-0.000956258
-0.00110163
-0.00124279
-0.0013697
-0.00147504
-0.00156566
-0.00167315
-0.00181421
-0.00193088
-0.00239312
-2.97229e-05
-8.1644e-05
-0.000140294
-0.000205582
-0.000280734
-0.000368179
-0.000470065
-0.000588138
-0.000723394
-0.000875775
-0.00104355
-0.00122248
-0.00140498
-0.00158034
-0.00173833
-0.00188066
-0.0020365
-0.00222674
-0.00239086
-0.00266986
-2.89523e-05
-7.94998e-05
-0.000137298
-0.00020284
-0.000279778
-0.000371157
-0.000479793
-0.000608258
-0.000758521
-0.000931695
-0.00112741
-0.00134284
-0.00157148
-0.00180258
-0.00202318
-0.00222804
-0.0024392
-0.00267994
-0.0028853
-0.00314306
-2.75872e-05
-7.56033e-05
-0.000131391
-0.000196065
-0.000273709
-0.000368031
-0.000482568
-0.000620803
-0.000785803
-0.000980036
-0.00120475
-0.00145896
-0.0017378
-0.00203116
-0.0023236
-0.00260122
-0.00287418
-0.00316721
-0.00341068
-0.00365003
-2.55305e-05
-6.97284e-05
-0.000122172
-0.000184666
-0.000261713
-0.000357716
-0.000476979
-0.000623972
-0.000802972
-0.00101797
-0.00127212
-0.00156662
-0.00189888
-0.00226019
-0.0026332
-0.00299421
-0.00333721
-0.00368609
-0.00397025
-0.00420662
-2.26992e-05
-6.1642e-05
-0.00010924
-0.000168045
-0.000242957
-0.000339094
-0.000461558
-0.000615863
-0.000807599
-0.00104244
-0.00132568
-0.00166113
-0.00204907
-0.00248314
-0.00294507
-0.00340127
-0.00382602
-0.00423726
-0.00456922
-0.00481849
-1.90138e-05
-5.11162e-05
-9.2201e-05
-0.000145611
-0.00021661
-0.000311037
-0.000434799
-0.000594502
-0.000797124
-0.00105017
-0.0013613
-0.00173734
-0.00218212
-0.00269278
-0.00325167
-0.00381633
-0.00433881
-0.00482329
-0.00521388
-0.00549024
-1.43995e-05
-3.79343e-05
-7.06776e-05
-0.000116794
-0.000181865
-0.000272433
-0.000395202
-0.000557885
-0.000768906
-0.00103772
-0.00137457
-0.00178968
-0.00229116
-0.00288104
-0.00354441
-0.00423213
-0.00487308
-0.00544823
-0.00591127
-0.0062317
-8.78766e-06
-2.18982e-05
-4.43234e-05
-8.10686e-05
-0.000137964
-0.000222223
-0.000341307
-0.000504029
-0.000720275
-0.00100153
-0.00136082
-0.00181212
-0.0023686
-0.0030388
-0.00381324
-0.00463931
-0.00542433
-0.00611733
-0.0066689
-0.00705943
-2.11863e-06
-2.83519e-06
-1.28346e-05
-3.7966e-05
-8.42231e-05
-0.000159434
-0.000271747
-0.000431029
-0.000648605
-0.00093803
-0.00131523
-0.00179824
-0.00240612
-0.00315573
-0.00404608
-0.00502535
-0.00598481
-0.00683687
-0.00749405
-0.00799885
5.65568e-06
1.93943e-05
2.40359e-05
1.28998e-05
-2.00656e-05
-8.32215e-05
-0.000185302
-0.000337133
-0.000551404
-0.000843698
-0.00123288
-0.0017413
-0.00239466
-0.00322006
-0.00422816
-0.0053735
-0.0065423
-0.00761464
-0.00839173
-0.00908723
1.45689e-05
4.48889e-05
6.6465e-05
7.18127e-05
5.49497e-05
7.0851e-06
-8.09586e-05
-0.000220827
-0.000426423
-0.000715228
-0.00110896
-0.00163438
-0.00232453
-0.00321842
-0.0043415
-0.00566167
-0.00707823
-0.0084554
-0.0093642
-0.0103754
2.46377e-05
7.36992e-05
0.000114546
0.000138933
0.000141095
0.000111938
4.20214e-05
-8.09256e-05