/*--------------------------------*- C++ -*----------------------------------*\
| =========                 |                                                 |
| \\      /  F ield         | OpenFOAM: The Open Source CFD Toolbox           |
|  \\    /   O peration     | Version:  v1806                                 |
|   \\  /    A nd           | Web:      www.OpenFOAM.com                      |
|    \\/     M anipulation  |                                                 |
\*---------------------------------------------------------------------------*/
FoamFile
{
    version     2.0;
    format      ascii;
    class       surfaceScalarField;
    location    "440";
    object      phi;
}
// * * * * * * * * * * * * * * * * * * * * * * * * * * * * * * * * * * * * * //

dimensions      [0 3 -1 0 0 0 0];
oriented        oriented;


internalField   nonuniform List<scalar> 
8600
(
0.05322
-0.0761245
-0.0536192
0.0765237
0.0418898
-0.0828295
0.0941597
0.0307616
-0.0863051
0.0974332
0.0238568
-0.0895155
0.0964203
0.019863
-0.0913628
0.0953566
0.0172398
-0.0921401
0.0947634
0.0152923
-0.0923492
0.0942967
0.0137529
-0.0922448
0.0937841
0.0124969
-0.0919561
0.0932121
0.0114544
-0.0915557
0.0925982
0.0105814
-0.0910855
0.0919585
0.00984766
-0.0905709
0.0913047
0.00923126
-0.0900288
0.0906452
0.00871579
-0.0894707
0.0899861
0.00828896
-0.0889041
0.089331
0.00794152
-0.0883341
0.0886816
0.00766641
-0.0877637
0.0880388
0.00745791
-0.0871965
0.087405
0.00730996
-0.0866472
0.0867951
-0.0861917
0.0862916
0.0293693
-0.0684207
-0.0370731
0.0244393
-0.0778995
0.0221984
-0.0840642
0.0202786
-0.0875956
0.018308
-0.0893922
0.0164405
-0.0902726
0.0147877
-0.0906964
0.0133823
-0.0908394
0.0122039
-0.0907776
0.0112147
-0.0905665
0.0103808
-0.0902516
0.00967626
-0.0898664
0.00908199
-0.0894346
0.00858366
-0.0889723
0.00817039
-0.0884909
0.00783388
-0.0879976
0.00756781
-0.0874976
0.00736714
-0.0869958
0.00722649
-0.0865065
-0.0860973
0.0268124
-0.0692184
-0.0260147
0.025674
-0.0767611
0.0230138
-0.0814039
0.0200622
-0.0846441
0.0175599
-0.0868899
0.015616
-0.0883287
0.0140815
-0.0891619
0.0128205
-0.0895785
0.0117576
-0.0897148
0.0108524
-0.0896613
0.0100793
-0.0894784
0.00941946
-0.0892066
0.00885885
-0.088874
0.0083863
-0.0884998
0.0079931
-0.0880977
0.00767241
-0.0876769
0.00741894
-0.0872441
0.00722842
-0.0868053
0.00709594
-0.0863741
-0.0860106
0.0188364
-0.0706499
-0.0174049
0.0183162
-0.076241
0.0174263
-0.0805139
0.0164547
-0.0836726
0.0153809
-0.0858161
0.0142474
-0.0871951
0.0131384
-0.0880529
0.0121132
-0.0885533
0.0111969
-0.0887985
0.0103923
-0.0888567
0.00969231
-0.0887784
0.00908751
-0.0886018
0.0085689
-0.0883554
0.00812881
-0.0880597
0.00776087
-0.0877297
0.00745994
-0.087376
0.00722194
-0.0870061
0.00704345
-0.0866268
0.00692035
-0.086251
-0.0859319
0.0155772
-0.0730583
-0.0131688
0.0163471
-0.0770108
0.0161316
-0.0802985
0.0153053
-0.0828462
0.0142463
-0.0847571
0.0131881
-0.086137
0.0122146
-0.0870794
0.0113378
-0.0876765
0.0105522
-0.0880129
0.00985207
-0.0881565
0.00923282
-0.0881592
0.00869011
-0.0880591
0.00821949
-0.0878847
0.00781672
-0.0876569
0.00747794
-0.0873909
0.00719979
-0.0870979
0.00697947
-0.0867858
0.00681452
-0.0864618
0.00670162
-0.0861381
-0.0858612
0.0120119
-0.07509
-0.00998023
0.0128719
-0.0778708
0.0130282
-0.0804548
0.0128055
-0.0826236
0.0123623
-0.0843139
0.0117824
-0.0855571
0.011135
-0.086432
0.0104759
-0.0870174
0.00984147
-0.0873785
0.00925194
-0.087567
0.00871666
-0.0876239
0.008239
-0.0875814
0.00781934
-0.0874651
0.00745668
-0.0872943
0.00714947
-0.0870837
0.00689607
-0.0868444
0.0066949
-0.0865847
0.00654445
-0.0863114
0.00644221
-0.0860358
-0.0857984
0.00981816
-0.0769883
-0.00791988
0.0109321
-0.0789848
0.0114029
-0.0809255
0.0114043
-0.082625
0.0111113
-0.0840208
0.0106638
-0.0851096
0.0101508
-0.085919
0.00962198
-0.0864885
0.00910415
-0.0868606
0.00861293
-0.0870758
0.00815789
-0.0871688
0.00774477
-0.0871683
0.00737673
-0.087097
0.00705525
-0.0869728
0.00678074
-0.0868092
0.00655309
-0.0866168
0.00637187
-0.0864034
0.00623642
-0.0861759
0.00614497
-0.0859444
-0.0857433
0.00795077
-0.0785523
-0.00638678
0.00895802
-0.079992
0.0094982
-0.0814657
0.00969191
-0.0828187
0.00964242
-0.0839713
0.00942952
-0.0848967
0.00911283
-0.0856023
0.00873869
-0.0861144
0.00834187
-0.0864638
0.00794653
-0.0866805
0.00756843
-0.0867907
0.00721751
-0.0868174
0.00689984
-0.0867794
0.00661904
-0.086692
0.00637718
-0.0865674
0.0061754
-0.086415
0.00601426
-0.0862423
0.00589385
-0.0860555
0.00581306
-0.0858636
-0.0856956
0.00658159
-0.0799131
-0.00522078
0.00755494
-0.0809654
0.00815618
-0.0820669
0.00844559
-0.0831082
0.00849791
-0.0840236
0.00838581
-0.0847846
0.00816962
-0.0853861
0.00789291
-0.0858376
0.00758598
-0.0861569
0.00727003
-0.0863645
0.00695997
-0.0864807
0.00666624
-0.0865237
0.00639602
-0.0865092
0.00615419
-0.0864502
0.00594397
-0.0863571
0.00576745
-0.0862385
0.00562598
-0.0861008
0.00552027
-0.0859498
0.00544976
-0.0857931
-0.0856548
0.00545894
-0.0810441
-0.00432793
0.00630776
-0.0818142
0.00688038
-0.0826395
0.00721334
-0.0834411
0.00735379
-0.0841641
0.00734796
-0.0847788
0.00723703
-0.0852752
0.00705593
-0.0856565
0.00683258
-0.0859336
0.00658855
-0.0861205
0.00633987
-0.086232
0.00609817
-0.086282
0.00587171
-0.0862827
0.0056663
-0.0862447
0.00548598
-0.0861768
0.00533354
-0.0860861
0.0052109
-0.0859782
0.00511923
-0.0858581
0.00505845
-0.0857323
-0.0856203
0.00455531
-0.0820111
-0.00358829
0.00531503
-0.0825739
0.00585946
-0.083184
0.00620568
-0.0837873
0.00638438
-0.0843428
0.00643112
-0.0848255
0.00638028
-0.0852244
0.00626173
-0.085538
0.00609967
-0.0857715
0.00591291
-0.0859337
0.00571592
-0.086035
0.00551969
-0.0860857
0.00533245
-0.0860955
0.00516028
-0.0860726
0.00500762
-0.0860242
0.00487767
-0.0859561
0.00477269
-0.0858732
0.00469419
-0.0857796
0.00464245
-0.0856806
-0.0855915
0.0038017
-0.0828175
-0.00299536
0.00445283
-0.083225
0.004941
-0.0836721
0.00527471
-0.084121
0.00547301
-0.0845411
0.00555958
-0.0849121
0.00555869
-0.0852235
0.0054931
-0.0854724
0.00538281
-0.0856612
0.0052446
-0.0857955
0.00509189
-0.0858823
0.00493521
-0.085929
0.00478265
-0.0859429
0.00464033
-0.0859303
0.00451282
-0.0858967
0.00440349
-0.0858468
0.0043148
-0.0857845
0.00424845
-0.0857133
0.00420499
-0.0856371
-0.0855679
0.00315975
-0.0834969
-0.00248033
0.00372139
-0.0837867
0.00415588
-0.0841066
0.00446626
-0.0844314
0.0046645
-0.0847393
0.00476755
-0.0850151
0.00479419
-0.0852501
0.00476268
-0.0854409
0.00468948
-0.085588
0.00458868
-0.0856947
0.0044719
-0.0857655
0.00434853
-0.0858057
0.00422595
-0.0858203
0.00410995
-0.0858143
0.00400494
-0.0857916
0.00391426
-0.0857561
0.0038404
-0.0857107
0.00378511
-0.085658
0.00374911
-0.0856011
-0.0855488
0.00260626
-0.0840567
-0.00204649
0.00307668
-0.0842571
0.00344996
-0.0844799
0.00372656
-0.084708
0.00391365
-0.0849264
0.00402264
-0.0851241
0.00406692
-0.0852944
0.00406023
-0.0854342
0.00401558
-0.0855434
0.00394461
-0.0856237
0.00385728
-0.0856782
0.00376185
-0.0857102
0.00366498
-0.0857235
0.00357194
-0.0857212
0.00348685
-0.0857065
0.00341286
-0.0856821
0.00335234
-0.0856501
0.00330701
-0.0856126
0.00327769
-0.0855718
-0.0855336
0.00211477
-0.0845147
-0.00165676
0.00250468
-0.084647
0.00281952
-0.0847947
0.00305852
-0.084947
0.00322608
-0.085094
0.00333013
-0.0852282
0.00338056
-0.0853448
0.00338793
-0.0854416
0.00336249
-0.0855179
0.0033136
-0.0855748
0.00324943
-0.085614
0.00317692
-0.0856377
0.00310176
-0.0856483
0.00302855
-0.085648
0.00296095
-0.0856389
0.00290177
-0.0856229
0.00285319
-0.0856016
0.00281677
-0.0855762
0.00279337
-0.0855484
-0.085522
0.00167441
-0.0848769
-0.00131222
0.0019858
-0.0849584
0.00224097
-0.0850499
0.00243857
-0.0851446
0.0025811
-0.0852365
0.00267387
-0.0853209
0.00272384
-0.0853948
0.00273876
-0.0854565
0.00272638
-0.0855056
0.00269399
-0.0855424
0.00264812
-0.0855681
0.0025944
-0.085584
0.00253757
-0.0855915
0.00248146
-0.0855919
0.00242917
-0.0855866
0.00238313
-0.0855769
0.0023452
-0.0855636
0.00231675
-0.0855478
0.00229858
-0.0855302
-0.0855132
0.00126845
-0.0851528
-0.000992576
0.00150744
-0.0851974
0.0017051
-0.0852476
0.00186012
-0.0852997
0.00197401
-0.0853504
0.0020503
-0.0853972
0.00209392
-0.0854384
0.00211045
-0.085473
0.0021056
-0.0855007
0.00208481
-0.0855217
0.00205305
-0.0855364
0.00201464
-0.0855456
0.00197325
-0.0855501
0.00193192
-0.0855506
0.00189311
-0.0855478
0.00185876
-0.0855425
0.00183037
-0.0855352
0.00180907
-0.0855265
0.00179555
-0.0855167
-0.085507
0.000889857
-0.0853462
-0.000696457
0.0010585
-0.085366
0.00119888
-0.085388
0.00131003
-0.0854108
0.00139277
-0.0854331
0.00144934
-0.0854538
0.00148295
-0.085472
0.00149731
-0.0854874
0.00149632
-0.0854997
0.00148374
-0.0855091
0.00146305
-0.0855157
0.00143731
-0.0855199
0.00140917
-0.0855219
0.0013808
-0.0855222
0.00135401
-0.085521
0.00133021
-0.0855187
0.0013105
-0.0855155
0.00129569
-0.0855117
0.00128634
-0.0855074
-0.085503
0.000528285
-0.0854625
-0.000411928
0.000629104
-0.0854668
0.000713247
-0.0854721
0.000780168
-0.0854777
0.000830314
-0.0854833
0.000864942
-0.0854884
0.000885883
-0.085493
0.0008953
-0.0854968
0.00089547
-0.0854999
0.000888621
-0.0855022
0.000876812
-0.0855039
0.00086188
-0.0855049
0.000845406
-0.0855055
0.000828724
-0.0855055
0.000812923
-0.0855052
0.000798865
-0.0855047
0.000787209
-0.0855039
0.000778447
-0.0855029
0.000772913
-0.0855018
-0.0855007
0.000176251
-0.000138759
0.000209436
0.000237334
0.000259605
0.000276337
0.000287925
0.000294966
0.000298171
0.000298292
0.000296066
0.000292181
0.000287247
0.000281795
0.000276264
0.00027102
0.00026635
0.000262477
0.000259563
0.000257735
-0.0339041
-0.0067404
0.0406445
-0.0280571
-0.00584698
-0.0228326
-0.00522457
-0.0180765
-0.0047561
-0.0136812
-0.0043953
-0.00956155
-0.00411961
-0.00564655
-0.003915
-0.00187415
-0.0037724
0.00181179
-0.00368593
0.00546383
-0.00365205
0.00913299
-0.00366916
0.0128704
-0.00373746
0.0167294
-0.00385897
0.0207672
-0.00403775
0.0250476
-0.00428044
0.0296443
-0.00459672
0.0346456
-0.00500123
0.0401665
-0.00552094
0.0463784
-0.00621195
-0.00724072
-0.0207265
-0.00884215
0.0228283
-0.0181582
-0.00841529
-0.0153444
-0.00803838
-0.0123822
-0.00771829
-0.00932341
-0.00745413
-0.00619964
-0.00724337
-0.00303129
-0.00708335
0.000168044
-0.00697174
0.00338886
-0.00690675
0.00662405
-0.00688724
0.00986762
-0.00691273
0.0131136
-0.00698342
0.0163549
-0.00710026
0.0195821
-0.00726502
0.0227822
-0.00748052
0.0259365
-0.007751
0.029018
-0.00808276
0.0319825
-0.00848542
0.0347468
-0.0089762
-0.00956703
-0.0121881
-0.0101418
0.0134877
-0.0106653
-0.00993801
-0.00894992
-0.0097538
-0.00707622
-0.00959198
-0.0050758
-0.00945454
-0.00297612
-0.00934306
-0.000800679
-0.00925879
0.00143033
-0.00920275
0.00369928
-0.00917569
0.00599023
-0.00917818
0.00828815
-0.00921065
0.0105781
-0.00927341
0.0128446
-0.00936668
0.0150701
-0.00949056
0.0172347
-0.00964509
0.0193139
-0.00983019
0.0212769
-0.0100458
0.0230841
-0.0102926
0.0246808
-0.0105729
-0.0109009
-0.00701007
-0.0111743
0.00804259
-0.00589262
-0.0110555
-0.00469883
-0.0109476
-0.00343795
-0.0108529
-0.00211949
-0.010773
-0.000753189
-0.0107094
0.000650916
-0.0106629
0.00208257
-0.0106344
0.00353133
-0.0106245
0.00498659
-0.0106334
0.00643757
-0.0106616
0.00787334
-0.0107092
0.0092828
-0.0107761
0.0106547
-0.0108624
0.0119775
-0.0109679
0.0132396
-0.0110923
0.0144291
-0.0112353
0.0155332
-0.0113966
0.0165366
-0.0115763
-0.0117692
-0.00445913
-0.0119481
0.00523286
-0.0036325
-0.0118821
-0.00275644
-0.0118237
-0.00183575
-0.0117736
-0.000876227
-0.0117325
0.000115683
-0.0117013
0.00113308
-0.0116803
0.00216878
-0.0116701
0.00321537
-0.011671
0.00426529
-0.0116834
0.00531081
-0.0117072
0.00634409
-0.0117425
0.0073571
-0.0117891
0.00834165
-0.011847
0.00928933
-0.0119156
0.0101915
-0.0119945
0.0110393
-0.0120831
0.0118235
-0.0121809
0.0125343
-0.0122871
-0.0124037
-0.00284605
-0.0125674
0.00346541
-0.00220144
-0.0125267
-0.00153402
-0.0124911
-0.000846527
-0.012461
-0.000141966
-0.0124371
0.000576402
-0.0124196
0.0013051
-0.012409
0.00204045
-0.0124055
0.00277863
-0.0124092
0.00351572
-0.0124204
0.00424774
-0.0124392
0.00497067
-0.0124654
0.00568058
-0.0124991
0.00637358
-0.01254
0.00704597
-0.012588
0.00769425
-0.0126428
0.00831513
-0.012704
0.00890556
-0.0127713
0.00946274
-0.0128443
-0.0129212
-0.00188318
-0.0130536
0.00236932
-0.0013809
-0.013029
-0.000863898
-0.0130081
-0.000333881
-0.0129911
0.000207187
-0.0129782
0.000757123
-0.0129696
0.00131355
-0.0129654
0.00187395
-0.0129659
0.00243567
-0.0129709
0.00299598
-0.0129808
0.00355208
-0.0129953
0.00410117
-0.0130145
0.00464043
-0.0130383
0.00516707
-0.0130666
0.00567837
-0.0130993
0.00617171
-0.0131361
0.00664457
-0.0131769
0.00709462
-0.0132214
0.00751963
-0.0132693
-0.0133214
-0.00129793
-0.0134481
0.0016925
-0.000894511
-0.0134324
-0.000483328
-0.0134193
-6.55579e-05
-0.0134088
0.000357546
-0.0134013
0.000784661
-0.0133967
0.0012144
-0.0133952
0.00164535
-0.0133968
0.00207602
-0.0134016
0.00250494
-0.0134097
0.00293062
-0.013421
0.00335158
-0.0134354
0.00376637
-0.0134531
0.00417359
-0.0134738
0.00457189
-0.0134976
0.00496002
-0.0135242
0.00533677
-0.0135536
0.00570103
-0.0135856
0.00605178
-0.0136201
-0.0136564
-0.000892938
-0.0137673
0.00121211
-0.00056806
-0.0137573
-0.00023819
-0.0137491
9.58887e-05
-0.0137429
0.000433326
-0.0137387
0.000773212
-0.0137366
0.00111458
-0.0137365
0.00145644
-0.0137386
0.00179774
-0.0137429
0.00213742
-0.0137494
0.00247443
-0.013758
0.00280769
-0.0137687
0.00313615
-0.0137816
0.00345878
-0.0137965
0.00377457
-0.0138134
0.00408259
-0.0138322
0.00438193
-0.013853
0.00467178
-0.0138755
0.00495137
-0.0138997
-0.0139258
-0.000649514
-0.0140302
0.000912435
-0.00038312
-0.0140237
-0.000113786
-0.0140185
0.00015793
-0.0140146
0.000431445
-0.0140122
0.000706154
-0.0140113
0.000981439
-0.0140118
0.00125667
-0.0140139
0.0015312
-0.0140175
0.00180439
-0.0140226
0.0020756
-0.0140292
0.0023442
-0.0140373
0.00260956
-0.0140469
0.00287108
-0.014058
0.00312817
-0.0140705
0.00338028
-0.0140844
0.00362686
-0.0140995
0.00386739
-0.014116
0.00410139
-0.0141337
-0.0141524
-0.000464322
-0.0142465
0.000680562
-0.000245825
-0.0142422
-2.54425e-05
-0.0142388
0.000196432
-0.0142365
0.000419386
-0.0142352
0.000642989
-0.0142349
0.000866796
-0.0142356
0.00109035
-0.0142374
0.0013132
-0.0142403
0.00153486
-0.0142442
0.00175487
-0.0142492
0.00197277
-0.0142552
0.0021881
-0.0142622
0.00240041
-0.0142703
0.00260927
-0.0142793
0.00281426
-0.0142893
0.00301499
-0.0143003
0.00321108
-0.0143121
0.0034022
-0.0143248
-0.0143385
-0.000350011
-0.0144256
0.000529194
-0.000169347
-0.0144228
1.25204e-05
-0.0144207
0.000195302
-0.0144193
0.000378703
-0.0144186
0.000562418
-0.0144186
0.000746141
-0.0144194
0.00092956
-0.0144209
0.00111236
-0.0144231
0.00129423
-0.0144261
0.00147485
-0.0144298
0.00165392
-0.0144343
0.00183113
-0.0144395
0.00200618
-0.0144454
0.00217879
-0.0144519
0.00234866
-0.0144592
0.00251554
-0.0144671
0.00267914
-0.0144757
0.00283922
-0.0144849
-0.0144946
-0.000258173
-0.0145732
0.000405719
-0.000109654
-0.0145714
3.9634e-05
-0.01457
0.000189482
-0.0145691
0.000339672
-0.0145688
0.000489983
-0.0145689
0.000640189
-0.0145696
0.000790059
-0.0145707
0.000939363
-0.0145724
0.00108787
-0.0145746
0.00123535
-0.0145773
0.00138156
-0.0145805
0.0015263
-0.0145842
0.00166933
-0.0145884
0.00181044
-0.0145931
0.00194943
-0.0145982
0.00208608
-0.0146038
0.00222022
-0.0146098
0.00235167
-0.0146163
-0.0146233
-0.000197911
-0.0146943
0.000318974
-7.61812e-05
-0.0146931
4.60631e-05
-0.0146922
0.000168665
-0.0146917
0.000291466
-0.0146916
0.000414302
-0.0146917
0.00053701
-0.0146923
0.000659425
-0.0146931
0.00078138
-0.0146944
0.00090271
-0.0146959
0.00102325
-0.0146978
0.00114284
-0.0147001
0.00126131
-0.0147027
0.00137851
-0.0147056
0.00149428
-0.0147088
0.00160847
-0.0147124
0.00172094
-0.0147163
0.00183154
-0.0147204
0.00194012
-0.0147249
-0.0147296
-0.000147664
-0.0147919
0.000245316
-4.95708e-05
-0.0147912
4.88505e-05
-0.0147907
0.000147484
-0.0147904
0.000246212
-0.0147903
0.000344914
-0.0147904
0.000443469
-0.0147908
0.000541755
-0.0147914
0.00063965
-0.0147922
0.000737031
-0.0147933
0.000833775
-0.0147946
0.000929764
-0.0147961
0.00102488
-0.0147978
0.001119
-0.0147997
0.00121201
-0.0148018
0.00130381
-0.0148042
0.00139428
-0.0148067
0.00148332
-0.0148095
0.00157084
-0.0148124
-0.0148156
-0.000111564
-0.014869
0.000188628
-3.41945e-05
-0.0148685
4.33979e-05
-0.0148683
0.000121127
-0.0148681
0.000198907
-0.0148681
0.00027665
-0.0148682
0.000354268
-0.0148684
0.000431672
-0.0148688
0.000508773
-0.0148693
0.000585483
-0.01487
0.000661713
-0.0148708
0.000737377
-0.0148717
0.000812388
-0.0148728
0.000886661
-0.014874
0.000960112
-0.0148753
0.00103266
-0.0148767
0.00110422
-0.0148783
0.00117473
-0.01488
0.0012441
-0.0148818
-0.0148837
-8.01838e-05
-0.0149271
0.000138353
-2.18166e-05
-0.0149269
3.66887e-05
-0.0149268
9.52715e-05
-0.0149267
0.00015387
-0.0149267
0.000212422
-0.0149267
0.000270865
-0.0149269
0.000329135
-0.0149271
0.00038717
-0.0149274
0.000444907
-0.0149277
0.000502283
-0.0149282
0.000559237
-0.0149287
0.000615708
-0.0149293
0.000671634
-0.0149299
0.000726958
-0.0149306
0.000781621
-0.0149314
0.000835567
-0.0149322
0.000888741
-0.0149332
0.000941089
-0.0149341
-0.0149352
-5.49579e-05
-0.0149679
9.56984e-05
-1.40882e-05
-0.0149678
2.68708e-05
-0.0149677
6.78777e-05
-0.0149677
0.000108891
-0.0149677
0.000149869
-0.0149677
0.00019077
-0.0149678
0.000231551
-0.0149679
0.00027217
-0.014968
0.000312585
-0.0149682
0.000352754
-0.0149683
0.000392636
-0.0149686
0.00043219
-0.0149688
0.000471374
-0.0149691
0.00051015
-0.0149694
0.000548476
-0.0149697
0.000586312
-0.0149701
0.00062362
-0.0149705
0.000660358
-0.0149709
-0.0149713
-3.16885e-05
-0.014992
5.57769e-05
-7.53033e-06
-0.0149919
1.66733e-05
-0.0149919
4.08991e-05
-0.0149919
6.51229e-05
-0.0149919
8.93206e-05
-0.0149919
0.000113468
-0.0149919
0.00013754
-0.0149919
0.000161512
-0.014992
0.000185361
-0.014992
0.000209061
-0.0149921
0.00023259
-0.0149921
0.000255924
-0.0149921
0.000279039
-0.0149922
0.000301913
-0.0149923
0.000324522
-0.0149923
0.000346846
-0.0149924
0.00036886
-0.0149925
0.00039054
-0.0149925
-0.0149927
-1.05768e-05
1.86117e-05
-2.51864e-06
5.55774e-06
1.36438e-05
2.17321e-05
2.98153e-05
3.7886e-05
4.5937e-05
5.3961e-05
6.19513e-05
6.99011e-05
7.78041e-05
8.56547e-05
9.34476e-05
0.000101178
0.000108843
0.00011644
0.000123967
0.000131426
-0.023247
-0.0138271
0.0144673
0.0226068
-0.0239673
-0.0137344
0.0144547
-0.0248071
-0.0136258
0.0144655
-0.025786
-0.0135122
0.0144911
-0.0269233
-0.0133956
0.014533
-0.028235
-0.0132786
0.0145903
-0.0297309
-0.0131635
0.0146594
-0.0314112
-0.0130518
0.0147321
-0.0332623
-0.0129435
0.0147946
-0.035253
-0.0128362
0.014827
-0.0373318
-0.0127238
0.0148025
-0.0394244
-0.0125952
0.0146879
-0.0414347
-0.0124342
0.0144445
-0.0432459
-0.0122184
0.0140296
-0.0447233
-0.0119195
0.0133969
-0.0457153
-0.0115046
0.0124966
-0.0460492
-0.0109381
0.011272
-0.0455214
-0.010182
0.00965414
-0.0438767
-0.00919039
0.00754571
-0.00791163
0.00467943
-0.0181137
-0.0137101
0.0179967
-0.0182362
-0.0136119
-0.0183544
-0.0135076
-0.0184758
-0.0133907
-0.0186112
-0.0132603
-0.0187746
-0.0131152
-0.0189835
-0.0129546
-0.0192571
-0.0127782
-0.0196144
-0.0125862
-0.0200712
-0.0123794
-0.0206361
-0.0121589
-0.0213058
-0.0119255
-0.0220607
-0.0116794
-0.0228596
-0.0114194
-0.0236365
-0.0111426
-0.0242975
-0.0108437
-0.0247203
-0.0105152
-0.0247539
-0.0101484
-0.024207
-0.00973729
-0.0092903
-0.017918
-0.0135256
0.0177334
-0.0180906
-0.0134393
-0.0182532
-0.0133451
-0.0183981
-0.0132458
-0.0185176
-0.0131408
-0.0186039
-0.013029
-0.0186493
-0.0129092
-0.0186473
-0.0127801
-0.0185931
-0.0126404
-0.0184837
-0.0124888
-0.0183185
-0.0123241
-0.0180983
-0.0121457
-0.0178243
-0.0119534
-0.0174959
-0.0117478
-0.0171083
-0.0115303
-0.0166491
-0.0113029
-0.0160959
-0.0110684
-0.0154142
-0.0108301
-0.0145589
-0.0105926
-0.0103614
-0.0136123
-0.0135311
0.0136178
-0.0136078
-0.0134437
-0.0135999
-0.013353
-0.0135876
-0.0132581
-0.0135693
-0.0131591
-0.0135422
-0.0130561
-0.0135018
-0.0129495
-0.0134426
-0.0128394
-0.013357
-0.012726
-0.0132365
-0.0126094
-0.0130709
-0.0124897
-0.0128497
-0.0123668
-0.0125622
-0.0122409
-0.0121981
-0.0121119
-0.0117485
-0.0119798
-0.0112063
-0.0118452
-0.0105661
-0.0117086
-0.00982501
-0.0115712
-0.00898282
-0.0114348
-0.0113017
-0.0121626
-0.0136245
0.012256
-0.0120486
-0.0135577
-0.0119147
-0.013487
-0.0117591
-0.0134137
-0.0115806
-0.0133376
-0.011378
-0.0132587
-0.0111504
-0.0131771
-0.010897
-0.0130928
-0.010617
-0.0130059
-0.0103096
-0.0129168
-0.00997357
-0.0128257
-0.00960737
-0.012733
-0.00920884
-0.0126394
-0.00877518
-0.0125455
-0.00830299
-0.012452
-0.0077884
-0.0123598
-0.00722739
-0.0122696
-0.00661619
-0.0121824
-0.00595189
-0.0120991
-0.0120207
-0.00972838
-0.0137414
0.00984524
-0.00960141
-0.0136846
-0.00946173
-0.0136267
-0.00930771
-0.0135677
-0.00913759
-0.0135077
-0.00894943
-0.0134469
-0.00874123
-0.0133853
-0.00851087
-0.0133232
-0.00825625
-0.0132606
-0.00797533
-0.0131977
-0.00766623
-0.0131348
-0.00732731
-0.013072
-0.00695723
-0.0130095
-0.00655503
-0.0129477
-0.00612013
-0.0128869
-0.00565241
-0.0128275
-0.00515217
-0.0127698
-0.00462012
-0.0127144
-0.00405738
-0.0126619
-0.0126127
-0.00828334
-0.013899
0.008441
-0.00811234
-0.0138556
-0.00792791
-0.0138111
-0.00772966
-0.0137659
-0.00751725
-0.0137201
-0.00729031
-0.0136738
-0.00704848
-0.0136271
-0.00679139
-0.0135802
-0.00651866
-0.0135333
-0.00622987
-0.0134865
-0.00592458
-0.0134401
-0.00560234
-0.0133942
-0.00526265
-0.0133492
-0.00490506
-0.0133053
-0.00452915
-0.0132628
-0.0041346
-0.013222
-0.00372121
-0.0131832
-0.003289
-0.0131466
-0.0028382
-0.0131127
-0.0130815
-0.00682939
-0.0140492
0.00697958
-0.00666992
-0.0140151
-0.00650034
-0.0139807
-0.00632008
-0.0139462
-0.00612855
-0.0139116
-0.00592521
-0.0138771
-0.00570955
-0.0138428
-0.00548109
-0.0138087
-0.00523944
-0.0137749
-0.00498428
-0.0137417
-0.00471536
-0.013709
-0.00443256
-0.013677
-0.00413585
-0.0136459
-0.00382532
-0.0136159
-0.0035012
-0.013587
-0.00316381
-0.0135594
-0.00281361
-0.0135334
-0.00245119
-0.0135091
-0.00207722
-0.0134866
-0.0134663
-0.00575256
-0.0142028
0.00590612
-0.00559079
-0.0141769
-0.00542068
-0.0141508
-0.00524212
-0.0141247
-0.00505501
-0.0140987
-0.00485928
-0.0140729
-0.00465485
-0.0140472
-0.00444165
-0.0140219
-0.00421965
-0.013997
-0.00398882
-0.0139725
-0.00374915
-0.0139486
-0.00350067
-0.0139255
-0.00324344
-0.0139032
-0.00297753
-0.0138818
-0.00270311
-0.0138614
-0.00242035
-0.0138422
-0.00212951
-0.0138242
-0.00183091
-0.0138077
-0.00152496
-0.0137926
-0.0137791
-0.00480975
-0.0143421
0.00494904
-0.0046642
-0.0143224
-0.00451219
-0.0143028
-0.00435359
-0.0142833
-0.00418827
-0.0142641
-0.00401614
-0.014245
-0.00383711
-0.0142263
-0.00365113
-0.0142079
-0.0034582
-0.0141899
-0.00325834
-0.0141724
-0.00305161
-0.0141554
-0.0028381
-0.014139
-0.00261797
-0.0141233
-0.00239139
-0.0141083
-0.0021586
-0.0140942
-0.00191987
-0.0140809
-0.00167551
-0.0140686
-0.00142589
-0.0140573
-0.00117138
-0.0140471
-0.014038
-0.00404211
-0.0144712
0.00417119
-0.00390803
-0.0144565
-0.0037689
-0.0144419
-0.00362471
-0.0144275
-0.00347547
-0.0144133
-0.0033212
-0.0143993
-0.00316194
-0.0143855
-0.00299772
-0.0143721
-0.0028286
-0.014359
-0.00265467
-0.0143463
-0.00247601
-0.014334
-0.00229273
-0.0143223
-0.00210496
-0.0143111
-0.00191286
-0.0143004
-0.00171659
-0.0142904
-0.00151636
-0.0142811
-0.00131238
-0.0142726
-0.0011049
-0.0142648
-0.000894197
-0.0142578
-0.0142517
-0.00338565
-0.0145848
0.00349928
-0.00326811
-0.014574
-0.00314665
-0.0145634
-0.00302126
-0.0145529
-0.00289195
-0.0145426
-0.00275873
-0.0145325
-0.00262163
-0.0145226
-0.0024807
-0.014513
-0.002336
-0.0145037
-0.0021876
-0.0144947
-0.00203559
-0.014486
-0.00188009
-0.0144778
-0.00172123
-0.0144699
-0.00155914
-0.0144625
-0.00139399
-0.0144556
-0.00122596
-0.0144492
-0.00105525
-0.0144433
-0.00088206
-0.014438
-0.000706628
-0.0144332
-0.0144291
-0.00282247
-0.0146848
0.00292246
-0.00271945
-0.0146771
-0.00261339
-0.0146695
-0.00250433
-0.014662
-0.0023923
-0.0146546
-0.00227735
-0.0146475
-0.00215952
-0.0146405
-0.00203887
-0.0146337
-0.00191547
-0.0146271
-0.0017894
-0.0146208
-0.00166074
-0.0146147
-0.0015296
-0.0146089
-0.00139607
-0.0146035
-0.00126028
-0.0145983
-0.00112234
-0.0145935
-0.000982405
-0.0145891
-0.000840612
-0.0145851
-0.00069712
-0.0145815
-0.000552096
-0.0145783
-0.0145755
-0.00233246
-0.01477
0.00241764
-0.00224492
-0.0147646
-0.00215503
-0.0147593
-0.00206282
-0.0147542
-0.00196832
-0.0147491
-0.00187158
-0.0147442
-0.00177263
-0.0147394
-0.00167152
-0.0147348
-0.00156831
-0.0147303
-0.00146307
-0.014726
-0.00135588
-0.0147219
-0.00124681
-0.014718
-0.00113595
-0.0147143
-0.0010234
-0.0147109
-0.000909268
-0.0147077
-0.000793661
-0.0147047
-0.000676699
-0.014702
-0.000558508
-0.0146996
-0.000439221
-0.0146975
-0.0146957
-0.00189534
-0.0148414
0.00196674
-0.00182214
-0.0148378
-0.00174716
-0.0148343
-0.00167042
-0.0148309
-0.00159195
-0.0148276
-0.0015118
-0.0148244
-0.00143001
-0.0148212
-0.00134663
-0.0148182
-0.0012617
-0.0148152
-0.00117528
-0.0148124
-0.00108744
-0.0148097
-0.000998244
-0.0148072
-0.000907759
-0.0148048
-0.000816063
-0.0148026
-0.000723238
-0.0148005
-0.000629368
-0.0147986
-0.000534544
-0.0147969
-0.000438861
-0.0147953
-0.000342418
-0.014794
-0.0147928
-0.00150239
-0.014899
0.00156
-0.00144341
-0.0148968
-0.00138309
-0.0148946
-0.00132145
-0.0148926
-0.00125851
-0.0148905
-0.00119431
-0.0148885
-0.00112889
-0.0148866
-0.00106228
-0.0148848
-0.000994515
-0.014883
-0.000925649
-0.0148813
-0.000855726
-0.0148797
-0.0007848
-0.0148781
-0.000712925
-0.0148767
-0.000640161
-0.0148753
-0.000566571
-0.0148741
-0.000492219
-0.0148729
-0.000417176
-0.0148719
-0.000341513
-0.014871
-0.000265304
-0.0148702
-0.0148695
-0.0011389
-0.0149434
0.00118333
-0.00109347
-0.0149422
-0.00104708
-0.014941
-0.000999728
-0.0149399
-0.000951449
-0.0149388
-0.000902266
-0.0149377
-0.000852205
-0.0149367
-0.000801298
-0.0149357
-0.000749576
-0.0149347
-0.000697074
-0.0149338
-0.000643829
-0.0149329
-0.000589879
-0.0149321
-0.000535267
-0.0149313
-0.000480035
-0.0149306
-0.00042423
-0.0149299
-0.000367899
-0.0149293
-0.000311093
-0.0149287
-0.000253864
-0.0149282
-0.000196265
-0.0149278
-0.0149274
-0.000799326
-0.0149748
0.00083073
-0.000767218
-0.0149743
-0.000734438
-0.0149738
-0.000701004
-0.0149733
-0.000666935
-0.0149729
-0.00063225
-0.0149724
-0.000596969
-0.014972
-0.000561112
-0.0149715
-0.000524703
-0.0149711
-0.000487766
-0.0149707
-0.000450327
-0.0149703
-0.000412411
-0.01497
-0.000374049
-0.0149697
-0.000335269
-0.0149693
-0.000296104
-0.014969
-0.000256587
-0.0149688
-0.000216751
-0.0149685
-0.000176634
-0.0149683
-0.00013627
-0.0149682
-0.014968
-0.000473358
-0.0149936
0.000492129
-0.000454233
-0.0149934
-0.000434711
-0.0149933
-0.000414808
-0.0149932
-0.000394534
-0.0149931
-0.000373902
-0.014993
-0.000352925
-0.0149929
-0.000331615
-0.0149928
-0.000309986
-0.0149928
-0.000288052
-0.0149927
-0.00026583
-0.0149926
-0.000243335
-0.0149925
-0.000220585
-0.0149924
-0.000197597
-0.0149923
-0.00017439
-0.0149923
-0.000150983
-0.0149922
-0.000127398
-0.0149921
-0.000103654
-0.0149921
-7.97725e-05
-0.014992
-0.014992
-0.000158698
0.000165119
-0.000152141
-0.000145488
-0.000138736
-0.000131884
-0.000124931
-0.000117878
-0.000110727
-0.000103479
-9.61376e-05
-8.87066e-05
-8.119e-05
-7.35924e-05
-6.5919e-05
-5.81752e-05
-5.03667e-05
-4.24996e-05
-3.45805e-05
-2.6616e-05
-0.0137544
-0.00454462
0.018299
-0.0104631
-0.00329131
-0.00797608
-0.00248705
-0.00605093
-0.00192515
-0.00454197
-0.00150896
-0.00335297
-0.00118899
-0.00241641
-0.000936563
-0.00168279
-0.000733622
-0.00111453
-0.000568255
-0.000682256
-0.000432276
-0.000362384
-0.000319871
-0.000135571
-0.000226813
1.44418e-05
-0.000150013
0.000101717
-8.72757e-05
0.000138936
-3.72185e-05
0.000139551
-6.15329e-07
0.000110522
2.90294e-05
6.69297e-05
4.35922e-05
2.37207e-05
4.3209e-05
2.37207e-05
-0.0162912
-0.00665312
0.0183997
-0.0140576
-0.00552491
-0.0119147
-0.00462987
-0.00994809
-0.0038918
-0.00818748
-0.00326958
-0.00663858
-0.00273789
-0.00529564
-0.0022795
-0.00414725
-0.00188201
-0.00317925
-0.00153626
-0.00237623
-0.0012353
-0.00172236
-0.000973743
-0.00120178
-0.000747387
-0.00079885
-0.000552946
-0.000498187
-0.000387938
-0.000284754
-0.000250652
-0.000145251
-0.000140118
-6.01982e-05
-5.60238e-05
-1.76917e-05
1.08577e-06
-1.9873e-06
2.75046e-05
2.17334e-05
-0.0144399
-0.00796768
0.0157544
-0.012943
-0.00702175
-0.0113979
-0.00617498
-0.0098807
-0.00540901
-0.00843815
-0.00471213
-0.00709875
-0.00407729
-0.00587896
-0.0034993
-0.00478697
-0.00297399
-0.00382529
-0.00249794
-0.00299228
-0.0020683
-0.00228335
-0.00168268
-0.00169165
-0.00133908
-0.00120873
-0.00103587
-0.000824913
-0.000771753
-0.000529728
-0.000545837
-0.000312201
-0.000357646
-0.000160994
-0.00020723
-6.47079e-05
-9.52007e-05
-1.42549e-05
-2.29484e-05
7.47858e-06
-0.0124827
-0.00895673
0.0134717
-0.0113775
-0.00812693
-0.010216
-0.00733652
-0.00904288
-0.0065821
-0.00789185
-0.00586316
-0.00678835
-0.00518079
-0.00575122
-0.00453642
-0.00479383
-0.00393139
-0.00392492
-0.00336685
-0.00314943
-0.00284379
-0.00246914
-0.00236297
-0.00188325
-0.00192497
-0.00138884
-0.00153028
-0.000981348
-0.00117925
-0.000654944
-0.00087224
-0.000402951
-0.00060964
-0.000218252
-0.000391929
-9.37093e-05
-0.000219743
-2.276e-05
-9.38977e-05
-1.52814e-05
-0.0112896
-0.00982193
0.0121548
-0.0103473
-0.00906925
-0.00936202
-0.00832181
-0.00836183
-0.00758228
-0.0073703
-0.00685469
-0.00640716
-0.00614394
-0.00548855
-0.00545503
-0.00462727
-0.00479267
-0.00383293
-0.00416119
-0.00311229
-0.00356444
-0.00246947
-0.00300579
-0.00190634
-0.00248811
-0.00142279
-0.00201382
-0.0010171
-0.00158494
-0.000686225
-0.00120311
-0.000426187
-0.000869678
-0.000232371
-0.000585746
-9.98922e-05
-0.000352221
-2.39434e-05
-0.000169846
-3.92249e-05
-0.0106035
-0.0106189
0.0114005
-0.00974886
-0.0099239
-0.00885833
-0.00921234
-0.00795204
-0.00848857
-0.0070483
-0.00775843
-0.00616355
-0.0070287
-0.00531215