/*--------------------------------*- C++ -*----------------------------------*\
| =========                 |                                                 |
| \\      /  F ield         | OpenFOAM: The Open Source CFD Toolbox           |
|  \\    /   O peration     | Version:  v1806                                 |
|   \\  /    A nd           | Web:      www.OpenFOAM.com                      |
|    \\/     M anipulation  |                                                 |
\*---------------------------------------------------------------------------*/
FoamFile
{
    version     2.0;
    format      ascii;
    class       volVectorField;
    location    "440";
    object      U;
}
// * * * * * * * * * * * * * * * * * * * * * * * * * * * * * * * * * * * * * //

dimensions      [0 1 -1 0 0 0 0];


internalField   nonuniform List<vector> 
4400
(
(0.256747 0.271996 0)
(0.301083 0.187202 0)
(0.314601 0.137228 0)
(0.321897 0.105974 0)
(0.325807 0.086093 0)
(0.327196 0.073389 0)
(0.327084 0.064564 0)
(0.326138 0.0577746 0)
(0.324703 0.052269 0)
(0.322971 0.0477171 0)
(0.321054 0.0439185 0)
(0.319025 0.0407305 0)
(0.316931 0.0380495 0)
(0.314806 0.0357999 0)
(0.31267 0.0339259 0)
(0.310536 0.0323851 0)
(0.308412 0.0311463 0)
(0.306308 0.0301879 0)
(0.304277 0.0294745 0)
(0.302596 0.0289206 0)
(0.263439 0.143878 0)
(0.286152 0.103301 0)
(0.300153 0.0926224 0)
(0.311275 0.0857821 0)
(0.317109 0.0776642 0)
(0.319751 0.0695092 0)
(0.320838 0.0622695 0)
(0.320968 0.056139 0)
(0.320418 0.0510022 0)
(0.319394 0.0466938 0)
(0.31805 0.0430678 0)
(0.316494 0.0400072 0)
(0.314801 0.0374226 0)
(0.313022 0.0352475 0)
(0.311192 0.0334322 0)
(0.309333 0.0319386 0)
(0.30746 0.0307386 0)
(0.305588 0.0298124 0)
(0.303769 0.0291266 0)
(0.302253 0.0286087 0)
(0.233521 0.111674 0)
(0.265976 0.10842 0)
(0.287675 0.0986165 0)
(0.300583 0.0861547 0)
(0.308226 0.0749594 0)
(0.312731 0.0661067 0)
(0.315194 0.0592209 0)
(0.316299 0.0536734 0)
(0.316495 0.0490468 0)
(0.316072 0.0451212 0)
(0.315227 0.0417717 0)
(0.314096 0.0389126 0)
(0.312771 0.0364784 0)
(0.311315 0.0344181 0)
(0.309774 0.0326916 0)
(0.308177 0.0312679 0)
(0.306546 0.0301233 0)
(0.3049 0.029241 0)
(0.303289 0.0285913 0)
(0.301936 0.0281126 0)
(0.250704 0.0763039 0)
(0.271813 0.0754403 0)
(0.285533 0.0718885 0)
(0.295722 0.0681982 0)
(0.303032 0.0640663 0)
(0.307816 0.0594894 0)
(0.310733 0.0548501 0)
(0.312348 0.0504927 0)
(0.313043 0.0465725 0)
(0.31308 0.0431177 0)
(0.312645 0.0401048 0)
(0.311878 0.0374952 0)
(0.310876 0.03525 0)
(0.309712 0.033335 0)
(0.308437 0.0317213 0)
(0.307085 0.0303858 0)
(0.305683 0.0293103 0)
(0.304252 0.0284815 0)
(0.30284 0.0278742 0)
(0.301646 0.027437 0)
(0.250415 0.0588139 0)
(0.266888 0.0649219 0)
(0.281003 0.0659508 0)
(0.29153 0.0634453 0)
(0.298846 0.0593398 0)
(0.303798 0.0549486 0)
(0.307035 0.0508278 0)
(0.309015 0.0471016 0)
(0.310071 0.0437598 0)
(0.31045 0.0407759 0)
(0.310337 0.0381288 0)
(0.309867 0.0357999 0)
(0.309142 0.0337709 0)
(0.308234 0.0320233 0)
(0.307197 0.0305404 0)
(0.306069 0.029307 0)
(0.304878 0.0283111 0)
(0.303649 0.0275435 0)
(0.302426 0.0269833 0)
(0.301384 0.0265889 0)
(0.261758 0.0451077 0)
(0.273306 0.0503319 0)
(0.282892 0.0521886 0)
(0.290618 0.052003 0)
(0.296671 0.0506258 0)
(0.301165 0.0485026 0)
(0.304312 0.0459645 0)
(0.306379 0.0432852 0)
(0.307609 0.0406547 0)
(0.308204 0.038181 0)
(0.308321 0.0359161 0)
(0.308083 0.0338811 0)
(0.307583 0.0320811 0)
(0.306893 0.0305133 0)
(0.306064 0.0291719 0)
(0.305137 0.0280498 0)
(0.304139 0.0271406 0)
(0.303096 0.0264392 0)
(0.302049 0.0259292 0)
(0.30115 0.0255777 0)
(0.266491 0.0359653 0)
(0.274699 0.0419181 0)
(0.282753 0.0450984 0)
(0.289697 0.0459703 0)
(0.295186 0.0452819 0)
(0.299303 0.0437098 0)
(0.302269 0.0417261 0)
(0.304305 0.0396016 0)
(0.305601 0.03748 0)
(0.30632 0.0354416 0)
(0.306593 0.0335343 0)
(0.306526 0.0317876 0)
(0.306205 0.0302181 0)
(0.305695 0.0288344 0)
(0.305045 0.0276393 0)
(0.304294 0.026633 0)
(0.303469 0.0258144 0)
(0.302595 0.0251819 0)
(0.301709 0.0247236 0)
(0.300944 0.024414 0)
(0.27354 0.0291235 0)
(0.279541 0.0341023 0)
(0.285327 0.037166 0)
(0.290458 0.0386019 0)
(0.294782 0.0388616 0)
(0.298243 0.038304 0)
(0.30087 0.0372032 0)
(0.302755 0.0357808 0)
(0.304019 0.034206 0)
(0.304779 0.0325977 0)
(0.305141 0.0310339 0)
(0.305193 0.029564 0)
(0.305007 0.0282186 0)
(0.304642 0.0270159 0)
(0.304142 0.0259667 0)
(0.303542 0.0250767 0)
(0.302869 0.0243493 0)
(0.302147 0.0237862 0)
(0.301408 0.0233795 0)
(0.300764 0.0231102 0)
(0.277992 0.0238423 0)
(0.282303 0.0284823 0)
(0.286821 0.0316421 0)
(0.291053 0.0334061 0)
(0.294698 0.0340543 0)
(0.297654 0.0338974 0)
(0.29994 0.0332074 0)
(0.301626 0.0321927 0)
(0.302797 0.0310016 0)
(0.303542 0.0297369 0)
(0.303943 0.0284701 0)
(0.304069 0.0272514 0)
(0.303981 0.0261151 0)
(0.303729 0.0250849 0)
(0.303352 0.0241764 0)
(0.30288 0.0233997 0)
(0.30234 0.0227618 0)
(0.301751 0.0222669 0)
(0.301143 0.0219105 0)
(0.300609 0.0216791 0)
(0.282665 0.0197893 0)
(0.285847 0.0236866 0)
(0.289164 0.0265295 0)
(0.292313 0.0283316 0)
(0.295119 0.0292621 0)
(0.297489 0.0295128 0)
(0.299391 0.0292588 0)
(0.30084 0.0286531 0)
(0.301881 0.0278235 0)
(0.302571 0.0268711 0)
(0.302971 0.0258716 0)
(0.303136 0.02488 0)
(0.303115 0.0239354 0)
(0.302948 0.0230655 0)
(0.302669 0.0222895 0)
(0.302305 0.0216206 0)
(0.301878 0.0210683 0)
(0.301406 0.0206387 0)
(0.300914 0.0203302 0)
(0.300477 0.0201339 0)
(0.286114 0.0164185 0)
(0.288427 0.0198574 0)
(0.290934 0.0224735 0)
(0.293397 0.0242513 0)
(0.295637 0.0252879 0)
(0.297554 0.0257217 0)
(0.299114 0.0256959 0)
(0.300324 0.0253406 0)
(0.301214 0.0247641 0)
(0.301824 0.0240528 0)
(0.302196 0.0232737 0)
(0.302374 0.0224778 0)
(0.302394 0.0217034 0)
(0.302289 0.0209788 0)
(0.302088 0.0203247 0)
(0.301812 0.0197562 0)
(0.30148 0.0192841 0)
(0.301109 0.0189159 0)
(0.300717 0.0186523 0)
(0.300367 0.0184878 0)
(0.289325 0.0137096 0)
(0.291012 0.016597 0)
(0.292841 0.0188801 0)
(0.294653 0.0205227 0)
(0.296332 0.0215792 0)
(0.297805 0.0221388 0)
(0.299034 0.0222984 0)
(0.30001 0.0221531 0)
(0.300745 0.0217893 0)
(0.301261 0.0212811 0)
(0.301589 0.0206894 0)
(0.30176 0.0200623 0)
(0.301802 0.0194372 0)
(0.301741 0.0188421 0)
(0.301599 0.0182983 0)
(0.301394 0.0178215 0)
(0.301142 0.0174233 0)
(0.300856 0.0171119 0)
(0.300551 0.0168896 0)
(0.300276 0.0167537 0)
(0.291846 0.011357 0)
(0.293055 0.0138301 0)
(0.29439 0.0158279 0)
(0.29574 0.0173175 0)
(0.297009 0.0183294 0)
(0.298134 0.0189239 0)
(0.299083 0.0191738 0)
(0.299846 0.0191543 0)
(0.300429 0.0189356 0)
(0.300847 0.018579 0)
(0.301121 0.0181362 0)
(0.301273 0.0176491 0)
(0.301323 0.0171516 0)
(0.301291 0.0166699 0)
(0.301193 0.0162242 0)
(0.301045 0.01583 0)
(0.300859 0.015499 0)
(0.300643 0.0152393 0)
(0.300413 0.0150546 0)
(0.300201 0.0149439 0)
(0.294053 0.00937058 0)
(0.2949 0.0114166 0)
(0.295839 0.013108 0)
(0.296791 0.0144084 0)
(0.297697 0.0153325 0)
(0.298513 0.0159193 0)
(0.299212 0.0162193 0)
(0.299784 0.0162873 0)
(0.300227 0.0161775 0)
(0.30055 0.0159396 0)
(0.300767 0.0156169 0)
(0.300892 0.015246 0)
(0.300941 0.0148568 0)
(0.300926 0.0144732 0)
(0.300862 0.0141139 0)
(0.300758 0.0137933 0)
(0.300624 0.0135226 0)
(0.300468 0.0133096 0)
(0.300299 0.0131586 0)
(0.300142 0.0130701 0)
(0.295805 0.00758792 0)
(0.296379 0.00927673 0)
(0.29702 0.0106898 0)
(0.29768 0.0117981 0)
(0.298312 0.0126089 0)
(0.298886 0.0131481 0)
(0.299381 0.0134521 0)
(0.299788 0.0135623 0)
(0.300107 0.0135209 0)
(0.300343 0.0133672 0)
(0.300505 0.0131365 0)
(0.3006 0.0128592 0)
(0.300641 0.0125604 0)
(0.300637 0.0122607 0)
(0.300596 0.0119766 0)
(0.300526 0.0117212 0)
(0.300434 0.0115042 0)
(0.300325 0.0113331 0)
(0.300207 0.0112122 0)
(0.300095 0.011143 0)
(0.297256 0.00600884 0)
(0.297621 0.00734679 0)
(0.298032 0.00848246 0)
(0.298454 0.00938866 0)
(0.298861 0.0100674 0)
(0.299234 0.0105353 0)
(0.299559 0.0108174 0)
(0.299829 0.0109434 0)
(0.300043 0.0109448 0)
(0.300203 0.0108517 0)
(0.300314 0.0106919 0)
(0.300381 0.01049 0)
(0.300411 0.0102664 0)
(0.300411 0.0100385 0)
(0.300386 0.00981992 0)
(0.300342 0.00962185 0)
(0.300283 0.00945283 0)
(0.300212 0.0093192 0)
(0.300134 0.00922509 0)
(0.30006 0.00917247 0)
(0.298363 0.00454502 0)
(0.298577 0.00556881 0)
(0.298817 0.00644384 0)
(0.299066 0.00714949 0)
(0.299308 0.0076862 0)
(0.29953 0.00806471 0)
(0.299724 0.00830227 0)
(0.299885 0.00842013 0)
(0.300014 0.00844109 0)
(0.300111 0.0083876 0)
(0.300179 0.00828054 0)
(0.30022 0.00813849 0)
(0.30024 0.00797746 0)
(0.300241 0.00781081 0)
(0.300227 0.00764947 0)
(0.300202 0.00750227 0)
(0.300167 0.0073761 0)
(0.300125 0.00727614 0)
(0.300079 0.007206 0)
(0.300034 0.00716773 0)
(0.29919 0.00318749 0)
(0.299294 0.00390526 0)
(0.299412 0.00452388 0)
(0.299534 0.00502698 0)
(0.299652 0.00541404 0)
(0.299762 0.0056916 0)
(0.299858 0.00587074 0)
(0.299939 0.00596544 0)
(0.300004 0.00599103 0)
(0.300052 0.00596288 0)
(0.300087 0.0058955 0)
(0.300108 0.00580199 0)
(0.300118 0.00569374 0)
(0.300119 0.00558034 0)
(0.300113 0.00546967 0)
(0.3001 0.00536814 0)
(0.300083 0.00528081 0)
(0.300062 0.0052115 0)
(0.300039 0.00516304 0)
(0.300016 0.00513721 0)
(0.299722 0.00188597 0)
(0.299756 0.00231533 0)
(0.299796 0.0026853 0)
(0.299838 0.0029872 0)
(0.299879 0.00322091 0)
(0.299917 0.00339004 0)
(0.29995 0.00350083 0)
(0.299978 0.00356132 0)
(0.300001 0.00358042 0)
(0.300018 0.00356714 0)
(0.300029 0.00353003 0)
(0.300037 0.00347688 0)
(0.30004 0.00341447 0)
(0.300041 0.00334857 0)
(0.300039 0.0032839 0)
(0.300034 0.00322436 0)
(0.300028 0.00317302 0)
(0.300021 0.00313223 0)
(0.300013 0.00310379 0)
(0.300005 0.00308892 0)
(0.299987 0.000631913 0)
(0.299988 0.000769273 0)
(0.29999 0.00089127 0)
(0.299992 0.000991582 0)
(0.299994 0.00106956 0)
(0.299996 0.00112626 0)
(0.299998 0.00116367 0)
(0.299999 0.00118439 0)
(0.3 0.00119134 0)
(0.300001 0.00118746 0)
(0.300002 0.00117559 0)
(0.300002 0.00115831 0)
(0.300002 0.00113787 0)
(0.300002 0.00111621 0)
(0.300002 0.0010949 0)
(0.300002 0.00107525 0)
(0.300001 0.00105829 0)
(0.300001 0.00104481 0)
(0.300001 0.00103542 0)
(0.3 0.00103056 0)
(0.0990539 -0.148014 0)
(0.0775921 -0.123799 0)
(0.0648859 -0.101469 0)
(0.0562769 -0.0815007 0)
(0.05003 -0.0632697 0)
(0.0453983 -0.0463014 0)
(0.0420092 -0.0302809 0)
(0.039655 -0.0149502 0)
(0.0382128 -7.5702e-05 0)
(0.0376119 0.0145594 0)
(0.0378191 0.0291614 0)
(0.0388322 0.0439339 0)
(0.0406791 0.0590847 0)
(0.0434202 0.0748342 0)
(0.0471581 0.0914223 0)
(0.0520598 0.109116 0)
(0.0584183 0.128243 0)
(0.066831 0.149318 0)
(0.0787836 0.172986 0)
(0.0989038 0.198078 0)
(0.16708 -0.0876488 0)
(0.154342 -0.0781448 0)
(0.143206 -0.0672282 0)
(0.133863 -0.0555831 0)
(0.126252 -0.0434952 0)
(0.120241 -0.0311041 0)
(0.115694 -0.0185023 0)
(0.112489 -0.00575428 0)
(0.110538 0.00709528 0)
(0.109781 0.0200147 0)
(0.11019 0.032979 0)
(0.111771 0.0459652 0)
(0.114563 0.0589488 0)
(0.118645 0.0718987 0)
(0.124142 0.084771 0)
(0.131241 0.0974944 0)
(0.140216 0.109971 0)
(0.151477 0.122198 0)
(0.165672 0.134389 0)
(0.183855 0.14501 0)
(0.189275 -0.0515478 0)
(0.184301 -0.0458943 0)
(0.179905 -0.0393953 0)
(0.176094 -0.0321879 0)
(0.172874 -0.0244119 0)
(0.170263 -0.0161876 0)
(0.168277 -0.00761661 0)
(0.166933 0.00121449 0)
(0.166244 0.0102308 0)
(0.166219 0.0193657 0)
(0.166866 0.0285582 0)
(0.168191 0.037749 0)
(0.170197 0.0468779 0)
(0.172884 0.05588 0)
(0.176252 0.0646811 0)
(0.180299 0.0731915 0)
(0.185026 0.0813049 0)
(0.190453 0.088915 0)
(0.196675 0.0958823 0)
(0.203983 0.10164 0)
(0.215922 -0.030185 0)
(0.212749 -0.0258785 0)
(0.209829 -0.0212488 0)
(0.207237 -0.0163315 0)
(0.205026 -0.0111642 0)
(0.203237 -0.00578554 0)
(0.2019 -0.000235279 0)
(0.201035 0.00544603 0)
(0.200659 0.0112169 0)
(0.200783 0.0170352 0)
(0.201415 0.022858 0)
(0.202562 0.0286421 0)
(0.204229 0.0343433 0)
(0.20642 0.039917 0)
(0.209136 0.0453172 0)
(0.212378 0.0504965 0)
(0.216146 0.0554096 0)
(0.220441 0.0600258 0)
(0.225273 0.0643072 0)
(0.230669 0.068001 0)
(0.231431 -0.0194333 0)
(0.229805 -0.0162302 0)
(0.228368 -0.0128211 0)
(0.227136 -0.00922282 0)
(0.226123 -0.0054568 0)
(0.225343 -0.00154779 0)
(0.224807 0.00247736 0)
(0.224523 0.00659036 0)
(0.224501 0.0107619 0)
(0.224743 0.014962 0)
(0.225253 0.0191602 0)
(0.226031 0.0233252 0)
(0.227072 0.0274253 0)
(0.228372 0.0314281 0)
(0.229921 0.0353004 0)
(0.231708 0.0390079 0)
(0.233721 0.0425158 0)
(0.235946 0.0457914 0)
(0.238372 0.0488 0)
(0.240999 0.0514709 0)
(0.246316 -0.012647 0)
(0.245289 -0.010117 0)
(0.244377 -0.00749049 0)
(0.243597 -0.00477802 0)
(0.242962 -0.00199104 0)
(0.242486 0.00085793 0)
(0.242178 0.00375537 0)
(0.242049 0.00668693 0)
(0.242104 0.00963759 0)
(0.242347 0.0125918 0)
(0.242782 0.0155337 0)
(0.24341 0.0184473 0)
(0.244227 0.0213166 0)
(0.245233 0.024126 0)
(0.24642 0.02686 0)
(0.247783 0.029504 0)
(0.249312 0.0320447 0)
(0.250997 0.0344739 0)
(0.252825 0.0367832 0)
(0.254787 0.0389205 0)
(0.256469 -0.00852049 0)
(0.255863 -0.00654245 0)
(0.255344 -0.00450241 0)
(0.254919 -0.00240666 0)
(0.254592 -0.00026255 0)
(0.254366 0.00192158 0)
(0.254246 0.0041366 0)
(0.254233 0.00637266 0)
(0.254331 0.00861939 0)
(0.254538 0.010866 0)
(0.254856 0.0131015 0)
(0.255284 0.0153145 0)
(0.25582 0.0174938 0)
(0.25646 0.0196281 0)
(0.257202 0.0217065 0)
(0.258042 0.0237181 0)
(0.258974 0.0256526 0)
(0.259993 0.0275011 0)
(0.261096 0.0292554 0)
(0.262279 0.0309019 0)
(0.265593 -0.00598951 0)
(0.26521 -0.00439255 0)
(0.264886 -0.00276227 0)
(0.264626 -0.00110323 0)
(0.264433 0.000579728 0)
(0.26431 0.00228143 0)
(0.264261 0.00399646 0)
(0.264287 0.00571918 0)
(0.264391 0.00744377 0)
(0.264574 0.00916434 0)
(0.264835 0.0108749 0)
(0.265175 0.0125695 0)
(0.265592 0.0142424 0)
(0.266085 0.0158877 0)
(0.266651 0.0174999 0)
(0.267287 0.0190738 0)
(0.267989 0.0206044 0)
(0.268754 0.0220888 0)
(0.269576 0.0235238 0)
(0.27045 0.024892 0)
(0.272357 -0.00421572 0)
(0.272111 -0.00292697 0)
(0.271908 -0.00161677 0)
(0.271751 -0.000288105 0)
(0.271641 0.00105576 0)
(0.27158 0.00241129 0)
(0.271569 0.00377472 0)
(0.271607 0.00514213 0)
(0.271697 0.00650942 0)
(0.271837 0.00787239 0)
(0.272029 0.00922678 0)
(0.27227 0.0105683 0)
(0.272561 0.0118927 0)
(0.2729 0.0131959 0)
(0.273286 0.0144736 0)
(0.273717 0.0157221 0)
(0.274193 0.0169375 0)
(0.27471 0.0181169 0)
(0.275269 0.0192577 0)
(0.275866 0.0203545 0)
(0.278296 -0.00312737 0)
(0.27814 -0.00206825 0)
(0.278014 -0.000996279 0)
(0.277921 8.63637e-05 0)
(0.277861 0.00117739 0)
(0.277834 0.00227441 0)
(0.277843 0.00337499 0)
(0.277888 0.00447661 0)
(0.277969 0.00557673 0)
(0.278085 0.00667277 0)
(0.278238 0.00776217 0)
(0.278427 0.00884238 0)
(0.278651 0.00991088 0)
(0.278909 0.0109652 0)
(0.279201 0.012003 0)
(0.279525 0.0130218 0)
(0.279881 0.0140196 0)
(0.280265 0.0149949 0)
(0.280677 0.0159462 0)
(0.281115 0.0168662 0)
(0.28292 -0.00229205 0)
(0.282814 -0.00142223 0)
(0.282731 -0.00054411 0)
(0.282671 0.000340788 0)
(0.282635 0.00123084 0)
(0.282624 0.00212437 0)
(0.282637 0.00301962 0)
(0.282674 0.00391478 0)
(0.282737 0.00480803 0)
(0.282825 0.00569748 0)
(0.282937 0.00658127 0)
(0.283074 0.00745754 0)
(0.283235 0.00832442 0)
(0.28342 0.00918012 0)
(0.283628 0.0100229 0)
(0.283859 0.0108509 0)
(0.284112 0.0116627 0)
(0.284386 0.0124568 0)
(0.284681 0.0132323 0)
(0.284996 0.0139863 0)
(0.28692 -0.00175993 0)
(0.286853 -0.00103997 0)
(0.286802 -0.000314639 0)
(0.286768 0.000414936 0)
(0.28675 0.00114759 0)
(0.286749 0.00188211 0)
(0.286766 0.00261728 0)
(0.2868 0.00335186 0)
(0.286852 0.00408459 0)
(0.286921 0.00481423 0)
(0.287008 0.0055395 0)
(0.287112 0.00625918 0)
(0.287233 0.00697202 0)
(0.28737 0.00767683 0)
(0.287524 0.00837242 0)
(0.287694 0.00905761 0)
(0.287879 0.00973132 0)
(0.288079 0.0103928 0)
(0.288293 0.0110413 0)
(0.28852 0.0116734 0)
(0.290107 -0.00132879 0)
(0.290062 -0.000736472 0)
(0.290028 -0.000140661 0)
(0.290005 0.000457815 0)
(0.289995 0.0010581 0)
(0.289996 0.00165932 0)
(0.29001 0.00226057 0)
(0.290036 0.00286094 0)
(0.290074 0.00345951 0)
(0.290124 0.00405535 0)
(0.290187 0.00464753 0)
(0.290261 0.00523514 0)
(0.290348 0.00581726 0)
(0.290446 0.006393 0)
(0.290556 0.00696149 0)
(0.290677 0.00752186 0)
(0.290809 0.00807329 0)
(0.290951 0.00861516 0)
(0.291104 0.00914698 0)
(0.291267 0.00966711 0)
(0.292811 -0.00103447 0)
(0.292783 -0.00054874 0)
(0.292762 -6.06441e-05 0)
(0.29275 0.0004292 0)
(0.292746 0.000920159 0)
(0.29275 0.00141159 0)
(0.292762 0.00190283 0)
(0.292783 0.00239324 0)
(0.292811 0.00288214 0)
(0.292849 0.00336886 0)
(0.292894 0.00385276 0)
(0.292948 0.00433317 0)
(0.29301 0.00480944 0)
(0.293079 0.00528094 0)
(0.293157 0.00574703 0)
(0.293242 0.00620708 0)
(0.293334 0.00666051 0)
(0.293434 0.0071069 0)
(0.29354 0.00754592 0)
(0.293653 0.00797574 0)
(0.294959 -0.00078643 0)
(0.29494 -0.000394832 0)
(0.294927 -1.6929e-06 0)
(0.294919 0.000392529 0)
(0.294917 0.000787365 0)
(0.29492 0.00118234 0)
(0.294928 0.00157697 0)
(0.294943 0.00197077 0)
(0.294962 0.00236325 0)
(0.294988 0.00275392 0)
(0.295019 0.00314228 0)
(0.295055 0.00352786 0)
(0.295097 0.00391018 0)
(0.295144 0.00428876 0)
(0.295196 0.00466313 0)
(0.295254 0.00503285 0)
(0.295316 0.00539746 0)
(0.295384 0.00575665 0)
(0.295456 0.0061102 0)
(0.295533 0.0064571 0)
(0.296712 -0.000600713 0)
(0.296702 -0.000291766 0)
(0.296694 1.82389e-05 0)
(0.296691 0.000328965 0)
(0.29669 0.000640066 0)
(0.296693 0.000951196 0)
(0.296699 0.001262 0)
(0.296709 0.00157213 0)
(0.296722 0.00188122 0)
(0.296739 0.00218893 0)
(0.296759 0.00249489 0)
(0.296783 0.00279876 0)
(0.296809 0.0031002 0)
(0.29684 0.00339884 0)
(0.296873 0.00369437 0)
(0.296909 0.00398643 0)
(0.296949 0.00427471 0)
(0.296991 0.004559 0)
(0.297037 0.00483918 0)
(0.297085 0.00511416 0)
(0.298046 -0.000437287 0)
(0.29804 -0.000204158 0)
(0.298035 2.96441e-05 0)
(0.298033 0.000263878 0)
(0.298033 0.0004983 0)
(0.298034 0.00073266 0)
(0.298038 0.000966709 0)
(0.298044 0.00120019 0)
(0.298051 0.00143286 0)
(0.298061 0.00166447 0)
(0.298073 0.00189475 0)
(0.298086 0.00212347 0)
(0.298102 0.00235038 0)
(0.298119 0.00257523 0)
(0.298139 0.00279779 0)
(0.29816 0.00301781 0)
(0.298183 0.00323506 0)
(0.298208 0.0034494 0)
(0.298234 0.00366078 0)
(0.298262 0.00386847 0)
(0.299036 -0.000301451 0)
(0.299034 -0.000138193 0)
(0.299032 2.55021e-05 0)
(0.299031 0.000189472 0)
(0.299031 0.000353552 0)
(0.299032 0.000517575 0)
(0.299034 0.000681372 0)
(0.299037 0.000844774 0)
(0.299041 0.00100761 0)
(0.299046 0.00116972 0)
(0.299051 0.00133093 0)
(0.299058 0.00149107 0)
(0.299066 0.00164998 0)
(0.299074 0.00180749 0)
(0.299083 0.00196345 0)
(0.299093 0.00211768 0)
(0.299104 0.00227003 0)
(0.299116 0.00242041 0)
(0.299129 0.00256879 0)
(0.299142 0.0027145 0)
(0.299682 -0.000175003 0)
(0.299681 -7.84891e-05 0)
(0.29968 1.82558e-05 0)
(0.299679 0.000115136 0)
(0.299679 0.000212057 0)
(0.29968 0.000308922 0)
(0.29968 0.000405633 0)
(0.299681 0.000502093 0)
(0.299682 0.000598203 0)
(0.299683 0.000693867 0)
(0.299685 0.000788987 0)
(0.299687 0.000883468 0)
(0.299689 0.000977214 0)
(0.299692 0.00107013 0)
(0.299695 0.00116213 0)
(0.299697 0.00125311 0)
(0.2997 0.00134298 0)
(0.299704 0.00143169 0)
(0.299707 0.00151929 0)
(0.29971 0.00160553 0)
(0.299989 -5.83977e-05 0)
(0.299989 -2.62064e-05 0)
(0.299989 6.06804e-06 0)
(0.299989 3.83982e-05 0)
(0.299989 7.07524e-05 0)
(0.29999 0.000103101 0)
(0.29999 0.000135414 0)
(0.29999 0.000167662 0)
(0.29999 0.000199817 0)
(0.29999 0.000231851 0)
(0.29999 0.000263735 0)
(0.29999 0.000295445 0)
(0.29999 0.000326956 0)
(0.29999 0.000358247 0)
(0.29999 0.000389296 0)
(0.299989 0.000420082 0)
(0.299989 0.000450593 0)
(0.299989 0.000480895 0)
(0.299989 0.000511103 0)
(0.299989 0.000540671 0)
(0.279866 -0.0916095 0)
(0.278368 -0.0943151 0)
(0.276939 -0.097421 0)
(0.275657 -0.101035 0)
(0.274606 -0.105246 0)
(0.273867 -0.110129 0)
(0.273491 -0.115736 0)
(0.273471 -0.122093 0)
(0.273717 -0.129177 0)
(0.27402 -0.136904 0)
(0.274029 -0.145112 0)
(0.273239 -0.153552 0)
(0.271 -0.161886 0)
(0.266537 -0.169683 0)
(0.258993 -0.176421 0)
(0.247468 -0.181518 0)
(0.231066 -0.18444 0)
(0.208928 -0.184734 0)
(0.180198 -0.181338 0)
(0.14387 -0.170769 0)
(0.274728 -0.0722226 0)
(0.272417 -0.0726913 0)
(0.26976 -0.0731814 0)
(0.266759 -0.0736577 0)
(0.263412 -0.0741595 0)
(0.259735 -0.074742 0)
(0.255762 -0.0754694 0)
(0.25155 -0.0764162 0)
(0.24718 -0.077661 0)
(0.242746 -0.0792769 0)
(0.238337 -0.0813165 0)
(0.234012 -0.0837954 0)
(0.229766 -0.0866724 0)
(0.225498 -0.0898298 0)
(0.220984 -0.093057 0)
(0.215876 -0.0960421 0)
(0.209726 -0.0983639 0)
(0.202027 -0.0994527 0)
(0.192302 -0.0985183 0)
(0.180386 -0.0946755 0)
(0.272732 -0.0713122 0)
(0.271233 -0.0720339 0)
(0.269621 -0.0727046 0)
(0.267868 -0.0733248 0)
(0.265932 -0.0738621 0)
(0.263762 -0.0742819 0)
(0.261298 -0.0745526 0)
(0.258481 -0.0746455 0)
(0.25525 -0.0745373 0)
(0.251556 -0.0742121 0)
(0.247366 -0.0736631 0)
(0.24267 -0.0728914 0)
(0.237488 -0.0719026 0)
(0.231871 -0.0706999 0)
(0.225901 -0.0692753 0)
(0.219684 -0.0675973 0)
(0.213339 -0.0655975 0)
(0.206988 -0.063158 0)
(0.200756 -0.0601117 0)
(0.194793 -0.0562807 0)
(0.268875 -0.0544588 0)
(0.266833 -0.0544362 0)
(0.264717 -0.0544186 0)
(0.262535 -0.0543813 0)
(0.260297 -0.0543222 0)
(0.258013 -0.0542344 0)
(0.255694 -0.0541041 0)
(0.253346 -0.0539112 0)
(0.250971 -0.0536294 0)
(0.248565 -0.0532262 0)
(0.246117 -0.0526638 0)
(0.243607 -0.0519004 0)
(0.241012 -0.0508928 0)
(0.238306 -0.0495983 0)
(0.235464 -0.0479783 0)
(0.23247 -0.0459998 0)
(0.229322 -0.0436375 0)
(0.226037 -0.0408749 0)
(0.222659 -0.0377057 0)
(0.219257 -0.0341363 0)
(0.272192 -0.0488568 0)
(0.270776 -0.0484453 0)
(0.269265 -0.0479482 0)
(0.267657 -0.0473695 0)
(0.265949 -0.0467026 0)
(0.264137 -0.0459414 0)
(0.26222 -0.0450819 0)
(0.2602 -0.0441206 0)
(0.258082 -0.0430545 0)
(0.255874 -0.0418804 0)
(0.25359 -0.0405946 0)
(0.251248 -0.0391917 0)
(0.248868 -0.0376643 0)
(0.246474 -0.0360027 0)
(0.244091 -0.0341942 0)
(0.241745 -0.0322241 0)
(0.239461 -0.0300762 0)
(0.237265 -0.0277347 0)
(0.23518 -0.0251856 0)
(0.233229 -0.0224196 0)
(0.272964 -0.0391565 0)
(0.271667 -0.0386706 0)
(0.270355 -0.0381393 0)
(0.26903 -0.0375538 0)
(0.267693 -0.0369072 0)
(0.266346 -0.0361925 0)
(0.26499 -0.0354018 0)
(0.263627 -0.0345266 0)
(0.262257 -0.0335586 0)
(0.26088 -0.0324893 0)
(0.259499 -0.0313109 0)
(0.258113 -0.0300162 0)
(0.256724 -0.0285992 0)
(0.255336 -0.0270552 0)
(0.253952 -0.0253812 0)
(0.252581 -0.0235757 0)
(0.251231 -0.0216392 0)
(0.249915 -0.0195736 0)
(0.248646 -0.0173826 0)
(0.247441 -0.0150716 0)
(0.27669 -0.0334614 0)
(0.275717 -0.0328058 0)
(0.274714 -0.032094 0)
(0.273683 -0.0313286 0)
(0.272626 -0.0305077 0)
(0.271547 -0.0296293 0)
(0.270448 -0.0286921 0)
(0.269333 -0.0276946 0)
(0.268209 -0.0266352 0)
(0.26708 -0.0255125 0)
(0.265954 -0.0243248 0)
(0.264836 -0.0230701 0)
(0.263736 -0.0217466 0)
(0.26266 -0.0203524 0)
(0.261617 -0.0188857 0)
(0.260614 -0.017345 0)
(0.259659 -0.0157292 0)
(0.25876 -0.0140378 0)
(0.257924 -0.0122714 0)
(0.257159 -0.0104314 0)
(0.27932 -0.0276267 0)
(0.278543 -0.0270089 0)
(0.277764 -0.0263507 0)
(0.276985 -0.0256514 0)
(0.276207 -0.0249084 0)
(0.275431 -0.0241191 0)
(0.274659 -0.0232816 0)
(0.273893 -0.0223937 0)
(0.273134 -0.0214538 0)
(0.272384 -0.0204605 0)
(0.271646 -0.0194124 0)
(0.270922 -0.018309 0)
(0.270215 -0.0171499 0)
(0.269528 -0.0159353 0)
(0.268863 -0.0146657 0)
(0.268225 -0.0133423 0)
(0.267619 -0.0119666 0)
(0.267047 -0.0105407 0)
(0.266516 -0.00906719 0)
(0.26603 -0.00754899 0)
(0.282663 -0.0233253 0)
(0.282071 -0.0226957 0)
(0.281474 -0.0220312 0)
(0.280874 -0.0213337 0)
(0.280272 -0.0206025 0)
(0.27967 -0.0198369 0)
(0.279069 -0.0190366 0)
(0.278473 -0.0182014 0)
(0.277884 -0.017331 0)
(0.277303 -0.0164253 0)
(0.276735 -0.0154843 0)
(0.276182 -0.014508 0)
(0.275647 -0.0134965 0)
(0.275132 -0.0124501 0)
(0.274642 -0.0113692 0)
(0.274178 -0.0102546 0)
(0.273744 -0.00910714 0)
(0.273342 -0.00792792 0)
(0.272975 -0.0067184 0)
(0.272646 -0.00548032 0)
(0.285462 -0.0195236 0)
(0.285012 -0.0189548 0)
(0.284565 -0.0183592 0)
(0.284121 -0.0177379 0)
(0.283681 -0.0170902 0)
(0.283247 -0.0164154 0)
(0.28282 -0.0157131 0)
(0.2824 -0.0149831 0)
(0.28199 -0.0142253 0)
(0.28159 -0.0134397 0)
(0.281201 -0.0126264 0)
(0.280826 -0.0117858 0)
(0.280465 -0.0109183 0)
(0.28012 -0.0100247 0)
(0.279793 -0.00910574 0)
(0.279485 -0.00816241 0)
(0.279199 -0.0071959 0)
(0.278935 -0.00620757 0)
(0.278695 -0.00519891 0)
(0.278482 -0.00417157 0)
(0.288229 -0.0164315 0)
(0.287891 -0.0159058 0)
(0.287553 -0.0153588 0)
(0.287219 -0.014792 0)
(0.286887 -0.0142052 0)
(0.28656 -0.0135982 0)
(0.286237 -0.012971 0)
(0.285921 -0.012324 0)
(0.285612 -0.0116573 0)
(0.285312 -0.0109711 0)
(0.285022 -0.0102658 0)
(0.284742 -0.00954179 0)
(0.284475 -0.00879957 0)
(0.284221 -0.00803967 0)
(0.283982 -0.00726276 0)
(0.283759 -0.00646956 0)
(0.283553 -0.00566091 0)
(0.283365 -0.00483774 0)
(0.283196 -0.0040011 0)
(0.283047 -0.00315212 0)
(0.290619 -0.0137738 0)
(0.29037 -0.0133119 0)
(0.290124 -0.0128334 0)
(0.289882 -0.0123396 0)
(0.289643 -0.0118302 0)
(0.289409 -0.0113051 0)
(0.289181 -0.0107644 0)
(0.288958 -0.0102083 0)
(0.288742 -0.00963698 0)
(0.288533 -0.00905069 0)
(0.288333 -0.00844978 0)
(0.288141 -0.00783465 0)
(0.287958 -0.00720578 0)
(0.287785 -0.00656372 0)
(0.287624 -0.00590908 0)
(0.287473 -0.00524254 0)
(0.287336 -0.00456485 0)
(0.287211 -0.00387684 0)
(0.287099 -0.00317938 0)
(0.287002 -0.00247341 0)
(0.292775 -0.011493 0)
(0.292593 -0.0110872 0)
(0.292414 -0.0106686 0)
(0.292237 -0.0102383 0)
(0.292063 -0.00979609 0)
(0.291893 -0.00934209 0)
(0.291727 -0.00887645 0)
(0.291565 -0.00839943 0)
(0.291408 -0.00791126 0)
(0.291257 -0.00741224 0)
(0.291111 -0.0069027 0)
(0.290973 -0.006383 0)
(0.290841 -0.00585355 0)
(0.290718 -0.00531479 0)
(0.290602 -0.00476721 0)
(0.290495 -0.00421133 0)
(0.290398 -0.00364772 0)
(0.290309 -0.00307699 0)
(0.290231 -0.0024998 0)
(0.290164 -0.00191682 0)
(0.294616 -0.0095027 0)
(0.294488 -0.00915744 0)
(0.294363 -0.00880218 0)
(0.29424 -0.00843788 0)
(0.29412 -0.00806446 0)
(0.294003 -0.00768195 0)
(0.293889 -0.0072905 0)
(0.293779 -0.00689032 0)
(0.293672 -0.00648163 0)
(0.29357 -0.00606468 0)
(0.293472 -0.00563974 0)
(0.293379 -0.00520712 0)
(0.293291 -0.00476717 0)
(0.293209 -0.00432026 0)
(0.293132 -0.0038668 0)
(0.293062 -0.0034072 0)
(0.292998 -0.00294195 0)
(0.29294 -0.00247152 0)
(0.29289 -0.00199643 0)
(0.292847 -0.00151723 0)
(0.296184 -0.00772612 0)
(0.296097 -0.00743702 0)
(0.296011 -0.00714033 0)
(0.295927 -0.00683678 0)
(0.295846 -0.00652636 0)
(0.295766 -0.0062091 0)
(0.295688 -0.00588518 0)
(0.295613 -0.00555477 0)
(0.29554 -0.00521809 0)
(0.295471 -0.00487535 0)
(0.295404 -0.00452677 0)
(0.295341 -0.00417263 0)
(0.295282 -0.0038132 0)
(0.295226 -0.00344876 0)
(0.295174 -0.00307964 0)
(0.295127 -0.00270616 0)
(0.295084 -0.00232869 0)
(0.295045 -0.00194758 0)
(0.295011 -0.00156323 0)
(0.294983 -0.00117604 0)
(0.29747 -0.00612632 0)
(0.297415 -0.00589321 0)
(0.297361 -0.0056543 0)
(0.297308 -0.00541029 0)
(0.297257 -0.00516112 0)
(0.297207 -0.00490684 0)
(0.297158 -0.00464757 0)
(0.297111 -0.00438345 0)
(0.297066 -0.00411466 0)
(0.297023 -0.00384136 0)
(0.296982 -0.00356373 0)
(0.296944 -0.00328198 0)
(0.296907 -0.00299632 0)
(0.296873 -0.00270699 0)
(0.296842 -0.00241422 0)
(0.296813 -0.00211827 0)
(0.296787 -0.00181941 0)
(0.296764 -0.00151793 0)
(0.296743 -0.00121411 0)
(0.296726 -0.00090827 0)
(0.298489 -0.00464563 0)
(0.298457 -0.00446595 0)
(0.298425 -0.00428204 0)
(0.298395 -0.00409448 0)
(0.298365 -0.00390322 0)
(0.298335 -0.00370828 0)
(0.298307 -0.00350976 0)
(0.29828 -0.00330779 0)
(0.298253 -0.0031025 0)
(0.298228 -0.00289402 0)
(0.298204 -0.00268249 0)
(0.298181 -0.00246806 0)
(0.29816 -0.0022509 0)
(0.29814 -0.00203117 0)
(0.298122 -0.00180905 0)
(0.298105 -0.00158473 0)
(0.298089 -0.00135841 0)
(0.298076 -0.00113029 0)
(0.298064 -0.000900579 0)
(0.298054 -0.000669504 0)
(0.299246 -0.00326097 0)
(0.299231 -0.00313396 0)
(0.299215 -0.00300396 0)
(0.299201 -0.00287147 0)
(0.299186 -0.00273646 0)
(0.299172 -0.00259894 0)
(0.299159 -0.00245899 0)
(0.299146 -0.00231669 0)
(0.299133 -0.00217214 0)
(0.299121 -0.00202542 0)
(0.29911 -0.00187664 0)
(0.299099 -0.00172591 0)
(0.299089 -0.00157332 0)
(0.29908 -0.00141901 0)
(0.299071 -0.00126309 0)
(0.299063 -0.00110569 0)
(0.299056 -0.000946956 0)
(0.29905 -0.000787016 0)
(0.299045 -0.000626018 0)
(0.29904 -0.000464112 0)
(0.299748 -0.00193155 0)
(0.299743 -0.00185569 0)
(0.299739 -0.00177823 0)
(0.299735 -0.00169936 0)
(0.299731 -0.00161901 0)
(0.299726 -0.00153719 0)
(0.299722 -0.00145396 0)
(0.299718 -0.00136937 0)
(0.299714 -0.00128348 0)
(0.29971 -0.00119634 0)
(0.299706 -0.00110802 0)
(0.299703 -0.00101857 0)
(0.299699 -0.000928061 0)
(0.299696 -0.000836568 0)
(0.299693 -0.00074416 0)
(0.299691 -0.000650916 0)
(0.299688 -0.000556914 0)
(0.299686 -0.000462235 0)
(0.299684 -0.000366965 0)
(0.299683 -0.000271192 0)
(0.299989 -0.000647901 0)
(0.299989 -0.000621966 0)
(0.29999 -0.000595352 0)
(0.29999 -0.0005685 0)
(0.29999 -0.000541305 0)
(0.29999 -0.000513702 0)
(0.29999 -0.000485691 0)
(0.29999 -0.00045728 0)
(0.29999 -0.00042848 0)
(0.29999 -0.000399299 0)
(0.29999 -0.000369752 0)
(0.29999 -0.000339854 0)
(0.29999 -0.000309622 0)
(0.29999 -0.000279076 0)
(0.29999 -0.000248238 0)
(0.29999 -0.000217129 0)
(0.29999 -0.000185773 0)
(0.29999 -0.000154196 0)
(0.299989 -0.000122424 0)
(0.299989 -9.04811e-05 0)
(0.0661218 -0.104714 0)
(0.0421319 -0.0804271 0)
(0.0286112 -0.0607172 0)
(0.0201699 -0.0460495 0)
(0.0145151 -0.0347817 0)
(0.0105451 -0.0259093 0)
(0.00766581 -0.0189001 0)
(0.00552709 -0.0133902 0)
(0.00390981 -0.00909697 0)
(0.0026705 -0.00579973 0)
(0.00171176 -0.00332382 0)
(0.00096574 -0.00152773 0)
(0.000384653 -0.000294009 0)
(-6.46713e-05 0.000476172 0)
(-0.000403752 0.000872665 0)
(-0.000641293 0.000980781 0)
(-0.000772926 0.00086645 0)
(-0.000788843 0.000600913 0)
(-0.000657962 0.000290013 0)
(-0.000321034 6.90717e-05 0)
(0.116019 -0.116492 0)
(0.0910306 -0.101721 0)
(0.0726719 -0.0864131 0)
(0.0586134 -0.0725543 0)
(0.0474845 -0.0601299 0)
(0.0384747 -0.049105 0)
(0.0310633 -0.0394744 0)
(0.0248956 -0.0311856 0)