/*--------------------------------*- C++ -*----------------------------------*\
| =========                 |                                                 |
| \\      /  F ield         | OpenFOAM: The Open Source CFD Toolbox           |
|  \\    /   O peration     | Version:  v1806                                 |
|   \\  /    A nd           | Web:      www.OpenFOAM.com                      |
|    \\/     M anipulation  |                                                 |
\*---------------------------------------------------------------------------*/
FoamFile
{
    version     2.0;
    format      ascii;
    class       volVectorField;
    location    "290";
    object      U;
}
// * * * * * * * * * * * * * * * * * * * * * * * * * * * * * * * * * * * * * //

dimensions      [0 1 -1 0 0 0 0];


internalField   nonuniform List<vector> 
2400
(
(0.299999 1.99035e-05 0)
(0.299994 -0.000415015 0)
(0.29999 -0.000366867 0)
(0.299978 -0.00087563 0)
(0.299968 -0.00084222 0)
(0.29994 -0.00149414 0)
(0.29992 -0.00153395 0)
(0.299869 -0.00235754 0)
(0.299839 -0.00256707 0)
(0.299757 -0.00366306 0)
(0.299703 -0.00413709 0)
(0.299586 -0.00550988 0)
(0.299512 -0.00640899 0)
(0.29936 -0.00814627 0)
(0.29926 -0.00950842 0)
(0.299112 -0.0114258 0)
(0.299036 -0.0131235 0)
(0.298968 -0.0149027 0)
(0.298996 -0.0162588 0)
(0.29912 -0.0171001 0)
(0.299996 2.43269e-05 0)
(0.299989 -0.000418758 0)
(0.299977 -0.00035553 0)
(0.299961 -0.000877729 0)
(0.299936 -0.000823092 0)
(0.299896 -0.00149457 0)
(0.299855 -0.00150297 0)
(0.299784 -0.00235532 0)
(0.299726 -0.00252078 0)
(0.299612 -0.00365536 0)
(0.299525 -0.00407068 0)
(0.29936 -0.00549691 0)
(0.299255 -0.00632571 0)
(0.299049 -0.00812639 0)
(0.298937 -0.00942316 0)
(0.298757 -0.0114132 0)
(0.298731 -0.0130822 0)
(0.298724 -0.014925 0)
(0.298904 -0.0163126 0)
(0.299232 -0.0171914 0)
(0.299992 3.1686e-05 0)
(0.299984 -0.000424426 0)
(0.299961 -0.000336607 0)
(0.29994 -0.000880823 0)
(0.299895 -0.000791205 0)
(0.29984 -0.00149562 0)
(0.299771 -0.00145256 0)
(0.299672 -0.00235367 0)
(0.299577 -0.00244614 0)
(0.299417 -0.00364839 0)
(0.299284 -0.00396577 0)
(0.299051 -0.00548645 0)
(0.2989 -0.00619546 0)
(0.298611 -0.00811571 0)
(0.298477 -0.00929613 0)
(0.298235 -0.0114291 0)
(0.298258 -0.0130368 0)
(0.2983 -0.015013 0)
(0.298662 -0.0164381 0)
(0.299233 -0.0173947 0)
(0.299989 4.21455e-05 0)
(0.29998 -0.000432085 0)
(0.299946 -0.000309798 0)
(0.29992 -0.000884814 0)
(0.299854 -0.000746072 0)
(0.299783 -0.0014972 0)
(0.299683 -0.00138168 0)
(0.299554 -0.00235245 0)
(0.299418 -0.00234147 0)
(0.299207 -0.00364244 0)
(0.299023 -0.00381911 0)
(0.298714 -0.00547967 0)
(0.298511 -0.00601308 0)
(0.298123 -0.00811754 0)
(0.297958 -0.00911804 0)
(0.29763 -0.0114795 0)
(0.297702 -0.0129763 0)
(0.297763 -0.0151751 0)
(0.298325 -0.0166361 0)
(0.299146 -0.0177057 0)
(0.299985 5.51589e-05 0)
(0.299977 -0.00044115 0)
(0.299931 -0.000275572 0)
(0.2999 -0.000888838 0)
(0.299812 -0.000688073 0)
(0.299726 -0.00149789 0)
(0.299595 -0.00129024 0)
(0.299437 -0.00234957 0)
(0.299258 -0.00220573 0)
(0.298996 -0.00363452 0)
(0.298758 -0.00362762 0)
(0.29837 -0.00547331 0)
(0.298109 -0.00577144 0)
(0.297613 -0.00812916 0)
(0.297412 -0.00887432 0)
(0.296973 -0.0115659 0)
(0.297096 -0.0128777 0)
(0.297138 -0.0154206 0)
(0.297925 -0.016891 0)
(0.298997 -0.0181409 0)
(0.299982 6.99985e-05 0)
(0.299976 -0.000450618 0)
(0.299917 -0.000235078 0)
(0.299881 -0.000891701 0)
(0.299773 -0.000618698 0)
(0.299672 -0.00149609 0)
(0.299509 -0.00117998 0)
(0.299323 -0.00234298 0)
(0.2991 -0.00204044 0)
(0.298789 -0.00362223 0)
(0.298494 -0.00339169 0)
(0.298027 -0.00546498 0)
(0.297702 -0.00546711 0)
(0.29709 -0.0081498 0)
(0.296848 -0.00855378 0)
(0.296272 -0.0116927 0)
(0.296449 -0.0127185 0)
(0.296423 -0.0157661 0)
(0.297474 -0.0171833 0)
(0.298784 -0.0187256 0)
(0.299979 8.58236e-05 0)
(0.299976 -0.00045935 0)
(0.299905 -0.000189728 0)
(0.299865 -0.000892053 0)
(0.299734 -0.000539883 0)
(0.299621 -0.00149007 0)
(0.299426 -0.00105333 0)
(0.299214 -0.00233057 0)
(0.298946 -0.00184825 0)
(0.298588 -0.00360314 0)
(0.298234 -0.00311331 0)
(0.297689 -0.00545212 0)
(0.297294 -0.00509886 0)
(0.296561 -0.00817792 0)
(0.296267 -0.00814697 0)
(0.295528 -0.0118633 0)
(0.295758 -0.0124748 0)
(0.295604 -0.0162305 0)
(0.296972 -0.0174873 0)
(0.298488 -0.0194932 0)
(0.299977 0.000101665 0)
(0.299978 -0.000466047 0)
(0.299893 -0.000141167 0)
(0.29985 -0.00088833 0)
(0.299698 -0.000453912 0)
(0.299574 -0.00147778 0)
(0.299346 -0.000913269 0)
(0.299111 -0.00230974 0)
(0.298797 -0.00163266 0)
(0.298395 -0.00357401 0)
(0.297978 -0.0027957 0)
(0.297357 -0.00543069 0)
(0.296886 -0.00466721 0)
(0.296026 -0.00820917 0)
(0.295668 -0.00764617 0)
(0.294739 -0.012077 0)
(0.295014 -0.0121227 0)
(0.294663 -0.0168323 0)
(0.29641 -0.0177716 0)
(0.298072 -0.020489 0)
(0.299974 0.000116433 0)
(0.299983 -0.000469226 0)
(0.299882 -9.13064e-05 0)
(0.299839 -0.000878715 0)
(0.299662 -0.000363464 0)
(0.299532 -0.00145679 0)
(0.299269 -0.000763398 0)
(0.299016 -0.00227726 0)
(0.298653 -0.0013981 0)
(0.298212 -0.0035305 0)
(0.297729 -0.00244356 0)
(0.297035 -0.00539476 0)
(0.296479 -0.00417487 0)
(0.295488 -0.00823572 0)
(0.295049 -0.00704624 0)
(0.293905 -0.0123276 0)
(0.294207 -0.0116389 0)
(0.293581 -0.0175866 0)
(0.295773 -0.0180002 0)
(0.297482 -0.0217727 0)
(0.29997 0.000128921 0)
(0.299993 -0.000467199 0)
(0.29987 -4.23615e-05 0)
(0.299832 -0.000861117 0)
(0.299626 -0.000271682 0)
(0.299497 -0.00142417 0)
(0.299193 -0.000608031 0)
(0.298932 -0.00222915 0)
(0.298512 -0.00115015 0)
(0.298043 -0.00346714 0)
(0.297485 -0.00206338 0)
(0.296726 -0.0053364 0)
(0.296073 -0.00362722 0)
(0.294952 -0.00824592 0)
(0.294408 -0.00634545 0)
(0.293027 -0.012602 0)
(0.293323 -0.011002 0)
(0.292341 -0.0185026 0)
(0.295039 -0.018132 0)
(0.296649 -0.0234228 0)
(0.299963 0.0001378 0)
(0.300009 -0.00045806 0)
(0.299855 3.1792e-06 0)
(0.299835 -0.000833061 0)
(0.299586 -0.000182254 0)
(0.299476 -0.00137641 0)
(0.299114 -0.000452378 0)
(0.298865 -0.0021605 0)
(0.298369 -0.000895806 0)
(0.297896 -0.00337701 0)
(0.29724 -0.00166372 0)
(0.296441 -0.00524543 0)
(0.295664 -0.00303279 0)
(0.294428 -0.00822418 0)
(0.293742 -0.00554623 0)
(0.292111 -0.0128787 0)
(0.292349 -0.0101932 0)
(0.290929 -0.01958 0)
(0.294174 -0.0181186 0)
(0.295487 -0.0255462 0)
(0.299952 0.000141609 0)
(0.300033 -0.000439607 0)
(0.299834 4.23839e-05 0)
(0.299849 -0.000791585 0)
(0.299537 -9.96323e-05 0)
(0.299472 -0.00130911 0)
(0.299024 -0.00030293 0)
(0.298825 -0.002065 0)
(0.298214 -0.000644003 0)
(0.297786 -0.00325114 0)
(0.296982 -0.00125597 0)
(0.2962 -0.00510889 0)
(0.295237 -0.00240388 0)
(0.293939 -0.00815083 0)
(0.293037 -0.00465599 0)
(0.291176 -0.0131284 0)
(0.291263 -0.0091968 0)
(0.289336 -0.020807 0)
(0.293133 -0.0178997 0)
(0.293898 -0.0282958 0)
(0.299938 0.000138865 0)
(0.300065 -0.000409465 0)
(0.299806 7.1914e-05 0)
(0.299876 -0.000733159 0)
(0.299477 -2.93096e-05 0)
(0.299493 -0.00121677 0)
(0.298916 -0.000168133 0)
(0.298825 -0.00193415 0)
(0.298031 -0.000406959 0)
(0.297736 -0.00307697 0)
(0.296684 -0.00085625 0)
(0.296039 -0.00490911 0)
(0.294755 -0.00175851 0)
(0.293538 -0.00800057 0)
(0.292249 -0.00368871 0)
(0.290278 -0.0133138 0)
(0.290022 -0.00800051 0)
(0.28758 -0.0221554 0)
(0.29185 -0.0173975 0)
(0.291761 -0.0318643 0)
(0.299924 0.000128332 0)
(0.3001 -0.000365642 0)
(0.299775 8.87928e-05 0)
(0.299913 -0.000654448 0)
(0.299407 2.37952e-05 0)
(0.299537 -0.00109283 0)
(0.298786 -5.7926e-05 0)
(0.29887 -0.00175676 0)
(0.297807 -0.000201766 0)
(0.297766 -0.00283601 0)
(0.296315 -0.000489941 0)
(0.296005 -0.00461864 0)
(0.294156 -0.00112663 0)
(0.29331 -0.0077355 0)
(0.29128 -0.00266957 0)
(0.289547 -0.013387 0)
(0.2885 -0.00660203 0)
(0.285765 -0.0235787 0)
(0.290212 -0.0165235 0)
(0.288924 -0.0364233 0)
(0.299918 0.000109403 0)
(0.300127 -0.000307027 0)
(0.299751 9.09792e-05 0)
(0.299947 -0.000553109 0)
(0.299341 5.56263e-05 0)
(0.299588 -0.000932372 0)
(0.298652 1.95831e-05 0)
(0.298945 -0.00152134 0)
(0.297555 -4.69507e-05 0)
(0.297871 -0.00250493 0)
(0.295867 -0.000193565 0)
(0.296127 -0.0041926 0)
(0.293384 -0.000567634 0)
(0.293356 -0.00728731 0)
(0.289973 -0.00165447 0)
(0.289202 -0.0132691 0)
(0.286402 -0.00501707 0)
(0.28421 -0.0250404 0)
(0.28791 -0.0151469 0)
(0.285286 -0.0423037 0)
(0.299931 8.26724e-05 0)
(0.300129 -0.000234082 0)
(0.299751 7.8167e-05 0)
(0.29995 -0.000428993 0)
(0.299309 6.42459e-05 0)
(0.299608 -0.000734135 0)
(0.298555 6.01258e-05 0)
(0.298998 -0.00122265 0)
(0.297334 4.81092e-05 0)
(0.297987 -0.00206485 0)
(0.295408 1.9602e-06 0)
(0.296345 -0.00357942 0)
(0.292476 -0.000166688 0)
(0.293684 -0.00654233 0)
(0.288227 -0.000780774 0)
(0.289452 -0.0127773 0)
(0.283249 -0.00332047 0)
(0.283551 -0.0265011 0)
(0.283971 -0.0130438 0)
(0.28127 -0.050473 0)
(0.299973 5.03626e-05 0)
(0.300087 -0.000149591 0)
(0.299798 5.2764e-05 0)
(0.299895 -0.000285944 0)
(0.299348 5.28114e-05 0)
(0.299546 -0.000502323 0)
(0.298563 6.57911e-05 0)
(0.298944 -0.00086484 0)
(0.297257 8.36934e-05 0)
(0.297973 -0.00151661 0)
(0.295124 9.35143e-05 0)
(0.296444 -0.00276182 0)
(0.291698 5.33249e-05 0)
(0.294027 -0.00538095 0)
(0.286298 -0.000228676 0)
(0.290143 -0.011559 0)
(0.278769 -0.00177074 0)
(0.284353 -0.0275437 0)
(0.276208 -0.0101001 0)
(0.278988 -0.0623366 0)
(0.300049 1.58787e-05 0)
(0.299991 -5.85875e-05 0)
(0.299902 1.91033e-05 0)
(0.299759 -0.000131317 0)
(0.299486 2.61837e-05 0)
(0.299361 -0.000249864 0)
(0.298737 4.46547e-05 0)
(0.298698 -0.00046507 0)
(0.297451 6.76469e-05 0)
(0.297662 -0.000882419 0)
(0.29527 8.20754e-05 0)
(0.296092 -0.00175555 0)
(0.291575 4.72559e-05 0)
(0.293736 -0.00379849 0)
(0.285144 -0.000139889 0)
(0.290242 -0.009295 0)
(0.274098 -0.000978408 0)
(0.285585 -0.0268299 0)
(0.262344 -0.00628429 0)
(0.282287 -0.0780382 0)
(0.300151 -1.3208e-05 0)
(0.299851 2.93516e-05 0)
(0.300054 -9.478e-06 0)
(0.299554 2.29488e-05 0)
(0.299717 1.09916e-05 0)
(0.299058 6.08683e-06 0)
(0.299082 3.4501e-05 0)
(0.298242 -5.80487e-05 0)
(0.297959 6.24825e-05 0)
(0.296971 -0.000227786 0)
(0.296003 7.74165e-05 0)
(0.295035 -0.000677842 0)
(0.29255 3.43166e-05 0)
(0.292138 -0.0019285 0)
(0.286094 -0.000233807 0)
(0.287903 -0.00588188 0)
(0.272802 -0.00136484 0)
(0.282998 -0.021941 0)
(0.246664 -0.00606933 0)
(0.290875 -0.0980533 0)
(0.300252 -3.92127e-05 0)
(0.299699 0.000118611 0)
(0.300218 -4.3663e-05 0)
(0.299332 0.000175542 0)
(0.299983 -1.45617e-05 0)
(0.298709 0.000259497 0)
(0.299507 1.39363e-05 0)
(0.297688 0.000351423 0)
(0.298646 4.25826e-05 0)
(0.296066 0.000443074 0)
(0.297126 4.58447e-05 0)
(0.293506 0.000446744 0)
(0.294431 -3.88368e-05 0)
(0.289388 6.69884e-05 0)
(0.289308 -0.000448281 0)
(0.282428 -0.0020361 0)
(0.278014 -0.00172064 0)
(0.269958 -0.0144246 0)
(0.247561 -0.0064442 0)
(0.286639 -0.140599 0)
(0.299262 -0.0170991 0)
(0.29929 -0.0170893 0)
(0.299315 -0.017071 0)
(0.299339 -0.0170449 0)
(0.299363 -0.0170111 0)
(0.299388 -0.0169696 0)
(0.299414 -0.0169206 0)
(0.299439 -0.0168641 0)
(0.299465 -0.0168003 0)
(0.29949 -0.0167295 0)
(0.299496 -0.0172188 0)
(0.299545 -0.0172148 0)
(0.299591 -0.0172019 0)
(0.299637 -0.0171803 0)
(0.299683 -0.01715 0)
(0.299729 -0.0171113 0)
(0.299776 -0.0170642 0)
(0.299822 -0.0170089 0)
(0.299867 -0.0169455 0)
(0.299913 -0.0168744 0)
(0.29967 -0.017428 0)
(0.299752 -0.0174241 0)
(0.299831 -0.0174102 0)
(0.299906 -0.0173869 0)
(0.299982 -0.0173544 0)
(0.300057 -0.0173128 0)
(0.300131 -0.0172623 0)
(0.300205 -0.017203 0)
(0.300276 -0.0171353 0)
(0.300346 -0.0170595 0)
(0.299776 -0.0177501 0)
(0.299895 -0.0177473 0)
(0.300009 -0.0177335 0)
(0.300119 -0.0177091 0)
(0.300227 -0.0176744 0)
(0.300336 -0.0176294 0)
(0.300443 -0.0175744 0)
(0.300548 -0.0175095 0)
(0.30065 -0.017435 0)
(0.30075 -0.0173515 0)
(0.299843 -0.0182013 0)
(0.300004 -0.0181997 0)
(0.300158 -0.0181851 0)
(0.300307 -0.018158 0)
(0.300455 -0.0181186 0)
(0.300602 -0.0180674 0)
(0.300746 -0.0180044 0)
(0.300888 -0.0179301 0)
(0.301025 -0.0178448 0)
(0.301159 -0.0177491 0)
(0.299886 -0.0188054 0)
(0.300097 -0.0188043 0)
(0.3003 -0.0187872 0)
(0.300497 -0.0187551 0)
(0.300691 -0.0187084 0)
(0.300882 -0.0186475 0)
(0.30107 -0.0185728 0)
(0.301254 -0.0184847 0)
(0.301432 -0.0183837 0)
(0.301605 -0.0182706 0)
(0.299915 -0.0195948 0)
(0.300189 -0.0195926 0)
(0.300452 -0.0195701 0)
(0.300706 -0.0195292 0)
(0.300954 -0.0194709 0)
(0.301199 -0.0193956 0)
(0.301439 -0.0193036 0)
(0.301673 -0.0191957 0)
(0.301899 -0.0190724 0)
(0.302117 -0.0189349 0)
(0.299934 -0.0206122 0)
(0.300292 -0.0206059 0)
(0.30063 -0.0205731 0)
(0.300953 -0.0205178 0)
(0.301267 -0.0204415 0)
(0.301576 -0.0203447 0)
(0.301879 -0.0202279 0)
(0.302172 -0.0200918 0)
(0.302455 -0.0199374 0)
(0.302727 -0.0197661 0)
(0.299952 -0.0219124 0)
(0.300423 -0.0218968 0)
(0.300858 -0.0218463 0)
(0.301264 -0.0217682 0)
(0.301657 -0.0216649 0)
(0.302044 -0.0215368 0)
(0.302422 -0.0213844 0)
(0.302787 -0.0212087 0)
(0.303138 -0.021011 0)
(0.303473 -0.0207936 0)
(0.299983 -0.023565 0)
(0.300611 -0.0235321 0)
(0.301169 -0.0234529 0)
(0.301675 -0.0233399 0)
(0.302165 -0.0231967 0)
(0.302646 -0.0230235 0)
(0.303115 -0.0228206 0)
(0.303567 -0.0225896 0)
(0.303998 -0.0223323 0)
(0.304407 -0.0220517 0)
(0.300052 -0.025659 0)
(0.300895 -0.025596 0)
(0.30161 -0.0254721 0)
(0.30224 -0.0253069 0)
(0.302844 -0.0251055 0)
(0.303441 -0.0248678 0)
(0.304021 -0.0245939 0)
(0.304576 -0.024286 0)
(0.305103 -0.0239467 0)
(0.3056 -0.0235801 0)
(0.300203 -0.028312 0)
(0.301339 -0.0281977 0)
(0.302254 -0.0280047 0)
(0.303033 -0.0277619 0)
(0.303776 -0.0274762 0)
(0.304512 -0.0271463 0)
(0.305227 -0.0267725 0)
(0.305907 -0.0263579 0)
(0.306548 -0.025906 0)
(0.307148 -0.0254225 0)
(0.300513 -0.0316723 0)
(0.302041 -0.0314756 0)
(0.303207 -0.0311792 0)
(0.304163 -0.0308238 0)
(0.305076 -0.0304173 0)
(0.305983 -0.0299575 0)
(0.306864 -0.0294444 0)
(0.307695 -0.0288825 0)
(0.308472 -0.0282766 0)
(0.309193 -0.0276344 0)
(0.301102 -0.0358937 0)
(0.303153 -0.0355786 0)
(0.304637 -0.0351372 0)
(0.305815 -0.034624 0)
(0.306941 -0.0340489 0)
(0.308067 -0.0334088 0)
(0.309159 -0.0327044 0)
(0.310183 -0.0319419 0)
(0.311131 -0.0311277 0)
(0.312003 -0.0302724 0)
(0.30226 -0.0412616 0)
(0.305025 -0.0407836 0)
(0.306942 -0.0401475 0)
(0.308428 -0.0394209 0)
(0.309848 -0.0386139 0)
(0.31127 -0.037723 0)
(0.312642 -0.0367509 0)
(0.313917 -0.035707 0)
(0.315086 -0.0346013 0)
(0.316151 -0.0334491 0)
(0.304897 -0.0483161 0)
(0.308613 -0.0475575 0)
(0.311113 -0.0466275 0)
(0.313032 -0.0456047 0)
(0.314862 -0.0444911 0)
(0.316678 -0.0432746 0)
(0.3184 -0.0419548 0)
(0.319964 -0.0405423 0)
(0.321359 -0.0390468 0)
(0.322581 -0.0374935 0)
(0.311073 -0.057888 0)
(0.315776 -0.0565259 0)
(0.318714 -0.0549175 0)
(0.320874 -0.0532085 0)
(0.32292 -0.051414 0)
(0.324929 -0.0495159 0)
(0.326773 -0.0475093 0)
(0.328368 -0.045407 0)
(0.329697 -0.0432177 0)
(0.330774 -0.0409885 0)
(0.32181 -0.070955 0)
(0.327157 -0.0690058 0)
(0.329681 -0.0667361 0)
(0.33086 -0.0642395 0)
(0.331746 -0.0615167 0)
(0.332511 -0.0585756 0)
(0.333009 -0.055442 0)
(0.333134 -0.0521487 0)
(0.332885 -0.048695 0)
(0.332267 -0.0451746 0)
(0.319874 -0.0722969 0)
(0.321871 -0.0673016 0)
(0.320427 -0.0630082 0)
(0.317638 -0.0591051 0)
(0.314599 -0.0552871 0)
(0.311398 -0.051466 0)
(0.307911 -0.0476421 0)
(0.304143 -0.0438134 0)
(0.300227 -0.0399441 0)
(0.296026 -0.0360514 0)
(0.258145 -0.0816531 0)
(0.241844 -0.0708571 0)
(0.221565 -0.0613969 0)
(0.203895 -0.0530054 0)
(0.189161 -0.0454021 0)
(0.176212 -0.0385149 0)
(0.164511 -0.032337 0)
(0.154023 -0.0268214 0)
(0.14463 -0.0217677 0)
(0.135954 -0.0161848 0)
(0.299537 -0.0165837 0)
(0.299611 -0.0163213 0)
(0.299685 -0.0160158 0)
(0.299757 -0.015674 0)
(0.299823 -0.0153039 0)
(0.299884 -0.0149137 0)
(0.299939 -0.0145114 0)
(0.299987 -0.0141048 0)
(0.300028 -0.0137015 0)
(0.30006 -0.0133082 0)
(0.300087 -0.0129318 0)
(0.300104 -0.0125775 0)
(0.300116 -0.0122511 0)
(0.300118 -0.0119567 0)
(0.300118 -0.0116988 0)
(0.300104 -0.0114804 0)
(0.300096 -0.0113042 0)
(0.300064 -0.0111737 0)
(0.300054 -0.0110864 0)
(0.3 -0.0110528 0)
(0.299996 -0.0167254 0)
(0.300108 -0.0164544 0)
(0.30021 -0.0161388 0)
(0.300299 -0.0157861 0)
(0.300375 -0.015404 0)
(0.300435 -0.0150008 0)
(0.300481 -0.014585 0)
(0.30051 -0.0141646 0)
(0.300526 -0.0137474 0)
(0.300527 -0.0133404 0)
(0.300516 -0.0129506 0)
(0.30049 -0.0125836 0)
(0.300457 -0.0122452 0)
(0.300408 -0.0119393 0)
(0.30036 -0.0116711 0)
(0.300289 -0.0114428 0)
(0.300236 -0.0112583 0)
(0.300138 -0.0111191 0)
(0.300097 -0.0110261 0)
(0.299957 -0.0109849 0)
(0.300474 -0.0169018 0)
(0.300644 -0.0166151 0)
(0.300795 -0.0162799 0)
(0.300922 -0.0159046 0)
(0.301025 -0.015498 0)
(0.3011 -0.0150694 0)
(0.30115 -0.014628 0)
(0.301173 -0.0141825 0)
(0.301172 -0.0137414 0)
(0.301146 -0.0133119 0)
(0.301101 -0.0129014 0)
(0.301033 -0.0125156 0)
(0.300955 -0.0121605 0)
(0.30085 -0.0118399 0)
(0.30075 -0.0115592 0)
(0.300612 -0.01132 0)
(0.300507 -0.011127 0)
(0.300329 -0.0109803 0)
(0.30025 -0.010883 0)
(0.300002 -0.0108371 0)
(0.300932 -0.0171768 0)
(0.301171 -0.0168589 0)
(0.30138 -0.0164878 0)
(0.301554 -0.0160734 0)
(0.30169 -0.015626 0)
(0.301787 -0.0151561 0)
(0.301845 -0.0146742 0)
(0.301865 -0.0141897 0)
(0.30185 -0.0137118 0)
(0.301801 -0.0132483 0)
(0.301725 -0.012807 0)
(0.301616 -0.0123935 0)
(0.301492 -0.0120143 0)
(0.301334 -0.0116727 0)
(0.301181 -0.0113745 0)
(0.300977 -0.0111205 0)
(0.30082 -0.0109162 0)
(0.300559 -0.0107601 0)
(0.300442 -0.0106574 0)
(0.300082 -0.0106061 0)
(0.301401 -0.0175489 0)
(0.301719 -0.0171856 0)
(0.301992 -0.0167632 0)
(0.302217 -0.0162936 0)
(0.302389 -0.015789 0)
(0.302508 -0.0152619 0)
(0.302574 -0.0147241 0)
(0.302589 -0.0141863 0)
(0.302559 -0.0136586 0)
(0.302483 -0.0131494 0)
(0.302372 -0.0126668 0)
(0.30222 -0.0122167 0)
(0.302049 -0.0118057 0)
(0.301832 -0.0114367 0)
(0.301625 -0.0111159 0)
(0.301351 -0.0108429 0)
(0.30114 -0.0106243 0)
(0.300795 -0.0104563 0)
(0.300638 -0.0103466 0)
(0.300162 -0.0102893 0)
(0.301917 -0.0180343 0)
(0.302322 -0.0176077 0)
(0.302667 -0.0171147 0)
(0.302946 -0.0165701 0)
(0.303156 -0.0159889 0)
(0.303295 -0.0153859 0)
(0.303366 -0.0147748 0)
(0.303372 -0.0141677 0)
(0.303321 -0.0135759 0)
(0.303212 -0.0130085 0)
(0.303061 -0.0124739 0)
(0.302857 -0.0119781 0)
(0.302632 -0.0115279 0)
(0.302352 -0.0111255 0)
(0.302085 -0.0107772 0)
(0.301736 -0.0104816 0)
(0.301467 -0.0102459 0)
(0.301031 -0.0100643 0)
(0.300833 -0.0099464 0)
(0.300235 -0.00988274 0)
(0.30251 -0.0186484 0)
(0.303014 -0.0181358 0)
(0.303439 -0.0175485 0)
(0.303776 -0.0169051 0)
(0.304023 -0.0162242 0)
(0.30418 -0.0155236 0)
(0.304251 -0.0148195 0)
(0.304241 -0.0141256 0)
(0.30416 -0.0134545 0)
(0.304009 -0.0128157 0)
(0.303808 -0.0122183 0)
(0.303545 -0.011668 0)
(0.303257 -0.0111714 0)
(0.302905 -0.0107301 0)
(0.30257 -0.0103503 0)
(0.302138 -0.0100291 0)
(0.301806 -0.00977421 0)
(0.301273 -0.00957781 0)
(0.301029 -0.009451 0)
(0.300302 -0.009381 0)
(0.303214 -0.019411 0)
(0.303832 -0.0187832 0)
(0.304344 -0.0180717 0)
(0.304743 -0.0173001 0)
(0.305025 -0.016492 0)
(0.305193 -0.0156685 0)
(0.305256 -0.0148488 0)
(0.305219 -0.0140486 0)
(0.305098 -0.0132817 0)
(0.304893 -0.012558 0)
(0.30463 -0.011887 0)
(0.304295 -0.0112736 0)
(0.303934 -0.0107243 0)
(0.3035 -0.0102395 0)
(0.303088 -0.00982495 0)
(0.302565 -0.00947624 0)
(0.302162 -0.00920099 0)
(0.301524 -0.00898931 0)
(0.301231 -0.0088534 0)
(0.300365 -0.00877755 0)
(0.304071 -0.0203452 0)
(0.304818 -0.0195643 0)
(0.305426 -0.0186906 0)
(0.305886 -0.0177546 0)
(0.306199 -0.0167857 0)
(0.30637 -0.0158097 0)
(0.306412 -0.0148488 0)
(0.306334 -0.0139209 0)
(0.306156 -0.0130407 0)
(0.305882 -0.0122184 0)
(0.305541 -0.0114632 0)
(0.30512 -0.0107792 0)
(0.304673 -0.010172 0)
(0.304143 -0.00964047 0)
(0.303645 -0.00918938 0)
(0.30302 -0.00881251 0)
(0.30254 -0.00851695 0)
(0.301788 -0.00829069 0)
(0.301442 -0.00814619 0)
(0.30043 -0.00806567 0)
(0.305134 -0.0214771 0)
(0.306027 -0.0204935 0)
(0.306738 -0.0194092 0)
(0.307257 -0.0182636 0)
(0.307591 -0.0170936 0)
(0.307749 -0.0159303 0)
(0.307751 -0.0147995 0)
(0.307612 -0.0137207 0)
(0.307357 -0.0127092 0)
(0.306993 -0.0117749 0)
(0.306556 -0.0109261 0)
(0.306031 -0.0101655 0)
(0.305481 -0.00949707 0)
(0.304843 -0.00891762 0)
(0.304247 -0.00843036 0)
(0.30351 -0.00802666 0)
(0.302945 -0.0077126 0)
(0.302072 -0.00747389 0)
(0.30167 -0.00732241 0)
(0.300503 -0.00723911 0)
(0.306477 -0.0228352 0)
(0.307533 -0.021584 0)
(0.308348 -0.020227 0)
(0.308919 -0.0188156 0)
(0.309257 -0.0173959 0)
(0.309379 -0.0160053 0)
(0.309317 -0.0146728 0)
(0.309089 -0.0134187 0)
(0.308731 -0.0122583 0)
(0.308252 -0.0112 0)
(0.307696 -0.0102505 0)
(0.307047 -0.00940981 0)
(0.306377 -0.00867984 0)
(0.305614 -0.00805407 0)
(0.304907 -0.00753383 0)
(0.304049 -0.00710714 0)
(0.303392 -0.00677878 0)
(0.30239 -0.00653146 0)
(0.301928 -0.00637602 0)
(0.300598 -0.00629239 0)
(0.308198 -0.0244482 0)
(0.309433 -0.0228444 0)
(0.310352 -0.0211358 0)
(0.310959 -0.0193895 0)
(0.311274 -0.0176629 0)
(0.31133 -0.0159997 0)
(0.311168 -0.0144313 0)
(0.310819 -0.0129777 0)
(0.310325 -0.0116524 0)
(0.309701 -0.010461 0)
(0.308998 -0.00940709 0)
(0.3082 -0.00848656 0)
(0.307389 -0.00769834 0)
(0.306483 -0.00703137 0)
(0.305651 -0.00648483 0)
(0.304656 -0.00604177 0)
(0.303897 -0.00570614 0)
(0.302753 -0.00545544 0)
(0.302228 -0.00530078 0)
(0.30072 -0.00521878 0)
(0.310446 -0.026351 0)
(0.311878 -0.0242821 0)
(0.312897 -0.0221214 0)
(0.313515 -0.0199561 0)
(0.313772 -0.0178565 0)
(0.313718 -0.015871 0)
(0.313412 -0.0140309 0)
(0.312895 -0.0123537 0)
(0.312222 -0.0108494 0)
(0.311411 -0.00951888 0)
(0.310523 -0.0083607 0)
(0.309538 -0.00736459 0)
(0.308554 -0.00652542 0)
(0.307471 -0.00582581 0)
(0.306487 -0.00526295 0)
(0.305324 -0.00481246 0)
(0.304443 -0.00447914 0)
(0.303125 -0.00423085 0)
(0.302523 -0.00408323 0)
(0.300795 -0.00400215 0)
(0.313506 -0.0285729 0)
(0.315161 -0.0258886 0)
(0.316266 -0.023145 0)
(0.316851 -0.0204576 0)
(0.316985 -0.0179094 0)
(0.316746 -0.0155488 0)
(0.316215 -0.013401 0)
(0.315447 -0.0114772 0)
(0.31451 -0.00978131 0)
(0.313427 -0.00830717 0)
(0.312271 -0.00704696 0)
(0.31102 -0.00598258 0)
(0.309785 -0.00510282 0)
(0.308449 -0.00438225 0)
(0.307243 -0.00381561 0)
(0.305834 -0.00336898 0)
(0.304773 -0.0030496 0)
(0.303196 -0.00281034 0)
(0.302479 -0.00267751 0)
(0.300421 -0.00259398 0)
(0.317963 -0.0311809 0)
(0.319831 -0.0276676 0)
(0.320927 -0.0241548 0)
(0.321323 -0.0208002 0)
(0.321146 -0.0177007 0)
(0.32052 -0.0148969 0)
(0.319558 -0.0123996 0)
(0.318331 -0.0102053 0)
(0.316922 -0.00830413 0)
(0.315362 -0.00668021 0)
(0.313741 -0.00531821 0)
(0.312032 -0.00419249 0)
(0.310367 -0.0032823 0)
(0.308602 -0.00255414 0)
(0.307012 -0.00199716 0)
(0.305194 -0.00156906 0)
(0.303815 -0.00127624 0)
(0.301814 -0.00105854 0)
(0.30089 -0.000950205 0)
(0.298302 -0.000869329 0)
(0.324588 -0.0344012 0)
(0.326346 -0.0296882 0)
(0.326966 -0.0251032 0)
(0.32662 -0.0208514 0)
(0.325555 -0.0170254 0)
(0.323979 -0.0136503 0)
(0.322054 -0.0107218 0)
(0.319874 -0.00821817 0)
(0.317538 -0.0061042 0)
(0.315083 -0.00433912 0)
(0.312606 -0.00288909 0)
(0.310086 -0.00171946 0)
(0.307665 -0.000799948 0)
(0.305183 -9.20061e-05 0)
(0.302942 0.000430633 0)
(0.300478 0.00080898 0)
(0.298564 0.00105406 0)
(0.295938 0.00121783 0)
(0.294662 0.0012888 0)
(0.291329 0.00133826 0)
(0.332313 -0.0365616 0)
(0.332557 -0.0301953 0)
(0.331193 -0.0243409 0)
(0.328675 -0.019103 0)
(0.325433 -0.0144956 0)
(0.321767 -0.0105155 0)
(0.317881 -0.00715741 0)
(0.313902 -0.00438564 0)
(0.309943 -0.00214137 0)
(0.306039 -0.000356177 0)
(0.30226 0.00104609 0)
(0.298575 0.00212575 0)
(0.295105 0.00293619 0)
(0.291699 0.00351494 0)
(0.288628 0.00391138 0)
(0.285438 0.00414522 0)
(0.282882 0.00427318 0)
(0.279664 0.00428684 0)
(0.277966 0.00427824 0)
(0.274025 0.00418122 0)
(0.330514 -0.0378508 0)
(0.325437 -0.0283364 0)
(0.3191 -0.0204635 0)
(0.31227 -0.0140412 0)
(0.30534 -0.00877947 0)
(0.29853 -0.00449482 0)
(0.291979 -0.00105216 0)
(0.285795 0.00166386 0)
(0.28005 0.00376308 0)
(0.274758 0.00534352 0)
(0.269928 0.00650345 0)
(0.265487 0.00731787 0)
(0.261458 0.00786038 0)
(0.257703 0.00816689 0)
(0.254368 0.00830607 0)
(0.251121 0.00827026 0)
(0.248463 0.00817313 0)
(0.245447 0.00790641 0)
(0.243704 0.00774383 0)
(0.240236 0.00731265 0)
(0.288133 -0.0280399 0)
(0.272993 -0.0176162 0)
(0.259088 -0.00856559 0)
(0.247228 -0.00164381 0)
(0.237346 0.00341014 0)
(0.229075 0.00697964 0)
(0.222126 0.00944136 0)
(0.216303 0.0110894 0)
(0.211454 0.0121456 0)
(0.207422 0.0127668 0)
(0.204071 0.0130633 0)
(0.201261 0.0131111 0)
(0.198913 0.012978 0)
(0.196903 0.0126965 0)
(0.195241 0.0123249 0)
(0.193755 0.01184 0)
(0.19261 0.0113643 0)
(0.191443 0.0107143 0)
(0.190795 0.0103122 0)
(0.189722 0.00940559 0)
(0.128952 0.00551408 0)
(0.122662 0.00852023 0)
(0.118554 0.0113599 0)
(0.114627 0.0126625 0)
(0.112595 0.0136028 0)
(0.111957 0.0141491 0)
(0.112256 0.0144285 0)
(0.113175 0.0145134 0)
(0.114506 0.01445 0)
(0.116099 0.0142642 0)
(0.117847 0.0139769 0)
(0.11967 0.0136045 0)
(0.121524 0.0131647 0)
(0.123364 0.0126625 0)
(0.125191 0.0121221 0)
(0.126967 0.0115112 0)
(0.128711 0.0109389 0)
(0.130458 0.0101552 0)
(0.131938 0.0097749 0)
(0.134236 0.00848929 0)
(0.030351 -0.00750495 0)
(0.0341246 0.000795778 0)
(0.0446468 0.00627984 0)
(0.0476846 0.0084748 0)
(0.0510299 0.00987295 0)
(0.0543957 0.0105177 0)
(0.058109 0.010838 0)
(0.0620726 0.0109658 0)
(0.0661938 0.01097 0)
(0.0703708 0.0108785 0)
(0.0745237 0.0107069 0)
(0.0785912 0.0104652 0)
(0.0825371 0.0101622 0)
(0.0863347 0.00979945 0)
(0.0899742 0.00939228 0)
(0.0934655 0.0089142 0)
(0.0967409 0.00845665 0)
(0.100059 0.00779403 0)
(0.102622 0.00751264 0)
(0.106747 0.00628097 0)
(0.00765475 -0.0178955 0)
(0.00853862 -0.00275377 0)
(0.0186561 0.00404086 0)
(0.0228834 0.00688948 0)
(0.0278403 0.00838079 0)
(0.0325796 0.00894775 0)
(0.0375487 0.00918628 0)
(0.0426479 0.00925876 0)
(0.0478141 0.00924291 0)
(0.0529611 0.00916248 0)
(0.0580196 0.00902603 0)
(0.0629358 0.00883593 0)
(0.0676766 0.00859441 0)
(0.0722211 0.00829877 0)
(0.0765559 0.00795906 0)
(0.0807064 0.00755181 0)
(0.0845736 0.00715295 0)
(0.0884966 0.00657411 0)
(0.0914813 0.00631044 0)
(0.0962922 0.00522759 0)
(-0.00344471 -0.0171577 0)
(-0.00764208 -0.00434821 0)
(-0.000536802 0.00188632 0)
(0.00370293 0.00507427 0)
(0.0095142 0.00652449 0)
(0.0151932 0.00702921 0)
(0.0211121 0.00720813 0)
(0.0270953 0.0072454 0)
(0.0330834 0.00722547 0)
(0.0389963 0.00716973 0)
(0.0447721 0.00708079 0)
(0.050363 0.00695442 0)
(0.0557386 0.00678658 0)
(0.0608823 0.00657064 0)
(0.0657777 0.00631084 0)
(0.0704604 0.00598845 0)
(0.0748089 0.0056587 0)
(0.0792173 0.00518642 0)
(0.0825539 0.00493394 0)
(0.0878974 0.00407002 0)
(-0.00855053 -0.0128711 0)
(-0.0171678 -0.00436079 0)
(-0.0133707 0.000309819 0)
(-0.00962932 0.00315944 0)
(-0.00351799 0.00436047 0)
(0.00272751 0.00477969 0)
(0.00928478 0.00491312 0)
(0.0158827 0.00494163 0)
(0.0224498 0.00494244 0)
(0.0289045 0.00493221 0)
(0.0351893 0.00490796 0)
(0.0412609 0.00486002 0)
(0.0470913 0.00477886 0)
(0.0526664 0.00465477 0)
(0.057968 0.00448634 0)
(0.0630371 0.00426036 0)
(0.0677376 0.00401077 0)
(0.0724965 0.00365774 0)
(0.0760952 0.00342801 0)
(0.0818109 0.00280824 0)
(-0.0104436 -0.00715681 0)
(-0.0216672 -0.00317514 0)
(-0.0202837 -0.000563792 0)
(-0.0171171 0.00130944 0)
(-0.0110032 0.00208298 0)
(-0.00449584 0.00235468 0)
(0.00240194 0.00243124 0)
(0.00934254 0.00245914 0)
(0.0162352 0.00249265 0)
(0.0229947 0.00253926 0)
(0.0295666 0.00258933 0)
(0.0359112 0.002628 0)
(0.0420023 0.0026408 0)
(0.0478273 0.00261546 0)
(0.0533666 0.00254521 0)
(0.058663 0.00242265 0)
(0.0635724 0.00226089 0)
(0.0685361 0.00203484 0)
(0.0722919 0.00183824 0)
(0.078216 0.00147914 0)
(-0.0102993 -0.000959405 0)
(-0.0220302 -0.00133458 0)
(-0.0215977 -0.00104123 0)
(-0.0187911 -0.000428281 0)
(-0.0128157 -0.000197128 0)
(-0.00629667 -0.000128677 0)
(0.000662024 -0.000122978 0)
(0.00767353 -9.58778e-05 0)
(0.0146326 -2.5863e-05 0)
(0.0214527 8.15949e-05 0)
(0.028082 0.000209079 0)
(0.0344836 0.000336599 0)
(0.040633 0.00044517 0)
(0.046518 0.000520382 0)
(0.0521181 0.00055047 0)
(0.0574746 0.00053397 0)
(0.0624416 0.000463598 0)
(0.0674578 0.000368507 0)
(0.0712573 0.000210496 0)
(0.0772241 0.000122435 0)
(-0.00829286 0.00481302 0)
(-0.0184852 0.000435213 0)
(-0.0174424 -0.0014726 0)
(-0.0146763 -0.0020897 0)
(-0.00892187 -0.00242469 0)
(-0.00261499 -0.00257817 0)
(0.0041334 -0.0026508 0)
(0.0109437 -0.00262661 0)
(0.017707 -0.00252066 0)
(0.0243397 -0.00235344 0)
(0.030793 -0.00215059 0)
(0.0370324 -0.00193697 0)
(0.0430349 -0.00173563 0)
(0.048787 -0.00156265 0)
(0.0542683 -0.00143445 0)
(0.0595152 -0.00134641 0)
(0.0643858 -0.00132599 0)
(0.0693005 -0.0012899 0)
(0.073028 -0.00140871 0)
(0.0788713 -0.00122426 0)
(-0.00373704 0.00920088 0)
(-0.0106398 0.00149187 0)
(-0.00774715 -0.00217126 0)
(-0.00479088 -0.00370614 0)
(0.000629557 -0.00454193 0)
(0.00649272 -0.00490137 0)
(0.0127552 -0.00505166 0)
(0.0190891 -0.00503411 0)
(0.0253929 -0.00489746 0)
(0.0315901 -0.00467707 0)
(0.0376353 -0.00440641 0)
(0.0434954 -0.00411471 0)
(0.0491479 -0.00382856 0)
(0.0545772 -0.00356532 0)
(0.0597631 -0.00334569 0)
(0.0647332 -0.00315885 0)
(0.0693567 -0.00305249 0)
(0.0740181 -0.00288874 0)
(0.0775621 -0.00297334 0)
(0.083117 -0.00252182 0)
(0.00518813 0.0105339 0)
(0.00250674 0.00147522 0)
(0.00770944 -0.00327535 0)
(0.0108434 -0.00526485 0)
(0.0156963 -0.00646434 0)
(0.0208466 -0.00699724 0)
(0.0263331 -0.0072206 0)
(0.0319107 -0.00721713 0)
(0.0374923 -0.00706113 0)
(0.0430102 -0.00680069 0)
(0.0484217 -0.00647593 0)
(0.0536931 -0.00611985 0)
(0.0588014 -0.00576206 0)
(0.0637265 -0.00542089 0)
(0.0684489 -0.00512095 0)
(0.0729836 -0.00484544 0)
(0.0772178 -0.0046618 0)
(0.0814809 -0.00437866 0)
(0.0847406 -0.00443758 0)
(0.0898445 -0.00373254 0)
(0.0221701 0.00480761 0)
(0.0227558 0.000106372 0)
(0.0291913 -0.00468039 0)
(0.0321263 -0.00675063 0)
(0.036019 -0.00812589 0)
(0.0401265 -0.00878677 0)
(0.0445295 -0.0090748 0)
(0.0490688 -0.00909478 0)
(0.0536718 -0.00893497 0)
(0.0582776 -0.00865225 0)
(0.0628432 -0.00829167 0)