/*--------------------------------*- C++ -*----------------------------------*\
| =========                 |                                                 |
| \\      /  F ield         | OpenFOAM: The Open Source CFD Toolbox           |
|  \\    /   O peration     | Version:  v1806                                 |
|   \\  /    A nd           | Web:      www.OpenFOAM.com                      |
|    \\/     M anipulation  |                                                 |
\*---------------------------------------------------------------------------*/
FoamFile
{
    version     2.0;
    format      ascii;
    class       surfaceScalarField;
    location    "100";
    object      phi;
}
// * * * * * * * * * * * * * * * * * * * * * * * * * * * * * * * * * * * * * //

dimensions      [0 3 -1 0 0 0 0];
oriented        oriented;


internalField   nonuniform List<scalar> 
4680
(
0.105002
-0.000135591
0.104994
-0.000682341
0.104979
-0.00127716
0.104984
-0.0014897
0.104988
-0.00186139
0.104944
-0.00328782
0.104872
-0.00467369
0.104853
-0.00510582
0.104856
-0.00555036
0.104787
-0.00806152
0.104594
-0.0114797
0.104417
-0.0138298
0.104304
-0.0152446
0.104176
-0.0186888
0.103831
-0.0244137
0.103275
-0.0307929
0.1026
-0.0360639
0.101764
-0.0425696
0.100619
-0.0506492
-0.0599775
0.0985696
0.105001
-0.000136848
0.104989
-0.000670118
0.104966
-0.00125415
0.104963
-0.00148624
0.104956
-0.00185531
0.1049
-0.00323183
0.104805
-0.00457824
0.10476
-0.00506033
0.104734
-0.00552507
0.104641
-0.00796778
0.104397
-0.0112364
0.10416
-0.0135925
0.103967
-0.0150517
0.103773
-0.0184944
0.103328
-0.0239688
0.102656
-0.0301214
0.101817
-0.0352243
0.100779
-0.0415319
0.0992712
-0.0491413
-0.0578994
0.0971932
0.105
-0.000136784
0.104983
-0.000653664
0.104952
-0.00122256
0.104938
-0.00147206
0.104918
-0.00183526
0.104844
-0.00315826
0.10472
-0.00445389
0.104642
-0.00498217
0.104577
-0.00546008
0.104445
-0.00783661
0.10414
-0.0109309
0.103832
-0.0132843
0.103542
-0.014762
0.103264
-0.0182164
0.102708
-0.0234127
0.101934
-0.0293476
0.100953
-0.0342431
0.0998092
-0.0403882
0.0982972
-0.0476293
-0.0556452
0.0960429
0.104998
-0.0001352
0.104978
-0.00063338
0.104939
-0.00118303
0.104912
-0.00144583
0.104877
-0.00179941
0.104785
-0.00306707
0.104633
-0.00430159
0.104519
-0.00486859
0.104409
-0.00534972
0.104236
-0.00766384
0.103869
-0.0105633
0.103491
-0.0129061
0.1031
-0.014371
0.102734
-0.0178509
0.102066
-0.0227448
0.101206
-0.0284875
0.100106
-0.0331433
0.098884
-0.0391659
0.0972324
-0.0459777
-0.0534239
0.0950111
0.104997
-0.000132116
0.104973
-0.000609512
0.104926
-0.00113584
0.104887
-0.00140723
0.104836
-0.00174789
0.104727
-0.00295863
0.104548
-0.00412224
0.104399
-0.00471971
0.104243
-0.00519339
0.104027
-0.00744788
0.103597
-0.0101335
0.103153
-0.0124622
0.102663
-0.0138808
0.102212
-0.0173998
0.101429
-0.0219618
0.100495
-0.0275542
0.0992881
-0.031936
0.0980167
-0.0378945
0.0963463
-0.0443073
-0.0512253
0.0941477
0.104995
-0.000127611
0.104968
-0.000582107
0.104914
-0.00108138
0.104863
-0.00135653
0.104796
-0.00168121
0.10467
-0.00283279
0.104465
-0.00391715
0.104283
-0.0045373
0.104082
-0.004992
0.103821
-0.00718732
0.103329
-0.00964185
0.102825
-0.0119581
0.102238
-0.0132939
0.101704
-0.0168659
0.100802
-0.0210593
0.0998078
-0.02656
0.0984952
-0.0306235
0.0972061
-0.0366054
0.0954885
-0.0425897
-0.0490989
0.093362
0.104994
-0.000121797
0.104963
-0.000551175
0.104902
-0.00102005
0.10484
-0.00129417
0.104758
-0.0016001
0.104615
-0.00268946
0.104386
-0.00368791
0.104172
-0.0043231
0.103927
-0.00474713
0.103621
-0.0068815
0.103069
-0.00908956
0.102509
-0.0113984
0.101828
-0.0126125
0.101214
-0.0162523
0.100188
-0.0200334
0.0991424
-0.0255144
0.0977225
-0.0292035
0.0964401
-0.0353231
0.0946983
-0.0408478
-0.0470914
0.0926908
0.104993
-0.000114813
0.104959
-0.0005167
0.104891
-0.000952307
0.104817
-0.0012207
0.104723
-0.00150553
0.104562
-0.00252852
0.10431
-0.00343621
0.104066
-0.00407859
0.10378
-0.00446119
0.103428
-0.00653018
0.102817
-0.00847853
0.102205
-0.0107859
0.101431
-0.0118383
0.10074
-0.0155618
0.0995864
-0.0188797
0.0984973
-0.0244252
0.0969603
-0.0276665
0.0957115
-0.0340743
0.0939382
-0.0390745
-0.045256
0.0921028
0.104992
-0.000106807
0.104954
-0.000478674
0.10488
-0.000878655
0.104796
-0.00113668
0.104689
-0.00139862
0.104511
-0.00234993
0.104239
-0.00316401
0.103965
-0.00380487
0.103641
-0.00413728
0.103244
-0.00613313
0.102577
-0.00781169
0.101913
-0.0101219
0.101048
-0.0109733
0.100282
-0.0147961
0.0989966
-0.017594
0.0978682
-0.0232968
0.0962004
-0.0259987
0.0950085
-0.0328824
0.0931907
-0.0372567
-0.0436591
0.0915939
0.104991
-9.79222e-05
0.10495
-0.000437135
0.104871
-0.000799686
0.104777
-0.00104268
0.104659
-0.00128065
0.104462
-0.00215375
0.104172
-0.00287362
0.10387
-0.00350255
0.103512
-0.00377929
0.103068
-0.00568982
0.10235
-0.00709342
0.101634
-0.00940536
0.100681
-0.0100208
0.0998395
-0.0139544
0.0984183
-0.0161728
0.0972507
-0.0221292
0.0954337
-0.0241817
0.0943183
-0.031767
0.0924321
-0.0353705
-0.0423817
0.0911547
0.10499
-8.82913e-05
0.104945
-0.000392183
0.104862
-0.000716023
0.104758
-0.000939224
0.104631
-0.00115301
0.104417
-0.00194017
0.104111
-0.0025677
0.10378
-0.00317184
0.103393
-0.00339206
0.102902
-0.00519909
0.102139
-0.00633003
0.101367
-0.00863302
0.100333
-0.00898698
0.0994106
-0.0130321
0.0978522
-0.0146144
0.0966394
-0.0209165
0.0946509
-0.0221931
0.0936258
-0.0307419
0.0916354
-0.03338
-0.0415259
0.0907795
0.10499
-7.80325e-05
0.104942
-0.00034399
0.104854
-0.000628303
0.104742
-0.000826913
0.104606
-0.00101717
0.104375
-0.00170953
0.104056
-0.00224916
0.103697
-0.00281262
0.103287
-0.00298134
0.102746
-0.00465895
0.101947
-0.00553018
0.101112
-0.0077984
0.100007
-0.00788188
0.0989938
-0.0120191
0.0973011
-0.0129216
0.0960284
-0.0196438
0.0938429
-0.0200076
0.0929143
-0.0298134
0.090767
-0.0312327
-0.0412235
0.0904646
0.104989
-6.72406e-05
0.104938
-0.000292822
0.104847
-0.000537129
0.104726
-0.00070643
0.104584
-0.000874588
0.104337
-0.00146246
0.104009
-0.00192102
0.103621
-0.00242468
0.103193
-0.00255368
0.102601
-0.00406659
0.101776
-0.00470519
0.100869
-0.00689134
0.0997087
-0.00672198
0.0985859
-0.0108963
0.0967714
-0.0111071
0.0954096
-0.0182821
0.0930028
-0.0176008
0.0921662
-0.0289767
0.0897803
-0.0288468
-0.0416547
0.0902115
0.104989
-5.59782e-05
0.104935
-0.000239049
0.104841
-0.000443033
0.104713
-0.000578652
0.104565
-0.000726594
0.104303
-0.00119999
0.103968
-0.00158613
0.103551
-0.00200822
0.103114
-0.00211591
0.102466
-0.003419
0.101629
-0.00386867
0.100636
-0.00589805
0.0994456
-0.00553153
0.0981819
-0.0096325
0.096275
-0.00920021
0.0947691
-0.0167762
0.0921317
-0.0149634
0.0913611
-0.0282061
0.0886062
-0.026092
-0.0430911
0.0900427
0.104988
-4.42693e-05
0.104932
-0.000183172
0.104836
-0.000346421
0.104702
-0.000444732
0.10455
-0.000574222
0.104273
-0.000923847
0.103934
-0.00124668
0.10349
-0.00156455
0.103048
-0.00167405
0.102344
-0.00271446
0.10151
-0.00303506
0.100415
-0.00480282
0.099226
-0.00434247
0.0977751
-0.00818161
0.0958301
-0.00725523
0.0940804
-0.0150266
0.0912487
-0.0121316
0.090459
-0.0274164
0.0871542
-0.0227871
-0.0459888
0.0900519
0.104988
-3.20979e-05
0.10493
-0.000125822
0.104832
-0.000247542
0.104693
-0.000306175
0.104537
-0.000418064
0.10425
-0.00063669
0.103907
-0.000903691
0.103439
-0.00109701
0.102997
-0.00123167
0.102237
-0.00195511
0.101418
-0.00221517
0.100209
-0.00359465
0.0990571
-0.00319014
0.0973611
-0.0064856
0.0954594
-0.00535354
0.0932969
-0.0128641
0.0903998
-0.00923449
0.0893458
-0.0263624
0.0853542
-0.0187955
-0.0511607
0.0905261
0.104987
-1.94174e-05
0.104929
-6.7753e-05
0.104828
-0.000146488
0.104687
-0.000164848
0.104527
-0.0002582
0.104233
-0.000342285
0.103886
-0.000556625
0.1034
-0.000611885
0.102957
-0.000788213
0.102152
-0.00115046
0.101347
-0.00140976
0.100032
-0.00227927
0.098933
-0.0020916
0.0969623
-0.00451496
0.0951907
-0.00358196
0.0923638
-0.0100371
0.0896489
-0.00651963
0.0877405
-0.024454
0.083259
-0.014314
-0.0599275
0.0920258
0.104987
-6.18055e-06
0.104929
-9.77353e-06
0.104826
-4.3272e-05
0.104684
-2.28678e-05
0.10452
-9.4305e-05
0.104223
-4.53571e-05
0.10387
-0.000203449
0.103376
-0.000118523
0.102926
-0.000338365
0.102095
-0.000319351
0.101291
-0.000605573
0.0998999
-0.000888122
0.0988329
-0.00102455
0.096628
-0.00231011
0.0949919
-0.00194581
0.0914025
-0.00644772
0.0890528
-0.00416999
0.0851137
-0.0205148
0.0811674
-0.0103678
-0.0731099
0.0943497
0.104986
7.6168e-06
0.104929
4.73349e-05
0.104824
6.20809e-05
0.104683
0.000117529
0.104515
7.4161e-05
0.104221
0.000248752
0.103859
0.000158814
0.103368
0.000371602
0.102903
0.000126562
0.102072
0.000512417
0.101244
0.000221912
0.099832
0.000524045
0.0987359
7.15714e-05
0.0964209
4.95678e-06
0.0947638
-0.00028872
0.0906496
-0.00233354
0.0885026
-0.00202297
0.0816989
-0.0137112
0.0796009
-0.00826974
-0.0863619
0.0928529
0.104986
2.20376e-05
0.10493
0.000103071
0.104822
0.000169748
0.104686
0.000253808
0.104511
0.000248944
0.104227
0.000532806
0.103849
0.000536861
0.10338
0.000840533
0.102881
0.00062554
0.102091
0.00130276
0.101192
0.00112068
0.0998528
0.0018632
0.098607
0.00131737
0.0964112
0.00220084
0.0944329
0.00168957
0.0903668
0.00173251
0.0873595
0.000984371
0.0788792
-0.00523096
0.0780472
-0.00743772
0.0742233
-0.082538
0.0981978
-0.00767159
0.0979067
-0.00785097
0.0975955
-0.0079862
0.0972684
-0.00812418
0.0969261
-0.00826325
0.0965683
-0.0084029
0.0961952
-0.00854325
0.0958079
-0.00868459
0.0954079
-0.00882721
-0.0089732
0.0950025
0.0969409
-0.00741932
0.0966032
-0.00751326
0.0962534
-0.00763638
0.0958875
-0.00775834
0.0955043
-0.00788005
0.0951031
-0.00800173
0.0946831
-0.00812319
0.0942427
-0.00824419
0.09378
-0.00836449
-0.0084829
0.0932897
0.095678
-0.00705432
0.0953442
-0.00717949
0.0949961
-0.00728833
0.0946352
-0.00739739
0.0942614
-0.00750623
0.0938743
-0.00761465
0.0934737
-0.00772264
0.0930598
-0.00783025
0.0926328
-0.00793753
-0.00804502
0.0921949
0.0947185
-0.00676169
0.0943927
-0.00685372
0.0940547
-0.00695032
0.0937033
-0.00704597
0.0933377
-0.0071407
0.0929576
-0.00723453
0.0925624
-0.00732739
0.0921513
-0.00741922
0.0917237
-0.00750993
-0.00759927
0.091278
0.0938299
-0.00644384
0.0935086
-0.00653243
0.0931755
-0.00661728
0.0928306
-0.00670099
0.0924734
-0.00678353
0.0921037
-0.00686485
0.0917212
-0.00694492
0.0913257
-0.0070237
0.090917
-0.00710121
-0.00717756
0.0904953
0.0930687
-0.00615048
0.0927633
-0.00622708
0.0924474
-0.00630134
0.0921203
-0.00637395
0.0917817
-0.00644489
0.091431
-0.00651412
0.0910677
-0.00658161
0.0906913
-0.00664735
0.0903014
-0.00671132
-0.0067735
0.0898974
0.0924136
-0.00587331
0.0921272
-0.0059407
0.0918309
-0.00600499
0.0915241
-0.00606713
0.0912063
-0.00612715
0.0908772
-0.00618502
0.0905364
-0.00624074
0.0901833
-0.00629431
0.0898177
-0.00634574
-0.00639511
0.0894393
0.0918512
-0.0056217
0.0915907
-0.0056803
0.091321
-0.00573527
0.0910414
-0.00578754
0.0907514
-0.00583716
0.0904505
-0.0058841
0.0901381
-0.00592835
0.0898138
-0.00596995
0.089477
-0.00600893
-0.00604536
0.0891272
0.0913749
-0.00540273
0.0911475
-0.00545294
0.0909112
-0.00549896
0.0906653
-0.0055416
0.0904091
-0.00558098
0.0901421
-0.00561708
0.0898636
-0.00564988
0.0895731
-0.00567947
0.0892701
-0.00570591
-0.00572932
0.0889541
0.0909774
-0.00522534
0.0907916
-0.00526717
0.0905969
-0.00530424
0.0903924
-0.00533716
0.0901776
-0.00536611
0.0899515
-0.00539104
0.0897136
-0.00541197
0.0894631
-0.005429
0.0891995
-0.00544227
-0.00545195
0.0889221
0.0906546
-0.00510043
0.0905207
-0.00513331
0.0903774
-0.00516092
0.0902238
-0.0051835
0.0900589
-0.00520126
0.089882
-0.00521414
0.0896922
-0.00522218
0.0894888
-0.00522554
0.0892709
-0.00522443
-0.00521912
0.0890381
0.0904055
-0.00504138
0.0903363
-0.00506413
0.0902565
-0.00508113
0.0901651
-0.00509206
0.0900611
-0.00509723
0.0899434
-0.0050965
0.0898112
-0.00508993
0.0896635
-0.00507781
0.0894995
-0.00506044
-0.00503821
0.0893186
0.0902361
-0.00506604
0.0902486
-0.00507661
0.0902486
-0.00508116
0.090235
-0.00507846
0.0902066
-0.00506885
0.0901622
-0.00505211
0.0901007
-0.00502835
0.0900209
-0.00499802
0.089922
-0.00496156
-0.00491952
0.0898033
0.0901788
-0.00520212
0.0902986
-0.00519644
0.0904031
-0.00518561
0.0904908
-0.00516621
0.0905604
-0.00513847
0.0906103
-0.00510198
0.0906389
-0.00505695
0.0906449
-0.005004
0.0906271
-0.00494374
-0.00487696
0.0905845
0.0903494
-0.00549963
0.0906189
-0.00546598
0.0908666
-0.00543327
0.0910905
-0.00539012
0.0912887
-0.00533667
0.0914591
-0.00527233
0.0915995
-0.00519736
0.0917081
-0.00511265
0.0917834
-0.00501902
-0.00491824
0.0918247
0.0910304
-0.00600396
0.0915002
-0.00593571
0.0919329
-0.00586599
0.0923241
-0.00578136
0.09267
-0.00568254
0.0929668
-0.00556914
0.0932114
-0.00544192
0.0934011
-0.00530237
0.0935337
-0.00515168
-0.00499259
0.0936081
0.0926659
-0.00664408
0.0932943
-0.00656405
0.0938413
-0.006413
0.0943075
-0.00624759
0.0946886
-0.00606367
0.0949794
-0.00585993
0.0951763
-0.00563882
0.0952778
-0.0054039
0.0952838
-0.00515765
-0.00490764
0.0951989
0.0950878
-0.00738216
0.0954943
-0.00697059
0.0957216
-0.00664025
0.095779
-0.00630495
0.0956733
-0.00595797
0.0954123
-0.005599
0.0950051
-0.00523155
0.0944597
-0.00485856
0.0937833
-0.00448119
-0.00410365
0.0929793
0.0922171
-0.0067463
0.0913693
-0.00612285
0.090235
-0.00550597
0.0888617
-0.00493162
0.0872881
-0.00438431
0.0855568
-0.00386769
0.0837092
-0.00338397
0.0817803
-0.00292973
0.0797938
-0.00249461
-0.0020561
0.0777462
0.067477
0.0613542
0.0558482
0.0509166
0.0465323
0.0426646
0.0392806
0.0363509
0.0338563
0.0318002
0.0931496
-0.0348427
0.0909609
-0.0368146
0.0884184
-0.0387794
0.0854931
-0.0407177
0.0821711
-0.0426035
0.0784412
-0.0443721
0.0743069
-0.0459246
0.0697973
-0.0471433
0.0649701
-0.0479172
0.0599078
-0.0481582
0.0547078
-0.0478039
0.0494734
-0.0468197
0.0443099
-0.0452024
0.0393252
-0.0429779
0.0346333
-0.0401856
0.0303558
-0.0368558
0.0266237
-0.0329987
0.0235889
-0.0285791
0.0214228
-0.0235857
-0.0177787
0.0913646
-0.0329177
0.0891634
-0.0346134
0.0866722
-0.0362882
0.0838775
-0.037923
0.080762
-0.0394881
0.0773218
-0.0409319
0.0735693
-0.0421722
0.0695366
-0.0431106
0.0652744
-0.0436549
0.0608471
-0.0437309
0.0563251
-0.043282
0.0517778
-0.0422723
0.0472714
-0.0406961
0.0428738
-0.0385803
0.0386613
-0.035973
0.0347268
-0.0329214
0.0311905
-0.0294624
0.0282131
-0.0256017
0.0260237
-0.0213963
-0.0164875
0.0903677
-0.0310905
0.0882829
-0.0325285
0.0859152
-0.0339205
0.0832491
-0.0352569
0.0802776
-0.0365166
0.0770003
-0.0376546
0.0734305
-0.0386024
0.0695999
-0.0392801
0.0655596
-0.0396146
0.0613766
-0.0395479
0.0571275
-0.0390328
0.0528904
-0.0380351
0.0487403
-0.036546
0.0447491
-0.0345891
0.0409874
-0.0322114
0.0375287
-0.0294627
0.0344574
-0.0263911
0.0318775
-0.0230218
0.0299605
-0.0194793
-0.0152591
0.0894829
-0.0292954
0.0874436
-0.0304892
0.0851519
-0.0316288
0.0825985
-0.0327036
0.0797772
-0.0336952
0.0766909
-0.0345683
0.0733546
-0.0352662
0.069798
-0.0357235
0.066066
-0.0358825
0.0622153
-0.0356973
0.0583089
-0.0351264
0.0544093
-0.0341355
0.0505781
-0.0327147
0.0468795
-0.0308905
0.0433853
-0.0287172
0.0401752
-0.0262526
0.0373367
-0.0235525
0.0349557
-0.0206408
0.0331574
-0.017681
-0.0140449
0.0887753
-0.0275754
0.0868347
-0.0285485
0.0846567
-0.0294508
0.0822308
-0.0302776
0.079553
-0.0310174
0.0766269
-0.0316422
0.0734681
-0.0321074
0.0701076
-0.032363
0.0665915
-0.0323664
0.0629769
-0.0320827
0.0593251
-0.0314746
0.0556946
-0.0305051
0.0521394
-0.0291595
0.0487125
-0.0274636
0.0454726
-0.0254774
0.0424872
-0.0232672
0.039832
-0.0208973
0.0375773
-0.0183862
0.0358178
-0.0159215
-0.0128068
0.0882616
-0.0259396
0.0864126
-0.0266995
0.0843374
-0.0273757
0.0820281
-0.0279683
0.0794816
-0.028471
0.076704
-0.0288645
0.0737122
-0.0291156
0.0705366
-0.0291874
0.0672203
-0.0290501
0.0638154
-0.0286778
0.060377
-0.0280362
0.056958
-0.027086
0.0536074
-0.0258089
0.050374
-0.0242303
0.0473118
-0.0224151
0.0444812
-0.0204365
0.041948
-0.0183642
0.0397704
-0.0162085
0.0380145
-0.0141657
-0.0115258
0.0879
-0.0244003
0.0861551
-0.0249546
0.0841903
-0.0254109
0.0819975
-0.0257755
0.0795751
-0.0260485
0.0769297
-0.0262191
0.0740794
-0.0262654
0.0710553
-0.0261633
0.0678997
-0.0258945
0.0646624
-0.0254405
0.0613945
-0.0247683
0.0581432
-0.0238348
0.0549519
-0.0226176
0.0518638
-0.0211422
0.0489279
-0.0194793
0.0462001
-0.0177087
0.0437403
-0.0159044
0.0416007
-0.0140689
0.039826
-0.0123911
-0.0101931
0.0876984
-0.0229715
0.0860646
-0.0233207
0.0842108
-0.0235571
0.0821298
-0.0236945
0.0798212
-0.0237399
0.0772932
-0.0236911
0.0745653
-0.0235375
0.0716683
-0.0232663
0.0686427
-0.0228689
0.065535
-0.0223328
0.0623923
-0.0216256
0.0592583
-0.0207008
0.0561732
-0.0195325
0.053178
-0.0181469
0.0503194
-0.0166207
0.0476509
-0.0150402
0.0452281
-0.0134816
0.0431007
-0.0119414
0.0412968
-0.0105871
-0.00880794
0.0876491
-0.0216666
0.0861337
-0.0218052
0.0843925
-0.021816
0.0824196
-0.0217215
0.080216
-0.0215363
0.0777917
-0.0212668
0.0751665
-0.0209123
0.0723708
-0.0204705
0.069443
-0.0199412
0.0664267
-0.0193164
0.0633656
-0.0185645
0.060301
-0.0176362
0.057272
-0.0165036
0.0543202
-0.0151951
0.0514932
-0.0137937
0.048845
-0.012392
0.0464291
-0.0110657
0.0442947
-0.00980703
0.0424568
-0.00874914
-0.00737452
0.0877559
-0.0205003
0.0863668
-0.0204162
0.0847405
-0.0201897
0.0828729
-0.019854
0.0807671
-0.0194305
0.0784335
-0.0189332
0.0758914
-0.0183702
0.0731695
-0.0177486
0.0703039
-0.0170756
0.0673355
-0.016348
0.0643064
-0.0155354
0.0612583
-0.0145881
0.0582328
-0.0134781
0.0552754
-0.0122378
0.0524381
-0.0109564
0.0497774
-0.00973128
0.0473461
-0.00863447
0.045193
-0.00765391
0.0433221
-0.00687818
-0.00590151
0.0880274
-0.0194896
0.0867744
-0.0191632
0.085267
-0.0186824
0.0835042
-0.0180911
0.0814898
-0.0174161
0.0792329
-0.0166763
0.0767503
-0.0158877
0.0740682
-0.0150664
0.0712205
-0.014228
0.0682477
-0.0133751
0.0651933
-0.012481
0.0621032
-0.011498
0.0590261
-0.0104009
0.0560155
-0.0092272
0.0531304
-0.00807123
0.0504314
-0.00703228
0.0479706
-0.00617369
0.045795
-0.00547835
0.0438985
-0.00498161
-0.00440212
0.0884852
-0.0186563
0.0873819
-0.0180598
0.0860004
-0.0173008
0.0843424
-0.0164332
0.0824101
-0.0154838
0.0802081
-0.0144742
0.0777491
-0.0134287
0.0750572
-0.0123745
0.0721672
-0.0113379
0.0691229
-0.0103308
0.0659748
-0.00933298
0.0627786
-0.00830172
0.0595943
-0.00721667
0.0564876
-0.00612043
0.053526
-0.00510963
0.050774
-0.00428033
0.0482815
-0.00368114
0.0460903
-0.00328719
0.0441838
-0.00307513
-0.00289501
0.0891776
-0.0180306
0.0882397
-0.017122
0.0869876
-0.0160487
0.0854242
-0.0148699
0.0835466
-0.0136062
0.0813536
-0.0122812
0.078855
-0.0109302
0.0760771
-0.00959662
0.0730614
-0.00832223
0.0698626
-0.00713206
0.0665446
-0.00601493
0.0631781
-0.0049352
0.0598392
-0.00387782
0.056607
-0.00288822
0.0535576
-0.0020602
0.0507563
-0.00147909
0.0482468
-0.00117163
0.0460612
-0.00110159
0.0441712
-0.00118508
-0.00140532
0.0901961
-0.0176421
0.0894201
-0.016346
0.0882678
-0.0148964
0.0867444
-0.0133464
0.0848422
-0.0117041
0.0825609
-0.00999984
0.0799155
-0.00828476
0.0769423
-0.00662348
0.0736987
-0.00507861
0.0702581
-0.00369145
0.066702
-0.00245882
0.0631202
-0.00135341
0.059606
-0.000363609
0.0562501
0.000467703
0.0531329
0.00105696
0.0503149
0.00133896
0.0478275
0.00131578
0.045687
0.00103884
0.0438527
0.000649238
3.46334e-05
0.0916383
-0.0174558
0.0909205
-0.0156282
0.0897258
-0.0137017
0.0880764
-0.011697
0.0859741
-0.00960174
0.0834346
-0.00746041
0.0804943
-0.00534437
0.0772074
-0.00333663
0.0736491
-0.00152028
0.0699172
4.04446e-05
0.0661059
0.00135246
0.0623235
0.00242898
0.0586738
0.00328612
0.055254
0.00388746
0.0521404
0.00417053
0.0493799
0.00409953
0.046985
0.00371063
0.0449512
0.00307269
0.0432256
0.00237483
0.00138589
0.0933264
-0.0171741
0.0922847
-0.0145864
0.0906626
-0.0120795
0.0885379
-0.00957233
0.0859585
-0.00702236
0.0829679
-0.00446974
0.07962
-0.00199654
0.0759908
0.000292629
0.0721492
0.00232132
0.0681978
0.00399179
0.0642475
0.00530275
0.0604022
0.00627431
0.0567681
0.00692026
0.0534366
0.0072189
0.0504701
0.00713702
0.0478936
0.00667608
0.0456967
0.00590756
0.043852
0.00491731
0.0422996
0.00392728
0.0026055
0.0938744
-0.0158496
0.0916811
-0.0123932
0.088959
-0.00935741
0.0858976
-0.00651093
0.0826147
-0.00373946
0.0791815
-0.0010366
0.0755859
0.00159911
0.0718561
0.00402239
0.0680591
0.00611831
0.06425
0.00780091
0.0605133
0.00903948
0.056942
0.00984556
0.0536303
0.0102319
0.0506551
0.0101941
0.0480586
0.00973354
0.0458422
0.00889246
0.0439762
0.00777363
0.0424161
0.00647734
0.041105
0.00523837
0.00365186
0.0888353
-0.0117056
0.0844589
-0.00801679
0.0801432
-0.00504171
0.0761524
-0.00252013
0.0725584
-0.000145471
0.0692771
0.00224468
0.0662053
0.00467091
0.0632245
0.00700321
0.0602711
0.00907173
0.0573369
0.0107351
0.05446
0.0119164
0.051712
0.0125936
0.049175
0.0127689
0.0469141
0.012455
0.0449587
0.011689
0.0432977
0.0105535
0.0418974
0.00917392
0.0407104
0.00766432
0.0396992
0.0062496
0.00449278
0.0694892
-0.00344863
0.0633207
-0.00184832
0.0587357
-0.000456646
0.0556945
0.000521021
0.0536762
0.00187284
0.0522956
0.00362532
0.0512056
0.00576092
0.0501681
0.00804073
0.0490507
0.0101891
0.0478078
0.0119781
0.0464611
0.013263
0.0450771
0.0139776
0.0437368
0.0141093
0.042504
0.0136877
0.0414102
0.0127828
0.04045
0.0115136
0.039607
0.010017
0.038846
0.00842526
0.0381664
0.00692918
0.00511529
0.0288917
-0.000540191
0.0278622
-0.000818777
0.0279988
-0.000593244
0.0292006
-0.000680824
0.0308444
0.000229083
0.032635
0.00183472
0.0343005
0.00409543
0.0357049
0.00663625
0.0367757
0.00911829
0.0375008
0.0112529
0.0379156
0.0128483
0.0380867
0.0138065
0.03809
0.0141059
0.0379863
0.0137915
0.0378137
0.0129553
0.0375812
0.0117462
0.037303
0.0102952
0.0369613
0.00876693
0.0366089
0.00728164
0.00553536
0.00264882
-0.00318901
0.0033902
-0.00156016
0.00410976
-0.0013128
0.00486654
-0.0014376
0.00568791
-0.000592293
0.00651381
0.00100882
0.00729887
0.00331037
0.00800362
0.0059315
0.00860459
0.00851732
0.00909346
0.0107641
0.00947472
0.012467
0.00976192
0.0135193
0.00997172
0.0138961
0.0101187
0.0136444
0.0102127
0.0128614
0.0102608
0.0116982
0.0102662
0.0102898
0.0102395
0.00879356
0.0101782
0.00734294
0.00560941
0.00107255
-0.00426156
0.0017935
-0.00228111
0.00266394
-0.00218324
0.00353515
-0.00230881
0.00446577
-0.00152291
0.00539661
7.79886e-05
0.00628904
0.00241794
0.00710514
0.00511541
0.00781955
0.00780291
0.00842046
0.0101632
0.0089086
0.0119789
0.00929393
0.013134
0.00959016
0.0135999
0.00981034
0.0134242
0.00996359
0.0127081
0.0100587
0.0116031
0.0100994
0.0102491
0.0101005
0.00879251
0.0100588
0.00738458
0.00566952
7.59027e-05
-0.00433746
0.000622406
-0.00282762
0.00150573
-0.00306657
0.00242952
-0.0032326
0.00342292
-0.00251631
0.00442235
-0.000921449
0.00539313
0.00144716
0.00629662
0.00421191
0.0071051
0.00699443
0.00780268
0.00946558
0.00838553
0.011396
0.0088593
0.0126602
0.00923416
0.013225
0.00952111
0.0131373
0.00972867
0.0125006
0.00986652
0.0114652
0.0099401
0.0101755
0.00996547
0.00876714
0.0099436
0.00740645
0.00571887
-0.000578757
-0.0037587
-0.000194606
-0.00321177
0.000630321
-0.00389149
0.00155144
-0.00415371
0.00256501
-0.00352988
0.00359875
-0.00195519
0.00461914
0.000426764
0.00558597
0.00324508
0.00646849
0.00611191
0.00724626
0.00868781
0.00791038
0.0107319
0.00846161
0.012109
0.00890618
0.0127804
0.00925272
0.0127908
0.00950892
0.0122444
0.00968515
0.011289
0.00978828
0.0100723
0.0098356
0.00871982
0.00983142
0.00741063
0.00575811
-0.000918935
-0.00283977
-0.000691359
-0.00343934
3.07223e-05
-0.00461357
0.000899672
-0.00502266
0.00189458
-0.00452479
0.00292988
-0.00299049
0.00397184
-0.000615198
0.00497809
0.00223883
0.0059144
0.0051756
0.00675536
0.00784685
0.00748659
0.0100007
0.00810357
0.011492
0.00860829
0.0122757
0.00900669
0.0123924
0.00930546
0.0119456
0.00951535
0.0110791
0.00964454
0.00994315
0.00971126
0.0086531
0.00972273
0.00739916
0.00578814
-0.00102533
-0.00181444
-0.000925733
-0.00353894
-0.000326498
-0.00521281
0.000471099
-0.00582026
0.00141234
-0.00546603
0.00241769
-0.00399584
0.00345379
-0.0016513
0.00447585
0.00121677
0.00544573
0.00420572
0.00633269
0.00695989
0.0071165
0.00921685
0.0077871
0.0108214
0.00834196
0.0117208
0.00878414
0.0119502
0.00911911
0.0116106
0.00935776
0.0108404
0.00950935
0.00979156
0.00959281
0.00856963
0.00961779
0.00737419
0.00580993
-0.00092786
-0.000886577
-0.000907403
-0.0035594
-0.000426365
-0.00569385
0.000264125
-0.00651075
0.00111817
-0.00632008
0.00206289
-0.00494056
0.00306602
-0.00265442
0.00408054
0.00020225
0.00506393
0.00322233
0.0059797
0.00604412
0.00680146
0.00839508
0.00751334
0.0101096
0.00810812
0.0111261
0.00858579
0.0114725
0.00895044
0.011246
0.00921282
0.0105781
0.00938303
0.00962136
0.00948054
0.00847212
0.00951684
0.00733789
0.0058245
-0.000617732
-0.000268845
-0.000636156
-0.00354097
-0.00027402
-0.00605598
0.000278602
-0.00706337
0.00101179
-0.00705326
0.00186537
-0.00579415
0.00280853
-0.00359758
0.00379232
-0.000781545
0.00476932
0.00224533
0.00569685
0.0051166
0.00654198
0.00754995
0.0072828
0.00936874
0.00790724
0.0105016
0.00841205
0.0109677
0.00879979
0.0108582
0.00908082
0.010297
0.00926583
0.00943635
0.00937464
0.00836331
0.00942007
0.00729246
0.00583293
-3.63134e-05
-0.000232531
-0.00010506
-0.00347223
0.000130947
-0.00629199
0.000514276
-0.0074467
0.00109283
-0.00763182
0.00182456
-0.00652588
0.00268065
-0.00445367
0.00361055
-0.00171144
0.00456138
0.00129449
0.00548378
0.0041942
0.00633789
0.00669584
0.00709544
0.00861119
0.00773935
0.00985772
0.00826303
0.010444
0.00866729
0.010454
0.00896191
0.0100024
0.00915788
0.00924038
0.00927525
0.00824594
0.00932759
0.00724011
0.00583629
0.000812855
-0.00104539
0.000742913
-0.00340229
0.000782504
-0.00633158
0.00097135
-0.00763555
0.00136052
-0.00802099
0.00193994
-0.0071053
0.00268148
-0.00519521
0.00353412
-0.00256408
0.00443901
0.000389608
0.0053396
0.0032936
0.00618855
0.00584688
0.00695087
0.00784887
0.0076043
0.00920428
0.00813867
0.00990965
0.00855303
0.0100396
0.00885612
0.00969931
0.00905943
0.00903707
0.00918227
0.0081231
0.00923987
0.00718251
0.00583622
0.00721684
-0.000357067
-0.00790516
0.00636835
-0.00255379
0.00543956
-0.00540279
0.00495405
-0.00715004
0.00498276
-0.0080497
0.0056257
-0.00774823
0.00680942
-0.00637894
0.00841614
-0.0041708
0.0102826
-0.00147687
0.0122484
0.00132783
0.0141686
0.00392663
0.015933
0.00608454
0.0174678
0.00766948
0.0187338
0.0086436
0.0197226
0.0090508
0.0204473
0.00897463
0.0209416
0.00854278
0.021236
0.00782869
0.021392
0.00702652
0.00583495
0.0215836
0.00581795
-0.0277586
0.0173745
0.00165533
0.0139953
-0.00202361
0.0115057
-0.0046604
0.00983673
-0.00638077
0.00904769
-0.00695919
0.00908811
-0.00641936
0.00982994
-0.00491262
0.011082
-0.00272889
0.0126292
-0.000219404
0.0142758
0.00227997
0.0158643
0.00449608
0.0172849
0.00624889
0.0184743
0.00745424
0.0194097
0.00811538
0.0200965
0.00828776
0.0205646
0.00807469
0.0208429
0.0075504
0.0209883
0.00688113
0.00583308
0.0376085
0.014127
-0.0459175
0.0307803
0.00848357
0.0250298
0.00372688
0.0203547
1.47069e-05
0.0167544
-0.00278045
0.0142564
-0.00446125
0.0128573
-0.00502027
0.0124494
-0.00450471
0.0128326
-0.0031121
0.0137547
-0.00114151
0.0149634
0.00107133
0.0162465
0.00321293
0.0174502
0.0050452
0.0184808
0.00642362
0.0192971
0.00729909
0.0198943
0.00769065
0.0202953
0.00767364
0.0205269
0.00731879
0.0206389
0.00676914
0.00584602
0.0505176
0.0212974
-0.057688
0.0433215
0.0156797
0.0364556
0.0105927
0.0302916
0.00617876
0.025012
0.00249914
0.0208415
-0.000290749
0.0178966
-0.00207541
0.0161535
-0.00276165
0.0154617
-0.00242026
0.0155676
-0.00124741
0.0161811
0.000457796
0.0170357
0.00235837
0.0179271
0.00415376
0.0187246
0.00562614
0.019363
0.00666066
0.019824
0.00722968
0.0201217
0.00737598
0.0202789
0.00716155
0.0203377
0.00671035
0.00588775
0.058539
0.0260954
-0.0633371
0.0526432
0.0215755
0.0461722
0.0170638
0.039637
0.012714
0.0334743
0.00866176
0.0280902
0.0050934
0.0237796
0.00223519
0.0207042
0.000313721
0.0188376
-0.000553613
0.0179889
-0.000398744
0.0178727
0.000573959
0.0181866
0.0020445
0.0186782
0.00366221
0.0191749
0.0051294
0.0195829
0.0062527
0.0198664
0.00694611
0.0200287
0.0072137
0.0200871
0.00710318
0.0200754
0.00672206
0.00596997
0.06235
0.0287309
-0.0649855
0.0582752
0.0256503
0.0530898
0.0222492
0.0471957
0.018608
0.0410481
0.0148093
0.0351354
0.0110061
0.029915
0.0074556
0.0257336
0.0044951
0.0227447
0.00243526
0.020895
0.00145104
0.0199622
0.0015067
0.0196464
0.00236033
0.0196626
0.00364601
0.0197989
0.00499307
0.01993
0.00612164
0.0199999
0.00687616
0.019999
0.00721467
0.0199373
0.00716482
0.0198407
0.00681874
0.00610224
0.0634061
0.0299266
-0.0646017
0.0609246
0.0281317
0.0572294
0.0259444
0.0524998
0.0233377
0.04704
0.0202692
0.0412758
0.0167704
0.0357047
0.0130267
0.0307998
0.00939994
0.0268952
0.00633991
0.0241099
0.00423628
0.0223434
0.00327318
0.021347
0.00335675
0.0208324
0.0041606
0.02056
0.00526553
0.020375
0.00630658
0.0202005
0.00705065
0.0200127
0.00740252
0.0198134
0.00736412
0.01962
0.00701211
0.00629177
0.0630375
0.0303941
-0.063505
0.0616342
0.029535
0.0591978
0.0283808
0.0557055
0.0268299
0.0512569
0.0247177
0.046114
0.0219133
0.0406942
0.0184465
0.0354976
0.0145966
0.0309788
0.0108587
0.0274232
0.00779194
0.0248822
0.00581416
0.0232029
0.00503607
0.0221298
0.00523367
0.0214157
0.00597959
0.0208851
0.00683726
0.0204416
0.00749408
0.0200479
0.00779627
0.019697
0.00771505
0.0193982
0.00731091
0.00654346
0.0621635
0.0306387
-0.062408
0.0613287
0.0303698
0.0597503
0.0299592
0.0572885
0.0292917
0.0538718
0.0281344
0.049571
0.0262142
0.0446486
0.0233689
0.0395359
0.0197092
0.0347258
0.0156688
0.0306238
0.0118939
0.0274307
0.00900722
0.0251153
0.00735148
0.0234879
0.00686104
0.0223185
0.00714899
0.0214238
0.00773202
0.0206942
0.0082237
0.0200805
0.00840989
0.0195679
0.00822769
0.019158
0.00772084
0.00685991
0.0612965
0.0309414
-0.0615993
0.0606549
0.0310114
0.0595442
0.0310699
0.0577965
0.0310395
0.0552422
0.0306887
0.0517932
0.0296632
0.0475359
0.0276262
0.0427703
0.0244748
0.0379492
0.0204899
0.0335356
0.0163075
0.0298492
0.0126937
0.0269832
0.0102174
0.0248357
0.00900852
0.023217