/*--------------------------------*- C++ -*----------------------------------*\
| =========                 |                                                 |
| \\      /  F ield         | OpenFOAM: The Open Source CFD Toolbox           |
|  \\    /   O peration     | Version:  v1806                                 |
|   \\  /    A nd           | Web:      www.OpenFOAM.com                      |
|    \\/     M anipulation  |                                                 |
\*---------------------------------------------------------------------------*/
FoamFile
{
    version     2.0;
    format      ascii;
    class       volVectorField;
    location    "290";
    object      U;
}
// * * * * * * * * * * * * * * * * * * * * * * * * * * * * * * * * * * * * * //

dimensions      [0 1 -1 0 0 0 0];


internalField   nonuniform List<vector> 
2400
(
(0.3 -0.00263866 0)
(0.300011 -0.00791055 0)
(0.300037 -0.0131587 0)
(0.300079 -0.018364 0)
(0.300144 -0.0235066 0)
(0.300234 -0.0285656 0)
(0.300357 -0.0335183 0)
(0.300519 -0.0383402 0)
(0.300728 -0.0430048 0)
(0.300992 -0.0474839 0)
(0.301321 -0.051748 0)
(0.301724 -0.0557666 0)
(0.302212 -0.0595094 0)
(0.302794 -0.0629468 0)
(0.303478 -0.0660513 0)
(0.304271 -0.068798 0)
(0.305179 -0.0711669 0)
(0.306203 -0.0731427 0)
(0.307346 -0.0747166 0)
(0.308597 -0.0758868 0)
(0.300001 -0.00264797 0)
(0.300029 -0.00793942 0)
(0.300086 -0.0132101 0)
(0.300176 -0.0184424 0)
(0.300304 -0.0236181 0)
(0.300476 -0.0287175 0)
(0.300701 -0.0337196 0)
(0.300987 -0.0386012 0)
(0.301345 -0.0433371 0)
(0.301786 -0.0479004 0)
(0.302323 -0.0522622 0)
(0.302967 -0.0563926 0)
(0.303729 -0.0602611 0)
(0.304618 -0.0638369 0)
(0.305641 -0.0670911 0)
(0.306804 -0.0699958 0)
(0.308107 -0.072528 0)
(0.309546 -0.074668 0)
(0.311115 -0.0764026 0)
(0.312799 -0.0777263 0)
(0.300002 -0.00266592 0)
(0.300046 -0.00799414 0)
(0.300136 -0.0133044 0)
(0.300275 -0.0185814 0)
(0.300471 -0.0238084 0)
(0.30073 -0.0289678 0)
(0.301063 -0.0340396 0)
(0.301482 -0.0390023 0)
(0.302 -0.0438313 0)
(0.30263 -0.0485003 0)
(0.303386 -0.0529802 0)
(0.304281 -0.0572401 0)
(0.305328 -0.0612478 0)
(0.306535 -0.06497 0)
(0.307908 -0.0683744 0)
(0.30945 -0.0714287 0)
(0.311157 -0.0741057 0)
(0.313019 -0.0763795 0)
(0.315026 -0.0782342 0)
(0.317151 -0.0796553 0)
(0.300003 -0.00269157 0)
(0.300061 -0.00807206 0)
(0.300179 -0.0134378 0)
(0.300364 -0.0187761 0)
(0.300621 -0.0240723 0)
(0.30096 -0.0293112 0)
(0.301395 -0.0344745 0)
(0.301938 -0.0395424 0)
(0.302606 -0.0444909 0)
(0.303416 -0.0492945 0)
(0.304382 -0.0539231 0)
(0.305522 -0.0583451 0)
(0.306848 -0.0625256 0)
(0.30837 -0.0664279 0)
(0.310094 -0.0700155 0)
(0.312019 -0.0732502 0)
(0.31414 -0.0760996 0)
(0.31644 -0.0785301 0)
(0.318903 -0.0805212 0)
(0.321492 -0.0820515 0)
(0.300004 -0.00272373 0)
(0.300074 -0.0081697 0)
(0.300216 -0.0136048 0)
(0.300438 -0.0190195 0)
(0.300747 -0.0244018 0)
(0.301155 -0.0297396 0)
(0.301678 -0.035016 0)
(0.302332 -0.040214 0)
(0.303136 -0.0453095 0)
(0.304111 -0.0502789 0)
(0.305275 -0.0550898 0)
(0.306648 -0.0597104 0)
(0.308246 -0.0641013 0)
(0.310079 -0.0682223 0)
(0.312156 -0.0720307 0)
(0.314473 -0.0754806 0)
(0.317024 -0.0785328 0)
(0.319784 -0.0811434 0)
(0.322732 -0.0832865 0)
(0.325818 -0.0849298 0)
(0.300004 -0.00276099 0)
(0.300083 -0.00828292 0)
(0.300244 -0.0137986 0)
(0.300494 -0.0193024 0)
(0.300843 -0.0247854 0)
(0.301306 -0.0302394 0)
(0.301901 -0.035649 0)
(0.302648 -0.0410012 0)
(0.303569 -0.0462708 0)
(0.304691 -0.051438 0)
(0.306036 -0.0564657 0)
(0.307627 -0.0613247 0)
(0.309487 -0.0659671 0)
(0.311627 -0.0703511 0)
(0.31406 -0.0744238 0)
(0.31678 -0.078131 0)
(0.31978 -0.0814241 0)
(0.32303 -0.0842449 0)
(0.326499 -0.086561 0)
(0.330126 -0.0883253 0)
(0.300005 -0.00280164 0)
(0.300089 -0.00840657 0)
(0.30026 -0.0140107 0)
(0.300527 -0.0196133 0)
(0.300902 -0.0252085 0)
(0.301403 -0.0307936 0)
(0.302048 -0.036354 0)
(0.302866 -0.0418834 0)
(0.303881 -0.0473531 0)
(0.305126 -0.0527517 0)
(0.30663 -0.0580322 0)
(0.30842 -0.0631745 0)
(0.310528 -0.0681136 0)
(0.312967 -0.0728137 0)
(0.315757 -0.077202 0)
(0.318893 -0.0812194 0)
(0.322366 -0.0848016 0)
(0.326142 -0.0878726 0)
(0.330178 -0.0903912 0)
(0.334403 -0.0922894 0)
(0.300005 -0.00284357 0)
(0.30009 -0.00853438 0)
(0.300263 -0.0142306 0)
(0.300534 -0.0199376 0)
(0.300917 -0.0256528 0)
(0.301432 -0.0313807 0)
(0.302104 -0.0371067 0)
(0.302964 -0.0428349 0)
(0.304044 -0.0485291 0)
(0.305381 -0.0541948 0)
(0.307014 -0.0597639 0)
(0.308977 -0.0652417 0)
(0.311312 -0.0705259 0)
(0.314037 -0.0756084 0)
(0.317185 -0.0803711 0)
(0.320747 -0.0847675 0)
(0.324721 -0.0886994 0)
(0.329069 -0.0920736 0)
(0.333729 -0.0948364 0)
(0.338626 -0.0968868 0)
(0.300004 -0.0028843 0)
(0.300085 -0.0086589 0)
(0.300249 -0.0144461 0)
(0.300508 -0.0202584 0)
(0.300878 -0.0260966 0)
(0.301382 -0.031975 0)
(0.302049 -0.0378772 0)
(0.302917 -0.0438235 0)
(0.304023 -0.0497637 0)
(0.305413 -0.0557339 0)
(0.307136 -0.0616263 0)
(0.309235 -0.0675019 0)
(0.311769 -0.0731796 0)
(0.314757 -0.0787314 0)
(0.318258 -0.0839311 0)
(0.322252 -0.0888019 0)
(0.326762 -0.0931559 0)
(0.331732 -0.0969072 0)
(0.337091 -0.0999723 0)
(0.342755 -0.1022 0)
(0.300004 -0.00292092 0)
(0.300073 -0.00877135 0)
(0.300216 -0.0146424 0)
(0.300444 -0.020555 0)
(0.300776 -0.0265137 0)
(0.301237 -0.0325446 0)
(0.301863 -0.0386286 0)
(0.302694 -0.0448085 0)
(0.30378 -0.0510123 0)
(0.305172 -0.0573257 0)
(0.306935 -0.0635725 0)
(0.309119 -0.0699208 0)
(0.31181 -0.0760353 0)
(0.315022 -0.0821761 0)
(0.318869 -0.0878685 0)
(0.323288 -0.0933585 0)
(0.328379 -0.098209 0)
(0.334023 -0.102451 0)
(0.340177 -0.105894 0)
(0.346733 -0.108335 0)
(0.300003 -0.00295006 0)
(0.300055 -0.00886155 0)
(0.300162 -0.0148027 0)
(0.300337 -0.0208035 0)
(0.300601 -0.0268733 0)
(0.300982 -0.0330517 0)
(0.301523 -0.039317 0)
(0.302265 -0.0457394 0)
(0.303274 -0.0522193 0)
(0.304602 -0.0589124 0)
(0.30634 -0.0655406 0)
(0.308538 -0.0724495 0)
(0.311328 -0.0790332 0)
(0.314704 -0.0859311 0)
(0.318878 -0.092144 0)
(0.323689 -0.0984909 0)
(0.329429 -0.103883 0)
(0.335782 -0.108819 0)
(0.342874 -0.11272 0)
(0.350481 -0.115435 0)
(0.300002 -0.0029679 0)
(0.300027 -0.00891797 0)
(0.300084 -0.0149078 0)
(0.30018 -0.0209765 0)
(0.300345 -0.0271401 0)
(0.300601 -0.0334516 0)
(0.301007 -0.0398897 0)
(0.301595 -0.0465536 0)
(0.30246 -0.0533171 0)
(0.303637 -0.0604173 0)
(0.305272 -0.0674526 0)
(0.307384 -0.075014 0)
(0.310195 -0.0820911 0)
(0.313644 -0.08997 0)
(0.318105 -0.0966786 0)
(0.323245 -0.104282 0)
(0.329729 -0.110157 0)
(0.336771 -0.116197 0)
(0.345055 -0.120587 0)
(0.353881 -0.123711 0)
(0.3 -0.00297025 0)
(0.299991 -0.00892792 0)
(0.299979 -0.0149361 0)
(0.299969 -0.0210433 0)
(0.299998 -0.0272737 0)
(0.30008 -0.033693 0)
(0.300295 -0.0402859 0)
(0.300651 -0.0471757 0)
(0.301297 -0.0542239 0)
(0.30221 -0.0617398 0)
(0.303651 -0.0692134 0)
(0.305533 -0.0775003 0)
(0.308272 -0.0851102 0)
(0.311646 -0.0942237 0)
(0.316326 -0.101356 0)
(0.321689 -0.110838 0)
(0.329015 -0.116909 0)
(0.336638 -0.124918 0)
(0.346613 -0.12961 0)
(0.356709 -0.133523 0)
(0.299998 -0.00295262 0)
(0.299944 -0.00887784 0)
(0.299847 -0.0148647 0)
(0.299701 -0.0209705 0)
(0.299555 -0.0272299 0)
(0.299409 -0.0337187 0)
(0.29937 -0.0404355 0)
(0.299406 -0.0475182 0)
(0.299743 -0.0548418 0)
(0.300255 -0.0627534 0)
(0.301398 -0.0707058 0)
(0.302845 -0.0797385 0)
(0.305414 -0.0879833 0)
(0.308466 -0.0985235 0)
(0.313281 -0.106069 0)
(0.318702 -0.118218 0)
(0.32687 -0.123898 0)
(0.334956 -0.135549 0)
(0.347414 -0.13972 0)
(0.358406 -0.145518 0)
(0.299995 -0.00291036 0)
(0.299889 -0.00875376 0)
(0.299685 -0.0146697 0)
(0.299375 -0.0207235 0)
(0.299013 -0.0269614 0)
(0.298584 -0.0334676 0)
(0.29822 -0.0402606 0)
(0.297845 -0.0474839 0)
(0.297766 -0.0550533 0)
(0.297728 -0.0633092 0)
(0.298434 -0.0717774 0)
(0.299191 -0.0815018 0)
(0.301478 -0.0905813 0)
(0.303799 -0.102542 0)
(0.308725 -0.110805 0)
(0.31382 -0.126226 0)
(0.322728 -0.130936 0)
(0.33138 -0.148876 0)
(0.346878 -0.150353 0)
(0.357955 -0.160965 0)
(0.299992 -0.00283897 0)
(0.299823 -0.00854191 0)
(0.299496 -0.0143272 0)
(0.298994 -0.0202676 0)
(0.298373 -0.0264201 0)
(0.297611 -0.032877 0)
(0.296844 -0.0396782 0)
(0.295974 -0.0469697 0)
(0.295346 -0.0547227 0)
(0.294616 -0.0632442 0)
(0.294683 -0.0722219 0)
(0.294493 -0.0825288 0)
(0.296285 -0.092681 0)
(0.297342 -0.105811 0)
(0.302409 -0.115641 0)
(0.306284 -0.134107 0)
(0.316139 -0.138437 0)
(0.325427 -0.165357 0)
(0.343277 -0.160298 0)
(0.35499 -0.182735 0)
(0.299988 -0.00273427 0)
(0.29975 -0.00822961 0)
(0.299281 -0.0138152 0)
(0.298564 -0.01957 0)
(0.297645 -0.0255606 0)
(0.296504 -0.031886 0)
(0.295257 -0.0386061 0)
(0.293816 -0.045871 0)
(0.292493 -0.0537041 0)
(0.290952 -0.0623859 0)
(0.290098 -0.0717783 0)
(0.288769 -0.0825466 0)
(0.289601 -0.0938603 0)
(0.288953 -0.107856 0)
(0.293867 -0.12037 0)
(0.295171 -0.140626 0)
(0.30693 -0.147967 0)
(0.315214 -0.183491 0)
(0.334586 -0.169457 0)
(0.35206 -0.216785 0)
(0.299984 -0.00259282 0)
(0.299671 -0.00780624 0)
(0.299047 -0.0131155 0)
(0.298095 -0.0186031 0)
(0.296845 -0.0243435 0)
(0.295287 -0.0304405 0)
(0.293497 -0.0369706 0)
(0.291416 -0.0440886 0)
(0.289262 -0.0518597 0)
(0.286806 -0.0605566 0)
(0.284721 -0.070169 0)
(0.282124 -0.0812572 0)
(0.281255 -0.0935018 0)
(0.278757 -0.108256 0)
(0.282184 -0.12384 0)
(0.280059 -0.144882 0)
(0.29393 -0.160649 0)
(0.296887 -0.198742 0)
(0.322119 -0.185547 0)
(0.350416 -0.269997 0)
(0.299979 -0.00241211 0)
(0.299587 -0.00726422 0)
(0.2988 -0.0122145 0)
(0.2976 -0.0173462 0)
(0.296 -0.0227393 0)
(0.293995 -0.0284984 0)
(0.291619 -0.0347137 0)
(0.288842 -0.0415392 0)
(0.285766 -0.0490753 0)
(0.282287 -0.0575872 0)
(0.278742 -0.0671549 0)
(0.274714 -0.0783116 0)
(0.27143 -0.0909961 0)
(0.267016 -0.106402 0)
(0.266598 -0.124053 0)
(0.261341 -0.146462 0)
(0.273052 -0.172158 0)
(0.267483 -0.208124 0)
(0.305463 -0.227518 0)
(0.334044 -0.331779 0)
(0.299975 -0.00219043 0)
(0.299502 -0.00659832 0)
(0.29855 -0.0111032 0)
(0.297096 -0.0157856 0)
(0.295141 -0.0207273 0)
(0.292674 -0.0260297 0)
(0.289698 -0.0317919 0)
(0.286187 -0.0381597 0)
(0.282156 -0.0452613 0)
(0.277559 -0.0533386 0)
(0.272473 -0.0625499 0)
(0.266785 -0.0733667 0)
(0.2608 -0.0859201 0)
(0.254041 -0.101342 0)
(0.248083 -0.119465 0)
(0.239693 -0.143397 0)
(0.239831 -0.172993 0)
(0.225651 -0.212632 0)
(0.264143 -0.281482 0)
(0.262494 -0.35351 0)
(0.310088 -0.0767376 0)
(0.311853 -0.077114 0)
(0.313744 -0.0769701 0)
(0.315717 -0.0763492 0)
(0.317767 -0.0753123 0)
(0.319833 -0.0739065 0)
(0.321948 -0.0722129 0)
(0.324004 -0.0702429 0)
(0.326132 -0.0681147 0)
(0.32809 -0.0657437 0)
(0.314767 -0.078727 0)
(0.317026 -0.0792378 0)
(0.319372 -0.0792024 0)
(0.321751 -0.0786622 0)
(0.324151 -0.0776746 0)
(0.326506 -0.076293 0)
(0.328847 -0.0745928 0)
(0.331075 -0.0726065 0)
(0.333306 -0.0704293 0)
(0.335337 -0.0680378 0)
(0.319601 -0.080744 0)
(0.322366 -0.0813182 0)
(0.325189 -0.081311 0)
(0.328001 -0.0807628 0)
(0.330783 -0.0797405 0)
(0.333465 -0.0783022 0)
(0.336078 -0.0765331 0)
(0.338529 -0.0744694 0)
(0.340939 -0.072214 0)
(0.343121 -0.0697303 0)
(0.324452 -0.0832291 0)
(0.327755 -0.0838501 0)
(0.331086 -0.0838456 0)
(0.334358 -0.083255 0)
(0.337542 -0.0821605 0)
(0.340563 -0.0806252 0)
(0.343454 -0.0787484 0)
(0.346134 -0.0765724 0)
(0.348714 -0.0742005 0)
(0.351047 -0.071618 0)
(0.329328 -0.0861889 0)
(0.333212 -0.0868318 0)
(0.337091 -0.0867931 0)
(0.340852 -0.0861102 0)
(0.344459 -0.0848922 0)
(0.347827 -0.0832039 0)
(0.350995 -0.0811734 0)
(0.353896 -0.0788372 0)
(0.356633 -0.076319 0)
(0.359104 -0.073599 0)
(0.334236 -0.0896608 0)
(0.338757 -0.0902987 0)
(0.343231 -0.0901825 0)
(0.347514 -0.089348 0)
(0.351564 -0.0879453 0)
(0.355281 -0.0860394 0)
(0.358719 -0.0838028 0)
(0.361822 -0.0812532 0)
(0.364697 -0.0785539 0)
(0.367281 -0.0756559 0)
(0.339177 -0.0936966 0)
(0.344405 -0.0942978 0)
(0.349533 -0.0940489 0)
(0.354379 -0.0929884 0)
(0.358886 -0.0913262 0)
(0.362945 -0.0891263 0)
(0.366638 -0.0866243 0)
(0.369911 -0.0837997 0)
(0.372897 -0.0808835 0)
(0.375547 -0.0777617 0)
(0.344145 -0.0983623 0)
(0.350173 -0.0988866 0)
(0.356023 -0.0984314 0)
(0.361479 -0.0970498 0)
(0.366449 -0.0950345 0)
(0.370837 -0.0924515 0)
(0.374754 -0.089615 0)
(0.378153 -0.0864468 0)
(0.381209 -0.0832747 0)
(0.38385 -0.0798753 0)
(0.349124 -0.103744 0)
(0.356077 -0.104139 0)
(0.362734 -0.103374 0)
(0.368855 -0.101547 0)
(0.374278 -0.0990621 0)
(0.378977 -0.0959931 0)
(0.383064 -0.09274 0)
(0.38653 -0.0891505 0)
(0.389567 -0.0856703 0)
(0.39207 -0.0819266 0)
(0.354094 -0.10996 0)
(0.362139 -0.110147 0)
(0.369711 -0.108926 0)
(0.376558 -0.10649 0)
(0.382408 -0.103394 0)
(0.387397 -0.0997179 0)
(0.391543 -0.0959434 0)
(0.394975 -0.0918313 0)
(0.397762 -0.0879542 0)
(0.399877 -0.083765 0)
(0.359024 -0.117168 0)
(0.368392 -0.117027 0)
(0.377031 -0.115144 0)
(0.384675 -0.111895 0)
(0.390905 -0.108013 0)
(0.396109 -0.103567 0)
(0.400056 -0.0991094 0)
(0.40317 -0.0943026 0)
(0.405137 -0.0898547 0)
(0.40633 -0.0850361 0)
(0.363869 -0.12558 0)
(0.374906 -0.124917 0)
(0.38486 -0.122099 0)
(0.393364 -0.117782 0)
(0.399827 -0.112865 0)
(0.4049 -0.107367 0)
(0.407983 -0.101922 0)
(0.409963 -0.0960817 0)
(0.4099 -0.0907416 0)
(0.409065 -0.0849619 0)
(0.368588 -0.135498 0)
(0.381917 -0.134013 0)
(0.393543 -0.129881 0)
(0.40275 -0.124101 0)
(0.408803 -0.117661 0)
(0.412565 -0.110541 0)
(0.413198 -0.103509 0)
(0.412165 -0.0960393 0)
(0.407972 -0.0893246 0)
(0.403169 -0.0821116 0)
(0.373406 -0.147427 0)
(0.390108 -0.144645 0)
(0.403434 -0.138454 0)
(0.412094 -0.130315 0)
(0.415583 -0.121286 0)
(0.415142 -0.11148 0)
(0.410242 -0.101888 0)
(0.402975 -0.0920464 0)
(0.391853 -0.0834792 0)
(0.380544 -0.0744602 0)
(0.379618 -0.162341 0)
(0.400419 -0.157247 0)
(0.413301 -0.147018 0)
(0.417193 -0.134423 0)
(0.413151 -0.120827 0)
(0.403439 -0.106861 0)
(0.388621 -0.0937276 0)
(0.371414 -0.0811547 0)
(0.351095 -0.0707124 0)
(0.331609 -0.0602058 0)
(0.389926 -0.181513 0)
(0.410988 -0.171273 0)
(0.415853 -0.152227 0)
(0.406141 -0.131456 0)
(0.386937 -0.110929 0)
(0.362207 -0.0919026 0)
(0.334088 -0.0753507 0)
(0.305708 -0.0610273 0)
(0.277214 -0.0498968 0)
(0.251779 -0.0397351 0)
(0.403693 -0.203383 0)
(0.408937 -0.180581 0)
(0.392256 -0.144963 0)
(0.35738 -0.113021 0)
(0.316977 -0.0852886 0)
(0.2761 -0.0629961 0)
(0.237856 -0.0460335 0)
(0.204506 -0.0334554 0)
(0.17566 -0.0248657 0)
(0.152609 -0.018424 0)
(0.404836 -0.213302 0)
(0.362952 -0.167952 0)
(0.313339 -0.11045 0)
(0.248222 -0.0716802 0)
(0.193861 -0.0427326 0)
(0.149966 -0.0249715 0)
(0.117384 -0.0148445 0)
(0.0939191 -0.00928373 0)
(0.0764602 -0.00631106 0)
(0.0639549 -0.00486652 0)
(0.355369 -0.174716 0)
(0.229316 -0.110277 0)
(0.161679 -0.0357494 0)
(0.0900496 -0.0137139 0)
(0.0574907 -0.001786 0)
(0.0360384 -0.000288271 0)
(0.0242737 0.000318069 0)
(0.0168728 0.000505732 0)
(0.0118695 0.000528522 0)
(0.00852777 -0.000342687 0)
(0.208685 -0.133701 0)
(-0.00195874 -0.0357099 0)
(0.00569735 0.0109922 0)
(-0.020655 0.0042713 0)
(-0.0115201 0.00432113 0)
(-0.0133126 0.00188527 0)
(-0.0116521 0.00130517 0)
(-0.0108592 0.000987635 0)
(-0.00993508 0.00069748 0)
(-0.00962407 -0.00057085 0)
(0.332199 -0.0610822 0)
(0.337225 -0.0527044 0)
(0.342395 -0.0446807 0)
(0.346353 -0.0351409 0)
(0.350523 -0.0259203 0)
(0.353489 -0.0144755 0)
(0.356476 -0.00297465 0)
(0.358405 0.012093 0)
(0.359471 0.025947 0)
(0.36089 0.0455113 0)
(0.359058 0.0591005 0)
(0.361175 0.0809795 0)
(0.357163 0.088039 0)
(0.359563 0.102962 0)
(0.356004 0.101822 0)
(0.35667 0.0966177 0)
(0.35442 0.0890372 0)
(0.354388 0.0598848 0)
(0.352246 0.0500377 0)
(0.350357 0.00412906 0)
(0.339533 -0.0632076 0)
(0.344399 -0.0545899 0)
(0.349316 -0.0463235 0)
(0.352938 -0.036588 0)
(0.356759 -0.0271479 0)
(0.359258 -0.0155138 0)
(0.361739 -0.00387731 0)
(0.363034 0.0115675 0)
(0.363256 0.0256916 0)
(0.363518 0.0455935 0)
(0.360535 0.0592332 0)
(0.361593 0.0811494 0)
(0.356889 0.0883198 0)
(0.358837 0.103019 0)
(0.355073 0.102052 0)
(0.355612 0.0968418 0)
(0.353338 0.0891387 0)
(0.353343 0.0601454 0)
(0.351109 0.0505942 0)
(0.349771 0.00433884 0)
(0.347509 -0.0647537 0)
(0.352551 -0.0559985 0)
(0.357508 -0.0475499 0)
(0.361194 -0.037691 0)
(0.364963 -0.0280492 0)
(0.367446 -0.0162712 0)
(0.36974 -0.0042738 0)
(0.370675 0.0114244 0)
(0.370178 0.0257991 0)
(0.369109 0.0461122 0)
(0.364355 0.0598127 0)
(0.3634 0.0817886 0)
(0.357045 0.0889538 0)
(0.357846 0.103336 0)
(0.353418 0.10251 0)
(0.353502 0.0972506 0)
(0.351194 0.0893437 0)
(0.350953 0.060593 0)
(0.348508 0.0511997 0)
(0.347998 0.0042357 0)
(0.355611 -0.066428 0)
(0.360876 -0.0574644 0)
(0.365884 -0.0487872 0)
(0.369762 -0.0387889 0)
(0.373536 -0.02893 0)
(0.376257 -0.0169944 0)
(0.378575 -0.00468446 0)
(0.379631 0.0113301 0)
(0.378856 0.0261843 0)
(0.376967 0.0470728 0)
(0.370511 0.061035 0)
(0.367139 0.0830823 0)
(0.3583 0.0901159 0)
(0.357191 0.104066 0)
(0.351439 0.103177 0)
(0.350568 0.0978205 0)
(0.348221 0.0895829 0)
(0.347114 0.0611309 0)
(0.344714 0.0516139 0)
(0.345108 0.00388922 0)
(0.363802 -0.06816 0)
(0.369274 -0.0589762 0)
(0.37425 -0.0500613 0)
(0.378283 -0.0399307 0)
(0.381899 -0.029847 0)
(0.384863 -0.0178066 0)
(0.387152 -0.00516508 0)
(0.388657 0.0111713 0)
(0.387936 0.0266612 0)
(0.38596 0.0483047 0)
(0.378302 0.0628458 0)
(0.372754 0.0850987 0)
(0.361009 0.092006 0)
(0.357395 0.10536 0)
(0.349615 0.104204 0)
(0.347231 0.0986117 0)
(0.344754 0.0899181 0)
(0.342003 0.0618051 0)
(0.340312 0.0518496 0)
(0.3413 0.00334159 0)
(0.372058 -0.0699376 0)
(0.377684 -0.0605116 0)
(0.382465 -0.0513382 0)
(0.386463 -0.0410608 0)
(0.389576 -0.0307548 0)
(0.392594 -0.0186585 0)
(0.3946 -0.00569522 0)
(0.396724 0.0108902 0)
(0.396234 0.0270791 0)
(0.394905 0.0496047 0)
(0.386689 0.0650634 0)
(0.379683 0.087796 0)
(0.365081 0.0947156 0)
(0.358728 0.107365 0)
(0.348321 0.105795 0)
(0.343997 0.0997238 0)
(0.341105 0.0905158 0)
(0.336012 0.0626628 0)
(0.335912 0.0518929 0)
(0.336654 0.00267613 0)
(0.380339 -0.0717411 0)
(0.385972 -0.0620301 0)
(0.390231 -0.0525476 0)
(0.393745 -0.042075 0)
(0.395782 -0.0315496 0)
(0.39845 -0.0194509 0)
(0.399777 -0.00624835 0)
(0.402623 0.0104475 0)
(0.402496 0.0273213 0)
(0.402586 0.0507723 0)
(0.394507 0.0674574 0)
(0.387043 0.0910225 0)
(0.370025 0.0981993 0)
(0.361125 0.110171 0)
(0.347697 0.108085 0)
(0.341293 0.10126 0)
(0.337452 0.0915474 0)
(0.32964 0.0636688 0)
(0.33191 0.0517604 0)
(0.331048 0.0020421 0)
(0.388555 -0.0735302 0)
(0.393808 -0.0634387 0)
(0.396882 -0.053541 0)
(0.399054 -0.0427847 0)
(0.399158 -0.032055 0)
(0.400829 -0.0200431 0)
(0.401005 -0.00677293 0)
(0.404679 0.00980745 0)
(0.405126 0.0272592 0)
(0.407576 0.0515887 0)
(0.400471 0.0697667 0)
(0.393763 0.0945401 0)
(0.375062 0.1023 0)
(0.364193 0.113766 0)
(0.347614 0.111107 0)
(0.339322 0.103308 0)
(0.333782 0.0931349 0)
(0.323378 0.064747 0)
(0.328328 0.0515904 0)
(0.324174 0.00165751 0)
(0.396431 -0.0752062 0)
(0.400403 -0.0645324 0)
(0.401067 -0.0540355 0)
(0.400527 -0.0428839 0)
(0.397582 -0.0320141 0)
(0.397431 -0.0202496 0)
(0.396039 -0.00721199 0)
(0.400715 0.00891423 0)
(0.402114 0.0267128 0)
(0.408113 0.051772 0)
(0.403081 0.0716785 0)
(0.398609 0.0980413 0)
(0.379223 0.106776 0)
(0.367271 0.118044 0)
(0.347717 0.114801 0)
(0.337989 0.105932 0)
(0.32992 0.0953365 0)
(0.317587 0.0658355 0)
(0.324773 0.0516548 0)
(0.315613 0.00176691 0)
(0.403185 -0.0765229 0)
(0.404086 -0.0649052 0)
(0.400407 -0.053569 0)
(0.395355 -0.0419523 0)
(0.388198 -0.0311178 0)
(0.385451 -0.0198838 0)
(0.382356 -0.00754394 0)
(0.388366 0.00767062 0)
(0.391309 0.0254401 0)
(0.402218 0.0509604 0)
(0.400634 0.0728005 0)
(0.400189 0.10114 0)
(0.381404 0.111311 0)
(0.369505 0.122813 0)
(0.347487 0.119032 0)
(0.33689 0.109169 0)
(0.325602 0.0981347 0)
(0.312396 0.066926 0)
(0.320514 0.0523277 0)
(0.304963 0.00257313 0)
(0.406921 -0.0769399 0)
(0.401822 -0.0638767 0)
(0.391325 -0.0515199 0)
(0.379991 -0.0395342 0)
(0.367903 -0.0290985 0)
(0.362272 -0.0188425 0)
(0.357929 -0.00783694 0)
(0.365836 0.00591847 0)
(0.3711 0.0231521 0)
(0.388183 0.0487464 0)
(0.391479 0.0726713 0)
(0.397047 0.103366 0)
(0.380418 0.115521 0)
(0.369922 0.127799 0)
(0.346292 0.123608 0)
(0.335385 0.113017 0)
(0.320539 0.101435 0)
(0.307626 0.0680933 0)
(0.314636 0.0540302 0)
(0.291946 0.0042175 0)
(0.403844 -0.0754769 0)
(0.389013 -0.0605301 0)
(0.369492 -0.0472634 0)
(0.351067 -0.0353272 0)
(0.334495 -0.0258961 0)
(0.326698 -0.0172238 0)
(0.322386 -0.00827725 0)
(0.332954 0.00345442 0)
(0.341357 0.0195746 0)
(0.365345 0.0447776 0)
(0.374542 0.0708369 0)
(0.387941 0.104202 0)
(0.375115 0.11897 0)
(0.367526 0.132653 0)
(0.343424 0.128297 0)
(0.332705 0.11742 0)
(0.314456 0.10508 0)
(0.302794 0.0695093 0)
(0.306231 0.0571588 0)
(0.276493 0.00673964 0)
(0.387811 -0.0707441 0)
(0.360219 -0.0539909 0)
(0.331292 -0.0405121 0)
(0.30714 -0.0294797 0)
(0.288331 -0.0218883 0)
(0.280341 -0.0154952 0)
(0.278025 -0.00925399 0)
(0.291939 2.8727e-05 0)
(0.304073 0.0145396 0)
(0.334704 0.0389058 0)
(0.349915 0.0669909 0)
(0.37223 0.103189 0)
(0.364606 0.121226 0)
(0.361441 0.136973 0)
(0.338151 0.132846 0)
(0.32808 0.122254 0)
(0.307085 0.108888 0)
(0.297178 0.0714287 0)
(0.294556 0.0620073 0)
(0.258807 0.0100565 0)
(0.35128 -0.0614026 0)
(0.311449 -0.0440281 0)
(0.276407 -0.0318174 0)
(0.250764 -0.0229089 0)
(0.233566 -0.0179963 0)
(0.228071 -0.0144194 0)
(0.229685 -0.0112355 0)
(0.247066 -0.00449923 0)
(0.263001 0.00803619 0)
(0.298819 0.0312935 0)
(0.319047 0.061108 0)
(0.350163 0.100064 0)
(0.3485 0.121939 0)
(0.351063 0.14036 0)
(0.3298 0.137003 0)
(0.320867 0.127326 0)
(0.298151 0.112683 0)
(0.289944 0.0741517 0)
(0.279149 0.0686992 0)
(0.239376 0.0139561 0)
(0.28894 -0.0472332 0)
(0.244087 -0.0319117 0)
(0.210378 -0.0229129 0)
(0.189205 -0.0171449 0)
(0.17744 -0.0152874 0)
(0.176475 -0.0146229 0)
(0.182887 -0.0144144 0)
(0.202964 -0.0100387 0)
(0.222157 0.000310103 0)
(0.26082 0.0224037 0)
(0.284308 0.0534835 0)
(0.322821 0.0948595 0)
(0.32703 0.120921 0)
(0.336186 0.142483 0)
(0.317864 0.140545 0)
(0.310649 0.13239 0)
(0.28736 0.116342 0)
(0.280288 0.0779713 0)
(0.259886 0.0771461 0)
(0.218959 0.0180939 0)
(0.204406 -0.0307134 0)
(0.168274 -0.0207476 0)
(0.144208 -0.0160907 0)
(0.131797 -0.0134938 0)
(0.127023 -0.0143534 0)
(0.130849 -0.0162663 0)
(0.141396 -0.0186085 0)
(0.16276 -0.0163135 0)
(0.184215 -0.0080639 0)
(0.223182 0.0128991 0)
(0.248141 0.0446441 0)
(0.291729 0.0879054 0)
(0.300992 0.118185 0)
(0.317013 0.143145 0)
(0.302092 0.143299 0)
(0.297296 0.137178 0)
(0.274414 0.119818 0)
(0.267564 0.0831175 0)
(0.237012 0.0870425 0)
(0.198522 0.0220181 0)
(0.115516 -0.0173234 0)
(0.100085 -0.0139318 0)
(0.0886469 -0.0126375 0)
(0.0849769 -0.01224 0)
(0.0859617 -0.0150597 0)
(0.0932571 -0.0190276 0)
(0.106224 -0.0233837 0)
(0.127424 -0.0229134 0)
(0.149931 -0.0165443 0)
(0.187106 0.00337838 0)
(0.212345 0.0351648 0)
(0.258392 0.0797145 0)
(0.271527 0.113909 0)
(0.294058 0.142311 0)
(0.282552 0.145157 0)
(0.280951 0.141445 0)
(0.259031 0.123162 0)
(0.251377 0.0897108 0)
(0.211144 0.0978812 0)
(0.179115 0.0252007 0)
(0.0456897 -0.0114448 0)
(0.0505333 -0.0123401 0)
(0.0480165 -0.0120132 0)
(0.0499889 -0.0127034 0)
(0.0541404 -0.0167809 0)
(0.062977 -0.0223306 0)
(0.0764484 -0.0282461 0)
(0.0963532 -0.0294388 0)
(0.118686 -0.0247527 0)
(0.152801 -0.00573774 0)
(0.177847 0.0255152 0)
(0.223997 0.0708299 0)
(0.239863 0.108371 0)
(0.267991 0.140093 0)
(0.259633 0.146062 0)
(0.261974 0.14502 0)
(0.240989 0.126514 0)
(0.231648 0.0977145 0)
(0.18326 0.108968 0)
(0.16171 0.0270841 0)
(0.00489552 -0.0119604 0)
(0.0197857 -0.0140703 0)
(0.0205959 -0.0127553 0)
(0.0246704 -0.0139257 0)
(0.0295146 -0.0188186 0)
(0.0381522 -0.0256177 0)
(0.0505953 -0.0327982 0)
(0.068447 -0.0355697 0)
(0.0895152 -0.0323674 0)
(0.120065 -0.0142763 0)
(0.144852 0.0160068 0)
(0.189331 0.061706 0)
(0.207085 0.101886 0)
(0.239514 0.136703 0)
(0.234009 0.145982 0)
(0.240806 0.147829 0)
(0.220134 0.130075 0)
(0.208623 0.10691 0)
(0.154668 0.119466 0)
(0.147039 0.0271725 0)
(-0.01034 -0.0148153 0)
(0.00255754 -0.0164391 0)
(0.00257046 -0.0135944 0)
(0.00607089 -0.0151476 0)
(0.00988265 -0.0206471 0)
(0.0170993 -0.0284903 0)
(0.0275341 -0.036781 0)
(0.0428448 -0.0410664 0)
(0.0617842 -0.0392136 0)
(0.0887464 -0.0222396 0)
(0.113208 0.00683259 0)
(0.154874 0.0526598 0)
(0.174033 0.0947274 0)
(0.209353 0.132378 0)
(0.206574 0.144927 0)
(0.217869 0.149958 0)
(0.196539 0.134031 0)
(0.183013 0.116826 0)
(0.126983 0.128456 0)
(0.135529 0.0251148 0)
(-0.00592058 -0.0145993 0)
(-0.00737953 -0.0170998 0)
(-0.0107198 -0.0138508 0)
(-0.00956643 -0.0159797 0)
(-0.00792606 -0.0221015 0)
(-0.00303157 -0.030957 0)
(0.00463447 -0.0403737 0)
(0.0168138 -0.0462206 0)
(0.0327597 -0.0458183 0)
(0.0559168 -0.0303398 0)
(0.079661 -0.00273429 0)
(0.117558 0.0430043 0)
(0.138029 0.0863546 0)
(0.175034 0.126777 0)
(0.175325 0.142652 0)
(0.190987 0.151661 0)
(0.167664 0.138907 0)
(0.152717 0.128014 0)
(0.0992423 0.135769 0)
(0.126551 0.0201852 0)
(-0.00452891 -0.0114107 0)
(-0.0132837 -0.0149332 0)
(-0.0204868 -0.0129311 0)
(-0.0224975 -0.0158734 0)
(-0.0236859 -0.0227391 0)
(-0.0216795 -0.0325976 0)
(-0.0172693 -0.0431526 0)
(-0.00874367 -0.0505371 0)
(0.00344864 -0.0517888 0)
(0.0225295 -0.0382091 0)
(0.0445977 -0.0123316 0)
(0.0781818 0.0329801 0)
(0.100064 0.0768606 0)
(0.137458 0.119862 0)
(0.141108 0.138971 0)
(0.159667 0.153271 0)
(0.133185 0.144939 0)
(0.119452 0.139164 0)
(0.0756831 0.13922 0)
(0.121527 0.0116637 0)
(-0.00437237 -0.00810356 0)
(-0.0169328 -0.011332 0)
(-0.0274226 -0.0108615 0)
(-0.0323546 -0.0147178 0)
(-0.0362505 -0.0223962 0)
(-0.0370074 -0.0331734 0)
(-0.035703 -0.0447622 0)
(-0.0308182 -0.0535511 0)
(-0.0225173 -0.056391 0)
(-0.00766541 -0.0448096 0)
(0.0116142 -0.0210299 0)
(0.0409417 0.0234828 0)
(0.0640492 0.0671582 0)
(0.100672 0.112452 0)
(0.107234 0.134547 0)
(0.12657 0.155169 0)
(0.0975966 0.151207 0)
(0.0891852 0.147544 0)
(0.0608193 0.137387 0)
(0.121319 0.000473471 0)
(-0.00458328 -0.00426868 0)
(-0.0192922 -0.00679633 0)
(-0.0322319 -0.00785 0)
(-0.0394735 -0.012665 0)
(-0.0456346 -0.0211857 0)
(-0.0487376 -0.0327819 0)
(-0.0501428 -0.0452851 0)
(-0.0485746 -0.0553177 0)
(-0.0440151 -0.0595564 0)
(-0.0337392 -0.05008 0)
(-0.0181531 -0.0285293 0)
(0.00688205 0.0146043 0)
(0.0304702 0.0574495 0)
(0.0651368 0.104937 0)
(0.0739323 0.129859 0)
(0.0927027 0.157436 0)
(0.0639579 0.156613 0)
(0.065297 0.151533 0)
(0.055441 0.130157 0)
(0.125965 -0.0121559 0)
(-0.0047864 -5.73783e-05 0)
(-0.0206193 -0.00164875 0)
(-0.0351074 -0.0041732 0)
(-0.0438863 -0.00993927 0)
(-0.0517026 -0.0192924 0)
(-0.0565667 -0.0315973 0)
(-0.0600946 -0.0448868 0)
(-0.0612673 -0.0559016 0)
(-0.0600757 -0.0613581 0)
(-0.0544058 -0.0539159 0)
(-0.0430716 -0.0344265 0)
(-0.0228502 0.00651757 0)
(2.42369e-06 0.0480464 0)
(0.0314641 0.0976492 0)
(0.0421813 0.12511 0)
(0.0602688 0.159541 0)
(0.0362641 0.159758 0)
(0.0504518 0.150113 0)
(0.0594268 0.118045 0)
(0.13516 -0.0248729 0)
(-0.00481643 0.00431523 0)
(-0.0209137 0.0038042 0)
(-0.0360207 -0.000122466 0)
(-0.0455016 -0.00679382 0)
(-0.0542905 -0.0169392 0)
(-0.0602564 -0.0298402 0)
(-0.0652046 -0.0437909 0)
(-0.0683657 -0.05548 0)
(-0.06988 -0.061923 0)
(-0.0684521 -0.0561972 0)
(-0.0615196 -0.0387468 0)
(-0.0467865 -0.000492952 0)
(-0.025929 0.0394811 0)
(0.00118528 0.0907009 0)
(0.0142246 0.120158 0)
(0.0324372 0.160383 0)
(0.0185953 0.159378 0)
(0.0457109 0.143123 0)
(0.0717101 0.101979 0)
(0.148468 -0.0372633 0)
(-0.00462118 0.00862674 0)
(-0.0200599 0.00925492 0)
(-0.0348138 0.00398745 0)
(-0.0441441 -0.00348654 0)
(-0.0532106 -0.0143602 0)
(-0.0596277 -0.027748 0)
(-0.0652782 -0.042257 0)
(-0.0696195 -0.054321 0)
(-0.0729274 -0.0614939 0)
(-0.0749732 -0.0569977 0)
(-0.0720232 -0.0414596 0)
(-0.0631603 -0.00592987 0)
(-0.0451657 0.0321643 0)
(-0.0232032 0.0840357 0)
(-0.00686676 0.114605 0)
(0.0123903 0.158698 0)
(0.0137472 0.154751 0)
(0.0505581 0.131303 0)
(0.0906106 0.0831748 0)
(0.165311 -0.0490802 0)
(-0.00425769 0.012613 0)
(-0.0178309 0.0143581 0)
(-0.0311741 0.00783299 0)
(-0.0394981 -0.000264711 0)
(-0.0481777 -0.0117801 0)
(-0.0544682 -0.0255479 0)
(-0.0601934 -0.0405448 0)
(-0.0650159 -0.0527485 0)
(-0.0691227 -0.0603852 0)
(-0.0735953 -0.0565758 0)
(-0.0735748 -0.0426925 0)
(-0.070397 -0.00962901 0)
(-0.0553513 0.0261766 0)
(-0.0389041 0.0776334 0)
(-0.0181508 0.107984 0)
(0.00236984 0.153578 0)
(0.0220661 0.145999 0)
(0.0638529 0.115971 0)
(0.114588 0.0627767 0)
(0.185022 -0.0600895 0)
(-0.00400931 0.0160456 0)
(-0.0137535 0.0187063 0)
(-0.0245218 0.0110844 0)
(-0.0310067 0.00257881 0)
(-0.03868 -0.00940252 0)
(-0.0443667 -0.0234289 0)
(-0.0497033 -0.038859 0)
(-0.0545834 -0.0510562 0)
(-0.0586825 -0.0589346 0)
(-0.0645649 -0.0553554 0)
(-0.0660239 -0.0427613 0)
(-0.0676605 -0.011879 0)
(-0.0547479 0.021421 0)
(-0.0437108 0.071419 0)
(-0.0176357 0.100209 0)
(0.00342998 0.144744 0)
(0.0414502 0.133781 0)
(0.084485 0.098522 0)
(0.142473 0.0418257 0)
(0.206855 -0.0701017 0)
(-0.00486557 0.0189785 0)
(-0.00680041 0.0216999 0)
(-0.0138262 0.0134119 0)
(-0.0177196 0.00478879 0)
(-0.0238188 -0.00739618 0)
(-0.0285391 -0.0215266 0)
(-0.0331894 -0.0372846 0)
(-0.0380808 -0.0494112 0)
(-0.0418176 -0.0573882 0)
(-0.0485255 -0.0538125 0)
(-0.0500783 -0.0420847 0)
(-0.0552128 -0.0130983 0)
(-0.0430758 0.0176521 0)
(-0.0366669 0.0650797 0)
(-0.00483457 0.0913706 0)
(0.0158955 0.132637 0)
(0.0685825 0.118882 0)
(0.111238 0.0800153 0)
(0.173151 0.0212458 0)
(0.229966 -0.0789811 0)
(-0.00950172 0.0189922 0)
(0.00409985 0.0216426 0)
(0.00100992 0.0144707 0)
(-0.000254624 0.00601004 0)
(-0.0045956 -0.00601252 0)
(-0.00823805 -0.0201146 0)
(-0.0121045 -0.0359365 0)
(-0.0172689 -0.0479932 0)
(-0.0208383 -0.0559149 0)
(-0.0284599 -0.0524339 0)
(-0.0294085 -0.0411689 0)
(-0.0365767 -0.013811 0)
(-0.0241036 0.0148128 0)
(-0.020718 0.0590402 0)
(0.0157036 0.082769 0)
(0.0359654 0.120003 0)
(0.0966171 0.104184 0)
(0.138903 0.0632043 0)
(0.201852 0.00386381 0)
(0.2509 -0.0857937 0)
(0.00224964 0.0160066 0)
(0.0202662 0.0196085 0)
(0.0195288 0.014624 0)
(0.0200968 0.00654329 0)
(0.0173407 -0.0051719 0)
(0.0146481 -0.0191503 0)
(0.0115879 -0.0348103 0)