x,y,z,U_0,U_1,U_2
0,0,0,0.299994,-0.000101737,0
0,0.1,0,0.299997,-6.10419e-05,0
0,0.2,0,0.299999,-2.03473e-05,0
0,0.3,0,0.3,0,0
0,0.4,0,0.3,0,0
0,0.5,0,0.3,0,0
0,0.6,0,0.3,0,0
0,0.7,0,0.3,0,0
0,0.8,0,0.3,0,0
0,0.9,0,0.3,0,0
0,1,0,0.3,0,0
0,1.1,0,0.3,0,0
0,1.2,0,0.3,0,0
0,1.3,0,0.3,0,0
0,1.4,0,0.3,0,0
0,1.5,0,0.3,0,0
0,1.6,0,0.3,0,0
0,1.7,0,0.3,0,0
0,1.8,0,0.3,0,0
0,1.9,0,0.3,0,0
0,2,0,0.3,0,0
0,2.1,0,0.3,0,0
0,2.2,0,0.3,0,0
0,2.3,0,0.3,0,0
0,2.4,0,0.3,0,0
0,2.5,0,0.3,0,0
0,2.6,0,0.3,0,0
0,2.7,0,0.3,0,0
0,2.8,0,0.3,0,0
0,2.9,0,0.3,0,0
0,3,0,0.3,0,0
0,3.1,0,0.3,0,0
0,3.2,0,0.3,0,0
0,3.3,0,0.3,0,0
0,3.4,0,0.3,0,0
0,3.5,0,0.3,0,0
0,3.6,0,0.3,0,0
0,3.7,0,0.3,0,0
0,3.8,0,0.3,0,0
0,3.9,0,0.3,0,0
0,4,0,0.3,0,0
0,4.1,0,0.3,0,0
0,4.2,0,0.3,0,0
0,4.3,0,0.3,0,0
0,4.4,0,0.3,0,0
0,4.5,0,0.3,0,0
0,4.6,0,0.3,0,0
0,4.7,0,0.3,0,0
0,4.8,0,0.3,0,0
0,4.9,0,0.3,0,0
0,5,0,0.3,0,0
0,5.1,0,0.3,0,0
0,5.2,0,0.3,0,0
0,5.3,0,0.3,0,0
0,5.4,0,0.3,0,0
0,5.5,0,0.3,0,0
0,5.6,0,0.3,0,0
0,5.7,0,0.3,0,0
0,5.8,0,0.3,0,0
0,5.9,0,0.3,0,0
0,6,0,0.3,0,0
0,6.1,0,0.3,0,0
0,6.2,0,0.3,0,0
0,6.3,0,0.3,0,0
0,6.4,0,0.3,0,0
0,6.5,0,0.3,0,0
0,6.6,0,0.3,0,0
0,6.7,0,0.3,0,0
0,6.8,0,0.3,0,0
0,6.9,0,0.3,0,0
0,7,0,0.3,0,0
0,7.1,0,0.3,0,0
0,7.2,0,0.3,0,0
0,7.3,0,0.3,0,0
0,7.4,0,0.3,0,0
0,7.5,0,0.3,0,0
0,7.6,0,0.3,0,0
0,7.7,0,0.3,0,0
0,7.8,0,0.3,0,0
0,7.9,0,0.3,0,0
0,8,0,0.3,0,0
0,8.1,0,0.3,0,0
0,8.2,0,0.3,0,0
0,8.3,0,0.3,0,0
0,8.4,0,0.3,0,0
0,8.5,0,0.3,0,0
0,8.6,0,0.3,0,0
0,8.7,0,0.3,0,0
0,8.8,0,0.3,0,0
0,8.9,0,0.3,0,0
0,9,0,0.3,0,0
0,9.1,0,0.3,0,0
0,9.2,0,0.3,0,0
0,9.3,0,0.3,0,0
0,9.4,0,0.3,0,0
0,9.5,0,0.3,0,0
0,9.6,0,0.3,0,0
0,9.7,0,0.3,0,0
0,9.8,0,0.3,0,0
0,9.9,0,0.3,0,0
0,10,0,0.3,0,0
0,10.1,0,0.3,0,0
0,10.2,0,0.3,0,0
0,10.3,0,0.3,0,0
0,10.4,0,0.3,0,0
0,10.5,0,0.3,0,0
0,10.6,0,0.3,0,0
0,10.7,0,0.3,0,0
0,10.8,0,0.3,0,0
0,10.9,0,0.3,0,0
0,11,0,0.3,0,0
0,11.1,0,0.3,0,0
0,11.2,0,0.3,0,0
0,11.3,0,0.3,0,0
0,11.4,0,0.3,0,0
0,11.5,0,0.3,0,0
0,11.6,0,0.3,0,0
0,11.7,0,0.3,0,0
0,11.8,0,0.3,0,0
0,11.9,0,0.3,0,0
0,12,0,0.3,0,0
0,12.1,0,0.3,0,0
0,12.2,0,0.3,0,0
0,12.3,0,0.3,0,0
0,12.4,0,0.3,0,0
0,12.5,0,0.299998,3.0534e-05,0
0,12.6,0,0.299996,6.64563e-05,0
0,12.7,0,0.299993,0.000102379,0
0.1,0,0,0.299996,-0.000168351,0
0.1,0.1,0,0.299994,-0.00010349,0
0.1,0.2,0,0.299996,-6.27955e-05,0
0.1,0.3,0,0.299997,-5.51494e-05,0
0.1,0.4,0,0.299997,-5.51494e-05,0
0.1,0.5,0,0.300001,-7.77732e-05,0
0.1,0.6,0,0.299996,-5.55374e-05,0
0.1,0.7,0,0.299996,-5.55374e-05,0
0.1,0.8,0,0.299996,-5.55633e-05,0
0.1,0.9,0,0.299996,-5.55633e-05,0
0.1,1,0,0.3,-7.56835e-05,0
0.1,1.1,0,0.299995,-5.53285e-05,0
0.1,1.2,0,0.299995,-5.53285e-05,0
0.1,1.3,0,0.299994,-5.48329e-05,0
0.1,1.4,0,0.299994,-5.48329e-05,0
0.1,1.5,0,0.299999,-7.24984e-05,0
0.1,1.6,0,0.299994,-5.4076e-05,0
0.1,1.7,0,0.299994,-5.4076e-05,0
0.1,1.8,0,0.299993,-5.30704e-05,0
0.1,1.9,0,0.299993,-5.30704e-05,0
0.1,2,0,0.299998,-6.82235e-05,0
0.1,2.1,0,0.299992,-5.18318e-05,0
0.1,2.2,0,0.299992,-5.18318e-05,0
0.1,2.3,0,0.299992,-5.03746e-05,0
0.1,2.4,0,0.299992,-5.03746e-05,0
0.1,2.5,0,0.299997,-6.29167e-05,0
0.1,2.6,0,0.299991,-4.87129e-05,0
0.1,2.7,0,0.299991,-4.87129e-05,0
0.1,2.8,0,0.299991,-4.68598e-05,0
0.1,2.9,0,0.299991,-4.68598e-05,0
0.1,3,0,0.299997,-5.66456e-05,0
0.1,3.1,0,0.299991,-4.48245e-05,0
0.1,3.2,0,0.299991,-4.48245e-05,0
0.1,3.3,0,0.29999,-4.26139e-05,0
0.1,3.4,0,0.29999,-4.26139e-05,0
0.1,3.5,0,0.299996,-4.95041e-05,0
0.1,3.6,0,0.29999,-4.02315e-05,0
0.1,3.7,0,0.29999,-4.02315e-05,0
0.1,3.8,0,0.299991,-3.76774e-05,0
0.1,3.9,0,0.299991,-3.76774e-05,0
0.1,4,0,0.299995,-4.16176e-05,0
0.1,4.1,0,0.299991,-3.49489e-05,0
0.1,4.2,0,0.299991,-3.49489e-05,0
0.1,4.3,0,0.299991,-3.20412e-05,0
0.1,4.4,0,0.299991,-3.20412e-05,0
0.1,4.5,0,0.299994,-3.31413e-05,0
0.1,4.6,0,0.299992,-2.89675e-05,0
0.1,4.7,0,0.299992,-2.89675e-05,0
0.1,4.8,0,0.299993,-2.57485e-05,0
0.1,4.9,0,0.299993,-2.57485e-05,0
0.1,5,0,0.299994,-2.51483e-05,0
0.1,5.1,0,0.299994,-2.24454e-05,0
0.1,5.2,0,0.299993,-2.0628e-05,0
0.1,5.3,0,0.299993,-1.88051e-05,0
0.1,5.4,0,0.299993,-1.69774e-05,0
0.1,5.5,0,0.299993,-1.51459e-05,0
0.1,5.6,0,0.299993,-1.33113e-05,0
0.1,5.7,0,0.299993,-1.14746e-05,0
0.1,5.8,0,0.299993,-9.63655e-06,0
0.1,5.9,0,0.299993,-7.79776e-06,0
0.1,6,0,0.299992,-5.95894e-06,0
0.1,6.1,0,0.299992,-4.12077e-06,0
0.1,6.2,0,0.299992,-2.28382e-06,0
0.1,6.3,0,0.299992,-4.48623e-07,0
0.1,6.4,0,0.299992,1.38431e-06,0
0.1,6.5,0,0.299992,3.21454e-06,0
0.1,6.6,0,0.299992,5.04161e-06,0
0.1,6.7,0,0.299992,6.86514e-06,0
0.1,6.8,0,0.299992,8.68474e-06,0
0.1,6.9,0,0.299992,1.05002e-05,0
0.1,7,0,0.299992,1.33605e-05,0
0.1,7.1,0,0.299998,1.32212e-05,0
0.1,7.2,0,0.299998,1.32212e-05,0
0.1,7.3,0,0.299995,1.76552e-05,0
0.1,7.4,0,0.299998,1.78912e-05,0
0.1,7.5,0,0.299998,1.78912e-05,0
0.1,7.6,0,0.299997,2.2482e-05,0
0.1,7.7,0,0.299997,2.24723e-05,0
0.1,7.8,0,0.299997,2.24723e-05,0
0.1,7.9,0,0.299996,2.6864e-05,0
0.1,8,0,0.299996,2.6864e-05,0
0.1,8.1,0,0.299996,2.6864e-05,0
0.1,8.2,0,0.299996,3.09951e-05,0
0.1,8.3,0,0.299996,3.09951e-05,0
0.1,8.4,0,0.299995,3.25921e-05,0
0.1,8.5,0,0.299995,3.48334e-05,0
0.1,8.6,0,0.299995,3.48334e-05,0
0.1,8.7,0,0.299995,3.97962e-05,0
0.1,8.8,0,0.299994,3.83579e-05,0
0.1,8.9,0,0.299994,3.83579e-05,0
0.1,9,0,0.299995,4.56433e-05,0
0.1,9.1,0,0.299994,4.15579e-05,0
0.1,9.2,0,0.299994,4.15579e-05,0
0.1,9.3,0,0.299994,4.69239e-05,0
0.1,9.4,0,0.299993,4.44322e-05,0
0.1,9.5,0,0.299993,4.44322e-05,0
0.1,9.6,0,0.299993,4.69845e-05,0
0.1,9.7,0,0.299993,4.69845e-05,0
0.1,9.8,0,0.299993,4.69845e-05,0
0.1,9.9,0,0.299993,4.92191e-05,0
0.1,10,0,0.299993,4.92191e-05,0
0.1,10.1,0,0.299993,4.92191e-05,0
0.1,10.2,0,0.299993,5.11395e-05,0
0.1,10.3,0,0.299993,5.11395e-05,0
0.1,10.4,0,0.299995,5.6746e-05,0
0.1,10.5,0,0.299993,5.27456e-05,0
0.1,10.6,0,0.299993,5.27456e-05,0
0.1,10.7,0,0.299997,6.5636e-05,0
0.1,10.8,0,0.299993,5.40339e-05,0
0.1,10.9,0,0.299993,5.40339e-05,0
0.1,11,0,0.299997,6.58261e-05,0
0.1,11.1,0,0.299994,5.49965e-05,0
0.1,11.2,0,0.299994,5.49965e-05,0
0.1,11.3,0,0.299996,5.99469e-05,0
0.1,11.4,0,0.299994,5.56221e-05,0
0.1,11.5,0,0.299994,5.56221e-05,0
0.1,11.6,0,0.299995,5.59129e-05,0
0.1,11.7,0,0.299995,5.59129e-05,0
0.1,11.8,0,0.299995,5.59129e-05,0
0.1,11.9,0,0.299996,5.58849e-05,0
0.1,12,0,0.299996,5.58849e-05,0
0.1,12.1,0,0.299996,5.81186e-05,0
0.1,12.2,0,0.299996,5.54304e-05,0
0.1,12.3,0,0.299996,5.54304e-05,0
0.1,12.4,0,0.299999,6.78317e-05,0
0.1,12.5,0,0.299995,7.29833e-05,0
0.1,12.6,0,0.299993,0.000108906,0
0.1,12.7,0,0.299996,0.000168472,0
0.2,0,0,0.299998,-0.000234965,0
0.2,0.1,0,0.299992,-0.000145938,0
0.2,0.2,0,0.299995,-0.000116022,0
0.2,0.3,0,0.299995,-0.000117267,0
0.2,0.4,0,0.299993,-0.000110299,0
0.2,0.5,0,0.300001,-0.000155546,0
0.2,0.6,0,0.299992,-0.000111075,0
0.2,0.7,0,0.299994,-0.000117471,0
0.2,0.8,0,0.299992,-0.000117515,0
0.2,0.9,0,0.299991,-0.000111127,0
0.2,1,0,0.299999,-0.000151367,0
0.2,1.1,0,0.29999,-0.000110657,0
0.2,1.2,0,0.299991,-0.000116328,0
0.2,1.3,0,0.29999,-0.000115485,0
0.2,1.4,0,0.299989,-0.000109666,0
0.2,1.5,0,0.299998,-0.000144997,0
0.2,1.6,0,0.299987,-0.000108152,0
0.2,1.7,0,0.299989,-0.000113077,0
0.2,1.8,0,0.299988,-0.000111368,0
0.2,1.9,0,0.299986,-0.000106141,0
0.2,2,0,0.299996,-0.000136447,0
0.2,2.1,0,0.299984,-0.000103664,0
0.2,2.2,0,0.299986,-0.000107823,0
0.2,2.3,0,0.299985,-0.000105345,0
0.2,2.4,0,0.299984,-0.000100749,0
0.2,2.5,0,0.299995,-0.000125833,0
0.2,2.6,0,0.299983,-9.74259e-05,0
0.2,2.7,0,0.299984,-0.000100781,0
0.2,2.8,0,0.299983,-9.76306e-05,0
0.2,2.9,0,0.299982,-9.37195e-05,0
0.2,3,0,0.299993,-0.000113291,0
0.2,3.1,0,0.299981,-8.96489e-05,0
0.2,3.2,0,0.299983,-9.21546e-05,0
0.2,3.3,0,0.299982,-8.83966e-05,0
0.2,3.4,0,0.299981,-8.52278e-05,0
0.2,3.5,0,0.299992,-9.90083e-05,0
0.2,3.6,0,0.299981,-8.04631e-05,0
0.2,3.7,0,0.299982,-8.20871e-05,0
0.2,3.8,0,0.299983,-7.77451e-05,0
0.2,3.9,0,0.299981,-7.53548e-05,0
0.2,4,0,0.29999,-8.32351e-05,0
0.2,4.1,0,0.299982,-6.98979e-05,0
0.2,4.2,0,0.299983,-7.06459e-05,0
0.2,4.3,0,0.299984,-6.57027e-05,0
0.2,4.4,0,0.299983,-6.40824e-05,0
0.2,4.5,0,0.299989,-6.62825e-05,0
0.2,4.6,0,0.299984,-5.79351e-05,0
0.2,4.7,0,0.299985,-5.78663e-05,0
0.2,4.8,0,0.299986,-5.23939e-05,0
0.2,4.9,0,0.299985,-5.14969e-05,0
0.2,5,0,0.299988,-5.02967e-05,0
0.2,5.1,0,0.299987,-4.48909e-05,0
0.2,5.2,0,0.299987,-4.1256e-05,0
0.2,5.3,0,0.299987,-3.76102e-05,0
0.2,5.4,0,0.299986,-3.39548e-05,0
0.2,5.5,0,0.299986,-3.02918e-05,0
0.2,5.6,0,0.299986,-2.66227e-05,0
0.2,5.7,0,0.299986,-2.29493e-05,0
0.2,5.8,0,0.299985,-1.92731e-05,0
0.2,5.9,0,0.299985,-1.55955e-05,0
0.2,6,0,0.299985,-1.19179e-05,0
0.2,6.1,0,0.299985,-8.24154e-06,0
0.2,6.2,0,0.299985,-4.56764e-06,0
0.2,6.3,0,0.299984,-8.97246e-07,0
0.2,6.4,0,0.299984,2.76863e-06,0
0.2,6.5,0,0.299984,6.42908e-06,0
0.2,6.6,0,0.299984,1.00832e-05,0
0.2,6.7,0,0.299984,1.37303e-05,0
0.2,6.8,0,0.299984,1.73695e-05,0
0.2,6.9,0,0.299984,2.10003e-05,0
0.2,7,0,0.299984,2.6721e-05,0
0.2,7.1,0,0.299996,2.64423e-05,0
0.2,7.2,0,0.299996,2.64423e-05,0
0.2,7.3,0,0.299987,3.51194e-05,0
0.2,7.4,0,0.299995,3.57824e-05,0
0.2,7.5,0,0.299995,3.57824e-05,0
0.2,7.6,0,0.299989,4.50466e-05,0
0.2,7.7,0,0.299994,4.49445e-05,0
0.2,7.8,0,0.299993,4.67811e-05,0
0.2,7.9,0,0.299991,5.41983e-05,0
0.2,8,0,0.299993,5.3728e-05,0
0.2,8.1,0,0.299991,5.82674e-05,0
0.2,8.2,0,0.299991,6.23046e-05,0
0.2,8.3,0,0.299992,6.19901e-05,0
0.2,8.4,0,0.299989,6.9865e-05,0
0.2,8.5,0,0.29999,6.96668e-05,0
0.2,8.6,0,0.29999,6.96668e-05,0
0.2,8.7,0,0.299989,8.17015e-05,0
0.2,8.8,0,0.299989,7.67158e-05,0
0.2,8.9,0,0.299989,7.67158e-05,0
0.2,9,0,0.29999,9.20026e-05,0
0.2,9.1,0,0.299987,8.31158e-05,0
0.2,9.2,0,0.299987,8.31158e-05,0
0.2,9.3,0,0.29999,9.75313e-05,0
0.2,9.4,0,0.299986,8.88645e-05,0
0.2,9.5,0,0.299987,8.94902e-05,0
0.2,9.6,0,0.299989,0.000101272,0
0.2,9.7,0,0.299986,9.39689e-05,0
0.2,9.8,0,0.299988,9.97666e-05,0
0.2,9.9,0,0.299987,0.000103099,0
0.2,10,0,0.299985,9.84381e-05,0
0.2,10.1,0,0.29999,0.000110521,0
0.2,10.2,0,0.299986,0.000102937,0
0.2,10.3,0,0.299985,0.000102279,0
0.2,10.4,0,0.299992,0.00012178,0
0.2,10.5,0,0.299986,0.000105491,0
0.2,10.6,0,0.299986,0.000105491,0
0.2,10.7,0,0.299996,0.000133531,0
0.2,10.8,0,0.299987,0.000108068,0
0.2,10.9,0,0.299987,0.000108068,0
0.2,11,0,0.299996,0.000136255,0
0.2,11.1,0,0.299988,0.000109993,0
0.2,11.2,0,0.299988,0.000109993,0
0.2,11.3,0,0.299995,0.00013257,0
0.2,11.4,0,0.299989,0.000111244,0
0.2,11.5,0,0.29999,0.000115211,0
0.2,11.6,0,0.299994,0.000126797,0
0.2,11.7,0,0.29999,0.000111826,0
0.2,11.8,0,0.299994,0.000125008,0
0.2,11.9,0,0.299993,0.000118986,0
0.2,12,0,0.299991,0.00011177,0
0.2,12.1,0,0.299997,0.000135223,0
0.2,12.2,0,0.299992,0.000110861,0
0.2,12.3,0,0.299992,0.000110861,0
0.2,12.4,0,0.3,0.000145702,0
0.2,12.5,0,0.299993,0.000115433,0
0.2,12.6,0,0.29999,0.000151355,0
0.2,12.7,0,0.299998,0.000234565,0
0.3,0,0,0.3,-0.000301579,0
0.3,0.1,0,0.299989,-0.000188386,0
0.3,0.2,0,0.299996,-0.000194397,0
0.3,0.3,0,0.299996,-0.000195642,0
0.3,0.4,0,0.29999,-0.000165448,0
0.3,0.5,0,0.300002,-0.00023332,0
0.3,0.6,0,0.299989,-0.000166612,0
0.3,0.7,0,0.299994,-0.00019433,0
0.3,0.8,0,0.299993,-0.000194374,0
0.3,0.9,0,0.299987,-0.00016669,0
0.3,1,0,0.299999,-0.000227051,0
0.3,1.1,0,0.299985,-0.000165985,0
0.3,1.2,0,0.299991,-0.00019056,0
0.3,1.3,0,0.29999,-0.000189717,0
0.3,1.4,0,0.299983,-0.000164499,0
0.3,1.5,0,0.299997,-0.000217495,0
0.3,1.6,0,0.299981,-0.000162228,0
0.3,1.7,0,0.299987,-0.00018357,0
0.3,1.8,0,0.299986,-0.000181861,0
0.3,1.9,0,0.299979,-0.000159211,0
0.3,2,0,0.299994,-0.00020467,0
0.3,2.1,0,0.299977,-0.000155495,0
0.3,2.2,0,0.299984,-0.000173518,0
0.3,2.3,0,0.299983,-0.000171041,0
0.3,2.4,0,0.299975,-0.000151124,0
0.3,2.5,0,0.299992,-0.00018875,0
0.3,2.6,0,0.299974,-0.000146139,0
0.3,2.7,0,0.299981,-0.000160678,0
0.3,2.8,0,0.29998,-0.000157527,0
0.3,2.9,0,0.299972,-0.000140579,0
0.3,3,0,0.29999,-0.000169937,0
0.3,3.1,0,0.299972,-0.000134473,0
0.3,3.2,0,0.299979,-0.000145331,0
0.3,3.3,0,0.299979,-0.000141573,0
0.3,3.4,0,0.299971,-0.000127842,0
0.3,3.5,0,0.299988,-0.000148512,0
0.3,3.6,0,0.299971,-0.000120695,0
0.3,3.7,0,0.299978,-0.000127732,0
0.3,3.8,0,0.299978,-0.00012339,0
0.3,3.9,0,0.299972,-0.000113032,0
0.3,4,0,0.299986,-0.000124853,0
0.3,4.1,0,0.299972,-0.000104847,0
0.3,4.2,0,0.299978,-0.000108088,0
0.3,4.3,0,0.299978,-0.000103145,0
0.3,4.4,0,0.299974,-9.61235e-05,0
0.3,4.5,0,0.299983,-9.94238e-05,0
0.3,4.6,0,0.299976,-8.69026e-05,0
0.3,4.7,0,0.299979,-8.66045e-05,0
0.3,4.8,0,0.29998,-8.11321e-05,0
0.3,4.9,0,0.299978,-7.72454e-05,0
0.3,5,0,0.299981,-7.5445e-05,0
0.3,5.1,0,0.299981,-6.73363e-05,0
0.3,5.2,0,0.29998,-6.1884e-05,0
0.3,5.3,0,0.29998,-5.64154e-05,0
0.3,5.4,0,0.299979,-5.09323e-05,0
0.3,5.5,0,0.299979,-4.54377e-05,0
0.3,5.6,0,0.299979,-3.9934e-05,0
0.3,5.7,0,0.299978,-3.44239e-05,0
0.3,5.8,0,0.299978,-2.89096e-05,0
0.3,5.9,0,0.299978,-2.33933e-05,0
0.3,6,0,0.299977,-1.78768e-05,0
0.3,6.1,0,0.299977,-1.23623e-05,0
0.3,6.2,0,0.299977,-6.85146e-06,0
0.3,6.3,0,0.299977,-1.34587e-06,0
0.3,6.4,0,0.299977,4.15294e-06,0
0.3,6.5,0,0.299976,9.64361e-06,0
0.3,6.6,0,0.299976,1.51248e-05,0
0.3,6.7,0,0.299976,2.05954e-05,0
0.3,6.8,0,0.299976,2.60542e-05,0
0.3,6.9,0,0.299976,3.15005e-05,0
0.3,7,0,0.299977,4.00815e-05,0
0.3,7.1,0,0.299994,3.96659e-05,0
0.3,7.2,0,0.299991,4.16361e-05,0
0.3,7.3,0,0.29998,5.25835e-05,0
0.3,7.4,0,0.299993,5.36735e-05,0
0.3,7.5,0,0.299988,5.7937e-05,0
0.3,7.6,0,0.299982,6.76112e-05,0
0.3,7.7,0,0.299992,6.74168e-05,0
0.3,7.8,0,0.299986,7.436e-05,0
0.3,7.9,0,0.299984,8.17773e-05,0
0.3,8,0,0.299989,8.0592e-05,0
0.3,8.1,0,0.299984,9.07564e-05,0
0.3,8.2,0,0.299985,9.47936e-05,0
0.3,8.3,0,0.299987,9.29852e-05,0
0.3,8.4,0,0.299983,0.000107138,0
0.3,8.5,0,0.299984,0.000106362,0
0.3,8.6,0,0.299985,0.0001045,0
0.3,8.7,0,0.299984,0.000123607,0
0.3,8.8,0,0.299983,0.000116194,0
0.3,8.9,0,0.299983,0.000116407,0
0.3,9,0,0.299985,0.000138362,0
0.3,9.1,0,0.299981,0.000124674,0
0.3,9.2,0,0.299982,0.00013023,0
0.3,9.3,0,0.299985,0.000148139,0
0.3,9.4,0,0.29998,0.000133297,0
0.3,9.5,0,0.299983,0.000144113,0
0.3,9.6,0,0.299985,0.000155895,0
0.3,9.7,0,0.299979,0.000140953,0
0.3,9.8,0,0.299984,0.000158146,0
0.3,9.9,0,0.299984,0.000161479,0
0.3,10,0,0.299978,0.000147657,0
0.3,10.1,0,0.299987,0.000172378,0
0.3,10.2,0,0.299983,0.000164794,0
0.3,10.3,0,0.299978,0.000153419,0
0.3,10.4,0,0.29999,0.000186813,0
0.3,10.5,0,0.299982,0.000165782,0
0.3,10.6,0,0.299979,0.000158237,0
0.3,10.7,0,0.299994,0.000201426,0
0.3,10.8,0,0.299981,0.000164412,0
0.3,10.9,0,0.299982,0.000167279,0
0.3,11,0,0.299995,0.000206684,0
0.3,11.1,0,0.299982,0.000164989,0
0.3,11.2,0,0.299986,0.000178441,0
0.3,11.3,0,0.299994,0.000205193,0
0.3,11.4,0,0.299983,0.000166866,0
0.3,11.5,0,0.29999,0.000189675,0
0.3,11.6,0,0.299994,0.00020126,0
0.3,11.7,0,0.299985,0.000167739,0
0.3,11.8,0,0.299994,0.000200957,0
0.3,11.9,0,0.299993,0.000194936,0
0.3,12,0,0.299987,0.000167655,0
0.3,12.1,0,0.299998,0.000212328,0
0.3,12.2,0,0.299993,0.000186064,0
0.3,12.3,0,0.299989,0.000166291,0
0.3,12.4,0,0.300001,0.000223573,0
0.3,12.5,0,0.299992,0.00017435,0
0.3,12.6,0,0.299988,0.000194219,0
0.3,12.7,0,0.3,0.000300658,0
0.4,0,0,0.300002,-0.000368193,0
0.4,0.1,0,0.29999,-0.000245334,0
0.4,0.2,0,0.299997,-0.000272772,0
0.4,0.3,0,0.299997,-0.000274017,0
0.4,0.4,0,0.299989,-0.000234172,0
0.4,0.5,0,0.300003,-0.000311093,0
0.4,0.6,0,0.299988,-0.000235491,0
0.4,0.7,0,0.299994,-0.000271188,0
0.4,0.8,0,0.299993,-0.000271232,0
0.4,0.9,0,0.299985,-0.000234325,0
0.4,1,0,0.299999,-0.000302734,0
0.4,1.1,0,0.299983,-0.000233527,0
0.4,1.2,0,0.29999,-0.000264791,0
0.4,1.3,0,0.299989,-0.000263949,0
0.4,1.4,0,0.29998,-0.000229931,0
0.4,1.5,0,0.299996,-0.000289994,0
0.4,1.6,0,0.299978,-0.000227357,0
0.4,1.7,0,0.299986,-0.000254064,0
0.4,1.8,0,0.299984,-0.000252354,0
0.4,1.9,0,0.299975,-0.000221373,0
0.4,2,0,0.299992,-0.000272894,0
0.4,2.1,0,0.299972,-0.000217162,0
0.4,2.2,0,0.299981,-0.000239214,0
0.4,2.3,0,0.299981,-0.000236736,0
0.4,2.4,0,0.29997,-0.000209024,0
0.4,2.5,0,0.299989,-0.000251667,0
0.4,2.6,0,0.299969,-0.000203374,0
0.4,2.7,0,0.299978,-0.000220574,0
0.4,2.8,0,0.299977,-0.000217424,0
0.4,2.9,0,0.299967,-0.000193311,0
0.4,3,0,0.299986,-0.000226582,0
0.4,3.1,0,0.299966,-0.000186391,0
0.4,3.2,0,0.299975,-0.000198508,0
0.4,3.3,0,0.299975,-0.00019475,0
0.4,3.4,0,0.299965,-0.00017459,0
0.4,3.5,0,0.299984,-0.000198017,0
0.4,3.6,0,0.299965,-0.00016649,0
0.4,3.7,0,0.299973,-0.000173377,0
0.4,3.8,0,0.299974,-0.000169035,0
0.4,3.9,0,0.299965,-0.000153074,0
0.4,4,0,0.299981,-0.00016647,0
0.4,4.1,0,0.299966,-0.000143797,0
0.4,4.2,0,0.299972,-0.00014553,0
0.4,4.3,0,0.299973,-0.000140587,0
0.4,4.4,0,0.299967,-0.000128825,0
0.4,4.5,0,0.299978,-0.000132565,0
0.4,4.6,0,0.299969,-0.000118374,0
0.4,4.7,0,0.299973,-0.000115343,0
0.4,4.8,0,0.299974,-0.00010987,0
0.4,4.9,0,0.299971,-0.000102634,0
0.4,5,0,0.299975,-0.000100593,0
0.4,5.1,0,0.299974,-8.97817e-05,0
0.4,5.2,0,0.299974,-8.2512e-05,0
0.4,5.3,0,0.299973,-7.52205e-05,0
0.4,5.4,0,0.299972,-6.79097e-05,0
0.4,5.5,0,0.299972,-6.05836e-05,0
0.4,5.6,0,0.299971,-5.32454e-05,0
0.4,5.7,0,0.299971,-4.58985e-05,0
0.4,5.8,0,0.29997,-3.85462e-05,0
0.4,5.9,0,0.29997,-3.1191e-05,0
0.4,6,0,0.29997,-2.38357e-05,0
0.4,6.1,0,0.299969,-1.64831e-05,0
0.4,6.2,0,0.299969,-9.13528e-06,0
0.4,6.3,0,0.299969,-1.79449e-06,0
0.4,6.4,0,0.299969,5.53726e-06,0
0.4,6.5,0,0.299968,1.28582e-05,0
0.4,6.6,0,0.299968,2.01665e-05,0
0.4,6.7,0,0.299968,2.74606e-05,0
0.4,6.8,0,0.299968,3.4739e-05,0
0.4,6.9,0,0.299969,4.20006e-05,0
0.4,7,0,0.299969,5.34421e-05,0
0.4,7.1,0,0.299986,5.30264e-05,0
0.4,7.2,0,0.299983,5.91002e-05,0
0.4,7.3,0,0.299972,7.00477e-05,0
0.4,7.4,0,0.299988,7.13212e-05,0
0.4,7.5,0,0.299981,8.05016e-05,0
0.4,7.6,0,0.299975,9.01758e-05,0
0.4,7.7,0,0.299988,8.99004e-05,0
0.4,7.8,0,0.299979,0.000101939,0
0.4,7.9,0,0.299977,0.000109356,0
0.4,8,0,0.299986,0.000107456,0
0.4,8.1,0,0.299977,0.000123245,0
0.4,8.2,0,0.299978,0.000127283,0
0.4,8.3,0,0.299983,0.000125687,0
0.4,8.4,0,0.299977,0.000144411,0
0.4,8.5,0,0.299978,0.000143635,0
0.4,8.6,0,0.29998,0.00014442,0
0.4,8.7,0,0.299978,0.000165512,0
0.4,8.8,0,0.299978,0.000158099,0
0.4,8.9,0,0.299978,0.000162767,0
0.4,9,0,0.29998,0.000184721,0
0.4,9.1,0,0.299976,0.000170401,0
0.4,9.2,0,0.299978,0.000180838,0
0.4,9.3,0,0.299981,0.000198746,0
0.4,9.4,0,0.299974,0.000180329,0
0.4,9.5,0,0.299979,0.000198735,0
0.4,9.6,0,0.299981,0.000210517,0
0.4,9.7,0,0.299972,0.000187938,0
0.4,9.8,0,0.299981,0.000216526,0
0.4,9.9,0,0.299981,0.000219858,0
0.4,10,0,0.299971,0.000196876,0
0.4,10.1,0,0.299984,0.000234235,0
0.4,10.2,0,0.29998,0.00022665,0
0.4,10.3,0,0.299973,0.000210408,0
0.4,10.4,0,0.299988,0.000251847,0
0.4,10.5,0,0.299979,0.000230816,0
0.4,10.6,0,0.299976,0.000224139,0
0.4,10.7,0,0.299992,0.000269322,0
0.4,10.8,0,0.299979,0.000232307,0
0.4,10.9,0,0.299981,0.000237708,0
0.4,11,0,0.299993,0.000277112,0
0.4,11.1,0,0.299979,0.000231086,0
0.4,11.2,0,0.299985,0.000251064,0
0.4,11.3,0,0.299993,0.000277816,0
0.4,11.4,0,0.299979,0.000227112,0
0.4,11.5,0,0.299989,0.000264138,0
0.4,11.6,0,0.299993,0.000275724,0
0.4,11.7,0,0.29998,0.000223652,0
0.4,11.8,0,0.299994,0.000276907,0
0.4,11.9,0,0.299993,0.000270885,0
0.4,12,0,0.299983,0.000226146,0
0.4,12.1,0,0.299998,0.000289433,0
0.4,12.2,0,0.299994,0.000263169,0
0.4,12.3,0,0.299988,0.000234516,0
0.4,12.4,0,0.300003,0.000301444,0
0.4,12.5,0,0.299993,0.000252221,0
0.4,12.6,0,0.29999,0.000260312,0
0.4,12.7,0,0.300002,0.000366751,0
0.5,0,0,0.300004,-0.000434807,0
0.5,0.1,0,0.299992,-0.000311948,0
0.5,0.2,0,0.299999,-0.000351147,0
0.5,0.3,0,0.299998,-0.000352392,0
0.5,0.4,0,0.29999,-0.000311945,0
0.5,0.5,0,0.300004,-0.000388866,0
0.5,0.6,0,0.299988,-0.000313264,0
0.5,0.7,0,0.299994,-0.000348047,0
0.5,0.8,0,0.299993,-0.000348091,0
0.5,0.9,0,0.299984,-0.000310009,0
0.5,1,0,0.299999,-0.000378418,0
0.5,1.1,0,0.299983,-0.00030921,0
0.5,1.2,0,0.299989,-0.000339023,0
0.5,1.3,0,0.299988,-0.00033818,0
0.5,1.4,0,0.299979,-0.000302429,0
0.5,1.5,0,0.299994,-0.000362492,0
0.5,1.6,0,0.299977,-0.000299856,0
0.5,1.7,0,0.299984,-0.000324557,0
0.5,1.8,0,0.299983,-0.000322847,0
0.5,1.9,0,0.299973,-0.000289597,0
0.5,2,0,0.29999,-0.000341117,0
0.5,2.1,0,0.29997,-0.000285386,0
0.5,2.2,0,0.299979,-0.000304909,0
0.5,2.3,0,0.299978,-0.000302432,0
0.5,2.4,0,0.299968,-0.00027194,0
0.5,2.5,0,0.299986,-0.000314584,0
0.5,2.6,0,0.299966,-0.000266291,0
0.5,2.7,0,0.299975,-0.000280471,0
0.5,2.8,0,0.299974,-0.00027732,0
0.5,2.9,0,0.299963,-0.000249956,0
0.5,3,0,0.299983,-0.000283228,0
0.5,3.1,0,0.299963,-0.000243036,0
0.5,3.2,0,0.299972,-0.000251684,0
0.5,3.3,0,0.299971,-0.000247926,0
0.5,3.4,0,0.299961,-0.000224094,0
0.5,3.5,0,0.299979,-0.000247521,0
0.5,3.6,0,0.299961,-0.000215994,0
0.5,3.7,0,0.299969,-0.000219022,0
0.5,3.8,0,0.299969,-0.00021468,0
0.5,3.9,0,0.29996,-0.000194691,0
0.5,4,0,0.299976,-0.000208088,0
0.5,4.1,0,0.299961,-0.000185414,0
0.5,4.2,0,0.299967,-0.000182973,0
0.5,4.3,0,0.299968,-0.00017803,0
0.5,4.4,0,0.299962,-0.000161966,0
0.5,4.5,0,0.299972,-0.000165706,0
0.5,4.6,0,0.299964,-0.000151516,0
0.5,4.7,0,0.299967,-0.000144081,0
0.5,4.8,0,0.299968,-0.000138609,0
0.5,4.9,0,0.299965,-0.000127782,0
0.5,5,0,0.299969,-0.000125742,0
0.5,5.1,0,0.299968,-0.000112227,0
0.5,5.2,0,0.299967,-0.00010314,0
0.5,5.3,0,0.299966,-9.40256e-05,0
0.5,5.4,0,0.299965,-8.48871e-05,0
0.5,5.5,0,0.299965,-7.57295e-05,0
0.5,5.6,0,0.299964,-6.65567e-05,0
0.5,5.7,0,0.299964,-5.73732e-05,0
0.5,5.8,0,0.299963,-4.81827e-05,0
0.5,5.9,0,0.299963,-3.89888e-05,0
0.5,6,0,0.299962,-2.97947e-05,0
0.5,6.1,0,0.299962,-2.06039e-05,0
0.5,6.2,0,0.299961,-1.14191e-05,0
0.5,6.3,0,0.299961,-2.24311e-06,0
0.5,6.4,0,0.299961,6.92157e-06,0
0.5,6.5,0,0.299961,1.60727e-05,0
0.5,6.6,0,0.299961,2.52081e-05,0
0.5,6.7,0,0.299961,3.43257e-05,0
0.5,6.8,0,0.299961,4.34237e-05,0
0.5,6.9,0,0.299961,5.25008e-05,0
0.5,7,0,0.299961,6.68026e-05,0
0.5,7.1,0,0.299978,6.63869e-05,0
0.5,7.2,0,0.299976,7.65644e-05,0
0.5,7.3,0,0.299964,8.75118e-05,0
0.5,7.4,0,0.29998,8.87854e-05,0
0.5,7.5,0,0.299974,0.000103066,0
0.5,7.6,0,0.299967,0.00011274,0
0.5,7.7,0,0.299979,0.000114391,0
0.5,7.8,0,0.299972,0.000129518,0
0.5,7.9,0,0.29997,0.000136935,0
0.5,8,0,0.299978,0.000139441,0
0.5,8.1,0,0.299971,0.000155734,0
0.5,8.2,0,0.299971,0.000159772,0
0.5,8.3,0,0.299976,0.000163301,0
0.5,8.4,0,0.299971,0.000181684,0
0.5,8.5,0,0.299972,0.000180908,0
0.5,8.6,0,0.299974,0.000186326,0
0.5,8.7,0,0.299973,0.000207418,0
0.5,8.8,0,0.299972,0.000200005,0
0.5,8.9,0,0.299973,0.000209126,0
0.5,9,0,0.299975,0.00023108,0
0.5,9.1,0,0.299971,0.00021676,0
0.5,9.2,0,0.299973,0.000231445,0
0.5,9.3,0,0.299977,0.000249353,0
0.5,9.4,0,0.29997,0.000231741,0
0.5,9.5,0,0.299975,0.000253358,0
0.5,9.6,0,0.299977,0.00026514,0
0.5,9.7,0,0.29997,0.000248357,0
0.5,9.8,0,0.299978,0.000274906,0
0.5,9.9,0,0.299977,0.000278238,0
0.5,10,0,0.29997,0.000263222,0
0.5,10.1,0,0.299981,0.000296091,0
0.5,10.2,0,0.299977,0.000288507,0
0.5,10.3,0,0.299971,0.000276288,0
0.5,10.4,0,0.299985,0.000316881,0
0.5,10.5,0,0.299977,0.00029585,0
0.5,10.6,0,0.299975,0.000292034,0
0.5,10.7,0,0.29999,0.000337217,0
0.5,10.8,0,0.299977,0.000300202,0
0.5,10.9,0,0.299979,0.000308136,0
0.5,11,0,0.299992,0.000347541,0
0.5,11.1,0,0.299978,0.000301515,0
0.5,11.2,0,0.299984,0.000323687,0
0.5,11.3,0,0.299992,0.000350439,0
0.5,11.4,0,0.299979,0.000304032,0
0.5,11.5,0,0.299989,0.000338602,0
0.5,11.6,0,0.299993,0.000350188,0
0.5,11.7,0,0.299983,0.000308394,0
0.5,11.8,0,0.299994,0.000352856,0
0.5,11.9,0,0.299993,0.000346834,0
0.5,12,0,0.299985,0.000310819,0
0.5,12.1,0,0.299999,0.000366537,0
0.5,12.2,0,0.299994,0.000340274,0
0.5,12.3,0,0.299989,0.000312387,0
0.5,12.4,0,0.300004,0.000379315,0
0.5,12.5,0,0.299994,0.000330092,0
0.5,12.6,0,0.299992,0.000326405,0
0.5,12.7,0,0.300005,0.000432844,0
0.6,0,0,0.300006,-0.000501421,0
0.6,0.1,0,0.299997,-0.000410897,0
0.6,0.2,0,0.3,-0.000429523,0
0.6,0.3,0,0.299999,-0.000430768,0
0.6,0.4,0,0.299995,-0.000410622,0
0.6,0.5,0,0.300004,-0.000466639,0
0.6,0.6,0,0.299993,-0.000410226,0
0.6,0.7,0,0.299994,-0.000424905,0
0.6,0.8,0,0.299993,-0.000424949,0
0.6,0.9,0,0.299988,-0.000404858,0
0.6,1,0,0.299998,-0.000454101,0
0.6,1.1,0,0.299986,-0.000401907,0
0.6,1.2,0,0.299989,-0.000413254,0
0.6,1.3,0,0.299987,-0.000412412,0
0.6,1.4,0,0.299982,-0.000392387,0
0.6,1.5,0,0.299993,-0.00043499,0
0.6,1.6,0,0.29998,-0.00038713,0
0.6,1.7,0,0.299982,-0.00039505,0
0.6,1.8,0,0.299981,-0.000393341,0
0.6,1.9,0,0.299976,-0.000373501,0
0.6,2,0,0.299988,-0.000409341,0
0.6,2.1,0,0.299973,-0.000366086,0
0.6,2.2,0,0.299977,-0.000370604,0
0.6,2.3,0,0.299976,-0.000368127,0
0.6,2.4,0,0.29997,-0.000348646,0
0.6,2.5,0,0.299984,-0.0003775,0
0.6,2.6,0,0.299968,-0.000339273,0
0.6,2.7,0,0.299972,-0.000340367,0
0.6,2.8,0,0.299971,-0.000337217,0
0.6,2.9,0,0.299965,-0.000318335,0
0.6,3,0,0.29998,-0.000339874,0
0.6,3.1,0,0.299964,-0.000307199,0
0.6,3.2,0,0.299968,-0.000304861,0
0.6,3.3,0,0.299967,-0.000301103,0
0.6,3.4,0,0.299962,-0.000283104,0
0.6,3.5,0,0.299975,-0.000297025,0
0.6,3.6,0,0.299961,-0.00027037,0
0.6,3.7,0,0.299965,-0.000264667,0
0.6,3.8,0,0.299965,-0.000260325,0
0.6,3.9,0,0.29996,-0.00024348,0
0.6,4,0,0.299971,-0.000249705,0
0.6,4.1,0,0.29996,-0.000229276,0
0.6,4.2,0,0.299962,-0.000220415,0
0.6,4.3,0,0.299963,-0.000215472,0
0.6,4.4,0,0.299959,-0.000199968,0
0.6,4.5,0,0.299967,-0.000198848,0
0.6,4.6,0,0.29996,-0.000184451,0
0.6,4.7,0,0.299961,-0.000172819,0
0.6,4.8,0,0.299962,-0.000167347,0
0.6,4.9,0,0.29996,-0.000155621,0
0.6,5,0,0.299963,-0.00015089,0
0.6,5.1,0,0.299961,-0.000134673,0
0.6,5.2,0,0.29996,-0.000123768,0
0.6,5.3,0,0.29996,-0.000112831,0
0.6,5.4,0,0.299959,-0.000101865,0
0.6,5.5,0,0.299958,-9.08754e-05,0
0.6,5.6,0,0.299957,-7.9868e-05,0
0.6,5.7,0,0.299957,-6.88478e-05,0
0.6,5.8,0,0.299956,-5.78193e-05,0
0.6,5.9,0,0.299955,-4.67866e-05,0
0.6,6,0,0.299955,-3.57536e-05,0
0.6,6.1,0,0.299954,-2.47246e-05,0
0.6,6.2,0,0.299954,-1.37029e-05,0
0.6,6.3,0,0.299953,-2.69174e-06,0
0.6,6.4,0,0.299953,8.30589e-06,0
0.6,6.5,0,0.299953,1.92872e-05,0
0.6,6.6,0,0.299953,3.02497e-05,0
0.6,6.7,0,0.299953,4.11908e-05,0
0.6,6.8,0,0.299953,5.21085e-05,0
0.6,6.9,0,0.299953,6.3001e-05,0
0.6,7,0,0.299953,8.01631e-05,0
0.6,7.1,0,0.299968,8.17945e-05,0
0.6,7.2,0,0.299968,9.40335e-05,0
0.6,7.3,0,0.299957,0.000104976,0
0.6,7.4,0,0.299968,0.000110595,0
0.6,7.5,0,0.299966,0.000125631,0
0.6,7.6,0,0.29996,0.000135305,0
0.6,7.7,0,0.299968,0.000142062,0
0.6,7.8,0,0.299965,0.000157097,0
0.6,7.9,0,0.299963,0.000164514,0
0.6,8,0,0.299968,0.000172645,0
0.6,8.1,0,0.299964,0.000188223,0
0.6,8.2,0,0.299965,0.000192261,0
0.6,8.3,0,0.299968,0.000202068,0
0.6,8.4,0,0.299965,0.000218957,0
0.6,8.5,0,0.299966,0.000218181,0
0.6,8.6,0,0.299968,0.000230136,0
0.6,8.7,0,0.299967,0.000249323,0
0.6,8.8,0,0.299967,0.000243384,0
0.6,8.9,0,0.299969,0.000256668,0
0.6,9,0,0.29997,0.00027744,0
0.6,9.1,0,0.299967,0.000268835,0
0.6,9.2,0,0.299969,0.000282052,0
0.6,9.3,0,0.299972,0.000299961,0
0.6,9.4,0,0.299968,0.000292539,0
0.6,9.5,0,0.299971,0.000307981,0
0.6,9.6,0,0.299974,0.000319762,0
0.6,9.7,0,0.29997,0.000314375,0
0.6,9.8,0,0.299974,0.000333286,0
0.6,9.9,0,0.299974,0.000336618,0
0.6,10,0,0.299971,0.000334239,0
0.6,10.1,0,0.299978,0.000357948,0
0.6,10.2,0,0.299974,0.000350363,0
0.6,10.3,0,0.299973,0.000352039,0
0.6,10.4,0,0.299983,0.000381914,0
0.6,10.5,0,0.299975,0.000360883,0
0.6,10.6,0,0.299976,0.00036769,0
0.6,10.7,0,0.299988,0.000405112,0
0.6,10.8,0,0.299977,0.000373562,0
0.6,10.9,0,0.299979,0.000381118,0
0.6,11,0,0.299991,0.00041797,0
0.6,11.1,0,0.299981,0.000385705,0
0.6,11.2,0,0.299983,0.00039631,0
0.6,11.3,0,0.299992,0.000423062,0
0.6,11.4,0,0.299984,0.000395496,0
0.6,11.5,0,0.299989,0.000413065,0
0.6,11.6,0,0.299993,0.000424651,0
0.6,11.7,0,0.299988,0.000402894,0
0.6,11.8,0,0.299994,0.000428806,0
0.6,11.9,0,0.299994,0.000422784,0
0.6,12,0,0.299991,0.000407988,0
0.6,12.1,0,0.3,0.000443642,0
0.6,12.2,0,0.299995,0.000417378,0
0.6,12.3,0,0.299994,0.000410411,0
0.6,12.4,0,0.300005,0.000457186,0
0.6,12.5,0,0.299996,0.000408792,0
0.6,12.6,0,0.299996,0.000409588,0
0.6,12.7,0,0.300007,0.000498937,0
0.7,0,0,0.300008,-0.000568035,0
0.7,0.1,0,0.300002,-0.000513438,0
0.7,0.2,0,0.300002,-0.000512731,0
0.7,0.3,0,0.300001,-0.000513668,0
0.7,0.4,0,0.3,-0.000511621,0
0.7,0.5,0,0.300005,-0.000544412,0
0.7,0.6,0,0.299997,-0.000509321,0
0.7,0.7,0,0.299996,-0.000506211,0
0.7,0.8,0,0.299994,-0.000505832,0
0.7,0.9,0,0.299993,-0.000501837,0
0.7,1,0,0.299998,-0.000529785,0
0.7,1.1,0,0.29999,-0.000496494,0
0.7,1.2,0,0.299989,-0.000491557,0
0.7,1.3,0,0.299988,-0.000490177,0
0.7,1.4,0,0.299986,-0.000484284,0
0.7,1.5,0,0.299992,-0.000507489,0
0.7,1.6,0,0.299983,-0.000476045,0
0.7,1.7,0,0.299982,-0.000469228,0
0.7,1.8,0,0.299981,-0.000466864,0
0.7,1.9,0,0.299979,-0.000459147,0
0.7,2,0,0.299986,-0.000477564,0
0.7,2.1,0,0.299977,-0.000448173,0
0.7,2.2,0,0.299975,-0.000439578,0
0.7,2.3,0,0.299975,-0.000436331,0
0.7,2.4,0,0.299973,-0.000426883,0
0.7,2.5,0,0.299981,-0.000440417,0
0.7,2.6,0,0.299971,-0.000413373,0
0.7,2.7,0,0.29997,-0.000403105,0
0.7,2.8,0,0.299969,-0.000399071,0
0.7,2.9,0,0.299968,-0.000388017,0
0.7,3,0,0.299976,-0.000396519,0
0.7,3.1,0,0.299966,-0.000372196,0
0.7,3.2,0,0.299965,-0.000360402,0
0.7,3.3,0,0.299965,-0.000355657,0
0.7,3.4,0,0.299964,-0.000343171,0
0.7,3.5,0,0.299971,-0.000346529,0
0.7,3.6,0,0.299962,-0.000325288,0
0.7,3.7,0,0.299961,-0.000312166,0
0.7,3.8,0,0.299961,-0.000306758,0
0.7,3.9,0,0.29996,-0.000293065,0
0.7,4,0,0.299966,-0.000291323,0
0.7,4.1,0,0.299959,-0.000273387,0
0.7,4.2,0,0.299958,-0.000259191,0
0.7,4.3,0,0.299958,-0.000253134,0
0.7,4.4,0,0.299957,-0.000238511,0
0.7,4.5,0,0.299961,-0.000231989,0
0.7,4.6,0,0.299957,-0.000217362,0
0.7,4.7,0,0.299956,-0.000202392,0
0.7,4.8,0,0.299956,-0.000195965,0
0.7,4.9,0,0.299955,-0.000183759,0
0.7,5,0,0.299956,-0.000176038,0
0.7,5.1,0,0.299955,-0.000157118,0
0.7,5.2,0,0.299954,-0.000144396,0
0.7,5.3,0,0.299953,-0.000131636,0
0.7,5.4,0,0.299952,-0.000118842,0
0.7,5.5,0,0.299951,-0.000106021,0
0.7,5.6,0,0.29995,-9.31794e-05,0
0.7,5.7,0,0.299949,-8.03224e-05,0
0.7,5.8,0,0.299948,-6.74558e-05,0
0.7,5.9,0,0.299948,-5.45843e-05,0
0.7,6,0,0.299947,-4.17125e-05,0
0.7,6.1,0,0.299946,-2.88454e-05,0
0.7,6.2,0,0.299946,-1.59867e-05,0
0.7,6.3,0,0.299945,-3.14036e-06,0
0.7,6.4,0,0.299945,9.6902e-06,0
0.7,6.5,0,0.299945,2.25018e-05,0
0.7,6.6,0,0.299945,3.52913e-05,0