/*--------------------------------*- C++ -*----------------------------------*\
| =========                 |                                                 |
| \\      /  F ield         | OpenFOAM: The Open Source CFD Toolbox           |
|  \\    /   O peration     | Version:  v1806                                 |
|   \\  /    A nd           | Web:      www.OpenFOAM.com                      |
|    \\/     M anipulation  |                                                 |
\*---------------------------------------------------------------------------*/
FoamFile
{
    version     2.0;
    format      ascii;
    class       volScalarField;
    location    "170";
    object      p;
}
// * * * * * * * * * * * * * * * * * * * * * * * * * * * * * * * * * * * * * //

dimensions      [0 2 -2 0 0 0 0];


internalField   nonuniform List<scalar> 
2400
(
0.000377587
0.000378738
0.000381036
0.000384354
0.000388281
0.000392405
0.000396001
0.000398472
0.000398759
0.000396085
0.00038909
0.000376938
0.000358253
0.000332407
0.000298564
0.000256704
0.000207211
0.000151068
9.01551e-05
2.64755e-05
0.0011321
0.00113548
0.00114222
0.00115204
0.00116371
0.00117608
0.00118697
0.00119472
0.00119613
0.00118907
0.0011694
0.00113488
0.00108121
0.00100675
0.000908688
0.000787075
0.000642725
0.00047863
0.000300473
0.000114843
0.00188468
0.00189038
0.00190174
0.00191838
0.0019383
0.00195966
0.00197881
0.00199312
0.00199716
0.00198758
0.00195719
0.00190254
0.0018158
0.00169463
0.00153326
0.00133219
0.00109165
0.000816895
0.000516992
0.0002029
0.00263397
0.00264219
0.00265862
0.00268282
0.00271201
0.00274371
0.00277279
0.00279578
0.0028048
0.00279555
0.00275721
0.00268562
0.0025682
0.00240273
0.00217862
0.00189787
0.00155821
0.00116817
0.000739435
0.00028832
0.00337852
0.00338956
0.00341171
0.00344449
0.00348434
0.00352828
0.00356959
0.00360415
0.0036214
0.00361644
0.00357401
0.00348997
0.00334522
0.00313904
0.00285291
0.00249257
0.00204953
0.00153812
0.000970549
0.000370476
0.00411672
0.00413095
0.00415963
0.00420227
0.00425456
0.00431308
0.00436958
0.00441943
0.00444912
0.00445357
0.00441213
0.00432164
0.00415402
0.00391227
0.00356505
0.00312603
0.0025735
0.00193335
0.00121284
0.000447712
0.00484674
0.00486459
0.00490076
0.00495475
0.00502162
0.00509753
0.00517279
0.00524239
0.00528978
0.00530992
0.00527597
0.00518667
0.00500213
0.00473189
0.00432496
0.00380968
0.00313919
0.00236227
0.00146887
0.000518139
0.0055665
0.00558844
0.00563319
0.0057002
0.00578409
0.00588057
0.00597881
0.00607329
0.00614472
0.00618798
0.00616971
0.00609094
0.00589749
0.00560817
0.00514402
0.00455732
0.0037575
0.00283625
0.00174117
0.000579837
0.00627365
0.00630015
0.00635467
0.00643651
0.00654012
0.00666063
0.00678663
0.00691174
0.00701468
0.00708954
0.00709713
0.00703998
0.00684848
0.00655205
0.00603557
0.00538556
0.00444219
0.00337125
0.00203202
0.000631355
0.00696551
0.00699708
0.00706261
0.00716114
0.00728736
0.00743555
0.00759456
0.0077565
0.00789958
0.00801553
0.00806152
0.00803867
0.00786391
0.00757467
0.0070154
0.00631374
0.00521167
0.00398991
0.00234417
0.000673838
0.00763913
0.00767623
0.00775402
0.00787111
0.00802286
0.00820248
0.00840008
0.00860541
0.00879832
0.00896574
0.0090653
0.00909101
0.00895284
0.00868686
0.00810195
0.0073628
0.00609106
0.00472317
0.00268343
0.000716571
0.0082912
0.00833431
0.00842552
0.00856295
0.0087431
0.00895784
0.00919972
0.00945519
0.00970841
0.0099385
0.0101095
0.0101998
0.0101244
0.00989903
0.00931669
0.00855306
0.00711354
0.00560784
0.00306513
0.000784988
0.00891816
0.00896768
0.00907336
0.00923275
0.00944391
0.00969728
0.0099889
0.0103013
0.0106256
0.0109303
0.0111928
0.0113662
0.0113871
0.0112222
0.0106853
0.0099037
0.00832146
0.0066753
0.00352028
0.000927589
0.00951615
0.00957246
0.00969341
0.00987613
0.0101205
0.0104157
0.0107619
0.0111378
0.0115434
0.0119354
0.0123103
0.0125883
0.0127462
0.0126684
0.0122393
0.011439
0.00977272
0.00793691
0.0040937
0.00120147
0.0100811
0.0101445
0.0102813
0.0104883
0.0107674
0.011107
0.0115117
0.0119573
0.0124531
0.0129456
0.0134528
0.0138604
0.0141989
0.014247
0.0140129
0.0132031
0.0115581
0.00939322
0.00484708
0.00159736
0.0106089
0.0106795
0.0108322
0.0110642
0.0113787
0.0117647
0.0122303
0.0127508
0.0133436
0.0139494
0.014606
0.015172
0.0157322
0.0159598
0.016024
0.015263
0.0138164
0.0110977
0.00592789
0.00186591
0.0110952
0.0111732
0.0113416
0.0115984
0.0119482
0.0123813
0.0129086
0.0135076
0.0142015
0.0149321
0.0157504
0.0165059
0.0173221
0.0178015
0.0182622
0.0176627
0.0167101
0.0132878
0.00778052
0.00133417
0.011536
0.011621
0.0118045
0.0120855
0.0124695
0.012949
0.013537
0.0142157
0.0150114
0.0158746
0.0168617
0.0178351
0.0189316
0.0197508
0.020682
0.0204627
0.0203111
0.0163464
0.011228
-0.000638808
0.0119272
0.0120189
0.0122164
0.01252
0.0129359
0.0134596
0.0141052
0.0148615
0.0157562
0.0167538
0.0179105
0.0191206
0.0205111
0.0217523
0.0232016
0.0236773
0.0245239
0.0207252
0.0172379
-0.00381883
0.0122653
0.0123628
0.0125727
0.0128967
0.0133413
0.013905
0.0146032
0.0154313
0.0164181
0.017544
0.018864
0.0203112
0.0219986
0.0237041
0.025705
0.027167
0.0291035
0.0271572
0.0267234
-0.00324137
-4.79554e-05
-0.000128644
-0.000196369
-0.000245227
-0.000275139
-0.000289949
-0.000293462
-0.000289436
-0.000279854
-0.000268137
-0.000108139
-0.000350175
-0.000551118
-0.000696491
-0.000786461
-0.000831903
-0.000844252
-0.000833798
-0.000807221
-0.000771811
-0.000175411
-0.000586474
-0.000926458
-0.00117091
-0.0013211
-0.00139578
-0.00141461
-0.00139496
-0.00134869
-0.00128761
-0.000255972
-0.000847796
-0.00133367
-0.00167877
-0.00188758
-0.00198836
-0.00200989
-0.00197726
-0.00190791
-0.00181812
-0.000355141
-0.00114379
-0.00178332
-0.00222943
-0.00249327
-0.00261487
-0.00263334
-0.00258236
-0.00248526
-0.00236275
-0.000480398
-0.00148708
-0.00228867
-0.00283457
-0.00314752
-0.00328211
-0.0032895
-0.00321309
-0.0030822
-0.00292206
-0.00064156
-0.00189342
-0.00286533
-0.0035075
-0.00386061
-0.00399726
-0.00398299
-0.00387217
-0.00370008
-0.00349646
-0.000852322
-0.00238255
-0.00353159
-0.00426337
-0.00464383
-0.00476771
-0.00471826
-0.00456207
-0.00433983
-0.00408579
-0.00113345
-0.00297941
-0.00430896
-0.00511966
-0.00550946
-0.00560097
-0.00549955
-0.00528471
-0.00500161
-0.00468895
-0.00151839
-0.00371591
-0.00522314
-0.00609687
-0.00647088
-0.00650441
-0.00633037
-0.00604074
-0.00568392
-0.00530284
-0.00206124
-0.00463354
-0.00630667
-0.00721998
-0.00754241
-0.00748448
-0.00721217
-0.00682777
-0.00638168
-0.00592046
-0.00284773
-0.00578475
-0.00760329
-0.00851961
-0.00873778
-0.00854408
-0.00814095
-0.00763668
-0.00708286
-0.00652815
-0.00401756
-0.00722997
-0.00917185
-0.0100272
-0.0100632
-0.00967587
-0.0091003
-0.00844576
-0.00776442
-0.00710324
-0.00578037
-0.00904963
-0.0110881
-0.0117555
-0.0115028
-0.0108489
-0.0100513
-0.00921519
-0.0083908
-0.00761525
-0.00844633
-0.0113551
-0.0134389
-0.0136674
-0.0129928
-0.0119921
-0.0109264
-0.00988964
-0.00892115
-0.00803511
-0.0125436
-0.0142605
-0.0162672
-0.0156206
-0.0143999
-0.0129928
-0.0116449
-0.01042
-0.00932903
-0.00835049
-0.0188544
-0.0177538
-0.0194924
-0.017344
-0.0155576
-0.0137473
-0.0121636
-0.0107935
-0.00961433
-0.00856969
-0.0276727
-0.0212092
-0.0226789
-0.0185148
-0.0164033
-0.0142363
-0.0124946
-0.01103
-0.00979657
-0.00871853
-0.0387875
-0.0232463
-0.0249579
-0.0190582
-0.0169604
-0.0144961
-0.012684
-0.0111649
-0.0098994
-0.0088125
-0.061141
-0.024897
-0.0271431
-0.0193558
-0.0172887
-0.0146099
-0.0127805
-0.0112254
-0.00994445
-0.00893207
-0.000250173
-0.000231103
-0.00021135
-0.000198837
-0.000184299
-0.000182879
-0.000177038
-0.000187826
-0.00019062
-0.000205666
-0.000213318
-0.000212394
-0.000211042
-0.000188642
-0.000164976
-0.000133952
-9.14254e-05
-5.49515e-05
-2.01517e-05
2.23918e-06
-0.000723376
-0.000668126
-0.000613268
-0.000572222
-0.000535325
-0.000522889
-0.000514307
-0.000536087
-0.00055372
-0.000591478
-0.000610861
-0.000621723
-0.000612022
-0.000570066
-0.000496241
-0.000407645
-0.000284723
-0.000183738
-8.11946e-05
-1.90005e-05
-0.00120548
-0.00111088
-0.00101909
-0.000947782
-0.000887802
-0.000863213
-0.000852981
-0.000885801
-0.000921189
-0.000982654
-0.00101957
-0.00104559
-0.00102341
-0.000960529
-0.00083206
-0.000686945
-0.000482716
-0.000315908
-0.000143298
-3.82326e-05
-0.0016991
-0.00156234
-0.00143172
-0.00132859
-0.00124424
-0.00120716
-0.00119557
-0.00124115
-0.00129633
-0.00138429
-0.00144124
-0.00148041
-0.00144753
-0.00136073
-0.00117592
-0.000970119
-0.000680814
-0.00044441
-0.000198863
-5.29702e-05
-0.00220316
-0.002021
-0.00184936
-0.00171232
-0.00160215
-0.00155167
-0.00153929
-0.0015993
-0.00167704
-0.00179473
-0.00187435
-0.00192846
-0.00188583
-0.00177294
-0.00152997
-0.00125764
-0.00087947
-0.000569372
-0.000248805
-6.54951e-05
-0.00271733
-0.00248586
-0.00227051
-0.00209694
-0.00195884
-0.00189353
-0.00188076
-0.00195679
-0.00206038
-0.00221146
-0.00231773
-0.00238994
-0.00233859
-0.00219834
-0.00189526
-0.00155072
-0.00108021
-0.000691821
-0.000293981
-7.56204e-05
-0.00324106
-0.00295573
-0.00269351
-0.00248007
-0.00231108
-0.00222879
-0.00221553
-0.00230892
-0.00244164
-0.00263014
-0.00276776
-0.00286154
-0.00280388
-0.00263567
-0.00227143
-0.00184983
-0.00128411
-0.000812301
-0.000335085
-8.34012e-05
-0.00377313
-0.00342874
-0.00311592
-0.00285834
-0.00265438
-0.00255198
-0.00253726
-0.00264862
-0.00281334
-0.00304312
-0.00321694
-0.00333637
-0.00327607
-0.00308083
-0.0026561
-0.00215412
-0.00149182
-0.000931652
-0.00037426
-8.95461e-05
-0.00431107
-0.00390173
-0.00353396
-0.00322683
-0.00298257
-0.00285571
-0.00283739
-0.00296608
-0.00316462
-0.00343874
-0.00365333
-0.00380316
-0.00374524
-0.00352632
-0.00304405
-0.00246114
-0.00170337
-0.00105104
-0.000414738
-9.47724e-05
-0.00485002
-0.00436936
-0.00394187
-0.00357871
-0.00328774
-0.00313087
-0.00310543
-0.00324909
-0.00348167
-0.00380168
-0.00406085
-0.0042461
-0.00419708
-0.00396078
-0.0034267
-0.00276649
-0.00191735
-0.00117124
-0.000459875
-9.92398e-05
-0.00538111
-0.00482304
-0.0043313
-0.00390532
-0.00356095
-0.00336787
-0.00333049
-0.00348479
-0.00374953
-0.00411475
-0.00442091
-0.0046462
-0.00461382
-0.00436914
-0.00379219
-0.00306324
-0.00213001
-0.00129197
-0.000511931
-0.000101872
-0.00588965
-0.00525036
-0.0046917
-0.00419751
-0.00379444
-0.00355952
-0.00350462
-0.0036634
-0.00395571
-0.00436247
-0.00471587
-0.0049843
-0.00497641
-0.00473386
-0.00412601
-0.00334165
-0.00233477
-0.00141135
-0.000570801
-9.98346e-05
-0.00635469
-0.00563623
-0.00501234
-0.00444851
-0.00398496
-0.00370452
-0.00362673
-0.0037826
-0.00409503
-0.00453569
-0.00493298
-0.00524441
-0.00526732
-0.00503698
-0.00441238
-0.00358922
-0.00252232
-0.00152515
-0.000632987
-8.86106e-05
-0.00675242
-0.00596689
-0.00528605
-0.004657
-0.00413568
-0.00380884
-0.00370355
-0.00384828
-0.0041708
-0.00463419
-0.00506725
-0.00541627
-0.00547276
-0.00526224
-0.0046357
-0.00379146
-0.00268127
-0.00162633
-0.000692055
-6.27454e-05
-0.00706495
-0.0062356
-0.00551208
-0.00482836
-0.0042571
-0.00388614
-0.00374982
-0.00387437
-0.00419386
-0.00466462
-0.00512021
-0.00549594
-0.0055837
-0.00539661
-0.00478178
-0.0039332
-0.0027992
-0.00170488
-0.000740067
-1.83818e-05
-0.00728867
-0.00644458
-0.00569669
-0.00497402
-0.00436441
-0.00395405
-0.00378393
-0.00387848
-0.00417918
-0.0046382
-0.00509775
-0.00548436
-0.00559551
-0.00543081
-0.00483863
-0.00400024
-0.00286393
-0.00174896
-0.000769182
4.35858e-05
-0.00743428
-0.00660379
-0.00585047
-0.0051069
-0.0044723
-0.00402856
-0.00382214
-0.00387613
-0.00414047
-0.00456612
-0.00500727
-0.00538471
-0.0055071
-0.00535955
-0.00479735
-0.0039813
-0.00286523
-0.00174775
-0.000774162
0.000116688
-0.00752209
-0.00672514
-0.00598367
-0.00523736
-0.00459135
-0.0041204
-0.00387504
-0.00387761
-0.00408732
-0.00445713
-0.00485572
-0.00520242
-0.00532001
-0.00518164
-0.00465331
-0.00387007
-0.00279704
-0.00169561
-0.000753552
0.000190535
-0.00756842
-0.0068151
-0.00610357
-0.00537178
-0.0047268
-0.00423428
-0.00394723
-0.00388781
-0.00402514
-0.00431722
-0.0046492
-0.004943
-0.00503838
-0.00490003
-0.00440706
-0.00366652
-0.00265914
-0.00159456
-0.00071031
0.00025391
-0.00761198
-0.00687355
-0.00621376
-0.00551234
-0.00487976
-0.00437057
-0.00403894
-0.0039077
-0.00395622
-0.00415057
-0.00439355
-0.0046139
-0.00466968
-0.00452301
-0.00406573
-0.00337817
-0.00245826
-0.00145423
-0.00065149
0.000298201
-0.007544
-0.00687979
-0.00630446
-0.0056447
-0.00503241
-0.0045116
-0.00413707
-0.00393314
-0.00388857
-0.00397926
-0.00412462
-0.00426331
-0.00427016
-0.00411
-0.00368509
-0.00305494
-0.00223168
-0.00130439
-0.00059176
0.000317539
-0.0073847
-0.00689255
-0.00638403
-0.00577009
-0.00517903
-0.00464934
-0.00423427
-0.00396028
-0.00382468
-0.00381363
-0.00386185
-0.00391875
-0.00387532
-0.00369944
-0.00330471
-0.00273257
-0.00200652
-0.00116471
-0.000539462
0.000315257
-0.00728485
-0.0069171
-0.00646941
-0.00590359
-0.00533563
-0.00479757
-0.00433964
-0.00399063
-0.00375688
-0.00363619
-0.00357899
-0.00354727
-0.00344904
-0.00325502
-0.00289225
-0.00238516
-0.00176553
-0.00102463
-0.000492488
0.000294477
-0.0072388
-0.00695632
-0.00656534
-0.00604587
-0.00550134
-0.00495442
-0.00445117
-0.00402288
-0.00368534
-0.00344824
-0.00327967
-0.00315479
-0.00299877
-0.00278602
-0.00245718
-0.00202139
-0.00151537
-0.000887635
-0.000453837
0.000257373
-0.00724612
-0.00701523
-0.00667386
-0.00619698
-0.00567469
-0.00511771
-0.00456681
-0.00405567
-0.00360972
-0.00325191
-0.00296757
-0.00274703
-0.00253163
-0.00230124
-0.00200843
-0.00164897
-0.00126144
-0.000756142
-0.000425163
0.000205565
-0.00730807
-0.00709444
-0.00679491
-0.00635552
-0.00585321
-0.00528461
-0.00468405
-0.00408743
-0.00352987
-0.00304869
-0.00264687
-0.00232932
-0.00205483
-0.00180871
-0.00155384
-0.00127427
-0.0010078
-0.000631342
-0.000407092
0.000140763
-0.00742112
-0.00719079
-0.00692567
-0.0065182
-0.00603308
-0.00545127
-0.00479966
-0.00411619
-0.00344551
-0.00284016
-0.00232063
-0.00190729
-0.00157503
-0.00131538
-0.00109992
-0.000902171
-0.000757303
-0.000513287
-0.000399386
6.50452e-05
-0.00757743
-0.00729637
-0.00706044
-0.00667966
-0.00620893
-0.00561259
-0.00490949
-0.00413934
-0.00335594
-0.00262766
-0.00199208
-0.00148568
-0.00109815
-0.000827374
-0.000652051
-0.000536423
-0.000511978
-0.000401282
-0.00040104
-1.89827e-05
-0.00777325
-0.00740183
-0.0071907
-0.00683217
-0.00637381
-0.00576226
-0.00500841
-0.00415355
-0.00325998
-0.00241217
-0.00166449
-0.00106903
-0.000629543
-0.000350047
-0.00021488
-0.000180124
-0.000273435
-0.000294355
-0.000410311
-0.000107953
-0.00800383
-0.00750621
-0.00730311
-0.00696773
-0.00651939
-0.00589289
-0.00509038
-0.00415506
-0.00315682
-0.00219508
-0.00134095
-0.000661684
-0.0001743
0.000111671
0.000207425
0.000163839
-4.30202e-05
-0.000191654
-0.000424539
-0.00019859
-0.00807263
-0.0076143
-0.00741128
-0.00710552
-0.00666306
-0.00601855
-0.00516106
-0.00413563
-0.00302027
-0.00193095
-0.000957744
-0.000184966
0.000354765
0.000646315
0.000695913
0.000561942
0.000224424
-7.1275e-05
-0.000443374
-0.000308063
-0.00804045
-0.00765188
-0.00746935
-0.00719076
-0.00675414
-0.00608862
-0.00517511
-0.00406111
-0.00283156
-0.00161754
-0.000527234
0.0003374
0.000927009
0.0012223
0.00121847
0.000989613
0.000510562
6.37275e-05
-0.00046253
-0.000426259
-0.00804665
-0.00763248
-0.00745594
-0.00719046
-0.00674704
-0.00606018
-0.00510252
-0.00392303
-0.00261015
-0.00130442
-0.000127146
0.00080658
0.00143171
0.00172699
0.00167346
0.00136428
0.000760709
0.000189388
-0.000464218
-0.00052531
-0.00800366
-0.00755397
-0.00736047
-0.00708763
-0.00663028
-0.0059234
-0.00493564
-0.00371697
-0.00235601
-0.000996954
0.000231592
0.00120751
0.00185138
0.00214217
0.00204389
0.00167159
0.000965818
0.000299959
-0.000443317
-0.000595374
-0.0078682
-0.00739304
-0.00716702
-0.00687727
-0.00640137
-0.00568003
-0.0046795
-0.00345038
-0.00207839
-0.000705944
0.000536299
0.00152572
0.00217015
0.0024513
0.00231474
0.00189834
0.00111729
0.000387805
-0.000400983
-0.00063198
-0.00760471
-0.00712798
-0.0068677
-0.00655831
-0.006067
-0.00534314
-0.00435305
-0.00314357
-0.00179622
-0.000447754
0.000772913
0.0017487
0.00237611
0.0026436
0.00247611
0.00203484
0.00120914
0.000445452
-0.000343314
-0.000635772
-0.00721193
-0.0067562
-0.00646845
-0.00614472
-0.00564951
-0.00493766
-0.00398077
-0.0028223
-0.00153187
-0.000239496
0.000929958
0.00186926
0.00246417
0.00271617
0.00252563
0.00207769
0.00123976
0.000468528
-0.000280025
-0.000611463
-0.00671909
-0.00629802
-0.00599476
-0.00566464
-0.00517857
-0.004497
-0.00359242
-0.00250498
-0.00130192
-9.15616e-05
0.00100126
0.00188732
0.00243952
0.00267461
0.0024703
0.00203166
0.0012135
0.000457953
-0.00022082
-0.000566044
-0.00616654
-0.00578581
-0.00547899
-0.0051503
-0.00468409
-0.00404594
-0.00320992
-0.00221348
-0.00111297
-3.54681e-06
0.000997491
0.00181645
0.00231866
0.00253631
0.00232834
0.00191151
0.00114139
0.000420824
-0.000171577
-0.000506399
-0.00558652
-0.00524751
-0.00494763
-0.00462783
-0.00418931
-0.00360317
-0.00284484
-0.00194855
-0.000961731
3.57164e-05
0.000934481
0.00167791
0.00212685
0.00232668
0.00212552
0.00173956
0.00103948
0.000369138
-0.000132706
-0.000437931
-0.00499957
-0.00470179
-0.00441751
-0.00411357
-0.00370842
-0.00317908
-0.00250243
-0.0017095
-0.000839613
4.17777e-05
0.000834121
0.00149706
0.00189229
0.00207349
0.00188897
0.00154007
0.000924262
0.000316088
-0.000100507
-0.000364612
-0.00441728
-0.00415942
-0.00389741
-0.00361545
-0.00324786
-0.00277756
-0.00218307
-0.00149194
-0.000736787
2.95542e-05
0.000716445
0.00129704
0.00164031
0.00180167
0.00164138
0.00133338
0.000808422
0.000271113
-7.0471e-05
-0.000289988
-0.00384569
-0.003626
-0.00339104
-0.00313601
-0.00280908
-0.00239834
-0.00188417
-0.00129081
-0.000645172
1.03762e-05
0.000596295
0.00109534
0.00138971
0.00153011
0.00139826
0.00113293
0.000698862
0.000237629
-4.04972e-05
-0.000218018
-0.00328779
-0.00310419
-0.00289938
-0.00267499
-0.00239078
-0.00203904
-0.00160236
-0.00110182
-0.000559149
-8.46595e-06
0.000482765
0.000902973
0.00115194
0.00127083
0.00116814
0.000945425
0.000597053
0.0002132
-1.19401e-05
-0.000152895
-0.00274487
-0.00259508
-0.00242213
-0.00223085
-0.00199062
-0.00169679
-0.00133448
-0.00092169
-0.000475229
-2.29797e-05
0.000380241
0.000725509
0.000932224
0.00102984
0.000954166
0.000772414
0.000501058
0.00019227
1.19287e-05
-9.81514e-05
-0.0022172
-0.00209891
-0.0019585
-0.00180175
-0.00160606
-0.00136881
-0.00107776
-0.000747934
-0.000391454
-3.14249e-05
0.000289929
0.000564632
0.000731527
0.00080861
0.000755858
0.000612552
0.000408162
0.00016937
2.79716e-05
-5.58675e-05
-0.00170442
-0.00161541
-0.00150745
-0.0013858
-0.00123469
-0.00105251
-0.000829812
-0.000578656
-0.000306869
-3.34728e-05
0.000211134
0.000419478
0.000548107
0.000605723
0.000571053
0.000463411
0.000316196
0.000140818
3.4455e-05
-2.63213e-05
-0.0012057
-0.00114405
-0.00106796
-0.000981394
-0.000874428
-0.000745674
-0.000588801
-0.000412507
-0.000221167
-2.9858e-05
0.000142048
0.000287648
0.000378648
0.000417972
0.000396767
0.000321944
0.000223333
0.000104624
3.08058e-05
-8.41646e-06
-0.000720922
-0.000684788
-0.000639768
-0.000587569
-0.000524123
-0.000446851
-0.000353579
-0.000249062
-0.000134542
-2.1964e-05
7.99854e-05
0.000166077
0.000219407
0.000241069
0.000229396
0.000184881
0.000127385
5.93268e-05
1.58173e-05
-2.64455e-06
-0.000248419
-0.000234978
-0.000219908
-0.000200865
-0.000179845
-0.000152673
-0.000120893
-8.6255e-05
-4.65703e-05
-9.52492e-06
2.37147e-05
5.26105e-05
6.94244e-05
7.44327e-05
6.89282e-05
5.36944e-05
3.14814e-05
9.15322e-06
-7.2974e-06
-9.83073e-06
-0.0597333
-0.0250805
-0.0278252
-0.0198032
-0.0176917
-0.0150089
-0.0132044
-0.0116898
-0.0104595
-0.00951151
-0.0335619
-0.022961
-0.0247894
-0.0193551
-0.0172222
-0.0148762
-0.0130852
-0.0116085
-0.0103895
-0.00930411
-0.0230828
-0.0201569
-0.0218323
-0.0185432
-0.0164533
-0.0144669
-0.0128131
-0.0114202
-0.0102528
-0.00921433
-0.0148121
-0.0158853
-0.0178556
-0.0167364
-0.0152818
-0.0137383
-0.0123256
-0.0110763
-0.00999495
-0.00903342
-0.00922478
-0.0122276
-0.0143841
-0.0145185
-0.0137478
-0.0126825
-0.011588
-0.010547
-0.00959904
-0.00875653
-0.00585602
-0.00942553
-0.0115988
-0.0123224
-0.0120759
-0.0114246
-0.0106437
-0.00983818
-0.00905771
-0.00835219
-0.00379402
-0.00729851
-0.00939979
-0.0103593
-0.0104639
-0.0101308
-0.00960905
-0.00901522
-0.00840031
-0.00782788
-0.00251265
-0.00565599
-0.00764031
-0.00868019
-0.00900256
-0.00889839
-0.00857537
-0.00815224
-0.00768026
-0.00722295
-0.00169701
-0.00439557
-0.00622194
-0.00726791
-0.00771136
-0.00776365
-0.00758847
-0.00729751
-0.00694162
-0.00657906
-0.00116484
-0.00343229
-0.00507024
-0.0060781
-0.00657915
-0.00673208
-0.00666436
-0.00647437
-0.00621065
-0.00592507
-0.00080714
-0.00269088
-0.00412848
-0.00506872
-0.00558541
-0.00579792
-0.00580554
-0.00569162
-0.00550031
-0.00527738
-0.000559012
-0.00211434
-0.00335371
-0.00420695
-0.00471043
-0.00495215
-0.00500941
-0.00495131
-0.00481619
-0.00464425
-0.000383639
-0.00166099
-0.002712
-0.00346664
-0.00393667
-0.00418504
-0.00427143
-0.0042525
-0.00416017
-0.00402958
-0.000259453
-0.00129985
-0.0021756
-0.00282591
-0.00324838
-0.00348672
-0.00358618
-0.00359286
-0.00353229
-0.00343491
-0.000172487
-0.00100762
-0.00172171
-0.00226606
-0.0026315
-0.00284763
-0.00294786
-0.00296929
-0.00293149
-0.00286051
-0.000112801
-0.00076668
-0.00133171
-0.00177105
-0.0020735
-0.00225875
-0.00235053
-0.00237824
-0.00235603
-0.00230583
-7.28976e-05
-0.000563581
-0.000990417
-0.00132713
-0.00156319
-0.00171159
-0.00178829
-0.00181585
-0.00180367
-0.00176969
-4.69321e-05
-0.000387832
-0.000685389
-0.000922421
-0.00109058
-0.00119831
-0.00125537
-0.00127814
-0.00127187
-0.00125051
-3.08101e-05
-0.000231543
-0.000406962
-0.000547489
-0.000647624
-0.000712639
-0.000747278
-0.000762188
-0.000759049
-0.000747656
-2.00253e-05
-8.67238e-05
-0.0001456
-0.000192972
-0.000226258
-0.000248108
-0.000259038
-0.000264103
-0.000262259
-0.000259135
0.0125609
0.0126573
0.0128643
0.0131836
0.0136217
0.0141776
0.0148656
0.015682
0.0166542
0.0177641
0.0190638
0.0204892
0.0221479
0.023821
0.0257805
0.0271714
0.0290509
0.0268193
0.0258968
-0.00430027
0.012247
0.0123364
0.0125283
0.0128232
0.0132269
0.013735
0.0143604
0.0150921
0.0159553
0.0169154
0.0180238
0.0191756
0.0204894
0.0216352
0.0229561
0.023269
0.0238396
0.0199662
0.015779
-0.00196935
0.0118659
0.0119473
0.0121223
0.0123901
0.0127554
0.013211
0.0137677
0.0144081
0.0151546
0.0159592
0.0168698
0.0177545
0.0187297
0.0194202
0.0201485
0.0197996
0.0192638
0.0156179
0.0102015
0.00111916
0.0114233
0.0114963
0.0116532
0.0118923
0.0122169
0.0126179
0.0131029
0.013651
0.0142788
0.0149332
0.0156502
0.0162975
0.016958
0.0173037
0.0175212
0.0168562
0.0155803
0.0125946
0.00730528
0.0022841
0.0109254
0.0109899
0.0111282
0.0113382
0.0116214
0.0119678
0.0123812
0.0128401
0.0133525
0.0138693
0.0144061
0.014854
0.0152404
0.0153408
0.0151709
0.014378
0.012772
0.0104426
0.00574717
0.00211051
0.0103786
0.0104347
0.0105546
0.0107359
0.0109783
0.0112722
0.0116166
0.0119923
0.0123973
0.0127921
0.0131697
0.0134549
0.01362
0.0135489
0.0131279
0.0123079
0.0106391
0.00869714
0.00476079
0.00164609
0.00978921
0.00983734
0.00993936
0.0100934
0.010297
0.0105415
0.0108218
0.0111219
0.0114309
0.0117204
0.0119642
0.0121196
0.0121198
0.0119315
0.0113757
0.0105552
0.0089626
0.00723001
0.00405152
0.00130489
0.0091634
0.00920403
0.00928934
0.00941783
0.00958555
0.00978502
0.0100075
0.0102407
0.0104669
0.0106675
0.0108045
0.0108586
0.0107459
0.010478
0.00986572
0.00905058
0.0076053
0.00602473
0.00350696
0.00112817
0.00850693
0.00854066
0.00861071
0.00871595
0.00885137
0.00901051
0.00918255
0.00935778
0.00951528
0.00964269
0.00969846
0.0096755
0.00949137
0.00917131
0.00855264
0.00775654
0.00648456
0.0050581
0.00306237
0.0010478
0.0078251
0.00785259
0.00790905
0.00799356
0.00810063
0.00822453
0.0083537
0.00848003
0.00858226
0.00865126
0.00864783
0.00856897
0.00834419
0.00799524
0.00740103
0.00664375
0.00554273
0.00428092
0.00267712
0.000994196
0.00712265
0.0071446
0.00718924
0.0072557
0.00733847
0.00743232
0.007526
0.00761225
0.00767143
0.00769559
0.00765118
0.00753472
0.00729166
0.00693449
0.00638225
0.00568167
0.00473594
0.0036396
0.00233089
0.00093421
0.00640374
0.00642091
0.00645547
0.00650655
0.00656898
0.00663787
0.00670296
0.00675742
0.0067843
0.00677581
0.00670511
0.00656683
0.00632164
0.00597342
0.00547218
0.0048403
0.00403177
0.00309291
0.00201471
0.000860719
0.00567196
0.00568507
0.00571124
0.00574955
0.00579535
0.00584409
0.00588683
0.0059171
0.00592088
0.00589045
0.00580521
0.00565831
0.00542267
0.00509651
0.00465063
0.00409372
0.00340699
0.00261355
0.00172384
0.000775614
0.00493031
0.00494007
0.00495942
0.00498736
0.00501994
0.00505293
0.00507885
0.00509165
0.00508013
0.00503687
0.0049465
0.00480163
0.00458405
0.00428931
0.00390093
0.00342124
0.00284454
0.0021838
0.00145425
0.000681807
0.00418128
0.00418834
0.00420225
0.00422204
0.00424438
0.00426553
0.00427939
0.00428055
0.00426024
0.00421171
0.00412369
0.00398916
0.00379597
0.00353907
0.00320929
0.00280671
0.00233122
0.0017915
0.00120188
0.000581644
0.00342685
0.00343181
0.00344149
0.00345501
0.0034697
0.00348237
0.0034882
0.00348257
0.0034588
0.00341113
0.00333137
0.00321352
0.00304945
0.00283468
0.00256412
0.0022374
0.00185643
0.00142773
0.000963074
0.000477022
0.00266861
0.00267195
0.00267843
0.00268727
0.00269645
0.0027034
0.00270447
0.00269599
0.00267302
0.00263099
0.00256412
0.00246767
0.00233628
0.00216648
0.00195545
0.001703
0.00141142
0.00108573
0.000734883
0.000369557
0.00190777
0.00190989
0.00191396
0.00191939
0.00192474
0.00192813
0.00192701
0.00191869
0.0018998
0.00186702
0.00181652
0.00174492
0.00164883
0.00152586
0.00137453
0.00119484
0.000988796
0.000760031
0.000514858
0.000260553
0.00114527
0.00114644
0.00114869
0.00115162
0.00115435
0.00115575
0.00115429
0.00114833
0.00113587
0.00111493
0.00108327
0.0010389
0.000979939
0.000905021
0.000813447
0.000705335
0.000582037
0.000445788
0.000300404
0.000150274
0.000381857
0.000382241
0.000382974
0.000383916
0.000384767
0.000385131
0.00038449
0.000382277
0.000377819
0.000370429
0.000359365
0.000343944
0.000323552
0.00029774
0.000266312
0.000229318
0.000187256
0.000140852
9.13488e-05
4.00119e-05
0.0125188
0.0126206
0.0128401
0.0131796
0.0136462
0.0142407
0.0149798
0.0158638
0.016924
0.0181522
0.0196062
0.0212487
0.0231915
0.0252982
0.0278048
0.0302108
0.0331689
0.0344757
0.0379303
0.0231436
0.0127064
0.0128114
0.0130378
0.0133887
0.0138716
0.014489
0.0152584
0.0161847
0.0172999
0.0186066
0.0201629
0.0219588
0.0241013
0.0265296
0.0294454
0.0325936
0.0363787
0.0396867
0.0434498
0.0408164
0.0128549
0.0129624
0.0131941
0.0135538
0.0140491
0.0146843
0.0154771
0.0164365
0.0175946
0.0189636
0.0206012
0.0225202
0.0248246
0.0275132
0.0307651
0.0344915
0.0389422
0.0435405
0.0482661
0.0500078
0.0129635
0.0130727
0.013308
0.0136736
0.0141772
0.0148244
0.0156331
0.0166149
0.0178026
0.0192143
0.0209085
0.0229133
0.025332
0.0282025
0.0316926
0.0358102
0.0407157
0.0460961
0.0513939
0.0550554
0.0130317
0.0131417
0.0133787
0.0137471
0.0142548
0.0149077
0.0157242
0.0167172
0.0179196
0.0193529
0.0210758
0.0231245
0.0256023
0.0285664
0.0321806
0.0364955
0.0416343
0.0473787
0.0529679
0.0573107
0.0130592
0.0131691
0.0134058
0.013774
0.0142812
0.0149337
0.0157496
0.0167419
0.0179435
0.0193761
0.0210984
0.0231465
0.0256243
0.0285889
0.0322054
0.0365242
0.0416719
0.0474286
0.0530376
0.0574002
0.0130459
0.0131548
0.0133895
0.0137541
0.0142565
0.0149021
0.0157091
0.0166889
0.0178744
0.0192839
0.0209761
0.0229793
0.0253978
0.0282695
0.0317662
0.0358949
0.0408265
0.0462433
0.051603
0.0553251
0.0129923
0.0130993
0.0133301
0.0136882
0.0141815
0.0148141
0.015604
0.0165599
0.0177146
0.0190797
0.020714
0.02263
0.0249338
0.0276236
0.0308853
0.0346281
0.0391191
0.0437743
0.048609
0.0504874
0.0128989
0.0130033
0.0132284
0.0135772
0.0140572
0.014671
0.0154363
0.0163579
0.0174681
0.0187695
0.0203211
0.0221124
0.0242533
0.0266822
0.0296084
0.0327757
0.0366102
0.0399933
0.0438564
0.041445
0.0127667
0.0128678
0.0130856
0.0134223
0.0138853
0.0144752
0.015209
0.016087
0.0171406
0.018362
0.0198094
0.021446
0.0233851
0.0254912
0.0280048
0.030428
0.0334338
0.0348192
0.0386122
0.0240435
)
;

boundaryField
{
    inlet
    {
        type            zeroGradient;
    }
    outlet
    {
        type            fixedValue;
        value           uniform 0;
    }
    upAndBottom
    {
        type            empty;
    }
    obstacle
    {
        type            zeroGradient;
    }
}


// ************************************************************************* //
