x,y,z,U_0,U_1,U_2
0,0,0,0.300043,-0.00134153,0
0,0.1,0,0.300026,-0.000804918,0
0,0.2,0,0.300009,-0.000268306,0
0,0.3,0,0.3,0,0
0,0.4,0,0.3,0,0
0,0.5,0,0.3,0,0
0,0.6,0,0.3,0,0
0,0.7,0,0.3,0,0
0,0.8,0,0.3,0,0
0,0.9,0,0.3,0,0
0,1,0,0.3,0,0
0,1.1,0,0.3,0,0
0,1.2,0,0.3,0,0
0,1.3,0,0.3,0,0
0,1.4,0,0.3,0,0
0,1.5,0,0.3,0,0
0,1.6,0,0.3,0,0
0,1.7,0,0.3,0,0
0,1.8,0,0.3,0,0
0,1.9,0,0.3,0,0
0,2,0,0.3,0,0
0,2.1,0,0.3,0,0
0,2.2,0,0.3,0,0
0,2.3,0,0.3,0,0
0,2.4,0,0.3,0,0
0,2.5,0,0.3,0,0
0,2.6,0,0.3,0,0
0,2.7,0,0.3,0,0
0,2.8,0,0.3,0,0
0,2.9,0,0.3,0,0
0,3,0,0.3,0,0
0,3.1,0,0.3,0,0
0,3.2,0,0.3,0,0
0,3.3,0,0.3,0,0
0,3.4,0,0.3,0,0
0,3.5,0,0.3,0,0
0,3.6,0,0.3,0,0
0,3.7,0,0.3,0,0
0,3.8,0,0.3,0,0
0,3.9,0,0.3,0,0
0,4,0,0.3,0,0
0,4.1,0,0.3,0,0
0,4.2,0,0.3,0,0
0,4.3,0,0.3,0,0
0,4.4,0,0.3,0,0
0,4.5,0,0.3,0,0
0,4.6,0,0.3,0,0
0,4.7,0,0.3,0,0
0,4.8,0,0.3,0,0
0,4.9,0,0.3,0,0
0,5,0,0.3,0,0
0,5.1,0,0.3,0,0
0,5.2,0,0.3,0,0
0,5.3,0,0.3,0,0
0,5.4,0,0.3,0,0
0,5.5,0,0.3,0,0
0,5.6,0,0.3,0,0
0,5.7,0,0.3,0,0
0,5.8,0,0.3,0,0
0,5.9,0,0.3,0,0
0,6,0,0.3,0,0
0,6.1,0,0.3,0,0
0,6.2,0,0.3,0,0
0,6.3,0,0.3,0,0
0,6.4,0,0.3,0,0
0,6.5,0,0.3,0,0
0,6.6,0,0.3,0,0
0,6.7,0,0.3,0,0
0,6.8,0,0.3,0,0
0,6.9,0,0.3,0,0
0,7,0,0.3,0,0
0,7.1,0,0.3,0,0
0,7.2,0,0.3,0,0
0,7.3,0,0.3,0,0
0,7.4,0,0.3,0,0
0,7.5,0,0.3,0,0
0,7.6,0,0.3,0,0
0,7.7,0,0.3,0,0
0,7.8,0,0.3,0,0
0,7.9,0,0.3,0,0
0,8,0,0.3,0,0
0,8.1,0,0.3,0,0
0,8.2,0,0.3,0,0
0,8.3,0,0.3,0,0
0,8.4,0,0.3,0,0
0,8.5,0,0.3,0,0
0,8.6,0,0.3,0,0
0,8.7,0,0.3,0,0
0,8.8,0,0.3,0,0
0,8.9,0,0.3,0,0
0,9,0,0.3,0,0
0,9.1,0,0.3,0,0
0,9.2,0,0.3,0,0
0,9.3,0,0.3,0,0
0,9.4,0,0.3,0,0
0,9.5,0,0.3,0,0
0,9.6,0,0.3,0,0
0,9.7,0,0.3,0,0
0,9.8,0,0.3,0,0
0,9.9,0,0.3,0,0
0,10,0,0.3,0,0
0,10.1,0,0.3,0,0
0,10.2,0,0.3,0,0
0,10.3,0,0.3,0,0
0,10.4,0,0.3,0,0
0,10.5,0,0.3,0,0
0,10.6,0,0.3,0,0
0,10.7,0,0.3,0,0
0,10.8,0,0.3,0,0
0,10.9,0,0.3,0,0
0,11,0,0.3,0,0
0,11.1,0,0.3,0,0
0,11.2,0,0.3,0,0
0,11.3,0,0.3,0,0
0,11.4,0,0.3,0,0
0,11.5,0,0.3,0,0
0,11.6,0,0.3,0,0
0,11.7,0,0.3,0,0
0,11.8,0,0.3,0,0
0,11.9,0,0.3,0,0
0,12,0,0.3,0,0
0,12.1,0,0.3,0,0
0,12.2,0,0.3,0,0
0,12.3,0,0.3,0,0
0,12.4,0,0.300004,0.000141743,0
0,12.5,0,0.300014,0.000546722,0
0,12.6,0,0.300025,0.000951701,0
0,12.7,0,0.300036,0.00135668,0
0.1,0,0,0.300001,-0.00197398,0
0.1,0.1,0,0.300047,-0.00148892,0
0.1,0.2,0,0.30003,-0.000952311,0
0.1,0.3,0,0.300029,-0.000859065,0
0.1,0.4,0,0.300029,-0.000859065,0
0.1,0.5,0,0.29996,-0.000818059,0
0.1,0.6,0,0.300028,-0.00082688,0
0.1,0.7,0,0.300028,-0.00082688,0
0.1,0.8,0,0.300026,-0.000796145,0
0.1,0.9,0,0.300026,-0.000796145,0
0.1,1,0,0.299957,-0.000784621,0
0.1,1.1,0,0.300026,-0.000764557,0
0.1,1.2,0,0.300026,-0.000764557,0
0.1,1.3,0,0.300025,-0.000732502,0
0.1,1.4,0,0.300025,-0.000732502,0
0.1,1.5,0,0.299957,-0.000740113,0
0.1,1.6,0,0.300025,-0.00070016,0
0.1,1.7,0,0.300025,-0.00070016,0
0.1,1.8,0,0.300025,-0.000667298,0
0.1,1.9,0,0.300025,-0.000667298,0
0.1,2,0,0.299955,-0.00068625,0
0.1,2.1,0,0.300025,-0.0006338,0
0.1,2.2,0,0.300025,-0.0006338,0
0.1,2.3,0,0.300025,-0.000599643,0
0.1,2.4,0,0.300025,-0.000599643,0
0.1,2.5,0,0.299954,-0.000624222,0
0.1,2.6,0,0.300025,-0.000564818,0
0.1,2.7,0,0.300025,-0.000564818,0
0.1,2.8,0,0.300024,-0.000529351,0
0.1,2.9,0,0.300024,-0.000529351,0
0.1,3,0,0.299952,-0.000555391,0
0.1,3.1,0,0.300024,-0.000493292,0
0.1,3.2,0,0.300024,-0.000493292,0
0.1,3.3,0,0.300024,-0.000456705,0
0.1,3.4,0,0.300024,-0.000456705,0
0.1,3.5,0,0.299951,-0.000481041,0
0.1,3.6,0,0.300024,-0.000419668,0
0.1,3.7,0,0.300024,-0.000419668,0
0.1,3.8,0,0.300024,-0.000382268,0
0.1,3.9,0,0.300024,-0.000382268,0
0.1,4,0,0.29995,-0.000402298,0
0.1,4.1,0,0.300024,-0.000344603,0
0.1,4.2,0,0.300024,-0.000344603,0
0.1,4.3,0,0.300024,-0.00030677,0
0.1,4.4,0,0.300024,-0.00030677,0
0.1,4.5,0,0.299949,-0.000320102,0
0.1,4.6,0,0.300025,-0.000268909,0
0.1,4.7,0,0.300025,-0.000268909,0
0.1,4.8,0,0.300025,-0.00023117,0
0.1,4.9,0,0.300025,-0.00023117,0
0.1,5,0,0.299949,-0.000241591,0
0.1,5.1,0,0.299949,-0.000218001,0
0.1,5.2,0,0.299949,-0.000200653,0
0.1,5.3,0,0.299949,-0.000183256,0
0.1,5.4,0,0.299949,-0.000165815,0
0.1,5.5,0,0.299949,-0.00014833,0
0.1,5.6,0,0.299949,-0.000130806,0
0.1,5.7,0,0.299948,-0.000113248,0
0.1,5.8,0,0.299948,-9.56551e-05,0
0.1,5.9,0,0.299948,-7.80207e-05,0
0.1,6,0,0.299948,-5.03163e-05,0
0.1,6.1,0,0.300022,-2.9428e-05,0
0.1,6.2,0,0.300022,-2.9428e-05,0
0.1,6.3,0,0.299998,-2.04226e-05,0
0.1,6.4,0,0.300021,2.27906e-05,0
0.1,6.5,0,0.300021,2.27906e-05,0
0.1,6.6,0,0.300021,2.27906e-05,0
0.1,6.7,0,0.29999,6.80607e-05,0
0.1,6.8,0,0.30002,7.57111e-05,0
0.1,6.9,0,0.30002,7.57111e-05,0
0.1,7,0,0.299955,0.000112087,0
0.1,7.1,0,0.300019,0.000128739,0
0.1,7.2,0,0.300019,0.000128739,0
0.1,7.3,0,0.300003,0.000138925,0
0.1,7.4,0,0.300019,0.000181593,0
0.1,7.5,0,0.300019,0.000181593,0
0.1,7.6,0,0.300019,0.000181593,0
0.1,7.7,0,0.299982,0.000232951,0
0.1,7.8,0,0.300018,0.000234042,0
0.1,7.9,0,0.300018,0.000234042,0
0.1,8,0,0.299962,0.000278216,0
0.1,8.1,0,0.300018,0.000285942,0
0.1,8.2,0,0.300018,0.000285942,0
0.1,8.3,0,0.300009,0.000293408,0
0.1,8.4,0,0.300018,0.000337197,0
0.1,8.5,0,0.300018,0.000337197,0
0.1,8.6,0,0.300018,0.000337197,0
0.1,8.7,0,0.299976,0.00039491,0
0.1,8.8,0,0.300018,0.000387711,0
0.1,8.9,0,0.300018,0.000387711,0
0.1,9,0,0.29997,0.000433729,0
0.1,9.1,0,0.300018,0.000437425,0
0.1,9.2,0,0.300018,0.000437425,0
0.1,9.3,0,0.300016,0.00043941,0
0.1,9.4,0,0.300017,0.00048678,0
0.1,9.5,0,0.300019,0.000486252,0
0.1,9.6,0,0.300019,0.000486252,0
0.1,9.7,0,0.299972,0.000547567,0
0.1,9.8,0,0.300019,0.00053408,0
0.1,9.9,0,0.300019,0.00053408,0
0.1,10,0,0.299979,0.000574276,0
0.1,10.1,0,0.300019,0.000580945,0
0.1,10.2,0,0.300019,0.000580945,0
0.1,10.3,0,0.300019,0.000580945,0
0.1,10.4,0,0.300011,0.000628836,0
0.1,10.5,0,0.30002,0.000626692,0
0.1,10.6,0,0.30002,0.000626692,0
0.1,10.7,0,0.299968,0.000681677,0
0.1,10.8,0,0.30002,0.000671298,0
0.1,10.9,0,0.30002,0.000671298,0
0.1,11,0,0.299987,0.000696899,0
0.1,11.1,0,0.300021,0.000715302,0
0.1,11.2,0,0.300021,0.000715302,0
0.1,11.3,0,0.300021,0.000715302,0
0.1,11.4,0,0.300008,0.000758014,0
0.1,11.5,0,0.300022,0.000759194,0
0.1,11.6,0,0.300022,0.000759194,0
0.1,11.7,0,0.299963,0.000784582,0
0.1,11.8,0,0.300025,0.000801351,0
0.1,11.9,0,0.300025,0.000801351,0
0.1,12,0,0.299997,0.000803399,0
0.1,12.1,0,0.300026,0.000844268,0
0.1,12.2,0,0.300026,0.000844268,0
0.1,12.3,0,0.300026,0.000844268,0
0.1,12.4,0,0.300004,0.000869341,0
0.1,12.5,0,0.300032,0.00122753,0
0.1,12.6,0,0.300043,0.00163251,0
0.1,12.7,0,0.299996,0.00198483,0
0.2,0,0,0.299958,-0.00260644,0
0.2,0.1,0,0.300069,-0.00217293,0
0.2,0.2,0,0.300011,-0.0017398,0
0.2,0.3,0,0.300012,-0.00169908,0
0.2,0.4,0,0.300058,-0.00171813,0
0.2,0.5,0,0.29992,-0.00163612,0
0.2,0.6,0,0.300056,-0.00165376,0
0.2,0.7,0,0.300007,-0.00163698,0
0.2,0.8,0,0.300005,-0.00159703,0
0.2,0.9,0,0.300053,-0.00159229,0
0.2,1,0,0.299915,-0.00156924,0
0.2,1.1,0,0.300051,-0.00152911,0
0.2,1.2,0,0.300003,-0.00152842,0
0.2,1.3,0,0.300002,-0.00148675,0
0.2,1.4,0,0.30005,-0.001465,0
0.2,1.5,0,0.299913,-0.00148023,0
0.2,1.6,0,0.300049,-0.00140032,0
0.2,1.7,0,0.300001,-0.00141021,0
0.2,1.8,0,0.300001,-0.00136749,0
0.2,1.9,0,0.300049,-0.0013346,0
0.2,2,0,0.29991,-0.0013725,0
0.2,2.1,0,0.300049,-0.0012676,0
0.2,2.2,0,0.3,-0.00128326,0
0.2,2.3,0,0.3,-0.00123885,0
0.2,2.4,0,0.300049,-0.00119929,0
0.2,2.5,0,0.299907,-0.00124844,0
0.2,2.6,0,0.300049,-0.00112964,0
0.2,2.7,0,0.299999,-0.00114767,0
0.2,2.8,0,0.299999,-0.00110156,0
0.2,2.9,0,0.300049,-0.0010587,0
0.2,3,0,0.299904,-0.00111078,0
0.2,3.1,0,0.300049,-0.000986585,0
0.2,3.2,0,0.299998,-0.00100446,0
0.2,3.3,0,0.299998,-0.000956898,0
0.2,3.4,0,0.300049,-0.000913409,0
0.2,3.5,0,0.299901,-0.000962082,0
0.2,3.6,0,0.300049,-0.000839335,0
0.2,3.7,0,0.299997,-0.000855078,0
0.2,3.8,0,0.299997,-0.000806458,0
0.2,3.9,0,0.300049,-0.000764535,0
0.2,4,0,0.299899,-0.000804596,0
0.2,4.1,0,0.300049,-0.000689206,0
0.2,4.2,0,0.299996,-0.000701086,0
0.2,4.3,0,0.299996,-0.000651903,0
0.2,4.4,0,0.300049,-0.00061354,0
0.2,4.5,0,0.299898,-0.000640204,0
0.2,4.6,0,0.300049,-0.000537818,0
0.2,4.7,0,0.299996,-0.000544176,0
0.2,4.8,0,0.299996,-0.000495115,0
0.2,4.9,0,0.300049,-0.00046234,0
0.2,5,0,0.299898,-0.000483181,0
0.2,5.1,0,0.299898,-0.000436002,0
0.2,5.2,0,0.299898,-0.000401306,0
0.2,5.3,0,0.299898,-0.000366513,0
0.2,5.4,0,0.299897,-0.00033163,0
0.2,5.5,0,0.299897,-0.00029666,0
0.2,5.6,0,0.299897,-0.000261612,0
0.2,5.7,0,0.299897,-0.000226496,0
0.2,5.8,0,0.299897,-0.00019131,0
0.2,5.9,0,0.299896,-0.000156041,0
0.2,6,0,0.299896,-0.000100633,0
0.2,6.1,0,0.30004,-6.0103e-05,0
0.2,6.2,0,0.300044,-5.88559e-05,0
0.2,6.3,0,0.299946,-2.17873e-05,0
0.2,6.4,0,0.299988,2.77351e-05,0
0.2,6.5,0,0.300042,4.55813e-05,0
0.2,6.6,0,0.299995,6.77963e-05,0
0.2,6.7,0,0.299937,0.000125465,0
0.2,6.8,0,0.30004,0.000151422,0
0.2,6.9,0,0.30004,0.000151422,0
0.2,7,0,0.299902,0.000228082,0
0.2,7.1,0,0.300028,0.00025548,0
0.2,7.2,0,0.300039,0.000257478,0
0.2,7.3,0,0.299951,0.000313161,0
0.2,7.4,0,0.299978,0.000357036,0
0.2,7.5,0,0.300038,0.000363185,0
0.2,7.6,0,0.299999,0.000390604,0
0.2,7.7,0,0.299931,0.000464874,0
0.2,7.8,0,0.300037,0.000468084,0
0.2,7.9,0,0.300037,0.000468084,0
0.2,8,0,0.299911,0.000567067,0
0.2,8.1,0,0.300019,0.000572622,0
0.2,8.2,0,0.300036,0.000571884,0
0.2,8.3,0,0.299959,0.000638197,0
0.2,8.4,0,0.299972,0.000681476,0
0.2,8.5,0,0.300036,0.000674394,0
0.2,8.6,0,0.300006,0.00070228,0
0.2,8.7,0,0.299926,0.000794385,0
0.2,8.8,0,0.300036,0.000775422,0
0.2,8.9,0,0.300036,0.000775422,0
0.2,9,0,0.299921,0.000886349,0
0.2,9.1,0,0.300013,0.000880179,0
0.2,9.2,0,0.300037,0.000874849,0
0.2,9.3,0,0.299968,0.000943345,0
0.2,9.4,0,0.299968,0.000990715,0
0.2,9.5,0,0.300038,0.000972505,0
0.2,9.6,0,0.300014,0.000995952,0
0.2,9.7,0,0.299924,0.00110067,0
0.2,9.8,0,0.300038,0.00106816,0
0.2,9.9,0,0.300038,0.00106816,0
0.2,10,0,0.299932,0.00117404,0
0.2,10.1,0,0.300009,0.00117032,0
0.2,10.2,0,0.300039,0.00116189,0
0.2,10.3,0,0.299978,0.00122032,0
0.2,10.4,0,0.299966,0.00127242,0
0.2,10.5,0,0.300039,0.00125338,0
0.2,10.6,0,0.300023,0.00126797,0
0.2,10.7,0,0.299923,0.00136585,0
0.2,10.8,0,0.300039,0.0013426,0
0.2,10.9,0,0.300039,0.0013426,0
0.2,11,0,0.299943,0.00141791,0
0.2,11.1,0,0.300006,0.00143372,0
0.2,11.2,0,0.300042,0.0014306,0
0.2,11.3,0,0.299988,0.00146288,0
0.2,11.4,0,0.299964,0.00151194,0
0.2,11.5,0,0.300045,0.00151839,0
0.2,11.6,0,0.300035,0.00152208,0
0.2,11.7,0,0.29992,0.00156736,0
0.2,11.8,0,0.300049,0.0016027,0
0.2,11.9,0,0.300049,0.0016027,0
0.2,12,0,0.299956,0.00160965,0
0.2,12.1,0,0.300009,0.00166414,0
0.2,12.2,0,0.300052,0.00168854,0
0.2,12.3,0,0.300006,0.00167549,0
0.2,12.4,0,0.299967,0.00169596,0
0.2,12.5,0,0.30005,0.00190834,0
0.2,12.6,0,0.300057,0.00231018,0
0.2,12.7,0,0.299956,0.00261298,0
0.3,0,0,0.299916,-0.0032389,0
0.3,0.1,0,0.300065,-0.00283631,0
0.3,0.2,0,0.299974,-0.00257165,0
0.3,0.3,0,0.299975,-0.00253092,0
0.3,0.4,0,0.300059,-0.00256079,0
0.3,0.5,0,0.29988,-0.00245418,0
0.3,0.6,0,0.300057,-0.00247711,0
0.3,0.7,0,0.299965,-0.00243989,0
0.3,0.8,0,0.299963,-0.00239994,0
0.3,0.9,0,0.300052,-0.00238382,0
0.3,1,0,0.299872,-0.00235386,0
0.3,1.1,0,0.300049,-0.0023017,0
0.3,1.2,0,0.29996,-0.00229198,0
0.3,1.3,0,0.299959,-0.00225031,0
0.3,1.4,0,0.300047,-0.00220055,0
0.3,1.5,0,0.29987,-0.00222034,0
0.3,1.6,0,0.300047,-0.00211646,0
0.3,1.7,0,0.299957,-0.00212451,0
0.3,1.8,0,0.299957,-0.00208179,0
0.3,1.9,0,0.300046,-0.00200948,0
0.3,2,0,0.299866,-0.00205875,0
0.3,2.1,0,0.300046,-0.00192238,0
0.3,2.2,0,0.299955,-0.00193943,0
0.3,2.3,0,0.299955,-0.00189502,0
0.3,2.4,0,0.300045,-0.00180876,0
0.3,2.5,0,0.299861,-0.00187267,0
0.3,2.6,0,0.300045,-0.00171822,0
0.3,2.7,0,0.299952,-0.00173824,0
0.3,2.8,0,0.299951,-0.00169213,0
0.3,2.9,0,0.300044,-0.00159847,0
0.3,3,0,0.299856,-0.00166617,0
0.3,3.1,0,0.300044,-0.00150472,0
0.3,3.2,0,0.299949,-0.00152329,0
0.3,3.3,0,0.299949,-0.00147573,0
0.3,3.4,0,0.300043,-0.00137985,0
0.3,3.5,0,0.299852,-0.00144312,0
0.3,3.6,0,0.300043,-0.00128355,0
0.3,3.7,0,0.299947,-0.00129724,0
0.3,3.8,0,0.299947,-0.00124862,0
0.3,3.9,0,0.300043,-0.00115482,0
0.3,4,0,0.299849,-0.00120689,0
0.3,4.1,0,0.300043,-0.00105689,0
0.3,4.2,0,0.299946,-0.00106266,0
0.3,4.3,0,0.299946,-0.00101348,0
0.3,4.4,0,0.300043,-0.000925643,0
0.3,4.5,0,0.299847,-0.000960306,0
0.3,4.6,0,0.300044,-0.000827205,0
0.3,4.7,0,0.299945,-0.000822168,0
0.3,4.8,0,0.299945,-0.000773107,0
0.3,4.9,0,0.300044,-0.000697678,0
0.3,5,0,0.299847,-0.000724772,0
0.3,5.1,0,0.299847,-0.000654004,0
0.3,5.2,0,0.299847,-0.000601959,0
0.3,5.3,0,0.299846,-0.000549769,0
0.3,5.4,0,0.299846,-0.000497445,0
0.3,5.5,0,0.299846,-0.00044499,0
0.3,5.6,0,0.299846,-0.000392418,0
0.3,5.7,0,0.299845,-0.000339745,0
0.3,5.8,0,0.299845,-0.000286965,0
0.3,5.9,0,0.299845,-0.000234062,0
0.3,6,0,0.299844,-0.000150949,0
0.3,6.1,0,0.299988,-0.000110419,0
0.3,6.2,0,0.300038,-7.76031e-05,0
0.3,6.3,0,0.299894,-2.31521e-05,0
0.3,6.4,0,0.299936,2.63704e-05,0
0.3,6.5,0,0.300064,6.83719e-05,0
0.3,6.6,0,0.299943,0.000125201,0
0.3,6.7,0,0.299885,0.00018287,0
0.3,6.8,0,0.300025,0.00021839,0
0.3,6.9,0,0.29999,0.000265914,0
0.3,7,0,0.29985,0.000344078,0
0.3,7.1,0,0.299975,0.000371476,0
0.3,7.2,0,0.300038,0.000399119,0
0.3,7.3,0,0.299899,0.000487397,0
0.3,7.4,0,0.299926,0.000531272,0
0.3,7.5,0,0.300056,0.000544778,0
0.3,7.6,0,0.299948,0.000622527,0
0.3,7.7,0,0.299879,0.000696796,0
0.3,7.8,0,0.300015,0.000700909,0
0.3,7.9,0,0.299995,0.000749573,0
0.3,8,0,0.29986,0.000855918,0
0.3,8.1,0,0.299968,0.000861472,0
0.3,8.2,0,0.300042,0.000868805,0
0.3,8.3,0,0.299908,0.000982986,0
0.3,8.4,0,0.299921,0.00102627,0
0.3,8.5,0,0.300054,0.00101159,0
0.3,8.6,0,0.299956,0.00110175,0
0.3,8.7,0,0.299876,0.00119386,0
0.3,8.8,0,0.300009,0.00117103,0
0.3,8.9,0,0.300003,0.00121303,0
0.3,9,0,0.299872,0.00133897,0
0.3,9.1,0,0.299964,0.0013328,0
0.3,9.2,0,0.300049,0.00131823,0
0.3,9.3,0,0.299919,0.00144728,0
0.3,9.4,0,0.29992,0.00149465,0
0.3,9.5,0,0.30005,0.00146034,0
0.3,9.6,0,0.299967,0.00154906,0
0.3,9.7,0,0.299876,0.00165377,0
0.3,9.8,0,0.300006,0.00161686,0
0.3,9.9,0,0.300013,0.00164636,0
0.3,10,0,0.299885,0.00177381,0
0.3,10.1,0,0.299962,0.00177008,0
0.3,10.2,0,0.300058,0.00174283,0
0.3,10.3,0,0.299932,0.00186391,0
0.3,10.4,0,0.29992,0.00191601,0
0.3,10.5,0,0.300047,0.00188323,0
0.3,10.6,0,0.299978,0.00195215,0
0.3,10.7,0,0.299878,0.00205003,0
0.3,10.8,0,0.300003,0.00202504,0
0.3,10.9,0,0.300022,0.00204246,0
0.3,11,0,0.299899,0.00213893,0
0.3,11.1,0,0.299962,0.00215473,0
0.3,11.2,0,0.300063,0.0021459,0
0.3,11.3,0,0.299944,0.0022168,0
0.3,11.4,0,0.299921,0.00226586,0
0.3,11.5,0,0.300049,0.00227609,0
0.3,11.6,0,0.299991,0.00230486,0
0.3,11.7,0,0.299877,0.00235014,0
0.3,11.8,0,0.300009,0.00238618,0
0.3,11.9,0,0.300042,0.00240639,0
0.3,12,0,0.299914,0.0024159,0
0.3,12.1,0,0.299968,0.00247039,0
0.3,12.2,0,0.300078,0.0025328,0
0.3,12.3,0,0.299968,0.00250211,0
0.3,12.4,0,0.29993,0.00252257,0
0.3,12.5,0,0.300047,0.00264464,0
0.3,12.6,0,0.300017,0.00293833,0
0.3,12.7,0,0.299916,0.00324113,0
0.4,0,0,0.299874,-0.00387135,0
0.4,0.1,0,0.300017,-0.00348355,0
0.4,0.2,0,0.299937,-0.0034035,0
0.4,0.3,0,0.299937,-0.00336277,0
0.4,0.4,0,0.300013,-0.00337613,0
0.4,0.5,0,0.29984,-0.00327224,0
0.4,0.6,0,0.30001,-0.00329277,0
0.4,0.7,0,0.299923,-0.0032428,0
0.4,0.8,0,0.299921,-0.00320285,0
0.4,0.9,0,0.300002,-0.00316912,0
0.4,1,0,0.29983,-0.00313848,0
0.4,1.1,0,0.3,-0.00308622,0
0.4,1.2,0,0.299917,-0.00305555,0
0.4,1.3,0,0.299917,-0.00301388,0
0.4,1.4,0,0.299997,-0.00294377,0
0.4,1.5,0,0.299826,-0.00296045,0
0.4,1.6,0,0.299996,-0.00285799,0
0.4,1.7,0,0.299913,-0.0028388,0
0.4,1.8,0,0.299913,-0.00279608,0
0.4,1.9,0,0.299994,-0.00270043,0
0.4,2,0,0.299821,-0.002745,0
0.4,2.1,0,0.299994,-0.00261087,0
0.4,2.2,0,0.299909,-0.0025956,0
0.4,2.3,0,0.299909,-0.00255119,0
0.4,2.4,0,0.299992,-0.00243864,0
0.4,2.5,0,0.299814,-0.00249689,0
0.4,2.6,0,0.299992,-0.00234501,0
0.4,2.7,0,0.299904,-0.00232881,0
0.4,2.8,0,0.299904,-0.00228271,0
0.4,2.9,0,0.299989,-0.00215998,0
0.4,3,0,0.299808,-0.00222156,0
0.4,3.1,0,0.299989,-0.00206266,0
0.4,3.2,0,0.2999,-0.00204212,0
0.4,3.3,0,0.2999,-0.00199456,0
0.4,3.4,0,0.299987,-0.0018671,0
0.4,3.5,0,0.299803,-0.00192416,0
0.4,3.6,0,0.299987,-0.00176684,0
0.4,3.7,0,0.299897,-0.00173939,0
0.4,3.8,0,0.299897,-0.00169077,0
0.4,3.9,0,0.299985,-0.0015631,0
0.4,4,0,0.299799,-0.00160919,0
0.4,4.1,0,0.299985,-0.00146088,0
0.4,4.2,0,0.299895,-0.00142423,0
0.4,4.3,0,0.299895,-0.00137505,0
0.4,4.4,0,0.299985,-0.00125123,0
0.4,4.5,0,0.299797,-0.00128041,0
0.4,4.6,0,0.299985,-0.00114821,0
0.4,4.7,0,0.299894,-0.00110016,0
0.4,4.8,0,0.299894,-0.0010511,0
0.4,4.9,0,0.299985,-0.000943951,0
0.4,5,0,0.299796,-0.000966363,0
0.4,5.1,0,0.299796,-0.000872005,0
0.4,5.2,0,0.299795,-0.000802612,0
0.4,5.3,0,0.299795,-0.000733026,0
0.4,5.4,0,0.299795,-0.00066326,0
0.4,5.5,0,0.299794,-0.00059332,0
0.4,5.6,0,0.299794,-0.000523223,0
0.4,5.7,0,0.299794,-0.000452993,0
0.4,5.8,0,0.299793,-0.00038262,0
0.4,5.9,0,0.299793,-0.000312083,0
0.4,6,0,0.299792,-0.000201265,0
0.4,6.1,0,0.299936,-0.000160736,0
0.4,6.2,0,0.299977,-8.1462e-05,0
0.4,6.3,0,0.299841,-2.45168e-05,0
0.4,6.4,0,0.299884,2.50057e-05,0
0.4,6.5,0,0.299975,9.61559e-05,0
0.4,6.6,0,0.29989,0.000182606,0
0.4,6.7,0,0.299833,0.000240275,0
0.4,6.8,0,0.299971,0.000276697,0
0.4,6.9,0,0.299938,0.000381909,0
0.4,7,0,0.299798,0.000460073,0
0.4,7.1,0,0.299923,0.000487471,0
0.4,7.2,0,0.29997,0.000570597,0
0.4,7.3,0,0.299847,0.000661633,0
0.4,7.4,0,0.299874,0.000705509,0
0.4,7.5,0,0.299969,0.000750206,0
0.4,7.6,0,0.299896,0.00085445,0
0.4,7.7,0,0.299828,0.000928719,0
0.4,7.8,0,0.299964,0.000932831,0
0.4,7.9,0,0.299944,0.00103842,0
0.4,8,0,0.299809,0.00114477,0
0.4,8.1,0,0.299916,0.00115032,0
0.4,8.2,0,0.299969,0.00121451,0
0.4,8.3,0,0.299857,0.00132778,0
0.4,8.4,0,0.299871,0.00137105,0
0.4,8.5,0,0.29997,0.00138793,0
0.4,8.6,0,0.299906,0.00150123,0
0.4,8.7,0,0.299826,0.00159333,0
0.4,8.8,0,0.299959,0.00157051,0
0.4,8.9,0,0.299953,0.00166565,0
0.4,9,0,0.299822,0.00179159,0
0.4,9.1,0,0.299915,0.00178542,0
0.4,9.2,0,0.299973,0.0018284,0
0.4,9.3,0,0.299871,0.00195122,0
0.4,9.4,0,0.299871,0.00199859,0
0.4,9.5,0,0.299975,0.00199171,0
0.4,9.6,0,0.299919,0.00210216,0
0.4,9.7,0,0.299829,0.00220688,0
0.4,9.8,0,0.299958,0.00216997,0
0.4,9.9,0,0.299966,0.00224612,0
0.4,10,0,0.299839,0.00237358,0
0.4,10.1,0,0.299916,0.00236985,0
0.4,10.2,0,0.299979,0.0023955,0
0.4,10.3,0,0.299887,0.0025075,0
0.4,10.4,0,0.299874,0.0025596,0
0.4,10.5,0,0.299981,0.00254483,0
0.4,10.6,0,0.299933,0.00263632,0
0.4,10.7,0,0.299833,0.00273421,0
0.4,10.8,0,0.299959,0.00270922,0
0.4,10.9,0,0.299978,0.00276348,0
0.4,11,0,0.299855,0.00285994,0
0.4,11.1,0,0.299918,0.00287575,0
0.4,11.2,0,0.299987,0.00289925,0
0.4,11.3,0,0.299901,0.00297073,0
0.4,11.4,0,0.299877,0.00301978,0
0.4,11.5,0,0.299991,0.00303511,0
0.4,11.6,0,0.299948,0.00308765,0
0.4,11.7,0,0.299834,0.00313292,0
0.4,11.8,0,0.299965,0.00316896,0
0.4,11.9,0,0.299999,0.00321223,0
0.4,12,0,0.299873,0.00322216,0
0.4,12.1,0,0.299926,0.00327664,0
0.4,12.2,0,0.300007,0.00333631,0
0.4,12.3,0,0.299931,0.00332873,0
0.4,12.4,0,0.299892,0.00334919,0
0.4,12.5,0,0.300003,0.00346497,0
0.4,12.6,0,0.299977,0.00356648,0
0.4,12.7,0,0.299876,0.00386928,0
0.5,0,0,0.299832,-0.00450381,0
0.5,0.1,0,0.299916,-0.00426385,0
0.5,0.2,0,0.299899,-0.00423535,0
0.5,0.3,0,0.2999,-0.00419462,0
0.5,0.4,0,0.299906,-0.00416697,0
0.5,0.5,0,0.2998,-0.00409029,0
0.5,0.6,0,0.2999,-0.00408686,0
0.5,0.7,0,0.299881,-0.00404571,0
0.5,0.8,0,0.299879,-0.00400576,0
0.5,0.9,0,0.299892,-0.00396051,0
0.5,1,0,0.299787,-0.0039231,0
0.5,1.1,0,0.299889,-0.00386985,0
0.5,1.2,0,0.299874,-0.00381911,0
0.5,1.3,0,0.299874,-0.00377744,0
0.5,1.4,0,0.299886,-0.00371495,0
0.5,1.5,0,0.299783,-0.00370057,0
0.5,1.6,0,0.299884,-0.00361224,0
0.5,1.7,0,0.299869,-0.0035531,0
0.5,1.8,0,0.299869,-0.00351038,0
0.5,1.9,0,0.299881,-0.00343367,0
0.5,2,0,0.299776,-0.00343125,0
0.5,2.1,0,0.299879,-0.00331949,0
0.5,2.2,0,0.299863,-0.00325177,0
0.5,2.3,0,0.299863,-0.00320736,0
0.5,2.4,0,0.299875,-0.00311938,0
0.5,2.5,0,0.299768,-0.00312111,0
0.5,2.6,0,0.299874,-0.00299499,0
0.5,2.7,0,0.299857,-0.00291939,0
0.5,2.8,0,0.299857,-0.00287328,0
0.5,2.9,0,0.299869,-0.0027766,0
0.5,3,0,0.29976,-0.00277696,0
0.5,3.1,0,0.299868,-0.00264359,0
0.5,3.2,0,0.299851,-0.00256095,0
0.5,3.3,0,0.299851,-0.00251339,0
0.5,3.4,0,0.299865,-0.00241027,0
0.5,3.5,0,0.299754,-0.00240521,0
0.5,3.6,0,0.299863,-0.00227037,0
0.5,3.7,0,0.299847,-0.00218155,0
0.5,3.8,0,0.299847,-0.00213293,0
0.5,3.9,0,0.299861,-0.00202529,0
0.5,4,0,0.299749,-0.00201149,0
0.5,4.1,0,0.29986,-0.00188015,0
0.5,4.2,0,0.299844,-0.00178581,0
0.5,4.3,0,0.299844,-0.00173663,0
0.5,4.4,0,0.299859,-0.00162613,0
0.5,4.5,0,0.299746,-0.00160051,0
0.5,4.6,0,0.299859,-0.0014774,0
0.5,4.7,0,0.299843,-0.00137815,0
0.5,4.8,0,0.299843,-0.00132909,0
0.5,4.9,0,0.299858,-0.00123236,0
0.5,5,0,0.299745,-0.00120795,0
0.5,5.1,0,0.299744,-0.00109001,0
0.5,5.2,0,0.299744,-0.00100326,0
0.5,5.3,0,0.299744,-0.000916282,0
0.5,5.4,0,0.299743,-0.000829076,0
0.5,5.5,0,0.299743,-0.00074165,0
0.5,5.6,0,0.299743,-0.000654029,0
0.5,5.7,0,0.299742,-0.000566241,0
0.5,5.8,0,0.299742,-0.000478275,0
0.5,5.9,0,0.299741,-0.000390104,0
0.5,6,0,0.29974,-0.000251582,0
0.5,6.1,0,0.299851,-0.000198696,0
0.5,6.2,0,0.299851,-0.000103715,0
0.5,6.3,0,0.299789,-2.58816e-05,0
0.5,6.4,0,0.299831,2.36409e-05,0
0.5,6.5,0,0.299849,0.000129405,0
0.5,6.6,0,0.299838,0.000240011,0
0.5,6.7,0,0.29978,0.00029768,0
0.5,6.8,0,0.299847,0.000374386,0
0.5,6.9,0,0.299847,0.000488068,0
0.5,7,0,0.299746,0.000576068,0
0.5,7.1,0,0.299846,0.000619085,0
0.5,7.2,0,0.299847,0.000732089,0
0.5,7.3,0,0.299795,0.000835869,0
0.5,7.4,0,0.299822,0.000879745,0
0.5,7.5,0,0.299847,0.000974772,0
0.5,7.6,0,0.299844,0.00108637,0
0.5,7.7,0,0.299776,0.00116064,0
0.5,7.8,0,0.299847,0.00121547,0
0.5,7.9,0,0.299848,0.00132593,0
0.5,8,0,0.299758,0.00143362,0
0.5,8.1,0,0.299848,0.00145367,0
0.5,8.2,0,0.299849,0.0015622,0
0.5,8.3,0,0.299807,0.00167256,0
0.5,8.4,0,0.29982,0.00171584,0
0.5,8.5,0,0.299851,0.00179499,0
0.5,8.6,0,0.299852,0.0019011,0
0.5,8.7,0,0.299776,0.00199281,0
0.5,8.8,0,0.299853,0.00202375,0
0.5,8.9,0,0.299854,0.00212687,0
0.5,9,0,0.299773,0.00224421,0
0.5,9.1,0,0.299855,0.00224797,0
0.5,9.2,0,0.299857,0.00234753,0
0.5,9.3,0,0.299822,0.00245515,0
0.5,9.4,0,0.299823,0.00250252,0
0.5,9.5,0,0.29986,0.0025625,0
0.5,9.6,0,0.299861,0.0026579,0
0.5,9.7,0,0.299781,0.00275998,0
0.5,9.8,0,0.299863,0.00277111,0
0.5,9.9,0,0.299864,0.00286165,0
0.5,10,0,0.299792,0.00297334,0
0.5,10.1,0,0.299866,0.00297289,0
0.5,10.2,0,0.299868,0.00305791,0
0.5,10.3,0,0.299841,0.00315108,0
0.5,10.4,0,0.299829,0.00320318,0
0.5,10.5,0,0.299871,0.0032459,0
0.5,10.6,0,0.299873,0.00332466,0
0.5,10.7,0,0.299789,0.00341838,0
0.5,10.8,0,0.299873,0.00342493,0
0.5,10.9,0,0.299875,0.00349641,0
0.5,11,0,0.299811,0.00358096,0
0.5,11.1,0,0.299874,0.00359676,0
0.5,11.2,0,0.299878,0.00365888,0
0.5,11.3,0,0.299857,0.00372465,0
0.5,11.4,0,0.299833,0.0037737,0
0.5,11.5,0,0.299882,0.00381262,0
0.5,11.6,0,0.299883,0.00386862,0
0.5,11.7,0,0.299791,0.00391571,0
0.5,11.8,0,0.299887,0.00395437,0
0.5,11.9,0,0.29989,0.00399991,0
0.5,12,0,0.299831,0.00402841,0
0.5,12.1,0,0.299885,0.0040829,0
0.5,12.2,0,0.299902,0.00412491,0
0.5,12.3,0,0.299894,0.00415534,0
0.5,12.4,0,0.299855,0.00417581,0
0.5,12.5,0,0.299908,0.00423893,0
0.5,12.6,0,0.299913,0.00425883,0
0.5,12.7,0,0.299836,0.00449743,0
0.6,0,0,0.29979,-0.00513626,0
0.6,0.1,0,0.299815,-0.00504415,0
0.6,0.2,0,0.299811,-0.00502595,0
0.6,0.3,0,0.299808,-0.00499366,0
0.6,0.4,0,0.2998,-0.00495781,0
0.6,0.5,0,0.29976,-0.00490835,0
0.6,0.6,0,0.29979,-0.00488095,0
0.6,0.7,0,0.299785,-0.00484157,0
0.6,0.8,0,0.299782,-0.00479945,0
0.6,0.9,0,0.299781,-0.00475189,0
0.6,1,0,0.299745,-0.00470772,0
0.6,1.1,0,0.299778,-0.00465348,0
0.6,1.2,0,0.299777,-0.00459873,0
0.6,1.3,0,0.299776,-0.0045471,0
0.6,1.4,0,0.299775,-0.00448612,0
0.6,1.5,0,0.299739,-0.00444068,0
0.6,1.6,0,0.299772,-0.00436649,0
0.6,1.7,0,0.299771,-0.00429936,0
0.6,1.8,0,0.29977,-0.00423984,0
0.6,1.9,0,0.299768,-0.00416692,0
0.6,2,0,0.299731,-0.0041175,0
0.6,2.1,0,0.299764,-0.00402811,0
0.6,2.2,0,0.299762,-0.0039499,0
0.6,2.3,0,0.299761,-0.00388319,0
0.6,2.4,0,0.299759,-0.00380013,0
0.6,2.5,0,0.299722,-0.00374533,0
0.6,2.6,0,0.299755,-0.00364497,0
0.6,2.7,0,0.299753,-0.00355749,0
0.6,2.8,0,0.299752,-0.00348469,0
0.6,2.9,0,0.29975,-0.00339321,0
0.6,3,0,0.299712,-0.00333235,0
0.6,3.1,0,0.299747,-0.00322452,0
0.6,3.2,0,0.299745,-0.00312946,0
0.6,3.3,0,0.299744,-0.00305169,0
0.6,3.4,0,0.299742,-0.00295344,0
0.6,3.5,0,0.299704,-0.00288625,0
0.6,3.6,0,0.29974,-0.0027739,0
0.6,3.7,0,0.299739,-0.00267281,0
0.6,3.8,0,0.299738,-0.00259111,0
0.6,3.9,0,0.299737,-0.00248748,0
0.6,4,0,0.299698,-0.00241379,0
0.6,4.1,0,0.299735,-0.00229942,0
0.6,4.2,0,0.299734,-0.00219354,0
0.6,4.3,0,0.299734,-0.00210887,0
0.6,4.4,0,0.299733,-0.00200104,0
0.6,4.5,0,0.299695,-0.00192061,0
0.6,4.6,0,0.299732,-0.00180658,0
0.6,4.7,0,0.299732,-0.0016971,0
0.6,4.8,0,0.299732,-0.00161542,0
0.6,4.9,0,0.299732,-0.00152078,0
0.6,5,0,0.299694,-0.00144954,0
0.6,5.1,0,0.299693,-0.00130801,0
0.6,5.2,0,0.299693,-0.00120392,0
0.6,5.3,0,0.299693,-0.00109954,0
0.6,5.4,0,0.299692,-0.000994891,0
0.6,5.5,0,0.299692,-0.00088998,0
0.6,5.6,0,0.299691,-0.000784835,0
0.6,5.7,0,0.299691,-0.000679489,0
0.6,5.8,0,0.29969,-0.00057393,0
0.6,5.9,0,0.299689,-0.000468124,0
0.6,6,0,0.299688,-0.000301898,0
0.6,6.1,0,0.299725,-0.000220949,0
0.6,6.2,0,0.299724,-0.000125968,0
0.6,6.3,0,0.299724,-3.09875e-05,0
0.6,6.4,0,0.299723,4.86243e-05,0
0.6,6.5,0,0.299723,0.000162655,0
0.6,6.6,0,0.299723,0.000276685,0
0.6,6.7,0,0.299722,0.000358392,0
0.6,6.8,0,0.299722,0.000472074,0
0.6,6.9,0,0.299722,0.000585757,0
0.6,7,0,0.299693,0.000692063,0
0.6,7.1,0,0.299723,0.000780577,0
0.6,7.2,0,0.299723,0.000893582,0
0.6,7.3,0,0.299724,0.00100659,0
0.6,7.4,0,0.299724,0.00108741,0
0.6,7.5,0,0.299724,0.00119934,0
0.6,7.6,0,0.299725,0.00131127,0
0.6,7.7,0,0.299724,0.00139256,0
0.6,7.8,0,0.299726,0.0015022,0
0.6,7.9,0,0.299727,0.00161266,0
0.6,8,0,0.299707,0.00172247,0
0.6,8.1,0,0.299728,0.00180136,0
0.6,8.2,0,0.299729,0.0019099,0
0.6,8.3,0,0.29973,0.00201844,0
0.6,8.4,0,0.299731,0.00209596,0
0.6,8.5,0,0.299732,0.00220206,0
0.6,8.6,0,0.299733,0.00230817,0
0.6,8.7,0,0.299726,0.00239228,0
0.6,8.8,0,0.299735,0.00248814,0
0.6,8.9,0,0.299737,0.00259125,0
0.6,9,0,0.299724,0.00269683,0
0.6,9.1,0,0.299739,0.0027671,0
0.6,9.2,0,0.299741,0.00286666,0
0.6,9.3,0,0.299742,0.00296623,0
0.6,9.4,0,0.299743,0.00303789,0
0.6,9.5,0,0.299745,0.00313329,0
0.6,9.6,0,0.299746,0.00322869,0
0.6,9.7,0,0.299733,0.00331308,0
0.6,9.8,0,0.299749,0.0033899,0
0.6,9.9,0,0.299751,0.00348044,0
0.6,10,0,0.299745,0.00357311,0
0.6,10.1,0,0.299754,0.0036353,0
0.6,10.2,0,0.299756,0.00372032,0
0.6,10.3,0,0.299758,0.00380535,0
0.6,10.4,0,0.299759,0.00386822,0
0.6,10.5,0,0.299761,0.00394697,0
0.6,10.6,0,0.299762,0.00402573,0
0.6,10.7,0,0.299744,0.00410256,0
0.6,10.8,0,0.299765,0.00415882,0
0.6,10.9,0,0.299766,0.0042303,0
0.6,11,0,0.299766,0.00430197,0
0.6,11.1,0,0.299769,0.00435467,0
0.6,11.2,0,0.299769,0.00441852,0
0.6,11.3,0,0.29977,0.00448237,0
0.6,11.4,0,0.299772,0.00453414,0
0.6,11.5,0,0.299772,0.00459013,0
0.6,11.6,0,0.299773,0.00464613,0
0.6,11.7,0,0.299748,0.00469849,0
0.6,11.8,0,0.299778,0.00474205,0
0.6,11.9,0,0.299781,0.0047876,0
0.6,12,0,0.299784,0.00483314,0
0.6,12.1,0,0.299789,0.004874,0
0.6,12.2,0,0.299797,0.00491351,0
0.6,12.3,0,0.299805,0.00495302,0
0.6,12.4,0,0.299808,0.00499299,0
0.6,12.5,0,0.299813,0.00501289,0
0.6,12.6,0,0.299818,0.00503278,0
0.6,12.7,0,0.299796,0.00512558,0
0.7,0,0,0.299762,-0.00563897,0
0.7,0.1,0,0.299716,-0.00583144,0
0.7,0.2,0,0.299712,-0.00581325,0
0.7,0.3,0,0.299702,-0.00578429,0
0.7,0.4,0,0.299694,-0.00574844,0
0.7,0.5,0,0.299723,-0.00552831,0
0.7,0.6,0,0.299679,-0.00567661,0
0.7,0.7,0,0.299674,-0.00563722,0
0.7,0.8,0,0.299671,-0.00559241,0
0.7,0.9,0,0.299669,-0.00554485,0
0.7,1,0,0.299693,-0.00532923,0
0.7,1.1,0,0.299667,-0.0054383,0
0.7,1.2,0,0.299666,-0.00538355,0
0.7,1.3,0,0.299665,-0.00531948,0
0.7,1.4,0,0.299663,-0.0052585,0
0.7,1.5,0,0.299674,-0.00504616,0
0.7,1.6,0,0.29966,-0.0051219,0
0.7,1.7,0,0.299659,-0.00505477,0
0.7,1.8,0,0.299656,-0.00497415,0
0.7,1.9,0,0.299654,-0.00490123,0
0.7,2,0,0.299655,-0.00469222,0
0.7,2.1,0,0.299649,-0.0047377,0
0.7,2.2,0,0.299647,-0.00465949,0
0.7,2.3,0,0.299644,-0.00456483,0
0.7,2.4,0,0.299642,-0.00448177,0
0.7,2.5,0,0.299635,-0.00427743,0
0.7,2.6,0,0.299637,-0.00429576,0
0.7,2.7,0,0.299635,-0.00420827,0
0.7,2.8,0,0.299632,-0.00410203,0
0.7,2.9,0,0.29963,-0.00401055,0
0.7,3,0,0.299617,-0.00381223,0
0.7,3.1,0,0.299625,-0.0038061,0
0.7,3.2,0,0.299624,-0.00371104,0
0.7,3.3,0,0.299622,-0.00359544,0
0.7,3.4,0,0.29962,-0.00349718,0
0.7,3.5,0,0.299604,-0.00330623,0
0.7,3.6,0,0.299617,-0.00327795,0
0.7,3.7,0,0.299615,-0.00317685,0
0.7,3.8,0,0.299613,-0.00305376,0
0.7,3.9,0,0.299612,-0.00295013,0
0.7,4,0,0.299593,-0.00276771,0
0.7,4.1,0,0.29961,-0.00271909,0
0.7,4.2,0,0.299609,-0.00261321,0
0.7,4.3,0,0.299608,-0.00248412,0
0.7,4.4,0,0.299607,-0.00237629,0
0.7,4.5,0,0.299585,-0.00220358,0
0.7,4.6,0,0.299606,-0.00213606,0
0.7,4.7,0,0.299606,-0.00202658,0
0.7,4.8,0,0.299605,-0.00189783,0
0.7,4.9,0,0.299605,-0.00180319,0
0.7,5,0,0.299582,-0.00166358,0
0.7,5.1,0,0.299581,-0.00150126,0
0.7,5.2,0,0.29958,-0.00138188,0
0.7,5.3,0,0.299579,-0.00126214,0
0.7,5.4,0,0.299579,-0.00114206,0
0.7,5.5,0,0.299578,-0.00102165,0
0.7,5.6,0,0.299577,-0.000900968,0
0.7,5.7,0,0.299577,-0.000780038,0
0.7,5.8,0,0.299576,-0.000658861,0
0.7,5.9,0,0.299575,-0.000537397,0
0.7,6,0,0.299573,-0.000346504,0
0.7,6.1,0,0.299598,-0.000253077,0
0.7,6.2,0,0.299598,-0.000158096,0
0.7,6.3,0,0.299597,-6.31154e-05,0
0.7,6.4,0,0.299597,8.19305e-05,0
0.7,6.5,0,0.299597,0.000195961,0
0.7,6.6,0,0.299597,0.000309991,0
0.7,6.7,0,0.299597,0.000456203,0
0.7,6.8,0,0.299597,0.000569886,0
0.7,6.9,0,0.299598,0.000683569,0
0.7,7,0,0.299577,0.000794953,0
0.7,7.1,0,0.299599,0.000942297,0
0.7,7.2,0,0.299599,0.0010553,0
0.7,7.3,0,0.2996,0.00116831,0
0.7,7.4,0,0.299601,0.0013123,0
0.7,7.5,0,0.299602,0.00142423,0
0.7,7.6,0,0.299603,0.00153616,0
0.7,7.7,0,0.299603,0.00167732,0
0.7,7.8,0,0.299605,0.00178937,0
0.7,7.9,0,0.299606,0.00189982,0
0.7,8,0,0.299592,0.00199082,0
0.7,8.1,0,0.299608,0.00214962,0
0.7,8.2,0,0.299609,0.00225816,0