/*--------------------------------*- C++ -*----------------------------------*\
| =========                 |                                                 |
| \\      /  F ield         | OpenFOAM: The Open Source CFD Toolbox           |
|  \\    /   O peration     | Version:  v1806                                 |
|   \\  /    A nd           | Web:      www.OpenFOAM.com                      |
|    \\/     M anipulation  |                                                 |
\*---------------------------------------------------------------------------*/
FoamFile
{
    version     2.0;
    format      ascii;
    class       volVectorField;
    location    "90";
    object      U;
}
// * * * * * * * * * * * * * * * * * * * * * * * * * * * * * * * * * * * * * //

dimensions      [0 1 -1 0 0 0 0];


internalField   nonuniform List<vector> 
4400
(
(0.206827 0.148882 0)
(0.237411 0.137509 0)
(0.241694 0.121749 0)
(0.237937 0.105773 0)
(0.235831 0.0929657 0)
(0.237724 0.0844617 0)
(0.242207 0.0794112 0)
(0.247354 0.0765492 0)
(0.252074 0.0749802 0)
(0.256069 0.0742335 0)
(0.259445 0.0740937 0)
(0.26241 0.0744451 0)
(0.265134 0.0751983 0)
(0.267735 0.0762713 0)
(0.270284 0.0775883 0)
(0.272835 0.0790842 0)
(0.275429 0.0807058 0)
(0.278099 0.0824025 0)
(0.280866 0.0841266 0)
(0.283948 0.0863455 0)
(0.213986 0.0327144 0)
(0.213027 0.0314959 0)
(0.216946 0.0315136 0)
(0.226792 0.0344128 0)
(0.237727 0.0393114 0)
(0.246647 0.0445263 0)
(0.252915 0.0491446 0)
(0.257144 0.0529276 0)
(0.260193 0.0559847 0)
(0.262708 0.0585242 0)
(0.265051 0.0607268 0)
(0.267374 0.0627104 0)
(0.269724 0.0645418 0)
(0.272109 0.0662576 0)
(0.274534 0.0678816 0)
(0.27701 0.0694333 0)
(0.279553 0.0709275 0)
(0.28218 0.0723701 0)
(0.284899 0.0737728 0)
(0.287646 0.0753895 0)
(0.220626 0.0280838 0)
(0.232467 0.0376515 0)
(0.243093 0.0456998 0)
(0.249632 0.0511716 0)
(0.252757 0.0539319 0)
(0.254278 0.0549622 0)
(0.255664 0.0552565 0)
(0.257587 0.0554082 0)
(0.260097 0.0556751 0)
(0.262973 0.0561213 0)
(0.265973 0.0567312 0)
(0.268941 0.0574708 0)
(0.271813 0.0583118 0)
(0.274585 0.0592341 0)
(0.277283 0.0602225 0)
(0.279941 0.0612624 0)
(0.282592 0.0623368 0)
(0.285257 0.0634237 0)
(0.287926 0.0645125 0)
(0.290407 0.0657472 0)
(0.250451 0.0160175 0)
(0.249342 0.0191483 0)
(0.248211 0.0214042 0)
(0.24891 0.0234567 0)
(0.251608 0.0258583 0)
(0.255505 0.0286968 0)
(0.259693 0.0317928 0)
(0.263585 0.0349179 0)
(0.266965 0.0378932 0)
(0.269863 0.0406231 0)
(0.272417 0.0430833 0)
(0.274769 0.0452918 0)
(0.277032 0.0472824 0)
(0.279274 0.0490882 0)
(0.281535 0.0507355 0)
(0.283832 0.0522425 0)
(0.286169 0.053619 0)
(0.288535 0.0548646 0)
(0.290876 0.0559963 0)
(0.292929 0.0571214 0)
(0.25054 0.0118302 0)
(0.254217 0.0167843 0)
(0.258625 0.021588 0)
(0.262583 0.0260733 0)
(0.265556 0.0299389 0)
(0.267609 0.0330173 0)
(0.269104 0.0353532 0)
(0.270432 0.0371399 0)
(0.271866 0.0385839 0)
(0.273525 0.039833 0)
(0.275411 0.0409746 0)
(0.27747 0.0420527 0)
(0.279637 0.0430844 0)
(0.281861 0.0440729 0)
(0.284109 0.0450156 0)
(0.286365 0.0459081 0)
(0.288618 0.0467441 0)
(0.290853 0.0475174 0)
(0.293004 0.048256 0)
(0.294796 0.0489842 0)
(0.269479 0.0096667 0)
(0.269018 0.0120472 0)
(0.268341 0.0141776 0)
(0.26805 0.0160777 0)
(0.268524 0.01788 0)
(0.269792 0.0197373 0)
(0.271639 0.0217064 0)
(0.273786 0.023751 0)
(0.276004 0.0257988 0)
(0.278159 0.0277795 0)
(0.280198 0.0296396 0)
(0.282125 0.0313458 0)
(0.283971 0.0328833 0)
(0.285773 0.0342495 0)
(0.287565 0.0354496 0)
(0.289371 0.0364909 0)
(0.2912 0.0373792 0)
(0.29304 0.0381241 0)
(0.294817 0.0387522 0)
(0.296258 0.0392407 0)
(0.268968 0.00658293 0)
(0.270507 0.00939839 0)
(0.272496 0.0121667 0)
(0.274575 0.0148883 0)
(0.276447 0.0174798 0)
(0.277989 0.0198318 0)
(0.279231 0.0218785 0)
(0.280286 0.0236118 0)
(0.281281 0.0250679 0)
(0.282315 0.0263022 0)
(0.283447 0.0273669 0)
(0.284697 0.028302 0)
(0.286061 0.0291343 0)
(0.287521 0.0298792 0)
(0.289057 0.0305441 0)
(0.290652 0.0311301 0)
(0.292286 0.0316356 0)
(0.293929 0.0320626 0)
(0.2955 0.0324164 0)
(0.296746 0.0326902 0)
(0.280725 0.0061852 0)
(0.280554 0.00787081 0)
(0.280278 0.0094614 0)
(0.280085 0.0109349 0)
(0.280153 0.0123104 0)
(0.280575 0.0136433 0)
(0.281344 0.0149783 0)
(0.282387 0.0163336 0)
(0.28361 0.017701 0)
(0.284925 0.0190561 0)
(0.286271 0.0203708 0)
(0.287614 0.0216195 0)
(0.28894 0.0227818 0)
(0.290248 0.0238432 0)
(0.291547 0.0247934 0)
(0.292846 0.0256257 0)
(0.294146 0.0263354 0)
(0.295436 0.0269178 0)
(0.296657 0.0273777 0)
(0.297605 0.027735 0)
(0.280714 0.004342 0)
(0.281461 0.00613599 0)
(0.282447 0.00791416 0)
(0.283556 0.00968135 0)
(0.284663 0.0114181 0)
(0.285684 0.013081 0)
(0.286589 0.0146297 0)
(0.287395 0.0160388 0)
(0.288142 0.0173003 0)
(0.288874 0.0184203 0)
(0.28963 0.0194129 0)
(0.290433 0.0202944 0)
(0.291297 0.0210797 0)
(0.292223 0.0217799 0)
(0.293204 0.0224026 0)
(0.294229 0.0229522 0)
(0.295283 0.0234294 0)
(0.296341 0.0238333 0)
(0.297339 0.0241822 0)
(0.298104 0.0244848 0)
(0.288331 0.00414853 0)
(0.28829 0.00536811 0)
(0.288208 0.00653705 0)
(0.288149 0.00764233 0)
(0.288186 0.00867923 0)
(0.288372 0.0096634 0)
(0.288728 0.0106136 0)
(0.289246 0.0115428 0)
(0.289899 0.0124557 0)
(0.290651 0.0133489 0)
(0.291467 0.0142131 0)
(0.292322 0.0150362 0)
(0.293197 0.0158061 0)
(0.294079 0.0165122 0)
(0.294963 0.0171461 0)
(0.295846 0.0177015 0)
(0.296723 0.0181727 0)
(0.297581 0.0185607 0)
(0.298374 0.0188815 0)
(0.298971 0.0191187 0)
(0.288612 0.0026961 0)
(0.288989 0.00378295 0)
(0.28949 0.00486037 0)
(0.290075 0.00592884 0)
(0.290694 0.0069839 0)
(0.291305 0.00800837 0)
(0.291883 0.00898251 0)
(0.292422 0.00988945 0)
(0.29293 0.0107176 0)
(0.29342 0.011461 0)
(0.29391 0.0121189 0)
(0.294414 0.012694 0)
(0.294943 0.0131906 0)
(0.295503 0.0136136 0)
(0.296095 0.0139678 0)
(0.296719 0.0142566 0)
(0.297368 0.0144836 0)
(0.298025 0.0146568 0)
(0.298646 0.0147825 0)
(0.299121 0.0148489 0)
(0.293106 0.00260569 0)
(0.293106 0.00340338 0)
(0.293091 0.0041723 0)
(0.293086 0.00490555 0)
(0.293116 0.00559629 0)
(0.293208 0.00624749 0)
(0.293377 0.00686537 0)
(0.293626 0.0074557 0)
(0.293951 0.00802215 0)
(0.294339 0.00856552 0)
(0.294779 0.00908383 0)
(0.295255 0.00957289 0)
(0.295758 0.0100272 0)
(0.296279 0.0104409 0)
(0.296812 0.0108078 0)
(0.297354 0.0111222 0)
(0.297899 0.0113802 0)
(0.298439 0.0115798 0)
(0.298944 0.0117191 0)
(0.299325 0.0118041 0)
(0.293574 0.00186063 0)
(0.293762 0.00258135 0)
(0.294012 0.00329586 0)
(0.294309 0.00400342 0)
(0.294635 0.0047035 0)
(0.294971 0.00538947 0)
(0.295304 0.00605265 0)
(0.295626 0.00668452 0)
(0.295935 0.00727778 0)
(0.296236 0.007827 0)
(0.296533 0.00832881 0)
(0.296832 0.00878157 0)
(0.297138 0.00918496 0)
(0.297454 0.00953929 0)
(0.297784 0.00984508 0)
(0.298126 0.0101032 0)
(0.29848 0.0103144 0)
(0.29884 0.0104782 0)
(0.299186 0.0106002 0)
(0.29945 0.0106903 0)
(0.29642 0.00175574 0)
(0.296427 0.00231798 0)
(0.296431 0.00286435 0)
(0.29644 0.00339089 0)
(0.296464 0.00389226 0)
(0.296513 0.0043679 0)
(0.296596 0.0048191 0)
(0.296716 0.00524754 0)
(0.296874 0.00565463 0)
(0.297065 0.00604105 0)
(0.297286 0.00640652 0)
(0.297531 0.00674983 0)
(0.297793 0.00706908 0)
(0.298069 0.00736187 0)
(0.298353 0.00762579 0)
(0.298643 0.00785844 0)
(0.298935 0.00805677 0)
(0.299224 0.00821931 0)
(0.299494 0.00835284 0)
(0.299698 0.00845302 0)
(0.29693 0.00110969 0)
(0.297017 0.00153229 0)
(0.297134 0.00195003 0)
(0.297274 0.00236219 0)
(0.297431 0.00276859 0)
(0.297597 0.00316624 0)
(0.297765 0.00355115 0)
(0.297932 0.00391909 0)
(0.298095 0.00426605 0)
(0.298254 0.00458856 0)
(0.298411 0.00488398 0)
(0.298567 0.00515047 0)
(0.298726 0.00538697 0)
(0.298887 0.00559305 0)
(0.299054 0.0057688 0)
(0.299225 0.00591434 0)
(0.299402 0.00602988 0)
(0.29958 0.00611818 0)
(0.299751 0.00618231 0)
(0.299887 0.00621581 0)
(0.29841 0.000972174 0)
(0.298413 0.00128704 0)
(0.298416 0.00159341 0)
(0.298419 0.00188891 0)
(0.298429 0.00217019 0)
(0.298447 0.00243619 0)
(0.298479 0.00268668 0)
(0.298525 0.0029218 0)
(0.298588 0.00314175 0)
(0.298666 0.00334665 0)
(0.298758 0.0035363 0)
(0.298862 0.00371021 0)
(0.298976 0.00386752 0)
(0.299098 0.00400719 0)
(0.299227 0.00412792 0)
(0.29936 0.00422829 0)
(0.299496 0.00430759 0)
(0.299632 0.0043658 0)
(0.299763 0.00440116 0)
(0.299867 0.00441492 0)
(0.298783 0.000657825 0)
(0.298818 0.000901753 0)
(0.298864 0.00114226 0)
(0.29892 0.00137896 0)
(0.298983 0.00161178 0)
(0.29905 0.00183944 0)
(0.299118 0.00206022 0)
(0.299186 0.00227223 0)
(0.299253 0.00247358 0)
(0.299317 0.00266245 0)
(0.299379 0.00283727 0)
(0.29944 0.00299673 0)
(0.299499 0.00313979 0)
(0.299559 0.00326571 0)
(0.29962 0.00337389 0)
(0.299681 0.00346408 0)
(0.299745 0.00353635 0)
(0.29981 0.00359024 0)
(0.299877 0.00362608 0)
(0.299933 0.00364804 0)
(0.299589 0.000524679 0)
(0.299585 0.00069745 0)
(0.299581 0.000866657 0)
(0.299576 0.00103099 0)
(0.299572 0.00118864 0)
(0.299571 0.00133888 0)
(0.299573 0.00148136 0)
(0.29958 0.0016159 0)
(0.299592 0.00174241 0)
(0.29961 0.00186083 0)
(0.299633 0.00197108 0)
(0.299661 0.00207299 0)
(0.299692 0.00216629 0)
(0.299726 0.00225063 0)
(0.299762 0.00232563 0)
(0.2998 0.00239089 0)
(0.299839 0.00244574 0)
(0.299879 0.00248946 0)
(0.299917 0.00252298 0)
(0.299949 0.0025459 0)
(0.299788 0.000243232 0)
(0.299798 0.000334721 0)
(0.299812 0.000424833 0)
(0.299828 0.000513649 0)
(0.299846 0.000601271 0)
(0.299865 0.000687213 0)
(0.299883 0.000770829 0)
(0.2999 0.000851407 0)
(0.299916 0.000928199 0)
(0.29993 0.00100048 0)
(0.299942 0.00106758 0)
(0.299953 0.00112898 0)
(0.299963 0.00118423 0)
(0.299972 0.00123304 0)
(0.29998 0.00127521 0)
(0.299989 0.00131061 0)
(0.299997 0.00133909 0)
(0.300006 0.00136092 0)
(0.300014 0.00137639 0)
(0.300024 0.00138405 0)
(0.30002 9.68249e-05 0)
(0.300017 0.000127681 0)
(0.300012 0.000157885 0)
(0.300006 0.000186775 0)
(0.299999 0.00021391 0)
(0.299993 0.000239192 0)
(0.299987 0.000262579 0)
(0.299982 0.000284087 0)
(0.299977 0.000303774 0)
(0.299974 0.000321717 0)
(0.299973 0.00033798 0)
(0.299972 0.0003526 0)
(0.299972 0.000365573 0)
(0.299973 0.000376861 0)
(0.299975 0.000386392 0)
(0.299977 0.000394072 0)
(0.299979 0.000399845 0)
(0.299982 0.000403646 0)
(0.299984 0.000405059 0)
(0.299986 0.000404151 0)
(0.15469 -0.0923006 0)
(0.14548 -0.0808522 0)
(0.139553 -0.0695439 0)
(0.135531 -0.058548 0)
(0.132704 -0.0477339 0)
(0.130687 -0.0370325 0)
(0.129268 -0.0264155 0)
(0.128324 -0.0158599 0)
(0.127783 -0.00534132 0)
(0.127604 0.00516433 0)
(0.127767 0.0156808 0)
(0.128266 0.0262316 0)
(0.129108 0.0368408 0)
(0.130317 0.0475326 0)
(0.131946 0.058331 0)
(0.134089 0.0692593 0)
(0.136926 0.0803513 0)
(0.140807 0.0916853 0)
(0.146436 0.103332 0)
(0.155298 0.114829 0)
(0.194528 -0.0211173 0)
(0.193473 -0.0188399 0)
(0.192289 -0.0163365 0)
(0.191079 -0.0136967 0)
(0.189941 -0.01097 0)
(0.188958 -0.00818315 0)
(0.188194 -0.00535456 0)
(0.1877 -0.00249898 0)
(0.187512 0.000371213 0)
(0.187657 0.00324503 0)
(0.188151 0.00611222 0)
(0.189003 0.0089628 0)
(0.190213 0.0117868 0)
(0.19177 0.014574 0)
(0.193654 0.0173125 0)
(0.195828 0.0199871 0)
(0.198239 0.022584 0)
(0.200812 0.0251053 0)
(0.203448 0.027536 0)
(0.206029 0.0295825 0)
(0.220355 -0.0131084 0)
(0.219202 -0.011336 0)
(0.218222 -0.00951906 0)
(0.217402 -0.00765534 0)
(0.216723 -0.00574625 0)
(0.216167 -0.00379589 0)
(0.215717 -0.00181051 0)
(0.215356 0.000202037 0)
(0.215072 0.00223265 0)
(0.214856 0.00427134 0)
(0.214701 0.00630753 0)
(0.214606 0.00833024 0)
(0.214572 0.0103283 0)
(0.214604 0.0122907 0)
(0.214714 0.0142068 0)
(0.214917 0.0160668 0)
(0.215232 0.0178615 0)
(0.215686 0.0195812 0)
(0.216309 0.0212203 0)
(0.217134 0.0228023 0)
(0.245142 -0.00746484 0)
(0.245361 -0.00646303 0)
(0.245558 -0.00544016 0)
(0.245738 -0.00440031 0)
(0.245909 -0.00334703 0)
(0.246078 -0.00228333 0)
(0.246252 -0.00121164 0)
(0.246438 -0.000133922 0)
(0.246639 0.000948326 0)
(0.24686 0.00203392 0)
(0.247103 0.00312191 0)
(0.247368 0.00421151 0)
(0.247653 0.00530196 0)
(0.247956 0.0063924 0)
(0.24827 0.00748173 0)
(0.24859 0.00856835 0)
(0.248906 0.0096507 0)
(0.24921 0.0107287 0)
(0.249491 0.0118003 0)
(0.249742 0.0128381 0)
(0.251103 -0.00449636 0)
(0.250674 -0.00373912 0)
(0.250287 -0.00298299 0)
(0.24994 -0.00222757 0)
(0.249633 -0.00147271 0)
(0.249364 -0.00071847 0)
(0.249133 3.48656e-05 0)
(0.248937 0.000786798 0)
(0.248775 0.00153665 0)
(0.248648 0.00228362 0)
(0.248555 0.0030268 0)
(0.248495 0.00376523 0)
(0.24847 0.00449797 0)
(0.248481 0.00522413 0)
(0.24853 0.00594301 0)
(0.248618 0.00665411 0)
(0.24875 0.00735689 0)
(0.248928 0.00804968 0)
(0.249154 0.00873185 0)
(0.249432 0.00941733 0)
(0.267291 -0.00417487 0)
(0.267462 -0.00357872 0)
(0.267625 -0.00297558 0)
(0.267782 -0.00236626 0)
(0.267931 -0.0017515 0)
(0.268074 -0.00113201 0)
(0.268211 -0.000508452 0)
(0.268343 0.000118568 0)
(0.268469 0.000748489 0)
(0.26859 0.00138078 0)
(0.268706 0.00201494 0)
(0.268816 0.00265048 0)
(0.268921 0.00328689 0)
(0.269019 0.00392366 0)
(0.269109 0.00456019 0)
(0.269191 0.00519576 0)
(0.269263 0.00582982 0)
(0.269324 0.00646276 0)
(0.269373 0.00709454 0)
(0.269408 0.00771428 0)
(0.269241 -0.00238075 0)
(0.269039 -0.00196263 0)
(0.268853 -0.00154696 0)
(0.268685 -0.00113363 0)
(0.268533 -0.000722526 0)
(0.268399 -0.000313554 0)
(0.268282 9.33565e-05 0)
(0.268183 0.000498257 0)
(0.268101 0.000901186 0)
(0.268037 0.00130217 0)
(0.267991 0.00170122 0)
(0.267964 0.00209836 0)
(0.267955 0.00249361 0)
(0.267964 0.002887 0)
(0.267994 0.00327861 0)
(0.268043 0.00366858 0)
(0.268112 0.00405692 0)
(0.268202 0.00444301 0)
(0.268314 0.0048265 0)
(0.268447 0.00521429 0)
(0.279651 -0.00262259 0)
(0.279744 -0.00223948 0)
(0.279833 -0.0018532 0)
(0.27992 -0.00146405 0)
(0.280003 -0.00107229 0)
(0.280082 -0.000678218 0)
(0.280157 -0.000282098 0)
(0.280228 0.000115787 0)
(0.280295 0.000515163 0)
(0.280358 0.000915754 0)
(0.280417 0.00131728 0)
(0.280471 0.00171947 0)
(0.280521 0.00212204 0)
(0.280565 0.00252469 0)
(0.280604 0.00292711 0)
(0.280638 0.00332895 0)
(0.280666 0.00372994 0)
(0.280688 0.0041303 0)
(0.280704 0.00453013 0)
(0.280714 0.00492433 0)
(0.28083 -0.00155266 0)
(0.280728 -0.00127976 0)
(0.280635 -0.00100835 0)
(0.280549 -0.000738382 0)
(0.280473 -0.000469789 0)
(0.280405 -0.000202508 0)
(0.280345 6.3525e-05 0)
(0.280295 0.000328375 0)
(0.280254 0.000592108 0)
(0.280223 0.000854791 0)
(0.280201 0.00111649 0)
(0.280188 0.00137728 0)
(0.280185 0.00163723 0)
(0.280192 0.00189642 0)
(0.280209 0.00215495 0)
(0.280236 0.00241292 0)
(0.280274 0.00267041 0)
(0.280322 0.0029271 0)
(0.28038 0.00318285 0)
(0.280449 0.00344106 0)
(0.287766 -0.00177339 0)
(0.287813 -0.00151391 0)
(0.287857 -0.00125283 0)
(0.287901 -0.000990292 0)
(0.287943 -0.000726425 0)
(0.287983 -0.000461368 0)
(0.288021 -0.000195262 0)
(0.288058 7.17509e-05 0)
(0.288092 0.000339526 0)
(0.288125 0.000607916 0)
(0.288155 0.000876773 0)
(0.288183 0.00114594 0)
(0.288209 0.00141528 0)
(0.288232 0.00168462 0)
(0.288253 0.00195379 0)
(0.288271 0.00222262 0)
(0.288286 0.00249097 0)
(0.288299 0.00275895 0)
(0.288309 0.00302663 0)
(0.288316 0.00329148 0)
(0.288655 -0.000979899 0)
(0.288604 -0.000810631 0)
(0.288556 -0.000642135 0)
(0.288513 -0.000474384 0)
(0.288475 -0.000307352 0)
(0.288441 -0.000141008 0)
(0.288411 2.46784e-05 0)
(0.288386 0.000189742 0)
(0.288366 0.000354216 0)
(0.288351 0.000518138 0)
(0.28834 0.000681546 0)
(0.288335 0.00084448 0)
(0.288335 0.00100698 0)
(0.288339 0.00116909 0)
(0.288349 0.00133086 0)
(0.288364 0.00149235 0)
(0.288384 0.00165358 0)
(0.288409 0.00181442 0)
(0.288439 0.00197475 0)
(0.288475 0.00213634 0)
(0.292811 -0.00111704 0)
(0.292833 -0.000953192 0)
(0.292855 -0.000788523 0)
(0.292876 -0.000623099 0)
(0.292897 -0.000456991 0)
(0.292917 -0.000290271 0)
(0.292936 -0.000123014 0)
(0.292954 4.47041e-05 0)
(0.292971 0.000212807 0)
(0.292988 0.000381215 0)
(0.293003 0.000549848 0)
(0.293018 0.000718626 0)
(0.293031 0.000887465 0)
(0.293043 0.00105628 0)
(0.293054 0.001225 0)
(0.293064 0.0013935 0)
(0.293073 0.00156172 0)
(0.293081 0.00172973 0)
(0.293087 0.00189756 0)
(0.293092 0.00206392 0)
(0.293589 -0.000675845 0)
(0.293564 -0.000559759 0)
(0.293541 -0.000444069 0)
(0.293519 -0.000328764 0)
(0.293501 -0.000213831 0)
(0.293484 -9.92587e-05 0)
(0.293469 1.49679e-05 0)
(0.293457 0.000128864 0)
(0.293448 0.000242445 0)
(0.29344 0.00035573 0)
(0.293435 0.000468735 0)
(0.293433 0.00058148 0)
(0.293433 0.000693985 0)
(0.293436 0.000806268 0)
(0.293441 0.000918354 0)
(0.293449 0.00103027 0)
(0.293459 0.00114204 0)
(0.293472 0.00125356 0)
(0.293487 0.00136481 0)
(0.293505 0.00147666 0)
(0.296277 -0.000759639 0)
(0.296287 -0.000648466 0)
(0.296297 -0.000536862 0)
(0.296307 -0.000424866 0)
(0.296316 -0.000312514 0)
(0.296325 -0.000199845 0)
(0.296334 -8.68997e-05 0)
(0.296343 2.62819e-05 0)
(0.296351 0.000139659 0)
(0.296359 0.000253188 0)
(0.296366 0.000366829 0)
(0.296373 0.000480537 0)
(0.296379 0.000594269 0)
(0.296385 0.000707981 0)
(0.296391 0.000821627 0)
(0.296396 0.000935156 0)
(0.2964 0.00104853 0)
(0.296404 0.00116178 0)
(0.296408 0.00127493 0)
(0.296411 0.00138731 0)
(0.296934 -0.000410525 0)
(0.296922 -0.000341257 0)
(0.296911 -0.000272168 0)
(0.296901 -0.000203254 0)
(0.296893 -0.000134512 0)
(0.296885 -6.5937e-05 0)
(0.296878 2.47576e-06 0)
(0.296873 7.07317e-05 0)
(0.296868 0.000138837 0)
(0.296865 0.000206797 0)
(0.296863 0.00027462 0)
(0.296862 0.000342312 0)
(0.296862 0.000409882 0)
(0.296863 0.000477335 0)
(0.296866 0.000544683 0)
(0.29687 0.000611937 0)
(0.296875 0.000679099 0)
(0.296881 0.000746128 0)
(0.296888 0.000813001 0)
(0.296897 0.000880162 0)
(0.298347 -0.000419848 0)
(0.298351 -0.000358182 0)
(0.298356 -0.000296301 0)
(0.29836 -0.000234225 0)
(0.298364 -0.000171974 0)
(0.298369 -0.000109568 0)
(0.298373 -4.70285e-05 0)
(0.298376 1.56235e-05 0)
(0.29838 7.83663e-05 0)
(0.298384 0.000141178 0)
(0.298387 0.000204037 0)
(0.29839 0.00026692 0)
(0.298393 0.000329805 0)
(0.298395 0.000392669 0)
(0.298398 0.000455488 0)
(0.2984 0.000518236 0)
(0.298402 0.000580892 0)
(0.298404 0.000643472 0)
(0.298405 0.000705989 0)
(0.298406 0.000768116 0)
(0.298789 -0.000241006 0)
(0.298784 -0.000200152 0)
(0.298779 -0.00015938 0)
(0.298775 -0.000118689 0)
(0.298771 -7.80786e-05 0)
(0.298768 -3.7548e-05 0)
(0.298765 2.9041e-06 0)
(0.298762 4.32793e-05 0)
(0.29876 8.35792e-05 0)
(0.298759 0.000123806 0)
(0.298758 0.000163961 0)
(0.298757 0.000204048 0)
(0.298757 0.000244068 0)
(0.298757 0.000284023 0)
(0.298758 0.000323919 0)
(0.29876 0.000363758 0)
(0.298761 0.000403541 0)
(0.298764 0.000443246 0)
(0.298767 0.000482867 0)
(0.29877 0.000522613 0)
(0.299568 -0.000228632 0)
(0.29957 -0.00019521 0)
(0.299572 -0.000161689 0)
(0.299574 -0.000128076 0)
(0.299576 -9.43823e-05 0)
(0.299578 -6.06161e-05 0)
(0.299579 -2.67875e-05 0)
(0.299581 7.09361e-06 0)
(0.299582 4.10173e-05 0)
(0.299583 7.49734e-05 0)
(0.299585 0.000108952 0)
(0.299586 0.000142942 0)
(0.299587 0.000176933 0)
(0.299587 0.000210916 0)
(0.299588 0.000244879 0)
(0.299588 0.000278809 0)
(0.299589 0.000312697 0)
(0.299589 0.000346553 0)
(0.299589 0.000380388 0)
(0.299589 0.000414035 0)
(0.299794 -8.60009e-05 0)
(0.299792 -7.10161e-05 0)
(0.29979 -5.60703e-05 0)
(0.299789 -4.11627e-05 0)
(0.299787 -2.62917e-05 0)
(0.299786 -1.14562e-05 0)
(0.299785 3.34514e-06 0)
(0.299784 1.81138e-05 0)
(0.299783 3.28514e-05 0)
(0.299782 4.75597e-05 0)
(0.299782 6.22402e-05 0)
(0.299781 7.6895e-05 0)
(0.299781 9.15258e-05 0)
(0.299781 0.000106135 0)
(0.299781 0.000120723 0)
(0.299781 0.000135295 0)
(0.299782 0.00014985 0)
(0.299782 0.00016438 0)
(0.299783 0.000178884 0)
(0.299784 0.00019346 0)
(0.300015 -4.68546e-05 0)
(0.300016 -4.05288e-05 0)
(0.300017 -3.41708e-05 0)
(0.300018 -2.77834e-05 0)
(0.300019 -2.13702e-05 0)
(0.300019 -1.49334e-05 0)
(0.30002 -8.47606e-06 0)
(0.300021 -2.00133e-06 0)
(0.300021 4.48776e-06 0)
(0.300021 1.09881e-05 0)
(0.300022 1.74966e-05 0)
(0.300022 2.401e-05 0)
(0.300022 3.05253e-05 0)
(0.300022 3.70392e-05 0)
(0.300022 4.35484e-05 0)
(0.300022 5.00491e-05 0)
(0.300022 5.65383e-05 0)
(0.300022 6.30198e-05 0)
(0.300022 6.95017e-05 0)
(0.300022 7.59344e-05 0)
(0.237078 -0.100174 0)
(0.238509 -0.102454 0)
(0.239888 -0.104798 0)
(0.241175 -0.107207 0)
(0.242308 -0.109644 0)
(0.243212 -0.112065 0)
(0.243795 -0.114422 0)
(0.243956 -0.116661 0)
(0.243584 -0.118719 0)
(0.242561 -0.120525 0)
(0.240763 -0.122001 0)
(0.238063 -0.12306 0)
(0.234331 -0.123608 0)
(0.229442 -0.12354 0)
(0.223272 -0.122739 0)
(0.215707 -0.121074 0)
(0.206645 -0.118416 0)
(0.196012 -0.114651 0)
(0.18377 -0.10957 0)
(0.169939 -0.102491 0)
(0.212998 -0.0290829 0)
(0.21046 -0.0286205 0)
(0.20803 -0.0282503 0)
(0.205741 -0.0279444 0)
(0.203625 -0.0277083 0)
(0.201715 -0.027545 0)
(0.20004 -0.0274509 0)
(0.198623 -0.0274188 0)
(0.19748 -0.0274378 0)
(0.196616 -0.0274926 0)
(0.196026 -0.0275636 0)
(0.195689 -0.0276258 0)
(0.19557 -0.0276493 0)
(0.19562 -0.0275985 0)
(0.195775 -0.0274326 0)
(0.195961 -0.0271055 0)
(0.196094 -0.0265664 0)
(0.196089 -0.0257574 0)
(0.195862 -0.0246108 0)
(0.195345 -0.0230643 0)
(0.250481 -0.042628 0)
(0.249926 -0.0416249 0)
(0.249223 -0.0405481 0)
(0.248367 -0.0393979 0)
(0.247358 -0.0381763 0)
(0.246195 -0.0368865 0)
(0.244882 -0.035533 0)
(0.243425 -0.0341212 0)
(0.241834 -0.0326576 0)
(0.240121 -0.0311491 0)
(0.238305 -0.029603 0)
(0.236405 -0.0280268 0)
(0.234448 -0.0264272 0)
(0.232461 -0.0248101 0)
(0.230475 -0.02318 0)
(0.228522 -0.0215394 0)
(0.226637 -0.0198887 0)
(0.22485 -0.0182256 0)
(0.223192 -0.0165457 0)
(0.221688 -0.0148424 0)
(0.241852 -0.0204187 0)
(0.24149 -0.0199964 0)
(0.241213 -0.0195652 0)
(0.241021 -0.019129 0)
(0.240913 -0.0186834 0)
(0.240889 -0.0182233 0)
(0.240943 -0.0177446 0)
(0.24107 -0.0172433 0)
(0.241263 -0.0167154 0)
(0.241513 -0.016157 0)
(0.24181 -0.0155648 0)
(0.242144 -0.0149357 0)
(0.242503 -0.0142673 0)
(0.242877 -0.0135577 0)
(0.243255 -0.0128059 0)
(0.243625 -0.0120118 0)
(0.243981 -0.0111761 0)
(0.244314 -0.0103006 0)
(0.244619 -0.00938784 0)
(0.244895 -0.00844123 0)
(0.263482 -0.020187 0)
(0.262988 -0.0194211 0)
(0.262458 -0.0186486 0)
(0.261893 -0.017865 0)
(0.261296 -0.0170727 0)
(0.26067 -0.0162745 0)
(0.260017 -0.0154725 0)
(0.259344 -0.0146683 0)
(0.258653 -0.0138637 0)
(0.257952 -0.0130603 0)
(0.257244 -0.0122595 0)
(0.256538 -0.0114622 0)
(0.255837 -0.0106694 0)
(0.255149 -0.00988156 0)
(0.25448 -0.00909891 0)
(0.253834 -0.00832145 0)
(0.253217 -0.00754891 0)
(0.252632 -0.00678079 0)
(0.252083 -0.00601648 0)
(0.251573 -0.00525525 0)
(0.264291 -0.0138743 0)
(0.264289 -0.0134882 0)
(0.264314 -0.0130913 0)
(0.264366 -0.012688 0)
(0.264444 -0.012277 0)
(0.264545 -0.0118567 0)
(0.264668 -0.0114263 0)
(0.264811 -0.0109851 0)
(0.26497 -0.0105326 0)
(0.265144 -0.0100682 0)
(0.265329 -0.00959168 0)
(0.265523 -0.00910269 0)
(0.265724 -0.0086012 0)
(0.265928 -0.00808726 0)
(0.266133 -0.0075611 0)
(0.266338 -0.00702307 0)
(0.266539 -0.00647363 0)
(0.266736 -0.00591339 0)
(0.266928 -0.00534301 0)
(0.267113 -0.00476324 0)
(0.275218 -0.0113108 0)
(0.274921 -0.0108484 0)
(0.274615 -0.0103879 0)
(0.274302 -0.00992634 0)
(0.273982 -0.00946447 0)
(0.273658 -0.00900326 0)
(0.27333 -0.00854326 0)
(0.272999 -0.00808489 0)
(0.272669 -0.00762856 0)
(0.272339 -0.0071746 0)
(0.272013 -0.00672333 0)
(0.271691 -0.00627495 0)
(0.271375 -0.00582966 0)
(0.271067 -0.00538755 0)
(0.270768 -0.00494867 0)
(0.27048 -0.00451303 0)
(0.270204 -0.00408059 0)
(0.269942 -0.00365125 0)
(0.269693 -0.00322492 0)
(0.269459 -0.00280147 0)
(0.277961 -0.00933561 0)
(0.277991 -0.00904677 0)
(0.278031 -0.00875165 0)
(0.278081 -0.00845274 0)
(0.27814 -0.00814957 0)
(0.278207 -0.00784163 0)
(0.278282 -0.00752873 0)
(0.278364 -0.00721077 0)
(0.278451 -0.00688768 0)
(0.278543 -0.00655937 0)
(0.27864 -0.00622584 0)
(0.278739 -0.0058871 0)
(0.278841 -0.00554319 0)
(0.278944 -0.0051942 0)
(0.279048 -0.00484025 0)
(0.279152 -0.00448149 0)
(0.279255 -0.0041181 0)
(0.279357 -0.00375028 0)
(0.279457 -0.00337825 0)
(0.279556 -0.00300227 0)
(0.283946 -0.00734747 0)
(0.283774 -0.00704513 0)
(0.283601 -0.00674477 0)
(0.283426 -0.00644467 0)
(0.283251 -0.00614515 0)
(0.283076 -0.00584662 0)
(0.282901 -0.00554925 0)
(0.282728 -0.00525316 0)
(0.282556 -0.00495847 0)
(0.282386 -0.0046653 0)
(0.28222 -0.00437371 0)
(0.282057 -0.00408379 0)
(0.281898 -0.00379559 0)
(0.281743 -0.00350913 0)
(0.281594 -0.00322444 0)
(0.28145 -0.00294152 0)
(0.281312 -0.00266035 0)
(0.281181 -0.00238092 0)
(0.281057 -0.00210319 0)
(0.280939 -0.00182712 0)
(0.286945 -0.00648486 0)
(0.286963 -0.00627429 0)
(0.286985 -0.00606011 0)
(0.287011 -0.00584367 0)
(0.287041 -0.00562479 0)
(0.287074 -0.00540326 0)
(0.28711 -0.00517904 0)
(0.287149 -0.00495213 0)
(0.287191 -0.00472254 0)
(0.287235 -0.00449027 0)
(0.28728 -0.00425535 0)
(0.287327 -0.00401782 0)
(0.287375 -0.00377771 0)
(0.287424 -0.0035351 0)
(0.287474 -0.00329003 0)
(0.287523 -0.00304261 0)
(0.287573 -0.00279291 0)
(0.287622 -0.00254103 0)
(0.287671 -0.00228707 0)
(0.287719 -0.00203116 0)
(0.290289 -0.00453229 0)
(0.290193 -0.00434817 0)
(0.290098 -0.00416518 0)
(0.290002 -0.00398239 0)
(0.289908 -0.00379993 0)
(0.289814 -0.00361801 0)
(0.289721 -0.00343669 0)
(0.289629 -0.00325602 0)
(0.289539 -0.00307605 0)
(0.289451 -0.00289682 0)
(0.289364 -0.00271836 0)
(0.28928 -0.00254071 0)
(0.289198 -0.00236388 0)
(0.289119 -0.0021879 0)
(0.289043 -0.00201278 0)
(0.288969 -0.00183851 0)
(0.288899 -0.0016651 0)
(0.288833 -0.00149255 0)
(0.28877 -0.00132084 0)
(0.28871 -0.00114996 0)
(0.292425 -0.00414127 0)
(0.292434 -0.00400382 0)
(0.292444 -0.00386432 0)
(0.292457 -0.00372349 0)
(0.292471 -0.00358127 0)
(0.292486 -0.00343755 0)
(0.292503 -0.00329233 0)
(0.292522 -0.00314564 0)
(0.292541 -0.00299748 0)
(0.292561 -0.00284788 0)
(0.292582 -0.00269687 0)
(0.292604 -0.00254446 0)
(0.292626 -0.0023907 0)
(0.292649 -0.00223561 0)
(0.292672 -0.00207925 0)
(0.292696 -0.00192166 0)
(0.292719 -0.00176288 0)
(0.292742 -0.00160297 0)
(0.292766 -0.00144199 0)
(0.292788 -0.00127999 0)
(0.294423 -0.00308058 0)
(0.294372 -0.00295707 0)
(0.294322 -0.00283417 0)
(0.294272 -0.00271138 0)
(0.294223 -0.00258876 0)
(0.294174 -0.00246641 0)
(0.294126 -0.00234437 0)
(0.294079 -0.00222264 0)
(0.294033 -0.00210126 0)
(0.293988 -0.00198024 0)
(0.293944 -0.0018596 0)
(0.293902 -0.00173935 0)
(0.29386 -0.0016195 0)
(0.293821 -0.00150007 0)
(0.293782 -0.00138105 0)
(0.293746 -0.00126246 0)
(0.293711 -0.0011443 0)
(0.293678 -0.00102656 0)
(0.293646 -0.000909236 0)
(0.293617 -0.000792335 0)
(0.296108 -0.00284769 0)
(0.296111 -0.0027509 0)
(0.296116 -0.00265294 0)
(0.296121 -0.00255423 0)
(0.296127 -0.00245472 0)
(0.296134 -0.00235437 0)
(0.296141 -0.00225318 0)
(0.296149 -0.00215118 0)
(0.296158 -0.00204838 0)
(0.296166 -0.00194479 0)
(0.296176 -0.00184043 0)
(0.296185 -0.00173532 0)
(0.296195 -0.00162949 0)
(0.296205 -0.00152294 0)
(0.296215 -0.00141572 0)
(0.296226 -0.00130784 0)
(0.296236 -0.00119933 0)
(0.296246 -0.00109022 0)
(0.296257 -0.000980552 0)
(0.296267 -0.000870346 0)
(0.297331 -0.0018309 0)
(0.297306 -0.00175859 0)
(0.297282 -0.00168654 0)
(0.297258 -0.00161452 0)
(0.297234 -0.00154255 0)
(0.297211 -0.00147067 0)
(0.297188 -0.00139891 0)
(0.297165 -0.00132726 0)
(0.297143 -0.00125575 0)
(0.297122 -0.00118439 0)
(0.297101 -0.00111317 0)
(0.297081 -0.00104212 0)
(0.297061 -0.000971226 0)
(0.297043 -0.000900508 0)
(0.297025 -0.000829965 0)
(0.297007 -0.000759601 0)
(0.296991 -0.000689419 0)
(0.296975 -0.00061942 0)
(0.296961 -0.000549605 0)
(0.296947 -0.000479974 0)
(0.298265 -0.00158318 0)
(0.298267 -0.00152905 0)
(0.29827 -0.00147431 0)
(0.298273 -0.00141915 0)
(0.298276 -0.00136355 0)
(0.298279 -0.00130751 0)
(0.298283 -0.00125101 0)
(0.298287 -0.00119408 0)
(0.298291 -0.00113673 0)
(0.298295 -0.00107896 0)
(0.2983 -0.00102079 0)
(0.298304 -0.000962223 0)
(0.298309 -0.000903279 0)
(0.298313 -0.00084397 0)
(0.298318 -0.000784309 0)
(0.298323 -0.000724312 0)
(0.298328 -0.000663994 0)
(0.298333 -0.000603372 0)
(0.298337 -0.000542462 0)
(0.298342 -0.000481281 0)
(0.298956 -0.0010726 0)
(0.298946 -0.00103054 0)
(0.298936 -0.000988597 0)
(0.298925 -0.000946649 0)
(0.298915 -0.000904708 0)
(0.298906 -0.000862794 0)
(0.298896 -0.000820917 0)
(0.298887 -0.000779082 0)
(0.298877 -0.000737294 0)
(0.298868 -0.000695559 0)
(0.29886 -0.000653882 0)
(0.298851 -0.000612266 0)
(0.298843 -0.000570716 0)
(0.298835 -0.000529235 0)
(0.298827 -0.000487826 0)
(0.29882 -0.000446493 0)
(0.298813 -0.000405236 0)
(0.298806 -0.000364058 0)
(0.2988 -0.000322959 0)
(0.298794 -0.000281942 0)
(0.29952 -0.000864096 0)
(0.299522 -0.00083425 0)
(0.299524 -0.000804098 0)
(0.299527 -0.000773752 0)
(0.299529 -0.000743198 0)
(0.299531 -0.000712427 0)
(0.299534 -0.000681443 0)
(0.299536 -0.000650251 0)
(0.299539 -0.000618857 0)
(0.299541 -0.000587266 0)
(0.299544 -0.000555485 0)
(0.299546 -0.000523518 0)
(0.299549 -0.000491372 0)
(0.299552 -0.000459055 0)
(0.299554 -0.000426572 0)
(0.299556 -0.000393932 0)
(0.299559 -0.000361141 0)
(0.299561 -0.000328207 0)
(0.299564 -0.000295139 0)
(0.299566 -0.000261944 0)
(0.299853 -0.000393961 0)
(0.299849 -0.000378207 0)
(0.299846 -0.000362529 0)
(0.299842 -0.00034687 0)
(0.299839 -0.000331232 0)
(0.299836 -0.000315623 0)
(0.299832 -0.000300046 0)
(0.299829 -0.000284503 0)
(0.299826 -0.000268995 0)
(0.299823 -0.000253524 0)
(0.29982 -0.000238091 0)
(0.299817 -0.000222698 0)
(0.299814 -0.000207344 0)
(0.299811 -0.000192032 0)
(0.299808 -0.00017676 0)
(0.299805 -0.00016153 0)
(0.299803 -0.000146342 0)
(0.299801 -0.000131195 0)
(0.299798 -0.000116089 0)
(0.299796 -0.000101025 0)
(0.29999 -0.000163287 0)
(0.299991 -0.000158031 0)
(0.299993 -0.000152688 0)
(0.299994 -0.000147294 0)
(0.299995 -0.000141841 0)
(0.299997 -0.000136324 0)
(0.299998 -0.000130744 0)
(0.3 -0.000125102 0)
(0.300001 -0.0001194 0)
(0.300002 -0.000113639 0)
(0.300004 -0.000107819 0)
(0.300005 -0.000101944 0)
(0.300006 -9.60146e-05 0)
(0.300008 -9.00323e-05 0)
(0.300009 -8.39993e-05 0)
(0.30001 -7.79175e-05 0)
(0.300011 -7.17891e-05 0)
(0.300012 -6.56162e-05 0)
(0.300013 -5.94015e-05 0)
(0.300014 -5.31468e-05 0)
(0.030024 -0.0327281 0)
(0.0219768 -0.0262549 0)
(0.0162984 -0.0206779 0)