/*--------------------------------*- C++ -*----------------------------------*\
| =========                 |                                                 |
| \\      /  F ield         | OpenFOAM: The Open Source CFD Toolbox           |
|  \\    /   O peration     | Version:  v1806                                 |
|   \\  /    A nd           | Web:      www.OpenFOAM.com                      |
|    \\/     M anipulation  |                                                 |
\*---------------------------------------------------------------------------*/
FoamFile
{
    version     2.0;
    format      ascii;
    class       volScalarField;
    location    "230";
    object      p;
}
// * * * * * * * * * * * * * * * * * * * * * * * * * * * * * * * * * * * * * //

dimensions      [0 2 -2 0 0 0 0];


internalField   nonuniform List<scalar> 
2400
(
0.000337054
0.000336546
0.000335404
0.000333507
0.000330636
0.000326484
0.000320672
0.000312773
0.000302325
0.000288858
0.000271916
0.0002511
0.000226097
0.000196748
0.000163058
0.000125293
8.39458e-05
3.99298e-05
-5.9993e-06
-5.53896e-05
0.00101162
0.00101023
0.00100708
0.00100183
0.000993824
0.000982191
0.000965842
0.000943545
0.000913961
0.000875712
0.000827452
0.000767991
0.000696387
0.000612113
0.000515138
0.000406112
0.000286317
0.000157762
2.27743e-05
-0.000115045
0.00168747
0.00168537
0.00168065
0.00167267
0.00166039
0.00164233
0.00161669
0.00158139
0.00153418
0.00147268
0.00139456
0.0012977
0.00118037
0.00104149
0.000880827
0.000699239
0.000498722
0.00028268
5.56564e-05
-0.000175997
0.00236524
0.00236272
0.00235702
0.00234725
0.00233192
0.00230895
0.00227577
0.0022294
0.00216657
0.00208379
0.0019776
0.00184474
0.00168246
0.00148892
0.0012634
0.00100685
0.00072189
0.000413329
8.76806e-05
-0.000246866
0.00304529
0.00304275
0.00303688
0.00302659
0.00300992
0.00298414
0.00294586
0.00289116
0.00281559
0.00271445
0.00258286
0.00241623
0.00221044
0.00196256
0.00167106
0.00133666
0.000962436
0.000554504
0.000121435
-0.000325563
0.00372762
0.00372553
0.00372057
0.00371138
0.00369556
0.0036697
0.00362953
0.00357009
0.00348566
0.00337009
0.00321686
0.00301965
0.00277258
0.00247115
0.00211251
0.00169678
0.00122712
0.000710934
0.000159224
-0.00041297
0.00441176
0.00441072
0.00440793
0.00440186
0.00438958
0.00436701
0.00432896
0.00426934
0.00418101
0.00405619
0.00388631
0.00366301
0.00337795
0.00302455
0.00259784
0.00209677
0.00152404
0.000888298
0.00020326
-0.000511373
0.00509666
0.00509738
0.00509827
0.00509765
0.00509212
0.0050769
0.00504583
0.00499167
0.00490568
0.00477824
0.00459832
0.00435507
0.00403684
0.00363434
0.0031392
0.00254859
0.0018636
0.00109403
0.000256457
-0.000623538
0.00578065
0.0057839
0.00579019
0.00579773
0.00580264
0.00579949
0.00578118
0.00573928
0.00566329
0.00554163
0.00536027
0.00510541
0.004761
0.00431426
0.00375152
0.00306743
0.00225937
0.00133822
0.000322985
-0.000753075
0.00646126
0.00646793
0.00648151
0.00650019
0.00651971
0.00653403
0.00653516
0.00651356
0.00645688
0.00635142
0.00617966
0.00592444
0.00556376
0.00508066
0.00445316
0.00367285
0.00272924
0.00163492
0.00040899
-0.000904801
0.00713523
0.00714623
0.00716914
0.00720221
0.00724087
0.00727864
0.00730679
0.00731477
0.00728844
0.00721195
0.00706381
0.00682309
0.00646011
0.00595296
0.0052669
0.00439034
0.00329717
0.00200425
0.000523608
-0.00108485
0.0077984
0.0078147
0.00784904
0.00789985
0.00796246
0.0080301
0.00809359
0.00814159
0.00815849
0.00812624
0.00801928
0.00781236
0.00746656
0.00695384
0.00622103
0.00525336
0.00399557
0.00247556
0.00068
-0.00130057
0.00844571
0.00846824
0.00851608
0.008588
0.00867943
0.00878356
0.00889125
0.00899066
0.00906532
0.00909511
0.00905094
0.00890235
0.00860048
0.00810897
0.00735059
0.00630584
0.00486992
0.00309327
0.000896751
-0.00155994
0.00907123
0.00910084
0.00916412
0.00926028
0.00938519
0.00953233
0.00969319
0.0098559
0.0100042
0.0101161
0.0101606
0.0101007
0.00987894
0.00944571
0.00869788
0.00760372
0.00598629
0.00392769
0.00120446
-0.00186751
0.00966821
0.00970562
0.00978595
0.00990906
0.0100716
0.0102677
0.0104902
0.010728
0.0109663
0.0111821
0.0113449
0.01141
0.0113161
0.010991
0.0103119
0.00921299
0.00743921
0.00508815
0.00166989
-0.00220455
0.0102292
0.0102749
0.0103735
0.0105255
0.0107288
0.0109787
0.0112702
0.0115936
0.0119378
0.0122793
0.0125926
0.0128248
0.0129187
0.0127682
0.0122471
0.011207
0.00935248
0.00671422
0.00244575
-0.00245873
0.0107464
0.0108006
0.0109179
0.0110998
0.0113457
0.0116524
0.0120179
0.0124353
0.0128985
0.0133864
0.0138815
0.0143264
0.0146775
0.0147894
0.0145573
0.0136748
0.0118848
0.00892562
0.00378195
-0.00237531
0.0112116
0.0112742
0.0114099
0.0116216
0.0119099
0.0122741
0.0127156
0.0132315
0.0138221
0.014472
0.015175
0.0158775
0.0165563
0.0170408
0.0172695
0.0167345
0.0152842
0.0118572
0.00589537
-0.00207335
0.0116169
0.0116873
0.0118403
0.0120799
0.0124085
0.0128278
0.0133432
0.0139568
0.014676
0.015495
0.0164207
0.0174154
0.0184795
0.0194567
0.0203334
0.0204857
0.0199125
0.016104
0.00913293
-0.00579219
0.0119551
0.0120321
0.0122002
0.0124644
0.0128286
0.0132973
0.0138795
0.0145832
0.015423
0.0164053
0.0175507
0.0188481
0.0203238
0.0218823
0.0235538
0.0248404
0.0258545
0.0233897
0.0181005
-0.0162852
-0.000100508
-0.000125997
-0.000144985
-0.000161446
-0.000177767
-0.000194036
-0.000209816
-0.000224761
-0.000238739
-0.000251013
-0.000207988
-0.000259224
-0.000310495
-0.000361208
-0.000410896
-0.000459265
-0.000506089
-0.00055105
-0.000594338
-0.000634999
-0.000337302
-0.000428996
-0.000519377
-0.000607804
-0.000693966
-0.00077764
-0.000858646
-0.000936625
-0.00101182
-0.00108273
-0.000482774
-0.000615965
-0.000745864
-0.00087267
-0.000996537
-0.00111713
-0.00123405
-0.00134667
-0.00145529
-0.0015578
-0.000641323
-0.0008194
-0.000993076
-0.0011627
-0.00132848
-0.00148989
-0.00164634
-0.00179697
-0.00194227
-0.00207928
-0.000818328
-0.00104705
-0.00126998
-0.00148747
-0.00169978
-0.00190624
-0.00210608
-0.00229818
-0.00248336
-0.00265734
-0.00101953
-0.0013062
-0.00158506
-0.00185655
-0.00212106
-0.00237773
-0.00262557
-0.00286305
-0.00309166
-0.00330499
-0.00125195
-0.00160622
-0.00194983
-0.00228333
-0.00260728
-0.0029205
-0.00322176
-0.00350889
-0.0037845
-0.00403899
-0.00152541
-0.00196039
-0.00238064
-0.0027867
-0.00317935
-0.00355694
-0.00391786
-0.0042591
-0.00458495
-0.00488125
-0.00185389
-0.0023878
-0.00290103
-0.00339396
-0.00386744
-0.00431915
-0.00474698
-0.0051467
-0.00552505
-0.0058618
-0.00225713
-0.00291608
-0.00354576
-0.00414554
-0.00471622
-0.00525446
-0.00575752
-0.00621968
-0.0066508
-0.00702348
-0.00276325
-0.00358628
-0.00436753
-0.00510306
-0.00579317
-0.00643365
-0.00702121
-0.00754846
-0.00802896
-0.00842819
-0.0034138
-0.00446248
-0.00545064
-0.00636462
-0.00720416
-0.00796577
-0.00864662
-0.009238
-0.00975716
-0.0101651
-0.00427658
-0.00565288
-0.00693506
-0.00808965
-0.00911866
-0.0100236
-0.0108038
-0.0114503
-0.0119832
-0.0123663
-0.00548581
-0.00736538
-0.00906251
-0.0105304
-0.0117932
-0.0128648
-0.0137448
-0.0144237
-0.0149224
-0.015221
-0.00734621
-0.0100679
-0.0123268
-0.0141434
-0.0156448
-0.0168764
-0.0178265
-0.0184805
-0.0188572
-0.0189713
-0.0104085
-0.0146568
-0.0177234
-0.0198749
-0.0215219
-0.022796
-0.0236776
-0.0241523
-0.024241
-0.0240112
-0.0152317
-0.0217286
-0.0258625
-0.0283835
-0.0300507
-0.0311174
-0.0316455
-0.0317
-0.0313352
-0.030654
-0.0245465
-0.0315729
-0.0354195
-0.0377923
-0.0390382
-0.0392707
-0.0388191
-0.0380304
-0.0371106
-0.0361253
-0.0594957
-0.0562445
-0.0511539
-0.0494557
-0.0485543
-0.0471736
-0.045397
-0.0434997
-0.0416665
-0.0400245
-0.000300581
-0.000334002
-0.000377122
-0.000250556
-3.1921e-05
0.000136432
0.000131148
3.56874e-05
-7.5457e-05
-0.000124654
-0.000150514
-4.69554e-05
0.000220765
0.000450429
0.000268706
-1.05623e-05
-7.7914e-05
-0.000254583
-0.000358252
-8.52882e-05
-0.000864744
-0.000949099
-0.0010082
-0.000752176
-0.000243461
0.000259491
0.000464791
0.000273533
-0.000116027
-0.000342668
-0.000392122
-0.000166713
0.000226178
0.000601945
0.000651266
0.000119179
-5.99663e-05
-0.000595468
-0.000817468
-0.000220083
-0.0014626
-0.00159116
-0.00171422
-0.00129145
-0.000494199
0.000384581
0.000805613
0.000500955
-0.000177273
-0.000589133
-0.000661626
-0.000356046
0.000196534
0.000924634
0.00101652
0.00024322
-5.11921e-05
-0.000946803
-0.0012813
-0.000367096
-0.00210953
-0.00227105
-0.00247336
-0.00187388
-0.000755724
0.000513298
0.00114223
0.000709891
-0.00026897
-0.000885152
-0.000991542
-0.000576483
0.00017703
0.00115441
0.00131872
0.0003427
-5.41902e-05
-0.00131158
-0.00176187
-0.000516171
-0.00281958
-0.00299328
-0.00330489
-0.00251124
-0.00104444
0.0006338
0.00147925
0.000900939
-0.000394823
-0.00124548
-0.00138929
-0.000829736
0.000122556
0.00130792
0.00155514
0.000417957
-6.76262e-05
-0.0016823
-0.00223558
-0.000658508
-0.00360745
-0.00376523
-0.00423182
-0.00322398
-0.00137721
0.000742072
0.00181989
0.00106643
-0.000563744
-0.00168496
-0.0018675
-0.0011376
2.35122e-05
0.00139894
0.00171934
0.0004625
-9.83717e-05
-0.00205222
-0.0026865
-0.000793763
-0.00448981
-0.00459557
-0.00527912
-0.00403384
-0.00176669
0.000831416
0.00216214
0.00119682
-0.000781067
-0.00221213
-0.0024387
-0.0015111
-0.000120159
0.00142481
0.00180575
0.000468698
-0.000154658
-0.00241359
-0.00310329
-0.000920503
-0.00548481
-0.00549467
-0.0064766
-0.00496517
-0.00222663
0.000889507
0.00249746
0.00128539
-0.00104404
-0.00282291
-0.00310476
-0.00195396
-0.000313108
0.00138416
0.00181245
0.000430276
-0.000243022
-0.0027578
-0.00347471
-0.00103551
-0.00661132
-0.00647622
-0.00786107
-0.00604774
-0.00277279
0.000899466
0.00280497
0.00132747
-0.00134101
-0.00349426
-0.00385307
-0.0024662
-0.000560427
0.00127744
0.00174056
0.000343369
-0.000366746
-0.00307559
-0.00379046
-0.00113561
-0.0078877
-0.00755938
-0.00947842
-0.00731824
-0.00342276
0.000839796
0.00304442
0.00131167
-0.00165664
-0.00417961
-0.00465417
-0.00304147
-0.000864728
0.00110581
0.00159349
0.000206961
-0.000525233
-0.00335734
-0.00404232
-0.00121806
-0.00932991
-0.00877112
-0.011385
-0.00882127
-0.00419648
0.000683571
0.00315279
0.00120527
-0.00198692
-0.00481758
-0.00546206
-0.00366502
-0.00122524
0.000871315
0.00137633
2.25726e-05
-0.000714437
-0.00359371
-0.00422394
-0.00128039
-0.0109478
-0.0101483
-0.0136476
-0.0106086
-0.00511669
0.000399207
0.00304938
0.000945186
-0.00235302
-0.00535121
-0.00622073
-0.00431456
-0.00163712
0.000577252
0.00109422
-0.000206538
-0.000928008
-0.00377648
-0.00433076
-0.0013206
-0.0127374
-0.0117281
-0.0163362
-0.0127348
-0.00620758
-4.65802e-05
0.00265467
0.00045019
-0.00279576
-0.00574916
-0.00687617
-0.00496313
-0.0020911
0.000228727
0.000755515
-0.000476333
-0.00115861
-0.00389924
-0.00436018
-0.00133731
-0.0146748
-0.0135109
-0.019465
-0.0152392
-0.0074903
-0.000681224
0.00193084
-0.000343815
-0.00335579
-0.00601619
-0.00738887
-0.00558285
-0.00257403
-0.000167211
0.000365802
-0.000782717
-0.00139902
-0.00395794
-0.00431171
-0.00132994
-0.0167089
-0.0154153
-0.022948
-0.0181075
-0.00897228
-0.001518
0.000896161
-0.00145064
-0.00404977
-0.00618535
-0.00774191
-0.00614855
-0.00307012
-0.000601837
-6.82111e-05
-0.00112128
-0.00164262
-0.00395121
-0.00418477
-0.00129873
-0.0187996
-0.0171607
-0.0264341
-0.0212189
-0.0106309
-0.00255476
-0.000398621
-0.00283065
-0.00486029
-0.00630264
-0.00794022
-0.00664044
-0.00356244
-0.00106488
-0.000539222
-0.00148747
-0.00188379
-0.00388042
-0.00398707
-0.00124477
-0.0210747
-0.0182692
-0.0291915
-0.0242883
-0.0123973
-0.00376922
-0.00187543
-0.00440055
-0.00574792
-0.00640763
-0.00800314
-0.00704531
-0.00403442
-0.00154474
-0.00103912
-0.00187654
-0.00211843
-0.0037489
-0.00372299
-0.00116976
-0.0239546
-0.0187172
-0.0304743
-0.0269029
-0.0141486
-0.00511347
-0.00344766
-0.00605723
-0.00666571
-0.00652148
-0.00795826
-0.00735621
-0.00447103
-0.00202918
-0.00155912
-0.00228268
-0.00234405
-0.00356179
-0.00339985
-0.0010759
-0.0276072
-0.0193595
-0.0302849
-0.0287305
-0.0157386
-0.00651685
-0.00503549
-0.00770457
-0.00756433
-0.00664329
-0.00783309
-0.00757149
-0.00485949
-0.00250598
-0.00208959
-0.00269879
-0.00255712
-0.00332767
-0.00302611
-0.000965702
-0.0321109
-0.0213131
-0.0294924
-0.0296553
-0.0170508
-0.00789705
-0.00657345
-0.00927142
-0.00839489
-0.00675214
-0.00765225
-0.00769401
-0.0051895
-0.00296332
-0.00262055
-0.00311825
-0.00274929
-0.00305924
-0.00261246
-0.000841488
-0.0353877
-0.0239946
-0.0289009
-0.0296406
-0.0178548
-0.00896771
-0.00778174
-0.0104772
-0.00899769
-0.00681019
-0.00746844
-0.00772646
-0.00541114
-0.00331977
-0.00305755
-0.00346611
-0.00288549
-0.00281538
-0.00224593
-0.00072849
-0.0380856
-0.0265839
-0.0286143
-0.0291244
-0.018325
-0.00976071
-0.0086962
-0.011364
-0.00941955
-0.0068369
-0.00730439
-0.0077153
-0.00556229
-0.00359094
-0.0033994
-0.00373618
-0.00298515
-0.00260951
-0.00194378
-0.000637822
-0.0410444
-0.0294566
-0.0284325
-0.0280268
-0.0186042
-0.0104659
-0.00955131
-0.0121638
-0.00977577
-0.00683722
-0.00712387
-0.00766578
-0.00568421
-0.00384422
-0.00372958
-0.00399617
-0.00307565
-0.0023952
-0.00163533
-0.000546165
-0.0440187
-0.0324783
-0.028216
-0.0263333
-0.0186819
-0.0110634
-0.0103499
-0.0128722
-0.0100597
-0.0068053
-0.00692641
-0.00757871
-0.00577226
-0.00407576
-0.00404612
-0.00424431
-0.00315596
-0.00217507
-0.00132341
-0.000452532
-0.0467476
-0.0355073
-0.0278174
-0.0241076
-0.0185513
-0.011542
-0.0110984
-0.0134847
-0.010266
-0.00673623
-0.00671043
-0.00745467
-0.00582473
-0.00428379
-0.00434672
-0.00447813
-0.00322516
-0.00195153
-0.00101084
-0.000357513
-0.049052
-0.0383808
-0.0271185
-0.0214771
-0.0182022
-0.0118966
-0.0118045
-0.013998
-0.0103905
-0.00662619
-0.00647404
-0.00729412
-0.00584178
-0.0044671
-0.00462881
-0.00469516
-0.00328234
-0.00172684
-0.000700392
-0.000262072
-0.0508361
-0.040889
-0.0260178
-0.0185796
-0.0176181
-0.0121276
-0.012477
-0.0144103
-0.0104297
-0.00647216
-0.00621565
-0.00709763
-0.00582393
-0.00462459
-0.00489013
-0.00489311
-0.00332649
-0.00150292
-0.000394753
-0.000166931
-0.052056
-0.042804
-0.0244375
-0.0155799
-0.0167796
-0.0122417
-0.0131236
-0.0147196
-0.0103821
-0.00627194
-0.00593405
-0.006866
-0.00577179
-0.00475546
-0.0051288
-0.00506982
-0.00335667
-0.00128124
-9.64114e-05
-7.26476e-05
-0.0527772
-0.0439788
-0.0223199
-0.0125294
-0.0156556
-0.0122528
-0.0137471
-0.0149233
-0.0102508
-0.00602619
-0.005627
-0.0066001
-0.00568628
-0.00485937
-0.0053432
-0.00522327
-0.00337288
-0.00106364
0.000192463
2.05478e-05
-0.0531988
-0.0443921
-0.0196861
-0.00942708
-0.0142397
-0.0121793
-0.0143476
-0.0150206
-0.0100457
-0.00574074
-0.00529102
-0.00629897
-0.0055686
-0.0049365
-0.00553133
-0.00535187
-0.00337638
-0.000854321
0.000469322
0.000113556
-0.0526896
-0.0437074
-0.0149319
-0.00431928
-0.0115091
-0.0119739
-0.0152757
-0.0150151
-0.00960437
-0.00521736
-0.00470445
-0.00575532
-0.00532335
-0.00501873
-0.0057911
-0.00552094
-0.00336183
-0.000534336
0.000893916
0.000262513
-0.0464536
-0.0366977
-0.00841511
0.00221743
-0.00739492
-0.0116607
-0.0160292
-0.0144155
-0.00865332
-0.00431034
-0.00377777
-0.00489049
-0.00481174
-0.00499917
-0.00603649
-0.0056299
-0.00327014
-0.000137446
0.00140498
0.000428125
-0.0368328
-0.0284477
-0.00415859
0.00329359
-0.00464996
-0.0115256
-0.0159217
-0.0131896
-0.0074259
-0.00328686
-0.00275328
-0.00391834
-0.00417029
-0.00487307
-0.00615971
-0.00559406
-0.00309409
0.000203839
0.00180317
0.00055763
-0.027791
-0.021973
-0.0020819
0.0045562
-0.00343047
-0.0112641
-0.0147706
-0.0114462
-0.00604751
-0.00223533
-0.00167852
-0.00287443
-0.00344799
-0.00465555
-0.00615585
-0.00541182
-0.002835
0.00048529
0.00208883
0.000652214
-0.0217584
-0.0171858
-0.00156193
0.00367447
-0.00309136
-0.0103803
-0.0126995
-0.00941451
-0.00466691
-0.00124345
-0.000614202
-0.00180989
-0.00268506
-0.00436023
-0.00602397
-0.0050883
-0.00249999
0.000707914
0.00226056
0.000711664
-0.0167034
-0.013545
-0.00162744
0.00244925
-0.00276504
-0.00876346
-0.0102353
-0.00739235
-0.00341649
-0.000384859
0.000368159
-0.00079224
-0.00192905
-0.00400061
-0.00575376
-0.00463484
-0.00210463
0.000877342
0.00232548
0.000737743
-0.0131039
-0.0108274
-0.00193788
0.00138881
-0.00228336
-0.00692536
-0.00792635
-0.0056073
-0.0023689
0.000296247
0.00119187
9.08792e-05
-0.00124102
-0.00358203
-0.00532923
-0.00407189
-0.00167278
0.00100224
0.00229897
0.000735291
-0.010303
-0.00870712
-0.00210998
0.000656428
-0.00184171
-0.00531672
-0.00600983
-0.00415287
-0.00153999
0.00078681
0.00178966
0.000759953
-0.000675856
-0.00310163
-0.00474333
-0.00343086
-0.00123452
0.00109168
0.00220304
0.000712034
-0.00817588
-0.00707552
-0.00225899
0.000139921
-0.00152442
-0.00405988
-0.00453329
-0.00302974
-0.000913379
0.00109465
0.00212311
0.0011827
-0.000254351
-0.00256085
-0.00401733
-0.00275403
-0.000821502
0.00115315
0.00206226
0.000677246
-0.00653553
-0.00579373
-0.00229086
-0.000229821
-0.001312
-0.00312786
-0.00342758
-0.00218767
-0.000459252
0.00124453
0.00222168
0.00139073
4.24527e-05
-0.00198551
-0.00321072
-0.00209021
-0.000460585
0.00119073
0.00189883
0.000639788
-0.0052535
-0.00477585
-0.00222593
-0.000485867
-0.0011548
-0.0024351
-0.00260154
-0.00156801
-0.000146483
0.00127254
0.00214748
0.00144958
0.000247044
-0.00143027
-0.00241216
-0.00148607
-0.00016865
0.001205
0.00172877
0.000605704
-0.00423436
-0.00394412
-0.00208768
-0.000644318
-0.00102268
-0.0019108
-0.00198064
-0.00111745
5.3899e-05
0.00121541
0.00196631
0.00141371
0.000379179
-0.000953224
-0.00170735
-0.000975579
4.89131e-05
0.00119443
0.0015616
0.000576504
-0.00341094
-0.00325167
-0.00189766
-0.000720378
-0.000900716
-0.0015048
-0.00150955
-0.000792359
0.000168217
0.00110414
0.00172998
0.0013142
0.000448286
-0.000584671
-0.00113937
-0.00057465
0.000196242
0.00115609
0.00139864
0.000549057
-0.00273397
-0.00266023
-0.00167324
-0.000729708
-0.000781686
-0.00118253
-0.00114788
-0.000558587
0.000220145
0.000962893
0.00147233
0.0011696
0.000462845
-0.000326443
-0.000716386
-0.000281902
0.00028289
0.00108729
0.00123632
0.000517407
-0.0021662
-0.00214473
-0.00142848
-0.000687113
-0.000662573
-0.000920404
-0.000866151
-0.000390158
0.000229765
0.000809158
0.0012136
0.000996796
0.000435862
-0.00015938
-0.000421401
-8.52129e-05
0.000319778
0.000987364
0.00107045
0.00047524
-0.00167961
-0.00168673
-0.00117307
-0.000605636
-0.000542559
-0.000701976
-0.000642734
-0.000267653
0.000212909
0.000654017
0.000964842
0.000810639
0.000380565
-5.99579e-05
-0.000228035
3.18828e-05
0.000317022
0.00085858
0.000897978
0.00041819
-0.00125254
-0.00127188
-0.000913256
-0.000496184
-0.00042178
-0.000515555
-0.000461733
-0.000177483
0.000180432
0.000503806
0.000730574
0.00062156
0.000307221
-8.92211e-06
-0.000110457
8.88824e-05
0.000283905
0.000705233
0.000717047
0.000344996
-0.00086832
-0.000888835
-0.000652936
-0.000368022
-0.000301016
-0.000351864
-0.000311281
-0.000109643
0.000137377
0.00035847
0.000509296
0.000434429
0.000223109
1.01105e-05
-4.82874e-05
0.000101677
0.000231548
0.000532785
0.000525862
0.00025717
-0.000511498
-0.000527701
-0.000394494
-0.000229651
-0.000182512
-0.000205745
-0.000173829
-5.02096e-05
9.14432e-05
0.000215194
0.000295974
0.000246338
0.000129972
3.88084e-06
-1.67783e-05
5.94652e-05
0.000151113
0.000339555
0.000319566
0.000151563
-0.000172616
-0.000178254
-0.000136635
-8.56328e-05
-6.68871e-05
-7.26567e-05
-7.50738e-05
3.38336e-06
6.03289e-05
8.78914e-05
9.68599e-05
5.52841e-05
2.78495e-05
-2.27331e-05
-1.58456e-05
9.25125e-05
0.000114918
0.00020871
0.000125062
2.57813e-05
-0.0797315
-0.0768285
-0.0672732
-0.0623189
-0.0608072
-0.0601997
-0.0596969
-0.0592384
-0.0588399
-0.0584028
-0.01862
-0.0245467
-0.0292724
-0.0335716
-0.0375721
-0.0409744
-0.0435579
-0.0453034
-0.0462986
-0.0466764
-0.0184555
-0.0233004
-0.0268
-0.0292388
-0.0311514
-0.0327597
-0.0340671
-0.0350414
-0.0356941
-0.0360508
-0.0123099
-0.0145784
-0.016555
-0.0182698
-0.0198176
-0.0212296
-0.0224828
-0.0235419
-0.0243972
-0.0250408
-0.00940239
-0.0109921
-0.0125169
-0.0139185
-0.0151889
-0.0163293
-0.0173352
-0.0181977
-0.0189137
-0.0194813
-0.00756321
-0.00867401
-0.00971528
-0.0106737
-0.0115541
-0.0123576
-0.0130806
-0.0137186
-0.0142684
-0.0147336
-0.00611467
-0.00690344
-0.00764622
-0.00834341
-0.00899926
-0.00961148
-0.010174
-0.0106819
-0.0111287
-0.0115198
-0.00497526
-0.00556071
-0.00611662
-0.00664252
-0.00713981
-0.00760606
-0.00803655
-0.00842837
-0.00877526
-0.00908506
-0.0040698
-0.00451485
-0.00493789
-0.00533885
-0.00571879
-0.00607627
-0.00640808
-0.00671253
-0.00698413
-0.0072308
-0.00333749
-0.00368089
-0.00400739
-0.00431738
-0.00461175
-0.00488949
-0.00514823
-0.00538685
-0.00560074
-0.00579706
-0.00273711
-0.00300508
-0.00326003
-0.0035024
-0.00373283
-0.00395054
-0.00415382
-0.00434194
-0.00451128
-0.00466794
-0.00223987
-0.00245059
-0.00265118
-0.00284204
-0.00302359
-0.00319527
-0.00335584
-0.00350482
-0.00363944
-0.00376456
-0.00182421
-0.00199044
-0.00214876
-0.00229947
-0.00244289
-0.0025786
-0.0027057
-0.00282385
-0.00293099
-0.00303085
-0.0014731
-0.00160397
-0.00172865
-0.00184739
-0.00196041
-0.00206742
-0.00216776
-0.00226117
-0.00234618
-0.00242551
-0.00117284
-0.00127494
-0.00137223
-0.00146492
-0.00155317
-0.00163676
-0.00171521
-0.00178833
-0.00185509
-0.00191739
-0.000912277
-0.000990354
-0.00106476
-0.00113567
-0.00120322
-0.00126722
-0.00132734
-0.00138342
-0.00143478
-0.00148265
-0.000682092
-0.000739713
-0.00079452
-0.000846702
-0.000896388
-0.000943471
-0.000987722
-0.00102902
-0.00106694
-0.00110222
-0.000473348
-0.000513028
-0.000550974
-0.00058712
-0.000621466
-0.000653944
-0.000684431
-0.000712847
-0.000738948
-0.00076307
-0.000279562
-0.000301193
-0.000322467
-0.0003431
-0.00036281
-0.000381474
-0.000399023
-0.000415416
-0.000430586
-0.000444667
-0.000106745
-0.000116981
-0.000124458
-0.000130604
-0.000136464
-0.000142159
-0.000147498
-0.000152323
-0.000156527
-0.000160014
0.0118507
0.0119173
0.012061
0.0122858
0.0125947
0.0129908
0.01348
0.0140667
0.0147598
0.015558
0.0164716
0.0174702
0.0185605
0.0195856
0.0205436
0.0206693
0.0200128
0.0140063
0.00288128
-0.0384444
0.011313
0.0113656
0.0114785
0.0116538
0.0118921
0.0121923
0.0125542
0.0129735
0.0134476
0.0139587
0.014495
0.0149962
0.0154289
0.0156023
0.0154416
0.0143779
0.0123234
0.00820982
0.00190765
-0.00663024
0.0106648
0.0107024
0.0107827
0.0109061
0.0110707
0.0112722
0.0115052
0.0117597
0.012024
0.0122724
0.0124783
0.0125792
0.0125177
0.0121516
0.0113677
0.0099144
0.00756799
0.00404723
-0.00167347
-0.00942218
0.00993734
0.00996057
0.0100096
0.0100835
0.0101786
0.0102885
0.0104048
0.0105143
0.0106004
0.0106364
0.0105893
0.0104072
0.0100271
0.00936098
0.00829598
0.00672154
0.00439314
0.00127816
-0.00311618
-0.00816569
0.00916073
0.00917107
0.00919231
0.00922259
0.00925734
0.00928924
0.00930838
0.00930113
0.0092494
0.00912902
0.00890792
0.00854643
0.00799109
0.0071884
0.00605084
0.00452826
0.00248742
-3.64129e-05
-0.00317274
-0.00668077
0.00836175
0.00836137
0.00835964
0.00835414
0.00834007
0.00831018
0.00825458
0.00816048
0.00801114
0.0077861
0.00745879
0.0070003
0.00637161
0.00553818
0.00444709
0.00307472
0.00136663
-0.000653837
-0.00300756
-0.00560432
0.00756274
0.00755405
0.00753459
0.00750175
0.00745099
0.00737572
0.00726705
0.00711385
0.00690207
0.00661552
0.00623425
0.00573732
0.00509864
0.00429612
0.0033017
0.00210332
0.000683454
-0.000942419
-0.00275804
-0.0047034
0.00678105
0.0067664
0.00673431
0.0066822
0.00660611
0.00650044
0.00635776
0.00616897
0.00592313
0.00560793
0.005209
0.00471168
0.0040996
0.00335936
0.00247744
0.00144914
0.000273241
-0.00103503
-0.00245067
-0.00392785
0.00602917
0.00601068
0.0059705
0.00590626
0.0058147
0.00569133
0.00553029
0.00532455
0.00506585
0.00474518
0.0043526
0.0038784
0.0033129
0.00264873
0.00188052
0.00100853
3.80922e-05
-0.00101582
-0.00213025
-0.00327167
0.00531519
0.00529465
0.00525021
0.00517978
0.00508083
0.00494993
0.00478269
0.00457382
0.00431733
0.00400689
0.00363597
0.00319852
0.00268928
0.00210489
0.00144436
0.000710703
-8.87209e-05
-0.000940475
-0.00182576
-0.00271976
0.00464347
0.00462232
0.00457669
0.00450481
0.00440477
0.0042741
0.00410959
0.00390742
0.00366345
0.00337344
0.00303333
0.00263968
0.00218999
0.00168342
0.00112122
0.000507584
-0.000150024
-0.000840112
-0.00154767
-0.002254
0.00401539
0.00399474
0.00395032
0.00388058
0.00378415
0.00365932
0.00350386
0.00331515
0.00309045
0.00282708
0.0025227
0.00217562
0.00178505
0.0013516
0.000877532
0.000367336
-0.000172167
-0.000731413
-0.00129854
-0.0018594
0.00343015
0.00341082
0.0033693
0.00330429
0.00321481
0.00309975
0.00295766
0.00278685
0.00258556
0.00235226
0.00208575
0.00178547
0.00145162
0.00108555
0.00068989
0.000268905
-0.000171474
-0.000623455
-0.00107775
-0.00152367
0.00288516
0.00286771
0.00283028
0.00277177
0.00269154
0.00258892
0.00246303
0.00231282
0.00213729
0.00193564
0.00170743
0.00145275
0.00117235
0.000867856
0.000541895
0.000198255
-0.000158088
-0.000520899
-0.00088297
-0.00123624
0.00237657
0.00236139
0.00232884
0.00227804
0.00220859
0.00212012
0.00201215
0.0018841
0.00173544
0.00156587
0.0013754
0.00116446
0.000934028
0.00068575
0.000422008
0.000146019
-0.000138169
-0.000425661
-0.000710932
-0.00098792
0.00189971
0.00188704
0.0018599
0.00181759
0.00175987
0.0016866
0.00159754
0.00149242
0.00137102
0.00123331
0.00107953
0.000910277
0.000726531
0.000529783
0.000322059
0.000105976
-0.000115281
-0.000337966
-0.000557939
-0.000770718
0.00144936
0.00143936
0.00141794
0.00138461
0.00133921
0.00128174
0.00121211
0.00113022
0.00103603
0.000929661
0.000811431
0.000681918
0.000542001
0.000392911
0.000236256
7.40492e-05
-9.13065e-05
-0.000257036
-0.000420136
-0.000577497
0.00101995
0.0010127
0.000997212
0.000973125
0.000940391
0.000899038
0.000849067
0.000790468
0.000723285
0.00064767
0.000563924
0.000472523
0.00037415
0.000269718
0.000160385
4.75663e-05
-6.7078e-05
-0.000181625
-0.000293943
-0.000401818
0.000605716
0.00060128
0.000591805
0.000577112
0.000557197
0.0005321
0.000501848
0.000466462
0.000425997
0.000380581
0.000330429
0.000275858
0.000217301
0.000155326
9.06376e-05
2.40758e-05
-4.34133e-05
-0.000110802
-0.000176897
-0.000239815
0.000200778
0.00019919
0.000195845
0.000190705
0.000183782
0.000175098
0.000164669
0.000152513
0.000138657
0.000123149
0.000106065
8.752e-05
6.7667e-05
4.67065e-05
2.48837e-05
2.50701e-06
-2.00689e-05
-4.24589e-05
-6.46095e-05
-8.76634e-05
0.0121759
0.0122569
0.012435
0.0127157
0.0131039
0.013606
0.0142341
0.0150007
0.0159264
0.0170269
0.0183361
0.0198653
0.0216678
0.0237107
0.0260746
0.0285052
0.0311685
0.0327115
0.0349891
0.0194185
0.0123178
0.0124013
0.0125857
0.0128769
0.0132803
0.0138039
0.0144619
0.0152699
0.0162524
0.017433
0.0188537
0.020545
0.0225772
0.0249708
0.0278359
0.0310944
0.0348812
0.0385539
0.0417746
0.0395567
0.0124236
0.0125089
0.0126977
0.0129963
0.0134106
0.0139497
0.0146293
0.0154678
0.0164927
0.0177341
0.0192406
0.021059
0.0232735
0.0259482
0.0292152
0.0331108
0.037738
0.0427768
0.0474454
0.0499794
0.0124927
0.012579
0.0127702
0.0130729
0.0134931
0.0140411
0.0147333
0.0155899
0.0166408
0.0179203
0.0194817
0.0213835
0.0237197
0.0265838
0.030123
0.0344394
0.0396148
0.0454733
0.0509767
0.055347
0.0125247
0.0126111
0.0128025
0.0131057
0.0135269
0.0140766
0.0147718
0.0156333
0.0166921
0.0179845
0.0195662
0.0215013
0.023889
0.0268373
0.0305015
0.0350138
0.0404454
0.0466678
0.0525207
0.0575235
0.0125194
0.012605
0.0127946
0.0130947
0.0135117
0.0140558
0.0147439
0.0155967
0.0166446
0.0179236
0.019489
0.0214041
0.0237681
0.0266883
0.0303212
0.0347996
0.0401971
0.0463866
0.0521865
0.0571552
0.0124774
0.0125612
0.0127467
0.0130404
0.013448
0.0139794
0.0146505
0.0154809
0.0164993
0.0177388
0.0192516
0.0210935
0.0233586
0.0261374
0.0295817
0.0337928
0.0388597
0.0446109
0.0499478
0.054202
0.0123993
0.0124805
0.01266
0.0129437
0.013337
0.0138488
0.0144938
0.0152889
0.0162604
0.0174358
0.0188619
0.020581
0.0226767
0.0252066
0.0283111
0.0320194
0.0364499
0.0412677
0.0456374
0.0480377
0.0122862
0.0123641
0.0125357
0.0128063
0.0131809
0.0136668
0.014277
0.0150252
0.0159343
0.017024
0.0183339
0.019887
0.021753
0.023938
0.0265656
0.0295365
0.0330295
0.0363115
0.0387826
0.0361184
0.0121394
0.0122134
0.0123753
0.01263
0.0129817
0.0134361
0.0140039
0.0146953
0.0155284
0.0165146
0.0176841
0.0190378
0.0206264
0.0223916
0.0244269
0.0264192
0.0286496
0.0296498
0.0317582
0.0153672
)
;

boundaryField
{
    inlet
    {
        type            zeroGradient;
    }
    outlet
    {
        type            fixedValue;
        value           uniform 0;
    }
    upAndBottom
    {
        type            empty;
    }
    obstacle
    {
        type            zeroGradient;
    }
}


// ************************************************************************* //
