/*--------------------------------*- C++ -*----------------------------------*\
| =========                 |                                                 |
| \\      /  F ield         | OpenFOAM: The Open Source CFD Toolbox           |
|  \\    /   O peration     | Version:  v1806                                 |
|   \\  /    A nd           | Web:      www.OpenFOAM.com                      |
|    \\/     M anipulation  |                                                 |
\*---------------------------------------------------------------------------*/
FoamFile
{
    version     2.0;
    format      ascii;
    class       volVectorField;
    location    "200";
    object      U;
}
// * * * * * * * * * * * * * * * * * * * * * * * * * * * * * * * * * * * * * //

dimensions      [0 1 -1 0 0 0 0];


internalField   nonuniform List<vector> 
4400
(
(0.235002 0.25256 0)
(0.290002 0.188168 0)
(0.306558 0.142237 0)
(0.314391 0.109939 0)
(0.319254 0.0882244 0)
(0.321593 0.074162 0)
(0.32208 0.0647412 0)
(0.321546 0.0579662 0)
(0.320488 0.0528011 0)
(0.31914 0.0486939 0)
(0.317616 0.0453331 0)
(0.315979 0.0425365 0)
(0.314272 0.040192 0)
(0.312523 0.0382261 0)
(0.310751 0.0365869 0)
(0.30897 0.0352364 0)
(0.307187 0.0341468 0)
(0.30541 0.0332999 0)
(0.303682 0.0326679 0)
(0.30223 0.0321744 0)
(0.249638 0.135965 0)
(0.277637 0.100317 0)
(0.294238 0.0875668 0)
(0.306303 0.0804865 0)
(0.312554 0.0736414 0)
(0.315394 0.0669873 0)
(0.316648 0.0609348 0)
(0.316991 0.0556634 0)
(0.316709 0.051176 0)
(0.315993 0.0473929 0)
(0.314979 0.0442081 0)
(0.313762 0.0415233 0)
(0.312408 0.0392595 0)
(0.310963 0.0373561 0)
(0.309458 0.0357675 0)
(0.307915 0.0344592 0)
(0.30635 0.0334056 0)
(0.304774 0.0325895 0)
(0.303232 0.0319827 0)
(0.301928 0.0315252 0)
(0.226442 0.101975 0)
(0.259159 0.102593 0)
(0.281642 0.0959637 0)
(0.295182 0.0851648 0)
(0.303367 0.0744021 0)
(0.30837 0.0656119 0)
(0.31124 0.0588139 0)
(0.312673 0.0534889 0)
(0.313164 0.0491964 0)
(0.313034 0.0456522 0)
(0.312488 0.0426795 0)
(0.311657 0.0401658 0)
(0.31063 0.0380356 0)
(0.30947 0.0362361 0)
(0.308217 0.0347289 0)
(0.306903 0.0334851 0)
(0.305547 0.0324833 0)
(0.304168 0.0317087 0)
(0.302807 0.0311367 0)
(0.301647 0.0307158 0)
(0.245222 0.0691675 0)
(0.266629 0.0705633 0)
(0.281098 0.0679246 0)
(0.29177 0.064667 0)
(0.299292 0.0611638 0)
(0.304244 0.0573843 0)
(0.307358 0.0535192 0)
(0.309193 0.0498156 0)
(0.310124 0.0464305 0)
(0.310407 0.0434239 0)
(0.310227 0.040796 0)
(0.309719 0.0385205 0)
(0.308978 0.0365645 0)
(0.308073 0.0348972 0)
(0.307052 0.0334924 0)
(0.30595 0.0323289 0)
(0.304792 0.0313906 0)
(0.3036 0.0306657 0)
(0.302412 0.0301331 0)
(0.301394 0.0297511 0)
(0.24745 0.0523195 0)
(0.263215 0.0598099 0)
(0.277111 0.0622099 0)
(0.287752 0.0608838 0)
(0.295314 0.0575685 0)
(0.30053 0.0536821 0)
(0.304016 0.049949 0)
(0.306226 0.0465834 0)
(0.307503 0.0436006 0)
(0.308103 0.040969 0)
(0.308213 0.038655 0)
(0.30797 0.03663 0)
(0.307471 0.0348702 0)
(0.306789 0.0333561 0)
(0.305974 0.0320711 0)
(0.305066 0.0310016 0)
(0.304091 0.0301367 0)
(0.303073 0.0294684 0)
(0.302049 0.0289797 0)
(0.301165 0.028637 0)
(0.259276 0.0397323 0)
(0.270397 0.0459251 0)
(0.279942 0.0485912 0)
(0.287751 0.0490383 0)
(0.293894 0.0482393 0)
(0.298487 0.046684 0)
(0.301763 0.0446902 0)
(0.303986 0.0425059 0)
(0.305391 0.0403101 0)
(0.306169 0.0382154 0)
(0.306477 0.0362824 0)
(0.306432 0.0345385 0)
(0.306127 0.0329926 0)
(0.305631 0.0316442 0)
(0.304996 0.0304889 0)
(0.30426 0.0295211 0)
(0.30345 0.0287356 0)
(0.302592 0.0281281 0)
(0.301721 0.0276856 0)
(0.300963 0.0273821 0)
(0.264937 0.0312493 0)
(0.272644 0.0378929 0)
(0.280396 0.041787 0)
(0.287229 0.0433564 0)
(0.292753 0.0432796 0)
(0.296977 0.0422118 0)
(0.300075 0.0406504 0)
(0.302253 0.0388998 0)
(0.303698 0.0371218 0)
(0.304572 0.0354016 0)
(0.305006 0.0337863 0)
(0.305104 0.0323032 0)
(0.304949 0.0309676 0)
(0.304605 0.0297874 0)
(0.304122 0.0287659 0)
(0.303535 0.0279039 0)
(0.302873 0.0272011 0)
(0.302159 0.0266567 0)
(0.301427 0.0262616 0)
(0.300786 0.025996 0)
(0.2723 0.0251414 0)
(0.277913 0.0306005 0)
(0.283503 0.0341722 0)
(0.288556 0.0360965 0)
(0.292866 0.0368206 0)
(0.296359 0.0367053 0)
(0.299053 0.0360213 0)
(0.301033 0.0349839 0)
(0.302411 0.0337583 0)
(0.303298 0.0324631 0)
(0.303792 0.0311784 0)
(0.303982 0.0299557 0)
(0.303936 0.0288276 0)
(0.303712 0.0278135 0)
(0.303352 0.026925 0)
(0.302893 0.0261687 0)
(0.30236 0.0255489 0)
(0.301775 0.0250676 0)
(0.301168 0.0247194 0)
(0.300632 0.0244899 0)
(0.277151 0.0203774 0)
(0.281126 0.0253951 0)
(0.285409 0.0289705 0)
(0.289507 0.0311685 0)
(0.293109 0.0322395 0)
(0.296085 0.0324744 0)
(0.298429 0.0321403 0)
(0.300192 0.0314492 0)
(0.301456 0.0305542 0)
(0.302303 0.0295608 0)
(0.302812 0.0285411 0)
(0.303051 0.0275445 0)
(0.30308 0.0266056 0)
(0.302945 0.0257476 0)
(0.302686 0.0249865 0)
(0.302333 0.0243327 0)
(0.30191 0.0237937 0)
(0.301438 0.023374 0)
(0.300942 0.0230712 0)
(0.300501 0.0228755 0)
(0.282022 0.0168564 0)
(0.284935 0.0210162 0)
(0.288075 0.0241703 0)
(0.291122 0.0263051 0)
(0.29388 0.0275721 0)
(0.296244 0.0281527 0)
(0.298172 0.0282149 0)
(0.299672 0.0279065 0)
(0.30078 0.027352 0)
(0.30155 0.0266507 0)
(0.302037 0.0258782 0)
(0.302294 0.0250897 0)
(0.302368 0.0243248 0)
(0.302298 0.0236116 0)
(0.302117 0.0229697 0)
(0.301851 0.0224127 0)
(0.301521 0.0219505 0)
(0.301146 0.0215894 0)
(0.300748 0.0213295 0)
(0.30039 0.0211648 0)
(0.285664 0.0138886 0)
(0.287762 0.0175425 0)
(0.290108 0.0204106 0)
(0.292466 0.0224663 0)
(0.294653 0.0237904 0)
(0.296558 0.0245073 0)
(0.298136 0.0247523 0)
(0.299385 0.0246515 0)
(0.300327 0.0243118 0)
(0.300999 0.0238189 0)
(0.30144 0.0232393 0)
(0.30169 0.0226234 0)
(0.301786 0.0220093 0)
(0.30176 0.0214252 0)
(0.301638 0.0208916 0)
(0.301442 0.0204238 0)
(0.30119 0.0200329 0)
(0.300897 0.0197264 0)
(0.300583 0.0195063 0)
(0.300298 0.0193695 0)
(0.288994 0.0115804 0)
(0.290513 0.0146188 0)
(0.29222 0.0170942 0)
(0.29395 0.0189557 0)
(0.295583 0.0202446 0)
(0.297039 0.0210396 0)
(0.298274 0.0214306 0)
(0.299274 0.0215073 0)
(0.300046 0.0213524 0)
(0.300608 0.021038 0)
(0.300989 0.0206234 0)
(0.301217 0.0201563 0)
(0.301319 0.0196736 0)
(0.30132 0.0192033 0)
(0.30124 0.0187667 0)
(0.301099 0.0183796 0)
(0.300911 0.0180536 0)
(0.300688 0.0177971 0)
(0.300445 0.0176133 0)
(0.300223 0.0175012 0)
(0.291615 0.00954956 0)
(0.292698 0.0121472 0)
(0.293935 0.0142998 0)
(0.295215 0.0159679 0)
(0.296443 0.017172 0)
(0.297552 0.0179631 0)
(0.298503 0.0184076 0)
(0.299283 0.0185758 0)
(0.299893 0.0185348 0)
(0.300346 0.018344 0)
(0.300659 0.0180538 0)
(0.300854 0.0177054 0)
(0.300949 0.0173318 0)
(0.300965 0.0169591 0)
(0.300916 0.0166073 0)
(0.300817 0.0162917 0)
(0.300679 0.0160239 0)
(0.300513 0.0158124 0)
(0.300331 0.0156612 0)
(0.300161 0.0155708 0)
(0.293893 0.00787632 0)
(0.294646 0.0100107 0)
(0.295513 0.0118204 0)
(0.296415 0.0132613 0)
(0.297289 0.0143396 0)
(0.29809 0.0150871 0)
(0.298788 0.0155484 0)
(0.299369 0.015774 0)
(0.29983 0.0158149 0)
(0.300178 0.0157183 0)
(0.300423 0.0155262 0)
(0.30058 0.0152742 0)
(0.300662 0.0149915 0)
(0.300683 0.0147016 0)
(0.300655 0.014423 0)
(0.300587 0.0141701 0)
(0.30049 0.0139539 0)
(0.300371 0.0137823 0)
(0.300238 0.0136599 0)
(0.300113 0.0135883 0)
(0.295699 0.00635941 0)
(0.296208 0.00811993 0)
(0.296797 0.00962638 0)
(0.297419 0.0108462 0)
(0.298027 0.0117805 0)
(0.298589 0.0124495 0)
(0.299082 0.0128847 0)
(0.299496 0.0131238 0)
(0.299827 0.0132062 0)
(0.30008 0.0131694 0)
(0.300261 0.0130472 0)
(0.300379 0.0128688 0)
(0.300443 0.0126591 0)
(0.300464 0.0124379 0)
(0.300448 0.0122217 0)
(0.300404 0.0120231 0)
(0.300338 0.011852 0)
(0.300256 0.0117157 0)
(0.300164 0.0116187 0)
(0.300076 0.0115632 0)
(0.297189 0.00503705 0)
(0.297512 0.00642519 0)
(0.297888 0.00763041 0)
(0.298285 0.00862176 0)
(0.298676 0.0093962 0)
(0.29904 0.00996572 0)
(0.299363 0.0103515 0)
(0.299637 0.0105803 0)
(0.299858 0.0106809 0)
(0.300029 0.0106819 0)
(0.300152 0.0106098 0)
(0.300234 0.010488 0)
(0.30028 0.0103367 0)
(0.300296 0.0101725 0)
(0.300288 0.0100091 0)
(0.300261 0.00985732 0)
(0.300219 0.00972557 0)
(0.300166 0.0096202 0)
(0.300106 0.00954545 0)
(0.300047 0.00950362 0)
(0.298324 0.00380262 0)
(0.298513 0.00486495 0)
(0.298733 0.00579176 0)
(0.298967 0.00656084 0)
(0.299198 0.0071692 0)
(0.299414 0.00762421 0)
(0.299607 0.00794023 0)
(0.299771 0.00813611 0)
(0.299904 0.00823278 0)
(0.300007 0.00825128 0)
(0.300082 0.00821143 0)
(0.300132 0.00813108 0)
(0.300161 0.00802569 0)
(0.300172 0.00790829 0)
(0.300169 0.00778958 0)
(0.300153 0.00767817 0)
(0.300129 0.00758085 0)
(0.300098 0.00750276 0)
(0.300062 0.00744752 0)
(0.300027 0.00741732 0)
(0.299172 0.00266824 0)
(0.299263 0.00341054 0)
(0.29937 0.00406388 0)
(0.299484 0.00461038 0)
(0.299598 0.00504693 0)
(0.299705 0.0053777 0)
(0.2998 0.00561171 0)
(0.299882 0.00576121 0)
(0.299949 0.00584018 0)
(0.3 0.00586292 0)
(0.300038 0.00584316 0)
(0.300064 0.00579341 0)
(0.300079 0.00572467 0)
(0.300085 0.00564626 0)
(0.300083 0.00556591 0)
(0.300076 0.00548986 0)
(0.300064 0.00542306 0)
(0.300048 0.0053693 0)
(0.300031 0.00533139 0)
(0.300013 0.00531114 0)
(0.299716 0.00157617 0)
(0.299745 0.0020207 0)
(0.299782 0.00241125 0)
(0.299821 0.00273871 0)
(0.299861 0.0030016 0)
(0.299897 0.00320217 0)
(0.299931 0.00334543 0)
(0.299959 0.00343842 0)
(0.299982 0.00348922 0)
(0.3 0.00350622 0)
(0.300013 0.00349747 0)
(0.300022 0.00347042 0)
(0.300027 0.00343159 0)
(0.300029 0.00338659 0)
(0.300028 0.00334006 0)
(0.300026 0.00329577 0)
(0.300022 0.00325671 0)
(0.300017 0.00322522 0)
(0.30001 0.00320308 0)
(0.300004 0.00319147 0)
(0.299987 0.000529861 0)
(0.299988 0.000671693 0)
(0.299989 0.000800255 0)
(0.299991 0.000908905 0)
(0.299993 0.000996483 0)
(0.299995 0.00106357 0)
(0.299997 0.00111173 0)
(0.299998 0.00114324 0)
(0.299999 0.00116071 0)
(0.3 0.0011669 0)
(0.300001 0.00116446 0)
(0.300001 0.00115586 0)
(0.300001 0.00114328 0)
(0.300001 0.00112857 0)
(0.300001 0.0011133 0)
(0.300001 0.00109872 0)
(0.300001 0.00108585 0)
(0.300001 0.00107546 0)
(0.300001 0.00106817 0)
(0.3 0.00106438 0)
(0.101048 -0.166506 0)
(0.080348 -0.141421 0)
(0.0678128 -0.118124 0)
(0.0590277 -0.0972996 0)
(0.0524439 -0.0783603 0)
(0.0474125 -0.0608245 0)
(0.0436074 -0.0443657 0)
(0.04084 -0.0287146 0)
(0.0389936 -0.0136294 0)
(0.0379967 0.00111197 0)
(0.0378122 0.0157191 0)
(0.0384328 0.0303962 0)
(0.0398806 0.0453495 0)
(0.0422113 0.0607952 0)
(0.0455246 0.0769667 0)
(0.0499892 0.0941225 0)
(0.055906 0.112583 0)
(0.063883 0.132851 0)
(0.0753683 0.155539 0)
(0.0945275 0.1796 0)
(0.175036 -0.100654 0)
(0.160827 -0.091326 0)
(0.14844 -0.0806059 0)
(0.138051 -0.0691436 0)
(0.129554 -0.0572078 0)
(0.122776 -0.0449362 0)
(0.117546 -0.0324264 0)
(0.11372 -0.0197498 0)
(0.111187 -0.00695666 0)
(0.109871 0.00591687 0)
(0.109731 0.018843 0)
(0.11076 0.0317976 0)
(0.112987 0.0447562 0)
(0.116478 0.0576897 0)
(0.121346 0.0705573 0)
(0.127762 0.0832928 0)
(0.13598 0.0958063 0)
(0.14638 0.108087 0)
(0.159554 0.120259 0)
(0.176426 0.130866 0)
(0.192382 -0.063906 0)
(0.187242 -0.0583886 0)
(0.18263 -0.0519667 0)
(0.178546 -0.0447947 0)
(0.175009 -0.0370259 0)
(0.172043 -0.0287901 0)
(0.169676 -0.020195 0)
(0.167932 -0.0113313 0)
(0.166829 -0.0022762 0)
(0.166379 0.00690282 0)
(0.166594 0.0161444 0)
(0.16748 0.0253898 0)
(0.169043 0.0345802 0)
(0.171284 0.0436526 0)
(0.174205 0.0525356 0)
(0.177804 0.061143 0)
(0.182085 0.0693733 0)
(0.187063 0.0771243 0)
(0.192815 0.08426 0)
(0.199563 0.0902587 0)
(0.220552 -0.0386798 0)
(0.216844 -0.0345352 0)
(0.213401 -0.0300597 0)
(0.210301 -0.0252844 0)
(0.207601 -0.0202431 0)
(0.20534 -0.0149718 0)
(0.203546 -0.00950857 0)
(0.202237 -0.003893 0)
(0.201428 0.00183399 0)
(0.201127 0.00763055 0)
(0.201341 0.0134541 0)
(0.202074 0.0192615 0)
(0.203329 0.0250089 0)
(0.205108 0.0306521 0)
(0.207411 0.0361455 0)
(0.210238 0.0414422 0)
(0.213587 0.0464973 0)
(0.217457 0.0512791 0)
(0.221855 0.0557483 0)
(0.226801 0.059674 0)
(0.233703 -0.0272293 0)
(0.231889 -0.0241536 0)
(0.230254 -0.0208486 0)
(0.228812 -0.017333 0)
(0.227579 -0.0136301 0)
(0.226569 -0.00976617 0)
(0.225794 -0.00576944 0)
(0.225264 -0.00166926 0)
(0.22499 0.00250436 0)
(0.224976 0.00672094 0)
(0.225228 0.0109497 0)
(0.225746 0.0151594 0)
(0.226529 0.0193185 0)
(0.227572 0.0233951 0)
(0.228868 0.0273565 0)
(0.230408 0.0311692 0)
(0.232179 0.0347995 0)
(0.234169 0.0382155 0)
(0.236368 0.0413837 0)
(0.238772 0.0442378 0)
(0.249066 -0.0185128 0)
(0.247782 -0.0160759 0)
(0.24661 -0.013535 0)
(0.245568 -0.0108995 0)
(0.244673 -0.00818003 0)
(0.243937 -0.00538835 0)
(0.243372 -0.0025373 0)
(0.242988 0.000359339 0)
(0.24279 0.00328697 0)
(0.242785 0.00623035 0)
(0.242974 0.00917382 0)
(0.243359 0.0121014 0)
(0.243938 0.0149973 0)
(0.244709 0.0178455 0)
(0.245667 0.0206307 0)
(0.246805 0.0233377 0)
(0.248114 0.025953 0)
(0.249584 0.0284676 0)
(0.251205 0.0308722 0)
(0.252965 0.0331168 0)
(0.258055 -0.0137008 0)
(0.257315 -0.0118074 0)
(0.25666 -0.00984092 0)
(0.256096 -0.00780776 0)
(0.255626 -0.00571545 0)
(0.255256 -0.00357253 0)
(0.254988 -0.00138836 0)
(0.254826 0.000827013 0)
(0.254773 0.00306302 0)
(0.254828 0.0053087 0)
(0.254995 0.0075528 0)
(0.255271 0.00978394 0)
(0.255656 0.0119907 0)
(0.256148 0.0141618 0)
(0.256744 0.016286 0)
(0.25744 0.0183525 0)
(0.258232 0.0203508 0)
(0.259115 0.0222717 0)
(0.260086 0.024107 0)
(0.261141 0.0258437 0)
(0.267268 -0.0101034 0)
(0.266748 -0.00856589 0)
(0.266284 -0.0069896 0)
(0.265882 -0.00537887 0)
(0.265547 -0.00373835 0)
(0.265281 -0.00207298 0)
(0.265088 -0.000387982 0)
(0.264972 0.00131117 0)
(0.264934 0.00301878 0)
(0.264975 0.00472905 0)
(0.265097 0.00643603 0)
(0.265299 0.0081338 0)
(0.26558 0.00981644 0)
(0.26594 0.0114782 0)
(0.266375 0.0131133 0)
(0.266884 0.0147163 0)
(0.267462 0.0162822 0)
(0.268106 0.0178077 0)
(0.268811 0.0192893 0)
(0.269573 0.0207097 0)
(0.273428 -0.00777609 0)
(0.273097 -0.00654278 0)
(0.272808 -0.00528213 0)
(0.272564 -0.00399708 0)
(0.272366 -0.00269087 0)
(0.272216 -0.00136704 0)
(0.272114 -2.93637e-05 0)
(0.272063 0.00131818 0)
(0.272061 0.00267145 0)
(0.272111 0.00402618 0)
(0.272211 0.00537803 0)
(0.272362 0.00672263 0)
(0.272563 0.00805562 0)
(0.272814 0.00937273 0)
(0.273113 0.0106697 0)
(0.273458 0.0119426 0)
(0.273849 0.0131875 0)
(0.274285 0.014401 0)
(0.274763 0.0155805 0)
(0.275282 0.0167212 0)
(0.279321 -0.00603618 0)
(0.279088 -0.00501777 0)
(0.278885 -0.00398295 0)
(0.278713 -0.00293382 0)
(0.278573 -0.0018726 0)
(0.278467 -0.000801588 0)
(0.278395 0.000276817 0)
(0.278359 0.00136015 0)
(0.278359 0.00244591 0)
(0.278396 0.00353153 0)
(0.27847 0.00461446 0)
(0.27858 0.00569212 0)
(0.278726 0.00676197 0)
(0.278908 0.00782152 0)
(0.279125 0.0088683 0)
(0.279375 0.00989988 0)
(0.279658 0.010914 0)
(0.279972 0.0119092 0)
(0.280316 0.0128837 0)
(0.280688 0.0138304 0)
(0.283608 -0.00477528 0)
(0.283452 -0.00394279 0)
(0.283317 -0.00309862 0)
(0.283205 -0.00224428 0)
(0.283117 -0.00138132 0)
(0.283052 -0.00051143 0)
(0.283012 0.000363656 0)
(0.282996 0.00124213 0)
(0.283005 0.00212214 0)
(0.283039 0.00300179 0)
(0.283098 0.00387919 0)
(0.283181 0.00475241 0)
(0.28329 0.00561957 0)
(0.283422 0.00647879 0)
(0.283579 0.00732824 0)
(0.283759 0.00816612 0)
(0.283961 0.00899073 0)
(0.284186 0.00980062 0)
(0.284433 0.0105947 0)
(0.2847 0.0113704 0)
(0.287527 -0.00380807 0)
(0.287418 -0.00311673 0)
(0.287325 -0.00241771 0)
(0.287247 -0.00171212 0)
(0.287185 -0.00100108 0)
(0.28714 -0.000285765 0)
(0.287112 0.000432613 0)
(0.287102 0.00115283 0)
(0.287109 0.00187366 0)
(0.287134 0.00259383 0)
(0.287176 0.00331209 0)
(0.287236 0.00402718 0)
(0.287314 0.00473787 0)
(0.287408 0.00544292 0)
(0.28752 0.00614112 0)
(0.287648 0.00683126 0)
(0.287792 0.00751221 0)
(0.287952 0.00818314 0)
(0.288126 0.0088433 0)
(0.288315 0.0094892 0)
(0.290516 -0.00304887 0)
(0.290442 -0.00248197 0)
(0.290379 -0.00190956 0)
(0.290327 -0.00133243 0)
(0.290287 -0.000751426 0)
(0.290259 -0.000167402 0)
(0.290243 0.000418751 0)
(0.290239 0.00100613 0)
(0.290247 0.0015938 0)
(0.290268 0.00218084 0)
(0.2903 0.0027663 0)
(0.290345 0.00334924 0)
(0.290402 0.00392874 0)
(0.290471 0.00450387 0)
(0.290552 0.00507373 0)
(0.290644 0.00563742 0)
(0.290748 0.00619408 0)
(0.290863 0.006743 0)
(0.290988 0.00728364 0)
(0.291125 0.00781461 0)
(0.293142 -0.00244013 0)
(0.293092 -0.00197422 0)
(0.29305 -0.00150447 0)
(0.293015 -0.00103148 0)
(0.292988 -0.000555883 0)
(0.292969 -7.82933e-05 0)
(0.292958 0.000400641 0)
(0.292956 0.00088027 0)
(0.292962 0.00135993 0)
(0.292976 0.00183897 0)
(0.292998 0.00231672 0)
(0.293029 0.00279252 0)
(0.293068 0.0032657 0)
(0.293115 0.00373563 0)
(0.293171 0.00420165 0)
(0.293234 0.00466312 0)
(0.293304 0.00511943 0)
(0.293382 0.00557012 0)
(0.293468 0.00601484 0)
(0.29356 0.0064518 0)
(0.29517 -0.00193169 0)
(0.295137 -0.00155693 0)
(0.29511 -0.00117942 0)
(0.295087 -0.000799592 0)
(0.29507 -0.000417897 0)
(0.295059 -3.48044e-05 0)
(0.295053 0.000349212 0)
(0.295052 0.000733668 0)
(0.295057 0.00111808 0)
(0.295068 0.00150194 0)
(0.295084 0.00188478 0)
(0.295105 0.00226609 0)
(0.295133 0.00264538 0)
(0.295165 0.00302218 0)
(0.295203 0.003396 0)
(0.295246 0.00376636 0)
(0.295295 0.00413281 0)
(0.295348 0.00449498 0)
(0.295407 0.00485263 0)
(0.29547 0.0052049 0)
(0.296864 -0.00150099 0)
(0.296844 -0.00120488 0)
(0.296827 -0.000906812 0)
(0.296813 -0.000607127 0)
(0.296803 -0.000306155 0)
(0.296795 -4.23681e-06 0)
(0.296792 0.000298282 0)
(0.296791 0.000601051 0)
(0.296794 0.000903719 0)
(0.296801 0.00120593 0)
(0.296811 0.00150734 0)
(0.296824 0.00180758 0)
(0.296841 0.0021063 0)
(0.296861 0.00240317 0)
(0.296884 0.00269782 0)
(0.296911 0.00298992 0)
(0.296941 0.00327913 0)
(0.296974 0.00356522 0)
(0.29701 0.00384804 0)
(0.297049 0.00412658 0)
(0.298127 -0.00112045 0)
(0.298116 -0.000897394 0)
(0.298106 -0.000672977 0)
(0.298098 -0.000447436 0)
(0.298093 -0.000221007 0)
(0.298089 6.06723e-06 0)
(0.298087 0.000233541 0)
(0.298087 0.000461166 0)
(0.298089 0.00068869 0)
(0.298093 0.000915864 0)
(0.298099 0.00114243 0)
(0.298107 0.00136815 0)
(0.298117 0.00159276 0)
(0.298129 0.00181602 0)
(0.298143 0.00203768 0)
(0.298159 0.0022575 0)
(0.298177 0.00247522 0)
(0.298196 0.00269069 0)
(0.298218 0.00290384 0)
(0.298241 0.00311405 0)
(0.299082 -0.000778156 0)
(0.299077 -0.00062175 0)
(0.299072 -0.000464452 0)
(0.299068 -0.000306419 0)
(0.299065 -0.000147811 0)
(0.299063 1.12094e-05 0)
(0.299062 0.000170476 0)
(0.299062 0.000329823 0)
(0.299063 0.000489082 0)
(0.299065 0.000648086 0)
(0.299068 0.000806667 0)
(0.299072 0.000964656 0)
(0.299076 0.00112189 0)
(0.299082 0.0012782 0)
(0.299088 0.00143341 0)
(0.299096 0.00158737 0)
(0.299104 0.0017399 0)
(0.299113 0.00189091 0)
(0.299122 0.00204036 0)
(0.299133 0.00218762 0)
(0.299693 -0.000458127 0)
(0.299692 -0.00036582 0)
(0.29969 -0.000273007 0)
(0.299689 -0.000179779 0)
(0.299688 -8.62294e-05 0)
(0.299687 7.54871e-06 0)
(0.299687 0.000101459 0)
(0.299687 0.000195405 0)
(0.299687 0.000289291 0)
(0.299688 0.000383017 0)
(0.299689 0.000476487 0)
(0.29969 0.000569604 0)
(0.299691 0.000662271 0)
(0.299693 0.000754393 0)
(0.299695 0.000845876 0)
(0.299697 0.000936622 0)
(0.299699 0.00102653 0)
(0.299702 0.00111554 0)
(0.299704 0.00120369 0)
(0.299707 0.00129082 0)
(0.299991 -0.000152126 0)
(0.299991 -0.00012127 0)
(0.299991 -9.02434e-05 0)
(0.299991 -5.90751e-05 0)
(0.299991 -2.77932e-05 0)
(0.299991 3.57328e-06 0)
(0.299991 3.49952e-05 0)
(0.299991 6.64436e-05 0)
(0.299991 9.78897e-05 0)
(0.299991 0.000129306 0)
(0.299991 0.000160664 0)
(0.299991 0.000191939 0)
(0.299991 0.000223105 0)
(0.29999 0.00025414 0)
(0.29999 0.000285024 0)
(0.29999 0.000315732 0)
(0.29999 0.000346254 0)
(0.29999 0.000376648 0)
(0.299989 0.000407031 0)
(0.299989 0.000436893 0)
(0.293645 -0.0977076 0)
(0.292454 -0.101477 0)
(0.291421 -0.105741 0)
(0.290634 -0.110639 0)
(0.290184 -0.116251 0)
(0.290129 -0.122623 0)
(0.290468 -0.129769 0)
(0.291113 -0.137655 0)
(0.291852 -0.146189 0)
(0.292345 -0.155207 0)
(0.292108 -0.164468 0)
(0.290539 -0.173657 0)
(0.286942 -0.182396 0)
(0.280571 -0.190248 0)
(0.270673 -0.196723 0)
(0.256524 -0.201303 0)
(0.237455 -0.203571 0)
(0.212875 -0.203335 0)
(0.182245 -0.199963 0)
(0.145048 -0.18997 0)
(0.286591 -0.0715308 0)
(0.284275 -0.0723322 0)
(0.281567 -0.0731924 0)
(0.278479 -0.0740764 0)
(0.275031 -0.0750464 0)
(0.271266 -0.0761817 0)
(0.267249 -0.0775677 0)
(0.263073 -0.0792947 0)
(0.258849 -0.0814485 0)
(0.254683 -0.0840956 0)
(0.250654 -0.0872666 0)
(0.246776 -0.0909381 0)
(0.242969 -0.0950159 0)
(0.239027 -0.0993201 0)
(0.23462 -0.103577 0)
(0.229316 -0.107419 0)
(0.22263 -0.110387 0)
(0.214074 -0.111901 0)
(0.203217 -0.11121 0)
(0.18992 -0.107522 0)
(0.28261 -0.0759752 0)
(0.281227 -0.0771644 0)
(0.27968 -0.0782911 0)
(0.277927 -0.0793549 0)
(0.275913 -0.0803159 0)
(0.273571 -0.0811349 0)
(0.27083 -0.0817793 0)
(0.267623 -0.082223 0)
(0.263891 -0.0824495 0)
(0.2596 -0.0824531 0)
(0.254739 -0.0822392 0)
(0.249333 -0.0818211 0)
(0.243443 -0.0812137 0)
(0.237161 -0.0804239 0)
(0.230604 -0.0794388 0)
(0.223903 -0.0782139 0)
(0.217185 -0.0766616 0)
(0.210563 -0.0746416 0)
(0.204141 -0.0719633 0)
(0.198035 -0.0684272 0)
(0.276255 -0.056355 0)
(0.274211 -0.0567229 0)
(0.272108 -0.0571172 0)
(0.269955 -0.0575092 0)
(0.267762 -0.0578946 0)
(0.265541 -0.0582625 0)
(0.263298 -0.0585922 0)
(0.261033 -0.0588556 0)
(0.258738 -0.0590175 0)
(0.256395 -0.0590364 0)
(0.253977 -0.0588666 0)
(0.251447 -0.0584603 0)
(0.248769 -0.0577711 0)
(0.245903 -0.0567564 0)
(0.242821 -0.055381 0)
(0.239507 -0.0536177 0)
(0.235966 -0.0514486 0)
(0.232229 -0.0488649 0)
(0.228353 -0.0458669 0)
(0.224425 -0.0424653 0)
(0.278303 -0.0518096 0)
(0.276837 -0.0516374 0)
(0.275241 -0.0513791 0)
(0.273515 -0.0510375 0)
(0.271657 -0.0506076 0)
(0.269664 -0.0500853 0)
(0.26754 -0.0494685 0)
(0.26529 -0.0487557 0)
(0.262926 -0.0479454 0)
(0.260463 -0.0470352 0)
(0.25792 -0.0460206 0)
(0.255323 -0.0448947 0)
(0.252697 -0.0436472 0)
(0.25007 -0.0422642 0)
(0.247469 -0.0407281 0)
(0.24492 -0.0390192 0)
(0.242447 -0.0371165 0)
(0.24007 -0.0349999 0)
(0.237809 -0.0326528 0)
(0.235682 -0.0300638 0)
(0.277827 -0.0414608 0)
(0.276529 -0.041218 0)
(0.275216 -0.0409294 0)
(0.273889 -0.0405859 0)
(0.272548 -0.0401788 0)
(0.271191 -0.0396985 0)
(0.269819 -0.0391352 0)
(0.268428 -0.0384786 0)
(0.267017 -0.0377189 0)
(0.265584 -0.0368466 0)
(0.264126 -0.0358532 0)
(0.262642 -0.0347316 0)
(0.261133 -0.0334762 0)
(0.259601 -0.0320832 0)
(0.258052 -0.0305505 0)
(0.256493 -0.0288778 0)
(0.254938 -0.0270667 0)
(0.253399 -0.0251199 0)
(0.251895 -0.0230416 0)
(0.250444 -0.0208371 0)
(0.28049 -0.0355929 0)
(0.27946 -0.0351015 0)
(0.27839 -0.0345561 0)
(0.27728 -0.0339573 0)
(0.276135 -0.0333035 0)
(0.274958 -0.0325933 0)
(0.273753 -0.0318252 0)
(0.272527 -0.0309976 0)
(0.271286 -0.0301085 0)
(0.270037 -0.0291557 0)
(0.268788 -0.0281367 0)
(0.267547 -0.0270486 0)
(0.266323 -0.0258881 0)
(0.265123 -0.0246523 0)
(0.263956 -0.0233379 0)
(0.26283 -0.0219421 0)
(0.261752 -0.0204629 0)
(0.260729 -0.0188988 0)
(0.259767 -0.0172496 0)
(0.258874 -0.0155161 0)
(0.282455 -0.029554 0)
(0.281665 -0.0290828 0)
(0.280869 -0.0285685 0)
(0.280068 -0.0280111 0)
(0.279263 -0.0274074 0)
(0.278455 -0.0267541 0)
(0.277645 -0.0260486 0)
(0.276834 -0.0252885 0)
(0.276023 -0.0244717 0)
(0.275214 -0.0235966 0)
(0.274409 -0.022662 0)
(0.273609 -0.0216669 0)
(0.272817 -0.0206111 0)
(0.272037 -0.0194948 0)
(0.271273 -0.0183187 0)
(0.270527 -0.017084 0)
(0.269806 -0.0157924 0)
(0.269114 -0.0144458 0)
(0.268457 -0.0130468 0)
(0.267839 -0.0115983 0)
(0.285052 -0.0249415 0)
(0.284422 -0.0244255 0)
(0.283783 -0.0238752 0)
(0.283136 -0.0232914 0)
(0.282483 -0.0226731 0)
(0.281826 -0.0220198 0)
(0.281168 -0.0213309 0)
(0.280511 -0.0206058 0)
(0.279857 -0.0198441 0)
(0.279211 -0.0190453 0)
(0.278575 -0.0182089 0)
(0.277951 -0.0173346 0)
(0.277344 -0.016422 0)
(0.276756 -0.015471 0)
(0.276191 -0.0144818 0)
(0.275651 -0.0134544 0)
(0.275139 -0.0123895 0)
(0.274658 -0.0112879 0)
(0.274211 -0.0101507 0)
(0.2738 -0.00897947 0)
(0.287419 -0.0209912 0)
(0.286954 -0.0205167 0)
(0.286488 -0.0200135 0)
(0.286023 -0.0194831 0)
(0.285559 -0.0189246 0)
(0.285097 -0.0183371 0)
(0.284638 -0.0177199 0)
(0.284184 -0.0170727 0)
(0.283735 -0.0163952 0)
(0.283293 -0.0156873 0)
(0.282858 -0.014949 0)
(0.282434 -0.0141807 0)
(0.28202 -0.0133826 0)
(0.281619 -0.0125555 0)
(0.281232 -0.0117 0)
(0.280862 -0.0108171 0)
(0.28051 -0.00990787 0)
(0.280178 -0.00897369 0)
(0.279867 -0.00801593 0)
(0.279581 -0.00703619 0)
(0.289697 -0.0176433 0)
(0.289335 -0.017195 0)
(0.288972 -0.0167252 0)
(0.288609 -0.0162348 0)
(0.288248 -0.0157234 0)
(0.287889 -0.0151909 0)
(0.287534 -0.0146372 0)
(0.287183 -0.0140623 0)
(0.286837 -0.0134662 0)
(0.286499 -0.0128491 0)
(0.286169 -0.0122111 0)
(0.285848 -0.0115524 0)
(0.285539 -0.0108733 0)
(0.285242 -0.0101743 0)
(0.284958 -0.00945572 0)
(0.28469 -0.00871827 0)
(0.284437 -0.00796258 0)
(0.284201 -0.00718946 0)
(0.283984 -0.00639982 0)
(0.283786 -0.00559471 0)
(0.291783 -0.014846 0)
(0.291522 -0.0144471 0)
(0.291262 -0.0140303 0)
(0.291004 -0.0135972 0)
(0.290749 -0.0131474 0)
(0.290496 -0.0126807 0)
(0.290247 -0.012197 0)
(0.290002 -0.0116964 0)
(0.289761 -0.0111792 0)
(0.289527 -0.0106453 0)
(0.289298 -0.0100952 0)
(0.289077 -0.0095291 0)
(0.288863 -0.00894748 0)
(0.288658 -0.00835081 0)
(0.288462 -0.00773963 0)
(0.288277 -0.00711459 0)
(0.288102 -0.00647638 0)
(0.287939 -0.00582576 0)
(0.287788 -0.00516356 0)
(0.287651 -0.00449068 0)
(0.293621 -0.0123715 0)
(0.293425 -0.0120179 0)
(0.293231 -0.011651 0)
(0.293039 -0.0112717 0)
(0.292848 -0.0108798 0)
(0.29266 -0.0104753 0)
(0.292475 -0.0100582 0)
(0.292294 -0.00962879 0)
(0.292117 -0.00918713 0)
(0.291944 -0.00873345 0)
(0.291777 -0.008268 0)
(0.291616 -0.00779105 0)
(0.291461 -0.00730294 0)
(0.291313 -0.00680401 0)
(0.291172 -0.00629469 0)
(0.29104 -0.00577541 0)
(0.290916 -0.00524669 0)
(0.290801 -0.00470906 0)
(0.290696 -0.00416311 0)
(0.290601 -0.00360949 0)
(0.295248 -0.0102532 0)
(0.295113 -0.00994983 0)
(0.29498 -0.00963569 0)
(0.294848 -0.0093118 0)
(0.294718 -0.00897806 0)
(0.29459 -0.00863441 0)
(0.294464 -0.00828097 0)
(0.294341 -0.00791787 0)
(0.294221 -0.00754529 0)
(0.294105 -0.00716342 0)
(0.293992 -0.00677251 0)
(0.293883 -0.00637281 0)
(0.293779 -0.00596462 0)
(0.293679 -0.00554829 0)
(0.293584 -0.00512416 0)
(0.293495 -0.00469264 0)
(0.293412 -0.00425416 0)
(0.293335 -0.00380917 0)
(0.293264 -0.00335816 0)
(0.2932 -0.00290163 0)
(0.296612 -0.00832662 0)
(0.296518 -0.00807153 0)
(0.296425 -0.00780846 0)
(0.296334 -0.00753803 0)
(0.296243 -0.00726018 0)
(0.296155 -0.00697492 0)
(0.296068 -0.00668236 0)
(0.295983 -0.00638265 0)
(0.2959 -0.00607593 0)
(0.29582 -0.00576237 0)
(0.295743 -0.00544218 0)
(0.295668 -0.00511555 0)
(0.295597 -0.00478272 0)
(0.295529 -0.00444395 0)
(0.295465 -0.0040995 0)
(0.295405 -0.00374968 0)
(0.295349 -0.0033948 0)
(0.295297 -0.00303519 0)
(0.29525 -0.00267122 0)
(0.295208 -0.00230325 0)
(0.297757 -0.00661182 0)
(0.297699 -0.00640512 0)
(0.297641 -0.00619211 0)
(0.297584 -0.00597354 0)
(0.297528 -0.00574937 0)
(0.297473 -0.00551957 0)
(0.297419 -0.00528423 0)
(0.297366 -0.00504349 0)
(0.297315 -0.00479747 0)
(0.297266 -0.00454632 0)
(0.297218 -0.00429019 0)
(0.297172 -0.00402925 0)
(0.297128 -0.00376371 0)
(0.297086 -0.00349376 0)
(0.297047 -0.00321962 0)
(0.29701 -0.00294153 0)
(0.296975 -0.00265974 0)
(0.296943 -0.0023745 0)
(0.296914 -0.00208611 0)
(0.296888 -0.00179484 0)
(0.298654 -0.00500868 0)
(0.298619 -0.00484903 0)
(0.298585 -0.00468489 0)
(0.298551 -0.00451679 0)
(0.298517 -0.00434464 0)
(0.298485 -0.00416846 0)
(0.298453 -0.00398833 0)
(0.298422 -0.00380434 0)
(0.298391 -0.0036166 0)
(0.298362 -0.00342522 0)
(0.298334 -0.0032303 0)
(0.298307 -0.00303199 0)
(0.298281 -0.00283042 0)
(0.298256 -0.00262574 0)
(0.298233 -0.00241811 0)
(0.298212 -0.0022077 0)
(0.298191 -0.00199469 0)
(0.298173 -0.00177925 0)
(0.298156 -0.0015616 0)
(0.298141 -0.00134193 0)
(0.299331 -0.00351943 0)
(0.299314 -0.00340626 0)
(0.299298 -0.00328983 0)
(0.299282 -0.00317069 0)
(0.299266 -0.00304878 0)
(0.299251 -0.00292409 0)
(0.299236 -0.0027967 0)
(0.299221 -0.00266666 0)
(0.299207 -0.00253407 0)
(0.299193 -0.00239899 0)
(0.29918 -0.0022615 0)
(0.299167 -0.00212171 0)
(0.299155 -0.00197971 0)
(0.299143 -0.00183561 0)
(0.299132 -0.00168952 0)
(0.299122 -0.00154155 0)
(0.299113 -0.00139183 0)
(0.299104 -0.0012405 0)
(0.299096 -0.00108768 0)
(0.299088 -0.000933515 0)
(0.299774 -0.00208273 0)
(0.299769 -0.00201512 0)
(0.299764 -0.00194577 0)
(0.299759 -0.00187488 0)
(0.299754 -0.00180238 0)
(0.299749 -0.00172827 0)
(0.299745 -0.00165259 0)
(0.29974 -0.0015754 0)
(0.299735 -0.00149672 0)
(0.299731 -0.00141662 0)
(0.299726 -0.00133514 0)
(0.299722 -0.00125233 0)
(0.299718 -0.00116825 0)
(0.299714 -0.00108297 0)
(0.29971 -0.000996546 0)
(0.299707 -0.000909051 0)
(0.299704 -0.000820557 0)
(0.299701 -0.000731137 0)
(0.299698 -0.000640871 0)
(0.299696 -0.00054984 0)
(0.299991 -0.000698594 0)
(0.299991 -0.000675464 0)
(0.299992 -0.000651586 0)
(0.299992 -0.0006274 0)
(0.299992 -0.000602808 0)
(0.299992 -0.000577748 0)
(0.299992 -0.000552216 0)
(0.299992 -0.000526222 0)
(0.299992 -0.000499771 0)
(0.299992 -0.000472874 0)
(0.299992 -0.00044554 0)
(0.299992 -0.000417785 0)
(0.299992 -0.000389623 0)
(0.299992 -0.000361072 0)
(0.299992 -0.000332151 0)
(0.299992 -0.000302882 0)
(0.299992 -0.000273287 0)
(0.299992 -0.000243388 0)
(0.299992 -0.000213211 0)
(0.299992 -0.000182781 0)
(0.0699155 -0.0802748 0)
(0.0515157 -0.064776 0)
(0.0391656 -0.0512757 0)
(0.0302879 -0.0404904 0)
(0.023595 -0.0317346 0)
(0.018388 -0.0245315 0)
(0.0142511 -0.0186217 0)
(0.0109181 -0.0138144 0)
(0.00820855 -0.00994665 0)
(0.00599495 -0.00688017 0)
(0.00418417 -0.00449792 0)
(0.00270705 -0.00269912 0)
(0.00151227 -0.00139532 0)
(0.000562902 -0.000507338 0)
(-0.000165363 3.76506e-05 0)
(-0.000684624 0.000310163 0)
(-0.000993725 0.00038005 0)
(-0.00107718 0.000307117 0)
(-0.000906761 0.00016152 0)
(-0.000431135 4.0898e-05 0)
(0.109849 -0.0633719 0)
(0.0933271 -0.0571824 0)
(0.0792444 -0.0503321 0)
(0.0671614 -0.0437722 0)