/*--------------------------------*- C++ -*----------------------------------*\
| =========                 |                                                 |
| \\      /  F ield         | OpenFOAM: The Open Source CFD Toolbox           |
|  \\    /   O peration     | Version:  v1806                                 |
|   \\  /    A nd           | Web:      www.OpenFOAM.com                      |
|    \\/     M anipulation  |                                                 |
\*---------------------------------------------------------------------------*/
FoamFile
{
    version     2.0;
    format      ascii;
    class       volVectorField;
    location    "13";
    object      U;
}
// * * * * * * * * * * * * * * * * * * * * * * * * * * * * * * * * * * * * * //

dimensions      [0 1 -1 0 0 0 0];


internalField   nonuniform List<vector> 
6205
(
(1.76005 -0.00696341 0.0200346)
(1.75965 -0.00698784 1.39093e-06)
(1.75963 -0.00698847 2.32774e-10)
(1.75965 -0.00698784 -1.39052e-06)
(1.76005 -0.00696342 -0.0200346)
(1.34368 -0.45485 0.0222716)
(1.34366 -0.455019 2.21481e-08)
(1.34366 -0.455028 -4.36131e-11)
(1.34366 -0.455019 -2.20236e-08)
(1.34368 -0.45485 -0.0222716)
(1.29562 -0.106461 0.0200128)
(1.2956 -0.106595 -5.25515e-07)
(1.29559 -0.106595 2.01683e-10)
(1.2956 -0.106595 5.25735e-07)
(1.29562 -0.106461 -0.0200128)
(1.74103 0.144428 0.0169023)
(1.74108 0.144509 -4.71315e-07)
(1.74108 0.144515 1.87254e-10)
(1.74108 0.144509 4.71611e-07)
(1.74103 0.144428 -0.0169023)
(0.361893 -0.308051 -0.00471156)
(0.362055 -0.307689 3.10048e-07)
(0.362092 -0.307625 -1.07041e-09)
(0.362055 -0.307689 -3.11499e-07)
(0.361894 -0.30805 0.00471156)
(0.372543 0.0962497 -0.00442756)
(0.372761 0.0965182 9.36369e-07)
(0.372785 0.0965498 -5.61854e-10)
(0.372761 0.0965184 -9.35688e-07)
(0.372543 0.09625 0.00442756)
(0.10659 -0.0191134 -0.00247152)
(0.106982 -0.0190226 -8.38499e-07)
(0.107043 -0.0190219 -8.19514e-10)
(0.106982 -0.0190226 8.39123e-07)
(0.10659 -0.0191134 0.00247152)
(-0.114399 0.0248012 -0.00324034)
(-0.114393 0.0249499 3.57633e-07)
(-0.114388 0.0249822 -4.53466e-10)
(-0.114393 0.02495 -3.59379e-07)
(-0.114399 0.0248014 0.00324034)
(0.12624 -0.214439 -0.00339424)
(0.126197 -0.214428 3.08699e-07)
(0.126182 -0.214421 6.3427e-10)
(0.126197 -0.214428 -3.08251e-07)
(0.12624 -0.214438 0.00339424)
(-0.0742335 0.173765 -0.00268268)
(-0.0742334 0.173593 2.97863e-07)
(-0.0742372 0.173573 1.65722e-09)
(-0.0742334 0.173593 -2.98995e-07)
(-0.0742335 0.173765 0.00268268)
(0.00705428 0.0449534 -0.00279911)
(0.00716243 0.0449057 1.02968e-06)
(0.00718819 0.0448865 2.53265e-10)
(0.00716254 0.0449058 -1.02902e-06)
(0.00705451 0.0449535 0.00279911)
(-0.00548826 0.0231574 -0.00317011)
(-0.00532444 0.0230232 8.90493e-07)
(-0.005286 0.02299 1.14618e-09)
(-0.00532434 0.0230232 -8.87625e-07)
(-0.00548804 0.0231574 0.00317011)
(0.0768103 0.0837828 -0.00236455)
(0.0768898 0.0837557 8.21048e-07)
(0.076906 0.0837432 -9.8386e-10)
(0.0768898 0.0837558 -8.21779e-07)
(0.0768105 0.083783 0.00236455)
(0.0101114 0.00352278 -0.00255868)
(0.0101463 0.00346629 7.64154e-07)
(0.0101567 0.00344637 -3.10554e-09)
(0.0101464 0.00346633 -7.70196e-07)
(0.0101115 0.00352286 0.00255869)
(0.035245 0.082321 -0.00223841)
(0.0353142 0.0822839 8.5001e-07)
(0.0353224 0.0822826 -3.31414e-10)
(0.0353142 0.0822841 -8.49929e-07)
(0.035245 0.0823215 0.00223841)
(-0.0956473 0.338323 -0.0028327)
(-0.0956723 0.338395 7.0705e-07)
(-0.0956761 0.338395 5.5607e-10)
(-0.0956723 0.338395 -7.05836e-07)
(-0.0956473 0.338324 0.0028327)
(2.30587 1.69815 0.00557703)
(2.30601 1.69796 -3.71054e-07)
(2.30602 1.69796 -4.73429e-10)
(2.30601 1.69796 3.70975e-07)
(2.30587 1.69815 -0.00557703)
(2.3714 1.3299 0.0112355)
(2.37144 1.33013 -3.06486e-07)
(2.37144 1.33014 -3.0274e-09)
(2.37144 1.33013 3.05043e-07)
(2.3714 1.3299 -0.0112355)
(2.74602 0.0421867 0.0090987)
(2.746 0.0422574 3.06806e-07)
(2.746 0.0422597 6.18736e-11)
(2.746 0.0422574 -3.06501e-07)
(2.74602 0.0421867 -0.0090987)
(2.747 -0.0515977 0.00905675)
(2.74697 -0.05163 3.61398e-07)
(2.74697 -0.0516282 -3.66236e-11)
(2.74697 -0.05163 -3.61384e-07)
(2.747 -0.0515977 -0.00905675)
(2.33921 0.0580071 0.010282)
(2.3392 0.0578784 -3.50152e-07)
(2.33921 0.0578788 2.85699e-11)
(2.3392 0.0578784 3.503e-07)
(2.33921 0.0580071 -0.010282)
(2.38091 -0.0181374 0.0101728)
(2.38085 -0.0181499 -3.1118e-07)
(2.38084 -0.0181513 -5.42819e-11)
(2.38085 -0.01815 3.11079e-07)
(2.38091 -0.0181374 -0.0101728)
(2.56077 0.0704945 0.0118001)
(2.56076 0.0705849 2.21429e-07)
(2.56076 0.0705865 1.71211e-13)
(2.56076 0.0705849 -2.21338e-07)
(2.56077 0.0704945 -0.0118001)
(2.52794 -0.0557276 0.0117555)
(2.52791 -0.0557153 2.53644e-07)
(2.5279 -0.0557129 -5.96858e-11)
(2.52791 -0.0557153 -2.53757e-07)
(2.52794 -0.0557276 -0.0117555)
(2.08355 0.0971458 0.0132679)
(2.08356 0.097103 -4.31753e-07)
(2.08356 0.0971051 -7.72755e-11)
(2.08356 0.097103 4.31769e-07)
(2.08355 0.0971459 -0.0132679)
(2.11086 -0.0444205 0.0131411)
(2.11081 -0.0444142 -5.46419e-07)
(2.11081 -0.0444163 -2.3071e-11)
(2.11081 -0.0444142 5.46396e-07)
(2.11086 -0.0444205 -0.0131411)
(2.25674 0.0714476 0.0152956)
(2.25664 0.0714912 5.83113e-07)
(2.25664 0.0714918 1.20474e-10)
(2.25664 0.0714912 -5.82966e-07)
(2.25674 0.0714476 -0.0152956)
(2.23527 -0.0781518 0.0152375)
(2.23516 -0.0780648 5.52804e-07)
(2.23515 -0.0780618 1.03273e-10)
(2.23516 -0.0780648 -5.52662e-07)
(2.23527 -0.0781518 -0.0152375)
(1.7742 -0.0803979 0.0165775)
(1.77419 -0.0804976 -7.34741e-07)
(1.77418 -0.0805002 3.48e-10)
(1.77419 -0.0804976 7.35078e-07)
(1.7742 -0.0803979 -0.0165775)
(1.38529 0.473725 0.0220876)
(1.38524 0.473927 1.6726e-08)
(1.38524 0.473931 8.27525e-10)
(1.38524 0.473927 -1.57645e-08)
(1.38529 0.473725 -0.0220876)
(1.32979 0.205943 0.0197305)
(1.32983 0.206077 -5.83201e-07)
(1.32983 0.20608 2.70235e-10)
(1.32983 0.206077 5.83557e-07)
(1.32979 0.205943 -0.0197305)
(1.98669 0.486574 0.0171357)
(1.98671 0.486493 1.15875e-07)
(1.98671 0.486495 1.77325e-10)
(1.98671 0.486493 -1.15663e-07)
(1.98669 0.486574 -0.0171357)
(1.95112 0.217492 0.0149088)
(1.95103 0.217641 -2.2222e-07)
(1.95103 0.217645 3.55777e-10)
(1.95103 0.217641 2.22402e-07)
(1.95112 0.217492 -0.0149088)
(2.3977 0.291907 0.0129843)
(2.39777 0.291782 -1.33037e-07)
(2.39778 0.291782 -8.87442e-10)
(2.39777 0.291782 1.32693e-07)
(2.3977 0.291907 -0.0129843)
(2.29335 0.134257 0.0114049)
(2.29332 0.13443 -3.18475e-07)
(2.29331 0.134435 -1.39574e-10)
(2.29332 0.13443 3.18372e-07)
(2.29335 0.134257 -0.0114049)
(2.63395 0.18757 0.0100175)
(2.63406 0.187368 -2.6719e-07)
(2.63407 0.187365 -2.47456e-11)
(2.63406 0.187368 2.67178e-07)
(2.63395 0.18757 -0.0100175)
(2.51933 0.0784619 0.00884588)
(2.51923 0.0785898 2.69539e-07)
(2.51922 0.0785962 1.48672e-12)
(2.51923 0.0785898 -2.69487e-07)
(2.51933 0.0784619 -0.00884588)
(2.79052 0.126689 0.00780785)
(2.79055 0.126507 1.88147e-07)
(2.79056 0.1265 -6.1832e-11)
(2.79055 0.126507 -1.88109e-07)
(2.79052 0.126689 -0.00780785)
(2.54114 0.0307329 0.00798478)
(2.54109 0.0306095 -8.1419e-09)
(2.54109 0.0306073 -1.143e-10)
(2.54109 0.0306095 7.97296e-09)
(2.54114 0.0307329 -0.00798478)
(2.56628 -0.0103707 0.00794671)
(2.5662 -0.0103964 -1.0121e-07)
(2.56619 -0.010398 -1.58986e-10)
(2.5662 -0.0103964 1.0092e-07)
(2.56628 -0.0103707 -0.00794671)
(2.79175 -0.121406 0.00778022)
(2.79172 -0.121333 -4.02844e-09)
(2.79172 -0.121329 -1.48684e-10)
(2.79172 -0.121333 3.79867e-09)
(2.79175 -0.121406 -0.00778022)
(2.51978 -0.0710723 0.00879574)
(2.5197 -0.0712365 2.91684e-07)
(2.5197 -0.0712409 -1.18748e-10)
(2.5197 -0.0712365 -2.91905e-07)
(2.51978 -0.0710723 -0.00879574)
(2.65364 -0.17596 0.00996376)
(2.65363 -0.175873 -1.69376e-08)
(2.65363 -0.17587 -1.29696e-10)
(2.65363 -0.175873 1.6691e-08)
(2.65364 -0.17596 -0.00996376)
(2.29288 -0.0991949 0.0113805)
(2.29276 -0.0993726 3.3888e-07)
(2.29276 -0.0993777 -9.56353e-11)
(2.29276 -0.0993726 -3.39061e-07)
(2.29288 -0.0991949 -0.0113805)
(2.41353 -0.267563 0.0130196)
(2.41352 -0.267446 -2.69521e-08)
(2.41352 -0.267444 -3.79445e-11)
(2.41352 -0.267446 2.68778e-08)
(2.41353 -0.267563 -0.0130196)
(1.92619 -0.171014 0.0150188)
(1.9261 -0.17113 3.00075e-08)
(1.92609 -0.171132 1.61067e-10)
(1.9261 -0.17113 -2.98769e-08)
(1.92619 -0.171014 -0.0150188)
(1.98125 -0.478724 0.0173901)
(1.9813 -0.47861 -2.63489e-07)
(1.98131 -0.478608 1.3873e-09)
(1.9813 -0.47861 2.641e-07)
(1.98125 -0.478724 -0.0173901)
(2.78183 -0.162256 0.00838517)
(2.78171 -0.162425 2.07483e-07)
(2.7817 -0.162433 -1.24957e-10)
(2.78171 -0.162425 -2.07706e-07)
(2.78183 -0.162256 -0.00838517)
(2.4261 -0.237923 0.00940931)
(2.42613 -0.23781 -1.01115e-07)
(2.42613 -0.237806 -1.29122e-10)
(2.42613 -0.23781 1.00867e-07)
(2.4261 -0.237923 -0.00940931)
(2.6416 -0.24769 0.0106055)
(2.64148 -0.247833 1.78362e-07)
(2.64147 -0.247839 -9.60609e-11)
(2.64148 -0.247833 -1.78553e-07)
(2.6416 -0.24769 -0.0106055)
(2.15594 -0.378914 0.0119509)
(2.15595 -0.378804 1.02057e-07)
(2.15595 -0.3788 -4.16081e-11)
(2.15595 -0.378804 -1.02165e-07)
(2.15594 -0.378914 -0.0119509)
(2.41575 -0.429194 0.0134253)
(2.41564 -0.429329 1.97968e-07)
(2.41564 -0.429329 9.81194e-12)
(2.41564 -0.429329 -1.97999e-07)
(2.41575 -0.429194 -0.0134253)
(1.76471 -0.641916 0.0149973)
(1.76479 -0.641762 -1.35687e-07)
(1.76478 -0.641757 1.21312e-10)
(1.76479 -0.641762 1.35695e-07)
(1.76471 -0.641916 -0.0149973)
(2.06507 -0.821308 0.0162434)
(2.06499 -0.821407 1.50167e-08)
(2.06499 -0.821403 -7.39579e-11)
(2.06499 -0.821407 -1.52073e-08)
(2.06507 -0.821308 -0.0162434)
(1.11596 -0.945137 0.0186807)
(1.11592 -0.945085 3.3773e-07)
(1.11591 -0.945078 -1.38026e-10)
(1.11592 -0.945085 -3.37998e-07)
(1.11596 -0.945137 -0.0186807)
(1.21405 0.990637 0.018392)
(1.214 0.990632 1.47088e-07)
(1.214 0.990627 -5.7171e-11)
(1.214 0.990632 -1.46967e-07)
(1.21405 0.990637 -0.018392)
(2.00918 0.824947 0.016091)
(2.00926 0.824966 -8.72038e-08)
(2.00926 0.824962 6.89205e-11)
(2.00926 0.824966 8.73197e-08)
(2.00918 0.824947 -0.016091)
(2.60786 -0.169245 0.00745354)
(2.60791 -0.16913 -3.41486e-07)
(2.60791 -0.169124 -1.5864e-10)
(2.60791 -0.16913 3.41157e-07)
(2.60786 -0.169245 -0.00745354)
(1.83142 0.643784 0.0148988)
(1.8314 0.643715 9.58161e-08)
(1.8314 0.643712 2.49503e-10)
(1.8314 0.643715 -9.55422e-08)
(1.83142 0.643784 -0.0148988)
(2.35364 0.441445 0.0133231)
(2.35363 0.441513 1.17432e-07)
(2.35364 0.441515 1.47469e-10)
(2.35363 0.441513 -1.17238e-07)
(2.35364 0.441445 -0.0133231)
(2.19564 0.394375 0.0120702)
(2.19566 0.39432 -4.25973e-08)
(2.19566 0.394318 -1.82704e-10)
(2.19566 0.39432 4.24822e-08)
(2.19564 0.394375 -0.0120702)
(2.5892 0.253861 0.0107138)
(2.58925 0.253981 -3.93841e-07)
(2.58925 0.253988 -1.04188e-10)
(2.58925 0.253981 3.93725e-07)
(2.5892 0.253861 -0.0107138)
(2.44711 0.25866 0.00949093)
(2.4472 0.25862 -3.86234e-07)
(2.44721 0.258617 -4.3836e-11)
(2.4472 0.25862 3.8618e-07)
(2.44711 0.25866 -0.00949093)
(2.74788 0.156894 0.00842531)
(2.74783 0.157006 3.01095e-07)
(2.74783 0.157013 -3.91572e-11)
(2.74783 0.157006 -3.01141e-07)
(2.74788 0.156894 -0.00842531)
(0.134955 0.188806 -0.00231108)
(0.134972 0.188786 7.30839e-07)
(0.134975 0.188779 1.70705e-09)
(0.134972 0.188786 -7.31374e-07)
(0.134955 0.188806 0.00231108)
(0.166782 0.19553 -0.00233896)
(0.166843 0.195552 7.59053e-07)
(0.166843 0.195546 1.65681e-09)
(0.166843 0.195552 -7.5692e-07)
(0.166782 0.19553 0.00233896)
(-0.0650052 0.0155649 -0.00257415)
(-0.0650234 0.0155112 7.75927e-07)
(-0.0650277 0.0154992 -2.06447e-09)
(-0.0650234 0.0155113 -7.80456e-07)
(-0.0650052 0.0155652 0.00257416)
(0.103825 0.00151807 -0.00241936)
(0.103886 0.00141569 7.48039e-07)
(0.103894 0.00139361 -3.59908e-09)
(0.103886 0.00141577 -7.51827e-07)
(0.103825 0.00151823 0.00241937)
(0.142163 0.10965 -0.00223584)
(0.142206 0.109651 7.6263e-07)
(0.142212 0.109645 3.42168e-09)
(0.142206 0.109651 -7.52354e-07)
(0.142163 0.10965 0.00223582)
(-0.102369 -0.00939108 -0.00360939)
(-0.102197 -0.00945198 1.11321e-06)
(-0.102157 -0.00947355 2.397e-09)
(-0.102197 -0.00945194 -1.11008e-06)
(-0.102368 -0.00939102 0.00360939)
(-0.164949 0.0325613 -0.0038728)
(-0.164772 0.0324707 1.10871e-06)
(-0.164728 0.0324449 1.83366e-09)
(-0.164772 0.0324707 -1.10524e-06)
(-0.164949 0.0325613 0.00387279)
(2.62943 0.168399 0.00746832)
(2.62942 0.168342 2.47943e-07)
(2.62943 0.168339 -8.78953e-11)
(2.62942 0.168342 -2.48055e-07)
(2.62943 0.168399 -0.00746832)
(2.8497 0.10738 0.00666499)
(2.84963 0.107474 4.80627e-07)
(2.84963 0.10748 -1.22696e-10)
(2.84963 0.107474 -4.80717e-07)
(2.8497 0.10738 -0.00666499)
(2.66669 0.0530269 0.00695481)
(2.66656 0.0531667 5.41913e-07)
(2.66656 0.0531728 -1.63134e-10)
(2.66656 0.0531667 -5.42168e-07)
(2.66669 0.0530269 -0.00695481)
(2.87535 0.0366684 0.00711933)
(2.8753 0.0367506 4.62733e-07)
(2.87529 0.0367537 -1.96581e-10)
(2.8753 0.0367506 -4.63088e-07)
(2.87535 0.0366685 -0.00711933)
(2.87116 -0.0440538 0.0071284)
(2.87111 -0.0440743 4.25456e-07)
(2.87111 -0.0440722 -1.97711e-10)
(2.87111 -0.0440743 -4.25836e-07)
(2.87116 -0.0440538 -0.0071284)
(2.6733 -0.0514925 0.00696066)
(2.67325 -0.0515758 2.83823e-07)
(2.67324 -0.0515782 -1.67669e-10)
(2.67325 -0.0515758 -2.8416e-07)
(2.6733 -0.0514925 -0.00696066)
(2.87261 -0.118158 0.00669436)
(2.87252 -0.11826 3.00504e-07)
(2.87251 -0.118266 -1.38219e-10)
(2.87252 -0.11826 -3.00804e-07)
(2.87261 -0.118158 -0.00669436)
(2.81796 -0.14629 0.0063045)
(2.81791 -0.14627 3.64887e-07)
(2.81791 -0.146272 -9.06751e-11)
(2.81791 -0.14627 -3.65092e-07)
(2.81796 -0.14629 -0.0063045)
(2.71021 -0.245247 0.00700025)
(2.71031 -0.245295 -3.72331e-07)
(2.71032 -0.245295 -1.26302e-10)
(2.71031 -0.245295 3.72048e-07)
(2.71021 -0.245247 -0.00700025)
(2.68376 -0.215547 0.00781084)
(2.68371 -0.215492 2.36026e-07)
(2.68371 -0.215493 -1.17258e-10)
(2.68371 -0.215492 -2.36276e-07)
(2.68376 -0.215547 -0.00781084)
(2.59734 -0.343786 0.00867306)
(2.59736 -0.343856 1.46875e-07)
(2.59737 -0.343858 -1.03598e-10)
(2.59736 -0.343856 -1.47087e-07)
(2.59734 -0.343786 -0.00867306)
(2.49948 -0.334283 0.00962512)
(2.49945 -0.334197 2.06465e-07)
(2.49945 -0.334199 -7.3242e-11)
(2.49945 -0.334197 -2.06618e-07)
(2.49948 -0.334283 -0.00962512)
(2.45632 -0.510776 0.0106124)
(2.45637 -0.51087 -8.80062e-08)
(2.45638 -0.51087 -3.40969e-11)
(2.45637 -0.51087 8.79048e-08)
(2.45632 -0.510775 -0.0106124)
(2.22784 -0.558939 0.0116349)
(2.22783 -0.558849 1.36404e-07)
(2.22783 -0.558849 -5.31091e-11)
(2.22783 -0.558849 -1.36523e-07)
(2.22784 -0.558939 -0.0116349)
(2.31003 -0.808329 0.0123778)
(2.31008 -0.808507 -3.45786e-07)
(2.31009 -0.808512 -9.19198e-11)
(2.31008 -0.808507 3.45544e-07)
(2.31003 -0.808329 -0.0123778)
(1.82051 -1.0145 0.0126543)
(1.82051 -1.01429 1.91971e-08)
(1.82051 -1.01428 -7.64815e-11)
(1.82051 -1.01429 -1.94349e-08)
(1.82051 -1.0145 -0.0126543)
(2.36588 -1.37348 0.0115131)
(2.36575 -1.37366 2.69703e-07)
(2.36575 -1.37366 -9.28458e-11)
(2.36575 -1.37366 -2.7001e-07)
(2.36588 -1.37348 -0.0115131)
(2.75654 0.133571 0.00597315)
(2.75654 0.133469 2.3787e-07)
(2.75655 0.133462 -1.38034e-10)
(2.75654 0.133469 -2.3803e-07)
(2.75654 0.133571 -0.00597315)
(2.89157 0.0934881 0.00621897)
(2.89159 0.0933476 1.42672e-07)
(2.89159 0.0933399 -1.65353e-10)
(2.89159 0.0933476 -1.42964e-07)
(2.89157 0.0934881 -0.00621897)
(2.68728 0.0140679 0.00635501)
(2.68723 0.0139875 6.76557e-08)
(2.68723 0.0139847 -1.74071e-10)
(2.68723 0.0139875 -6.79877e-08)
(2.68728 0.0140679 -0.00635501)
(2.68716 -0.0109302 0.00635797)
(2.68707 -0.0109339 -2.18997e-08)
(2.68707 -0.0109349 -1.61625e-10)
(2.68707 -0.0109339 2.15731e-08)
(2.68716 -0.0109302 -0.00635797)
(2.8846 -0.096727 0.006248)
(2.88458 -0.0966472 -3.73195e-08)
(2.88458 -0.0966423 -1.33473e-10)
(2.88458 -0.0966472 3.70383e-08)
(2.8846 -0.096727 -0.006248)
(2.74188 -0.128387 0.00599837)
(2.74188 -0.128275 -3.77483e-08)
(2.74189 -0.128267 -1.0021e-10)
(2.74188 -0.128275 3.75266e-08)
(2.74188 -0.128387 -0.00599837)
(2.78728 -0.190429 0.0056508)
(2.78731 -0.190458 2.01973e-07)
(2.78732 -0.190455 -6.24805e-11)
(2.78731 -0.190458 -2.02125e-07)
(2.78728 -0.190429 -0.0056508)
(1.83772 1.03365 0.0126185)
(1.83776 1.03344 1.05041e-07)
(1.83777 1.03344 -1.9553e-10)
(1.83776 1.03344 -1.05158e-07)
(1.83772 1.03365 -0.0126185)
(2.34475 0.764883 0.0120819)
(2.34472 0.765123 -2.10974e-07)
(2.34473 0.765131 1.18258e-09)
(2.34472 0.765123 2.11531e-07)
(2.34475 0.764883 -0.0120819)
(2.2346 0.601105 0.0114659)
(2.23469 0.60094 2.46069e-08)
(2.2347 0.600938 1.92056e-10)
(2.23469 0.60094 -2.43833e-08)
(2.2346 0.601105 -0.0114659)
(2.47352 0.48146 0.0106309)
(2.47353 0.481633 -2.61069e-07)
(2.47354 0.481639 -2.82043e-11)
(2.47353 0.481633 2.61082e-07)
(2.47352 0.48146 -0.0106309)
(2.47161 0.362771 0.00973387)
(2.47171 0.362603 -1.2163e-07)
(2.47172 0.362602 -8.1093e-11)
(2.47171 0.362603 1.21527e-07)
(2.47161 0.362771 -0.00973387)
(2.60982 0.330808 0.00874537)
(2.60985 0.33102 -4.4564e-07)
(2.60985 0.331027 -3.68018e-11)
(2.60985 0.33102 4.45579e-07)
(2.60982 0.330808 -0.00874537)
(2.65493 0.229835 0.00783661)
(2.65499 0.229733 1.18993e-07)
(2.65501 0.229731 -3.55781e-11)
(2.65499 0.229733 -1.19042e-07)
(2.65493 0.229835 -0.00783661)
(2.74305 0.219601 0.00698823)
(2.74302 0.219776 6.25045e-09)
(2.74303 0.219781 -9.77406e-11)
(2.74302 0.219776 -6.40016e-09)
(2.74305 0.219601 -0.00698823)
(2.79397 0.154661 0.00627066)
(2.79398 0.154549 3.53892e-07)
(2.79399 0.154547 -1.51122e-10)
(2.79398 0.154549 -3.54112e-07)
(2.79397 0.154661 -0.00627066)
(2.81283 0.17502 0.00564697)
(2.81282 0.175124 1.0264e-07)
(2.81282 0.175125 -1.56133e-10)
(2.81282 0.175124 -1.0288e-07)
(2.81283 0.17502 -0.00564697)
(0.0587223 0.140147 -0.0024309)
(0.0587197 0.140151 6.69735e-07)
(0.0587142 0.140144 3.92195e-10)
(0.0587197 0.140151 -6.68056e-07)
(0.0587222 0.140147 0.00243089)
(-0.118093 0.0876623 -0.00285193)
(-0.118119 0.0876467 6.75404e-07)
(-0.118124 0.0876459 2.92786e-09)
(-0.118119 0.0876469 -6.69948e-07)
(-0.118093 0.0876626 0.00285193)
(-0.106913 0.206877 -0.00396133)
(-0.106679 0.206803 1.31654e-06)
(-0.106625 0.206774 1.52427e-09)
(-0.106679 0.206803 -1.31318e-06)
(-0.106913 0.206877 0.00396133)
(0.0641994 0.228907 -0.00324294)
(0.0643325 0.228801 1.26739e-06)
(0.0643626 0.228769 5.32142e-10)
(0.0643326 0.228801 -1.26548e-06)
(0.0641996 0.228907 0.00324294)
(0.117504 0.113683 -0.0026676)
(0.117629 0.113608 9.93698e-07)
(0.117659 0.113586 -5.34344e-11)
(0.117629 0.113608 -9.93368e-07)
(0.117504 0.113683 0.0026676)
(0.0438543 0.171809 -0.00250209)
(0.0438933 0.171744 7.41573e-07)
(0.0439012 0.171724 1.95263e-09)
(0.0438933 0.171744 -7.41131e-07)
(0.0438544 0.171809 0.00250208)
(0.127635 0.150956 -0.00223507)
(0.1277 0.150904 7.86429e-07)
(0.127705 0.150886 5.3592e-09)
(0.1277 0.150904 -7.81286e-07)
(0.127635 0.150956 0.00223506)
(0.00039608 0.0590021 -0.00238098)
(0.000380424 0.0589516 7.35846e-07)
(0.000372592 0.0589408 4.61777e-09)
(0.0003804 0.0589517 -7.29117e-07)
(0.000396026 0.0590022 0.00238096)
(0.0868748 0.0762911 -0.0019659)
(0.0869491 0.0762907 8.05976e-07)
(0.0869585 0.0762859 1.40821e-09)
(0.0869492 0.0762909 -8.02502e-07)
(0.0868748 0.0762914 0.0019659)
(0.148325 -0.0265009 -0.00197094)
(0.148421 -0.026562 7.32755e-07)
(0.148437 -0.0265731 -4.38072e-09)
(0.148421 -0.0265619 -7.30974e-07)
(0.148325 -0.0265007 0.00197094)
(0.182817 -0.0114069 -0.00201558)
(0.182911 -0.0114258 7.66017e-07)
(0.182931 -0.0114387 -4.17697e-09)
(0.182911 -0.0114258 -7.67885e-07)
(0.182817 -0.0114068 0.00201558)
(0.138342 -0.053694 -0.00229811)
(0.138453 -0.0536706 7.90979e-07)
(0.138478 -0.0536742 -1.82571e-09)
(0.138453 -0.0536705 -7.92407e-07)
(0.138342 -0.0536939 0.00229811)
(0.0802203 -0.0653658 -0.00263577)
(0.080361 -0.0654327 8.56198e-07)
(0.080391 -0.0654524 -5.29266e-11)
(0.0803611 -0.0654327 -8.56029e-07)
(0.0802205 -0.0653656 0.00263577)
(-0.0649114 -0.152846 -0.00331295)
(-0.0647099 -0.152889 1.12634e-06)
(-0.0646589 -0.1529 1.49995e-09)
(-0.0647097 -0.152889 -1.12417e-06)
(-0.064911 -0.152846 0.00331295)
(-0.249374 -0.216281 -0.00458899)
(-0.24916 -0.216348 1.10832e-06)
(-0.249106 -0.216368 3.01466e-09)
(-0.24916 -0.216348 -1.10505e-06)
(-0.249374 -0.216281 0.00458898)
(-0.273027 -0.0432303 -0.0047616)
(-0.272811 -0.0433011 1.14011e-06)
(-0.27276 -0.0433251 3.09235e-09)
(-0.272811 -0.0433012 -1.13574e-06)
(-0.273026 -0.0432304 0.00476159)
(-0.278627 0.0587596 -0.00500825)
(-0.278401 0.058658 1.23678e-06)
(-0.278349 0.0586273 2.72384e-09)
(-0.278401 0.0586579 -1.23205e-06)
(-0.278627 0.0587594 0.00500824)
(-0.241657 0.231512 -0.00521696)
(-0.241411 0.231423 1.54174e-06)
(-0.241354 0.231392 1.82507e-09)
(-0.241411 0.231423 -1.53835e-06)
(-0.241656 0.231512 0.00521695)
(-0.18409 0.371126 -0.00559395)
(-0.183882 0.371021 1.77755e-06)
(-0.183832 0.370981 8.99303e-10)
(-0.183882 0.371021 -1.77617e-06)
(-0.184089 0.371126 0.00559395)
(-0.031254 0.317656 -0.00424793)
(-0.0310845 0.317466 9.92355e-07)
(-0.0310434 0.317415 2.94624e-10)
(-0.0310844 0.317466 -9.91631e-07)
(-0.0312537 0.317656 0.00424793)
(0.00850504 0.211401 -0.00328447)
(0.00856934 0.211199 1.37434e-06)
(0.00858659 0.211142 1.5396e-09)
(0.00856942 0.211198 -1.37217e-06)
(0.00850522 0.2114 0.00328446)
(0.0392165 0.0547304 -0.00303321)
(0.0392346 0.0545095 1.02162e-07)
(0.0392408 0.0544559 3.02149e-10)
(0.0392347 0.0545095 -1.00422e-07)
(0.0392166 0.0547303 0.00303321)
(0.0908755 -0.0932306 -0.00282215)
(0.0908993 -0.0933777 -1.81124e-06)
(0.0909044 -0.0934215 -7.344e-11)
(0.0908994 -0.0933777 1.81167e-06)
(0.0908756 -0.0932306 0.00282215)
(0.0811456 -0.0766734 -0.00272051)
(0.0811911 -0.0768032 -6.57193e-08)
(0.0811933 -0.0768336 3.77098e-10)
(0.0811911 -0.0768032 6.54922e-08)
(0.0811456 -0.0766734 0.00272051)
(0.0174945 -0.154309 -0.00283993)
(0.0175018 -0.154366 4.67509e-07)
(0.0174951 -0.154378 3.98876e-09)
(0.0175018 -0.154365 -4.60614e-07)
(0.0174945 -0.154309 0.00283992)
(0.0207533 0.192717 -0.00269186)
(0.0208182 0.19269 7.4119e-07)
(0.0208205 0.192683 -6.15594e-09)
(0.0208181 0.19269 -7.4774e-07)
(0.0207532 0.192718 0.00269187)
(-0.22718 0.0835932 -0.00290557)
(-0.227085 0.0836985 1.16687e-06)
(-0.227075 0.0837166 -8.76456e-10)
(-0.227085 0.0836986 -1.16671e-06)
(-0.22718 0.0835934 0.00290557)
(-0.458374 -0.225241 -0.00611421)
(-0.458132 -0.225329 1.11038e-06)
(-0.458074 -0.225359 3.77844e-09)
(-0.458132 -0.225329 -1.10574e-06)
(-0.458374 -0.225241 0.0061142)
(-0.457386 -0.0617259 -0.00612612)
(-0.457139 -0.0617919 1.24658e-06)
(-0.457084 -0.061819 3.18503e-09)
(-0.457139 -0.061792 -1.24105e-06)
(-0.457386 -0.061726 0.00612612)
(-0.479633 0.0624183 -0.00635724)
(-0.479387 0.0623353 1.33971e-06)
(-0.479332 0.0623107 2.6274e-09)
(-0.479387 0.0623352 -1.33436e-06)
(-0.479632 0.0624181 0.00635723)
(-0.459485 0.238422 -0.00679072)
(-0.459224 0.238371 1.66136e-06)
(-0.459162 0.238347 1.55292e-09)
(-0.459224 0.238371 -1.65837e-06)
(-0.459485 0.238422 0.00679071)
(-0.331001 0.383814 -0.00766767)
(-0.330763 0.383805 1.85156e-06)
(-0.330711 0.383783 4.29074e-10)
(-0.330763 0.383805 -1.84988e-06)
(-0.331 0.383814 0.00766767)
(0.175399 0.317562 -0.00208141)
(0.175413 0.317541 6.30827e-07)
(0.175419 0.31754 -2.93467e-09)
(0.175414 0.317541 -6.32538e-07)
(0.175399 0.317562 0.00208142)
(0.194573 0.212421 -0.00207581)
(0.194566 0.212459 5.71041e-07)
(0.194563 0.21246 -2.60912e-10)
(0.194566 0.21246 -5.70118e-07)
(0.194574 0.212421 0.00207581)
(0.200572 0.0646364 -0.00208695)
(0.200597 0.0646165 7.91451e-07)
(0.200609 0.0646133 -3.90566e-09)
(0.200598 0.0646166 -7.93009e-07)
(0.200572 0.0646366 0.00208696)
(0.166345 -0.0364408 -0.00217569)
(0.166423 -0.0364423 8.90433e-07)
(0.166442 -0.036443 -2.26873e-09)
(0.166424 -0.0364422 -8.91196e-07)
(0.166346 -0.0364406 0.00217569)
(0.0961644 -0.143503 -0.0025827)
(0.0962841 -0.143512 1.0045e-06)
(0.0963136 -0.143516 -6.12102e-10)
(0.0962842 -0.143512 -1.00509e-06)
(0.0961647 -0.143503 0.0025827)
(-0.0750846 -0.243033 -0.00328984)
(-0.0748997 -0.243075 1.15508e-06)
(-0.0748536 -0.243086 -2.72698e-10)
(-0.0748995 -0.243074 -1.1556e-06)
(-0.0750842 -0.243033 0.00328984)
(-0.218175 -0.339515 -0.00468141)
(-0.217972 -0.339618 1.13148e-06)
(-0.21792 -0.339642 1.60827e-09)
(-0.217972 -0.339618 -1.12894e-06)
(-0.218175 -0.339515 0.00468141)
(-0.44912 -0.356475 -0.00661784)
(-0.448887 -0.356632 1.13622e-06)
(-0.448832 -0.356671 1.93571e-09)
(-0.448886 -0.356632 -1.13238e-06)
(-0.449119 -0.356475 0.00661783)
(0.299376 0.497868 -0.00245549)
(0.299466 0.497968 8.02113e-07)
(0.299468 0.497971 -5.53486e-09)
(0.299466 0.497968 -8.06218e-07)
(0.299376 0.497869 0.0024555)
(0.136361 0.531484 -0.00838171)
(0.136526 0.531557 2.43421e-06)
(0.136565 0.531553 1.11079e-09)
(0.136526 0.531557 -2.43263e-06)
(0.136361 0.531484 0.00838171)
(0.190498 0.528615 -0.00568311)
(0.190779 0.528508 2.43774e-06)
(0.190832 0.528475 -9.04969e-10)
(0.190779 0.528508 -2.43761e-06)
(0.190498 0.528615 0.00568311)
(0.274087 0.441706 -0.00376078)
(0.2744 0.441428 2.10661e-06)
(0.274464 0.441372 -6.85578e-11)
(0.2744 0.441428 -2.1079e-06)
(0.274088 0.441706 0.00376079)
(0.323599 0.325199 -0.00248675)
(0.323847 0.324913 1.42159e-06)
(0.323902 0.324858 5.43943e-10)
(0.323847 0.324913 -1.4194e-06)
(0.323599 0.325198 0.00248675)
(0.359418 0.223436 -0.00170547)
(0.359551 0.223269 -1.30367e-07)
(0.359593 0.223234 6.49635e-10)
(0.359552 0.223269 1.33161e-07)
(0.359418 0.223436 0.00170547)
(0.371506 0.213935 -0.00155379)
(0.371587 0.213887 -8.95296e-06)
(0.371599 0.213862 -2.31474e-09)
(0.371587 0.213887 8.94519e-06)
(0.371507 0.213935 0.0015538)
(0.214767 0.169971 -0.00143833)
(0.21475 0.169892 -4.01676e-07)
(0.214732 0.169862 -2.1277e-09)
(0.21475 0.169892 3.9624e-07)
(0.214767 0.169971 0.00143834)
(0.121215 0.145877 -0.00229468)
(0.121203 0.145727 2.85648e-07)
(0.121184 0.145699 -2.21122e-10)
(0.121203 0.145727 -2.86673e-07)
(0.121215 0.145878 0.00229468)
(0.125074 0.557332 -0.00337077)
(0.125242 0.557214 1.24893e-06)
(0.125269 0.55719 -9.33507e-10)
(0.125242 0.557215 -1.25006e-06)
(0.125074 0.557332 0.00337077)
(-0.590042 -0.275055 -0.00869027)
(-0.589882 -0.275239 9.06289e-07)
(-0.589841 -0.275289 1.1441e-10)
(-0.589882 -0.275239 -9.03602e-07)
(-0.590041 -0.275055 0.00869027)
(-0.624162 -0.17923 -0.0076709)
(-0.623968 -0.179336 9.03766e-07)
(-0.623923 -0.17937 4.28091e-09)
(-0.623967 -0.179337 -8.98826e-07)
(-0.624162 -0.17923 0.0076709)
(-0.602855 -0.0621852 -0.00739)
(-0.602675 -0.0622505 9.30797e-07)
(-0.602628 -0.0622768 2.46518e-09)
(-0.602675 -0.0622507 -9.25983e-07)
(-0.602854 -0.0621855 0.00739)
(-0.612026 0.0312469 -0.00767617)
(-0.611821 0.0311855 1.12262e-06)
(-0.611769 0.0311664 1.3376e-09)
(-0.61182 0.0311853 -1.11953e-06)
(-0.612026 0.0312467 0.00767616)
(-0.608755 0.153796 -0.0084595)
(-0.608542 0.153779 1.54389e-06)
(-0.608489 0.153768 3.89149e-11)
(-0.608542 0.153778 -1.54306e-06)
(-0.608755 0.153796 0.0084595)
(-0.467183 0.258668 -0.00998174)
(-0.46706 0.258733 1.65014e-06)
(-0.467027 0.258733 5.65495e-10)
(-0.46706 0.258733 -1.64975e-06)
(-0.467183 0.258668 0.00998174)
(0.0914548 0.380218 -0.0115217)
(0.0914237 0.380438 1.81407e-06)
(0.0914302 0.380462 1.30172e-09)
(0.0914238 0.380437 -1.81156e-06)
(0.0914548 0.380218 0.0115217)
(0.141726 0.267318 -0.00172623)
(0.141811 0.267536 8.18968e-07)
(0.141808 0.26756 1.11736e-10)
(0.141811 0.267537 -8.19388e-07)
(0.141726 0.267318 0.00172623)
(0.150523 -0.0119931 -0.00123382)
(0.150635 -0.0121081 9.00524e-07)
(0.150641 -0.0121197 -3.72596e-10)
(0.150635 -0.0121079 -9.01203e-07)
(0.150523 -0.0119927 0.00123382)
(0.277479 -0.0617589 -0.00114968)
(0.277575 -0.0618693 6.52609e-07)
(0.277581 -0.0618832 -3.76682e-10)
(0.277575 -0.0618692 -6.5173e-07)
(0.277479 -0.0617587 0.00114967)
(0.226896 -0.0523875 -0.00100591)
(0.226919 -0.0523988 6.75598e-07)
(0.226924 -0.0524053 -5.02341e-10)
(0.226919 -0.0523987 -6.75265e-07)
(0.226896 -0.0523873 0.00100591)
(0.206122 -0.0697565 -0.00104561)
(0.206189 -0.0696686 8.24623e-07)
(0.2062 -0.0696661 1.01826e-09)
(0.206189 -0.0696685 -8.23936e-07)
(0.206121 -0.0697562 0.00104561)
(0.135113 -0.187769 -0.00137425)
(0.13512 -0.187635 8.96032e-07)
(0.135133 -0.187623 -3.71591e-10)
(0.13512 -0.187634 -8.96595e-07)
(0.135113 -0.187769 0.00137425)
(0.120177 -0.350455 -0.00178428)
(0.120276 -0.350356 1.05497e-06)
(0.120303 -0.350349 8.46755e-10)
(0.120276 -0.350356 -1.05601e-06)
(0.120178 -0.350455 0.00178428)
(0.0590705 -0.480523 -0.0026947)
(0.059266 -0.480475 1.53312e-06)
(0.0593091 -0.480476 -1.48901e-08)
(0.0592662 -0.480475 -1.53828e-06)
(0.0590708 -0.480523 0.00269472)
(-0.0422134 -0.563917 -0.00445223)
(-0.0419536 -0.563962 1.59307e-06)
(-0.0418988 -0.56398 3.84006e-09)
(-0.0419533 -0.563962 -1.58965e-06)
(-0.0422129 -0.563917 0.00445223)
(-0.203381 -0.56659 -0.00703955)
(-0.203195 -0.566753 1.22302e-06)
(-0.203149 -0.566794 1.37851e-09)
(-0.203195 -0.566753 -1.21862e-06)
(-0.20338 -0.56659 0.00703954)
(-0.34398 -0.442761 -0.0100773)
(-0.34392 -0.442981 7.19784e-07)
(-0.34389 -0.443039 1.15986e-09)
(-0.34392 -0.442981 -7.16051e-07)
(-0.34398 -0.442761 0.0100773)
(-0.0210144 0.168915 -0.00264793)
(-0.0209199 0.169057 5.12872e-07)
(-0.0209162 0.169063 -2.67171e-10)
(-0.0209199 0.169057 -5.1305e-07)
(-0.0210143 0.168915 0.00264793)
(0.497829 -0.391265 -0.00394573)
(0.498057 -0.391195 -4.19209e-07)
(0.498107 -0.391154 -1.79348e-09)
(0.498057 -0.391194 4.17111e-07)
(0.497829 -0.391265 0.00394573)
(0.504935 -0.580564 -0.00318886)
(0.505304 -0.580628 4.19806e-07)
(0.505367 -0.580631 -2.18911e-09)
(0.505304 -0.580628 -4.22282e-07)
(0.504935 -0.580564 0.00318886)
(0.410085 -0.446051 -0.00274617)
(0.410381 -0.44624 2.07062e-06)
(0.410434 -0.446299 9.4088e-10)
(0.410381 -0.44624 -2.07142e-06)
(0.410085 -0.446051 0.00274617)
(0.432244 -0.232407 -0.00282121)
(0.432308 -0.232679 9.60257e-06)
(0.432326 -0.232761 6.99603e-09)
(0.432308 -0.23268 -9.59018e-06)
(0.432244 -0.232407 0.00282119)
(0.544221 0.0489666 -0.00269368)
(0.544079 0.0486788 1.20516e-06)
(0.544067 0.0485932 2.75959e-09)
(0.544079 0.0486786 -1.19984e-06)
(0.544221 0.0489664 0.00269367)
(0.69195 0.283245 -0.00275483)
(0.691944 0.282898 1.09589e-06)
(0.691941 0.28282 -1.46916e-09)
(0.691944 0.282898 -1.09617e-06)
(0.69195 0.283245 0.00275483)
(0.863405 0.430492 -0.00368807)