x,y,z,p
0,0,0,0.00029481
0,0.1,0,0.000733913
0,0.2,0,0.00117302
0,0.3,0,0.00175961
0,0.4,0,0.0023462
0,0.5,0,0.00293292
0,0.6,0,0.00351963
0,0.7,0,0.00410639
0,0.8,0,0.00469314
0,0.9,0,0.00527969
0,1,0,0.00586624
0,1.1,0,0.00645212
0,1.2,0,0.007038
0,1.3,0,0.00762252
0,1.4,0,0.00820703
0,1.5,0,0.00878919
0,1.6,0,0.00937134
0,1.7,0,0.0099498
0,1.8,0,0.0105283
0,1.9,0,0.0111013
0,2,0,0.0116744
0,2.1,0,0.01224
0,2.2,0,0.0128057
0,2.3,0,0.0133613
0,2.4,0,0.0139171
0,2.5,0,0.01446
0,2.6,0,0.0150029
0,2.7,0,0.0155297
0,2.8,0,0.0160566
0,2.9,0,0.0165639
0,3,0,0.0170712
0,3.1,0,0.017555
0,3.2,0,0.0180388
0,3.3,0,0.0184951
0,3.4,0,0.0189514
0,3.5,0,0.019376
0,3.6,0,0.0198007
0,3.7,0,0.0201895
0,3.8,0,0.0205783
0,3.9,0,0.0209274
0,4,0,0.0212764
0,4.1,0,0.021582
0,4.2,0,0.0218875
0,4.3,0,0.0221464
0,4.4,0,0.0224053
0,4.5,0,0.0226148
0,4.6,0,0.0228244
0,4.7,0,0.0229826
0,4.8,0,0.0231408
0,4.9,0,0.0232465
0,5,0,0.0233522
0,5.1,0,0.023405
0,5.2,0,0.0234578
0,5.3,0,0.0234581
0,5.4,0,0.0234583
0,5.5,0,0.0234075
0,5.6,0,0.0233566
0,5.7,0,0.0232567
0,5.8,0,0.0231568
0,5.9,0,0.0229837
0,6,0,0.0228107
0,6.1,0,0.0226244
0,6.2,0,0.0224381
0,6.3,0,0.0222518
0,6.4,0,0.0220157
0,6.5,0,0.0217528
0,6.6,0,0.0214898
0,6.7,0,0.0212123
0,6.8,0,0.0209008
0,6.9,0,0.0205892
0,7,0,0.0202777
0,7.1,0,0.0199314
0,7.2,0,0.0195833
0,7.3,0,0.0192352
0,7.4,0,0.018872
0,7.5,0,0.0184986
0,7.6,0,0.0181253
0,7.7,0,0.0177481
0,7.8,0,0.0173593
0,7.9,0,0.0169705
0,8,0,0.0165817
0,8.1,0,0.0161863
0,8.2,0,0.0157902
0,8.3,0,0.0153941
0,8.4,0,0.0149975
0,8.5,0,0.0146005
0,8.6,0,0.0142035
0,8.7,0,0.0138073
0,8.8,0,0.0134142
0,8.9,0,0.0130211
0,9,0,0.012628
0,9.1,0,0.012241
0,9.2,0,0.0118551
0,9.3,0,0.0114691
0,9.4,0,0.0110878
0,9.5,0,0.0107111
0,9.6,0,0.0103344
0,9.7,0,0.00995926
0,9.8,0,0.00959286
0,9.9,0,0.00922647
0,10,0,0.00886007
0,10.1,0,0.00850214
0,10.2,0,0.00814632
0,10.3,0,0.0077905
0,10.4,0,0.00743929
0,10.5,0,0.00709372
0,10.6,0,0.00674816
0,10.7,0,0.00640354
0,10.8,0,0.00606743
0,10.9,0,0.00573133
0,11,0,0.00539524
0,11.1,0,0.00506539
0,11.2,0,0.00473763
0,11.3,0,0.00440987
0,11.4,0,0.00408489
0,11.5,0,0.00376408
0,11.6,0,0.00344328
0,11.7,0,0.00312274
0,11.8,0,0.00280734
0,11.9,0,0.00249194
0,12,0,0.00217654
0,12.1,0,0.00186373
0,12.2,0,0.00155204
0,12.3,0,0.00124035
0,12.4,0,0.000956076
0,12.5,0,0.000722735
0,12.6,0,0.000489394
0,12.7,0,0.000256053
0.1,0,0,0.000176886
0.1,0.1,0,0.000615968
0.1,0.2,0,0.00117296
0.1,0.3,0,0.00175956
0.1,0.4,0,0.00234612
0.1,0.5,0,0.00293287
0.1,0.6,0,0.00351959
0.1,0.7,0,0.00410641
0.1,0.8,0,0.00469322
0.1,0.9,0,0.00527984
0.1,1,0,0.00586654
0.1,1.1,0,0.0064525
0.1,1.2,0,0.00703867
0.1,1.3,0,0.00762323
0.1,1.4,0,0.00820823
0.1,1.5,0,0.00879037
0.1,1.6,0,0.00937323
0.1,1.7,0,0.00995158
0.1,1.8,0,0.010531
0.1,1.9,0,0.0111039
0.1,2,0,0.0116783
0.1,2.1,0,0.0122434
0.1,2.2,0,0.0128108
0.1,2.3,0,0.0133659
0.1,2.4,0,0.0139237
0.1,2.5,0,0.0144657
0.1,2.6,0,0.0150112
0.1,2.7,0,0.0155368
0.1,2.8,0,0.0160669
0.1,2.9,0,0.0165725
0.1,3,0,0.0170835
0.1,3.1,0,0.0175652
0.1,3.2,0,0.0180532
0.1,3.3,0,0.0185069
0.1,3.4,0,0.0189681
0.1,3.5,0,0.0193895
0.1,3.6,0,0.0198195
0.1,3.7,0,0.0202046
0.1,3.8,0,0.0205993
0.1,3.9,0,0.020944
0.1,4,0,0.0212993
0.1,4.1,0,0.0216001
0.1,4.2,0,0.0219122
0.1,4.3,0,0.0221657
0.1,4.4,0,0.0224314
0.1,4.5,0,0.0226351
0.1,4.6,0,0.0228515
0.1,4.7,0,0.0230035
0.1,4.8,0,0.0231686
0.1,4.9,0,0.0232677
0.1,5,0,0.0233802
0.1,5.1,0,0.0234261
0.1,5.2,0,0.0234855
0.1,5.3,0,0.0234789
0.1,5.4,0,0.0234854
0.1,5.5,0,0.0234276
0.1,5.6,0,0.0233826
0.1,5.7,0,0.0232759
0.1,5.8,0,0.0231813
0.1,5.9,0,0.023023
0.1,6,0,0.0228332
0.1,6.1,0,0.0226793
0.1,6.2,0,0.0225041
0.1,6.3,0,0.0222834
0.1,6.4,0,0.0220435
0.1,6.5,0,0.0217895
0.1,6.6,0,0.0215164
0.1,6.7,0,0.0212307
0.1,6.8,0,0.0209288
0.1,6.9,0,0.020614
0.1,7,0,0.0202899
0.1,7.1,0,0.0199493
0.1,7.2,0,0.0196038
0.1,7.3,0,0.019247
0.1,7.4,0,0.0188824
0.1,7.5,0,0.018512
0.1,7.6,0,0.0181349
0.1,7.7,0,0.0177534
0.1,7.8,0,0.0173664
0.1,7.9,0,0.0169769
0.1,8,0,0.0165843
0.1,8.1,0,0.0161887
0.1,8.2,0,0.0157927
0.1,8.3,0,0.015395
0.1,8.4,0,0.0149971
0.1,8.5,0,0.0145992
0.1,8.6,0,0.0142022
0.1,8.7,0,0.0138056
0.1,8.8,0,0.0134106
0.1,8.9,0,0.0130174
0.1,9,0,0.0126255
0.1,9.1,0,0.0122365
0.1,9.2,0,0.0118494
0.1,9.3,0,0.0114651
0.1,9.4,0,0.0110834
0.1,9.5,0,0.0107044
0.1,9.6,0,0.0103289
0.1,9.7,0,0.00995548
0.1,9.8,0,0.00958629
0.1,9.9,0,0.00921975
0.1,10,0,0.00885609
0.1,10.1,0,0.00849653
0.1,10.2,0,0.00813925
0.1,10.3,0,0.00778564
0.1,10.4,0,0.00743484
0.1,10.5,0,0.00708705
0.1,10.6,0,0.00674267
0.1,10.7,0,0.00640026
0.1,10.8,0,0.00606195
0.1,10.9,0,0.00572554
0.1,11,0,0.00539193
0.1,11.1,0,0.00506132
0.1,11.2,0,0.00473247
0.1,11.3,0,0.00440632
0.1,11.4,0,0.00408208
0.1,11.5,0,0.00375992
0.1,11.6,0,0.00343982
0.1,11.7,0,0.00312096
0.1,11.8,0,0.00280456
0.1,11.9,0,0.00248892
0.1,12,0,0.00217492
0.1,12.1,0,0.00186217
0.1,12.2,0,0.00155014
0.1,12.3,0,0.00123911
0.1,12.4,0,0.000928691
0.1,12.5,0,0.00061964
0.1,12.6,0,0.00038647
0.1,12.7,0,0.000153632
0.2,0,0,5.8962e-05
0.2,0.1,0,0.000586454
0.2,0.2,0,0.0011729
0.2,0.3,0,0.00175948
0.2,0.4,0,0.00234604
0.2,0.5,0,0.0029328
0.2,0.6,0,0.00351955
0.2,0.7,0,0.00410642
0.2,0.8,0,0.0046933
0.2,0.9,0,0.00528005
0.2,1,0,0.00586685
0.2,1.1,0,0.00645304
0.2,1.2,0,0.00703935
0.2,1.3,0,0.00762427
0.2,1.4,0,0.00820942
0.2,1.5,0,0.00879209
0.2,1.6,0,0.00937511
0.2,1.7,0,0.00995418
0.2,1.8,0,0.0105338
0.2,1.9,0,0.0111076
0.2,2,0,0.0116821
0.2,2.1,0,0.0122485
0.2,2.2,0,0.012816
0.2,2.3,0,0.0133725
0.2,2.4,0,0.0139304
0.2,2.5,0,0.0144741
0.2,2.6,0,0.0150196
0.2,2.7,0,0.0155473
0.2,2.8,0,0.0160771
0.2,2.9,0,0.0165851
0.2,3,0,0.0170958
0.2,3.1,0,0.0175801
0.2,3.2,0,0.0180677
0.2,3.3,0,0.0185244
0.2,3.4,0,0.0189847
0.2,3.5,0,0.0194094
0.2,3.6,0,0.0198384
0.2,3.7,0,0.0202269
0.2,3.8,0,0.0206202
0.2,3.9,0,0.0209686
0.2,4,0,0.0213223
0.2,4.1,0,0.0216267
0.2,4.2,0,0.0219369
0.2,4.3,0,0.0221941
0.2,4.4,0,0.0224575
0.2,4.5,0,0.0226649
0.2,4.6,0,0.0228787
0.2,4.7,0,0.0230343
0.2,4.8,0,0.0231964
0.2,4.9,0,0.0232989
0.2,5,0,0.0234082
0.2,5.1,0,0.0234573
0.2,5.2,0,0.0235132
0.2,5.3,0,0.0235096
0.2,5.4,0,0.0235124
0.2,5.5,0,0.0234573
0.2,5.6,0,0.0234086
0.2,5.7,0,0.0233042
0.2,5.8,0,0.0232058
0.2,5.9,0,0.0230386
0.2,6,0,0.0228557
0.2,6.1,0,0.0226904
0.2,6.2,0,0.0225018
0.2,6.3,0,0.0223028
0.2,6.4,0,0.0220629
0.2,6.5,0,0.0217974
0.2,6.6,0,0.0215315
0.2,6.7,0,0.0212462
0.2,6.8,0,0.0209364
0.2,6.9,0,0.0206219
0.2,7,0,0.0203015
0.2,7.1,0,0.0199583
0.2,7.2,0,0.0196075
0.2,7.3,0,0.0192549
0.2,7.4,0,0.0188903
0.2,7.5,0,0.0185151
0.2,7.6,0,0.0181394
0.2,7.7,0,0.0177582
0.2,7.8,0,0.017369
0.2,7.9,0,0.0169783
0.2,8,0,0.0165865
0.2,8.1,0,0.0161905
0.2,8.2,0,0.0157929
0.2,8.3,0,0.0153952
0.2,8.4,0,0.0149972
0.2,8.5,0,0.0145991
0.2,8.6,0,0.014201
0.2,8.7,0,0.0138042
0.2,8.8,0,0.0134098
0.2,8.9,0,0.0130159
0.2,9,0,0.0126231
0.2,9.1,0,0.0122345
0.2,9.2,0,0.0118481
0.2,9.3,0,0.0114621
0.2,9.4,0,0.0110804
0.2,9.5,0,0.010703
0.2,9.6,0,0.0103261
0.2,9.7,0,0.00995212
0.2,9.8,0,0.00958424
0.2,9.9,0,0.00921779
0.2,10,0,0.00885265
0.2,10.1,0,0.00849346
0.2,10.2,0,0.00813772
0.2,10.3,0,0.00778232
0.2,10.4,0,0.00743152
0.2,10.5,0,0.00708556
0.2,10.6,0,0.00674019
0.2,10.7,0,0.00639721
0.2,10.8,0,0.00605997
0.2,10.9,0,0.00572414
0.2,11,0,0.00538925
0.2,11.1,0,0.00505881
0.2,11.2,0,0.00473139
0.2,11.3,0,0.00440409
0.2,11.4,0,0.00407984
0.2,11.5,0,0.00375892
0.2,11.6,0,0.00343849
0.2,11.7,0,0.00311923
0.2,11.8,0,0.00280336
0.2,11.9,0,0.00248836
0.2,12,0,0.00217373
0.2,12.1,0,0.00186101
0.2,12.2,0,0.00154974
0.2,12.3,0,0.00123849
0.2,12.4,0,0.000928074
0.2,12.5,0,0.000618599
0.2,12.6,0,0.000309285
0.2,12.7,0,5.12107e-05
0.3,0,0,0
0.3,0.1,0,0.000586388
0.3,0.2,0,0.00117277
0.3,0.3,0,0.00175932
0.3,0.4,0,0.00234584
0.3,0.5,0,0.00293264
0.3,0.6,0,0.00351941
0.3,0.7,0,0.00410641
0.3,0.8,0,0.0046934
0.3,0.9,0,0.00528038
0.3,1,0,0.00586742
0.3,1.1,0,0.00645395
0.3,1.2,0,0.00704066
0.3,1.3,0,0.00762606
0.3,1.4,0,0.00821181
0.3,1.5,0,0.00879507
0.3,1.6,0,0.00937893
0.3,1.7,0,0.00995874
0.3,1.8,0,0.0105395
0.3,1.9,0,0.0111141
0.3,2,0,0.01169
0.3,2.1,0,0.0122574
0.3,2.2,0,0.0128266
0.3,2.3,0,0.0133842
0.3,2.4,0,0.0139442
0.3,2.5,0,0.0144891
0.3,2.6,0,0.0150369
0.3,2.7,0,0.0155658
0.3,2.8,0,0.0160984
0.3,2.9,0,0.0166076
0.3,3,0,0.0171213
0.3,3.1,0,0.0176069
0.3,3.2,0,0.0180978
0.3,3.3,0,0.0185554
0.3,3.4,0,0.0190194
0.3,3.5,0,0.019445
0.3,3.6,0,0.0198777
0.3,3.7,0,0.0202668
0.3,3.8,0,0.020664
0.3,3.9,0,0.0210126
0.3,4,0,0.0213701
0.3,4.1,0,0.0216744
0.3,4.2,0,0.0219884
0.3,4.3,0,0.022245
0.3,4.4,0,0.022512
0.3,4.5,0,0.0227183
0.3,4.6,0,0.0229354
0.3,4.7,0,0.0230894
0.3,4.8,0,0.0232545
0.3,4.9,0,0.0233549
0.3,5,0,0.0234667
0.3,5.1,0,0.0235133
0.3,5.2,0,0.0235712
0.3,5.3,0,0.0235646
0.3,5.4,0,0.0235689
0.3,5.5,0,0.0235105
0.3,5.6,0,0.0234628
0.3,5.7,0,0.0233548
0.3,5.8,0,0.023257
0.3,5.9,0,0.0230861
0.3,6,0,0.0229025
0.3,6.1,0,0.022733
0.3,6.2,0,0.0225444
0.3,6.3,0,0.0223442
0.3,6.4,0,0.0220981
0.3,6.5,0,0.0218324
0.3,6.6,0,0.0215665
0.3,6.7,0,0.021276
0.3,6.8,0,0.0209634
0.3,6.9,0,0.0206489
0.3,7,0,0.0203256
0.3,7.1,0,0.0199777
0.3,7.2,0,0.0196269
0.3,7.3,0,0.0192731
0.3,7.4,0,0.0189033
0.3,7.5,0,0.0185276
0.3,7.6,0,0.0181519
0.3,7.7,0,0.0177669
0.3,7.8,0,0.0173758
0.3,7.9,0,0.0169851
0.3,8,0,0.0165913
0.3,8.1,0,0.0161926
0.3,8.2,0,0.0157949
0.3,8.3,0,0.0153967
0.3,8.4,0,0.0149961
0.3,8.5,0,0.0145977
0.3,8.6,0,0.0141996
0.3,8.7,0,0.0138011
0.3,8.8,0,0.0134059
0.3,8.9,0,0.013012
0.3,9,0,0.0126183
0.3,9.1,0,0.0122289
0.3,9.2,0,0.0118425
0.3,9.3,0,0.0114563
0.3,9.4,0,0.0110739
0.3,9.5,0,0.0106965
0.3,9.6,0,0.0103195
0.3,9.7,0,0.00994514
0.3,9.8,0,0.00957733
0.3,9.9,0,0.00921087
0.3,10,0,0.00884557
0.3,10.1,0,0.00848661
0.3,10.2,0,0.00813088
0.3,10.3,0,0.00777547
0.3,10.4,0,0.00742494
0.3,10.5,0,0.00707913
0.3,10.6,0,0.00673376
0.3,10.7,0,0.00639095
0.3,10.8,0,0.00605419
0.3,10.9,0,0.00571836
0.3,11,0,0.00538361
0.3,11.1,0,0.00505386
0.3,11.2,0,0.00472644
0.3,11.3,0,0.00439917
0.3,11.4,0,0.00407559
0.3,11.5,0,0.00375493
0.3,11.6,0,0.0034345
0.3,11.7,0,0.00311569
0.3,11.8,0,0.00280042
0.3,11.9,0,0.00248542
0.3,12,0,0.00217105
0.3,12.1,0,0.00185918
0.3,12.2,0,0.00154792
0.3,12.3,0,0.00123668
0.3,12.4,0,0.000927125
0.3,12.5,0,0.000617952
0.3,12.6,0,0.000308638
0.3,12.7,0,0
0.4,0,0,0
0.4,0.1,0,0.000586287
0.4,0.2,0,0.00117255
0.4,0.3,0,0.00175907
0.4,0.4,0,0.00234553
0.4,0.5,0,0.00293238
0.4,0.6,0,0.00351918
0.4,0.7,0,0.00410636
0.4,0.8,0,0.00469353
0.4,0.9,0,0.00528083
0.4,1,0,0.00586825
0.4,1.1,0,0.00645525
0.4,1.2,0,0.00704262
0.4,1.3,0,0.00762865
0.4,1.4,0,0.00821538
0.4,1.5,0,0.00879944
0.4,1.6,0,0.00938468
0.4,1.7,0,0.00996543
0.4,1.8,0,0.010548
0.4,1.9,0,0.0111237
0.4,2,0,0.011702
0.4,2.1,0,0.0122706
0.4,2.2,0,0.0128427
0.4,2.3,0,0.0134015
0.4,2.4,0,0.013965
0.4,2.5,0,0.0145111
0.4,2.6,0,0.0150632
0.4,2.7,0,0.0155933
0.4,2.8,0,0.0161307
0.4,2.9,0,0.0166409
0.4,3,0,0.0171602
0.4,3.1,0,0.0176464
0.4,3.2,0,0.0181434
0.4,3.3,0,0.0186015
0.4,3.4,0,0.0190721
0.4,3.5,0,0.0194976
0.4,3.6,0,0.0199374
0.4,3.7,0,0.0203259
0.4,3.8,0,0.0207305
0.4,3.9,0,0.0210778
0.4,4,0,0.0214429
0.4,4.1,0,0.0217452
0.4,4.2,0,0.0220667
0.4,4.3,0,0.0223205
0.4,4.4,0,0.0225949
0.4,4.5,0,0.0227975
0.4,4.6,0,0.0230217
0.4,4.7,0,0.0231712
0.4,4.8,0,0.0233428
0.4,4.9,0,0.023438
0.4,5,0,0.0235556
0.4,5.1,0,0.0235963
0.4,5.2,0,0.0236593
0.4,5.3,0,0.0236461
0.4,5.4,0,0.0236549
0.4,5.5,0,0.0235893
0.4,5.6,0,0.0235452
0.4,5.7,0,0.0234298
0.4,5.8,0,0.0233347
0.4,5.9,0,0.023167
0.4,6,0,0.0229737
0.4,6.1,0,0.0228136
0.4,6.2,0,0.0226296
0.4,6.3,0,0.0224052
0.4,6.4,0,0.022159
0.4,6.5,0,0.0218959
0.4,6.6,0,0.0216156
0.4,6.7,0,0.0213246
0.4,6.8,0,0.0210152
0.4,6.9,0,0.0206906
0.4,7,0,0.0203619
0.4,7.1,0,0.0200146
0.4,7.2,0,0.0196597
0.4,7.3,0,0.019298
0.4,7.4,0,0.0189282
0.4,7.5,0,0.018551
0.4,7.6,0,0.0181675
0.4,7.7,0,0.0177818
0.4,7.8,0,0.0173902
0.4,7.9,0,0.0169941
0.4,8,0,0.016598
0.4,8.1,0,0.0161989
0.4,8.2,0,0.0157978
0.4,8.3,0,0.015397
0.4,8.4,0,0.0149964
0.4,8.5,0,0.0145956
0.4,8.6,0,0.0141953
0.4,8.7,0,0.0137967
0.4,8.8,0,0.0134
0.4,8.9,0,0.0130042
0.4,9,0,0.0126106
0.4,9.1,0,0.0122207
0.4,9.2,0,0.0118322
0.4,9.3,0,0.0114466
0.4,9.4,0,0.0110643
0.4,9.5,0,0.0106849
0.4,9.6,0,0.0103085
0.4,9.7,0,0.00993449
0.4,9.8,0,0.00956543
0.4,9.9,0,0.00919872
0.4,10,0,0.00883471
0.4,10.1,0,0.00847545
0.4,10.2,0,0.00811859
0.4,10.3,0,0.007765
0.4,10.4,0,0.00741448
0.4,10.5,0,0.00706738
0.4,10.6,0,0.00672353
0.4,10.7,0,0.00638134
0.4,10.8,0,0.00604386
0.4,10.9,0,0.00570845
0.4,11,0,0.00537517
0.4,11.1,0,0.00504533
0.4,11.2,0,0.00471758
0.4,11.3,0,0.00439215
0.4,11.4,0,0.00406857
0.4,11.5,0,0.0037474
0.4,11.6,0,0.00342849
0.4,11.7,0,0.00311025
0.4,11.8,0,0.00279481
0.4,11.9,0,0.0024806
0.4,12,0,0.00216732
0.4,12.1,0,0.00185545
0.4,12.2,0,0.00154467
0.4,12.3,0,0.00123474
0.4,12.4,0,0.000925188
0.4,12.5,0,0.000616322
0.4,12.6,0,0.000308306
0.4,12.7,0,0
0.5,0,0,0
0.5,0.1,0,0.00058617
0.5,0.2,0,0.00117234
0.5,0.3,0,0.00175878
0.5,0.4,0,0.00234521
0.5,0.5,0,0.00293208
0.5,0.6,0,0.00351895
0.5,0.7,0,0.0041063
0.5,0.8,0,0.00469365
0.5,0.9,0,0.00528137
0.5,1,0,0.00586908
0.5,1.1,0,0.00645683
0.5,1.2,0,0.00704457
0.5,1.3,0,0.00763176
0.5,1.4,0,0.00821896
0.5,1.5,0,0.00880469
0.5,1.6,0,0.00939043
0.5,1.7,0,0.00997347
0.5,1.8,0,0.0105565
0.5,1.9,0,0.0111352
0.5,2,0,0.011714
0.5,2.1,0,0.0122864
0.5,2.2,0,0.0128587
0.5,2.3,0,0.0134223
0.5,2.4,0,0.0139859
0.5,2.5,0,0.0145377
0.5,2.6,0,0.0150895
0.5,2.7,0,0.0156263
0.5,2.8,0,0.016163
0.5,2.9,0,0.016681
0.5,3,0,0.017199
0.5,3.1,0,0.017694
0.5,3.2,0,0.0181891
0.5,3.3,0,0.018657
0.5,3.4,0,0.0191248
0.5,3.5,0,0.019561
0.5,3.6,0,0.0199972
0.5,3.7,0,0.0203971
0.5,3.8,0,0.020797
0.5,3.9,0,0.0211563
0.5,4,0,0.0215157
0.5,4.1,0,0.0218303
0.5,4.2,0,0.022145
0.5,4.3,0,0.0224114
0.5,4.4,0,0.0226777
0.5,4.5,0,0.0228929
0.5,4.6,0,0.023108
0.5,4.7,0,0.0232696
0.5,4.8,0,0.0234312
0.5,4.9,0,0.0235379
0.5,5,0,0.0236446
0.5,5.1,0,0.0236961
0.5,5.2,0,0.0237475
0.5,5.3,0,0.0237442
0.5,5.4,0,0.0237408
0.5,5.5,0,0.0236842
0.5,5.6,0,0.0236276
0.5,5.7,0,0.02352
0.5,5.8,0,0.0234125
0.5,5.9,0,0.0232286
0.5,6,0,0.0230448
0.5,6.1,0,0.0228486
0.5,6.2,0,0.0226524
0.5,6.3,0,0.0224562
0.5,6.4,0,0.0222087
0.5,6.5,0,0.0219336
0.5,6.6,0,0.0216585
0.5,6.7,0,0.0213689
0.5,6.8,0,0.0210452
0.5,6.9,0,0.0207215
0.5,7,0,0.0203979
0.5,7.1,0,0.0200404
0.5,7.2,0,0.0196811
0.5,7.3,0,0.0193218
0.5,7.4,0,0.0189482
0.5,7.5,0,0.0185651
0.5,7.6,0,0.018182
0.5,7.7,0,0.0177954
0.5,7.8,0,0.0173985
0.5,7.9,0,0.0170017
0.5,8,0,0.0166048
0.5,8.1,0,0.016203
0.5,8.2,0,0.0158006
0.5,8.3,0,0.0153982
0.5,8.4,0,0.0149962
0.5,8.5,0,0.0145945
0.5,8.6,0,0.0141929
0.5,8.7,0,0.0137923
0.5,8.8,0,0.013396
0.5,8.9,0,0.0129997
0.5,9,0,0.0126034
0.5,9.1,0,0.0122143
0.5,9.2,0,0.0118263
0.5,9.3,0,0.0114384
0.5,9.4,0,0.0110556
0.5,9.5,0,0.0106779
0.5,9.6,0,0.0103002
0.5,9.7,0,0.00992422
0.5,9.8,0,0.0095576
0.5,9.9,0,0.00919098
0.5,10,0,0.00882437
0.5,10.1,0,0.0084667
0.5,10.2,0,0.00811126
0.5,10.3,0,0.00775583
0.5,10.4,0,0.00740521
0.5,10.5,0,0.00706047
0.5,10.6,0,0.00671574
0.5,10.7,0,0.00637198
0.5,10.8,0,0.00603704
0.5,10.9,0,0.00570209
0.5,11,0,0.00536715
0.5,11.1,0,0.00503863
0.5,11.2,0,0.00471226
0.5,11.3,0,0.00438588
0.5,11.4,0,0.00406236
0.5,11.5,0,0.00374311
0.5,11.6,0,0.00342386
0.5,11.7,0,0.00310489
0.5,11.8,0,0.00279116
0.5,11.9,0,0.00247743
0.5,12,0,0.00216371
0.5,12.1,0,0.00185265
0.5,12.2,0,0.00154273
0.5,12.3,0,0.00123281
0.5,12.4,0,0.000923604
0.5,12.5,0,0.000615736
0.5,12.6,0,0.000307868
0.5,12.7,0,0
0.6,0,0,0
0.6,0.1,0,0.000585928
0.6,0.2,0,0.00117185
0.6,0.3,0,0.00175819
0.6,0.4,0,0.00234442
0.6,0.5,0,0.00293138
0.6,0.6,0,0.0035182
0.6,0.7,0,0.00410587
0.6,0.8,0,0.00469342
0.6,0.9,0,0.00528171
0.6,1,0,0.00586996
0.6,1.1,0,0.00645855
0.6,1.2,0,0.00704732
0.6,1.3,0,0.00763562
0.6,1.4,0,0.00822443
0.6,1.5,0,0.00881153
0.6,1.6,0,0.00939962
0.6,1.7,0,0.00998425
0.6,1.8,0,0.0105705
0.6,1.9,0,0.011151
0.6,2,0,0.0117339
0.6,2.1,0,0.0123082
0.6,2.2,0,0.0128858
0.6,2.3,0,0.0134513
0.6,2.4,0,0.0140213
0.6,2.5,0,0.0145749
0.6,2.6,0,0.0151345
0.6,2.7,0,0.0156728
0.6,2.8,0,0.0162186
0.6,2.9,0,0.0167377
0.6,3,0,0.0172661
0.6,3.1,0,0.0177617
0.6,3.2,0,0.0182684
0.6,3.3,0,0.018736
0.6,3.4,0,0.0192167
0.6,3.5,0,0.0196516
0.6,3.6,0,0.0201015
0.6,3.7,0,0.020499
0.6,3.8,0,0.0209135
0.6,3.9,0,0.021269
0.6,4,0,0.0216435
0.6,4.1,0,0.0219528
0.6,4.2,0,0.0222827
0.6,4.3,0,0.0225422
0.6,4.4,0,0.0228237
0.6,4.5,0,0.0230303
0.6,4.6,0,0.02326
0.6,4.7,0,0.0234115
0.6,4.8,0,0.023587
0.6,4.9,0,0.0236821
0.6,5,0,0.0238016
0.6,5.1,0,0.0238401
0.6,5.2,0,0.023903
0.6,5.3,0,0.0238856
0.6,5.4,0,0.0238923
0.6,5.5,0,0.0238208
0.6,5.6,0,0.0237726
0.6,5.7,0,0.0236499
0.6,5.8,0,0.023549
0.6,5.9,0,0.0233726
0.6,6,0,0.0231692
0.6,6.1,0,0.0229996
0.6,6.2,0,0.0228124
0.6,6.3,0,0.0225763
0.6,6.4,0,0.0223175
0.6,6.5,0,0.0220454
0.6,6.6,0,0.0217571
0.6,6.7,0,0.0214533
0.6,6.8,0,0.0211307
0.6,6.9,0,0.0208021
0.6,7,0,0.0204611
0.6,7.1,0,0.0201016
0.6,7.2,0,0.0197418
0.6,7.3,0,0.0193697
0.6,7.4,0,0.0189889
0.6,7.5,0,0.0186038
0.6,7.6,0,0.0182146
0.6,7.7,0,0.0178195
0.6,7.8,0,0.017419
0.6,7.9,0,0.0170201
0.6,8,0,0.0166164
0.6,8.1,0,0.0162101
0.6,8.2,0,0.0158059
0.6,8.3,0,0.0153998
0.6,8.4,0,0.0149937
0.6,8.5,0,0.0145888
0.6,8.6,0,0.0141862
0.6,8.7,0,0.0137832
0.6,8.8,0,0.013383
0.6,8.9,0,0.0129861
0.6,9,0,0.0125896
0.6,9.1,0,0.0121974
0.6,9.2,0,0.0118077
0.6,9.3,0,0.0114207
0.6,9.4,0,0.0110368
0.6,9.5,0,0.0106565
0.6,9.6,0,0.0102797
0.6,9.7,0,0.00990497
0.6,9.8,0,0.00953561
0.6,9.9,0,0.00916883
0.6,10,0,0.00880475
0.6,10.1,0,0.00844577
0.6,10.2,0,0.00808911
0.6,10.3,0,0.00773591
0.6,10.4,0,0.00738604
0.6,10.5,0,0.00703971
0.6,10.6,0,0.00669627
0.6,10.7,0,0.00635501
0.6,10.8,0,0.00601875
0.6,10.9,0,0.00568375
0.6,11,0,0.00535168
0.6,11.1,0,0.00502324
0.6,11.2,0,0.00469636
0.6,11.3,0,0.00437199
0.6,11.4,0,0.00404993
0.6,11.5,0,0.00373031
0.6,11.6,0,0.00341202
0.6,11.7,0,0.0030954
0.6,11.8,0,0.00278172
0.6,11.9,0,0.00246809
0.6,12,0,0.00215654
0.6,12.1,0,0.00184648
0.6,12.2,0,0.00153687
0.6,12.3,0,0.00122823
0.6,12.4,0,0.000920551
0.6,12.5,0,0.000613566
0.6,12.6,0,0.000306249
0.6,12.7,0,0
0.7,0,0,0
0.7,0.1,0,0.000585679
0.7,0.2,0,0.00117136
0.7,0.3,0,0.00175752
0.7,0.4,0,0.00234364
0.7,0.5,0,0.00293058
0.7,0.6,0,0.00351745
0.7,0.7,0,0.00410535
0.7,0.8,0,0.00469318
0.7,0.9,0,0.00528202
0.7,1,0,0.00587085
0.7,1.1,0,0.00646041
0.7,1.2,0,0.00705006
0.7,1.3,0,0.00763986
0.7,1.4,0,0.0082299
0.7,1.5,0,0.00881911
0.7,1.6,0,0.0094088
0.7,1.7,0,0.00999623
0.7,1.8,0,0.0105845
0.7,1.9,0,0.0111685
0.7,2,0,0.0117538
0.7,2.1,0,0.0123325
0.7,2.2,0,0.0129129
0.7,2.3,0,0.0134837
0.7,2.4,0,0.0140568
0.7,2.5,0,0.0146166
0.7,2.6,0,0.0151795
0.7,2.7,0,0.015725
0.7,2.8,0,0.0162742
0.7,2.9,0,0.0168014
0.7,3,0,0.0173332
0.7,3.1,0,0.0178377
0.7,3.2,0,0.0183477
0.7,3.3,0,0.0188249
0.7,3.4,0,0.0193085
0.7,3.5,0,0.0197535
0.7,3.6,0,0.0202059
0.7,3.7,0,0.0206137
0.7,3.8,0,0.02103
0.7,3.9,0,0.0213959
0.7,4,0,0.0217712
0.7,4.1,0,0.0220907
0.7,4.2,0,0.0224205
0.7,4.3,0,0.0226896
0.7,4.4,0,0.0229697
0.7,4.5,0,0.0231851
0.7,4.6,0,0.0234121
0.7,4.7,0,0.0235714
0.7,4.8,0,0.0237428
0.7,4.9,0,0.0238446
0.7,5,0,0.0239586
0.7,5.1,0,0.0240024
0.7,5.2,0,0.0240585
0.7,5.3,0,0.0240451
0.7,5.4,0,0.0240437
0.7,5.5,0,0.0239749
0.7,5.6,0,0.0239177
0.7,5.7,0,0.0237962
0.7,5.8,0,0.0236855
0.7,5.9,0,0.0234963
0.7,6,0,0.0232936
0.7,6.1,0,0.0231107
0.7,6.2,0,0.0229008
0.7,6.3,0,0.0226823
0.7,6.4,0,0.0224235
0.7,6.5,0,0.0221325
0.7,6.6,0,0.021841
0.7,6.7,0,0.0215374
0.7,6.8,0,0.0212039
0.7,6.9,0,0.020864
0.7,7,0,0.0205235
0.7,7.1,0,0.0201601
0.7,7.2,0,0.0197859
0.7,7.3,0,0.019412
0.7,7.4,0,0.0190313
0.7,7.5,0,0.018636
0.7,7.6,0,0.0182399
0.7,7.7,0,0.0178446
0.7,7.8,0,0.01744
0.7,7.9,0,0.0170326
0.7,8,0,0.0166272
0.7,8.1,0,0.01622
0.7,8.2,0,0.0158094
0.7,8.3,0,0.0153996
0.7,8.4,0,0.0149935
0.7,8.5,0,0.0145861
0.7,8.6,0,0.0141784
0.7,8.7,0,0.0137749
0.7,8.8,0,0.0133746
0.7,8.9,0,0.0129742
0.7,9,0,0.0125758
0.7,9.1,0,0.0121837
0.7,9.2,0,0.0117933
0.7,9.3,0,0.0114035
0.7,9.4,0,0.0110196
0.7,9.5,0,0.0106404
0.7,9.6,0,0.0102615
0.7,9.7,0,0.00988613
0.7,9.8,0,0.00951799
0.7,9.9,0,0.00915117
0.7,10,0,0.00878564
0.7,10.1,0,0.00842702
0.7,10.2,0,0.00807215
0.7,10.3,0,0.00771755
0.7,10.4,0,0.00736769
0.7,10.5,0,0.00702344
0.7,10.6,0,0.00667984
0.7,10.7,0,0.00633818
0.7,10.8,0,0.00600315
0.7,10.9,0,0.00566976
0.7,11,0,0.00533692
0.7,11.1,0,0.0050087
0.7,11.2,0,0.00468418
0.7,11.3,0,0.00435972
0.7,11.4,0,0.00403766
0.7,11.5,0,0.00371982
0.7,11.6,0,0.00340264
0.7,11.7,0,0.0030859
0.7,11.8,0,0.00277305
0.7,11.9,0,0.00246155
0.7,12,0,0.00215003
0.7,12.1,0,0.00184002
0.7,12.2,0,0.00153245
0.7,12.3,0,0.00122487
0.7,12.4,0,0.000917186
0.7,12.5,0,0.000611311
0.7,12.6,0,0.000305955
0.7,12.7,0,0
0.8,0,0,0
0.8,0.1,0,0.0005853
0.8,0.2,0,0.0011706
0.8,0.3,0,0.00175655
0.8,0.4,0,0.00234238
0.8,0.5,0,0.00292934
0.8,0.6,0,0.0035161
0.8,0.7,0,0.00410433
0.8,0.8,0,0.00469231
0.8,0.9,0,0.00528189
0.8,1,0,0.0058712
0.8,1.1,0,0.00646199
0.8,1.2,0,0.00705254
0.8,1.3,0,0.00764413
0.8,1.4,0,0.00823557
0.8,1.5,0,0.0088272
0.8,1.6,0,0.00941886
0.8,1.7,0,0.0100094
0.8,1.8,0,0.0106003
0.8,1.9,0,0.0111882
0.8,2,0,0.0117768
0.8,2.1,0,0.0123601
0.8,2.2,0,0.0129445
0.8,2.3,0,0.0135207
0.8,2.4,0,0.0140985
0.8,2.5,0,0.0146646
0.8,2.6,0,0.0152329
0.8,2.7,0,0.0157853
0.8,2.8,0,0.0163407
0.8,2.9,0,0.0168753
0.8,3,0,0.0174138
0.8,3.1,0,0.0179261
0.8,3.2,0,0.0184434
0.8,3.3,0,0.0189286
0.8,3.4,0,0.0194197
0.8,3.5,0,0.0198728
0.8,3.6,0,0.0203327
0.8,3.7,0,0.0207484
0.8,3.8,0,0.0211719
0.8,3.9,0,0.0215451
0.8,4,0,0.0219272
0.8,4.1,0,0.0222532
0.8,4.2,0,0.0225889
0.8,4.3,0,0.0228634
0.8,4.4,0,0.0231484
0.8,4.5,0,0.0233679
0.8,4.6,0,0.0235985
0.8,4.7,0,0.0237604
0.8,4.8,0,0.0239339
0.8,4.9,0,0.0240366
0.8,5,0,0.0241512
0.8,5.1,0,0.0241943
0.8,5.2,0,0.0242493
0.8,5.3,0,0.0242335
0.8,5.4,0,0.0242294
0.8,5.5,0,0.0241568
0.8,5.6,0,0.0240954
0.8,5.7,0,0.0239687
0.8,5.8,0,0.0238525
0.8,5.9,0,0.023657
0.8,6,0,0.0234455
0.8,6.1,0,0.0232529
0.8,6.2,0,0.023043
0.8,6.3,0,0.0228182
0.8,6.4,0,0.0225396
0.8,6.5,0,0.0222481
0.8,6.6,0,0.0219567
0.8,6.7,0,0.0216332
0.8,6.8,0,0.0212923
0.8,6.9,0,0.0209524
0.8,7,0,0.0205995
0.8,7.1,0,0.0202226
0.8,7.2,0,0.0198484
0.8,7.3,0,0.0194697
0.8,7.4,0,0.019072
0.8,7.5,0,0.0186755
0.8,7.6,0,0.0182795
0.8,7.7,0,0.0178706
0.8,7.8,0,0.0174604
0.8,7.9,0,0.0170529
0.8,8,0,0.0166405
0.8,8.1,0,0.0162251
0.8,8.2,0,0.0158144
0.8,8.3,0,0.0154026
0.8,8.4,0,0.014988
0.8,8.5,0,0.0145796
0.8,8.6,0,0.0141719
0.8,8.7,0,0.0137629
0.8,8.8,0,0.01336
0.8,8.9,0,0.0129596
0.8,9,0,0.0125589
0.8,9.1,0,0.012164
0.8,9.2,0,0.0117735
0.8,9.3,0,0.0113833
0.8,9.4,0,0.0109973
0.8,9.5,0,0.0106178
0.8,9.6,0,0.0102389
0.8,9.7,0,0.00986275
0.8,9.8,0,0.00949439
0.8,9.9,0,0.00912757
0.8,10,0,0.00876207
0.8,10.1,0,0.00840385
0.8,10.2,0,0.00804898
0.8,10.3,0,0.0076945
0.8,10.4,0,0.00734572
0.8,10.5,0,0.00700176
0.8,10.6,0,0.00665816
0.8,10.7,0,0.00631773
0.8,10.8,0,0.00598373
0.8,10.9,0,0.00565034
0.8,11,0,0.00531836
0.8,11.1,0,0.00499212
0.8,11.2,0,0.0046676
0.8,11.3,0,0.00434331
0.8,11.4,0,0.00402366
0.8,11.5,0,0.00370648
0.8,11.6,0,0.0033893
0.8,11.7,0,0.00307445
0.8,11.8,0,0.00276325
0.8,11.9,0,0.00245175
0.8,12,0,0.00214126
0.8,12.1,0,0.00183396
0.8,12.2,0,0.00152639
0.8,12.3,0,0.00121887
0.8,12.4,0,0.000914121
0.8,12.5,0,0.000609186
0.8,12.6,0,0.000303829
0.8,12.7,0,0
0.9,0,0,0
0.9,0.1,0,0.000584792
0.9,0.2,0,0.00116959
0.9,0.3,0,0.00175524
0.9,0.4,0,0.00234066
0.9,0.5,0,0.0029276
0.9,0.6,0,0.00351415
0.9,0.7,0,0.00410273
0.9,0.8,0,0.0046908
0.9,0.9,0,0.00528118
0.9,1,0,0.00587101
0.9,1.1,0,0.00646312
0.9,1.2,0,0.00705475
0.9,1.3,0,0.00764823
0.9,1.4,0,0.00824142
0.9,1.5,0,0.00883558
0.9,1.6,0,0.00942979
0.9,1.7,0,0.0100235
0.9,1.8,0,0.0106179
0.9,1.9,0,0.0112097
0.9,2,0,0.0118027
0.9,2.1,0,0.0123906
0.9,2.2,0,0.0129806
0.9,2.3,0,0.013562
0.9,2.4,0,0.0141466
0.9,2.5,0,0.0147184
0.9,2.6,0,0.0152948
0.9,2.7,0,0.0158533
0.9,2.8,0,0.0164179
0.9,2.9,0,0.016959
0.9,3,0,0.0175079
0.9,3.1,0,0.0180268
0.9,3.2,0,0.0185554
0.9,3.3,0,0.019047
0.9,3.4,0,0.0195503
0.9,3.5,0,0.0200093
0.9,3.6,0,0.0204819
0.9,3.7,0,0.0209027
0.9,3.8,0,0.0213392
0.9,3.9,0,0.0217164
0.9,4,0,0.0221114
0.9,4.1,0,0.02244
0.9,4.2,0,0.0227881
0.9,4.3,0,0.0230635
0.9,4.4,0,0.02336
0.9,4.5,0,0.0235784
0.9,4.6,0,0.0238193
0.9,4.7,0,0.0239782
0.9,4.8,0,0.0241604
0.9,4.9,0,0.024258
0.9,5,0,0.0243794
0.9,5.1,0,0.0244155
0.9,5.2,0,0.0244753
0.9,5.3,0,0.0244508
0.9,5.4,0,0.0244494
0.9,5.5,0,0.0243663
0.9,5.6,0,0.0243057
0.9,5.7,0,0.0241673
0.9,5.8,0,0.02405
0.9,5.9,0,0.0238535
0.9,6,0,0.0236248
0.9,6.1,0,0.0234408
0.9,6.2,0,0.0232262
0.9,6.3,0,0.0229701
0.9,6.4,0,0.0226915
0.9,6.5,0,0.0223931
0.9,6.6,0,0.0220769
0.9,6.7,0,0.0217526
0.9,6.8,0,0.0214101
0.9,6.9,0,0.0210481
0.9,7,0,0.0206871
0.9,7.1,0,0.0203089
0.9,7.2,0,0.0199195
0.9,7.3,0,0.0195283
0.9,7.4,0,0.0191306
0.9,7.5,0,0.0187252
0.9,7.6,0,0.0183141
0.9,7.7,0,0.0179042
0.9,7.8,0,0.0174902
0.9,7.9,0,0.0170699
0.9,8,0,0.0166538
0.9,8.1,0,0.0162369
0.9,8.2,0,0.015817
0.9,8.3,0,0.0154003
0.9,8.4,0,0.0149857
0.9,8.5,0,0.0145716
0.9,8.6,0,0.0141587
0.9,8.7,0,0.0137493
0.9,8.8,0,0.0133437
0.9,8.9,0,0.0129386
0.9,9,0,0.0125377
0.9,9.1,0,0.012142
0.9,9.2,0,0.0117476
0.9,9.3,0,0.0113576
0.9,9.4,0,0.0109716
0.9,9.5,0,0.0105894
0.9,9.6,0,0.0102107
0.9,9.7,0,0.00983496
0.9,9.8,0,0.00946518
0.9,9.9,0,0.0090981
0.9,10,0,0.0087341
0.9,10.1,0,0.00837558
0.9,10.2,0,0.00801991
0.9,10.3,0,0.00766777
0.9,10.4,0,0.00731899
0.9,10.5,0,0.00697412
0.9,10.6,0,0.00663296
0.9,10.7,0,0.0062933
0.9,10.8,0,0.00595885
0.9,10.9,0,0.00562705
0.9,11,0,0.00529701
0.9,11.1,0,0.00497073
0.9,11.2,0,0.00464702
0.9,11.3,0,0.00432559
0.9,11.4,0,0.00400594
0.9,11.5,0,0.00368894
0.9,11.6,0,0.00337478
0.9,11.7,0,0.00306077
0.9,11.8,0,0.00274976
0.9,11.9,0,0.00244067
0.9,12,0,0.0021319
0.9,12.1,0,0.00182463
0.9,12.2,0,0.00151888
0.9,12.3,0,0.00121404
0.9,12.4,0,0.000909297
0.9,12.5,0,0.000605283
0.9,12.6,0,0.000303077
0.9,12.7,0,0
1,0,0,0
1,0.1,0,0.000584288
1,0.2,0,0.00116858
1,0.3,0,0.00175375
1,0.4,0,0.00233893
1,0.5,0,0.00292556
1,0.6,0,0.0035122
1,0.7,0,0.00410075
1,0.8,0,0.00468929
1,0.9,0,0.00528006
1,1,0,0.00587083
1,1.1,0,0.0064639
1,1.2,0,0.00705696
1,1.3,0,0.00765212
1,1.4,0,0.00824728
1,1.5,0,0.008844
1,1.6,0,0.00944073
1,1.7,0,0.0100381
1,1.8,0,0.0106355
1,1.9,0,0.0112321
1,2,0,0.0118287
1,2.1,0,0.0124227
1,2.2,0,0.0130168
1,2.3,0,0.0136057
1,2.4,0,0.0141948
1,2.5,0,0.0147757
1,2.6,0,0.0153566
1,2.7,0,0.0159259
1,2.8,0,0.0164952
1,2.9,0,0.0170486
1,3,0,0.017602
1,3.1,0,0.0181347
1,3.2,0,0.0186674
1,3.3,0,0.0191741
1,3.4,0,0.0196808
1,3.5,0,0.020156
1,3.6,0,0.0206311
1,3.7,0,0.0210688
1,3.8,0,0.0215065
1,3.9,0,0.021901
1,4,0,0.0222956
1,4.1,0,0.0226414
1,4.2,0,0.0229872
1,4.3,0,0.0232794
1,4.4,0,0.0235715
1,4.5,0,0.0238058
1,4.6,0,0.0240401
1,4.7,0,0.0242135
1,4.8,0,0.0243868
1,4.9,0,0.0244972
1,5,0,0.0246077
1,5.1,0,0.0246545
1,5.2,0,0.0247014
1,5.3,0,0.0246854
1,5.4,0,0.0246694
1,5.5,0,0.0245927
1,5.6,0,0.024516
1,5.7,0,0.0243817
1,5.8,0,0.0242474
1,5.9,0,0.0240257
1,6,0,0.023804
1,6.1,0,0.0235736
1,6.2,0,0.0233433
1,6.3,0,0.0231129
1,6.4,0,0.0228271
1,6.5,0,0.0225115
1,6.6,0,0.0221958
1,6.7,0,0.0218658
1,6.8,0,0.0215022
1,6.9,0,0.0211386
1,7,0,0.0207749
1,7.1,0,0.0203806
1,7.2,0,0.0199847
1,7.3,0,0.0195888
1,7.4,0,0.0191817
1,7.5,0,0.018767
1,7.6,0,0.0183523
1,7.7,0,0.0179356
1,7.8,0,0.017513
1,7.9,0,0.0170904
1,8,0,0.0166678
1,8.1,0,0.0162455
1,8.2,0,0.0158232
1,8.3,0,0.0154009
1,8.4,0,0.014982
1,8.5,0,0.0145659
1,8.6,0,0.0141498
1,8.7,0,0.0137357
1,8.8,0,0.0133295
1,8.9,0,0.0129234
1,9,0,0.0125173
1,9.1,0,0.0121217
1,9.2,0,0.0117279
1,9.3,0,0.0113341
1,9.4,0,0.0109469
1,9.5,0,0.0105665
1,9.6,0,0.010186
1,9.7,0,0.00980758
1,9.8,0,0.00944063
1,9.9,0,0.00907367
1,10,0,0.00870671
1,10.1,0,0.00835017
1,10.2,0,0.00799623
1,10.3,0,0.00764229
1,10.4,0,0.00729377
1,10.5,0,0.00695189
1,10.6,0,0.00661001
1,10.7,0,0.00626921
1,10.8,0,0.00593811
1,10.9,0,0.00560702
1,11,0,0.00527592
1,11.1,0,0.00495179
1,11.2,0,0.00462998
1,11.3,0,0.00430818
1,11.4,0,0.00398943
1,11.5,0,0.00367526
1,11.6,0,0.00336109
1,11.7,0,0.00304722
1,11.8,0,0.00273894
1,11.9,0,0.00243066
1,12,0,0.00212239
1,12.1,0,0.00181697
1,12.2,0,0.00151279
1,12.3,0,0.00120861
1,12.4,0,0.000905271
1,12.5,0,0.000603514
1,12.6,0,0.000301757
1,12.7,0,0
1.1,0,0,0
1.1,0.1,0,0.000583312
1.1,0.2,0,0.00116668
1.1,0.3,0,0.00175132
1.1,0.4,0,0.00233556
1.1,0.5,0,0.00292215
1.1,0.6,0,0.00350798
1.1,0.7,0,0.00409707
1.1,0.8,0,0.00468511
1.1,0.9,0,0.00527708
1.1,1,0,0.00586782
1.1,1.1,0,0.00646285
1.1,1.2,0,0.00705652
1.1,1.3,0,0.00765447
1.1,1.4,0,0.00825106
1.1,1.5,0,0.00885146
1.1,1.6,0,0.00945062
1.1,1.7,0,0.0100526
1.1,1.8,0,0.0106536
1.1,1.9,0,0.0112557
1.1,2,0,0.0118574
1.1,2.1,0,0.0124577
1.1,2.2,0,0.0130584
1.1,2.3,0,0.0136546
1.1,2.4,0,0.0142519
1.1,2.5,0,0.0148407
1.1,2.6,0,0.0154318
1.1,2.7,0,0.0160094
1.1,2.8,0,0.0165907
1.1,2.9,0,0.0171528
1.1,3,0,0.01772
1.1,3.1,0,0.0182612
1.1,3.2,0,0.0188095
1.1,3.3,0,0.0193242
1.1,3.4,0,0.0198481
1.1,3.5,0,0.0203303
1.1,3.6,0,0.0208239
1.1,3.7,0,0.0212672
1.1,3.8,0,0.0217242
1.1,3.9,0,0.0221224
1.1,4,0,0.0225366
1.1,4.1,0,0.0228839
1.1,4.2,0,0.0232491
1.1,4.3,0,0.02354
1.1,4.4,0,0.0238508
1.1,4.5,0,0.0240809
1.1,4.6,0,0.0243324
1.1,4.7,0,0.0244985
1.1,4.8,0,0.0246871
1.1,4.9,0,0.0247873
1.1,5,0,0.0249105
1.1,5.1,0,0.0249443
1.1,5.2,0,0.0250013
1.1,5.3,0,0.0249698
1.1,5.4,0,0.0249609
1.1,5.5,0,0.0248666
1.1,5.6,0,0.024794
1.1,5.7,0,0.0246407
1.1,5.8,0,0.0245075
1.1,5.9,0,0.0242931
1.1,6,0,0.024039
1.1,6.1,0,0.0238349
1.1,6.2,0,0.0236134
1.1,6.3,0,0.0233293
1.1,6.4,0,0.0230228
1.1,6.5,0,0.0227052
1.1,6.6,0,0.0223703
1.1,6.7,0,0.0220171
1.1,6.8,0,0.0216468
1.1,6.9,0,0.0212756
1.1,7,0,0.0208866
1.1,7.1,0,0.0204826
1.1,7.2,0,0.0200833
1.1,7.3,0,0.0196686
1.1,7.4,0,0.0192476
1.1,7.5,0,0.0188258
1.1,7.6,0,0.0184024
1.1,7.7,0,0.0179723
1.1,7.8,0,0.0175402
1.1,7.9,0,0.0171143
1.1,8,0,0.0166817
1.1,8.1,0,0.0162505
1.1,8.2,0,0.0158244
1.1,8.3,0,0.0153967
1.1,8.4,0,0.0149709
1.1,8.5,0,0.0145488
1.1,8.6,0,0.0141311
1.1,8.7,0,0.0137133
1.1,8.8,0,0.0133008
1.1,8.9,0,0.0128937
1.1,9,0,0.0124871
1.1,9.1,0,0.012087
1.1,9.2,0,0.0116906
1.1,9.3,0,0.0112979
1.1,9.4,0,0.0109093
1.1,9.5,0,0.0105254
1.1,9.6,0,0.0101461
1.1,9.7,0,0.00976934
1.1,9.8,0,0.00939926
1.1,9.9,0,0.00903216
1.1,10,0,0.00866848
1.1,10.1,0,0.00831078