/*--------------------------------*- C++ -*----------------------------------*\
| =========                 |                                                 |
| \\      /  F ield         | OpenFOAM: The Open Source CFD Toolbox           |
|  \\    /   O peration     | Version:  v1806                                 |
|   \\  /    A nd           | Web:      www.OpenFOAM.com                      |
|    \\/     M anipulation  |                                                 |
\*---------------------------------------------------------------------------*/
FoamFile
{
    version     2.0;
    format      ascii;
    class       volVectorField;
    location    "340";
    object      U;
}
// * * * * * * * * * * * * * * * * * * * * * * * * * * * * * * * * * * * * * //

dimensions      [0 1 -1 0 0 0 0];


internalField   nonuniform List<vector> 
4400
(
(0.206485 0.236056 0)
(0.274354 0.192599 0)
(0.299428 0.157525 0)
(0.31081 0.126807 0)
(0.317827 0.102816 0)
(0.321924 0.0857061 0)
(0.323523 0.0735027 0)
(0.323421 0.0644884 0)
(0.322356 0.0576441 0)
(0.3208 0.0523386 0)
(0.319009 0.0481539 0)
(0.31711 0.0448074 0)
(0.31517 0.0421058 0)
(0.313225 0.0399141 0)
(0.311293 0.0381365 0)
(0.309383 0.0367039 0)
(0.307497 0.0355668 0)
(0.305638 0.0346926 0)
(0.303841 0.0340449 0)
(0.302337 0.0335306 0)
(0.233487 0.138437 0)
(0.26759 0.111031 0)
(0.288445 0.0946286 0)
(0.303785 0.0848375 0)
(0.312497 0.0768527 0)
(0.316595 0.0695856 0)
(0.318268 0.0630986 0)
(0.318662 0.0575071 0)
(0.318291 0.0527954 0)
(0.31742 0.0488618 0)
(0.316217 0.0455812 0)
(0.314803 0.0428401 0)
(0.313261 0.0405474 0)
(0.311648 0.0386332 0)
(0.309998 0.0370445 0)
(0.308334 0.035741 0)
(0.306667 0.0346933 0)
(0.305008 0.0338813 0)
(0.303394 0.0332742 0)
(0.302034 0.0328085 0)
(0.217168 0.0998717 0)
(0.2507 0.10328 0)
(0.275386 0.100457 0)
(0.291314 0.0922628 0)
(0.301295 0.0819318 0)
(0.307623 0.0723791 0)
(0.311431 0.0644772 0)
(0.313415 0.0580772 0)
(0.314143 0.0528742 0)
(0.314052 0.0486173 0)
(0.313441 0.0451149 0)
(0.312498 0.0422213 0)
(0.311346 0.0398258 0)
(0.310061 0.0378453 0)
(0.308696 0.0362167 0)
(0.307281 0.0348927 0)
(0.305837 0.0338385 0)
(0.304382 0.0330293 0)
(0.302953 0.0324338 0)
(0.301737 0.0319926 0)
(0.237246 0.0690821 0)
(0.260214 0.0736061 0)
(0.276681 0.0719252 0)
(0.28911 0.0682875 0)
(0.298003 0.0642968 0)
(0.303883 0.0601769 0)
(0.307558 0.0560568 0)
(0.309713 0.052124 0)
(0.310807 0.0485231 0)
(0.31115 0.0453214 0)
(0.31096 0.0425269 0)
(0.310397 0.0401161 0)
(0.309577 0.0380548 0)
(0.308584 0.0363083 0)
(0.307475 0.0348454 0)
(0.306291 0.03364 0)
(0.305057 0.0326715 0)
(0.303796 0.0319247 0)
(0.302546 0.0313754 0)
(0.301474 0.0309781 0)
(0.242583 0.0518373 0)
(0.258439 0.0605611 0)
(0.272988 0.0642607 0)
(0.284661 0.0641078 0)
(0.293296 0.0614201 0)
(0.299416 0.0575843 0)
(0.303593 0.0535576 0)
(0.306279 0.0497743 0)
(0.307842 0.0463676 0)
(0.308586 0.0433593 0)
(0.308745 0.0407341 0)
(0.308493 0.038464 0)
(0.307952 0.0365176 0)
(0.307212 0.0348645 0)
(0.306333 0.0334779 0)
(0.30536 0.032335 0)
(0.304322 0.0314178 0)
(0.303245 0.0307127 0)
(0.302166 0.0301984 0)
(0.301233 0.0298362 0)
(0.254808 0.0393686 0)
(0.266399 0.0468812 0)
(0.276801 0.0504317 0)
(0.285495 0.0512452 0)
(0.292421 0.0505341 0)
(0.297645 0.0489563 0)
(0.301386 0.0468865 0)
(0.303935 0.0445923 0)
(0.305558 0.0422662 0)
(0.30647 0.0400336 0)
(0.306844 0.0379674 0)
(0.306819 0.0361033 0)
(0.306501 0.0344545 0)
(0.305972 0.0330214 0)
(0.305293 0.0317986 0)
(0.304508 0.0307782 0)
(0.303648 0.0299528 0)
(0.302741 0.0293156 0)
(0.301821 0.0288517 0)
(0.30102 0.0285318 0)
(0.261794 0.0308535 0)
(0.269659 0.0382707 0)
(0.27774 0.0428768 0)
(0.285061 0.0450581 0)
(0.29115 0.0454081 0)
(0.295921 0.0445392 0)
(0.29948 0.042985 0)
(0.30201 0.0411245 0)
(0.3037 0.0391842 0)
(0.304729 0.0372895 0)
(0.305249 0.0355097 0)
(0.305385 0.0338823 0)
(0.305235 0.0324258 0)
(0.304875 0.0311477 0)
(0.304362 0.0300489 0)
(0.303739 0.0291271 0)
(0.303038 0.0283791 0)
(0.302284 0.0278014 0)
(0.301511 0.0273828 0)
(0.300832 0.0271006 0)
(0.269591 0.0246873 0)
(0.275409 0.0308751 0)
(0.281383 0.0350366 0)
(0.286885 0.0373612 0)
(0.291633 0.0383223 0)
(0.295516 0.0383308 0)
(0.298536 0.0376932 0)
(0.300771 0.0366463 0)
(0.302339 0.0353737 0)
(0.303358 0.0340094 0)
(0.303937 0.0326456 0)
(0.304173 0.0313432 0)
(0.304144 0.0301403 0)
(0.303917 0.0290601 0)
(0.303542 0.0281155 0)
(0.303057 0.0273133 0)
(0.302494 0.026657 0)
(0.301877 0.0261481 0)
(0.301237 0.02578 0)
(0.30067 0.0255367 0)
(0.275129 0.0199512 0)
(0.279213 0.0254854 0)
(0.283688 0.0295307 0)
(0.28805 0.0321263 0)
(0.29196 0.0334996 0)
(0.29525 0.0339281 0)
(0.297878 0.0336865 0)
(0.299878 0.0330101 0)
(0.301322 0.032079 0)
(0.302297 0.0310219 0)
(0.302889 0.0299271 0)
(0.303178 0.0288546 0)
(0.30323 0.0278447 0)
(0.3031 0.0269241 0)
(0.302832 0.0261096 0)
(0.302462 0.0254121 0)
(0.302017 0.0248383 0)
(0.30152 0.0243923 0)
(0.300997 0.0240706 0)
(0.30053 0.0238623 0)
(0.28036 0.0163988 0)
(0.283375 0.0210209 0)
(0.286701 0.0245743 0)
(0.28998 0.0270256 0)
(0.292981 0.0285232 0)
(0.295576 0.0292587 0)
(0.29771 0.0294138 0)
(0.299384 0.0291495 0)
(0.300631 0.0286021 0)
(0.301505 0.0278823 0)
(0.302066 0.0270754 0)
(0.30237 0.0262444 0)
(0.30247 0.0254348 0)
(0.302409 0.0246783 0)
(0.302226 0.0239972 0)
(0.30195 0.0234065 0)
(0.301605 0.0229164 0)
(0.30121 0.0225337 0)
(0.300791 0.0222583 0)
(0.300413 0.0220832 0)
(0.284411 0.0134768 0)
(0.286571 0.0174836 0)
(0.289026 0.0206765 0)
(0.29153 0.023012 0)
(0.293886 0.0245605 0)
(0.295969 0.0254412 0)
(0.297715 0.0257918 0)
(0.29911 0.025747 0)
(0.300171 0.0254251 0)
(0.300934 0.0249237 0)
(0.30144 0.0243192 0)
(0.301733 0.0236699 0)
(0.301854 0.0230192 0)
(0.301839 0.0223989 0)
(0.301718 0.0218321 0)
(0.301516 0.0213354 0)
(0.301253 0.0209203 0)
(0.300947 0.0205951 0)
(0.300616 0.0203615 0)
(0.300315 0.0202159 0)
(0.288009 0.0111731 0)
(0.28958 0.0145194 0)
(0.291379 0.0172699 0)
(0.293229 0.0193646 0)
(0.294993 0.0208396 0)
(0.29658 0.0217743 0)
(0.297936 0.0222627 0)
(0.299043 0.0224007 0)
(0.299904 0.0222778 0)
(0.300537 0.021973 0)
(0.300971 0.0215521 0)
(0.301236 0.0210685 0)
(0.301361 0.0205636 0)
(0.301373 0.0200691 0)
(0.301298 0.0196086 0)
(0.301153 0.0191996 0)
(0.300958 0.0188549 0)
(0.300724 0.0185834 0)
(0.30047 0.0183888 0)
(0.300235 0.0182699 0)
(0.290891 0.00919398 0)
(0.292005 0.0120327 0)
(0.2933 0.01441 0)
(0.294658 0.0162761 0)
(0.295976 0.0176452 0)
(0.29718 0.0185655 0)
(0.298225 0.0191038 0)
(0.299088 0.019334 0)
(0.299769 0.0193284 0)
(0.300278 0.0191524 0)
(0.300634 0.0188623 0)
(0.300859 0.0185041 0)
(0.300974 0.018115 0)
(0.301 0.0177241 0)
(0.300955 0.0173537 0)
(0.300855 0.0170207 0)
(0.300713 0.0167379 0)
(0.30054 0.0165142 0)
(0.300349 0.0163541 0)
(0.30017 0.0162583 0)
(0.293356 0.00754838 0)
(0.294135 0.00988762 0)
(0.295046 0.0118845 0)
(0.296007 0.0134897 0)
(0.296947 0.0147055 0)
(0.297816 0.0155625 0)
(0.298579 0.0161063 0)
(0.299218 0.0163901 0)
(0.29973 0.0164681 0)
(0.30012 0.0163918 0)
(0.300397 0.016207 0)
(0.300577 0.015953 0)
(0.300675 0.0156622 0)
(0.300705 0.0153609 0)
(0.300681 0.0150696 0)
(0.300614 0.0148041 0)
(0.300514 0.0145765 0)
(0.30039 0.0143957 0)
(0.300251 0.0142665 0)
(0.300119 0.0141908 0)
(0.295331 0.00608516 0)
(0.295854 0.00800496 0)
(0.296471 0.00966135 0)
(0.297129 0.0110156 0)
(0.297781 0.012065 0)
(0.298388 0.0128278 0)
(0.298927 0.0133353 0)
(0.299383 0.0136269 0)
(0.299751 0.0137442 0)
(0.300034 0.0137279 0)
(0.300238 0.013615 0)
(0.300373 0.0134379 0)
(0.30045 0.0132239 0)
(0.300477 0.0129952 0)
(0.300465 0.0127698 0)
(0.300422 0.0125619 0)
(0.300354 0.0123822 0)
(0.300269 0.0122387 0)
(0.300172 0.0121365 0)
(0.300079 0.0120779 0)
(0.296945 0.00480347 0)
(0.297278 0.00632074 0)
(0.297673 0.00764559 0)
(0.298095 0.00874396 0)
(0.298515 0.00961045 0)
(0.298909 0.0102558 0)
(0.299261 0.0107013 0)
(0.299561 0.0109745 0)
(0.299806 0.0111062 0)
(0.299996 0.0111269 0)
(0.300135 0.0110654 0)
(0.300228 0.0109474 0)
(0.300282 0.010795 0)
(0.300304 0.0106266 0)
(0.300299 0.0104574 0)
(0.300272 0.0102991 0)
(0.300229 0.0101613 0)
(0.300174 0.0100507 0)
(0.300111 0.00997217 0)
(0.30005 0.00992814 0)
(0.298183 0.00362358 0)
(0.298376 0.00478053 0)
(0.298606 0.00579699 0)
(0.298853 0.00664737 0)
(0.299101 0.0073265 0)
(0.299334 0.0078406 0)
(0.299544 0.00820374 0)
(0.299724 0.00843532 0)
(0.299871 0.00855741 0)
(0.299986 0.00859255 0)
(0.300071 0.00856227 0)
(0.300128 0.00848604 0)
(0.300162 0.00838088 0)
(0.300176 0.00826115 0)
(0.300174 0.00813863 0)
(0.300159 0.00802284 0)
(0.300135 0.00792124 0)
(0.300102 0.00783947 0)
(0.300065 0.00778151 0)
(0.300028 0.00774977 0)
(0.2991 0.00253686 0)
(0.299194 0.00334699 0)
(0.299306 0.00406366 0)
(0.299428 0.0046674 0)
(0.29955 0.00515392 0)
(0.299665 0.00552663 0)
(0.299769 0.00579439 0)
(0.299858 0.00596983 0)
(0.299932 0.00606765 0)
(0.29999 0.00610312 0)
(0.300033 0.00609107 0)
(0.300062 0.00604512 0)
(0.300079 0.0059773 0)
(0.300087 0.00589787 0)
(0.300086 0.00581534 0)
(0.300079 0.00573657 0)
(0.300067 0.00566702 0)
(0.300051 0.00561086 0)
(0.300032 0.00557117 0)
(0.300013 0.00554993 0)
(0.299692 0.00149942 0)
(0.299722 0.0019826 0)
(0.29976 0.0024102 0)
(0.299802 0.00277155 0)
(0.299844 0.00306425 0)
(0.299884 0.00329 0)
(0.29992 0.00345366 0)
(0.299951 0.00356243 0)
(0.299976 0.00362479 0)
(0.299996 0.00364966 0)
(0.300011 0.00364579 0)
(0.300021 0.00362123 0)
(0.300027 0.00358316 0)
(0.30003 0.00353772 0)
(0.300029 0.00349003 0)
(0.300027 0.00344422 0)
(0.300023 0.00340361 0)
(0.300017 0.00337075 0)
(0.300011 0.00334758 0)
(0.300004 0.00333542 0)
(0.299985 0.000503638 0)
(0.299986 0.000658571 0)
(0.299988 0.000799592 0)
(0.29999 0.000919565 0)
(0.299992 0.00101707 0)
(0.299994 0.00109254 0)
(0.299996 0.00114751 0)
(0.299998 0.0011843 0)
(0.299999 0.00120566 0)
(0.3 0.00121454 0)
(0.300001 0.00121379 0)
(0.300001 0.00120609 0)
(0.300001 0.00119381 0)
(0.300002 0.00117901 0)
(0.300002 0.00116339 0)
(0.300001 0.00114835 0)
(0.300001 0.00113498 0)
(0.300001 0.00112416 0)
(0.300001 0.00111653 0)
(0.3 0.00111257 0)
(0.0892818 -0.159844 0)
(0.0731846 -0.136505 0)
(0.0626033 -0.114609 0)
(0.054839 -0.0949699 0)
(0.0488734 -0.0770657 0)
(0.0442475 -0.0604564 0)
(0.0407133 -0.0448459 0)
(0.0381179 -0.0299892 0)
(0.0363625 -0.0156647 0)
(0.0353847 -0.00166826 0)
(0.0351516 0.0121927 0)
(0.035657 0.0261059 0)
(0.0369216 0.0402605 0)
(0.0389981 0.0548547 0)
(0.0419812 0.0701015 0)
(0.0460324 0.0862371 0)
(0.0514392 0.103557 0)
(0.0587725 0.122523 0)
(0.0693417 0.143686 0)
(0.0866804 0.166157 0)
(0.165967 -0.103006 0)
(0.152536 -0.0933747 0)
(0.140953 -0.0825966 0)
(0.131283 -0.0712196 0)
(0.123383 -0.0594433 0)
(0.117079 -0.0473753 0)
(0.112207 -0.0350979 0)
(0.108633 -0.0226721 0)
(0.106254 -0.0101404 0)
(0.105001 0.0024676 0)
(0.104835 0.0151299 0)
(0.105749 0.027828 0)
(0.107768 0.0405433 0)
(0.11095 0.0532535 0)
(0.115397 0.0659259 0)
(0.121264 0.0785063 0)
(0.128779 0.0909191 0)
(0.138293 0.103142 0)
(0.150354 0.115211 0)
(0.165843 0.125895 0)
(0.186292 -0.0684128 0)
(0.181321 -0.0625593 0)
(0.176851 -0.0558977 0)
(0.172887 -0.0485573 0)
(0.16945 -0.0406811 0)
(0.166566 -0.0323882 0)
(0.16426 -0.0237759 0)
(0.162554 -0.0149258 0)
(0.161464 -0.00590732 0)
(0.161002 0.00321882 0)
(0.161179 0.0123972 0)
(0.162 0.021575 0)
(0.163473 0.0306987 0)
(0.165601 0.0397113 0)
(0.168387 0.0485481 0)
(0.171832 0.0571309 0)
(0.175938 0.0653678 0)
(0.180712 0.073165 0)
(0.186203 0.0803972 0)
(0.192548 0.0865952 0)
(0.215553 -0.0435969 0)
(0.211809 -0.0391958 0)
(0.208355 -0.0344674 0)
(0.205258 -0.0294738 0)
(0.202565 -0.0242397 0)
(0.200308 -0.018794 0)
(0.198507 -0.0131711 0)
(0.197179 -0.00740783 0)
(0.196333 -0.00154187 0)
(0.195976 0.00438828 0)
(0.196112 0.0103434 0)
(0.196744 0.0162836 0)
(0.197874 0.0221683 0)
(0.199503 0.0279562 0)
(0.201631 0.033605 0)
(0.204259 0.0390704 0)
(0.207384 0.0443099 0)
(0.211009 0.0492917 0)
(0.215143 0.0539789 0)
(0.219808 0.0581779 0)
(0.230223 -0.0315409 0)
(0.22826 -0.0282857 0)
(0.226503 -0.0248123 0)
(0.224959 -0.0211377 0)
(0.223638 -0.0172841 0)
(0.22255 -0.0132771 0)
(0.221705 -0.00914396 0)
(0.221113 -0.00491259 0)
(0.220779 -0.000611377 0)
(0.22071 0.00373101 0)
(0.220908 0.00808569 0)
(0.221374 0.0124236 0)
(0.222107 0.0167153 0)
(0.223101 0.0209312 0)
(0.224352 0.0250408 0)
(0.225848 0.0290134 0)
(0.227578 0.0328176 0)
(0.229529 0.0364242 0)
(0.23169 0.0398018 0)
(0.234053 0.0428864 0)
(0.246054 -0.0224714 0)
(0.244653 -0.0198915 0)
(0.243378 -0.0171923 0)
(0.242246 -0.0144036 0)
(0.24127 -0.0115337 0)
(0.24046 -0.00859214 0)
(0.239826 -0.00559152 0)
(0.239376 -0.00254568 0)
(0.239115 0.00053103 0)
(0.239047 0.00362374 0)
(0.239175 0.00671716 0)
(0.239498 0.00979579 0)
(0.240015 0.0128441 0)
(0.240724 0.0158465 0)
(0.24162 0.018788 0)
(0.242696 0.0216538 0)
(0.243946 0.0244302 0)
(0.245359 0.0271078 0)
(0.246927 0.0296772 0)
(0.248639 0.0320947 0)
(0.255914 -0.0169815 0)
(0.255045 -0.0149838 0)
(0.254276 -0.0129087 0)
(0.253612 -0.0107664 0)
(0.253053 -0.00856373 0)
(0.252603 -0.00630863 0)
(0.252265 -0.00401064 0)
(0.252039 -0.00167984 0)
(0.251929 0.0006733 0)
(0.251934 0.003038 0)
(0.252055 0.00540326 0)
(0.252291 0.00775801 0)
(0.252641 0.0100911 0)
(0.253103 0.0123917 0)
(0.253674 0.0146487 0)
(0.254349 0.0168518 0)
(0.255125 0.0189906 0)
(0.255996 0.0210564 0)
(0.256958 0.023041 0)
(0.258008 0.0249304 0)
(0.265393 -0.0130111 0)
(0.26478 -0.0113872 0)
(0.264233 -0.00971258 0)
(0.263756 -0.00800356 0)
(0.263353 -0.00626349 0)
(0.263025 -0.00449627 0)
(0.262776 -0.00270731 0)
(0.262608 -0.000902455 0)
(0.262522 0.000912435 0)
(0.26252 0.00273138 0)
(0.262601 0.00454829 0)
(0.262766 0.0063571 0)
(0.263014 0.00815179 0)
(0.263343 0.00992642 0)
(0.263751 0.0116752 0)
(0.264236 0.0133925 0)
(0.264794 0.0150731 0)
(0.265422 0.0167133 0)
(0.266116 0.0183096 0)
(0.266871 0.0198465 0)
(0.272087 -0.0101834 0)
(0.271668 -0.0088833 0)
(0.271302 -0.00755014 0)
(0.270989 -0.00619136 0)
(0.270729 -0.0048094 0)
(0.270523 -0.00340737 0)
(0.270372 -0.0019892 0)
(0.270276 -0.00055909 0)
(0.270234 0.000878696 0)
(0.270248 0.00231979 0)
(0.270317 0.00375978 0)
(0.27044 0.00519422 0)
(0.270617 0.00661868 0)
(0.270847 0.00802881 0)
(0.271129 0.00942034 0)
(0.271461 0.0107891 0)
(0.271842 0.0121312 0)
(0.272269 0.0134432 0)
(0.272742 0.0147224 0)
(0.273259 0.015963 0)
(0.278162 -0.00814231 0)
(0.277867 -0.00706852 0)
(0.277608 -0.0059705 0)
(0.277385 -0.00485753 0)
(0.2772 -0.00373102 0)
(0.277053 -0.00259263 0)
(0.276944 -0.00144493 0)
(0.276875 -0.000290656 0)
(0.276845 0.000867492 0)
(0.276854 0.0020268 0)
(0.276903 0.00318454 0)
(0.276991 0.004338 0)
(0.277118 0.00548448 0)
(0.277284 0.00662135 0)
(0.277486 0.007746 0)
(0.277725 0.00885588 0)
(0.277999 0.0099486 0)
(0.278307 0.0110224 0)
(0.278648 0.0120756 0)
(0.279019 0.0131015 0)
(0.282785 -0.00653064 0)
(0.282574 -0.00565338 0)
(0.282391 -0.00475979 0)
(0.282235 -0.00385521 0)
(0.282108 -0.00294056 0)
(0.282009 -0.00201716 0)
(0.281937 -0.00108685 0)
(0.281893 -0.000151621 0)
(0.281877 0.00078655 0)
(0.281889 0.00172567 0)
(0.281928 0.00266373 0)
(0.281994 0.00359871 0)
(0.282087 0.00452861 0)
(0.282207 0.00545148 0)
(0.282353 0.00636536 0)
(0.282524 0.00726836 0)
(0.282719 0.00815867 0)
(0.282939 0.00903476 0)
(0.283182 0.00989539 0)
(0.283448 0.0107377 0)
(0.286841 -0.00532618 0)
(0.286692 -0.00459793 0)
(0.286563 -0.00385697 0)
(0.286454 -0.00310893 0)
(0.286365 -0.00235439 0)
(0.286295 -0.00159409 0)
(0.286245 -0.000829342 0)
(0.286215 -6.15523e-05 0)
(0.286204 0.000707903 0)
(0.286213 0.00147766 0)
(0.286241 0.00224635 0)
(0.286289 0.00301262 0)
(0.286356 0.00377511 0)
(0.286441 0.0045325 0)
(0.286545 0.00528347 0)
(0.286667 0.00602673 0)
(0.286807 0.00676105 0)
(0.286963 0.00748549 0)
(0.287136 0.00819923 0)
(0.287325 0.008899 0)
(0.290044 -0.00431271 0)
(0.289936 -0.00371537 0)
(0.289844 -0.00310912 0)
(0.289767 -0.0024977 0)
(0.289704 -0.00188146 0)
(0.289656 -0.00126097 0)
(0.289622 -0.000637208 0)
(0.289602 -1.12042e-05 0)
(0.289596 0.00061602 0)
(0.289603 0.00124345 0)
(0.289625 0.00187007 0)
(0.28966 0.00249486 0)
(0.289709 0.00311682 0)
(0.28977 0.00373494 0)
(0.289845 0.00434826 0)
(0.289932 0.00495579 0)
(0.290031 0.00555661 0)
(0.290143 0.00614994 0)
(0.290266 0.0067352 0)
(0.290401 0.00731076 0)
(0.292772 -0.00351176 0)
(0.292698 -0.00302094 0)
(0.292635 -0.00252301 0)
(0.292582 -0.00202157 0)
(0.292539 -0.00151681 0)
(0.292506 -0.00100908 0)
(0.292484 -0.000499085 0)
(0.29247 1.23939e-05 0)
(0.292467 0.000524611 0)
(0.292473 0.00103683 0)
(0.292488 0.00154832 0)
(0.292512 0.00205834 0)
(0.292546 0.00256617 0)
(0.292588 0.00307111 0)
(0.29264 0.00357244 0)
(0.2927 0.00406946 0)
(0.292768 0.0045615 0)
(0.292845 0.00504805 0)
(0.292929 0.0055287 0)
(0.293022 0.00600176 0)
(0.294938 -0.00280902 0)
(0.294886 -0.00241323 0)
(0.294841 -0.00201239 0)
(0.294805 -0.00160913 0)
(0.294776 -0.00120351 0)
(0.294753 -0.00079577 0)
(0.294738 -0.000386435 0)
(0.294729 2.39242e-05 0)
(0.294727 0.000434759 0)
(0.294731 0.000845527 0)
(0.294742 0.00125569 0)
(0.294759 0.0016647 0)
(0.294781 0.00207203 0)
(0.29481 0.00247715 0)
(0.294845 0.00287955 0)
(0.294886 0.00327869 0)
(0.294932 0.00367408 0)
(0.294984 0.00406531 0)
(0.295041 0.00445213 0)
(0.295104 0.00483356 0)
(0.296711 -0.00221397 0)
(0.296676 -0.00190057 0)
(0.296647 -0.00158327 0)
(0.296623 -0.00126445 0)
(0.296603 -0.000944091 0)
(0.296589 -0.000622294 0)
(0.296579 -0.000299441 0)
(0.296573 2.4052e-05 0)
(0.296571 0.000347788 0)
(0.296574 0.000671377 0)
(0.29658 0.000994432 0)
(0.29659 0.00131657 0)
(0.296605 0.0016374 0)
(0.296622 0.00195655 0)
(0.296644 0.00227364 0)
(0.296669 0.0025883 0)
(0.296698 0.00290016 0)
(0.29673 0.00320897 0)
(0.296766 0.00351456 0)
(0.296804 0.00381596 0)
(0.298066 -0.00166055 0)
(0.298041 -0.00142432 0)
(0.298021 -0.0011853 0)
(0.298004 -0.000945272 0)
(0.297991 -0.000704177 0)
(0.297981 -0.000462076 0)
(0.297974 -0.000219242 0)
(0.297969 2.40234e-05 0)
(0.297968 0.000267438 0)
(0.297969 0.000510724 0)
(0.297972 0.000753609 0)
(0.297977 0.000995818 0)
(0.297985 0.00123708 0)
(0.297995 0.00147713 0)
(0.298008 0.0017157 0)
(0.298022 0.00195253 0)
(0.298039 0.00218734 0)
(0.298057 0.00241997 0)
(0.298078 0.00265031 0)
(0.2981 0.00287773 0)
(0.299065 -0.00115008 0)
(0.299049 -0.000986486 0)
(0.299036 -0.000820567 0)
(0.299026 -0.000653727 0)
(0.299018 -0.000485961 0)
(0.299012 -0.000317347 0)
(0.299007 -0.000148107 0)
(0.299004 2.15263e-05 0)
(0.299003 0.000191339 0)
(0.299003 0.000361128 0)
(0.299004 0.000530696 0)
(0.299006 0.000699848 0)
(0.299009 0.000868396 0)
(0.299014 0.00103615 0)
(0.299019 0.00120293 0)
(0.299026 0.00136854 0)
(0.299033 0.00153281 0)
(0.299042 0.0016956 0)
(0.299051 0.00185687 0)
(0.299062 0.00201603 0)
(0.299696 -0.000662075 0)
(0.299689 -0.000567995 0)
(0.299684 -0.000472236 0)
(0.29968 -0.000375583 0)
(0.299676 -0.000278071 0)
(0.299674 -0.000179814 0)
(0.299672 -8.09994e-05 0)
(0.299671 1.82e-05 0)
(0.29967 0.000117631 0)
(0.29967 0.000217152 0)
(0.29967 0.00031663 0)
(0.299671 0.000415939 0)
(0.299671 0.000514955 0)
(0.299673 0.000613561 0)
(0.299674 0.000711642 0)
(0.299676 0.000809081 0)
(0.299678 0.00090576 0)
(0.29968 0.0010016 0)
(0.299682 0.00109665 0)
(0.299684 0.00119072 0)
(0.299989 -0.000221492 0)
(0.299989 -0.000190599 0)
(0.299988 -0.000158511 0)
(0.299988 -0.000126146 0)
(0.299988 -9.35069e-05 0)
(0.299988 -6.05936e-05 0)
(0.299988 -2.74709e-05 0)
(0.299988 5.79621e-06 0)
(0.299988 3.91569e-05 0)
(0.299988 7.25678e-05 0)
(0.299988 0.00010599 0)
(0.299988 0.000139387 0)
(0.299988 0.000172728 0)
(0.299988 0.000205981 0)
(0.299988 0.000239121 0)
(0.299988 0.000272119 0)
(0.299988 0.00030496 0)
(0.299988 0.000337704 0)
(0.299988 0.000370471 0)
(0.299987 0.00040274 0)
(0.304912 -0.124422 0)
(0.303111 -0.128677 0)
(0.301233 -0.133199 0)
(0.299226 -0.137985 0)
(0.297035 -0.143019 0)
(0.294595 -0.148292 0)
(0.291826 -0.15378 0)
(0.288601 -0.159441 0)
(0.284762 -0.16521 0)
(0.280105 -0.170992 0)
(0.274383 -0.176662 0)
(0.267307 -0.182057 0)
(0.258553 -0.186976 0)
(0.247763 -0.191171 0)
(0.234562 -0.194323 0)
(0.21857 -0.196025 0)
(0.199463 -0.19592 0)
(0.177015 -0.194032 0)
(0.150998 -0.190421 0)
(0.121099 -0.182033 0)
(0.304348 -0.066212 0)
(0.302499 -0.0686508 0)
(0.300564 -0.0713009 0)
(0.298425 -0.0741372 0)
(0.296053 -0.0771715 0)
(0.293428 -0.0804252 0)
(0.29052 -0.083914 0)
(0.287292 -0.0876451 0)
(0.283689 -0.0916125 0)
(0.279642 -0.0957906 0)
(0.275058 -0.100127 0)
(0.269818 -0.104532 0)
(0.263776 -0.108872 0)
(0.256753 -0.112951 0)
(0.248547 -0.116501 0)
(0.238945 -0.119183 0)
(0.227758 -0.12059 0)
(0.214798 -0.120243 0)
(0.199802 -0.117519 0)
(0.182541 -0.111625 0)
(0.297963 -0.0761925 0)
(0.296008 -0.077739 0)
(0.293786 -0.079306 0)
(0.291253 -0.0808634 0)
(0.288386 -0.0824007 0)
(0.285155 -0.0839037 0)
(0.281531 -0.0853561 0)
(0.277485 -0.0867377 0)
(0.272988 -0.0880238 0)
(0.268015 -0.0891821 0)
(0.262544 -0.0901709 0)
(0.256559 -0.0909349 0)
(0.250053 -0.0914014 0)
(0.24303 -0.0914749 0)
(0.235511 -0.0910338 0)
(0.22754 -0.0899285 0)
(0.219186 -0.0879758 0)
(0.210553 -0.0849484 0)
(0.201791 -0.0805868 0)
(0.19314 -0.0746844 0)
(0.301592 -0.0541171 0)
(0.30025 -0.0556303 0)
(0.298766 -0.0572064 0)
(0.297064 -0.0587932 0)
(0.295115 -0.0603696 0)
(0.292892 -0.0619107 0)
(0.290362 -0.0633855 0)
(0.287493 -0.0647568 0)
(0.28425 -0.0659796 0)
(0.280598 -0.0670011 0)
(0.276506 -0.067759 0)
(0.271945 -0.0681816 0)
(0.266899 -0.0681875 0)
(0.261363 -0.0676869 0)
(0.255354 -0.0665847 0)
(0.248915 -0.064784 0)
(0.242119 -0.0621879 0)
(0.235073 -0.0587132 0)
(0.227932 -0.0543118 0)
(0.220892 -0.0489084 0)
(0.297143 -0.0521506 0)
(0.295711 -0.0529605 0)
(0.29411 -0.0537532 0)
(0.292312 -0.0545256 0)
(0.290304 -0.0552608 0)
(0.288072 -0.0559404 0)
(0.285602 -0.0565411 0)
(0.282881 -0.0570344 0)
(0.279898 -0.0573856 0)
(0.276647 -0.0575532 0)
(0.273122 -0.0574896 0)
(0.269329 -0.0571393 0)
(0.265276 -0.0564393 0)
(0.260987 -0.0553198 0)
(0.256496 -0.0537073 0)
(0.251854 -0.0515262 0)
(0.247129 -0.0487024 0)
(0.242403 -0.0451735 0)
(0.237778 -0.040911 0)
(0.233358 -0.0359221 0)
(0.301116 -0.0430049 0)
(0.300055 -0.0437774 0)
(0.298841 -0.0445228 0)
(0.297449 -0.0452273 0)
(0.295862 -0.0458694 0)
(0.294064 -0.046428 0)
(0.292042 -0.046878 0)
(0.289783 -0.0471903 0)
(0.287279 -0.0473326 0)
(0.284525 -0.0472691 0)
(0.281523 -0.0469609 0)
(0.278282 -0.0463648 0)
(0.274819 -0.0454353 0)
(0.271163 -0.0441256 0)
(0.267356 -0.0423894 0)
(0.263452 -0.0401825 0)
(0.259518 -0.0374664 0)
(0.255638 -0.0342194 0)
(0.251903 -0.0304572 0)
(0.248404 -0.0261779 0)
(0.298755 -0.0391974 0)
(0.29782 -0.0396978 0)
(0.296759 -0.0401446 0)
(0.295558 -0.0405524 0)
(0.294203 -0.0408986 0)
(0.292686 -0.0411658 0)
(0.290997 -0.0413316 0)
(0.289129 -0.0413709 0)
(0.28708 -0.0412549 0)
(0.284849 -0.0409519 0)
(0.282443 -0.0404275 0)
(0.279872 -0.0396448 0)
(0.277156 -0.0385658 0)
(0.274322 -0.0371526 0)
(0.271407 -0.0353688 0)
(0.268459 -0.0331822 0)
(0.265532 -0.0305654 0)
(0.262689 -0.0275038 0)
(0.259996 -0.0240113 0)
(0.257512 -0.0201148 0)
(0.301062 -0.0339966 0)
(0.300319 -0.0344363 0)
(0.299442 -0.0348113 0)
(0.298439 -0.0351385 0)
(0.297295 -0.0353944 0)
(0.296003 -0.0355638 0)
(0.294556 -0.0356265 0)
(0.292951 -0.0355611 0)
(0.291187 -0.0353433 0)
(0.289266 -0.0349473 0)
(0.287198 -0.0343454 0)
(0.284996 -0.0335089 0)
(0.282681 -0.0324093 0)
(0.280281 -0.0310189 0)
(0.277832 -0.029313 0)
(0.275379 -0.0272713 0)
(0.272971 -0.0248789 0)
(0.270663 -0.0221333 0)
(0.268515 -0.0190641 0)
(0.266577 -0.0156972 0)
(0.300088 -0.0305067 0)
(0.299505 -0.0308394 0)
(0.298817 -0.0310988 0)
(0.298028 -0.031315 0)
(0.297122 -0.0314624 0)
(0.296096 -0.0315281 0)
(0.294944 -0.0314935 0)
(0.293663 -0.0313389 0)
(0.292253 -0.031043 0)
(0.290717 -0.0305828 0)
(0.289064 -0.0299347 0)
(0.287307 -0.0290743 0)
(0.285464 -0.0279782 0)
(0.283561 -0.0266246 0)
(0.28163 -0.0249946 0)
(0.279706 -0.0230738 0)
(0.277833 -0.020853 0)
(0.276057 -0.0183318 0)
(0.27442 -0.0155346 0)
(0.272957 -0.0124933 0)
(0.301169 -0.0267759 0)
(0.300709 -0.027071 0)
(0.300143 -0.0272884 0)
(0.299489 -0.0274623 0)
(0.298734 -0.027567 0)
(0.297875 -0.0275922 0)
(0.296907 -0.0275212 0)
(0.29583 -0.027337 0)
(0.294643 -0.0270211 0)
(0.293351 -0.026554 0)
(0.291963 -0.0259159 0)
(0.29049 -0.0250871 0)
(0.288951 -0.0240488 0)
(0.287369 -0.0227845 0)
(0.285772 -0.0212806 0)
(0.284193 -0.0195284 0)
(0.28267 -0.0175237 0)
(0.28124 -0.0152709 0)
(0.279942 -0.0127999 0)
(0.278807 -0.0101441 0)
(0.300808 -0.0237363 0)
(0.30047 -0.0239801 0)
(0.300052 -0.0241496 0)
(0.299562 -0.0242815 0)
(0.298988 -0.0243492 0)
(0.298328 -0.0243431 0)
(0.297576 -0.0242478 0)
(0.296732 -0.0240476 0)
(0.295796 -0.0237264 0)
(0.294773 -0.023267 0)
(0.293668 -0.0226522 0)
(0.292495 -0.0218656 0)
(0.291268 -0.0208915 0)
(0.290007 -0.0197166 0)
(0.288736 -0.0183307 0)
(0.287484 -0.0167279 0)
(0.286281 -0.0149063 0)
(0.28516 -0.012871 0)
(0.284152 -0.0106471 0)
(0.283276 -0.00826668 0)
(0.301256 -0.0206879 0)
(0.301003 -0.0209101 0)
(0.300676 -0.0210621 0)
(0.300288 -0.0211792 0)
(0.299831 -0.0212363 0)
(0.2993 -0.0212245 0)
(0.298694 -0.0211311 0)
(0.298011 -0.0209419 0)
(0.297253 -0.0206428 0)
(0.296422 -0.0202188 0)
(0.295526 -0.0196549 0)
(0.294574 -0.0189369 0)
(0.293578 -0.018052 0)
(0.292556 -0.0169893 0)
(0.291528 -0.0157416 0)
(0.29052 -0.0143051 0)
(0.289557 -0.0126807 0)
(0.288667 -0.0108753 0)
(0.287877 -0.00891511 0)
(0.287203 -0.00683305 0)
(0.301125 -0.0179644 0)
(0.300946 -0.0181535 0)
(0.30072 -0.0182849 0)
(0.30044 -0.0183858 0)
(0.300106 -0.0184356 0)
(0.299712 -0.0184235 0)
(0.299258 -0.0183395 0)
(0.298741 -0.0181695 0)
(0.298161 -0.0179009 0)
(0.297521 -0.0175198 0)
(0.296825 -0.0170131 0)
(0.296081 -0.0163685 0)
(0.2953 -0.015575 0)
(0.294496 -0.0146239 0)
(0.293688 -0.0135095 0)
(0.292895 -0.0122297 0)
(0.29214 -0.0107863 0)
(0.291447 -0.00918626 0)
(0.290837 -0.00745218 0)
(0.29032 -0.00561366 0)
(0.301301 -0.0152766 0)
(0.301169 -0.0154436 0)
(0.301008 -0.0155685 0)
(0.300801 -0.0156645 0)
(0.300556 -0.0157209 0)
(0.300261 -0.0157211 0)
(0.299917 -0.0156582 0)
(0.29952 -0.0155184 0)
(0.299071 -0.0152907 0)
(0.298572 -0.0149632 0)
(0.298027 -0.0145246 0)
(0.297443 -0.0139642 0)
(0.29683 -0.013273 0)
(0.296198 -0.0124437 0)
(0.295564 -0.0114719 0)
(0.294944 -0.0103568 0)
(0.294356 -0.00910087 0)
(0.293821 -0.00771141 0)
(0.293357 -0.00621025 0)
(0.292972 -0.00462578 0)
(0.301258 -0.0127566 0)
(0.301165 -0.0128889 0)
(0.301078 -0.0130111 0)
(0.300939 -0.0131002 0)
(0.300771 -0.0131609 0)
(0.300557 -0.0131693 0)
(0.300303 -0.0131239 0)
(0.300007 -0.0130127 0)
(0.299671 -0.0128265 0)
(0.299296 -0.0125549 0)
(0.298886 -0.0121879 0)
(0.298446 -0.0117159 0)
(0.297983 -0.0111308 0)
(0.297506 -0.0104264 0)
(0.297027 -0.00959889 0)
(0.296559 -0.00864757 0)
(0.296116 -0.00757479 0)
(0.295715 -0.00638716 0)
(0.295369 -0.00510342 0)
(0.295086 -0.00374799 0)
(0.301344 -0.0102862 0)
(0.30127 -0.0103844 0)
(0.301219 -0.0105059 0)
(0.301105 -0.0105798 0)
(0.300974 -0.0106391 0)
(0.300813 -0.0106567 0)
(0.300628 -0.0106334 0)
(0.300415 -0.0105579 0)
(0.300175 -0.010421 0)
(0.299907 -0.0102131 0)
(0.299612 -0.00992505 0)
(0.299294 -0.00954839 0)
(0.298957 -0.00907595 0)
(0.298607 -0.00850221 0)
(0.298254 -0.00782385 0)
(0.297906 -0.00704018 0)
(0.297576 -0.00615338 0)
(0.297277 -0.00516976 0)
(0.297022 -0.00410641 0)
(0.296816 -0.00298569 0)
(0.301356 -0.00792523 0)
(0.301266 -0.00794319 0)
(0.301245 -0.00805243 0)
(0.301178 -0.00811526 0)
(0.301112 -0.00818164 0)
(0.301027 -0.00821803 0)
(0.300922 -0.00822144 0)
(0.300793 -0.00818225 0)
(0.300639 -0.00809273 0)
(0.30046 -0.0079453 0)
(0.300256 -0.00773254 0)
(0.300029 -0.00744752 0)
(0.299784 -0.00708413 0)
(0.299524 -0.00663765 0)
(0.299256 -0.00610526 0)
(0.298989 -0.00548646 0)
(0.298733 -0.0047834 0)
(0.298499 -0.00400196 0)
(0.298301 -0.00315643 0)
(0.298144 -0.00226514 0)
(0.301375 -0.00561355 0)
(0.301363 -0.00554732 0)
(0.301451 -0.00566683 0)
(0.301481 -0.00573986 0)
(0.30148 -0.00580778 0)
(0.301444 -0.00584887 0)
(0.301377 -0.00586202 0)
(0.301283 -0.00584324 0)
(0.301163 -0.00578748 0)
(0.301019 -0.00568911 0)
(0.300853 -0.00554225 0)
(0.300667 -0.00534131 0)
(0.300463 -0.00508147 0)
(0.300246 -0.00475917 0)
(0.300022 -0.00437258 0)
(0.299799 -0.0039219 0)
(0.299587 -0.00340961 0)
(0.299396 -0.00284112 0)
(0.299238 -0.00222745 0)
(0.299119 -0.00158258 0)
(0.301321 -0.00347973 0)
(0.30148 -0.00337122 0)
(0.301595 -0.00343279 0)
(0.301613 -0.00345934 0)
(0.301584 -0.00348027 0)
(0.301526 -0.00349373 0)
(0.301447 -0.0034962 0)
(0.301352 -0.00348344 0)
(0.301241 -0.00345054 0)
(0.301115 -0.00339272 0)
(0.300977 -0.00330556 0)
(0.300826 -0.00318516 0)
(0.300667 -0.00302842 0)
(0.300502 -0.00283327 0)
(0.300337 -0.00259889 0)
(0.300177 -0.0023259 0)
(0.300028 -0.00201643 0)
(0.299898 -0.00167437 0)
(0.299795 -0.00130603 0)
(0.299723 -0.000918501 0)
(0.300999 -0.00147181 0)
(0.30085 -0.00122597 0)
(0.300779 -0.00113603 0)
(0.300732 -0.00111056 0)
(0.30069 -0.00110581 0)
(0.300649 -0.0011082 0)
(0.300607 -0.00111058 0)
(0.300562 -0.00110933 0)
(0.300514 -0.00110206 0)
(0.300463 -0.0010868 0)
(0.30041 -0.00106186 0)
(0.300353 -0.00102579 0)
(0.300296 -0.000977433 0)
(0.300239 -0.00091602 0)
(0.300184 -0.000841254 0)
(0.300132 -0.000753367 0)
(0.300085 -0.000653211 0)
(0.300045 -0.000542355 0)
(0.300015 -0.00042365 0)
(0.299995 -0.000302055 0)
(0.0361959 -0.0897105 0)
(0.0318991 -0.0679639 9.20174e-21)
(0.0267288 -0.0498311 -9.2019e-21)
(0.0219225 -0.034715 0)
(0.0175189 -0.0224938 -1.01312e-20)
(0.0135503 -0.0128424 1.51969e-20)
(0.0100426 -0.00539909 -5.06563e-21)
(0.00700539 7.72559e-05 0)
(0.00442141 0.00386109 -4.94593e-21)
(0.00229742 0.00628341 4.94598e-21)
(0.000607931 0.00757431 0)
(-0.000667728 0.0079636 0)
(-0.00157463 0.00765397 0)
(-0.00216502 0.00682931 0)
(-0.00248335 0.00566968 0)
(-0.00256432 0.00433257 0)
(-0.00242673 0.00296153 -1.18737e-21)
(-0.00206977 0.00168792 1.18737e-21)
(-0.00147426 0.000632585 0)
(-0.000601411 8.71459e-05 0)
(0.112513 -0.0985478 8.33899e-21)
(0.0952368 -0.079299 0)
(0.079426 -0.0629909 0)