/*--------------------------------*- C++ -*----------------------------------*\
| =========                 |                                                 |
| \\      /  F ield         | OpenFOAM: The Open Source CFD Toolbox           |
|  \\    /   O peration     | Version:  v1806                                 |
|   \\  /    A nd           | Web:      www.OpenFOAM.com                      |
|    \\/     M anipulation  |                                                 |
\*---------------------------------------------------------------------------*/
FoamFile
{
    version     2.0;
    format      ascii;
    class       volVectorField;
    location    "150";
    object      U;
}
// * * * * * * * * * * * * * * * * * * * * * * * * * * * * * * * * * * * * * //

dimensions      [0 1 -1 0 0 0 0];


internalField   nonuniform List<vector> 
2400
(
(0.3 -0.00111046 0)
(0.300002 -0.00333177 0)
(0.300007 -0.00555 0)
(0.300015 -0.00776132 0)
(0.300028 -0.00996125 0)
(0.300047 -0.0121442 0)
(0.300073 -0.0143031 0)
(0.300109 -0.0164293 0)
(0.300158 -0.0185124 0)
(0.300222 -0.0205398 0)
(0.300305 -0.0224974 0)
(0.300409 -0.0243692 0)
(0.300538 -0.0261378 0)
(0.300696 -0.027785 0)
(0.300885 -0.0292919 0)
(0.301108 -0.0306408 0)
(0.301367 -0.0318139 0)
(0.301662 -0.032798 0)
(0.301994 -0.0335788 0)
(0.302358 -0.0341533 0)
(0.3 -0.00111214 0)
(0.300005 -0.00333701 0)
(0.300016 -0.00555956 0)
(0.300034 -0.00777647 0)
(0.300059 -0.00998373 0)
(0.300096 -0.0121762 0)
(0.300146 -0.0143474 0)
(0.300213 -0.0164892 0)
(0.300302 -0.0185914 0)
(0.300416 -0.0206422 0)
(0.300561 -0.0226274 0)
(0.30074 -0.0245314 0)
(0.300959 -0.0263365 0)
(0.301221 -0.0280242 0)
(0.301529 -0.0295749 0)
(0.301884 -0.03097 0)
(0.302288 -0.0321903 0)
(0.302738 -0.0332214 0)
(0.30323 -0.0340468 0)
(0.303759 -0.0346649 0)
(0.3 -0.00111528 0)
(0.300008 -0.00334672 0)
(0.300024 -0.00557692 0)
(0.30005 -0.00780337 0)
(0.300089 -0.0100228 0)
(0.300143 -0.012231 0)
(0.300218 -0.014422 0)
(0.300319 -0.0165882 0)
(0.300452 -0.0187202 0)
(0.300622 -0.0208063 0)
(0.300837 -0.0228325 0)
(0.301104 -0.0247828 0)
(0.301427 -0.026639 0)
(0.301812 -0.0283814 0)
(0.302262 -0.0299892 0)
(0.302778 -0.0314413 0)
(0.30336 -0.032717 0)
(0.304003 -0.0337986 0)
(0.304699 -0.0346685 0)
(0.30544 -0.0353188 0)
(0.300001 -0.00111948 0)
(0.30001 -0.00335972 0)
(0.30003 -0.00560019 0)
(0.300062 -0.00783954 0)
(0.30011 -0.0100756 0)
(0.300179 -0.0123052 0)
(0.300274 -0.0145233 0)
(0.300404 -0.0167233 0)
(0.300575 -0.0188962 0)
(0.300798 -0.0210309 0)
(0.301079 -0.0231131 0)
(0.30143 -0.0251267 0)
(0.301856 -0.0270523 0)
(0.302366 -0.0288686 0)
(0.302962 -0.0305524 0)
(0.303647 -0.03208 0)
(0.304417 -0.0334271 0)
(0.305267 -0.0345724 0)
(0.306186 -0.0354954 0)
(0.307158 -0.0361844 0)
(0.300001 -0.00112415 0)
(0.300011 -0.00337428 0)
(0.300032 -0.00562656 0)
(0.300066 -0.0078812 0)
(0.300118 -0.0101375 0)
(0.300195 -0.0123935 0)
(0.300304 -0.0146457 0)
(0.300454 -0.0168886 0)
(0.300656 -0.0191139 0)
(0.300922 -0.0213113 0)
(0.301262 -0.0234663 0)
(0.301689 -0.0255625 0)
(0.302214 -0.0275787 0)
(0.302844 -0.029492 0)
(0.303587 -0.0312756 0)
(0.304443 -0.032902 0)
(0.305411 -0.0343423 0)
(0.30648 -0.0355696 0)
(0.307636 -0.0365595 0)
(0.308858 -0.0372947 0)
(0.3 -0.00112856 0)
(0.300009 -0.00338818 0)
(0.300028 -0.00565236 0)
(0.30006 -0.00792324 0)
(0.30011 -0.0102019 0)
(0.300187 -0.0124884 0)
(0.300299 -0.0147805 0)
(0.30046 -0.0170746 0)
(0.300681 -0.0193633 0)
(0.300978 -0.0216376 0)
(0.301365 -0.0238826 0)
(0.301858 -0.0260823 0)
(0.302472 -0.0282125 0)
(0.303218 -0.0302494 0)
(0.304105 -0.0321601 0)
(0.305137 -0.0339134 0)
(0.30631 -0.035473 0)
(0.307613 -0.036805 0)
(0.309028 -0.037879 0)
(0.310523 -0.038669 0)
(0.3 -0.00113177 0)
(0.300006 -0.00339864 0)
(0.300019 -0.00567293 0)
(0.300042 -0.00795921 0)
(0.300082 -0.0102606 0)
(0.300148 -0.0125797 0)
(0.300252 -0.0149159 0)
(0.300409 -0.0172685 0)
(0.300635 -0.0196306 0)
(0.300947 -0.0219962 0)
(0.301365 -0.0243487 0)
(0.30191 -0.0266747 0)
(0.3026 -0.0289449 0)
(0.303453 -0.0311362 0)
(0.304482 -0.0332061 0)
(0.305692 -0.0351216 0)
(0.307083 -0.0368324 0)
(0.308639 -0.0382991 0)
(0.310339 -0.0394791 0)
(0.312141 -0.0403361 0)
(0.3 -0.00113267 0)
(0.3 -0.00340228 0)
(0.300002 -0.00568266 0)
(0.300009 -0.0079812 0)
(0.300028 -0.0103034 0)
(0.300072 -0.0126551 0)
(0.300153 -0.0150377 0)
(0.30029 -0.0174543 0)
(0.300501 -0.0198984 0)
(0.300808 -0.0223692 0)
(0.301237 -0.0248469 0)
(0.301814 -0.0273244 0)
(0.302564 -0.0297628 0)
(0.303511 -0.0321461 0)
(0.304675 -0.0344127 0)
(0.306065 -0.0365359 0)
(0.307688 -0.0384376 0)
(0.30952 -0.0400805 0)
(0.311544 -0.0413939 0)
(0.313693 -0.0423368 0)
(0.3 -0.00112994 0)
(0.299991 -0.00339518 0)
(0.299976 -0.0056749 0)
(0.299958 -0.00797987 0)
(0.299946 -0.0103181 0)
(0.299953 -0.0126998 0)
(0.299994 -0.015128 0)
(0.300089 -0.0176118 0)
(0.300261 -0.0201443 0)
(0.300539 -0.0227335 0)
(0.300952 -0.0253532 0)
(0.301534 -0.0280104 0)
(0.302319 -0.0306469 0)
(0.30334 -0.0332691 0)
(0.304629 -0.0357749 0)
(0.306198 -0.0381682 0)
(0.308069 -0.0403076 0)
(0.310205 -0.0421886 0)
(0.312603 -0.043668 0)
(0.315156 -0.0447294 0)
(0.299999 -0.00112209 0)
(0.299979 -0.00337284 0)
(0.299941 -0.0056421 0)
(0.299889 -0.00794447 0)
(0.299832 -0.0102907 0)
(0.299785 -0.0126962 0)
(0.299764 -0.0151657 0)
(0.299794 -0.0177167 0)
(0.299899 -0.0203403 0)
(0.300115 -0.0230596 0)
(0.300476 -0.0258356 0)
(0.301028 -0.028704 0)
(0.301815 -0.0315687 0)
(0.30288 -0.0344892 0)
(0.304275 -0.0372801 0)
(0.306016 -0.0400325 0)
(0.308152 -0.0424616 0)
(0.310625 -0.0446798 0)
(0.313467 -0.0463575 0)
(0.316496 -0.0476013 0)
(0.299998 -0.0011075 0)
(0.299964 -0.00333036 0)
(0.299896 -0.00557593 0)
(0.299799 -0.00786301 0)
(0.299682 -0.0102052 0)
(0.299562 -0.012624 0)
(0.299456 -0.0151258 0)
(0.299391 -0.0177394 0)
(0.299395 -0.020452 0)
(0.299509 -0.0233099 0)
(0.299775 -0.0262522 0)
(0.30025 -0.029366 0)
(0.30099 -0.032486 0)
(0.302056 -0.0357819 0)
(0.303526 -0.0389017 0)
(0.305418 -0.0421461 0)
(0.307837 -0.0449121 0)
(0.310679 -0.0476375 0)
(0.314065 -0.0495304 0)
(0.317665 -0.0510911 0)
(0.299997 -0.00108446 0)
(0.299944 -0.00326251 0)
(0.29984 -0.00546749 0)
(0.299687 -0.00772254 0)
(0.299495 -0.010044 0)
(0.299281 -0.0124607 0)
(0.299064 -0.0149801 0)
(0.298871 -0.0176456 0)
(0.298733 -0.0204379 0)
(0.298697 -0.0234373 0)
(0.298813 -0.0265487 0)
(0.299148 -0.0299427 0)
(0.299778 -0.0333383 0)
(0.300779 -0.0371085 0)
(0.302272 -0.0405899 0)
(0.304273 -0.0445281 0)
(0.306991 -0.0476523 0)
(0.310222 -0.0511886 0)
(0.314298 -0.0532592 0)
(0.318585 -0.0554288 0)
(0.299996 -0.00105124 0)
(0.299922 -0.00316404 0)
(0.299773 -0.00530774 0)
(0.299553 -0.00750969 0)
(0.299271 -0.00978905 0)
(0.298942 -0.012182 0)
(0.298585 -0.0146975 0)
(0.298227 -0.0173957 0)
(0.297904 -0.0202499 0)
(0.297659 -0.0233835 0)
(0.297559 -0.026657 0)
(0.29767 -0.0303604 0)
(0.298107 -0.0340419 0)
(0.298942 -0.0384057 0)
(0.300383 -0.0422615 0)
(0.302406 -0.047193 0)
(0.305432 -0.0506338 0)
(0.309031 -0.0555262 0)
(0.314032 -0.057601 0)
(0.319105 -0.0610046 0)
(0.299995 -0.00100622 0)
(0.299895 -0.00302996 0)
(0.299697 -0.00508803 0)
(0.299399 -0.00721139 0)
(0.299012 -0.009422 0)
(0.298546 -0.0117629 0)
(0.298023 -0.0142455 0)
(0.29746 -0.0169463 0)
(0.296904 -0.0198339 0)
(0.296381 -0.0230779 0)
(0.29599 -0.0264944 0)
(0.295768 -0.0305174 0)
(0.295906 -0.0344861 0)
(0.296428 -0.0395656 0)
(0.297703 -0.0437931 0)
(0.299594 -0.0501275 0)
(0.30291 -0.0537428 0)
(0.306775 -0.0609284 0)
(0.313075 -0.0625518 0)
(0.318906 -0.068477 0)
(0.299993 -0.000948008 0)
(0.299866 -0.00285596 0)
(0.299613 -0.00480077 0)
(0.299228 -0.00681596 0)
(0.298724 -0.00892616 0)
(0.298101 -0.0111797 0)
(0.297388 -0.0135917 0)
(0.296579 -0.0162525 0)
(0.295745 -0.0191318 0)
(0.294866 -0.0224395 0)
(0.294105 -0.0259644 0)
(0.293407 -0.0302779 0)
(0.293123 -0.0345309 0)
(0.293106 -0.0404021 0)
(0.294065 -0.0450235 0)
(0.295561 -0.0532239 0)
(0.299065 -0.0568033 0)
(0.303016 -0.0677439 0)
(0.311048 -0.0679691 0)
(0.317392 -0.078965 0)
(0.299992 -0.000875595 0)
(0.299835 -0.0026389 0)
(0.299523 -0.00444028 0)
(0.299046 -0.00631434 0)
(0.298416 -0.00828792 0)
(0.297621 -0.0104121 0)
(0.296697 -0.0127074 0)
(0.295609 -0.0152716 0)
(0.294454 -0.0180856 0)
(0.29314 -0.0213813 0)
(0.291927 -0.0249588 0)
(0.290582 -0.029472 0)
(0.289739 -0.0340031 0)
(0.28885 -0.0406142 0)
(0.28931 -0.0457554 0)
(0.289937 -0.0561285 0)
(0.293429 -0.0596688 0)
(0.297214 -0.0762171 0)
(0.307018 -0.0735259 0)
(0.313904 -0.0943481 0)
(0.29999 -0.000788524 0)
(0.299804 -0.00237731 0)
(0.299433 -0.00400362 0)
(0.29886 -0.00570149 0)
(0.2981 -0.00749883 0)
(0.297127 -0.0094465 0)
(0.29598 -0.0115706 0)
(0.294589 -0.0139693 0)
(0.293079 -0.0166423 0)
(0.291265 -0.0198213 0)
(0.28952 -0.0233605 0)
(0.287352 -0.0279118 0)
(0.285795 -0.0326824 0)
(0.28359 -0.0397887 0)
(0.283343 -0.0457139 0)
(0.282201 -0.0580443 0)
(0.285551 -0.062381 0)
(0.288389 -0.0858468 0)
(0.299223 -0.0790556 0)
(0.308575 -0.117402 0)
(0.299989 -0.000687045 0)
(0.299774 -0.00207174 0)
(0.299345 -0.00349136 0)
(0.298682 -0.00497756 0)
(0.297794 -0.00655755 0)
(0.296645 -0.00827867 0)
(0.295274 -0.0101708 0)
(0.293576 -0.012326 0)
(0.29169 -0.0147633 0)
(0.289344 -0.0176961 0)
(0.286988 -0.0210552 0)
(0.283873 -0.025421 0)
(0.281395 -0.0302824 0)
(0.277444 -0.0374676 0)
(0.276138 -0.0443886 0)
(0.271838 -0.0577716 0)
(0.275094 -0.0649642 0)
(0.274191 -0.0942066 0)
(0.286518 -0.0863352 0)
(0.301281 -0.151172 0)
(0.299988 -0.000572506 0)
(0.299748 -0.00172537 0)
(0.299267 -0.00290865 0)
(0.298521 -0.00414949 0)
(0.297517 -0.00547248 0)
(0.296208 -0.00691717 0)
(0.294623 -0.00851531 0)
(0.292641 -0.0103445 0)
(0.290378 -0.0124398 0)
(0.287524 -0.0149793 0)
(0.284492 -0.0179664 0)
(0.280427 -0.0218727 0)
(0.276744 -0.0264931 0)
(0.270881 -0.0332381 0)
(0.267673 -0.0408369 0)
(0.259111 -0.0541306 0)
(0.261202 -0.0660488 0)
(0.251193 -0.0973882 0)
(0.269727 -0.102382 0)
(0.283078 -0.195466 0)
(0.299987 -0.000448161 0)
(0.299727 -0.00134548 0)
(0.299203 -0.00226751 0)
(0.298389 -0.00323413 0)
(0.297288 -0.0042657 0)
(0.295848 -0.00538912 0)
(0.29408 -0.00663749 0)
(0.29186 -0.008063 0)
(0.289256 -0.00971488 0)
(0.28597 -0.0117127 0)
(0.282271 -0.0141221 0)
(0.277385 -0.0172659 0)
(0.272279 -0.0211832 0)
(0.264737 -0.0268615 0)
(0.258291 -0.0340529 0)
(0.245785 -0.0461217 0)
(0.241329 -0.0612168 0)
(0.218986 -0.0923379 0)
(0.238243 -0.127654 0)
(0.220306 -0.234878 0)
(0.302945 -0.0346917 0)
(0.303848 -0.034596 0)
(0.304817 -0.0337049 0)
(0.305813 -0.0321953 0)
(0.306787 -0.0302071 0)
(0.307705 -0.0279248 0)
(0.30858 -0.0254741 0)
(0.309357 -0.0229693 0)
(0.310085 -0.0204642 0)
(0.310722 -0.0181128 0)
(0.304595 -0.0352512 0)
(0.305796 -0.0351885 0)
(0.307002 -0.0343048 0)
(0.308157 -0.0327866 0)
(0.309203 -0.0307657 0)
(0.310125 -0.0284477 0)
(0.310946 -0.0259472 0)
(0.31163 -0.0233938 0)
(0.312235 -0.0208405 0)
(0.312726 -0.0184373 0)
(0.306593 -0.0359452 0)
(0.308198 -0.0358962 0)
(0.309749 -0.0349769 0)
(0.311161 -0.0334019 0)
(0.312368 -0.0313036 0)
(0.313368 -0.0289166 0)
(0.314196 -0.0263389 0)
(0.314833 -0.023722 0)
(0.315349 -0.0211061 0)
(0.315709 -0.0186408 0)
(0.30866 -0.0368475 0)
(0.310715 -0.0367825 0)
(0.312655 -0.0357817 0)
(0.314363 -0.0341032 0)
(0.315763 -0.0318818 0)
(0.316874 -0.0293903 0)
(0.317741 -0.0267026 0)
(0.318365 -0.0240007 0)
(0.318825 -0.0212974 0)
(0.319084 -0.0187587 0)
(0.31074 -0.0379951 0)
(0.313287 -0.0378862 0)
(0.315644 -0.0367579 0)
(0.317663 -0.0349296 0)
(0.319264 -0.0325393 0)
(0.320489 -0.0299089 0)
(0.321398 -0.0270783 0)
(0.322019 -0.0242713 0)
(0.322432 -0.0214543 0)
(0.322603 -0.0188298 0)
(0.312826 -0.0394091 0)
(0.315913 -0.0392221 0)
(0.318715 -0.0379131 0)
(0.321053 -0.0358835 0)
(0.322849 -0.0332747 0)
(0.324181 -0.0304706 0)
(0.325123 -0.027464 0)
(0.325735 -0.0245345 0)
(0.326097 -0.0215771 0)
(0.326178 -0.0188571 0)
(0.314917 -0.041119 0)
(0.318606 -0.0408069 0)
(0.321883 -0.0392539 0)
(0.324545 -0.0369631 0)
(0.326524 -0.0340813 0)
(0.327946 -0.0310681 0)
(0.328904 -0.0278523 0)
(0.329495 -0.0247853 0)
(0.329794 -0.021659 0)
(0.329776 -0.0188372 0)
(0.317018 -0.0431637 0)
(0.321386 -0.0426599 0)
(0.325171 -0.0407876 0)
(0.328153 -0.0381656 0)
(0.330299 -0.0349512 0)
(0.331785 -0.0316925 0)
(0.332736 -0.0282351 0)
(0.333288 -0.0250177 0)
(0.333504 -0.021691 0)
(0.333365 -0.0187642 0)
(0.319138 -0.0455922 0)
(0.324276 -0.0448022 0)
(0.328602 -0.0425221 0)
(0.331896 -0.0394845 0)
(0.334184 -0.0358732 0)
(0.335696 -0.0323318 0)
(0.33661 -0.0286016 0)
(0.337088 -0.0252208 0)
(0.33718 -0.0216581 0)
(0.336872 -0.0186239 0)
(0.321295 -0.0484644 0)
(0.327304 -0.0472559 0)
(0.332208 -0.0444657 0)
(0.335794 -0.040908 0)
(0.338191 -0.0368315 0)
(0.339666 -0.0329672 0)
(0.340485 -0.0289335 0)
(0.340811 -0.0253708 0)
(0.34069 -0.0215298 0)
(0.3401 -0.0183818 0)
(0.323521 -0.0518491 0)
(0.330512 -0.0500485 0)
(0.336035 -0.0466294 0)
(0.33988 -0.0424162 0)
(0.342323 -0.0377998 0)
(0.343622 -0.0335613 0)
(0.344214 -0.0291885 0)
(0.344192 -0.0254086 0)
(0.343665 -0.0212393 0)
(0.342558 -0.0179606 0)
(0.325879 -0.0558143 0)
(0.333971 -0.0532304 0)
(0.340166 -0.0490299 0)
(0.344178 -0.0439706 0)
(0.346476 -0.0387192 0)
(0.347272 -0.0340247 0)
(0.347322 -0.0292598 0)
(0.346523 -0.0251985 0)
(0.34522 -0.020649 0)
(0.343161 -0.0172084 0)
(0.328509 -0.0604059 0)
(0.337832 -0.0569081 0)
(0.344688 -0.0516653 0)
(0.348537 -0.0454682 0)
(0.35014 -0.0394305 0)
(0.349704 -0.0341387 0)
(0.348537 -0.0289026 0)
(0.346176 -0.0244692 0)
(0.343514 -0.0195144 0)
(0.339851 -0.0158765 0)
(0.331786 -0.0656621 0)
(0.342302 -0.0612354 0)
(0.349402 -0.0543699 0)
(0.35207 -0.0465855 0)
(0.351658 -0.0395171 0)
(0.348625 -0.033431 0)
(0.345077 -0.0276501 0)
(0.340037 -0.0227824 0)
(0.335323 -0.0174918 0)
(0.329352 -0.0136535 0)
(0.336626 -0.0716901 0)
(0.347174 -0.0662456 0)
(0.352798 -0.0564559 0)
(0.351862 -0.0464796 0)
(0.346996 -0.0381034 0)
(0.339408 -0.0310892 0)
(0.332024 -0.0248218 0)
(0.323281 -0.0196221 0)
(0.316116 -0.0142646 0)
(0.307554 -0.0103185 0)
(0.344477 -0.0788112 0)
(0.34994 -0.0714118 0)
(0.34991 -0.0562865 0)
(0.341108 -0.043602 0)
(0.328649 -0.0338704 0)
(0.314809 -0.0261431 0)
(0.302785 -0.019805 0)
(0.290406 -0.0147199 0)
(0.281408 -0.00985107 0)
(0.27109 -0.00601412 0)
(0.3548 -0.0875176 0)
(0.341709 -0.0745562 0)
(0.329805 -0.0509893 0)
(0.308248 -0.0360143 0)
(0.286608 -0.0256569 0)
(0.267219 -0.0181827 0)
(0.252123 -0.0127447 0)
(0.238431 -0.0086205 0)
(0.229808 -0.00500039 0)
(0.219894 -0.00149785 0)
(0.357068 -0.092525 0)
(0.303282 -0.0691456 0)
(0.27606 -0.0369911 0)
(0.240857 -0.0226969 0)
(0.214594 -0.013927 0)
(0.195241 -0.00865657 0)
(0.181944 -0.00544307 0)
(0.171194 -0.00313344 0)
(0.16586 -0.00122239 0)
(0.15861 0.00201739 0)
(0.320963 -0.069966 0)
(0.206892 -0.0430004 0)
(0.176504 -0.0114759 0)
(0.139678 -0.0060091 0)
(0.121968 -0.00268904 0)
(0.110835 -0.00147008 0)
(0.104073 -0.000806434 0)
(0.0990695 -0.000218144 0)
(0.0979793 0.000370952 0)
(0.0939308 0.00377894 0)
(0.193525 -0.0607185 0)
(0.0398958 -0.0161507 0)
(0.0494308 0.00217702 0)
(0.0345053 0.000499662 0)
(0.0338492 0.000618818 0)
(0.0321562 0.000296494 0)
(0.0313783 0.000200293 0)
(0.0308602 0.000205512 0)
(0.0319923 0.000374976 0)
(0.0305432 0.00231572 0)
(0.311415 -0.0151955 0)
(0.31216 -0.0123144 0)
(0.312659 -0.0101577 0)
(0.312926 -0.00853819 0)
(0.313402 -0.00808062 0)
(0.313567 -0.00862581 0)
(0.313544 -0.00973971 0)
(0.313797 -0.0117764 0)
(0.314579 -0.0148456 0)
(0.314532 -0.0163424 0)
(0.31613 -0.017442 0)
(0.317491 -0.0171938 0)
(0.320056 -0.0158298 0)
(0.317903 -0.00949948 0)
(0.323426 -0.00903952 0)
(0.317124 -0.00643331 0)
(0.324027 -0.0101285 0)
(0.30538 -0.0108636 0)
(0.325231 -0.0300455 0)
(0.297006 -0.0509447 0)
(0.313219 -0.0154654 0)
(0.313692 -0.0125181 0)
(0.313921 -0.0102749 0)
(0.313957 -0.00864569 0)
(0.314209 -0.00817579 0)
(0.314151 -0.00863518 0)
(0.313983 -0.00976414 0)
(0.314189 -0.0119606 0)
(0.314979 -0.0150004 0)
(0.315126 -0.0166381 0)
(0.317103 -0.018032 0)
(0.318803 -0.0179548 0)
(0.321415 -0.0159487 0)
(0.319387 -0.010055 0)
(0.324431 -0.0089621 0)
(0.317676 -0.00643188 0)
(0.323074 -0.00778419 0)
(0.305038 -0.0108781 0)
(0.323118 -0.0285069 0)
(0.292705 -0.0447656 0)
(0.316008 -0.0156085 0)
(0.316172 -0.0125974 0)
(0.316066 -0.0102864 0)
(0.315801 -0.00865745 0)
(0.31573 -0.00816569 0)
(0.315321 -0.00855833 0)
(0.314908 -0.00975607 0)
(0.314985 -0.0121266 0)
(0.315692 -0.0151903 0)
(0.316064 -0.0170677 0)
(0.318543 -0.0187533 0)
(0.320672 -0.0187003 0)
(0.323368 -0.0161119 0)
(0.321693 -0.0104762 0)
(0.326067 -0.00863434 0)
(0.318502 -0.0058252 0)
(0.321874 -0.00582403 0)
(0.304587 -0.0105279 0)
(0.319717 -0.0262212 0)
(0.287202 -0.0398145 0)
(0.319226 -0.0156437 0)
(0.319104 -0.0125554 0)
(0.318679 -0.0101823 0)
(0.31812 -0.00854736 0)
(0.31769 -0.00802121 0)
(0.316876 -0.00836915 0)
(0.316166 -0.0096692 0)
(0.316025 -0.0122283 0)
(0.316553 -0.0153911 0)
(0.317148 -0.0175984 0)
(0.320108 -0.0195897 0)
(0.322624 -0.0194911 0)
(0.325446 -0.0163569 0)
(0.324264 -0.0107966 0)
(0.327798 -0.00804437 0)
(0.319271 -0.00475692 0)
(0.32058 -0.00366082 0)
(0.303766 -0.00967411 0)
(0.315436 -0.0233705 0)
(0.280896 -0.0343506 0)
(0.322605 -0.0156044 0)
(0.32221 -0.0124223 0)
(0.321489 -0.0099847 0)
(0.320651 -0.00832966 0)
(0.319843 -0.00774813 0)
(0.318601 -0.00805906 0)
(0.317548 -0.00948542 0)
(0.317089 -0.0122521 0)
(0.31735 -0.0155917 0)
(0.318133 -0.0182333 0)
(0.32146 -0.0205586 0)
(0.324267 -0.0203656 0)
(0.327248 -0.0167093 0)
(0.326578 -0.0110433 0)
(0.329106 -0.0071709 0)
(0.31961 -0.00318981 0)
(0.318954 -0.00121934 0)
(0.302312 -0.00829554 0)
(0.310187 -0.0196149 0)
(0.27373 -0.0284798 0)
(0.326039 -0.0154906 0)
(0.325361 -0.0122031 0)
(0.324349 -0.00969963 0)
(0.323225 -0.00800476 0)
(0.322011 -0.0073406 0)
(0.320312 -0.00761639 0)
(0.318841 -0.00918145 0)
(0.317935 -0.0121681 0)
(0.317831 -0.0157714 0)
(0.31871 -0.0189482 0)
(0.322203 -0.0216229 0)
(0.325165 -0.0213074 0)
(0.328307 -0.0171699 0)
(0.328078 -0.0111879 0)
(0.329465 -0.00597689 0)
(0.319081 -0.0011419 0)
(0.316627 0.00150024 0)
(0.299892 -0.00626562 0)
(0.303693 -0.0149375 0)
(0.265601 -0.0223197 0)
(0.329477 -0.0152925 0)
(0.32848 -0.0118951 0)
(0.327159 -0.00932284 0)
(0.325714 -0.00756156 0)
(0.324039 -0.00678429 0)
(0.321823 -0.00701897 0)
(0.319808 -0.00871718 0)
(0.318287 -0.0119328 0)
(0.317676 -0.0158913 0)
(0.318464 -0.0196826 0)
(0.321825 -0.0227137 0)
(0.324757 -0.0222867 0)
(0.32802 -0.0177183 0)
(0.328107 -0.0111933 0)
(0.328295 -0.00446113 0)
(0.317208 0.00132871 0)
(0.313177 0.00451988 0)
(0.296103 -0.00351697 0)
(0.295679 -0.0093764 0)
(0.256431 -0.0159439 0)
(0.332868 -0.0149935 0)
(0.33148 -0.0114891 0)
(0.329792 -0.00884008 0)
(0.327949 -0.00697898 0)
(0.325721 -0.00605431 0)
(0.322876 -0.00622809 0)
(0.32013 -0.00803422 0)
(0.31777 -0.011486 0)
(0.316443 -0.0158832 0)
(0.316819 -0.0203396 0)
(0.319648 -0.0237396 0)
(0.322322 -0.0232596 0)
(0.325626 -0.0183187 0)
(0.325903 -0.0110363 0)
(0.324971 -0.00265475 0)
(0.313497 0.00413614 0)
(0.308157 0.00783035 0)
(0.290556 -1.58505e-05 0)
(0.285924 -0.00299342 0)
(0.246195 -0.0094593 0)
(0.336095 -0.0145631 0)
(0.334178 -0.010964 0)
(0.332007 -0.0082212 0)
(0.329628 -0.00622148 0)
(0.326704 -0.0051094 0)
(0.323059 -0.00518468 0)
(0.319325 -0.00705534 0)
(0.315854 -0.0107446 0)
(0.313502 -0.0156407 0)
(0.313001 -0.0207819 0)
(0.314816 -0.0245865 0)
(0.31699 -0.0241698 0)
(0.320248 -0.0189335 0)
(0.320665 -0.0107203 0)
(0.318882 -0.000643319 0)
(0.30748 0.00715613 0)
(0.301148 0.0114058 0)
(0.28292 0.00424249 0)
(0.274298 0.00408906 0)
(0.234933 -0.00301111 0)
(0.338878 -0.013944 0)
(0.336181 -0.0102759 0)
(0.333322 -0.00741166 0)
(0.330198 -0.00523432 0)
(0.326383 -0.00388916 0)
(0.321707 -0.00381005 0)
(0.316693 -0.00568693 0)
(0.311799 -0.00960354 0)
(0.308012 -0.0150187 0)
(0.30605 -0.0208378 0)
(0.306365 -0.0251302 0)
(0.307853 -0.0249651 0)
(0.311045 -0.0195458 0)
(0.311696 -0.0103023 0)
(0.309546 0.00142326 0)
(0.298802 0.0102448 0)
(0.291822 0.0152027 0)
(0.272975 0.00920836 0)
(0.260791 0.0116855 0)
(0.222767 0.00323653 0)
(0.34059 -0.0130339 0)
(0.336703 -0.00934594 0)
(0.332853 -0.00632563 0)
(0.328716 -0.0039437 0)
(0.323792 -0.00231888 0)
(0.317846 -0.00201832 0)
(0.31128 -0.00383076 0)
(0.304653 -0.00793983 0)
(0.298952 -0.0138452 0)
(0.294926 -0.020331 0)
(0.293393 -0.0252709 0)
(0.294185 -0.0256271 0)
(0.297438 -0.020185 0)
(0.29861 -0.00990799 0)
(0.296753 0.00335514 0)
(0.287296 0.0132443 0)
(0.279992 0.019165 0)
(0.260646 0.0147782 0)
(0.245539 0.019559 0)
(0.209894 0.00910398 0)
(0.339991 -0.0116675 0)
(0.334337 -0.00805469 0)
(0.329154 -0.00484984 0)
(0.323748 -0.00226841 0)
(0.317559 -0.000326262 0)
(0.310205 0.000265455 0)
(0.301938 -0.00142199 0)
(0.293333 -0.00563223 0)
(0.285264 -0.0119519 0)
(0.278749 -0.0191346 0)
(0.275354 -0.0249871 0)
(0.275732 -0.0262078 0)
(0.279376 -0.0209459 0)
(0.281519 -0.00971876 0)
(0.280674 0.00493861 0)
(0.273043 0.0160058 0)
(0.265656 0.0232259 0)
(0.246041 0.0208059 0)
(0.228829 0.0274359 0)
(0.196585 0.0144069 0)
(0.334959 -0.00962182 0)
(0.326899 -0.00626253 0)
(0.320169 -0.00287393 0)
(0.313405 -0.000159815 0)
(0.306025 0.00211394 0)
(0.297368 0.00307053 0)
(0.287495 0.00161639 0)
(0.276826 -0.00259301 0)
(0.266141 -0.00923437 0)
(0.25715 -0.0172437 0)
(0.252397 -0.024392 0)
(0.252974 -0.0268525 0)
(0.257493 -0.0219815 0)
(0.2611 -0.00993618 0)
(0.26186 0.00598511 0)
(0.256358 0.018426 0)
(0.249014 0.0273193 0)
(0.229458 0.0271003 0)
(0.211095 0.0350233 0)
(0.183155 0.0189805 0)
(0.322452 -0.00667941 0)
(0.311559 -0.00387451 0)
(0.303502 -0.000365728 0)
(0.295676 0.00231962 0)
(0.287602 0.00491852 0)
(0.278155 0.00630193 0)
(0.26707 0.00525115 0)
(0.254503 0.00120372 0)
(0.241416 -0.00573159 0)
(0.230635 -0.0148408 0)
(0.225572 -0.0237483 0)
(0.227164 -0.0277803 0)
(0.233032 -0.0234598 0)
(0.238453 -0.010721 0)
(0.241115 0.00639096 0)
(0.237727 0.020472 0)
(0.230446 0.0313831 0)
(0.21138 0.033436 0)
(0.192891 0.0420301 0)
(0.169938 0.022696 0)
(0.29909 -0.00276891 0)
(0.285548 -0.000951451 0)
(0.277154 0.00251709 0)
(0.269128 0.0049384 0)
(0.261396 0.00785439 0)
(0.252076 0.00973495 0)
(0.240479 0.00928931 0)
(0.226547 0.00563587 0)
(0.211933 -0.00171283 0)
(0.200759 -0.0123086 0)
(0.196733 -0.0234079 0)
(0.20005 -0.0292067 0)
(0.207521 -0.0254969 0)
(0.214809 -0.0121369 0)
(0.219295 0.00616727 0)
(0.217712 0.0221792 0)
(0.210484 0.0353501 0)
(0.192442 0.0395649 0)
(0.174843 0.0481913 0)
(0.157252 0.0254826 0)
(0.262638 0.00178306 0)
(0.247506 0.00215848 0)
(0.240667 0.00537411 0)
(0.23382 0.007281 0)
(0.227866 0.0105491 0)
(0.219788 0.0130689 0)
(0.20858 0.0134859 0)
(0.194264 0.0103614 0)
(0.179688 0.00238862 0)
(0.169906 -0.010141 0)
(0.168064 -0.0236847 0)
(0.173396 -0.0312425 0)
(0.182366 -0.0280985 0)
(0.191239 -0.0141288 0)
(0.19715 0.00542767 0)
(0.196914 0.0236193 0)
(0.189797 0.03913 0)
(0.173398 0.045232 0)
(0.157595 0.0533003 0)
(0.145363 0.0273364 0)
(0.213877 0.0062704 0)
(0.198966 0.0048524 0)
(0.196101 0.00760117 0)
(0.191905 0.00882534 0)
(0.189122 0.0125849 0)
(0.183245 0.0159749 0)
(0.173403 0.0175077 0)
(0.160133 0.0148708 0)
(0.147508 0.00597846 0)
(0.140654 -0.00877889 0)
(0.141508 -0.0247239 0)
(0.148593 -0.0338377 0)
(0.158622 -0.0311476 0)
(0.168542 -0.0165445 0)
(0.175316 0.00433982 0)
(0.175981 0.0248552 0)
(0.169171 0.0425994 0)
(0.155054 0.0501984 0)
(0.141742 0.0572394 0)
(0.134475 0.0283211 0)
(0.157371 0.0097988 0)
(0.144714 0.00643381 0)
(0.147963 0.00854776 0)
(0.14735 0.00914948 0)
(0.148563 0.0136486 0)
(0.145451 0.0181667 0)
(0.13796 0.0209486 0)
(0.12733 0.0186031 0)
(0.118339 0.00850424 0)
(0.115166 -0.00843255 0)
(0.118454 -0.0264502 0)
(0.12659 -0.0368068 0)
(0.137026 -0.0344433 0)
(0.147334 -0.0191776 0)
(0.154404 0.00307525 0)
(0.155654 0.0259112 0)
(0.149474 0.0456102 0)
(0.138202 0.0542718 0)
(0.127772 0.0599984 0)
(0.124735 0.0285602 0)
(0.100244 0.0116017 0)
(0.0916817 0.00630415 0)
(0.101928 0.00778486 0)
(0.104861 0.00811312 0)
(0.110092 0.0136252 0)
(0.109924 0.019432 0)
(0.105672 0.0233949 0)
(0.0990038 0.0210868 0)
(0.0945394 0.00973026 0)
(0.0948841 -0.00902187 0)
(0.0997973 -0.0286154 0)
(0.108074 -0.0398968 0)
(0.118178 -0.0377646 0)
(0.128198 -0.0218271 0)
(0.135099 0.00175706 0)
(0.136767 0.0267591 0)
(0.131591 0.0480131 0)
(0.123531 0.0573354 0)
(0.116029 0.061675 0)
(0.116263 0.0282154 0)
(0.0509968 0.0110476 0)
(0.0469437 0.00427989 0)
(0.0631571 0.00531162 0)
(0.068746 0.00588511 0)
(0.0773623 0.0125313 0)
(0.0800701 0.0196174 0)
(0.0796365 0.0245498 0)
(0.0775668 0.0221061 0)
(0.0775939 0.00969987 0)
(0.0806652 -0.010254 0)
(0.0862037 -0.0308657 0)
(0.0936696 -0.042817 0)
(0.10268 -0.0409035 0)
(0.111768 -0.0243553 0)
(0.118161 0.000433982 0)
(0.120184 0.0273225 0)
(0.116326 0.0496807 0)
(0.111564 0.0593544 0)
(0.106713 0.0624461 0)
(0.109187 0.0274732 0)
(0.0287481 0.00623333 0)
(0.0250268 0.00220935 0)
(0.0436247 0.00273039 0)
(0.0502197 0.00386735 0)
(0.0605118 0.0110361 0)
(0.0650572 0.0189555 0)
(0.067336 0.0243811 0)
(0.0683627 0.0218797 0)
(0.071047 0.00905248 0)
(0.0753476 -0.0112777 0)
(0.0806591 -0.0322228 0)
(0.0869082 -0.0445045 0)
(0.0946106 -0.0427943 0)
(0.10262 -0.0259782 0)
(0.108487 -0.000506177 0)
(0.11075 0.027433 0)
(0.107937 0.0503238 0)
(0.105313 0.0601242 0)
(0.101957 0.062532 0)
(0.105329 0.026929 0)
(0.0187861 0.0033272 0)
(0.0150912 0.00106631 0)
(0.0344993 0.00114337 0)
(0.0414596 0.00268013 0)
(0.0524973 0.0100494 0)
(0.0580073 0.018423 0)
(0.0617775 0.0240673 0)
(0.0644932 0.0215369 0)
(0.0685638 0.00853753 0)
(0.0734302 -0.0119048 0)
(0.0784899 -0.0329398 0)
(0.0839073 -0.0453586 0)
(0.0907308 -0.0437645 0)
(0.0980162 -0.0268354 0)
(0.103531 -0.0010189 0)
(0.105908 0.0274543 0)
(0.103697 0.0506008 0)
(0.102232 0.0604422 0)
(0.0996479 0.0624985 0)
(0.103392 0.0266396 0)
(0.011567 0.0016602 0)
(0.00773632 -6.49278e-05 0)
(0.0275293 -0.000507705 0)
(0.0346412 0.00144744 0)
(0.0462075 0.00895842 0)
(0.0525761 0.0177404 0)
(0.0577459 0.0235513 0)
(0.0620378 0.0210004 0)
(0.067349 0.00790185 0)
(0.0726488 -0.0125482 0)
(0.0773403 -0.0335802 0)
(0.0817924 -0.0460932 0)
(0.0876071 -0.0446221 0)
(0.0940663 -0.0276178 0)
(0.0991824 -0.00151349 0)
(0.101648 0.0274318 0)
(0.10003 0.0507772 0)
(0.0996465 0.060643 0)
(0.0977511 0.0623974 0)
(0.101736 0.0263511 0)
(0.00696968 0.000861776 0)
(0.00294446 -0.00118615 0)
(0.0228099 -0.00217978 0)
(0.0298571 0.000181602 0)
(0.0417303 0.00778881 0)
(0.0488284 0.0169183 0)
(0.0552752 0.0228506 0)
(0.0610038 0.0202914 0)
(0.0674022 0.00716809 0)
(0.0730098 -0.0131866 0)
(0.0772265 -0.0341263 0)
(0.0805864 -0.0466928 0)
(0.0852649 -0.0453553 0)
(0.090798 -0.0283176 0)
(0.0954696 -0.00198607 0)
(0.0979935 0.0273651 0)
(0.0969501 0.0508494 0)
(0.0975571 0.0607334 0)
(0.0962681 0.0622426 0)
(0.100376 0.0260572 0)
(0.00488516 0.000488263 0)
(0.00071548 -0.0022792 0)
(0.020411 -0.00383966 0)
(0.027178 -0.0010866 0)
(0.0391301 0.00656372 0)
(0.0468057 0.0159743 0)
(0.0543791 0.021984 0)
(0.0613834 0.0194304 0)
(0.0687131 0.00635455 0)
(0.0745115 -0.0138052 0)
(0.0781589 -0.0345633 0)
(0.0803105 -0.0471406 0)
(0.0837282 -0.0459491 0)
(0.0882353 -0.0289255 0)
(0.092417 -0.00243036 0)
(0.094963 0.0272574 0)
(0.094464 0.0508246 0)
(0.0959625 0.0607244 0)
(0.0952001 0.0620466 0)
(0.0993284 0.0257658 0)
(0.00526462 0.000215458 0)
(0.00105967 -0.00334329 0)
(0.0203781 -0.0054574 0)
(0.0266532 -0.00232681 0)
(0.0384483 0.00530801 0)
(0.0465285 0.0149299 0)
(0.0550531 0.0209725 0)
(0.0631564 0.0184379 0)
(0.0712612 0.00547805 0)
(0.0771421 -0.0143918 0)
(0.0801405 -0.0348787 0)
(0.0809807 -0.0474213 0)
(0.0830172 -0.0463888 0)
(0.086398 -0.0294318 0)
(0.0900431 -0.00284119 0)
(0.0925689 0.0271139 0)
(0.092575 0.050713 0)
(0.0948587 0.0606281 0)
(0.0945483 0.0618203 0)
(0.0986102 0.0254855 0)
(0.00814022 -0.000247271 0)
(0.00399484 -0.00438526 0)
(0.0227314 -0.00700423 0)
(0.02831 -0.00351116 0)
(0.0397053 0.00404871 0)
(0.047999 0.0138092 0)
(0.057278 0.01984 0)
(0.0662911 0.017336 0)
(0.0750155 0.00455503 0)
(0.0808795 -0.0149352 0)
(0.0831646 -0.0350614 0)
(0.0826067 -0.0475211 0)
(0.0831486 -0.0466603 0)
(0.085301 -0.0298273 0)
(0.088361 -0.00321355 0)
(0.0908179 0.0269403 0)
(0.0912822 0.0505248 0)
(0.09424 0.0604562 0)
(0.094314 0.0615734 0)
(0.0982374 0.0252219 0)
(0.0136207 -0.00123018 0)
(0.00954232 -0.00539709 0)
(0.0274626 -0.00845223 0)
(0.032152 -0.00460934 0)
(0.0429009 0.00281452 0)
(0.0512033 0.0126397 0)
(0.0610228 0.0186134 0)
(0.0707468 0.0161481 0)
(0.0799352 0.00360199 0)
(0.0856893 -0.0154256 0)
(0.087213 -0.0351028 0)
(0.0851896 -0.0474279 0)
(0.0841336 -0.0467504 0)
(0.0849541 -0.0301035 0)
(0.0873786 -0.00354124 0)
(0.0897124 0.0267426 0)
(0.0905813 0.0502701 0)
(0.0940999 0.0602204 0)
(0.0944982 0.0613143 0)
(0.0982257 0.0249786 0)
(0.0218619 -0.0032116 0)
(0.0177247 -0.0063571 0)
(0.0345296 -0.00977017 0)
(0.0381564 -0.00559233 0)
(0.0480139 0.00163553 0)
(0.056114 0.0114509 0)
(0.0662465 0.0173219 0)
(0.0764739 0.0148987 0)
(0.085969 0.00263586 0)
(0.0915251 -0.015855 0)
(0.092255 -0.0349969 0)
(0.0887206 -0.0471318 0)
(0.0859777 -0.0466452 0)
(0.0853623 -0.0302498 0)
(0.0870987 -0.00381751 0)
(0.0892509 0.0265275 0)
(0.0904672 0.0499594 0)
(0.0944323 0.0599321 0)
(0.0951016 0.0610502 0)
(0.0985894 0.0247581 0)
(0.0330042 -0.00658881 0)
(0.0285694 -0.00728381 0)
(0.0438504 -0.0109123 0)
(0.0462696 -0.00644874 0)
(0.0550005 0.000543338 0)
(0.0626907 0.0102618 0)
(0.0729009 0.0159864 0)
(0.0834166 0.0136045 0)
(0.0930562 0.00167087 0)
(0.0983279 -0.016216 0)
(0.0982468 -0.0347424 0)
(0.0931802 -0.0466241 0)
(0.0886802 -0.0463289 0)
(0.0865255 -0.0302438 0)
(0.0875186 -0.00402898 0)
(0.0894288 0.0263095 0)
(0.0909347 0.0496092 0)
(0.0952332 0.0595995 0)
(0.096124 0.0607862 0)
(0.0993405 0.0245699 0)
(0.0634971 -0.0132452 0)
(0.057944 -0.00936762 0)
(0.0687605 -0.0129053 0)
(0.0683064 -0.00805581 0)
(0.0741217 -0.00157798 0)
(0.0804983 0.00767265 0)
(0.0903684 0.0129893 0)
(0.101029 0.0106906 0)
(0.110613 -0.000424421 0)
(0.115073 -0.0168405 0)
(0.113221 -0.0338694 0)
(0.104833 -0.0450485 0)