/*--------------------------------*- C++ -*----------------------------------*\
| =========                 |                                                 |
| \\      /  F ield         | OpenFOAM: The Open Source CFD Toolbox           |
|  \\    /   O peration     | Version:  v1806                                 |
|   \\  /    A nd           | Web:      www.OpenFOAM.com                      |
|    \\/     M anipulation  |                                                 |
\*---------------------------------------------------------------------------*/
FoamFile
{
    version     2.0;
    format      ascii;
    class       volVectorField;
    location    "310";
    object      U;
}
// * * * * * * * * * * * * * * * * * * * * * * * * * * * * * * * * * * * * * //

dimensions      [0 1 -1 0 0 0 0];


internalField   nonuniform List<vector> 
4400
(
(0.229572 0.182555 0)
(0.266207 0.170496 0)
(0.272739 0.148888 0)
(0.26644 0.126072 0)
(0.259376 0.107174 0)
(0.257201 0.0932902 0)
(0.259817 0.0836127 0)
(0.26472 0.0767931 0)
(0.269822 0.0717033 0)
(0.274223 0.06768 0)
(0.27783 0.0644188 0)
(0.280828 0.0617939 0)
(0.283399 0.0597211 0)
(0.285646 0.0581154 0)
(0.287625 0.056897 0)
(0.289372 0.0559996 0)
(0.290917 0.0553714 0)
(0.29228 0.0549731 0)
(0.293451 0.0547812 0)
(0.294303 0.0547894 0)
(0.236499 0.0301484 0)
(0.229255 0.0266026 0)
(0.227084 0.0240465 0)
(0.235727 0.0245996 0)
(0.249477 0.0277309 0)
(0.26207 0.0319106 0)
(0.270887 0.0358611 0)
(0.276181 0.0390255 0)
(0.279248 0.0413853 0)
(0.281269 0.0431323 0)
(0.282928 0.0444651 0)
(0.284493 0.0455169 0)
(0.286019 0.0463629 0)
(0.287497 0.0470474 0)
(0.288922 0.0476032 0)
(0.290298 0.0480599 0)
(0.291632 0.0484438 0)
(0.292915 0.0487753 0)
(0.294095 0.0490775 0)
(0.294978 0.049376 0)
(0.228303 0.0376024 0)
(0.241432 0.0446836 0)
(0.255656 0.0513015 0)
(0.265392 0.0559328 0)
(0.269672 0.0577327 0)
(0.270418 0.0573451 0)
(0.270107 0.0558758 0)
(0.270357 0.0541292 0)
(0.271649 0.0524984 0)
(0.273755 0.0510808 0)
(0.276257 0.0498487 0)
(0.278834 0.0487623 0)
(0.281329 0.0478033 0)
(0.283699 0.0469718 0)
(0.285948 0.0462747 0)
(0.288088 0.0457182 0)
(0.290127 0.0453049 0)
(0.292053 0.0450369 0)
(0.293806 0.0449276 0)
(0.295156 0.0449817 0)
(0.266038 0.0105392 0)
(0.263747 0.0127393 0)
(0.259866 0.0138672 0)
(0.257987 0.0145111 0)
(0.259518 0.0154114 0)
(0.263666 0.016895 0)
(0.268781 0.0188624 0)
(0.273543 0.0210502 0)
(0.277381 0.0232309 0)
(0.280307 0.0252638 0)
(0.28259 0.0270957 0)
(0.284509 0.0287255 0)
(0.286254 0.030171 0)
(0.28792 0.0314505 0)
(0.289541 0.0325766 0)
(0.291126 0.0335568 0)
(0.292671 0.0343944 0)
(0.294155 0.0350908 0)
(0.295511 0.0356556 0)
(0.296528 0.0360924 0)
(0.256949 0.0158493 0)
(0.260895 0.0191249 0)
(0.266682 0.0225505 0)
(0.272261 0.0259499 0)
(0.276276 0.0289305 0)
(0.278476 0.0311479 0)
(0.279375 0.032528 0)
(0.279742 0.0332687 0)
(0.280192 0.0336201 0)
(0.281019 0.0337651 0)
(0.282244 0.033806 0)
(0.283755 0.0337892 0)
(0.28542 0.0337347 0)
(0.287143 0.0336544 0)
(0.288874 0.0335605 0)
(0.29059 0.0334669 0)
(0.292279 0.033388 0)
(0.293913 0.0333406 0)
(0.295416 0.03335 0)
(0.296552 0.0334211 0)
(0.280377 0.00449841 0)
(0.279479 0.00610389 0)
(0.277525 0.00742242 0)
(0.275727 0.00840602 0)
(0.275072 0.00921983 0)
(0.275855 0.0101014 0)
(0.277743 0.0111881 0)
(0.280148 0.012467 0)
(0.282568 0.0138534 0)
(0.284728 0.0152609 0)
(0.286565 0.0166263 0)
(0.28814 0.0179114 0)
(0.28955 0.0190973 0)
(0.290875 0.0201763 0)
(0.292165 0.0211442 0)
(0.293441 0.021997 0)
(0.294703 0.0227282 0)
(0.295929 0.0233316 0)
(0.29705 0.0238097 0)
(0.297883 0.0241572 0)
(0.273803 0.00855252 0)
(0.275494 0.0103854 0)
(0.278188 0.0122604 0)
(0.281152 0.0141941 0)
(0.283686 0.0160976 0)
(0.285435 0.0178172 0)
(0.286429 0.0192325 0)
(0.286938 0.0203102 0)
(0.28728 0.021096 0)
(0.287699 0.0216668 0)
(0.288314 0.0220887 0)
(0.289138 0.022407 0)
(0.290128 0.0226494 0)
(0.291226 0.0228322 0)
(0.292385 0.0229668 0)
(0.29357 0.023063 0)
(0.294759 0.0231312 0)
(0.295919 0.023185 0)
(0.296982 0.0232442 0)
(0.297768 0.0233116 0)
(0.288681 0.00208745 0)
(0.288221 0.00312965 0)
(0.287193 0.00407912 0)
(0.286069 0.00487277 0)
(0.285337 0.00554187 0)
(0.285277 0.00617235 0)
(0.285893 0.0068443 0)
(0.286988 0.00760093 0)
(0.288305 0.00843668 0)
(0.289638 0.009316 0)
(0.290874 0.0102007 0)
(0.291983 0.0110599 0)
(0.292985 0.0118714 0)
(0.29392 0.0126206 0)
(0.294821 0.0132975 0)
(0.295711 0.0138943 0)
(0.296594 0.0144032 0)
(0.297455 0.0148183 0)
(0.298242 0.0151417 0)
(0.29882 0.0153687 0)
(0.284024 0.00513537 0)
(0.284897 0.0062339 0)
(0.286319 0.00734796 0)
(0.287978 0.0084945 0)
(0.289525 0.00965411 0)
(0.290727 0.0107667 0)
(0.291518 0.0117689 0)
(0.29198 0.0126189 0)
(0.292265 0.0133078 0)
(0.292519 0.0138535 0)
(0.292844 0.0142838 0)
(0.293283 0.0146245 0)
(0.293838 0.0148951 0)
(0.294485 0.0151095 0)
(0.295195 0.0152769 0)
(0.295941 0.0154049 0)
(0.296702 0.0155002 0)
(0.297449 0.0155719 0)
(0.298132 0.0156325 0)
(0.29863 0.0156832 0)
(0.29376 0.000957077 0)
(0.293487 0.00162617 0)
(0.292894 0.00225679 0)
(0.292199 0.00280985 0)
(0.29165 0.00328875 0)
(0.291424 0.00372682 0)
(0.291576 0.00416194 0)
(0.292051 0.00462262 0)
(0.292732 0.00512038 0)
(0.293499 0.00564844 0)
(0.294263 0.0061894 0)
(0.294978 0.00672452 0)
(0.295637 0.00723758 0)
(0.29625 0.00771589 0)
(0.296836 0.00814982 0)
(0.297409 0.00853174 0)
(0.297975 0.0088552 0)
(0.298527 0.00911608 0)
(0.299032 0.00931662 0)
(0.2994 0.0094543 0)
(0.290398 0.00325403 0)
(0.29089 0.00392803 0)
(0.2917 0.00461055 0)
(0.292672 0.00530903 0)
(0.293624 0.00602051 0)
(0.294414 0.00671961 0)
(0.294979 0.0073744 0)
(0.295336 0.00795876 0)
(0.295553 0.00845853 0)
(0.295712 0.00887304 0)
(0.295883 0.00921115 0)
(0.296107 0.00948496 0)
(0.296398 0.00970587 0)
(0.296751 0.00988308 0)
(0.297153 0.0100236 0)
(0.297587 0.0101326 0)
(0.298037 0.010215 0)
(0.298484 0.0102763 0)
(0.298893 0.0103238 0)
(0.299191 0.0103583 0)
(0.296889 0.000387116 0)
(0.296712 0.000809898 0)
(0.296344 0.00121556 0)
(0.295898 0.00157872 0)
(0.295507 0.00189771 0)
(0.295277 0.00218667 0)
(0.295259 0.00246402 0)
(0.295442 0.00274586 0)
(0.295775 0.00304174 0)
(0.296192 0.00335299 0)
(0.296636 0.00367371 0)
(0.297068 0.00399432 0)
(0.297473 0.00430485 0)
(0.297851 0.00459649 0)
(0.298207 0.00486198 0)
(0.298552 0.00509546 0)
(0.29889 0.0052922 0)
(0.299219 0.00544958 0)
(0.299521 0.0055694 0)
(0.299742 0.00565036 0)
(0.294409 0.00211905 0)
(0.294698 0.00253273 0)
(0.295178 0.00295177 0)
(0.295765 0.00337883 0)
(0.296356 0.00381509 0)
(0.296866 0.00424891 0)
(0.297247 0.00466364 0)
(0.297498 0.00504395 0)
(0.297647 0.00537938 0)
(0.29774 0.00566572 0)
(0.297821 0.00590446 0)
(0.297921 0.00610057 0)
(0.298055 0.00626007 0)
(0.298227 0.00638859 0)
(0.298432 0.00649079 0)
(0.29866 0.00657035 0)
(0.298903 0.00663039 0)
(0.299147 0.00667432 0)
(0.299374 0.00670616 0)
(0.299542 0.0067267 0)
(0.298779 8.62783e-05 0)
(0.298658 0.000345856 0)
(0.298417 0.000598085 0)
(0.298118 0.000824861 0)
(0.297838 0.00102492 0)
(0.297639 0.00120475 0)
(0.29756 0.00137362 0)
(0.297603 0.0015406 0)
(0.297747 0.00171211 0)
(0.297955 0.00189059 0)
(0.298194 0.00207457 0)
(0.298436 0.00225977 0)
(0.298667 0.00244065 0)
(0.298882 0.00261173 0)
(0.299083 0.00276817 0)
(0.299274 0.00290592 0)
(0.299459 0.00302178 0)
(0.299638 0.00311398 0)
(0.299804 0.0031836 0)
(0.299927 0.00323002 0)
(0.296912 0.00139475 0)
(0.297086 0.00164298 0)
(0.297377 0.00189584 0)
(0.297736 0.0021524 0)
(0.298105 0.00241551 0)
(0.29843 0.0026796 0)
(0.298678 0.00293553 0)
(0.298842 0.00317431 0)
(0.298935 0.00338904 0)
(0.298981 0.00357589 0)
(0.299008 0.00373417 0)
(0.299036 0.00386555 0)
(0.29908 0.00397303 0)
(0.299144 0.00405983 0)
(0.299229 0.00412889 0)
(0.29933 0.00418263 0)
(0.299441 0.00422305 0)
(0.299557 0.00425209 0)
(0.299668 0.00427183 0)
(0.299752 0.00428308 0)
(0.299864 -7.78673e-05 0)
(0.299777 7.13347e-05 0)
(0.299613 0.000220817 0)
(0.299407 0.000351944 0)
(0.299203 0.000466917 0)
(0.299041 0.000568972 0)
(0.298945 0.000662794 0)
(0.298923 0.000753575 0)
(0.298965 0.000845475 0)
(0.299054 0.000940663 0)
(0.299168 0.00103914 0)
(0.299289 0.00113917 0)
(0.299408 0.00123792 0)
(0.299517 0.00133225 0)
(0.299617 0.00141917 0)
(0.299709 0.0014961 0)
(0.299797 0.00156094 0)
(0.299881 0.00161249 0)
(0.29996 0.00165111 0)
(0.300019 0.00167638 0)
(0.298424 0.000907073 0)
(0.298527 0.00104523 0)
(0.298706 0.00118512 0)
(0.298929 0.00132909 0)
(0.29916 0.00147767 0)
(0.299366 0.00162826 0)
(0.299524 0.00177602 0)
(0.299626 0.00191565 0)
(0.299679 0.00204276 0)
(0.299694 0.00215453 0)
(0.29969 0.00224987 0)
(0.29968 0.00232921 0)
(0.299675 0.00239395 0)
(0.29968 0.00244589 0)
(0.299697 0.00248683 0)
(0.299724 0.00251832 0)
(0.299759 0.00254162 0)
(0.299798 0.00255779 0)
(0.299838 0.00256762 0)
(0.299871 0.00257196 0)
(0.3004 -0.000174796 0)
(0.300339 -0.000104437 0)
(0.300226 -3.60489e-05 0)
(0.300082 2.4075e-05 0)
(0.299934 7.45417e-05 0)
(0.299806 0.000117359 0)
(0.299715 0.000155109 0)
(0.299667 0.000190893 0)
(0.299659 0.000227416 0)
(0.299682 0.000266361 0)
(0.299724 0.000308199 0)
(0.299775 0.00035232 0)
(0.299825 0.000397371 0)
(0.299871 0.000441634 0)
(0.299911 0.000483351 0)
(0.299946 0.000520936 0)
(0.299977 0.00055307 0)
(0.300005 0.000578848 0)
(0.300031 0.000598178 0)
(0.300052 0.000610734 0)
(0.299256 0.000551791 0)
(0.299324 0.000609444 0)
(0.299439 0.000669107 0)
(0.299582 0.000732392 0)
(0.299729 0.000800383 0)
(0.29986 0.000871371 0)
(0.299959 0.000942535 0)
(0.300021 0.00101072 0)
(0.300047 0.00107314 0)
(0.300044 0.00112787 0)
(0.300025 0.00117398 0)
(0.299998 0.0012115 0)
(0.299971 0.00124111 0)
(0.299949 0.00126384 0)
(0.299934 0.00128083 0)
(0.299925 0.00129312 0)
(0.299922 0.00130156 0)
(0.299922 0.00130677 0)
(0.299925 0.00130896 0)
(0.299929 0.00130878 0)
(0.300513 -0.000284838 0)
(0.300469 -0.000267669 0)
(0.300392 -0.000254131 0)
(0.300293 -0.000245956 0)
(0.300188 -0.000243907 0)
(0.300093 -0.000246901 0)
(0.300018 -0.000253142 0)
(0.299969 -0.00026057 0)
(0.299944 -0.000267284 0)
(0.29994 -0.000271883 0)
(0.29995 -0.000273632 0)
(0.299967 -0.000272439 0)
(0.299986 -0.0002687 0)
(0.300004 -0.000263096 0)
(0.300018 -0.000256404 0)
(0.300029 -0.000249358 0)
(0.300037 -0.000242589 0)
(0.300043 -0.000236563 0)
(0.300047 -0.000231398 0)
(0.30005 -0.000227348 0)
(0.155715 -0.0270583 0)
(0.151978 -0.0179916 0)
(0.149334 -0.00898498 0)
(0.1475 -8.11836e-05 0)
(0.146292 0.00879586 0)
(0.145585 0.0176824 0)
(0.145295 0.0265937 0)
(0.145361 0.0355435 0)
(0.145741 0.0445468 0)
(0.146407 0.0536179 0)
(0.147338 0.0627709 0)
(0.148523 0.072019 0)
(0.149956 0.0813754 0)
(0.151644 0.0908525 0)
(0.153611 0.100462 0)
(0.155917 0.110215 0)
(0.158696 0.120128 0)
(0.162256 0.130243 0)
(0.167317 0.140563 0)
(0.175638 0.1507 0)
(0.188407 -0.00909478 0)
(0.188943 -0.0069844 0)
(0.189625 -0.00480911 0)
(0.190464 -0.0025961 0)
(0.191476 -0.000364504 0)
(0.192679 0.00187175 0)
(0.194089 0.0041013 0)
(0.195721 0.00631435 0)
(0.197585 0.00850232 0)
(0.199689 0.0106575 0)
(0.202035 0.012773 0)
(0.204619 0.0148421 0)
(0.20743 0.016859 0)
(0.210443 0.0188177 0)
(0.213624 0.020712 0)
(0.216918 0.0225341 0)
(0.220247 0.0242784 0)
(0.223509 0.0259559 0)
(0.22657 0.027565 0)
(0.229267 0.0288652 0)
(0.234818 0.0065061 0)
(0.23404 0.00816315 0)
(0.23329 0.00982337 0)
(0.232567 0.0114837 0)
(0.23187 0.0131405 0)
(0.231197 0.0147898 0)
(0.230545 0.0164271 0)
(0.229912 0.0180474 0)
(0.229298 0.0196453 0)
(0.228702 0.021215 0)
(0.228128 0.0227505 0)
(0.22758 0.0242457 0)
(0.227067 0.0256943 0)
(0.226601 0.0270904 0)
(0.2262 0.0284284 0)
(0.225887 0.029704 0)
(0.225692 0.0309136 0)
(0.225647 0.0320539 0)
(0.225793 0.0331258 0)
(0.226171 0.034154 0)
(0.249955 -0.00619594 0)
(0.250623 -0.00548459 0)
(0.251324 -0.00476619 0)
(0.252054 -0.00404141 0)
(0.252814 -0.00331081 0)
(0.253601 -0.00257488 0)
(0.254413 -0.00183399 0)
(0.255248 -0.00108838 0)
(0.256102 -0.000338198 0)
(0.256971 0.000416543 0)
(0.257848 0.00117588 0)
(0.258727 0.00193987 0)
(0.259601 0.00270854 0)
(0.260459 0.00348179 0)
(0.261292 0.00425923 0)
(0.262086 0.00504004 0)
(0.26283 0.00582325 0)
(0.263511 0.00660884 0)
(0.264116 0.00739511 0)
(0.264634 0.00816257 0)
(0.262561 0.00436031 0)
(0.262087 0.00497893 0)
(0.261614 0.00559031 0)
(0.261143 0.00619382 0)
(0.260677 0.00678885 0)
(0.260217 0.00737473 0)
(0.259765 0.00795084 0)
(0.259324 0.00851651 0)
(0.258897 0.00907113 0)
(0.258488 0.00961411 0)
(0.2581 0.0101449 0)
(0.257738 0.0106631 0)
(0.257407 0.0111683 0)
(0.257112 0.0116604 0)
(0.25686 0.0121393 0)
(0.256658 0.0126053 0)
(0.256511 0.0130588 0)
(0.256427 0.0134992 0)
(0.256412 0.0139271 0)
(0.256473 0.014353 0)
(0.273103 -0.00481752 0)
(0.273501 -0.00443683 0)
(0.273908 -0.0040517 0)
(0.274321 -0.00366212 0)
(0.27474 -0.00326803 0)
(0.275162 -0.00286944 0)
(0.275586 -0.00246631 0)
(0.276008 -0.00205867 0)
(0.276426 -0.00164654 0)
(0.276839 -0.00122998 0)
(0.277242 -0.000809085 0)
(0.277633 -0.000384019 0)
(0.278009 4.50033e-05 0)
(0.278365 0.000477689 0)
(0.2787 0.000913622 0)
(0.27901 0.00135223 0)
(0.27929 0.00179302 0)
(0.279538 0.00223623 0)
(0.279751 0.00268178 0)
(0.279926 0.00312064 0)
(0.277271 0.00257518 0)
(0.276967 0.0028874 0)
(0.276666 0.0031954 0)
(0.276368 0.00349902 0)
(0.276076 0.00379809 0)
(0.275789 0.0040925 0)
(0.275511 0.00438212 0)
(0.275243 0.00466686 0)
(0.274986 0.00494664 0)
(0.274744 0.00522144 0)
(0.274518 0.00549125 0)
(0.27431 0.00575611 0)
(0.274123 0.00601609 0)
(0.273959 0.00627131 0)
(0.27382 0.00652197 0)
(0.27371 0.00676835 0)
(0.273629 0.00701065 0)
(0.273582 0.00724861 0)
(0.273569 0.00748221 0)
(0.273594 0.0077171 0)
(0.284837 -0.00358194 0)
(0.285077 -0.00334993 0)
(0.285319 -0.00311511 0)
(0.285562 -0.00287746 0)
(0.285805 -0.00263699 0)
(0.286046 -0.00239371 0)
(0.286285 -0.00214765 0)
(0.28652 -0.00189886 0)
(0.286749 -0.00164741 0)
(0.286972 -0.00139339 0)
(0.287186 -0.00113691 0)
(0.28739 -0.000878137 0)
(0.287583 -0.00061723 0)
(0.287763 -0.000354397 0)
(0.287929 -8.98955e-05 0)
(0.288079 0.00017595 0)
(0.288212 0.000442878 0)
(0.288327 0.000711076 0)
(0.288423 0.000980624 0)
(0.288499 0.00124674 0)
(0.286182 0.00164987 0)
(0.285986 0.00182814 0)
(0.285792 0.00200402 0)
(0.285603 0.00217745 0)
(0.285417 0.00234841 0)
(0.285237 0.00251686 0)
(0.285064 0.00268278 0)
(0.284899 0.00284618 0)
(0.284742 0.00300707 0)
(0.284595 0.00316549 0)
(0.284459 0.00332147 0)
(0.284335 0.0034751 0)
(0.284224 0.00362644 0)
(0.284128 0.00377562 0)
(0.284048 0.00392275 0)
(0.283984 0.00406801 0)
(0.283938 0.00421154 0)
(0.28391 0.00435315 0)
(0.283902 0.00449278 0)
(0.283914 0.00463363 0)
(0.291552 -0.00259616 0)
(0.291702 -0.00245006 0)
(0.291852 -0.00230218 0)
(0.292001 -0.00215254 0)
(0.292149 -0.00200114 0)
(0.292295 -0.00184803 0)
(0.292437 -0.00169324 0)
(0.292576 -0.00153683 0)
(0.292711 -0.00137884 0)
(0.29284 -0.00121937 0)
(0.292963 -0.0010585 0)
(0.293079 -0.000896335 0)
(0.293188 -0.000732986 0)
(0.293288 -0.000568586 0)
(0.293379 -0.000403289 0)
(0.29346 -0.000237285 0)
(0.293531 -7.07209e-05 0)
(0.293591 9.65301e-05 0)
(0.29364 0.000264572 0)
(0.293677 0.00043066 0)
(0.291778 0.00115305 0)
(0.29165 0.00125929 0)
(0.291524 0.00136412 0)
(0.291401 0.00146752 0)
(0.291282 0.00156948 0)
(0.291167 0.00167001 0)
(0.291056 0.0017691 0)
(0.290951 0.00186679 0)
(0.290853 0.00196308 0)
(0.29076 0.00205803 0)
(0.290675 0.00215166 0)
(0.290599 0.00224403 0)
(0.29053 0.0023352 0)
(0.290471 0.00242524 0)
(0.290422 0.00251424 0)
(0.290383 0.0026023 0)
(0.290354 0.00268949 0)
(0.290337 0.0027757 0)
(0.290331 0.00286088 0)
(0.290337 0.00294694 0)
(0.295558 -0.00185524 0)
(0.295654 -0.00176281 0)
(0.295749 -0.00166923 0)
(0.295844 -0.00157454 0)
(0.295937 -0.00147875 0)
(0.296028 -0.00138189 0)
(0.296117 -0.00128399 0)
(0.296203 -0.00118509 0)
(0.296286 -0.00108524 0)
(0.296364 -0.000984504 0)
(0.296438 -0.000882931 0)
(0.296508 -0.000780593 0)
(0.296572 -0.000677566 0)
(0.296631 -0.000573932 0)
(0.296684 -0.000469785 0)
(0.296731 -0.000365236 0)
(0.296771 -0.000260374 0)
(0.296804 -0.000155142 0)
(0.296831 -4.94945e-05 0)
(0.29685 5.5122e-05 0)
(0.295315 0.000859056 0)
(0.295231 0.000922591 0)
(0.295148 0.000985253 0)
(0.295067 0.00104704 0)
(0.294989 0.00110796 0)
(0.294914 0.00116801 0)
(0.294842 0.00122721 0)
(0.294774 0.00128557 0)
(0.29471 0.00134311 0)
(0.294651 0.00139987 0)
(0.294596 0.00145587 0)
(0.294547 0.00151114 0)
(0.294503 0.00156574 0)
(0.294465 0.0016197 0)
(0.294433 0.00167307 0)
(0.294408 0.00172593 0)
(0.29439 0.00177832 0)
(0.294378 0.00183016 0)
(0.294373 0.0018814 0)
(0.294376 0.00193327 0)
(0.297952 -0.00131178 0)
(0.298016 -0.00125415 0)
(0.298078 -0.00119579 0)
(0.29814 -0.00113671 0)
(0.2982 -0.00107692 0)
(0.298258 -0.00101645 0)
(0.298315 -0.000955332 0)
(0.298369 -0.000893584 0)
(0.298421 -0.000831243 0)
(0.298471 -0.000768346 0)
(0.298517 -0.000704935 0)
(0.29856 -0.000641055 0)
(0.298599 -0.000576755 0)
(0.298635 -0.000512086 0)
(0.298667 -0.000447109 0)
(0.298695 -0.000381894 0)
(0.298718 -0.000316494 0)
(0.298737 -0.000250843 0)
(0.298751 -0.000184862 0)
(0.298761 -0.000119639 0)
(0.29752 0.000667898 0)
(0.297464 0.000704798 0)
(0.297408 0.000741141 0)
(0.297355 0.000776929 0)
(0.297303 0.000812167 0)
(0.297253 0.000846863 0)
(0.297206 0.000881029 0)
(0.297161 0.000914677 0)
(0.297119 0.000947824 0)
(0.29708 0.000980489 0)
(0.297044 0.0010127 0)
(0.297011 0.00104447 0)
(0.296982 0.00107583 0)
(0.296957 0.00110682 0)
(0.296936 0.00113747 0)
(0.296919 0.00116782 0)
(0.296906 0.0011979 0)
(0.296898 0.00122765 0)
(0.296894 0.00125705 0)
(0.296895 0.00128688 0)
(0.299342 -0.000917448 0)
(0.299384 -0.000882957 0)
(0.299425 -0.000847986 0)
(0.299466 -0.000812546 0)
(0.299505 -0.000776652 0)
(0.299544 -0.000740319 0)
(0.29958 -0.000703566 0)
(0.299615 -0.000666412 0)
(0.299649 -0.000628882 0)
(0.29968 -0.000591 0)
(0.299709 -0.000552793 0)
(0.299737 -0.000514291 0)
(0.299761 -0.000475526 0)
(0.299783 -0.000436531 0)
(0.299803 -0.000397343 0)
(0.29982 -0.00035801 0)
(0.299833 -0.00031856 0)
(0.299844 -0.000278932 0)
(0.299852 -0.00023907 0)
(0.299857 -0.000199821 0)
(0.298841 0.000537422 0)
(0.298803 0.000556709 0)
(0.298765 0.000575631 0)
(0.298729 0.00059419 0)
(0.298694 0.000612394 0)
(0.298661 0.000630248 0)
(0.298629 0.000647763 0)
(0.298599 0.000664948 0)
(0.298571 0.000681817 0)
(0.298544 0.000698383 0)
(0.29852 0.000714663 0)
(0.298498 0.000730675 0)
(0.298479 0.000746436 0)
(0.298462 0.000761968 0)
(0.298447 0.000777294 0)
(0.298435 0.000792442 0)
(0.298426 0.00080743 0)
(0.29842 0.000822222 0)
(0.298417 0.000836792 0)
(0.298416 0.000851678 0)
(0.300066 -0.000626832 0)
(0.300095 -0.000608694 0)
(0.300122 -0.000590241 0)
(0.300149 -0.000571481 0)
(0.300175 -0.000552423 0)
(0.3002 -0.000533076 0)
(0.300224 -0.000513452 0)
(0.300247 -0.000493564 0)
(0.300269 -0.000473427 0)
(0.300289 -0.000453054 0)
(0.300308 -0.000432464 0)
(0.300325 -0.000411674 0)
(0.300341 -0.000390703 0)
(0.300355 -0.000369571 0)
(0.300367 -0.000348301 0)
(0.300377 -0.000326921 0)
(0.300385 -0.000305447 0)
(0.300392 -0.00028384 0)
(0.300396 -0.000262063 0)
(0.300398 -0.000240652 0)
(0.299537 0.000449453 0)
(0.299511 0.000455904 0)
(0.299485 0.000462102 0)
(0.299461 0.000468049 0)
(0.299437 0.000473752 0)
(0.299414 0.000479217 0)
(0.299393 0.000484452 0)
(0.299372 0.000489465 0)
(0.299353 0.000494265 0)
(0.299335 0.000498864 0)
(0.299319 0.000503273 0)
(0.299304 0.000507504 0)
(0.299291 0.00051157 0)
(0.29928 0.000515487 0)
(0.29927 0.000519269 0)
(0.299263 0.000522936 0)
(0.299257 0.000526501 0)
(0.299253 0.000529942 0)
(0.299251 0.000533243 0)
(0.29925 0.000536732 0)
(0.300307 -0.00040633 0)
(0.300325 -0.000402224 0)
(0.300343 -0.000397922 0)
(0.300361 -0.000393425 0)
(0.300378 -0.000388744 0)
(0.300394 -0.000383887 0)
(0.30041 -0.000378863 0)
(0.300424 -0.000373682 0)
(0.300438 -0.000368354 0)
(0.300451 -0.00036289 0)
(0.300462 -0.000357303 0)
(0.300473 -0.000351604 0)
(0.300483 -0.000345808 0)
(0.300491 -0.000339927 0)
(0.300498 -0.000333978 0)
(0.300504 -0.000327975 0)
(0.300509 -0.000321934 0)
(0.300512 -0.000315855 0)
(0.300514 -0.000309739 0)
(0.300515 -0.00030371 0)
(0.211558 -0.0857969 0)
(0.210228 -0.085116 0)
(0.208826 -0.08428 0)
(0.207349 -0.0833138 0)
(0.205799 -0.0822113 0)
(0.204173 -0.0809652 0)
(0.202463 -0.0795685 0)
(0.200658 -0.0780125 0)
(0.198741 -0.0762853 0)
(0.196689 -0.0743716 0)
(0.194474 -0.0722518 0)
(0.192064 -0.0699008 0)
(0.18942 -0.067287 0)
(0.186497 -0.0643692 0)
(0.18325 -0.0610942 0)
(0.17963 -0.0573943 0)
(0.175594 -0.0531832 0)
(0.171116 -0.0483284 0)
(0.166212 -0.042574 0)
(0.160975 -0.0355186 0)
(0.202344 -0.0362923 0)
(0.200572 -0.0352832 0)
(0.198895 -0.0342493 0)
(0.197317 -0.033192 0)
(0.195843 -0.0321107 0)
(0.194478 -0.0310044 0)
(0.193227 -0.029872 0)
(0.192094 -0.0287122 0)
(0.191082 -0.0275232 0)
(0.190194 -0.0263025 0)
(0.189433 -0.0250472 0)
(0.188799 -0.023753 0)
(0.188292 -0.0224149 0)
(0.187911 -0.0210266 0)
(0.187653 -0.0195804 0)
(0.187512 -0.0180672 0)
(0.187483 -0.0164764 0)
(0.187558 -0.0147956 0)
(0.187733 -0.0130109 0)
(0.18801 -0.0111102 0)
(0.249518 -0.0227216 0)
(0.249059 -0.021552 0)
(0.248559 -0.0203489 0)
(0.248017 -0.0191047 0)
(0.247434 -0.0178212 0)
(0.246814 -0.0165007 0)
(0.246156 -0.0151449 0)
(0.245463 -0.0137552 0)
(0.244737 -0.0123335 0)
(0.24398 -0.0108815 0)
(0.243197 -0.00940127 0)
(0.242389 -0.00789478 0)
(0.241561 -0.00636412 0)
(0.240718 -0.00481141 0)
(0.239864 -0.00323874 0)
(0.239004 -0.00164818 0)
(0.238143 -4.16937e-05 0)
(0.237289 0.00157887 0)
(0.236446 0.0032117 0)
(0.235621 0.00485484 0)
(0.245327 -0.0185307 0)
(0.245093 -0.0179928 0)
(0.24491 -0.0174429 0)
(0.244777 -0.0168891 0)
(0.244697 -0.01633 0)
(0.244669 -0.015764 0)
(0.244694 -0.0151905 0)
(0.24477 -0.014609 0)
(0.244897 -0.0140191 0)
(0.245075 -0.0134204 0)
(0.245302 -0.0128125 0)
(0.245577 -0.012195 0)
(0.245899 -0.0115678 0)
(0.246266 -0.0109305 0)
(0.246676 -0.0102832 0)
(0.247128 -0.0096258 0)
(0.24762 -0.00895845 0)
(0.24815 -0.00828138 0)
(0.248717 -0.00759494 0)
(0.249319 -0.00689961 0)
(0.270384 -0.00855397 0)
(0.270131 -0.00792401 0)
(0.26986 -0.00729342 0)
(0.26957 -0.00665579 0)
(0.269262 -0.00601239 0)
(0.268937 -0.00536476 0)
(0.268595 -0.00471375 0)
(0.268237 -0.00406004 0)
(0.267863 -0.00340434 0)
(0.267475 -0.00274742 0)
(0.267074 -0.00209 0)
(0.26666 -0.0014328 0)
(0.266234 -0.000776549 0)
(0.265798 -0.000121924 0)
(0.265354 0.000530397 0)
(0.264901 0.00117976 0)
(0.264441 0.00182552 0)
(0.263976 0.00246707 0)
(0.263507 0.00310378 0)
(0.263035 0.00373506 0)
(0.268707 -0.0116148 0)
(0.268716 -0.0113063 0)
(0.268749 -0.0109916 0)
(0.268808 -0.0106759 0)
(0.26889 -0.0103583 0)
(0.268997 -0.0100382 0)
(0.269128 -0.00971523 0)
(0.269283 -0.00938928 0)
(0.26946 -0.00906017 0)
(0.269661 -0.00872776 0)
(0.269883 -0.00839188 0)
(0.270125 -0.00805239 0)
(0.270389 -0.00770917 0)
(0.270671 -0.0073621 0)
(0.270972 -0.00701107 0)
(0.27129 -0.00665599 0)
(0.271625 -0.0062968 0)
(0.271974 -0.00593341 0)
(0.272338 -0.00556577 0)
(0.272715 -0.00519382 0)
(0.282383 -0.00421479 0)
(0.282208 -0.00386506 0)
(0.282023 -0.0035179 0)
(0.281827 -0.00316931 0)
(0.281621 -0.00281994 0)
(0.281405 -0.0024706 0)
(0.281179 -0.00212164 0)
(0.280943 -0.00177331 0)
(0.280699 -0.00142589 0)
(0.280446 -0.00107967 0)
(0.280185 -0.000734917 0)
(0.279916 -0.000391915 0)
(0.27964 -5.09262e-05 0)
(0.279358 0.000287791 0)
(0.27907 0.000623986 0)
(0.278778 0.000957416 0)
(0.278481 0.00128785 0)
(0.278181 0.00161505 0)
(0.277878 0.00193881 0)
(0.277575 0.00225892 0)
(0.281742 -0.00771271 0)
(0.281785 -0.00752556 0)
(0.281842 -0.00733467 0)
(0.281913 -0.00714304 0)
(0.281996 -0.00695027 0)
(0.282093 -0.00675587 0)
(0.282203 -0.0065597 0)
(0.282325 -0.00636168 0)
(0.28246 -0.00616175 0)
(0.282607 -0.00595979 0)
(0.282765 -0.00575572 0)
(0.282933 -0.00554945 0)
(0.283113 -0.00534089 0)
(0.283302 -0.00512998 0)
(0.2835 -0.00491663 0)
(0.283706 -0.00470078 0)
(0.28392 -0.00448236 0)
(0.284141 -0.00426132 0)
(0.284369 -0.0040376 0)
(0.284601 -0.00381115 0)
(0.289642 -0.00227224 0)
(0.289518 -0.00206652 0)
(0.289387 -0.00186291 0)
(0.289249 -0.00165894 0)
(0.289105 -0.00145501 0)
(0.288954 -0.00125156 0)
(0.288798 -0.00104879 0)
(0.288636 -0.000846792 0)
(0.288468 -0.000645713 0)
(0.288295 -0.000445687 0)
(0.288117 -0.000246849 0)
(0.287935 -4.93284e-05 0)
(0.287749 0.000146748 0)
(0.28756 0.000341259 0)
(0.287367 0.000534087 0)
(0.287172 0.00072512 0)
(0.286975 0.000914253 0)
(0.286777 0.00110138 0)
(0.286578 0.00128642 0)
(0.286379 0.00146928 0)
(0.289425 -0.00518124 0)
(0.289467 -0.00506528 0)
(0.289518 -0.00494685 0)
(0.289577 -0.00482782 0)
(0.289644 -0.00470793 0)
(0.289718 -0.00458687 0)
(0.2898 -0.00446458 0)
(0.289889 -0.004341 0)
(0.289986 -0.0042161 0)
(0.290089 -0.0040898 0)
(0.290198 -0.00396207 0)
(0.290314 -0.00383285 0)
(0.290435 -0.00370209 0)
(0.290561 -0.00356975 0)
(0.290693 -0.00343579 0)
(0.290828 -0.00330017 0)
(0.290968 -0.00316285 0)
(0.291111 -0.00302381 0)
(0.291256 -0.00288303 0)
(0.291403 -0.00274048 0)
(0.294133 -0.0011997 0)
(0.294045 -0.00107511 0)
(0.293952 -0.000951999 0)
(0.293856 -0.000828811 0)
(0.293755 -0.000705779 0)
(0.293651 -0.000583186 0)
(0.293542 -0.000461134 0)
(0.29343 -0.000339685 0)
(0.293315 -0.00021891 0)
(0.293196 -9.88861e-05 0)
(0.293074 2.03129e-05 0)
(0.29295 0.000138616 0)
(0.292824 0.000255957 0)
(0.292696 0.00037227 0)
(0.292566 0.000487493 0)
(0.292435 0.00060157 0)
(0.292303 0.000714447 0)
(0.292171 0.000826076 0)
(0.292039 0.000936411 0)
(0.291908 0.00104541 0)
(0.29408 -0.00347807 0)
(0.294116 -0.00340618 0)
(0.294158 -0.00333261 0)
(0.294204 -0.00325856 0)
(0.294255 -0.00318388 0)
(0.294311 -0.00310836 0)
(0.294371 -0.00303196 0)
(0.294436 -0.00295466 0)
(0.294505 -0.00287643 0)
(0.294578 -0.00279722 0)
(0.294654 -0.00271703 0)
(0.294734 -0.0026358 0)
(0.294817 -0.00255353 0)
(0.294903 -0.00247018 0)
(0.294992 -0.00238573 0)
(0.295083 -0.00230017 0)
(0.295175 -0.00221348 0)
(0.29527 -0.00212565 0)
(0.295365 -0.00203667 0)
(0.295461 -0.00194653 0)
(0.296915 -0.000559965 0)
(0.296854 -0.000484134 0)
(0.29679 -0.000409341 0)
(0.296723 -0.000334548 0)
(0.296654 -0.000259913 0)
(0.296581 -0.000185616 0)
(0.296507 -0.000111721 0)
(0.29643 -3.8262e-05 0)
(0.296351 3.47179e-05 0)
(0.296269 0.000107174 0)
(0.296187 0.000179064 0)
(0.296102 0.000250347 0)
(0.296016 0.000320984 0)
(0.295929 0.000390939 0)
(0.295842 0.000460179 0)
(0.295754 0.000528671 0)
(0.295665 0.000596389 0)
(0.295577 0.000663306 0)
(0.295489 0.000729401 0)
(0.295401 0.000794656 0)
(0.296912 -0.00231266 0)
(0.296942 -0.00226901 0)
(0.296975 -0.0022242 0)
(0.297011 -0.00217904 0)
(0.29705 -0.00213342 0)
(0.297092 -0.00208722 0)
(0.297136 -0.00204041 0)
(0.297184 -0.00199296 0)
(0.297233 -0.00194486 0)
(0.297285 -0.00189609 0)
(0.297339 -0.00184664 0)
(0.297395 -0.00179649 0)
(0.297453 -0.00174562 0)
(0.297512 -0.00169402 0)
(0.297573 -0.00164168 0)
(0.297635 -0.00158859 0)
(0.297698 -0.00153475 0)
(0.297761 -0.00148014 0)
(0.297825 -0.00142478 0)
(0.297889 -0.00136865 0)
(0.298606 -0.000169552 0)
(0.298564 -0.000124195 0)
(0.29852 -7.95765e-05 0)
(0.298475 -3.4987e-05 0)
(0.298427 9.46258e-06 0)
(0.298377 5.36508e-05 0)
(0.298326 9.75396e-05 0)
(0.298274 0.000141108 0)
(0.29822 0.000184332 0)
(0.298164 0.000227183 0)
(0.298108 0.000269636 0)
(0.29805 0.000311668 0)
(0.297992 0.000353256 0)
(0.297933 0.000394379 0)
(0.297874 0.000435019 0)
(0.297814 0.000475158 0)
(0.297755 0.000514782 0)
(0.297695 0.000553878 0)
(0.297636 0.000592434 0)
(0.297578 0.000630443 0)
(0.298603 -0.00150571 0)
(0.298627 -0.00148068 0)
(0.298653 -0.00145485 0)
(0.298681 -0.00142877 0)
(0.298711 -0.00140237 0)
(0.298742 -0.00137556 0)
(0.298775 -0.00134833 0)
(0.29881 -0.00132066 0)
(0.298846 -0.00129255 0)
(0.298883 -0.00126398 0)
(0.298921 -0.00123495 0)
(0.298961 -0.00120543 0)
(0.299002 -0.00117543 0)
(0.299043 -0.00114494 0)
(0.299085 -0.00111395 0)
(0.299127 -0.00108246 0)
(0.29917 -0.00105046 0)
(0.299213 -0.00101796 0)
(0.299256 -0.000984957 0)
(0.299299 -0.00095145 0)
(0.299579 8.32003e-05 0)
(0.299551 0.000108467 0)
(0.299521 0.000133181 0)
(0.29949 0.000157861 0)
(0.299457 0.000182423 0)
(0.299423 0.00020678 0)
(0.299389 0.000230908 0)
(0.299353 0.000254796 0)
(0.299316 0.000278429 0)
(0.299278 0.000301791 0)
(0.29924 0.000324866 0)
(0.2992 0.000347642 0)
(0.299161 0.000370104 0)
(0.299121 0.000392242 0)
(0.29908 0.000414045 0)
(0.29904 0.000435505 0)
(0.298999 0.000456612 0)
(0.298959 0.000477362 0)
(0.298919 0.000497748 0)
(0.29888 0.000517769 0)
(0.299542 -0.000923725 0)
(0.299561 -0.000911689 0)
(0.299581 -0.000899109 0)
(0.299602 -0.000886397 0)
(0.299625 -0.000873494 0)
(0.299648 -0.000860335 0)
(0.299672 -0.000846904 0)
(0.299697 -0.000833197 0)
(0.299723 -0.000819205 0)
(0.29975 -0.00080492 0)
(0.299777 -0.000790334 0)
(0.299805 -0.000775438 0)
(0.299833 -0.000760229 0)
(0.299862 -0.000744699 0)
(0.299891 -0.000728845 0)
(0.299921 -0.000712665 0)
(0.29995 -0.000696156 0)
(0.29998 -0.000679317 0)
(0.300009 -0.000662148 0)
(0.300038 -0.000644652 0)
(0.300053 0.000270765 0)
(0.300032 0.000281653 0)
(0.300011 0.000292168 0)
(0.299989 0.000302613 0)
(0.299966 0.000312942 0)
(0.299942 0.000323104 0)
(0.299917 0.000333085 0)
(0.299892 0.000342876 0)
(0.299866 0.00035247 0)
(0.29984 0.000361856 0)
(0.299813 0.000371025 0)
(0.299785 0.00037997 0)
(0.299758 0.000388683 0)
(0.29973 0.000397158 0)
(0.299702 0.000405389 0)
(0.299674 0.000413371 0)
(0.299646 0.000421101 0)
(0.299618 0.000428576 0)
(0.299591 0.000435794 0)
(0.299564 0.000442752 0)
(0.299943 -0.000444899 0)
(0.299957 -0.000444848 0)
(0.299972 -0.000444554 0)
(0.299988 -0.000444121 0)
(0.300004 -0.000443523 0)
(0.300021 -0.000442741 0)
(0.300038 -0.000441767 0)
(0.300056 -0.000440599 0)
(0.300074 -0.000439231 0)
(0.300093 -0.000437659 0)
(0.300112 -0.00043588 0)
(0.300131 -0.00043389 0)
(0.30015 -0.000431688 0)
(0.30017 -0.00042927 0)
(0.30019 -0.000426637 0)
(0.30021 -0.000423788 0)
(0.30023 -0.000420723 0)
(0.300249 -0.000417443 0)
(0.300269 -0.000413951 0)
(0.300288 -0.000410243 0)
(0.024022 -0.067038 0)
(0.0087401 -0.0472813 0)